/*--------------------------------*- C++ -*----------------------------------*\
  =========                 |
  \\      /  F ield         | OpenFOAM: The Open Source CFD Toolbox
   \\    /   O peration     | Website:  https://openfoam.org
    \\  /    A nd           | Version:  7
     \\/     M anipulation  |
\*---------------------------------------------------------------------------*/
FoamFile
{
    version     2.0;
    format      ascii;
    class       surfaceScalarField;
    location    "8";
    object      phi;
}
// * * * * * * * * * * * * * * * * * * * * * * * * * * * * * * * * * * * * * //

dimensions      [0 3 -1 0 0 0 0];

internalField   nonuniform List<scalar> 
814
(
0.0247819
9.19932e-05
0.0246959
8.59852e-05
0.0246161
7.98146e-05
0.0245426
7.34905e-05
0.0244756
6.70225e-05
0.0244152
6.04206e-05
0.0243615
5.36948e-05
0.0243146
4.68555e-05
0.0242747
3.9913e-05
0.0242418
3.28785e-05
0.0242161
2.57624e-05
1.85761e-05
0.0239272
0.000180811
0.0238442
0.000168963
0.0237672
0.000156797
0.0236964
0.000144332
0.0236318
0.000131588
0.0235736
0.000118582
0.023522
0.000105336
0.023477
9.18697e-05
0.0234387
7.82033e-05
0.0234072
6.43579e-05
0.0233826
5.03552e-05
3.62165e-05
0.0231122
0.000266504
0.0230322
0.000248978
0.022958
0.000230987
0.0228898
0.000212558
0.0228277
0.00019372
0.0227718
0.000174501
0.0227222
0.000154929
0.022679
0.000135036
0.0226424
0.000114851
0.0226123
9.44045e-05
0.0225889
7.37292e-05
5.28561e-05
0.022334
0.00034912
0.0222569
0.000326069
0.0221855
0.000302413
0.0221198
0.000278188
0.0220601
0.000253428
0.0220065
0.000228173
0.0219589
0.00020246
0.0219176
0.000176328
0.0218827
0.000149816
0.0218541
0.000122967
0.021832
9.58194e-05
6.84164e-05
0.0215898
0.0215156
0.000400281
0.0214469
0.000371112
0.0213838
0.000341247
0.0213265
0.00031073
0.0212751
0.000279607
0.0212296
0.000247925
0.0211902
0.000215732
0.021157
0.000183077
0.0211299
0.00015001
0.0211092
0.00011658
8.28389e-05
0.020806
0.000471653
0.02074
0.000437116
0.0206795
0.000401761
0.0206245
0.000365641
0.0205753
0.00032881
0.0205319
0.000291324
0.0204944
0.000253238
0.0204629
0.000214611
0.0204374
0.000175501
0.020418
0.000135967
9.60693e-05
0.0201259
0.000540224
0.0200625
0.000500455
0.0200045
0.000459752
0.019952
0.000418176
0.019905
0.000375789
0.0198637
0.000332654
0.0198281
0.000288836
0.0197983
0.000244399
0.0197744
0.000199413
0.0197564
0.000153943
0.00010806
0.0194733
0.000606027
0.0194126
0.000561157
0.0193571
0.000515242
0.0193069
0.000468349
0.0192622
0.00042055
0.0192229
0.000371914
0.0191892
0.000322514
0.0191612
0.000272423
0.0191389
0.000221717
0.0191224
0.000170473
0.000118766
0.0188465
0.000669087
0.0187884
0.00061924
0.0187354
0.000568242
0.0186876
0.000516168
0.0186451
0.000463093
0.0186079
0.000409097
0.0185761
0.00035426
0.0185499
0.000298663
0.0185292
0.000242388
0.0185142
0.00018552
0.000128144
0.0182439
0.000729422
0.0181884
0.000674719
0.0181379
0.000618762
0.0180924
0.000561633
0.0180521
0.000503415
0.018017
0.000444195
0.0179872
0.000384059
0.0179627
0.000323096
0.0179437
0.000261396
0.0179302
0.000199051
0.000136153
0.0176638
0.000787038
0.0176109
0.000727594
0.0175629
0.000666799
0.0175197
0.000604739
0.0174817
0.000541506
0.0174487
0.000477192
0.0174208
0.00041189
0.0173982
0.000345697
0.0173809
0.00027871
0.0173689
0.000211027
0.000142748
0.0171048
0.000841932
0.0170545
0.000777861
0.017009
0.000712343
0.0169683
0.000645473
0.0169324
0.000577348
0.0169015
0.000508066
0.0168757
0.000437728
0.016855
0.000366435
0.0168394
0.000294293
0.016829
0.000221407
0.000147884
0.0165656
0.000894089
0.016518
0.000825501
0.0164749
0.000755375
0.0164366
0.000683813
0.016403
0.000610916
0.0163743
0.00053679
0.0163505
0.000461541
0.0163316
0.000385278
0.0163178
0.000308112
0.0163091
0.000230154
0.000151518
0.0160449
0.00094348
0.0159999
0.000870485
0.0159595
0.000795865
0.0159235
0.000719725
0.0158923
0.000642176
0.0158657
0.000563327
0.015844
0.00048329
0.0158271
0.000402181
0.0158151
0.000320117
0.015808
0.000237215
0.000153596
0.0155416
0.000990063
0.0154993
0.000912771
0.0154614
0.000833769
0.0154279
0.000753169
0.015399
0.000671084
0.0153747
0.000587632
0.0153551
0.00050293
0.0153402
0.000417098
0.01533
0.00033026
0.0153247
0.00024254
0.000154063
0.0150544
0.00103378
0.0150149
0.000952304
0.0149796
0.000869034
0.0149487
0.000784089
0.0149222
0.000697588
0.0149002
0.000609652
0.0148827
0.000520406
0.0148698
0.000429974
0.0148616
0.000338486
0.0148581
0.000246072
0.000152863
0.0145825
0.00107457
0.0145458
0.000989017
0.0145132
0.000901594
0.0144849
0.000812421
0.0144608
0.000721623
0.0144412
0.000629324
0.0144259
0.000535656
0.0144151
0.000440748
0.0144089
0.000344734
0.0144072
0.000247749
0.000149933
0.0141247
0.00111233
0.0140909
0.00102283
0.0140611
0.000931371
0.0140355
0.00083809
0.014014
0.000743115
0.0139967
0.000646577
0.0139838
0.000548609
0.0139752
0.000449349
0.013971
0.000348933
0.0139712
0.000247504
0.000145203
0.0136803
0.00114698
0.0136494
0.00105364
0.0136225
0.000958271
0.0135996
0.000861007
0.0135808
0.000761981
0.013566
0.000661328
0.0135554
0.000559187
0.0135491
0.000455699
0.013547
0.000351008
0.0135493
0.000245259
0.000138602
0.0132483
0.00117839
0.0132206
0.00108134
0.0131966
0.000982192
0.0131766
0.000881072
0.0131604
0.000778122
0.0131483
0.000673483
0.0131402
0.000567298
0.0131362
0.000459713
0.0131363
0.000350875
0.0131406
0.000240935
0.000130048
0.012828
0.00120644
0.0128035
0.00110582
0.0127827
0.00100301
0.0127656
0.000898172
0.0127523
0.000791433
0.0127428
0.000682941
0.0127373
0.000572844
0.0127357
0.000461292
0.0127381
0.000348438
0.0127446
0.000234437
0.000119447
0.0124187
0.00123097
0.0123976
0.00112692
0.01238
0.00102061
0.012366
0.000912183
0.0123556
0.000801795
0.012349
0.00068959
0.0123461
0.000575722
0.0123471
0.000460343
0.0123519
0.000343611
0.0123606
0.000225688
0.000106736
0.0120197
0.00125182
0.0120022
0.00114449
0.011988
0.00103482
0.0119772
0.000922963
0.0119699
0.000809073
0.0119662
0.000693302
0.0119661
0.000575806
0.0119697
0.000456743
0.011977
0.000336276
0.0119882
0.00021457
9.17943e-05
0.0116305
0.00126881
0.0116167
0.00115836
0.011606
0.00104549
0.0115986
0.000930358
0.0115946
0.000813123
0.0115939
0.000693939
0.0115968
0.000572968
0.0116031
0.000450371
0.0116131
0.000326316
0.0116267
0.000200973
7.4521e-05
0.0112506
0.00128173
0.0112406
0.00116833
0.0112336
0.00105244
0.0112298
0.000934199
0.0112291
0.000813782
0.0112317
0.000691349
0.0112376
0.000567063
0.0112469
0.000441091
0.0112596
0.000313605
0.0112758
0.00018478
5.48103e-05
0.0108793
0.00129036
0.0108734
0.0011742
0.0108704
0.00105546
0.0108703
0.000934295
0.0108732
0.000810874
0.0108792
0.000685365
0.0108883
0.000557934
0.0109007
0.000428755
0.0109163
0.000298004
0.0109352
0.000165861
3.2559e-05
0.0105163
0.00129446
0.0105148
0.00117574
0.0105159
0.00105434
0.0105197
0.000930439
0.0105264
0.000804203
0.010536
0.000675801
0.0105485
0.000545408
0.0105641
0.000413198
0.0105827
0.000279352
0.0106045
0.000144054
7.72497e-06
0.0101611
0.00129374
0.0101642
0.00117267
0.0101697
0.00104883
0.0101777
0.000922404
0.0101884
0.000793556
0.0102017
0.000662465
0.0102178
0.000529309
0.0102368
0.000394269
0.0102586
0.000257529
0.0102833
0.00011929
-2.01698e-05
0.00981338
0.00128791
0.00982134
0.00116471
0.00983151
0.00103866
0.00984399
0.000909924
0.00985887
0.000778684
0.00987621
0.00064512
0.0098961
0.000509415
0.00991862
0.000371754
0.00994382
0.000232331
0.00997174
9.13617e-05
-5.10309e-05
0.00947257
0.0012766
0.00948575
0.00115153
0.0095009
0.00102351
0.00951812
0.000892705
0.0095375
0.000759309
0.00955911
0.000623506
0.00958304
0.000485483
0.00960937
0.000345432
0.00963814
0.000203553
0.0096694
6.01101e-05
-8.49854e-05
0.00913817
0.00125944
0.00915695
0.00113276
0.00917744
0.00100302
0.00919973
0.000870406
0.00922393
0.00073511
0.00925012
0.000597321
0.00927837
0.000457232
0.00930876
0.00031504
0.00934136
0.000170956
0.00937606
2.54063e-05
-0.000122249
0.00880955
0.00123597
0.00883436
0.00110795
0.0088606
0.000976773
0.00888838
0.000842627
0.00891779
0.000705708
0.00894889
0.000566212
0.00898179
0.000424337
0.00901654
0.000280288
0.00905321
0.000134289
0.00909167
-1.30546e-05
-0.000162996
0.00848599
0.00120566
0.00851735
0.00107659
0.00854985
0.000944269
0.00858359
0.000808887
0.00861865
0.000670649
0.0086551
0.000529761
0.00869301
0.000386431
0.00873241
0.000240881
0.0087733
9.34004e-05
0.00881626
-5.601e-05
-0.0002073
0.0081667
0.00116789
0.00820523
0.00103806
0.0082446
0.000904898
0.0082849
0.00076859
0.00832619
0.000629355
0.00836854
0.00048741
0.00841199
0.000342981
0.00845654
0.000196333
0.00850201
4.79351e-05
0.00854911
-0.000103117
-0.000255427
0.00785094
0.00112191
0.00789737
0.000991625
0.00794433
0.000857937
0.00799188
0.000721039
0.00804008
0.000581161
0.00808896
0.000438531
0.00813856
0.000293383
0.00818894
0.000145954
0.00823839
-1.51988e-06
0.00829007
-0.0001548
-0.000307276
0.00753818
0.00106688
0.00759335
0.000936449
0.00764871
0.000802582
0.00770425
0.000665498
0.00775995
0.00052546
0.00781575
0.000382733
0.00787152
0.000237611
0.00792692
9.05573e-05
0.00798404
-5.86394e-05
0.00803929
-0.00021005
-0.000362089
0.00722828
0.00100191
0.0072931
0.000871634
0.00735771
0.000737963
0.00742206
0.000601152
0.00748602
0.000461503
0.00754943
0.000319323
0.00761208
0.000174962
0.00767318
2.94509e-05
0.00773415
-0.00011961
0.00779315
-0.000269049
-0.00041903
0.00692155
0.00699681
0.00707136
0.00714496
0.00721735
0.000389114
0.00728819
0.000248482
0.00735688
0.000106267
0.0074236
-3.72654e-05
0.00748787
-0.000183877
0.00754876
-0.000329945
-0.000476064
0.00695178
0.00702903
0.00710258
0.00717359
0.00723902
-0.00024931
0.00729919
-0.000390121
-0.000530257
0.00697578
0.00703276
)
;

boundaryField
{
    inlet
    {
        type            calculated;
        value           nonuniform 0();
    }
    outlet
    {
        type            calculated;
        value           nonuniform 0();
    }
    cylinder
    {
        type            calculated;
        value           nonuniform 0();
    }
    top
    {
        type            symmetryPlane;
        value           nonuniform 0();
    }
    bottom
    {
        type            symmetryPlane;
        value           uniform 0;
    }
    defaultFaces
    {
        type            empty;
        value           nonuniform 0();
    }
    procBoundary1to0
    {
        type            processor;
        value           nonuniform List<scalar> 
31
(
-0.0248739
-0.024016
-0.0231979
-0.0224166
-0.0216694
0.00042871
-0.0208773
-0.0201944
-0.0195391
-0.0189096
-0.0183042
-0.0177214
-0.0171597
-0.0166178
-0.0160943
-0.0155882
-0.0150982
-0.0146233
-0.0141625
-0.0137149
-0.0132797
-0.012856
-0.0124432
-0.0120406
-0.0116475
-0.0112635
-0.0108879
-0.0105204
-0.0101604
-0.00980755
-0.00946127
)
;
    }
    procBoundary1to2
    {
        type            processor;
        value           nonuniform List<scalar> 
33
(
0.0241975
0.023365
0.0225723
0.0218165
0.0210948
0.0204048
0.0197444
0.0191117
0.0185048
0.0179222
0.0173623
0.0168239
0.0163054
0.0158059
0.0153242
0.0148593
0.0144101
0.0139759
0.0135559
0.0131492
0.0127552
0.0123733
0.0120031
0.011644
0.0112955
0.0109574
0.0106294
0.0103112
0.0100026
0.00970335
0.00941333
0.00913242
0.00886056
)
;
    }
    procBoundary1to6
    {
        type            processor;
        value           nonuniform List<scalar> 8(-0.00912101 -0.00878608 -0.00845568 -0.00812893 -0.00780496 -0.00748315 -0.00716331 -0.00684574);
    }
    procBoundary1to7
    {
        type            processor;
        value           nonuniform List<scalar> 
13
(
-0.000313767
-0.0004471
-0.000578901
0.000926093
0.000796374
0.000663421
0.000527552
-0.00687168
0.000309015
0.00017124
3.27105e-05
-0.000108269
-0.00691133
)
;
    }
    procBoundary1to8
    {
        type            processor;
        value           nonuniform List<scalar> 7(0.00859724 0.00834192 0.0080941 0.00785009 0.0076058 0.00735339 0.00708141);
    }
}


// ************************************************************************* //
