/*--------------------------------*- C++ -*----------------------------------*\
  =========                 |
  \\      /  F ield         | OpenFOAM: The Open Source CFD Toolbox
   \\    /   O peration     | Website:  https://openfoam.org
    \\  /    A nd           | Version:  7
     \\/     M anipulation  |
\*---------------------------------------------------------------------------*/
FoamFile
{
    version     2.0;
    format      ascii;
    class       surfaceScalarField;
    location    "20";
    object      phi;
}
// * * * * * * * * * * * * * * * * * * * * * * * * * * * * * * * * * * * * * //

dimensions      [0 3 -1 0 0 0 0];

internalField   nonuniform List<scalar> 
828
(
0.0136254
0.000763895
0.0136467
0.000732093
0.0136621
0.000695617
0.0136716
0.0006546
0.013675
0.000609229
0.0136723
0.000559704
0.0136635
0.000506275
0.0136488
0.000449258
0.0136282
0.000389031
0.013602
0.00032602
0.0135704
0.000260699
0.0135337
0.000193577
0.0134925
0.000125198
0.013447
5.61243e-05
0.0133977
-1.30778e-05
0.0133452
-8.18529e-05
-0.000149647
0.0139313
0.000775002
0.0139662
0.000756279
0.0139964
0.000733645
0.0140218
0.000706773
0.0140419
0.000675474
0.0140567
0.000639818
0.014066
0.000599945
0.0140697
0.000556007
0.0140677
0.000508199
0.0140602
0.000456781
0.0140472
0.000402071
0.0140288
0.000344437
0.0140052
0.000284294
0.0139766
0.0002221
0.0139435
0.000158346
0.0139061
9.35496e-05
0.0138648
2.82439e-05
0.0138199
-3.70387e-05
-0.000101783
0.0143067
0.000734705
0.0143433
0.000719705
0.0143758
0.000701087
0.0144041
0.00067853
0.0144277
0.000651817
0.0144466
0.000620966
0.0144605
0.000586069
0.0144692
0.000547232
0.0144728
0.000504604
0.0144712
0.00045839
0.0144645
0.000408853
0.0144526
0.000356307
0.0144358
0.000301116
0.0144142
0.000243683
0.0143881
0.000184452
0.0143577
0.000123894
0.0143235
6.25031e-05
0.0142856
8.04804e-07
-6.07613e-05
0.0146944
0.000693949
0.0147319
0.000682123
0.0147661
0.000666973
0.0147964
0.000648188
0.0148227
0.000625531
0.0148447
0.000598979
0.0148622
0.000568579
0.014875
0.000534396
0.0148831
0.000496531
0.0148863
0.000455144
0.0148847
0.000410446
0.0148783
0.000362701
0.0148672
0.00031222
0.0148515
0.000259358
0.0148315
0.000204512
0.0148073
0.000148109
0.0147792
9.06068e-05
0.0147475
3.24777e-05
-2.58157e-05
0.0150955
0.000653134
0.0151337
0.000644003
0.0151688
0.000631838
0.0152006
0.000616342
0.0152289
0.000597267
0.0152533
0.000574554
0.0152737
0.000548211
0.0152898
0.000518265
0.0153016
0.000484779
0.0153089
0.000447865
0.0153116
0.000407689
0.0153099
0.000364467
0.0153036
0.000318461
0.015293
0.000269978
0.0152781
0.000219369
0.0152592
0.000167019
0.0152365
0.000113343
0.0152102
5.87779e-05
3.7759e-06
0.0155114
0.000612532
0.0155497
0.000605674
0.0155855
0.000596069
0.0156184
0.00058343
0.0156481
0.000567506
0.0156745
0.00054821
0.0156972
0.000525518
0.015716
0.000499424
0.0157308
0.000469954
0.0157415
0.000437181
0.015748
0.000401228
0.0157502
0.000362263
0.0157481
0.000320505
0.0157419
0.000276215
0.0157316
0.000229697
0.0157173
0.000181293
0.0156993
0.00013138
0.0156777
8.03575e-05
2.86452e-05
0.0159428
0.000572328
0.0159811
0.000567376
0.0160172
0.000559951
0.0160509
0.00054978
0.0160818
0.000536616
0.0161096
0.000520349
0.0161342
0.00050093
0.0161553
0.000478324
0.0161727
0.000452528
0.0161863
0.000423578
0.016196
0.000391558
0.0162017
0.000356596
0.0162033
0.000318865
0.0162009
0.000278584
0.0161946
0.000236013
0.0161845
0.000191452
0.0161706
0.000145236
0.0161532
9.77273e-05
4.93115e-05
0.0163908
0.000532652
0.0164289
0.000529282
0.0164652
0.0005237
0.0164993
0.000515648
0.016531
0.000504885
0.0165601
0.000491288
0.0165862
0.000474786
0.0166092
0.000455326
0.0166289
0.000432876
0.016645
0.000407442
0.0166575
0.000379074
0.0166662
0.000347863
0.0166712
0.000313943
0.0166722
0.000277489
0.0166695
0.00023872
0.0166631
0.000197895
0.016653
0.000155307
0.0166395
0.000111284
6.61762e-05
0.0168565
0.000493593
0.0168942
0.000491521
0.0169304
0.000487481
0.0169649
0.000481232
0.0169972
0.000472543
0.0170272
0.000461284
0.0170546
0.00044737
0.0170792
0.000430729
0.0171008
0.00041131
0.0171191
0.000389096
0.0171341
0.000364105
0.0171456
0.000336395
0.0171534
0.000306065
0.0171577
0.000273252
0.0171583
0.000238136
0.0171552
0.000200934
0.0171486
0.000161901
0.0171386
0.000121326
7.95243e-05
0.0173408
0.00045521
0.0173782
0.000454185
0.0174142
0.000451418
0.0174488
0.00044669
0.0174815
0.000439778
0.0175123
0.000430551
0.0175407
0.000418915
0.0175667
0.000404786
0.0175899
0.000388099
0.0176102
0.000368815
0.0176273
0.00034693
0.0176412
0.000322473
0.0176518
0.000295512
0.0176589
0.000266149
0.0176625
0.000234527
0.0176626
0.000200826
0.0176593
0.000165264
0.0176525
0.000128091
8.95867e-05
0.0178451
0.000417533
0.017882
0.000417334
0.0179178
0.000415604
0.0179523
0.000412141
0.0179854
0.000406738
0.0180167
0.000399263
0.018046
0.000389618
0.018073
0.000377713
0.0180977
0.000363472
0.0181196
0.000346842
0.0181388
0.000327799
0.0181549
0.000306349
0.0181679
0.000282533
0.0181776
0.000256423
0.018184
0.000228129
0.018187
0.000197798
0.0181867
0.00016561
0.018183
0.000131779
9.65513e-05
0.0183707
0.000380569
0.018407
0.000381004
0.0184425
0.0003801
0.018477
0.000377675
0.0185102
0.000373537
0.0185419
0.000367559
0.0185718
0.000359643
0.0185999
0.000349694
0.0186257
0.000337631
0.0186492
0.00032339
0.01867
0.000306933
0.0186881
0.000288249
0.0187033
0.000267355
0.0187154
0.000244298
0.0187244
0.000219161
0.0187301
0.000192057
0.0187326
0.000163134
0.0187318
0.000132574
0.000100586
0.0189189
0.000344302
0.0189547
0.000345202
0.0189898
0.000344939
0.0190241
0.000343349
0.0190574
0.000340259
0.0190894
0.000335549
0.01912
0.00032912
0.0191488
0.000320879
0.0191757
0.000310743
0.0192004
0.000298643
0.0192228
0.000284529
0.0192427
0.000268377
0.0192598
0.000250186
0.0192742
0.000229984
0.0192855
0.000207826
0.0192937
0.0001838
0.0192989
0.000158026
0.0193008
0.000130651
0.000101854
0.0194912
0.000308695
0.0195265
0.000309912
0.0195613
0.000310127
0.0195955
0.000309194
0.0196288
0.000306959
0.019661
0.000303308
0.019692
0.000298148
0.0197215
0.00029139
0.0197493
0.000282951
0.0197752
0.000272758
0.0197989
0.000260758
0.0198204
0.000246915
0.0198394
0.000231217
0.0198557
0.000213672
0.0198692
0.000194318
0.0198798
0.000173219
0.0198873
0.000150467
0.0198918
0.000126183
0.000100517
0.0200895
0.000273691
0.0201243
0.000275096
0.0201587
0.000275645
0.0201927
0.000275212
0.020226
0.000273659
0.0202585
0.000270883
0.0202898
0.000266797
0.0203199
0.000261317
0.0203485
0.000254363
0.0203754
0.000245865
0.0204004
0.000235765
0.0204232
0.000224023
0.0204438
0.000210615
0.020462
0.00019554
0.0204775
0.000178819
0.0204902
0.000160495
0.0205
0.000140639
0.0205069
0.000119346
9.67396e-05
0.0207153
0.000239206
0.0207498
0.000240688
0.020784
0.000241448
0.0208178
0.000241377
0.0208511
0.000240355
0.0208837
0.00023829
0.0209154
0.000235104
0.020946
0.000230719
0.0209753
0.000225061
0.0210031
0.000218063
0.0210292
0.000209668
0.0210534
0.000199833
0.0210754
0.00018853
0.0210952
0.000175748
0.0211126
0.000161495
0.0211273
0.0001458
0.0211392
0.000128714
0.0211482
0.000110313
9.0693e-05
0.0213709
0.000205139
0.021405
0.000206601
0.021439
0.000207463
0.0214727
0.000207635
0.0215061
0.000207012
0.0215388
0.000205515
0.0215709
0.000203076
0.021602
0.000199624
0.0216319
0.000195094
0.0216606
0.000189423
0.0216877
0.000182558
0.0217131
0.000174457
0.0217365
0.000165088
0.0217578
0.000154436
0.0217768
0.000142499
0.0217933
0.000129296
0.0218072
0.000114862
0.0218182
9.92547e-05
8.25496e-05
0.0220583
0.00017136
0.0220922
0.000172718
0.0221261
0.00017359
0.0221598
0.0001739
0.0221932
0.000173564
0.0222263
0.000172512
0.0222586
0.000170687
0.0222902
0.000168029
0.0223209
0.000164479
0.0223503
0.000159984
0.0223784
0.000154496
0.0224048
0.000147974
0.0224295
0.00014039
0.0224522
0.000131723
0.0224728
0.000121968
0.0224909
0.000111134
0.0225066
9.92448e-05
0.0225195
8.63427e-05
7.24856e-05
0.02278
0.000137711
0.0228138
0.000138895
0.0228477
0.000139697
0.0228816
0.000140059
0.0229152
0.000139912
0.0229485
0.000139202
0.0229813
0.000137879
0.0230135
0.000135895
0.0230447
0.000133203
0.023075
0.000129756
0.023104
0.000125514
0.0231315
0.000120442
0.0231574
0.000114513
0.0231814
0.000107709
0.0232033
0.00010002
0.023223
9.1451e-05
0.0232402
8.20162e-05
0.0232548
7.17453e-05
6.06814e-05
0.0235387
0.000104003
0.0235727
0.000104953
0.0236068
0.00010562
0.0236409
0.000105961
0.0236748
0.000105925
0.0237086
0.00010547
0.0237419
0.000104558
0.0237746
0.000103153
0.0238066
0.000101217
0.0238377
9.87149e-05
0.0238676
9.56146e-05
0.0238961
9.18884e-05
0.0239231
8.75136e-05
0.0239484
8.24743e-05
0.0239716
7.67618e-05
0.0239927
7.0376e-05
0.0240114
6.33262e-05
0.0240275
5.56318e-05
4.7323e-05
0.0243376
7.00068e-05
0.0243719
7.06743e-05
0.0244064
7.11537e-05
0.0244409
7.14168e-05
0.0244754
7.14292e-05
0.0245097
7.1163e-05
0.0245437
7.05927e-05
0.0245771
6.96932e-05
0.0246099
6.84388e-05
0.0246418
6.68054e-05
0.0246727
6.47705e-05
0.0247022
6.23147e-05
0.0247303
5.9422e-05
0.0247567
5.60805e-05
0.0247812
5.22832e-05
0.0248036
4.80289e-05
0.0248236
4.33225e-05
0.024841
3.81758e-05
3.26078e-05
0.0251802
3.5451e-05
0.0252151
3.5795e-05
0.0252502
3.60456e-05
0.0252854
3.61883e-05
0.0253207
3.62058e-05
0.0253557
3.60836e-05
0.0253905
3.58087e-05
0.0254248
3.53681e-05
0.0254585
3.47487e-05
0.0254914
3.3938e-05
0.0255232
3.29245e-05
0.0255539
3.16981e-05
0.025583
3.02504e-05
0.0256105
2.85749e-05
0.0256362
2.66678e-05
0.0256597
2.4528e-05
0.0256808
2.21577e-05
0.0256994
1.95624e-05
1.67514e-05
0.0260708
0.0261066
0.0261427
0.0261789
0.0262151
0.0262511
0.026287
0.0263223
0.0263571
0.026391
0.0264239
0.0264556
0.0264859
0.0265145
0.0265411
0.0265657
0.0265878
0.0266074
)
;

boundaryField
{
    inlet
    {
        type            calculated;
        value           nonuniform 0();
    }
    outlet
    {
        type            calculated;
        value           nonuniform 0();
    }
    cylinder
    {
        type            calculated;
        value           nonuniform 0();
    }
    top
    {
        type            symmetryPlane;
        value           uniform 0;
    }
    bottom
    {
        type            symmetryPlane;
        value           nonuniform 0();
    }
    defaultFaces
    {
        type            empty;
        value           nonuniform 0();
    }
    procBoundary34to28
    {
        type            processor;
        value           nonuniform List<scalar> 
20
(
-0.000790781
-0.000753355
-0.000711051
-0.000664066
-0.000612638
-0.000557016
-0.000497509
-0.000434501
-0.000368431
-0.00029979
-0.000229111
-0.00015696
-8.39309e-05
-1.06348e-05
6.2348e-05
0.000134413
0.00020501
-0.000814243
-0.0135985
-0.000791169
)
;
    }
    procBoundary34to29
    {
        type            processor;
        value           nonuniform List<scalar> 3(0.0132898 0.0137721 0.0142446);
    }
    procBoundary34to33
    {
        type            processor;
        value           nonuniform List<scalar> 
22
(
-0.0138921
-0.0142664
-0.0146536
-0.0150547
-0.0154708
-0.0159026
-0.0163511
-0.0168174
-0.0173024
-0.0178074
-0.0183337
-0.0188826
-0.0194556
-0.0200544
-0.0206809
-0.0213368
-0.0220245
-0.0227464
-0.023505
-0.0243036
-0.0251457
-0.0260354
)
;
    }
    procBoundary34to35
    {
        type            processor;
        value           nonuniform List<scalar> 
20
(
0.0147125
0.0151806
0.0156528
0.0161326
0.0166226
0.0171252
0.0176424
0.018176
0.0187278
0.0192995
0.0198931
0.0205106
0.0211543
0.0218264
0.0225295
0.0232666
0.0240409
0.0248557
0.0257153
0.0266241
)
;
    }
}


// ************************************************************************* //
