/*--------------------------------*- C++ -*----------------------------------*\
  =========                 |
  \\      /  F ield         | OpenFOAM: The Open Source CFD Toolbox
   \\    /   O peration     | Website:  https://openfoam.org
    \\  /    A nd           | Version:  7
     \\/     M anipulation  |
\*---------------------------------------------------------------------------*/
FoamFile
{
    version     2.0;
    format      ascii;
    class       surfaceScalarField;
    location    "18";
    object      phi;
}
// * * * * * * * * * * * * * * * * * * * * * * * * * * * * * * * * * * * * * //

dimensions      [0 3 -1 0 0 0 0];

internalField   nonuniform List<scalar> 
819
(
0.000815635
0.00135789
0.00108902
0.000617901
0.000687829
0.00121682
0.000781885
0.000409717
0.000872271
0.000461217
0.000974078
0.000516094
0.000571586
0.00109032
0.000616303
0.00069024
0.000335779
0.000773033
0.000378423
0.000866239
0.000422888
0.000466652
0.000971172
0.000603943
0.000678686
0.000762459
0.000339115
0.000373311
0.0008558
0.000662031
0.000743752
0.0129164
0.000133624
0.0128555
0.000209806
0.000284076
0.0128567
-0.000911019
0.012879
-0.000870122
0.0128943
-0.000824047
0.0129025
-0.000772671
0.0129034
-0.000716204
0.012897
-0.000654971
0.0128835
-0.000589284
0.012863
-0.000519505
0.0128356
-0.000446092
0.0128016
-0.000369574
0.0127614
-0.000290529
0.0127154
-0.00020958
0.0126641
-0.000127377
0.0126079
-4.45952e-05
0.0125476
3.80912e-05
0.0124837
0.000120021
0.0124167
0.000200561
0.0123474
0.000279119
0.000355158
0.0125024
-0.00093242
0.0125164
-0.000884152
0.0125226
-0.000830253
0.0125208
-0.000770896
0.0125112
-0.000706551
0.0124938
-0.000637583
0.0124688
-0.000564321
0.0124365
-0.000487205
0.0123972
-0.000406783
0.0123513
-0.000323665
0.0122993
-0.000238504
0.0122417
-0.000151989
0.0121792
-6.48236e-05
0.0121123
2.22736e-05
0.0120418
0.000108603
0.0119683
0.000193478
0.0118926
0.00027628
0.0118153
0.00035643
0.000433423
0.0121393
-0.000943229
0.0121422
-0.000887024
0.0121365
-0.000824562
0.0121222
-0.000756581
0.0120996
-0.000683903
0.0120689
-0.000606889
0.0120304
-0.000525873
0.0119846
-0.000441386
0.0119319
-0.000354074
0.0118729
-0.000264628
0.0118081
-0.00017377
0.0117384
-8.22544e-05
0.0116644
9.20307e-06
0.0115868
9.98448e-05
0.0115065
0.000188935
0.0114241
0.000275829
0.0113405
0.000359919
0.0112562
0.000440669
0.000517623
0.0117584
-0.000939959
0.0117469
-0.000875579
0.0117264
-0.000804054
0.0116969
-0.000727094
0.011659
-0.000645948
0.011613
-0.000560905
0.0115594
-0.000472299
0.0114988
-0.000380772
0.0114318
-0.00028707
0.0113591
-0.000191948
0.0112815
-9.61794e-05
0.0111999
-6.24626e-07
0.0111149
9.41613e-05
0.0110276
0.000187207
0.0109386
0.000277918
0.0108488
0.000365654
0.0107588
0.000449858
0.0106694
0.000530053
0.000605851
0.0113486
-0.000919088
0.0113198
-0.000846771
0.0112818
-0.000766071
0.011235
-0.00068022
0.0111799
-0.000590924
0.0111173
-0.000498305
0.0110478
-0.000402715
0.0109719
-0.000304931
0.0108906
-0.00020578
0.0108047
-0.00010607
0.0107152
-6.62964e-06
0.0106228
9.18002e-05
0.0105285
0.000188437
0.0104332
0.000282548
0.0103376
0.0003735
0.0102425
0.000460728
0.0101486
0.000543744
0.0100565
0.00062215
0.000695638
0.0108987
-0.000877657
0.0108501
-0.000798179
0.0107928
-0.00070871
0.0107272
-0.000614639
0.0106543
-0.000518043
0.0105748
-0.000418803
0.0104894
-0.000317337
0.0103991
-0.000214568
0.0103047
-0.000111375
0.0102072
-8.60013e-06
0.0101076
9.30022e-05
0.0100067
0.000192613
0.00990563
0.000289546
0.00980503
0.000383143
0.0097057
0.000472834
0.00960829
0.000558135
0.00951339
0.000638645
0.00942149
0.000714053
0.000784138
0.0103979
-0.000813972
0.0103283
-0.000728588
0.010251
-0.000631337
0.0101667
-0.000530347
0.0100765
-0.000427845
0.00998112
-0.000323442
0.00988149
-0.000217711
0.00977864
-0.000111716
0.00967358
-6.31072e-06
0.00956726
9.77201e-05
0.00946069
0.000199572
0.00935473
0.000298568
0.0092502
0.00039408
0.0091478
0.000485544
0.00904815
0.000572482
0.00895178
0.000654499
0.00885914
0.000731286
0.00877058
0.00080262
0.000868362
0.00983809
-0.000728223
0.00974798
-0.000638477
0.0096516
-0.000534957
0.00955017
-0.000428921
0.0094447
-0.000322377
0.00933599
-0.000214733
0.00922507
-0.000106788
0.00911312
2.31362e-07
0.00900101
0.000105808
0.00888978
0.000208942
0.00878027
0.000309087
0.00867321
0.00040563
0.00856924
0.000498046
0.00846891
0.000585872
0.00837267
0.000668722
0.00828088
0.00074629
0.00819382
0.000818351
0.00811168
0.00088476
0.000945448
0.00921517
-0.000622856
0.00910691
-0.000530211
0.00899428
-0.000422327
0.00887889
-0.000313539
0.0087617
-0.000205181
0.00864358
-9.66152e-05
0.00852572
1.10763e-05
0.00840907
0.000116881
0.00829468
0.000220198
0.00818323
0.000320391
0.00807537
0.000416942
0.00797163
0.000509369
0.00787244
0.000597243
0.00777812
0.000680192
0.00768893
0.000757908
0.00760506
0.000830158
0.00752663
0.000896782
0.00745369
0.000957697
0.00101289
0.0085305
-0.000502512
0.00840817
-0.000407887
0.00828361
-0.000297762
0.00815886
-0.000188792
0.00803481
-8.11285e-05
0.00791247
2.57244e-05
0.00779297
0.000130575
0.00767719
0.000232666
0.00756577
0.000331619
0.00745916
0.000427003
0.0073577
0.000518396
0.00726166
0.000605409
0.00717122
0.000687686
0.0070865
0.000764907
0.00700759
0.000836818
0.00693452
0.000903232
0.00686727
0.000964036
0.00680577
0.00101919
0.00106872
0.00779096
-0.000373425
0.00765989
-0.000276819
0.0075289
-0.000166771
0.00740053
-6.04146e-05
0.00727561
4.37908e-05
0.0071552
0.000146129
0.00704022
0.000245557
0.00693111
0.000341778
0.00682807
0.000434655
0.0067312
0.000523871
0.00664053
0.000609069
0.00655605
0.000689892
0.00647773
0.000765999
0.00640555
0.000837087
0.00633945
0.000902921
0.00627934
0.000963339
0.00622512
0.00101825
0.00617666
0.00106766
0.00111161
0.00700826
-0.000242403
0.00687428
-0.000142839
0.00674324
-3.57313e-05
0.00661795
6.48814e-05
0.00649906
0.000162675
0.00638739
0.000257799
0.00628324
0.000349707
0.00618644
0.000438579
0.00609672
0.000524383
0.00601379
0.000606793
0.00593744
0.000685417
0.00586749
0.000759852
0.00580377
0.000829718
0.00574616
0.000894696
0.00569453
0.000954547
0.00564875
0.00100912
0.00560866
0.00105834
0.00557408
0.00110224
0.00114088
0.006197
-0.000115403
0.00606614
-1.19771e-05
0.00594241
8.79919e-05
0.00582793
0.000179364
0.00572264
0.000267964
0.00562656
0.000353885
0.00553907
0.000437197
0.00545935
0.00051829
0.00538677
0.000596969
0.00532082
0.000672741
0.00526116
0.000745073
0.00520756
0.000813454
0.00515984
0.000877439
0.00511786
0.000936676
0.00508149
0.000990921
0.00505057
0.00104003
0.00502496
0.00108396
0.00500446
0.00112274
0.00115647
0.00537247
4.2985e-06
0.0052516
0.000108891
0.00514419
0.000195409
0.00504928
0.000274269
0.0049652
0.000352042
0.00489074
0.000428347
0.00482441
0.000503525
0.00476504
0.00057766
0.00471189
0.000650127
0.00466448
0.000720146
0.00462256
0.000786998
0.00458595
0.000850056
0.00455458
0.000908816
0.00452834
0.000962911
0.00450716
0.0010121
0.00449091
0.00105628
0.00447946
0.00109541
0.00447263
0.00112957
0.00115888
0.00454984
0.000111961
0.00444785
0.000210888
0.00436816
0.000275092
0.00430213
0.0003403
0.00424577
0.000408408
0.00419702
0.000477093
0.00415424
0.000546308
0.00411647
0.00061543
0.00408327
0.000683321
0.00405448
0.000748941
0.00403004
0.000811431
0.00401
0.000870098
0.00399439
0.000924431
0.00398322
0.000974081
0.00397647
0.00101885
0.00397408
0.00105867
0.00397594
0.00109355
0.00398191
0.0011236
0.00114898
0.00373154
0.00020284
0.00367242
0.000270011
0.00363643
0.000311085
0.00360714
0.000369585
0.00358202
0.000433533
0.00356001
0.000499102
0.00354052
0.000565797
0.0035235
0.00063245
0.00350913
0.000697684
0.00349769
0.000760385
0.00348944
0.000819677
0.00348464
0.0008749
0.00348348
0.000925597
0.00348607
0.000971491
0.00349247
0.00101245
0.00350266
0.00104847
0.00351658
0.00107963
0.00353411
0.00110607
0.00139672
0.00016401
0.00140651
0.000260216
0.00140259
0.000315007
0.00139523
0.000376951
0.00138774
0.000441016
0.00138106
0.000505785
0.00137579
0.000571067
0.00137257
0.000635671
0.00137189
0.000698363
0.00137411
0.000758165
0.00137947
0.000814318
0.0013881
0.000866266
0.00140006
0.000913641
0.00141531
0.000956239
0.00143378
0.000993989
0.00145532
0.00102692
0.0014798
0.00105515
0.00107883
0.00125638
0.000124449
0.00127844
0.000238163
0.00128737
0.000306071
0.00129049
0.000373835
0.00129143
0.000440072
0.00129181
0.000505414
0.00129271
0.000570164
0.00129503
0.000633349
0.00129941
0.000693986
0.00130629
0.000751285
0.00131597
0.000804636
0.00132863
0.000853608
0.00134433
0.000897935
0.00136307
0.000937497
0.00138478
0.000972281
0.00140934
0.00100236
0.00143661
0.00102788
0.00104902
0.00112679
8.79793e-05
0.0011528
0.000212151
0.00116981
0.000289065
0.00118123
0.000362418
0.00118952
0.000431781
0.00119643
0.000498503
0.00120328
0.000563315
0.00121107
0.000625553
0.00122054
0.000684522
0.00123217
0.000739649
0.00124632
0.000790493
0.00126317
0.000836759
0.00128281
0.000878295
0.00130524
0.000915063
0.00133041
0.000947115
0.00135819
0.000974574
0.00138847
0.000997608
0.00101642
0.00100239
5.67603e-05
0.00102937
0.000185167
0.00105139
0.000267051
0.00106896
0.000344848
0.00108336
0.000417376
0.00109611
0.000485758
0.00110849
0.000550929
0.00112154
0.000612502
0.001136
0.000670065
0.00115239
0.000723262
0.00117105
0.000771827
0.0011922
0.000815612
0.00121592
0.000854575
0.00124222
0.000888766
0.00127103
0.0009183
0.00130226
0.000943347
0.00133576
0.000964106
0.0009808
0.000881706
3.08548e-05
0.000908378
0.000158495
0.000933299
0.000242131
0.000955209
0.000322939
0.000974503
0.000398081
0.000992293
0.000467968
0.00100971
0.000533507
0.00102771
0.000594506
0.00104699
0.000650787
0.00106805
0.000702197
0.00109124
0.000748642
0.00111674
0.000790114
0.00114463
0.000826683
0.00117491
0.000858481
0.00120753
0.000885689
0.00124236
0.000908517
0.00127927
0.000927196
0.000941966
0.000765072
0.000790666
0.000816867
0.000841574
0.000864591
0.0008866
0.000908487
0.000931048
0.000954904
0.000980504
0.00100814
0.00103798
0.00107007
0.00110441
0.00114091
0.00117945
0.00121989
)
;

boundaryField
{
    inlet
    {
        type            calculated;
        value           nonuniform 0();
    }
    outlet
    {
        type            calculated;
        value           nonuniform 0();
    }
    cylinder
    {
        type            calculated;
        value           nonuniform 0();
    }
    top
    {
        type            symmetryPlane;
        value           nonuniform 0();
    }
    bottom
    {
        type            symmetryPlane;
        value           nonuniform 0();
    }
    defaultFaces
    {
        type            empty;
        value           nonuniform 0();
    }
    procBoundary10to3
    {
        type            processor;
        value           nonuniform List<scalar> 
13
(
-0.0128278
-0.012481
-0.0121285
-0.0117616
-0.0113695
-0.0109401
-0.0104616
-0.00992384
-0.00932054
-0.00865084
-0.00792005
-0.00713928
-0.006324
)
;
    }
    procBoundary10to4
    {
        type            processor;
        value           nonuniform List<scalar> 
20
(
-7.56408e-05
-0.000148882
-0.000220768
0.000882083
0.000847816
0.000808726
0.00076455
0.000715323
0.00066131
0.000602787
0.000540056
0.000473493
0.000403547
0.000330726
0.000255581
0.000178702
0.000100709
2.22416e-05
-0.0129744
-5.60731e-05
)
;
    }
    procBoundary10to9
    {
        type            processor;
        value           nonuniform List<scalar> 
12
(
-0.000949355
-0.00122417
-0.000727442
-0.00049091
-0.000979477
-0.000551603
-0.000700692
-0.000362387
-0.000549944
-0.00549217
-0.00465751
-0.00382242
)
;
    }
    procBoundary10to11
    {
        type            processor;
        value           nonuniform List<scalar> 
19
(
0.0127922
0.0122763
0.011737
0.011172
0.0105812
0.00996673
0.00933299
0.00868635
0.00803459
0.00738625
0.00674994
0.00613377
0.00554482
0.00498886
0.00447023
0.0039918
0.0035551
0.001128
0.00150705
)
;
    }
    procBoundary10to16
    {
        type            processor;
        value           nonuniform List<scalar> 
25
(
0.000296028
-0.000537252
0.000269088
0.00030368
-0.00058806
0.000265144
0.00029159
9.53428e-06
0.000132902
0.00021593
0.000298231
0.000375064
0.000445959
0.00051162
0.000571945
0.000626931
0.000676597
0.000721005
0.000760277
0.000794587
0.000824146
0.000849191
0.000869975
0.000886754
0.000899786
)
;
    }
    procBoundary10to17
    {
        type            processor;
        value           nonuniform List<scalar> 5(0.00146641 0.00142107 0.00137139 0.0013181 0.00126207);
    }
}


// ************************************************************************* //
