/*--------------------------------*- C++ -*----------------------------------*\
  =========                 |
  \\      /  F ield         | OpenFOAM: The Open Source CFD Toolbox
   \\    /   O peration     | Website:  https://openfoam.org
    \\  /    A nd           | Version:  7
     \\/     M anipulation  |
\*---------------------------------------------------------------------------*/
FoamFile
{
    version     2.0;
    format      ascii;
    class       surfaceScalarField;
    location    "8";
    object      phi;
}
// * * * * * * * * * * * * * * * * * * * * * * * * * * * * * * * * * * * * * //

dimensions      [0 3 -1 0 0 0 0];

internalField   nonuniform List<scalar> 
815
(
0.000163828
0.000722972
0.000183175
0.000800497
0.000203366
0.000883202
0.000224265
0.000971194
0.000245709
0.00106455
0.000267508
0.00116332
0.00126749
0.000157964
0.000631255
0.000178485
0.000702451
0.00020022
0.000778761
0.000223078
0.000860344
0.00024694
0.000947332
0.000271661
0.00103983
0.000297069
0.00113791
0.000322961
0.0012416
0.000349106
0.00135091
0.000375246
0.00146578
0.000401098
0.00158612
0.00042636
0.00171181
0.000450714
0.00184266
0.000473832
0.00197846
0.000495387
0.00211897
0.000515057
0.00226391
0.000532539
0.00241298
0.00256587
0.000169203
0.000610275
0.000191695
0.000679958
0.000215654
0.000754803
0.000241008
0.00083499
0.000267661
0.000920679
0.000295489
0.001012
0.000324336
0.00110906
0.00035402
0.00121192
0.000384323
0.0013206
0.000415002
0.0014351
0.000445782
0.00155534
0.000476364
0.00168122
0.000506429
0.00181259
0.000535642
0.00194925
0.000563661
0.00209095
0.000590144
0.00223743
0.000614761
0.00238836
0.0006372
0.00254343
0.00065718
0.00270227
0.000674462
0.00286452
0.000688853
0.0030298
0.000700223
0.0031977
0.00336773
0.00070851
0.000179082
0.00058772
0.000203372
0.000655668
0.000229372
0.000728803
0.000257034
0.000807329
0.000286283
0.00089143
0.000317017
0.000981267
0.000349106
0.00107697
0.000382384
0.00117864
0.000416656
0.00128633
0.000451692
0.00140006
0.000487232
0.0015198
0.000522984
0.00164547
0.000558632
0.00177694
0.000593838
0.00191404
0.00062825
0.00205654
0.00066151
0.00220417
0.000693261
0.00235661
0.00072316
0.00251353
0.000750889
0.00267454
0.000776164
0.00283925
0.000798747
0.00300722
0.000818461
0.00317799
0.00335099
0.000835201
0.000187548
0.000563764
0.000213449
0.000629767
0.000241292
0.00070096
0.000271052
0.000777568
0.00030268
0.000859802
0.0003361
0.000947848
0.000371202
0.00104187
0.000407848
0.00114199
0.000445864
0.00124832
0.000485039
0.00136089
0.000525131
0.00147971
0.00056586
0.00160474
0.000606919
0.00173589
0.00064797
0.00187299
0.000688658
0.00201585
0.000728609
0.00216422
0.000767448
0.00231777
0.000804804
0.00247617
0.000840321
0.00263902
0.000873673
0.00280589
0.000904576
0.00297632
0.0009328
0.00314976
0.00332559
0.000958191
0.000169394
0.000479644
0.000194566
0.000538592
0.000221878
0.000602454
0.000251352
0.000671486
0.000282987
0.000745934
0.000316759
0.00082603
0.000352618
0.000911989
0.000390482
0.001004
0.000430239
0.00110224
0.00047174
0.00120681
0.000514799
0.00131783
0.000559195
0.00143531
0.000604665
0.00155927
0.000650915
0.00168964
0.000697616
0.00182629
0.000744409
0.00196906
0.000790918
0.00211771
0.000836749
0.00227194
0.000881506
0.00243142
0.000924803
0.00259573
0.000966271
0.00276443
0.00100558
0.00293701
0.00104244
0.0031129
0.00329138
0.00107666
0.000173921
0.000200118
0.000512396
0.000228635
0.000573938
0.000259516
0.000640605
0.000292788
0.000712662
0.000328452
0.000790366
0.000366485
0.000873956
0.000406836
0.000963653
0.00044942
0.00105965
0.000494117
0.00116212
0.00054077
0.00127117
0.000589181
0.0013869
0.000639113
0.00150934
0.000690288
0.00163846
0.00074239
0.00177419
0.000795068
0.00191638
0.000847942
0.00206483
0.000900611
0.00221927
0.000952659
0.00237937
0.00100367
0.00254472
0.00105324
0.00271486
0.00110099
0.00288926
0.00114658
0.00306731
0.00324823
0.00118973
0.000204206
0.000485371
0.000233715
0.000544429
0.000265773
0.000608546
0.000300433
0.000678003
0.000337723
0.000753075
0.00037765
0.000834029
0.000420192
0.000921111
0.000465295
0.00101455
0.000512872
0.00111454
0.000562795
0.00122125
0.000614897
0.0013348
0.000668967
0.00145527
0.000724753
0.00158268
0.000781957
0.00171699
0.000840241
0.0018581
0.000899231
0.00200584
0.000958522
0.00215998
0.00101769
0.0023202
0.00107628
0.00248612
0.00113387
0.00265727
0.00119003
0.0028331
0.00124437
0.00301297
0.00319605
0.00129654
0.000206853
0.000457714
0.000237136
0.000514146
0.000270136
0.000575546
0.000305928
0.000642211
0.00034457
0.000714434
0.000386096
0.000792503
0.000430516
0.000876691
0.000477811
0.000967255
0.000527925
0.00106443
0.000580765
0.00116841
0.000636198
0.00127937
0.000694046
0.00139742
0.000754083
0.00152264
0.000816038
0.00165503
0.000879594
0.00179454
0.000944389
0.00194105
0.00101002
0.00209435
0.00107606
0.00225417
0.00114204
0.00242014
0.0012075
0.0025918
0.00127198
0.00276863
0.00133501
0.00294994
0.00313486
0.00139621
0.000208097
0.000429621
0.000238939
0.000483304
0.000272643
0.000541843
0.000309308
0.000605546
0.000349019
0.000674723
0.000391842
0.00074968
0.000437817
0.000830715
0.000486959
0.000918113
0.000539247
0.00101214
0.000594627
0.00111303
0.000653001
0.00122099
0.000714226
0.0013362
0.000778114
0.00145875
0.000844422
0.00158872
0.000912861
0.0017261
0.000983087
0.00187082
0.00105471
0.00202273
0.0011273
0.00218158
0.0012004
0.00234704
0.0012735
0.0025187
0.00134611
0.00269602
0.00141773
0.00287832
0.00306472
0.00148787
0.000207996
0.000239182
0.000452118
0.000273353
0.000507672
0.000310632
0.000568267
0.00035113
0.000634225
0.000394941
0.000705868
0.00044214
0.000783517
0.000492773
0.00086748
0.000546859
0.000958052
0.00060438
0.00105551
0.000665279
0.0011601
0.000729453
0.00127202
0.000796752
0.00139145
0.00086697
0.0015185
0.000939851
0.00165322
0.00101508
0.0017956
0.00109228
0.00194552
0.00117105
0.00210281
0.0012509
0.00226719
0.00133133
0.00243827
0.00141181
0.00261553
0.00149179
0.00279834
0.00298579
0.00157072
0.000237942
0.000272348
0.000473266
0.000309985
0.00053063
0.000350988
0.000593221
0.000395481
0.000661375
0.000443568
0.000735429
0.000495333
0.000815715
0.000550829
0.000902556
0.00061008
0.000996258
0.000673069
0.00109711
0.000739738
0.00120535
0.000809977
0.00132121
0.000883625
0.00144486
0.000960461
0.00157639
0.00104021
0.00171585
0.00112252
0.00186321
0.00120699
0.00201834
0.00129317
0.00218101
0.00138054
0.0023509
0.00146854
0.00252753
0.00155658
0.0027103
0.00289833
0.00164405
0.000269727
0.000438847
0.000307472
0.000492885
0.000348705
0.000551988
0.000393576
0.000616505
0.00044222
0.000686785
0.000494754
0.000763181
0.00055127
0.000846039
0.000611832
0.000935697
0.000676465
0.00103247
0.000745157
0.00113666
0.000817843
0.00124853
0.000894409
0.00136829
0.000974678
0.00149612
0.00105841
0.00163212
0.0011453
0.00177632
0.00123497
0.00192867
0.00132698
0.00208901
0.00142081
0.00225706
0.0015159
0.00243245
0.0016116
0.0026146
0.00280268
0.00170725
0.0002656
0.000303215
0.00045527
0.000344411
0.000510792
0.000389364
0.000571551
0.00043824
0.000637909
0.000491187
0.000710234
0.000548336
0.000788891
0.000609788
0.000874244
0.000675615
0.000966645
0.000745848
0.00106643
0.000820474
0.0011739
0.000899427
0.00128934
0.000982578
0.00141297
0.00106973
0.00154496
0.00116063
0.00168542
0.00125493
0.00183437
0.0013522
0.00199173
0.00145195
0.00215731
0.0015536
0.0023308
0.00165648
0.00251172
0.00269929
0.00175987
0.000297344
0.000338249
0.000469887
0.000383002
0.000526799
0.000431795
0.000589117
0.000484809
0.00065722
0.000542209
0.000731491
0.000604138
0.000812315
0.00067071
0.000900073
0.000742005
0.000995133
0.000818058
0.00109785
0.000898855
0.00120854
0.000984322
0.0013275
0.00107432
0.00145497
0.00116862
0.00159112
0.00126694
0.00173606
0.00136887
0.0018898
0.00147394
0.00158157
0.00169107
0.000330369
0.000374652
0.000482517
0.000423061
0.000540707
0.000475808
0.000604472
0.000533093
0.000674207
0.000595096
0.000750312
0.000661975
0.000833194
0.000733857
0.000923251
0.00081083
0.00102087
0.000892932
0.00112644
0.000980146
0.00124029
0.00107238
0.00116948
0.00127119
0.000364475
0.000412216
0.000492966
0.00046438
0.000552309
0.000521197
0.000617389
0.000582887
0.000688623
0.000649649
0.000766431
0.000721659
0.000799055
0.000881934
0.000399427
0.000450705
0.000506719
0.000567725
0.00864639
-0.000408795
-0.000563064
0.00839397
-0.000460843
0.008446
-0.000615091
0.00849769
-0.000769601
-0.000923919
0.00854867
0.00814803
-0.000514768
0.00820065
-0.000667714
0.00825149
-0.000820441
-0.000972402
0.00829997
0.00790454
-0.000569212
0.00795591
-0.000719086
0.00800355
-0.000868081
-0.00101555
0.0080467
0.00765832
-0.000621734
0.00770559
-0.000766358
0.00774679
-0.000909281
-0.00104978
0.00778101
0.00740078
-0.000669127
0.00744049
-0.00080607
0.00747157
-0.000940355
-0.00107119
0.00749298
0.00712079
0.00714992
0.00716776
0.00717322
0.00895242
-0.00133479
0.00900188
-0.00148593
0.00904936
-0.00163465
0.00909401
-0.00178025
0.00913489
-0.00192197
0.00917091
-0.00205901
-0.00219048
0.00859846
-0.00107754
0.00864648
-0.00122989
0.00869204
-0.00138035
0.00873433
-0.00152822
0.00877243
-0.00167275
0.0088053
-0.00181312
0.00883179
-0.00194846
0.00885065
-0.00207787
-0.0022004
0.00834542
-0.00112299
0.00838705
-0.00127152
0.00842397
-0.00141728
0.00845519
-0.00155944
0.00847961
-0.00169716
0.00849602
-0.00182953
0.00850317
-0.00195561
0.00849974
-0.00207443
-0.00218505
0.00808451
-0.0011608
0.00811604
-0.00130305
0.00814023
-0.00144147
0.00815595
-0.00157517
0.00816201
-0.00170322
0.00815715
-0.00182467
0.0081401
-0.00193856
0.00810959
-0.00204393
-0.00213989
0.00780727
-0.00118706
0.0078245
-0.00132028
0.00783158
-0.00144854
0.00782734
-0.00157092
0.00781057
-0.00168645
0.00778009
-0.0017942
0.00773475
-0.00189322
0.0076735
-0.00198268
0.00750365
-0.00119773
0.00750248
-0.0013191
0.00748832
-0.00143438
0.00746005
-0.00154265
0.00741659
-0.00164299
0.00735693
-0.00173454
0.00728019
-0.00181649
-0.00188815
0.00716522
0.00714266
0.00710448
0.0070497
0.00697743
0.00688694
0.0067777
)
;

boundaryField
{
    inlet
    {
        type            calculated;
        value           nonuniform 0();
    }
    outlet
    {
        type            calculated;
        value           nonuniform 0();
    }
    cylinder
    {
        type            calculated;
        value           nonuniform 0();
    }
    top
    {
        type            symmetryPlane;
        value           nonuniform 0();
    }
    bottom
    {
        type            symmetryPlane;
        value           nonuniform 0();
    }
    defaultFaces
    {
        type            empty;
        value           nonuniform 0();
    }
    procBoundary8to1
    {
        type            processor;
        value           nonuniform List<scalar> 7(-0.00859724 -0.00834192 -0.0080941 -0.00785009 -0.0076058 -0.00735339 -0.00708141);
    }
    procBoundary8to2
    {
        type            processor;
        value           nonuniform List<scalar> 
15
(
0.000359643
0.000512982
0.00869648
0.000717904
0.000872939
0.00128406
0.00143647
0.00158717
0.00173559
0.0018811
0.00202299
0.00216051
0.00102775
-0.00890168
0.00118188
)
;
    }
    procBoundary8to3
    {
        type            processor;
        value           nonuniform List<scalar> 
11
(
0.00240222
0.00258868
0.00180167
0.00920088
0.00886056
0.00848439
0.00806443
0.00759542
-0.0020618
0.00718566
0.00664943
)
;
    }
    procBoundary8to7
    {
        type            processor;
        value           nonuniform List<scalar> 
24
(
-0.000741363
-0.000819843
-0.000903393
-0.000992093
-0.001086
-0.00118511
-0.00128943
0.000289444
-0.00137705
-0.00149192
-0.00161197
-0.00173707
-0.00186701
-0.00200158
-0.00214053
-0.00228358
-0.00243046
-0.00258088
0.000547555
-0.00272225
-0.0028818
-0.00304419
-0.00320907
-0.00337601
)
;
    }
    procBoundary8to9
    {
        type            processor;
        value           nonuniform List<scalar> 
17
(
0.00205224
0.00222317
0.00136273
0.00149402
0.00163435
0.00137714
0.00178384
0.000851241
0.000943478
0.00104356
0.000970334
0.00115189
0.000501031
0.000561375
0.000627617
0.000633965
0.000700192
)
;
    }
    procBoundary8to14
    {
        type            processor;
        value           nonuniform List<scalar> 
28
(
-0.000145437
-0.000650495
-0.000138724
-0.000148223
-0.000156526
-0.000163592
-0.000502713
-0.000146325
-0.000149986
0.000455708
-0.000177181
-0.000179196
-0.000180005
-0.00017966
0.000401285
-0.000206619
0.000420795
-0.000235308
-0.000231383
0.000404631
-0.000260087
0.000418013
-0.000289996
0.000429514
-0.000320917
0.000438959
-0.000352623
0.000446163
)
;
    }
}


// ************************************************************************* //
