/*--------------------------------*- C++ -*----------------------------------*\
  =========                 |
  \\      /  F ield         | OpenFOAM: The Open Source CFD Toolbox
   \\    /   O peration     | Website:  https://openfoam.org
    \\  /    A nd           | Version:  7
     \\/     M anipulation  |
\*---------------------------------------------------------------------------*/
FoamFile
{
    version     2.0;
    format      ascii;
    class       surfaceScalarField;
    location    "4";
    object      phi;
}
// * * * * * * * * * * * * * * * * * * * * * * * * * * * * * * * * * * * * * //

dimensions      [0 3 -1 0 0 0 0];

internalField   nonuniform List<scalar> 
615
(
0.000419346
-2.60458e-06
0.00041912
-2.55493e-06
0.000418898
-2.50659e-06
0.00041868
-2.45951e-06
0.000418465
-2.41363e-06
0.000418254
-2.36892e-06
0.000418046
-2.32534e-06
0.000417841
-2.28285e-06
0.00041764
-2.2414e-06
0.000417443
-2.20097e-06
0.000417248
-2.16152e-06
0.000417056
-2.12301e-06
0.000416868
-2.08542e-06
0.000416683
-2.04872e-06
0.0004165
-2.01287e-06
0.000416321
-1.97786e-06
0.000416144
-1.94365e-06
0.00041597
-1.91022e-06
0.000415799
-1.87754e-06
0.00041563
-1.8456e-06
0.000415464
-1.81437e-06
0.000415301
-1.78383e-06
0.00041514
-1.75396e-06
0.000414982
-1.72475e-06
0.000414826
-1.69617e-06
0.000414673
-1.66821e-06
0.000414522
-1.64086e-06
0.000414373
-1.61409e-06
0.000414227
-1.5879e-06
0.000414082
-1.56227e-06
0.00041394
-1.53719e-06
0.0004138
-1.51265e-06
0.000413663
-1.48865e-06
0.000413527
-1.46517e-06
0.000413393
-1.4422e-06
0.000413262
-1.41975e-06
0.000413132
-1.39781e-06
0.000413004
-1.37637e-06
0.000412878
-1.35545e-06
-1.33505e-06
0.000146434
-4.55059e-06
0.000146275
-4.43607e-06
0.00014612
-4.32593e-06
0.000145968
-4.21993e-06
0.000145819
-4.11786e-06
0.000145674
-4.0195e-06
0.000145531
-3.92466e-06
0.000145391
-3.83316e-06
0.000145253
-3.74484e-06
0.000145119
-3.65953e-06
0.000144987
-3.57709e-06
0.000144857
-3.49738e-06
0.00014473
-3.42027e-06
0.000144606
-3.34565e-06
0.000144484
-3.27339e-06
0.000144364
-3.20339e-06
0.000144246
-3.13556e-06
0.000144131
-3.06979e-06
0.000144018
-3.006e-06
0.000143907
-2.94411e-06
0.000143797
-2.88402e-06
0.00014369
-2.82568e-06
0.000143585
-2.76901e-06
0.000143482
-2.71393e-06
0.00014338
-2.6604e-06
0.000143281
-2.60834e-06
0.000143183
-2.5577e-06
0.000143087
-2.50843e-06
0.000142992
-2.46047e-06
0.000142899
-2.41378e-06
0.000142808
-2.36831e-06
0.000142719
-2.32401e-06
0.00014263
-2.28084e-06
0.000142544
-2.23877e-06
0.000142459
-2.19775e-06
0.000142375
-2.15775e-06
0.000142293
-2.11873e-06
0.000142212
-2.08066e-06
0.000142133
-2.04351e-06
0.000142054
-2.00724e-06
0.000141977
-1.97183e-06
0.000141902
-1.93726e-06
0.000141827
-1.90349e-06
0.000141754
-1.87049e-06
0.000141682
-1.83826e-06
0.000141612
-1.80675e-06
0.000141542
-1.77596e-06
0.000141473
-1.74585e-06
0.000141406
-1.71641e-06
0.00014134
-1.68763e-06
0.000141274
-1.65947e-06
0.00014121
-1.63193e-06
0.000141147
-1.60499e-06
0.000141085
-1.57863e-06
0.000141023
-1.55284e-06
0.000140963
-1.52761e-06
0.000140904
-1.50292e-06
0.000140845
-1.47876e-06
0.000140788
-1.45513e-06
0.000140731
-1.43201e-06
0.000140675
-1.40939e-06
0.000140621
-1.38728e-06
0.000140566
-1.36566e-06
0.000140513
-1.34454e-06
0.000140461
-1.32391e-06
0.000140409
-1.30378e-06
-1.28414e-06
0.000145584
-4.37192e-06
0.000145409
-4.26129e-06
0.000145238
-4.15492e-06
0.000145071
-4.05258e-06
0.000144907
-3.95406e-06
0.000144747
-3.85915e-06
0.00014459
-3.76765e-06
0.000144436
-3.6794e-06
0.000144285
-3.59423e-06
0.000144138
-3.51199e-06
0.000143993
-3.43253e-06
0.000143852
-3.35572e-06
0.000143713
-3.28143e-06
0.000143577
-3.20955e-06
0.000143443
-3.13996e-06
0.000143312
-3.07256e-06
0.000143184
-3.00726e-06
0.000143058
-2.94395e-06
0.000142935
-2.88256e-06
0.000142814
-2.823e-06
0.000142695
-2.76519e-06
0.000142578
-2.70907e-06
0.000142464
-2.65456e-06
0.000142352
-2.6016e-06
0.000142241
-2.55012e-06
0.000142133
-2.50007e-06
0.000142027
-2.4514e-06
0.000141922
-2.40404e-06
0.00014182
-2.35795e-06
0.000141719
-2.31308e-06
0.00014162
-2.26939e-06
0.000141523
-2.22684e-06
0.000141428
-2.18537e-06
0.000141334
-2.14496e-06
0.000141242
-2.10557e-06
0.000141151
-2.06716e-06
0.000141062
-2.02969e-06
0.000140974
-1.99314e-06
0.000140888
-1.95748e-06
0.000140804
-1.92267e-06
0.000140721
-1.88868e-06
0.000140639
-1.8555e-06
0.000140559
-1.82309e-06
0.000140479
-1.79144e-06
0.000140402
-1.76051e-06
0.000140325
-1.73028e-06
0.00014025
-1.70074e-06
0.000140176
-1.67186e-06
0.000140103
-1.64363e-06
0.000140032
-1.61602e-06
0.000139961
-1.58902e-06
0.000139892
-1.56261e-06
0.000139824
-1.53677e-06
0.000139757
-1.5115e-06
0.00013969
-1.48678e-06
0.000139625
-1.46259e-06
0.000139561
-1.43892e-06
0.000139498
-1.41577e-06
0.000139436
-1.39312e-06
0.000139375
-1.37096e-06
0.000139315
-1.34929e-06
0.000139256
-1.3281e-06
0.000139198
-1.30739e-06
0.00013914
-1.28715e-06
0.000139084
-1.26739e-06
0.000139028
-1.24811e-06
-1.22931e-06
0.000144371
-4.17766e-06
0.000144182
-4.07142e-06
0.000143996
-3.96931e-06
0.000143814
-3.87109e-06
0.000143637
-3.77655e-06
0.000143463
-3.68549e-06
0.000143293
-3.59774e-06
0.000143127
-3.51312e-06
0.000142964
-3.43147e-06
0.000142805
-3.35263e-06
0.000142649
-3.27649e-06
0.000142496
-3.20289e-06
0.000142346
-3.13172e-06
0.0001422
-3.06287e-06
0.000142056
-2.99623e-06
0.000141915
-2.9317e-06
0.000141777
-2.86918e-06
0.000141642
-2.80858e-06
0.000141509
-2.74983e-06
0.000141379
-2.69284e-06
0.000141251
-2.63753e-06
0.000141126
-2.58384e-06
0.000141003
-2.5317e-06
0.000140882
-2.48105e-06
0.000140764
-2.43182e-06
0.000140648
-2.38397e-06
0.000140534
-2.33743e-06
0.000140422
-2.29216e-06
0.000140312
-2.24811e-06
0.000140204
-2.20523e-06
0.000140099
-2.16348e-06
0.000139995
-2.12282e-06
0.000139892
-2.0832e-06
0.000139792
-2.0446e-06
0.000139693
-2.00697e-06
0.000139597
-1.97028e-06
0.000139501
-1.9345e-06
0.000139408
-1.89959e-06
0.000139316
-1.86554e-06
0.000139225
-1.8323e-06
0.000139137
-1.79986e-06
0.000139049
-1.76818e-06
0.000138963
-1.73725e-06
0.000138879
-1.70703e-06
0.000138796
-1.67751e-06
0.000138714
-1.64866e-06
0.000138634
-1.62047e-06
0.000138555
-1.59292e-06
0.000138478
-1.56598e-06
0.000138401
-1.53964e-06
0.000138326
-1.51388e-06
0.000138252
-1.48868e-06
0.000138179
-1.46404e-06
0.000138108
-1.43994e-06
0.000138037
-1.41636e-06
0.000137968
-1.39329e-06
0.0001379
-1.37072e-06
0.000137833
-1.34864e-06
0.000137767
-1.32705e-06
0.000137702
-1.30592e-06
0.000137638
-1.28526e-06
0.000137575
-1.26507e-06
0.000137513
-1.24533e-06
0.000137452
-1.22604e-06
0.000137391
-1.20721e-06
0.000137332
-1.18884e-06
-1.17093e-06
0.000142783
-3.96938e-06
0.00014258
-3.86799e-06
0.000142381
-3.77057e-06
0.000142187
-3.67688e-06
0.000141997
-3.58672e-06
0.000141812
-3.4999e-06
0.00014163
-3.41625e-06
0.000141453
-3.3356e-06
0.000141279
-3.25779e-06
0.000141109
-3.18269e-06
0.000140943
-3.11015e-06
0.00014078
-3.04005e-06
0.00014062
-2.97229e-06
0.000140464
-2.90673e-06
0.000140311
-2.84329e-06
0.000140161
-2.78187e-06
0.000140015
-2.72237e-06
0.000139871
-2.66471e-06
0.00013973
-2.60881e-06
0.000139591
-2.55459e-06
0.000139456
-2.50198e-06
0.000139323
-2.45092e-06
0.000139193
-2.40133e-06
0.000139065
-2.35317e-06
0.000138939
-2.30637e-06
0.000138816
-2.26088e-06
0.000138695
-2.21664e-06
0.000138577
-2.17361e-06
0.00013846
-2.13175e-06
0.000138346
-2.091e-06
0.000138234
-2.05133e-06
0.000138124
-2.0127e-06
0.000138016
-1.97506e-06
0.00013791
-1.93839e-06
0.000137805
-1.90265e-06
0.000137703
-1.86781e-06
0.000137602
0.000137503
0.000137406
0.000137311
0.000137217
0.000137124
0.000137034
0.000136945
0.000136857
0.000136771
0.000136686
0.000136603
0.000136521
0.00013644
0.000136361
0.000136283
0.000136206
0.000136131
0.000136056
0.000135983
0.000135911
0.00013584
0.000135771
0.000135702
0.000135635
0.000135568
0.000135503
0.000135438
0.000135375
0.000135313
0.000140808
0.000140593
0.000140383
0.000140177
0.000139977
0.00013978
0.000139589
0.000139401
0.000139218
0.000139039
0.000138864
0.000138692
0.000138524
0.00013836
0.000138199
0.000138041
0.000137887
0.000137735
0.000137587
0.000137442
0.0001373
0.00013716
0.000137023
0.000136889
0.000136757
0.000136628
0.000136501
0.000136377
0.000136255
0.000136135
0.000136018
0.000135902
0.000135789
0.000135678
0.000135568
)
;

boundaryField
{
    inlet
    {
        type            calculated;
        value           nonuniform 0();
    }
    outlet
    {
        type            calculated;
        value           nonuniform 0();
    }
    wall
    {
        type            calculated;
        value           nonuniform 0();
    }
    wedge1
    {
        type            wedge;
        value           nonuniform List<scalar> 
344
(
2.56599e-17
2.51283e-17
2.46575e-17
2.41363e-17
2.36729e-17
2.32117e-17
2.27588e-17
2.23707e-17
2.19602e-17
2.16056e-17
2.1227e-17
2.09003e-17
2.05461e-17
2.02466e-17
1.99224e-17
1.96436e-17
1.93274e-17
1.90628e-17
1.8782e-17
1.84727e-17
1.82088e-17
1.79209e-17
1.76835e-17
1.74215e-17
1.72011e-17
1.69445e-17
1.67352e-17
1.64952e-17
1.62909e-17
1.60535e-17
1.58627e-17
1.56403e-17
1.54603e-17
1.52506e-17
1.50818e-17
1.48809e-17
1.4723e-17
1.45303e-17
1.43743e-17
1.41852e-17
-1.91379e-16
-1.80503e-16
6.9483e-16
-1.58453e-16
-1.47287e-16
-1.86579e-16
-1.75947e-16
6.77184e-16
-1.54392e-16
-1.4348e-16
-1.81929e-16
-1.71529e-16
6.60262e-16
-1.50451e-16
-1.39795e-16
-1.77513e-16
-1.67339e-16
6.439e-16
-1.46755e-16
-1.3635e-16
-1.73199e-16
-1.6325e-16
6.2823e-16
-1.43109e-16
-1.32942e-16
-1.69119e-16
-1.59395e-16
6.13023e-16
-1.39724e-16
-1.298e-16
-1.65118e-16
-1.55599e-16
5.98474e-16
-1.36351e-16
-1.26646e-16
-1.61301e-16
-1.51983e-16
5.84372e-16
-1.33175e-16
-1.23688e-16
-1.57564e-16
-1.48446e-16
5.70841e-16
-1.30021e-16
-1.2074e-16
-1.54029e-16
-1.45108e-16
5.57666e-16
-1.27099e-16
-1.18032e-16
-1.50546e-16
-1.41806e-16
5.45045e-16
-1.24168e-16
-1.15294e-16
-1.47222e-16
-1.38661e-16
5.32774e-16
-1.21411e-16
-1.12727e-16
-1.43948e-16
-1.35565e-16
5.20989e-16
-1.18654e-16
-1.10152e-16
-1.4086e-16
-1.32654e-16
5.09474e-16
-1.16111e-16
-1.07798e-16
-1.37802e-16
-1.29778e-16
4.98404e-16
-1.13569e-16
-1.05431e-16
-1.3488e-16
-1.27004e-16
4.87653e-16
-1.11152e-16
-1.0318e-16
-1.32049e-16
-1.24335e-16
4.7723e-16
-1.08811e-16
-1.01013e-16
-1.2931e-16
-1.21752e-16
4.6712e-16
-1.06549e-16
-9.89136e-17
-1.26654e-16
-1.19247e-16
4.57318e-16
-1.04355e-16
-9.68779e-17
-1.24076e-16
-1.16817e-16
4.4781e-16
-1.02227e-16
-9.49023e-17
-1.21577e-16
-1.1446e-16
4.38583e-16
-1.00159e-16
-9.29834e-17
-1.19151e-16
-1.12173e-16
4.29623e-16
-9.81555e-17
-9.11229e-17
-1.16796e-16
-1.09952e-16
4.20921e-16
-9.62089e-17
-8.93168e-17
-1.14504e-16
-1.07793e-16
4.12469e-16
-9.43179e-17
-8.75609e-17
-1.12279e-16
-1.05697e-16
4.04252e-16
-9.2482e-17
-8.58564e-17
-1.10117e-16
-1.0366e-16
3.96263e-16
-9.06972e-17
-8.41989e-17
-1.07986e-16
-1.01646e-16
3.88541e-16
-8.89014e-17
-8.25125e-17
-1.05882e-16
-9.9648e-17
3.81068e-16
-8.71192e-17
-8.08467e-17
-1.03886e-16
-9.77585e-17
3.73719e-16
-8.54731e-17
-7.93182e-17
-1.01888e-16
-9.58744e-17
3.66636e-16
-8.37905e-17
-7.77458e-17
-1.00019e-16
-9.41167e-17
3.59631e-16
-8.22701e-17
-7.63446e-17
-9.81315e-17
-9.23312e-17
3.5291e-16
-8.0684e-17
-7.48616e-17
-9.63306e-17
-9.06293e-17
3.46297e-16
-7.92073e-17
-7.34922e-17
-9.45494e-17
-8.89615e-17
3.39889e-16
-7.77232e-17
-7.21141e-17
-9.27959e-17
-8.72898e-17
3.33679e-16
-7.62444e-17
-7.07231e-17
-9.10998e-17
-8.5695e-17
3.27589e-16
-7.48333e-17
-6.94148e-17
-8.94293e-17
-8.4106e-17
3.21684e-16
-7.34293e-17
-8.78144e-17
-8.25868e-17
3.1589e-16
-7.20853e-17
-8.62191e-17
-8.10703e-17
3.10273e-16
-7.07462e-17
-8.46809e-17
-7.96254e-17
3.04753e-16
-6.94723e-17
-8.3158e-17
-7.81782e-17
2.99401e-16
-6.81994e-17
-8.16874e-17
-7.67982e-17
2.94143e-16
-6.69806e-17
-8.02341e-17
-7.54161e-17
2.89042e-16
-6.57638e-17
-7.88332e-17
-7.41036e-17
2.84021e-16
-6.46094e-17
-7.74454e-17
-7.27859e-17
2.79152e-16
-6.34521e-17
-7.61068e-17
-7.15232e-17
2.7436e-16
-6.23522e-17
-7.48006e-17
-7.03028e-17
2.69677e-16
-6.12719e-17
-7.35073e-17
-6.9071e-17
2.65132e-16
-6.01897e-17
-7.22595e-17
-6.79029e-17
2.60653e-16
-5.91629e-17
-7.10212e-17
-6.67255e-17
2.56306e-16
-5.8131e-17
-6.98244e-17
-6.56056e-17
2.52026e-16
-5.71445e-17
-6.86385e-17
-6.44778e-17
2.47871e-16
-5.61545e-17
-6.74939e-17
-6.34079e-17
2.43774e-16
-5.5216e-17
-6.63561e-17
-6.23275e-17
2.39799e-16
-5.42711e-17
-6.52613e-17
-6.13036e-17
2.35878e-16
-5.337e-17
-6.41751e-17
-6.02716e-17
2.32072e-16
-5.24645e-17
-6.31273e-17
-5.92922e-17
2.28318e-16
-5.1607e-17
-6.20875e-17
-5.8305e-17
2.24675e-16
-5.07427e-17
-6.10842e-17
-5.73683e-17
2.21081e-16
-4.99186e-17
-6.00849e-17
-5.6418e-17
2.176e-16
-4.90866e-17
-5.91229e-17
-5.55213e-17
2.14162e-16
-4.8302e-17
-5.81673e-17
-5.46127e-17
2.10831e-16
-4.75095e-17
-5.7248e-17
-5.3756e-17
2.07546e-16
-4.67568e-17
-5.63345e-17
-5.2888e-17
2.04366e-16
-4.59997e-17
-5.54579e-17
-5.20705e-17
2.01228e-16
-4.52857e-17
-5.45892e-17
-5.12459e-17
1.98197e-16
-4.45647e-17
-5.37563e-17
-5.04691e-17
1.95213e-16
-4.38816e-17
)
;
    }
    wedge2
    {
        type            wedge;
        value           nonuniform List<scalar> 
344
(
3.03181e-17
2.9784e-17
2.92173e-17
2.87274e-17
2.82061e-17
2.77074e-17
2.72246e-17
2.67e-17
2.62205e-17
2.57068e-17
2.52381e-17
2.47377e-17
2.42845e-17
2.37955e-17
2.33497e-17
2.28761e-17
2.24573e-17
2.20036e-17
2.15822e-17
2.12051e-17
2.0798e-17
2.04295e-17
2.0025e-17
1.9659e-17
1.92651e-17
1.89206e-17
1.85417e-17
1.82062e-17
1.78472e-17
1.75333e-17
1.71848e-17
1.68792e-17
1.65425e-17
1.62468e-17
1.5921e-17
1.56384e-17
1.53235e-17
1.50543e-17
1.47591e-17
1.45077e-17
-1.89425e-16
-1.78413e-16
6.9705e-16
-1.56128e-16
-1.44877e-16
-1.84652e-16
-1.73897e-16
6.79335e-16
-1.52161e-16
-1.41195e-16
-1.80095e-16
-1.69593e-16
6.62267e-16
-1.48386e-16
-1.37687e-16
-1.75651e-16
-1.65391e-16
6.45933e-16
-1.44661e-16
-1.34216e-16
-1.71431e-16
-1.614e-16
6.30131e-16
-1.41166e-16
-1.30969e-16
-1.67287e-16
-1.57471e-16
6.15025e-16
-1.37675e-16
-1.27704e-16
-1.63358e-16
-1.53762e-16
6.00359e-16
-1.34422e-16
-1.24685e-16
-1.59525e-16
-1.5014e-16
5.86287e-16
-1.31209e-16
-1.21693e-16
-1.55876e-16
-1.4669e-16
5.72631e-16
-1.282e-16
-1.18902e-16
-1.52277e-16
-1.43281e-16
5.59557e-16
-1.25172e-16
-1.1607e-16
-1.48866e-16
-1.40065e-16
5.46822e-16
-1.22357e-16
-1.13458e-16
-1.45523e-16
-1.36908e-16
5.34586e-16
-1.19561e-16
-1.10856e-16
-1.42349e-16
-1.33909e-16
5.22672e-16
-1.16949e-16
-1.08435e-16
-1.39195e-16
-1.30923e-16
5.11259e-16
-1.14298e-16
-1.05956e-16
-1.36209e-16
-1.28089e-16
5.00135e-16
-1.11814e-16
-1.03647e-16
-1.33277e-16
-1.25333e-16
4.89393e-16
-1.09365e-16
-1.01371e-16
-1.30434e-16
-1.22643e-16
4.78995e-16
-1.06991e-16
-9.91527e-17
-1.27671e-16
-1.20031e-16
4.68922e-16
-1.04685e-16
-9.70032e-17
-1.24991e-16
-1.17498e-16
4.59154e-16
-1.0245e-16
-9.492e-17
-1.22391e-16
-1.1504e-16
4.49679e-16
-1.00282e-16
-9.29011e-17
-1.19863e-16
-1.12653e-16
4.40484e-16
-9.81806e-17
-9.09446e-17
-1.17409e-16
-1.10333e-16
4.3156e-16
-9.61382e-17
-8.90438e-17
-1.15022e-16
-1.0808e-16
4.22894e-16
-9.41558e-17
-8.71978e-17
-1.12706e-16
-1.05892e-16
4.14473e-16
-9.22301e-17
-8.54066e-17
-1.10452e-16
-1.03763e-16
4.06291e-16
-9.03572e-17
-8.36646e-17
-1.08257e-16
-1.01691e-16
3.98338e-16
-8.85369e-17
-8.19722e-17
-1.06151e-16
-9.97103e-17
3.90556e-16
-8.6827e-17
-8.04015e-17
-1.04133e-16
-9.78203e-17
3.82947e-16
-8.51993e-17
-7.88995e-17
-1.02115e-16
-9.59263e-17
3.75619e-16
-8.35275e-17
-7.73459e-17
-1.00205e-16
-9.4127e-17
3.68416e-16
-8.19808e-17
-7.59188e-17
-9.8269e-17
-9.22978e-17
3.61511e-16
-8.03571e-17
-7.44e-17
-9.64497e-17
-9.05895e-17
3.54682e-16
-7.88813e-17
-7.30394e-17
-9.4638e-17
-8.88871e-17
3.48096e-16
-7.73752e-17
-7.1639e-17
-9.2898e-17
-8.7237e-17
3.41641e-16
-7.59529e-17
-7.03184e-17
-9.12184e-17
-8.56743e-17
3.35313e-16
-7.45988e-17
-6.90792e-17
-8.95665e-17
-8.41151e-17
3.29178e-16
-7.3248e-17
-6.78234e-17
-8.79711e-17
-8.26278e-17
3.23159e-16
-7.19587e-17
-8.63996e-17
-8.11458e-17
3.17322e-16
-7.06756e-17
-8.48852e-17
-7.97336e-17
3.1159e-16
-6.94515e-17
-8.33879e-17
-7.83201e-17
3.06035e-16
-6.8224e-17
-8.19471e-17
-7.69767e-17
3.00574e-16
-6.70554e-17
-8.05235e-17
-7.56317e-17
2.95276e-16
-6.58905e-17
-7.91498e-17
-7.43524e-17
2.90068e-16
-6.47795e-17
-7.77889e-17
-7.30651e-17
2.85019e-16
-6.36604e-17
-7.64779e-17
-7.18426e-17
2.80049e-16
-6.25966e-17
-7.51791e-17
-7.0623e-17
2.75227e-16
-6.15264e-17
-7.39072e-17
-6.9417e-17
2.70515e-16
-6.04859e-17
-7.26801e-17
-6.8277e-17
2.65875e-16
-5.94952e-17
-7.14634e-17
-6.7126e-17
2.61375e-16
-5.84955e-17
-7.02915e-17
-6.60358e-17
2.56942e-16
-5.75461e-17
-6.9131e-17
-6.49378e-17
2.52636e-16
-5.65951e-17
-6.8011e-17
-6.38964e-17
2.48394e-16
-5.56903e-17
-6.68998e-17
-6.28442e-17
2.44278e-16
-5.47755e-17
-6.58306e-17
-6.18487e-17
2.40217e-16
-5.39076e-17
-6.47659e-17
-6.08415e-17
2.36278e-16
-5.30352e-17
-6.37391e-17
-5.98863e-17
2.32393e-16
-5.2206e-17
-6.27194e-17
-5.89214e-17
2.28624e-16
-5.13663e-17
-6.17362e-17
-5.80063e-17
2.24906e-16
-5.05704e-17
-6.076e-17
-5.7082e-17
2.21299e-16
-4.97704e-17
-5.9823e-17
-5.62117e-17
2.17737e-16
-4.90141e-17
-5.88908e-17
-5.53278e-17
2.14286e-16
-4.82453e-17
-5.79939e-17
-5.44951e-17
2.10882e-16
-4.75191e-17
-5.71021e-17
-5.36497e-17
2.07584e-16
-4.67874e-17
-5.62457e-17
-5.28545e-17
2.04331e-16
-4.60944e-17
-5.53934e-17
-5.20475e-17
2.01187e-16
-4.53925e-17
-5.45745e-17
-5.12866e-17
1.98089e-16
-4.47318e-17
-5.37612e-17
-5.05171e-17
1.95095e-16
-4.40679e-17
)
;
    }
    axis
    {
        type            empty;
        value           nonuniform 0();
    }
    procBoundary19to13
    {
        type            processor;
        value           nonuniform List<scalar> 
68
(
2.83412e-06
2.78066e-06
2.72858e-06
2.67783e-06
2.62837e-06
2.58014e-06
2.53311e-06
2.48723e-06
2.44247e-06
2.39879e-06
2.35614e-06
2.31451e-06
2.27385e-06
2.23414e-06
2.19534e-06
2.15743e-06
2.12037e-06
2.08415e-06
2.04874e-06
2.01411e-06
1.98025e-06
1.94712e-06
1.91471e-06
1.88301e-06
1.85198e-06
1.82162e-06
1.79191e-06
1.76283e-06
1.73436e-06
1.7065e-06
1.67923e-06
1.65254e-06
1.62642e-06
1.60086e-06
1.57586e-06
1.55142e-06
1.52751e-06
1.50416e-06
1.48136e-06
1.4591e-06
4.71227e-06
4.5944e-06
4.48101e-06
4.37184e-06
4.26668e-06
4.16532e-06
4.06756e-06
3.97322e-06
3.88213e-06
3.79413e-06
3.70906e-06
3.62679e-06
3.5472e-06
3.47015e-06
3.39552e-06
3.32322e-06
3.25314e-06
3.18518e-06
3.11925e-06
3.05527e-06
2.99315e-06
2.93282e-06
2.8742e-06
2.81723e-06
2.76184e-06
2.70798e-06
-0.000419575
2.65557e-06
)
;
    }
    procBoundary19to18
    {
        type            processor;
        value           nonuniform List<scalar> 4(-0.000146595 -0.000145763 -0.000144566 -0.000142992);
    }
    procBoundary19to20
    {
        type            processor;
        value           nonuniform List<scalar> 5(0.000412754 0.000140358 0.000138973 0.000137274 0.000135251);
    }
    procBoundary19to24
    {
        type            processor;
        value           uniform -0.000141029;
    }
    procBoundary19to25
    {
        type            processor;
        value           nonuniform List<scalar> 
68
(
-1.83383e-06
-1.80068e-06
-1.76834e-06
-1.73679e-06
-1.70599e-06
-1.67592e-06
-1.64655e-06
-1.61787e-06
-1.58985e-06
-1.56248e-06
-1.53573e-06
-1.50958e-06
-1.48402e-06
-1.45902e-06
-1.43459e-06
-1.41069e-06
-1.38731e-06
-1.36445e-06
-1.34208e-06
-1.3202e-06
-1.2988e-06
-1.27786e-06
-1.25738e-06
-1.23735e-06
-1.21777e-06
-1.19862e-06
-1.17991e-06
-1.16163e-06
-1.14378e-06
-1.12637e-06
-1.1094e-06
-3.74876e-06
-3.65264e-06
-3.5603e-06
-3.47151e-06
-3.38609e-06
-3.30385e-06
-3.22462e-06
-3.14824e-06
-3.07458e-06
-3.00348e-06
-2.93482e-06
-2.86848e-06
-2.80435e-06
-2.74233e-06
-2.68232e-06
-2.62422e-06
-2.56794e-06
-2.51342e-06
-2.46056e-06
-2.4093e-06
-2.35957e-06
-2.3113e-06
-2.26444e-06
-2.21892e-06
-2.1747e-06
-2.13171e-06
-2.08992e-06
-2.04927e-06
-2.00973e-06
-1.97124e-06
-1.93377e-06
-1.89729e-06
-1.86175e-06
-1.82713e-06
-1.79338e-06
0.000135461
-1.76049e-06
)
;
    }
}


// ************************************************************************* //
