/*--------------------------------*- C++ -*----------------------------------*\
  =========                 |
  \\      /  F ield         | OpenFOAM: The Open Source CFD Toolbox
   \\    /   O peration     | Website:  https://openfoam.org
    \\  /    A nd           | Version:  7
     \\/     M anipulation  |
\*---------------------------------------------------------------------------*/
FoamFile
{
    version     2.0;
    format      ascii;
    class       surfaceScalarField;
    location    "0.8";
    object      phi;
}
// * * * * * * * * * * * * * * * * * * * * * * * * * * * * * * * * * * * * * //

dimensions      [0 3 -1 0 0 0 0];

internalField   nonuniform List<scalar> 
615
(
1.08046e-05
-7.80247e-09
1.08277e-05
-2.30298e-08
1.08659e-05
-3.8265e-08
1.09189e-05
-5.30013e-08
1.09859e-05
-6.69144e-08
1.10657e-05
-7.98565e-08
1.11574e-05
-9.16906e-08
1.12597e-05
-1.02301e-07
1.13713e-05
-1.11621e-07
1.1491e-05
-1.19628e-07
1.16173e-05
-1.26338e-07
1.17491e-05
-1.31796e-07
1.18852e-05
-1.36073e-07
1.20244e-05
-1.39256e-07
1.21659e-05
-1.41444e-07
1.23086e-05
-1.4274e-07
1.24519e-05
-1.43251e-07
1.25949e-05
-1.43078e-07
1.27373e-05
-1.4232e-07
1.28783e-05
-1.41067e-07
1.30177e-05
-1.39401e-07
1.31551e-05
-1.37396e-07
1.32902e-05
-1.35118e-07
1.34229e-05
-1.32624e-07
1.35528e-05
-1.29962e-07
1.368e-05
-1.27175e-07
1.38043e-05
-1.24299e-07
1.39257e-05
-1.21365e-07
1.40441e-05
-1.18399e-07
1.41595e-05
-1.15425e-07
1.42719e-05
-1.12464e-07
1.43815e-05
-1.09535e-07
1.44881e-05
-1.06654e-07
1.4592e-05
-1.03837e-07
1.46931e-05
-1.01096e-07
1.47915e-05
-9.84395e-08
1.48874e-05
-9.58721e-08
1.49808e-05
-9.33927e-08
1.50718e-05
-9.09936e-08
1.51604e-05
-8.86597e-08
1.52468e-05
-8.63682e-08
1.53309e-05
-8.40889e-08
1.54127e-05
-8.17852e-08
1.54921e-05
-7.94161e-08
1.5569e-05
-7.69385e-08
1.56433e-05
-7.43105e-08
1.57148e-05
-7.14943e-08
1.57833e-05
-6.84602e-08
1.58485e-05
-6.51891e-08
1.59102e-05
-6.1675e-08
1.59681e-05
-5.79266e-08
1.6022e-05
-5.39675e-08
1.60719e-05
-4.98357e-08
1.61175e-05
-4.55813e-08
1.61587e-05
-4.12639e-08
1.61957e-05
-3.69492e-08
1.62284e-05
-3.27047e-08
1.6257e-05
-2.85961e-08
1.62817e-05
-2.46834e-08
1.63027e-05
-2.10182e-08
1.63203e-05
-1.7641e-08
1.63349e-05
-1.45803e-08
1.63468e-05
-1.18524e-08
1.63562e-05
-9.46137e-09
1.63636e-05
-7.40075e-09
1.63693e-05
-5.65509e-09
-4.202e-09
3.24138e-05
-3.10215e-08
3.24837e-05
-9.29898e-08
3.25996e-05
-1.54132e-07
3.27598e-05
-2.13216e-07
3.2962e-05
-2.69151e-07
3.32033e-05
-3.21163e-07
3.34803e-05
-3.68657e-07
3.37892e-05
-4.11193e-07
3.41261e-05
-4.48511e-07
3.4487e-05
-4.80528e-07
3.4868e-05
-5.07314e-07
3.52652e-05
-5.29063e-07
3.56752e-05
-5.46063e-07
3.60946e-05
-5.58674e-07
3.65205e-05
-5.67296e-07
3.69501e-05
-5.72351e-07
3.73811e-05
-5.74264e-07
3.78115e-05
-5.7345e-07
3.82395e-05
-5.70302e-07
3.86636e-05
-5.65182e-07
3.90826e-05
-5.58422e-07
3.94955e-05
-5.50317e-07
3.99015e-05
-5.41128e-07
4.03e-05
-5.3108e-07
4.06904e-05
-5.20371e-07
4.10724e-05
-5.09165e-07
4.14457e-05
-4.97607e-07
4.18102e-05
-4.85818e-07
4.21657e-05
-4.73904e-07
4.25122e-05
-4.61958e-07
4.28498e-05
-4.50062e-07
4.31785e-05
-4.3829e-07
4.34986e-05
-4.26708e-07
4.38101e-05
-4.15374e-07
4.41134e-05
-4.04336e-07
4.44086e-05
-3.93629e-07
4.4696e-05
-3.83268e-07
4.49758e-05
-3.7325e-07
4.52484e-05
-3.63543e-07
4.55138e-05
-3.54088e-07
4.57722e-05
-3.44794e-07
4.60237e-05
-3.35542e-07
4.62681e-05
-3.26188e-07
4.65052e-05
-3.1657e-07
4.67348e-05
-3.06519e-07
4.69564e-05
-2.9587e-07
4.71694e-05
-2.84477e-07
4.73731e-05
-2.72223e-07
4.7567e-05
-2.59036e-07
4.77502e-05
-2.44896e-07
4.79221e-05
-2.29839e-07
4.80821e-05
-2.13963e-07
4.82297e-05
-1.97421e-07
4.83645e-05
-1.80413e-07
4.84864e-05
-1.63179e-07
4.85955e-05
-1.45979e-07
4.86918e-05
-1.29081e-07
4.8776e-05
-1.12745e-07
4.88485e-05
-9.72071e-08
4.89102e-05
-8.26703e-08
4.89618e-05
-6.92927e-08
4.90044e-05
-5.71844e-08
4.9039e-05
-4.64063e-08
4.90665e-05
-3.69719e-08
4.90879e-05
-2.88525e-08
4.91043e-05
-2.19843e-08
-1.62762e-08
5.40236e-05
-7.04232e-08
5.41423e-05
-2.11625e-07
5.43388e-05
-3.50672e-07
5.46104e-05
-4.8484e-07
5.49531e-05
-6.11807e-07
5.53617e-05
-7.29746e-07
5.58303e-05
-8.37259e-07
5.63524e-05
-9.33359e-07
5.69214e-05
-1.01749e-06
5.75304e-05
-1.08948e-06
5.81726e-05
-1.14954e-06
5.88417e-05
-1.19813e-06
5.95315e-05
-1.23595e-06
6.02367e-05
-1.26382e-06
6.09521e-05
-1.28269e-06
6.16733e-05
-1.29352e-06
6.23963e-05
-1.2973e-06
6.31178e-05
-1.29496e-06
6.38349e-05
-1.28741e-06
6.45452e-05
-1.27545e-06
6.52466e-05
-1.25984e-06
6.59375e-05
-1.24124e-06
6.66166e-05
-1.22023e-06
6.72829e-05
-1.19733e-06
6.79355e-05
-1.17296e-06
6.85738e-05
-1.1475e-06
6.91974e-05
-1.12125e-06
6.98061e-05
-1.0945e-06
7.03997e-05
-1.06748e-06
7.09781e-05
-1.04038e-06
7.15414e-05
-1.01339e-06
7.20898e-05
-9.86658e-07
7.26234e-05
-9.60341e-07
7.31426e-05
-9.34558e-07
7.36477e-05
-9.09412e-07
7.41391e-05
-8.84976e-07
7.46171e-05
-8.61286e-07
7.50821e-05
-8.38329e-07
7.55346e-05
-8.16034e-07
7.59748e-05
-7.94269e-07
7.64029e-05
-7.72835e-07
7.68188e-05
-7.51469e-07
7.72225e-05
-7.29856e-07
7.76135e-05
-7.07642e-07
7.79915e-05
-6.8446e-07
7.83555e-05
-6.59951e-07
7.87049e-05
-6.33801e-07
7.90384e-05
-6.05762e-07
7.93551e-05
-5.75687e-07
7.96537e-05
-5.43542e-07
7.99333e-05
-5.09422e-07
8.01929e-05
-4.73555e-07
8.04318e-05
-4.36289e-07
8.06494e-05
-3.98079e-07
8.08457e-05
-3.5946e-07
8.10207e-05
-3.21012e-07
8.1175e-05
-2.83331e-07
8.13092e-05
-2.46988e-07
8.14245e-05
-2.12501e-07
8.15222e-05
-1.80309e-07
8.16036e-05
-1.50751e-07
8.16705e-05
-1.2406e-07
8.17244e-05
-1.00358e-07
8.17671e-05
-7.96607e-08
8.18002e-05
-6.18941e-08
8.18251e-05
-4.69059e-08
-3.44858e-08
7.56346e-05
-1.2711e-07
7.58052e-05
-3.82223e-07
7.60878e-05
-6.33255e-07
7.64781e-05
-8.75167e-07
7.69701e-05
-1.10379e-06
7.75561e-05
-1.31577e-06
7.82274e-05
-1.50855e-06
7.89744e-05
-1.68039e-06
7.97873e-05
-1.83034e-06
8.0656e-05
-1.9582e-06
8.15709e-05
-2.06441e-06
8.25226e-05
-2.14989e-06
8.35027e-05
-2.21598e-06
8.45031e-05
-2.26425e-06
8.55168e-05
-2.29643e-06
8.65376e-05
-2.31431e-06
8.756e-05
-2.31967e-06
8.85793e-05
-2.31421e-06
8.95914e-05
-2.29955e-06
9.05931e-05
-2.27716e-06
9.15816e-05
-2.24836e-06
9.25547e-05
-2.21434e-06
9.35106e-05
-2.17612e-06
9.44479e-05
-2.1346e-06
9.53655e-05
-2.09053e-06
9.62625e-05
-2.04456e-06
9.71385e-05
-1.99726e-06
9.79931e-05
-1.94907e-06
9.8826e-05
-1.9004e-06
9.96372e-05
-1.8516e-06
0.000100427
-1.80298e-06
0.000101195
-1.7548e-06
0.000101942
-1.70731e-06
0.000102668
-1.66071e-06
0.000103374
-1.61518e-06
0.00010406
-1.57084e-06
0.000104726
-1.52774e-06
0.000105374
-1.48585e-06
0.000106003
-1.44505e-06
0.000106614
-1.40511e-06
0.000107206
-1.36569e-06
0.000107781
-1.32632e-06
0.000108338
-1.28648e-06
0.000108876
-1.24556e-06
0.000109394
-1.20294e-06
0.000109892
-1.15802e-06
0.000110369
-1.11026e-06
0.000110822
-1.05928e-06
0.000111251
-1.00484e-06
0.000111655
-9.46919e-07
0.000112031
-8.8571e-07
0.000112379
-8.21639e-07
0.000112698
-7.5534e-07
0.000112988
-6.87623e-07
0.000113248
-6.19433e-07
0.000113479
-5.51787e-07
0.000113681
-4.85715e-07
0.000113856
-4.22202e-07
0.000114006
-3.62131e-07
0.000114132
-3.06241e-07
0.000114236
-2.55093e-07
0.000114321
-2.0906e-07
0.000114389
-1.6832e-07
0.000114442
-1.32872e-07
0.000114483
-1.02556e-07
0.000114513
-7.70815e-08
-5.60621e-08
9.72472e-05
-2.02696e-07
9.74747e-05
-6.09696e-07
9.78514e-05
-1.00993e-06
9.83713e-05
-1.39507e-06
9.90258e-05
-1.75833e-06
9.98043e-05
-2.09429e-06
0.000100695
-2.39887e-06
0.000101684
-2.66936e-06
0.000102758
-2.90439e-06
0.000103903
0.000105107
0.000106358
0.000107643
0.000108952
0.000110277
0.000111609
0.000112942
0.000114268
0.000115584
0.000116884
0.000118167
0.000119428
0.000120666
0.000121878
0.000123064
0.000124223
0.000125353
0.000126455
0.000127528
0.000128573
0.000129588
0.000130575
0.000131534
0.000132464
0.000133368
0.000134244
0.000135095
0.000135919
0.000136718
0.000137492
0.000138242
0.000138966
0.000139665
0.000140339
0.000140986
0.000141604
0.000142194
0.000142753
0.000143279
0.000143771
0.000144228
0.000144648
0.000145032
0.000145377
0.000145686
0.000145958
0.000146195
0.000146399
0.000146571
0.000146715
0.000146833
0.000146927
0.000147002
0.00014706
0.000147103
0.000147134
0.000118862
0.000119153
0.000119635
0.0001203
0.000121136
0.000122127
0.000123259
0.000124514
)
;

boundaryField
{
    inlet
    {
        type            calculated;
        value           nonuniform List<scalar> 6(-1.07968e-05 -3.23905e-05 -5.39842e-05 -7.55779e-05 -9.71716e-05 -0.000118765);
    }
    outlet
    {
        type            calculated;
        value           nonuniform 0();
    }
    wall
    {
        type            calculated;
        value           nonuniform 0();
    }
    wedge1
    {
        type            wedge;
        value           nonuniform List<scalar> 
344
(
1.02262e-18
6.76294e-19
9.12209e-18
-9.63127e-19
-2.06091e-18
3.28445e-18
4.7007e-18
3.16389e-18
4.01172e-17
-5.52281e-18
-1.06865e-17
1.68405e-17
7.8531e-18
6.0555e-18
7.2484e-17
-1.06142e-17
-2.01083e-17
3.12359e-17
1.12415e-17
8.55727e-18
1.05105e-16
-1.52714e-17
-2.89829e-17
4.53654e-17
1.54113e-17
1.1879e-17
1.36989e-16
-1.88738e-17
-3.73255e-17
5.88149e-17
1.84994e-17
1.51506e-17
1.6508e-16
-2.28466e-17
-4.54266e-17
7.12774e-17
2.24265e-17
1.78639e-17
1.9178e-16
-2.67524e-17
-5.26959e-17
8.23731e-17
2.48737e-17
2.1094e-17
2.15035e-16
-3.0009e-17
-5.96193e-17
9.20508e-17
2.74533e-17
2.22935e-17
2.35975e-16
-3.34965e-17
-6.56211e-17
1.00605e-16
3.0273e-17
2.50319e-17
2.54864e-16
-3.58012e-17
-7.05804e-17
3.21698e-17
2.73604e-17
2.70444e-16
-3.75692e-17
-7.48883e-17
3.34201e-17
2.83446e-17
2.83104e-16
-3.95206e-17
-7.82461e-17
3.5317e-17
2.95093e-17
2.93821e-16
-4.08328e-17
-8.08001e-17
3.6704e-17
3.14142e-17
3.02337e-16
-4.1283e-17
-8.26407e-17
3.71798e-17
3.26702e-17
3.08147e-16
-4.16408e-17
-8.40316e-17
3.79123e-17
3.2818e-17
3.12772e-16
-4.21324e-17
-8.50168e-17
3.85504e-17
3.3735e-17
3.14876e-16
-4.17964e-17
-8.50372e-17
3.832e-17
3.42187e-17
3.15005e-16
-4.13588e-17
-8.47142e-17
3.84402e-17
3.37545e-17
3.14619e-16
-4.12628e-17
-8.40652e-17
3.84403e-17
3.41174e-17
3.12402e-16
-4.04508e-17
-8.31487e-17
3.77133e-17
3.41322e-17
3.09063e-16
-3.95635e-17
-8.19591e-17
3.74356e-17
3.32383e-17
3.05567e-16
-3.90703e-17
-8.05422e-17
3.69426e-17
3.34436e-17
3.00902e-16
-3.79573e-17
-7.9014e-17
3.64357e-17
3.34933e-17
2.95394e-16
-3.69474e-17
-7.73323e-17
3.69443e-17
3.227e-17
2.89845e-16
-3.63342e-17
-7.53111e-17
3.57695e-17
3.20895e-17
2.84092e-16
-3.51322e-17
-7.36023e-17
3.49392e-17
3.16608e-17
2.78094e-16
-3.40252e-17
-7.17821e-17
3.40969e-17
3.14325e-17
2.72027e-16
-3.27993e-17
-6.9816e-17
3.28677e-17
3.02397e-17
2.64803e-16
-3.21845e-17
-6.80764e-17
3.20607e-17
2.87323e-17
2.57837e-16
-3.16713e-17
-6.62579e-17
3.14816e-17
2.85284e-17
2.51707e-16
-3.0497e-17
-6.43799e-17
3.07792e-17
2.82196e-17
2.45517e-16
-2.93747e-17
-6.24809e-17
3.02556e-17
2.77908e-17
2.39384e-16
-2.82571e-17
-6.06546e-17
2.95825e-17
2.75599e-17
2.33432e-16
-2.72046e-17
-5.87238e-17
2.84731e-17
2.68233e-17
2.26925e-16
-2.63999e-17
-5.70559e-17
2.79833e-17
2.5462e-17
2.21071e-16
-2.58289e-17
-5.52933e-17
2.74462e-17
2.53729e-17
2.15587e-16
-2.47214e-17
-5.35342e-17
2.68158e-17
2.50862e-17
2.1021e-16
-2.37254e-17
-5.18297e-17
2.62229e-17
2.46382e-17
2.04918e-16
-2.28191e-17
-5.01744e-17
2.59493e-17
2.4488e-17
1.99979e-16
-2.18058e-17
-4.85326e-17
2.47776e-17
2.39742e-17
1.9449e-16
-2.115e-17
-4.70841e-17
2.4419e-17
2.2644e-17
1.89303e-16
-2.07574e-17
-4.5551e-17
2.37627e-17
2.26347e-17
1.84245e-16
-1.97446e-17
-4.39027e-17
2.33527e-17
2.22263e-17
1.79063e-16
-1.88214e-17
-4.22246e-17
2.2729e-17
2.17513e-17
1.73559e-16
-1.79324e-17
-4.05137e-17
2.20021e-17
2.12545e-17
1.67709e-16
-1.69289e-17
-3.87116e-17
2.13022e-17
2.07187e-17
1.61499e-16
-1.59196e-17
-3.67784e-17
2.05906e-17
2.02531e-17
1.54873e-16
-1.48285e-17
-3.47572e-17
1.99345e-17
1.96593e-17
1.47679e-16
-1.36691e-17
-3.26115e-17
1.9096e-17
1.89535e-17
1.39984e-16
-1.2557e-17
-3.03268e-17
1.81049e-17
1.81588e-17
1.31717e-16
-1.13309e-17
-2.79531e-17
1.70062e-17
1.72967e-17
1.23086e-16
-1.00299e-17
-2.55084e-17
1.60666e-17
1.63733e-17
1.14007e-16
-8.71663e-18
-2.30138e-17
1.47767e-17
1.54054e-17
1.04685e-16
-7.40075e-18
-2.04448e-17
1.36543e-17
1.44854e-17
9.52554e-17
-6.08894e-18
-1.78859e-17
1.27359e-17
1.38544e-17
8.62498e-17
-4.51423e-18
-1.52086e-17
1.0924e-17
1.25297e-17
7.6298e-17
-3.69217e-18
-1.29642e-17
1.0048e-17
1.05848e-17
6.672e-17
-2.9896e-18
-1.10551e-17
8.98699e-18
1.00698e-17
5.84453e-17
-1.73415e-18
-8.76903e-18
8.17048e-18
9.53999e-18
5.06875e-17
-5.84457e-19
-6.63601e-18
7.33264e-18
8.95118e-18
4.35083e-17
4.85852e-19
-4.74057e-18
6.61165e-18
8.32559e-18
3.69398e-17
1.4647e-18
-2.99675e-18
5.94132e-18
7.82005e-18
3.11833e-17
2.29027e-18
-1.46041e-18
5.30566e-18
7.33134e-18
2.60884e-17
3.02643e-18
-1.62445e-19
4.80633e-18
6.92082e-18
2.16767e-17
3.66673e-18
1.01634e-18
4.42108e-18
6.61092e-18
1.80191e-17
4.21339e-18
1.96982e-18
4.01004e-18
6.27635e-18
1.49578e-17
4.65986e-18
2.72942e-18
)
;
    }
    wedge2
    {
        type            wedge;
        value           nonuniform List<scalar> 
344
(
1.07303e-18
6.4491e-19
9.16422e-18
-9.52314e-19
-2.06054e-18
3.27647e-18
4.70238e-18
3.94657e-18
4.17051e-17
-5.08545e-18
-1.09559e-17
1.61821e-17
9.30059e-18
7.82247e-18
7.52152e-17
-9.76997e-18
-2.06122e-17
3.00721e-17
1.34772e-17
1.16092e-17
1.06615e-16
-1.4512e-17
-3.02116e-17
4.3338e-17
1.65112e-17
1.40401e-17
1.35719e-16
-1.99711e-17
-3.94526e-17
5.58793e-17
2.0164e-17
1.66651e-17
1.64683e-16
-2.44255e-17
-4.77633e-17
6.76061e-17
2.24325e-17
1.91455e-17
1.90456e-16
-2.82616e-17
-5.55271e-17
7.8579e-17
2.55836e-17
2.05895e-17
2.14563e-16
-3.1982e-17
-6.21109e-17
8.86602e-17
2.796e-17
2.33466e-17
2.35553e-16
-3.46119e-17
-6.8005e-17
9.74283e-17
2.94221e-17
2.44173e-17
2.53024e-16
-3.77071e-17
-7.32986e-17
3.1159e-17
2.49756e-17
2.68266e-16
-4.03885e-17
-7.76203e-17
3.29123e-17
2.65371e-17
2.81052e-16
-4.21482e-17
-8.1326e-17
3.33762e-17
2.74951e-17
2.90676e-16
-4.38471e-17
-8.43572e-17
3.37992e-17
2.71175e-17
2.97747e-16
-4.56277e-17
-8.67326e-17
3.46148e-17
2.69201e-17
3.03236e-16
-4.68227e-17
-8.83334e-17
3.47017e-17
2.74959e-17
3.05843e-16
-4.73405e-17
-8.91704e-17
3.44651e-17
2.69236e-17
3.07414e-16
-4.8148e-17
-8.99794e-17
3.47299e-17
2.65304e-17
3.07664e-16
-4.86482e-17
-9.02465e-17
3.43306e-17
2.67179e-17
3.05774e-16
-4.83352e-17
-9.00816e-17
3.37726e-17
2.59125e-17
3.0332e-16
-4.84425e-17
-8.95476e-17
3.37294e-17
2.53542e-17
2.99991e-16
-4.84208e-17
-8.87558e-17
3.30442e-17
2.53588e-17
2.95306e-16
-4.76447e-17
-8.7755e-17
3.24065e-17
2.42409e-17
2.90441e-16
-4.73688e-17
-8.65129e-17
3.15452e-17
2.3276e-17
2.85381e-16
-4.691e-17
-8.51047e-17
2.98637e-17
2.32757e-17
2.79551e-16
-4.58006e-17
-8.38951e-17
2.96368e-17
2.22942e-17
2.73307e-16
-4.52584e-17
-8.21681e-17
2.89969e-17
2.15077e-17
2.66861e-16
-4.45635e-17
-8.0431e-17
2.83595e-17
2.05113e-17
2.60176e-16
-4.39375e-17
-7.8757e-17
2.80829e-17
2.05674e-17
2.54429e-16
-4.27344e-17
-7.68065e-17
2.73735e-17
2.06889e-17
2.48426e-16
-4.12912e-17
-7.49131e-17
2.6439e-17
1.96198e-17
2.41569e-16
-4.05709e-17
-7.30817e-17
2.56337e-17
1.86943e-17
2.3488e-16
-3.98098e-17
-7.12959e-17
2.46812e-17
1.7876e-17
2.28317e-16
-3.90996e-17
-6.94824e-17
2.39032e-17
1.69102e-17
2.21824e-16
-3.83242e-17
-6.78342e-17
2.3591e-17
1.65824e-17
2.16191e-16
-3.74139e-17
-6.5997e-17
2.27292e-17
1.66837e-17
2.10248e-16
-3.61867e-17
-6.4339e-17
2.19486e-17
1.56666e-17
2.04301e-16
-3.56113e-17
-6.27662e-17
2.13053e-17
1.48961e-17
1.98607e-16
-3.49743e-17
-6.12254e-17
2.06535e-17
1.43063e-17
1.93156e-16
-3.42951e-17
-5.97143e-17
1.97336e-17
1.3441e-17
1.87617e-16
-3.37588e-17
-5.82499e-17
1.97164e-17
1.30723e-17
1.82796e-16
-3.29471e-17
-5.66279e-17
1.89121e-17
1.33101e-17
1.77713e-16
-3.175e-17
-5.50932e-17
1.83781e-17
1.23409e-17
1.72384e-16
-3.12176e-17
-5.36359e-17
1.75697e-17
1.17245e-17
1.66894e-16
-3.05607e-17
-5.21275e-17
1.69223e-17
1.1131e-17
1.61255e-16
-2.97838e-17
-5.05246e-17
1.62995e-17
1.04975e-17
1.55317e-16
-2.90466e-17
-4.88413e-17
1.55555e-17
9.82089e-18
1.48935e-16
-2.82008e-17
-4.70799e-17
1.46954e-17
8.97894e-18
1.42044e-16
-2.73049e-17
-4.51687e-17
1.36768e-17
8.17403e-18
1.3472e-16
-2.63491e-17
-4.31283e-17
1.27076e-17
7.36575e-18
1.26876e-16
-2.51961e-17
-4.0973e-17
1.17799e-17
6.56639e-18
1.18624e-16
-2.40201e-17
-3.86686e-17
1.08386e-17
5.72715e-18
1.09865e-16
-2.2808e-17
-3.6229e-17
9.65288e-18
4.89123e-18
1.00848e-16
-2.15149e-17
-3.36834e-17
8.75954e-18
4.0383e-18
9.1591e-17
-2.0163e-17
-3.11158e-17
7.66112e-18
3.11847e-18
8.22125e-17
-1.87789e-17
-2.85136e-17
6.3572e-18
1.90189e-18
7.24673e-17
-1.76797e-17
-2.60809e-17
5.98805e-18
1.45607e-18
6.39042e-17
-1.59114e-17
-2.33099e-17
4.74954e-18
1.6108e-18
5.58089e-17
-1.406e-17
-2.04721e-17
3.79628e-18
4.60821e-19
4.71845e-17
-1.29277e-17
-1.82441e-17
2.72345e-18
-5.73203e-19
3.91387e-17
-1.18453e-17
-1.61833e-17
1.81994e-18
-1.41981e-18
3.1782e-17
-1.08724e-17
-1.4247e-17
9.62607e-19
-2.0988e-18
2.51995e-17
-1.00083e-17
-1.25462e-17
2.24369e-19
-2.7552e-18
1.92526e-17
-9.19667e-18
-1.10384e-17
-3.75832e-19
-3.28469e-18
1.41056e-17
-8.50491e-18
-9.69077e-18
-9.42747e-19
-3.75275e-18
9.70453e-18
-7.92066e-18
-8.61052e-18
-1.46084e-18
-4.18712e-18
5.90664e-18
-7.43456e-18
-7.66765e-18
-1.80325e-18
-4.47217e-18
2.77214e-18
-7.02645e-18
-6.86425e-18
)
;
    }
    axis
    {
        type            empty;
        value           nonuniform 0();
    }
    procBoundary0to1
    {
        type            processor;
        value           nonuniform List<scalar> 5(1.63735e-05 4.91163e-05 8.18433e-05 0.000114535 0.000147155);
    }
    procBoundary0to6
    {
        type            processor;
        value           nonuniform List<scalar> 
68
(
-3.10382e-06
-3.26854e-06
-3.40021e-06
-3.50109e-06
-3.57384e-06
-3.62129e-06
-3.64637e-06
-3.65193e-06
-3.64071e-06
-3.61524e-06
-3.57786e-06
-3.53065e-06
-3.47542e-06
-3.41379e-06
-3.34713e-06
-3.2766e-06
-3.20321e-06
-3.12779e-06
-3.05104e-06
-2.97356e-06
-2.89589e-06
-2.81847e-06
-2.74169e-06
-2.66592e-06
-2.59146e-06
-2.51855e-06
-2.44737e-06
-2.37797e-06
-2.31031e-06
-2.2442e-06
-2.17927e-06
-2.11503e-06
-2.05078e-06
-1.98573e-06
-1.91898e-06
-1.84964e-06
-1.77682e-06
-1.69978e-06
-1.61797e-06
-1.5311e-06
-1.4392e-06
-1.34263e-06
-1.24209e-06
-1.13859e-06
-1.0334e-06
-9.27972e-07
-8.23866e-07
-7.22636e-07
-6.2575e-07
-5.34507e-07
-4.49978e-07
-3.72954e-07
-3.03935e-07
-2.43127e-07
-1.90464e-07
-1.45647e-07
-1.08185e-07
-7.74514e-08
-2.99444e-07
-9.00922e-07
-1.49197e-06
-2.05973e-06
-2.59386e-06
-3.08621e-06
-3.53078e-06
-3.92372e-06
0.000125873
-4.26332e-06
)
;
    }
}


// ************************************************************************* //
