/*--------------------------------*- C++ -*----------------------------------*\
  =========                 |
  \\      /  F ield         | OpenFOAM: The Open Source CFD Toolbox
   \\    /   O peration     | Website:  https://openfoam.org
    \\  /    A nd           | Version:  7
     \\/     M anipulation  |
\*---------------------------------------------------------------------------*/
FoamFile
{
    version     2.0;
    format      ascii;
    class       volVectorField;
    location    "8.4";
    object      U;
}
// * * * * * * * * * * * * * * * * * * * * * * * * * * * * * * * * * * * * * //

dimensions      [0 1 -1 0 0 0 0];

internalField   nonuniform List<vector> 
344
(
(2.03609 -0.301831 1.3255e-15)
(2.10577 -0.336644 1.19652e-15)
(2.18706 -0.368857 9.93575e-16)
(2.28063 -0.398585 8.09538e-16)
(2.38539 -0.416951 5.32574e-16)
(2.49733 -0.426241 3.79145e-16)
(1.60389 -0.00641292 1.28655e-15)
(1.60434 -0.00632058 1.23341e-15)
(1.60479 -0.00623058 1.13353e-15)
(1.60523 -0.00614301 1.65315e-15)
(1.60566 -0.00605796 1.65042e-15)
(1.60609 -0.00597555 1.60299e-15)
(1.60651 -0.00589595 1.60734e-15)
(1.60693 -0.00581933 1.52926e-15)
(1.60734 -0.00574594 1.44871e-15)
(1.60774 -0.00567605 1.5038e-15)
(1.60814 -0.00560998 1.46075e-15)
(1.60854 -0.00554815 1.43527e-15)
(1.60893 -0.00549102 1.38694e-15)
(1.60931 -0.00543917 1.36291e-15)
(1.6097 -0.00539326 1.41102e-15)
(1.61008 -0.00535408 1.40801e-15)
(1.61046 -0.0053226 1.40878e-15)
(1.61084 -0.00529991 1.35405e-15)
(1.61122 -0.00528735 1.33459e-15)
(1.6116 -0.00528647 1.24817e-15)
(1.61199 -0.00529912 1.23052e-15)
(1.61237 -0.00532748 1.2317e-15)
(1.61277 -0.00537411 1.26777e-15)
(1.61317 -0.00544205 1.25049e-15)
(1.61358 -0.00553487 1.27234e-15)
(1.614 -0.00565678 1.2336e-15)
(1.61444 -0.00581276 1.30479e-15)
(1.6149 -0.00600866 1.16662e-15)
(1.61538 -0.00625138 1.65596e-15)
(1.61589 -0.00654905 1.627e-15)
(1.61644 -0.00691125 1.58857e-15)
(1.61703 -0.00734926 1.51224e-15)
(1.61767 -0.00787638 1.49582e-15)
(1.61837 -0.00850825 1.41143e-15)
(1.61914 -0.00926328 1.37268e-15)
(1.62 -0.0101632 1.26813e-15)
(1.62097 -0.0112334 1.3219e-15)
(1.62205 -0.012504 1.40139e-15)
(1.62329 -0.0140103 1.35483e-15)
(1.6247 -0.0157937 1.27031e-15)
(1.62631 -0.0179029 1.27348e-15)
(1.62818 -0.0203952 1.26591e-15)
(1.63034 -0.0233377 1.25726e-15)
(1.63285 -0.026809 1.26231e-15)
(1.63579 -0.0309011 1.22005e-15)
(1.63923 -0.0357218 1.07002e-15)
(1.64328 -0.0413965 1.0513e-15)
(1.64807 -0.0480716 1.09307e-15)
(1.65373 -0.0559165 1.03682e-15)
(1.66047 -0.0651272 1.01527e-15)
(1.6685 -0.0759289 9.3588e-16)
(1.67811 -0.0885778 9.30258e-16)
(1.68966 -0.103363 7.52591e-16)
(1.70359 -0.120604 1.18712e-15)
(1.72046 -0.140647 1.02268e-15)
(1.74097 -0.163848 9.1119e-16)
(1.76601 -0.19055 8.5571e-16)
(1.79667 -0.221038 7.6096e-16)
(1.83435 -0.255441 5.41626e-16)
(1.88067 -0.293696 4.05208e-16)
(1.93753 -0.335004 2.95996e-16)
(2.0071 -0.378843 1.40476e-16)
(2.09097 -0.420655 -1.08936e-16)
(2.19141 -0.462598 -3.74009e-16)
(2.30723 -0.487475 -6.37699e-16)
(2.43501 -0.507042 -8.99259e-16)
(1.5464 -0.0061939 1.16006e-15)
(1.54664 -0.00610414 1.11049e-15)
(1.54688 -0.00601671 9.72287e-16)
(1.54712 -0.00593167 1.46098e-15)
(1.54735 -0.00584914 1.39427e-15)
(1.54758 -0.00576923 1.36891e-15)
(1.54781 -0.0056921 1.34608e-15)
(1.54803 -0.00561795 1.24532e-15)
(1.54825 -0.00554698 1.18007e-15)
(1.54847 -0.00547949 1.18216e-15)
(1.54868 -0.0054158 1.11359e-15)
(1.54889 -0.00535632 9.82322e-16)
(1.5491 -0.00530151 9.8845e-16)
(1.54931 -0.00525193 1.00277e-15)
(1.54952 -0.00520827 9.63346e-16)
(1.54973 -0.00517131 9.39665e-16)
(1.54993 -0.00514199 9.01972e-16)
(1.55014 -0.00512144 8.64217e-16)
(1.55035 -0.00511096 8.76656e-16)
(1.55056 -0.00511212 7.90568e-16)
(1.55077 -0.00512675 7.33669e-16)
(1.55099 -0.00515703 7.28814e-16)
(1.55121 -0.00520553 6.39411e-16)
(1.55143 -0.00527527 6.05059e-16)
(1.55167 -0.00536981 7.00992e-16)
(1.55191 -0.00549338 6.20193e-16)
(1.55217 -0.00565093 6.89264e-16)
(1.55244 -0.00584832 5.22824e-16)
(1.55273 -0.00609245 1.00972e-15)
(1.55304 -0.00639147 9.72474e-16)
(1.55338 -0.00675496 9.12295e-16)
(1.55375 -0.00719423 8.54399e-16)
(1.55416 -0.00772261 7.75174e-16)
(1.55461 -0.00835581 7.22661e-16)
(1.55511 -0.00911236 7.25683e-16)
(1.55568 -0.0100141 6.44879e-16)
(1.55633 -0.0110867 6.30644e-16)
(1.55706 -0.0123605 5.5964e-16)
(1.5579 -0.0138713 5.27067e-16)
(1.55887 -0.0156611 4.84976e-16)
(1.56 -0.0177796 4.84785e-16)
(1.56131 -0.0202852 5.13577e-16)
(1.56284 -0.0232469 5.44509e-16)
(1.56463 -0.0267459 4.84076e-16)
(1.56674 -0.0308777 3.2616e-16)
(1.56923 -0.035755 2.59354e-16)
(1.57219 -0.0415103 2.51817e-16)
(1.57571 -0.0482996 2.19512e-16)
(1.57991 -0.056306 2.04876e-16)
(1.58495 -0.0657447 2.23518e-16)
(1.59101 -0.0768675 1.75057e-16)
(1.59836 -0.0899682 9.56355e-17)
(1.60729 -0.105388 -5.94781e-17)
(1.61822 -0.123521 3.00996e-16)
(1.63166 -0.144814 1.21489e-16)
(1.64829 -0.169766 9.42775e-18)
(1.66903 -0.198912 -9.78707e-17)
(1.69505 -0.232797 -1.87939e-16)
(1.72791 -0.271885 -3.29751e-16)
(1.76961 -0.316505 -5.26575e-16)
(1.82277 -0.366292 -6.9318e-16)
(1.89032 -0.421114 -8.91289e-16)
(1.97564 -0.475705 -1.15864e-15)
(2.08284 -0.53508 -1.47277e-15)
(2.21146 -0.568633 -1.754e-15)
(2.36323 -0.611987 -2.06225e-15)
(1.48086 -0.00584017 8.429e-16)
(1.48091 -0.00575507 8.32184e-16)
(1.48097 -0.00567222 6.19076e-16)
(1.48102 -0.0055917 7.86573e-16)
(1.48107 -0.0055136 8.95078e-16)
(1.48112 -0.00543804 9.64986e-16)
(1.48116 -0.00536517 9.61768e-16)
(1.48121 -0.00529518 8.31508e-16)
(1.48126 -0.00522829 7.69216e-16)
(1.48131 -0.00516476 7.06364e-16)
(1.48135 -0.00510493 6.67517e-16)
(1.4814 -0.00504918 5.29105e-16)
(1.48144 -0.00499798 4.82861e-16)
(1.48149 -0.00495186 4.88085e-16)
(1.48154 -0.0049115 5.3841e-16)
(1.48158 -0.00487766 4.47013e-16)
(1.48163 -0.00485126 4.48869e-16)
(1.48168 -0.0048334 3.61983e-16)
(1.48173 -0.00482536 3.05295e-16)
(1.48178 -0.00482867 2.04064e-16)
(1.48184 -0.00484512 1.23364e-16)
(1.4819 -0.00487684 1.33976e-16)
(1.48196 -0.00492634 1.49816e-16)
(1.48203 -0.00499657 5.32083e-17)
(1.4821 -0.00509104 7.86151e-17)
(1.48218 -0.00521385 5.95568e-18)
(1.48227 -0.00536988 6.96095e-17)
(1.48237 -0.00556485 -8.41951e-17)
(1.48248 -0.00580552 -1.20468e-17)
(1.48261 -0.00609989 1.41685e-16)
(1.48275 -0.00645734 1.32689e-16)
(1.48291 -0.006889 1.43198e-16)
(1.4831 -0.00740794 4.16338e-17)
(1.48331 -0.00802962 1.59715e-17)
(1.48356 -0.00877226 -5.06218e-17)
(1.48385 -0.0096574 -1.089e-16)
(1.48419 -0.0107104 -1.77128e-16)
(1.48458 -0.0119613 -2.18012e-16)
(1.48505 -0.0134454 -2.58162e-16)
(1.48559 -0.0152047 -1.77397e-16)
(1.48624 -0.0172886 -2.85086e-16)
(1.487 -0.0197554 -2.42803e-16)
(1.48791 -0.0226745 -3.24219e-16)
(1.48898 -0.0261277 -3.66055e-16)
(1.49027 -0.0302119 -5.02427e-16)
(1.49181 -0.0350421 -5.61178e-16)
(1.49366 -0.0407548 -5.55835e-16)
(1.49589 -0.047512 -5.36088e-16)
(1.49859 -0.0555061 -6.48708e-16)
(1.50188 -0.0649663 -5.60159e-16)
(1.5059 -0.0761656 -7.1857e-16)
(1.51084 -0.0894291 -7.45342e-16)
(1.51697 -0.105145 -9.35887e-16)
(1.5246 -0.123774 -8.10605e-16)
(1.53419 -0.145865 -7.81814e-16)
(1.54636 -0.172065 -8.05555e-16)
(1.56194 -0.203129 -8.85443e-16)
(1.58211 -0.239918 -1.03133e-15)
(1.60851 -0.283357 -1.21247e-15)
(1.64339 -0.334395 -1.40316e-15)
(1.69014 -0.393524 -1.59862e-15)
(1.75254 -0.46141 -1.86956e-15)
(1.83702 -0.533283 -2.15282e-15)
(1.94861 -0.61638 -2.43251e-15)
(2.0921 -0.663555 -2.68069e-15)
(2.2799 -0.755103 -2.98005e-15)
(1.40694 -0.0053721 3.25885e-16)
(1.40682 -0.00529348 4.82672e-16)
(1.40671 -0.00521698 1.20238e-16)
(1.4066 -0.00514267 5.87717e-16)
(1.40649 -0.00507065 6.03315e-16)
(1.40638 -0.00500104 5.86694e-16)
(1.40627 -0.00493397 5.9043e-16)
(1.40617 -0.00486962 2.24541e-16)
(1.40606 -0.0048082 3.47636e-16)
(1.40596 -0.00474998 5.42956e-17)
(1.40586 -0.00469526 1.4863e-16)
(1.40576 -0.00464441 -1.71971e-16)
(1.40566 -0.00459788 -4.77286e-17)
(1.40557 -0.00455619 2.65638e-18)
(1.40547 -0.00451997 1.16093e-16)
(1.40538 -0.00448996 -2.27331e-16)
(1.40529 -0.00446704 -1.04523e-16)
(1.4052 -0.00445226 -4.35379e-16)
(1.40511 -0.00444685 -3.05525e-16)
(1.40503 -0.00445226 -6.06998e-16)
(1.40494 -0.00447021 -4.66399e-16)
(1.40487 -0.00450275 -4.63634e-16)
(1.40479 -0.00455227 -3.60543e-16)
(1.40472 -0.00462161 -6.98697e-16)
(1.40465 -0.00471411 -5.64404e-16)
(1.40458 -0.00483371 -8.3411e-16)
(1.40452 -0.00498509 -6.32635e-16)
(1.40446 -0.00517372 -9.67845e-16)
(1.40441 -0.00540611 -5.11135e-16)
(1.40437 -0.0056899 -4.5745e-16)
(1.40433 -0.00603413 -5.09274e-16)
(1.40431 -0.00644945 -4.82901e-16)
(1.40429 -0.00694846 -8.30249e-16)
(1.40429 -0.00754603 -7.00686e-16)
(1.4043 -0.00825971 -9.90368e-16)
(1.40433 -0.00911024 -8.29795e-16)
(1.40438 -0.0101222 -1.10822e-15)
(1.40446 -0.0113245 -9.97696e-16)
(1.40457 -0.0127515 -9.53167e-16)
(1.40471 -0.0144438 -8.62578e-16)
(1.4049 -0.0164496 -1.15359e-15)
(1.40514 -0.018826 -1.00748e-15)
(1.40544 -0.0216407 -1.29497e-15)
(1.40582 -0.0249744 -1.16267e-15)
(1.40631 -0.0289228 -1.44218e-15)
(1.40692 -0.0336005 -1.34796e-15)
(1.40768 -0.0391438 -1.22526e-15)
(1.40864 -0.0457164 -1.15734e-15)
(1.40984 -0.0535144 -1.46473e-15)
(1.41137 -0.0627742 -1.33874e-15)
(1.41331 -0.073781 -1.67782e-15)
(1.41579 -0.086881 -1.48902e-15)
(1.41898 -0.102495 -1.88639e-15)
(1.42313 -0.121139 -1.446e-15)
(1.42856 -0.143445 -1.46553e-15)
(1.43575 -0.170195 -1.54639e-15)
(1.44539 -0.202355 -1.57066e-15)
(1.45848 -0.241125 -1.96233e-15)
(1.47656 -0.287964 -1.95868e-15)
(1.50189 -0.344669 -2.38879e-15)
(1.5383 -0.413099 -2.37879e-15)
(1.59055 -0.495661 -2.77604e-15)
(1.66921 -0.590578 -2.92699e-15)
(1.77955 -0.70617 -3.15714e-15)
(1.94289 -0.784972 -3.37192e-15)
(2.17034 -0.955369 -3.57006e-15)
(1.32438 -0.00481316 4.415e-16)
(1.32412 -0.0047425 3.95196e-16)
(1.32387 -0.00467379 1.75443e-16)
(1.32363 -0.00460709 2.12203e-16)
(1.32338 -0.0045425 2.29219e-16)
(1.32314 -0.00448011 1.53727e-16)
(1.32291 -0.00442007 2.03249e-16)
(1.32267 -0.00436254 7.03106e-17)
(1.32244 -0.00430772 6.99365e-17)
(1.32222 -0.00425584 -2.58693e-17)
(1.32199 -0.00420721 -1.09422e-16)
(1.32177 -0.00416217 -2.10753e-16)
(1.32155 -0.00412113 -2.99692e-16)
(1.32134 -0.00408458 -3.10953e-16)
(1.32113 -0.00405311 -2.73176e-16)
(1.32092 -0.00402742 -3.10477e-16)
(1.32071 -0.00400833 -3.77797e-16)
(1.3205 -0.00399681 -5.3551e-16)
(1.3203 -0.00399402 -6.03112e-16)
(1.3201 -0.00400132 -7.0438e-16)
(1.3199 -0.00402033 -7.56974e-16)
(1.31971 -0.00405294 -7.72652e-16)
(1.31951 -0.00410141 -7.72558e-16)
(1.31932 -0.00416838 -8.93463e-16)
(1.31913 -0.004257 -8.52912e-16)
(1.31894 -0.00437094 -9.75838e-16)
(1.31875 -0.00451459 -9.64317e-16)
(1.31856 -0.00469309 -1.08229e-15)
(1.31837 -0.00491251 -1.05609e-15)
(1.31818 -0.00518003 -1.0335e-15)
(1.31799 -0.00550414 -1.05711e-15)
(1.3178 -0.00589483 -1.05163e-15)
(1.31761 -0.00636393 -1.09844e-15)
(1.31741 -0.00692541 -1.10591e-15)
(1.31721 -0.0075958 -1.21056e-15)
(1.31701 -0.00839463 -1.22614e-15)
(1.3168 -0.00934502 -1.3477e-15)
(1.31658 -0.0104744 -1.37459e-15)
(1.31636 -0.0118151 -1.41393e-15)
(1.31613 -0.0134057 -1.38678e-15)
(1.31589 -0.015292 -1.44355e-15)
(1.31565 -0.0175282 -1.45499e-15)
(1.31539 -0.020179 -1.57395e-15)
(1.31512 -0.0233217 -1.552e-15)
(1.31485 -0.0270485 -1.66805e-15)
(1.31457 -0.0314697 -1.69583e-15)
(1.31429 -0.0367182 -1.66854e-15)
(1.31403 -0.0429538 -1.65288e-15)
(1.31379 -0.0503697 -1.73393e-15)
(1.3136 -0.0592008 -1.8025e-15)
(1.31349 -0.069734 -1.88486e-15)
(1.31353 -0.0823215 -1.90716e-15)
(1.31378 -0.0973991 -2.05545e-15)
(1.31437 -0.115511 -2.05466e-15)
(2.61538 -0.418333 3.81419e-17)
(2.72867 -0.390207 -1.20464e-16)
(2.82473 -0.349621 -3.24805e-16)
(2.90034 -0.304679 -4.8496e-16)
(2.576 -0.496454 -1.14932e-15)
(2.70585 -0.45386 -1.40869e-15)
(2.80527 -0.396699 -1.58548e-15)
(2.87451 -0.337318 -1.73823e-15)
(2.53968 -0.592572 -2.25617e-15)
(2.68323 -0.522563 -2.46648e-15)
(2.77093 -0.43905 -2.56596e-15)
(2.81584 -0.358754 -2.66457e-15)
(2.49996 -0.701261 -3.16121e-15)
(2.63138 -0.579827 -3.19765e-15)
(2.66963 -0.457106 -3.1498e-15)
(2.65797 -0.349513 -3.0412e-15)
(2.40667 -0.779914 -3.41322e-15)
(2.44924 -0.571783 -3.2437e-15)
(2.37614 -0.403298 -2.99469e-15)
(2.27534 -0.27357 -2.7908e-15)
)
;

boundaryField
{
    inlet
    {
        type            uniformFixedValue;
        uniformValue    constant (1 0 0);
        value           nonuniform 0();
    }
    outlet
    {
        type            pressureInletOutletVelocity;
        value           nonuniform 0();
    }
    wall
    {
        type            fixedValue;
        value           nonuniform 0();
    }
    wedge1
    {
        type            wedge;
    }
    wedge2
    {
        type            wedge;
    }
    axis
    {
        type            empty;
    }
    procBoundary14to8
    {
        type            processor;
        value           nonuniform List<vector> 
71
(
(2.1201 -0.268059 2.4534e-15)
(2.18889 -0.295592 2.33603e-15)
(2.26716 -0.320503 2.19669e-15)
(2.35471 -0.341948 2.06078e-15)
(2.45039 -0.355405 1.86151e-15)
(2.55095 -0.360248 1.69807e-15)
(1.65375 -0.00648152 1.34393e-15)
(1.65443 -0.00638886 1.37858e-15)
(1.65509 -0.00629851 1.43607e-15)
(1.65575 -0.00621053 1.60205e-15)
(1.65639 -0.00612504 1.72963e-15)
(1.65703 -0.00604215 1.71798e-15)
(1.65766 -0.00596202 1.77591e-15)
(1.65828 -0.00588484 1.84707e-15)
(1.65889 -0.00581083 1.78951e-15)
(1.65949 -0.00574026 1.84132e-15)
(1.66009 -0.00567347 1.81583e-15)
(1.66068 -0.00561084 1.85615e-15)
(1.66126 -0.00555285 1.78086e-15)
(1.66184 -0.00550004 1.77277e-15)
(1.66241 -0.00545308 1.86929e-15)
(1.66298 -0.00541276 1.86825e-15)
(1.66354 -0.00537999 1.87209e-15)
(1.6641 -0.00535588 1.88628e-15)
(1.66467 -0.00534173 1.86443e-15)
(1.66523 -0.00533907 1.76915e-15)
(1.66579 -0.0053497 1.7159e-15)
(1.66636 -0.00537578 1.79815e-15)
(1.66694 -0.0054198 1.88616e-15)
(1.66752 -0.00548476 1.86268e-15)
(1.66812 -0.00557415 1.81187e-15)
(1.66873 -0.00569212 1.82011e-15)
(1.66936 -0.00584352 1.90125e-15)
(1.67001 -0.00603409 1.82397e-15)
(1.67069 -0.00627059 2.05907e-15)
(1.67141 -0.00656099 2.16479e-15)
(1.67218 -0.00691464 2.20558e-15)
(1.67299 -0.00734258 2.11157e-15)
(1.67388 -0.00785777 2.17752e-15)
(1.67483 -0.00847548 2.14441e-15)
(1.67588 -0.00921366 2.08969e-15)
(1.67704 -0.0100934 2.14054e-15)
(1.67833 -0.0111394 2.08171e-15)
(1.67977 -0.0123809 2.12281e-15)
(1.6814 -0.0138518 2.10463e-15)
(1.68325 -0.0155923 2.09152e-15)
(1.68536 -0.0176491 2.07708e-15)
(1.68777 -0.0200769 2.07225e-15)
(1.69056 -0.0229398 2.0368e-15)
(1.69379 -0.0263122 1.97549e-15)
(1.69753 -0.0302808 2.02775e-15)
(1.7019 -0.0349461 1.94205e-15)
(1.70701 -0.0404244 1.88317e-15)
(1.71301 -0.0468493 1.90343e-15)
(1.72007 -0.054374 1.9327e-15)
(1.72841 -0.063172 1.8347e-15)
(1.73827 -0.0734389 1.86364e-15)
(1.74997 -0.0853914 1.80837e-15)
(1.76389 -0.0992652 1.68509e-15)
(1.7805 -0.11531 1.85025e-15)
(1.80034 -0.133776 1.87242e-15)
(1.82412 -0.154902 1.80708e-15)
(1.85264 -0.178873 1.77501e-15)
(1.8869 -0.205787 1.66138e-15)
(1.92802 -0.235551 1.53577e-15)
(1.97732 -0.26788 1.40774e-15)
(1.97732 -0.26788 1.40774e-15)
(2.65428 -0.353597 1.47172e-15)
(2.75445 -0.333554 1.23674e-15)
(2.8437 -0.303683 1.03261e-15)
(2.91863 -0.269048 8.8472e-16)
)
;
    }
    procBoundary14to9
    {
        type            processor;
        value           uniform (2.95799 -0.259656 -6.46377e-16);
    }
    procBoundary14to13
    {
        type            processor;
        value           nonuniform List<vector> 5((1.60343 -0.00650754 1.29268e-15) (1.54615 -0.00628593 1.24133e-15) (1.48081 -0.00592746 9.97619e-16) (1.40705 -0.00545279 6.78735e-16) (1.32463 -0.00488572 6.29739e-16));
    }
    procBoundary14to15
    {
        type            processor;
        value           nonuniform List<vector> 4((2.92087 -0.280241 -1.77933e-15) (2.83453 -0.285749 -2.65167e-15) (2.62557 -0.259175 -3.03575e-15) (2.1801 -0.177897 -2.67258e-15));
    }
    procBoundary14to20
    {
        type            processor;
        value           nonuniform List<vector> 
71
(
(1.31548 -0.137341 -2.12405e-15)
(1.31738 -0.163764 -2.14404e-15)
(1.32051 -0.195905 -2.19787e-15)
(1.32554 -0.235243 -2.31909e-15)
(1.33356 -0.283737 -2.41812e-15)
(1.3464 -0.344076 -2.65755e-15)
(1.36738 -0.419801 -2.8265e-15)
(1.4017 -0.516253 -3.02368e-15)
(1.46253 -0.637996 -3.30711e-15)
(1.55916 -0.798785 -3.53002e-15)
(1.74039 -0.95721 -3.65556e-15)
(1.9674 -1.22712 -3.36613e-15)
(1.23301 -0.00418909 2.08213e-16)
(1.23265 -0.00412748 1.37307e-16)
(1.23229 -0.00406761 -7.14977e-17)
(1.23194 -0.00400954 -1.42748e-16)
(1.23159 -0.00395334 -2.12482e-16)
(1.23125 -0.00389912 -1.65517e-16)
(1.23092 -0.003847 -1.69013e-16)
(1.23058 -0.00379712 -2.74987e-16)
(1.23025 -0.00374968 -2.71013e-16)
(1.22993 -0.00370489 -3.991e-16)
(1.22961 -0.00366302 -4.96593e-16)
(1.22929 -0.00362439 -6.2124e-16)
(1.22898 -0.00358936 -6.78034e-16)
(1.22867 -0.0035584 -6.79306e-16)
(1.22837 -0.00353204 -6.28064e-16)
(1.22807 -0.00351091 -7.50883e-16)
(1.22777 -0.00349577 -7.82772e-16)
(1.22747 -0.00348749 -9.16817e-16)
(1.22718 -0.00348715 -9.66645e-16)
(1.22689 -0.00349597 -1.11037e-15)
(1.2266 -0.00351544 -1.14645e-15)
(1.22631 -0.00354729 -1.16806e-15)
(1.22602 -0.00359356 -1.14068e-15)
(1.22573 -0.00365669 -1.19622e-15)
(1.22544 -0.00373952 -1.2205e-15)
(1.22515 -0.00384544 -1.34145e-15)
(1.22486 -0.00397843 -1.3883e-15)
(1.22456 -0.0041432 -1.50387e-15)
(1.22426 -0.00434529 -1.53299e-15)
(1.22395 -0.00459127 -1.56402e-15)
(1.22363 -0.00488888 -1.53389e-15)
(1.2233 -0.00524729 -1.51415e-15)
(1.22295 -0.00567731 -1.62067e-15)
(1.22259 -0.00619175 -1.60473e-15)
(1.22221 -0.00680574 -1.71075e-15)
(1.2218 -0.00753722 -1.69847e-15)
(1.22136 -0.0084074 -1.76223e-15)
(1.22089 -0.00944147 -1.79198e-15)
(1.22038 -0.0106693 -1.81663e-15)
(1.21982 -0.0121264 -1.85458e-15)
(1.2192 -0.0138549 -1.85385e-15)
(1.21851 -0.0159052 -1.88845e-15)
(1.21775 -0.0183372 -1.95591e-15)
(1.21689 -0.0212227 -1.96365e-15)
(1.21592 -0.0246478 -2.05827e-15)
(1.21483 -0.0287157 -2.14876e-15)
(1.2136 -0.0335511 -2.13533e-15)
(1.2122 -0.039305 -2.08988e-15)
(1.21061 -0.0461608 -2.19998e-15)
(1.20881 -0.0543428 -2.20595e-15)
(1.20677 -0.0641271 -2.30118e-15)
(1.20448 -0.0758555 -2.33864e-15)
(1.20191 -0.0899559 -2.47008e-15)
(1.31548 -0.137341 -2.12405e-15)
(1.19905 -0.106969 -2.55528e-15)
(2.1081 -0.737675 -2.81322e-15)
(1.91126 -0.419474 -2.49314e-15)
(1.6901 -0.227949 -2.16616e-15)
(1.5262 -0.112745 -1.90587e-15)
)
;
    }
}


// ************************************************************************* //
