2 	-3.93236 	-1.24028e-18 	1.11281 	0.00145747 	0
2 	-3.79943 	-3.9291e-18 	1.11348 	0.00435602 	0
2 	-3.67115 	-4.53626e-18 	1.11476 	0.00721851 	0
2 	-3.54734 	-6.87813e-18 	1.11659 	0.0100929 	0
2 	-3.42786 	-8.61286e-18 	1.11894 	0.0130075 	0
2 	-3.31256 	-9.9139e-18 	1.12176 	0.0159881 	0
2 	-3.20128 	-1.19088e-17 	1.12504 	0.0190549 	0
2 	-3.09388 	-1.32966e-17 	1.12873 	0.0222229 	0
2 	-2.99024 	-1.52915e-17 	1.13283 	0.0255037 	0
2 	-2.89021 	-1.72865e-17 	1.1373 	0.0289051 	0
2 	-2.79368 	-1.79804e-17 	1.14213 	0.0324318 	0
2 	-2.70052 	-1.79804e-17 	1.14731 	0.0360859 	0
2 	-2.61061 	-2.12763e-17 	1.15283 	0.0398673 	0
2 	-2.52385 	-2.39652e-17 	1.15865 	0.0437735 	0
2 	-2.44011 	-2.70877e-17 	1.16479 	0.0478002 	0
2 	-2.35929 	-3.15112e-17 	1.17121 	0.0519417 	0
2 	-2.2813 	-3.22051e-17 	1.17792 	0.0561907 	0
2 	-2.20604 	-3.22051e-17 	1.1849 	0.0605387 	0
2 	-2.1334 	-3.42e-17 	1.19216 	0.0649766 	0
2 	-2.06329 	-3.6195e-17 	1.19968 	0.0694942 	0
2 	-1.99564 	-3.6195e-17 	1.20747 	0.0740815 	0
2 	-1.93035 	-3.6195e-17 	1.21553 	0.0787281 	0
2 	-1.86734 	-3.6195e-17 	1.22386 	0.0834239 	0
2 	-1.80652 	-3.55878e-17 	1.23247 	0.0881585 	0
2 	-1.74784 	-3.49807e-17 	1.24134 	0.0929215 	0
2 	-1.6912 	-3.56745e-17 	1.25047 	0.0977014 	0
2 	-1.63654 	-3.70623e-17 	1.25984 	0.102486 	0
2 	-1.58379 	-3.84501e-17 	1.26942 	0.10726 	0
2 	-1.53288 	-3.9144e-17 	1.27919 	0.112012 	0
2 	-1.48375 	-3.9144e-17 	1.28913 	0.116727 	0
2 	-1.43633 	-3.98379e-17 	1.29922 	0.121393 	0
2 	-1.39057 	-4.05318e-17 	1.30943 	0.125998 	0
2 	-1.34641 	-4.25267e-17 	1.31972 	0.13053 	0
2 	-1.30379 	-4.52155e-17 	1.33003 	0.134973 	0
2 	-1.26266 	-4.59094e-17 	1.34026 	0.139308 	0
2 	-1.22296 	-4.48686e-17 	1.35023 	0.143518 	0
2 	-1.18466 	-4.38277e-17 	1.35972 	0.147585 	0
2 	-1.14768 	-4.38277e-17 	1.36843 	0.151326 	0
2 	-1.112 	-4.38277e-17 	1.37596 	0.154289 	0
2 	-1.07757 	-4.38277e-17 	1.38178 	0.157527 	0
2 	-1.03863 	-4.20514e-17 	1.38611 	0.170492 	1.28988e-20
2 	-1.01586 	-3.9958e-17 	1.38708 	0.19186 	-1.22355e-19
2 	-0.993217 	-4.09841e-17 	1.38875 	0.147914 	-7.00697e-20
2 	-0.948059 	-4.40032e-17 	1.37896 	0.161254 	-6.21757e-20
2 	-0.900995 	-4.85292e-17 	1.35921 	0.172184 	4.65951e-20
2 	-0.876272 	-5.07208e-17 	1.32799 	0.18033 	1.62997e-20
2 	-0.851886 	-4.48071e-17 	1.3031 	0.125315 	6.99723e-20
2 	-0.803473 	-3.76615e-17 	1.25078 	0.123656 	-1.2258e-20
2 	-0.753096 	-3.74524e-17 	1.18751 	0.116703 	-2.04011e-20
2 	-0.71814 	-3.83767e-17 	1.11696 	0.104705 	-8.35133e-20
2 	-0.692197 	-3.7545e-17 	1.06291 	0.0423808 	1.41739e-19
2 	-0.649352 	-3.747e-17 	0.9848 	0.0221203 	-2.84046e-20
2 	-0.596093 	-3.59978e-17 	0.908996 	-0.000379025 	-7.78969e-20
2 	-0.541991 	-3.50827e-17 	0.835708 	-0.0251755 	1.13061e-19
2 	-0.502352 	-3.52256e-17 	0.762962 	-0.052001 	-5.94693e-20
2 	-0.474727 	-3.50998e-17 	0.700141 	-0.116981 	9.20566e-20
2 	-0.431525 	-3.67761e-17 	0.623449 	-0.14921 	5.40394e-20
2 	-0.375304 	-3.95517e-17 	0.542567 	-0.184306 	4.84378e-20
2 	-0.318526 	-3.87104e-17 	0.457491 	-0.222619 	4.23872e-21
2 	-0.261272 	-3.63218e-17 	0.369643 	-0.264088 	3.42063e-20
2 	-0.203624 	-3.69048e-17 	0.281453 	-0.308264 	-9.67422e-22
2 	-0.145668 	-3.87722e-17 	0.196109 	-0.354272 	-5.64007e-20
2 	-0.0874897 	-3.70676e-17 	0.117317 	-0.400909 	-5.08455e-21
2 	-0.0291781 	-3.87305e-17 	0.0491533 	-0.446734 	-4.3504e-21
2 	0.0291781 	-4.8098e-17 	-0.0041488 	-0.489657 	4.25464e-21
2 	0.0874897 	-4.85168e-17 	-0.0385204 	-0.526907 	3.0946e-21
2 	0.145668 	-4.38029e-17 	-0.0497805 	-0.555638 	4.22575e-20
2 	0.203624 	-4.08946e-17 	-0.0345117 	-0.572922 	8.5028e-22
2 	0.261272 	-4.15259e-17 	0.00886052 	-0.576671 	-2.74451e-20
2 	0.318526 	-4.21799e-17 	0.0791467 	-0.566526 	-2.71194e-21
2 	0.375304 	-3.7817e-17 	0.171425 	-0.543255 	-2.19984e-20
2 	0.431525 	-3.46945e-17 	0.278054 	-0.511305 	-2.37903e-20
2 	0.474727 	-3.39422e-17 	0.390581 	-0.47653 	-3.39536e-20
2 	0.502352 	-3.37209e-17 	0.326471 	-0.455086 	1.30499e-20
2 	0.541991 	-3.71644e-17 	0.436702 	-0.418847 	-3.14951e-20
2 	0.596093 	-4.32836e-17 	0.542589 	-0.384384 	1.96442e-20
2 	0.649352 	-4.85723e-17 	0.639506 	-0.353687 	8.38753e-21
2 	0.692197 	-5.188e-17 	0.725343 	-0.327023 	1.72964e-20
2 	0.71814 	-5.30587e-17 	0.665473 	-0.294577 	8.3585e-21
2 	0.753096 	-5.38455e-17 	0.744534 	-0.271024 	-1.29656e-21
2 	0.803473 	-5.30138e-17 	0.811852 	-0.251619 	1.41611e-20
2 	0.851886 	-5.30313e-17 	0.868403 	-0.235427 	-9.46593e-21
2 	0.876272 	-5.3047e-17 	0.820919 	-0.200643 	4.65536e-21
2 	0.900995 	-5.11313e-17 	0.872409 	-0.188944 	-6.11222e-21
2 	0.948059 	-5.04217e-17 	0.915294 	-0.17948 	1.40002e-20
2 	0.993217 	-5.19971e-17 	0.951304 	-0.172854 	-1.2148e-20
2 	1.01586 	-5.37466e-17 	0.916527 	-0.139965 	-6.69083e-21
2 	1.03863 	-5.34138e-17 	0.950423 	-0.138638 	4.43647e-22
2 	1.07757 	-5.19809e-17 	0.973037 	-0.12284 	0
2 	1.112 	-5.19809e-17 	0.987761 	-0.112846 	0
2 	1.14768 	-5.19809e-17 	1.00058 	-0.103858 	0
2 	1.18466 	-5.19809e-17 	1.01188 	-0.0952064 	0
2 	1.22296 	-5.19809e-17 	1.022 	-0.0869411 	0
2 	1.26266 	-5.06799e-17 	1.03121 	-0.0791139 	0
2 	1.30379 	-4.87717e-17 	1.03971 	-0.0717118 	0
2 	1.34641 	-4.88584e-17 	1.04763 	-0.0647172 	0
2 	1.39057 	-4.95523e-17 	1.05504 	-0.0581208 	0
2 	1.43633 	-5.02462e-17 	1.06198 	-0.0519173 	0
2 	1.48375 	-5.09401e-17 	1.06847 	-0.0461035 	0
2 	1.53288 	-5.22412e-17 	1.0745 	-0.0406773 	0
2 	1.58379 	-5.2935e-17 	1.08008 	-0.0356362 	0
2 	1.63654 	-5.30218e-17 	1.0852 	-0.0309764 	0
2 	1.6912 	-5.57106e-17 	1.08988 	-0.0266912 	0
2 	1.74784 	-5.77055e-17 	1.09412 	-0.0227716 	0
2 	1.80652 	-5.83994e-17 	1.09793 	-0.0192065 	0
2 	1.86734 	-5.77923e-17 	1.10133 	-0.0159829 	0
2 	1.93035 	-5.64912e-17 	1.10431 	-0.013086 	0
2 	1.99564 	-5.64912e-17 	1.1069 	-0.0105008 	0
2 	2.06329 	-5.47565e-17 	1.10908 	-0.00821128 	0
2 	2.1334 	-5.30218e-17 	1.11088 	-0.00620139 	0
2 	2.20604 	-5.17207e-17 	1.11228 	-0.00445778 	0
2 	2.2813 	-5.04197e-17 	1.11331 	-0.0029605 	0
2 	2.35929 	-5.04197e-17 	1.11399 	-0.00169334 	0
2 	2.44011 	-5.04197e-17 	1.11434 	-0.000641467 	0
2 	2.52385 	-5.17207e-17 	1.11439 	0.000215405 	0
2 	2.61061 	-5.17207e-17 	1.11417 	0.000892879 	0
2 	2.70052 	-5.04197e-17 	1.11372 	0.00140654 	0
2 	2.79368 	-5.04197e-17 	1.11308 	0.00177296 	0
2 	2.89021 	-5.11136e-17 	1.11229 	0.00200723 	0
2 	2.99024 	-5.12003e-17 	1.11138 	0.00212347 	0
2 	3.09388 	-5.05932e-17 	1.1104 	0.00213494 	0
2 	3.20128 	-5.05932e-17 	1.10939 	0.00205399 	0
2 	3.31256 	-5.05932e-17 	1.10841 	0.001892 	0
2 	3.42786 	-5.05932e-17 	1.10748 	0.00165945 	0
2 	3.54734 	-5.12871e-17 	1.10666 	0.00136647 	0
2 	3.67115 	-5.26748e-17 	1.10598 	0.00102242 	0
2 	3.79943 	-5.33687e-17 	1.10549 	0.000634396 	0
2 	3.93236 	-5.3603e-17 	1.10523 	0.000218743 	0
