/*--------------------------------*- C++ -*----------------------------------*\
  =========                 |
  \\      /  F ield         | OpenFOAM: The Open Source CFD Toolbox
   \\    /   O peration     | Website:  https://openfoam.org
    \\  /    A nd           | Version:  7
     \\/     M anipulation  |
\*---------------------------------------------------------------------------*/
FoamFile
{
    version     2.0;
    format      ascii;
    class       surfaceScalarField;
    location    "82";
    object      phi;
}
// * * * * * * * * * * * * * * * * * * * * * * * * * * * * * * * * * * * * * //

dimensions      [0 3 -1 0 0 0 0];

internalField   nonuniform List<scalar> 
24510
(
-4.15496e-06
4.97612e-06
-8.21168e-07
-1.55685e-05
1.04222e-05
9.91388e-07
-3.38382e-05
1.21193e-05
6.1504e-06
-5.85595e-05
1.02868e-05
1.44344e-05
-8.93272e-05
5.27856e-06
2.54891e-05
-0.00012576
-2.53131e-06
3.89637e-05
-0.000167519
-1.28932e-05
5.46525e-05
-0.000214328
-2.58297e-05
7.26385e-05
-0.000265978
-4.17475e-05
9.33982e-05
-0.00032233
-6.14834e-05
0.000117835
-0.000383287
-8.62794e-05
0.000147236
-0.000448761
-0.000117707
0.000183181
-0.000518615
-0.00015757
0.000227424
-0.000592583
-0.000207809
0.000281777
-0.000670202
-0.00027036
0.000347979
-0.000750767
-0.000346919
0.000427485
-0.000833396
-0.000438473
0.000521102
-0.000917413
-0.000544448
0.000628465
-0.00100274
-0.000662048
0.000747374
-0.000784251
0.000872415
-0.0010909
-4.1709e-06
9.14703e-06
-1.56385e-05
2.18898e-05
-3.40056e-05
3.04864e-05
-5.88682e-05
3.51494e-05
-8.9818e-05
3.62283e-05
-0.000126468
3.41188e-05
-0.000168477
2.91162e-05
-0.000215571
2.1264e-05
-0.000267553
1.02344e-05
-0.000324305
-4.73103e-06
-0.00038577
-2.48146e-05
-0.000451909
-5.15676e-05
-0.000522643
-8.68358e-05
-0.000597771
-0.000132682
-0.000676882
-0.000191249
-0.000759283
-0.000264518
-0.000843996
-0.00035376
-0.00093011
-0.000458333
-0.00101732
-0.000574839
-0.00069617
-0.0011054
-4.10024e-06
1.32473e-05
-1.53979e-05
3.31874e-05
-3.35147e-05
4.86032e-05
-5.80533e-05
5.96881e-05
-8.86004e-05
6.67755e-05
-0.000124755
7.02732e-05
-0.000166154
7.05154e-05
-0.000212498
6.7608e-05
-0.000263566
6.13018e-05
-0.000319215
5.09182e-05
-0.000379367
3.53376e-05
-0.000443964
1.30296e-05
-0.00051291
-1.78903e-05
-0.000585968
-5.9623e-05
-0.000662683
-0.000114535
-0.000742231
-0.000184969
-0.00082332
-0.000272671
-0.000904433
-0.000377221
-0.000984869
-0.000494403
-0.000620513
-0.00106053
-3.94503e-06
1.71923e-05
-1.48526e-05
4.4095e-05
-3.23757e-05
6.61263e-05
-5.61283e-05
8.34407e-05
-8.56899e-05
9.63371e-05
-0.000120634
0.000105217
-0.000160558
0.000110439
-0.000205106
0.000112157
-0.000253992
0.000110188
-0.000306999
0.000103925
-0.000363961
9.22993e-05
-0.000424725
7.37934e-05
-0.000489082
4.64673e-05
-0.000556659
7.95393e-06
-0.000626838
-4.43563e-05
-0.000698541
-0.000113266
-0.000770001
-0.000201212
-0.000838703
-0.000308518
-0.000903863
-0.000429243
-0.000569595
-0.000954781
-3.71143e-06
2.09037e-05
-1.40224e-05
5.44059e-05
-3.06257e-05
8.27296e-05
-5.3149e-05
0.000105964
-8.11599e-05
0.000124348
-0.000114195
0.000138252
-0.000151789
0.000148033
-0.000193502
0.000153869
-0.000238936
0.000155623
-0.000287742
0.00015273
-0.000339593
0.00014415
-0.000394148
0.000128348
-0.000450973
0.000103293
-0.000509467
6.64478e-05
-0.000568639
1.48162e-05
-0.00062707
-5.48353e-05
-0.00068241
-0.000145872
-0.000730659
-0.000260269
-0.000771933
-0.00038797
-0.00055581
-0.000785718
-3.40939e-06
2.43131e-05
-1.29393e-05
6.39358e-05
-2.83261e-05
9.81165e-05
-4.92095e-05
0.000126847
-7.51381e-05
0.000150277
-0.000105597
0.000168711
-0.000140035
0.000182471
-0.000177893
0.000191727
-0.000218616
0.000196347
-0.000261657
0.000195771
-0.000306448
0.000188941
-0.00035235
0.00017425
-0.000398579
0.000149522
-0.000444101
0.000111969
-0.000487463
5.81784e-05
-0.000526597
-1.57008e-05
-0.000558606
-0.000113863
-0.000577229
-0.000241646
-0.000585246
-0.000379953
-0.000591644
-0.000549412
-3.05209e-06
2.73652e-05
-1.16461e-05
7.25298e-05
-2.55599e-05
0.00011203
-4.44381e-05
0.000145726
-6.77992e-05
0.000173638
-9.50591e-05
0.000195971
-0.000125557
0.000212969
-0.000158576
0.000224746
-0.000193354
0.000231125
-0.000229077
0.000231494
-0.000264839
0.000224703
-0.000299585
0.000208997
-0.000332019
0.000181956
-0.00036048
0.000140431
-0.000382776
8.04742e-05
-0.000395939
-2.53802e-06
-0.000396559
-0.000113242
-0.000374899
-0.000263306
-0.000337796
-0.000417056
-0.000687615
-0.000241825
-2.65517e-06
3.00204e-05
-1.01942e-05
8.00689e-05
-2.24263e-05
0.000124262
-3.8989e-05
0.000162288
-5.9355e-05
0.000194004
-8.28506e-05
0.000219467
-0.000108676
0.000238794
-0.000135918
0.000251988
-0.000163552
0.000258759
-0.00019042
0.000258362
-0.000215179
0.000249462
-0.000236218
0.000230036
-0.000251545
0.000197283
-0.000258641
0.000147527
-0.00025426
7.60931e-05
-0.00023413
-2.26685e-05
-0.000194311
-0.000153061
-0.000122959
-0.000334659
-1.23546e-05
-0.00052766
-0.000843648
0.000143679
-2.23586e-06
3.22562e-05
-8.64003e-06
8.6473e-05
-1.90355e-05
0.000134658
-3.3034e-05
0.000176287
-5.00418e-05
0.000211012
-6.92708e-05
0.000238696
-8.97499e-05
0.000259273
-0.000110327
0.000272565
-0.000129656
0.000278088
-0.000146154
0.00027486
-0.000157928
0.000261236
-0.000162664
0.000234772
-0.000157476
0.000192094
-0.000138725
0.000128776
-0.000101885
3.92529e-05
-4.10244e-05
-8.35289e-05
5.12483e-05
-0.000245334
0.000183574
-0.000466984
0.000358532
-0.000702619
-0.00110799
0.000622878
-1.81184e-06
3.40681e-05
-7.04175e-06
9.17029e-05
-1.5501e-05
0.000143117
-2.67504e-05
0.000187536
-4.01034e-05
0.000224364
-5.46282e-05
0.00025322
-6.91464e-05
0.000273791
-8.22193e-05
0.000285638
-9.21129e-05
0.000287982
-9.6732e-05
0.000279479
-9.35155e-05
0.000258019
-7.9287e-05
0.000220543
-5.00711e-05
0.000162878
-8.81753e-07
7.95871e-05
7.45735e-05
-3.62024e-05
0.000184247
-0.000193202
0.000335735
-0.000396822
0.000546485
-0.000677734
0.000806715
-0.000962849
-0.00148428
0.001183
-1.40012e-06
3.54682e-05
-5.45521e-06
9.5758e-05
-1.19317e-05
0.000149593
-2.03077e-05
0.000195912
-2.9772e-05
0.000233829
-3.92139e-05
0.000262662
-4.72057e-05
0.000281783
-5.19672e-05
0.0002904
-5.13049e-05
0.00028732
-4.25143e-05
0.000270688
-2.22378e-05
0.000237743
1.37241e-05
0.000184581
7.06628e-05
0.00010594
0.00015519
-4.94051e-06
0.000275336
-0.000156348
0.000441323
-0.000359189
0.000663224
-0.000618722
0.000959331
-0.000973842
0.00132006
-0.00132358
-0.0019808
0.00181658
-1.01575e-06
3.6484e-05
-3.92954e-06
9.86718e-05
-8.42276e-06
0.000154087
-1.38531e-05
0.000201343
-1.92462e-05
0.000239222
-2.32708e-05
0.000266687
-2.41997e-05
0.000282712
-1.98485e-05
0.000286049
-7.4813e-06
0.000274952
1.63255e-05
0.000246881
5.58672e-05
0.000198201
0.00011654
0.000123908
0.000205105
1.7375e-05
0.000329953
-0.000129788
0.000501129
-0.000327525
0.000730467
-0.000588527
0.00103139
-0.000919643
0.00141885
-0.0013613
0.00188728
-0.00179201
-0.00259515
0.00250162
-6.70526e-07
3.71545e-05
-2.50269e-06
0.000100504
-5.04645e-06
0.00015663
-7.49538e-06
0.000203792
-8.66695e-06
0.000240393
-6.95917e-06
0.000264979
-2.86312e-07
0.000276039
1.40163e-05
0.000271746
3.93245e-05
0.000249644
7.99032e-05
0.000206303
0.000141132
0.000136973
0.000229764
3.52757e-05
0.000354185
-0.000107046
0.000524617
-0.00030022
0.000753039
-0.000555946
0.00105194
-0.000887431
0.00143754
-0.00130523
0.00191793
-0.0018417
0.0024926
-0.00236668
-0.00330759
0.00320504
-3.7175e-07
3.75262e-05
-1.19741e-06
0.00010133
-1.84246e-06
0.000157275
-1.28869e-06
0.000203238
1.90717e-06
0.000237198
9.67663e-06
0.00025721
2.45377e-05
0.000261178
4.97251e-05
0.000246559
8.93673e-05
0.000210002
0.000148708
0.000146962
0.000234361
5.13196e-05
0.000354571
-8.49347e-05
0.000519397
-0.000271871
0.000740706
-0.00052153
0.00103193
-0.000847172
0.00140506
-0.00126056
0.00187598
-0.00177616
0.00244406
-0.00240978
0.00311311
-0.00303572
-0.00407965
0.00388517
-1.21294e-07
3.76475e-05
-1.05142e-08
0.000101219
1.18958e-06
0.000156075
4.77778e-06
0.00019965
1.2517e-05
0.000229458
2.67389e-05
0.000242988
5.04776e-05
0.000237439
8.76451e-05
0.000209391
0.000143252
0.000154395
0.000223662
6.65523e-05
0.000336853
-6.18712e-05
0.000492613
-0.000240695
0.000702536
-0.000481794
0.000979591
-0.000798585
0.00133739
-0.00120497
0.00178615
-0.00170932
0.00233607
-0.00232608
0.00297709
-0.0030508
0.00371541
-0.00377405
-0.00486599
0.00450175
8.56248e-08
3.75619e-05
1.05997e-06
0.000100245
4.09156e-06
0.000153044
1.07961e-05
0.000192945
2.33271e-05
0.000216927
4.45002e-05
0.000221814
7.79684e-05
0.000203971
0.000128443
0.000158916
0.000201951
8.08867e-05
0.000306104
-3.76001e-05
0.000450302
-0.000206069
0.000645762
-0.000436156
0.000905148
-0.00074118
0.00124147
-0.00113491
0.0016663
-0.00162979
0.00218621
-0.00222923
0.00280027
-0.00294014
0.00348943
-0.00373996
0.00425744
-0.00454205
-0.00561901
0.00501046
2.5815e-07
3.73038e-05
2.07327e-06
9.84294e-05
6.96339e-06
0.000148154
1.69408e-05
0.000182968
3.4625e-05
0.000199243
6.34094e-05
0.00019303
0.00010768
0.000159701
0.000173075
9.35216e-05
0.000266762
-1.28006e-05
0.000397667
-0.000168505
0.000576531
-0.000384933
0.000815598
-0.000675222
0.00112763
-0.00105322
0.00152399
-0.00153127
0.00201132
-0.00211712
0.00258965
-0.00280757
0.00324405
-0.00359454
0.00394871
-0.00444462
0.00469911
-0.00529246
-0.00630145
0.00538155
4.16767e-07
3.6887e-05
3.08826e-06
9.57579e-05
9.94604e-06
0.000141296
2.34658e-05
0.000169448
4.68186e-05
0.00017589
8.40792e-05
0.000155769
0.000140485
0.000103295
0.000222722
1.12851e-05
0.000339174
-0.000129253
0.000500028
-0.00032936
0.000717038
-0.000601943
0.00100265
-0.000960833
0.00136816
-0.00141873
0.00182087
-0.00198397
0.00235973
-0.00265598
0.0029751
-0.00342293
0.00363925
-0.00425869
0.00432384
-0.0051292
0.00501339
-0.00598201
-0.00689517
0.00560712
5.83897e-07
3.63031e-05
4.19003e-06
9.21518e-05
1.32227e-05
0.000132263
3.06928e-05
0.000151978
6.04133e-05
0.00014617
0.000107247
0.000108936
0.000177394
3.31473e-05
0.000278667
-8.99878e-05
0.000420644
-0.000271229
0.00061452
-0.000523236
0.000872373
-0.000859796
0.0012055
-0.00129396
0.00162162
-0.00183484
0.00212125
-0.00248361
0.00269379
-0.00322852
0.0033186
-0.00404774
0.00396051
-0.00490061
0.00459318
-0.00576187
0.00519369
-0.00658253
-0.00739939
0.00569791
7.87371e-07
3.55157e-05
5.47796e-06
8.74612e-05
1.70055e-05
0.000120736
3.89892e-05
0.000129994
7.59742e-05
0.000109185
0.00013371
5.12e-05
0.000219439
-5.25818e-05
0.000342102
-0.000212651
0.000512285
-0.000441412
0.000741645
-0.000752596
0.00104146
-0.00115961
0.00142004
-0.00167254
0.00187912
-0.00229392
0.0024103
-0.00301479
0.00299324
-0.00381146
0.00359858
-0.00465308
0.0041916
-0.00549363
0.00475055
-0.00632081
0.00525064
-0.00708262
-0.00783424
0.00568549
1.05721e-06
3.44585e-05
7.05828e-06
8.14601e-05
2.15192e-05
0.000106275
4.87374e-05
0.000102776
9.4072e-05
6.38503e-05
0.000164233
-1.89612e-05
0.000267525
-0.000155874
0.000413892
-0.000359017
0.000614509
-0.000642029
0.000880584
-0.00101867
0.00122104
-0.00150007
0.00163908
-0.00209058
0.00212844
-0.00278328
0.00267121
-0.00355757
0.0032395
-0.00437975
0.00380086
-0.00521443
0.0043281
-0.00602088
0.00480628
-0.00679899
0.00522206
-0.00749841
-0.00821699
0.00560481
1.42315e-06
3.30354e-05
9.03539e-06
7.38479e-05
2.69812e-05
8.83289e-05
6.02979e-05
6.94593e-05
0.000115221
8.92699e-06
0.00019945
-0.00010319
0.000322273
-0.000278697
0.00049433
-0.000531075
0.000726682
-0.000874381
0.00102881
-0.0013208
0.00140545
-0.00187671
0.00185277
-0.00253791
0.00235568
-0.00328619
0.0028884
-0.00409029
0.00341992
-0.00491126
0.00392135
-0.00571587
0.0043763
-0.00647582
0.00477702
-0.00719971
0.0051381
-0.00785949
-0.00855466
0.00547577
1.91219e-06
3.11232e-05
1.15029e-05
6.42572e-05
3.35821e-05
6.62497e-05
7.39728e-05
2.90686e-05
0.000139816
-5.69162e-05
0.000239756
-0.00020313
0.000383854
-0.000422795
0.00058292
-0.000730141
0.000846887
-0.00113835
0.00118197
-0.00165588
0.00158692
-0.00228166
0.00204983
-0.00300081
0.00254772
-0.00378408
0.00305072
-0.00459328
0.00353002
-0.00539057
0.00396521
-0.00615106
0.00435042
-0.00686103
0.00468922
-0.00753851
0.0049995
-0.00816977
-0.00884681
0.00529165
2.54656e-06
2.85766e-05
1.4536e-05
5.22677e-05
4.14677e-05
3.93179e-05
8.99718e-05
-1.94355e-05
0.000168072
-0.000135017
0.00028522
-0.000320277
0.000451868
-0.000589443
0.000678229
-0.000956502
0.000971845
-0.00143196
0.00133406
-0.0020181
0.00175644
-0.00270404
0.00221932
-0.00346369
0.0026947
-0.00425947
0.00315333
-0.00505191
0.00357307
-0.0058103
0.00394361
-0.0065216
0.00426855
-0.00718596
0.00455742
-0.00782739
0.00482926
-0.0084416
-0.00911188
0.00509433
3.34232e-06
2.52343e-05
1.81859e-05
3.74242e-05
5.0726e-05
6.77775e-06
0.000108387
-7.70963e-05
0.000199986
-0.000226616
0.000335519
-0.000455811
0.000525271
-0.000779196
0.000777862
-0.00120909
0.00109707
-0.00175117
0.00147808
-0.00239911
0.00190506
-0.00313102
0.00235258
-0.00391121
0.00279159
-0.00469848
0.0031977
-0.00545802
0.00355763
-0.00617023
0.00387045
-0.00683442
0.00414592
-0.00746143
0.00439639
-0.00807785
0.00463957
-0.00868479
-0.00935371
0.0048814
4.30883e-06
2.09255e-05
2.24769e-05
1.92561e-05
6.13794e-05
-3.21248e-05
0.000129176
-0.000144893
0.000235305
-0.000332745
0.000389911
-0.000610417
0.000602365
-0.00099165
0.000878561
-0.00148529
0.00121725
-0.00208986
0.00160687
-0.00278872
0.00202531
-0.00354947
0.00244452
-0.00433041
0.00283836
-0.00509232
0.00318992
-0.00580958
0.00349475
-0.00647506
0.00375889
-0.00709857
0.00399522
-0.00769776
0.00421615
-0.00829879
0.00443652
-0.00890516
-0.0095766
0.00465942
5.44897e-06
1.54765e-05
2.74061e-05
-2.701e-06
7.33818e-05
-7.81005e-05
0.000152158
-0.000223668
0.000273524
-0.000454111
0.000447239
-0.000784132
0.000680869
-0.00122528
0.000976447
-0.00178087
0.00132685
-0.00244027
0.00171414
-0.00317601
0.00211223
-0.00394756
0.00249394
-0.00471213
0.00283896
-0.00543734
0.00313855
-0.00610917
0.00339549
-0.00673201
0.00362004
-0.00732311
0.00382563
-0.00790335
0.00402327
-0.00849643
0.00422473
-0.00910661
-0.00978259
0.00443071
6.75969e-06
8.7168e-06
3.29441e-05
-2.88854e-05
8.66194e-05
-0.000131776
0.000177012
-0.000314061
0.000313893
-0.000590993
0.000505973
-0.000976211
0.000758057
-0.00147736
0.00106738
-0.00209019
0.00142075
-0.00279364
0.00179527
-0.00355053
0.00216379
-0.00431608
0.00250301
-0.00505135
0.00279977
-0.0057341
0.0030527
-0.0063621
0.00326957
-0.00694888
0.00346238
-0.00751591
0.00364353
-0.00808451
0.00382198
-0.00867488
0.00400663
-0.00929126
-0.00997251
0.00419655
8.23248e-06
4.84317e-07
3.90364e-05
-5.96893e-05
0.000100913
-0.000193653
0.000203287
-0.000416434
0.000355441
-0.000743147
0.000564287
-0.00118506
0.000830969
-0.00174405
0.00114737
-0.00240658
0.00149487
-0.00314114
0.00184778
-0.00390344
0.00218073
-0.00464903
0.00247617
-0.00534679
0.00272808
-0.00598601
0.00294077
-0.0065748
0.00312477
-0.00713287
0.00329204
-0.00768318
0.00345312
-0.0082456
0.00361486
-0.00883662
0.00378376
-0.00946016
-0.0101468
0.00395801
9.85338e-06
-9.36907e-06
4.56046e-05
-9.54405e-05
0.000116024
-0.000264072
0.000230412
-0.000530823
0.000397016
-0.000909751
0.000620172
-0.00140821
0.000896659
-0.00202053
0.00121302
-0.00272294
0.00154657
-0.0034747
0.0018713
-0.00422817
0.00216582
-0.00494354
0.00241901
-0.00559999
0.00263098
-0.00619797
0.00280981
-0.00675363
0.00296695
-0.00729001
0.00311323
-0.00782946
0.00325709
-0.00838945
0.00340349
-0.00898302
0.00355713
-0.0096138
-0.0103054
0.00371574
1.16049e-05
-2.09739e-05
5.25476e-05
-0.000136383
0.000131653
-0.000343178
0.000257716
-0.000656885
0.000437338
-0.00108937
0.000671577
-0.00164245
0.000952462
-0.00230142
0.00126182
-0.0030323
0.00157479
-0.00378767
0.00186726
-0.00452064
0.0021231
-0.00519937
0.00233735
-0.00581424
0.00251474
-0.00637536
0.00266537
-0.00690426
0.00280033
-0.00742497
0.00292878
-0.00795791
0.00305714
-0.00851781
0.00318892
-0.00911479
0.00332742
-0.00975231
-0.0104482
0.00347029
1.34626e-05
-3.44366e-05
5.97413e-05
-0.000182662
0.000147453
-0.000430889
0.000284447
-0.000793879
0.000475072
-0.00128
0.000716556
-0.00188394
0.000996227
-0.00258109
0.00129237
-0.00332844
0.00157991
-0.00407521
0.00183832
-0.00477905
0.00205714
-0.00541819
0.00223662
-0.00599372
0.00238454
-0.00652328
0.00251164
-0.00703136
0.00262786
-0.00754119
0.00274054
-0.0080706
0.00285441
-0.00863167
0.00297185
-0.00923223
0.00309519
-0.00987565
-0.0105752
0.00322216
1.53972e-05
-4.98338e-05
6.70407e-05
-0.000234305
0.000163034
-0.000526883
0.000309811
-0.000940656
0.000508911
-0.0014791
0.000753426
-0.00212845
0.00102648
-0.00285415
0.00130431
-0.00360626
0.00156341
-0.00433432
0.00178784
-0.00500348
0.00197245
-0.00560281
0.00212151
-0.00614278
0.00224447
-0.00664624
0.00235166
-0.00713856
0.00245154
-0.00764106
0.00254974
-0.00816881
0.00264963
-0.00873156
0.00275281
-0.00933541
0.00286089
-0.00998372
-0.0106861
0.00297181
1.73736e-05
-6.72074e-05
7.42821e-05
-0.000291214
0.000177977
-0.000630578
0.000333007
-0.00109569
0.000537658
-0.00168375
0.000780887
-0.00237168
0.0010425
-0.00311576
0.00129824
-0.00386201
0.00152757
-0.00456364
0.0017194
-0.00519531
0.00187318
-0.00575659
0.00199591
-0.00626551
0.0020976
-0.00674793
0.0021876
-0.00722855
0.00227273
-0.0077262
0.00235722
-0.0082533
0.00244337
-0.00881771
0.00253225
-0.00942429
0.00262496
-0.0100764
-0.0107808
0.00271967
1.93515e-05
-8.65589e-05
8.12883e-05
-0.000353151
0.000191854
-0.000741144
0.000353277
-0.00125711
0.000560313
-0.00189078
0.0007981
-0.00260947
0.00104426
-0.00336192
0.00127549
-0.00409324
0.00147503
-0.00476318
0.00163648
-0.00535676
0.00176291
-0.00588302
0.00186291
-0.00636551
0.00194625
-0.00683127
0.00202097
-0.00730327
0.0020924
-0.00779763
0.00216359
-0.00832449
0.00223607
-0.00889019
0.00231058
-0.0094988
0.0023878
-0.0101536
-0.0108592
0.00246616
2.12865e-05
-0.000107845
8.78749e-05
-0.000419739
0.000204246
-0.000857516
0.000369946
-0.00142281
0.000576127
-0.00209697
0.000804707
-0.00283805
0.00103234
-0.00358955
0.00123784
-0.00429874
0.00140856
-0.0049339
0.00154225
-0.00549045
0.0016446
-0.00598538
0.00172489
-0.0064458
0.00179209
-0.00689847
0.00185284
-0.00736402
0.0019112
-0.00785599
0.00196929
-0.00838258
0.00202812
-0.00894903
0.00208816
-0.00955883
0.0021498
-0.0102153
-0.0109211
0.0022117
2.31315e-05
-0.000130977
9.3858e-05
-0.000490466
0.000214767
-0.000978424
0.000382462
-0.0015905
0.000584641
-0.00229914
0.0008008
-0.00305421
0.00100778
-0.00379653
0.00118731
-0.00447827
0.00133082
-0.00507741
0.00143947
-0.0055991
0.00152067
-0.00606657
0.00158364
-0.00650877
0.00163631
-0.00695113
0.00168399
-0.0074117
0.00172965
-0.00790164
0.00177473
-0.00842766
0.00181986
-0.00899416
0.00186535
-0.00960432
0.00191136
-0.0102613
-0.0109665
0.00195672
2.48386e-05
-0.000155815
9.90628e-05
-0.00056469
0.000223079
-0.00110244
0.000390427
-0.00175785
0.000585692
-0.00249441
0.000786853
-0.00325537
0.000971941
-0.00398162
0.00112601
-0.00463234
0.00124425
-0.00519565
0.00133046
-0.00568532
0.00139298
-0.00612909
0.00144052
-0.00655632
0.00147981
-0.00699042
0.00151497
-0.00744687
0.00154813
-0.0079348
0.00158023
-0.00845975
0.00161163
-0.00902557
0.0016425
-0.00963519
0.00167284
-0.0102916
-0.0109952
0.00170161
2.63613e-05
-0.000182177
0.000103332
-0.000641661
0.000228918
-0.00122803
0.000393608
-0.00192254
0.000579388
-0.00268019
0.000763631
-0.00343961
0.000926312
-0.0041443
0.00105594
-0.00476197
0.00115098
-0.00529068
0.00121713
-0.00575147
0.001263
-0.00617496
0.00129652
-0.00658984
0.00132323
-0.00701713
0.00134623
-0.00746987
0.001367
-0.00795557
0.00138611
-0.00847886
0.00140374
-0.0090432
0.00141996
-0.0096514
0.00143461
-0.0103063
-0.0110074
0.00144679
2.7656e-05
-0.000209833
0.000106533
-0.000720538
0.000232096
-0.00135359
0.000391939
-0.00208238
0.000566071
-0.00285432
0.000732095
-0.00360563
0.000872441
-0.00428464
0.000978967
-0.00486849
0.00105284
-0.00536455
0.00110099
-0.00579962
0.00113185
-0.00620583
0.00115239
-0.00661038
0.00116706
-0.00703179
0.00117812
-0.00748094
0.00118655
-0.007964
0.00119266
-0.00848497
0.00119651
-0.00904704
0.00119806
-0.00965295
0.00119704
-0.0103053
-0.011003
0.00119265
2.86844e-05
-0.000238517
0.000108563
-0.000800416
0.000232511
-0.00147754
0.00038551
-0.00223538
0.000546263
-0.00301508
0.000693314
-0.00375269
0.00081183
-0.00440316
0.000896748
-0.00495341
0.000951351
-0.00541915
0.00098325
-0.00583152
0.00100039
-0.00622296
0.00100871
-0.0066187
0.00101169
-0.00703478
0.00101095
-0.0074802
0.00100707
-0.00796012
0.00100017
-0.00847808
0.000990225
-0.00903709
0.000977116
-0.00963985
0.000960497
-0.0102887
-0.0109821
0.000939593
2.94148e-05
-0.000267932
0.000109352
-0.000880353
0.000230142
-0.00159833
0.00037454
-0.00237978
0.000520608
-0.00316114
0.000648393
-0.00388047
0.00074588
-0.00450065
0.00081072
-0.00501825
0.000847771
-0.0054562
0.000864867
-0.00584861
0.000869255
-0.00622735
0.000865894
-0.00661534
0.000857434
-0.00702632
0.000844968
-0.00746773
0.000828803
-0.00794395
0.000808921
-0.0084582
0.000785185
-0.00901336
0.000757441
-0.0096121
0.000725307
-0.0102565
-0.0109448
0.000687988
2.9823e-05
-0.000297755
0.000108865
-0.000959395
0.000225049
-0.00171451
0.000359354
-0.00251408
0.000489829
-0.00329162
0.000598414
-0.00398906
0.000675856
-0.00457809
0.000722106
-0.0050645
0.000743106
-0.0054772
0.000746576
-0.00585208
0.000738962
-0.00621974
0.000724305
-0.00660068
0.000704567
-0.00700658
0.000680437
-0.0074436
0.000652015
-0.00791553
0.000619172
-0.00842536
0.000581689
-0.00897588
0.000539351
-0.00956976
0.000491723
-0.0102089
-0.0108913
0.000438178
2.98929e-05
-0.000327648
0.000107101
-0.0010366
0.000217356
-0.00182477
0.000340352
-0.00263708
0.000454673
-0.00340594
0.000544401
-0.00407878
0.000602876
-0.00463657
0.000631927
-0.00509355
0.000638166
-0.00548344
0.000628954
-0.00584287
0.0006099
-0.00620068
0.000584222
-0.006575
0.000553323
-0.00697568
0.000517582
-0.00740786
0.000476943
-0.00787489
0.000431187
-0.0083796
0.000380037
-0.00892473
0.000323222
-0.00951295
0.000259989
-0.0101457
-0.0108215
0.000190239
2.96168e-05
-0.000357264
0.000104089
-0.00111108
0.00020724
-0.00192792
0.000317982
-0.00274782
0.000415885
-0.00350384
0.000487294
-0.00415019
0.000527905
-0.00467718
0.000541027
-0.00510667
0.000533595
-0.00547601
0.000512452
-0.00582173
0.000482379
-0.00617061
0.000445885
-0.00653851
0.00040392
-0.00693371
0.000356627
-0.00736057
0.00030382
-0.00782208
0.000245199
-0.00832098
0.000180488
-0.00886001
0.000109288
-0.00944175
3.15893e-05
-0.010068
-0.0107336
-5.62957e-05
2.89949e-05
-0.000386259
9.98851e-05
-0.00118197
0.00019492
-0.00202295
0.000292714
-0.00284562
0.000374176
-0.00358531
0.000427935
-0.00420395
0.000451765
-0.00470101
0.000450092
-0.005105
0.000429902
-0.00545582
0.000397423
-0.00578925
0.000356655
-0.00612984
0.000309505
-0.00649136
0.000256556
-0.00688076
0.000197779
-0.00730179
0.000132867
-0.00775717
6.14081e-05
-0.00824952
-1.70309e-05
-0.00878158
-0.000102247
-0.00935653
-0.000195701
-0.00997451
-0.0106317
-0.000297628
2.8035e-05
-0.000414294
9.45679e-05
-0.0012485
0.000180643
-0.00210903
0.000265019
-0.00292999
0.00033021
-0.0036505
0.000367064
-0.00424081
0.000375148
-0.00470909
0.000359678
-0.00508953
0.00032749
-0.00542363
0.00028415
-0.00574591
0.000232944
-0.00607864
0.000175267
-0.00643368
0.000111406
-0.0068169
4.1155e-05
-0.00723154
-3.57511e-05
-0.00768026
-0.000119724
-0.00816554
-0.000211216
-0.00869008
-0.000310862
-0.00925689
-0.000419318
-0.00986606
-0.0105144
-0.000536624
2.6751e-05
-0.000441045
8.82326e-05
-0.00130998
0.000164667
-0.00218546
0.000235356
-0.00300068
0.000284589
-0.00369973
0.000305321
-0.00426154
0.000298627
-0.0047024
0.000270236
-0.00506114
0.00022668
-0.00538008
0.000172855
-0.00569209
0.000111436
-0.00601722
4.32736e-05
-0.00636552
-3.14011e-05
-0.00674223
-0.000112817
-0.00715013
-0.000201555
-0.00759153
-0.000298103
-0.008069
-0.000402877
-0.00858531
-0.000516506
-0.00914326
-0.000639568
-0.009743
-0.0103816
-0.000772341
2.51625e-05
-0.000466208
8.09864e-05
-0.0013658
0.000147256
-0.00225173
0.000204156
-0.00305758
0.000237855
-0.00373343
0.000243258
-0.00426694
0.000222676
-0.00468182
0.000182124
-0.00502059
0.000127731
-0.00532568
6.36967e-05
-0.00562805
-7.94166e-06
-0.00594558
-8.61659e-05
-0.00628729
-0.000171438
-0.00665696
-0.000264114
-0.00705745
-0.000364629
-0.00749101
-0.000473548
-0.00796008
-0.000591416
-0.00846744
-0.000718834
-0.00901584
-0.000856339
-0.00960549
-0.0102337
-0.00100429
2.32934e-05
-0.000489501
7.29441e-05
-0.00141545
0.00012867
-0.00230746
0.00017182
-0.00310073
0.000190483
-0.00375209
0.000181338
-0.0042578
0.000147679
-0.00464816
9.56326e-05
-0.00496854
3.08129e-05
-0.00526086
-4.30793e-05
-0.00555416
-0.00012438
-0.00586428
-0.00021294
-0.00619873
-0.000308831
-0.00656107
-0.000412568
-0.00695371
-0.000524695
-0.00737889
-0.000645818
-0.00783895
-0.000776572
-0.00833669
-0.000917591
-0.00887482
-0.00106937
-0.00945371
-0.0100708
-0.0012322
2.11715e-05
-0.000510673
6.42246e-05
-0.00145851
0.00010916
-0.00235239
0.000138717
-0.00313029
0.000142891
-0.00375627
0.000119942
-0.00423485
7.3943e-05
-0.00460216
1.0948e-05
-0.00490555
-6.38031e-05
-0.00518611
-0.000147327
-0.00547063
-0.000238421
-0.00577318
-0.000336992
-0.00610016
-0.00044334
-0.00645472
-0.000557991
-0.00683906
-0.000681554
-0.00725532
-0.000814695
-0.00770581
-0.00095812
-0.00819326
-0.00111253
-0.00872041
-0.00127838
-0.00928787
-0.00989344
-0.00145578
1.88281e-05
-0.000529501
5.49483e-05
-0.00149463
8.89661e-05
-0.00238641
0.000105183
-0.0031465
9.54413e-05
-0.00374653
5.93593e-05
-0.00419877
1.764e-06
-0.00454456
-7.15922e-05
-0.00483219
-0.000156045
-0.00510166
-0.000249034
-0.00537765
-0.000349719
-0.0056725
-0.000458169
-0.00599171
-0.00057481
-0.00633808
-0.000700211
-0.00671366
-0.000835028
-0.00712051
-0.000979976
-0.00756086
-0.00113584
-0.0080374
-0.00130341
-0.00855283
-0.00148311
-0.00910817
-0.00970178
-0.00167477
1.62979e-05
-0.000545799
4.52335e-05
-0.00152356
6.83136e-05
-0.00240949
7.15132e-05
-0.0031497
4.84333e-05
-0.00372345
3.48353e-07
-0.00415068
-6.86048e-05
-0.00447561
-0.000152003
-0.00474879
-0.000245828
-0.00500784
-0.000348061
-0.00527541
-0.000458159
-0.0055624
-0.000576337
-0.00587353
-0.000703103
-0.00621131
-0.000839073
-0.00657769
-0.000984941
-0.00697464
-0.00114147
-0.00740434
-0.00130952
-0.00786935
-0.00149
-0.00837235
-0.0016833
-0.00891487
-0.00949618
-0.0018889
1.36223e-05
-0.000559421
3.51965e-05
-0.00154514
4.74072e-05
-0.0024217
3.79667e-05
-0.00314026
2.60961e-06
-0.00368809
-5.79995e-05
-0.00409007
-0.000137231
-0.00439638
-0.000230134
-0.00465589
-0.00033304
-0.00490493
-0.000444306
-0.00516415
-0.000563639
-0.00544307
-0.000691375
-0.0057458
-0.000828083
-0.0060746
-0.000974424
-0.00643135
-0.00113113
-0.00681793
-0.001299
-0.00723647
-0.00147897
-0.00768938
-0.00167209
-0.00817922
-0.00187873
-0.00870823
-0.009277
-0.00209791
1.08433e-05
-0.000570264
2.49501e-05
-0.00155924
2.64367e-05
-0.00242319
5.17264e-06
-0.003119
-4.32692e-05
-0.00363965
-0.0001146
-0.00401874
-0.000203818
-0.00430716
-0.000305873
-0.00455384
-0.000417588
-0.00479322
-0.000537681
-0.00504405
-0.000666061
-0.00531469
-0.000803166
-0.00560869
-0.000949618
-0.00592815
-0.00110612
-0.00627485
-0.00127343
-0.00665062
-0.00145239
-0.00705751
-0.001644
-0.00749777
-0.00184948
-0.00797374
-0.0020692
-0.00848851
-0.00904471
-0.0023015
7.96323e-06
-0.000578228
1.45916e-05
-0.00156587
5.78233e-06
-0.00241438
-2.81046e-05
-0.00308511
-8.76702e-05
-0.00358008
-0.000169548
-0.00393686
-0.000268269
-0.00420844
-0.000379131
-0.00444297
-0.000499397
-0.00467295
-0.000628103
-0.00491535
-0.000765331
-0.00517746
-0.000911601
-0.00546242
-0.00106758
-0.00577217
-0.00123402
-0.00610841
-0.00141169
-0.00647295
-0.00160147
-0.00686774
-0.00180443
-0.00729481
-0.00202196
-0.00775621
-0.00225446
-0.00825601
-0.00879981
-0.00249936
4.99624e-06
-0.000583224
4.13803e-06
-0.00156501
-1.53525e-05
-0.00239489
-6.03438e-05
-0.00304012
-0.000130847
-0.00350958
-0.000222722
-0.00384499
-0.000330501
-0.00410066
-0.000449839
-0.00432364
-0.000578398
-0.00454439
-0.000715496
-0.00477825
-0.000861358
-0.0050316
-0.00101657
-0.00530721
-0.00118186
-0.00560688
-0.00135799
-0.00593228
-0.00154578
-0.00628516
-0.0017461
-0.00666741
-0.00196009
-0.00708082
-0.00218927
-0.00752703
-0.00243419
-0.00801109
-0.00854226
-0.00269175
1.79332e-06
-0.000585017
-6.40511e-06
-0.00155682
-3.60168e-05
-0.00236528
-9.17573e-05
-0.00298438
-0.000172667
-0.00342867
-0.000274027
-0.00374363
-0.000390443
-0.00398424
-0.000517934
-0.00419614
-0.000654531
-0.00440779
-0.000799788
-0.00463299
-0.000954054
-0.00487733
-0.00111798
-0.00514328
-0.00129233
-0.00543254
-0.0014779
-0.00574671
-0.00167554
-0.00608752
-0.00188616
-0.00645679
-0.00211092
-0.00685606
-0.00235133
-0.00728662
-0.00260826
-0.00775416
-0.00827168
-0.00287884
-1.42489e-06
-0.000583592
-1.69338e-05
-0.00154131
-5.61476e-05
-0.00232606
-0.000122241
-0.00291829
-0.00021303
-0.00333788
-0.000323383
-0.00363327
-0.000448035
-0.00385959
-0.000583366
-0.00406081
-0.000727736
-0.00426342
-0.000880909
-0.00447982
-0.00104334
-0.0047149
-0.00121572
-0.0049709
-0.00139886
-0.00524939
-0.00159361
-0.00555197
-0.00180083
-0.00588029
-0.00202153
-0.00623609
-0.00225693
-0.00662066
-0.00250839
-0.00703515
-0.00277612
-0.00748643
-0.00798995
-0.00305785
-4.32973e-06
-0.000579262
-2.71714e-05
-0.00151847
-7.57431e-05
-0.00227749
-0.000151704
-0.00284233
-0.000251852
-0.00323773
-0.000370727
-0.0035144
-0.000503229
-0.00372709
-0.000646088
-0.00391795
-0.000797963
-0.00411155
-0.000958795
-0.00431899
-0.00112912
-0.00454458
-0.0013097
-0.00479032
-0.00150135
-0.00505774
-0.00170497
-0.00534835
-0.0019215
-0.00566377
-0.00215203
-0.00600556
-0.00239785
-0.00637483
-0.00266029
-0.00677271
-0.00294137
-0.00720536
-0.00770796
-0.00322336
-7.35539e-06
-0.000571907
-3.71784e-05
-0.00148864
-9.4736e-05
-0.00221993
-0.000180075
-0.00275699
-0.000289068
-0.00312874
-0.000416007
-0.00338746
-0.000555984
-0.00358711
-0.000706059
-0.00376788
-0.000865161
-0.00395245
-0.00103338
-0.00415077
-0.00121133
-0.00436663
-0.00139981
-0.00460184
-0.00159969
-0.00485787
-0.00181187