/*--------------------------------*- C++ -*----------------------------------*\
  =========                 |
  \\      /  F ield         | OpenFOAM: The Open Source CFD Toolbox
   \\    /   O peration     | Website:  https://openfoam.org
    \\  /    A nd           | Version:  7
     \\/     M anipulation  |
\*---------------------------------------------------------------------------*/
FoamFile
{
    version     2.0;
    format      ascii;
    class       volVectorField;
    location    "4";
    object      U;
}
// * * * * * * * * * * * * * * * * * * * * * * * * * * * * * * * * * * * * * //

dimensions      [0 1 -1 0 0 0 0];

internalField   nonuniform List<vector> 
433
(
(0.426046 0.0307745 -7.2886e-18)
(0.443261 0.135594 9.66744e-18)
(0.453909 0.206197 -6.39468e-18)
(0.46496 0.25649 1.47479e-18)
(0.478798 0.294694 -1.52588e-18)
(0.495468 0.325255 6.96487e-19)
(0.162271 0.0954772 -2.6651e-20)
(0.289662 0.211678 1.56109e-18)
(0.36057 0.266286 -3.03897e-18)
(0.402775 0.292595 9.76032e-19)
(0.431725 0.308793 -1.10673e-19)
(0.455001 0.322899 1.29658e-18)
(0.475951 0.337431 4.80768e-18)
(0.495859 0.352419 2.22576e-18)
(0.515398 0.366977 1.16107e-18)
(0.534664 0.380229 -5.61234e-18)
(-0.0719566 -0.00214007 -1.38071e-18)
(0.104506 0.203712 -9.37602e-20)
(0.222388 0.290945 -4.29349e-19)
(0.299791 0.319865 5.53506e-18)
(0.35281 0.326303 -3.53926e-18)
(0.391955 0.327911 3.61225e-19)
(0.422969 0.331717 -3.65775e-18)
(0.449067 0.339034 -3.81247e-18)
(0.472042 0.348999 1.73098e-18)
(0.493006 0.360134 -2.94776e-18)
(0.512526 0.371002 4.15382e-18)
(0.531002 0.380617 -8.62468e-19)
(0.548714 0.388286 2.67316e-18)
(0.565812 0.393578 1.31451e-19)
(0.582381 0.396281 -2.07995e-18)
(0.243637 -0.62739 3.62359e-18)
(0.211283 -0.265042 -2.23962e-18)
(0.227324 -0.0360793 7.38012e-18)
(0.260981 0.0976532 -8.45926e-18)
(0.297203 0.172527 -6.89158e-20)
(0.33161 0.215676 7.5817e-19)
(0.362597 0.244349 5.16984e-18)
(0.389816 0.267333 -4.73313e-18)
(0.413924 0.288119 9.85725e-19)
(0.435643 0.307554 -1.24379e-18)
(0.455709 0.325417 8.01245e-18)
(0.474527 0.341277 -2.79952e-18)
(0.492391 0.354732 -2.10348e-18)
(0.509551 0.365513 -6.31782e-19)
(0.526183 0.373464 4.41212e-18)
(0.542408 0.378536 -2.63112e-18)
(0.558307 0.380772 2.09092e-18)
(0.573926 0.380295 8.9382e-19)
(0.589289 0.377295 -1.97797e-18)
(0.6044 0.372016 -1.67892e-18)
(0.972913 -0.913763 8.20341e-18)
(0.806639 -0.697071 -7.40972e-18)
(0.68563 -0.472587 -5.42103e-18)
(0.596607 -0.276058 7.40624e-18)
(0.531151 -0.119509 -2.69518e-18)
(0.485558 -0.00110379 2.66812e-18)
(0.456913 0.0867141 2.10807e-18)
(0.441393 0.152493 6.12918e-19)
(0.435522 0.203215 -1.43938e-19)
(0.436662 0.243338 6.23426e-19)
(0.442808 0.275572 1.84761e-18)
(0.452322 0.301505 -1.21158e-18)
(0.463991 0.322133 -6.6379e-18)
(0.477001 0.338134 8.27016e-18)
(0.49083 0.350004 -2.66051e-18)
(0.505164 0.358131 -2.51567e-18)
(0.519816 0.362851 -1.50318e-18)
(0.534674 0.364473 7.43869e-19)
(0.549662 0.363305 1.02737e-18)
(0.564719 0.359659 6.34649e-19)
(0.57979 0.353852 -4.04504e-18)
(0.59482 0.346198 2.89679e-18)
(0.60993 0.336954 -4.21317e-18)
(0.624228 0.326896 1.14563e-18)
(0.640672 0.316031 1.5088e-18)
(-0.11443 -1.7973 6.80492e-18)
(0.280294 -1.29263 -5.94065e-18)
(0.486792 -0.837963 8.54576e-18)
(0.565256 -0.48107 -7.67655e-19)
(0.570111 -0.228223 -6.5986e-18)
(0.54196 -0.0598473 1.34391e-19)
(0.506078 0.050423 2.67003e-18)
(0.475053 0.124505 5.66052e-19)
(0.453346 0.177096 -2.29241e-18)
(0.440917 0.21719 2.65317e-18)
(0.436059 0.249481 -1.514e-18)
(0.436892 0.276094 -7.58537e-19)
(0.441807 0.297941 3.47141e-18)
(0.449606 0.315462 -3.07233e-18)
(0.459456 0.328948 -7.05671e-19)
(0.470798 0.338665 -4.10964e-18)
(0.483261 0.344894 7.47579e-18)
(0.496588 0.34793 -3.93337e-18)
(0.51059 0.348086 3.43417e-19)
(0.525117 0.345683 7.81665e-19)
(0.540037 0.341047 1.61869e-18)
(0.555233 0.334501 -6.73872e-19)
(0.570598 0.326355 -1.99881e-18)
(0.586203 0.316854 4.31511e-18)
(0.601141 0.306696 1.9299e-18)
(0.618262 0.296322 -6.72746e-19)
(0.632444 0.285873 -4.26511e-18)
(-2.46969 -4.2197 -1.04937e-17)
(-1.51985 -2.88238 3.41139e-18)
(-0.793583 -1.71963 1.11439e-17)
(-0.289976 -0.861197 -4.54681e-18)
(0.0269138 -0.309484 7.65633e-20)
(0.209636 0.0021033 -9.63529e-19)
(0.307923 0.157088 -2.75243e-19)
(0.357819 0.225492 4.85572e-19)
(0.381736 0.254042 -1.06371e-18)
(0.393272 0.26789 -4.62322e-19)
(0.400115 0.278053 2.55438e-19)
(0.405641 0.288252 2.88024e-18)
(0.411465 0.298935 -5.35901e-18)
(0.418281 0.309296 1.18976e-18)
(0.426353 0.318418 1.15698e-18)
(0.435742 0.325644 5.30061e-20)
(0.446414 0.330597 2.04074e-18)
(0.458277 0.333136 1.74098e-18)
(0.471202 0.333287 7.79064e-19)
(0.485043 0.331191 -5.45789e-18)
(0.499645 0.327058 2.5853e-18)
(0.51485 0.321135 -3.68148e-18)
(0.530507 0.313686 -4.96275e-20)
(0.546474 0.304967 4.87816e-18)
(0.562784 0.295186 -3.39069e-18)
(0.57854 0.284939 -1.83513e-18)
(0.596428 0.275069 3.736e-18)
(0.611454 0.265095 1.93073e-19)
(-0.895411 -4.00893 -1.08402e-17)
(-0.685849 -2.57983 1.84806e-19)
(-0.443841 -1.3965 -9.631e-19)
(-0.219242 -0.557195 -3.08171e-18)
(-0.0370715 -0.0434339 1.73392e-18)
(0.0984483 0.223136 -5.01457e-19)
(0.192951 0.333022 -9.35917e-19)
(0.256356 0.360246 -4.68697e-19)
(0.298217 0.353266 7.33438e-19)
(0.325703 0.338447 -6.72061e-19)
(0.344366 0.326556 -1.43826e-18)
(0.358397 0.319931 2.98262e-18)
(0.370323 0.317689 2.98038e-19)
(0.381303 0.31811 -1.51217e-18)
(0.392229 0.319512 4.87403e-19)
(0.403635 0.320674 -1.76772e-18)
(0.415783 0.320832 2.91779e-19)
(0.428799 0.319574 2.81498e-18)
(0.442701 0.316734 -2.07397e-18)
(0.457438 0.312313 9.29834e-19)
(0.472913 0.306419 -3.91781e-18)
(0.489001 0.299217 3.91264e-18)
(0.505566 0.290902 -1.21514e-18)
(0.522471 0.28167 3.13657e-19)
(0.539735 0.27168 3.36879e-18)
(0.556506 0.261422 -1.20163e-18)
(0.575265 0.25211 -1.6954e-18)
(0.591295 0.242662 1.63823e-18)
(1.36016 -2.53261 -3.43383e-18)
(0.8308 -1.81082 2.6445e-19)
(0.501997 -1.07896 2.58865e-18)
(0.321973 -0.483465 -3.22181e-18)
(0.240506 -0.0731344 3.55823e-18)
(0.215445 0.166824 -2.02979e-18)
(0.218094 0.281873 5.21496e-19)
(0.231714 0.321869 8.74301e-19)
(0.248568 0.325941 -1.11627e-18)
(0.265717 0.317808 3.38242e-18)
(0.282472 0.309022 -1.64672e-18)
(0.298073 0.303684 -1.5441e-18)
(0.312518 0.302012 1.7929e-18)
(0.326404 0.302566 -3.24193e-18)
(0.340009 0.303885 2.12561e-18)
(0.353617 0.304843 4.17327e-20)
(0.367497 0.304735 -1.38626e-18)
(0.381849 0.303212 1.86661e-18)
(0.3968 0.30016 -5.2419e-19)
(0.412409 0.295616 -1.45316e-18)
(0.428674 0.289707 2.67132e-18)
(0.445547 0.282608 -2.91231e-19)
(0.462942 0.274512 6.76681e-20)
(0.480752 0.265612 -6.78555e-19)
(0.498859 0.256084 -1.57446e-18)
(0.517279 0.246063 5.05315e-19)
(0.535229 0.235947 2.89393e-18)
(0.554943 0.227294 -1.48435e-18)
(0.572116 0.218468 -1.18782e-18)
(1.29416 -1.07701 2.36758e-17)
(1.1021 -1.328 -1.29964e-17)
(0.948032 -1.26623 -8.00728e-18)
(0.821857 -1.00629 6.36184e-18)
(0.709561 -0.678337 -5.22363e-18)
(0.606266 -0.379618 7.76216e-18)
(0.514136 -0.153962 -1.84583e-18)
(0.437448 -0.00308585 -1.9806e-18)
(0.378281 0.0913407 2.01391e-19)
(0.335922 0.150382 -7.20012e-20)
(0.308478 0.189643 1.5957e-18)
(0.293717 0.217832 -6.15644e-19)
(0.288976 0.239036 7.66361e-19)
(0.291557 0.255067 -1.25278e-18)
(0.298904 0.266671 4.7891e-19)
(0.309171 0.274426 1.13204e-18)
(0.321411 0.278749 -1.83721e-18)
(0.335147 0.280027 2.12573e-18)
(0.350084 0.278688 2.78662e-19)
(0.366035 0.275162 -3.59595e-19)
(0.382866 0.269856 1.29326e-19)
(0.400461 0.263141 -1.04119e-19)
(0.418705 0.255345 -1.3636e-18)
(0.437474 0.246744 -2.35798e-19)
(0.456638 0.237569 -4.55071e-19)
(0.476066 0.228 6.09787e-19)
(0.495751 0.218163 7.77559e-19)
(0.514983 0.208382 4.56667e-19)
(0.535695 0.200511 8.11607e-19)
(0.554111 0.192426 6.34512e-19)
(-1.79323 -5.23077 1.1276e-19)
(-0.905035 -4.45394 -9.90755e-18)
(-0.265326 -3.40672 6.57498e-18)
(0.129108 -2.33107 -3.85299e-19)
(0.331164 -1.4246 -2.70702e-18)
(0.405223 -0.769533 7.86465e-19)
(0.407056 -0.349767 6.21394e-19)
(0.377299 -0.10345 1.65017e-18)
(0.340178 0.0341074 -2.31159e-18)
(0.307775 0.111606 5.38554e-19)
(0.284596 0.158745 4.4018e-19)
(0.270982 0.19075 7.02485e-19)
(0.26529 0.214279 -4.86027e-19)
(0.265596 0.231761 6.15199e-19)
(0.270683 0.243987 -1.04174e-18)
(0.279519 0.251494 1.03291e-18)
(0.291021 0.254946 -1.4114e-18)
(0.304575 0.255014 -1.60172e-19)
(0.319835 0.252338 -1.5858e-19)
(0.336519 0.247511 -1.18833e-18)
(0.354391 0.241058 2.1081e-18)
(0.373233 0.233427 -1.98046e-18)
(0.392846 0.224986 1.21194e-18)
(0.413037 0.216025 -1.37195e-19)
(0.433629 0.206765 -4.16006e-19)
(0.454459 0.197362 1.10343e-18)
(0.475478 0.187913 -1.10859e-18)
(0.496051 0.178666 -2.6441e-20)
(0.517772 0.171708 2.69055e-19)
(0.537483 0.1645 -8.95062e-19)
(-2.42996 -8.44074 -6.94383e-18)
(-1.74542 -7.64427 7.49344e-18)
(-1.15578 -6.01031 -1.55448e-20)
(-0.702996 -4.16909 8.82823e-19)
(-0.373301 -2.55217 -3.64317e-18)
(-0.144835 -1.3487 1.85548e-18)
(0.00437536 -0.567076 -2.3192e-20)
(0.0953111 -0.119971 -9.77543e-19)
(0.147686 0.104447 3.83193e-19)
(0.176589 0.201372 -4.87811e-19)
(0.192918 0.235834 1.54093e-19)
(0.20319 0.244911 -1.65659e-20)
(0.211095 0.246082 -3.3462e-19)
(0.218411 0.245713 -3.61927e-19)
(0.226048 0.245198 -6.43347e-22)
(0.234749 0.24413 5.23951e-19)
(0.24515 0.241811 -1.38164e-20)
(0.257632 0.237946 -4.29509e-20)
(0.272206 0.232568 7.85555e-19)
(0.288678 0.22588 -5.4771e-20)
(0.306775 0.218156 2.74254e-19)
(0.32621 0.209689 -5.31576e-19)
(0.346703 0.200749 1.32416e-19)
(0.367993 0.191566 4.20042e-19)
(0.389836 0.182323 -5.05425e-19)
(0.412021 0.173147 1.58142e-19)
(0.434364 0.16412 -1.43829e-19)
(0.456786 0.155283 -6.08849e-19)
(0.478738 0.146797 1.07097e-18)
(0.501445 0.140918 2.39195e-19)
(0.522445 0.134787 1.04259e-19)
(0.458148 -6.58954 -1.00147e-18)
(0.0750071 -5.49914 1.87803e-18)
(-0.186421 -3.95861 -3.78466e-18)
(-0.311498 -2.47878 -1.74407e-19)
(-0.323809 -1.28376 1.50788e-18)
(-0.269887 -0.435625 6.4167e-19)
(-0.190035 0.0869802 6.02836e-19)
(-0.109206 0.352396 -1.42395e-18)
(-0.0400605 0.44636 1.82804e-19)
(0.0145461 0.44665 2.08206e-19)
(0.0569734 0.408087 -1.15208e-19)
(0.0901381 0.361571 3.68276e-20)
(0.116646 0.320455 -3.62766e-20)
(0.138561 0.288124 1.65456e-19)
(0.157629 0.263725 -2.13584e-19)
(0.175448 0.24511 1.95925e-19)
(0.193398 0.23017 2.53763e-20)
(0.212181 0.217359 -2.7089e-19)
(0.232005 0.205718 8.91767e-20)
(0.252875 0.194718 1.61336e-20)
(0.27469 0.184125 -9.64597e-20)
(0.297301 0.173863 1.31565e-19)
(0.320534 0.163939 -7.96712e-20)
(0.344208 0.154384 -4.21546e-20)
(0.368147 0.145231 1.11513e-19)
(0.392187 0.136497 2.10907e-19)
(0.416185 0.128176 -4.49004e-19)
(0.440073 0.120245 -7.34862e-20)
(0.463425 0.112791 -1.71648e-20)
(0.487103 0.108177 -1.53914e-19)
(0.5094 0.103327 1.06479e-19)
(-0.0416776 -1.98467 -3.70834e-19)
(-0.220963 -1.31316 5.37516e-19)
(-0.255283 -0.653814 -2.61502e-19)
(-0.227471 -0.11923 -7.44562e-20)
(-0.184994 0.232413 1.80492e-19)
(-0.14477 0.406245 -3.9338e-19)
(-0.107705 0.449842 1.20517e-19)
(-0.0730388 0.421256 1.40226e-19)
(-0.0407553 0.366843 -9.41325e-20)
(-0.0103803 0.313376 -5.56429e-20)
(0.0193619 0.270734 9.23802e-20)
(0.0491685 0.239454 3.12568e-20)
(0.0789096 0.216779 -8.62192e-20)
(0.107954 0.199592 -5.87848e-21)
(0.13608 0.185598 -2.22854e-20)
(0.163493 0.173284 1.76241e-20)
(0.190431 0.161884 -1.29053e-20)
(0.217097 0.151053 -6.33715e-20)
(0.24364 0.140691 -5.88452e-20)
(0.270117 0.130801 8.06947e-20)
(0.296532 0.121424 5.16367e-20)
(0.322847 0.112599 -6.1099e-20)
(0.349005 0.104347 -5.29924e-20)
(0.374934 0.0966635 1.4549e-19)
(0.400562 0.0895159 2.70377e-20)
(0.425857 0.0828583 -4.40095e-20)
(0.450529 0.0767403 -1.25041e-20)
(0.475082 0.0735731 -2.26727e-20)
(0.498579 0.0701808 6.0637e-20)
(1.00007 0.00692814 -1.05151e-20)
(0.990201 0.00633496 6.91148e-21)
(0.971719 0.00665301 -3.87125e-22)
(0.945711 0.00812907 5.82851e-21)
(0.910787 0.0108098 -1.75478e-21)
(0.867654 0.0152824 -2.95627e-21)
(0.812507 0.0218591 -9.37739e-21)
(0.746791 0.0316109 -9.69099e-21)
(0.665454 0.045336 6.17523e-21)
(0.567048 0.0623788 7.17483e-21)
(1.0001 0.00726697 1.6212e-20)
(0.990301 0.00746001 -1.56456e-20)
(0.971917 0.00871276 -1.37918e-21)
(0.946048 0.0114618 1.7508e-20)
(0.911378 0.0158071 -1.19546e-20)
(0.868626 0.0226989 1.81127e-20)
(0.81412 0.0325222 1.17498e-20)
(0.749444 0.0467563 -2.69513e-20)
(0.66956 0.0669704 3.37966e-20)
(0.573278 0.0914127 -1.5278e-20)
(1.00013 0.00759797 -2.93004e-20)
(0.990402 0.00857302 2.26822e-20)
(0.972129 0.0107527 4.34741e-21)
(0.946416 0.014756 -4.03743e-20)
(0.912053 0.0207394 1.80845e-20)
(0.869756 0.0300122 1.237e-20)
(0.816032 0.042971 -5.82777e-20)
(0.752688 0.0615042 1.14285e-19)
(0.67467 0.0877757 -2.09109e-20)
(0.5814 0.119223 -1.31528e-19)
(1.00015 0.00792144 1.33611e-20)
(0.990502 0.00967408 -5.2869e-20)
(0.972354 0.0127727 -9.59083e-21)
(0.946815 0.0180058 5.72035e-20)
(0.91281 0.0256152 -1.60673e-20)
(0.871038 0.0371507 2.50842e-20)
(0.818225 0.053121 -9.34138e-21)
(0.756468 0.0757837 2.1931e-20)
(0.680716 0.108104 9.45797e-20)
(0.591359 0.146019 9.04568e-20)
(1.00018 0.00823769 -1.65262e-21)
(0.990602 0.0107632 3.45789e-20)
(0.972592 0.0147725 4.16156e-20)
(0.947245 0.0212222 -2.57531e-20)
(0.913639 0.0303921 5.68731e-20)
(0.872455 0.0439548 -3.49065e-20)
(0.820692 0.0630976 -6.17794e-20)
(0.760849 0.0898427 1.1944e-19)
(0.687729 0.127986 -9.79545e-20)
(0.602909 0.171756 -4.69637e-19)
(1.0002 0.0085471 5.15047e-20)
(0.990702 0.0118402 2.44431e-20)
(0.972842 0.0167463 -5.32129e-20)
(0.947701 0.0244103 -1.8639e-20)
(0.914518 0.0349749 2.33093e-20)
(0.874029 0.0508732 6.64149e-20)
(0.82349 0.0729992 7.64494e-20)
(0.765761 0.103691 2.52239e-19)
(0.695595 0.146984 1.40661e-19)
(0.615972 0.196012 -5.88812e-19)
(1.00023 0.00885006 -9.57788e-20)
(0.990801 0.0129051 6.30267e-20)
(0.973106 0.0186854 -1.1917e-19)
(0.948174 0.027518 4.28311e-20)
(0.915501 0.0396084 -2.44272e-20)
(0.875765 0.0579454 -1.01701e-20)
(0.826546 0.0826672 -1.46375e-19)
(0.77116 0.117084 6.5179e-20)
(0.704277 0.165115 -8.2094e-20)
(0.630472 0.218828 4.55928e-19)
(1.00025 0.00914698 -3.4307e-20)
(0.990899 0.0139592 -1.22482e-19)
(0.973379 0.0206254 1.26796e-19)
(0.948692 0.0304651 -1.6852e-19)
(0.916571 0.0443413 -1.11435e-19)
(0.877633 0.0647306 2.59925e-19)
(0.829873 0.092056 1.59775e-20)
(0.777028 0.130078 2.74065e-20)
(0.71375 0.182437 6.0844e-20)
(0.646319 0.240229 -3.47459e-19)
(1.00028 0.00943827 2.2141e-19)
(0.990999 0.0150024 5.31359e-20)
(0.973653 0.0225684 -1.09624e-19)
(0.949247 0.033517 -2.78654e-20)
(0.917736 0.0489331 3.59417e-20)
(0.879637 0.0713338 -7.95137e-20)
(0.833487 0.101202 -1.46331e-19)
(0.78335 0.14271 -4.17221e-19)
(0.723991 0.198947 4.99691e-19)
(0.663434 0.260214 4.01743e-19)
(1.0003 0.00972432 -1.59584e-19)
(0.9911 0.0160337 4.28896e-20)
(0.973952 0.0244494 1.43161e-19)
(0.949835 0.0366819 2.62581e-19)
)
;

boundaryField
{
    inlet
    {
        type            uniformFixedValue;
        uniformValue    constant (1 0 0);
        value           uniform (1 0 0);
    }
    outlet
    {
        type            pressureInletOutletVelocity;
        value           nonuniform 0();
    }
    cylinder
    {
        type            fixedValue;
        value           nonuniform 0();
    }
    top
    {
        type            symmetryPlane;
    }
    bottom
    {
        type            symmetryPlane;
    }
    defaultFaces
    {
        type            empty;
    }
    procBoundary18to12
    {
        type            processor;
        value           nonuniform List<vector> 
42
(
(1.08588 -2.67553 1.97806e-19)
(0.377664 -2.5176 -6.59655e-19)
(0.377664 -2.5176 -6.59655e-19)
(0.342376 -2.74142 -5.61908e-19)
(0.415776 -2.43941 -1.55274e-18)
(0.405835 -1.785 7.50895e-19)
(0.330152 -1.07891 2.03258e-19)
(0.229167 -0.519223 -4.3415e-19)
(0.134213 -0.163058 9.13542e-19)
(0.0611247 0.0228286 -2.94608e-19)
(0.0154885 0.100296 -2.75975e-19)
(-0.00414543 0.12337 1.47387e-19)
(-0.0045064 0.12615 4.55731e-20)
(0.00689033 0.124437 -7.541e-20)
(0.0257151 0.122934 -3.05491e-20)
(0.0492959 0.121589 5.12532e-20)
(0.075748 0.119376 -2.70745e-20)
(0.103855 0.115706 -6.47157e-21)
(0.132721 0.110516 -2.71469e-20)
(0.16191 0.104082 -3.06658e-20)
(0.191131 0.0968214 -6.98398e-21)
(0.220232 0.0891491 3.77246e-20)
(0.249111 0.0814153 1.45978e-20)
(0.277704 0.0738876 -6.19075e-20)
(0.305963 0.0667512 3.4865e-20)
(0.333838 0.0601154 4.43805e-20)
(0.361282 0.0540247 -8.56423e-20)
(0.388248 0.0484713 2.47313e-20)
(0.414707 0.0434179 5.22227e-21)
(0.440491 0.03891 2.41177e-21)
(0.465735 0.0373542 -3.39746e-20)
(0.490256 0.0355876 6.93035e-20)
(1.00004 0.00658124 -9.24145e-21)
(0.990102 0.00519816 5.75779e-21)
(0.971536 0.00457389 -1.27155e-22)
(0.945408 0.00476103 5.89179e-21)
(0.910282 0.00574683 -5.14725e-21)
(0.866847 0.00776055 -6.36582e-22)
(0.811207 0.0109941 -4.89672e-22)
(0.744769 0.0161396 -1.1374e-20)
(0.662407 0.0230838 -3.83724e-21)
(0.562791 0.0324147 1.49873e-20)
)
;
    }
    procBoundary18to19
    {
        type            processor;
        value           nonuniform List<vector> 
25
(
(0.439062 6.39319e-05 -1.96765e-17)
(0.445967 0.111549 8.34641e-18)
(0.38725 -0.128215 -2.33691e-19)
(0.38725 -0.128215 -2.33691e-19)
(-0.0647214 -0.134723 -2.45502e-19)
(-0.0647214 -0.134723 -2.45502e-19)
(-0.655052 -1.08876 3.65081e-18)
(-0.322823 -0.407155 -5.59979e-18)
(-0.322823 -0.407155 -5.59979e-18)
(0.373563 -1.14301 -2.97627e-18)
(0.373563 -1.14301 -2.97627e-18)
(1.20234 -1.05997 4.18958e-18)
(1.20234 -1.05997 4.18958e-18)
(-0.744039 -2.26797 1.19749e-17)
(-0.744039 -2.26797 1.19749e-17)
(-3.57738 -5.44554 -4.36689e-18)
(-1.00109 -5.41354 -2.32556e-17)
(-1.00109 -5.41354 -2.32556e-17)
(2.13209 -2.96847 -1.09414e-18)
(2.13209 -2.96847 -1.09414e-18)
(1.50311 -0.460979 -1.1719e-19)
(-2.85458 -5.5778 -6.14423e-18)
(-2.85458 -5.5778 -6.14423e-18)
(-3.05189 -7.80664 4.20025e-19)
(0.931884 -6.39752 -1.5843e-18)
)
;
    }
    procBoundary18to24
    {
        type            processor;
        value           nonuniform List<vector> 
35
(
(0.455967 0.192821 2.25168e-18)
(0.469741 0.252813 -1.39646e-18)
(0.487101 0.29814 2.07539e-18)
(0.507157 0.333256 -1.045e-17)
(0.514138 0.350408 -1.74515e-18)
(0.514138 0.350408 -1.74515e-18)
(0.533923 0.371217 2.47228e-19)
(0.554139 0.388334 5.00597e-18)
(0.553421 0.391612 -1.09801e-18)
(0.553421 0.391612 -1.09801e-18)
(0.571689 0.400619 1.33416e-18)
(0.589441 0.406954 -2.31348e-18)
(0.606616 0.410501 -1.12045e-19)
(0.598468 0.396354 -6.76964e-19)
(0.598468 0.396354 -6.76964e-19)
(0.614095 0.393878 3.1083e-18)
(0.629275 0.389031 -3.02449e-19)
(0.619251 0.364735 -3.52419e-19)
(0.619251 0.364735 -3.52419e-19)
(0.634004 0.355686 6.45376e-19)
(0.647794 0.345703 -4.8338e-18)
(0.663626 0.334336 1.70966e-18)
(0.654172 0.305119 3.86511e-18)
(0.654172 0.305119 3.86511e-18)
(0.918971 0.0534229 1.17819e-19)
(0.881785 0.0778185 7.76004e-20)
(0.837396 0.110122 -1.22316e-19)
(0.790112 0.154984 8.38454e-20)
(0.734987 0.214632 6.28639e-19)
(0.681755 0.278791 -4.52126e-19)
(1.00032 0.0100054 2.08962e-20)
(0.991202 0.017052 -2.71606e-20)
(0.974272 0.0262218 7.48221e-20)
(0.918971 0.0534229 1.17819e-19)
(0.950466 0.0397069 2.21962e-19)
)
;
    }
}


// ************************************************************************* //
