/*--------------------------------*- C++ -*----------------------------------*\
  =========                 |
  \\      /  F ield         | OpenFOAM: The Open Source CFD Toolbox
   \\    /   O peration     | Website:  https://openfoam.org
    \\  /    A nd           | Version:  7
     \\/     M anipulation  |
\*---------------------------------------------------------------------------*/
FoamFile
{
    version     2.0;
    format      ascii;
    class       surfaceScalarField;
    location    "3.6";
    object      phi;
}
// * * * * * * * * * * * * * * * * * * * * * * * * * * * * * * * * * * * * * //

dimensions      [0 3 -1 0 0 0 0];

internalField   nonuniform List<scalar> 
616
(
1.49554e-05
1.46304e-05
1.63493e-05
1.49886e-05
1.77363e-05
1.52665e-05
1.91146e-05
1.5474e-05
2.04827e-05
1.56199e-05
2.18392e-05
1.57117e-05
2.3183e-05
1.57562e-05
2.4513e-05
1.57593e-05
2.58283e-05
1.57262e-05
2.71283e-05
1.56615e-05
2.84123e-05
1.55693e-05
2.96797e-05
1.54532e-05
3.09301e-05
1.53166e-05
3.21633e-05
1.51622e-05
3.33787e-05
1.49927e-05
3.45764e-05
1.48102e-05
3.5756e-05
1.46169e-05
3.69176e-05
1.44146e-05
3.80609e-05
1.42048e-05
3.91861e-05
1.39889e-05
4.02931e-05
1.37683e-05
4.1382e-05
1.35441e-05
4.24529e-05
1.33172e-05
4.35058e-05
1.30886e-05
4.45409e-05
1.2859e-05
4.55583e-05
1.26292e-05
4.65583e-05
1.23997e-05
4.7541e-05
1.2171e-05
4.85066e-05
1.19437e-05
4.94553e-05
1.17181e-05
5.03873e-05
1.14946e-05
5.13029e-05
1.12735e-05
5.22023e-05
1.1055e-05
5.30857e-05
1.08395e-05
5.39534e-05
1.06269e-05
5.48057e-05
1.04177e-05
5.56428e-05
1.02117e-05
5.64649e-05
1.00093e-05
5.72723e-05
9.81038e-06
5.80654e-05
9.61508e-06
5.88442e-05
9.42345e-06
5.96092e-05
9.23551e-06
6.03605e-05
9.05128e-06
8.87076e-06
-2.8404e-06
-2.35101e-05
-5.78789e-06
-4.22652e-05
-7.98186e-06
-4.65024e-05
-9.27097e-06
-4.28547e-05
-9.89988e-06
-3.6436e-05
-1.0068e-05
-2.93973e-05
-9.90867e-06
-2.27671e-05
-9.505e-06
-1.68932e-05
-8.90976e-06
-1.18381e-05
-8.15935e-06
-7.54327e-06
-7.28091e-06
-3.91225e-06
-6.29597e-06
-8.45464e-07
-5.22216e-06
1.74685e-06
-4.07444e-06
3.94033e-06
-2.86546e-06
5.79815e-06
-1.60608e-06
7.37189e-06
-3.05639e-07
8.70394e-06
1.02778e-06
9.82922e-06
2.38716e-06
1.07767e-05
3.76643e-06
1.15707e-05
5.16029e-06
1.22315e-05
6.56409e-06
1.27766e-05
7.9738e-06
1.32207e-05
9.38588e-06
1.35765e-05
1.07972e-05
1.38551e-05
1.22052e-05
1.40661e-05
1.36073e-05
1.42177e-05
1.50015e-05
1.43174e-05
1.63861e-05
1.43716e-05
1.77595e-05
1.43859e-05
1.91203e-05
1.43654e-05
2.04673e-05
1.43144e-05
2.17996e-05
1.4237e-05
2.31163e-05
1.41366e-05
2.44166e-05
1.40163e-05
2.57e-05
1.38788e-05
2.69659e-05
1.37267e-05
2.8214e-05
1.35622e-05
2.94439e-05
1.3387e-05
3.06554e-05
1.32031e-05
3.18482e-05
1.30119e-05
3.30223e-05
1.28148e-05
3.41775e-05
1.26131e-05
3.53139e-05
1.24077e-05
3.64315e-05
1.21996e-05
3.75303e-05
1.19898e-05
3.86104e-05
1.17789e-05
3.9672e-05
1.15676e-05
4.07151e-05
1.13566e-05
4.17399e-05
1.11462e-05
4.27467e-05
1.09369e-05
4.37356e-05
1.07292e-05
4.47068e-05
1.05234e-05
4.56606e-05
1.03197e-05
4.65972e-05
1.01184e-05
4.75168e-05
9.91981e-06
4.84198e-05
9.72399e-06
4.93063e-05
9.53114e-06
5.01767e-05
9.34138e-06
5.10312e-05
9.15481e-06
5.187e-05
8.97151e-06
5.26936e-05
8.79156e-06
5.3502e-05
8.61498e-06
5.42957e-05
8.44182e-06
5.50749e-05
8.2721e-06
8.10582e-06
-2.77832e-06
-2.07318e-05
-6.1926e-06
-3.88509e-05
-9.11397e-06
-4.3581e-05
-1.11981e-05
-4.07706e-05
-1.25754e-05
-3.50586e-05
-1.34007e-05
-2.8572e-05
-1.38005e-05
-2.23673e-05
-1.38651e-05
-1.68286e-05
-1.36594e-05
-1.20438e-05
-1.32319e-05
-7.97071e-06
-1.26207e-05
-4.52348e-06
-1.18563e-05
-1.60986e-06
-1.09639e-05
8.54477e-07
-9.96466e-06
2.94107e-06
-8.87622e-06
4.70971e-06
-7.71364e-06
6.2093e-06
-6.48972e-06
7.48002e-06
-5.21545e-06
8.55495e-06
-3.90029e-06
9.46158e-06
-2.55243e-06
1.02228e-05
-1.17895e-06
1.08581e-05
2.13974e-07
1.13837e-05
1.62097e-06
1.18137e-05
3.03735e-06
1.21601e-05
4.459e-06
1.24335e-05
5.88233e-06
1.26427e-05
7.30423e-06
1.27958e-05
8.72193e-06
1.28997e-05
1.01331e-05
1.29605e-05
1.15355e-05
1.29834e-05
1.29275e-05
1.29734e-05
1.43075e-05
1.29345e-05
1.5674e-05
1.28704e-05
1.70259e-05
1.27846e-05
1.83623e-05
1.26799e-05
1.96823e-05
1.25589e-05
2.09852e-05
1.24239e-05
2.22703e-05
1.2277e-05
2.35372e-05
1.21201e-05
2.47856e-05
1.19548e-05
2.60151e-05
1.17825e-05
2.72254e-05
1.16045e-05
2.84165e-05
1.1422e-05
2.95881e-05
1.1236e-05
3.07404e-05
1.10474e-05
3.18733e-05
1.0857e-05
3.29867e-05
1.06654e-05
3.40809e-05
1.04735e-05
3.51559e-05
1.02815e-05
3.62119e-05
1.00902e-05
3.7249e-05
9.8998e-06
3.82675e-05
9.71076e-06
3.92675e-05
9.52339e-06
4.02492e-05
9.33795e-06
4.1213e-05
9.15469e-06
4.2159e-05
8.9738e-06
4.30875e-05
8.79547e-06
4.39988e-05
8.61983e-06
4.48932e-05
8.447e-06
4.57709e-05
8.27709e-06
4.66323e-05
8.11016e-06
4.74775e-05
7.94627e-06
4.8307e-05
7.78548e-06
4.91211e-05
7.62781e-06
4.99199e-05
7.47328e-06
7.3219e-06
-2.69588e-06
-1.80359e-05
-6.43466e-06
-3.51121e-05
-9.92394e-06
-4.00917e-05
-1.26709e-05
-3.80236e-05
-1.4698e-05
-3.30315e-05
-1.61101e-05
-2.71599e-05
-1.7019e-05
-2.14584e-05
-1.75167e-05
-1.6331e-05
-1.7676e-05
-1.18845e-05
-1.7555e-05
-8.09172e-06
-1.72006e-05
-4.87788e-06
-1.66512e-05
-2.15922e-06
-1.59386e-05
1.41879e-07
-1.50893e-05
2.09173e-06
-1.41254e-05
3.74583e-06
-1.30657e-05
5.14962e-06
-1.19261e-05
6.34046e-06
-1.07203e-05
7.34911e-06
-9.45984e-06
8.20112e-06
-8.15483e-06
8.91782e-06
-6.81398e-06
9.51721e-06
-5.44485e-06
1.00145e-05
-4.05403e-06
1.04229e-05
-2.64726e-06
1.07534e-05
-1.22957e-06
1.10158e-05
1.94669e-07
1.12185e-05
1.62161e-06
1.13689e-05
3.04789e-06
1.14735e-05
4.47059e-06
1.15378e-05
5.88713e-06
1.15669e-05
7.2953e-06
1.15652e-05
8.69315e-06
1.15366e-05
1.0079e-05
1.14846e-05
1.14514e-05
1.14122e-05
1.28091e-05
1.13222e-05
1.41511e-05
1.12169e-05
1.54763e-05
1.10986e-05
1.67842e-05
1.09692e-05
1.8074e-05
1.08303e-05
1.93453e-05
1.06835e-05
2.05976e-05
1.05302e-05
2.18306e-05
1.03715e-05
2.3044e-05
1.02085e-05
2.42378e-05
1.00422e-05
2.54118e-05
9.87341e-06
2.65659e-05
9.70283e-06
2.77002e-05
9.53116e-06
2.88147e-05
9.35896e-06
2.99095e-05
9.18675e-06
3.09847e-05
9.01497e-06
3.20405e-05
8.84401e-06
3.30771e-05
8.67422e-06
3.40946e-05
8.50589e-06
3.50932e-05
8.33927e-06
3.60733e-05
8.17459e-06
3.70351e-05
8.01204e-06
3.79788e-05
7.85177e-06
3.89047e-05
7.69392e-06
3.98131e-05
7.53859e-06
4.07043e-05
7.38589e-06
4.15786e-05
7.23588e-06
4.24362e-05
7.08861e-06
4.32776e-05
6.94413e-06
4.41029e-05
6.80247e-06
4.49126e-05
6.66364e-06
6.52766e-06
-2.59775e-06
-1.54382e-05
-6.54024e-06
-3.11697e-05
-1.04513e-05
-3.61807e-05
-1.37298e-05
-3.47451e-05
-1.63012e-05
-3.04602e-05
-1.82193e-05
-2.52418e-05
-1.95764e-05
-2.01013e-05
-2.04617e-05
-1.54457e-05
-2.09525e-05
-1.13938e-05
-2.11136e-05
-7.93057e-06
-2.09991e-05
-4.99236e-06
-2.06538e-05
-2.50457e-06
-2.01147e-05
-3.97164e-07
-1.94131e-05
1.39004e-06
-1.85747e-05
2.90747e-06
-1.76216e-05
4.19649e-06
-1.65722e-05
5.29113e-06
-1.54425e-05
6.21943e-06
-1.42461e-05
7.00466e-06
-1.29945e-05
7.66628e-06
-1.1698e-05
8.2207e-06
-1.03653e-05
8.68183e-06
-9.00405e-06
9.06158e-06
-7.62088e-06
9.3702e-06
-6.22164e-06
9.61652e-06
-4.8114e-06
9.80827e-06
-3.39463e-06
9.95214e-06
-1.97523e-06
1.0054e-05
-5.56591e-07
1.01191e-05
8.58296e-07
1.0152e-05
2.26684e-06
1.01567e-05
3.66677e-06
1.01367e-05
5.05612e-06
1.00952e-05
6.43321e-06
1.00351e-05
7.79655e-06
9.95882e-06
9.14489e-06
9.86856e-06
1.04772e-05
1.17925e-05
1.30901e-05
1.43693e-05
1.56297e-05
1.68708e-05
1.80923e-05
1.92941e-05
2.04758e-05
2.16376e-05
2.27793e-05
2.39009e-05
2.50025e-05
2.60842e-05
2.71462e-05
2.81886e-05
2.92116e-05
3.02154e-05
3.12003e-05
3.21665e-05
3.31143e-05
3.4044e-05
3.49558e-05
3.585e-05
3.6727e-05
3.75871e-05
3.84305e-05
3.92576e-05
4.00687e-05
-2.4836e-06
-6.52422e-06
-1.07224e-05
-1.44031e-05
-1.74087e-05
-1.9744e-05
-2.14796e-05
-2.26983e-05
-2.34791e-05
-2.38912e-05
-2.39939e-05
-2.38366e-05
-2.34608e-05
-2.29011e-05
-2.21864e-05
-2.13412e-05
-2.03862e-05
-1.93391e-05
-1.8215e-05
-1.70268e-05
-1.57859e-05
-1.4502e-05
-1.31836e-05
-1.18382e-05
-1.04722e-05
-9.09131e-06
-7.70046e-06
-6.304e-06
-4.90574e-06
-3.50901e-06
-2.11671e-06
-7.31376e-07
6.44796e-07
2.0099e-06
3.36228e-06
)
;

boundaryField
{
    inlet
    {
        type            calculated;
        value           nonuniform 0();
    }
    outlet
    {
        type            calculated;
        value           nonuniform 0();
    }
    wall
    {
        type            calculated;
        value           uniform 0;
    }
    wedge1
    {
        type            wedge;
        value           nonuniform List<scalar> 
344
(
4.42611e-15
1.28002e-15
1.10592e-15
-6.33781e-15
2.38413e-15
8.03046e-15
2.42144e-15
2.17106e-15
-1.28684e-14
5.00714e-15
8.80408e-15
2.70853e-15
2.47321e-15
-1.4907e-14
5.89249e-15
8.08384e-15
2.52543e-15
2.33853e-15
-1.42762e-14
5.70936e-15
6.84364e-15
2.16328e-15
2.02458e-15
-1.24782e-14
5.03307e-15
5.49684e-15
1.75605e-15
1.65889e-15
-1.0309e-14
4.18835e-15
4.23257e-15
1.36791e-15
1.30505e-15
-8.17909e-15
3.34734e-15
3.11443e-15
1.02207e-15
9.87399e-16
-6.25335e-15
2.58183e-15
2.15268e-15
7.23501e-16
7.12143e-16
-4.5785e-15
1.91375e-15
1.33571e-15
4.69407e-16
4.77426e-16
-3.14758e-15
1.34187e-15
6.45182e-16
2.54379e-16
2.78575e-16
-1.93409e-15
8.56253e-16
6.29811e-17
7.26848e-17
1.10406e-16
-9.07615e-16
4.44925e-16
-4.32281e-16
-8.1168e-17
-3.19633e-17
-4.27841e-17
9.67592e-17
-8.50324e-16
-2.11471e-16
-1.52761e-16
7.02069e-16
-2.00045e-16
-1.20404e-15
-3.21835e-16
-2.55134e-16
1.33023e-15
-4.52204e-16
-1.50348e-15
-4.15354e-16
-3.41957e-16
1.86287e-15
-6.66263e-16
-1.75679e-15
-4.94556e-16
-4.15565e-16
2.31476e-15
-8.4806e-16
-1.97064e-15
-5.61512e-16
-4.77872e-16
2.69768e-15
-1.00229e-15
-2.15055e-15
-6.17942e-16
-5.30463e-16
3.02132e-15
-1.13281e-15
-2.30114e-15
-6.65274e-16
-5.74663e-16
3.29378e-15
-1.24287e-15
-2.42631e-15
-7.04723e-16
-6.11586e-16
3.52185e-15
-1.33517e-15
-2.52937e-15
-7.37314e-16
-6.42179e-16
3.7113e-15
-1.41201e-15
-9.68511e-16
-2.61314e-15
-7.63923e-16
-6.67252e-16
3.86707e-15
-1.47536e-15
-9.90994e-16
-2.68006e-15
-7.85304e-16
-6.87498e-16
3.99339e-15
-1.52693e-15
-1.00834e-15
-2.73221e-15
-8.02106e-16
-7.0352e-16
4.09392e-15
-1.56817e-15
-1.02119e-15
-2.77144e-15
-8.149e-16
-7.1584e-16
4.17186e-15
-1.60036e-15
-1.03009e-15
-2.79934e-15
-8.24179e-16
-7.24915e-16
4.22999e-15
-1.62461e-15
-1.03555e-15
-2.8173e-15
-8.30377e-16
-7.31143e-16
4.27074e-15
-1.64191e-15
-1.03797e-15
-2.82657e-15
-8.33872e-16
-7.34877e-16
4.29626e-15
-1.65309e-15
-1.03775e-15
-2.82821e-15
-8.35004e-16
-7.36427e-16
4.30843e-15
-1.65893e-15
-1.03521e-15
-2.8232e-15
-8.34068e-16
-7.36065e-16
4.30893e-15
-1.66009e-15
-1.03066e-15
-2.81237e-15
-8.31327e-16
-7.34035e-16
4.29923e-15
-1.65716e-15
-1.02434e-15
-2.79649e-15
-8.27013e-16
-7.3055e-16
4.28064e-15
-1.65066e-15
-1.0165e-15
-2.77621e-15
-8.21334e-16
-7.25802e-16
4.25433e-15
-1.64106e-15
-1.00735e-15
-2.75213e-15
-8.14473e-16
-7.19961e-16
4.22132e-15
-1.62878e-15
-9.97067e-16
-2.72479e-15
-8.06596e-16
-7.13176e-16
4.18254e-15
-1.61417e-15
-9.85812e-16
-2.69465e-15
-7.97844e-16
-7.05582e-16
4.1388e-15
-9.73736e-16
-2.66212e-15
-7.88349e-16
-6.97298e-16
4.09082e-15
-9.60967e-16
-2.62759e-15
-7.78226e-16
-6.8843e-16
4.03927e-15
-9.47623e-16
-2.59138e-15
-7.67578e-16
-6.79073e-16
3.9847e-15
-9.33803e-16
-2.55379e-15
-7.56495e-16
-6.6931e-16
3.92764e-15
-9.19601e-16
-2.51507e-15
-7.45059e-16
-6.59217e-16
3.86854e-15
-9.05098e-16
-2.47547e-15
-7.33342e-16
-6.4886e-16
3.8078e-15
-8.90367e-16
-2.43519e-15
-7.21408e-16
-6.38297e-16
3.74578e-15
-8.75471e-16
-2.39441e-15
-7.09313e-16
-6.27581e-16
3.68279e-15
-8.60467e-16
-2.3533e-15
-6.97108e-16
-6.16757e-16
3.61913e-15
-8.45406e-16
-2.31199e-15
-6.84837e-16
-6.05868e-16
3.55504e-15
-8.30331e-16
-2.27062e-15
-6.72539e-16
-5.94949e-16
3.49073e-15
-8.15282e-16
-2.2293e-15
-6.60248e-16
-5.84031e-16
3.42641e-15
-8.00292e-16
-2.18813e-15
-6.47996e-16
-5.73143e-16
3.36224e-15
-7.85392e-16
-2.14718e-15
-6.35808e-16
-5.62308e-16
3.29836e-15
-7.70607e-16
-2.10654e-15
-6.23707e-16
-5.51548e-16
3.23491e-15
-7.55961e-16
-2.06627e-15
-6.11714e-16
-5.40882e-16
3.172e-15
-7.41473e-16
-2.02642e-15
-5.99846e-16
-5.30325e-16
3.10973e-15
-7.2716e-16
-1.98705e-15
-5.88117e-16
-5.19891e-16
3.04817e-15
-7.13036e-16
-1.9482e-15
-5.76541e-16
-5.09592e-16
2.98741e-15
-6.99113e-16
-1.90989e-15
-5.65128e-16
-4.99438e-16
2.9275e-15
-6.85402e-16
-1.87217e-15
-5.53888e-16
-4.89436e-16
2.86849e-15
-6.7191e-16
-1.83505e-15
-5.42828e-16
-4.79595e-16
2.81043e-15
-6.58646e-16
-1.79855e-15
-5.31953e-16
-4.6992e-16
2.75334e-15
-6.45612e-16
-1.76269e-15
-5.21269e-16
-4.60414e-16
2.69727e-15
-6.32816e-16
-1.72749e-15
-5.1078e-16
-4.51082e-16
2.64221e-15
-6.20259e-16
-1.69294e-15
-5.00488e-16
-4.41926e-16
2.58821e-15
-6.07944e-16
-1.65906e-15
-4.90395e-16
-4.32949e-16
2.53525e-15
-5.9587e-16
-1.62585e-15
-4.80503e-16
-4.2415e-16
2.48336e-15
-5.8404e-16
-1.59332e-15
-4.70811e-16
-4.15531e-16
2.43253e-15
)
;
    }
    wedge2
    {
        type            wedge;
        value           nonuniform List<scalar> 
344
(
4.42611e-15
1.28002e-15
1.10592e-15
-6.33781e-15
2.38412e-15
8.03044e-15
2.42142e-15
2.17105e-15
-1.28684e-14
5.00713e-15
8.80406e-15
2.7085e-15
2.47318e-15
-1.49071e-14
5.89246e-15
8.08379e-15
2.52538e-15
2.33849e-15
-1.42763e-14
5.70932e-15
6.84357e-15
2.16322e-15
2.02452e-15
-1.24782e-14
5.03303e-15
5.49677e-15
1.75598e-15
1.65883e-15
-1.0309e-14
4.18829e-15
4.23249e-15
1.36783e-15
1.30497e-15
-8.17916e-15
3.34727e-15
3.11433e-15
1.02197e-15
9.87312e-16
-6.25343e-15
2.58176e-15
2.15256e-15
7.23395e-16
7.12046e-16
-4.57859e-15
1.91367e-15
1.33559e-15
4.69292e-16
4.7732e-16
-3.14768e-15
1.34178e-15
6.45058e-16
2.54262e-16
2.78462e-16
-1.9342e-15
8.56152e-16
6.28406e-17
7.25537e-17
1.10285e-16
-9.07726e-16
4.44823e-16
-4.32432e-16
-8.13074e-17
-3.20918e-17
-4.2899e-17
9.66535e-17
-8.50481e-16
-2.11617e-16
-1.52896e-16
7.01944e-16
-2.0016e-16
-1.2042e-15
-3.21982e-16
-2.55273e-16
1.3301e-15
-4.52327e-16
-1.50365e-15
-4.15511e-16
-3.42103e-16
1.86274e-15
-6.66386e-16
-1.75697e-15
-4.94718e-16
-4.15715e-16
2.31462e-15
-8.48185e-16
-1.97082e-15
-5.61679e-16
-4.78027e-16
2.69753e-15
-1.00242e-15
-2.15073e-15
-6.18109e-16
-5.30621e-16
3.02118e-15
-1.13295e-15
-2.30133e-15
-6.65449e-16
-5.74825e-16
3.29363e-15
-1.24301e-15
-2.42651e-15
-7.04903e-16
-6.11751e-16
3.5217e-15
-1.3353e-15
-2.52957e-15
-7.37496e-16
-6.42347e-16
3.71115e-15
-1.41215e-15
-9.68723e-16
-2.61334e-15
-7.64105e-16
-6.67421e-16
3.86692e-15
-1.4755e-15
-9.91201e-16
-2.68025e-15
-7.85485e-16
-6.87668e-16
3.99323e-15
-1.52707e-15
-1.00855e-15
-2.73241e-15
-8.02291e-16
-7.03691e-16
4.09377e-15
-1.56831e-15
-1.0214e-15
-2.77164e-15
-8.15085e-16
-7.16012e-16
4.17171e-15
-1.6005e-15
-1.03031e-15
-2.79954e-15
-8.24364e-16
-7.25086e-16
4.22983e-15
-1.62476e-15
-1.03576e-15
-2.8175e-15
-8.3056e-16
-7.31315e-16
4.27058e-15
-1.64205e-15
-1.03818e-15
-2.82676e-15
-8.34058e-16
-7.35049e-16
4.2961e-15
-1.65324e-15
-1.03796e-15
-2.82841e-15
-8.3519e-16
-7.36599e-16
4.30828e-15
-1.65908e-15
-1.03542e-15
-2.8234e-15
-8.34254e-16
-7.36237e-16
4.30877e-15
-1.66023e-15
-1.03087e-15
-2.81257e-15
-8.31512e-16
-7.34207e-16
4.29908e-15
-1.6573e-15
-1.02455e-15
-2.79668e-15
-8.27199e-16
-7.30722e-16
4.28049e-15
-1.6508e-15
-1.01672e-15
-2.77641e-15
-8.21519e-16
-7.25974e-16
4.25417e-15
-1.6412e-15
-1.00756e-15
-2.75233e-15
-8.14658e-16
-7.20132e-16
4.22116e-15
-1.62892e-15
-9.97276e-16
-2.72499e-15
-8.06778e-16
-7.13346e-16
4.18238e-15
-1.61432e-15
-9.86022e-16
-2.69484e-15
-7.98026e-16
-7.05751e-16
4.13864e-15
-9.73945e-16
-2.66232e-15
-7.88531e-16
-6.97466e-16
4.09067e-15
-9.61175e-16
-2.62779e-15
-7.78407e-16
-6.88597e-16
4.03911e-15
-9.47827e-16
-2.59157e-15
-7.67757e-16
-6.79239e-16
3.98455e-15
-9.34007e-16
-2.55398e-15
-7.56674e-16
-6.69475e-16
3.92749e-15
-9.19804e-16
-2.51526e-15
-7.45237e-16
-6.59381e-16
3.86839e-15
-9.053e-16
-2.47566e-15
-7.33518e-16
-6.49023e-16
3.80765e-15
-8.90566e-16
-2.43538e-15
-7.21582e-16
-6.38458e-16
3.74563e-15
-8.75669e-16
-2.3946e-15
-7.09486e-16
-6.27741e-16
3.68265e-15
-8.60664e-16
-2.35348e-15
-6.9728e-16
-6.16917e-16
3.61899e-15
-8.456e-16
-2.31218e-15
-6.85007e-16
-6.06026e-16
3.55489e-15
-8.30524e-16
-2.27081e-15
-6.72707e-16
-5.95105e-16
3.49059e-15
-8.15472e-16
-2.22948e-15
-6.60415e-16
-5.84186e-16
3.42627e-15
-8.0048e-16
-2.1883e-15
-6.48161e-16
-5.73296e-16
3.36209e-15
-7.85578e-16
-2.14735e-15
-6.35971e-16
-5.6246e-16
3.29822e-15
-7.70792e-16
-2.10671e-15
-6.23869e-16
-5.51698e-16
3.23477e-15
-7.56144e-16
-2.06644e-15
-6.11874e-16
-5.4103e-16
3.17186e-15
-7.41653e-16
-2.02659e-15
-6.00004e-16
-5.30472e-16
3.10959e-15
-7.27338e-16
-1.98722e-15
-5.88274e-16
-5.20036e-16
3.04804e-15
-7.13212e-16
-1.94836e-15
-5.76696e-16
-5.09736e-16
2.98728e-15
-6.99287e-16
-1.91006e-15
-5.65282e-16
-4.9958e-16
2.92737e-15
-6.85574e-16
-1.87233e-15
-5.5404e-16
-4.89577e-16
2.86836e-15
-6.7208e-16
-1.83521e-15
-5.42977e-16
-4.79734e-16
2.8103e-15
-6.58813e-16
-1.79871e-15
-5.32101e-16
-4.70057e-16
2.75322e-15
-6.45779e-16
-1.76285e-15
-5.21416e-16
-4.6055e-16
2.69714e-15
-6.3298e-16
-1.72764e-15
-5.10924e-16
-4.51216e-16
2.64209e-15
-6.20421e-16
-1.6931e-15
-5.0063e-16
-4.42059e-16
2.58808e-15
-6.08103e-16
-1.65921e-15
-4.90536e-16
-4.33079e-16
2.53513e-15
-5.96027e-16
-1.626e-15
-4.80642e-16
-4.24279e-16
2.48324e-15
-5.84195e-16
-1.59346e-15
-4.70948e-16
-4.15659e-16
2.43242e-15
)
;
    }
    axis
    {
        type            empty;
        value           nonuniform 0();
    }
    procBoundary33to27
    {
        type            processor;
        value           nonuniform List<scalar> 
67
(
-1.60292e-05
-1.63825e-05
-1.66535e-05
-1.68523e-05
-1.6988e-05
-1.70682e-05
-1.71e-05
-1.70893e-05
-1.70415e-05
-1.69614e-05
-1.68532e-05
-1.67207e-05
-1.6567e-05
-1.63953e-05
-1.62082e-05
-1.60079e-05
-1.57966e-05
-1.55761e-05
-1.53481e-05
-1.51141e-05
-1.48753e-05
-1.4633e-05
-1.43881e-05
-1.41415e-05
-1.38942e-05
-1.36467e-05
-1.33996e-05
-1.31537e-05
-1.29093e-05
-1.26668e-05
-1.24266e-05
-1.21891e-05
-1.19544e-05
-1.17229e-05
-1.14947e-05
-1.12699e-05
-1.10488e-05
-1.08314e-05
-1.06178e-05
-1.04081e-05
-1.02023e-05
-1.00005e-05
-9.80258e-06
-9.60868e-06
2.63505e-05
4.52127e-05
4.86964e-05
4.41438e-05
3.70649e-05
2.95654e-05
2.26078e-05
1.64896e-05
1.12429e-05
6.79286e-06
3.03381e-06
-1.39477e-07
-2.82066e-06
-5.08805e-06
-7.00713e-06
-8.63127e-06
-1.00044e-05
-1.11626e-05
-1.21361e-05
-1.295e-05
-1.36254e-05
-1.35566e-05
-1.41804e-05
)
;
    }
    procBoundary33to28
    {
        type            processor;
        value           uniform 6.10984e-05;
    }
    procBoundary33to34
    {
        type            processor;
        value           nonuniform List<scalar> 4(5.58398e-05 5.07038e-05 4.57068e-05 4.08641e-05);
    }
    procBoundary33to39
    {
        type            processor;
        value           nonuniform List<scalar> 
67
(
9.76632e-06
9.65385e-06
9.53271e-06
9.40428e-06
9.26981e-06
9.13039e-06
8.98699e-06
8.84048e-06
8.69162e-06
8.54109e-06
8.38949e-06
8.23735e-06
8.08513e-06
7.93324e-06
7.78203e-06
7.63183e-06
7.48288e-06
7.33544e-06
7.1897e-06
7.04583e-06
6.90398e-06
6.76426e-06
6.62679e-06
6.49164e-06
6.35887e-06
6.22855e-06
6.1007e-06
5.97536e-06
5.85254e-06
5.73225e-06
-1.29546e-05
-2.7129e-05
-3.19825e-05
-3.10644e-05
-2.74546e-05
-2.29064e-05
-1.83657e-05
-1.4227e-05
-1.0613e-05
-7.51842e-06
-4.88971e-06
-2.66183e-06
-7.72972e-07
8.30303e-07
2.19279e-06
3.35132e-06
4.33616e-06
5.17231e-06
5.88051e-06
6.47812e-06
6.97979e-06
7.39794e-06
7.74322e-06
8.02477e-06
8.25052e-06
8.42735e-06
8.56129e-06
8.65759e-06
8.72089e-06
8.75528e-06
8.76437e-06
8.75136e-06
8.71907e-06
8.67002e-06
8.60644e-06
4.70052e-06
8.53032e-06
)
;
    }
}


// ************************************************************************* //
