/*--------------------------------*- C++ -*----------------------------------*\
  =========                 |
  \\      /  F ield         | OpenFOAM: The Open Source CFD Toolbox
   \\    /   O peration     | Website:  https://openfoam.org
    \\  /    A nd           | Version:  7
     \\/     M anipulation  |
\*---------------------------------------------------------------------------*/
FoamFile
{
    version     2.0;
    format      ascii;
    class       volScalarField;
    location    "37.999794";
    object      p;
}
// * * * * * * * * * * * * * * * * * * * * * * * * * * * * * * * * * * * * * //

dimensions      [0 2 -2 0 0 0 0];

internalField   nonuniform List<scalar> 
5800
(
-0.234356
-0.234628
-0.234748
-0.234791
-0.234802
-0.0291132
-0.0297371
-0.0303606
-0.0309824
-0.0316018
-0.0322174
-0.0328284
-0.0334334
-0.0340311
-0.0346204
-0.0351996
-0.0357674
-0.0363221
-0.0368622
-0.0373858
-0.0378911
-0.0383763
-0.0388394
-0.0392784
-0.0396912
-0.0400755
-0.0404293
-0.04075
-0.0410355
-0.0412833
-0.041491
-0.041656
-0.041776
-0.0418483
-0.0418704
-0.0418399
-0.0417542
-0.041611
-0.0414077
-0.0411419
-0.0408115
-0.0404142
-0.0399479
-0.0394104
-0.0388003
-0.0381155
-0.0373549
-0.0365165
-0.0356002
-0.0346037
-0.033528
-0.0323706
-0.0311339
-0.0298148
-0.0284175
-0.0269377
-0.0253827
-0.0237456
-0.0220381
-0.020249
-0.0183968
-0.0164634
-0.0144769
-0.0124089
-0.0103013
-0.00810959
-0.00589558
-0.00358833
-0.00127145
-0.0292048
-0.0298307
-0.0304561
-0.03108
-0.0317012
-0.0323187
-0.0329315
-0.0335383
-0.0341378
-0.0347287
-0.0353095
-0.0358788
-0.0364349
-0.0369762
-0.0375009
-0.0380073
-0.0384934
-0.0389573
-0.0393969
-0.0398101
-0.0401948
-0.0405487
-0.0408694
-0.0411547
-0.0414021
-0.0416092
-0.0417735
-0.0418925
-0.0419637
-0.0419845
-0.0419525
-0.0418651
-0.0417199
-0.0415145
-0.0412465
-0.0409137
-0.0405136
-0.0400445
-0.0395041
-0.0388909
-0.0382028
-0.0374388
-0.0365969
-0.0356769
-0.0346767
-0.0335972
-0.0324359
-0.0311953
-0.0298722
-0.028471
-0.0269871
-0.0254283
-0.0237871
-0.0220759
-0.0202827
-0.0184271
-0.0164895
-0.0144999
-0.0124275
-0.0103173
-0.0081209
-0.00590504
-0.00359252
-0.00127469
-0.02938
-0.0300103
-0.03064
-0.031268
-0.0318932
-0.0325147
-0.0331313
-0.0337418
-0.0343448
-0.034939
-0.035523
-0.0360952
-0.036654
-0.0371978
-0.0377249
-0.0382333
-0.0387212
-0.0391866
-0.0396274
-0.0400415
-0.0404268
-0.0407809
-0.0411016
-0.0413865
-0.0416332
-0.0418392
-0.042002
-0.0421191
-0.0421881
-0.0422063
-0.0421713
-0.0420806
-0.0419317
-0.0417223
-0.0414498
-0.0411121
-0.040707
-0.0402324
-0.0396862
-0.0390669
-0.0383724
-0.0376017
-0.036753
-0.0358259
-0.0348185
-0.0337315
-0.0325627
-0.0313145
-0.0299836
-0.0285748
-0.0270831
-0.0255167
-0.0238676
-0.022149
-0.0203482
-0.0184854
-0.0165403
-0.0145439
-0.0124642
-0.0103476
-0.00814388
-0.00592216
-0.00360217
-0.00127913
-0.0296377
-0.0302743
-0.0309102
-0.0315441
-0.0321752
-0.0328023
-0.0334244
-0.0340401
-0.0346481
-0.0352471
-0.0358356
-0.0364121
-0.0369749
-0.0375223
-0.0380526
-0.038564
-0.0390544
-0.0395219
-0.0399645
-0.0403799
-0.040766
-0.0411205
-0.0414411
-0.0417253
-0.0419709
-0.0421752
-0.0423358
-0.0424502
-0.0425159
-0.0425303
-0.0424909
-0.0423953
-0.042241
-0.0420255
-0.0417465
-0.0414018
-0.040989
-0.0405064
-0.0399517
-0.0393235
-0.0386196
-0.0378393
-0.0369805
-0.0360431
-0.035025
-0.0339272
-0.0327474
-0.031488
-0.0301459
-0.0287258
-0.0272228
-0.0256451
-0.0239849
-0.0222553
-0.0204435
-0.01857
-0.0166143
-0.0146078
-0.0125176
-0.0103914
-0.00817748
-0.00594675
-0.00361654
-0.00128493
-0.0299733
-0.0306182
-0.0312621
-0.0319038
-0.0325425
-0.033177
-0.0338061
-0.0344287
-0.0350433
-0.0356485
-0.0362429
-0.0368249
-0.0373928
-0.0379449
-0.0384795
-0.0389946
-0.0394883
-0.0399586
-0.0404033
-0.0408203
-0.0412075
-0.0415624
-0.0418827
-0.0421661
-0.0424101
-0.0426122
-0.0427699
-0.0428807
-0.042942
-0.0429514
-0.0429063
-0.0428042
-0.0426426
-0.0424193
-0.0421317
-0.0417777
-0.0413551
-0.040862
-0.0402962
-0.0396563
-0.0389403
-0.0381473
-0.0372754
-0.0363245
-0.0352925
-0.0341807
-0.0329865
-0.0317126
-0.0303558
-0.0289211
-0.0274034
-0.0258112
-0.0241364
-0.0223926
-0.0205665
-0.0186793
-0.0167097
-0.0146901
-0.0125865
-0.0104479
-0.00822085
-0.00597838
-0.00363512
-0.00129217
-0.0303844
-0.0310394
-0.0316931
-0.0323444
-0.0329924
-0.0336358
-0.0342736
-0.0349045
-0.0355271
-0.0361399
-0.0367415
-0.0373301
-0.0379042
-0.038462
-0.0390017
-0.0395213
-0.0400189
-0.0404924
-0.0409397
-0.0413586
-0.0417469
-0.0421022
-0.0424222
-0.0427044
-0.0429464
-0.0431457
-0.0432997
-0.043406
-0.0434619
-0.043465
-0.0434127
-0.0433026
-0.0431322
-0.0428992
-0.042601
-0.0422357
-0.041801
-0.0412949
-0.0407155
-0.0400613
-0.0393303
-0.0385218
-0.0376338
-0.0366664
-0.0356176
-0.0344885
-0.0332767
-0.0319852
-0.0306105
-0.0291579
-0.0276223
-0.0260124
-0.0243198
-0.0225587
-0.0207153
-0.0188115
-0.0168251
-0.0147896
-0.0126697
-0.0105161
-0.00827326
-0.00601648
-0.00365756
-0.00130079
-0.030869
-0.0315359
-0.0322011
-0.0328636
-0.0335223
-0.0341763
-0.0348242
-0.0354649
-0.0360968
-0.0367184
-0.0373282
-0.0379246
-0.0385059
-0.0390702
-0.0396158
-0.0401406
-0.0406427
-0.0411199
-0.0415701
-0.0419911
-0.0423806
-0.0427363
-0.0430556
-0.0433363
-0.0435758
-0.0437717
-0.0439212
-0.044022
-0.0440715
-0.0440671
-0.0440063
-0.0438867
-0.0437057
-0.0434611
-0.0431505
-0.0427717
-0.0423226
-0.0418013
-0.0412057
-0.0405347
-0.0397861
-0.0389593
-0.0380524
-0.0370655
-0.0359968
-0.0348474
-0.0336151
-0.0323028
-0.0309071
-0.0294336
-0.0278769
-0.0262463
-0.024533
-0.0227517
-0.0208881
-0.0189648
-0.0169589
-0.0149049
-0.0127662
-0.0105951
-0.00833395
-0.00606053
-0.00368355
-0.00131071
-0.0314253
-0.0321057
-0.0327841
-0.0334593
-0.0341304
-0.0347963
-0.0354557
-0.0361074
-0.0367499
-0.0373815
-0.0380007
-0.0386059
-0.0391952
-0.0397669
-0.040319
-0.0408497
-0.0413567
-0.041838
-0.0422914
-0.0427146
-0.0431053
-0.0434611
-0.0437797
-0.0440584
-0.0442949
-0.0444866
-0.0446309
-0.0447252
-0.0447671
-0.0447539
-0.0446832
-0.0445525
-0.0443593
-0.0441014
-0.0437763
-0.0433819
-0.0429162
-0.0423774
-0.0417633
-0.0410728
-0.040304
-0.0394562
-0.0385277
-0.0375186
-0.036427
-0.0352544
-0.0339985
-0.0326625
-0.0312428
-0.0297455
-0.0281649
-0.0265107
-0.0247738
-0.0229695
-0.021083
-0.0191377
-0.0171097
-0.0150347
-0.0128748
-0.0106839
-0.0084022
-0.00611002
-0.00371277
-0.0013218
-0.0320521
-0.0327476
-0.0334407
-0.0341301
-0.0348149
-0.0354941
-0.0361664
-0.0368304
-0.0374845
-0.0381272
-0.0387568
-0.0393717
-0.0399699
-0.0405497
-0.041109
-0.041646
-0.0421583
-0.042644
-0.0431007
-0.0435262
-0.043918
-0.0442739
-0.0445912
-0.0448676
-0.0451004
-0.0452872
-0.0454254
-0.0455123
-0.0455454
-0.0455222
-0.0454401
-0.0452967
-0.0450896
-0.0448165
-0.044475
-0.0440631
-0.0435786
-0.0430199
-0.0423849
-0.0416725
-0.0408809
-0.0400095
-0.0390565
-0.0380224
-0.0369052
-0.0357066
-0.0344242
-0.0330616
-0.0316152
-0.0300911
-0.0284838
-0.0268032
-0.0250402
-0.0232102
-0.0212983
-0.0193284
-0.017276
-0.0151778
-0.0129945
-0.0107816
-0.0084773
-0.00616441
-0.00374489
-0.00133395
-0.0327483
-0.0334605
-0.0341697
-0.0348748
-0.0355747
-0.0362685
-0.0369549
-0.0376323
-0.0382992
-0.038954
-0.0395949
-0.0402202
-0.0408281
-0.0414166
-0.0419837
-0.0425274
-0.0430454
-0.0435357
-0.0439958
-0.0444235
-0.0448163
-0.0451719
-0.0454876
-0.0457611
-0.0459896
-0.0461707
-0.0463018
-0.0463802
-0.0464033
-0.0463687
-0.0462738
-0.0461162
-0.0458935
-0.0456033
-0.0452434
-0.0448119
-0.0443064
-0.0437256
-0.0430673
-0.0423306
-0.0415136
-0.040616
-0.0396359
-0.0385741
-0.0374285
-0.0362012
-0.0348896
-0.0334976
-0.0320217
-0.0304682
-0.0288315
-0.0271219
-0.02533
-0.023472
-0.0215321
-0.0195355
-0.0174564
-0.0153328
-0.013124
-0.0108873
-0.00855853
-0.00622321
-0.00377961
-0.00134707
-0.0335133
-0.0342437
-0.0349705
-0.0356925
-0.0364088
-0.0371184
-0.03782
-0.038512
-0.0391927
-0.0398604
-0.0405135
-0.0411501
-0.0417682
-0.042366
-0.0429413
-0.0434921
-0.0440161
-0.044511
-0.0449746
-0.0454044
-0.0457979
-0.0461528
-0.0464665
-0.0467364
-0.0469599
-0.0471344
-0.0472574
-0.0473262
-0.0473381
-0.0472907
-0.0471815
-0.0470081
-0.046768
-0.0464589
-0.0460787
-0.0456253
-0.0450968
-0.0444915
-0.0438077
-0.0430441
-0.0421993
-0.0412728
-0.0402631
-0.0391709
-0.0379943
-0.0367355
-0.035392
-0.033968
-0.0324598
-0.0308743
-0.0292056
-0.0274645
-0.0256413
-0.0237529
-0.0217829
-0.0197573
-0.0176494
-0.0154986
-0.0132624
-0.0110002
-0.0086452
-0.0062859
-0.00381662
-0.00136104
-0.0343467
-0.0350967
-0.0358424
-0.0365826
-0.0373165
-0.0380431
-0.038761
-0.0394685
-0.040164
-0.0408456
-0.0415116
-0.0421601
-0.0427891
-0.0433966
-0.0439805
-0.0445386
-0.0450686
-0.0455682
-0.0460351
-0.0464669
-0.0468609
-0.0472147
-0.0475257
-0.0477914
-0.048009
-0.048176
-0.0482898
-0.0483477
-0.0483472
-0.0482857
-0.0481606
-0.0479696
-0.0477103
-0.0473805
-0.0469779
-0.0465007
-0.0459469
-0.0453149
-0.0446031
-0.0438104
-0.0429352
-0.0419774
-0.0409354
-0.0398102
-0.0385999
-0.037307
-0.035929
-0.0344703
-0.0329273
-0.0313072
-0.0296041
-0.0278291
-0.0259723
-0.0240513
-0.022049
-0.0199924
-0.0178538
-0.015674
-0.0134087
-0.0111194
-0.00873665
-0.00635201
-0.00385562
-0.00137576
-0.0352484
-0.0360192
-0.0367852
-0.0375449
-0.0382976
-0.0390422
-0.0397774
-0.0405014
-0.0412124
-0.0419086
-0.0425882
-0.0432492
-0.0438895
-0.0445071
-0.0450999
-0.0456655
-0.0462016
-0.0467059
-0.047176
-0.0476093
-0.0480033
-0.0483555
-0.0486633
-0.0489239
-0.0491348
-0.0492933
-0.0493968
-0.0494426
-0.0494282
-0.049351
-0.0492085
-0.0489983
-0.048718
-0.0483655
-0.0479385
-0.0474354
-0.0468541
-0.0461932
-0.0454509
-0.0446266
-0.0437186
-0.042727
-0.0416502
-0.0404894
-0.0392429
-0.0379132
-0.0364982
-0.0350023
-0.033422
-0.0317649
-0.0300249
-0.0282137
-0.0263211
-0.0243653
-0.0223288
-0.0202393
-0.0180682
-0.0158578
-0.0135618
-0.0112441
-0.0088322
-0.00642105
-0.00389631
-0.00139113
-0.0362184
-0.0370115
-0.0377989
-0.0385791
-0.0393517
-0.0401154
-0.0408688
-0.0416101
-0.0423375
-0.043049
-0.0437427
-0.0444166
-0.0450687
-0.0456967
-0.0462985
-0.0468716
-0.0474139
-0.0479227
-0.0483957
-0.0488302
-0.0492238
-0.0495737
-0.0498774
-0.0501322
-0.0503354
-0.0504843
-0.0505763
-0.0506087
-0.0505789
-0.0504845
-0.0503229
-0.0500917
-0.0497886
-0.0494114
-0.0489581
-0.0484269
-0.0478158
-0.0471237
-0.0463488
-0.0454904
-0.0445471
-0.0435192
-0.0424051
-0.0412061
-0.0399208
-0.0385519
-0.0370972
-0.0355617
-0.0339417
-0.0322452
-0.030466
-0.0286165
-0.0266859
-0.0246934
-0.0226206
-0.0204966
-0.0182914
-0.0160488
-0.0137208
-0.0113735
-0.00893119
-0.00649254
-0.00393841
-0.00140705
-0.0372569
-0.0380735
-0.0388835
-0.0396854
-0.0404788
-0.0412625
-0.0420351
-0.0427945
-0.0435389
-0.0442662
-0.0449746
-0.0456619
-0.046326
-0.0469646
-0.0475755
-0.0481562
-0.0487043
-0.0492174
-0.0496929
-0.0501283
-0.0505207
-0.0508678
-0.0511666
-0.0514146
-0.051609
-0.0517471
-0.0518263
-0.0518439
-0.0517974
-0.0516841
-0.0515017
-0.0512477
-0.0509198
-0.050516
-0.0500342
-0.0494728
-0.0488298
-0.0481041
-0.0472941
-0.0463993
-0.0454183
-0.0443515
-0.0431976
-0.041958
-0.0406314
-0.0392208
-0.037724
-0.0361464
-0.0344842
-0.0327461
-0.0309255
-0.0290355
-0.027065
-0.0250338
-0.0229231
-0.0207629
-0.018522
-0.016246
-0.0138847
-0.0115066
-0.00903301
-0.00656603
-0.00398162
-0.00142342
-0.0383643
-0.0392056
-0.0400393
-0.040864
-0.0416792
-0.0424837
-0.0432761
-0.0440544
-0.0448164
-0.0455601
-0.0462836
-0.0469845
-0.0476608
-0.0483101
-0.0489301
-0.0495182
-0.0500721
-0.0505891
-0.0510667
-0.0515022
-0.0518929
-0.0522362
-0.0525293
-0.0527694
-0.0529539
-0.0530801
-0.0531451
-0.0531465
-0.0530815
-0.0529478
-0.0527427
-0.0524641
-0.0521095
-0.0516771
-0.0511647
-0.0505708
-0.0498936
-0.0491321
-0.0482847
-0.047351
-0.0463299
-0.0452218
-0.0440256
-0.0427429
-0.0413725
-0.0399176
-0.0383764
-0.0367542
-0.0350477
-0.0332656
-0.0314015
-0.029469
-0.0274566
-0.025385
-0.0232347
-0.0210368
-0.0187589
-0.0164482
-0.0140525
-0.0116428
-0.00913701
-0.00664106
-0.00402567
-0.00144014
-0.0395413
-0.0404084
-0.0412669
-0.0421152
-0.042953
-0.0437793
-0.0445922
-0.0453899
-0.04617
-0.0469305
-0.0476693
-0.0483842
-0.0490728
-0.0497328
-0.0503617
-0.050957
-0.0515163
-0.0520368
-0.0525159
-0.0529509
-0.0533391
-0.0536777
-0.0539641
-0.0541953
-0.0543687
-0.0544814
-0.054531
-0.0545145
-0.0544295
-0.0542736
-0.0540441
-0.0537389
-0.0533557
-0.0528925
-0.0523474
-0.0517189
-0.0510052
-0.0502055
-0.0493183
-0.0483434
-0.0472797
-0.0461278
-0.0448868
-0.0435585
-0.0421419
-0.0406404
-0.0390522
-0.0373833
-0.0356301
-0.033802
-0.0318922
-0.0299153
-0.0278591
-0.0257455
-0.0235539
-0.021317
-0.0190008
-0.0166544
-0.0142233
-0.0117813
-0.00924259
-0.00671718
-0.00407029
-0.00145712
-0.0407885
-0.0416825
-0.0425667
-0.0434396
-0.0443008
-0.0451494
-0.0459836
-0.0468011
-0.0475998
-0.0483774
-0.0491318
-0.0498606
-0.0505616
-0.0512321
-0.0518698
-0.052472
-0.0530362
-0.0535596
-0.0540396
-0.0544734
-0.0548581
-0.0551912
-0.0554696
-0.0556907
-0.0558517
-0.0559497
-0.0559822
-0.0559463
-0.0558397
-0.0556597
-0.055404
-0.0550702
-0.0546563
-0.0541603
-0.0535803
-0.0529149
-0.0521625
-0.0513222
-0.0503928
-0.0493743
-0.0482655
-0.0470674
-0.0457791
-0.0444028
-0.0429375
-0.0413871
-0.0397496
-0.0380317
-0.0362296
-0.0343532
-0.0323959
-0.0303726
-0.028271
-0.0261137
-0.0238795
-0.0216022
-0.0192466
-0.0168636
-0.0143963
-0.0119214
-0.00934914
-0.00679396
-0.00411521
-0.00147428
-0.0421067
-0.0430286
-0.0439394
-0.0448376
-0.045723
-0.0465946
-0.0474505
-0.0482884
-0.0491059
-0.0499009
-0.050671
-0.0514138
-0.0521269
-0.0528078
-0.0534539
-0.0540626
-0.0546312
-0.0551569
-0.0556369
-0.0560686
-0.056449
-0.0567753
-0.0570447
-0.0572544
-0.0574015
-0.0574834
-0.0574972
-0.0574403
-0.0573101
-0.0571043
-0.0568204
-0.0564562
-0.0560095
-0.0554785
-0.0548614
-0.0541568
-0.0533633
-0.0524802
-0.0515062
-0.0504416
-0.0492853
-0.0480385
-0.0467006
-0.0452738
-0.0437574
-0.0421556
-0.0404667
-0.0386974
-0.0368443
-0.0349177
-0.0329108
-0.0308394
-0.0286906
-0.0264882
-0.0242099
-0.0218912
-0.0194951
-0.0170747
-0.0145705
-0.0120622
-0.00945609
-0.00687098
-0.00416017
-0.00149151
-0.0434969
-0.0444477
-0.0453859
-0.0463102
-0.0472203
-0.0481154
-0.0489934
-0.049852
-0.0506886
-0.051501
-0.0522868
-0.0530435
-0.0537686
-0.0544596
-0.0551137
-0.0557283
-0.0563006
-0.0568278
-0.0573071
-0.0577356
-0.0581106
-0.058429
-0.0586881
-0.058885
-0.0590169
-0.0590809
-0.0590744
-0.0589948
-0.0588393
-0.0586058
-0.0582917
-0.0578949
-0.0574133
-0.0568451
-0.0561887
-0.0554427
-0.0546059
-0.0536775
-0.0526565
-0.0515433
-0.0503371
-0.0490393
-0.0476492
-0.0461696
-0.0445997
-0.0429442
-0.0412014
-0.0393787
-0.0374724
-0.0354937
-0.0334354
-0.031314
-0.0291165
-0.0268675
-0.024544
-0.0221827
-0.0197453
-0.0172868
-0.0147451
-0.0122031
-0.00956286
-0.00694781
-0.0042049
-0.00150873
-0.0449601
-0.0459406
-0.046907
-0.0478579
-0.0487933
-0.0497123
-0.0506129
-0.0514923
-0.0523482
-0.053178
-0.0539794
-0.0547498
-0.0554866
-0.0561871
-0.0568487
-0.0574685
-0.0580438
-0.0585716
-0.0590492
-0.0594736
-0.0598419
-0.0601512
-0.0603986
-0.0605812
-0.0606963
-0.0607409
-0.0607125
-0.0606082
-0.0604256
-0.0601624
-0.0598161
-0.0593846
-0.058866
-0.0582585
-0.0575605
-0.0567708
-0.0558881
-0.0549121
-0.0538418
-0.0526776
-0.051419
-0.0500677
-0.048623
-0.0470882
-0.0454625
-0.043751
-0.0419522
-0.0400738
-0.0381123
-0.0360794
-0.0339678
-0.031795
-0.0295472
-0.0272503
-0.0248803
-0.0224755
-0.0199959
-0.0174988
-0.0149193
-0.0123433
-0.00966889
-0.00702406
-0.00424917
-0.00152585
-0.0464973
-0.0475083
-0.0485035
-0.0494817
-0.0504428
-0.0513861
-0.0523093
-0.0532098
-0.0540849
-0.0549321
-0.0557488
-0.0565325
-0.0572806
-0.0579902
-0.0586585
-0.0592829
-0.0598602
-0.0603878
-0.0608625
-0.0612816
-0.061642
-0.0619408
-0.062175
-0.0623419
-0.0624385
-0.062462
-0.0624097
-0.0622791
-0.0620674
-0.0617725
-0.0613919
-0.0609237
-0.0603658
-0.0597167
-0.0589748
-0.058139
-0.0572083
-0.0561822
-0.0550601
-0.0538426
-0.0525292
-0.0511219
-0.0496203
-0.0480278
-0.0463439
-0.0445742
-0.0427171
-0.0407809
-0.0387622
-0.0366733
-0.0345067
-0.0322808
-0.0299813
-0.0276352
-0.0252177
-0.0227686
-0.0202461
-0.0177098
-0.0150922
-0.0124823
-0.00977363
-0.00709932
-0.00429272
-0.00154279
-0.0481098
-0.049152
-0.0501766
-0.0511824
-0.0521696
-0.0531374
-0.0540834
-0.0550049
-0.0558991
-0.0567634
-0.0575952
-0.0583918
-0.0591505
-0.0598685
-0.0605429
-0.0611708
-0.0617493
-0.0622754
-0.0627462
-0.0631586
-0.0635098
-0.0637966
-0.0640162
-0.0641656
-0.064242
-0.0642426
-0.0641647
-0.0640056
-0.0637631
-0.0634344
-0.0630175
-0.0625103
-0.061911
-0.061218
-0.0604299
-0.0595458
-0.0585645
-0.057486
-0.0563097
-0.0550364
-0.0536658
-0.0522001
-0.0506391
-0.0489866
-0.0472423
-0.0454121
-0.0434945
-0.0414985
-0.0394206
-0.0372738
-0.0350505
-0.0327699
-0.0304173
-0.0280209
-0.0255548
-0.0230606
-0.0204947
-0.017919
-0.015263
-0.0126193
-0.00987656
-0.0071732
-0.00433531
-0.00155946
-0.0497988
-0.0508727
-0.0519272
-0.0529609
-0.0539745
-0.0549669
-0.0559357
-0.0568781
-0.0577912
-0.0586722
-0.0595185
-0.0603275
-0.0610962
-0.0618218
-0.0625013
-0.0631318
-0.0637104
-0.0642339
-0.0646994
-0.0651038
-0.0654442
-0.0657176
-0.0659209
-0.0660512
-0.0661057
-0.0660816
-0.0659761
-0.0657867
-0.065511
-0.0651466
-0.0646911
-0.0641428
-0.0634998
-0.0627607
-0.0619241
-0.0609892
-0.0599551
-0.0588218
-0.0575888
-0.0562573
-0.054827
-0.0533005
-0.0516778
-0.049963
-0.048156
-0.0462629
-0.0442828
-0.0422249
-0.0400859
-0.0378794
-0.0355977
-0.033261
-0.030854
-0.0284062
-0.0258906
-0.0233506
-0.0207407
-0.0181255
-0.0154309
-0.0127536
-0.00997716
-0.00724533
-0.00437672
-0.00157579
-0.0515655
-0.0526717
-0.0537563
-0.0548183
-0.0558582
-0.0568752
-0.0578668
-0.0588298
-0.0597614
-0.0606587
-0.061519
-0.0623396
-0.0631175
-0.0638497
-0.0645334
-0.0651654
-0.0657428
-0.0662624
-0.0667212
-0.0671162
-0.0674444
-0.0677026
-0.0678879
-0.0679973
-0.0680281
-0.0679773
-0.0678424
-0.0676206
-0.0673097
-0.0669073
-0.0664112
-0.0658195
-0.0651306
-0.0643431
-0.0634556
-0.0624676
-0.0613783
-0.0601877
-0.0588957
-0.0575035
-0.0560112
-0.0544216
-0.0527348
-0.0509553
-0.0490832
-0.0471252
-0.0450804
-0.0429586
-0.0407565
-0.0384887
-0.036147
-0.0337527
-0.03129
-0.0287897
-0.0262238
-0.0236375
-0.0209833
-0.0183282
-0.0155953
-0.0128847
-0.0100749
-0.00731534
-0.00441672
-0.00159169
-0.0534112
-0.0545502
-0.0556651
-0.0567553
-0.0578217
-0.0588631
-0.0598771
-0.0608604
-0.06181
-0.062723
-0.0635966
-0.0644279
-0.0652141
-0.065952
-0.0666386
-0.0672709
-0.0678458
-0.0683601
-0.0688108
-0.0691948
-0.069509
-0.0697504
-0.0699159
-0.0700027
-0.0700078
-0.0699284
-0.069762
-0.0695058
-0.0691576
-0.0687151
-0.0681761
-0.0675389
-0.0668017
-0.0659635
-0.0650228
-0.0639794
-0.0628323
-0.0615822
-0.0602287
-0.0587735
-0.0572167
-0.0555615
-0.0538082
-0.0519618
-0.0500224
-0.0479974
-0.0458857
-0.0436981
-0.0414311
-0.0391001
-0.0366969
-0.0342436
-0.0317241
-0.0291704
-0.0265534
-0.0239203
-0.0212213
-0.0185265
-0.0157553
-0.0130118
-0.0101693
-0.00738286
-0.00445508
-0.00160708
-0.0553373
-0.0565092
-0.0576547
-0.0587731
-0.0598656
-0.0609313
-0.0619673
-0.0629704
-0.0639374
-0.0648653
-0.0657513
-0.0665924
-0.0673858
-0.0681282
-0.0688165
-0.0694477
-0.0700187
-0.0705262
-0.0709672
-0.0713385
-0.0716371
-0.0718598
-0.0720037
-0.0720659
-0.0720434
-0.0719334
-0.0717334
-0.0714407
-0.0710531
-0.0705683
-0.0699842
-0.0692992
-0.0685115
-0.0676202
-0.066624
-0.0655227
-0.0643157
-0.0630035
-0.0615861
-0.0600654
-0.0584419
-0.0567187
-0.0548967
-0.052981
-0.0509721
-0.0488778
-0.0466973
-0.0444419
-0.0421081
-0.0397123
-0.037246
-0.0347326
-0.032155
-0.0295471
-0.0268783
-0.0241979
-0.021454
-0.0187195
-0.0159103
-0.0131345
-0.0102599
-0.00744756
-0.00449159
-0.00162189
-0.0573452
-0.0585501
-0.059726
-0.0608724
-0.0619909
-0.0630803
-0.0641379
-0.06516
-0.0661436
-0.0670855
-0.0679829
-0.0688328
-0.0696322
-0.0703777
-0.0710665
-0.0716951
-0.0722606
-0.0727597
-0.0731893
-0.0735462
-0.0738273
-0.0740296
-0.07415
-0.0741855
-0.0741334
-0.0739909
-0.0737552
-0.0734238
-0.0729946
-0.0724653
-0.0718339
-0.0710987
-0.0702583
-0.0693116
-0.0682576
-0.067096
-0.0658266
-0.06445
-0.0629664
-0.0613779
-0.0596851
-0.0578917
-0.0559986
-0.0540114
-0.0519308
-0.0497651
-0.0475136
-0.0451885
-0.0427863
-0.0403241
-0.0377933
-0.0352183
-0.0325816
-0.0299186
-0.0271974
-0.0244693
-0.0216804
-0.0189064
-0.0160595
-0.0132522
-0.0103463
-0.00750908
-0.00452604
-0.00163605
-0.059436
-0.0606739
-0.06188
-0.0630542
-0.0641982
-0.0653108
-0.0663892
-0.0674296
-0.0684288
-0.0693838
-0.0702914
-0.0711488
-0.0719528
-0.0727002
-0.0733877
-0.0740123
-0.0745706
-0.0750596
-0.075476
-0.0758167
-0.0760785
-0.0762583
-0.0763532
-0.0763602
-0.0762764
-0.0760991
-0.0758257
-0.0754535
-0.0749805
-0.0744045
-0.0737235
-0.072936
-0.0720405
-0.0710361
-0.0699219
-0.0686978
-0.0673636
-0.0659202
-0.064368
-0.0627093
-0.0609449
-0.0590789
-0.0571124
-0.0550515
-0.0528969
-0.0506578
-0.0483334
-0.0459367
-0.0434643
-0.040934
-0.0383372
-0.0356995
-0.0330028
-0.0302839
-0.0275097
-0.0247338
-0.0218998
-0.0190865
-0.0162023
-0.0133642
-0.0104279
-0.00756709
-0.00455822
-0.00164948
-0.0616111
-0.0628819
-0.0641179
-0.0653193
-0.0664881
-0.0676232
-0.0687215
-0.0697793
-0.0707931
-0.0717598
-0.0726765
-0.07354
-0.0743471
-0.0750947
-0.0757795
-0.0763983
-0.0769478
-0.0774248
-0.0778262
-0.0781487
-0.0783892
-0.0785447
-0.078612
-0.0785884
-0.0784708
-0.0782566
-0.0779433
-0.0775282
-0.0770093
-0.0763843
-0.0756515
-0.0748093
-0.0738564
-0.072792
-0.0716153
-0.0703263
-0.068925
-0.0674125
-0.0657893
-0.064058
-0.0622198
-0.0602789
-0.0582367
-0.0560998
-0.0538692
-0.0515545
-0.0491553
-0.0466852
-0.0441407
-0.041541
-0.0388768
-0.0361752
-0.0334174
-0.0306419
-0.0278142
-0.0249902
-0.0221111
-0.019259
-0.0163381
-0.01347
-0.0105043
-0.00762128
-0.00458794
-0.00166211
-0.0638718
-0.0651751
-0.0664404
-0.0676684
-0.0688612
-0.0700179
-0.0711352
-0.0722091
-0.0732363
-0.0742135
-0.0751377
-0.0760058
-0.0768146
-0.0775607
-0.078241
-0.0788522
-0.079391
-0.0798542
-0.0802385
-0.0805409
-0.0807582
-0.0808872
-0.0809249
-0.0808685
-0.080715
-0.0804618
-0.0801063
-0.0796462
-0.0790791
-0.078403
-0.0776161
-0.076717
-0.0757045
-0.0745778
-0.0733362
-0.0719801
-0.0705093
-0.0689253
-0.0672288
-0.0654227
-0.0635083
-0.0614902
-0.0593701
-0.057155
-0.0548463
-0.052454
-0.049978
-0.0474326
-0.0448145
-0.0421437
-0.0394109
-0.0366443
-0.0338245
-0.0309917
-0.0281101
-0.0252379
-0.0223138
-0.0194231
-0.0164662
-0.0135692
-0.0105751
-0.00767133
-0.00461501
-0.00167387
-0.0662192
-0.0675545
-0.0688485
-0.0701022
-0.0713181
-0.0724953
-0.0736303
-0.0747192
-0.0757582
-0.0767444
-0.0776746
-0.0785456
-0.0793543
-0.0800972
-0.0807711
-0.0813728
-0.0818989
-0.0823463
-0.0827117
-0.0829919
-0.0831838
-0.0832842
-0.0832903
-0.083199
-0.0830075
-0.0827131
-0.0823134
-0.0818059
-0.0811884
-0.080459
-0.0796158
-0.0786576
-0.0775831
-0.0763918
-0.0750832
-0.0736575
-0.072115
-0.0704572
-0.0686851
-0.0668019
-0.0648089
-0.0627114
-0.0605112
-0.0582158
-0.0558268
-0.0533549
-0.0508002
-0.0481778
-0.0454844
-0.042741
-0.0399382
-0.0371055
-0.0342229
-0.0313322
-0.0283963
-0.0254758
-0.0225069
-0.0195783
-0.016586
-0.0136611
-0.01064
-0.00771695
-0.00463924
-0.00168469
-0.0686545
-0.0700211
-0.0713428
-0.0726212
-0.0738591
-0.0750555
-0.0762069
-0.0773092
-0.0783586
-0.0793521
-0.0802866
-0.0811587
-0.0819654
-0.0827031
-0.0833687
-0.0839589
-0.0844704
-0.0848999
-0.0852442
-0.0855001
-0.0856645
-0.0857343
-0.0857065
-0.0855782
-0.0853465
-0.0850088
-0.0845626
-0.0840056
-0.0833355
-0.0825505
-0.0816488
-0.0806293
-0.0794907
-0.0782326
-0.0768546
-0.0753571
-0.0737406
-0.0720068
-0.0701568
-0.0681941
-0.0661204
-0.0639413
-0.0616587
-0.0592809
-0.0568095
-0.0542561
-0.0516207
-0.0489195
-0.0461492
-0.0433319
-0.0404579
-0.0375581
-0.0346117
-0.0316626
-0.0286721
-0.0257034
-0.0226899
-0.0197239
-0.016697
-0.0137453
-0.0106985
-0.00775783
-0.00466045
-0.00169451
-0.0711788
-0.0725757
-0.073924
-0.0752258
-0.0764844
-0.0776987
-0.0788649
-0.0799789
-0.081037
-0.082036
-0.0829728
-0.0838442
-0.0846468
-0.0853774
-0.0860327
-0.0866093
-0.0871039
-0.0875134
-0.0878345
-0.088064
-0.0881987
-0.0882357
-0.0881718
-0.0880043
-0.0877303
-0.0873471
-0.0868523
-0.0862436
-0.0855187
-0.084676
-0.0837136
-0.0826305
-0.0814256
-0.0800985
-0.0786488
-0.0770774
-0.0753846
-0.0735725
-0.0716424
-0.069598
-0.0674414
-0.0651784
-0.0628114
-0.060349
-0.0577932
-0.0551562
-0.0524385
-0.0496568
-0.046808
-0.0439153
-0.0409688
-0.0380009
-0.03499
-0.0319821
-0.0289367
-0.0259197
-0.0228619
-0.0198591
-0.0167986
-0.0138214
-0.0107502
-0.00779371
-0.00467846
-0.00170326
-0.0737929
-0.0752191
-0.0765927
-0.0779165
-0.0791941
-0.0804246
-0.0816039
-0.0827279
-0.0837927
-0.0847953
-0.0857324
-0.0866009
-0.0873975
-0.0881188
-0.0887615
-0.0893223
-0.089798
-0.0901853
-0.0904809
-0.0906818
-0.0907847
-0.0907866
-0.0906845
-0.0904756
-0.0901571
-0.0897263
-0.0891807
-0.0885181
-0.0877364
-0.0868337
-0.0858085
-0.0846597
-0.0833862
-0.0819879
-0.0804645
-0.0788169
-0.0770456
-0.075153
-0.0731406
-0.0710123
-0.0687706
-0.0664216
-0.0639679
-0.0614189
-0.0587768
-0.0560543
-0.0532523
-0.0503884
-0.0474595
-0.0444901
-0.04147
-0.0384331
-0.035357
-0.0322896
-0.0291892
-0.026124
-0.0230223
-0.0199835
-0.0168902
-0.0138888
-0.0107948
-0.0078243
-0.00469312
-0.00171088
-0.0764978
-0.0779518
-0.0793491
-0.0806932
-0.0819882
-0.0832331
-0.0844236
-0.0855555
-0.086625
-0.087629
-0.0885643
-0.0894278
-0.0902161
-0.0909258
-0.0915537
-0.0920965
-0.0925509
-0.0929137
-0.0931817
-0.0933517
-0.0934206
-0.0933852
-0.0932428
-0.0929903
-0.0926251
-0.0921445
-0.091546
-0.0908274
-0.0899866
-0.089022
-0.0879318
-0.0867152
-0.0853711
-0.0838994
-0.0823001
-0.0805741
-0.0787222
-0.076747
-0.07465
-0.0724357
-0.0701067
-0.0676695
-0.0651272
-0.0624895
-0.059759
-0.0569492
-0.0540611
-0.0511134
-0.048103
-0.0450556
-0.0419606
-0.0388537
-0.0357118
-0.0325846
-0.0294289
-0.0263158
-0.0231705
-0.0200964
-0.0169714
-0.0139472
-0.0108319
-0.00784935
-0.00470427
-0.00171731
-0.079294
-0.0807742
-0.0821934
-0.0835561
-0.0848665
-0.0861237
-0.0873233
-0.0884609
-0.0895329
-0.0905361
-0.0914673
-0.0923234
-0.093101
-0.0937969
-0.0944077
-0.0949301
-0.095361
-0.095697
-0.0959351
-0.0960719
-0.0961045
-0.0960297
-0.0958447
-0.0955465
-0.0951324
-0.0945999
-0.0939464
-0.0931697
-0.0922679
-0.0912391
-0.0900819
-0.0887953
-0.0873785
-0.0858314
-0.0841541
-0.0823476
-0.080413
-0.078353
-0.0761694
-0.073867
-0.0714485
-0.0689211
-0.066288
-0.0635597
-0.0607388
-0.0578399
-0.054864
-0.0518308
-0.0487374
-0.0456106
-0.0424398
-0.039262
-0.0360535
-0.0328662
-0.0296551
-0.0264942
-0.0233059
-0.0201974
-0.0170417
-0.0139961
-0.0108612
-0.00786861
-0.00471174
-0.00172248
-0.082182
-0.0836866
-0.0851258
-0.0865048
-0.0878285
-0.0890957
-0.0903022
-0.0914432
-0.0925153
-0.0935152
-0.0944399
-0.0952862
-0.0960508
-0.0967303
-0.0973216
-0.0978213
-0.0982262
-0.0985332
-0.0987389
-0.0988404
-0.0988344
-0.098718
-0.0984882
-0.0981421
-0.0976771
-0.0970905
-0.09638
-0.0955432
-0.0945782
-0.0934833
-0.0922571
-0.0908986
-0.089407
-0.0877825
-0.0860251
-0.0841361
-0.0821167
-0.0799698
-0.0776974
-0.0753048
-0.0727948
-0.0701752
-0.0674493
-0.0646283
-0.0617153
-0.0587253
-0.0556599
-0.0525397
-0.0493618
-0.0461544
-0.0429066
-0.0396572
-0.0363815
-0.0331337
-0.0298671
-0.0266588
-0.0234279
-0.0202858
-0.0171006
-0.0140351
-0.0108823
-0.00788183
-0.00471539
-0.00172634
-0.0851622
-0.086689
-0.0881458
-0.0895389
-0.0908735
-0.0921485
-0.0933592
-0.0945012
-0.0955708
-0.0965649
-0.0974806
-0.0983145
-0.0990635
-0.0997243
-0.100294
-0.100768
-0.101145
-0.10142
-0.101591
-0.101655
-0.101608
-0.101448
-0.101171
-0.100775
-0.100257
-0.0996146
-0.098845
-0.0979461
-0.096916
-0.095753
-0.0944557
-0.0930233
-0.091455
-0.089751
-0.0879116
-0.0859381
-0.0838318
-0.081596
-0.079233
-0.0767481
-0.0741446
-0.0714306
-0.0686101
-0.0656945
-0.0626873
-0.0596046
-0.056448
-0.0532391
-0.0499754
-0.0466861
-0.0433603
-0.0400384
-0.036695
-0.0333865
-0.0300644
-0.0268088
-0.023536
-0.0203612
-0.0171477
-0.014064
-0.0108951
-0.00788878
-0.00471508
-0.00172884
-0.0882347
-0.0897813
-0.0912533
-0.0926579
-0.0940008
-0.0952808
-0.0964933
-0.0976335
-0.0986979
-0.0996836
-0.100588
-0.101407
-0.102137
-0.102777
-0.103321
-0.103768
-0.104114
-0.104356
-0.10449
-0.104514
-0.104424
-0.104218
-0.103892
-0.103444
-0.102871
-0.10217
-0.101339
-0.100377
-0.0992793
-0.0980463
-0.0966761
-0.0951679
-0.093521
-0.0917356
-0.0898122
-0.0877522
-0.0855572
-0.0832305
-0.0807748
-0.0781956
-0.0754966
-0.0726864
-0.0697692
-0.0667571
-0.063654
-0.0604768
-0.0572273
-0.0539283
-0.0505773
-0.0472051
-0.0438003
-0.0404051
-0.0369935
-0.0336239
-0.0302464
-0.0269439
-0.0236297
-0.0204232
-0.0171827
-0.0140822
-0.0108991
-0.00788925
-0.00471067
-0.00172991
-0.0913993
-0.0929631
-0.0944475
-0.0958608
-0.0972093
-0.0984915
-0.0997028
-0.100838
-0.101895
-0.102869
-0.103759
-0.10456
-0.10527
-0.105886
-0.106403
-0.10682
-0.107133
-0.107338
-0.107433
-0.107415
-0.10728
-0.107025
-0.106648
-0.106146
-0.105516
-0.104755
-0.103861
-0.102833
-0.101666
-0.100362
-0.0989167
-0.0973308
-0.0956034
-0.0937348
-0.0917255
-0.0895773
-0.0872915
-0.0848721
-0.0823217
-0.0796463
-0.0768499
-0.0739415
-0.0709257
-0.0678153
-0.0646145
-0.061341
-0.057997
-0.0546065
-0.0511669
-0.0477105
-0.0442257
-0.0407566
-0.0372762
-0.0338453
-0.0304124
-0.0270634
-0.0237085
-0.0204714
-0.017205
-0.0140896
-0.0108942
-0.00788302
-0.00470204
-0.0017295
-0.0962337
-0.0977274
-0.0991465
-0.100498
-0.101779
-0.102986
-0.104114
-0.10516
-0.10612
-0.106992
-0.107773
-0.10846
-0.109048
-0.109536
-0.10992
-0.110197
-0.110364
-0.110418
-0.110355
-0.110173
-0.109868
-0.109438
-0.10888
-0.10819
-0.107368
-0.106409
-0.105313
-0.104076
-0.102697
-0.101176
-0.0995104
-0.0977008
-0.0957472
-0.0936503
-0.0914118
-0.0890336
-0.0865195
-0.0838726
-0.0810992
-0.0782034
-0.075195
-0.0720787
-0.0688682
-0.0655679
-0.0621965
-0.0587565
-0.0552729
-0.0517434
-0.0482017
-0.0446361
-0.0410922
-0.0375426
-0.0340503
-0.0305621