/*--------------------------------*- C++ -*----------------------------------*\
  =========                 |
  \\      /  F ield         | OpenFOAM: The Open Source CFD Toolbox
   \\    /   O peration     | Website:  https://openfoam.org
    \\  /    A nd           | Version:  7
     \\/     M anipulation  |
\*---------------------------------------------------------------------------*/
FoamFile
{
    version     2.0;
    format      ascii;
    class       volScalarField;
    location    "2";
    object      p;
}
// * * * * * * * * * * * * * * * * * * * * * * * * * * * * * * * * * * * * * //

dimensions      [1 -1 -2 0 0 0 0];

internalField   nonuniform List<scalar> 
580608
(
1
1
1
1
1
1
1
1
1
1
1
1
1
1
1
1
1
1
1
1
1
1
1
1
1
1
1
1
1
1
1
1
1
1
1
1
1
1
1
1
1
1
1
1
1
1
1
1
1
1
1
1
1
1
1
1
1
1
1
1
1
1
1
1
1
1
1
1
1
1
1
1
1
1
1
1
1
1
1
1
1
1
1
1
1
1
1
1
1
1
1
1
1
1
1
1
1
1
1
1
1
1
1
1
1
1
1
1
1
1
1
1
1
1
1
1
1
1
1
1
1
1
1
1
1
1
1
1
1
1
1
1
1
1
1
1
1
1
1
1
1
1
1
1
1
1
1
1
1
1
1.05577
6.83437
10.4181
10.4513
10.4808
10.5061
10.5258
10.5425
10.5592
10.5804
10.6076
10.6375
10.6654
10.6872
10.7011
10.7098
10.7189
10.7336
10.7575
10.7873
10.8151
10.8377
10.8539
10.8657
10.8791
10.8993
10.928
10.9619
10.9872
10.9972
10.9915
10.9823
10.988
11.0155
11.0606
11.1073
11.1402
11.153
11.1445
11.1257
11.1088
11.111
11.1376
11.1847
11.2394
11.2888
11.3214
11.3308
11.3213
11.2998
11.2797
11.2782
11.301
11.3457
11.3952
11.4353
11.4548
11.4501
11.4341
11.4204
11.4259
11.4572
11.5077
11.5536
11.5866
11.5911
11.574
11.5457
11.5273
11.5298
11.5549
11.5972
11.6379
11.6663
11.6774
11.6782
11.6775
11.6853
11.7051
11.7321
11.7563
11.7692
11.7667
11.757
11.7471
11.7469
11.7594
11.7811
11.8072
11.8323
11.8526
11.869
11.8845
11.8991
11.9078
11.9085
11.9036
11.8975
11.8976
11.9075
11.9228
11.9404
11.9543
11.9594
11.9559
11.9513
11.9533
11.9656
11.9846
12.0042
12.0181
12.0248
12.0258
12.0242
12.0221
12.0191
12.0158
12.015
12.0169
12.0238
12.0341
12.0416
12.0455
12.0444
12.0405
12.0383
12.0417
12.0515
12.0638
12.0747
12.0808
12.0793
12.0729
12.0693
12.0757
12.0934
12.116
12.1336
1
1
1
1
1
1
1
1
1
1
1
1
1
1
1
1
1
1
1
1
1
1
1
1
1
1
1
1
1
1
1
1
1
1
1
1
1
1
1
1
1
1
1
1
1
1
1
1
1
1
1
1
1
1
1
1
1
1
1
1
1
1
1
1
1
1
1
1
1
1
1
1
1
1
1
1
1
1
1
1
1
1
1
1
1
1
1
1
1
1
1
1
1
1
1
1
1
1
1
1
1
1
1
1
1
1
1
1
1
1
1
1
1
1
1
1
1
1
1
1
1
1
1
1
1
1
1
1
1
1
1
1
1
1
1
1
1
1
1
1
1
1
1
1
1
1
1
1
1
1
1.04917
6.81743
10.41
10.4589
10.4855
10.5083
10.5255
10.5414
10.5587
10.5802
10.6081
10.6391
10.6674
10.6889
10.7023
10.7109
10.7203
10.7349
10.7574
10.7852
10.8114
10.8329
10.8494
10.8628
10.8786
10.9006
10.9302
10.9637
10.9893
11.0003
10.9958
10.9868
10.9899
11.0122
11.0526
11.0992
11.1365
11.1546
11.1508
11.1362
11.1218
11.1224
11.1445
11.1848
11.2336
11.2788
11.3105
11.3232
11.3176
11.3019
11.2873
11.2875
11.3087
11.3486
11.3923
11.429
11.4487
11.4479
11.4372
11.4277
11.4333
11.461
11.5046
11.5474
11.5794
11.5877
11.5755
11.5513
11.5352
11.5374
11.5591
11.5968
11.6357
11.6649
11.6782
11.6811
11.6815
11.6891
11.7076
11.7333
11.7573
11.7705
11.7689
11.7597
11.7495
11.7484
11.7599
11.7809
11.8069
11.8319
11.8523
11.8688
11.8843
11.8986
11.9067
11.9071
11.9017
11.896
11.8972
11.908
11.925
11.9439
11.9577
11.9617
11.9571
11.9518
11.9536
11.9657
11.9848
12.0039
12.017
12.0228
12.0238
12.0231
12.0226
12.0214
12.0187
12.0173
12.018
12.0236
12.0334
12.0414
12.0464
12.0463
12.0425
12.0392
12.041
12.0496
12.0617
12.0734
12.0805
12.0795
12.0732
12.0694
12.0757
12.0935
12.1164
12.1344
1
1
1
1
1
1
1
1
1
1
1
1
1
1
1
1
1
1
1
1
1
1
1
1
1
1
1
1
1
1
1
1
1
1
1
1
1
1
1
1
1
1
1
1
1
1
1
1
1
1
1
1
1
1
1
1
1
1
1
1
1
1
1
1
1
1
1
1
1
1
1
1
1
1
1
1
1
1
1
1
1
1
1
1
1
1
1
1
1
1
1
1
1
1
1
1
1
1
1
1
1
1
1
1
1
1
1
1
1
1
1
1
1
1
1
1
1
1
1
1
1
1
1
1
1
1
1
1
1
1
1
1
1
1
1
1
1
1
1
1
1
1
1
1
1
1
1
1
1
1
1.03291
6.78412
10.4088
10.4654
10.4892
10.5107
10.5267
10.5413
10.558
10.5799
10.608
10.6389
10.6667
10.6875
10.7011
10.7109
10.7223
10.738
10.7599
10.7856
10.8093
10.8279
10.8423
10.8558
10.8738
10.8988
10.9305
10.9643
10.9904
11.0026
11.0008
10.9944
10.9954
11.0113
11.0432
11.0841
11.1199
11.141
11.146
11.1415
11.1356
11.138
11.1556
11.1879
11.2285
11.2674
11.2966
11.3108
11.3089
11.2994
11.2927
11.2984
11.3202
11.355
11.3909
11.4208
11.4382
11.44
11.4353
11.4343
11.4445
11.4705
11.5061
11.5404
11.5661
11.5731
11.5654
11.5497
11.5412
11.5479
11.5678
11.5984
11.6315
11.6581
11.6728
11.6786
11.6822
11.6916
11.7097
11.7334
11.7563
11.7696
11.769
11.7607
11.7508
11.749
11.7594
11.7797
11.8055
11.8303
11.8504
11.8665
11.8818
11.8954
11.903
11.9033
11.8971
11.8914
11.8935
11.9054
11.9248
11.9463
11.9609
11.9642
11.9583
11.9519
11.953
11.9646
11.9832
12.002
12.0142
12.0191
12.0197
12.0195
12.0213
12.0225
12.021
12.0195
12.0187
12.0225
12.0312
12.0397
12.0462
12.0476
12.0442
12.04
12.0397
12.0466
12.0582
12.0706
12.0788
12.0787
12.0726
12.0688
12.075
12.0928
12.116
12.1343
1
1
1
1
1
1
1
1
1
1
1
1
1
1
1
1
1
1
1
1
1
1
1
1
1
1
1
1
1
1
1
1
1
1
1
1
1
1
1
1
1
1
1
1
1
1
1
1
1
1
1
1
1
1
1
1
1
1
1
1
1
1
1
1
1
1
1
1
1
1
1
1
1
1
1
1
1
1
1
1
1
1
1
1
1
1
1
1
1
1
1
1
1
1
1
1
1
1
1
1
1
1
1
1
1
1
1
1
1
1
1
1
1
1
1
1
1
1
1
1
1
1
1
1
1
1
1
1
1
1
1
1
1
1
1
1
1
1
1
1
1
1
1
1
1
1
1
1
1
1
1.01399
6.73826
10.4059
10.4697
10.4905
10.5122
10.5296
10.5448
10.5613
10.5824
10.6083
10.636
10.6613
10.681
10.6957
10.7091
10.7252
10.7444
10.7665
10.7894
10.8093
10.8242
10.8353
10.8472
10.8661
10.8943
10.9288
10.9645
10.9927
11.0082
11.0102
11.0055
11.0017
11.0089
11.0308
11.0672
11.104
11.1318
11.148
11.1527
11.1513
11.152
11.1631
11.1877
11.2216
11.2563
11.2838
11.2985
11.301
11.2979
11.2992
11.31
11.3322
11.362
11.3903
11.4118
11.4255
11.4309
11.4332
11.4403
11.4555
11.4802
11.5085
11.5343
11.5537
11.5598
11.5574
11.5511
11.5497
11.559
11.5766
11.6012
11.629
11.6532
11.6689
11.6779
11.6843
11.695
11.7127
11.7351
11.7572
11.7705
11.7705
11.7623
11.7522
11.7496
11.7591
11.7795
11.8057
11.8306
11.8503
11.8648
11.878
11.8901
11.8977
11.8988
11.8931
11.8882
11.8913
11.9044
11.9253
11.9482
11.9633
11.9666
11.9608
11.9541
11.9543
11.9645
11.9818
11.9992
12.0104
12.0147
12.0158
12.0168
12.0209
12.0246
12.0243
12.0221
12.0197
12.0217
12.0294
12.0386
12.0467
12.0495
12.0462
12.0408
12.0384
12.0435
12.0545
12.0675
12.0767
12.0776
12.0724
12.069
12.0753
12.093
12.1159
12.1342
1
1
1
1
1
1
1
1
1
1
1
1
1
1
1
1
1
1
1
1
1
1
1
1
1
1
1
1
1
1
1
1
1
1
1
1
1
1
1
1
1
1
1
1
1
1
1
1
1
1
1
1
1
1
1
1
1
1
1
1
1
1
1
1
1
1
1
1
1
1
1
1
1
1
1
1
1
1
1
1
1
1
1
1
1
1
1
1
1
1
1
1
1
1
1
1
1
1
1
1
1
1
1
1
1
1
1
1
1
1
1
1
1
1
1
1
1
1
1
1
1
1
1
1
1
1
1
1
1
1
1
1
1
1
1
1
1
1
1
1
1
1
1
1
1
1
1
1
1
1
1.0004
6.67859
10.4016
10.4689
10.489
10.5127
10.5326
10.5503
10.5677
10.5871
10.6089
10.6314
10.6519
10.6693
10.6857
10.7041
10.7264
10.7512
10.7757
10.7973
10.8135
10.8242
10.8314
10.8404
10.8571
10.8852
10.9219
10.9602
10.9915
11.0123
11.0203
11.0172
11.0091
11.0063
11.0181
11.0507
11.0905
11.1248
11.1499
11.1622
11.1631
11.1602
11.1659
11.185
11.2149
11.2481
11.2756
11.2909
11.2945
11.2955
11.3023
11.3177
11.3415
11.3686
11.3917
11.4064
11.4139
11.4196
11.4279
11.4422
11.4638
11.4895
11.5131
11.5318
11.5441
11.5479
11.5492
11.5501
11.5552
11.5674
11.5841
11.6049
11.6283
11.6496
11.6652
11.6756
11.6838
11.6955
11.7135
11.7361
11.7583
11.7717
11.7716
11.7626
11.7512
11.7479
11.7576
11.7795
11.8076
11.8334
11.8522
11.8638
11.8727
11.8816
11.8892
11.8922
11.8895
11.8871
11.8913
11.9046
11.9247
11.9463
11.9617
11.9669
11.9635
11.9581
11.9577
11.9657
11.98
11.9947
12.0047
12.0093
12.0115
12.0146
12.0208
12.0262
12.0264
12.0234
12.0202
12.0212
12.0284
12.038
12.0469
12.0505
12.0471
12.0407
12.0368
12.0404
12.0508
12.0637
12.0733
12.0752
12.0715
12.0694
12.0761
12.0932
12.1149
12.1324
1
1
1
1
1
1
1
1
1
1
1
1
1
1
1
1
1
1
1
1
1
1
1
1
1
1
1
1
1
1
1
1
1
1
1
1
1
1
1
1
1
1
1
1
1
1
1
1
1
1
1
1
1
1
1
1
1
1
1
1
1
1
1
1
1
1
1
1
1
1
1
1
1
1
1
1
1
1
1
1
1
1
1
1
1
1
1
1
1
1
1
1
1
1
1
1
1
1
1
1
1
1
1
1
1
1
1
1
1
1
1
1
1
1
1
1
1
1
1
1
1
1
1
1
1
1
1
1
1
1
1
1
1
1
1
1
1
1
1
1
1
1
1
1
1
1
1
1
1
1
1
6.59571
10.4002
10.4645
10.4847
10.5111
10.535
10.5561
10.5754
10.5937
10.6112
10.6277
10.6422
10.6559
10.6736
10.6976
10.7264
10.7567
10.7848
10.8067
10.8203
10.8269
10.8306
10.8368
10.8499
10.8742
10.9112
10.9533
10.9897
11.0161
11.0294
11.0277
11.0148
11.003
11.0075
11.0383
11.0822
11.1223
11.1532
11.1683
11.1677
11.1606
11.1621
11.1789
11.2095
11.2451
11.2747
11.2903
11.292
11.291
11.2996
11.3191
11.3458
11.374
11.395
11.4056
11.4071
11.4091
11.419
11.4393
11.4672
11.4958
11.518
11.5322
11.5392
11.5408
11.5435
11.5488
11.5579
11.5718
11.589
11.6087
11.6298
11.6492
11.6638
11.6737
11.682
11.6941
11.7129
11.7366
11.7598
11.7736
11.7726
11.762
11.7487
11.7443
11.7553
11.7798
11.811
11.8388
11.8562
11.8638
11.8672
11.8715
11.8781
11.8843
11.8873
11.8888
11.8943
11.9062
11.9231
11.9413
11.9565
11.9648
11.9659
11.9635
11.9631
11.9685
11.9785
11.9894
11.9981
12.0038
12.0087
12.0142
12.0214
12.0267
12.0266
12.0233
12.0202
12.0215
12.0288
12.0384
12.0471
12.0501
12.0464
12.0397
12.0355
12.0384
12.048
12.06
12.0692
12.072
12.0704
12.0706
12.078
12.0941
12.1133
12.1289
1
1
1
1
1
1
1
1
1
1
1
1
1
1
1
1
1
1
1
1
1
1
1
1
1
1
1
1
1
1
1
1
1
1
1
1
1
1
1
1
1
1
1
1
1
1
1
1
1
1
1
1
1
1
1
1
1
1
1
1
1
1
1
1
1
1
1
1
1
1
1
1
1
1
1
1
1
1
1
1
1
1
1
1
1
1
1
1
1
1
1
1
1
1
1
1
1
1
1
1
1
1
1
1
1
1
1
1
1
1
1
1
1
1
1
1
1
1
1
1
1
1
1
1
1
1
1
1
1
1
1
1
1
1
1
1
1
1
1
1
1
1
1
1
1
1
1
1
1
1
1
6.49391
10.4002
10.4616
10.4813
10.5082
10.5351
10.5595
10.5813
10.6001
10.6153
10.627
10.636
10.6458
10.6631
10.6903
10.7239
10.759
10.7907
10.8144
10.8279
10.8333
10.8351
10.8384
10.8471
10.865
10.8986
10.9434
10.9855
11.0176
11.0352
11.0337
11.0171
11
11.0009
11.032
11.0795
11.1227
11.1556
11.1698
11.1662
11.1556
11.1539
11.171
11.2057
11.2462
11.2788
11.2953
11.2938
11.2863
11.2916
11.3138
11.345
11.3775
11.3999
11.4078
11.4053
11.4019
11.4094
11.4323
11.4657
11.4984
11.5224
11.5354
11.5391
11.5389
11.5402
11.5457
11.5565
11.572
11.5909
11.6122
11.6337
11.652
11.6643
11.6716
11.678
11.6899
11.7102
11.7361
11.7611
11.7753
11.7728
11.7599
11.7443
11.7391
11.7518
11.7797
11.8151
11.8454
11.8612
11.8643
11.8617
11.8608
11.8663
11.8763
11.8856
11.8926
11.899
11.9084
11.9204
11.9339
11.9479
11.9601
11.9674
11.9692
11.9694
11.9715
11.9766
11.9836
11.9915
11.9997
12.008
12.0157
12.0225
12.0258
12.0242
12.0212
12.0196
12.0224
12.0303
12.0396
12.0466
12.0478
12.0434
12.0374
12.0343
12.0375
12.0461
12.0563
12.0642
12.0678
12.0689
12.0722
12.0808
12.0952
12.1108
12.1233
1
1
1
1
1
1
1
1
1
1
1
1
1
1
1
1
1
1
1
1
1
1
1
1
1
1
1
1
1
1
1
1
1
1
1
1
1
1
1
1
1
1
1
1
1
1
1
1
1
1
1
1
1
1
1
1
1
1
1
1
1
1
1
1
1
1
1
1
1
1
1
1
1
1
1
1
1
1
1
1
1
1
1
1
1
1
1
1
1
1
1
1
1
1
1
1
1
1
1
1
1
1
1
1
1
1
1
1
1
1
1
1
1
1
1
1
1
1
1
1
1
1
1
1
1
1
1
1
1
1
1
1
1
1
1
1
1
1
1
1
1
1
1
1
1
1
1
1
1
1
1
6.3775
10.401
10.462
10.4783
10.5034
10.5316
10.5592
10.584
10.6053
10.6207
10.6306
10.6367
10.6438
10.6592
10.684
10.7164
10.7527
10.787
10.8147
10.8326
10.8417
10.8447
10.8453
10.8493
10.8607
10.8882
10.9333
10.9792
11.0144
11.0346
11.0337
11.0168
10.9992
10.9998
11.0311
11.0799
11.1241
11.1563
11.1683
11.1618
11.1481
11.1449
11.1633
11.2026
11.2479
11.2837
11.3013
11.2971
11.2838
11.2815
11.3042
11.3407
11.3784
11.4043
11.4121
11.4068
11.3994
11.4027
11.4237
11.4597
11.4969
11.5247
11.5396
11.5423
11.5408
11.5396
11.5424
11.5522
11.5686
11.5902
11.6149
11.6386
11.6564
11.6658
11.6693
11.6726
11.6839
11.7058
11.7343
11.7611
11.7757
11.7715
11.7563
11.7389
11.7333
11.7481
11.7801
11.8195
11.8516
11.8658
11.8643
11.8567
11.8514
11.856
11.8696
11.8853
11.8972
11.9038
11.9094
11.9164
11.9255
11.9385
11.9544
11.9679
11.9744
11.9749
11.9734
11.9736
11.9781
11.9863
11.9979
12.0097
12.0188
12.0234
12.0231
12.0199
12.0175
12.0186
12.0243
12.033
12.041
12.045
12.0435
12.0386
12.0341
12.0336
12.0379
12.0455
12.0531
12.0588
12.0629
12.0673
12.0744
12.0844
12.0965
12.1075
12.1158
1
1
1
1
1
1
1
1
1
1
1
1
1
1
1
1
1
1
1
1
1
1
1
1
1
1
1
1
1
1
1
1
1
1
1
1
1
1
1
1
1
1
1
1
1
1
1
1
1
1
1
1
1
1
1
1
1
1
1
1
1
1
1
1
1
1
1
1
1
1
1
1
1
1
1
1
1
1
1
1
1
1
1
1
1
1
1
1
1
1
1
1
1
1
1
1
1
1
1
1
1
1
1
1
1
1
1
1
1
1
1
1
1
1
1
1
1
1
1
1
1
1
1
1
1
1
1
1
1
1
1
1
1
1
1
1
1
1
1
1
1
1
1
1
1
1
1
1
1
1
1
6.24943
10.3988
10.466
10.4775
10.4962
10.5231
10.5531
10.5818
10.607
10.6261
10.638
10.6438
10.6494
10.6614
10.68
10.7057
10.7393
10.7751
10.8077
10.8323
10.8489
10.8566
10.8569
10.8568
10.8623
10.8822
10.9249
10.9707
11.006
11.0273
11.0278
11.0147
11.0008
11.0031
11.0322
11.0796
11.1232
11.1542
11.1651
11.158
11.1442
11.1407
11.1588
11.1989
11.247
11.2854
11.304
11.2993
11.2829
11.273
11.2928
11.3338
11.3763
11.406
11.4166
11.4108
11.4013
11.401
11.4174
11.4513
11.4905
11.523
11.5416
11.5468
11.5448
11.5411
11.5409
11.5476
11.5633
11.5875
11.6161
11.6428
11.6606
11.6674
11.667
11.6671
11.6773
11.7005
11.7312
11.7594
11.774
11.7684
11.7516
11.7334
11.7285
11.7459
11.7814
11.8233
11.8556
11.8681
11.8631
11.8522
11.8447
11.8492
11.8658
11.8858
11.9003
11.9065
11.9087
11.9113
11.9176
11.9302
11.9495
11.9679
11.9773
11.9771
11.9725
11.9695
11.9733
11.9838
11.999
12.0138
12.0223
12.0229
12.0188
12.014
12.013
12.0181
12.0269
12.036
12.0415
12.0416
12.0373
12.0321
12.0302
12.0332
12.0392
12.0457
12.0503
12.0534
12.058
12.0658
12.0767
12.0879
12.0976
12.1033
12.107
1
1
1
1
1
1
1
1
1
1
1
1
1
1
1
1
1
1
1
1
1
1
1
1
1
1
1
1
1
1
1
1
1
1
1
1
1
1
1
1
1
1
1
1
1
1
1
1
1
1
1
1
1
1
1
1
1
1
1
1
1
1
1
1
1
1
1
1
1
1
1
1
1
1
1
1
1
1
1
1
1
1
1
1
1
1
1
1
1
1
1
1
1
1
1
1
1
1
1
1
1
1
1
1
1
1
1
1
1
1
1
1
1
1
1
1
1
1
1
1
1
1
1
1
1
1
1
1
1
1
1
1
1
1
1
1
1
1
1
1
1
1
1
1
1
1
1
1
1
1
1
6.11094
10.3919
10.4736
10.4788
10.4873
10.5089
10.5408
10.5739
10.6044
10.6294
10.6466
10.6555
10.6604
10.6674
10.6777
10.6934
10.7217
10.7581
10.7953
10.8266
10.8516
10.8663
10.8689
10.867
10.8679
10.8803
10.9177
10.9612
10.9957
11.0173
11.0208
11.0128
11.003
11.0063
11.032
11.0764
11.1188
11.1494
11.1626
11.1583
11.1471
11.1434
11.1583
11.1938
11.2403
11.2805
11.3023
11.3009
11.2854
11.271
11.2844
11.3251
11.3694
11.4026
11.4183
11.4162
11.4078
11.4052
11.4164
11.4437
11.4805
11.5152
11.5387
11.5496
11.5496
11.5449
11.5414
11.5444
11.5585
11.5836
11.6155
11.6451
11.6635
11.6685
11.665
11.6621
11.6711
11.6949
11.7268
11.7556
11.7698
11.7635
11.7462
11.7288
11.7264
11.7465
11.7842
11.8261
11.8563
11.8666
11.8598
11.8477
11.8407
11.8469
11.8651
11.8862
11.9005
11.9055
11.9053
11.9054
11.9108
11.9252
11.9473
11.9673
11.9765
11.9747
11.9682
11.9645
11.9699
11.984
12.0032
12.0189
12.0245
12.0207
12.013
12.0076
12.0092
12.0182
12.0298
12.0383
12.0403
12.0361
12.0292
12.0249
12.0264
12.033
12.0408
12.0461
12.0478
12.0486
12.0537
12.0646
12.0787
12.0906
12.0979
12.0984
12.0978
1
1
1
1
1
1
1
1
1
1
1
1
1
1
1
1
1
1
1
1
1
1
1
1
1
1
1
1
1
1
1
1
1
1
1
1
1
1
1
1
1
1
1
1
1
1
1
1
1
1
1
1
1
1
1
1
1
1
1
1
1
1
1
1
1
1
1
1
1
1
1
1
1
1
1
1
1
1
1
1
1
1
1
1
1
1
1
1
1
1
1
1
1
1
1
1
1
1
1
1
1
1
1
1
1
1
1
1
1
1
1
1
1
1
1
1
1
1
1
1
1
1
1
1
1
1
1
1
1
1
1
1
1
1
1
1
1
1
1
1
1
1
1
1
1
1
1
1
1
1
1
5.96313
10.3793
10.4838
10.4824
10.4826
10.493
10.5226
10.5594
10.596
10.6284
10.653
10.6682
10.6733
10.6749
10.6771
10.6833
10.7046
10.7416
10.7822
10.8186
10.8503
10.8711
10.8779
10.8759
10.874
10.8802
10.9105
10.9508
10.9841
11.0069
11.0163
11.014
11.0077
11.0084
11.0275
11.0676
11.1094
11.1426
11.1619
11.1639
11.1567
11.1519
11.1613
11.188
11.229
11.2696
11.2957
11.3021
11.292
11.2771
11.2823
11.3159
11.3581
11.3936
11.4148
11.4201
11.4167
11.414
11.4205
11.439
11.4693
11.5029
11.5309
11.5486
11.5533
11.5501
11.5442
11.5437
11.5555
11.5798
11.6131
11.6447
11.6643
11.6686
11.6633
11.6582
11.6659
11.6894
11.7214
11.7498
11.7631
11.757
11.7407
11.7264
11.7279
11.7509
11.7885
11.827
11.853
11.8604
11.8535
11.8431
11.8393
11.8484
11.8672
11.8866
11.8985
11.9011
11.8994
11.8995
11.907
11.9246
11.9482
11.9665
11.9726
11.9682
11.9609
11.9589
11.9676
11.9864
12.009
12.0237
12.0249
12.0171
12.0067
12.002
12.0071
12.0197
12.0325
12.0387
12.0369
12.0288
12.0204
12.018
12.0231
12.0327
12.0418
12.0462
12.0456
12.0449
12.0505
12.0638
12.08
12.092
12.0969
12.0928
12.0891
1
1
1
1
1
1
1
1
1
1
1
1
1
1
1
1
1
1
1
1
1
1
1
1
1
1
1
1
1
1
1
1
1
1
1
1
1
1
1
1
1
1
1
1
1
1
1
1
1
1
1
1
1
1
1
1
1
1
1
1
1
1
1
1
1
1
1
1
1
1
1
1
1
1
1
1
1
1
1
1
1
1
1
1
1
1
1
1
1
1
1
1
1
1
1
1
1
1
1
1
1
1
1
1
1
1
1
1
1
1
1
1
1
1
1
1
1
1
1
1
1
1
1
1
1
1
1
1
1
1
1
1
1
1
1
1
1
1
1
1
1
1
1
1
1
1
1
1
1
1
1
5.80632
10.3567
10.4915
10.4882
10.4847
10.4847
10.5044
10.5407
10.582
10.6212
10.6543
10.6768
10.6851
10.6835
10.6787
10.6776
10.6928
10.7293
10.7717
10.8114
10.8468
10.8719
10.8826
10.8811
10.8771
10.8783
10.9019
10.9399
10.9737
11.0008
11.0168
11.0198
11.0149
11.0099
11.0189
11.0529
11.0962
11.1342
11.162
11.1734
11.1711
11.1647
11.1662
11.1805
11.2134
11.254
11.2859
11.3019
11.3001
11.2895
11.2865
11.3077
11.3442
11.3802
11.4072
11.4219
11.4258
11.4253
11.428
11.4377
11.4585
11.4883
11.5192
11.5431
11.5549
11.5552
11.5488
11.5453
11.554
11.5763
11.6092
11.642
11.6632
11.6682
11.6626
11.6559
11.6618
11.6838
11.7146
11.7416
11.7544
11.75
11.7365
11.7267
11.7332
11.7581
11.793
11.8263
11.8468
11.851
11.845
11.8381
11.8394
11.8521
11.8707
11.8868
11.8944
11.8938
11.8919
11.8943
11.9061
11.9275
11.9514
11.9659
11.9669
11.9593
11.9516
11.953
11.9665
11.9905
12.0144
12.0263
12.0233
12.012
12.0008
11.9984
12.0071
12.0221
12.0339
12.0368
12.0309
12.0199
12.0116
12.0119
12.0202
12.032
12.0418
12.0454
12.0436
12.0426
12.049
12.0635
12.0803
12.0915
12.0942
12.0867
12.0814
1
1
1
1
1
1
1
1
1
1
1
1
1
1
1
1
1
1
1
1
1
1
1
1
1
1
1
1
1
1
1
1
1
1
1
1
1
1
1
1
1
1
1
1
1
1
1
1
1
1
1
1
1
1
1
1
1
1
1
1
1
1
1
1
1
1
1
1
1
1
1
1
1
1
1
1
1
1
1
1
1
1
1
1
1
1
1
1
1
1
1
1
1
1
1
1
1
1
1
1
1
1
1
1
1
1
1
1
1
1
1
1
1
1
1
1
1
1
1
1
1
1
1
1
1
1
1
1
1
1
1
1
1
1
1
1
1
1
1
1
1
1
1
1
1
1
1
1
1
1
1
5.6388
10.3237
10.4947
10.4957
10.4935
10.4876
10.495
10.523
10.565
10.6089
10.6489
10.6787
10.6937
10.6929
10.6843
10.6786
10.689
10.722
10.7642
10.8057
10.8423
10.8695
10.8829
10.8829
10.8778
10.8757
10.8928
10.9295
10.9663
10.9991
11.0215
11.029
11.0229
11.0119
11.0108
11.035
11.0809
11.1253
11.1619
11.1833
11.1861
11.1776
11.1698
11.1727
11.1959
11.2374
11.2762
11.3015
11.31
11.3035
11.295
11.3035
11.3293
11.3639
11.3964
11.4207
11.4335
11.4366
11.4365
11.4392
11.4503
11.4737
11.5051
11.5347
11.5541
11.5587
11.5537
11.5484
11.5535
11.5728
11.6043
11.6379
11.6611
11.6679
11.6631
11.6553
11.6586
11.678
11.7064
11.7316
11.7446
11.7433
11.7345
11.7298
11.7409
11.766
11.7967
11.824
11.8387
11.8402
11.8354
11.8326
11.8395
11.8556
11.8734
11.8855
11.8883
11.8855
11.8844
11.89
11.9068
11.9322
11.9544
11.9641
11.9601
11.9499
11.9428
11.9477
11.9666
11.9944
12.0171
12.0256
12.0195
12.0064
11.9964
11.9975
12.0091
12.0244
12.0337
12.0326
12.0227
12.0103
12.0039
12.0073
12.0178
12.0305
12.0401
12.0432
12.0416
12.0416
12.049
12.0636
12.0796
12.0891
12.0896
12.0803
12.0754
1
1
1
1
1
1
1
1
1
1
1
1
1
1
1
1
1
1
1
1
1
1
1
1
1
1
1
1
1
1
1
1
1
1
1
1
1
1
1
1
1
1
1
1
1
1
1
1
1
1
1
1
1
1
1
1
1
1
1
1
1
1
1
1
1
1
1
1
1
1
1
1
1
1
1
1
1
1
1
1
1
1
1
1
1
1
1
1
1
1
1
1
1
1
1
1
1
1
1
1
1
1
1
1
1
1
1
1
1
1
1
1
1
1
1
1
1
1
1
1
1
1
1
1
1
1
1
1
1
1
1
1
1
1
1
1
1
1
1
1
1
1
1
1
1
1
1
1
1
1
1
5.45816
10.2805
10.4903
10.5006
10.5051
10.4992
10.4985
10.5139
10.5488
10.5929
10.6365
10.6732
10.6959
10.7009
10.694
10.687
10.6937
10.7203
10.759
10.8001
10.8371
10.8654
10.881
10.8835
10.8789
10.8752
10.8865
10.9199
10.9604
10.9989
11.0273
11.038
11.0309
11.0151
11.007
11.0211
11.0658
11.1154
11.1593
11.1889
11.1969
11.1872
11.1727
11.1675
11.1812
11.2223
11.2668
11.3002
11.3174
11.3158
11.3052
11.3033
11.3171
11.3475
11.3838
11.4164
11.4375
11.4454
11.4442
11.4421
11.4457
11.4621
11.4916
11.5246
11.5499
11.56
11.5574
11.5516
11.5535
11.5695
11.5991
11.6333
11.6586
11.6679
11.6645
11.6563
11.6562
11.6714
11.6966
11.7205
11.7349
11.7382
11.7351
11.7363
11.7498
11.7728
11.7982
11.8189
11.8289
11.8294
11.8264
11.8278
11.8394
11.8574
11.8735
11.8816
11.881
11.8776
11.8778
11.8871
11.9095
11.9371
11.956
11.9604
11.9532
11.9419
11.9364
11.9441
11.9666
11.9956
12.0161
12.0215
12.0137
12.0011
11.994
11.9986
12.0124
12.0262
12.0317
12.0262
12.0134
12.0011
11.9976
12.004
12.0158
12.0281
12.0366
12.0396
12.0397
12.0418
12.05
12.0638
12.0776
12.0848
12.0836
12.0739
12.0706
1
1
1
1
1
1
1
1
1
1
1
1
1
1
1
1
1
1
1
1
1
1
1
1
1
1
1
1
1
1
1
1
1
1
1
1
1
1
1
1
1
1
1
1
1
1
1
1
1
1
1
1
1
1
1
1
1
1
1
1
1
1
1
1
1
1
1
1
1
1
1
1
1
1
1
1
1
1
1
1
1
1
1
1
1
1
1
1
1
1
1
1
1
1
1
1
1
1
1
1
1
1
1
1
1
1
1
1
1
1
1
1
1
1
1
1
1
1
1
1
1
1
1
1
1
1
1
1
1
1
1
1
1
1
1
1
1
1
1
1
1
1
1
1
1
1
1
1
1
1
1
5.26306
10.2351
10.4765
10.4964
10.5111
10.5124
10.5096
10.5154
10.5393
10.5782
10.6212
10.6607
10.6897
10.7031
10.703
10.6994
10.704
10.7234
10.7557
10.7932
10.8292
10.8591
10.8785
10.8854
10.8833
10.8793
10.8857
10.9119
10.9528
10.9956
11.0288
11.0436
11.0382
11.0215
11.0096
11.0171
11.0531
11.1039
11.1509
11.1858
11.1993
11.1921
11.1768
11.1673
11.1735
11.2107
11.2572
11.2965
11.3197
11.3243
11.315
11.3068
11.312
11.3354
11.3716
11.4087
11.4366
11.4499
11.4502
11.446
11.4451
11.4555
11.4807
11.5134
11.5415
11.5568
11.5577
11.5529
11.5531
11.5666
11.5944
11.6289
11.656
11.6679
11.6666
11.6583
11.6545
11.6645
11.6855
11.709
11.7265
11.7354
11.739
11.7453
11.7583
11.7766
11.7963
11.8109
11.8179
11.8193
11.8196
11.8254
11.839
11.8562
11.8697
11.8746
11.8726
11.8704
11.8733
11.8871
11.9134
11.9398
11.9549
11.9554
11.9466
11.9363
11.933
11.9427
11.9659
11.9934
12.0115
12.0143
12.0065
11.9964
11.9932
12.001
12.0156
12.0269
12.0278
12.018
12.0035
11.9932
11.9929
12.0018
12.0139
12.0247
12.0315
12.0351
12.0379
12.0427
12.0516
12.0635
12.0744
12.0789
12.0766
12.0679
12.0671
1
1
1
1
1
1
1
1
1
1
1
1
1
1
1
1
1
1
1
1
1
1
1
1
1
1
1
1
1
1
1
1
1
1
1
1
1
1
1
1
1
1
1
1
1
1
1
1
1
1
1
1
1
1
1
1
1
1
1
1
1
1
1
1
1
1
1
1
1
1
1
1
1
1
1
1
1
1
1
1
1
1
1
1
1
1
1
1
1
1
1
1
1
1
1
1
1
1
1
1
1
1
1
1
1
1
1
1
1
1
1
1
1
1
1
1
1
1
1
1
1
1
1
1
1
1
1
1
1
1
1
1
1
1
1
1
1
1
1
1
1
1
1
1
1
1
1
1
1
1
1
5.0545
10.1952
10.4575
10.4838
10.5087
10.5197
10.5219
10.524
10.5392
10.57
10.6082
10.6457
10.6774
10.6978
10.7059
10.7087
10.7141
10.728
10.7524
10.7841
10.8182
10.8506
10.876
10.8898
10.8915
10.8881
10.8902
10.9076
10.9431
10.9864
11.0229
11.0434
11.0437
11.0315
11.0195
11.0226
11.0472
11.0909
11.1364
11.1737
11.1927
11.1925
11.1825
11.1736
11.1739
11.2029
11.2468
11.2876
11.3153
11.3262
11.3221
11.3138
11.3132
11.3293
11.3613
11.3987
11.431
11.4497
11.454
11.4506
11.4477
11.4537
11.4736
11.5034
11.5317
11.5496
11.5542
11.5524
11.5535
11.5656
11.5914
11.6249
11.6528
11.667
11.668
11.6598
11.6529
11.6576
11.6746
11.6977
11.7191
11.7349
11.7457
11.7552
11.7654
11.7772
11.7899
11.7998
11.8064
11.8112
11.8166
11.8259
11.8389
11.8524
11.8619
11.8646
11.8636
11.8645
11.8714
11.8903
11.9172
11.9395
11.9503
11.9489
11.9406
11.9329
11.9326
11.9438
11.9654
11.9889
12.003
12.0045
11.9982
11.992
11.9934
12.0039
12.0176
12.0257
12.0221
12.0091
11.9942
11.9867
11.9898
12.0002
12.012
12.0206
12.0256
12.03
12.0359
12.0436
12.0529
12.0624
12.07
12.0721
12.0694
12.0626
12.0645
1
1
1
1
1
1
1
1
1
1
1
1
1
1
1
1
1
1
1
1
1
1
1
1
1
1
1
1
1
1
1
1
1
1
1
1
1
1
1
1
1
1
1
1
1
1
1
1
1
1
1
1
1
1
1
1
1
1
1
1
1
1
1
1
1
1
1
1
1
1
1
1
1
1
1
1
1
1
1
1
1
1
1
1
1
1
1
1
1
1
1
1
1
1
1
1
1
1
1
1
1
1
1
1
1
1
1
1
1
1
1
1
1
1
1
1
1
1
1
1
1
1
1
1
1
1
1
1
1
1
1
1
1
1
1
1
1
1
1
1
1
1
1
1
1
1
1
1
1
1
1
4.83293
10.1598
10.4382
10.4667
10.4977
10.5186
10.5294
10.5347
10.5455
10.5687
10.6006
10.6338
10.6642
10.6889
10.7047
10.7132
10.7206
10.7312
10.7475
10.773
10.8056
10.8416
10.8732
10.8949
10.902
10.8996
10.898
10.907
10.9322
10.9718
11.0103
11.0372
11.0472
11.0425
11.0334
11.0332
11.0481
11.079
11.1181
11.155
11.1808
11.1905
11.1887
11.184
11.1814
11.1985
11.2359
11.2744
11.3042
11.321
11.3248
11.3222
11.3208
11.3307
11.3548
11.3876
11.4199
11.4433
11.454
11.455
11.4531
11.4562
11.4699
11.4932
11.5186
11.538
11.5469
11.5503
11.5556
11.5678
11.5909
11.6209
11.6477
11.6635
11.6668
11.6594
11.6508
11.6514
11.6648
11.6877
11.7133
11.7362
11.7536
11.7644
11.7701
11.7751
11.7801
11.7863
11.795
11.8056
11.8174
11.8291
11.8392
11.8465
11.8505
11.8519
11.854
11.8597
11.873
11.8957
11.9194
11.9361
11.9425
11.9404
11.9349
11.9317
11.9346
11.9467
11.965
11.9824
11.9919
11.9928
11.9894
11.9878
11.9939
12.0066
12.018
12.0221
12.0152
12.0005
11.9866
11.982
11.9877
11.9991
12.0097
12.0161
12.0196
12.0249
12.0334
12.0434
12.0527
12.0601
12.0645
12.0647
12.0622
12.058
12.0624
1
1
1
1
1
1
1
1
1
1
1
1
1
1
1
1
1
1
1
1
1
1
1
1
1
1
1
1
1
1
1
1
1
1
1
1
1
1
1
1
1
1
1
1
1
1
1
1
1
1
1
1
1
1
1
1
1
1
1
1
1
1
1
1
1
1
1
1
1
1
1
1
1
1
1
1
1
1
1
1
1
1
1
1
1
1
1
1
1
1
1
1
1
1
1
1
1
1
1
1
1
1
1
1
1
1
1
1
1
1
1
1
1
1
1
1
1
1
1
1
1
1
1
1
1
1
1
1
1
1
1
1
1
1
1
1
1
1
1
1
1
1
1
1
1
1
1
1
1
1
1
4.5993
10.1204
10.4278
10.452
10.483
10.5102
10.5298
10.5418
10.5527
10.5694
10.5963
10.6264
10.6549
10.6799
10.6995
10.7124
10.7222
10.7306
10.7401
10.7624
10.7946
10.8331
10.871
10.8999
10.9126
10.9108
10.9048
10.9069
10.9238
10.9561
10.9947
11.0274
11.0468
11.051
11.0468
11.0439
11.0507
11.0704
11.101
11.1357
11.1671
11.1873
11.1944
11.1943
11.1924
11.1988
11.225
11.2588
11.2892
11.3116
11.324
11.3285
11.3301
11.336
11.3518
11.3772
11.4072
11.434
11.4518
11.459
11.4597
11.4609
11.4683
11.4834
11.5038
11.5237
11.5379
11.5481
11.5592
11.5726
11.5922
11.6169
11.64
11.6558
11.6615
11.6566
11.6481
11.6465
11.6573
11.6799
11.7094
11.7388
11.7605
11.7707
11.7723
11.77
11.7686
11.7727
11.7842
11.8018
11.82
11.8329
11.8388
11.8394
11.8377
11.8382
11.8442
11.8567
11.8774
11.9015
11.92
11.93
11.9323
11.9304
11.9292
11.9317
11.9384
11.9506
11.9642
11.9749
11.9799
11.9805
11.9801
11.9836
11.994
12.0072
12.0162
12.0167
12.0074
11.9926
11.9809
11.9787
11.9861
11.9976
12.007
12.0115
12.0142
12.0201
12.0304
12.0417
12.0509
12.0564
12.0583
12.0572
12.0556
12.0542
12.0606
1
1
1
1
1
1
1
1
1
1
1
1
1
1
1
1
1
1
1
1
1
1
1
1
1
1
1
1
1
1
1
1
1
1
1
1
1
1
1
1
1
1
1
1
1
1
1
1
1
1
1
1
1
1
1
1
1
1
1
1
1
1
1
1
1
1
1
1
1
1
1
1
1
1
1
1
1
1
1
1
1
1
1
1
1
1
1
1
1
1
1
1
1
1
1
1
1
1
1
1
1
1
1
1
1
1
1
1
1
1
1
1
1
1
1
1
1
1
1
1
1
1
1
1
1
1
1
1
1
1
1
1
1
1
1
1
1
1
1
1
1
1
1
1
1
1
1
1
1
1
1
4.35843
10.0627
10.4286
10.4441
10.4703
10.4978
10.523
10.5422
10.5563
10.5722
10.5964
10.6241
10.6508
10.6744
10.6933
10.7077
10.7189
10.7269
10.7364
10.7593
10.7904
10.8257
10.8647
10.8969
10.9134
10.9143
10.9091
10.9093
10.922
10.9469
10.9807
11.015
11.0414
11.054
11.0544
11.0513
11.0531
11.0657
11.09
11.1215
11.1549
11.1824
11.1976
11.2021
11.2016
11.2026
11.2171
11.2438
11.2737
11.3008
11.3211
11.3327
11.3378
11.3419
11.351
11.3684
11.3942
11.4228
11.4472
11.4616
11.4661
11.4659
11.4671
11.4738
11.4878
11.5072
11.5277
11.5469
11.5642
11.5793
11.5948
11.6126
11.6303
11.6447
11.6522
11.6507
11.6444
11.6431
11.6526
11.6749
11.7069
11.7402
11.7639
11.7733
11.7717
11.7635
11.7577
11.7608
11.7757
11.7999
11.8224
11.835
11.8369
11.8315
11.8254
11.8257
11.8355
11.8558
11.8829
11.9059
11.9186
11.9217
11.9199
11.9189
11.9232
11.9314
11.9426
11.9545
11.9627
11.9669
11.9683
11.9689
11.9711
11.9792
11.993
12.0056
12.0118
12.0097
11.9994
11.9858
11.9768
11.9768
11.9848
11.9958
12.0038
12.0071
12.0095
12.0158
12.0266
12.0383
12.0472
12.0513
12.0514
12.05
12.0497
12.0508
12.0585
1
1
1
1
1
1
1
1
1
1
1
1
1
1
1
1
1
1
1
1
1
1
1
1
1
1
1
1
1
1
1
1
1
1
1
1
1
1
1
1
1
1
1
1
1
1
1
1
1
1
1
1
1
1
1
1
1
1
1
1
1
1
1
1
1
1
1
1
1
1
1
1
1
1
1
1
1
1
1
1
1
1
1
1
1
1
1
1
1
1
1
1
1
1
1
1
1
1
1
1
1
1
1
1
1
1
1
1
1
1
1
1
1
1
1
1
1
1
1
1
1
1
1
1
1
1
1
1
1
1
1
1
1
1
1
1
1
1
1
1
1
1
1
1
1
1
1
1
1
1
1
4.11436
9.97693
10.4343
10.4412
10.4622
10.4861
10.5118
10.536
10.5558
10.5761
10.601
10.6275
10.6515
10.6713
10.6869
10.7001
10.7124
10.7236
10.7394
10.7652
10.7942
10.8229
10.8548
10.884
10.9019
10.9081
10.9102
10.916
10.929
10.9483
10.9741
11.0035
11.0301
11.0461
11.0516
11.0529
11.0563
11.0676
11.088
11.1149
11.1453
11.174
11.1944
11.2037
11.2051
11.2055
11.2136
11.2337
11.2613
11.2907
11.3166
11.334
11.3421
11.3456
11.3506
11.3623
11.3835
11.4122
11.4413
11.4623
11.4701
11.4688
11.4652
11.465
11.4731
11.4919
11.5182
11.5461
11.5696
11.586
11.5972
11.6076
11.6187
11.6306
11.6396
11.6424
11.6405
11.6417
11.6513
11.6731
11.7051
11.7385
11.7622
11.7711
11.7676
11.7566
11.7487
11.7527
11.7715
11.7993
11.8227
11.8334
11.832
11.8229
11.8147
11.8158
11.83
11.8573
11.8878
11.9079
11.9146
11.9116
11.9063
11.9071
11.9163
11.9308
11.9467
11.9572
11.9601
11.9591
11.9578
11.9583
11.9633
11.9754
11.9908
12.0018
12.005
12.0012
11.9913
11.9801
11.974
11.9755
11.9834
11.9934
12.0002
12.0029
12.0052
12.0118
12.0223
12.0332
12.0414
12.0447
12.0443
12.0433
12.0446
12.0477
12.0563
1
1
1
1
1
1
1
1
1
1
1
1
1
1
1
1
1
1
1
1
1
1
1
1
1
1
1
1
1
1
1
1
1
1
1
1
1
1
1
1
1
1
1
1
1
1
1
1
1
1
1
1
1
1
1
1
1
1
1
1
1
1
1
1
1
1
1
1
1
1
1
1
1
1
1
1
1
1
1
1
1
1
1
1
1
1
1
1
1
1
1
1
1
1
1
1
1
1
1
1
1
1
1
1
1
1
1
1
1
1
1
1
1
1
1
1
1
1
1
1
1
1
1
1
1
1
1
1
1
1
1
1
1
1
1
1
1
1
1
1
1
1
1
1
1
1
1
1
1
1
1
3.86547
9.87724
10.44
10.4417
10.4595
10.4793
10.503
10.5281
10.5522
10.5774
10.6054
10.6316
10.652
10.6658
10.6758
10.6885
10.7048
10.7232
10.7488
10.7784
10.8049
10.8259
10.8452
10.8639
10.8789
10.8913
10.9065
10.9255
10.944
10.9598
10.9762
10.9951
11.0142
11.0288
11.0392
11.0486
11.0605
11.0763
11.095
11.1161
11.1394
11.1629
11.1827
11.1962
11.2037
11.2082
11.216
11.2323
11.2557
11.2826
11.3081
11.3274
11.3384
11.344
11.3488
11.3585
11.3773
11.4042
11.4341
11.4582
11.469
11.4679
11.4616
11.4571
11.4616
11.4804
11.5111
11.5453
11.5729
11.5896
11.5971
11.6014
11.6067
11.6156
11.6256
11.6327
11.6365
11.6418
11.6528
11.674
11.7036
11.7341
11.7558
11.7634
11.7593
11.7491
11.7432
11.7501
11.7715
11.7985
11.8194
11.8275
11.8241
11.814
11.8063
11.8102
11.829
11.8606
11.89
11.9066
11.9081
11.9002
11.8931
11.8958
11.9096
11.9302
11.9488
11.9576
11.9563
11.9514
11.9481
11.9491
11.9569
11.9721
11.9875
11.9962
11.9965
11.9914
11.9831
11.9751
11.9719
11.9747
11.9819
11.9904
11.9961
11.9987
12.0013
12.008
12.0175
12.0269
12.0341
12.0369
12.0368
12.0369
12.04
12.0448
12.0539
1
1
1
1
1
1
1
1
1
1
1
1
1
1
1
1
1
1
1
1
1
1
1
1
1
1
1
1
1
1
1
1
1
1
1
1
1
1
1
1
1
1
1
1
1
1
1
1
1
1
1
1
1
1
1
1
1
1
1
1
1
1
1
1
1
1
1
1
1
1
1
1
1
1
1
1
1
1
1
1
1
1
1
1
1
1
1
1
1
1
1
1
1
1
1
1
1
1
1
1
1
1
1
1
1
1
1
1
1
1
1
1
1
1
1
1
1
1