/*--------------------------------*- C++ -*----------------------------------*\
  =========                 |
  \\      /  F ield         | OpenFOAM: The Open Source CFD Toolbox
   \\    /   O peration     | Website:  https://openfoam.org
    \\  /    A nd           | Version:  7
     \\/     M anipulation  |
\*---------------------------------------------------------------------------*/
FoamFile
{
    version     2.0;
    format      ascii;
    class       volVectorField;
    location    "100.999584";
    object      U;
}
// * * * * * * * * * * * * * * * * * * * * * * * * * * * * * * * * * * * * * //

dimensions      [0 1 -1 0 0 0 0];

internalField   nonuniform List<vector> 
5800
(
(-0.179861 0.035032 -6.00433e-22)
(-0.172823 0.0365865 -1.65874e-20)
(-0.157489 0.0368245 2.40854e-20)
(-0.134516 0.0355236 7.09222e-21)
(-0.104451 0.0325773 -1.94479e-20)
(-0.18321 0.0537875 3.36578e-21)
(-0.185627 0.0679508 3.20372e-21)
(-0.187779 0.0832404 -5.959e-21)
(-0.189542 0.0995702 2.86016e-21)
(-0.190843 0.11683 -1.67734e-21)
(-0.191613 0.134867 -5.91784e-22)
(-0.191795 0.153492 3.3722e-21)
(-0.191334 0.172477 -4.92711e-21)
(-0.190178 0.191546 2.15299e-21)
(-0.188276 0.210377 2.03386e-21)
(-0.185581 0.228603 -4.24589e-21)
(-0.182043 0.245812 -1.18188e-22)
(-0.17761 0.261546 3.51185e-21)
(-0.172227 0.275306 -2.70337e-22)
(-0.16583 0.286547 -1.52674e-21)
(-0.158339 0.294678 1.35124e-21)
(-0.149645 0.299072 -6.70679e-22)
(-0.139621 0.299093 9.28649e-22)
(-0.128118 0.294094 -6.999e-22)
(-0.114976 0.28344 -5.02672e-22)
(-0.0999687 0.266479 2.24496e-21)
(-0.0829541 0.242887 -6.21375e-22)
(-0.0638931 0.212233 -1.59561e-21)
(-0.042599 0.174304 1.08961e-21)
(-0.0191993 0.129537 4.00075e-22)
(0.00616077 0.0782228 -1.46319e-21)
(0.0334018 0.0212633 1.74345e-21)
(0.0619852 -0.0404092 -1.45172e-21)
(0.0914937 -0.104974 -1.04137e-21)
(0.121465 -0.170693 2.97089e-21)
(0.151182 -0.235393 -2.04724e-21)
(0.179795 -0.296886 -3.23389e-22)
(0.206269 -0.352978 4.19945e-22)
(0.229377 -0.402113 3.64215e-23)
(0.24764 -0.44342 9.13514e-22)
(0.259555 -0.477018 -1.12246e-21)
(0.263842 -0.503935 9.14898e-22)
(0.259923 -0.525576 -1.03459e-23)
(0.248687 -0.542619 -4.85913e-23)
(0.233258 -0.553608 -9.16152e-23)
(0.219112 -0.554081 5.67137e-22)
(0.212887 -0.537291 -2.54248e-24)
(0.21993 -0.496844 -2.65428e-22)
(0.241834 -0.429979 -1.45234e-22)
(0.276088 -0.338905 1.05563e-22)
(0.318472 -0.229144 -5.57453e-22)
(0.36578 -0.107084 7.42671e-22)
(0.416182 0.0204588 -2.09873e-22)
(0.468214 0.145664 4.53584e-22)
(0.519537 0.259482 -1.53267e-22)
(0.567132 0.354047 1.16261e-23)
(0.607656 0.424791 5.20397e-23)
(0.638683 0.472177 -2.31177e-22)
(0.658762 0.499478 2.44466e-22)
(0.669095 0.510996 -2.06391e-22)
(0.669844 0.51203 1.78676e-23)
(0.657372 0.51411 1.40979e-22)
(0.626478 0.526476 -3.30442e-24)
(0.582722 0.543066 -8.12256e-23)
(0.540991 0.538877 -5.44038e-23)
(0.518614 0.485083 -3.38565e-23)
(0.516888 0.382032 1.20886e-22)
(0.53741 0.227464 -1.37543e-22)
(0.567452 0.0716149 -1.10858e-22)
(0.614328 -0.101638 7.18738e-23)
(0.649079 -0.213558 -1.89584e-22)
(0.700416 -0.324653 6.62797e-23)
(0.703822 -0.363998 -4.16366e-23)
(0.743034 -0.396783 1.58927e-23)
(0.730527 -0.372663 2.98582e-24)
(-0.175574 0.0556431 -1.21889e-21)
(-0.177367 0.0695241 -2.15288e-21)
(-0.178852 0.0843374 -2.04924e-21)
(-0.179911 0.100108 3.03041e-22)
(-0.180453 0.116753 -1.46278e-21)
(-0.180398 0.13414 1.18597e-20)
(-0.179676 0.15209 -8.63511e-21)
(-0.178221 0.170381 6.43192e-21)
(-0.175969 0.188746 -4.87802e-21)
(-0.172853 0.206864 -3.30927e-21)
(-0.168804 0.224371 3.41784e-21)
(-0.163755 0.240857 3.47199e-21)
(-0.157636 0.255862 -7.68741e-21)
(-0.150374 0.268879 1.77044e-21)
(-0.141897 0.279361 -3.35434e-21)
(-0.132122 0.286701 3.4433e-21)
(-0.120934 0.290246 -9.05319e-22)
(-0.108207 0.289355 6.98845e-21)
(-0.0938197 0.283378 -2.83006e-21)
(-0.0777052 0.271694 1.19017e-21)
(-0.0595964 0.253494 1.95523e-21)
(-0.039446 0.228791 -5.59236e-21)
(-0.0174696 0.197001 7.31358e-22)
(0.00661698 0.158105 -1.01481e-21)
(0.0326121 0.112337 -4.78747e-23)
(0.0601106 0.0602618 7.43278e-22)
(0.0889776 0.00266963 3.31574e-21)
(0.118772 -0.0592907 -1.11795e-21)
(0.149099 -0.123901 -2.58519e-21)
(0.179444 -0.189307 4.76651e-21)
(0.209158 -0.253283 -7.89146e-21)
(0.237435 -0.313505 2.01693e-21)
(0.263262 -0.367717 6.10738e-21)
(0.285424 -0.414209 -4.01452e-21)
(0.302503 -0.452074 -1.41678e-21)
(0.313019 -0.481482 2.0539e-21)
(0.315578 -0.503697 -3.11154e-21)
(0.309189 -0.520684 4.17894e-21)
(0.293946 -0.534108 -1.71513e-21)
(0.27203 -0.543764 -4.55137e-22)
(0.248373 -0.546184 3.35173e-22)
(0.23007 -0.534664 -1.83864e-23)
(0.224115 -0.50151 2.1e-22)
(0.234348 -0.441817 -5.76462e-23)
(0.259795 -0.356118 6.47155e-22)
(0.296291 -0.249628 -3.88354e-22)
(0.339802 -0.129366 8.72388e-22)
(0.387847 -0.00269605 -1.17236e-21)
(0.438708 0.122498 -2.92009e-22)
(0.490049 0.237521 -4.52818e-22)
(0.538844 0.334656 1.23531e-21)
(0.581559 0.409177 -1.39718e-21)
(0.615418 0.461022 -3.22772e-22)
(0.638857 0.492684 3.79428e-22)
(0.652658 0.508211 -6.70682e-23)
(0.655836 0.513885 -1.06398e-22)
(0.644086 0.521828 -4.96874e-23)
(0.613712 0.539385 8.48422e-23)
(0.57281 0.557062 -3.82632e-22)
(0.536719 0.548975 3.45912e-22)
(0.521133 0.488266 1.20818e-22)
(0.524874 0.379059 2.63325e-24)
(0.550176 0.219165 3.66055e-22)
(0.582883 0.0601532 -2.64304e-22)
(0.631979 -0.114149 -2.28614e-23)
(0.666207 -0.226096 -3.01198e-23)
(0.718212 -0.332706 2.21687e-23)
(0.719965 -0.369623 -6.84402e-23)
(0.756372 -0.400575 4.33844e-23)
(0.743172 -0.370868 -1.96345e-23)
(-0.158863 0.0560284 5.19864e-23)
(-0.159926 0.0695653 6.37807e-21)
(-0.160558 0.0838732 1.30066e-21)
(-0.16073 0.099052 -1.25886e-20)
(-0.160345 0.115048 -7.82891e-21)
(-0.159308 0.131748 7.02783e-21)
(-0.15754 0.148986 1.65672e-20)
(-0.154964 0.166553 -9.17244e-21)
(-0.151507 0.184187 -3.46829e-21)
(-0.147088 0.201558 1.97577e-21)
(-0.141619 0.218311 4.48166e-21)
(-0.135013 0.234037 -6.08109e-21)
(-0.127187 0.248282 7.00717e-21)
(-0.118049 0.260519 -6.08256e-21)
(-0.107526 0.270207 1.26649e-20)
(-0.0955505 0.276733 -1.2011e-20)
(-0.0819994 0.279408 2.25503e-21)
(-0.0667483 0.277606 -1.80406e-20)
(-0.0497076 0.270703 6.27426e-21)
(-0.0310217 0.258045 -5.68619e-21)
(-0.0102278 0.239094 1.73341e-21)
(0.0126725 0.213458 1.98398e-20)
(0.0371575 0.180816 -1.10232e-20)
(0.0634517 0.141321 3.87119e-21)
(0.0913137 0.0949496 -1.10673e-20)
(0.120356 0.0424235 9.42548e-21)
(0.150337 -0.0154512 -1.36378e-20)
(0.180859 -0.0773898 5.61456e-21)
(0.211513 -0.141797 -1.73117e-21)
(0.241806 -0.206722 4.35677e-21)
(0.271116 -0.269867 4.15446e-21)
(0.298647 -0.328789 5.11562e-21)
(0.323398 -0.381133 -4.48143e-21)
(0.344183 -0.425066 7.27233e-22)
(0.359679 -0.459622 -1.88542e-21)
(0.368539 -0.484968 3.32273e-21)
(0.369446 -0.502462 -1.78017e-21)
(0.361224 -0.514431 6.44762e-22)
(0.343303 -0.523362 -2.99217e-21)
(0.316761 -0.53035 6.60283e-22)
(0.285465 -0.533292 1.03012e-21)
(0.256267 -0.526145 -1.95947e-21)
(0.237305 -0.500455 1.5001e-21)
(0.234734 -0.449173 2.00405e-21)
(0.249829 -0.370539 -1.21899e-21)
(0.279206 -0.268755 -3.61327e-22)
(0.318168 -0.151216 -1.57874e-21)
(0.363329 -0.0259647 3.52567e-22)
(0.412531 0.0988576 6.02978e-22)
(0.463391 0.214768 1.24444e-21)
(0.512849 0.314218 -1.35835e-21)
(0.55724 0.392347 8.49527e-22)
(0.593554 0.448544 5.31531e-22)
(0.620107 0.48456 -5.62199e-22)
(0.637042 0.504382 2.89066e-23)
(0.642205 0.515216 4.69369e-22)
(0.631059 0.529249 -1.8457e-22)
(0.601713 0.551534 -1.05057e-23)
(0.564512 0.569476 3.93652e-22)
(0.534601 0.557113 -5.59934e-23)
(0.525934 0.489714 9.85497e-22)
(0.535126 0.374862 -7.71114e-22)
(0.565227 0.210105 -4.43198e-22)
(0.600537 0.0483078 1.16685e-21)
(0.651683 -0.126617 -5.83578e-22)
(0.684953 -0.23848 5.55734e-22)
(0.737121 -0.340557 3.42134e-22)
(0.737258 -0.374581 2.32853e-22)
(0.770624 -0.403854 -2.18513e-22)
(0.756271 -0.36897 3.49692e-23)
(-0.133905 0.0548153 1.32809e-22)
(-0.134202 0.0679232 -2.30891e-20)
(-0.133837 0.0817123 -5.0975e-21)
(-0.132979 0.0962815 2.60385e-20)
(-0.131535 0.111606 -1.85153e-20)
(-0.129397 0.127597 3.17279e-21)
(-0.12647 0.144096 1.13912e-20)
(-0.12267 0.160917 -9.51157e-21)
(-0.117935 0.177818 -9.20169e-21)
(-0.112166 0.194405 1.53111e-20)
(-0.105242 0.210372 5.14222e-21)
(-0.0970665 0.225312 -5.73093e-21)
(-0.0875576 0.238787 -6.05439e-21)
(-0.0766051 0.250216 3.91019e-22)
(-0.0641215 0.259078 1.46412e-20)
(-0.0500952 0.264778 -7.13726e-21)
(-0.0344002 0.266658 -5.59752e-22)
(-0.0168611 0.264087 -8.71501e-21)
(0.00252817 0.256395 -7.86715e-22)
(0.0236641 0.242952 3.75869e-21)
(0.0467371 0.223524 1.01602e-20)
(0.0717006 0.197249 -1.1387e-20)
(0.0982131 0.164118 1.03168e-20)
(0.126222 0.124204 -5.80808e-21)
(0.155466 0.0776211 -2.90379e-21)
(0.185581 0.0250033 -1.50105e-21)
(0.216282 -0.032771 7.9519e-21)
(0.247181 -0.0944427 8.83473e-21)
(0.277845 -0.158429 -1.67184e-20)
(0.307797 -0.222718 -3.30186e-21)
(0.336408 -0.284936 1.49693e-20)
(0.362868 -0.342522 -5.01199e-21)
(0.386166 -0.393013 -7.97953e-21)
(0.405144 -0.434478 3.53263e-21)
(0.418599 -0.465899 -3.68485e-21)
(0.425388 -0.487414 3.9793e-21)
(0.424421 -0.500398 -1.65457e-21)
(0.414586 -0.507347 6.43064e-21)
(0.394933 -0.511286 3.97718e-22)
(0.365507 -0.514458 -4.85353e-22)
(0.328762 -0.516342 -1.65451e-21)
(0.290566 -0.512144 -2.49838e-21)
(0.259427 -0.493388 -7.99115e-22)
(0.243493 -0.451267 2.99426e-21)
(0.246758 -0.381328 5.06805e-22)
(0.267539 -0.285917 -1.59934e-21)
(0.300982 -0.172268 3.60904e-22)
(0.342687 -0.0491171 2.36471e-22)
(0.389774 0.074926 1.88436e-21)
(0.439661 0.191399 -1.06714e-21)
(0.489256 0.292897 -6.99632e-22)
(0.534827 0.374426 1.22371e-22)
(0.573225 0.434821 1.83576e-21)
(0.602579 0.475187 -9.90661e-22)
(0.62221 0.499616 -1.11118e-21)
(0.628912 0.516057 4.14232e-22)
(0.618372 0.536224 2.15513e-22)
(0.590655 0.562651 1.57265e-22)
(0.557973 0.580087 -1.1103e-21)
(0.534689 0.563224 9.16408e-22)
(0.533038 0.489447 -1.66338e-23)
(0.547663 0.36946 6.68762e-22)
(0.582556 0.200318 -7.81361e-22)
(0.62037 0.0360898 -1.19886e-21)
(0.673397 -0.138951 7.16401e-22)
(0.705312 -0.250563 -4.39663e-22)
(0.757063 -0.348138 -4.57583e-22)
(0.755573 -0.378846 -3.38838e-22)
(0.785726 -0.406528 1.37768e-22)
(0.769772 -0.366907 -5.707e-23)
(-0.101461 0.0519906 2.3213e-20)
(-0.101053 0.0645291 -8.43378e-21)
(-0.0996006 0.0777996 5.66147e-21)
(-0.0976364 0.0917424 -3.69519e-20)
(-0.095057 0.106385 1.74279e-20)
(-0.091748 0.121655 -2.29824e-20)
(-0.0875975 0.137404 2.56939e-20)
(-0.0824961 0.153444 -2.42506e-20)
(-0.0764628 0.169688 -6.34197e-21)
(-0.0693625 0.185437 5.0426e-20)
(-0.0609925 0.200595 -2.7967e-20)
(-0.0512684 0.214732 2.49287e-20)
(-0.0401485 0.227382 -4.71243e-21)
(-0.0275227 0.238024 5.29879e-22)
(-0.0132286 0.246125 -1.58343e-20)
(0.00271884 0.251074 -7.2228e-21)
(0.020401 0.252287 -3.77364e-21)
(0.0399364 0.249102 9.67446e-21)
(0.0613135 0.240824 -2.55751e-20)
(0.0844776 0.226891 1.21289e-20)
(0.109433 0.206936 -8.45069e-21)
(0.136078 0.180374 2.94811e-21)
(0.164151 0.147085 7.9483e-21)
(0.193458 0.10711 1.76509e-20)
(0.223711 0.060636 -1.16299e-20)
(0.254579 0.00817285 -1.06054e-20)
(0.285741 -0.0491117 8.1161e-21)
(0.316788 -0.110273 1.28629e-21)
(0.34727 -0.173647 8.64041e-21)
(0.3767 -0.237158 -7.0838e-21)
(0.404409 -0.298349 -8.69788e-21)
(0.429541 -0.354544 1.35463e-20)
(0.45106 -0.403179 -1.08375e-20)
(0.467838 -0.442246 6.94335e-21)
(0.478807 -0.470688 2.0023e-21)
(0.483064 -0.488639 -3.75665e-21)
(0.479822 -0.497488 -1.875e-21)
(0.46824 -0.499732 2.06546e-21)
(0.447326 -0.498611 -3.31069e-21)
(0.416383 -0.497193 8.27608e-22)
(0.37637 -0.49652 -9.05254e-22)
(0.331571 -0.493512 3.63983e-22)
(0.289933 -0.480461 -3.03951e-22)
(0.26088 -0.447537 1.58956e-21)
(0.251179 -0.387603 -1.62793e-21)
(0.261725 -0.300359 1.25174e-21)
(0.288387 -0.192047 -2.87209e-21)
(0.3259 -0.0718729 7.66257e-22)
(0.370394 0.0508951 3.01873e-21)
(0.418864 0.167586 -2.39924e-21)
(0.468115 0.270848 -1.59746e-21)
(0.514407 0.35553 2.00784e-21)
(0.55451 0.419942 -1.46207e-21)
(0.586269 0.464677 8.01269e-22)
(0.608077 0.494029 1.73599e-22)
(0.615918 0.516409 2.96725e-22)
(0.60612 0.542571 -1.33098e-21)
(0.58071 0.572466 4.03527e-22)
(0.553316 0.588707 -2.36938e-22)
(0.537019 0.567259 1.25755e-21)
(0.542452 0.487494 -2.7194e-21)
(0.56248 0.362883 1.2915e-21)
(0.602105 0.189853 6.35389e-22)
(0.642288 0.0235931 7.86422e-22)
(0.697032 -0.151066 -2.6782e-22)
(0.727247 -0.262195 4.47605e-22)
(0.777949 -0.355364 6.90148e-22)
(0.774771 -0.382395 -3.85353e-22)
(0.801593 -0.408521 -3.28436e-22)
(0.783616 -0.364621 1.30492e-22)
(-0.062039 0.0476742 -1.0277e-20)
(-0.0611243 0.0594732 9.20248e-21)
(-0.0585741 0.0722323 6.36469e-21)
(-0.0555456 0.0855128 -4.12173e-20)
(-0.0518393 0.0994685 4.26266e-20)
(-0.0473718 0.114015 -1.18728e-22)
(-0.0420363 0.129018 -2.91031e-20)
(-0.0355465 0.14433 1.83258e-20)
(-0.0282538 0.159611 5.73931e-21)
(-0.0199905 0.174579 6.25648e-21)
(-0.0102265 0.188976 -2.30721e-20)
(0.000918245 0.202354 -2.14882e-20)
(0.0135454 0.214234 6.63716e-21)
(0.0277664 0.22418 2.03528e-20)
(0.0436915 0.231618 -1.34228e-20)
(0.0613224 0.235933 3.73586e-20)
(0.080721 0.236559 -4.25179e-20)
(0.101956 0.232843 4.94218e-20)
(0.125007 0.224155 -1.30038e-20)
(0.149807 0.209936 -3.86879e-20)
(0.176279 0.189752 3.48011e-20)
(0.204275 0.163172 -2.9467e-21)
(0.233543 0.130013 -5.68616e-21)
(0.263823 0.0903021 2.02183e-20)
(0.29476 0.0442344 -1.34589e-20)
(0.326241 -0.00765255 -3.46233e-20)
(0.35777 -0.0643161 2.85328e-20)
(0.388785 -0.124793 -6.83198e-21)
(0.418983 -0.187382 -6.0876e-21)
(0.447783 -0.249969 1.19095e-20)
(0.474443 -0.310013 2.19003e-20)
(0.498037 -0.364739 -7.53939e-21)
(0.517489 -0.411486 -3.64815e-20)
(0.531719 -0.448186 2.54763e-20)
(0.539811 -0.473772 -1.12621e-20)
(0.541107 -0.488439 3.58474e-21)
(0.535149 -0.493603 6.53732e-21)
(0.521487 -0.491666 -2.69438e-21)
(0.499369 -0.485812 -2.6042e-22)
(0.467759 -0.479514 9.2524e-22)
(0.426346 -0.475103 -3.12884e-21)
(0.377512 -0.471431 -1.22543e-21)
(0.327756 -0.462308 3.08349e-21)
(0.28676 -0.437792 9.05138e-22)
(0.263608 -0.388571 -2.32484e-21)
(0.26234 -0.311195 1.10588e-21)
(0.280632 -0.209924 -7.82267e-22)
(0.312949 -0.0938846 -2.38655e-21)
(0.354288 0.026988 -3.89524e-22)
(0.400916 0.143507 3.14565e-21)
(0.4494 0.248224 1.46761e-21)
(0.495999 0.335784 1.53073e-21)
(0.537412 0.404026 -7.74099e-22)
(0.571099 0.453169 1.698e-21)
(0.594532 0.487727 -2.18391e-21)
(0.603199 0.516236 1.33212e-21)
(0.594418 0.548083 -1.44606e-21)
(0.57204 0.580723 -2.48647e-23)
(0.550638 0.595181 1.66707e-21)
(0.541609 0.56919 -1.61651e-21)
(0.554169 0.483891 1.64223e-21)
(0.57955 0.355171 -1.03647e-21)
(0.62382 0.178766 -2.99196e-21)
(0.666172 0.0108367 -1.55725e-21)
(0.722428 -0.162894 3.79734e-22)
(0.75068 -0.273234 -1.98062e-22)
(0.799683 -0.362134 -6.92779e-22)
(0.794704 -0.385207 -2.86275e-22)
(0.818127 -0.409766 1.88779e-22)
(0.797739 -0.362054 -7.08778e-23)
(-0.0155845 0.0416793 3.32675e-20)
(-0.0144789 0.0530567 -2.52218e-20)
(-0.0110156 0.064991 4.15936e-20)
(-0.00716219 0.0775796 -1.56259e-20)
(-0.00248584 0.0908493 1.27687e-20)
(0.00299703 0.104675 -3.29563e-20)
(0.00941281 0.118948 5.05859e-21)
(0.0168741 0.133482 -1.54331e-21)
(0.0253337 0.147816 7.55113e-21)
(0.0349336 0.162092 2.1988e-20)
(0.0459014 0.175755 -1.79129e-20)
(0.0583064 0.188424 1.34773e-20)
(0.0722511 0.199643 8.91822e-21)
(0.0878373 0.208948 4.36931e-21)
(0.105148 0.215774 -2.55528e-20)
(0.124202 0.219544 1.61785e-20)
(0.145034 0.219695 -2.39886e-20)
(0.167676 0.215609 2.74527e-21)
(0.192094 0.206687 -1.07148e-21)
(0.218199 0.192382 3.81725e-20)
(0.24587 0.172244 -3.30949e-20)
(0.274927 0.14589 -5.20637e-21)
(0.30512 0.113116 -9.64407e-21)
(0.33616 0.0739245 4.12214e-20)
(0.367695 0.028526 -1.48747e-20)
(0.39958 -0.0224794 -1.5323e-20)
(0.431302 -0.0783952 -9.85422e-21)
(0.462315 -0.137995 3.74911e-20)
(0.492197 -0.199623 -1.35823e-20)
(0.5203 -0.261123 -1.77197e-20)
(0.545786 -0.319877 -1.3665e-20)
(0.567645 -0.373016 3.77365e-20)
(0.58477 -0.417799 -1.0554e-20)
(0.596145 -0.45212 -3.66532e-21)
(0.601017 -0.474969 -6.41429e-21)
(0.598986 -0.486642 -4.05471e-21)
(0.589938 -0.488582 4.38046e-21)
(0.573832 -0.483084 3.09709e-21)
(0.550308 -0.473107 -3.10613e-21)
(0.518384 -0.462127 -3.55379e-21)
(0.47692 -0.453286 4.74159e-21)
(0.42644 -0.44728 -6.09699e-22)
(0.371364 -0.43999 1.33336e-23)
(0.320498 -0.422334 -7.52704e-22)
(0.284316 -0.383694 1.49198e-21)
(0.270044 -0.3175 -2.00715e-21)
(0.278189 -0.225098 2.95283e-21)
(0.303935 -0.114632 1.30938e-22)
(0.341337 0.00348988 -2.31462e-22)
(0.385658 0.119344 -1.10583e-21)
(0.432997 0.225172 -1.47654e-21)
(0.479528 0.315317 5.34589e-22)
(0.521833 0.387211 1.43914e-21)
(0.556916 0.440809 -3.40463e-21)
(0.581441 0.48079 2.66373e-21)
(0.590755 0.515461 -1.55474e-21)
(0.583396 0.552532 9.01579e-22)
(0.564799 0.587186 8.56042e-22)
(0.550013 0.599386 -1.17868e-21)
(0.548465 0.56901 -5.58372e-22)
(0.568163 0.478679 1.62898e-21)
(0.598823 0.346375 -6.48858e-22)
(0.647593 0.167115 1.15179e-21)
(0.691882 -0.00220974 4.0054e-21)
(0.749425 -0.174378 4.32323e-22)
(0.775497 -0.283544 6.71574e-22)
(0.822158 -0.368341 1.94513e-21)
(0.815214 -0.38726 -9.01096e-23)
(0.835212 -0.41021 -4.94765e-23)
(0.812074 -0.359158 -7.40179e-24)
(0.038938 0.0347413 1.71641e-20)
(0.0399529 0.0456157 3.50255e-20)
(0.0433441 0.0565397 -4.11024e-20)
(0.0478493 0.0683951 -1.14182e-21)
(0.0530909 0.0809131 9.12007e-21)
(0.0592161 0.0939796 -8.39638e-21)
(0.0663456 0.107478 -1.76831e-20)
(0.0745573 0.121204 -2.82431e-21)
(0.0838955 0.134897 4.36192e-20)
(0.0944681 0.148387 -1.1349e-21)
(0.106412 0.161304 -3.50432e-21)
(0.119835 0.173265 -7.21888e-21)
(0.134836 0.183834 7.35261e-21)
(0.151508 0.192536 -5.29516e-21)
(0.169925 0.198831 8.75188e-21)
(0.190111 0.202162 -2.33157e-20)
(0.21208 0.20197 -2.17686e-20)
(0.235834 0.197668 3.03292e-20)
(0.261322 0.188681 2.3907e-21)
(0.288441 0.174476 -1.74691e-20)
(0.317042 0.154602 4.20607e-20)
(0.346925 0.128689 -5.05548e-21)
(0.377839 0.0965174 -2.20579e-21)
(0.409485 0.058034 -4.27821e-20)
(0.441535 0.0133683 2.39848e-21)
(0.473776 -0.0365578 4.03458e-20)
(0.505667 -0.0913977 -1.66334e-20)
(0.536645 -0.149918 -2.76621e-20)
(0.566181 -0.210394 1.7843e-20)
(0.593513 -0.270617 -4.64707e-21)
(0.61769 -0.327893 5.67116e-21)
(0.637613 -0.379271 1.59554e-20)
(0.652158 -0.421968 -4.34633e-21)
(0.660383 -0.4539 -1.73962e-20)
(0.661728 -0.474156 1.78353e-20)
(0.656085 -0.483125 2.34217e-21)
(0.643685 -0.482292 2.38362e-21)
(0.624857 -0.473864 -2.38869e-21)
(0.599653 -0.460519 -1.08473e-20)
(0.567403 -0.445435 4.97267e-21)
(0.526651 -0.432038 6.85736e-22)
(0.476451 -0.422459 -1.76309e-22)
(0.418894 -0.414873 5.96933e-22)
(0.360925 -0.401961 2.14656e-22)
(0.313161 -0.372862 -4.69224e-22)
(0.285437 -0.318465 2.40712e-22)
(0.281738 -0.236635 4.31998e-22)
(0.299188 -0.133455 -8.48856e-22)
(0.331521 -0.0192382 5.2363e-22)
(0.372913 0.0953149 8.50291e-22)
(0.418713 0.201841 -9.52751e-22)
(0.464812 0.294268 -9.6987e-22)
(0.507571 0.369646 3.68096e-22)
(0.543511 0.427732 1.70943e-22)
(0.568683 0.473258 2.63442e-23)
(0.578619 0.513965 9.80126e-22)
(0.573205 0.555685 -3.21419e-23)
(0.559131 0.591648 -3.54655e-21)
(0.551495 0.601232 -1.12368e-21)
(0.557573 0.566727 -1.42998e-21)
(0.584389 0.471903 1.23416e-21)
(0.620221 0.336553 1.72894e-21)
(0.673305 0.154988 -3.37284e-21)
(0.719276 -0.015354 -5.84035e-22)
(0.777828 -0.185449 -1.53691e-21)
(0.801547 -0.293007 -2.72167e-21)
(0.845252 -0.373872 7.22394e-22)
(0.83614 -0.388535 -8.09289e-22)
(0.852724 -0.409813 1.58728e-22)
(0.826549 -0.355887 -3.89332e-23)
(0.103067 0.0279972 -3.25712e-20)
(0.103795 0.0379201 4.02746e-20)
(0.10633 0.0479332 5.24435e-20)
(0.110644 0.0588335 -6.03516e-20)
(0.115833 0.0704577 -3.84708e-20)
(0.121988 0.0826504 2.71696e-20)
(0.129256 0.09528 2.61025e-20)
(0.137715 0.108163 3.86489e-20)
(0.147425 0.121074 -4.50219e-20)
(0.158477 0.13377 -2.95778e-22)
(0.170977 0.145931 -3.82842e-20)
(0.185022 0.157188 9.59469e-21)
(0.200702 0.167118 3.15559e-20)
(0.218098 0.175258 -2.39693e-21)
(0.23727 0.18109 -2.09647e-20)
(0.258242 0.184071 4.90578e-21)
(0.281016 0.183649 1.27333e-20)
(0.305567 0.179261 -2.59299e-20)
(0.331832 0.170352 5.65653e-20)
(0.359695 0.156403 -2.73842e-20)
(0.388992 0.136965 -1.73369e-20)
(0.419509 0.111671 4.13135e-20)
(0.450976 0.0802819 -4.23534e-20)
(0.483038 0.0426846 1.43876e-20)
(0.515651 -0.000948459 5.96323e-21)
(0.548307 -0.0496818 2.0418e-20)
(0.580271 -0.103345 -1.55429e-20)
(0.611163 -0.160591 -2.4552e-20)
(0.640286 -0.219695 6.79496e-21)
(0.666734 -0.278405 -1.09633e-20)
(0.689428 -0.333967 4.96269e-20)
(0.707178 -0.383384 -1.96007e-20)
(0.718855 -0.423877 -2.75306e-20)
(0.723634 -0.453436 3.44218e-20)
(0.721193 -0.471253 -1.92282e-20)
(0.711739 -0.477818 -2.68754e-21)
(0.695841 -0.47466 8.04523e-21)
(0.674149 -0.463905 -2.04957e-21)
(0.647061 -0.447965 4.27803e-21)
(0.614296 -0.429583 -1.41106e-21)
(0.574514 -0.412005 1.92323e-21)
(0.525893 -0.398204 -3.39022e-21)
(0.46837 -0.388476 2.04534e-21)
(0.4064 -0.377892 8.08382e-22)
(0.349455 -0.356496 -1.67247e-21)
(0.308853 -0.313586 -1.31145e-22)
(0.292076 -0.243586 1.46263e-21)
(0.299313 -0.149514 -2.57436e-21)
(0.325043 -0.0406928 3.13384e-21)
(0.362591 0.0717143 -9.36544e-22)
(0.406325 0.178409 2.32478e-22)
(0.451592 0.272781 -1.74814e-22)
(0.494353 0.351471 1.13033e-23)
(0.530657 0.414048 -1.28671e-21)
(0.55617 0.46513 1.59296e-21)
(0.566873 0.511591 8.2203e-22)
(0.564019 0.557307 5.40782e-22)
(0.555172 0.593935 -3.10868e-23)
(0.555121 0.60066 4.32173e-21)
(0.568904 0.562365 -3.56515e-21)
(0.602773 0.463619 4.23341e-21)
(0.643644 0.325771 -1.01786e-21)
(0.700844 0.142474 4.78662e-21)
(0.748201 -0.0284638 -9.27465e-22)
(0.807402 -0.196046 -4.50033e-22)
(0.828643 -0.301517 1.23059e-21)
(0.868832 -0.378612 -9.54379e-22)
(0.857319 -0.389009 8.19797e-22)
(0.870529 -0.408548 3.87448e-22)
(0.841091 -0.352206 -6.51923e-23)
(0.179626 0.0311843 -4.49603e-21)
(0.180397 0.0400375 -8.49946e-20)
(0.183484 0.0497951 9.30551e-20)
(0.187742 0.0603503 -4.72228e-20)
(0.193067 0.0715057 -4.10527e-21)
(0.19964 0.0831169 3.95181e-20)
(0.207563 0.0950201 -4.23701e-20)
(0.216902 0.107007 -6.76139e-21)
(0.227735 0.118825 3.39582e-20)
(0.240146 0.130167 -7.05429e-21)
(0.254219 0.140676 -3.82163e-20)
(0.270031 0.149944 6.98977e-20)
(0.287645 0.157522 -1.75261e-20)
(0.307106 0.162912 -3.26372e-20)
(0.328429 0.165588 4.21292e-20)
(0.351604 0.165008 8.09166e-21)
(0.376589 0.160624 -1.87841e-20)
(0.403307 0.151895 -2.56127e-20)
(0.431631 0.138316 -3.49566e-20)
(0.461387 0.119439 1.8047e-20)
(0.492355 0.0948965 1.40943e-20)
(0.524246 0.0644361 2.6809e-20)
(0.55669 0.027928 -3.86624e-20)
(0.589732 -0.0143697 2.46921e-20)
(0.622645 -0.0619357 -3.0074e-21)
(0.654674 -0.114263 -2.30367e-20)
(0.685405 -0.170016 1.60048e-20)
(0.713971 -0.2275 1.69301e-21)
(0.739325 -0.28443 -3.35782e-20)
(0.760266 -0.338023 1.0903e-20)
(0.775533 -0.385279 2.00609e-20)
(0.784028 -0.423463 -1.12651e-20)
(0.785085 -0.450668 5.49036e-21)
(0.778655 -0.466218 9.67933e-21)
(0.765281 -0.470703 -1.44899e-20)
(0.745853 -0.46567 6.22339e-21)
(0.721295 -0.453159 4.81425e-21)
(0.692251 -0.435348 -4.73266e-21)
(0.65878 -0.414538 1.52236e-22)
(0.61989 -0.393506 -2.87843e-21)
(0.573497 -0.375449 1.5422e-21)
(0.517934 -0.362267 4.89071e-22)
(0.454989 -0.351634 1.15828e-23)
(0.391935 -0.335526 -3.88923e-22)
(0.340151 -0.302838 -1.39542e-22)
(0.309918 -0.245156 1.38915e-21)
(0.305171 -0.161848 3.18334e-22)
(0.322431 -0.0601589 -1.15473e-21)
(0.354816 0.048928 1.17445e-24)
(0.39569 0.155088 -4.02886e-22)
(0.439611 0.251002 3.76709e-22)
(0.481915 0.332815 2.66354e-22)
(0.518175 0.399833 7.86316e-22)
(0.543888 0.456352 -7.09972e-22)
(0.555658 0.508156 -6.23048e-24)
(0.556033 0.557175 -1.44569e-21)
(0.553049 0.593909 -1.85386e-22)
(0.560911 0.597647 -4.65022e-22)
(0.582411 0.555962 1.18953e-21)
(0.623215 0.453889 -2.20547e-21)
(0.668955 0.314101 -3.87888e-21)
(0.730061 0.129664 1.68108e-21)
(0.778502 -0.0414689 -5.93725e-21)
(0.837913 -0.206106 5.26801e-21)
(0.856571 -0.308988 -1.31888e-22)
(0.892751 -0.382454 -8.81964e-22)
(0.878588 -0.388666 -6.65259e-22)
(0.888486 -0.406401 1.63019e-22)
(0.855624 -0.348087 3.55659e-23)
(0.270224 0.026571 -4.69271e-20)
(0.268346 0.0340258 2.07396e-20)
(0.269106 0.0424295 -1.41384e-20)
(0.27141 0.0517065 -1.30409e-20)
(0.27491 0.0616157 2.99287e-21)
(0.279788 0.0720035 -2.13258e-21)
(0.286199 0.0827292 6.24637e-21)
(0.294221 0.0936026 3.61438e-20)
(0.303926 0.104378 -5.73829e-20)
(0.315391 0.11476 4.47264e-20)
(0.328691 0.124404 1.56161e-20)
(0.34389 0.132919 -7.57146e-20)
(0.361037 0.139869 7.49114e-20)
(0.380162 0.144776 -2.9963e-20)
(0.401268 0.147129 1.97765e-21)
(0.42433 0.146399 2.38829e-20)
(0.449292 0.14205 -3.67103e-20)
(0.476061 0.133551 1.86271e-20)
(0.504501 0.120404 -4.25131e-20)
(0.534425 0.102165 -2.02568e-20)
(0.565606 0.0784632 7.16268e-20)
(0.597741 0.0490073 -1.11326e-20)
(0.630446 0.0135592 9.8992e-21)
(0.66371 -0.0272497 2.74142e-20)
(0.696692 -0.073383 -4.21454e-21)
(0.72863 -0.124131 -2.30926e-20)
(0.758975 -0.178158 -3.15986e-20)
(0.786702 -0.233764 3.5511e-20)
(0.810633 -0.288642 1.32131e-22)
(0.829455 -0.340007 -2.09832e-20)
(0.841868 -0.384897 7.16632e-21)
(0.846847 -0.420673 1.90357e-20)
(0.843936 -0.44557 -3.59208e-20)
(0.833392 -0.459056 9.084e-21)
(0.81609 -0.46181 9.59783e-21)
(0.793216 -0.455361 1.83238e-21)
(0.76591 -0.441638 -8.27538e-21)
(0.734981 -0.422606 5.4265e-22)
(0.70071 -0.400184 -9.21198e-23)
(0.662491 -0.376591 3.47473e-21)
(0.618448 -0.354753 -1.57013e-21)
(0.566039 -0.337478 1.44672e-22)
(0.504697 -0.324797 8.92756e-23)
(0.438869 -0.311298 -5.60827e-23)
(0.378586 -0.286758 2.47269e-22)
(0.335654 -0.240908 -7.63564e-23)
(0.317724 -0.169513 2.25975e-22)
(0.324533 -0.0767316 -4.73895e-22)
(0.35004 0.0274918 4.82878e-22)
(0.386902 0.132185 -2.66731e-22)
(0.428764 0.22912 -2.39261e-22)
(0.470107 0.313804 -2.7413e-22)
(0.506003 0.385126 8.31582e-22)
(0.53193 0.446832 -1.72077e-21)
(0.54519 0.503464 5.18852e-22)
(0.549472 0.555095 -6.30048e-22)
(0.552889 0.591467 2.22745e-21)
(0.568874 0.592202 2.65258e-21)
(0.598024 0.547572 -2.67975e-21)
(0.645582 0.442792 1.34493e-21)
(0.695986 0.301612 4.44522e-21)
(0.760775 0.116655 -3.7652e-21)
(0.810004 -0.0542564 3.12683e-21)
(0.869122 -0.215558 -4.6446e-22)
(0.885096 -0.315346 5.6149e-22)
(0.916849 -0.3853 -8.36586e-23)
(0.899787 -0.387485 3.72947e-22)
(0.906455 -0.40337 4.80726e-23)
(0.87007 -0.343512 3.48235e-23)
(0.377192 0.0252302 2.63874e-20)
(0.372046 0.0310418 -2.55449e-20)
(0.369566 0.037884 8.4282e-21)
(0.368978 0.0456793 2.23141e-20)
(0.369721 0.0541253 -4.25204e-20)
(0.371941 0.0630619 1.22283e-20)
(0.375852 0.0723774 6.45504e-20)
(0.381564 0.0819058 -1.99098e-20)
(0.389154 0.0914166 -4.10161e-20)
(0.398706 0.10063 3.674e-20)
(0.410297 0.10922 -1.07654e-20)
(0.423991 0.116815 3.32565e-20)
(0.439832 0.122996 -4.24572e-20)
(0.457842 0.127302 -5.35951e-20)
(0.478013 0.129241 9.02421e-20)
(0.500309 0.128297 -9.17912e-20)
(0.524659 0.123944 5.55249e-20)
(0.550955 0.115659 5.35115e-20)
(0.579048 0.102948 -1.07395e-19)
(0.608729 0.0853701 8.88631e-20)
(0.639746 0.062561 -4.59467e-20)
(0.671707 0.0341444 -4.15884e-20)
(0.704495 -0.000119593 6.89502e-21)
(0.737771 -0.0393011 8.92566e-20)
(0.770435 -0.0838844 -1.13543e-19)
(0.801912 -0.132861 1.07615e-19)
(0.831471 -0.18493 2.7206e-20)
(0.857925 -0.238392 -2.01261e-20)
(0.879972 -0.290942 -7.73472e-20)
(0.896216 -0.339827 2.05618e-20)
(0.905355 -0.38217 2.95213e-20)
(0.906493 -0.415474 -2.77213e-20)
(0.899429 -0.438153 1.86854e-20)
(0.884745 -0.449824 -9.51293e-21)
(0.863631 -0.451222 4.7955e-21)
(0.837512 -0.443824 -4.12413e-21)
(0.807686 -0.429408 2.28133e-21)
(0.775054 -0.409729 3.13676e-22)
(0.740012 -0.386403 -1.34492e-21)
(0.702254 -0.361139 1.25434e-21)
(0.660344 -0.336319 -1.80451e-21)
(0.611573 -0.31497 1.57558e-23)
(0.553701 -0.298874 1.64099e-22)
(0.488247 -0.285421 1.64808e-22)
(0.422797 -0.266392 5.48374e-22)
(0.369119 -0.230932 -1.28509e-21)
(0.33779 -0.171782 3.05734e-22)
(0.332428 -0.089449 2.04267e-22)
(0.349089 0.00811273 -2.99695e-22)
(0.380417 0.110172 3.20636e-22)
(0.419229 0.207408 6.10336e-23)
(0.459007 0.294574 1.1889e-21)
(0.494267 0.369932 -2.63781e-21)
(0.520533 0.436452 2.09044e-21)
(0.535764 0.497328 6.95984e-22)
(0.544583 0.550907 -7.96941e-22)
(0.554817 0.586557 2.07173e-21)
(0.579011 0.584369 -4.10016e-21)
(0.615658 0.53727 -1.65064e-22)
(0.669715 0.430419 1.95902e-22)
(0.724539 0.288379 -5.1962e-21)
(0.792778 0.103514 1.69928e-21)
(0.842525 -0.0667118 -1.8802e-21)
(0.900789 -0.224325 1.93573e-21)
(0.913967 -0.320536 -9.14079e-23)
(0.940954 -0.387063 3.94135e-22)
(0.920758 -0.385455 -7.25915e-22)
(0.924294 -0.399467 3.4028e-22)
(0.884352 -0.338473 -5.13191e-23)
(0.490816 0.0318962 -2.90683e-20)
(0.484711 0.0370213 3.13507e-20)
(0.480669 0.0431735 -6.68119e-20)
(0.478053 0.0499756 9.76859e-21)
(0.476955 0.0572622 2.79436e-20)
(0.477636 0.0649545 -1.3927e-20)
(0.480247 0.0729129 -8.55013e-21)
(0.484885 0.0809261 1.17595e-20)
(0.491653 0.0887362 1.09498e-20)
(0.500649 0.0960424 -3.71002e-20)
(0.511951 0.102497 -2.75807e-20)
(0.525612 0.107704 6.62751e-20)
(0.541659 0.111226 -6.69874e-20)
(0.560087 0.112588 -1.18625e-20)
(0.580855 0.111291 7.18345e-21)
(0.603882 0.106822 6.03338e-20)
(0.629048 0.0986645 2.65906e-20)
(0.656187 0.0863244 -3.10199e-20)
(0.685075 0.0693724 -2.73535e-20)
(0.715402 0.0474564 4.00556e-21)
(0.746696 0.0201518 8.33876e-21)
(0.779101 -0.0125688 2.51423e-20)
(0.81183 -0.0503043 1.89832e-20)
(0.843657 -0.0932644 1.47131e-20)
(0.874169 -0.140275 -2.09299e-20)
(0.90238 -0.190159 -4.22065e-20)
(0.926984 -0.241224 -2.21821e-20)
(0.94658 -0.29119 8.60017e-20)
(0.959721 -0.337378 -8.71582e-21)
(0.965158 -0.377041 -9.03762e-20)
(0.962181 -0.407872 7.39443e-20)
(0.950881 -0.428485 -4.83557e-20)
(0.932164 -0.438635 1.47592e-20)
(0.907488 -0.439078 9.20617e-21)
(0.878446 -0.43119 -1.37547e-21)
(0.846419 -0.416569 3.48858e-21)
(0.812345 -0.396751 -7.70934e-21)
(0.776661 -0.373108 4.14153e-21)
(0.739242 -0.346953 -1.33758e-21)
(0.699112 -0.320073 1.33884e-22)
(0.6539 -0.295187 -3.64396e-22)
(0.600544 -0.275049 1.98605e-22)