/*--------------------------------*- C++ -*----------------------------------*\
  =========                 |
  \\      /  F ield         | OpenFOAM: The Open Source CFD Toolbox
   \\    /   O peration     | Website:  https://openfoam.org
    \\  /    A nd           | Version:  7
     \\/     M anipulation  |
\*---------------------------------------------------------------------------*/
FoamFile
{
    version     2.0;
    format      ascii;
    class       volVectorField;
    location    "16";
    object      U;
}
// * * * * * * * * * * * * * * * * * * * * * * * * * * * * * * * * * * * * * //

dimensions      [0 1 -1 0 0 0 0];

internalField   nonuniform List<vector> 
433
(
(1.05242 -0.00229919 1.25988e-22)
(1.05313 -0.00229127 -7.65699e-23)
(1.05384 -0.00228355 1.82e-23)
(1.05455 -0.00227599 -2.74354e-23)
(1.05299 -0.00686486 -2.46357e-22)
(1.05371 -0.00683827 -1.32179e-23)
(1.05443 -0.00681197 -1.72801e-23)
(1.05515 -0.00678594 3.89872e-23)
(1.05407 -0.0113428 1.15232e-22)
(1.05481 -0.0112979 -7.07518e-23)
(1.05554 -0.0112535 4.03679e-23)
(1.05628 -0.0112096 -4.76055e-24)
(1.05562 -0.0157913 4.1452e-23)
(1.05638 -0.0157272 6.54759e-25)
(1.05715 -0.0156637 -3.46721e-23)
(1.05791 -0.0156009 2.29087e-23)
(1.0576 -0.0202441 -4.45719e-23)
(1.0584 -0.0201597 -1.44266e-22)
(1.0592 -0.0200762 1.7414e-22)
(1.05999 -0.0199936 -2.19127e-23)
(1.05999 -0.0247377 -1.07818e-22)
(1.06083 -0.0246316 -5.03893e-24)
(1.06166 -0.0245266 -1.77919e-23)
(1.0625 -0.0244227 -7.80481e-24)
(1.06275 -0.0293009 8.95184e-23)
(1.06363 -0.0291714 2.27617e-23)
(1.06451 -0.0290431 1.89096e-23)
(1.0654 -0.0289162 -2.95842e-24)
(1.06586 -0.0339611 -2.91073e-23)
(1.06679 -0.0338059 1.71805e-22)
(1.06772 -0.0336523 -3.66421e-24)
(1.06866 -0.0335003 2.58789e-23)
(1.06929 -0.0387422 3.70492e-23)
(1.07028 -0.038559 -1.81253e-23)
(1.07127 -0.0383777 -1.35741e-23)
(1.07227 -0.0381981 -6.956e-24)
(1.07302 -0.0436663 3.32722e-22)
(1.07407 -0.0434524 -1.44811e-23)
(1.07514 -0.0432405 7.86072e-24)
(1.07621 -0.0430308 8.94224e-24)
(1.07702 -0.0487545 -5.92815e-23)
(1.07815 -0.0485067 5.69662e-23)
(1.07929 -0.0482612 1.95359e-23)
(1.08044 -0.0480182 -3.80694e-23)
(1.08128 -0.0540267 2.0815e-24)
(1.08249 -0.0537414 -4.91669e-23)
(1.08371 -0.0534589 4.16619e-24)
(1.08495 -0.0531791 3.60263e-24)
(1.08577 -0.0595017 -1.42816e-22)
(1.08707 -0.0591752 4.40401e-23)
(1.08839 -0.0588516 -3.74499e-23)
(1.08972 -0.0585311 -8.09028e-24)
(1.09047 -0.0651981 -1.66291e-22)
(1.09187 -0.0648261 8.95747e-24)
(1.09329 -0.0644572 2.44487e-23)
(1.09473 -0.0640916 6.32782e-24)
(1.09536 -0.0711344 -1.81975e-23)
(1.09687 -0.0707121 1.79289e-23)
(1.09841 -0.0702931 2.43781e-23)
(1.09996 -0.0698775 -7.04352e-24)
(1.10041 -0.077329 4.10615e-23)
(1.10205 -0.0768511 4.77544e-24)
(1.10371 -0.0763767 -6.68005e-24)
(1.10539 -0.0759056 1.68224e-25)
(1.10561 -0.0838007 -2.00049e-23)
(1.10739 -0.0832615 8.6157e-24)
(1.10919 -0.0827256 4.35249e-24)
(1.11101 -0.0821929 2.46942e-25)
(1.11094 -0.0905686 7.26964e-24)
(1.11287 -0.0899616 -1.03231e-23)
(1.11482 -0.0893576 -2.76247e-23)
(1.11679 -0.0887566 5.2841e-25)
(1.11638 -0.0976535 8.17783e-24)
(1.11847 -0.0969713 5.26647e-23)
(1.12059 -0.0962916 -5.01277e-24)
(1.12273 -0.0956145 -2.05644e-23)
(1.1219 -0.105077 -1.20917e-22)
(1.12418 -0.104311 1.07307e-23)
(1.12648 -0.103547 -5.38783e-23)
(1.12881 -0.102785 9.0125e-23)
(1.1275 -0.112857 -1.06585e-22)
(1.12998 -0.111999 -6.72631e-23)
(1.13248 -0.111142 7.35841e-23)
(1.13501 -0.110286 -2.2756e-23)
(1.13315 -0.121018 2.26179e-22)
(1.13585 -0.120059 -1.04188e-22)
(1.13858 -0.119099 1.01874e-22)
(1.14133 -0.118138 -2.28103e-23)
(1.13885 -0.129588 2.28379e-22)
(1.1418 -0.128516 2.78191e-22)
(1.14477 -0.12744 7.21371e-23)
(1.14776 -0.126362 -1.01088e-22)
(1.14459 -0.138591 -1.91711e-22)
(1.1478 -0.137392 5.07624e-23)
(1.15104 -0.136189 -3.27004e-22)
(1.1543 -0.134979 1.05178e-22)
(1.15036 -0.148053 -2.56863e-22)
(1.15387 -0.146714 -1.81251e-22)
(1.1574 -0.145367 4.09712e-22)
(1.16095 -0.144011 -1.05176e-22)
(1.15616 -0.158013 -6.98333e-22)
(1.16 -0.156514 -1.57712e-22)
(1.16385 -0.155004 -4.02349e-22)
(1.16771 -0.153482 -1.29834e-23)
(1.16201 -0.16849 4.97086e-22)
(1.1662 -0.166814 -1.9452e-22)
(1.1704 -0.16512 -5.94514e-22)
(1.1746 -0.16341 4.04066e-23)
(1.1679 -0.179513 2.60764e-22)
(1.17248 -0.177637 1.08372e-21)
(1.17706 -0.175737 2.78441e-23)
(1.18164 -0.173813 -2.06498e-23)
(1.17384 -0.191131 1.70884e-21)
(1.17885 -0.189025 -1.01686e-21)
(1.18385 -0.186885 1.65687e-23)
(1.18883 -0.184713 -4.0589e-23)
(1.17986 -0.203366 3.57487e-22)
(1.18534 -0.200994 4.76679e-22)
(1.19079 -0.198576 1.05314e-21)
(1.1962 -0.196113 3.61072e-23)
(1.18596 -0.216292 -2.09548e-21)
(1.19195 -0.213596 -1.16241e-21)
(1.19789 -0.210841 6.07552e-22)
(1.20375 -0.208024 4.16122e-22)
(1.19224 -0.229892 1.6277e-21)
(1.19876 -0.226818 4.01881e-21)
(1.20519 -0.223659 -5.0563e-22)
(1.21152 -0.220408 -3.63768e-22)
(1.19859 -0.244195 -2.41114e-21)
(1.20571 -0.240662 -1.0851e-21)
(1.21266 -0.236999 -1.40094e-21)
(1.21943 -0.233198 -3.886e-22)
(1.22025 -0.250799 -1.37528e-22)
(1.22741 -0.246268 4.22316e-23)
(1.05525 -0.00226858 -2.59712e-23)
(1.05595 -0.00226129 1.8638e-23)
(1.05664 -0.00225408 -5.45614e-23)
(1.05734 -0.00224695 3.39567e-23)
(1.05803 -0.00223984 1.16087e-22)
(1.05872 -0.00223273 -1.54565e-22)
(1.0594 -0.0022256 3.08365e-22)
(1.06008 -0.0022184 -3.04999e-22)
(1.06075 -0.0022111 -9.06153e-23)
(1.05586 -0.00676017 4.00764e-23)
(1.05657 -0.00673466 -2.45645e-23)
(1.05728 -0.00670939 -2.09264e-23)
(1.05799 -0.00668433 1.69751e-22)
(1.05869 -0.00665946 -3.85817e-22)
(1.05939 -0.00663475 2.04196e-22)
(1.06009 -0.00661017 2.3065e-23)
(1.06078 -0.00658568 1.93606e-22)
(1.06147 -0.00656125 -5.70055e-22)
(1.05701 -0.0111661 -3.5476e-24)
(1.05775 -0.0111232 5.41386e-23)
(1.05848 -0.0110806 -6.81939e-23)
(1.0592 -0.0110385 -3.46175e-23)
(1.05993 -0.0109967 2.3202e-22)
(1.06065 -0.0109553 -2.01331e-22)
(1.06137 -0.0109142 3.98425e-23)
(1.06208 -0.0108733 7.10032e-23)
(1.06279 -0.0108326 -7.61836e-23)
(1.05867 -0.0155387 2.68035e-23)
(1.05943 -0.0154772 -3.43448e-23)
(1.06019 -0.0154163 2.40121e-23)
(1.06095 -0.015356 -3.58548e-23)
(1.0617 -0.0152963 -5.85594e-23)
(1.06245 -0.0152371 1.41156e-22)
(1.0632 -0.0151783 -1.28775e-22)
(1.06395 -0.01512 8.16157e-23)
(1.06469 -0.015062 1.06246e-22)
(1.06079 -0.0199118 -1.64496e-23)
(1.06158 -0.0198309 8.61928e-23)
(1.06238 -0.0197508 -1.47908e-22)
(1.06317 -0.0196715 9.54616e-23)
(1.06396 -0.019593 3.12648e-23)
(1.06475 -0.0195152 4.24945e-23)
(1.06554 -0.0194381 -7.31804e-23)
(1.06633 -0.0193616 -8.94918e-23)
(1.06711 -0.0192857 -1.1066e-22)
(1.06333 -0.0243199 -1.50035e-23)
(1.06417 -0.0242181 -4.02417e-25)
(1.06501 -0.0241174 1.08761e-22)
(1.06585 -0.0240177 1.63565e-24)
(1.06669 -0.023919 -2.94977e-23)
(1.06753 -0.0238213 2.00035e-22)
(1.06836 -0.0237246 -1.99897e-22)
(1.0692 -0.0236287 -1.01585e-22)
(1.07003 -0.0235336 1.69864e-22)
(1.06628 -0.0287906 1.73389e-23)
(1.06717 -0.0286663 4.92035e-23)
(1.06806 -0.0285433 -4.9772e-23)
(1.06895 -0.0284216 -4.87957e-23)
(1.06984 -0.0283013 -5.83591e-23)
(1.07074 -0.0281821 9.06583e-23)
(1.07163 -0.0280642 1.84049e-23)
(1.07252 -0.0279474 7.41283e-23)
(1.07342 -0.0278317 -2.74684e-22)
(1.06961 -0.0333499 5.80527e-24)
(1.07055 -0.033201 -2.6381e-23)
(1.0715 -0.0330538 3.30753e-23)
(1.07245 -0.0329081 -1.612e-22)
(1.07341 -0.032764 -5.47746e-23)
(1.07436 -0.0326215 6.42994e-24)
(1.07532 -0.0324805 8.48819e-23)
(1.07628 -0.0323409 1.0983e-22)
(1.07724 -0.0322028 5.4492e-23)
(1.07328 -0.0380205 -1.33834e-23)
(1.07429 -0.0378447 -1.06537e-24)
(1.07531 -0.0376709 6.49514e-23)
(1.07633 -0.0374989 -3.82595e-23)
(1.07735 -0.0373288 1.1276e-22)
(1.07838 -0.0371606 1.50849e-22)
(1.07941 -0.0369943 -1.39803e-22)
(1.08045 -0.0368297 2.59162e-23)
(1.08148 -0.0366669 -8.61286e-23)
(1.07728 -0.0428233 -1.34192e-23)
(1.07837 -0.0426179 5.55843e-23)
(1.07946 -0.0424147 -2.45702e-23)
(1.08056 -0.0422138 -1.31618e-22)
(1.08166 -0.0420151 -1.32783e-23)
(1.08277 -0.0418185 -1.97579e-24)
(1.08388 -0.0416242 2.47313e-23)
(1.085 -0.041432 -1.18737e-22)
(1.08612 -0.041242 4.97687e-23)
(1.08159 -0.0477777 -2.60184e-24)
(1.08276 -0.0475396 -6.47452e-23)
(1.08393 -0.0473041 2.0959e-23)
(1.08512 -0.047071 2.34947e-23)
(1.08631 -0.0468406 6.833e-23)
(1.08751 -0.0466127 -2.66737e-23)
(1.08871 -0.0463873 2.05787e-23)
(1.08992 -0.0461645 4.44617e-23)
(1.09114 -0.0459442 9.73966e-24)
(1.08619 -0.052902 -8.75696e-24)
(1.08745 -0.0526277 9.70407e-24)
(1.08872 -0.0523563 1.32819e-23)
(1.08999 -0.0520877 1.078e-23)
(1.09128 -0.051822 -5.42638e-23)
(1.09258 -0.0515591 1.01849e-23)
(1.09388 -0.0512991 -1.80138e-23)
(1.0952 -0.0510421 -1.21036e-23)
(1.09652 -0.050788 -4.94527e-23)
(1.09106 -0.0582136 -5.50346e-24)
(1.09242 -0.0578992 2.36829e-23)
(1.09379 -0.0575878 -9.58862e-24)
(1.09517 -0.0572796 1.94135e-23)
(1.09656 -0.0569745 -3.9607e-24)
(1.09797 -0.0566727 -3.98524e-23)
(1.09938 -0.056374 2.90552e-24)
(1.10081 -0.0560786 -1.07804e-22)
(1.10224 -0.0557865 -3.95559e-23)
(1.09618 -0.0637292 2.25928e-24)
(1.09765 -0.0633701 4.6566e-24)
(1.09913 -0.0630144 -9.8052e-24)
(1.10062 -0.062662 -1.21683e-23)
(1.10213 -0.062313 2.07513e-23)
(1.10365 -0.0619674 -5.79609e-23)
(1.10519 -0.0616254 -1.08314e-23)
(1.10674 -0.0612868 -5.4416e-23)
(1.1083 -0.0609519 -5.86221e-24)
(1.10153 -0.0694653 1.06743e-24)
(1.10311 -0.0690565 -2.87692e-24)
(1.10472 -0.0686512 2.95321e-24)
(1.10634 -0.0682495 -2.43156e-23)
(1.10797 -0.0678513 -9.75345e-24)
(1.10962 -0.0674567 -6.16038e-23)
(1.11129 -0.0670658 -6.673e-23)
(1.11297 -0.0666786 3.79758e-23)
(1.11466 -0.0662952 2.13989e-22)
(1.10709 -0.075438 -2.95462e-24)
(1.10881 -0.0749739 -6.98119e-24)
(1.11054 -0.0745133 -1.01777e-23)
(1.1123 -0.0740562 3.46649e-23)
(1.11407 -0.0736028 -7.76656e-23)
(1.11586 -0.0731531 4.52254e-22)
(1.11767 -0.0727071 -3.05079e-22)
(1.11949 -0.072265 2.28509e-22)
(1.12133 -0.0718267 -9.92868e-22)
(1.11285 -0.0816637 -6.37472e-25)
(1.11471 -0.0811378 1.34724e-23)
(1.11659 -0.0806153 8.29671e-23)
(1.11849 -0.0800963 -4.35315e-23)
(1.12041 -0.0795809 -8.56145e-24)
(1.12235 -0.079069 -5.29406e-22)
(1.12431 -0.0785609 1.30787e-22)
(1.12629 -0.0780564 -2.91235e-22)
(1.12829 -0.0775558 1.01062e-21)
(1.11879 -0.0881587 1.21975e-23)
(1.12081 -0.0875639 2.41509e-23)
(1.12285 -0.0869722 1.26373e-23)
(1.12491 -0.0863837 4.18798e-23)
(1.12699 -0.0857984 2.85391e-22)
(1.12909 -0.0852165 4.01183e-22)
(1.13122 -0.0846379 -2.60355e-22)
(1.13336 -0.0840628 4.22201e-22)
(1.13553 -0.0834912 5.5631e-22)
(1.1249 -0.09494 4.5526e-23)
(1.12708 -0.0942681 -1.68729e-23)
(1.1293 -0.0935988 -1.35376e-22)
(1.13153 -0.0929322 -8.2677e-23)
(1.13379 -0.0922683 -6.76298e-22)
(1.13607 -0.0916072 3.62269e-22)
(1.13837 -0.0909489 -7.22507e-22)
(1.14069 -0.0902936 1.07235e-21)
(1.14303 -0.0896412 -8.55488e-22)
(1.13116 -0.102025 -6.55153e-23)
(1.13353 -0.101267 1.87929e-23)
(1.13593 -0.100511 9.24684e-23)
(1.13835 -0.0997561 4.65899e-22)
(1.1408 -0.0990036 -1.34782e-22)
(1.14327 -0.098253 -1.10365e-22)
(1.14576 -0.0975044 1.22573e-21)
(1.14827 -0.0967578 -1.07715e-21)
(1.15081 -0.0960132 7.76858e-22)
(1.13756 -0.109431 -2.71901e-25)
(1.14014 -0.108576 -8.38342e-23)
(1.14274 -0.107722 1.49535e-22)
(1.14537 -0.106869 -4.98365e-22)
(1.14801 -0.106017 5.03613e-22)
(1.15069 -0.105165 -5.96233e-22)
(1.15339 -0.104314 -1.10849e-21)
(1.15611 -0.103464 1.00039e-21)
(1.15885 -0.102614 -2.5088e-21)
(1.1441 -0.117176 -5.46867e-24)
(1.1469 -0.116214 -2.37118e-23)
(1.14972 -0.11525 2.61792e-23)
(1.15257 -0.114286 1.55815e-22)
(1.15544 -0.113321 5.97385e-23)
(1.15833 -0.112355 9.9628e-22)
(1.16125 -0.111388 -1.73672e-21)
(1.16419 -0.11042 -9.58923e-22)
(1.16716 -0.10945 1.57735e-21)
(1.15077 -0.125281 8.79237e-23)
(1.15381 -0.124198 2.68013e-22)
(1.15687 -0.123111 -4.26958e-22)
(1.15996 -0.122022 -4.75298e-22)
(1.16307 -0.120929 -1.28907e-22)
(1.1662 -0.119834 -1.30668e-22)
(1.16935 -0.118734 1.86426e-21)
(1.17253 -0.117632 -7.60237e-22)
(1.17573 -0.116524 -1.95583e-22)
(1.15757 -0.133765 -5.96726e-23)
(1.16087 -0.132545 -3.30625e-22)
(1.16419 -0.13132 7.21672e-23)
(1.16754 -0.130089 5.53431e-22)
(1.1709 -0.128853 1.41805e-21)
(1.17429 -0.12761 -2.67622e-23)
(1.1777 -0.126361 1.5861e-21)
(1.18113 -0.125104 -3.65237e-23)
(1.18458 -0.123839 9.38613e-22)
(1.16451 -0.142647 1.52859e-22)
(1.16809 -0.141274 -6.9378e-22)
(1.17169 -0.139892 5.57596e-22)
(1.17531 -0.138501 3.58752e-22)
(1.17895 -0.137101 -3.27621e-22)
(1.18261 -0.135691 1.38767e-21)
(1.18629 -0.134269 -1.84697e-21)
(1.18999 -0.132835 -1.20919e-21)
(1.1937 -0.131386 3.92804e-22)
(1.17159 -0.151947 3.80949e-23)
(1.17548 -0.150401 5.61098e-22)
(1.17938 -0.148841 5.79401e-22)
(1.1833 -0.147268 9.32724e-22)
(1.18723 -0.14568 1.26107e-22)
(1.19118 -0.144077 6.67976e-22)
(1.19514 -0.142456 4.7954e-21)
(1.19911 -0.140815 1.83963e-21)
(1.20309 -0.139149 -1.52243e-21)
(1.17882 -0.161682 -8.86928e-23)
(1.18304 -0.159937 7.1644e-22)
(1.18726 -0.158174 4.01779e-22)
(1.1915 -0.156391 -1.00144e-21)
(1.19574 -0.154587 -8.9369e-22)
(1.19998 -0.15276 -1.86734e-21)
(1.20423 -0.150904 -4.27798e-21)
(1.20848 -0.149016 -4.44005e-21)
(1.21271 -0.147089 2.84914e-21)
(1.18621 -0.171865 -7.5209e-23)
(1.19078 -0.169892 1.49588e-22)
(1.19535 -0.167893 -1.94989e-21)
(1.19992 -0.165866 -3.06981e-22)
(1.20447 -0.163807 1.84074e-21)
(1.20902 -0.161711 2.31869e-21)
(1.21355 -0.159573 2.07628e-21)
(1.21805 -0.157384 2.20555e-21)
(1.22251 -0.155133 1.36196e-21)
(1.19379 -0.182507 1.37663e-22)
(1.19873 -0.180266 1.76859e-22)
(1.20366 -0.177988 1.25211e-21)
(1.20856 -0.175668 -3.10986e-21)
(1.21343 -0.173301 -2.39453e-21)
(1.21826 -0.170878 -7.14376e-21)
(1.22304 -0.168389 -2.88225e-21)
(1.22775 -0.16582 7.95248e-22)
(1.23237 -0.163154 1.26944e-21)
(1.20157 -0.193602 -1.62799e-23)
(1.20689 -0.191042 -1.55175e-21)
(1.21218 -0.188426 -1.24701e-21)
(1.2174 -0.185747 2.56686e-22)
(1.22256 -0.182997 1.75838e-22)
(1.22763 -0.18016 1.0522e-20)
(1.23258 -0.177221 1.41453e-21)
(1.2374 -0.174158 2.58744e-21)
(1.24204 -0.170947 -5.68318e-21)
(1.20954 -0.20514 -3.07028e-22)
(1.21525 -0.202183 -8.54988e-22)
(1.22087 -0.199143 2.00179e-21)
(1.22638 -0.196009 3.27489e-21)
(1.23175 -0.192763 2.34102e-21)
(1.23696 -0.189387 -1.06609e-20)
(1.24197 -0.185855 -1.46775e-21)
(1.24672 -0.182137 9.93495e-21)
(1.25116 -0.1782 -1.07657e-20)
(1.21772 -0.217058 5.11644e-22)
(1.22377 -0.213597 3.97516e-22)
(1.22967 -0.210011 -5.64069e-21)
(1.23537 -0.206282 -2.79311e-21)
(1.24083 -0.202384 -2.5097e-21)
(1.246 -0.198289 3.97802e-21)
(1.25082 -0.193965 1.03626e-20)
(1.25521 -0.189372 2.32729e-21)
(1.25909 -0.184469 2.11937e-20)
(1.226 -0.229246 2.10593e-22)
(1.23233 -0.225127 2.0194e-21)
(1.23838 -0.220818 1.28839e-21)
(1.24409 -0.216294 4.25302e-21)
(1.24941 -0.211522 -5.36114e-21)
(1.25425 -0.206466 7.17347e-21)
(1.25853 -0.201085 -8.00021e-21)
(1.26213 -0.195335 -9.49898e-21)
(1.26494 -0.189169 -8.79816e-21)
(1.23423 -0.241513 -3.18786e-22)
(1.24066 -0.236509 4.51693e-22)
)
;

boundaryField
{
    inlet
    {
        type            uniformFixedValue;
        uniformValue    constant (1 0 0);
        value           nonuniform 0();
    }
    outlet
    {
        type            pressureInletOutletVelocity;
        value           nonuniform 0();
    }
    cylinder
    {
        type            fixedValue;
        value           nonuniform 0();
    }
    top
    {
        type            symmetryPlane;
    }
    bottom
    {
        type            symmetryPlane;
    }
    defaultFaces
    {
        type            empty;
    }
    procBoundary2to1
    {
        type            processor;
        value           nonuniform List<vector> 
33
(
(1.05171 -0.00230731 1.49075e-22)
(1.05227 -0.00689174 -5.39995e-22)
(1.05333 -0.0113882 4.14115e-22)
(1.05485 -0.015856 -1.16028e-22)
(1.05681 -0.0203292 1.37231e-23)
(1.05916 -0.0248447 -3.07927e-22)
(1.06188 -0.0294317 2.66968e-23)
(1.06494 -0.0341177 1.81417e-22)
(1.06831 -0.0389271 -1.15371e-22)
(1.07198 -0.0438824 3.31498e-22)
(1.07591 -0.0490048 -2.02027e-22)
(1.08008 -0.0543146 4.92924e-23)
(1.08448 -0.059831 -2.10895e-22)
(1.08908 -0.0655732 -1.56729e-23)
(1.09386 -0.0715599 -1.4634e-22)
(1.09879 -0.0778102 1.22877e-22)
(1.10386 -0.0843433 8.55359e-23)
(1.10904 -0.0911789 -2.05916e-23)
(1.11431 -0.0983384 2.48871e-23)
(1.11965 -0.105844 1.23768e-23)
(1.12504 -0.113715 -5.07913e-23)
(1.13047 -0.121977 1.15994e-22)
(1.13592 -0.130658 -5.29017e-23)
(1.14139 -0.139784 -3.32143e-22)
(1.14686 -0.149383 3.47061e-22)
(1.15234 -0.159498 -3.25041e-22)
(1.15781 -0.170149 -2.21797e-23)
(1.1633 -0.181365 3.74863e-22)
(1.16881 -0.193204 -4.50495e-23)
(1.17434 -0.205691 -8.03948e-23)
(1.1799 -0.218933 -1.51124e-21)
(1.18561 -0.232885 1.3858e-21)
(1.19132 -0.2476 2.60324e-21)
)
;
    }
    procBoundary2to3
    {
        type            processor;
        value           nonuniform List<vector> 
33
(
(1.06142 -0.00220367 -3.58862e-22)
(1.06215 -0.00653682 -4.30863e-22)
(1.0635 -0.010792 1.04239e-22)
(1.06543 -0.0150043 -1.61709e-22)
(1.06789 -0.0192103 -8.85522e-24)
(1.07086 -0.0234393 2.76018e-23)
(1.07431 -0.027717 -1.41737e-22)
(1.0782 -0.032066 8.24346e-23)
(1.08252 -0.0365059 -6.45907e-24)
(1.08725 -0.0410542 -2.4497e-24)
(1.09237 -0.0457264 -1.32656e-23)
(1.09785 -0.0505367 1.70206e-23)
(1.10369 -0.0554976 -1.2876e-22)
(1.10987 -0.0606205 1.13621e-22)
(1.11637 -0.0659156 2.28738e-22)
(1.12319 -0.0713923 -4.81865e-22)
(1.1303 -0.077059 8.5337e-23)
(1.13771 -0.0829232 -9.05994e-22)
(1.1454 -0.0889918 1.77612e-21)
(1.15337 -0.0952707 -9.83449e-22)
(1.16162 -0.101765 -8.8605e-22)
(1.17015 -0.108478 1.75524e-21)
(1.17896 -0.115412 -1.81681e-21)
(1.18805 -0.122563 -1.06614e-21)
(1.19743 -0.129919 -8.17144e-22)
(1.20707 -0.137454 3.42691e-21)
(1.21693 -0.145115 -5.57119e-22)
(1.22692 -0.152806 -4.89086e-21)
(1.23686 -0.16037 5.47295e-22)
(1.24646 -0.167558 -6.06871e-21)
(1.25521 -0.174004 2.78578e-21)
(1.26236 -0.17921 6.74686e-21)
(1.26683 -0.182544 5.45519e-22)
)
;
    }
    procBoundary2to8
    {
        type            processor;
        value           nonuniform List<vector> 
15
(
(1.20509 -0.259259 -8.96825e-22)
(1.2128 -0.255125 4.22484e-21)
(1.2128 -0.255125 4.22484e-21)
(1.22779 -0.264863 -1.47226e-21)
(1.23519 -0.259351 3.8324e-22)
(1.24664 -0.231228 -5.6794e-21)
(1.25208 -0.225635 1.16569e-21)
(1.25689 -0.219694 -9.65536e-21)
(1.26097 -0.213363 1.10767e-20)
(1.26418 -0.206599 3.26241e-21)
(1.2664 -0.199357 4.90442e-21)
(1.26746 -0.191597 -4.61784e-21)
(1.24205 -0.253512 -3.20376e-22)
(1.24664 -0.231228 -5.6794e-21)
(1.2483 -0.247317 1.55413e-21)
)
;
    }
}


// ************************************************************************* //
