/*--------------------------------*- C++ -*----------------------------------*\
  =========                 |
  \\      /  F ield         | OpenFOAM: The Open Source CFD Toolbox
   \\    /   O peration     | Website:  https://openfoam.org
    \\  /    A nd           | Version:  7
     \\/     M anipulation  |
\*---------------------------------------------------------------------------*/
FoamFile
{
    version     2.0;
    format      ascii;
    class       volScalarField;
    location    "16";
    object      p;
}
// * * * * * * * * * * * * * * * * * * * * * * * * * * * * * * * * * * * * * //

dimensions      [0 2 -2 0 0 0 0];

internalField   nonuniform List<scalar> 
435
(
0.132533
0.122365
0.112353
0.102452
0.0926297
0.0829003
0.0732458
0.0637743
0.0543973
0.0454128
0.0363916
0.0281634
0.0192113
0.011998
0.00190439
0.213389
0.199687
0.1867
0.174333
0.162491
0.151081
0.140017
0.129222
0.118631
0.1082
0.0978904
0.0877101
0.0776306
0.0677474
0.0579551
0.0485402
0.0390528
0.0303207
0.0208077
0.0129818
0.00226571
0.224971
0.21059
0.196905
0.183838
0.171304
0.159224
0.147518
0.136118
0.12496
0.114002
0.103203
0.0925652
0.0820506
0.0717427
0.0615246
0.0516655
0.0417088
0.0324597
0.0224017
0.0139457
0.00265468
0.236146
0.221179
0.206879
0.193179
0.180012
0.167306
0.154994
0.143013
0.131305
0.119828
0.108541
0.097441
0.0864842
0.0757413
0.0650887
0.0547747
0.044347
0.0345721
0.023984
0.0148889
0.00306155
0.246857
0.231396
0.216562
0.202302
0.188561
0.17528
0.1624
0.149867
0.137628
0.125645
0.113875
0.102312
0.0909092
0.0797243
0.0686311
0.0578545
0.0469558
0.0366508
0.0255463
0.0158106
0.00347742
0.257051
0.241188
0.225901
0.211153
0.196901
0.183096
0.169691
0.156639
0.143893
0.131419
0.119176
0.107153
0.0953032
0.0836728
0.0721358
0.0608928
0.0495247
0.0386895
0.0270813
0.0167099
0.00389452
0.266684
0.250506
0.234847
0.219683
0.204981
0.190707
0.176821
0.163286
0.150061
0.137116
0.124411
0.111937
0.0996432
0.0875677
0.0755872
0.0638773
0.0520434
0.040682
0.0285823
0.0175861
0.00430642
0.275721
0.25931
0.243355
0.227844
0.212756
0.198067
0.183747
0.169767
0.156093
0.142699
0.129551
0.116636
0.103906
0.0913895
0.0789689
0.0667958
0.054502
0.0426222
0.0300433
0.0184376
0.00470797
0.284134
0.267565
0.251386
0.235595
0.220181
0.205131
0.190425
0.176039
0.16195
0.148134
0.134562
0.121221
0.108066
0.0951177
0.0822643
0.0696355
0.0568902
0.0445037
0.0314582
0.0192625
0.00509524
0.291902
0.275242
0.258905
0.242897
0.227216
0.211858
0.196812
0.182062
0.167592
0.153383
0.139411
0.125663
0.112098
0.0987308
0.0854556
0.0723824
0.0591972
0.0463191
0.0328212
0.0200582
0.00546531
0.299012
0.282322
0.265886
0.249717
0.233824
0.218209
0.202869
0.187797
0.172982
0.158411
0.144065
0.129933
0.115976
0.102206
0.088524
0.0750218
0.0614111
0.0480602
0.0341257
0.0208216
0.00581601
0.305461
0.28879
0.272305
0.256027
0.239971
0.224146
0.208557
0.193204
0.178081
0.163181
0.14849
0.133999
0.119673
0.10552
0.0914495
0.0775373
0.063519
0.0497174
0.0353652
0.0215487
0.00614565
0.311249
0.294636
0.278146
0.261803
0.245628
0.229638
0.213842
0.198246
0.182852
0.167657
0.152651
0.137829
0.123159
0.108648
0.0942105
0.0799111
0.0655069
0.0512802
0.0365319
0.022235
0.00645281
0.316381
0.299857
0.283395
0.267025
0.25077
0.234652
0.218688
0.202888
0.187258
0.171802
0.156514
0.14139
0.126405
0.111562
0.0967841
0.0821242
0.0673593
0.0527367
0.0376175
0.0228751
0.00673611
0.320867
0.304452
0.288044
0.271674
0.255372
0.239161
0.223063
0.207094
0.191264
0.175581
0.160043
0.14465
0.12938
0.114235
0.0991457
0.0841556
0.0690592
0.0540737
0.0386129
0.0234631
0.00699408
0.324718
0.308423
0.292084
0.275737
0.259411
0.243136
0.226935
0.210828
0.194831
0.178954
0.1632
0.147572
0.13205
0.116637
0.101269
0.0859828
0.0705881
0.0552766
0.0395078
0.0239925
0.00722501
0.327944
0.311769
0.295508
0.279195
0.262865
0.246547
0.23027
0.214055
0.197922
0.181885
0.165949
0.150119
0.13438
0.118736
0.103125
0.0875812
0.0719259
0.0563293
0.0402906
0.0244558
0.00742693
0.330552
0.314488
0.298303
0.282031
0.265708
0.249366
0.233033
0.216737
0.200497
0.184331
0.168247
0.152252
0.136335
0.120497
0.104685
0.0889242
0.0730501
0.057214
0.0409489
0.0248452
0.00759758
0.332541
0.316572
0.300453
0.284221
0.26791
0.251555
0.235186
0.21883
0.202512
0.186248
0.170051
0.153929
0.137872
0.121884
0.105913
0.0899828
0.0739366
0.0579113
0.0414683
0.0251517
0.00773483
0.3339
0.318001
0.301933
0.285732
0.269434
0.253073
0.236681
0.220287
0.203916
0.187586
0.171312
0.155102
0.138949
0.122856
0.106775
0.0907248
0.0745586
0.0583994
0.0418335
0.0253638
0.00783774
0.334604
0.318743
0.302702
0.286519
0.270229
0.253866
0.237463
0.22105
0.204651
0.188288
0.171974
0.155718
0.139515
0.123367
0.107228
0.0911143
0.0748874
0.058653
0.0420302
0.0254645
0.00790506
)
;

boundaryField
{
    inlet
    {
        type            zeroGradient;
    }
    outlet
    {
        type            fixedValue;
        value           uniform 0;
    }
    cylinder
    {
        type            zeroGradient;
    }
    top
    {
        type            symmetryPlane;
    }
    bottom
    {
        type            symmetryPlane;
    }
    defaultFaces
    {
        type            empty;
    }
    procBoundary35to29
    {
        type            processor;
        value           nonuniform List<scalar> 
22
(
0.125106
0.115581
0.106156
0.0967875
0.0874474
0.0781591
0.0689178
0.0598432
0.0508688
0.0422985
0.0337393
0.0259972
0.0176228
0.0109956
0.00158089
0.201465
0.188532
0.17632
0.164719
0.153622
0.142925
0.142925
)
;
    }
    procBoundary35to34
    {
        type            processor;
        value           nonuniform List<scalar> 
20
(
0.227899
0.240125
0.25184
0.262988
0.27352
0.283399
0.292595
0.301089
0.30887
0.315936
0.322293
0.327953
0.332933
0.337252
0.340933
0.343996
0.346456
0.348323
0.349594
0.35025
)
;
    }
}


// ************************************************************************* //
