0.0826367 	0.499829 	-1.44825e-18 	0.597359 	-0.0283721 	8.68406e-17
