0.146059 	0.485771 	-9.52745e-19 	0.877142 	-0.0417716 	7.84178e-20
0.148734 	0.494668 	4.1443e-19 	0.369935 	-0.0110453 	9.43148e-17
0.150143 	0.499354 	1.23955e-18 	0.344582 	-0.00835664 	8.86399e-17
