/*--------------------------------*- C++ -*----------------------------------*\
  =========                 |
  \\      /  F ield         | OpenFOAM: The Open Source CFD Toolbox
   \\    /   O peration     | Website:  https://openfoam.org
    \\  /    A nd           | Version:  7
     \\/     M anipulation  |
\*---------------------------------------------------------------------------*/
FoamFile
{
    version     2.0;
    format      ascii;
    class       surfaceScalarField;
    location    "3";
    object      phi;
}
// * * * * * * * * * * * * * * * * * * * * * * * * * * * * * * * * * * * * * //

dimensions      [0 3 -1 0 0 0 0];

internalField   nonuniform List<scalar> 
615
(
0.000107504
-0.000119681
0.000100588
-0.000149129
8.9921e-05
-0.000186375
7.13517e-05
-0.000228753
3.96235e-05
-0.000253186
-0.000177276
0.000132834
-1.0302e-06
0.000132772
-1.01515e-06
0.00013271
-1.00055e-06
0.00013265
-9.8643e-07
0.00013259
-9.728e-07
0.000132531
-9.59691e-07
0.000132473
-9.47137e-07
0.000132416
-9.35177e-07
0.000132359
-9.23863e-07
0.000132303
-9.13253e-07
0.000132248
-9.0342e-07
0.000132194
-8.94449e-07
0.00013214
-8.86442e-07
0.000132086
-8.79521e-07
0.000132034
-8.7383e-07
0.000131981
-8.6954e-07
0.000131929
-8.66856e-07
0.000131877
-8.66019e-07
0.000131825
-8.67313e-07
0.000131774
-8.71077e-07
0.000131722
-8.77711e-07
0.00013167
-8.87688e-07
0.000131618
-9.01566e-07
0.000131565
-9.20006e-07
0.000131512
-9.43791e-07
0.000131457
-9.73843e-07
0.000131401
-1.01125e-06
0.000131343
-1.05731e-06
0.000131283
-1.11355e-06
0.000131221
-1.18176e-06
0.000131155
-1.26408e-06
0.000131085
-1.36303e-06
0.000131011
-1.48159e-06
0.00013093
-1.62331e-06
0.000130843
-1.79236e-06
0.000130747
-1.99371e-06
0.000130642
-2.23325e-06
0.000130524
-2.51796e-06
0.000130393
-2.85615e-06
0.000130245
-3.25771e-06
0.000130078
-3.73442e-06
0.000129887
-4.30035e-06
0.000129668
-4.9723e-06
0.000129416
-5.77046e-06
0.000129125
-6.71903e-06
0.000128787
-7.84721e-06
0.000128394
-9.19029e-06
0.000127935
-1.07911e-05
0.000127398
-1.27019e-05
0.000126767
-1.49867e-05
0.000126023
-1.77245e-05
0.000125143
-2.10132e-05
0.000124099
-2.49756e-05
0.000122855
-2.97666e-05
0.000121365
-3.55843e-05
0.000119568
-4.26844e-05
0.000117382
-5.14022e-05
0.000114694
-6.21834e-05
0.000111333
-7.56265e-05
0.00010703
-9.25415e-05
0.000101331
-0.000113982
9.33489e-05
-0.000141147
8.13759e-05
-0.000174401
6.19341e-05
-0.000209311
3.20022e-05
-0.000223254
-0.000145274
0.00013014
-9.64662e-07
0.000130076
-9.50583e-07
0.000130012
-9.36932e-07
0.000129949
-9.23727e-07
0.000129887
-9.10987e-07
0.000129827
-8.9874e-07
0.000129766
-8.87018e-07
0.000129707
-8.7586e-07
0.000129649
-8.65313e-07
0.000129591
-8.55435e-07
0.000129534
-8.46293e-07
0.000129477
-8.3797e-07
0.000129421
-8.30564e-07
0.000129366
-8.2419e-07
0.000129311
-8.18986e-07
0.000129257
-8.15116e-07
0.000129203
-8.12774e-07
0.000129149
-8.12191e-07
0.000129095
-8.13638e-07
0.000129041
-8.17439e-07
0.000128988
-8.23974e-07
0.000128934
-8.33695e-07
0.000128879
-8.47136e-07
0.000128824
-8.64926e-07
0.000128768
-8.87811e-07
0.000128711
-9.16673e-07
0.000128652
-9.52551e-07
0.000128592
-9.96678e-07
0.000128529
-1.05051e-06
0.000128463
-1.11576e-06
0.000128393
-1.19447e-06
0.000128319
-1.28905e-06
0.00012824
-1.40234e-06
0.000128154
-1.53771e-06
0.000128061
-1.69917e-06
0.000127959
-1.89144e-06
0.000127846
-2.12014e-06
0.00012772
-2.39195e-06
0.000127578
-2.7148e-06
0.000127419
-3.09812e-06
0.000127237
-3.55317e-06
0.000127031
-4.09337e-06
0.000126793
-4.73478e-06
0.000126519
-5.49664e-06
0.000126202
-6.40209e-06
0.000125834
-7.47899e-06
0.000125405
-8.76101e-06
0.000124903
-1.0289e-05
0.000124314
-1.21128e-05
0.00012362
-1.42934e-05
0.000122802
-1.69058e-05
0.000121832
-2.00432e-05
0.000120678
-2.38218e-05
0.000119299
-2.83881e-05
0.000117643
-3.39282e-05
0.00011564
-4.06815e-05
0.000113197
-4.89592e-05
0.000110183
-5.91695e-05
0.000106408
-7.18515e-05
0.000101576
-8.77088e-05
9.51988e-05
-0.000107605
8.63875e-05
-0.000132336
7.35494e-05
-0.000161563
5.39261e-05
-0.000189688
2.61656e-05
-0.000195494
-0.000119108
0.000127101
-8.97365e-07
0.000127035
-8.84281e-07
0.000126969
-8.71599e-07
0.000126905
-8.59334e-07
0.000126841
-8.47507e-07
0.000126779
-8.36143e-07
0.000126717
-8.25272e-07
0.000126656
-8.14932e-07
0.000126596
-8.05167e-07
0.000126537
-7.96033e-07
0.000126478
-7.87594e-07
0.00012642
-7.79927e-07
0.000126362
-7.73126e-07
0.000126305
-7.673e-07
0.000126249
-7.62581e-07
0.000126193
-7.59123e-07
0.000126137
-7.5711e-07
0.000126082
-7.56762e-07
0.000126027
-7.58335e-07
0.000125971
-7.62137e-07
0.000125916
-7.68528e-07
0.00012586
-7.77936e-07
0.000125804
-7.90868e-07
0.000125747
-8.0792e-07
0.000125689
-8.298e-07
0.00012563
-8.57342e-07
0.000125569
-8.91534e-07
0.000125505
-9.33542e-07
0.00012544
-9.84746e-07
0.000125371
-1.04678e-06
0.000125298
-1.12156e-06
0.00012522
-1.21139e-06
0.000125137
-1.31895e-06
0.000125046
-1.44744e-06
0.000124948
-1.60066e-06
0.00012484
-1.78309e-06
0.000124719
-2.00006e-06
0.000124585
-2.25791e-06
0.000124435
-2.56414e-06
0.000124264
-2.9277e-06
0.00012407
-3.35928e-06
0.000123849
-3.87159e-06
0.000123594
-4.47987e-06
0.000123299
-5.20236e-06
0.000122958
-6.06099e-06
0.000122562
-7.08215e-06
0.000122098
-8.29774e-06
0.000121556
-9.74646e-06
0.000120918
-1.14754e-05
0.000120167
-1.35421e-05
0.000119278
-1.60174e-05
0.000118224
-1.8989e-05
0.000116968
-2.25658e-05
0.000115465
-2.68848e-05
0.000113656
-3.21192e-05
0.000111465
-3.84901e-05
0.000108788
-4.62823e-05
0.000105483
-5.58644e-05
0.000101344
-6.77132e-05
9.60617e-05
-8.24261e-05
8.91393e-05
-0.000100682
7.97208e-05
-0.000122918
6.6387e-05
-0.000148229
4.70582e-05
-0.000170359
2.15908e-05
-0.000170026
-9.75173e-05
0.000123709
-8.28791e-07
0.000123641
-8.16721e-07
0.000123575
-8.05024e-07
0.000123509
-7.93717e-07
0.000123444
-7.82817e-07
0.000123381
-7.72349e-07
0.000123318
-7.62342e-07
0.000123255
-7.52831e-07
0.000123194
-7.43858e-07
0.000123134
-7.35475e-07
0.000123074
-7.27743e-07
0.000123015
-7.20735e-07
0.000122956
-7.14539e-07
0.000122898
-7.09257e-07
0.00012284
-7.05015e-07
0.000122783
-7.01957e-07
0.000122726
-7.00257e-07
0.00012267
-7.00121e-07
0.000122613
-7.01791e-07
0.000122557
-7.05557e-07
0.0001225
-7.11758e-07
0.000122443
-7.20796e-07
0.000122385
-7.33149e-07
0.000122326
-7.49379e-07
0.000122267
-7.70151e-07
0.000122206
-7.96251e-07
0.000122143
-8.28608e-07
0.000122078
-8.68321e-07
0.000122009
-9.16689e-07
0.000121938
-9.75246e-07
0.000121862
-1.04581e-06
0.000121781
-1.13052e-06
0.000121694
-1.23194e-06
0.0001216
-1.35305e-06
0.000121497
-1.49744e-06
0.000121383
-1.66933e-06
0.000121257
-1.87374e-06
0.000121115
-2.11662e-06
0.000120956
-2.40505e-06
0.000120776
-2.74746e-06
0.000120571
-3.15388e-06
0.000120335
-3.63632e-06
0.000120065
-4.20908e-06
0.000119752
-4.88935e-06
0.000119388
-5.69774e-06
0.000118965
-6.65906e-06
0.000118471
-7.8033e-06
0.000117891
-9.16675e-06
0.000117209
-1.07936e-05
0.000116405
-1.27377e-05
0.000115453
-1.50652e-05
0.000114321
-1.78578e-05
0.000112972
-2.12167e-05
0.000111356
-2.52685e-05
0.000109409
-3.01725e-05
0.000107049
-3.61302e-05
0.000104166
-4.33989e-05
0.000100608
-5.23065e-05
9.61624e-05
-6.32676e-05
9.05134e-05
-7.67771e-05
8.31753e-05
-9.33443e-05
7.33531e-05
-0.000113095
5.98284e-05
-0.000134705
4.11226e-05
-0.000151653
1.79402e-05
-0.000146844
-7.95771e-05
0.000119957
-7.59446e-07
0.000119888
-7.484e-07
0.000119821
-7.37698e-07
0.000119755
-7.27356e-07
0.000119689
-7.17391e-07
0.000119625
-7.07827e-07
0.000119561
-6.98688e-07
0.000119498
-6.9001e-07
0.000119436
0.000119375
0.000119314
0.000119254
0.000119195
0.000119136
0.000119078
0.00011902
0.000118962
0.000118905
0.000118848
0.00011879
0.000118733
0.000118674
0.000118616
0.000118556
0.000118495
0.000118433
0.000118368
0.000118301
0.000118232
0.000118158
0.00011808
0.000117996
0.000117906
0.000117808
0.000117701
0.000117583
0.000117451
0.000117303
0.000117137
0.000116948
0.000116732
0.000116485
0.0001162
0.00011587
0.000115487
0.000115041
0.000114518
0.000113906
0.000113184
0.000112332
0.000111323
0.000110123
0.000108692
0.000106976
0.000104909
0.000102403
9.93436e-05
9.55748e-05
9.08809e-05
8.49511e-05
7.73225e-05
6.72797e-05
5.38132e-05
3.59554e-05
1.4983e-05
0.000115837
0.000115769
0.000115701
0.000115635
0.000115569
0.000115504
0.00011544
)
;

boundaryField
{
    inlet
    {
        type            calculated;
        value           nonuniform 0();
    }
    outlet
    {
        type            calculated;
        value           nonuniform 0();
    }
    wall
    {
        type            calculated;
        value           uniform 0;
    }
    wedge1
    {
        type            wedge;
        value           nonuniform List<scalar> 
344
(
-4.00109e-17
-3.68251e-17
9.21109e-17
-3.06135e-17
-1.46077e-16
4.60549e-17
-3.94278e-17
-3.62852e-17
9.07621e-17
-3.01717e-17
-1.43951e-16
4.53817e-17
-3.88159e-17
-3.57199e-17
8.95021e-17
-2.96911e-17
-1.41847e-16
4.47676e-17
-3.82693e-17
-3.5221e-17
8.82267e-17
-2.92869e-17
-1.3987e-16
4.41264e-17
-3.77432e-17
-3.47309e-17
8.70121e-17
-2.88851e-17
-1.3795e-16
4.35133e-17
-3.72369e-17
-3.42716e-17
8.58329e-17
-2.85074e-17
-1.3611e-16
4.29268e-17
-3.67533e-17
-3.38302e-17
8.47033e-17
-2.81442e-17
-1.34351e-16
4.23689e-17
-3.62539e-17
-3.33747e-17
8.36664e-17
-2.7757e-17
-1.32637e-16
4.1877e-17
-3.58076e-17
-3.29541e-17
8.26678e-17
-2.7412e-17
-1.31046e-16
-3.53587e-17
-3.25492e-17
8.1753e-17
-2.70706e-17
-1.29534e-16
-3.49818e-17
-3.22005e-17
8.087e-17
-2.67886e-17
-1.28171e-16
-3.45882e-17
-3.18388e-17
8.01138e-17
-2.64829e-17
-1.26896e-16
-3.42728e-17
-3.15453e-17
7.94039e-17
-2.62525e-17
-1.25805e-16
-3.4008e-17
-3.13115e-17
7.87776e-17
-2.60682e-17
-1.24883e-16
-3.37881e-17
-3.11165e-17
7.82642e-17
-2.59163e-17
-1.24136e-16
-3.35824e-17
-3.09368e-17
7.7915e-17
-2.57688e-17
-1.23561e-16
-3.34677e-17
-3.08276e-17
7.76905e-17
-2.56914e-17
-1.2325e-16
-3.33937e-17
-3.0774e-17
7.76524e-17
-2.56528e-17
-1.23189e-16
-3.34403e-17
-3.08216e-17
7.77713e-17
-2.57136e-17
-1.23479e-16
-3.35314e-17
-3.09146e-17
7.81608e-17
-2.58007e-17
-1.24096e-16
-3.3773e-17
-3.11427e-17
7.87716e-17
-2.60181e-17
-1.25178e-16
-3.41522e-17
-3.15133e-17
7.96656e-17
-2.63559e-17
-1.2677e-16
-3.46787e-17
-3.20188e-17
8.0912e-17
-2.68097e-17
-1.28939e-16
-3.53375e-17
-3.26494e-17
8.26094e-17
-2.73627e-17
-1.31749e-16
-3.62286e-17
-3.34826e-17
8.47705e-17
-2.81001e-17
-1.35381e-16
-3.73275e-17
-3.45297e-17
8.75154e-17
-2.90148e-17
-1.39926e-16
-3.8745e-17
-3.58644e-17
9.08889e-17
-3.01888e-17
-1.45601e-16
-4.04427e-17
-3.74657e-17
9.50877e-17
-3.15822e-17
-1.52528e-16
-4.25719e-17
-3.94753e-17
1.00151e-16
-3.33433e-17
-1.61024e-16
-4.51552e-17
-4.19024e-17
1.06311e-16
-3.54631e-17
-1.71295e-16
-4.82753e-17
-4.48452e-17
1.1373e-16
-3.80277e-17
-1.83678e-16
-5.20254e-17
-4.83762e-17
1.2265e-16
-4.11003e-17
-1.98542e-16
-5.64795e-17
-5.25703e-17
1.33378e-16
-4.474e-17
-2.16299e-16
-6.18426e-17
-5.76022e-17
1.46175e-16
-4.91138e-17
-2.37539e-16
-6.82114e-17
-6.3597e-17
1.61458e-16
-5.43135e-17
-2.62839e-16
-7.5844e-17
-7.07679e-17
1.7962e-16
-6.0543e-17
-2.92999e-16
-8.48754e-17
-7.92556e-17
2.01276e-16
-6.79026e-17
-3.28826e-16
-9.56589e-17
-8.93844e-17
2.26971e-16
-7.66976e-17
-3.71442e-16
-1.08481e-16
-1.0144e-16
2.57475e-16
-8.71602e-17
-4.22063e-16
-1.23703e-16
-1.15747e-16
2.93701e-16
-9.95718e-17
-4.82149e-16
-1.41733e-16
-1.32693e-16
3.36751e-16
-1.14263e-16
-5.53428e-16
-1.63171e-16
-1.52828e-16
3.87834e-16
-1.31728e-16
-6.38068e-16
-1.88597e-16
-1.76728e-16
4.48505e-16
-1.52449e-16
-7.3853e-16
-2.18842e-16
-2.05145e-16
5.20532e-16
-1.77096e-16
-8.57878e-16
-2.54737e-16
-2.38875e-16
6.06177e-16
-2.06336e-16
-9.9965e-16
-2.9747e-16
-2.7903e-16
7.0799e-16
-2.41157e-16
-1.16827e-15
-3.48349e-16
-3.26851e-16
8.29166e-16
-2.8262e-16
-1.36895e-15
-4.0898e-16
-3.83835e-16
9.73579e-16
-3.32015e-16
-1.60802e-15
-4.81301e-16
-4.51806e-16
1.14595e-15
-3.90913e-16
-1.89316e-15
-5.67795e-16
-5.33081e-16
1.35198e-15
-4.61323e-16
-2.23384e-15
-6.71385e-16
-6.30432e-16
1.59873e-15
-5.45611e-16
-2.64152e-15
-7.95836e-16
-7.4736e-16
1.89491e-15
-6.46781e-16
-3.13045e-15
-9.45699e-16
-8.88128e-16
2.25147e-15
-7.68441e-16
-3.71811e-15
-1.12691e-15
-1.05828e-15
2.68199e-15
-9.15295e-16
-4.42647e-15
-1.3469e-15
-1.26471e-15
3.20386e-15
-1.09308e-15
-5.28287e-15
-1.61535e-15
-1.51638e-15
3.83924e-15
-1.3092e-15
-6.32193e-15
-1.94494e-15
-1.82492e-15
4.6168e-15
-1.57309e-15
-7.58745e-15
-2.35256e-15
-2.20568e-15
5.57391e-15
-1.89684e-15
-9.1348e-15
-2.86115e-15
-2.67915e-15
6.75921e-15
-2.29601e-15
-1.10332e-14
-3.50197e-15
-3.2724e-15
8.23493e-15
-2.7895e-15
-1.33629e-14
-4.59738e-15
-4.31661e-15
-4.01956e-15
1.00741e-14
-3.39771e-15
-1.62e-14
-5.73517e-15
-5.35526e-15
-4.9552e-15
1.2333e-14
-4.12941e-15
-1.95405e-14
-7.1895e-15
-6.64209e-15
-6.0756e-15
1.49408e-14
-4.94202e-15
-2.31003e-14
-8.88443e-15
-8.02927e-15
-7.18618e-15
1.72992e-14
-5.60536e-15
-2.56818e-14
-9.9249e-15
-8.63486e-15
-7.46174e-15
1.73848e-14
-5.46267e-15
-2.43107e-14
-6.98747e-15
-5.6477e-15
-4.57269e-15
1.00425e-14
-2.9858e-15
-1.26154e-14
)
;
    }
    wedge2
    {
        type            wedge;
        value           nonuniform List<scalar> 
344
(
-4.02885e-17
-3.71509e-17
9.17267e-17
-3.10279e-17
-1.46527e-16
4.55967e-17
-3.96965e-17
-3.66091e-17
9.039e-17
-3.05702e-17
-1.44388e-16
4.4936e-17
-3.91684e-17
-3.61253e-17
8.9046e-17
-3.0179e-17
-1.4236e-16
4.42578e-17
-3.86113e-17
-3.56089e-17
8.78023e-17
-2.97399e-17
-1.40341e-16
4.365e-17
-3.80718e-17
-3.5119e-17
8.65863e-17
-2.93284e-17
-1.3841e-16
4.30597e-17
-3.75525e-17
-3.46356e-17
8.54285e-17
-2.89246e-17
-1.3655e-16
4.24909e-17
-3.70531e-17
-3.41739e-17
8.43208e-17
-2.854e-17
-1.34773e-16
4.1945e-17
-3.66152e-17
-3.3769e-17
8.32276e-17
-2.82159e-17
-1.33124e-16
4.13883e-17
-3.61736e-17
-3.33753e-17
8.22121e-17
-2.78889e-17
-1.31543e-16
-3.57886e-17
-3.30162e-17
8.12396e-17
-2.76014e-17
-1.30089e-16
-3.5391e-17
-3.26564e-17
8.03751e-17
-2.73021e-17
-1.28715e-16
-3.50758e-17
-3.23711e-17
7.9539e-17
-2.70793e-17
-1.27508e-16
-3.4756e-17
-3.20865e-17
7.88301e-17
-2.68403e-17
-1.26403e-16
-3.44684e-17
-3.18195e-17
7.82333e-17
-2.66218e-17
-1.2545e-16
-3.42296e-17
-3.16014e-17
7.7745e-17
-2.64466e-17
-1.24686e-16
-3.40832e-17
-3.14681e-17
7.73451e-17
-2.6353e-17
-1.24167e-16
-3.39679e-17
-3.13785e-17
7.71097e-17
-2.6288e-17
-1.2386e-16
-3.39522e-17
-3.13649e-17
7.70205e-17
-2.62978e-17
-1.23852e-16
-3.39778e-17
-3.14019e-17
7.71585e-17
-2.63393e-17
-1.24128e-16
-3.41466e-17
-3.15694e-17
7.74711e-17
-2.65066e-17
-1.24811e-16
-3.43827e-17
-3.18061e-17
7.80794e-17
-2.67202e-17
-1.25885e-16
-3.47348e-17
-3.21384e-17
7.90072e-17
-2.70193e-17
-1.27444e-16
-3.52356e-17
-3.26135e-17
8.02858e-17
-2.74426e-17
-1.29589e-16
-3.59503e-17
-3.32882e-17
8.19359e-17
-2.80478e-17
-1.32452e-16
-3.6838e-17
-3.41408e-17
8.40858e-17
-2.87978e-17
-1.36089e-16
-3.79931e-17
-3.52256e-17
8.67819e-17
-2.97567e-17
-1.40682e-16
-3.93876e-17
-3.65466e-17
9.01764e-17
-3.091e-17
-1.4634e-16
-4.11577e-17
-3.82165e-17
9.43052e-17
-3.23768e-17
-1.53328e-16
-4.32676e-17
-4.02024e-17
9.94043e-17
-3.41031e-17
-1.61783e-16
-4.58315e-17
-4.26233e-17
1.05568e-16
-3.62091e-17
-1.7204e-16
-4.89281e-17
-4.55327e-17
1.13016e-16
-3.87402e-17
-1.84397e-16
-5.26557e-17
-4.9038e-17
1.21964e-16
-4.1789e-17
-1.99242e-16
-5.71662e-17
-5.32765e-17
1.32643e-16
-4.54804e-17
-2.17052e-16
-6.25227e-17
-5.83253e-17
1.45431e-16
-4.98656e-17
-2.38295e-16
-6.89458e-17
-6.43573e-17
1.60666e-16
-5.51111e-17
-2.63646e-16
-7.65534e-17
-7.15127e-17
1.7885e-16
-6.13195e-17
-2.9379e-16
-8.56566e-17
-8.00701e-17
2.00433e-16
-6.87538e-17
-3.29678e-16
-9.64322e-17
-9.0203e-17
2.26131e-16
-7.75404e-17
-3.7228e-16
-1.09223e-16
-1.02217e-16
2.56674e-16
-8.79601e-17
-4.22864e-16
-1.24416e-16
-1.16492e-16
2.92934e-16
-1.00342e-16
-4.82926e-16
-1.42498e-16
-1.33479e-16
3.35937e-16
-1.15083e-16
-5.54259e-16
-1.63931e-16
-1.5363e-16
3.87012e-16
-1.32556e-16
-6.38898e-16
-1.8941e-16
-1.77565e-16
4.47639e-16
-1.53318e-16
-7.39406e-16
-2.19631e-16
-2.05967e-16
5.19688e-16
-1.77944e-16
-8.58734e-16
-2.55595e-16
-2.39765e-16
6.05264e-16
-2.07257e-16
-1.00057e-15
-2.98321e-16
-2.79922e-16
7.07079e-16
-2.42069e-16
-1.16917e-15
-3.49173e-16
-3.27704e-16
8.28293e-16
-2.8349e-16
-1.36982e-15
-4.09779e-16
-3.84659e-16
9.72737e-16
-3.32857e-16
-1.60886e-15
-4.82151e-16
-4.52671e-16
1.14507e-15
-3.91802e-16
-1.89406e-15
-5.6864e-16
-5.33961e-16
1.35108e-15
-4.62221e-16
-2.23473e-15
-6.72285e-16
-6.31349e-16
1.5978e-15
-5.46548e-16
-2.64246e-15
-7.96717e-16
-7.48264e-16
1.89399e-15
-6.477e-16
-3.13137e-15
-9.4665e-16
-8.89101e-16
2.25048e-15
-7.69431e-16
-3.71909e-15
-1.12784e-15
-1.05923e-15
2.68104e-15
-9.16245e-16
-4.4274e-15
-1.34782e-15
-1.26565e-15
3.20291e-15
-1.09402e-15
-5.28379e-15
-1.61624e-15
-1.51728e-15
3.83832e-15
-1.3101e-15
-6.32281e-15
-1.94582e-15
-1.82581e-15
4.61591e-15
-1.57397e-15
-7.58832e-15
-2.35351e-15
-2.20663e-15
5.57296e-15
-1.89778e-15
-9.13573e-15
-2.86211e-15
-2.68012e-15
6.75825e-15
-2.29697e-15
-1.10342e-14
-3.50299e-15
-3.27342e-15
8.23391e-15
-2.7905e-15
-1.33638e-14
-4.5984e-15
-4.31763e-15
-4.02057e-15
1.00731e-14
-3.39869e-15
-1.6201e-14
-5.73625e-15
-5.35635e-15
-4.95628e-15
1.2332e-14
-4.13044e-15
-1.95415e-14
-7.19055e-15
-6.64314e-15
-6.07662e-15
1.49398e-14
-4.94296e-15
-2.31012e-14
-8.88536e-15
-8.03016e-15
-7.18703e-15
1.72984e-14
-5.60612e-15
-2.56825e-14
-9.92559e-15
-8.63551e-15
-7.46235e-15
1.73842e-14
-5.46321e-15
-2.43112e-14
-6.98778e-15
-5.64799e-15
-4.57296e-15
1.00423e-14
-2.98604e-15
-1.26157e-14
)
;
    }
    axis
    {
        type            empty;
        value           nonuniform 0();
    }
    procBoundary26to20
    {
        type            processor;
        value           nonuniform List<scalar> 
67
(
0.000124575
0.000156045
0.000197042
0.000247322
0.000284914
0.000216899
1.0935e-06
1.07751e-06
1.06201e-06
1.047e-06
1.03251e-06
1.01856e-06
1.0052e-06
9.92464e-07
9.80404e-07
9.69082e-07
9.58573e-07
9.48966e-07
9.40369e-07
9.32906e-07
9.26729e-07
9.22017e-07
9.18981e-07
9.17872e-07
9.18989e-07
9.22684e-07
9.29372e-07
9.39547e-07
9.53792e-07
9.72794e-07
9.97369e-07
1.02848e-06
1.06726e-06
1.11506e-06
1.17346e-06
1.24435e-06
1.32994e-06
1.43287e-06
1.55623e-06
1.70373e-06
1.8797e-06
2.08933e-06
2.33875e-06
2.63522e-06
2.9874e-06
3.40559e-06
3.90204e-06
4.4914e-06
5.19117e-06
6.02233e-06
7.01007e-06
8.18479e-06
9.58321e-06
1.12499e-05
1.32393e-05
1.5618e-05
1.84685e-05
2.18928e-05
2.60194e-05
3.10107e-05
3.70746e-05
4.44816e-05
5.35878e-05
6.48722e-05
7.89873e-05
-0.000112397
9.68437e-05
)
;
    }
    procBoundary26to25
    {
        type            processor;
        value           nonuniform List<scalar> 5(-0.000132897 -0.000130206 -0.000127168 -0.000123777 -0.000120026);
    }
    procBoundary26to31
    {
        type            processor;
        value           uniform -0.000115907;
    }
    procBoundary26to32
    {
        type            processor;
        value           nonuniform List<scalar> 
67
(
-6.81832e-07
-6.74201e-07
-6.67176e-07
-6.60824e-07
-6.55227e-07
-6.50482e-07
-6.46704e-07
-6.44031e-07
-6.42624e-07
-6.42675e-07
-6.44412e-07
-6.48103e-07
-6.54067e-07
-6.6268e-07
-6.74387e-07
-6.89713e-07
-7.0928e-07
-7.33822e-07
-7.64208e-07
-8.01463e-07
-8.468e-07
-9.01654e-07
-9.6772e-07
-1.04701e-06
-1.14189e-06
-1.25517e-06
-1.39019e-06
-1.5509e-06
-1.74198e-06
-1.96899e-06
-2.23855e-06
-2.55853e-06
-2.9383e-06
-3.38905e-06
-3.92415e-06
-4.55963e-06
-5.31471e-06
-6.21251e-06
-7.28096e-06
-8.55381e-06
-1.00721e-05
-1.18858e-05
-1.40561e-05
-1.66582e-05
-1.97852e-05
-2.35527e-05
-2.81052e-05
-3.36244e-05
-4.03395e-05
-4.85377e-05
-5.85737e-05
-7.08473e-05
-8.57157e-05
-0.000103053
-0.000121238
-0.000133796
-0.000125871
-6.45942e-05
-6.89849e-07
-6.79828e-07
-6.70124e-07
-6.60749e-07
-6.5172e-07
-6.43057e-07
-6.34787e-07
0.000115377
-6.2694e-07
)
;
    }
}


// ************************************************************************* //
