/*--------------------------------*- C++ -*----------------------------------*\
  =========                 |
  \\      /  F ield         | OpenFOAM: The Open Source CFD Toolbox
   \\    /   O peration     | Website:  https://openfoam.org
    \\  /    A nd           | Version:  7
     \\/     M anipulation  |
\*---------------------------------------------------------------------------*/
FoamFile
{
    version     2.0;
    format      ascii;
    class       volScalarField;
    location    "1.6";
    object      p;
}
// * * * * * * * * * * * * * * * * * * * * * * * * * * * * * * * * * * * * * //

dimensions      [0 2 -2 0 0 0 0];

internalField   nonuniform List<scalar> 
344
(
0.228336
0.22132
0.214302
0.207281
0.20026
0.193237
0.186214
0.179189
0.172165
0.165139
0.158113
0.151087
0.144061
0.137034
0.130007
0.12298
0.115953
0.108926
0.101899
0.0948716
0.0878442
0.0808168
0.0737894
0.0667619
0.0597344
0.0527069
0.0456793
0.0386518
0.0316242
0.0245966
0.017569
0.0105414
0.00351382
0.424889
0.423847
0.422099
0.419699
0.416702
0.413166
0.409147
0.404697
0.399868
0.394708
0.389259
0.38356
0.377648
0.371553
0.365303
0.358921
0.352429
0.345845
0.339182
0.332456
0.325675
0.318851
0.311989
0.305098
0.298182
0.291245
0.284291
0.277324
0.270346
0.263358
0.256364
0.249363
0.242357
0.235347
0.228334
0.221318
0.2143
0.20728
0.200259
0.193236
0.186213
0.179189
0.172164
0.165139
0.158113
0.151087
0.144061
0.137034
0.130007
0.12298
0.115953
0.108926
0.101899
0.0948715
0.0878442
0.0808168
0.0737893
0.0667619
0.0597344
0.0527068
0.0456793
0.0386517
0.0316242
0.0245966
0.017569
0.0105414
0.00351382
0.424456
0.423421
0.421687
0.419307
0.416335
0.412826
0.408835
0.404415
0.399615
0.394483
0.38906
0.383386
0.377497
0.371422
0.36519
0.358825
0.352347
0.345775
0.339124
0.332406
0.325634
0.318816
0.311961
0.305074
0.298162
0.291228
0.284278
0.277313
0.270337
0.263351
0.256357
0.249358
0.242353
0.235343
0.228331
0.221316
0.214298
0.207278
0.200257
0.193235
0.186212
0.179188
0.172163
0.165138
0.158113
0.151087
0.14406
0.137034
0.130007
0.12298
0.115953
0.108926
0.101899
0.0948715
0.0878441
0.0808167
0.0737893
0.0667618
0.0597343
0.0527068
0.0456793
0.0386517
0.0316242
0.0245966
0.017569
0.0105414
0.00351382
0.424059
0.42303
0.421308
0.418946
0.415996
0.412511
0.408547
0.404153
0.39938
0.394273
0.388875
0.383224
0.377355
0.371299
0.365085
0.358735
0.35227
0.34571
0.339069
0.33236
0.325595
0.318784
0.311934
0.305052
0.298143
0.291213
0.284265
0.277303
0.270328
0.263344
0.256352
0.249353
0.242349
0.23534
0.228328
0.221313
0.214296
0.207277
0.200256
0.193234
0.186211
0.179187
0.172163
0.165138
0.158112
0.151086
0.14406
0.137034
0.130007
0.12298
0.115953
0.108926
0.101899
0.0948714
0.0878441
0.0808167
0.0737893
0.0667618
0.0597343
0.0527068
0.0456793
0.0386517
0.0316242
0.0245966
0.017569
0.0105414
0.00351382
0.423703
0.422678
0.420966
0.418619
0.415687
0.412225
0.408283
0.403913
0.399164
0.39408
0.388704
0.383074
0.377224
0.371186
0.364987
0.358651
0.352199
0.345649
0.339017
0.332317
0.325559
0.318753
0.311908
0.305031
0.298126
0.291199
0.284253
0.277293
0.27032
0.263337
0.256346
0.249348
0.242345
0.235337
0.228326
0.221311
0.214295
0.207276
0.200255
0.193233
0.186211
0.179187
0.172162
0.165137
0.158112
0.151086
0.14406
0.137033
0.130007
0.12298
0.115953
0.108926
0.101899
0.0948714
0.087844
0.0808167
0.0737892
0.0667618
0.0597343
0.0527068
0.0456793
0.0386517
0.0316241
0.0245966
0.017569
0.0105414
0.00351382
0.423393
0.422368
0.420664
0.418329
0.415413
0.411969
0.408048
0.403699
0.39897
0.393907
0.38855
0.382939
0.377106
0.371083
0.364898
0.358575
0.352134
0.345594
0.338971
0.332277
0.325526
0.318726
0.311885
0.305011
0.29811
0.291185
0.284242
0.277284
0.270313
0.263331
0.256341
0.249344
0.242342
0.235335
0.228324
0.22131
0.214293
0.207274
0.200254
0.193233
0.18621
0.179186
0.172162
)
;

boundaryField
{
    inlet
    {
        type            zeroGradient;
    }
    outlet
    {
        type            fixedValue;
        value           uniform 0;
    }
    wall
    {
        type            zeroGradient;
    }
    wedge1
    {
        type            wedge;
    }
    wedge2
    {
        type            wedge;
    }
    axis
    {
        type            empty;
    }
    procBoundary35to29
    {
        type            processor;
        value           nonuniform List<scalar> 
68
(
0.228339
0.221322
0.214304
0.207283
0.200261
0.193238
0.186215
0.17919
0.172165
0.16514
0.158114
0.151087
0.144061
0.137034
0.130008
0.122981
0.115953
0.108926
0.101899
0.0948717
0.0878443
0.0808169
0.0737894
0.0667619
0.0597344
0.0527069
0.0456793
0.0386518
0.0316242
0.0245966
0.017569
0.0105414
0.00351382
0.425355
0.424305
0.42254
0.420117
0.417094
0.413529
0.409478
0.404997
0.400137
0.394946
0.389469
0.383744
0.377808
0.371691
0.365421
0.359023
0.352516
0.345918
0.339244
0.332507
0.325719
0.318887
0.312019
0.305123
0.298202
0.291262
0.284305
0.277336
0.270355
0.263366
0.25637
0.249368
0.242361
0.23535
0.23535
)
;
    }
    procBoundary35to34
    {
        type            processor;
        value           nonuniform List<scalar> 4(0.425175 0.424744 0.42435 0.423999);
    }
    procBoundary35to40
    {
        type            processor;
        value           uniform 0.423694;
    }
    procBoundary35to41
    {
        type            processor;
        value           nonuniform List<scalar> 
68
(
0.165137
0.158112
0.151086
0.14406
0.137033
0.130007
0.12298
0.115953
0.108926
0.101899
0.0948713
0.087844
0.0808166
0.0737892
0.0667618
0.0597343
0.0527068
0.0456792
0.0386517
0.0316241
0.0245966
0.017569
0.0105414
0.00351382
0.423132
0.422106
0.420406
0.41808
0.415177
0.411748
0.407843
0.403511
0.398801
0.393755
0.388415
0.382819
0.377001
0.370992
0.36482
0.358507
0.352076
0.345545
0.338929
0.332242
0.325496
0.318701
0.311865
0.304994
0.298095
0.291174
0.284233
0.277276
0.270306
0.263326
0.256337
0.249341
0.242339
0.235332
0.228322
0.221308
0.214292
0.207273
0.200253
0.193232
0.186209
0.179186
0.165137
0.172162
)
;
    }
}


// ************************************************************************* //
