/*--------------------------------*- C++ -*----------------------------------*\
  =========                 |
  \\      /  F ield         | OpenFOAM: The Open Source CFD Toolbox
   \\    /   O peration     | Website:  https://openfoam.org
    \\  /    A nd           | Version:  7
     \\/     M anipulation  |
\*---------------------------------------------------------------------------*/
FoamFile
{
    version     2.0;
    format      ascii;
    class       surfaceScalarField;
    location    "3.6";
    object      phi;
}
// * * * * * * * * * * * * * * * * * * * * * * * * * * * * * * * * * * * * * //

dimensions      [0 3 -1 0 0 0 0];

internalField   nonuniform List<scalar> 
615
(
0.000127322
-4.55306e-06
0.00012884
-4.78871e-06
0.000130412
-4.97575e-06
0.000132024
-5.11783e-06
0.000133664
-5.21909e-06
0.00013532
-5.28395e-06
0.000136982
-5.31684e-06
0.000138642
-5.32208e-06
0.000140294
-5.30376e-06
0.00014193
-5.26569e-06
0.000143546
-5.21129e-06
0.000145139
-5.14367e-06
0.000146705
-5.06555e-06
0.000148243
-4.9793e-06
0.000149749
-4.88698e-06
0.000151223
-4.79032e-06
0.000152665
-4.69081e-06
0.000154073
-4.58968e-06
0.000155449
-4.48795e-06
0.000156791
-4.38643e-06
0.0001581
-4.28581e-06
0.000159377
-4.1866e-06
0.000160622
-4.08921e-06
0.000161836
-3.99395e-06
0.000163019
-3.90103e-06
0.000164173
-3.81063e-06
0.000165299
-3.72282e-06
0.000166396
-3.63766e-06
0.000167467
-3.55517e-06
0.000168511
-3.47532e-06
0.00016953
-3.39807e-06
0.000170524
-3.32336e-06
0.000171495
-3.25113e-06
0.000172443
-3.18129e-06
0.000173368
-3.11376e-06
0.000174272
-3.04844e-06
0.000175156
-2.98524e-06
0.000176019
-2.92407e-06
0.000176863
-2.86484e-06
0.000177688
-2.80746e-06
0.000178495
-2.75184e-06
0.000179284
-2.6979e-06
0.000180056
-2.64555e-06
0.000180812
-2.59472e-06
0.000181551
-2.54535e-06
0.000182275
-2.49735e-06
0.000182984
-2.45067e-06
0.000183679
-2.40525e-06
0.000184359
-2.36102e-06
0.000185025
-2.31794e-06
0.000185678
-2.27596e-06
0.000186318
-2.23502e-06
0.000186945
-2.19509e-06
0.000187559
-2.15612e-06
0.000188162
-2.11808e-06
0.000188753
-2.08093e-06
0.000189332
-2.04463e-06
-2.00915e-06
0.00014048
-4.20518e-07
0.000140844
-1.26555e-06
0.000141447
-2.09524e-06
0.000142278
-2.89057e-06
0.000143319
-3.63644e-06
0.000144553
-4.32121e-06
0.000145957
-4.93656e-06
0.000147509
-5.47746e-06
0.000149185
-5.94205e-06
0.000150963
-6.33111e-06
0.000152822
-6.64759e-06
0.000154742
-6.89598e-06
0.000156706
-7.08183e-06
0.000158698
-7.21129e-06
0.000160705
-7.29075e-06
0.000162715
-7.32655e-06
0.000164717
-7.32479e-06
0.000166705
-7.29119e-06
0.00016867
-7.23098e-06
0.000170608
-7.14889e-06
0.000172513
-7.04914e-06
0.000174383
-6.93543e-06
0.000176215
-6.81096e-06
0.000178006
-6.67851e-06
0.000179756
-6.54042e-06
0.000181464
-6.39867e-06
0.00018313
-6.25492e-06
0.000184752
-6.11053e-06
0.000186332
-5.96661e-06
0.000187871
-5.82406e-06
0.000189368
-5.68358e-06
0.000190824
-5.54573e-06
0.000192241
-5.41092e-06
0.000193619
-5.27945e-06
0.00019496
-5.15154e-06
0.000196265
-5.02731e-06
0.000197534
-4.90684e-06
0.000198769
-4.79014e-06
0.000199971
-4.6772e-06
0.000201141
-4.56797e-06
0.00020228
-4.46235e-06
0.000203389
-4.36027e-06
0.000204469
-4.26161e-06
0.000205522
-4.16626e-06
0.000206547
-4.07408e-06
0.000207547
-3.98496e-06
0.000208522
-3.89878e-06
0.000209472
-3.81539e-06
0.0002104
-3.73468e-06
0.000211304
-3.65654e-06
0.000212187
-3.58083e-06
0.000213049
-3.50746e-06
0.000213891
-3.43631e-06
0.000214713
-3.36728e-06
0.000215516
-3.30028e-06
0.0002163
-3.23521e-06
0.000217067
-3.17199e-06
0.000217816
-3.11053e-06
0.000218549
-3.05076e-06
0.000219266
-2.9926e-06
0.000219967
-2.93599e-06
0.000220652
-2.88085e-06
0.000221324
-2.82714e-06
0.00022198
-2.7748e-06
0.000222623
-2.72376e-06
0.000223252
-2.67398e-06
-2.62541e-06
0.000162102
-5.69914e-07
0.000162552
-1.71572e-06
0.000163296
-2.83947e-06
0.00016432
-3.91375e-06
0.0001656
-4.91717e-06
0.000167113
-5.83366e-06
0.000168828
-6.65218e-06
0.000170718
-7.36658e-06
0.000172751
-7.9752e-06
0.0001749
-8.48011e-06
0.000177138
-8.88621e-06
0.000179443
-9.20041e-06
0.000181792
-9.43085e-06
0.000184167
-9.58631e-06
0.000186552
-9.67573e-06
0.000188933
-9.70781e-06
0.000191299
-9.69084e-06
0.00019364
-9.63248e-06
0.000195949
-9.5397e-06
0.000198219
-9.41875e-06
0.000200445
-9.27518e-06
0.000202623
-9.11382e-06
0.000204751
-8.93887e-06
0.000206827
-8.75391e-06
0.000208848
-8.56202e-06
0.000210815
-8.36576e-06
0.000212728
-8.16728e-06
0.000214586
-7.96836e-06
0.000216389
-7.77043e-06
0.00021814
-7.57466e-06
0.000219838
-7.38197e-06
0.000221486
-7.19307e-06
0.000223083
-7.00851e-06
0.000224633
-6.82867e-06
0.000226135
-6.65384e-06
0.000227592
-6.48417e-06
0.000229005
-6.31977e-06
0.000230375
-6.16064e-06
0.000231705
-6.00677e-06
0.000232995
-5.85807e-06
0.000234247
-5.71445e-06
0.000235462
-5.57577e-06
0.000236643
-5.44188e-06
0.000237789
-5.31262e-06
0.000238903
-5.18783e-06
0.000239985
-5.06734e-06
0.000241037
-4.95096e-06
0.00024206
-4.83853e-06
0.000243056
-4.72988e-06
0.000244024
-4.62483e-06
0.000244966
-4.52323e-06
0.000245884
-4.42492e-06
0.000246777
-4.32976e-06
0.000247648
-4.23759e-06
0.000248496
-4.14829e-06
0.000249322
-4.06173e-06
0.000250128
-3.97777e-06
0.000250914
-3.89631e-06
0.00025168
-3.81724e-06
0.000252428
-3.74044e-06
0.000253158
-3.66583e-06
0.00025387
-3.59331e-06
0.000254566
-3.52279e-06
0.000255245
-3.4542e-06
0.000255909
-3.38744e-06
0.000256558
-3.32245e-06
-3.25917e-06
0.00018373
-7.53262e-07
0.000184283
-2.26861e-06
0.000185196
-3.75278e-06
0.000186449
-5.16682e-06
0.000188013
-6.48104e-06
0.000189853
-7.67388e-06
0.000191932
-8.7313e-06
0.000194212
-9.64631e-06
0.000196655
-1.04182e-05
0.000199226
-1.10511e-05
0.000201893
-1.1553e-05
0.000204627
-1.19342e-05
0.000207402
-1.22062e-05
0.000210197
-1.23811e-05
0.000212992
-1.24712e-05
0.000215773
-1.24881e-05
0.000218524
-1.24428e-05
0.000221237
-1.23451e-05
0.000223902
-1.22042e-05
0.000226511
-1.20282e-05
0.00022906
-1.18242e-05
0.000231544
-1.15983e-05
0.000233962
-1.1356e-05
0.000236309
-1.11017e-05
0.000238587
-1.08395e-05
0.000240794
-1.05726e-05
0.00024293
-1.03037e-05
0.000244997
-1.00351e-05
0.000246995
-9.76855e-06
0.000248926
-9.50555e-06
0.000250791
-9.24727e-06
0.000252593
-8.99458e-06
0.000254332
-8.74816e-06
0.000256012
-8.5085e-06
0.000257634
-8.2759e-06
0.000259201
-8.05058e-06
0.000260714
-7.83262e-06
0.000262175
-7.62202e-06
0.000263587
-7.41872e-06
0.000264951
-7.2226e-06
0.000266271
-7.03351e-06
0.000267546
-6.85125e-06
0.00026878
-6.67562e-06
0.000269974
-6.50637e-06
0.000271129
-6.34329e-06
0.000272248
-6.18612e-06
0.000273331
-6.03463e-06
0.000274381
-5.88856e-06
0.000275399
-5.74768e-06
0.000276386
-5.61176e-06
0.000277344
-5.48058e-06
0.000278273
-5.35392e-06
0.000279174
-5.23156e-06
0.00028005
-5.11331e-06
0.000280901
-4.99898e-06
0.000281727
-4.88839e-06
0.000282531
-4.78137e-06
0.000283312
-4.67774e-06
0.000284073
-4.57737e-06
0.000284812
-4.4801e-06
0.000285532
-4.38579e-06
0.000286233
-4.29431e-06
0.000286916
-4.20555e-06
0.000287581
-4.11938e-06
0.000288229
-4.03569e-06
0.000288861
-3.95439e-06
-3.87536e-06
0.000205365
-9.78081e-07
0.000206044
-2.94732e-06
0.000207164
-4.87276e-06
0.000208696
-6.69952e-06
0.000210602
-8.38701e-06
0.000212835
-9.90705e-06
0.000215347
-1.12425e-05
0.000218086
-1.2386e-05
0.000221007
-1.33391e-05
0.000224066
-1.41094e-05
0.000227222
-1.47091e-05
0.00023044
-1.51529e-05
0.000233691
-1.54571e-05
0.000236949
-1.56382e-05
0.00024019
-1.57124e-05
0.000243396
-1.56948e-05
0.000246553
-1.55999e-05
0.000249649
-1.54404e-05
0.000252673
0.000255617
0.000258478
0.00026125
0.000263931
0.000266521
0.000269018
0.000271424
0.000273739
0.000275965
0.000278105
0.000280161
0.000282136
0.000284032
0.000285853
0.000287601
0.00028928
0.000290892
0.000292441
0.000293929
0.000295359
0.000296735
0.000298057
0.00029933
0.000300555
0.000301735
0.000302872
0.000303968
0.000305024
0.000306044
0.000307027
0.000307977
0.000308895
0.000309782
0.00031064
0.00031147
0.000312274
0.000313051
0.000313805
0.000314535
0.000315243
0.00031593
0.000316596
0.000317242
0.00031787
0.000318481
0.000319073
0.00031965
0.00022701
0.000227847
0.000229225
0.000231105
0.000233433
0.000236146
0.000239181
0.000242471
0.000245958
0.000249587
0.000253307
0.000257076
0.000260858
0.00026462
0.000268338
0.000271989
0.000275557
)
;

boundaryField
{
    inlet
    {
        type            calculated;
        value           nonuniform List<scalar> 5(-0.000140359 -0.000161953 -0.000183546 -0.00020514 -0.000226734);
    }
    outlet
    {
        type            calculated;
        value           nonuniform 0();
    }
    wall
    {
        type            calculated;
        value           nonuniform 0();
    }
    wedge1
    {
        type            wedge;
        value           nonuniform List<scalar> 
344
(
4.04921e-17
5.09082e-18
5.94869e-17
7.49085e-18
8.40651e-17
1.56401e-16
2.4791e-17
2.22353e-16
3.47879e-17
3.0639e-16
2.73516e-16
4.55553e-17
3.86437e-16
6.31687e-17
5.29493e-16
3.87342e-16
6.57584e-17
5.4497e-16
9.0536e-17
7.43461e-16
4.94809e-16
8.4468e-17
6.93734e-16
1.15831e-16
9.42385e-16
5.94575e-16
1.01858e-16
8.30638e-16
1.39029e-16
1.12287e-15
6.85092e-16
1.17471e-16
9.53612e-16
1.59603e-16
1.2825e-15
7.65679e-16
1.31161e-16
1.06172e-15
1.77478e-16
1.42033e-15
8.35963e-16
1.43027e-16
1.15461e-15
1.92727e-16
1.53627e-15
1.07846e-16
8.95896e-16
1.53087e-16
1.23253e-15
2.05371e-16
1.63101e-15
1.14032e-16
9.45707e-16
1.6137e-16
1.29607e-15
2.15551e-16
1.70593e-15
1.19237e-16
9.86156e-16
1.68139e-16
1.34637e-15
2.23553e-16
1.7627e-15
1.23474e-16
1.01756e-15
1.7342e-16
1.38425e-15
2.29517e-16
1.80305e-15
1.26461e-16
1.04078e-15
1.77068e-16
1.41105e-15
2.3341e-16
1.82876e-15
1.28485e-16
1.0568e-15
1.79512e-16
1.42793e-15
2.35645e-16
1.84068e-15
1.30035e-16
1.06607e-15
1.80802e-16
1.43546e-15
2.36355e-16
1.84056e-15
1.30554e-16
1.06917e-15
1.81093e-16
1.43494e-15
2.3575e-16
1.83044e-15
1.3058e-16
1.06721e-15
1.80552e-16
1.42773e-15
2.34104e-16
1.81217e-15
1.30284e-16
1.06085e-15
1.79304e-16
1.41499e-15
2.31573e-16
1.29181e-16
1.05086e-15
1.77448e-16
1.39771e-15
2.28314e-16
1.27864e-16
1.03808e-15
1.75136e-16
1.37677e-15
2.24485e-16
1.26422e-16
1.02291e-15
1.72447e-16
1.35296e-15
2.20192e-16
1.2442e-16
1.00591e-15
1.69465e-16
1.32693e-15
2.15548e-16
1.2239e-16
9.87566e-16
1.6625e-16
1.29928e-15
2.10661e-16
1.20183e-16
9.68217e-16
1.62862e-16
1.27045e-15
2.05608e-16
1.17873e-16
9.48181e-16
1.59366e-16
1.24086e-15
2.00443e-16
1.15489e-16
9.27724e-16
1.55799e-16
1.21085e-15
1.95215e-16
1.13113e-16
9.07095e-16
1.5226e-16
1.18075e-15
1.90039e-16
1.10672e-16
8.86352e-16
1.48574e-16
1.15059e-15
1.84771e-16
1.0824e-16
8.65776e-16
1.44833e-16
1.12079e-15
1.79513e-16
1.05818e-16
8.45465e-16
1.41346e-16
1.09147e-15
1.74501e-16
1.03471e-16
8.25496e-16
1.37903e-16
1.06271e-15
1.69582e-16
1.01169e-16
8.05935e-16
1.34525e-16
1.0346e-15
1.64779e-16
9.89417e-17
7.86855e-16
1.31231e-16
1.0072e-15
1.60103e-16
9.6754e-17
7.68265e-16
1.28027e-16
9.80565e-16
1.55578e-16
9.46338e-17
7.50173e-16
1.249e-16
9.54702e-16
1.51195e-16
9.25665e-17
7.32602e-16
1.21852e-16
9.29625e-16
1.46943e-16
9.05781e-17
7.15583e-16
1.18886e-16
9.05364e-16
1.42839e-16
8.86698e-17
6.99102e-16
1.1603e-16
8.81902e-16
1.38873e-16
8.68217e-17
6.83149e-16
1.13266e-16
8.5925e-16
1.35045e-16
8.49862e-17
6.67705e-16
1.10596e-16
8.37375e-16
1.31366e-16
8.32105e-17
6.52767e-16
1.08001e-16
8.16256e-16
1.27818e-16
8.15107e-17
6.38326e-16
1.05491e-16
7.9588e-16
1.24402e-16
7.98568e-17
6.24351e-16
1.03068e-16
7.76224e-16
1.21116e-16
7.82553e-17
6.1084e-16
1.00729e-16
7.57274e-16
1.17952e-16
7.67095e-17
5.97778e-16
9.84749e-17
7.3899e-16
1.14915e-16
7.52281e-17
5.85141e-16
9.62885e-17
7.21349e-16
1.11996e-16
7.37946e-17
5.7291e-16
9.41837e-17
7.04325e-16
1.0919e-16
7.24022e-17
5.61071e-16
9.21483e-17
6.87902e-16
1.0648e-16
7.10743e-17
5.49618e-16
9.0179e-17
6.72034e-16
1.03866e-16
6.97731e-17
5.38517e-16
8.82642e-17
6.56699e-16
1.01339e-16
6.85017e-17
5.27737e-16
8.64152e-17
6.41876e-16
9.89021e-17
6.72851e-17
5.17288e-16
8.4631e-17
6.27546e-16
9.65469e-17
6.60913e-17
5.07148e-16
8.29005e-17
6.13685e-16
9.42681e-17
6.48938e-17
4.97289e-16
8.1218e-17
6.00281e-16
9.20867e-17
6.38269e-17
4.87759e-16
7.95472e-17
5.87272e-16
8.99282e-17
6.25545e-17
4.78426e-16
7.79446e-17
5.74795e-16
8.79203e-17
6.14053e-17
4.69209e-16
7.65791e-17
5.62642e-16
8.61066e-17
6.03503e-17
4.60456e-16
7.50385e-17
5.50833e-16
8.41672e-17
5.93206e-17
4.51901e-16
7.35678e-17
5.3937e-16
8.22937e-17
5.82969e-17
4.43531e-16
7.21362e-17
5.28243e-16
8.04973e-17
5.73349e-17
4.35397e-16
7.0738e-17
5.17439e-16
7.87614e-17
5.64187e-17
4.27478e-16
6.9396e-17
5.06948e-16
7.70567e-17
5.54976e-17
4.19752e-16
6.80946e-17
4.96764e-16
7.54169e-17
5.45848e-17
4.12196e-16
6.6813e-17
4.86852e-16
7.38355e-17
5.36934e-17
4.04828e-16
6.55659e-17
4.77208e-16
7.22894e-17
5.28454e-17
3.9764e-16
6.43519e-17
4.67847e-16
7.07874e-17
)
;
    }
    wedge2
    {
        type            wedge;
        value           nonuniform List<scalar> 
344
(
4.04752e-17
5.10522e-18
5.94839e-17
7.50867e-18
8.40843e-17
1.55915e-16
2.42514e-17
2.22037e-16
3.43852e-17
3.06209e-16
2.72665e-16
4.43629e-17
3.85622e-16
6.22381e-17
5.28985e-16
3.85255e-16
6.35816e-17
5.43082e-16
8.87893e-17
7.4217e-16
4.9229e-16
8.20577e-17
6.91639e-16
1.13907e-16
9.40916e-16
5.91594e-16
9.9019e-17
8.28151e-16
1.36746e-16
1.12117e-15
6.82102e-16
1.14475e-16
9.51059e-16
1.57251e-16
1.28072e-15
7.62777e-16
1.28303e-16
1.05918e-15
1.75195e-16
1.41837e-15
8.33133e-16
1.40282e-16
1.15213e-15
1.90436e-16
1.53412e-15
1.05205e-16
8.93122e-16
1.50406e-16
1.23005e-15
2.03078e-16
1.62881e-15
1.11492e-16
9.43037e-16
1.58764e-16
1.29361e-15
2.13242e-16
1.70363e-15
1.16459e-16
9.83129e-16
1.65299e-16
1.34355e-15
2.21008e-16
1.76021e-15
1.20196e-16
1.01444e-15
1.70218e-16
1.38134e-15
2.26637e-16
1.8005e-15
1.23198e-16
1.03766e-15
1.73968e-16
1.40813e-15
2.30609e-16
1.82624e-15
1.2537e-16
1.05351e-15
1.76411e-16
1.42502e-15
2.3285e-16
1.83804e-15
1.26367e-16
1.06276e-15
1.77713e-16
1.43253e-15
2.33569e-16
1.83795e-15
1.26936e-16
1.06587e-15
1.77996e-16
1.43203e-15
2.33028e-16
1.82792e-15
1.26719e-16
1.06365e-15
1.77404e-16
1.42482e-15
2.31375e-16
1.80957e-15
1.25792e-16
1.05717e-15
1.76092e-16
1.41205e-15
2.28828e-16
1.24766e-16
1.04717e-15
1.74215e-16
1.39475e-15
2.25563e-16
1.23213e-16
1.03415e-15
1.71841e-16
1.3738e-15
2.21713e-16
1.21234e-16
1.01889e-15
1.69084e-16
1.34997e-15
2.17423e-16
1.19342e-16
1.00185e-15
1.66032e-16
1.32393e-15
2.12796e-16
1.17129e-16
9.83416e-16
1.62768e-16
1.29622e-15
2.07916e-16
1.14834e-16
9.64003e-16
1.59354e-16
1.26737e-15
2.02859e-16
1.12465e-16
9.4392e-16
1.55833e-16
1.23777e-15
1.97705e-16
1.10057e-16
9.23432e-16
1.52253e-16
1.20777e-15
1.92518e-16
1.07585e-16
9.02727e-16
1.48588e-16
1.1776e-15
1.87274e-16
1.05164e-16
8.82104e-16
1.45068e-16
1.14769e-15
1.82189e-16
1.02759e-16
8.61574e-16
1.41663e-16
1.118e-15
1.77229e-16
1.00397e-16
8.41268e-16
1.38091e-16
1.0887e-15
1.72197e-16
9.80357e-17
8.21291e-16
1.34592e-16
1.05995e-15
1.67288e-16
9.57219e-17
8.01715e-16
1.31172e-16
1.03184e-15
1.62506e-16
9.34408e-17
7.8257e-16
1.27828e-16
1.00443e-15
1.57859e-16
9.12347e-17
7.63922e-16
1.24568e-16
9.7776e-16
1.53339e-16
8.90835e-17
7.45807e-16
1.21411e-16
9.51892e-16
1.48963e-16
8.70042e-17
7.28235e-16
1.18362e-16
9.26842e-16
1.44745e-16
8.49728e-17
7.11186e-16
1.15419e-16
9.02595e-16
1.40672e-16
8.29879e-17
6.94671e-16
1.12554e-16
8.79162e-16
1.36749e-16
8.1068e-17
6.78691e-16
1.09785e-16
8.56514e-16
1.32975e-16
7.92585e-17
6.63248e-16
1.07105e-16
8.34657e-16
1.29329e-16
7.75092e-17
6.48315e-16
1.0453e-16
8.13574e-16
1.25824e-16
7.58001e-17
6.33874e-16
1.02045e-16
7.93235e-16
1.22451e-16
7.41572e-17
6.19924e-16
9.96422e-17
7.73615e-16
1.19203e-16
7.257e-17
6.06432e-16
9.73192e-17
7.54679e-16
1.16079e-16
7.10303e-17
5.93375e-16
9.50682e-17
7.36415e-16
1.13062e-16
6.95253e-17
5.80743e-16
9.29015e-17
7.18792e-16
1.10155e-16
6.80664e-17
5.68519e-16
9.07972e-17
7.01783e-16
1.07351e-16
6.66572e-17
5.56679e-16
8.87631e-17
6.85354e-16
1.04658e-16
6.52689e-17
5.45196e-16
8.67956e-17
6.69497e-16
1.02066e-16
6.39361e-17
5.34069e-16
8.49007e-17
6.54187e-16
9.95772e-17
6.26511e-17
5.23297e-16
8.30613e-17
6.39393e-16
9.71771e-17
6.13854e-17
5.12838e-16
8.12728e-17
6.25089e-16
9.48673e-17
6.01671e-17
5.02685e-16
7.95409e-17
6.11255e-16
9.26447e-17
5.90196e-17
4.92838e-16
7.78671e-17
5.97859e-16
9.04804e-17
5.78058e-17
4.83222e-16
7.62822e-17
5.84924e-16
8.84418e-17
5.68584e-17
4.73939e-16
7.47174e-17
5.72272e-16
8.63884e-17
5.58455e-17
4.65057e-16
7.30243e-17
5.60076e-16
8.4287e-17
5.4794e-17
4.56196e-16
7.15856e-17
5.48281e-16
8.2434e-17
5.37704e-17
4.47603e-16
7.01616e-17
5.36852e-16
8.06379e-17
5.27913e-17
4.39271e-16
6.87786e-17
5.25766e-16
7.88817e-17
5.1799e-17
4.31132e-16
6.74395e-17
5.15008e-16
7.71769e-17
5.08071e-17
4.23188e-16
6.61184e-17
5.0456e-16
7.55479e-17
4.98652e-17
4.15445e-16
6.48273e-17
4.94402e-16
7.39555e-17
4.89574e-17
4.07909e-16
6.35845e-17
4.84544e-16
7.24027e-17
4.80697e-17
4.0055e-16
6.23725e-17
4.74966e-16
7.09076e-17
4.71781e-17
3.9336e-16
6.11905e-17
4.65631e-16
6.94577e-17
)
;
    }
    axis
    {
        type            empty;
        value           nonuniform 0();
    }
    procBoundary6to0
    {
        type            processor;
        value           nonuniform List<scalar> 
68
(
3.10618e-06
3.27148e-06
3.40385e-06
3.50557e-06
3.57932e-06
3.62797e-06
3.65446e-06
3.6617e-06
3.65248e-06
3.62938e-06
3.59477e-06
3.55081e-06
3.49939e-06
3.44218e-06
3.38062e-06
3.31593e-06
3.24917e-06
3.1812e-06
3.11274e-06
3.04439e-06
2.9766e-06
2.90976e-06
2.84415e-06
2.77998e-06
2.71742e-06
2.65656e-06
2.59747e-06
2.5402e-06
2.48473e-06
2.43106e-06
2.37916e-06
2.32898e-06
2.28047e-06
2.23357e-06
2.18822e-06
2.14435e-06
2.1019e-06
2.0608e-06
2.02099e-06
1.98239e-06
1.94497e-06
1.90864e-06
1.87336e-06
1.83908e-06
1.80574e-06
1.77331e-06
1.74172e-06
1.71095e-06
1.68096e-06
1.6517e-06
1.62315e-06
1.59528e-06
1.56805e-06
1.54144e-06
1.51542e-06
1.48998e-06
1.46508e-06
1.44071e-06
2.99507e-07
9.01136e-07
1.49237e-06
2.06035e-06
2.59475e-06
3.08743e-06
3.53239e-06
3.92581e-06
-0.000125876
4.26599e-06
)
;
    }
    procBoundary6to1
    {
        type            processor;
        value           uniform 0.000189901;
    }
    procBoundary6to7
    {
        type            processor;
        value           nonuniform List<scalar> 4(0.000223869 0.000257191 0.000289477 0.00032021);
    }
    procBoundary6to12
    {
        type            processor;
        value           nonuniform List<scalar> 
68
(
-1.5228e-05
-1.49731e-05
-1.46846e-05
-1.43704e-05
-1.40374e-05
-1.36912e-05
-1.33368e-05
-1.29782e-05
-1.26189e-05
-1.22616e-05
-1.19085e-05
-1.15615e-05
-1.12219e-05
-1.08908e-05
-1.05689e-05
-1.02567e-05
-9.95468e-06
-9.66291e-06
-9.38144e-06
-9.11023e-06
-8.84911e-06
-8.59788e-06
-8.35629e-06
-8.12403e-06
-7.9008e-06
-7.68624e-06
-7.48002e-06
-7.28178e-06
-7.09119e-06
-6.90788e-06
-6.73154e-06
-6.56184e-06
-6.39845e-06
-6.24108e-06
-6.08944e-06
-5.94325e-06
-5.80225e-06
-5.66618e-06
-5.53481e-06
-5.40792e-06
-5.28529e-06
-5.16672e-06
-5.05202e-06
-4.94102e-06
-4.83354e-06
-4.72943e-06
-4.62853e-06
-4.5307e-06
-4.43582e-06
-1.25464e-06
-3.78359e-06
-6.25101e-06
-8.57967e-06
-1.07149e-05
-1.26206e-05
-1.42766e-05
-1.56768e-05
-1.68262e-05
-1.77376e-05
-1.84293e-05
-1.89223e-05
-1.92387e-05
-1.94008e-05
-1.94299e-05
-1.93461e-05
-1.91679e-05
0.000279028
-1.89118e-05
)
;
    }
}


// ************************************************************************* //
