/*--------------------------------*- C++ -*----------------------------------*\
  =========                 |
  \\      /  F ield         | OpenFOAM: The Open Source CFD Toolbox
   \\    /   O peration     | Website:  https://openfoam.org
    \\  /    A nd           | Version:  7
     \\/     M anipulation  |
\*---------------------------------------------------------------------------*/
FoamFile
{
    version     2.0;
    format      ascii;
    class       surfaceScalarField;
    location    "8.4";
    object      phi;
}
// * * * * * * * * * * * * * * * * * * * * * * * * * * * * * * * * * * * * * //

dimensions      [0 3 -1 0 0 0 0];

internalField   nonuniform List<scalar> 
615
(
1.73518e-05
-6.03359e-08
1.74112e-05
-5.94352e-08
1.74697e-05
-5.85498e-08
1.75274e-05
-5.76793e-08
1.75842e-05
-5.68233e-08
1.76402e-05
-5.59812e-08
1.76954e-05
-5.51528e-08
1.77497e-05
-5.43376e-08
1.78033e-05
-5.35353e-08
1.7856e-05
-5.27457e-08
1.7908e-05
-5.19684e-08
1.79592e-05
-5.12032e-08
1.80096e-05
-5.04498e-08
1.80593e-05
-4.9708e-08
1.81083e-05
-4.89776e-08
1.81566e-05
-4.82584e-08
1.82041e-05
-4.75501e-08
1.8251e-05
-4.68526e-08
1.82971e-05
-4.61657e-08
1.83426e-05
-4.54892e-08
1.83874e-05
-4.4823e-08
1.84316e-05
-4.41668e-08
1.84751e-05
-4.35206e-08
1.8518e-05
-4.28842e-08
1.85603e-05
-4.22574e-08
1.86019e-05
-4.164e-08
1.86429e-05
-4.10321e-08
1.86834e-05
-4.04333e-08
1.87232e-05
-3.98436e-08
1.87625e-05
-3.92628e-08
1.88012e-05
-3.86908e-08
1.88393e-05
-3.81275e-08
1.88769e-05
-3.75728e-08
1.89139e-05
-3.70264e-08
1.89504e-05
-3.64884e-08
1.89863e-05
-3.59585e-08
1.90218e-05
-3.54367e-08
1.90567e-05
-3.49229e-08
1.90911e-05
-3.44168e-08
1.9125e-05
-3.39185e-08
1.91585e-05
-3.34278e-08
1.91914e-05
-3.29445e-08
1.92239e-05
-3.24687e-08
1.92559e-05
-3.20001e-08
1.92874e-05
-3.15386e-08
1.93185e-05
-3.10843e-08
1.93491e-05
-3.06369e-08
1.93793e-05
-3.01963e-08
1.94091e-05
-2.97626e-08
1.94384e-05
-2.93355e-08
1.94674e-05
-2.8915e-08
1.94959e-05
-2.8501e-08
1.95239e-05
-2.80935e-08
1.95516e-05
-2.76923e-08
1.95789e-05
-2.72974e-08
1.96058e-05
-2.69087e-08
1.96324e-05
-2.65262e-08
1.96585e-05
-2.61498e-08
1.96843e-05
-2.57794e-08
1.97097e-05
-2.54151e-08
1.97348e-05
-2.50568e-08
1.97595e-05
-2.47046e-08
1.97838e-05
-2.43583e-08
1.98079e-05
-2.40181e-08
1.98315e-05
-2.3684e-08
1.98549e-05
-2.33561e-08
-2.30345e-08
5.20576e-05
-2.39742e-07
5.22343e-05
-2.36119e-07
5.24083e-05
-2.32559e-07
5.25797e-05
-2.2906e-07
5.27485e-05
-2.25621e-07
5.29147e-05
-2.22239e-07
5.30785e-05
-2.18913e-07
5.32398e-05
-2.15641e-07
5.33987e-05
-2.12423e-07
5.35552e-05
-2.09257e-07
5.37094e-05
-2.06141e-07
5.38613e-05
-2.03075e-07
5.40109e-05
-2.00058e-07
5.41582e-05
-1.97088e-07
5.43034e-05
-1.94165e-07
5.44465e-05
-1.91288e-07
5.45874e-05
-1.88455e-07
5.47262e-05
-1.85667e-07
5.48629e-05
-1.82922e-07
5.49977e-05
-1.80219e-07
5.51304e-05
-1.77559e-07
5.52612e-05
-1.74939e-07
5.539e-05
-1.7236e-07
5.55169e-05
-1.69821e-07
5.5642e-05
-1.67321e-07
5.57652e-05
-1.64859e-07
5.58866e-05
-1.62436e-07
5.60062e-05
-1.60049e-07
5.61241e-05
-1.577e-07
5.62402e-05
-1.55387e-07
5.63546e-05
-1.53109e-07
5.64674e-05
-1.50867e-07
5.65785e-05
-1.48659e-07
5.66879e-05
-1.46485e-07
5.67958e-05
-1.44345e-07
5.69021e-05
-1.42238e-07
5.70068e-05
-1.40163e-07
5.711e-05
-1.3812e-07
5.72117e-05
-1.36109e-07
5.73119e-05
-1.34129e-07
5.74106e-05
-1.32179e-07
5.7508e-05
-1.30259e-07
5.76039e-05
-1.2837e-07
5.76984e-05
-1.26509e-07
5.77915e-05
-1.24677e-07
5.78833e-05
-1.22874e-07
5.79738e-05
-1.21098e-07
5.80629e-05
-1.1935e-07
5.81508e-05
-1.17629e-07
5.82374e-05
-1.15935e-07
5.83227e-05
-1.14268e-07
5.84069e-05
-1.12626e-07
5.84898e-05
-1.1101e-07
5.85715e-05
-1.0942e-07
5.86521e-05
-1.07855e-07
5.87315e-05
-1.06314e-07
5.88097e-05
-1.04798e-07
5.88869e-05
-1.03307e-07
5.8963e-05
-1.0184e-07
5.90379e-05
-1.00396e-07
5.91119e-05
-9.89773e-08
5.91847e-05
-9.75822e-08
5.92566e-05
-9.62111e-08
5.93274e-05
-9.48641e-08
5.93973e-05
-9.35414e-08
5.94662e-05
-9.22432e-08
-9.09701e-08
8.67649e-05
-5.3277e-07
8.70534e-05
-5.24542e-07
8.73373e-05
-5.16462e-07
8.76167e-05
-5.08527e-07
8.78918e-05
-5.00732e-07
8.81627e-05
-4.93074e-07
8.84293e-05
-4.85547e-07
8.86918e-05
-4.7815e-07
8.89503e-05
-4.70878e-07
8.92047e-05
-4.63728e-07
8.94553e-05
-4.56698e-07
8.9702e-05
-4.49785e-07
8.99449e-05
-4.42986e-07
9.01842e-05
-4.36298e-07
9.04197e-05
-4.2972e-07
9.06517e-05
-4.23249e-07
9.08801e-05
-4.16883e-07
9.1105e-05
-4.1062e-07
9.13266e-05
-4.04458e-07
9.15448e-05
-3.98395e-07
9.17596e-05
-3.9243e-07
9.19713e-05
-3.8656e-07
9.21797e-05
-3.80785e-07
9.2385e-05
-3.75101e-07
9.25871e-05
-3.69509e-07
9.27863e-05
-3.64005e-07
9.29824e-05
-3.58589e-07
9.31757e-05
-3.53259e-07
9.3366e-05
-3.48014e-07
9.35534e-05
-3.42852e-07
9.37381e-05
-3.37773e-07
9.392e-05
-3.32773e-07
9.40992e-05
-3.27853e-07
9.42757e-05
-3.23011e-07
9.44496e-05
-3.18246e-07
9.46209e-05
-3.13555e-07
9.47897e-05
-3.08939e-07
9.4956e-05
-3.04397e-07
9.51198e-05
-2.99925e-07
9.52812e-05
-2.95525e-07
9.54402e-05
-2.91194e-07
9.55969e-05
-2.86931e-07
9.57513e-05
-2.82736e-07
9.59034e-05
-2.78606e-07
9.60532e-05
-2.74542e-07
9.62009e-05
-2.70543e-07
9.63464e-05
-2.66606e-07
9.64898e-05
-2.62731e-07
9.66311e-05
-2.58918e-07
9.67703e-05
-2.55165e-07
9.69075e-05
-2.51472e-07
9.70427e-05
-2.47837e-07
9.7176e-05
-2.4426e-07
9.73073e-05
-2.40741e-07
9.74367e-05
-2.37277e-07
9.75643e-05
-2.3387e-07
9.769e-05
-2.30518e-07
9.78139e-05
-2.2722e-07
9.7936e-05
-2.23977e-07
9.80564e-05
-2.20787e-07
9.81751e-05
-2.17652e-07
9.82921e-05
-2.1457e-07
9.84074e-05
-2.11541e-07
9.85211e-05
-2.08567e-07
9.86332e-05
-2.05646e-07
9.87438e-05
-2.02781e-07
-1.99971e-07
0.000121451
-9.29863e-07
0.000121841
-9.1507e-07
0.000122225
-9.0056e-07
0.000122603
-8.86324e-07
0.000122975
-8.72354e-07
0.00012334
-8.58641e-07
0.0001237
-8.45179e-07
0.000124054
-8.3196e-07
0.000124402
-8.18978e-07
0.000124744
-8.06227e-07
0.000125081
-7.93701e-07
0.000125413
-7.81395e-07
0.000125739
-7.69303e-07
0.000126061
-7.57421e-07
0.000126377
-7.45744e-07
0.000126688
-7.34267e-07
0.000126994
-7.22986e-07
0.000127295
-7.11897e-07
0.000127591
-7.00997e-07
0.000127883
-6.9028e-07
0.000128171
-6.79745e-07
0.000128454
-6.69386e-07
0.000128732
-6.59201e-07
0.000129006
-6.49186e-07
0.000129276
-6.39338e-07
0.000129542
-6.29654e-07
0.000129803
-6.20131e-07
0.000130061
-6.10766e-07
0.000130314
-6.01555e-07
0.000130564
-5.92497e-07
0.00013081
-5.83588e-07
0.000131052
-5.74826e-07
0.00013129
-5.66208e-07
0.000131525
-5.57731e-07
0.000131756
-5.49393e-07
0.000131983
-5.41192e-07
0.000132208
-5.33125e-07
0.000132428
-5.25189e-07
0.000132646
-5.17383e-07
0.00013286
-5.09704e-07
0.000133071
-5.02149e-07
0.000133279
-4.94718e-07
0.000133483
-4.87407e-07
0.000133685
-4.80215e-07
0.000133884
-4.73139e-07
0.000134079
-4.66178e-07
0.000134272
-4.59329e-07
0.000134462
-4.52592e-07
0.000134649
-4.45963e-07
0.000134833
-4.39443e-07
0.000135015
-4.33027e-07
0.000135194
-4.26716e-07
0.00013537
-4.20508e-07
0.000135544
-4.144e-07
0.000135715
-4.08393e-07
0.000135883
-4.02484e-07
0.000136049
-3.96673e-07
0.000136213
-3.90959e-07
0.000136375
-3.8534e-07
0.000136534
-3.79816e-07
0.00013669
-3.74387e-07
0.000136845
-3.69052e-07
0.000136997
-3.63811e-07
0.000137147
-3.58665e-07
0.000137295
-3.53614e-07
0.000137441
-3.48658e-07
-3.43801e-07
0.000156054
-1.41686e-06
0.000156533
-1.39349e-06
0.000157003
-1.3706e-06
0.000157465
-1.34817e-06
0.000157918
-1.32619e-06
0.000158364
-1.30464e-06
0.000158803
-1.28351e-06
0.000159234
-1.26278e-06
0.000159657
-1.24246e-06
0.000160073
0.000160483
0.000160885
0.000161281
0.000161669
0.000162052
0.000162428
0.000162798
0.000163162
0.00016352
0.000163872
0.000164218
0.000164559
0.000164894
0.000165223
0.000165548
0.000165867
0.000166181
0.00016649
0.000166794
0.000167093
0.000167388
0.000167677
0.000167963
0.000168244
0.00016852
0.000168792
0.00016906
0.000169323
0.000169583
0.000169839
0.00017009
0.000170338
0.000170582
0.000170822
0.000171059
0.000171292
0.000171521
0.000171747
0.000171969
0.000172188
0.000172404
0.000172617
0.000172826
0.000173033
0.000173236
0.000173436
0.000173633
0.000173827
0.000174019
0.000174207
0.000174393
0.000174576
0.000174757
0.000174935
0.00017511
0.000175283
0.000190458
0.000191006
0.000191542
0.000192069
0.000192586
0.000193093
0.000193591
0.00019408
)
;

boundaryField
{
    inlet
    {
        type            calculated;
        value           nonuniform 0();
    }
    outlet
    {
        type            calculated;
        value           nonuniform 0();
    }
    wall
    {
        type            calculated;
        value           nonuniform 0();
    }
    wedge1
    {
        type            wedge;
        value           nonuniform List<scalar> 
344
(
1.82815e-17
1.77783e-17
1.35069e-16
-1.35796e-17
-3.09787e-17
5.19997e-17
1.7253e-17
1.7283e-17
1.32664e-16
-1.31588e-17
-3.04289e-17
5.11253e-17
1.68376e-17
1.53857e-17
1.30202e-16
-1.34507e-17
-3.01343e-17
5.03868e-17
1.6633e-17
1.56872e-17
1.28253e-16
-1.37198e-17
-2.96196e-17
4.94763e-17
1.67148e-17
1.59434e-17
1.26157e-16
-1.32782e-17
-2.92732e-17
4.87412e-17
1.62459e-17
1.57343e-17
1.24193e-16
-1.34737e-17
-2.88529e-17
4.78182e-17
1.59715e-17
1.4759e-17
1.22101e-16
-1.30916e-17
-2.85634e-17
4.68507e-17
1.57759e-17
1.48161e-17
1.20321e-16
-1.32795e-17
-2.81021e-17
4.60395e-17
1.57727e-17
1.49002e-17
1.18414e-16
-1.28629e-17
-2.77899e-17
4.53901e-17
1.52055e-17
1.46906e-17
1.16621e-16
-1.30616e-17
-2.73826e-17
1.505e-17
1.37762e-17
1.14634e-16
-1.26291e-17
-2.70768e-17
1.489e-17
1.38384e-17
1.13049e-16
-1.2765e-17
-2.65769e-17
1.47327e-17
1.39109e-17
1.11238e-16
-1.2267e-17
-2.62623e-17
1.43963e-17
1.41204e-17
1.09781e-16
-1.24653e-17
-2.578e-17
1.40883e-17
1.30106e-17
1.07791e-16
-1.22409e-17
-2.55073e-17
1.37535e-17
1.2248e-17
1.05717e-16
-1.23012e-17
-2.54439e-17
1.36195e-17
1.24382e-17
1.04364e-16
-1.19289e-17
-2.49387e-17
1.36103e-17
1.26119e-17
1.03117e-16
-1.1486e-17
-2.44344e-17
1.35527e-17
1.26485e-17
1.01821e-16
-1.11086e-17
-2.39288e-17
1.33614e-17
1.2693e-17
1.00489e-16
-1.07771e-17
-2.33923e-17
1.33393e-17
1.26232e-17
9.92382e-17
-1.04192e-17
-2.29448e-17
1.32025e-17
1.25739e-17
9.7861e-17
-1.01425e-17
-2.25164e-17
1.30294e-17
1.25467e-17
9.65425e-17
-9.87974e-18
-2.20523e-17
1.2894e-17
1.25746e-17
9.53751e-17
-9.55828e-18
-2.15768e-17
1.28287e-17
1.25384e-17
9.40985e-17
-9.24026e-18
-2.11671e-17
1.294e-17
1.29695e-17
9.29883e-17
-8.87629e-18
-2.07132e-17
1.22162e-17
1.2686e-17
9.13668e-17
-8.47259e-18
-2.03363e-17
1.20926e-17
1.09575e-17
8.96484e-17
-8.76792e-18
-2.01654e-17
1.17957e-17
1.11754e-17
8.84078e-17
-9.06632e-18
-1.97844e-17
1.18899e-17
1.14491e-17
8.70268e-17
-8.69568e-18
-1.95995e-17
1.14464e-17
1.15015e-17
8.57238e-17
-8.94735e-18
-1.93187e-17
1.1405e-17
1.0681e-17
8.42057e-17
-8.62193e-18
-1.92006e-17
1.14355e-17
1.09922e-17
8.32124e-17
-8.85725e-18
-1.8845e-17
1.08368e-17
1.08473e-17
8.1794e-17
-8.28653e-18
-1.87487e-17
1.08733e-17
1.01788e-17
8.04911e-17
-8.6067e-18
-1.86118e-17
1.04957e-17
1.0163e-17
7.88338e-17
-8.907e-18
-1.85464e-17
1.05066e-17
9.54908e-18
7.75697e-17
-9.02003e-18
-1.8383e-17
1.00105e-17
9.57385e-18
7.6165e-17
-9.15838e-18
-1.83128e-17
1.00807e-17
8.93431e-18
7.49405e-17
-9.25523e-18
-1.81958e-17
9.38244e-18
8.96503e-18
7.35129e-17
-9.34204e-18
-1.81667e-17
9.55009e-18
8.55429e-18
7.2409e-17
-9.33222e-18
-1.80233e-17
9.38486e-18
8.69083e-18
7.11243e-17
-9.42112e-18
-1.79477e-17
9.31317e-18
8.18855e-18
7.00429e-17
-9.43425e-18
-1.77631e-17
8.95067e-18
8.14471e-18
6.88071e-17
-9.40301e-18
-1.76389e-17
8.94834e-18
7.64124e-18
6.76588e-17
-9.51407e-18
-1.75495e-17
8.65976e-18
8.0885e-18
6.66392e-17
-9.53074e-18
-1.7282e-17
8.2709e-18
7.19351e-18
6.55189e-17
-9.11345e-18
-1.71692e-17
8.25296e-18
6.8847e-18
6.4591e-17
-9.14451e-18
-1.69441e-17
8.21637e-18
7.07202e-18
6.34099e-17
-9.27683e-18
-1.69027e-17
8.23687e-18
6.86351e-18
6.24682e-17
-9.33901e-18
-1.67904e-17
7.95934e-18
6.90369e-18
6.13164e-17
-9.35982e-18
-1.6708e-17
7.90677e-18
6.47559e-18
6.04701e-17
-9.31788e-18
-1.65232e-17
7.50736e-18
6.57276e-18
5.93752e-17
-9.36272e-18
-1.65136e-17
7.59912e-18
6.18462e-18
5.85448e-17
-9.34048e-18
-1.63481e-17
7.44043e-18
6.37683e-18
5.75363e-17
-9.28722e-18
-1.62535e-17
7.47393e-18
5.99163e-18
5.67623e-17
-9.18371e-18
-1.6005e-17
7.13464e-18
6.12384e-18
5.5809e-17
-9.13027e-18
-1.59023e-17
7.19681e-18
5.88952e-18
5.50332e-17
-9.1326e-18
-1.57359e-17
7.02633e-18
5.9959e-18
5.41024e-17
-9.12719e-18
-1.56855e-17
7.07007e-18
5.59598e-18
5.34187e-17
-9.03136e-18
-1.55032e-17
6.7453e-18
5.65264e-18
5.24623e-17
-9.05557e-18
-1.54101e-17
6.71734e-18
5.36699e-18
5.1713e-17
-9.02678e-18
-1.52335e-17
6.49244e-18
5.56334e-18
5.0778e-17
-8.98702e-18
-1.5189e-17
6.64554e-18
5.09386e-18
5.00873e-17
-8.89057e-18
-1.49775e-17
6.33844e-18
5.18734e-18
4.92364e-17
-8.83241e-18
-1.48577e-17
6.39222e-18
4.90095e-18
4.86424e-17
-8.77946e-18
-1.46586e-17
6.10952e-18
5.0531e-18
4.78054e-17
-8.71554e-18
-1.45919e-17
)
;
    }
    wedge2
    {
        type            wedge;
        value           nonuniform List<scalar> 
344
(
1.26902e-17
7.84387e-18
1.24695e-16
-2.32071e-17
-3.86028e-17
4.6322e-17
1.32551e-17
7.96202e-18
1.23114e-16
-2.30721e-17
-3.8019e-17
4.5532e-17
1.32138e-17
9.47345e-18
1.21661e-16
-2.21902e-17
-3.72029e-17
4.46415e-17
1.29713e-17
8.79744e-18
1.19765e-16
-2.1359e-17
-3.66286e-17
4.39574e-17
1.24511e-17
8.17675e-18
1.18084e-16
-2.12581e-17
-3.59075e-17
4.3131e-17
1.24885e-17
8.05345e-18
1.16336e-16
-2.05216e-17
-3.52812e-17
4.25082e-17
1.23369e-17
8.64743e-18
1.1478e-16
-2.03776e-17
-3.45436e-17
4.19943e-17
1.21124e-17
8.242e-18
1.12973e-16
-1.96703e-17
-3.39974e-17
4.13378e-17
1.17048e-17
7.81404e-18
1.11353e-16
-1.95775e-17
-3.33209e-17
4.05487e-17
1.18669e-17
7.71091e-18
1.09679e-16
-1.88779e-17
-3.27578e-17
1.16232e-17
8.26784e-18
1.08256e-16
-1.88195e-17
-3.21113e-17
1.13891e-17
7.87985e-18
1.06486e-16
-1.81968e-17
-3.16762e-17
1.11607e-17
7.48364e-18
1.04997e-16
-1.82231e-17
-3.1073e-17
1.11107e-17
6.97993e-18
1.03209e-16
-1.75556e-17
-3.06538e-17
1.10481e-17
7.77831e-18
1.01951e-16
-1.73371e-17
-3.00209e-17
1.10132e-17
8.21279e-18
1.00937e-16
-1.68104e-17
-2.92354e-17
1.07841e-17
7.72042e-18
9.91976e-17
-1.67371e-17
-2.88865e-17
1.04357e-17
7.24877e-18
9.74018e-17
-1.67433e-17
-2.8552e-17
1.01394e-17
6.91971e-18
9.5704e-17
-1.66947e-17
-2.82335e-17
9.98417e-18
6.58735e-18
9.40896e-17
-1.66012e-17
-2.79603e-17
9.66397e-18
6.37215e-18
9.24412e-17
-1.65457e-17
-2.76122e-17
9.46381e-18
6.14114e-18
9.09645e-17
-1.64149e-17
-2.7259e-17
9.3046e-18
5.89341e-18
8.94745e-17
-1.62756e-17
-2.6955e-17
9.11421e-18
5.59316e-18
8.78776e-17
-1.61999e-17
-2.66757e-17
8.85701e-18
5.36248e-18
8.64329e-17
-1.61312e-17
-2.63433e-17
8.42769e-18
4.66937e-18
8.48655e-17
-1.61126e-17
-2.60682e-17
8.83911e-18
4.69961e-18
8.38513e-17
-1.61532e-17
-2.57286e-17
8.65592e-18
6.16909e-18
8.29757e-17
-1.54769e-17
-2.51949e-17
8.65198e-18
5.69935e-18
8.16627e-17
-1.48139e-17
-2.48834e-17
8.25888e-18
5.1766e-18
8.05305e-17
-1.48282e-17
-2.43877e-17
8.40809e-18
4.89739e-18
7.93596e-17
-1.42237e-17
-2.39994e-17
8.16135e-18
5.46481e-18
7.8441e-17
-1.42041e-17
-2.34598e-17
7.8454e-18
4.91767e-18
7.7038e-17
-1.36266e-17
-2.31687e-17
8.16473e-18
4.84244e-18
7.60977e-17
-1.38639e-17
-2.26292e-17
7.85102e-18
5.26933e-18
7.5078e-17
-1.32135e-17
-2.21409e-17
7.95747e-18
5.07283e-18
7.44501e-17
-1.25892e-17
-2.15916e-17
7.67713e-18
5.4525e-18
7.34631e-17
-1.21575e-17
-2.11505e-17
7.91098e-18
5.22189e-18
7.26537e-17
-1.17052e-17
-2.06267e-17
7.57715e-18
5.63406e-18
7.16982e-17
-1.12994e-17
-2.01592e-17
8.02328e-18
5.40341e-18
7.09794e-17
-1.09089e-17
-1.96139e-17
7.60243e-18
5.59388e-18
6.99713e-17
-1.06189e-17
-1.91921e-17
7.5207e-18
5.26378e-18
6.91767e-17
-1.02359e-17
-1.87123e-17
7.34802e-18
5.5539e-18
6.82111e-17
-9.93405e-18
-1.83504e-17
7.4702e-18
5.4084e-18
6.74321e-17
-9.68039e-18
-1.79371e-17
7.2353e-18
5.70564e-18
6.6597e-17
-9.28799e-18
-1.7498e-17
7.29076e-18
5.07397e-18
6.56634e-17
-9.00321e-18
-1.72455e-17
7.44947e-18
5.77906e-18
6.48629e-17
-9.14209e-18
-1.68469e-17
7.23958e-18
5.89322e-18
6.38999e-17
-8.8435e-18
-1.65694e-17
7.05572e-18
5.52922e-18
6.32192e-17
-8.44854e-18
-1.61163e-17
6.81518e-18
5.54832e-18
6.2328e-17
-8.12806e-18
-1.57421e-17
6.87663e-18
5.33815e-18
6.16763e-17
-7.85312e-18
-1.53459e-17
6.71759e-18
5.58219e-18
6.07473e-17
-7.64468e-18
-1.50599e-17
6.90701e-18
5.31985e-18
6.00949e-17
-7.3535e-18
-1.46073e-17
6.60891e-18
5.52981e-18
5.92058e-17
-7.13416e-18
-1.43172e-17
6.56565e-18
5.17805e-18
5.85216e-17
-6.94854e-18
-1.39643e-17
6.33286e-18
5.39076e-18
5.76307e-17
-6.81773e-18
-1.37728e-17
6.47549e-18
5.10289e-18
5.69452e-17
-6.63961e-18
-1.34426e-17
6.21902e-18
5.17087e-18
5.61081e-17
-6.41056e-18
-1.31833e-17
6.20036e-18
4.91441e-18
5.5453e-17
-6.19337e-18
-1.28151e-17
5.96946e-18
5.15297e-18
5.45773e-17
-6.06931e-18
-1.25861e-17
6.10974e-18
4.95057e-18
5.39987e-17
-5.82929e-18
-1.22748e-17
5.95655e-18
5.08026e-18
5.32401e-17
-5.64664e-18
-1.2054e-17
6.00341e-18
4.74272e-18
5.26922e-17
-5.4778e-18
-1.17081e-17
5.67588e-18
5.06263e-18
5.19262e-17
-5.36984e-18
-1.15364e-17
5.81104e-18
4.83252e-18
5.13458e-17
-5.22621e-18
-1.12797e-17
5.5888e-18
4.974e-18
5.05348e-17
-5.08235e-18
-1.11092e-17
5.70625e-18
4.69046e-18
4.99929e-17
-4.95229e-18
-1.08139e-17
)
;
    }
    axis
    {
        type            empty;
        value           nonuniform 0();
    }
    procBoundary1to0
    {
        type            processor;
        value           nonuniform List<scalar> 5(-1.72914e-05 -5.18782e-05 -8.64719e-05 -0.000121054 -0.000155567);
    }
    procBoundary1to2
    {
        type            processor;
        value           nonuniform List<scalar> 5(1.98779e-05 5.95341e-05 9.88528e-05 0.000137585 0.000175453);
    }
    procBoundary1to6
    {
        type            processor;
        value           uniform -0.000189901;
    }
    procBoundary1to7
    {
        type            processor;
        value           nonuniform List<scalar> 
68
(
-1.22251e-06
-1.20295e-06
-1.18375e-06
-1.1649e-06
-1.1464e-06
-1.12824e-06
-1.11042e-06
-1.09291e-06
-1.07572e-06
-1.05884e-06
-1.04227e-06
-1.02598e-06
-1.00999e-06
-9.94279e-07
-9.78845e-07
-9.63681e-07
-9.48783e-07
-9.34145e-07
-9.19762e-07
-9.05627e-07
-8.91737e-07
-8.78087e-07
-8.64671e-07
-8.51485e-07
-8.38525e-07
-8.25787e-07
-8.13265e-07
-8.00955e-07
-7.88855e-07
-7.76959e-07
-7.65264e-07
-7.53765e-07
-7.4246e-07
-7.31345e-07
-7.20416e-07
-7.0967e-07
-6.99103e-07
-6.88713e-07
-6.78496e-07
-6.68449e-07
-6.58569e-07
-6.48854e-07
-6.39301e-07
-6.29907e-07
-6.2067e-07
-6.11588e-07
-6.02658e-07
-5.9388e-07
-5.8525e-07
-5.76768e-07
-5.68432e-07
-5.60242e-07
-5.52197e-07
-5.44297e-07
-5.36541e-07
-5.28932e-07
-5.21469e-07
-5.14156e-07
-1.97447e-06
-1.94055e-06
-1.90738e-06
-1.87492e-06
-1.84315e-06
-1.81205e-06
-1.7816e-06
-1.75178e-06
0.000194561
-1.72257e-06
)
;
    }
}


// ************************************************************************* //
