/*--------------------------------*- C++ -*----------------------------------*\
  =========                 |
  \\      /  F ield         | OpenFOAM: The Open Source CFD Toolbox
   \\    /   O peration     | Website:  https://openfoam.org
    \\  /    A nd           | Version:  7
     \\/     M anipulation  |
\*---------------------------------------------------------------------------*/
FoamFile
{
    version     2.0;
    format      ascii;
    class       volScalarField;
    location    "2.6";
    object      T;
}
// * * * * * * * * * * * * * * * * * * * * * * * * * * * * * * * * * * * * * //

dimensions      [0 0 0 1 0 0 0];

internalField   nonuniform List<scalar> 
12096
(
1.19353
1.18725
1.18578
1.18534
1.18506
1.18486
1.18476
1.18491
1.18685
1.19109
1.19354
1.1939
1.19407
1.194
1.19377
1.19341
1.19283
1.19185
1.19063
1.18954
1.18877
1.18814
1.18753
1.18686
1.18611
1.18537
1.18475
1.18418
1.18328
1.18131
1.17689
1.17178
1.16982
1.16928
1.1688
1.16824
1.16764
1.16698
1.16648
1.16644
1.16765
1.17148
1.17404
1.17392
1.17359
1.1733
1.17292
1.1723
1.17147
1.17067
1.17001
1.16939
1.16846
1.16669
1.16372
1.16093
1.15944
1.15879
1.15819
1.15755
1.15695
1.15623
1.15431
1.15111
1.14936
1.14892
1.14858
1.14816
1.14774
1.14736
1.14715
1.14746
1.14922
1.15086
1.15079
1.15029
1.14973
1.14904
1.14822
1.14786
1.14789
1.14799
1.14831
1.14879
1.1491
1.14918
1.14919
1.14902
1.14787
1.14434
1.13769
1.1328
1.13134
1.13042
1.12937
1.12829
1.12742
1.12697
1.12695
1.12696
1.12701
1.1272
1.12852
1.13239
1.13565
1.13613
1.13626
1.13658
1.137
1.13796
1.14375
1.16297
1.22293
1.30933
1.39904
1.4529
1.48577
1.5071
1.51172
1.51066
1.50812
1.50581
1.50445
1.50476
1.50606
1.50808
1.51006
1.51176
1.51244
1.51194
1.5107
1.50918
1.50785
1.50696
1.50638
1.50649
1.50828
1.51279
1.51712
1.51817
1.51815
1.51771
1.51521
1.50839
1.49659
1.48752
1.48521
1.48491
1.48487
1.48549
1.48727
1.48998
1.49498
1.50174
1.50508
1.50516
1.50514
1.50483
1.50343
1.50039
1.49704
1.49565
1.49514
1.49482
1.49467
1.4949
1.49656
1.49905
1.4995
1.49915
1.4984
1.49715
1.49506
1.49149
1.48661
1.48355
1.48356
1.48392
1.48405
1.48412
1.48399
1.48364
1.48339
1.48317
1.48293
1.48284
1.48343
1.48441
1.48485
1.48495
1.48523
1.4866
1.48987
1.49283
1.49328
1.49349
1.49369
1.49286
1.48957
1.48429
1.47885
1.47517
1.47366
1.47313
1.47273
1.47265
1.47291
1.47338
1.47336
1.47246
1.47155
1.471
1.47077
1.4709
1.47256
1.47779
1.48666
1.49381
1.49562
1.49571
1.49538
1.49317
1.4873
1.47518
1.45901
1.44958
1.44718
1.44674
1.44716
1.45055
1.46066
1.47518
1.48369
1.48551
1.48589
1.48586
1.48416
1.47779
1.46816
1.46268
1.46113
1.46042
1.46017
1.46103
1.46549
1.47553
1.48361
1.48485
1.48447
1.48359
1.48162
1.47278
1.19781
1.1894
1.18665
1.18612
1.1858
1.18552
1.18532
1.18525
1.18583
1.18877
1.1921
1.19319
1.19333
1.19337
1.19349
1.19345
1.1932
1.19276
1.19207
1.19095
1.18979
1.18901
1.18841
1.1878
1.18712
1.18644
1.18568
1.1846
1.18298
1.18066
1.17748
1.17352
1.17135
1.17058
1.16995
1.16919
1.16841
1.16772
1.16712
1.1668
1.16696
1.16874
1.17287
1.17489
1.17469
1.17435
1.17399
1.17345
1.1727
1.17181
1.17091
1.17012
1.16942
1.16824
1.16589
1.16258
1.15995
1.1587
1.15816
1.15763
1.1569
1.15582
1.15429
1.15203
1.15023
1.14963
1.14923
1.14875
1.14822
1.14783
1.1476
1.14767
1.14895
1.15135
1.15183
1.15143
1.15088
1.15016
1.14906
1.14807
1.14787
1.148
1.14827
1.1487
1.14906
1.14926
1.14933
1.14929
1.14875
1.14597
1.13963
1.13406
1.13219
1.13122
1.13011
1.12896
1.12813
1.12765
1.12748
1.12749
1.12751
1.12769
1.12816
1.13022
1.13431
1.13689
1.1369
1.13692
1.13702
1.13716
1.13723
1.13766
1.14216
1.16189
1.21512
1.30648
1.38973
1.45033
1.4745
1.49552
1.50621
1.50701
1.50623
1.50649
1.50553
1.50542
1.50642
1.50871
1.51099
1.51187
1.5113
1.50981
1.50794
1.50666
1.50613
1.50583
1.50609
1.50777
1.51169
1.51561
1.51641
1.51632
1.51558
1.51228
1.50391
1.49203
1.48593
1.48487
1.48482
1.48502
1.48537
1.48671
1.48998
1.49567
1.50174
1.50383
1.50375
1.50356
1.50264
1.50056
1.49716
1.49381
1.4923
1.49165
1.49129
1.49124
1.49226
1.49532
1.49816
1.49848
1.49835
1.49792
1.49681
1.49434
1.48976
1.48477
1.48228
1.48159
1.48122
1.48062
1.47967
1.47915
1.47911
1.47924
1.47982
1.48081
1.48218
1.48363
1.48475
1.4855
1.4866
1.48861
1.49066
1.49169
1.49212
1.49238
1.49229
1.49098
1.4866
1.47881
1.47268
1.47084
1.47042
1.47015
1.46992
1.46969
1.46955
1.46964
1.4704
1.47115
1.47115
1.47084
1.47085
1.47216
1.47737
1.48637
1.49273
1.49433
1.49478
1.49493
1.49432
1.49031
1.47824
1.46026
1.45048
1.44764
1.44653
1.44633
1.44733
1.45398
1.46884
1.47938
1.48206
1.48287
1.48352
1.48363
1.48108
1.47224
1.46392
1.46118
1.46022
1.45979
1.45972
1.46134
1.46806
1.4774
1.48144
1.48237
1.48234
1.48182
1.47978
1.46839
1.20148
1.19286
1.18808
1.18725
1.18683
1.18647
1.18621
1.18606
1.18628
1.18821
1.19159
1.19304
1.19303
1.19298
1.1931
1.19347
1.19352
1.19345
1.19316
1.1924
1.19122
1.19047
1.18996
1.18945
1.18884
1.18807
1.18704
1.18566
1.1837
1.18074
1.17693
1.17404
1.17277
1.17208
1.17129
1.17027
1.1693
1.16855
1.16793
1.16741
1.16716
1.16756
1.17019
1.17408
1.17499
1.17474
1.1745
1.17429
1.1739
1.17316
1.17219
1.17116
1.16998
1.16867
1.16701
1.16435
1.16119
1.15933
1.15844
1.15769
1.15684
1.15585
1.15455
1.15259
1.15035
1.14912
1.14871
1.14834
1.14803
1.14778
1.14762
1.14764
1.14874
1.15143
1.1527
1.15247
1.15202
1.15152
1.15059
1.14916
1.14832
1.14836
1.14875
1.14929
1.14964
1.1497
1.14965
1.14936
1.14844
1.14602
1.14089
1.13542
1.13326
1.13223
1.13119
1.13016
1.12936
1.12878
1.12844
1.12835
1.12836
1.12843
1.12866
1.12943
1.13225
1.13621
1.13795
1.13797
1.13781
1.13764
1.13742
1.1372
1.1369
1.1364
1.13983
1.16145
1.20848
1.29334
1.37262
1.44374
1.46808
1.48389
1.50043
1.50613
1.50558
1.50673
1.50827
1.50836
1.50873
1.50993
1.5108
1.51047
1.50904
1.50762
1.50646
1.50581
1.50541
1.50538
1.50667
1.51044
1.51449
1.51557
1.51563
1.51485
1.51076
1.5008
1.48954
1.48506
1.48432
1.48388
1.48384
1.48433
1.48594
1.48944
1.49517
1.50071
1.50224
1.50202
1.50154
1.50015
1.49748
1.49353
1.49051
1.48906
1.48846
1.48817
1.48854
1.49139
1.49605
1.4986
1.49931
1.49937
1.49908
1.49754
1.49294
1.48559
1.48038
1.4785
1.47728
1.47593
1.47499
1.47478
1.47483
1.47546
1.47682
1.47879
1.48116
1.48353
1.48566
1.48753
1.48901
1.48992
1.48993
1.48967
1.48958
1.48953
1.4892
1.48736
1.48215
1.47483
1.47003
1.46825
1.46757
1.46711
1.46675
1.46647
1.46613
1.46607
1.46642
1.46741
1.46889
1.47027
1.47237
1.47773
1.486
1.4905
1.49166
1.4923
1.49293
1.49314
1.49185
1.48368
1.46549
1.45229
1.4487
1.44751
1.44713
1.44746
1.45096
1.46039
1.47022
1.47573
1.47798
1.47851
1.47888
1.47845
1.47467
1.46786
1.46327
1.46139
1.4607
1.46029
1.46056
1.46326
1.46946
1.47562
1.4785
1.47886
1.47842
1.47709
1.47376
1.46233
1.20423
1.19709
1.19061
1.18893
1.18838
1.18795
1.18758
1.18733
1.18732
1.18855
1.19153
1.19298
1.19286
1.19268
1.19256
1.19248
1.19245
1.19247
1.1927
1.1928
1.19268
1.19227
1.19175
1.19134
1.19096
1.19034
1.18923
1.18758
1.18533
1.18183
1.17708
1.17362
1.1727
1.17233
1.1719
1.17128
1.1704
1.16942
1.16867
1.16808
1.16762
1.16756
1.16877
1.17277
1.17572
1.17574
1.17541
1.17509
1.1748
1.17434
1.17348
1.1722
1.17081
1.16958
1.16823
1.16614
1.1631
1.16
1.15827
1.15738
1.15665
1.15593
1.15511
1.15368
1.15139
1.14954
1.14893
1.14865
1.14836
1.14811
1.14795
1.14796
1.14887
1.15163
1.15375
1.15371
1.15333
1.15301
1.15253
1.15149
1.14986
1.14862
1.14873
1.14923
1.14972
1.14994
1.14995
1.14979
1.14898
1.14654
1.1413
1.13568
1.13348
1.1326
1.13179
1.13102
1.13049
1.1301
1.12966
1.12946
1.12946
1.1295
1.12968
1.1302
1.13177
1.13508
1.13841
1.13932
1.13935
1.13909
1.13853
1.13778
1.13728
1.13664
1.13581
1.13441
1.13601
1.15152
1.19304
1.27154
1.3603
1.42863
1.47809
1.48393
1.49031
1.49967
1.50588
1.50685
1.50913
1.51124
1.51201
1.5118
1.51016
1.50884
1.50763
1.50619
1.5051
1.5045
1.5045
1.50571
1.51006
1.51524
1.51604
1.51589
1.51444
1.50868
1.49687
1.48608
1.48264
1.48211
1.482
1.48214
1.48292
1.48482
1.48844
1.49412
1.49927
1.50043
1.50006
1.49928
1.4976
1.49463
1.49077
1.48838
1.48753
1.48711
1.48726
1.48947
1.49552
1.49989
1.50122
1.5018
1.50183
1.50065
1.49524
1.48518
1.47747
1.4745
1.47303
1.47191
1.47119
1.47089
1.47087
1.47137
1.473
1.47619
1.48083
1.48556
1.48844
1.48927
1.48934
1.48914
1.48868
1.4882
1.48759
1.4867
1.48523
1.48248
1.47816
1.47293
1.46848
1.46637
1.46561
1.46513
1.46466
1.46422
1.46391
1.46367
1.46368
1.46453
1.46676
1.47076
1.47782
1.48573
1.48863
1.48887
1.48907
1.48964
1.49011
1.48974
1.48539
1.47243
1.4581
1.45139
1.44927
1.44887
1.44916
1.45181
1.45827
1.46367
1.46633
1.46923
1.47198
1.47247
1.47206
1.47035
1.46771
1.46553
1.46343
1.4621
1.46167
1.46187
1.46349
1.46663
1.46963
1.47187
1.47365
1.47386
1.47273
1.46959
1.4644
1.45634
1.20561
1.20051
1.19368
1.19086
1.19024
1.18978
1.18934
1.18898
1.18883
1.18953
1.19211
1.19362
1.19348
1.19317
1.19287
1.19261
1.19242
1.19234
1.19234
1.19254
1.19318
1.19358
1.19351
1.1933
1.19307
1.19274
1.19208
1.19079
1.18821
1.18329
1.17706
1.1742
1.17365
1.17328
1.17284
1.17221
1.17142
1.17055
1.16964
1.16894
1.16843
1.16817
1.16853
1.1709
1.17541
1.17698
1.17671
1.17636
1.17612
1.17577
1.17505
1.17383
1.17226
1.17064
1.16915
1.16743
1.16444
1.16041
1.15798
1.15732
1.15691
1.15628
1.15532
1.15406
1.15236
1.15058
1.14953
1.1492
1.14896
1.1487
1.1485
1.14841
1.14886
1.1513
1.15478
1.15553
1.15529
1.15505
1.15475
1.15402
1.15224
1.15007
1.14908
1.1493
1.14992
1.15034
1.1504
1.15023
1.14925
1.14665
1.14174
1.13625
1.13385
1.13307
1.13248
1.13202
1.13172
1.13153
1.13125
1.13099
1.1309
1.13089
1.13097
1.13122
1.13183
1.13409
1.13743
1.13923
1.13959
1.13961
1.13938
1.1387
1.13794
1.1371
1.13635
1.13495
1.13248
1.12615
1.12397
1.13496
1.1856
1.2613
1.35378
1.42052
1.47857
1.49045
1.49075
1.49634
1.50331
1.50876
1.51116
1.51193
1.51187
1.51125
1.51008
1.50841
1.50628
1.50476
1.50452
1.50504
1.50674
1.51067
1.51539
1.51665
1.51619
1.51331
1.50512
1.49181
1.4825
1.48014
1.47969
1.4796
1.47966
1.48023
1.48229
1.48639
1.49266
1.49758
1.49824
1.49785
1.49705
1.49535
1.49243
1.48943
1.48782
1.48722
1.48733
1.48932
1.49398
1.49963
1.50205
1.50207
1.50185
1.50053
1.4953
1.4837
1.47377
1.47066
1.46973
1.46905
1.46835
1.46786
1.46777
1.46802
1.46978
1.47497
1.48307
1.48828
1.4889
1.48864
1.48824
1.48783
1.48744
1.48683
1.48561
1.48358
1.48088
1.47797
1.47489
1.47113
1.4674
1.46505
1.46438
1.46414
1.4639
1.46359
1.46335
1.46303
1.46293
1.46361
1.46677
1.47465
1.48379
1.48672
1.48662
1.48625
1.48636
1.48656
1.48602
1.48214
1.47265
1.4634
1.45798
1.45422
1.45259
1.4527
1.45461
1.45875
1.46141
1.46183
1.46202
1.46233
1.46348
1.46495
1.46465
1.46431
1.46399
1.46391
1.46416
1.46393
1.46383
1.46486
1.46699
1.46822
1.46816
1.46768
1.46747
1.46661
1.46425
1.46029
1.45664
1.45339
1.20587
1.20277
1.19696
1.19288
1.19196
1.19154
1.19114
1.19079
1.19063
1.19112
1.19316
1.19458
1.1944
1.19406
1.19372
1.19323
1.19298
1.19291
1.19288
1.19293
1.19326
1.19422
1.19483
1.19473
1.19473
1.1948
1.19472
1.19406
1.19146
1.18497
1.17762
1.17539
1.17493
1.17446
1.17391
1.17355
1.17294
1.17213
1.17125
1.1703
1.1696
1.16908
1.16897
1.16997
1.174
1.1786
1.17921
1.17888
1.17843
1.17786
1.17709
1.17585
1.17408
1.17205
1.16998
1.16772
1.16501
1.16142
1.15837
1.15736
1.157
1.15657
1.15584
1.15489
1.15378
1.15238
1.15097
1.14988
1.14952
1.14924
1.14901
1.14886
1.14897
1.15068
1.15491
1.15728
1.15725
1.1571
1.15702
1.15676
1.15582
1.15344
1.15071
1.14977
1.14995
1.15029
1.15034
1.15011
1.14918
1.1469
1.14239
1.13655
1.13332
1.13233
1.13171
1.13141
1.13139
1.13149
1.13178
1.13203
1.13223
1.13228
1.13228
1.13234
1.1327
1.13443
1.13738
1.13963
1.14043
1.14062
1.14041
1.13972
1.13888
1.13816
1.13748
1.13638
1.1339
1.12812
1.11913
1.11556
1.11839
1.13168
1.17762
1.25916
1.35803
1.41943
1.46223
1.49809
1.49827
1.50118
1.50531
1.50786
1.5096
1.51162
1.51201
1.51138
1.50982
1.50767
1.50551
1.50398
1.50393
1.50565
1.51096
1.51487
1.51505
1.51406
1.5098
1.49986
1.48718
1.48011
1.47806
1.47744
1.47741
1.47768
1.47872
1.48103
1.48541
1.49163
1.49629
1.4969
1.49645
1.49547
1.49377
1.49137
1.4893
1.48845
1.48873
1.49052
1.4936
1.49671
1.49924
1.50026
1.50032
1.49959
1.49488
1.48365
1.47253
1.4688
1.46779
1.46721
1.46661
1.46611
1.46598
1.46617
1.4677
1.47261
1.48154
1.48725
1.48754
1.48693
1.48647
1.48617
1.48581
1.48498
1.48318
1.48069
1.47829
1.47592
1.47312
1.46963
1.46547
1.46271
1.46218
1.46232
1.46291
1.46342
1.46356
1.46354
1.46374
1.46506
1.4695
1.47705
1.48248
1.48406
1.48382
1.48337
1.48304
1.482
1.47786
1.46947
1.46316
1.4609
1.46023
1.45978
1.45943
1.45997
1.46054
1.46029
1.45922
1.45758
1.45563
1.45461
1.45466
1.45632
1.45933
1.46175
1.46269
1.46416
1.46568
1.46665
1.46738
1.46761
1.4675
1.46686
1.46547
1.46348
1.46063
1.45768
1.45564
1.45447
1.45351
1.45222
1.20582
1.20411
1.20003
1.19547
1.19382
1.19335
1.19298
1.19269
1.19253
1.19276
1.19431
1.19576
1.19564
1.19538
1.19521
1.19484
1.19407
1.19379
1.1938
1.19386
1.19408
1.19481
1.19635
1.19748
1.19764
1.19774
1.19772
1.19723
1.19465
1.18747
1.17936
1.17701
1.17652
1.17595
1.17525
1.17493
1.17488
1.17424
1.1732
1.17205
1.17105
1.17045
1.17016
1.17053
1.17279
1.17752
1.18052
1.18052
1.18006
1.17956
1.17894
1.17795
1.17632
1.17404
1.17156
1.16921
1.16664
1.16319
1.15926
1.15724
1.15678
1.15661
1.15629
1.15553
1.15456
1.15364
1.15252
1.15121
1.15028
1.14999
1.14974
1.14955
1.14948
1.15029
1.15404
1.15867
1.15937
1.1593
1.15945
1.15954
1.1593
1.15772
1.15394
1.15074
1.15002
1.15006
1.15022
1.14999
1.14903
1.14715
1.14335
1.13767
1.13402
1.13287
1.13228
1.13203
1.13199
1.13199
1.132
1.13222
1.13289
1.13355
1.13376
1.13386
1.13401
1.13511
1.13753
1.13954
1.14024
1.14035
1.14007
1.13932
1.13856
1.13796
1.13742
1.13664
1.1349
1.13039
1.12136
1.11505
1.11461
1.11493
1.11781
1.13331
1.17391
1.2592
1.34521
1.42763
1.45762
1.48428
1.50668
1.50861
1.5084
1.51101
1.51261
1.5127
1.51206
1.51032
1.50716
1.50439
1.50378
1.50403
1.50645
1.51111
1.51311
1.51291
1.51086
1.50483
1.49463
1.48369
1.47759
1.4757
1.47525
1.47526
1.47542
1.47635
1.4792
1.4848
1.49197
1.49586
1.49606
1.49558
1.49476
1.49391
1.4928
1.49168
1.49174
1.49207
1.49241
1.4934
1.4953
1.4966
1.49683
1.49642
1.49298
1.48441
1.47406
1.4685
1.46697
1.46627
1.4658
1.46558
1.4655
1.46576
1.4672
1.47052
1.47651
1.48324
1.48556
1.48525
1.48475
1.48439
1.48398
1.48319
1.4818
1.47979
1.47749
1.47513
1.47239
1.46843
1.46344
1.46108
1.46101
1.46134
1.4619
1.46254
1.46313
1.464
1.46565
1.4688
1.47312
1.47655
1.47893
1.48022
1.48018
1.47934
1.47762
1.4733
1.46638
1.46243
1.46157
1.46186
1.46461
1.46725
1.46761
1.46621
1.46239
1.45778
1.45363
1.4498
1.4473
1.44669
1.44717
1.45
1.45578
1.46091
1.46407
1.46664
1.46827
1.46883
1.46894
1.46823
1.46613
1.46358
1.46055
1.45654
1.45234
1.45019
1.44973
1.4503
1.45166
1.45241
1.20575
1.20458
1.20225
1.19831
1.19584
1.19514
1.19475
1.19441
1.19419
1.19436
1.19591
1.19717
1.19697
1.19675
1.19667
1.19649
1.19585
1.19509
1.19514
1.19542
1.1958
1.19652
1.19791
1.19898
1.19919
1.1994
1.19949
1.19927
1.19729
1.19071
1.18205
1.17898
1.17834
1.17769
1.17691
1.17646
1.17657
1.17661
1.17579
1.17449
1.17334
1.17266
1.1724
1.17242
1.1732
1.1762
1.1811
1.18282
1.18244
1.18182
1.18114
1.18016
1.1786
1.17642
1.174
1.17171
1.16926
1.16568
1.16059
1.15712
1.1562
1.15597
1.15613
1.15649
1.1562
1.15536
1.1543
1.153
1.15165
1.15089
1.15066
1.15047
1.15038
1.1506
1.15296
1.15862
1.16186
1.16185
1.16204
1.16235
1.16238
1.16177
1.15895
1.15385
1.15077
1.15011
1.14992
1.14949
1.14838
1.14667
1.14402
1.13948
1.13535
1.13373
1.13313
1.1328
1.13262
1.13249
1.1324
1.13239
1.13247
1.13306
1.13387
1.13443
1.1349
1.13598
1.13826
1.14037
1.1412
1.14131
1.14093
1.1401
1.13935
1.13876
1.1382
1.1375
1.13624
1.13258
1.1241
1.11627
1.11474
1.1148
1.11505
1.11579
1.11835
1.13366
1.17319
1.25024
1.34508
1.41927
1.46318
1.47989
1.50057
1.5136
1.51525
1.51572
1.51499
1.51373
1.51114
1.50713
1.50444
1.50406
1.50435
1.50597
1.50902
1.50994
1.50917
1.50629
1.49997
1.49042
1.4806
1.47467
1.47271
1.47229
1.47227
1.47271
1.47451
1.47868
1.48584
1.49294
1.49602
1.49653
1.49674
1.49713
1.4972
1.49648
1.49445
1.49211
1.49101
1.49104
1.49178
1.49243
1.49244
1.49191
1.48941
1.48399
1.47678
1.47042
1.46716
1.46622
1.46595
1.46579
1.46577
1.46609
1.46663
1.46774
1.47071
1.47633
1.48191
1.48335
1.48298
1.48248
1.48211
1.48165
1.48083
1.47953
1.47785
1.47585
1.47313
1.46876
1.46293
1.45908
1.45845
1.45874
1.45965
1.46098
1.46271
1.46507
1.46847
1.47213
1.47434
1.47509
1.47538
1.47538
1.47446
1.4724
1.46861
1.46405
1.46184
1.46142
1.46234
1.46685
1.47273
1.47409
1.47326
1.46902
1.46051
1.45121
1.44592
1.444
1.44336
1.44331
1.44403
1.44708
1.45441
1.46293
1.46692
1.46784
1.46834
1.46867
1.46848
1.46676
1.46285
1.45774
1.45284
1.44918
1.44743
1.44698
1.44694
1.44787
1.45088
1.45351
1.20585
1.20493
1.20351
1.20105
1.19846
1.19747
1.19703
1.19665
1.19636
1.19631
1.19753
1.19871
1.19849
1.19849
1.19863
1.19873
1.19866
1.19814
1.19777
1.19806
1.19874
1.19986
1.20154
1.20206
1.2022
1.20249
1.20257
1.20238
1.20063
1.19458
1.18565
1.1817
1.18081
1.18006
1.17923
1.17866
1.17868
1.1791
1.17908
1.17822
1.17677
1.17543
1.17479
1.1745
1.17458
1.17581
1.17966
1.18434
1.18514
1.18456
1.18376
1.18288
1.18166
1.17981
1.17738
1.1747
1.17162
1.16718
1.16115
1.15703
1.15602
1.1557
1.15571
1.15657
1.15749
1.15707
1.15604
1.15492
1.15357
1.15238
1.15191
1.15175
1.15166
1.15167
1.15279
1.15714
1.16302
1.16492
1.165
1.16515
1.16521
1.16504
1.16368
1.15928
1.15326
1.15033
1.14954
1.14887
1.1477
1.14613
1.14412
1.14103
1.13681
1.13456
1.13389
1.13353
1.13329
1.13309
1.13295
1.13292
1.13295
1.13313
1.13372
1.1346
1.13583
1.13758
1.13982
1.14214
1.14303
1.14286
1.14217
1.1413
1.14054
1.13991
1.13936
1.13875
1.13754
1.13422
1.12654
1.11821
1.11581
1.11569
1.11578
1.11614
1.11667
1.11745
1.12005
1.1318
1.17617
1.24518
1.33788
1.40928
1.4744
1.49078
1.49946
1.50804
1.51423
1.51515
1.51434
1.51165
1.50831
1.50455
1.50184
1.50142
1.50227
1.50507
1.50587
1.50477
1.50146
1.4953
1.48624
1.47736
1.4726
1.47066
1.47032
1.47036
1.47083
1.47331
1.47985
1.49
1.49678
1.49924
1.50048
1.50108
1.50082
1.49912
1.49664
1.49367
1.49059
1.4888
1.48841
1.4883
1.48793
1.48689
1.48492
1.48202
1.47804
1.47327
1.46887
1.46689
1.46654
1.46643
1.4664
1.46628
1.46599
1.46592
1.46672
1.46986
1.47546
1.48005
1.48092
1.48064
1.48034
1.48004
1.47947
1.4786
1.47757
1.47641
1.47449
1.47063
1.46433
1.45875
1.45747
1.45781
1.45879
1.46016
1.46263
1.4667
1.47016
1.47205
1.47272
1.47232
1.47086
1.46854
1.4657
1.46322
1.4617
1.46115
1.46106
1.46239
1.46728
1.47363
1.47519
1.475
1.47386
1.46861
1.45691
1.44631
1.44287
1.44209
1.44179
1.44174
1.44239
1.44552
1.45201
1.46011
1.46548
1.46659
1.46676
1.46696
1.46666
1.46405
1.45725
1.45035
1.4475
1.44635
1.44566
1.44532
1.44542
1.44671
1.45088
1.45573
1.20606
1.20525
1.20413
1.20231
1.20002
1.19881
1.19839
1.19812
1.19798
1.19798
1.19893
1.20064
1.20082
1.20104
1.20161
1.20225
1.20273
1.20277
1.20226
1.20217
1.20284
1.20409
1.20552
1.2058
1.20608
1.20644
1.20648
1.20627
1.20467
1.19924
1.19033
1.18534
1.18414
1.18334
1.1824
1.18156
1.18137
1.1819
1.18295
1.18262
1.18114
1.17927
1.17785
1.17726
1.17692
1.17704
1.17876
1.18351
1.18773
1.18804
1.18749
1.1867
1.18561
1.18399
1.18172
1.17879
1.17507
1.16991
1.16278
1.15745
1.15609
1.15566
1.15546
1.15582
1.15758
1.15885
1.15834
1.15721
1.15599
1.15462
1.15377
1.15366
1.15364
1.15368
1.15418
1.15652
1.16183
1.16667
1.16728
1.16723
1.1674
1.16743
1.167
1.16466
1.15881
1.15264
1.14979
1.14859
1.14741
1.14583
1.14383
1.1411
1.13753
1.13523
1.13463
1.13435
1.13411
1.1339
1.13377
1.13374
1.13374
1.13377
1.13393
1.13452
1.13593
1.1385
1.1416
1.14357
1.14431
1.14423
1.1436
1.14277
1.14205
1.14146
1.14106
1.14072
1.13995
1.13713
1.12981
1.12058
1.11744
1.11733
1.11739
1.11769
1.11799
1.11816
1.11838
1.11893
1.12196
1.13212
1.17161
1.24485
1.33407
1.41151
1.46362
1.50453
1.51309
1.51109
1.51205
1.5127
1.51129
1.50681
1.50242
1.50119
1.50119
1.50191
1.50328
1.50294
1.50071
1.49653
1.49041
1.4827
1.4749
1.47118
1.47023
1.46996
1.47002
1.47119
1.47607
1.48581
1.49644
1.50105
1.50189
1.50199
1.50167
1.50011
1.49798
1.49553
1.492
1.48783
1.48502
1.48349
1.48258
1.48183
1.48121
1.48042
1.47866
1.47564
1.47173
1.46841
1.46708
1.46672
1.46641
1.46599
1.46551
1.4651
1.46527
1.46673
1.47021
1.47478
1.47779
1.47851
1.47848
1.47833
1.47811
1.47783
1.47748
1.47695
1.47582
1.47311
1.46728
1.46011
1.45766
1.45776
1.45852
1.4602
1.46279
1.46533
1.46758
1.46864
1.46836
1.46644
1.46306
1.46007
1.45866
1.45853
1.4593
1.46026
1.46253
1.46749
1.47264
1.47391
1.47418
1.47424
1.4732
1.46836
1.45692
1.44535
1.44173
1.44121
1.44105
1.44122
1.4427
1.44554
1.44883
1.45402
1.46049
1.46397
1.46433
1.46448
1.46399
1.46025
1.453
1.4479
1.44561
1.44461
1.44412
1.4438
1.44414
1.44625
1.45224
1.45888
1.20646
1.20581
1.20498
1.20386
1.20229
1.2012
1.20085
1.2007
1.20069
1.20075
1.20117
1.20269
1.20415
1.20476
1.20563
1.20665
1.20749
1.20806
1.2081
1.20791
1.20824
1.2093
1.21019
1.21074
1.21119
1.21137
1.21136
1.21109
1.20951
1.20461
1.19602
1.19005
1.18841
1.18751
1.18643
1.18531
1.18479
1.18495
1.18607
1.18655
1.18586
1.18414
1.18214
1.18089
1.18035
1.18008
1.18044
1.18282
1.18773
1.19048
1.19045
1.18982
1.18886
1.18757
1.18585
1.1834
1.17983
1.17415
1.16576
1.15863
1.15648
1.15592
1.15554
1.1555
1.15649
1.1593
1.16066
1.16016
1.15914
1.15793
1.15671
1.15625
1.15626
1.15627
1.15639
1.15739
1.16101
1.1668
1.16973
1.16982
1.1699
1.1699
1.16963
1.16822
1.16457
1.15788
1.15175
1.14861
1.147
1.14564
1.14405
1.14183
1.1386
1.13618
1.13559
1.13534
1.1351
1.13486
1.13476
1.13476
1.13479
1.13489
1.13508
1.13553
1.13685
1.13978
1.14385
1.14579
1.14605
1.14605
1.14563
1.14495
1.14431
1.14387
1.14362
1.14331
1.14243
1.13966
1.13258
1.123
1.11952
1.11943
1.11953
1.11978
1.11985
1.11979
1.11978
1.11991
1.12031
1.12091
1.12337
1.1341
1.16476
1.24637
1.33532
1.42207
1.46514
1.50106
1.51599
1.51638
1.5141
1.50966
1.5057
1.50161
1.49894
1.49873
1.49932
1.49977
1.49912
1.49724
1.49348
1.48738
1.48017
1.47357
1.47099
1.4707
1.47074
1.47145
1.47449
1.48182
1.49242
1.49945
1.5013
1.50164
1.50144
1.50028
1.49855
1.4961
1.49292
1.48882
1.4842
1.48074
1.47885
1.4786
1.47859
1.47844
1.47817
1.47678
1.47342
1.4696
1.46733
1.46651
1.46593
1.46528
1.46458
1.46398
1.46382
1.46432
1.46631
1.47004
1.47347
1.47518
1.47609
1.47683
1.47709
1.47717
1.47723
1.47719
1.47684
1.47544
1.4712
1.46336
1.45875
1.45864
1.45913
1.4602
1.46139
1.46269
1.46324
1.46268
1.46046
1.45738
1.45561
1.45531
1.45572
1.45696
1.45882
1.46221
1.4673
1.47097
1.4717
1.47193
1.47215
1.47212
1.47096
1.46667
1.45837
1.44821
1.44229
1.44124
1.44126
1.44201
1.443
1.44373
1.44502
1.44768
1.45281
1.4589
1.46089
1.46071
1.45991
1.4573
1.45297
1.448
1.44467
1.44326
1.44276
1.44251
1.44316
1.44678
1.45597
1.46287
1.20687
1.20654
1.20608
1.20539
1.20446
1.20397
1.20394
1.20394
1.20408
1.20446
1.2052
1.20645
1.20847
1.20967
1.21072
1.21198
1.21327
1.21429
1.21508
1.21543
1.21555
1.21581
1.21646
1.21712
1.21745
1.2175
1.21746
1.21705
1.21536
1.2107
1.20241
1.19583
1.1937
1.1926
1.19134
1.18997
1.18907
1.18896
1.18983
1.19143
1.19133
1.18991
1.18797
1.18604
1.18496
1.18437
1.18403
1.18466
1.18801
1.19294
1.19446
1.19416
1.19335
1.19222
1.19063
1.1884
1.18503
1.17925
1.16981
1.16067
1.15743
1.15668
1.15619
1.15591
1.1562
1.15826
1.16178
1.16267
1.16229
1.16156
1.16031
1.1594
1.15935
1.15934
1.15939
1.15974
1.16161
1.16595
1.17009
1.17098
1.17096
1.17099
1.17089
1.17045
1.16841
1.1635
1.15605
1.15059
1.14794
1.14649
1.14506
1.14292
1.13969
1.13728
1.13665
1.13637
1.1361
1.13593
1.13591
1.13597
1.13618
1.13654
1.13694
1.13745
1.13858
1.14119
1.14542
1.14803
1.14838
1.14841
1.14821
1.14768
1.14709
1.1467
1.14649
1.14624
1.14551
1.1431
1.13643
1.12624
1.12202
1.12188
1.12194
1.12194
1.12184
1.12166
1.12171
1.12183
1.12192
1.1221
1.12239
1.12264
1.12375
1.13483
1.16729
1.24534
1.33982
1.43237
1.47657
1.49535
1.5103
1.51267
1.51163
1.50569
1.50082
1.49784
1.49566
1.49509
1.49511
1.49468
1.49309
1.49015
1.48513
1.47953
1.4747
1.47281
1.4727
1.47285
1.47432
1.47844
1.48656
1.4959
1.50009
1.50063
1.50045
1.49961
1.498
1.49601
1.49339
1.4896
1.48506
1.48099
1.4782
1.47622
1.47581
1.47589
1.47591
1.47524
1.47319
1.46994
1.46746
1.46629
1.46538
1.46455
1.46379
1.46304
1.46241
1.46249
1.46398
1.4676
1.47131
1.47284
1.4732
1.47382
1.47545
1.4765
1.47723
1.47735
1.47733
1.47696
1.47473
1.46813
1.46009
1.458
1.45813
1.45858
1.45923
1.45915
1.45785
1.45472
1.45167
1.45057
1.4507
1.45174
1.45398
1.45703
1.46167
1.4665
1.46852
1.469
1.4693
1.46965
1.46976
1.46938
1.46765
1.46439
1.45968
1.45339
1.44626
1.4419
1.44113
1.44094
1.44099
1.44124
1.44164
1.44252
1.44492
1.45011
1.45538
1.4561
1.45562
1.45474
1.45283
1.44975
1.44603
1.44326
1.44234
1.44219
1.44321
1.44828
1.45856
1.46271
1.20796
1.20739
1.20723
1.20686
1.20679
1.20705
1.20762
1.20814
1.20877
1.20972
1.211
1.21264
1.2147
1.21612
1.21727
1.21864
1.22018
1.22157
1.22289
1.22415
1.22477
1.22474
1.22464
1.22484
1.22499
1.22497
1.22483
1.22421
1.22228
1.2176
1.20939
1.20251
1.20009
1.19881
1.19736
1.19576
1.19444
1.19389
1.19413
1.19596
1.19729
1.1967
1.19497
1.19279
1.19085
1.18987
1.18927
1.18916
1.19046
1.19459
1.19814
1.19853
1.198
1.19684
1.19534
1.1934
1.19043
1.18487
1.17478
1.1638
1.15936
1.15832
1.15767
1.15717
1.15709
1.15808
1.16168
1.16512
1.16535
1.16503
1.16447
1.1633
1.16277
1.16271
1.16267
1.16268
1.16336
1.16654
1.17137
1.17314
1.173
1.1727
1.17235
1.17184
1.17082
1.16755
1.16129
1.1544
1.15046
1.14831
1.14659
1.14423
1.14097
1.13867
1.13805
1.13777
1.13753
1.13747
1.13752
1.13773
1.13819
1.1388
1.1394
1.14012
1.1414
1.14408
1.14827
1.15087
1.15131
1.15143
1.1513
1.15086
1.15038
1.15007
1.14991
1.1497
1.1491
1.14705
1.14097
1.13044
1.12501
1.12459
1.1245
1.12429
1.12393
1.12364
1.1237
1.12388
1.12401
1.12416
1.12415
1.1237
1.12319
1.12335
1.12508
1.1373
1.1791
1.25448
1.35428
1.42395
1.48788
1.50044
1.49935
1.50273
1.50226
1.49841
1.49648
1.49625
1.4957
1.49508
1.49358
1.49116
1.48822
1.48455
1.48041
1.47632
1.475
1.47498
1.47513
1.47665
1.48143
1.49013
1.49769
1.49931
1.49904
1.49837
1.4971
1.49536
1.49319
1.49026
1.48648
1.4825
1.47882
1.47609
1.47416
1.47355
1.47337
1.47287
1.47139
1.46906
1.46729
1.46598
1.46477
1.46398
1.46327
1.46251
1.46194
1.46205
1.46357
1.46719
1.47079
1.47227
1.47263
1.47296
1.47369
1.47631
1.47806
1.47819
1.47868
1.4789
1.4779
1.47286
1.46303
1.457
1.45628
1.45618
1.45568
1.45381
1.45012
1.44694
1.44581
1.44573
1.44627
1.44855
1.45319
1.46042
1.46547
1.46622
1.46629
1.46651
1.46682
1.4669
1.46672
1.46611
1.46511
1.46349
1.46155
1.45795
1.45102
1.44297
1.43915
1.43814
1.43759
1.43708
1.43678
1.43681
1.43777
1.4409
1.44679
1.45209
1.45282
1.45247
1.45206
1.45118
1.4488
1.44514
1.4431
1.44293
1.44439
1.44917
1.45614
1.45979
1.21067
1.20941
1.20878
1.20876
1.20915
1.21021
1.2119
1.21389
1.21531
1.21694
1.21885
1.22091
1.22308
1.22477
1.22599
1.2274
1.22898
1.2306
1.23224
1.23372
1.23477
1.23511
1.23492
1.23435
1.23401
1.2338
1.23344
1.23253
1.23032
1.22547
1.21714
1.21006
1.20747
1.20608
1.20448
1.20267
1.20105
1.19994
1.19968
1.20055
1.20314
1.20388
1.20293
1.20095
1.19863
1.19684
1.19586
1.19523
1.1953
1.19697
1.20084
1.20314
1.20321
1.20264
1.20138
1.19943
1.19652
1.19103
1.18053
1.16807
1.16238
1.16097
1.16014
1.15941
1.15899
1.15923
1.16154
1.16636
1.1685
1.16835
1.16798
1.16732
1.16656
1.16635
1.16622
1.16613
1.16634
1.16832
1.17267
1.17525
1.17517
1.17461
1.17398
1.1733
1.17232
1.17038
1.1659
1.15957
1.15429
1.15119
1.14877
1.14597
1.14268
1.14063
1.14011
1.13991
1.13977
1.13976
1.13991
1.14035
1.14102
1.14179
1.14257
1.14363
1.14524
1.14809
1.15222
1.15463
1.15491
1.1549
1.15484
1.15447
1.15404
1.15378
1.15364
1.15349
1.15312
1.15159
1.14615
1.1354
1.12839
1.12745
1.12718
1.12676
1.12616
1.12567
1.12563
1.12576
1.12604
1.12633
1.12643
1.12597
1.12518
1.12492
1.12531
1.12765
1.13448
1.14926
1.19219
1.25951
1.35683
1.42846
1.48183
1.50167
1.4988
1.49107
1.4934
1.4925
1.492
1.49264
1.49326
1.49324
1.49202
1.48938
1.48548
1.48097
1.47705
1.47596
1.47589
1.47592
1.47774
1.48398
1.49311
1.49769
1.49781
1.49717
1.49607
1.49455
1.49273
1.49049
1.48774
1.4843
1.4807
1.47721
1.47446
1.47248
1.47145
1.47036
1.46867
1.46714
1.46628
1.46545
1.46446
1.46364
1.46291
1.46218
1.46173
1.46183
1.46329
1.46693
1.47088
1.47274
1.47311
1.47322
1.47369
1.47497
1.47731
1.4794
1.47971
1.47973
1.47926
1.47597
1.46659
1.45669
1.45304
1.45156
1.44963
1.44664
1.44407
1.44287
1.4424
1.44239
1.44342
1.4472
1.45483
1.46225
1.46427
1.46401
1.464
1.46417
1.4644
1.46459
1.46458
1.46436
1.46395
1.46386
1.46319
1.46076
1.45427
1.44368
1.43636
1.43423
1.43338
1.4329
1.43279
1.4328
1.4332
1.43474
1.43852
1.44496
1.45046
1.4513
1.45126
1.45099
1.45001
1.44771
1.4454
1.44482
1.44601
1.44937
1.45297
1.45544
1.2151
1.21366
1.21199
1.21183
1.21264
1.21457
1.21709
1.2207
1.22434
1.22658
1.2289
1.23133
1.23377
1.23567
1.23707
1.23857
1.24018
1.24182
1.24339
1.24472
1.24567
1.24615
1.24617
1.24561
1.24468
1.24398
1.24322
1.24193
1.23941
1.23434
1.22587
1.21863
1.2159
1.21437
1.21266
1.21072
1.20891
1.20745
1.20668
1.20677
1.20863
1.21127
1.21148
1.21017
1.20789
1.20545
1.20369
1.20254
1.20198
1.20224
1.2045
1.20791
1.20869
1.20808
1.2063
1.20415
1.20144
1.19644
1.18628
1.17307
1.16627
1.16451
1.16351
1.16259
1.16189
1.16172
1.16276
1.167
1.17149
1.17209
1.1718
1.17133
1.17076
1.17047
1.17026
1.17006
1.17003
1.17099
1.17427
1.17735
1.17756
1.17687
1.17593
1.17499
1.17386
1.17223
1.16951
1.16484
1.15968
1.15544
1.1519
1.14825
1.14497
1.14352
1.14321
1.14312
1.1431
1.14314
1.14349
1.14416
1.14497
1.14578
1.14663
1.14793
1.14985
1.153
1.15727
1.15937
1.15928
1.15897
1.15875
1.15847
1.15814
1.15794
1.15783
1.15774
1.15752
1.15645
1.1519
1.141
1.13212
1.1304
1.12993
1.12932
1.12851
1.12774
1.1274
1.12748
1.12785
1.12849
1.12885
1.12877
1.12827
1.12795
1.12811
1.12975
1.13473
1.14109
1.14643
1.15693
1.19227
1.27008
1.36465
1.42984
1.46299
1.4937
1.4954
1.49085
1.48962
1.4889
1.48795
1.48918
1.49069
1.4905
1.48911
1.486
1.48183
1.47824
1.47732
1.47729
1.47772
1.48053
1.48715
1.49452
1.49688
1.49644
1.49537
1.49394
1.49222
1.49016
1.48792
1.48557
1.48257
1.47926
1.47592
1.4728
1.46988
1.46753
1.46616
1.46574
1.46539
1.46489
1.46429
1.46357
1.46283
1.46214
1.46183
1.46207
1.46393