/*--------------------------------*- C++ -*----------------------------------*\
  =========                 |
  \\      /  F ield         | OpenFOAM: The Open Source CFD Toolbox
   \\    /   O peration     | Website:  https://openfoam.org
    \\  /    A nd           | Version:  7
     \\/     M anipulation  |
\*---------------------------------------------------------------------------*/
FoamFile
{
    version     2.0;
    format      ascii;
    class       volVectorField;
    location    "2.6";
    object      U;
}
// * * * * * * * * * * * * * * * * * * * * * * * * * * * * * * * * * * * * * //

dimensions      [0 1 -1 0 0 0 0];

internalField   nonuniform List<vector> 
12096
(
(2.85335 -0.143595 0)
(2.84335 -0.140118 0)
(2.84329 -0.140468 0)
(2.84486 -0.141062 0)
(2.8468 -0.14151 0)
(2.84902 -0.141953 0)
(2.85119 -0.142515 0)
(2.85398 -0.143229 0)
(2.85994 -0.145904 0)
(2.86869 -0.150987 0)
(2.8751 -0.153372 0)
(2.8779 -0.153341 0)
(2.88009 -0.152814 0)
(2.88159 -0.152426 0)
(2.88381 -0.152141 0)
(2.88596 -0.151917 0)
(2.88783 -0.151685 0)
(2.88904 -0.150958 0)
(2.88938 -0.149796 0)
(2.88981 -0.148845 0)
(2.89094 -0.147962 0)
(2.89222 -0.147077 0)
(2.89334 -0.146423 0)
(2.8942 -0.146001 0)
(2.89483 -0.145421 0)
(2.89517 -0.144527 0)
(2.89522 -0.143807 0)
(2.89504 -0.143594 0)
(2.89401 -0.143842 0)
(2.89079 -0.14372 0)
(2.88305 -0.142131 0)
(2.87467 -0.139726 0)
(2.87421 -0.138935 0)
(2.87538 -0.138808 0)
(2.87625 -0.138649 0)
(2.87727 -0.138153 0)
(2.87851 -0.137658 0)
(2.87986 -0.137552 0)
(2.88102 -0.137458 0)
(2.88312 -0.137463 0)
(2.88781 -0.139078 0)
(2.8967 -0.143953 0)
(2.90412 -0.146765 0)
(2.9059 -0.146246 0)
(2.90796 -0.145264 0)
(2.90974 -0.144045 0)
(2.9112 -0.142749 0)
(2.91225 -0.141493 0)
(2.91287 -0.140371 0)
(2.91322 -0.139413 0)
(2.91339 -0.13882 0)
(2.91337 -0.138432 0)
(2.91285 -0.137706 0)
(2.91059 -0.135958 0)
(2.90559 -0.133061 0)
(2.90112 -0.131728 0)
(2.90006 -0.132893 0)
(2.9001 -0.134796 0)
(2.89997 -0.136549 0)
(2.90002 -0.137929 0)
(2.90017 -0.138882 0)
(2.89969 -0.139563 0)
(2.89735 -0.139673 0)
(2.89233 -0.138578 0)
(2.89062 -0.137776 0)
(2.89166 -0.137753 0)
(2.89284 -0.137831 0)
(2.8944 -0.138099 0)
(2.89607 -0.138583 0)
(2.89773 -0.139343 0)
(2.89948 -0.139952 0)
(2.90309 -0.140636 0)
(2.9091 -0.142204 0)
(2.91423 -0.142858 0)
(2.91561 -0.142682 0)
(2.91759 -0.141945 0)
(2.91936 -0.140672 0)
(2.91998 -0.138927 0)
(2.92006 -0.137337 0)
(2.9214 -0.136976 0)
(2.92306 -0.137338 0)
(2.92489 -0.137493 0)
(2.92652 -0.138006 0)
(2.92784 -0.139189 0)
(2.9289 -0.140533 0)
(2.92979 -0.14151 0)
(2.93046 -0.141993 0)
(2.93067 -0.141931 0)
(2.92924 -0.141125 0)
(2.92305 -0.13943 0)
(2.91077 -0.135764 0)
(2.90398 -0.133309 0)
(2.90465 -0.133079 0)
(2.90568 -0.133014 0)
(2.90678 -0.132714 0)
(2.90815 -0.132657 0)
(2.90959 -0.132874 0)
(2.91063 -0.13287 0)
(2.91212 -0.132713 0)
(2.91361 -0.132569 0)
(2.91541 -0.132466 0)
(2.91761 -0.132566 0)
(2.9227 -0.133969 0)
(2.93173 -0.139041 0)
(2.93944 -0.14353 0)
(2.94228 -0.144007 0)
(2.94428 -0.143937 0)
(2.94606 -0.143628 0)
(2.94806 -0.143208 0)
(2.9481 -0.140048 0)
(2.94317 -0.126898 0)
(2.92959 -0.0880259 0)
(2.87967 0.0245109 0)
(2.80762 0.189585 0)
(2.78323 0.306842 0)
(2.66159 0.523339 0)
(2.63624 0.552746 0)
(2.62535 0.55033 0)
(2.6047 0.558364 0)
(2.59117 0.575412 0)
(2.57755 0.587307 0)
(2.57007 0.589214 0)
(2.56814 0.588066 0)
(2.56778 0.586466 0)
(2.5695 0.583491 0)
(2.57459 0.579956 0)
(2.58017 0.576818 0)
(2.58586 0.576477 0)
(2.59004 0.578274 0)
(2.59136 0.579177 0)
(2.59297 0.580647 0)
(2.59411 0.581862 0)
(2.595 0.582264 0)
(2.5965 0.582292 0)
(2.59818 0.581603 0)
(2.60056 0.580993 0)
(2.60493 0.578669 0)
(2.61241 0.57271 0)
(2.61944 0.566701 0)
(2.62143 0.564996 0)
(2.62207 0.564604 0)
(2.6225 0.564261 0)
(2.62037 0.566426 0)
(2.6116 0.573845 0)
(2.59447 0.586261 0)
(2.58149 0.595003 0)
(2.57966 0.596724 0)
(2.58 0.597005 0)
(2.5806 0.597265 0)
(2.58209 0.598004 0)
(2.58463 0.598315 0)
(2.58945 0.596069 0)
(2.59828 0.59084 0)
(2.60997 0.584176 0)
(2.61677 0.580961 0)
(2.61806 0.580811 0)
(2.61979 0.581173 0)
(2.62067 0.581841 0)
(2.62001 0.582915 0)
(2.61705 0.585145 0)
(2.6141 0.588241 0)
(2.61398 0.589054 0)
(2.61562 0.58845 0)
(2.61729 0.587305 0)
(2.61917 0.585743 0)
(2.62189 0.584044 0)
(2.6264 0.58041 0)
(2.63185 0.575513 0)
(2.63376 0.573819 0)
(2.63421 0.573497 0)
(2.63384 0.574058 0)
(2.63193 0.575785 0)
(2.62811 0.578405 0)
(2.62137 0.583118 0)
(2.61195 0.590182 0)
(2.60543 0.595179 0)
(2.60529 0.596305 0)
(2.60575 0.596677 0)
(2.60656 0.596228 0)
(2.60736 0.594809 0)
(2.608 0.592193 0)
(2.60896 0.588605 0)
(2.61052 0.585216 0)
(2.61242 0.582132 0)
(2.61477 0.579174 0)
(2.61762 0.577156 0)
(2.62177 0.576474 0)
(2.62644 0.57659 0)
(2.62975 0.576968 0)
(2.63166 0.577246 0)
(2.63349 0.577695 0)
(2.63609 0.579663 0)
(2.64064 0.584482 0)
(2.64532 0.589506 0)
(2.64685 0.591708 0)
(2.64818 0.594247 0)
(2.64872 0.597685 0)
(2.64712 0.601113 0)
(2.64131 0.604166 0)
(2.63277 0.604652 0)
(2.62505 0.600608 0)
(2.62045 0.595031 0)
(2.61892 0.590888 0)
(2.61874 0.587346 0)
(2.61896 0.583616 0)
(2.62016 0.580691 0)
(2.62167 0.577132 0)
(2.62386 0.572524 0)
(2.62615 0.568927 0)
(2.62713 0.567877 0)
(2.62833 0.567896 0)
(2.6295 0.568325 0)
(2.63081 0.569107 0)
(2.63267 0.570286 0)
(2.63654 0.573314 0)
(2.64427 0.58086 0)
(2.6563 0.594242 0)
(2.6662 0.606624 0)
(2.66963 0.611632 0)
(2.67138 0.613808 0)
(2.67205 0.616571 0)
(2.66872 0.618552 0)
(2.66124 0.616472 0)
(2.64522 0.604753 0)
(2.62332 0.585143 0)
(2.61106 0.572542 0)
(2.60876 0.568172 0)
(2.60873 0.566335 0)
(2.60998 0.564095 0)
(2.61652 0.562314 0)
(2.63214 0.567293 0)
(2.65236 0.58036 0)
(2.6626 0.590085 0)
(2.6649 0.592814 0)
(2.66653 0.594421 0)
(2.66747 0.597319 0)
(2.6645 0.600763 0)
(2.65551 0.60076 0)
(2.64327 0.594052 0)
(2.63727 0.587984 0)
(2.63664 0.585362 0)
(2.6372 0.583621 0)
(2.63829 0.582331 0)
(2.64227 0.580979 0)
(2.65224 0.580957 0)
(2.66944 0.584493 0)
(2.68355 0.587873 0)
(2.68692 0.58904 0)
(2.68831 0.589641 0)
(2.69013 0.591743 0)
(2.68876 0.596321 0)
(2.67932 0.597147 0)
(2.86027 -0.145583 0)
(2.84546 -0.140417 0)
(2.84261 -0.139382 0)
(2.84396 -0.139564 0)
(2.84564 -0.139857 0)
(2.8478 -0.140299 0)
(2.85015 -0.140791 0)
(2.85239 -0.141429 0)
(2.85651 -0.14248 0)
(2.86441 -0.145188 0)
(2.87264 -0.148037 0)
(2.87672 -0.148863 0)
(2.87864 -0.148995 0)
(2.88048 -0.149059 0)
(2.88265 -0.149118 0)
(2.88434 -0.149205 0)
(2.88638 -0.149136 0)
(2.88842 -0.148764 0)
(2.88996 -0.148382 0)
(2.89046 -0.147587 0)
(2.89093 -0.146348 0)
(2.89217 -0.145145 0)
(2.89345 -0.144259 0)
(2.89446 -0.143449 0)
(2.89516 -0.142198 0)
(2.89529 -0.14061 0)
(2.8948 -0.139561 0)
(2.89394 -0.139104 0)
(2.8923 -0.138388 0)
(2.88853 -0.137705 0)
(2.88184 -0.137495 0)
(2.87522 -0.137125 0)
(2.874 -0.136207 0)
(2.87508 -0.135733 0)
(2.87596 -0.135408 0)
(2.87686 -0.134686 0)
(2.87817 -0.133914 0)
(2.87958 -0.133749 0)
(2.88087 -0.133425 0)
(2.88234 -0.133124 0)
(2.88551 -0.133515 0)
(2.89163 -0.136506 0)
(2.9012 -0.141698 0)
(2.90709 -0.143317 0)
(2.90855 -0.143073 0)
(2.91062 -0.14238 0)
(2.9124 -0.141696 0)
(2.91354 -0.140459 0)
(2.91386 -0.138541 0)
(2.91337 -0.136506 0)
(2.91282 -0.135016 0)
(2.91287 -0.133916 0)
(2.91297 -0.13303 0)
(2.91209 -0.132376 0)
(2.9088 -0.131181 0)
(2.90315 -0.1298 0)
(2.89893 -0.12994 0)
(2.89806 -0.131016 0)
(2.89855 -0.131849 0)
(2.89905 -0.132687 0)
(2.89924 -0.133952 0)
(2.89876 -0.135437 0)
(2.89677 -0.136235 0)
(2.8932 -0.135812 0)
(2.89133 -0.134754 0)
(2.89217 -0.134802 0)
(2.89328 -0.13495 0)
(2.89467 -0.13514 0)
(2.89639 -0.135395 0)
(2.89798 -0.13556 0)
(2.89916 -0.135809 0)
(2.90121 -0.13647 0)
(2.90649 -0.138275 0)
(2.91399 -0.140336 0)
(2.91716 -0.140701 0)
(2.91859 -0.140371 0)
(2.92059 -0.139205 0)
(2.92161 -0.137257 0)
(2.92135 -0.13483 0)
(2.9213 -0.133619 0)
(2.92264 -0.133902 0)
(2.92413 -0.134375 0)
(2.92586 -0.134656 0)
(2.92754 -0.134955 0)
(2.92893 -0.135217 0)
(2.92997 -0.13537 0)
(2.93055 -0.135477 0)
(2.93047 -0.135581 0)
(2.92915 -0.135482 0)
(2.92452 -0.134746 0)
(2.91378 -0.133119 0)
(2.90531 -0.131392 0)
(2.90509 -0.130903 0)
(2.90606 -0.130868 0)
(2.90726 -0.13096 0)
(2.90862 -0.131074 0)
(2.90964 -0.130962 0)
(2.91016 -0.130518 0)
(2.91147 -0.130068 0)
(2.91327 -0.129948 0)
(2.91524 -0.12991 0)
(2.9175 -0.13005 0)
(2.92022 -0.130545 0)
(2.92658 -0.13266 0)
(2.93585 -0.13825 0)
(2.94359 -0.141251 0)
(2.94506 -0.141106 0)
(2.94678 -0.140773 0)
(2.9481 -0.140137 0)
(2.94918 -0.139661 0)
(2.95033 -0.138382 0)
(2.9497 -0.134353 0)
(2.94557 -0.122471 0)
(2.92812 -0.0803351 0)
(2.8939 0.00981263 0)
(2.79607 0.21531 0)
(2.78148 0.307209 0)
(2.67582 0.479624 0)
(2.61615 0.58831 0)
(2.60306 0.564148 0)
(2.59624 0.56574 0)
(2.5878 0.570244 0)
(2.58215 0.58175 0)
(2.5758 0.586268 0)
(2.57184 0.586694 0)
(2.57299 0.585156 0)
(2.57509 0.581996 0)
(2.58069 0.579939 0)
(2.58837 0.580312 0)
(2.59381 0.580231 0)
(2.59511 0.58013 0)
(2.59652 0.581307 0)
(2.59758 0.582789 0)
(2.59861 0.58296 0)
(2.59948 0.582923 0)
(2.6006 0.583043 0)
(2.60295 0.583451 0)
(2.60722 0.581465 0)
(2.61343 0.575402 0)
(2.61873 0.568697 0)
(2.62004 0.566752 0)
(2.62038 0.566177 0)
(2.61953 0.566096 0)
(2.61562 0.569542 0)
(2.60465 0.58003 0)
(2.58788 0.595011 0)
(2.57993 0.602391 0)
(2.5797 0.603434 0)
(2.58011 0.603897 0)
(2.58116 0.603969 0)
(2.58308 0.602994 0)
(2.58654 0.601191 0)
(2.59257 0.597698 0)
(2.60208 0.591162 0)
(2.61269 0.583698 0)
(2.61769 0.581091 0)
(2.61918 0.581108 0)
(2.621 0.581399 0)
(2.62184 0.581976 0)
(2.62081 0.583757 0)
(2.61789 0.5861 0)
(2.61511 0.58779 0)
(2.61524 0.587527 0)
(2.61664 0.586338 0)
(2.61825 0.585099 0)
(2.62004 0.583997 0)
(2.62398 0.581604 0)
(2.63072 0.577715 0)
(2.63669 0.576044 0)
(2.63801 0.575911 0)
(2.63847 0.576812 0)
(2.63764 0.57945 0)
(2.63507 0.583341 0)
(2.62981 0.588503 0)
(2.62056 0.594775 0)
(2.61045 0.600355 0)
(2.60572 0.60177 0)
(2.60537 0.600924 0)
(2.60562 0.599408 0)
(2.60551 0.596563 0)
(2.60505 0.592128 0)
(2.60557 0.587787 0)
(2.60695 0.584497 0)
(2.60887 0.58154 0)
(2.61208 0.57899 0)
(2.61637 0.577578 0)
(2.62174 0.577592 0)
(2.62738 0.577772 0)
(2.63183 0.578565 0)
(2.63452 0.5809 0)
(2.63662 0.584885 0)
(2.63958 0.58971 0)
(2.64341 0.59269 0)
(2.64613 0.593614 0)
(2.64737 0.594137 0)
(2.64857 0.594743 0)
(2.65008 0.595784 0)
(2.64893 0.597563 0)
(2.64197 0.598944 0)
(2.62965 0.597001 0)
(2.61971 0.594427 0)
(2.61684 0.593572 0)
(2.61679 0.592696 0)
(2.61723 0.591099 0)
(2.61785 0.589112 0)
(2.61853 0.58716 0)
(2.61983 0.584489 0)
(2.62171 0.580348 0)
(2.624 0.575692 0)
(2.62675 0.572185 0)
(2.62909 0.570796 0)
(2.63041 0.570865 0)
(2.63217 0.571931 0)
(2.6358 0.575267 0)
(2.64376 0.584076 0)
(2.65665 0.597099 0)
(2.66635 0.605579 0)
(2.66927 0.607946 0)
(2.672 0.609396 0)
(2.67482 0.611387 0)
(2.6755 0.613836 0)
(2.67143 0.614175 0)
(2.65498 0.60499 0)
(2.62807 0.586671 0)
(2.61389 0.577169 0)
(2.61104 0.575687 0)
(2.61034 0.575786 0)
(2.61054 0.576278 0)
(2.61252 0.577289 0)
(2.62125 0.581842 0)
(2.6424 0.591265 0)
(2.65911 0.595922 0)
(2.6633 0.596246 0)
(2.66427 0.596087 0)
(2.66598 0.595684 0)
(2.66727 0.595191 0)
(2.66448 0.593791 0)
(2.6529 0.589368 0)
(2.64115 0.586704 0)
(2.63812 0.587398 0)
(2.6381 0.588072 0)
(2.63854 0.588365 0)
(2.63965 0.588441 0)
(2.64405 0.589103 0)
(2.65618 0.59233 0)
(2.6739 0.595312 0)
(2.68357 0.594984 0)
(2.68641 0.5931 0)
(2.68772 0.591348 0)
(2.68896 0.589762 0)
(2.68853 0.587016 0)
(2.67707 0.585924 0)
(2.86537 -0.147083 0)
(2.8498 -0.141561 0)
(2.84287 -0.138404 0)
(2.84386 -0.138018 0)
(2.84547 -0.138048 0)
(2.84768 -0.1382 0)
(2.84989 -0.138352 0)
(2.85198 -0.138506 0)
(2.85554 -0.13878 0)
(2.86312 -0.139636 0)
(2.87288 -0.14088 0)
(2.87807 -0.141577 0)
(2.87924 -0.14184 0)
(2.88049 -0.142051 0)
(2.88222 -0.142565 0)
(2.88434 -0.143803 0)
(2.88593 -0.144886 0)
(2.88778 -0.145629 0)
(2.88981 -0.14614 0)
(2.89123 -0.14652 0)
(2.89186 -0.1457 0)
(2.89296 -0.144096 0)
(2.89409 -0.142739 0)
(2.89509 -0.141425 0)
(2.89578 -0.139451 0)
(2.8957 -0.13718 0)
(2.89499 -0.135582 0)
(2.89371 -0.134553 0)
(2.8912 -0.13328 0)
(2.88619 -0.131911 0)
(2.87917 -0.131774 0)
(2.87426 -0.132859 0)
(2.87423 -0.133295 0)
(2.87529 -0.133111 0)
(2.87624 -0.13269 0)
(2.87682 -0.131694 0)
(2.87812 -0.130656 0)
(2.8797 -0.130334 0)
(2.8811 -0.130098 0)
(2.88268 -0.129778 0)
(2.88454 -0.12986 0)
(2.88865 -0.131151 0)
(2.89639 -0.13505 0)
(2.9056 -0.139476 0)
(2.909 -0.140167 0)
(2.91031 -0.139882 0)
(2.9125 -0.138987 0)
(2.91416 -0.138009 0)
(2.91494 -0.136265 0)
(2.91464 -0.133871 0)
(2.91389 -0.131861 0)
(2.91322 -0.130462 0)
(2.91271 -0.129568 0)
(2.91202 -0.128836 0)
(2.91027 -0.128271 0)
(2.90601 -0.12714 0)
(2.90043 -0.125816 0)
(2.8978 -0.125888 0)
(2.89728 -0.127368 0)
(2.8972 -0.129232 0)
(2.897 -0.131117 0)
(2.89635 -0.132418 0)
(2.89509 -0.132823 0)
(2.89293 -0.132597 0)
(2.89062 -0.132076 0)
(2.89056 -0.131713 0)
(2.8916 -0.131993 0)
(2.89284 -0.132199 0)
(2.8942 -0.13232 0)
(2.89546 -0.132587 0)
(2.89694 -0.133093 0)
(2.89937 -0.133889 0)
(2.90483 -0.135477 0)
(2.9131 -0.137514 0)
(2.91826 -0.138253 0)
(2.91953 -0.138207 0)
(2.92156 -0.137493 0)
(2.92303 -0.136097 0)
(2.9233 -0.133716 0)
(2.92237 -0.130794 0)
(2.92278 -0.129023 0)
(2.92441 -0.128826 0)
(2.9257 -0.129144 0)
(2.92703 -0.129498 0)
(2.92789 -0.130063 0)
(2.92826 -0.130548 0)
(2.92837 -0.130852 0)
(2.9282 -0.130988 0)
(2.92723 -0.130791 0)
(2.92342 -0.129962 0)
(2.91444 -0.128801 0)
(2.90622 -0.128303 0)
(2.90553 -0.128669 0)
(2.90646 -0.129001 0)
(2.90752 -0.1293 0)
(2.90865 -0.129527 0)
(2.90968 -0.129419 0)
(2.91024 -0.128676 0)
(2.91091 -0.127996 0)
(2.91248 -0.128012 0)
(2.91456 -0.128185 0)
(2.91675 -0.128363 0)
(2.91902 -0.128693 0)
(2.92241 -0.129435 0)
(2.93003 -0.132347 0)
(2.93946 -0.136402 0)
(2.94501 -0.137278 0)
(2.94626 -0.136721 0)
(2.94764 -0.136279 0)
(2.94871 -0.13569 0)
(2.94979 -0.134756 0)
(2.9509 -0.134012 0)
(2.9517 -0.131943 0)
(2.95131 -0.128873 0)
(2.94714 -0.118657 0)
(2.92518 -0.0741124 0)
(2.89236 0.016127 0)
(2.79981 0.201332 0)
(2.7357 0.33757 0)
(2.69943 0.418572 0)
(2.61204 0.577472 0)
(2.58661 0.597559 0)
(2.58718 0.571672 0)
(2.58809 0.572296 0)
(2.58421 0.580022 0)
(2.58198 0.582455 0)
(2.57965 0.580874 0)
(2.58091 0.582972 0)
(2.58561 0.582554 0)
(2.59177 0.581865 0)
(2.59753 0.58224 0)
(2.59988 0.581792 0)
(2.60118 0.582039 0)
(2.60157 0.582975 0)
(2.60091 0.584102 0)
(2.60184 0.585255 0)
(2.60362 0.585753 0)
(2.60502 0.585818 0)
(2.60841 0.585016 0)
(2.61412 0.579643 0)
(2.61995 0.572409 0)
(2.62107 0.570203 0)
(2.62056 0.569567 0)
(2.61849 0.570651 0)
(2.61279 0.576442 0)
(2.59972 0.589706 0)
(2.58417 0.604128 0)
(2.57897 0.60886 0)
(2.57974 0.609379 0)
(2.58062 0.609224 0)
(2.58209 0.608673 0)
(2.58445 0.606763 0)
(2.58802 0.603516 0)
(2.59399 0.598623 0)
(2.60334 0.590741 0)
(2.61338 0.582991 0)
(2.61791 0.580684 0)
(2.61981 0.5806 0)
(2.62196 0.580711 0)
(2.62272 0.581531 0)
(2.62105 0.583494 0)
(2.61765 0.585513 0)
(2.61525 0.586344 0)
(2.61522 0.586015 0)
(2.61635 0.585351 0)
(2.61769 0.584406 0)
(2.62079 0.582822 0)
(2.62758 0.580382 0)
(2.6372 0.578287 0)
(2.64209 0.579418 0)
(2.64302 0.582319 0)
(2.64255 0.585201 0)
(2.64141 0.5892 0)
(2.63812 0.594417 0)
(2.62943 0.600285 0)
(2.61558 0.604242 0)
(2.60666 0.604329 0)
(2.60461 0.602512 0)
(2.60398 0.600011 0)
(2.60304 0.596429 0)
(2.60245 0.592575 0)
(2.60289 0.589491 0)
(2.60384 0.586722 0)
(2.60599 0.583636 0)
(2.60965 0.580313 0)
(2.6151 0.578415 0)
(2.62218 0.578552 0)
(2.62932 0.580424 0)
(2.63466 0.58389 0)
(2.63811 0.588305 0)
(2.64096 0.592324 0)
(2.64363 0.595128 0)
(2.64479 0.596103 0)
(2.64639 0.596481 0)
(2.64769 0.596656 0)
(2.64889 0.596578 0)
(2.64956 0.596105 0)
(2.6477 0.595071 0)
(2.64022 0.593463 0)
(2.62761 0.593088 0)
(2.61828 0.594137 0)
(2.61511 0.594308 0)
(2.6148 0.5936 0)
(2.615 0.592279 0)
(2.61539 0.590497 0)
(2.61613 0.588422 0)
(2.61707 0.586248 0)
(2.61851 0.584472 0)
(2.62063 0.581611 0)
(2.62381 0.578005 0)
(2.62753 0.575661 0)
(2.63156 0.575511 0)
(2.63647 0.578437 0)
(2.6452 0.587091 0)
(2.65781 0.599537 0)
(2.66502 0.605663 0)
(2.66722 0.606477 0)
(2.66975 0.60654 0)
(2.6725 0.606598 0)
(2.67508 0.60709 0)
(2.67559 0.607137 0)
(2.66618 0.602256 0)
(2.63921 0.589259 0)
(2.61834 0.581168 0)
(2.61391 0.579837 0)
(2.61356 0.580151 0)
(2.61385 0.581972 0)
(2.61506 0.586183 0)
(2.61996 0.593899 0)
(2.63297 0.603579 0)
(2.64839 0.605738 0)
(2.65772 0.602601 0)
(2.66117 0.600065 0)
(2.66234 0.598796 0)
(2.66414 0.595784 0)
(2.66429 0.591296 0)
(2.65937 0.585777 0)
(2.64992 0.583123 0)
(2.64308 0.584671 0)
(2.64165 0.586944 0)
(2.64224 0.589024 0)
(2.64293 0.590992 0)
(2.64477 0.594166 0)
(2.64987 0.599306 0)
(2.66128 0.603002 0)
(2.67398 0.601405 0)
(2.68127 0.598491 0)
(2.68386 0.595887 0)
(2.68494 0.59347 0)
(2.68552 0.590078 0)
(2.68321 0.579661 0)
(2.66852 0.575743 0)
(2.86813 -0.146404 0)
(2.85541 -0.143073 0)
(2.84466 -0.138751 0)
(2.84438 -0.13744 0)
(2.8461 -0.137066 0)
(2.84839 -0.13685 0)
(2.85075 -0.136784 0)
(2.85295 -0.136699 0)
(2.85561 -0.136753 0)
(2.86175 -0.137303 0)
(2.87064 -0.137909 0)
(2.87568 -0.137929 0)
(2.87674 -0.137789 0)
(2.87868 -0.137518 0)
(2.8804 -0.137509 0)
(2.88216 -0.138262 0)
(2.88413 -0.139401 0)
(2.88625 -0.140502 0)
(2.88849 -0.142025 0)
(2.89 -0.143325 0)
(2.89181 -0.143542 0)
(2.89391 -0.142715 0)
(2.89515 -0.14123 0)
(2.89629 -0.139813 0)
(2.89729 -0.137902 0)
(2.89754 -0.13546 0)
(2.89682 -0.132924 0)
(2.89513 -0.130593 0)
(2.89184 -0.128351 0)
(2.88574 -0.126134 0)
(2.87713 -0.126945 0)
(2.87258 -0.129035 0)
(2.87352 -0.12963 0)
(2.87456 -0.129663 0)
(2.87557 -0.129349 0)
(2.87676 -0.128866 0)
(2.87814 -0.128417 0)
(2.87938 -0.127748 0)
(2.8809 -0.127493 0)
(2.88229 -0.127429 0)
(2.88386 -0.12739 0)
(2.88641 -0.127666 0)
(2.89205 -0.129438 0)
(2.90179 -0.133918 0)
(2.90952 -0.136843 0)
(2.91095 -0.136828 0)
(2.91249 -0.136086 0)
(2.91399 -0.134531 0)
(2.91506 -0.132705 0)
(2.9156 -0.130763 0)
(2.9154 -0.128855 0)
(2.91462 -0.12719 0)
(2.9139 -0.125794 0)
(2.91329 -0.124814 0)
(2.91192 -0.124352 0)
(2.9087 -0.123678 0)
(2.90292 -0.122576 0)
(2.89729 -0.122774 0)
(2.89498 -0.1248 0)
(2.8945 -0.126478 0)
(2.89446 -0.127551 0)
(2.89452 -0.12835 0)
(2.89437 -0.129222 0)
(2.89338 -0.129789 0)
(2.89082 -0.129452 0)
(2.88903 -0.12861 0)
(2.89011 -0.128657 0)
(2.89131 -0.128891 0)
(2.8928 -0.128995 0)
(2.89454 -0.129205 0)
(2.89648 -0.129647 0)
(2.89891 -0.130329 0)
(2.90345 -0.131851 0)
(2.91129 -0.134315 0)
(2.91835 -0.135657 0)
(2.91988 -0.135588 0)
(2.92205 -0.134887 0)
(2.92396 -0.133741 0)
(2.92524 -0.132195 0)
(2.92522 -0.129504 0)
(2.92348 -0.126475 0)
(2.92233 -0.125273 0)
(2.9231 -0.125937 0)
(2.92382 -0.126379 0)
(2.92477 -0.126629 0)
(2.92559 -0.126642 0)
(2.92622 -0.126495 0)
(2.92658 -0.12625 0)
(2.92605 -0.126054 0)
(2.92271 -0.126027 0)
(2.91415 -0.125676 0)
(2.90555 -0.125596 0)
(2.90453 -0.126227 0)
(2.90536 -0.126654 0)
(2.90624 -0.126952 0)
(2.9073 -0.127105 0)
(2.90847 -0.127028 0)
(2.90974 -0.126792 0)
(2.91074 -0.126322 0)
(2.91235 -0.126086 0)
(2.91438 -0.126102 0)
(2.91627 -0.126106 0)
(2.91823 -0.125908 0)
(2.9208 -0.125618 0)
(2.92628 -0.126507 0)
(2.93467 -0.129626 0)
(2.94283 -0.132413 0)
(2.94669 -0.132826 0)
(2.94879 -0.132162 0)
(2.94959 -0.132142 0)
(2.95089 -0.131771 0)
(2.95205 -0.131008 0)
(2.95274 -0.129494 0)
(2.95325 -0.12905 0)
(2.95392 -0.126243 0)
(2.9525 -0.127509 0)
(2.9405 -0.11088 0)
(2.91758 -0.0735125 0)
(2.86937 0.0207907 0)
(2.81358 0.142882 0)
(2.69935 0.374008 0)
(2.69237 0.417925 0)
(2.63997 0.500221 0)
(2.59862 0.603483 0)
(2.58068 0.606379 0)
(2.57391 0.587989 0)
(2.58235 0.578713 0)
(2.58631 0.582382 0)
(2.58946 0.580365 0)
(2.59437 0.579192 0)
(2.60131 0.580604 0)
(2.60425 0.582534 0)
(2.60551 0.582848 0)
(2.60569 0.583146 0)
(2.60544 0.584672 0)
(2.60552 0.587959 0)
(2.60594 0.590005 0)
(2.60631 0.589797 0)
(2.60679 0.588775 0)
(2.60903 0.586312 0)
(2.61451 0.582166 0)
(2.62146 0.577445 0)
(2.62316 0.576182 0)
(2.62275 0.575909 0)
(2.61994 0.576876 0)
(2.61192 0.583898 0)
(2.59634 0.598303 0)
(2.58201 0.609539 0)
(2.57904 0.61172 0)
(2.57989 0.611521 0)
(2.58093 0.610138 0)
(2.58241 0.608985 0)
(2.58439 0.607515 0)
(2.58774 0.604627 0)
(2.59385 0.598986 0)
(2.6036 0.589628 0)
(2.61388 0.581443 0)
(2.61822 0.57947 0)
(2.62019 0.579374 0)
(2.62216 0.579552 0)
(2.62242 0.580509 0)
(2.62039 0.582512 0)
(2.61708 0.585758 0)
(2.61569 0.588164 0)
(2.616 0.588866 0)
(2.61664 0.588818 0)
(2.61848 0.588338 0)
(2.62421 0.58703 0)
(2.63468 0.586878 0)
(2.64379 0.586871 0)
(2.64605 0.588887 0)
(2.64659 0.591629 0)
(2.6466 0.594871 0)
(2.64517 0.598648 0)
(2.63651 0.602772 0)
(2.61856 0.605633 0)
(2.60574 0.604622 0)
(2.60248 0.601631 0)
(2.60186 0.59894 0)
(2.60141 0.596435 0)
(2.60102 0.594062 0)
(2.60106 0.591738 0)
(2.60162 0.589406 0)
(2.60314 0.586845 0)
(2.6063 0.583531 0)
(2.61317 0.581269 0)
(2.62381 0.581827 0)
(2.63363 0.58663 0)
(2.63914 0.591852 0)
(2.64171 0.594603 0)
(2.64336 0.595779 0)
(2.64484 0.596335 0)
(2.64636 0.596786 0)
(2.64755 0.59765 0)
(2.64829 0.598494 0)
(2.64845 0.598363 0)
(2.6475 0.596838 0)
(2.64424 0.594342 0)
(2.6373 0.592652 0)
(2.62745 0.593045 0)
(2.61884 0.594383 0)
(2.61509 0.594937 0)
(2.61416 0.594804 0)
(2.61382 0.594428 0)
(2.61382 0.59365 0)
(2.61419 0.592371 0)
(2.61485 0.591 0)
(2.61569 0.589631 0)
(2.61745 0.587823 0)
(2.62055 0.585528 0)
(2.62594 0.583999 0)
(2.63433 0.584967 0)
(2.64628 0.592165 0)
(2.65889 0.602325 0)
(2.66433 0.606285 0)
(2.66571 0.606596 0)
(2.66795 0.606368 0)
(2.6701 0.606037 0)
(2.67206 0.605282 0)
(2.67283 0.602914 0)
(2.66816 0.596173 0)
(2.65074 0.584244 0)
(2.62908 0.578855 0)
(2.61907 0.581343 0)
(2.61713 0.584475 0)
(2.61696 0.587514 0)
(2.61778 0.592444 0)
(2.62179 0.600125 0)
(2.63138 0.611077 0)
(2.6413 0.616919 0)
(2.64772 0.615737 0)
(2.65275 0.609473 0)
(2.65733 0.601376 0)
(2.65878 0.597427 0)
(2.6598 0.592663 0)
(2.65822 0.586043 0)
(2.65424 0.581038 0)
(2.65066 0.580697 0)
(2.64822 0.584346 0)
(2.64719 0.588959 0)
(2.64748 0.591973 0)
(2.64874 0.59541 0)
(2.65213 0.601674 0)
(2.65876 0.608429 0)
(2.66596 0.610446 0)
(2.67215 0.606884 0)
(2.67696 0.601179 0)
(2.67905 0.596726 0)
(2.67998 0.591863 0)
(2.67898 0.585225 0)
(2.67353 0.570799 0)
(2.66122 0.569836 0)
(2.86813 -0.144232 0)
(2.85994 -0.143069 0)
(2.84798 -0.139177 0)
(2.84536 -0.137284 0)
(2.84702 -0.136842 0)
(2.84906 -0.136484 0)
(2.85145 -0.13601 0)
(2.85389 -0.135355 0)
(2.85625 -0.134715 0)
(2.86114 -0.134297 0)
(2.8691 -0.134124 0)
(2.8743 -0.134041 0)
(2.87557 -0.134076 0)
(2.87753 -0.134044 0)
(2.87927 -0.134021 0)
(2.88092 -0.134503 0)
(2.8825 -0.135415 0)
(2.88436 -0.136143 0)
(2.88625 -0.136984 0)
(2.88862 -0.138049 0)
(2.89139 -0.138871 0)
(2.89327 -0.138771 0)
(2.89466 -0.138144 0)
(2.89642 -0.136818 0)
(2.8979 -0.135425 0)
(2.89886 -0.133833 0)
(2.89895 -0.131723 0)
(2.89788 -0.12906 0)
(2.89412 -0.126197 0)
(2.88506 -0.124566 0)
(2.87404 -0.125626 0)
(2.87148 -0.126699 0)
(2.87281 -0.126819 0)
(2.87378 -0.126816 0)
(2.87497 -0.126825 0)
(2.8762 -0.126854 0)
(2.87785 -0.126618 0)
(2.87933 -0.126021 0)
(2.8807 -0.125027 0)
(2.88224 -0.124439 0)
(2.88367 -0.124143 0)
(2.88533 -0.123999 0)
(2.88899 -0.124714 0)
(2.8963 -0.127925 0)
(2.90709 -0.132652 0)
(2.9125 -0.133687 0)
(2.91345 -0.13338 0)
(2.915 -0.13192 0)
(2.91611 -0.12992 0)
(2.91684 -0.128137 0)
(2.91714 -0.126454 0)
(2.91638 -0.124614 0)
(2.91464 -0.122481 0)
(2.91292 -0.120684 0)
(2.9116 -0.119582 0)
(2.90941 -0.119136 0)
(2.90475 -0.118798 0)
(2.89726 -0.118687 0)
(2.89319 -0.120135 0)
(2.89283 -0.121893 0)
(2.89277 -0.12329 0)
(2.89258 -0.124706 0)
(2.89224 -0.126045 0)
(2.89141 -0.126693 0)
(2.88992 -0.12642 0)
(2.88865 -0.125665 0)
(2.88938 -0.124924 0)
(2.89097 -0.124869 0)
(2.89225 -0.125208 0)
(2.89381 -0.125918 0)
(2.89555 -0.126771 0)
(2.89734 -0.127558 0)
(2.90088 -0.128783 0)
(2.90807 -0.131552 0)
(2.91778 -0.134228 0)
(2.92181 -0.134357 0)
(2.92331 -0.133679 0)
(2.92564 -0.132006 0)
(2.92742 -0.130472 0)
(2.92831 -0.128431 0)
(2.9268 -0.124979 0)
(2.92367 -0.120916 0)
(2.92279 -0.118782 0)
(2.92327 -0.118852 0)
(2.92408 -0.119369 0)
(2.92473 -0.119857 0)
(2.92526 -0.120193 0)
(2.92555 -0.120742 0)
(2.9252 -0.121477 0)
(2.9228 -0.122045 0)
(2.91552 -0.121985 0)
(2.9066 -0.121289 0)
(2.90457 -0.121765 0)
(2.90528 -0.122124 0)
(2.90606 -0.122715 0)
(2.90703 -0.123426 0)
(2.90811 -0.124038 0)
(2.90943 -0.124526 0)
(2.91074 -0.124846 0)
(2.91241 -0.124716 0)
(2.91433 -0.124511 0)
(2.91617 -0.124388 0)
(2.91812 -0.124369 0)
(2.92036 -0.124607 0)
(2.92369 -0.125351 0)
(2.93059 -0.126855 0)
(2.93906 -0.128781 0)
(2.94462 -0.128886 0)
(2.94726 -0.128126 0)
(2.94884 -0.127427 0)
(2.94961 -0.126846 0)
(2.9508 -0.126195 0)
(2.95201 -0.125535 0)
(2.95341 -0.125378 0)
(2.95457 -0.124986 0)
(2.95502 -0.12489 0)
(2.95211 -0.123728 0)
(2.93982 -0.125049 0)
(2.91779 -0.105293 0)
(2.90355 -0.0826127 0)
(2.85347 0.0129596 0)
(2.81207 0.141152 0)
(2.71921 0.332533 0)
(2.659 0.469795 0)
(2.66025 0.493776 0)
(2.61516 0.548411 0)
(2.59499 0.611088 0)
(2.58306 0.605246 0)
(2.58089 0.589017 0)
(2.59112 0.580862 0)
(2.60056 0.579626 0)
(2.60651 0.577778 0)
(2.61042 0.581415 0)
(2.61112 0.583747 0)
(2.61167 0.584938 0)
(2.61168 0.587535 0)
(2.60978 0.591819 0)
(2.60765 0.595958 0)
(2.60736 0.597586 0)
(2.60777 0.598469 0)
(2.61043 0.596405 0)
(2.61668 0.590338 0)
(2.62322 0.584753 0)
(2.62508 0.582962 0)
(2.62492 0.582526 0)
(2.62152 0.58321 0)
(2.61049 0.590068 0)
(2.59253 0.603406 0)
(2.58068 0.61176 0)
(2.57908 0.612849 0)
(2.57991 0.612072 0)
(2.58076 0.610352 0)
(2.5819 0.607232 0)
(2.58374 0.60442 0)
(2.58717 0.601489 0)
(2.59358 0.595927 0)
(2.60448 0.587155 0)
(2.61495 0.579726 0)
(2.61835 0.57804 0)
(2.62019 0.578194 0)
(2.62188 0.578663 0)
(2.622 0.579925 0)
(2.62018 0.58293 0)
(2.61795 0.587405 0)
(2.61787 0.59054 0)
(2.61857 0.592153 0)
(2.6202 0.594063 0)
(2.62447 0.59611 0)
(2.63293 0.595606 0)
(2.64147 0.594654 0)
(2.64563 0.593808 0)
(2.64671 0.593888 0)
(2.64835 0.594688 0)
(2.64778 0.596597 0)
(2.63959 0.599199 0)
(2.62049 0.601005 0)
(2.60385 0.601047 0)
(2.60032 0.599646 0)
(2.60036 0.598417 0)
(2.60046 0.597443 0)
(2.60014 0.596519 0)
(2.59983 0.595343 0)
(2.60007 0.594074 0)
(2.60066 0.592893 0)
(2.60334 0.590834 0)
(2.6121 0.58846 0)
(2.628 0.589721 0)
(2.63948 0.593206 0)
(2.64212 0.594731 0)
(2.64377 0.59545 0)
(2.64549 0.595927 0)
(2.64699 0.596196 0)
(2.64845 0.596492 0)
(2.64952 0.597059 0)
(2.64957 0.597484 0)
(2.64833 0.596824 0)
(2.64566 0.595298 0)
(2.64166 0.594465 0)
(2.63615 0.594785 0)
(2.62874 0.59565 0)
(2.62083 0.596582 0)
(2.61612 0.596645 0)
(2.61484 0.596064 0)
(2.61468 0.595506 0)
(2.61467 0.595496 0)
(2.61493 0.595863 0)
(2.61545 0.596303 0)
(2.61585 0.59649 0)
(2.61663 0.596652 0)
(2.61942 0.596376 0)
(2.62647 0.59657 0)
(2.64004 0.600897 0)
(2.65622 0.606706 0)
(2.6635 0.608083 0)
(2.66497 0.607561 0)
(2.66697 0.606897 0)
(2.66907 0.606276 0)
(2.67084 0.60528 0)
(2.67112 0.602486 0)
(2.66641 0.594637 0)
(2.65333 0.580472 0)
(2.63894 0.571852 0)
(2.63038 0.574008 0)
(2.6258 0.582257 0)
(2.62366 0.590737 0)
(2.6239 0.597743 0)
(2.62569 0.607401 0)
(2.63127 0.617579 0)
(2.63688 0.62208 0)
(2.64011 0.621553 0)
(2.64202 0.618315 0)
(2.64539 0.613075 0)
(2.6507 0.604575 0)
(2.65396 0.59436 0)
(2.65409 0.587369 0)
(2.65437 0.583851 0)
(2.65417 0.582873 0)
(2.65382 0.583971 0)
(2.65336 0.587091 0)
(2.65262 0.592645 0)
(2.65318 0.59814 0)
(2.65575 0.603405 0)
(2.65998 0.608669 0)
(2.66425 0.612069 0)
(2.66719 0.612997 0)
(2.66978 0.611169 0)
(2.67239 0.604902 0)
(2.67308 0.595704 0)
(2.67265 0.585232 0)
(2.66917 0.577935 0)
(2.66489 0.567679 0)
(2.65949 0.569694 0)
(2.86601 -0.140656 0)
(2.8618 -0.14099 0)
(2.85207 -0.138212 0)
(2.84655 -0.135589 0)
(2.84773 -0.13506 0)
(2.84946 -0.134861 0)
(2.85143 -0.134554 0)
(2.85354 -0.133823 0)
(2.85578 -0.13291 0)
(2.86018 -0.131981 0)
(2.86712 -0.131442 0)
(2.87225 -0.131632 0)
(2.87373 -0.13174 0)
(2.8761 -0.131685 0)
(2.87814 -0.131295 0)
(2.87964 -0.130831 0)
(2.88142 -0.130865 0)
(2.88305 -0.131588 0)
(2.88475 -0.132711 0)
(2.88643 -0.133762 0)
(2.88839 -0.134658 0)
(2.89143 -0.13517 0)
(2.89372 -0.134825 0)
(2.89504 -0.133779 0)
(2.89706 -0.131782 0)
(2.89871 -0.129571 0)
(2.90005 -0.128148 0)
(2.90073 -0.126633 0)
(2.89754 -0.124608 0)
(2.88583 -0.122921 0)
(2.8727 -0.123039 0)
(2.87109 -0.123395 0)
(2.87244 -0.123441 0)
(2.87362 -0.12345 0)
(2.87488 -0.123575 0)
(2.87685 -0.123982 0)
(2.87814 -0.124047 0)
(2.88014 -0.123435 0)
(2.88167 -0.122316 0)
(2.88269 -0.120998 0)
(2.88392 -0.120627 0)
(2.88497 -0.120575 0)
(2.88681 -0.120703 0)
(2.89159 -0.122095 0)
(2.90126 -0.126143 0)
(2.91151 -0.129634 0)
(2.91439 -0.129401 0)
(2.91557 -0.128309 0)
(2.91718 -0.126665 0)
(2.91856 -0.12539 0)
(2.91918 -0.123964 0)
(2.91852 -0.122247 0)
(2.91651 -0.120209 0)
(2.91393 -0.118309 0)
(2.91146 -0.117145 0)
(2.90882 -0.116271 0)
(2.90434 -0.114979 0)
(2.8973 -0.113766 0)
(2.89143 -0.114315 0)
(2.8905 -0.116395 0)
(2.89069 -0.118171 0)
(2.89074 -0.119997 0)
(2.89068 -0.121674 0)
(2.8905 -0.123015 0)
(2.89031 -0.123669 0)
(2.8901 -0.123361 0)
(2.88932 -0.122176 0)
(2.88963 -0.121793 0)
(2.89137 -0.12227 0)
(2.89292 -0.122805 0)
(2.89471 -0.123321 0)
(2.89641 -0.123941 0)
(2.89896 -0.124844 0)
(2.90497 -0.12721 0)
(2.91559 -0.131146 0)
(2.92338 -0.132645 0)
(2.92483 -0.132464 0)
(2.92717 -0.131447 0)
(2.92923 -0.130017 0)
(2.9305 -0.128189 0)
(2.93015 -0.125064 0)
(2.92665 -0.119919 0)
(2.92187 -0.115245 0)
(2.92053 -0.113851 0)
(2.92071 -0.114307 0)
(2.92144 -0.11538 0)
(2.922 -0.116354 0)
(2.9228 -0.117022 0)
(2.92354 -0.117755 0)
(2.92269 -0.118321 0)
(2.91689 -0.118234 0)
(2.90711 -0.117873 0)
(2.90307 -0.118049 0)
(2.90327 -0.118531 0)
(2.90407 -0.118985 0)
(2.90518 -0.119464 0)
(2.90645 -0.12001 0)
(2.90788 -0.120619 0)
(2.90948 -0.121528 0)
(2.91124 -0.122334 0)
(2.91333 -0.122617 0)
(2.91546 -0.122545 0)
(2.91777 -0.122454 0)
(2.92015 -0.122389 0)
(2.92302 -0.122358 0)
(2.9291 -0.122547 0)
(2.93735 -0.123105 0)
(2.94399 -0.123734 0)
(2.94746 -0.123647 0)
(2.94947 -0.123087 0)
(2.95002 -0.122894 0)
(2.95116 -0.122493 0)
(2.9525 -0.122196 0)
(2.95395 -0.122006 0)
(2.95538 -0.121984 0)
(2.95645 -0.12214 0)
(2.95455 -0.122577 0)