/*--------------------------------*- C++ -*----------------------------------*\
  =========                 |
  \\      /  F ield         | OpenFOAM: The Open Source CFD Toolbox
   \\    /   O peration     | Website:  https://openfoam.org
    \\  /    A nd           | Version:  7
     \\/     M anipulation  |
\*---------------------------------------------------------------------------*/
FoamFile
{
    version     2.0;
    format      ascii;
    class       volScalarField;
    location    "71.999522";
    object      p;
}
// * * * * * * * * * * * * * * * * * * * * * * * * * * * * * * * * * * * * * //

dimensions      [0 2 -2 0 0 0 0];

internalField   nonuniform List<scalar> 
23200
(
-0.217747
-0.219521
-0.220595
-0.221437
-0.222171
-0.222822
-0.223427
-0.224013
-0.22459
-0.225158
-0.225703
-0.226205
-0.226637
-0.226967
-0.227158
-0.227168
-0.226956
-0.226507
-0.22579
-0.224715
-0.217994
-0.219739
-0.220796
-0.221624
-0.222347
-0.222988
-0.223583
-0.22416
-0.22473
-0.225289
-0.225827
-0.226322
-0.226747
-0.22707
-0.227252
-0.227252
-0.227025
-0.226555
-0.225816
-0.224611
-0.218505
-0.220192
-0.221215
-0.222017
-0.222717
-0.223337
-0.223914
-0.224475
-0.225029
-0.225575
-0.2261
-0.226584
-0.227
-0.227313
-0.227486
-0.227475
-0.227226
-0.226719
-0.225964
-0.224478
-0.219267
-0.220868
-0.221842
-0.222604
-0.223269
-0.223859
-0.224409
-0.224944
-0.225476
-0.226001
-0.226509
-0.226977
-0.22738
-0.227681
-0.227843
-0.227819
-0.227545
-0.226977
-0.226253
-0.224271
-0.220259
-0.221752
-0.222661
-0.223372
-0.223991
-0.224539
-0.225051
-0.225552
-0.226052
-0.226549
-0.227032
-0.227479
-0.227863
-0.228149
-0.228296
-0.228258
-0.227961
-0.227284
-0.226713
-0.223921
-0.221459
-0.222824
-0.223656
-0.224304
-0.224864
-0.225359
-0.225821
-0.226277
-0.226735
-0.227194
-0.227642
-0.22806
-0.228419
-0.228685
-0.228812
-0.228758
-0.228453
-0.227574
-0.227391
-0.223312
-0.222838
-0.224062
-0.224805
-0.225378
-0.225869
-0.226297
-0.226698
-0.227094
-0.227497
-0.227907
-0.22831
-0.228688
-0.229013
-0.229251
-0.229351
-0.22927
-0.229003
-0.227741
-0.228337
-0.222341
-0.224369
-0.225442
-0.226087
-0.226576
-0.226983
-0.227333
-0.227656
-0.227979
-0.228313
-0.228657
-0.229002
-0.229327
-0.229607
-0.229807
-0.229871
-0.229732
-0.229597
-0.227715
-0.229469
-0.221235
-0.226025
-0.226943
-0.227483
-0.227876
-0.228189
-0.228443
-0.228673
-0.228905
-0.229152
-0.229415
-0.229685
-0.229943
-0.230162
-0.230311
-0.230327
-0.230075
-0.230149
-0.227727
-0.230129
-0.220329
-0.227781
-0.228545
-0.228975
-0.229263
-0.229466
-0.229609
-0.229728
-0.22985
-0.229991
-0.230153
-0.230329
-0.230502
-0.230643
-0.230723
-0.230683
-0.230373
-0.230435
-0.227626
-0.230793
-0.219092
-0.229618
-0.230234
-0.230549
-0.230721
-0.2308
-0.230815
-0.230802
-0.230793
-0.230806
-0.230846
-0.230909
-0.230976
-0.23102
-0.231013
-0.230896
-0.230479
-0.230613
-0.227181
-0.231431
-0.217578
-0.231524
-0.231998
-0.232196
-0.232241
-0.232182
-0.232049
-0.231883
-0.23172
-0.231582
-0.231478
-0.231404
-0.231345
-0.231274
-0.231158
-0.230949
-0.230369
-0.230641
-0.226402
-0.231854
-0.215937
-0.233495
-0.233837
-0.233912
-0.233821
-0.233606
-0.233305
-0.232964
-0.232622
-0.232309
-0.232038
-0.231806
-0.231601
-0.231393
-0.231148
-0.230832
-0.230046
-0.230443
-0.225378
-0.231798
-0.21442
-0.235535
-0.235754
-0.235703
-0.235462
-0.235074
-0.234584
-0.234044
-0.233501
-0.232989
-0.232527
-0.232116
-0.231745
-0.231382
-0.230986
-0.230542
-0.229531
-0.229933
-0.224245
-0.230937
-0.213244
-0.23766
-0.237763
-0.237579
-0.237175
-0.236595
-0.235894
-0.235132
-0.234363
-0.23363
-0.232956
-0.232347
-0.23179
-0.231254
-0.230685
-0.23008
-0.228849
-0.229029
-0.223125
-0.229016
-0.212367
-0.239896
-0.239885
-0.239558
-0.238974
-0.238184
-0.23725
-0.236243
-0.235227
-0.234252
-0.233346
-0.23252
-0.231761
-0.231033
-0.230268
-0.229451
-0.228009
-0.227679
-0.222012
-0.226029
-0.211417
-0.242277
-0.242149
-0.241666
-0.240886
-0.239864
-0.238676
-0.237402
-0.236119
-0.234882
-0.233729
-0.23267
-0.231691
-0.230747
-0.229756
-0.22866
-0.226985
-0.225889
-0.220722
-0.222231
-0.209903
-0.244848
-0.244589
-0.243938
-0.24294
-0.241664
-0.240199
-0.23864
-0.237071
-0.235558
-0.234142
-0.232835
-0.231615
-0.230424
-0.22916
-0.227706
-0.225713
-0.223694
-0.218976
-0.217905
-0.207545
-0.247661
-0.24725
-0.246408
-0.24517
-0.243618
-0.241857
-0.239994
-0.238124
-0.23632
-0.234628
-0.233055
-0.231567
-0.230084
-0.228478
-0.226572
-0.22412
-0.221126
-0.216548
-0.213103
-0.204406
-0.250773
-0.250179
-0.24912
-0.247617
-0.245766
-0.243689
-0.241505
-0.239321
-0.237215
-0.235231
-0.233368
-0.231572
-0.229733
-0.227691
-0.225225
-0.222148
-0.218201
-0.213356
-0.207809
-0.200768
-0.254243
-0.253427
-0.252119
-0.250323
-0.248149
-0.245737
-0.24322
-0.240709
-0.238288
-0.235992
-0.233803
-0.231641
-0.229359
-0.226766
-0.223617
-0.219771
-0.214924
-0.209463
-0.202486
-0.196521
-0.258131
-0.257042
-0.255451
-0.253334
-0.250813
-0.248048
-0.245182
-0.242333
-0.239578
-0.236941
-0.234377
-0.23177
-0.228935
-0.225662
-0.221708
-0.21699
-0.211274
-0.204998
-0.197546
-0.190853
-0.262495
-0.261077
-0.259163
-0.256693
-0.253802
-0.250666
-0.247437
-0.244234
-0.241122
-0.2381
-0.235089
-0.231932
-0.228418
-0.224333
-0.219473
-0.213828
-0.207253
-0.200261
-0.1923
-0.185022
-0.267389
-0.265577
-0.263299
-0.260447
-0.25716
-0.253636
-0.250029
-0.246449
-0.242942
-0.239473
-0.235919
-0.232089
-0.227758
-0.22274
-0.216902
-0.210314
-0.202941
-0.195283
-0.186915
-0.179272
-0.272862
-0.270588
-0.267904
-0.264637
-0.260932
-0.257
-0.252994
-0.249007
-0.245052
-0.241048
-0.236831
-0.232185
-0.226903
-0.220854
-0.214002
-0.206495
-0.198384
-0.190149
-0.18143
-0.173487
-0.278954
-0.276147
-0.273015
-0.269304
-0.265157
-0.260797
-0.256366
-0.251925
-0.247443
-0.242791
-0.237767
-0.232159
-0.225803
-0.218657
-0.210788
-0.202409
-0.193633
-0.184891
-0.175857
-0.167697
-0.285698
-0.282289
-0.278668
-0.274486
-0.269875
-0.265062
-0.260166
-0.255204
-0.25009
-0.244648
-0.23866
-0.231943
-0.224416
-0.216141
-0.207282
-0.198091
-0.188716
-0.179522
-0.170213
-0.161847
-0.293116
-0.289036
-0.284892
-0.280214
-0.275115
-0.269816
-0.264399
-0.258823
-0.252943
-0.246546
-0.239428
-0.231472
-0.222709
-0.213305
-0.203502
-0.193563
-0.183645
-0.174042
-0.164481
-0.155924
-0.301217
-0.296404
-0.291706
-0.28651
-0.280898
-0.27507
-0.269053
-0.262739
-0.255927
-0.248394
-0.239984
-0.230687
-0.220655
-0.21015
-0.199457
-0.18883
-0.178418
-0.168437
-0.158648
-0.149903
-0.309995
-0.304394
-0.299118
-0.293385
-0.287228
-0.28081
-0.274087
-0.266877
-0.258943
-0.250086
-0.240242
-0.229534
-0.218234
-0.206672
-0.195148
-0.183888
-0.173019
-0.162688
-0.152691
-0.143763
-0.319426
-0.312992
-0.30712
-0.300833
-0.29409
-0.286997
-0.279427
-0.271134
-0.261872
-0.25151
-0.24012
-0.227968
-0.215427
-0.202863
-0.190565
-0.17872
-0.167428
-0.15677
-0.146586
-0.137485
-0.329458
-0.32216
-0.315682
-0.308821
-0.301436
-0.293557
-0.28497
-0.275381
-0.264579
-0.252555
-0.239543
-0.225947
-0.21221
-0.198705
-0.185688
-0.173302
-0.161617
-0.15066
-0.14031
-0.131045
-0.340019
-0.33184
-0.324752
-0.317291
-0.309189
-0.300382
-0.290574
-0.27946
-0.266919
-0.25311
-0.238441
-0.22343
-0.208557
-0.194173
-0.18049
-0.167605
-0.155558
-0.144329
-0.133837
-0.124425
-0.351003
-0.341941
-0.334243
-0.326149
-0.317231
-0.307323
-0.296068
-0.283201
-0.268749
-0.253073
-0.236749
-0.220377
-0.204436
-0.189236
-0.174938
-0.161597
-0.149219
-0.137751
-0.127143
-0.117603
-0.362272
-0.352344
-0.344039
-0.335264
-0.325405
-0.314195
-0.301256
-0.286421
-0.269925
-0.252348
-0.234407
-0.216743
-0.199808
-0.183857
-0.168996
-0.155242
-0.142571
-0.1309
-0.120206
-0.110561
-0.373651
-0.362892
-0.353983
-0.344463
-0.333515
-0.320784
-0.305922
-0.288937
-0.270315
-0.250846
-0.231353
-0.212481
-0.194631
-0.177994
-0.162627
-0.148507
-0.135582
-0.12375
-0.113003
-0.103281
-0.384933
-0.373395
-0.363882
-0.353537
-0.341327
-0.326845
-0.309844
-0.290572
-0.269791
-0.248481
-0.227526
-0.207541
-0.188858
-0.171607
-0.155791
-0.141357
-0.128225
-0.116277
-0.105511
-0.0957458
-0.395876
-0.383627
-0.373505
-0.362237
-0.348579
-0.332122
-0.312798
-0.291157
-0.268238
-0.245174
-0.222865
-0.201869
-0.182443
-0.16465
-0.148452
-0.133761
-0.120472
-0.108459
-0.0977117
-0.0879407
-0.406208
-0.393332
-0.382589
-0.370285
-0.354986
-0.336349
-0.314568
-0.290533
-0.265548
-0.240847
-0.217309
-0.195413
-0.175337
-0.157084
-0.140572
-0.125688
-0.112301
-0.100276
-0.0895878
-0.0798568
-0.415632
-0.402221
-0.390841
-0.377377
-0.360251
-0.339264
-0.31495
-0.288559
-0.261622
-0.235428
-0.210797
-0.18812
-0.167495
-0.148868
-0.13212
-0.11711
-0.103689
-0.0917109
-0.0811284
-0.0714939
-0.42383
-0.409989
-0.397945
-0.383195
-0.364075
-0.340618
-0.313758
-0.285106
-0.25637
-0.228846
-0.203272
-0.17994
-0.158874
-0.139966
-0.123065
-0.108005
-0.0946157
-0.0827468
-0.0723252
-0.0628572
-0.430474
-0.416311
-0.403576
-0.387419
-0.366168
-0.340179
-0.310827
-0.280061
-0.249712
-0.22104
-0.194681
-0.170829
-0.149435
-0.130348
-0.113382
-0.0983514
-0.0850656
-0.0733682
-0.0631672
-0.0539414
-0.435232
-0.42086
-0.407403
-0.389732
-0.366258
-0.337739
-0.306013
-0.273325
-0.241576
-0.211951
-0.184975
-0.160744
-0.139146
-0.119985
-0.103052
-0.0881343
-0.0750249
-0.0635631
-0.0536395
-0.0447128
-0.43778
-0.423311
-0.409104
-0.389837
-0.364099
-0.333118
-0.299196
-0.264818
-0.231903
-0.201533
-0.174114
-0.149654
-0.12798
-0.10886
-0.0920578
-0.0773419
-0.0644845
-0.0533283
-0.0437395
-0.0350969
-0.437807
-0.423352
-0.408375
-0.387461
-0.359477
-0.32617
-0.29028
-0.254476
-0.220644
-0.189745
-0.162068
-0.137534
-0.115917
-0.0969553
-0.0803887
-0.0659649
-0.0534405
-0.0426692
-0.0334956
-0.0250365
-0.435029
-0.420695
-0.40494
-0.382368
-0.352214
-0.316777
-0.279192
-0.242251
-0.207766
-0.176562
-0.148814
-0.124365
-0.102944
-0.0842624
-0.0680381
-0.0539983
-0.0419033
-0.0315954
-0.0229132
-0.0146435
-0.429192
-0.415083
-0.398559
-0.374361
-0.342175
-0.304858
-0.265888
-0.228116
-0.193247
-0.161966
-0.134337
-0.110138
-0.0890555
-0.0707798
-0.0550162
-0.0414513
-0.0298994
-0.0201427
-0.011874
-0.00408672
-0.420084
-0.406298
-0.389035
-0.363287
-0.329263
-0.290364
-0.250344
-0.212061
-0.177083
-0.145951
-0.118633
-0.0948496
-0.0742662
-0.0565245
-0.0413527
-0.0283747
-0.0174121
-0.00827762
-0.000470852
0.00669518
-0.407537
-0.394168
-0.376219
-0.349043
-0.313427
-0.273279
-0.232566
-0.194095
-0.15928
-0.128524
-0.101719
-0.0785183
-0.0586175
-0.0415394
-0.0270345
-0.0147514
-0.00447369
0.00398708
0.0112474
0.0177265
-0.391435
-0.37857
-0.360013
-0.331574
-0.294655
-0.253622
-0.21258
-0.174242
-0.139856
-0.109717
-0.0836486
-0.0612211
-0.0420853
-0.0258175
-0.0121001
-0.000606169
0.00889576
0.0166223
0.0232558
0.0289992
-0.371713
-0.359437
-0.340375
-0.310876
-0.272979
-0.231443
-0.190439
-0.152548
-0.118863
-0.0896184
-0.0644363
-0.0429434
-0.0247308
-0.00939414
0.00341838
0.014028
0.0226693
0.0295958
0.0355332
0.0404887
-0.348363
-0.336754
-0.317316
-0.286994
-0.248474
-0.206826
-0.166219
-0.129093
-0.0964124
-0.068217
-0.0441338
-0.0237377
-0.00659896
0.0076854
0.0194821
0.0291131
0.0368134
0.0428738
0.0480505
0.0521617
-0.321434
-0.310564
-0.290901
-0.260025
-0.221257
-0.17987
-0.140016
-0.103978
-0.0725323
-0.04561
-0.0228077
-0.00366668
0.0122561
0.0253691
0.0360454
0.0446063
0.0512886
0.0564191
0.0607717
0.0639777
-0.291028
-0.28096
-0.261254
-0.230126
-0.191462
-0.150681
-0.111957
-0.0772965
-0.0473253
-0.0218846
-0.000537166
0.0171971
0.0317712
0.0435988
0.0530552
0.0604593
0.0660511
0.0701923
0.073659
0.0758953
-0.2573
-0.248092
-0.228552
-0.197468
-0.159181
-0.11945
-0.0821897
-0.0491773
-0.0209064
0.00285895
0.0225872
0.0387723
0.0518739
0.0623089
0.0704523
0.0766177
0.0810531
0.0841544
0.0866787
0.08788
-0.220438
-0.212169
-0.193011
-0.162141
-0.124645
-0.0863971
-0.0508803
-0.0197661
0.00659542
0.0285076
0.0464642
0.0609683
0.0724833
0.0814274
0.088171
0.0930216
0.0962432
0.0982668
0.0997945
0.0998885
-0.180626
-0.173482
-0.154778
-0.124329
-0.0882302
-0.0517095
-0.0182123
0.0107757
0.0350382
0.0549359
0.0709822
0.0836859
0.0935115
0.100876
0.10614
0.109608
0.111572
0.112487
0.112932
0.111779
-0.138096
-0.13235
-0.113938
-0.0846377
-0.0501124
-0.0156112
0.0156147
0.0422732
0.0642678
0.0820074
0.0960202
0.106818
0.114864
0.120569
0.124285
0.126317
0.126997
0.126762
0.125927
0.123209
-0.0931824
-0.0889469
-0.0712116
-0.0432178
-0.0105545
0.0216561
0.050389
0.0745398
0.0941192
0.109576
0.121449
0.130249
0.136438
0.140418
0.14253
0.143092
0.142479
0.141017
0.138571
0.13391
-0.0465984
-0.0434948
-0.0268291
-0.000369883
0.0301582
0.0598379
0.0858862
0.107378
0.124418
0.137487
0.147131
0.15386
0.158128
0.160328
0.160794
0.159869
0.157949
0.155137
0.150824
0.144519
0.00154534
0.00346958
0.0188832
0.043571
0.0717234
0.0986676
0.121872
0.140581
0.154981
0.16558
0.172925
0.177523
0.179821
0.180201
0.178995
0.176569
0.173292
0.168988
0.162802
0.157047
0.050861
0.0515268
0.0655524
0.088256
0.113827
0.137869
0.158104
0.173934
0.185619
0.193685
0.198682
0.201108
0.201402
0.199938
0.197047
0.193101
0.188394
0.182571
0.175046
0.169525
0.100915
0.100272
0.112787
0.133326
0.156149
0.177159
0.194332
0.207219
0.216139
0.221633
0.22425
0.224481
0.222755
0.219437
0.214858
0.209379
0.203218
0.195963
0.187384
0.181495
0.151272
0.149291
0.160187
0.178415
0.198363
0.216252
0.230306
0.240212
0.246343
0.24925
0.249476
0.247507
0.24376
0.238592
0.232331
0.225316
0.217708
0.20912
0.199598
0.193032
0.201494
0.198161
0.20735
0.223158
0.240144
0.254861
0.265772
0.272691
0.276033
0.276359
0.274206
0.27005
0.264298
0.257298
0.249372
0.240836
0.23181
0.22196
0.211514
0.204105
0.251144
0.246457
0.253877
0.267191
0.281168
0.292699
0.300478
0.304431
0.305013
0.302788
0.298286
0.291973
0.284248
0.275448
0.265887
0.255857
0.245456
0.234403
0.22304
0.214705
0.299787
0.29376
0.299372
0.310155
0.321116
0.329485
0.334175
0.335214
0.333088
0.328363
0.321563
0.313143
0.303492
0.292939
0.281784
0.270302
0.258574
0.246369
0.234101
0.224798
0.346998
0.339658
0.343449
0.351701
0.359679
0.364946
0.366621
0.364824
0.360067
0.352917
0.343888
0.333428
0.321915
0.309667
0.296975
0.284092
0.271091
0.257788
0.244636
0.234346
0.392363
0.383749
0.385736
0.391492
0.396557
0.398816
0.39758
0.393052
0.385766
0.376285
0.365119
0.352702
0.339404
0.325535
0.311371
0.297151
0.28294
0.268595
0.254589
0.243311
0.435487
0.42565
0.425874
0.429204
0.431462
0.43084
0.426828
0.4197
0.410007
0.398312
0.385115
0.370842
0.355852
0.340446
0.32489
0.309404
0.294053
0.278732
0.263908
0.251657
0.475991
0.464997
0.463524
0.464533
0.464123
0.460779
0.45415
0.444577
0.432623
0.418849
0.403746
0.387732
0.371157
0.354312
0.337452
0.320783
0.304369
0.28814
0.272546
0.259348
0.513521
0.501447
0.498369
0.497193
0.494287
0.488406
0.479348
0.467505
0.453456
0.437756
0.420888
0.403264
0.385222
0.367048
0.348983
0.331222
0.31383
0.296769
0.280455
0.266353
0.547751
0.534685
0.530117
0.526921
0.521719
0.513514
0.502235
0.488322
0.472361
0.454904
0.436429
0.417336
0.39796
0.378575
0.359414
0.34066
0.322382
0.30457
0.287596
0.272643
0.578383
0.564423
0.558502
0.553476
0.546205
0.535914
0.522644
0.506877
0.489205
0.470177
0.450263
0.429858
0.409289
0.388823
0.368684
0.349043
0.329977
0.311499
0.293931
0.278194
0.605148
0.590404
0.583285
0.576645
0.567557
0.555437
0.540425
0.523037
0.503869
0.483468
0.462298
0.440748
0.419138
0.397729
0.376735
0.356322
0.33657
0.317516
0.299426
0.282984
0.627816
0.612404
0.60426
0.596243
0.585608
0.571935
0.555447
0.536684
0.51625
0.494686
0.472453
0.449934
0.427443
0.405236
0.38352
0.362453
0.342123
0.322585
0.304051
0.286997
0.646189
0.630233
0.621252
0.612111
0.600218
0.585285
0.567598
0.547722
0.526261
0.503755
0.48066
0.457355
0.434151
0.411298
0.388998
0.367402
0.346605
0.326677
0.307782
0.29022
0.660108
0.64374
0.63412
0.624124
0.611274
0.595384
0.576789
0.556069
0.53383
0.51061
0.486863
0.462964
0.439219
0.415877
0.393134
0.371138
0.349989
0.329768
0.310597
0.292643
0.669452
0.652806
0.642755
0.632183
0.61869
0.602158
0.582953
0.561666
0.538905
0.515206
0.49102
0.466722
0.442615
0.418945
0.395905
0.37364
0.352255
0.331838
0.312481
0.29426
0.674141
0.657355
0.647088
0.636226
0.622409
0.605554
0.586043
0.564471
0.541448
0.517509
0.493103
0.468604
0.444316
0.420481
0.397292
0.374893
0.353389
0.332874
0.313424
0.295068
0.674133
0.657347
0.64708
0.636219
0.622402
0.605548
0.586037
0.564466
0.541443
0.517503
0.493098
0.4686
0.444311
0.420477
0.397288
0.374889
0.353385
0.33287
0.313421
0.295064
0.669429
0.652783
0.642733
0.632162
0.61867
0.602139
0.582935
0.561649
0.538888
0.51519
0.491005
0.466707
0.442601
0.418931
0.395892
0.373628
0.352243
0.331826
0.31247
0.294249
0.660069
0.643701
0.634083
0.624088
0.61124
0.595352
0.57676
0.55604
0.533803
0.510584
0.486838
0.46294
0.439196
0.415855
0.393113
0.371118
0.349969
0.329748
0.310578
0.292625
0.646135
0.63018
0.6212
0.612062
0.600171
0.58524
0.567556
0.547682
0.526223
0.503718
0.480625
0.457322
0.434119
0.411267
0.388968
0.367373
0.346577
0.32665
0.307755
0.290195
0.627746
0.612335
0.604194
0.596179
0.585547
0.571878
0.555393
0.536633
0.516201
0.494639
0.472408
0.449891
0.427401
0.405196
0.383482
0.362416
0.342087
0.32255
0.304017
0.286965
0.605063
0.590319
0.583203
0.576567
0.567483
0.555367
0.540359
0.522974
0.503809
0.48341
0.462243
0.440695
0.419087
0.39768
0.376688
0.356276
0.336526
0.317473
0.299385
0.282945
0.578282
0.564323
0.558405
0.553384
0.546118
0.535832
0.522566
0.506802
0.489134
0.470109
0.450198
0.429796
0.409229
0.388765
0.368628
0.348989
0.329925
0.311449
0.293882
0.278148
0.547635
0.534569
0.530005
0.526814
0.521618
0.513419
0.502144
0.488236
0.472279
0.454826
0.436353
0.417264
0.397891
0.378508
0.35935
0.340598
0.322322
0.304512
0.28754
0.27259
0.513389
0.501315
0.498242
0.497072
0.494172
0.488298
0.479245
0.467408
0.453363
0.437667
0.420803
0.403182
0.385144
0.366972
0.34891
0.331152
0.313762
0.296704
0.280392
0.266292
0.475842
0.464849
0.463381
0.464397
0.463994
0.460657
0.454035
0.444467
0.432519
0.418749
0.40365
0.38764
0.371069
0.354227
0.33737
0.320705
0.304294
0.288067
0.272475
0.25928
0.435321
0.425486
0.425715
0.429053
0.431319
0.430705
0.4267
0.419578
0.409891
0.398202
0.385009
0.370741
0.355755
0.340352
0.3248
0.309318
0.29397
0.278651
0.26383
0.251582
0.392182
0.383569
0.385561
0.391325
0.396399
0.398667
0.397439
0.392919
0.385639
0.376164
0.365003
0.352591
0.339297
0.325432
0.311272
0.297056
0.282849
0.268507
0.254503
0.24323
0.346799
0.339461
0.343259
0.351519
0.359508
0.364784
0.366467
0.364678
0.359929
0.352785
0.343762
0.333307
0.321799
0.309556
0.296867
0.283989
0.270992
0.257692
0.244543
0.234257
0.299571
0.293546
0.299165
0.309958
0.32093
0.32931
0.334009
0.335056
0.332938
0.32822
0.321426
0.313012
0.303366
0.292818
0.281669
0.270191
0.258466
0.246266
0.234001
0.224702
0.250911
0.246226
0.253653
0.266978
0.280967
0.292509
0.300299
0.304261
0.304852
0.302634
0.298139
0.291832
0.284113
0.275319
0.265762
0.255738
0.245341
0.234293
0.222933
0.214603
0.201244
0.197913
0.20711
0.22293
0.239928
0.254657
0.26558
0.272509
0.27586
0.276195
0.274049
0.269899
0.264153
0.25716
0.249239
0.240708
0.231687
0.221842
0.2114
0.203995
0.151004
0.149026
0.15993
0.178171
0.198132
0.216035
0.230101
0.240018
0.246158
0.249074
0.249309
0.247347
0.243607
0.238445
0.232189
0.225181
0.217578
0.208995
0.199477
0.192916
0.10063
0.0999897
0.112513
0.133065
0.155903
0.176928
0.194114
0.207012
0.215942
0.221447
0.224072
0.224311
0.222592
0.219281
0.214708
0.209235
0.20308
0.195831
0.187256
0.181372
0.0505586
0.0512266
0.0652616
0.0879792
0.113566
0.137623
0.157872
0.173715
0.185411
0.193487
0.198493
0.200928
0.20123
0.199773
0.196889
0.192949
0.188249
0.182431
0.174911
0.169396
0.00122534
0.00315181
0.0185752
0.0432779
0.0714469
0.0984072
0.121627
0.140349
0.154761
0.165371
0.172726
0.177333
0.179639
0.180027
0.178829
0.176409
0.173139
0.168842
0.162661
0.156911
-0.0469361
-0.0438302
-0.0271542
-0.000679488
0.0298662
0.059563
0.0856273
0.107133
0.124186
0.137267
0.146922
0.15366
0.157937
0.160145
0.160619
0.159701
0.157788
0.154984
0.150677
0.144376
-0.0935378
-0.0892996
-0.071554
-0.0435439
-0.0108621
0.0213667
0.0501165
0.0742826
0.0938757
0.109345
0.121229
0.13004
0.136238
0.140227
0.142347
0.142916
0.142311
0.140856
0.138418
0.133762
-0.138468
-0.132721
-0.114298
-0.0849802
-0.0504356
-0.015915
0.0153287
0.0420033
0.0640124
0.0817651
0.0957898
0.106598
0.114654
0.120369
0.124094
0.126134
0.126821
0.126594
0.125767
0.123056
-0.181016
-0.17387
-0.155154
-0.124688
-0.0885688
-0.0520278
-0.0185119
0.0104931
0.0347709
0.0546825
0.0707414
0.0834565
0.0932928
0.100667
0.10594
0.109417
0.111389
0.112312
0.112765
0.111619
-0.220845
-0.212574
-0.193404
-0.162516
-0.124999
-0.0867299
-0.0511933
-0.0200612
0.00631635
0.0282431
0.046213
0.0607292
0.0722553
0.0812097
0.087963
0.0928227
0.0960529
0.0980847
0.099621
0.0997231
-0.257724
-0.248513
-0.228962
-0.19786
-0.15955
-0.119797
-0.0825162
-0.049485
-0.0211972
0.00258343
0.0223256
0.0385234
0.0516366
0.0620825
0.0702361
0.0764111
0.0808555
0.0839655
0.0864987
0.0877086
-0.291468
-0.281397
-0.26168
-0.230533
-0.191847
-0.151042
-0.112297
-0.0776167
-0.0476278
-0.0221711
-0.000809121
0.0169385
0.0315248
0.0433637
0.0528308
0.060245
0.0658464
0.0699966
0.0734726
0.0757181
-0.32189
-0.311016
-0.291343
-0.260448
-0.221656
-0.180245
-0.140369
-0.10431
-0.0728463
-0.0459074
-0.0230899
-0.00393504
0.0120006
0.0251255
0.0358128
0.0443843
0.0510766
0.0562167
0.0605791
0.0637947
-0.348834
-0.337222
-0.317773
-0.287431
-0.248888
-0.207215
-0.166585
-0.129438
-0.096738
-0.068525
-0.0444262
-0.0240157
-0.0068636
0.00743315
0.0192415
0.0288835
0.0365942
0.0426647
0.0478516
0.0519728
-0.372197
-0.359918
-0.340846
-0.311328
-0.273407
-0.231846
-0.190818
-0.152904
-0.1192
-0.089937
-0.0647389
-0.043231
-0.0250044
-0.00965496
0.00316962
0.0137908
0.022443
0.0293801
0.0353281
0.0402942
-0.391932
-0.379065
-0.360497
-0.33204
-0.295097
-0.254038
-0.212971
-0.17461
-0.140204
-0.110046
-0.0839613
-0.0615184
-0.0423679
-0.0260869
-0.012357
-0.000851101
0.00866233
0.0163999
0.0230444
0.0287989
-0.408046
-0.394674
-0.376715
-0.349521
-0.313881
-0.273708
-0.232969
-0.194475
-0.159638
-0.128864
-0.102041
-0.078825
-0.0589089
-0.0418175
-0.0272995
-0.0150041
-0.00471423
0.00375803
0.0110298
0.0175204
-0.420604
-0.406815
-0.389542
-0.363777
-0.329729
-0.290804
-0.250759
-0.212452
-0.177452
-0.146301
-0.118965
-0.0951653
-0.0745667
-0.0568113
-0.0416257
-0.0286354
-0.0176597
-0.00851336
-0.000694675
0.00648346
-0.429722
-0.415609
-0.399076
-0.374862
-0.342652
-0.30531
-0.266314
-0.228518
-0.193627
-0.162326
-0.134679
-0.110463
-0.0893651
-0.0710749
-0.0552975
-0.0417201
-0.030154
-0.0203853
-0.0121041
-0.00430415
-0.435566
-0.421229
-0.405466
-0.382879
-0.352702
-0.317239
-0.279629
-0.242664
-0.208155
-0.176931
-0.149165
-0.124699
-0.103263
-0.084566
-0.0683275
-0.0542743
-0.0421658
-0.0318449
-0.0231497
-0.0148666
-0.438351
-0.423892
-0.408908
-0.38798
-0.359974
-0.326642
-0.290727
-0.254898
-0.221044
-0.190125
-0.162428
-0.137877
-0.116245
-0.0972675
-0.0806864
-0.0662486
-0.0537108
-0.042926
-0.0337387
-0.0252649
-0.438329
-0.423856
-0.409642
-0.390361
-0.364604
-0.3336
-0.299652
-0.26525
-0.232312
-0.201921
-0.174484
-0.150007
-0.128316
-0.109181
-0.092364
-0.0776338
-0.0647625
-0.0535923
-0.0439892
-0.0353316
-0.435785
-0.421409
-0.407945
-0.390262
-0.36677
-0.338228
-0.306478
-0.273765
-0.241994
-0.212349
-0.185354
-0.161106
-0.139491
-0.120315
-0.103367
-0.0884346
-0.0753108
-0.0638344
-0.053896
-0.0449539
-0.431028
-0.416862
-0.40412
-0.387952
-0.366686
-0.340675
-0.3113
-0.280509
-0.250139
-0.221446
-0.195068
-0.171199
-0.149789
-0.130686
-0.113706
-0.0986603
-0.0853597
-0.0736472
-0.0634308
-0.0541888
-0.424385
-0.41054
-0.398491
-0.383731
-0.364596
-0.34112
-0.314237
-0.285563
-0.256805
-0.229261
-0.203669
-0.18032
-0.159237
-0.140314
-0.123398
-0.108323
-0.0949184
-0.0830338
-0.072596
-0.0631111
-0.416186
-0.402771
-0.391386
-0.377913
-0.360774
-0.33977
-0.315435
-0.289023
-0.262064
-0.23585
-0.211202
-0.188508
-0.167868
-0.149226
-0.132462
-0.117438
-0.104
-0.0920064
-0.081407
-0.0717546
-0.406761
-0.393879
-0.383132
-0.37082
-0.35551
-0.336857
-0.315057
-0.291003
-0.265997
-0.241278
-0.217723
-0.19581
-0.175719
-0.157451
-0.140925
-0.126025
-0.112622
-0.100581
-0.0898748
-0.0801248
-0.396425
-0.384171
-0.374045
-0.362771
-0.349102
-0.332631
-0.313291
-0.291631
-0.268694
-0.245612
-0.223287
-0.202275
-0.182834
-0.165028
-0.148814
-0.134108
-0.120804
-0.108773
-0.0980075
-0.0882166
-0.385477
-0.373934
-0.364417
-0.354067
-0.341848
-0.327355
-0.310339
-0.291051
-0.270253
-0.248927
-0.227956
-0.207956
-0.18926
-0.171994
-0.156165
-0.141716
-0.128567
-0.116602
-0.105817
-0.0960302
-0.37419
-0.363425
-0.354512
-0.344988
-0.334032
-0.321292
-0.306418
-0.289419
-0.270782
-0.251298
-0.231791
-0.212906
-0.195043
-0.178393
-0.163012
-0.148878
-0.135936
-0.124086
-0.113319
-0.103575
-0.362804
-0.352871
-0.344563
-0.335783
-0.325918
-0.314701
-0.301751
-0.286905
-0.270396
-0.252806
-0.234853
-0.217177
-0.200231
-0.184268
-0.169395
-0.155626
-0.142938
-0.131248
-0.120534
-0.110865
-0.351529
-0.342462
-0.33476
-0.326662
-0.317739
-0.307824
-0.296562
-0.283685
-0.269223
-0.253537
-0.237203
-0.22082
-0.20487
-0.18966
-0.17535
-0.161995
-0.149601
-0.138114
-0.127484
-0.117919
-0.340538
-0.332353
-0.325262
-0.317797
-0.309691
-0.300879
-0.291065
-0.279944
-0.267396
-0.253579
-0.238902
-0.223883
-0.209003
-0.19461
-0.180916
-0.168019
-0.155956
-0.144707
-0.134192
-0.124754
-0.32997
-0.322667
-0.316185
-0.30932
-0.301931
-0.294049
-0.285457
-0.275863
-0.265056
-0.253028
-0.240011
-0.22641
-0.212668
-0.199156
-0.186131
-0.173733
-0.162033
-0.151056
-0.140681
-0.131389
-0.319929
-0.313491
-0.307615
-0.301325
-0.294578
-0.287482
-0.27991
-0.271614
-0.26235
-0.251987
-0.240595
-0.228441
-0.215898
-0.20333
-0.191026
-0.179171
-0.167864
-0.157186
-0.146977
-0.137845
-0.310492
-0.304887
-0.299607
-0.29387
-0.28771
-0.281289
-0.274563
-0.267353
-0.25942
-0.250564
-0.240723
-0.230018
-0.21872
-0.207157
-0.195629
-0.18436
-0.173477
-0.163126
-0.153102
-0.144143
-0.301707
-0.29689
-0.292188
-0.286988
-0.281372
-0.275542
-0.269524
-0.26321
-0.256401
-0.248874
-0.24047
-0.231181
-0.221155
-0.210653
-0.19996
-0.189327
-0.178902
-0.168901
-0.159084
-0.150304
-0.293599
-0.289515
-0.285368
-0.280685
-0.275582
-0.270281
-0.264863
-0.259289
-0.253414
-0.247027
-0.239919
-0.231976
-0.223224
-0.213829
-0.204029
-0.194087
-0.184158
-0.174535
-0.164945
-0.15635
-0.286175
-0.282762
-0.279138
-0.274951
-0.270336
-0.26552
-0.260623
-0.255664
-0.250558
-0.245128
-0.239156
-0.232456
-0.224947
-0.216686
-0.207836
-0.198646
-0.189262
-0.180049
-0.170708
-0.162303
-0.279426
-0.276616
-0.27348
-0.269764
-0.265613
-0.261249
-0.256818
-0.252381
-0.247908
-0.24327
-0.238267
-0.232682
-0.22635
-0.219225
-0.211371
-0.202998
-0.194217
-0.185457
-0.17639
-0.168187
-0.27333
-0.271053
-0.268364
-0.265092
-0.261382
-0.257446
-0.253441
-0.249458
-0.245513
-0.241527
-0.237334
-0.232718
-0.227466
-0.221446
-0.214616
-0.207121
-0.19901
-0.190759
-0.182006
-0.174018
-0.267855
-0.26604
-0.263757
-0.260898
-0.257607
-0.254078
-0.250471
-0.246896
-0.243401
-0.239952
-0.236426
-0.232631
-0.228338
-0.223357
-0.21755
-0.210983
-0.203615
-0.195944
-0.187541
-0.179849
-0.26296
-0.261537
-0.259618
-0.257142
-0.254245
-0.251106
-0.247877
-0.244678
-0.241579
-0.23858
-0.2356
-0.232483
-0.229014
-0.224975
-0.220156
-0.214542
-0.207979
-0.200981
-0.192984
-0.185653
-0.258596
-0.257502
-0.255905
-0.253781
-0.251255
-0.248486
-0.24562
-0.242777
-0.240036
-0.237423
-0.234893
-0.23233
-0.229547
-0.226329
-0.222427
-0.21775
-0.212057
-0.205782
-0.198297
-0.191547
-0.254709
-0.253886
-0.252572
-0.250769
-0.24859
-0.246175
-0.243657
-0.241154
-0.238748
-0.236477
-0.234325
-0.232212
-0.229987
-0.227458
-0.224371
-0.220578
-0.215766
-0.210318
-0.203315
-0.197287
-0.251241
-0.250638
-0.249573
-0.248062
-0.246206
-0.244126
-0.241944
-0.239768
-0.237679
-0.235722
-0.233898
-0.232153
-0.230377
-0.228405
-0.226012
-0.223002
-0.219105
-0.214286
-0.208727
-0.201633
-0.24813
-0.247709
-0.24686
-0.245615
-0.244058
-0.242295
-0.240434
-0.238574
-0.236789
-0.235125
-0.233593
-0.23216
-0.230743
-0.229214
-0.227391
-0.225017
-0.222088
-0.217555
-0.214114
-0.205379
-0.245318
-0.245047
-0.244388
-0.243384
-0.242104
-0.240638
-0.239082
-0.237524
-0.236031
-0.234646
-0.233382
-0.232219
-0.231099
-0.229917
-0.228552
-0.22665
-0.224711
-0.220059
-0.219002
-0.208632
-0.242746
-0.242605
-0.242114
-0.241328
-0.240303
-0.239114
-0.237846
-0.236574
-0.23536
-0.234239
-0.233226
-0.232306
-0.231435
-0.23053
-0.229531
-0.227957
-0.226953
-0.221873
-0.223406
-0.211099
-0.240362
-0.240337
-0.240002
-0.239413
-0.23862
-0.237687
-0.236686
-0.235684
-0.234732
-0.233861
-0.233083
-0.232385
-0.231732
-0.231057
-0.230341
-0.229008
-0.228783
-0.223219
-0.227272
-0.212709
-0.238122
-0.238209
-0.238017
-0.237607
-0.237025
-0.236326
-0.235572
-0.234819
-0.234111
-0.233473
-0.232912
-0.232418
-0.23196
-0.231483
-0.230984
-0.229867
-0.230162
-0.224372
-0.230321
-0.213739
-0.235988
-0.236192
-0.236132
-0.235886
-0.235497
-0.23501
-0.234479
-0.233953
-0.233467
-0.233042
-0.232681
-0.232373
-0.232089
-0.231787
-0.231452
-0.230559
-0.231085
-0.225517
-0.23229
-0.21467
-0.233936
-0.234262
-0.234329
-0.234234
-0.234018
-0.233721
-0.23339
-0.233067
-0.232781
-0.232547
-0.232366
-0.232224
-0.232095
-0.231945
-0.231739
-0.231073
-0.231599
-0.226657
-0.233181
-0.215874
-0.23195
-0.232408
-0.232598
-0.232639
-0.23258
-0.232451
-0.232297
-0.232152
-0.232041
-0.231975
-0.231952
-0.231956
-0.231963
-0.231941
-0.231841
-0.231381
-0.231787
-0.227672
-0.233244
-0.217393
-0.230024
-0.230624
-0.230932
-0.2311
-0.23118
-0.2312
-0.231199
-0.231208
-0.231248
-0.231327
-0.231438
-0.231567
-0.231688
-0.231772
-0.231762
-0.231464
-0.231731
-0.228423
-0.232802
-0.219012
-0.228163
-0.228913
-0.229336
-0.22962
-0.229824
-0.229973
-0.230103
-0.230244
-0.230411
-0.23061
-0.230834
-0.231065
-0.23128
-0.231448
-0.231511
-0.231314
-0.231509
-0.22882
-0.232117
-0.220479
-0.226379
-0.227284