/*--------------------------------*- C++ -*----------------------------------*\
  =========                 |
  \\      /  F ield         | OpenFOAM: The Open Source CFD Toolbox
   \\    /   O peration     | Website:  https://openfoam.org
    \\  /    A nd           | Version:  7
     \\/     M anipulation  |
\*---------------------------------------------------------------------------*/
FoamFile
{
    version     2.0;
    format      ascii;
    class       volScalarField;
    location    "2.4";
    object      rho;
}
// * * * * * * * * * * * * * * * * * * * * * * * * * * * * * * * * * * * * * //

dimensions      [1 -3 0 0 0 0 0];

internalField   nonuniform List<scalar> 
197568
(
1.40001
1.40001
1.40001
1.40001
1.40001
1.40001
1.40001
1.40001
1.40001
1.40001
1.40001
1.40001
1.40001
1.40001
1.40001
1.40001
1.40001
1.40001
1.40001
1.40001
1.40001
1.40001
1.40001
1.40001
1.40001
1.40001
1.40001
1.40001
1.40001
1.40001
1.40001
1.40001
1.40001
1.40001
1.40001
1.40001
1.40001
1.40001
1.40001
1.40001
1.40001
1.40001
1.40001
1.40001
1.40001
1.40001
1.40001
1.40001
1.40001
1.40001
1.40001
1.40001
1.40001
1.40001
1.40001
1.40001
1.40001
1.40001
1.40001
1.40001
1.40001
1.40001
1.40001
1.40001
1.40001
1.40001
1.40001
1.40001
1.40001
1.40001
1.40001
1.40001
1.40001
1.40001
1.40001
1.40001
1.40001
1.40001
1.40001
1.40001
1.40001
1.40001
1.40001
1.40001
1.40001
1.40001
1.40863
4.09201
5.41743
5.44486
5.45399
5.46373
5.47314
5.48359
5.49387
5.50344
5.51287
5.52449
5.53877
5.55384
5.56855
5.58189
5.59347
5.6043
5.61556
5.62749
5.6389
5.64806
5.65442
5.65944
5.66583
5.67519
5.68738
5.70135
5.71598
5.72949
5.74044
5.74781
5.75199
5.75474
5.75851
5.76568
5.77752
5.79338
5.81031
5.82419
5.83192
5.83363
5.83278
5.83401
5.84108
5.85383
5.86791
5.87827
5.88301
5.88432
5.88645
5.89322
5.90541
5.91901
5.92895
5.93328
5.9349
5.9374
5.9431
5.95187
5.95986
5.96323
5.96165
5.95825
5.95653
5.95956
5.96728
5.97548
5.98076
5.98397
5.98626
5.98787
5.99039
5.99233
5.99216
5.98986
5.98334
5.97301
5.96083
5.95044
5.9448
5.94195
1.40001
1.40001
1.40001
1.40001
1.40001
1.40001
1.40001
1.40001
1.40001
1.40001
1.40001
1.40001
1.40001
1.40001
1.40001
1.40001
1.40001
1.40001
1.40001
1.40001
1.40001
1.40001
1.40001
1.40001
1.40001
1.40001
1.40001
1.40001
1.40001
1.40001
1.40001
1.40001
1.40001
1.40001
1.40001
1.40001
1.40001
1.40001
1.40001
1.40001
1.40001
1.40001
1.40001
1.40001
1.40001
1.40001
1.40001
1.40001
1.40001
1.40001
1.40001
1.40001
1.40001
1.40001
1.40001
1.40001
1.40001
1.40001
1.40001
1.40001
1.40001
1.40001
1.40001
1.40001
1.40001
1.40001
1.40001
1.40001
1.40001
1.40001
1.40001
1.40001
1.40001
1.40001
1.40001
1.40001
1.40001
1.40001
1.40001
1.40001
1.40001
1.40001
1.40001
1.40001
1.40001
1.40001
1.40446
4.08483
5.41893
5.44486
5.4542
5.46309
5.47242
5.48319
5.49413
5.50426
5.51363
5.52399
5.53713
5.55257
5.56866
5.58362
5.59619
5.60656
5.61594
5.62567
5.63613
5.64622
5.6544
5.66079
5.66724
5.67563
5.68659
5.69998
5.71485
5.72894
5.74018
5.74743
5.75141
5.75419
5.75832
5.76598
5.77804
5.79365
5.80999
5.82337
5.83111
5.83336
5.83319
5.8351
5.84231
5.85447
5.86767
5.87742
5.88225
5.88413
5.88683
5.89409
5.90627
5.91932
5.92845
5.93226
5.9339
5.93678
5.94309
5.95239
5.96043
5.9635
5.96145
5.9576
5.95572
5.95883
5.96681
5.97525
5.98058
5.98371
5.98595
5.98754
5.99006
5.99191
5.99155
5.98912
5.98264
5.97252
5.96061
5.95039
5.94473
5.94171
1.40001
1.40001
1.40001
1.40001
1.40001
1.40001
1.40001
1.40001
1.40001
1.40001
1.40001
1.40001
1.40001
1.40001
1.40001
1.40001
1.40001
1.40001
1.40001
1.40001
1.40001
1.40001
1.40001
1.40001
1.40001
1.40001
1.40001
1.40001
1.40001
1.40001
1.40001
1.40001
1.40001
1.40001
1.40001
1.40001
1.40001
1.40001
1.40001
1.40001
1.40001
1.40001
1.40001
1.40001
1.40001
1.40001
1.40001
1.40001
1.40001
1.40001
1.40001
1.40001
1.40001
1.40001
1.40001
1.40001
1.40001
1.40001
1.40001
1.40001
1.40001
1.40001
1.40001
1.40001
1.40001
1.40001
1.40001
1.40001
1.40001
1.40001
1.40001
1.40001
1.40001
1.40001
1.40001
1.40001
1.40001
1.40001
1.40001
1.40001
1.40001
1.40001
1.40001
1.40001
1.40001
1.40001
1.40028
4.06839
5.42088
5.44455
5.45334
5.46186
5.47123
5.48226
5.49374
5.50441
5.51396
5.52351
5.53531
5.55054
5.56782
5.58465
5.59875
5.60919
5.61705
5.62445
5.63321
5.64347
5.65345
5.66177
5.66897
5.67661
5.68606
5.69849
5.71327
5.72797
5.73984
5.7472
5.75087
5.75337
5.75766
5.76589
5.77844
5.79404
5.80982
5.82231
5.82942
5.8318
5.83247
5.83551
5.84337
5.85502
5.86688
5.87542
5.87994
5.88237
5.88603
5.89423
5.90681
5.91932
5.92741
5.93058
5.93223
5.93562
5.94275
5.95279
5.96099
5.96368
5.96112
5.95671
5.95457
5.95771
5.96597
5.97475
5.98025
5.98338
5.98559
5.98715
5.98962
5.99132
5.99069
5.98809
5.98166
5.97178
5.96018
5.9502
5.94457
5.94138
1.40001
1.40001
1.40001
1.40001
1.40001
1.40001
1.40001
1.40001
1.40001
1.40001
1.40001
1.40001
1.40001
1.40001
1.40001
1.40001
1.40001
1.40001
1.40001
1.40001
1.40001
1.40001
1.40001
1.40001
1.40001
1.40001
1.40001
1.40001
1.40001
1.40001
1.40001
1.40001
1.40001
1.40001
1.40001
1.40001
1.40001
1.40001
1.40001
1.40001
1.40001
1.40001
1.40001
1.40001
1.40001
1.40001
1.40001
1.40001
1.40001
1.40001
1.40001
1.40001
1.40001
1.40001
1.40001
1.40001
1.40001
1.40001
1.40001
1.40001
1.40001
1.40001
1.40001
1.40001
1.40001
1.40001
1.40001
1.40001
1.40001
1.40001
1.40001
1.40001
1.40001
1.40001
1.40001
1.40001
1.40001
1.40001
1.40001
1.40001
1.40001
1.40001
1.40001
1.40001
1.40001
1.40001
1.40001
4.03972
5.42039
5.44411
5.45235
5.46086
5.47031
5.48142
5.493
5.50369
5.51313
5.52237
5.53351
5.54855
5.56677
5.5851
5.60028
5.61076
5.61768
5.6236
5.631
5.641
5.6522
5.66216
5.67009
5.67722
5.68546
5.69706
5.71164
5.72682
5.73937
5.74703
5.75053
5.75271
5.7569
5.76557
5.77847
5.79397
5.80919
5.82102
5.82783
5.83051
5.83219
5.83634
5.8445
5.85532
5.86585
5.87357
5.87809
5.88112
5.88584
5.89488
5.90733
5.91884
5.92575
5.9285
5.93045
5.93462
5.94272
5.95347
5.96149
5.96357
5.96037
5.95538
5.953
5.95618
5.96474
5.97389
5.9796
5.98279
5.98502
5.98658
5.98889
5.99028
5.98925
5.98647
5.98024
5.97079
5.95963
5.94988
5.94416
5.94066
1.40001
1.40001
1.40001
1.40001
1.40001
1.40001
1.40001
1.40001
1.40001
1.40001
1.40001
1.40001
1.40001
1.40001
1.40001
1.40001
1.40001
1.40001
1.40001
1.40001
1.40001
1.40001
1.40001
1.40001
1.40001
1.40001
1.40001
1.40001
1.40001
1.40001
1.40001
1.40001
1.40001
1.40001
1.40001
1.40001
1.40001
1.40001
1.40001
1.40001
1.40001
1.40001
1.40001
1.40001
1.40001
1.40001
1.40001
1.40001
1.40001
1.40001
1.40001
1.40001
1.40001
1.40001
1.40001
1.40001
1.40001
1.40001
1.40001
1.40001
1.40001
1.40001
1.40001
1.40001
1.40001
1.40001
1.40001
1.40001
1.40001
1.40001
1.40001
1.40001
1.40001
1.40001
1.40001
1.40001
1.40001
1.40001
1.40001
1.40001
1.40001
1.40001
1.40001
1.40001
1.40001
1.40001
1.40001
3.99995
5.41779
5.44265
5.45086
5.45991
5.46963
5.48076
5.49206
5.50221
5.51121
5.52035
5.53154
5.54665
5.56524
5.58417
5.59996
5.61089
5.61784
5.62345
5.63018
5.6394
5.65053
5.66134
5.67009
5.67726
5.68489
5.69591
5.71015
5.72555
5.73873
5.7469
5.75048
5.7525
5.7563
5.76485
5.77779
5.79317
5.80797
5.81941
5.82624
5.8295
5.83216
5.83698
5.84496
5.85475
5.86404
5.87127
5.87615
5.88023
5.88606
5.89549
5.90721
5.91739
5.92332
5.92615
5.92885
5.93409
5.943
5.95393
5.96147
5.96283
5.9591
5.95378
5.95133
5.95448
5.96317
5.97258
5.97856
5.98196
5.98435
5.98601
5.98804
5.98888
5.98734
5.98437
5.97851
5.96969
5.95905
5.94944
5.94341
5.9395
1.40001
1.40001
1.40001
1.40001
1.40001
1.40001
1.40001
1.40001
1.40001
1.40001
1.40001
1.40001
1.40001
1.40001
1.40001
1.40001
1.40001
1.40001
1.40001
1.40001
1.40001
1.40001
1.40001
1.40001
1.40001
1.40001
1.40001
1.40001
1.40001
1.40001
1.40001
1.40001
1.40001
1.40001
1.40001
1.40001
1.40001
1.40001
1.40001
1.40001
1.40001
1.40001
1.40001
1.40001
1.40001
1.40001
1.40001
1.40001
1.40001
1.40001
1.40001
1.40001
1.40001
1.40001
1.40001
1.40001
1.40001
1.40001
1.40001
1.40001
1.40001
1.40001
1.40001
1.40001
1.40001
1.40001
1.40001
1.40001
1.40001
1.40001
1.40001
1.40001
1.40001
1.40001
1.40001
1.40001
1.40001
1.40001
1.40001
1.40001
1.40001
1.40001
1.40001
1.40001
1.40001
1.40001
1.40001
3.94823
5.41268
5.43971
5.44929
5.45929
5.46917
5.48007
5.49102
5.50067
5.50916
5.51803
5.52924
5.54431
5.56295
5.58212
5.59844
5.61011
5.61779
5.62376
5.63038
5.63893
5.64915
5.65967
5.66888
5.67651
5.68425
5.69502
5.70886
5.72413
5.73766
5.74641
5.75039
5.75256
5.75605
5.76395
5.77627
5.79116
5.80565
5.81716
5.82461
5.82894
5.83245
5.8373
5.84448
5.85292
5.86123
5.8685
5.87442
5.88006
5.88695
5.89602
5.90629
5.91488
5.9202
5.92373
5.92783
5.93429
5.94359
5.95394
5.96063
5.96122
5.95729
5.9521
5.94983
5.95289
5.96128
5.97058
5.9769
5.98079
5.9836
5.98549
5.98712
5.98717
5.98498
5.98181
5.97649
5.96848
5.95844
5.94884
5.94223
5.9378
1.40001
1.40001
1.40001
1.40001
1.40001
1.40001
1.40001
1.40001
1.40001
1.40001
1.40001
1.40001
1.40001
1.40001
1.40001
1.40001
1.40001
1.40001
1.40001
1.40001
1.40001
1.40001
1.40001
1.40001
1.40001
1.40001
1.40001
1.40001
1.40001
1.40001
1.40001
1.40001
1.40001
1.40001
1.40001
1.40001
1.40001
1.40001
1.40001
1.40001
1.40001
1.40001
1.40001
1.40001
1.40001
1.40001
1.40001
1.40001
1.40001
1.40001
1.40001
1.40001
1.40001
1.40001
1.40001
1.40001
1.40001
1.40001
1.40001
1.40001
1.40001
1.40001
1.40001
1.40001
1.40001
1.40001
1.40001
1.40001
1.40001
1.40001
1.40001
1.40001
1.40001
1.40001
1.40001
1.40001
1.40001
1.40001
1.40001
1.40001
1.40001
1.40001
1.40001
1.40001
1.40001
1.40001
1.40001
3.88395
5.40544
5.4352
5.44765
5.45906
5.46876
5.4791
5.48977
5.49923
5.50749
5.51603
5.52687
5.54148
5.55969
5.57897
5.59601
5.60874
5.61746
5.62399
5.63058
5.63858
5.64791
5.65791
5.66724
5.67532
5.68354
5.69427
5.70766
5.72256
5.73624
5.74553
5.75019
5.75288
5.75628
5.76333
5.77438
5.78819
5.80223
5.81418
5.82291
5.82874
5.83307
5.83757
5.84331
5.84993
5.85741
5.86529
5.87301
5.88062
5.88843
5.89648
5.90453
5.91136
5.91649
5.92136
5.92736
5.93503
5.94425
5.95336
5.95866
5.95867
5.955
5.9505
5.94866
5.95151
5.95908
5.96779
5.97442
5.97914
5.9827
5.98497
5.98623
5.9853
5.98227
5.97888
5.97423
5.96717
5.95774
5.94807
5.94066
5.93572
1.40001
1.40001
1.40001
1.40001
1.40001
1.40001
1.40001
1.40001
1.40001
1.40001
1.40001
1.40001
1.40001
1.40001
1.40001
1.40001
1.40001
1.40001
1.40001
1.40001
1.40001
1.40001
1.40001
1.40001
1.40001
1.40001
1.40001
1.40001
1.40001
1.40001
1.40001
1.40001
1.40001
1.40001
1.40001
1.40001
1.40001
1.40001
1.40001
1.40001
1.40001
1.40001
1.40001
1.40001
1.40001
1.40001
1.40001
1.40001
1.40001
1.40001
1.40001
1.40001
1.40001
1.40001
1.40001
1.40001
1.40001
1.40001
1.40001
1.40001
1.40001
1.40001
1.40001
1.40001
1.40001
1.40001
1.40001
1.40001
1.40001
1.40001
1.40001
1.40001
1.40001
1.40001
1.40001
1.40001
1.40001
1.40001
1.40001
1.40001
1.40001
1.40001
1.40001
1.40001
1.40001
1.40001
1.40001
3.80733
5.39644
5.43043
5.44551
5.45872
5.46854
5.47805
5.48819
5.49774
5.50614
5.51452
5.52475
5.53848
5.55588
5.57506
5.59287
5.60681
5.61658
5.62373
5.63042
5.638
5.64654
5.65598
5.66543
5.67402
5.68281
5.69348
5.70632
5.72058
5.73414
5.74394
5.74961
5.75328
5.75685
5.76297
5.77231
5.78452
5.79786
5.81051
5.82108
5.82877
5.834
5.83785
5.84153
5.84607
5.85287
5.86183
5.87184
5.88169
5.89012
5.89671
5.90212
5.9071
5.91251
5.91916
5.92715
5.93595
5.94465
5.95189
5.95557
5.95531
5.95242
5.94908
5.94788
5.95038
5.95666
5.9643
5.97113
5.97693
5.98159
5.98442
5.98533
5.98338
5.97944
5.97573
5.97172
5.96561
5.95678
5.94697
5.93869
5.93341
1.40001
1.40001
1.40001
1.40001
1.40001
1.40001
1.40001
1.40001
1.40001
1.40001
1.40001
1.40001
1.40001
1.40001
1.40001
1.40001
1.40001
1.40001
1.40001
1.40001
1.40001
1.40001
1.40001
1.40001
1.40001
1.40001
1.40001
1.40001
1.40001
1.40001
1.40001
1.40001
1.40001
1.40001
1.40001
1.40001
1.40001
1.40001
1.40001
1.40001
1.40001
1.40001
1.40001
1.40001
1.40001
1.40001
1.40001
1.40001
1.40001
1.40001
1.40001
1.40001
1.40001
1.40001
1.40001
1.40001
1.40001
1.40001
1.40001
1.40001
1.40001
1.40001
1.40001
1.40001
1.40001
1.40001
1.40001
1.40001
1.40001
1.40001
1.40001
1.40001
1.40001
1.40001
1.40001
1.40001
1.40001
1.40001
1.40001
1.40001
1.40001
1.40001
1.40001
1.40001
1.40001
1.40001
1.40001
3.7186
5.38432
5.42735
5.44365
5.45807
5.46838
5.47747
5.48687
5.49626
5.5048
5.51311
5.52289
5.53576
5.55224
5.57091
5.58913
5.6041
5.61493
5.62284
5.62981
5.6372
5.6452
5.65418
5.66373
5.67282
5.68212
5.69258
5.70466
5.71806
5.73132
5.74164
5.74865
5.75365
5.75766
5.76286
5.77027
5.78054
5.793
5.8064
5.81887
5.8285
5.83455
5.83762
5.83922
5.84184
5.84807
5.85833
5.87079
5.88268
5.89134
5.89644
5.8994
5.90275
5.90862
5.91713
5.92695
5.93651
5.94433
5.94949
5.95175
5.9516
5.94988
5.94799
5.94743
5.94932
5.95396
5.96024
5.96719
5.97429
5.98029
5.98377
5.9843
5.98134
5.97651
5.97245
5.96893
5.96366
5.95533
5.94538
5.93634
5.93105
1.40001
1.40001
1.40001
1.40001
1.40001
1.40001
1.40001
1.40001
1.40001
1.40001
1.40001
1.40001
1.40001
1.40001
1.40001
1.40001
1.40001
1.40001
1.40001
1.40001
1.40001
1.40001
1.40001
1.40001
1.40001
1.40001
1.40001
1.40001
1.40001
1.40001
1.40001
1.40001
1.40001
1.40001
1.40001
1.40001
1.40001
1.40001
1.40001
1.40001
1.40001
1.40001
1.40001
1.40001
1.40001
1.40001
1.40001
1.40001
1.40001
1.40001
1.40001
1.40001
1.40001
1.40001
1.40001
1.40001
1.40001
1.40001
1.40001
1.40001
1.40001
1.40001
1.40001
1.40001
1.40001
1.40001
1.40001
1.40001
1.40001
1.40001
1.40001
1.40001
1.40001
1.40001
1.40001
1.40001
1.40001
1.40001
1.40001
1.40001
1.40001
1.40001
1.40001
1.40001
1.40001
1.40001
1.40001
3.6181
5.36739
5.42589
5.44214
5.45731
5.4683
5.47753
5.48639
5.49533
5.5037
5.51181
5.52118
5.5334
5.54907
5.56694
5.58501
5.60065
5.61246
5.62124
5.62872
5.63623
5.64405
5.65275
5.66239
5.67191
5.68148
5.69146
5.70255
5.71494
5.72789
5.73887
5.74741
5.7538
5.75825
5.76261
5.76824
5.77675
5.78847
5.80246
5.81639
5.82756
5.83423
5.83651
5.8365
5.83783
5.84374
5.85519
5.86969
5.88304
5.8917
5.89539
5.89655
5.89896
5.90533
5.91525
5.92629
5.93597
5.94263
5.94614
5.94752
5.94787
5.94767
5.94714
5.94692
5.9479
5.95074
5.95566
5.96278
5.97132
5.97884
5.98295
5.983
5.97911
5.97353
5.96914
5.96596
5.9613
5.95332
5.94328
5.93376
5.92884
1.40001
1.40001
1.40001
1.40001
1.40001
1.40001
1.40001
1.40001
1.40001
1.40001
1.40001
1.40001
1.40001
1.40001
1.40001
1.40001
1.40001
1.40001
1.40001
1.40001
1.40001
1.40001
1.40001
1.40001
1.40001
1.40001
1.40001
1.40001
1.40001
1.40001
1.40001
1.40001
1.40001
1.40001
1.40001
1.40001
1.40001
1.40001
1.40001
1.40001
1.40001
1.40001
1.40001
1.40001
1.40001
1.40001
1.40001
1.40001
1.40001
1.40001
1.40001
1.40001
1.40001
1.40001
1.40001
1.40001
1.40001
1.40001
1.40001
1.40001
1.40001
1.40001
1.40001
1.40001
1.40001
1.40001
1.40001
1.40001
1.40001
1.40001
1.40001
1.40001
1.40001
1.40001
1.40001
1.40001
1.40001
1.40001
1.40001
1.40001
1.40001
1.40001
1.40001
1.40001
1.40001
1.40001
1.40001
3.5068
5.34603
5.42489
5.44009
5.45573
5.46801
5.47828
5.4873
5.49559
5.50329
5.51096
5.51981
5.53146
5.54636
5.56333
5.58082
5.59673
5.60934
5.619
5.62719
5.63517
5.64321
5.65179
5.66141
5.67108
5.68052
5.68975
5.69987
5.71146
5.72426
5.73599
5.74591
5.7534
5.75815
5.76183
5.76616
5.77353
5.78485
5.7992
5.81388
5.82578
5.83259
5.83425
5.83347
5.83439
5.84054
5.85294
5.86853
5.88239
5.8907
5.89336
5.89367
5.89599
5.90295
5.9135
5.92478
5.93391
5.9394
5.94193
5.94314
5.94454
5.94594
5.9466
5.94625
5.94589
5.94695
5.95079
5.95832
5.96837
5.97734
5.98195
5.98138
5.97662
5.97044
5.96581
5.96277
5.95842
5.95061
5.94053
5.93096
5.9268
1.40001
1.40001
1.40001
1.40001
1.40001
1.40001
1.40001
1.40001
1.40001
1.40001
1.40001
1.40001
1.40001
1.40001
1.40001
1.40001
1.40001
1.40001
1.40001
1.40001
1.40001
1.40001
1.40001
1.40001
1.40001
1.40001
1.40001
1.40001
1.40001
1.40001
1.40001
1.40001
1.40001
1.40001
1.40001
1.40001
1.40001
1.40001
1.40001
1.40001
1.40001
1.40001
1.40001
1.40001
1.40001
1.40001
1.40001
1.40001
1.40001
1.40001
1.40001
1.40001
1.40001
1.40001
1.40001
1.40001
1.40001
1.40001
1.40001
1.40001
1.40001
1.40001
1.40001
1.40001
1.40001
1.40001
1.40001
1.40001
1.40001
1.40001
1.40001
1.40001
1.40001
1.40001
1.40001
1.40001
1.40001
1.40001
1.40001
1.40001
1.40001
1.40001
1.40001
1.40001
1.40001
1.40001
1.40001
3.38689
5.32129
5.42244
5.43645
5.45272
5.46688
5.47911
5.48938
5.49753
5.50429
5.51097
5.51904
5.52992
5.54396
5.56006
5.57683
5.59276
5.60597
5.6164
5.62545
5.63426
5.64286
5.6514
5.66072
5.67008
5.67887
5.68726
5.69675
5.70803
5.721
5.7334
5.7442
5.75221
5.75704
5.76039
5.76426
5.77134
5.78262
5.79696
5.81145
5.82294
5.82929
5.83066
5.8299
5.83143
5.83856
5.85165
5.86729
5.88064
5.8882
5.89047
5.89102
5.89404
5.90153
5.91197
5.92239
5.93023
5.93478
5.93708
5.9389
5.94188
5.94484
5.94607
5.94506
5.94309
5.94247
5.94569
5.95399
5.9656
5.97571
5.98041
5.97915
5.97376
5.96724
5.96249
5.95939
5.95504
5.94722
5.93721
5.92806
5.92494
1.40001
1.40001
1.40001
1.40001
1.40001
1.40001
1.40001
1.40001
1.40001
1.40001
1.40001
1.40001
1.40001
1.40001
1.40001
1.40001
1.40001
1.40001
1.40001
1.40001
1.40001
1.40001
1.40001
1.40001
1.40001
1.40001
1.40001
1.40001
1.40001
1.40001
1.40001
1.40001
1.40001
1.40001
1.40001
1.40001
1.40001
1.40001
1.40001
1.40001
1.40001
1.40001
1.40001
1.40001
1.40001
1.40001
1.40001
1.40001
1.40001
1.40001
1.40001
1.40001
1.40001
1.40001
1.40001
1.40001
1.40001
1.40001
1.40001
1.40001
1.40001
1.40001
1.40001
1.40001
1.40001
1.40001
1.40001
1.40001
1.40001
1.40001
1.40001
1.40001
1.40001
1.40001
1.40001
1.40001
1.40001
1.40001
1.40001
1.40001
1.40001
1.40001
1.40001
1.40001
1.40001
1.40001
1.40001
3.25931
5.29464
5.4179
5.43043
5.448
5.46413
5.47921
5.49168
5.50071
5.50688
5.51234
5.5192
5.52901
5.54201
5.55715
5.57313
5.58888
5.60252
5.61363
5.62365
5.6335
5.64282
5.6513
5.66001
5.66859
5.67645
5.68426
5.69365
5.70511
5.71838
5.73115
5.74212
5.75001
5.75474
5.7583
5.76254
5.77004
5.78142
5.79531
5.80885
5.81919
5.82471
5.82603
5.82606
5.82917
5.8378
5.85111
5.86582
5.87779
5.8845
5.88699
5.88868
5.89292
5.90067
5.91016
5.91885
5.92512
5.92901
5.93169
5.93489
5.93989
5.94415
5.94538
5.94323
5.93936
5.93747
5.94069
5.95013
5.96322
5.97393
5.97825
5.97628
5.97053
5.964
5.95927
5.95591
5.95119
5.94319
5.93334
5.92503
5.92309
1.40001
1.40001
1.40001
1.40001
1.40001
1.40001
1.40001
1.40001
1.40001
1.40001
1.40001
1.40001
1.40001
1.40001
1.40001
1.40001
1.40001
1.40001
1.40001
1.40001
1.40001
1.40001
1.40001
1.40001
1.40001
1.40001
1.40001
1.40001
1.40001
1.40001
1.40001
1.40001
1.40001
1.40001
1.40001
1.40001
1.40001
1.40001
1.40001
1.40001
1.40001
1.40001
1.40001
1.40001
1.40001
1.40001
1.40001
1.40001
1.40001
1.40001
1.40001
1.40001
1.40001
1.40001
1.40001
1.40001
1.40001
1.40001
1.40001
1.40001
1.40001
1.40001
1.40001
1.40001
1.40001
1.40001
1.40001
1.40001
1.40001
1.40001
1.40001
1.40001
1.40001
1.40001
1.40001
1.40001
1.40001
1.40001
1.40001
1.40001
1.40001
1.40001
1.40001
1.40001
1.40001
1.40001
1.40001
3.12361
5.26679
5.41253
5.42351
5.44243
5.46014
5.4775
5.49265
5.5036
5.51036
5.51503
5.52049
5.52878
5.5405
5.55474
5.56992
5.58535
5.59929
5.61104
5.62205
5.63297
5.64293
5.65124
5.65904
5.6665
5.67336
5.68088
5.69054
5.70244
5.71604
5.72897
5.73967
5.74724
5.75204
5.75621
5.76126
5.76938
5.78071
5.79372
5.80577
5.81455
5.8192
5.82083
5.82252
5.82783
5.83766
5.85054
5.86363
5.87394
5.88008
5.88338
5.88673
5.89228
5.89994
5.9078
5.9143
5.91911
5.92263
5.92613
5.93126
5.93832
5.9435
5.9442
5.94059
5.93502
5.93235
5.93604
5.94688
5.9611
5.97176
5.97525
5.97257
5.96679
5.96066
5.95613
5.95237
5.94693
5.93858
5.92897
5.92175
5.92103
1.40001
1.40001
1.40001
1.40001
1.40001
1.40001
1.40001
1.40001
1.40001
1.40001
1.40001
1.40001
1.40001
1.40001
1.40001
1.40001
1.40001
1.40001
1.40001
1.40001
1.40001
1.40001
1.40001
1.40001
1.40001
1.40001
1.40001
1.40001
1.40001
1.40001
1.40001
1.40001
1.40001
1.40001
1.40001
1.40001
1.40001
1.40001
1.40001
1.40001
1.40001
1.40001
1.40001
1.40001
1.40001
1.40001
1.40001
1.40001
1.40001
1.40001
1.40001
1.40001
1.40001
1.40001
1.40001
1.40001
1.40001
1.40001
1.40001
1.40001
1.40001
1.40001
1.40001
1.40001
1.40001
1.40001
1.40001
1.40001
1.40001
1.40001
1.40001
1.40001
1.40001
1.40001
1.40001
1.40001
1.40001
1.40001
1.40001
1.40001
1.40001
1.40001
1.40001
1.40001
1.40001
1.40001
1.40001
2.97897
5.23754
5.4079
5.41747
5.43718
5.45574
5.47447
5.49132
5.50473
5.51314
5.51814
5.52264
5.52929
5.53937
5.55236
5.5667
5.58174
5.59597
5.60835
5.62032
5.63227
5.64294
5.65122
5.65827
5.66477
5.67087
5.6782
5.68797
5.69998
5.71359
5.72635
5.73665
5.74413
5.7493
5.75422
5.76005
5.76859
5.77956
5.79141
5.80186
5.80926
5.81353
5.81607
5.81979
5.82705
5.8375
5.84945
5.86071
5.86956
5.87554
5.87999
5.88501
5.89155
5.89866
5.90457
5.90891
5.91264
5.91611
5.92072
5.92793
5.9367
5.94238
5.94227
5.93712
5.93028
5.92738
5.93189
5.94418
5.95907
5.96897
5.97127
5.96804
5.96257
5.95723
5.95316
5.94891
5.94245
5.93351
5.92421
5.91818
5.91861
1.40001
1.40001
1.40001
1.40001
1.40001
1.40001
1.40001
1.40001
1.40001
1.40001
1.40001
1.40001
1.40001
1.40001
1.40001
1.40001
1.40001
1.40001
1.40001
1.40001
1.40001
1.40001
1.40001
1.40001
1.40001
1.40001
1.40001
1.40001
1.40001
1.40001
1.40001
1.40001
1.40001
1.40001
1.40001
1.40001
1.40001
1.40001
1.40001
1.40001
1.40001
1.40001
1.40001
1.40001
1.40001
1.40001
1.40001
1.40001
1.40001
1.40001
1.40001
1.40001
1.40001
1.40001
1.40001
1.40001
1.40001
1.40001
1.40001
1.40001
1.40001
1.40001
1.40001
1.40001
1.40001
1.40001
1.40001
1.40001
1.40001
1.40001
1.40001
1.40001
1.40001
1.40001
1.40001
1.40001
1.40001
1.40001
1.40001
1.40001
1.40001
1.40001
1.40001
1.40001
1.40001
1.40001
1.40001
2.8251
5.20475
5.40476
5.41437
5.43445
5.45223
5.4712
5.48854
5.50347
5.51413
5.52041
5.52493
5.53058
5.53912
5.5505
5.56382
5.57836
5.59282
5.60572
5.6183
5.63088
5.64208
5.65046
5.65706
5.66296
5.66858
5.67557
5.68502
5.69679
5.71031
5.72315
5.73361
5.74157
5.74732
5.75277
5.75897
5.76736
5.7775
5.78808
5.79725
5.80397
5.80854
5.81242
5.81801
5.82645
5.83677
5.84741
5.85704
5.86496
5.87122
5.87695
5.88329
5.89031
5.8965
5.90053
5.90315
5.90623
5.90996
5.91579
5.92486
5.93472
5.94038
5.9393
5.93279
5.92528
5.92272
5.92838
5.94189
5.9568
5.96533
5.96622
5.9627
5.95786
5.95372
5.95035
5.94557
5.93781
5.92804
5.91903
5.91421
5.91574
1.40001
1.40001
1.40001
1.40001
1.40001
1.40001
1.40001
1.40001
1.40001
1.40001
1.40001
1.40001
1.40001
1.40001
1.40001
1.40001
1.40001
1.40001
1.40001
1.40001
1.40001
1.40001
1.40001
1.40001
1.40001
1.40001
1.40001
1.40001
1.40001
1.40001
1.40001
1.40001
1.40001
1.40001
1.40001
1.40001
1.40001
1.40001
1.40001
1.40001
1.40001
1.40001
1.40001
1.40001
1.40001
1.40001
1.40001
1.40001
1.40001
1.40001
1.40001
1.40001
1.40001
1.40001
1.40001
1.40001
1.40001
1.40001
1.40001
1.40001
1.40001
1.40001
1.40001
1.40001
1.40001
1.40001
1.40001
1.40001
1.40001
1.40001
1.40001
1.40001
1.40001
1.40001
1.40001
1.40001
1.40001
1.40001
1.40001
1.40001
1.40001
1.40001
1.40001
1.40001
1.40001
1.40001
1.40001
2.66141
5.16683
5.4023
5.41335
5.43286
5.44901
5.46706
5.48479
5.50059
5.51318
5.52146
5.52672
5.5319
5.53926
5.54923
5.56115
5.57481
5.58927
5.60262
5.61555
5.62862
5.64055
5.64955
5.65623
5.66194
5.66722
5.67358
5.68228
5.69351
5.70686
5.72006
5.73114
5.73981
5.746
5.75149
5.75745
5.76514
5.77422
5.78372
5.79221
5.79894
5.80438
5.80975
5.81671
5.82559
5.83525
5.8446
5.85305
5.86057
5.86743
5.87423
5.88122
5.88802
5.89308
5.89558
5.89717
5.9
5.90425
5.91137
5.92192
5.93222
5.9374
5.93531
5.9277
5.92017
5.91853
5.92555
5.93985
5.95395
5.96081
5.96031
5.95657
5.95276
5.9502
5.94772
5.94238
5.93312
5.92228
5.91347
5.90983
5.91234
1.40001
1.40001
1.40001
1.40001
1.40001
1.40001
1.40001
1.40001
1.40001
1.40001
1.40001
1.40001
1.40001
1.40001
1.40001
1.40001
1.40001
1.40001
1.40001
1.40001
1.40001
1.40001
1.40001
1.40001
1.40001
1.40001
1.40001
1.40001
1.40001
1.40001
1.40001
1.40001
1.40001
1.40001
1.40001
1.40001
1.40001
1.40001
1.40001
1.40001
1.40001
1.40001
1.40001
1.40001
1.40001
1.40001
1.40001
1.40001
1.40001
1.40001
1.40001
1.40001
1.40001
1.40001
1.40001
1.40001
1.40001
1.40001
1.40001
1.40001
1.40001
1.40001
1.40001
1.40001
1.40001
1.40001
1.40001
1.40001
1.40001
1.40001
1.40001
1.40001
1.40001
1.40001
1.40001
1.40001
1.40001
1.40001
1.40001
1.40001
1.40001
1.40001
1.40001
1.40001
1.40001
1.40001
1.40001
2.49287
5.11141
5.40639
5.41596
5.43245
5.44684
5.46352
5.48056
5.49666
5.51044
5.52055
5.52729
5.53312
5.54018
5.54914
5.55974
5.57203
5.58579
5.59924
5.61225
5.62568
5.63851
5.64852
5.65566
5.66134
5.66619
5.67159
5.67931
5.68999
5.70323
5.71688
5.72868
5.73794
5.7443
5.74948
5.75484
5.76164
5.76989
5.77896
5.78761
5.7951
5.8017
5.80828
5.81583
5.82419
5.83252
5.84052
5.84827
5.85594
5.86361
5.87121
5.87834
5.88463
5.88875
5.89026
5.89132
5.89413
5.89904
5.90741
5.91901
5.92915
5.93342
5.93029
5.922
5.91497
5.91474
5.92329
5.93781
5.9503
5.95521
5.95352
5.9498
5.94738
5.94662
5.94515
5.93927
5.92842
5.9163
5.90755
5.90498
5.90825
1.40001
1.40001
1.40001
1.40001
1.40001
1.40001
1.40001
1.40001
1.40001
1.40001
1.40001
1.40001
1.40001
1.40001
1.40001
1.40001
1.40001
1.40001
1.40001
1.40001
1.40001
1.40001
1.40001
1.40001
1.40001
1.40001
1.40001
1.40001
1.40001
1.40001
1.40001
1.40001
1.40001
1.40001
1.40001
1.40001
1.40001
1.40001
1.40001
1.40001
1.40001
1.40001
1.40001
1.40001
1.40001
1.40001
1.40001
1.40001
1.40001
1.40001
1.40001
1.40001
1.40001
1.40001
1.40001
1.40001
1.40001
1.40001
1.40001
1.40001
1.40001
1.40001
1.40001
1.40001
1.40001
1.40001
1.40001
1.40001
1.40001
1.40001
1.40001
1.40001
1.40001
1.40001
1.40001
1.40001
1.40001
1.40001
1.40001
1.40001
1.40001
1.40001
1.40001
1.40001
1.40001
1.40001
1.40001
2.32193
5.03754
5.4162
5.41987
5.43232
5.44496
5.46053
5.47694
5.49277
5.50701
5.51848
5.52679
5.53369
5.54113
5.54971
5.55935
5.57015
5.5826
5.59566
5.60849
5.62216
5.63587
5.64703
5.65486
5.66062
5.66503
5.6694
5.67628
5.68668
5.69993
5.71401
5.72635
5.73595
5.74223
5.74688
5.75149
5.75744
5.76517
5.77425
5.78351
5.79199
5.79957
5.80675
5.81414
5.82157
5.82877
5.83602
5.84365
5.85176
5.86008
5.868
5.8749
5.88058
5.88402
5.88491
5.88559
5.88844
5.89406
5.90364
5.91598
5.92552
5.92846
5.9243
5.91585
5.90979
5.91129
5.92131
5.93542
5.94577
5.94863
5.94607
5.94271
5.94188
5.94287
5.94242
5.93614
5.92375
5.9102
5.90133
5.89963
5.90339
1.40001
1.40001
1.40001
1.40001
1.40001
1.40001
1.40001
1.40001
1.40001
1.40001
1.40001
1.40001
1.40001
1.40001
1.40001
1.40001
1.40001
1.40001
1.40001
1.40001
1.40001
1.40001
1.40001
1.40001
1.40001
1.40001
1.40001
1.40001
1.40001
1.40001
1.40001
1.40001
1.40001
1.40001
1.40001
1.40001
1.40001
1.40001
1.40001
1.40001
1.40001
1.40001
1.40001
1.40001
1.40001
1.40001
1.40001
1.40001
1.40001
1.40001
1.40001
1.40001
1.40001
1.40001
1.40001
1.40001
1.40001
1.40001
1.40001
1.40001
1.40001
1.40001
1.40001
1.40001
1.40001
1.40001
1.40001
1.40001
1.40001
1.40001
1.40001
1.40001
1.40001
1.40001
1.40001
1.40001
1.40001
1.40001
1.40001
1.40001
1.40001
1.40001
1.40001
1.40001
1.40001
1.40001
1.40001
2.15214
4.94521
5.42616
5.42428
5.43306
5.44356
5.45791
5.47371
5.48915
5.50334
5.5157
5.52541
5.53356
5.54172
5.55049
5.55957
5.5692
5.58015
5.59234
5.60481
5.61856
5.63294
5.64523
5.65379
5.65957
5.66345
5.66685
5.67321
5.68357
5.69687
5.71112
5.72361
5.73309
5.73902
5.74311
5.74727
5.75291
5.76081
5.7705
5.78068
5.7901
5.79831
5.80553
5.81214
5.81834
5.82454
5.83136
5.83907
5.84745
5.85595
5.86387
5.87066
5.87614
5.87923
5.87964
5.87991
5.88271
5.88906
5.89979
5.91259
5.92129
5.92268
5.91753
5.90941
5.90482
5.90818
5.91927
5.93235
5.94028
5.94127
5.93826
5.93536
5.93614
5.93897
5.93937
5.93276
5.91903
5.9041
5.89491
5.89379
5.89766
1.40001
1.40001
1.40001
1.40001
1.40001
1.40001
1.40001
1.40001
1.40001
1.40001
1.40001
1.40001
1.40001
1.40001
1.40001
1.40001
1.40001
1.40001
1.40001
1.40001
1.40001
1.40001
1.40001
1.40001
1.40001
1.40001
1.40001
1.40001
1.40001
1.40001
1.40001
1.40001
1.40001
1.40001
1.40001
1.40001
1.40001
1.40001
1.40001
1.40001
1.40001
1.40001
1.40001
1.40001
1.40001
1.40001
1.40001
1.40001
1.40001
1.40001
1.40001
1.40001
1.40001
1.40001
1.40001
1.40001
1.40001
1.40001
1.40001
1.40001
1.40001
1.40001
1.40001
1.40001
1.40001
1.40001
1.40001
1.40001
1.40001
1.40001
1.40001
1.40001
1.40001
1.40001
1.40001
1.40001
1.40001
1.40001
1.40001
1.40001
1.40001
1.40001
1.40001
1.40001
1.40001
1.40001
1.40001
1.98461
4.8348
5.43171
5.42691
5.43426
5.4431
5.45622
5.47118
5.48631
5.50042
5.51296
5.52351
5.5326
5.54133
5.55057
5.55961
5.5687
5.57868
5.59
5.60198
5.61537
5.62975
5.64265
5.65186
5.65783
5.66156
5.66452
5.67059
5.68081
5.6939
5.70797
5.72024
5.72934
5.73493
5.73868
5.74281
5.74866
5.75722
5.76777
5.77879
5.78865
5.79673
5.80321
5.80869
5.81395
5.81975
5.8266
5.83447
5.84287
5.85121
5.85911
5.86612
5.87171
5.87461
5.87447
5.87417
5.87679
5.88386
5.89569
5.90862
5.91637
5.91618
5.91012
5.90281
5.90007
5.90523
5.91675
5.9281
5.93379
5.93334
5.93012
5.928
5.93032
5.93474
5.93576
5.92886
5.91419
5.89814
5.88842
5.8875
5.89106
1.40001
1.40001
1.40001
1.40001
1.40001
1.40001
1.40001
1.40001
1.40001
1.40001
1.40001
1.40001
1.40001
1.40001
1.40001
1.40001
1.40001
1.40001
1.40001
1.40001
1.40001
1.40001
1.40001
1.40001
1.40001
1.40001
1.40001
1.40001
1.40001
1.40001
1.40001
1.40001
1.40001
1.40001
1.40001
1.40001
1.40001
1.40001
1.40001
1.40001
1.40001
1.40001
1.40001
1.40001
1.40001
1.40001
1.40001
1.40001
1.40001
1.40001
1.40001
1.40001
1.40001
1.40001
1.40001
1.40001
1.40001
1.40001
1.40001
1.40001
1.40001
1.40001
1.40001
1.40001
1.40001
1.40001
1.40001
1.40001
1.40001
1.40001
1.40001
1.40001
1.40001
1.40001
1.40001
1.40001
1.40001
1.40001
1.40001
1.40001
1.40001
1.40001
1.40001
1.40001
1.40001
1.40001
1.40001
1.82927
4.70322
5.43345
5.42858
5.43594
5.44421
5.4566
5.47079
5.48519
5.49858
5.51059
5.52126
5.53077
5.53988
5.5495
5.55895
5.56816
5.57776
5.58838
5.59977
5.61238
5.62626
5.63938
5.6493
5.65591
5.65994
5.6628
5.66832
5.67779
5.69015
5.70373
5.71577
5.72474
5.73039
5.73423
5.73866
5.74503
5.7544
5.76575
5.77732
5.7872
5.79465
5.80003
5.80441
5.80912
5.81491
5.8219
5.82972
5.8378
5.84589
5.85401
5.86159
5.86748
5.87021
5.86933
5.8683
5.87064
5.87842
5.89118
5.90381
5.91038
5.90887
5.90237
5.89624
5.89558
5.90236
5.91354
5.92261
5.92631
5.92504
5.92188
5.92091
5.92459