/*--------------------------------*- C++ -*----------------------------------*\
  =========                 |
  \\      /  F ield         | OpenFOAM: The Open Source CFD Toolbox
   \\    /   O peration     | Website:  https://openfoam.org
    \\  /    A nd           | Version:  7
     \\/     M anipulation  |
\*---------------------------------------------------------------------------*/
FoamFile
{
    version     2.0;
    format      ascii;
    class       volVectorField;
    location    "2.4";
    object      U;
}
// * * * * * * * * * * * * * * * * * * * * * * * * * * * * * * * * * * * * * //

dimensions      [0 1 -1 0 0 0 0];

internalField   nonuniform List<vector> 
197568
(
(3 6.15746e-17 0)
(3 1.43482e-16 0)
(3 1.16919e-16 0)
(3 -3.28611e-16 0)
(3 -5.10693e-16 0)
(3 -3.4279e-16 0)
(3 -6.06056e-16 0)
(3 -1.10061e-15 0)
(3 -8.03224e-16 0)
(3 -3.43556e-16 0)
(3 -4.53102e-16 0)
(3 1.16951e-15 0)
(3 1.30566e-15 0)
(3 1.14501e-15 0)
(3 1.18763e-15 0)
(3 6.52671e-16 0)
(3 8.24785e-16 0)
(3 1.56124e-15 0)
(3 1.36202e-15 0)
(3 1.01744e-15 0)
(3 1.37787e-15 0)
(3 8.50465e-16 0)
(3 -8.56787e-16 0)
(3 -1.12462e-15 0)
(3 -3.52083e-16 0)
(3 4.88002e-16 0)
(3 4.55737e-16 0)
(3 -1.7465e-16 0)
(3 -5.61191e-16 0)
(3 -3.73513e-16 0)
(3 -2.27897e-16 0)
(3 1.02182e-15 0)
(3 1.4614e-15 0)
(3 1.02131e-15 0)
(3 2.89032e-16 0)
(3 -1.02544e-15 0)
(3 -1.23353e-15 0)
(3 -6.94631e-16 0)
(3 -1.07788e-16 0)
(3 -1.94982e-16 0)
(3 -6.24268e-16 0)
(3 -1.74333e-15 0)
(3 -1.85053e-15 0)
(3 -1.37384e-15 0)
(3 -5.49856e-16 0)
(3 -7.17518e-17 0)
(3 -5.64011e-16 0)
(3 -7.11364e-16 0)
(3 -9.75802e-16 0)
(3 4.98078e-17 0)
(3 1.94394e-16 0)
(3 -5.10311e-16 0)
(3 -6.29543e-16 0)
(3 -5.96077e-16 0)
(3 8.46737e-17 0)
(3 6.93013e-16 0)
(3 8.3836e-16 0)
(3 1.43796e-15 0)
(3 1.59419e-15 0)
(3 8.92262e-16 0)
(3 -3.51251e-17 0)
(3 4.41296e-16 0)
(3 4.08167e-16 0)
(3 6.63299e-16 0)
(3 1.08542e-15 0)
(3 1.01571e-15 0)
(3 1.33261e-15 0)
(3 1.08553e-15 0)
(3 1.41635e-15 0)
(3 9.21771e-16 0)
(3 -3.4693e-16 0)
(3 -5.70605e-16 0)
(3 1.80223e-16 0)
(3 5.68427e-16 0)
(3 2.01692e-16 0)
(3 -5.11147e-16 0)
(3 -8.9703e-16 0)
(3 -1.16881e-15 0)
(3 -7.45021e-16 0)
(3 -5.20071e-16 0)
(3 1.45707e-17 0)
(3 -2.63222e-16 0)
(3 -6.53041e-16 0)
(3 -7.35876e-16 0)
(3 -4.2918e-16 0)
(3 -1.16413e-16 0)
(2.98916 0.000375492 0)
(1.09844 0.00341145 0)
(0.763421 0.00404927 0)
(0.751865 0.00213341 0)
(0.746195 0.00237551 0)
(0.739711 0.00270123 0)
(0.73216 0.00313564 0)
(0.72301 0.00362271 0)
(0.712794 0.00412646 0)
(0.702194 0.00452919 0)
(0.691961 0.0046021 0)
(0.68276 0.00411781 0)
(0.674694 0.0033226 0)
(0.667049 0.00278056 0)
(0.659044 0.00273019 0)
(0.65063 0.00306889 0)
(0.642188 0.0036625 0)
(0.633855 0.00433296 0)
(0.625303 0.00487863 0)
(0.615986 0.00512067 0)
(0.605588 0.00500897 0)
(0.59452 0.00450606 0)
(0.584136 0.00368066 0)
(0.575651 0.00304198 0)
(0.568935 0.00295514 0)
(0.562809 0.00330901 0)
(0.555882 0.00386482 0)
(0.54711 0.00452805 0)
(0.536249 0.00502814 0)
(0.524481 0.00493624 0)
(0.513663 0.00426989 0)
(0.504563 0.00372446 0)
(0.496359 0.00372465 0)
(0.487915 0.00413938 0)
(0.478612 0.00457806 0)
(0.468691 0.00467779 0)
(0.458997 0.00447872 0)
(0.449913 0.00427932 0)
(0.441188 0.00422356 0)
(0.432362 0.00427781 0)
(0.423006 0.00438976 0)
(0.412951 0.00448997 0)
(0.403094 0.0044781 0)
(0.393995 0.00445575 0)
(0.385809 0.0044991 0)
(0.377966 0.00457203 0)
(0.3693 0.00453071 0)
(0.359125 0.00436804 0)
(0.347683 0.00426671 0)
(0.336099 0.0042793 0)
(0.325446 0.00434016 0)
(0.316427 0.00447495 0)
(0.308905 0.00463497 0)
(0.301433 0.00478689 0)
(0.292292 0.00487901 0)
(0.281129 0.00489241 0)
(0.269344 0.00484996 0)
(0.258241 0.00481505 0)
(0.24847 0.00481127 0)
(0.239962 0.00482501 0)
(0.231405 0.00486861 0)
(0.221254 0.00496156 0)
(0.209986 0.00502977 0)
(0.198591 0.00502612 0)
(0.188389 0.00499455 0)
(0.179524 0.00494093 0)
(0.171735 0.00488677 0)
(0.163241 0.00489592 0)
(0.152663 0.0049847 0)
(0.140499 0.0050885 0)
(0.128051 0.00518071 0)
(0.116718 0.00524728 0)
(0.106915 0.00531234 0)
(0.0977156 0.00534283 0)
(0.0877672 0.00538172 0)
(0.076206 0.00543159 0)
(0.063709 0.00552327 0)
(0.0513629 0.00561031 0)
(0.0399551 0.00572894 0)
(0.0292568 0.00583736 0)
(0.0184916 0.00590586 0)
(0.00618094 0.00601909 0)
(3 3.74552e-16 0)
(3 4.86157e-16 0)
(3 7.02257e-16 0)
(3 7.22798e-17 0)
(3 -3.75397e-16 0)
(3 -3.10858e-16 0)
(3 -6.43824e-16 0)
(3 -1.16566e-15 0)
(3 -1.06303e-15 0)
(3 6.07335e-16 0)
(3 9.06359e-16 0)
(3 1.11326e-15 0)
(3 9.70327e-16 0)
(3 1.00556e-15 0)
(3 5.67766e-16 0)
(3 8.67312e-16 0)
(3 1.16027e-15 0)
(3 1.8789e-15 0)
(3 9.33579e-16 0)
(3 6.24717e-18 0)
(3 3.89006e-16 0)
(3 4.48983e-16 0)
(3 -1.2271e-16 0)
(3 -6.08015e-16 0)
(3 -4.41583e-16 0)
(3 8.18248e-16 0)
(3 1.17018e-15 0)
(3 -5.92208e-17 0)
(3 -7.47478e-16 0)
(3 7.42663e-16 0)
(3 4.45797e-16 0)
(3 6.3846e-16 0)
(3 1.2196e-15 0)
(3 5.99605e-16 0)
(3 -7.32145e-16 0)
(3 -1.32375e-15 0)
(3 -1.15631e-15 0)
(3 -5.56353e-16 0)
(3 -4.12767e-16 0)
(3 -5.91342e-16 0)
(3 -1.0565e-15 0)
(3 -2.01786e-15 0)
(3 -1.93304e-15 0)
(3 -9.57175e-17 0)
(3 2.39856e-15 0)
(3 2.55397e-15 0)
(3 4.30461e-16 0)
(3 4.69975e-16 0)
(3 2.31392e-16 0)
(3 6.46871e-16 0)
(3 6.43265e-16 0)
(3 1.90305e-16 0)
(3 -7.59781e-17 0)
(3 2.1305e-18 0)
(3 6.77553e-16 0)
(3 8.00978e-16 0)
(3 8.59398e-16 0)
(3 1.27907e-15 0)
(3 1.54593e-15 0)
(3 1.75948e-15 0)
(3 8.17209e-16 0)
(3 3.81044e-16 0)
(3 -1.21134e-16 0)
(3 -3.10127e-16 0)
(3 8.44046e-16 0)
(3 1.06855e-15 0)
(3 1.16997e-15 0)
(3 1.40714e-15 0)
(3 1.70526e-15 0)
(3 1.51587e-15 0)
(3 1.22417e-15 0)
(3 7.38194e-16 0)
(3 1.4345e-15 0)
(3 1.5421e-15 0)
(3 8.93496e-16 0)
(3 -1.3428e-15 0)
(3 -2.95721e-15 0)
(3 -2.4096e-15 0)
(3 -1.53381e-15 0)
(3 -9.304e-16 0)
(3 -7.81787e-16 0)
(3 -9.70335e-16 0)
(3 -3.96982e-16 0)
(3 -6.24346e-16 0)
(3 -3.81983e-16 0)
(3 -1.02315e-15 0)
(2.99431 0.00152884 0)
(1.10108 0.0129959 0)
(0.762929 0.0130343 0)
(0.750748 0.00710724 0)
(0.744226 0.00652711 0)
(0.73774 0.00764028 0)
(0.730271 0.00907226 0)
(0.72138 0.0105622 0)
(0.711571 0.0119918 0)
(0.701463 0.0130369 0)
(0.691577 0.0133283 0)
(0.682307 0.0124237 0)
(0.673861 0.0105285 0)
(0.665791 0.00875336 0)
(0.657601 0.008116 0)
(0.649267 0.00863772 0)
(0.640936 0.0101446 0)
(0.632562 0.0121858 0)
(0.623864 0.0141037 0)
(0.614554 0.0151956 0)
(0.604609 0.0150271 0)
(0.594363 0.013521 0)
(0.584567 0.0111882 0)
(0.57594 0.00932961 0)
(0.568562 0.00899241 0)
(0.561729 0.00996364 0)
(0.554345 0.0116303 0)
(0.545542 0.0135119 0)
(0.535163 0.0147447 0)
(0.524188 0.0143554 0)
(0.514022 0.0126268 0)
(0.505043 0.0112941 0)
(0.496715 0.0113723 0)
(0.488306 0.0124734 0)
(0.479236 0.0135195 0)
(0.469689 0.0135984 0)
(0.460343 0.0129876 0)
(0.451373 0.0125708 0)
(0.442596 0.012609 0)
(0.433709 0.0128679 0)
(0.424403 0.0131037 0)
(0.414584 0.0131778 0)
(0.404934 0.0130121 0)
(0.395934 0.0128175 0)
(0.387709 0.0130791 0)
(0.379642 0.0135828 0)
(0.370718 0.0137 0)
(0.360363 0.0133826 0)
(0.348823 0.0130868 0)
(0.337125 0.0130814 0)
(0.32626 0.0133362 0)
(0.316928 0.0136894 0)
(0.309019 0.0141942 0)
(0.301118 0.0146978 0)
(0.291599 0.0149999 0)
(0.280297 0.0149971 0)
(0.268553 0.0147848 0)
(0.257546 0.0145619 0)
(0.247916 0.0144328 0)
(0.239529 0.0143805 0)
(0.231022 0.0145021 0)
(0.220826 0.014834 0)
(0.209554 0.0151261 0)
(0.198119 0.0152013 0)
(0.187917 0.015149 0)
(0.179053 0.0149868 0)
(0.171274 0.0147942 0)
(0.162779 0.0147876 0)
(0.152166 0.0150322 0)
(0.139964 0.0153357 0)
(0.12749 0.0156037 0)
(0.116159 0.0157933 0)
(0.106396 0.0159856 0)
(0.0972194 0.0161021 0)
(0.0873206 0.0162624 0)
(0.0757778 0.0164318 0)
(0.0633058 0.0166876 0)
(0.0510156 0.016894 0)
(0.0397037 0.0171836 0)
(0.0291191 0.0174758 0)
(0.0184327 0.0176959 0)
(0.00613858 0.0180485 0)
(3 -4.63162e-17 0)
(3 -7.50018e-17 0)
(3 -1.39304e-16 0)
(3 -1.04825e-16 0)
(3 -9.38749e-17 0)
(3 1.44275e-17 0)
(3 2.90657e-17 0)
(3 -1.254e-16 0)
(3 -5.97517e-17 0)
(3 2.68363e-16 0)
(3 5.01586e-16 0)
(3 -7.21184e-17 0)
(3 2.05777e-16 0)
(3 6.98462e-16 0)
(3 2.93871e-16 0)
(3 1.10547e-15 0)
(3 1.11975e-15 0)
(3 9.34178e-16 0)
(3 4.26035e-16 0)
(3 -7.22498e-16 0)
(3 -1.4216e-15 0)
(3 -1.32569e-15 0)
(3 -7.86878e-16 0)
(3 -3.31571e-16 0)
(3 -4.01917e-17 0)
(3 9.46025e-16 0)
(3 1.73105e-15 0)
(3 1.6675e-15 0)
(3 1.87687e-15 0)
(3 1.1265e-15 0)
(3 8.63337e-16 0)
(3 7.90634e-16 0)
(3 4.50631e-16 0)
(3 2.50824e-16 0)
(3 -2.09253e-16 0)
(3 -3.89836e-16 0)
(3 -7.64055e-16 0)
(3 -9.04823e-16 0)
(3 -5.61411e-16 0)
(3 -3.00344e-16 0)
(3 -1.41686e-15 0)
(3 -1.24855e-15 0)
(3 -1.04124e-15 0)
(3 -8.08827e-16 0)
(3 -3.84342e-16 0)
(3 2.51506e-16 0)
(3 -1.98335e-16 0)
(3 -4.80227e-16 0)
(3 -7.62936e-16 0)
(3 -6.60551e-16 0)
(3 1.08415e-15 0)
(3 1.48644e-15 0)
(3 1.41836e-15 0)
(3 7.24109e-16 0)
(3 6.05141e-16 0)
(3 7.36155e-16 0)
(3 1.38421e-15 0)
(3 1.59584e-15 0)
(3 1.94836e-15 0)
(3 2.40684e-15 0)
(3 3.17549e-15 0)
(3 1.86968e-15 0)
(3 6.80103e-16 0)
(3 5.72502e-16 0)
(3 1.55726e-15 0)
(3 2.16359e-15 0)
(3 1.82089e-15 0)
(3 1.23091e-15 0)
(3 5.30146e-16 0)
(3 8.93194e-16 0)
(3 1.27258e-15 0)
(3 1.69937e-15 0)
(3 1.75839e-15 0)
(3 1.246e-15 0)
(3 9.50332e-16 0)
(3 5.91839e-16 0)
(3 5.56655e-16 0)
(3 1.84296e-16 0)
(3 -1.09562e-15 0)
(3 -1.16437e-15 0)
(3 -2.15018e-15 0)
(3 -2.03515e-15 0)
(3 -1.41721e-15 0)
(3 -1.64301e-15 0)
(3 -1.46146e-15 0)
(3 -1.77989e-15 0)
(2.99979 0.000297532 0)
(1.10909 0.0210214 0)
(0.764799 0.0210386 0)
(0.752178 0.013145 0)
(0.744345 0.0119654 0)
(0.737167 0.0133026 0)
(0.72945 0.0154316 0)
(0.720671 0.0177467 0)
(0.711234 0.0198419 0)
(0.701678 0.0213107 0)
(0.6923 0.021563 0)
(0.683134 0.0203534 0)
(0.674251 0.0179739 0)
(0.665534 0.0155347 0)
(0.656897 0.0144648 0)
(0.648453 0.0150934 0)
(0.640152 0.0170603 0)
(0.631749 0.0197613 0)
(0.622935 0.0224025 0)
(0.613562 0.0240799 0)
(0.60381 0.0241528 0)
(0.594125 0.0223555 0)
(0.585007 0.0191996 0)
(0.576622 0.0163732 0)
(0.568833 0.0155349 0)
(0.561247 0.0167911 0)
(0.553204 0.0193148 0)
(0.544132 0.0222171 0)
(0.533951 0.0240009 0)
(0.523553 0.0233096 0)
(0.513953 0.0207788 0)
(0.505016 0.0188642 0)
(0.49642 0.0190589 0)
(0.487895 0.0208487 0)
(0.478912 0.0224617 0)
(0.469635 0.0225104 0)
(0.460563 0.0215631 0)
(0.451576 0.0209204 0)
(0.442503 0.0210078 0)
(0.433216 0.0214715 0)
(0.423623 0.0219487 0)
(0.413772 0.0221768 0)
(0.404251 0.0219254 0)
(0.395369 0.0216531 0)
(0.387103 0.0219992 0)
(0.378729 0.0226813 0)
(0.36932 0.0228323 0)
(0.358552 0.0224065 0)
(0.346822 0.0220613 0)
(0.335088 0.0221641 0)
(0.32426 0.0225632 0)
(0.315001 0.0231662 0)
(0.307086 0.0238709 0)
(0.299052 0.0245049 0)
(0.28938 0.0248331 0)
(0.27816 0.024755 0)
(0.266639 0.0244368 0)
(0.255888 0.024156 0)
(0.246585 0.0240282 0)
(0.238514 0.0239833 0)
(0.230222 0.0241539 0)
(0.220104 0.0246156 0)
(0.208911 0.0250335 0)
(0.197465 0.0251552 0)
(0.187262 0.0251338 0)
(0.178407 0.0249658 0)
(0.170671 0.0247342 0)
(0.162242 0.0247484 0)
(0.151658 0.0251114 0)
(0.139457 0.0255519 0)
(0.126967 0.0259613 0)
(0.115629 0.0262707 0)
(0.105897 0.0265943 0)
(0.0967315 0.0267845 0)
(0.086893 0.0270409 0)
(0.0753557 0.0273086 0)
(0.0628887 0.0277429 0)
(0.0506439 0.0281225 0)
(0.0394335 0.0286288 0)
(0.0289831 0.0290961 0)
(0.0183993 0.0294072 0)
(0.00610629 0.0299288 0)
(3 -5.48156e-17 0)
(3 4.29547e-17 0)
(3 7.70344e-17 0)
(3 7.68076e-17 0)
(3 8.39843e-17 0)
(3 -1.27279e-16 0)
(3 1.09798e-16 0)
(3 1.79939e-16 0)
(3 2.24428e-16 0)
(3 -3.59307e-16 0)
(3 -4.13751e-16 0)
(3 2.00468e-16 0)
(3 7.07686e-16 0)
(3 7.6808e-16 0)
(3 7.01291e-16 0)
(3 7.54687e-16 0)
(3 1.97146e-16 0)
(3 5.56227e-16 0)
(3 6.47103e-16 0)
(3 -8.14591e-17 0)
(3 -6.53553e-16 0)
(3 -1.21147e-15 0)
(3 -6.31743e-16 0)
(3 3.36792e-16 0)
(3 9.30496e-16 0)
(3 1.54541e-15 0)
(3 2.02168e-15 0)
(3 2.65648e-15 0)
(3 3.16289e-15 0)
(3 1.97801e-15 0)
(3 1.5848e-15 0)
(3 1.22496e-15 0)
(3 1.25077e-15 0)
(3 1.60555e-15 0)
(3 7.65123e-16 0)
(3 -3.67381e-16 0)
(3 -1.63219e-15 0)
(3 -1.61765e-15 0)
(3 -1.16572e-15 0)
(3 -6.30031e-16 0)
(3 -3.01693e-16 0)
(3 7.66365e-16 0)
(3 1.25055e-15 0)
(3 5.96698e-16 0)
(3 -1.32473e-16 0)
(3 2.35388e-16 0)
(3 5.49879e-16 0)
(3 -1.57906e-15 0)
(3 -3.20842e-15 0)
(3 -2.80171e-15 0)
(3 -8.85462e-16 0)
(3 8.43372e-16 0)
(3 4.70475e-16 0)
(3 -2.33661e-16 0)
(3 8.68562e-17 0)
(3 7.06409e-16 0)
(3 2.32266e-15 0)
(3 3.3516e-15 0)
(3 3.62861e-15 0)
(3 3.17539e-15 0)
(3 2.16959e-15 0)
(3 1.78715e-15 0)
(3 1.56406e-15 0)
(3 1.46169e-15 0)
(3 1.65577e-15 0)
(3 1.92845e-15 0)
(3 2.80582e-15 0)
(3 3.15354e-15 0)
(3 2.65984e-15 0)
(3 1.63547e-15 0)
(3 1.25655e-15 0)
(3 1.38713e-15 0)
(3 1.36871e-15 0)
(3 1.28606e-15 0)
(3 1.2374e-15 0)
(3 1.92965e-15 0)
(3 2.69953e-15 0)
(3 1.64966e-15 0)
(3 -7.99429e-16 0)
(3 -1.73351e-15 0)
(3 -5.48806e-16 0)
(3 -7.64934e-16 0)
(3 -1.8738e-15 0)
(3 -1.66252e-15 0)
(3 -1.66646e-15 0)
(3 -1.99498e-15 0)
(3 2.27056e-06 0)
(1.1203 0.0284073 0)
(0.765946 0.0279857 0)
(0.753254 0.0199415 0)
(0.744867 0.0181776 0)
(0.737142 0.0193108 0)
(0.729342 0.0218314 0)
(0.720799 0.024766 0)
(0.711773 0.0274177 0)
(0.702717 0.0291262 0)
(0.693782 0.0293918 0)
(0.684778 0.0280788 0)
(0.675539 0.0256626 0)
(0.666197 0.022983 0)
(0.657033 0.0214732 0)
(0.648428 0.021965 0)
(0.640175 0.0240607 0)
(0.631779 0.0269677 0)
(0.623009 0.029946 0)
(0.61381 0.0320773 0)
(0.604366 0.0325463 0)
(0.595094 0.0308781 0)
(0.586357 0.027457 0)
(0.578017 0.0240432 0)
(0.569774 0.0227173 0)
(0.561461 0.0239971 0)
(0.552834 0.027132 0)
(0.543577 0.0308225 0)
(0.533595 0.0329241 0)
(0.523713 0.0319325 0)
(0.514569 0.0288673 0)
(0.505612 0.0265887 0)
(0.496698 0.026914 0)
(0.487987 0.0293016 0)
(0.478987 0.0313687 0)
(0.469878 0.0313221 0)
(0.461005 0.0300799 0)
(0.451968 0.0293479 0)
(0.442655 0.0295134 0)
(0.433092 0.0301254 0)
(0.423363 0.030768 0)
(0.413612 0.0311329 0)
(0.404284 0.0309223 0)
(0.39554 0.030628 0)
(0.38717 0.0310854 0)
(0.378441 0.0318746 0)
(0.368598 0.0320259 0)
(0.357531 0.0314679 0)
(0.345698 0.031083 0)
(0.333944 0.031369 0)
(0.323137 0.0320861 0)
(0.313863 0.0329374 0)
(0.305743 0.0337359 0)
(0.297394 0.0343453 0)
(0.287514 0.0345486 0)
(0.276383 0.034313 0)
(0.265091 0.0338933 0)
(0.254569 0.0336235 0)
(0.245554 0.0335813 0)
(0.237714 0.0335836 0)
(0.229496 0.0337626 0)
(0.219381 0.034279 0)
(0.208231 0.0347816 0)
(0.196739 0.034955 0)
(0.186494 0.0350276 0)
(0.177585 0.0349467 0)
(0.169824 0.0347487 0)
(0.161417 0.0347972 0)
(0.150855 0.0352312 0)
(0.138676 0.0357459 0)
(0.12621 0.0362698 0)
(0.114882 0.0367003 0)
(0.10518 0.0371739 0)
(0.096014 0.037443 0)
(0.0862792 0.0377852 0)
(0.0748094 0.0381334 0)
(0.0624166 0.038739 0)
(0.0502701 0.0393188 0)
(0.0391751 0.0400603 0)
(0.0288441 0.0407009 0)
(0.0183407 0.0410665 0)
(0.00605698 0.041706 0)
(3 -8.22712e-18 0)
(3 5.32132e-16 0)
(3 2.94464e-16 0)
(3 3.61924e-16 0)
(3 -4.62939e-16 0)
(3 -8.87713e-16 0)
(3 -6.70148e-16 0)
(3 -3.39933e-16 0)
(3 -4.12017e-16 0)
(3 -1.55123e-16 0)
(3 4.3848e-16 0)
(3 1.16152e-15 0)
(3 1.45457e-15 0)
(3 1.38575e-15 0)
(3 1.18636e-15 0)
(3 7.1049e-16 0)
(3 9.38842e-16 0)
(3 1.04976e-15 0)
(3 7.81902e-16 0)
(3 3.11307e-16 0)
(3 -4.8092e-16 0)
(3 -6.3327e-16 0)
(3 1.08898e-16 0)
(3 5.69765e-16 0)
(3 8.96887e-16 0)
(3 1.84437e-15 0)
(3 2.05242e-15 0)
(3 2.21303e-15 0)
(3 2.24346e-15 0)
(3 2.48588e-15 0)
(3 2.2527e-15 0)
(3 2.03247e-15 0)
(3 1.81341e-15 0)
(3 1.53986e-15 0)
(3 1.581e-15 0)
(3 2.79644e-16 0)
(3 -1.19496e-15 0)
(3 -7.18572e-16 0)
(3 -5.85352e-16 0)
(3 4.76686e-17 0)
(3 7.86247e-16 0)
(3 1.33022e-15 0)
(3 1.57643e-15 0)
(3 2.17365e-15 0)
(3 1.44763e-15 0)
(3 -2.48381e-16 0)
(3 -5.20809e-16 0)
(3 -1.71808e-15 0)
(3 -2.54984e-15 0)
(3 -2.52727e-15 0)
(3 -2.24593e-15 0)
(3 -1.5323e-15 0)
(3 -1.24959e-15 0)
(3 -5.91674e-16 0)
(3 -6.97703e-16 0)
(3 8.59795e-18 0)
(3 6.89315e-16 0)
(3 1.75595e-15 0)
(3 2.00319e-15 0)
(3 1.93782e-15 0)
(3 1.79467e-15 0)
(3 1.60688e-15 0)
(3 1.5239e-15 0)
(3 7.3993e-16 0)
(3 6.7838e-16 0)
(3 9.2931e-16 0)
(3 1.40202e-15 0)
(3 2.68908e-15 0)
(3 3.65122e-15 0)
(3 2.30811e-15 0)
(3 1.41205e-16 0)
(3 2.47765e-16 0)
(3 1.50817e-15 0)
(3 2.39229e-15 0)
(3 2.97382e-15 0)
(3 2.02798e-15 0)
(3 1.14126e-15 0)
(3 5.87388e-16 0)
(3 -1.14106e-15 0)
(3 -2.76683e-15 0)
(3 -2.71286e-15 0)
(3 -1.83917e-15 0)
(3 -1.45217e-15 0)
(3 -1.1413e-15 0)
(3 -2.21961e-15 0)
(3 -3.33046e-15 0)
(3 2.03331e-09 0)
(1.13552 0.0357174 0)
(0.767415 0.034253 0)
(0.75397 0.0273502 0)
(0.745231 0.0252629 0)
(0.736873 0.0256879 0)
(0.728985 0.0281397 0)
(0.720736 0.03141 0)
(0.712141 0.0344905 0)
(0.70352 0.0365214 0)
(0.694933 0.0370144 0)
(0.686065 0.0359745 0)
(0.676598 0.0338448 0)
(0.666694 0.0311772 0)
(0.656877 0.029175 0)
(0.64784 0.0290203 0)
(0.63966 0.0307593 0)
(0.631664 0.0336106 0)
(0.623401 0.0367631 0)
(0.614728 0.0392159 0)
(0.605692 0.0401591 0)
(0.596569 0.0391035 0)
(0.587779 0.0360814 0)
(0.579372 0.0323216 0)
(0.570827 0.0303952 0)
(0.562072 0.0315124 0)
(0.553187 0.0349922 0)
(0.544013 0.0391817 0)
(0.534309 0.0414212 0)
(0.524826 0.0402462 0)
(0.515955 0.0369232 0)
(0.506927 0.0344829 0)
(0.497699 0.0349655 0)
(0.488748 0.0378348 0)
(0.479617 0.0402739 0)
(0.470488 0.0401777 0)
(0.461644 0.0387466 0)
(0.452492 0.0379454 0)
(0.44294 0.0381583 0)
(0.433137 0.0388636 0)
(0.423332 0.0396209 0)
(0.413744 0.0401426 0)
(0.404627 0.0400556 0)
(0.395954 0.0397966 0)
(0.387384 0.0402616 0)
(0.378301 0.0411838 0)
(0.36814 0.0412789 0)
(0.356968 0.0405757 0)
(0.345231 0.0401868 0)
(0.333654 0.0407375 0)
(0.323006 0.0418318 0)
(0.313677 0.0429279 0)
(0.305245 0.0437539 0)
(0.296505 0.0442366 0)
(0.286475 0.044215 0)
(0.275481 0.0437691 0)
(0.264442 0.043274 0)
(0.254128 0.0431148 0)
(0.245296 0.0432027 0)
(0.237503 0.0432085 0)
(0.229191 0.043329 0)
(0.219047 0.0438865 0)
(0.207911 0.0444141 0)
(0.196373 0.044654 0)
(0.186043 0.0448913 0)
(0.176978 0.045001 0)
(0.169048 0.0449087 0)
(0.160553 0.0449815 0)
(0.149978 0.0454155 0)
(0.137824 0.045926 0)
(0.12541 0.0465166 0)
(0.114082 0.0470513 0)
(0.104363 0.0476802 0)
(0.0951192 0.048032 0)
(0.0854886 0.0484551 0)
(0.0741358 0.0488765 0)
(0.0618915 0.0496489 0)
(0.0498998 0.0504589 0)
(0.0389224 0.0514571 0)
(0.0286712 0.0522644 0)
(0.0182063 0.0526476 0)
(0.00597282 0.0533707 0)
(3 -1.94259e-16 0)
(3 -2.24289e-16 0)
(3 -4.00497e-16 0)
(3 -4.5617e-16 0)
(3 -6.51967e-16 0)
(3 -4.81059e-16 0)
(3 -9.25711e-16 0)
(3 -5.8366e-16 0)
(3 -1.66685e-16 0)
(3 2.69305e-16 0)
(3 7.07213e-16 0)
(3 1.13997e-15 0)
(3 2.05925e-15 0)
(3 2.39428e-15 0)
(3 2.35878e-15 0)
(3 1.45452e-15 0)
(3 8.53485e-16 0)
(3 4.28314e-16 0)
(3 -1.61614e-16 0)
(3 -3.62326e-17 0)
(3 -7.10514e-17 0)
(3 -3.59027e-16 0)
(3 -1.53551e-15 0)
(3 -1.35674e-15 0)
(3 -9.17296e-16 0)
(3 -7.83968e-16 0)
(3 -8.70888e-16 0)
(3 -8.11104e-17 0)
(3 5.55515e-17 0)
(3 7.30047e-16 0)
(3 1.05279e-15 0)
(3 1.09145e-15 0)
(3 1.21395e-15 0)
(3 9.98078e-16 0)
(3 1.10423e-15 0)
(3 1.43245e-16 0)
(3 -1.04879e-15 0)
(3 -8.94955e-16 0)
(3 5.02885e-16 0)
(3 1.25954e-15 0)
(3 1.50348e-15 0)
(3 1.0329e-15 0)
(3 7.16927e-16 0)
(3 1.07017e-16 0)
(3 -1.24914e-15 0)
(3 -2.6111e-15 0)
(3 -2.8196e-15 0)
(3 -2.17805e-15 0)
(3 -1.90602e-15 0)
(3 -1.3094e-15 0)
(3 -1.22544e-15 0)
(3 -1.40822e-15 0)
(3 -7.00506e-16 0)
(3 -5.20069e-16 0)
(3 -4.57082e-16 0)
(3 -2.50258e-16 0)
(3 -2.00194e-16 0)
(3 1.42191e-16 0)
(3 8.41844e-16 0)
(3 1.15363e-15 0)
(3 1.66954e-15 0)
(3 1.23183e-15 0)
(3 2.22254e-16 0)
(3 -7.76514e-17 0)
(3 4.04231e-16 0)
(3 9.81792e-16 0)
(3 1.07753e-15 0)
(3 2.49324e-15 0)
(3 2.20985e-15 0)
(3 2.01513e-16 0)
(3 -1.22852e-15 0)
(3 6.02626e-18 0)
(3 1.36336e-15 0)
(3 2.23945e-15 0)
(3 2.65716e-15 0)
(3 6.68453e-16 0)
(3 -1.5584e-15 0)
(3 -1.86635e-15 0)
(3 -2.17513e-15 0)
(3 -4.58423e-15 0)
(3 -4.92453e-15 0)
(3 -3.96462e-15 0)
(3 -1.62664e-15 0)
(3 -1.18947e-15 0)
(3 -1.63997e-15 0)
(3 -1.91394e-15 0)
(3 8.86829e-14 0)
(1.15592 0.0435493 0)
(0.769711 0.0401566 0)
(0.75494 0.0353014 0)
(0.745622 0.0329531 0)
(0.736538 0.032362 0)
(0.728405 0.0342705 0)
(0.720435 0.037553 0)
(0.712311 0.0409104 0)
(0.704144 0.0433371 0)
(0.695884 0.0443564 0)
(0.687183 0.0439693 0)
(0.677656 0.0424326 0)
(0.667377 0.0400079 0)
(0.656929 0.0375536 0)
(0.647182 0.0363839 0)
(0.638669 0.0373543 0)
(0.63098 0.039876 0)
(0.62335 0.0430225 0)
(0.615274 0.0457804 0)
(0.606582 0.047357 0)
(0.597402 0.0471496 0)
(0.588207 0.0448819 0)
(0.579405 0.0412371 0)
(0.570608 0.0387614 0)
(0.561626 0.0393626 0)
(0.552747 0.0428118 0)
(0.543863 0.047221 0)
(0.534487 0.0495491 0)
(0.525275 0.0484164 0)
(0.516578 0.0451059 0)
(0.507586 0.0426322 0)
(0.498259 0.0432134 0)
(0.489247 0.0464193 0)
(0.480093 0.0490696 0)
(0.470946 0.0489914 0)
(0.462056 0.0475275 0)
(0.452813 0.0467343 0)
(0.443181 0.0469675 0)
(0.43338 0.0476638 0)
(0.423737 0.048451 0)
(0.414456 0.0491104 0)
(0.405573 0.0491636 0)
(0.3969 0.048989 0)
(0.388074 0.0496147 0)
(0.378652 0.0505645 0)
(0.368295 0.0505638 0)
(0.357206 0.0496978 0)
(0.345734 0.04933 0)
(0.33447 0.0501967 0)
(0.323971 0.0516425 0)
(0.314443 0.0529969 0)
(0.305532 0.0538739 0)
(0.296317 0.0541684 0)
(0.286234 0.0538703 0)
(0.275472 0.0531912 0)
(0.264736 0.0526713 0)
(0.254633 0.0526306 0)
(0.245828 0.0528804 0)
(0.237834 0.0528998 0)
(0.229254 0.0529721 0)
(0.219061 0.0534688 0)
(0.20794 0.0540114 0)
(0.196421 0.0543471 0)
(0.186011 0.0548085 0)
(0.176707 0.0551845 0)
(0.168438 0.0552615 0)
(0.159695 0.0553482 0)
(0.149083 0.0557122 0)
(0.136997 0.0561476 0)
(0.124687 0.0567471 0)
(0.113359 0.0573589 0)
(0.103567 0.0581344 0)
(0.0941047 0.0585658 0)
(0.0845362 0.0590618 0)
(0.073342 0.0595579 0)
(0.0613246 0.060481 0)
(0.0495379 0.0615309 0)
(0.0386617 0.0627851 0)
(0.0284253 0.0637571 0)
(0.0179386 0.0641337 0)
(0.0058357 0.0649235 0)
(3 1.24476e-16 0)
(3 -1.83495e-16 0)
(3 -2.22772e-16 0)
(3 -2.74938e-16 0)
(3 6.80462e-16 0)
(3 6.46419e-16 0)
(3 5.16117e-16 0)
(3 5.03053e-16 0)
(3 7.00386e-16 0)
(3 1.10183e-15 0)
(3 1.15057e-15 0)
(3 1.09688e-15 0)
(3 1.32244e-15 0)
(3 1.04604e-15 0)
(3 1.63022e-15 0)
(3 1.47888e-15 0)
(3 7.58034e-16 0)
(3 -1.90097e-16 0)
(3 -5.36769e-16 0)
(3 2.43231e-16 0)
(3 1.39827e-15 0)
(3 1.72996e-15 0)
(3 3.10645e-16 0)
(3 -4.32389e-16 0)
(3 -1.53428e-16 0)
(3 -4.49758e-16 0)
(3 -1.07244e-15 0)
(3 -1.35094e-15 0)
(3 -1.32511e-15 0)
(3 -1.33759e-15 0)
(3 -2.72286e-16 0)
(3 5.12889e-16 0)
(3 7.43557e-16 0)
(3 3.9864e-16 0)
(3 4.41288e-17 0)
(3 -2.66462e-16 0)
(3 -1.25006e-15 0)
(3 -4.5065e-16 0)
(3 1.24797e-15 0)
(3 1.1175e-15 0)
(3 1.21762e-15 0)
(3 1.25484e-15 0)
(3 -5.01807e-16 0)
(3 -1.17681e-15 0)
(3 -7.53145e-16 0)
(3 -4.62778e-16 0)
(3 -4.12472e-16 0)
(3 -1.72566e-15 0)
(3 -1.72998e-15 0)
(3 -1.52125e-15 0)
(3 -9.62629e-16 0)
(3 -7.97228e-16 0)
(3 -2.94172e-16 0)
(3 -1.21407e-15 0)
(3 -7.40272e-16 0)
(3 -3.3954e-16 0)
(3 4.5375e-16 0)
(3 3.46355e-16 0)
(3 8.70254e-16 0)
(3 1.51226e-15 0)
(3 1.32087e-15 0)
(3 1.07957e-15 0)
(3 2.61971e-16 0)
(3 7.9811e-17 0)
(3 1.28235e-16 0)
(3 2.71434e-16 0)
(3 1.01597e-15 0)
(3 7.92493e-16 0)
(3 2.7916e-16 0)
(3 -5.44699e-16 0)
(3 -5.32677e-16 0)
(3 2.69907e-16 0)
(3 -4.99284e-16 0)
(3 -8.5204e-17 0)
(3 5.59339e-16 0)
(3 -3.32513e-16 0)
(3 -1.52735e-15 0)
(3 -1.68738e-15 0)
(3 -2.1051e-15 0)
(3 -3.46804e-15 0)
(3 -4.22783e-15 0)
(3 -4.33613e-15 0)
(3 -3.36238e-15 0)
(3 -2.18124e-15 0)
(3 5.27606e-17 0)
(3 7.07615e-16 0)
(3 -1.93755e-16 0)
(1.1828 0.0518634 0)
(0.772342 0.0458035 0)
(0.756075 0.0440391 0)
(0.746168 0.0411557 0)
(0.736172 0.0393956 0)
(0.727384 0.0402272 0)
(0.719605 0.0432647 0)
(0.712038 0.046772 0)
(0.704477 0.0495995 0)
(0.69672 0.0512624 0)
(0.688342 0.0517277 0)
(0.678908 0.0510437 0)
(0.668411 0.0491807 0)
(0.657407 0.0466316 0)
(0.646921 0.0445084 0)
(0.637762 0.0442465 0)
(0.62996 0.0460043 0)
(0.622678 0.0488943 0)
(0.615057 0.0519384 0)
(0.606639 0.0542146 0)
(0.59746 0.054976 0)
(0.588038 0.0536014 0)
(0.579015 0.0502968 0)
(0.570171 0.0474074 0)
(0.561165 0.0474189 0)
(0.552419 0.0505811 0)
(0.543854 0.0549793 0)
(0.534734 0.0573823 0)
(0.525643 0.0564183 0)
(0.517021 0.0532479 0)
(0.508094 0.0508321 0)
(0.498811 0.0515129 0)
(0.489864 0.05491 0)
(0.480724 0.057695 0)
(0.471502 0.0576459 0)
(0.462405 0.0562655 0)
(0.452957 0.0555861 0)
(0.443263 0.0558517 0)
(0.433612 0.0564818 0)
(0.424321 0.0572298 0)
(0.415449 0.0579782 0)
(0.406774 0.0581785 0)
(0.39801 0.0581819 0)
(0.388833 0.0589382 0)
(0.379017 0.059957 0)
(0.368531 0.0598879 0)
(0.357676 0.0588902 0)
(0.346636 0.0585686 0)
(0.335788 0.0596672 0)
(0.3254 0.0614738 0)
(0.31554 0.0630691 0)
(0.306023 0.0639861 0)
(0.296331 0.064129 0)
(0.286311 0.0635589 0)
(0.275982 0.0626745 0)
(0.26562 0.0621383 0)
(0.255766 0.0622126 0)
(0.246838 0.0625917 0)
(0.238439 0.0626365 0)
(0.229458 0.0626248 0)
(0.219232 0.0630696 0)
(0.208214 0.0636508 0)
(0.196868 0.064115 0)
(0.186463 0.0648265 0)
(0.176915 0.0654841 0)
(0.168183 0.0657685 0)
(0.159057 0.0658927 0)
(0.148405 0.0661608 0)
(0.136493 0.0664696 0)
(0.124377 0.0670158 0)
(0.113082 0.0676811 0)
(0.103067 0.0685717 0)
(0.0934332 0.0690886 0)
(0.0837482 0.0696509 0)
(0.0727305 0.0702273 0)
(0.0609837 0.0712758 0)
(0.0494 0.0725474 0)
(0.0385529 0.0740292 0)
(0.0282145 0.0751578 0)
(0.0175962 0.0755179 0)
(0.00567424 0.0763801 0)
(3 2.35073e-16 0)
(3 1.41196e-17 0)
(3 -1.98215e-17 0)
(3 -3.87231e-16 0)
(3 2.87511e-16 0)
(3 6.40538e-16 0)
(3 1.38663e-15 0)
(3 1.52882e-15 0)
(3 1.13439e-15 0)
(3 1.04153e-15 0)
(3 1.23432e-15 0)
(3 1.12625e-15 0)
(3 7.34549e-16 0)
(3 -3.32209e-16 0)
(3 6.55933e-17 0)
(3 4.94918e-16 0)
(3 8.77284e-16 0)
(3 7.56946e-16 0)
(3 1.13044e-15 0)
(3 2.2838e-15 0)
(3 2.98094e-15 0)
(3 3.34482e-15 0)
(3 3.00977e-15 0)
(3 2.19087e-15 0)
(3 2.14677e-15 0)
(3 1.10017e-15 0)
(3 -6.42717e-17 0)
(3 -1.41185e-15 0)
(3 -1.01055e-15 0)
(3 -1.96503e-15 0)
(3 -2.03422e-15 0)
(3 -1.16553e-15 0)
(3 -2.27378e-16 0)
(3 -3.05119e-16 0)
(3 -1.00805e-15 0)
(3 -4.05024e-16 0)
(3 -5.5978e-16 0)
(3 1.94211e-16 0)
(3 9.43526e-16 0)
(3 1.15407e-15 0)
(3 9.34267e-16 0)
(3 3.34408e-16 0)
(3 -5.51237e-16 0)
(3 -3.20403e-16 0)
(3 -2.01596e-16 0)
(3 -5.28319e-16 0)
(3 -1.60054e-15 0)
(3 -1.88817e-15 0)
(3 -1.84853e-15 0)
(3 -1.39943e-15 0)
(3 -1.15053e-15 0)
(3 -9.60054e-16 0)
(3 -1.18603e-15 0)
(3 -8.112e-16 0)
(3 -5.94677e-16 0)
(3 -5.14301e-16 0)
(3 -1.26507e-16 0)
(3 2.61443e-16 0)
(3 2.69476e-16 0)
(3 7.9739e-16 0)
(3 1.22144e-15 0)
(3 2.0046e-15 0)
(3 1.79014e-15 0)
(3 1.53507e-15 0)
(3 7.49979e-16 0)
(3 4.07057e-16 0)
(3 7.75214e-16 0)
(3 8.82034e-16 0)
(3 2.94796e-16 0)
(3 1.49551e-16 0)
(3 -4.83708e-16 0)
(3 -1.26954e-15 0)
(3 -1.21467e-15 0)
(3 -6.27222e-16 0)
(3 4.82481e-16 0)
(3 4.4012e-17 0)
(3 -9.4749e-16 0)
(3 -2.09469e-15 0)
(3 -3.14076e-15 0)
(3 -3.05373e-15 0)
(3 -2.71853e-15 0)
(3 -3.34048e-15 0)
(3 -3.27619e-15 0)
(3 -2.74677e-15 0)
(3 -2.46377e-15 0)
(3 -9.9563e-16 0)
(3 -1.82612e-15 0)
(1.21682 0.0601815 0)
(0.775176 0.0510909 0)
(0.757064 0.0532819 0)
(0.746791 0.0499589 0)
(0.736074 0.0472327 0)
(0.726256 0.0463773 0)
(0.718068 0.048572 0)
(0.710986 0.0521042 0)
(0.70422 0.0553333 0)
(0.697194 0.057653 0)
(0.689313 0.0590393 0)
(0.680117 0.0593332 0)
(0.669604 0.0582992 0)
(0.658304 0.056113 0)
(0.647295 0.053479 0)
(0.637519 0.051926 0)
(0.629238 0.0524986 0)
(0.621853 0.0547664 0)
(0.614374 0.0578348 0)
(0.606112 0.0607657 0)
(0.596983 0.062483 0)
(0.587502 0.0620512 0)
(0.578452 0.0592613 0)
(0.569802 0.0561379 0)
(0.560998 0.055559 0)
(0.552464 0.0582931 0)
(0.544141 0.0625374 0)
(0.535136 0.0650583 0)
(0.525966 0.0643591 0)
(0.517273 0.0613928 0)
(0.508399 0.0590728 0)
(0.499281 0.0598398 0)
(0.490534 0.0633238 0)
(0.481465 0.0661509 0)
(0.472132 0.0661554 0)
(0.46272 0.0649295 0)
(0.452961 0.0644429 0)
(0.443165 0.064792 0)
(0.433717 0.0653724 0)
(0.424868 0.0660473 0)
(0.416422 0.0668225 0)
(0.407875 0.067155 0)
(0.398866 0.0673017 0)
(0.389213 0.0681802 0)
(0.379007 0.0693123 0)
(0.368469 0.0692536 0)
(0.357989 0.0682157 0)
(0.347549 0.0679715 0)
(0.33721 0.0692663 0)
(0.326919 0.0713001 0)
(0.316654 0.073047 0)
(0.306486 0.0740034 0)
(0.296463 0.074064 0)
(0.28661 0.0733092 0)
(0.276799 0.0722858 0)
(0.266932 0.071731 0)
(0.257299 0.0718626 0)
(0.248103 0.0722572 0)
(0.239145 0.0723072 0)
(0.22973 0.072268 0)
(0.219505 0.0726911 0)
(0.208728 0.0733673 0)
(0.1977 0.0739923 0)
(0.187366 0.0749456 0)
(0.177564 0.0758478 0)
(0.168263 0.0763352 0)
(0.158625 0.0765433 0)
(0.147901 0.0767451 0)
(0.13624 0.0769056 0)
(0.124412 0.0773744 0)
(0.113186 0.0780808 0)
(0.10283 0.0790379 0)
(0.0929604 0.0796276 0)
(0.0830688 0.0802598 0)
(0.0722287 0.0809189 0)
(0.0607849 0.0820752 0)
(0.0493988 0.0835337 0)
(0.0385219 0.0851998 0)
(0.0279905 0.0864757 0)
(0.0171609 0.0868262 0)
(0.00549704 0.0877833 0)
(3 8.09105e-17 0)
(3 2.45711e-16 0)
(3 1.22147e-16 0)
(3 -4.93795e-16 0)
(3 -6.49434e-17 0)
(3 5.07564e-16 0)
(3 1.16794e-15 0)
(3 1.35668e-15 0)
(3 9.84301e-16 0)
(3 3.66276e-16 0)
(3 2.43223e-16 0)
(3 3.95624e-16 0)
(3 3.02644e-16 0)
(3 9.39037e-17 0)
(3 -4.13058e-16 0)
(3 -6.92291e-16 0)
(3 -3.05897e-16 0)
(3 9.75313e-16 0)
(3 2.13133e-15 0)
(3 1.95323e-15 0)
(3 1.74131e-15 0)
(3 1.7867e-15 0)
(3 2.21405e-15 0)
(3 1.03027e-15 0)
(3 -7.36425e-17 0)
(3 -5.14697e-16 0)
(3 -8.30376e-16 0)
(3 -1.05221e-15 0)
(3 -6.98312e-16 0)
(3 -1.16748e-15 0)
(3 -1.46455e-15 0)
(3 -1.11093e-15 0)
(3 -1.01998e-15 0)
(3 -1.28423e-16 0)
(3 3.12512e-16 0)
(3 1.30792e-15 0)
(3 2.1713e-15 0)
(3 1.29096e-15 0)
(3 4.95621e-16 0)
(3 5.47794e-16 0)
(3 9.50794e-16 0)
(3 1.93296e-16 0)
(3 -2.59212e-16 0)
(3 -2.60326e-17 0)
(3 -2.19933e-17 0)
(3 -2.63426e-16 0)
(3 -7.91252e-16 0)
(3 -8.38705e-16 0)
(3 -3.91182e-16 0)
(3 -3.68454e-16 0)
(3 -4.18874e-16 0)
(3 -4.72728e-16 0)
(3 -7.18189e-16 0)
(3 -1.02785e-15 0)
(3 -1.69203e-15 0)
(3 -1.64377e-15 0)
(3 -1.17075e-15 0)
(3 -6.11942e-16 0)
(3 -7.48493e-16 0)
(3 -5.66007e-16 0)
(3 6.60365e-17 0)
(3 5.89213e-16 0)
(3 8.13995e-16 0)
(3 5.99119e-16 0)
(3 6.68048e-16 0)
(3 6.85172e-16 0)
(3 7.63383e-16 0)
(3 1.03741e-15 0)
(3 7.22159e-17 0)
(3 -9.38284e-16 0)
(3 -1.18124e-15 0)
(3 -1.50846e-15 0)
(3 -9.18849e-16 0)
(3 -5.55466e-16 0)
(3 -2.98495e-16 0)
(3 -4.78824e-16 0)
(3 -1.6664e-15 0)
(3 -3.63909e-15 0)
(3 -4.76128e-15 0)
(3 -3.47022e-15 0)
(3 -1.76074e-15 0)
(3 -2.16805e-15 0)
(3 -2.93561e-15 0)
(3 -2.67616e-15 0)
(3 -2.09394e-15 0)
(3 -1.82646e-15 0)
(3 -4.7023e-15 0)