/*--------------------------------*- C++ -*----------------------------------*\
  =========                 |
  \\      /  F ield         | OpenFOAM: The Open Source CFD Toolbox
   \\    /   O peration     | Website:  https://openfoam.org
    \\  /    A nd           | Version:  7
     \\/     M anipulation  |
\*---------------------------------------------------------------------------*/
FoamFile
{
    version     2.0;
    format      ascii;
    class       volVectorField;
    location    "18";
    object      U;
}
// * * * * * * * * * * * * * * * * * * * * * * * * * * * * * * * * * * * * * //

dimensions      [0 1 -1 0 0 0 0];

internalField   nonuniform List<vector> 
433
(
(1.0001 -0.000311602 0)
(1.00286 -0.00088635 0)
(1.00728 -0.00134731 0)
(1.01249 -0.00170578 0)
(1.01786 -0.00197421 0)
(1.02303 -0.00216953 0)
(1.0278 -0.00230347 0)
(1.03209 -0.0023955 0)
(1.03587 -0.00244684 0)
(1.0392 -0.0024939 0)
(1.0001 -0.000927728 0)
(1.00288 -0.00263373 0)
(1.00735 -0.00400606 0)
(1.01261 -0.00507575 0)
(1.01803 -0.00587733 0)
(1.02326 -0.00646076 0)
(1.02809 -0.00686109 0)
(1.03245 -0.00713606 0)
(1.03628 -0.00728992 0)
(1.03966 -0.00742774 0)
(1.0001 -0.00153005 0)
(1.00292 -0.00433826 0)
(1.00746 -0.00660534 0)
(1.01282 -0.00837824 0)
(1.01836 -0.00970889 0)
(1.02371 -0.0106786 0)
(1.02865 -0.0113447 0)
(1.03312 -0.0118026 0)
(1.03704 -0.0120585 0)
(1.04053 -0.012288 0)
(1.0001 -0.00212066 0)
(1.00298 -0.00601313 0)
(1.00762 -0.0091664 0)
(1.01312 -0.0116419 0)
(1.01881 -0.0135048 0)
(1.02433 -0.0148657 0)
(1.02944 -0.0158017 0)
(1.03407 -0.0164467 0)
(1.03813 -0.0168064 0)
(1.04178 -0.0171313 0)
(1.00011 -0.00270226 0)
(1.00305 -0.00766699 0)
(1.00781 -0.0117043 0)
(1.01348 -0.0148887 0)
(1.01937 -0.0172939 0)
(1.02511 -0.0190572 0)
(1.03043 -0.0202723 0)
(1.03528 -0.021112 0)
(1.0395 -0.0215794 0)
(1.04336 -0.0220055 0)
(1.00011 -0.00327652 0)
(1.00313 -0.00930514 0)
(1.00803 -0.0142294 0)
(1.0139 -0.0181355 0)
(1.02003 -0.0210993 0)
(1.02603 -0.0232819 0)
(1.0316 -0.0247898 0)
(1.0367 -0.0258359 0)
(1.04114 -0.0264167 0)
(1.04526 -0.0269521 0)
(1.00011 -0.00384415 0)
(1.00321 -0.0109302 0)
(1.00826 -0.0167483 0)
(1.01435 -0.0213938 0)
(1.02074 -0.0249384 0)
(1.02704 -0.0275629 0)
(1.03291 -0.0293822 0)
(1.03832 -0.0306499 0)
(1.043 -0.0313524 0)
(1.04742 -0.0320079 0)
(1.00011 -0.00440502 0)
(1.00329 -0.0125424 0)
(1.0085 -0.0192635 0)
(1.01481 -0.0246709 0)
(1.02149 -0.0288236 0)
(1.02813 -0.0319184 0)
(1.03433 -0.0340724 0)
(1.04008 -0.0355814 0)
(1.04506 -0.0364165 0)
(1.04982 -0.0372055 0)
(1.00011 -0.00495828 0)
(1.00336 -0.0141397 0)
(1.00872 -0.0217746 0)
(1.01527 -0.0279696 0)
(1.02226 -0.032763 0)
(1.02926 -0.0363621 0)
(1.03584 -0.0388794 0)
(1.04198 -0.040654 0)
(1.04727 -0.0416356 0)
(1.05243 -0.0425745 0)
(1.00011 -0.00550239 0)
(1.00342 -0.015718 0)
(1.00892 -0.0242775 0)
(1.01571 -0.0312888 0)
(1.02301 -0.0367601 0)
(1.03041 -0.0409037 0)
(1.03739 -0.0438184 0)
(1.04396 -0.0458878 0)
(1.04961 -0.0470332 0)
(1.05521 -0.0481424 0)
(1.00011 -0.00603529 0)
(1.00347 -0.0172716 0)
(1.00908 -0.0267658 0)
(1.0161 -0.0346236 0)
(1.02373 -0.0408146 0)
(1.03153 -0.0455487 0)
(1.03894 -0.0489013 0)
(1.04599 -0.0513006 0)
(1.05204 -0.052631 0)
(1.05813 -0.0539345 0)
(1.00011 -0.0065544 0)
(1.0035 -0.0187929 0)
(1.0092 -0.0292301 0)
(1.01642 -0.0379659 0)
(1.02436 -0.0449225 0)
(1.0326 -0.0502993 0)
(1.04047 -0.0541366 0)
(1.04802 -0.0569071 0)
(1.05451 -0.0584484 0)
(1.06114 -0.0599751 0)
(1.00011 -0.00705678 0)
(1.0035 -0.0202735 0)
(1.00925 -0.031659 0)
(1.01666 -0.041304 0)
(1.0249 -0.0490758 0)
(1.03357 -0.0551539 0)
(1.04192 -0.0595297 0)
(1.05003 -0.0627199 0)
(1.057 -0.0645032 0)
(1.06421 -0.0662874 0)
(1.00011 -0.00753922 0)
(1.00348 -0.0217035 0)
(1.00923 -0.0340391 0)
(1.01678 -0.0446232 0)
(1.0253 -0.0532631 0)
(1.0344 -0.0601072 0)
(1.04326 -0.0650831 0)
(1.05195 -0.0687495 0)
(1.05944 -0.070812 0)
(1.06728 -0.0728939 0)
(1.00011 -0.00799828 0)
(1.00342 -0.0230726 0)
(1.00913 -0.0363553 0)
(1.01677 -0.0479059 0)
(1.02553 -0.0574694 0)
(1.03505 -0.0651502 0)
(1.04443 -0.0707959 0)
(1.05374 -0.0750038 0)
(1.0618 -0.0773898 0)
(1.07032 -0.0798169 0)
(1.0001 -0.00843046 0)
(1.00332 -0.0243702 0)
(1.00892 -0.0385911 0)
(1.0166 -0.0511323 0)
(1.02556 -0.0616766 0)
(1.03548 -0.0702701 0)
(1.04538 -0.0766642 0)
(1.05535 -0.0814887 0)
(1.06402 -0.0842504 0)
(1.07328 -0.0870785 0)
(1.0001 -0.00883222 0)
(1.00318 -0.0255851 0)
(1.00862 -0.0407292 0)
(1.01626 -0.0542798 0)
(1.02535 -0.0658632 0)
(1.03565 -0.0754503 0)
(1.04607 -0.0826804 0)
(1.05672 -0.0882074 0)
(1.06604 -0.0914066 0)
(1.07608 -0.0947009 0)
(1.0001 -0.00920012 0)
(1.00299 -0.0267069 0)
(1.0082 -0.0427517 0)
(1.01572 -0.0573245 0)
(1.02488 -0.0700045 0)
(1.03551 -0.08067 0)
(1.04644 -0.0888335 0)
(1.05778 -0.0951606 0)
(1.06782 -0.0988696 0)
(1.07869 -0.102706 0)
(1.00009 -0.00953092 0)
(1.00276 -0.0277253 0)
(1.00766 -0.0446406 0)
(1.01497 -0.0602407 0)
(1.02411 -0.0740733 0)
(1.03501 -0.0859043 0)
(1.04643 -0.0951087 0)
(1.05849 -0.102346 0)
(1.06928 -0.106649 0)
(1.08104 -0.111118 0)
(1.00009 -0.00982161 0)
(1.00248 -0.0286308 0)
(1.007 -0.046378 0)
(1.014 -0.0630018 0)
(1.02303 -0.0780396 0)
(1.03412 -0.0911242 0)
(1.046 -0.101487 0)
(1.05877 -0.109757 0)
(1.07037 -0.114754 0)
(1.08306 -0.119959 0)
(1.00009 -0.0100695 0)
(1.00216 -0.0294152 0)
(1.00621 -0.0479465 0)
(1.0128 -0.0655811 0)
(1.0216 -0.0818709 0)
(1.0328 -0.096296 0)
(1.04507 -0.107945 0)
(1.05856 -0.117386 0)
(1.07101 -0.12319 0)
(1.08469 -0.129254 0)
(1.00008 -0.0102724 0)
(1.00178 -0.0300712 0)
(1.0053 -0.04933 0)
(1.01135 -0.0679516 0)
(1.01982 -0.0855329 0)
(1.031 -0.101382 0)
(1.04361 -0.114454 0)
(1.05779 -0.125216 0)
(1.07114 -0.131962 0)
(1.08584 -0.139026 0)
(1.00008 -0.0104285 0)
(1.00136 -0.0305932 0)
(1.00427 -0.0505134 0)
(1.00965 -0.0700875 0)
(1.01766 -0.0889897 0)
(1.02869 -0.10634 0)
(1.04156 -0.120982 0)
(1.05639 -0.133227 0)
(1.07068 -0.141072 0)
(1.08646 -0.149303 0)
(1.00008 -0.0105366 0)
(1.00089 -0.0309771 0)
(1.00312 -0.0514835 0)
(1.00771 -0.0719642 0)
(1.01512 -0.0922037 0)
(1.02585 -0.111125 0)
(1.03887 -0.12749 0)
(1.0543 -0.141395 0)
(1.06955 -0.150518 0)
(1.08645 -0.160109 0)
(1.00008 -0.0105958 0)
(1.00039 -0.0312202 0)
(1.00187 -0.052229 0)
(1.00553 -0.0735593 0)
(1.0122 -0.0951371 0)
(1.02244 -0.115688 0)
(1.0355 -0.133933 0)
(1.05143 -0.149683 0)
(1.06767 -0.160296 0)
(1.08573 -0.171472 0)
(1.00008 -0.0106062 0)
(0.999843 -0.0313217 0)
(1.00051 -0.052741 0)
(1.00313 -0.0748527 0)
(1.00891 -0.0977516 0)
(1.01845 -0.119978 0)
(1.03141 -0.140263 0)
(1.04772 -0.158049 0)
(1.06497 -0.170397 0)
(1.08421 -0.183416 0)
(1.00008 -0.0105681 0)
(0.999271 -0.0312821 0)
(0.999066 -0.053013 0)
(1.0005 -0.0758276 0)
(1.00526 -0.100009 0)
(1.01388 -0.123943 0)
(1.02657 -0.146421 0)
(1.04311 -0.166441 0)
(1.06136 -0.180811 0)
(1.0818 -0.195964 0)
(1.00008 -0.0104826 0)
(0.998676 -0.0311036 0)
(0.997544 -0.0530417 0)
(0.997689 -0.0764704 0)
(1.00127 -0.101874 0)
(1.00872 -0.127529 0)
(1.02098 -0.152343 0)
(1.03751 -0.174797 0)
(1.05676 -0.191518 0)
(1.0784 -0.209136 0)
(1.00008 -0.0103512 0)
(0.998063 -0.0307897 0)
(0.995957 -0.0528263 0)
(0.994706 -0.0767712 0)
(0.996952 -0.103313 0)
(1.00299 -0.130687 0)
(1.01461 -0.157957 0)
(1.03087 -0.183046 0)
(1.0511 -0.202495 0)
(1.07388 -0.222938 0)
(1.04109 -0.00246726 -2.22807e-22)
(1.04181 -0.00245687 -5.27523e-23)
(1.04253 -0.0024464 3.07765e-22)
(1.04325 -0.00243592 -3.3872e-22)
(1.04156 -0.00735496 2.38574e-22)
(1.04228 -0.00732696 1.91556e-22)
(1.043 -0.0072988 -8.56534e-24)
(1.04372 -0.00727057 -2.97647e-22)
(1.04246 -0.0121658 -2.77577e-22)
(1.04318 -0.012119 1.44061e-22)
(1.04391 -0.0120718 -1.48659e-22)
(1.04463 -0.0120245 3.94709e-22)
(1.04375 -0.0169566 8.40683e-23)
(1.04448 -0.0168901 1.48389e-22)
(1.04521 -0.0168232 -7.81671e-22)
(1.04595 -0.016756 -3.67486e-24)
(1.04538 -0.0217728 6.3591e-22)
(1.04613 -0.0216847 -5.47444e-22)
(1.04688 -0.0215963 4.46692e-22)
(1.04763 -0.0215077 1.05108e-21)
(1.04734 -0.0266555 1.31013e-24)
(1.04811 -0.0265439 4.65443e-22)
(1.04887 -0.0264319 -1.54341e-22)
(1.04964 -0.0263199 2.53781e-22)
(1.05042 -0.0262079 -1.91063e-22)
(1.04958 -0.0316402 -1.73006e-21)
(1.05037 -0.0315025 1.05398e-21)
(1.05116 -0.0313645 6.87195e-22)
(1.05195 -0.0312267 -4.78966e-23)
(1.05275 -0.0310891 -1.71961e-22)
(1.05208 -0.036759 5.94751e-22)
(1.0529 -0.0365923 -2.45245e-21)
(1.05371 -0.0364257 -1.64191e-21)
(1.05453 -0.0362594 3.30836e-22)
(1.05536 -0.0360935 7.28994e-22)
(1.0548 -0.0420408 1.54192e-21)
(1.05565 -0.041842 2.29771e-21)
(1.05649 -0.0416436 8.49872e-22)
(1.05735 -0.041446 1.03439e-21)
(1.05822 -0.041249 1.98943e-22)
(1.05771 -0.0475125 -3.22587e-22)
(1.0586 -0.0472783 -6.92402e-22)
(1.05948 -0.0470448 -9.19816e-22)
(1.06037 -0.0468126 -1.57576e-21)
(1.06128 -0.0465813 3.58241e-22)
(1.06077 -0.0531992 -2.98465e-22)
(1.06172 -0.052926 -1.34094e-21)
(1.06264 -0.052654 2.57141e-22)
(1.06358 -0.0523836 -3.39616e-22)
(1.06454 -0.0521147 -1.04696e-21)
(1.06396 -0.0591247 1.41443e-21)
(1.06496 -0.0588088 9.23376e-22)
(1.06594 -0.0584946 1.78765e-21)
(1.06693 -0.0581826 -4.31646e-23)
(1.06795 -0.0578723 -1.33424e-21)
(1.06723 -0.0653122 -1.93827e-21)
(1.0683 -0.0649498 7.33237e-22)
(1.06934 -0.0645896 -1.35194e-21)
(1.07039 -0.064232 1.68317e-21)
(1.07148 -0.0638768 -1.04859e-22)
(1.07054 -0.0717842 1.2596e-21)
(1.07169 -0.0713714 -5.2483e-22)
(1.0728 -0.0709613 -6.99314e-22)
(1.07393 -0.0705543 -4.14501e-22)
(1.07509 -0.07015 -1.61686e-22)
(1.07385 -0.0785632 -1.27285e-21)
(1.07509 -0.078096 -7.32018e-22)
(1.07629 -0.0776319 1.32742e-21)
(1.07751 -0.0771715 7.00819e-22)
(1.07876 -0.0767142 4.32763e-22)
(1.07711 -0.0856715 -4.62904e-22)
(1.07847 -0.0851461 -1.67264e-22)
(1.07976 -0.084624 -6.48346e-22)
(1.08108 -0.0841061 -1.02515e-21)
(1.08244 -0.0835916 7.79306e-22)
(1.08028 -0.0931319 5.01763e-22)
(1.08177 -0.0925444 -3.08383e-21)
(1.08318 -0.0919603 1.73888e-22)
(1.08461 -0.0913808 -2.96343e-22)
(1.08609 -0.0908049 2.4329e-22)
(1.0833 -0.100968 1.63426e-21)
(1.08494 -0.100314 2.09635e-21)
(1.08649 -0.0996644 -6.9626e-22)
(1.08806 -0.0990191 2.71192e-22)
(1.08967 -0.0983777 -2.43997e-22)
(1.08612 -0.109203 3.02026e-21)
(1.08794 -0.10848 9.05264e-22)
(1.08964 -0.107761 2.22503e-21)
(1.09137 -0.107046 2.82557e-21)
(1.09314 -0.106334 1.72899e-22)
(1.08868 -0.117862 -1.95775e-22)
(1.09071 -0.117067 3.45581e-21)
(1.0926 -0.116274 -1.1163e-21)
(1.09451 -0.115486 -4.50745e-21)
(1.09646 -0.114701 -1.90148e-21)
(1.09092 -0.126971 -1.25051e-21)
(1.09319 -0.126101 -6.1162e-21)
(1.0953 -0.125233 -1.16188e-23)
(1.09742 -0.124367 3.28932e-21)
(1.09958 -0.123504 -1.16569e-21)
(1.09279 -0.136557 -6.43565e-21)
(1.09533 -0.135612 1.60545e-21)
(1.09769 -0.134664 -1.56183e-21)
(1.10005 -0.133718 -2.19657e-21)
(1.10246 -0.132773 3.00809e-21)
(1.09421 -0.14665 8.60998e-21)
(1.09707 -0.145628 3.77295e-21)
(1.09972 -0.144599 1.77237e-21)
(1.10236 -0.143571 -1.60276e-21)
(1.10504 -0.142541 -2.4282e-21)
(1.09511 -0.15728 -1.03548e-20)
(1.09835 -0.156181 -8.47384e-22)
(1.10133 -0.155071 -1.88467e-21)
(1.10428 -0.153958 4.01935e-21)
(1.10728 -0.15284 -1.21351e-21)
(1.09543 -0.168479 8.23181e-21)
(1.09909 -0.167306 -6.85004e-22)
(1.10245 -0.166115 5.37536e-21)
(1.10577 -0.164917 -1.55863e-21)
(1.10914 -0.163709 5.98758e-21)
(1.09508 -0.180281 -9.40094e-22)
(1.09923 -0.179038 -2.9606e-22)
(1.10304 -0.17777 -3.00625e-21)
(1.10677 -0.176487 -1.70958e-21)
(1.11055 -0.175188 -5.2963e-21)
(1.09399 -0.19272 -8.66274e-22)
(1.0987 -0.191417 -6.76163e-21)
(1.10301 -0.190076 2.54231e-21)
(1.10722 -0.188711 4.33279e-22)
(1.11146 -0.187322 6.50216e-21)
(1.09206 -0.205828 -2.98865e-21)
(1.09741 -0.204479 1.08329e-20)
(1.1023 -0.203076 -3.13018e-21)
(1.10705 -0.201635 -3.20884e-21)
(1.11183 -0.200159 -3.14887e-21)
(1.08919 -0.219637 2.46194e-21)
(1.09527 -0.218263 -7.24805e-21)
(1.10082 -0.216812 3.14985e-21)
(1.10619 -0.215307 9.64687e-22)
(1.11157 -0.21375 -1.36184e-21)
(1.09848 -0.231324 3.39476e-21)
(1.10455 -0.229772 8.49146e-21)
(1.11062 -0.228147 -1.81888e-21)
)
;

boundaryField
{
    inlet
    {
        type            uniformFixedValue;
        uniformValue    constant (1 0 0);
        value           uniform (1 0 0);
    }
    outlet
    {
        type            pressureInletOutletVelocity;
        value           nonuniform 0();
    }
    cylinder
    {
        type            fixedValue;
        value           nonuniform 0();
    }
    top
    {
        type            symmetryPlane;
    }
    bottom
    {
        type            symmetryPlane;
    }
    defaultFaces
    {
        type            empty;
    }
    procBoundary0to1
    {
        type            processor;
        value           nonuniform List<vector> 
31
(
(1.04397 -0.0024255 -6.58144e-22)
(1.04444 -0.00724229 -4.33904e-22)
(1.04537 -0.011977 -3.13352e-22)
(1.04669 -0.0166887 2.96323e-22)
(1.04839 -0.0214189 3.51555e-22)
(1.04839 -0.0214189 3.51555e-22)
(1.0512 -0.0260959 1.05236e-22)
(1.05356 -0.0309516 -1.34226e-22)
(1.05621 -0.0359281 2.27759e-22)
(1.0591 -0.0410527 -3.60346e-22)
(1.06221 -0.046351 -5.9096e-22)
(1.06552 -0.0518471 -7.41482e-23)
(1.06898 -0.0575639 4.03586e-22)
(1.07258 -0.0635237 -3.05853e-23)
(1.07628 -0.0697484 -2.8528e-22)
(1.08003 -0.0762599 7.00422e-22)
(1.08382 -0.0830804 -6.30166e-22)
(1.08759 -0.0902325 1.00077e-21)
(1.09131 -0.0977396 -8.26478e-22)
(1.09495 -0.105626 2.10433e-22)
(1.09845 -0.113918 -1.04258e-21)
(1.10178 -0.122642 1.28644e-21)
(1.1049 -0.131828 -2.28671e-21)
(1.10776 -0.141508 1.35318e-21)
(1.11031 -0.151716 -6.59847e-22)
(1.11252 -0.16249 1.85076e-21)
(1.11433 -0.173872 -4.40353e-22)
(1.11571 -0.185907 -1.95427e-21)
(1.1166 -0.198645 3.28117e-21)
(1.11694 -0.21214 1.29251e-21)
(1.11667 -0.226449 -2.20964e-21)
)
;
    }
    procBoundary0to6
    {
        type            processor;
        value           nonuniform List<vector> 
16
(
(1.00007 -0.0101762 0)
(0.997439 -0.0303452 0)
(0.994319 -0.0523696 0)
(0.991583 -0.0767239 0)
(0.992348 -0.104294 0)
(0.996706 -0.133366 0)
(1.00749 -0.163182 0)
(1.02314 -0.191107 0)
(1.04431 -0.213707 0)
(1.06812 -0.237362 0)
(1.08525 -0.234167 6.91833e-22)
(1.09217 -0.232799 -8.58089e-21)
(1.09217 -0.232799 -8.58089e-21)
(1.09515 -0.246647 4.76811e-22)
(1.10203 -0.245075 7.27079e-21)
(1.10889 -0.243402 7.88729e-22)
)
;
    }
}


// ************************************************************************* //
