/*--------------------------------*- C++ -*----------------------------------*\
  =========                 |
  \\      /  F ield         | OpenFOAM: The Open Source CFD Toolbox
   \\    /   O peration     | Website:  https://openfoam.org
    \\  /    A nd           | Version:  7
     \\/     M anipulation  |
\*---------------------------------------------------------------------------*/
FoamFile
{
    version     2.0;
    format      ascii;
    class       surfaceScalarField;
    location    "0.4";
    object      phi;
}
// * * * * * * * * * * * * * * * * * * * * * * * * * * * * * * * * * * * * * //

dimensions      [0 3 -1 0 0 0 0];

internalField   nonuniform List<scalar> 
32582
(
1.08046e-05
-7.7397e-09
1.08274e-05
-2.28164e-08
1.08653e-05
-3.7863e-08
1.09176e-05
-5.23683e-08
1.09836e-05
-6.60046e-08
1.10623e-05
-7.86236e-08
1.11524e-05
-9.00953e-08
1.12527e-05
-1.00322e-07
1.13619e-05
-1.09267e-07
1.14789e-05
-1.16957e-07
1.16024e-05
-1.23471e-07
1.17313e-05
-1.28927e-07
1.18648e-05
-1.33465e-07
1.2002e-05
-1.37224e-07
1.21423e-05
-1.40314e-07
1.22851e-05
-1.42796e-07
1.24298e-05
-1.44665e-07
1.25756e-05
-1.45852e-07
1.27218e-05
-1.46231e-07
1.28675e-05
-1.45644e-07
1.30114e-05
-1.4393e-07
1.31524e-05
-1.40959e-07
1.3289e-05
-1.36656e-07
1.34201e-05
-1.31027e-07
1.35442e-05
-1.24157e-07
1.36604e-05
-1.16214e-07
1.37679e-05
-1.07425e-07
1.38659e-05
-9.80628e-08
1.39543e-05
-8.84127e-08
1.40331e-05
-7.8754e-08
1.41024e-05
-6.93375e-08
1.41628e-05
-6.03716e-08
1.42148e-05
-5.2015e-08
1.42592e-05
-4.43742e-08
1.42967e-05
-3.75078e-08
1.43281e-05
-3.14322e-08
1.43543e-05
-2.61308e-08
1.43758e-05
-2.15619e-08
1.43935e-05
-1.7668e-08
1.44079e-05
-1.43821e-08
1.44195e-05
-1.16339e-08
1.44289e-05
-9.35384e-09
1.44363e-05
-7.47579e-09
1.44423e-05
-5.93915e-09
1.4447e-05
-4.68956e-09
1.44506e-05
-3.67926e-09
1.44535e-05
-2.86692e-09
1.44557e-05
-2.21726e-09
1.44574e-05
-1.70045e-09
1.44587e-05
-1.29155e-09
1.44597e-05
-9.69841e-10
1.44604e-05
-7.18226e-10
1.44609e-05
-5.227e-10
1.44613e-05
-3.71843e-10
1.44616e-05
-2.56391e-10
1.44617e-05
-1.68864e-10
1.44618e-05
-1.03248e-10
1.44619e-05
-5.47276e-11
1.44619e-05
-1.94653e-11
1.44619e-05
5.57254e-12
1.44619e-05
2.2857e-11
1.44618e-05
3.42022e-11
1.44618e-05
4.1121e-11
1.44618e-05
4.4771e-11
1.44617e-05
4.60486e-11
1.44617e-05
4.56424e-11
1.44616e-05
4.40784e-11
1.44616e-05
4.17527e-11
1.44615e-05
3.89631e-11
1.44615e-05
3.59303e-11
1.44615e-05
3.28135e-11
1.44614e-05
2.97254e-11
1.44614e-05
2.67434e-11
1.44614e-05
2.39185e-11
1.44614e-05
2.12817e-11
1.44613e-05
1.88494e-11
1.44613e-05
1.6627e-11
1.44613e-05
1.46123e-11
1.44613e-05
1.27982e-11
1.44613e-05
1.11739e-11
1.44613e-05
9.72669e-12
1.44613e-05
8.44255e-12
1.44613e-05
7.30665e-12
1.44613e-05
6.30437e-12
1.44613e-05
5.42188e-12
1.44613e-05
4.64632e-12
1.44612e-05
3.96562e-12
1.44612e-05
3.36824e-12
1.44612e-05
2.84337e-12
1.44612e-05
2.38102e-12
1.44612e-05
1.97213e-12
1.44612e-05
1.6085e-12
1.44612e-05
1.2828e-12
1.44612e-05
9.88345e-13
1.44612e-05
7.18823e-13
1.44612e-05
4.68074e-13
1.44612e-05
2.30213e-13
1.44612e-05
-2.28383e-16
1.44612e-05
-2.28352e-13
1.44612e-05
-4.58871e-13
1.44612e-05
-6.96864e-13
1.44612e-05
-9.4797e-13
1.44612e-05
-1.21842e-12
1.44612e-05
-1.51486e-12
1.44612e-05
-1.84417e-12
1.44612e-05
-2.21349e-12
1.44612e-05
-2.63063e-12
1.44612e-05
-3.10468e-12
1.44613e-05
-3.64644e-12
1.44613e-05
-4.26858e-12
1.44613e-05
-4.98537e-12
1.44613e-05
-5.81277e-12
1.44613e-05
-6.76891e-12
1.44613e-05
-7.87474e-12
1.44613e-05
-9.15483e-12
1.44613e-05
-1.0638e-11
1.44613e-05
-1.23576e-11
1.44613e-05
-1.4352e-11
1.44613e-05
-1.66654e-11
1.44614e-05
-1.93493e-11
1.44614e-05
-2.24634e-11
1.44614e-05
-2.6077e-11
1.44614e-05
-3.02703e-11
1.44615e-05
-3.51368e-11
1.44615e-05
-4.07852e-11
1.44616e-05
-4.73413e-11
1.44616e-05
-5.49507e-11
1.44617e-05
-6.37821e-11
1.44618e-05
-7.40322e-11
1.44618e-05
-8.59288e-11
1.44619e-05
-9.97365e-11
1.44621e-05
-1.15763e-10
1.44622e-05
-1.34363e-10
1.44624e-05
-1.55952e-10
1.44625e-05
-1.81003e-10
1.44627e-05
-2.10079e-10
1.4463e-05
-2.43823e-10
1.44633e-05
-2.82983e-10
1.44636e-05
-3.28431e-10
1.4464e-05
-3.81172e-10
1.44644e-05
-4.42378e-10
1.44649e-05
-5.13407e-10
1.44655e-05
-5.95832e-10
1.44662e-05
-6.91484e-10
1.4467e-05
-8.02482e-10
1.4468e-05
-9.31285e-10
1.4469e-05
-1.08075e-09
1.44703e-05
-1.25418e-09
1.44717e-05
-1.45543e-09
1.44734e-05
-1.68895e-09
1.44754e-05
-1.95992e-09
1.44777e-05
-2.27431e-09
1.44803e-05
-2.63909e-09
1.44834e-05
-3.06233e-09
1.44869e-05
-3.55336e-09
1.4491e-05
-4.12304e-09
1.44958e-05
-4.78393e-09
1.45014e-05
-5.55058e-09
1.45078e-05
-6.43988e-09
1.45153e-05
-7.47136e-09
1.4524e-05
-8.66766e-09
1.4534e-05
-1.0055e-08
1.45457e-05
-1.16637e-08
1.45592e-05
-1.35287e-08
1.45749e-05
-1.56906e-08
1.45931e-05
-1.81963e-08
1.46142e-05
-2.10995e-08
1.46387e-05
-2.44626e-08
1.4667e-05
-2.83571e-08
1.46999e-05
-3.28652e-08
1.4738e-05
-3.80813e-08
1.47821e-05
-4.41131e-08
1.48332e-05
-5.10839e-08
1.48923e-05
-5.91334e-08
1.49607e-05
-6.84202e-08
1.50398e-05
-7.91227e-08
1.51313e-05
-9.14407e-08
1.52369e-05
-1.05596e-07
1.53587e-05
-1.21833e-07
1.54991e-05
-1.40417e-07
1.56608e-05
-1.61632e-07
1.58465e-05
-1.85774e-07
1.60597e-05
-2.13146e-07
1.63037e-05
-2.44043e-07
1.65825e-05
-2.78737e-07
1.68999e-05
-3.17449e-07
1.72602e-05
-3.60322e-07
1.76676e-05
-4.07377e-07
1.81261e-05
-4.5847e-07
1.86393e-05
-5.1323e-07
1.92103e-05
-5.71002e-07
1.98411e-05
-6.30792e-07
2.05323e-05
-6.91208e-07
2.12828e-05
-7.50451e-07
2.20891e-05
-8.06301e-07
2.29453e-05
-8.56229e-07
2.38428e-05
-8.97477e-07
2.47701e-05
-9.27324e-07
2.57134e-05
-9.43354e-07
-9.43746e-07
2.66572e-05
3.24136e-05
-3.07753e-08
3.24829e-05
-9.21387e-08
3.25976e-05
-1.52532e-07
3.27559e-05
-2.10699e-07
3.29554e-05
-2.65532e-07
3.31931e-05
-3.16256e-07
3.34653e-05
-3.62304e-07
3.37682e-05
-4.03304e-07
3.40981e-05
-4.3912e-07
3.4451e-05
-4.69859e-07
3.48234e-05
-4.95842e-07
3.5212e-05
-5.17552e-07
3.56141e-05
-5.35554e-07
3.60273e-05
-5.5041e-07
3.64495e-05
-5.62568e-07
3.6879e-05
-5.72276e-07
3.73139e-05
-5.79525e-07
3.77521e-05
-5.8404e-07
3.81911e-05
-5.85321e-07
3.86282e-05
-5.82738e-07
3.906e-05
-5.75649e-07
3.94825e-05
-5.63535e-07
3.9892e-05
-5.46103e-07
4.02843e-05
-5.23371e-07
4.06559e-05
-4.95693e-07
4.10034e-05
-4.63736e-07
4.13244e-05
-4.28424e-07
4.16172e-05
-3.90844e-07
4.18809e-05
-3.52148e-07
4.21156e-05
-3.13455e-07
4.2322e-05
-2.75767e-07
4.25016e-05
-2.39918e-07
4.26561e-05
-2.06538e-07
4.27878e-05
-1.76049e-07
4.28989e-05
-1.48678e-07
4.2992e-05
-1.24485e-07
4.30693e-05
-1.03397e-07
4.31329e-05
-8.52432e-08
4.31851e-05
-6.97872e-08
4.32274e-05
-5.67583e-08
4.32617e-05
-4.58725e-08
4.32892e-05
-3.68497e-08
4.33111e-05
-2.94251e-08
4.33285e-05
-2.33558e-08
4.33423e-05
-1.84247e-08
4.3353e-05
-1.44414e-08
4.33614e-05
-1.12412e-08
4.33679e-05
-8.68408e-09
4.33728e-05
-6.65157e-09
4.33766e-05
-5.0448e-09
4.33794e-05
-3.78172e-09
4.33815e-05
-2.79475e-09
4.3383e-05
-2.02855e-09
4.3384e-05
-1.43802e-09
4.33848e-05
-9.86632e-10
4.33852e-05
-6.44902e-10
4.33855e-05
-3.89149e-10
4.33857e-05
-2.00424e-10
4.33857e-05
-6.36391e-11
4.33857e-05
3.31956e-11
4.33856e-05
9.96695e-11
4.33855e-05
1.42983e-10
4.33854e-05
1.69043e-10
4.33852e-05
1.82395e-10
4.33851e-05
1.86544e-10
4.3385e-05
1.84186e-10
4.33848e-05
1.77374e-10
4.33847e-05
1.67656e-10
4.33846e-05
1.56192e-10
4.33845e-05
1.43839e-10
4.33844e-05
1.31214e-10
4.33843e-05
1.18753e-10
4.33842e-05
1.06753e-10
4.33841e-05
9.54106e-11
4.33841e-05
8.4841e-11
4.3384e-05
7.51039e-11
4.3384e-05
6.62172e-11
4.33839e-05
5.81695e-11
4.33839e-05
5.09289e-11
4.33839e-05
4.44507e-11
4.33838e-05
3.86816e-11
4.33838e-05
3.35641e-11
4.33838e-05
2.90393e-11
4.33838e-05
2.5049e-11
4.33837e-05
2.15383e-11
4.33837e-05
1.84549e-11
4.33837e-05
1.57492e-11
4.33837e-05
1.33743e-11
4.33837e-05
1.12875e-11
4.33837e-05
9.44947e-12
4.33837e-05
7.82491e-12
4.33837e-05
6.38123e-12
4.33837e-05
5.08887e-12
4.33837e-05
3.92051e-12
4.33837e-05
2.8505e-12
4.33837e-05
1.85445e-12
4.33837e-05
9.09673e-13
4.33837e-05
-4.57056e-15
4.33837e-05
-9.08599e-13
4.33837e-05
-1.82183e-12
4.33837e-05
-2.76558e-12
4.33837e-05
-3.76283e-12
4.33837e-05
-4.83775e-12
4.33837e-05
-6.01543e-12
4.33837e-05
-7.32216e-12
4.33837e-05
-8.78648e-12
4.33837e-05
-1.04404e-11
4.33837e-05
-1.23212e-11
4.33837e-05
-1.44721e-11
4.33837e-05
-1.69423e-11
4.33838e-05
-1.97872e-11
4.33838e-05
-2.30701e-11
4.33838e-05
-2.68637e-11
4.33838e-05
-3.1252e-11
4.33838e-05
-3.63325e-11
4.33839e-05
-4.22194e-11
4.33839e-05
-4.90446e-11
4.3384e-05
-5.69597e-11
4.3384e-05
-6.61404e-11
4.33841e-05
-7.67913e-11
4.33841e-05
-8.91498e-11
4.33842e-05
-1.03491e-10
4.33843e-05
-1.20133e-10
4.33844e-05
-1.39448e-10
4.33845e-05
-1.61865e-10
4.33847e-05
-1.87884e-10
4.33848e-05
-2.18081e-10
4.3385e-05
-2.5313e-10
4.33852e-05
-2.93809e-10
4.33855e-05
-3.41024e-10
4.33858e-05
-3.95824e-10
4.33861e-05
-4.59426e-10
4.33865e-05
-5.33246e-10
4.3387e-05
-6.18922e-10
4.33875e-05
-7.18347e-10
4.33882e-05
-8.33742e-10
4.33889e-05
-9.67664e-10
4.33897e-05
-1.12308e-09
4.33907e-05
-1.30345e-09
4.33918e-05
-1.51277e-09
4.33931e-05
-1.75569e-09
4.33947e-05
-2.03758e-09
4.33964e-05
-2.36471e-09
4.33985e-05
-2.74434e-09
4.34009e-05
-3.18486e-09
4.34036e-05
-3.69606e-09
4.34068e-05
-4.28925e-09
4.34106e-05
-4.97759e-09
4.34149e-05
-5.77632e-09
4.34199e-05
-6.70313e-09
4.34257e-05
-7.77853e-09
4.34325e-05
-9.02632e-09
4.34403e-05
-1.04741e-08
4.34494e-05
-1.21539e-08
4.34599e-05
-1.41028e-08
4.34722e-05
-1.63638e-08
4.34864e-05
-1.89868e-08
4.35029e-05
-2.20297e-08
4.3522e-05
-2.55594e-08
4.35442e-05
-2.96534e-08
4.35699e-05
-3.44018e-08
4.35998e-05
-3.99084e-08
4.36344e-05
-4.62937e-08
4.36746e-05
-5.36969e-08
4.37211e-05
-6.22788e-08
4.37752e-05
-7.22253e-08
4.38378e-05
-8.37507e-08
4.39105e-05
-9.71023e-08
4.39947e-05
-1.12564e-07
4.40923e-05
-1.30464e-07
4.42054e-05
-1.51176e-07
4.43364e-05
-1.7513e-07
4.44881e-05
-2.02816e-07
4.46638e-05
-2.3479e-07
4.4867e-05
-2.71686e-07
4.51021e-05
-3.14214e-07
4.53739e-05
-3.63173e-07
4.56877e-05
-4.19451e-07
4.60499e-05
-4.84025e-07
4.64674e-05
-5.57961e-07
4.69482e-05
-6.42401e-07
4.7501e-05
-7.38546e-07
4.81355e-05
-8.47621e-07
4.88623e-05
-9.70835e-07
4.96928e-05
-1.10931e-06
5.06393e-05
-1.26397e-06
5.17145e-05
-1.43545e-06
5.2931e-05
-1.62391e-06
5.43014e-05
-1.82884e-06
5.5837e-05
-2.04886e-06
5.75474e-05
-2.28143e-06
5.94393e-05
-2.52263e-06
6.1515e-05
-2.76693e-06
6.37717e-05
-3.00711e-06
6.61995e-05
-3.23415e-06
6.8781e-05
-3.43776e-06
7.14901e-05
-3.60651e-06
7.42919e-05
-3.72913e-06
7.7144e-05
-3.79549e-06
-3.79783e-06
7.99981e-05
5.40233e-05
-6.98761e-08
5.41409e-05
-2.0973e-07
5.43355e-05
-3.47109e-07
5.4604e-05
-4.79234e-07
5.49422e-05
-6.03742e-07
5.53448e-05
-7.18805e-07
5.58056e-05
-8.2308e-07
5.6318e-05
-9.15728e-07
5.68753e-05
-9.96462e-07
5.7471e-05
-1.06554e-06
5.80989e-05
-1.12372e-06
5.87534e-05
-1.1721e-06
5.94299e-05
-1.21199e-06
6.01241e-05
-1.24468e-06
6.08328e-05
-1.2712e-06
6.15526e-05
-1.29214e-06
6.22806e-05
-1.30751e-06
6.30133e-05
-1.3167e-06
6.37466e-05
-1.3186e-06
6.44756e-05
-1.31181e-06
6.51949e-05
-1.2949e-06
6.5898e-05
-1.26669e-06
6.65785e-05
-1.22654e-06
6.72296e-05
-1.17451e-06
6.78453e-05
-1.11141e-06
6.84204e-05
-1.03875e-06
6.89506e-05
-9.58651e-07
6.94333e-05
-8.73571e-07
6.98673e-05
-7.86121e-07
7.02527e-05
-6.98828e-07
7.05908e-05
-6.13953e-07
7.08843e-05
-5.33361e-07
7.11362e-05
-4.58456e-07
7.13503e-05
-3.90166e-07
7.15306e-05
-3.28977e-07
7.16811e-05
-2.74999e-07
7.18058e-05
-2.28041e-07
7.19082e-05
-1.87694e-07
7.19918e-05
-1.5341e-07
7.20597e-05
-1.24566e-07
7.21143e-05
-1.00511e-07
7.21581e-05
-8.061e-08
7.21929e-05
-6.42624e-08
7.22205e-05
-5.09219e-08
7.22421e-05
-4.01011e-08
7.22591e-05
-3.13741e-08
7.22722e-05
-2.43741e-08
7.22823e-05
-1.87893e-08
7.229e-05
-1.43571e-08
7.22958e-05
-1.08588e-08
7.23002e-05
-8.11335e-09
7.23033e-05
-5.9717e-09
7.23056e-05
-4.31216e-09
7.23072e-05
-3.03574e-09
7.23083e-05
-2.06231e-09
7.2309e-05
-1.32735e-09
7.23094e-05
-7.79074e-10
7.23095e-05
-3.76119e-10
7.23096e-05
-8.55986e-11
7.23095e-05
1.18795e-10
7.23093e-05
2.57653e-10
7.23091e-05
3.4671e-10
7.23089e-05
3.98816e-10
7.23086e-05
4.23802e-10
7.23084e-05
4.29249e-10
7.23082e-05
4.20972e-10
7.23079e-05
4.03394e-10
7.23077e-05
3.79848e-10
7.23075e-05
3.52816e-10
7.23073e-05
3.24123e-10
7.23072e-05
2.95077e-10
7.2307e-05
2.66599e-10
7.23069e-05
2.39312e-10
7.23068e-05
2.13616e-10
7.23067e-05
1.89743e-10
7.23066e-05
1.67803e-10
7.23065e-05
1.47819e-10
7.23064e-05
1.29754e-10
7.23064e-05
1.13525e-10
7.23063e-05
9.90213e-11
7.23063e-05
8.61191e-11
7.23062e-05
7.46847e-11
7.23062e-05
6.45833e-11
7.23062e-05
5.56835e-11
7.23061e-05
4.786e-11
7.23061e-05
4.09937e-11
7.23061e-05
3.49712e-11
7.23061e-05
2.96869e-11
7.23061e-05
2.5045e-11
7.23061e-05
2.09592e-11
7.2306e-05
1.73501e-11
7.2306e-05
1.41447e-11
7.2306e-05
1.12763e-11
7.2306e-05
8.68365e-12
7.2306e-05
6.30908e-12
7.2306e-05
4.09872e-12
7.2306e-05
2.00285e-12
7.2306e-05
-2.38413e-14
7.2306e-05
-2.02669e-12
7.2306e-05
-4.05005e-12
7.2306e-05
-6.1431e-12
7.2306e-05
-8.35678e-12
7.2306e-05
-1.07429e-11
7.2306e-05
-1.33553e-11
7.23061e-05
-1.62521e-11
7.23061e-05
-1.94977e-11
7.23061e-05
-2.31645e-11
7.23061e-05
-2.73364e-11
7.23061e-05
-3.21093e-11
7.23061e-05
-3.75902e-11
7.23062e-05
-4.39005e-11
7.23062e-05
-5.11815e-11
7.23062e-05
-5.95965e-11
7.23063e-05
-6.93312e-11
7.23063e-05
-8.06015e-11
7.23063e-05
-9.3661e-11
7.23064e-05
-1.08802e-10
7.23065e-05
-1.26361e-10
7.23066e-05
-1.46727e-10
7.23066e-05
-1.70354e-10
7.23068e-05
-1.97769e-10
7.23069e-05
-2.29582e-10
7.2307e-05
-2.66501e-10
7.23072e-05
-3.09349e-10
7.23074e-05
-3.5908e-10
7.23076e-05
-4.16798e-10
7.23079e-05
-4.83785e-10
7.23082e-05
-5.61537e-10
7.23086e-05
-6.51783e-10
7.2309e-05
-7.56526e-10
7.23095e-05
-8.78093e-10
7.231e-05
-1.01919e-09
7.23107e-05
-1.18295e-09
7.23114e-05
-1.37301e-09
7.23123e-05
-1.59359e-09
7.23133e-05
-1.84959e-09
7.23145e-05
-2.14669e-09
7.23159e-05
-2.49148e-09
7.23174e-05
-2.89162e-09
7.23193e-05
-3.35599e-09
7.23214e-05
-3.89489e-09
7.23239e-05
-4.52028e-09
7.23268e-05
-5.24601e-09
7.23301e-05
-6.0882e-09
7.2334e-05
-7.06551e-09
7.23385e-05
-8.1996e-09
7.23437e-05
-9.5156e-09
7.23498e-05
-1.10427e-08
7.23569e-05
-1.28147e-08
7.2365e-05
-1.48709e-08
7.23745e-05
-1.72567e-08
7.23855e-05
-2.0025e-08
7.23983e-05
-2.3237e-08
7.24131e-05
-2.69638e-08
7.24303e-05
-3.12876e-08
7.24502e-05
-3.63041e-08
7.24733e-05
-4.21237e-08
7.25002e-05
-4.8875e-08
7.25313e-05
-5.67065e-08
7.25675e-05
-6.57905e-08
7.26094e-05
-7.63264e-08
7.2658e-05
-8.85453e-08
7.27144e-05
-1.02714e-07
7.27799e-05
-1.19143e-07
7.28558e-05
-1.38188e-07
7.29438e-05
-1.60263e-07
7.30459e-05
-1.85844e-07
7.31643e-05
-2.15481e-07
7.33016e-05
-2.49807e-07
7.34606e-05
-2.89549e-07
7.3645e-05
-3.35542e-07
7.38586e-05
-3.88743e-07
7.4106e-05
-4.50245e-07
7.43925e-05
-5.21292e-07
7.47242e-05
-6.03298e-07
7.51078e-05
-6.97857e-07
7.55514e-05
-8.06759e-07
7.60639e-05
-9.32002e-07
7.66557e-05
-1.07579e-06
7.73383e-05
-1.24054e-06
7.81247e-05
-1.42885e-06
7.90296e-05
-1.64345e-06
8.00692e-05
-1.8872e-06
8.12613e-05
-2.16289e-06
8.26251e-05
-2.47318e-06
8.41815e-05
-2.82036e-06
8.59521e-05
-3.20607e-06
8.79592e-05
-3.63093e-06
9.02245e-05
-4.09415e-06
9.27686e-05
-4.59295e-06
9.56091e-05
-5.12194e-06
9.87591e-05
-5.67263e-06
0.000102225
-6.23265e-06
0.000106003
-6.78578e-06
0.00011008
-7.31116e-06
0.000114428
-7.78501e-06
0.000119001
-8.18007e-06
0.000123742
-8.46952e-06
0.000128575
-8.62854e-06
-8.63769e-06
0.000133415
7.56342e-05
-1.26152e-07
7.58034e-05
-3.78901e-07
7.60833e-05
-6.27013e-07
7.64694e-05
-8.65343e-07
7.69553e-05
-1.08965e-06
7.75331e-05
-1.29657e-06
7.81936e-05
-1.48363e-06
7.89272e-05
-1.64935e-06
7.9724e-05
-1.79324e-06
8.05743e-05
-1.91582e-06
8.1469e-05
-2.01849e-06
8.24002e-05
-2.10328e-06
8.33609e-05
-2.17261e-06
8.4345e-05
-2.22883e-06
8.53477e-05
-2.27384e-06
8.63643e-05
-2.30876e-06
8.73904e-05
-2.33364e-06
8.84211e-05
-2.34746e-06
8.94508e-05
-2.34829e-06
9.04727e-05
-2.33367e-06
9.14789e-05
-2.30106e-06
9.24606e-05
-2.24843e-06
9.34087e-05
-2.17464e-06
9.4314e-05
-2.07984e-06
9.51681e-05
-1.96551e-06
9.59638e-05
-1.83442e-06
9.66955e-05
-1.69037e-06
9.73597e-05
-1.53779e-06
9.7955e-05
-1.38138e-06
9.84818e-05
-1.22564e-06
9.89425e-05
-1.07461e-06
9.93407e-05
-9.31562e-07
9.96812e-05
-7.98964e-07
9.99694e-05
-6.78405e-07
0.000100211
-5.70682e-07
0.000100412
-4.75919e-07
0.000100578
-3.93714e-07
0.000100713
-3.23283e-07
0.000100823
-2.63605e-07
0.000100912
-2.13534e-07
0.000100984
-1.7189e-07
0.000101041
-1.37527e-07
0.000101086
-1.09373e-07
0.000101121
-8.64538e-08
0.000101149
-6.79083e-08
0.000101171
-5.29862e-08
0.000101187
-4.10444e-08
0.0001012
-3.15384e-08
0.00010121
-2.40115e-08
0.000101217
-1.80843e-08
0.000101222
-1.34437e-08
0.000101226
-9.833e-09
0.000101229
-7.04282e-09
0.000101231
-4.90335e-09
0.000101232
-3.27746e-09
0.000101233
-2.05491e-09
0.000101233
-1.14743e-09
0.000101233
-4.84665e-10
0.000101233
-1.08863e-11
0.000101233
3.19495e-10
0.000101233
5.39723e-10
0.000101232
6.77393e-10
0.000101232
7.53962e-10
0.000101232
7.85959e-10
0.000101231
7.86099e-10
0.000101231
7.64109e-10
0.000101231
7.27362e-10
0.00010123
6.81401e-10
0.00010123
6.30328e-10
0.00010123
5.77135e-10
0.00010123
5.23955e-10
0.000101229
4.72274e-10
0.000101229
4.2308e-10
0.000101229
3.7699e-10
0.000101229
3.34342e-10
0.000101229
2.95278e-10
0.000101229
2.59797e-10
0.000101229
2.27801e-10
0.000101229
1.9911e-10
0.000101228
1.73515e-10
0.000101228
1.50781e-10
0.000101228
1.30662e-10
0.000101228
1.12909e-10
0.000101228
9.7287e-11
0.000101228
8.35692e-11
0.000101228
7.15412e-11
0.000101228
6.09983e-11
0.000101228
5.17527e-11
0.000101228
4.36377e-11
0.000101228
3.65016e-11
0.000101228
3.02026e-11
0.000101228
2.46106e-11
0.000101228
1.96086e-11
0.000101228
1.50893e-11
0.000101228
1.09518e-11
0.000101228
7.10164e-12
0.000101228
3.45193e-12
0.000101228
-7.61247e-14
0.000101228
-3.56093e-12
0.000101228
-7.0821e-12
0.000101228
-1.07278e-11
0.000101228
-1.45854e-11
0.000101228
-1.87415e-11
0.000101228
-2.32896e-11
0.000101228
-2.83331e-11
0.000101228
-3.39835e-11
0.000101228
-4.03678e-11
0.000101228
-4.76351e-11
0.000101228
-5.5952e-11
0.000101228
-6.55004e-11
0.000101228
-7.64912e-11
0.000101228
-8.91748e-11
0.000101228
-1.03835e-10
0.000101228
-1.20794e-10
0.000101228
-1.40427e-10
0.000101228
-1.63178e-10
0.000101229
-1.89557e-10
0.000101229
-2.20147e-10
0.000101229
-2.55624e-10
0.000101229
-2.96785e-10
0.000101229
-3.44547e-10
0.000101229
-3.99968e-10
0.000101229
-4.64283e-10
0.00010123
-5.38933e-10
0.00010123
-6.25574e-10
0.00010123
-7.26122e-10
0.000101231
-8.42821e-10
0.000101231
-9.78282e-10
0.000101231
-1.13551e-09
0.000101232
-1.31799e-09
0.000101233
-1.52978e-09
0.000101233
-1.7756e-09
0.000101234
-2.06091e-09
0.000101235
-2.39202e-09
0.000101237
-2.77632e-09
0.000101238
-3.22234e-09
0.000101239
-3.73996e-09
0.000101241
-4.34066e-09
0.000101243
-5.0378e-09
0.000101246
-5.84685e-09
0.000101249
-6.78576e-09
0.000101252
-7.87534e-09
0.000101256
-9.13977e-09
0.000101261
-1.06071e-08
0.000101266
-1.23098e-08
0.000101272
-1.42857e-08
0.000101279
-1.65786e-08
0.000101287
-1.92393e-08
0.000101297
-2.23266e-08
0.000101308
-2.59091e-08
0.000101321
-3.00661e-08
0.000101335
-3.48894e-08
0.000101353
-4.0486e-08
0.000101373
-4.69795e-08
0.000101396
-5.45134e-08
0.000101423
-6.32543e-08
0.000101454
-7.3395e-08
0.00010149
-8.51592e-08
0.000101533
-9.88061e-08
0.000101581
-1.14636e-07
0.000101638
-1.32997e-07
0.000101704
-1.54291e-07
0.00010178
-1.78986e-07
0.000101869
-2.0762e-07
0.000101971
-2.40818e-07
0.00010209
-2.793e-07
0.000102228
-3.23899e-07
0.000102388
-3.75575e-07
0.000102574
-4.35435e-07
0.000102789
-5.04752e-07
0.000103039
-5.8499e-07
0.000103328
-6.77824e-07
0.000103663
-7.85176e-07
0.000104051
-9.09232e-07
0.0001045
-1.05248e-06
0.00010502
-1.21774e-06
0.000105621
-1.40817e-06
0.000106316
-1.62733e-06
0.00010712
-1.87914e-06
0.000108047
-2.16793e-06
0.000109117
-2.49839e-06
0.000110349
-2.8755e-06
0.000111766
-3.30446e-06
0.000113394
-3.79053e-06
0.000115259
-4.33874e-06
0.000117392
-4.95362e-06
0.000119825
-5.63866e-06
0.00012259
-6.39569e-06
0.00012572
-7.2241e-06
0.000129247
-8.11987e-06
0.000133199
-9.07437e-06
0.0001376
-1.00733e-05
0.000142462
-1.10951e-05
0.000147787
-1.2111e-05
0.000153559
-1.30826e-05
0.00015974
-1.39664e-05
0.00016627
-1.47094e-05
0.000173061
-1.52606e-05
0.000180002
-1.55699e-05
-1.55972e-05
0.000186962
9.72467e-05
-2.01228e-07
9.74724e-05
-6.04604e-07
9.78457e-05
-1.00036e-06
9.83604e-05
-1.38e-06
9.90074e-05
-1.73663e-06
9.97756e-05
-2.06479e-06
0.000100653
-2.36052e-06
0.000101625
-2.62148e-06
0.000102678
-2.84699e-06
0.000103801
-3.03799e-06
0.000104979
-3.19679e-06
0.000106202
-3.32676e-06
0.000107462
-3.43179e-06
0.000108748
-3.51569e-06
0.000110056
-3.5816e-06
0.000111379
-3.63134e-06
0.00011271
-3.66513e-06
0.000114044
-3.68147e-06
0.000115373
-3.67742e-06
0.000116689
-3.64918e-06
0.000117981
-3.59289e-06
0.000119238
-3.50538e-06
0.000120448
-3.38501e-06
0.0001216
-3.23205e-06
0.000122684
-3.04894e-06
0.000123689
-2.84013e-06
0.000124611
-2.61168e-06
0.000125444
-2.37064e-06
0.000126187
-2.12442e-06
0.000126841
-1.88011e-06
0.00012741
-1.64397e-06
0.0001279
-1.42111e-06
0.000128316
-1.21525e-06
0.000128667
-1.02875e-06
0.000128959
-8.62723e-07
0.0001292
-7.17215e-07
0.000129398
-5.9146e-07
0.000129558
-4.8412e-07
0.000129688
-3.93504e-07
0.000129793
-3.17752e-07
0.000129876
-2.54974e-07
0.000129941
-2.03351e-07
0.000129993
-1.61197e-07
0.000130034
-1.26994e-07
0.000130065
-9.94055e-08
0.00013009
-7.72755e-08
0.000130108
-5.96193e-08
0.000130122
-4.56067e-08
0.000130133
-3.45453e-08
0.000130141
-2.5862e-08
0.000130146
-1.90858e-08
0.00013015
-1.38318e-08
0.000130153
-9.78721e-09
0.000130155
-6.69916e-09
0.000130156
-4.36396e-09
0.000130156
-2.61832e-09
0.000130157
-1.33188e-09
0.000130157
-4.01447e-10
0.000130156
2.56768e-10
0.000130156
7.07641e-10
0.000130155
1.00022e-09
0.000130155
1.17525e-09
0.000130154
1.26376e-09
0.000130154
1.28972e-09
0.000130153
1.27151e-09
0.000130153
1.22313e-09
0.000130153
1.15517e-09
0.000130152
1.07551e-09
0.000130152
9.89953e-10
0.000130151
9.02698e-10
0.000130151
8.16704e-10
0.000130151
7.33996e-10
0.000130151
6.55883e-10
0.00013015
5.83144e-10
0.00013015
5.16171e-10
0.00013015
4.55078e-10
0.00013015
3.99785e-10
0.00013015
3.50057e-10
0.00013015
3.05579e-10
0.00013015
2.65987e-10
0.00013015
2.30888e-10
0.00013015
1.99881e-10
0.000130149
1.72569e-10
0.000130149
1.48571e-10
0.000130149
1.27522e-10
0.000130149
1.09083e-10
0.000130149
9.29399e-11
0.000130149
7.88041e-11
0.000130149
6.64105e-11
0.000130149
5.55182e-11
0.000130149
4.59088e-11
0.000130149
3.7384e-11
0.000130149
2.97619e-11
0.000130149
2.28765e-11
0.000130149
1.65764e-11
0.000130149
1.07216e-11
0.000130149
5.1796e-12
0.000130149
-1.77903e-13
0.000130149
-5.4793e-12
0.000130149
-1.08437e-11
0.000130149
-1.63942e-11
0.000130149
-2.2258e-11
0.000130149
-2.85715e-11
0.000130149
-3.54817e-11
0.000130149
-4.31473e-11
0.000130149
-5.17427e-11
0.000130149
-6.14614e-11
0.000130149
-7.25213e-11
0.000130149
-8.51715e-11
0.000130149
-9.96977e-11
0.000130149
-1.16425e-10
0.000130149
-1.35726e-10
0.000130149
-1.5803e-10
0.00013015
-1.83835e-10
0.00013015
-2.13719e-10
0.00013015
-2.48346e-10
0.00013015
-2.88484e-10
0.00013015
-3.35026e-10
0.00013015
-3.89014e-10
0.00013015
-4.51652e-10
0.00013015
-5.24333e-10
0.000130151
-6.08674e-10
0.000130151
-7.06549e-10
0.000130151
-8.20142e-10
0.000130151
-9.51983e-10
0.000130152
-1.10501e-09
0.000130152
-1.28261e-09
0.000130153
-1.48876e-09
0.000130153
-1.72801e-09
0.000130154
-2.00572e-09
0.000130155
-2.32804e-09
0.000130156
-2.70214e-09
0.000130157
-3.13633e-09
0.000130158
-3.64025e-09
0.00013016
-4.2251e-09
0.000130161
-4.90385e-09
0.000130163
-5.69161e-09
0.000130165
-6.60586e-09
0.000130168
-7.66686e-09
0.000130171
-8.89814e-09
0.000130175
-1.03271e-08
0.000130179
-1.19853e-08
0.000130184
-1.39097e-08
0.000130189
-1.61428e-08
0.000130196
-1.87343e-08
0.000130203
-2.17415e-08
0.000130212
-2.52312e-08
0.000130222
-2.92806e-08
0.000130233
-3.39795e-08
0.000130247
-3.9432e-08
0.000130263
-4.57589e-08
0.000130281
-5.31002e-08
0.000130302
-6.16184e-08
0.000130326
-7.15018e-08
0.000130355
-8.29692e-08
0.000130388
-9.62739e-08
0.000130426
-1.1171e-07
0.000130471
-1.29617e-07
0.000130522
-1.50391e-07
0.000130582
-1.74489e-07
0.000130652
-2.02442e-07
0.000130732
-2.34862e-07
0.000130826
-2.72461e-07
0.000130934
-3.16062e-07
0.00013106
-3.66616e-07
0.000131206
-4.25224e-07
0.000131375
-4.93156e-07
0.000131571
-5.7188e-07
0.000131799
-6.63088e-07
0.000132063
-7.68729e-07
0.000132369
-8.91044e-07
0.000132724
-1.03261e-06
0.000133135
-1.19636e-06
0.000133611
-1.38568e-06
0.000134163
-1.6044e-06
0.000134802
-1.85688e-06
0.000135542
-2.14803e-06
0.000136398
-2.48338e-06
0.000137388
-2.86908e-06
0.000138532
-3.31196e-06
0.000139853
-3.81943e-06
0.000141377
-4.3995e-06
0.000143134
-5.06062e-06
0.000145154
-5.81143e-06
0.000147476
-6.66051e-06
0.000150138
-7.61576e-06
0.000153183
-8.68382e-06
0.000156657
-9.869e-06
0.000160605
-1.11721e-05
0.000165074
-1.25888e-05
0.000170107
-1.41076e-05
0.000175742
-1.57081e-05
0.000182004
-1.73578e-05
0.000188906
-1.90124e-05
0.000196432
-2.06093e-05
0.000204545
-2.20786e-05
0.000213162
-2.3327e-05
0.000222171
-2.42697e-05
0.000231414
-2.48125e-05
-2.48811e-05
0.000240698
0.000118861
-2.97377e-07
0.000119151
-8.93758e-07
0.000119629
-1.47851e-06
0.000120287
-2.03853e-06
0.000121114
-2.5633e-06
0.000122094
-3.04461e-06
0.00012321
-3.4766e-06
0.000124444
-3.8559e-06
0.000125779
-4.18171e-06
0.000127197
-4.45564e-06
0.000128681
-4.68129e-06
0.000130218
-4.86379e-06
0.000131795
-5.00899e-06
0.000133402
-5.12265e-06
0.00013503
-5.20947e-06
0.000136671
-5.2723e-06
0.000138318
-5.31162e-06
0.000139962
-5.32542e-06
0.000141594
-5.30964e-06
0.000143204
-5.25894e-06
0.000144779
-5.16787e-06
0.000146305
-5.03205e-06
0.000147769
-4.84923e-06
0.000149157
-4.62002e-06
0.000150457
-4.34816e-06
0.000151657
-4.04029e-06
0.00015275
-3.70536e-06
0.000153734
-3.35373e-06
0.000154605
-2.99618e-06
0.000155368
-2.64297e-06
0.000156027
-2.30308e-06
0.00015659
-1.98371e-06
0.000157065
-1.69002e-06
0.000157461
-1.42518e-06
0.000157789
-1.1905e-06
0.000158057
-9.85788e-07
0.000158276
-8.09696e-07
0.000158452
-6.60095e-07
0.000158593
-5.34388e-07
0.000158705
-4.29781e-07
0.000158793
-3.43476e-07
0.000158863
-2.72815e-07
0.000158917
-2.15359e-07
0.000158959
-1.6893e-07
0.000158991
-1.3163e-07
0.000159015
-1.01826e-07
0.000159034
-7.81392e-08
0.000159048
-5.94129e-08
0.000159058
-4.46886e-08
0.000159065
-3.31766e-08
0.00015907
-2.42313e-08
0.000159074
-1.73275e-08
0.000159076
-1.20401e-08
0.000159077
-8.02666e-09
0.000159078
-5.01223e-09
0.000159078
-2.77718e-09
0.000159078
-1.14643e-09
0.000159078
1.3988e-11
0.000159077
8.26206e-10
0.000159076
1.36414e-09
0.000159076
1.69923e-09
0.000159075
1.88415e-09
0.000159074
1.95962e-09
0.000159074
1.95695e-09
0.000159073
1.90011e-09
0.000159072
1.80725e-09
0.000159072
1.69198e-09
0.000159071
1.56439e-09
0.000159071
1.43181e-09
0.000159071
1.29947e-09
0.00015907
1.171e-09
0.00015907
1.04882e-09
0.00015907
9.34428e-10
0.000159069
8.28641e-10
0.000159069
7.31794e-10
0.000159069
6.43868e-10
0.000159069
5.64593e-10
0.000159069
4.9353e-10
0.000159069
4.30164e-10
0.000159068
3.73907e-10
0.000159068
3.24149e-10
0.000159068
2.80282e-10
0.000159068
2.41717e-10
0.000159068
2.07891e-10
0.000159068
1.7827e-10
0.000159068
1.52354e-10
0.000159068
1.29693e-10
0.000159068
1.09877e-10
0.000159068
9.25263e-11
0.000159068
7.7293e-11
0.000159068
6.38648e-11
0.000159068
5.1962e-11
0.000159068
4.13288e-11
0.000159068
3.17295e-11
0.000159068
2.29487e-11
0.000159068
1.4791e-11
0.000159068
7.07408e-12
0.000159068
-3.80037e-13
0.000159068
-7.75445e-12
0.000159068
-1.52209e-11
0.000159068
-2.29507e-11
0.000159068
-3.11179e-11
0.000159068
-3.99112e-11
0.000159068
-4.95332e-11
0.000159068
-6.02023e-11
0.000159068
-7.21654e-11
0.000159068
-8.57008e-11
0.000159068
-1.01113e-10
0.000159068
-1.18741e-10
0.000159068
-1.38983e-10
0.000159068
-1.62295e-10
0.000159068
-1.89194e-10
0.000159068
-2.20274e-10
0.000159068
-2.56234e-10
0.000159068
-2.97882e-10
0.000159068
-3.46139e-10
0.000159069
-4.02074e-10
0.000159069
-4.66938e-10
0.000159069
-5.42182e-10
0.000159069
-6.29475e-10
0.000159069
-7.30754e-10
0.000159069
-8.48287e-10
0.00015907
-9.84698e-10
0.00015907
-1.14301e-09
0.00015907
-1.32675e-09
0.000159071
-1.54001e-09
0.000159071
-1.78755e-09
0.000159072
-2.07486e-09
0.000159073
-2.40831e-09
0.000159073
-2.79535e-09
0.000159074
-3.24458e-09
0.000159075
-3.76597e-09
0.000159077
-4.37111e-09
0.000159078
-5.07347e-09
0.00015908
-5.88861e-09
0.000159082
-6.83465e-09
0.000159084
-7.9326e-09
0.000159087
-9.20683e-09
0.00015909
-1.06856e-08
0.000159093
-1.24018e-08
0.000159097
-1.43935e-08
0.000159102
-1.67048e-08
0.000159107
-1.9387e-08
0.000159114
-2.24997e-08
0.000159121
-2.61117e-08
0.00015913
-3.03034e-08
0.00015914
-3.51674e-08
0.000159151
-4.08118e-08
0.000159164
-4.73615e-08
0.00015918
-5.49617e-08
0.000159198
-6.37808e-08
0.000159219
-7.4014e-08
0.000159243
-8.58879e-08
0.000159271
-9.96653e-08
0.000159304
-1.15651e-07
0.000159342
-1.34198e-07
0.000159386
-1.55717e-07
0.000159437
-1.80682e-07
0.000159496
-2.09644e-07
0.000159565
-2.43243e-07
0.000159645
-2.82217e-07
0.000159737
-3.27424e-07
0.000159845
-3.79856e-07
0.000159969
-4.40664e-07
0.000160114
-5.11175e-07
0.000160282
-5.9293e-07
0.000160476
-6.87707e-07
0.000160702
-7.97559e-07
0.000160964
-9.24859e-07
0.000161267
-1.07234e-06
0.000161619
-1.24315e-06
0.000162028
-1.4409e-06
0.000162501
-1.66976e-06
0.00016305
-1.93447e-06
0.000163686
-2.24048e-06
0.000164423
-2.59396e-06
0.000165277
-3.00193e-06
0.000166266
-3.47229e-06
0.000167411
-4.01392e-06
0.000168735
-4.6367e-06
0.000170267
-5.35148e-06
0.000172038
-6.17011e-06
0.000174083
-7.10524e-06
0.000176441
-8.17011e-06
0.000179159
-9.37812e-06
0.000182285
-1.07422e-05
0.000185876
-1.22739e-05
0.000189989
-1.39821e-05
0.000194688
-1.5871e-05
0.000200037
-1.79381e-05
0.0002061
-2.0171e-05
0.000212936
-2.25441e-05