/*--------------------------------*- C++ -*----------------------------------*\
  =========                 |
  \\      /  F ield         | OpenFOAM: The Open Source CFD Toolbox
   \\    /   O peration     | Website:  https://openfoam.org
    \\  /    A nd           | Version:  7
     \\/     M anipulation  |
\*---------------------------------------------------------------------------*/
FoamFile
{
    version     2.0;
    format      ascii;
    class       volVectorField;
    location    "14";
    object      U;
}
// * * * * * * * * * * * * * * * * * * * * * * * * * * * * * * * * * * * * * //

dimensions      [0 1 -1 0 0 0 0];

internalField   nonuniform List<vector> 
433
(
(1.13364 0.0309236 0)
(1.13193 0.0303614 0)
(1.12954 0.0307292 0)
(1.12922 0.0322166 0)
(1.12572 0.0355857 0)
(1.12631 0.0384981 0)
(1.11923 0.0465155 0)
(1.21337 0.026752 0)
(1.20725 0.0313249 0)
(1.20071 0.0352751 0)
(1.19383 0.0385402 0)
(1.1867 0.041067 0)
(1.17943 0.0428172 0)
(1.17213 0.0437716 0)
(1.16494 0.043939 0)
(1.15801 0.0433576 0)
(1.15149 0.0421138 0)
(1.14548 0.0403211 0)
(1.1402 0.038183 0)
(1.13559 0.035875 0)
(1.132 0.0337734 0)
(1.12887 0.0320201 0)
(1.12711 0.0312144 0)
(1.12483 0.0313217 0)
(1.12465 0.0328673 0)
(1.12152 0.0362232 0)
(1.1223 0.0394565 0)
(1.11584 0.0478915 0)
(1.21529 0.0312506 0)
(1.20826 0.0359779 0)
(1.20082 0.0400191 0)
(1.19304 0.0433074 0)
(1.18502 0.0457864 0)
(1.17689 0.0474153 0)
(1.16876 0.0481743 0)
(1.16079 0.0480745 0)
(1.15312 0.0471573 0)
(1.14592 0.0455199 0)
(1.13933 0.0432821 0)
(1.13354 0.0406761 0)
(1.12853 0.0378746 0)
(1.12463 0.0353269 0)
(1.12137 0.033118 0)
(1.11954 0.032034 0)
(1.11744 0.0318188 0)
(1.11741 0.0334126 0)
(1.11479 0.03668 0)
(1.11579 0.0402649 0)
(1.1102 0.0490596 0)
(1.21427 0.0362407 0)
(1.20628 0.0410928 0)
(1.19789 0.0451942 0)
(1.18918 0.0484745 0)
(1.18026 0.0508737 0)
(1.17125 0.0523491 0)
(1.16229 0.0528801 0)
(1.15352 0.0524799 0)
(1.14512 0.051193 0)
(1.13726 0.0491275 0)
(1.13007 0.0464084 0)
(1.12378 0.0432971 0)
(1.11838 0.0399605 0)
(1.11419 0.0369259 0)
(1.11081 0.0342105 0)
(1.10894 0.0328094 0)
(1.10708 0.0322057 0)
(1.10725 0.033831 0)
(1.10529 0.0369268 0)
(1.10655 0.0408908 0)
(1.10212 0.0499799 0)
(1.20952 0.041714 0)
(1.20056 0.0466514 0)
(1.19122 0.0507749 0)
(1.1816 0.0540103 0)
(1.17181 0.0562944 0)
(1.16196 0.0575826 0)
(1.1522 0.057853 0)
(1.14269 0.0571209 0)
(1.1336 0.0554334 0)
(1.12511 0.0529087 0)
(1.11737 0.0496758 0)
(1.1106 0.0460254 0)
(1.10485 0.0421155 0)
(1.1004 0.0385542 0)
(1.09696 0.0352822 0)
(1.09508 0.0335219 0)
(1.09357 0.0324617 0)
(1.09399 0.0340946 0)
(1.09289 0.0369311 0)
(1.09446 0.0412966 0)
(1.09151 0.0506111 0)
(1.20023 0.0476256 0)
(1.19036 0.0526006 0)
(1.18015 0.0567021 0)
(1.1697 0.0598524 0)
(1.15912 0.0619851 0)
(1.14853 0.0630532 0)
(1.13807 0.0630334 0)
(1.12791 0.0619423 0)
(1.11822 0.0598283 0)
(1.10919 0.056819 0)
(1.10098 0.053046 0)
(1.09381 0.0488277 0)
(1.08777 0.0443111 0)
(1.08312 0.0401859 0)
(1.07969 0.0363096 0)
(1.07788 0.0341457 0)
(1.07683 0.0325613 0)
(1.07757 0.0341706 0)
(1.07753 0.0366598 0)
(1.07949 0.0414425 0)
(1.07835 0.0509135 0)
(1.1857 0.0538878 0)
(1.17504 0.0588473 0)
(1.1641 0.0628804 0)
(1.15298 0.0659058 0)
(1.14177 0.0678534 0)
(1.1306 0.0686731 0)
(1.1196 0.0683393 0)
(1.10893 0.0668689 0)
(1.09878 0.0643105 0)
(1.08932 0.0607993 0)
(1.08075 0.0564676 0)
(1.07329 0.0516599 0)
(1.06706 0.0465093 0)
(1.0623 0.0417867 0)
(1.05898 0.0372623 0)
(1.05733 0.0346493 0)
(1.05688 0.032476 0)
(1.05804 0.0340238 0)
(1.05928 0.0360813 0)
(1.0617 0.041288 0)
(1.06271 0.0508516 0)
(1.16538 0.0603695 0)
(1.15415 0.0652603 0)
(1.1427 0.0691811 0)
(1.13113 0.0720465 0)
(1.11951 0.0737819 0)
(1.10797 0.0743331 0)
(1.09663 0.0736708 0)
(1.08565 0.0718107 0)
(1.07521 0.0687999 0)
(1.0655 0.0647792 0)
(1.05672 0.0598795 0)
(1.04909 0.0544689 0)
(1.04281 0.0486643 0)
(1.03805 0.0433162 0)
(1.03497 0.0381051 0)
(1.03359 0.0349979 0)
(1.03387 0.032176 0)
(1.03558 0.0336189 0)
(1.03829 0.0351679 0)
(1.04126 0.0407957 0)
(1.04475 0.0503964 0)
(1.13895 0.0669023 0)
(1.12744 0.0716769 0)
(1.11578 0.0754496 0)
(1.10404 0.0781296 0)
(1.09229 0.0796364 0)
(1.08063 0.0799103 0)
(1.0692 0.0789167 0)
(1.05813 0.0766684 0)
(1.04762 0.0732086 0)
(1.03784 0.068682 0)
(1.02903 0.063215 0)
(1.02139 0.0571971 0)
(1.0152 0.0507264 0)
(1.01059 0.0447303 0)
(1.00787 0.0388002 0)
(1.00689 0.0351558 0)
(1.00806 0.0316331 0)
(1.01043 0.0329234 0)
(1.01482 0.0338981 0)
(1.01843 0.0399338 0)
(1.02469 0.0495274 0)
(1.10638 0.0732928 0)
(1.09494 0.0779159 0)
(1.08341 0.0815176 0)
(1.07182 0.0840002 0)
(1.06025 0.0852756 0)
(1.04878 0.0852772 0)
(1.03752 0.0839628 0)
(1.02662 0.0813405 0)
(1.01626 0.0774474 0)
(1.00663 0.0724296 0)
(0.997971 0.0664061 0)
(0.990505 0.0597853 0)
(0.98456 0.0526441 0)
(0.980246 0.0459844 0)
(0.978048 0.0393098 0)
(0.977605 0.0350891 0)
(0.979812 0.030822 0)
(0.982956 0.0319102 0)
(0.989212 0.0322579 0)
(0.993522 0.038678 0)
(1.00282 0.0482336 0)
(1.06796 0.0793398 0)
(1.05697 0.0837926 0)
(1.04592 0.0872167 0)
(1.03484 0.0895059 0)
(1.02376 0.0905626 0)
(1.01277 0.0903112 0)
(1.00197 0.0887002 0)
(0.991491 0.0857308 0)
(0.98152 0.0814314 0)
(0.97225 0.0759474 0)
(0.963951 0.0693874 0)
(0.95684 0.0621765 0)
(0.951315 0.0543679 0)
(0.947458 0.0470356 0)
(0.94593 0.0395985 0)
(0.946164 0.0347674 0)
(0.949551 0.0297228 0)
(0.953584 0.030559 0)
(0.961854 0.0302426 0)
(0.966934 0.0370134 0)
(0.979479 0.0465144 0)
(1.02423 0.0848521 0)
(1.01408 0.089135 0)
(1.00388 0.0923929 0)
(0.99363 0.094509 0)
(0.983366 0.0953747 0)
(0.973147 0.0949033 0)
(0.96307 0.0930322 0)
(0.953265 0.0897536 0)
(0.943916 0.0850849 0)
(0.93522 0.0791686 0)
(0.927473 0.0720998 0)
(0.920899 0.0643186 0)
(0.915967 0.0558524 0)
(0.912727 0.0478452 0)
(0.912018 0.0396352 0)
(0.913066 0.0341663 0)
(0.917759 0.028322 0)
(0.922783 0.0288581 0)
(0.933184 0.0278563 0)
(0.939083 0.0349355 0)
(0.955023 0.0443794 0)
(0.975989 0.089665 0)
(0.96703 0.0937977 0)
(0.958006 0.0969175 0)
(0.948903 0.0988958 0)
(0.939738 0.0996111 0)
(0.930558 0.0989642 0)
(0.921454 0.0968795 0)
(0.91255 0.0933384 0)
(0.904035 0.0883449 0)
(0.896111 0.0820367 0)
(0.889104 0.0744929 0)
(0.883243 0.0661668 0)
(0.879069 0.0570585 0)
(0.876601 0.0483805 0)
(0.876854 0.0393948 0)
(0.878841 0.0332681 0)
(0.884949 0.0266133 0)
(0.891046 0.0268048 0)
(0.903658 0.0251127 0)
(0.910408 0.0324501 0)
(0.929828 0.0418474 0)
(0.924192 0.0936522 0)
(0.91673 0.0976708 0)
(0.909165 0.100695 0)
(0.90147 0.102583 0)
(0.893647 0.103198 0)
(0.885733 0.102429 0)
(0.877813 0.100184 0)
(0.870008 0.0964324 0)
(0.862516 0.0911633 0)
(0.855543 0.0845079 0)
(0.849446 0.0765262 0)
(0.84446 0.0676848 0)
(0.841199 0.0579546 0)
(0.839648 0.0486158 0)
(0.840993 0.0388594 0)
(0.84403 0.0320626 0)
(0.851639 0.0245982 0)
(0.858869 0.0244057 0)
(0.873733 0.0220334 0)
(0.881342 0.0295734 0)
(0.904263 0.0389455 0)
(0.86989 0.0967314 0)
(0.864162 0.100685 0)
(0.858278 0.103666 0)
(0.852194 0.105517 0)
(0.845903 0.10609 0)
(0.839435 0.105255 0)
(0.83287 0.102907 0)
(0.826328 0.0990009 0)
(0.820016 0.0935073 0)
(0.814148 0.086551 0)
(0.809111 0.0781707 0)
(0.805146 0.0688461 0)
(0.802938 0.0585176 0)
(0.802432 0.0485334 0)
(0.804981 0.0380186 0)
(0.80916 0.0305477 0)
(0.818331 0.0222856 0)
(0.82673 0.0216758 0)
(0.843846 0.0186477 0)
(0.852302 0.0263302 0)
(0.878684 0.0357075 0)
(0.814157 0.0988661 0)
(0.810328 0.102811 0)
(0.806274 0.105806 0)
(0.801943 0.107681 0)
(0.79732 0.108269 0)
(0.792426 0.107428 0)
(0.787343 0.105034 0)
(0.78219 0.101027 0)
(0.777183 0.0953594 0)
(0.772545 0.0881478 0)
(0.768695 0.0794079 0)
(0.765876 0.0696333 0)
(0.764842 0.0587333 0)
(0.765491 0.0481237 0)
(0.769338 0.0368695 0)
(0.774728 0.0287287 0)
(0.785495 0.0196915 0)
(0.795075 0.0186376 0)
(0.814407 0.0149903 0)
(0.823675 0.0227531 0)
(0.853421 0.0321725 0)
(0.758031 0.100066 0)
(0.75619 0.10406 0)
(0.75405 0.107128 0)
(0.751552 0.109083 0)
(0.748675 0.109744 0)
(0.745437 0.108953 0)
(0.741918 0.106565 0)
(0.738239 0.102509 0)
(0.73463 0.0967143 0)
(0.731319 0.0892903 0)
(0.728758 0.0802282 0)
(0.727187 0.0700364 0)
(0.727428 0.0585936 0)
(0.729321 0.0473828 0)
(0.734536 0.0354154 0)
(0.741185 0.0266165 0)
(0.753558 0.0168369 0)
(0.764303 0.0153193 0)
(0.78578 0.011101 0)
(0.795808 0.0188805 0)
(0.828769 0.0283832 0)
(0.702469 0.100376 0)
(0.702636 0.104475 0)
(0.702431 0.107669 0)
(0.70179 0.109758 0)
(0.700687 0.110543 0)
(0.699137 0.10985 0)
(0.697224 0.107517 0)
(0.69507 0.103456 0)
(0.69292 0.097576 0)
(0.691005 0.0899779 0)
(0.68981 0.0806283 0)
(0.689567 0.0700515 0)
(0.691161 0.0580963 0)
(0.694364 0.0463125 0)
(0.700997 0.0336645 0)
(0.708927 0.0242272 0)
(0.722889 0.013747 0)
(0.734765 0.0117539 0)
(0.758284 0.00702111 0)
(0.769004 0.0147555 0)
(0.804987 0.0243839 0)
(0.648317 0.0998317 0)
(0.650455 0.10409 0)
(0.652153 0.107463 0)
(0.653342 0.109735 0)
(0.653995 0.110694 0)
(0.654127 0.110147 0)
(0.653824 0.107914 0)
(0.653213 0.103891 0)
(0.652551 0.0979649 0)
(0.652075 0.0902295 0)
(0.652298 0.080626 0)
(0.65344 0.0696967 0)
(0.656441 0.0572607 0)
(0.660999 0.0449348 0)
(0.669076 0.0316413 0)
(0.678288 0.0215907 0)
(0.693801 0.0104537 0)
(0.70675 0.00798142 0)
(0.732186 0.00278919 0)
(0.743515 0.0104281 0)
(0.782292 0.0202145 0)
(0.596299 0.0983924 0)
(0.600325 0.102877 0)
(0.603849 0.106495 0)
(0.606801 0.109017 0)
(0.609156 0.110211 0)
(0.610927 0.109871 0)
(0.612207 0.107794 0)
(0.613125 0.103862 0)
(0.613955 0.097936 0)
(0.614935 0.0901053 0)
(0.616604 0.080284 0)
(0.619163 0.0690356 0)
(0.623604 0.0561479 0)
(0.629539 0.0433093 0)
(0.639064 0.029399 0)
(0.649538 0.0187593 0)
(0.666544 0.00699937 0)
(0.680492 0.0040485 0)
(0.7077 -0.00156029 0)
(0.719546 0.00594934 0)
(0.760862 0.0159109 0)
(0.547028 0.096406 0)
(0.55282 0.101158 0)
(0.55806 0.105059 0)
(0.562677 0.107866 0)
(0.566646 0.109329 0)
(0.569983 0.109224 0)
(0.572789 0.107329 0)
(0.575198 0.103508 0)
(0.577496 0.0976005 0)
(0.579923 0.08969 0)
(0.583042 0.0796656 0)
(0.587028 0.0681127 0)
(0.592918 0.0547937 0)
(0.600229 0.0414613 0)
(0.611184 0.0269701 0)
(0.622881 0.0157577 0)
(0.641306 0.00343485 0)
(0.656165 -1.44483e-05 0)
(0.68499 -0.00594894 0)
(0.697254 0.00133453 0)
(0.740832 0.0115467 0)
(0.503476 0.090488 1.55718e-19)
(0.511011 0.0958508 -1.05141e-19)
(0.51806 0.100615 3.62282e-20)
(0.524525 0.104539 2.98182e-20)
(0.530333 0.10737 -1.86439e-20)
(0.535463 0.10885 -1.29824e-21)
)
;

boundaryField
{
    inlet
    {
        type            uniformFixedValue;
        uniformValue    constant (1 0 0);
        value           nonuniform 0();
    }
    outlet
    {
        type            pressureInletOutletVelocity;
        value           nonuniform List<vector> 
21
(
(1.11923 0.0465155 0)
(1.11584 0.0478915 0)
(1.1102 0.0490596 0)
(1.10212 0.0499799 0)
(1.09151 0.0506111 0)
(1.07835 0.0509135 0)
(1.06271 0.0508516 0)
(1.04475 0.0503964 0)
(1.02469 0.0495274 0)
(1.00282 0.0482336 0)
(0.979479 0.0465144 0)
(0.955023 0.0443794 0)
(0.929828 0.0418474 0)
(0.904263 0.0389455 0)
(0.878684 0.0357075 0)
(0.853421 0.0321725 0)
(0.828769 0.0283832 0)
(0.804987 0.0243839 0)
(0.782292 0.0202145 0)
(0.760862 0.0159109 0)
(0.740832 0.0115467 0)
)
;
    }
    cylinder
    {
        type            fixedValue;
        value           nonuniform 0();
    }
    top
    {
        type            symmetryPlane;
    }
    bottom
    {
        type            symmetryPlane;
    }
    defaultFaces
    {
        type            empty;
    }
    procBoundary11to4
    {
        type            processor;
        value           nonuniform List<vector> 3((1.21902 0.0216242 0) (1.22183 0.0259096 0) (1.22179 0.0307149 0));
    }
    procBoundary11to5
    {
        type            processor;
        value           nonuniform List<vector> 
22
(
(1.13603 0.0298273 0)
(1.13437 0.0294779 0)
(1.13189 0.0300499 0)
(1.13145 0.0314748 0)
(1.12767 0.0347922 0)
(1.12809 0.037416 0)
(1.12059 0.0449682 0)
(1.20926 0.0227271 0)
(1.20396 0.027125 0)
(1.19825 0.0309611 0)
(1.19221 0.0341776 0)
(1.1859 0.0367249 0)
(1.17944 0.038567 0)
(1.17293 0.0396857 0)
(1.1665 0.0400875 0)
(1.16027 0.0398073 0)
(1.15439 0.0389209 0)
(1.14896 0.0375349 0)
(1.14416 0.0358254 0)
(1.13993 0.0339678 0)
(1.13662 0.0322716 0)
(1.13662 0.0322716 0)
)
;
    }
    procBoundary11to10
    {
        type            processor;
        value           nonuniform List<vector> 
19
(
(1.21803 0.0360432 0)
(1.20971 0.041861 0)
(1.19603 0.048089 0)
(1.17635 0.0545995 0)
(1.15027 0.0612208 0)
(1.1177 0.0677491 0)
(1.07888 0.0739667 0)
(1.03435 0.0796618 0)
(0.98492 0.0846484 0)
(0.931605 0.0887803 0)
(0.875526 0.0919597 0)
(0.817837 0.0941399 0)
(0.759658 0.095326 0)
(0.70202 0.0955655 0)
(0.645832 0.094895 0)
(0.59187 0.0932608 0)
(0.540782 0.0910362 0)
(0.540782 0.0910362 0)
(0.495578 0.0847465 1.77445e-19)
)
;
    }
    procBoundary11to17
    {
        type            processor;
        value           nonuniform List<vector> 
23
(
(0.539936 0.108743 2.36169e-21)
(0.543856 0.106819 6.10605e-21)
(0.547365 0.102933 2.15072e-21)
(0.550759 0.0969162 -9.54936e-21)
(0.554277 0.088845 -4.47569e-21)
(0.558495 0.0786072 5.64361e-21)
(0.563567 0.0667855 -9.38411e-21)
(0.570559 0.0531609 6.6299e-21)
(0.578908 0.0394719 -6.34768e-21)
(0.59093 0.0246471 7.51949e-21)
(0.603515 0.0130286 -1.5172e-21)
(0.622954 0.000459887 -8.01999e-22)
(0.638421 -0.0034261 1.31938e-21)
(0.668354 -0.0093586 -8.47773e-22)
(0.68083 -0.00252453 4.56132e-23)
(0.72594 0.00813511 -3.67432e-23)
(0.47497 0.089151 7.9885e-20)
(0.483627 0.0945966 -1.90196e-20)
(0.491768 0.099439 -2.67786e-20)
(0.499292 0.103432 6.51345e-20)
(0.50613 0.106321 -9.38544e-20)
(0.539936 0.108743 2.36169e-21)
(0.51226 0.107842 6.28982e-20)
)
;
    }
}


// ************************************************************************* //
