/*--------------------------------*- C++ -*----------------------------------*\
  =========                 |
  \\      /  F ield         | OpenFOAM: The Open Source CFD Toolbox
   \\    /   O peration     | Website:  https://openfoam.org
    \\  /    A nd           | Version:  7
     \\/     M anipulation  |
\*---------------------------------------------------------------------------*/
FoamFile
{
    version     2.0;
    format      ascii;
    class       volScalarField;
    location    "3.8";
    object      p;
}
// * * * * * * * * * * * * * * * * * * * * * * * * * * * * * * * * * * * * * //

dimensions      [0 2 -2 0 0 0 0];

internalField   nonuniform List<scalar> 
120340
(
0.448306
0.448294
0.448269
0.448231
0.44818
0.448117
0.44804
0.447951
0.44785
0.447736
0.447609
0.447471
0.44732
0.447157
0.446983
0.446797
0.446599
0.44639
0.44617
0.44594
0.445698
0.445446
0.445184
0.444912
0.44463
0.444338
0.444038
0.443728
0.443409
0.443082
0.442746
0.442403
0.442052
0.441693
0.441327
0.440953
0.440574
0.440187
0.439795
0.439396
0.438992
0.438582
0.438167
0.437747
0.437322
0.436893
0.436459
0.436021
0.43558
0.435134
0.434686
0.434234
0.433779
0.433321
0.432861
0.432399
0.431934
0.431467
0.430998
0.430527
0.430055
0.429582
0.429107
0.428632
0.428155
0.427678
0.427199
0.426721
0.426242
0.425762
0.425283
0.424803
0.424324
0.423844
0.423365
0.422886
0.422408
0.42193
0.421452
0.420975
0.420499
0.420024
0.41955
0.419076
0.418604
0.418132
0.417662
0.417193
0.416725
0.416258
0.415792
0.415328
0.414865
0.414404
0.413944
0.413485
0.413028
0.412572
0.412118
0.411665
0.411214
0.410764
0.410316
0.40987
0.409425
0.408982
0.40854
0.4081
0.407662
0.407225
0.40679
0.406357
0.405925
0.405495
0.405066
0.40464
0.404215
0.403791
0.403369
0.402949
0.402531
0.402114
0.401699
0.401285
0.400873
0.400463
0.400054
0.399647
0.399242
0.398838
0.398436
0.398035
0.397636
0.397238
0.396842
0.396448
0.396055
0.395663
0.395273
0.394885
0.394498
0.394113
0.393729
0.393346
0.392965
0.392585
0.392207
0.39183
0.391455
0.391081
0.390708
0.390337
0.389967
0.389598
0.389231
0.388865
0.3885
0.388137
0.387775
0.387414
0.387055
0.386696
0.386339
0.385984
0.385629
0.385276
0.384924
0.384573
0.384223
0.383874
0.383527
0.383181
0.382836
0.382492
0.382149
0.381807
0.381466
0.381127
0.380788
0.380451
0.380115
0.379779
0.379445
0.379112
0.37878
0.378449
0.378118
0.377789
0.377461
0.377134
0.376808
0.376483
0.376158
0.375835
0.375513
0.375191
0.374871
0.374551
0.374232
0.373915
0.373598
0.373282
0.372967
0.372652
0.372339
0.372026
0.371715
0.371404
0.371094
0.370785
0.370477
0.370169
0.369863
0.369557
0.369252
0.368947
0.368644
0.368341
0.368039
0.367738
0.367438
0.367138
0.366839
0.366541
0.366244
0.365947
0.365652
0.365356
0.365062
0.364768
0.364475
0.364183
0.363891
0.363601
0.36331
0.363021
0.362732
0.362444
0.362157
0.36187
0.361584
0.361298
0.361013
0.360729
0.360446
0.360163
0.359881
0.359599
0.359318
0.359038
0.358759
0.358479
0.358201
0.357923
0.357646
0.35737
0.357094
0.356818
0.356543
0.356269
0.355996
0.355723
0.35545
0.355179
0.354907
0.354637
0.354367
0.354097
0.353828
0.35356
0.353292
0.353025
0.352758
0.352492
0.352226
0.351961
0.351697
0.351433
0.351169
0.350906
0.350644
0.350382
0.350121
0.34986
0.3496
0.34934
0.349081
0.348822
0.348564
0.348306
0.348049
0.347792
0.347536
0.347281
0.347025
0.346771
0.346517
0.346263
0.34601
0.345757
0.345505
0.345253
0.345002
0.344751
0.344501
0.344251
0.344001
0.343752
0.343504
0.343256
0.343008
0.342761
0.342514
0.342268
0.342022
0.341777
0.341532
0.341288
0.341044
0.3408
0.340557
0.340314
0.340072
0.33983
0.339588
0.339347
0.339107
0.338866
0.338626
0.338387
0.338148
0.337909
0.337671
0.337433
0.337195
0.336958
0.336721
0.336485
0.336248
0.336013
0.335777
0.335542
0.335307
0.335073
0.334839
0.334605
0.334372
0.334138
0.333906
0.333673
0.333441
0.333209
0.332977
0.332745
0.332514
0.332283
0.332053
0.331822
0.331592
0.331362
0.331132
0.330902
0.330673
0.330444
0.330214
0.329985
0.329757
0.329528
0.329299
0.329071
0.328843
0.328614
0.328386
0.328158
0.32793
0.327702
0.327474
0.327246
0.327018
0.32679
0.326562
0.326333
0.326105
0.325877
0.325648
0.325419
0.325191
0.324961
0.324732
0.324503
0.324273
0.324043
0.323812
0.323582
0.323351
0.323119
0.322887
0.322655
0.322422
0.322189
0.321955
0.321721
0.321485
0.32125
0.321013
0.320776
0.320538
0.3203
0.32006
0.31982
0.319578
0.319336
0.319092
0.318848
0.318602
0.318355
0.318107
0.317858
0.317607
0.317355
0.317101
0.316846
0.316589
0.316331
0.31607
0.315808
0.315544
0.315278
0.315011
0.31474
0.314468
0.314193
0.313916
0.313637
0.313355
0.31307
0.312782
0.312492
0.312199
0.311902
0.311602
0.311299
0.310992
0.310682
0.310368
0.310051
0.309729
0.309403
0.309073
0.308738
0.308399
0.308055
0.307706
0.307353
0.306993
0.306629
0.306259
0.305883
0.305501
0.305112
0.304718
0.304316
0.303908
0.303493
0.30307
0.30264
0.302202
0.301756
0.301301
0.300838
0.300366
0.299885
0.299394
0.298894
0.298383
0.297862
0.29733
0.296787
0.296233
0.295667
0.295088
0.294497
0.293893
0.293275
0.292644
0.291998
0.291338
0.290663
0.289971
0.289264
0.28854
0.287799
0.287041
0.286264
0.285469
0.284654
0.283819
0.282964
0.282088
0.28119
0.280269
0.279326
0.278359
0.277368
0.276351
0.275309
0.27424
0.273144
0.272019
0.270866
0.269683
0.26847
0.267225
0.265947
0.264637
0.263292
0.261913
0.260497
0.259045
0.257554
0.256025
0.254456
0.252845
0.251193
0.249498
0.247758
0.245973
0.244141
0.242262
0.240335
0.238357
0.236328
0.234247
0.232112
0.229923
0.227678
0.225376
0.223015
0.220595
0.218113
0.21557
0.212963
0.210292
0.207555
0.204751
0.201879
0.198937
0.195925
0.192841
0.189683
0.186452
0.183146
0.179764
0.176304
0.172766
0.169149
0.165452
0.161674
0.157815
0.153873
0.149848
0.14574
0.141547
0.13727
0.132909
0.128462
0.123929
0.119312
0.114609
0.109821
0.104948
0.09999
0.0949483
0.0898231
0.0846152
0.0793253
0.0739546
0.0685041
0.0629751
0.0573691
0.0516875
0.0459321
0.0401047
0.0342072
0.0282419
0.0222109
0.0161167
0.00996173
0.00374877
-0.00251941
-0.00883987
-0.0152096
-0.0216253
-0.0280837
-0.0345815
-0.0411152
-0.0476811
-0.0542756
-0.0608948
-0.0675351
0.448312
0.448299
0.448274
0.448237
0.448186
0.448122
0.448046
0.447957
0.447855
0.447741
0.447615
0.447476
0.447325
0.447163
0.446988
0.446802
0.446604
0.446395
0.446175
0.445944
0.445703
0.445451
0.445188
0.444916
0.444634
0.444342
0.444042
0.443732
0.443413
0.443085
0.44275
0.442406
0.442055
0.441696
0.44133
0.440956
0.440576
0.44019
0.439797
0.439398
0.438994
0.438584
0.438169
0.437749
0.437324
0.436894
0.436461
0.436023
0.435581
0.435136
0.434687
0.434235
0.43378
0.433322
0.432862
0.432399
0.431934
0.431467
0.430999
0.430528
0.430056
0.429582
0.429108
0.428632
0.428155
0.427678
0.4272
0.426721
0.426242
0.425762
0.425283
0.424803
0.424323
0.423844
0.423365
0.422886
0.422407
0.421929
0.421452
0.420975
0.420499
0.420024
0.419549
0.419076
0.418603
0.418132
0.417661
0.417192
0.416724
0.416257
0.415792
0.415327
0.414865
0.414403
0.413943
0.413484
0.413027
0.412571
0.412117
0.411664
0.411213
0.410763
0.410315
0.409869
0.409424
0.408981
0.408539
0.408099
0.407661
0.407224
0.406789
0.406356
0.405924
0.405494
0.405066
0.404639
0.404214
0.40379
0.403369
0.402948
0.40253
0.402113
0.401698
0.401284
0.400873
0.400462
0.400054
0.399647
0.399241
0.398837
0.398435
0.398034
0.397635
0.397238
0.396841
0.396447
0.396054
0.395663
0.395273
0.394884
0.394497
0.394112
0.393728
0.393345
0.392964
0.392584
0.392206
0.391829
0.391454
0.39108
0.390707
0.390336
0.389966
0.389597
0.38923
0.388864
0.3885
0.388136
0.387774
0.387413
0.387054
0.386696
0.386339
0.385983
0.385628
0.385275
0.384923
0.384572
0.384222
0.383874
0.383526
0.38318
0.382835
0.382491
0.382148
0.381806
0.381466
0.381126
0.380788
0.38045
0.380114
0.379779
0.379445
0.379111
0.378779
0.378448
0.378118
0.377789
0.377461
0.377133
0.376807
0.376482
0.376158
0.375834
0.375512
0.375191
0.37487
0.374551
0.374232
0.373914
0.373597
0.373281
0.372966
0.372652
0.372339
0.372026
0.371714
0.371404
0.371094
0.370785
0.370476
0.370169
0.369862
0.369556
0.369251
0.368947
0.368644
0.368341
0.368039
0.367738
0.367437
0.367138
0.366839
0.366541
0.366244
0.365947
0.365651
0.365356
0.365062
0.364768
0.364475
0.364183
0.363891
0.3636
0.36331
0.363021
0.362732
0.362444
0.362156
0.361869
0.361583
0.361298
0.361013
0.360729
0.360446
0.360163
0.359881
0.359599
0.359318
0.359038
0.358758
0.358479
0.358201
0.357923
0.357646
0.357369
0.357093
0.356818
0.356543
0.356269
0.355995
0.355722
0.35545
0.355178
0.354907
0.354636
0.354366
0.354097
0.353828
0.353559
0.353292
0.353024
0.352758
0.352492
0.352226
0.351961
0.351696
0.351432
0.351169
0.350906
0.350644
0.350382
0.350121
0.34986
0.3496
0.34934
0.349081
0.348822
0.348564
0.348306
0.348049
0.347792
0.347536
0.34728
0.347025
0.346771
0.346516
0.346263
0.346009
0.345757
0.345504
0.345253
0.345001
0.344751
0.3445
0.34425
0.344001
0.343752
0.343504
0.343256
0.343008
0.342761
0.342514
0.342268
0.342022
0.341777
0.341532
0.341287
0.341043
0.3408
0.340557
0.340314
0.340072
0.33983
0.339588
0.339347
0.339106
0.338866
0.338626
0.338387
0.338148
0.337909
0.337671
0.337433
0.337195
0.336958
0.336721
0.336484
0.336248
0.336012
0.335777
0.335542
0.335307
0.335073
0.334839
0.334605
0.334371
0.334138
0.333905
0.333673
0.333441
0.333209
0.332977
0.332745
0.332514
0.332283
0.332052
0.331822
0.331592
0.331362
0.331132
0.330902
0.330673
0.330443
0.330214
0.329985
0.329757
0.329528
0.329299
0.329071
0.328843
0.328614
0.328386
0.328158
0.32793
0.327702
0.327474
0.327246
0.327018
0.32679
0.326562
0.326333
0.326105
0.325877
0.325648
0.325419
0.325191
0.324962
0.324732
0.324503
0.324273
0.324043
0.323813
0.323582
0.323351
0.323119
0.322888
0.322655
0.322422
0.322189
0.321955
0.321721
0.321486
0.32125
0.321014
0.320777
0.320539
0.3203
0.32006
0.31982
0.319579
0.319336
0.319093
0.318848
0.318603
0.318356
0.318108
0.317858
0.317608
0.317355
0.317102
0.316847
0.31659
0.316331
0.316071
0.315809
0.315545
0.315279
0.315011
0.314741
0.314469
0.314194
0.313917
0.313638
0.313356
0.313071
0.312784
0.312493
0.3122
0.311903
0.311604
0.311301
0.310994
0.310684
0.31037
0.310052
0.309731
0.309405
0.309075
0.30874
0.308401
0.308057
0.307709
0.307355
0.306996
0.306631
0.306261
0.305885
0.305503
0.305115
0.30472
0.304319
0.303911
0.303496
0.303073
0.302643
0.302205
0.301759
0.301305
0.300842
0.30037
0.299889
0.299399
0.298898
0.298388
0.297867
0.297335
0.296792
0.296238
0.295672
0.295094
0.294503
0.293899
0.293281
0.29265
0.292005
0.291345
0.290669
0.289978
0.289271
0.288548
0.287807
0.287049
0.286272
0.285477
0.284662
0.283828
0.282973
0.282097
0.281199
0.280279
0.279336
0.278369
0.277378
0.276362
0.27532
0.274252
0.273156
0.272032
0.270879
0.269696
0.268483
0.267238
0.265961
0.264651
0.263307
0.261928
0.260513
0.259061
0.257571
0.256042
0.254473
0.252863
0.251211
0.249516
0.247777
0.245992
0.244161
0.242282
0.240355
0.238378
0.236349
0.234269
0.232135
0.229946
0.227701
0.225399
0.223039
0.220619
0.218138
0.215595
0.212989
0.210318
0.207582
0.204778
0.201906
0.198965
0.195953
0.192869
0.189712
0.186481
0.183175
0.179793
0.176333
0.172796
0.169179
0.165482
0.161704
0.157845
0.153903
0.149879
0.14577
0.141578
0.137301
0.132939
0.128491
0.123959
0.119341
0.114638
0.109849
0.104976
0.100018
0.0949754
0.0898496
0.084641
0.0793504
0.0739789
0.0685276
0.0629978
0.0573908
0.0517082
0.0459517
0.0401232
0.0342246
0.028258
0.0222258
0.0161302
0.00997391
0.00375953
-0.0025101
-0.00883206
-0.0152033
-0.0216206
-0.0280806
-0.0345801
-0.0411154
-0.047683
-0.0542791
-0.0609001
-0.0675421
0.448324
0.448312
0.448287
0.448249
0.448199
0.448135
0.448058
0.447969
0.447868
0.447753
0.447627
0.447488
0.447337
0.447174
0.446999
0.446813
0.446615
0.446406
0.446186
0.445955
0.445713
0.445461
0.445198
0.444926
0.444643
0.444351
0.44405
0.44374
0.443421
0.443093
0.442758
0.442414
0.442062
0.441703
0.441336
0.440963
0.440583
0.440196
0.439803
0.439404
0.438999
0.438589
0.438174
0.437753
0.437328
0.436898
0.436464
0.436026
0.435584
0.435139
0.43469
0.434238
0.433783
0.433325
0.432864
0.432401
0.431936
0.431469
0.431
0.430529
0.430057
0.429583
0.429108
0.428633
0.428156
0.427678
0.4272
0.426721
0.426242
0.425762
0.425282
0.424803
0.424323
0.423843
0.423364
0.422885
0.422406
0.421928
0.421451
0.420974
0.420498
0.420023
0.419548
0.419075
0.418602
0.41813
0.41766
0.417191
0.416723
0.416256
0.41579
0.415326
0.414863
0.414401
0.413941
0.413482
0.413025
0.412569
0.412115
0.411662
0.411211
0.410761
0.410313
0.409867
0.409422
0.408979
0.408537
0.408097
0.407659
0.407222
0.406787
0.406354
0.405922
0.405492
0.405064
0.404637
0.404212
0.403788
0.403367
0.402947
0.402528
0.402111
0.401696
0.401283
0.400871
0.40046
0.400052
0.399645
0.399239
0.398835
0.398433
0.398032
0.397633
0.397236
0.39684
0.396445
0.396052
0.395661
0.395271
0.394883
0.394496
0.39411
0.393726
0.393344
0.392963
0.392583
0.392205
0.391828
0.391452
0.391078
0.390706
0.390334
0.389965
0.389596
0.389229
0.388863
0.388498
0.388135
0.387773
0.387412
0.387053
0.386694
0.386337
0.385982
0.385627
0.385274
0.384922
0.384571
0.384221
0.383873
0.383525
0.383179
0.382834
0.38249
0.382147
0.381805
0.381465
0.381125
0.380787
0.380449
0.380113
0.379778
0.379443
0.37911
0.378778
0.378447
0.378117
0.377788
0.37746
0.377132
0.376806
0.376481
0.376157
0.375833
0.375511
0.37519
0.374869
0.37455
0.374231
0.373913
0.373596
0.37328
0.372965
0.372651
0.372338
0.372025
0.371713
0.371403
0.371093
0.370784
0.370475
0.370168
0.369861
0.369555
0.36925
0.368946
0.368643
0.36834
0.368038
0.367737
0.367437
0.367137
0.366838
0.36654
0.366243
0.365946
0.36565
0.365355
0.365061
0.364767
0.364474
0.364182
0.36389
0.363599
0.363309
0.36302
0.362731
0.362443
0.362155
0.361869
0.361583
0.361297
0.361012
0.360728
0.360445
0.360162
0.35988
0.359598
0.359317
0.359037
0.358757
0.358478
0.3582
0.357922
0.357645
0.357369
0.357093
0.356817
0.356542
0.356268
0.355995
0.355722
0.355449
0.355178
0.354906
0.354636
0.354366
0.354096
0.353827
0.353559
0.353291
0.353024
0.352757
0.352491
0.352225
0.35196
0.351696
0.351432
0.351168
0.350906
0.350643
0.350381
0.35012
0.349859
0.349599
0.349339
0.34908
0.348821
0.348563
0.348305
0.348048
0.347792
0.347535
0.34728
0.347025
0.34677
0.346516
0.346262
0.346009
0.345756
0.345504
0.345252
0.345001
0.34475
0.3445
0.34425
0.344
0.343752
0.343503
0.343255
0.343007
0.34276
0.342514
0.342267
0.342022
0.341776
0.341531
0.341287
0.341043
0.340799
0.340556
0.340313
0.340071
0.339829
0.339588
0.339347
0.339106
0.338866
0.338626
0.338386
0.338147
0.337908
0.33767
0.337432
0.337195
0.336957
0.33672
0.336484
0.336248
0.336012
0.335777
0.335542
0.335307
0.335072
0.334838
0.334605
0.334371
0.334138
0.333905
0.333672
0.33344
0.333208
0.332976
0.332745
0.332514
0.332283
0.332052
0.331822
0.331591
0.331361
0.331132
0.330902
0.330672
0.330443
0.330214
0.329985
0.329756
0.329528
0.329299
0.329071
0.328842
0.328614
0.328386
0.328158
0.32793
0.327702
0.327474
0.327246
0.327018
0.32679
0.326562
0.326333
0.326105
0.325877
0.325648
0.32542
0.325191
0.324962
0.324732
0.324503
0.324273
0.324043
0.323813
0.323582
0.323351
0.32312
0.322888
0.322656
0.322423
0.32219
0.321956
0.321721
0.321486
0.321251
0.321014
0.320777
0.320539
0.320301
0.320061
0.319821
0.319579
0.319337
0.319094
0.318849
0.318604
0.318357
0.318109
0.31786
0.317609
0.317357
0.317103
0.316848
0.316591
0.316333
0.316073
0.315811
0.315547
0.315281
0.315013
0.314743
0.314471
0.314197
0.31392
0.31364
0.313358
0.313074
0.312786
0.312496
0.312203
0.311906
0.311607
0.311304
0.310997
0.310687
0.310374
0.310056
0.309735
0.309409
0.309079
0.308745
0.308406
0.308062
0.307714
0.30736
0.307001
0.306637
0.306267
0.305891
0.305509
0.305121
0.304727
0.304326
0.303918
0.303503
0.303081
0.302651
0.302213
0.301767
0.301313
0.300851
0.300379
0.299898
0.299408
0.298908
0.298398
0.297877
0.297346
0.296803
0.296249
0.295684
0.295106
0.294515
0.293911
0.293294
0.292664
0.292019
0.291359
0.290684
0.289994
0.289287
0.288564
0.287824
0.287066
0.28629
0.285495
0.284681
0.283847
0.282993
0.282117
0.28122
0.280301
0.279358
0.278392
0.277402
0.276386
0.275345
0.274277
0.273182
0.272059
0.270906
0.269724
0.268512
0.267268
0.265992
0.264683
0.263339
0.261961
0.260547
0.259096
0.257606
0.256078
0.25451
0.252901
0.25125
0.249556
0.247818
0.246034
0.244204
0.242326
0.2404
0.238424
0.236396
0.234317
0.232184
0.229996
0.227752
0.225451
0.223092
0.220673
0.218193
0.215651
0.213045
0.210376
0.20764
0.204837
0.201966
0.199025
0.196014
0.192931
0.189775
0.186544
0.183239
0.179857
0.176398
0.172861
0.169245
0.165548
0.161771
0.157912
0.15397
0.149945
0.145837
0.141644
0.137367
0.133005
0.128557
0.124024
0.119405
0.114701
0.109912
0.105038
0.100078
0.0950349
0.0899077
0.0846977
0.0794056
0.0740324
0.0685793
0.0630475
0.0574384
0.0517536
0.0459949
0.0401639
0.0342627
0.0282935
0.0222584
0.01616
0.0100007
0.00378322
-0.00248962
-0.00881486
-0.0151895
-0.0216102
-0.0280738
-0.0345768
-0.0411158
-0.047687
-0.0542869
-0.0609117
-0.0675574
0.448343
0.448331
0.448306
0.448268
0.448218
0.448154
0.448077
0.447988
0.447886
0.447772
0.447645
0.447506
0.447355
0.447192
0.447017
0.44683
0.446632
0.446422
0.446202
0.44597
0.445728
0.445476
0.445213
0.44494
0.444657
0.444365
0.444063
0.443753
0.443433
0.443105
0.442769
0.442425
0.442073
0.441713
0.441346
0.440972
0.440592
0.440205
0.439811
0.439412
0.439007
0.438596
0.438181
0.43776
0.437334
0.436904
0.43647
0.436031
0.435589
0.435143
0.434694
0.434242
0.433786
0.433328
0.432867
0.432404
0.431939
0.431471
0.431002
0.430531
0.430059
0.429585
0.42911
0.428633
0.428156
0.427679
0.4272
0.426721
0.426242
0.425762
0.425282
0.424802
0.424322
0.423843
0.423363
0.422884
0.422405
0.421927
0.421449
0.420972
0.420496
0.420021
0.419546
0.419073
0.4186
0.418128
0.417658
0.417189
0.41672
0.416253
0.415788
0.415323
0.41486
0.414399
0.413939
0.41348
0.413023
0.412567
0.412112
0.41166
0.411208
0.410759
0.410311
0.409864
0.409419
0.408976
0.408534
0.408094
0.407656
0.407219
0.406784
0.406351
0.405919
0.405489
0.405061
0.404634
0.404209
0.403786
0.403364
0.402944
0.402525
0.402109
0.401693
0.40128
0.400868
0.400458
0.400049
0.399642
0.399237
0.398833
0.39843
0.39803
0.397631
0.397233
0.396837
0.396443
0.39605
0.395658
0.395268
0.39488
0.394493
0.394108
0.393724
0.393341
0.39296
0.392581
0.392202
0.391825
0.39145
0.391076
0.390703
0.390332
0.389962
0.389594
0.389226
0.388861
0.388496
0.388133
0.387771
0.38741
0.38705
0.386692
0.386335
0.38598
0.385625
0.385272
0.38492
0.384569
0.384219
0.383871
0.383523
0.383177
0.382832
0.382488
0.382145
0.381803
0.381463
0.381123
0.380785
0.380447
0.380111
0.379776
0.379442
0.379108
0.378776
0.378445
0.378115
0.377786
0.377458
0.377131
0.376805
0.376479
0.376155
0.375832
0.375509
0.375188
0.374868
0.374548
0.374229
0.373912
0.373595
0.373279
0.372964
0.372649
0.372336
0.372024
0.371712
0.371401
0.371091
0.370782
0.370474
0.370166
0.36986
0.369554
0.369249
0.368945
0.368641
0.368339
0.368037
0.367736
0.367435
0.367136
0.366837
0.366539
0.366242
0.365945
0.365649
0.365354
0.36506
0.364766
0.364473
0.364181
0.363889
0.363598
0.363308
0.363019
0.36273
0.362442
0.362154
0.361868
0.361581
0.361296
0.361011
0.360727
0.360444
0.360161
0.359879
0.359597
0.359316
0.359036
0.358756
0.358477
0.358199
0.357921
0.357644
0.357368
0.357092
0.356816
0.356541
0.356267
0.355994
0.355721
0.355448
0.355177
0.354905
0.354635
0.354365
0.354095
0.353826
0.353558
0.35329
0.353023
0.352756
0.35249
0.352224
0.351959
0.351695
0.351431
0.351167
0.350905
0.350642
0.35038
0.350119
0.349858
0.349598
0.349338
0.349079
0.34882
0.348562
0.348305
0.348047
0.347791
0.347535
0.347279
0.347024
0.346769
0.346515
0.346261
0.346008
0.345755
0.345503
0.345251
0.345
0.344749
0.344499
0.344249
0.344
0.343751
0.343502
0.343254
0.343007
0.34276
0.342513
0.342267
0.342021
0.341776
0.341531
0.341286
0.341042
0.340799
0.340555
0.340313
0.34007
0.339828
0.339587
0.339346
0.339105
0.338865
0.338625
0.338386
0.338146
0.337908
0.337669
0.337431
0.337194
0.336957
0.33672
0.336483
0.336247
0.336011
0.335776
0.335541
0.335306
0.335072
0.334838
0.334604
0.334371
0.334137
0.333905
0.333672
0.33344
0.333208
0.332976
0.332745
0.332513
0.332282
0.332052
0.331821
0.331591
0.331361
0.331131
0.330902
0.330672
0.330443
0.330214
0.329985
0.329756
0.329527
0.329299
0.329071
0.328842
0.328614
0.328386
0.328158
0.32793
0.327702
0.327474
0.327246
0.327018
0.32679
0.326562
0.326333
0.326105
0.325877
0.325648
0.32542
0.325191
0.324962
0.324733
0.324503
0.324274
0.324044
0.323813
0.323583
0.323352
0.32312
0.322889
0.322656
0.322424
0.32219
0.321957
0.321722
0.321487
0.321252
0.321015
0.320778
0.32054
0.320302
0.320062
0.319822
0.319581
0.319339
0.319095
0.318851
0.318605
0.318359
0.318111
0.317862
0.317611
0.317359
0.317105
0.31685
0.316594
0.316336
0.316076
0.315814
0.31555
0.315284
0.315017
0.314747
0.314475
0.3142
0.313923
0.313644
0.313362
0.313078
0.312791
0.3125
0.312207
0.311911
0.311612
0.311309
0.311003
0.310693
0.310379
0.310062
0.309741
0.309415
0.309085
0.308751
0.308413
0.308069
0.307721
0.307367
0.307009
0.306645
0.306275
0.3059
0.305518
0.305131
0.304736
0.304336
0.303928
0.303514
0.303092
0.302662
0.302225
0.301779
0.301326
0.300863
0.300392
0.299912
0.299422
0.298922
0.298413
0.297893
0.297362
0.29682
0.296266
0.295701
0.295124
0.294534
0.293931
0.293314
0.292684
0.29204
0.291381
0.290707
0.290017
0.289311
0.288589
0.287849
0.287092
0.286317
0.285523
0.284709
0.283876
0.283023
0.282148
0.281252
0.280334
0.279392
0.278427
0.277438
0.276423
0.275383
0.274316
0.273222
0.2721
0.270948
0.269768
0.268556
0.267314
0.266039
0.264731
0.263389
0.262012
0.260598
0.259149
0.257661
0.256134
0.254567
0.25296
0.25131
0.249617
0.24788
0.246098
0.24427
0.242393
0.240468
0.238494
0.236468
0.234389
0.232258
0.230071
0.227829
0.22553
0.223172
0.220754
0.218276
0.215735
0.213131
0.210463
0.207728
0.204927
0.202057
0.199117
0.196107
0.193025
0.18987
0.186641
0.183336
0.179955
0.176497
0.172961
0.169345
0.165649
0.161872
0.158013
0.154071
0.150047
0.145938
0.141745
0.137468
0.133105
0.128657
0.124123
0.119503
0.114798
0.110007
0.105131
0.100171
0.0951254
0.0899962
0.084784
0.0794895
0.0741137
0.0686578
0.0631231
0.0575109
0.0518228
0.0460605
0.0402258
0.0343208
0.0283475
0.0223082
0.0162053
0.0100415
0.00381927
-0.00245843
-0.00878869
-0.0151684
-0.0215944
-0.0280634
-0.0345719
-0.0411164
-0.0476933
-0.0542988
-0.0609293
-0.0675808
0.448369
0.448357
0.448332
0.448294
0.448243
0.448179
0.448102
0.448013
0.447911
0.447796
0.447669
0.44753
0.447378
0.447215
0.44704
0.446853
0.446654
0.446444
0.446223
0.445991
0.445749
0.445496
0.445232
0.444959
0.444676
0.444383
0.444081
0.44377
0.44345
0.443122
0.442785
0.44244
0.442087
0.441727
0.44136
0.440985
0.440604
0.440217
0.439823
0.439423
0.439017
0.438606
0.43819
0.437769
0.437343
0.436912
0.436477
0.436039
0.435596
0.43515
0.4347
0.434247
0.433791
0.433333
0.432871
0.432408
0.431942
0.431474
0.431005
0.430533
0.430061
0.429586
0.429111
0.428635
0.428157
0.427679
0.4272
0.426721
0.426241
0.425762
0.425281
0.424801
0.424321
0.423841
0.423362
0.422882
0.422404
0.421925
0.421447
0.42097
0.420494
0.420018
0.419544
0.41907
0.418597
0.418126
0.417655
0.417186
0.416717
0.41625
0.415785
0.41532
0.414857
0.414395
0.413935
0.413476
0.413019
0.412563
0.412109
0.411656
0.411205
0.410755
0.410307
0.40986
0.409416
0.408972
0.408531
0.408091
0.407652
0.407216
0.406781
0.406347
0.405915
0.405485
0.405057
0.40463
0.404205
0.403782
0.40336
0.40294
0.402522
0.402105
0.40169
0.401276
0.400864
0.400454
0.400045
0.399638
0.399233
0.398829
0.398427
0.398026
0.397627
0.39723
0.396834
0.396439
0.396046
0.395655
0.395265
0.394877
0.39449
0.394104
0.39372
0.393338
0.392957
0.392577
0.392199
0.391822
0.391447
0.391073
0.3907
0.390329
0.389959
0.389591
0.389223
0.388858
0.388493
0.38813
0.387768
0.387407
0.387048
0.386689
0.386333
0.385977
0.385622
0.385269
0.384917
0.384566
0.384216
0.383868
0.383521
0.383174
0.382829
0.382485
0.382143
0.381801
0.38146
0.381121
0.380782
0.380445
0.380109
0.379774
0.379439
0.379106
0.378774
0.378443
0.378113
0.377784
0.377456
0.377128
0.376802
0.376477
0.376153
0.37583
0.375507
0.375186
0.374865
0.374546
0.374227
0.37391
0.373593
0.373277
0.372962
0.372647
0.372334
0.372022
0.37171
0.371399
0.371089
0.37078
0.370472
0.370165
0.369858
0.369552
0.369247
0.368943
0.368639
0.368337
0.368035
0.367734
0.367434
0.367134
0.366835
0.366537
0.36624
0.365943
0.365647
0.365352
0.365058
0.364764
0.364471
0.364179
0.363887
0.363597
0.363306
0.363017
0.362728
0.36244
0.362153
0.361866
0.36158
0.361295
0.36101
0.360726
0.360442
0.360159
0.359877
0.359596
0.359315
0.359035
0.358755
0.358476
0.358198
0.35792
0.357643
0.357366
0.35709
0.356815
0.35654
0.356266
0.355992
0.355719
0.355447
0.355175
0.354904
0.354633
0.354363
0.354094
0.353825
0.353557
0.353289
0.353022
0.352755
0.352489
0.352223
0.351958
0.351694
0.35143
0.351166
0.350903
0.350641
0.350379
0.350118
0.349857
0.349597
0.349337
0.349078
0.348819
0.348561
0.348303
0.348046
0.34779
0.347533
0.347278
0.347023
0.346768
0.346514
0.34626
0.346007
0.345754
0.345502
0.34525
0.344999
0.344748
0.344498
0.344248
0.343999
0.34375
0.343501
0.343253
0.343006
0.342759
0.342512
0.342266
0.34202
0.341775
0.34153
0.341285
0.341041
0.340798
0.340554
0.340312
0.340069
0.339828
0.339586
0.339345
0.339104
0.338864
0.338624
0.338385
0.338146
0.337907
0.337669
0.337431
0.337193
0.336956
0.336719
0.336483
0.336246
0.336011
0.335775
0.33554
0.335305
0.335071
0.334837
0.334603
0.33437
0.334137
0.333904
0.333671
0.333439
0.333207
0.332975
0.332744
0.332513
0.332282
0.332051
0.331821
0.33159
0.33136
0.331131
0.330901
0.330672
0.330442
0.330213
0.329985
0.329756
0.329527
0.329299
0.32907
0.328842
0.328614
0.328386
0.328158
0.32793
0.327702
0.327474
0.327246
0.327018
0.32679
0.326562
0.326334
0.326105
0.325877
0.325649
0.32542
0.325191
0.324962
0.324733
0.324504
0.324274
0.324044
0.323814
0.323583
0.323352
0.323121
0.322889
0.322657
0.322424
0.322191
0.321958
0.321723
0.321488
0.321253
0.321017
0.32078
0.320542
0.320303
0.320064
0.319824
0.319583
0.319341
0.319097
0.318853
0.318608
0.318361
0.318113
0.317864
0.317614
0.317362
0.317108
0.316854
0.316597
0.316339
0.316079
0.315817
0.315554
0.315288
0.315021
0.314751
0.314479
0.314205
0.313928
0.313649
0.313368
0.313083
0.312796
0.312506
0.312213
0.311917
0.311618
0.311316
0.31101
0.3107
0.310387
0.31007
0.309749
0.309423
0.309094
0.30876
0.308422
0.308079
0.307731
0.307378
0.307019
0.306656
0.306286
0.305911
0.30553
0.305143
0.304749
0.304349
0.303942
0.303528
0.303106
0.302677
0.30224
0.301796
0.301342
0.300881
0.30041
0.29993
0.299441
0.298942
0.298433
0.297914
0.297383
0.296842
0.296289
0.295725
0.295148
0.294559
0.293957
0.293341
0.292712
0.292068
0.29141
0.290737
0.290048
0.289343
0.288622
0.287883
0.287127
0.286353
0.28556
0.284748
0.283916
0.283063
0.28219
0.281295
0.280378
0.279437
0.278474
0.277485
0.276472
0.275433
0.274368
0.273275
0.272154
0.271005
0.269826
0.268616
0.267375
0.266101
0.264795
0.263454
0.262079
0.260668
0.25922
0.257733
0.256209
0.254644
0.253038
0.25139
0.249699
0.247964
0.246184
0.244357
0.242483
0.24056
0.238587
0.236563
0.234487
0.232357
0.230173
0.227932
0.225635
0.223279
0.220863
0.218387
0.215848
0.213246
0.210579
0.207846
0.205047
0.202178
0.199241
0.196232
0.193151
0.189998
0.18677
0.183466
0.180087
0.17663
0.173094
0.169479
0.165784
0.162007
0.158148
0.154207
0.150183
0.146074
0.141881
0.137603
0.133239
0.12879
0.124255
0.119634
0.114928
0.110135
0.105257
0.100294
0.0952467
0.0901149
0.0848997
0.079602
0.0742228
0.0687633
0.0632246
0.0576082
0.0519156
0.0461486
0.0403089
0.0343987
0.0284199
0.022375
0.0162662
0.0100962
0.00386766
-0.00241657
-0.00875354
-0.0151402
-0.0215732
-0.0280494
-0.0345652
-0.0411171
-0.0477015
-0.0543147
-0.0609529
-0.0676121
0.448401
0.448389
0.448364
0.448326
0.448275
0.448211
0.448134
0.448044
0.447942
0.447827
0.4477
0.44756
0.447408
0.447244
0.447069
0.446881
0.446682
0.446472
0.44625
0.446018
0.445775
0.445521
0.445257
0.444983
0.444699
0.444406
0.444103
0.443792
0.443471
0.443142
0.442804
0.442459
0.442106
0.441745
0.441377
0.441002
0.44062
0.440232
0.439837
0.439437
0.43903
0.438619
0.438202
0.43778
0.437353
0.436922
0.436487
0.436047
0.435604
0.435157
0.434707
0.434254
0.433797
0.433338
0.432877
0.432413
0.431946
0.431478
0.431008
0.430536
0.430063
0.429589
0.429113
0.428636
0.428158
0.42768
0.427201
0.426721
0.426241
0.425761
0.425281
0.4248
0.42432
0.42384
0.42336
0.422881
0.422401
0.421923
0.421445
0.420968
0.420491
0.420015
0.419541
0.419067
0.418594
0.418122
0.417651
0.417182
0.416713
0.416246
0.415781
0.415316
0.414853
0.414391
0.413931
0.413472
0.413015
0.412559
0.412104
0.411651
0.4112
0.41075
0.410302
0.409856
0.409411
0.408968
0.408526
0.408086
0.407648
0.407211
0.406776
0.406342
0.405911
0.405481
0.405052
0.404626
0.4042
0.403777
0.403355
0.402935
0.402517
0.4021
0.401685
0.401272
0.40086
0.400449
0.400041
0.399634
0.399228
0.398825
0.398422
0.398022
0.397623
0.397225
0.396829
0.396435
0.396042
0.395651
0.395261
0.394872
0.394486
0.3941
0.393716
0.393334
0.392953
0.392573
0.392195
0.391818
0.391443
0.391069
0.390696
0.390325
0.389955
0.389587
0.38922
0.388854
0.388489
0.388126
0.387764
0.387403
0.387044
0.386686
0.386329
0.385973
0.385619
0.385266
0.384914
0.384563
0.384213
0.383865
0.383517
0.383171
0.382826
0.382482
0.382139
0.381798
0.381457
0.381118
0.380779
0.380442
0.380106
0.379771
0.379436
0.379103
0.378771
0.37844
0.37811
0.377781
0.377453
0.377126
0.3768
0.376474
0.37615
0.375827
0.375505
0.375183
0.374863
0.374543
0.374225
0.373907
0.37359
0.373274
0.372959
0.372645
0.372332
0.372019
0.371708
0.371397
0.371087
0.370778
0.37047
0.370162
0.369856
0.36955
0.369245
0.368941
0.368637
0.368335
0.368033
0.367732
0.367431
0.367132
0.366833
0.366535
0.366238
0.365941
0.365645
0.36535
0.365056
0.364762
0.364469
0.364177
0.363885
0.363595
0.363305
0.363015
0.362726
0.362438
0.362151
0.361864
0.361578
0.361293
0.361008
0.360724
0.36044
0.360158
0.359875
0.359594
0.359313
0.359033
0.358753
0.358474
0.358196
0.357918
0.357641
0.357364
0.357088
0.356813
0.356538
0.356264
0.355991
0.355718
0.355445
0.355174
0.354902
0.354632
0.354362
0.354092
0.353823
0.353555
0.353287
0.35302