/*--------------------------------*- C++ -*----------------------------------*\
  =========                 |
  \\      /  F ield         | OpenFOAM: The Open Source CFD Toolbox
   \\    /   O peration     | Website:  https://openfoam.org
    \\  /    A nd           | Version:  7
     \\/     M anipulation  |
\*---------------------------------------------------------------------------*/
FoamFile
{
    version     2.0;
    format      ascii;
    class       volVectorField;
    location    "3";
    object      U;
}
// * * * * * * * * * * * * * * * * * * * * * * * * * * * * * * * * * * * * * //

dimensions      [0 1 -1 0 0 0 0];

internalField   nonuniform List<vector> 
433
(
(-0.73008 7.12603 3.67635e-18)
(0.169965 7.91368 -2.03523e-18)
(0.738189 6.86585 1.46293e-18)
(0.805613 4.67943 -3.66342e-18)
(0.493244 2.19582 3.5287e-18)
(0.071906 -0.0445434 -7.94002e-19)
(-0.764906 1.56409 1.33031e-18)
(-1.80486 1.65723 -6.06876e-18)
(-2.67459 -0.195779 -1.56573e-19)
(-2.97892 -1.32367 9.2427e-18)
(-2.75523 -1.35758 -2.2465e-18)
(-2.27835 -1.35641 -3.55583e-18)
(-1.63926 -1.80872 6.96585e-18)
(-0.917371 -2.78791 -4.04912e-18)
(-0.179646 -4.0898 -1.50689e-18)
(-0.159912 3.88886 4.04299e-18)
(-0.246974 6.50722 2.40053e-18)
(-0.339907 4.8955 -6.83314e-18)
(-0.628996 2.33881 3.25954e-18)
(-1.04553 0.0780824 -4.0818e-18)
(-1.00584 -2.34535 9.79815e-18)
(-0.433963 -4.77075 -2.32755e-18)
(0.460437 -6.75574 1.2875e-19)
(1.31071 -7.83109 -2.158e-19)
(0.372832 1.8396 -3.03839e-18)
(0.833841 5.16943 -2.24349e-17)
(1.10471 7.87603 1.74149e-17)
(1.17306 8.32691 -1.65364e-17)
(1.05233 5.99523 1.71913e-17)
(1.23166 2.0388 -2.14266e-18)
(1.50444 -1.7329 -5.59267e-18)
(1.5767 -3.95977 1.36326e-17)
(1.30895 -4.44892 -4.81706e-18)
(0.809365 -3.83456 -9.67141e-18)
(0.4453 -1.21831 -1.31997e-18)
(0.612216 0.752391 -6.1927e-18)
(0.327684 5.59283 -6.63914e-18)
(0.333849 8.10825 8.05676e-18)
(0.504008 6.77754 1.0727e-18)
(0.539629 3.54669 -5.04736e-18)
(0.2021 0.395981 7.70621e-19)
(-0.433773 -1.58677 2.93084e-19)
(-1.07751 -2.444 2.72246e-19)
(-1.46418 -2.6624 -1.12376e-18)
(-0.357415 -0.869426 2.63954e-17)
(-1.29142 0.810069 -3.05774e-17)
(-2.31412 4.77652 6.72171e-18)
(-2.52126 7.81933 2.81732e-17)
(-2.04855 8.52542 -2.79473e-17)
(-1.54244 7.24609 8.7289e-19)
(-1.19818 4.82826 7.5672e-18)
(-0.970732 2.08661 1.34039e-17)
(-0.709334 -0.484447 -9.04541e-18)
(-0.332662 -2.55333 5.40548e-18)
(0.0811484 -3.79703 6.35857e-18)
(-1.09191 1.47968 -1.45121e-17)
(-2.23454 1.82458 5.43084e-17)
(-2.77667 0.471024 -4.38344e-17)
(-2.77538 -0.243505 -6.30504e-19)
(-2.37718 -0.0746208 9.53724e-19)
(-1.72907 -0.0957122 3.31014e-17)
(-0.851163 -0.735179 -6.42251e-18)
(0.180976 -1.99214 -5.66856e-18)
(1.22892 -3.56832 -4.21029e-19)
(2.06812 -4.9673 -7.49523e-18)
(2.47019 -5.67959 9.86598e-18)
(2.35973 -5.4747 -1.62822e-17)
(-0.948707 3.76906 1.41292e-18)
(-1.51629 6.15695 -6.41164e-18)
(-1.12647 4.27026 1.31568e-17)
(-0.637911 1.55233 7.33243e-18)
(-0.34121 -0.613442 -6.72206e-18)
(0.339691 -2.65653 -3.0385e-18)
(1.41878 -4.57137 -1.48844e-17)
(2.6107 -6.08597 4.32267e-18)
(3.49829 -6.84429 1.37674e-17)
(3.76023 -6.63715 1.40864e-17)
(3.36364 -5.5982 -1.56035e-17)
(2.54964 -4.1518 4.1681e-18)
(-0.00930515 1.9648 -3.38304e-17)
(-0.119402 5.10712 -6.06304e-18)
(-0.17451 7.26614 -1.90012e-18)
(-0.0484223 7.32881 -2.16069e-17)
(0.273488 5.12332 4.46237e-17)
(1.07337 1.81909 3.54013e-17)
(1.87683 -1.16143 -4.22432e-17)
(2.22314 -2.86626 -2.57733e-17)
(1.99637 -3.25068 2.64325e-17)
(1.42275 -2.8288 -1.35548e-18)
(0.809259 -2.11678 3.22508e-17)
(0.338632 -1.39721 -3.34185e-17)
(0.0553176 -0.78708 1.96248e-17)
(0.68894 -1.05955 2.93199e-18)
(0.499114 0.83374 -1.96637e-17)
(-0.693084 5.27205 1.83985e-17)
(-1.24063 7.43754 -2.31375e-17)
(-0.982652 6.05472 1.91156e-17)
(-0.524144 3.08245 -7.23953e-18)
(-0.387677 0.285259 5.24212e-18)
(-0.631314 -1.4929 4.0009e-18)
(-0.96532 -2.34243 -3.53302e-18)
(-1.11288 -2.62209 2.95672e-19)
(-1.01689 -2.5116 3.74737e-18)
(-0.781316 -2.06773 -1.53199e-20)
(-0.536064 -1.40949 5.67561e-19)
(-0.349695 -0.72753 1.07823e-18)
(-0.134409 -0.952075 1.9321e-17)
(-1.40533 0.653552 3.53758e-17)
(-3.28764 4.57351 -8.73234e-17)
(-4.18871 7.54018 6.4958e-17)
(-3.93848 8.1394 -8.42813e-18)
(-3.2429 6.76456 -3.63822e-17)
(-2.44076 4.30463 -2.39652e-17)
(-1.62935 1.56897 3.62616e-17)
(-0.78112 -0.934713 -2.91173e-17)
(0.0683236 -2.84003 2.2964e-17)
(0.754601 -3.8446 -1.32723e-17)
(1.10762 -3.8702 6.56199e-18)
(1.10622 -3.15749 2.91464e-17)
(0.875363 -2.13237 -2.70514e-17)
(0.577833 -1.17791 8.43644e-18)
(0.327419 -0.501096 4.62934e-18)
(-1.35196 1.1603 -2.729e-17)
(-2.62817 1.3799 3.31731e-18)
(-3.05587 0.266018 4.1253e-17)
(-3.0238 -0.175175 -1.93321e-17)
(-2.68639 0.145435 3.81455e-17)
(-2.01927 0.178957 -4.46671e-17)
(-0.976014 -0.436384 3.22681e-17)
(0.356374 -1.65929 -4.66919e-18)
(1.76549 -3.17747 -3.32859e-17)
(2.91617 -4.50705 2.21513e-17)
(3.48053 -5.17178 1.7127e-18)
(3.34597 -4.97198 -6.02025e-18)
(2.68636 -4.09379 -7.58319e-19)
(1.83546 -2.94576 -7.59816e-18)
(1.08039 -1.89582 3.03348e-18)
(0.552879 -1.13038 4.03624e-18)
(0.25393 -0.667798 -4.59117e-18)
(-1.70745 3.52502 9.53133e-18)
(-2.76756 5.71383 -7.4031e-18)
(-2.03856 3.89584 3.20178e-17)
(-1.0329 1.31699 -2.52034e-17)
(-0.301067 -0.729905 6.84518e-18)
(0.800516 -2.60241 -1.47242e-17)
(2.29457 -4.32251 1.25566e-17)
(3.84431 -5.67389 1.15452e-17)
(4.94489 -6.34749 -7.33014e-18)
(5.20742 -6.14916 4.93697e-18)
(4.6117 -5.19199 7.53569e-18)
(3.49072 -3.86088 -1.04157e-17)
(2.28915 -2.57586 -4.39072e-18)
(1.31618 -1.58988 -1.8231e-18)
(0.675465 -0.952198 -2.98571e-18)
(0.329214 -0.593855 9.8858e-19)
(0.182357 -0.41958 5.18429e-19)
(0.145458 -0.351147 1.30558e-18)
(-0.415807 2.01678 3.98675e-17)
(-1.15313 5.1672 -1.14099e-16)
(-1.59562 7.28575 1.88286e-17)
(-1.45874 7.34916 -6.48027e-18)
(-0.683953 5.2092 8.09308e-17)
(0.798975 2.04758 -6.82102e-17)
(2.24823 -0.820036 2.711e-17)
(2.99618 -2.50777 -3.53783e-19)
(2.88138 -2.96268 -4.73664e-17)
(2.21475 -2.64529 5.86828e-17)
(1.41892 -2.02469 -1.40389e-17)
(0.754283 -1.36699 1.53399e-18)
(0.303656 -0.791468 -9.21012e-18)
(0.0521769 -0.356621 -6.92532e-18)
(-0.0528191 -0.086248 1.60937e-17)
(-0.0648538 0.03278 1.42575e-18)
(-0.0237355 0.0423238 -1.48772e-17)
(0.0402298 -0.00939624 7.8513e-18)
(0.105057 -0.0855557 4.25025e-19)
(0.858455 -0.856491 -9.05205e-18)
(0.210884 1.16792 7.23774e-18)
(-1.86945 5.47529 -3.20376e-18)
(-2.81779 7.64504 1.5635e-18)
(-2.23269 6.41144 -2.07931e-17)
(-1.09477 3.53149 1.13504e-17)
(-0.299562 0.668818 5.31566e-18)
(-0.123184 -1.27297 -9.94492e-18)
(-0.286472 -2.26747 -6.29777e-20)
(-0.426734 -2.61238 -8.52735e-19)
(-0.417683 -2.50232 1.58089e-18)
(-0.327616 -2.03561 2.25148e-18)
(-0.253706 -1.36221 4.99161e-19)
(-0.227752 -0.685643 8.68134e-20)
(-0.223701 -0.169572 8.19542e-19)
(-0.208338 0.120536 5.28115e-19)
(-0.165746 0.208487 1.09281e-18)
(-0.0990499 0.16252 -7.17382e-19)
(-0.0209026 0.0526969 6.84044e-19)
(0.0562272 -0.0693035 -4.51764e-18)
(0.125379 -0.176237 2.53791e-18)
(-0.077441 -0.888175 3.61533e-17)
(-1.6995 0.373068 -1.49886e-17)
(-4.22671 3.60437 2.75143e-17)
(-5.60341 6.2397 -5.1897e-17)
(-5.4671 6.97735 1.9098e-17)
(-4.53673 5.94229 1.92392e-17)
(-3.29095 3.84337 -5.52915e-18)
(-1.98135 1.41589 3.92799e-17)
(-0.678752 -0.836277 -3.4554e-17)
(0.523636 -2.53957 3.32535e-17)
(1.40848 -3.40904 -9.56976e-18)
(1.77677 -3.38855 -2.21303e-17)
(1.64334 -2.7188 1.41952e-17)
(1.21834 -1.80108 -2.15375e-17)
(0.745174 -0.979824 2.57868e-17)
(0.379086 -0.425058 7.59771e-18)
(0.164412 -0.14898 -1.40542e-17)
(0.0756775 -0.0781972 6.78227e-18)
(0.0684651 -0.118464 -1.67644e-18)
(0.104623 -0.196528 -2.20461e-18)
(0.155984 -0.274251 -1.11404e-18)
(0.207564 -0.338456 -5.32867e-19)
(-1.61633 1.01227 -1.22328e-17)
(-2.78361 0.822094 -5.65854e-18)
(-2.77121 -0.7891 4.33391e-17)
(-2.58292 -1.62935 -4.189e-17)
(-2.4001 -1.53623 1.76783e-17)
(-1.8837 -1.51363 2.19347e-17)
(-0.859753 -1.91995 -7.02876e-17)
(0.614545 -2.76614 2.59591e-17)
(2.2816 -3.82713 1.88221e-17)
(3.69559 -4.72239 -2.52233e-18)
(4.39676 -5.058 -9.9969e-18)
(4.21362 -4.66535 4.02924e-18)
(3.368 -3.72508 1.65073e-18)
(2.29283 -2.61869 -9.44721e-18)
(1.35408 -1.66797 1.00181e-18)
(0.712423 -1.01065 -7.15179e-19)
(0.359515 -0.634584 -3.40861e-18)
(0.211334 -0.460038 6.49516e-20)
(0.178916 -0.401366 -8.6197e-20)
(0.199634 -0.397495 -6.76772e-19)
(0.23802 -0.414411 -1.36199e-18)
(0.278096 -0.435829 2.68533e-20)
(0.315405 -0.455849 3.94882e-18)
(0.349776 -0.473512 -3.86605e-18)
(-2.27701 3.2057 -1.76927e-17)
(-3.85552 5.49903 3.97088e-17)
(-3.18781 4.45255 1.24874e-17)
(-2.11859 2.42742 -2.28465e-17)
(-1.20346 0.383543 -2.24237e-17)
(0.299387 -1.71935 1.65225e-18)
(2.34277 -3.67642 5.58724e-17)
(4.43427 -5.1472 -2.94054e-17)
(5.90175 -5.83015 -2.39761e-17)
(6.26921 -5.62099 1.75502e-17)
(5.55215 -4.70453 2.88976e-17)
(4.18993 -3.47241 -3.1226e-17)
(2.73426 -2.30364 8.55745e-18)
(1.56491 -1.41219 -1.40046e-17)
(0.805578 -0.837231 1.01496e-17)
(0.403071 -0.518534 1.6859e-17)
(0.238631 -0.37243 -2.26919e-17)
(0.204102 -0.326753 -3.15731e-18)
(0.225963 -0.331246 2.20018e-18)
(0.263972 -0.356926 1.10924e-17)
(0.302412 -0.387867 -2.36089e-18)
(0.337123 -0.417122 -2.2614e-18)
(0.367998 -0.443285 3.92537e-18)
(0.396599 -0.466579 -2.28213e-18)
(0.424344 -0.48744 1.20476e-18)
(-0.415968 1.51324 -2.09512e-17)
(-1.82635 4.66968 -1.93263e-17)
(-3.35651 7.65256 -8.7634e-18)
(-3.78106 8.57378 5.67087e-17)
(-2.62877 6.78122 2.7929e-18)
(-0.216709 3.52651 -1.67384e-17)
(2.23984 0.282732 6.10557e-18)
(3.68625 -1.84969 -5.57702e-18)
(3.83986 -2.67042 1.91468e-17)
(3.10228 -2.59157 -2.54022e-17)
(2.06365 -2.09524 -3.68516e-18)
(1.12185 -1.4823 -1.28503e-17)
(0.434727 -0.90437 -1.15172e-17)
(0.0168828 -0.445609 5.36433e-17)
(-0.17823 -0.147216 -2.07577e-17)
(-0.215265 -0.00568164 4.97494e-18)
(-0.155854 0.0172188 -5.45127e-18)
(-0.0531179 -0.0312705 7.09671e-18)
(0.0557866 -0.111937 -2.25329e-18)
(0.151877 -0.198719 -5.23641e-19)
(0.230695 -0.276803 3.43297e-18)
(0.2945 -0.341535 -4.24741e-18)
(0.347043 -0.393789 -1.7977e-19)
(0.391755 -0.436028 -1.59246e-18)
(0.431329 -0.470429 4.91594e-18)
(0.965167 -0.876642 4.78076e-19)
(-0.359055 1.08835 5.49618e-19)
(-3.5929 5.36866 2.88019e-18)
(-5.2144 8.16424 -8.72243e-19)
(-4.48491 7.95887 -3.49029e-19)
(-2.61748 5.78185 1.13866e-18)
(-0.843897 2.95959 1.06265e-17)
(0.153435 0.561913 -1.11441e-17)
(0.426273 -1.00649 5.60617e-18)
(0.367396 -1.80944 -8.42981e-18)
(0.253716 -2.01696 5.34677e-18)
(0.13894 -1.77776 -8.49613e-18)
(-0.00279004 -1.27856 1.30232e-17)
(-0.157329 -0.734172 -7.05022e-18)
(-0.2732 -0.308278 1.3129e-18)
(-0.313114 -0.0669214 -1.55745e-18)
(-0.273643 0.00750937 6.55713e-19)
(-0.178308 -0.0286903 -2.03544e-18)
(-0.0595312 -0.117028 1.73892e-18)
(0.0575436 -0.214302 7.64566e-19)
(0.161535 -0.298508 3.98947e-19)
(0.24881 -0.365187 1.51666e-18)
(0.32093 -0.416638 -7.47234e-19)
(-0.361505 -0.736411 4.02838e-18)
(-1.82454 -0.727152 -5.97011e-18)
(-3.87094 0.356348 -4.14199e-17)
(-5.21327 1.85894 -2.95886e-17)
(-5.45068 2.88665 4.25426e-17)
(-4.86719 2.89964 4.45996e-17)
(-3.72879 2.01712 -1.13332e-17)
(-2.29691 0.635981 -1.20861e-17)
(-0.744409 -0.827473 -5.20344e-17)
(0.730839 -2.00689 1.85319e-17)
(1.82838 -2.62384 3.5836e-17)
(2.29464 -2.59341 -4.3454e-17)
(2.13534 -2.08781 1.51253e-17)
(1.61132 -1.41512 8.76357e-18)
(1.03214 -0.832247 1.36368e-18)
(0.587667 -0.45521 5.42172e-18)
(0.325528 -0.281174 -5.65553e-18)
(0.213314 -0.2473 1.77727e-18)
(0.198898 -0.281308 1.59353e-19)
(0.233879 -0.335181 -1.14939e-18)
(0.285344 -0.387908 9.94295e-19)
(-2.28051 1.49395 -1.17153e-17)
(-3.40776 1.48483 1.09623e-17)
(-2.43044 -0.646148 4.73585e-18)
(-1.5992 -2.47431 3.1794e-18)
(-1.29906 -3.4693 -7.91824e-19)
(-0.770407 -4.28598 -1.77438e-17)
(0.309221 -5.08771 1.31278e-17)
(1.89314 -5.8124 1.95615e-18)
(3.65021 -6.29308 -5.65304e-18)
(5.04595 -6.33829 8.11166e-18)
(5.57477 -5.81528 -2.31991e-18)
(5.10047 -4.78099 5.72505e-19)
(3.95184 -3.50364 1.70476e-19)
(2.65277 -2.31164 -1.61851e-18)
(1.59104 -1.41324 7.46855e-19)
(0.9015 -0.84697 2.17103e-18)
(0.537362 -0.546702 1.22825e-18)
(0.385914 -0.419213 -5.33984e-18)
(0.347833 -0.38577 2.23709e-18)
(-2.13284 2.53044 -3.0037e-17)
(-4.28918 5.28299 5.90367e-17)
(-4.89589 6.29474 -3.44015e-17)
(-4.97772 5.99785 -3.55774e-17)
(-4.41818 4.46881 8.13864e-17)
(-2.46429 2.01421 -5.73185e-17)
(0.528821 -0.779333 3.56636e-17)
(3.63635 -3.14543 7.92753e-18)
(5.86085 -4.52938 -3.03412e-17)
(6.62861 -4.81847 2.6303e-17)
(6.02642 -4.27189 6.33807e-18)
(4.61454 -3.31073 4.17296e-17)
(3.04349 -2.30106 -3.79187e-17)
(1.75633 -1.4593 -1.16012e-17)
(0.906701 -0.865418 3.64705e-17)
(0.450671 -0.505927 -2.73815e-17)
(0.268655 -0.322851 -7.34284e-18)
(0.596115 0.274103 1.00879e-17)
(-1.08081 2.82937 8.43315e-18)
(-4.57509 6.89732 -4.65403e-17)
(-6.66933 9.71799 3.84349e-17)
(-5.98235 9.82961 -1.66435e-17)
(-3.09681 7.87941 -2.09577e-17)
(0.528195 4.87911 6.20867e-17)
(3.38369 2.02095 -2.65142e-17)
(4.6694 0.042299 3.79677e-18)
(4.48393 -0.956 -5.25234e-18)
(3.44657 -1.23443 -1.06238e-17)
(2.18972 -1.10822 -7.25191e-18)
(1.10704 -0.814736 1.88361e-17)
(0.357597 -0.505635 -8.1964e-18)
(0.983644 -1.16087 2.64097e-17)
(-0.233307 -0.642117 3.14205e-17)
(-3.3801 1.86426 -2.74192e-17)
(-5.38347 4.48785 -3.80246e-17)
(-5.45059 6.04912 5.21469e-17)
(-4.29802 6.32865 1.15918e-17)
(-2.59017 5.46968 -6.58175e-18)
(-1.00951 3.96118 -3.56971e-18)
(0.0292319 2.37506 -2.14122e-17)
(0.507914 1.08891 2.19946e-17)
(0.619091 0.237345 -3.97767e-18)
(0.545097 -0.200238 1.98069e-18)
(-1.04373 -0.286358 -1.87876e-17)
(-1.24074 -1.70037 4.31459e-17)
(-0.557499 -3.50919 -6.54025e-17)
(-0.429314 -4.36382 -1.85668e-18)
(-0.79086 -4.25166 1.27766e-17)
(-1.09811 -3.92817 1.2879e-17)
(-1.01565 -3.64266 -2.65486e-17)
(-0.504345 -3.45663 4.44356e-17)
(0.304675 -3.29603 -1.22446e-17)
(1.18927 -3.04495 1.03522e-17)
(-2.87177 1.91023 1.52836e-17)
(-4.54681 2.94278 -4.0995e-17)
(-3.51999 1.93407 8.77488e-18)
(-2.64732 0.273555 -2.65126e-18)
(-2.20585 -1.55733 3.24185e-17)
(-1.15408 -3.61778 -6.30939e-18)
(0.637676 -5.58434 -1.1058e-17)
(2.78122 -7.00038 2.09379e-19)
(-0.643033 1.21592 -2.76183e-17)
(-2.82405 3.67347 4.79572e-17)
(-5.80283 6.43317 -6.19848e-17)
(-8.27715 8.25594 1.22008e-17)
(-8.85357 8.25592 5.94921e-18)
(-6.90363 6.66525 2.95373e-17)
(-3.0702 3.94303 -2.92656e-17)
(1.77332 -0.708312 -1.17466e-18)
(0.746871 0.2996 7.03074e-18)
(-3.40928 3.35146 -6.7605e-18)
(-6.58339 6.49072 7.79201e-19)
(-7.1792 8.49641 -2.75196e-18)
(0.557034 -1.06967 2.4694e-17)
(0.653558 -2.22129 -2.43228e-17)
(0.0403006 -2.48311 2.63875e-17)
(-2.12367 0.38608 -4.26949e-18)
)
;

boundaryField
{
    inlet
    {
        type            uniformFixedValue;
        uniformValue    constant (1 0 0);
        value           nonuniform 0();
    }
    outlet
    {
        type            pressureInletOutletVelocity;
        value           nonuniform 0();
    }
    cylinder
    {
        type            fixedValue;
        value           uniform (0 0 0);
    }
    top
    {
        type            symmetryPlane;
    }
    bottom
    {
        type            symmetryPlane;
    }
    defaultFaces
    {
        type            empty;
    }
    procBoundary13to6
    {
        type            processor;
        value           nonuniform List<vector> 8((0.184729 -0.260632 9.51226e-19) (0.184729 -0.260632 9.51226e-19) (0.254899 -0.38741 -1.69101e-19) (0.254899 -0.38741 -1.69101e-19) (0.297695 -0.424072 -1.15241e-18) (0.382145 -0.489244 -1.8922e-18) (0.382145 -0.489244 -1.8922e-18) (0.452055 -0.506061 2.93334e-19));
    }
    procBoundary13to7
    {
        type            processor;
        value           nonuniform List<vector> 
38
(
(0.381451 -0.456451 3.71825e-18)
(0.467564 -0.498587 -4.87954e-19)
(0.43349 -0.487924 -2.23675e-18)
(0.338552 -0.431821 -2.60638e-18)
(0.381451 -0.456451 3.71825e-18)
(0.388906 -0.465992 3.3293e-18)
(0.362001 -0.395011 -1.51171e-18)
(0.338552 -0.431821 -2.60638e-18)
(0.395129 -0.419017 2.31691e-18)
(0.241388 -0.254453 -1.71054e-17)
(0.362001 -0.395011 -1.51171e-18)
(0.281245 -0.25247 3.18229e-18)
(-0.0530203 -0.266161 -1.07419e-17)
(-0.198567 -0.126706 -2.51796e-18)
(0.241388 -0.254453 -1.71054e-17)
(-0.17514 -0.0781578 7.9891e-18)
(0.393489 -0.330069 -2.55855e-18)
(-0.0530203 -0.266161 -1.07419e-17)
(0.230375 -0.294343 1.57123e-19)
(1.8863 -2.63643 8.7035e-18)
(0.393489 -0.330069 -2.55855e-18)
(2.19552 -2.08468 -4.3027e-18)
(4.69844 -7.54025 -8.64734e-18)
(1.8863 -2.63643 8.7035e-18)
(5.87812 -7.15869 1.446e-17)
(4.69844 -7.54025 -8.64734e-18)
(1.28531 0.950975 -3.58695e-17)
(-5.77585 9.23232 -2.80854e-18)
(1.28531 0.950975 -3.58695e-17)
(-3.07212 8.60107 -6.66527e-18)
(-0.771795 -1.72374 5.1556e-17)
(-5.77585 9.23232 -2.80854e-18)
(-1.53082 -0.226601 -6.18132e-18)
(-2.00075 -0.591981 -2.71174e-17)
(-0.771795 -1.72374 5.1556e-17)
(0.811071 -2.74665 4.36754e-18)
(-2.00075 -0.591981 -2.71174e-17)
(-2.19899 1.42279 -8.68974e-18)
)
;
    }
    procBoundary13to12
    {
        type            processor;
        value           nonuniform List<vector> 
26
(
(-0.218006 -1.8267 -7.37737e-19)
(0.464948 -5.30487 -9.56435e-19)
(1.79464 -7.74246 6.54955e-18)
(1.79464 -7.74246 6.54955e-18)
(0.299909 -2.82957 2.82953e-18)
(-1.51163 -2.53468 -2.19022e-18)
(-1.51163 -2.53468 -2.19022e-18)
(0.37729 -4.04764 9.5516e-18)
(0.37729 -4.04764 9.5516e-18)
(1.86533 -4.53271 -6.97706e-18)
(1.65253 -2.75508 1.30766e-17)
(1.65253 -2.75508 1.30766e-17)
(-0.0736696 -0.336266 9.15708e-18)
(-0.0736696 -0.336266 9.15708e-18)
(-0.227892 -0.188882 -2.87932e-19)
(-0.227892 -0.188882 -2.87932e-19)
(-0.15031 0.130624 -1.03253e-19)
(0.16606 -0.134945 2.07873e-18)
(0.16606 -0.134945 2.07873e-18)
(0.12369 -0.436786 -2.57356e-18)
(0.12369 -0.436786 -2.57356e-18)
(0.157495 -0.335193 1.91802e-18)
(0.157495 -0.335193 1.91802e-18)
(0.159177 -0.164292 -6.04602e-18)
(0.159177 -0.164292 -6.04602e-18)
(0.202377 -0.233791 8.21162e-18)
)
;
    }
    procBoundary13to19
    {
        type            processor;
        value           nonuniform List<vector> 10((2.57941 8.97938 1.72581e-19) (2.99119 7.98475 -5.35199e-19) (2.85141 4.47415 2.67604e-19) (2.15683 0.525658 -3.74182e-19) (1.13971 -2.20886 3.60963e-19) (0.114389 -3.30064 -1.63276e-19) (-0.548471 -0.826148 -1.47454e-18) (-1.13353 0.673842 5.15942e-18) (-1.31639 4.27934 -1.37676e-18) (-1.31639 4.27934 -1.37676e-18));
    }
}


// ************************************************************************* //
