/*--------------------------------*- C++ -*----------------------------------*\
  =========                 |
  \\      /  F ield         | OpenFOAM: The Open Source CFD Toolbox
   \\    /   O peration     | Website:  https://openfoam.org
    \\  /    A nd           | Version:  7
     \\/     M anipulation  |
\*---------------------------------------------------------------------------*/
FoamFile
{
    version     2.0;
    format      ascii;
    class       volVectorField;
    location    "7";
    object      U;
}
// * * * * * * * * * * * * * * * * * * * * * * * * * * * * * * * * * * * * * //

dimensions      [0 1 -1 0 0 0 0];

internalField   nonuniform List<vector> 
344
(
(1.32818 -0.06547 1.42339e-15)
(1.32803 -0.062171 1.94146e-15)
(1.32761 -0.0590724 1.96e-15)
(1.32695 -0.0561656 2.02855e-15)
(1.3261 -0.0534408 2.1123e-15)
(1.32509 -0.0508883 2.29877e-15)
(1.32394 -0.0484978 2.44085e-15)
(1.3227 -0.0462593 2.59643e-15)
(1.32136 -0.044163 2.65544e-15)
(1.31996 -0.0421995 2.82533e-15)
(1.31851 -0.0403596 2.98543e-15)
(1.31702 -0.0386349 3.10938e-15)
(1.31549 -0.0370173 3.24799e-15)
(1.31395 -0.035499 3.3694e-15)
(1.3124 -0.0340729 3.48827e-15)
(1.31083 -0.0327325 3.58715e-15)
(1.30927 -0.0314715 3.67228e-15)
(1.30771 -0.0302843 3.82968e-15)
(1.30616 -0.0291653 3.96558e-15)
(1.30463 -0.0281098 4.0092e-15)
(1.3031 -0.0271132 4.08072e-15)
(1.30159 -0.0261713 4.23324e-15)
(1.3001 -0.0252803 4.36853e-15)
(1.29862 -0.0244364 4.44236e-15)
(1.29717 -0.0236365 4.56911e-15)
(1.29573 -0.0228775 4.65352e-15)
(1.29432 -0.0221566 4.80949e-15)
(1.29293 -0.0214713 4.90096e-15)
(1.29156 -0.0208191 5.0195e-15)
(1.29021 -0.0201979 4.68223e-15)
(1.28889 -0.0196056 4.81853e-15)
(1.28758 -0.0190404 4.942e-15)
(1.2863 -0.0185006 5.07018e-15)
(1.28505 -0.0179846 5.15309e-15)
(1.28381 -0.0174909 5.30461e-15)
(1.28259 -0.0170182 5.38292e-15)
(1.2814 -0.0165651 5.529e-15)
(1.28023 -0.0161307 5.60953e-15)
(1.27908 -0.0157136 5.68255e-15)
(1.27795 -0.0153131 5.76627e-15)
(1.00047 -0.0127298 2.70748e-17)
(1.00683 -0.0393852 -1.33445e-16)
(1.02091 -0.0642547 -1.42418e-17)
(1.0408 -0.0863399 -1.96956e-16)
(1.0649 -0.104852 8.95848e-17)
(1.09149 -0.119436 -2.13496e-16)
(1.11898 -0.130133 8.19356e-17)
(1.14604 -0.137235 1.30784e-16)
(1.17165 -0.141182 1.63352e-16)
(1.19515 -0.142477 4.34724e-16)
(1.21615 -0.141632 4.59112e-16)
(1.23449 -0.139125 2.81207e-16)
(1.25018 -0.135379 4.36154e-16)
(1.26335 -0.130754 7.20013e-16)
(1.27419 -0.125543 5.16471e-16)
(1.28293 -0.119983 7.42692e-16)
(1.28981 -0.114258 9.38284e-16)
(1.29507 -0.108507 6.32822e-16)
(1.29894 -0.102832 9.20883e-16)
(1.30162 -0.0973079 1.21311e-15)
(1.30329 -0.0919859 9.08074e-16)
(1.30412 -0.0868991 1.17179e-15)
(1.30425 -0.0820673 1.40726e-15)
(1.3038 -0.0775 1.6468e-15)
(1.30288 -0.073199 1.85576e-15)
(1.30157 -0.069161 2.011e-15)
(1.29995 -0.0653784 2.22084e-15)
(1.29808 -0.0618415 2.38937e-15)
(1.29602 -0.0585385 2.44644e-15)
(1.29381 -0.0554567 2.62303e-15)
(1.29149 -0.0525832 2.78107e-15)
(1.28909 -0.0499048 3.0069e-15)
(1.28663 -0.0474084 3.19951e-15)
(1.28413 -0.0450817 3.3993e-15)
(1.28162 -0.0429124 3.49835e-15)
(1.2791 -0.0408892 3.54431e-15)
(1.27659 -0.0390014 3.66681e-15)
(1.2741 -0.0372387 3.88204e-15)
(1.27163 -0.0355918 4.05322e-15)
(1.26919 -0.0340518 4.26243e-15)
(1.26678 -0.0326106 4.30869e-15)
(1.26442 -0.0312606 4.35481e-15)
(1.26209 -0.0299948 4.45262e-15)
(1.25981 -0.028807 4.59714e-15)
(1.25757 -0.027691 4.77265e-15)
(1.25537 -0.0266415 4.95432e-15)
(1.25322 -0.0256535 4.84417e-15)
(1.25111 -0.0247223 4.99498e-15)
(1.24905 -0.0238438 5.1272e-15)
(1.24703 -0.0230141 5.27732e-15)
(1.24506 -0.0222296 5.3749e-15)
(1.24313 -0.0214871 5.55707e-15)
(1.24124 -0.0207835 5.64083e-15)
(1.2394 -0.0201162 5.78069e-15)
(1.23759 -0.0194826 5.87125e-15)
(1.23583 -0.0188803 6.06958e-15)
(1.2341 -0.0183073 5.89158e-15)
(1.23242 -0.0177616 5.93443e-15)
(1.23077 -0.0172414 6.02331e-15)
(1.22915 -0.0167451 6.18653e-15)
(1.22757 -0.016271 6.25654e-15)
(1.22603 -0.0158179 6.38102e-15)
(1.22452 -0.0153843 6.4432e-15)
(1.22304 -0.0149692 6.56438e-15)
(1.22159 -0.0145714 6.67201e-15)
(1.22017 -0.0141899 6.75165e-15)
(1.21879 -0.0138237 6.85644e-15)
(1.00048 -0.0137106 6.90282e-18)
(1.00752 -0.0423815 2.20022e-17)
(1.02315 -0.0690538 1.04633e-16)
(1.04495 -0.0924669 2.31293e-16)
(1.07102 -0.111751 4.77593e-16)
(1.09937 -0.126571 1.90431e-16)
(1.12816 -0.137049 5.24046e-16)
(1.15594 -0.143587 4.69794e-16)
(1.18167 -0.146742 4.30639e-16)
(1.20472 -0.147124 7.88465e-16)
(1.22479 -0.145329 7.59745e-16)
(1.24181 -0.141896 6.00976e-16)
(1.2559 -0.137288 8.15291e-16)
(1.26727 -0.131888 1.10862e-15)
(1.2762 -0.126002 6.88492e-16)
(1.28299 -0.119865 1.04386e-15)
(1.28792 -0.113657 1.30109e-15)
(1.29126 -0.107509 9.7333e-16)
(1.29328 -0.101515 1.27159e-15)
(1.29419 -0.0957384 1.58187e-15)
(1.29418 -0.0902217 1.30486e-15)
(1.29343 -0.084989 1.56127e-15)
(1.29208 -0.0800519 1.83552e-15)
(1.29025 -0.0754129 2.0807e-15)
(1.28803 -0.0710679 2.30792e-15)
(1.28552 -0.0670082 2.4912e-15)
(1.28279 -0.0632219 2.73798e-15)
(1.27989 -0.0596954 2.90749e-15)
(1.27687 -0.0564141 2.72244e-15)
(1.27377 -0.0533627 3.05684e-15)
(1.27062 -0.0505261 3.25304e-15)
(1.26745 -0.0478894 3.48804e-15)
(1.26428 -0.0454384 3.71176e-15)
(1.26112 -0.0431593 3.91308e-15)
(1.25799 -0.0410391 3.69595e-15)
(1.2549 -0.0390658 3.97646e-15)
(1.25185 -0.037228 4.1877e-15)
(1.24886 -0.0355151 4.35677e-15)
(1.24592 -0.0339173 4.5673e-15)
(1.24304 -0.0324256 4.79603e-15)
(1.24023 -0.0310316 4.54272e-15)
(1.23747 -0.0297276 4.8145e-15)
(1.23478 -0.0285066 4.99228e-15)
(1.23216 -0.027362 5.12603e-15)
(1.2296 -0.0262879 5.30797e-15)
(1.2271 -0.0252789 5.47748e-15)
(1.22466 -0.02433 5.29052e-15)
(1.22228 -0.0234365 5.4812e-15)
(1.21996 -0.0225943 5.61236e-15)
(1.2177 -0.0217995 5.78118e-15)
(1.2155 -0.0210486 5.92245e-15)
(1.21335 -0.0203384 6.04969e-15)
(1.21125 -0.019666 6.19757e-15)
(1.2092 -0.0190287 6.31596e-15)
(1.20721 -0.0184239 6.41928e-15)
(1.20526 -0.0178494 6.58383e-15)
(1.20336 -0.0173031 6.26185e-15)
(1.20151 -0.0167831 6.47542e-15)
(1.1997 -0.0162877 6.62428e-15)
(1.19793 -0.0158153 6.71894e-15)
(1.19621 -0.0153642 6.81895e-15)
(1.19452 -0.0149333 6.93434e-15)
(1.19288 -0.0145212 7.02033e-15)
(1.19127 -0.0141267 7.13474e-15)
(1.1897 -0.0137488 7.24331e-15)
(1.18816 -0.0133866 7.29279e-15)
(1.18666 -0.013039 7.41447e-15)
(1.0005 -0.0148215 -3.53843e-18)
(1.00839 -0.0457655 2.08311e-16)
(1.02583 -0.0744303 2.38729e-16)
(1.04982 -0.0992291 3.89293e-16)
(1.07807 -0.119227 6.23504e-16)
(1.1082 -0.134138 4.70917e-16)
(1.13816 -0.144198 7.34673e-16)
(1.16638 -0.149958 7.38912e-16)
(1.19186 -0.152121 6.68809e-16)
(1.21403 -0.151418 9.32187e-16)
(1.23273 -0.14854 9.73247e-16)
(1.24801 -0.144086 7.97929e-16)
(1.26011 -0.138557 9.735e-16)
(1.26935 -0.132353 1.32632e-15)
(1.2761 -0.125784 9.57434e-16)
(1.28069 -0.11908 1.19526e-15)
(1.28349 -0.112412 1.50489e-15)
(1.28478 -0.105898 1.2309e-15)
(1.28484 -0.0996208 1.4665e-15)
(1.2839 -0.093631 1.78433e-15)
(1.28217 -0.087959 1.52837e-15)
(1.27982 -0.0826192 1.80389e-15)
(1.27697 -0.0776142 2.08513e-15)
(1.27376 -0.0729391 2.36234e-15)
(1.27027 -0.0685833 2.58245e-15)
(1.26659 -0.0645326 2.77458e-15)
(1.26277 -0.0607711 3.01053e-15)
(1.25888 -0.0572812 3.25921e-15)
(1.25494 -0.0540454 3.20775e-15)
(1.25099 -0.051046 3.32867e-15)
(1.24706 -0.0482661 3.51814e-15)
(1.24317 -0.0456891 3.76917e-15)
(1.23933 -0.0432995 4.01634e-15)
(1.23555 -0.0410827 4.23975e-15)
(1.23185 -0.0390249 4.10957e-15)
(1.22823 -0.0371134 4.27224e-15)
(1.22469 -0.0353364 4.47942e-15)
(1.22124 -0.0336831 4.66377e-15)
(1.21788 -0.0321433 4.85537e-15)
(1.2146 -0.0307079 5.08309e-15)
(1.21141 -0.0293684 4.96764e-15)
(1.20831 -0.028117 5.11127e-15)
(1.2053 -0.0269467 5.25986e-15)
(1.20237 -0.0258509 5.46289e-15)
(1.19952 -0.0248237 5.60187e-15)
(1.19674 -0.0238597 5.82026e-15)
(1.19405 -0.022954 5.64102e-15)
(1.19143 -0.0221019 5.80922e-15)
(1.18889 -0.0212994 5.9435e-15)
(1.18641 -0.0205427 6.11424e-15)
(1.184 -0.0198284 6.29207e-15)
(1.18166 -0.0191532 6.38404e-15)
(1.17938 -0.0185144 6.50939e-15)
(1.17716 -0.0179092 6.67462e-15)
(1.17499 -0.0173353 6.78626e-15)
(1.17289 -0.0167905 6.91965e-15)
(1.17084 -0.0162727 6.71818e-15)
(1.16884 -0.0157801 6.8063e-15)
(1.16689 -0.015311 6.98327e-15)
(1.16499 -0.0148637 7.09333e-15)
(1.16314 -0.014437 7.16441e-15)
(1.16133 -0.0140295 7.30333e-15)
(1.15957 -0.0136399 7.35626e-15)
(1.15785 -0.0132671 7.4997e-15)
(1.15617 -0.0129101 7.56917e-15)
(1.15453 -0.012568 7.69431e-15)
(1.15293 -0.0122399 7.81012e-15)
(1.00055 -0.0160752 -3.11961e-18)
(1.00947 -0.0496106 1.73503e-16)
(1.02905 -0.0804624 3.59659e-16)
(1.05554 -0.106686 5.28967e-16)
(1.08612 -0.1273 8.48738e-16)
(1.11801 -0.142103 7.06446e-16)
(1.1489 -0.1515 9.72332e-16)
(1.17719 -0.156235 9.8061e-16)
(1.20194 -0.157186 8.33331e-16)
(1.22273 -0.155225 1.12333e-15)
(1.23956 -0.151136 1.14413e-15)
(1.25264 -0.145581 9.8109e-16)
(1.26236 -0.139088 1.16749e-15)
(1.26914 -0.132068 1.56597e-15)
(1.27342 -0.124826 1.10576e-15)
(1.27562 -0.117581 1.37345e-15)
(1.27611 -0.110489 1.72753e-15)
(1.27523 -0.103653 1.40994e-15)
(1.27326 -0.097138 1.69808e-15)
(1.27044 -0.0909807 2.057e-15)
(1.26697 -0.0851988 1.71601e-15)
(1.26301 -0.0797952 2.05993e-15)
(1.25869 -0.0747634 2.36829e-15)
(1.25413 -0.0700902 2.64922e-15)
(1.24941 -0.0657587 2.89994e-15)
(1.2446 -0.0617494 3.08008e-15)
(1.23975 -0.0580418 3.34103e-15)
(1.23491 -0.054615 3.61916e-15)
(1.23011 -0.0514487 3.39798e-15)
(1.22537 -0.0485231 3.64625e-15)
(1.22071 -0.0458193 3.80684e-15)
(1.21616 -0.0433195 4.10823e-15)
(1.2117 -0.0410072 4.34999e-15)
(1.20737 -0.0388668 4.57493e-15)
(1.20315 -0.0368841 4.50941e-15)
(1.19905 -0.0350459 4.59452e-15)
(1.19506 -0.0333401 4.78313e-15)
(1.1912 -0.0317557 5.03697e-15)
(1.18746 -0.0302823 5.22668e-15)
(1.18383 -0.0289107 5.4542e-15)
(1.18031 -0.0276325 5.37506e-15)
(1.1769 -0.0264399 5.45051e-15)
(1.1736 -0.0253258 5.60354e-15)
(1.1704 -0.0242838 5.81314e-15)
(1.1673 -0.023308 5.97409e-15)
(1.16429 -0.0223931 6.16751e-15)
(1.16138 -0.0215343 5.99792e-15)
(1.15855 -0.0207271 6.11932e-15)
(1.15581 -0.0199674 6.28863e-15)
(1.15315 -0.0192516 6.49827e-15)
(1.15056 -0.0185764 6.65472e-15)
(1.14805 -0.0179386 6.78777e-15)
(1.14561 -0.0173355 6.89892e-15)
(1.14324 -0.0167645 7.07494e-15)
(1.14094 -0.0162233 7.15741e-15)
(1.1387 -0.0157098 7.30244e-15)
(1.13652 -0.015222 7.13362e-15)
(1.1344 -0.0147581 7.15186e-15)
(1.13234 -0.0143166 7.30708e-15)
(1.13032 -0.0138958 7.44266e-15)
(1.12837 -0.0134945 7.5633e-15)
(1.12646 -0.0131113 7.65837e-15)
(1.1246 -0.0127452 7.76588e-15)
(1.12278 -0.012395 7.86348e-15)
(1.12101 -0.0120598 7.97038e-15)
(1.11928 -0.0117386 8.07435e-15)
(1.1176 -0.0114306 8.17041e-15)
(1.00063 -0.0175191 -1.36275e-17)
(1.01084 -0.0540152 1.51564e-16)
(1.03294 -0.0872609 2.58524e-16)
(1.06225 -0.114913 6.95972e-16)
(1.09528 -0.135975 1.12245e-15)
(1.12879 -0.1504 8.504e-16)
(1.16026 -0.158828 1.2954e-15)
(1.18811 -0.162253 1.15216e-15)
(1.21155 -0.161757 9.5463e-16)
(1.23038 -0.158364 1.40712e-15)
(1.24479 -0.152953 1.29277e-15)
(1.2552 -0.146236 1.13383e-15)
(1.26213 -0.138762 1.43397e-15)
(1.26612 -0.130937 1.88248e-15)
(1.26769 -0.123055 1.14527e-15)
(1.26731 -0.115317 1.59964e-15)
(1.26538 -0.107855 1.97344e-15)
(1.26225 -0.100754 1.69531e-15)
(1.25821 -0.0940576 2.01682e-15)
(1.2535 -0.0877884 2.38792e-15)
(1.24829 -0.081949 2.034e-15)
(1.24276 -0.0765305 2.42316e-15)
(1.23702 -0.0715167 2.68686e-15)
(1.23117 -0.0668864 3.00851e-15)
(1.22527 -0.0626161 3.26789e-15)
(1.2194 -0.0586814 3.46521e-15)
(1.21358 -0.0550577 3.72566e-15)
(1.20787 -0.0517208 3.99628e-15)
(1.20227 -0.048648 3.5762e-15)
(1.19681 -0.0458173 3.96287e-15)
(1.1915 -0.0432086 4.17491e-15)
(1.18634 -0.0408029 4.46157e-15)
(1.18134 -0.0385829 4.72616e-15)
(1.1765 -0.0365324 4.9428e-15)
(1.17182 -0.0346367 4.60265e-15)
(1.1673 -0.0328825 4.93574e-15)
)
;

boundaryField
{
    inlet
    {
        type            uniformFixedValue;
        uniformValue    constant (1 0 0);
        value           uniform (1 0 0);
    }
    outlet
    {
        type            pressureInletOutletVelocity;
        value           nonuniform 0();
    }
    wall
    {
        type            fixedValue;
        value           nonuniform 0();
    }
    wedge1
    {
        type            wedge;
    }
    wedge2
    {
        type            wedge;
    }
    axis
    {
        type            empty;
    }
    procBoundary18to12
    {
        type            processor;
        value           nonuniform List<vector> 
68
(
(1.35384 -0.0684053 1.36658e-16)
(1.35651 -0.0652896 7.77649e-16)
(1.35877 -0.0623324 7.91403e-16)
(1.36066 -0.0595311 9.05946e-16)
(1.36223 -0.0568818 1.01493e-15)
(1.36351 -0.054379 1.12041e-15)
(1.36454 -0.052017 1.28938e-15)
(1.36535 -0.0497891 1.37911e-15)
(1.36597 -0.0476887 1.51563e-15)
(1.36642 -0.0457089 1.65598e-15)
(1.36672 -0.0438428 1.79141e-15)
(1.36689 -0.0420838 1.88614e-15)
(1.36695 -0.0404252 1.98717e-15)
(1.3669 -0.038861 2.09381e-15)
(1.36677 -0.0373849 2.17173e-15)
(1.36656 -0.0359914 2.2718e-15)
(1.36629 -0.0346751 2.41803e-15)
(1.36596 -0.0334308 2.51189e-15)
(1.36558 -0.0322539 2.6249e-15)
(1.36516 -0.0311397 2.80191e-15)
(1.3647 -0.0300843 2.88636e-15)
(1.3642 -0.0290836 2.98607e-15)
(1.36368 -0.028134 3.06111e-15)
(1.36314 -0.0272322 3.13755e-15)
(1.36257 -0.0263751 3.20692e-15)
(1.36199 -0.0255597 3.32934e-15)
(1.3614 -0.0247833 3.43735e-15)
(1.3608 -0.0240435 3.53503e-15)
(1.36018 -0.0233379 3.6727e-15)
(1.35956 -0.0226643 3.22335e-15)
(1.35893 -0.0220209 3.39944e-15)
(1.3583 -0.0214057 3.53672e-15)
(1.35767 -0.020817 3.63534e-15)
(1.35704 -0.0202532 3.76013e-15)
(1.3564 -0.0197129 3.86951e-15)
(1.35577 -0.0191947 3.97888e-15)
(1.35514 -0.0186973 4.05764e-15)
(1.35451 -0.0182196 4.1823e-15)
(1.35388 -0.0177605 4.25444e-15)
(1.35326 -0.0173188 4.33167e-15)
(1.00048 -0.0111537 3.13678e-17)
(1.00572 -0.034282 -5.52071e-16)
(1.01725 -0.0560373 -8.37336e-16)
(1.03396 -0.0756782 -1.17789e-15)
(1.0546 -0.0926073 -7.25487e-16)
(1.07794 -0.106483 -1.1101e-15)
(1.1028 -0.117253 -7.58167e-16)
(1.12809 -0.125056 -5.66885e-16)
(1.15292 -0.130157 -3.7545e-16)
(1.17661 -0.132891 -2.29198e-16)
(1.19869 -0.133622 -2.20558e-17)
(1.21885 -0.132714 -4.63797e-16)
(1.23695 -0.130508 -2.35842e-16)
(1.25296 -0.12731 -1.61958e-17)
(1.26695 -0.123383 2.07555e-18)
(1.27901 -0.118952 1.46115e-16)
(1.28929 -0.114197 2.95742e-16)
(1.29795 -0.109266 2.62779e-16)
(1.30516 -0.104275 3.25765e-16)
(1.31108 -0.0993094 4.62874e-16)
(1.31588 -0.0944372 4.67262e-16)
(1.31968 -0.0897056 5.77484e-16)
(1.32263 -0.0851482 6.76838e-16)
(1.32483 -0.0807868 8.78869e-16)
(1.32641 -0.0766346 1.00013e-15)
(1.32744 -0.0726977 1.13118e-15)
(1.32801 -0.0689771 1.27792e-15)
(1.32801 -0.0689771 1.27792e-15)
)
;
    }
    procBoundary18to13
    {
        type            processor;
        value           uniform (1.27684 -0.0149281 5.91209e-15);
    }
    procBoundary18to19
    {
        type            processor;
        value           nonuniform List<vector> 4((1.21743 -0.013472 6.96151e-15) (1.18519 -0.0127052 7.56094e-15) (1.15136 -0.0119249 7.91854e-15) (1.11595 -0.011135 8.31701e-15));
    }
    procBoundary18to24
    {
        type            processor;
        value           nonuniform List<vector> 
68
(
(1.16293 -0.0312574 5.18708e-15)
(1.15871 -0.0297502 5.41215e-15)
(1.15463 -0.0283508 5.61405e-15)
(1.1507 -0.0270499 5.84343e-15)
(1.14689 -0.025839 5.48783e-15)
(1.14322 -0.0247106 5.78473e-15)
(1.13968 -0.0236576 5.9832e-15)
(1.13625 -0.0226738 6.18455e-15)
(1.13293 -0.0217534 6.35969e-15)
(1.12973 -0.0208912 6.56972e-15)
(1.12663 -0.0200825 6.25135e-15)
(1.12363 -0.019323 6.46374e-15)
(1.12072 -0.0186088 6.6854e-15)
(1.1179 -0.0179363 6.86023e-15)
(1.11517 -0.0173022 7.0345e-15)
(1.11253 -0.0167038 7.16977e-15)
(1.10996 -0.0161382 7.27938e-15)
(1.10747 -0.015603 7.48425e-15)
(1.10505 -0.0150959 7.57056e-15)
(1.1027 -0.0146151 7.72547e-15)
(1.10041 -0.0141585 7.24207e-15)
(1.09819 -0.0137245 7.52323e-15)
(1.09603 -0.0133116 7.66366e-15)
(1.09393 -0.0129182 7.82265e-15)
(1.09188 -0.0125432 7.95439e-15)
(1.08989 -0.0121852 8.08233e-15)
(1.08795 -0.0118433 8.18134e-15)
(1.08606 -0.0115163 8.29053e-15)
(1.08422 -0.0112034 8.38864e-15)
(1.08242 -0.0109036 8.48955e-15)
(1.08067 -0.0106163 8.60583e-15)
(1.00076 -0.0192147 3.41936e-17)
(1.01259 -0.0590966 1.9837e-16)
(1.03766 -0.0949457 1.98109e-16)
(1.07011 -0.12397 7.23121e-16)
(1.10561 -0.145226 1.21632e-15)
(1.14045 -0.158917 9.64172e-16)
(1.17199 -0.166012 1.40911e-15)
(1.19875 -0.167808 1.22805e-15)
(1.2202 -0.165625 1.04606e-15)
(1.23641 -0.16064 1.48707e-15)
(1.24783 -0.15382 1.37443e-15)
(1.25508 -0.145911 1.1925e-15)
(1.25884 -0.137467 1.57663e-15)
(1.25975 -0.128879 2.02316e-15)
(1.25841 -0.120416 1.2505e-15)
(1.25531 -0.112251 1.69786e-15)
(1.25088 -0.104491 2.11659e-15)
(1.24547 -0.0971937 1.85733e-15)
(1.23936 -0.090385 2.18611e-15)
(1.23278 -0.0840672 2.57698e-15)
(1.2259 -0.0782286 2.23309e-15)
(1.21886 -0.0728482 2.57339e-15)
(1.21176 -0.0678999 2.86444e-15)
(1.20469 -0.063355 3.18255e-15)
(1.19771 -0.059184 3.46903e-15)
(1.19086 -0.0553576 3.68324e-15)
(1.18417 -0.0518474 3.95218e-15)
(1.17766 -0.0486267 4.20039e-15)
(1.17135 -0.0456704 3.84115e-15)
(1.16524 -0.0429551 4.16562e-15)
(1.15935 -0.0404595 4.37548e-15)
(1.15366 -0.0381638 4.64147e-15)
(1.14819 -0.03605 4.91239e-15)
(1.14291 -0.0341017 5.16872e-15)
(1.13784 -0.032304 4.81525e-15)
(1.16293 -0.0312574 5.18708e-15)
(1.13295 -0.0306434 5.11583e-15)
)
;
    }
}


// ************************************************************************* //
