/*--------------------------------*- C++ -*----------------------------------*\
  =========                 |
  \\      /  F ield         | OpenFOAM: The Open Source CFD Toolbox
   \\    /   O peration     | Website:  https://openfoam.org
    \\  /    A nd           | Version:  7
     \\/     M anipulation  |
\*---------------------------------------------------------------------------*/
FoamFile
{
    version     2.0;
    format      ascii;
    class       volVectorField;
    location    "7.8";
    object      U;
}
// * * * * * * * * * * * * * * * * * * * * * * * * * * * * * * * * * * * * * //

dimensions      [0 1 -1 0 0 0 0];

internalField   nonuniform List<vector> 
16528
(
(1.00014 -0.000244853 6.01976e-17)
(1.00145 -0.000722192 6.37899e-16)
(1.00426 -0.00119827 1.88997e-15)
(1.00852 -0.00165953 3.0704e-15)
(1.0141 -0.00209531 1.10617e-15)
(1.02092 -0.00250064 2.23698e-15)
(1.02889 -0.00287138 -5.77314e-16)
(1.03791 -0.00320403 3.00188e-16)
(1.04785 -0.00349646 3.16887e-16)
(1.0586 -0.00374796 -1.85339e-15)
(1.07003 -0.00395903 -6.8041e-16)
(1.08202 -0.00413113 -4.44815e-16)
(1.09447 -0.00426645 -9.90519e-16)
(1.10727 -0.00436774 -3.79397e-15)
(1.12031 -0.00443812 -2.46382e-15)
(1.13352 -0.00448088 -3.43575e-15)
(1.14681 -0.00449934 -3.39618e-15)
(1.16013 -0.0044968 -3.60401e-15)
(1.17341 -0.00447635 -4.4654e-15)
(1.1866 -0.00444093 -5.11416e-15)
(1.19967 -0.00439319 -5.65668e-15)
(1.21258 -0.00433554 -4.68361e-15)
(1.2253 -0.00427011 -5.25534e-15)
(1.23783 -0.00419876 -1.05444e-14)
(1.25013 -0.00412312 -7.02052e-15)
(1.2622 -0.00404455 -6.02381e-15)
(1.27404 -0.00396422 -4.91212e-15)
(1.28564 -0.00388309 -5.77356e-15)
(1.297 -0.00380194 -5.08109e-15)
(1.30811 -0.00372142 -4.91991e-15)
(1.31899 -0.00364203 -5.21558e-15)
(1.32964 -0.00356415 -5.04242e-15)
(1.34006 -0.00348807 -5.30526e-15)
(1.35026 -0.00341402 -6.26801e-15)
(1.36024 -0.00334211 -5.66488e-15)
(1.37001 -0.00327245 -4.96598e-15)
(1.37958 -0.00320508 -5.81361e-15)
(1.38895 -0.00313998 -5.54019e-15)
(1.39813 -0.00307714 -5.59803e-15)
(1.40713 -0.00301651 -6.28881e-15)
(1.41596 -0.00295803 -5.76673e-15)
(1.42461 -0.0029016 -4.71614e-15)
(1.4331 -0.00284716 -5.13825e-15)
(1.44143 -0.00279461 -5.51332e-15)
(1.44961 -0.00274384 -5.90925e-15)
(1.45764 -0.00269478 -5.38213e-15)
(1.46552 -0.00264732 -6.2211e-15)
(1.47327 -0.00260138 -5.28241e-15)
(1.48088 -0.00255686 -6.38181e-15)
(1.48837 -0.00251368 -7.32309e-15)
(1.49573 -0.00247176 -6.84263e-15)
(1.50296 -0.00243103 -7.26746e-15)
(1.51008 -0.00239141 -5.98179e-15)
(1.51708 -0.00235284 -7.16653e-15)
(1.52397 -0.00231525 -6.70644e-15)
(1.53075 -0.00227859 -7.31679e-15)
(1.53742 -0.0022428 -6.35075e-15)
(1.54398 -0.00220783 -6.00889e-15)
(1.55044 -0.00217365 -6.46995e-15)
(1.55681 -0.0021402 -5.76148e-15)
(1.56307 -0.00210745 -5.68987e-15)
(1.56924 -0.00207537 -5.69206e-15)
(1.57532 -0.00204392 -5.49727e-15)
(1.5813 -0.00201307 -5.54999e-15)
(1.58719 -0.0019828 -6.23853e-15)
(1.59299 -0.00195309 -5.88219e-15)
(1.59871 -0.00192391 -5.49063e-15)
(1.60434 -0.00189524 -7.14334e-15)
(1.60989 -0.00186706 -5.2673e-15)
(1.61535 -0.00183936 -5.2978e-15)
(1.62073 -0.00181213 -5.27025e-15)
(1.62603 -0.00178533 -6.03548e-15)
(1.63126 -0.00175898 -4.51169e-15)
(1.6364 -0.00173305 -4.23445e-15)
(1.64147 -0.00170752 -4.09216e-15)
(1.64647 -0.0016824 -5.19084e-15)
(1.65139 -0.00165767 -5.03807e-15)
(1.65624 -0.00163333 -3.67571e-15)
(1.66102 -0.00160936 -3.92744e-15)
(1.66573 -0.00158576 -5.48995e-15)
(1.67036 -0.00156252 -4.56543e-15)
(1.67493 -0.00153963 -2.69313e-15)
(1.67944 -0.00151709 -2.98463e-15)
(1.68387 -0.00149489 -4.1844e-15)
(1.68824 -0.00147302 -4.53039e-15)
(1.69255 -0.00145148 -3.71771e-15)
(1.6968 -0.00143027 -4.04312e-15)
(1.70098 -0.00140938 -5.61332e-15)
(1.7051 -0.0013888 -5.15435e-15)
(1.70916 -0.00136853 -5.30228e-15)
(1.71316 -0.00134857 -4.19167e-15)
(1.7171 -0.00132891 -4.20259e-15)
(1.72099 -0.00130954 -5.68908e-15)
(1.72482 -0.00129046 -3.12841e-15)
(1.72859 -0.00127167 -3.71369e-15)
(1.73231 -0.00125316 -4.08623e-15)
(1.73597 -0.00123494 -4.50605e-15)
(1.73958 -0.00121698 -3.87208e-15)
(1.74314 -0.0011993 -4.35565e-15)
(1.74664 -0.00118188 -4.31112e-15)
(1.7501 -0.00116473 -3.10026e-15)
(1.7535 -0.00114784 -4.34572e-15)
(1.75686 -0.0011312 -3.554e-15)
(1.76016 -0.00111481 -3.17575e-15)
(1.76342 -0.00109867 -2.60655e-15)
(1.76663 -0.00108278 -2.77924e-15)
(1.7698 -0.00106712 -1.72322e-15)
(1.77291 -0.00105171 -1.99747e-15)
(1.77599 -0.00103653 -1.735e-15)
(1.77902 -0.00102158 -2.07632e-15)
(1.782 -0.00100685 -2.04128e-15)
(1.78494 -0.000992356 -2.92867e-15)
(1.78784 -0.000978079 -2.64384e-15)
(1.7907 -0.000964019 -2.22364e-15)
(1.79352 -0.000950175 -1.92814e-15)
(1.7963 -0.000936543 -1.60751e-15)
(1.79903 -0.00092312 -1.46178e-15)
(1.80173 -0.000909904 -1.24038e-15)
(1.80439 -0.000896892 -1.32594e-15)
(1.80701 -0.000884081 -8.34633e-16)
(1.80959 -0.00087147 -7.44999e-16)
(1.81214 -0.000859055 -2.3272e-15)
(1.81465 -0.000846835 -1.62145e-15)
(1.81712 -0.000834809 -1.53769e-15)
(1.81956 -0.000822974 -1.21906e-15)
(1.82197 -0.00081133 -1.01795e-15)
(1.82434 -0.000799875 -7.6547e-16)
(1.82668 -0.000788609 -3.31598e-16)
(1.82898 -0.000777531 -2.10326e-15)
(1.83125 -0.000766643 -8.24014e-16)
(1.83349 -0.000755944 9.54641e-17)
(1.8357 -0.000745437 7.26419e-16)
(1.83788 -0.000735124 -5.04735e-17)
(1.84003 -0.000725008 2.8397e-16)
(1.84215 -0.000715094 -5.86458e-16)
(1.84424 -0.000705386 -7.76557e-16)
(1.8463 -0.000695893 -4.93282e-16)
(1.84833 -0.000686622 -7.30289e-16)
(1.85034 -0.000677585 -1.70391e-16)
(1.85232 -0.000668795 -6.11554e-16)
(1.85427 -0.000660268 -2.91346e-16)
(1.8562 -0.000652022 3.94154e-16)
(1.85811 -0.000644082 1.03942e-15)
(1.85999 -0.000636473 3.95873e-16)
(1.86186 -0.000629231 6.33202e-16)
(1.8637 -0.000622392 3.22369e-16)
(1.86552 -0.000616004 2.92715e-16)
(1.86732 -0.000610123 -3.31282e-16)
(1.86911 -0.000604812 8.76217e-16)
(1.87088 -0.00060015 3.63537e-16)
(1.87264 -0.000596227 8.60119e-16)
(1.87439 -0.000593152 -3.98293e-16)
(1.87613 -0.000591052 5.06686e-17)
(1.87787 -0.000590076 -7.1405e-16)
(1.87961 -0.000590403 3.29972e-16)
(1.88134 -0.000592241 7.72079e-16)
(1.88309 -0.000595835 7.5681e-17)
(1.88485 -0.000601476 -4.76805e-16)
(1.88663 -0.000609505 9.79944e-16)
(1.88844 -0.000620321 6.89606e-16)
(1.89028 -0.000634398 6.1276e-16)
(1.89217 -0.000652288 3.8093e-16)
(1.89412 -0.000674643 4.63531e-16)
(1.89614 -0.000702227 6.21191e-16)
(1.89826 -0.000735934 9.29789e-16)
(1.90048 -0.000776814 8.09264e-16)
(1.90283 -0.000826094 6.84286e-16)
(1.90534 -0.00088521 6.97465e-16)
(1.90804 -0.000955834 1.17825e-16)
(1.91097 -0.00103992 2.07858e-16)
(1.91417 -0.00113972 -7.0433e-16)
(1.91769 -0.00125788 5.50207e-18)
(1.92158 -0.00139743 -2.08796e-16)
(1.92592 -0.00156187 4.63447e-16)
(1.93078 -0.00175521 -3.81534e-16)
(1.93626 -0.00198204 -3.76465e-18)
(1.94247 -0.00224753 -8.94327e-16)
(1.94951 -0.00255753 6.01142e-16)
(1.95754 -0.00291856 -1.2693e-16)
(1.96672 -0.00333778 -1.15558e-16)
(1.97722 -0.00382296 3.21397e-16)
(1.98926 -0.00438238 5.54955e-16)
(2.00306 -0.00502459 9.52383e-16)
(2.01889 -0.00575815 1.23986e-15)
(2.03702 -0.00659114 -2.34867e-17)
(2.05776 -0.00753052 2.85406e-16)
(2.08144 -0.00858132 7.61265e-16)
(2.10838 -0.00974552 4.20494e-16)
(2.13893 -0.0110207 -2.57947e-16)
(2.17341 -0.0123985 -8.85818e-17)
(2.2121 -0.0138631 4.82074e-16)
(2.25523 -0.0153892 3.78687e-16)
(2.30294 -0.016941 8.02306e-16)
(2.35526 -0.0184713 5.50435e-16)
(2.41203 -0.0199213 7.14508e-16)
(2.47294 -0.0212236 2.07163e-16)
(2.53744 -0.0223043 6.15282e-16)
(2.60478 -0.0230899 1.03581e-15)
(2.67399 -0.0235151 1.71967e-15)
(2.74391 -0.0235303 1.20611e-15)
(1.00014 -0.000568189 -6.38994e-16)
(1.00147 -0.00169332 1.32552e-15)
(1.0043 -0.00280669 4.92194e-15)
(1.00858 -0.00388364 6.02339e-15)
(1.01421 -0.00490282 2.72497e-15)
(1.02108 -0.00585089 4.79239e-15)
(1.02911 -0.00671746 -2.29131e-15)
(1.03819 -0.00749446 2.54971e-15)
(1.04819 -0.0081771 1.47425e-15)
(1.059 -0.00876381 -3.95758e-15)
(1.07049 -0.00925581 -2.83651e-15)
(1.08255 -0.00965657 -1.44557e-15)
(1.09505 -0.00997132 -5.37479e-15)
(1.1079 -0.0102065 -8.46807e-15)
(1.12099 -0.0103696 -6.12235e-15)
(1.13424 -0.0104681 -9.18087e-15)
(1.14758 -0.01051 -1.07093e-14)
(1.16093 -0.010503 -8.51864e-15)
(1.17425 -0.0104542 -1.06602e-14)
(1.18747 -0.0103706 -1.19116e-14)
(1.20056 -0.0102583 -9.73523e-15)
(1.2135 -0.010123 -1.17668e-14)
(1.22624 -0.00996964 -1.28605e-14)
(1.23878 -0.00980252 -1.07846e-14)
(1.2511 -0.00962543 -1.25493e-14)
(1.26319 -0.00944156 -1.3014e-14)
(1.27504 -0.00925361 -1.33421e-14)
(1.28665 -0.00906381 -1.43242e-14)
(1.29802 -0.008874 -1.0572e-14)
(1.30914 -0.00868565 -1.14281e-14)
(1.32003 -0.00849994 -1.23117e-14)
(1.33068 -0.00831775 -1.31554e-14)
(1.3411 -0.00813978 -1.34614e-14)
(1.3513 -0.0079665 -1.42645e-14)
(1.36128 -0.00779824 -1.06088e-14)
(1.37105 -0.0076352 -1.20726e-14)
(1.38061 -0.00747747 -1.29809e-14)
(1.38998 -0.00732505 -1.38219e-14)
(1.39916 -0.00717789 -1.34155e-14)
(1.40815 -0.00703588 -1.47163e-14)
(1.41696 -0.00689885 -1.10045e-14)
(1.4256 -0.00676664 -1.26166e-14)
(1.43407 -0.00663904 -1.3493e-14)
(1.44239 -0.00651584 -1.41558e-14)
(1.45055 -0.00639683 -1.4012e-14)
(1.45856 -0.00628178 -1.39796e-14)
(1.46642 -0.00617049 -1.38096e-14)
(1.47415 -0.00606273 -1.40026e-14)
(1.48173 -0.00595831 -1.42812e-14)
(1.48919 -0.00585703 -1.48356e-14)
(1.49652 -0.00575869 -1.48077e-14)
(1.50373 -0.00566314 -1.51495e-14)
(1.51081 -0.0055702 -1.44293e-14)
(1.51778 -0.00547971 -1.43733e-14)
(1.52463 -0.00539154 -1.40263e-14)
(1.53137 -0.00530554 -1.53842e-14)
(1.538 -0.0052216 -1.13224e-14)
(1.54453 -0.0051396 -1.20593e-14)
(1.55095 -0.00505944 -1.30446e-14)
(1.55727 -0.00498102 -1.33136e-14)
(1.5635 -0.00490425 -1.31398e-14)
(1.56962 -0.00482905 -1.37814e-14)
(1.57565 -0.00475535 -1.34256e-14)
(1.58159 -0.00468308 -1.35945e-14)
(1.58743 -0.00461218 -1.39394e-14)
(1.59319 -0.00454258 -1.41624e-14)
(1.59886 -0.00447425 -1.40972e-14)
(1.60444 -0.00440713 -1.52425e-14)
(1.60993 -0.00434118 -8.60868e-15)
(1.61535 -0.00427636 -1.01642e-14)
(1.62068 -0.00421263 -1.14658e-14)
(1.62593 -0.00414996 -1.25464e-14)
(1.6311 -0.00408832 -9.33269e-15)
(1.6362 -0.00402768 -1.0275e-14)
(1.64121 -0.00396802 -1.11373e-14)
(1.64616 -0.00390931 -1.21042e-14)
(1.65102 -0.00385153 -8.83872e-15)
(1.65582 -0.00379465 -9.3738e-15)
(1.66054 -0.00373867 -1.01099e-14)
(1.6652 -0.00368355 -1.11202e-14)
(1.66978 -0.00362929 -8.56618e-15)
(1.6743 -0.00357586 -6.42327e-15)
(1.67875 -0.00352325 -7.7447e-15)
(1.68313 -0.00347145 -8.939e-15)
(1.68745 -0.00342044 -9.77708e-15)
(1.6917 -0.00337021 -1.00972e-14)
(1.69589 -0.00332074 -1.02462e-14)
(1.70002 -0.00327203 -1.07101e-14)
(1.70409 -0.00322405 -1.10525e-14)
(1.70809 -0.00317681 -1.14072e-14)
(1.71204 -0.00313028 -1.13119e-14)
(1.71593 -0.00308446 -1.08789e-14)
(1.71976 -0.00303934 -1.24422e-14)
(1.72354 -0.0029949 -6.71365e-15)
(1.72726 -0.00295114 -8.37781e-15)
(1.73093 -0.00290804 -9.30447e-15)
(1.73454 -0.0028656 -1.04367e-14)
(1.7381 -0.0028238 -7.7539e-15)
(1.7416 -0.00278264 -8.72363e-15)
(1.74506 -0.00274211 -1.04969e-14)
(1.74846 -0.00270219 -7.26835e-15)
(1.75182 -0.00266288 -8.49396e-15)
(1.75512 -0.00262417 -6.16438e-15)
(1.75838 -0.00258605 -7.90614e-15)
(1.76159 -0.00254851 -5.29211e-15)
(1.76475 -0.00251155 -7.33712e-15)
(1.76787 -0.00247515 -4.74156e-15)
(1.77094 -0.0024393 -6.39413e-15)
(1.77396 -0.00240401 -4.19786e-15)
(1.77695 -0.00236925 -5.71011e-15)
(1.77989 -0.00233503 -3.58888e-15)
(1.78278 -0.00230133 -5.15583e-15)
(1.78564 -0.00226815 -3.62023e-15)
(1.78845 -0.00223548 -2.29014e-15)
(1.79122 -0.00220331 -4.10808e-15)
(1.79395 -0.00217163 -2.33282e-15)
(1.79665 -0.00214045 -4.35877e-15)
(1.7993 -0.00210975 -2.01248e-15)
(1.80192 -0.00207952 -4.20766e-15)
(1.8045 -0.00204976 -2.02282e-15)
(1.80704 -0.00202047 -3.11554e-15)
(1.80954 -0.00199164 -1.74008e-15)
(1.81201 -0.00196327 -3.6771e-15)
(1.81445 -0.00193534 -1.46317e-15)
(1.81685 -0.00190786 -3.19465e-15)
(1.81921 -0.00188082 -1.1019e-15)
(1.82154 -0.00185423 -2.92097e-15)
(1.82384 -0.00182808 -6.46993e-16)
(1.82611 -0.00180236 -3.11261e-15)
(1.82834 -0.00177709 -1.0575e-15)
(1.83054 -0.00175226 -1.98813e-15)
(1.83271 -0.00172787 -4.72668e-16)
(1.83486 -0.00170393 -2.52771e-15)
(1.83697 -0.00168046 -4.83582e-16)
(1.83905 -0.00165745 -2.42604e-15)
(1.84111 -0.00163492 -2.64516e-16)
(1.84313 -0.0016129 -2.05777e-15)
(1.84513 -0.00159139 -6.95392e-16)
(1.8471 -0.00157042 5.19248e-16)
(1.84905 -0.00155002 6.80785e-16)
(1.85097 -0.00153024 1.65706e-15)
(1.85287 -0.00151111 -8.65781e-16)
(1.85474 -0.00149269 9.84166e-16)
(1.85659 -0.00147504 -1.09678e-15)
(1.85842 -0.00145824 7.67681e-16)
(1.86023 -0.00144238 -1.22371e-15)
(1.86202 -0.00142757 -1.27103e-16)
(1.8638 -0.00141393 7.51449e-16)
(1.86555 -0.00140161 2.02069e-15)
(1.86729 -0.0013908 -4.97684e-16)
(1.86902 -0.00138171 1.35071e-15)
(1.87074 -0.00137458 -1.46961e-15)
(1.87245 -0.00136971 9.56019e-16)
(1.87416 -0.00136746 -6.03127e-16)
(1.87587 -0.00136822 6.42995e-16)
(1.87758 -0.00137249 1.13367e-15)
(1.87929 -0.00138084 2.11603e-15)
(1.88102 -0.00139393 -2.43403e-16)
(1.88277 -0.00141256 1.92248e-15)
(1.88455 -0.00143766 -3.42993e-16)
(1.88636 -0.00147032 1.53999e-15)
(1.88822 -0.00151184 -2.89571e-16)
(1.89014 -0.00156371 1.07781e-15)
(1.89213 -0.00162771 1.65648e-15)
(1.89421 -0.00170592 1.5146e-15)
(1.8964 -0.00180078 2.70581e-15)
(1.89871 -0.00191512 3.41872e-16)
(1.90119 -0.0020523 1.87811e-15)
(1.90385 -0.00221618 -5.61969e-17)
(1.90673 -0.0024113 1.83356e-15)
(1.90988 -0.00264293 -2.88771e-16)
(1.91335 -0.00291718 6.57164e-16)
(1.91719 -0.00324109 1.13694e-15)
(1.92147 -0.00362282 2.26069e-15)
(1.92627 -0.00407169 2.76671e-16)
(1.93168 -0.00459838 1.4969e-15)
(1.9378 -0.00521496 -1.51267e-16)
(1.94476 -0.00593507 1.62518e-15)
(1.9527 -0.0067739 -2.72917e-16)
(1.96177 -0.0077482 1.09114e-15)
(1.97215 -0.00887618 1.80587e-15)
(1.98406 -0.0101772 2.70469e-15)
(1.99773 -0.0116715 4.35515e-16)
(2.0134 -0.0133792 2.0097e-15)
(2.03137 -0.0153195 3.09247e-17)
(2.05195 -0.0175091 1.34783e-15)
(2.07545 -0.0199603 1.17108e-16)
(2.10222 -0.0226784 1.45038e-15)
(2.13261 -0.0256585 1.9181e-15)
(2.16693 -0.0288822 2.01617e-15)
(2.2055 -0.0323128 3.02371e-15)
(2.24855 -0.0358925 1.55375e-15)
(2.29624 -0.0395373 2.50148e-15)
(2.3486 -0.0431371 1.09077e-15)
(2.40551 -0.0465535 2.20667e-15)
(2.46664 -0.0496266 1.36062e-15)
(2.53147 -0.0521807 2.13142e-15)
(2.59924 -0.0540405 2.69304e-15)
(2.66895 -0.0550491 2.98634e-15)
(2.73943 -0.0550873 2.6569e-15)
(1.00015 -0.000928354 -2.28319e-16)
(1.0015 -0.0027836 2.78158e-15)
(1.00437 -0.00461125 2.94039e-15)
(1.00873 -0.00637593 5.00328e-16)
(1.01445 -0.00804666 -2.17771e-15)
(1.02144 -0.00960001 -2.90373e-16)
(1.02959 -0.0110179 -1.50608e-15)
(1.0388 -0.0122873 -5.15315e-16)
(1.04895 -0.0134006 -4.64076e-16)
(1.0599 -0.0143557 -2.05045e-15)
(1.07152 -0.0151549 -2.54954e-15)
(1.08371 -0.0158041 -2.04034e-15)
(1.09634 -0.0163123 -3.2982e-15)
(1.1093 -0.0166904 -4.73341e-15)
(1.12251 -0.0169505 -7.42563e-15)
(1.13586 -0.0171056 -7.48963e-15)
(1.14929 -0.0171686 -8.02372e-15)
(1.16272 -0.0171519 -9.98509e-15)
(1.17611 -0.0170678 -9.48362e-15)
(1.1894 -0.0169272 -9.75136e-15)
(1.20255 -0.0167403 -1.16217e-14)
(1.21554 -0.0165162 -1.0887e-14)
(1.22833 -0.016263 -1.12671e-14)
(1.24091 -0.0159878 -1.05703e-14)
(1.25327 -0.0156966 -1.07894e-14)
(1.26539 -0.0153945 -1.11703e-14)
(1.27726 -0.015086 -1.14014e-14)
(1.2889 -0.0147746 -1.24461e-14)
(1.30028 -0.0144632 -9.22977e-15)
(1.31142 -0.0141543 -9.89651e-15)
(1.32232 -0.0138497 -1.04246e-14)
(1.33298 -0.0135508 -1.11246e-14)
(1.3434 -0.0132588 -1.15411e-14)
(1.3536 -0.0129744 -1.20423e-14)
(1.36358 -0.0126982 -1.1335e-14)
(1.37334 -0.0124304 -1.11675e-14)
(1.38289 -0.0121712 -1.14624e-14)
(1.39224 -0.0119206 -1.16463e-14)
(1.40139 -0.0116785 -1.1966e-14)
(1.41036 -0.0114448 -1.26306e-14)
(1.41915 -0.0112192 -1.14894e-14)
(1.42775 -0.0110014 -1.13391e-14)
(1.43619 -0.0107911 -1.18529e-14)
(1.44447 -0.010588 -1.20034e-14)
(1.45258 -0.0103918 -1.17602e-14)
(1.46054 -0.0102019 -1.21078e-14)
(1.46835 -0.0100183 -1.22412e-14)
(1.47602 -0.0098404 -1.22581e-14)
(1.48355 -0.009668 -1.27216e-14)
(1.49094 -0.00950076 -1.26831e-14)
(1.4982 -0.00933837 -1.32532e-14)
(1.50534 -0.00918058 -1.30999e-14)
(1.51235 -0.00902709 -1.29928e-14)
(1.51924 -0.00887768 -1.28764e-14)
(1.52601 -0.00873211 -1.28144e-14)
(1.53267 -0.00859016 -1.36369e-14)
(1.53921 -0.00845164 -1.0701e-14)
(1.54565 -0.00831636 -1.09733e-14)
(1.55198 -0.00818415 -1.13004e-14)
(1.55821 -0.00805486 -1.15655e-14)
(1.56433 -0.00792835 -1.15598e-14)
(1.57036 -0.00780447 -1.16914e-14)
(1.57628 -0.00768312 -1.18028e-14)
(1.58212 -0.00756418 -1.21754e-14)
(1.58786 -0.00744754 -1.22556e-14)
(1.59351 -0.00733313 -1.24038e-14)
(1.59906 -0.00722084 -1.23549e-14)
(1.60454 -0.0071106 -1.27717e-14)
(1.60992 -0.00700235 -1.18431e-14)
(1.61522 -0.00689601 -1.05926e-14)
(1.62044 -0.00679152 -1.05935e-14)
(1.62557 -0.00668882 -9.82381e-15)
(1.63063 -0.00658788 -9.6127e-15)
(1.63561 -0.00648862 -8.87457e-15)
(1.64051 -0.00639102 -9.2533e-15)
(1.64533 -0.00629503 -8.77815e-15)
(1.65008 -0.00620061 -8.29123e-15)
(1.65476 -0.00610773 -7.6572e-15)
(1.65937 -0.00601634 -7.91832e-15)
(1.6639 -0.00592643 -7.66568e-15)
(1.66837 -0.00583795 -7.93485e-15)
(1.67276 -0.00575088 -5.53404e-15)
(1.67709 -0.00566519 -6.09781e-15)
(1.68136 -0.00558086 -6.79609e-15)
(1.68556 -0.00549785 -6.91342e-15)
(1.68969 -0.00541616 -7.71241e-15)
(1.69376 -0.00533574 -8.25221e-15)
(1.69777 -0.00525659 -8.73153e-15)
(1.70172 -0.00517867 -8.82227e-15)
(1.70561 -0.00510198 -9.22089e-15)
(1.70945 -0.00502648 -9.29519e-15)
(1.71322 -0.00495216 -9.45545e-15)
(1.71694 -0.004879 -9.92584e-15)
(1.7206 -0.00480698 -8.92083e-15)
(1.7242 -0.00473608 -8.17606e-15)
(1.72776 -0.00466629 -8.11525e-15)
(1.73125 -0.00459758 -7.82699e-15)
(1.7347 -0.00452995 -7.5727e-15)
(1.7381 -0.00446336 -6.88734e-15)
(1.74144 -0.00439782 -7.58661e-15)
(1.74473 -0.00433329 -6.62907e-15)
(1.74798 -0.00426977 -6.21378e-15)
(1.75118 -0.00420723 -5.31983e-15)
(1.75433 -0.00414567 -5.13144e-15)
(1.75743 -0.00408506 -4.23834e-15)
(1.76049 -0.0040254 -4.2437e-15)
(1.7635 -0.00396667 -3.2956e-15)
(1.76647 -0.00390885 -3.21961e-15)
(1.76939 -0.00385193 -2.39849e-15)
(1.77227 -0.0037959 -2.38086e-15)
(1.77511 -0.00374073 -1.77396e-15)
(1.77791 -0.00368643 -1.54781e-15)
(1.78066 -0.00363298 -1.21462e-15)
(1.78338 -0.00358036 -9.60078e-16)
(1.78605 -0.00352855 -8.0094e-16)
(1.78869 -0.00347756 -1.59237e-16)
(1.79129 -0.00342737 -1.16718e-16)
(1.79385 -0.00337797 3.52461e-16)
(1.79637 -0.00332934 2.36697e-16)
(1.79886 -0.00328147 7.62997e-16)
(1.80131 -0.00323437 7.79621e-16)
(1.80372 -0.00318801 8.6168e-16)
(1.8061 -0.00314239 8.3266e-16)
(1.80845 -0.0030975 1.36553e-15)
(1.81076 -0.00305334 1.40711e-15)
(1.81304 -0.0030099 1.77666e-15)
(1.81528 -0.00296718 1.73967e-15)
(1.8175 -0.00292517 2.09336e-15)
(1.81968 -0.00288387 1.67822e-15)
(1.82183 -0.00284329 2.37688e-15)
(1.82395 -0.00280342 2.54602e-15)
(1.82604 -0.00276427 2.83487e-15)
(1.82811 -0.00272586 2.60531e-15)
(1.83014 -0.00268818 2.82991e-15)
(1.83214 -0.00265126 2.62008e-15)
(1.83412 -0.00261512 2.98605e-15)
(1.83607 -0.00257979 3.11451e-15)
(1.838 -0.00254529 2.97225e-15)
(1.83989 -0.00251166 2.93354e-15)
(1.84177 -0.00247896 2.93971e-15)
(1.84362 -0.00244725 3.71539e-15)
(1.84544 -0.00241659 3.46199e-15)
(1.84725 -0.00238706 3.69864e-15)
(1.84903 -0.00235879 3.57514e-15)
(1.85079 -0.00233187 3.95979e-15)
(1.85253 -0.00230647 3.61858e-15)
(1.85425 -0.00228275 3.86262e-15)
(1.85595 -0.00226091 3.99475e-15)
(1.85764 -0.00224121 4.38205e-15)
(1.85932 -0.00222393 4.50744e-15)
(1.86098 -0.0022094 4.67689e-15)
(1.86264 -0.00219803 4.14282e-15)
(1.86428 -0.0021903 4.41604e-15)
(1.86592 -0.00218677 4.36466e-15)
(1.86757 -0.00218808 4.40681e-15)
(1.86921 -0.00219503 4.40517e-15)
(1.87086 -0.00220853 4.37399e-15)
(1.87253 -0.00222966 4.74598e-15)
(1.87421 -0.00225968 5.02816e-15)
(1.87593 -0.0023001 4.532e-15)
(1.87767 -0.00235268 4.83151e-15)
(1.87946 -0.00241947 4.65334e-15)
(1.88131 -0.00250291 4.49207e-15)
(1.88323 -0.00260585 4.64685e-15)
(1.88524 -0.00273163 4.63267e-15)
(1.88735 -0.00288417 5.1124e-15)
(1.88959 -0.00306805 4.97088e-15)
(1.89198 -0.00328864 5.35794e-15)
(1.89455 -0.0035522 5.10502e-15)
(1.89734 -0.00386602 4.98329e-15)
(1.90039 -0.00423859 5.03478e-15)
(1.90375 -0.00467976 4.96092e-15)
(1.90748 -0.00520095 4.86066e-15)
(1.91163 -0.00581528 4.87671e-15)
(1.91629 -0.00653788 4.84119e-15)
(1.92155 -0.00738602 5.08794e-15)
(1.9275 -0.00837931 4.74587e-15)
(1.93427 -0.0095399 4.84165e-15)
(1.942 -0.0108926 4.71335e-15)
(1.95084 -0.0124647 5.02777e-15)
(1.96097 -0.0142861 4.97395e-15)
(1.9726 -0.0163888 5.46884e-15)
(1.98596 -0.0188063 5.02551e-15)
(2.00131 -0.0215722 5.44953e-15)
(2.01893 -0.024719 5.22895e-15)
(2.03913 -0.0282756 5.27762e-15)
(2.06225 -0.0322642 5.17669e-15)
(2.08864 -0.0366959 4.88643e-15)
(2.11866 -0.0415658 5.02497e-15)
(2.15265 -0.0468469 5.33676e-15)
(2.19094 -0.0524831 5.74212e-15)
(2.23381 -0.0583824 5.60851e-15)
(2.28144 -0.0644096 5.84075e-15)
(2.3339 -0.0703845 5.6921e-15)
(2.3911 -0.0760773 5.67263e-15)
(2.45274 -0.0812207 5.64275e-15)
(2.51831 -0.0855158 5.73542e-15)
(2.58703 -0.0886624 5.69353e-15)
(2.65786 -0.0903879 5.80769e-15)
(2.72958 -0.0904821 5.69678e-15)
(1.00015 -0.00130711 -4.32048e-16)
(1.00154 -0.00392477 3.45496e-16)
(1.00449 -0.00649999 2.49878e-15)
(1.00897 -0.0089833 1.15538e-15)
(1.01484 -0.0113323 -2.49894e-15)
(1.022 -0.0135131 -3.8252e-16)
(1.03035 -0.0154997 -3.4226e-15)
(1.03977 -0.0172742 -9.25552e-16)
(1.05012 -0.0188264 -8.63529e-16)
(1.06129 -0.0201539 -3.56111e-15)
(1.07313 -0.0212607 -2.99207e-15)
(1.08552 -0.022156 -2.76301e-15)
(1.09835 -0.0228531 -4.73722e-15)
(1.11149 -0.0233678 -6.09303e-15)
(1.12486 -0.0237177 -5.47393e-15)
(1.13837 -0.0239213 -7.01581e-15)
(1.15194 -0.023997 -8.11346e-15)
(1.1655 -0.0239625 -7.73038e-15)
(1.179 -0.0238347 -9.10251e-15)
(1.19239 -0.0236292 -1.02907e-14)
(1.20563 -0.02336 -9.45949e-15)
(1.2187 -0.0230399 -1.06081e-14)
(1.23156 -0.02268 -1.12336e-14)
(1.24421 -0.0222901 -1.02858e-14)
(1.25662 -0.0218785 -1.12865e-14)
(1.26878 -0.0214522 -1.20059e-14)
(1.2807 -0.0210172 -1.22883e-14)
(1.29236 -0.0205785 -1.29591e-14)
(1.30377 -0.02014 -1.09939e-14)
(1.31493 -0.0197051 -1.15e-14)
(1.32583 -0.0192762 -1.17629e-14)
(1.3365 -0.0188553 -1.20171e-14)
(1.34692 -0.0184439 -1.22366e-14)
(1.35711 -0.0180431 -1.27312e-14)
(1.36707 -0.0176536 -1.11114e-14)
(1.37681 -0.0172757 -1.16909e-14)
(1.38633 -0.0169098 -1.2197e-14)
(1.39565 -0.0165558 -1.23892e-14)
(1.40476 -0.0162136 -1.28136e-14)
(1.41368 -0.015883 -1.33474e-14)
(1.42241 -0.0155636 -1.16724e-14)
(1.43096 -0.0152552 -1.21417e-14)
(1.43933 -0.0149572 -1.23022e-14)
(1.44753 -0.0146692 -1.26539e-14)
(1.45556 -0.0143907 -1.2904e-14)
(1.46344 -0.0141213 -1.28631e-14)
(1.47116 -0.0138606 -1.30295e-14)
(1.47873 -0.013608 -1.31617e-14)
(1.48615 -0.0133631 -1.34349e-14)
(1.49344 -0.0131256 -1.35795e-14)
(1.50059 -0.0128949 -1.36403e-14)
(1.5076 -0.0126708 -1.36523e-14)
(1.51449 -0.0124528 -1.35538e-14)
(1.52125 -0.0122407 -1.37764e-14)
(1.52788 -0.0120341 -1.37077e-14)
(1.5344 -0.0118327 -1.41312e-14)
(1.54081 -0.0116362 -1.19779e-14)
(1.5471 -0.0114444 -1.20908e-14)
(1.55328 -0.0112571 -1.23226e-14)
(1.55935 -0.0110741 -1.25311e-14)
(1.56532 -0.0108951 -1.24804e-14)
(1.57119 -0.0107199 -1.26206e-14)
(1.57695 -0.0105484 -1.2729e-14)
(1.58262 -0.0103805 -1.27089e-14)
(1.58819 -0.010216 -1.28016e-14)
(1.59367 -0.0100547 -1.29014e-14)
(1.59906 -0.00989652 -1.3073e-14)
(1.60436 -0.00974138 -1.33082e-14)
(1.60957 -0.00958917 -1.20506e-14)
(1.61469 -0.00943977 -9.56919e-15)
(1.61973 -0.00929311 -1.07672e-14)
(1.62469 -0.00914909 -8.34496e-15)
(1.62957 -0.00900764 -9.81297e-15)
(1.63436 -0.00886869 -7.32024e-15)
(1.63908 -0.00873216 -9.12509e-15)
(1.64373 -0.00859801 -6.94862e-15)
(1.64829 -0.00846616 -8.63066e-15)
(1.65279 -0.00833657 -6.25683e-15)
(1.65721 -0.00820917 -7.93884e-15)
(1.66156 -0.00808392 -5.76774e-15)
(1.66585 -0.00796077 -7.45073e-15)
(1.67006 -0.00783968 -6.30678e-15)
(1.67421 -0.00772061 -7.05408e-15)
(1.67829 -0.00760351 -7.45823e-15)
(1.68231 -0.00748834 -7.70301e-15)
(1.68627 -0.00737506 -8.45389e-15)
(1.69016 -0.00726365 -8.5862e-15)
(1.69399 -0.00715406 -8.955e-15)
(1.69776 -0.00704626 -9.12682e-15)
(1.70147 -0.00694021 -9.29213e-15)
(1.70513 -0.0068359 -9.46724e-15)
(1.70873 -0.00673327 -9.65488e-15)
(1.71227 -0.00663231 -1.02372e-14)
(1.71576 -0.00653299 -9.33317e-15)
(1.71919 -0.00643527 -6.79814e-15)
(1.72257 -0.00633913 -8.09332e-15)
(1.7259 -0.00624454 -6.07116e-15)
(1.72918 -0.00615148 -7.63066e-15)
(1.7324 -0.00605991 -5.34e-15)
(1.73558 -0.00596982 -7.29862e-15)
(1.73871 -0.00588117 -5.49073e-15)
(1.74179 -0.00579395 -4.18711e-15)
(1.74483 -0.00570812 -3.02078e-15)
(1.74782 -0.00562367 -2.20229e-15)
(1.75076 -0.00554057 -1.91963e-15)
(1.75366 -0.0054588 -1.29507e-15)
(1.75652 -0.00537834 -7.31376e-16)
(1.75933 -0.00529917 -2.7316e-16)
(1.7621 -0.00522126 1.83931e-16)
(1.76483 -0.00514459 5.80519e-16)
(1.76751 -0.00506914 9.8273e-16)
(1.77016 -0.0049949 1.69061e-15)
(1.77277 -0.00492185 6.64483e-16)
(1.77534 -0.00484996 1.3916e-15)
(1.77787 -0.00477921 1.91291e-15)
(1.78036 -0.0047096 2.44259e-15)
(1.78282 -0.0046411 2.71956e-15)
(1.78524 -0.00457369 3.18298e-15)
(1.78762 -0.00450736 3.38405e-15)
(1.78997 -0.0044421 3.70952e-15)
(1.79229 -0.00437789 3.77253e-15)
(1.79457 -0.00431472 4.03815e-15)
(1.79682 -0.00425257 4.3625e-15)
(1.79903 -0.00419144 4.53607e-15)
(1.80121 -0.00413131 4.78279e-15)
(1.80336 -0.00407218 4.86413e-15)
(1.80548 -0.00401403 4.95828e-15)
(1.80757 -0.00395688 5.08711e-15)
(1.80963 -0.00390071 5.14829e-15)
(1.81166 -0.00384551 5.48505e-15)
(1.81366 -0.00379131 5.66029e-15)
(1.81563 -0.0037381 5.83449e-15)
(1.81758 -0.00368589 5.80158e-15)
(1.81949 -0.00363471 6.17124e-15)
(1.82138 -0.00358456 6.06612e-15)
(1.82325 -0.00353548 6.31829e-15)
(1.82508 -0.0034875 6.90573e-15)
(1.8269 -0.00344067 5.65045e-15)
(1.82868 -0.00339503 5.84581e-15)
(1.83045 -0.00335067 6.14861e-15)
(1.83219 -0.00330764 6.56404e-15)
(1.83391 -0.00326606 6.79245e-15)
(1.83561 -0.00322604 7.01214e-15)
(1.83728 -0.00318771 6.93218e-15)
(1.83894 -0.00315125 7.11187e-15)
(1.84058 -0.00311684 7.14551e-15)
(1.8422 -0.00308473 7.36233e-15)
(1.84381 -0.0030552 7.38895e-15)
(1.8454 -0.00302857 7.59673e-15)
(1.84697 -0.00300524 7.74918e-15)
(1.84854 -0.00298567 7.73646e-15)
(1.8501 -0.0029704 7.67984e-15)
(1.85165 -0.00296009 7.9519e-15)
(1.85319 -0.00295549 8.05132e-15)
(1.85474 -0.00295751 8.00899e-15)
(1.85629 -0.0029672 7.75477e-15)
(1.85785 -0.00298581 7.89858e-15)
(1.85942 -0.00301482 8.04293e-15)
(1.86101 -0.00305595 8.2231e-15)
(1.86262 -0.00311125 8.25389e-15)
(1.86427 -0.00318311 8.25333e-15)
(1.86596 -0.00327435 8.33514e-15)
(1.86771 -0.00338828 7.25828e-15)
(1.86952 -0.0035288 7.64416e-15)
(1.87142 -0.00370046 7.89098e-15)
(1.87342 -0.00390861 8.02785e-15)
(1.87554 -0.00415951 8.30444e-15)
(1.87781 -0.0044605 8.4024e-15)
(1.88025 -0.00482013 8.52093e-15)
(1.8829 -0.00524839 8.63713e-15)
(1.88581 -0.0057569 8.57487e-15)
(1.88901 -0.00635918 8.55832e-15)
(1.89256 -0.00707086 8.24765e-15)
(1.89652 -0.00791002 8.34623e-15)
(1.90097 -0.00889746 8.38117e-15)
(1.906 -0.010057 8.68643e-15)
(1.9117 -0.0114158 8.42131e-15)
(1.91819 -0.0130045 8.55465e-15)
(1.9256 -0.0148576 8.26993e-15)
(1.9341 -0.0170135 8.41308e-15)
(1.94385 -0.0195139 8.70452e-15)
(1.95506 -0.0224043 8.53672e-15)
(1.96796 -0.0257322 8.58263e-15)
(1.98281 -0.0295464 8.64225e-15)
(1.99989 -0.0338947 8.60263e-15)
(2.01952 -0.0388206 8.66453e-15)
(2.04205 -0.0443594 8.73261e-15)
(2.06785 -0.050532 7.77395e-15)
(2.09729 -0.0573382 7.97158e-15)
(2.13075 -0.0647477 8.26544e-15)
(2.1686 -0.0726891 8.3123e-15)
(2.21116 -0.0810412 8.38395e-15)
(2.25867 -0.0896189 8.4286e-15)
(2.31125 -0.0981719 8.429e-15)
(2.36888 -0.106371 8.4268e-15)
(2.43129 -0.113832 8.41743e-15)
(2.49799 -0.120109 8.31465e-15)
(2.56819 -0.124755 8.08059e-15)
(2.6408 -0.12735 7.96808e-15)
(2.71449 -0.127563 7.87338e-15)
(1.00016 -0.00170623 -3.4384e-16)
(1.00159 -0.00512507 -2.03857e-16)
(1.00466 -0.00848603 -1.47813e-15)
(1.0093 -0.0117228 -1.3088e-15)
(1.01537 -0.0147795 -2.12375e-15)
(1.02278 -0.0176111 -2.50044e-15)
(1.0314 -0.0201836 -3.22361e-15)
(1.04111 -0.0224739 -2.82742e-15)
(1.05176 -0.02447 -2.45275e-15)
(1.06323 -0.0261699 -2.93528e-15)
(1.07536 -0.0275803 -3.03705e-15)
(1.08803 -0.0287144 -3.39688e-15)
(1.10112 -0.0295907 -3.73761e-15)
(1.11452 -0.0302309 -4.2648e-15)
(1.12812 -0.0306587 -3.32545e-15)
(1.14184 -0.0308985 -4.44804e-15)
(1.1556 -0.0309746 -5.07687e-15)
(1.16933 -0.0309102 -5.86911e-15)
(1.18299 -0.0307273 -6.34177e-15)
(1.19652 -0.030446 -6.79042e-15)
(1.20988 -0.0300844 -7.32671e-15)
(1.22306 -0.0296587 -7.5607e-15)
(1.23601 -0.0291831 -7.94172e-15)
(1.24874 -0.0286699 -9.08464e-15)
(1.26121 -0.0281297 -8.75612e-15)
(1.27344 -0.0275714 -8.83505e-15)
(1.2854 -0.0270025 -8.95896e-15)
(1.29709 -0.0264292 -9.27334e-15)
(1.30852 -0.0258565 -8.80232e-15)
(1.31969 -0.0252885 -8.74025e-15)
(1.3306 -0.0247284 -8.73479e-15)
(1.34126 -0.0241787 -8.73486e-15)
(1.35166 -0.0236411 -8.78828e-15)
(1.36182 -0.0231171 -9.01229e-15)
(1.37175 -0.0226075 -8.97098e-15)
(1.38144 -0.0221129 -8.68824e-15)
(1.3909 -0.0216336 -8.82494e-15)
(1.40015 -0.0211695 -9.03644e-15)
(1.40919 -0.0207207 -9.13006e-15)
(1.41802 -0.0202867 -9.40775e-15)
(1.42665 -0.0198672 -9.06978e-15)
(1.43509 -0.0194618 -9.05019e-15)
(1.44335 -0.0190699 -9.17986e-15)
(1.45143 -0.018691 -9.2844e-15)
(1.45933 -0.0183245 -9.19174e-15)
(1.46707 -0.0179698 -9.32379e-15)
(1.47464 -0.0176265 -9.36229e-15)
(1.48206 -0.0172938 -9.54592e-15)
(1.48932 -0.0169713 -9.56024e-15)
(1.49644 -0.0166585 -9.75678e-15)
(1.50341 -0.0163547 -9.75778e-15)
(1.51024 -0.0160597 -9.73632e-15)
(1.51694 -0.0157729 -9.97875e-15)
(1.5235 -0.0154939 -9.9788e-15)
(1.52994 -0.0152222 -9.84777e-15)
(1.53626 -0.0149576 -1.03044e-14)
(1.54245 -0.0146997 -8.65171e-15)
(1.54853 -0.0144481 -8.69656e-15)
(1.5545 -0.0142026 -8.87655e-15)