0.196868 	0.467027 	-1.99081e-18 	0.553539
0.199422 	0.473085 	-1.24496e-18 	0.551381
0.201397 	0.477771 	-8.97388e-19 	0.549562
0.204769 	0.485771 	-1.30994e-18 	0.547798
0.208372 	0.494318 	-1.27296e-18 	0.546419
0.210348 	0.499004 	-1.04187e-18 	0.54532
