/*--------------------------------*- C++ -*----------------------------------*\
  =========                 |
  \\      /  F ield         | OpenFOAM: The Open Source CFD Toolbox
   \\    /   O peration     | Website:  https://openfoam.org
    \\  /    A nd           | Version:  7
     \\/     M anipulation  |
\*---------------------------------------------------------------------------*/
FoamFile
{
    version     2.0;
    format      ascii;
    class       volVectorField;
    location    "41";
    object      U;
}
// * * * * * * * * * * * * * * * * * * * * * * * * * * * * * * * * * * * * * //

dimensions      [0 1 -1 0 0 0 0];

internalField   nonuniform List<vector> 
12400
(
(-0.000691925 0.000872757 -4.71604e-21)
(-0.00393123 0.00219011 -1.75703e-20)
(-0.0105419 0.00316957 3.2564e-21)
(-0.019376 0.00386863 1.25609e-20)
(-0.029814 0.0043313 5.44199e-21)
(-0.0414109 0.00459834 -1.34712e-20)
(-0.0537423 0.00470899 -4.34354e-21)
(-0.0664491 0.00469907 -1.72844e-21)
(-0.0792439 0.00459959 -1.61084e-20)
(-0.0919021 0.00443574 -3.14017e-21)
(-0.10425 0.00422616 -1.21287e-20)
(-0.116152 0.00398272 2.00489e-21)
(-0.127491 0.00371103 -6.38451e-21)
(-0.138157 0.0034118 1.1597e-20)
(-0.148032 0.00308342 -1.50684e-20)
(-0.156986 0.00272597 -1.62148e-20)
(-0.164894 0.00234854 -4.71893e-21)
(-0.171702 0.00198235 2.58946e-20)
(-0.177375 0.00167252 -2.21785e-20)
(-0.182009 0.00150972 3.2109e-21)
(-0.000815692 0.00260634 6.92887e-21)
(-0.00420601 0.00654658 1.13073e-20)
(-0.0108626 0.00948241 3.69252e-21)
(-0.0196659 0.0115826 1.09497e-20)
(-0.030011 0.0129768 -2.61624e-21)
(-0.0414614 0.0137858 1.68231e-20)
(-0.0535997 0.0141262 6.35849e-21)
(-0.0660708 0.0141052 1.50051e-20)
(-0.0785895 0.0138155 -8.70737e-21)
(-0.0909307 0.013333 2.12714e-20)
(-0.102919 0.012714 6.91817e-20)
(-0.114416 0.0119944 -1.17189e-20)
(-0.125301 0.0111913 1.74362e-20)
(-0.135458 0.0103066 -1.06673e-20)
(-0.144763 0.00933477 2.79761e-20)
(-0.153079 0.00827385 -3.37231e-21)
(-0.16026 0.00714637 1.5708e-20)
(-0.166234 0.00604179 -9.65478e-20)
(-0.170926 0.00510016 9.64522e-21)
(-0.174155 0.00454708 -1.36197e-20)
(-0.00105841 0.00427903 2.23408e-20)
(-0.00474596 0.0107617 2.35136e-20)
(-0.0114938 0.0156046 -5.34783e-21)
(-0.0202374 0.0190777 -1.19283e-20)
(-0.0303993 0.0213896 -4.72066e-21)
(-0.0415599 0.0227361 1.70649e-20)
(-0.0533148 0.023308 2.54942e-20)
(-0.065317 0.0232807 -5.71185e-20)
(-0.0772848 0.0228075 1.65743e-20)
(-0.0889929 0.0220139 -2.11187e-20)
(-0.100262 0.0209938 -3.66466e-20)
(-0.110947 0.0198077 -7.19928e-21)
(-0.120919 0.0184847 -1.1242e-20)
(-0.130053 0.0170283 -2.58334e-20)
(-0.138213 0.0154277 3.05641e-20)
(-0.145243 0.013675 -2.92353e-20)
(-0.150961 0.0117951 3.77589e-21)
(-0.155258 0.00992425 9.47875e-20)
(-0.158031 0.00832197 -6.70764e-20)
(-0.158407 0.00719138 5.74647e-20)
(-0.00141054 0.00585357 -1.65278e-20)
(-0.00553196 0.0147478 3.12865e-20)
(-0.0124157 0.0214168 -4.53034e-20)
(-0.0210741 0.0262152 2.11977e-20)
(-0.0309684 0.0294204 -1.16446e-19)
(-0.0417021 0.0312958 -7.21423e-20)
(-0.0528893 0.0321002 4.58738e-20)
(-0.0641943 0.0320733 1.12628e-19)
(-0.0753404 0.0314263 -4.6799e-20)
(-0.0861012 0.0303331 -3.2442e-20)
(-0.0962917 0.0289247 -4.6797e-20)
(-0.105755 0.0272868 9.62435e-20)
(-0.114351 0.025462 1.2001e-19)
(-0.121937 0.0234562 -9.53175e-20)
(-0.128358 0.0212519 -7.80211e-20)
(-0.133435 0.0188308 2.92768e-20)
(-0.136938 0.0162041 -6.52756e-20)
(-0.138679 0.0135288 -3.14355e-21)
(-0.138678 0.0112468 1.10458e-19)
(-0.134651 0.00919852 3.70957e-20)
(-0.00185867 0.00729752 6.54775e-20)
(-0.00653694 0.0184273 2.08639e-20)
(-0.0135997 0.026811 7.22259e-20)
(-0.0221524 0.0328673 -2.20514e-20)
(-0.0317022 0.0369292 1.13601e-19)
(-0.0418808 0.0393181 6.94419e-20)
(-0.0523242 0.0403532 -8.42399e-20)
(-0.0627108 0.0403334 -1.09366e-19)
(-0.0727692 0.0395235 1.01284e-19)
(-0.082271 0.0381441 -2.88339e-20)
(-0.091022 0.0363629 4.32004e-20)
(-0.0988508 0.0342918 -1.72153e-19)
(-0.105596 0.0319881 6.08126e-20)
(-0.111092 0.029462 2.26911e-20)
(-0.115155 0.0266897 1.29299e-20)
(-0.117581 0.023639 4.84746e-20)
(-0.118077 0.0202906 1.27606e-19)
(-0.116294 0.016769 3.35988e-21)
(-0.112791 0.0138424 -3.88833e-20)
(-0.102591 0.0103868 3.86902e-20)
(-0.00238651 0.0085848 4.53189e-20)
(-0.0077277 0.0217357 2.25597e-20)
(-0.0150103 0.0316943 -1.17604e-19)
(-0.0234419 0.0389207 -7.06352e-20)
(-0.0325794 0.0437886 -2.80145e-20)
(-0.0420848 0.0466663 9.42749e-20)
(-0.0516179 0.0479248 1.12843e-19)
(-0.0608725 0.0479154 -1.39714e-20)
(-0.0695824 0.0469526 -2.70969e-20)
(-0.0775155 0.0453005 -2.37983e-20)
(-0.0844646 0.0431629 -7.74177e-20)
(-0.090237 0.0406782 1.77447e-19)
(-0.0946432 0.0379211 -9.91557e-22)
(-0.0974831 0.0349086 -7.02659e-20)
(-0.0985328 0.0316129 -6.08727e-21)
(-0.0975516 0.0279879 1.44306e-20)
(-0.0942053 0.023975 4.56346e-20)
(-0.0877428 0.0195663 -1.69557e-19)
(-0.0801439 0.0160971 7.79393e-20)
(-0.0616588 0.0108456 -6.62629e-20)
(-0.0029761 0.00969677 -7.56657e-20)
(-0.009067 0.0246237 4.40621e-20)
(-0.0166069 0.0359922 5.2911e-20)
(-0.024907 0.0442799 4.57516e-20)
(-0.0335732 0.0498865 9.95733e-20)
(-0.042297 0.0532159 1.45763e-20)
(-0.0507628 0.0546817 -1.43411e-20)
(-0.0586791 0.0546804 4.38435e-20)
(-0.065784 0.0535707 -6.62188e-20)
(-0.0718387 0.0516574 -6.6918e-21)
(-0.0766178 0.0491783 3.27712e-20)
(-0.0799001 0.0462991 -1.50714e-19)
(-0.081457 0.0431138 -5.04752e-20)
(-0.0810412 0.0396505 4.74285e-20)
(-0.0783679 0.0358818 -1.14989e-19)
(-0.0731431 0.0317521 1.28844e-19)
(-0.0650695 0.0271754 1.60418e-20)
(-0.0525084 0.0219129 -1.94547e-20)
(-0.0401614 0.0178687 -2.12651e-19)
(-0.0112479 0.0113334 1.24778e-19)
(-0.00360911 0.0106228 -2.99342e-20)
(-0.0105159 0.0270589 -3.27201e-20)
(-0.0183458 0.0396501 -1.55916e-19)
(-0.026507 0.0488696 -6.97601e-20)
(-0.0346499 0.0551294 -2.39444e-19)
(-0.0424924 0.0588582 -2.03956e-20)
(-0.0497411 0.0605032 -1.20937e-19)
(-0.0561176 0.0604986 -8.72074e-20)
(-0.0613617 0.059242 1.93972e-19)
(-0.0652234 0.0570744 3.32624e-20)
(-0.067453 0.054266 8.41648e-20)
(-0.0677906 0.0510093 1.06921e-19)
(-0.0659551 0.0474194 -3.66313e-20)
(-0.0616352 0.0435403 -1.23075e-19)
(-0.0544615 0.0393519 1.12105e-19)
(-0.0440368 0.0347956 1.06927e-19)
(-0.0302635 0.0297793 -1.08264e-19)
(-0.0100474 0.0240015 1.53029e-19)
(0.00829333 0.0190292 2.40335e-19)
(0.0492886 0.0116646 6.74422e-20)
(-0.00426811 0.0113603 7.95768e-20)
(-0.012036 0.0290262 9.69566e-20)
(-0.0201816 0.0426344 4.77449e-20)
(-0.0281969 0.052636 1.19957e-19)
(-0.0357681 0.0594437 5.57277e-20)
(-0.0426338 0.0635021 1.49171e-19)
(-0.0485186 0.0652836 1.30434e-19)
(-0.0531533 0.0652532 -5.21732e-20)
(-0.0562749 0.0638414 -8.48294e-20)
(-0.0576162 0.0614212 1.53159e-19)
(-0.0568942 0.0582921 -9.75918e-20)
(-0.0537976 0.0546728 7.2414e-20)
(-0.0479759 0.0507013 9.93394e-20)
(-0.0390325 0.0464412 1.11085e-19)
(-0.0264912 0.0418886 -3.2885e-19)
(-0.00976714 0.0369999 -1.57574e-19)
(0.0109212 0.0316701 -4.31407e-20)
(0.0405251 0.0256616 1.84103e-19)
(0.0656453 0.020041 -4.03652e-19)
(0.123313 0.0118375 -1.53572e-19)
(-0.00493771 0.0119144 1.18252e-19)
(-0.0135912 0.0305267 -1.4414e-19)
(-0.0220687 0.0449324 -1.52506e-19)
(-0.0299271 0.0555476 -1.59436e-19)
(-0.0368761 0.062778 -9.96804e-20)
(-0.0426673 0.0670772 -2.39671e-20)
(-0.0470368 0.0689362 -1.6523e-19)
(-0.0497186 0.0688448 2.07675e-19)
(-0.0504398 0.0672604 6.07179e-20)
(-0.0489069 0.0645836 6.00489e-20)
(-0.0447913 0.0611406 -2.45396e-19)
(-0.0377146 0.0571751 3.81695e-20)
(-0.0272348 0.0528488 -3.08441e-20)
(-0.0128439 0.0482486 -1.06109e-20)
(0.00606314 0.0433963 -1.23947e-19)
(0.0303571 0.0382838 1.62944e-19)
(0.059203 0.0327466 -3.5944e-20)
(0.100806 0.0267458 -4.12453e-19)
(0.132658 0.0211305 5.84518e-20)
(0.212691 0.0127462 2.87535e-19)
(-0.00560545 0.0122967 8.43605e-20)
(-0.0151493 0.0315765 -2.75992e-20)
(-0.023962 0.0465506 1.60047e-19)
(-0.0316417 0.0575943 8.07675e-20)
(-0.0379084 0.065103 1.1676e-19)
(-0.0425159 0.0695355 1.0968e-20)
(-0.0452034 0.0713968 2.24509e-19)
(-0.045699 0.0711963 -2.03941e-19)
(-0.0437097 0.0694138 -9.3815e-20)
(-0.0389027 0.0664735 -3.8459e-20)
(-0.0308871 0.0627255 2.4427e-19)
(-0.0191963 0.0584376 -4.33656e-20)
(-0.00327119 0.0537973 3.7526e-20)
(0.0175391 0.0489189 1.56023e-19)
(0.043978 0.0438553 1.51004e-19)
(0.0773582 0.0386797 -2.65876e-19)
(0.115651 0.0329967 -1.49099e-19)
(0.172274 0.0276984 8.09912e-20)
(0.210605 0.0218132 2.59586e-19)
(0.318733 0.0152225 -3.44516e-20)
(-0.00626223 0.012524 -1.11685e-19)
(-0.0166823 0.0322033 -6.26178e-20)
(-0.0258157 0.0475121 -8.74947e-20)
(-0.0332771 0.0587863 -8.5334e-20)
(-0.0387808 0.0664123 9.80374e-20)
(-0.0420717 0.0708537 -1.91269e-19)
(-0.0428803 0.0726277 1.89697e-19)
(-0.0409167 0.0722597 1.31052e-20)
(-0.0358531 0.0702487 -1.64396e-19)
(-0.0272993 0.0670396 -3.78827e-20)
(-0.0147798 0.063005 -1.55276e-19)
(0.00228667 0.0584379 7.09111e-20)
(0.0246061 0.0535546 -4.94032e-20)
(0.0530052 0.0485045 -3.00976e-19)
(0.0883528 0.0433705 1.41946e-20)
(0.132568 0.0384182 9.56738e-20)
(0.181774 0.0325574 2.12211e-19)
(0.256247 0.0291524 3.73677e-19)
(0.30102 0.0221572 6.40704e-20)
(0.441301 0.0197347 -4.04181e-19)
(-0.00690238 0.0126162 -1.54544e-19)
(-0.0181657 0.0324434 -2.24078e-20)
(-0.0275822 0.047853 3.12453e-19)
(-0.0347577 0.0591509 -1.41411e-19)
(-0.0393851 0.0667209 7.26047e-21)
(-0.0411869 0.0710343 -1.38211e-19)
(-0.0398709 0.0726213 -1.33629e-19)
(-0.0351128 0.0720222 2.17595e-20)
(-0.02653 0.0697537 7.19194e-20)
(-0.0136509 0.0662807 2.69107e-19)
(0.00411315 0.0619996 -8.59459e-20)
(0.0274892 0.0572319 -3.71569e-19)
(0.0573586 0.0522298 2.66244e-19)
(0.09475 0.047188 2.32721e-19)
(0.140614 0.0422084 1.52852e-19)
(0.197528 0.0379372 3.87036e-19)
(0.259394 0.0319108 -1.26747e-19)
(0.353326 0.0317181 -5.86893e-19)
(0.405539 0.0230769 9.5186e-20)
(0.577559 0.0265818 1.11743e-19)
(-0.007523 0.0125947 -8.04241e-20)
(-0.0195772 0.0323371 1.0732e-19)
(-0.029209 0.0476184 -1.08839e-19)
(-0.0359917 0.0587301 1.7377e-19)
(-0.0395816 0.0660642 -2.01244e-19)
(-0.0396643 0.0701072 1.8757e-19)
(-0.0359069 0.0714043 3.75545e-20)
(-0.02793 0.0705132 -2.04125e-19)
(-0.0152702 0.0679696 1.72125e-19)
(0.00265578 0.0642607 -1.87643e-19)
(0.0265824 0.059811 2.347e-19)
(0.0574132 0.054978 1.27385e-19)
(0.0962216 0.0500602 1.03323e-19)
(0.144234 0.045314 -1.58531e-19)
(0.202404 0.0408331 -2.63465e-20)
(0.273713 0.0378338 -2.04624e-19)
(0.350215 0.0320311 1.43647e-19)
(0.462725 0.035803 6.55918e-21)
(0.524881 0.0261427 -2.54114e-19)
(0.721181 0.0360658 1.10186e-19)
(-0.00812292 0.0124796 1.8153e-20)
(-0.0208939 0.0319246 6.88324e-20)
(-0.0306341 0.0468572 1.51261e-20)
(-0.0368657 0.0575765 5.78698e-20)
(-0.0391925 0.0644967 1.38852e-19)
(-0.0372476 0.068129 1.31144e-19)
(-0.0306364 0.0690404 9.37371e-20)
(-0.0188978 0.0678109 1.18339e-19)
(-0.00145679 0.0649998 -2.40782e-19)
(0.0224159 0.0611225 -3.54295e-20)
(0.0536324 0.0566403 -3.86821e-19)
(0.0932911 0.0519584 -1.22035e-19)
(0.142643 0.0474345 -1.40046e-19)
(0.203035 0.043404 2.30426e-19)
(0.275297 0.0399295 -3.63252e-19)
(0.362113 0.0387749 7.04896e-20)
(0.454899 0.0342663 2.8188e-20)
(0.581954 0.0416415 3.62566e-19)
(0.657032 0.0328267 -1.78893e-19)
(0.862827 0.0482355 1.36743e-19)
(-0.00870104 0.012288 2.40996e-19)
(-0.0220882 0.0312419 8.75766e-20)
(-0.0317818 0.0456188 1.60695e-19)
(-0.0372384 0.0557497 1.46814e-19)
(-0.0379954 0.0620884 2.5034e-20)
(-0.0336144 0.065183 -3.18569e-19)
(-0.0236156 0.0656329 -2.35743e-19)
(-0.00742524 0.0640479 -2.14879e-19)
(0.0156774 0.061019 2.03694e-19)
(0.0465998 0.0571007 1.23596e-19)
(0.0864511 0.0528033 4.41175e-19)
(0.136511 0.0485939 -3.62862e-19)
(0.198131 0.0449004 1.35836e-19)
(0.27258 0.0421411 -2.59972e-19)
(0.360326 0.0403665 1.94637e-19)
(0.462723 0.041467 -6.98526e-20)
(0.571865 0.039813 9.44383e-20)
(0.706906 0.0495093 -3.33192e-19)
(0.795684 0.0437049 2.76924e-19)
(0.992103 0.0623783 1.20965e-19)
(-0.00925442 0.0120323 -3.33319e-19)
(-0.023124 0.0303178 1.37461e-19)
(-0.032557 0.0439484 -2.18521e-19)
(-0.0369353 0.0533119 -2.07043e-19)
(-0.0357166 0.0589223 7.57771e-20)
(-0.0283711 0.0613793 3.81227e-19)
(-0.0143064 0.0613264 -2.7946e-19)
(0.00719629 0.0594147 3.55655e-20)
(0.0370351 0.0562797 -8.05143e-20)
(0.0763157 0.0525286 -7.95017e-20)
(0.126332 0.0487359 2.07076e-19)
(0.188468 0.0454419 4.58531e-19)
(0.263994 0.0431465 -1.7087e-20)
(0.353744 0.0423181 3.93272e-20)
(0.457384 0.0430474 -1.54994e-20)
(0.57398 0.0466637 -2.61821e-19)
(0.696588 0.0491408 2.55621e-19)
(0.832022 0.0596525 4.04181e-19)
(0.930604 0.0581669 1.16113e-19)
(1.10023 0.0769521 -2.22287e-19)
(-0.00977588 0.0117188 -8.64449e-20)
(-0.0239521 0.0291711 2.81155e-19)
(-0.03284 0.0418835 -9.01831e-21)
(-0.0357443 0.0503263 1.99681e-19)
(-0.0320295 0.0550933 9.33081e-20)
(-0.0210536 0.0568526 9.05291e-20)
(-0.0020832 0.0563059 -1.13312e-19)
(0.0257747 0.0541607 1.95085e-19)
(0.0636155 0.0511125 3.40774e-20)
(0.112733 0.0478373 -1.18758e-19)
(0.174534 0.044986 -6.92901e-20)
(0.250334 0.0431731 -3.13674e-19)
(0.34099 0.0429485 -3.16757e-19)
(0.446385 0.0447455 7.45346e-20)
(0.564716 0.0486847 -2.67641e-20)
(0.692271 0.0550033 -1.0615e-19)
(0.822066 0.0618375 -3.47766e-19)
(0.950586 0.0719024 -4.18505e-19)
(1.05054 0.0747063 -4.85774e-19)
(1.1823 0.0901949 5.22327e-20)
(-0.0102514 0.011347 1.7636e-20)
(-0.0245059 0.0278094 -2.54263e-19)
(-0.0324828 0.0394535 -2.40904e-19)
(-0.0334129 0.0468548 -1.6173e-19)
(-0.0265554 0.0507061 2.91975e-19)
(-0.0111343 0.0517608 -6.32575e-19)
(0.0137493 0.050796 1.2968e-19)
(0.049181 0.0485922 -7.49178e-20)
(0.0964464 0.0459224 2.16078e-19)
(0.156964 0.0435444 2.6783e-20)
(0.232094 0.0421877 -3.35754e-19)
(0.32277 0.0425181 1.47598e-19)
(0.428947 0.045072 4.65939e-20)
(0.54892 0.0501096 1.47257e-19)
(0.678705 0.0576122 -1.56793e-19)
(0.811901 0.0666415 2.77937e-19)
(0.94038 0.0768298 -1.18412e-19)
(1.05573 0.0855143 6.15226e-20)
(1.14704 0.0915564 -4.16803e-20)
(1.2379 0.100643 -1.61112e-19)
(-0.0106587 0.0109111 2.81352e-19)
(-0.0246972 0.0262299 -5.31157e-20)
(-0.0313067 0.03668 -3.38845e-20)
(-0.0296492 0.0429587 1.95072e-19)
(-0.0188684 0.0458744 -9.98124e-20)
(0.00196356 0.0462842 5.71199e-19)
(0.0339269 0.0450581 2.68374e-20)
(0.0782946 0.0430673 1.77382e-19)
(0.13649 0.0411763 -2.99786e-19)
(0.209913 0.0402294 -2.29964e-19)
(0.299594 0.0410145 3.40736e-19)
(0.405625 0.0441856 -2.80599e-19)
(0.526438 0.0501424 2.27668e-19)
(0.658118 0.058792 -4.09146e-20)
(0.794118 0.0696917 6.97558e-19)
(0.925957 0.0809977 -1.43827e-20)
(1.04458 0.0927071 2.39625e-19)
(1.14221 0.0994956 3.45263e-19)
(1.21676 0.107082 2.05863e-19)
(1.27046 0.107162 3.26731e-19)
(-0.0109666 0.0103997 1.36518e-19)
(-0.0244157 0.0244215 -3.0712e-19)
(-0.0291009 0.0335794 1.03909e-19)
(-0.0241243 0.0387 1.70345e-19)
(-0.00850613 0.0407226 1.44194e-19)
(0.0188443 0.0406253 -4.15753e-19)
(0.0591844 0.0393879 1.88276e-19)
(0.113932 0.0379872 8.63886e-20)
(0.184525 0.0373856 3.73332e-20)
(0.272099 0.0384978 1.55625e-19)
(0.376931 0.042114 -9.14972e-20)
(0.497686 0.0487577 2.841e-19)
(0.630645 0.0585059 -2.3884e-19)
(0.769309 0.0707159 -2.45626e-19)
(0.904859 0.0842966 -4.23327e-19)
(1.02791 0.0968681 -1.33611e-19)
(1.13019 0.10813 -2.87768e-19)
(1.20779 0.112989 -3.16152e-19)
(1.26143 0.119542 -2.83864e-19)
(1.28686 0.10917 -1.55993e-19)
(-0.0111333 0.00979803 2.08495e-19)
(-0.023528 0.0223698 -5.39264e-20)
(-0.0256255 0.0301674 -1.44031e-19)
(-0.0164795 0.0341467 -4.67923e-19)
(0.00501605 0.0353892 -3.73397e-20)
(0.0401109 0.0350099 4.98744e-19)
(0.0902058 0.0341124 -1.12779e-19)
(0.156763 0.0337862 9.74685e-20)
(0.241024 0.0350807 2.33087e-19)
(0.343484 0.0389329 7.00868e-20)
(0.463129 0.0460271 -4.55542e-19)
(0.596575 0.0565786 -1.13153e-19)
(0.737522 0.0701201 -7.93556e-20)
(0.877055 0.0853101 2.26913e-19)
(1.00516 0.100403 6.54145e-19)
(1.11323 0.112847 -2.06277e-19)
(1.19579 0.122222 -1.35035e-19)
(1.25321 0.125107 3.47793e-19)
(1.28638 0.127479 1.88672e-19)
(1.30409 0.118351 8.12162e-20)
(-0.0111068 0.00909114 -2.23779e-19)
(-0.0218786 0.0200618 1.6536e-19)
(-0.0206151 0.0264654 -3.38487e-19)
(-0.00633536 0.0293784 3.82675e-20)
(0.022186 0.0300321 2.37891e-19)
(0.0663315 0.02969 -5.06359e-19)
(0.127566 0.0295869 -5.33023e-19)
(0.207223 0.030918 9.74568e-21)
(0.306025 0.03478 -3.19821e-19)
(0.423341 0.0420381 -2.26952e-19)
(0.556261 0.0531039 3.63604e-19)
(0.698869 0.0676642 5.80555e-19)
(0.842308 0.0845193 -2.28028e-19)
(0.976137 0.101626 -1.44575e-19)
(1.09079 0.116826 -3.64227e-19)
(1.18014 0.127811 2.56964e-20)
(1.24261 0.134593 -1.29567e-20)
(1.28147 0.134828 -1.31086e-20)
(1.30092 0.134683 3.74232e-20)
(1.30994 0.12434 4.80768e-19)
(-0.0108259 0.00826614 2.24594e-19)
(-0.019293 0.0174919 2.48836e-19)
(-0.0137852 0.0225084 3.2875e-19)
(0.00669589 0.0244951 1.30928e-19)
(0.0434726 0.0248353 -1.79785e-19)
(0.0980012 0.0249472 -1.26424e-19)
(0.171673 0.0261915 -1.79833e-20)
(0.265424 0.0298378 1.82812e-19)
(0.379034 0.0369513 1.6954e-19)
(0.510175 0.0481742 1.09555e-19)
(0.653514 0.0634297 -1.34089e-20)
(0.800476 0.0816667 -2.7844e-19)
(0.940313 0.100891 2.25416e-19)
(1.06255 0.118566 -3.35435e-20)
(1.15976 0.132533 1.04702e-19)
(1.22941 0.141151 4.57932e-20)
(1.27351 0.14499 -3.50373e-20)
(1.29772 0.142908 8.99102e-20)
(1.30695 0.140446 -6.89067e-20)
(1.30977 0.129595 -4.77363e-19)
(-0.0102218 0.00731503 1.17502e-19)
(-0.015582 0.0146688 -4.48423e-19)
(-0.00484024 0.0183534 2.21412e-19)
(0.0229954 0.0196256 9.28457e-20)
(0.0693005 0.0200167 -2.73798e-19)
(0.1355 0.021095 2.68552e-19)
(0.222701 0.0243229 1.51985e-19)
(0.33108 0.0309793 -3.65555e-19)
(0.458957 0.0419666 4.48731e-20)
(0.60176 0.0575005 -7.06863e-20)
(0.751458 0.0767875 1.68072e-19)
(0.897232 0.0979224 -1.28095e-19)
(1.02773 0.118256 -1.96163e-19)
(1.1341 0.135143 2.91194e-19)
(1.21228 0.146865 -1.42353e-19)
(1.26342 0.152665 5.74005e-20)
(1.29227 0.153697 -1.35445e-19)
(1.30543 0.149625 1.06235e-21)
(1.30788 0.145481 -1.2151e-19)
(1.30723 0.134242 1.32641e-19)
(-0.00921965 0.00623715 -2.92389e-20)
(-0.0105471 0.0116208 -1.33454e-19)
(0.00651574 0.0140868 -1.50781e-19)
(0.0429208 0.0149353 8.71681e-20)
(0.100021 0.0158326 -2.56737e-20)
(0.179052 0.0184775 1.63614e-19)
(0.28054 0.0243815 1.17188e-19)
(0.403455 0.0347228 1.12754e-19)
(0.544113 0.0500557 3.71755e-20)
(0.695305 0.0699343 9.94208e-20)
(0.846464 0.0926776 1.68875e-19)
(0.985542 0.115582 3.74784e-20)
(1.10216 0.135678 -8.50178e-20)
(1.19046 0.150659 6.45131e-20)
(1.25012 0.159552 2.12757e-19)
(1.28528 0.1625 -3.83978e-19)
(1.30227 0.161065 1.23402e-19)
(1.30767 0.155458 1.43836e-19)
(1.30584 0.150024 4.76116e-20)
(1.30273 0.138579 9.40683e-20)
(-0.00774071 0.00504115 -4.68808e-20)
(-0.00398709 0.00840112 2.91238e-19)
(0.0205676 0.00983107 1.02395e-19)
(0.0667855 0.010632 -3.14705e-19)
(0.135884 0.0125798 -8.48407e-20)
(0.22868 0.0174624 1.61283e-19)
(0.344747 0.0267501 7.90428e-20)
(0.481343 0.0413588 2.77757e-19)
(0.632314 0.0612657 -1.05146e-20)
(0.787735 0.0851485 1.35271e-20)
(0.935209 0.110403 -1.43039e-19)
(1.06288 0.133781 -2.25552e-19)
(1.1628 0.152437 -2.43131e-20)
(1.23276 0.164761 -1.42621e-19)
(1.2758 0.17064 1.19621e-19)
(1.29807 0.170965 5.82104e-19)
(1.30633 0.167494 2.27365e-19)
(1.30648 0.160738 -2.22007e-19)
(1.30199 0.154318 -1.10011e-19)
(1.29746 0.142767 4.48545e-20)
(-0.0057044 0.00374647 2.31203e-19)
(0.00429506 0.00509121 -3.55342e-19)
(0.0375753 0.00574839 -3.40025e-19)
(0.0948374 0.00696749 4.64945e-19)
(0.177 0.0105916 1.40149e-19)
(0.284168 0.018426 -8.74305e-20)
(0.414519 0.0317645 -2.54267e-19)
(0.563109 0.0510498 -3.178e-19)
(0.721046 0.075442 2.14017e-19)
(0.876065 0.102617 3.81369e-20)
(1.0151 0.129196 1.14744e-19)
(1.12798 0.151791 9.48813e-20)
(1.21014 0.168093 -5.32273e-21)
(1.26298 0.177386 -6.39928e-20)
(1.29203 0.180358 -1.28982e-19)
(1.30438 0.178416 -3.48319e-19)
(1.30648 0.173323 -1.36838e-19)
(1.30321 0.165718 4.56415e-19)
(1.29715 0.158502 7.57692e-20)
(1.29164 0.146915 -1.11707e-19)
(-0.00303076 0.00238432 -2.41775e-19)
(0.0144835 0.0018027 2.50622e-19)
(0.0577583 0.00204178 5.63059e-21)
(0.127234 0.00423461 -1.05343e-19)
(0.223316 0.0102264 -3.40712e-20)
(0.345034 0.0217308 -3.03614e-20)
(0.488704 0.0396809 -1.87202e-19)
(0.646788 0.0638027 2.27631e-19)
(0.807725 0.092242 -3.79448e-19)
(0.95775 0.1217 1.09472e-21)
(1.08453 0.148347 -6.85208e-20)
(1.18076 0.169097 -3.40701e-20)
(1.24557 0.182471 7.86202e-20)
(1.28336 0.188669 -1.74271e-19)
(1.3012 0.18901 -9.98193e-21)
(1.30624 0.185181 9.58232e-20)
(1.30414 0.178812 -2.34634e-19)
(1.29869 0.170563 -2.66127e-21)
(1.29167 0.162668 -1.12863e-22)
(1.28552 0.151062 1.97367e-19)
(0.000356819 0.000998075 3.53474e-20)
(0.0267407 -0.00132249 6.93117e-20)
(0.0812793 -0.00104751 1.36222e-19)
(0.16402 0.00275926 -7.44758e-20)
(0.274583 0.0118511 -2.41337e-19)
(0.410517 0.0276973 6.33117e-20)
(0.565839 0.050644 1.43367e-19)
(0.730242 0.0794602 7.94312e-20)
(0.889969 0.111185 2.67669e-19)
(1.03093 0.141749 -7.35166e-20)
(1.14287 0.167296 -4.40145e-20)
(1.222 0.185418 3.74894e-20)
(1.27089 0.195599 -1.07164e-19)
(1.2961 0.198846 -1.48344e-19)
(1.3053 0.196902 -9.65777e-20)
(1.30513 0.19153 7.91404e-20)
(1.30021 0.184145 1.99453e-19)
(1.29339 0.175374 -9.65958e-20)
(1.2858 0.166861 -1.5001e-19)
(1.27916 0.155237 2.22743e-20)
(0.00452857 -0.000356654 6.32904e-20)
(0.041197 -0.00411382 1.44697e-20)
(0.108227 -0.00324578 -1.83999e-19)
(0.205105 0.0028873 2.44055e-19)
(0.330345 0.0158178 5.43539e-20)
(0.479597 0.0365751 -2.86877e-19)
(0.644249 0.0646675 1.09682e-19)
(0.811357 0.0977195 -1.44287e-19)
(0.965823 0.131723 7.11341e-21)
(1.09455 0.162188 2.37298e-20)
(1.19032 0.185664 6.8523e-20)
(1.25302 0.200665 7.80745e-21)
(1.288 0.207629 3.01232e-19)
(1.30308 0.208187 1.18838e-19)
(1.30584 0.204302 -5.55208e-20)
(1.30203 0.197662 -6.49609e-20)
(1.29527 0.189441 3.74316e-20)
(1.28757 0.180209 3.74205e-20)
(1.27962 0.171105 -6.19713e-20)
(1.2726 0.159445 -7.04019e-20)
(0.0095447 -0.00161242 -7.42993e-20)
(0.0579409 -0.00637543 4.77686e-21)
(0.138602 -0.00425576 3.76649e-20)
(0.250246 0.00496791 -1.02905e-19)
(0.389934 0.0224404 2.00199e-19)
(0.551032 0.0485179 1.1448e-19)
(0.722165 0.08163 -1.16804e-19)
(0.888229 0.118174 -7.72495e-20)
(1.03391 0.153315 6.98539e-20)
(1.14827 0.18257 -1.08174e-19)
(1.22768 0.203245 8.02509e-20)
(1.27535 0.214887 -1.73932e-21)
(1.29864 0.218769 2.41441e-21)
(1.30583 0.216945 -5.84535e-20)
(1.3039 0.211418 1.66061e-19)
(1.29759 0.203715 -1.33059e-20)
(1.28963 0.194771 6.95693e-20)
(1.28137 0.185093 -1.00743e-19)
(1.27317 0.175405 7.73957e-20)
(1.26585 0.163687 -2.96815e-20)
(0.0154515 -0.00269097 1.23193e-19)
(0.0770087 -0.00789137 1.48973e-19)
(0.1723 -0.00376816 1.10652e-19)
(0.299044 0.00933441 -1.60548e-20)
(0.452491 0.0319696 2.32659e-20)
(0.623434 0.0635685 1.97452e-21)
(0.797866 0.101292 2.53287e-19)
(0.959311 0.140367 -7.50797e-20)
(1.09343 0.175482 5.23845e-20)
(1.19235 0.202585 -2.64555e-19)
(1.25607 0.219976 3.85146e-20)
(1.29053 0.228217 1.14113e-19)
(1.3043 0.229243 -5.19002e-20)
(1.3055 0.225333 1.05469e-19)
(1.30022 0.218407 -1.35952e-19)
(1.29222 0.209775 1.83677e-19)
(1.28347 0.20017 5.50997e-21)
(1.27483 0.190033 -5.96618e-20)
(1.26647 0.17976 2.66566e-21)
(1.25891 0.167954 9.09171e-20)
(0.0222777 -0.00350484 -2.33603e-19)
(0.0983754 -0.00843234 6.06181e-20)
(0.209108 -0.00147508 -2.30067e-20)
(0.350942 0.0162846 -1.71294e-19)
(0.516995 0.0445746 -6.27014e-20)
(0.695359 0.0816562 -1.21591e-19)
(0.869803 0.123325 -1.04864e-19)
(1.02349 0.163843 -1.1276e-19)
(1.14415 0.197842 1.15025e-19)
(1.22745 0.222056 5.62998e-20)
(1.27673 0.235892 -1.64181e-19)
(1.29996 0.240824 -4.0163e-20)
(1.30617 0.239254 -1.89934e-20)
(1.30291 0.23352 -7.92198e-20)
(1.29529 0.22537 -1.34045e-20)
(1.28616 0.215892 -3.21421e-20)
(1.27688 0.20565 -1.27233e-19)
(1.26799 0.195025 6.22067e-20)
(1.25951 0.184162 7.41736e-20)
(1.25177 0.172233 -1.8377e-20)
(0.0300301 -0.00395952 8.79177e-21)
(0.121948 -0.00776384 -1.09895e-19)
(0.248697 0.00291533 5.10964e-20)
(0.405243 0.0260626 -3.55614e-20)
(0.58232 0.0603304 4.41664e-20)
(0.765398 0.102607 2.00848e-19)
(0.936693 0.14735 -8.78208e-20)
(1.0801 0.188184 2.16127e-19)
(1.18625 0.22011 1.03385e-20)
(1.25446 0.240903 1.05589e-19)
(1.29089 0.251085 9.19185e-21)
(1.30482 0.252881 7.12802e-20)
(1.30517 0.248972 1.42748e-20)
(1.29866 0.241623 7.12131e-21)
(1.28941 0.232368 -1.01414e-19)
(1.27951 0.222084 1.76556e-20)
(1.2699 0.211206 9.07781e-20)
(1.26083 0.200055 4.56677e-21)
(1.25229 0.188596 -4.37832e-20)
(1.2444 0.176512 1.76308e-20)
(0.0386913 -0.00395642 2.94078e-20)
(0.147563 -0.00565561 9.03467e-20)
(0.29063 0.00966412 9.73795e-20)
(0.461133 0.0388433 -2.62211e-20)
(0.647293 0.0792138 1.27446e-19)
(0.832261 0.126164 -2.55258e-20)
(0.997572 0.172973 2.07173e-19)
(1.12887 0.213035 -2.61395e-19)
(1.22021 0.242096 -4.59466e-20)
(1.27436 0.259123 -4.56815e-20)
(1.29968 0.265675 -5.45855e-20)
(1.30607 0.264545 -1.29281e-20)
(1.30197 0.258525 1.79115e-20)
(1.29313 0.249719 -6.48604e-20)
(1.28276 0.239431 6.74221e-20)
(1.27236 0.228353 -2.88296e-20)
(1.26252 0.216823 -2.24017e-20)
(1.25336 0.205105 -1.93454e-20)
(1.24479 0.193047 -1.16871e-20)
(1.23679 0.18077 -3.80884e-20)
(0.0482163 -0.00339634 1.40043e-19)
(0.174981 -0.00189177 -1.39978e-19)
(0.334367 0.0189875 1.67547e-20)
(0.517715 0.0547216 -1.73828e-20)
(0.710756 0.101108 -4.68187e-20)
(0.894845 0.152011 -9.56466e-20)
(1.0518 0.199813 -1.41942e-20)
(1.16984 0.238106 6.3779e-20)
(1.24667 0.263684 2.8974e-20)
(1.28811 0.276756 -3.49264e-20)
(1.30404 0.279782 3.91228e-20)
(1.30447 0.275942 -8.76494e-21)
(1.29705 0.268001 -7.56234e-20)
(1.28655 0.257847 1.0905e-19)
(1.27544 0.246562 2.98515e-20)
(1.26473 0.234682 -1.50882e-20)
(1.25476 0.222478 1.85952e-20)
(1.24555 0.210153 2.85667e-20)
(1.237 0.197494 2.76916e-20)
(1.22894 0.184988 2.8727e-20)
(0.0585323 -0.00218341 -1.46392e-19)
(0.203895 0.00371893 1.1788e-19)
(0.379287 0.0310446 5.17041e-20)
(0.574052 0.0737071 -1.06086e-19)
(0.771626 0.125814 -2.31864e-20)
(0.952265 0.179797 -8.79216e-20)
(1.09901 0.227515 3.51152e-20)
(1.20329 0.26317 -5.79888e-20)
(1.26638 0.284812 4.37856e-21)
(1.2966 0.29386 9.14015e-21)
(1.30478 0.293514 1.6941e-20)
(1.30056 0.287165 -6.38259e-20)
(1.29072 0.277451 6.42286e-20)
(1.27909 0.26602 -4.55199e-20)
(1.2675 0.253748 -1.2714e-20)
(1.2566 0.241048 5.81457e-21)
(1.24659 0.22814 -1.27099e-20)
(1.23739 0.215173 -2.79987e-20)
(1.2289 0.201914 -1.40238e-21)
(1.22082 0.189141 -1.83984e-20)
(0.0695381 -0.00022928 -1.84178e-20)
(0.233934 0.0113333 -5.57541e-20)
(0.424705 0.0459281 -1.90093e-20)
(0.629202 0.0957234 3.03298e-20)
(0.828933 0.153063 -1.92394e-20)
(1.00387 0.209157 1.97538e-20)
(1.13913 0.255764 4.57555e-20)
(1.22967 0.288053 4.02357e-20)
(1.28008 0.305452 3.15839e-20)
(1.30062 0.310498 -6.72323e-21)
(1.30251 0.306953 -1.7918e-20)
(1.29476 0.298273 2.09389e-20)
(1.28319 0.286896 -1.02479e-20)
(1.27082 0.274226 1.24443e-20)
(1.25895 0.260961 -7.51478e-21)
(1.24798 0.247417 1.55026e-20)
(1.23799 0.233777 -4.14808e-21)
(1.22887 0.220139 1.77702e-20)
(1.22049 0.206283 -3.71109e-21)
(1.21244 0.193206 2.91645e-21)
(0.0811061 0.00254269 -4.40959e-22)
(0.264676 0.021065 -2.0626e-22)
(0.469902 0.0636579 -6.69158e-21)
(0.682262 0.120613 3.3713e-20)
(0.881858 0.182536 2.16765e-20)
(1.04922 0.239726 -1.66111e-20)
(1.17222 0.284278 -1.24148e-20)
(1.24947 0.31262 -3.79622e-21)
(1.28847 0.325595 -1.78156e-20)
(1.30083 0.326724 -1.10858e-21)
(1.29772 0.320156 6.63089e-22)
(1.28736 0.309292 -7.331e-21)
(1.27461 0.29633 -4.63948e-21)
(1.26179 0.282437 -1.0254e-20)
(1.2498 0.268162 -1.05145e-20)
(1.23886 0.25375 -8.05525e-22)
(1.22897 0.239353 3.62972e-21)
(1.21998 0.225018 3.71308e-21)
(1.21176 0.210572 4.23506e-21)
(1.20378 0.197154 5.68237e-21)
(0.0930846 0.00619359 2.2578e-20)
(0.295657 0.0329778 -3.69697e-21)
(0.514147 0.0841789 -6.41436e-21)
(0.732398 0.148144 1.62479e-20)
(0.92974 0.213877 3.23078e-20)
(1.08808 0.271149 -1.42422e-20)
(1.19853 0.312813 -1.14443e-20)
(1.26325 0.336765 -2.08853e-20)
(1.29218 0.345234 -1.82078e-20)
(1.29776 0.34257 3.4939e-21)
(1.29078 0.333149 -2.88619e-21)
(1.27854 0.320221 -1.09406e-21)
(1.26504 0.305723 -6.41908e-21)
(1.252 0.29061 -9.82524e-21)
(1.24003 0.275308 -2.00385e-21)
(1.22921 0.260005 -7.93098e-22)
(1.21949 0.244827 -3.48801e-22)
(1.21071 0.229778 1.55424e-21)
(1.2027 0.214747 5.41538e-21)
(1.19485 0.200958 3.72031e-21)
(0.105302 0.0107655 -1.37992e-20)
(0.326389 0.0470805 -2.20778e-20)
(0.556723 0.107361 -2.93526e-20)
(0.778866 0.178025 3.91305e-20)
(0.97208 0.246706 3.66487e-20)
(1.12036 0.303087 7.20683e-23)
(1.21837 0.34115 1.31935e-20)
(1.27155 0.360396 3.62219e-20)
(1.29177 0.36436 3.83133e-20)
(1.29185 0.35805 2.33855e-20)
(1.28195 0.345929 -5.56059e-20)
(1.26844 0.331031 2.25309e-20)
(1.25453 0.315031 -8.90461e-21)
(1.24148 0.298694 2.1199e-20)
(1.22964 0.282346 -3.07395e-22)
(1.21903 0.266133 -3.13696e-21)
(1.20956 0.250156 1.6617e-21)
(1.20105 0.234381 1.19116e-20)
(1.19331 0.218769 -4.74126e-21)
(1.18565 0.204589 -1.1029e-21)
(0.117572 0.0162788 -4.57737e-20)
(0.356373 0.0633249 1.06413e-19)
(0.596954 0.133006 1.02935e-20)
(0.821035 0.209908 -1.33601e-19)
(1.00853 0.280631 -2.35552e-20)
(1.14613 0.335217 5.49773e-20)
(1.23211 0.369093 -1.24435e-19)
(1.27487 0.383429 -5.06427e-22)
(1.28771 0.382948 9.61141e-21)
(1.28344 0.373153 -2.73325e-21)
(1.27144 0.358471 2.91497e-20)
(1.25715 0.341677 -4.41612e-20)
(1.24311 0.324197 6.57068e-21)
(1.2302 0.306629 -1.26869e-20)
(1.21862 0.28922 -8.56299e-21)
(1.20831 0.272085 8.40746e-21)
(1.19915 0.255298 -5.90447e-22)
(1.19099 0.238788 -1.83488e-20)
(1.18359 0.222599 9.19652e-22)
(1.17618 0.208018 -4.80308e-21)
(0.129697 0.0227303 3.44347e-20)
(0.385118 0.0816052 -6.09522e-20)
(0.634219 0.160849 -4.94598e-21)
(0.858391 0.24341 -1.14228e-19)
(1.0389 0.315256 -6.70205e-20)
(1.16554 0.367231 5.44291e-20)
(1.24015 0.396458 -6.17e-20)
(1.27369 0.405778 6.61989e-21)
(1.2804 0.400961 4.58355e-20)
(1.2728 0.387843 -1.21484e-20)
(1.25937 0.370724 5.1889e-21)
(1.24471 0.352095 1.46244e-20)
(1.23078 0.333152 -4.1578e-20)
(1.21817 0.314348 4.82711e-20)
(1.20696 0.295872 4.0577e-20)
(1.19704 0.277809 -1.00393e-20)
(1.18828 0.260206 -1.03011e-20)