/*--------------------------------*- C++ -*----------------------------------*\
  =========                 |
  \\      /  F ield         | OpenFOAM: The Open Source CFD Toolbox
   \\    /   O peration     | Website:  https://openfoam.org
    \\  /    A nd           | Version:  7
     \\/     M anipulation  |
\*---------------------------------------------------------------------------*/
FoamFile
{
    version     2.0;
    format      ascii;
    class       surfaceScalarField;
    location    "1";
    object      phi;
}
// * * * * * * * * * * * * * * * * * * * * * * * * * * * * * * * * * * * * * //

dimensions      [0 3 -1 0 0 0 0];

internalField   nonuniform List<scalar> 
614
(
0.000187697
-1.51347e-11
0.000187697
-8.71724e-12
0.000187697
-3.70885e-12
0.000187697
1.01699e-13
0.000187697
2.95468e-12
0.000187697
4.99244e-12
0.000187697
6.38442e-12
0.000187697
7.25698e-12
0.000187697
7.73079e-12
0.000187697
7.89509e-12
0.000187697
7.82909e-12
0.000187697
7.6019e-12
0.000187697
7.25477e-12
0.000187697
6.82615e-12
0.000187697
6.35258e-12
0.000187697
5.85825e-12
0.000187697
5.36166e-12
0.000187697
4.87415e-12
0.000187697
4.40306e-12
0.000187697
3.95698e-12
0.000187697
3.53956e-12
0.000187697
3.15022e-12
0.000187697
2.79179e-12
0.000187697
2.46708e-12
0.000187697
2.17181e-12
0.000187697
1.8992e-12
0.000187697
1.64724e-12
0.000187697
1.41905e-12
0.000187697
1.21815e-12
0.000187697
1.04384e-12
0.000187697
8.92026e-13
0.000187697
7.57489e-13
0.000187697
6.35246e-13
0.000187697
5.20036e-13
0.000187697
4.10727e-13
0.000187697
3.12325e-13
0.000187697
2.29136e-13
0.000187697
1.58179e-13
0.000187697
9.45819e-14
0.000187697
3.66942e-14
0.000187697
-1.51418e-14
0.000187697
-6.17129e-14
0.000187697
-1.01023e-13
0.000187697
-1.2842e-13
0.000187697
-1.44283e-13
0.000187697
-1.53969e-13
0.000187697
-1.60387e-13
0.000187697
-1.62118e-13
0.000187697
-1.57985e-13
0.000187697
-1.48e-13
0.000187697
-1.31618e-13
0.000187697
-1.09919e-13
0.000187697
-8.72685e-14
0.000187697
-6.77944e-14
0.000187697
-5.20744e-14
0.000187697
-3.78686e-14
0.000187697
-2.34624e-14
0.000187697
-1.00771e-14
0.000187697
-1.13444e-15
0.000187697
1.37454e-15
0.000187697
1.45467e-15
0.000187697
3.39662e-15
0.000187697
7.22444e-15
9.6211e-15
0.000220905
-6.95494e-11
0.000220905
-5.17309e-11
0.000220905
-3.69185e-11
0.000220905
-2.48174e-11
0.000220905
-1.51002e-11
0.000220905
-7.44015e-12
0.000220905
-1.52712e-12
0.000220905
2.92481e-12
0.000220905
6.17537e-12
0.000220905
8.44124e-12
0.000220905
9.92089e-12
0.000220905
1.07824e-11
0.000220905
1.1166e-11
0.000220905
1.11852e-11
0.000220905
1.09366e-11
0.000220905
1.04993e-11
0.000220905
9.93257e-12
0.000220905
9.28419e-12
0.000220905
8.59275e-12
0.000220905
7.88728e-12
0.000220905
7.18932e-12
0.000220905
6.51329e-12
0.000220905
5.86826e-12
0.000220905
5.2603e-12
0.000220905
4.69294e-12
0.000220905
4.1682e-12
0.000220905
3.68765e-12
0.000220905
3.25059e-12
0.000220905
2.85262e-12
0.000220905
2.48914e-12
0.000220905
2.15833e-12
0.000220905
1.86034e-12
0.000220905
1.59565e-12
0.000220905
1.36238e-12
0.000220905
1.15624e-12
0.000220905
9.72599e-13
0.000220905
8.06855e-13
0.000220905
6.54826e-13
0.000220905
5.15366e-13
0.000220905
3.90613e-13
0.000220905
2.81694e-13
0.000220905
1.85881e-13
0.000220905
9.98099e-14
0.000220905
2.25606e-14
0.000220905
-4.62376e-14
0.000220905
-1.05271e-13
0.000220905
-1.52948e-13
0.000220905
-1.87189e-13
0.000220905
-2.08931e-13
0.000220905
-2.21373e-13
0.000220905
-2.26834e-13
0.000220905
-2.2584e-13
0.000220905
-2.1773e-13
0.000220905
-2.01715e-13
0.000220905
-1.78248e-13
0.000220905
-1.49902e-13
0.000220905
-1.20722e-13
0.000220905
-9.41518e-14
0.000220905
-7.15124e-14
0.000220905
-5.18477e-14
0.000220905
-3.37431e-14
0.000220905
-1.78139e-14
0.000220905
-6.57283e-15
0.000220905
-1.1513e-15
0.000220905
1.41773e-15
0.000220905
5.01729e-15
0.000220905
1.00714e-14
1.27024e-14
0.000253417
-7.40202e-11
0.000253417
-5.35961e-11
0.000253417
-3.67369e-11
0.000253417
-2.30685e-11
0.000253417
-1.21938e-11
0.000253417
-3.71875e-12
0.000253417
2.7308e-12
0.000253417
7.49962e-12
0.000253417
1.08801e-11
0.000253417
1.31403e-11
0.000253417
1.45099e-11
0.000253417
1.51871e-11
0.000253417
1.5335e-11
0.000253417
1.50874e-11
0.000253417
1.4555e-11
0.000253417
1.38261e-11
0.000253417
1.29684e-11
0.000253417
1.20373e-11
0.000253417
1.10775e-11
0.000253417
1.01195e-11
0.000253417
9.18633e-12
0.000253417
8.29272e-12
0.000253417
7.4465e-12
0.000253417
6.65527e-12
0.000253417
5.9241e-12
0.000253417
5.25247e-12
0.000253417
4.63847e-12
0.000253417
4.07907e-12
0.000253417
3.56997e-12
0.000253417
3.10776e-12
0.000253417
2.69003e-12
0.000253417
2.31521e-12
0.000253417
1.98225e-12
0.000253417
1.68757e-12
0.000253417
1.42432e-12
0.000253417
1.1881e-12
0.000253417
9.7633e-13
0.000253417
7.85045e-13
0.000253417
6.11633e-13
0.000253417
4.56551e-13
0.000253417
3.19515e-13
0.000253417
1.97625e-13
0.000253417
8.77242e-14
0.000253417
-9.88984e-15
0.000253417
-9.43748e-14
0.000253417
-1.64774e-13
0.000253417
-2.2083e-13
0.000253417
-2.61915e-13
0.000253417
-2.88704e-13
0.000253417
-3.03724e-13
0.000253417
-3.08924e-13
0.000253417
-3.04328e-13
0.000253417
-2.89258e-13
0.000253417
-2.64154e-13
0.000253417
-2.3148e-13
0.000253417
-1.94829e-13
0.000253417
-1.57885e-13
0.000253417
-1.23926e-13
0.000253417
-9.45503e-14
0.000253417
-6.88131e-14
0.000253417
-4.52788e-14
0.000253417
-2.50467e-14
0.000253417
-1.08161e-14
0.000253417
-3.17462e-15
0.000253417
1.45553e-15
0.000253417
6.98913e-15
0.000253417
1.36428e-14
1.66288e-14
0.00028493
-7.15234e-11
0.00028493
-4.96151e-11
0.00028493
-3.16605e-11
0.00028493
-1.7239e-11
0.00028493
-5.90176e-12
0.00028493
2.79361e-12
0.00028493
9.29225e-12
0.00028493
1.39513e-11
0.00028493
1.71194e-11
0.00028493
1.90821e-11
0.00028493
2.01021e-11
0.00028493
2.03998e-11
0.00028493
2.01519e-11
0.000284929
1.95059e-11
0.000284929
1.85832e-11
0.000284929
1.74789e-11
0.000284929
1.62613e-11
0.000284929
1.49926e-11
0.000284929
1.37176e-11
0.000284929
1.2467e-11
0.000284929
1.12721e-11
0.000284929
1.01416e-11
0.000284929
9.07531e-12
0.000284929
8.08624e-12
0.000284929
7.18055e-12
0.000284929
6.35399e-12
0.000284929
5.60141e-12
0.000284929
4.91525e-12
0.000284929
4.29195e-12
0.000284929
3.73005e-12
0.000284929
3.22187e-12
0.000284929
2.76454e-12
0.000284929
2.35961e-12
0.000284929
1.99943e-12
0.000284929
1.67408e-12
0.000284929
1.38465e-12
0.000284929
1.13071e-12
0.000284929
9.02251e-13
0.000284929
6.92667e-13
0.000284929
5.03474e-13
0.000284929
3.35635e-13
0.000284929
1.86484e-13
0.000284929
5.40667e-14
0.000284929
-6.32984e-14
0.000284929
-1.61977e-13
0.000284929
-2.43986e-13
0.000284929
-3.10016e-13
0.000284929
-3.58667e-13
0.000284929
-3.89931e-13
0.000284929
-4.06356e-13
0.000284929
-4.09273e-13
0.000284929
-3.97719e-13
0.000284929
-3.72133e-13
0.000284929
-3.35494e-13
0.000284929
-2.91323e-13
0.000284929
-2.43412e-13
0.000284929
-1.96286e-13
0.000284929
-1.53946e-13
0.000284929
-1.17541e-13
0.000284929
-8.50215e-14
0.000284929
-5.44917e-14
0.000284929
-2.8901e-14
0.000284929
-1.30277e-14
0.000284929
-5.732e-15
0.000284929
1.25708e-15
0.000284929
9.13681e-15
0.000284929
1.86271e-14
2.18511e-14
0.000315035
-6.10192e-11
0.000315035
-3.90454e-11
0.000315035
-2.12013e-11
0.000315035
-7.0396e-12
0.000315035
3.90908e-12
0.000315035
1.21488e-11
0.000315035
1.80937e-11
0.000315035
2.21734e-11
0.000315035
0.000315035
0.000315035
0.000315035
0.000315035
0.000315035
0.000315035
0.000315035
0.000315035
0.000315035
0.000315035
0.000315035
0.000315035
0.000315035
0.000315035
0.000315035
0.000315035
0.000315035
0.000315035
0.000315035
0.000315035
0.000315035
0.000315035
0.000315035
0.000315035
0.000315035
0.000315035
0.000315035
0.000315035
0.000315035
0.000315035
0.000315035
0.000315035
0.000315035
0.000315035
0.000315035
0.000315035
0.000315035
0.000315035
0.000315035
0.000315035
0.000315035
0.000315035
0.000315035
0.000315035
0.000315035
0.000315035
0.000315035
0.000315035
0.000315035
0.000315035
0.000315035
0.000315035
0.000315035
0.000315035
0.000315035
0.000315035
0.000315035
0.000315035
0.000343213
0.000343213
0.000343213
0.000343213
0.000343213
0.000343213
0.000343213
)
;

boundaryField
{
    inlet
    {
        type            calculated;
        value           nonuniform 0();
    }
    outlet
    {
        type            calculated;
        value           nonuniform List<scalar> 5(0.000187697 0.000220905 0.000253417 0.000284929 0.000315035);
    }
    wall
    {
        type            calculated;
        value           nonuniform 0();
    }
    wedge1
    {
        type            wedge;
        value           nonuniform List<scalar> 
344
(
-1.34276e-18
-1.43876e-18
-1.40699e-18
-1.39745e-18
-1.29939e-18
-1.34703e-18
-1.40606e-18
-1.40578e-18
-1.37047e-18
-1.2921e-18
-1.32864e-18
-1.39488e-18
-1.38583e-18
-1.35879e-18
-1.27974e-18
-1.3335e-18
-1.35702e-18
-1.38924e-18
-1.32676e-18
-1.278e-18
-1.19295e-18
-1.2726e-18
-1.36296e-18
-1.33977e-18
-1.33072e-18
-1.24479e-18
-1.19181e-18
-1.27954e-18
-1.34609e-18
-1.34017e-18
-1.3153e-18
-1.23884e-18
-1.18485e-18
-1.2864e-18
-1.34064e-18
-1.34238e-18
-1.30949e-18
-1.2422e-18
-1.17802e-18
-1.28064e-18
-1.31553e-18
-1.3317e-18
-1.28596e-18
-1.22596e-18
-1.16547e-18
-1.25258e-18
-1.30684e-18
-1.30529e-18
-1.27553e-18
-1.15106e-18
-1.24866e-18
-1.2827e-18
-1.29412e-18
-1.25002e-18
-1.14001e-18
-1.21785e-18
-1.26528e-18
-1.26457e-18
-1.2329e-18
-1.12048e-18
-1.22171e-18
-1.244e-18
-1.26621e-18
-1.21253e-18
-1.10895e-18
-1.19216e-18
-1.25356e-18
-1.24123e-18
-1.21626e-18
-1.09011e-18
-1.18652e-18
-1.23801e-18
-1.23556e-18
-1.20581e-18
-1.08706e-18
-1.18038e-18
-1.22345e-18
-1.22543e-18
-1.19292e-18
-1.07861e-18
-1.17808e-18
-1.21856e-18
-1.22129e-18
-1.18448e-18
-1.06798e-18
-1.16701e-18
-1.19649e-18
-1.20816e-18
-1.1643e-18
-1.05213e-18
-1.13981e-18
-1.18529e-18
-1.18362e-18
-1.15429e-18
-1.04353e-18
-1.13356e-18
-1.16409e-18
-1.17449e-18
-1.133e-18
-1.03436e-18
-1.10841e-18
-1.1494e-18
-1.14883e-18
-1.1189e-18
-1.01667e-18
-1.1072e-18
-1.13008e-18
-1.14893e-18
-1.10155e-18
-9.99709e-19
-1.07829e-18
-1.13746e-18
-1.12582e-18
-1.10606e-18
-9.91501e-19
-1.07525e-18
-1.12102e-18
-1.12078e-18
-1.09263e-18
-9.85408e-19
-1.07522e-18
-1.11399e-18
-1.1177e-18
-1.08368e-18
-9.63967e-19
-1.06994e-18
-1.08496e-18
-1.11239e-18
-1.05821e-18
-9.47931e-19
-1.02583e-18
-1.08857e-18
-1.07731e-18
-1.06085e-18
-9.35142e-19
-1.02035e-18
-1.0627e-18
-1.06943e-18
-1.03776e-18
-9.28784e-19
-1.00284e-18
-1.04791e-18
-1.04905e-18
-1.02616e-18
-9.09868e-19
-9.99649e-19
-1.01786e-18
-1.0457e-18
-1.00097e-18
-8.93412e-19
-9.57958e-19
-1.0184e-18
-1.0101e-18
-9.9828e-19
-8.90518e-19
-9.57796e-19
-1.00414e-18
-1.00297e-18
-9.82234e-19
-8.80535e-19
-9.55806e-19
-9.94402e-19
-9.97932e-19
-9.72757e-19
-8.69257e-19
-9.45475e-19
-9.74766e-19
-9.84933e-19
-9.54037e-19
-8.56687e-19
-9.2348e-19
-9.6269e-19
-9.63394e-19
-9.41588e-19
-8.4493e-19
-9.15394e-19
-9.43027e-19
-9.51703e-19
-9.22442e-19
-8.3346e-19
-8.93442e-19
-9.27646e-19
-9.29155e-19
-9.07689e-19
-8.16447e-19
-8.87732e-19
-9.09977e-19
-9.23843e-19
-8.90052e-19
-8.03214e-19
-8.6542e-19
-9.09113e-19
-9.02939e-19
-8.86665e-19
-7.87964e-19
-8.57105e-19
-8.94636e-19
-8.93979e-19
-8.74023e-19
-7.77891e-19
-8.46498e-19
-8.79953e-19
-8.8396e-19
-8.61403e-19
-7.67978e-19
-8.37965e-19
-8.70604e-19
-8.74657e-19
-8.52254e-19
-7.57958e-19
-8.27538e-19
-8.52965e-19
-8.62065e-19
-8.34961e-19
-7.45279e-19
-8.06783e-19
-8.41102e-19
-8.4288e-19
-8.23624e-19
-7.34119e-19
-7.96671e-19
-8.23339e-19
-8.30588e-19
-8.06003e-19
-7.21663e-19
-7.77344e-19
-8.09778e-19
-8.11301e-19
-7.92949e-19
-7.06324e-19
-7.70259e-19
-7.92739e-19
-8.04564e-19
-7.77423e-19
-6.9194e-19
-7.50444e-19
-7.88441e-19
-7.87118e-19
-7.7229e-19
-6.83779e-19
-7.42192e-19
-7.75827e-19
-7.77512e-19
-7.59884e-19
-6.76474e-19
-7.37467e-19
-7.65285e-19
-7.70028e-19
-7.49236e-19
-6.62546e-19
-7.28525e-19
-7.46529e-19
-7.60648e-19
-7.31529e-19
-6.4866e-19
-7.02133e-19
-7.39864e-19
-7.38285e-19
-7.25438e-19
-6.35189e-19
-6.9134e-19
-7.21195e-19
-7.27284e-19
-7.09091e-19
-6.23716e-19
-6.764e-19
-7.07563e-19
-7.11375e-19
-6.95797e-19
-6.08412e-19
-6.67594e-19
-6.88618e-19
-7.00899e-19
-6.77878e-19
-5.94269e-19
-6.43064e-19
-6.78972e-19
-6.78923e-19
-6.68661e-19
-5.83781e-19
-6.33401e-19
-6.64306e-19
-6.68024e-19
-6.54721e-19
-5.72327e-19
-6.2402e-19
-6.51504e-19
-6.56897e-19
-6.41993e-19
-5.6038e-19
-6.11782e-19
-6.35637e-19
-6.4296e-19
-6.26567e-19
-5.47353e-19
-5.93801e-19
-6.21004e-19
-6.25232e-19
-6.12506e-19
-5.36409e-19
-5.83031e-19
-6.07742e-19
-6.12971e-19
-5.99592e-19
-5.21085e-19
-5.68911e-19
-5.92257e-19
-5.99335e-19
-5.84928e-19
-5.03353e-19
-5.51513e-19
-5.77604e-19
-5.83037e-19
-5.71333e-19
-4.91031e-19
-5.3841e-19
-5.63638e-19
-5.69653e-19
-5.5789e-19
-4.77924e-19
-5.2501e-19
-5.49667e-19
-5.56094e-19
-5.44453e-19
-4.65696e-19
-5.12059e-19
-5.35997e-19
-5.42828e-19
-5.31534e-19
-4.52216e-19
-4.9775e-19
-5.20649e-19
-5.28565e-19
-5.17165e-19
-4.38796e-19
-4.82292e-19
-5.06807e-19
-5.13544e-19
-5.04061e-19
-4.23915e-19
-4.66211e-19
-4.8977e-19
-4.97107e-19
-4.87887e-19
)
;
    }
    wedge2
    {
        type            wedge;
        value           nonuniform List<scalar> 
344
(
1.36862e-18
1.44243e-18
1.43052e-18
1.40036e-18
1.31512e-18
1.36688e-18
1.40882e-18
1.42314e-18
1.37255e-18
1.30264e-18
1.34341e-18
1.3969e-18
1.39807e-18
1.36017e-18
1.28603e-18
1.3441e-18
1.35842e-18
1.39731e-18
1.32759e-18
1.2809e-18
1.19403e-18
1.27981e-18
1.36387e-18
1.34452e-18
1.33111e-18
1.24506e-18
1.19252e-18
1.28405e-18
1.34661e-18
1.34231e-18
1.31535e-18
1.23711e-18
1.18528e-18
1.28879e-18
1.34085e-18
1.34252e-18
1.30928e-18
1.23901e-18
1.17821e-18
1.28139e-18
1.31551e-18
1.33035e-18
1.28556e-18
1.22175e-18
1.1655e-18
1.25209e-18
1.30664e-18
1.30285e-18
1.275e-18
1.15095e-18
1.24728e-18
1.28238e-18
1.29094e-18
1.24941e-18
1.13981e-18
1.21583e-18
1.26488e-18
1.26091e-18
1.23224e-18
1.12022e-18
1.21928e-18
1.24355e-18
1.26229e-18
1.21186e-18
1.10865e-18
1.18947e-18
1.25308e-18
1.2372e-18
1.21558e-18
1.08979e-18
1.18371e-18
1.23752e-18
1.23154e-18
1.20515e-18
1.08673e-18
1.17756e-18
1.22296e-18
1.22152e-18
1.19228e-18
1.07828e-18
1.17531e-18
1.21809e-18
1.21755e-18
1.18388e-18
1.06766e-18
1.16434e-18
1.19604e-18
1.20463e-18
1.16374e-18
1.05182e-18
1.13728e-18
1.18487e-18
1.18033e-18
1.15377e-18
1.04324e-18
1.13119e-18
1.1637e-18
1.17144e-18
1.13252e-18
1.03409e-18
1.10621e-18
1.14904e-18
1.14604e-18
1.11847e-18
1.01643e-18
1.10518e-18
1.12975e-18
1.14639e-18
1.10115e-18
9.99481e-19
1.07644e-18
1.13716e-18
1.12351e-18
1.10571e-18
9.91293e-19
1.07358e-18
1.12074e-18
1.1187e-18
1.09231e-18
9.8522e-19
1.07371e-18
1.11374e-18
1.11584e-18
1.08339e-18
9.63798e-19
1.06858e-18
1.08474e-18
1.11073e-18
1.05795e-18
9.47779e-19
1.02461e-18
1.08838e-18
1.07583e-18
1.06062e-18
9.35006e-19
1.01927e-18
1.06253e-18
1.06812e-18
1.03756e-18
9.28664e-19
1.00189e-18
1.04776e-18
1.0479e-18
1.02598e-18
9.09762e-19
9.98807e-19
1.01772e-18
1.04469e-18
1.00081e-18
8.93319e-19
9.5722e-19
1.01829e-18
1.00922e-18
9.98146e-19
8.90438e-19
9.57154e-19
1.00404e-18
1.00221e-18
9.82118e-19
8.80464e-19
9.5525e-19
9.94314e-19
9.97272e-19
9.72658e-19
8.69196e-19
9.44996e-19
9.7469e-19
9.84368e-19
9.53953e-19
8.56635e-19
9.2307e-19
9.62625e-19
9.62914e-19
9.41516e-19
8.44886e-19
9.15046e-19
9.42972e-19
9.51298e-19
9.22382e-19
8.33422e-19
8.93149e-19
9.276e-19
9.28818e-19
9.07639e-19
8.16416e-19
8.87489e-19
9.09939e-19
9.23568e-19
8.90012e-19
8.03188e-19
8.65222e-19
9.09082e-19
9.02719e-19
8.86633e-19
7.87944e-19
8.56948e-19
8.94612e-19
8.93808e-19
8.73998e-19
7.77875e-19
8.46377e-19
8.79935e-19
8.83833e-19
8.61386e-19
7.67966e-19
8.37878e-19
8.70591e-19
8.7457e-19
8.52243e-19
7.5795e-19
8.2748e-19
8.52957e-19
8.62015e-19
8.34956e-19
7.45275e-19
8.06752e-19
8.41098e-19
8.42862e-19
8.23623e-19
7.34118e-19
7.96663e-19
8.23339e-19
8.30598e-19
8.06006e-19
7.21664e-19
7.77357e-19
8.09781e-19
8.11335e-19
7.92956e-19
7.06327e-19
7.70289e-19
7.92745e-19
8.04618e-19
7.77433e-19
6.91945e-19
7.50489e-19
7.88449e-19
7.87189e-19
7.72303e-19
6.83786e-19
7.42247e-19
7.75837e-19
7.77596e-19
7.59899e-19
6.76481e-19
7.37531e-19
7.65296e-19
7.70122e-19
7.49252e-19
6.62554e-19
7.28594e-19
7.46541e-19
7.60747e-19
7.31546e-19
6.48668e-19
7.02204e-19
7.39877e-19
7.38386e-19
7.25455e-19
6.35197e-19
6.91412e-19
7.21208e-19
7.27383e-19
7.09108e-19
6.23724e-19
6.76469e-19
7.07575e-19
7.11469e-19
6.95812e-19
6.0842e-19
6.67659e-19
6.88629e-19
7.00984e-19
6.77892e-19
5.94276e-19
6.43123e-19
6.78982e-19
6.78998e-19
6.68673e-19
5.83788e-19
6.33453e-19
6.64314e-19
6.68089e-19
6.54731e-19
5.72333e-19
6.24063e-19
6.51511e-19
6.56952e-19
6.42001e-19
5.60384e-19
6.11817e-19
6.35642e-19
6.43004e-19
6.26574e-19
5.47356e-19
5.93829e-19
6.21008e-19
6.25266e-19
6.12511e-19
5.36412e-19
5.83052e-19
6.07746e-19
6.12996e-19
5.99596e-19
5.21087e-19
5.68927e-19
5.92259e-19
5.99353e-19
5.8493e-19
5.03354e-19
5.51523e-19
5.77605e-19
5.83049e-19
5.71335e-19
4.91032e-19
5.38416e-19
5.63639e-19
5.69659e-19
5.57891e-19
4.77924e-19
5.25012e-19
5.49667e-19
5.56096e-19
5.44453e-19
4.65696e-19
5.12059e-19
5.35997e-19
5.42827e-19
5.31534e-19
4.52215e-19
4.97747e-19
5.20649e-19
5.28562e-19
5.17164e-19
4.38795e-19
4.82288e-19
5.06806e-19
5.1354e-19
5.0406e-19
4.23914e-19
4.66207e-19
4.8977e-19
4.97102e-19
4.87887e-19
)
;
    }
    axis
    {
        type            empty;
        value           nonuniform 0();
    }
    procBoundary11to5
    {
        type            processor;
        value           nonuniform List<scalar> 
69
(
1.30721e-11
8.12946e-12
4.2419e-12
1.24589e-12
-1.01558e-12
-2.66856e-12
-3.82096e-12
-4.57776e-12
-5.03112e-12
-5.25051e-12
-5.28611e-12
-5.18179e-12
-4.98013e-12
-4.71767e-12
-4.41758e-12
-4.09293e-12
-3.75687e-12
-3.42449e-12
-3.1054e-12
-2.80128e-12
-2.51218e-12
-2.23998e-12
-1.98629e-12
-1.75189e-12
-1.53801e-12
-1.34632e-12
-1.17715e-12
-1.0271e-12
-8.90851e-13
-7.64895e-13
-6.48525e-13
-5.43527e-13
-4.51633e-13
-3.72594e-13
-3.02952e-13
-2.38833e-13
-1.78332e-13
-1.22284e-13
-7.26769e-14
-3.09844e-14
4.69799e-15
3.36659e-14
5.84892e-14
7.8583e-14
9.41192e-14
1.05087e-13
1.10717e-13
1.10674e-13
1.06433e-13
9.94732e-14
9.0318e-14
7.90274e-14
6.60462e-14
5.21144e-14
3.83088e-14
2.6295e-14
1.69225e-14
9.60867e-15
3.51674e-15
-1.30657e-15
-4.44296e-15
-6.70182e-15
-7.85395e-15
-7.3877e-15
5.98265e-11
4.53146e-11
3.31829e-11
-0.000187697
2.32114e-11
)
;
    }
    procBoundary11to10
    {
        type            processor;
        value           nonuniform List<scalar> 4(-0.000220905 -0.000253417 -0.00028493 -0.000315035);
    }
    procBoundary11to16
    {
        type            processor;
        value           nonuniform List<scalar> 2(-0.000343213 -4.23314e-11);
    }
    procBoundary11to17
    {
        type            processor;
        value           nonuniform List<scalar> 
68
(
2.47357e-11
2.60902e-11
2.65138e-11
2.62301e-11
2.54277e-11
2.42594e-11
2.2845e-11
2.12815e-11
1.9651e-11
1.8014e-11
1.64049e-11
1.4845e-11
1.33569e-11
1.19655e-11
1.0682e-11
9.50128e-12
8.41491e-12
7.423e-12
6.52587e-12
5.71493e-12
4.97943e-12
4.31384e-12
3.71769e-12
3.18763e-12
2.7154e-12
2.29164e-12
1.90967e-12
1.56518e-12
1.25683e-12
9.84699e-13
7.45422e-13
5.31511e-13
3.36291e-13
1.57497e-13
-3.37763e-16
-1.37562e-13
-2.53644e-13
-3.49805e-13
-4.25687e-13
-4.80391e-13
-5.1416e-13
-5.28494e-13
-5.24988e-13
-5.04474e-13
-4.6799e-13
-4.18494e-13
-3.60806e-13
-3.00117e-13
-2.40875e-13
-1.85951e-13
-1.36809e-13
-9.46709e-14
-6.06572e-14
-3.46702e-14
-1.53316e-14
-1.2379e-15
1.01437e-14
1.85808e-14
2.48283e-14
2.69333e-14
-2.19136e-11
-5.51922e-12
7.25423e-12
1.69256e-11
2.39519e-11
2.87747e-11
0.000343213
3.17885e-11
)
;
    }
}


// ************************************************************************* //
