/*--------------------------------*- C++ -*----------------------------------*\
  =========                 |
  \\      /  F ield         | OpenFOAM: The Open Source CFD Toolbox
   \\    /   O peration     | Website:  https://openfoam.org
    \\  /    A nd           | Version:  7
     \\/     M anipulation  |
\*---------------------------------------------------------------------------*/
FoamFile
{
    version     2.0;
    format      ascii;
    class       volScalarField;
    location    "11";
    object      p;
}
// * * * * * * * * * * * * * * * * * * * * * * * * * * * * * * * * * * * * * //

dimensions      [0 2 -2 0 0 0 0];

internalField   nonuniform List<scalar> 
433
(
-0.587674
-0.532404
-0.481786
-0.43517
-0.39211
-0.351756
-0.314074
-0.277631
-0.243348
-0.208507
-0.176595
-0.141255
-0.112336
-0.0739702
-0.0511227
-0.00504553
-0.999834
-0.909034
-0.826078
-0.750319
-0.681155
-0.618009
-0.560328
-0.507551
-0.459215
-0.414693
-0.373568
-0.335005
-0.299032
-0.264195
-0.231528
-0.198186
-0.167899
-0.133954
-0.106781
-0.0696275
-0.048875
-0.00358697
-0.949871
-0.863572
-0.784741
-0.71276
-0.647053
-0.587068
-0.532272
-0.482125
-0.4362
-0.393894
-0.354803
-0.318124
-0.283909
-0.250726
-0.219684
-0.187865
-0.15917
-0.126653
-0.101163
-0.0652938
-0.0465482
-0.00215377
-0.900188
-0.818367
-0.743636
-0.675406
-0.613127
-0.55627
-0.504327
-0.456776
-0.413243
-0.373117
-0.33603
-0.301221
-0.26875
-0.237212
-0.207792
-0.177501
-0.150404
-0.119323
-0.0955225
-0.0609522
-0.0442088
-0.000733409
-0.850175
-0.772891
-0.702307
-0.637862
-0.579036
-0.525323
-0.476245
-0.431292
-0.390163
-0.352169
-0.31712
-0.284181
-0.253463
-0.22358
-0.195795
-0.167047
-0.141566
-0.111939
-0.0898482
-0.0565897
-0.0418591
0.000678379
-0.799687
-0.727006
-0.660625
-0.600013
-0.544676
-0.494139
-0.447951
-0.405635
-0.366903
-0.331087
-0.298054
-0.266989
-0.238043
-0.209833
-0.183694
-0.156506
-0.132659
-0.104503
-0.0841357
-0.0522077
-0.0394925
0.00207956
-0.748744
-0.680731
-0.618607
-0.561872
-0.510062
-0.462731
-0.419458
-0.37982
-0.343459
-0.309851
-0.278843
-0.249658
-0.222505
-0.195981
-0.171501
-0.145889
-0.123689
-0.0970217
-0.0783876
-0.0478098
-0.0371079
0.00346757
-0.697388
-0.634104
-0.576286
-0.52347
-0.475221
-0.431122
-0.390791
-0.353845
-0.319876
-0.288473
-0.259503
-0.232209
-0.206856
-0.182033
-0.159229
-0.135202
-0.11466
-0.0894981
-0.0726061
-0.0433984
-0.0347057
0.00484049
-0.645654
-0.587155
-0.533691
-0.484832
-0.440174
-0.39933
-0.361967
-0.327672
-0.296147
-0.266967
-0.240046
-0.214653
-0.191108
-0.167995
-0.146883
-0.12445
-0.105576
-0.081936
-0.0667935
-0.0389753
-0.0322864
0.00619645
-0.593577
-0.539916
-0.49085
-0.445982
-0.404944
-0.367377
-0.332998
-0.301385
-0.272294
-0.245347
-0.220484
-0.197002
-0.175271
-0.153876
-0.134466
-0.11364
-0.0964438
-0.0743393
-0.0609525
-0.0345432
-0.0298505
0.00753345
-0.594493
-0.541193
-0.492418
-0.447789
-0.406944
-0.369552
-0.335295
-0.303855
-0.274963
-0.248333
-0.223629
-0.20083
-0.179265
-0.159356
-0.139687
-0.121986
-0.102778
-0.0872676
-0.0667129
-0.055086
-0.0301047
-0.0273986
0.00884945
-0.536414
-0.488541
-0.444695
-0.404539
-0.367745
-0.334022
-0.303117
-0.274628
-0.248441
-0.22428
-0.201825
-0.181098
-0.161457
-0.143374
-0.125439
-0.109449
-0.0918716
-0.0780536
-0.0590614
-0.0491971
-0.0256626
-0.0249315
0.0101424
-0.478059
-0.43566
-0.396782
-0.361128
-0.32841
-0.298376
-0.270851
-0.245318
-0.221839
-0.200152
-0.17995
-0.161299
-0.143588
-0.127336
-0.111141
-0.0968615
-0.0809283
-0.0688081
-0.0513899
-0.0432891
-0.0212199
-0.02245
0.0114103
-0.419473
-0.382589
-0.348711
-0.317588
-0.288966
-0.262633
-0.238273
-0.215928
-0.195172
-0.175962
-0.15802
-0.141449
-0.125672
-0.111255
-0.0968039
-0.0842393
-0.0699571
-0.0595376
-0.0437039
-0.0373655
-0.0167796
-0.0199552
0.0126511
-0.360705
-0.32937
-0.30052
-0.273947
-0.249438
-0.226824
-0.205842
-0.186484
-0.168458
-0.151728
-0.136048
-0.121561
-0.107722
-0.0951425
-0.0824396
-0.0715926
-0.0589663
-0.0502486
-0.0360087
-0.03143
-0.0123448
-0.0174482
0.0138629
-0.301802
-0.276042
-0.252241
-0.230237
-0.209855
-0.190965
-0.17335
-0.157005
-0.141712
-0.127465
-0.11405
-0.101649
-0.089751
-0.0790107
-0.0680589
-0.0589307
-0.047964
-0.0409482
-0.02831
-0.0254864
-0.00791877
-0.0149301
0.0150437
-0.242812
-0.222648
-0.203911
-0.186488
-0.170243
-0.155054
-0.140826
-0.127508
-0.114952
-0.103189
-0.0920407
-0.0817278
-0.071772
-0.0628719
-0.053673
-0.0462633
-0.036959
-0.031643
-0.0206136
-0.0195386
-0.00350477
-0.0124024
0.0161918
-0.183783
-0.169229
-0.155566
-0.142732
-0.130627
-0.119173
-0.108302
-0.0980124
-0.0881945
-0.0789156
-0.0700343
-0.0618101
-0.053798
-0.0467382
-0.0392931
-0.0336003
-0.0259602
-0.0223405
-0.0129253
-0.0135907
0.000893876
-0.00986632
0.0173055
-0.124765
-0.115827
-0.10724
-0.0989966
-0.0910298
-0.0833103
-0.0757996
-0.0685366
-0.0614559
-0.0546603
-0.0480457
-0.0419102
-0.0358421
-0.0306217
-0.0249303
-0.0209517
-0.0149763
-0.0130478
-0.00525113
-0.00764676
0.00527381
-0.00732338
0.018383
-0.0658054
-0.0624835
-0.0589683
-0.0553135
-0.0514839
-0.0474901
-0.0433371
-0.0390986
-0.034753
-0.0304387
-0.0260895
-0.0220418
)
;

boundaryField
{
    inlet
    {
        type            zeroGradient;
    }
    outlet
    {
        type            fixedValue;
        value           uniform 0;
    }
    cylinder
    {
        type            zeroGradient;
    }
    top
    {
        type            symmetryPlane;
    }
    bottom
    {
        type            symmetryPlane;
    }
    defaultFaces
    {
        type            empty;
    }
    procBoundary17to10
    {
        type            processor;
        value           nonuniform List<scalar> 5(-1.09917 -1.04431 -0.989734 -0.93476 -0.879232);
    }
    procBoundary17to11
    {
        type            processor;
        value           nonuniform List<scalar> 
23
(
-0.622966
-0.564835
-0.511603
-0.462587
-0.417268
-0.374792
-0.334978
-0.296492
-0.260019
-0.223146
-0.188869
-0.151599
-0.120061
-0.0800881
-0.0541225
-0.00708879
-1.04814
-0.953016
-0.8661
-0.786721
-0.714253
-0.648096
-0.648096
)
;
    }
    procBoundary17to16
    {
        type            processor;
        value           nonuniform List<scalar> 
15
(
-0.823174
-0.766632
-0.709645
-0.652251
-0.652251
-0.652724
-0.588676
-0.524296
-0.459637
-0.394753
-0.3297
-0.264534
-0.199312
-0.13409
-0.0689262
)
;
    }
    procBoundary17to23
    {
        type            processor;
        value           nonuniform List<scalar> 
24
(
-0.00695138
-0.00923945
-0.0107845
-0.0117128
-0.0120119
-0.0117371
-0.0109359
-0.00971662
-0.0081021
-0.00626476
-0.00418155
-0.00221702
-0.0179168
-0.0145325
-0.0105932
-0.00832861
-0.00401626
-0.00377146
0.00240233
-0.00171024
0.00963164
-0.00477526
0.0194237
-0.0179168
)
;
    }
}


// ************************************************************************* //
