/*--------------------------------*- C++ -*----------------------------------*\
  =========                 |
  \\      /  F ield         | OpenFOAM: The Open Source CFD Toolbox
   \\    /   O peration     | Website:  https://openfoam.org
    \\  /    A nd           | Version:  7
     \\/     M anipulation  |
\*---------------------------------------------------------------------------*/
FoamFile
{
    version     2.0;
    format      ascii;
    class       volVectorField;
    location    "73";
    object      U;
}
// * * * * * * * * * * * * * * * * * * * * * * * * * * * * * * * * * * * * * //

dimensions      [0 1 -1 0 0 0 0];

internalField   nonuniform List<vector> 
12400
(
(-0.000669279 -0.000307367 -4.68522e-21)
(-0.00387818 -0.000600055 -1.74626e-20)
(-0.0104691 -0.000653604 3.23554e-21)
(-0.0192905 -0.000496816 1.2485e-20)
(-0.0297201 -0.000180048 5.40885e-21)
(-0.04131 0.000242851 -1.33895e-20)
(-0.053634 0.000726657 -4.31323e-21)
(-0.0663313 0.00124225 -1.71493e-21)
(-0.0791135 0.00178187 -1.6007e-20)
(-0.0917548 0.00236017 -3.12058e-21)
(-0.104081 0.00301097 -1.20376e-20)
(-0.115954 0.00378116 1.9867e-21)
(-0.127256 0.00472406 -6.33529e-21)
(-0.137874 0.00589423 1.15004e-20)
(-0.147687 0.00734467 -1.49488e-20)
(-0.156561 0.00912588 -1.60705e-20)
(-0.164367 0.0112868 -4.67881e-21)
(-0.171044 0.0138782 2.56576e-20)
(-0.176546 0.0169407 -2.19772e-20)
(-0.180971 0.0205493 3.17936e-21)
(-0.000749571 0.00143163 6.88155e-21)
(-0.00405627 0.00376676 1.12383e-20)
(-0.0106683 0.00566969 3.65354e-21)
(-0.019453 0.00722432 1.08624e-20)
(-0.0297952 0.00846721 -2.61188e-21)
(-0.0412498 0.00942544 1.67088e-20)
(-0.0533928 0.0101319 6.32792e-21)
(-0.0658637 0.0106289 1.48934e-20)
(-0.0783733 0.0109704 -8.62245e-21)
(-0.0906934 0.0112211 2.10813e-20)
(-0.102646 0.0114519 6.86268e-20)
(-0.114087 0.0117329 -1.16157e-20)
(-0.124892 0.0121284 1.72789e-20)
(-0.134939 0.0126938 -1.05904e-20)
(-0.144097 0.0134776 2.77003e-20)
(-0.152218 0.0145286 -3.28476e-21)
(-0.15915 0.0159093 1.55573e-20)
(-0.16481 0.0177289 -9.54133e-20)
(-0.169105 0.020123 9.56173e-21)
(-0.171867 0.0232961 -1.34219e-20)
(-0.000949883 0.00311726 2.21249e-20)
(-0.00450203 0.00800769 2.33038e-20)
(-0.0111819 0.0118202 -5.31406e-21)
(-0.0199019 0.0147427 -1.18304e-20)
(-0.0300676 0.0168935 -4.71397e-21)
(-0.0412449 0.0183768 1.69105e-20)
(-0.0530182 0.0193008 2.52726e-20)
(-0.0650313 0.0197767 -5.65865e-20)
(-0.0769961 0.0199188 1.64501e-20)
(-0.0886819 0.0198405 -2.09873e-20)
(-0.0999046 0.0196491 -3.63294e-20)
(-0.110512 0.0194379 -7.09024e-21)
(-0.120369 0.0192822 -1.11083e-20)
(-0.12934 0.0192381 -2.55218e-20)
(-0.137277 0.0193488 3.00835e-20)
(-0.144013 0.0196573 -2.87951e-20)
(-0.149353 0.0202301 3.70391e-21)
(-0.153174 0.0212249 9.34994e-20)
(-0.155346 0.0228966 -6.5967e-20)
(-0.155028 0.0254247 5.65965e-20)
(-0.00126153 0.00471247 -1.63882e-20)
(-0.0051983 0.0120358 3.09537e-20)
(-0.0119926 0.0176794 -4.48682e-20)
(-0.0206244 0.0219208 2.10095e-20)
(-0.0305309 0.0249508 -1.15322e-19)
(-0.0412962 0.0269447 -7.14235e-20)
(-0.0525181 0.0280806 4.53782e-20)
(-0.0638487 0.0285351 1.115e-19)
(-0.0750021 0.0284797 -4.62514e-20)
(-0.0857449 0.0280753 -3.21097e-20)
(-0.0958854 0.0274645 -4.62634e-20)
(-0.10526 0.0267641 9.50355e-20)
(-0.113717 0.0260608 1.18394e-19)
(-0.121102 0.0254122 -9.38529e-20)
(-0.127248 0.0248543 -7.68509e-20)
(-0.131957 0.0244205 2.88267e-20)
(-0.134985 0.0241652 -6.40798e-20)
(-0.136129 0.02427 -3.15219e-21)
(-0.135368 0.0251725 1.08329e-19)
(-0.130479 0.0266965 3.62942e-20)
(-0.00167197 0.00618508 6.47533e-20)
(-0.00612004 0.0157742 2.05964e-20)
(-0.0130747 0.0231406 7.14143e-20)
(-0.0216002 0.0286324 -2.17853e-20)
(-0.0311733 0.0325013 1.12372e-19)
(-0.0414011 0.0349848 6.87087e-20)
(-0.0518993 0.0363244 -8.33088e-20)
(-0.0623306 0.036757 -1.08123e-19)
(-0.0724127 0.0365079 1.00112e-19)
(-0.0819085 0.0357829 -2.84244e-20)
(-0.0906163 0.0347591 4.25644e-20)
(-0.0983563 0.0335772 -1.6965e-19)
(-0.104957 0.0323364 5.97149e-20)
(-0.110238 0.0310967 2.24205e-20)
(-0.114003 0.0298873 1.27401e-20)
(-0.116026 0.0287276 4.75247e-20)
(-0.116 0.0276445 1.24959e-19)
(-0.11356 0.02679 3.24813e-21)
(-0.109201 0.0269259 -3.83262e-20)
(-0.0980829 0.0269427 3.77236e-20)
(-0.00216587 0.00750926 4.47542e-20)
(-0.00723608 0.019159 2.22524e-20)
(-0.0143954 0.0281123 -1.16252e-19)
(-0.0228021 0.0347661 -6.97337e-20)
(-0.0319768 0.0394199 -2.77139e-20)
(-0.0415523 0.0423631 9.31014e-20)
(-0.0511645 0.0438931 1.11411e-19)
(-0.0604886 0.0443008 -1.37722e-20)
(-0.0692459 0.043861 -2.67526e-20)
(-0.0771944 0.0428218 -2.33886e-20)
(-0.0841193 0.0413936 -7.62724e-20)
(-0.0898198 0.0397407 1.74695e-19)
(-0.0940963 0.037977 -1.05479e-21)
(-0.0967364 0.036167 -6.89033e-20)
(-0.0975006 0.0343344 -5.96325e-21)
(-0.0961301 0.032485 1.41268e-20)
(-0.0922761 0.030609 4.43358e-20)
(-0.0851828 0.0287293 -1.6523e-19)
(-0.0767085 0.0281496 7.55638e-20)
(-0.0574725 0.0262647 -6.45738e-20)
(-0.00272617 0.00866647 -7.46626e-20)
(-0.00851121 0.0221416 4.34506e-20)
(-0.0159168 0.032521 5.21931e-20)
(-0.0241972 0.0402285 4.5211e-20)
(-0.0329173 0.0455973 9.82595e-20)
(-0.0417357 0.0489588 1.43476e-20)
(-0.0503094 0.0506575 -1.42472e-20)
(-0.0583261 0.051032 4.3241e-20)
(-0.0655099 0.0504016 -6.52274e-20)
(-0.0716119 0.0490534 -6.53775e-21)
(-0.0763997 0.0472294 3.21797e-20)
(-0.0796451 0.0451176 -1.48013e-19)
(-0.0811116 0.0428481 -4.93611e-20)
(-0.080542 0.0404935 4.65008e-20)
(-0.0776393 0.0380761 -1.12384e-19)
(-0.0720935 0.0355911 1.25612e-19)
(-0.0635947 0.0330025 1.54476e-20)
(-0.0505416 0.030104 -1.8692e-20)
(-0.0373534 0.0287063 -2.0662e-19)
(-0.00812614 0.0253132 1.21236e-19)
(-0.00333548 0.00964601 -2.94634e-20)
(-0.00990843 0.0246899 -3.22774e-20)
(-0.0175972 0.0363132 -1.53765e-19)
(-0.0257471 0.0449459 -6.87643e-20)
(-0.0339633 0.0509425 -2.361e-19)
(-0.041928 0.0546666 -2.01146e-20)
(-0.0493176 0.0565012 -1.1916e-19)
(-0.0558314 0.0568262 -8.58768e-20)
(-0.061194 0.0560001 1.90917e-19)
(-0.0651457 0.0543451 3.26996e-20)
(-0.067431 0.0521327 8.25298e-20)
(-0.0677855 0.0495744 1.04809e-19)
(-0.0659235 0.0468177 -3.58336e-20)
(-0.0615282 0.0439477 -1.20175e-19)
(-0.0542242 0.0409913 1.09329e-19)
(-0.0436033 0.037938 1.03897e-19)
(-0.0295504 0.034738 -1.05241e-19)
(-0.00910252 0.0311047 1.48463e-19)
(0.00989064 0.0286644 2.32393e-19)
(0.0510497 0.0240604 6.52567e-20)
(-0.00397717 0.010445 7.84298e-20)
(-0.011391 0.0267884 9.54924e-20)
(-0.0193933 0.0394556 4.70722e-20)
(-0.0274083 0.0488662 1.1821e-19)
(-0.0350743 0.0553849 5.49689e-20)
(-0.0420921 0.0593992 1.46905e-19)
(-0.0481545 0.0613237 1.28451e-19)
(-0.0529686 0.0615726 -5.1323e-20)
(-0.0562557 0.0605387 -8.33526e-20)
(-0.0577398 0.0585751 1.50422e-19)
(-0.0571336 0.0559803 -9.57951e-20)
(-0.0541249 0.0529885 7.08662e-20)
(-0.0483632 0.0497662 9.71462e-20)
(-0.0394525 0.0464146 1.08364e-19)
(-0.0269181 0.0429733 -3.20177e-19)
(-0.0101776 0.0394425 -1.52956e-19)
(0.0105731 0.0357561 -4.16576e-20)
(0.0401522 0.0316553 1.77849e-19)
(0.0655704 0.0285209 -3.89884e-19)
(0.12298 0.0226032 -1.4832e-19)
(-0.00463656 0.0110678 1.16388e-19)
(-0.0129243 0.0284373 -1.41927e-19)
(-0.0212606 0.0419351 -1.50123e-19)
(-0.0291316 0.0519582 -1.56972e-19)
(-0.0361983 0.0588747 -9.81001e-20)
(-0.042173 0.0630897 -2.35882e-20)
(-0.046759 0.0650432 -1.62515e-19)
(-0.0496659 0.0651782 2.04127e-19)
(-0.0506053 0.0639167 5.96048e-20)
(-0.0492757 0.061639 5.87626e-20)
(-0.0453467 0.0586679 -2.40401e-19)
(-0.0384426 0.0552596 3.72718e-20)
(-0.0281269 0.0516008 -3.0116e-20)
(-0.0138987 0.047813 -1.02575e-20)
(0.00483742 0.0439572 -1.20386e-19)
(0.0289372 0.0400675 1.5788e-19)
(0.057579 0.0360236 -3.46883e-20)
(0.0988543 0.0317167 -3.97877e-19)
(0.130677 0.0284395 5.65452e-20)
(0.209888 0.0219091 2.77277e-19)
(-0.00530161 0.0115251 8.29399e-20)
(-0.0144767 0.0296508 -2.7152e-20)
(-0.0231544 0.0437568 1.57545e-19)
(-0.0308612 0.0542119 7.95019e-20)
(-0.0372681 0.0613843 1.14864e-19)
(-0.0420903 0.0656934 1.08058e-20)
(-0.0450337 0.0676002 2.20775e-19)
(-0.0458018 0.0675726 -2.00477e-19)
(-0.0440863 0.0660573 -9.20723e-20)
(-0.0395478 0.0634586 -3.77176e-20)
(-0.0317958 0.0601216 2.39187e-19)
(-0.02037 0.0563243 -4.244e-20)
(-0.00472188 0.0522759 3.6456e-20)
(0.0157854 0.0481228 1.51794e-19)
(0.04188 0.0439536 1.46627e-19)
(0.0748504 0.0398817 -2.57395e-19)
(0.112676 0.0355627 -1.43815e-19)
(0.16867 0.0317588 7.82292e-20)
(0.206672 0.0280941 2.49934e-19)
(0.313549 0.0229354 -3.32222e-20)
(-0.00596337 0.0118322 -1.09823e-19)
(-0.0160205 0.0304541 -6.15726e-20)
(-0.0250285 0.0449413 -8.59842e-20)
(-0.0325317 0.0556358 -8.39027e-20)
(-0.038197 0.0629072 9.63448e-20)
(-0.0417317 0.0671889 -1.8804e-19)
(-0.0428335 0.0689612 1.86415e-19)
(-0.0411885 0.0687138 1.28315e-20)
(-0.0364537 0.0669157 -1.6123e-19)
(-0.0282337 0.0639927 -3.70909e-20)
(-0.0160552 0.0603122 -1.51899e-19)
(0.000653934 0.056175 6.92922e-20)
(0.022585 0.0518174 -4.80786e-20)
(0.0505455 0.0474175 -2.92534e-19)
(0.085386 0.043093 1.38914e-20)
(0.128998 0.0391437 9.2516e-20)
(0.177509 0.0345449 2.04844e-19)
(0.251151 0.0324473 3.59637e-19)
(0.295308 0.0275943 6.1592e-20)
(0.434292 0.0262753 -3.88803e-19)
(-0.00661591 0.0120073 -1.51857e-19)
(-0.0175304 0.0308798 -2.19891e-20)
(-0.026834 0.0455212 3.07158e-19)
(-0.0340652 0.0562548 -1.38964e-19)
(-0.0388724 0.0634576 7.09449e-21)
(-0.0409431 0.0675798 -1.358e-19)
(-0.0399534 0.0691218 -1.31198e-19)
(-0.0355552 0.0685942 2.13589e-20)
(-0.0273517 0.0664876 7.0579e-20)
(-0.0148664 0.0632496 2.6351e-19)
(0.00248576 0.0592713 -8.40313e-20)
(0.0254207 0.0548811 -3.62547e-19)
(0.054803 0.0503495 2.59378e-19)
(0.0916396 0.045898 2.26073e-19)
(0.136863 0.041662 1.48141e-19)
(0.19303 0.0383147 3.74119e-19)
(0.254028 0.0334731 -1.22138e-19)
(0.347101 0.0344518 -5.6459e-19)
(0.398413 0.0278322 9.16232e-20)
(0.569604 0.0322752 1.07524e-19)
(-0.00725566 0.0120695 -7.90006e-20)
(-0.0189826 0.0309642 1.05473e-19)
(-0.0285156 0.0455369 -1.06964e-19)
(-0.0353661 0.0561066 1.70783e-19)
(-0.0391499 0.0630684 -1.97718e-19)
(-0.0395205 0.066895 1.84249e-19)
(-0.0361154 0.0681099 3.68447e-20)
(-0.0285318 0.0672469 -2.00336e-19)
(-0.0162928 0.0648195 1.68684e-19)
(0.00118973 0.0613005 -1.83708e-19)
(0.0246463 0.0571097 2.2933e-19)
(0.0549687 0.0526115 1.24427e-19)
(0.0932135 0.0481214 1.00667e-19)
(0.140585 0.043921 -1.54012e-19)
(0.198024 0.0401365 -2.54857e-20)
(0.268512 0.0380048 -1.97716e-19)
(0.344041 0.0333151 1.38268e-19)
(0.455849 0.0382019 6.1567e-21)
(0.516872 0.0303643 -2.44643e-19)
(0.713231 0.0411874 1.06067e-19)
(-0.00788031 0.0120368 1.7812e-20)
(-0.0203517 0.0307428 6.7614e-20)
(-0.0300084 0.0450318 1.48586e-20)
(-0.0363168 0.0552382 5.68429e-20)
(-0.0388464 0.0617898 1.36403e-19)
(-0.0372007 0.0651889 1.28763e-19)
(-0.0309585 0.0659886 9.20272e-20)
(-0.019636 0.064751 1.16138e-19)
(-0.00264478 0.0620178 -2.36009e-19)
(0.0207494 0.0582928 -3.47136e-20)
(0.0514552 0.0540341 -3.7803e-19)
(0.0905602 0.0496541 -1.18971e-19)
(0.1393 0.045527 -1.36154e-19)
(0.199003 0.0420116 2.23852e-19)
(0.270489 0.0392005 -3.51775e-19)
(0.35648 0.0388789 6.8236e-20)
(0.448283 0.0354044 2.70391e-20)
(0.574907 0.0438921 3.4892e-19)
(0.648803 0.0366722 -1.72434e-19)
(0.855669 0.0529721 1.3164e-19)
(-0.00848717 0.011924 2.36629e-19)
(-0.0216068 0.0302464 8.60253e-20)
(-0.0312319 0.0440477 1.57857e-19)
(-0.0367718 0.053704 1.4421e-19)
(-0.0377334 0.0596865 2.45861e-20)
(-0.0336552 0.0625401 -3.12847e-19)
(-0.0240315 0.0628579 -2.31418e-19)
(-0.00826754 0.0612373 -2.10765e-19)
(0.0143708 0.0582563 1.99628e-19)
(0.0447964 0.0544607 1.21033e-19)
(0.0841157 0.05036 4.3115e-19)
(0.133599 0.0464286 -3.53902e-19)
(0.194585 0.0431106 1.32326e-19)
(0.268332 0.0408458 -2.52427e-19)
(0.355304 0.0397087 1.88534e-19)
(0.456932 0.0416189 -6.75826e-20)
(0.565201 0.0409233 9.09892e-20)
(0.700088 0.0517212 -3.20869e-19)
(0.787942 0.0473193 2.67002e-19)
(0.98624 0.0668422 1.16498e-19)
(-0.0090716 0.0117411 -3.27293e-19)
(-0.022709 0.0294984 1.34994e-19)
(-0.0320866 0.0426251 -2.14654e-19)
(-0.0365509 0.0515599 -2.03378e-19)
(-0.0355339 0.0568334 7.44351e-20)
(-0.028486 0.0590515 3.74366e-19)
(-0.0147918 0.058856 -2.7428e-19)
(0.00628668 0.0568904 3.49241e-20)
(0.0356609 0.0537818 -7.88712e-20)
(0.074442 0.0501321 -7.77266e-20)
(0.123922 0.0465166 2.02392e-19)
(0.185479 0.0434836 4.47171e-19)
(0.260371 0.041548 -1.67024e-20)
(0.349435 0.041198 3.8196e-20)
(0.452348 0.0425403 -1.50015e-20)
(0.568274 0.0469383 -2.5319e-19)
(0.690234 0.0503126 2.47014e-19)
(0.825745 0.0618725 3.90097e-19)
(0.923933 0.0616376 1.12425e-19)
(1.09586 0.0812108 -2.14871e-19)
(-0.00962453 0.0114929 -8.49037e-20)
(-0.0236045 0.0285143 2.76154e-19)
(-0.0324499 0.0407965 -8.84794e-21)
(-0.0354388 0.0488591 1.96138e-19)
(-0.0319176 0.0533173 9.1639e-20)
(-0.0212269 0.0548491 8.88931e-20)
(-0.00261357 0.0541586 -1.11218e-19)
(0.0248328 0.0519503 1.91349e-19)
(0.0622202 0.0489151 3.3302e-20)
(0.110848 0.0457267 -1.16283e-19)
(0.172121 0.0430382 -6.76737e-20)
(0.247351 0.0414727 -3.0616e-19)
(0.337392 0.0415933 -3.08533e-19)
(0.44214 0.0438514 7.23892e-20)
(0.559827 0.0483766 -2.61282e-20)
(0.686855 0.0554359 -1.02986e-19)
(0.816295 0.0631131 -3.36081e-19)
(0.94509 0.0741443 -4.04226e-19)
(1.04526 0.0780524 -4.69901e-19)
(1.17926 0.0942306 5.01046e-20)
(-0.0101305 0.0111779 1.73049e-20)
(-0.0242234 0.027298 -2.49751e-19)
(-0.0321696 0.0385837 -2.36663e-19)
(-0.0331811 0.0456573 -1.58885e-19)
(-0.026505 0.0492343 2.86814e-19)
(-0.0113518 0.0500806 -6.21262e-19)
(0.0131943 0.048979 1.27288e-19)
(0.048234 0.0467104 -7.3539e-20)
(0.0950639 0.0440464 2.11814e-19)
(0.155108 0.0417452 2.61862e-20)
(0.229725 0.0405396 -3.28434e-19)
(0.319848 0.0411039 1.43933e-19)
(0.425442 0.0439861 4.52492e-20)
(0.544828 0.0494625 1.43093e-19)
(0.674087 0.0575192 -1.52287e-19)
(0.806939 0.067239 2.69129e-19)
(0.935355 0.0782066 -1.14691e-19)
(1.05117 0.0877723 5.92477e-20)
(1.14315 0.0947355 -4.07002e-20)
(1.23591 0.104427 -1.57162e-19)
(-0.0105658 0.0107887 2.7637e-19)
(-0.0244755 0.0258439 -5.21756e-20)
(-0.0310643 0.0360044 -3.33085e-20)
(-0.0294844 0.0420091 1.91669e-19)
(-0.0188718 0.0446893 -9.80448e-20)
(0.00171155 0.0449156 5.61042e-19)
(0.0333591 0.0435657 2.63261e-20)
(0.0773565 0.0415138 1.73992e-19)
(0.135136 0.0396259 -2.93955e-19)
(0.208102 0.0387479 -2.25222e-19)
(0.297287 0.0396724 3.33241e-19)
(0.40279 0.0430617 -2.73978e-19)
(0.523065 0.0493262 2.22098e-19)
(0.654244 0.058387 -3.95714e-20)
(0.789864 0.0698044 6.77407e-19)
(0.921565 0.0817468 -1.38361e-20)
(1.04037 0.09416 2.32177e-19)
(1.13861 0.101742 3.34382e-19)
(1.21405 0.110023 1.99433e-19)
(1.26921 0.110718 3.17422e-19)
(-0.0108974 0.0103143 1.3416e-19)
(-0.0242481 0.0241404 -3.018e-19)
(-0.0289227 0.033072 1.0212e-19)
(-0.0240207 0.0379714 1.67421e-19)
(-0.00855862 0.0397989 1.41703e-19)
(0.0185609 0.0395461 -4.08431e-19)
(0.0586052 0.0382016 1.8489e-19)
(0.113001 0.0367468 8.47896e-20)
(0.183195 0.0361473 3.66132e-20)
(0.270327 0.0373209 1.52462e-19)
(0.374682 0.0410635 -8.93547e-20)
(0.494942 0.0479073 2.77652e-19)
(0.627428 0.05794 -2.32828e-19)
(0.765705 0.0705314 -2.39058e-19)
(0.901042 0.0845917 -4.11343e-19)
(1.02415 0.0977426 -1.29628e-19)
(1.12677 0.109628 -2.79093e-19)
(1.20506 0.115171 -3.06647e-19)
(1.25958 0.122213 -2.75733e-19)
(1.28609 0.112592 -1.52085e-19)
(-0.0110831 0.00974077 2.04964e-19)
(-0.0234067 0.0221732 -5.30212e-20)
(-0.0255047 0.0298008 -1.41572e-19)
(-0.0164329 0.0336084 -4.59907e-19)
(0.00491484 0.0346955 -3.66764e-20)
(0.0397918 0.0341893 4.9005e-19)
(0.0896053 0.0332026 -1.10746e-19)
(0.155825 0.0328304 9.56877e-20)
(0.239699 0.0341262 2.28636e-19)
(0.341731 0.0380317 6.86461e-20)
(0.460923 0.0452384 -4.45826e-19)
(0.593924 0.0559712 -1.10585e-19)
(0.734485 0.0697746 -7.74495e-20)
(0.873766 0.0853172 2.21136e-19)
(1.00182 0.100852 6.36266e-19)
(1.1101 0.113815 -2.00452e-19)
(1.19309 0.123733 -1.31179e-19)
(1.25117 0.127171 3.3756e-19)
(1.28508 0.129937 1.83218e-19)
(1.30369 0.121228 7.88739e-20)
(-0.0110714 0.00905427 -2.20005e-19)
(-0.0217963 0.0199307 1.62577e-19)
(-0.0205458 0.0262127 -3.32826e-19)
(-0.00634404 0.0289983 3.76076e-20)
(0.022032 0.0295331 2.33832e-19)
(0.0659658 0.0290913 -4.97626e-19)
(0.126927 0.028916 -5.23619e-19)
(0.206252 0.0302084 9.56383e-21)
(0.304676 0.0340707 -3.13845e-19)
(0.421581 0.0413738 -2.22481e-19)
(0.554085 0.0525389 3.55963e-19)
(0.696318 0.0672642 5.67488e-19)
(0.839482 0.0843619 -2.22687e-19)
(0.9732 0.101795 -1.40876e-19)
(1.08794 0.117398 -3.54408e-19)
(1.17758 0.128839 2.48478e-20)
(1.2405 0.136078 -1.26562e-20)
(1.27995 0.136757 -1.26863e-20)
(1.3 0.136885 3.64436e-20)
(1.30975 0.126891 4.68146e-19)
(-0.0108015 0.00824333 2.20902e-19)
(-0.0192437 0.0174099 2.44762e-19)
(-0.0137635 0.0223447 3.23282e-19)
(0.00663088 0.0242417 1.28719e-19)
(0.0432581 0.0244949 -1.76757e-19)
(0.0975734 0.0245309 -1.24293e-19)
(0.170971 0.0257178 -1.76942e-20)
(0.264394 0.0293317 1.79564e-19)
(0.377635 0.0364438 1.66394e-19)
(0.508391 0.047705 1.07339e-19)
(0.65137 0.0630498 -1.32012e-20)
(0.798047 0.0814403 -2.72259e-19)
(0.937731 0.100893 2.20126e-19)
(1.05998 0.11887 -3.27411e-20)
(1.15737 0.133198 1.01924e-19)
(1.22734 0.142207 4.44732e-20)
(1.27186 0.146422 -3.40798e-20)
(1.29655 0.144682 8.73787e-20)
(1.30627 0.14243 -6.70066e-20)
(1.30967 0.131829 -4.64659e-19)
(-0.0102056 0.00730156 1.15651e-19)
(-0.0155613 0.0146223 -4.41133e-19)
(-0.00486442 0.0182567 2.17844e-19)
(0.0228709 0.0194698 9.13152e-20)
(0.0690156 0.0198 -2.69232e-19)
(0.134994 0.0208221 2.63974e-19)
(0.221915 0.0240048 1.49314e-19)
(0.329968 0.0306337 -3.59054e-19)
(0.457493 0.041619 4.40616e-20)
(0.599951 0.0571873 -6.92924e-20)
(0.749361 0.0765588 1.64678e-19)
(0.894954 0.0978411 -1.25357e-19)
(1.02541 0.11839 -1.91594e-19)
(1.13188 0.135554 2.84187e-19)
(1.2103 0.147593 -1.38684e-19)
(1.26175 0.15372 5.59554e-20)
(1.29096 0.155054 -1.3175e-19)
(1.30452 0.151246 1.03794e-21)
(1.30736 0.147256 -1.18137e-19)
(1.30719 0.136197 1.29107e-19)
(-0.0092101 0.00622984 -2.87355e-20)
(-0.0105528 0.0115996 -1.3137e-19)
(0.0064456 0.014039 -1.4833e-19)
(0.0427319 0.014852 8.57665e-20)
(0.0996561 0.0157086 -2.52464e-20)
(0.178452 0.0183126 1.60879e-19)
(0.279654 0.0241809 1.15178e-19)
(0.402248 0.034499 1.1075e-19)
(0.54258 0.0498313 3.64783e-20)
(0.693484 0.0697449 9.7477e-20)
(0.844442 0.0925731 1.65417e-19)
(0.983441 0.115623 3.65362e-20)
(1.10011 0.135923 -8.30911e-20)
(1.18858 0.151152 6.31325e-20)
(1.24847 0.160316 2.07406e-19)
(1.28392 0.163532 -3.73932e-19)
(1.30121 0.162335 1.19985e-19)
(1.30692 0.156929 1.39843e-19)
(1.30542 0.151609 4.63086e-20)
(1.3027 0.140292 9.15123e-20)
(-0.00773727 0.00503807 -4.61418e-20)
(-0.0040185 0.00839777 2.86679e-19)
(0.0204499 0.00981791 1.00789e-19)
(0.0665274 0.0106003 -3.09703e-19)
(0.135429 0.0125222 -8.34435e-20)
(0.227976 0.017375 1.58598e-19)
(0.343752 0.0266344 7.7713e-20)
(0.48004 0.0412248 2.72932e-19)
(0.630725 0.0611353 -1.034e-20)
(0.785928 0.0850582 1.32815e-20)
(0.933291 0.110402 -1.40196e-19)
(1.06097 0.133924 -2.20714e-19)
(1.16101 0.152769 -2.37096e-20)
(1.23116 0.165311 -1.39228e-19)
(1.27443 0.171416 1.16665e-19)
(1.29693 0.171956 5.66955e-19)
(1.30544 0.168672 2.21237e-19)
(1.30586 0.162068 -2.15851e-19)
(1.30164 0.155732 -1.06902e-19)
(1.29744 0.144269 4.35902e-20)
(-0.00570745 0.00374664 2.27713e-19)
(0.0042369 0.00510065 -3.49922e-19)
(0.0374074 0.0057593 -3.34772e-19)
(0.0945054 0.00697111 4.57635e-19)
(0.176451 0.0105793 1.37905e-19)
(0.283356 0.0183918 -8.60315e-20)
(0.413417 0.0317082 -2.49981e-19)
(0.561722 0.050981 -3.12284e-19)
(0.719425 0.075384 2.10239e-19)
(0.874302 0.102607 3.74701e-20)
(1.01331 0.129281 1.12535e-19)
(1.12627 0.152016 9.2962e-20)
(1.20858 0.16849 -5.19302e-21)
(1.26161 0.17797 -6.24887e-20)
(1.29086 0.181127 -1.25772e-19)
(1.30341 0.179355 -3.39197e-19)
(1.30571 0.174408 -1.33063e-19)
(1.30267 0.166918 4.43701e-19)
(1.29683 0.159762 7.36153e-20)
(1.29161 0.148233 -1.08429e-19)
(-0.00304136 0.00238729 -2.38199e-19)
(0.0143967 0.00182158 2.46874e-19)
(0.0575374 0.00206905 5.50099e-21)
(0.126825 0.00426134 -1.0369e-19)
(0.222669 0.0102433 -3.34876e-20)
(0.344115 0.021731 -2.98731e-20)
(0.487503 0.0396645 -1.84106e-19)
(0.645337 0.0637814 2.23775e-19)
(0.806101 0.0922415 -3.72695e-19)
(0.956058 0.121758 1.10125e-21)
(1.08288 0.148505 -6.71995e-20)
(1.17923 0.169387 -3.34328e-20)
(1.24421 0.182913 7.67991e-20)
(1.28218 0.189267 -1.70175e-19)
(1.30019 0.189758 -9.69176e-21)
(1.3054 0.186063 9.32962e-20)
(1.30346 0.179806 -2.28204e-19)
(1.2982 0.171643 -2.66624e-21)
(1.29138 0.163792 -1.90571e-22)
(1.28547 0.152221 1.91535e-19)
(0.000337274 0.00100366 3.48523e-20)
(0.0266227 -0.00129648 6.83065e-20)
(0.0810026 -0.0010095 1.34192e-19)
(0.163532 0.00279995 -7.33708e-20)
(0.27384 0.011885 -2.37611e-19)
(0.409498 0.0277182 6.23567e-20)
(0.564557 0.050654 1.41041e-19)
(0.728753 0.0794742 7.8154e-20)
(0.888369 0.111231 2.63002e-19)
(1.02933 0.141863 -7.21649e-20)
(1.14136 0.167511 -4.3159e-20)
(1.22064 0.185755 3.67124e-20)
(1.26969 0.196068 -1.04881e-19)
(1.29506 0.199444 -1.44919e-19)
(1.30441 0.197618 -9.41137e-20)
(1.30437 0.192351 7.70866e-20)
(1.2996 0.185052 1.9398e-19)
(1.29294 0.176346 -9.38736e-20)
(1.28552 0.167862 -1.45536e-19)
(1.27909 0.156257 2.14887e-20)
(0.00449858 -0.000348637 6.24276e-20)
(0.0410453 -0.00408249 1.42516e-20)
(0.107893 -0.00320132 -1.8133e-19)
(0.204537 0.00293505 2.40431e-19)
(0.32951 0.0158598 5.35066e-20)
(0.47849 0.0366068 -2.82434e-19)
(0.642905 0.0646945 1.07921e-19)
(0.809856 0.0977604 -1.41875e-19)
(0.964271 0.131807 6.9621e-21)
(1.09305 0.162347 2.33109e-20)
(1.18895 0.185922 6.72456e-20)
(1.25179 0.201033 7.65235e-21)
(1.28692 0.208108 2.94565e-19)
(1.30215 0.208771 1.15955e-19)
(1.30503 0.204979 -5.41565e-20)
(1.30133 0.198421 -6.3243e-20)
(1.2947 0.190267 3.63862e-20)
(1.28715 0.181082 3.62599e-20)
(1.27935 0.171997 -5.9939e-20)
(1.27251 0.160345 -6.81495e-20)
(0.00950285 -0.00160226 -7.32922e-20)
(0.0577534 -0.0063405 4.69799e-21)
(0.138208 -0.00420848 3.71205e-20)
(0.249601 0.00501717 -1.01376e-19)
(0.389016 0.0224836 1.9725e-19)
(0.549852 0.0485534 1.12725e-19)
(0.720783 0.0816676 -1.14991e-19)
(0.88674 0.118236 -7.59921e-20)
(1.03242 0.15343 6.86639e-20)
(1.14688 0.182764 -1.06218e-19)
(1.22642 0.203533 7.87267e-20)
(1.27424 0.215272 -1.70782e-21)
(1.29766 0.219246 2.34133e-21)
(1.30498 0.217505 -5.70388e-20)
(1.30315 0.212053 1.61895e-19)
(1.29695 0.204413 -1.29092e-20)
(1.2891 0.19552 6.7532e-20)
(1.28096 0.185876 -9.77189e-20)
(1.2729 0.1762 7.499e-20)
(1.26574 0.16448 -2.85449e-20)
(0.0153966 -0.00267917 1.21567e-19)
(0.0767837 -0.00785474 1.46961e-19)
(0.171847 -0.00372146 1.09129e-19)
(0.298326 0.00938047 -1.58426e-20)
(0.451498 0.0320087 2.29352e-20)
(0.6222 0.0636027 1.9307e-21)
(0.796466 0.101335 2.4934e-19)
(0.957852 0.140445 -7.38664e-20)
(1.09202 0.175621 5.14718e-20)
(1.19105 0.202804 -2.59807e-19)
(1.25491 0.220282 3.78071e-20)
(1.28951 0.228606 1.11692e-19)
(1.3034 0.229708 -5.07943e-20)
(1.3047 0.225864 1.02988e-19)
(1.29952 0.218996 -1.3239e-19)
(1.29161 0.210414 1.78625e-19)
(1.28296 0.200848 5.31344e-21)
(1.27444 0.190736 -5.77072e-20)
(1.2662 0.180469 2.61161e-21)
(1.25878 0.168653 8.77376e-20)
(0.0222088 -0.00349207 -2.30551e-19)
(0.0981121 -0.00839613 5.98466e-20)
(0.208597 -0.00143235 -2.26907e-20)
(0.350156 0.0163233 -1.68923e-19)
(0.515939 0.0446052 -6.17718e-20)
(0.694086 0.0816854 -1.19819e-19)
(0.868404 0.123371 -1.03278e-19)
(1.02208 0.163932 -1.10971e-19)
(1.14281 0.197997 1.13094e-19)
(1.22624 0.222289 5.52551e-20)
(1.27566 0.236204 -1.61007e-19)
(1.29901 0.241207 -3.92553e-20)
(1.30533 0.239699 -1.85529e-20)
(1.30216 0.234017 -7.73407e-20)
(1.29462 0.225913 -1.30476e-20)
(1.28557 0.216474 -3.1215e-20)
(1.27639 0.206262 -1.23283e-19)
(1.2676 0.195654 6.01965e-20)
(1.25924 0.184792 7.14237e-20)
(1.25161 0.17285 -1.77095e-20)
(0.0299466 -0.00394664 8.68822e-21)
(0.121647 -0.00773043 -1.08471e-19)
(0.248131 0.00295067 5.04108e-20)
(0.404396 0.02609 -3.50681e-20)
(0.581214 0.060349 4.3554e-20)
(0.764102 0.102628 1.97919e-19)
(0.935311 0.147396 -8.6547e-20)
(1.07874 0.18828 2.12718e-19)
(1.18499 0.220275 1.01405e-20)
(1.25333 0.241142 1.03672e-19)
(1.28989 0.251394 9.01303e-21)
(1.30393 0.253249 6.97578e-20)
(1.30438 0.24939 1.38936e-20)
(1.29795 0.242083 6.93915e-21)
(1.28876 0.232865 -9.86717e-20)
(1.27895 0.222611 1.71258e-20)
(1.26942 0.211756 8.78887e-20)
(1.26045 0.200616 4.49171e-21)
(1.25201 0.189155 -4.21161e-20)
(1.24422 0.177055 1.69187e-20)
(0.0385928 -0.0039444 2.90544e-20)
(0.147223 -0.00562753 8.92213e-20)
(0.290012 0.00968867 9.61102e-20)
(0.460232 0.0388559 -2.5855e-20)
(0.646149 0.0792176 1.25706e-19)
(0.830958 0.126175 -2.5168e-20)
(0.996218 0.173017 2.04107e-19)
(1.12756 0.213134 -2.57318e-19)
(1.21901 0.242263 -4.51621e-20)
(1.27329 0.259359 -4.48739e-20)
(1.29873 0.265972 -5.35454e-20)
(1.30523 0.264892 -1.26499e-20)
(1.30121 0.258912 1.74963e-20)
(1.29244 0.25014 -6.31358e-20)
(1.28214 0.239882 6.559e-20)
(1.27182 0.228827 -2.7968e-20)
(1.26206 0.217315 -2.16838e-20)
(1.25297 0.205605 -1.86038e-20)
(1.2445 0.193542 -1.11771e-20)
(1.2366 0.181247 -3.63446e-20)
(0.0481028 -0.00338623 1.3838e-19)
(0.174604 -0.00187159 -1.38265e-19)
(0.333701 0.018998 1.65472e-20)
(0.51677 0.0547163 -1.71391e-20)
(0.709587 0.101095 -4.6209e-20)
(0.893546 0.15201 -9.43142e-20)
(1.05048 0.19985 -1.39635e-20)
(1.16859 0.238202 6.27842e-20)
(1.24554 0.263847 2.84784e-20)
(1.28709 0.276982 -3.4276e-20)
(1.30314 0.280061 3.83647e-20)
(1.30366 0.276263 -8.60867e-21)
(1.29631 0.268355 -7.38176e-20)
(1.28588 0.258229 1.06186e-19)
(1.27483 0.246968 2.89991e-20)
(1.26419 0.235107 -1.45249e-20)
(1.2543 0.222916 1.79165e-20)
(1.24517 0.210596 2.74202e-20)
(1.2367 0.197931 2.64608e-20)
(1.22873 0.185406 2.73182e-20)
(0.0584041 -0.00217628 -1.44673e-19)
(0.203484 0.00372866 1.16478e-19)
(0.378579 0.031038 5.10729e-20)
(0.57307 0.0736812 -1.04756e-19)
(0.770442 0.125781 -2.29001e-20)
(0.950981 0.179781 -8.67082e-20)
(1.09774 0.227544 3.46147e-20)
(1.2021 0.263259 -5.71145e-20)
(1.2653 0.284965 4.30678e-21)
(1.29564 0.29407 8.97414e-21)
(1.30391 0.29377 1.65938e-20)
(1.29978 0.287456 -6.24101e-20)
(1.29 0.27777 6.2632e-20)
(1.27844 0.266362 -4.43265e-20)
(1.2669 0.254109 -1.23818e-20)
(1.25607 0.241425 5.6142e-21)
(1.24613 0.228527 -1.22263e-20)
(1.23701 0.215563 -2.67327e-20)
(1.22859 0.202298 -1.35389e-21)
(1.2206 0.189506 -1.73758e-20)
(0.0693957 -0.000226217 -1.82123e-20)
(0.233492 0.0113302 -5.51004e-20)
(0.42396 0.0459016 -1.87774e-20)
(0.628194 0.0956747 2.99444e-20)
(0.827745 0.153009 -1.89915e-20)
(1.00261 0.209125 1.95034e-20)
(1.13789 0.25578 4.51054e-20)
(1.22852 0.28813 3.96122e-20)
(1.27905 0.30559 3.10521e-20)
(1.29969 0.310687 -6.57979e-21)
(1.30167 0.307182 -1.75391e-20)
(1.294 0.298532 2.04606e-20)
(1.28249 0.287179 -9.99785e-21)
(1.27018 0.274529 1.20869e-20)
(1.25837 0.261279 -7.27282e-21)
(1.24747 0.247748 1.49372e-20)
(1.23754 0.234117 -3.98384e-21)
(1.22849 0.220479 1.70013e-20)
(1.22018 0.206617 -3.47475e-21)
(1.21219 0.193522 2.7886e-21)
(0.0809502 0.00254067 -4.35715e-22)
(0.264205 0.0210468 -2.00686e-22)
(0.469127 0.0636094 -6.60954e-21)
(0.681236 0.12054 3.33025e-20)
(0.880674 0.18246 2.14008e-20)
(1.04798 0.239677 -1.63858e-20)
(1.17103 0.284279 -1.22333e-20)
(1.24837 0.312681 -3.7388e-21)
(1.28748 0.325713 -1.7523e-20)
(1.29993 0.326888 -1.09433e-21)
(1.29691 0.320355 6.41846e-22)
(1.28661 0.309517 -7.16496e-21)
(1.27392 0.296575 -4.52239e-21)
(1.26116 0.2827 -9.95836e-21)
(1.24922 0.268439 -1.01567e-20)
(1.23835 0.254038 -7.64955e-22)
(1.22852 0.239648 3.46974e-21)
(1.2196 0.225313 3.51611e-21)
(1.21144 0.21086 3.99046e-21)
(1.20352 0.197426 5.2965e-21)
(0.0929163 0.00618551 2.2331e-20)
(0.295161 0.0329427 -3.65864e-21)
(0.513347 0.0841063 -6.34354e-21)
(0.731361 0.148045 1.60545e-20)
(0.928567 0.213777 3.19046e-20)
(1.08687 0.27108 -1.40567e-20)
(1.19738 0.312796 -1.12851e-20)
(1.26219 0.336807 -2.05571e-20)
(1.29122 0.345329 -1.78809e-20)
(1.29689 0.342706 3.43337e-21)
(1.28999 0.333316 -2.81535e-21)
(1.27781 0.32041 -1.05832e-21)
(1.26436 0.305931 -6.2289e-21)
(1.25138 0.290835 -9.48562e-21)
(1.23947 0.275544 -1.91819e-21)
(1.22871 0.260251 -7.6728e-22)
(1.21904 0.245079 -3.40125e-22)
(1.21032 0.230031 1.45286e-21)
(1.20237 0.214993 4.9767e-21)
(1.19458 0.201188 3.31261e-21)
(0.105122 0.0107505 -1.36474e-20)
(0.325871 0.0470268 -2.18329e-20)
(0.555906 0.107263 -2.90197e-20)
(0.777826 0.177898 3.86736e-20)
(0.970924 0.246582 3.61854e-20)
(1.11919 0.302997 5.25657e-23)
(1.21725 0.341113 1.29965e-20)
(1.27053 0.360415 3.56498e-20)
(1.29084 0.364427 3.76361e-20)
(1.29101 0.358156 2.28925e-20)
(1.28118 0.346063 -5.43247e-20)
(1.26773 0.331185 2.19678e-20)
(1.25387 0.315203 -8.5956e-21)
(1.24086 0.298881 2.0475e-20)
(1.22909 0.282543 -2.85385e-22)
(1.21853 0.266339 -2.99151e-21)
(1.20911 0.250369 1.57509e-21)
(1.20066 0.234594 1.09049e-20)
(1.19298 0.218976 -4.31473e-21)
(1.18538 0.204781 -1.09656e-21)
(0.117382 0.0162561 -4.52897e-20)
(0.355838 0.0632513 1.05247e-19)
(0.596124 0.132881 1.01778e-20)
(0.819999 0.209754 -1.32021e-19)
(1.0074 0.280482 -2.32463e-20)
(1.145 0.335103 5.42283e-20)
(1.23103 0.369032 -1.22629e-19)
(1.27389 0.383422 -4.7312e-22)
(1.28681 0.382987 9.42428e-21)
(1.28262 0.373226 -2.68328e-21)
(1.27067 0.358569 2.84723e-20)
(1.25644 0.341795 -4.29166e-20)
(1.24246 0.324332 6.36978e-21)
(1.2296 0.306778 -1.20916e-20)
(1.21807 0.289379 -8.04399e-21)
(1.20781 0.272253 7.91015e-21)
(1.19871 0.255472 -5.27841e-22)
(1.1906 0.238962 -1.67633e-20)
(1.18325 0.222767 8.65745e-22)
(1.17589 0.208175 -3.85989e-21)
(0.129498 0.0226994 3.40728e-20)
(0.384569 0.0815107 -6.02867e-20)
(0.633382 0.160697 -4.8958e-21)
(0.857363 0.243228 -1.12878e-19)
(1.03779 0.315081 -6.6151e-20)
(1.16443 0.367093 5.37034e-20)
(1.23911 0.396372 -6.07972e-20)
(1.27274 0.405744 6.51322e-21)
(1.27953 0.400969 4.49565e-20)
(1.27199 0.387883 -1.18672e-20)
(1.25862 0.370788 5.10949e-21)
(1.24402 0.352178 1.42876e-20)
(1.23014 0.333251 -4.0067e-20)
(1.21758 0.314462 4.61012e-20)
(1.20642 0.295994 3.8332e-20)
(1.19654 0.27794 -9.53537e-21)
(1.18784 0.260344 -9.30818e-21)
(1.18015 0.243099 8.24652e-21)