/*--------------------------------*- C++ -*----------------------------------*\
  =========                 |
  \\      /  F ield         | OpenFOAM: The Open Source CFD Toolbox
   \\    /   O peration     | Website:  https://openfoam.org
    \\  /    A nd           | Version:  7
     \\/     M anipulation  |
\*---------------------------------------------------------------------------*/
FoamFile
{
    version     2.0;
    format      ascii;
    class       volScalarField;
    location    "2.8";
    object      p;
}
// * * * * * * * * * * * * * * * * * * * * * * * * * * * * * * * * * * * * * //

dimensions      [0 2 -2 0 0 0 0];

internalField   nonuniform List<scalar> 
346
(
0.269066
0.267558
0.265977
0.264325
0.262602
0.26081
0.258951
0.257027
0.255038
0.252985
0.250871
0.169114
0.175744
0.182113
0.188227
0.194094
0.199719
0.205108
0.210268
0.215203
0.219921
0.224425
0.228722
0.232816
0.236712
0.240416
0.243932
0.247264
0.250417
0.253395
0.256203
0.258844
0.261322
0.263642
0.265806
0.267819
0.269684
0.271405
0.272984
0.274424
0.27573
0.276904
0.277948
0.278867
0.279661
0.280335
0.28089
0.28133
0.281656
0.281871
0.281978
0.281978
0.281874
0.281668
0.281362
0.280958
0.280458
0.279864
0.279178
0.278402
0.277537
0.276586
0.27555
0.274431
0.27323
0.27195
0.270592
0.269158
0.267649
0.266066
0.264412
0.262688
0.260895
0.259035
0.25711
0.255119
0.253066
0.250951
0.169388
0.176012
0.182375
0.188485
0.194346
0.199966
0.20535
0.210505
0.215436
0.220149
0.224649
0.228941
0.233031
0.236923
0.240623
0.244134
0.247463
0.250612
0.253586
0.25639
0.259028
0.261503
0.263819
0.26598
0.26799
0.269852
0.271569
0.273145
0.274583
0.275886
0.277057
0.278099
0.279014
0.279806
0.280477
0.28103
0.281467
0.281791
0.282004
0.282108
0.282106
0.282
0.281791
0.281483
0.281077
0.280575
0.279979
0.279291
0.278513
0.277646
0.276693
0.275655
0.274535
0.273333
0.272051
0.270691
0.269255
0.267745
0.266161
0.264506
0.26278
0.260986
0.259125
0.257198
0.255206
0.253152
0.251036
0.169689
0.176307
0.182664
0.188767
0.194623
0.200237
0.205616
0.210766
0.215691
0.220399
0.224894
0.229181
0.233266
0.237154
0.240849
0.244356
0.24768
0.250825
0.253795
0.256595
0.259228
0.2617
0.264012
0.26617
0.268176
0.270034
0.271748
0.27332
0.274755
0.276055
0.277223
0.278261
0.279174
0.279963
0.280631
0.281181
0.281616
0.281937
0.282147
0.282249
0.282244
0.282135
0.281925
0.281614
0.281206
0.280701
0.280103
0.279413
0.278633
0.277764
0.276809
0.27577
0.274647
0.273443
0.27216
0.270798
0.269361
0.267848
0.266263
0.264606
0.262879
0.261083
0.259221
0.257292
0.2553
0.253244
0.251127
0.170044
0.176655
0.183005
0.189101
0.19495
0.200557
0.205929
0.211072
0.215991
0.220693
0.225182
0.229463
0.233542
0.237424
0.241114
0.244616
0.247934
0.251074
0.254039
0.256835
0.259463
0.26193
0.264238
0.266391
0.268393
0.270247
0.271957
0.273525
0.274956
0.276252
0.277416
0.278451
0.27936
0.280146
0.280811
0.281357
0.281789
0.282107
0.282314
0.282413
0.282405
0.282293
0.28208
0.281766
0.281355
0.280848
0.280248
0.279555
0.278772
0.277901
0.276944
0.275902
0.274777
0.273571
0.272285
0.270922
0.269482
0.267968
0.266381
0.264722
0.262993
0.261196
0.259331
0.257401
0.255407
0.25335
0.251231
0.170466
0.177067
0.183409
0.189496
0.195336
0.200936
0.2063
0.211435
0.216347
0.22104
0.225522
0.229796
0.233868
0.237744
0.241427
0.244922
0.248234
0.251368
0.254328
0.257117
0.25974
0.262201
0.264504
0.266651
0.268648
0.270497
0.272202
0.273766
0.275192
0.276484
0.277643
0.278674
0.279579
0.28036
0.281021
0.281564
0.281991
0.282306
0.282509
0.282604
0.282593
0.282478
0.282261
0.281945
0.28153
0.28102
0.280417
0.279721
0.278935
0.278061
0.277101
0.276057
0.274929
0.27372
0.272432
0.271066
0.269624
0.268107
0.266518
0.264857
0.263126
0.261327
0.25946
0.257528
0.255532
0.253473
0.251352
)
;

boundaryField
{
    inlet
    {
        type            zeroGradient;
    }
    outlet
    {
        type            fixedValue;
        value           nonuniform 0();
    }
    wall
    {
        type            zeroGradient;
    }
    wedge1
    {
        type            wedge;
    }
    wedge2
    {
        type            wedge;
    }
    axis
    {
        type            empty;
    }
    procBoundary46to40
    {
        type            processor;
        value           nonuniform List<scalar> 
68
(
0.268982
0.267475
0.265895
0.264243
0.262522
0.260731
0.258873
0.25695
0.254961
0.25291
0.250797
0.168864
0.175499
0.181872
0.187991
0.193862
0.199492
0.204886
0.21005
0.21499
0.219711
0.224219
0.22852
0.232618
0.236518
0.240225
0.243745
0.24708
0.250237
0.253218
0.256029
0.258674
0.261155
0.263478
0.265645
0.267661
0.269529
0.271252
0.272834
0.274277
0.275586
0.276762
0.277809
0.27873
0.279527
0.280203
0.280761
0.281202
0.281531
0.281748
0.281857
0.281859
0.281757
0.281553
0.281249
0.280847
0.280349
0.279757
0.279072
0.278298
0.277435
0.276485
0.275451
0.274333
0.273134
0.271856
0.270499
0.270499
)
;
    }
    procBoundary46to41
    {
        type            processor;
        value           uniform 0.248697;
    }
    procBoundary46to45
    {
        type            processor;
        value           nonuniform List<scalar> 5(0.162217 0.162496 0.162803 0.163167 0.163597);
    }
    procBoundary46to47
    {
        type            processor;
        value           nonuniform List<scalar> 5(0.248775 0.248859 0.248949 0.249052 0.249171);
    }
}


// ************************************************************************* //
