/*--------------------------------*- C++ -*----------------------------------*\
  =========                 |
  \\      /  F ield         | OpenFOAM: The Open Source CFD Toolbox
   \\    /   O peration     | Website:  https://openfoam.org
    \\  /    A nd           | Version:  7
     \\/     M anipulation  |
\*---------------------------------------------------------------------------*/
FoamFile
{
    version     2.0;
    format      ascii;
    class       surfaceScalarField;
    location    "2.8";
    object      phi;
}
// * * * * * * * * * * * * * * * * * * * * * * * * * * * * * * * * * * * * * //

dimensions      [0 3 -1 0 0 0 0];

internalField   nonuniform List<scalar> 
619
(
3.55687e-05
5.06955e-07
3.57653e-05
4.98683e-07
3.59588e-05
4.90637e-07
3.61493e-05
4.82816e-07
3.63369e-05
4.7522e-07
3.65216e-05
4.67848e-07
3.67036e-05
4.60698e-07
3.68829e-05
4.53768e-07
3.70596e-05
4.47054e-07
3.72338e-05
4.40552e-07
4.34259e-07
1.28037e-05
9.89389e-07
1.32925e-05
9.68339e-07
1.37711e-05
9.47757e-07
1.42397e-05
9.27639e-07
1.46986e-05
9.07983e-07
1.51479e-05
8.88781e-07
1.55879e-05
8.7003e-07
1.60188e-05
8.51722e-07
1.64408e-05
8.3385e-07
1.68541e-05
8.16408e-07
1.7259e-05
7.99388e-07
1.76556e-05
7.82783e-07
1.80441e-05
7.66584e-07
1.84248e-05
7.50784e-07
1.87978e-05
7.35373e-07
1.91632e-05
7.20344e-07
1.95214e-05
7.05689e-07
1.98725e-05
6.91398e-07
2.02165e-05
6.77463e-07
2.05538e-05
6.63876e-07
2.08845e-05
6.50628e-07
2.12087e-05
6.37709e-07
2.15266e-05
6.25113e-07
2.18384e-05
6.12829e-07
2.21441e-05
6.0085e-07
2.2444e-05
5.89166e-07
2.27382e-05
5.77769e-07
2.30268e-05
5.66651e-07
2.331e-05
5.55803e-07
2.35879e-05
5.45218e-07
2.38605e-05
5.34886e-07
2.41281e-05
5.248e-07
2.43908e-05
5.14952e-07
2.46486e-05
5.05334e-07
2.49017e-05
4.9594e-07
2.51502e-05
4.86762e-07
2.53941e-05
4.77792e-07
2.56336e-05
4.69026e-07
2.58688e-05
4.60455e-07
2.60998e-05
4.52075e-07
2.63267e-05
4.4388e-07
2.65495e-05
4.35864e-07
2.67684e-05
4.28024e-07
2.69833e-05
4.20354e-07
2.71945e-05
4.12851e-07
2.7402e-05
4.05512e-07
2.76059e-05
3.98334e-07
2.78062e-05
3.91314e-07
2.80031e-05
3.84449e-07
2.81966e-05
3.77739e-07
2.83868e-05
3.71182e-07
2.85737e-05
3.64777e-07
2.87575e-05
3.58523e-07
2.89382e-05
3.52419e-07
2.91159e-05
3.46466e-07
2.92907e-05
3.40663e-07
2.94627e-05
3.3501e-07
2.96319e-05
3.29508e-07
2.97983e-05
3.24155e-07
2.99622e-05
3.18953e-07
3.01235e-05
3.139e-07
3.02824e-05
3.08996e-07
3.04388e-05
3.04239e-07
3.0593e-05
2.99629e-07
3.07449e-05
2.95164e-07
3.08946e-05
2.90841e-07
2.86658e-07
9.52333e-06
5.77909e-07
9.92613e-06
5.65541e-07
1.03204e-05
5.5345e-07
1.07064e-05
5.41633e-07
1.10843e-05
5.30089e-07
1.14543e-05
5.18813e-07
1.18165e-05
5.07804e-07
1.21712e-05
4.97056e-07
1.25185e-05
4.86566e-07
1.28586e-05
4.7633e-07
1.31916e-05
4.66343e-07
1.35178e-05
4.56601e-07
1.38373e-05
4.47098e-07
1.41502e-05
4.37831e-07
1.44568e-05
4.28793e-07
1.47572e-05
4.19981e-07
1.50515e-05
4.11389e-07
1.53399e-05
4.03012e-07
1.56225e-05
3.94845e-07
1.58995e-05
3.86883e-07
1.6171e-05
3.7912e-07
1.64371e-05
3.71553e-07
1.66981e-05
3.64174e-07
1.69539e-05
3.56981e-07
1.72048e-05
3.49966e-07
1.74508e-05
3.43126e-07
1.76922e-05
3.36455e-07
1.79289e-05
3.29948e-07
1.81611e-05
3.236e-07
1.83889e-05
3.17407e-07
1.86124e-05
3.11363e-07
1.88317e-05
3.05465e-07
1.9047e-05
2.99706e-07
1.92582e-05
2.94083e-07
1.94656e-05
2.88591e-07
1.96691e-05
2.83226e-07
1.98689e-05
2.77984e-07
2.00651e-05
2.72862e-07
2.02577e-05
2.67854e-07
2.04468e-05
2.62958e-07
2.06325e-05
2.58171e-07
2.08149e-05
2.53489e-07
2.0994e-05
2.4891e-07
2.11699e-05
2.4443e-07
2.13427e-05
2.40049e-07
2.15125e-05
2.35763e-07
2.16792e-05
2.3157e-07
2.18431e-05
2.2747e-07
2.20041e-05
2.23461e-07
2.21623e-05
2.19541e-07
2.23177e-05
2.15711e-07
2.24705e-05
2.11969e-07
2.26208e-05
2.08314e-07
2.27684e-05
2.04748e-07
2.29136e-05
2.01268e-07
2.30564e-05
1.97876e-07
2.31969e-05
1.94571e-07
2.3335e-05
1.91354e-07
2.34709e-05
1.88224e-07
2.36047e-05
1.85182e-07
2.37364e-05
1.82226e-07
2.3866e-05
1.79358e-07
2.39937e-05
1.76576e-07
2.41194e-05
1.73879e-07
2.42433e-05
1.71268e-07
2.43654e-05
1.6874e-07
1.66295e-07
6.47959e-06
2.67011e-07
6.78387e-06
2.61262e-07
7.08168e-06
2.55643e-07
7.37316e-06
2.50152e-07
7.65846e-06
2.44788e-07
7.93773e-06
2.3955e-07
8.21109e-06
2.34436e-07
8.47871e-06
2.29444e-07
8.7407e-06
2.24574e-07
8.99721e-06
2.19821e-07
9.24837e-06
2.15185e-07
9.4943e-06
2.10663e-07
9.73515e-06
2.06254e-07
9.97102e-06
2.01954e-07
1.02021e-05
1.97761e-07
1.04284e-05
1.93673e-07
1.06501e-05
1.89689e-07
1.08673e-05
1.85804e-07
1.10801e-05
1.82018e-07
1.12887e-05
1.78327e-07
1.1493e-05
1.74729e-07
1.16934e-05
1.71222e-07
1.18897e-05
1.67803e-07
1.20823e-05
1.64471e-07
1.2271e-05
1.61222e-07
1.24561e-05
1.58054e-07
1.26376e-05
1.54965e-07
1.28156e-05
1.51953e-07
1.29901e-05
1.49015e-07
1.31614e-05
1.46149e-07
1.33294e-05
1.43353e-07
1.34943e-05
1.40624e-07
1.3656e-05
1.3796e-07
1.38147e-05
1.3536e-07
1.39705e-05
1.3282e-07
1.41234e-05
1.3034e-07
1.42734e-05
1.27918e-07
1.44208e-05
1.2555e-07
1.45654e-05
1.23236e-07
1.47074e-05
1.20974e-07
1.48468e-05
1.18762e-07
1.49837e-05
1.16599e-07
1.51181e-05
1.14484e-07
1.52501e-05
1.12415e-07
1.53798e-05
1.10391e-07
1.55071e-05
1.08411e-07
1.56322e-05
1.06474e-07
1.57551e-05
1.0458e-07
1.58758e-05
1.02728e-07
1.59945e-05
1.00917e-07
1.6111e-05
9.91472e-08
1.62256e-05
9.74178e-08
1.63382e-05
9.57288e-08
1.64488e-05
9.40799e-08
1.65576e-05
9.2471e-08
1.66646e-05
9.0902e-08
1.67698e-05
8.93734e-08
1.68733e-05
8.78851e-08
1.6975e-05
8.64369e-08
1.70752e-05
8.50288e-08
1.71738e-05
8.36608e-08
1.72708e-05
8.2333e-08
1.73663e-05
8.10451e-08
1.74604e-05
7.97969e-08
1.75531e-05
7.85881e-08
1.76444e-05
7.74182e-08
7.62867e-08
3.68026e-06
6.98746e-08
3.87316e-06
6.8359e-08
4.06193e-06
6.68779e-08
4.24665e-06
6.54308e-08
4.42742e-06
6.40176e-08
4.60433e-06
6.26378e-08
4.77748e-06
6.1291e-08
4.94694e-06
5.99767e-08
5.11282e-06
5.86943e-08
5.2752e-06
5.74433e-08
5.43416e-06
5.62233e-08
5.58979e-06
5.50335e-08
5.74217e-06
5.38733e-08
5.89138e-06
5.27423e-08
6.03751e-06
5.16397e-08
6.18061e-06
5.05649e-08
6.32079e-06
4.95174e-08
6.45809e-06
4.84964e-08
6.59261e-06
4.75013e-08
6.7244e-06
4.65316e-08
6.85355e-06
4.55865e-08
6.9801e-06
4.46654e-08
7.10414e-06
4.37678e-08
7.22572e-06
4.28929e-08
7.3449e-06
4.20401e-08
7.46174e-06
4.12089e-08
7.57631e-06
4.03985e-08
7.68865e-06
3.96084e-08
7.79883e-06
3.88379e-08
7.90689e-06
3.80865e-08
8.01289e-06
3.73535e-08
8.11688e-06
3.66383e-08
8.2189e-06
3.59405e-08
8.319e-06
3.52593e-08
8.41722e-06
3.45943e-08
8.51362e-06
3.39449e-08
8.60823e-06
3.33106e-08
8.70109e-06
3.26909e-08
8.79224e-06
3.20854e-08
8.88172e-06
3.14935e-08
8.96956e-06
3.09148e-08
9.05581e-06
3.0349e-08
9.1405e-06
2.97957e-08
9.22366e-06
2.92545e-08
9.30533e-06
2.87251e-08
9.38553e-06
2.82072e-08
9.46431e-06
2.77006e-08
9.54168e-06
2.72052e-08
9.61769e-06
2.67205e-08
9.69236e-06
2.62467e-08
9.76572e-06
2.57834e-08
9.83781e-06
2.53307e-08
9.90865e-06
2.48884e-08
9.97827e-06
2.44566e-08
1.00467e-05
2.40351e-08
1.0114e-05
2.36239e-08
1.01801e-05
2.32232e-08
1.02452e-05
2.28329e-08
1.03092e-05
2.24531e-08
1.03721e-05
2.20836e-08
1.04341e-05
2.17246e-08
1.0495e-05
2.13761e-08
1.0555e-05
2.1038e-08
1.06141e-05
2.07103e-08
1.06723e-05
2.03929e-08
1.07296e-05
2.00858e-08
1.97888e-08
1.13302e-06
1.20138e-06
1.26826e-06
1.33369e-06
1.39771e-06
1.46035e-06
1.52164e-06
1.58161e-06
1.64031e-06
1.69775e-06
1.75398e-06
1.80901e-06
1.86288e-06
1.91562e-06
1.96726e-06
2.01783e-06
2.06735e-06
2.11584e-06
2.16334e-06
2.20988e-06
2.25546e-06
2.30013e-06
2.3439e-06
2.38679e-06
2.42883e-06
2.47004e-06
2.51044e-06
2.55004e-06
2.58888e-06
2.62697e-06
2.66432e-06
2.70096e-06
2.7369e-06
2.77216e-06
2.80675e-06
2.8407e-06
2.87401e-06
2.9067e-06
2.93879e-06
2.97028e-06
3.00119e-06
3.03154e-06
3.06134e-06
3.09059e-06
3.11932e-06
3.14753e-06
3.17523e-06
3.20243e-06
3.22915e-06
3.2554e-06
3.28118e-06
3.30651e-06
3.3314e-06
3.35586e-06
3.37989e-06
3.40352e-06
3.42674e-06
3.44957e-06
3.47203e-06
3.49411e-06
3.51583e-06
3.53721e-06
3.55825e-06
3.57896e-06
3.59935e-06
3.61944e-06
)
;

boundaryField
{
    inlet
    {
        type            calculated;
        value           nonuniform 0();
    }
    outlet
    {
        type            calculated;
        value           nonuniform 0();
    }
    wall
    {
        type            calculated;
        value           uniform 0;
    }
    wedge1
    {
        type            wedge;
        value           nonuniform List<scalar> 
346
(
-6.61995e-17
-4.16067e-17
-6.79692e-17
-9.94642e-18
1.41881e-17
-6.47982e-17
-4.07217e-17
-6.65231e-17
-9.73493e-18
1.38918e-17
-6.34279e-17
-3.98564e-17
-6.51095e-17
-9.52834e-18
1.36017e-17
-6.20881e-17
-3.90106e-17
-6.37279e-17
-9.3264e-18
1.33178e-17
-6.07787e-17
-3.81841e-17
-6.23779e-17
-9.12917e-18
1.30402e-17
-5.94996e-17
-3.73767e-17
-6.10595e-17
-8.93667e-18
1.27687e-17
-5.82502e-17
-3.65882e-17
-5.97711e-17
-8.74807e-18
1.25037e-17
-5.70304e-17
-3.58183e-17
-5.8514e-17
-8.56444e-18
1.22444e-17
-5.58395e-17
-3.50669e-17
-5.72861e-17
-8.38465e-18
1.19915e-17
-5.46772e-17
-3.43336e-17
-5.60885e-17
-8.20967e-18
1.17441e-17
-5.35431e-17
-3.36181e-17
-5.4919e-17
-8.03831e-18
1.1503e-17
-5.24365e-17
-3.292e-17
-5.37784e-17
-7.87143e-18
1.12673e-17
-5.13564e-17
-3.22389e-17
-5.26659e-17
-7.7087e-18
1.10372e-17
-5.03029e-17
-3.15746e-17
-5.15811e-17
-7.55025e-18
1.08124e-17
-4.92754e-17
-3.09267e-17
-5.0522e-17
-7.39496e-18
1.05935e-17
-4.82734e-17
-3.02948e-17
-4.94897e-17
-7.24375e-18
1.03797e-17
-4.72959e-17
-2.96786e-17
-4.8483e-17
-7.09646e-18
1.01711e-17
-4.63426e-17
-2.90778e-17
-4.75021e-17
-6.95318e-18
9.96719e-18
-4.54129e-17
-2.84919e-17
-4.65442e-17
-6.81266e-18
9.76884e-18
-4.45067e-17
-2.79206e-17
-4.56109e-17
-6.67593e-18
9.57512e-18
-4.36224e-17
-2.73635e-17
-4.47009e-17
-6.5427e-18
9.38609e-18
-4.27601e-17
-2.68202e-17
-4.38141e-17
-6.41314e-18
9.20141e-18
-4.19191e-17
-2.62905e-17
-4.29482e-17
-6.28607e-18
9.02179e-18
-4.10991e-17
-2.5774e-17
-4.21051e-17
-6.16288e-18
8.846e-18
-4.02993e-17
-2.52704e-17
-4.12817e-17
-6.04205e-18
8.67504e-18
-3.95194e-17
-2.47792e-17
-4.04799e-17
-5.92488e-18
8.50768e-18
-3.87585e-17
-2.43002e-17
-3.96964e-17
-5.80986e-18
8.34499e-18
-3.80164e-17
-2.38329e-17
-3.89329e-17
-5.69799e-18
8.18591e-18
-3.72919e-17
-2.33768e-17
-3.81878e-17
-5.58886e-18
8.03066e-18
-3.65845e-17
-2.29317e-17
-3.74609e-17
-5.48249e-18
7.87907e-18
-3.5894e-17
-2.24972e-17
-3.67519e-17
-5.37898e-18
7.73079e-18
-3.52197e-17
-2.2073e-17
-3.60586e-17
-5.27716e-18
7.58657e-18
-3.45617e-17
-2.16591e-17
-3.5383e-17
-5.17859e-18
7.44513e-18
-3.39188e-17
-2.12547e-17
-3.47219e-17
-5.08155e-18
7.30756e-18
-3.3291e-17
-2.08599e-17
-3.40774e-17
-4.9874e-18
7.17261e-18
-3.26775e-17
-2.0474e-17
-3.34464e-17
-4.8947e-18
7.04124e-18
-3.20782e-17
-2.00971e-17
-3.28305e-17
-4.80446e-18
6.9126e-18
-3.14919e-17
-1.97285e-17
-3.22285e-17
-4.7164e-18
6.78674e-18
-3.09187e-17
-1.93682e-17
-3.16407e-17
-4.63072e-18
6.66336e-18
-3.03582e-17
-1.90159e-17
-3.10645e-17
-4.54601e-18
6.54334e-18
-2.98103e-17
-1.86713e-17
-3.05015e-17
-4.46348e-18
6.42563e-18
-2.9274e-17
-1.83344e-17
-2.99511e-17
-4.38303e-18
6.31035e-18
-2.87494e-17
-1.80047e-17
-2.94132e-17
-4.30457e-18
6.19729e-18
-2.82363e-17
-1.76823e-17
-2.88857e-17
-4.22705e-18
6.08722e-18
-2.77347e-17
-1.73669e-17
-2.83701e-17
-4.15145e-18
5.97924e-18
-2.72435e-17
-1.70583e-17
-2.78659e-17
-4.07772e-18
5.87345e-18
-2.67632e-17
-1.67565e-17
-2.73734e-17
-4.00588e-18
5.76966e-18
-2.62933e-17
-1.64611e-17
-2.68901e-17
-3.93485e-18
5.66865e-18
-2.58341e-17
-1.61725e-17
-2.64189e-17
-3.86601e-18
5.56928e-18
-2.53853e-17
-1.58905e-17
-2.5957e-17
-3.79813e-18
5.47255e-18
-2.4947e-17
-1.56149e-17
-2.55068e-17
-3.73241e-18
5.37742e-18
-2.45189e-17
-1.53457e-17
-2.50656e-17
-3.66739e-18
5.28499e-18
-2.41013e-17
-1.50831e-17
-2.46354e-17
-3.60427e-18
5.19436e-18
-2.36934e-17
-1.48266e-17
-2.42155e-17
-3.54271e-18
5.10583e-18
-2.32954e-17
-1.45765e-17
-2.3806e-17
-3.48281e-18
5.01926e-18
-2.29076e-17
-1.43326e-17
-2.34073e-17
-3.4247e-18
4.93457e-18
2.20426e-16
-2.25297e-17
-1.4095e-17
-2.30176e-17
-3.36729e-18
4.85256e-18
2.16848e-16
-2.21622e-17
-1.38638e-17
-2.26394e-17
-3.31202e-18
4.77214e-18
2.13368e-16
-2.18046e-17
-1.36388e-17
-2.22702e-17
-3.25761e-18
4.69435e-18
2.09986e-16
-2.14574e-17
-1.34203e-17
-2.19126e-17
-3.20532e-18
4.61815e-18
2.06701e-16
-2.11202e-17
-1.32082e-17
-2.15641e-17
-3.15392e-18
4.5446e-18
2.03513e-16
-2.07933e-17
-1.30024e-17
-2.12264e-17
-3.10428e-18
4.47296e-18
2.00422e-16
-2.04759e-17
-1.28029e-17
-2.0899e-17
-3.05636e-18
4.40333e-18
1.97426e-16
-2.01683e-17
-1.26094e-17
-2.05823e-17
-3.01021e-18
4.33557e-18
1.94522e-16
-1.98703e-17
-1.24219e-17
-2.02742e-17
-2.96463e-18
4.27054e-18
1.9171e-16
-1.95821e-17
-1.22407e-17
-1.99766e-17
-2.92093e-18
4.20733e-18
1.88989e-16
-1.93028e-17
-1.20651e-17
-1.96889e-17
-2.87882e-18
4.14609e-18
)
;
    }
    wedge2
    {
        type            wedge;
        value           nonuniform List<scalar> 
346
(
-6.62606e-17
-4.16536e-17
-6.80015e-17
-9.96546e-18
1.4182e-17
-6.4858e-17
-4.07678e-17
-6.65558e-17
-9.75425e-18
1.38854e-17
-6.34864e-17
-3.99017e-17
-6.51417e-17
-9.54744e-18
1.35953e-17
-6.21458e-17
-3.90552e-17
-6.37595e-17
-9.34523e-18
1.33116e-17
-6.08359e-17
-3.8228e-17
-6.24089e-17
-9.14748e-18
1.30342e-17
-5.95561e-17
-3.742e-17
-6.10891e-17
-8.95406e-18
1.27632e-17
-5.83061e-17
-3.66309e-17
-5.98011e-17
-8.76572e-18
1.24979e-17
-5.70854e-17
-3.58604e-17
-5.85426e-17
-8.58124e-18
1.22391e-17
-5.58936e-17
-3.51083e-17
-5.7315e-17
-8.40164e-18
1.19859e-17
-5.47302e-17
-3.43741e-17
-5.6116e-17
-8.22581e-18
1.17391e-17
-5.35947e-17
-3.36577e-17
-5.49469e-17
-8.0548e-18
1.14975e-17
-5.24866e-17
-3.29586e-17
-5.38058e-17
-7.88758e-18
1.1262e-17
-5.14059e-17
-3.22768e-17
-5.26925e-17
-7.72435e-18
1.10321e-17
-5.03515e-17
-3.16117e-17
-5.1606e-17
-7.56481e-18
1.08079e-17
-4.9323e-17
-3.09629e-17
-5.05475e-17
-7.40992e-18
1.05886e-17
-4.83195e-17
-3.03303e-17
-4.95147e-17
-7.25859e-18
1.03749e-17
-4.73412e-17
-2.97133e-17
-4.85074e-17
-7.11083e-18
1.01663e-17
-4.6387e-17
-2.91116e-17
-4.75246e-17
-6.96636e-18
9.96315e-18
-4.54565e-17
-2.8525e-17
-4.65675e-17
-6.82628e-18
9.76438e-18
-4.45488e-17
-2.7953e-17
-4.56337e-17
-6.6894e-18
9.57068e-18
-4.3664e-17
-2.73953e-17
-4.47232e-17
-6.55581e-18
9.38178e-18
-4.28013e-17
-2.68515e-17
-4.38347e-17
-6.42517e-18
9.19776e-18
-4.19598e-17
-2.63213e-17
-4.29696e-17
-6.29852e-18
9.0177e-18
-4.11389e-17
-2.58041e-17
-4.21248e-17
-6.17429e-18
8.8426e-18
-4.03382e-17
-2.52997e-17
-4.1302e-17
-6.0538e-18
8.67121e-18
-3.9557e-17
-2.48077e-17
-4.04983e-17
-5.93561e-18
8.50455e-18
-3.87948e-17
-2.43276e-17
-3.97156e-17
-5.82105e-18
8.34131e-18
-3.80508e-17
-2.38593e-17
-3.89514e-17
-5.70895e-18
8.18233e-18
-3.73253e-17
-2.34024e-17
-3.82059e-17
-5.59956e-18
8.02715e-18
-3.66173e-17
-2.29567e-17
-3.74783e-17
-5.49269e-18
7.87571e-18
-3.59263e-17
-2.25217e-17
-3.67676e-17
-5.38807e-18
7.72816e-18
-3.52516e-17
-2.20971e-17
-3.60751e-17
-5.28672e-18
7.58349e-18
-3.45924e-17
-2.16821e-17
-3.53975e-17
-5.18692e-18
7.44278e-18
-3.39488e-17
-2.12771e-17
-3.47372e-17
-5.09023e-18
7.30473e-18
-3.33195e-17
-2.08813e-17
-3.40908e-17
-4.99514e-18
7.17039e-18
-3.27048e-17
-2.04946e-17
-3.34607e-17
-4.90296e-18
7.03857e-18
-3.21037e-17
-2.01166e-17
-3.28442e-17
-4.81252e-18
6.90996e-18
-3.15166e-17
-1.97473e-17
-3.22415e-17
-4.72398e-18
6.78429e-18
-3.09426e-17
-1.93862e-17
-3.16516e-17
-4.637e-18
6.66168e-18
-3.03811e-17
-1.90331e-17
-3.10763e-17
-4.55287e-18
6.5411e-18
-2.98317e-17
-1.86878e-17
-3.0513e-17
-4.47029e-18
6.42341e-18
-2.92947e-17
-1.835e-17
-2.99618e-17
-4.38922e-18
6.30834e-18
-2.87694e-17
-1.80197e-17
-2.94221e-17
-4.30966e-18
6.19598e-18
-2.82554e-17
-1.76965e-17
-2.88954e-17
-4.23259e-18
6.08543e-18
-2.77523e-17
-1.73803e-17
-2.83795e-17
-4.15693e-18
5.97746e-18
-2.72606e-17
-1.70711e-17
-2.78747e-17
-4.08267e-18
5.87188e-18
-2.67797e-17
-1.67686e-17
-2.73802e-17
-4.00973e-18
5.76879e-18
-2.63095e-17
-1.6473e-17
-2.6898e-17
-3.93912e-18
5.66731e-18
-2.58495e-17
-1.61838e-17
-2.6425e-17
-3.86942e-18
5.56853e-18
-2.53998e-17
-1.59009e-17
-2.59638e-17
-3.80184e-18
5.47138e-18
-2.49603e-17
-1.56245e-17
-2.55118e-17
-3.73513e-18
5.3769e-18
-2.4531e-17
-1.53545e-17
-2.50715e-17
-3.67074e-18
5.28392e-18
-2.41114e-17
-1.50908e-17
-2.46407e-17
-3.60746e-18
5.19335e-18
-2.37025e-17
-1.48335e-17
-2.42204e-17
-3.5456e-18
5.10484e-18
-2.33039e-17
-1.45826e-17
-2.381e-17
-3.48507e-18
5.01856e-18
-2.29153e-17
-1.4338e-17
-2.34095e-17
-3.42575e-18
4.93458e-18
2.20416e-16
-2.2537e-17
-1.40999e-17
-2.30205e-17
-3.36872e-18
4.85213e-18
2.16838e-16
-2.21687e-17
-1.38681e-17
-2.26407e-17
-3.31256e-18
4.77231e-18
2.1336e-16
-2.18106e-17
-1.36427e-17
-2.22724e-17
-3.25854e-18
4.69409e-18
2.09978e-16
-2.14622e-17
-1.34235e-17
-2.19131e-17
-3.20541e-18
4.6185e-18
2.06696e-16
-2.11239e-17
-1.32105e-17
-2.15653e-17
-3.15439e-18
4.54452e-18
2.0351e-16
-2.07952e-17
-1.30037e-17
-2.12271e-17
-3.10461e-18
4.47286e-18
2.0042e-16
-2.04769e-17
-1.28032e-17
-2.08989e-17
-3.05609e-18
4.40346e-18
1.97424e-16
-2.01684e-17
-1.26089e-17
-2.05803e-17
-3.00878e-18
4.33641e-18
1.94522e-16
-1.98696e-17
-1.24209e-17
-2.02731e-17
-2.96385e-18
4.27085e-18
1.91713e-16
-1.95799e-17
-1.22387e-17
-1.99751e-17
-2.91994e-18
4.20765e-18
1.88992e-16
-1.93e-17
-1.20625e-17
-1.96867e-17
-2.87732e-18
4.14661e-18
)
;
    }
    axis
    {
        type            empty;
        value           nonuniform 0();
    }
    procBoundary46to40
    {
        type            processor;
        value           nonuniform List<scalar> 
68
(
-7.06744e-07
-6.95285e-07
-6.8414e-07
-6.73307e-07
-6.62786e-07
-6.52575e-07
-6.4267e-07
-6.33068e-07
-6.23765e-07
-6.14754e-07
-6.06029e-07
-1.48861e-06
-1.45713e-06
-1.42634e-06
-1.39624e-06
-1.36683e-06
-1.33809e-06
-1.31003e-06
-1.28262e-06
-1.25586e-06
-1.22975e-06
-1.20426e-06
-1.17938e-06
-1.15512e-06
-1.13144e-06
-1.10835e-06
-1.08583e-06
-1.06386e-06
-1.04244e-06
-1.02154e-06
-1.00117e-06
-9.81297e-07
-9.61919e-07
-9.4302e-07
-9.24587e-07
-9.06608e-07
-8.8907e-07
-8.71961e-07
-8.55267e-07
-8.38976e-07
-8.23076e-07
-8.07555e-07
-7.92401e-07
-7.77602e-07
-7.63147e-07
-7.49026e-07
-7.35227e-07
-7.2174e-07
-7.08557e-07
-6.95667e-07
-6.83062e-07
-6.70734e-07
-6.58676e-07
-6.4688e-07
-6.3534e-07
-6.24051e-07
-6.13009e-07
-6.02208e-07
-5.91645e-07
-5.81317e-07
-5.71222e-07
-5.61357e-07
-5.51722e-07
-5.42315e-07
-5.33135e-07
-5.24182e-07
-3.5369e-05
-5.15455e-07
)
;
    }
    procBoundary46to41
    {
        type            processor;
        value           uniform 3.74056e-05;
    }
    procBoundary46to45
    {
        type            processor;
        value           nonuniform List<scalar> 5(-1.23045e-05 -9.11186e-06 -6.1687e-06 -3.48312e-06 -1.06315e-06);
    }
    procBoundary46to47
    {
        type            processor;
        value           nonuniform List<scalar> 5(3.10422e-05 2.44858e-05 1.77344e-05 1.07861e-05 3.63923e-06);
    }
}


// ************************************************************************* //
