0.0711076 	0.495705 	6.45114e-18 	0.44657 	-0.00716121 	6.70345e-17
0.0712152 	0.496455 	6.4731e-18 	0.3686 	-0.00483941 	5.82047e-17
0.0713227 	0.497205 	5.59827e-18 	0.28881 	-0.00293484 	3.6718e-17
0.0714303 	0.497954 	4.87022e-18 	0.207587 	-0.00147732 	2.53396e-17
0.0715378 	0.498704 	4.14424e-18 	0.125244 	-0.000509728 	2.22388e-17
0.0716454 	0.499454 	4.38499e-18 	0.0419995 	-7.77288e-05 	8.4554e-18
