0.0605095 	0.497205 	1.0526e-18 	0.313787 	-0.00372105 	6.12422e-17
0.0606007 	0.497954 	2.31084e-18 	0.225773 	-0.00187664 	4.71758e-17
0.0606919 	0.498704 	2.46019e-18 	0.136326 	-0.000648689 	2.81626e-17
0.0607832 	0.499454 	1.82694e-18 	0.0457525 	-9.92048e-05 	1.02112e-17
