/*--------------------------------*- C++ -*----------------------------------*\
  =========                 |
  \\      /  F ield         | OpenFOAM: The Open Source CFD Toolbox
   \\    /   O peration     | Website:  https://openfoam.org
    \\  /    A nd           | Version:  7
     \\/     M anipulation  |
\*---------------------------------------------------------------------------*/
FoamFile
{
    version     2.0;
    format      ascii;
    class       surfaceScalarField;
    location    "2";
    object      phi;
}
// * * * * * * * * * * * * * * * * * * * * * * * * * * * * * * * * * * * * * //

dimensions      [0 3 -1 0 0 0 0];

internalField   nonuniform List<scalar> 
615
(
0.000348243
5.37714e-05
0.000349715
4.63288e-05
0.00035091
3.98507e-05
0.00035188
3.4231e-05
0.000352668
2.93698e-05
0.000353312
2.51749e-05
0.00035384
2.15619e-05
0.000354274
1.84554e-05
0.000354633
1.57878e-05
0.000354931
1.34997e-05
0.00035518
1.15388e-05
0.000355387
9.85967e-06
0.000355562
8.42262e-06
0.000355708
7.1934e-06
0.000355831
6.14242e-06
0.000355936
5.24414e-06
0.000356024
4.47662e-06
0.000356098
3.82098e-06
0.000356162
3.26105e-06
0.000356215
2.78293e-06
0.000356261
2.37474e-06
0.0003563
2.02629e-06
0.000356333
1.72887e-06
0.000356361
1.47504e-06
0.000356385
1.25842e-06
0.000356405
1.07357e-06
0.000356423
9.15837e-07
0.000356438
7.81256e-07
0.00035645
6.66414e-07
0.000356461
5.68444e-07
0.00035647
4.84834e-07
0.000356478
4.1352e-07
0.000356485
3.52639e-07
0.00035649
3.00729e-07
0.000356495
2.56379e-07
0.000356499
2.18594e-07
0.000356503
1.86254e-07
0.000356506
1.58751e-07
0.000356508
1.3512e-07
0.00035651
1.15111e-07
0.000356512
9.77632e-08
0.000356514
8.32356e-08
0.000356515
7.03688e-08
0.000356516
5.98929e-08
0.000356517
5.01299e-08
0.000356518
4.27338e-08
0.000356519
3.49543e-08
0.000356519
3.00588e-08
0.00035652
2.32422e-08
0.00035652
2.06555e-08
1.37077e-08
7.33931e-05
0.000424178
7.85175e-05
0.000394495
8.46787e-05
0.000354957
9.05013e-05
0.000313699
9.558e-05
0.000275035
9.99355e-05
0.000240486
0.000103701
0.000210215
0.000107002
0.000183859
0.000109928
0.000160898
0.000112531
0.000140811
0.000114837
0.000123147
0.000116863
0.000107546
0.000118624
9.37363e-05
0.000120136
8.15131e-05
0.000121422
7.07146e-05
0.000122507
6.12046e-05
0.000123419
5.28602e-05
0.000124181
4.55664e-05
0.000124818
3.92139e-05
0.00012535
3.36992e-05
0.000125794
2.89253e-05
0.000126166
2.48028e-05
0.000126478
2.12499e-05
0.00012674
1.81932e-05
0.000126961
1.55671e-05
0.000127147
1.33136e-05
0.000127305
1.13816e-05
0.000127438
9.72661e-06
0.00012755
8.30988e-06
0.000127646
7.09777e-06
0.000127727
6.06122e-06
0.000127796
5.17514e-06
0.000127855
4.41794e-06
0.000127905
3.77106e-06
0.000127947
3.21855e-06
0.000127983
2.74674e-06
0.000128014
2.34391e-06
0.000128041
2.00002e-06
0.000128063
1.70649e-06
0.000128082
1.45596e-06
0.000128098
1.24215e-06
0.000128112
1.0597e-06
0.000128124
9.04013e-07
0.000128134
7.71173e-07
0.000128143
6.57817e-07
0.00012815
5.61112e-07
0.000128156
4.78581e-07
0.000128162
4.08187e-07
0.000128166
3.48092e-07
0.00012817
2.96851e-07
0.000128173
2.53073e-07
0.000128176
2.15773e-07
0.000128179
1.8385e-07
0.000128181
1.56701e-07
0.000128182
1.33374e-07
0.000128184
1.13622e-07
0.000128185
9.64962e-08
0.000128186
8.21546e-08
0.000128187
6.94528e-08
0.000128188
5.91106e-08
0.000128189
4.94727e-08
0.000128189
4.21709e-08
0.00012819
3.44915e-08
0.00012819
2.96585e-08
0.00012819
2.29308e-08
0.000128191
2.03777e-08
1.35236e-08
6.24282e-05
0.000419145
7.0317e-05
0.000386606
7.8626e-05
0.000346648
8.61212e-05
0.000306204
9.24912e-05
0.000268665
9.7838e-05
0.000235139
0.000102368
0.000205685
0.000106269
0.000179959
0.000109673
0.000157494
0.000112665
0.000137818
0.000115298
0.000120514
0.000117604
0.00010524
0.000119609
9.17317e-05
0.000121337
7.97848e-05
0.000122816
6.9236e-05
0.000124073
5.99475e-05
0.000125136
5.17965e-05
0.000126034
4.4669e-05
0.00012679
3.84582e-05
0.000127426
3.30631e-05
0.000127961
2.83898e-05
0.000128412
2.43516e-05
0.000128793
2.08694e-05
0.000129114
1.78718e-05
0.000129386
1.52953e-05
0.000129616
1.30834e-05
0.000129811
1.11865e-05
0.000129977
9.56105e-06
0.000130117
8.16927e-06
0.000130237
6.97825e-06
0.000130339
5.95956e-06
0.000130425
5.08863e-06
0.000130499
4.34429e-06
0.000130562
3.70833e-06
0.000130615
3.1651e-06
0.000130661
2.70119e-06
0.000130699
2.30509e-06
0.000130732
1.96693e-06
0.000130761
1.67827e-06
0.000130785
1.43191e-06
0.000130805
1.22164e-06
0.000130823
1.04221e-06
0.000130838
8.89096e-07
0.00013085
7.58451e-07
0.000130861
6.46967e-07
0.00013087
5.51858e-07
0.000130878
4.7069e-07
0.000130885
4.01457e-07
0.000130891
3.42352e-07
0.000130896
2.91955e-07
0.0001309
2.48898e-07
0.000130903
2.12213e-07
0.000130906
1.80816e-07
0.000130909
1.54113e-07
0.000130911
1.3117e-07
0.000130913
1.11742e-07
0.000130915
9.48978e-08
0.000130916
8.07912e-08
0.000130917
6.82979e-08
0.000130918
5.81246e-08
0.000130919
4.86449e-08
0.00013092
4.14621e-08
0.00013092
3.39092e-08
0.000130921
2.9155e-08
0.000130921
2.25395e-08
0.000130922
2.00284e-08
1.32913e-08
5.33245e-05
0.000410667
6.37583e-05
0.000376172
7.38579e-05
0.000336548
8.26388e-05
0.000297423
8.99782e-05
0.000261325
9.60915e-05
0.000229026
0.000101246
0.00020053
0.000105663
0.000175542
0.000109499
0.000153659
0.000112855
0.000134462
0.000115799
0.00011757
0.000118375
0.000102664
0.000120618
8.94894e-05
0.000122557
7.78454e-05
0.000124224
6.7569e-05
0.000125649
5.85224e-05
0.000126862
5.05832e-05
0.000127892
4.36391e-05
0.000128765
3.75854e-05
0.000129504
3.23242e-05
0.00013013
2.77643e-05
0.000130659
2.3822e-05
0.000131108
2.04207e-05
0.000131488
1.74914e-05
0.000131811
1.49726e-05
0.000132085
1.28094e-05
0.000132318
1.09536e-05
0.000132516
9.36303e-06
0.000132684
8.00079e-06
0.000132828
6.83484e-06
0.00013295
5.83743e-06
0.000133054
4.98459e-06
0.000133143
4.25563e-06
0.000133218
3.63277e-06
0.000133283
3.10069e-06
0.000133337
2.64628e-06
0.000133384
2.25826e-06
0.000133424
1.927e-06
0.000133458
1.64422e-06
0.000133487
1.40286e-06
0.000133512
1.19687e-06
0.000133533
1.02109e-06
0.000133551
8.71076e-07
0.000133567
7.43082e-07
0.00013358
6.33858e-07
0.000133591
5.40677e-07
0.0001336
4.61153e-07
0.000133609
3.93323e-07
0.000133616
3.35415e-07
0.000133621
2.86039e-07
0.000133626
2.43854e-07
0.000133631
2.07911e-07
0.000133634
1.77149e-07
0.000133638
1.50986e-07
0.00013364
1.28506e-07
0.000133643
1.09471e-07
0.000133644
9.29668e-08
0.000133646
7.91445e-08
0.000133647
6.69032e-08
0.000133649
5.69343e-08
0.00013365
4.76459e-08
0.000133651
4.06069e-08
0.000133651
3.3207e-08
0.000133652
2.85478e-08
0.000133652
2.2068e-08
0.000133653
1.96074e-08
1.30111e-08
4.54441e-05
0.000398857
5.81207e-05
0.000363495
6.9687e-05
0.000324982
7.95026e-05
0.000287607
8.76524e-05
0.000253176
9.44425e-05
0.000222236
0.000100175
0.000194798
0.000105085
0.000170632
0.00010934
0.000149403
0.000113057
0.000130745
0.000116311
0.000114316
0.000119157
9.98177e-05
0.000121637
8.70097e-05
0.000123786
7.56957e-05
0.000125641
6.57149e-05
0.000127232
5.69305e-05
0.000128594
4.92215e-05
0.000129755
4.24776e-05
0.000130744
3.65965e-05
0.000131585
3.14832e-05
0.0001323
2.70495e-05
0.000132908
2.32145e-05
0.000133424
1.99043e-05
0.000133863
1.70524e-05
0.000134236
1.45991e-05
0.000134554
0.000134825
0.000135055
0.000135251
0.000135419
0.000135561
0.000135683
0.000135786
0.000135875
0.00013595
0.000136014
0.000136069
0.000136116
0.000136156
0.00013619
0.000136219
0.000136244
0.000136265
0.000136283
0.000136298
0.000136311
0.000136323
0.000136332
0.00013634
0.000136347
0.000136353
0.000136358
0.000136362
0.000136366
0.000136369
0.000136372
0.000136374
0.000136376
0.000136378
0.000136379
0.00013638
0.000136381
0.000136382
0.000136383
0.000136383
0.000136384
3.88902e-05
5.33461e-05
6.60207e-05
7.665e-05
8.54872e-05
9.28873e-05
9.91598e-05
0.000104542
0.000109207
0.000113278
0.000116839
0.000119953
0.000122669
0.000125028
0.000127068
0.000128825
0.000130334
0.000131625
0.000132729
0.000133671
0.000134474
0.000135159
0.000135742
0.00013624
)
;

boundaryField
{
    inlet
    {
        type            calculated;
        value           nonuniform 0();
    }
    outlet
    {
        type            calculated;
        value           nonuniform List<scalar> 5(0.000356521 0.000128191 0.000130922 0.000133653 0.000136384);
    }
    wall
    {
        type            calculated;
        value           nonuniform 0();
    }
    wedge1
    {
        type            wedge;
        value           nonuniform List<scalar> 
344
(
1.74599e-14
1.71628e-14
-6.82961e-14
1.57875e-14
1.49582e-14
1.59859e-14
1.55443e-14
-6.14049e-14
1.41165e-14
1.33224e-14
1.42459e-14
1.37805e-14
-5.43146e-14
1.24708e-14
1.17709e-14
1.25054e-14
1.20762e-14
-4.7616e-14
1.09428e-14
1.03479e-14
1.09131e-14
1.05355e-14
-4.15932e-14
9.57321e-15
9.07148e-15
9.51266e-15
9.18349e-15
-3.62987e-14
8.36554e-15
7.94033e-15
8.29867e-15
8.01007e-15
-3.16857e-14
7.3087e-15
6.94513e-15
7.24874e-15
6.99354e-15
-2.76755e-14
6.38645e-15
6.07288e-15
6.33765e-15
6.11065e-15
-2.41843e-14
5.58143e-15
5.30911e-15
5.54224e-15
5.34007e-15
-2.1134e-14
4.877e-15
4.63953e-15
4.84352e-15
4.66395e-15
-1.84575e-14
4.2586e-15
4.05122e-15
4.22682e-15
4.06821e-15
-1.61006e-14
3.71417e-15
3.5332e-15
3.68127e-15
3.54213e-15
-1.4021e-14
3.23405e-15
3.07653e-15
3.19872e-15
3.07748e-15
-1.21858e-14
2.8106e-15
2.67392e-15
2.77274e-15
2.66777e-15
-1.05684e-14
2.43757e-15
2.31939e-15
2.39791e-15
2.30749e-15
-9.14646e-15
2.10967e-15
2.0078e-15
2.06931e-15
1.99172e-15
-7.90011e-15
1.82226e-15
1.73469e-15
1.78231e-15
1.71594e-15
-6.81122e-15
1.57109e-15
1.49599e-15
1.53255e-15
1.47588e-15
-5.86291e-15
1.35227e-15
1.28797e-15
1.31588e-15
1.26756e-15
-5.03948e-15
1.16218e-15
1.1072e-15
1.12844e-15
1.08726e-15
-4.32638e-15
9.97493e-16
9.50518e-16
9.66668e-16
9.31594e-16
-3.71026e-15
8.55136e-16
8.15027e-16
8.27323e-16
7.97451e-16
-3.17901e-15
7.32339e-16
6.98105e-16
7.07491e-16
6.82054e-16
-2.7217e-15
6.266e-16
5.97391e-16
6.04587e-16
5.82922e-16
-2.32862e-15
5.35692e-16
5.10772e-16
5.16317e-16
4.97867e-16
-1.99116e-15
4.57634e-16
4.40677e-16
4.24962e-16
-1.70174e-15
3.90688e-16
3.75912e-16
3.62528e-16
-1.45375e-15
3.33326e-16
3.20499e-16
3.091e-16
-1.2414e-15
2.84219e-16
2.73116e-16
2.6341e-16
-1.05968e-15
2.4221e-16
2.32624e-16
2.2436e-16
-9.04262e-16
2.06297e-16
1.98038e-16
1.91004e-16
-7.71394e-16
1.75615e-16
1.68509e-16
1.62525e-16
-6.57848e-16
1.49416e-16
1.43312e-16
1.38221e-16
-5.60849e-16
1.27057e-16
1.21818e-16
1.17492e-16
-4.78009e-16
1.07984e-16
1.03495e-16
9.98172e-17
-4.07283e-16
9.17253e-17
8.78768e-17
8.47566e-17
-3.46912e-16
7.78686e-17
7.45757e-17
7.19261e-17
-2.95394e-16
6.60689e-17
6.32479e-17
6.10047e-17
-2.51441e-16
5.60221e-17
5.36101e-17
5.17091e-17
-2.13951e-16
4.74759e-17
4.541e-17
4.38045e-17
-1.81981e-16
4.02071e-17
3.84407e-17
3.70841e-17
-1.54726e-16
3.40312e-17
3.25176e-17
3.13755e-17
-1.31496e-16
2.87846e-17
2.74897e-17
2.65283e-17
-1.11704e-16
2.43325e-17
2.32219e-17
2.24161e-17
-9.48426e-17
2.05552e-17
1.96051e-17
1.89292e-17
-8.04872e-17
1.73553e-17
1.6539e-17
1.59754e-17
-6.82645e-17
1.4644e-17
1.39449e-17
1.34757e-17
-5.78678e-17
1.23513e-17
1.17493e-17
1.13609e-17
-4.90197e-17
1.04115e-17
9.89618e-18
9.5746e-18
-4.15033e-17
8.77533e-18
8.3293e-18
8.06511e-18
-3.51077e-17
7.39227e-18
7.01033e-18
6.7944e-18
-2.96855e-17
6.22862e-18
5.8956e-18
5.72038e-18
-2.50693e-17
5.24505e-18
4.96203e-18
4.8196e-18
-2.11695e-17
4.42149e-18
4.17144e-18
4.05623e-18
-1.78408e-17
3.72343e-18
3.51346e-18
3.42175e-18
-1.50485e-17
3.14241e-18
2.95231e-18
2.8783e-18
-1.2647e-17
2.64606e-18
2.49256e-18
2.43468e-18
-1.06641e-17
2.23929e-18
2.09084e-18
2.04502e-18
-8.92283e-18
1.88296e-18
1.7767e-18
1.73906e-18
-7.53957e-18
1.60404e-18
1.48221e-18
1.4537e-18
-6.25644e-18
1.34167e-18
1.27673e-18
1.25308e-18
-5.33397e-18
1.15834e-18
1.05001e-18
1.03159e-18
-4.34753e-18
9.55185e-19
9.35536e-19
9.18308e-19
-3.81014e-18
8.51598e-19
7.39648e-19
7.26048e-19
-2.9784e-18
6.75273e-19
7.14168e-19
6.98428e-19
-2.81724e-18
6.49701e-19
5.33615e-19
5.19247e-19
-2.07514e-18
4.84989e-19
-5.25394e-16
-4.51517e-16
-3.87342e-16
-3.31791e-16
-2.83831e-16
-2.42529e-16
-2.07021e-16
-1.76552e-16
-1.50437e-16
-1.28085e-16
-1.0897e-16
-9.26398e-17
-7.86987e-17
-6.6805e-17
-5.66676e-17
-4.80317e-17
-4.06823e-17
-3.44302e-17
-2.91168e-17
-2.46039e-17
-2.07767e-17
-1.75283e-17
-1.4779e-17
-1.24495e-17
-1.04858e-17
-8.8241e-18
-7.42734e-18
-6.24654e-18
-5.25398e-18
-4.42213e-18
-3.72226e-18
-3.13301e-18
-2.63451e-18
-2.22698e-18
-1.88068e-18
-1.59142e-18
-1.34052e-18
-1.14635e-18
-9.73757e-19
-8.31942e-19
-7.08983e-19
-6.1022e-19
-5.21713e-19
-4.55031e-19
-3.88946e-19
-3.46994e-19
-2.94631e-19
-2.71938e-19
-2.26747e-19
-2.24291e-19
-1.84783e-19
)
;
    }
    wedge2
    {
        type            wedge;
        value           nonuniform List<scalar> 
344
(
-5.25078e-16
-4.51211e-16
-3.87061e-16
-3.3152e-16
-2.8358e-16
-2.42289e-16
-2.06802e-16
-1.76345e-16
-1.50245e-16
-1.279e-16
-1.08793e-16
-9.24666e-17
-7.85293e-17
-6.66421e-17
-5.65091e-17
-4.78791e-17
-4.05326e-17
-3.4285e-17
-2.89746e-17
-2.44652e-17
-2.06363e-17
-1.73937e-17
-1.46448e-17
-1.23219e-17
-1.03531e-17
-8.6946e-18
-7.29151e-18
-6.1143e-18
-5.12321e-18
-4.28825e-18
-3.58893e-18
-3.0054e-18
-2.52116e-18
-2.10542e-18
-1.76186e-18
-1.47491e-18
-1.24224e-18
-1.03238e-18
-8.64014e-19
-7.23659e-19
-6.04919e-19
-5.07303e-19
-4.22253e-19
-3.54744e-19
-2.92717e-19
-2.48152e-19
-2.00041e-19
-1.77033e-19
-1.33198e-19
-1.31489e-19
-8.97324e-20
1.7458e-14
1.7161e-14
-6.82973e-14
1.57867e-14
1.49576e-14
1.59849e-14
1.55435e-14
-6.14054e-14
1.41163e-14
1.33224e-14
1.42455e-14
1.37803e-14
-5.43147e-14
1.24708e-14
1.1771e-14
1.25054e-14
1.20763e-14
-4.76159e-14
1.0943e-14
1.0348e-14
1.09131e-14
1.05355e-14
-4.1593e-14
9.57331e-15
9.0716e-15
9.51279e-15
9.18362e-15
-3.62986e-14
8.36567e-15
7.94046e-15
8.29878e-15
8.01017e-15
-3.16856e-14
7.3088e-15
6.94524e-15
7.24888e-15
6.99366e-15
-2.76754e-14
6.38657e-15
6.07299e-15
6.33776e-15
6.11076e-15
-2.41842e-14
5.58153e-15
5.30922e-15
5.54236e-15
5.34019e-15
-2.11339e-14
4.8771e-15
4.63963e-15
4.84364e-15
4.66406e-15
-1.84573e-14
4.2587e-15
4.0513e-15
4.22694e-15
4.06832e-15
-1.61005e-14
3.71426e-15
3.53328e-15
3.68139e-15
3.54223e-15
-1.40209e-14
3.23413e-15
3.07659e-15
3.19882e-15
3.07758e-15
-1.21857e-14
2.81067e-15
2.67398e-15
2.77284e-15
2.66786e-15
-1.05683e-14
2.43762e-15
2.31942e-15
2.398e-15
2.30757e-15
-9.1464e-15
2.10971e-15
2.00784e-15
2.06939e-15
1.99179e-15
-7.90006e-15
1.82229e-15
1.73472e-15
1.78239e-15
1.716e-15
-6.81117e-15
1.57112e-15
1.49601e-15
1.53262e-15
1.47594e-15
-5.86287e-15
1.35229e-15
1.28798e-15
1.31595e-15
1.26761e-15
-5.03945e-15
1.1622e-15
1.10721e-15
1.12851e-15
1.08731e-15
-4.32635e-15
9.97506e-16
9.50517e-16
9.66728e-16
9.31633e-16
-3.71024e-15
8.55146e-16
8.15022e-16
8.27375e-16
7.97486e-16
-3.17899e-15
7.32345e-16
6.98097e-16
7.07541e-16
6.82083e-16
-2.72169e-15
6.26605e-16
5.97379e-16
6.0463e-16
5.82949e-16
-2.32861e-15
5.35693e-16
5.10758e-16
5.16359e-16
4.9789e-16
-1.99115e-15
4.57635e-16
4.40715e-16
4.24983e-16
-1.70174e-15
3.90685e-16
3.75949e-16
3.62546e-16
-1.45374e-15
3.33323e-16
3.20533e-16
3.09118e-16
-1.24139e-15
2.84214e-16
2.7315e-16
2.63425e-16
-1.05968e-15
2.42205e-16
2.32656e-16
2.24375e-16
-9.04258e-16
2.06291e-16
1.98068e-16
1.91017e-16
-7.71391e-16
1.75608e-16
1.6854e-16
1.62537e-16
-6.57846e-16
1.49409e-16
1.4334e-16
1.38233e-16
-5.60847e-16
1.27049e-16
1.21848e-16
1.17502e-16
-4.78008e-16
1.07978e-16
1.03521e-16
9.98289e-17
-4.07281e-16
9.17169e-17
8.79049e-17
8.47659e-17
-3.46911e-16
7.78619e-17
7.45999e-17
7.19374e-17
-2.95393e-16
6.60595e-17
6.3274e-17
6.10131e-17
-2.51441e-16
5.60145e-17
5.36334e-17
5.17191e-17
-2.13951e-16
4.74663e-17
4.54352e-17
4.38127e-17
-1.81981e-16
4.01989e-17
3.84644e-17
3.70934e-17
-1.54727e-16
3.40215e-17
3.25429e-17
3.13839e-17
-1.31496e-16
2.87757e-17
2.75143e-17
2.65376e-17
-1.11704e-16
2.43229e-17
2.32477e-17
2.24246e-17
-9.48429e-17
2.05465e-17
1.96291e-17
1.89391e-17
-8.04874e-17
1.73455e-17
1.65633e-17
1.59845e-17
-6.82647e-17
1.4635e-17
1.39683e-17
1.34848e-17
-5.7868e-17
1.23419e-17
1.17724e-17
1.13689e-17
-4.90201e-17
1.04028e-17
9.91775e-18
9.58342e-18
-4.15037e-17
8.76561e-18
8.35041e-18
8.07348e-18
-3.51083e-17
7.38281e-18
7.03135e-18
6.80248e-18
-2.96862e-17
6.21925e-18
5.91653e-18
5.72784e-18
-2.50701e-17
5.23624e-18
4.98206e-18
4.82764e-18
-2.11702e-17
4.41204e-18
4.19004e-18
4.06439e-18
-1.78417e-17
3.71369e-18
3.53268e-18
3.42909e-18
-1.50494e-17
3.13352e-18
2.96959e-18
2.88621e-18
-1.26478e-17
2.63645e-18
2.51114e-18
2.44147e-18
-1.06649e-17
2.23094e-18
2.10837e-18
2.05179e-18
-8.92368e-18
1.87444e-18
1.79324e-18
1.74681e-18
-7.54041e-18
1.59464e-18
1.49929e-18
1.4602e-18
-6.25726e-18
1.33348e-18
1.29419e-18
1.25996e-18
-5.33473e-18
1.15006e-18
1.06678e-18
1.03827e-18
-4.34825e-18
9.47039e-19
9.52369e-19
9.25188e-19
-3.81082e-18
8.43406e-19
7.56188e-19
7.33393e-19
-2.9791e-18
6.67062e-19
7.30539e-19
7.05171e-19
-2.81801e-18
6.41417e-19
5.50138e-19
5.26182e-19
-2.0759e-18
4.76633e-19
)
;
    }
    axis
    {
        type            empty;
        value           nonuniform 0();
    }
    procBoundary23to17
    {
        type            processor;
        value           nonuniform List<scalar> 
68
(
-5.55835e-05
-4.78014e-05
-4.10454e-05
-3.52007e-05
-3.01587e-05
-2.58188e-05
-2.20896e-05
-1.88897e-05
-1.61468e-05
-1.37977e-05
-1.17871e-05
-1.00673e-05
-8.59673e-06
-7.33981e-06
-6.26581e-06
-5.34835e-06
-4.56477e-06
-3.89565e-06
-3.32437e-06
-2.83669e-06
-2.42041e-06
-2.06512e-06
-1.7619e-06
-1.50315e-06
-1.28235e-06
-1.09396e-06
-9.33202e-07
-7.96051e-07
-6.79024e-07
-5.79191e-07
-4.93996e-07
-4.21331e-07
-3.59298e-07
-3.06408e-07
-2.61221e-07
-2.22724e-07
-1.89776e-07
-1.61756e-07
-1.37681e-07
-1.17297e-07
-9.96238e-08
-8.48251e-08
-7.17178e-08
-6.10472e-08
-5.11019e-08
-4.35685e-08
-3.56428e-08
-3.06553e-08
-2.37087e-08
-2.10707e-08
-1.3981e-08
-0.000425742
-0.000399619
-0.000361118
-0.000319521
-0.000280114
-0.000244842
-0.00021398
-0.000187161
-0.000163824
-0.000143414
-0.000125453
-0.000109572
-9.54965e-05
-8.30251e-05
-7.20008e-05
-0.000346431
-6.22901e-05
)
;
    }
    procBoundary23to22
    {
        type            processor;
        value           nonuniform List<scalar> 4(-7.18292e-05 -5.73953e-05 -4.48464e-05 -3.36345e-05);
    }
    procBoundary23to28
    {
        type            processor;
        value           uniform -2.41285e-05;
    }
    procBoundary23to29
    {
        type            processor;
        value           nonuniform List<scalar> 
68
(
1.24916e-05
1.06831e-05
9.13263e-06
7.80451e-06
6.66757e-06
5.69486e-06
4.86304e-06
4.152e-06
3.54439e-06
3.02532e-06
2.58199e-06
2.20343e-06
1.88023e-06
1.60433e-06
1.36883e-06
1.16784e-06
9.96325e-07
8.49955e-07
7.25065e-07
6.18491e-07
5.27569e-07
4.49973e-07
3.83786e-07
3.27282e-07
2.79103e-07
2.37939e-07
2.02867e-07
1.7285e-07
1.4732e-07
1.25384e-07
1.06808e-07
9.07035e-08
7.72145e-08
6.52688e-08
5.55397e-08
4.64756e-08
3.96053e-08
3.23847e-08
2.78371e-08
2.1516e-08
1.91146e-08
1.2683e-08
0.000384096
0.000349039
0.000312307
0.000276978
0.000244338
0.000214836
0.000188525
0.00016525
0.000144738
0.000126675
0.000110754
9.67034e-05
8.42939e-05
7.33369e-05
6.36749e-05
5.51733e-05
4.77131e-05
4.11861e-05
3.54928e-05
3.05412e-05
2.62463e-05
2.25298e-05
1.93208e-05
1.65552e-05
0.000136663
1.41753e-05
)
;
    }
}


// ************************************************************************* //
