/*--------------------------------*- C++ -*----------------------------------*\
  =========                 |
  \\      /  F ield         | OpenFOAM: The Open Source CFD Toolbox
   \\    /   O peration     | Website:  https://openfoam.org
    \\  /    A nd           | Version:  7
     \\/     M anipulation  |
\*---------------------------------------------------------------------------*/
FoamFile
{
    version     2.0;
    format      ascii;
    class       volScalarField;
    location    "11.000598";
    object      p;
}
// * * * * * * * * * * * * * * * * * * * * * * * * * * * * * * * * * * * * * //

dimensions      [0 2 -2 0 0 0 0];

internalField   nonuniform List<scalar> 
5800
(
-0.313992
-0.314855
-0.315352
-0.315605
-0.315706
-0.0324519
-0.0327482
-0.0330352
-0.033312
-0.0335775
-0.0338305
-0.03407
-0.0342948
-0.0345037
-0.0346955
-0.0348689
-0.0350225
-0.0351552
-0.0352654
-0.035352
-0.0354136
-0.0354486
-0.0354559
-0.0354341
-0.0353818
-0.0352977
-0.0351807
-0.0350295
-0.0348429
-0.0346201
-0.0343599
-0.0340615
-0.0337242
-0.0333474
-0.0329306
-0.0324733
-0.0319755
-0.0314372
-0.0308584
-0.0302396
-0.0295813
-0.0288842
-0.0281493
-0.0273775
-0.0265703
-0.0257291
-0.0248555
-0.0239512
-0.0230182
-0.0220581
-0.0210733
-0.0200653
-0.0190366
-0.0179882
-0.016923
-0.0158411
-0.0147459
-0.0136362
-0.0125161
-0.0113826
-0.010241
-0.00908543
-0.00792343
-0.00674533
-0.00556131
-0.00435674
-0.00314542
-0.00190604
-0.000656049
-0.032553
-0.0328504
-0.0331384
-0.0334161
-0.0336823
-0.033936
-0.0341761
-0.0344013
-0.0346106
-0.0348025
-0.0349759
-0.0351294
-0.0352617
-0.0353715
-0.0354574
-0.035518
-0.035552
-0.035558
-0.0355346
-0.0354806
-0.0353946
-0.0352754
-0.0351219
-0.0349328
-0.0347071
-0.0344439
-0.0341424
-0.0338018
-0.0334214
-0.0330008
-0.0325398
-0.032038
-0.0314956
-0.0309127
-0.0302896
-0.029627
-0.0289256
-0.0281864
-0.0274104
-0.0265991
-0.0257538
-0.0248763
-0.0239682
-0.0230316
-0.0220681
-0.0210802
-0.0200692
-0.0190379
-0.0179871
-0.0169199
-0.0158363
-0.0147397
-0.0136288
-0.0125081
-0.0113739
-0.0102323
-0.00907679
-0.00791542
-0.00673778
-0.00555501
-0.00435124
-0.00314176
-0.00190335
-0.000655628
-0.0327481
-0.0330478
-0.0333381
-0.0336177
-0.0338857
-0.0341409
-0.0343822
-0.0346084
-0.0348183
-0.0350106
-0.0351841
-0.0353373
-0.035469
-0.0355778
-0.0356624
-0.0357213
-0.0357532
-0.0357567
-0.0357304
-0.035673
-0.0355832
-0.0354599
-0.0353017
-0.0351076
-0.0348765
-0.0346075
-0.0342997
-0.0339525
-0.0335652
-0.0331374
-0.0326689
-0.0321593
-0.0316089
-0.0310179
-0.0303866
-0.0297157
-0.0290059
-0.0282583
-0.0274741
-0.0266547
-0.0258015
-0.0249163
-0.0240009
-0.0230573
-0.0220872
-0.0210931
-0.0200765
-0.0190401
-0.0179848
-0.0169136
-0.0158266
-0.0147273
-0.0136143
-0.0124921
-0.0113571
-0.0102152
-0.00905995
-0.00789953
-0.00672319
-0.00554241
-0.00434078
-0.00313416
-0.00189846
-0.00065424
-0.0330347
-0.033338
-0.0336314
-0.0339138
-0.0341842
-0.0344415
-0.0346846
-0.0349122
-0.035123
-0.0353159
-0.0354894
-0.0356422
-0.0357729
-0.0358803
-0.0359628
-0.0360191
-0.0360479
-0.0360476
-0.0360169
-0.0359546
-0.0358593
-0.0357297
-0.0355647
-0.0353631
-0.035124
-0.0348465
-0.0345296
-0.0341727
-0.0337752
-0.0333368
-0.0328572
-0.0323363
-0.0317741
-0.0311711
-0.0305277
-0.0298445
-0.0291225
-0.0283627
-0.0275664
-0.0267351
-0.0258703
-0.024974
-0.0240477
-0.0230939
-0.0221142
-0.0211112
-0.0200864
-0.0190425
-0.0179806
-0.0169037
-0.0158118
-0.0147086
-0.0135925
-0.0124682
-0.0113319
-0.0101898
-0.00903498
-0.00787596
-0.00670162
-0.00552373
-0.00432537
-0.00312284
-0.00189133
-0.000652001
-0.0334089
-0.0337167
-0.0340142
-0.0343003
-0.034574
-0.034834
-0.0350794
-0.0353087
-0.0355208
-0.0357143
-0.0358878
-0.03604
-0.0361695
-0.0362748
-0.0363547
-0.0364076
-0.0364321
-0.0364269
-0.0363905
-0.0363216
-0.0362189
-0.0360811
-0.0359072
-0.0356959
-0.0354462
-0.0351573
-0.0348284
-0.0344588
-0.034048
-0.0335956
-0.0331015
-0.0325656
-0.0319882
-0.0313695
-0.0307102
-0.030011
-0.029273
-0.0284972
-0.0276851
-0.0268383
-0.0259584
-0.0250474
-0.0241072
-0.0231401
-0.0221479
-0.0211333
-0.0200978
-0.0190443
-0.0179738
-0.0168895
-0.0157914
-0.0146831
-0.0135632
-0.0124362
-0.0112984
-0.0101559
-0.00900186
-0.00784474
-0.00667311
-0.00549903
-0.00430505
-0.00310787
-0.00188194
-0.000648978
-0.0338682
-0.0341816
-0.0344842
-0.0347748
-0.0350523
-0.0353158
-0.0355639
-0.0357953
-0.0360089
-0.036203
-0.0363765
-0.0365279
-0.0366557
-0.0367586
-0.0368351
-0.0368837
-0.036903
-0.0368915
-0.0368479
-0.0367709
-0.036659
-0.0365111
-0.036326
-0.0361026
-0.0358399
-0.035537
-0.0351932
-0.0348079
-0.0343805
-0.0339109
-0.0333989
-0.0328446
-0.0322482
-0.0316103
-0.0309314
-0.0302125
-0.0294548
-0.0286594
-0.0278279
-0.0269621
-0.0260637
-0.0251349
-0.0241775
-0.0231942
-0.0221868
-0.021158
-0.0201095
-0.0190444
-0.0179635
-0.0168703
-0.0157646
-0.0146503
-0.0135258
-0.0123957
-0.0112562
-0.0101135
-0.00896045
-0.00780576
-0.00663761
-0.00546829
-0.0042798
-0.00308925
-0.00187027
-0.000645185
-0.0344108
-0.0347309
-0.0350394
-0.0353352
-0.0356173
-0.0358846
-0.0361359
-0.0363698
-0.036585
-0.0367799
-0.0369533
-0.0371035
-0.0372293
-0.0373291
-0.0374015
-0.0374448
-0.0374578
-0.0374388
-0.0373866
-0.0372998
-0.0371769
-0.0370169
-0.0368184
-0.0365805
-0.0363022
-0.0359826
-0.0356211
-0.035217
-0.03477
-0.0342799
-0.0337467
-0.0331705
-0.0325516
-0.0318908
-0.0311888
-0.0304466
-0.0296655
-0.028847
-0.0279926
-0.0271044
-0.0261842
-0.0252343
-0.0242569
-0.0232545
-0.0222292
-0.0211839
-0.0201203
-0.0190415
-0.0179487
-0.0168451
-0.0157307
-0.0146095
-0.0134797
-0.0123462
-0.0112049
-0.0100622
-0.00891051
-0.00775886
-0.00659498
-0.00543142
-0.00424957
-0.00306695
-0.00185633
-0.00064062
-0.0350354
-0.035363
-0.0356783
-0.0359801
-0.0362674
-0.0365391
-0.036794
-0.0370306
-0.0372475
-0.0374432
-0.0376162
-0.0377651
-0.0378884
-0.0379845
-0.0380519
-0.038089
-0.0380945
-0.0380668
-0.0380044
-0.0379061
-0.0377704
-0.0375961
-0.0373821
-0.0371273
-0.0368308
-0.0364918
-0.0361096
-0.0356838
-0.035214
-0.0347001
-0.0341422
-0.0335406
-0.0328958
-0.0322086
-0.0314798
-0.0307107
-0.0299027
-0.0290575
-0.0281769
-0.0272629
-0.0263177
-0.0253438
-0.0243433
-0.0233192
-0.0222735
-0.0212094
-0.0201287
-0.0190345
-0.0179281
-0.0168128
-0.0156888
-0.0145599
-0.0134244
-0.0122872
-0.0111441
-0.0100015
-0.00885172
-0.00770378
-0.00654504
-0.00538828
-0.00421427
-0.0030409
-0.00184008
-0.000635272
-0.035741
-0.0360771
-0.0364
-0.0367085
-0.0370015
-0.0372781
-0.0375369
-0.0377765
-0.0379952
-0.0381916
-0.0383641
-0.0385113
-0.0386315
-0.0387232
-0.0387848
-0.0388148
-0.0388116
-0.0387736
-0.0386996
-0.038588
-0.0384375
-0.0382469
-0.038015
-0.0377409
-0.0374236
-0.0370623
-0.0366566
-0.0362059
-0.0357101
-0.0351691
-0.0345832
-0.0339527
-0.0332784
-0.0325611
-0.031802
-0.0310025
-0.0301641
-0.0292888
-0.0283785
-0.0274355
-0.0264622
-0.0254611
-0.0244349
-0.0233864
-0.022318
-0.0212329
-0.0201331
-0.0190219
-0.0179005
-0.0167725
-0.0156378
-0.0145006
-0.0133591
-0.0122181
-0.0110732
-0.00993112
-0.00878374
-0.00764026
-0.00648757
-0.00533871
-0.00417377
-0.00301103
-0.00182147
-0.000629128
-0.0365273
-0.0368728
-0.0372041
-0.0375199
-0.0378192
-0.0381011
-0.0383642
-0.0386068
-0.0388274
-0.0390244
-0.0391962
-0.0393411
-0.0394577
-0.0395443
-0.0395992
-0.0396208
-0.0396076
-0.0395581
-0.0394706
-0.039344
-0.0391767
-0.0389675
-0.0387154
-0.0384194
-0.0380786
-0.0376922
-0.0372599
-0.0367812
-0.0362561
-0.0356847
-0.0350672
-0.0344044
-0.033697
-0.0329462
-0.0321532
-0.0313196
-0.0304473
-0.0295384
-0.0285951
-0.0276199
-0.0266154
-0.0255844
-0.0245296
-0.0234543
-0.0223609
-0.0212528
-0.020132
-0.0190022
-0.0178646
-0.0167227
-0.0155768
-0.0144308
-0.0132828
-0.012138
-0.0109917
-0.00985049
-0.00870615
-0.00756796
-0.00642232
-0.00528252
-0.00412794
-0.00297725
-0.00180045
-0.000622171
-0.0373943
-0.03775
-0.0380904
-0.0384141
-0.0387203
-0.0390079
-0.0392754
-0.0395213
-0.0397437
-0.0399411
-0.0401118
-0.0402542
-0.0403665
-0.0404471
-0.0404943
-0.0405064
-0.0404819
-0.0404191
-0.0403166
-0.0401729
-0.0399867
-0.0397567
-0.0394819
-0.0391613
-0.0387941
-0.0383797
-0.0379177
-0.0374078
-0.0368501
-0.0362447
-0.0355923
-0.0348935
-0.0341495
-0.0333614
-0.0325309
-0.0316597
-0.03075
-0.0298041
-0.0288245
-0.0278139
-0.0267751
-0.0257114
-0.0246255
-0.0235209
-0.0224003
-0.0212672
-0.0201239
-0.0189741
-0.017819
-0.0166625
-0.0155045
-0.0143494
-0.0131949
-0.0120463
-0.0108988
-0.00975913
-0.00861855
-0.00748655
-0.00634904
-0.00521952
-0.00407664
-0.00293947
-0.00177697
-0.000614382
-0.0383422
-0.0387089
-0.0390592
-0.0393914
-0.0397049
-0.0399985
-0.0402708
-0.0405199
-0.0407442
-0.0409418
-0.041111
-0.0412501
-0.0413574
-0.0414312
-0.0414696
-0.041471
-0.0414336
-0.041356
-0.0412365
-0.0410738
-0.0408664
-0.0406133
-0.0403132
-0.0399653
-0.0395689
-0.0391233
-0.0386284
-0.0380839
-0.0374901
-0.0368474
-0.0361563
-0.035418
-0.0346335
-0.0338046
-0.0329329
-0.0320205
-0.0310699
-0.0300835
-0.0290643
-0.0280152
-0.0269392
-0.0258399
-0.0247204
-0.0235842
-0.0224343
-0.0212744
-0.0201071
-0.0189359
-0.0177624
-0.0165904
-0.01542
-0.0142554
-0.0130944
-0.0119423
-0.0107941
-0.0096565
-0.00852051
-0.0073957
-0.00626746
-0.00514951
-0.00401973
-0.00289757
-0.00175097
-0.000605743
-0.0393715
-0.0397502
-0.040111
-0.0404523
-0.0407735
-0.0410735
-0.0413506
-0.0416031
-0.0418291
-0.0420266
-0.0421939
-0.0423291
-0.0424306
-0.0424966
-0.042525
-0.0425142
-0.0424625
-0.0423683
-0.0422299
-0.042046
-0.0418152
-0.0415362
-0.0412082
-0.0408301
-0.0404014
-0.0399216
-0.0393904
-0.0388079
-0.0381745
-0.0374906
-0.0367573
-0.0359756
-0.0351471
-0.0342735
-0.0333569
-0.0323997
-0.0314046
-0.0303744
-0.0293123
-0.0282215
-0.0271055
-0.0259679
-0.0248122
-0.0236422
-0.0224611
-0.0212728
-0.0200798
-0.0188862
-0.0176933
-0.0165053
-0.015322
-0.0141478
-0.0129805
-0.0118253
-0.0106768
-0.00954208
-0.00841161
-0.00729507
-0.00617731
-0.00507228
-0.00395705
-0.00285148
-0.0017224
-0.000596238
-0.0404833
-0.0408747
-0.0412467
-0.0415976
-0.0419269
-0.0422335
-0.0425156
-0.0427715
-0.0429989
-0.0431961
-0.0433609
-0.0434916
-0.0435864
-0.0436434
-0.0436605
-0.0436361
-0.0435684
-0.0434557
-0.0432963
-0.043089
-0.0428322
-0.0425249
-0.042166
-0.0417548
-0.0412906
-0.0407731
-0.0402023
-0.0395782
-0.0389015
-0.0381728
-0.0373934
-0.0365645
-0.035688
-0.034766
-0.0338008
-0.0327951
-0.0317519
-0.0306745
-0.0295662
-0.0284307
-0.0272717
-0.0260932
-0.024899
-0.023693
-0.0224787
-0.0212604
-0.0200406
-0.0188234
-0.0176105
-0.0164059
-0.0152095
-0.0140258
-0.0128524
-0.0116944
-0.0105465
-0.00941538
-0.00829142
-0.00718432
-0.00607834
-0.00498764
-0.00388848
-0.0028011
-0.0016912
-0.000585849
-0.0416785
-0.0420835
-0.0424672
-0.0428283
-0.043166
-0.0434794
-0.0437667
-0.0440258
-0.0442545
-0.0444509
-0.0446131
-0.0447382
-0.0448252
-0.044872
-0.0448765
-0.0448369
-0.0447513
-0.0446181
-0.0444356
-0.0442024
-0.0439171
-0.0435786
-0.043186
-0.0427384
-0.0422354
-0.0416768
-0.0410627
-0.0403934
-0.0396695
-0.0388922
-0.0380627
-0.0371827
-0.0362544
-0.03528
-0.0342624
-0.0332045
-0.0321096
-0.0309814
-0.0298237
-0.0286404
-0.0274357
-0.0262137
-0.0249785
-0.0237345
-0.0224854
-0.0212355
-0.0199876
-0.018746
-0.0175124
-0.0162909
-0.0150814
-0.0138883
-0.0127091
-0.011549
-0.0104023
-0.00927591
-0.00815958
-0.00706316
-0.00597032
-0.00489542
-0.00381388
-0.00274634
-0.00165733
-0.000574562
-0.0429586
-0.0433778
-0.0437741
-0.0441457
-0.0444922
-0.0448126
-0.045105
-0.045367
-0.0455966
-0.0457913
-0.0459493
-0.0460689
-0.0461474
-0.0461828
-0.0461733
-0.0461168
-0.0460115
-0.0458558
-0.0456478
-0.0453862
-0.0450696
-0.044697
-0.0442674
-0.0437802
-0.0432349
-0.0426316
-0.0419705
-0.041252
-0.0404771
-0.039647
-0.0387634
-0.0378283
-0.036844
-0.0358134
-0.0347394
-0.0336255
-0.0324753
-0.031293
-0.0300825
-0.0288484
-0.0275951
-0.0263271
-0.0250488
-0.0237649
-0.0224792
-0.0211964
-0.0199194
-0.0186526
-0.0173978
-0.0161592
-0.0149366
-0.0137344
-0.01255
-0.0113885
-0.0102439
-0.00912322
-0.00801571
-0.00693129
-0.00585302
-0.00479546
-0.00373315
-0.00268714
-0.00162075
-0.000562364
-0.0443251
-0.0447593
-0.0451686
-0.0455512
-0.0459068
-0.0462344
-0.0465318
-0.0467968
-0.0470268
-0.0472197
-0.0473733
-0.0474856
-0.0475541
-0.0475769
-0.0475516
-0.0474765
-0.0473495
-0.0471688
-0.0469329
-0.0466402
-0.0462895
-0.0458796
-0.0454098
-0.0448794
-0.0442883
-0.0436365
-0.0429244
-0.0421527
-0.0413226
-0.0404357
-0.0394938
-0.0384994
-0.0374551
-0.036364
-0.0352297
-0.0340559
-0.0328468
-0.0316068
-0.0303404
-0.0290525
-0.0277478
-0.0264313
-0.0251077
-0.023782
-0.0224582
-0.0211413
-0.0198343
-0.0185417
-0.0172654
-0.0160095
-0.014774
-0.0135631
-0.0123742
-0.0112121
-0.0100707
-0.00895688
-0.00785948
-0.00678847
-0.00572627
-0.00468763
-0.0036462
-0.00262343
-0.00158143
-0.000549248
-0.0457797
-0.0462297
-0.0466525
-0.0470466
-0.0474115
-0.0477463
-0.0480488
-0.0483164
-0.0485465
-0.0487369
-0.0488852
-0.0489892
-0.0490465
-0.049055
-0.0490123
-0.0489165
-0.0487656
-0.0485577
-0.0482912
-0.0479646
-0.0475766
-0.0471263
-0.0466127
-0.0460356
-0.0453948
-0.0446905
-0.0439233
-0.0430943
-0.0422048
-0.0412566
-0.0402522
-0.0391941
-0.0380855
-0.0369298
-0.0357311
-0.0344936
-0.0332218
-0.0319206
-0.030595
-0.0292503
-0.0278916
-0.0265242
-0.0251532
-0.0237839
-0.0224207
-0.0210685
-0.0197307
-0.0184118
-0.0171138
-0.0158408
-0.0145928
-0.0133738
-0.012181
-0.0110193
-0.00988226
-0.00877651
-0.00769061
-0.00663448
-0.00558991
-0.00457183
-0.00355296
-0.00255518
-0.00153934
-0.000535206
-0.0473242
-0.0477908
-0.0482278
-0.0486336
-0.0490081
-0.0493502
-0.0496575
-0.0499274
-0.0501572
-0.0503442
-0.0504862
-0.0505808
-0.0506256
-0.0506182
-0.0505564
-0.0504378
-0.0502607
-0.050023
-0.0497231
-0.0493596
-0.0489311
-0.0484368
-0.0478759
-0.0472482
-0.0465537
-0.0457927
-0.0449662
-0.0440754
-0.0431221
-0.0421083
-0.0410367
-0.0399105
-0.0387332
-0.0375088
-0.0362415
-0.0349363
-0.0335981
-0.0322322
-0.0308441
-0.0294396
-0.0280242
-0.0266037
-0.0251833
-0.0237688
-0.0223647
-0.0209763
-0.019607
-0.0182616
-0.0169418
-0.015652
-0.0143918
-0.0131655
-0.0119698
-0.0108096
-0.00967808
-0.0085818
-0.00750885
-0.00646915
-0.00544381
-0.00444796
-0.00345337
-0.00248236
-0.00149448
-0.000520235
-0.0489609
-0.0494446
-0.0498962
-0.0503142
-0.0506984
-0.0510478
-0.0513599
-0.0516317
-0.0518604
-0.0520434
-0.0521781
-0.0522621
-0.0522928
-0.0522678
-0.0521847
-0.0520413
-0.0518354
-0.0515652
-0.051229
-0.0508254
-0.050353
-0.0498111
-0.0491991
-0.0485167
-0.0477643
-0.0469424
-0.0460521
-0.045095
-0.0440731
-0.042989
-0.0418458
-0.0406469
-0.0393964
-0.0380987
-0.0367587
-0.0353817
-0.0339732
-0.0325392
-0.0310854
-0.0296182
-0.0281435
-0.0266675
-0.025196
-0.0237347
-0.0222886
-0.0208632
-0.0194619
-0.0180897
-0.0167483
-0.015442
-0.0141704
-0.0129375
-0.01174
-0.0105825
-0.00945782
-0.00837246
-0.00731399
-0.00629233
-0.0052879
-0.00431598
-0.00334741
-0.00240495
-0.00144683
-0.000504338
-0.0506917
-0.0511933
-0.0516601
-0.0520905
-0.0524846
-0.0528412
-0.0531577
-0.053431
-0.0536581
-0.053836
-0.0539623
-0.0540343
-0.0540494
-0.054005
-0.0538986
-0.0537279
-0.0534907
-0.0531852
-0.0528095
-0.0523624
-0.0518426
-0.0512492
-0.050582
-0.0498408
-0.0490261
-0.0481386
-0.0471799
-0.0461517
-0.0450566
-0.0438974
-0.0426776
-0.0414013
-0.0400729
-0.0386975
-0.0372805
-0.0358276
-0.0343451
-0.0328393
-0.0313166
-0.0297838
-0.0282473
-0.0267137
-0.0251891
-0.0236797
-0.0221906
-0.0207274
-0.0192939
-0.0178949
-0.0165322
-0.01521
-0.0139277
-0.0126892
-0.011491
-0.0103375
-0.00922117
-0.00814827
-0.0071059
-0.00610394
-0.00512211
-0.00417587
-0.00323509
-0.00232297
-0.00139642
-0.000487519
-0.0525191
-0.0530393
-0.0535217
-0.0539647
-0.0543688
-0.0547325
-0.0550532
-0.0553275
-0.0555521
-0.0557241
-0.0558407
-0.0558993
-0.0558971
-0.0558312
-0.0556992
-0.0554987
-0.0552275
-0.0548836
-0.0544652
-0.0539711
-0.0534
-0.0527512
-0.0520246
-0.0512201
-0.0503384
-0.0493807
-0.0483487
-0.0472445
-0.0460711
-0.0448318
-0.0435305
-0.0421718
-0.0407608
-0.0393031
-0.0378046
-0.0362718
-0.0347113
-0.0331302
-0.0315354
-0.0299341
-0.0283334
-0.0267401
-0.0251609
-0.023602
-0.022069
-0.0205676
-0.0191016
-0.0176759
-0.0162923
-0.0149549
-0.0136629
-0.01242
-0.0112225
-0.0100744
-0.00896788
-0.00790907
-0.00688447
-0.00590392
-0.00494645
-0.00402765
-0.00311643
-0.00223644
-0.00134326
-0.000469786
-0.0544454
-0.0549848
-0.0554832
-0.0559392
-0.0563532
-0.056724
-0.0570484
-0.0573231
-0.0575445
-0.0577094
-0.0578151
-0.0578587
-0.0578373
-0.057748
-0.057588
-0.0573551
-0.0570469
-0.0566614
-0.0561968
-0.0556519
-0.0550256
-0.0543172
-0.0535266
-0.0526542
-0.0517009
-0.0506679
-0.0495575
-0.0483722
-0.0471153
-0.0457906
-0.0444027
-0.0429567
-0.0414582
-0.0399134
-0.038329
-0.0367119
-0.0350696
-0.0334096
-0.0317395
-0.030067
-0.0283996
-0.0267448
-0.0251092
-0.0234999
-0.0219222
-0.0203822
-0.0188837
-0.0174317
-0.0160278
-0.014676
-0.0133754
-0.0121294
-0.0109339
-0.00979281
-0.00869777
-0.00765473
-0.00664965
-0.00569229
-0.00476094
-0.00387137
-0.00299148
-0.00214542
-0.00128739
-0.000451152
-0.0564731
-0.0570324
-0.0575472
-0.0580163
-0.0584403
-0.0588178
-0.0591457
-0.05942
-0.0596373
-0.0597942
-0.0598876
-0.0599145
-0.0598719
-0.0597567
-0.0595664
-0.0592982
-0.0589499
-0.0585194
-0.0580051
-0.0574055
-0.0567197
-0.0559473
-0.0550882
-0.054143
-0.0531129
-0.0519995
-0.0508054
-0.0495336
-0.0481878
-0.0467724
-0.0452925
-0.0437539
-0.0421629
-0.0405262
-0.0388512
-0.0371457
-0.0354177
-0.0336752
-0.0319267
-0.0301802
-0.0284439
-0.0267256
-0.0250324
-0.0233715
-0.0217486
-0.0201698
-0.018639
-0.0171611
-0.0157377
-0.0143726
-0.0130646
-0.0118169
-0.010625
-0.00949254
-0.00841072
-0.00738523
-0.00640146
-0.00546908
-0.00456566
-0.0037071
-0.00286032
-0.00204995
-0.00122883
-0.000431634
-0.0586049
-0.0591846
-0.0597162
-0.0601985
-0.0606324
-0.0610164
-0.0613471
-0.0616205
-0.0618326
-0.0619804
-0.06206
-0.0620684
-0.0620024
-0.0618591
-0.0616357
-0.0613293
-0.0609377
-0.0604587
-0.0598908
-0.0592324
-0.0584828
-0.0576417
-0.0567092
-0.0556861
-0.054574
-0.0533748
-0.0520915
-0.0507275
-0.0492872
-0.0477755
-0.0461982
-0.0445617
-0.0428729
-0.0411394
-0.0393692
-0.0375709
-0.0357531
-0.0339247
-0.0320946
-0.0302716
-0.0284641
-0.0266806
-0.0249285
-0.0232151
-0.0215466
-0.019929
-0.0183663
-0.0168631
-0.0154212
-0.0140439
-0.0127299
-0.0114821
-0.0102955
-0.00917345
-0.00810667
-0.00710056
-0.00613996
-0.00523439
-0.00436071
-0.00353495
-0.00272305
-0.00195014
-0.00116766
-0.000411252
-0.0608434
-0.0614441
-0.0619927
-0.0624884
-0.0629321
-0.0633223
-0.0636553
-0.0639268
-0.0641327
-0.0642695
-0.0643338
-0.0643219
-0.0642307
-0.0640568
-0.0637975
-0.0634499
-0.0630115
-0.0624804
-0.0618547
-0.0611333
-0.0603153
-0.0594006
-0.0583896
-0.0572834
-0.0560837
-0.054793
-0.0534147
-0.0519528
-0.0504122
-0.0487985
-0.047118
-0.045378
-0.0435861
-0.0417507
-0.0398807
-0.0379852
-0.0360737
-0.0341558
-0.0322411
-0.0303388
-0.0284582
-0.0266078
-0.0247956
-0.0230293
-0.0213149
-0.0196586
-0.0180644
-0.016537
-0.0150776
-0.0136895
-0.0123711
-0.0111248
-0.00994524
-0.00883548
-0.00778562
-0.0068008
-0.00586525
-0.00498836
-0.00414625
-0.00335508
-0.0025798
-0.00184607
-0.00110393
-0.000390029
-0.0631913
-0.0638135
-0.0643795
-0.0648885
-0.0653418
-0.0657378
-0.0660725
-0.0663413
-0.0665399
-0.0666645
-0.0667116
-0.0666774
-0.0665585
-0.0663515
-0.0660534
-0.0656613
-0.0651727
-0.0645855
-0.0638979
-0.0631089
-0.0622177
-0.0612244
-0.0601296
-0.0589346
-0.0576416
-0.0562536
-0.0547743
-0.0532084
-0.0515614
-0.0498396
-0.0480501
-0.0462009
-0.0443005
-0.0423581
-0.0403833
-0.0383863
-0.0363771
-0.0343662
-0.0323638
-0.0303799
-0.028424
-0.0265054
-0.0246322
-0.0228123
-0.0210519
-0.0193574
-0.0177325
-0.0161817
-0.0147062
-0.0133089
-0.0119877
-0.0107447
-0.00957418
-0.00847862
-0.00744767
-0.00648609
-0.00557752
-0.00473119
-0.00392247
-0.00316766
-0.00243073
-0.00173786
-0.00103771
-0.000367993
-0.0656513
-0.0662955
-0.066879
-0.0674014
-0.0678642
-0.0682655
-0.0686012
-0.0688664
-0.0690564
-0.0691673
-0.0691954
-0.0691368
-0.0689879
-0.068745
-0.0684051
-0.067965
-0.0674224
-0.0667751
-0.0660213
-0.06516
-0.0641906
-0.0631133
-0.061929
-0.0606395
-0.0592473
-0.0577557
-0.0561692
-0.054493
-0.0527333
-0.0508973
-0.0489927
-0.0470284
-0.0450139
-0.0429592
-0.0408748
-0.0387717
-0.0366609
-0.0345536
-0.0324606
-0.0303926
-0.0283597
-0.0263715
-0.0244364
-0.0225627
-0.0207565
-0.0190242
-0.0173695
-0.0157966
-0.0143065
-0.0129016
-0.0115795
-0.0103418
-0.00918228
-0.00810297
-0.00709295
-0.00615661
-0.00527699
-0.00446309
-0.00368959
-0.0029729
-0.002276
-0.00162566
-0.000969103
-0.000345174
-0.0682263
-0.0688928
-0.0694941
-0.0700298
-0.0705017
-0.070908
-0.0712439
-0.0715044
-0.0716846
-0.0717802
-0.0717874
-0.0717022
-0.0715207
-0.0712391
-0.0708541
-0.0703626
-0.0697621
-0.0690504
-0.0682258
-0.0672872
-0.0662344
-0.0650676
-0.0637881
-0.062398
-0.0609002
-0.0592988
-0.0575986
-0.0558056
-0.0539267
-0.0519699
-0.049944
-0.0478586
-0.0457242
-0.0435518
-0.0413529
-0.0391392
-0.0369228
-0.0347156
-0.0325291
-0.0303748
-0.0282631
-0.0262042
-0.0242067
-0.022279
-0.0204274
-0.0186581
-0.0169747
-0.0153811
-0.013878
-0.0124674
-0.0111463
-0.00991601
-0.0087696
-0.00770866
-0.00672169
-0.00581263
-0.00496392
-0.00418436
-0.00344788
-0.00277104
-0.00211582
-0.0015096
-0.000898186
-0.000321607
-0.0709188
-0.0716082
-0.0722273
-0.0727762
-0.073257
-0.0736676
-0.074003
-0.0742577
-0.0744267
-0.0745054
-0.0744898
-0.0743757
-0.0741589
-0.0738355
-0.0734022
-0.0728556
-0.0721932
-0.0714126
-0.0705124
-0.0694915
-0.0683497
-0.0670877
-0.065707
-0.06421
-0.0626002
-0.0608821
-0.0590614
-0.0571448
-0.05514
-0.0530558
-0.0509021
-0.0486895
-0.0464293
-0.0441337
-0.0418152
-0.0394865
-0.0371605
-0.03485
-0.0325673
-0.0303245
-0.0281325
-0.0260018
-0.0239415
-0.0219599
-0.0200634
-0.0182581
-0.0165473
-0.0149346
-0.0134203
-0.012006
-0.0106881
-0.00946736
-0.0083363
-0.00729592
-0.00633414
-0.00545443
-0.00463863
-0.00389529
-0.00319764
-0.00256233
-0.00195041
-0.00138986
-0.000825067
-0.000297326
-0.0737317
-0.0744442
-0.0750812
-0.0756433
-0.0761325
-0.0765468
-0.0768809
-0.0771287
-0.077285
-0.077345
-0.0773045
-0.0771591
-0.0769043
-0.0765362
-0.076051
-0.0754455
-0.0747169
-0.073863
-0.0728822
-0.0717736
-0.0705373
-0.069174
-0.0676857
-0.0660752
-0.0643466
-0.062505
-0.0605568
-0.0585095
-0.0563718
-0.0541534
-0.0518652
-0.0495188
-0.0471269
-0.0447026
-0.0422594
-0.0398111
-0.0373716
-0.0349545
-0.032573
-0.0302396
-0.0279659
-0.0257627
-0.0236393
-0.0216041
-0.0196635
-0.0178233
-0.0160866
-0.0144567
-0.0129332
-0.0115173
-0.0102049
-0.008996
-0.0078826
-0.00686504
-0.00593065
-0.0050824
-0.00430151
-0.00359626
-0.00293919
-0.00234707
-0.00178
-0.0012666
-0.000749856
-0.000272372
-0.0766676
-0.0774036
-0.0780585
-0.0786334
-0.0791307
-0.0795481
-0.0798799
-0.0801197
-0.0802619
-0.0803014
-0.0802338
-0.0800546
-0.079759
-0.0793429
-0.0788023
-0.078134
-0.0773349
-0.0764029
-0.0753363
-0.0741345
-0.0727977
-0.0713269
-0.0697244
-0.0679936
-0.0661391
-0.0641668
-0.0620838
-0.0598985
-0.0576206
-0.0552609
-0.0528313
-0.0503447
-0.0478149
-0.0452561
-0.0426831
-0.0401107
-0.0375538
-0.0350269
-0.0325439
-0.0301181
-0.0277615
-0.0254852
-0.0232987
-0.0212104
-0.0192267
-0.017353
-0.0155922
-0.0139469
-0.0124165
-0.0110013
-0.00969679
-0.00850215
-0.0074088
-0.00641638
-0.00551162
-0.00469694
-0.00395294
-0.00328764
-0.00267289
-0.00212556
-0.00160485
-0.00114003
-0.000672669
-0.000246786
-0.0797292
-0.0804888
-0.0811616
-0.081749
-0.0822539
-0.0826736
-0.0830022
-0.083233
-0.0833599
-0.0833767
-0.0832798
-0.0830642
-0.0827248
-0.0822574
-0.0816578
-0.0809225
-0.0800485
-0.0790334
-0.0778758
-0.0765751
-0.0751316
-0.0735468
-0.0718233
-0.0699651
-0.0679774
-0.0658669
-0.0636415
-0.0613106
-0.0588849
-0.0563765
-0.0537985
-0.051165
-0.048491
-0.045792
-0.043084
-0.040383
-0.0377048
-0.0350649
-0.032478
-0.029958
-0.0275175
-0.0251677
-0.0229183
-0.0207777
-0.0187521
-0.0168465
-0.0150635
-0.0134052
-0.0118701
-0.0104581
-0.00916398
-0.00798611
-0.00691526
-0.00595036
-0.0050775
-0.00429851
-0.0035934
-0.00296988
-0.00239913
-0.00189816
-0.00142522
-0.00101034
-0.000593629
-0.00022061
-0.082919
-0.0837024
-0.0843929
-0.0849925
-0.0855044
-0.0859256
-0.0862499
-0.0864704
-0.0865823
-0.0865729
-0.0864443
-0.0861896
-0.0858037
-0.0852817
-0.0846193
-0.0838128
-0.0828592
-0.081756
-0.0805018
-0.0790962
-0.0775397
-0.0758342
-0.0739826
-0.0719896
-0.0698611
-0.0676045
-0.0652288
-0.0627445
-0.0601634
-0.0574987
-0.0547649
-0.0519776
-0.049153
-0.0463079
-0.0434597
-0.0406254
-0.0378222
-0.0350663
-0.0323733
-0.0297576
-0.0272322
-0.0248088
-0.022497
-0.0203051
-0.018239
-0.0163034
-0.0145003
-0.0128312
-0.0112941
-0.00988788
-0.00860674
-0.00744824
-0.00640244
-0.00546746
-0.00462879
-0.00388761
-0.00322336
-0.00264342
-0.00211832
-0.00166519
-0.00124142
-0.000877739
-0.000512866
-0.00019389
-0.0862394
-0.0870467
-0.0877547
-0.0883661
-0.0888844
-0.0893062
-0.0896245
-0.0898315
-0.0899196
-0.0898895
-0.0897286
-0.0894328
-0.0889974
-0.0884174
-0.0876884
-0.0868065
-0.0857685
-0.084572
-0.0832156
-0.081699
-0.0800229
-0.0781896
-0.0762026
-0.0740671
-0.0717898
-0.0693791
-0.066845
-0.064199
-0.0614543
-0.0586255
-0.0557285
-0.0527803
-0.0497985
-0.0468014
-0.0438077
-0.0408358
-0.0379038
-0.0350289
-0.0322276
-0.0295149
-0.0269041
-0.024407
-0.0220335
-0.0197915
-0.0176866
-0.015723
-0.0139022
-0.0122249
-0.0106884
-0.00929082
-0.00802544
-0.006889
-0.00587084
-0.00496825
-0.00416606
-0.00346481
-0.00284336
-0.00230875
-0.00183089
-0.00142705
-0.00105372
-0.000742449
-0.000430512
-0.000166672
-0.0896928
-0.0905239
-0.0912492
-0.0918721
-0.0923961
-0.0928179
-0.0931297
-0.0933236
-0.0933929
-0.0933329
-0.0931358
-0.092796
-0.092308
-0.0916666
-0.0908671
-0.0899054
-0.0887781
-0.0874829
-0.0860184
-0.0843844
-0.0825819
-0.0806136
-0.0784835
-0.0761976
-0.0737633
-0.07119
-0.0684889
-0.0656727
-0.0627562
-0.0597552
-0.0566873
-0.0535709
-0.0504252
-0.0472702
-0.0441257
-0.0410117
-0.0379472
-0.0349506
-0.032039
-0.0292281
-0.0265315
-0.0239612
-0.0215268
-0.0192361
-0.0170944
-0.0151052
-0.0132692
-0.0115865
-0.0100535
-0.0086673
-0.00742054
-0.00630892
-0.00532104
-0.0044533
-0.0036899
-0.00303069
-0.00245396
-0.00196638
-0.0015373
-0.0011841
-0.000862443
-0.000604695
-0.000346705
-0.000139003
-0.0932811
-0.094136
-0.0948783
-0.0955122
-0.0960415
-0.0964624
-0.0967668
-0.0969463
-0.0969937
-0.0969031
-0.0966677
-0.0962811
-0.0957374
-0.095031
-0.0941569
-0.0931109
-0.0918895
-0.0904901
-0.0889115
-0.0871535
-0.0852176
-0.0831067
-0.0808256
-0.0783809
-0.0757811
-0.0730365
-0.0701596
-0.0671646
-0.0640675
-0.060886
-0.0576392
-0.0543472
-0.0510309
-0.0477118
-0.0444113
-0.0411507
-0.0379502
-0.0348292
-0.0318056
-0.0288955
-0.0261129
-0.0234699
-0.0209759
-0.0186384
-0.016462
-0.0144496
-0.0126013
-0.010916
-0.00938947
-0.00801775
-0.00679256
-0.00570858
-0.00475367
-0.00392329
-0.00320098
-0.00258588
-0.00205573
-0.00161685
-0.00123802
-0.00093675
-0.000667903
-0.000464706
-0.000261584
-0.000110932
-0.0970063
-0.097885
-0.0986439
-0.0992883
-0.0998222
-0.100241
-0.100537
-0.100701
-0.100725
-0.100602
-0.100326
-0.0998899
-0.0992873
-0.0985124
-0.0975598
-0.096425
-0.0951043
-0.0935951
-0.0918961
-0.0900075
-0.0879308
-0.0856696
-0.0832293
-0.0806173
-0.077843
-0.074918
-0.0718562
-0.0686732
-0.0653867
-0.0620161
-0.0585822
-0.0551069
-0.0516131
-0.0481238
-0.0446621
-0.0412505
-0.0379106
-0.0346627
-0.0315255
-0.0285155
-0.0256471
-0.0229321
-0.02038
-0.0179975
-0.0157889
-0.0137561
-0.0118984
-0.0102137
-0.00869685
-0.0073427
-0.00614211
-0.00508867
-0.00416944
-0.0033789
-0.00269998
-0.00213103
-0.0016493
-0.00126072
-0.000933527
-0.000685404
-0.000470421
-0.000322717
-0.000175291
-8.25067e-05
-0.10087
-0.101772
-0.102548
-0.103202
-0.10374
-0.104156
-0.104443
-0.104589
-0.104587
-0.104431
-0.104112
-0.103624
-0.10296
-0.102113
-0.101078
-0.0998493
-0.0984242
-0.0967994
-0.0949738
-0.0929475
-0.0907226
-0.0883031
-0.085695
-0.0829067
-0.0799487
-0.076834
-0.0735777
-0.0701972
-0.0667121
-0.0631434
-0.0595141
-0.0558479
-0.0521696
-0.0485039
-0.0448756
-0.0413087
-0.0378261
-0.034449
-0.0311968
-0.0280865
-0.0251326
-0.0223469
-0.0197383
-0.0173132
-0.015075
-0.0130248
-0.0111609
-0.00948006
-0.0079761
-0.00664274
-0.00546987
-0.00444989
-0.00356909
-0.00282089
-0.00218762
-0.00166683
-0.0012353
-0.000898536
-0.000624319
-0.000430476
-0.000270326
-0.000178967
-8.79704e-05
-5.37769e-05
-0.104874
-0.105799
-0.10659
-0.107254
-0.107795
-0.108209
-0.108484
-0.108612
-0.108584
-0.108392
-0.108028
-0.107485
-0.106756
-0.105834
-0.104712
-0.103386
-0.101851
-0.100105
-0.0981459
-0.0959749
-0.093594
-0.0910078
-0.0882232
-0.0852493
-0.0820981
-0.0787837
-0.0753231
-0.0717355
-0.0680421
-0.0642663
-0.0604329
-0.0565678
-0.0526978
-0.0488495
-0.0450494
-0.041323
-0.0376945
-0.0341861
-0.0308178
-0.027607
-0.0245683
-0.0217131
-0.0190502
-0.016585
-0.0143201
-0.0122557
-0.0103889
-0.0087154
-0.0072278
-0.00591855
-0.00477658
-0.00379304
-0.00295342
-0.00225005
-0.00166467
-0.001194
-0.000814377
-0.000530896
-0.000310902
-0.000172385
-6.79482e-05
-3.36928e-05
2.34973e-07
-2.47913e-05
-0.109019
-0.109967
-0.110773
-0.111446
-0.11199
-0.112399
-0.112663
-0.112772
-0.112715
-0.112485
-0.112075
-0.111475
-0.110678
-0.109677
-0.108465
-0.107036
-0.105386
-0.103513
-0.101414
-0.0990909
-0.096546
-0.0937846
-0.0908142
-0.0876453
-0.0842908
-0.0807667
-0.0770916
-0.0732866
-0.0693751
-0.0653827
-0.0613364
-0.0572644
-0.0531954
-0.0491582
-0.0451811
-0.0412912
-0.0375138
-0.0338722
-0.0303869
-0.0270756
-0.023953
-0.0210301
-0.0183151
-0.0158126
-0.0135242
-0.011449
-0.00958298
-0.00792033
-0.00645263
-0.0051709
-0.00406306
-0.00311895
-0.00232327
-0.00166719
-0.0011319
-0.000713251
-0.000387198
-0.000158387
6.2172e-06
8.84471e-05
0.000136381
0.000112865
8.91816e-05
4.40131e-06
-0.114276
-0.115097
-0.115779
-0.116325
-0.116729
-0.116981
-0.117068
-0.116982
-0.116714
-0.116255
-0.115595
-0.114728
-0.113644
-0.112337
-0.110801
-0.109032
-0.107025
-0.10478
-0.102297