/*--------------------------------*- C++ -*----------------------------------*\
  =========                 |
  \\      /  F ield         | OpenFOAM: The Open Source CFD Toolbox
   \\    /   O peration     | Website:  https://openfoam.org
    \\  /    A nd           | Version:  7
     \\/     M anipulation  |
\*---------------------------------------------------------------------------*/
FoamFile
{
    version     2.0;
    format      ascii;
    class       volVectorField;
    location    "8";
    object      U;
}
// * * * * * * * * * * * * * * * * * * * * * * * * * * * * * * * * * * * * * //

dimensions      [0 1 -1 0 0 0 0];

internalField   nonuniform List<vector> 
433
(
(0.382114 0.43602 1.11339e-19)
(0.402987 0.445785 -1.50607e-19)
(0.423676 0.453727 1.06258e-19)
(0.444135 0.459816 -2.16269e-20)
(0.46432 0.464042 2.70228e-20)
(0.484193 0.466413 -1.13977e-20)
(0.333722 0.405988 -3.42754e-20)
(0.354099 0.416732 -6.50553e-20)
(0.374454 0.425756 1.25016e-19)
(0.394741 0.433022 -3.32967e-20)
(0.414913 0.438506 6.54469e-21)
(0.434927 0.442204 -3.23859e-20)
(0.45474 0.444128 -1.03072e-19)
(0.474313 0.444309 -4.82505e-20)
(0.493611 0.442799 -2.81475e-20)
(0.512603 0.439665 1.21799e-19)
(0.287627 0.373222 -8.4304e-20)
(0.307283 0.384747 5.40016e-20)
(0.327076 0.394673 2.0828e-20)
(0.346961 0.402953 -1.9538e-19)
(0.36689 0.409555 1.13888e-19)
(0.386818 0.414462 -8.97671e-21)
(0.406698 0.417672 8.89438e-20)
(0.426486 0.419202 9.11274e-20)
(0.446139 0.419087 -4.1305e-20)
(0.465616 0.417378 6.8327e-20)
(0.48488 0.414147 -9.54112e-20)
(0.503897 0.409479 2.13914e-20)
(0.522638 0.403475 -6.1432e-20)
(0.541077 0.396251 -4.51792e-21)
(0.559192 0.387931 5.32619e-20)
(0.225902 0.324726 -4.56727e-20)
(0.244303 0.338199 4.61052e-20)
(0.263031 0.350271 -1.1372e-19)
(0.282046 0.36088 1.45477e-19)
(0.301306 0.369974 1.46613e-20)
(0.320767 0.37751 -9.55773e-21)
(0.340382 0.383464 -1.1357e-19)
(0.360104 0.38782 1.05654e-19)
(0.379884 0.390584 -2.26498e-20)
(0.399675 0.391774 3.15742e-20)
(0.41943 0.391426 -1.97124e-19)
(0.439103 0.389593 6.6927e-20)
(0.458651 0.386344 5.24941e-20)
(0.478033 0.381764 1.50931e-20)
(0.497211 0.375951 -1.16691e-19)
(0.516153 0.369015 6.74305e-20)
(0.534827 0.361075 -5.48765e-20)
(0.553208 0.352257 -2.68245e-20)
(0.571272 0.342691 5.30105e-20)
(0.588998 0.332506 4.44492e-20)
(0.187023 0.287872 -4.23209e-20)
(0.204175 0.301477 4.5479e-20)
(0.221788 0.313832 5.61038e-20)
(0.239828 0.324871 -6.11591e-20)
(0.258258 0.334538 3.98008e-20)
(0.277036 0.342787 -2.99096e-20)
(0.296119 0.349584 -3.39771e-20)
(0.31546 0.354904 -1.23272e-20)
(0.33501 0.35874 4.59577e-21)
(0.354719 0.361098 -1.41204e-20)
(0.374536 0.361999 -4.89924e-20)
(0.394409 0.361479 3.0628e-20)
(0.414288 0.359591 1.81733e-19)
(0.434123 0.356402 -2.26906e-19)
(0.453868 0.351993 7.17608e-20)
(0.473477 0.346457 7.16352e-20)
(0.492909 0.339899 4.5166e-20)
(0.512124 0.332431 -1.97672e-20)
(0.531089 0.324172 -2.90799e-20)
(0.549772 0.315241 -1.7873e-20)
(0.568144 0.30576 1.22818e-19)
(0.586177 0.295851 -8.95437e-20)
(0.603848 0.285627 1.33444e-19)
(0.621186 0.275179 -3.39493e-20)
(0.638222 0.264572 -5.23321e-20)
(0.151839 0.250247 -7.19355e-20)
(0.167601 0.263686 7.50599e-20)
(0.183941 0.276031 -1.18655e-19)
(0.200834 0.287218 9.98961e-21)
(0.218249 0.297188 1.08346e-19)
(0.23615 0.305891 -4.03767e-21)
(0.254496 0.313288 -6.64517e-20)
(0.273246 0.319347 -1.66813e-20)
(0.29235 0.324051 5.97093e-20)
(0.311759 0.327395 -7.41472e-20)
(0.331421 0.329386 4.21426e-20)
(0.35128 0.330047 1.99498e-20)
(0.371281 0.329413 -1.03273e-19)
(0.391369 0.327536 9.17762e-20)
(0.411489 0.324478 2.48307e-20)
(0.431587 0.320317 1.30073e-19)
(0.45161 0.315139 -2.36694e-19)
(0.47151 0.309042 1.25203e-19)
(0.491241 0.30213 -1.11751e-20)
(0.51076 0.294512 -2.62486e-20)
(0.530028 0.286299 -5.26523e-20)
(0.549009 0.277602 2.51755e-20)
(0.567669 0.268532 6.922e-20)
(0.58598 0.259194 -1.43761e-19)
(0.603956 0.249671 -6.54423e-20)
(0.621612 0.24003 2.1157e-20)
(0.638522 0.230474 1.42829e-19)
(0.12059 0.212552 -7.92434e-20)
(0.134855 0.225511 2.12843e-20)
(0.1498 0.237536 1.38219e-19)
(0.165406 0.248564 -6.35582e-20)
(0.181651 0.258538 3.17136e-21)
(0.198505 0.267407 -1.67711e-20)
(0.215935 0.275128 5.51729e-20)
(0.2339 0.281665 -9.5645e-20)
(0.252358 0.286993 7.77798e-20)
(0.271261 0.291098 1.81545e-20)
(0.290557 0.293976 -1.20918e-20)
(0.31019 0.295638 -1.10376e-19)
(0.330103 0.296104 1.95411e-19)
(0.350236 0.29541 -4.21526e-20)
(0.370529 0.293604 -4.2639e-20)
(0.390922 0.290743 -1.215e-21)
(0.411355 0.2869 -6.90566e-20)
(0.431769 0.282154 -6.06153e-20)
(0.452108 0.276593 -2.89442e-20)
(0.47232 0.270312 1.94544e-19)
(0.492354 0.263411 -9.45872e-20)
(0.512165 0.255989 1.35748e-19)
(0.531711 0.248147 4.12193e-21)
(0.550951 0.239985 -1.80629e-19)
(0.569852 0.231595 1.28661e-19)
(0.588417 0.223056 7.27526e-20)
(0.606647 0.21443 -1.40959e-19)
(0.624192 0.205874 -6.42006e-21)
(0.10612 0.187678 -5.58937e-20)
(0.119586 0.19906 1.04877e-20)
(0.133804 0.209609 6.4486e-22)
(0.148759 0.21927 -4.16625e-20)
(0.16443 0.227993 4.62695e-20)
(0.18079 0.235734 2.63597e-20)
(0.197807 0.242455 -8.90039e-20)
(0.215441 0.248128 4.80418e-20)
(0.233649 0.25273 -6.27917e-20)
(0.252382 0.256251 3.98632e-20)
(0.271587 0.25869 6.38774e-20)
(0.291206 0.260056 -1.31421e-19)
(0.311179 0.26037 -1.00867e-20)
(0.331442 0.259665 6.04354e-20)
(0.351931 0.257984 -2.08958e-20)
(0.372579 0.25538 6.8781e-20)
(0.393322 0.251918 -9.31765e-21)
(0.414095 0.247668 -1.09302e-19)
(0.434837 0.24271 8.29095e-20)
(0.455487 0.237128 -3.6137e-20)
(0.475991 0.23101 1.59009e-19)
(0.496295 0.224445 -1.57998e-19)
(0.516353 0.217521 4.81011e-20)
(0.536118 0.210326 -1.38634e-20)
(0.555554 0.202941 -1.38323e-19)
(0.574651 0.195438 5.07051e-20)
(0.5934 0.187871 7.25192e-20)
(0.611521 0.18036 -6.53857e-20)
(0.0814773 0.150934 4.14249e-20)
(0.0934224 0.161348 -2.41766e-21)
(0.106191 0.17109 -3.7773e-20)
(0.119777 0.180109 6.52472e-20)
(0.134167 0.188358 -7.05489e-20)
(0.149342 0.195797 5.53347e-20)
(0.165277 0.202386 -6.45394e-21)
(0.181939 0.208095 -2.2162e-20)
(0.19929 0.212899 3.23442e-20)
(0.217288 0.216782 -1.22071e-19)
(0.235881 0.219734 5.6666e-20)
(0.255016 0.221755 6.03641e-20)
(0.274631 0.222856 -7.26468e-20)
(0.294665 0.223056 1.36066e-19)
(0.31505 0.222383 -8.87768e-20)
(0.335717 0.220876 -3.69216e-21)
(0.356597 0.218582 6.09568e-20)
(0.377619 0.215555 -8.15104e-20)
(0.398714 0.21186 2.23938e-20)
(0.419813 0.207564 6.60836e-20)
(0.440854 0.20274 -1.19191e-19)
(0.461773 0.197464 1.41561e-20)
(0.482514 0.191812 -4.89029e-21)
(0.503023 0.18586 3.18475e-20)
(0.523253 0.179684 7.33354e-20)
(0.54316 0.173353 -2.18961e-20)
(0.562726 0.166928 -1.35868e-19)
(0.581931 0.16046 6.92774e-20)
(0.600563 0.154034 5.0602e-20)
(0.0608979 0.116029 -7.70705e-20)
(0.0713264 0.125156 3.93614e-20)
(0.0826303 0.133765 3.81122e-20)
(0.094811 0.141811 -2.69913e-20)
(0.107864 0.149254 3.89654e-20)
(0.121778 0.156055 -6.30133e-20)
(0.136536 0.162179 1.43335e-20)
(0.152114 0.167597 2.88701e-20)
(0.168481 0.172282 -2.77927e-21)
(0.185598 0.176216 1.69054e-22)
(0.203423 0.179384 -4.38425e-20)
(0.221904 0.18178 1.81195e-20)
(0.240984 0.183405 -3.39383e-20)
(0.260604 0.184268 4.95659e-20)
(0.280695 0.184386 -2.11657e-20)
(0.301189 0.183783 -5.31447e-20)
(0.322014 0.182491 8.72208e-20)
(0.343095 0.180551 -1.07305e-19)
(0.364359 0.178009 -1.66755e-20)
(0.385731 0.174917 1.73611e-20)
(0.407139 0.171333 -7.09606e-21)
(0.428514 0.167317 2.52302e-21)
(0.449789 0.162932 6.97756e-20)
(0.470904 0.158241 1.08955e-20)
(0.4918 0.153309 2.66304e-20)
(0.512425 0.148195 -2.78005e-20)
(0.532734 0.142958 -4.13043e-20)
(0.5527 0.137651 -2.48559e-20)
(0.572295 0.132314 -4.3315e-20)
(0.591363 0.127007 -3.35344e-20)
(0.0532048 0.0912274 -8.67141e-21)
(0.0630731 0.0983886 8.62132e-20)
(0.0738578 0.105139 -7.26454e-20)
(0.0855625 0.111444 1.56375e-20)
(0.0981846 0.117273 4.32212e-20)
(0.111715 0.122594 -1.33735e-21)
(0.126138 0.127382 -8.66393e-21)
(0.141429 0.131612 -5.68499e-20)
(0.15756 0.135266 8.52203e-20)
(0.174491 0.138326 -2.14875e-20)
(0.192179 0.140785 -2.01472e-20)
(0.210573 0.142636 -3.69519e-20)
(0.229614 0.143882 2.26807e-20)
(0.24924 0.144529 -3.6239e-20)
(0.269382 0.144592 6.00982e-20)
(0.289969 0.14409 -5.90918e-20)
(0.310925 0.143049 8.11643e-20)
(0.332174 0.1415 8.85893e-21)
(0.353637 0.139482 8.16511e-21)
(0.375237 0.137034 7.20442e-20)
(0.396898 0.134203 -1.25978e-19)
(0.418547 0.131037 1.17219e-19)
(0.440114 0.127584 -7.19391e-20)
(0.461533 0.123894 5.95395e-21)
(0.482745 0.120018 2.64593e-20)
(0.503693 0.116003 -6.50233e-20)
(0.52433 0.111895 6.72601e-20)
(0.544621 0.107735 3.72983e-21)
(0.564533 0.103556 -1.66095e-20)
(0.583959 0.0993978 5.20705e-20)
(0.0388542 0.0602718 -3.30068e-20)
(0.0473614 0.0656925 3.51928e-20)
(0.0568052 0.070841 2.3004e-21)
(0.0671968 0.0756921 1.16467e-20)
(0.0785415 0.0802214 -3.56172e-20)
(0.0908382 0.0844059 2.35514e-20)
(0.104079 0.0882242 -6.79521e-22)
(0.118249 0.091657 -2.17473e-20)
(0.133325 0.0946874 1.97371e-20)
(0.149278 0.0973014 -3.84703e-20)
(0.166071 0.0994885 1.97539e-21)
(0.183657 0.101241 1.92447e-20)
(0.201987 0.102557 3.51596e-20)
(0.221 0.103437 2.50035e-20)
(0.240634 0.103887 -7.62123e-21)
(0.260817 0.103916 -4.29596e-20)
(0.281476 0.103539 2.1627e-21)
(0.302535 0.102776 2.93807e-21)
(0.323912 0.101649 -5.62541e-20)
(0.345529 0.100185 3.88513e-21)
(0.367304 0.0984136 -1.93256e-20)
(0.389158 0.0963682 3.75366e-20)
(0.411017 0.094083 -9.04789e-21)
(0.432806 0.0915937 -3.06306e-20)
(0.454458 0.0889362 3.5276e-20)
(0.475909 0.0861462 -1.09081e-20)
(0.497104 0.0832582 9.53244e-21)
(0.51799 0.0803051 4.29293e-20)
(0.538528 0.0773166 -7.48055e-20)
(0.558682 0.0743162 -1.62326e-20)
(0.57838 0.0713295 -8.40743e-21)
(0.0352283 0.0363612 -3.17106e-21)
(0.0434305 0.0396285 9.27643e-21)
(0.0525893 0.042731 -2.0773e-20)
(0.0627171 0.0456535 -4.17986e-21)
(0.0738203 0.0483813 1.14779e-20)
(0.0858989 0.0509005 9.18263e-21)
(0.0989457 0.0531984 1.47149e-20)
(0.112946 0.0552632 -2.81533e-20)
(0.127879 0.057085 4.45283e-21)
(0.143714 0.0586553 1.58419e-20)
(0.160414 0.0599678 -1.24681e-20)
(0.177934 0.0610183 -1.80723e-20)
(0.196221 0.0618051 1.77837e-20)
(0.215217 0.062329 -2.10213e-20)
(0.234857 0.0625935 2.76433e-20)
(0.255069 0.0626047 -2.15342e-20)
(0.275778 0.0623716 -1.03808e-21)
(0.296906 0.0619057 2.41198e-20)
(0.318371 0.0612209 -8.83954e-21)
(0.340091 0.0603335 -2.56004e-21)
(0.361985 0.0592616 7.90298e-21)
(0.38397 0.0580251 -1.12272e-20)
(0.40597 0.0566446 7.24378e-21)
(0.427909 0.0551419 3.3217e-21)
(0.449718 0.0535386 -8.40937e-21)
(0.471331 0.0518561 -1.87232e-20)
(0.492691 0.0501152 3.86929e-20)
(0.513746 0.0483357 5.35806e-21)
(0.53445 0.0465358 1.55017e-21)
(0.554767 0.0447295 1.29043e-20)
(0.574648 0.0429307 -8.4189e-21)
(0.0504701 0.0142815 6.79499e-21)
(0.0604655 0.0152577 -6.85078e-21)
(0.0714475 0.0161686 3.49461e-21)
(0.0834167 0.0170098 9.58991e-22)
(0.0963664 0.0177769 -4.36089e-21)
(0.110282 0.018466 1.11397e-20)
(0.125143 0.0190739 -2.70061e-21)
(0.140919 0.0195976 -6.63745e-21)
(0.157573 0.0200351 6.09828e-21)
(0.175059 0.0203851 5.59964e-21)
(0.193326 0.0206469 -8.56999e-21)
(0.212313 0.0208209 -3.24344e-21)
(0.231956 0.0209082 9.47745e-21)
(0.252183 0.0209109 7.98922e-22)
(0.272918 0.020832 2.5414e-21)
(0.294081 0.0206753 -2.19105e-21)
(0.31559 0.0204456 9.97043e-22)
(0.337363 0.0201483 6.74906e-21)
(0.359316 0.0197895 6.84115e-21)
(0.381368 0.0193758 -9.14631e-21)
(0.403438 0.0189141 -5.5138e-21)
(0.425453 0.0184116 6.79994e-21)
(0.447341 0.0178757 6.04552e-21)
(0.469036 0.0173135 -1.5927e-20)
(0.490479 0.0167318 -2.56911e-21)
(0.511618 0.0161374 4.49756e-21)
(0.532407 0.0155363 1.26762e-21)
(0.552805 0.0149332 2.35318e-21)
(0.572779 0.0143325 -5.56302e-21)
(0.999869 0.000160168 1.64775e-21)
(0.99106 0.00050419 -1.04406e-21)
(0.974742 0.000916533 5.73118e-23)
(0.952004 0.00147424 -8.00181e-22)
(0.921679 0.00220317 2.18004e-22)
(0.884554 0.00324694 3.72839e-22)
(0.837408 0.0046722 1.05404e-21)
(0.78141 0.00659285 9.37068e-22)
(0.713246 0.00939121 -5.89454e-22)
(0.63095 0.0125879 -5.11851e-22)
(0.999869 0.000480551 -2.49064e-21)
(0.991061 0.00151245 2.28268e-21)
(0.974756 0.00274943 1.85512e-22)
(0.952034 0.00442208 -2.17084e-21)
(0.921754 0.00660835 1.38298e-21)
(0.884698 0.00973911 -1.96671e-21)
(0.837672 0.0140103 -1.0617e-21)
(0.781932 0.0197695 2.25551e-21)
(0.714076 0.0281493 -2.9415e-21)
(0.632445 0.0377117 1.25037e-21)
(0.999868 0.000801058 4.15139e-21)
(0.991063 0.00252032 -3.11211e-21)
(0.974783 0.00458175 -5.5171e-22)
(0.952094 0.00736796 4.9171e-21)
(0.921903 0.01101 -2.1589e-21)
(0.884987 0.016226 -1.28567e-21)
(0.838201 0.0233293 5.33199e-21)
(0.782974 0.0329191 -9.09616e-21)
(0.715736 0.0468342 2.0738e-21)
(0.635434 0.0626797 8.42665e-21)
(0.999867 0.00112177 -1.94346e-21)
(0.991067 0.00352748 6.79986e-21)
(0.974824 0.00641309 1.19309e-21)
(0.952185 0.0103105 -6.4691e-21)
(0.922128 0.0154059 1.73009e-21)
(0.88542 0.0227039 -2.36959e-21)
(0.838999 0.0326169 3.36599e-22)
(0.784537 0.0460235 -1.70436e-21)
(0.718225 0.0653961 -5.59549e-21)
(0.639909 0.0873894 -4.17191e-21)
(0.999866 0.00144275 1.49059e-22)
(0.991072 0.00453363 -4.41348e-21)
(0.974879 0.008243 -4.73293e-21)
(0.952307 0.0132484 2.83413e-21)
(0.922431 0.0197938 -5.39062e-21)
(0.885998 0.0291689 3.20527e-21)
(0.84007 0.0418606 4.73343e-21)
(0.786616 0.0590649 -7.8829e-21)
(0.721545 0.0837845 6.09389e-21)
(0.645861 0.11174 2.17198e-20)
(0.999865 0.00176406 -6.3086e-21)
(0.991079 0.00553879 -2.82795e-21)
(0.974949 0.010071 5.96254e-21)
(0.952462 0.0161802 1.73915e-21)
(0.922813 0.0241715 -1.72634e-21)
(0.886723 0.0356166 -5.18664e-21)
(0.841419 0.0510488 -4.54472e-21)
(0.78921 0.0720255 -1.32812e-20)
(0.725697 0.101947 -5.43995e-21)
(0.653278 0.135635 2.55952e-20)
(0.999863 0.00208572 1.13158e-20)
(0.991089 0.00654288 -6.80759e-21)
(0.975035 0.0118965 1.2188e-20)
(0.952651 0.0191043 -4.06556e-21)
(0.923276 0.028537 2.27867e-21)
(0.887594 0.0420421 5.16247e-22)
(0.843055 0.0601702 8.99319e-21)
(0.792315 0.0848872 -2.74668e-21)
(0.730684 0.11983 5.58813e-21)
(0.662146 0.15898 -1.70608e-20)
(0.999861 0.00240772 3.54299e-21)
(0.991101 0.00754168 1.32933e-20)
(0.975136 0.0137188 -1.28994e-20)
(0.952876 0.0220191 1.48511e-20)
(0.923823 0.032888 8.7789e-21)
(0.888615 0.0484403 -1.79849e-20)
(0.844985 0.069214 -1.30315e-21)
(0.795926 0.0976318 -3.44774e-21)
(0.73651 0.137378 -3.61884e-21)
(0.672444 0.181689 1.25625e-20)
(0.999859 0.00273015 -2.40763e-20)
(0.991116 0.00852479 -5.58051e-21)
(0.975255 0.0155371 1.03751e-20)
(0.953139 0.024923 1.74087e-21)
(0.924457 0.0372226 -2.95457e-21)
(0.88979 0.0548051 6.04169e-21)
(0.847219 0.0781706 8.97575e-21)
(0.80004 0.11024 1.89348e-20)
(0.743182 0.154533 -2.14779e-20)
(0.68415 0.203681 -1.31683e-20)
(0.999855 0.00305295 1.69669e-20)
(0.991136 0.00952181 -4.17961e-21)
(0.975394 0.0173506 -1.31643e-20)
(0.953444 0.0278142 -2.15687e-20)
)
;

boundaryField
{
    inlet
    {
        type            uniformFixedValue;
        uniformValue    constant (1 0 0);
        value           uniform (1 0 0);
    }
    outlet
    {
        type            pressureInletOutletVelocity;
        value           nonuniform 0();
    }
    cylinder
    {
        type            fixedValue;
        value           nonuniform 0();
    }
    top
    {
        type            symmetryPlane;
    }
    bottom
    {
        type            symmetryPlane;
    }
    defaultFaces
    {
        type            empty;
    }
    procBoundary18to12
    {
        type            processor;
        value           nonuniform List<vector> 
42
(
(0.0334054 0.0121535 -2.57531e-21)
(0.0414544 0.0132451 6.76026e-21)
(0.0414544 0.0132451 6.76026e-21)
(0.0504701 -0.0142815 2.18683e-21)
(0.0604654 -0.0152576 8.07468e-21)
(0.0714475 -0.0161686 -3.77579e-21)
(0.0834167 -0.0170098 -1.42982e-21)
(0.0963663 -0.0177769 5.53135e-21)
(0.110282 -0.018466 -1.32392e-20)
(0.125143 -0.0190739 4.12168e-21)
(0.140919 -0.0195976 7.31059e-21)
(0.157573 -0.0200352 -4.76e-21)
(0.175059 -0.0203851 -3.14037e-21)
(0.193326 -0.0206469 3.01206e-21)
(0.212313 -0.0208209 3.06007e-21)
(0.231956 -0.0209082 -5.39678e-21)
(0.252183 -0.0209109 3.84755e-21)
(0.272918 -0.020832 1.19529e-21)
(0.294081 -0.0206754 4.66251e-21)
(0.31559 -0.0204457 6.0659e-21)
(0.337363 -0.0201484 2.23389e-21)
(0.359316 -0.0197896 -6.2614e-21)
(0.381368 -0.0193758 -2.605e-21)
(0.403438 -0.0189141 9.44631e-21)
(0.425453 -0.0184117 -5.38468e-21)
(0.447341 -0.0178758 -6.96929e-21)
(0.469036 -0.0173135 1.27605e-20)
(0.490479 -0.0167319 -4.29928e-21)
(0.511618 -0.0161375 -4.12872e-22)
(0.532407 -0.0155363 -2.59477e-22)
(0.552805 -0.0149332 4.97541e-21)
(0.572779 -0.0143325 -9.93144e-21)
(0.999869 -0.000160172 1.64275e-21)
(0.99106 -0.0005042 -9.98086e-22)
(0.974742 -0.000916548 2.20214e-23)
(0.952004 -0.00147426 -9.67328e-22)
(0.921679 -0.00220319 8.05353e-22)
(0.884554 -0.00324697 1.01272e-22)
(0.837408 -0.00467223 1.24149e-22)
(0.78141 -0.00659289 1.62153e-21)
(0.713246 -0.00939125 4.54607e-22)
(0.63095 -0.012588 -1.95178e-21)
)
;
    }
    procBoundary18to19
    {
        type            processor;
        value           nonuniform List<vector> 
25
(
(0.410849 0.452425 1.7177e-19)
(0.43229 0.462925 -7.28178e-20)
(0.361104 0.424475 2.41553e-21)
(0.361104 0.424475 2.41553e-21)
(0.313371 0.393576 -1.72614e-20)
(0.313371 0.393576 -1.72614e-20)
(0.248898 0.34562 7.18084e-20)
(0.268151 0.360156 -1.11012e-19)
(0.268151 0.360156 -1.11012e-19)
(0.207864 0.309924 3.22005e-20)
(0.207864 0.309924 3.22005e-20)
(0.17036 0.273089 -2.32825e-20)
(0.17036 0.273089 -2.32825e-20)
(0.136678 0.235785 -8.5905e-20)
(0.136678 0.235785 -8.5905e-20)
(0.107018 0.198725 -3.09055e-20)
(0.0934172 0.17552 -1.16941e-19)
(0.0934172 0.17552 -1.16941e-19)
(0.0703575 0.139899 1.65367e-20)
(0.0703575 0.139899 1.65367e-20)
(0.0513377 0.106427 -6.22349e-22)
(0.0442436 0.0836903 3.071e-20)
(0.0442436 0.0836903 3.071e-20)
(0.0312669 0.0546047 1.27443e-21)
(0.0279646 0.0329447 -5.32375e-21)
)
;
    }
    procBoundary18to24
    {
        type            processor;
        value           nonuniform List<vector> 
35
(
(0.453428 0.471553 -3.08485e-20)
(0.474219 0.478272 1.55725e-20)
(0.494619 0.483065 -3.39445e-20)
(0.51459 0.485935 1.56914e-19)
(0.503716 0.466956 3.17977e-20)
(0.503716 0.466956 3.17977e-20)
(0.52286 0.465718 -1.08221e-22)
(0.541599 0.462767 -9.59127e-20)
(0.531262 0.434997 2.14157e-20)
(0.531262 0.434997 2.14157e-20)
(0.549565 0.428896 -2.95551e-20)
(0.567497 0.42148 4.89468e-20)
(0.585044 0.412879 2.42148e-21)
(0.576967 0.378647 2.12095e-20)
(0.576967 0.378647 2.12095e-20)
(0.594386 0.368536 -7.50903e-20)
(0.61144 0.357737 1.0011e-20)
(0.606365 0.321834 9.03507e-21)
(0.606365 0.321834 9.03507e-21)
(0.623358 0.310797 -2.10015e-20)
(0.640017 0.299489 1.40939e-19)
(0.656393 0.287974 -4.88737e-20)
(0.654449 0.254067 -1.16776e-19)
(0.654449 0.254067 -1.16776e-19)
(0.925183 0.0415386 -8.24894e-21)
(0.891122 0.0611304 -4.38275e-21)
(0.849768 0.0870311 6.24534e-21)
(0.804652 0.122691 -3.7241e-21)
(0.750713 0.171237 -2.18975e-20)
(0.697236 0.224887 1.42464e-20)
(0.999853 0.00337595 -1.97221e-21)
(0.99116 0.010533 2.34827e-21)
(0.975551 0.0191587 -6.64297e-21)
(0.925183 0.0415386 -8.24894e-21)
(0.953794 0.0306908 -1.75607e-20)
)
;
    }
}


// ************************************************************************* //
