/*--------------------------------*- C++ -*----------------------------------*\
  =========                 |
  \\      /  F ield         | OpenFOAM: The Open Source CFD Toolbox
   \\    /   O peration     | Website:  https://openfoam.org
    \\  /    A nd           | Version:  7
     \\/     M anipulation  |
\*---------------------------------------------------------------------------*/
FoamFile
{
    version     2.0;
    format      ascii;
    class       volVectorField;
    location    "1.5";
    object      U;
}
// * * * * * * * * * * * * * * * * * * * * * * * * * * * * * * * * * * * * * //

dimensions      [0 1 -1 0 0 0 0];

internalField   nonuniform List<vector> 
344
(
(1.05019 -0.00436108 1.05205e-14)
(1.05059 -0.00412563 1.00284e-14)
(1.05096 -0.00391922 1.1092e-14)
(1.05131 -0.00367788 1.15161e-14)
(1.05164 -0.00338273 1.16177e-14)
(1.05193 -0.00307902 1.02793e-14)
(1.05216 -0.00283582 1.24571e-14)
(1.05235 -0.00268566 1.17666e-14)
(1.05253 -0.00259558 1.35631e-14)
(1.05271 -0.00249311 1.30223e-14)
(1.05289 -0.00232581 1.49264e-14)
(1.05306 -0.00210572 1.21678e-14)
(1.05319 -0.0019024 1.58849e-14)
(1.05327 -0.00179013 1.32688e-14)
(1.05334 -0.00179075 1.7353e-14)
(1.05341 -0.00185509 1.38065e-14)
(1.05351 -0.00189501 1.83828e-14)
(1.05364 -0.00184183 1.36719e-14)
(1.05376 -0.00169127 1.95673e-14)
(1.05385 -0.00150714 1.45727e-14)
(1.05391 -0.00138408 2.07905e-14)
(1.05392 -0.00139349 1.27153e-14)
(1.05392 -0.00154385 2.14825e-14)
(1.05395 -0.00177539 1.34001e-14)
(1.05401 -0.00198914 2.26373e-14)
(1.05412 -0.00209329 1.48275e-14)
(1.05425 -0.00204424 2.35828e-14)
(1.05437 -0.00186488 1.64607e-14)
(1.05445 -0.00163546 2.47504e-14)
(1.05448 -0.00146382 1.74856e-14)
(1.05445 -0.00144885 2.52343e-14)
(1 -0.0015422 -2.80658e-17)
(1.00067 -0.00454239 -2.41065e-16)
(1.00195 -0.00732715 -4.72174e-16)
(1.0038 -0.00977527 -1.27912e-16)
(1.00611 -0.0117913 1.53398e-15)
(1.00875 -0.0133404 8.55458e-16)
(1.01157 -0.0144534 6.06863e-16)
(1.01442 -0.0151919 2.52226e-15)
(1.01724 -0.0156114 7.13307e-16)
(1.01997 -0.0157596 2.09357e-15)
(1.02258 -0.0156822 8.56033e-16)
(1.02504 -0.0154157 2.142e-15)
(1.02735 -0.0149839 1.27312e-15)
(1.02947 -0.0144148 3.64512e-15)
(1.0314 -0.0137599 1.91482e-15)
(1.03314 -0.0130851 2.12593e-15)
(1.03468 -0.0124328 3.26413e-15)
(1.03606 -0.0118087 3.08985e-15)
(1.03733 -0.0112094 3.73674e-15)
(1.03849 -0.0106489 4.5433e-15)
(1.03957 -0.0101497 4.71484e-15)
(1.04059 -0.00971126 4.57127e-15)
(1.04156 -0.00929887 4.67469e-15)
(1.0425 -0.00887943 5.81161e-15)
(1.04341 -0.0084638 6.31775e-15)
(1.04427 -0.00808853 6.58427e-15)
(1.04509 -0.00775869 7.70097e-15)
(1.04588 -0.00743573 6.62502e-15)
(1.04665 -0.00708339 7.98332e-15)
(1.04738 -0.00670768 5.88176e-15)
(1.04807 -0.00634898 9.84236e-15)
(1.0487 -0.0060388 7.2797e-15)
(1.0493 -0.00576119 1.05441e-14)
(1.04988 -0.00546281 8.3168e-15)
(1.05042 -0.00511205 1.02294e-14)
(1.05092 -0.00474242 8.67133e-15)
(1.05136 -0.00442156 1.13592e-14)
(1.05175 -0.00417744 1.02365e-14)
(1.05211 -0.00396769 1.20802e-14)
(1.05246 -0.00372459 1.15826e-14)
(1.05278 -0.00342394 1.26702e-14)
(1.05307 -0.00310939 1.12317e-14)
(1.0533 -0.00285384 1.34901e-14)
(1.05348 -0.00269581 1.27543e-14)
(1.05364 -0.00260508 1.45769e-14)
(1.05381 -0.00250618 1.40113e-14)
(1.05399 -0.00234042 1.57942e-14)
(1.05415 -0.00211566 1.30513e-14)
(1.05427 -0.00190263 1.6803e-14)
(1.05435 -0.00178116 1.42324e-14)
(1.05441 -0.00177864 1.83178e-14)
(1.05447 -0.00184732 1.49584e-14)
(1.05456 -0.00189535 1.94561e-14)
(1.05467 -0.00184776 1.46706e-14)
(1.05479 -0.00169558 2.06927e-14)
(1.05488 -0.00150242 1.54598e-14)
(1.05492 -0.00136725 2.22123e-14)
(1.05493 -0.0013676 1.46902e-14)
(1.05492 -0.00151637 2.26705e-14)
(1.05493 -0.00175426 1.51439e-14)
(1.05498 -0.00197869 2.36766e-14)
(1.05507 -0.00209225 1.65285e-14)
(1.05519 -0.00204637 2.45275e-14)
(1.0553 -0.00186185 1.82768e-14)
(1.05537 -0.00162024 2.56943e-14)
(1.05538 -0.00143337 1.93761e-14)
(1.05534 -0.00140497 2.63486e-14)
(1 -0.0016467 -4.4199e-16)
(1.00073 -0.00484368 3.59433e-16)
(1.00211 -0.00779569 9.44163e-17)
(1.0041 -0.010368 2.64271e-16)
(1.00658 -0.0124584 6.7466e-16)
(1.00939 -0.0140373 5.03917e-16)
(1.01235 -0.0151514 -4.65149e-17)
(1.01533 -0.0158766 1.14747e-15)
(1.01826 -0.0162753 7.02725e-16)
(1.02108 -0.0163953 7.74647e-16)
(1.02376 -0.016278 1.8097e-16)
(1.0263 -0.0159589 1.01837e-15)
(1.02866 -0.0154672 1.00351e-15)
(1.03082 -0.0148368 1.49504e-15)
(1.03277 -0.0141222 1.38934e-15)
(1.03451 -0.0133942 1.12106e-15)
(1.03604 -0.0126997 1.92898e-15)
(1.03741 -0.0120437 1.38139e-15)
(1.03866 -0.0114203 3.03623e-15)
(1.03981 -0.0108408 1.97008e-15)
(1.04088 -0.0103258 3.7553e-15)
(1.04188 -0.00987554 2.27598e-15)
(1.04285 -0.00945645 3.36738e-15)
(1.04378 -0.00903296 2.67126e-15)
(1.04468 -0.00861088 4.78039e-15)
(1.04554 -0.00822657 2.98949e-15)
(1.04636 -0.00789038 6.06099e-15)
(1.04714 -0.0075653 2.25677e-15)
(1.04791 -0.00720995 6.67616e-15)
(1.04865 -0.00682649 2.78674e-15)
(1.04933 -0.00645749 8.11233e-15)
(1.04996 -0.00613849 3.72204e-15)
(1.05056 -0.00585518 8.76121e-15)
(1.05113 -0.00555268 4.10657e-15)
(1.05168 -0.00519581 8.70707e-15)
(1.05217 -0.00481549 5.66929e-15)
(1.05261 -0.0044814 9.42486e-15)
(1.053 -0.00422722 6.6284e-15)
(1.05335 -0.0040137 1.00241e-14)
(1.05369 -0.00376961 7.45938e-15)
(1.05401 -0.00346425 1.07019e-14)
(1.05429 -0.00313868 8.47403e-15)
(1.05451 -0.00286988 1.11074e-14)
(1.05469 -0.00270312 9.60052e-15)
(1.05484 -0.0026115 1.19251e-14)
(1.05499 -0.0025166 1.04378e-14)
(1.05516 -0.00235317 1.29271e-14)
(1.05531 -0.00212426 1.02297e-14)
(1.05543 -0.00190141 1.36972e-14)
(1.05551 -0.00177006 1.12667e-14)
(1.05555 -0.00176365 1.47129e-14)
(1.0556 -0.0018364 1.19033e-14)
(1.05568 -0.00189291 1.57792e-14)
(1.05578 -0.00185166 1.1534e-14)
(1.05589 -0.00169846 1.66874e-14)
(1.05598 -0.00149639 1.23352e-14)
(1.05602 -0.00134861 1.80357e-14)
(1.05601 -0.001339 1.26673e-14)
(1.05599 -0.00148529 1.81561e-14)
(1.05599 -0.00172892 1.32311e-14)
(1.05602 -0.00196389 1.85696e-14)
(1.0561 -0.0020871 1.48061e-14)
(1.05621 -0.00204484 1.92171e-14)
(1.0563 -0.00185555 1.66651e-14)
(1.05636 -0.00160196 1.99884e-14)
(1.05636 -0.00139975 1.80624e-14)
(1.05631 -0.00135744 2.02782e-14)
(1 -0.00176272 -2.87151e-16)
(1.00079 -0.00517633 1.52543e-16)
(1.00229 -0.0083099 -8.27858e-16)
(1.00444 -0.0110112 2.05332e-16)
(1.00711 -0.0131724 1.13384e-15)
(1.01009 -0.0147746 1.30414e-15)
(1.01321 -0.0158835 -6.69835e-18)
(1.01633 -0.016592 2.90692e-15)
(1.01936 -0.0169689 4.04044e-16)
(1.02227 -0.0170587 2.59414e-15)
(1.02504 -0.0168971 5.75345e-16)
(1.02765 -0.0165191 2.76752e-15)
(1.03006 -0.0159607 8.59171e-16)
(1.03226 -0.015263 4.37274e-15)
(1.03423 -0.0144851 1.61503e-15)
(1.03598 -0.0137016 2.89864e-15)
(1.0375 -0.0129625 2.69998e-15)
(1.03885 -0.0122738 3.91304e-15)
(1.04008 -0.0116272 3.51392e-15)
(1.04122 -0.0110293 5.42651e-15)
(1.04227 -0.0104983 4.49357e-15)
(1.04326 -0.0100364 5.60067e-15)
(1.04422 -0.00961169 4.51087e-15)
(1.04514 -0.00918486 6.8007e-15)
(1.04604 -0.00875657 6.07326e-15)
(1.0469 -0.00836381 7.6786e-15)
(1.04771 -0.00802171 7.32748e-15)
(1.0485 -0.00769416 7.75499e-15)
(1.04926 -0.00733571 7.64707e-15)
(1.04999 -0.00694546 6.26507e-15)
(1.05068 -0.00656676 9.47385e-15)
(1.05132 -0.00623812 7.86016e-15)
(1.05191 -0.00594802 1.03208e-14)
(1.05248 -0.00564166 9.30513e-15)
(1.05302 -0.00527981 1.01543e-14)
(1.05352 -0.00488905 8.74933e-15)
(1.05395 -0.0045406 1.1218e-14)
(1.05434 -0.00427503 1.0479e-14)
(1.05468 -0.00405732 1.20032e-14)
(1.05501 -0.00381273 1.20909e-14)
(1.05532 -0.00350328 1.24562e-14)
(1.0556 -0.0031668 1.10208e-14)
(1.05582 -0.00288418 1.33295e-14)
(1.05598 -0.00270785 1.25782e-14)
(1.05612 -0.00261481 1.46395e-14)
(1.05627 -0.0025241 1.37422e-14)
(1.05642 -0.0023637 1.57575e-14)
(1.05657 -0.0021313 1.28906e-14)
(1.05668 -0.00189871 1.7096e-14)
(1.05675 -0.00175694 1.42327e-14)
(1.05679 -0.0017459 1.83428e-14)
(1.05683 -0.0018223 1.50223e-14)
(1.05689 -0.00188748 1.97705e-14)
(1.05698 -0.00185321 1.47089e-14)
(1.05709 -0.00169971 2.09494e-14)
(1.05717 -0.00148903 1.56019e-14)
(1.0572 -0.00132835 2.23143e-14)
(1.05719 -0.00130801 1.43237e-14)
(1.05716 -0.00145085 2.32529e-14)
(1.05714 -0.00169942 1.51297e-14)
(1.05716 -0.0019445 2.41304e-14)
(1.05722 -0.00207736 1.66611e-14)
(1.05731 -0.00203908 2.52127e-14)
(1.05739 -0.00184557 1.85313e-14)
(1.05743 -0.00158049 2.64524e-14)
(1.05742 -0.00136317 1.99145e-14)
(1.05736 -0.00130677 2.72549e-14)
(1 -0.0018922 -2.21899e-16)
(1.00086 -0.00554554 1.12297e-16)
(1.0025 -0.00887616 -6.16399e-16)
(1.00484 -0.0117103 -1.89621e-18)
(1.0077 -0.0139369 1.07359e-15)
(1.01088 -0.0155535 1.22204e-15)
(1.01417 -0.016651 1.05893e-16)
(1.01741 -0.0173405 2.69248e-15)
(1.02055 -0.017695 4.39583e-16)
(1.02357 -0.0177523 2.33999e-15)
(1.02643 -0.0175411 7.19851e-16)
(1.02911 -0.0170967 2.57235e-15)
(1.03159 -0.0164634 8.53475e-16)
(1.03382 -0.0156926 4.13633e-15)
(1.03581 -0.0148483 1.67629e-15)
(1.03755 -0.0140065 2.61447e-15)
(1.03907 -0.0132202 2.65413e-15)
(1.0404 -0.0124984 3.57606e-15)
(1.0416 -0.0118296 3.37947e-15)
(1.04272 -0.0112138 4.9717e-15)
(1.04376 -0.0106671 4.31908e-15)
(1.04474 -0.0101942 5.12656e-15)
(1.04568 -0.00976419 4.52951e-15)
(1.0466 -0.00933462 6.22568e-15)
(1.04749 -0.00890147 6.04048e-15)
(1.04835 -0.00850109 6.99882e-15)
(1.04917 -0.00815233 7.52623e-15)
(1.04995 -0.00782171 7.00608e-15)
(1.05071 -0.00746133 8.07879e-15)
(1.05144 -0.00706568 6.21135e-15)
(1.05213 -0.00667692 9.83773e-15)
(1.05277 -0.00633715 7.49734e-15)
(1.05336 -0.00603964 1.07225e-14)
(1.05392 -0.00573 8.90182e-15)
(1.05446 -0.00536386 1.08587e-14)
(1.05496 -0.00496271 8.95543e-15)
(1.05539 -0.00459939 1.18369e-14)
(1.05577 -0.00432161 1.04736e-14)
(1.05611 -0.00409902 1.26094e-14)
(1.05643 -0.00385375 1.19056e-14)
(1.05674 -0.00354052 1.34306e-14)
(1.05701 -0.0031934 1.1459e-14)
(1.05722 -0.00289669 1.41634e-14)
(1.05738 -0.00271005 1.28953e-14)
(1.05751 -0.002615 1.52933e-14)
(1.05764 -0.00252851 1.37543e-14)
(1.05778 -0.00237179 1.63436e-14)
(1.05792 -0.00213662 1.29867e-14)
(1.05803 -0.00189455 1.79007e-14)
(1.05809 -0.00174196 1.41095e-14)
(1.05812 -0.00172555 1.90708e-14)
(1.05815 -0.00180504 1.46214e-14)
(1.0582 -0.00187887 2.0771e-14)
(1.05828 -0.00185213 1.41567e-14)
(1.05838 -0.00169908 2.20913e-14)
(1.05845 -0.00148034 1.48361e-14)
(1.05848 -0.0013068 2.36801e-14)
(1.05846 -0.00127514 1.43292e-14)
(1.05842 -0.00141351 2.45833e-14)
(1.05839 -0.0016659 1.4828e-14)
(1.05839 -0.00192025 2.52511e-14)
(1.05843 -0.00206241 1.61758e-14)
(1.0585 -0.00202833 2.62166e-14)
(1.05857 -0.00183126 1.79705e-14)
(1.05859 -0.00155556 2.73151e-14)
(1.05857 -0.00132388 1.95315e-14)
(1.0585 -0.00125367 2.82652e-14)
(1 -0.0020377 1.20593e-16)
(1.00095 -0.00595744 -2.39035e-16)
(1.00275 -0.00950211 -5.91018e-17)
(1.00529 -0.0124717 -4.05474e-16)
(1.00838 -0.0147545 1.32761e-15)
(1.01177 -0.0163749 6.76801e-16)
(1.01522 -0.0174554 5.36274e-16)
(1.0186 -0.0181247 1.85525e-15)
(1.02186 -0.0184564 5.66857e-16)
(1.02497 -0.0184787 1.4459e-15)
(1.02793 -0.0182119 7.88449e-16)
(1.0307 -0.0176916 1.4358e-15)
(1.03324 -0.0169744 8.63638e-16)
(1.0355 -0.0161248 2.87703e-15)
(1.03751 -0.0152111 1.33585e-15)
(1.03925 -0.0143081 1.38543e-15)
(1.04074 -0.0134724 2.09127e-15)
(1.04205 -0.0127171 2.05754e-15)
(1.04323 -0.0120266 2.5317e-15)
(1.04433 -0.011394 3.19971e-15)
(1.04536 -0.0108327 3.085e-15)
(1.04633 -0.0103487 3.23215e-15)
(1.04726 -0.0099132 3.44062e-15)
(1.04816 -0.00948227 4.09184e-15)
(1.04905 -0.00904638 4.59574e-15)
(1.04991 -0.00863871 4.66864e-15)
(1.05073 -0.00828203 5.8449e-15)
(1.0515 -0.00794808 4.70866e-15)
(1.05226 -0.00758714 6.11457e-15)
(1.05299 -0.00718713 3.90497e-15)
(1.05369 -0.00678786 7.4973e-15)
(1.05433 -0.00643607 5.08833e-15)
(1.05492 -0.00613069 8.27473e-15)
(1.05548 -0.00581767 6.22087e-15)
(1.05602 -0.0054473 8.25863e-15)
(1.05651 -0.00503602 6.25401e-15)
(1.05695 -0.00465781 8.82944e-15)
(1.05732 -0.00436718 7.54467e-15)
(1.05765 -0.00413884 9.71102e-15)
(1.05797 -0.00389263 8.65985e-15)
(1.05826 -0.00357604 1.03649e-14)
(1.05853 -0.00321867 8.48302e-15)
(1.05873 -0.00290758 1.09666e-14)
(1.05888 -0.00270976 9.92102e-15)
(1.059 -0.00261193 1.18896e-14)
)
;

boundaryField
{
    inlet
    {
        type            uniformFixedValue;
        uniformValue    constant (1 0 0);
        value           uniform (1 0 0);
    }
    outlet
    {
        type            pressureInletOutletVelocity;
        value           nonuniform 0();
    }
    wall
    {
        type            fixedValue;
        value           nonuniform 0();
    }
    wedge1
    {
        type            wedge;
    }
    wedge2
    {
        type            wedge;
    }
    axis
    {
        type            empty;
    }
    procBoundary24to18
    {
        type            processor;
        value           nonuniform List<vector> 
68
(
(1.04909 -0.0043001 6.97612e-15)
(1.0495 -0.00407252 3.72876e-15)
(1.04987 -0.00386858 7.25476e-15)
(1.05023 -0.0036292 4.31824e-15)
(1.05056 -0.00334021 7.96061e-15)
(1.05086 -0.00304732 5.62046e-15)
(1.0511 -0.00281563 8.13931e-15)
(1.0513 -0.0026725 6.29314e-15)
(1.05148 -0.00258293 8.80478e-15)
(1.05167 -0.00247746 6.8894e-15)
(1.05186 -0.00230936 9.94055e-15)
(1.05204 -0.00209433 6.8053e-15)
(1.05217 -0.00190048 1.03914e-14)
(1.05227 -0.00179676 7.40512e-15)
(1.05235 -0.00179993 1.13237e-14)
(1.05243 -0.00185983 7.65827e-15)
(1.05254 -0.00189212 1.18978e-14)
(1.05267 -0.0018341 7.40767e-15)
(1.0528 -0.00168569 1.28738e-14)
(1.0529 -0.00151054 7.89325e-15)
(1.05296 -0.00139896 1.39192e-14)
(1.05298 -0.0014165 8.60742e-15)
(1.053 -0.00156762 1.3847e-14)
(1.05304 -0.00179241 8.99601e-15)
(1.05312 -0.00199553 1.42667e-14)
(1.05324 -0.00209068 1.01344e-14)
(1.05338 -0.00203892 1.46649e-14)
(1.05351 -0.00186503 1.14285e-14)
(1.0536 -0.00164776 1.51305e-14)
(1.05364 -0.00149096 1.2204e-14)
(1.05363 -0.00148871 1.51016e-14)
(1 -0.0014476 -6.25906e-17)
(1.00062 -0.00426841 -8.27396e-17)
(1.00181 -0.00689872 -5.01e-16)
(1.00353 -0.00922824 -3.53038e-17)
(1.00569 -0.0111681 1.36465e-15)
(1.00818 -0.0126818 1.15817e-15)
(1.01085 -0.0137884 3.72078e-16)
(1.01359 -0.0145364 2.88728e-15)
(1.0163 -0.0149749 4.85157e-16)
(1.01895 -0.0151498 2.57547e-15)
(1.02148 -0.0151085 6.57917e-16)
(1.02388 -0.0148889 2.75657e-15)
(1.02613 -0.0145112 1.057e-15)
(1.02822 -0.0139984 4.30345e-15)
(1.03013 -0.0133988 1.72134e-15)
(1.03185 -0.0127745 2.83789e-15)
(1.0334 -0.0121632 3.03705e-15)
(1.0348 -0.0115696 3.93703e-15)
(1.03607 -0.0109942 3.63598e-15)
(1.03725 -0.0104539 5.51214e-15)
(1.03834 -0.00997073 4.52382e-15)
(1.03937 -0.00954354 5.59195e-15)
(1.04035 -0.00913847 4.50628e-15)
(1.0413 -0.00872474 6.86491e-15)
(1.04221 -0.00831586 5.98376e-15)
(1.04307 -0.00794898 7.62849e-15)
(1.0439 -0.00762593 7.25987e-15)
(1.04469 -0.00730583 7.82378e-15)
(1.04546 -0.00695615 7.36622e-15)
(1.0462 -0.00658792 6.25448e-15)
(1.04688 -0.00624049 9.17883e-15)
(1.04752 -0.0059397 7.75971e-15)
(1.04812 -0.00566684 9.72299e-15)
(1.0487 -0.00537165 8.84123e-15)
(1.04925 -0.00502752 9.30244e-15)
(1.04974 -0.00466934 8.40218e-15)
(1.04974 -0.00466934 8.40218e-15)
)
;
    }
    procBoundary24to19
    {
        type            processor;
        value           uniform (1.0544 -0.00165054 1.76839e-14);
    }
    procBoundary24to25
    {
        type            processor;
        value           nonuniform List<vector> 4((1.05528 -0.00159897 1.9604e-14) (1.05623 -0.00154289 1.87195e-14) (1.05726 -0.00148295 2.01947e-14) (1.0584 -0.00142008 1.9894e-14));
    }
    procBoundary24to30
    {
        type            processor;
        value           nonuniform List<vector> 
68
(
(1.05912 -0.00252955 1.07246e-14)
(1.05926 -0.00237712 1.27774e-14)
(1.05938 -0.0021401 9.9786e-15)
(1.05949 -0.0018891 1.42584e-14)
(1.05954 -0.00172554 1.12029e-14)
(1.05956 -0.00170302 1.51598e-14)
(1.05958 -0.00178474 1.16204e-14)
(1.05962 -0.0018668 1.66113e-14)
(1.05969 -0.00184787 1.14035e-14)
(1.05978 -0.0016961 1.77083e-14)
(1.05984 -0.00147021 1.20872e-14)
(1.05986 -0.00128427 1.90726e-14)
(1.05984 -0.00124103 1.17468e-14)
(1.05979 -0.00137391 1.98309e-14)
(1.05975 -0.00162868 1.21415e-14)
(1.05974 -0.00189089 2.01728e-14)
(1.05976 -0.00204148 1.31281e-14)
(1.05981 -0.00201155 2.11753e-14)
(1.05985 -0.00181172 1.47489e-14)
(1.05986 -0.00152679 2.22245e-14)
(1.05983 -0.0012822 1.62232e-14)
(1.05975 -0.00119909 2.30884e-14)
(1 -0.00220251 5.81127e-16)
(1.00105 -0.00641978 -7.53308e-16)
(1.00303 -0.0101967 5.52492e-16)
(1.00581 -0.0133009 -8.93596e-16)
(1.00915 -0.0156268 8.04593e-16)
(1.01276 -0.0172394 -7.49224e-16)
(1.01639 -0.0182984 -4.85458e-16)
(1.01991 -0.0189474 -3.79933e-16)
(1.02328 -0.0192568 1.76293e-16)
(1.02651 -0.0192412 -6.34921e-16)
(1.02957 -0.0189103 -1.68783e-16)
(1.03243 -0.0183033 -4.97308e-16)
(1.03503 -0.017493 2.82723e-16)
(1.03733 -0.0165589 -1.46254e-16)
(1.03934 -0.0155725 3.48341e-16)
(1.04108 -0.0146059 -4.76511e-16)
(1.04255 -0.0137188 3.0367e-16)
(1.04383 -0.0129285 -4.42752e-16)
(1.04499 -0.0122171 8.88987e-16)
(1.04606 -0.01157 -2.83678e-16)
(1.04708 -0.0109951 1.06683e-15)
(1.04804 -0.0104994 -2.52992e-16)
(1.04895 -0.0100584 1.01407e-15)
(1.04985 -0.00962795 -8.06792e-17)
(1.05074 -0.00919149 1.45373e-15)
(1.0516 -0.00877699 1.67303e-17)
(1.05241 -0.00841153 2.3386e-15)
(1.05319 -0.0080737 -4.91141e-16)
(1.05394 -0.00771267 2.26304e-15)
(1.05467 -0.00730919 -8.14176e-16)
(1.05537 -0.00689996 3.12374e-15)
(1.05602 -0.00653593 -2.8889e-16)
(1.05661 -0.00622172 3.44563e-15)
(1.05716 -0.00590436 3.60716e-16)
(1.0577 -0.00552979 3.3149e-15)
(1.05819 -0.00510915 6.60287e-16)
(1.05863 -0.00471631 3.41451e-15)
(1.059 -0.00441182 1.41859e-15)
(1.05933 -0.00417633 4.03555e-15)
(1.05963 -0.00392873 1.87971e-15)
(1.05992 -0.00360954 4.48968e-15)
(1.06017 -0.00324288 2.40283e-15)
(1.06037 -0.00291754 4.63418e-15)
(1.06052 -0.00270767 3.47029e-15)
(1.05912 -0.00252955 1.07246e-14)
(1.06063 -0.0026058 5.2372e-15)
)
;
    }
}


// ************************************************************************* //
