/*--------------------------------*- C++ -*----------------------------------*\
  =========                 |
  \\      /  F ield         | OpenFOAM: The Open Source CFD Toolbox
   \\    /   O peration     | Website:  https://openfoam.org
    \\  /    A nd           | Version:  7
     \\/     M anipulation  |
\*---------------------------------------------------------------------------*/
FoamFile
{
    version     2.0;
    format      ascii;
    class       volVectorField;
    location    "1";
    object      U;
}
// * * * * * * * * * * * * * * * * * * * * * * * * * * * * * * * * * * * * * //

dimensions      [0 1 -1 0 0 0 0];

internalField   nonuniform List<vector> 
344
(
(0.642514 -7.11139e-09 1.61094e-16)
(0.642514 -6.0808e-09 1.63776e-16)
(0.642514 -5.23451e-09 1.6026e-16)
(0.642514 -4.51333e-09 1.55834e-16)
(0.642514 -3.82739e-09 1.54594e-16)
(0.642514 -3.13837e-09 1.55057e-16)
(0.642514 -2.40261e-09 1.5206e-16)
(0.642514 -1.52931e-09 1.47938e-16)
(0.642514 -3.60434e-10 1.458e-16)
(0.642514 1.06029e-10 1.46273e-16)
(0.642514 -7.55765e-11 1.42659e-16)
(0.642514 5.00482e-11 1.38663e-16)
(0.642514 2.38207e-10 1.36062e-16)
(0.642514 4.13905e-10 1.33063e-16)
(0.642514 5.37968e-10 1.31184e-16)
(0.642514 5.91481e-10 1.30097e-16)
(0.642514 5.69364e-10 1.30258e-16)
(0.642514 4.91903e-10 1.27641e-16)
(0.642514 3.8652e-10 1.25796e-16)
(0.642514 2.56039e-10 1.241e-16)
(0.642514 7.62309e-11 1.22076e-16)
(0.642514 -1.29697e-10 1.19378e-16)
(0.642514 -4.48733e-10 1.17344e-16)
(0.642514 -5.602e-10 1.15756e-16)
(0.588058 1.71847e-07 2.09122e-16)
(0.588058 1.51913e-07 2.12493e-16)
(0.588058 1.34095e-07 2.23574e-16)
(0.588058 1.18496e-07 2.13617e-16)
(0.588058 1.04889e-07 1.98859e-16)
(0.588058 9.29113e-08 1.95088e-16)
(0.588058 8.2323e-08 1.88232e-16)
(0.588058 7.29789e-08 1.8801e-16)
(0.588058 6.47212e-08 1.82518e-16)
(0.588058 5.73624e-08 1.8738e-16)
(0.588058 5.07995e-08 2.00217e-16)
(0.588058 4.49517e-08 1.96555e-16)
(0.588058 3.97307e-08 1.90267e-16)
(0.588058 3.50618e-08 1.82108e-16)
(0.588058 3.09198e-08 1.82768e-16)
(0.588058 2.72433e-08 1.75667e-16)
(0.588058 2.39523e-08 1.76704e-16)
(0.588058 2.10305e-08 1.71628e-16)
(0.588058 1.8454e-08 1.75433e-16)
(0.588058 1.6184e-08 1.8795e-16)
(0.588058 1.41539e-08 1.82233e-16)
(0.588058 1.23488e-08 1.72672e-16)
(0.588058 1.07705e-08 1.73543e-16)
(0.588058 9.4403e-09 1.8336e-16)
(0.588058 8.33602e-09 1.76842e-16)
(0.588058 7.43967e-09 1.68148e-16)
(0.588058 6.64138e-09 1.67787e-16)
(0.588058 5.7847e-09 1.75649e-16)
(0.588058 4.89537e-09 1.68702e-16)
(0.588058 4.00029e-09 1.58849e-16)
(0.588058 3.1113e-09 1.56665e-16)
(0.588058 2.20839e-09 1.51932e-16)
(0.588058 1.3946e-09 1.50912e-16)
(0.588058 7.30314e-10 1.46526e-16)
(0.588058 4.55011e-10 1.49251e-16)
(0.588058 2.23526e-10 1.56095e-16)
(0.588058 -3.65545e-10 1.53519e-16)
(0.588058 -9.7923e-10 1.49953e-16)
(0.588058 -1.58369e-09 1.46223e-16)
(0.588058 -2.19788e-09 1.44522e-16)
(0.588058 -2.94971e-09 1.40903e-16)
(0.588058 -3.93542e-09 1.39607e-16)
(0.588058 -5.86002e-09 1.3714e-16)
(0.588058 -6.50758e-09 1.38477e-16)
(0.588058 -5.343e-09 1.42698e-16)
(0.588058 -4.60771e-09 1.39048e-16)
(0.588058 -4.00349e-09 1.33994e-16)
(0.588058 -3.4001e-09 1.33601e-16)
(0.588058 -2.78499e-09 1.3603e-16)
(0.588058 -2.14042e-09 1.32573e-16)
(0.588058 -1.36769e-09 1.26998e-16)
(0.588058 -3.56418e-10 1.25762e-16)
(0.588058 -8.24138e-11 1.27588e-16)
(0.588058 -3.25624e-10 1.23975e-16)
(0.588058 -1.50372e-10 1.19592e-16)
(0.588058 8.59728e-11 1.17257e-16)
(0.588058 2.99216e-10 1.14314e-16)
(0.588058 4.52565e-10 1.13181e-16)
(0.588058 5.29124e-10 1.12134e-16)
(0.588058 5.20861e-10 1.1179e-16)
(0.588058 4.54738e-10 1.10184e-16)
(0.588058 3.54181e-10 1.08824e-16)
(0.588058 2.20081e-10 1.07335e-16)
(0.588058 4.12395e-11 1.05657e-16)
(0.588058 -1.56255e-10 1.0316e-16)
(0.588058 -4.3023e-10 1.01463e-16)
(0.588058 -5.14106e-10 1.00228e-16)
(0.532013 1.48283e-07 1.73002e-16)
(0.532013 1.31098e-07 1.78218e-16)
(0.532013 1.15477e-07 2.00093e-16)
(0.532013 1.01759e-07 1.8626e-16)
(0.532013 8.9844e-08 1.63864e-16)
(0.532013 7.93831e-08 1.63776e-16)
(0.532013 7.016e-08 1.54957e-16)
(0.532013 6.20814e-08 1.58349e-16)
(0.532013 5.49829e-08 1.50283e-16)
(0.532013 4.86536e-08 1.56702e-16)
(0.532013 4.30284e-08 1.80335e-16)
(0.532013 3.8032e-08 1.69359e-16)
(0.532013 3.35643e-08 1.62872e-16)
(0.532013 2.95809e-08 1.5038e-16)
(0.532014 2.60711e-08 1.53534e-16)
(0.532014 2.29507e-08 1.4482e-16)
(0.532014 2.01413e-08 1.47983e-16)
(0.532014 1.76611e-08 1.40662e-16)
(0.532014 1.55024e-08 1.48231e-16)
(0.532014 1.36021e-08 1.66903e-16)
(0.532014 1.18927e-08 1.567e-16)
(0.532014 1.03784e-08 1.44862e-16)
(0.532014 9.07341e-09 1.47831e-16)
(0.532014 7.97284e-09 1.63523e-16)
(0.532014 7.04388e-09 1.52916e-16)
(0.532014 6.2797e-09 1.4055e-16)
(0.532014 5.60895e-09 1.42999e-16)
(0.532014 4.89828e-09 1.56701e-16)
(0.532014 4.16233e-09 1.4643e-16)
(0.532014 3.42206e-09 1.33147e-16)
(0.532014 2.68348e-09 1.32206e-16)
(0.532014 1.92328e-09 1.25692e-16)
(0.532014 1.25053e-09 1.27471e-16)
(0.532014 7.61166e-10 1.20931e-16)
(0.532014 5.90257e-10 1.27216e-16)
(0.532014 4.07147e-10 1.38202e-16)
(0.532014 -8.0367e-11 1.32124e-16)
(0.532014 -6.1911e-10 1.28686e-16)
(0.532014 -1.1788e-09 1.2197e-16)
(0.532014 -1.77325e-09 1.22537e-16)
(0.532014 -2.51561e-09 1.17389e-16)
(0.532014 -3.46415e-09 1.18318e-16)
(0.532014 -5.05288e-09 1.14322e-16)
(0.532014 -5.36134e-09 1.17658e-16)
(0.532014 -4.32956e-09 1.25281e-16)
(0.532014 -3.84856e-09 1.19627e-16)
(0.532014 -3.40838e-09 1.1358e-16)
(0.532014 -2.92389e-09 1.14017e-16)
(0.532014 -2.41321e-09 1.19344e-16)
(0.532014 -1.88373e-09 1.14026e-16)
(0.532014 -1.25494e-09 1.06919e-16)
(0.532014 -6.0152e-10 1.07531e-16)
(0.532014 -5.11806e-10 1.11676e-16)
(0.532014 -6.11662e-10 1.06435e-16)
(0.532014 -3.42708e-10 1.01445e-16)
(0.532014 -4.60556e-11 1.00005e-16)
(0.532014 1.9574e-10 9.69895e-17)
(0.532014 3.55772e-10 9.66089e-17)
(0.532014 4.34136e-10 9.60651e-17)
(0.532014 4.37282e-10 9.45357e-17)
(0.532014 3.86868e-10 9.42292e-17)
(0.532014 3.01434e-10 9.33534e-17)
(0.532014 1.85566e-10 9.22251e-17)
(0.532014 3.10324e-11 9.0593e-17)
(0.532014 -1.48002e-10 8.81344e-17)
(0.532014 -3.94398e-10 8.69123e-17)
(0.532014 -4.63753e-10 8.59641e-17)
(0.474432 1.24704e-07 1.37086e-16)
(0.474433 1.1022e-07 1.49543e-16)
(0.474433 9.68513e-08 1.65897e-16)
(0.474433 8.51059e-08 1.55544e-16)
(0.474433 7.49284e-08 1.2955e-16)
(0.474433 6.60301e-08 1.36855e-16)
(0.474433 5.82171e-08 1.19885e-16)
(0.474433 5.14142e-08 1.3158e-16)
(0.474433 4.54662e-08 1.17774e-16)
(0.474433 4.01732e-08 1.30484e-16)
(0.474433 3.54783e-08 1.47645e-16)
(0.474433 3.13258e-08 1.43578e-16)
(0.474433 2.76175e-08 1.38439e-16)
(0.474433 2.43065e-08 1.19519e-16)
(0.474433 2.13969e-08 1.27456e-16)
(0.474433 1.88212e-08 1.14159e-16)
(0.474433 1.65065e-08 1.21517e-16)
(0.474433 1.44678e-08 1.09761e-16)
(0.474433 1.2697e-08 1.23305e-16)
(0.474433 1.11315e-08 1.36721e-16)
(0.474433 9.72567e-09 1.32811e-16)
(0.474433 8.4913e-09 1.1622e-16)
(0.474433 7.42946e-09 1.23663e-16)
(0.474433 6.53226e-09 1.36383e-16)
(0.474433 5.77503e-09 1.29186e-16)
(0.474433 5.14912e-09 1.13204e-16)
(0.474433 4.60338e-09 1.20281e-16)
(0.474433 4.03453e-09 1.29186e-16)
(0.474433 3.44597e-09 1.23037e-16)
(0.474433 2.84441e-09 1.07501e-16)
(0.474433 2.2424e-09 1.1086e-16)
(0.474433 1.63247e-09 1.00811e-16)
(0.474433 1.10157e-09 1.06097e-16)
(0.474433 7.425e-10 9.68537e-17)
(0.474433 6.3505e-10 1.06181e-16)
(0.474433 4.92579e-10 1.14323e-16)
(0.474433 9.14614e-11 1.11956e-16)
(0.474433 -3.74808e-10 1.09112e-16)
(0.474433 -8.74011e-10 9.96984e-17)
(0.474433 -1.41507e-09 1.02453e-16)
(0.474433 -2.08121e-09 9.46318e-17)
(0.474433 -2.88833e-09 9.86111e-17)
(0.474433 -3.99136e-09 9.28306e-17)
(0.474433 -4.01394e-09 9.83907e-17)
(0.474433 -3.27317e-09 1.0431e-16)
(0.474433 -3.06991e-09 1.01081e-16)
(0.474433 -2.78316e-09 9.31978e-17)
(0.474433 -2.42196e-09 9.63643e-17)
(0.474433 -2.02402e-09 9.99024e-17)
(0.474433 -1.63317e-09 9.6345e-17)
(0.474433 -1.22459e-09 8.8262e-17)
(0.474433 -1.04487e-09 9.08496e-17)
(0.474433 -1.11126e-09 9.39792e-17)
(0.474433 -9.26244e-10 9.0559e-17)
(0.474433 -5.16964e-10 8.45442e-17)
(0.474433 -1.61457e-10 8.44707e-17)
(0.474433 9.81336e-11 8.03665e-17)
(0.474433 2.66343e-10 8.15563e-17)
(0.474433 3.41413e-10 8.11155e-17)
(0.474433 3.50637e-10 7.87696e-17)
(0.474433 3.13592e-10 7.96968e-17)
(0.474433 2.4272e-10 7.92543e-17)
(0.474433 1.44545e-10 7.8085e-17)
(0.474433 1.4158e-11 7.67503e-17)
(0.474433 -1.36391e-10 7.40021e-17)
(0.474433 -3.51207e-10 7.35064e-17)
(0.474433 -4.03924e-10 7.28818e-17)
(0.415373 1.01568e-07 1.16048e-16)
(0.415373 8.97185e-08 1.2459e-16)
(0.415373 7.85214e-08 1.38067e-16)
(0.415373 6.87879e-08 1.3072e-16)
(0.415373 6.03982e-08 1.1326e-16)
(0.415373 5.30648e-08 1.13754e-16)
(0.415373 4.66633e-08 1.04297e-16)
(0.415373 4.1144e-08 1.07928e-16)
(0.415373 3.6333e-08 9.96446e-17)
(0.415374 3.20498e-08 1.08137e-16)
(0.415374 2.82712e-08 1.19895e-16)
(0.415374 2.49409e-08 1.19648e-16)
(0.415374 2.19634e-08 1.15072e-16)
(0.415374 1.93015e-08 1.02977e-16)
(0.415374 1.69732e-08 1.05752e-16)
(0.415374 1.49153e-08 9.79456e-17)
(0.415374 1.30668e-08 1.00296e-16)
(0.415374 1.14505e-08 9.38859e-17)
(0.415374 1.0051e-08 1.02774e-16)
(0.415374 8.8062e-09 1.12185e-16)
(0.415374 7.68159e-09 1.10082e-16)
(0.415374 6.71021e-09 9.99194e-17)
(0.415374 5.87859e-09 1.03813e-16)
(0.415374 5.17432e-09 1.11685e-16)
(0.415374 4.57468e-09 1.0751e-16)
(0.415374 4.07728e-09 9.78817e-17)
(0.415374 3.64722e-09 1.01324e-16)
(0.415374 3.20778e-09 1.06661e-16)
(0.415374 2.7489e-09 1.02369e-16)
(0.415374 2.27876e-09 9.29904e-17)
(0.415374 1.81198e-09 9.25885e-17)
(0.415374 1.34292e-09 8.56722e-17)
(0.415374 9.28962e-10 8.85395e-17)
(0.415374 6.66282e-10 8.16485e-17)
(0.415374 6.07666e-10 8.88453e-17)
(0.415374 5.12835e-10 9.44656e-17)
(0.415374 1.96245e-10 9.39568e-17)
(0.415374 -1.91615e-10 9.08929e-17)
(0.415374 -6.19767e-10 8.45128e-17)
(0.415374 -1.09025e-09 8.57522e-17)
(0.415374 -1.65266e-09 8.01728e-17)
(0.415374 -2.29058e-09 8.23499e-17)
(0.415374 -2.89991e-09 7.85483e-17)
(0.415374 -2.78927e-09 8.22798e-17)
(0.415374 -2.39075e-09 8.6086e-17)
(0.415374 -2.33605e-09 8.39974e-17)
(0.415374 -2.16804e-09 7.91243e-17)
(0.415374 -1.91936e-09 8.04202e-17)
(0.415374 -1.63354e-09 8.28197e-17)
(0.415374 -1.38575e-09 8.05426e-17)
(0.415374 -1.22379e-09 7.43347e-17)
(0.415374 -1.53467e-09 7.60298e-17)
(0.415374 -1.68302e-09 7.74041e-17)
(0.415374 -1.13183e-09 7.56392e-17)
(0.415374 -5.81441e-10 7.13647e-17)
(0.415374 -2.02136e-10 7.06431e-17)
(0.415374 4.71653e-11 6.77448e-17)
(0.415374 1.9883e-10 6.81503e-17)
(0.415374 2.64417e-10 6.80611e-17)
(0.415374 2.72816e-10 6.6436e-17)
(0.415374 2.45847e-10 6.6723e-17)
(0.415374 1.94454e-10 6.62387e-17)
(0.415374 1.16898e-10 6.53235e-17)
(0.415374 1.36129e-11 6.40672e-17)
(0.415374 -1.05527e-10 6.14333e-17)
(0.415374 -2.5815e-10 6.12456e-17)
(0.415374 -3.05423e-10 6.08357e-17)
(0.354897 7.92465e-08 9.68475e-17)
(0.354897 6.98355e-08 1.02856e-16)
(0.354897 6.08279e-08 1.11813e-16)
(0.354897 5.3084e-08 1.05359e-16)
(0.354897 4.64501e-08 9.3414e-17)
(0.354897 4.06983e-08 9.43492e-17)
(0.354897 3.57169e-08 8.55996e-17)
(0.354897 3.14339e-08 8.78945e-17)
(0.354897 2.77016e-08 8.3646e-17)
(0.354897 2.43942e-08 8.80264e-17)
(0.354897 2.14896e-08 9.64961e-17)
(0.354897 1.89349e-08 9.70915e-17)
(0.354897 1.66589e-08 9.49444e-17)
(0.354897 1.46334e-08 8.52008e-17)
(0.354898 1.28628e-08 8.7272e-17)
(0.354898 1.12914e-08 8.09059e-17)
(0.354898 9.88472e-09 8.33279e-17)
(0.354898 8.6578e-09 7.67004e-17)
(0.354898 7.58907e-09 8.41697e-17)
(0.354898 6.64376e-09 9.07531e-17)
(0.354898 5.79363e-09 9.11151e-17)
(0.354898 5.06356e-09 8.30483e-17)
(0.354898 4.4404e-09 8.61566e-17)
(0.354898 3.91325e-09 9.1409e-17)
(0.354898 3.46282e-09 8.86068e-17)
(0.354898 3.09176e-09 8.11199e-17)
(0.354898 2.76484e-09 8.36148e-17)
(0.354898 2.43335e-09 8.63946e-17)
(0.354898 2.08676e-09 8.42816e-17)
(0.354898 1.73307e-09 7.62933e-17)
(0.354898 1.38309e-09 7.5713e-17)
(0.354898 1.03848e-09 7.10664e-17)
(0.354898 7.48878e-10 7.25669e-17)
(0.354898 5.76395e-10 6.75713e-17)
(0.354898 5.4227e-10 7.22574e-17)
(0.354898 4.67576e-10 7.57448e-17)
(0.354898 2.21434e-10 7.55541e-17)
(0.354898 -8.34075e-11 7.42947e-17)
(0.354898 -4.18396e-10 7.00879e-17)
(0.354898 -7.89353e-10 7.02264e-17)
(0.354898 -1.22482e-09 6.59911e-17)
(0.354898 -1.69726e-09 6.75282e-17)
(0.354898 -2.03889e-09 6.45965e-17)
(0.354898 -1.88772e-09 6.7189e-17)
(0.354898 -1.65456e-09 6.9573e-17)
(0.354898 -1.67055e-09 6.87663e-17)
(0.354898 -1.58351e-09 6.47242e-17)
(0.354898 -1.42679e-09 6.62889e-17)
(0.354898 -1.24746e-09 6.71625e-17)
(0.354898 -1.12897e-09 6.5674e-17)
(0.354898 -1.17627e-09 6.14939e-17)
(0.354898 -1.88886e-09 6.21205e-17)
)
;

boundaryField
{
    inlet
    {
        type            uniformFixedValue;
        uniformValue    constant (1 0 0);
        value           nonuniform 0();
    }
    outlet
    {
        type            pressureInletOutletVelocity;
        value           nonuniform List<vector> 5((0.642514 -5.602e-10 1.15756e-16) (0.588058 -5.14106e-10 1.00228e-16) (0.532014 -4.63753e-10 8.59641e-17) (0.474433 -4.03924e-10 7.28818e-17) (0.415374 -3.05423e-10 6.08357e-17));
    }
    wall
    {
        type            fixedValue;
        value           nonuniform 0();
    }
    wedge1
    {
        type            wedge;
    }
    wedge2
    {
        type            wedge;
    }
    axis
    {
        type            empty;
    }
    procBoundary41to35
    {
        type            processor;
        value           nonuniform List<vector> 
68
(
(0.695334 -6.83184e-09 1.85258e-16)
(0.695334 -6.41689e-09 1.87092e-16)
(0.695334 -5.62767e-09 1.83129e-16)
(0.695334 -4.88818e-09 1.78688e-16)
(0.695334 -4.1845e-09 1.77689e-16)
(0.695334 -3.46634e-09 1.77421e-16)
(0.695334 -2.66209e-09 1.73324e-16)
(0.695334 -1.71015e-09 1.69308e-16)
(0.695334 -4.66167e-10 1.67355e-16)
(0.695334 1.68521e-10 1.66986e-16)
(0.695334 1.15882e-10 1.63093e-16)
(0.695334 2.28862e-10 1.59238e-16)
(0.695334 3.84165e-10 1.56453e-16)
(0.695334 5.28179e-10 1.53302e-16)
(0.695334 6.08038e-10 1.51007e-16)
(0.695334 6.17804e-10 1.49322e-16)
(0.695334 5.78405e-10 1.4858e-16)
(0.695334 5.01779e-10 1.46352e-16)
(0.695334 4.00922e-10 1.4418e-16)
(0.695334 2.85116e-10 1.42259e-16)
(0.695334 1.23948e-10 1.4e-16)
(0.695334 -7.20658e-11 1.36811e-16)
(0.695334 -4.38771e-10 1.3453e-16)
(0.695334 -5.92535e-10 1.32614e-16)
(0.642514 1.94858e-07 2.43322e-16)
(0.642514 1.72217e-07 2.46235e-16)
(0.642514 1.52437e-07 2.5252e-16)
(0.642514 1.35093e-07 2.46432e-16)
(0.642514 1.19864e-07 2.32112e-16)
(0.642514 1.06435e-07 2.29929e-16)
(0.642514 9.45521e-08 2.22884e-16)
(0.642514 8.39741e-08 2.21894e-16)
(0.642514 7.45674e-08 2.17439e-16)
(0.642514 6.61966e-08 2.21617e-16)
(0.642514 5.87087e-08 2.3002e-16)
(0.642514 5.20269e-08 2.24903e-16)
(0.642514 4.60582e-08 2.21181e-16)
(0.642514 4.06957e-08 2.15382e-16)
(0.642514 3.58994e-08 2.1412e-16)
(0.642514 3.16592e-08 2.10235e-16)
(0.642514 2.79018e-08 2.09241e-16)
(0.642514 2.45423e-08 2.04875e-16)
(0.642514 2.15329e-08 2.05414e-16)
(0.642514 1.88536e-08 2.14151e-16)
(0.642514 1.64799e-08 2.09604e-16)
(0.642514 1.43747e-08 2.02116e-16)
(0.642514 1.24974e-08 2.02143e-16)
(0.642514 1.09117e-08 2.07301e-16)
(0.642514 9.62808e-09 2.01746e-16)
(0.642514 8.61339e-09 1.95678e-16)
(0.642514 7.69276e-09 1.94094e-16)
(0.642514 6.6913e-09 1.98689e-16)
(0.642514 5.64175e-09 1.93366e-16)
(0.642514 4.56322e-09 1.85125e-16)
(0.642514 3.50942e-09 1.83157e-16)
(0.642514 2.47874e-09 1.78153e-16)
(0.642514 1.53618e-09 1.77089e-16)
(0.642514 6.27657e-10 1.73642e-16)
(0.642514 1.87631e-10 1.74685e-16)
(0.642514 -8.7477e-11 1.79415e-16)
(0.642514 -7.72788e-10 1.76766e-16)
(0.642514 -1.44767e-09 1.72911e-16)
(0.642514 -2.07012e-09 1.70596e-16)
(0.642514 -2.66933e-09 1.68565e-16)
(0.642514 -3.36801e-09 1.65746e-16)
(0.642514 -4.24498e-09 1.63971e-16)
(0.642514 -6.1841e-09 1.61469e-16)
(0.642514 -6.1841e-09 1.61469e-16)
)
;
    }
    procBoundary41to40
    {
        type            processor;
        value           nonuniform List<vector> 4((0.588058 1.97565e-07 2.21094e-16) (0.532013 1.70809e-07 1.92101e-16) (0.474432 1.43827e-07 1.61766e-16) (0.415373 1.17127e-07 1.36188e-16));
    }
    procBoundary41to46
    {
        type            processor;
        value           uniform (0.354897 9.12599e-08 1.10814e-16);
    }
    procBoundary41to47
    {
        type            processor;
        value           nonuniform List<vector> 
68
(
(0.354898 -2.0028e-09 6.30715e-17)
(0.354898 -1.11181e-09 6.18524e-17)
(0.354898 -5.17936e-10 5.88074e-17)
(0.354898 -1.5756e-10 5.7917e-17)
(0.354898 4.57551e-11 5.57161e-17)
(0.354898 1.512e-10 5.60027e-17)
(0.354898 2.01194e-10 5.58543e-17)
(0.354898 2.0575e-10 5.48114e-17)
(0.354898 1.83703e-10 5.46659e-17)
(0.354898 1.54064e-10 5.42348e-17)
(0.354898 1.06095e-10 5.34552e-17)
(0.354898 3.65684e-11 5.23849e-17)
(0.354898 -4.6494e-11 5.0173e-17)
(0.354898 -1.25194e-10 4.99903e-17)
(0.354898 -1.84178e-10 4.97322e-17)
(0.29307 5.78684e-08 7.78455e-17)
(0.29307 5.09732e-08 8.311e-17)
(0.29307 4.41564e-08 8.73018e-17)
(0.29307 3.83469e-08 8.4096e-17)
(0.29307 3.34027e-08 7.37595e-17)
(0.29307 2.92163e-08 7.68373e-17)
(0.29307 2.56173e-08 6.71175e-17)
(0.29307 2.24787e-08 7.1022e-17)
(0.29307 1.97466e-08 6.52794e-17)
(0.29307 1.73716e-08 7.24158e-17)
(0.29307 1.52756e-08 7.70516e-17)
(0.29307 1.34295e-08 7.69027e-17)
(0.29307 1.18103e-08 7.5903e-17)
(0.29307 1.03858e-08 6.71424e-17)
(0.29307 9.12592e-09 7.10728e-17)
(0.29307 8.01283e-09 6.38516e-17)
(0.29307 7.02809e-09 6.84237e-17)
(0.29307 6.14121e-09 6.0292e-17)
(0.29307 5.34864e-09 6.77054e-17)
(0.29307 4.66863e-09 7.16568e-17)
(0.29307 4.09472e-09 7.30152e-17)
(0.29307 3.58986e-09 6.57525e-17)
(0.29307 3.15031e-09 6.96357e-17)
(0.29307 2.78106e-09 7.21211e-17)
(0.29307 2.47616e-09 7.12154e-17)
(0.29307 2.21865e-09 6.42062e-17)
(0.29307 1.97202e-09 6.7174e-17)
(0.29307 1.71461e-09 6.98125e-17)
(0.29307 1.46322e-09 6.72255e-17)
(0.29307 1.21257e-09 6.0415e-17)
(0.29307 9.66677e-10 6.19201e-17)
(0.29307 7.38907e-10 5.69038e-17)
(0.29307 5.81995e-10 5.90724e-17)
(0.29307 4.94344e-10 5.37581e-17)
(0.29307 4.60312e-10 5.76646e-17)
(0.29307 3.69259e-10 5.98677e-17)
(0.29307 1.71705e-10 5.996e-17)
(0.29307 -5.38021e-11 5.94275e-17)
(0.29307 -2.91206e-10 5.59632e-17)
(0.29307 -5.39723e-10 5.67194e-17)
(0.29307 -8.24294e-10 5.24675e-17)
(0.29307 -1.14024e-09 5.4501e-17)
(0.29307 -1.33172e-09 5.09944e-17)
(0.29307 -1.18404e-09 5.39465e-17)
(0.29307 -1.04122e-09 5.48738e-17)
(0.29307 -1.08032e-09 5.49309e-17)
(0.29307 -1.04165e-09 5.17198e-17)
(0.29307 -9.59999e-10 5.34033e-17)
(0.29307 -8.77138e-10 5.30114e-17)
(0.29307 -8.62464e-10 5.22164e-17)
(0.29307 -1.04291e-09 4.91838e-17)
(0.354898 -2.0028e-09 6.30715e-17)
(0.29307 -1.79862e-09 5.01084e-17)
)
;
    }
}


// ************************************************************************* //
