/*--------------------------------*- C++ -*----------------------------------*\
  =========                 |
  \\      /  F ield         | OpenFOAM: The Open Source CFD Toolbox
   \\    /   O peration     | Website:  https://openfoam.org
    \\  /    A nd           | Version:  7
     \\/     M anipulation  |
\*---------------------------------------------------------------------------*/
FoamFile
{
    version     2.0;
    format      ascii;
    class       surfaceScalarField;
    location    "2.4";
    object      phi;
}
// * * * * * * * * * * * * * * * * * * * * * * * * * * * * * * * * * * * * * //

dimensions      [0 3 -1 0 0 0 0];

internalField   nonuniform List<scalar> 
615
(
1.73518e-05
-6.03358e-08
1.74112e-05
-5.94351e-08
1.74697e-05
-5.85497e-08
1.75274e-05
-5.76792e-08
1.75842e-05
-5.68232e-08
1.76402e-05
-5.59811e-08
1.76954e-05
-5.51526e-08
1.77497e-05
-5.43374e-08
1.78032e-05
-5.35352e-08
1.7856e-05
-5.27455e-08
1.7908e-05
-5.19682e-08
1.79592e-05
-5.1203e-08
1.80096e-05
-5.04496e-08
1.80593e-05
-4.97078e-08
1.81083e-05
-4.89774e-08
1.81566e-05
-4.82581e-08
1.82041e-05
-4.75498e-08
1.8251e-05
-4.68523e-08
1.82971e-05
-4.61654e-08
1.83426e-05
-4.54889e-08
1.83874e-05
-4.48226e-08
1.84316e-05
-4.41664e-08
1.84751e-05
-4.35201e-08
1.8518e-05
-4.28836e-08
1.85603e-05
-4.22567e-08
1.86019e-05
-4.16393e-08
1.86429e-05
-4.10311e-08
1.86834e-05
-4.04321e-08
1.87232e-05
-3.98422e-08
1.87625e-05
-3.92611e-08
1.88012e-05
-3.86886e-08
1.88393e-05
-3.81248e-08
1.88769e-05
-3.75694e-08
1.89139e-05
-3.70222e-08
1.89504e-05
-3.64832e-08
1.89863e-05
-3.5952e-08
1.90217e-05
-3.54287e-08
1.90567e-05
-3.4913e-08
1.90911e-05
-3.44047e-08
1.9125e-05
-3.39037e-08
1.91584e-05
-3.34098e-08
1.91913e-05
-3.29227e-08
1.92237e-05
-3.24423e-08
1.92557e-05
-3.19685e-08
1.92872e-05
-3.15008e-08
1.93182e-05
-3.10392e-08
1.93488e-05
-3.05835e-08
1.9379e-05
-3.01333e-08
1.94086e-05
-2.96884e-08
1.94379e-05
-2.92485e-08
1.94667e-05
-2.88135e-08
1.94951e-05
-2.83829e-08
1.95231e-05
-2.79566e-08
1.95506e-05
-2.75343e-08
1.95777e-05
-2.71156e-08
1.96044e-05
-2.67002e-08
1.96307e-05
-2.62879e-08
1.96566e-05
-2.58784e-08
1.9682e-05
-2.54714e-08
1.97071e-05
-2.50665e-08
1.97318e-05
-2.46635e-08
1.9756e-05
-2.42622e-08
1.97799e-05
-2.38623e-08
1.98034e-05
-2.34635e-08
1.98264e-05
-2.30658e-08
1.98491e-05
-2.26688e-08
-2.22726e-08
5.20576e-05
-2.39742e-07
5.22343e-05
-2.36119e-07
5.24083e-05
-2.32559e-07
5.25797e-05
-2.2906e-07
5.27485e-05
-2.2562e-07
5.29147e-05
-2.22238e-07
5.30785e-05
-2.18912e-07
5.32398e-05
-2.15641e-07
5.33987e-05
-2.12423e-07
5.35552e-05
-2.09256e-07
5.37094e-05
-2.06141e-07
5.38612e-05
-2.03075e-07
5.40109e-05
-2.00057e-07
5.41582e-05
-1.97087e-07
5.43034e-05
-1.94164e-07
5.44464e-05
-1.91287e-07
5.45874e-05
-1.88454e-07
5.47262e-05
-1.85666e-07
5.48629e-05
-1.82921e-07
5.49976e-05
-1.80218e-07
5.51304e-05
-1.77557e-07
5.52612e-05
-1.74937e-07
5.539e-05
-1.72358e-07
5.55169e-05
-1.69819e-07
5.5642e-05
-1.67318e-07
5.57652e-05
-1.64856e-07
5.58866e-05
-1.62432e-07
5.60062e-05
-1.60045e-07
5.61241e-05
-1.57695e-07
5.62402e-05
-1.5538e-07
5.63546e-05
-1.53101e-07
5.64673e-05
-1.50856e-07
5.65784e-05
-1.48646e-07
5.66879e-05
-1.46469e-07
5.67957e-05
-1.44324e-07
5.6902e-05
-1.42212e-07
5.70067e-05
-1.40131e-07
5.71098e-05
-1.38081e-07
5.72115e-05
-1.36061e-07
5.73117e-05
-1.34071e-07
5.74104e-05
-1.32108e-07
5.75076e-05
-1.30174e-07
5.76034e-05
-1.28266e-07
5.76978e-05
-1.26385e-07
5.77909e-05
-1.24528e-07
5.78825e-05
-1.22696e-07
5.79728e-05
-1.20888e-07
5.80618e-05
-1.19101e-07
5.81494e-05
-1.17336e-07
5.82358e-05
-1.15592e-07
5.83208e-05
-1.13866e-07
5.84046e-05
-1.12159e-07
5.84871e-05
-1.10469e-07
5.85684e-05
-1.08794e-07
5.86484e-05
-1.07134e-07
5.87272e-05
-1.05488e-07
5.88048e-05
-1.03854e-07
5.88811e-05
-1.02231e-07
5.89563e-05
-1.00618e-07
5.90302e-05
-9.90133e-08
5.9103e-05
-9.74165e-08
5.91745e-05
-9.58264e-08
5.92449e-05
-9.42419e-08
5.93141e-05
-9.26621e-08
5.93821e-05
-9.10862e-08
5.9449e-05
-8.95136e-08
-8.79438e-08
8.67649e-05
-5.3277e-07
8.70534e-05
-5.24541e-07
8.73373e-05
-5.16461e-07
8.76167e-05
-5.08526e-07
8.78918e-05
-5.00731e-07
8.81627e-05
-4.93073e-07
8.84293e-05
-4.85546e-07
8.86918e-05
-4.78149e-07
8.89503e-05
-4.70877e-07
8.92047e-05
-4.63727e-07
8.94553e-05
-4.56697e-07
8.9702e-05
-4.49783e-07
8.99449e-05
-4.42984e-07
9.01841e-05
-4.36296e-07
9.04197e-05
-4.29718e-07
9.06517e-05
-4.23247e-07
9.08801e-05
-4.16881e-07
9.1105e-05
-4.10618e-07
9.13266e-05
-4.04456e-07
9.15447e-05
-3.98393e-07
9.17596e-05
-3.92427e-07
9.19712e-05
-3.86557e-07
9.21797e-05
-3.80781e-07
9.23849e-05
-3.75097e-07
9.25871e-05
-3.69503e-07
9.27863e-05
-3.63999e-07
9.29824e-05
-3.58582e-07
9.31756e-05
-3.5325e-07
9.33659e-05
-3.48003e-07
9.35534e-05
-3.42838e-07
9.3738e-05
-3.37755e-07
9.39199e-05
-3.32751e-07
9.40991e-05
-3.27825e-07
9.42756e-05
-3.22976e-07
9.44495e-05
-3.18202e-07
9.46208e-05
-3.13501e-07
9.47895e-05
-3.08872e-07
9.49558e-05
-3.04313e-07
9.51195e-05
-2.99823e-07
9.52808e-05
-2.95399e-07
9.54398e-05
-2.9104e-07
9.55963e-05
-2.86745e-07
9.57506e-05
-2.8251e-07
9.59025e-05
-2.78335e-07
9.60522e-05
-2.74217e-07
9.61997e-05
-2.70154e-07
9.63449e-05
-2.66144e-07
9.6488e-05
-2.62185e-07
9.6629e-05
-2.58274e-07
9.67678e-05
-2.54409e-07
9.69045e-05
-2.50587e-07
9.70392e-05
-2.46807e-07
9.71717e-05
-2.43065e-07
9.73023e-05
-2.39359e-07
9.74309e-05
-2.35686e-07
9.75574e-05
-2.32043e-07
9.7682e-05
-2.28428e-07
9.78046e-05
-2.24838e-07
9.79253e-05
-2.2127e-07
9.8044e-05
-2.17722e-07
9.81607e-05
-2.14191e-07
9.82756e-05
-2.10675e-07
9.83885e-05
-2.07172e-07
9.84995e-05
-2.03679e-07
9.86086e-05
-2.00195e-07
9.87158e-05
-1.96719e-07
-1.93249e-07
0.000121451
-9.29862e-07
0.000121841
-9.15069e-07
0.000122225
-9.00559e-07
0.000122603
-8.86323e-07
0.000122975
-8.72352e-07
0.00012334
-8.58639e-07
0.0001237
-8.45177e-07
0.000124054
-8.31958e-07
0.000124402
-8.18976e-07
0.000124744
-8.06224e-07
0.000125081
-7.93698e-07
0.000125413
-7.81392e-07
0.000125739
-7.693e-07
0.000126061
-7.57418e-07
0.000126377
-7.4574e-07
0.000126688
-7.34263e-07
0.000126994
-7.22983e-07
0.000127295
-7.11894e-07
0.000127591
-7.00993e-07
0.000127883
-6.90276e-07
0.000128171
-6.7974e-07
0.000128453
-6.69381e-07
0.000128732
-6.59195e-07
0.000129006
-6.49179e-07
0.000129276
-6.3933e-07
0.000129541
-6.29644e-07
0.000129803
-6.20119e-07
0.000130061
-6.10751e-07
0.000130314
-6.01537e-07
0.000130564
-5.92475e-07
0.000130809
-5.8356e-07
0.000131052
-5.7479e-07
0.00013129
-5.66163e-07
0.000131525
-5.57674e-07
0.000131756
-5.49322e-07
0.000131983
-5.41102e-07
0.000132207
-5.33013e-07
0.000132428
-5.2505e-07
0.000132646
-5.17211e-07
0.00013286
-5.09492e-07
0.00013307
-5.0189e-07
0.000133278
-4.94402e-07
0.000133483
-4.87024e-07
0.000133684
-4.79753e-07
0.000133882
-4.72584e-07
0.000134078
-4.65514e-07
0.00013427
-4.58539e-07
0.00013446
-4.51654e-07
0.000134646
-4.44856e-07
0.00013483
-4.38141e-07
0.000135011
-4.31503e-07
0.000135189
-4.24938e-07
0.000135364
-4.18442e-07
0.000135537
-4.1201e-07
0.000135707
-4.05637e-07
0.000135874
-3.99317e-07
0.000136039
-3.93048e-07
0.000136201
-3.86822e-07
0.00013636
-3.80636e-07
0.000136517
-3.74486e-07
0.000136671
-3.68366e-07
0.000136823
-3.62272e-07
0.000136972
-3.562e-07
0.000137118
-3.50148e-07
0.000137262
-3.44111e-07
0.000137404
-3.38087e-07
-3.32075e-07
0.000156054
-1.41685e-06
0.000156533
-1.39349e-06
0.000157003
-1.3706e-06
0.000157465
-1.34817e-06
0.000157918
-1.32619e-06
0.000158364
-1.30464e-06
0.000158803
-1.2835e-06
0.000159234
-1.26278e-06
0.000159657
-1.24245e-06
0.000160073
0.000160483
0.000160885
0.00016128
0.000161669
0.000162052
0.000162428
0.000162798
0.000163162
0.00016352
0.000163872
0.000164218
0.000164559
0.000164894
0.000165223
0.000165548
0.000165867
0.000166181
0.00016649
0.000166794
0.000167093
0.000167388
0.000167677
0.000167963
0.000168243
0.00016852
0.000168792
0.00016906
0.000169323
0.000169583
0.000169838
0.00017009
0.000170337
0.000170581
0.000170821
0.000171057
0.00017129
0.000171519
0.000171744
0.000171966
0.000172185
0.0001724
0.000172611
0.00017282
0.000173025
0.000173227
0.000173425
0.000173621
0.000173813
0.000174002
0.000174188
0.00017437
0.00017455
0.000174727
0.0001749
0.00017507
0.000175238
0.000190458
0.000191006
0.000191542
0.000192069
0.000192586
0.000193093
0.000193591
0.00019408
)
;

boundaryField
{
    inlet
    {
        type            calculated;
        value           nonuniform 0();
    }
    outlet
    {
        type            calculated;
        value           nonuniform 0();
    }
    wall
    {
        type            calculated;
        value           nonuniform 0();
    }
    wedge1
    {
        type            wedge;
        value           nonuniform List<scalar> 
344
(
1.80989e-17
1.76564e-17
1.35064e-16
-1.35523e-17
-3.09486e-17
5.201e-17
1.70714e-17
1.72044e-17
1.3261e-16
-1.3142e-17
-3.04057e-17
5.11503e-17
1.68208e-17
1.54233e-17
1.30153e-16
-1.34399e-17
-3.01066e-17
5.03868e-17
1.6657e-17
1.55596e-17
1.28186e-16
-1.37143e-17
-2.96225e-17
4.94651e-17
1.66028e-17
1.57062e-17
1.26129e-16
-1.33117e-17
-2.92686e-17
4.87886e-17
1.61594e-17
1.56426e-17
1.2417e-16
-1.35217e-17
-2.88345e-17
4.78691e-17
1.59545e-17
1.47585e-17
1.22065e-16
-1.31134e-17
-2.85833e-17
4.68725e-17
1.57841e-17
1.48137e-17
1.20331e-16
-1.33187e-17
-2.80867e-17
4.60379e-17
1.57693e-17
1.48554e-17
1.18411e-16
-1.28429e-17
-2.77677e-17
4.54095e-17
1.51904e-17
1.46868e-17
1.16581e-16
-1.30253e-17
-2.73535e-17
1.50149e-17
1.37806e-17
1.1459e-16
-1.2638e-17
-2.71086e-17
1.48294e-17
1.38688e-17
1.12998e-16
-1.28239e-17
-2.664e-17
1.48959e-17
1.39066e-17
1.11201e-16
-1.2385e-17
-2.63333e-17
1.44042e-17
1.39791e-17
1.09685e-16
-1.25316e-17
-2.5813e-17
1.38627e-17
1.28156e-17
1.07721e-16
-1.22767e-17
-2.54979e-17
1.36771e-17
1.21938e-17
1.05688e-16
-1.23166e-17
-2.54271e-17
1.35366e-17
1.24507e-17
1.04387e-16
-1.18947e-17
-2.49035e-17
1.36036e-17
1.26045e-17
1.03102e-16
-1.14895e-17
-2.4413e-17
1.35851e-17
1.2683e-17
1.01822e-16
-1.11236e-17
-2.38939e-17
1.34594e-17
1.26885e-17
1.00489e-16
-1.07693e-17
-2.34049e-17
1.32653e-17
1.26755e-17
9.91794e-17
-1.04434e-17
-2.29338e-17
1.31602e-17
1.26092e-17
9.79081e-17
-1.01235e-17
-2.24755e-17
1.30962e-17
1.25957e-17
9.66104e-17
-9.83574e-18
-2.20239e-17
1.30477e-17
1.25941e-17
9.53662e-17
-9.50414e-18
-2.15868e-17
1.28144e-17
1.2502e-17
9.40858e-17
-9.23765e-18
-2.1136e-17
1.28352e-17
1.28479e-17
9.29675e-17
-8.87157e-18
-2.06997e-17
1.20684e-17
1.25853e-17
9.13138e-17
-8.48045e-18
-2.03309e-17
1.19694e-17
1.09274e-17
8.96035e-17
-8.81356e-18
-2.0163e-17
1.18405e-17
1.11435e-17
8.83153e-17
-9.10018e-18
-1.98031e-17
1.18578e-17
1.14264e-17
8.69795e-17
-8.73386e-18
-1.96111e-17
1.14444e-17
1.13988e-17
8.56732e-17
-8.97806e-18
-1.93421e-17
1.12852e-17
1.055e-17
8.41825e-17
-8.65791e-18
-1.92428e-17
1.14191e-17
1.09085e-17
8.31234e-17
-8.89527e-18
-1.88911e-17
1.08812e-17
1.07905e-17
8.16799e-17
-8.35452e-18
-1.87585e-17
1.09329e-17
1.02378e-17
8.04214e-17
-8.64645e-18
-1.85834e-17
1.0522e-17
1.01785e-17
7.89053e-17
-8.86744e-18
-1.85491e-17
1.04711e-17
9.64314e-18
7.76156e-17
-9.01465e-18
-1.83785e-17
1.00934e-17
9.60825e-18
7.6133e-17
-9.15678e-18
-1.83483e-17
1.00023e-17
9.04126e-18
7.48828e-17
-9.24724e-18
-1.81974e-17
9.62685e-18
9.00233e-18
7.34697e-17
-9.35614e-18
-1.81467e-17
9.64028e-18
8.57309e-18
7.23678e-17
-9.35944e-18
-1.79833e-17
9.26234e-18
8.52088e-18
7.10218e-17
-9.42545e-18
-1.79222e-17
9.25646e-18
8.05832e-18
6.99094e-17
-9.45649e-18
-1.77751e-17
8.97401e-18
8.14841e-18
6.86452e-17
-9.47364e-18
-1.76606e-17
8.9055e-18
7.59604e-18
6.75501e-17
-9.56104e-18
-1.75464e-17
8.6889e-18
7.97739e-18
6.65691e-17
-9.53026e-18
-1.72828e-17
8.32773e-18
7.2236e-18
6.53475e-17
-9.18396e-18
-1.71801e-17
8.35975e-18
6.91225e-18
6.4363e-17
-9.21482e-18
-1.6962e-17
8.05966e-18
7.0865e-18
6.32214e-17
-9.25237e-18
-1.68845e-17
8.07427e-18
6.80405e-18
6.23016e-17
-9.2451e-18
-1.67206e-17
7.80778e-18
6.90782e-18
6.12159e-17
-9.27305e-18
-1.66322e-17
8.01194e-18
6.53696e-18
6.03139e-17
-9.23272e-18
-1.64502e-17
7.6297e-18
6.65725e-18
5.91846e-17
-9.22706e-18
-1.63572e-17
7.695e-18
6.30003e-18
5.83177e-17
-9.1646e-18
-1.61836e-17
7.41316e-18
6.3816e-18
5.7245e-17
-9.17271e-18
-1.60765e-17
7.40868e-18
5.99779e-18
5.63743e-17
-9.12453e-18
-1.58731e-17
7.07172e-18
6.11379e-18
5.53265e-17
-9.09285e-18
-1.57774e-17
7.17375e-18
5.6927e-18
5.44908e-17
-9.04057e-18
-1.55866e-17
6.7839e-18
5.81974e-18
5.34049e-17
-9.02179e-18
-1.54872e-17
6.89766e-18
5.43616e-18
5.26072e-17
-8.90218e-18
-1.52598e-17
6.55068e-18
5.57789e-18
5.1624e-17
-8.85247e-18
-1.5104e-17
6.68177e-18
5.26552e-18
5.08189e-17
-8.76181e-18
-1.48979e-17
6.45744e-18
5.38927e-18
4.97896e-17
-8.72939e-18
-1.47937e-17
6.45828e-18
4.94727e-18
4.8975e-17
-8.67542e-18
-1.45731e-17
6.08196e-18
5.04358e-18
4.79762e-17
-8.63535e-18
-1.44798e-17
6.15323e-18
4.72659e-18
4.71815e-17
-8.56757e-18
-1.42559e-17
5.87765e-18
4.86685e-18
4.61862e-17
-8.50112e-18
-1.41117e-17
)
;
    }
    wedge2
    {
        type            wedge;
        value           nonuniform List<scalar> 
344
(
1.28727e-17
7.96829e-18
1.247e-16
-2.32336e-17
-3.86328e-17
4.6312e-17
1.34375e-17
8.04108e-18
1.23168e-16
-2.30889e-17
-3.80422e-17
4.55069e-17
1.32336e-17
9.43859e-18
1.2171e-16
-2.2201e-17
-3.72303e-17
4.46414e-17
1.29499e-17
8.93136e-18
1.19832e-16
-2.13669e-17
-3.66258e-17
4.39682e-17
1.25647e-17
8.41228e-18
1.18112e-16
-2.12232e-17
-3.59121e-17
4.30834e-17
1.25753e-17
8.14584e-18
1.16359e-16
-2.04731e-17
-3.52994e-17
4.2456e-17
1.23545e-17
8.64681e-18
1.14816e-16
-2.03559e-17
-3.45235e-17
4.19723e-17
1.21057e-17
8.24461e-18
1.12962e-16
-1.96289e-17
-3.40125e-17
4.13392e-17
1.17078e-17
7.8585e-18
1.11356e-16
-1.95984e-17
-3.3343e-17
4.05291e-17
1.18814e-17
7.71438e-18
1.09719e-16
-1.89141e-17
-3.2787e-17
1.16583e-17
8.26411e-18
1.08299e-16
-1.88094e-17
-3.20793e-17
1.1448e-17
7.84946e-18
1.06537e-16
-1.81411e-17
-3.1613e-17
1.09965e-17
7.48836e-18
1.05034e-16
-1.81043e-17
-3.10016e-17
1.11074e-17
7.12252e-18
1.03304e-16
-1.74889e-17
-3.06203e-17
1.12731e-17
7.97272e-18
1.02016e-16
-1.73013e-17
-3.00308e-17
1.10893e-17
8.26666e-18
1.00965e-16
-1.6794e-17
-2.92519e-17
1.08665e-17
7.70787e-18
9.91736e-17
-1.67718e-17
-2.89215e-17
1.04421e-17
7.25529e-18
9.74162e-17
-1.67405e-17
-2.85732e-17
1.01082e-17
6.88461e-18
9.57021e-17
-1.6677e-17
-2.82681e-17
9.88554e-18
6.58994e-18
9.40884e-17
-1.66101e-17
-2.79474e-17
9.73846e-18
6.32056e-18
9.24981e-17
-1.65206e-17
-2.7623e-17
9.50632e-18
6.10571e-18
9.09156e-17
-1.64325e-17
-2.72995e-17
9.23858e-18
5.84361e-18
8.94044e-17
-1.63182e-17
-2.69827e-17
8.95969e-18
5.57346e-18
8.78839e-17
-1.62548e-17
-2.66648e-17
8.87171e-18
5.39982e-18
8.64433e-17
-1.6133e-17
-2.63739e-17
8.53418e-18
4.79076e-18
8.48832e-17
-1.61167e-17
-2.60809e-17
8.98701e-18
4.80013e-18
8.39005e-17
-1.61448e-17
-2.5733e-17
8.78034e-18
6.19849e-18
8.30156e-17
-1.54311e-17
-2.51963e-17
8.60648e-18
5.73187e-18
8.17488e-17
-1.47795e-17
-2.48635e-17
8.29073e-18
5.20008e-18
8.05702e-17
-1.47893e-17
-2.43744e-17
8.41002e-18
5.00022e-18
7.94007e-17
-1.41921e-17
-2.39738e-17
8.27854e-18
5.59364e-18
7.84543e-17
-1.41662e-17
-2.34149e-17
7.86001e-18
4.99964e-18
7.71135e-17
-1.35877e-17
-2.31193e-17
8.11759e-18
4.89883e-18
7.6194e-17
-1.37934e-17
-2.26151e-17
7.7892e-18
5.20817e-18
7.51265e-17
-1.31715e-17
-2.21641e-17
7.92765e-18
5.05546e-18
7.43515e-17
-1.26251e-17
-2.15824e-17
7.70978e-18
5.35498e-18
7.33848e-17
-1.21582e-17
-2.11472e-17
7.82273e-18
5.18365e-18
7.26448e-17
-1.17008e-17
-2.05813e-17
7.65337e-18
5.52315e-18
7.17056e-17
-1.13002e-17
-2.01456e-17
7.77155e-18
5.36024e-18
7.09615e-17
-1.08861e-17
-1.96188e-17
7.50406e-18
5.56871e-18
6.99378e-17
-1.05822e-17
-1.92137e-17
7.63239e-18
5.42446e-18
6.91885e-17
-1.02189e-17
-1.8715e-17
7.39083e-18
5.67175e-18
6.82356e-17
-9.89596e-18
-1.83107e-17
7.43093e-18
5.39122e-18
6.7463e-17
-9.59127e-18
-1.78822e-17
7.25942e-18
5.73527e-18
6.65491e-17
-9.21977e-18
-1.74611e-17
7.23874e-18
5.16782e-18
6.55479e-17
-8.97788e-18
-1.71969e-17
7.36632e-18
5.72806e-18
6.48129e-17
-9.04084e-18
-1.67791e-17
7.10304e-18
5.83937e-18
6.38656e-17
-8.73736e-18
-1.64838e-17
7.17517e-18
5.48455e-18
6.30989e-17
-8.43016e-18
-1.60544e-17
6.93441e-18
5.57245e-18
6.21325e-17
-8.17131e-18
-1.57178e-17
6.97671e-18
5.2922e-18
6.13537e-17
-7.88053e-18
-1.53116e-17
6.55269e-18
5.47176e-18
6.04109e-17
-7.66102e-18
-1.50044e-17
6.71589e-18
5.17895e-18
5.97142e-17
-7.4093e-18
-1.46136e-17
6.4337e-18
5.34915e-18
5.87722e-17
-7.21643e-18
-1.43083e-17
6.50136e-18
5.09791e-18
5.80526e-17
-6.95589e-18
-1.39412e-17
6.29269e-18
5.29811e-18
5.71455e-17
-6.75372e-18
-1.36741e-17
6.41814e-18
5.0148e-18
5.64294e-17
-6.53691e-18
-1.33033e-17
6.10585e-18
5.25484e-18
5.55128e-17
-6.34249e-18
-1.3031e-17
6.28689e-18
4.96245e-18
5.48579e-17
-6.11636e-18
-1.26703e-17
5.96532e-18
5.16752e-18
5.39239e-17
-5.99205e-18
-1.24401e-17
6.10588e-18
4.86168e-18
5.31839e-17
-5.79922e-18
-1.21409e-17
5.76844e-18
4.9974e-18
5.22729e-17
-5.64814e-18
-1.18939e-17
5.78792e-18
4.71052e-18
5.15919e-17
-5.43944e-18
-1.15464e-17
5.58232e-18
4.97748e-18
5.07011e-17
-5.25373e-18
-1.13169e-17
5.75475e-18
4.71809e-18
4.99984e-17
-5.05417e-18
-1.09611e-17
5.47996e-18
4.86108e-18
4.90949e-17
-4.88317e-18
-1.07367e-17
5.55211e-18
4.5585e-18
4.83944e-17
-4.71125e-18
-1.04334e-17
)
;
    }
    axis
    {
        type            empty;
        value           nonuniform 0();
    }
    procBoundary1to0
    {
        type            processor;
        value           nonuniform List<scalar> 5(-1.72914e-05 -5.18782e-05 -8.64719e-05 -0.000121054 -0.000155567);
    }
    procBoundary1to2
    {
        type            processor;
        value           nonuniform List<scalar> 5(1.98714e-05 5.95146e-05 9.88212e-05 0.000137542 0.000175402);
    }
    procBoundary1to6
    {
        type            processor;
        value           uniform -0.000189901;
    }
    procBoundary1to7
    {
        type            processor;
        value           nonuniform List<scalar> 
68
(
-1.22251e-06
-1.20294e-06
-1.18374e-06
-1.1649e-06
-1.1464e-06
-1.12824e-06
-1.11041e-06
-1.09291e-06
-1.07572e-06
-1.05884e-06
-1.04226e-06
-1.02598e-06
-1.00998e-06
-9.94271e-07
-9.78836e-07
-9.63671e-07
-9.48771e-07
-9.3413e-07
-9.19743e-07
-9.05603e-07
-8.91707e-07
-8.78049e-07
-8.64622e-07
-8.51423e-07
-8.38447e-07
-8.25687e-07
-8.13138e-07
-8.00797e-07
-7.88656e-07
-7.76712e-07
-7.64958e-07
-7.5339e-07
-7.42e-07
-7.30785e-07
-7.19737e-07
-7.08851e-07
-6.9812e-07
-6.87539e-07
-6.771e-07
-6.66797e-07
-6.56623e-07
-6.4657e-07
-6.36632e-07
-6.26801e-07
-6.1707e-07
-6.0743e-07
-5.97875e-07
-5.88397e-07
-5.78988e-07
-5.6964e-07
-5.60347e-07
-5.51102e-07
-5.41897e-07
-5.32727e-07
-5.23586e-07
-5.14469e-07
-5.05373e-07
-4.96294e-07
-1.97447e-06
-1.94055e-06
-1.90737e-06
-1.87491e-06
-1.84314e-06
-1.81204e-06
-1.78159e-06
-1.75177e-06
0.000194561
-1.72256e-06
)
;
    }
}


// ************************************************************************* //
