/*--------------------------------*- C++ -*----------------------------------*\
  =========                 |
  \\      /  F ield         | OpenFOAM: The Open Source CFD Toolbox
   \\    /   O peration     | Website:  https://openfoam.org
    \\  /    A nd           | Version:  7
     \\/     M anipulation  |
\*---------------------------------------------------------------------------*/
FoamFile
{
    version     2.0;
    format      ascii;
    class       volVectorField;
    location    "3.6";
    object      U;
}
// * * * * * * * * * * * * * * * * * * * * * * * * * * * * * * * * * * * * * //

dimensions      [0 1 -1 0 0 0 0];

internalField   nonuniform List<vector> 
344
(
(1.94417 0.0346917 -7.21557e-17)
(1.93909 0.0342748 -3.31075e-17)
(1.93412 0.0338646 -7.18762e-17)
(1.92924 0.0334608 -3.08985e-17)
(1.92445 0.0330635 -1.44195e-17)
(1.91976 0.0326724 1.94504e-17)
(1.91516 0.0322874 -4.50719e-18)
(1.91065 0.0319085 2.89952e-17)
(1.90622 0.0315354 5.76739e-18)
(1.90188 0.0311681 3.50574e-17)
(1.89763 0.0308065 2.81182e-17)
(1.89345 0.0304504 5.43426e-17)
(1.88935 0.0300996 8.47788e-17)
(1.88534 0.0297542 9.35867e-17)
(1.88139 0.029414 1.23956e-16)
(1.87753 0.0290788 9.68783e-17)
(1.87373 0.0287486 1.27566e-16)
(1.87001 0.0284232 1.0532e-16)
(1.86636 0.0281026 1.31964e-16)
(1.86277 0.0277867 1.20071e-16)
(1.85926 0.0274753 1.52427e-16)
(1.8558 0.0271684 1.58561e-16)
(1.85242 0.0268658 1.89537e-16)
(1.84909 0.0265675 1.36773e-16)
(1.84583 0.0262734 1.85502e-16)
(1.84262 0.0259833 1.6503e-16)
(1.83948 0.0256973 2.02763e-16)
(1.83639 0.0254151 1.59598e-16)
(1.83336 0.0251368 1.99436e-16)
(1.83038 0.0248623 2.08962e-16)
(1.82745 0.0245914 2.40486e-16)
(1.82458 0.0243241 2.09805e-16)
(1.82176 0.0240603 2.40439e-16)
(1.819 0.0238 2.13641e-16)
(1.81628 0.0235431 2.42702e-16)
(1.8136 0.0232894 2.28406e-16)
(1.81098 0.0230391 2.51758e-16)
(1.8084 0.0227919 2.76999e-16)
(1.80587 0.0225478 2.82025e-16)
(1.80338 0.0223067 3.0636e-16)
(1.80094 0.0220687 2.73126e-16)
(1.79853 0.0218336 3.04929e-16)
(1.79617 0.0216013 2.78015e-16)
(1.79385 0.0213719 2.98609e-16)
(1.79157 0.0211453 2.81653e-16)
(1.78933 0.0209214 3.10716e-16)
(1.78713 0.0207002 3.16572e-16)
(1.78496 0.0204816 3.42393e-16)
(1.78283 0.0202656 2.93456e-16)
(1.86171 0.0463205 -4.32859e-16)
(1.85567 0.045669 -4.44764e-16)
(1.84978 0.0450288 -4.12737e-16)
(1.84401 0.0443997 -4.01141e-16)
(1.83838 0.0437814 -3.74073e-16)
(1.83287 0.043174 -3.37577e-16)
(1.82748 0.0425772 -3.57165e-16)
(1.82222 0.0419908 -3.095e-16)
(1.81707 0.0414146 -3.34983e-16)
(1.81204 0.0408486 -2.88892e-16)
(1.80712 0.0402924 -3.10705e-16)
(1.80231 0.039746 -2.71462e-16)
(1.79761 0.0392092 -2.72033e-16)
(1.79302 0.0386817 -2.25022e-16)
(1.78853 0.0381634 -2.5283e-16)
(1.78414 0.0376542 -2.05123e-16)
(1.77985 0.0371539 -2.09709e-16)
(1.77565 0.0366622 -1.65025e-16)
(1.77155 0.0361791 -1.98629e-16)
(1.76753 0.0357043 -1.56036e-16)
(1.76361 0.0352378 -1.61596e-16)
(1.75978 0.0347792 -1.20899e-16)
(1.75603 0.0343285 -1.50153e-16)
(1.75236 0.0338855 -9.87384e-17)
(1.74878 0.0334501 -1.35412e-16)
(1.74527 0.033022 -8.30403e-17)
(1.74184 0.0326012 -1.18463e-16)
(1.73849 0.0321875 -7.78203e-17)
(1.73521 0.0317807 -7.53054e-17)
(1.73201 0.0313806 -4.30417e-17)
(1.72887 0.0309873 4.84176e-19)
(1.7258 0.0306004 -4.02027e-17)
(1.7228 0.0302199 1.18261e-17)
(1.71987 0.0298456 -2.85451e-17)
(1.717 0.0294773 2.19813e-17)
(1.71419 0.0291151 -1.697e-17)
(1.71144 0.0287587 2.48596e-17)
(1.70875 0.0284079 2.01329e-17)
(1.70612 0.0280628 6.59069e-17)
(1.70355 0.0277231 2.8161e-17)
(1.70103 0.0273887 7.37166e-17)
(1.69856 0.0270596 6.28954e-17)
(1.69615 0.0267355 1.08127e-16)
(1.69379 0.0264165 6.25175e-17)
(1.69148 0.0261023 1.05655e-16)
(1.68922 0.0257929 9.53414e-17)
(1.68701 0.0254882 1.33612e-16)
(1.68484 0.0251881 9.36377e-17)
(1.68272 0.0248924 1.43679e-16)
(1.68064 0.0246011 9.84891e-17)
(1.67861 0.0243141 1.47937e-16)
(1.67662 0.0240312 1.08901e-16)
(1.67467 0.0237525 1.49111e-16)
(1.67276 0.0234778 1.45174e-16)
(1.67089 0.023207 1.7253e-16)
(1.66906 0.0229401 2.07002e-16)
(1.66726 0.022677 1.65216e-16)
(1.66551 0.0224175 2.116e-16)
(1.66379 0.0221617 1.68917e-16)
(1.6621 0.0219093 2.17428e-16)
(1.66045 0.0216605 1.73048e-16)
(1.65883 0.0214151 2.10049e-16)
(1.65724 0.021173 2.02775e-16)
(1.65569 0.0209342 2.41846e-16)
(1.65416 0.0206985 2.03697e-16)
(1.65267 0.0204661 2.45852e-16)
(1.65121 0.0202367 2.32401e-16)
(1.64977 0.0200103 2.68952e-16)
(1.65785 0.0478596 -5.68304e-16)
(1.65338 0.0471349 -5.55946e-16)
(1.64901 0.0464234 -5.41791e-16)
(1.64476 0.0457248 -5.0799e-16)
(1.64062 0.045039 -4.94198e-16)
(1.63659 0.0443657 -4.69274e-16)
(1.63266 0.0437048 -4.58632e-16)
(1.62883 0.0430562 -4.37127e-16)
(1.6251 0.0424194 -4.3192e-16)
(1.62147 0.0417945 -4.11042e-16)
(1.61793 0.0411812 -4.04144e-16)
(1.61449 0.0405792 -3.92844e-16)
(1.61113 0.0399883 -3.57205e-16)
(1.60786 0.0394084 -3.41394e-16)
(1.60468 0.0388393 -3.33876e-16)
(1.60159 0.0382807 -3.18803e-16)
(1.59857 0.0377324 -2.88745e-16)
(1.59563 0.0371943 -2.76173e-16)
(1.59277 0.0366661 -2.72591e-16)
(1.58999 0.0361477 -2.62351e-16)
(1.58728 0.0356388 -2.31461e-16)
(1.58464 0.0351392 -2.20133e-16)
(1.58207 0.0346488 -2.17115e-16)
(1.57957 0.0341673 -1.97915e-16)
(1.57713 0.0336946 -2.01974e-16)
(1.57476 0.0332306 -1.86877e-16)
(1.57245 0.0327749 -1.895e-16)
(1.57021 0.0323274 -1.81562e-16)
(1.56802 0.031888 -1.43018e-16)
(1.56589 0.0314565 -1.30535e-16)
(1.56382 0.0310326 -1.13149e-16)
(1.5618 0.0306163 -1.13324e-16)
(1.55983 0.0302074 -9.1565e-17)
(1.55792 0.0298057 -9.37603e-17)
(1.55606 0.029411 -8.14485e-17)
(1.55424 0.0290232 -8.68786e-17)
(1.55248 0.0286421 -7.7319e-17)
(1.55076 0.0282676 -3.90819e-17)
(1.54909 0.0278996 -3.06464e-17)
(1.54746 0.0275379 -3.07815e-17)
(1.54588 0.0271823 -2.16945e-17)
(1.54433 0.0268327 8.92751e-18)
(1.54283 0.026489 1.43464e-17)
(1.54137 0.026151 5.36468e-18)
(1.53994 0.0258187 1.08419e-17)
(1.53856 0.0254918 3.69735e-17)
(1.53721 0.0251703 4.17775e-17)
(1.53589 0.0248541 4.11746e-17)
(1.53461 0.024543 5.16489e-17)
(1.53337 0.0242369 4.15414e-17)
(1.53215 0.0239357 5.4294e-17)
(1.53097 0.0236393 5.14141e-17)
(1.52982 0.0233475 5.83428e-17)
(1.5287 0.0230604 9.31889e-17)
(1.52761 0.0227778 9.51659e-17)
(1.52655 0.0224995 1.06328e-16)
(1.52552 0.0222255 1.03586e-16)
(1.52451 0.0219558 1.19318e-16)
(1.52353 0.0216901 1.08748e-16)
(1.52258 0.0214285 1.21752e-16)
(1.52165 0.0211708 1.13731e-16)
(1.52074 0.0209169 1.18295e-16)
(1.51986 0.0206669 1.47959e-16)
(1.519 0.0204205 1.55414e-16)
(1.51816 0.0201777 1.51141e-16)
(1.51735 0.0199385 1.56458e-16)
(1.51656 0.0197028 1.7732e-16)
(1.51579 0.0194705 1.86276e-16)
(1.44941 0.0479118 -6.35768e-16)
(1.4467 0.0471402 -6.31344e-16)
(1.44407 0.0463831 -6.0837e-16)
(1.44152 0.0456403 -5.79811e-16)
(1.43906 0.0449117 -5.57844e-16)
(1.43668 0.0441969 -5.34398e-16)
(1.43437 0.0434959 -5.15696e-16)
(1.43214 0.0428083 -4.94821e-16)
(1.42998 0.042134 -4.9819e-16)
(1.4279 0.0414727 -4.71205e-16)
(1.42588 0.0408243 -4.74421e-16)
(1.42393 0.0401884 -4.52869e-16)
(1.42205 0.0395649 -4.22225e-16)
(1.42023 0.0389536 -4.02083e-16)
(1.41848 0.0383541 -3.83444e-16)
(1.41678 0.0377663 -3.6667e-16)
(1.41515 0.03719 -3.646e-16)
(1.41357 0.0366248 -3.35049e-16)
(1.41204 0.0360707 -3.40767e-16)
(1.41057 0.0355273 -3.14048e-16)
(1.40916 0.0349945 -3.10414e-16)
(1.40779 0.0344721 -2.8248e-16)
(1.40647 0.0339597 -2.64853e-16)
(1.40521 0.0334572 -2.4606e-16)
(1.40398 0.0329644 -2.60429e-16)
(1.40281 0.0324811 -2.35739e-16)
(1.40167 0.0320071 -2.49652e-16)
(1.40058 0.0315421 -2.31693e-16)
(1.39953 0.031086 -2.03493e-16)
(1.39853 0.0306386 -1.81587e-16)
(1.39756 0.0301996 -1.66325e-16)
(1.39662 0.0297689 -1.53709e-16)
(1.39573 0.0293464 -1.36703e-16)
(1.39487 0.0289317 -1.55146e-16)
(1.39404 0.0285248 -1.33959e-16)
(1.39325 0.0281254 -1.48918e-16)
(1.39249 0.0277334 -1.3055e-16)
(1.39176 0.0273486 -1.03693e-16)
(1.39106 0.0269709 -8.55723e-17)
(1.39039 0.0266 -7.32786e-17)
(1.38975 0.0262359 -6.19916e-17)
(1.38914 0.0258783 -6.76456e-17)
(1.38856 0.0255272 -4.40477e-17)
(1.388 0.0251823 -5.76318e-17)
(1.38746 0.0248435 -3.89307e-17)
(1.38695 0.0245107 -4.22324e-17)
(1.38646 0.0241838 -1.78882e-17)
(1.386 0.0238625 -3.7941e-18)
(1.38555 0.0235469 9.77958e-18)
(1.38513 0.0232367 -1.04377e-17)
(1.38473 0.0229318 5.94832e-18)
(1.38435 0.0226321 -9.29531e-18)
(1.38399 0.0223374 6.64817e-18)
(1.38365 0.0220478 3.22768e-17)
(1.38333 0.021763 4.39151e-17)
(1.38302 0.0214829 5.41087e-17)
(1.38273 0.0212075 6.40886e-17)
(1.38246 0.0209365 7.31256e-17)
(1.3822 0.0206701 5.08403e-17)
(1.38196 0.0204079 6.90001e-17)
(1.38173 0.02015 5.16e-17)
(1.38151 0.0198962 6.72801e-17)
(1.38131 0.0196465 8.81432e-17)
(1.38113 0.0194008 1.01446e-16)
(1.38096 0.0191589 1.09497e-16)
(1.3808 0.0189208 1.14235e-16)
(1.38065 0.0186865 1.04913e-16)
(1.38051 0.0184558 1.28302e-16)
(1.24239 0.0463934 -6.97415e-16)
(1.24152 0.0456068 -6.84729e-16)
(1.24071 0.0448353 -6.70959e-16)
(1.23994 0.0440788 -6.32885e-16)
(1.23921 0.0433371 -6.21542e-16)
(1.23854 0.0426101 -6.0435e-16)
(1.23791 0.0418974 -5.87714e-16)
(1.23733 0.041199 -5.72754e-16)
(1.23678 0.0405145 -5.62404e-16)
(1.23628 0.0398437 -5.49375e-16)
(1.23582 0.0391864 -5.39484e-16)
(1.2354 0.0385424 -5.28206e-16)
(1.23501 0.0379114 -4.86419e-16)
(1.23466 0.0372932 -4.77189e-16)
(1.23435 0.0366875 -4.64662e-16)
(1.23407 0.0360942 -4.54253e-16)
(1.23382 0.0355129 -4.17436e-16)
(1.23361 0.0349434 -4.10405e-16)
(1.23343 0.0343855 -4.04099e-16)
(1.23327 0.0338389 -3.95672e-16)
(1.23314 0.0333034 -3.60725e-16)
(1.23305 0.0327788 -3.55933e-16)
(1.23297 0.0322649 -3.49804e-16)
(1.23293 0.0317613 -3.40228e-16)
(1.2329 0.0312679 -3.34364e-16)
(1.23291 0.0307844 -3.24646e-16)
(1.23293 0.0303107 -3.22835e-16)
(1.23298 0.0298465 -3.16735e-16)
(1.23304 0.0293916 -2.75397e-16)
(1.23313 0.0289457 -2.67229e-16)
(1.23324 0.0285087 -2.6109e-16)
(1.23336 0.0280804 -2.53373e-16)
(1.23351 0.0276606 -2.42474e-16)
(1.23367 0.027249 -2.4027e-16)
(1.23385 0.0268455 -2.31815e-16)
(1.23404 0.0264499 -2.29323e-16)
(1.23425 0.026062 -2.24515e-16)
(1.23447 0.0256816 -1.8531e-16)
(1.23471 0.0253085 -1.81071e-16)
(1.23496 0.0249426 -1.74037e-16)
(1.23522 0.0245837 -1.695e-16)
(1.23549 0.0242316 -1.36347e-16)
(1.23578 0.0238862 -1.34932e-16)
(1.23608 0.0235473 -1.37869e-16)
(1.23639 0.0232147 -1.34913e-16)
(1.2367 0.0228883 -1.03364e-16)
(1.23703 0.022568 -1.05054e-16)
(1.23737 0.0222536 -1.00027e-16)
(1.23771 0.0219449 -9.3175e-17)
(1.23807 0.0216419 -9.37392e-17)
(1.23843 0.0213443 -8.88975e-17)
(1.2388 0.0210521 -9.05151e-17)
(1.23918 0.0207652 -8.84924e-17)
(1.23956 0.0204833 -5.21368e-17)
(1.23995 0.0202065 -5.09961e-17)
(1.24034 0.0199345 -4.80967e-17)
(1.24074 0.0196673 -4.34996e-17)
(1.24115 0.0194048 -3.55685e-17)
(1.24156 0.0191468 -3.69655e-17)
(1.24198 0.0188932 -3.06856e-17)
(1.2424 0.018644 -3.1524e-17)
(1.24282 0.018399 -2.98902e-17)
(1.24325 0.0181581 5.27069e-18)
(1.24368 0.0179213 5.94952e-18)
(1.24411 0.0176885 9.20984e-18)
(1.24455 0.0174595 9.42846e-18)
(1.24499 0.0172344 3.6545e-17)
(1.24543 0.0170129 3.54278e-17)
(1.04246 0.0433472 -7.18576e-16)
(1.04337 0.0425796 -7.03658e-16)
(1.0443 0.041827 -6.90762e-16)
(1.04525 0.0410894 -6.55847e-16)
(1.0462 0.0403666 -6.49384e-16)
(1.04717 0.0396583 -6.38194e-16)
(1.04815 0.0389646 -6.22707e-16)
(1.04913 0.038285 -6.09959e-16)
(1.05013 0.0376194 -5.96509e-16)
(1.05114 0.0369676 -5.86461e-16)
(1.05216 0.0363293 -5.72855e-16)
(1.05318 0.0357043 -5.62914e-16)
(1.05422 0.0350924 -5.25657e-16)
(1.05526 0.0344934 -5.19077e-16)
(1.05631 0.0339069 -5.09904e-16)
(1.05736 0.0333327 -5.02291e-16)
(1.05842 0.0327707 -4.64461e-16)
(1.05948 0.0322205 -4.60506e-16)
(1.06055 0.0316819 -4.53358e-16)
(1.06163 0.0311547 -4.48245e-16)
(1.0627 0.0306386 -4.11875e-16)
(1.06378 0.0301334 -4.11534e-16)
(1.06487 0.0296389 -4.05083e-16)
)
;

boundaryField
{
    inlet
    {
        type            uniformFixedValue;
        uniformValue    constant (1 0 0);
        value           nonuniform 0();
    }
    outlet
    {
        type            pressureInletOutletVelocity;
        value           nonuniform 0();
    }
    wall
    {
        type            fixedValue;
        value           nonuniform 0();
    }
    wedge1
    {
        type            wedge;
    }
    wedge2
    {
        type            wedge;
    }
    axis
    {
        type            empty;
    }
    procBoundary16to10
    {
        type            processor;
        value           nonuniform List<vector> 
68
(
(2.10669 0.0323522 5.4068e-17)
(2.10077 0.0320016 6.19032e-17)
(2.09495 0.0316561 8.04546e-17)
(2.08923 0.0313156 7.93079e-17)
(2.08361 0.03098 8.20612e-17)
(2.07809 0.0306492 9.73265e-17)
(2.07266 0.0303231 9.41378e-17)
(2.06732 0.0300016 1.05612e-16)
(2.06208 0.0296845 1.04503e-16)
(2.05692 0.0293719 1.09249e-16)
(2.05185 0.0290636 1.44214e-16)
(2.04686 0.0287595 1.45147e-16)
(2.04196 0.0284596 1.56558e-16)
(2.03714 0.0281637 1.61794e-16)
(2.0324 0.0278717 1.83223e-16)
(2.02773 0.0275836 1.82716e-16)
(2.02315 0.0272993 1.94111e-16)
(2.01864 0.0270187 1.90286e-16)
(2.01421 0.0267418 1.92824e-16)
(2.00985 0.0264683 2.24864e-16)
(2.00556 0.0261984 2.24986e-16)
(2.00134 0.0259318 2.26236e-16)
(1.99719 0.0256686 2.39053e-16)
(1.9931 0.0254086 2.56778e-16)
(1.98908 0.0251519 2.59451e-16)
(1.98513 0.0248982 2.50246e-16)
(1.98124 0.0246476 2.55362e-16)
(1.97741 0.0243999 2.75895e-16)
(1.97365 0.0241552 2.73108e-16)
(1.96994 0.0239134 2.70555e-16)
(1.96629 0.0236743 2.85346e-16)
(1.9627 0.023438 2.79458e-16)
(1.95917 0.0232044 2.89551e-16)
(1.95569 0.0229734 2.81755e-16)
(1.95227 0.0227451 2.81462e-16)
(1.9489 0.0225192 3.1424e-16)
(1.94558 0.0222959 3.08575e-16)
(1.94231 0.0220749 3.16999e-16)
(1.9391 0.0218564 3.26717e-16)
(1.93593 0.0216402 3.35475e-16)
(1.93281 0.0214263 3.33704e-16)
(1.92974 0.0212147 3.46369e-16)
(1.92672 0.0210053 3.39691e-16)
(1.92374 0.0207981 3.37954e-16)
(1.92081 0.0205931 3.67224e-16)
(1.91792 0.0203901 3.66043e-16)
(1.91507 0.0201893 3.661e-16)
(1.91227 0.0199904 3.76959e-16)
(1.9095 0.0197936 3.89719e-16)
(2.05514 0.0434913 -2.66638e-16)
(2.04787 0.0429311 -2.72932e-16)
(2.04075 0.0423799 -2.47306e-16)
(2.03376 0.0418378 -2.46208e-16)
(2.02692 0.0413044 -2.24058e-16)
(2.02021 0.0407798 -1.96841e-16)
(2.01363 0.0402638 -1.87391e-16)
(2.00718 0.0397563 -1.59249e-16)
(2.00087 0.0392571 -1.73965e-16)
(1.99467 0.038766 -1.44582e-16)
(1.9886 0.038283 -1.58229e-16)
(1.98266 0.0378079 -1.32247e-16)
(1.97682 0.0373406 -1.37477e-16)
(1.97111 0.0368809 -1.04129e-16)
(1.9655 0.0364286 -9.57034e-17)
(1.96001 0.0359837 -6.59692e-17)
(1.95462 0.0355461 -1.02958e-16)
(1.94934 0.0351154 -5.66144e-17)
(1.94934 0.0351154 -5.66144e-17)
)
;
    }
    procBoundary16to11
    {
        type            processor;
        value           uniform (1.78074 0.0200521 3.29153e-16);
    }
    procBoundary16to15
    {
        type            processor;
        value           nonuniform List<vector> 3((1.86788 0.0469834 -4.73826e-16) (1.66245 0.0485975 -5.89235e-16) (1.45221 0.048698 -6.65488e-16));
    }
    procBoundary16to17
    {
        type            processor;
        value           nonuniform List<vector> 4((1.64837 0.0197869 2.29736e-16) (1.51503 0.0192415 1.76553e-16) (1.38038 0.0182286 1.1341e-16) (1.24588 0.016795 3.33689e-17));
    }
    procBoundary16to21
    {
        type            processor;
        value           nonuniform List<vector> 2((1.24331 0.0471954 -7.1803e-16) (1.04156 0.0441302 -7.33828e-16));
    }
    procBoundary16to22
    {
        type            processor;
        value           nonuniform List<vector> 
69
(
(1.06595 0.0291547 -3.98164e-16)
(1.06704 0.0286808 -3.88924e-16)
(1.06813 0.0282167 -3.83413e-16)
(1.06922 0.0277624 -3.76006e-16)
(1.07031 0.0273176 -3.71889e-16)
(1.0714 0.0268821 -3.34861e-16)
(1.07249 0.0264556 -3.30879e-16)
(1.07358 0.026038 -3.2685e-16)
(1.07467 0.025629 -3.20444e-16)
(1.07576 0.0252284 -3.1326e-16)
(1.07685 0.0248361 -3.04157e-16)
(1.07794 0.0244518 -2.97711e-16)
(1.07902 0.0240753 -2.91533e-16)
(1.08011 0.0237065 -2.88138e-16)
(1.08119 0.0233452 -2.5157e-16)
(1.08227 0.0229911 -2.52143e-16)
(1.08334 0.0226441 -2.46064e-16)
(1.08442 0.0223041 -2.43382e-16)
(1.08549 0.0219708 -2.08047e-16)
(1.08656 0.0216441 -2.08399e-16)
(1.08762 0.0213238 -2.07119e-16)
(1.08868 0.0210098 -2.06294e-16)
(1.08973 0.0207019 -1.74645e-16)
(1.09079 0.0204 -1.77075e-16)
(1.09183 0.0201039 -1.73447e-16)
(1.09288 0.0198135 -1.71287e-16)
(1.09392 0.0195286 -1.66346e-16)
(1.09495 0.0192491 -1.63891e-16)
(1.09598 0.0189749 -1.59852e-16)
(1.097 0.0187058 -1.58365e-16)
(1.09802 0.0184418 -1.24297e-16)
(1.09904 0.0181826 -1.2666e-16)
(1.10005 0.0179283 -1.24312e-16)
(1.10105 0.0176786 -1.20157e-16)
(1.10205 0.0174334 -1.16108e-16)
(1.10304 0.0171928 -1.10536e-16)
(1.10403 0.0169564 -1.0556e-16)
(1.10501 0.0167243 -9.83232e-17)
(1.10599 0.0164963 -9.9627e-17)
(1.10696 0.0162724 -7.01896e-17)
(1.10793 0.0160524 -7.22363e-17)
(1.10889 0.0158363 -6.87454e-17)
(1.10984 0.0156239 -6.90326e-17)
(1.11079 0.0154152 -3.68576e-17)
(1.11173 0.0152101 -4.01608e-17)
(0.916902 0.0404508 -7.12658e-16)
(0.918883 0.0397171 -6.95385e-16)
(0.920853 0.0389979 -6.85812e-16)
(0.922814 0.0382933 -6.65266e-16)
(0.924764 0.0376029 -6.52665e-16)
(0.926703 0.0369267 -6.40801e-16)
(0.928632 0.0362645 -6.23162e-16)
(0.930551 0.0356161 -6.14109e-16)
(0.932458 0.0349812 -5.97179e-16)
(0.934355 0.0343598 -5.90954e-16)
(0.936241 0.0337514 -5.74621e-16)
(0.938116 0.033156 -5.68993e-16)
(0.93998 0.0325732 -5.4818e-16)
(0.941832 0.0320029 -5.35485e-16)
(0.943673 0.0314449 -5.20309e-16)
(0.945503 0.0308988 -5.16309e-16)
(0.947321 0.0303644 -4.95944e-16)
(0.949127 0.0298416 -4.8653e-16)
(0.950922 0.02933 -4.7158e-16)
(0.952705 0.0288295 -4.696e-16)
(0.954475 0.0283397 -4.48591e-16)
(0.956234 0.0278605 -4.38758e-16)
(1.06595 0.0291547 -3.98164e-16)
(0.957981 0.0273916 -4.25978e-16)
)
;
    }
}


// ************************************************************************* //
