/*--------------------------------*- C++ -*----------------------------------*\
  =========                 |
  \\      /  F ield         | OpenFOAM: The Open Source CFD Toolbox
   \\    /   O peration     | Website:  https://openfoam.org
    \\  /    A nd           | Version:  7
     \\/     M anipulation  |
\*---------------------------------------------------------------------------*/
FoamFile
{
    version     2.0;
    format      ascii;
    class       volVectorField;
    location    "37.000194";
    object      U;
}
// * * * * * * * * * * * * * * * * * * * * * * * * * * * * * * * * * * * * * //

dimensions      [0 1 -1 0 0 0 0];

internalField   nonuniform List<vector> 
5800
(
(0.0154743 -0.00324999 -4.19666e-22)
(0.0215752 -0.00970381 -1.289e-20)
(0.033752 -0.0160173 1.91098e-20)
(0.0519531 -0.0220916 6.14312e-21)
(0.0760964 -0.0278206 -1.62691e-20)
(0.0227749 -0.00289919 2.39111e-21)
(0.0274732 -0.002727 2.19517e-21)
(0.0320124 -0.0026244 -4.08798e-21)
(0.0365254 -0.00256124 1.93461e-21)
(0.0410526 -0.00252579 -1.11878e-21)
(0.0456318 -0.00251255 -3.80049e-22)
(0.0503007 -0.00251647 2.17274e-21)
(0.0550902 -0.00253332 -3.13153e-21)
(0.0600248 -0.00255987 1.36619e-21)
(0.0651251 -0.00259356 1.24708e-21)
(0.0704083 -0.00263231 -2.5582e-21)
(0.0758885 -0.00267435 -3.39594e-23)
(0.081577 -0.0027182 2.04764e-21)
(0.0874829 -0.00276257 -1.61038e-22)
(0.0936126 -0.00280637 -8.30676e-22)
(0.0999708 -0.00284864 7.25142e-22)
(0.10656 -0.00288857 -3.4013e-22)
(0.113381 -0.00292549 4.54024e-22)
(0.120433 -0.00295884 -3.33926e-22)
(0.127713 -0.00298817 -2.19317e-22)
(0.135218 -0.00301314 9.30712e-22)
(0.142942 -0.00303348 -2.7965e-22)
(0.150879 -0.00304904 -6.02451e-22)
(0.159022 -0.00305971 3.91831e-22)
(0.167363 -0.00306547 1.21694e-22)
(0.175893 -0.00306635 -4.63686e-22)
(0.184604 -0.00306242 5.2658e-22)
(0.193484 -0.0030538 -4.24936e-22)
(0.202524 -0.00304063 -2.85327e-22)
(0.211714 -0.00302309 8.19715e-22)
(0.221042 -0.00300137 -5.60803e-22)
(0.230498 -0.00297569 -9.0622e-23)
(0.240071 -0.00294627 1.1336e-22)
(0.249749 -0.00291336 6.31508e-24)
(0.259522 -0.00287718 2.70877e-22)
(0.269378 -0.00283799 -3.48233e-22)
(0.279306 -0.00279603 2.88547e-22)
(0.289296 -0.00275154 -3.16813e-24)
(0.299338 -0.00270478 -1.69106e-23)
(0.309419 -0.00265597 -2.95812e-23)
(0.319532 -0.00260535 1.78713e-22)
(0.329665 -0.00255315 -7.16686e-24)
(0.339809 -0.00249959 -7.05933e-23)
(0.349955 -0.00244489 -3.11693e-23)
(0.360094 -0.00238924 1.72785e-23)
(0.370217 -0.00233284 -8.85915e-23)
(0.380316 -0.00227589 1.09447e-22)
(0.390383 -0.00221855 -2.76782e-23)
(0.400412 -0.00216099 5.61421e-23)
(0.410394 -0.00210338 -1.83925e-23)
(0.420324 -0.00204586 1.58436e-24)
(0.430195 -0.00198857 6.61341e-24)
(0.440001 -0.00193164 -2.98791e-23)
(0.449737 -0.00187519 3.28182e-23)
(0.459399 -0.00181933 -2.78022e-23)
(0.468981 -0.00176417 2.43099e-24)
(0.47848 -0.00170979 1.62523e-23)
(0.487892 -0.00165629 -7.26891e-25)
(0.497213 -0.00160375 -5.96734e-24)
(0.506445 -0.00155221 -2.9592e-24)
(0.515574 -0.00150177 -1.33867e-24)
(0.524623 -0.00145238 3.24077e-24)
(0.533535 -0.0014043 -2.49815e-24)
(0.542433 -0.00135686 -1.46507e-24)
(0.551037 -0.00131177 2.87062e-25)
(0.559957 -0.00126433 -2.5572e-25)
(0.567869 -0.00122571 -5.19955e-26)
(0.577574 -0.00116757 8.87721e-25)
(0.583187 -0.00115409 3.03851e-25)
(0.5968 -0.0010416 -9.22442e-25)
(0.0290028 -0.00865291 -9.21538e-22)
(0.0335938 -0.00814522 -1.56794e-21)
(0.0380397 -0.00784335 -1.44608e-21)
(0.0424919 -0.00765673 2.34053e-22)
(0.0469674 -0.00755203 -9.86266e-22)
(0.051498 -0.00751341 8.06521e-21)
(0.0561217 -0.00752589 -5.852e-21)
(0.0608683 -0.00757691 4.20736e-21)
(0.0657615 -0.00765686 -3.21569e-21)
(0.0708212 -0.00775814 -2.09637e-21)
(0.076064 -0.0078745 2.11856e-21)
(0.0815036 -0.00800066 2.03754e-21)
(0.0871511 -0.00813216 -4.53534e-21)
(0.0930148 -0.00826517 1.03798e-21)
(0.0991013 -0.00839637 -1.78762e-21)
(0.105415 -0.00852295 1.86305e-21)
(0.111957 -0.00864247 -4.29248e-22)
(0.118729 -0.00875292 3.29206e-21)
(0.12573 -0.00885264 -1.37929e-21)
(0.132956 -0.00894029 4.351e-22)
(0.140404 -0.00901485 6.79962e-22)
(0.148069 -0.00907558 -2.16197e-21)
(0.155945 -0.00912197 2.65192e-22)
(0.164024 -0.00915377 -3.16926e-22)
(0.172298 -0.00917088 9.42102e-24)
(0.180759 -0.00917339 2.3945e-22)
(0.189398 -0.00916154 9.21925e-22)
(0.198205 -0.00913565 -3.26031e-22)
(0.207169 -0.00909619 -6.80856e-22)
(0.216282 -0.00904366 1.23156e-21)
(0.225531 -0.00897867 -2.03366e-21)
(0.234906 -0.00890184 5.11397e-22)
(0.244396 -0.00881385 1.62881e-21)
(0.253991 -0.00871541 -1.07891e-21)
(0.263679 -0.00860723 -4.12933e-22)
(0.27345 -0.00849005 6.15074e-22)
(0.283292 -0.00836459 -9.96695e-22)
(0.293196 -0.00823159 1.38819e-21)
(0.30315 -0.00809178 -5.79158e-22)
(0.313145 -0.00794586 -1.57473e-22)
(0.32317 -0.00779454 1.20628e-22)
(0.333216 -0.00763849 -2.22674e-24)
(0.343274 -0.00747838 5.57387e-23)
(0.353333 -0.00731483 -2.09498e-23)
(0.363386 -0.00714847 1.25324e-22)
(0.373423 -0.00697987 -7.53052e-23)
(0.383438 -0.00680959 1.281e-22)
(0.393421 -0.00663816 -1.77668e-22)
(0.403367 -0.00646609 -3.96032e-23)
(0.413267 -0.00629385 -5.83045e-23)
(0.423115 -0.00612187 1.61502e-22)
(0.432906 -0.00595057 -1.85462e-22)
(0.442633 -0.00578035 -4.65726e-23)
(0.452291 -0.00561157 5.17204e-23)
(0.461876 -0.00544455 -9.52879e-24)
(0.471383 -0.0052796 -1.34451e-23)
(0.480808 -0.00511701 -5.97934e-24)
(0.490147 -0.00495703 5.78146e-24)
(0.499397 -0.0047999 -2.73638e-23)
(0.508558 -0.00464579 1.94548e-23)
(0.517619 -0.00449494 2.79485e-24)
(0.526601 -0.00434725 -8.28021e-25)
(0.535447 -0.00420346 5.70271e-24)
(0.544281 -0.00406159 -3.46756e-24)
(0.552823 -0.0039268 -1.09061e-25)
(0.561681 -0.0037849 -7.13551e-26)
(0.569535 -0.00366949 -4.9799e-25)
(0.579178 -0.0034956 1.4092e-24)
(0.584747 -0.00345542 8.7192e-25)
(0.59828 -0.00311948 7.97667e-24)
(0.0414252 -0.0142714 3.74741e-23)
(0.0458015 -0.0134544 4.7713e-21)
(0.0500593 -0.012971 8.88724e-22)
(0.0543878 -0.0126697 -9.25494e-21)
(0.0587575 -0.012501 -5.549e-21)
(0.0631892 -0.0124405 5.11231e-21)
(0.0677205 -0.0124638 1.15299e-20)
(0.0723798 -0.0125506 -6.3853e-21)
(0.0771889 -0.012685 -2.32751e-21)
(0.0821662 -0.0128546 1.3047e-21)
(0.0873274 -0.0130489 2.79615e-21)
(0.0926851 -0.0132594 -3.79652e-21)
(0.0982495 -0.0134785 4.11405e-21)
(0.104029 -0.0136998 -3.55765e-21)
(0.110028 -0.0139179 6.79299e-21)
(0.11625 -0.0141281 -6.45446e-21)
(0.122698 -0.0143264 1.07038e-21)
(0.129372 -0.0145095 -8.2705e-21)
(0.136269 -0.0146746 3.09727e-21)
(0.143388 -0.0148196 -2.04906e-21)
(0.150723 -0.0149428 9.94332e-22)
(0.158269 -0.015043 7.18944e-21)
(0.166021 -0.0151195 -3.79743e-21)
(0.173972 -0.0151717 1.22765e-21)
(0.182113 -0.0151997 -3.21931e-21)
(0.190435 -0.0152035 2.71196e-21)
(0.198931 -0.0151835 -3.5731e-21)
(0.207591 -0.0151404 1.52917e-21)
(0.216404 -0.0150748 -3.85944e-22)
(0.225361 -0.0149876 1.08937e-21)
(0.234452 -0.0148798 1.0179e-21)
(0.243666 -0.0147525 1.28095e-21)
(0.252993 -0.0146067 -1.11869e-21)
(0.262421 -0.0144437 2.01132e-22)
(0.271941 -0.0142646 -5.33977e-22)
(0.281542 -0.0140706 9.95125e-22)
(0.291214 -0.0138629 -5.42554e-22)
(0.300945 -0.0136428 2.3301e-22)
(0.310727 -0.0134114 -1.06262e-21)
(0.320549 -0.0131699 2.37099e-22)
(0.330401 -0.0129194 3.77764e-22)
(0.340274 -0.0126612 -6.7709e-22)
(0.350159 -0.0123962 5.06865e-22)
(0.360047 -0.0121255 5.33226e-22)
(0.369929 -0.0118502 -3.53364e-22)
(0.379797 -0.0115711 -9.84294e-23)
(0.389643 -0.0112893 -2.89277e-22)
(0.399459 -0.0110056 6.46538e-23)
(0.40924 -0.0107207 8.74607e-23)
(0.418977 -0.0104356 1.77889e-22)
(0.428664 -0.0101509 -1.94073e-22)
(0.438295 -0.00986737 1.20745e-22)
(0.447865 -0.00958557 7.66282e-23)
(0.457369 -0.00930613 -8.07862e-23)
(0.466802 -0.0090296 5.1601e-24)
(0.476159 -0.0087565 5.94097e-23)
(0.485437 -0.00848728 -2.16266e-23)
(0.494632 -0.00822239 1.33398e-24)
(0.50374 -0.00796219 2.99696e-23)
(0.512763 -0.00770699 -5.39873e-25)
(0.521688 -0.00745719 3.01137e-23)
(0.530536 -0.0072126 -2.15895e-23)
(0.539252 -0.00697451 -6.16802e-24)
(0.547959 -0.00673955 1.26603e-23)
(0.556376 -0.00651639 -3.50098e-24)
(0.565112 -0.00628135 8.77438e-25)
(0.572852 -0.00609047 3.83503e-25)
(0.582371 -0.00580241 -5.86035e-24)
(0.587854 -0.00573631 -2.19548e-24)
(0.601226 -0.00518149 -1.37673e-23)
(0.059974 -0.0196598 2.31892e-23)
(0.0640287 -0.0185758 -1.81865e-20)
(0.0680006 -0.0179407 -3.83632e-21)
(0.072138 -0.0175402 1.9905e-20)
(0.0763441 -0.0173168 -1.40049e-20)
(0.0806223 -0.017241 2.3949e-21)
(0.0850109 -0.0172797 8.20995e-21)
(0.0895357 -0.0174053 -6.84444e-21)
(0.0942155 -0.0175963 -6.28975e-21)
(0.0990666 -0.0178357 1.0347e-20)
(0.104103 -0.0181091 3.1571e-21)
(0.109336 -0.0184043 -3.80168e-21)
(0.114774 -0.018711 -3.69375e-21)
(0.120424 -0.0190203 2.71197e-22)
(0.12629 -0.0193245 7.88125e-21)
(0.132375 -0.0196173 -4.00796e-21)
(0.13868 -0.019893 -4.39076e-22)
(0.145204 -0.0201472 -4.04233e-21)
(0.151946 -0.0203762 -2.16283e-22)
(0.1589 -0.0205769 1.59475e-21)
(0.166065 -0.0207473 3.70448e-21)
(0.173433 -0.0208857 -4.02356e-21)
(0.180999 -0.020991 3.29133e-21)
(0.188756 -0.0210627 -1.85169e-21)
(0.196696 -0.0211008 -8.21917e-22)
(0.204811 -0.0211054 -3.55707e-22)
(0.213092 -0.0210771 2.02655e-21)
(0.221531 -0.0210168 2.09497e-21)
(0.230118 -0.0209254 -4.02585e-21)
(0.238844 -0.0208042 -7.72261e-22)
(0.247699 -0.0206546 3.53927e-21)
(0.256672 -0.020478 -1.18487e-21)
(0.265754 -0.0202758 -2.00266e-21)
(0.274935 -0.0200498 8.63986e-22)
(0.284205 -0.0198016 -1.08675e-21)
(0.293553 -0.0195328 1.10326e-21)
(0.30297 -0.0192451 -5.94822e-22)
(0.312446 -0.0189401 2.21922e-21)
(0.321971 -0.0186196 2.21593e-22)
(0.331536 -0.018285 -1.43246e-22)
(0.341131 -0.0179381 -6.68259e-22)
(0.350748 -0.0175804 -9.81057e-22)
(0.360377 -0.0172133 -2.20667e-22)
(0.37001 -0.0168384 1.0442e-21)
(0.379639 -0.016457 1.12335e-22)
(0.389256 -0.0160704 -3.90499e-22)
(0.398853 -0.0156799 9.11319e-23)
(0.408422 -0.0152868 5.45261e-23)
(0.417958 -0.0148921 3.20802e-22)
(0.427453 -0.014497 -1.75386e-22)
(0.436902 -0.0141025 -1.0686e-22)
(0.446298 -0.0137095 1.87411e-23)
(0.455636 -0.013319 2.84666e-22)
(0.464911 -0.0129317 -1.52922e-22)
(0.474118 -0.0125484 -1.5823e-22)
(0.483254 -0.0121698 5.27447e-23)
(0.492315 -0.0117966 1.77726e-23)
(0.501296 -0.0114293 4.36749e-24)
(0.510195 -0.0110686 -7.95985e-23)
(0.519012 -0.0107147 3.71003e-23)
(0.527735 -0.0103684 -8.09281e-24)
(0.536387 -0.0100292 8.29259e-24)
(0.54491 -0.00969911 -1.4535e-23)
(0.553428 -0.00937327 -1.18345e-23)
(0.561662 -0.00906397 4.89748e-24)
(0.570217 -0.00873794 -7.54528e-25)
(0.577788 -0.00847377 -1.99919e-24)
(0.587123 -0.00807414 5.90926e-24)
(0.592479 -0.00798341 1.04823e-24)
(0.605613 -0.00721721 2.24408e-23)
(0.0845435 -0.0247154 1.92374e-20)
(0.088171 -0.0234225 -7.14445e-21)
(0.0917553 -0.0226779 4.29871e-21)
(0.0956286 -0.022201 -2.95139e-20)
(0.0996072 -0.0219376 1.37226e-20)
(0.103673 -0.0218569 -1.7583e-20)
(0.107864 -0.0219186 1.94754e-20)
(0.112203 -0.0220885 -1.77665e-20)
(0.116705 -0.0223401 -4.10856e-21)
(0.121383 -0.0226521 3.49507e-20)
(0.126249 -0.0230064 -1.91048e-20)
(0.131312 -0.0233874 1.5705e-20)
(0.136578 -0.023782 -3.57649e-21)
(0.142052 -0.0241789 -3.28148e-22)
(0.147739 -0.0245684 -9.17039e-21)
(0.153637 -0.0249424 -3.80992e-21)
(0.159749 -0.0252939 -1.72157e-21)
(0.166071 -0.0256173 4.44229e-21)
(0.172601 -0.0259081 -1.05677e-20)
(0.179335 -0.0261627 5.23449e-21)
(0.186269 -0.0263783 -2.70906e-21)
(0.193398 -0.026553 1.41994e-21)
(0.200714 -0.0266857 2.75138e-21)
(0.208212 -0.0267758 5.15159e-21)
(0.215883 -0.0268231 -3.28034e-21)
(0.223721 -0.0268281 -2.67166e-21)
(0.231717 -0.0267914 2.08711e-21)
(0.239862 -0.0267142 3.20052e-22)
(0.248149 -0.0265978 1.99244e-21)
(0.256567 -0.0264437 -1.6292e-21)
(0.265109 -0.0262536 -2.01054e-21)
(0.273764 -0.0260294 3.17625e-21)
(0.282523 -0.025773 -2.64093e-21)
(0.291377 -0.0254864 1.75464e-21)
(0.300316 -0.0251717 6.13938e-22)
(0.309331 -0.0248309 -1.04681e-21)
(0.318414 -0.0244663 -5.91036e-22)
(0.327553 -0.0240798 7.67958e-22)
(0.336741 -0.0236735 -1.2872e-21)
(0.345968 -0.0232496 3.4254e-22)
(0.355226 -0.0228099 -4.15713e-22)
(0.364506 -0.0223566 1.50284e-22)
(0.3738 -0.0218913 -1.32832e-22)
(0.383099 -0.0214161 6.1108e-22)
(0.392396 -0.0209326 -5.67862e-22)
(0.401683 -0.0204425 3.65155e-22)
(0.410953 -0.0199475 -6.77277e-22)
(0.420199 -0.019449 2.36353e-22)
(0.429415 -0.0189486 6.03024e-22)
(0.438593 -0.0184475 -4.61682e-22)
(0.447729 -0.0179472 -2.82992e-22)
(0.456817 -0.0174487 3.51859e-22)
(0.465851 -0.0169533 -2.49667e-22)
(0.474827 -0.0164619 1.24697e-22)
(0.483741 -0.0159756 1.92472e-23)
(0.492587 -0.0154953 2.78928e-23)
(0.501363 -0.0150217 -1.45682e-22)
(0.510065 -0.0145556 4.67635e-23)
(0.51869 -0.0140978 -2.05582e-24)
(0.527238 -0.0136487 5.40096e-23)
(0.535698 -0.013209 -8.07259e-23)
(0.544092 -0.0127785 2.97591e-23)
(0.552363 -0.0123595 8.18983e-24)
(0.560635 -0.0119459 6.03193e-24)
(0.568629 -0.0115535 -5.83149e-25)
(0.576947 -0.0111394 2.17558e-24)
(0.584296 -0.010805 -1.1124e-24)
(0.593392 -0.0102973 4.82166e-24)
(0.59858 -0.0101837 -4.9676e-24)
(0.611404 -0.00921639 -5.54899e-23)
(0.114986 -0.0293255 -8.8483e-21)
(0.118083 -0.0278965 7.78908e-21)
(0.121174 -0.0270979 5.16103e-21)
(0.124704 -0.0265761 -3.40829e-20)
(0.128385 -0.0262937 3.47865e-20)
(0.132173 -0.0262241 -4.0353e-22)
(0.136106 -0.0263205 -2.2832e-20)
(0.140204 -0.0265433 1.40257e-20)
(0.144476 -0.026862 4.00595e-21)
(0.148932 -0.0272514 4.07585e-21)
(0.153578 -0.0276897 -1.60443e-20)
(0.158423 -0.0281585 -1.36234e-20)
(0.163469 -0.0286418 4.93419e-21)
(0.168719 -0.0291262 1.2389e-20)
(0.174175 -0.0296001 -7.29183e-21)
(0.179836 -0.0300538 1.9369e-20)
(0.185701 -0.0304792 -2.08042e-20)
(0.191766 -0.0308697 2.22708e-20)
(0.198028 -0.03122 -6.2171e-21)
(0.204483 -0.031526 -1.49638e-20)
(0.211126 -0.0317848 1.26087e-20)
(0.217951 -0.0319941 -1.31792e-21)
(0.224953 -0.0321526 -1.97218e-21)
(0.232125 -0.0322599 5.46186e-21)
(0.23946 -0.0323158 -3.95648e-21)
(0.246951 -0.0323209 -8.7263e-21)
(0.25459 -0.0322761 6.9856e-21)
(0.26237 -0.0321828 -1.61572e-21)
(0.270282 -0.0320426 -1.37317e-21)
(0.278319 -0.0318572 2.67704e-21)
(0.286472 -0.0316287 5.00326e-21)
(0.294733 -0.0313594 -1.57788e-21)
(0.303093 -0.0310516 -8.78542e-21)
(0.311544 -0.0307076 6.41772e-21)
(0.320076 -0.03033 -3.08873e-21)
(0.328681 -0.0299211 9.80882e-22)
(0.337351 -0.0294836 2.23374e-21)
(0.346077 -0.0290199 -8.70833e-22)
(0.354851 -0.0285324 -3.79287e-23)
(0.363664 -0.0280237 5.12009e-22)
(0.372508 -0.0274961 -1.56514e-21)
(0.381375 -0.026952 -6.89266e-22)
(0.390258 -0.0263936 1.66615e-21)
(0.399148 -0.0258231 3.89167e-22)
(0.408039 -0.0252427 -1.03177e-21)
(0.416924 -0.0246543 3.71066e-22)
(0.425794 -0.0240598 -2.66611e-22)
(0.434645 -0.0234612 -6.28098e-22)
(0.44347 -0.0228601 -4.80041e-23)
(0.452262 -0.0222582 7.05387e-22)
(0.461017 -0.021657 2.98808e-22)
(0.469729 -0.0210581 2.9342e-22)
(0.478392 -0.0204627 -1.60464e-22)
(0.487003 -0.0198721 2.74335e-22)
(0.495557 -0.0192875 -3.54987e-22)
(0.50405 -0.01871 1.77233e-22)
(0.512479 -0.0181406 -1.54219e-22)
(0.520841 -0.0175801 8.75481e-24)
(0.529132 -0.0170295 9.19583e-23)
(0.537353 -0.0164894 -7.9838e-23)
(0.545492 -0.0159607 4.09872e-23)
(0.553572 -0.0154428 -2.84311e-23)
(0.561535 -0.0149389 -4.24104e-23)
(0.569506 -0.0144413 -1.4235e-23)
(0.577208 -0.0139696 1.96133e-24)
(0.585236 -0.0134713 -2.42798e-25)
(0.592317 -0.0130703 -1.85513e-24)
(0.60112 -0.0124592 5.60575e-24)
(0.606105 -0.0123247 3.03053e-24)
(0.618547 -0.0111691 2.67859e-23)
(0.151105 -0.0333673 2.96193e-20)
(0.153571 -0.0318887 -2.22344e-20)
(0.156062 -0.031105 3.62968e-20)
(0.159163 -0.0305794 -1.36189e-20)
(0.162472 -0.030307 1.05942e-20)
(0.165912 -0.030271 -2.73168e-20)
(0.169523 -0.0304195 4.37515e-21)
(0.17332 -0.0307083 -9.2309e-22)
(0.177306 -0.0311039 5.98878e-21)
(0.181486 -0.0315778 1.59673e-20)
(0.185861 -0.0321052 -1.29327e-20)
(0.190436 -0.0326649 8.81943e-21)
(0.195211 -0.0332386 5.03946e-21)
(0.200185 -0.0338108 1.7475e-21)
(0.205358 -0.0343683 -1.49035e-20)
(0.210726 -0.0349002 8.21839e-21)
(0.216287 -0.0353974 -1.19042e-20)
(0.222037 -0.0358526 1.47782e-21)
(0.227972 -0.0362601 -2.45437e-22)
(0.234086 -0.0366153 1.43627e-20)
(0.240374 -0.0369151 -1.22115e-20)
(0.246832 -0.0371572 -1.56263e-21)
(0.253453 -0.0373404 -2.61328e-21)
(0.260232 -0.037464 1.16621e-20)
(0.267162 -0.0375282 -4.21211e-21)
(0.274236 -0.0375338 -3.85446e-21)
(0.281448 -0.0374817 -2.23492e-21)
(0.288791 -0.0373737 8.58461e-21)
(0.296258 -0.0372115 -3.1089e-21)
(0.303841 -0.0369972 -3.93593e-21)
(0.311534 -0.0367334 -3.10543e-21)
(0.319328 -0.0364224 8.6662e-21)
(0.327215 -0.036067 -2.36133e-21)
(0.335189 -0.0356698 -8.0411e-22)
(0.343241 -0.0352337 -1.71698e-21)
(0.351363 -0.0347616 -1.33967e-21)
(0.359548 -0.0342563 1.37872e-21)
(0.367788 -0.0337207 1.23741e-21)
(0.376076 -0.0331576 -1.32792e-21)
(0.384403 -0.0325699 -1.99592e-21)
(0.392762 -0.0319603 2.60563e-21)
(0.401147 -0.0313314 -3.99027e-22)
(0.409548 -0.0306859 8.94159e-25)
(0.417961 -0.0300264 -5.18645e-22)
(0.426378 -0.0293551 8.43763e-22)
(0.434791 -0.0286746 -1.01849e-21)
(0.443196 -0.0279869 1.17705e-21)
(0.451586 -0.0272943 -3.47594e-23)
(0.459955 -0.0265986 -1.00763e-22)
(0.468297 -0.025902 -3.05507e-22)
(0.476607 -0.025206 -3.59974e-22)
(0.48488 -0.0245125 1.25117e-22)
(0.493112 -0.023823 2.91411e-22)
(0.501298 -0.0231389 -6.55396e-22)
(0.509434 -0.0224617 4.51737e-22)
(0.517516 -0.0217926 -2.37855e-22)
(0.525541 -0.0211327 8.71399e-23)
(0.533506 -0.0204832 4.84093e-23)
(0.541408 -0.0198451 -7.99216e-23)
(0.549248 -0.0192189 -1.57131e-23)
(0.557013 -0.018606 4.51428e-23)
(0.564728 -0.0180056 -1.48029e-23)
(0.572333 -0.0174215 1.85552e-23)
(0.579954 -0.0168443 3.78797e-23)
(0.587316 -0.016298 3.05279e-24)
(0.595008 -0.0157198 1.32297e-24)
(0.601776 -0.0152567 6.35604e-25)
(0.610237 -0.0145476 -3.89672e-24)
(0.614987 -0.0143946 -2.80075e-24)
(0.626983 -0.0130657 -1.65531e-24)
(0.192649 -0.0367111 1.5716e-20)
(0.194389 -0.0352813 3.18848e-20)
(0.196172 -0.0345937 -3.73279e-20)
(0.198757 -0.0341158 -8.7883e-22)
(0.201615 -0.0338915 8.04586e-21)
(0.204632 -0.0339196 -7.1008e-21)
(0.207853 -0.0341441 -1.43613e-20)
(0.211288 -0.0345173 -1.5969e-21)
(0.214929 -0.0350037 3.44082e-20)
(0.218776 -0.0355724 -1.34833e-21)
(0.222826 -0.0361961 -2.96072e-21)
(0.227077 -0.0368513 -5.18595e-21)
(0.231526 -0.0375178 4.5465e-21)
(0.236168 -0.0381786 -3.53059e-21)
(0.241001 -0.0388193 4.62571e-21)
(0.246018 -0.0394281 -1.25127e-20)
(0.251216 -0.0399953 -1.00003e-20)
(0.256589 -0.0405131 1.43318e-20)
(0.262133 -0.0409755 9.09256e-22)
(0.267842 -0.0413779 -6.58376e-21)
(0.273711 -0.041717 1.47524e-20)
(0.279735 -0.0419907 -2.35418e-21)
(0.285908 -0.0421977 -1.19633e-21)
(0.292225 -0.0423375 -1.20777e-20)
(0.298681 -0.0424105 9.70551e-22)
(0.30527 -0.0424175 1.0025e-20)
(0.311985 -0.0423598 -4.08275e-21)
(0.318822 -0.0422394 -6.24654e-21)
(0.325773 -0.0420581 4.04464e-21)
(0.332833 -0.0418185 -1.02747e-21)
(0.339995 -0.0415232 1.22289e-21)
(0.347252 -0.0411749 3.65462e-21)
(0.354598 -0.0407767 -9.86701e-22)
(0.362026 -0.0403317 -4.60433e-21)
(0.369529 -0.0398428 4.86569e-21)
(0.377101 -0.0393133 8.85322e-22)
(0.384733 -0.0387465 1.14921e-21)
(0.392421 -0.0381455 -5.7546e-22)
(0.400156 -0.0375134 -5.18484e-21)
(0.407931 -0.0368535 2.47425e-21)
(0.415741 -0.0361688 3.94941e-22)
(0.423578 -0.0354622 -1.35527e-22)
(0.431436 -0.0347368 4.70271e-22)
(0.439308 -0.0339953 1.48692e-22)
(0.447188 -0.0332405 -2.98641e-22)
(0.455071 -0.032475 1.46256e-22)
(0.462949 -0.0317013 2.22263e-22)
(0.470818 -0.0309218 -3.69557e-22)
(0.478673 -0.0301387 1.92915e-22)
(0.486507 -0.0293543 2.58411e-22)
(0.494316 -0.0285705 -3.03358e-22)
(0.502096 -0.0277892 -2.52186e-22)
(0.509841 -0.0270123 1.08126e-22)
(0.517549 -0.0262413 5.50043e-23)
(0.525214 -0.0254779 1.73511e-23)
(0.532833 -0.0247235 1.27664e-22)
(0.540404 -0.0239794 -5.01684e-23)
(0.547923 -0.0232469 -3.21429e-22)
(0.555388 -0.022527 -5.03949e-23)
(0.562799 -0.0218207 -3.61228e-23)
(0.570144 -0.0211291 4.29618e-23)
(0.577447 -0.0204516 3.02479e-23)
(0.58465 -0.0197927 -4.36851e-23)
(0.591878 -0.0191412 -4.24482e-24)
(0.598857 -0.0185255 -1.11402e-23)
(0.60617 -0.0178724 -6.80642e-24)
(0.612586 -0.0173521 -1.6247e-24)
(0.620662 -0.0165512 8.16269e-24)
(0.625148 -0.0163823 -1.00792e-24)
(0.63664 -0.014897 9.37185e-24)
(0.239299 -0.0392224 -3.1115e-20)
(0.240226 -0.0379488 3.81406e-20)
(0.241202 -0.0374505 4.84015e-20)
(0.243183 -0.0370828 -5.57298e-20)
(0.24551 -0.0369548 -3.41874e-20)
(0.248032 -0.0370868 2.46307e-20)
(0.250794 -0.0374189 2.25401e-20)
(0.253802 -0.037901 3.14562e-20)
(0.257039 -0.0384966 -3.70667e-20)
(0.260495 -0.0391737 -2.76148e-22)
(0.264161 -0.0399032 -2.76405e-20)
(0.268031 -0.04066 7.9901e-21)
(0.272095 -0.0414228 2.13363e-20)
(0.276346 -0.0421736 -1.65767e-21)
(0.280778 -0.0428975 -1.1821e-20)
(0.285382 -0.0435822 3.3243e-21)
(0.290152 -0.0442178 6.65257e-21)
(0.295084 -0.0447965 -1.13567e-20)
(0.30017 -0.0453121 2.39156e-20)
(0.305407 -0.0457603 -1.1109e-20)
(0.310788 -0.0461377 -5.91756e-21)
(0.31631 -0.0464425 1.35735e-20)
(0.321966 -0.0466735 -1.2912e-20)
(0.327754 -0.0468304 4.34752e-21)
(0.333667 -0.0469136 1.64858e-21)
(0.339702 -0.0469243 4.96756e-21)
(0.345853 -0.046864 -3.81697e-21)
(0.352115 -0.0467345 -5.56648e-21)
(0.358484 -0.0465383 1.58102e-21)
(0.364954 -0.046278 -2.44008e-21)
(0.371519 -0.0459564 1.11499e-20)
(0.378175 -0.0455766 -4.37692e-21)
(0.384915 -0.0451417 -6.77858e-21)
(0.391734 -0.0446552 8.89477e-21)
(0.398625 -0.0441203 -5.38293e-21)
(0.405583 -0.0435406 -1.11359e-21)
(0.412603 -0.0429196 2.70806e-21)
(0.419677 -0.0422607 -9.85368e-22)
(0.426799 -0.0415675 2.09033e-21)
(0.433964 -0.0408432 -8.32209e-22)
(0.441166 -0.0400914 1.54921e-21)
(0.448399 -0.0393152 -3.35844e-21)
(0.455656 -0.038518 2.17968e-21)
(0.462933 -0.0377028 1.19851e-21)
(0.470223 -0.0368725 -2.24937e-21)
(0.47752 -0.0360302 -8.47844e-24)
(0.48482 -0.0351785 1.35669e-21)
(0.492117 -0.0343201 -1.66375e-21)
(0.499407 -0.0334576 1.77947e-21)
(0.506683 -0.0325932 -4.6356e-22)
(0.513943 -0.0317292 8.09398e-23)
(0.52118 -0.0308678 -7.42349e-23)
(0.528392 -0.0300109 1.38409e-23)
(0.535574 -0.0291604 -2.84234e-22)
(0.542723 -0.028318 3.38017e-22)
(0.549836 -0.0274853 1.12096e-22)
(0.556908 -0.0266638 4.94509e-23)
(0.563939 -0.025855 -5.61505e-24)
(0.570924 -0.0250599 2.30556e-22)
(0.577865 -0.0242797 -1.53113e-22)
(0.58475 -0.0235158 1.2275e-22)
(0.591602 -0.0227672 -1.73673e-23)
(0.598365 -0.0220394 5.9328e-23)
(0.605161 -0.0213194 -1.17187e-23)
(0.611722 -0.0206399 -2.38133e-24)
(0.618618 -0.0199176 2.89331e-24)
(0.62465 -0.0193457 -8.51926e-25)
(0.632303 -0.0184599 -1.2117e-23)
(0.636502 -0.0182777 2.43706e-24)
(0.647438 -0.0166546 1.96891e-23)
(0.290705 -0.0397622 -4.77923e-21)
(0.290785 -0.0395577 -8.12293e-20)
(0.292082 -0.0393739 8.75517e-20)
(0.293803 -0.0394015 -4.41379e-20)
(0.295758 -0.0396871 -3.67454e-21)
(0.297997 -0.0401665 3.44499e-20)
(0.300516 -0.040788 -3.671e-20)
(0.303289 -0.041516 -5.27189e-21)
(0.306295 -0.0423183 2.67392e-20)
(0.309519 -0.0431651 -6.04218e-21)
(0.312946 -0.044031 -2.72134e-20)
(0.316563 -0.0448944 4.66696e-20)
(0.320359 -0.0457374 -1.27371e-20)
(0.324323 -0.0465449 -1.97629e-20)
(0.328447 -0.0473051 2.23638e-20)
(0.332722 -0.0480082 2.44596e-21)
(0.337142 -0.0486467 -1.00874e-20)
(0.341702 -0.0492149 -1.1428e-20)
(0.346396 -0.0497084 -1.32207e-20)
(0.35122 -0.0501245 7.16275e-21)
(0.35617 -0.0504612 4.77395e-21)
(0.361241 -0.0507178 7.83291e-21)
(0.36643 -0.050894 -1.12792e-20)
(0.371734 -0.0509905 6.50311e-21)
(0.377148 -0.0510086 -9.63633e-22)
(0.382669 -0.0509499 -5.53788e-21)
(0.388293 -0.0508165 3.71472e-21)
(0.394016 -0.0506109 3.60876e-22)
(0.399833 -0.0503359 -7.54147e-21)
(0.405741 -0.0499946 2.3786e-21)
(0.411735 -0.0495902 4.64424e-21)
(0.41781 -0.0491261 -2.79113e-21)
(0.423961 -0.0486059 1.38676e-21)
(0.430184 -0.0480331 2.95281e-21)
(0.436474 -0.0474115 -4.65346e-21)
(0.442825 -0.0467448 2.24683e-21)
(0.449232 -0.0460368 2.43404e-21)
(0.45569 -0.0452911 -2.12834e-21)
(0.462194 -0.0445115 3.05354e-22)
(0.468738 -0.0437016 -2.71681e-21)
(0.475317 -0.0428649 1.49804e-21)
(0.481925 -0.0420049 8.53544e-22)
(0.488559 -0.0411249 3.34888e-22)
(0.495212 -0.0402283 -1.37639e-21)
(0.501879 -0.0393181 -3.0796e-22)
(0.508556 -0.0383973 2.52866e-21)
(0.515237 -0.0374689 -2.25051e-22)
(0.521919 -0.0365354 -1.2994e-21)
(0.528596 -0.0355996 1.48258e-23)
(0.535264 -0.0346639 -2.07932e-22)
(0.54192 -0.0337306 1.93599e-22)
(0.548559 -0.0328019 9.71647e-23)
(0.555178 -0.0318798 1.8572e-22)
(0.561773 -0.0309661 -1.90867e-22)
(0.568341 -0.0300628 -1.64706e-23)
(0.574879 -0.0291714 -1.81699e-22)
(0.581386 -0.0282934 3.00296e-24)
(0.587856 -0.0274303 -1.9354e-23)
(0.594294 -0.0265831 3.43136e-23)
(0.600685 -0.0257535 -7.07215e-23)
(0.607054 -0.0249404 -7.19304e-23)
(0.613345 -0.0241501 2.1005e-23)
(0.619678 -0.0233677 -5.07456e-23)
(0.62579 -0.0226307 3.7131e-23)
(0.632241 -0.0218453 -2.04419e-24)
(0.63786 -0.0212276 -3.86434e-24)
(0.645059 -0.0202645 8.2856e-24)
(0.648951 -0.0200717 1.16281e-24)
(0.659287 -0.0183304 -1.21199e-23)
(0.345371 -0.0405954 -4.66398e-20)
(0.344486 -0.0407989 2.0087e-20)
(0.345032 -0.0408843 -1.38463e-20)
(0.346085 -0.041138 -1.23305e-20)
(0.347414 -0.0416367 2.89706e-21)
(0.349072 -0.0423108 -1.78375e-21)
(0.351046 -0.043108 5.56521e-21)
(0.353297 -0.0439953 2.98704e-20)
(0.355794 -0.0449419 -4.667e-20)
(0.358514 -0.0459192 3.44679e-20)
(0.361434 -0.0469026 1.01046e-20)
(0.364537 -0.0478716 -5.20728e-20)
(0.367808 -0.0488092 4.82435e-20)
(0.371234 -0.0497017 -1.89718e-20)
(0.374805 -0.0505377 7.05966e-22)
(0.378512 -0.0513085 1.13234e-20)
(0.382348 -0.0520072 -1.79519e-20)
(0.386309 -0.0526285 7.90163e-21)
(0.390388 -0.0531688 -1.66446e-20)
(0.394584 -0.0536254 -6.09839e-21)
(0.398892 -0.0539967 2.46972e-20)
(0.403309 -0.0542822 -3.7468e-21)
(0.407833 -0.0544819 2.65574e-21)
(0.412461 -0.0545966 6.97594e-21)
(0.417191 -0.0546275 -1.61632e-21)
(0.42202 -0.0545766 -5.86705e-21)
(0.426944 -0.0544459 -7.38198e-21)
(0.431962 -0.0542382 8.16686e-21)
(0.43707 -0.0539563 3.96617e-23)
(0.442265 -0.0536034 -4.8182e-21)
(0.447543 -0.0531829 1.69641e-21)
(0.452901 -0.0526984 4.95728e-21)
(0.458334 -0.0521536 -9.66747e-21)
(0.463839 -0.0515522 2.32836e-21)
(0.469412 -0.0508983 3.10011e-21)
(0.475048 -0.0501956 9.09565e-22)
(0.480743 -0.0494483 -3.72539e-21)
(0.486492 -0.0486601 1.4408e-23)
(0.492291 -0.047835 -4.75901e-22)
(0.498135 -0.046977 3.46688e-21)
(0.504019 -0.0460897 -2.16531e-21)
(0.50994 -0.0451768 -1.51465e-22)
(0.515892 -0.044242 1.44823e-21)
(0.52187 -0.0432887 -1.84216e-23)
(0.52787 -0.0423203 -1.54855e-21)
(0.533888 -0.04134 2.14691e-21)
(0.539919 -0.0403509 -3.30134e-22)
(0.545958 -0.039356 -1.31217e-21)
(0.552003 -0.0383579 8.13737e-22)
(0.558048 -0.0373595 -3.15501e-22)
(0.56409 -0.0363631 -1.4109e-22)
(0.570125 -0.0353712 -1.15953e-22)
(0.57615 -0.0343859 2.79001e-22)
(0.582161 -0.0334093 -4.89312e-22)
(0.588156 -0.0324434 1.07326e-22)
(0.594132 -0.0314899 -6.16939e-23)
(0.600086 -0.0305505 2.16936e-22)
(0.606015 -0.0296268 1.28654e-22)
(0.611922 -0.0287198 -1.13827e-22)
(0.617794 -0.0278318 5.29895e-23)
(0.623655 -0.026961 8.299e-23)
(0.629448 -0.026115 -4.66386e-23)
(0.635294 -0.0252769 3.07084e-23)
(0.640934 -0.0244889 -1.87319e-24)
(0.646915 -0.0236469 2.79541e-24)
(0.652102 -0.0229895 -2.07129e-24)
(0.65882 -0.0219572 -9.33156e-24)
(0.662393 -0.0217563 -1.53322e-24)
(0.672092 -0.0199172 -6.15654e-24)
(0.403685 -0.0403336 2.65927e-20)
(0.4018 -0.0410679 -2.52409e-20)
(0.401554 -0.0415182 8.48794e-21)
(0.401897 -0.0420792 2.14574e-20)
(0.402559 -0.042859 -3.97726e-20)
(0.403592 -0.043781 1.18767e-20)
(0.404973 -0.0447938 5.69741e-20)
(0.406649 -0.0458693 -1.83393e-20)
(0.408577 -0.0469806 -3.39406e-20)
(0.410727 -0.0481018 2.87072e-20)
(0.413072 -0.0492112 -8.67745e-21)
(0.415589 -0.0502911 2.21314e-20)
(0.41826 -0.0513268 -2.87113e-20)
(0.421071 -0.0523062 -3.14146e-20)
(0.424011 -0.0532198 5.1508e-20)
(0.427073 -0.0540601 -4.74922e-20)
(0.430249 -0.0548211 2.78708e-20)
(0.433535 -0.0554984 2.26623e-20)
(0.436927 -0.0560888 -4.36946e-20)
(0.440423 -0.0565901 3.34004e-20)
(0.44402 -0.0570011 -1.62479e-20)
(0.447716 -0.0573212 -1.25019e-20)
(0.451511 -0.0575508 3.03577e-21)
(0.455402 -0.0576906 2.46373e-20)
(0.459387 -0.0577421 -2.94993e-20)
(0.463466 -0.057707 2.69142e-20)
(0.467637 -0.0575878 6.13626e-21)
(0.471897 -0.0573871 -4.92283e-21)
(0.476245 -0.0571077 -1.80504e-20)
(0.480677 -0.0567531 4.74838e-21)
(0.485193 -0.0563266 7.22513e-21)
(0.489788 -0.0558319 -7.08e-21)
(0.49446 -0.055273 5.12558e-21)
(0.499206 -0.0546537 -2.80723e-21)
(0.504022 -0.0539781 1.66892e-21)
(0.508904 -0.0532503 -1.64087e-21)
(0.51385 -0.0524744 9.89182e-22)
(0.518855 -0.0516546 2.99914e-22)
(0.523915 -0.050795 -8.5425e-22)
(0.529026 -0.0498996 2.0804e-21)
(0.534185 -0.0489724 -2.59449e-21)
(0.539386 -0.0480174 -9.2362e-22)
(0.544626 -0.0470383 3.11802e-22)
(0.549901 -0.0460388 2.98427e-23)
(0.555206 -0.0450225 -7.01369e-22)
(0.560538 -0.0439928 2.14029e-21)
(0.565892 -0.042953 -4.58692e-22)
(0.571264 -0.0419063 -7.24463e-22)
(0.576651 -0.0408557 -8.0361e-22)
(0.582049 -0.0398039 1.47761e-21)
(0.587454 -0.0387537 -5.77479e-23)
(0.592862 -0.0377076 6.94329e-22)
(0.598271 -0.036668 -1.34837e-21)
(0.603678 -0.035637 7.74349e-22)
(0.609079 -0.0346169 1.10944e-22)
(0.614471 -0.0336096 -1.29576e-22)
(0.619854 -0.0326168 1.87696e-22)
(0.625222 -0.0316403 -2.61148e-22)
(0.63058 -0.0306812 3.30546e-24)
(0.635914 -0.029742 -9.43421e-24)
(0.641248 -0.0288209 -1.01524e-22)
(0.646527 -0.0279262 2.29021e-23)
(0.651869 -0.0270392 -1.78897e-23)
(0.65702 -0.0262069 1.35956e-23)
(0.662514 -0.0253151 -2.93522e-24)
(0.667254 -0.0246244 1.96084e-24)
(0.673473 -0.0235314 8.71976e-24)
(0.676717 -0.0233248 -2.95628e-24)
(0.685751 -0.0214086 3.24101e-24)
(0.46216 -0.0402781 -2.97737e-20)
(0.461119 -0.041198 3.04651e-20)
(0.460742 -0.0421561 -6.53121e-20)
(0.460719 -0.0432902 9.61294e-21)
(0.4611 -0.0445153 2.58011e-20)
(0.461849 -0.0457836 -1.29314e-20)
(0.462898 -0.0470756 -7.46052e-21)
(0.464196 -0.0483704 9.75065e-21)