/*--------------------------------*- C++ -*----------------------------------*\
  =========                 |
  \\      /  F ield         | OpenFOAM: The Open Source CFD Toolbox
   \\    /   O peration     | Website:  https://openfoam.org
    \\  /    A nd           | Version:  7
     \\/     M anipulation  |
\*---------------------------------------------------------------------------*/
FoamFile
{
    version     2.0;
    format      ascii;
    class       volScalarField;
    location    "3";
    object      p;
}
// * * * * * * * * * * * * * * * * * * * * * * * * * * * * * * * * * * * * * //

dimensions      [0 2 -2 0 0 0 0];

internalField   nonuniform List<scalar> 
435
(
-0.92581
-0.850244
-0.77751
-0.707403
-0.639694
-0.574138
-0.510472
-0.448417
-0.387674
-0.327933
-0.268834
-0.210025
-0.151037
-0.0914584
-0.0306451
-1.48704
-1.39206
-1.29995
-1.21081
-1.12466
-1.0415
-0.961252
-0.883814
-0.809044
-0.736767
-0.666784
-0.598871
-0.532784
-0.468259
-0.405006
-0.342718
-0.281042
-0.219611
-0.157969
-0.0956606
-0.032083
-1.52615
-1.4313
-1.33893
-1.24916
-1.16207
-1.07766
-0.99591
-0.916755
-0.840084
-0.765754
-0.693594
-0.623406
-0.554964
-0.488019
-0.422294
-0.357485
-0.293248
-0.229205
-0.164912
-0.0998724
-0.0335229
-1.56324
-1.46871
-1.37627
-1.28607
-1.19821
-1.11274
-1.02966
-0.948948
-0.870516
-0.794257
-0.720028
-0.647653
-0.576931
-0.507626
-0.439476
-0.372183
-0.305411
-0.238775
-0.171841
-0.104079
-0.0349599
-1.59823
-1.50419
-1.41186
-1.32142
-1.23298
-1.14663
-1.06239
-0.980275
-0.900226
-0.822167
-0.745981
-0.67152
-0.598599
-0.527005
-0.456487
-0.386756
-0.317485
-0.248285
-0.178731
-0.108266
-0.0363888
-1.63108
-1.53768
-1.44564
-1.35512
-1.26628
-1.17921
-1.09399
-1.01062
-0.9291
-0.849373
-0.771351
-0.694907
-0.619881
-0.546076
-0.473256
-0.401143
-0.32942
-0.257696
-0.185554
-0.112415
-0.0378039
-1.66175
-1.56914
-1.47752
-1.38709
-1.298
-1.21039
-1.12433
-1.03987
-0.957024
-0.875766
-0.796031
-0.717717
-0.640684
-0.564755
-0.48971
-0.415283
-0.341164
-0.266965
-0.19228
-0.116508
-0.039199
-1.69023
-1.59851
-1.50745
-1.41724
-1.32806
-1.24005
-1.15331
-1.06791
-0.983886
-0.901234
-0.819913
-0.739846
-0.660913
-0.582956
-0.505772
-0.429106
-0.352661
-0.27605
-0.198877
-0.120525
-0.0405674
-1.71652
-1.62578
-1.53538
-1.44552
-1.35639
-1.26812
-1.18084
-1.09464
-1.00958
-0.925666
-0.842889
-0.76119
-0.68047
-0.600589
-0.521361
-0.442544
-0.363851
-0.284903
-0.205309
-0.124446
-0.0419022
-1.74063
-1.65093
-1.56128
-1.47188
-1.3829
-1.2945
-1.20682
-1.11996
-1.03399
-0.948953
-0.86485
-0.781643
-0.699255
-0.617561
-0.536393
-0.455521
-0.374673
-0.293473
-0.211542
-0.128247
-0.0431956
-1.76257
-1.67397
-1.58514
-1.49627
-1.40754
-1.31912
-1.23116
-1.14376
-1.05702
-0.970987
-0.885687
-0.801099
-0.717164
-0.633775
-0.55078
-0.467962
-0.385061
-0.301709
-0.217536
-0.131906
-0.0444398
-1.78239
-1.6949
-1.60692
-1.51865
-1.43026
-1.34191
-1.25377
-1.16595
-1.07856
-0.99166
-0.90529
-0.819449
-0.734093
-0.649133
-0.564431
-0.479785
-0.394946
-0.309555
-0.223251
-0.135397
-0.0456261
-1.80012
-1.71374
-1.62664
-1.539
-1.451
-1.36281
-1.27458
-1.18645
-1.09851
-1.01086
-0.923549
-0.836582
-0.749935
-0.663532
-0.577252
-0.490906
-0.404256
-0.316952
-0.228643
-0.138693
-0.0467457
-1.81582
-1.73052
-1.64429
-1.5573
-1.46974
-1.38176
-1.29351
-1.20515
-1.11678
-1.02849
-0.940352
-0.852385
-0.764577
-0.676867
-0.589145
-0.501237
-0.412915
-0.323839
-0.233667
-0.141766
-0.0477891
-1.82952
-1.74525
-1.65987
-1.57353
-1.48642
-1.39868
-1.31049
-1.22197
-1.13325
-1.04443
-0.955581
-0.86674
-0.777904
-0.689026
-0.600007
-0.510685
-0.420844
-0.330152
-0.238275
-0.144586
-0.048746
-1.84129
-1.75797
-1.67338
-1.58766
-1.501
-1.41353
-1.32542
-1.23681
-1.14782
-1.05856
-0.969117
-0.879524
-0.789795
-0.699892
-0.609729
-0.519153
-0.427958
-0.33582
-0.242416
-0.147122
-0.0496058
-1.85114
-1.76868
-1.68481
-1.59967
-1.51342
-1.42622
-1.33822
-1.24956
-1.16038
-1.07077
-0.980829
-0.890607
-0.800121
-0.709342
-0.618195
-0.526535
-0.434166
-0.340771
-0.246035
-0.149339
-0.050357
-1.85912
-1.77739
-1.69413
-1.60949
-1.52362
-1.43667
-1.34879
-1.26012
-1.17079
-1.08091
-0.990575
-0.899844
-0.808739
-0.717241
-0.62528
-0.532719
-0.43937
-0.344925
-0.249072
-0.151201
-0.0509872
-1.8652
-1.78406
-1.7013
-1.61707
-1.53151
-1.44477
-1.35699
-1.26833
-1.1789
-1.08882
-0.998195
-0.907076
-0.815496
-0.723439
-0.630844
-0.53758
-0.443465
-0.348195
-0.251464
-0.152669
-0.0514826
-1.86937
-1.78864
-1.70624
-1.6223
-1.53696
-1.45038
-1.36269
-1.27403
-1.18454
-1.09434
-1.00351
-0.912121
-0.820213
-0.727771
-0.634736
-0.540982
-0.446331
-0.350486
-0.25314
-0.153698
-0.0518281
-1.87152
-1.79102
-1.7088
-1.62502
-1.5398
-1.4533
-1.36566
-1.27701
-1.18749
-1.09722
-1.00629
-0.914767
-0.822689
-0.730045
-0.63678
-0.54277
-0.447839
-0.351692
-0.254021
-0.154242
-0.0520064
)
;

boundaryField
{
    inlet
    {
        type            zeroGradient;
    }
    outlet
    {
        type            fixedValue;
        value           uniform 0;
    }
    cylinder
    {
        type            zeroGradient;
    }
    top
    {
        type            symmetryPlane;
    }
    bottom
    {
        type            symmetryPlane;
    }
    defaultFaces
    {
        type            empty;
    }
    procBoundary35to29
    {
        type            processor;
        value           nonuniform List<scalar> 
22
(
-0.889707
-0.816161
-0.745593
-0.677764
-0.612421
-0.549294
-0.488103
-0.428561
-0.370356
-0.313178
-0.256665
-0.200477
-0.144137
-0.0872789
-0.0292137
-1.44597
-1.35107
-1.25943
-1.17112
-1.08612
-1.00439
-1.00439
)
;
    }
    procBoundary35to34
    {
        type            processor;
        value           nonuniform List<scalar> 
20
(
-1.58474
-1.62332
-1.65968
-1.69379
-1.72561
-1.75515
-1.7824
-1.80739
-1.83015
-1.85073
-1.86919
-1.88559
-1.9
-1.9125
-1.92316
-1.93204
-1.93918
-1.9446
-1.9483
-1.95021
)
;
    }
}


// ************************************************************************* //
