/*--------------------------------*- C++ -*----------------------------------*\
  =========                 |
  \\      /  F ield         | OpenFOAM: The Open Source CFD Toolbox
   \\    /   O peration     | Website:  https://openfoam.org
    \\  /    A nd           | Version:  7
     \\/     M anipulation  |
\*---------------------------------------------------------------------------*/
FoamFile
{
    version     2.0;
    format      ascii;
    class       volVectorField;
    location    "22";
    object      U;
}
// * * * * * * * * * * * * * * * * * * * * * * * * * * * * * * * * * * * * * //

dimensions      [0 1 -1 0 0 0 0];

internalField   nonuniform List<vector> 
433
(
(-0.0213663 -0.00670296 1.02417e-20)
(-0.0238447 -0.00753921 -9.02727e-21)
(-0.0265199 -0.00734397 -1.09682e-20)
(-0.0292457 -0.00652582 -5.00584e-21)
(-0.0319702 -0.00536634 9.7106e-21)
(-0.034691 -0.00405829 4.34469e-21)
(-0.0374194 -0.00272819 -1.40423e-20)
(-0.0401655 -0.00145464 8.40988e-21)
(0.0862177 -0.00678535 -4.00767e-18)
(0.0994545 -0.00585212 -5.50124e-19)
(0.0543511 -0.0114746 -5.83479e-18)
(0.0647915 -0.010295 3.22976e-18)
(0.0760488 -0.00934459 1.51157e-18)
(0.0881402 -0.008784 -2.40181e-18)
(0.100913 -0.0087935 2.14878e-18)
(0.029542 -0.0161787 -9.57698e-19)
(0.0374792 -0.0149087 -6.90301e-19)
(0.0461496 -0.0137652 3.74319e-19)
(0.0555374 -0.0128428 1.47227e-19)
(0.0656301 -0.0122863 -1.54831e-18)
(0.0762726 -0.0122456 -6.35858e-19)
(0.0884295 -0.0128358 1.27149e-18)
(0.100597 -0.0132272 -3.51652e-18)
(0.0103119 -0.0201318 -3.265e-20)
(0.0162495 -0.0190515 -1.21677e-18)
(0.022769 -0.0179278 2.67489e-18)
(0.0298783 -0.0168716 -2.62409e-18)
(0.0375718 -0.0159905 1.83713e-18)
(0.0458401 -0.0154173 2.11434e-19)
(0.0545447 -0.0152787 5.90654e-19)
(0.0645488 -0.0155393 -2.35143e-18)
(0.0745479 -0.0153646 -3.31883e-19)
(-0.00491322 -0.0238709 -2.78683e-19)
(-0.000251617 -0.0227856 1.20008e-18)
(0.00468436 -0.0216505 9.33263e-19)
(0.00998545 -0.0205285 -9.90776e-19)
(0.015708 -0.0194882 9.3607e-20)
(0.0218763 -0.0186064 3.75133e-19)
(0.0284973 -0.0179836 -2.69518e-18)
(0.0354583 -0.0177179 1.41046e-18)
(0.0435335 -0.0176493 8.82095e-19)
(0.0516049 -0.0169449 2.09241e-19)
(-0.014822 -0.0283938 -8.25835e-19)
(-0.0117901 -0.0266149 6.91027e-19)
(-0.00847761 -0.0251084 -5.83334e-19)
(-0.00484127 -0.0237735 -9.29952e-19)
(-0.000849613 -0.0225691 3.49946e-19)
(0.00351667 -0.0214952 1.41163e-19)
(0.00826115 -0.0205811 -5.65288e-19)
(0.0133804 -0.0198885 -1.90661e-19)
(0.018774 -0.0194883 1.6497e-18)
(0.0251285 -0.0191202 -5.76843e-19)
(0.0314914 -0.0179547 -9.86639e-19)
(-0.0197875 -0.0299937 -8.48696e-19)
(-0.0188692 -0.0285736 6.08158e-19)
(-0.0173643 -0.027272 3.89358e-19)
(-0.0153665 -0.0260462 -1.6806e-19)
(-0.0129454 -0.024878 -2.66976e-19)
(-0.0101464 -0.0237703 -1.95174e-19)
(-0.00699896 -0.0227428 1.11685e-18)
(-0.00352607 -0.0218293 -4.43477e-19)
(0.000256307 -0.0210843 1.54912e-18)
(0.0042609 -0.0205722 -3.72438e-19)
(0.00909757 -0.0199612 -1.08446e-18)
(0.01395 -0.0184382 3.03576e-19)
(-0.0251774 -0.0271606 1.3934e-18)
(-0.0244094 -0.0272501 -1.56571e-18)
(-0.0232821 -0.0268398 8.2407e-19)
(-0.0218554 -0.0261198 -8.84236e-20)
(-0.0201664 -0.0252258 -1.86897e-19)
(-0.0182359 -0.0242554 -4.07404e-19)
(-0.0160733 -0.0232827 1.53864e-19)
(-0.0136849 -0.0223698 5.47888e-19)
(-0.0110733 -0.0215818 -1.1829e-18)
(-0.0082948 -0.0209939 -5.72181e-19)
(-0.00481535 -0.0202443 1.88654e-19)
(-0.00136146 -0.0185517 9.05961e-19)
(-0.034492 -0.0273321 2.90157e-19)
(-0.0321814 -0.027837 -3.81062e-19)
(-0.0303703 -0.0276902 -3.51983e-19)
(-0.0288781 -0.0271119 -1.85942e-19)
(-0.0275623 -0.0262678 1.10438e-18)
(-0.0263158 -0.0252788 -5.22392e-19)
(-0.0250586 -0.024232 8.12273e-19)
(-0.0237347 -0.0231921 3.69727e-20)
(-0.0223082 -0.0222119 -1.15004e-18)
(-0.0207574 -0.0213463 8.21573e-19)
(-0.0191243 -0.020663 4.76387e-19)
(-0.0169649 -0.0197665 -9.98722e-19)
(-0.0147969 -0.0179348 -7.51917e-20)
(-0.0357607 -0.0349684 2.01276e-19)
(-0.0339189 -0.0321423 -5.23671e-20)
(-0.0326688 -0.0299065 -4.80217e-19)
(-0.0318205 -0.0280409 3.55656e-19)
(-0.0312218 -0.0264168 -1.68867e-19)
(-0.0307544 -0.0249611 7.38073e-19)
(-0.0303318 -0.0236348 -7.56145e-19)
(-0.0298939 -0.0224218 2.57008e-19)
(-0.0294026 -0.0213228 -5.04109e-20)
(-0.0288347 -0.0203579 -7.62981e-19)
(-0.0282231 -0.0195731 2.49489e-19)
(-0.0272113 -0.0185203 4.06951e-19)
(-0.0261761 -0.016476 -3.6607e-19)
(-0.0247113 -0.0413481 -1.56265e-19)
(-0.0272515 -0.0361611 1.8411e-19)
(-0.0291743 -0.0323131 -2.60432e-19)
(-0.030655 -0.0293727 7.5865e-20)
(-0.0318192 -0.0270437 2.20652e-19)
(-0.0327549 -0.025126 -4.17195e-19)
(-0.0335201 -0.0234897 4.43305e-20)
(-0.0341523 -0.0220537 4.88961e-21)
(-0.0346749 -0.0207712 1.20407e-19)
(-0.0351028 -0.0196213 2.93091e-19)
(-0.0354457 -0.0186074 -9.52678e-20)
(-0.0357447 -0.017767 -5.82887e-19)
(-0.0357289 -0.0166235 2.85979e-19)
(-0.0356711 -0.0144403 2.41748e-19)
(-0.0181926 -0.0272738 1.6883e-20)
(-0.0229806 -0.0265453 -2.08916e-19)
(-0.026781 -0.0255245 -3.26785e-20)
(-0.0297789 -0.0243455 3.78618e-20)
(-0.0321727 -0.0230927 -2.12414e-20)
(-0.0341305 -0.0218213 1.72912e-20)
(-0.035783 -0.0205671 1.83495e-19)
(-0.0372232 -0.0193539 4.13567e-20)
(-0.0385146 -0.0181991 6.08626e-20)
(-0.0396983 -0.017119 -1.03829e-19)
(-0.0408008 -0.0161371 -1.21961e-19)
(-0.0418619 -0.0153033 -8.05961e-20)
(-0.0426828 -0.0141365 -1.50442e-19)
(-0.0434479 -0.0118978 -1.15989e-19)
(-0.0222157 -0.008967 -1.71109e-20)
(-0.0249596 -0.0138838 9.61218e-20)
(-0.0275804 -0.0167442 1.5993e-20)
(-0.0299999 -0.0181623 1.60067e-20)
(-0.0322297 -0.018594 9.73124e-20)
(-0.0343043 -0.0183813 -1.88242e-19)
(-0.0362599 -0.0177691 1.89397e-19)
(-0.0381259 -0.0169273 -1.22531e-19)
(-0.0399246 -0.0159713 2.12308e-20)
(-0.041672 -0.0149779 4.03907e-20)
(-0.0433778 -0.0140006 -1.36362e-19)
(-0.0450493 -0.0130849 1.36419e-19)
(-0.0467037 -0.0122947 1.03745e-21)
(-0.0481957 -0.0111534 -3.30799e-20)
(-0.049632 -0.00892065 1.18642e-19)
(-0.0396268 -0.0154102 8.36025e-21)
(-0.0368999 -0.0160125 2.39704e-21)
(-0.0356017 -0.0162765 -3.19875e-20)
(-0.0353457 -0.016189 1.21415e-21)
(-0.035877 -0.0157856 -1.38218e-20)
(-0.0369786 -0.0151338 2.58296e-20)
(-0.0384664 -0.0143097 -6.73223e-21)
(-0.0402074 -0.0133823 -2.15376e-20)
(-0.0421086 -0.0124081 3.08914e-20)
(-0.0441064 -0.0114317 -1.35562e-20)
(-0.0461585 -0.0104886 1.2274e-20)
(-0.0482395 -0.00961511 5.02388e-20)
(-0.0503356 -0.00887093 -8.77961e-20)
(-0.052344 -0.00777987 -2.49592e-20)
(-0.0543067 -0.00559354 -3.40673e-21)
(-0.0325919 -0.0300251 -2.05905e-21)
(-0.0328426 -0.0238727 -2.28655e-22)
(-0.0333799 -0.0196664 3.58935e-21)
(-0.034289 -0.0166867 3.79512e-21)
(-0.0355652 -0.0144614 9.63007e-22)
(-0.0371607 -0.0126935 6.41041e-23)
(-0.0390146 -0.0112076 -1.6749e-21)
(-0.0410663 -0.00990427 1.11639e-21)
(-0.0432629 -0.00873128 -4.79074e-21)
(-0.0455611 -0.00766431 2.06991e-22)
(-0.0479268 -0.00669672 2.76055e-21)
(-0.0503369 -0.00583912 5.70424e-21)
(-0.0527666 -0.00513608 7.15113e-22)
(-0.0551617 -0.00410892 4.98426e-21)
(-0.0575185 -0.00199581 -1.49103e-21)
(-0.0210535 -0.022699 -1.02806e-20)
(-0.0246982 -0.0186488 3.34749e-21)
(-0.0278452 -0.0154492 3.09958e-22)
(-0.0306629 -0.0128657 -4.52955e-21)
(-0.0332902 -0.0107221 -5.70872e-21)
(-0.0358305 -0.00889838 7.48049e-21)
(-0.0383482 -0.00731535 3.51529e-21)
(-0.0408816 -0.00592229 -5.40105e-21)
(-0.0434486 -0.00468775 -5.05937e-21)
(-0.046053 -0.00359339 1.2367e-20)
(-0.0486895 -0.00263099 4.84098e-22)
(-0.0513521 -0.00180676 -2.78525e-21)
(-0.0540154 -0.00115937 -8.21467e-22)
(-0.0566749 -0.000214562 -1.61208e-21)
(-0.0592982 0.00180188 2.25542e-21)
(0.108465 -0.00690749 -7.37024e-20)
(0.117424 0.00510452 9.19421e-19)
(0.134264 0.012231 -1.02821e-20)
(0.147296 0.0197652 4.68153e-20)
(0.159373 0.0269993 -2.95634e-19)
(0.170032 0.0337863 4.49639e-19)
(0.180167 0.0397214 9.02653e-20)
(0.18988 0.0451134 -2.48034e-19)
(0.199402 0.0499356 -3.64753e-21)
(0.208939 0.054288 -1.16677e-19)
(0.218602 0.0582018 2.20677e-20)
(0.228486 0.0617244 1.69579e-19)
(0.238627 0.0648839 -2.05997e-19)
(0.249041 0.0676979 2.21781e-21)
(0.259714 0.0701677 2.15392e-20)
(0.270614 0.0722783 -1.60595e-20)
(0.2817 0.0739985 6.69472e-20)
(0.292926 0.0752822 -2.97962e-20)
(0.0800078 -0.00915222 3.88355e-20)
(0.0870782 0.00235081 -1.97676e-19)
(0.10213 0.0095773 1.32587e-18)
(0.11397 0.0175134 -4.02061e-19)
(0.12557 0.0244377 8.19813e-20)
(0.136072 0.0315325 -6.28566e-19)
(0.14627 0.0375049 1.11191e-19)
(0.156284 0.0428881 2.76991e-19)
(0.166258 0.0476506 -1.20676e-19)
(0.176379 0.0519304 1.71544e-19)
(0.186719 0.0557631 1.06255e-19)
(0.197357 0.0592087 3.89513e-20)
(0.208312 0.062302 -2.77116e-20)
(0.219586 0.0650643 7.13699e-20)
(0.231153 0.0674991 -2.75541e-19)
(0.242974 0.0695911 1.22244e-19)
(0.255002 0.071308 -3.7361e-20)
(0.267184 0.0726018 6.65501e-20)
(0.0549341 -0.0107191 3.90005e-19)
(0.060207 6.75898e-06 3.32167e-19)
(0.073292 0.00719997 -5.37531e-19)
(0.0836248 0.0152373 1.91475e-19)
(0.0944998 0.0221331 2.58084e-19)
(0.104657 0.029164 -1.62954e-19)
(0.11465 0.0350889 -6.85479e-20)
(0.124784 0.0404133 -9.94791e-20)
(0.135056 0.0450785 -1.22899e-19)
(0.145631 0.0492662 -2.922e-20)
(0.156535 0.0530068 9.44042e-20)
(0.167829 0.0563713 -1.08452e-19)
(0.17951 0.0593994 3.8891e-20)
(0.191565 0.0621151 -4.80346e-20)
(0.203957 0.0645225 7.30628e-20)
(0.216636 0.0666055 -4.71763e-20)
(0.229549 0.0683302 5.16465e-21)
(0.242635 0.0696459 6.46212e-20)
(0.0329092 -0.0117087 4.37378e-19)
(0.0364469 -0.00180675 -4.87176e-19)
(0.0475042 0.00517827 7.76172e-19)
(0.0562602 0.0130613 -2.88123e-19)
(0.0661624 0.0200685 -1.58912e-19)
(0.0757048 0.02675 -1.10541e-19)
(0.085377 0.0325325 1.23856e-19)
(0.0954903 0.0377421 -3.17636e-19)
(0.105927 0.0422621 1.95439e-19)
(0.116843 0.0463323 1.63493e-20)
(0.128206 0.0499642 4.10279e-20)
(0.140062 0.0532389 8.81918e-20)
(0.152385 0.0561996 -7.0882e-20)
(0.165144 0.0588705 5.00145e-20)
(0.178289 0.0612556 -3.15411e-20)
(0.191762 0.0633368 -9.8777e-21)
(0.205498 0.0650782 3.30932e-20)
(0.219434 0.0664258 -3.4959e-21)
(0.0136549 -0.0123287 -2.4075e-19)
(0.0155163 -0.00299614 5.83975e-19)
(0.0245322 0.00357943 -1.33328e-19)
(0.031701 0.0111663 -4.97933e-19)
(0.0404987 0.0180197 3.70476e-19)
(0.0492775 0.0242033 9.27451e-20)
(0.058534 0.0298644 -1.91401e-19)
(0.0685007 0.0349243 1.32693e-19)
(0.0789881 0.0392391 3.63832e-20)
(0.0901477 0.0431638 -1.16378e-19)
(0.101875 0.0466662 1.48023e-19)
(0.114209 0.0498389 -6.82218e-20)
(0.127092 0.0527265 9.3864e-21)
(0.140479 0.0553517 -5.18329e-20)
(0.154306 0.0577172 8.19339e-20)
(0.168505 0.059802 -3.66603e-20)
(0.183003 0.0615671 -1.15721e-20)
(-0.00307074 -0.0129003 -5.78949e-20)
(-0.00274589 -0.00356305 -4.02143e-21)
(0.00419354 0.00245553 -5.00026e-20)
(0.00984706 0.00970875 -7.67693e-20)
(0.0174051 0.0162361 -1.31664e-20)
(0.0253586 0.0220043 2.46062e-19)
(0.034207 0.0271622 -8.5503e-20)
(0.0439018 0.0320206 3.12923e-20)
(0.0543441 0.0360408 -2.85982e-20)
(0.0656703 0.0397939 -7.44225e-20)
(0.0776783 0.0431424 4.49906e-20)
(0.09041 0.046198 -3.11044e-20)
(0.103777 0.0490046 4.63907e-20)
(0.117719 0.0515812 -4.38013e-20)
(0.132156 0.0539277 4.05307e-20)
(0.147012 0.0560192 1.08366e-20)
(0.162207 0.0578134 -9.53247e-21)
(-0.0173887 -0.0128186 1.12041e-19)
(-0.0183639 -0.00377202 -2.09982e-19)
(-0.0136406 0.00170399 9.70453e-20)
(-0.00939032 0.00848613 7.221e-21)
(-0.00305944 0.0144404 3.03103e-20)
(0.00395204 0.0198363 -4.7095e-20)
(0.0123045 0.0246754 1.43551e-19)
(0.0217479 0.0291058 -7.25015e-20)
(0.0320802 0.0327227 8.9665e-21)
(0.0435232 0.0362584 -2.21142e-23)
(0.0557359 0.0394219 5.679e-20)
(0.068795 0.0423423 -6.82581e-20)
(0.0825744 0.0450585 3.67047e-20)
(0.0969988 0.0475815 -7.25501e-20)
(0.111977 0.0499079 1.63447e-20)
(0.127422 0.0520078 -9.28669e-21)
(0.143247 0.0538346 4.09209e-20)
(-0.0295938 -0.0115652 -5.72858e-20)
(-0.0317497 -0.00367217 -1.06628e-19)
(-0.0290939 0.00130184 -7.187e-20)
(-0.0261556 0.00739297 1.23034e-19)
(-0.0210439 0.0126818 8.96359e-20)
(-0.0147961 0.0174825 -1.30728e-19)
(-0.00695265 0.0220833 3.69684e-20)
(0.00205092 0.0259472 8.86289e-21)
(0.012267 0.0294553 6.54758e-21)
(0.0237997 0.0326027 -9.76933e-21)
(0.0361569 0.0355368 -4.51348e-20)
(0.0494822 0.0382976 1.10997e-20)
(0.0636077 0.0409125 2.18057e-20)
(0.0784461 0.0433758 2.70295e-20)
(0.0938958 0.0456795 -6.32078e-21)
(0.10986 0.047788 -2.55718e-21)
(0.126248 0.0496496 -3.03938e-20)
(-0.0398312 -0.00965366 1.65706e-19)
(-0.0430911 -0.00310064 -1.61848e-19)
(-0.0422377 0.00132035 9.96332e-20)
(-0.0405024 0.0065799 -1.39898e-19)
(-0.0364977 0.0111767 8.28075e-20)
(-0.0309983 0.015413 3.02465e-21)
(-0.0237018 0.0193055 2.26696e-20)
(-0.0149985 0.0226209 -5.84607e-20)
(-0.00492443 0.0260332 8.13436e-20)
(0.00654357 0.0288219 -2.61066e-20)
(0.0190342 0.0315276 -3.64153e-21)
(0.0325762 0.0340914 -3.40474e-21)
(0.0469879 0.0365908 -3.16136e-21)
(0.0621743 0.0389872 -1.41444e-20)
(0.078027 0.0412647 2.7496e-21)
(0.0944422 0.0433806 1.31675e-20)
(0.111323 0.0452779 -4.22779e-21)
(-0.0482196 -0.00730172 7.61652e-20)
(-0.0524783 -0.0020267 -1.06928e-20)
(-0.0531552 0.00170338 5.90362e-20)
(-0.0524852 0.00603667 -3.51451e-21)
(-0.0494499 0.00985254 7.09784e-20)
(-0.0446454 0.0134069 -1.11795e-19)
(-0.0378595 0.0166598 3.45894e-20)
(-0.0294246 0.0194681 -2.12888e-20)
(-0.019491 0.0223681 4.62947e-21)
(-0.0080979 0.024883 1.15584e-20)
(0.00446672 0.0273814 4.78164e-21)
(0.0181656 0.0297543 -8.48121e-21)
(0.0328125 0.0321175 1.54639e-20)
(0.0482843 0.0344392 -1.51986e-20)
(0.064473 0.0366861 1.93025e-21)
(0.0812691 0.0388075 -5.83781e-22)
(0.098572 0.0407403 1.59409e-21)
(-0.0548575 -0.00456847 -3.55736e-20)
(-0.0599781 -0.000515866 -4.73311e-20)
(-0.0619112 0.00240741 6.06894e-21)
(-0.0621445 0.00573324 2.17392e-20)
(-0.0599262 0.00868196 9.49405e-21)
(-0.0557018 0.0114541 -8.67751e-21)
(-0.0493674 0.0140694 -1.1259e-20)
(-0.0412076 0.016339 1.67098e-20)
(-0.0314061 0.0186833 1.1339e-21)
(-0.0200714 0.0208512 -6.44786e-21)
(-0.00746201 0.0230895 6.93919e-21)
(0.00634047 0.0252983 -2.48447e-21)
(0.0211641 0.0275173 -1.10934e-20)
(0.0368627 0.0297551 1.0689e-20)
(0.0533214 0.0319666 -7.37655e-21)
(0.0704292 0.0340908 -1.39512e-22)
(0.0880831 0.036058 8.87666e-22)
(-0.0598125 -0.0015067 2.65729e-20)
(-0.0656354 0.00135562 -1.33271e-20)
(-0.0685534 0.00337793 1.55155e-20)
(-0.0695137 0.00562989 -2.1708e-20)
(-0.067942 0.00764046 1.06711e-20)
(-0.0641806 0.00956243 -3.54123e-21)
(-0.0582089 0.0114449 8.93649e-21)
(-0.0502871 0.0131545 -6.97352e-21)
(-0.0406092 0.0149808 2.25917e-21)
(-0.0293307 0.0167692 -1.54727e-21)
(-0.0166954 0.0187097 2.80415e-21)
(-0.00282758 0.0207207 -5.21649e-21)
(0.0121151 0.0228178 2.48882e-21)
(0.0279815 0.0249584 -6.77827e-22)
(0.0446456 0.0271296 -5.56446e-22)
(0.0619953 0.0292536 3.86624e-22)
(0.0799279 0.0312532 6.84986e-22)
(-0.0631273 0.00182287 1.47249e-21)
(-0.0694869 0.00351265 -6.72637e-22)
(-0.0731151 0.00454642 -1.61051e-21)
(-0.0746101 0.00567926 1.47025e-21)
(-0.0735043 0.00669647 -3.13113e-22)
(-0.0700781 0.00772165 -6.36319e-22)
(-0.0643703 0.00883091 1.18811e-22)
(-0.0566276 0.00993405 7.55869e-24)
(-0.0470543 0.0112471 1.62101e-22)
(-0.0358308 0.0126424 -1.27694e-22)
(-0.0231913 0.0142807 -8.16851e-22)
(-0.00928667 0.0160554 8.46946e-22)
(0.00572691 0.0180328 -9.79784e-22)
(0.021696 0.0200719 1.02347e-21)
(0.0385029 0.0221985 -6.54551e-22)
(0.0560249 0.0243189 3.90227e-22)
(0.074163 0.0263483 -4.09409e-22)
(-0.0648272 0.00535399 -1.61634e-21)
(-0.0715553 0.00587132 8.59705e-22)
(-0.0756196 0.00585537 -9.59277e-22)
(-0.0774442 0.00583102 -2.23237e-22)
(-0.0766158 0.00581439 2.68509e-21)
(-0.0733865 0.00591042 -1.78287e-21)
(-0.0678381 0.00622852 -4.53799e-22)
(-0.0602093 0.00669242 1.34541e-21)
(-0.0507099 0.00748062 -3.40318e-22)
(-0.0395348 0.00847426 -6.09811e-22)
(-0.0269121 0.00980991 1.32966e-22)
(-0.0130025 0.0113483 1.36309e-21)
(0.00203758 0.0131796 -9.14369e-22)
(0.0180495 0.0151183 -6.69769e-23)
(0.034935 0.017197 -4.1435e-24)
(0.0525592 0.0193106 -4.77225e-22)
(0.0708288 0.0213664 6.74816e-22)
)
;

boundaryField
{
    inlet
    {
        type            uniformFixedValue;
        uniformValue    constant (1 0 0);
        value           nonuniform 0();
    }
    outlet
    {
        type            pressureInletOutletVelocity;
        value           nonuniform 0();
    }
    cylinder
    {
        type            fixedValue;
        value           nonuniform 0();
    }
    top
    {
        type            symmetryPlane;
    }
    bottom
    {
        type            symmetryPlane;
    }
    defaultFaces
    {
        type            empty;
    }
    procBoundary16to9
    {
        type            processor;
        value           nonuniform List<vector> 9((0.110854 -0.00383545 1.6475e-20) (0.0739184 -0.00787369 -5.3424e-18) (0.0739184 -0.00787369 -5.3424e-18) (0.0447084 -0.0127996 -4.52841e-18) (0.0447084 -0.0127996 -4.52841e-18) (0.0223527 -0.0175007 6.63138e-19) (0.0223527 -0.0175007 6.63138e-19) (0.00494703 -0.0210407 7.3978e-19) (0.00494703 -0.0210407 7.3978e-19));
    }
    procBoundary16to10
    {
        type            processor;
        value           nonuniform List<vector> 
25
(
(0.12612 -0.00291749 3.53752e-19)
(0.113684 -0.00526633 -1.11689e-18)
(0.113684 -0.00526633 -1.11689e-18)
(0.128769 -0.00524765 -6.39492e-19)
(0.115452 -0.00967511 7.43088e-19)
(0.115452 -0.00967511 7.43088e-19)
(0.130051 -0.0106303 -2.6146e-19)
(0.140688 -0.00402639 4.21221e-19)
(0.151686 0.00817816 -3.79493e-19)
(0.169987 0.0150114 2.42483e-19)
(0.183736 0.0219041 -4.18731e-19)
(0.195877 0.0293326 7.40572e-19)
(0.206459 0.0358183 -3.53653e-19)
(0.216239 0.0416685 9.55642e-20)
(0.225442 0.0470323 -2.29222e-19)
(0.234337 0.0518889 1.31455e-21)
(0.243149 0.0563024 -9.29238e-20)
(0.252016 0.0602927 1.47445e-20)
(0.261043 0.063893 4.08343e-19)
(0.270283 0.0671241 -2.97582e-19)
(0.27976 0.0699978 1.00274e-19)
(0.289469 0.072513 2.45763e-20)
(0.299388 0.0746538 -6.15535e-21)
(0.30948 0.0763903 2.19123e-20)
(0.319703 0.0776774 -1.47264e-19)
)
;
    }
    procBoundary16to15
    {
        type            processor;
        value           nonuniform List<vector> 
17
(
(-0.00943144 -0.0248495 -7.55029e-19)
(-0.00943144 -0.0248495 -7.55029e-19)
(-0.0176248 -0.0306367 1.54509e-19)
(-0.0176248 -0.0306367 1.54509e-19)
(-0.0200058 -0.0316053 -1.72933e-18)
(-0.0255289 -0.0262976 1.37561e-19)
(-0.0255289 -0.0262976 1.37561e-19)
(-0.0374821 -0.0259198 -2.02532e-19)
(-0.0383522 -0.0387613 -7.14128e-20)
(-0.0383522 -0.0387613 -7.14128e-20)
(-0.0212859 -0.0484348 -2.55246e-19)
(-0.0122837 -0.0274872 -9.90857e-20)
(-0.0122837 -0.0274872 -9.90857e-20)
(-0.0195198 -0.00106607 5.2757e-20)
(-0.0440525 -0.0145505 -6.51696e-20)
(-0.0322442 -0.0391819 -4.49306e-22)
(-0.0168149 -0.0278638 3.30093e-21)
)
;
    }
    procBoundary16to17
    {
        type            processor;
        value           nonuniform List<vector> 
15
(
(0.304244 0.0760694 2.50036e-20)
(0.279468 0.0734098 4.16058e-20)
(0.255839 0.0704869 -4.25474e-21)
(0.233509 0.0673109 -1.47332e-20)
(0.19773 0.062955 -2.04491e-20)
(0.19773 0.062955 -2.04491e-20)
(0.177665 0.0592484 -4.12634e-21)
(0.159371 0.055322 -1.1646e-20)
(0.142971 0.051193 1.13489e-20)
(0.128577 0.0468799 -1.888e-22)
(0.116287 0.0424019 -4.02825e-21)
(0.106186 0.0377796 2.88717e-21)
(0.0983443 0.033034 -2.62289e-22)
(0.0928179 0.0281871 -8.42677e-22)
(0.0896458 0.0232614 3.2162e-23)
)
;
    }
    procBoundary16to21
    {
        type            processor;
        value           uniform (-0.0194588 -0.00418068 -1.16829e-20);
    }
    procBoundary16to22
    {
        type            processor;
        value           nonuniform List<vector> 
33
(
(-0.027807 -0.00284985 -2.29698e-20)
(-0.0273819 -0.00342431 1.27187e-20)
(-0.0280411 -0.00304567 -2.76544e-20)
(-0.029455 -0.00208888 -2.74011e-20)
(-0.0314078 -0.000827528 -9.47821e-21)
(-0.0337311 0.000547522 -2.32264e-20)
(-0.0362957 0.0019096 1.42463e-20)
(-0.0429335 -0.0002828 1.7087e-20)
(-0.0390095 0.00318163 -4.72594e-21)
(-0.0429335 -0.0002828 1.7087e-20)
(-0.0457213 0.000763773 -2.03873e-20)
(-0.0485222 0.00167261 8.68968e-21)
(-0.0513316 0.00242949 -1.87414e-22)
(-0.0541159 0.00299536 2.20988e-22)
(-0.0569133 0.00383472 -9.02058e-21)
(-0.0596726 0.00573144 2.01752e-20)
(-0.0649297 0.00901777 3.5531e-21)
(-0.0718519 0.00834133 -2.47865e-21)
(-0.0760759 0.00724111 1.90278e-21)
(-0.0780204 0.00603158 -4.61818e-22)
(-0.0772759 0.00495647 -4.62549e-21)
(-0.0740981 0.00410914 3.95706e-21)
(-0.0686012 0.00362749 -2.8257e-23)
(-0.0610185 0.00343662 -3.02796e-21)
(-0.0515584 0.00369594 1.33093e-21)
(-0.040422 0.00427646 1.58588e-21)
(-0.0278316 0.00530861 -7.90801e-23)
(-0.0139509 0.00661148 -8.23553e-22)
(0.00106934 0.00829266 1.02443e-21)
(0.0170672 0.0101226 -1.07261e-21)
(0.0339672 0.0121504 -4.95526e-23)
(0.0516228 0.0142539 7.81427e-22)
(0.0699493 0.016334 -1.83769e-21)
)
;
    }
}


// ************************************************************************* //
