/*--------------------------------*- C++ -*----------------------------------*\
  =========                 |
  \\      /  F ield         | OpenFOAM: The Open Source CFD Toolbox
   \\    /   O peration     | Website:  https://openfoam.org
    \\  /    A nd           | Version:  7
     \\/     M anipulation  |
\*---------------------------------------------------------------------------*/
FoamFile
{
    version     2.0;
    format      ascii;
    class       volVectorField;
    location    "6";
    object      U;
}
// * * * * * * * * * * * * * * * * * * * * * * * * * * * * * * * * * * * * * //

dimensions      [0 1 -1 0 0 0 0];

internalField   nonuniform List<vector> 
344
(
(1.06578 0.0291129 -2.8496e-16)
(1.06686 0.0286357 -2.75596e-16)
(1.06795 0.0281684 -2.6888e-16)
(1.06903 0.0277109 -2.53384e-16)
(1.07012 0.0272628 -2.43874e-16)
(1.0712 0.026824 -2.07452e-16)
(1.07229 0.0263943 -2.05437e-16)
(1.07337 0.0259734 -1.97661e-16)
(1.07446 0.0255611 -1.82564e-16)
(1.07554 0.0251573 -1.71984e-16)
(1.07662 0.0247617 -1.59034e-16)
(1.07771 0.0243742 -1.51723e-16)
(1.07878 0.0239946 -1.4383e-16)
(1.07986 0.0236226 -1.35965e-16)
(1.08094 0.0232582 -1.00059e-16)
(1.08201 0.0229011 -9.47945e-17)
(1.08308 0.0225512 -8.37618e-17)
(1.08414 0.0222082 -7.55446e-17)
(1.08521 0.0218721 -4.18155e-17)
(1.08626 0.0215427 -3.9329e-17)
(1.08732 0.0212198 -3.39428e-17)
(1.08837 0.0209032 -3.11666e-17)
(1.08942 0.0205928 4.50993e-18)
(1.09046 0.0202885 1.06935e-18)
(1.0915 0.0199901 4.29689e-18)
(1.09254 0.0196975 1.01185e-17)
(1.09357 0.0194105 1.82342e-17)
(1.09459 0.019129 2.27166e-17)
(1.09562 0.0188529 2.62788e-17)
(1.09663 0.0185821 2.96459e-17)
(1.09764 0.0183163 6.37283e-17)
(1.09865 0.0180556 6.84679e-17)
(1.09965 0.0177998 7.28635e-17)
(1.10064 0.0175487 7.98281e-17)
(1.10163 0.0173023 8.30927e-17)
(1.10262 0.0170604 8.94274e-17)
(1.1036 0.016823 9.64363e-17)
(1.10457 0.0165899 9.92479e-17)
(1.10553 0.016361 1.04071e-16)
(1.1065 0.0161363 1.36292e-16)
(1.10745 0.0159156 1.34939e-16)
(1.1084 0.0156988 1.41671e-16)
(1.10934 0.015486 1.46413e-16)
(1.11028 0.0152768 1.749e-16)
(1.11121 0.0150714 1.746e-16)
(0.916847 0.0404623 -6.51309e-16)
(0.918826 0.0397275 -6.32986e-16)
(0.920794 0.0390072 -6.21972e-16)
(0.922752 0.0383013 -5.97842e-16)
(0.924699 0.0376096 -5.81042e-16)
(0.926636 0.036932 -5.64945e-16)
(0.928562 0.0362682 -5.4554e-16)
(0.930477 0.0356181 -5.36902e-16)
(0.932382 0.0349815 -5.17314e-16)
(0.934276 0.0343581 -5.07231e-16)
(0.936158 0.0337478 -4.88656e-16)
(0.93803 0.0331503 -4.81464e-16)
(0.93989 0.0325654 -4.58214e-16)
(0.941739 0.0319928 -4.41892e-16)
(0.943576 0.0314324 -4.22764e-16)
(0.945401 0.0308839 -4.13137e-16)
(0.947215 0.0303471 -3.92041e-16)
(0.949017 0.0298217 -3.77571e-16)
(0.950807 0.0293075 -3.60411e-16)
(0.952585 0.0288042 -3.55997e-16)
(0.954351 0.0283117 -3.34716e-16)
(0.956105 0.0278296 -3.23054e-16)
(0.957847 0.0273579 -3.08752e-16)
(0.959576 0.0268962 -3.0359e-16)
(0.961293 0.0264443 -2.85826e-16)
(0.962997 0.026002 -2.83265e-16)
(0.964689 0.0255691 -2.65528e-16)
(0.966368 0.0251454 -2.61134e-16)
(0.968035 0.0247306 -2.42217e-16)
(0.969689 0.0243246 -2.31104e-16)
(0.971331 0.0239272 -2.23033e-16)
(0.97296 0.0235381 -2.01013e-16)
(0.974576 0.0231572 -1.92946e-16)
(0.976179 0.0227842 -1.78778e-16)
(0.97777 0.022419 -1.76987e-16)
(0.979348 0.0220614 -1.60944e-16)
(0.980914 0.0217113 -1.5802e-16)
(0.982467 0.0213683 -1.42295e-16)
(0.984007 0.0210325 -1.29398e-16)
(0.985535 0.0207035 -1.10598e-16)
(0.98705 0.0203813 -1.08019e-16)
(0.988552 0.0200656 -9.34353e-17)
(0.990042 0.0197564 -8.35957e-17)
(0.99152 0.0194534 -6.66371e-17)
(0.992985 0.0191565 -6.63789e-17)
(0.994437 0.0188656 -4.887e-17)
(0.995878 0.0185804 -4.14326e-17)
(0.997305 0.018301 -2.81304e-17)
(0.998721 0.0180271 -2.69251e-17)
(1.00012 0.0177586 -1.45573e-17)
(1.00152 0.0174954 -1.50314e-17)
(1.00289 0.0172374 -2.67874e-18)
(1.00426 0.0169843 -5.25415e-18)
(1.00562 0.0167362 1.58362e-17)
(1.00696 0.0164928 2.29898e-17)
(1.00829 0.0162542 2.83696e-17)
(1.00961 0.01602 4.10947e-17)
(1.01092 0.0157904 4.27535e-17)
(1.01221 0.015565 5.40629e-17)
(1.0135 0.0153439 5.47718e-17)
(1.01477 0.015127 6.53851e-17)
(1.01603 0.0149141 6.45026e-17)
(1.01728 0.0147051 7.98574e-17)
(1.01852 0.0145 8.73332e-17)
(1.01975 0.0142986 9.85525e-17)
(1.02096 0.0141009 9.61856e-17)
(1.02217 0.0139067 1.13881e-16)
(1.02336 0.0137161 1.18949e-16)
(0.853758 0.0388371 -6.41978e-16)
(0.856255 0.0381234 -6.28433e-16)
(0.858731 0.0374238 -6.12481e-16)
(0.861184 0.0367383 -5.91635e-16)
(0.863616 0.0360666 -5.75162e-16)
(0.866025 0.0354087 -5.59117e-16)
(0.868414 0.0347644 -5.48692e-16)
(0.870781 0.0341335 -5.32322e-16)
(0.873126 0.0335157 -5.21453e-16)
(0.875451 0.032911 -5.04315e-16)
(0.877754 0.032319 -4.94375e-16)
(0.880036 0.0317395 -4.79138e-16)
(0.882298 0.0311724 -4.61166e-16)
(0.884539 0.0306174 -4.42506e-16)
(0.88676 0.0300743 -4.32823e-16)
(0.88896 0.0295428 -4.15495e-16)
(0.89114 0.0290228 -3.96514e-16)
(0.893299 0.0285139 -3.83594e-16)
(0.895438 0.028016 -3.75365e-16)
(0.897558 0.0275288 -3.6016e-16)
(0.899657 0.0270521 -3.42972e-16)
(0.901737 0.0265857 -3.32374e-16)
(0.903797 0.0261294 -3.25406e-16)
(0.905838 0.0256828 -3.11603e-16)
(0.907859 0.0252459 -3.02717e-16)
(0.90986 0.0248184 -2.90151e-16)
(0.911843 0.0244 -2.82206e-16)
(0.913806 0.0239906 -2.68349e-16)
(0.915751 0.02359 -2.54513e-16)
(0.917677 0.0231979 -2.42102e-16)
(0.919584 0.0228142 -2.33795e-16)
(0.921473 0.0224387 -2.24657e-16)
(0.923343 0.0220711 -2.07635e-16)
(0.925195 0.0217113 -1.99011e-16)
(0.927028 0.0213591 -1.88639e-16)
(0.928844 0.0210143 -1.81147e-16)
(0.930642 0.0206767 -1.69872e-16)
(0.932423 0.0203462 -1.58729e-16)
(0.934185 0.0200226 -1.44652e-16)
(0.935931 0.0197057 -1.35847e-16)
(0.937659 0.0193954 -1.24215e-16)
(0.939369 0.0190914 -1.13067e-16)
(0.941063 0.0187937 -1.02773e-16)
(0.94274 0.0185022 -9.55156e-17)
(0.944401 0.0182165 -8.50718e-17)
(0.946045 0.0179367 -7.30868e-17)
(0.947672 0.0176625 -6.45868e-17)
(0.949283 0.0173939 -5.84605e-17)
(0.950878 0.0171306 -4.72183e-17)
(0.952457 0.0168726 -4.26049e-17)
(0.954021 0.0166198 -3.31355e-17)
(0.955568 0.0163719 -3.04204e-17)
(0.9571 0.0161289 -2.09867e-17)
(0.958617 0.0158907 -7.23103e-18)
(0.960119 0.0156571 3.16333e-18)
(0.961605 0.0154281 9.40047e-18)
(0.963077 0.0152035 1.21277e-17)
(0.964533 0.0149832 2.10905e-17)
(0.965975 0.0147672 2.47e-17)
(0.967403 0.0145552 3.37881e-17)
(0.968816 0.0143473 3.45379e-17)
(0.970215 0.0141432 4.39466e-17)
(0.9716 0.013943 5.53127e-17)
(0.972971 0.0137465 6.2585e-17)
(0.974328 0.0135537 6.67982e-17)
(0.975671 0.0133644 7.47629e-17)
(0.977001 0.0131786 8.7161e-17)
(0.978318 0.0129962 9.4241e-17)
(0.795499 0.0363979 -6.14285e-16)
(0.798447 0.0357223 -5.99633e-16)
(0.801362 0.0350603 -5.83689e-16)
(0.804243 0.0344119 -5.67682e-16)
(0.807093 0.0337768 -5.51361e-16)
(0.80991 0.0331549 -5.38765e-16)
(0.812696 0.0325461 -5.2504e-16)
(0.81545 0.03195 -5.11641e-16)
(0.818174 0.0313666 -4.98092e-16)
(0.820867 0.0307956 -4.84937e-16)
(0.82353 0.0302369 -4.7222e-16)
(0.826163 0.0296901 -4.60492e-16)
(0.828767 0.0291551 -4.42978e-16)
(0.831341 0.0286317 -4.29836e-16)
(0.833887 0.0281196 -4.16549e-16)
(0.836404 0.0276187 -3.99612e-16)
(0.838893 0.0271286 -3.86351e-16)
(0.841354 0.0266492 -3.74391e-16)
(0.843788 0.0261802 -3.62394e-16)
(0.846194 0.0257214 -3.48361e-16)
(0.848573 0.0252726 -3.36281e-16)
(0.850925 0.0248336 -3.27124e-16)
(0.853251 0.0244041 -3.16779e-16)
(0.855551 0.023984 -3.06347e-16)
(0.857825 0.023573 -2.94151e-16)
(0.860074 0.023171 -2.82738e-16)
(0.862298 0.0227776 -2.72911e-16)
(0.864496 0.0223927 -2.63579e-16)
(0.86667 0.0220162 -2.50901e-16)
(0.868819 0.0216478 -2.38932e-16)
(0.870945 0.0212872 -2.27918e-16)
(0.873046 0.0209345 -2.17022e-16)
(0.875124 0.0205892 -2.06122e-16)
(0.877179 0.0202514 -1.96965e-16)
(0.879211 0.0199207 -1.87334e-16)
(0.88122 0.0195971 -1.7905e-16)
(0.883207 0.0192802 -1.72094e-16)
(0.885171 0.0189701 -1.59094e-16)
(0.887114 0.0186665 -1.47158e-16)
(0.889035 0.0183692 -1.38561e-16)
(0.890934 0.0180782 -1.29691e-16)
(0.892812 0.0177932 -1.18682e-16)
(0.89467 0.0175141 -1.08398e-16)
(0.896507 0.0172407 -1.00873e-16)
(0.898323 0.016973 -9.15432e-17)
(0.900119 0.0167107 -8.17784e-17)
(0.901896 0.0164538 -7.23305e-17)
(0.903652 0.0162021 -6.24782e-17)
(0.90539 0.0159555 -5.64539e-17)
(0.907108 0.0157138 -5.04551e-17)
(0.908807 0.015477 -4.30667e-17)
(0.910487 0.0152449 -3.80906e-17)
(0.912149 0.0150174 -2.91446e-17)
(0.913793 0.0147944 -1.77566e-17)
(0.915419 0.0145758 -1.00299e-17)
(0.917026 0.0143614 -2.30331e-18)
(0.918616 0.0141513 1.59512e-18)
(0.920189 0.0139451 1.03203e-17)
(0.921745 0.013743 1.63051e-17)
(0.923283 0.0135447 2.09962e-17)
(0.924805 0.0133502 2.74546e-17)
(0.92631 0.0131594 3.39111e-17)
(0.927799 0.0129722 4.29683e-17)
(0.929271 0.0127885 4.84203e-17)
(0.930728 0.0126082 5.57974e-17)
(0.932169 0.0124312 6.27033e-17)
(0.933594 0.0122575 6.9345e-17)
(0.736673 0.0345627 -5.96633e-16)
(0.740054 0.0339141 -5.85294e-16)
(0.743392 0.0332787 -5.72806e-16)
(0.746686 0.0326564 -5.56225e-16)
(0.749938 0.0320469 -5.41039e-16)
(0.753149 0.0314503 -5.25539e-16)
(0.756318 0.0308662 -5.16075e-16)
(0.759446 0.0302945 -5.0003e-16)
(0.762534 0.029735 -4.89566e-16)
(0.765583 0.0291876 -4.7454e-16)
(0.768593 0.0286519 -4.66111e-16)
(0.771565 0.0281279 -4.55916e-16)
(0.774499 0.0276153 -4.39397e-16)
(0.777395 0.0271138 -4.24326e-16)
(0.780255 0.0266233 -4.11669e-16)
(0.783079 0.0261436 -4.01628e-16)
(0.785866 0.0256743 -3.86537e-16)
(0.788619 0.0252154 -3.71348e-16)
(0.791337 0.0247666 -3.63188e-16)
(0.794021 0.0243276 -3.53241e-16)
(0.796671 0.0238983 -3.40889e-16)
(0.799288 0.0234784 -3.26981e-16)
(0.801872 0.0230678 -3.19221e-16)
(0.804423 0.0226662 -3.05826e-16)
(0.806943 0.0222734 -2.97199e-16)
(0.809431 0.0218892 -2.83852e-16)
(0.811889 0.0215134 -2.78186e-16)
(0.814316 0.0211459 -2.72083e-16)
(0.816712 0.0207863 -2.57722e-16)
(0.81908 0.0204346 -2.44139e-16)
(0.821417 0.0200905 -2.30544e-16)
(0.823726 0.0197539 -2.22094e-16)
(0.826007 0.0194246 -2.11031e-16)
(0.828259 0.0191023 -2.03314e-16)
(0.830484 0.018787 -1.92444e-16)
(0.832682 0.0184785 -1.85198e-16)
(0.834853 0.0181765 -1.81891e-16)
(0.836997 0.017881 -1.70331e-16)
(0.839116 0.0175917 -1.55865e-16)
(0.841208 0.0173086 -1.49085e-16)
(0.843275 0.0170314 -1.441e-16)
(0.845318 0.0167601 -1.34923e-16)
(0.847335 0.0164945 -1.20284e-16)
(0.849329 0.0162343 -1.15621e-16)
(0.851298 0.0159796 -1.07302e-16)
(0.853244 0.0157302 -9.72845e-17)
(0.855166 0.0154859 -8.4727e-17)
(0.857066 0.0152465 -7.67147e-17)
(0.858943 0.0150121 -6.83295e-17)
(0.860798 0.0147825 -6.34969e-17)
(0.86263 0.0145575 -5.56103e-17)
(0.864441 0.014337 -5.18497e-17)
(0.866231 0.0141209 -4.63908e-17)
(0.868 0.0139092 -3.57018e-17)
(0.869748 0.0137016 -2.63498e-17)
(0.871475 0.0134982 -1.52801e-17)
(0.873182 0.0132987 -1.47374e-17)
(0.874869 0.0131032 -4.24434e-18)
(0.876537 0.0129115 1.43971e-18)
(0.878185 0.0127234 9.78204e-18)
(0.879814 0.012539 1.15125e-17)
(0.881424 0.0123581 1.48841e-17)
(0.883016 0.0121807 2.22275e-17)
(0.884589 0.0120066 3.19703e-17)
(0.886145 0.0118358 3.68078e-17)
(0.887682 0.0116682 3.97765e-17)
(0.889202 0.0115038 4.82361e-17)
(0.679873 0.0326324 -5.85746e-16)
(0.683646 0.0320136 -5.69428e-16)
(0.687366 0.0314075 -5.6027e-16)
(0.691032 0.0308139 -5.4315e-16)
(0.694647 0.0302327 -5.29021e-16)
(0.698211 0.0296638 -5.20292e-16)
(0.701725 0.0291069 -5.04418e-16)
(0.705189 0.028562 -4.96656e-16)
(0.708605 0.0280288 -4.79835e-16)
(0.711973 0.0275072 -4.72418e-16)
(0.715294 0.0269969 -4.56208e-16)
(0.718569 0.0264977 -4.50341e-16)
(0.721798 0.0260095 -4.34624e-16)
(0.724982 0.0255321 -4.27125e-16)
(0.728123 0.0250652 -4.07186e-16)
(0.73122 0.0246086 -4.01222e-16)
(0.734274 0.0241621 -3.84345e-16)
(0.737286 0.0237255 -3.77206e-16)
(0.740258 0.0232986 -3.6176e-16)
(0.743188 0.0228811 -3.56688e-16)
(0.746079 0.022473 -3.43614e-16)
(0.74893 0.0220739 -3.37022e-16)
(0.751742 0.0216836 -3.20552e-16)
(0.754517 0.0213021 -3.16576e-16)
(0.757254 0.0209289 -2.97393e-16)
(0.759954 0.0205641 -2.94897e-16)
(0.762618 0.0202073 -2.80251e-16)
(0.765246 0.0198583 -2.79755e-16)
(0.767839 0.0195171 -2.6282e-16)
)
;

boundaryField
{
    inlet
    {
        type            uniformFixedValue;
        uniformValue    constant (1 0 0);
        value           nonuniform 0();
    }
    outlet
    {
        type            pressureInletOutletVelocity;
        value           nonuniform 0();
    }
    wall
    {
        type            fixedValue;
        value           nonuniform 0();
    }
    wedge1
    {
        type            wedge;
    }
    wedge2
    {
        type            wedge;
    }
    axis
    {
        type            empty;
    }
    procBoundary22to16
    {
        type            processor;
        value           nonuniform List<vector> 
69
(
(1.23272 0.0317116 -2.39315e-16)
(1.2327 0.0312147 -2.33177e-16)
(1.2327 0.0307278 -2.19377e-16)
(1.23272 0.0302505 -2.11446e-16)
(1.23276 0.0297827 -2.03035e-16)
(1.23282 0.0293242 -1.60435e-16)
(1.2329 0.0288748 -1.52688e-16)
(1.23301 0.0284342 -1.42552e-16)
(1.23313 0.0280023 -1.29649e-16)
(1.23327 0.0275789 -1.15667e-16)
(1.23342 0.0271638 -1.06089e-16)
(1.2336 0.0267567 -9.66668e-17)
(1.23379 0.0263576 -9.29769e-17)
(1.23399 0.0259663 -8.66457e-17)
(1.23421 0.0255825 -4.21674e-17)
(1.23444 0.0252061 -3.69714e-17)
(1.23469 0.0248369 -2.57659e-17)
(1.23494 0.0244748 -1.58973e-17)
(1.23521 0.0241196 1.90121e-17)
(1.2355 0.0237712 2.55494e-17)
(1.23579 0.0234293 2.60931e-17)
(1.23609 0.0230939 2.86833e-17)
(1.23641 0.0227647 6.63776e-17)
(1.23673 0.0224418 6.56435e-17)
(1.23706 0.0221248 6.90207e-17)
(1.2374 0.0218137 8.04224e-17)
(1.23775 0.0215083 8.04146e-17)
(1.23811 0.0212085 8.95577e-17)
(1.23847 0.0209142 9.08973e-17)
(1.23884 0.0206253 9.22537e-17)
(1.23922 0.0203415 1.33382e-16)
(1.2396 0.0200629 1.35846e-16)
(1.23999 0.0197893 1.45092e-16)
(1.24039 0.0195206 1.53146e-16)
(1.24079 0.0192566 1.61206e-16)
(1.24119 0.0189973 1.62709e-16)
(1.2416 0.0187425 1.67087e-16)
(1.24202 0.0184922 1.66366e-16)
(1.24244 0.0182462 1.69284e-16)
(1.24286 0.0180044 2.08665e-16)
(1.24328 0.0177669 2.11912e-16)
(1.24371 0.0175334 2.18591e-16)
(1.24415 0.0173038 2.25198e-16)
(1.24458 0.0170781 2.50783e-16)
(1.24502 0.0168562 2.55067e-16)
(1.04238 0.0433574 -6.64971e-16)
(1.04329 0.0425886 -6.49831e-16)
(1.04422 0.0418347 -6.34537e-16)
(1.04516 0.0410958 -5.98833e-16)
(1.04611 0.0403715 -5.84837e-16)
(1.04707 0.0396617 -5.70629e-16)
(1.04805 0.0389662 -5.53497e-16)
(1.04903 0.0382848 -5.42687e-16)
(1.05003 0.0376173 -5.23614e-16)
(1.05103 0.0369635 -5.10919e-16)
(1.05204 0.0363231 -4.94656e-16)
(1.05307 0.0356959 -4.82848e-16)
(1.0541 0.0350817 -4.44224e-16)
(1.05513 0.0344802 -4.32634e-16)
(1.05618 0.0338912 -4.18055e-16)
(1.05723 0.0333144 -4.0675e-16)
(1.05828 0.0327497 -3.68138e-16)
(1.05934 0.0321967 -3.62066e-16)
(1.06041 0.0316553 -3.50921e-16)
(1.06147 0.0311251 -3.45116e-16)
(1.06255 0.0306061 -3.09123e-16)
(1.06362 0.0300978 -3.02655e-16)
(1.0647 0.0296001 -2.93551e-16)
(1.0647 0.0296001 -2.93551e-16)
)
;
    }
    procBoundary22to17
    {
        type            processor;
        value           uniform (1.11214 0.0148695 1.75843e-16);
    }
    procBoundary22to21
    {
        type            processor;
        value           nonuniform List<vector> 5((0.914858 0.0412117 -6.64608e-16) (0.851238 0.0395652 -6.58956e-16) (0.792518 0.0370873 -6.28015e-16) (0.792518 0.0370873 -6.28015e-16) (0.733247 0.0352246 -6.12152e-16));
    }
    procBoundary22to23
    {
        type            processor;
        value           nonuniform List<vector> 4((1.02455 0.0135289 1.31715e-16) (0.979621 0.0128171 9.64455e-17) (0.935004 0.012087 7.72303e-17) (0.890704 0.0113423 5.9644e-17));
    }
    procBoundary22to27
    {
        type            processor;
        value           uniform (0.676045 0.0332639 -5.94479e-16);
    }
    procBoundary22to28
    {
        type            processor;
        value           nonuniform List<vector> 
68
(
(0.770398 0.0191834 -2.47369e-16)
(0.772923 0.018857 -2.43512e-16)
(0.775414 0.0185377 -2.25731e-16)
(0.777872 0.0182254 -2.24464e-16)
(0.780298 0.0179199 -2.09858e-16)
(0.782692 0.0176211 -2.07823e-16)
(0.785055 0.0173287 -1.95084e-16)
(0.787386 0.0170426 -1.90916e-16)
(0.789688 0.0167627 -1.80467e-16)
(0.791959 0.0164888 -1.74358e-16)
(0.794202 0.0162207 -1.6005e-16)
(0.796415 0.0159583 -1.56719e-16)
(0.7986 0.0157016 -1.46611e-16)
(0.800756 0.0154502 -1.42073e-16)
(0.802885 0.0152041 -1.27458e-16)
(0.804987 0.0149632 -1.23994e-16)
(0.807063 0.0147274 -1.11233e-16)
(0.809112 0.0144964 -1.08749e-16)
(0.811135 0.0142702 -9.0935e-17)
(0.813132 0.0140487 -9.20189e-17)
(0.815105 0.0138317 -7.78832e-17)
(0.817052 0.0136192 -7.63767e-17)
(0.818976 0.013411 -6.63637e-17)
(0.820875 0.013207 -6.36358e-17)
(0.822751 0.0130071 -5.2774e-17)
(0.824604 0.0128112 -3.93431e-17)
(0.826434 0.0126192 -3.80817e-17)
(0.828241 0.0124311 -2.78659e-17)
(0.830026 0.0122466 -2.81808e-17)
(0.83179 0.0120658 -1.50405e-17)
(0.833531 0.0118885 -1.43544e-17)
(0.835252 0.0117147 -2.80194e-18)
(0.836952 0.0115442 -3.53637e-18)
(0.838631 0.011377 5.5127e-18)
(0.84029 0.011213 7.39601e-18)
(0.841928 0.0110521 1.80045e-17)
(0.843548 0.0108943 1.77435e-17)
(0.845148 0.0107394 2.89088e-17)
(0.625182 0.0306223 -5.65332e-16)
(0.629302 0.0300358 -5.51247e-16)
(0.633359 0.0294614 -5.47073e-16)
(0.637355 0.028899 -5.27783e-16)
(0.64129 0.0283483 -5.13283e-16)
(0.645166 0.0278094 -5.05601e-16)
(0.648983 0.027282 -4.89155e-16)
(0.652743 0.026766 -4.82241e-16)
(0.656447 0.0262611 -4.6637e-16)
(0.660095 0.0257673 -4.58906e-16)
(0.663688 0.0252843 -4.45636e-16)
(0.667229 0.024812 -4.45284e-16)
(0.670716 0.0243501 -4.26758e-16)
(0.674152 0.0238985 -4.18096e-16)
(0.677538 0.0234569 -4.01703e-16)
(0.680873 0.0230251 -4.02175e-16)
(0.68416 0.022603 -3.80652e-16)
(0.687398 0.0221904 -3.72718e-16)
(0.690589 0.021787 -3.58053e-16)
(0.693734 0.0213926 -3.60045e-16)
(0.696833 0.021007 -3.41233e-16)
(0.699888 0.0206301 -3.33838e-16)
(0.702898 0.0202617 -3.18271e-16)
(0.705865 0.0199015 -3.1389e-16)
(0.70879 0.0195493 -2.96756e-16)
(0.711672 0.019205 -2.91224e-16)
(0.714514 0.0188684 -2.80837e-16)
(0.717315 0.0185393 -2.84734e-16)
(0.770398 0.0191834 -2.47369e-16)
(0.720077 0.0182175 -2.63709e-16)
)
;
    }
}


// ************************************************************************* //
