/*--------------------------------*- C++ -*----------------------------------*\
  =========                 |
  \\      /  F ield         | OpenFOAM: The Open Source CFD Toolbox
   \\    /   O peration     | Website:  https://openfoam.org
    \\  /    A nd           | Version:  7
     \\/     M anipulation  |
\*---------------------------------------------------------------------------*/
FoamFile
{
    version     2.0;
    format      ascii;
    class       volScalarField;
    location    "4.6";
    object      p;
}
// * * * * * * * * * * * * * * * * * * * * * * * * * * * * * * * * * * * * * //

dimensions      [0 2 -2 0 0 0 0];

internalField   nonuniform List<scalar> 
346
(
3.28914
3.28363
3.27837
3.2734
3.26875
3.2645
3.26068
3.25739
3.25468
3.25265
3.25138
3.25095
3.25145
3.25292
3.25541
3.25886
3.26346
3.26871
3.27649
3.28247
3.29871
3.59065
3.58342
3.57621
3.56901
3.56182
3.55464
3.54747
3.54032
3.53317
3.52603
3.51891
3.51179
3.50469
3.49759
3.49051
3.48344
3.47638
3.46933
3.46229
3.45526
3.44824
3.44124
3.43425
3.42728
3.42031
3.41337
3.40644
3.39953
3.39264
3.38577
3.37893
3.37211
3.36533
3.35858
3.35187
3.34521
3.3386
3.33206
3.32558
3.31919
3.31289
3.3067
3.30064
3.29473
3.289
3.28347
3.27819
3.27318
3.26849
3.26418
3.26031
3.25694
3.25415
3.25201
3.25061
3.25003
3.25033
3.25157
3.25382
3.25704
3.26146
3.26673
3.27448
3.28083
3.2948
3.59063
3.5834
3.57619
3.56899
3.5618
3.55462
3.54745
3.5403
3.53315
3.52601
3.51889
3.51177
3.50467
3.49758
3.49049
3.48342
3.47636
3.46931
3.46227
3.45524
3.44823
3.44122
3.43423
3.42726
3.42029
3.41335
3.40642
3.39951
3.39261
3.38574
3.3789
3.37208
3.3653
3.35854
3.35183
3.34516
3.33855
3.332
3.32551
3.31911
3.3128
3.30659
3.30052
3.29459
3.28883
3.28328
3.27795
3.2729
3.26817
3.2638
3.25986
3.25641
3.25351
3.25125
3.2497
3.24893
3.24902
3.25001
3.25199
3.25495
3.25918
3.26446
3.27225
3.27906
3.29151
3.59061
3.58338
3.57617
3.56897
3.56178
3.5546
3.54743
3.54028
3.53313
3.526
3.51887
3.51176
3.50465
3.49756
3.49047
3.4834
3.47634
3.46929
3.46225
3.45522
3.44821
3.4412
3.43421
3.42724
3.42027
3.41332
3.40639
3.39948
3.39259
3.38572
3.37887
3.37205
3.36526
3.3585
3.35178
3.34511
3.33849
3.33193
3.32543
3.31901
3.31269
3.30647
3.30037
3.29442
3.28864
3.28305
3.27768
3.27258
3.26779
3.26336
3.25933
3.25578
3.25277
3.25037
3.24866
3.2477
3.24755
3.24828
3.24996
3.25264
3.25664
3.26193
3.26986
3.27726
3.28908
3.59058
3.58336
3.57615
3.56895
3.56176
3.55458
3.54741
3.54025
3.53311
3.52597
3.51885
3.51173
3.50463
3.49754
3.49045
3.48338
3.47632
3.46927
3.46223
3.4552
3.44819
3.44118
3.43419
3.42721
3.42025
3.4133
3.40637
3.39945
3.39256
3.38568
3.37883
3.37201
3.36521
3.35845
3.35172
3.34504
3.33841
3.33184
3.32533
3.3189
3.31256
3.30632
3.3002
3.29421
3.28839
3.28276
3.27735
3.27219
3.26733
3.26282
3.2587
3.25503
3.25189
3.24933
3.24743
3.24625
3.24585
3.24627
3.24761
3.24995
3.25366
3.25892
3.26714
3.27559
3.28757
3.59055
3.58333
3.57612
3.56892
3.56173
3.55455
3.54739
3.54023
3.53308
3.52595
3.51882
3.51171
3.50461
3.49751
3.49043
3.48336
3.4763
3.46924
3.4622
3.45518
3.44816
3.44115
3.43416
3.42718
3.42022
3.41327
3.40633
3.39942
3.39252
3.38564
3.37878
3.37196
3.36516
3.35839
3.35166
3.34497
3.33832
3.33174
3.32521
3.31877
3.3124
3.30614
3.29998
3.29397
3.28811
3.28242
3.27695
3.27173
3.26679
3.26217
3.25794
3.25414
3.25084
3.2481
3.24599
3.24456
3.24386
3.24395
3.2449
3.24683
3.25018
3.25535
3.26401
3.27383
3.28735
)
;

boundaryField
{
    inlet
    {
        type            zeroGradient;
    }
    outlet
    {
        type            fixedValue;
        value           nonuniform 0();
    }
    wall
    {
        type            zeroGradient;
    }
    wedge1
    {
        type            wedge;
    }
    wedge2
    {
        type            wedge;
    }
    axis
    {
        type            empty;
    }
    procBoundary44to38
    {
        type            processor;
        value           nonuniform List<scalar> 
66
(
3.28923
3.28375
3.27851
3.27356
3.26894
3.26472
3.26095
3.25771
3.25507
3.25312
3.25196
3.25166
3.25232
3.25398
3.25668
3.26032
3.26507
3.27028
3.27818
3.28382
3.30297
3.59067
3.58344
3.57623
3.56903
3.56184
3.55466
3.54749
3.54033
3.53319
3.52605
3.51892
3.51181
3.5047
3.49761
3.49053
3.48345
3.47639
3.46934
3.4623
3.45528
3.44826
3.44126
3.43427
3.42729
3.42033
3.41339
3.40646
3.39955
3.39266
3.38579
3.37895
3.37214
3.36536
3.35861
3.35191
3.34525
3.33865
3.33211
3.32564
3.31925
3.31296
3.30679
3.30074
3.29485
3.29485
)
;
    }
    procBoundary44to43
    {
        type            processor;
        value           nonuniform List<scalar> 5(3.59788 3.59786 3.59784 3.59782 3.59779);
    }
}


// ************************************************************************* //
