/*--------------------------------*- C++ -*----------------------------------*\
  =========                 |
  \\      /  F ield         | OpenFOAM: The Open Source CFD Toolbox
   \\    /   O peration     | Website:  https://openfoam.org
    \\  /    A nd           | Version:  7
     \\/     M anipulation  |
\*---------------------------------------------------------------------------*/
FoamFile
{
    version     2.0;
    format      ascii;
    class       surfaceScalarField;
    location    "4.6";
    object      phi;
}
// * * * * * * * * * * * * * * * * * * * * * * * * * * * * * * * * * * * * * //

dimensions      [0 3 -1 0 0 0 0];

internalField   nonuniform List<scalar> 
621
(
4.92413e-05
-1.011e-06
4.87894e-05
-1.18433e-06
4.82586e-05
-1.3896e-06
4.76343e-05
-1.63263e-06
4.68989e-05
-1.92029e-06
4.60313e-05
-2.26056e-06
4.50067e-05
-2.6627e-06
4.37954e-05
-3.13733e-06
4.23622e-05
-3.69656e-06
4.06654e-05
-4.35431e-06
3.86557e-05
-5.12665e-06
3.62749e-05
-6.03292e-06
3.34549e-05
-7.09565e-06
3.01189e-05
-8.33889e-06
2.61885e-05
-9.76705e-06
2.16068e-05
-1.13227e-05
1.64023e-05
-1.27384e-05
1.08008e-05
-1.34359e-05
5.42552e-06
-1.2179e-05
1.31746e-06
-8.16415e-06
-6.55634e-07
4.4315e-05
-6.62227e-08
4.42809e-05
-6.52906e-08
4.42473e-05
-6.43927e-08
4.42141e-05
-6.3531e-08
4.41814e-05
-6.27082e-08
4.4149e-05
-6.19275e-08
4.41171e-05
-6.11926e-08
4.40855e-05
-6.05082e-08
4.40543e-05
-5.98799e-08
4.40234e-05
-5.93141e-08
4.39927e-05
-5.88188e-08
4.39623e-05
-5.84032e-08
4.3932e-05
-5.80784e-08
4.39019e-05
-5.78574e-08
4.38719e-05
-5.77559e-08
4.38418e-05
-5.7792e-08
4.38117e-05
-5.79874e-08
4.37814e-05
-5.83678e-08
4.37509e-05
-5.89632e-08
4.37199e-05
-5.98095e-08
4.36884e-05
-6.09487e-08
4.36562e-05
-6.24305e-08
4.3623e-05
-6.43135e-08
4.35887e-05
-6.66669e-08
4.3553e-05
-6.95726e-08
4.35155e-05
-7.31268e-08
4.34759e-05
-7.74435e-08
4.34337e-05
-8.26569e-08
4.33885e-05
-8.89258e-08
4.33395e-05
-9.64375e-08
4.3286e-05
-1.05413e-07
4.32273e-05
-1.16115e-07
4.31622e-05
-1.28852e-07
4.30896e-05
-1.43989e-07
4.30081e-05
-1.61958e-07
4.2916e-05
-1.83272e-07
4.28113e-05
-2.08536e-07
4.26917e-05
-2.38466e-07
4.25545e-05
-2.73912e-07
4.23964e-05
-3.15879e-07
4.22134e-05
-3.65559e-07
4.20012e-05
-4.24365e-07
4.17541e-05
-4.9397e-07
4.14659e-05
-5.76356e-07
4.11287e-05
-6.73868e-07
4.07337e-05
-7.89276e-07
4.02699e-05
-9.25842e-07
3.97247e-05
-1.08739e-06
3.90828e-05
-1.2784e-06
3.83263e-05
-1.50405e-06
3.74339e-05
-1.77028e-06
3.63804e-05
-2.08387e-06
3.51363e-05
-2.45243e-06
3.36666e-05
-2.88467e-06
3.19306e-05
-3.39057e-06
2.988e-05
-3.98239e-06
2.74592e-05
-4.67481e-06
2.46048e-05
-5.48453e-06
2.12535e-05
-6.41567e-06
1.73629e-05
-7.4321e-06
1.29732e-05
-8.34862e-06
8.30831e-06
-8.77105e-06
3.94742e-06
-7.81808e-06
7.84926e-07
-5.00165e-06
1.29291e-07
3.52714e-05
-3.82351e-08
3.52438e-05
-3.76982e-08
3.52166e-05
-3.71811e-08
3.51898e-05
-3.66851e-08
3.51633e-05
-3.62117e-08
3.51371e-05
-3.57628e-08
3.51112e-05
-3.53407e-08
3.50857e-05
-3.4948e-08
3.50604e-05
-3.45881e-08
3.50353e-05
-3.42647e-08
3.50105e-05
-3.39824e-08
3.49858e-05
-3.37468e-08
3.49613e-05
-3.35644e-08
3.49369e-05
-3.34427e-08
3.49126e-05
-3.3391e-08
3.48882e-05
-3.34199e-08
3.48637e-05
-3.35421e-08
3.48391e-05
-3.37727e-08
3.48143e-05
-3.41295e-08
3.47891e-05
-3.46332e-08
3.47635e-05
-3.53087e-08
3.47372e-05
-3.61852e-08
3.47102e-05
-3.72969e-08
3.46822e-05
-3.86845e-08
3.46531e-05
-4.0396e-08
3.46224e-05
-4.24879e-08
3.459e-05
-4.5027e-08
3.45554e-05
-4.8092e-08
3.45183e-05
-5.17761e-08
3.44781e-05
-5.61891e-08
3.44341e-05
-6.14608e-08
3.43857e-05
-6.77444e-08
3.43321e-05
-7.52213e-08
3.42722e-05
-8.41054e-08
3.42049e-05
-9.46501e-08
3.41288e-05
-1.07155e-07
3.40422e-05
-1.21974e-07
3.39433e-05
-1.39527e-07
3.38297e-05
-1.6031e-07
3.36987e-05
-1.84911e-07
3.35472e-05
-2.14025e-07
3.33713e-05
-2.48477e-07
3.31666e-05
-2.89241e-07
3.29277e-05
-3.37469e-07
3.26483e-05
-3.94524e-07
3.23211e-05
-4.62007e-07
3.1937e-05
-5.41805e-07
3.14858e-05
-6.36119e-07
3.09549e-05
-7.47508e-07
3.03297e-05
-8.78919e-07
2.95931e-05
-1.03371e-06
2.87249e-05
-1.21565e-06
2.77014e-05
-1.42895e-06
2.64951e-05
-1.67834e-06
2.50738e-05
-1.96928e-06
2.34e-05
-2.30858e-06
2.14299e-05
-2.70473e-06
1.91137e-05
-3.16831e-06
1.64011e-05
-3.70307e-06
1.32602e-05
-4.29118e-06
9.732e-06
-4.82043e-06
6.01967e-06
-5.05872e-06
2.63725e-06
-4.43565e-06
3.32846e-07
-2.69724e-06
4.62138e-07
2.57749e-05
-1.74554e-08
2.57544e-05
-1.72109e-08
2.57342e-05
-1.69755e-08
2.57143e-05
-1.67497e-08
2.56946e-05
-1.65344e-08
2.56752e-05
-1.63304e-08
2.5656e-05
-1.61386e-08
2.5637e-05
-1.59605e-08
2.56182e-05
-1.57975e-08
2.55996e-05
-1.56513e-08
2.55811e-05
-1.55242e-08
2.55628e-05
-1.54187e-08
2.55446e-05
-1.53377e-08
2.55264e-05
-1.52849e-08
2.55083e-05
-1.52644e-08
2.54902e-05
-1.52813e-08
2.5472e-05
-1.53414e-08
2.54536e-05
-1.54517e-08
2.54351e-05
-1.56205e-08
2.54164e-05
-1.58574e-08
2.53972e-05
-1.61739e-08
2.53776e-05
-1.65836e-08
2.53574e-05
-1.71023e-08
2.53365e-05
-1.7749e-08
2.53146e-05
-1.85458e-08
2.52917e-05
-1.9519e-08
2.52673e-05
-2.06995e-08
2.52414e-05
-2.21239e-08
2.52134e-05
-2.38352e-08
2.51831e-05
-2.58845e-08
2.515e-05
-2.83318e-08
2.51135e-05
-3.12483e-08
2.5073e-05
-3.47177e-08
2.50277e-05
-3.88393e-08
2.49768e-05
-4.37303e-08
2.49192e-05
-4.95294e-08
2.48536e-05
-5.64003e-08
2.47786e-05
-6.45371e-08
2.46925e-05
-7.4169e-08
2.45931e-05
-8.55673e-08
2.44782e-05
-9.90532e-08
2.43447e-05
-1.15006e-07
2.41893e-05
-1.33874e-07
2.4008e-05
-1.56188e-07
2.37961e-05
-1.82571e-07
2.35478e-05
-2.13757e-07
2.32566e-05
-2.50606e-07
2.29146e-05
-2.94118e-07
2.25126e-05
-3.45449e-07
2.20396e-05
-4.05922e-07
2.14829e-05
-4.7703e-07
2.08277e-05
-5.60433e-07
2.00567e-05
-6.57952e-07
1.915e-05
-7.71612e-07
1.80844e-05
-9.03723e-07
1.68331e-05
-1.05729e-06
1.53646e-05
-1.23619e-06
1.36422e-05
-1.44597e-06
1.16284e-05
-1.68927e-06
9.29827e-06
-1.96101e-06
6.68504e-06
-2.2072e-06
3.95101e-06
-2.32469e-06
1.5209e-06
-2.00555e-06
2.09906e-09
-1.17844e-06
4.64237e-07
1.58189e-05
-4.50164e-09
1.58062e-05
-4.43875e-09
1.57936e-05
-4.37823e-09
1.57811e-05
-4.32023e-09
1.57689e-05
-4.26494e-09
1.57567e-05
-4.21259e-09
1.57448e-05
-4.16345e-09
1.57329e-05
-4.11786e-09
1.57212e-05
-4.0762e-09
1.57096e-05
-4.03896e-09
1.56981e-05
-4.0067e-09
1.56866e-05
-3.98008e-09
1.56753e-05
-3.95989e-09
1.56639e-05
-3.94707e-09
1.56526e-05
-3.94273e-09
1.56413e-05
-3.94818e-09
1.56299e-05
-3.96497e-09
1.56184e-05
-3.99493e-09
1.56069e-05
-4.04021e-09
1.55951e-05
-4.10337e-09
1.55831e-05
-4.18741e-09
1.55708e-05
-4.29589e-09
1.55582e-05
-4.43299e-09
1.5545e-05
-4.60367e-09
1.55313e-05
-4.81375e-09
1.55168e-05
-5.07011e-09
1.55015e-05
-5.38088e-09
1.54851e-05
-5.75564e-09
1.54675e-05
-6.20572e-09
1.54484e-05
-6.74446e-09
1.54274e-05
-7.38764e-09
1.54043e-05
-8.15387e-09
1.53787e-05
-9.06516e-09
1.535e-05
-1.01475e-08
1.53177e-05
-1.14316e-08
1.52811e-05
-1.29537e-08
1.52395e-05
-1.47567e-08
1.51918e-05
-1.68913e-08
1.51371e-05
-1.94175e-08
1.50739e-05
-2.2406e-08
1.50008e-05
-2.59407e-08
1.49159e-05
-3.01202e-08
1.48171e-05
-3.50613e-08
1.47018e-05
-4.09014e-08
1.4567e-05
-4.78022e-08
1.44092e-05
-5.5953e-08
1.42242e-05
-6.55749e-08
1.4007e-05
-7.69241e-08
1.37519e-05
-9.02949e-08
1.3452e-05
-1.06021e-07
1.30994e-05
-1.24475e-07
1.2685e-05
-1.46063e-07
1.21983e-05
-1.71223e-07
1.16271e-05
-2.00432e-07
1.09576e-05
-2.3422e-07
1.01737e-05
-2.73326e-07
9.25622e-06
-3.18741e-07
8.18246e-06
-3.72215e-07
6.928e-06
-4.34801e-07
5.47396e-06
-5.06966e-07
3.84041e-06
-5.73651e-07
2.12818e-06
-6.12468e-07
6.41151e-07
-5.18514e-07
-2.40978e-07
-2.96312e-07
2.23259e-07
5.39674e-06
5.3923e-06
5.38793e-06
5.38361e-06
5.37934e-06
5.37513e-06
5.37097e-06
5.36685e-06
5.36277e-06
5.35873e-06
5.35473e-06
5.35075e-06
5.34679e-06
5.34284e-06
5.3389e-06
5.33495e-06
5.33098e-06
5.32699e-06
5.32295e-06
5.31884e-06
5.31466e-06
5.31036e-06
5.30593e-06
5.30132e-06
5.29651e-06
5.29144e-06
5.28606e-06
5.2803e-06
5.2741e-06
5.26735e-06
5.25997e-06
5.25181e-06
5.24275e-06
5.2326e-06
5.22117e-06
5.20821e-06
5.19346e-06
5.17657e-06
5.15715e-06
5.13474e-06
5.1088e-06
5.07868e-06
5.04362e-06
5.00272e-06
4.95492e-06
4.89896e-06
4.83339e-06
4.75647e-06
4.66617e-06
4.56015e-06
4.43567e-06
4.28961e-06
4.11839e-06
3.91796e-06
3.68374e-06
3.41041e-06
3.09167e-06
2.71945e-06
2.28465e-06
1.77769e-06
1.20403e-06
5.91567e-07
7.30532e-08
-2.23259e-07
)
;

boundaryField
{
    inlet
    {
        type            calculated;
        value           nonuniform 0();
    }
    outlet
    {
        type            calculated;
        value           nonuniform 0();
    }
    wall
    {
        type            calculated;
        value           uniform 0;
    }
    wedge1
    {
        type            wedge;
        value           nonuniform List<scalar> 
346
(
4.61195e-18
2.89217e-18
4.60641e-18
7.00386e-19
-9.44696e-19
4.55579e-18
2.8577e-18
4.55196e-18
6.94778e-19
-9.2787e-19
4.47241e-18
2.80017e-18
4.47738e-18
6.78634e-19
-9.1745e-19
4.39353e-18
2.74181e-18
4.3927e-18
6.51266e-19
-9.13342e-19
4.33936e-18
2.71014e-18
4.33735e-18
6.45709e-19
-9.01471e-19
4.29616e-18
2.68805e-18
4.29471e-18
6.44753e-19
-8.87713e-19
4.27476e-18
2.68603e-18
4.27262e-18
6.56995e-19
-8.69002e-19
4.21719e-18
2.64119e-18
4.209e-18
6.35563e-19
-8.65665e-19
4.19829e-18
2.64171e-18
4.19068e-18
6.48881e-19
-8.49238e-19
4.15001e-18
2.60644e-18
4.13895e-18
6.33614e-19
-8.45914e-19
4.12323e-18
2.5893e-18
4.11244e-18
6.3108e-19
-8.36427e-19
4.07148e-18
2.54725e-18
4.05844e-18
6.08634e-19
-8.38994e-19
4.04539e-18
2.53352e-18
4.03687e-18
6.0834e-19
-8.34095e-19
4.03711e-18
2.53296e-18
4.0309e-18
6.13183e-19
-8.28821e-19
4.05706e-18
2.55662e-18
4.05294e-18
6.31477e-19
-8.19429e-19
4.04658e-18
2.541e-18
4.03755e-18
6.16345e-19
-8.27555e-19
4.08196e-18
2.57529e-18
4.07646e-18
6.3745e-19
-8.23348e-19
4.09617e-18
2.57935e-18
4.08964e-18
6.31726e-19
-8.34689e-19
4.14098e-18
2.60689e-18
4.1377e-18
6.39218e-19
-8.42088e-19
4.17194e-18
2.6175e-18
4.17185e-18
6.30631e-19
-8.62972e-19
4.24373e-18
2.6656e-18
4.25181e-18
6.45106e-19
-8.80228e-19
4.34863e-18
2.73661e-18
4.36446e-18
6.6681e-19
-9.00787e-19
4.49878e-18
2.84142e-18
4.52187e-18
7.03791e-19
-9.22229e-19
4.64353e-18
2.92436e-18
4.66919e-18
7.13537e-19
-9.64603e-19
4.85819e-18
3.07211e-18
4.89641e-18
7.62739e-19
-1.00108e-18
5.08331e-18
3.21021e-18
5.13081e-18
7.89864e-19
-1.06008e-18
5.37587e-18
3.39648e-18
5.44119e-18
8.38487e-19
-1.12217e-18
5.69992e-18
3.59623e-18
5.79157e-18
8.8503e-19
-1.20358e-18
6.09518e-18
3.83765e-18
6.20211e-18
9.30289e-19
-1.3066e-18
6.59373e-18
4.15573e-18
6.72531e-18
1.01043e-18
-1.41972e-18
7.20048e-18
4.54447e-18
7.36094e-18
1.11e-18
-1.55217e-18
7.9394e-18
5.02233e-18
8.13192e-18
1.2384e-18
-1.70548e-18
8.77609e-18
5.54315e-18
9.00125e-18
1.3552e-18
-1.90261e-18
9.8047e-18
6.2051e-18
1.00766e-17
1.52914e-18
-2.12195e-18
1.09892e-17
6.94946e-18
1.13112e-17
1.70409e-18
-2.3952e-18
1.24123e-17
7.84881e-18
1.2796e-17
1.92417e-18
-2.71067e-18
1.40688e-17
8.88657e-18
1.45222e-17
2.16492e-18
-3.09373e-18
1.60559e-17
1.01451e-17
1.65955e-17
2.47318e-18
-3.53663e-18
1.84212e-17
1.16439e-17
1.90569e-17
2.84111e-18
-4.05754e-18
2.12377e-17
1.34332e-17
2.1983e-17
3.28575e-18
-4.66672e-18
2.45326e-17
1.55054e-17
2.53955e-17
3.77615e-18
-5.39917e-18
2.84684e-17
1.80017e-17
2.94745e-17
4.39144e-18
-6.2462e-18
3.30903e-17
2.09132e-17
3.42514e-17
5.08507e-18
-7.25586e-18
3.85801e-17
2.43757e-17
3.99183e-17
5.91722e-18
-8.43406e-18
-4.34852e-16
4.505e-17
2.84441e-17
4.65804e-17
6.87886e-18
-9.82667e-18
-5.09469e-16
5.27341e-17
3.32866e-17
5.44798e-17
8.03498e-18
-1.14492e-17
-5.97855e-16
6.18434e-17
3.90245e-17
6.38147e-17
9.4005e-18
-1.33463e-17
-7.0255e-16
7.26411e-17
4.58231e-17
7.48449e-17
1.10164e-17
-1.55579e-17
-8.26591e-16
8.53745e-17
5.38097e-17
8.78002e-17
1.28791e-17
-1.81505e-17
-9.73422e-16
1.00464e-16
6.32816e-17
1.03105e-16
1.50989e-17
-2.11509e-17
-1.14717e-15
1.1825e-16
7.44068e-17
1.21056e-16
1.76628e-17
-2.46422e-17
-1.35249e-15
1.39246e-16
8.75183e-17
1.42143e-16
2.06698e-17
-2.86648e-17
-1.59486e-15
1.63934e-16
1.02888e-16
1.66795e-16
2.41507e-17
-3.32951e-17
-1.88044e-15
1.92952e-16
1.20893e-16
1.95552e-16
2.81693e-17
-3.85999e-17
-2.2165e-15
2.27015e-16
1.41971e-16
2.29071e-16
3.28332e-17
-4.46378e-17
-2.61164e-15
2.66952e-16
1.66605e-16
2.68097e-16
3.82179e-17
-5.15212e-17
-3.07575e-15
3.13757e-16
1.95411e-16
3.13611e-16
4.44562e-17
-5.93969e-17
-3.61886e-15
3.6842e-16
2.29016e-16
3.66767e-16
5.1679e-17
-6.85625e-17
-4.24222e-15
4.31164e-16
2.6766e-16
4.28103e-16
6.00403e-17
-7.91685e-17
-4.91916e-15
4.99182e-16
3.09651e-16
4.95408e-16
6.92746e-17
-9.13197e-17
-5.5368e-15
5.6042e-16
3.47186e-16
5.55664e-16
7.76036e-17
-1.02533e-16
-5.84542e-15
5.88388e-16
3.63268e-16
5.81431e-16
8.13842e-17
-1.08975e-16
-5.34645e-15
5.2935e-16
3.21676e-16
5.06995e-16
7.02956e-17
-9.29302e-17
-3.66049e-15
3.47547e-16
2.01982e-16
3.03951e-16
4.10396e-17
-5.36305e-17
-5.4857e-16
2.81544e-17
-3.62797e-18
-5.07172e-17
-1.29763e-17
3.65518e-17
)
;
    }
    wedge2
    {
        type            wedge;
        value           nonuniform List<scalar> 
346
(
4.33972e-18
2.67934e-18
4.47414e-18
6.22245e-19
-9.65327e-19
4.26964e-18
2.63542e-18
4.40124e-18
6.09348e-19
-9.55559e-19
4.23136e-18
2.61744e-18
4.35316e-18
6.07673e-19
-9.40385e-19
4.19343e-18
2.60332e-18
4.32019e-18
6.17952e-19
-9.19959e-19
4.13601e-18
2.56578e-18
4.26325e-18
6.07209e-19
-9.08439e-19
4.07326e-18
2.52221e-18
4.19941e-18
5.9272e-19
-9.00045e-19
3.99485e-18
2.46242e-18
4.12136e-18
5.65966e-19
-8.97961e-19
3.95937e-18
2.44971e-18
4.09182e-18
5.73909e-19
-8.81999e-19
3.8927e-18
2.39635e-18
4.02475e-18
5.48249e-19
-8.80791e-19
3.86377e-18
2.38405e-18
3.99976e-18
5.52447e-19
-8.68345e-19
3.82275e-18
2.35954e-18
3.95933e-18
5.45356e-19
-8.64163e-19
3.81735e-18
2.36665e-18
3.95744e-18
5.59802e-19
-8.50312e-19
3.79839e-18
2.35309e-18
3.93573e-18
5.5396e-19
-8.46644e-19
3.77547e-18
2.3351e-18
3.91286e-18
5.45109e-19
-8.46466e-19
3.74024e-18
2.30294e-18
3.87856e-18
5.25258e-19
-8.53989e-19
3.75378e-18
2.32164e-18
3.90083e-18
5.41654e-19
-8.4813e-19
3.74268e-18
2.30385e-18
3.89096e-18
5.2509e-19
-8.59397e-19
3.77738e-18
2.33184e-18
3.93254e-18
5.39148e-19
-8.60678e-19
3.81013e-18
2.35448e-18
3.96917e-18
5.44416e-19
-8.72376e-19
3.89012e-18
2.41515e-18
4.0546e-18
5.70914e-19
-8.7814e-19
3.96828e-18
2.46297e-18
4.13497e-18
5.80372e-19
-8.96352e-19
4.05892e-18
2.51673e-18
4.23032e-18
5.89646e-19
-9.21576e-19
4.15772e-18
2.57046e-18
4.33673e-18
5.91894e-19
-9.57998e-19
4.32453e-18
2.68566e-18
4.51869e-18
6.31046e-19
-9.87647e-19
4.49492e-18
2.78253e-18
4.69756e-18
6.42096e-19
-1.0398e-18
4.74116e-18
2.94362e-18
4.95946e-18
6.88548e-19
-1.08893e-18
5.0214e-18
3.12073e-18
5.25139e-18
7.29172e-19
-1.15787e-18
5.3895e-18
3.35981e-18
5.62798e-18
7.90292e-19
-1.2344e-18
5.82683e-18
3.64604e-18
6.09108e-18
8.74362e-19
-1.32095e-18
6.32625e-18
3.96021e-18
6.61416e-18
9.49054e-19
-1.43459e-18
6.91231e-18
4.32691e-18
7.22808e-18
1.03434e-18
-1.57263e-18
7.59584e-18
4.74969e-18
7.94609e-18
1.12614e-18
-1.74122e-18
8.4524e-18
5.30069e-18
8.8479e-18
1.2712e-18
-1.92648e-18
9.43648e-18
5.91249e-18
9.87622e-18
1.40818e-18
-2.16066e-18
1.06417e-17
6.68011e-18
1.11374e-17
1.60199e-18
-2.42455e-18
1.20533e-17
7.57398e-18
1.26107e-17
1.81882e-18
-2.74454e-18
1.37574e-17
8.66149e-18
1.4388e-17
2.09532e-18
-3.11249e-18
1.5752e-17
9.92047e-18
1.64617e-17
2.39903e-18
-3.55634e-18
1.81028e-17
1.14026e-17
1.89065e-17
2.7547e-18
-4.08156e-18
2.08706e-17
1.31422e-17
2.17828e-17
3.16526e-18
-4.70551e-18
2.41875e-17
1.52466e-17
2.52306e-17
3.68515e-18
-5.42545e-18
2.80791e-17
1.76929e-17
2.92606e-17
4.26288e-18
-6.28761e-18
3.27239e-17
2.06302e-17
3.40672e-17
4.97745e-18
-7.28757e-18
3.82047e-17
2.40882e-17
3.97238e-17
5.80673e-18
-8.46995e-18
-4.35275e-16
4.47231e-17
2.8208e-17
4.64388e-17
6.80426e-18
-9.84715e-18
-5.09879e-16
5.24161e-17
3.30525e-17
5.43381e-17
7.9569e-18
-1.14706e-17
-5.98278e-16
6.15103e-17
3.87722e-17
6.36555e-17
9.30989e-18
-1.33721e-17
-7.03019e-16
7.22582e-17
4.55203e-17
7.46345e-17
1.08915e-17
-1.55979e-17
-8.27043e-16
8.50154e-17
5.35407e-17
8.76289e-17
1.27845e-17
-1.81783e-17
-9.7391e-16
1.00064e-16
6.29651e-17
1.02884e-16
1.49678e-17
-2.11932e-17
-1.14764e-15
1.17873e-16
7.41169e-17
1.20866e-16
1.75536e-17
-2.46744e-17
-1.35297e-15
1.3886e-16
8.72204e-17
1.41937e-16
2.05513e-17
-2.87034e-17
-1.59527e-15
1.63596e-16
1.02631e-16
1.66616e-16
2.40474e-17
-3.33291e-17
-1.88083e-15
1.92654e-16
1.20681e-16
1.95428e-16
2.81057e-17
-3.86178e-17
-2.21689e-15
2.26715e-16
1.41753e-16
2.28939e-16
3.27637e-17
-4.46568e-17
-2.61204e-15
2.66634e-16
1.66367e-16
2.67946e-16
3.81352e-17
-5.15452e-17
-3.0762e-15
3.1339e-16
1.95122e-16
3.13407e-16
4.43363e-17
-5.94359e-17
-3.61929e-15
3.68077e-16
2.28763e-16
3.66608e-16
5.15927e-17
-6.8589e-17
-4.24268e-15
4.30787e-16
2.67363e-16
4.27893e-16
5.99165e-17
-7.92087e-17
-4.91959e-15
4.98842e-16
3.09395e-16
4.9524e-16
6.91815e-17
-9.13487e-17
-5.53721e-15
5.60096e-16
3.46943e-16
5.55503e-16
7.75129e-17
-1.02563e-16
-5.84574e-15
5.88145e-16
3.63102e-16
5.81341e-16
8.13438e-17
-1.08986e-16
-5.34671e-15
5.29159e-16
3.21545e-16
5.06926e-16
7.02655e-17
-9.29368e-17
-3.66068e-15
3.47405e-16
2.01884e-16
3.03901e-16
4.10172e-17
-5.36344e-17
-5.4868e-16
2.80647e-17
-3.6977e-18
-5.07678e-17
-1.30056e-17
3.65429e-17
)
;
    }
    axis
    {
        type            empty;
        value           nonuniform 0();
    }
    procBoundary44to38
    {
        type            processor;
        value           nonuniform List<scalar> 
66
(
1.39661e-06
1.6363e-06
1.92034e-06
2.25693e-06
2.65575e-06
3.12814e-06
3.68732e-06
4.34863e-06
5.12974e-06
6.05106e-06
7.13634e-06
8.41378e-06
9.91562e-06
1.16749e-05
1.36974e-05
1.59044e-05
1.79429e-05
1.90374e-05
1.75542e-05
1.22722e-05
1.97309e-06
1.00808e-07
9.93856e-08
9.80151e-08
9.66995e-08
9.54425e-08
9.42489e-08
9.31245e-08
9.20762e-08
9.11121e-08
9.02422e-08
8.94781e-08
8.88338e-08
8.83258e-08
8.79736e-08
8.78006e-08
8.7834e-08
8.81063e-08
8.86557e-08
8.95275e-08
9.07751e-08
9.24614e-08
9.4661e-08
9.74616e-08
1.00967e-07
1.05299e-07
1.10602e-07
1.17048e-07
1.24836e-07
1.34205e-07
1.45435e-07
1.58859e-07
1.74867e-07
1.93924e-07
2.16577e-07
2.43474e-07
2.75383e-07
3.13213e-07
3.58038e-07
4.11135e-07
4.74016e-07
5.48473e-07
6.36633e-07
7.4102e-07
-4.9627e-05
8.64626e-07
)
;
    }
    procBoundary44to43
    {
        type            processor;
        value           nonuniform List<scalar> 5(-4.43496e-05 -3.52994e-05 -2.57957e-05 -1.58319e-05 -5.40125e-06);
    }
}


// ************************************************************************* //
