/*--------------------------------*- C++ -*----------------------------------*\
  =========                 |
  \\      /  F ield         | OpenFOAM: The Open Source CFD Toolbox
   \\    /   O peration     | Website:  https://openfoam.org
    \\  /    A nd           | Version:  7
     \\/     M anipulation  |
\*---------------------------------------------------------------------------*/
FoamFile
{
    version     2.0;
    format      ascii;
    class       volScalarField;
    location    "9.999332";
    object      p;
}
// * * * * * * * * * * * * * * * * * * * * * * * * * * * * * * * * * * * * * //

dimensions      [0 2 -2 0 0 0 0];

internalField   nonuniform List<scalar> 
23200
(
-0.287099
-0.289432
-0.290832
-0.29195
-0.292986
-0.294
-0.29507
-0.296262
-0.297622
-0.299182
-0.300971
-0.303009
-0.305318
-0.307919
-0.310836
-0.314091
-0.317715
-0.321763
-0.326195
-0.330994
-0.287497
-0.289771
-0.29114
-0.292237
-0.293256
-0.294256
-0.295316
-0.296498
-0.297849
-0.299403
-0.301185
-0.303217
-0.30552
-0.308116
-0.311029
-0.31428
-0.317897
-0.321944
-0.326369
-0.330977
-0.288277
-0.290436
-0.291744
-0.292798
-0.293783
-0.294756
-0.295792
-0.296955
-0.298288
-0.299825
-0.301592
-0.303609
-0.305898
-0.308481
-0.311382
-0.314622
-0.318218
-0.322246
-0.3267
-0.330862
-0.289405
-0.291401
-0.292621
-0.293612
-0.294545
-0.295475
-0.296475
-0.297604
-0.298907
-0.300414
-0.302152
-0.304141
-0.306402
-0.308957
-0.31183
-0.315045
-0.318601
-0.322558
-0.327155
-0.33051
-0.290837
-0.292629
-0.293737
-0.294646
-0.29551
-0.29638
-0.297326
-0.298406
-0.299661
-0.301122
-0.302812
-0.304753
-0.306966
-0.309472
-0.312293
-0.315458
-0.318958
-0.322725
-0.327698
-0.329741
-0.292519
-0.294079
-0.295055
-0.295864
-0.29664
-0.297432
-0.298305
-0.299314
-0.3005
-0.301891
-0.303511
-0.305379
-0.307516
-0.309944
-0.31268
-0.315763
-0.31921
-0.322573
-0.328306
-0.328387
-0.294392
-0.295703
-0.296533
-0.297226
-0.297896
-0.298589
-0.299367
-0.300281
-0.301372
-0.302665
-0.304185
-0.30595
-0.307979
-0.310296
-0.312911
-0.315856
-0.319308
-0.321993
-0.328877
-0.326513
-0.296399
-0.297456
-0.29813
-0.298694
-0.299239
-0.299812
-0.300469
-0.301261
-0.302226
-0.303391
-0.304778
-0.306405
-0.308292
-0.310462
-0.31292
-0.315653
-0.319169
-0.321146
-0.328465
-0.324943
-0.298488
-0.299297
-0.299811
-0.300233
-0.300636
-0.301065
-0.301574
-0.302213
-0.30302
-0.304023
-0.305243
-0.306698
-0.308408
-0.310397
-0.312673
-0.315183
-0.318596
-0.320039
-0.327807
-0.322815
-0.300612
-0.301192
-0.301546
-0.301816
-0.302059
-0.30232
-0.302653
-0.303108
-0.303724
-0.304531
-0.305551
-0.306802
-0.308304
-0.310081
-0.31215
-0.314395
-0.317767
-0.31845
-0.327022
-0.32018
-0.302742
-0.303117
-0.303313
-0.303423
-0.303491
-0.303561
-0.30369
-0.303929
-0.304322
-0.3049
-0.30569
-0.30671
-0.307979
-0.309524
-0.311374
-0.313307
-0.316721
-0.316438
-0.326017
-0.317243
-0.30486
-0.305059
-0.305104
-0.305046
-0.304922
-0.30478
-0.304677
-0.304672
-0.304812
-0.305135
-0.305668
-0.306436
-0.307457
-0.308756
-0.310388
-0.311974
-0.315458
-0.314168
-0.324635
-0.314258
-0.306965
-0.307021
-0.30692
-0.306687
-0.306356
-0.305979
-0.305621
-0.305346
-0.305209
-0.305253
-0.305512
-0.306015
-0.30678
-0.307826
-0.309241
-0.310485
-0.313956
-0.311823
-0.322589
-0.311452
-0.309075
-0.309014
-0.308771
-0.308356
-0.307804
-0.307175
-0.306541
-0.305974
-0.30554
-0.30529
-0.305264
-0.305495
-0.306002
-0.306795
-0.307984
-0.30891
-0.31216
-0.309558
-0.31957
-0.30881
-0.311224
-0.311064
-0.310682
-0.310077
-0.309291
-0.308392
-0.307463
-0.30659
-0.305845
-0.305292
-0.304976
-0.304933
-0.305183
-0.30572
-0.306651
-0.30729
-0.310009
-0.307382
-0.315462
-0.305965
-0.313455
-0.313212
-0.312687
-0.311881
-0.310846
-0.309663
-0.308427
-0.307235
-0.306173
-0.305312
-0.304706
-0.30439
-0.304378
-0.304647
-0.305262
-0.305608
-0.307476
-0.305088
-0.310442
-0.302392
-0.31583
-0.315503
-0.314826
-0.313806
-0.312508
-0.311028
-0.309476
-0.307959
-0.306577
-0.305409
-0.304512
-0.303918
-0.303628
-0.303595
-0.303806
-0.303778
-0.304548
-0.302329
-0.304799
-0.297759
-0.318418
-0.317992
-0.317147
-0.315896
-0.314322
-0.312534
-0.310657
-0.308813
-0.307111
-0.305636
-0.304445
-0.30356
-0.302956
-0.302554
-0.302246
-0.301679
-0.301191
-0.298806
-0.298623
-0.292037
-0.321289
-0.320737
-0.319702
-0.318202
-0.316334
-0.314228
-0.312022
-0.309849
-0.307827
-0.306043
-0.304546
-0.303338
-0.302357
-0.301482
-0.300514
-0.299192
-0.297356
-0.294377
-0.291726
-0.285404
-0.324519
-0.323798
-0.322544
-0.320771
-0.318594
-0.316158
-0.313617
-0.311114
-0.30877
-0.306667
-0.304839
-0.303253
-0.301804
-0.300318
-0.298529
-0.296235
-0.293029
-0.289085
-0.284014
-0.278035
-0.328178
-0.327236
-0.325728
-0.323655
-0.321147
-0.318371
-0.315489
-0.312651
-0.309976
-0.307534
-0.305328
-0.303285
-0.301244
-0.298987
-0.296216
-0.292777
-0.288244
-0.283111
-0.276158
-0.269831
-0.332333
-0.331105
-0.329302
-0.3269
-0.324041
-0.320909
-0.317678
-0.314497
-0.311474
-0.308654
-0.306
-0.303388
-0.300609
-0.297416
-0.293521
-0.288836
-0.283032
-0.276622
-0.268691
-0.261252
-0.337041
-0.335457
-0.333315
-0.330551
-0.327317
-0.323815
-0.320222
-0.316681
-0.313278
-0.31002
-0.306822
-0.303505
-0.299826
-0.295543
-0.290424
-0.284464
-0.277456
-0.269954
-0.261159
-0.252855
-0.342352
-0.340338
-0.337811
-0.334652
-0.331018
-0.327127
-0.323154
-0.319225
-0.315392
-0.311612
-0.307743
-0.303565
-0.298826
-0.293327
-0.286932
-0.279725
-0.271631
-0.263172
-0.253697
-0.244847
-0.348309
-0.345786
-0.342828
-0.339241
-0.335181
-0.33088
-0.326502
-0.322142
-0.317805
-0.313388
-0.308697
-0.30349
-0.297547
-0.290746
-0.283072
-0.274693
-0.265629
-0.256365
-0.246339
-0.237035
-0.354943
-0.351837
-0.348403
-0.344355
-0.339845
-0.335107
-0.330287
-0.325434
-0.32049
-0.315292
-0.309608
-0.303207
-0.295942
-0.287799
-0.278885
-0.269427
-0.259512
-0.24956
-0.23907
-0.229417
-0.362279
-0.358518
-0.354567
-0.35003
-0.345042
-0.339836
-0.334521
-0.329084
-0.323399
-0.317248
-0.310389
-0.302646
-0.293978
-0.284496
-0.274408
-0.263973
-0.25331
-0.24276
-0.231882
-0.221915
-0.37033
-0.365846
-0.361343
-0.356291
-0.350798
-0.345083
-0.339198
-0.333057
-0.326463
-0.319165
-0.310953
-0.301746
-0.291636
-0.280853
-0.269672
-0.258356
-0.247031
-0.235954
-0.224739
-0.214494
-0.379098
-0.373831
-0.368747
-0.363158
-0.357129
-0.350846
-0.344288
-0.337287
-0.329587
-0.32094
-0.311212
-0.300457
-0.288907
-0.276883
-0.264695
-0.252584
-0.240666
-0.229119
-0.217612
-0.207113
-0.388567
-0.382467
-0.376781
-0.370634
-0.36403
-0.357099
-0.349734
-0.341682
-0.332659
-0.322462
-0.311086
-0.298741
-0.285783
-0.272592
-0.259479
-0.246649
-0.234196
-0.222224
-0.210465
-0.199734
-0.398702
-0.39173
-0.385427
-0.378704
-0.371471
-0.363786
-0.355442
-0.346121
-0.335546
-0.32362
-0.310503
-0.296565
-0.282256
-0.267977
-0.254015
-0.240531
-0.227592
-0.215239
-0.203262
-0.192325
-0.409443
-0.401574
-0.394647
-0.387322
-0.379391
-0.370813
-0.361287
-0.350456
-0.338108
-0.324307
-0.309401
-0.293899
-0.278309
-0.263022
-0.248282
-0.234202
-0.220822
-0.208129
-0.19597
-0.18485
-0.420701
-0.411925
-0.404372
-0.396414
-0.38769
-0.378049
-0.367108
-0.354518
-0.3402
-0.324421
-0.30772
-0.290711
-0.273921
-0.257703
-0.24225
-0.227631
-0.213853
-0.200862
-0.188555
-0.17728
-0.432353
-0.422678
-0.4145
-0.405865
-0.396228
-0.385323
-0.372714
-0.358128
-0.34168
-0.32387
-0.305406
-0.286966
-0.26906
-0.251987
-0.235885
-0.220779
-0.206648
-0.193404
-0.180985
-0.169585
-0.444244
-0.433695
-0.424893
-0.415521
-0.404823
-0.392427
-0.377895
-0.361102
-0.342414
-0.322568
-0.302403
-0.282623
-0.263688
-0.245837
-0.229148
-0.213611
-0.199173
-0.185724
-0.173232
-0.161738
-0.456179
-0.4448
-0.435375
-0.425188
-0.413256
-0.399125
-0.382426
-0.363258
-0.342274
-0.320431
-0.298657
-0.277636
-0.257763
-0.239209
-0.222
-0.206088
-0.191394
-0.177792
-0.165265
-0.153715
-0.46793
-0.455781
-0.445728
-0.434629
-0.42127
-0.40516
-0.38608
-0.364422
-0.341143
-0.317383
-0.294109
-0.271954
-0.251238
-0.232061
-0.2144
-0.198174
-0.183279
-0.169578
-0.157058
-0.14549
-0.479235
-0.466391
-0.455699
-0.443573
-0.428582
-0.410263
-0.388633
-0.364432
-0.338911
-0.313347
-0.288699
-0.265526
-0.244065
-0.224348
-0.206308
-0.189835
-0.1748
-0.161056
-0.148585
-0.137043
-0.4898
-0.476351
-0.465002
-0.451721
-0.434893
-0.414164
-0.389871
-0.363138
-0.335478
-0.308249
-0.282367
-0.258299
-0.236195
-0.216028
-0.197688
-0.181038
-0.165928
-0.152203
-0.139826
-0.128363
-0.499312
-0.485357
-0.473324
-0.458752
-0.439896
-0.416599
-0.389598
-0.360405
-0.330749
-0.302019
-0.275053
-0.250219
-0.227583
-0.20706
-0.188505
-0.171756
-0.15664
-0.142997
-0.130767
-0.119447
-0.507436
-0.493082
-0.480334
-0.464335
-0.443286
-0.417323
-0.387636
-0.35611
-0.324639
-0.29459
-0.266702
-0.241237
-0.218184
-0.197407
-0.178728
-0.161961
-0.146914
-0.13342
-0.121399
-0.110302
-0.513834
-0.499192
-0.485692
-0.468141
-0.444773
-0.416109
-0.383826
-0.350148
-0.317071
-0.285901
-0.25726
-0.231309
-0.207962
-0.187039
-0.168332
-0.151633
-0.13673
-0.123453
-0.11171
-0.10091
-0.518164
-0.503346
-0.48906
-0.469852
-0.444089
-0.41276
-0.378035
-0.342429
-0.307979
-0.275897
-0.246681
-0.220394
-0.196884
-0.17593
-0.157297
-0.140754
-0.126073
-0.113084
-0.101679
-0.0912053
-0.520098
-0.505216
-0.490113
-0.469172
-0.440997
-0.407106
-0.370153
-0.332877
-0.297306
-0.264532
-0.234927
-0.208461
-0.184925
-0.164059
-0.145605
-0.129309
-0.114932
-0.102309
-0.0912969
-0.0810708
-0.519325
-0.504489
-0.488549
-0.465835
-0.435293
-0.399012
-0.360091
-0.321434
-0.285009
-0.251771
-0.221969
-0.195489
-0.172067
-0.151408
-0.133242
-0.11729
-0.103301
-0.0911326
-0.0805767
-0.0704887
-0.515564
-0.500879
-0.484096
-0.459615
-0.426814
-0.388373
-0.34779
-0.30806
-0.271057
-0.237588
-0.207784
-0.181456
-0.158293
-0.137968
-0.120198
-0.104709
-0.091191
-0.0795627
-0.069484
-0.0597924
-0.508569
-0.494135
-0.476525
-0.450328
-0.415437
-0.375122
-0.333211
-0.292733
-0.255434
-0.221971
-0.192362
-0.166351
-0.143589
-0.123756
-0.106485
-0.0915885
-0.0786383
-0.0676068
-0.0579962
-0.0489169
-0.498139
-0.484052
-0.465652
-0.437838
-0.401083
-0.359222
-0.316342
-0.27545
-0.238138
-0.204916
-0.175698
-0.150182
-0.12796
-0.108813
-0.0921707
-0.0778916
-0.0656274
-0.0552559
-0.0461804
-0.0377987
-0.484119
-0.47047
-0.451343
-0.422058
-0.383716
-0.34067
-0.297196
-0.256225
-0.21918
-0.186432
-0.157816
-0.133002
-0.111518
-0.0930758
-0.0772133
-0.0636681
-0.0521702
-0.0425265
-0.0340675
-0.0264298
-0.466409
-0.453284
-0.433521
-0.402951
-0.36334
-0.319497
-0.27581
-0.235091
-0.198593
-0.166565
-0.138793
-0.114811
-0.0942112
-0.0766205
-0.0616378
-0.0489426
-0.0382909
-0.0294438
-0.021675
-0.0148284
-0.444963
-0.432443
-0.41216
-0.380531
-0.340002
-0.295767
-0.252247
-0.212105
-0.176446
-0.145391
-0.118612
-0.0956517
-0.0760767
-0.0594826
-0.045484
-0.0337433
-0.0240196
-0.0160365
-0.00902408
-0.00302185
-0.419792
-0.407952
-0.387291
-0.354862
-0.313796
-0.269575
-0.226588
-0.187354
-0.152806
-0.12293
-0.0973445
-0.0755746
-0.0571671
-0.0417032
-0.0287959
-0.018106
-0.0093908
-0.00233713
0.00385587
0.00895604
-0.390962
-0.379871
-0.359001
-0.326067
-0.284861
-0.241025
-0.19893
-0.160929
-0.127744
-0.0992647
-0.0750617
-0.0546433
-0.0375426
-0.0233321
-0.0116214
-0.00207377
0.00555604
0.0116171
0.0169282
0.0210656
-0.358597
-0.348316
-0.327437
-0.294325
-0.253325
-0.210199
-0.169426
-0.132945
-0.101364
-0.0744873
-0.0518454
-0.0329315
-0.0172701
-0.00442839
0.00598578
0.0143047
0.0207771
0.0257869
0.0301548
0.0332657
-0.322868
-0.313457
-0.292798
-0.259794
-0.219221
-0.177397
-0.138224
-0.103535
-0.073786
-0.0487038
-0.0277889
-0.0105228
0.00357532
0.0149411
0.0239654
0.0309743
0.0362241
0.0401331
0.0435018
0.0455224
-0.283957
-0.275537
-0.255289
-0.222487
-0.182993
-0.142772
-0.105498
-0.0728506
-0.0451422
-0.0220319
-0.0029968
0.0124896
0.0249109
0.0347027
0.0422509
0.0478744
0.0518456
0.0546173
0.0569335
0.0577935
-0.242074
-0.234848
-0.214995
-0.182876
-0.144867
-0.106535
-0.0714369
-0.0410588
-0.0155792
0.00539879
0.0224162
0.0360042
0.0466465
0.0547763
0.0607701
0.0649418
0.0675923
0.0691982
0.0703767
0.0699377
-0.197491
-0.191685
-0.172247
-0.141348
-0.105065
-0.0689165
-0.0362455
-0.00833868
0.0147449
0.0334484
0.0483263
0.0599113
0.0686856
0.0750761
0.0794476
0.0821157
0.0834226
0.083824
0.0836695
0.0816114
-0.150628
-0.146261
-0.127597
-0.0981232
-0.0638602
-0.0301657
-0.000141494
0.0251184
0.045661
0.0619674
0.0746011
0.0840942
0.0909248
0.0955108
0.0982055
0.0993386
0.0992958
0.0984179
0.0965974
0.0925335
-0.102051
-0.0988681
-0.0813299
-0.0535177
-0.0215467
0.00945632
0.0366458
0.0591105
0.0769908
0.0907983
0.101102
0.10843
0.113255
0.115985
0.116964
0.116547
0.115142
0.11286
0.109104
0.10334
-0.051971
-0.0500084
-0.0337872
-0.00787459
0.0215662
0.0496772
0.073877
0.0934269
0.108548
0.119777
0.127683
0.132791
0.135564
0.136399
0.135638
0.13366
0.130843
0.127009
0.121297
0.116062
-0.000785862
-0.000110007
0.0146491
0.03845
0.0651587
0.0902159
0.111305
0.12785
0.140141
0.148733
0.154194
0.157044
0.157736
0.156654
0.154142
0.150585
0.146284
0.140872
0.133759
0.128728
0.0510675
0.0504103
0.0635801
0.0850906
0.108905
0.130785
0.148679
0.162158
0.171573
0.177493
0.180484
0.181055
0.179651
0.176645
0.172384
0.167237
0.161428
0.154531
0.146316
0.140888
0.103147
0.101128
0.1126
0.131677
0.152475
0.171096
0.185742
0.196125
0.202646
0.205882
0.206395
0.204687
0.201189
0.196269
0.190265
0.183529
0.176221
0.167942
0.158745
0.152612
0.15501
0.151615
0.161302
0.177839
0.19554
0.210857
0.22224
0.229525
0.233158
0.233723
0.231774
0.227803
0.222231
0.215417
0.207692
0.199382
0.190607
0.181023
0.170868
0.16386
0.206211
0.201441
0.209281
0.22321
0.237774
0.249781
0.257917
0.262134
0.262913
0.26084
0.256463
0.250265
0.242655
0.233983
0.22457
0.214717
0.204521
0.193694
0.182591
0.174625
0.256313
0.250181
0.256139
0.267427
0.278856
0.287585
0.292525
0.29373
0.291713
0.28706
0.280312
0.27194
0.262344
0.251863
0.240806
0.229455
0.217889
0.205874
0.193836
0.184868
0.304886
0.297419
0.301487
0.310141
0.318474
0.323993
0.325818
0.324097
0.319367
0.312213
0.30317
0.292695
0.28118
0.268953
0.256312
0.243518
0.230641
0.217492
0.204542
0.194555
0.351514
0.342753
0.344949
0.351011
0.356327
0.358738
0.357561
0.353026
0.34569
0.336137
0.324892
0.312403
0.299051
0.285155
0.271
0.256828
0.242705
0.228485
0.214653
0.203646
0.395799
0.385797
0.386167
0.389715
0.392127
0.391565
0.387528
0.380316
0.370504
0.358674
0.34534
0.330942
0.31585
0.300374
0.284786
0.269313
0.254017
0.238791
0.224118
0.212106
0.437361
0.426184
0.4248
0.425945
0.425603
0.422235
0.415505
0.405778
0.393642
0.379674
0.364382
0.348195
0.331474
0.314519
0.297592
0.280902
0.264513
0.248354
0.232886
0.2199
0.475845
0.463572
0.46053
0.459416
0.456499
0.45052
0.441292
0.429234
0.414945
0.398999
0.381894
0.364054
0.345828
0.327507
0.309342
0.29153
0.274137
0.257122
0.240914
0.226997
0.510924
0.497644
0.493066
0.489865
0.484583
0.476213
0.464703
0.450519
0.434268
0.416519
0.397764
0.378417
0.358821
0.339259
0.319969
0.301137
0.282834
0.265048
0.24816
0.233368
0.542299
0.528113
0.522139
0.517052
0.509639
0.499125
0.485572
0.469485
0.451478
0.432117
0.411887
0.391194
0.370375
0.349704
0.32941
0.309669
0.290556
0.272086
0.254587
0.23899
0.569703
0.554721
0.547514
0.540762
0.53148
0.519087
0.503746
0.485996
0.466456
0.445687
0.42417
0.402303
0.380417
0.358778
0.337609
0.317075
0.297259
0.278197
0.260161
0.243842
0.592904
0.577244
0.568982
0.560812
0.549939
0.535952
0.519096
0.499938
0.4791
0.45714
0.434532
0.411672
0.388883
0.366427
0.344517
0.323313
0.302904
0.283345
0.264852
0.247906
0.611704
0.595494
0.586369
0.577043
0.564876
0.549595
0.531512
0.511212
0.489321
0.466396
0.442906
0.419241
0.395721
0.372603
0.350094
0.328348
0.307461
0.287502
0.268637
0.25117
0.625946
0.609317
0.599535
0.589328
0.576179
0.559917
0.540902
0.519738
0.49705
0.473394
0.449235
0.424961
0.400888
0.377269
0.354306
0.33215
0.310902
0.290641
0.271493
0.253625
0.635507
0.618597
0.608372
0.597572
0.583762
0.566841
0.547201
0.525455
0.502233
0.478085
0.453478
0.428795
0.40435
0.380396
0.357128
0.334697
0.313207
0.292745
0.273407
0.255264
0.640308
0.623256
0.612809
0.60171
0.587568
0.570315
0.550361
0.528324
0.504833
0.480439
0.455606
0.430718
0.406087
0.381964
0.358544
0.335974
0.314362
0.2938
0.274366
0.256085
0.640308
0.623256
0.612809
0.60171
0.587568
0.570315
0.550361
0.528324
0.504833
0.480439
0.455606
0.430718
0.406087
0.381964
0.358544
0.335974
0.314362
0.2938
0.274366
0.256085
0.635507
0.618597
0.608372
0.597572
0.583762
0.566841
0.547201
0.525455
0.502233
0.478085
0.453478
0.428795
0.40435
0.380396
0.357128
0.334697
0.313207
0.292745
0.273407
0.255265
0.625946
0.609317
0.599535
0.589328
0.576179
0.559917
0.540902
0.519738
0.49705
0.473394
0.449235
0.424961
0.400888
0.377269
0.354306
0.33215
0.310902
0.290641
0.271493
0.253625
0.611704
0.595494
0.58637
0.577043
0.564876
0.549595
0.531512
0.511212
0.489321
0.466396
0.442906
0.419241
0.395721
0.372603
0.350094
0.328348
0.307461
0.287502
0.268637
0.25117
0.592904
0.577244
0.568982
0.560812
0.549939
0.535952
0.519097
0.499938
0.4791
0.45714
0.434532
0.411672
0.388883
0.366427
0.344517
0.323313
0.302904
0.283345
0.264852
0.247906
0.569703
0.554721
0.547514
0.540762
0.53148
0.519087
0.503746
0.485996
0.466456
0.445688
0.42417
0.402303
0.380417
0.358778
0.337609
0.317075
0.297259
0.278197
0.260161
0.243842
0.542299
0.528113
0.522139
0.517052
0.509639
0.499125
0.485572
0.469485
0.451478
0.432117
0.411887
0.391194
0.370375
0.349704
0.32941
0.309669
0.290556
0.272086
0.254587
0.23899
0.510924
0.497644
0.493066
0.489865
0.484583
0.476213
0.464703
0.450519
0.434268
0.416519
0.397764
0.378417
0.358821
0.339259
0.319969
0.301137
0.282834
0.265048
0.24816
0.233368
0.475845
0.463572
0.46053
0.459416
0.456499
0.45052
0.441292
0.429234
0.414945
0.398999
0.381894
0.364054
0.345828
0.327507
0.309342
0.29153
0.274137
0.257122
0.240914
0.226997
0.437361
0.426184
0.4248
0.425945
0.425603
0.422235
0.415505
0.405778
0.393642
0.379674
0.364382
0.348195
0.331474
0.314519
0.297592
0.280902
0.264513
0.248354
0.232886
0.2199
0.395799
0.385797
0.386167
0.389715
0.392127
0.391565
0.387528
0.380316
0.370505
0.358674
0.34534
0.330942
0.31585
0.300374
0.284786
0.269313
0.254017
0.238791
0.224118
0.212106
0.351514
0.342753
0.344949
0.351011
0.356327
0.358738
0.357561
0.353026
0.34569
0.336137
0.324892
0.312403
0.299051
0.285155
0.271
0.256828
0.242705
0.228485
0.214653
0.203646
0.304886
0.297419
0.301487
0.310141
0.318474
0.323993
0.325818
0.324097
0.319367
0.312214
0.30317
0.292695
0.28118
0.268953
0.256312
0.243518
0.230641
0.217492
0.204542
0.194555
0.256313
0.250181
0.256139
0.267427
0.278856
0.287585
0.292525
0.29373
0.291713
0.28706
0.280312
0.27194
0.262344
0.251863
0.240806
0.229455
0.217889
0.205874
0.193836
0.184868
0.206211
0.201441
0.209281
0.22321
0.237774
0.249781
0.257917
0.262134
0.262913
0.26084
0.256463
0.250265
0.242655
0.233983
0.22457
0.214717
0.204521
0.193694
0.182591
0.174625
0.15501
0.151615
0.161302
0.177839
0.19554
0.210857
0.22224
0.229525
0.233158
0.233723
0.231774
0.227803
0.222231
0.215417
0.207692
0.199382
0.190607
0.181023
0.170868
0.16386
0.103147
0.101128
0.1126
0.131677
0.152475
0.171096
0.185742
0.196125
0.202646
0.205882
0.206395
0.204687
0.201189
0.196269
0.190265
0.183529
0.176221
0.167942
0.158746
0.152612
0.0510675
0.0504103
0.0635802
0.0850906
0.108905
0.130786
0.148679
0.162158
0.171573
0.177493
0.180484
0.181055
0.179651
0.176645
0.172384
0.167237
0.161428
0.154531
0.146316
0.140888
-0.000785829
-0.000109974
0.0146492
0.03845
0.0651587
0.090216
0.111305
0.12785
0.140141
0.148733
0.154194
0.157044
0.157736
0.156654
0.154142
0.150585
0.146284
0.140872
0.133759
0.128728
-0.051971
-0.0500083
-0.0337871
-0.00787455
0.0215662
0.0496773
0.073877
0.093427
0.108548
0.119777
0.127683
0.132791
0.135564
0.136399
0.135638
0.13366
0.130843
0.127009
0.121297
0.116062
-0.102051
-0.0988681
-0.0813298
-0.0535177
-0.0215466
0.00945636
0.0366458
0.0591105
0.0769908
0.0907983
0.101102
0.10843
0.113255
0.115985
0.116964
0.116547
0.115142
0.11286
0.109104
0.10334
-0.150628
-0.146261
-0.127597
-0.0981231
-0.0638602
-0.0301657
-0.00014146
0.0251184
0.045661
0.0619675
0.0746012
0.0840943
0.0909248
0.0955108
0.0982055
0.0993387
0.0992958
0.0984179
0.0965975
0.0925335
-0.197491
-0.191685
-0.172247
-0.141348
-0.105065
-0.0689164
-0.0362455
-0.00833865
0.0147449
0.0334484
0.0483263
0.0599113
0.0686856
0.0750762
0.0794476
0.0821157
0.0834226
0.083824
0.0836695
0.0816114
-0.242074
-0.234848
-0.214995
-0.182875
-0.144867
-0.106535
-0.0714369
-0.0410588
-0.0155791
0.00539883
0.0224163
0.0360042
0.0466466
0.0547764
0.0607702
0.0649419
0.0675924
0.0691983
0.0703767
0.0699377
-0.283957
-0.275537
-0.255289
-0.222487
-0.182993
-0.142772
-0.105498
-0.0728506
-0.0451422
-0.0220319
-0.00299676
0.0124897
0.0249109
0.0347027
0.0422509
0.0478745
0.0518457
0.0546173
0.0569335
0.0577935
-0.322868
-0.313457
-0.292798
-0.259794
-0.219221
-0.177397
-0.138224
-0.103535
-0.073786
-0.0487037
-0.0277889
-0.0105228
0.00357536
0.0149411
0.0239655
0.0309743
0.0362241
0.0401331
0.0435018
0.0455225
-0.358597
-0.348316
-0.327437
-0.294325
-0.253325
-0.210199
-0.169426
-0.132945
-0.101364
-0.0744873
-0.0518454
-0.0329315
-0.01727
-0.00442835
0.00598582
0.0143047
0.0207771
0.0257869
0.0301548
0.0332658
-0.390962
-0.379871
-0.359001
-0.326067
-0.284861
-0.241025
-0.19893
-0.160929
-0.127744
-0.0992647
-0.0750617
-0.0546433
-0.0375425
-0.023332
-0.0116214
-0.00207374
0.00555608
0.0116172
0.0169283
0.0210656
-0.419792
-0.407952
-0.387291
-0.354862
-0.313796
-0.269575
-0.226588
-0.187354
-0.152806
-0.12293
-0.0973445
-0.0755746
-0.0571671
-0.0417031
-0.0287959
-0.018106
-0.00939076
-0.00233709
0.00385591
0.00895608
-0.444963
-0.432443
-0.41216
-0.380531
-0.340002
-0.295767
-0.252247
-0.212105
-0.176446
-0.145391
-0.118612
-0.0956516
-0.0760767
-0.0594825
-0.045484
-0.0337432
-0.0240195
-0.0160364
-0.00902405
-0.00302181
-0.466409
-0.453284
-0.433521
-0.402951
-0.36334
-0.319497
-0.27581
-0.235091
-0.198593
-0.166565
-0.138793
-0.114811
-0.0942112
-0.0766204
-0.0616378
-0.0489426
-0.0382908
-0.0294438
-0.021675
-0.0148284
-0.484119
-0.47047
-0.451343
-0.422057
-0.383716
-0.34067
-0.297196
-0.256225
-0.21918
-0.186432
-0.157816
-0.133002
-0.111518
-0.0930757
-0.0772132
-0.0636681
-0.0521701
-0.0425265
-0.0340674
-0.0264297
-0.498139
-0.484052
-0.465651
-0.437838
-0.401083
-0.359222
-0.316342
-0.27545
-0.238138
-0.204916
-0.175698
-0.150182
-0.12796
-0.108813
-0.0921707
-0.0778915
-0.0656274
-0.0552558
-0.0461803
-0.0377987
-0.508569
-0.494135
-0.476525
-0.450328
-0.415437
-0.375122
-0.33321
-0.292733
-0.255434
-0.221971
-0.192362
-0.166351
-0.143589
-0.123756
-0.106485
-0.0915885
-0.0786383
-0.0676068
-0.0579962
-0.0489169
-0.515564
-0.500878
-0.484096
-0.459615
-0.426814
-0.388373
-0.34779
-0.30806
-0.271057
-0.237588
-0.207784
-0.181456
-0.158293
-0.137968
-0.120198
-0.104709
-0.091191
-0.0795627
-0.069484
-0.0597924
-0.519325
-0.504489
-0.488548
-0.465835
-0.435293
-0.399012
-0.360091
-0.321434
-0.285009
-0.251771
-0.221969
-0.195489
-0.172067
-0.151408
-0.133242
-0.11729
-0.103301
-0.0911326
-0.0805767
-0.0704887
-0.520098
-0.505216
-0.490113
-0.469171
-0.440997
-0.407106
-0.370153
-0.332877
-0.297306
-0.264532
-0.234927
-0.208461
-0.184925
-0.164059
-0.145605
-0.129309
-0.114931
-0.102309
-0.0912969
-0.0810707
-0.518164
-0.503346
-0.48906
-0.469852
-0.444089
-0.412759
-0.378035
-0.342429
-0.307979
-0.275897
-0.246681
-0.220394
-0.196884
-0.17593
-0.157297
-0.140754
-0.126073
-0.113084
-0.101679
-0.0912053
-0.513834
-0.499191
-0.485692
-0.468141
-0.444773
-0.416109
-0.383826
-0.350148
-0.317071
-0.285901
-0.25726
-0.231309
-0.207962
-0.187039
-0.168332
-0.151633
-0.13673
-0.123453
-0.11171
-0.10091
-0.507436
-0.493082
-0.480334
-0.464335
-0.443286
-0.417323
-0.387635
-0.35611
-0.324638
-0.29459
-0.266702
-0.241237
-0.218184
-0.197407
-0.178728
-0.161961
-0.146914
-0.13342
-0.121399
-0.110302
-0.499312
-0.485357
-0.473324
-0.458752
-0.439896
-0.416599
-0.389598
-0.360404
-0.330749
-0.302019
-0.275053
-0.250219
-0.227583
-0.20706
-0.188505
-0.171756
-0.15664
-0.142997
-0.130767
-0.119447
-0.4898
-0.476351
-0.465002
-0.451721
-0.434893
-0.414164
-0.389871
-0.363138
-0.335478
-0.308249
-0.282367
-0.258299
-0.236195
-0.216028
-0.197688
-0.181038
-0.165928
-0.152203
-0.139826
-0.128363
-0.479235
-0.466391
-0.455699
-0.443573
-0.428582
-0.410263
-0.388633
-0.364432
-0.338911
-0.313347
-0.288699
-0.265526
-0.244065
-0.224348
-0.206308
-0.189835
-0.1748
-0.161056
-0.148585
-0.137043
-0.46793
-0.455781
-0.445728
-0.434629
-0.421269
-0.40516
-0.38608
-0.364422
-0.341143
-0.317383
-0.294109
-0.271954
-0.251238
-0.232061
-0.214399
-0.198174
-0.183279
-0.169578
-0.157058
-0.14549
-0.456179
-0.4448
-0.435375
-0.425188
-0.413256
-0.399125
-0.382426
-0.363258
-0.342274
-0.320431
-0.298657
-0.277636
-0.257763
-0.239209
-0.222
-0.206088
-0.191394
-0.177792
-0.165265
-0.153714
-0.444244
-0.433695
-0.424893
-0.415521
-0.404823
-0.392427
-0.377895
-0.361102
-0.342414
-0.322568
-0.302403
-0.282623
-0.263688
-0.245837
-0.229148
-0.21361
-0.199173
-0.185724
-0.173232
-0.161738
-0.432353
-0.422678
-0.4145
-0.405865
-0.396228
-0.385323
-0.372714
-0.358128
-0.34168
-0.32387
-0.305406
-0.286966
-0.26906
-0.251987
-0.235885
-0.220779
-0.206648
-0.193404
-0.180985
-0.169585
-0.420701
-0.411925
-0.404371
-0.396414
-0.38769
-0.378049
-0.367108
-0.354518
-0.3402
-0.324421
-0.30772
-0.290711
-0.273921
-0.257703
-0.24225
-0.22763
-0.213853
-0.200862
-0.188555
-0.17728
-0.409443
-0.401574
-0.394647
-0.387322
-0.379391
-0.370813
-0.361287
-0.350456
-0.338108
-0.324307
-0.309401
-0.293899
-0.278309
-0.263022
-0.248282
-0.234202
-0.220822
-0.208129
-0.195969
-0.18485
-0.398702
-0.39173
-0.385427
-0.378704
-0.371471
-0.363786
-0.355442
-0.346121
-0.335546
-0.32362
-0.310503
-0.296565
-0.282256
-0.267977
-0.254015
-0.240531
-0.227592
-0.215239
-0.203262
-0.192324
-0.388567
-0.382467
-0.376781
-0.370634
-0.36403
-0.357099
-0.349734
-0.341682
-0.332659
-0.322462
-0.311086
-0.298741
-0.285783
-0.272592
-0.259479
-0.246649
-0.234196
-0.222224
-0.210465
-0.199734
-0.379098
-0.373831
-0.368747
-0.363158
-0.357129
-0.350846
-0.344288
-0.337287
-0.329587
-0.32094
-0.311212
-0.300457
-0.288907
-0.276883
-0.264695
-0.252584
-0.240666
-0.229119
-0.217612
-0.207113
-0.37033
-0.365846
-0.361343
-0.356291
-0.350798
-0.345083
-0.339198
-0.333057
-0.326462
-0.319165
-0.310953
-0.301745
-0.291636
-0.280853
-0.269672
-0.258356
-0.247031
-0.235954
-0.224739
-0.214494
-0.362279
-0.358518
-0.354567
-0.35003
-0.345041
-0.339836
-0.334521
-0.329084
-0.323399
-0.317248
-0.310389
-0.302646
-0.293978
-0.284496
-0.274408
-0.263973
-0.25331
-0.24276
-0.231882
-0.221915
-0.354943
-0.351837
-0.348403
-0.344355
-0.339845
-0.335107
-0.330287
-0.325434
-0.32049
-0.315292
-0.309608
-0.303207
-0.295942
-0.287799
-0.278885
-0.269427
-0.259512
-0.24956
-0.23907
-0.229417
-0.348309
-0.345786
-0.342828
-0.339241
-0.335181
-0.33088
-0.326502
-0.322142
-0.317805
-0.313388
-0.308697
-0.30349
-0.297547
-0.290746
-0.283072
-0.274693
-0.265629
-0.256365
-0.246339
-0.237035
-0.342352
-0.340337
-0.337811
-0.334652
-0.331018
-0.327126
-0.323154
-0.319225
-0.315392
-0.311612
-0.307743
-0.303565
-0.298826
-0.293327
-0.286932
-0.279725
-0.271631
-0.263172
-0.253697
-0.244847
-0.337041
-0.335457
-0.333315
-0.330551
-0.327317
-0.323815
-0.320222
-0.316681
-0.313278
-0.31002
-0.306822
-0.303505
-0.299826
-0.295543
-0.290424
-0.284464
-0.277456
-0.269954
-0.261159
-0.252855
-0.332333
-0.331105
-0.329302
-0.3269
-0.324041
-0.320909
-0.317678
-0.314497
-0.311474
-0.308654
-0.306
-0.303388
-0.300609
-0.297416
-0.293521
-0.288836
-0.283032
-0.276622
-0.268691
-0.261252
-0.328178
-0.327236
-0.325727
-0.323655
-0.321147
-0.318371
-0.315489
-0.312651
-0.309976
-0.307534
-0.305328
-0.303284
-0.301243
-0.298987
-0.296216
-0.292777
-0.288244
-0.283111
-0.276158
-0.269831
-0.324519
-0.323798
-0.322544
-0.320771
-0.318594
-0.316158
-0.313617
-0.311114
-0.30877
-0.306667
-0.304838
-0.303253
-0.301804
-0.300318
-0.298529
-0.296235
-0.293029
-0.289085
-0.284014
-0.278035
-0.321289
-0.320737
-0.319702
-0.318202
-0.316334
-0.314228
-0.312022
-0.309849
-0.307827
-0.306043
-0.304546
-0.303338
-0.302357
-0.301482
-0.300514
-0.299192
-0.297355
-0.294377
-0.291726
-0.285404
-0.318417
-0.317992
-0.317147
-0.315896
-0.314322
-0.312534
-0.310657
-0.308813
-0.307111
-0.305636
-0.304445
-0.30356
-0.302956
-0.302554
-0.302246
-0.301679
-0.301191
-0.298805
-0.298623
-0.292037
-0.31583
-0.315503
-0.314826
-0.313806
-0.312508
-0.311028
-0.309476
-0.307959
-0.306577
-0.305409
-0.304512
-0.303918
-0.303628
-0.303595
-0.303806
-0.303778
-0.304548
-0.302329
-0.304799
-0.297759
-0.313455
-0.313212
-0.312687
-0.311881
-0.310846
-0.309662
-0.308427
-0.307235
-0.306173
-0.305312
-0.304706
-0.30439
-0.304378
-0.304647
-0.305261
-0.305608
-0.307476
-0.305088
-0.310442
-0.302392
-0.311224
-0.311064
-0.310682
-0.310077
-0.309291
-0.308391
-0.307463
-0.30659
-0.305845
-0.305292
-0.304976
-0.304933
-0.305183
-0.30572
-0.306651
-0.30729
-0.310009
-0.307382
-0.315462
-0.305965
-0.309075
-0.309014
-0.308771
-0.308356
-0.307804
-0.307175
-0.306541
-0.305974
-0.30554
-0.30529
-0.305264
-0.305495
-0.306002
-0.306795
-0.307984
-0.308909
-0.31216
-0.309558
-0.31957
-0.30881
-0.306965
-0.307021
-0.30692
-0.306687
-0.306355
-0.305979
-0.305621
-0.305346
-0.305209
-0.305253
-0.305512
-0.306015
-0.30678
-0.307826
-0.309241
-0.310485
-0.313956
-0.311823
-0.322589
-0.311452
-0.30486
-0.305059
-0.305104
-0.305046
-0.304922
-0.30478
-0.304677
-0.304672
-0.304812
-0.305134
-0.305668
-0.306436
-0.307457
-0.308756
-0.310388
-0.311974
-0.315458
-0.314168
-0.324635
-0.314258
-0.302742
-0.303117
-0.303313
-0.303423
-0.303491
-0.303561
-0.30369
-0.303929
-0.304322
-0.3049
-0.30569
-0.30671
-0.307979
-0.309524
-0.311374
-0.313307
-0.31672
-0.316438
-0.326017
-0.317243
-0.300612
-0.301192
-0.301546
-0.301816
-0.302059
-0.30232
-0.302653
-0.303108
-0.303724
-0.304531
-0.305551
-0.306802
-0.308304
-0.310081
-0.312149
-0.314395
-0.317767
-0.31845
-0.327022
-0.320179