0.0500155 	0.499829 	8.52988e-19 	0.179132 	-0.00897573 	3.27171e-17
