/*--------------------------------*- C++ -*----------------------------------*\
  =========                 |
  \\      /  F ield         | OpenFOAM: The Open Source CFD Toolbox
   \\    /   O peration     | Website:  https://openfoam.org
    \\  /    A nd           | Version:  7
     \\/     M anipulation  |
\*---------------------------------------------------------------------------*/
FoamFile
{
    version     2.0;
    format      ascii;
    class       volScalarField;
    location    "19.00073";
    object      p;
}
// * * * * * * * * * * * * * * * * * * * * * * * * * * * * * * * * * * * * * //

dimensions      [0 2 -2 0 0 0 0];

internalField   nonuniform List<scalar> 
23200
(
-0.292921
-0.297121
-0.299577
-0.300929
-0.301488
-0.301221
-0.300139
-0.298267
-0.295621
-0.292215
-0.288061
-0.283178
-0.277589
-0.271328
-0.264449
-0.257023
-0.249152
-0.240998
-0.232704
-0.224104
-0.293748
-0.297855
-0.300241
-0.301535
-0.302039
-0.301723
-0.300597
-0.298685
-0.296004
-0.292566
-0.288383
-0.283473
-0.277858
-0.271571
-0.264662
-0.257202
-0.249288
-0.241094
-0.232742
-0.223921
-0.295393
-0.299316
-0.301564
-0.30274
-0.303135
-0.302721
-0.301507
-0.299516
-0.296764
-0.293262
-0.289022
-0.284058
-0.278391
-0.272051
-0.265084
-0.257556
-0.249558
-0.241282
-0.232819
-0.223555
-0.29784
-0.301489
-0.303532
-0.304533
-0.304766
-0.304205
-0.302858
-0.300749
-0.29789
-0.294293
-0.289966
-0.284922
-0.279178
-0.272759
-0.265706
-0.258077
-0.249955
-0.241557
-0.232935
-0.223004
-0.301064
-0.304355
-0.306128
-0.306898
-0.306916
-0.306159
-0.304637
-0.30237
-0.299369
-0.295644
-0.291202
-0.286051
-0.280204
-0.27368
-0.266514
-0.258754
-0.250469
-0.241911
-0.23309
-0.222271
-0.305035
-0.307887
-0.309327
-0.309812
-0.309564
-0.308564
-0.306823
-0.304359
-0.301181
-0.297296
-0.29271
-0.287426
-0.281451
-0.274798
-0.267494
-0.259573
-0.251091
-0.242336
-0.233284
-0.221356
-0.309717
-0.312055
-0.313104
-0.31325
-0.312687
-0.311398
-0.309395
-0.306694
-0.303304
-0.299228
-0.294467
-0.289024
-0.282897
-0.276092
-0.268626
-0.260518
-0.251808
-0.242822
-0.233518
-0.220266
-0.31507
-0.316825
-0.317427
-0.317186
-0.316258
-0.314635
-0.312329
-0.309353
-0.305715
-0.301415
-0.296454
-0.290824
-0.284521
-0.277541
-0.26989
-0.261574
-0.252608
-0.243356
-0.233792
-0.219008
-0.32105
-0.322159
-0.322264
-0.321587
-0.320249
-0.318249
-0.315598
-0.31231
-0.308389
-0.303835
-0.298642
-0.292801
-0.286299
-0.279123
-0.271267
-0.262722
-0.253476
-0.24393
-0.234105
-0.217595
-0.327613
-0.32802
-0.32758
-0.326424
-0.324632
-0.322213
-0.319178
-0.315539
-0.311302
-0.306462
-0.301011
-0.294933
-0.288209
-0.280817
-0.272737
-0.263946
-0.254401
-0.244532
-0.234455
-0.216046
-0.334716
-0.33437
-0.333341
-0.331665
-0.329379
-0.326499
-0.323042
-0.319018
-0.314431
-0.309275
-0.303538
-0.297199
-0.290231
-0.282603
-0.274283
-0.265231
-0.255372
-0.245154
-0.23484
-0.214388
-0.342313
-0.341171
-0.339515
-0.33728
-0.33446
-0.331083
-0.327168
-0.322725
-0.317756
-0.312255
-0.306204
-0.29958
-0.292348
-0.284465
-0.275889
-0.266563
-0.256379
-0.245789
-0.23525
-0.212655
-0.350365
-0.348386
-0.346068
-0.343239
-0.33985
-0.33594
-0.331533
-0.326639
-0.321259
-0.315384
-0.308995
-0.302063
-0.294545
-0.28639
-0.277541
-0.26793
-0.257413
-0.24643
-0.235671
-0.210886
-0.358831
-0.355982
-0.352969
-0.349515
-0.345524
-0.34105
-0.33612
-0.330744
-0.324925
-0.31865
-0.311899
-0.304636
-0.296812
-0.288367
-0.279232
-0.269324
-0.258468
-0.247075
-0.236083
-0.209128
-0.367675
-0.363924
-0.36019
-0.356082
-0.35146
-0.346393
-0.340912
-0.335028
-0.328743
-0.322044
-0.314908
-0.307292
-0.299143
-0.29039
-0.280954
-0.270738
-0.259538
-0.247726
-0.236459
-0.207447
-0.376864
-0.372184
-0.367702
-0.362916
-0.357638
-0.351952
-0.345895
-0.339478
-0.332704
-0.32556
-0.318016
-0.310027
-0.301533
-0.292454
-0.282702
-0.272167
-0.26062
-0.248392
-0.236772
-0.20594
-0.386365
-0.380732
-0.37548
-0.369994
-0.364038
-0.357711
-0.351057
-0.344088
-0.336805
-0.329194
-0.321222
-0.31284
-0.30398
-0.294557
-0.284473
-0.273607
-0.261712
-0.249081
-0.236937
-0.204633
-0.396149
-0.389539
-0.383499
-0.377294
-0.370642
-0.363658
-0.356389
-0.348849
-0.341039
-0.332943
-0.324523
-0.315727
-0.306481
-0.296694
-0.286263
-0.275058
-0.26283
-0.249818
-0.236739
-0.203303
-0.406184
-0.398577
-0.391732
-0.384795
-0.377433
-0.369777
-0.361881
-0.353756
-0.345403
-0.336804
-0.327918
-0.318685
-0.309029
-0.298856
-0.288063
-0.276522
-0.264025
-0.250733
-0.236255
-0.202675
-0.41644
-0.407815
-0.400152
-0.392472
-0.384391
-0.376055
-0.36752
-0.3588
-0.349891
-0.340773
-0.331399
-0.321706
-0.311612
-0.301025
-0.289849
-0.277982
-0.265313
-0.251988
-0.236838
-0.209692
-0.426881
-0.417222
-0.408731
-0.400302
-0.391496
-0.382473
-0.373295
-0.36397
-0.354494
-0.344839
-0.334955
-0.324773
-0.314208
-0.30317
-0.291576
-0.279361
-0.26653
-0.253319
-0.239722
-0.231528
-0.437468
-0.42676
-0.417434
-0.408253
-0.398722
-0.389012
-0.379187
-0.369252
-0.359196
-0.348987
-0.338567
-0.327863
-0.316785
-0.305246
-0.293176
-0.280541
-0.267427
-0.254089
-0.240527
-0.235945
-0.448156
-0.436386
-0.426224
-0.416293
-0.40604
-0.395646
-0.385174
-0.374623
-0.363975
-0.353192
-0.342207
-0.33094
-0.319298
-0.307198
-0.294579
-0.28143
-0.267871
-0.254126
-0.239939
-0.234956
-0.458891
-0.446053
-0.435054
-0.424382
-0.413414
-0.402342
-0.391225
-0.380053
-0.368802
-0.35742
-0.345835
-0.333958
-0.321695
-0.308965
-0.295715
-0.281951
-0.267803
-0.253459
-0.238568
-0.232002
-0.469611
-0.4557
-0.443874
-0.43247
-0.4208
-0.409059
-0.397301
-0.385505
-0.373633
-0.361626
-0.349401
-0.336861
-0.323912
-0.310475
-0.29651
-0.282035
-0.26718
-0.2521
-0.236453
-0.227877
-0.480241
-0.465262
-0.452621
-0.440503
-0.428146
-0.415748
-0.403354
-0.390927
-0.378417
-0.365753
-0.35284
-0.339578
-0.325873
-0.311652
-0.296889
-0.281616
-0.265966
-0.250067
-0.233641
-0.223047
-0.490697
-0.474662
-0.461223
-0.448413
-0.43539
-0.42235
-0.409323
-0.396258
-0.383088
-0.369729
-0.356077
-0.34203
-0.327495
-0.312414
-0.296776
-0.280635
-0.26413
-0.247379
-0.230197
-0.217785
-0.500881
-0.483809
-0.4696
-0.456124
-0.442458
-0.428791
-0.415137
-0.401424
-0.387568
-0.373471
-0.359025
-0.344124
-0.328688
-0.312675
-0.296098
-0.279036
-0.261646
-0.244051
-0.226167
-0.21221
-0.510684
-0.492605
-0.477658
-0.463548
-0.449267
-0.43499
-0.420712
-0.406337
-0.391765
-0.376885
-0.361584
-0.345763
-0.329356
-0.312347
-0.294781
-0.276769
-0.258491
-0.240086
-0.221572
-0.206351
-0.519982
-0.500938
-0.485293
-0.470588
-0.455721
-0.440852
-0.425951
-0.410898
-0.395576
-0.379864
-0.363648
-0.346842
-0.329402
-0.311346
-0.292757
-0.273786
-0.25464
-0.235485
-0.216423
-0.200195
-0.528642
-0.508685
-0.492391
-0.477133
-0.461713
-0.44627
-0.430746
-0.414997
-0.398887
-0.382291
-0.365102
-0.34725
-0.328725
-0.309586
-0.289961
-0.270043
-0.250072
-0.230239
-0.210718
-0.19371
-0.536518
-0.515714
-0.498827
-0.483062
-0.467125
-0.451125
-0.434977
-0.41851
-0.401575
-0.384045
-0.365826
-0.346877
-0.327229
-0.306988
-0.286334
-0.265502
-0.244767
-0.224341
-0.204451
-0.186854
-0.543455
-0.521881
-0.504466
-0.488246
-0.471828
-0.45529
-0.438514
-0.421307
-0.403509
-0.384997
-0.3657
-0.345614
-0.32482
-0.303478
-0.281821
-0.26013
-0.238705
-0.21778
-0.197614
-0.179593
-0.549288
-0.527036
-0.509163
-0.492545
-0.475684
-0.458626
-0.441219
-0.423249
-0.40455
-0.385015
-0.364602
-0.343354
-0.32141
-0.298989
-0.276378
-0.253898
-0.231873
-0.210548
-0.190196
-0.171891
-0.553848
-0.53102
-0.512769
-0.49581
-0.478549
-0.460988
-0.442947
-0.424192
-0.404561
-0.383968
-0.362414
-0.339997
-0.316918
-0.293461
-0.269964
-0.246784
-0.224258
-0.202635
-0.18219
-0.163723
-0.556958
-0.533669
-0.515125
-0.49789
-0.480269
-0.462225
-0.443547
-0.42399
-0.403402
-0.381729
-0.359023
-0.335449
-0.311273
-0.286844
-0.262547
-0.238768
-0.21585
-0.194037
-0.17359
-0.155069
-0.558441
-0.534818
-0.516073
-0.498626
-0.48069
-0.462182
-0.442868
-0.422496
-0.400935
-0.378174
-0.354326
-0.329626
-0.304414
-0.279097
-0.254104
-0.229839
-0.206643
-0.184749
-0.16439
-0.145914
-0.558121
-0.5343
-0.515449
-0.49786
-0.479653
-0.460705
-0.440759
-0.419568
-0.39703
-0.373189
-0.348227
-0.322457
-0.296289
-0.270187
-0.244616
-0.219989
-0.196635
-0.17477
-0.154588
-0.13625
-0.555823
-0.53195
-0.513095
-0.495433
-0.477003
-0.457641
-0.437074
-0.415068
-0.391564
-0.366669
-0.340644
-0.313879
-0.286858
-0.260093
-0.234074
-0.209216
-0.185828
-0.164102
-0.144186
-0.126072
-0.55138
-0.527607
-0.508851
-0.49119
-0.472587
-0.452841
-0.43167
-0.408867
-0.384425
-0.358523
-0.331505
-0.303846
-0.276092
-0.2488
-0.222474
-0.197522
-0.174225
-0.152748
-0.133187
-0.115383
-0.544631
-0.521117
-0.502569
-0.484982
-0.46626
-0.446164
-0.424419
-0.400849
-0.375512
-0.348671
-0.320756
-0.292321
-0.263974
-0.236303
-0.20982
-0.184914
-0.161835
-0.140716
-0.121597
-0.104184
-0.535431
-0.512339
-0.494107
-0.476669
-0.457884
-0.437482
-0.4152
-0.39091
-0.364744
-0.337052
-0.308355
-0.279284
-0.250496
-0.222606
-0.196121
-0.171404
-0.148669
-0.128017
-0.109425
-0.092485
-0.523645
-0.501142
-0.483335
-0.466125
-0.447336
-0.426679
-0.40391
-0.378964
-0.352052
-0.32362
-0.294278
-0.264725
-0.235665
-0.207723
-0.181394
-0.15701
-0.134743
-0.114664
-0.0966863
-0.0803007
-0.50916
-0.487411
-0.47014
-0.453235
-0.434508
-0.413654
-0.390464
-0.364941
-0.337388
-0.308347
-0.278513
-0.24865
-0.219494
-0.191674
-0.165661
-0.141752
-0.120077
-0.100673
-0.0833966
-0.0676453
-0.49188
-0.471052
-0.454425
-0.437906
-0.41931
-0.398328
-0.374794
-0.348792
-0.320722
-0.291221
-0.261067
-0.231078
-0.202011
-0.174488
-0.148952
-0.125658
-0.104694
-0.0860672
-0.069571
-0.0544932
-0.471733
-0.45199
-0.436114
-0.420061
-0.401672
-0.38064
-0.356856
-0.330491
-0.302046
-0.272252
-0.241963
-0.212039
-0.18325
-0.156202
-0.131302
-0.10876
-0.0886228
-0.0708689
-0.0552346
-0.040801
-0.448672
-0.430172
-0.415154
-0.399649
-0.381547
-0.360554
-0.336626
-0.310031
-0.281369
-0.251465
-0.221235
-0.191577
-0.163259
-0.136861
-0.112751
-0.0910941
-0.0718956
-0.0551012
-0.04042
-0.0268439
-0.422675
-0.405573
-0.391514
-0.376641
-0.358912
-0.338057
-0.314107
-0.287428
-0.258724
-0.228902
-0.198938
-0.169748
-0.142091
-0.116517
-0.0933486
-0.0727034
-0.0545554
-0.0388279
-0.0251065
-0.0125181
-0.393751
-0.378193
-0.365192
-0.351035
-0.33377
-0.313162
-0.289322
-0.262722
-0.234161
-0.204626
-0.175136
-0.146618
-0.119813
-0.0952308
-0.0731488
-0.0536396
-0.03664
-0.0220572
-0.00938244
0.00217493
-0.361937
-0.34806
-0.336213
-0.322856
-0.306152
-0.285908
-0.262324
-0.235974
-0.207753
-0.178714
-0.14991
-0.122267
-0.0964976
-0.0730701
-0.052212
-0.0339531
-0.0181988
-0.00483587
0.00671877
0.0171958
-0.3273
-0.315233
-0.304628
-0.292156
-0.276114
-0.25636
-0.233185
-0.207268
-0.17959
-0.151259
-0.123352
-0.0967817
-0.0722277
-0.0501085
-0.0306047
-0.0137038
0.000716019
0.0127874
0.0231595
0.0325026
-0.289938
-0.279798
-0.270521
-0.259016
-0.243742
-0.224609
-0.202006
-0.17671
-0.149779
-0.122371
-0.0955665
-0.0702622
-0.0470929
-0.0264277
-0.00839967
0.00704326
0.0200468
0.0307611
0.0398948
0.0480504
-0.249978
-0.241872
-0.234001
-0.223547
-0.209146
-0.190773
-0.168907
-0.144426
-0.118446
-0.0921702
-0.0666717
-0.0428156
-0.0211911
-0.0021157
0.0143245
0.0282179
0.0397308
0.0490299
0.0568749
0.0637901
-0.20758
-0.201599
-0.195207
-0.185886
-0.172467
-0.154991
-0.134032
-0.110552
-0.0857367
-0.0607946
-0.0367931
-0.0145578
0.00537282
0.0227336
0.0374838
0.0497447
0.0597006
0.0675335
0.0740444
0.0796658
-0.162933
-0.159152
-0.154306
-0.146197
-0.133869
-0.117426
-0.0975451
-0.0752608
-0.0518037
-0.0283906
-0.00606688
0.0143873
0.0324877
0.0480209
0.0609891
0.0715437
0.0798837
0.0862072
0.0913425
0.0956144
-0.116243
-0.114734
-0.111493
-0.104669
-0.0935349
-0.0782716
-0.0596321
-0.0387262
-0.0168164
0.00488399
0.0253624
0.0438895
0.0600367
0.0736418
0.0847471
0.0935303
0.100203
0.104983
0.108705
0.111566
-0.0676999
-0.0686139
-0.0669865
-0.0615159
-0.0516813
-0.0377299
-0.0204927
-0.00114061
0.0190436
0.038862
0.0573431
0.0738124
0.0878983
0.0994878
0.108661
0.115617
0.12058
0.123796
0.126075
0.127421
-0.0177026
-0.0209516
-0.0210245
-0.0169772
-0.00853838
0.0039736
0.0196563
0.0372905
0.0555853
0.0733686
0.089717
0.104015
0.115947
0.125447
0.13263
0.137712
0.140934
0.14259
0.143389
0.14298
0.0335519
0.027926
0.0261229
0.0286913
0.0356447
0.0465975
0.0605847
0.076351
0.092609
0.108222
0.122321
0.134352
0.144053
0.151406
0.156552
0.159722
0.161184
0.161291
0.160478
0.158006
0.0857548
0.0777287
0.0741756
0.0752162
0.0806023
0.0898868
0.102051
0.115816
0.129908
0.143236
0.154989
0.164674
0.172087
0.177248
0.180324
0.181556
0.181248
0.179764
0.176974
0.172446
0.138577
0.128152
0.122837
0.122308
0.126056
0.133575
0.143806
0.155453
0.167272
0.178219
0.187549
0.194832
0.199915
0.202856
0.203845
0.203133
0.201056
0.197893
0.192654
0.18654
0.191682
0.178875
0.171795
0.169666
0.171715
0.177389
0.185591
0.195026
0.204483
0.212978
0.219831
0.224673
0.227402
0.228112
0.227013
0.224368
0.220535
0.215753
0.208992
0.202431
0.244724
0.229567
0.22073
0.216978
0.217283
0.221045
0.227145
0.234295
0.241327
0.24732
0.251662
0.254045
0.254415
0.252897
0.24972
0.245159
0.239575
0.233174
0.225081
0.217817
0.297349
0.279887
0.269311
0.263929
0.262457
0.26426
0.268203
0.273017
0.277585
0.28105
0.28287
0.282795
0.280817
0.277092
0.271861
0.265409
0.258092
0.25009
0.240677
0.232475
0.3492
0.329492
0.317206
0.310196
0.306933
0.306748
0.308503
0.310955
0.31304
0.313975
0.313283
0.310773
0.306477
0.300577
0.293329
0.285022
0.276004
0.266436
0.255722
0.246424
0.399921
0.378039
0.364083
0.355461
0.350405
0.348224
0.347782
0.347868
0.347482
0.345907
0.342736
0.337831
0.331264
0.323239
0.314023
0.303908
0.293231
0.282141
0.270153
0.259685
0.449158
0.425186
0.409611
0.399405
0.392574
0.388409
0.385783
0.383526
0.3807
0.376661
0.371064
0.363825
0.35505
0.344964
0.333843
0.321978
0.309695
0.297134
0.283908
0.27225
0.496563
0.470596
0.453463
0.441716
0.433145
0.427028
0.422256
0.417702
0.412493
0.406056
0.398108
0.388615
0.377713
0.365645
0.352693
0.339149
0.325323
0.311353
0.296935
0.284093
0.541797
0.513943
0.495324
0.482091
0.471831
0.463816
0.456958
0.450177
0.442666
0.433921
0.423718
0.412066
0.399133
0.385176
0.370482
0.35534
0.340047
0.324737
0.309182
0.295185
0.584534
0.554911
0.534889
0.520239
0.508359
0.49852
0.489658
0.480743
0.471034
0.460091
0.447746
0.434051
0.419199
0.403459
0.387123
0.370475
0.353799
0.33723
0.320603
0.305496
0.624464
0.593201
0.571868
0.555882
0.542468
0.530898
0.520137
0.509204
0.497421
0.484411
0.470058
0.45445
0.437804
0.420401
0.402532
0.384482
0.366518
0.348777
0.331153
0.314994
0.661296
0.628529
0.605987
0.588759
0.573912
0.560724
0.54819
0.535376
0.521664
0.506736
0.490524
0.473149
0.454849
0.435913
0.416635
0.397293
0.378145
0.359328
0.340787
0.323648
0.694759
0.660633
0.636992
0.618628
0.602466
0.587791
0.573627
0.559088
0.543612
0.526933
0.509027
0.490045
0.470242
0.449915
0.429359
0.408846
0.388625
0.368834
0.349464
0.331428
0.724606
0.689274
0.664653
0.645269
0.627923
0.611907
0.596276
0.580187
0.563128
0.544881
0.52546
0.505044
0.4839
0.462334
0.440639
0.419086
0.397909
0.377254
0.357146
0.338304
0.750616
0.714237
0.688762
0.668485
0.650098
0.632904
0.615985
0.598535
0.58009
0.560472
0.539729
0.518061
0.49575
0.473104
0.450419
0.42796
0.405953
0.384547
0.363799
0.344251
0.772594
0.735334
0.709138
0.688101
0.66883
0.650634
0.632618
0.614012
0.59439
0.573611
0.551749
0.529023
0.505725
0.482169
0.458648
0.435424
0.412718
0.390679
0.369391
0.349244
0.790378
0.752407
0.725626
0.703974
0.683982
0.66497
0.646062
0.626518
0.605941
0.584219
0.56145
0.537868
0.513773
0.48948
0.465284
0.441442
0.41817
0.395621
0.373898
0.353264
0.803833
0.765326
0.738103
0.715983
0.695444
0.675812
0.656227
0.635969
0.614668
0.592232
0.568777
0.544546
0.519847
0.494997
0.470291
0.445982
0.422283
0.399348
0.377297
0.356294
0.81286
0.773994
0.746474
0.72404
0.703133
0.683083
0.663042
0.642305
0.620517
0.597602
0.573685
0.54902
0.523916
0.498692
0.473643
0.449022
0.425036
0.401843
0.379572
0.358321
0.81739
0.778344
0.750675
0.728083
0.706991
0.686732
0.666461
0.645483
0.62345
0.600294
0.576147
0.551263
0.525956
0.500545
0.475324
0.450546
0.426416
0.403094
0.380712
0.359336
0.81739
0.778344
0.750675
0.728083
0.706991
0.686732
0.666461
0.645483
0.62345
0.600294
0.576147
0.551263
0.525956
0.500545
0.475324
0.450546
0.426416
0.403094
0.380712
0.359336
0.81286
0.773994
0.746474
0.72404
0.703133
0.683083
0.663042
0.642305
0.620517
0.597602
0.573685
0.54902
0.523916
0.498692
0.473643
0.449022
0.425036
0.401843
0.379572
0.358321
0.803833
0.765326
0.738103
0.715983
0.695444
0.675812
0.656227
0.635969
0.614668
0.592232
0.568777
0.544546
0.519847
0.494997
0.470291
0.445982
0.422283
0.399348
0.377297
0.356294
0.790378
0.752407
0.725626
0.703974
0.683982
0.66497
0.646062
0.626518
0.605941
0.584219
0.56145
0.537868
0.513773
0.48948
0.465284
0.441442
0.41817
0.395621
0.373898
0.353264
0.772594
0.735334
0.709138
0.688101
0.66883
0.650634
0.632618
0.614012
0.59439
0.573611
0.551749
0.529023
0.505725
0.482169
0.458648
0.435424
0.412718
0.390679
0.369391
0.349244
0.750616
0.714237
0.688762
0.668485
0.650098
0.632904
0.615985
0.598535
0.58009
0.560472
0.539729
0.518061
0.49575
0.473104
0.450419
0.42796
0.405953
0.384547
0.363799
0.344251
0.724606
0.689274
0.664653
0.645269
0.627923
0.611907
0.596276
0.580187
0.563128
0.544881
0.52546
0.505044
0.4839
0.462334
0.440639
0.419086
0.397909
0.377254
0.357146
0.338304
0.694759
0.660633
0.636992
0.618628
0.602466
0.587791
0.573627
0.559088
0.543612
0.526933
0.509027
0.490045
0.470242
0.449915
0.429359
0.408846
0.388625
0.368834
0.349464
0.331428
0.661296
0.628529
0.605987
0.588759
0.573912
0.560724
0.54819
0.535376
0.521664
0.506736
0.490524
0.473149
0.454849
0.435913
0.416635
0.397293
0.378145
0.359328
0.340787
0.323648
0.624464
0.593201
0.571868
0.555882
0.542468
0.530898
0.520137
0.509204
0.497421
0.484411
0.470058
0.45445
0.437804
0.420401
0.402532
0.384482
0.366518
0.348777
0.331153
0.314994
0.584534
0.554911
0.53489
0.520239
0.508359
0.49852
0.489658
0.480743
0.471034
0.460091
0.447746
0.434051
0.419199
0.403459
0.387123
0.370475
0.353799
0.33723
0.320604
0.305496
0.541797
0.513943
0.495324
0.482091
0.471831
0.463816
0.456958
0.450177
0.442666
0.433921
0.423718
0.412066
0.399133
0.385176
0.370482
0.35534
0.340047
0.324737
0.309182
0.295185
0.496563
0.470596
0.453463
0.441716
0.433145
0.427028
0.422256
0.417702
0.412493
0.406056
0.398108
0.388615
0.377713
0.365645
0.352693
0.339149
0.325323
0.311353
0.296935
0.284093
0.449158
0.425186
0.409611
0.399405
0.392574
0.388409
0.385783
0.383526
0.3807
0.376661
0.371064
0.363825
0.35505
0.344964
0.333843
0.321978
0.309695
0.297134
0.283908
0.27225
0.399922
0.378039
0.364083
0.355461
0.350405
0.348224
0.347782
0.347868
0.347482
0.345907
0.342736
0.337831
0.331264
0.323239
0.314023
0.303908
0.293231
0.282141
0.270153
0.259685
0.3492
0.329492
0.317206
0.310196
0.306933
0.306748
0.308503
0.310955
0.31304
0.313976
0.313283
0.310773
0.306477
0.300577
0.293329
0.285022
0.276004
0.266436
0.255722
0.246424
0.297349
0.279887
0.269311
0.263929
0.262457
0.26426
0.268203
0.273018
0.277585
0.28105
0.28287
0.282795
0.280817
0.277092
0.271861
0.265409
0.258092
0.25009
0.240677
0.232475
0.244724
0.229567
0.22073
0.216978
0.217283
0.221045
0.227145
0.234295
0.241327
0.24732
0.251662
0.254045
0.254415
0.252897
0.24972
0.245159
0.239575
0.233174
0.225081
0.217817
0.191682
0.178875
0.171796
0.169666
0.171715
0.177389
0.185591
0.195026
0.204483
0.212978
0.219831
0.224673
0.227402
0.228112
0.227013
0.224368
0.220535
0.215753
0.208992
0.202431
0.138577
0.128152
0.122837
0.122308
0.126056
0.133575
0.143806
0.155453
0.167272
0.178219
0.187549
0.194832
0.199915
0.202856
0.203845
0.203133
0.201056
0.197893
0.192654
0.18654
0.0857548
0.0777287
0.0741757
0.0752162
0.0806023
0.0898868
0.102051
0.115816
0.129908
0.143236
0.154989
0.164674
0.172087
0.177248
0.180324
0.181556
0.181248
0.179764
0.176974
0.172446
0.033552
0.027926
0.0261229
0.0286914
0.0356447
0.0465975
0.0605848
0.076351
0.092609
0.108222
0.122321
0.134352
0.144053
0.151406
0.156552
0.159722
0.161184
0.161291
0.160478
0.158006
-0.0177025
-0.0209515
-0.0210244
-0.0169772
-0.00853835
0.00397363
0.0196563
0.0372905
0.0555853
0.0733686
0.0897171
0.104015
0.115947
0.125447
0.13263
0.137712
0.140934
0.14259
0.143389
0.142981
-0.0676999
-0.0686139
-0.0669864
-0.0615159
-0.0516813
-0.0377299
-0.0204927
-0.00114058
0.0190436
0.0388621
0.0573431
0.0738125
0.0878983
0.0994879
0.108661
0.115617
0.12058
0.123796
0.126075
0.127421
-0.116243
-0.114734
-0.111493
-0.104669
-0.0935348
-0.0782716
-0.059632
-0.0387262
-0.0168164
0.00488402
0.0253625
0.0438895
0.0600367
0.0736418
0.0847472
0.0935303
0.100203
0.104983
0.108706
0.111566
-0.162933
-0.159152
-0.154306
-0.146197
-0.133869
-0.117426
-0.0975451
-0.0752608
-0.0518037
-0.0283906
-0.00606684
0.0143874
0.0324877
0.0480209
0.0609891
0.0715437
0.0798837
0.0862073
0.0913425
0.0956145
-0.20758
-0.201599
-0.195207
-0.185886
-0.172467
-0.154991
-0.134032
-0.110552
-0.0857367
-0.0607946
-0.0367931
-0.0145578
0.00537285
0.0227337
0.0374838
0.0497448
0.0597006
0.0675335
0.0740444
0.0796659
-0.249978
-0.241872
-0.234
-0.223547
-0.209146
-0.190773
-0.168907
-0.144425
-0.118446
-0.0921701
-0.0666717
-0.0428155
-0.021191
-0.00211567
0.0143245
0.0282179
0.0397309
0.0490299
0.056875
0.0637902
-0.289938
-0.279798
-0.270521
-0.259016
-0.243742
-0.224609
-0.202006
-0.17671
-0.149779
-0.122371
-0.0955665
-0.0702622
-0.0470928
-0.0264277
-0.00839963
0.00704329
0.0200468
0.0307612
0.0398949
0.0480505
-0.3273
-0.315233
-0.304628
-0.292156
-0.276114
-0.25636
-0.233185
-0.207268
-0.17959
-0.151259
-0.123352
-0.0967817
-0.0722276
-0.0501084
-0.0306047
-0.0137038
0.000716055
0.0127874
0.0231595
0.0325026
-0.361937
-0.34806
-0.336213
-0.322856
-0.306152
-0.285908
-0.262324
-0.235974
-0.207753
-0.178714
-0.14991
-0.122266
-0.0964976
-0.0730701
-0.052212
-0.033953
-0.0181987
-0.00483583
0.0067188
0.0171959
-0.393751
-0.378193
-0.365192
-0.351035
-0.33377
-0.313162
-0.289322
-0.262722
-0.234161
-0.204626
-0.175136
-0.146618
-0.119813
-0.0952308
-0.0731487
-0.0536396
-0.03664
-0.0220571
-0.0093824
0.00217496
-0.422675
-0.405573
-0.391514
-0.376641
-0.358912
-0.338057
-0.314107
-0.287428
-0.258724
-0.228902
-0.198938
-0.169747
-0.142091
-0.116517
-0.0933486
-0.0727033
-0.0545553
-0.0388279
-0.0251064
-0.0125181
-0.448671
-0.430172
-0.415154
-0.399649
-0.381547
-0.360554
-0.336626
-0.310031
-0.281369
-0.251464
-0.221235
-0.191577
-0.163258
-0.136861
-0.112751
-0.091094
-0.0718956
-0.0551011
-0.0404199
-0.0268439
-0.471733
-0.45199
-0.436114
-0.420061
-0.401672
-0.38064
-0.356856
-0.330491
-0.302046
-0.272252
-0.241963
-0.212039
-0.18325
-0.156202
-0.131302
-0.10876
-0.0886227
-0.0708689
-0.0552346
-0.040801
-0.49188
-0.471052
-0.454425
-0.437906
-0.41931
-0.398327
-0.374794
-0.348792
-0.320722
-0.291221
-0.261067
-0.231078
-0.202011
-0.174488
-0.148952
-0.125658
-0.104694
-0.0860671
-0.0695709
-0.0544932
-0.50916
-0.487411
-0.47014
-0.453235
-0.434508
-0.413654
-0.390464
-0.364941
-0.337388
-0.308346
-0.278513
-0.24865
-0.219494
-0.191674
-0.165661
-0.141752
-0.120077
-0.100673
-0.0833966
-0.0676453
-0.523645
-0.501142
-0.483335
-0.466125
-0.447336
-0.426679
-0.40391
-0.378964
-0.352052
-0.32362
-0.294278
-0.264725
-0.235665
-0.207723
-0.181394
-0.15701
-0.134743
-0.114664
-0.0966862
-0.0803007
-0.535431
-0.512339
-0.494107
-0.476669
-0.457884
-0.437482
-0.4152
-0.39091
-0.364744
-0.337052
-0.308355
-0.279284
-0.250496
-0.222606
-0.196121
-0.171404
-0.148669
-0.128017
-0.109425
-0.092485
-0.544631
-0.521117
-0.502569
-0.484982
-0.46626
-0.446164
-0.424419
-0.400849
-0.375512
-0.348671
-0.320756
-0.292321
-0.263973
-0.236303
-0.20982
-0.184914
-0.161835
-0.140716
-0.121597
-0.104184
-0.55138
-0.527607
-0.508851
-0.49119
-0.472587
-0.452841
-0.43167
-0.408867
-0.384425
-0.358523
-0.331505
-0.303846
-0.276092
-0.2488
-0.222474
-0.197522
-0.174225
-0.152748
-0.133187
-0.115383
-0.555823
-0.53195
-0.513094
-0.495433
-0.477003
-0.457641
-0.437074
-0.415068
-0.391564
-0.366669
-0.340644
-0.313879
-0.286858
-0.260093
-0.234074
-0.209216
-0.185828
-0.164102
-0.144186
-0.126072
-0.558121
-0.5343
-0.515449
-0.49786
-0.479653
-0.460705
-0.440759
-0.419568
-0.39703
-0.373189
-0.348227
-0.322457
-0.296289
-0.270187
-0.244616
-0.219989
-0.196635
-0.17477
-0.154588
-0.13625
-0.558441
-0.534818
-0.516073
-0.498626
-0.48069
-0.462182
-0.442868
-0.422496
-0.400935
-0.378174
-0.354326
-0.329626
-0.304414
-0.279097
-0.254104
-0.229839
-0.206643
-0.184749
-0.16439
-0.145914
-0.556958
-0.533669
-0.515125
-0.49789
-0.480269
-0.462225
-0.443547
-0.42399
-0.403402
-0.381729
-0.359023
-0.335449
-0.311273
-0.286844
-0.262547
-0.238768
-0.21585
-0.194037
-0.17359
-0.155069
-0.553848
-0.53102
-0.512769
-0.49581
-0.478549
-0.460988
-0.442947
-0.424192
-0.404561
-0.383968
-0.362413
-0.339997
-0.316918
-0.293461
-0.269963
-0.246784
-0.224258
-0.202635
-0.18219
-0.163723
-0.549288
-0.527036
-0.509163
-0.492545
-0.475684
-0.458626
-0.441219
-0.423249
-0.40455
-0.385015
-0.364601
-0.343354
-0.32141
-0.298988
-0.276378
-0.253898
-0.231873
-0.210548
-0.190196
-0.171891
-0.543455
-0.521881
-0.504466
-0.488246
-0.471828
-0.45529
-0.438514
-0.421307
-0.403508
-0.384997
-0.3657
-0.345614
-0.32482
-0.303478
-0.281821
-0.26013
-0.238705
-0.21778
-0.197614
-0.179592
-0.536518
-0.515714
-0.498827
-0.483062
-0.467125
-0.451125
-0.434977
-0.41851
-0.401575
-0.384045
-0.365826
-0.346877
-0.327229
-0.306988
-0.286334
-0.265502
-0.244767
-0.224341
-0.204451
-0.186854
-0.528642
-0.508685
-0.492391
-0.477133
-0.461713
-0.44627
-0.430746
-0.414997
-0.398887
-0.382291
-0.365102
-0.34725
-0.328725
-0.309586
-0.289961
-0.270043
-0.250072
-0.230239
-0.210718
-0.193709
-0.519982
-0.500938
-0.485293
-0.470588
-0.455721
-0.440852
-0.425951
-0.410898
-0.395576
-0.379864
-0.363648
-0.346842
-0.329402
-0.311346
-0.292757
-0.273786
-0.25464
-0.235485
-0.216423
-0.200195
-0.510684
-0.492605
-0.477658
-0.463548
-0.449267
-0.43499
-0.420712
-0.406337
-0.391765
-0.376885
-0.361584
-0.345763
-0.329356
-0.312347
-0.294781
-0.276769
-0.258491
-0.240086
-0.221572
-0.206351
-0.500881
-0.483809
-0.4696
-0.456124
-0.442458
-0.428791
-0.415137
-0.401424
-0.387568
-0.373471
-0.359025
-0.344124
-0.328688
-0.312674
-0.296098
-0.279036
-0.261646
-0.244051
-0.226167
-0.21221
-0.490697
-0.474662
-0.461223
-0.448413
-0.43539
-0.42235
-0.409323
-0.396258
-0.383088
-0.369729
-0.356077
-0.34203
-0.327495
-0.312414
-0.296776
-0.280635
-0.26413
-0.247379
-0.230197
-0.217785
-0.480241
-0.465262
-0.452621
-0.440503
-0.428146
-0.415748
-0.403354
-0.390927
-0.378417
-0.365753
-0.35284
-0.339578
-0.325873
-0.311652
-0.296889
-0.281616
-0.265966
-0.250067
-0.233641
-0.223047
-0.469611
-0.4557
-0.443874
-0.43247
-0.4208
-0.409059
-0.397301
-0.385505
-0.373633
-0.361626
-0.349401
-0.336861
-0.323912
-0.310475
-0.29651
-0.282035
-0.26718
-0.2521
-0.236453
-0.227877
-0.458891
-0.446053
-0.435054
-0.424382
-0.413414
-0.402342
-0.391225
-0.380053
-0.368802
-0.35742
-0.345835
-0.333958
-0.321695
-0.308965
-0.295715
-0.281951
-0.267803
-0.253459
-0.238568
-0.232002
-0.448156
-0.436386
-0.426224
-0.416293
-0.40604
-0.395646
-0.385174
-0.374623
-0.363975
-0.353192
-0.342207
-0.33094
-0.319298
-0.307198
-0.294579
-0.28143
-0.267871
-0.254126
-0.239939
-0.234956
-0.437468
-0.42676
-0.417434
-0.408253
-0.398722
-0.389012
-0.379187
-0.369252
-0.359196
-0.348987
-0.338567
-0.327863
-0.316785
-0.305246
-0.293175
-0.280541
-0.267427
-0.254089
-0.240527
-0.235945
-0.426881
-0.417222
-0.408731
-0.400302
-0.391496
-0.382473
-0.373295
-0.36397
-0.354494
-0.344839
-0.334955
-0.324773
-0.314208
-0.30317
-0.291576
-0.279361
-0.26653
-0.253319
-0.239722
-0.231528
-0.41644
-0.407815
-0.400152
-0.392472
-0.384391
-0.376055
-0.36752
-0.3588
-0.349891
-0.340773
-0.331399
-0.321706
-0.311612
-0.301025
-0.289849
-0.277982
-0.265313
-0.251988
-0.236838
-0.209691
-0.406184
-0.398577
-0.391732
-0.384795
-0.377433
-0.369777
-0.361881
-0.353756
-0.345403
-0.336804
-0.327918
-0.318685
-0.309029
-0.298856
-0.288063
-0.276522
-0.264025
-0.250733
-0.236255
-0.202675
-0.396149
-0.389539
-0.383499
-0.377294
-0.370642
-0.363658
-0.356389
-0.348849
-0.341039
-0.332943
-0.324523
-0.315727
-0.30648
-0.296694
-0.286263
-0.275058
-0.26283
-0.249818
-0.236739
-0.203303
-0.386365
-0.380732
-0.37548
-0.369994
-0.364038
-0.357711
-0.351057
-0.344088
-0.336805
-0.329194
-0.321222
-0.31284
-0.30398
-0.294557
-0.284473
-0.273607
-0.261712
-0.24908
-0.236937
-0.204633
-0.376864
-0.372184
-0.367702
-0.362916
-0.357638
-0.351952
-0.345895
-0.339478
-0.332704
-0.32556
-0.318016
-0.310027
-0.301533
-0.292454
-0.282702
-0.272167
-0.26062
-0.248392
-0.236772
-0.20594
-0.367675
-0.363924
-0.36019
-0.356082
-0.35146
-0.346393
-0.340912
-0.335028
-0.328742
-0.322044
-0.314908
-0.307292
-0.299143
-0.29039
-0.280954
-0.270738
-0.259538
-0.247726
-0.236459
-0.207447
-0.358831
-0.355981
-0.352969
-0.349515
-0.345524
-0.34105
-0.33612
-0.330744
-0.324925
-0.31865
-0.311899
-0.304636
-0.296812
-0.288367
-0.279232
-0.269324
-0.258468
-0.247075
-0.236083
-0.209128
-0.350365
-0.348386
-0.346068
-0.343239
-0.33985
-0.33594
-0.331533
-0.326639
-0.321259
-0.315384
-0.308995
-0.302063
-0.294545
-0.28639
-0.277541
-0.26793
-0.257413
-0.24643
-0.235671
-0.210886
-0.342313
-0.341171
-0.339515
-0.33728
-0.33446
-0.331083
-0.327168
-0.322725
-0.317756
-0.312255
-0.306204
-0.29958
-0.292348
-0.284465
-0.275889
-0.266563
-0.256379
-0.245789
-0.23525
-0.212655
-0.334716
-0.33437
-0.333341
-0.331665
-0.329379
-0.326499
-0.323042
-0.319018
-0.314431
-0.309275
-0.303538
-0.297199
-0.290231
-0.282603
-0.274283
-0.265231
-0.255372
-0.245154
-0.23484
-0.214388
-0.327613
-0.32802
-0.32758
-0.326424
-0.324632
-0.322213
-0.319178
-0.315539
-0.311302
-0.306462
-0.301011
-0.294933
-0.288209
-0.280817
-0.272737
-0.263946
-0.254401
-0.244532
-0.234455
-0.216046
-0.32105
-0.322159
-0.322264
-0.321587
-0.320249
-0.318249
-0.315598
-0.31231
-0.308389
-0.303835
-0.298642
-0.292801
-0.286299
-0.279123
-0.271267
-0.262722
-0.253476