/*--------------------------------*- C++ -*----------------------------------*\
  =========                 |
  \\      /  F ield         | OpenFOAM: The Open Source CFD Toolbox
   \\    /   O peration     | Website:  https://openfoam.org
    \\  /    A nd           | Version:  7
     \\/     M anipulation  |
\*---------------------------------------------------------------------------*/
FoamFile
{
    version     2.0;
    format      ascii;
    class       volVectorField;
    location    "19.00073";
    object      U;
}
// * * * * * * * * * * * * * * * * * * * * * * * * * * * * * * * * * * * * * //

dimensions      [0 1 -1 0 0 0 0];

internalField   nonuniform List<vector> 
23200
(
(-0.000351792 0.000426425 -1.72374e-21)
(-0.00191061 0.00104213 -6.69497e-21)
(-0.00499428 0.00146346 1.25768e-21)
(-0.00897866 0.00171761 4.92223e-21)
(-0.01347 0.0018255 2.15214e-21)
(-0.0181589 0.00180616 -5.37078e-21)
(-0.0227406 0.00167778 -1.73809e-21)
(-0.0269338 0.00145701 -7.03855e-22)
(-0.030486 0.00115882 -6.44612e-21)
(-0.0331716 0.000796404 -1.23212e-21)
(-0.0347903 0.000381354 -7.37904e-21)
(-0.0351666 -7.60472e-05 7.62512e-22)
(-0.0341488 -0.00056613 -2.46496e-21)
(-0.0316112 -0.00107859 4.37841e-21)
(-0.0274606 -0.00160053 -5.5273e-21)
(-0.0216491 -0.00211337 -5.84043e-21)
(-0.0141982 -0.00258829 -1.67527e-21)
(-0.00526319 -0.00298099 8.87462e-21)
(0.00483526 -0.00324 -7.38299e-21)
(0.0158592 -0.00327989 -4.28516e-22)
(-0.00041265 0.00126918 -1.50137e-21)
(-0.00203819 0.00310056 -4.74159e-21)
(-0.00512343 0.00435296 4.19319e-21)
(-0.0090547 0.00510711 1.01587e-20)
(-0.0134434 0.00542528 1.81117e-21)
(-0.0179837 0.00536426 3.48595e-22)
(-0.022374 0.00497827 -3.74025e-21)
(-0.026336 0.00431706 2.03736e-21)
(-0.0296194 0.00342526 -1.19262e-20)
(-0.0320005 0.00234233 7.56294e-21)
(-0.0332806 0.00110287 2.73534e-20)
(-0.033285 -0.000262384 -4.57937e-21)
(-0.0318628 -0.00172457 6.68476e-21)
(-0.0288886 -0.00325312 -4.06019e-21)
(-0.0242692 -0.00480953 1.0272e-20)
(-0.0179561 -0.00633859 -1.16677e-21)
(-0.00996924 -0.00775433 5.57857e-21)
(-0.000470676 -0.0089243 -3.31161e-20)
(0.0102162 -0.0096922 3.27986e-21)
(0.0219951 -0.00979339 -1.31611e-20)
(-0.000531685 0.00208192 8.238e-21)
(-0.00228657 0.00508217 9.00847e-21)
(-0.0053721 0.00713109 -2.07039e-21)
(-0.00919522 0.00836049 -4.69408e-21)
(-0.0133775 0.0088726 -1.8508e-21)
(-0.0176198 0.00876093 6.83103e-21)
(-0.0216273 0.00811486 1.02442e-20)
(-0.025127 0.00701643 -2.29397e-20)
(-0.0278734 0.00553933 6.55333e-21)
(-0.0296465 0.00374877 -8.47738e-21)
(-0.0302504 0.00170196 -1.44511e-20)
(-0.0295125 -0.000550378 -2.76186e-21)
(-0.0272833 -0.00296065 -4.42614e-21)
(-0.023438 -0.00547862 -9.93534e-21)
(-0.0178836 -0.00804125 1.11529e-20)
(-0.0105705 -0.010558 -1.06639e-20)
(-0.00151619 -0.0128872 1.33114e-21)
(0.00910469 -0.0148097 3.24848e-20)
(0.0209604 -0.01606 -2.23846e-20)
(0.0342409 -0.0161664 1.95145e-20)
(-0.000703616 0.00284549 -6.05657e-21)
(-0.00264236 0.00693788 1.2082e-20)
(-0.00572127 0.00972657 -1.76312e-20)
(-0.0093773 0.0113905 8.32856e-21)
(-0.0132469 0.0120696 -4.63462e-20)
(-0.0170407 0.0118926 -2.88674e-20)
(-0.0204732 0.0109823 1.85173e-20)
(-0.0232801 0.00945204 4.52598e-20)
(-0.0252225 0.00740343 -1.88508e-20)
(-0.0260857 0.00492663 -1.30038e-20)
(-0.0256781 0.00210073 -1.84352e-20)
(-0.0238303 -0.00100415 3.76901e-20)
(-0.0203948 -0.00432251 4.60178e-20)
(-0.0152483 -0.00778537 -3.61538e-20)
(-0.00829803 -0.0113069 -2.89678e-20)
(0.000506345 -0.0147635 1.03955e-20)
(0.0111511 -0.0179599 -2.31423e-20)
(0.0234427 -0.0205931 -1.24913e-21)
(0.037031 -0.0222829 3.67618e-20)
(0.0525425 -0.0222997 6.27599e-21)
(-0.000920711 0.00354204 2.4288e-20)
(-0.00308593 0.00862168 8.11554e-21)
(-0.00614291 0.0120724 2.83268e-20)
(-0.00956713 0.014115 -8.76998e-21)
(-0.013014 0.0149242 4.53777e-20)
(-0.0162065 0.0146615 2.78408e-20)
(-0.0188716 0.0134815 -3.40607e-20)
(-0.0207555 0.0115269 -4.40624e-20)
(-0.0216282 0.00892592 4.0767e-20)
(-0.0212822 0.0057926 -1.15932e-20)
(-0.0195312 0.00222698 1.70532e-20)
(-0.0162101 -0.00168224 -6.73762e-20)
(-0.0111745 -0.0058527 2.30981e-20)
(-0.00430323 -0.0101981 8.13886e-21)
(0.00449543 -0.0146119 4.82459e-21)
(0.0152721 -0.0189404 1.76676e-20)
(0.0280167 -0.0229383 4.48897e-20)
(0.0425111 -0.0262229 1.05766e-21)
(0.058371 -0.0282931 -1.2794e-20)
(0.0768147 -0.0280872 -1.66098e-20)
(-0.00117301 0.0041554 1.69706e-20)
(-0.00359184 0.0100918 8.8604e-21)
(-0.00660058 0.0141076 -4.61701e-20)
(-0.00972052 0.016459 -2.81936e-20)
(-0.0126295 0.017352 -1.11728e-20)
(-0.0150651 0.0169782 3.79634e-20)
(-0.0167692 0.0155218 4.55767e-20)
(-0.0175006 0.0131524 -5.76919e-21)
(-0.0170399 0.0100235 -1.10296e-20)
(-0.0151883 0.00627162 -9.55752e-21)
(-0.0117663 0.00201655 -3.04984e-20)
(-0.00661423 -0.00263544 6.96387e-20)
(0.000407976 -0.00758617 -6.13189e-22)
(0.00941867 -0.0127337 -2.67244e-20)
(0.0205068 -0.0179533 -1.81084e-21)
(0.033722 -0.023065 5.48005e-21)
(0.0490571 -0.0277784 1.57378e-20)
(0.0662639 -0.0316365 -5.79423e-20)
(0.0848998 -0.0340133 2.61423e-20)
(0.106936 -0.0334135 -6.52788e-21)
(-0.00144859 0.00467148 -2.85558e-20)
(-0.00412949 0.0113114 1.7318e-20)
(-0.00705021 0.0157781 2.10771e-20)
(-0.0097838 0.0183561 1.82571e-20)
(-0.0120332 0.0192782 4.02911e-20)
(-0.0135526 0.0187637 5.99869e-21)
(-0.0141004 0.0170229 -5.74309e-21)
(-0.0134501 0.0142508 1.76202e-20)
(-0.0113945 0.0106238 -2.69578e-20)
(-0.00774464 0.00629931 -2.95175e-21)
(-0.00232953 0.00141588 1.28771e-20)
(0.00500399 -0.00390417 -5.90143e-20)
(0.0143904 -0.00954763 -1.91284e-20)
(0.0259432 -0.0153988 1.80281e-20)
(0.0397471 -0.0213175 -4.25123e-20)
(0.0558477 -0.0271023 4.6826e-20)
(0.0742391 -0.0324235 5.72706e-21)
(0.0946375 -0.0367577 -6.8071e-21)
(0.11651 -0.0393541 -7.04204e-20)
(0.142744 -0.0381526 4.02246e-20)
(-0.00173388 0.00507854 -1.15676e-20)
(-0.00466381 0.0122498 -1.28421e-20)
(-0.00744096 0.0170386 -6.22362e-20)
(-0.00969465 0.01975 -2.82643e-20)
(-0.0111549 0.0206396 -9.71256e-20)
(-0.0115938 0.0199509 -8.13967e-21)
(-0.0107878 0.0179177 -4.94184e-20)
(-0.00852672 0.0147574 -3.55227e-20)
(-0.00461681 0.0106674 7.85719e-20)
(0.00111945 0.00582433 1.30644e-20)
(0.00884338 0.000383943 3.35235e-20)
(0.0187 -0.00551613 4.16751e-20)
(0.0308167 -0.0117492 -1.48053e-20)
(0.0452998 -0.0181873 -4.68082e-20)
(0.0622265 -0.0246782 4.23641e-20)
(0.0816348 -0.0310036 3.90699e-20)
(0.103516 -0.0368018 -3.80699e-20)
(0.127547 -0.0414942 5.25929e-20)
(0.15306 -0.0442115 7.93176e-20)
(0.184026 -0.0421681 2.16934e-20)
(-0.00201399 0.00536741 3.03429e-20)
(-0.00515599 0.0128825 3.87792e-20)
(-0.00771616 0.0178527 1.91308e-20)
(-0.00938316 0.0205959 4.8748e-20)
(-0.00991534 0.0213859 2.27406e-20)
(-0.00910355 0.020487 6.12211e-20)
(-0.00674347 0.0181537 5.32294e-20)
(-0.00264221 0.0146228 -2.14065e-20)
(0.00337903 0.0101105 -3.42331e-20)
(0.0114851 0.00481093 6.24287e-20)
(0.0218262 -0.00110446 -3.89041e-20)
(0.0345374 -0.00748358 2.86624e-20)
(0.0497364 -0.0141877 3.84782e-20)
(0.0675195 -0.0210783 4.18388e-20)
(0.0879523 -0.0279936 -1.22712e-19)
(0.11106 -0.0347043 -5.65224e-20)
(0.136825 -0.040825 -1.46112e-20)
(0.164878 -0.0457352 6.30512e-20)
(0.19437 -0.0484657 -1.33619e-19)
(0.230507 -0.0453134 -4.90591e-20)
(-0.002273 0.00553156 4.59834e-20)
(-0.00556431 0.0131919 -5.78405e-20)
(-0.00781438 0.0181943 -6.21454e-20)
(-0.008773 0.0208613 -6.53317e-20)
(-0.00822743 0.0214808 -4.10647e-20)
(-0.0059876 0.0203347 -9.82216e-21)
(-0.0018693 0.0176948 -6.83142e-20)
(0.00430204 0.0138147 8.57975e-20)
(0.0126893 0.0089271 2.47176e-20)
(0.0234431 0.00324146 2.44452e-20)
(0.036701 -0.00305621 -9.9069e-20)
(0.0525857 -0.00980089 1.53057e-20)
(0.0712021 -0.0168426 -1.17911e-20)
(0.0926325 -0.0240334 -4.49495e-21)
(0.116926 -0.031205 -4.68384e-20)
(0.144085 -0.0381225 5.94414e-20)
(0.174077 -0.0443865 -1.30073e-20)
(0.206482 -0.0493511 -1.42326e-19)
(0.240212 -0.0519794 1.95032e-20)
(0.281838 -0.0474336 9.20622e-20)
(-0.00249437 0.00556715 3.3518e-20)
(-0.00584481 0.0131673 -1.11694e-20)
(-0.00767039 0.0180474 6.5118e-20)
(-0.00778252 0.0205268 3.30424e-20)
(-0.0059974 0.0209034 4.84929e-20)
(-0.0021441 0.0194737 4.94111e-21)
(0.00394101 0.0165233 9.29669e-20)
(0.0124134 0.0123202 -8.479e-20)
(0.0234187 0.00711084 -3.83469e-20)
(0.0370921 0.00111841 -1.51403e-20)
(0.0535561 -0.00545821 9.87913e-20)
(0.0729183 -0.0124422 -1.72712e-20)
(0.0952671 -0.0196731 1.42234e-20)
(0.120665 -0.0269951 5.96858e-20)
(0.149136 -0.0342353 5.66378e-20)
(0.180654 -0.0411589 -9.75426e-20)
(0.215156 -0.0473623 -5.33592e-20)
(0.252167 -0.0521935 2.71365e-20)
(0.2903 -0.054598 8.502e-20)
(0.337587 -0.0483682 -1.07281e-20)
(-0.00266116 0.00547299 -4.42025e-20)
(-0.00595212 0.0128051 -2.58445e-20)
(-0.00721623 0.0174065 -3.6804e-20)
(-0.00632611 0.0195864 -3.56349e-20)
(-0.00312633 0.0196486 4.14186e-20)
(0.002535 0.0179012 -8.0113e-20)
(0.0108006 0.0146409 7.91893e-20)
(0.0218061 0.0101468 5.62095e-21)
(0.0356789 0.00467715 -6.80438e-20)
(0.0525365 -0.00153346 -1.56226e-20)
(0.0724839 -0.00827475 -6.32068e-20)
(0.09561 -0.0153592 2.91621e-20)
(0.121981 -0.0226168 -1.96821e-20)
(0.151633 -0.0298848 -1.16165e-19)
(0.184557 -0.036988 5.55174e-21)
(0.220683 -0.0436962 3.4655e-20)
(0.259905 -0.0496123 7.51018e-20)
(0.301684 -0.0540988 1.31009e-19)
(0.344282 -0.056152 2.09189e-20)
(0.397223 -0.047957 -1.28538e-19)
(-0.00275626 0.00525041 -6.2438e-20)
(-0.00584011 0.0121083 -9.85742e-21)
(-0.00638224 0.0162766 1.30789e-19)
(-0.00431532 0.0180476 -6.01785e-20)
(0.000488451 0.0177275 3.19226e-21)
(0.0081622 0.0156333 -5.87865e-20)
(0.0188276 0.0120696 -5.65013e-20)
(0.0325994 0.00732427 9.9611e-21)
(0.0495854 0.00166452 3.03374e-20)
(0.0698832 -0.00466548 1.11633e-19)
(0.093577 -0.0114458 -3.53891e-20)
(0.120732 -0.0184794 -1.50372e-19)
(0.151385 -0.0255881 1.06308e-19)
(0.185539 -0.0326028 9.07333e-20)
(0.223138 -0.0393477 5.8355e-20)
(0.264055 -0.0456015 1.44928e-19)
(0.308119 -0.0509835 -4.5273e-20)
(0.354722 -0.0548924 -2.05157e-19)
(0.40173 -0.0564603 3.30468e-20)
(0.46011 -0.0460456 3.65005e-20)
(-0.00276265 0.00490306 -3.30258e-20)
(-0.00546244 0.0110867 4.46312e-20)
(-0.00509797 0.0146732 -4.60971e-20)
(-0.00166027 0.0159318 7.37175e-20)
(0.00495168 0.0151679 -8.59085e-20)
(0.0148525 0.0127049 7.97694e-20)
(0.0281424 0.00885279 1.52265e-20)
(0.0449145 0.00390502 -8.68584e-20)
(0.0652548 -0.00186439 7.29618e-20)
(0.0892382 -0.00820398 -7.87384e-20)
(0.116923 -0.014886 9.72528e-20)
(0.148346 -0.0217057 5.21697e-20)
(0.183507 -0.0284776 4.2272e-20)
(0.222361 -0.0350279 -6.24501e-20)
(0.264795 -0.0411814 -9.33909e-21)
(0.310607 -0.0467294 -7.60119e-20)
(0.359538 -0.0513159 5.0179e-20)
(0.410896 -0.0543977 7.80673e-22)
(0.462137 -0.055337 -8.48369e-20)
(0.525501 -0.0424945 3.6633e-20)
(-0.00266358 0.00443679 7.71919e-21)
(-0.00477312 0.009756 2.91391e-20)
(-0.00329309 0.0126213 6.55634e-21)
(0.0017291 0.0132733 2.50916e-20)
(0.0103685 0.0120138 5.91583e-20)
(0.0227212 0.00917008 5.62436e-20)
(0.0388656 0.00505489 4.0767e-20)
(0.0588715 -3.52858e-05 5.12082e-20)
(0.0828008 -0.0058223 -1.02741e-19)
(0.110702 -0.0120498 -1.56571e-20)
(0.142602 -0.0184845 -1.61556e-19)
(0.1785 -0.0249157 -4.98256e-20)
(0.218349 -0.0311529 -5.59154e-20)
(0.262047 -0.0370191 9.19894e-20)
(0.309404 -0.0423416 -1.40249e-19)
(0.360123 -0.0469267 2.76542e-20)
(0.413836 -0.0504506 9.35619e-21)
(0.469741 -0.0524476 1.28831e-19)
(0.524915 -0.0526011 -6.05913e-20)
(0.59254 -0.0371929 4.41827e-20)
(-0.00244264 0.00385939 1.02426e-19)
(-0.00372697 0.00813788 3.75105e-20)
(-0.000898287 0.0101558 6.98374e-20)
(0.00594165 0.0101198 6.42115e-20)
(0.0168425 0.00832525 1.06515e-20)
(0.0318816 0.00510167 -1.39265e-19)
(0.0511144 0.000761663 -1.02157e-19)
(0.0745857 -0.00439791 -9.3193e-20)
(0.10233 -0.0100975 8.74575e-20)
(0.134363 -0.0160785 5.30957e-20)
(0.170675 -0.022105 1.86042e-19)
(0.211218 -0.0279633 -1.51022e-19)
(0.255887 -0.0334602 5.59377e-20)
(0.304503 -0.0384187 -1.03927e-19)
(0.356788 -0.0426707 7.57993e-20)
(0.412327 -0.0460399 -2.71451e-20)
(0.470613 -0.0482386 3.35451e-20)
(0.530713 -0.0488989 -1.18256e-19)
(0.589406 -0.0480906 9.69644e-20)
(0.660276 -0.0300798 3.61145e-20)
(-0.00208389 0.00318045 -1.42759e-19)
(-0.00228009 0.00625935 6.06894e-20)
(0.00215385 0.00732027 -9.53492e-20)
(0.0110636 0.00653085 -9.03527e-20)
(0.0244737 0.00417787 3.37234e-20)
(0.0424422 0.000590693 1.67603e-19)
(0.0649996 -0.00392066 -1.22828e-19)
(0.0921632 -0.00906182 1.54285e-20)
(0.123935 -0.0145548 -3.4846e-20)
(0.160294 -0.0201421 -3.33305e-20)
(0.201183 -0.0255884 8.87461e-20)
(0.246495 -0.0306808 1.91663e-19)
(0.296053 -0.035228 -7.30946e-21)
(0.349589 -0.0390567 1.56434e-20)
(0.40671 -0.0420079 -6.04168e-21)
(0.46687 -0.0439233 -1.00741e-19)
(0.529395 -0.0445531 9.68341e-20)
(0.593187 -0.0436465 1.47941e-19)
(0.654889 -0.041654 3.96708e-20)
(0.727657 -0.0211252 -6.80532e-20)
(-0.00157193 0.00241115 -3.78434e-20)
(-0.000390198 0.00415243 1.25473e-19)
(0.00592798 0.00416676 -3.62769e-21)
(0.0171773 0.00257802 8.8247e-20)
(0.0333569 -0.000338163 4.12985e-20)
(0.0545038 -0.00425455 4.06763e-20)
(0.0806219 -0.00886646 -5.08949e-20)
(0.111697 -0.0138851 8.56488e-20)
(0.147693 -0.0190374 1.4023e-20)
(0.188543 -0.0240707 -5.15349e-20)
(0.234133 -0.0287549 -2.90595e-20)
(0.284285 -0.032883 -1.33297e-19)
(0.338734 -0.0362715 -1.32384e-19)
(0.397101 -0.0387577 3.00788e-20)
(0.458867 -0.0401966 -1.18247e-20)
(0.523333 -0.0404502 -4.30208e-20)
(0.589635 -0.0393049 -1.31434e-19)
(0.65648 -0.0366346 -1.54631e-19)
(0.720575 -0.0330854 -1.71061e-19)
(0.793404 -0.0102233 1.73748e-20)
(-0.000891972 0.00156417 6.79542e-21)
(0.00198295 0.00185376 -1.14472e-19)
(0.0104851 0.000755185 -1.08371e-19)
(0.0243593 -0.00165636 -7.27504e-20)
(0.0435785 -0.00511897 1.31574e-19)
(0.0681567 -0.00930978 -2.83819e-19)
(0.0980678 -0.0139324 5.74285e-20)
(0.133261 -0.0187069 -3.41072e-20)
(0.173656 -0.0233693 9.58168e-20)
(0.21913 -0.0276763 1.16613e-20)
(0.269499 -0.0314086 -1.46728e-19)
(0.324499 -0.0343722 6.21641e-20)
(0.383758 -0.0363994 1.86261e-20)
(0.446774 -0.0373472 6.04754e-20)
(0.51288 -0.0370946 -6.45719e-20)
(0.581218 -0.035528 1.09327e-19)
(0.650734 -0.032472 -4.61375e-20)
(0.719935 -0.0278894 2.2201e-20)
(0.785795 -0.022126 -1.60626e-20)
(0.856057 0.00254234 -5.92326e-20)
(-2.99049e-05 0.000653564 1.24726e-19)
(0.00487711 -0.00059565 -2.44008e-20)
(0.0158815 -0.00284723 -1.51599e-20)
(0.0326791 -0.00607986 8.88665e-20)
(0.055215 -0.0100482 -4.4717e-20)
(0.0834773 -0.0144363 2.58271e-19)
(0.117406 -0.0189593 1.16971e-20)
(0.156906 -0.0233502 7.87561e-20)
(0.201846 -0.0273587 -1.33936e-19)
(0.252035 -0.0307567 -1.01942e-19)
(0.307206 -0.0333425 1.48958e-19)
(0.36699 -0.0349439 -1.21461e-19)
(0.430893 -0.0354197 9.80689e-20)
(0.498269 -0.0346598 -1.56902e-20)
(0.568291 -0.0325814 2.86648e-19)
(0.639944 -0.0291108 -4.73981e-21)
(0.712018 -0.0241258 9.52671e-20)
(0.782957 -0.017592 1.33406e-19)
(0.850402 -0.00893394 7.7801e-20)
(0.916132 0.0150509 1.08169e-19)
(0.00102757 -0.00030527 6.12446e-20)
(0.00832704 -0.0031507 -1.40939e-19)
(0.0221678 -0.0065665 4.81283e-20)
(0.0421973 -0.0105909 7.86435e-20)
(0.0683304 -0.0149985 6.62309e-20)
(0.100525 -0.0194831 -1.89441e-19)
(0.138682 -0.0237752 8.56799e-20)
(0.182657 -0.0276254 3.90786e-20)
(0.232254 -0.0308026 1.67655e-20)
(0.287201 -0.0331008 6.94285e-20)
(0.347132 -0.0343447 -3.93561e-20)
(0.411558 -0.0343942 1.24604e-19)
(0.479841 -0.0331479 -1.02287e-19)
(0.551174 -0.0305446 -1.03932e-19)
(0.624563 -0.0265602 -1.76225e-19)
(0.698834 -0.0211894 -5.4437e-20)
(0.772663 -0.0144033 -1.16203e-19)
(0.844638 -0.0061476 -1.25621e-19)
(0.913761 0.00489437 -1.11887e-19)
(0.976696 0.0216843 -6.79754e-20)
(0.0022928 -0.00129562 9.47119e-20)
(0.012364 -0.00576236 -2.57183e-20)
(0.0293879 -0.0103224 -6.65941e-20)
(0.0529638 -0.0150798 -2.14901e-19)
(0.0829734 -0.0198328 -1.65273e-20)
(0.11934 -0.0242886 2.28947e-19)
(0.161919 -0.0281978 -5.12176e-20)
(0.210505 -0.0313338 4.46294e-20)
(0.264827 -0.0334912 1.05828e-19)
(0.324521 -0.0344946 3.14217e-20)
(0.389101 -0.034205 -2.03258e-19)
(0.457941 -0.032527 -5.01189e-20)
(0.53024 -0.0294135 -3.49258e-20)
(0.605016 -0.02487 9.81396e-20)
(0.681094 -0.0189533 2.77752e-19)
(0.757143 -0.0117581 -8.70998e-20)
(0.831721 -0.00340277 -5.6561e-20)
(0.903443 0.00597587 1.41694e-19)
(0.971944 0.0172596 7.52166e-20)
(1.03154 0.0249083 2.93664e-20)
(0.00377696 -0.00229947 -1.02331e-19)
(0.0170148 -0.00837792 7.61777e-20)
(0.0375776 -0.0140292 -1.56889e-19)
(0.065016 -0.0194299 1.7949e-20)
(0.0991754 -0.0244064 1.09802e-19)
(0.139939 -0.0286839 -2.33941e-19)
(0.187106 -0.0320381 -2.45407e-19)
(0.240405 -0.0342719 4.56179e-21)
(0.299475 -0.0352136 -1.46526e-19)
(0.36384 -0.0347275 -1.03157e-19)
(0.432884 -0.0327229 1.63368e-19)
(0.50582 -0.0291623 2.58006e-19)
(0.581673 -0.0240687 -1.01356e-19)
(0.659271 -0.0175315 -6.27254e-20)
(0.737257 -0.00970637 -1.56097e-19)
(0.814138 -0.00080744 9.27171e-21)
(0.888358 0.00888591 -6.44733e-21)
(0.958462 0.0190199 -5.50912e-21)
(1.02413 0.0301226 1.65624e-20)
(1.07926 0.0337857 2.00587e-19)
(0.00548984 -0.00329747 1.02945e-19)
(0.0223017 -0.0109412 1.155e-19)
(0.0467634 -0.0175959 1.5196e-19)
(0.0783773 -0.0235184 6.01195e-20)
(0.116948 -0.0285687 -8.35971e-20)
(0.162312 -0.0324949 -5.86667e-20)
(0.214206 -0.0351043 -8.43829e-21)
(0.272275 -0.0362367 8.46555e-20)
(0.336059 -0.0357633 7.79923e-20)
(0.404956 -0.0335993 4.94573e-20)
(0.478197 -0.0297147 -6.27514e-21)
(0.554825 -0.0241445 -1.24461e-19)
(0.633675 -0.0169973 1.00064e-19)
(0.713385 -0.0084609 -1.53979e-20)
(0.79242 0.0011974 4.57096e-20)
(0.869142 0.0116389 1.9133e-20)
(0.941899 0.0224402 -1.57673e-20)
(1.00918 0.0330934 3.88572e-20)
(1.07051 0.0439157 -2.81182e-20)
(1.12034 0.0460898 -2.06788e-19)
(0.00743949 -0.00426898 5.40039e-20)
(0.0282406 -0.0133926 -2.08598e-19)
(0.056961 -0.0209275 1.03213e-19)
(0.0930549 -0.0272185 4.28599e-20)
(0.136282 -0.0321654 -1.26981e-19)
(0.186423 -0.0355456 1.24815e-19)
(0.243142 -0.0372052 7.00963e-20)
(0.305993 -0.0370299 -1.69061e-19)
(0.374398 -0.0349442 2.08183e-20)
(0.447614 -0.0309262 -3.23195e-20)
(0.524708 -0.0250207 7.71298e-20)
(0.604538 -0.0173497 -5.8144e-20)
(0.685748 -0.0081216 -8.84149e-20)
(0.76679 0.00236548 1.31119e-19)
(0.845971 0.0137267 -6.41327e-20)
(0.921541 0.0255031 2.648e-20)
(0.991804 0.0371552 -6.18331e-20)
(1.05526 0.0480849 3.53726e-22)
(1.11133 0.0584616 -5.33421e-20)
(1.15538 0.0601389 5.85251e-20)
(0.00963192 -0.00519207 -1.35995e-20)
(0.0348409 -0.01567 -6.17577e-20)
(0.0681743 -0.0239254 -6.97557e-20)
(0.109038 -0.0304001 4.03754e-20)
(0.157142 -0.0350407 -1.19157e-20)
(0.212204 -0.0376611 7.64325e-20)
(0.273805 -0.0381547 5.45218e-20)
(0.341395 -0.0364634 5.21959e-20)
(0.414264 -0.0325763 1.70935e-20)
(0.491515 -0.0265479 4.54914e-20)
(0.57204 -0.018512 7.76204e-20)
(0.654507 -0.00869197 1.67224e-20)
(0.737373 0.00259197 -3.88422e-20)
(0.818922 0.0149234 3.08455e-20)
(0.897335 0.0278 9.65189e-20)
(0.970805 0.0406551 -1.76212e-19)
(1.03765 0.0528647 5.37956e-20)
(1.09649 0.0637957 6.54956e-20)
(1.14673 0.0735202 2.06773e-20)
(1.18477 0.0749997 4.19848e-20)
(0.0120707 -0.00604361 -2.17593e-20)
(0.0421044 -0.0177083 1.34665e-19)
(0.0803937 -0.0264886 4.69909e-20)
(0.126298 -0.032932 -1.45722e-19)
(0.179471 -0.0370399 -3.91686e-20)
(0.239559 -0.0386709 7.48042e-20)
(0.30605 -0.0377758 3.63924e-20)
(0.378277 -0.0343634 1.28656e-19)
(0.455388 -0.0285007 -4.96536e-21)
(0.536319 -0.0203324 6.32787e-21)
(0.619781 -0.0100952 -6.5856e-20)
(0.704256 0.0018731 -1.03875e-19)
(0.788026 0.0151311 -1.14228e-20)
(0.869236 0.0291412 -6.51867e-20)
(0.945992 0.04329 5.61297e-20)
(1.01649 0.0569222 2.71847e-19)
(1.07914 0.0693638 1.05566e-19)
(1.13275 0.0799945 -1.03447e-19)
(1.17686 0.0888386 -5.16542e-20)
(1.20887 0.0900686 1.99169e-20)
(0.0147565 -0.00679942 1.04415e-19)
(0.0500241 -0.0194409 -1.64276e-19)
(0.0935952 -0.0285148 -1.56218e-19)
(0.144784 -0.0346835 2.14308e-19)
(0.203182 -0.0380118 6.39322e-20)
(0.268358 -0.0384125 -4.04895e-20)
(0.339696 -0.0359045 -1.17449e-19)
(0.416398 -0.0305759 -1.46569e-19)
(0.497462 -0.0225849 9.91398e-20)
(0.581653 -0.0121806 1.78649e-20)
(0.667496 0.000283981 5.35654e-20)
(0.753298 0.0143462 4.46964e-20)
(0.837193 0.029438 -3.42428e-21)
(0.917229 0.0449033 -3.01412e-20)
(0.991492 0.0600309 -6.03133e-20)
(1.05825 0.074102 -1.64701e-19)
(1.11609 0.0864288 -6.4962e-20)
(1.16408 0.0964452 2.17353e-19)
(1.20199 0.104174 3.53984e-20)
(1.2281 0.104945 -5.32987e-20)
(0.0176868 -0.00743449 -1.08402e-19)
(0.0585836 -0.0207999 1.15097e-19)
(0.107739 -0.0299019 3.39084e-21)
(0.164424 -0.0355267 -4.82363e-20)
(0.228165 -0.0378117 -1.59432e-20)
(0.298441 -0.0367345 -1.35791e-20)
(0.374525 -0.0323937 -8.55844e-20)
(0.455482 -0.0249697 1.05193e-19)
(0.540148 -0.014726 -1.75168e-19)
(0.627114 -0.0020294 6.34479e-22)
(0.714731 0.0126392 -3.17189e-20)
(0.801149 0.0286849 -1.56234e-20)
(0.884388 0.0454128 3.70074e-20)
(0.96245 0.0620572 -8.45243e-20)
(1.03346 0.077829 -4.57366e-21)
(1.09584 0.0919758 4.67522e-20)
(1.14843 0.103834 -1.15902e-19)
(1.19059 0.112927 7.11278e-23)
(1.2224 0.119318 5.64854e-22)
(1.24293 0.119372 9.39798e-20)
(0.0208556 -0.00792325 1.60937e-20)
(0.0677561 -0.0217175 3.1691e-20)
(0.12277 -0.0305497 6.15701e-20)
(0.185125 -0.0353385 -3.33429e-20)
(0.254282 -0.0363042 -1.09724e-19)
(0.329619 -0.0335001 2.89235e-20)
(0.410292 -0.0271169 6.62764e-20)
(0.49522 -0.017441 3.62266e-20)
(0.583078 -0.00485432 1.23568e-19)
(0.672286 0.0101462 -3.41908e-20)
(0.761034 0.0269427 -2.05985e-20)
(0.847344 0.0448057 1.81332e-20)
(0.929165 0.0629183 -5.23543e-20)
(1.00451 0.0804212 -7.35724e-20)
(1.07163 0.0964729 -4.82755e-20)
(1.12913 0.110322 4.00302e-20)
(1.17618 0.121364 9.78808e-20)
(1.21249 0.129246 -4.75766e-20)
(1.23846 0.134103 -7.40199e-20)
(1.25382 0.133199 1.12293e-20)
(0.0242527 -0.00823994 2.71292e-20)
(0.0775041 -0.0221264 6.57349e-21)
(0.138613 -0.0303612 -8.19579e-20)
(0.206773 -0.0340034 1.09201e-19)
(0.281366 -0.033366 2.45919e-20)
(0.361673 -0.0285902 -1.29236e-19)
(0.446721 -0.0199715 4.98581e-20)
(0.535282 -0.00791546 -6.59494e-20)
(0.625869 0.00706487 3.30497e-21)
(0.716744 0.0243324 1.10274e-20)
(0.805959 0.0431276 3.23285e-20)
(0.891444 0.0625879 4.07363e-21)
(0.97113 0.081787 1.47072e-19)
(1.0431 0.0997932 5.86151e-20)
(1.10578 0.115744 -2.85637e-20)
(1.15807 0.128924 -3.26502e-20)
(1.19946 0.138827 1.84977e-20)
(1.23005 0.145242 1.95642e-20)
(1.25055 0.148407 -3.22937e-20)
(1.26124 0.146345 -3.54667e-20)
(0.027864 -0.00835906 -3.20092e-20)
(0.0877787 -0.0219616 1.91342e-21)
(0.15518 -0.0292449 1.68193e-20)
(0.229229 -0.0314152 -4.5458e-20)
(0.309231 -0.0288888 8.84694e-20)
(0.39436 -0.0219065 5.12322e-20)
(0.483512 -0.0108815 -5.1929e-20)
(0.575315 0.00364904 -3.49201e-20)
(0.668127 0.0210302 3.204e-20)
(0.760067 0.0404777 -5.04201e-20)
(0.849082 0.0610898 3.83859e-20)
(0.933053 0.0818791 -6.37057e-22)
(1.00995 0.101828 1.48748e-21)
(1.07799 0.119959 -2.99958e-20)
(1.13584 0.135425 8.52877e-20)
(1.18271 0.147584 -7.32913e-21)
(1.21847 0.156055 3.61033e-20)
(1.24359 0.160792 -5.20021e-20)
(1.25908 0.162147 3.94284e-20)
(1.26563 0.158781 -1.61341e-20)
(0.0316708 -0.00825586 5.19066e-20)
(0.0985197 -0.0211618 6.38426e-20)
(0.172364 -0.0271169 4.68503e-20)
(0.252335 -0.0274805 -7.15609e-21)
(0.337663 -0.0227821 9.2995e-21)
(0.427411 -0.0133743 6.12811e-22)
(0.520347 0.000200026 1.12309e-19)
(0.614955 0.0172612 -3.37241e-20)
(0.709454 0.037004 2.41552e-20)
(0.801846 0.0584942 -1.23803e-19)
(0.890007 0.0806923 1.85338e-20)
(0.971821 0.102501 5.68074e-20)
(1.04535 0.122833 -2.55915e-20)
(1.10901 0.140703 5.41109e-20)
(1.16176 0.15531 -7.07645e-20)
(1.20316 0.166121 9.69816e-20)
(1.23345 0.17291 3.34012e-21)
(1.25346 0.175802 -3.21613e-20)
(1.26444 0.175273 1.18153e-21)
(1.26741 0.170513 4.75243e-20)
(0.0356503 -0.00790692 -9.67526e-20)
(0.109655 -0.0196702 2.52046e-20)
(0.19004 -0.0239025 -1.03659e-20)
(0.275915 -0.0221204 -7.27243e-20)
(0.366432 -0.0149759 -2.70044e-20)
(0.460544 -0.00294472 -5.20117e-20)
(0.556894 0.0132895 -4.58989e-20)
(0.653834 0.0328957 -5.01495e-20)
(0.749462 0.0549134 5.24772e-20)
(0.841695 0.0782605 2.6592e-20)
(0.928378 0.10177 -7.93483e-20)
(1.00745 0.124254 -2.01558e-20)
(1.07713 0.144588 -9.67433e-21)
(1.13609 0.161809 -4.1009e-20)
(1.18359 0.175205 -7.04956e-21)
(1.21959 0.184379 -1.7125e-20)
(1.24468 0.18928 -6.9382e-20)
(1.26001 0.19021 3.33974e-20)
(1.26702 0.187762 4.09229e-20)
(1.26696 0.181565 -1.02076e-20)
(0.0397749 -0.00729067 3.24883e-21)
(0.121103 -0.0174368 -4.53174e-20)
(0.208071 -0.019539 2.12469e-20)
(0.299773 -0.0152732 -1.52115e-20)
(0.395287 -0.00542267 1.86683e-20)
(0.493458 0.00940322 8.57319e-20)
(0.592812 0.0283713 -3.74234e-20)
(0.691584 0.050493 9.54894e-20)
(0.787776 0.0746521 4.93482e-21)
(0.879254 0.099625 4.98832e-20)
(0.963883 0.124134 4.55568e-21)
(1.03971 0.146926 3.61066e-20)
(1.10517 0.166874 7.80961e-21)
(1.1592 0.183074 3.66518e-21)
(1.20145 0.194935 -5.50732e-20)
(1.23222 0.202227 9.795e-21)
(1.25247 0.205082 5.03878e-20)
(1.26358 0.203974 2.37395e-21)
(1.26717 0.199608 -2.42778e-20)
(1.2646 0.19197 9.92263e-21)
(0.044013 -0.00638809 1.14796e-20)
(0.13277 -0.0144194 3.60658e-20)
(0.226303 -0.0139771 3.933e-20)
(0.3237 -0.00689661 -1.16636e-20)
(0.423966 0.00590009 5.21572e-20)
(0.525847 0.0236613 -1.07841e-20)
(0.627761 0.0453978 8.83351e-20)
(0.727847 0.069961 -1.14769e-19)
(0.824042 0.0960827 -2.10553e-20)
(0.914201 0.122411 -2.14134e-20)
(0.996258 0.147578 -2.64744e-20)
(1.06842 0.170298 -6.46009e-21)
(1.12937 0.189476 9.57402e-21)
(1.17839 0.204305 -3.55654e-20)
(1.21547 0.214346 3.67086e-20)
(1.2413 0.219553 -1.60902e-20)
(1.25711 0.22025 -1.24481e-20)
(1.26451 0.21707 -1.14027e-20)
(1.2652 0.210817 -7.14325e-21)
(1.26062 0.201764 -2.24949e-20)
(0.0483289 -0.00518322 5.29879e-20)
(0.144553 -0.010585 -5.46558e-20)
(0.244572 -0.00718277 6.64478e-21)
(0.347474 0.00303041 -7.73659e-21)
(0.452198 0.0189887 -1.88262e-20)
(0.557398 0.0397912 -3.93714e-20)
(0.661404 0.0642892 -6.39182e-21)
(0.762281 0.0911756 2.78833e-20)
(0.857935 0.11904 1.33336e-20)
(0.946253 0.146418 -1.67219e-20)
(1.02529 0.171882 1.91685e-20)
(1.09346 0.194147 -4.12799e-21)
(1.14973 0.212185 -4.01965e-20)
(1.19375 0.225324 5.96853e-20)
(1.22586 0.233302 1.67662e-20)
(1.24708 0.23627 -8.97615e-21)
(1.25891 0.234739 1.10468e-20)
(1.26311 0.229489 1.691e-20)
(1.26141 0.221401 1.65813e-20)
(1.25524 0.210981 1.73672e-20)
(0.0526833 -0.00366378 -5.45571e-20)
(0.156342 -0.0059114 4.48035e-20)
(0.262703 0.00086052 1.95519e-20)
(0.370863 0.0145061 -4.08303e-20)
(0.479704 0.033812 -8.79819e-21)
(0.587802 0.0577242 -3.55329e-20)
(0.693414 0.0849346 1.45007e-20)
(0.794563 0.113984 -2.47795e-20)
(0.889161 0.143333 1.99923e-21)
(0.975173 0.171431 4.33678e-21)
(1.05082 0.19682 8.50591e-21)
(1.11476 0.218251 -3.31063e-20)
(1.16629 0.234805 3.47182e-20)
(1.2054 0.245971 -2.50861e-20)
(1.23282 0.251687 -6.97126e-21)
(1.24983 0.252306 3.34497e-21)
(1.25816 0.248517 -7.64859e-21)
(1.25965 0.241225 -1.76408e-20)
(1.25604 0.231373 -7.94531e-22)
(1.24868 0.219648 -1.18457e-20)
(0.0570338 -0.0018217 -6.62392e-21)
(0.16802 -0.000388231 -2.07851e-20)
(0.280514 0.010151 -7.23191e-21)
(0.393632 0.0275045 1.17882e-20)
(0.506208 0.0503108 -7.17106e-21)
(0.616754 0.0773615 7.54226e-21)
(0.72348 0.107193 1.8697e-20)
(0.824398 0.138207 1.73455e-20)
(0.917464 0.168753 1.42972e-20)
(1.00077 0.197222 -3.39937e-21)
(1.07273 0.22216 -9.11138e-21)
(1.1323 0.242395 1.09913e-20)
(1.17911 0.257149 -5.51792e-21)
(1.21352 0.266102 7.10333e-21)
(1.23657 0.269401 -4.36199e-21)
(1.24982 0.267603 9.40002e-21)
(1.25512 0.26156 -2.59371e-21)
(1.25438 0.25228 1.10369e-20)
(1.24929 0.240746 -2.60124e-21)
(1.2411 0.227786 1.67566e-21)
(0.0613353 0.000346409 -7.64971e-23)
(0.179464 0.00598204 -5.40128e-23)
(0.297819 0.0206672 -2.43465e-21)
(0.415543 0.0419751 1.2425e-20)
(0.531435 0.0683978 8.2075e-21)
(0.643962 0.0985753 -6.52254e-21)
(0.751313 0.130898 -5.11822e-21)
(0.851521 0.163641 -1.62681e-21)
(0.942628 0.195071 -7.94945e-21)
(1.02288 0.223553 -4.52261e-22)
(1.09096 0.247672 4.01981e-22)
(1.14611 0.266373 -3.83828e-21)
(1.18832 0.279048 -2.53773e-21)
(1.21829 0.285589 -5.86366e-21)
(1.23735 0.286361 -6.31513e-21)
(1.24728 0.282115 -5.35323e-22)
(1.25004 0.273851 2.34048e-21)
(1.24752 0.262653 2.49973e-21)
(1.24135 0.249528 2.88493e-21)
(1.23263 0.235407 4.05782e-21)
(0.0655408 0.00283888 7.54821e-21)
(0.19055 0.0131834 -1.29603e-21)
(0.31443 0.0323676 -2.20393e-21)
(0.436361 0.0578421 5.65038e-21)
(0.555121 0.087958 1.17062e-20)
(0.669151 0.12121 -5.32407e-21)
(0.776649 0.155854 -4.49103e-21)
(0.875702 0.190064 -8.87648e-21)
(0.964478 0.222049 -8.35699e-21)
(1.04143 0.250182 1.59845e-21)
(1.10549 0.27313 -1.54523e-21)
(1.15626 0.289986 -6.59059e-22)
(1.19405 0.300342 -3.70523e-21)
(1.2199 0.304317 -5.988e-21)
(1.23539 0.302494 -1.32335e-21)
(1.24246 0.295805 -4.87154e-22)
(1.24314 0.285375 -1.92982e-22)
(1.23927 0.272344 1.18073e-21)
(1.23236 0.257722 4.40156e-21)
(1.22339 0.242517 3.43653e-21)
(0.0696023 0.00564865 -4.51338e-21)
(0.20115 0.0211855 -7.12864e-21)
(0.33016 0.0451897 -9.74959e-21)
(0.455856 0.0750051 1.31176e-20)
(0.577012 0.10885 1.30099e-20)
(0.692066 0.145084 3.81659e-22)
(0.799251 0.181848 5.33438e-21)
(0.896747 0.217236 1.52709e-20)
(0.98288 0.249437 1.73461e-20)
(1.05633 0.276867 1.15755e-20)
(1.11634 0.298314 -2.87901e-20)
(1.16283 0.313048 1.21548e-20)
(1.19647 0.320889 -5.4313e-21)
(1.21856 0.322186 1.28876e-20)
(1.23091 0.317738 -2.92948e-22)
(1.23559 0.308641 -2.10344e-21)
(1.23461 0.296121 1.1888e-21)
(1.22978 0.281349 1.0263e-20)
(1.22245 0.265328 -4.0696e-21)
(1.21346 0.249113 -4.22536e-22)
(0.073471 0.00876309 -1.40434e-20)
(0.211139 0.029944 3.4543e-20)
(0.344827 0.0590509 3.50389e-21)
(0.473811 0.0933395 -4.50996e-20)
(0.596875 0.130907 -8.67652e-21)
(0.712478 0.169993 2.06625e-20)
(0.818919 0.208645 -4.87903e-20)
(0.914501 0.244907 -6.65207e-22)
(0.997741 0.276981 4.39162e-21)
(1.06758 0.303369 -1.31566e-21)
(1.12357 0.32301 1.5139e-20)
(1.16597 0.335387 -2.47942e-20)
(1.19574 0.340557 3.85773e-21)
(1.21447 0.339108 -8.70656e-21)
(1.22413 0.332039 -6.54191e-21)