/*--------------------------------*- C++ -*----------------------------------*\
  =========                 |
  \\      /  F ield         | OpenFOAM: The Open Source CFD Toolbox
   \\    /   O peration     | Website:  https://openfoam.org
    \\  /    A nd           | Version:  7
     \\/     M anipulation  |
\*---------------------------------------------------------------------------*/
FoamFile
{
    version     2.0;
    format      ascii;
    class       volVectorField;
    location    "1";
    object      U;
}
// * * * * * * * * * * * * * * * * * * * * * * * * * * * * * * * * * * * * * //

dimensions      [0 1 -1 0 0 0 0];

internalField   nonuniform List<vector> 
344
(
(0.88941 -7.0093e-05 -3.50032e-15)
(0.889394 -8.15666e-05 -3.86356e-15)
(0.889375 -9.49203e-05 -3.79814e-15)
(0.889353 -0.000110462 -4.17465e-15)
(0.889327 -0.000128551 -4.13856e-15)
(0.889298 -0.000149604 -4.08437e-15)
(0.889263 -0.000174106 -4.0776e-15)
(0.889223 -0.000202622 -4.43171e-15)
(0.889176 -0.000235812 -4.39176e-15)
(0.889122 -0.000274439 -4.73435e-15)
(0.889059 -0.000319397 -4.65107e-15)
(0.888985 -0.000371721 -4.94973e-15)
(0.888899 -0.000432622 -4.85891e-15)
(0.8888 -0.000503504 -4.78251e-15)
(0.888684 -0.000586005 -4.70396e-15)
(0.888549 -0.000682031 -5.00606e-15)
(0.888392 -0.000793802 -4.89578e-15)
(0.888209 -0.0009239 -5.15149e-15)
(0.887997 -0.00107534 -4.98e-15)
(0.887749 -0.00125162 -5.25283e-15)
(0.887461 -0.00145683 -5.04863e-15)
(0.887126 -0.00169572 -4.94808e-15)
(0.886737 -0.00197384 -4.81507e-15)
(0.886283 -0.00229766 -4.71191e-15)
(0.885755 -0.0026747 -4.92368e-15)
(0.88514 -0.00311376 -4.79605e-15)
(0.884424 -0.0036251 -5.01479e-15)
(0.88359 -0.00422069 -4.85647e-15)
(0.88262 -0.00491452 -5.10209e-15)
(0.881489 -0.00572295 -4.92955e-15)
(0.880172 -0.00666511 -4.7613e-15)
(0.878638 -0.00776341 -4.63003e-15)
(0.87685 -0.00904413 -4.8514e-15)
(0.874765 -0.0105381 -4.71048e-15)
(0.872334 -0.0122816 -4.9041e-15)
(0.869497 -0.0143174 -4.73002e-15)
(0.866186 -0.0166958 -4.94115e-15)
(0.862318 -0.0194765 -4.75436e-15)
(0.857796 -0.0227303 -4.58314e-15)
(0.852506 -0.0265412 -4.47008e-15)
(0.84631 -0.0310096 -4.68188e-15)
(0.839043 -0.0362561 -4.537e-15)
(0.830506 -0.0424254 -4.7391e-15)
(0.820458 -0.0496925 -4.55692e-15)
(0.808603 -0.0582706 -4.78407e-15)
(0.794576 -0.0684198 -4.53036e-15)
(0.777917 -0.0804601 -4.35602e-15)
(0.758047 -0.0947872 -4.20517e-15)
(0.734214 -0.111892 -4.07758e-15)
(0.705451 -0.132382 -4.31971e-15)
(0.670433 -0.156996 -4.16664e-15)
(0.627456 -0.186546 -4.37492e-15)
(0.573866 -0.221722 -4.14709e-15)
(0.506556 -0.262021 -4.18642e-15)
(0.418844 -0.303363 -3.63726e-15)
(0.308588 -0.329925 -2.96453e-15)
(0.16025 -0.30627 -2.02428e-15)
(0.0373963 -0.15476 -9.72207e-16)
(0.84356 -1.89323e-05 -2.8556e-15)
(0.843555 -2.20142e-05 -2.86501e-15)
(0.84355 -2.56069e-05 -3.14565e-15)
(0.843543 -2.97898e-05 -3.1038e-15)
(0.843535 -3.46601e-05 -3.04946e-15)
(0.843526 -4.03301e-05 -3.06043e-15)
(0.843515 -4.69304e-05 -3.10326e-15)
(0.843503 -5.46142e-05 -3.3696e-15)
(0.843489 -6.35564e-05 -3.41932e-15)
(0.843472 -7.39619e-05 -3.68717e-15)
(0.843453 -8.60734e-05 -3.70308e-15)
(0.84343 -0.00010017 -3.96829e-15)
(0.843404 -0.000116576 -3.99162e-15)
(0.843374 -0.000135672 -3.97746e-15)
(0.843338 -0.000157896 -3.96684e-15)
(0.843297 -0.000183762 -4.22696e-15)
(0.843249 -0.000213868 -4.25486e-15)
(0.843193 -0.000248907 -4.52098e-15)
(0.843128 -0.000289689 -4.50585e-15)
(0.843053 -0.000337155 -4.71129e-15)
(0.842965 -0.000392401 -4.6571e-15)
(0.842863 -0.000456704 -4.60256e-15)
(0.842744 -0.000531548 -4.53327e-15)
(0.842605 -0.000618663 -4.76586e-15)
(0.842444 -0.000720063 -4.71533e-15)
(0.842257 -0.000838091 -4.91082e-15)
(0.842038 -0.00097548 -4.80555e-15)
(0.841785 -0.00113541 -4.97553e-15)
(0.841489 -0.00132158 -4.83885e-15)
(0.841145 -0.00153832 -4.7213e-15)
(0.840745 -0.00179064 -4.58547e-15)
(0.840279 -0.00208441 -4.53143e-15)
(0.839737 -0.00242647 -4.66714e-15)
(0.839106 -0.00282478 -4.58445e-15)
(0.838371 -0.00328865 -4.75132e-15)
(0.837516 -0.00382892 -4.65738e-15)
(0.836519 -0.00445829 -4.80841e-15)
(0.835359 -0.00519156 -4.69002e-15)
(0.834007 -0.00604607 -4.5503e-15)
(0.832433 -0.00704211 -4.44882e-15)
(0.830597 -0.00820345 -4.5915e-15)
(0.828458 -0.00955799 -4.48982e-15)
(0.825963 -0.0111385 -4.63354e-15)
(0.823052 -0.0129836 -4.52367e-15)
(0.819654 -0.0151387 -4.64526e-15)
(0.815685 -0.0176576 -4.52486e-15)
(0.811047 -0.020604 -4.38083e-15)
(0.805621 -0.0240533 -4.2819e-15)
(0.799267 -0.0280955 -4.40735e-15)
(0.791817 -0.0328383 -4.3283e-15)
(0.783068 -0.0384104 -4.44564e-15)
(0.772775 -0.044967 -4.36599e-15)
(0.760639 -0.0526957 -4.48448e-15)
(0.74629 -0.061824 -4.29996e-15)
(0.729267 -0.0726292 -4.12864e-15)
(0.708992 -0.0854506 -3.97199e-15)
(0.684724 -0.100704 -3.87612e-15)
(0.655518 -0.118892 -4.03585e-15)
(0.620107 -0.140613 -3.93408e-15)
(0.576895 -0.166474 -4.05194e-15)
(0.523478 -0.19687 -3.9015e-15)
(0.45716 -0.230893 -3.82028e-15)
(0.372403 -0.264204 -3.32613e-15)
(0.268523 -0.282027 -2.71668e-15)
(0.134692 -0.254834 -1.83888e-15)
(0.0292418 -0.122054 -8.32961e-16)
(0.795869 -1.97515e-05 -2.81821e-15)
(0.795864 -2.29753e-05 -3.05472e-15)
(0.795857 -2.673e-05 -3.02315e-15)
(0.795849 -3.11019e-05 -2.95491e-15)
(0.79584 -3.61918e-05 -2.95669e-15)
(0.795829 -4.21169e-05 -3.01666e-15)
(0.795816 -4.90145e-05 -3.27563e-15)
(0.795802 -5.70416e-05 -3.33067e-15)
(0.795785 -6.63829e-05 -3.57969e-15)
(0.795765 -7.72561e-05 -3.60099e-15)
(0.795742 -8.99115e-05 -3.83903e-15)
(0.795716 -0.000104641 -3.82797e-15)
(0.795685 -0.000121785 -3.81915e-15)
(0.795649 -0.000141739 -3.85156e-15)
(0.795607 -0.000164963 -4.07618e-15)
(0.795558 -0.000191994 -4.08429e-15)
(0.795501 -0.000223456 -4.34057e-15)
(0.795436 -0.000260075 -4.3353e-15)
(0.795359 -0.000302696 -4.50318e-15)
(0.795269 -0.000352305 -4.44446e-15)
(0.795165 -0.000410048 -4.40834e-15)
(0.795045 -0.000477257 -4.36822e-15)
(0.794904 -0.000555487 -4.5533e-15)
(0.79474 -0.000646547 -4.49007e-15)
(0.794549 -0.00075254 -4.65342e-15)
(0.794328 -0.000875922 -4.60335e-15)
(0.79407 -0.00101955 -4.72641e-15)
(0.793769 -0.00118674 -4.6113e-15)
(0.79342 -0.00138138 -4.48833e-15)
(0.793013 -0.00160797 -4.37306e-15)
(0.79254 -0.00187179 -4.32413e-15)
(0.791988 -0.00217896 -4.43522e-15)
(0.791347 -0.00253665 -4.35794e-15)
(0.7906 -0.00295318 -4.51367e-15)
(0.78973 -0.00343831 -4.45311e-15)
(0.788718 -0.00400341 -4.54767e-15)
(0.787538 -0.00466175 -4.41371e-15)
(0.786164 -0.00542889 -4.31576e-15)
(0.784564 -0.00632298 -4.22289e-15)
(0.782698 -0.00736533 -4.35069e-15)
(0.780524 -0.00858091 -4.27712e-15)
(0.777989 -0.00999902 -4.38983e-15)
(0.775031 -0.0116541 -4.31503e-15)
(0.771579 -0.0135868 -4.40118e-15)
(0.767548 -0.015845 -4.27786e-15)
(0.762837 -0.0184853 -4.16174e-15)
(0.757327 -0.0215748 -4.08528e-15)
(0.750878 -0.0251931 -4.18234e-15)
(0.743318 -0.0294351 -4.08851e-15)
(0.734445 -0.0344142 -4.21066e-15)
(0.724013 -0.0402659 -4.13357e-15)
(0.711722 -0.0471531 -4.21713e-15)
(0.697204 -0.055272 -4.05424e-15)
(0.680005 -0.0648593 -3.88179e-15)
(0.659555 -0.0762012 -3.7448e-15)
(0.635137 -0.0896441 -3.66785e-15)
(0.605844 -0.105599 -3.80686e-15)
(0.570487 -0.124539 -3.72011e-15)
(0.527598 -0.146903 -3.81055e-15)
(0.475041 -0.172855 -3.66322e-15)
(0.410546 -0.201219 -3.55129e-15)
(0.329644 -0.227613 -3.05394e-15)
(0.232853 -0.238579 -2.47329e-15)
(0.113044 -0.209928 -1.68238e-15)
(0.0228574 -0.0951217 -7.60534e-16)
(0.74644 -1.75143e-05 -2.74716e-15)
(0.746435 -2.03727e-05 -2.99508e-15)
(0.746428 -2.37036e-05 -2.92602e-15)
(0.74642 -2.75824e-05 -2.82502e-15)
(0.74641 -3.20983e-05 -2.85486e-15)
(0.7464 -3.7355e-05 -2.94219e-15)
(0.746387 -4.34744e-05 -3.22632e-15)
(0.746372 -5.0596e-05 -3.19258e-15)
(0.746355 -5.88843e-05 -3.50725e-15)
(0.746336 -6.8532e-05 -3.49131e-15)
(0.746313 -7.97613e-05 -3.72787e-15)
(0.746286 -9.28314e-05 -3.62822e-15)
(0.746255 -0.000108044 -3.64795e-15)
(0.746219 -0.000125751 -3.69842e-15)
(0.746176 -0.00014636 -3.96432e-15)
(0.746127 -0.000170348 -3.89606e-15)
(0.74607 -0.000198268 -4.19923e-15)
(0.746004 -0.000230766 -4.15475e-15)
(0.745927 -0.000268593 -4.32221e-15)
(0.745837 -0.000312621 -4.21222e-15)
(0.745732 -0.00036387 -4.18553e-15)
(0.745611 -0.000423521 -4.1763e-15)
(0.745469 -0.000492956 -4.3833e-15)
(0.745304 -0.000573779 -4.26858e-15)
(0.745112 -0.000667859 -4.48078e-15)
(0.744889 -0.000777373 -4.38431e-15)
(0.74463 -0.000904855 -4.51178e-15)
(0.744327 -0.00105326 -4.37229e-15)
(0.743976 -0.00122602 -4.22254e-15)
(0.743566 -0.00142715 -4.13754e-15)
(0.74309 -0.00166131 -4.09537e-15)
(0.742535 -0.00193395 -4.27435e-15)
(0.741889 -0.00225142 -4.12536e-15)
(0.741137 -0.0026211 -4.33042e-15)
(0.740262 -0.00305165 -4.23509e-15)
(0.739243 -0.00355313 -4.30437e-15)
(0.738056 -0.00413732 -4.15083e-15)
(0.736674 -0.00481799 -4.07589e-15)
(0.735063 -0.00561121 -4.0252e-15)
(0.733186 -0.00653584 -4.17772e-15)
(0.730998 -0.00761394 -4.03925e-15)
(0.728448 -0.00887142 -4.19613e-15)
(0.725473 -0.0103387 -4.10393e-15)
(0.722001 -0.0120515 -4.1901e-15)
(0.717947 -0.0140521 -4.00601e-15)
(0.713212 -0.0163901 -3.91097e-15)
(0.707675 -0.0191243 -3.86749e-15)
(0.701196 -0.0223244 -4.00316e-15)
(0.693605 -0.0260729 -3.85387e-15)
(0.684702 -0.030468 -4.01513e-15)
(0.674241 -0.0356266 -3.90002e-15)
(0.661927 -0.0416881 -3.99178e-15)
(0.647401 -0.0488187 -3.79584e-15)
(0.630218 -0.0572174 -3.61053e-15)
(0.60983 -0.0671215 -3.50981e-15)
(0.585549 -0.0788146 -3.46091e-15)
(0.556522 -0.0926268 -3.63018e-15)
(0.521651 -0.108927 -3.47707e-15)
(0.479609 -0.128018 -3.60645e-15)
(0.428537 -0.149893 -3.42075e-15)
(0.366572 -0.173223 -3.31051e-15)
(0.290231 -0.193757 -2.79529e-15)
(0.20098 -0.199488 -2.26489e-15)
(0.0945613 -0.170943 -1.54059e-15)
(0.0178045 -0.0729836 -7.35488e-16)
(0.695298 -1.532e-05 -2.67975e-15)
(0.695292 -1.78199e-05 -2.77624e-15)
(0.695286 -2.07346e-05 -2.78674e-15)
(0.695278 -2.41292e-05 -2.68222e-15)
(0.695268 -2.80814e-05 -2.74361e-15)
(0.695258 -3.26821e-05 -2.83044e-15)
(0.695245 -3.80375e-05 -3.04712e-15)
(0.695231 -4.42704e-05 -3.022e-15)
(0.695214 -5.15249e-05 -3.29373e-15)
(0.695194 -5.99694e-05 -3.35427e-15)
(0.695171 -6.97985e-05 -3.45564e-15)
(0.695145 -8.12392e-05 -3.4285e-15)
(0.695114 -9.45556e-05 -3.47976e-15)
(0.695078 -0.000110056 -3.53474e-15)
(0.695036 -0.000128097 -3.72218e-15)
(0.694987 -0.000149097 -3.66679e-15)
(0.69493 -0.00017354 -3.92141e-15)
(0.694864 -0.000201992 -3.94753e-15)
(0.694787 -0.000235109 -4.01637e-15)
(0.694698 -0.000273658 -3.93686e-15)
(0.694593 -0.000318528 -3.92489e-15)
(0.694472 -0.000370758 -3.97036e-15)
(0.694331 -0.000431555 -4.0897e-15)
(0.694167 -0.000502324 -3.99842e-15)
(0.693976 -0.000584703 -4.16324e-15)
(0.693754 -0.000680598 -4.14258e-15)
(0.693495 -0.000792226 -4.15896e-15)
(0.693194 -0.000922173 -4.09231e-15)
(0.692844 -0.00107345 -3.92675e-15)
(0.692436 -0.00124957 -3.88754e-15)
(0.691962 -0.00145461 -3.85705e-15)
(0.691409 -0.00169334 -3.97436e-15)
(0.690766 -0.0019713 -3.86274e-15)
(0.690017 -0.00229499 -4.01046e-15)
(0.689146 -0.00267193 -3.99578e-15)
(0.688131 -0.00311096 -3.97238e-15)
(0.686949 -0.00362235 -3.83011e-15)
(0.685572 -0.00421813 -3.80656e-15)
(0.683968 -0.00491235 -3.78491e-15)
(0.6821 -0.00572145 -3.88903e-15)
(0.679922 -0.00666467 -3.76686e-15)
(0.677383 -0.00776458 -3.88175e-15)
(0.674422 -0.00904765 -3.85455e-15)
(0.670967 -0.010545 -3.85156e-15)
(0.666935 -0.0122931 -3.70742e-15)
(0.662225 -0.014335 -3.67684e-15)
(0.656721 -0.0167216 -3.64823e-15)
(0.650282 -0.0195127 -3.71785e-15)
(0.642744 -0.0227792 -3.60692e-15)
(0.633907 -0.0266048 -3.72084e-15)
(0.623533 -0.0310885 -3.67271e-15)
(0.611336 -0.0363475 -3.66093e-15)
(0.596967 -0.0425205 -3.53883e-15)
(0.58 -0.0497715 -3.32454e-15)
(0.559912 -0.0582937 -3.27052e-15)
(0.536058 -0.0683153 -3.24511e-15)
(0.507645 -0.0800969 -3.35467e-15)
(0.473674 -0.0939209 -3.20199e-15)
(0.432969 -0.109986 -3.31856e-15)
(0.383939 -0.128167 -3.18874e-15)
(0.325107 -0.147078 -2.98826e-15)
(0.253864 -0.162729 -2.54192e-15)
(0.172405 -0.164608 -2.09593e-15)
(0.0786619 -0.137319 -1.45075e-15)
(0.0137588 -0.0548616 -6.06073e-16)
(0.642479 -1.31876e-05 -2.59819e-15)
(0.642473 -1.53388e-05 -2.5941e-15)
(0.642466 -1.78483e-05 -2.66778e-15)
(0.642459 -2.07717e-05 -2.5036e-15)
(0.64245 -2.41755e-05 -2.62179e-15)
(0.642439 -2.8138e-05 -2.72213e-15)
(0.642427 -3.27503e-05 -2.90434e-15)
(0.642412 -3.81187e-05 -2.81961e-15)
(0.642396 -4.43672e-05 -3.13282e-15)
(0.642376 -5.16411e-05 -3.21382e-15)
(0.642354 -6.01078e-05 -3.20506e-15)
(0.642328 -6.99629e-05 -3.17611e-15)
(0.642297 -8.14343e-05 -3.29959e-15)
(0.642262 -9.47871e-05 -3.37003e-15)
(0.642221 -0.00011033 -3.51188e-15)
(0.642172 -0.000128422 -3.43006e-15)
(0.642117 -0.000149481 -3.67611e-15)
(0.642052 -0.000173995 -3.73362e-15)
(0.641976 -0.000202529 -3.696e-15)
(0.641888 -0.000235744 -3.61172e-15)
(0.641785 -0.000274407 -3.69325e-15)
(0.641666 -0.000319413 -3.74476e-15)
(0.641527 -0.000371802 -3.8315e-15)
(0.641366 -0.000432786 -3.68581e-15)
(0.641178 -0.000503776 -3.89102e-15)
)
;

boundaryField
{
    inlet
    {
        type            uniformFixedValue;
        uniformValue    constant (1 0 0);
        value           nonuniform 0();
    }
    outlet
    {
        type            pressureInletOutletVelocity;
        value           nonuniform 0();
    }
    wall
    {
        type            fixedValue;
        value           uniform (0 0 0);
    }
    wedge1
    {
        type            wedge;
    }
    wedge2
    {
        type            wedge;
    }
    axis
    {
        type            empty;
    }
    procBoundary32to26
    {
        type            processor;
        value           nonuniform List<vector> 
67
(
(0.933548 -7.66076e-05 -3.56051e-15)
(0.933532 -8.91459e-05 -3.90101e-15)
(0.933514 -0.000103738 -3.8508e-15)
(0.933493 -0.000120721 -4.24937e-15)
(0.933468 -0.000140486 -4.23662e-15)
(0.93344 -0.000163489 -4.18284e-15)
(0.933406 -0.00019026 -4.16227e-15)
(0.933368 -0.000221418 -4.50441e-15)
(0.933323 -0.00025768 -4.51518e-15)
(0.93327 -0.000299883 -4.83803e-15)
(0.933209 -0.000349001 -4.73578e-15)
(0.933138 -0.000406167 -5.09548e-15)
(0.933055 -0.000472701 -5.04211e-15)
(0.932959 -0.000550139 -4.93802e-15)
(0.932847 -0.000640269 -4.84367e-15)
(0.932717 -0.000745173 -5.1438e-15)
(0.932566 -0.000867275 -5.04329e-15)
(0.932389 -0.0010094 -5.30185e-15)
(0.932184 -0.00117483 -5.13402e-15)
(0.931946 -0.00136741 -5.43582e-15)
(0.931668 -0.00159158 -5.20203e-15)
(0.931345 -0.00185255 -5.12927e-15)
(0.930969 -0.00215638 -4.98978e-15)
(0.930531 -0.00251012 -4.85787e-15)
(0.930021 -0.00292202 -5.08203e-15)
(0.929428 -0.00340168 -4.9663e-15)
(0.928737 -0.00396031 -5.19452e-15)
(0.927933 -0.004611 -5.02806e-15)
(0.926997 -0.00536906 -5.30463e-15)
(0.925906 -0.00625237 -5.13738e-15)
(0.924636 -0.00728187 -4.95134e-15)
(0.923155 -0.00848208 -4.79426e-15)
(0.92143 -0.00988176 -5.0252e-15)
(0.919419 -0.0115147 -4.9001e-15)
(0.917073 -0.0134207 -5.10044e-15)
(0.914336 -0.0156465 -4.89799e-15)
(0.911141 -0.0182475 -5.14049e-15)
(0.907409 -0.0212892 -4.96396e-15)
(0.903046 -0.0248494 -4.77234e-15)
(0.89794 -0.0290209 -4.63459e-15)
(0.89196 -0.0339146 -4.8541e-15)
(0.884944 -0.0396638 -4.72757e-15)
(0.876702 -0.0464293 -4.93235e-15)
(0.866998 -0.0544066 -4.71915e-15)
(0.855545 -0.0638343 -4.97815e-15)
(0.841986 -0.0750062 -4.70522e-15)
(0.825871 -0.0882864 -4.58933e-15)
(0.806629 -0.104129 -4.40964e-15)
(0.783512 -0.123107 -4.27738e-15)
(0.755547 -0.145939 -4.50969e-15)
(0.721379 -0.173524 -4.39384e-15)
(0.679224 -0.206914 -4.59298e-15)
(0.62622 -0.24716 -4.36321e-15)
(0.558876 -0.294314 -4.48262e-15)
(0.469343 -0.344835 -3.9555e-15)
(0.353754 -0.382287 -3.23653e-15)
(0.190679 -0.364883 -2.2276e-15)
(0.0479227 -0.194488 -1.05502e-15)
(0.88948 -2.08807e-05 -2.97253e-15)
(0.889475 -2.42852e-05 -2.90941e-15)
(0.889469 -2.8248e-05 -3.28674e-15)
(0.889463 -3.28606e-05 -3.15645e-15)
(0.889455 -3.8231e-05 -3.14241e-15)
(0.889446 -4.4483e-05 -3.11993e-15)
(0.889436 -5.17608e-05 -3.13567e-15)
(0.889424 -6.02331e-05 -3.5043e-15)
(0.889424 -6.02331e-05 -3.5043e-15)
)
;
    }
    procBoundary32to31
    {
        type            processor;
        value           nonuniform List<vector> 5((0.843565 -1.62883e-05 -2.57161e-15) (0.795874 -1.69914e-05 -2.79277e-15) (0.795874 -1.69914e-05 -2.79277e-15) (0.746446 -1.50713e-05 -2.75281e-15) (0.695303 -1.31863e-05 -2.61153e-15));
    }
    procBoundary32to37
    {
        type            processor;
        value           uniform (0.642484 -1.13525e-05 -2.4955e-15);
    }
    procBoundary32to38
    {
        type            processor;
        value           nonuniform List<vector> 
66
(
(0.640959 -0.000586414 -3.89698e-15)
(0.640704 -0.00068261 -3.81304e-15)
(0.640408 -0.000794594 -3.8059e-15)
(0.640063 -0.00092496 -3.59042e-15)
(0.639661 -0.00107673 -3.63839e-15)
(0.639194 -0.00125343 -3.61612e-15)
(0.63865 -0.00145915 -3.69712e-15)
(0.638017 -0.00169867 -3.5572e-15)
(0.63728 -0.00197758 -3.74684e-15)
(0.636421 -0.00230237 -3.73258e-15)
(0.635422 -0.00268062 -3.63878e-15)
(0.634258 -0.00312118 -3.51827e-15)
(0.632903 -0.00363439 -3.55735e-15)
(0.631324 -0.00423231 -3.55169e-15)
(0.629485 -0.00492906 -3.60965e-15)
(0.627341 -0.00574116 -3.47612e-15)
(0.624843 -0.00668793 -3.60582e-15)
(0.621929 -0.00779202 -3.60368e-15)
(0.618531 -0.00908002 -3.52366e-15)
(0.614566 -0.0105831 -3.39056e-15)
(0.609936 -0.0123379 -3.42523e-15)
(0.604527 -0.0143876 -3.41884e-15)
(0.598203 -0.0167827 -3.46975e-15)
(0.590803 -0.0195831 -3.31724e-15)
(0.582136 -0.0228586 -3.46205e-15)
(0.571972 -0.0266919 -3.44947e-15)
(0.560035 -0.0311797 -3.33754e-15)
(0.545993 -0.036435 -3.27659e-15)
(0.529444 -0.0425904 -3.02871e-15)
(0.509899 -0.0498001 -3.04557e-15)
(0.486758 -0.0582439 -3.04478e-15)
(0.459298 -0.0681242 -3.09666e-15)
(0.426626 -0.079654 -2.94027e-15)
(0.387713 -0.0929545 -3.08723e-15)
(0.341222 -0.10783 -2.97554e-15)
(0.286028 -0.122915 -2.68666e-15)
(0.220283 -0.134572 -2.28303e-15)
(0.146711 -0.133759 -1.9323e-15)
(0.0648871 -0.108543 -1.34766e-15)
(0.0104789 -0.0401329 -5.42714e-16)
(0.588024 -1.11368e-05 -2.52705e-15)
(0.588018 -1.29522e-05 -2.55406e-15)
(0.588012 -1.50716e-05 -2.54537e-15)
(0.588004 -1.75412e-05 -2.45939e-15)
(0.587996 -2.04171e-05 -2.51635e-15)
(0.587985 -2.3765e-05 -2.61973e-15)
(0.587973 -2.7662e-05 -2.77594e-15)
(0.587959 -3.21979e-05 -2.78209e-15)
(0.587943 -3.74779e-05 -2.99315e-15)
(0.587925 -4.36244e-05 -3.0702e-15)
(0.587903 -5.07791e-05 -3.11048e-15)
(0.587877 -5.91075e-05 -3.07124e-15)
(0.587848 -6.88021e-05 -3.12538e-15)
(0.587813 -8.0087e-05 -3.18884e-15)
(0.587773 -9.32233e-05 -3.32935e-15)
(0.587726 -0.000108515 -3.29677e-15)
(0.587672 -0.000126315 -3.46917e-15)
(0.587609 -0.000147035 -3.54643e-15)
(0.587535 -0.000171155 -3.50826e-15)
(0.58745 -0.000199232 -3.44575e-15)
(0.58735 -0.000231916 -3.47219e-15)
(0.587234 -0.000269963 -3.50551e-15)
(0.587099 -0.000314252 -3.57469e-15)
(0.586942 -0.000365809 -3.5082e-15)
(0.640959 -0.000586414 -3.89698e-15)
(0.586759 -0.000425827 -3.64597e-15)
)
;
    }
}


// ************************************************************************* //
