/*--------------------------------*- C++ -*----------------------------------*\
  =========                 |
  \\      /  F ield         | OpenFOAM: The Open Source CFD Toolbox
   \\    /   O peration     | Website:  https://openfoam.org
    \\  /    A nd           | Version:  7
     \\/     M anipulation  |
\*---------------------------------------------------------------------------*/
FoamFile
{
    version     2.0;
    format      ascii;
    class       surfaceScalarField;
    location    "66.000256";
    object      phi;
}
// * * * * * * * * * * * * * * * * * * * * * * * * * * * * * * * * * * * * * //

dimensions      [0 3 -1 0 0 0 0];

internalField   nonuniform List<scalar> 
11438
(
-0.000258297
-0.000584176
-0.000227148
-0.000761444
-0.000168215
-0.000894993
-9.05728e-05
-0.00098455
-0.00102964
0.0164736
-9.81087e-06
0.0164834
-9.81969e-06
0.0164932
-9.81587e-06
0.016503
-9.79852e-06
0.0165128
-9.76671e-06
0.0165225
-9.71945e-06
0.0165321
-9.65573e-06
0.0165417
-9.57453e-06
0.0165512
-9.47478e-06
0.0165605
-9.35543e-06
0.0165698
-9.21539e-06
0.0165788
-9.05356e-06
0.0165877
-8.86883e-06
0.0165963
-8.66008e-06
0.0166048
-8.4262e-06
0.0166129
-8.16608e-06
0.0166208
-7.87861e-06
0.0166284
-7.56272e-06
0.0166356
-7.21733e-06
0.0166424
-6.84143e-06
0.0166489
-6.43401e-06
0.0166549
-5.99414e-06
0.0166604
-5.52092e-06
0.0166654
-5.01353e-06
0.0166699
-4.47123e-06
0.0166738
-3.89334e-06
0.016677
-3.27933e-06
0.0166797
-2.6287e-06
0.0166816
-1.94113e-06
0.0166828
-1.21634e-06
0.0166833
-4.54169e-07
0.0166829
3.44796e-07
0.0166818
1.17985e-06
0.0166797
2.05174e-06
0.0166767
2.95929e-06
0.0166728
3.90203e-06
0.016668
4.87829e-06
0.0166621
5.88763e-06
0.0166552
6.92742e-06
0.0166472
7.9975e-06
0.0166381
9.09378e-06
0.0166278
1.0217e-05
0.0166165
1.13607e-05
0.016604
1.25276e-05
0.0165902
1.37076e-05
0.0165753
1.49072e-05
0.0165592
1.61102e-05
0.0165419
1.73299e-05
0.0165234
1.85406e-05
0.0165036
1.97667e-05
0.0164826
2.09677e-05
0.0164604
2.21858e-05
0.0164371
2.33577e-05
0.0164125
2.45527e-05
0.0163869
2.56745e-05
0.01636
2.6831e-05
0.0163321
2.78804e-05
0.0163032
2.89809e-05
0.0162732
2.99356e-05
0.0162423
3.0958e-05
0.0162105
3.17985e-05
0.0161778
3.27103e-05
0.0161443
3.34321e-05
3.41561e-05
0.0161492
-1.94576e-05
0.0161589
-1.94756e-05
0.0161685
-1.94682e-05
0.0161782
-1.94338e-05
0.0161878
-1.93705e-05
0.0161973
-1.92765e-05
0.0162068
-1.91497e-05
0.0162162
-1.89881e-05
0.0162256
-1.87896e-05
0.0162347
-1.85522e-05
0.0162438
-1.82736e-05
0.0162527
-1.79518e-05
0.0162614
-1.75845e-05
0.0162699
-1.71695e-05
0.0162782
-1.67046e-05
0.0162862
-1.61877e-05
0.016294
-1.56165e-05
0.0163014
-1.49889e-05
0.0163085
-1.43029e-05
0.0163152
-1.35562e-05
0.0163215
-1.27472e-05
0.0163274
-1.18737e-05
0.0163328
-1.09341e-05
0.0163377
-9.92684e-06
0.0163421
-8.85035e-06
0.0163459
-7.70335e-06
0.0163491
-6.48474e-06
0.0163517
-5.1936e-06
0.0163536
-3.82929e-06
0.0163547
-2.39128e-06
0.0163552
-8.7914e-07
0.0163548
7.05731e-07
0.0163536
2.36218e-06
0.0163516
4.09143e-06
0.0163486
5.89141e-06
0.0163448
7.76078e-06
0.01634
9.69679e-06
0.0163342
1.16978e-05
0.0163273
1.37596e-05
0.0163194
1.58804e-05
0.0163105
1.80542e-05
0.0163004
2.02795e-05
0.0162892
2.25475e-05
0.0162769
2.48582e-05
0.0162634
2.71989e-05
0.0162487
2.95724e-05
0.0162329
3.19602e-05
0.0162159
3.43706e-05
0.0161976
3.67766e-05
0.0161782
3.9195e-05
0.0161576
4.15868e-05
0.0161358
4.39818e-05
0.0161128
4.63246e-05
0.0160887
4.86623e-05
0.0160635
5.09195e-05
0.0160371
5.31632e-05
0.0160097
5.52979e-05
0.0159813
5.74057e-05
0.0159518
5.93826e-05
0.0159215
6.13027e-05
0.0158902
6.30922e-05
0.0158582
6.47538e-05
0.0158252
6.63401e-05
6.76473e-05
0.0158344
-2.89789e-05
0.0158439
-2.90047e-05
0.0158534
-2.89927e-05
0.0158629
-2.89401e-05
0.0158724
-2.88444e-05
0.0158818
-2.87028e-05
0.0158912
-2.85122e-05
0.0159005
-2.82697e-05
0.0159097
-2.79722e-05
0.0159187
-2.76166e-05
0.0159277
-2.71997e-05
0.0159364
-2.67182e-05
0.015945
-2.6169e-05
0.0159534
-2.55487e-05
0.0159615
-2.48541e-05
0.0159694
-2.40819e-05
0.0159771
-2.32289e-05
0.0159844
-2.22919e-05
0.0159913
-2.12678e-05
0.0159979
-2.01536e-05
0.0160041
-1.89463e-05
0.0160099
-1.76433e-05
0.0160152
-1.62419e-05
0.01602
-1.47398e-05
0.0160243
-1.31347e-05
0.016028
-1.14247e-05
0.0160311
-9.6083e-06
0.0160336
-7.68406e-06
0.0160354
-5.65105e-06
0.0160366
-3.50854e-06
0.0160369
-1.25597e-06
0.0160365
1.10455e-06
0.0160353
3.57168e-06
0.0160333
6.14669e-06
0.0160303
8.82672e-06
0.0160265
1.16096e-05
0.0160217
1.44914e-05
0.0160159
1.74693e-05
0.0160091
2.05377e-05
0.0160013
2.3693e-05
0.0159925
2.69272e-05
0.0159825
3.02369e-05
0.0159714
3.36107e-05
0.0159593
3.70461e-05
0.0159459
4.05275e-05
0.0159314
4.40546e-05
0.0159158
4.76061e-05
0.015899
5.11858e-05
0.015881
5.47646e-05
0.0158618
5.83533e-05
0.0158415
6.19124e-05
0.01582
6.54625e-05
0.0157974
6.89511e-05
0.0157737
7.24111e-05
0.0157488
7.57767e-05
0.0157229
7.90906e-05
0.0156959
8.22801e-05
0.0156679
8.53848e-05
0.0156389
8.8347e-05
0.0156091
9.1167e-05
0.0155783
9.38559e-05
0.0155468
9.6293e-05
0.0155144
9.8674e-05
0.000100594
0.0155286
-3.84049e-05
0.015538
-3.84369e-05
0.0155474
-3.84185e-05
0.0155568
-3.83464e-05
0.0155662
-3.82168e-05
0.0155755
-3.80261e-05
0.0155848
-3.77705e-05
0.015594
-3.74458e-05
0.015603
-3.70481e-05
0.015612
-3.65733e-05
0.0156208
-3.6017e-05
0.0156295
-3.53751e-05
0.0156379
-3.46433e-05
0.0156462
-3.38173e-05
0.0156543
-3.28926e-05
0.015662
-3.18652e-05
0.0156695
-3.07306e-05
0.0156767
-2.94846e-05
0.0156836
-2.81233e-05
0.0156901
-2.66426e-05
0.0156962
-2.50387e-05
0.0157018
-2.3308e-05
0.015707
-2.14471e-05
0.0157117
-1.94529e-05
0.0157159
-1.73225e-05
0.0157196
-1.50534e-05
0.0157226
-1.26435e-05
0.015725
-1.00911e-05
0.0157268
-7.3949e-06
0.0157278
-4.55412e-06
0.0157281
-1.56791e-06
0.0157277
1.56058e-06
0.0157264
4.83014e-06
0.0157243
8.2419e-06
0.0157213
1.17922e-05
0.0157175
1.54779e-05
0.0157127
1.92941e-05
0.0157069
2.32367e-05
0.0157001
2.72985e-05
0.0156924
3.14744e-05
0.0156835
3.57543e-05
0.0156736
4.01327e-05
0.0156626
4.45959e-05
0.0156506
4.91385e-05
0.0156373
5.37427e-05
0.015623
5.84044e-05
0.0156075
6.31e-05
0.0155909
6.78287e-05
0.0155731
7.25594e-05
0.0155541
7.72971e-05
0.015534
8.20011e-05
0.0155128
8.66842e-05
0.0154905
9.12955e-05
0.015467
9.58555e-05
0.0154425
0.000100306
0.0154169
0.000104668
0.0153903
0.000108888
0.0153627
0.00011297
0.0153342
0.000116893
0.0153047
0.000120597
0.0152744
0.000124162
0.0152434
0.000127362
0.0152115
0.000130516
0.000133042
0.0152313
-4.77643e-05
0.0152407
-4.78005e-05
0.0152501
-4.77737e-05
0.0152594
-4.76798e-05
0.0152687
-4.75142e-05
0.0152779
-4.72724e-05
0.0152871
-4.69495e-05
0.0152962
-4.65406e-05
0.0153052
-4.60405e-05
0.0153141
-4.54443e-05
0.0153228
-4.47467e-05
0.0153314
-4.39424e-05
0.0153397
-4.30261e-05
0.0153479
-4.19925e-05
0.0153559
-4.08362e-05
0.0153636
-3.95519e-05
0.015371
-3.81344e-05
0.0153781
-3.65784e-05
0.0153848
-3.48789e-05
0.0153912
-3.30311e-05
0.0153972
-3.10303e-05
0.0154028
-2.88719e-05
0.0154079
-2.65519e-05
0.0154125
-2.40663e-05
0.0154166
-2.14117e-05
0.0154201
-1.85851e-05
0.015423
-1.5584e-05
0.0154253
-1.24061e-05
0.015427
-9.05011e-06
0.015428
-5.51497e-06
0.0154282
-1.79974e-06
0.0154277
2.09132e-06
0.0154263
6.15744e-06
0.0154242
1.03992e-05
0.0154212
1.48122e-05
0.0154172
1.93924e-05
0.0154124
2.41338e-05
0.0154066
2.9031e-05
0.0153998
3.40753e-05
0.015392
3.92598e-05
0.0153832
4.45727e-05
0.0153734
5.0006e-05
0.0153624
5.55439e-05
0.0153504
6.11783e-05
0.0153372
6.68886e-05
0.015323
7.26676e-05
0.0153076
7.84887e-05
0.0152911
8.43476e-05
0.0152734
9.02099e-05
0.0152546
9.60761e-05
0.0152347
0.000101903
0.0152137
0.000107698
0.0151916
0.000113409
0.0151684
0.000119047
0.0151441
0.000124558
0.0151189
0.000129948
0.0150926
0.000135174
0.0150653
0.000140213
0.0150372
0.000145073
0.0150081
0.000149643
0.0149782
0.000154061
0.0149476
0.000158009
0.0149162
0.00016192
0.000165038
0.0149423
-5.70824e-05
0.0149516
-5.71203e-05
0.0149609
-5.70826e-05
0.0149702
-5.69642e-05
0.0149795
-5.67599e-05
0.0149887
-5.64641e-05
0.0149978
-5.60711e-05
0.0150068
-5.55749e-05
0.0150157
-5.49695e-05
0.0150245
-5.4249e-05
0.0150332
-5.34069e-05
0.0150417
-5.24372e-05
0.01505
-5.13334e-05
0.0150581
-5.00893e-05
0.015066
-4.86984e-05
0.0150736
-4.71544e-05
0.0150809
-4.54512e-05
0.0150879
-4.35826e-05
0.0150946
-4.15427e-05
0.0151008
-3.93256e-05
0.0151067
-3.69258e-05
0.0151122
-3.4338e-05
0.0151172
-3.15574e-05
0.0151217
-2.85795e-05
0.0151257
-2.54002e-05
0.0151291
-2.20158e-05
0.015132
-1.84236e-05
0.0151342
-1.46211e-05
0.0151358
-1.06066e-05
0.0151366
-6.379e-06
0.0151368
-1.93725e-06
0.0151361
2.713e-06
0.0151347
7.5718e-06
0.0151325
1.26389e-05
0.0151294
1.79091e-05
0.0151254
2.33774e-05
0.0151205
2.90368e-05
0.0151147
3.48804e-05
0.0151078
4.08981e-05
0.0151
4.70812e-05
0.0150912
5.34159e-05
0.0150813
5.98921e-05
0.0150703
6.64915e-05
0.0150583
7.32037e-05
0.0150452
8.00048e-05
0.015031
8.68851e-05
0.0150156
9.38145e-05
0.0149992
0.000100785
0.0149817
0.00010776
0.014963
0.000114735
0.0149432
0.000121664
0.0149224
0.00012855
0.0149005
0.000135338
0.0148775
0.000142032
0.0148534
0.000148579
0.0148284
0.000154975
0.0148024
0.000161183
0.0147755
0.000167159
0.0147476
0.000172932
0.0147189
0.000178349
0.0146894
0.0001836
0.0146591
0.000188279
0.0146281
0.000192932
0.000196629
0.0146611
-6.63818e-05
0.0146704
-6.64185e-05
0.0146797
-6.63667e-05
0.014689
-6.62208e-05
0.0146982
-6.59744e-05
0.0147073
-6.56212e-05
0.0147164
-6.51545e-05
0.0147254
-6.45674e-05
0.0147343
-6.3853e-05
0.014743
-6.30042e-05
0.0147516
-6.20138e-05
0.0147601
-6.08746e-05
0.0147683
-5.95793e-05
0.0147764
-5.81205e-05
0.0147842
-5.6491e-05
0.0147917
-5.46834e-05
0.0147989
-5.26905e-05
0.0148058
-5.05054e-05
0.0148124
-4.81211e-05
0.0148186
-4.5531e-05
0.0148244
-4.27288e-05
0.0148298
-3.97085e-05
0.0148347
-3.64644e-05
0.0148391
-3.29914e-05
0.014843
-2.9285e-05
0.0148463
-2.5341e-05
0.0148491
-2.11563e-05
0.0148512
-1.67281e-05
0.0148526
-1.20546e-05
0.0148534
-7.13469e-06
0.0148534
-1.96712e-06
0.0148527
3.44074e-06
0.0148512
9.09012e-06
0.0148488
1.49796e-05
0.0148456
2.11033e-05
0.0148415
2.74551e-05
0.0148366
3.40269e-05
0.0148306
4.08106e-05
0.0148237
4.77941e-05
0.0148158
5.49674e-05
0.0148069
6.23143e-05
0.014797
6.98229e-05
0.014786
7.74721e-05
0.014774
8.52492e-05
0.0147609
9.31272e-05
0.0147467
0.000101094
0.0147314
0.000109115
0.014715
0.000117181
0.0146975
0.000125249
0.0146789
0.000133314
0.0146592
0.000141325
0.0146385
0.00014928
0.0146167
0.000157122
0.0145939
0.000164851
0.0145701
0.000172412
0.0145453
0.00017979
0.0145195
0.000186956
0.0144928
0.000193847
0.0144652
0.000200511
0.0144368
0.000206754
0.0144076
0.000212819
0.0143777
0.000218211
0.014347
0.000223591
0.000227853
0.0143874
-7.56826e-05
0.0143967
-7.57148e-05
0.014406
-7.56456e-05
0.0144153
-7.54683e-05
0.0144245
-7.51761e-05
0.0144336
-7.47615e-05
0.0144427
-7.42169e-05
0.0144516
-7.35345e-05
0.0144605
-7.27065e-05
0.0144692
-7.17248e-05
0.0144778
-7.05813e-05
0.0144862
-6.92677e-05
0.0144944
-6.77759e-05
0.0145023
-6.60974e-05
0.0145101
-6.42241e-05
0.0145175
-6.21476e-05
0.0145247
-5.986e-05
0.0145316
-5.73532e-05
0.0145381
-5.46195e-05
0.0145442
-5.16515e-05
0.0145499
-4.84421e-05
0.0145552
-4.49845e-05
0.01456
-4.12725e-05
0.0145643
-3.73004e-05
0.0145681
-3.3063e-05
0.0145713
-2.8556e-05
0.0145739
-2.37757e-05
0.0145759
-1.87192e-05
0.0145772
-1.33847e-05
0.0145778
-7.77108e-06
0.0145778
-1.87675e-06
0.0145769
4.28872e-06
0.0145753
1.07282e-05
0.0145728
1.74388e-05
0.0145695
2.44137e-05
0.0145653
3.16461e-05
0.0145602
3.91263e-05
0.0145542
4.68449e-05
0.0145472
5.47883e-05
0.0145392
6.29447e-05
0.0145302
7.12957e-05
0.0145202
7.98272e-05
0.0145092
8.85158e-05
0.0144971
9.7346e-05
0.0144839
0.000106288
0.0144697
0.000115327
0.0144544
0.000124425
0.014438
0.000133569
0.0144205
0.000142713
0.014402
0.000151849
0.0143824
0.000160921
0.0143617
0.000169925
0.0143401
0.0001788
0.0143174
0.000187541
0.0142937
0.000196091
0.0142691
0.000204429
0.0142435
0.000212531
0.014217
0.000220312
0.0141897
0.000227846
0.0141615
0.000234893
0.0141326
0.000241752
0.014103
0.000247839
0.0140726
0.000253931
0.000258744
0.014121
-8.50029e-05
0.0141303
-8.50269e-05
0.0141396
-8.49363e-05
0.0141488
-8.47236e-05
0.014158
-8.43811e-05
0.0141672
-8.39005e-05
0.0141762
-8.32732e-05
0.0141852
-8.24905e-05
0.014194
-8.15436e-05
0.0142027
-8.04236e-05
0.0142112
-7.91214e-05
0.0142196
-7.76277e-05
0.0142278
-7.59334e-05
0.0142357
-7.40292e-05
0.0142434
-7.19059e-05
0.0142508
-6.95544e-05
0.0142579
-6.69657e-05
0.0142647
-6.4131e-05
0.0142711
-6.10418e-05
0.0142771
-5.76898e-05
0.0142828
-5.40671e-05
0.0142879
-5.01664e-05
0.0142926
-4.59808e-05
0.0142968
-4.15041e-05
0.0143005
-3.67307e-05
0.0143036
-3.16558e-05
0.0143061
-2.62755e-05
0.014308
-2.05868e-05
0.0143092
-1.45879e-05
0.0143097
-8.27762e-06
0.0143095
-1.65409e-06
0.0143085
5.27032e-06
0.0143067
1.25007e-05
0.0143041
2.00325e-05
0.0143007
2.78579e-05
0.0142964
3.59691e-05
0.0142911
4.4355e-05
0.014285
5.30049e-05
0.0142778
6.19035e-05
0.0142698
7.1037e-05
0.0142607
8.0385e-05
0.0142506
8.99314e-05
0.0142394
9.96498e-05
0.0142273
0.000109522
0.014214
0.000119516
0.0141997
0.000129614
0.0141844
0.000139774
0.014168
0.00014998
0.0141505
0.000160183
0.014132
0.000170371
0.0141124
0.000180485
0.0140918
0.000190517
0.0140702
0.000200403
0.0140476
0.000210133
0.0140241
0.000219651
0.0139996
0.000228925
0.0139742
0.000237937
0.0139479
0.000246587
0.0139208
0.000254967
0.0138929
0.000262797
0.0138642
0.000270429
0.0138348
0.000277192
0.0138048
0.000283983
0.000289333
0.0138614
-9.43585e-05
0.0138707
-9.43703e-05
0.01388
-9.4254e-05
0.0138893
-9.40013e-05
0.0138986
-9.36037e-05
0.0139077
-9.30518e-05
0.0139168
-9.23364e-05
0.0139257
-9.14478e-05
0.0139346
-9.03762e-05
0.0139432
-8.91117e-05
0.0139518
-8.76443e-05
0.0139601
-8.5964e-05
0.0139682
-8.40604e-05
0.0139761
-8.19236e-05
0.0139838
-7.95433e-05
0.0139911
-7.69097e-05
0.0139982
-7.40127e-05
0.0140049
-7.08428e-05
0.0140112
-6.73907e-05
0.0140172
-6.36474e-05
0.0140227
-5.96044e-05
0.0140278
-5.52535e-05
0.0140324
-5.05875e-05
0.0140365
-4.55996e-05
0.0140401
-4.02837e-05
0.014043
-3.4635e-05
0.0140454
-2.86491e-05
0.0140471
-2.23231e-05
0.0140482
-1.56551e-05
0.0140486
-8.64404e-06
0.0140482
-1.28761e-06
0.0140471
6.39816e-06
0.0140452
1.44216e-05
0.0140424
2.27758e-05
0.0140388
3.14522e-05
0.0140344
4.04416e-05
0.014029
4.97317e-05
0.0140227
5.93103e-05
0.0140154
6.91603e-05
0.0140072
7.92662e-05
0.013998
8.96052e-05
0.0139877
0.000100159
0.0139765
0.000110899
0.0139642
0.000121804
0.0139509
0.000132838
0.0139365
0.000143982
0.0139211
0.000155189
0.0139046
0.000166443
0.0138871
0.000177688
0.0138686
0.00018891
0.013849
0.000200046
0.0138285
0.000211085
0.0138069
0.00022196
0.0137844
0.000232657
0.0137609
0.000243118
0.0137365
0.000253304
0.0137113
0.000263204
0.0136852
0.000272698
0.0136582
0.0002819
0.0136305
0.000290491
0.0136021
0.000298877
0.013573
0.000306297
0.0135432
0.000313771
0.000319644
0.0136085
-0.000103764
0.0136179
-0.000103759
0.0136272
-0.000103612
0.0136365
-0.000103314
0.0136458
-0.000102856
0.013655
-0.000102227
0.013664
-0.000101418
0.013673
-0.000100417
0.0136818
-9.9214e-05
0.0136905
-9.77982e-05
0.013699
-9.61586e-05
0.0137074
-9.42842e-05
0.0137155
-9.21639e-05
0.0137233
-8.97867e-05
0.0137309
-8.71416e-05
0.0137382
-8.42176e-05
0.0137452
-8.10043e-05
0.0137519
-7.7491e-05
0.0137582
-7.36679e-05
0.013764
-6.9525e-05
0.0137695
-6.50534e-05
0.0137745
-6.02444e-05
0.013779
-5.50901e-05
0.013783
-4.95833e-05
0.0137864
-4.37176e-05
0.0137892
-3.74879e-05
0.0137915
-3.08899e-05
0.0137931
-2.39203e-05
0.013794
-1.65775e-05
0.0137942
-8.86025e-06
0.0137937
-7.6602e-07
0.0137924
7.68422e-06
0.0137903
1.65038e-05
0.0137874
2.5683e-05
0.0137837
3.52117e-05
0.013779
4.50798e-05
0.0137735
5.52735e-05
0.013767
6.57793e-05
0.0137596
7.65779e-05
0.0137512
8.76522e-05
0.0137418
9.8977e-05
0.0137315
0.000110532
0.0137201
0.000122285
0.0137077
0.000134213
0.0136942
0.000146278
0.0136798
0.000158455
0.0136642
0.000170697
0.0136477
0.000182982
0.0136301
0.000195252
0.0136116
0.00020749
0.013592
0.000219629
0.0135714
0.000231655
0.0135499
0.000243497
0.0135274
0.000255138
0.013504
0.000266518
0.0134797
0.000277593
0.0134546
0.000288355
0.0134286
0.000298669
0.0134018
0.00030867
0.0133743
0.000317999
0.0133461
0.000327118
0.0133172
0.000335175
0.0132876
0.000343318
0.000349699
0.0133619
-0.000113231
0.0133714
-0.000113204
0.0133808
-0.000113022
0.0133901
-0.000112673
0.0133994
-0.000112149
0.0134086
-0.000111437
0.0134178
-0.000110527
0.0134267
-0.000109407
0.0134356
-0.000108065
0.0134443
-0.000106491
0.0134528
-0.000104671
0.0134611
-0.000102595
0.0134692
-0.000100249
0.013477
-9.76232e-05
0.0134846
-9.47045e-05
0.0134919
-9.14814e-05
0.0134988
-8.79427e-05
0.0135054
-8.4077e-05
0.0135116
-7.98736e-05
0.0135174
-7.53222e-05
0.0135228
-7.0413e-05
0.0135276
-6.51368e-05
0.013532
-5.94854e-05
0.0135359
-5.3451e-05
0.0135392
-4.70273e-05
0.0135419
-4.02086e-05
0.013544
-3.29907e-05
0.0135455
-2.53704e-05
0.0135463
-1.73465e-05
0.0135463
-8.91809e-06
0.0135456
-7.74018e-08
0.0135442
9.13943e-06
0.0135419
1.87605e-05
0.0135388
2.87676e-05
0.0135349
3.91506e-05
0.0135301
4.98986e-05
0.0135243
6.09963e-05
0.0135177
7.24283e-05
0.0135101
8.41737e-05
0.0135015
9.62132e-05
0.013492
0.000108519
0.0134815
0.000121069
0.0134699
0.000133828
0.0134574
0.000146771
0.0134438
0.000159855
0.0134292
0.000173055
0.0134136
0.000186318
0.0133969
0.00019962
0.0133793
0.000212898
0.0133606
0.000226135
0.013341
0.000239257
0.0133204
0.000252249
0.0132989
0.000265036
0.0132764
0.000277597
0.0132531
0.000289873
0.0132288
0.000301811
0.0132038
0.000313411
0.0131779
0.00032452
0.0131513
0.000335296
0.013124
0.000345339
0.0130959
0.000355171
0.0130672
0.000363844
0.0130379
0.000372642
0.000379517
0.0131216
-0.000122771
0.0131311
-0.000122717
0.0131405
-0.000122494
0.01315
-0.000122089
0.0131593
-0.000121491
0.0131685
-0.00012069
0.0131777
-0.000119672
0.0131867
-0.000118425
0.0131956
-0.000116937
0.0132043
-0.000115195
0.0132128
-0.000113187
0.0132211
-0.0001109
0.0132292
-0.000108321
0.013237
-0.000105436
0.0132445
-0.000102235
0.0132517
-9.87028e-05
0.0132586
-9.48288e-05
0.0132652
-9.06008e-05
0.0132713
-8.60073e-05
0.013277
-8.10374e-05
0.0132823
-7.56807e-05
0.0132871
-6.99277e-05
0.0132913
-6.37695e-05
0.0132951
-5.71982e-05
0.0132983
-5.02072e-05
0.0133009
-4.27907e-05
0.0133028
-3.49445e-05
0.0133041
-2.66654e-05
0.0133047
-1.79521e-05
0.0133046
-8.80388e-06
0.0133037
7.80399e-07
0.0133021
1.07781e-05
0.0132997
2.12029e-05
0.0132964
3.20417e-05
0.0132922
4.32824e-05
0.0132872
5.49123e-05
0.0132813
6.69148e-05
0.0132745
7.92729e-05
0.0132667
9.19635e-05
0.0132579
0.000104966
0.0132482
0.000118249
0.0132375
0.000131789
0.0132258
0.000145547
0.013213
0.000159497
0.0131993
0.000173591
0.0131846
0.000187801
0.0131688
0.000202071
0.013152
0.000216376
0.0131343
0.000230647
0.0131156
0.000244864
0.0130959
0.000258949
0.0130752
0.000272887
0.0130537
0.000286596
0.0130312
0.000300055
0.0130079
0.000313201
0.0129837
0.000325978
0.0129587
0.000338389
0.012933
0.000350268
0.0129065
0.000361794
0.0128793
0.000372527
0.0128514
0.00038305
0.012823
0.00039232
0.0127938
0.000401757
0.00040911
0.0128871
-0.000132393
0.0128967
-0.000132307
0.0129062
-0.000132036
0.0129157
-0.000131568
0.0129251
-0.000130891
0.0129344
-0.000129992
0.0129436
-0.000128858
0.0129526
-0.000127477
0.0129615
-0.000125834
0.0129703
-0.000123917
0.0129788
-0.000121711
0.0129871
-0.000119204
0.0129952
-0.00011638
0.0130029
-0.000113228
0.0130104
-0.000109733
0.0130176
-0.000105882
0.0130245
-0.000101663
0.0130309
-9.70617e-05
0.013037
-9.20675e-05
0.0130426
-8.66684e-05
0.0130478
-8.08536e-05
0.0130525
-7.46132e-05
0.0130566
-6.79379e-05
0.0130603
-6.08196e-05
0.0130633
-5.32514e-05
0.0130657
-4.52276e-05
0.0130675
-3.67438e-05
0.0130687
-2.77973e-05
0.0130691
-1.83867e-05
0.0130688
-8.51223e-06
0.0130678
1.82506e-06
0.0130659
1.26077e-05
0.0130633
2.38427e-05
0.0130598
3.55175e-05
0.0130555
4.76192e-05
0.0130503
6.01337e-05
0.0130441
7.30424e-05
0.0130371
8.6327e-05
0.0130291
9.9962e-05
0.0130201
0.000113925
0.0130102
0.000128182
0.0129993
0.000142707
0.0129874
0.000157458
0.0129745
0.000172406
0.0129605
0.0001875
0.0129456
0.000202711
0.0129297
0.000217976
0.0129128
0.000233269
0.012895
0.000248515
0.0128761
0.000263695
0.0128564
0.000278724
0.0128357
0.000293585
0.0128141
0.000308194
0.0127916
0.000322527
0.0127683
0.000336519
0.0127441
0.000350108
0.0127192
0.000363305
0.0126936
0.000375927
0.0126672
0.000388178
0.0126401
0.000399577
0.0126124
0.000410768
0.0125841
0.000420614
0.0125552
0.000430675
0.000438491
0.0126584
-0.000142105
0.012668
-0.000141981
0.0126776
-0.000141656
0.0126872
-0.000141118
0.0126967
-0.000140353
0.012706
-0.00013935
0.0127153
-0.000138092
0.0127243
-0.000136568
0.0127333
-0.000134761
0.012742
-0.000132659
0.0127505
-0.000130246
0.0127589
-0.000127508
0.0127669
-0.00012443
0.0127747
-0.000120999
0.0127821
-0.0001172
0.0127893
-0.000113019
0.0127961
-0.000108443
0.0128025
-0.000103458
0.0128084
-9.80515e-05
0.012814
-9.2212e-05
0.0128191
-8.59279e-05
0.0128236
-7.91889e-05
0.0128277
-7.19855e-05
0.0128312
-6.43095e-05
0.0128341
-5.61537e-05
0.0128364
-4.75124e-05
0.012838
-3.83815e-05
0.012839
-2.87583e-05
0.0128392
-1.86419e-05
0.0128387
-8.03273e-06
0.0128375
3.06531e-06
0.0128355
1.46389e-05
0.0128326
2.669e-05
0.0128289
3.9206e-05
0.0128244
5.21726e-05
0.0128189
6.55746e-05
0.0128126
7.93916e-05
0.0128053
9.36033e-05
0.0127971
0.000108182
0.0127879
0.000123104
0.0127778
0.000138331
0.0127666
0.000153837
0.0127545
0.000169575
0.0127414
0.000185514
0.0127273
0.000201599
0.0127122
0.000217799
0.0126961
0.000234046
0.0126791
0.000250312
0.0126611
0.000266519
0.0126421
0.000282643
0.0126223
0.000298596
0.0126015
0.00031436
0.0125798
0.000329845
0.0125573
0.000345027
0.012534
0.000359839
0.0125099
0.000374215
0.0124851
0.000388171
0.0124595
0.000401509
0.0124332
0.000414459
0.0124063
0.000426498
0.0123787
0.000438335
0.0123506
0.000448735
0.0123218
0.000459405
0.000467668
0.0124351
-0.000151915
0.0124449
-0.000151745
0.0124546
-0.000151359
0.0124642
-0.000150743
0.0124737
-0.000149884
0.0124832
-0.000148767
0.0124925
-0.000147377
0.0125016
-0.0001457
0.0125105
-0.00014372
0.0125193
-0.000141422
0.0125279
-0.000138791
0.0125362
-0.000135813
0.0125442
-0.00013247
0.0125519
-0.000128749
0.0125594
-0.000124635
0.0125665
-0.000120112
0.0125732
-0.000115167
0.0125795
-0.000109786
0.0125854
-0.000103956
0.0125909
-9.76641e-05
0.0125959
-9.08989e-05
0.0126003
-8.36497e-05
0.0126042
-7.59068e-05
0.0126076
-6.76617e-05
0.0126103
-5.89073e-05
0.0126125
-4.9638e-05
0.0126139
-3.98498e-05
0.0126147
-2.95402e-05
0.0126148
-1.8709e-05
0.0126141
-7.35656e-06
0.0126127
4.51025e-06
0.0126104
1.68815e-05
0.0126074
2.97549e-05
0.0126034
4.31174e-05
0.0125987
5.69534e-05
0.012593
7.12463e-05
0.0125864
8.59737e-05
0.0125789
0.000101114
0.0125704
0.000116637
0.012561
0.000132515
0.0125507
0.000148711
0.0125393
0.000165192
0.012527
0.000181911
0.0125136
0.000198834
0.0124993
0.000215901
0.0124841
0.000233079
0.0124678
0.000250296
0.0124506
0.000267521
0.0124324
0.000284671
0.0124134
0.000301722
0.0123934
0.000318579
0.0123725
0.000335224
0.0123508
0.000351562
0.0123283
0.000367569
0.0123049
0.000383174
0.0122808
0.00039831
0.012256
0.000412997
0.0122305
0.000427024
0.0122043
0.000440646
0.0121775
0.000453298
0.0121501
0.000465759
0.0121221
0.000476689
0.0120936
0.000487952
0.000496646
0.0122172
-0.000161827
0.0122271
-0.000161605
0.0122369
-0.00016115
0.0122466
-0.000160449
0.0122562
-0.000159486
0.0122656
-0.000158247
0.012275
-0.000156715
0.0122842
-0.000154875
0.0122932
-0.000152712
0.0123019
-0.000150208
0.0123105
-0.000147349
0.0123188
-0.000144118
0.0123268
-0.000140499
0.0123346
-0.000136476
0.012342
-0.000132035
0.012349
-0.000127158
0.0123557
-0.000121832
0.0123619
-0.000116043
0.0123678
-0.000109777
0.0123731
-0.00010302
0.012378
-9.57615e-05
0.0123823
-8.79899e-05
0.0123861
-7.96955e-05
0.0123893
-7.08697e-05
0.0123919
-6.15054e-05
0.0123939
-5.15971e-05
0.0123952
-4.11411e-05
0.0123957
-3.01352e-05
0.0123956
-1.85795e-05
0.0123947
-6.47503e-06
0.0123931
6.16878e-06
0.0123906
1.93447e-05
0.0123873
3.30469e-05
0.0123832
4.72616e-05
0.0123782
6.19716e-05
0.0123722
7.71589e-05
0.0123654
9.27992e-05
0.0123577
0.000108869
0.012349
0.000125335
0.0123393
0.00014217
0.0123287
0.000159331
0.0123171
0.000176784
0.0123045
0.000194479
0.012291
0.000212378
0.0122765
0.000230418
0.012261
0.000248563
0.0122445
0.000266737
0.0122272
0.000284907
0.0122089
0.000302984
0.0121896
0.000320943
0.0121695
0.000338684
0.0121486
0.000356188
0.0121268
0.000373355
0.0121042
0.000390161
0.0120808
0.000406533
0.0120567
0.000422401
0.0120319
0.00043779
0.0120065
0.000452478
0.0119804
0.000466744
0.0119537
0.000479983
0.0119264
0.000493042
0.0118986
0.000504482
0.0118703
0.000516321
0.00052543
0.0120044
-0.000171846
0.0120144
-0.000171564
0.0120243
-0.000171033
0.0120341
-0.000170237
0.0120437
-0.000169162
0.0120533
-0.000167791
0.0120627
-0.000166107
0.0120719
-0.000164095
0.0120809
-0.000161737
0.0120897
-0.000159017
0.0120983
-0.000155918
0.0121066
-0.000152423
0.0121146
-0.000148515
0.0121223
-0.000144179
0.0121297
-0.000139397
0.0121367
-0.000134154
0.0121433
-0.000128435
0.0121495
-0.000122224
0.0121552
-0.000115508
0.0121604
-0.000108274
0.0121652
-0.00010051
0.0121694
-9.22034e-05
0.0121731
-8.33452e-05
0.0121761
-7.39267e-05
0.0121785
-6.39408e-05
0.0121803
-5.33823e-05
0.0121814
-4.22476e-05
0.0121818
-3.05351e-05
0.0121815
-1.82454e-05
0.0121804
-5.37969e-06
0.0121785
8.0494e-06
0.0121758
2.20374e-05
0.0121723
3.6575e-05
0.0121679
5.16476e-05
0.0121627
6.72364e-05
0.0121565
8.33218e-05
0.0121494
9.98776e-05
0.0121414
0.000116878
0.0121325
0.000134289
0.0121225
0.000152078
0.0121117
0.000170202
0.0120998
0.000188623
0.012087
0.000207287
0.0120733
0.000226156
0.0120585
0.00024516
0.0120428
0.000264262
0.0120262
0.000283379
0.0120086
0.00030248
0.0119901
0.000321467
0.0119707
0.000340316
0.0119505
0.00035892
0.0119294
0.000377261
0.0119076
0.000395232
0.0118849
0.000412811
0.0118615
0.000429923
0.0118374
0.000446494
0.0118127
0.000462557
0.0117873
0.000477877
0.0117612
0.000492757
0.0117347
0.000506556
0.0117075
0.00052019
0.0116799
0.000532114
0.0116517
0.000544513
0.000554021
0.0117966
-0.000181975
0.0118067
-0.000181625
0.0118166
-0.000181009
0.0118265
-0.00018011
0.0118363
-0.000178913
0.0118459
-0.0001774
0.0118553
-0.000175554
0.0118646
-0.000173358
0.0118736
-0.000170795
0.0118825
-0.000167846
0.011891
-0.000164495
0.0118993
-0.000160724
0.0119073
-0.000156515
0.011915
-0.000151852
0.0119223
-0.000146717
0.0119293
-0.000141095
0.0119358
-0.000134969
0.0119419
-0.000128324
0.0119476
-0.000121146
0.0119527
-0.000113421
0.0119573
-0.000105138
0.0119614
-9.62835e-05
0.0119649
-8.68489e-05
0.0119678
-7.68254e-05
0.0119701
-6.62061e-05
0.0119717
-5.49859e-05
0.0119726
-4.31616e-05
0.0119728
-3.07321e-05
0.0119722
-1.76986e-05
0.0119709
-4.06231e-06
0.0119688
1.01603e-05
0.0119659
2.49677e-05
0.0119621
4.03476e-05
0.0119575
5.62838e-05
0.011952
7.27562e-05
0.0119455
8.97434e-05
0.0119382
0.000107217
0.0119299
0.00012515
0.0119207
0.000143505
0.0119105
0.000162248
0.0118994
0.000181332
0.0118873
0.000200717
0.0118743
0.000220346
0.0118602
0.000240176
0.0118453
0.000260135
0.0118293
0.000280183
0.0118125
0.000300232
0.0117947
0.000320248
0.0117761
0.000340129
0.0117565
0.000359849
0.0117361
0.000379295
0.011715
0.00039845
0.011693
0.0004172
0.0116703
0.000435527
0.0116468
0.000453349
0.0116227
0.000470596
0.011598
0.000487302
0.0115727
0.000503224
0.0115467
0.00051869
0.0115203
0.000533019
0.0114932
0.000547201
0.0114658
0.000559587
0.0114378
0.000572528
0.000582417
0.0115936
-0.000192216
0.0116037
-0.00019179
0.0116138
-0.000191079
0.0116238
-0.000190068
0.0116336
-0.000188738
0.0116433
-0.000187073
0.0116528
-0.000185054
0.0116621
-0.000182664
0.0116712
-0.000179883
0.01168
-0.000176694
0.0116886
-0.000173078
0.0116969
-0.000169018
0.0117049
-0.000164495
0.0117125
-0.000159492
0.0117198
-0.000153991
0.0117266
-0.000147975
0.0117331
-0.000141429
0.0117391
-0.000134336
0.0117447
-0.000126682
0.0117497
-0.000118454
0.0117542
-0.000109638
0.0117581
-0.000100223
0.0117615
-9.01994e-05
0.0117642
-7.95585e-05
0.0117663
-6.82937e-05
0.0117677
-5.64002e-05
0.0117684
-4.38754e-05
0.0117684
-3.07186e-05
0.0117676
-1.69313e-05
0.0117661
-2.51482e-06
0.0117638
1.2509e-05
0.0117606
2.81436e-05
0.0117566
4.43724e-05
0.0117517
6.1178e-05
0.0117459
7.85387e-05
0.0117392
9.64314e-05
0.0117316
0.000114826
0.011723
0.000133693
0.0117135
0.000152992
0.0117031
0.000172688
0.0116917
0.000192729
0.0116794
0.000213074
0.011666
0.000233661
0.0116518
0.000254446
0.0116366
0.000275351
0.0116204
0.000296334
0.0116033
0.000317302
0.0115854
0.000338219
0.0115665
0.000358977
0.0115468
0.000379549
0.0115263
0.000399815
0.011505
0.000419761
0.0114829
0.000439266
0.0114601
0.000458313
0.0114367
0.000476817
0.0114125
0.000494709
0.0113878
0.000512027
0.0113625
0.00052852
0.0113367
0.000544541
0.0113103
0.000559372
0.0112834
0.000574076
0.0112561
0.000586897
0.0112283
0.000600363
0.000610616
0.0113952
-0.00020257
0.0114054
-0.000202058
0.0114156
-0.000201244
0.0114256
-0.000200109
0.0114355
-0.000198637
0.0114453
-0.000196809
0.0114548
-0.000194606
0.0114642
-0.000192008
0.0114733
-0.000188998
0.0114821
-0.000185556
0.0114907
-0.000181663
0.011499
-0.0001773
0.011507
-0.00017245
0.0115146
-0.000167093
0.0115218
-0.000161212
0.0115286
-0.00015479
0.011535
-0.000147809
0.0115409
-0.000140255
0.0115463
-0.000132111
0.0115512
-0.000123365
0.0115556
-0.000114003
0.0115594
-0.000104015
0.0115626
-9.33891e-05
0.0115651
-8.21183e-05
0.011567
-7.0196e-05
0.0115683
-5.76177e-05
0.0115688
-4.43812e-05
0.0115685
-3.04868e-05
0.0115675
-1.59368e-05
0.0115658
-7.29333e-07
0.0115632
1.51025e-05
0.0115597
3.15724e-05
0.0115554
4.86566e-05
0.0115503
6.63372e-05
0.0115442
8.45908e-05
0.0115373
0.000103393
0.0115294
0.000122711
0.0115206
0.000142513
0.0115108