/*--------------------------------*- C++ -*----------------------------------*\
  =========                 |
  \\      /  F ield         | OpenFOAM: The Open Source CFD Toolbox
   \\    /   O peration     | Website:  https://openfoam.org
    \\  /    A nd           | Version:  7
     \\/     M anipulation  |
\*---------------------------------------------------------------------------*/
FoamFile
{
    version     2.0;
    format      ascii;
    class       volVectorField;
    location    "66.000256";
    object      U;
}
// * * * * * * * * * * * * * * * * * * * * * * * * * * * * * * * * * * * * * //

dimensions      [0 1 -1 0 0 0 0];

internalField   nonuniform List<vector> 
5800
(
(-0.104859 -0.0103558 -7.81855e-21)
(-0.132291 -0.00903949 -3.20598e-21)
(-0.152532 -0.00708881 1.96607e-20)
(-0.16591 -0.00462338 -7.70613e-21)
(-0.172586 -0.00183359 8.68924e-22)
(1.05245 -0.000835021 0)
(1.05308 -0.000818731 0)
(1.05371 -0.00080177 0)
(1.05433 -0.000784116 0)
(1.05496 -0.000765748 0)
(1.05558 -0.000746646 0)
(1.0562 -0.00072679 0)
(1.05681 -0.000706163 0)
(1.05742 -0.000684752 0)
(1.05803 -0.000662545 0)
(1.05862 -0.000639532 0)
(1.0592 -0.000615707 0)
(1.05978 -0.000591065 0)
(1.06034 -0.000565605 0)
(1.06088 -0.000539327 0)
(1.06141 -0.000512236 0)
(1.06193 -0.000484339 0)
(1.06242 -0.000455644 0)
(1.06289 -0.000426167 0)
(1.06334 -0.000395923 0)
(1.06377 -0.000364933 0)
(1.06416 -0.000333222 0)
(1.06453 -0.000300816 0)
(1.06487 -0.000267749 0)
(1.06517 -0.000234055 0)
(1.06544 -0.000199776 0)
(1.06567 -0.000164955 0)
(1.06586 -0.000129641 0)
(1.06601 -9.38877e-05 0)
(1.06611 -5.77496e-05 0)
(1.06616 -2.12914e-05 0)
(1.06617 1.54262e-05 0)
(1.06612 5.23259e-05 0)
(1.06601 8.93454e-05 0)
(1.06586 0.000126392 0)
(1.06564 0.000163404 0)
(1.06536 0.000200269 0)
(1.06501 0.000236938 0)
(1.06461 0.000273267 0)
(1.06412 0.000309236 0)
(1.06358 0.000344651 0)
(1.06296 0.000379548 0)
(1.06228 0.000413654 0)
(1.0615 0.000447101 0)
(1.06068 0.00047949 0)
(1.05974 0.000511116 0)
(1.05879 0.000541375 0)
(1.05767 0.000570824 0)
(1.05659 0.000598543 0)
(1.05529 0.000625493 0)
(1.05408 0.00065027 0)
(1.05258 0.00067444 0)
(1.05128 0.000695893 0)
(1.04955 0.000717049 0)
(1.0482 0.000734826 0)
(1.04619 0.000752773 0)
(1.04486 0.000766574 0)
(1.04252 0.000781109 0)
(1.04129 0.000790733 0)
(1.03853 0.000801538 0)
(1.03754 0.000807003 0)
(1.03421 0.000813407 0)
(1.03365 0.000815315 0)
(1.02954 0.000815878 0)
(1.05267 -0.00247599 0)
(1.0533 -0.00242912 0)
(1.05393 -0.00238004 0)
(1.05455 -0.00232872 0)
(1.05518 -0.00227512 0)
(1.05581 -0.00221918 0)
(1.05643 -0.00216088 0)
(1.05704 -0.00210016 0)
(1.05766 -0.00203701 0)
(1.05826 -0.00197139 0)
(1.05885 -0.00190329 0)
(1.05944 -0.0018327 0)
(1.06002 -0.00175962 0)
(1.06058 -0.00168403 0)
(1.06112 -0.00160596 0)
(1.06166 -0.00152542 0)
(1.06217 -0.00144243 0)
(1.06267 -0.00135703 0)
(1.06314 -0.00126927 0)
(1.06359 -0.00117919 0)
(1.06401 -0.00108687 0)
(1.06441 -0.000992375 0)
(1.06478 -0.000895792 0)
(1.06512 -0.00079722 0)
(1.06542 -0.00069677 0)
(1.06569 -0.000594561 0)
(1.06592 -0.000490731 0)
(1.06611 -0.000385423 0)
(1.06625 -0.000278799 0)
(1.06635 -0.000171027 0)
(1.06641 -6.22976e-05 0)
(1.06641 4.7203e-05 0)
(1.06636 0.000157253 0)
(1.06625 0.000267653 0)
(1.06609 0.000378141 0)
(1.06587 0.000488511 0)
(1.06559 0.000598456 0)
(1.06524 0.000707788 0)
(1.06483 0.000816133 0)
(1.06435 0.000923355 0)
(1.06381 0.00102898 0)
(1.06318 0.00113298 0)
(1.0625 0.00123471 0)
(1.06171 0.00133434 0)
(1.06089 0.00143099 0)
(1.05995 0.00152511 0)
(1.05899 0.00161547 0)
(1.05787 0.001703 0)
(1.05678 0.0017859 0)
(1.05548 0.00186581 0)
(1.05427 0.00194011 0)
(1.05276 0.00201149 0)
(1.05146 0.00207616 0)
(1.04972 0.00213821 0)
(1.04837 0.00219232 0)
(1.04636 0.00224432 0)
(1.04502 0.00228712 0)
(1.04267 0.00232834 0)
(1.04144 0.00235935 0)
(1.03867 0.00238883 0)
(1.03768 0.00240801 0)
(1.03435 0.00242413 0)
(1.03379 0.00243243 0)
(1.02967 0.00243228 0)
(1.05309 -0.00410232 0)
(1.05372 -0.00402438 0)
(1.05436 -0.00394278 0)
(1.05499 -0.00385743 0)
(1.05562 -0.0037683 0)
(1.05625 -0.0036753 0)
(1.05688 -0.00357838 0)
(1.0575 -0.00347748 0)
(1.05811 -0.00337255 0)
(1.05872 -0.00326356 0)
(1.05932 -0.00315048 0)
(1.05991 -0.00303329 0)
(1.06048 -0.00291199 0)
(1.06105 -0.00278657 0)
(1.0616 -0.00265705 0)
(1.06213 -0.00252345 0)
(1.06265 -0.00238583 0)
(1.06314 -0.00224424 0)
(1.06362 -0.00209876 0)
(1.06407 -0.00194946 0)
(1.0645 -0.00179646 0)
(1.0649 -0.00163989 0)
(1.06526 -0.00147988 0)
(1.0656 -0.0013166 0)
(1.0659 -0.00115024 0)
(1.06617 -0.000980979 0)
(1.0664 -0.000809057 0)
(1.06659 -0.000634711 0)
(1.06673 -0.000458208 0)
(1.06683 -0.000279827 0)
(1.06688 -9.98808e-05 0)
(1.06688 8.13158e-05 0)
(1.06683 0.000263405 0)
(1.06672 0.000446043 0)
(1.06655 0.000628813 0)
(1.06633 0.000811353 0)
(1.06604 0.000993189 0)
(1.06569 0.00117396 0)
(1.06527 0.00135312 0)
(1.06478 0.00153034 0)
(1.06423 0.00170498 0)
(1.0636 0.00187679 0)
(1.06291 0.00204499 0)
(1.06212 0.00220949 0)
(1.06129 0.0023693 0)
(1.06034 0.00252458 0)
(1.05938 0.00267405 0)
(1.05825 0.00281827 0)
(1.05715 0.00295551 0)
(1.05584 0.00308691 0)
(1.05462 0.00321015 0)
(1.05311 0.00332714 0)
(1.0518 0.00343478 0)
(1.05005 0.0035359 0)
(1.0487 0.00362657 0)
(1.04668 0.0037105 0)
(1.04533 0.00378314 0)
(1.04298 0.00384854 0)
(1.04174 0.00390247 0)
(1.03896 0.00394777 0)
(1.03797 0.00398282 0)
(1.03462 0.00400585 0)
(1.03406 0.00402262 0)
(1.02993 0.00402006 0)
(1.05371 -0.00570602 0)
(1.05435 -0.00559734 0)
(1.05499 -0.00548355 0)
(1.05563 -0.00536456 0)
(1.05626 -0.00524029 0)
(1.0569 -0.00511065 0)
(1.05753 -0.00497555 0)
(1.05815 -0.0048349 0)
(1.05877 -0.00468866 0)
(1.05939 -0.00453676 0)
(1.05999 -0.00437917 0)
(1.06058 -0.00421586 0)
(1.06117 -0.00404683 0)
(1.06173 -0.00387207 0)
(1.06229 -0.00369162 0)
(1.06283 -0.00350551 0)
(1.06334 -0.0033138 0)
(1.06384 -0.00311658 0)
(1.06432 -0.00291395 0)
(1.06477 -0.00270604 0)
(1.0652 -0.00249299 0)
(1.0656 -0.00227499 0)
(1.06597 -0.00205223 0)
(1.06631 -0.00182494 0)
(1.06661 -0.00159337 0)
(1.06688 -0.00135782 0)
(1.0671 -0.00111858 0)
(1.06729 -0.000876009 0)
(1.06743 -0.000630463 0)
(1.06752 -0.00038234 0)
(1.06757 -0.000132071 0)
(1.06757 0.000119897 0)
(1.06751 0.000373071 0)
(1.06739 0.000626964 0)
(1.06722 0.000881009 0)
(1.06699 0.00113469 0)
(1.0667 0.00138735 0)
(1.06634 0.00163849 0)
(1.06592 0.00188736 0)
(1.06542 0.00213347 0)
(1.06486 0.00237599 0)
(1.06422 0.00261448 0)
(1.06352 0.00284799 0)
(1.06272 0.00307621 0)
(1.06188 0.00329801 0)
(1.06092 0.0035133 0)
(1.05994 0.00372071 0)
(1.05881 0.0039205 0)
(1.0577 0.00411092 0)
(1.05637 0.00429276 0)
(1.05515 0.00446379 0)
(1.05362 0.0046254 0)
(1.0523 0.0047749 0)
(1.05054 0.00491424 0)
(1.04917 0.00504038 0)
(1.04714 0.00515558 0)
(1.04579 0.00525695 0)
(1.04342 0.00534618 0)
(1.04218 0.00542189 0)
(1.03938 0.00548303 0)
(1.03838 0.00553281 0)
(1.03502 0.00556308 0)
(1.03445 0.0055874 0)
(1.0303 0.00558268 0)
(1.05451 -0.00729701 0)
(1.05516 -0.0071576 0)
(1.0558 -0.00701163 0)
(1.05645 -0.00685899 0)
(1.0571 -0.00669957 0)
(1.05774 -0.00653326 0)
(1.05838 -0.00635995 0)
(1.05901 -0.00617954 0)
(1.05964 -0.00599197 0)
(1.06026 -0.00579716 0)
(1.06087 -0.00559507 0)
(1.06147 -0.00538567 0)
(1.06205 -0.00516895 0)
(1.06263 -0.00494493 0)
(1.06319 -0.00471363 0)
(1.06373 -0.00447511 0)
(1.06425 -0.00422945 0)
(1.06475 -0.00397677 0)
(1.06523 -0.0037172 0)
(1.06569 -0.0034509 0)
(1.06612 -0.00317807 0)
(1.06652 -0.00289894 0)
(1.06689 -0.00261377 0)
(1.06722 -0.00232284 0)
(1.06753 -0.0020265 0)
(1.06779 -0.0017251 0)
(1.06801 -0.00141905 0)
(1.0682 -0.00110879 0)
(1.06834 -0.000794776 0)
(1.06843 -0.00047753 0)
(1.06847 -0.000157602 0)
(1.06846 0.000164435 0)
(1.06839 0.000487952 0)
(1.06827 0.000812318 0)
(1.0681 0.00113682 0)
(1.06785 0.00146077 0)
(1.06755 0.00178338 0)
(1.06718 0.00210394 0)
(1.06675 0.00242157 0)
(1.06624 0.00273557 0)
(1.06567 0.00304495 0)
(1.06502 0.00334908 0)
(1.06431 0.00364683 0)
(1.0635 0.00393769 0)
(1.06265 0.00422036 0)
(1.06167 0.00449458 0)
(1.06068 0.00475878 0)
(1.05953 0.00501303 0)
(1.0584 0.00525549 0)
(1.05707 0.00548667 0)
(1.05582 0.00570434 0)
(1.05428 0.00590956 0)
(1.05295 0.00609976 0)
(1.05117 0.00627641 0)
(1.04979 0.00643687 0)
(1.04774 0.0065826 0)
(1.04638 0.0067116 0)
(1.04399 0.00682411 0)
(1.04274 0.00692056 0)
(1.03992 0.00699727 0)
(1.03892 0.00706081 0)
(1.03553 0.0070983 0)
(1.03496 0.00712947 0)
(1.03079 0.00712265 0)
(1.05549 -0.00887908 0)
(1.05615 -0.00870869 0)
(1.0568 -0.00853029 0)
(1.05746 -0.00834376 0)
(1.05812 -0.00814897 0)
(1.05877 -0.00794577 0)
(1.05942 -0.00773406 0)
(1.06006 -0.00751371 0)
(1.06069 -0.00728462 0)
(1.06132 -0.00704674 0)
(1.06194 -0.00680001 0)
(1.06254 -0.00654439 0)
(1.06314 -0.00627988 0)
(1.06372 -0.00600649 0)
(1.06428 -0.00572428 0)
(1.06483 -0.00543331 0)
(1.06535 -0.00513369 0)
(1.06586 -0.00482556 0)
(1.06634 -0.00450908 0)
(1.0668 -0.00418446 0)
(1.06723 -0.00385195 0)
(1.06764 -0.00351182 0)
(1.06801 -0.0031644 0)
(1.06834 -0.00281004 0)
(1.06864 -0.00244917 0)
(1.06891 -0.00208221 0)
(1.06913 -0.00170967 0)
(1.06931 -0.00133208 0)
(1.06944 -0.000950014 0)
(1.06953 -0.000564101 0)
(1.06956 -0.000175012 0)
(1.06955 0.000216549 0)
(1.06947 0.000609815 0)
(1.06935 0.00100401 0)
(1.06916 0.00139828 0)
(1.06891 0.00179179 0)
(1.0686 0.00218356 0)
(1.06821 0.00257274 0)
(1.06777 0.00295826 0)
(1.06725 0.00333927 0)
(1.06667 0.00371457 0)
(1.066 0.00408337 0)
(1.06527 0.00444434 0)
(1.06444 0.00479682 0)
(1.06358 0.00513931 0)
(1.06258 0.00547136 0)
(1.06157 0.00579124 0)
(1.06041 0.00609886 0)
(1.05926 0.00639221 0)
(1.05791 0.00667163 0)
(1.05665 0.00693479 0)
(1.05509 0.00718252 0)
(1.05374 0.00741228 0)
(1.05194 0.00762522 0)
(1.05055 0.0078189 0)
(1.04848 0.00799423 0)
(1.0471 0.00814984 0)
(1.04469 0.00828484 0)
(1.04342 0.00840114 0)
(1.04059 0.0084928 0)
(1.03957 0.00856941 0)
(1.03616 0.00861372 0)
(1.03559 0.0086513 0)
(1.03138 0.00864222 0)
(1.05664 -0.010456 0)
(1.05731 -0.0102543 0)
(1.05798 -0.0100431 0)
(1.05865 -0.00982236 0)
(1.05931 -0.00959186 0)
(1.05997 -0.00935145 0)
(1.06063 -0.009101 0)
(1.06128 -0.00884036 0)
(1.06193 -0.00856945 0)
(1.06256 -0.00828817 0)
(1.06319 -0.00799648 0)
(1.06381 -0.00769434 0)
(1.06441 -0.00738174 0)
(1.06499 -0.00705873 0)
(1.06557 -0.00672534 0)
(1.06612 -0.00638169 0)
(1.06665 -0.00602788 0)
(1.06716 -0.00566411 0)
(1.06765 -0.00529056 0)
(1.06811 -0.00490748 0)
(1.06854 -0.00451519 0)
(1.06895 -0.004114 0)
(1.06932 -0.0037043 0)
(1.06965 -0.00328653 0)
(1.06995 -0.00286117 0)
(1.07021 -0.00242876 0)
(1.07043 -0.00198987 0)
(1.07061 -0.00154514 0)
(1.07074 -0.00109526 0)
(1.07082 -0.000640974 0)
(1.07084 -0.000183067 0)
(1.07082 0.000277623 0)
(1.07074 0.000740192 0)
(1.0706 0.00120373 0)
(1.0704 0.00166721 0)
(1.07014 0.00212966 0)
(1.06981 0.00258994 0)
(1.06942 0.00304703 0)
(1.06896 0.00349969 0)
(1.06842 0.00394689 0)
(1.06782 0.00438726 0)
(1.06714 0.00481983 0)
(1.06639 0.00524309 0)
(1.06555 0.0056562 0)
(1.06466 0.00605747 0)
(1.06365 0.00644631 0)
(1.06262 0.0068208 0)
(1.06143 0.00718068 0)
(1.06027 0.00752378 0)
(1.05889 0.0078503 0)
(1.05761 0.00815778 0)
(1.05603 0.0084469 0)
(1.05466 0.00871507 0)
(1.05284 0.00896319 0)
(1.05143 0.00918898 0)
(1.04933 0.00939287 0)
(1.04794 0.00957406 0)
(1.04551 0.00973065 0)
(1.04423 0.0098659 0)
(1.04136 0.00997177 0)
(1.04034 0.0100608 0)
(1.03689 0.0101114 0)
(1.03632 0.010155 0)
(1.03207 0.0101434 0)
(1.05795 -0.0120316 0)
(1.05863 -0.0117981 0)
(1.05932 -0.0115537 0)
(1.06 -0.0112982 0)
(1.06068 -0.0110315 0)
(1.06135 -0.0107533 0)
(1.06202 -0.0104636 0)
(1.06269 -0.0101622 0)
(1.06334 -0.00984894 0)
(1.06399 -0.00952377 0)
(1.06462 -0.00918662 0)
(1.06525 -0.00883748 0)
(1.06586 -0.00847633 0)
(1.06645 -0.00810322 0)
(1.06703 -0.00771823 0)
(1.06759 -0.00732146 0)
(1.06813 -0.00691308 0)
(1.06865 -0.00649329 0)
(1.06914 -0.00606233 0)
(1.0696 -0.0056205 0)
(1.07004 -0.00516814 0)
(1.07044 -0.00470566 0)
(1.07081 -0.00423349 0)
(1.07115 -0.00375215 0)
(1.07145 -0.0032622 0)
(1.0717 -0.00276426 0)
(1.07192 -0.00225902 0)
(1.07209 -0.00174719 0)
(1.07221 -0.0012296 0)
(1.07228 -0.000707081 0)
(1.07231 -0.000180562 0)
(1.07227 0.000348995 0)
(1.07218 0.000880545 0)
(1.07203 0.00141303 0)
(1.07182 0.00194529 0)
(1.07154 0.00247619 0)
(1.0712 0.00300442 0)
(1.07079 0.0035288 0)
(1.07032 0.00404792 0)
(1.06976 0.00456057 0)
(1.06914 0.00506522 0)
(1.06844 0.00556072 0)
(1.06767 0.00604537 0)
(1.06681 0.00651817 0)
(1.0659 0.00697724 0)
(1.06486 0.00742184 0)
(1.06381 0.00784984 0)
(1.0626 0.00826089 0)
(1.06142 0.0086526 0)
(1.06001 0.00902508 0)
(1.05871 0.00937571 0)
(1.0571 0.00970505 0)
(1.05571 0.0100104 0)
(1.05386 0.0102926 0)
(1.05243 0.0105493 0)
(1.05031 0.0107807 0)
(1.04889 0.0109864 0)
(1.04643 0.0111636 0)
(1.04514 0.0113168 0)
(1.04224 0.0114361 0)
(1.04121 0.0115368 0)
(1.03773 0.0115931 0)
(1.03715 0.0116424 0)
(1.03286 0.0116278 0)
(1.05942 -0.013609 0)
(1.06012 -0.0133431 0)
(1.06082 -0.0130648 0)
(1.06151 -0.0127739 0)
(1.06221 -0.0124704 0)
(1.0629 -0.0121539 0)
(1.06358 -0.0118243 0)
(1.06426 -0.0114814 0)
(1.06492 -0.0111251 0)
(1.06558 -0.0107554 0)
(1.06623 -0.0103722 0)
(1.06686 -0.0099754 0)
(1.06748 -0.00956508 0)
(1.06809 -0.00914127 0)
(1.06867 -0.00870407 0)
(1.06924 -0.00825363 0)
(1.06979 -0.00779012 0)
(1.07031 -0.00731379 0)
(1.0708 -0.00682493 0)
(1.07127 -0.00632388 0)
(1.07171 -0.00581104 0)
(1.07211 -0.00528687 0)
(1.07249 -0.00475189 0)
(1.07282 -0.00420668 0)
(1.07312 -0.00365189 0)
(1.07337 -0.00308823 0)
(1.07358 -0.00251648 0)
(1.07375 -0.00193747 0)
(1.07386 -0.00135212 0)
(1.07393 -0.000761403 0)
(1.07394 -0.000166357 0)
(1.07389 0.000431915 0)
(1.07379 0.00103223 0)
(1.07363 0.00163339 0)
(1.0734 0.00223409 0)
(1.07311 0.00283302 0)
(1.07275 0.00342872 0)
(1.07232 0.00401985 0)
(1.07183 0.00460482 0)
(1.07125 0.00518226 0)
(1.07061 0.00575045 0)
(1.06989 0.00630808 0)
(1.0691 0.00685327 0)
(1.06821 0.00738485 0)
(1.06728 0.00790075 0)
(1.06622 0.00840009 0)
(1.06514 0.00888056 0)
(1.0639 0.00934166 0)
(1.06269 0.00978084 0)
(1.06126 0.0101981 0)
(1.05993 0.0105907 0)
(1.05829 0.010959 0)
(1.05688 0.0113004 0)
(1.055 0.0116154 0)
(1.05355 0.0119019 0)
(1.05139 0.0121596 0)
(1.04996 0.0123886 0)
(1.04747 0.0125854 0)
(1.04616 0.0127557 0)
(1.04322 0.0128875 0)
(1.04218 0.0129992 0)
(1.03866 0.0130605 0)
(1.03807 0.013115 0)
(1.03374 0.0130972 0)
(1.06104 -0.0151912 0)
(1.06176 -0.0148921 0)
(1.06247 -0.0145792 0)
(1.06319 -0.0142522 0)
(1.0639 -0.013911 0)
(1.0646 -0.0135553 0)
(1.0653 -0.013185 0)
(1.06599 -0.0127999 0)
(1.06667 -0.0123999 0)
(1.06734 -0.0119849 0)
(1.068 -0.0115547 0)
(1.06864 -0.0111095 0)
(1.06928 -0.0106493 0)
(1.06989 -0.010174 0)
(1.07048 -0.00968386 0)
(1.07106 -0.00917901 0)
(1.07161 -0.00865969 0)
(1.07214 -0.00812616 0)
(1.07264 -0.00757876 0)
(1.07311 -0.00701788 0)
(1.07355 -0.00644399 0)
(1.07396 -0.00585762 0)
(1.07433 -0.00525934 0)
(1.07466 -0.00464984 0)
(1.07496 -0.00402983 0)
(1.07521 -0.00340013 0)
(1.07541 -0.00276161 0)
(1.07557 -0.00211521 0)
(1.07568 -0.00146196 0)
(1.07573 -0.000802958 0)
(1.07573 -0.000139366 0)
(1.07568 0.000527568 0)
(1.07556 0.00119652 0)
(1.07538 0.00186617 0)
(1.07514 0.00253504 0)
(1.07483 0.00320167 0)
(1.07446 0.00386444 0)
(1.07401 0.00452184 0)
(1.07349 0.00517211 0)
(1.07289 0.00581373 0)
(1.07223 0.00644477 0)
(1.07148 0.00706378 0)
(1.07067 0.00766867 0)
(1.06975 0.00825816 0)
(1.06879 0.00882994 0)
(1.0677 0.00938302 0)
(1.0666 0.00991488 0)
(1.06533 0.0104249 0)
(1.06409 0.0109104 0)
(1.06263 0.0113713 0)
(1.06128 0.0118046 0)
(1.0596 0.0122107 0)
(1.05816 0.0125868 0)
(1.05626 0.0129334 0)
(1.05477 0.0132484 0)
(1.05259 0.0135312 0)
(1.05113 0.0137825 0)
(1.0486 0.0139977 0)
(1.04727 0.0141841 0)
(1.0443 0.0143274 0)
(1.04324 0.0144492 0)
(1.03968 0.0145149 0)
(1.03909 0.0145742 0)
(1.03471 0.0145527 0)
(1.06281 -0.0167806 0)
(1.06355 -0.0164475 0)
(1.06428 -0.0160991 0)
(1.06501 -0.0157351 0)
(1.06574 -0.0153554 0)
(1.06646 -0.0149597 0)
(1.06717 -0.0145478 0)
(1.06788 -0.0141195 0)
(1.06857 -0.0136748 0)
(1.06926 -0.0132135 0)
(1.06993 -0.0127355 0)
(1.07059 -0.012241 0)
(1.07123 -0.0117299 0)
(1.07185 -0.0112023 0)
(1.07246 -0.0106583 0)
(1.07304 -0.0100983 0)
(1.0736 -0.00952228 0)
(1.07413 -0.00893075 0)
(1.07464 -0.00832405 0)
(1.07511 -0.00770263 0)
(1.07556 -0.00706701 0)
(1.07596 -0.00641778 0)
(1.07634 -0.00575563 0)
(1.07667 -0.00508128 0)
(1.07696 -0.00439557 0)
(1.0772 -0.00369939 0)
(1.0774 -0.00299373 0)
(1.07755 -0.00227964 0)
(1.07765 -0.00155826 0)
(1.0777 -0.000830814 0)
(1.07769 -9.85591e-05 0)
(1.07762 0.000637083 0)
(1.07749 0.00137465 0)
(1.07729 0.00211266 0)
(1.07703 0.0028495 0)
(1.0767 0.00358356 0)
(1.07631 0.00431304 0)
(1.07583 0.00503629 0)
(1.0753 0.00575136 0)
(1.07467 0.00645658 0)
(1.07399 0.00714982 0)
(1.07321 0.00782949 0)
(1.07237 0.0084933 0)
(1.07142 0.00913981 0)
(1.07043 0.00976654 0)
(1.06932 0.0103724 0)
(1.06818 0.0109546 0)
(1.06688 0.0115125 0)
(1.06561 0.0120431 0)
(1.06412 0.0125464 0)
(1.06273 0.0130192 0)
(1.06103 0.0134618 0)
(1.05955 0.0138713 0)
(1.05761 0.0142482 0)
(1.0561 0.0145904 0)
(1.05388 0.0148971 0)
(1.0524 0.0151693 0)
(1.04983 0.0154019 0)
(1.04848 0.0156032 0)
(1.04547 0.0157571 0)
(1.0444 0.0158883 0)
(1.0408 0.0159575 0)
(1.04019 0.0160211 0)
(1.03577 0.0159955 0)
(1.06473 -0.0183795 0)
(1.06548 -0.0180114 0)
(1.06624 -0.0176265 0)
(1.06698 -0.0172246 0)
(1.06773 -0.0168053 0)
(1.06847 -0.0163685 0)
(1.0692 -0.015914 0)
(1.06992 -0.0154415 0)
(1.07063 -0.0149511 0)
(1.07133 -0.0144425 0)
(1.07202 -0.0139157 0)
(1.07269 -0.0133708 0)
(1.07334 -0.0128078 0)
(1.07398 -0.0122268 0)
(1.07459 -0.0116281 0)
(1.07518 -0.0110118 0)
(1.07575 -0.0103783 0)
(1.07629 -0.00972781 0)
(1.0768 -0.00906094 0)
(1.07728 -0.00837813 0)
(1.07772 -0.00767998 0)
(1.07813 -0.00696717 0)
(1.0785 -0.00624043 0)
(1.07883 -0.0055006 0)
(1.07912 -0.0047486 0)
(1.07936 -0.00398542 0)
(1.07955 -0.00321216 0)
(1.07969 -0.00242998 0)
(1.07978 -0.00164016 0)
(1.07981 -0.000844005 0)
(1.07979 -4.30329e-05 0)
(1.0797 0.000761383 0)
(1.07956 0.00156762 0)
(1.07934 0.00237399 0)
(1.07907 0.00317869 0)
(1.07872 0.00397997 0)
(1.0783 0.00477588 0)
(1.0778 0.0055646 0)
(1.07724 0.00634401 0)
(1.07659 0.00711229 0)
(1.07587 0.00786711 0)
(1.07507 0.00860674 0)
(1.0742 0.00932868 0)
(1.07322 0.0100314 0)
(1.0722 0.0107121 0)
(1.07105 0.0113697 0)
(1.06988 0.0120012 0)
(1.06855 0.0126058 0)
(1.06724 0.0131804 0)
(1.06571 0.0137249 0)
(1.06429 0.0142358 0)
(1.06255 0.0147137 0)
(1.06105 0.0151553 0)
(1.05907 0.0155611 0)
(1.05753 0.0159292 0)
(1.05527 0.0162585 0)
(1.05376 0.0165504 0)
(1.05116 0.016799 0)
(1.04978 0.0170142 0)
(1.04673 0.0171777 0)
(1.04564 0.0173173 0)
(1.04199 0.0173893 0)
(1.04138 0.0174567 0)
(1.0369 0.0174266 0)
(1.06678 -0.0199899 0)
(1.06756 -0.0195858 0)
(1.06833 -0.0191633 0)
(1.0691 -0.0187223 0)
(1.06986 -0.0182623 0)
(1.07062 -0.0177833 0)
(1.07137 -0.017285 0)
(1.07211 -0.0167672 0)
(1.07284 -0.0162298 0)
(1.07355 -0.0156728 0)
(1.07425 -0.015096 0)
(1.07494 -0.0144996 0)
(1.0756 -0.0138836 0)
(1.07625 -0.0132482 0)
(1.07687 -0.0125936 0)
(1.07747 -0.01192 0)
(1.07805 -0.0112278 0)
(1.07859 -0.0105174 0)
(1.07911 -0.0097894 0)
(1.07959 -0.00904427 0)
(1.08004 -0.00828271 0)
(1.08045 -0.00750546 0)
(1.08082 -0.00671336 0)
(1.08114 -0.00590732 0)
(1.08143 -0.00508836 0)
(1.08166 -0.00425758 0)
(1.08185 -0.00341618 0)
(1.08198 -0.00256544 0)
(1.08206 -0.00170678 0)
(1.08208 -0.000841607 0)
(1.08204 2.84089e-05 0)
(1.08194 0.000901779 0)
(1.08177 0.00177672 0)
(1.08154 0.0026514 0)
(1.08124 0.00352384 0)
(1.08087 0.00439215 0)
(1.08042 0.00525422 0)
(1.0799 0.00610807 0)
(1.07931 0.00695139 0)
(1.07863 0.0077822 0)
(1.07789 0.00859801 0)
(1.07705 0.00939691 0)
(1.07615 0.0101762 0)
(1.07514 0.0109343 0)
(1.07408 0.0116681 0)
(1.07289 0.0123764 0)
(1.07169 0.0130561 0)
(1.07032 0.0137063 0)
(1.06898 0.0143237 0)
(1.06741 0.0149081 0)
(1.06596 0.0154559 0)
(1.06418 0.0159677 0)
(1.06264 0.01644 0)
(1.06062 0.0168734 0)
(1.05905 0.017266 0)
(1.05675 0.0176165 0)
(1.05521 0.0179268 0)
(1.05257 0.0181902 0)
(1.05117 0.0184181 0)
(1.04807 0.01859 0)
(1.04697 0.0187372 0)
(1.04327 0.0188112 0)
(1.04265 0.0188819 0)
(1.03811 0.0188466 0)
(1.06897 -0.0216135 0)
(1.06977 -0.0211722 0)
(1.07057 -0.020711 0)
(1.07136 -0.0202296 0)
(1.07214 -0.0197278 0)
(1.07292 -0.0192053 0)
(1.07369 -0.0186619 0)
(1.07444 -0.0180975 0)
(1.07519 -0.017512 0)
(1.07592 -0.0169052 0)
(1.07663 -0.0162772 0)
(1.07733 -0.015628 0)
(1.07801 -0.0149578 0)
(1.07867 -0.0142667 0)
(1.07931 -0.0135549 0)
(1.07992 -0.0128229 0)
(1.0805 -0.0120709 0)
(1.08105 -0.0112995 0)
(1.08157 -0.0105093 0)
(1.08205 -0.00970084 0)
(1.0825 -0.00887489 0)
(1.08291 -0.00803229 0)
(1.08328 -0.00717395 0)
(1.0836 -0.0063009 0)
(1.08388 -0.00541425 0)
(1.08411 -0.0045152 0)
(1.08429 -0.00360507 0)
(1.08441 -0.00268526 0)
(1.08447 -0.00175728 0)
(1.08448 -0.000822724 0)
(1.08442 0.000116728 0)
(1.08431 0.00105927 0)
(1.08412 0.00200298 0)
(1.08387 0.00294594 0)
(1.08354 0.00388604 0)
(1.08315 0.00482124 0)
(1.08268 0.00574923 0)
(1.08213 0.00666787 0)
(1.08151 0.00757469 0)
(1.0808 0.00846754 0)
(1.08002 0.00934374 0)
(1.07915 0.0102012 0)
(1.07821 0.0110372 0)
(1.07717 0.0118497 0)
(1.07608 0.0126357 0)
(1.07485 0.0133938 0)
(1.07361 0.0141206 0)
(1.0722 0.0148153 0)
(1.07082 0.0154742 0)
(1.06921 0.0160972 0)
(1.06772 0.0166806 0)
(1.0659 0.0172249 0)
(1.06432 0.0177266 0)
(1.06226 0.0181861 0)
(1.06066 0.0186018 0)
(1.05831 0.018972 0)
(1.05675 0.0192994 0)
(1.05406 0.0195763 0)
(1.05264 0.0198156 0)
(1.0495 0.0199949 0)
(1.04837 0.0201486 0)
(1.04462 0.0202237 0)
(1.04399 0.0202972 0)
(1.03939 0.0202562 0)
(1.0713 -0.0232517 0)
(1.07212 -0.022772 0)
(1.07294 -0.0222707 0)
(1.07375 -0.0217477 0)
(1.07456 -0.0212026 0)
(1.07535 -0.0206354 0)
(1.07614 -0.0200456 0)
(1.07692 -0.0194332 0)
(1.07768 -0.0187981 0)
(1.07843 -0.0181403 0)
(1.07916 -0.0174597 0)
(1.07987 -0.0167564 0)
(1.08057 -0.0160306 0)
(1.08124 -0.0152825 0)
(1.08188 -0.0145123 0)
(1.0825 -0.0137206 0)
(1.08309 -0.0129076 0)
(1.08365 -0.012074 0)
(1.08417 -0.0112204 0)
(1.08466 -0.0103475 0)
(1.08511 -0.00945613 0)
(1.08552 -0.00854719 0)
(1.08589 -0.0076217 0)
(1.08621 -0.00668078 0)
(1.08648 -0.00572564 0)
(1.0867 -0.0047576 0)
(1.08686 -0.00377809 0)
(1.08697 -0.00278863 0)
(1.08703 -0.00179085 0)
(1.08702 -0.000786495 0)
(1.08694 0.000222604 0)
(1.08681 0.00123451 0)
(1.0866 0.00224716 0)
(1.08632 0.00325851 0)
(1.08598 0.00426627 0)
(1.08555 0.00526824 0)
(1.08505 0.00626194 0)
(1.08447 0.00724508 0)
(1.08382 0.008215 0)
(1.08308 0.00916941 0)
(1.08227 0.0101054 0)
(1.08136 0.0110209 0)
(1.08039 0.0119126 0)
(1.0793 0.0127788 0)
(1.07817 0.0136161 0)
(1.07691 0.014423 0)
(1.07563 0.0151958 0)
(1.07417 0.0159337 0)
(1.07276 0.0166329 0)
(1.0711 0.0172933 0)
(1.06957 0.0179109 0)
(1.06771 0.0184863 0)
(1.06609 0.0190158 0)
(1.06399 0.0195001 0)
(1.06235 0.0199374 0)
(1.05996 0.0203259 0)
(1.05836 0.0206689 0)
(1.05563 0.020958 0)
(1.05418 0.0212074 0)
(1.05099 0.0213928 0)
(1.04984 0.0215522 0)
(1.04604 0.0216275 0)
(1.04541 0.0217031 0)
(1.04075 0.0216559 0)
(1.07375 -0.0249059 0)
(1.0746 -0.0243863 0)
(1.07544 -0.0238436 0)
(1.07628 -0.0232775 0)
(1.07711 -0.0226878 0)
(1.07792 -0.0220743 0)
(1.07873 -0.0214367 0)
(1.07953 -0.0207749 0)
(1.08031 -0.0200888 0)
(1.08108 -0.0193784 0)
(1.08182 -0.0186437 0)
(1.08255 -0.0178849 0)
(1.08326 -0.0171021 0)
(1.08394 -0.0162956 0)
(1.0846 -0.0154657 0)
(1.08523 -0.0146128 0)
(1.08582 -0.0137376 0)
(1.08639 -0.0128405 0)
(1.08692 -0.0119223 0)
(1.08741 -0.0109839 0)
(1.08786 -0.0100259 0)
(1.08827 -0.00904963 0)
(1.08863 -0.00805601 0)
(1.08894 -0.0070463 0)
(1.08921 -0.00602184 0)
(1.08942 -0.00498405 0)
(1.08957 -0.00393447 0)
(1.08967 -0.00287476 0)
(1.08971 -0.00180669 0)
(1.08968 -0.000732106 0)
(1.08959 0.00034699 0)
(1.08943 0.00142853 0)
(1.0892 0.00251032 0)
(1.0889 0.00359012 0)
(1.08853 0.00466552 0)
(1.08807 0.00573415 0)
(1.08755 0.00679335 0)
(1.08694 0.0078407 0)
(1.08625 0.00887333 0)
(1.08547 0.00988881 0)
(1.08463 0.0108841 0)
(1.08368 0.0118568 0)
(1.08267 0.0128037 0)
(1.08154 0.0137227 0)
(1.08037 0.0146103 0)
(1.07906 0.0154648 0)
(1.07774 0.0162826 0)
(1.07624 0.0170626 0)
(1.07478 0.0178009 0)
(1.07308 0.0184973 0)
(1.07151 0.0191477 0)
(1.0696 0.0197527 0)
(1.06795 0.0203087 0)
(1.06579 0.0208162 0)
(1.06412 0.0212734 0)
(1.06168 0.0216789 0)
(1.06005 0.0220359 0)
(1.05727 0.0223357 0)
(1.0558 0.022594 0)
(1.05256 0.0227844 0)
(1.05139 0.0229483 0)
(1.04754 0.0230228 0)
(1.04689 0.0231 0)
(1.04217 0.0230461 0)
(1.07633 -0.0265771 0)
(1.07721 -0.0260162 0)
(1.07808 -0.0254305 0)
(1.07893 -0.0248198 0)
(1.07979 -0.024184 0)
(1.08063 -0.0235226 0)
(1.08146 -0.0228356 0)
(1.08227 -0.0221229 0)
(1.08307 -0.0213842 0)
(1.08386 -0.0206197 0)
(1.08462 -0.0198294 0)
(1.08537 -0.0190135 0)
(1.08609 -0.0181722 0)
(1.08678 -0.0173058 0)
(1.08745 -0.0164148 0)
(1.08809 -0.0154995 0)
(1.08869 -0.0145606 0)
(1.08926 -0.0135987 0)
(1.08979 -0.0126147 0)
(1.09029 -0.0116094 0)
(1.09074 -0.0105838 0)
(1.09114 -0.009539 0)
(1.0915 -0.00847623 0)
(1.09181 -0.0073968 0)
(1.09207 -0.00630214 0)
(1.09227 -0.00519381 0)
(1.09241 -0.00407346 0)
(1.09249 -0.00294288 0)
(1.09252 -0.00180396 0)
(1.09247 -0.000658704 0)
(1.09236 0.000490753 0)
(1.09218 0.00164221 0)
(1.09193 0.00279329 0)
(1.0916 0.00394165 0)
(1.09119 0.00508467 0)
(1.09071 0.00621985 0)
(1.09015 0.00734437 0)
(1.08951 0.00845562 0)
(1.08879 0.00955058 0)
(1.08797 0.0106267 0)
(1.08709 0.0116806 0)
(1.0861 0.0127099 0)
(1.08505 0.0137111 0)
(1.08388 0.0146821 0)
(1.08266 0.015619 0)
(1.08131 0.0165203 0)
(1.07994 0.0173819 0)
(1.0784 0.0182028 0)
(1.07689 0.0189789 0)
(1.07515 0.01971 0)
(1.07353 0.0203917 0)
(1.07157 0.0210249 0)
(1.06988 0.0216057 0)
(1.06768 0.0221349 0)
(1.06596 0.0226107 0)
(1.06348 0.0230314 0)
(1.06181 0.023401 0)
(1.05898 0.0237101 0)
(1.05748 0.0239757 0)
(1.05419 0.0241698 0)
(1.053 0.0243372 0)
(1.0491 0.02441 0)
(1.04844 0.0244881 0)
(1.04365 0.0244268 0)
(1.07904 -0.028266 0)
(1.07994 -0.0276622 0)
(1.08083 -0.027032 0)
(1.08172 -0.0263752 0)
(1.08259 -0.0256915 0)
(1.08346 -0.0249808 0)
(1.08431 -0.0242427 0)
(1.08515 -0.0234773 0)
(1.08597 -0.0226845 0)
(1.08677 -0.0218643 0)
(1.08755 -0.0210168 0)
(1.08831 -0.0201422 0)
(1.08904 -0.0192408 0)
(1.08975 -0.018313 0)
(1.09043 -0.0173593 0)
(1.09108 -0.01638 0)
(1.09169 -0.0153761 0)
(1.09226 -0.014348 0)
(1.0928 -0.0132969 0)
(1.09329 -0.0122235 0)
(1.09374 -0.011129 0)
(1.09415 -0.0100147 0)
(1.0945 -0.00888169 0)
(1.0948 -0.00773156 0)
(1.09505 -0.00656581 0)
(1.09524 -0.00538612 0)
(1.09537 -0.00419428 0)
(1.09544 -0.00299218 0)
(1.09544 -0.00178187 0)
(1.09538 -0.000565476 0)
(1.09525 0.00065471 0)
(1.09504 0.00187634 0)
(1.09476 0.00309691 0)
(1.0944 0.0043139 0)
(1.09397 0.00552454 0)
(1.09346 0.00672617 0)
(1.09286 0.00791579 0)
(1.09218 0.00909066 0)
(1.09142 0.0102476 0)
(1.09057 0.0113837 0)
(1.08964 0.0124958 0)
(1.08861 0.013581 0)
(1.08752 0.0146358 0)
(1.0863 0.0156579 0)
(1.08504 0.0166432 0)
(1.08364 0.0175902 0)
(1.08223 0.0184944 0)
(1.08064 0.0193551 0)
(1.07909 0.0201675 0)
(1.07729 0.0209319 0)
(1.07563 0.0216436 0)
(1.07362 0.0223035 0)
(1.07188 0.0229076 0)
(1.06963 0.0234569 0)
(1.06787 0.0239495 0)
(1.06534 0.0243839 0)
(1.06364 0.0247645 0)
(1.06076 0.0250813 0)
(1.05923 0.025353 0)
(1.05588 0.0255494 0)
(1.05468 0.0257191 0)
(1.05071 0.0257892 0)
(1.05005 0.0258676 0)
(1.0452 0.0257983 0)
(1.08186 -0.0299734 0)
(1.08279 -0.029325 0)
(1.08371 -0.0286486 0)
(1.08463 -0.0279439 0)
(1.08553 -0.0272107 0)
(1.08641 -0.0264488 0)
(1.08729 -0.025658 0)
(1.08815 -0.0248383 0)
(1.08899 -0.0239895 0)
(1.08981 -0.0231119 0)
(1.09061 -0.0222055 0)
(1.09138 -0.0212706 0)
(1.09213 -0.0203076 0)
(1.09285 -0.0193168 0)
(1.09354 -0.0182987 0)
(1.09419 -0.0172541 0)
(1.09481 -0.0161835 0)
(1.09539 -0.0150879 0)
(1.09593 -0.0139683 0)
(1.09643 -0.0128256 0)
(1.09688 -0.011661 0)
(1.09728 -0.0104759 0)
(1.09762 -0.00927165 0)
(1.09792 -0.00804982 0)
(1.09816 -0.00681208 0)
(1.09833 -0.00556021 0)
(1.09845 -0.00429614 0)
(1.0985 -0.00302189 0)
(1.09848 -0.00173964 0)
(1.0984 -0.000451642 0)
(1.09824 0.00083964 0)
(1.09801 0.00213173 0)
(1.0977 0.00342195 0)
(1.09732 0.00470765 0)
(1.09685 0.00598589 0)
(1.0963 0.00725385 0)
(1.09568 0.00850837 0)
(1.09496 0.00974655 0)
(1.09416 0.010965 0)
(1.09326 0.0121608 0)
(1.09229 0.0133303 0)
(1.09122 0.0144708 0)
(1.09008 0.0155784 0)
(1.08882 0.0166507 0)
(1.08751 0.0176835 0)
(1.08606 0.0186751 0)
(1.0846 0.0196208 0)
(1.08295 0.0205199 0)
(1.08135 0.0213675 0)
(1.07951 0.0221638 0)
(1.0778 0.0229039 0)
(1.07573 0.023589 0)
(1.07395 0.0242148 0)
(1.07165 0.0247825 0)
(1.06985 0.0252903 0)
(1.06726 0.0257367 0)
(1.06553 0.0261266 0)
(1.06259 0.0264497 0)
(1.06103 0.0267259 0)
(1.05764 0.0269232 0)
(1.05641 0.0270942 0)
(1.05239 0.0271605 0)
(1.05171 0.0272384 0)
(1.0468 0.0271606 0)
(1.08481 -0.0316996 0)
(1.08577 -0.031005 0)
(1.08672 -0.0302806 0)
(1.08765 -0.0295262 0)
(1.08858 -0.0287417 0)
(1.08949 -0.0279269 0)
(1.09039 -0.0270815 0)
(1.09127 -0.0262056 0)
(1.09213 -0.0252992 0)
(1.09297 -0.0243623 0)
(1.09379 -0.0233953 0)
(1.09458 -0.0223984 0)
(1.09534 -0.0213719 0)
(1.09607 -0.0203165 0)
(1.09677 -0.0192325 0)
(1.09743 -0.0181209 0)
(1.09806 -0.0169823 0)
(1.09864 -0.0158177 0)
(1.09918 -0.0146282 0)
(1.09968 -0.0134148 0)
(1.10013 -0.0121789 0)
(1.10052 -0.0109219 0)
(1.10086 -0.00964532 0)
(1.10115 -0.00835081 0)
(1.10137 -0.00704016 0)
(1.10154 -0.0057153 0)
(1.10164 -0.00437827 0)
(1.10167 -0.00303123 0)
(1.10164 -0.0016765 0)
(1.10153 -0.000316464 0)
(1.10135 0.00104627 0)
(1.10109 0.00240908 0)
(1.10075 0.00376913 0)
(1.10033 0.00512361 0)
(1.09983 0.00646942 0)
(1.09925 0.00780359 0)
(1.09858 0.00912278 0)
(1.09782 0.010424 0)
(1.09698 0.0117035 0)
(1.09604 0.0129584 0)
(1.09503 0.0141848 0)
(1.09391 0.0153799 0)
(1.09272 0.0165395 0)
(1.09141 0.0176612 0)
(1.09005 0.0187404 0)
(1.08855 0.0197755 0)
(1.08704 0.0207616 0)
(1.08534 0.0216979 0)
(1.08369 0.0225793 0)
(1.08179 0.0234061 0)