/*--------------------------------*- C++ -*----------------------------------*\
  =========                 |
  \\      /  F ield         | OpenFOAM: The Open Source CFD Toolbox
   \\    /   O peration     | Website:  https://openfoam.org
    \\  /    A nd           | Version:  7
     \\/     M anipulation  |
\*---------------------------------------------------------------------------*/
FoamFile
{
    version     2.0;
    format      ascii;
    class       surfaceScalarField;
    location    "20";
    object      phi;
}
// * * * * * * * * * * * * * * * * * * * * * * * * * * * * * * * * * * * * * //

dimensions      [0 3 -1 0 0 0 0];

internalField   nonuniform List<scalar> 
819
(
0.000761682
-0.000422196
-0.000465895
0.000854933
0.000689587
-0.000409081
0.000772307
-0.000460514
0.00086543
-0.00051532
-0.000570738
0.000970273
0.000781209
0.000871521
0.000973246
-0.000617045
-0.000686891
0.0010894
0.00108817
-0.000814607
0.00121589
0.00135695
0.00076417
-3.00661e-05
0.000789665
-0.000157607
0.000815768
-0.000241097
0.000840368
-0.000321748
-0.000396715
0.000880753
-5.58865e-05
0.000907331
-0.000184185
0.000932151
-0.000265917
0.000953953
-0.00034355
0.000973134
-0.000415896
0.000990803
-0.00048408
0.00100809
-0.000549032
0.00102595
-0.000610366
0.00104508
-0.00066767
0.00106598
-0.000720586
0.00108899
-0.00076885
0.00111429
-0.000812312
0.00114197
-0.000850929
0.00117203
-0.000884749
0.00120439
-0.000913889
0.00123894
-0.000938513
0.00127555
-0.000958821
-0.000975031
0.00100141
-8.70187e-05
0.00102829
-0.00021107
0.0010502
-0.000287829
0.00106767
-0.000361014
0.00108196
-0.00043019
0.00109459
-0.000496706
0.00110685
-0.000561292
0.00111976
-0.000623282
0.00113407
-0.00068198
0.0011503
-0.000736815
0.0011688
-0.000787343
0.00118975
-0.00083327
0.00121327
-0.000874443
0.00123934
-0.000910822
0.00126791
-0.000942458
0.00129887
-0.000969471
0.00133208
-0.000992029
-0.00101033
0.00112578
-0.000123401
0.0011517
-0.000236984
0.0011686
-0.000304737
0.00117992
-0.000372329
0.0011881
-0.000438374
0.0011949
-0.000503504
0.00120163
-0.000568019
0.00120929
-0.000630947
0.00121862
-0.000691303
0.0012301
-0.000748298
0.00124407
-0.00080132
0.00126074
-0.000849937
0.00128018
-0.000893884
0.0013024
-0.000933037
0.00132732
-0.000967384
0.00135485
-0.000996998
0.00138484
-0.00102202
-0.00104262
0.00125536
-0.000162873
0.00127732
-0.000258943
0.00128616
-0.000313578
0.00128918
-0.000375349
0.00129002
-0.000439217
0.00129029
-0.000503767
0.00129107
-0.000568807
0.00129327
-0.000633145
0.00129751
-0.000695545
0.00130425
-0.000755031
0.00131377
-0.000810841
0.00132625
-0.000862419
0.00134176
-0.000909396
0.00136029
-0.000951568
0.00138177
-0.00098886
0.00140607
-0.0010213
0.00143306
-0.001049
-0.00107211
0.00139569
-0.000201614
0.0014054
-0.000268652
0.00140139
-0.000309569
0.00139393
-0.000367893
0.00138636
-0.000431639
0.00137957
-0.000496983
0.0013742
-0.000563429
0.00137086
-0.000629806
0.00137005
-0.000694739
0.00137213
-0.00075711
0.00137734
-0.000816046
0.0013858
-0.000870885
0.00139757
-0.000921167
0.00141262
-0.000966615
0.00143086
-0.0010071
0.00145216
-0.0010426
0.00147637
-0.00107321
-0.00109906
0.00372825
-0.00011058
0.00366891
-0.000209315
0.0036327
-0.000273354
0.00360318
-0.000338373
0.0035778
-0.000406265
0.00355553
-0.000474709
0.00353576
-0.000543658
0.00351844
-0.000612487
0.00350376
-0.000680057
0.00349198
-0.000745328
0.00348337
-0.000807438
0.00347818
-0.000865696
0.0034766
-0.000919586
0.00347874
-0.000968761
0.00348467
-0.00101302
0.00349435
-0.00105229
0.00350772
-0.00108658
0.00352465
-0.00111599
-0.00114068
0.0045462
-2.7503e-06
0.00444399
-0.000107104
0.00436409
-0.000193454
0.00429783
-0.000272107
0.00424121
-0.000349649
0.0041922
-0.000425696
0.00414913
-0.00050059
0.00411105
-0.000574413
0.00407754
-0.000646539
0.0040484
-0.000716187
0.00402359
-0.000782636
0.00400316
-0.000845259
0.00398712
-0.00090355
0.0039755
-0.000957138
0.00396826
-0.00100579
0.00396535
-0.00104937
0.00396665
-0.00108787
0.00397201
-0.00112135
-0.00114992
0.00536854
0.000117194
0.00524748
1.39516e-05
0.00513984
-8.58145e-05
0.0050447
-0.000176963
0.00496037
-0.000265317
0.00488563
-0.000350963
0.00481902
-0.000433973
0.00475934
-0.000514735
0.00470585
-0.000593053
0.0046581
-0.000668431
0.0046158
-0.000740337
0.00457879
-0.000808257
0.00454699
-0.000871744
0.0045203
-0.000930445
0.00449862
-0.00098411
0.00448184
-0.0010326
0.00446982
-0.00107585
0.00446238
-0.0011139
-0.00114685
0.00619293
0.00024441
0.00606185
0.000145026
0.0059379
3.81385e-05
0.00582317
-6.22344e-05
0.00571762
-0.000159765
0.00562125
-0.000254598
0.00553347
-0.000346187
0.00545345
-0.000434712
0.00538053
-0.000520134
0.00531422
-0.000602129
0.00525419
-0.000680303
0.00520018
-0.000754251
0.00515203
-0.000823591
0.00510959
-0.000888001
0.00507272
-0.00094724
0.00504127
-0.00100115
0.00501508
-0.00104966
0.00499396
-0.00109278
-0.00113059
0.00700415
0.000375634
0.00686995
0.000279227
0.00673867
0.000169414
0.00661312
6.33148e-05
0.00649397
-4.06122e-05
0.00638202
-0.000142644
0.00627757
-0.000241737
0.00618045
-0.000337595
0.00609039
-0.000430069
0.00600711
-0.000518849
0.00593038
-0.000603574
0.00586001
-0.000683886
0.00579586
-0.000759439
0.00573779
-0.00082993
0.00568567
-0.000895118
0.00563936
-0.000954838
0.00559869
-0.001009
0.00556349
-0.00105759
-0.00110065
0.00778692
0.000504921
0.00765563
0.000410516
0.0075244
0.000300643
0.00739577
0.000191947
0.00727058
8.4578e-05
0.00714989
-2.19525e-05
0.0070346
-0.000126451
0.00692517
-0.000228166
0.0068218
-0.000326696
0.00672457
-0.000421622
0.00663352
-0.000512521
0.00654863
-0.000598999
0.00646989
-0.000680695
0.00639725
-0.000757289
0.00633065
-0.000828522
0.00627002
-0.000894203
0.00621523
-0.000954213
0.00616615
-0.00100851
-0.0010571
0.00852663
0.000625461
0.00840409
0.000533058
0.00827929
0.00042544
0.0081543
0.000316943
0.00802998
0.000208897
0.00790735
0.00010067
0.00778755
-6.64713e-06
0.00767146
-0.000112079
0.0075597
-0.000214937
0.00745274
-0.000314656
0.00735091
-0.000410692
0.00725447
-0.000502561
0.0071636
-0.000589829
0.00707843
-0.000672122
0.00699904
-0.000749129
0.00692545
-0.00082061
0.00685764
-0.000886402
0.00679554
-0.000946413
-0.00100063
0.00921157
0.000731016
0.0091031
0.000641532
0.00899025
0.000538293
0.00887463
0.000432563
0.00875718
0.000326349
0.00863878
0.000219063
0.00852062
0.000111516
0.00840369
4.84594e-06
0.00828897
-0.000100212
0.00817718
-0.000202863
0.00806896
-0.000302473
0.00796483
-0.000398436
0.00786522
-0.00049022
0.00777047
-0.000577363
0.00768081
-0.000659474
0.00759644
-0.00073624
0.00751747
-0.000807431
0.00744395
-0.000872895
-0.000932556
0.00983483
0.000816941
0.00974453
0.000731833
0.00964794
0.000634878
0.0095463
0.000534208
0.00944059
0.000432052
0.00933163
0.000328021
0.00922046
0.000222691
0.00910819
0.000117116
0.00899579
1.21907e-05
0.00888424
-9.13184e-05
0.00877439
-0.000192616
0.00866696
-0.00029101
0.0085626
-0.000385864
0.00846186
-0.000476619
0.00836517
-0.000562789
0.00827291
-0.000643972
0.00818533
-0.000719854
0.00810264
-0.000790203
-0.000854873
0.0103951
0.000880781
0.0103253
0.000801593
0.0102477
0.000712431
0.0101633
0.000618693
0.0100728
0.000522456
0.00997727
0.000423603
0.00987741
0.000322554
0.00977429
0.000220234
0.00966894
0.000117534
0.00956234
1.5286e-05
0.00945546
-8.57344e-05
0.00934917
-0.000184723
0.00924428
-0.000280971
0.00914149
-0.000373835
0.00904144
-0.000462732
0.00894463
-0.000547168
0.00885152
-0.000626738
0.00876244
-0.000701124
-0.000770095
0.0108962
0.000922342
0.0108475
0.000850325
0.01079
0.000769941
0.0107242
0.000684434
0.0106512
0.000595509
0.0105715
0.000503291
0.0104859
0.000408135
0.0103953
0.000310817
0.0103007
0.000212175
0.010203
0.000113017
0.0101031
1.41608e-05
0.010002
-8.36249e-05
0.00990054
-0.000179542
0.00979961
-0.0002729
0.00969991
-0.000363033
0.00960211
-0.000449367
0.00950678
-0.000531412
0.00941442
-0.000608761
-0.000681096
0.0113465
0.000943315
0.0113176
0.000879241
0.0112795
0.000808041
0.0112325
0.000731432
0.0111774
0.000650669
0.0111146
0.000566038
0.0110449
0.000477878
0.0109688
0.000386833
0.0108874
0.000293653
0.0108013
0.0001991
0.0107115
0.000103948
0.0106189
9.007e-06
0.0105243
-8.49805e-05
0.0104287
-0.000177279
0.0103328
-0.000267145
0.0102374
-0.00035396
0.0101431
-0.000437162
0.0100506
-0.000516267
-0.000590876
0.0117566
0.000946658
0.0117451
0.000890761
0.0117245
0.00082863
0.0116949
0.000761008
0.0116569
0.000688718
0.0116108
0.000612125
0.0115571
0.000531565
0.0114964
0.000447571
0.0114292
0.000360795
0.0113564
0.000271928
0.0112787
0.000181692
0.0111968
9.08317e-05
0.0111117
1.9877e-07
0.0110241
-8.97125e-05
0.0109349
-0.000177922
0.0108448
-0.000263871
0.0107545
-0.000346934
0.0106648
-0.000426565
-0.000502297
0.0121379
0.000935893
0.0121408
0.000887934
0.012135
0.000834369
0.0121207
0.000775373
0.012098
0.000711421
0.0120672
0.00064288
0.0120287
0.000570081
0.0119828
0.000493466
0.01193
0.000413587
0.0118709
0.000331058
0.011806
0.000246534
0.0117361
0.000160711
0.011662
7.43188e-05
0.0115843
-1.19765e-05
0.0115038
-9.74236e-05
0.0114213
-0.000181335
0.0113374
-0.000263086
0.0112529
-0.000342093
-0.000417838
0.0125013
0.00091451
0.0125153
0.000873921
0.0125215
0.00082818
0.0125197
0.000777166
0.01251
0.000721093
0.0124926
0.00066029
0.0124676
0.000595068
0.0124353
0.000525794
0.0123959
0.00045293
0.01235
0.000377007
0.0122979
0.000298608
0.0122403
0.000218361
0.0121777
0.000136925
0.0121107
5.49682e-05
0.0120401
-2.6821e-05
0.0119666
-0.000107775
0.0118907
-0.000187247
0.0118133
-0.000264642
-0.000339413
0.0128559
0.000885571
0.0128782
0.000851609
0.0128935
0.00081285
0.0129017
0.000769034
0.0129026
0.0007202
0.0128962
0.000666615
0.0128828
0.000608557
0.0128622
0.00054633
0.0128348
0.000480316
0.0128009
0.000410968
0.0127607
0.000338795
0.0127147
0.000264355
0.0126634
0.000188245
0.0126073
0.000111086
0.0125469
3.35218e-05
0.0124829
-4.38083e-05
0.012416
-0.000120279
0.0123466
-0.000195286
-0.000268272
0.0132091
0.000851535
0.0132373
0.000823403
0.0132594
0.0132751
0.0132842
0.0132868
0.0132827
0.013272
0.0132548
0.0132313
0.0132016
0.0131662
0.0131253
0.0130795
0.013029
0.0129746
0.0129167
0.0128558
0.0135663
)
;

boundaryField
{
    inlet
    {
        type            calculated;
        value           nonuniform 0();
    }
    outlet
    {
        type            calculated;
        value           nonuniform 0();
    }
    cylinder
    {
        type            calculated;
        value           nonuniform 0();
    }
    top
    {
        type            symmetryPlane;
        value           nonuniform 0();
    }
    bottom
    {
        type            symmetryPlane;
        value           nonuniform 0();
    }
    defaultFaces
    {
        type            empty;
        value           nonuniform 0();
    }
    procBoundary28to22
    {
        type            processor;
        value           nonuniform List<scalar> 
26
(
0.000338504
0.000372644
-0.000742924
0.000335211
-0.00067799
0.000377795
-0.000615717
8.82077e-06
0.000132111
0.000214995
0.000297148
0.000373814
0.000863269
0.000466411
0.00053174
0.000592509
0.000648542
0.000699685
0.000745843
0.000787007
0.000823247
0.000854695
0.000881529
0.000903958
0.000922211
0.000936526
)
;
    }
    procBoundary28to23
    {
        type            processor;
        value           nonuniform List<scalar> 3(0.00131406 0.00136738 0.00141712);
    }
    procBoundary28to27
    {
        type            processor;
        value           nonuniform List<scalar> 10(-0.000700083 -0.000490207 -0.000550826 -0.00097871 -0.000726506 -0.00122332 -0.000948242 -0.00381928 -0.00465403 -0.00548848);
    }
    procBoundary28to29
    {
        type            processor;
        value           nonuniform List<scalar> 
20
(
0.00146256
0.00150331
0.00112034
0.00354499
0.00398125
0.00445931
0.0049777
0.00553356
0.0061226
0.00673907
0.00737588
0.00802496
0.00867766
0.00932542
0.00996043
0.0105763
0.0111685
0.0117348
0.0122755
0.0127925
)
;
    }
    procBoundary28to33
    {
        type            processor;
        value           nonuniform List<scalar> 
15
(
-0.00632014
-0.00713537
-0.00791621
-0.00864717
-0.00931713
-0.00992075
-0.0104589
-0.0109378
-0.0113675
-0.01176
-0.0121272
-0.0124799
-0.012827
-0.0131751
-0.013529
)
;
    }
    procBoundary28to34
    {
        type            processor;
        value           nonuniform List<scalar> 
20
(
0.000790781
0.000753355
0.000711051
0.000664066
0.000612638
0.000557016
0.000497509
0.000434501
0.000368431
0.00029979
0.000229111
0.00015696
8.39309e-05
1.06348e-05
-6.2348e-05
-0.000134413
-0.00020501
0.000814243
0.0135985
0.000791169
)
;
    }
}


// ************************************************************************* //
