/*--------------------------------*- C++ -*----------------------------------*\
  =========                 |
  \\      /  F ield         | OpenFOAM: The Open Source CFD Toolbox
   \\    /   O peration     | Website:  https://openfoam.org
    \\  /    A nd           | Version:  7
     \\/     M anipulation  |
\*---------------------------------------------------------------------------*/
FoamFile
{
    version     2.0;
    format      ascii;
    class       volVectorField;
    location    "7";
    object      U;
}
// * * * * * * * * * * * * * * * * * * * * * * * * * * * * * * * * * * * * * //

dimensions      [0 1 -1 0 0 0 0];

internalField   nonuniform List<vector> 
433
(
(0.314933 0.00239802 -4.17906e-18)
(0.237746 0.00710706 1.92419e-19)
(0.264589 0.00630409 8.7866e-19)
(0.155512 0.00474537 3.31497e-19)
(0.175828 0.00603753 3.26791e-18)
(0.197871 0.00609528 -4.20274e-18)
(0.221015 0.00426881 -4.41502e-18)
(0.109976 0.00110876 -3.30441e-19)
(0.125594 0.0025087 2.72635e-19)
(0.14301 0.00339561 1.15393e-18)
(0.161796 0.00283432 1.97244e-18)
(0.1812 0.000108547 2.6253e-18)
(0.0991885 -0.000529685 1.06948e-18)
(0.113867 -2.08861e-05 6.18907e-19)
(0.129609 -0.000955168 -2.04238e-18)
(0.145726 -0.00398522 4.15878e-19)
(0.100894 -0.00455194 -7.18811e-19)
(0.114052 -0.00757521 2.74838e-19)
(1.24626 0.0566215 0)
(1.23808 0.0671754 0)
(1.22874 0.0775285 0)
(1.28528 -0.106661 0)
(1.28729 -0.0966942 0)
(1.28842 -0.0867061 0)
(1.28937 -0.0765884 0)
(1.28987 -0.0663636 0)
(1.28968 -0.0560596 0)
(1.28882 -0.0456893 0)
(1.28734 -0.0352585 0)
(1.28526 -0.0247687 0)
(1.28259 -0.0142152 0)
(1.27933 -0.00358622 0)
(1.27546 0.00713396 0)
(1.27097 0.0179596 0)
(1.26579 0.0289005 0)
(1.25988 0.0399538 0)
(1.25314 0.0510952 0)
(1.24547 0.0622711 0)
(1.23678 0.0733908 0)
(1.22695 0.0843205 0)
(1.29557 -0.109536 0)
(1.2965 -0.0986645 0)
(1.29651 -0.0877996 0)
(1.29627 -0.0768677 0)
(1.29553 -0.0659162 0)
(1.29407 -0.0549656 0)
(1.29194 -0.0440174 0)
(1.28921 -0.0330715 0)
(1.28592 -0.0221233 0)
(1.28211 -0.0111583 0)
(1.27778 -0.000149948 0)
(1.27294 0.0109267 0)
(1.26758 0.0221049 0)
(1.26166 0.0334102 0)
(1.2551 0.0448527 0)
(1.24784 0.056418 0)
(1.23975 0.0680567 0)
(1.23071 0.0796744 0)
(1.2206 0.0911259 0)
(1.30247 -0.110835 0)
(1.30186 -0.0990898 0)
(1.30037 -0.0873582 0)
(1.29851 -0.0756407 0)
(1.29612 -0.0640198 0)
(1.29303 -0.0525003 0)
(1.28932 -0.0410682 0)
(1.28508 -0.0297168 0)
(1.28037 -0.018434 0)
(1.27525 -0.00719266 0)
(1.26975 0.00405044 0)
(1.2639 0.0153392 0)
(1.25769 0.0267267 0)
(1.25108 0.0382578 0)
(1.24402 0.0499604 0)
(1.23641 0.0618336 0)
(1.22811 0.0738346 0)
(1.21898 0.085867 0)
(1.20889 0.0977735 0)
(1.30415 -0.11004 0)
(1.30153 -0.0975222 0)
(1.29813 -0.0849915 0)
(1.29422 -0.072577 0)
(1.28978 -0.0604037 0)
(1.28474 -0.048449 0)
(1.2792 -0.0366807 0)
(1.27325 -0.0250859 0)
(1.26699 -0.0136421 0)
(1.26049 -0.0023028 0)
(1.25382 0.00898606 0)
(1.24701 0.0203021 0)
(1.24007 0.03172 0)
(1.23297 0.0433088 0)
(1.22564 0.0551185 0)
(1.21795 0.0671649 0)
(1.20976 0.0794139 0)
(1.20091 0.091768 0)
(1.1912 0.104057 0)
(1.29837 -0.10665 0)
(1.29334 -0.0935527 0)
(1.2877 -0.0803677 0)
(1.28138 -0.0674228 0)
(1.27458 -0.0548852 0)
(1.26738 -0.0426922 0)
(1.25985 -0.030794 0)
(1.25212 -0.0191723 0)
(1.2443 -0.00779077 0)
(1.23649 0.00341733 0)
(1.22878 0.0145323 0)
(1.22121 0.0256591 0)
(1.2138 0.0369029 0)
(1.20651 0.0483617 0)
(1.19924 0.0601116 0)
(1.19186 0.0721877 0)
(1.18419 0.0845661 0)
(1.17603 0.0971478 0)
(1.16716 0.109749 0)
(1.28269 -0.100291 0)
(1.27503 -0.0868994 0)
(1.26698 -0.0732921 0)
(1.25802 -0.0600704 0)
(1.24872 -0.0474286 0)
(1.2393 -0.0352544 0)
(1.22982 -0.0234864 0)
(1.22041 -0.0121015 0)
(1.21119 -0.00104506 0)
(1.20231 0.00977019 0)
(1.19385 0.020464 0)
(1.18587 0.0311683 0)
(1.17836 0.0420225 0)
(1.17129 0.0531586 0)
(1.16453 0.0646816 0)
(1.15791 0.0766477 0)
(1.15123 0.0890432 0)
(1.14424 0.101767 0)
(1.13669 0.114619 0)
(1.25473 -0.0908243 0)
(1.24454 -0.0774985 0)
(1.23416 -0.0637833 0)
(1.22254 -0.0506169 0)
(1.21083 -0.038188 0)
(1.19938 -0.0263345 0)
(1.18819 -0.0149956 0)
(1.17739 -0.00414219 0)
(1.16714 0.00630213 0)
(1.15759 0.0164561 0)
(1.14882 0.0264723 0)
(1.14089 0.0365197 0)
(1.13378 0.0467757 0)
(1.12742 0.0574083 0)
(1.12166 0.0685524 0)
(1.11631 0.0802852 0)
(1.11112 0.0926021 0)
(1.10579 0.105397 0)
(1.10004 0.118453 0)
(1.2126 -0.0784479 0)
(1.20038 -0.0655729 0)
(1.18802 -0.0521211 0)
(1.17401 -0.0393911 0)
(1.16023 -0.0275196 0)
(1.14716 -0.0163086 0)
(1.13473 -0.00571233 0)
(1.12305 0.00430595 0)
(1.1123 0.0138532 0)
(1.10263 0.0230842 0)
(1.09412 0.032185 0)
(1.08679 0.0413648 0)
(1.08063 0.0508411 0)
(1.07552 0.0608179 0)
(1.07128 0.0714596 0)
(1.06769 0.0828625 0)
(1.06445 0.0950291 0)
(1.06124 0.107846 0)
(1.05774 0.121074 0)
(1.15521 -0.0637308 0)
(1.1419 -0.05165 0)
(1.12819 -0.0388459 0)
(1.1123 -0.0269379 0)
(1.09708 -0.0159575 0)
(1.08304 -0.00570251 0)
(1.07002 0.00384742 0)
(1.05812 0.0127488 0)
(1.04755 0.021145 0)
(1.03842 0.0292252 0)
(1.03079 0.037213 0)
(1.02468 0.045358 0)
(1.02002 0.0539166 0)
(1.01667 0.0631269 0)
(1.01444 0.0731802 0)
(1.01304 0.0841895 0)
(1.01217 0.0961611 0)
(1.01147 0.108972 0)
(1.01058 0.122357 0)
(1.08261 -0.047574 0)
(1.06952 -0.0365144 0)
(1.05526 -0.0247051 0)
(1.03826 -0.01396 0)
(1.02243 -0.00416139 0)
(1.00825 0.00485929 0)
(0.995449 0.0130985 0)
(0.984124 0.0206507 0)
(0.974464 0.0276959 0)
(0.966564 0.0344576 0)
(0.960453 0.041196 0)
(0.95611 0.0481981 0)
(0.953449 0.0557551 0)
(0.952311 0.0641361 0)
(0.952468 0.0735558 0)
(0.953626 0.0841406 0)
(0.955441 0.0958978 0)
(0.957543 0.108692 0)
(0.959556 0.122233 0)
(0.996036 -0.0310936 0)
(0.984693 -0.0211097 0)
(0.970775 -0.0105635 0)
(0.953589 -0.00124124 0)
(0.938149 0.00714974 0)
(0.924782 0.0147136 0)
(0.91308 0.0214464 0)
(0.903146 0.0274917 0)
(0.895136 0.0330657 0)
(0.889106 0.0384205 0)
(0.885059 0.0438474 0)
(0.882953 0.0496644 0)
(0.882684 0.0561928 0)
(0.884081 0.0637285 0)
(0.886902 0.0725064 0)
(0.890843 0.0826637 0)
(0.895551 0.094207 0)
(0.900645 0.106987 0)
(0.905739 0.12069 0)
(0.897819 -0.0154764 0)
(0.889715 -0.00642566 0)
(0.877017 0.00269461 0)
(0.860714 0.0104284 0)
(0.846769 0.0172589 0)
(0.835196 0.023222 0)
(0.825473 0.0283484 0)
(0.817692 0.0328322 0)
(0.811965 0.0369133 0)
(0.808318 0.040862 0)
(0.806741 0.0449916 0)
(0.807187 0.049645 0)
(0.809553 0.0551687 0)
(0.813668 0.0618825 0)
(0.819295 0.0700394 0)
(0.826131 0.0797864 0)
(0.833825 0.0911292 0)
(0.841996 0.103906 0)
(0.850253 0.117778 0)
(0.791034 -0.00183028 0)
(0.787423 0.0066484 0)
(0.776805 0.0142416 0)
(0.762572 0.0203069 0)
(0.751262 0.025509 0)
(0.742423 0.029837 0)
(0.73545 0.0333815 0)
(0.730423 0.0363675 0)
(0.727427 0.0390365 0)
(0.726482 0.041664 0)
(0.727593 0.0445775 0)
(0.730732 0.0481403 0)
(0.735814 0.0527215 0)
(0.742688 0.0586644 0)
(0.751133 0.0662401 0)
(0.760862 0.0756054 0)
(0.771534 0.0867666 0)
(0.782773 0.0995509 0)
(0.794192 0.113599 0)
(0.678974 0.00927471 0)
(0.680859 0.0174652 0)
(0.673258 0.0233447 0)
(0.662434 0.0277221 0)
(0.654842 0.0313424 0)
(0.649511 0.0341495 0)
(0.645831 0.0362819 0)
(0.643909 0.0379503 0)
(0.643844 0.0393749 0)
(0.645694 0.0408269 0)
(0.649511 0.0426457 0)
(0.655306 0.0452149 0)
(0.663035 0.0489278 0)
(0.67258 0.054154 0)
(0.683747 0.0611845 0)
(0.696273 0.0701895 0)
(0.709834 0.0811796 0)
(0.724063 0.0939749 0)
(0.738575 0.108199 0)
(0.564996 0.0172305 0)
(0.57287 0.0251636 0)
(0.569702 0.0288675 0)
(0.563767 0.031702 0)
(0.560757 0.0340676 0)
(0.559385 0.0357291 0)
(0.559204 0.0368102 0)
(0.560421 0.0374648 0)
(0.563215 0.0378859 0)
(0.567726 0.0383436 0)
(0.574078 0.0391964 0)
(0.582342 0.0408564 0)
(0.592524 0.0437486 0)
(0.60455 0.0482772 0)
(0.618261 0.0547611 0)
(0.633423 0.0633912 0)
(0.649729 0.0741911 0)
(0.66682 0.0869811 0)
(0.684311 0.101375 0)
(0.452726 0.0239604 0)
(0.46665 0.0286208 0)
(0.470037 0.0297678 0)
(0.470433 0.0318484 0)
(0.472348 0.0337406 0)
(0.474841 0.0349108 0)
(0.477907 0.0354442 0)
(0.481936 0.0354492 0)
(0.487236 0.0351284 0)
(0.494053 0.0347725 0)
(0.502599 0.0347782 0)
(0.513012 0.0356 0)
(0.525353 0.0377054 0)
(0.539595 0.0415442 0)
(0.555614 0.0474713 0)
(0.573206 0.0557059 0)
(0.592081 0.0662923 0)
(0.611882 0.0790559 0)
(0.632215 0.0936046 0)
(0.366538 0.0202427 6.48719e-19)
(0.387855 0.0311634 -2.64876e-19)
(0.398625 0.0326599 -9.38567e-19)
(0.404499 0.0346185 5.32064e-19)
(0.409797 0.0358748 3.86175e-19)
(0.414744 0.0363838 4.76868e-20)
(0.419824 0.0362188 4.80705e-19)
(0.425578 0.035477 -7.31719e-19)
(0.432413 0.0344073 3.00215e-19)
(0.440656 0.0333287 -2.82725e-19)
(0.450578 0.0326703 4.25047e-19)
(0.462366 0.0329102 -1.43073e-19)
(0.476123 0.0345339 2.91394e-19)
(0.491856 0.0380031 -1.3883e-19)
(0.509468 0.0436752 -4.06109e-20)
(0.528774 0.051765 3.99844e-20)
(0.549493 0.062309 -2.01057e-19)
(0.571267 0.0751142 3.10782e-19)
(0.309494 0.0122027 -3.41743e-19)
(0.327877 0.0250763 1.43874e-19)
(0.342898 0.028985 -3.0586e-19)
(0.352284 0.0320722 1.1395e-18)
(0.360041 0.0336548 -5.28229e-19)
(0.366882 0.0342121 8.65439e-19)
(0.373574 0.0339319 -5.27101e-19)
(0.380751 0.0329733 -1.92663e-19)
(0.388889 0.0316562 7.05548e-20)
(0.398362 0.0303362 -9.88968e-20)
(0.409488 0.0294755 -1.07855e-19)
(0.42248 0.0295688 -1.78527e-21)
(0.437471 0.0311114 8.91472e-20)
(0.454492 0.0345651 1.75186e-19)
(0.473463 0.0402783 -1.6474e-19)
(0.494215 0.0484528 -7.92948e-20)
(0.516472 0.0591124 1.23068e-19)
(0.539875 0.0720471 7.33288e-20)
(0.257193 0.00259218 2.68031e-18)
(0.272949 0.0180383 -8.24739e-19)
(0.290306 0.0239858 -5.47916e-19)
(0.301964 0.0283218 -7.47281e-19)
(0.311599 0.0304206 4.41498e-19)
(0.320033 0.0311404 4.44993e-19)
(0.328129 0.030847 2.12692e-19)
(0.33658 0.0297605 -9.91087e-19)
(0.345908 0.0282709 7.3137e-19)
(0.356521 0.0267693 -2.15233e-19)
(0.36877 0.0257568 1.28733e-19)
(0.382891 0.0257432 9.33969e-22)
(0.399041 0.0272339 -3.34469e-19)
(0.41727 0.0306941 1.21946e-19)
(0.437514 0.0364654 6.14746e-20)
(0.459623 0.0447351 2.76252e-19)
(0.483332 0.0555156 -7.65751e-20)
(0.508282 0.0685807 -1.8765e-19)
(0.211053 -0.00330011 -1.4181e-18)
(0.223802 0.0128744 4.66905e-19)
(0.241868 0.0195388 6.64275e-19)
(0.254634 0.0245474 -2.2951e-19)
(0.265445 0.0271836 -1.45564e-19)
(0.275031 0.0280371 -4.13448e-19)
(0.284224 0.0276915 8.25369e-19)
(0.293716 0.0264535 -8.96493e-19)
(0.30405 0.0247726 1.21268e-19)
(0.31565 0.0230576 1.04803e-19)
(0.328892 0.0218571 -1.22738e-19)
(0.344021 0.0216984 -1.23085e-19)
(0.361214 0.0230894 3.19349e-19)
(0.380536 0.0265043 -1.77023e-19)
(0.40194 0.0322793 1.49856e-19)
(0.425293 0.0405985 -4.60013e-20)
(0.450341 0.0514613 1.30631e-19)
(0.476733 0.0646287 -1.54502e-19)
(0.170265 -0.00817125 1.75073e-19)
(0.180032 0.0080874 7.20369e-19)
(0.197564 0.0151875 -1.9939e-19)
(0.210567 0.0203357 -6.52588e-19)
(0.221955 0.0233647 3.46481e-19)
(0.232207 0.0244094 -8.23366e-20)
(0.242167 0.0240212 3.26731e-19)
(0.252454 0.0226186 2.10905e-20)
(0.263596 0.0207385 -1.19846e-19)
(0.276017 0.0188184 -5.51282e-19)
(0.290109 0.0174346 -2.0815e-21)
(0.306114 0.0171348 3.79454e-19)
(0.324225 0.0184387 -4.62785e-20)
(0.344516 0.0218098 -7.65168e-20)
(0.366956 0.0275619 1.71221e-19)
(0.39143 0.0359039 -6.31888e-20)
(0.417698 0.0468301 4.94292e-20)
(0.445418 0.0600855 -1.13784e-19)
(0.134108 -0.0120209 -4.14573e-19)
(0.141261 0.00356559 3.83609e-19)
(0.157339 0.0111372 -2.45889e-19)
(0.169776 0.0163785 4.39576e-19)
(0.181266 0.0193161 -7.83228e-19)
(0.191779 0.0204106 3.79628e-19)
(0.202172 0.0199845 -1.04824e-19)
(0.213002 0.0183933 2.56651e-19)
(0.22476 0.0162523 1.78977e-21)
(0.237843 0.0141356 1.11201e-19)
(0.252641 0.0125721 -1.26198e-20)
(0.269391 0.0121099 -4.86899e-19)
(0.28829 0.0133477 3.59566e-19)
(0.309415 0.0166824 -1.22283e-19)
(0.332757 0.0224177 -3.05708e-20)
(0.358227 0.0307475 7.30163e-21)
(0.385588 0.0417107 -2.79781e-20)
(0.414513 0.0550334 1.87962e-19)
)
;

boundaryField
{
    inlet
    {
        type            uniformFixedValue;
        uniformValue    constant (1 0 0);
        value           nonuniform 0();
    }
    outlet
    {
        type            pressureInletOutletVelocity;
        value           nonuniform 0();
    }
    cylinder
    {
        type            fixedValue;
        value           nonuniform 0();
    }
    top
    {
        type            symmetryPlane;
    }
    bottom
    {
        type            symmetryPlane;
    }
    defaultFaces
    {
        type            empty;
    }
    procBoundary10to3
    {
        type            processor;
        value           nonuniform List<vector> 
13
(
(1.27889 -0.113447 1.43818e-18)
(1.28964 -0.117017 -1.38604e-19)
(1.29757 -0.119009 -1.49593e-19)
(1.301 -0.118837 -4.63161e-19)
(1.29785 -0.115912 4.00617e-19)
(1.28575 -0.109749 -3.08955e-19)
(1.26226 -0.100106 1.53075e-18)
(1.2253 -0.087108 -1.0161e-18)
(1.17347 -0.0713214 -1.69531e-18)
(1.10641 -0.0537346 3.20426e-18)
(1.02494 -0.0356564 -5.84473e-19)
(0.931055 -0.0185667 -2.93539e-18)
(0.827603 -0.00389293 1.92729e-18)
)
;
    }
    procBoundary10to4
    {
        type            processor;
        value           nonuniform List<vector> 
20
(
(1.24313 0.0512024 0)
(1.23555 0.0611427 0)
(1.22682 0.0708798 0)
(1.27299 -0.102682 0)
(1.2757 -0.093599 0)
(1.27759 -0.0844608 0)
(1.27937 -0.0751466 0)
(1.28075 -0.065663 0)
(1.28148 -0.0560402 0)
(1.28158 -0.0462983 0)
(1.28106 -0.0364484 0)
(1.27995 -0.0264969 0)
(1.27823 -0.0164466 0)
(1.27587 -0.00629557 0)
(1.27287 0.00396137 0)
(1.26917 0.0143264 0)
(1.26473 0.0247975 0)
(1.25949 0.0353616 0)
(1.25336 0.0459881 0)
(1.25336 0.0459881 0)
)
;
    }
    procBoundary10to9
    {
        type            processor;
        value           nonuniform List<vector> 
12
(
(0.393706 -0.00580608 2.45422e-18)
(0.282612 0.00240127 -6.54212e-18)
(0.282612 0.00240127 -6.54212e-18)
(0.189454 0.00536129 -2.36396e-18)
(0.21274 0.00662391 1.27934e-18)
(0.21274 0.00662391 1.27934e-18)
(0.137294 0.00313595 2.78102e-18)
(0.137294 0.00313595 2.78102e-18)
(0.0957474 -0.000345051 -1.36369e-20)
(0.717787 0.00693618 8.37587e-19)
(0.604724 0.0125333 -4.48251e-19)
(0.487468 0.0101621 8.67486e-19)
)
;
    }
    procBoundary10to11
    {
        type            processor;
        value           nonuniform List<vector> 
19
(
(1.21816 0.0875227 0)
(1.21591 0.0948828 0)
(1.20932 0.102213 0)
(1.19769 0.109334 0)
(1.18049 0.116038 0)
(1.15738 0.122101 0)
(1.12834 0.127302 0)
(1.09359 0.131439 0)
(1.05363 0.13435 0)
(1.00918 0.135919 0)
(0.961129 0.136087 0)
(0.910471 0.134845 0)
(0.858229 0.132243 0)
(0.805417 0.128378 0)
(0.752989 0.123294 0)
(0.70181 0.116791 0)
(0.652671 0.109339 0)
(0.593687 0.0897674 2.70464e-19)
(0.593687 0.0897674 2.70464e-19)
)
;
    }
    procBoundary10to16
    {
        type            processor;
        value           nonuniform List<vector> 
25
(
(0.0860215 -0.00163368 5.17331e-19)
(0.0860215 -0.00163368 5.17331e-19)
(0.0758808 -0.00369856 2.3064e-18)
(0.0879715 -0.00345946 -2.08177e-18)
(0.0879715 -0.00345946 -2.08177e-18)
(0.0753852 -0.00753884 -1.24012e-18)
(0.0859185 -0.0104092 3.48467e-18)
(0.102044 -0.0147437 9.65849e-20)
(0.106912 -0.000386067 -9.36763e-19)
(0.12108 0.00722486 1.16201e-20)
(0.132305 0.0126711 -4.91981e-20)
(0.143406 0.0154612 3.22762e-19)
(0.153889 0.0162799 -4.95898e-19)
(0.16444 0.0157015 -1.06258e-19)
(0.17556 0.0140027 2.81443e-19)
(0.187752 0.0116908 3.29519e-21)
(0.201349 0.00934102 1.38309e-19)
(0.216702 0.00755366 -2.59705e-20)
(0.234066 0.0068822 -2.09403e-19)
(0.253629 0.00793974 2.56463e-19)
(0.275453 0.0110894 -6.64524e-22)
(0.299557 0.0168422 -2.66631e-20)
(0.325883 0.0251548 2.19677e-20)
(0.354208 0.0361254 -8.76334e-20)
(0.384207 0.0494931 3.95772e-20)
)
;
    }
    procBoundary10to17
    {
        type            processor;
        value           nonuniform List<vector> 5((0.564008 0.0868286 1.4045e-19) (0.534053 0.0834895 -8.93464e-20) (0.50405 0.0796499 -5.58905e-20) (0.474176 0.0752134 -9.74976e-20) (0.444597 0.0702539 2.10504e-19));
    }
}


// ************************************************************************* //
