/*--------------------------------*- C++ -*----------------------------------*\
  =========                 |
  \\      /  F ield         | OpenFOAM: The Open Source CFD Toolbox
   \\    /   O peration     | Website:  https://openfoam.org
    \\  /    A nd           | Version:  7
     \\/     M anipulation  |
\*---------------------------------------------------------------------------*/
FoamFile
{
    version     2.0;
    format      ascii;
    class       volScalarField;
    location    "2";
    object      p;
}
// * * * * * * * * * * * * * * * * * * * * * * * * * * * * * * * * * * * * * //

dimensions      [0 2 -2 0 0 0 0];

internalField   nonuniform List<scalar> 
350
(
0.0963792
0.0899647
0.0834895
0.0769627
0.070392
0.0637842
0.057145
0.0504796
0.0437922
0.0370866
0.0303661
0.023633
0.0168914
0.010138
0.00339263
0.169144
0.167679
0.166421
0.165383
0.164576
0.164008
0.163686
0.163614
0.163792
0.164217
0.164882
0.165778
0.16689
0.1682
0.169687
0.171325
0.173085
0.174935
0.176839
0.178758
0.180655
0.182486
0.18421
0.185785
0.187171
0.188327
0.189219
0.189811
0.190075
0.189986
0.189523
0.188673
0.187424
0.185773
0.183721
0.181273
0.17844
0.175233
0.171672
0.167773
0.16356
0.159053
0.154276
0.149252
0.144005
0.138555
0.132925
0.127134
0.121201
0.115144
0.108977
0.102716
0.0963727
0.0899587
0.0834842
0.076958
0.0703879
0.0637806
0.0571419
0.050477
0.04379
0.0370848
0.0303646
0.0236319
0.0168905
0.0101377
0.00339208
0.169265
0.167816
0.166574
0.165551
0.164761
0.16421
0.163905
0.16385
0.164044
0.164484
0.165164
0.166073
0.167197
0.168518
0.170014
0.171658
0.173423
0.175274
0.177177
0.179094
0.180985
0.182808
0.184522
0.186085
0.187456
0.188597
0.189471
0.190045
0.190291
0.190182
0.189701
0.188831
0.187565
0.185897
0.183828
0.181366
0.178518
0.1753
0.171727
0.167819
0.163597
0.159083
0.1543
0.149271
0.14402
0.138567
0.132934
0.127141
0.121206
0.115147
0.10898
0.102717
0.0963735
0.0899591
0.0834843
0.076958
0.0703877
0.0637803
0.0571416
0.0504766
0.0437897
0.0370845
0.0303644
0.0236318
0.0168903
0.0101378
0.00339172
0.169362
0.167926
0.166698
0.165691
0.164915
0.164381
0.164092
0.164053
0.164264
0.16472
0.165416
0.16634
0.167478
0.168812
0.170319
0.171973
0.173746
0.175603
0.17751
0.179429
0.181319
0.183139
0.184847
0.186403
0.187764
0.188894
0.189755
0.190314
0.190544
0.190419
0.18992
0.189033
0.187749
0.186064
0.183979
0.1815
0.178638
0.175405
0.171819
0.167899
0.163667
0.159143
0.154352
0.149315
0.144057
0.138598
0.13296
0.127163
0.121225
0.115163
0.108992
0.102728
0.0963822
0.0899663
0.0834902
0.0769628
0.0703917
0.0637835
0.0571443
0.0504788
0.0437914
0.0370859
0.0303655
0.0236327
0.016891
0.0101387
0.00339166
0.169437
0.168013
0.166797
0.165804
0.165044
0.164525
0.164254
0.164232
0.164461
0.164935
0.165649
0.166591
0.167747
0.169097
0.17062
0.172289
0.174075
0.175944
0.17786
0.179786
0.181681
0.183504
0.185213
0.186766
0.188123
0.189245
0.190097
0.190645
0.190861
0.190721
0.190206
0.189302
0.188
0.186296
0.184193
0.181696
0.178816
0.175566
0.171964
0.168029
0.163781
0.159244
0.154441
0.149393
0.144124
0.138657
0.133011
0.127206
0.121262
0.115194
0.109019
0.102751
0.0964013
0.0899824
0.0835037
0.076974
0.070401
0.0637914
0.0571507
0.0504841
0.0437958
0.0370895
0.0303684
0.023635
0.0168927
0.0101403
0.00339222
0.16949
0.168076
0.166873
0.165894
0.165149
0.164647
0.164393
0.164391
0.164639
0.165134
0.165869
0.166833
0.16801
0.169382
0.170926
0.172615
0.174419
0.176305
0.178238
0.180177
0.182084
0.183915
0.18563
0.187186
0.188544
0.189663
0.190509
0.191049
0.191254
0.191101
0.19057
0.189648
0.188327
0.186604
0.18448
0.181962
0.17906
0.17579
0.172167
0.168212
0.163946
0.159391
0.154571
0.149508
0.144225
0.138745
0.133087
0.127272
0.121319
0.115243
0.109061
0.102786
0.0964317
0.090008
0.0835253
0.0769922
0.0704163
0.0638041
0.0571613
0.0504929
0.0438031
0.0370954
0.0303732
0.0236389
0.0168957
0.0101429
0.0033937
)
;

boundaryField
{
    inlet
    {
        type            zeroGradient;
    }
    outlet
    {
        type            fixedValue;
        value           uniform 0;
    }
    wall
    {
        type            zeroGradient;
    }
    wedge1
    {
        type            wedge;
    }
    wedge2
    {
        type            wedge;
    }
    axis
    {
        type            empty;
    }
    procBoundary47to41
    {
        type            processor;
        value           nonuniform List<scalar> 
68
(
0.096393
0.0899768
0.0835001
0.0769719
0.0704
0.063791
0.0571508
0.0504844
0.0437962
0.0370899
0.0303688
0.0236351
0.016893
0.0101389
0.00339334
0.168998
0.167517
0.166242
0.165186
0.16436
0.163775
0.163436
0.163347
0.163508
0.163918
0.16457
0.165453
0.166555
0.167857
0.169338
0.170972
0.172732
0.174583
0.176491
0.178418
0.180325
0.182168
0.183907
0.185499
0.186904
0.18808
0.188993
0.189607
0.189893
0.189825
0.189384
0.188553
0.187323
0.18569
0.183654
0.18122
0.178399
0.175203
0.17165
0.16776
0.163552
0.15905
0.154277
0.149256
0.144011
0.138563
0.132933
0.127143
0.12121
0.115152
0.108985
0.102723
0.102723
)
;
    }
    procBoundary47to46
    {
        type            processor;
        value           nonuniform List<scalar> 5(0.170799 0.170907 0.170992 0.171056 0.1711);
    }
}


// ************************************************************************* //
