/*--------------------------------*- C++ -*----------------------------------*\
  =========                 |
  \\      /  F ield         | OpenFOAM: The Open Source CFD Toolbox
   \\    /   O peration     | Website:  https://openfoam.org
    \\  /    A nd           | Version:  7
     \\/     M anipulation  |
\*---------------------------------------------------------------------------*/
FoamFile
{
    version     2.0;
    format      ascii;
    class       volVectorField;
    location    "2";
    object      U;
}
// * * * * * * * * * * * * * * * * * * * * * * * * * * * * * * * * * * * * * //

dimensions      [0 1 -1 0 0 0 0];

internalField   nonuniform List<vector> 
344
(
(1.06974 -0.0145978 2.94472e-14)
(1.06383 0.00490009 2.58335e-14)
(1.06941 -0.0124645 2.82639e-14)
(1.06431 0.00476213 2.40178e-14)
(1.06988 -0.0108784 2.6565e-14)
(1.0635 0.00447606 2.2098e-14)
(1.07097 -0.00840654 2.47642e-14)
(1.0625 0.002899 2.06718e-14)
(1.07127 -0.00502143 2.2274e-14)
(1.06288 0.000710213 1.86239e-14)
(1.06988 -0.00215889 2.07966e-14)
(1.06479 -0.000555264 1.72207e-14)
(1.06752 -0.00106488 1.91866e-14)
(1.0669 -0.000179436 1.5849e-14)
(1.06575 -0.00172651 1.7444e-14)
(1.06784 0.00136651 1.52138e-14)
(1.06545 -0.00322318 1.67644e-14)
(1.06732 0.00309615 1.52078e-14)
(1.06637 -0.00448211 1.64171e-14)
(1.06606 0.00416132 1.52077e-14)
(1.06757 -0.00486221 1.59841e-14)
(1.06509 0.00426993 1.49477e-14)
(1.06816 -0.00438256 1.52134e-14)
(1.06505 0.00362308 1.48332e-14)
(1.0679 -0.00341636 1.47834e-14)
(1.06577 0.00255861 1.51473e-14)
(1.06716 -0.00241041 1.4212e-14)
(1.06671 0.00159733 1.44692e-14)
(1.06636 -0.00196674 1.28322e-14)
(1.0675 0.00146575 1.36386e-14)
(1.06571 -0.00267896 1.20315e-14)
(1.06399 -0.00149738 1.72815e-14)
(1.06411 -0.00150828 2.58069e-14)
(1.0642 -0.00148015 1.67429e-14)
(1.06437 -0.00135893 2.52437e-14)
(1.06442 -0.00126053 1.81523e-14)
(1.06459 -0.00112544 2.45503e-14)
(1.06452 -0.00118586 1.98306e-14)
(1.06473 -0.00114878 2.38322e-14)
(1.06453 -0.00141719 2.06731e-14)
(1.06496 -0.0012408 2.3082e-14)
(1.06456 -0.00160138 2.26862e-14)
(1.06537 -0.000954109 2.19245e-14)
(1.0645 -0.00161304 2.34259e-14)
(1.06586 -0.000332729 2.08595e-14)
(1.06415 -0.00195971 2.52584e-14)
(1.06644 0.000285197 2.01499e-14)
(1.06349 -0.00314766 2.47336e-14)
(1.06725 0.00105812 1.9955e-14)
(1.06268 -0.00511399 2.58023e-14)
(1.06841 0.00270157 2.17848e-14)
(1.06189 -0.00755527 2.70903e-14)
(1.06965 0.00569515 2.24013e-14)
(1.06128 -0.0104886 2.74969e-14)
(1.07042 0.00963736 2.30071e-14)
(1.06118 -0.0141084 2.8659e-14)
(1.0701 0.0133549 2.37258e-14)
(1.06209 -0.018069 2.95094e-14)
(1.06838 0.0154963 2.29155e-14)
(1.06429 -0.0211485 2.91579e-14)
(1.06562 0.0151663 2.38181e-14)
(1.06733 -0.0219137 2.93872e-14)
(1.06285 0.0124258 2.63639e-14)
(1.07007 -0.0199457 2.9914e-14)
(1.06133 0.00846447 2.85568e-14)
(1.07139 -0.0163917 3.04309e-14)
(1.06152 0.00508276 2.85181e-14)
(1.0712 -0.0130887 3.0859e-14)
(1.06262 0.00348265 2.83283e-14)
(1.07054 -0.0109377 3.0609e-14)
(1.06319 0.00328564 2.68897e-14)
(1.07051 -0.00925693 2.97487e-14)
(1.06273 0.00301301 2.50225e-14)
(1.07096 -0.00693747 2.88188e-14)
(1.06217 0.00174376 2.35879e-14)
(1.07074 -0.00400454 2.6956e-14)
(1.06276 4.1363e-05 2.11969e-14)
(1.06922 -0.00161717 2.55485e-14)
(1.06448 -0.000875347 2.01807e-14)
(1.0671 -0.000742126 2.41419e-14)
(1.06617 -0.000449245 1.88945e-14)
(1.06566 -0.00133214 2.27104e-14)
(1.06676 0.000915457 1.81124e-14)
(1.06554 -0.00259104 2.2359e-14)
(1.06613 0.0023699 1.80729e-14)
(1.06638 -0.00359006 2.23547e-14)
(1.065 0.00319767 1.78669e-14)
(1.0673 -0.00380583 2.1803e-14)
(1.06427 0.00319511 1.77192e-14)
(1.06761 -0.00330878 2.0952e-14)
(1.06438 0.00258029 1.77727e-14)
(1.06719 -0.00244943 2.03535e-14)
(1.06513 0.00166413 1.8243e-14)
(1.0664 -0.00161987 1.93797e-14)
(1.06602 0.000897766 1.79735e-14)
(1.06562 -0.00133112 1.78214e-14)
(1.06668 0.000872996 1.73728e-14)
(1.0651 -0.00203289 1.66223e-14)
(1.06517 -0.00150116 1.68443e-14)
(1.06528 -0.0015175 1.86899e-14)
(1.06537 -0.00149445 1.8273e-14)
(1.06553 -0.00137426 1.94036e-14)
(1.06559 -0.00127002 1.99716e-14)
(1.06574 -0.00112721 1.92706e-14)
(1.06569 -0.00117814 2.11171e-14)
(1.06588 -0.00114194 2.00135e-14)
(1.06569 -0.00140861 2.21221e-14)
(1.06608 -0.00124875 1.99703e-14)
(1.06572 -0.00160065 2.32734e-14)
(1.06644 -0.000978868 2.04767e-14)
(1.06568 -0.00159453 2.37458e-14)
(1.06689 -0.000364237 2.04699e-14)
(1.06539 -0.00188994 2.43948e-14)
(1.06737 0.000223686 2.02289e-14)
(1.06482 -0.0030055 2.33046e-14)
(1.06803 0.000897864 1.96871e-14)
(1.06415 -0.00486073 2.36999e-14)
(1.06895 0.00235313 2.13257e-14)
(1.06357 -0.00709593 2.43951e-14)
(1.06988 0.00506347 2.19385e-14)
(1.06321 -0.00968008 2.43782e-14)
(1.07031 0.00862205 2.25169e-14)
(1.06337 -0.0128193 2.47931e-14)
(1.06968 0.0118797 2.36077e-14)
(1.06443 -0.0162631 2.48489e-14)
(1.0678 0.0135838 2.45048e-14)
(1.06657 -0.0189556 2.55168e-14)
(1.06506 0.0130046 2.51742e-14)
(1.06931 -0.0196295 2.60681e-14)
(1.06246 0.0103261 2.65013e-14)
(1.07163 -0.0178954 2.84001e-14)
(1.06105 0.00669009 2.76153e-14)
(1.07258 -0.0147235 2.94782e-14)
(1.0612 0.00366516 2.87147e-14)
(1.07216 -0.0116751 3.10114e-14)
(1.06214 0.00222623 2.96391e-14)
(1.0713 -0.00953917 3.11302e-14)
(1.06267 0.0020073 2.98025e-14)
(1.07093 -0.00781431 3.10902e-14)
(1.0624 0.0017761 2.92819e-14)
(1.0709 -0.00566239 3.00839e-14)
(1.06213 0.000793415 2.89886e-14)
(1.0703 -0.00314127 2.89245e-14)
(1.06281 -0.000486324 2.78501e-14)
(1.06871 -0.00116632 2.67859e-14)
(1.06434 -0.00111441 2.6897e-14)
(1.0668 -0.000470654 2.61285e-14)
(1.06569 -0.000662512 2.64509e-14)
(1.06561 -0.000985804 2.51368e-14)
(1.06601 0.000532409 2.55943e-14)
(1.06561 -0.00203744 2.52472e-14)
(1.06532 0.00175479 2.63313e-14)
(1.06637 -0.00282918 2.56182e-14)
(1.0643 0.00239628 2.57422e-14)
(1.06709 -0.00292465 2.55302e-14)
(1.06376 0.00231598 2.56814e-14)
(1.06718 -0.0024336 2.5205e-14)
(1.06401 0.00175331 2.49962e-14)
(1.06662 -0.00169615 2.53289e-14)
(1.0648 0.000995513 2.54349e-14)
(1.06578 -0.00104244 2.50265e-14)
(1.06564 0.000406828 2.43652e-14)
(1.06505 -0.000878036 2.41167e-14)
(1.06615 0.000450332 2.36659e-14)
(1.0647 -0.00153245 2.33335e-14)
(1.06644 -0.00150327 1.78543e-14)
(1.06654 -0.00152501 2.60323e-14)
(1.06663 -0.00150734 1.81659e-14)
(1.06678 -0.00138907 2.53806e-14)
(1.06684 -0.00127914 1.97247e-14)
(1.06699 -0.00112909 2.46031e-14)
(1.06694 -0.00116925 2.08258e-14)
(1.06711 -0.00113418 2.37691e-14)
(1.06694 -0.00139685 2.19273e-14)
(1.06728 -0.00125553 2.29067e-14)
(1.06697 -0.00159587 2.32687e-14)
(1.06761 -0.00100464 2.19744e-14)
(1.06695 -0.00157169 2.42049e-14)
(1.06801 -0.000399755 2.10919e-14)
(1.0667 -0.00181363 2.53032e-14)
(1.06841 0.000156465 1.99196e-14)
(1.06622 -0.00285203 2.48804e-14)
(1.06894 0.000731845 1.97528e-14)
(1.06567 -0.00459182 2.56304e-14)
(1.06965 0.00200076 2.16744e-14)
(1.06523 -0.00662244 2.66012e-14)
(1.07033 0.00443516 2.28666e-14)
(1.06507 -0.00887058 2.70805e-14)
(1.0705 0.00762982 2.41603e-14)
(1.06539 -0.0115581 2.76857e-14)
(1.06968 0.0104652 2.57356e-14)
(1.06649 -0.0145293 2.83149e-14)
(1.06777 0.011785 2.61931e-14)
(1.06847 -0.0168819 2.74364e-14)
(1.06518 0.0110047 2.71635e-14)
(1.07086 -0.0174893 2.71419e-14)
(1.06279 0.00840878 2.84145e-14)
(1.07275 -0.0159761 2.79204e-14)
(1.0615 0.00508123 2.95987e-14)
(1.07337 -0.0131486 2.80058e-14)
(1.06154 0.00238575 2.89271e-14)
(1.07278 -0.0103361 2.82782e-14)
(1.06223 0.00110825 2.84683e-14)
(1.07181 -0.00824474 2.81629e-14)
(1.06261 0.000903944 2.7427e-14)
(1.0712 -0.00652874 2.69954e-14)
(1.0624 0.000745017 2.58953e-14)
(1.07082 -0.00456347 2.6114e-14)
(1.06229 3.07638e-05 2.44112e-14)
(1.06996 -0.00241642 2.42384e-14)
(1.06299 -0.000888945 2.22478e-14)
(1.06836 -0.000798042 2.29834e-14)
(1.06431 -0.00127585 2.099e-14)
(1.06663 -0.000256918 2.15649e-14)
(1.06538 -0.000806491 1.96299e-14)
(1.06564 -0.000707903 2.01128e-14)
(1.06552 0.000235497 1.90378e-14)
(1.0657 -0.0015774 1.95619e-14)
(1.0648 0.00125207 1.92448e-14)
(1.06639 -0.0021915 1.95994e-14)
(1.06389 0.00173941 1.90122e-14)
(1.06694 -0.00220028 1.9018e-14)
(1.06351 0.00161304 1.84639e-14)
(1.06684 -0.00173842 1.86252e-14)
(1.06389 0.00111718 1.80637e-14)
(1.06616 -0.00112489 1.84e-14)
(1.06471 0.000511446 1.80286e-14)
(1.06531 -0.000634532 1.81218e-14)
(1.06547 8.11751e-05 1.74033e-14)
(1.06468 -0.000571482 1.68413e-14)
(1.0658 0.000167031 1.63545e-14)
(1.06452 -0.00116141 1.5712e-14)
(1.06781 -0.00150382 1.71704e-14)
(1.06791 -0.0015307 2.70424e-14)
(1.06799 -0.00151852 1.685e-14)
(1.06813 -0.00140306 2.61739e-14)
(1.0682 -0.00128788 1.838e-14)
(1.06834 -0.00113128 2.53494e-14)
(1.0683 -0.00115967 2.02334e-14)
(1.06845 -0.00112578 2.41944e-14)
(1.0683 -0.00138218 2.11911e-14)
(1.0686 -0.00126067 2.30428e-14)
(1.06832 -0.0015869 2.31173e-14)
(1.06889 -0.00103034 2.17282e-14)
(1.06831 -0.00154508 2.3934e-14)
(1.06924 -0.000438168 2.07976e-14)
(1.06811 -0.00173305 2.55523e-14)
(1.06957 8.53403e-05 2.00842e-14)
(1.0677 -0.00269132 2.46694e-14)
(1.06998 0.000564565 1.99455e-14)
(1.06724 -0.00431337 2.48697e-14)
(1.07052 0.00165342 2.18917e-14)
(1.06692 -0.00614447 2.54118e-14)
(1.07098 0.00382374 2.33451e-14)
(1.06687 -0.00807557 2.55478e-14)
(1.07096 0.00667786 2.51278e-14)
(1.06729 -0.0103471 2.59863e-14)
(1.07005 0.00913067 2.68327e-14)
(1.06838 -0.0128928 2.64073e-14)
(1.06821 0.0101174 2.64611e-14)
(1.07016 -0.0149496 2.55054e-14)
(1.06582 0.00918133 2.68637e-14)
(1.07218 -0.0155077 2.5183e-14)
(1.06366 0.00668299 2.80459e-14)
(1.07364 -0.0141947 2.56578e-14)
(1.06244 0.00364429 2.85035e-14)
(1.07396 -0.0116684 2.63884e-14)
(1.06233 0.00124569 2.75174e-14)
(1.07323 -0.00906694 2.72381e-14)
(1.06272 0.000122635 2.68245e-14)
(1.07218 -0.00703723 2.79586e-14)
(1.06286 -4.57156e-05 2.54989e-14)
(1.0714 -0.0053694 2.74993e-14)
(1.06262 -0.000113077 2.37188e-14)
(1.07077 -0.00360705 2.73379e-14)
(1.06256 -0.000576205 2.18492e-14)
(1.06974 -0.00180911 2.62488e-14)
(1.06322 -0.00117851 1.93555e-14)
(1.06815 -0.000511117 2.47445e-14)
(1.06435 -0.00135714 1.81986e-14)
(1.06657 -0.000109795 2.32955e-14)
(1.0652 -0.000874286 1.6873e-14)
(1.06572 -0.00050753 2.17381e-14)
(1.06521 3.09918e-05 1.63879e-14)
(1.06581 -0.00121758 2.0999e-14)
(1.06449 0.000863485 1.67861e-14)
(1.06641 -0.00167603 2.07741e-14)
(1.06369 0.00121697 1.681e-14)
(1.06681 -0.00161649 1.96607e-14)
(1.06345 0.00106165 1.6591e-14)
(1.06656 -0.00119643 1.87782e-14)
(1.06393 0.000642119 1.65888e-14)
(1.0658 -0.000708372 1.82252e-14)
(1.06475 0.000181967 1.7044e-14)
(1.06498 -0.00036687 1.73704e-14)
(1.0654 -0.000111603 1.67862e-14)
(1.06449 -0.000384941 1.56155e-14)
(1.06555 -6.33939e-07 1.60094e-14)
(1.06451 -0.000902881 1.39979e-14)
(1.0693 -0.00150314 1.38606e-14)
(1.06939 -0.00153448 2.2096e-14)
(1.06947 -0.00152759 1.33212e-14)
(1.0696 -0.00141572 2.14981e-14)
(1.06966 -0.00129598 1.44985e-14)
(1.0698 -0.0011339 2.08646e-14)
(1.06977 -0.00114998 1.61962e-14)
(1.06991 -0.00111724 1.98528e-14)
(1.06977 -0.00136504 1.7118e-14)
(1.07003 -0.00126374 1.89903e-14)
(1.06978 -0.00157344 1.86881e-14)
(1.07028 -0.00105472 1.79772e-14)
(1.06977 -0.00151492 1.95299e-14)
(1.07058 -0.0004785 1.73774e-14)
(1.06961 -0.00165028 2.10141e-14)
(1.07087 1.14148e-05 1.70061e-14)
(1.06927 -0.00252707 2.03128e-14)
(1.07118 0.000399368 1.68987e-14)
(1.06889 -0.00403012 2.0377e-14)
(1.07156 0.00131827 1.88237e-14)
(1.06865 -0.00566889 2.09044e-14)
(1.07184 0.00323978 2.03691e-14)
(1.06868 -0.00730604 2.09603e-14)
(1.07167 0.00577793 2.20526e-14)
(1.06913 -0.0092015 2.14142e-14)
(1.07074 0.00788704 2.35405e-14)
(1.07017 -0.0113703 2.18623e-14)
(1.06902 0.00858944 2.27623e-14)
(1.07174 -0.0131706 2.08887e-14)
(1.06686 0.00753915 2.25001e-14)
(1.0734 -0.0136902 2.04849e-14)
(1.06491 0.00515178 2.30466e-14)
(1.07447 -0.0125505 2.07572e-14)
(1.06372 0.00238234 2.32485e-14)
(1.07448 -0.0102819 2.13579e-14)
(1.06339 0.000250631 2.21583e-14)
(1.07361 -0.00786653 2.23392e-14)
(1.06344 -0.00073275 2.1683e-14)
(1.07249 -0.005911 2.32476e-14)
(1.0633 -0.000853028 2.06688e-14)
(1.07159 -0.00432079 2.3309e-14)
(1.06295 -0.000819517 1.95732e-14)
(1.07077 -0.00276976 2.35366e-14)
(1.06287 -0.00105126 1.83802e-14)
(1.06961 -0.00129905 2.29143e-14)
)
;

boundaryField
{
    inlet
    {
        type            uniformFixedValue;
        uniformValue    constant (1 0 0);
        value           nonuniform 0();
    }
    outlet
    {
        type            pressureInletOutletVelocity;
        value           nonuniform 0();
    }
    wall
    {
        type            fixedValue;
        value           nonuniform 0();
    }
    wedge1
    {
        type            wedge;
    }
    wedge2
    {
        type            wedge;
    }
    axis
    {
        type            empty;
    }
    procBoundary25to19
    {
        type            processor;
        value           nonuniform List<vector> 
68
(
(1.06774 -0.0161968 2.66481e-14)
(1.06578 0.0064648 2.29295e-14)
(1.0679 -0.0141165 2.68405e-14)
(1.066 0.00643842 2.19945e-14)
(1.06901 -0.0126979 2.64824e-14)
(1.06469 0.00619866 2.04672e-14)
(1.07089 -0.0101167 2.59693e-14)
(1.06313 0.00431086 1.95269e-14)
(1.07181 -0.0062374 2.49816e-14)
(1.06323 0.00155527 1.7647e-14)
(1.0706 -0.00280313 2.35414e-14)
(1.06533 -0.000158853 1.73958e-14)
(1.06799 -0.00141804 2.27266e-14)
(1.06792 0.000124006 1.70429e-14)
(1.0658 -0.00215234 2.14982e-14)
(1.06932 0.00188293 1.68823e-14)
(1.06524 -0.00393541 2.12092e-14)
(1.06898 0.00394347 1.72369e-14)
(1.06626 -0.00551074 2.12739e-14)
(1.06753 0.00530132 1.75693e-14)
(1.06786 -0.00610843 2.10272e-14)
(1.0662 0.00556642 1.78607e-14)
(1.06883 -0.00567774 2.04131e-14)
(1.06597 0.00490078 1.80212e-14)
(1.06872 -0.00459416 1.99301e-14)
(1.06671 0.00366342 1.88602e-14)
(1.06801 -0.00337823 1.93888e-14)
(1.06772 0.00247212 1.85883e-14)
(1.06721 -0.002748 1.7786e-14)
(1.06864 0.00220367 1.83096e-14)
(1.06644 -0.00345085 1.69276e-14)
(1.06289 -0.00149183 1.56602e-14)
(1.06302 -0.00149745 2.46404e-14)
(1.06312 -0.00146463 1.61983e-14)
(1.06329 -0.00134326 2.39752e-14)
(1.06334 -0.0012507 1.75218e-14)
(1.06351 -0.00112367 2.29059e-14)
(1.06344 -0.00119205 1.85156e-14)
(1.06367 -0.00115459 2.20649e-14)
(1.06345 -0.00142237 1.9622e-14)
(1.06393 -0.00123218 2.09963e-14)
(1.06348 -0.001598 2.09212e-14)
(1.06437 -0.000931353 1.97492e-14)
(1.06339 -0.00162646 2.17976e-14)
(1.06492 -0.000306506 1.84051e-14)
(1.06298 -0.00202052 2.2806e-14)
(1.0656 0.000338596 1.6995e-14)
(1.06221 -0.00327406 2.27326e-14)
(1.06659 0.00120705 1.6952e-14)
(1.06124 -0.00534416 2.41965e-14)
(1.06802 0.0030353 1.85865e-14)
(1.06019 -0.00798772 2.58594e-14)
(1.06965 0.00631272 1.89564e-14)
(1.05923 -0.0112746 2.68068e-14)
(1.07087 0.0106508 1.9331e-14)
(1.05875 -0.0153942 2.8183e-14)
(1.071 0.0148616 1.97816e-14)
(1.05937 -0.0199105 2.93507e-14)
(1.06963 0.0174923 2.00812e-14)
(1.06148 -0.0234245 2.91428e-14)
(1.06701 0.017465 2.1687e-14)
(1.06472 -0.024318 2.93739e-14)
(1.06418 0.0146951 2.41547e-14)
(1.06786 -0.0221188 3.00087e-14)
(1.06253 0.0104073 2.64559e-14)
(1.0696 -0.0181631 2.98971e-14)
(1.0627 0.00665374 2.63804e-14)
(1.0627 0.00665374 2.63804e-14)
)
;
    }
    procBoundary25to24
    {
        type            processor;
        value           nonuniform List<vector> 4((1.06391 -0.00146412 2.55379e-14) (1.06509 -0.00146693 1.88462e-14) (1.06637 -0.00146871 2.58125e-14) (1.06774 -0.0014697 2.6957e-14));
    }
    procBoundary25to26
    {
        type            processor;
        value           nonuniform List<vector> 5((1.06799 0.00258778 1.29716e-14) (1.06692 0.0018698 1.7012e-14) (1.06615 0.00129876 2.23957e-14) (1.06558 0.000867138 1.55345e-14) (1.06516 0.000556081 1.56419e-14));
    }
    procBoundary25to30
    {
        type            processor;
        value           uniform (1.06924 -0.00147038 2.19531e-14);
    }
    procBoundary25to31
    {
        type            processor;
        value           nonuniform List<vector> 
68
(
(1.06345 -0.0013702 1.64695e-14)
(1.06805 -0.000296068 2.18998e-14)
(1.0644 -0.0013624 1.5782e-14)
(1.06659 -3.09006e-05 2.07798e-14)
(1.06508 -0.000862525 1.47371e-14)
(1.06583 -0.000390471 1.95622e-14)
(1.06501 -7.72816e-05 1.4442e-14)
(1.06592 -0.000960303 1.90303e-14)
(1.06432 0.000587828 1.50383e-14)
(1.06644 -0.00127919 1.89434e-14)
(1.06362 0.000820469 1.52743e-14)
(1.0667 -0.00116099 1.79275e-14)
(1.06351 0.000642221 1.52792e-14)
(1.06633 -0.00078265 1.71443e-14)
(1.06406 0.000294042 1.53562e-14)
(1.06553 -0.000408821 1.66547e-14)
(1.06486 -3.63053e-05 1.58757e-14)
(1.06477 -0.000200342 1.58778e-14)
(1.06537 -0.000209546 1.57301e-14)
(1.06444 -0.000288304 1.43976e-14)
(1.06534 -7.83515e-05 1.51553e-14)
(1.06459 -0.000740717 1.28742e-14)
(1.07093 -0.00150176 8.75078e-15)
(1.07101 -0.00153645 1.04706e-14)
(1.07108 -0.00153414 9.639e-15)
(1.0712 -0.00142637 1.06427e-14)
(1.07126 -0.00130304 1.07237e-14)
(1.07139 -0.00113701 1.0908e-14)
(1.07137 -0.00114082 1.17594e-14)
(1.0715 -0.0011092 1.08684e-14)
(1.07138 -0.00134598 1.24535e-14)
(1.07161 -0.00126438 1.08199e-14)
(1.07138 -0.00155501 1.30685e-14)
(1.07181 -0.00107639 1.10352e-14)
(1.07136 -0.00148108 1.36136e-14)
(1.07206 -0.000519888 1.14613e-14)
(1.07124 -0.00156719 1.41587e-14)
(1.0723 -6.49449e-05 1.17022e-14)
(1.07096 -0.00236258 1.33497e-14)
(1.07255 0.00023841 1.14452e-14)
(1.07065 -0.00374547 1.30004e-14)
(1.07279 0.00100089 1.28756e-14)
(1.07045 -0.0051997 1.33966e-14)
(1.0729 0.00269104 1.39422e-14)
(1.0705 -0.00656864 1.32966e-14)
(1.07261 0.00493724 1.50568e-14)
(1.07097 -0.00813111 1.34215e-14)
(1.0717 0.00673867 1.59386e-14)
(1.07195 -0.00997179 1.36366e-14)
(1.07014 0.00720254 1.62664e-14)
(1.07333 -0.011551 1.35117e-14)
(1.06823 0.00607791 1.57514e-14)
(1.07466 -0.0120363 1.38017e-14)
(1.06645 0.0038164 1.53629e-14)
(1.07534 -0.011041 1.45652e-14)
(1.06523 0.00130008 1.51896e-14)
(1.07505 -0.00898781 1.53764e-14)
(1.06464 -0.000592952 1.51711e-14)
(1.07402 -0.00673355 1.63758e-14)
(1.0643 -0.00145478 1.57645e-14)
(1.0728 -0.0048604 1.74682e-14)
(1.06385 -0.00152444 1.58634e-14)
(1.07178 -0.00336923 1.78436e-14)
(1.06333 -0.00138945 1.60176e-14)
(1.07081 -0.00203361 1.81556e-14)
(1.06318 -0.00140884 1.60018e-14)
(1.06345 -0.0013702 1.64695e-14)
(1.06956 -0.00087086 1.77578e-14)
)
;
    }
}


// ************************************************************************* //
