0.18435 	0.464841 	3.15184e-19 	0.67199
0.184675 	0.46566 	-1.32854e-18 	0.671448
0.185666 	0.468159 	-1.35459e-18 	0.670599
0.187323 	0.472338 	-1.14996e-18 	0.670062
0.189157 	0.476962 	-2.64411e-18 	0.669536
0.190148 	0.479462 	-4.12785e-18 	0.668755
0.191288 	0.482335 	-4.89132e-18 	0.66831
0.19327 	0.487333 	-5.44245e-18 	0.667957
0.194631 	0.490764 	-5.02884e-18 	0.667682
0.195622 	0.493263 	-5.12132e-18 	0.666973
0.197235 	0.49733 	-6.50035e-18 	0.666654
