/*--------------------------------*- C++ -*----------------------------------*\
  =========                 |
  \\      /  F ield         | OpenFOAM: The Open Source CFD Toolbox
   \\    /   O peration     | Website:  https://openfoam.org
    \\  /    A nd           | Version:  7
     \\/     M anipulation  |
\*---------------------------------------------------------------------------*/
FoamFile
{
    version     2.0;
    format      ascii;
    class       surfaceScalarField;
    location    "70.999922";
    object      phi;
}
// * * * * * * * * * * * * * * * * * * * * * * * * * * * * * * * * * * * * * //

dimensions      [0 3 -1 0 0 0 0];

internalField   nonuniform List<scalar> 
11411
(
-3.80653e-06
7.63786e-08
-1.43156e-05
1.66711e-07
-3.12011e-05
2.02196e-07
-5.41167e-05
1.82495e-07
-8.27022e-05
1.09845e-07
-0.000116607
-1.22246e-08
-0.000155512
-1.80689e-07
-0.000199144
-3.95247e-07
-0.000247293
-6.60493e-07
-9.87522e-07
-4.01384e-05
7.77806e-09
-0.000138827
1.42482e-08
-0.000279489
1.47744e-08
-0.000447878
1.19309e-08
-0.000633929
7.84796e-09
-0.000832018
3.60398e-09
-0.00103994
-6.74259e-10
-0.00125748
-5.29067e-09
-0.00148527
-1.05254e-08
-0.00172428
-1.64946e-08
-2.3206e-08
-4.01385e-05
4.01463e-05
-0.000138827
9.87029e-05
-0.00027949
0.000140677
-0.000447879
0.000168401
-0.000633931
0.00018606
-0.00083202
0.000198093
-0.00103994
0.000207922
-0.00125748
0.000217532
-0.00148528
0.000227788
-0.00172428
0.000238989
-0.00197556
0.000251253
-0.00224025
0.000264664
-0.0025196
0.000279309
-0.00281492
0.000295275
-0.00312763
0.000312649
-0.00345923
0.000331533
-0.00381133
0.000352031
-0.0041856
0.000374179
-0.00458359
0.000397897
0.000423458
-0.00500715
-3.9934e-05
8.00803e-05
-0.000138216
0.000196985
-0.000278406
0.000280868
-0.000446333
0.000336328
-0.000631954
0.000371681
-0.000829637
0.000395775
-0.00103716
0.000415446
-0.00125429
0.000434665
-0.00148168
0.000455171
-0.00172026
0.000477567
-0.00197109
0.000502086
-0.00223532
0.0005289
-0.0025142
0.00055818
-0.00280902
0.000590099
-0.00312121
0.000624836
-0.00345226
0.000662588
-0.0038038
0.000703567
-0.00417747
0.00074785
-0.00457485
0.000795281
0.00084639
-0.00499779
-3.95254e-05
0.000119606
-0.000136994
0.000294453
-0.000276239
0.000420113
-0.00044324
0.000503329
-0.000628
0.000556441
-0.00082487
0.000592645
-0.0010316
0.000622172
-0.00124792
0.000650991
-0.00147448
0.000681727
-0.0017122
0.00071529
-0.00196215
0.000752035
-0.00222547
0.000792218
-0.00250338
0.000836097
-0.00279721
0.000883929
-0.00310836
0.000935984
-0.00343833
0.000992558
-0.00378873
0.00105397
-0.00416122
0.00112034
-0.00455739
0.00119145
0.00126805
-0.00497905
-3.89143e-05
0.00015852
-0.000135164
0.000390702
-0.000272992
0.000557941
-0.000438604
0.000668942
-0.000622072
0.000739909
-0.000817722
0.000788295
-0.00102325
0.000827702
-0.00123837
0.000866108
-0.00146368
0.000907041
-0.00170013
0.000951732
-0.00194875
0.00100066
-0.00221069
0.00105416
-0.00248718
0.00111258
-0.00277952
0.00117627
-0.00308911
0.00124558
-0.00341745
0.0013209
-0.00376615
0.00140266
-0.00413685
0.00149104
-0.00453119
0.00158578
0.0016878
-0.00495093
-3.8103e-05
0.000196623
-0.00013273
0.00048533
-0.000268669
0.00069388
-0.000432428
0.000832701
-0.000614172
0.000921653
-0.000808196
0.000982319
-0.00101213
0.00103164
-0.00122564
0.00107962
-0.0014493
0.0011307
-0.00168404
0.00118647
-0.0019309
0.00124752
-0.00219102
0.00131428
-0.0024656
0.00138717
-0.00275596
0.00146663
-0.00306348
0.0015531
-0.00338965
0.00164707
-0.00373607
0.00174908
-0.0041044
0.00185937
-0.00449628
0.00197766
0.00210496
-0.00491344
-3.70944e-05
0.000233718
-0.000129699
0.000577934
-0.000263277
0.000827458
-0.000424718
0.000994141
-0.000604305
0.00110124
-0.000796297
0.00117431
-0.000998247
0.00123359
-0.00120975
0.00129112
-0.00143135
0.00135231
-0.00166397
0.00141908
-0.00190863
0.00149218
-0.00216646
0.00157211
-0.00243867
0.00165938
-0.00272655
0.00175451
-0.00303149
0.00185804
-0.00335495
0.00197054
-0.00369853
0.00209265
-0.00406389
0.00222473
-0.00445268
0.00236645
0.00251886
-0.00486658
-3.58924e-05
0.00026961
-0.000126078
0.00066812
-0.000256825
0.000958205
-0.000415481
0.0011528
-0.000592478
0.00127824
-0.000782033
0.00136387
-0.000981601
0.00143316
-0.0011907
0.00150021
-0.00140984
0.00157145
-0.00163991
0.00164916
-0.00188194
0.00173421
-0.00213705
0.00182721
-0.00240642
0.00192875
-0.00269134
0.00203943
-0.00299318
0.00215988
-0.0033134
0.00229076
-0.00365357
0.00243282
-0.00401536
0.00258652
-0.00440044
0.00275153
0.00292882
-0.0048104
-3.45015e-05
0.000304111
-0.000121875
0.000755493
-0.000249321
0.00108565
-0.000404726
0.0013082
-0.000578697
0.00145221
-0.00076541
0.00155058
-0.000962206
0.00162995
-0.00116851
0.00170652
-0.00138479
0.00178773
-0.00161191
0.00187628
-0.00185088
0.00197318
-0.00210281
0.00207914
-0.00236888
0.00219482
-0.00265036
0.00232091
-0.0029486
0.00245812
-0.00326505
0.00260721
-0.00360126
0.00276903
-0.00395889
0.00294416
-0.00433963
0.00313227
0.00333417
-0.00474498
-3.29271e-05
0.000337038
-0.000117101
0.000839668
-0.000240779
0.00120933
-0.000392463
0.00145989
-0.000562972
0.00162272
-0.000746439
0.00173405
-0.000940074
0.00182359
-0.0011432
0.00190964
-0.00135622
0.00200075
-0.00157998
0.00210003
-0.00181547
0.00220868
-0.00206379
0.00232746
-0.0023261
0.00245713
-0.00260366
0.00259847
-0.0028978
0.00275226
-0.00320995
0.00291936
-0.00354164
0.00310072
-0.00389454
0.00329705
-0.00427032
0.00350805
0.00373426
-0.0046704
-3.11755e-05
0.000368214
-0.00011177
0.000920262
-0.000231211
0.00132877
-0.000378704
0.00160738
-0.000545313
0.00178932
-0.000725128
0.00191386
-0.000915218
0.00201368
-0.00111478
0.0021092
-0.00132415
0.00221012
-0.00154415
0.00232003
-0.00177575
0.00244028
-0.00202003
0.00257174
-0.00227813
0.00271524
-0.0025513
0.00287164
-0.00284085
0.00304181
-0.00314818
0.00322669
-0.00347481
0.00342735
-0.00382239
0.00364464
-0.00419261
0.00387826
0.00412843
-0.00458678
-2.9254e-05
0.000397468
-0.000105894
0.000996902
-0.000220636
0.00144351
-0.000363464
0.00175021
-0.000525732
0.00195159
-0.000701491
0.00208962
-0.000887652
0.00219984
-0.00108327
0.00230483
-0.00128862
0.00241547
-0.00150446
0.00253587
-0.00173176
0.00266758
-0.00197157
0.00281155
-0.00222502
0.00296869
-0.00249334
0.00313996
-0.00277781
0.00332628
-0.00307982
0.0035287
-0.00340085
0.00374837
-0.00374255
0.00398633
-0.0041066
0.00424232
0.00451609
-0.00449426
-2.71707e-05
0.000424639
-9.94919e-05
0.00106922
-0.000209071
0.00155309
-0.00034676
0.0018879
-0.000504242
0.00210907
-0.00067554
0.00226092
-0.000857394
0.00238169
-0.0010487
0.00249614
-0.00124964
0.00261641
-0.00146094
0.00274717
-0.00168354
0.00289017
-0.00191847
0.00304647
-0.00216684
0.00321707
-0.00242985
0.00340297
-0.00270877
0.0036052
-0.00300495
0.00382487
-0.00331984
0.00406327
-0.00365511
0.0043216
-0.00401243
0.00459964
0.00489663
-0.00439297
-2.49346e-05
0.000449573
-9.25816e-05
0.00113687
-0.00019654
0.00165705
-0.000328612
0.00201997
-0.000480861
0.00226132
-0.000647292
0.00242735
-0.000824461
0.00255886
-0.0010111
0.00268277
-0.00120726
0.00281257
-0.00141364
0.00295355
-0.00163114
0.00310768
-0.00186079
0.00327612
-0.00210365
0.00345993
-0.00236091
0.00366023
-0.00263381
0.0038781
-0.00292366
0.00411473
-0.00323191
0.00437151
-0.00356018
0.00464987
-0.00391021
0.00494967
0.00526952
-0.0042831
-2.25561e-05
0.000472129
-8.5185e-05
0.0011995
-0.000183068
0.00175493
-0.000309043
0.00214594
-0.000455607
0.00240789
-0.000616762
0.0025885
-0.000788873
0.00273097
-0.000970473
0.00286437
-0.00116151
0.00300361
-0.0013626
0.00315464
-0.00157463
0.00331971
-0.00179859
0.00350007
-0.00203553
0.00369688
-0.00228661
0.0039113
-0.00255303
0.00414452
-0.00283608
0.00439778
-0.00313715
0.00467258
-0.00345789
0.00497061
-0.0038001
0.00529188
0.00563424
-0.00416482
-2.00463e-05
0.000492176
-7.73266e-05
0.00125678
-0.000168684
0.00184629
-0.000288079
0.00226534
-0.0004285
0.00254831
-0.00058397
0.00274397
-0.000750652
0.00289765
-0.000926866
0.00304059
-0.00111242
0.00318916
-0.00130786
0.00335009
-0.00151405
0.00352589
-0.00173194
0.00371796
-0.00196256
0.0039275
-0.00220703
0.00415577
-0.00246654
0.00440403
-0.00274231
0.00467355
-0.00303569
0.00496596
-0.00334834
0.00528326
-0.00368221
0.00562575
0.00599034
-0.00403831
-1.74176e-05
0.000509593
-6.90341e-05
0.0013084
-0.000153423
0.00193068
-0.000265751
0.00237767
-0.000399567
0.00268212
-0.000548937
0.00289335
-0.000709821
0.00305854
-0.000880304
0.00321107
-0.00106003
0.00336889
-0.00124949
0.00353954
-0.00144947
0.00372588
-0.00166092
0.00392941
-0.00188483
0.00415141
-0.00212229
0.00439323
-0.00237445
0.00465619
-0.00264251
0.00494161
-0.00292769
0.00525114
-0.00323166
0.00558723
-0.00355668
0.00595077
0.00633746
-0.0039038
-1.46835e-05
0.000524277
-6.03387e-05
0.00135405
-0.000137323
0.00200766
-0.000242097
0.00248244
-0.000368836
0.00280886
-0.000511689
0.0030362
-0.000666407
0.00321325
-0.00083082
0.00337548
-0.0010044
0.00354247
-0.00118753
0.00372267
-0.00138097
0.00391932
-0.00158561
0.00413405
-0.00180244
0.00436824
-0.00203248
0.00462327
-0.00227687
0.00490058
-0.00253677
0.00520151
-0.00281327
0.00552764
-0.00310786
0.00588183
-0.00342339
0.00626629
0.00667552
-0.00376145
-1.18586e-05
0.000536135
-5.12757e-05
0.00139347
-0.00012043
0.00207682
-0.000217158
0.00257917
-0.000336342
0.00292805
-0.000472253
0.00317211
-0.000620437
0.00336144
-0.000778448
0.00353349
-0.000945555
0.00370958
-0.00112204
0.00389915
-0.00130859
0.00410588
-0.00150609
0.00433155
-0.00171547
0.00457762
-0.00193773
0.00484553
-0.00217396
0.00513682
-0.00242533
0.00545288
-0.00269282
0.00579513
-0.00297748
0.00616649
-0.00328266
0.00657147
0.00700473
-0.00361187
-8.95928e-06
0.000545095
-4.18843e-05
0.00142639
-0.000102793
0.00213773
-0.000190983
0.00266736
-0.000302125
0.00303919
-0.000430662
0.00330065
-0.000571943
0.00350272
-0.000723225
0.00368477
-0.000883553
0.0038699
-0.00105308
0.00406867
-0.00123244
0.00428524
-0.00142246
0.00452158
-0.00162405
0.0047792
-0.00183815
0.00505964
-0.00206582
0.00536448
-0.0023082
0.00569526
-0.00256621
0.00605314
-0.00284003
0.00644031
-0.00313243
0.00686387
0.00732692
-0.00345462
-6.00575e-06
0.0005511
-3.22075e-05
0.0014526
-8.44692e-05
0.00218999
-0.000163628
0.00274652
-0.000266232
0.00314179
-0.000386954
0.00342137
-0.000520958
0.00363672
-0.000665191
0.00382901
-0.000818441
0.00402315
-0.000980711
0.00423094
-0.00115257
0.0044571
-0.00133481
0.00470381
-0.00152827
0.00497267
-0.00173389
0.00526525
-0.00195264
0.00558323
-0.00218568
0.0059283
-0.00243425
0.00630171
-0.0026985
0.00670456
-0.00297676
0.00714212
0.00764403
-0.00329387
-3.03967e-06
0.00055414
-2.22879e-05
0.00147184
-6.55207e-05
0.00223322
-0.000135161
0.00281616
-0.00022872
0.00323535
-0.000341173
0.00353382
-0.000467524
0.00376307
-0.000604389
0.00396587
-0.000750273
0.00416904
-0.000905008
0.00438568
-0.00106908
0.00462117
-0.00124323
0.00487796
-0.00142827
0.00515771
-0.00162508
0.00546207
-0.00183459
0.00579275
-0.00205787
0.00615157
-0.00229619
0.00654004
-0.00255089
0.00695927
-0.00282381
0.00741503
0.00792321
-0.00310299
-2.89948e-07
0.00055443
-1.21441e-05
0.0014837
-4.60163e-05
0.00226709
-0.000105656
0.0028758
-0.000189654
0.00331935
-0.000293373
0.00363754
-0.000411685
0.00388139
-0.000540866
0.00409505
-0.000679104
0.00430728
-0.000826037
0.00453261
-0.000982051
0.00477719
-0.00114783
0.00504373
-0.00132414
0.00533403
-0.00151185
0.00564977
-0.0017118
0.0059927
-0.00192498
0.00636475
-0.0021526
0.00676766
-0.00239614
0.0072028
-0.00265618
0.00767508
0.00819809
-0.00293106
3.10383e-06
0.000551326
-1.62202e-06
0.00148842
-2.6008e-05
0.00229148
-7.51884e-05
0.00292498
-0.000149114
0.00339327
-0.000243618
0.00373204
-0.000353494
0.00399126
-0.000474672
0.00421623
-0.000604994
0.0044376
-0.00074387
0.00467148
-0.000891568
0.00492489
-0.00104871
0.00520087
-0.00121603
0.00550135
-0.00139433
0.00582807
-0.00158445
0.00618282
-0.00178728
0.00656759
-0.00200399
0.00698437
-0.0022362
0.007435
-0.00248509
0.00792398
0.00846077
-0.00274777
6.05861e-06
0.000545267
8.42333e-06
0.00148606
-5.30716e-06
0.00230521
-4.38678e-05
0.00296354
-0.000107199
0.00345661
-0.000191987
0.00381683
-0.000293015
0.00409229
-0.000405865
0.00432908
-0.000528005
0.00455974
-0.000658582
0.00480206
-0.000797726
0.00506403
-0.000945983
0.00534913
-0.00110405
0.00565942
-0.00127268
0.0059967
-0.00145269
0.00636283
-0.00164495
0.00675984
-0.00185057
0.00719
-0.00207114
0.00765556
-0.00230744
0.00816028
0.00870992
-0.0025566
8.88616e-06
0.000536381
1.85827e-05
0.00147636
1.48759e-05
0.00230892
-1.16721e-05
0.00299009
-6.40309e-05
0.00350896
-0.000138583
0.00389138
-0.000230323
0.00418403
-0.000334512
0.00443327
-0.000448207
0.00467343
-0.000570255
0.00492411
-0.000700619
0.00519439
-0.000839765
0.00548827
-0.000988335
0.00580799
-0.00114705
0.00615542
-0.00131669
0.00653247
-0.00149811
0.00694126
-0.00169237
0.00738426
-0.00190088
0.00786407
-0.0021242
0.00838361
0.00894561
-0.00235989
1.16044e-05
0.000524777
2.86255e-05
0.00145934
3.52824e-05
0.00230226
2.05925e-05
0.00300478
-1.97209e-05
0.00354928
-8.3523e-05
0.00395519
-0.000165514
0.00426602
-0.000260687
0.00452844
-0.000365672
0.00477842
-0.00047897
0.00503741
-0.000600346
0.00531577
-0.000730166
0.00561809
-0.000869019
0.00594684
-0.00101759
0.00630399
-0.00117661
0.0066915
-0.00134692
0.00711157
-0.0015295
0.00756684
-0.00172556
0.00806013
-0.00193559
0.00859364
0.00916786
-0.00215784
1.42603e-05
0.000510517
3.85121e-05
0.00143509
5.57337e-05
0.00228504
5.31895e-05
0.00300732
2.53413e-05
0.00357713
-2.69699e-05
0.0040075
-9.86998e-05
0.00433775
-0.00018448
0.00461422
-0.000280482
0.00487442
-0.000384817
0.00514174
-0.00049701
0.00542796
-0.000617307
0.00573839
-0.000746236
0.00607577
-0.000884433
0.00644218
-0.00103261
0.00683967
-0.00119154
0.00727051
-0.00136215
0.00773745
-0.00154545
0.00824343
-0.00174187
0.00879005
0.00937629
-0.0019503
1.67962e-05
0.00049372
4.81314e-05
0.00140375
7.60029e-05
0.00225717
8.60792e-05
0.00299724
7.10557e-05
0.00359215
3.08943e-05
0.00404766
-3.00191e-05
0.00439867
-0.000105999
0.0046902
-0.000192727
0.00496115
-0.000287891
0.00523691
-0.000390717
0.00553079
-0.000501308
0.00584898
-0.000620123
0.00619458
-0.000747749
0.00656981
-0.000884848
0.00697677
-0.00103216
0.00741782
-0.00119052
0.0078958
-0.00136078
0.0084137
-0.00154334
0.00897261
0.0095705
-0.00173755
1.91626e-05
0.000474558
5.7356e-05
0.00136556
9.58902e-05
0.00221863
0.000118913
0.00297422
0.000117374
0.00359369
8.98825e-05
0.00407515
4.0382e-05
0.00444817
-2.54087e-05
0.00475599
-0.000102516
0.00503825
-0.000188301
0.00532269
-0.000281581
0.00562407
-0.000382298
0.0059497
-0.000490828
0.00630311
-0.000607693
0.00668668
-0.000733512
0.00710259
-0.000868975
0.00755328
-0.00101482
0.00804164
-0.00117179
0.00857068
-0.00134027
0.00914109
0.00975018
-0.00151995
2.13242e-05
0.000453234
6.60738e-05
0.00132081
0.000115178
0.00216953
0.000151406
0.00293799
0.000163906
0.00358119
0.000149807
0.00408925
0.000112339
0.00448563
5.72838e-05
0.00481105
-1.01423e-05
0.00510568
-8.61769e-05
0.00539873
-0.000169735
0.00570763
-0.000260407
0.00604037
-0.000358503
0.00640121
-0.000464433
0.00679261
-0.000578782
0.00721694
-0.000702178
0.00767668
-0.000835268
0.00817473
-0.000978717
0.00871413
-0.00113292
0.00929529
0.00991505
-0.0012978
2.32499e-05
0.000429984
7.41697e-05
0.00126989
0.000133636
0.00211006
0.000183241
0.00288839
0.00021031
0.00355412
0.000210321
0.00408924
0.000185592
0.00451036
0.000141839
0.0048548
8.48106e-05
0.00516271
1.83177e-05
0.00546522
-5.53522e-05
0.0057813
-0.000135785
0.0061208
-0.000223318
0.00648874
-0.000318136
0.00688742
-0.000420851
0.00731965
-0.000531984
0.00778781
-0.000652109
0.00829485
-0.000781814
0.00884383
-0.00092158
0.00943506
0.0100649
-0.00107138
2.49118e-05
0.000405072
8.15287e-05
0.00121327
0.000151024
0.00204057
0.000214067
0.00282535
0.000256192
0.00351199
0.000271056
0.00407438
0.000259836
0.00452158
0.000227993
0.00488664
0.000181661
0.00520904
0.000125413
0.00552147
6.16125e-05
0.0058451
-8.85018e-06
0.00619127
-8.54694e-05
0.00656536
-0.000168999
0.00697095
-0.000259935
0.00741059
-0.000358605
0.00788648
-0.000465596
0.00840185
-0.000581343
0.00895958
-0.000706542
0.00956026
0.0101993
-0.000841027
2.62858e-05
0.000378786
8.80385e-05
0.00115152
0.00016709
0.00196151
0.000243501
0.00274893
0.000301098
0.0034544
0.000331569
0.00404391
0.0003347
0.00451845
0.000315484
0.00490586
0.00028035
0.00524417
0.000234498
0.00556732
0.000180991
0.0058986
0.00012113
0.00625113
5.50177e-05
0.00663147
-1.74153e-05
0.00704339
-9.62725e-05
0.00748945
-0.00018228
0.00797249
-0.000276015
0.00849558
-0.000377551
0.00906112
-0.000488062
0.00967077
0.0103183
-0.000607033
2.73515e-05
0.000351435
9.3593e-05
0.00108528
0.000181582
0.00187353
0.000271132
0.00265938
0.000344517
0.00338101
0.000391343
0.00399708
0.000409737
0.00450006
0.000403971
0.00491163
0.000380632
0.00526751
0.000345548
0.0056024
0.000302457
0.0059417
0.000253112
0.00630047
0.000198026
0.00668656
0.00013714
0.00710427
7.00616e-05
0.00755652
-3.60032e-06
0.00804615
-8.3701e-05
0.00857568
-0.000170866
0.00914828
-0.000266297
0.0097662
0.0104219
-0.000369898
2.80936e-05
0.000323341
9.80967e-05
0.00101528
0.000194246
0.00177738
0.000296521
0.00255711
0.000385876
0.00329166
0.00044977
0.00393319
0.000484404
0.00446543
0.000493027
0.004903
0.000482198
0.00527834
0.000458331
0.00562627
0.00042589
0.00597414
0.000387205
0.00633916
0.000343131
0.00673063
0.000293771
0.00715363
0.000238931
0.00761136
0.000178339
0.00810675
0.000111473
0.00864255
3.81527e-05
0.0092216
-4.07124e-05
0.00984507
0.0105114
-0.000130205
2.85024e-05
0.000294839
0.000101469
0.000942311
0.000204842
0.001674
0.000319218
0.00244273
0.000424548
0.00318633
0.000506154
0.00385158
0.00055805
0.00441353
0.000582126
0.00487893
0.000584661
0.00527581
0.000572568
0.00563836
0.000551087
0.00599562
0.000523217
0.00636703
0.000490232
0.00676362
0.000452469
0.00719139
0.000409852
0.00765398
0.000362141
0.00815446
0.000309065
0.00869562
0.000250469
0.0092802
0.000185551
0.00990998
0.0105837
0.000113298
2.85754e-05
0.000266263
0.000103648
0.000867238
0.000213152
0.0015645
0.000338767
0.00231712
0.000459854
0.00306524
0.000559697
0.00375174
0.000629899
0.00434333
0.00067062
0.00483821
0.000687538
0.00525889
0.000687921
0.00563798
0.000677798
0.00600574
0.000660937
0.00638389
0.000639138
0.00678542
0.000613029
0.0072175
0.000582675
0.00768434
0.000547939
0.00818919
0.000508615
0.00873495
0.000464475
0.00932434
0.000415147
0.00995931
0.0106384
0.000360388
2.83174e-05
0.000237946
0.000104599
0.000790957
0.000218992
0.00145011
0.000354732
0.00218138
0.000491085
0.00292889
0.000609511
0.00363331
0.000699041
0.0042538
0.000757711
0.00477954
0.000790219
0.00522638
0.000803958
0.00562424
0.000805718
0.00600398
0.000800126
0.00638948
0.000789628
0.00679592
0.000775228
0.0072319
0.000757182
0.00770238
0.000735469
0.00821091
0.00070994
0.00876048
0.000680448
0.00935383
0.000646787
0.00999297
0.0106768
0.000608425
2.77412e-05
0.000210205
0.000104313
0.000714386
0.000222229
0.00133219
0.000366717
0.00203689
0.000517519
0.00277808
0.000654626
0.0034962
0.000764421
0.004144
0.000842439
0.00470152
0.000891939
0.00517688
0.000920131
0.00559605
0.000934469
0.00598964
0.000940507
0.00638344
0.000941467
0.00679496
0.000938837
0.00723453
0.000933133
0.00770808
0.000924467
0.00821957
0.000912778
0.00877216
0.000897986
0.00936862
0.000879835
0.0100111
0.0106988
0.000857793
2.68677e-05
0.000183337
0.000102814
0.00063844
0.000222788
0.00121222
0.000374391
0.00188529
0.000538459
0.00261402
0.000694008
0.00334065
0.000824845
0.00401317
0.000923652
0.00460271
0.000991745
0.00510879
0.00103574
0.00555206
0.00106357
0.00596181
0.00108174
0.00636527
0.00109439
0.00678231
0.00110361
0.00722531
0.00111028
0.00770142
0.00111467
0.00821518
0.00111682
0.00877001
0.00111672
0.00936873
0.00111408
0.0100138
0.0107045
0.00110838
2.57251e-05
0.000157612
0.000100159
0.000564006
0.000220669
0.00109171
0.000377516
0.00172844
0.000553264
0.00243827
0.000726597
0.00316732
0.000878983
0.00386078
0.000999992
0.0044817
0.00108846
0.00502032
0.00114989
0.00549063
0.0011924
0.0059193
0.00122341
0.00633426
0.00124808
0.00675764
0.00126929
0.00720411
0.00128835
0.00768235
0.0013058
0.00819773
0.00132179
0.00875402
0.00133636
0.00935416
0.00134929
0.0100008
0.0106939
0.00135993
2.43483e-05
0.000133264
9.64375e-05
0.000491917
0.000215945
0.000972198
0.000375974
0.00156841
0.000561408
0.00225284
0.00075136
0.00297737
0.000925407
0.00368673
0.0010699
0.00433721
0.00118064
0.00490957
0.00126143
0.00540984
0.00132015
0.00586059
0.00136497
0.00628943
0.00140217
0.00672044
0.00143556
0.00717071
0.00146709
0.00765083
0.00149759
0.00816723
0.0015274
0.00872421
0.00155663
0.00932493
0.00158518
0.00997229
0.0106668
0.00161223
2.27777e-05
0.000110486
9.17677e-05
0.000422926
0.000208773
0.000855193
0.00036979
0.00140739
0.00056252
0.00206011
0.000767348
0.00277254
0.000962637
0.00349144
0.0011316
0.00416825
0.00126658
0.00477459
0.00136894
0.00530748
0.00144575
0.00578378
0.00150571
0.00622948
0.00155618
0.00666997
0.0016021
0.00712479
0.00164619
0.00760673
0.00168976
0.00812366
0.00173336
0.00868062
0.00177722
0.00928106
0.00182139
0.00992812
0.0106233
0.00186489
2.10573e-05
8.94286e-05
8.6294e-05
0.00035769
0.000199387
0.0007421
0.000359142
0.00124764
0.000556442
0.00186281
0.000773788
0.00255519
0.000989219
0.00327601
0.00118318
0.00397429
0.00134424
0.00461353
0.00147062
0.0051811
0.00156785
0.00568655
0.00164467
0.00615265
0.00170949
0.00660515
0.00176848
0.00706581
0.00182534
0.00754987
0.00188201
0.00806698
0.00193938
0.00862325
0.00199782
0.00922262
0.00205758
0.00986836
0.0105634
0.0021175
1.92329e-05
7.01957e-05
8.01792e-05
0.000296743
0.00018809
0.000634188
0.000344371
0.00109136
0.000543268
0.00166391
0.000770162
0.0023283
0.00100383
0.00304235
0.00122265
0.00375547
0.00141132
0.00442486
0.00156428
0.00502815
0.00168465
0.00556618
0.0017806
0.0060567
0.00186127
0.00652448
0.00193415
0.00699293
0.00200414
0.00747987
0.00207402
0.00799711
0.00214514
0.00855213
0.00221812
0.00914964
0.00229342
0.00979306
0.0104872
0.00236969
1.73505e-05
5.28452e-05
7.35974e-05
0.000240497
0.000175239
0.000532547
0.000325965
0.000940631
0.000523365
0.00146651
0.000756299
0.00209537
0.00100541
0.00279324
0.00124802
0.00351285
0.00146529
0.00420759
0.00164731
0.00484614
0.00179389
0.00541959
0.00191177
0.00593882
0.00201037
0.00642588
0.00209838
0.00690492
0.00218212
0.00739614
0.00226542
0.0079138
0.00235033
0.00846722
0.00243779
0.00906219
0.00252857
0.00970228
0.0103946
0.0026211
1.54536e-05
3.73915e-05
6.67257e-05
0.000189225
0.000161224
0.000438049
0.000304536
0.000797319
0.000497379
0.00127367
0.000732442
0.0018603
0.0009933
0.00253238
0.00125755
0.00324861
0.0015035
0.00396164
0.0017167
0.00463293
0.00189278
0.00524351
0.00203596
0.00579563
0.00215521
0.00630664
0.00226016
0.00679997
0.00235863
0.00729768
0.00245577
0.00781665
0.00255459
0.00836841
0.00265648
0.00896029
0.00276268
0.00959608
0.0102859
0.00287138
1.35823e-05
2.38092e-05
5.97356e-05
0.000143071
0.000146454
0.000351331
0.000280786
0.000662986
0.000466204
0.00108825
0.000699286
0.00162722
0.000967405
0.00226426
0.00124987
0.00296614
0.00152336
0.00368814
0.00176914
0.00438715
0.00197791
0.00503475
0.00215025
0.00562329
0.00229362
0.00616327
0.00241806
0.00667553
0.00253277
0.00718296
0.00264451
0.00770492
0.0027575
0.00825542
0.00287385
0.00884394
0.0029954
0.00947452
0.0101612
0.00312015
1.17714e-05
1.20378e-05
5.27866e-05
0.000102056
0.000131328
0.000272789
0.000255466
0.000538848
0.000430929
0.000912785
0.000657963
0.00140019
0.00092827
0.00199396
0.00122427
0.00267014
0.00152263
0.00338978
0.00180117
0.00410861
0.00204534
0.00479058
0.00225096
0.00541767
0.00242267
0.00599155
0.00257001
0.0065282
0.00270326
0.00704971
0.00283084
0.00757734
0.00295854
0.00812772
0.00308948
0.008713
0.00322638
0.00933763
0.0100205
0.00336706
1.00499e-05
1.9879e-06
4.60201e-05
6.60859e-05
0.000116221
0.000202588
0.000229327
0.000425742
0.000392765
0.000749347
0.000609985
0.00118297
0.000877142
0.0017268
0.0011809
0.00236639
0.00149974
0.00307094
0.00180952
0.00379882
0.00209076
0.00450934
0.00233362
0.00517481
0.00253851
0.00578665
0.00271315
0.00635356
0.00286818
0.00689468
0.00301359
0.00743193
0.00315701
0.0079843
0.00330291
0.0085671
0.00345519
0.00918534
0.00986395
0.00361174
8.44125e-06
-6.45335e-06
3.95562e-05
3.49709e-05
0.00010147
0.000140674
0.000203086
0.000324126
0.000352964
0.000599469
0.000557131
0.000978801
0.000815918
0.00146801
0.0011209
0.00206141
0.00145411
0.00273773
0.00179149
0.00346144
0.00210975
0.00419108
0.00239305
0.00489151
0.00263622
0.00554349
0.00284351
0.00614626
0.00302476
0.00671343
0.00319102
0.00726567
0.00335187
0.00782344
0.00351347
0.0084055
0.00368139
0.00901742
0.00969154
0.0038538
6.96182e-06
-1.34152e-05
3.34921e-05
8.44061e-06
8.73629e-05
8.68034e-05
0.00017739
0.000234099
0.000312741
0.000464118
0.000501311
0.000790231
0.00074701
0.00122231
0.00104643
0.00176199
0.0013865
0.00239766
0.00174551
0.00310244
0.0020983
0.00383829
0.00242365
0.00456616
0.0027098
0.00525734
0.00295581
0.00590026
0.00316899
0.00650025
0.00336045
0.00707421
0.00354149
0.0076424
0.00372023
0.00822677
0.00390434
0.00883331
0.00950311
0.00409277
5.62399e-06
-1.90392e-05
2.79031e-05
-1.38385e-05
7.41328e-05
4.05737e-05
0.000152794
0.000155438
0.000273205
0.000343707
0.000444426
0.000619011
0.00067314
0.000993597
0.000960541
0.00147459
0.00129915
0.00205905
0.00167162
0.00272996
0.00205355
0.00345636
0.00241996
0.00419975
0.00275245
0.00492485
0.0030433
0.0056094
0.00329528
0.00624827
0.00351788
0.00685162
0.00372334
0.00743693
0.00392168
0.00802844
0.00412318
0.00863181
0.00929819
0.00432809
4.43547e-06
-2.34746e-05
2.28434e-05
-3.22465e-05
6.19607e-05
1.45634e-06
0.000129751
8.7647e-05
0.000235314
0.000238145
0.000388238
0.000466086
0.000597104
0.000784732
0.000866893
0.0012048
0.00119566
0.00173029
0.00157184
0.00235378
0.00197446
0.00305375
0.00237749
0.00379672
0.00275707
0.00454527
0.00309794
0.00526854
0.00339619
0.00595001
0.00365746
0.00659035
0.00389343
0.00720097
0.0041154
0.00780647
0.00433646
0.00841075
0.00907566
0.00455899
3.40008e-06
-2.68747e-05
1.83479e-05
-4.71943e-05
5.09743e-05
-3.11701e-05
0.000108604
3.00172e-05
0.000199841
0.000146907
0.000334277
0.00033165
0.000521545
0.000597464
0.000769393
0.00095695
0.00108072
0.00141896
0.00145023
0.00198427
0.00186255
0.00264142
0.00229384
0.00336544
0.00271735
0.00412175
0.00311087
0.00487501
0.00346238
0.00559851
0.00377105
0.00628167
0.00404567
0.00692634
0.00429742
0.00755472
0.00454189
0.00816628
0.00883355
0.00478401
2.51814e-06
-2.93928e-05
1.44332e-05
-5.91094e-05
4.12506e-05
-5.79874e-05
8.95869e-05
-1.83191e-05
0.000167365
6.91295e-05
0.000283772
0.000215243
0.000448771
0.000432465
0.000671822
0.000733899
0.000959551
0.00113123
0.00131252
0.0016313
0.00172214
0.0022318
0.00216967
0.00291791
0.00262912
0.0036623
0.00307366
0.00443047
0.00348307
0.0051891
0.00384793
0.00591681
0.00417119
0.00660309
0.00446138
0.00726453
0.00473546
0.00789219
0.00856766
0.00500135
1.7864e-06
-3.11792e-05
1.10977e-05
-6.84207e-05
3.28166e-05
-7.97063e-05
7.28255e-05
-5.8328e-05
0.000138257
3.69761e-06
0.000237617
0.000115883
0.000380629
0.000289453
0.000577511
0.000537018
0.000837362
0.000871382
0.00116549
0.00130317
0.00156006
0.00183724
0.00200938
0.00246858
0.0024919
0.00317978
0.00298005
0.00394232
0.00344744
0.00472171
0.00387524
0.00548901
0.0042578
0.00622052
0.00459772
0.00692461
0.00491035
0.00757956
0.00827146
0.00520655
1.19761e-06
-3.23769e-05
8.32143e-06
-7.55445e-05
2.56506e-05
-9.70355e-05
5.83412e-05
-9.10186e-05
0.000112692
-5.06534e-05
0.000196361
3.2214e-05
0.000318431
0.000167384
0.000489112
0.000366337
0.000718777
0.000641717
0.00101604
0.00100591
0.0013848
0.00146847
0.00182093
0.00203245
0.00231001
0.0026907
0.00282813
0.0034242
0.00334676
0.00420308
0.00383939
0.00499638
0.00429017
0.00576974
0.00469238
0.0065224
0.00505681
0.00721513
0.00793589
0.00539238
7.4025e-07
-3.31171e-05
6.06606e-06
-8.08703e-05
1.96835e-05
-0.000110653
4.60548e-05
-0.00011739
9.06529e-05
-9.52515e-05
0.000160214
-3.73472e-05
0.000262936
6.46622e-05
0.000408468
0.000220805
0.000607465
0.000442721
0.000870385
0.000742994
0.0012053
0.00113356
0.00161476
0.00162299
0.00209258
0.00221288
0.00262202
0.00289477
0.00317743
0.00364768
0.0037288
0.004445
0.0042517
0.00524685
0.00472743
0.00604667
0.00515655
0.00678601
0.00753664
0.0055558
3.98428e-07
-3.35155e-05
4.27546e-06
-8.47473e-05
1.48024e-05
-0.00012118
3.5797e-05
-0.000138384
7.19496e-05
-0.000131404
0.000129075
-9.44727e-05
0.000214372
-2.06345e-05
0.000336587
9.85891e-05
0.000505925
0.000273383
0.000733447
0.000515472
0.00102967
0.000837335
0.00140216
0.0012505
0.0018523
0.00176274
0.0023722
0.00237487
0.00294328
0.0030766
0.0035383
0.00384998
0.00412626
0.00465889
0.00468561
0.00548731
0.00518389
0.00628773
0.0070715
0.00564903
1.52549e-07
-3.36681e-05
2.87805e-06
-8.74728e-05
1.08573e-05
-0.000129159
2.73226e-05
-0.00015485
5.62479e-05
-0.000160329
0.000102579
-0.000140803
0.0001725
-9.05557e-05
0.000273691
-2.60224e-06
0.000415444
0.00013163
0.000608501
0.000322415
0.000864315
0.000581521
0.00119348
0.000921327
0.00160318
0.00135304
0.00209397
0.00188408
0.00265638
0.0025142
0.00327167
0.0032347
0.00390731
0.00402325
0.00454113
0.00485349
0.00513954
0.00568933
0.00657305
0.00563798
-2.21237e-08
-3.3646e-05
1.79092e-06
-8.92859e-05
7.67164e-06
-0.00013504
2.03308e-05
-0.000167509
4.31056e-05
-0.000183104
8.01545e-05
-0.000177852
0.000136708
-0.000147109
0.000219338
-8.52327e-05
0.000336207
1.47606e-05
0.000497141
0.000161481
0.000713395
0.000365268
0.000996815
0.000637906
0.00135815
0.00099171
0.00180447
0.00143776
0.00233527
0.0019834
0.00294278
0.00262718
0.00360012
0.00336591
0.00428637
0.00416724
0.00498178
0.00499391
0.00598747
0.00556736
-1.46477e-07
-3.34995e-05
9.26668e-07
-9.0359e-05
5.05514e-06
-0.000139168
1.44909e-05
-0.000176945
3.20167e-05
-0.00020063
6.1102e-05
-0.000206938
0.000106119
-0.000192126
0.000172599
-0.000151713
0.000267509
-8.01496e-05
0.000399472