/*--------------------------------*- C++ -*----------------------------------*\
  =========                 |
  \\      /  F ield         | OpenFOAM: The Open Source CFD Toolbox
   \\    /   O peration     | Website:  https://openfoam.org
    \\  /    A nd           | Version:  7
     \\/     M anipulation  |
\*---------------------------------------------------------------------------*/
FoamFile
{
    version     2.0;
    format      ascii;
    class       surfaceScalarField;
    location    "83.00012";
    object      phi;
}
// * * * * * * * * * * * * * * * * * * * * * * * * * * * * * * * * * * * * * //

dimensions      [0 3 -1 0 0 0 0];

internalField   nonuniform List<scalar> 
11411
(
-3.79893e-06
-1.45281e-06
-1.42894e-05
-3.82914e-06
-3.11482e-05
-5.85096e-06
-5.40318e-05
-7.49018e-06
-8.25825e-05
-8.74168e-06
-0.000116452
-9.62429e-06
-0.000155321
-1.01734e-05
-0.00019892
-1.04283e-05
-0.00024704
-1.04144e-05
-1.01248e-05
-4.0144e-05
-3.03585e-07
-0.000138845
-7.21288e-07
-0.000279523
-9.95244e-07
-0.000447929
-1.15279e-06
-0.000633997
-1.23275e-06
-0.000832102
-1.27041e-06
-0.00104004
-1.28888e-06
-0.00125759
-1.29902e-06
-0.00148541
-1.30426e-06
-0.00172443
-1.30528e-06
-1.30224e-06
-4.01433e-05
3.98397e-05
-0.000138842
9.79779e-05
-0.000279519
0.000139681
-0.000447922
0.000167251
-0.000633988
0.000184833
-0.000832091
0.000196833
-0.00104003
0.000206648
-0.00125758
0.000216251
-0.00148539
0.000226507
-0.00172441
0.000237713
-0.0019757
0.000249986
-0.0022404
0.000263411
-0.00251976
0.000278074
-0.00281509
0.00029406
-0.00312781
0.000311458
-0.00345942
0.000330367
-0.00381153
0.00035089
-0.0041858
0.000373062
-0.00458379
0.000396804
0.000422386
-0.00500735
-3.99379e-05
7.97777e-05
-0.000138228
0.000196268
-0.00027843
0.000279882
-0.000446368
0.000335189
-0.000632001
0.000370466
-0.000829696
0.000394527
-0.00103723
0.000414183
-0.00125438
0.000433396
-0.00148177
0.000453902
-0.00172036
0.000476302
-0.0019712
0.00050083
-0.00223545
0.000527657
-0.00251433
0.000556954
-0.00280916
0.000588894
-0.00312136
0.000623653
-0.00345242
0.000661429
-0.00380396
0.000702432
-0.00417764
0.000746738
-0.00457502
0.000794191
0.000845319
-0.00499796
-3.95286e-05
0.000119306
-0.000137004
0.000293743
-0.000276257
0.000419136
-0.000443268
0.0005022
-0.000628037
0.000555236
-0.000824916
0.000591406
-0.00103165
0.000620918
-0.00124799
0.000649731
-0.00147455
0.000680466
-0.00171228
0.000714033
-0.00196224
0.000750787
-0.00222557
0.000790983
-0.00250349
0.000834878
-0.00279733
0.000882731
-0.00310848
0.000934808
-0.00343846
0.000991404
-0.00378886
0.00105284
-0.00416135
0.00111923
-0.00455752
0.00119036
0.00126698
-0.00497919
-3.89167e-05
0.000158223
-0.000135171
0.000389997
-0.000273005
0.00055697
-0.000438624
0.000667819
-0.000622099
0.000738711
-0.000817755
0.000787063
-0.00102329
0.000826455
-0.00123842
0.000864855
-0.00146374
0.000905788
-0.00170019
0.000950482
-0.00194882
0.000999417
-0.00221077
0.00105293
-0.00248726
0.00111137
-0.0027796
0.00117508
-0.0030892
0.00124441
-0.00341755
0.00131975
-0.00376624
0.00140153
-0.00413695
0.00148994
-0.00453129
0.0015847
0.00168673
-0.00495103
-3.81046e-05
0.000196328
-0.000132735
0.000484628
-0.000268678
0.000692913
-0.000432441
0.000831582
-0.000614189
0.000920459
-0.000808217
0.000981091
-0.00101216
0.0010304
-0.00122567
0.00107837
-0.00144934
0.00112946
-0.00168408
0.00118523
-0.00193095
0.00124628
-0.00219106
0.00131305
-0.00246565
0.00138596
-0.00275601
0.00146544
-0.00306354
0.00155193
-0.00338971
0.00164592
-0.00373613
0.00174795
-0.00410446
0.00185827
-0.00449634
0.00197658
0.00210389
-0.0049135
-3.70953e-05
0.000233423
-0.000129701
0.000577234
-0.000263281
0.000826492
-0.000424724
0.000993024
-0.000604312
0.00110005
-0.000796307
0.00117309
-0.000998258
0.00123235
-0.00120976
0.00128987
-0.00143137
0.00135106
-0.00166398
0.00141784
-0.00190865
0.00149094
-0.00216648
0.00157089
-0.0024387
0.00165817
-0.00272658
0.00175332
-0.00303152
0.00185687
-0.00335499
0.00196939
-0.00369856
0.00209153
-0.00406392
0.00222363
-0.00445271
0.00236537
0.00251779
-0.00486662
-3.58925e-05
0.000269315
-0.000126078
0.000667419
-0.000256824
0.000957239
-0.000415479
0.00115168
-0.000592475
0.00127704
-0.00078203
0.00136264
-0.000981598
0.00143192
-0.0011907
0.00149897
-0.00140984
0.0015702
-0.00163991
0.00164791
-0.00188194
0.00173298
-0.00213704
0.00182599
-0.00240642
0.00192754
-0.00269134
0.00203825
-0.00299318
0.00215871
-0.0033134
0.00228961
-0.00365358
0.0024317
-0.00401537
0.00258542
-0.00440045
0.00275045
0.00292775
-0.00481041
-3.45008e-05
0.000303816
-0.000121872
0.000754791
-0.000249315
0.00108468
-0.000404717
0.00130708
-0.000578685
0.00145101
-0.000765396
0.00154935
-0.000962189
0.00162871
-0.00116849
0.00170527
-0.00138477
0.00178648
-0.00161189
0.00187503
-0.00185086
0.00197195
-0.00210279
0.00207792
-0.00236885
0.00219361
-0.00265033
0.00231972
-0.00294857
0.00245695
-0.00326502
0.00260606
-0.00360123
0.0027679
-0.00395886
0.00294306
-0.0043396
0.00313119
0.00333311
-0.00474496
-3.29257e-05
0.000336742
-0.000117096
0.000838961
-0.000240768
0.00120835
-0.000392446
0.00145876
-0.00056295
0.00162151
-0.000746412
0.00173281
-0.000940043
0.00182234
-0.00114316
0.00190839
-0.00135618
0.0019995
-0.00157993
0.00209879
-0.00181542
0.00220744
-0.00206374
0.00232623
-0.00232605
0.00245592
-0.00260361
0.00259728
-0.00289775
0.00275109
-0.00320989
0.00291821
-0.00354158
0.00309959
-0.00389448
0.00329595
-0.00427026
0.00350697
0.00373319
-0.00467035
-3.11734e-05
0.000367915
-0.000111762
0.00091955
-0.000231196
0.00132779
-0.00037868
0.00160624
-0.000545281
0.00178812
-0.000725089
0.00191262
-0.000915172
0.00201242
-0.00111473
0.00210795
-0.00132409
0.00220886
-0.00154408
0.00231878
-0.00177568
0.00243903
-0.00201995
0.0025705
-0.00227805
0.00271402
-0.00255122
0.00287044
-0.00284076
0.00304064
-0.00314809
0.00322554
-0.00347472
0.00342622
-0.0038223
0.00364353
-0.00419252
0.00387718
0.00412737
-0.00458669
-2.92512e-05
0.000397166
-0.000105884
0.000996183
-0.000220616
0.00144252
-0.000363433
0.00174906
-0.00052569
0.00195037
-0.000701439
0.00208837
-0.000887592
0.00219858
-0.0010832
0.00230356
-0.00128854
0.0024142
-0.00150437
0.00253461
-0.00173166
0.00266632
-0.00197147
0.00281031
-0.00222492
0.00296747
-0.00249323
0.00313875
-0.0027777
0.00332511
-0.0030797
0.00352754
-0.00340072
0.00374725
-0.00374242
0.00398523
-0.00410648
0.00424124
0.00451503
-0.00449413
-2.71672e-05
0.000424334
-9.94795e-05
0.0010685
-0.000209046
0.00155209
-0.000346722
0.00188674
-0.000504191
0.00210784
-0.000675477
0.00225966
-0.000857318
0.00238042
-0.00104862
0.00249486
-0.00124955
0.00261513
-0.00146084
0.0027459
-0.00168342
0.00288891
-0.00191834
0.00304523
-0.00216671
0.00321584
-0.00242971
0.00340176
-0.00270862
0.00360402
-0.00300479
0.00382372
-0.00331969
0.00406214
-0.00365495
0.00432049
-0.00401227
0.00459856
0.00489557
-0.00439282
-2.49306e-05
0.000449264
-9.25669e-05
0.00113613
-0.00019651
0.00165603
-0.000328566
0.00201879
-0.000480799
0.00226007
-0.000647215
0.00242607
-0.000824371
0.00255757
-0.00101099
0.00268148
-0.00120715
0.00281128
-0.00141351
0.00295226
-0.00163101
0.0031064
-0.00186064
0.00327486
-0.00210349
0.00345869
-0.00236074
0.00365901
-0.00263363
0.00387691
-0.00292348
0.00411356
-0.00323172
0.00437038
-0.00355999
0.00464876
-0.00391002
0.00494859
0.00526847
-0.00428291
-2.25514e-05
0.000471816
-8.5168e-05
0.00119875
-0.000183034
0.00175389
-0.000308989
0.00214475
-0.000455535
0.00240662
-0.000616673
0.00258721
-0.000788768
0.00272967
-0.000970353
0.00286307
-0.00116137
0.0030023
-0.00136245
0.00315334
-0.00157447
0.00331842
-0.00179841
0.0034988
-0.00203535
0.00369563
-0.00228641
0.00391007
-0.00255282
0.00414332
-0.00283587
0.00439661
-0.00313693
0.00467144
-0.00345767
0.0049695
-0.00379988
0.0052908
0.00563319
-0.0041646
-2.00411e-05
0.000491857
-7.73075e-05
0.00125601
-0.000168645
0.00184523
-0.000288018
0.00226412
-0.000428418
0.00254702
-0.000583868
0.00274266
-0.000750532
0.00289633
-0.000926728
0.00303926
-0.00111226
0.00318784
-0.00130769
0.00334877
-0.00151387
0.00352459
-0.00173174
0.00371667
-0.00196235
0.00392624
-0.00220681
0.00415453
-0.0024663
0.00440282
-0.00274207
0.00467237
-0.00303543
0.00496481
-0.00334808
0.00528215
-0.00368195
0.00562467
0.00598929
-0.00403805
-1.74119e-05
0.000509269
-6.9013e-05
0.00130762
-0.00015338
0.0019296
-0.000265684
0.00237642
-0.000399475
0.00268081
-0.000548823
0.00289201
-0.000709686
0.00305719
-0.000880148
0.00320973
-0.00105986
0.00336755
-0.0012493
0.00353821
-0.00144926
0.00372456
-0.00166069
0.0039281
-0.00188459
0.00415013
-0.00212203
0.00439197
-0.00237418
0.00465496
-0.00264223
0.00494042
-0.0029274
0.00524999
-0.00323137
0.00558611
-0.00355638
0.00594968
0.00633641
-0.0039035
-1.46773e-05
0.000523946
-6.03157e-05
0.00135325
-0.000137276
0.00200656
-0.000242022
0.00248117
-0.000368733
0.00280752
-0.000511561
0.00303484
-0.000666255
0.00321189
-0.000830646
0.00337412
-0.0010042
0.00354111
-0.00118731
0.00372132
-0.00138073
0.00391798
-0.00158536
0.00413273
-0.00180216
0.00436694
-0.00203219
0.004622
-0.00227657
0.00489934
-0.00253646
0.0052003
-0.00281294
0.00552647
-0.00310753
0.0058807
-0.00342305
0.00626521
0.00667446
-0.00376111
-1.18521e-05
0.000535798
-5.12509e-05
0.00139265
-0.000120378
0.00207569
-0.000217075
0.00257787
-0.000336229
0.00292668
-0.000472112
0.00317072
-0.000620269
0.00336005
-0.000778255
0.0035321
-0.00094534
0.00370819
-0.0011218
0.00389777
-0.00130833
0.00410451
-0.00150581
0.00433021
-0.00171517
0.0045763
-0.00193741
0.00484424
-0.00217363
0.00513556
-0.00242498
0.00545166
-0.00269246
0.00579395
-0.00297711
0.00616535
-0.00328229
0.00657038
0.00700368
-0.0036115
-8.95245e-06
0.00054475
-4.1858e-05
0.00142556
-0.000102738
0.00213657
-0.000190893
0.00266602
-0.000302002
0.00303778
-0.000430507
0.00329922
-0.000571759
0.0035013
-0.000723014
0.00368336
-0.000883316
0.00386849
-0.00105281
0.00406727
-0.00123215
0.00428385
-0.00142215
0.00452021
-0.00162371
0.00477786
-0.0018378
0.00505833
-0.00206545
0.00536321
-0.00230781
0.00569402
-0.00256581
0.00605195
-0.00283963
0.00643917
-0.00313203
0.00686278
0.00732586
-0.00345421
-5.99866e-06
0.000550749
-3.21799e-05
0.00145174
-8.44102e-05
0.0021888
-0.000163532
0.00274515
-0.000266099
0.00314035
-0.000386785
0.00341991
-0.000520758
0.00363527
-0.000664961
0.00382756
-0.000818182
0.00402172
-0.000980424
0.00422951
-0.00115226
0.00445569
-0.00133447
0.00470242
-0.00152791
0.0049713
-0.0017335
0.00526392
-0.00195223
0.00558194
-0.00218525
0.00592704
-0.00243381
0.00630051
-0.00269805
0.00670342
-0.00297631
0.00714103
0.00764296
-0.00329341
-3.03237e-06
0.000553781
-2.22593e-05
0.00147097
-6.54583e-05
0.002232
-0.000135059
0.00281475
-0.000228576
0.00323387
-0.000340991
0.00353233
-0.000467307
0.00376159
-0.00060414
0.00396439
-0.000749992
0.00416757
-0.000904697
0.00438422
-0.00106874
0.00461973
-0.00124286
0.00487653
-0.00142787
0.00515632
-0.00162466
0.00546071
-0.00183415
0.00579143
-0.0020574
0.0061503
-0.00229571
0.00653881
-0.0025504
0.00695811
-0.0028233
0.00741394
0.00792218
-0.00310252
-2.83841e-07
0.000554065
-1.21148e-05
0.0014828
-4.59512e-05
0.00226583
-0.000105548
0.00287434
-0.000189501
0.00331782
-0.000293177
0.003636
-0.000411451
0.00387986
-0.000540596
0.00409354
-0.000678801
0.00430577
-0.000825701
0.00453112
-0.000981683
0.00477571
-0.00114743
0.00504228
-0.00132372
0.00533261
-0.00151139
0.00564838
-0.00171132
0.00599136
-0.00192448
0.00636346
-0.00215208
0.00676642
-0.0023956
0.00720162
-0.00265564
0.00767397
0.00819707
-0.00293052
3.11188e-06
0.000550953
-1.59066e-06
0.0014875
-2.59405e-05
0.00229018
-7.50743e-05
0.00292348
-0.000148951
0.0033917
-0.000243409
0.00373046
-0.000353243
0.00398969
-0.000474382
0.00421468
-0.000604668
0.00443606
-0.000743508
0.00466996
-0.000891172
0.00492338
-0.00104828
0.00519938
-0.00121557
0.0054999
-0.00139384
0.00582665
-0.00158393
0.00618145
-0.00178673
0.00656627
-0.00200343
0.00698311
-0.00223561
0.00743381
-0.00248451
0.00792287
0.00845974
-0.00274718
6.06536e-06
0.000544888
8.45274e-06
0.00148511
-5.23541e-06
0.00230387
-4.37487e-05
0.00296199
-0.000107027
0.00345498
-0.000191765
0.0038152
-0.000292747
0.00409068
-0.000405556
0.00432749
-0.000527657
0.00455816
-0.000658195
0.0048005
-0.000797302
0.00506248
-0.000945522
0.0053476
-0.00110355
0.00565793
-0.00127215
0.00599525
-0.00145213
0.00636142
-0.00164436
0.00675849
-0.00184996
0.00718871
-0.00207051
0.00765436
-0.0023068
0.00815916
0.0087089
-0.00255596
8.89198e-06
0.000535996
1.86115e-05
0.00147539
1.49437e-05
0.00230754
-1.15473e-05
0.00298848
-6.38511e-05
0.00350728
-0.000138348
0.0038897
-0.000230039
0.00418237
-0.000334182
0.00443163
-0.000447835
0.00467181
-0.000569841
0.0049225
-0.000700166
0.00519281
-0.000839271
0.00548671
-0.000987803
0.00580646
-0.00114648
0.00615393
-0.00131609
0.00653103
-0.00149748
0.00693988
-0.00169172
0.00738295
-0.0019002
0.00786284
-0.00212351
0.00838248
0.00894458
-0.00235919
1.16095e-05
0.000524387
2.86533e-05
0.00145835
3.53513e-05
0.00230084
2.07154e-05
0.00300312
-1.95332e-05
0.00354753
-8.32767e-05
0.00395344
-0.000165214
0.0042643
-0.000260338
0.00452675
-0.000365276
0.00477675
-0.00047853
0.00503576
-0.000599863
0.00531414
-0.00072964
0.00561648
-0.000868451
0.00594527
-0.00101698
0.00630246
-0.00117597
0.00669002
-0.00134624
0.00711016
-0.00152879
0.0075655
-0.00172483
0.00805888
-0.00193484
0.00859249
0.00916682
-0.00215709
1.42648e-05
0.000510122
3.85382e-05
0.00143408
5.58016e-05
0.00228358
5.33155e-05
0.0030056
2.55318e-05
0.00357531
-2.67128e-05
0.00400568
-9.83835e-05
0.00433597
-0.000184111
0.00461248
-0.000280063
0.0048727
-0.00038435
0.00514004
-0.000496496
0.00542628
-0.000616747
0.00573674
-0.000745631
0.00607415
-0.000883784
0.00644061
-0.00103192
0.00683815
-0.00119082
0.00726906
-0.00136139
0.00773608
-0.00154466
0.00824216
-0.00174106
0.00878888
0.00937524
-0.00194948
1.67997e-05
0.000493322
4.81551e-05
0.00140272
7.60684e-05
0.00225566
8.62052e-05
0.00299547
7.12518e-05
0.00359027
3.11601e-05
0.00404578
-2.96883e-05
0.00439682
-0.00010561
0.0046884
-0.000192284
0.00495938
-0.000287398
0.00523516
-0.000390173
0.00552906
-0.000500715
0.00584728
-0.000619481
0.00619292
-0.000747058
0.00656819
-0.000884112
0.00697521
-0.00103139
0.00741633
-0.0011897
0.00789439
-0.00135994
0.00841239
-0.00154247
0.00897142
0.00956943
-0.00173666
1.91649e-05
0.000474157
5.73763e-05
0.00136451
9.59517e-05
0.00221709
0.000119037
0.00297238
0.000117572
0.00359173
9.01568e-05
0.00407319
4.07266e-05
0.00444625
-2.50015e-05
0.00475413
-0.00010205
0.00503642
-0.000187781
0.00532089
-0.000281007
0.00562229
-0.00038167
0.00594794
-0.000490147
0.00630139
-0.00060696
0.006685
-0.000732729
0.00710098
-0.000868145
0.00755175
-0.00101394
0.00804019
-0.00117088
0.00856933
-0.00133934
0.00913987
0.00974909
-0.001519
2.1325e-05
0.000452832
6.60899e-05
0.00131974
0.000115234
0.00216794
0.000151525
0.00293609
0.000164104
0.00357915
0.000150087
0.00408721
0.000112695
0.00448364
5.77091e-05
0.00480912
-9.65844e-06
0.00510379
-8.56321e-05
0.00539686
-0.00016913
0.00570578
-0.000259744
0.00603855
-0.000357783
0.00639943
-0.000463657
0.00679088
-0.000577949
0.00721527
-0.000701293
0.00767509
-0.000834337
0.00817323
-0.000977746
0.00871274
-0.00113192
0.00929404
0.00991395
-0.00129677
2.32488e-05
0.000429583
7.41807e-05
0.00126881
0.000133684
0.00210844
0.000183353
0.00288642
0.000210505
0.003552
0.000210604
0.00408711
0.000185958
0.00450829
0.000142281
0.00485279
8.53221e-05
0.00516075
1.8894e-05
0.00546329
-5.4718e-05
0.0057794
-0.000135086
0.00611892
-0.00022256
0.00648691
-0.000317314
0.00688563
-0.000419969
0.00731792
-0.000531044
0.00778616
-0.000651116
0.00829331
-0.000780777
0.0088424
-0.000920505
0.00943377
0.0100637
-0.00107028
2.49088e-05
0.000404674
8.15335e-05
0.00121219
0.000151062
0.00203891
0.000214168
0.00282332
0.000256379
0.00350979
0.000271337
0.00407215
0.000260209
0.00451942
0.000228449
0.00488455
0.000182192
0.00520701
0.000126011
0.00551947
6.22771e-05
0.00584313
-8.12708e-06
0.00618933
-8.46728e-05
0.00656345
-0.000168131
0.00696909
-0.000259002
0.00740879
-0.000357605
0.00788477
-0.00046454
0.00840024
-0.000580235
0.0089581
-0.000705391
0.00955893
0.0101982
-0.000839846
2.62807e-05
0.000378394
8.80363e-05
0.00115043
0.000167117
0.00195983
0.000243588
0.00274684
0.000301273
0.0034521
0.000331845
0.00404158
0.000335076
0.00451619
0.000315952
0.00490368
0.000280899
0.00524206
0.00023512
0.00556525
0.000181685
0.00589656
0.000121899
0.00624911
5.58575e-05
0.00662949
-1.65087e-05
0.00704146
-9.52897e-05
0.00748758
-0.000181217
0.00797069
-0.000274893
0.00849392
-0.000376369
0.00905957
-0.000486831
0.00966939
0.0103171
-0.000605764
2.73441e-05
0.00035105
9.3583e-05
0.00108419
0.000181594
0.00187182
0.000271201
0.00265724
0.000344675
0.00337863
0.000391608
0.00399465
0.000410111
0.00449768
0.000404445
0.00490935
0.000381196
0.00526531
0.000346193
0.00560025
0.00030318
0.00593958
0.000253912
0.00629838
0.000198905
0.0066845
0.000138101
0.00710226
7.10992e-05
0.00755458
-2.50623e-06
0.0080443
-8.25124e-05
0.00857392
-0.000169608
0.00914667
-0.00026498
0.00976476
0.0104207
-0.000368538
2.80837e-05
0.000322966
9.80779e-05
0.0010142
0.000194241
0.00177566
0.000296568
0.00255491
0.000386012
0.00328919
0.000450019
0.00393064
0.00048477
0.00446293
0.000493504
0.00490061
0.000482774
0.00527604
0.000458996
0.00562403
0.000426639
0.00597194
0.000388037
0.00633698
0.000344049
0.00672849
0.000294777
0.00715153
0.000240025
0.00760933
0.000179527
0.0081048
0.000112742
0.00864071
3.95051e-05
0.00921991
-3.92898e-05
0.00984356
0.0105101
-0.000128752
2.849e-05
0.000294476
0.000101441
0.000941248
0.000204819
0.00167228
0.000319238
0.00244049
0.000424654
0.00318377
0.000506377
0.00384892
0.000558401
0.00441091
0.0005826
0.00487641
0.000585245
0.00527339
0.00057325
0.00563603
0.00055186
0.00599332
0.000524082
0.00636476
0.000491189
0.00676138
0.000453521
0.0071892
0.000411002
0.00765185
0.000363389
0.00815241
0.000310407
0.00869369
0.000251897
0.00927842
0.000187052
0.0099084
0.0105823
0.000114884
2.85605e-05
0.000265916
0.00010361
0.000866198
0.000213108
0.00156278
0.000338757
0.00231484
0.000459925
0.0030626
0.000559887
0.00374895
0.000630226
0.00434057
0.000671082
0.00483556
0.000688123
0.00525635
0.000688615
0.00563554
0.000678592
0.00600335
0.00066183
0.00638152
0.000640131
0.00678308
0.000614127
0.0072152
0.00058388
0.00768209
0.000549253
0.00818704
0.000510034
0.00873291
0.000465994
0.00932246
0.000416757
0.00995764
0.010637
0.00036207
2.83001e-05
0.000237615
0.000104551
0.000789948
0.000218926
0.00144841
0.000354687
0.00217908
0.000491113
0.00292617
0.000609659
0.00363041
0.000699334
0.00425089
0.000758153
0.00477674
0.000790798
0.00522371
0.000804658
0.00562168
0.00080653
0.00600148
0.000801045
0.00638701
0.000790657
0.00679347
0.00077637
0.00722949
0.000758442
0.00770002
0.000736849
0.00820863
0.000711439
0.00875832
0.000682061
0.00935184
0.000648503
0.00999119
0.0106753
0.000610225
2.77216e-05
0.000209894
0.000104255
0.000713414
0.00022214
0.00133052
0.000366634
0.00203459
0.000517498
0.00277531
0.00065472
0.00349319
0.000764668
0.00414095
0.000842848
0.00469856
0.000892501
0.00517406
0.00092083
0.00559335
0.000935292
0.00598701
0.000941448
0.00638085
0.000942527
0.00679239
0.000940021
0.007232
0.000934447
0.0077056
0.000925914
0.00821716
0.000914359
0.00876987
0.000899696
0.0093665
0.000881664
0.0100092
0.0106972
0.000859723
2.6846e-05
0.000183048
0.000102747
0.000637514
0.000222677
0.00121059
0.000374268
0.001883
0.00053838
0.0026112
0.000694038
0.00333753
0.000825031
0.00400995
0.000924013
0.00459957
0.000992277
0.00510579
0.00103643
0.0055492
0.0010644
0.00595904
0.0010827
0.00636255
0.00109548
0.00677961
0.00110483
0.00722264
0.00111164
0.00769879
0.00111618
0.00821262
0.00111849
0.00876757
0.00111853
0.00936646
0.00111603
0.0100117
0.0107028
0.00111044
2.57016e-05
0.000157346
0.000100083
0.000563132
0.000220534
0.00109014
0.00037735
0.00172618
0.000553123
0.00243543
0.000726552
0.0031641
0.000879093
0.00385741
0.00100029
0.00447838
0.00108895
0.00501714
0.00115055
0.00548759
0.00119322
0.00591637
0.00122438
0.00633139
0.00124919
0.0067548
0.00127055
0.00720128
0.00128977
0.00767956
0.00130738
0.00819501
0.00132354
0.00875141
0.00133828
0.00935172
0.00135137
0.00999864
0.010692
0.00136215
2.43234e-05
0.000133023
9.63535e-05
0.000491102
0.000215789
0.000970706
0.000375765
0.0015662
0.000561199
0.00224999
0.000751228
0.00297407
0.000925425
0.00368322
0.00107011
0.0043337
0.00118107
0.00490618
0.00126205
0.0054066
0.00132095
0.00585748
0.00136594
0.0062864
0.00140329
0.00671744
0.00143685
0.00716772
0.00146855
0.00764787
0.00149924
0.00816432
0.00152924
0.00872141
0.00155866
0.0093223
0.00158739
0.00996991
0.0106648
0.00161461
2.27518e-05
0.000110271
9.16772e-05
0.000422177
0.000208597
0.000853786
0.000369538
0.00140526
0.000562241
0.00205729
0.000767122
0.00276919
0.000962546
0.00348779
0.00113171
0.00416454
0.00126691
0.00477097
0.0013695
0.00530402
0.00144652
0.00578046
0.00150666
0.00622626
0.00155731
0.00666679
0.00160341
0.00712162
0.0016477
0.00760358
0.00169147
0.00812055
0.00173528
0.0086776
0.00177936
0.00927822
0.00182374
0.00992553
0.0106211
0.00186744
2.10307e-05
8.92402e-05
8.61984e-05
0.000357009
0.000199195
0.00074079
0.000358852
0.0012456
0.000556093
0.00186005
0.000773459
0.00255182
0.000989003
0.00327225
0.00118316
0.00397038
0.00134446
0.00460967
0.00147108
0.00517739
0.00156855
0.005683
0.00164559
0.00614921
0.00171062
0.00660177
0.0017698
0.00706243
0.00182688
0.0075465
0.00188378
0.00806365
0.00194139
0.00862
0.00200008
0.00921952
0.00206009
0.00986553
0.010561
0.00212023
1.92063e-05
7.00339e-05
8.00804e-05
0.000296135
0.000187884
0.000632986
0.000344046
0.00108944
0.000542852
0.00166124
0.000769726
0.00232495
0.00100347
0.0030385
0.00122247
0.00375138
0.00141139
0.00442075
0.00156462
0.00502417
0.00168526
0.00556236
0.00178146
0.00605301
0.00186237
0.00652086
0.00193547
0.00698933
0.00200571
0.00747626
0.00207585
0.00799351
0.00214724
0.0085486
0.0022205
0.00914626
0.00229608
0.00978994
0.0104844
0.00237262
1.73242e-05
5.27097e-05
7.34972e-05
0.000239962
0.000175023
0.00053146
0.000325612
0.000938854
0.000522887
0.00146397
0.000755758
0.00209208
0.0010049
0.00278936
0.00124767
0.00350861
0.00146518
0.00420324
0.00164749
0.00484186
0.00179438
0.00541547
0.00191255
0.00593484
0.00201142
0.00642199
0.00209969
0.00690105
0.0021837
0.00739226
0.00226729
0.00790992
0.00235251
0.00846339
0.00244028
0.00905849
0.00253139
0.00969884
0.0103916
0.00262424
1.54281e-05
3.72816e-05
6.6626e-05
0.000188764
0.000161004
0.000437082
0.000304162
0.000795696
0.000496849
0.00127128
0.0007318
0.00185713
0.000992642
0.00252851
0.001257
0.00324426
0.00150317
0.00395706
0.00171668
0.00462836
0.00189309
0.00523906
0.00203661
0.00579132
0.00215617
0.00630243
0.00226143
0.00679579
0.0023602
0.00729349
0.00245768
0.00781245
0.00255684
0.00836422
0.0026591
0.00895623
0.00276567
0.00959226
0.0102825
0.00287473
1.35581e-05
2.37235e-05
5.96385e-05
0.000142684
0.000146233
0.000350487
0.0002804
0.00066153
0.000465632
0.00108605
0.000698554
0.00162421
0.000966595
0.00226047
0.00124911
0.00296174
0.00152279
0.00368338
0.00176887
0.00438227
0.00197799
0.00502994
0.00215071
0.0056186
0.00229445
0.00615869
0.00241925
0.006671
0.00253432
0.00717841
0.00264643
0.00770034
0.00275981
0.00825084
0.00287658
0.00883946
0.00299857
0.00947027
0.0101573
0.00312374
1.1749e-05
1.19745e-05
5.26939e-05
0.000101739
0.000131111
0.000272069
0.000255075
0.000537566
0.000430329
0.000910793
0.000657157
0.00139738
0.000927319
0.00199031
0.00122329
0.00266577
0.00152179
0.00338489
0.0018006
0.00410346
0.00204514
0.00478539
0.00225118
0.00541257
0.00242332
0.00598655
0.00257107
0.00652325
0.00270474
0.00704475
0.00283274
0.00757233
0.0029609
0.00812269
0.00309232
0.00870803
0.00322972
0.00933288
0.0100162
0.0033709
1.00298e-05
1.94475e-06
4.59334e-05
6.58354e-05
0.000116013
0.00020199
0.00022894
0.000424639
0.00039215
0.000747583
0.000609122
0.00118041
0.000876067
0.00172337
0.00117971
0.00236212
0.0014986
0.00306601
0.0018086
0.00379346
0.00209021
0.00450379
0.00233352
0.00516926
0.0025389
0.00578117
0.00271402
0.00634812
0.00286955
0.00688923
0.00301545
0.00742642
0.0031594
0.00797874
0.00330585
0.00856158
0.00345871
0.00918002
0.00985902
0.00361585
8.42359e-06
-6.47884e-06
3.94767e-05
3.47823e-05
0.000101274
0.000140193
0.000202709
0.000323204
0.000352346
0.000597946
0.00055623
0.000976521
0.000814741
0.00146486
0.00111952
0.00205735
0.00145267
0.00273285
0.00179019
0.00345594
0.00210877
0.00418521
0.00239253
0.00488549
0.00263624
0.00553746
0.00284411
0.00614025
0.00302594
0.0067074
0.00319278
0.00725958
0.00335424
0.00781728
0.00351649
0.00839934
0.00368508
0.00901143
0.00968592
0.00385818
6.94678e-06
-1.34256e-05
3.34202e-05
8.30883e-06
8.71785e-05
8.64342e-05
0.000177027
0.000233356
0.000312128
0.000462844
0.00050039
0.000788259
0.000745756
0.00121949
0.00104488
0.00175822
0.00138478
0.00239295
0.00174381
0.00309691
0.00209684
0.00383217
0.00242263
0.0045597
0.00270936
0.00525073
0.00295602
0.00589359
0.00316988
0.00649353
0.00336204
0.00706742
0.00354381
0.00763552
0.00372329
0.00821985
0.00390819
0.00882653
0.00949667
0.00409744
5.61131e-06
-1.90369e-05
2.78378e-05
-1.39177e-05
7.39595e-05
4.03125e-05
0.000152444
0.000154871
0.000272601
0.000342687
0.000443494
0.000617367
0.00067183
0.000991154
0.000958854
0.0014712
0.00129717
0.00205464
0.00166952
0.00272456
0.00205156
0.00345013
0.00241834
0.00419292
0.00275141
0.00491766
0.00304299
0.00560201
0.00329577
0.00624076
0.0035192
0.00684399
0.00372552
0.00742919
0.00392475
0.00802063
0.00412717
0.00862412
0.00929078
0.00433305
4.42446e-06
-2.34614e-05
2.27823e-05
-3.22755e-05
6.17939e-05
1.30083e-06
0.000129409
8.72565e-05
0.000234714
0.000237381
0.000387298
0.000464783
0.000595751
0.000782701
0.000865094
0.00120185
0.00119345
0.00172628
0.00156935
0.00234866
0.00197193
0.00304756
0.0023752
0.00378965
0.00275531
0.00453755
0.00309693
0.00526039
0.0033961
0.0059416
0.00365836
0.00658173
0.00389536
0.00719219
0.0041184
0.00779759
0.00434055
0.00840196
0.00906709
0.00456424
3.38949e-06
-2.68509e-05
1.82867e-05
-4.71727e-05
5.08058e-05
-3.12183e-05
0.000108257
2.9805e-05
0.000199233
0.000146405
0.000333318
0.000330699
0.000520148
0.000595871
0.000767496
0.000954506
0.00107831
0.00141547
0.00144739
0.00197958
0.00185948
0.00263547
0.00229083
0.00335831
0.00271475
0.00411363
0.003109
0.00486614
0.00346149
0.00558911
0.00377131
0.0062719
0.00404718
0.00691632
0.00430023
0.00754454
0.00454601
0.00815618
0.00882358
0.00478952
2.50619e-06
-2.93571e-05
1.43659e-05
-5.90324e-05
4.10687e-05
-5.7921e-05
8.9218e-05
-1.83443e-05
0.000166725
6.88979e-05
0.00028277
0.000214653
0.000447313
0.000431328
0.000669825
0.000731995
0.000956967
0.00112833
0.00130938
0.00162717
0.00171856
0.00222628
0.00216593
0.00291094
0.00262558
0.00365397
0.00307075
0.00442097
0.00348116
0.0051787
0.00384731
0.00590576
0.00417204
0.00659159
0.0044638
0.00725277
0.00473948
0.0078805
0.00855597
0.00500709
1.77087e-06
-3.11279e-05
1.1017e-05
-6.82786e-05
3.26068e-05
-7.95108e-05
7.24119e-05
-5.81493e-05
0.000137556
3.75367e-06
0.000236538
0.000115672
0.000379075
0.000288791
0.000575388
0.000535681
0.000834597
0.000869116
0.00116206
0.00129971
0.00155602
0.00183231
0.00200494
0.00246202
0.00248741
0.00317151
0.00297596
0.00393242
0.00344425
0.0047104
0.00387341
0.0054766
0.00425766
0.00620735
0.00459949
0.00691093
0.00491408
0.00756592
0.00825766
0.00521239
1.17606e-06
-3.2304e-05
8.21938e-06
-7.53219e-05
2.53973e-05
-9.66888e-05
5.7858e-05
-9.06099e-05
0.000111895
-5.02829e-05
0.00019516
3.24068e-05
0.000316732
0.000167219
0.000486818
0.000365595
0.0007158
0.000640135
0.00101232
0.00100319
0.00138034
0.00146429
0.00181584
0.00202652
0.00230457
0.00268278
0.00282279
0.0034142
0.00334209
0.0041911
0.00383602
0.00498267
0.00428863
0.00575473
0.00469309
0.00650647
0.00505993
0.00719908
0.00791939
0.0053982
7.10306e-07
-3.30143e-05
5.93498e-06
-8.05466e-05
1.93716e-05
-0.000110125
4.54779e-05
-0.000116716
8.97246e-05
-9.45297e-05
0.000158846
-3.67149e-05
0.000261038
6.50277e-05
0.000405947
0.000220686
0.000604226
0.000441856
0.000866345
0.000741073
0.00120041
0.00113023
0.00160906
0.00161786
0.00208625
0.00220559
0.00261543
0.00288502
0.00317116
0.00363537
0.00372359
0.00443024
0.00424829
0.00523003
0.00472658
0.00602819
0.00515854
0.00676712
0.00751671
0.00556122
3.58151e-07
-3.33725e-05
4.10904e-06
-8.42974e-05
1.44196e-05
-0.000120436
3.51068e-05
-0.000137403
7.08623e-05
-0.000130285
0.000127503
-9.33558e-05
0.000212228
-1.96973e-05
0.000333783
9.91306e-05
0.000502367
0.000273272
0.000729043
0.000514398
0.00102434
0.000834929
0.00139588
0.00124632
0.00184514
0.00175633
0.00236442
0.00236575
0.00293537
0.00306442
0.00353103
0.00383457
0.00412055
0.00464052
0.0046825
0.00546623
0.00518426
0.00626536
0.00704748
0.00565349
1.0106e-07
-3.34735e-05
2.67217e-06
-8.68686e-05
1.03958e-05
-0.00012816
2.65069e-05
-0.000153514
5.49841e-05
-0.000158762
0.000100778
-0.00013915
0.000170078
-8.89969e-05
0.000270563
-1.35492e-06
0.000411521
0.000132314
0.000603688
0.000322231
0.000858517
0.000580099
0.00118663
0.000918214
0.00159526
0.0013477
0.0020851
0.0018759
0.00264692
0.0025026
0.0032623
0.0032192
0.00389899
0.00400382
0.00453508
0.00483014
0.00513752
0.00566292
0.00654609
0.00563892
-8.76205e-08
-3.33859e-05
1.54402e-06
-8.85002e-05
7.1295e-06
-0.000133745
1.93871e-05
-0.000165772
4.16621e-05
-0.000181037
7.81211e-05
-0.000175609
0.000134
-0.000144876
0.000215874
-8.32283e-05
0.000331901
1.62868e-05
0.000491899
0.000162233
0.000707114
0.000364884
0.000989395
0.000635933
0.00134952
0.000987581
0.00179463
0.00143079
0.00232442
0.00197281
0.00293141
0.00261221
0.00358913
0.00334611
0.00427688
0.00414238
0.00497604
0.00496377
0.0059567
0.00556542
-2.22125e-07
-3.31638e-05
6.41725e-07
-8.9364e-05
4.43669e-06
-0.00013754
1.3427e-05
-0.000174762
3.04057e-05
-0.000198016
5.88523e-05
-0.000204056
0.000103146
-0.00018917
0.000168822
-0.000148904
0.000262844
-7.77353e-05
0.000393825