/*--------------------------------*- C++ -*----------------------------------*\
  =========                 |
  \\      /  F ield         | OpenFOAM: The Open Source CFD Toolbox
   \\    /   O peration     | Website:  https://openfoam.org
    \\  /    A nd           | Version:  7
     \\/     M anipulation  |
\*---------------------------------------------------------------------------*/
FoamFile
{
    version     2.0;
    format      ascii;
    class       surfaceScalarField;
    location    "0.8";
    object      phi;
}
// * * * * * * * * * * * * * * * * * * * * * * * * * * * * * * * * * * * * * //

dimensions      [0 3 -1 0 0 0 0];

internalField   nonuniform List<scalar> 
615
(
0.000105173
-4.25497e-12
0.000105173
-3.51787e-12
0.000105173
-2.9934e-12
0.000105173
-2.54095e-12
0.000105173
-2.12057e-12
0.000105173
-1.7163e-12
0.000105173
-1.2868e-12
0.000105173
-7.5661e-13
0.000105173
-2.27997e-14
0.000105173
2.36189e-13
0.000105173
6.1226e-14
0.000105173
7.81017e-14
0.000105173
1.44399e-13
0.000105173
2.36551e-13
0.000105173
3.16864e-13
0.000105173
3.46019e-13
0.000105173
3.21864e-13
0.000105173
2.80968e-13
0.000105173
2.53684e-13
0.000105173
2.29955e-13
0.000105173
1.65045e-13
0.000105173
5.96512e-14
0.000105173
-1.26185e-13
-1.58381e-13
9.799e-05
4.00331e-12
9.799e-05
5.44833e-12
9.79901e-05
5.78342e-12
9.79901e-05
5.68106e-12
9.79901e-05
5.38936e-12
9.79901e-05
5.01671e-12
9.79901e-05
4.63513e-12
9.79901e-05
4.25115e-12
9.79901e-05
3.84407e-12
9.79901e-05
3.44e-12
9.79901e-05
3.08349e-12
9.79901e-05
2.77809e-12
9.79901e-05
2.48696e-12
9.79901e-05
2.20725e-12
9.79901e-05
1.95554e-12
9.79901e-05
1.72928e-12
9.79901e-05
1.52262e-12
9.79901e-05
1.33929e-12
9.79901e-05
1.17446e-12
9.79901e-05
1.0026e-12
9.79901e-05
8.23199e-13
9.79901e-05
6.65966e-13
9.79901e-05
5.44405e-13
9.79901e-05
4.62424e-13
9.79901e-05
4.21487e-13
9.79901e-05
4.33016e-13
9.79901e-05
4.41102e-13
9.79901e-05
3.57136e-13
9.79901e-05
1.93772e-13
9.79901e-05
-1.68867e-14
9.79901e-05
-2.30887e-13
9.79901e-05
-4.58099e-13
9.79901e-05
-6.44218e-13
9.79901e-05
-7.71073e-13
9.79901e-05
-7.18433e-13
9.79901e-05
-6.82926e-13
9.79901e-05
-8.81657e-13
9.79901e-05
-1.12279e-12
9.79901e-05
-1.35791e-12
9.79901e-05
-1.58539e-12
9.79901e-05
-1.89666e-12
9.79901e-05
-2.37383e-12
9.79901e-05
-3.41792e-12
9.79901e-05
-3.72853e-12
9.79901e-05
-3.03229e-12
9.79901e-05
-2.61629e-12
9.79901e-05
-2.27119e-12
9.79901e-05
-1.91299e-12
9.79901e-05
-1.54878e-12
9.79901e-05
-1.16703e-12
9.79901e-05
-7.0438e-13
9.79901e-05
-1.19516e-13
9.79901e-05
1.4513e-14
9.79901e-05
-1.31203e-13
9.79901e-05
-3.60331e-14
9.79901e-05
7.84558e-14
9.79901e-05
1.79153e-13
9.79901e-05
2.52108e-13
9.79901e-05
2.85123e-13
9.79901e-05
2.7899e-13
9.79901e-05
2.51309e-13
9.79901e-05
2.19313e-13
9.79901e-05
1.837e-13
9.79901e-05
1.23412e-13
9.79901e-05
4.05658e-14
9.79901e-05
-1.12793e-13
-1.43118e-13
9.02089e-05
3.43707e-12
9.02089e-05
4.83189e-12
9.02089e-05
5.1318e-12
9.02089e-05
4.97458e-12
9.02089e-05
4.67665e-12
9.02089e-05
4.33022e-12
9.02089e-05
3.97323e-12
9.02089e-05
3.61376e-12
9.02089e-05
3.25583e-12
9.02089e-05
2.91602e-12
9.02089e-05
2.60911e-12
9.02089e-05
2.33612e-12
9.02089e-05
2.08223e-12
9.02089e-05
1.84691e-12
9.02089e-05
1.63245e-12
9.02089e-05
1.43817e-12
9.02089e-05
1.27026e-12
9.02089e-05
1.13112e-12
9.02089e-05
1.00331e-12
9.02089e-05
8.5767e-13
9.02089e-05
6.96609e-13
9.02089e-05
5.5547e-13
9.02089e-05
4.56039e-13
9.02089e-05
4.01152e-13
9.02089e-05
3.80783e-13
9.02089e-05
3.92687e-13
9.02089e-05
3.95444e-13
9.02089e-05
3.27996e-13
9.02089e-05
1.96849e-13
9.02089e-05
2.1208e-14
9.02089e-05
-1.59038e-13
9.02089e-05
-3.37391e-13
9.02089e-05
-4.66219e-13
9.02089e-05
-5.29328e-13
9.02089e-05
-4.65905e-13
9.02089e-05
-4.45763e-13
9.02089e-05
-6.17846e-13
9.02089e-05
-8.34665e-13
9.02089e-05
-1.06539e-12
9.02089e-05
-1.30927e-12
9.02089e-05
-1.62938e-12
9.02089e-05
-2.06904e-12
9.02089e-05
-2.90882e-12
9.02089e-05
-2.99486e-12
9.02089e-05
-2.3837e-12
9.02089e-05
-2.18074e-12
9.02089e-05
-1.94965e-12
9.02089e-05
-1.66534e-12
9.02089e-05
-1.35445e-12
9.02089e-05
-1.04066e-12
9.02089e-05
-6.88406e-13
9.02089e-05
-4.12016e-13
9.02089e-05
-3.98141e-13
9.02089e-05
-3.55664e-13
9.02089e-05
-1.53931e-13
9.02089e-05
1.31509e-14
9.02089e-05
1.21521e-13
9.02089e-05
1.87861e-13
9.02089e-05
2.25272e-13
9.02089e-05
2.35783e-13
9.02089e-05
2.19034e-13
9.02089e-05
1.82077e-13
9.02089e-05
1.3699e-13
9.02089e-05
8.45447e-14
9.02089e-05
2.52721e-14
9.02089e-05
-1.04405e-13
-1.32813e-13
8.18262e-05
2.89918e-12
8.18262e-05
4.27717e-12
8.18262e-05
4.42552e-12
8.18262e-05
4.21376e-12
8.18262e-05
3.92262e-12
8.18262e-05
3.6186e-12
8.18262e-05
3.2972e-12
8.18262e-05
2.97027e-12
8.18262e-05
2.66588e-12
8.18262e-05
2.39248e-12
8.18262e-05
2.13671e-12
8.18262e-05
1.89912e-12
8.18262e-05
1.68416e-12
8.18262e-05
1.49365e-12
8.18262e-05
1.31678e-12
8.18262e-05
1.15331e-12
8.18262e-05
1.02211e-12
8.18262e-05
9.27201e-13
8.18262e-05
8.38956e-13
8.18262e-05
7.18881e-13
8.18262e-05
5.71879e-13
8.18262e-05
4.44133e-13
8.18262e-05
3.67495e-13
8.18262e-05
3.39174e-13
8.18262e-05
3.35179e-13
8.18262e-05
3.44272e-13
8.18262e-05
3.41476e-13
8.18262e-05
2.88381e-13
8.18262e-05
1.85618e-13
8.18262e-05
4.09253e-14
8.18262e-05
-1.07009e-13
8.18262e-05
-2.39534e-13
8.18262e-05
-3.18132e-13
8.18262e-05
-3.39687e-13
8.18262e-05
-2.79269e-13
8.18262e-05
-2.70232e-13
8.18262e-05
-4.10321e-13
8.18262e-05
-5.91776e-13
8.18262e-05
-8.04245e-13
8.18262e-05
-1.04787e-12
8.18262e-05
-1.35133e-12
8.18262e-05
-1.71812e-12
8.18262e-05
-2.19716e-12
8.18262e-05
-2.14522e-12
8.18262e-05
-1.79161e-12
8.18262e-05
-1.73742e-12
8.18262e-05
-1.60807e-12
8.18262e-05
-1.39618e-12
8.18262e-05
-1.14231e-12
8.18262e-05
-9.07418e-13
8.18262e-05
-7.10396e-13
8.18262e-05
-7.43981e-13
8.18262e-05
-8.27106e-13
8.18262e-05
-5.7167e-13
8.18262e-05
-2.42024e-13
8.18262e-05
-3.60984e-14
8.18262e-05
7.05234e-14
8.18262e-05
1.26062e-13
8.18262e-05
1.67059e-13
8.18262e-05
1.9407e-13
8.18262e-05
1.87168e-13
8.18262e-05
1.44063e-13
8.18262e-05
8.97466e-14
8.18262e-05
4.74194e-14
8.18262e-05
1.57514e-14
8.18262e-05
-7.30527e-14
-1.01029e-13
7.28407e-05
2.59741e-12
7.28407e-05
3.71623e-12
7.28407e-05
3.68873e-12
7.28407e-05
3.41582e-12
7.28407e-05
3.14713e-12
7.28407e-05
2.90452e-12
7.28407e-05
2.62586e-12
7.28407e-05
2.33388e-12
7.28407e-05
2.08752e-12
7.28407e-05
1.88451e-12
7.28407e-05
1.67902e-12
7.28407e-05
1.47604e-12
7.28407e-05
1.30064e-12
7.28407e-05
1.15556e-12
7.28407e-05
1.01478e-12
7.28407e-05
8.78556e-13
7.28407e-05
7.81949e-13
7.28407e-05
7.32739e-13
7.28407e-05
6.86524e-13
7.28407e-05
5.89943e-13
7.28407e-05
4.51203e-13
7.28407e-05
3.32835e-13
7.28407e-05
2.79115e-13
7.28407e-05
2.77721e-13
7.28407e-05
2.8762e-13
7.28407e-05
2.90956e-13
7.28407e-05
2.8133e-13
7.28407e-05
2.40633e-13
7.28407e-05
1.63291e-13
7.28407e-05
4.48528e-14
7.28407e-05
-7.4463e-14
7.28407e-05
-1.65037e-13
7.28407e-05
-1.98491e-13
7.28407e-05
-1.92608e-13
7.28407e-05
-1.45446e-13
7.28407e-05
-1.48467e-13
7.28407e-05
-2.54529e-13
7.28407e-05
-3.91469e-13
7.28407e-05
-5.74783e-13
7.28407e-05
-8.07967e-13
7.28407e-05
-1.08258e-12
7.28407e-05
-1.36289e-12
7.28407e-05
-1.60379e-12
7.28407e-05
-1.47773e-12
7.28407e-05
-1.2782e-12
7.28407e-05
-1.31986e-12
7.28407e-05
-1.273e-12
7.28407e-05
-1.12336e-12
7.28407e-05
-9.20859e-13
7.28407e-05
-7.63252e-13
7.28407e-05
-7.16921e-13
7.28407e-05
-1.09567e-12
7.28407e-05
7.28407e-05
7.28407e-05
7.28407e-05
7.28407e-05
7.28407e-05
7.28407e-05
7.28407e-05
7.28407e-05
7.28407e-05
7.28407e-05
7.28407e-05
7.28407e-05
7.28407e-05
6.32536e-05
6.32536e-05
6.32536e-05
6.32536e-05
6.32536e-05
6.32536e-05
6.32536e-05
6.32536e-05
6.32536e-05
6.32536e-05
6.32536e-05
6.32536e-05
6.32536e-05
6.32536e-05
6.32536e-05
6.32536e-05
6.32536e-05
6.32536e-05
6.32536e-05
6.32536e-05
6.32536e-05
6.32536e-05
6.32536e-05
6.32536e-05
6.32536e-05
6.32536e-05
6.32536e-05
6.32536e-05
6.32536e-05
6.32536e-05
6.32536e-05
6.32536e-05
6.32536e-05
6.32536e-05
6.32536e-05
6.32536e-05
6.32536e-05
6.32536e-05
6.32536e-05
6.32536e-05
6.32536e-05
6.32536e-05
6.32536e-05
6.32536e-05
6.32536e-05
6.32536e-05
6.32536e-05
6.32536e-05
6.32536e-05
6.32536e-05
6.32536e-05
)
;

boundaryField
{
    inlet
    {
        type            calculated;
        value           nonuniform 0();
    }
    outlet
    {
        type            calculated;
        value           nonuniform List<scalar> 5(0.000105173 9.79901e-05 9.02089e-05 8.18262e-05 7.28407e-05);
    }
    wall
    {
        type            calculated;
        value           nonuniform 0();
    }
    wedge1
    {
        type            wedge;
        value           nonuniform List<scalar> 
344
(
-1.56868e-20
-1.22252e-20
-1.00062e-20
-8.02689e-21
-5.31346e-21
-1.60662e-20
-1.31752e-20
-1.07371e-20
-9.27306e-21
-5.89694e-21
-1.82192e-20
-1.52984e-20
-1.30854e-20
-1.08188e-20
-6.77408e-21
-1.68732e-20
-1.44044e-20
-1.19301e-20
-1.02221e-20
-6.50649e-21
-1.50805e-20
-1.17272e-20
-9.56214e-21
-7.63624e-21
-4.80084e-21
-1.49429e-20
-1.18975e-20
-9.43007e-21
-7.92322e-21
-5.02514e-21
-1.35611e-20
-1.00484e-20
-7.80614e-21
-5.98885e-21
-3.61936e-21
-1.36432e-20
-1.06457e-20
-8.26099e-21
-6.85459e-21
-4.50541e-21
-1.30614e-20
-9.56425e-21
-7.44559e-21
-5.6191e-21
-3.58546e-21
-1.37323e-20
-1.09989e-20
-8.74037e-21
-7.27217e-21
-4.96248e-21
-1.60504e-20
-1.31827e-20
-1.1086e-20
-8.8915e-21
-6.16797e-21
-1.55009e-20
-1.31128e-20
-1.07657e-20
-8.97314e-21
-6.38983e-21
-1.47892e-20
-1.22948e-20
-1.00871e-20
-8.44767e-21
-6.15149e-21
-1.3503e-20
-1.04211e-20
-8.31347e-21
-6.42262e-21
-4.64965e-21
-1.32768e-20
-1.05739e-20
-8.30874e-21
-6.80846e-21
-5.04466e-21
-1.24842e-20
-9.31899e-21
-7.30786e-21
-5.4814e-21
-4.05372e-21
-1.2591e-20
-9.85521e-21
-7.65215e-21
-6.16836e-21
-4.59489e-21
-1.20031e-20
-8.93588e-21
-6.94157e-21
-5.17144e-21
-3.83562e-21
-1.27454e-20
-1.01734e-20
-8.04982e-21
-6.5105e-21
-4.93349e-21
-1.46596e-20
-1.21006e-20
-1.01659e-20
-8.03004e-21
-6.03888e-21
-1.38743e-20
-1.16636e-20
-9.55186e-21
-7.80361e-21
-6.05449e-21
-1.27994e-20
-1.00615e-20
-8.23037e-21
-6.36986e-21
-5.0757e-21
-1.30333e-20
-1.0718e-20
-8.68325e-21
-7.11122e-21
-5.64927e-21
-1.45653e-20
-1.21657e-20
-1.03524e-20
-8.27393e-21
-6.41262e-21
-1.36581e-20
-1.15522e-20
-9.58726e-21
-7.93754e-21
-6.30173e-21
-1.24879e-20
-9.92074e-21
-8.17216e-21
-6.41576e-21
-5.17958e-21
-1.26566e-20
-1.0471e-20
-8.60034e-21
-7.17423e-21
-5.77434e-21
-1.4029e-20
-1.1759e-20
-1.00034e-20
-8.04806e-21
-6.25262e-21
-1.3212e-20
-1.12081e-20
-9.30566e-21
-7.63415e-21
-6.09429e-21
-1.20085e-20
-9.56917e-21
-7.85618e-21
-6.1708e-21
-5.03543e-21
-1.17621e-20
-9.5648e-21
-7.70378e-21
-6.3418e-21
-5.18055e-21
-1.11011e-20
-8.56689e-21
-6.85025e-21
-5.2353e-21
-4.3559e-21
-1.10593e-20
-8.80958e-21
-6.91545e-21
-5.53297e-21
-4.57045e-21
-1.0692e-20
-8.19481e-21
-6.48025e-21
-4.84246e-21
-4.02574e-21
-1.11741e-20
-9.12177e-21
-7.31918e-21
-5.93058e-21
-4.79446e-21
-1.24844e-20
-1.03115e-20
-8.65387e-21
-6.80583e-21
-5.43174e-21
-1.19966e-20
-1.01241e-20
-8.29442e-21
-6.71055e-21
-5.43274e-21
-1.15583e-20
-9.58865e-21
-7.90689e-21
-6.3511e-21
-5.28962e-21
-1.07424e-20
-8.52749e-21
-6.88916e-21
-5.27402e-21
-4.56679e-21
-1.0617e-20
-8.62511e-21
-6.90318e-21
-5.49402e-21
-4.79645e-21
-1.01049e-20
-7.85179e-21
-6.2766e-21
-4.67838e-21
-4.2882e-21
-1.00955e-20
-8.09675e-21
-6.44899e-21
-4.99615e-21
-4.62355e-21
-9.63209e-21
-7.50048e-21
-6.01088e-21
-4.43247e-21
-4.31379e-21
-1.14195e-20
-9.81613e-21
-7.98357e-21
-6.42549e-21
-5.03324e-21
-4.70678e-21
-1.20276e-20
-1.0653e-20
-8.81828e-21
-7.37876e-21
-5.74337e-21
-5.10824e-21
-1.17218e-20
-1.02423e-20
-8.58663e-21
-7.08208e-21
-5.61855e-21
-5.07459e-21
-1.12664e-20
-9.56641e-21
-7.70332e-21
-6.30951e-21
-4.85951e-21
-4.50161e-21
-1.12452e-20
-9.61757e-21
-7.93728e-21
-6.48069e-21
-5.18266e-21
-4.66729e-21
-1.16671e-20
-1.02119e-20
-8.48782e-21
-7.14188e-21
-5.61628e-21
-4.88814e-21
-1.13847e-20
-9.83495e-21
-8.28006e-21
-6.84718e-21
-5.52548e-21
-4.79171e-21
-1.10368e-20
-9.2946e-21
-7.57079e-21
-6.26023e-21
-4.92468e-21
-4.38978e-21
-1.10551e-20
-9.31987e-21
-7.73633e-21
-6.37695e-21
-5.12582e-21
-4.71165e-21
-1.13482e-20
-9.72699e-21
-8.16338e-21
-6.85157e-21
-5.45371e-21
-1.10099e-20
-9.38314e-21
-7.90809e-21
-6.58964e-21
-5.33267e-21
-1.06445e-20
-8.88971e-21
-7.29242e-21
-6.0345e-21
-4.82473e-21
-1.04626e-20
-8.74002e-21
-7.23492e-21
-5.93615e-21
-4.87777e-21
-1.02077e-20
-8.43663e-21
-6.85819e-21
-5.62552e-21
-4.53987e-21
-1.0119e-20
-8.42442e-21
-6.95356e-21
-5.70875e-21
-4.69929e-21
-1.00666e-20
-8.39979e-21
-6.96569e-21
-5.73923e-21
-4.73919e-21
-1.00681e-20
-8.42224e-21
-6.85863e-21
-5.63651e-21
-4.592e-21
-9.9394e-21
-8.31606e-21
-6.89577e-21
-5.68262e-21
-4.69175e-21
-9.78243e-21
-8.21676e-21
-6.85924e-21
-5.6785e-21
-4.69495e-21
-9.62967e-21
-8.09447e-21
-6.76103e-21
-5.59823e-21
-4.62234e-21
-9.43183e-21
-7.94088e-21
-6.62077e-21
-5.47667e-21
-4.50112e-21
-9.1088e-21
-7.64271e-21
-6.31857e-21
-5.17452e-21
-4.1991e-21
-8.87916e-21
-7.47837e-21
-6.21406e-21
-5.11339e-21
-4.17073e-21
-8.71775e-21
-7.3602e-21
-6.13687e-21
-5.07463e-21
-4.15741e-21
)
;
    }
    wedge2
    {
        type            wedge;
        value           nonuniform List<scalar> 
344
(
1.51952e-20
1.18121e-20
9.65845e-21
7.1199e-21
7.07177e-21
1.54188e-20
1.26007e-20
1.02354e-20
7.95916e-21
8.36726e-21
1.75208e-20
1.46777e-20
1.25476e-20
9.45039e-21
9.24133e-21
1.61816e-20
1.37962e-20
1.14096e-20
8.92126e-21
8.79257e-21
1.44205e-20
1.11529e-20
9.0762e-21
6.43786e-21
6.87362e-21
1.4327e-20
1.13663e-20
8.98494e-21
6.83644e-21
6.88769e-21
1.29936e-20
9.56212e-21
7.40154e-21
5.00781e-21
5.2902e-21
1.31238e-20
1.02029e-20
7.89383e-21
5.96781e-21
6.00717e-21
1.25883e-20
9.16209e-21
7.11283e-21
4.8173e-21
4.93724e-21
1.33032e-20
1.06349e-20
8.43973e-21
6.54955e-21
6.1774e-21
1.5663e-20
1.28545e-20
1.08156e-20
8.24324e-21
7.25614e-21
1.51529e-20
1.28186e-20
1.05238e-20
8.39435e-21
7.35999e-21
1.44781e-20
1.20328e-20
9.87233e-21
7.93468e-21
7.01046e-21
1.32267e-20
1.01892e-20
8.12417e-21
5.97153e-21
5.40489e-21
1.30327e-20
1.03698e-20
8.14283e-21
6.41425e-21
5.70557e-21
1.22695e-20
9.13987e-21
7.1627e-21
5.13702e-21
4.63181e-21
1.24025e-20
9.69817e-21
7.52491e-21
5.86641e-21
5.10138e-21
1.18386e-20
8.79888e-21
6.83042e-21
4.90738e-21
4.2778e-21
1.26036e-20
1.00552e-20
7.95376e-21
6.28197e-21
5.31591e-21
1.45393e-20
1.19998e-20
1.00838e-20
7.83434e-21
6.36717e-21
1.37739e-20
1.15786e-20
9.48212e-21
7.63708e-21
6.33504e-21
1.2717e-20
9.99073e-21
8.17174e-21
6.22933e-21
5.31348e-21
1.29672e-20
1.06604e-20
8.63497e-21
6.99451e-21
5.84835e-21
1.45111e-20
1.21178e-20
1.03119e-20
8.1746e-21
6.58455e-21
1.36092e-20
1.15087e-20
9.55002e-21
7.84528e-21
6.46358e-21
1.24382e-20
9.87642e-21
8.1342e-21
6.32128e-21
5.34594e-21
1.26076e-20
1.04274e-20
8.56274e-21
7.07992e-21
5.94081e-21
1.39911e-20
1.17242e-20
9.97273e-21
7.96905e-21
6.39489e-21
1.31934e-20
1.11892e-20
9.28758e-21
7.58413e-21
6.19001e-21
1.2015e-20
9.57112e-21
7.85489e-21
6.16002e-21
5.0667e-21
1.17964e-20
9.5899e-21
7.72097e-21
6.37389e-21
5.14083e-21
1.11655e-20
8.61618e-21
6.88626e-21
5.31022e-21
4.24679e-21
1.11487e-20
8.87738e-21
6.9649e-21
5.63656e-21
4.41761e-21
1.0799e-20
8.27218e-21
6.53435e-21
4.9514e-21
3.87248e-21
1.12773e-20
9.19252e-21
7.36564e-21
6.01708e-21
4.68504e-21
1.25837e-20
1.03794e-20
8.6979e-21
6.88566e-21
5.33551e-21
1.21177e-20
1.02117e-20
8.35531e-21
6.83156e-21
5.26736e-21
1.17057e-20
9.70129e-21
7.99053e-21
6.53077e-21
5.02279e-21
1.09148e-20
8.66513e-21
6.99639e-21
5.51655e-21
4.18715e-21
1.08143e-20
8.78852e-21
7.03479e-21
5.80172e-21
4.29673e-21
1.0337e-20
8.05047e-21
6.44048e-21
5.06895e-21
3.63977e-21
1.03836e-20
8.34929e-21
6.65854e-21
5.49424e-21
3.79899e-21
1.00452e-20
7.85578e-21
6.29088e-21
5.04974e-21
3.3499e-21
1.29251e-20
1.02736e-20
8.36073e-21
6.70812e-21
5.62788e-21
3.81631e-21
1.33205e-20
1.10285e-20
9.12194e-21
7.60827e-21
6.246e-21
4.33226e-21
1.28097e-20
1.05585e-20
8.85013e-21
7.29202e-21
6.10207e-21
4.29485e-21
1.2187e-20
9.83731e-21
7.93457e-21
6.49891e-21
5.30783e-21
3.75933e-21
1.20133e-20
9.8454e-21
8.13429e-21
6.64454e-21
5.57725e-21
4.00253e-21
1.22842e-20
1.0396e-20
8.64861e-21
7.2774e-21
5.94872e-21
4.31593e-21
1.18389e-20
9.97173e-21
8.40195e-21
6.95355e-21
5.80087e-21
4.28414e-21
1.12965e-20
9.37366e-21
7.64607e-21
6.33606e-21
5.16353e-21
3.85321e-21
1.10587e-20
9.32549e-21
7.76341e-21
6.43915e-21
5.43292e-21
3.84062e-21
1.12451e-20
9.70991e-21
8.18178e-21
6.91818e-21
5.79667e-21
1.09545e-20
9.38463e-21
7.93487e-21
6.64357e-21
5.55847e-21
1.05827e-20
8.8845e-21
7.30303e-21
6.05938e-21
4.92976e-21
1.03777e-20
8.72288e-21
7.22796e-21
5.93813e-21
4.90495e-21
1.01035e-20
8.41062e-21
6.83978e-21
5.61385e-21
4.52298e-21
1.00061e-20
8.39414e-21
6.92979e-21
5.69071e-21
4.66066e-21
9.95416e-21
8.36866e-21
6.94061e-21
5.71929e-21
4.69172e-21
9.96127e-21
8.392e-21
6.83412e-21
5.61682e-21
4.54248e-21
9.8407e-21
8.28767e-21
6.87262e-21
5.66405e-21
4.64417e-21
9.69471e-21
8.1914e-21
6.83848e-21
5.66193e-21
4.65308e-21
9.55724e-21
8.07373e-21
6.74419e-21
5.58502e-21
4.59043e-21
9.3833e-21
7.92734e-21
6.61025e-21
5.46884e-21
4.48324e-21
9.0895e-21
7.6381e-21
6.31615e-21
5.1738e-21
4.19846e-21
8.9149e-21
7.49026e-21
6.22637e-21
5.12511e-21
4.19718e-21
8.76814e-21
7.37626e-21
6.15242e-21
5.08865e-21
4.18876e-21
)
;
    }
    axis
    {
        type            empty;
        value           nonuniform 0();
    }
    procBoundary41to35
    {
        type            processor;
        value           nonuniform List<scalar> 
68
(
4.29024e-12
3.7763e-12
3.22466e-12
2.73702e-12
2.27183e-12
1.81151e-12
1.32702e-12
7.7496e-13
3.3943e-14
-2.94287e-13
-1.83492e-13
-2.04788e-13
-2.50895e-13
-2.98811e-13
-3.34035e-13
-3.51727e-13
-3.50904e-13
-3.28784e-13
-2.90179e-13
-2.39498e-13
-1.6738e-13
-8.56588e-14
9.07355e-14
1.41461e-13
-4.6987e-12
-5.99149e-12
-6.39023e-12
-6.32612e-12
-6.06526e-12
-5.6949e-12
-5.27242e-12
-4.83308e-12
-4.40053e-12
-3.98834e-12
-3.59446e-12
-3.21823e-12
-2.86664e-12
-2.55105e-12
-2.26651e-12
-2.00604e-12
-1.77361e-12
-1.56797e-12
-1.37433e-12
-1.1751e-12
-9.66202e-13
-7.7506e-13
-6.16643e-13
-5.12058e-13
-4.62165e-13
-4.65069e-13
-4.50989e-13
-3.37854e-13
-1.49579e-13
9.67974e-14
3.59974e-13
6.37252e-13
8.69071e-13
1.08036e-12
1.06939e-12
1.0215e-12
1.22332e-12
1.44316e-12
1.65937e-12
1.89118e-12
2.21042e-12
2.66052e-12
-0.000105173
3.81236e-12
)
;
    }
    procBoundary41to40
    {
        type            processor;
        value           nonuniform List<scalar> 4(-9.799e-05 -9.02089e-05 -8.18262e-05 -7.28407e-05);
    }
    procBoundary41to46
    {
        type            processor;
        value           uniform -6.32536e-05;
    }
    procBoundary41to47
    {
        type            processor;
        value           nonuniform List<scalar> 
68
(
-1.1996e-12
-7.08996e-13
-3.38598e-13
-1.03535e-13
4.16473e-14
1.22212e-13
1.50434e-13
1.4632e-13
1.31489e-13
1.16465e-13
9.7524e-14
6.21813e-14
8.13707e-15
-6.58893e-14
-7.64753e-14
2.22322e-12
3.07258e-12
2.94993e-12
2.70019e-12
2.43187e-12
2.18065e-12
1.95736e-12
1.75711e-12
1.56936e-12
1.39392e-12
1.23822e-12
1.10279e-12
9.80459e-13
8.66804e-13
7.6357e-13
6.72467e-13
5.89987e-13
5.15302e-13
4.48539e-13
3.873e-13
3.32708e-13
2.8491e-13
2.41195e-13
2.10192e-13
1.98947e-13
2.06518e-13
2.14137e-13
1.93335e-13
1.44517e-13
7.40448e-14
-2.21094e-15
-8.1018e-14
-1.27899e-13
-1.26727e-13
-6.9601e-14
-5.73976e-14
-1.51743e-13
-2.86426e-13
-4.32368e-13
-5.76538e-13
-7.49351e-13
-9.58077e-13
-1.12303e-12
-1.0234e-12
-8.97187e-13
-9.20791e-13
-8.80295e-13
-7.95487e-13
-6.96161e-13
-6.40157e-13
-7.09319e-13
6.32536e-05
-1.2415e-12
)
;
    }
}


// ************************************************************************* //
