/*--------------------------------*- C++ -*----------------------------------*\
  =========                 |
  \\      /  F ield         | OpenFOAM: The Open Source CFD Toolbox
   \\    /   O peration     | Website:  https://openfoam.org
    \\  /    A nd           | Version:  7
     \\/     M anipulation  |
\*---------------------------------------------------------------------------*/
FoamFile
{
    version     2.0;
    format      ascii;
    class       volScalarField;
    location    "15";
    object      p;
}
// * * * * * * * * * * * * * * * * * * * * * * * * * * * * * * * * * * * * * //

dimensions      [0 2 -2 0 0 0 0];

internalField   nonuniform List<scalar> 
433
(
-258.306
221.079
210.764
198.31
176.882
146.505
-418.527
-396.31
-376.735
-357.291
-334.649
-308.85
-279.751
-248.823
-218.422
-189.337
-161.281
-134.031
-107.888
-83.7761
-62.7708
-45.5608
-442.929
-417.295
-393.242
-365.87
-331.367
-290.722
-245.977
-200.805
-159.021
-123.691
-95.8236
-74.6681
-58.4448
-45.4546
-34.7438
-26.0192
-19.1917
-14.0627
232.023
225.856
220.762
212.198
199.971
188.236
178.148
168.536
156.809
141.013
121.172
99.255
77.6813
58.2927
42.0254
29.1028
19.2706
522.15
499.617
478.975
449.748
408.052
360.289
311.465
264.968
222.165
183.403
148.667
117.934
91.423
69.1976
51.0096
36.4445
25.0349
52.4497
48.6087
42.5872
30.2046
11.8297
-7.28222
-22.9179
-33.7591
-40.3544
-43.4478
-43.5761
-40.7211
-35.4128
-28.7915
-22.1107
-16.2867
-11.7227
-519.14
-491.668
-466.758
-440.307
-409.107
-374.054
-335.446
-294.85
-254.281
-215.706
-179.737
-146.795
-117.051
-90.7199
-68.1511
-49.6291
-35.1415
-284.291
-266.54
-250.907
-234.537
-213.958
-187.792
-155.905
-120.378
-85.0128
-54.6155
-32.5612
-19.2179
-12.3992
-9.2589
-7.64699
-6.50704
407.06
393.691
381.672
362.572
334.802
304.998
276.416
249.366
222.224
193.584
163.553
133.62
105.203
79.8886
58.5634
41.4139
445.044
424.646
404.927
376.379
335.728
289.485
243.493
201.124
163.25
130.144
101.843
78.1502
58.9838
43.833
31.955
22.6672
15.4493
-185.606
-179.023
-174.424
-172.203
-171.338
-169.427
-164.165
-155.035
-142.789
-128.563
-113.139
-96.6865
-79.7317
-63.2108
-48.184
-35.4609
-25.364
-559.416
-528.406
-500.209
-470.069
-434.425
-394.112
-349.344
-301.835
-253.945
-208.533
-167.781
-132.79
-103.54
-79.3243
-59.4341
-43.4205
-30.9621
-12.4404
-6.40776
-2.35332
-1.73428
-2.27744
0.213667
8.28242
21.4627
36.0257
47.0274
51.1016
48.061
40.2678
30.8071
21.9005
14.5764
9.01202
529.645
509.661
491.801
465.003
426.019
382.183
338.067
295.901
255.752
217.145
180.266
145.617
114.103
86.5922
63.6031
45.1322
30.7977
20.0625
243.773
230.461
216.455
195.437
165.451
132.395
101.502
75.0322
53.0144
35.4424
22.1453
12.7701
6.91691
3.67351
1.97457
1.0009
0.287729
-0.344039
-0.893635
-433.525
-413.646
-395.888
-377.002
-354.979
-330.189
-302.291
-271.614
-239.021
-206.128
-173.966
-143.228
-114.767
-89.267
-67.2856
-49.1869
-34.9869
-24.3465
-16.7256
-430.478
-405.181
-382.934
-360.033
-332.82
-300.67
-262.969
-220.79
-177.008
-135.655
-100.83
-74.345
-55.3774
-41.7994
-31.6452
-23.7636
-17.6552
-13.0273
-9.632
-7.21115
286.697
279.869
272.543
257.573
234.899
211.636
192.305
177.615
164.578
149.516
130.72
108.986
86.4438
65.3564
47.2334
32.6583
21.539
13.3822
7.60628
3.65827
1.06642
510.096
488.033
467.513
438.044
395.86
348.13
300.565
256.303
215.773
178.533
144.586
114.347
88.0936
66.0546
48.1017
33.8564
22.84
14.5658
8.56989
4.38955
1.58379
-0.221488
-48.6518
-49.7198
-52.2741
-58.1014
-67.3488
-76.4766
-82.3618
-84.2004
-82.5547
-77.9132
-70.9644
-62.1625
-52.0092
-41.5443
-31.8202
-23.559
-17.0406
-12.1992
-8.7873
-6.46345
-4.94032
-3.99693
-3.42596
-561.93
-532.059
-504.85
-475.863
-441.991
-404.358
-363.25
-319.409
-274.369
-230.164
-188.613
-151.163
-118.574
-90.906
-67.946
-49.4457
-35.0867
-24.3923
-16.7598
-11.5315
-8.07726
-5.86232
-4.48243
-3.6572
-149.025
-136.505
-126.898
-120.098
-113.344
-103.36
-87.3947
-65.2722
-40.0992
-17.079
-0.700115
7.5664
9.39131
7.67521
4.90009
2.3485
0.413162
-0.914661
-1.74674
-2.24929
489.799
472.534
456.716
431.596
394.615
353.937
314.849
279.145
245.626
212.203
178.385
145.114
113.958
86.3183
63.0304
44.3021
344.385
326.947
309.897
285.509
250.93
212.192
174.863
141.747
112.79
87.5992
66.4151
49.1716
-343.92
-330.003
-317.713
-304.733
-290.015
-273.257
-253.684
-231.314
-508.726
-479.19
-452.836
)
;

boundaryField
{
    inlet
    {
        type            zeroGradient;
    }
    outlet
    {
        type            fixedValue;
        value           nonuniform 0();
    }
    cylinder
    {
        type            zeroGradient;
    }
    top
    {
        type            symmetryPlane;
    }
    bottom
    {
        type            symmetryPlane;
    }
    defaultFaces
    {
        type            empty;
    }
    procBoundary14to7
    {
        type            processor;
        value           nonuniform List<scalar> 
20
(
532.751
511.218
492.545
466.374
428.934
113.824
113.824
83.9702
59.0463
39.3982
24.7225
14.4463
8.18355
4.9442
3.4595
2.64903
1.87532
-32.2539
-32.2539
-22.5221
)
;
    }
    procBoundary14to8
    {
        type            processor;
        value           nonuniform List<scalar> 
28
(
-10.3765
12.0138
12.0138
16.3495
-8.42616
-24.3308
-5.56989
-5.56989
28.1902
28.1902
9.9342
-17.787
-21.6925
5.01987
5.01987
12.2909
12.2909
-1.36223
-11.5
-11.5
-5.55884
-5.55884
-0.572251
-0.572251
-1.34494
-1.34494
-3.09081
-3.09081
)
;
    }
    procBoundary14to9
    {
        type            processor;
        value           nonuniform List<scalar> 
30
(
-2.53411
-2.68547
-2.75804
-3.18657
-2.78024
29.8387
19.0764
11.3463
-2.53411
5.99271
35.6784
25.5017
17.8616
29.8387
12.0627
-206.637
-180.51
-153.942
35.6784
-127.748
-425.681
-394.296
-358.86
-318.838
-206.637
-274.833
174.856
173.544
-425.681
170.469
)
;
    }
    procBoundary14to20
    {
        type            processor;
        value           nonuniform List<scalar> 2(-248.746 -540.198);
    }
    procBoundary14to27
    {
        type            processor;
        value           uniform 409.589;
    }
}


// ************************************************************************* //
