/*--------------------------------*- C++ -*----------------------------------*\
  =========                 |
  \\      /  F ield         | OpenFOAM: The Open Source CFD Toolbox
   \\    /   O peration     | Website:  https://openfoam.org
    \\  /    A nd           | Version:  7
     \\/     M anipulation  |
\*---------------------------------------------------------------------------*/
FoamFile
{
    version     2.0;
    format      ascii;
    class       volScalarField;
    location    "108.999716";
    object      p;
}
// * * * * * * * * * * * * * * * * * * * * * * * * * * * * * * * * * * * * * //

dimensions      [0 2 -2 0 0 0 0];

internalField   nonuniform List<scalar> 
23200
(
-0.315095
-0.317266
-0.318526
-0.319492
-0.320356
-0.321174
-0.322003
-0.322876
-0.323799
-0.32475
-0.32569
-0.326547
-0.327228
-0.327615
-0.327558
-0.326889
-0.32544
-0.323152
-0.320101
-0.316103
-0.319702
-0.321823
-0.323089
-0.324109
-0.325083
-0.326076
-0.327153
-0.328356
-0.329696
-0.331159
-0.3327
-0.334254
-0.335708
-0.336907
-0.33764
-0.337625
-0.336517
-0.334022
-0.330012
-0.323533
-0.324639
-0.326655
-0.3279
-0.328956
-0.330025
-0.331183
-0.332502
-0.334031
-0.335788
-0.337763
-0.339921
-0.342182
-0.344433
-0.346479
-0.348042
-0.348728
-0.347999
-0.345281
-0.340332
-0.331005
-0.329857
-0.331715
-0.332908
-0.333977
-0.335124
-0.336431
-0.337979
-0.339823
-0.341986
-0.344466
-0.34723
-0.350206
-0.353247
-0.356147
-0.358555
-0.359964
-0.359635
-0.356624
-0.350839
-0.338268
-0.33529
-0.336939
-0.338052
-0.339111
-0.340312
-0.341747
-0.343503
-0.34564
-0.348187
-0.351148
-0.354495
-0.358153
-0.361974
-0.365691
-0.36892
-0.371033
-0.371104
-0.367629
-0.361227
-0.344918
-0.340865
-0.342262
-0.343265
-0.344288
-0.345516
-0.347051
-0.348984
-0.351381
-0.354276
-0.357679
-0.361562
-0.36585
-0.37038
-0.374854
-0.378838
-0.381582
-0.382055
-0.377744
-0.371141
-0.350319
-0.3465
-0.34761
-0.348476
-0.349436
-0.35066
-0.352258
-0.354329
-0.356941
-0.360134
-0.36392
-0.368273
-0.373111
-0.378259
-0.383376
-0.387994
-0.391227
-0.392213
-0.386265
-0.380123
-0.353881
-0.352113
-0.352912
-0.353618
-0.354484
-0.355669
-0.357289
-0.359447
-0.362217
-0.365642
-0.369735
-0.37447
-0.379756
-0.385403
-0.391074
-0.396077
-0.399565
-0.401494
-0.392571
-0.386999
-0.356351
-0.357624
-0.3581
-0.358626
-0.35937
-0.360475
-0.362067
-0.364254
-0.367114
-0.370693
-0.375003
-0.380012
-0.385617
-0.391601
-0.397567
-0.402805
-0.406198
-0.407142
-0.398663
-0.391557
-0.357013
-0.362965
-0.363116
-0.363446
-0.364037
-0.36502
-0.36653
-0.36868
-0.371553
-0.375196
-0.37962
-0.384785
-0.390567
-0.39672
-0.402788
-0.408006
-0.41105
-0.411241
-0.401945
-0.393578
-0.355747
-0.368073
-0.367915
-0.368036
-0.368447
-0.369264
-0.370633
-0.372674
-0.375476
-0.379087
-0.383515
-0.388706
-0.394518
-0.400664
-0.406631
-0.411593
-0.414028
-0.41338
-0.402649
-0.392888
-0.352708
-0.372912
-0.372467
-0.372373
-0.372575
-0.373181
-0.374348
-0.376207
-0.37885
-0.38233
-0.386649
-0.39174
-0.397435
-0.403404
-0.409068
-0.413544
-0.415124
-0.413392
-0.401019
-0.389459
-0.348119
-0.377463
-0.376761
-0.376449
-0.376417
-0.376769
-0.377674
-0.379274
-0.381672
-0.384924
-0.389024
-0.393893
-0.399332
-0.404963
-0.410135
-0.413898
-0.414404
-0.411282
-0.397292
-0.383474
-0.34215
-0.38173
-0.380809
-0.380276
-0.379987
-0.380043
-0.380629
-0.3819
-0.383971
-0.386902
-0.390684
-0.395218
-0.400272
-0.405416
-0.409917
-0.412746
-0.411981
-0.407166
-0.391685
-0.375341
-0.334924
-0.385744
-0.384639
-0.383887
-0.383319
-0.383042
-0.383257
-0.384136
-0.385806
-0.388335
-0.391709
-0.395807
-0.400362
-0.404876
-0.408536
-0.410211
-0.407988
-0.401235
-0.384403
-0.36562
-0.326613
-0.389559
-0.388304
-0.387332
-0.386466
-0.385823
-0.385623
-0.386056
-0.387264
-0.389322
-0.39221
-0.395788
-0.399734
-0.40348
-0.406125
-0.40643
-0.402571
-0.393729
-0.375679
-0.354879
-0.317483
-0.393251
-0.391871
-0.390677
-0.389496
-0.388461
-0.387811
-0.387756
-0.388454
-0.389987
-0.392329
-0.395304
-0.398536
-0.40137
-0.402815
-0.401538
-0.395886
-0.384902
-0.365802
-0.343549
-0.30782
-0.39692
-0.395426
-0.394003
-0.392492
-0.391045
-0.38992
-0.389348
-0.389503
-0.39047
-0.39221
-0.394506
-0.39691
-0.398671
-0.398717
-0.395668
-0.388112
-0.375034
-0.355095
-0.3318
-0.297817
-0.400675
-0.399062
-0.397401
-0.395546
-0.393672
-0.392057
-0.390952
-0.390542
-0.390912
-0.391996
-0.393527
-0.394972
-0.395482
-0.393931
-0.388964
-0.379461
-0.364463
-0.343891
-0.319571
-0.287645
-0.404639
-0.402884
-0.400966
-0.398754
-0.396443
-0.394333
-0.392687
-0.391699
-0.391441
-0.391812
-0.392474
-0.392804
-0.391872
-0.388543
-0.381581
-0.370184
-0.353584
-0.332545
-0.307041
-0.277731
-0.408934
-0.406994
-0.404796
-0.402213
-0.399459
-0.396852
-0.394666
-0.393087
-0.392166
-0.391747
-0.391413
-0.390452
-0.387888
-0.382644
-0.373691
-0.36054
-0.342744
-0.321417
-0.295462
-0.268319
-0.413675
-0.411491
-0.408983
-0.406013
-0.402812
-0.399711
-0.396981
-0.394794
-0.393158
-0.391851
-0.390367
-0.387928
-0.383564
-0.37633
-0.365465
-0.350777
-0.332135
-0.310628
-0.285506
-0.26022
-0.418966
-0.416464
-0.413609
-0.410235
-0.406582
-0.402985
-0.399704
-0.396877
-0.394455
-0.392132
-0.389324
-0.385223
-0.378934
-0.369705
-0.357071
-0.341094
-0.321867
-0.300447
-0.276226
-0.252224
-0.424892
-0.421988
-0.418745
-0.414948
-0.410833
-0.406733
-0.402881
-0.399363
-0.396053
-0.392561
-0.388246
-0.382321
-0.374033
-0.362869
-0.34865
-0.331622
-0.312026
-0.290791
-0.267454
-0.244641
-0.431518
-0.428122
-0.424448
-0.420205
-0.415613
-0.410992
-0.406531
-0.402245
-0.397917
-0.393081
-0.387077
-0.379202
-0.368899
-0.355913
-0.340305
-0.322437
-0.302612
-0.281626
-0.259084
-0.237214
-0.438885
-0.434907
-0.430759
-0.426044
-0.420953
-0.415781
-0.410651
-0.405487
-0.399982
-0.393615
-0.385757
-0.375849
-0.363569
-0.348907
-0.332101
-0.313561
-0.293602
-0.27287
-0.251017
-0.229971
-0.447013
-0.442369
-0.437704
-0.432489
-0.426871
-0.421098
-0.415211
-0.40903
-0.402164
-0.394073
-0.384221
-0.372246
-0.358073
-0.341895
-0.324062
-0.304979
-0.284939
-0.264445
-0.243191
-0.222835
-0.455901
-0.450514
-0.445295
-0.439552
-0.433365
-0.426922
-0.420159
-0.412789
-0.404357
-0.39436
-0.382411
-0.368383
-0.35243
-0.334896
-0.31618
-0.296649
-0.276555
-0.25627
-0.235536
-0.21577
-0.465527
-0.459331
-0.453528
-0.447226
-0.44042
-0.433211
-0.42542
-0.416657
-0.406446
-0.394378
-0.380271
-0.364244
-0.346643
-0.327903
-0.308423
-0.288512
-0.268374
-0.24827
-0.22799
-0.20873
-0.475847
-0.468793
-0.462379
-0.455487
-0.447993
-0.439896
-0.430888
-0.420506
-0.408304
-0.394031
-0.377751
-0.359813
-0.340703
-0.32089
-0.300741
-0.2805
-0.260322
-0.240373
-0.220493
-0.20167
-0.486793
-0.478847
-0.471806
-0.464286
-0.456017
-0.446874
-0.436432
-0.42419
-0.409799
-0.39323
-0.374805
-0.355065
-0.334581
-0.313813
-0.293074
-0.272541
-0.252324
-0.232511
-0.212992
-0.194552
-0.498273
-0.489418
-0.481738
-0.473544
-0.464389
-0.454013
-0.441893
-0.427548
-0.410802
-0.391892
-0.371386
-0.349968
-0.328239
-0.306619
-0.285354
-0.264563
-0.24431
-0.224622
-0.205434
-0.187336
-0.510162
-0.5004
-0.492073
-0.483148
-0.472971
-0.461143
-0.447085
-0.430411
-0.411187
-0.389936
-0.367443
-0.344477
-0.321625
-0.299244
-0.277513
-0.256496
-0.236215
-0.21665
-0.197773
-0.179988
-0.522304
-0.511654
-0.502674
-0.492946
-0.481582
-0.468061
-0.451806
-0.432608
-0.410831
-0.387288
-0.362924
-0.338543
-0.314681
-0.291623
-0.269481
-0.248271
-0.227977
-0.208543
-0.189966
-0.172475
-0.534508
-0.523009
-0.513367
-0.502745
-0.490007
-0.474539
-0.455843
-0.43397
-0.409623
-0.383871
-0.35777
-0.332106
-0.307343
-0.283689
-0.261191
-0.239825
-0.219541
-0.200251
-0.181974
-0.164768
-0.54655
-0.534256
-0.52394
-0.512316
-0.497996
-0.480325
-0.458976
-0.434335
-0.407453
-0.379612
-0.351918
-0.325104
-0.299546
-0.275373
-0.25258
-0.2311
-0.210853
-0.191732
-0.173759
-0.156839
-0.558169
-0.54515
-0.534142
-0.521389
-0.505269
-0.485159
-0.460992
-0.433551
-0.404218
-0.374435
-0.345302
-0.31747
-0.291222
-0.266613
-0.243585
-0.222041
-0.201868
-0.182946
-0.165289
-0.148664
-0.569076
-0.555416
-0.543689
-0.529667
-0.511532
-0.488774
-0.461686
-0.431475
-0.399822
-0.368264
-0.337853
-0.309137
-0.282306
-0.257345
-0.234153
-0.212598
-0.192545
-0.173857
-0.156533
-0.140222
-0.578957
-0.564749
-0.55227
-0.536834
-0.516479
-0.490913
-0.460865
-0.427977
-0.394173
-0.361025
-0.329502
-0.30004
-0.272735
-0.247513
-0.224231
-0.202729
-0.182845
-0.164436
-0.147469
-0.131502
-0.587479
-0.572825
-0.559555
-0.542556
-0.519808
-0.491331
-0.458356
-0.422937
-0.387182
-0.352645
-0.320182
-0.290115
-0.262453
-0.237066
-0.213774
-0.192393
-0.172738
-0.154653
-0.138079
-0.122506
-0.5943
-0.579306
-0.565201
-0.546504
-0.521226
-0.489804
-0.454001
-0.416249
-0.378771
-0.343056
-0.309831
-0.279304
-0.251407
-0.225957
-0.202744
-0.181558
-0.162193
-0.144484
-0.128347
-0.113233
-0.599075
-0.583848
-0.568866
-0.548355
-0.520463
-0.486131
-0.447665
-0.407819
-0.368868
-0.332194
-0.298391
-0.267557
-0.239551
-0.214148
-0.191108
-0.170196
-0.151187
-0.133909
-0.118253
-0.103646
-0.601466
-0.586115
-0.570217
-0.547806
-0.517276
-0.480139
-0.439235
-0.397568
-0.357408
-0.320005
-0.285813
-0.254829
-0.226849
-0.201608
-0.178838
-0.158284
-0.139701
-0.122914
-0.10779
-0.093665
-0.601154
-0.585785
-0.568943
-0.544583
-0.511452
-0.471687
-0.428617
-0.385432
-0.34434
-0.306442
-0.272057
-0.241086
-0.21327
-0.188309
-0.165913
-0.145804
-0.127719
-0.111494
-0.0969822
-0.0832312
-0.597844
-0.582558
-0.56476
-0.538446
-0.50282
-0.460663
-0.415743
-0.371362
-0.329625
-0.291472
-0.257092
-0.226302
-0.19879
-0.174232
-0.152316
-0.132743
-0.115243
-0.0996495
-0.0858229
-0.0724538
-0.591275
-0.576172
-0.557424
-0.5292
-0.491246
-0.446989
-0.400567
-0.355328
-0.313238
-0.275071
-0.240895
-0.210455
-0.183393
-0.159369
-0.138052
-0.119108
-0.102296
-0.0874268
-0.0741832
-0.0614648
-0.581226
-0.5664
-0.546734
-0.516692
-0.476638
-0.430618
-0.383068
-0.337318
-0.295167
-0.257224
-0.223452
-0.193533
-0.167091
-0.143731
-0.123143
-0.104927
-0.0888622
-0.0747772
-0.0621545
-0.0502101
-0.567524
-0.553065
-0.532539
-0.50082
-0.458946
-0.411537
-0.363248
-0.317335
-0.275411
-0.23793
-0.204772
-0.175551
-0.149919
-0.127351
-0.107567
-0.090185
-0.0749596
-0.0617062
-0.0497816
-0.0386685
-0.550047
-0.536041
-0.51474
-0.481531
-0.438161
-0.389763
-0.341131
-0.295397
-0.253979
-0.217221
-0.18491
-0.156584
-0.131841
-0.110214
-0.0913547
-0.0749025
-0.0606027
-0.0482375
-0.0370855
-0.0268477
-0.528726
-0.515254
-0.493294
-0.45882
-0.414314
-0.365346
-0.316766
-0.271542
-0.230914
-0.195186
-0.163875
-0.136604
-0.112912
-0.0923511
-0.0745338
-0.0591063
-0.0458136
-0.0343987
-0.0240832
-0.0147689
-0.503549
-0.490689
-0.468209
-0.432732
-0.387481
-0.33837
-0.290228
-0.245852
-0.206353
-0.171782
-0.141703
-0.115659
-0.0931734
-0.073801
-0.0571379
-0.0428293
-0.030622
-0.0202194
-0.0107987
-0.00246042
-0.47456
-0.462383
-0.439548
-0.403364
-0.357784
-0.308937
-0.261609
-0.218427
-0.180289
-0.147117
-0.118457
-0.0938049
-0.0726732
-0.0546113
-0.0392085
-0.0261101
-0.0150635
-0.00573338
0.00273566
0.010043
-0.441859
-0.430424
-0.40743
-0.370878
-0.325371
-0.277146
-0.231027
-0.18935
-0.152824
-0.121273
-0.0942119
-0.0711104
-0.0514701
-0.0348361
-0.0207944
-0.00899319
0.000820985
0.00902071
0.0164806
0.0226996
-0.405597
-0.394961
-0.372037
-0.33548
-0.290326
-0.243145
-0.198626
-0.158743
-0.124069
-0.0943457
-0.069055
-0.0476525
-0.0296327
-0.014537
-0.00195127
0.008471
0.0169859
0.0240016
0.0303954
0.0354658
-0.365955
-0.356213
-0.333637
-0.29725
-0.252731
-0.20721
-0.164575
-0.126751
-0.0941507
-0.0664429
-0.0430834
-0.0235184
-0.00723821
0.00621709
0.0172587
0.0262256
0.0333811
0.0391684
0.0444445
0.048306
-0.323121
-0.31448
-0.292449
-0.256061
-0.213184
-0.169512
-0.129055
-0.0935322
-0.0632074
-0.0376868
-0.0164055
0.0011959
0.0156282
0.0273504
0.0367667
0.0442081
0.0499535
0.0544813
0.0585913
0.0611774
-0.277327
-0.270042
-0.248156
-0.213038
-0.171781
-0.130271
-0.0922628
-0.0592592
-0.0313906
-0.00821063
0.0108608
0.0263858
0.0388741
0.0487806
0.0564988
0.0623533
0.0666524
0.0698988
0.0727615
0.0739349
-0.228893
-0.223095
-0.201764
-0.168096
-0.128786
-0.0897277
-0.0544083
-0.0241162
0.00113725
0.0218418
0.0385883
0.0519389
0.0624003
0.0704198
0.0763775
0.0805993
0.0834366
0.0853707
0.0867898
0.0862119
-0.178427
-0.173905
-0.153551
-0.12152
-0.084477
-0.048135
-0.0157136
0.011701
0.0342032
0.0523176
0.066642
0.0777361
0.0861014
0.0921745
0.0963231
0.0988877
0.100266
0.100821
0.100454
0.0976919
-0.126241
-0.122906
-0.103814
-0.0736556
-0.0391542
-0.00575837
0.0235875
0.0479868
0.0676255
0.0830564
0.0948801
0.103652
0.109866
0.113947
0.116253
0.117153
0.117069
0.116121
0.113679
0.109054
-0.0726493
-0.070564
-0.0529117
-0.0248607
0.00686675
0.0371256
0.0632522
0.0845271
0.101215
0.113891
0.123155
0.129557
0.13358
0.135636
0.136083
0.135311
0.133717
0.131109
0.126566
0.122499
-0.0180754
-0.0173042
-0.00123671
0.0245005
0.0532611
0.0802323
0.103031
0.121102
0.134778
0.14465
0.151316
0.155316
0.157125
0.157142
0.155723
0.153268
0.150089
0.145792
0.139739
0.13588
0.0370387
0.0364505
0.0508061
0.0740573
0.0996991
0.123272
0.142669
0.157487
0.168116
0.175158
0.179206
0.180794
0.180381
0.178358
0.175081
0.170936
0.16615
0.160268
0.153025
0.148727
0.0922463
0.0902702
0.102807
0.123437
0.145849
0.165954
0.18191
0.193455
0.201028
0.205237
0.206671
0.205851
0.203227
0.199178
0.194057
0.188226
0.181847
0.174491
0.166192
0.161131
0.147099
0.143722
0.154356
0.172266
0.191381
0.207985
0.220497
0.228779
0.233313
0.234711
0.233554
0.230351
0.225541
0.219495
0.212555
0.205059
0.197125
0.188379
0.179052
0.173054
0.201151
0.196373
0.205046
0.220177
0.235967
0.249079
0.258175
0.263234
0.264772
0.263403
0.259697
0.254156
0.247203
0.239201
0.230482
0.221356
0.211917
0.20185
0.191508
0.184489
0.253963
0.247798
0.25448
0.26681
0.279288
0.288951
0.294694
0.296599
0.295209
0.291139
0.284949
0.277129
0.268093
0.258191
0.247743
0.237037
0.22615
0.214821
0.203482
0.195399
0.305104
0.297581
0.302269
0.311814
0.321033
0.327328
0.329811
0.328657
0.324433
0.31775
0.30916
0.299141
0.288095
0.276362
0.264249
0.252023
0.239751
0.227222
0.21491
0.205746
0.35416
0.34532
0.348039
0.354851
0.360901
0.363943
0.363291
0.359201
0.352259
0.343072
0.332185
0.320062
0.307095
0.293614
0.279912
0.266237
0.252651
0.238986
0.225737
0.215494
0.400734
0.390632
0.391433
0.395601
0.398608
0.398544
0.394909
0.388031
0.37851
0.36695
0.353885
0.33977
0.324987
0.309852
0.294648
0.279606
0.264783
0.250053
0.23591
0.224604
0.444448
0.433152
0.432114
0.433759
0.433883
0.430892
0.424453
0.414958
0.403018
0.389234
0.37413
0.358151
0.341667
0.324987
0.308379
0.292059
0.276085
0.260367
0.245379
0.233043
0.484952
0.472541
0.469768
0.469044
0.466477
0.460763
0.451725
0.439805
0.425628
0.409787
0.392797
0.375094
0.35704
0.338933
0.321029
0.30353
0.286497
0.269873
0.254099
0.240779
0.52192
0.508486
0.504105
0.501194
0.496156
0.487952
0.476541
0.462412
0.446195
0.428479
0.409773
0.390502
0.371018
0.351613
0.332531
0.31396
0.295967
0.278525
0.262028
0.247782
0.555057
0.540703
0.534862
0.529973
0.522711
0.512273
0.498736
0.482629
0.464588
0.445196
0.424954
0.404281
0.383522
0.362957
0.342821
0.323294
0.304445
0.286277
0.269129
0.254029
0.584102
0.568939
0.561806
0.555173
0.545955
0.533559
0.518162
0.500326
0.48069
0.459833
0.438251
0.416353
0.394478
0.372901
0.351845
0.331482
0.311888
0.293089
0.275368
0.259497
0.608826
0.592975
0.584735
0.576611
0.565728
0.551667
0.534691
0.515387
0.494399
0.472301
0.449581
0.426646
0.403826
0.38139
0.359554
0.338482
0.318258
0.298926
0.280715
0.26417
0.629036
0.612626
0.603478
0.594134
0.581891
0.566475
0.548215
0.527718
0.505631
0.482524
0.45888
0.435101
0.411512
0.388378
0.365908
0.344258
0.323522
0.303759
0.285145
0.268035
0.644579
0.627743
0.617898
0.607619
0.594337
0.577886
0.558646
0.537241
0.514316
0.49044
0.466092
0.441669
0.417495
0.393828
0.370873
0.348782
0.327654
0.307562
0.288637
0.271083
0.655338
0.638215
0.627893
0.616974
0.602982
0.585827
0.56592
0.543897
0.520402
0.496003
0.471177
0.446316
0.421742
0.397712
0.374425
0.352031
0.330635
0.310317
0.291177
0.273307
0.661237
0.643969
0.633396
0.622139
0.607774
0.590249
0.569994
0.547648
0.523857
0.499185
0.474107
0.449017
0.424234
0.400011
0.376548
0.353992
0.33245
0.312011
0.292753
0.274704
0.66224
0.64497
0.634374
0.623084
0.608686
0.59113
0.570848
0.548477
0.524663
0.499969
0.474872
0.449762
0.424958
0.400716
0.377233
0.354657
0.333094
0.312637
0.293359
0.275273
0.658352
0.641223
0.630831
0.619814
0.605722
0.588473
0.568484
0.546385
0.522822
0.498359
0.473471
0.448551
0.423918
0.399828
0.376481
0.354026
0.332567
0.312195
0.292996
0.275016
0.649616
0.63277
0.622808
0.612365
0.598914
0.582307
0.562927
0.541396
0.518355
0.494371
0.46992
0.445397
0.421124
0.397358
0.374302
0.352108
0.330876
0.310692
0.29167
0.273934
0.636119
0.619694
0.610379
0.600803
0.588322
0.572685
0.554226
0.53355
0.511299
0.488039
0.464249
0.440328
0.416599
0.393325
0.370713
0.348917
0.328035
0.308141
0.289391
0.272031
0.617984
0.602113
0.593656
0.585229
0.574034
0.559685
0.542449
0.522912
0.50171
0.479412
0.456501
0.43338
0.410378
0.387759
0.365739
0.344477
0.324064
0.304561
0.286174
0.269313
0.595374
0.580185
0.572783
0.565773
0.556167
0.543411
0.52769
0.509562
0.489659
0.468553
0.446733
0.424605
0.402503
0.380699
0.359415
0.338816
0.318989
0.299976
0.28204
0.26579
0.56849
0.554103
0.547937
0.542593
0.534862
0.523989
0.510061
0.493601
0.475236
0.455543
0.435014
0.414062
0.393029
0.372192
0.351781
0.331972
0.312843
0.294418
0.277014
0.261474
0.537567
0.524093
0.519328
0.51588
0.510287
0.501568
0.489694
0.475146
0.458546
0.440472
0.421425
0.401825
0.38202
0.362294
0.342888
0.323988
0.305665
0.28792
0.271126
0.256383
0.502875
0.490416
0.487198
0.485848
0.482635
0.47632
0.466741
0.454333
0.439708
0.423449
0.406062
0.387977
0.369548
0.351069
0.332792
0.314913
0.297499
0.280524
0.26441
0.250536
0.464717
0.453362
0.451814
0.45274
0.45212
0.448436
0.441373
0.431313
0.418857
0.404591
0.389029
0.37261
0.355695
0.33859
0.321555
0.304802
0.288394
0.272274
0.256902
0.243958
0.423422
0.413251
0.413472
0.416822
0.41898
0.418125
0.413776
0.406252
0.396139
0.384028
0.370441
0.355824
0.340551
0.324934
0.309247
0.293716
0.278404
0.263218
0.248645
0.236678
0.379349
0.370429
0.372493
0.378382
0.38347
0.385614
0.384151
0.379328
0.371714
0.361901
0.350422
0.337731
0.324212
0.310187
0.295943
0.281721
0.267587
0.25341
0.239684
0.228726
0.332879
0.325263
0.329219
0.337727
0.345864
0.351146
0.352715
0.350734
0.34575
0.338361
0.329105
0.318447
0.306781
0.29444
0.281722
0.268887
0.256005
0.242905
0.230067
0.220136
0.284413
0.278142
0.284011
0.295184
0.306451
0.314978
0.319694
0.320669
0.318428
0.313565
0.306629
0.298095
0.288367
0.277787
0.266668
0.255288
0.243726
0.231764
0.219846
0.210945
0.23437
0.229471
0.237246
0.251094
0.265534
0.277378
0.285326
0.289346
0.289932
0.287678
0.28314
0.276803
0.269082
0.26033
0.25087
0.241001
0.23082
0.220052
0.209077
0.201191
0.183181
0.179669
0.189316
0.205809
0.223427
0.238622
0.249856
0.256982
0.260456
0.26087
0.258788
0.254704
0.249044
0.24217
0.234416
0.226106
0.217357
0.207841
0.197823
0.19091
0.131289
0.129163
0.14062
0.159692
0.180452
0.198996
0.213536
0.223798
0.230196
0.233316
0.233727
0.231933
0.228373
0.223414
0.217401
0.210681
0.203411
0.195209
0.18616
0.180139
0.0791375
0.0783851
0.091567
0.113113
0.136937
0.158788
0.17662
0.190021
0.199352
0.205192
0.208112
0.208629
0.207188
0.204169
0.199918
0.194806
0.18905
0.18224
0.174182
0.168891
0.0271747
0.0277669
0.0425652
0.0664445
0.0932125
0.118291
0.139367
0.155877
0.168125
0.176675
0.182101
0.184928
0.185612
0.184541
0.182063
0.178561
0.17433
0.169014
0.162067
0.157206
-0.0241558
-0.0222642
-0.00597732
0.0200574
0.0496095
0.0777945
0.102031
0.121594
0.136715
0.147941
0.155849
0.160968
0.163765
0.164638
0.163934
0.162032
0.159304
0.155576
0.150034
0.145024
-0.0744148
-0.0712882
-0.0536592
-0.0256803
0.00645586
0.0375882
0.0648674
0.0873936
0.10532
0.119167
0.129511
0.136885
0.141765
0.144562
0.145623
0.145306
0.144012
0.141852
0.138265
0.132782
-0.1232
-0.118876
-0.100096
-0.0704099
-0.0359267
-0.00204549
0.0281235
0.0534958
0.0741314
0.0905214
0.103236
0.112812
0.119731
0.124415
0.127219
0.128475
0.128567
0.127831
0.126175
0.122355
-0.170272
-0.164535
-0.144938
-0.113785
-0.0772266
-0.0408324
-0.00795995
0.0201121
0.0433378
0.0621703
0.077171
0.0888776
0.0977761
0.104296
0.108805
0.111621
0.113086
0.11365
0.113662
0.11181
-0.215117
-0.207945
-0.187894
-0.155487
-0.117147
-0.0785095
-0.043152
-0.0125542
0.0131182
0.0342722
0.051456
0.0652057
0.0760091
0.084302
0.090463
0.0948081
0.0976389
0.0994287
0.100786
0.100541
-0.25728
-0.248886
-0.22846
-0.195278
-0.155412
-0.114826
-0.0772334
-0.0443107
-0.0163575
0.00697745
0.0262241
0.0419139
0.0545344
0.0645241
0.0722708
0.0780948
0.0822697
0.0852474
0.0877613
0.0888184
-0.296479
-0.287072
-0.266216
-0.232843
-0.191789
-0.149548
-0.109998
-0.0749768
-0.0449298
-0.0195728
0.00160002
0.0191125
0.0334495
0.0450495
0.0543051
0.0615432
0.0670215
0.0711595
0.0747468
0.0769738
-0.332498
-0.322213
-0.301111
-0.267595
-0.226111
-0.182462
-0.141256
-0.104385
-0.0724514
-0.0452481
-0.0223004
-0.0030958
0.0128454
0.0259591
0.0366389
0.0452174
0.0519448
0.0572073
0.0618155
0.0651454
-0.365156
-0.354056
-0.332945
-0.299567
-0.257829
-0.213447
-0.170831
-0.132383
-0.0987884
-0.0699294
-0.0453713
-0.0246173
-0.00719446
0.00732758
0.0193398
0.0291789
0.0370915
0.0434299
0.0490043
0.0533758
-0.394278
-0.382424
-0.361509
-0.328608
-0.286959
-0.24214
-0.198584
-0.158836
-0.123821
-0.0935101
-0.0675177
-0.0453676
-0.0265944
-0.0107772
0.00246918
0.0134836
0.0225108
0.0298676
0.0363478
0.0416997
-0.419736
-0.407195
-0.386651
-0.354531
-0.313376
-0.268486
-0.224341
-0.18362
-0.147442
-0.115896
-0.0886544
-0.0652736
-0.0452869
-0.0282946
-0.0139183
-0.00181862
0.00824763
0.0165607
0.0238853
0.0301583
-0.44146
-0.428306
-0.408277
-0.377202
-0.336931
-0.292381
-0.248011
-0.206655
-0.169571
-0.137008
-0.108708
-0.0842732
-0.0632116
-0.0451719
-0.0297743
-0.0166837
-0.00565734
0.00354707
0.0116544
0.0187914
-0.459431
-0.445746
-0.426352
-0.396554
-0.357525
-0.313726
-0.26951
-0.227844
-0.190155
-0.156809
-0.127611
-0.102314
-0.0803153
-0.061365
-0.0450565
-0.031074
-0.0191681
-0.00914043
-0.00031425
0.00763271
-0.473692
-0.459561
-0.440895
-0.412568
-0.375107
-0.332452
-0.288777
-0.247133
-0.209119
-0.175244
-0.145406
-0.119311
-0.096557
-0.0768374
-0.0597278
-0.0449582
-0.0322526
-0.0214739
-0.011997
-0.00329056
-0.484338
-0.469851
-0.451982
-0.425277
-0.389668
-0.348526
-0.305771
-0.264485
-0.226427
-0.192256
-0.161973
-0.135312
-0.11195
-0.0915464
-0.0737602
-0.0583117
-0.0448849
-0.0334291
-0.0233733
-0.0139603
-0.491521
-0.476773
-0.45974
-0.434763
-0.401241
-0.361949
-0.320478
-0.279885
-0.242065
-0.207829
-0.177296
-0.150266
-0.126444
-0.10551
-0.0871591
-0.0711046
-0.0570536
-0.0449841
-0.0344126
-0.0243788
-0.495438
-0.480529
-0.464349
-0.441157
-0.409902
-0.372754
-0.332909
-0.293337
-0.256037
-0.221972
-0.191384
-0.164152
-0.140019
-0.118693
-0.0998926
-0.0833487
-0.0687957
-0.0561086
-0.0450597
-0.0345854
-0.496333
-0.481368
-0.466038
-0.444641
-0.41577
-0.381006
-0.343099
-0.304861
-0.26836
-0.234699
-0.20425
-0.176978
-0.152676
-0.131086
-0.111947
-0.0950157
-0.0800382
-0.0668458
-0.0553064
-0.0446275
-0.494486
-0.479575
-0.465074
-0.445437
-0.419004
-0.386807
-0.351107
-0.314496
-0.279061
-0.246033
-0.215913
-0.18876
-0.164428
-0.142694
-0.123326
-0.106097
-0.0907735
-0.0771822
-0.0652177
-0.0542564
-0.490207
-0.475461
-0.46176
-0.443811
-0.419805
-0.39029
-0.357019
-0.322301
-0.288186
-0.256009
-0.226401
-0.199522
-0.175293
-0.153534
-0.134038
-0.116602
-0.101013
-0.0871043
-0.0747784
-0.0634689
-0.483827
-0.469358
-0.456421
-0.440056
-0.418408
-0.39162
-0.360945
-0.328348
-0.295789
-0.264673
-0.235752
-0.209296
-0.185296
-0.163623
-0.144098
-0.126544
-0.110768
-0.0966089
-0.0839819
-0.0723516
-0.475686
-0.461607
-0.449397
-0.434491
-0.41508
-0.390995
-0.363015
-0.332729
-0.301938
-0.272079
-0.244013
-0.218118
-0.194468
-0.172985
-0.153527
-0.135938
-0.12005
-0.105705
-0.0928401
-0.0809619
-0.46613
-0.452548
-0.44103
-0.427448
-0.410112
-0.388637
-0.363387
-0.335548
-0.30671
-0.278289
-0.251235
-0.226033
-0.202844
-0.181649
-0.162345
-0.144802
-0.128873
-0.114407
-0.101365
-0.089318
-0.455493
-0.442509
-0.431657
-0.41926
-0.403808
-0.384794
-0.362235
-0.336926
-0.31019
-0.28337
-0.257475
-0.233089
-0.210466
-0.189649
-0.17058
-0.153157
-0.137255
-0.122732
-0.109567
-0.0974171
-0.444095
-0.431801
-0.421595
-0.410251
-0.396477
-0.379726
-0.359757
-0.336996
-0.312469
-0.287392
-0.262791
-0.239338
-0.217376
-0.197022
-0.178262
-0.161028
-0.145218
-0.130699
-0.117458
-0.105259
-0.432235
-0.420708
-0.411136
-0.400727
-0.388424
-0.373707
-0.356165
-0.335908
-0.31365
-0.290429
-0.267244
-0.244831
-0.223621
-0.203806
-0.185424
-0.168441
-0.152783
-0.138326
-0.125053
-0.112852
-0.420178
-0.409481
-0.400539
-0.390966
-0.379936
-0.367006
-0.35168
-0.333821
-0.313839
-0.292554
-0.27089
-0.249618
-0.229245
-0.21004
-0.1921
-0.175426
-0.159974
-0.145635
-0.132374
-0.120216
-0.40816
-0.398339
-0.390026
-0.381208
-0.371275
-0.359886
-0.346533
-0.330908
-0.313152
-0.293844
-0.273786
-0.253745
-0.23429
-0.215762
-0.198323
-0.182013
-0.166817
-0.152649
-0.139443
-0.127368
-0.396378
-0.38746
-0.37978
-0.371656
-0.362668
-0.352588
-0.340949
-0.327348
-0.311712
-0.294376
-0.275984
-0.257254
-0.238793
-0.221008
-0.204125
-0.188229
-0.173337
-0.159391
-0.146285
-0.134333
-0.38499
-0.376988
-0.369944
-0.36247
-0.354302
-0.345323
-0.33514
-0.323324
-0.309649
-0.294233
-0.277533
-0.260181
-0.242785
-0.225807
-0.209535
-0.194104
-0.17956
-0.165886
-0.152923
-0.141133
-0.374121
-0.367027
-0.360621
-0.353767
-0.346323
-0.338269
-0.3293
-0.319014
-0.307099
-0.2935
-0.278481
-0.262552
-0.246288
-0.230182
-0.214578
-0.199662
-0.185511
-0.172157
-0.159382
-0.147792
-0.363858
-0.357653
-0.351881
-0.345626
-0.338835
-0.331559
-0.323592
-0.314585
-0.304202
-0.292267
-0.278876
-0.26439
-0.249315
-0.234146
-0.219268
-0.204922
-0.191211
-0.178227
-0.165688
-0.154337
-0.354256
-0.348908
-0.343764
-0.33809
-0.331899
-0.325291
-0.318142
-0.310181
-0.301091
-0.290634
-0.27877
-0.265713
-0.251868
-0.2377
-0.223613
-0.209896
-0.196679
-0.184118
-0.171867
-0.160797
-0.345345
-0.340814
-0.336281
-0.331175
-0.325544
-0.319518
-0.313041
-0.305921
-0.297891
-0.288699
-0.278221
-0.26654
-0.253943
-0.240832
-0.227606
-0.214588
-0.201924
-0.189846
-0.177942
-0.167201
-0.337132
-0.333371
-0.329427
-0.324869
-0.319767
-0.314259
-0.308342
-0.301892
-0.294707
-0.286561
-0.277294
-0.266893
-0.25553
-0.243521
-0.231226
-0.218986
-0.20695
-0.195425
-0.183939
-0.173581
-0.329611
-0.326567
-0.323184
-0.319151
-0.314547
-0.309509
-0.304063
-0.298147
-0.291623
-0.284315
-0.276065
-0.266809
-0.256625
-0.245737
-0.234437
-0.223063
-0.211743
-0.20086
-0.189877
-0.179972
-0.322767
-0.320384
-0.317526
-0.313987
-0.309851
-0.305241
-0.300202
-0.294714
-0.2887
-0.282041
-0.274612
-0.266337
-0.257236
-0.247451
-0.237193
-0.226773
-0.216274
-0.206144
-0.195779
-0.186407
-0.316583
-0.314802
-0.312426
-0.309345
-0.305642
-0.301422
-0.296738
-0.291599
-0.285977
-0.279808
-0.273016
-0.265544
-0.257392
-0.248649
-0.239446
-0.230057
-0.220495
-0.211251
-0.201638
-0.19296
-0.311042
-0.309803
-0.307862
-0.305197
-0.301889
-0.298022
-0.29365
-0.288802
-0.283481
-0.277675
-0.271357
-0.26451
-0.257147
-0.249337
-0.241159
-0.232847
-0.224327
-0.216133
-0.207456
-0.199642
-0.306131
-0.305373
-0.303813
-0.301521
-0.298567
-0.295018
-0.290922
-0.286318
-0.281235
-0.275694
-0.269716
-0.26333
-0.256582
-0.249559
-0.24232
-0.235078
-0.22769
-0.22069
-0.213173
-0.206641
-0.301846
-0.301499
-0.300264
-0.298303
-0.295666
-0.292399
-0.288548
-0.284156
-0.279263
-0.273917
-0.268175
-0.262108
-0.255808
-0.249397
-0.242963
-0.236716
-0.230481
-0.224837
-0.218622
-0.213807
-0.298171
-0.298156
-0.297219
-0.295538
-0.293179
-0.290166
-0.286536
-0.282331
-0.277599
-0.272401
-0.266819
-0.26096
-0.254956
-0.248978
-0.243175
-0.237767
-0.232672
-0.22829
-0.224062
-0.220512
-0.295094
-0.295348
-0.294654
-0.293222
-0.291109
-0.288326
-0.2849
-0.280869
-0.276282
-0.271208
-0.265739
-0.260005
-0.254175
-0.248461
-0.243101
-0.238305
-0.234301
-0.230921
-0.22907
-0.226145
-0.292598
-0.293057
-0.292564
-0.291347
-0.289456
-0.286887
-0.283656
-0.279797
-0.275355
-0.270396
-0.26502
-0.259365
-0.253621
-0.248034
-0.242935
-0.238484
-0.235464
-0.232638
-0.233138
-0.230835
-0.290654
-0.291264
-0.290935
-0.289907
-0.288219
-0.285855
-0.282816
-0.279137
-0.27485
-0.270018
-0.264737
-0.259144
-0.253439
-0.247884
-0.2429
-0.238538
-0.236347
-0.233515
-0.236489
-0.234597
-0.289228
-0.289943
-0.289749
-0.288888
-0.287389
-0.285229
-0.282379
-0.278897
-0.274787
-0.270107
-0.264942
-0.259425
-0.25375
-0.248183
-0.24321
-0.238752
-0.237206
-0.233836
-0.239511
-0.237342
-0.288278
-0.289066
-0.288985
-0.288273
-0.286952
-0.284985
-0.282354
-0.279077
-0.275169
-0.270673
-0.265662
-0.260254
-0.254632
-0.249058
-0.244045
-0.239413
-0.238273
-0.234103
-0.242356
-0.239121
-0.287761
-0.288602
-0.288618
-0.288044
-0.286893
-0.285121
-0.28271
-0.279661
-0.275981
-0.271706
-0.266891
-0.26164
-0.256118
-0.250578
-0.245518
-0.240748
-0.239713
-0.234917
-0.244939
-0.240384
-0.287633
-0.28852
-0.288625
-0.288179
-0.287192
-0.285617
-0.28343
-0.280625
-0.277197
-0.273177
-0.268603
-0.263561
-0.258197
-0.252751
-0.247678
-0.242874
-0.241652
-0.236722
-0.247212
-0.241931
-0.287853
-0.288792
-0.288983
-0.28866
-0.287833
-0.286452
-0.284492
-0.28194
-0.27879
-0.275052
-0.270758
-0.265974
-0.260827
-0.255541
-0.250516
-0.24579
-0.2442
-0.239635
-0.249396
-0.244449
-0.288391
-0.289396
-0.289675
-0.289471
-0.288799
-0.28761
-0.285879
-0.283588
-0.280728
-0.277298
-0.273315
-0.268828
-0.263952
-0.258886
-0.253979
-0.249419
-0.247429
-0.243526
-0.25189
-0.248116
-0.289225
-0.290315
-0.290686
-0.2906
-0.29008
-0.28908
-0.287576
-0.285551
-0.28299
-0.279884
-0.276241
-0.272081
-0.267522
-0.262727
-0.258006
-0.253661
-0.251348
-0.248163
-0.255015