/*--------------------------------*- C++ -*----------------------------------*\
  =========                 |
  \\      /  F ield         | OpenFOAM: The Open Source CFD Toolbox
   \\    /   O peration     | Website:  https://openfoam.org
    \\  /    A nd           | Version:  7
     \\/     M anipulation  |
\*---------------------------------------------------------------------------*/
FoamFile
{
    version     2.0;
    format      ascii;
    class       volVectorField;
    location    "120.000314";
    object      U;
}
// * * * * * * * * * * * * * * * * * * * * * * * * * * * * * * * * * * * * * //

dimensions      [0 1 -1 0 0 0 0];

internalField   nonuniform List<vector> 
5800
(
(-0.00127221 0.0135534 -3.33127e-21)
(-0.00636933 0.0261468 -1.17032e-20)
(-0.0162023 0.0277213 2.13778e-21)
(-0.028921 0.0209718 8.05655e-21)
(-0.0437847 0.00851206 3.4346e-21)
(-0.0602925 -0.00744072 -8.37235e-21)
(-0.0779725 -0.025339 -2.69644e-21)
(-0.0964122 -0.0444502 -1.07262e-21)
(-0.115231 -0.0648138 -9.66243e-21)
(-0.134056 -0.0870143 -1.86068e-21)
(0.00743378 0.0109614 -6.13422e-21)
(0.0390893 0.0236503 -2.08363e-20)
(0.0970436 0.029427 3.8137e-21)
(0.164035 0.0306735 1.38114e-20)
(0.232519 0.0294336 5.65069e-21)
(0.298939 0.0271404 -1.34765e-20)
(0.361577 0.0245835 -4.07067e-21)
(0.419982 0.0220856 -1.63671e-21)
(0.474218 0.0197375 -8.17418e-21)
(0.524472 0.0175531 -7.22832e-21)
(0.570953 0.0155306 -8.99555e-21)
(0.00734809 -0.00704268 6.15545e-21)
(0.0389109 -0.0164606 2.0894e-20)
(0.0968088 -0.0217241 -3.82675e-21)
(0.163772 -0.0238205 -1.3848e-20)
(0.232242 -0.0238253 -5.66655e-21)
(0.298656 -0.0227205 1.35133e-20)
(0.36129 -0.0212125 4.09104e-21)
(0.419693 -0.01968 1.64766e-21)
(0.473931 -0.0182628 1.36908e-20)
(0.52419 -0.0169855 2.38611e-21)
(0.570677 -0.0158375 9.04443e-21)
(0.613604 -0.0148024 -1.29115e-21)
(0.65318 -0.0138635 4.21281e-21)
(0.68961 -0.0130046 -7.05125e-21)
(0.723093 -0.0122101 8.39757e-21)
(0.753825 -0.0114652 8.52051e-21)
(0.781997 -0.0107549 2.36933e-21)
(0.80777 -0.0100635 -1.19274e-20)
(0.831274 -0.00937758 9.53011e-21)
(0.852681 -0.00869458 -1.36974e-21)
(0.00865001 -0.0249483 -9.0513e-21)
(0.0417539 -0.0563795 -1.35673e-20)
(0.100345 -0.0726602 -4.16036e-21)
(0.167465 -0.0781119 -1.19941e-20)
(0.235788 -0.0769062 2.61349e-21)
(0.301913 -0.0724279 -1.72638e-20)
(0.364222 -0.066876 -6.2545e-21)
(0.422311 -0.0613303 -1.33305e-20)
(0.47626 -0.0561628 7.30265e-21)
(0.526259 -0.0514372 -1.71462e-20)
(0.572514 -0.0471307 -5.17618e-20)
(0.615233 -0.0432068 8.16709e-21)
(0.654624 -0.0396289 -1.12434e-20)
(0.690889 -0.0363614 6.60765e-21)
(0.724224 -0.0333698 -1.55705e-20)
(0.754825 -0.0306224 1.60301e-21)
(0.782882 -0.0280882 -7.89676e-21)
(0.808557 -0.0257277 4.44585e-20)
(0.831969 -0.0234953 -4.29659e-21)
(0.853257 -0.0214031 5.38836e-21)
(0.0113198 -0.0425891 -2.7719e-20)
(0.0475815 -0.0957794 -2.70427e-20)
(0.107613 -0.123009 6.18648e-21)
(0.175078 -0.131842 1.31217e-20)
(0.243122 -0.129486 5.4463e-21)
(0.308684 -0.121696 -1.67783e-20)
(0.370349 -0.112154 -2.39364e-20)
(0.427813 -0.102641 5.02144e-20)
(0.481186 -0.0937623 -1.35305e-20)
(0.530663 -0.0856239 1.7522e-20)
(0.576448 -0.0781906 2.71489e-20)
(0.618745 -0.0714063 4.60067e-21)
(0.657756 -0.065215 7.56639e-21)
(0.693682 -0.0595615 1.62233e-20)
(0.726713 -0.054393 -1.65049e-20)
(0.757039 -0.0496611 1.55838e-20)
(0.784855 -0.0453186 -1.82216e-21)
(0.810328 -0.0413013 -4.34906e-20)
(0.833552 -0.0375334 2.87667e-20)
(0.854583 -0.0340443 -2.32165e-20)
(0.0153204 -0.0598017 2.13136e-20)
(0.0563248 -0.134338 -3.39073e-20)
(0.118537 -0.172402 4.99008e-20)
(0.186541 -0.184656 -2.24611e-20)
(0.254186 -0.181244 1.17685e-19)
(0.318916 -0.170243 6.88415e-20)
(0.379627 -0.156797 -4.20211e-20)
(0.43616 -0.143389 -9.8117e-20)
(0.488674 -0.130864 3.82476e-20)
(0.537372 -0.119369 2.5662e-20)
(0.582453 -0.108861 3.38745e-20)
(0.624116 -0.0992623 -6.58112e-20)
(0.662557 -0.0904987 -7.57059e-20)
(0.697971 -0.0824962 5.67636e-20)
(0.730542 -0.0751838 4.37038e-20)
(0.760454 -0.068497 -1.47503e-20)
(0.787903 -0.0623719 3.19754e-20)
(0.81307 -0.0567201 1.94405e-21)
(0.836012 -0.0514394 -4.68263e-20)
(0.856653 -0.0465858 -1.46448e-20)
(0.0205973 -0.0764274 -7.84632e-20)
(0.0678825 -0.17174 -2.16306e-20)
(0.133007 -0.22048 -7.50844e-20)
(0.201753 -0.236206 2.149e-20)
(0.268891 -0.231868 -1.11524e-19)
(0.332533 -0.217791 -6.57329e-20)
(0.391988 -0.20056 7.64549e-20)
(0.447293 -0.183358 9.3433e-20)
(0.498672 -0.167273 -8.25124e-20)
(0.546339 -0.152501 2.14736e-20)
(0.590488 -0.138988 -2.98712e-20)
(0.63131 -0.126638 1.14649e-19)
(0.668995 -0.115359 -3.59863e-20)
(0.703729 -0.105058 -1.24728e-20)
(0.735688 -0.0956477 -7.25719e-21)
(0.765048 -0.0870468 -2.514e-20)
(0.792008 -0.0791749 -6.09316e-20)
(0.816765 -0.0719193 -1.23252e-21)
(0.839334 -0.0651562 1.6607e-20)
(0.859462 -0.0589791 -1.56988e-20)
(0.0270799 -0.0923137 -5.10859e-20)
(0.0821223 -0.207682 -2.14436e-20)
(0.150879 -0.266892 1.21309e-19)
(0.22058 -0.286154 6.64169e-20)
(0.287121 -0.281051 2.74194e-20)
(0.349435 -0.26407 -8.40988e-20)
(0.407347 -0.243203 -9.63116e-20)
(0.461136 -0.222334 1.14407e-20)
(0.511114 -0.202802 2.1995e-20)
(0.557505 -0.184852 1.643e-20)
(0.600501 -0.168422 5.32984e-20)
(0.640282 -0.153402 -1.17072e-19)
(0.67703 -0.139679 1.71936e-21)
(0.710921 -0.127144 4.03873e-20)
(0.74212 -0.115693 2.3151e-21)
(0.770794 -0.105229 -7.91178e-21)
(0.797146 -0.0956558 -2.00964e-20)
(0.821391 -0.0868351 7.43107e-20)
(0.843498 -0.0786268 -3.20455e-20)
(0.863001 -0.0711755 2.58563e-20)
(0.0346814 -0.107316 8.07865e-20)
(0.0988817 -0.241872 -4.26045e-20)
(0.171975 -0.311303 -4.9001e-20)
(0.242857 -0.334171 -4.55558e-20)
(0.308732 -0.328498 -8.96075e-20)
(0.3695 -0.308819 -1.14799e-20)
(0.425595 -0.284497 1.54698e-20)
(0.477596 -0.260115 -3.47764e-20)
(0.525914 -0.237267 4.98501e-20)
(0.570797 -0.216258 4.20134e-21)
(0.612427 -0.19702 -2.0819e-20)
(0.650974 -0.179425 9.4854e-20)
(0.686611 -0.163345 2.77751e-20)
(0.719501 -0.148653 -2.71707e-20)
(0.7498 -0.135229 5.99921e-20)
(0.77766 -0.122965 -6.31742e-20)
(0.803287 -0.111745 -6.7798e-21)
(0.82692 -0.101406 7.83238e-21)
(0.848482 -0.0917954 8.64087e-20)
(0.86726 -0.0831253 -4.81418e-20)
(0.0433003 -0.121301 2.74258e-20)
(0.117969 -0.274036 3.23043e-20)
(0.196085 -0.353391 1.41581e-19)
(0.26839 -0.379945 5.97338e-20)
(0.333555 -0.373923 2.04753e-19)
(0.392581 -0.351787 1.71358e-20)
(0.446608 -0.324221 9.52515e-20)
(0.49656 -0.296503 6.59921e-20)
(0.542976 -0.270496 -1.4103e-19)
(0.586127 -0.246566 -2.22636e-20)
(0.626188 -0.224643 -5.19949e-20)
(0.663319 -0.204586 -6.4298e-20)
(0.697678 -0.186248 2.1242e-20)
(0.729419 -0.169488 6.57126e-20)
(0.758682 -0.154173 -5.76078e-20)
(0.785605 -0.140179 -5.0436e-20)
(0.810395 -0.127376 4.90119e-20)
(0.83332 -0.115573 -6.52559e-20)
(0.854257 -0.104608 -9.35681e-20)
(0.872224 -0.0947787 -2.51571e-20)
(0.0528211 -0.134144 -7.91239e-20)
(0.139166 -0.303917 -8.01028e-20)
(0.222969 -0.392854 -4.20775e-20)
(0.296955 -0.423179 -9.96005e-20)
(0.361396 -0.417059 -4.89212e-20)
(0.418513 -0.392736 -1.1544e-19)
(0.47024 -0.362165 -1.00129e-19)
(0.517903 -0.331314 3.73216e-20)
(0.562188 -0.302322 5.74188e-20)
(0.603396 -0.275628 -1.00454e-19)
(0.641699 -0.251161 6.24564e-20)
(0.67724 -0.228767 -4.16401e-20)
(0.710165 -0.208285 -5.55599e-20)
(0.740615 -0.189558 -5.79918e-20)
(0.768714 -0.172441 1.62666e-19)
(0.794584 -0.156799 7.19841e-20)
(0.818431 -0.142486 1.72543e-20)
(0.840553 -0.12928 -7.43438e-20)
(0.860793 -0.117014 1.55337e-19)
(0.877876 -0.106087 5.77153e-20)
(0.0631158 -0.145736 -1.02158e-19)
(0.162227 -0.331281 1.16964e-19)
(0.252355 -0.429412 1.14306e-19)
(0.328299 -0.463595 1.20255e-19)
(0.392035 -0.457651 7.2232e-20)
(0.447107 -0.431443 1.75111e-20)
(0.496328 -0.398133 1.15093e-19)
(0.541481 -0.364373 -1.39248e-19)
(0.583423 -0.332592 -3.88515e-20)
(0.622494 -0.303306 -3.23925e-20)
(0.65886 -0.276452 1.44114e-19)
(0.69265 -0.25186 -1.9874e-20)
(0.723995 -0.229359 1.6859e-20)
(0.753022 -0.208777 3.55332e-21)
(0.779838 -0.189958 5.78134e-20)
(0.804547 -0.172758 -7.20145e-20)
(0.827351 -0.157013 1.4453e-20)
(0.848581 -0.142474 1.63367e-19)
(0.868056 -0.128963 -2.34222e-20)
(0.884197 -0.117002 -1.04414e-19)
(0.0740452 -0.155979 -6.0221e-20)
(0.186884 -0.355917 2.02748e-20)
(0.283946 -0.462809 -1.21517e-19)
(0.362146 -0.500935 -5.97575e-20)
(0.42523 -0.495464 -7.90123e-20)
(0.478156 -0.4677 -6.32323e-21)
(0.524696 -0.431942 -1.54165e-19)
(0.567139 -0.395521 1.35665e-19)
(0.606543 -0.361163 5.92265e-20)
(0.643298 -0.329475 2.50573e-20)
(0.677564 -0.300401 -1.39696e-19)
(0.709456 -0.273764 2.49023e-20)
(0.739086 -0.249379 -1.73916e-20)
(0.766568 -0.227065 -7.50698e-20)
(0.791991 -0.206652 -7.00045e-20)
(0.815438 -0.18799 1.14415e-19)
(0.837105 -0.170904 5.76288e-20)
(0.857358 -0.155107 -3.31278e-20)
(0.876008 -0.140411 -9.20647e-20)
(0.891164 -0.12748 1.37353e-20)
(0.0854603 -0.164792 8.16781e-20)
(0.212847 -0.377639 3.66732e-20)
(0.317417 -0.492812 4.47801e-20)
(0.39819 -0.534964 5.08935e-20)
(0.460717 -0.530282 -5.39018e-20)
(0.511435 -0.501317 1.20167e-19)
(0.555147 -0.463427 -1.19198e-19)
(0.594706 -0.42461 -4.65227e-21)
(0.6314 -0.387904 9.4577e-20)
(0.665677 -0.354016 1.97018e-20)
(0.697695 -0.322905 8.28921e-20)
(0.727554 -0.294387 -3.47131e-20)
(0.755348 -0.268265 2.15627e-20)
(0.781174 -0.244347 1.38093e-19)
(0.805104 -0.222457 -8.34655e-21)
(0.827197 -0.202439 -4.03587e-20)
(0.847641 -0.184105 -8.51595e-20)
(0.866838 -0.167135 -1.39304e-19)
(0.884611 -0.151318 -2.14497e-20)
(0.898752 -0.137478 1.39327e-19)
(0.0972043 -0.172111 9.37037e-20)
(0.239809 -0.396291 2.67008e-21)
(0.352421 -0.51922 -1.73078e-19)
(0.436105 -0.565474 6.83452e-20)
(0.498212 -0.561909 5.58643e-22)
(0.546701 -0.532121 7.40079e-20)
(0.587475 -0.492437 7.07061e-20)
(0.624003 -0.451508 -5.9527e-21)
(0.657834 -0.412699 -4.00959e-20)
(0.68949 -0.376827 -1.38951e-19)
(0.71913 -0.343873 4.23496e-20)
(0.746836 -0.313645 1.74527e-19)
(0.772685 -0.285941 -1.22457e-19)
(0.796756 -0.260559 -1.00862e-19)
(0.819103 -0.237315 -6.31105e-20)
(0.83976 -0.216051 -1.50558e-19)
(0.858902 -0.19657 4.40044e-20)
(0.876969 -0.178516 2.0936e-19)
(0.893819 -0.161646 -3.1392e-20)
(0.906931 -0.146961 -3.93271e-20)
(0.109114 -0.177886 3.83034e-20)
(0.267443 -0.411744 -6.18268e-20)
(0.38859 -0.54186 5.32504e-20)
(0.475543 -0.592279 -8.66546e-20)
(0.537409 -0.590175 9.53595e-20)
(0.583697 -0.559961 -9.63584e-20)
(0.621458 -0.51884 -2.40034e-20)
(0.654836 -0.476102 1.04053e-19)
(0.685677 -0.435446 -7.96285e-20)
(0.714588 -0.397817 8.86271e-20)
(0.741737 -0.363221 -1.04654e-19)
(0.767187 -0.331466 -6.07321e-20)
(0.790996 -0.302342 -4.24602e-20)
(0.813225 -0.275641 6.59857e-20)
(0.833911 -0.251172 1.3447e-20)
(0.85306 -0.228777 8.08469e-20)
(0.870828 -0.208256 -5.39894e-20)
(0.887698 -0.189215 -3.71424e-21)
(0.903585 -0.171367 8.17549e-20)
(0.915673 -0.155896 -3.71447e-20)
(0.121022 -0.182089 -8.98026e-21)
(0.295412 -0.423904 -3.64559e-20)
(0.425536 -0.560593 -6.79762e-21)
(0.516136 -0.615227 -1.92177e-20)
(0.577989 -0.614931 -6.53416e-20)
(0.622149 -0.584706 -5.60998e-20)
(0.656865 -0.542524 -3.67566e-20)
(0.687006 -0.498291 -5.16043e-20)
(0.714752 -0.456059 1.07071e-19)
(0.740818 -0.416908 1.11354e-20)
(0.76538 -0.38088 1.64654e-19)
(0.788487 -0.347787 5.08953e-20)
(0.810177 -0.317412 5.526e-20)
(0.83049 -0.289542 -8.8184e-20)
(0.849447 -0.263983 1.34032e-19)
(0.867027 -0.240577 -2.38311e-20)
(0.883357 -0.219125 -1.41496e-20)
(0.898965 -0.199202 -1.16976e-19)
(0.913859 -0.180458 5.41785e-20)
(0.924942 -0.16426 -4.36702e-20)
(0.132758 -0.184707 -6.71129e-20)
(0.323368 -0.432707 -3.1103e-20)
(0.462855 -0.575312 -4.50605e-20)
(0.557497 -0.634191 -3.92204e-20)
(0.619614 -0.636053 -1.08565e-20)
(0.661772 -0.606247 1.10561e-19)
(0.693454 -0.563395 9.62628e-20)
(0.720303 -0.517997 8.11908e-20)
(0.744877 -0.474465 -8.34051e-20)
(0.768018 -0.434035 -4.80431e-20)
(0.789918 -0.396794 -1.71446e-19)
(0.810612 -0.362556 1.3337e-19)
(0.830117 -0.331104 -5.13062e-20)
(0.848455 -0.30222 9.26149e-20)
(0.86563 -0.275708 -6.88373e-20)
(0.881589 -0.25141 2.53529e-20)
(0.896423 -0.229139 -3.34955e-20)
(0.910704 -0.20844 1.04318e-19)
(0.924579 -0.188891 -8.21005e-20)
(0.934707 -0.172035 -3.61429e-20)
(0.144152 -0.185748 7.11626e-20)
(0.350954 -0.438127 -2.63202e-20)
(0.500133 -0.585949 5.27398e-20)
(0.599227 -0.649078 5.66031e-20)
(0.661932 -0.653447 -1.67915e-20)
(0.702271 -0.624496 -1.16769e-19)
(0.730975 -0.581379 8.39462e-20)
(0.754514 -0.535156 -1.73379e-20)
(0.775866 -0.490611 2.65012e-20)
(0.796023 -0.449152 3.27805e-20)
(0.815206 -0.410918 -6.59768e-20)
(0.833436 -0.375733 -1.57079e-19)
(0.850706 -0.34338 6.92747e-21)
(0.867023 -0.313641 -1.57773e-20)
(0.882372 -0.286316 4.53475e-21)
(0.896674 -0.261254 7.91766e-20)
(0.909966 -0.23828 -7.63496e-20)
(0.922849 -0.216928 -1.16732e-19)
(0.935677 -0.196694 -3.02829e-20)
(0.944937 -0.179254 6.12242e-20)
(0.155037 -0.185237 2.05119e-21)
(0.377814 -0.44017 -2.19596e-20)
(0.536942 -0.592468 8.30971e-21)
(0.640911 -0.659826 -4.01987e-20)
(0.704579 -0.667042 -1.57202e-20)
(0.743338 -0.639392 -9.54582e-21)
(0.76917 -0.596425 1.68488e-20)
(0.789419 -0.549725 -6.00694e-20)
(0.807527 -0.504458 -1.46342e-20)
(0.824668 -0.462223 3.96712e-20)
(0.841098 -0.42322 2.70474e-20)
(0.856828 -0.387288 9.70404e-20)
(0.871831 -0.354213 9.62204e-20)
(0.886093 -0.323779 -2.48095e-20)
(0.899588 -0.295782 6.56367e-21)
(0.912211 -0.270074 2.641e-20)
(0.923928 -0.246494 9.9261e-20)
(0.93533 -0.224571 1.16045e-19)
(0.947052 -0.203735 1.2959e-19)
(0.955604 -0.185827 -1.67585e-20)
(0.165248 -0.183222 -1.17811e-20)
(0.40359 -0.43888 8.42121e-21)
(0.572851 -0.594874 1.03938e-20)
(0.682125 -0.666407 9.36717e-21)
(0.747181 -0.676798 -2.65874e-20)
(0.784659 -0.650895 1.04403e-19)
(0.807777 -0.6085 -3.39132e-20)
(0.824795 -0.561679 7.64879e-21)
(0.839669 -0.515988 -4.95075e-20)
(0.853783 -0.47323 -4.87814e-21)
(0.867446 -0.433682 8.60269e-20)
(0.88066 -0.397205 -4.44128e-20)
(0.893379 -0.363587 -1.64079e-20)
(0.905567 -0.332617 -3.96736e-20)
(0.917188 -0.304092 3.74631e-20)
(0.928123 -0.277868 -7.59219e-20)
(0.938253 -0.253805 2.91744e-20)
(0.948078 -0.231466 -1.94555e-20)
(0.958549 -0.210284 8.03433e-21)
(0.966678 -0.192219 3.69595e-20)
(0.174627 -0.179764 1.31442e-20)
(0.427927 -0.434336 -2.61269e-21)
(0.607426 -0.59321 -4.70475e-21)
(0.722436 -0.668829 2.50974e-21)
(0.789355 -0.682701 1.2649e-20)
(0.825911 -0.658989 -5.56483e-20)
(0.84653 -0.617595 -7.69267e-21)
(0.860418 -0.571012 -4.00116e-20)
(0.872098 -0.525194 6.07979e-20)
(0.8832 -0.482168 4.67333e-20)
(0.894101 -0.442301 -8.11608e-20)
(0.904802 -0.405477 6.19325e-20)
(0.915237 -0.371495 -5.26401e-20)
(0.925346 -0.340148 1.25115e-20)
(0.935084 -0.311236 -1.68918e-19)
(0.944333 -0.284611 6.18783e-21)
(0.952912 -0.260135 -5.81637e-20)
(0.961109 -0.237363 -8.44789e-20)
(0.970042 -0.215711 -5.04633e-20)
(0.978231 -0.197418 -8.19411e-20)
(0.183035 -0.174952 2.49988e-20)
(0.450478 -0.426651 -4.3057e-20)
(0.640235 -0.587559 1.6701e-20)
(0.761409 -0.667131 2.24047e-20)
(0.830709 -0.684768 8.97901e-21)
(0.866769 -0.663683 1.7025e-20)
(0.88516 -0.623718 -1.08596e-20)
(0.896064 -0.577738 -1.12568e-20)
(0.904622 -0.532092 -7.01015e-21)
(0.912752 -0.489051 -2.8167e-20)
(0.920917 -0.449084 2.10687e-20)
(0.929125 -0.412111 -5.84034e-20)
(0.937291 -0.37794 5.08097e-20)
(0.945334 -0.346373 5.0916e-20)
(0.953191 -0.317215 9.2405e-20)
(0.96076 -0.290313 3.17825e-20)
(0.967846 -0.265523 6.41438e-20)
(0.974483 -0.242501 7.07983e-20)
(0.981413 -0.221222 6.36264e-20)
(0.989301 -0.203877 3.15118e-20)
(0.190369 -0.168889 5.80738e-20)
(0.470899 -0.415953 -1.77817e-20)
(0.67085 -0.578047 -2.72294e-20)
(0.798606 -0.661392 -5.94961e-20)
(0.870849 -0.683044 5.09584e-21)
(0.9069 -0.66501 1.51956e-20)
(0.923396 -0.626902 1.11163e-20)
(0.931509 -0.581888 -1.82911e-21)
(0.937053 -0.53671 -1.91662e-20)
(0.942275 -0.493902 -6.95468e-21)
(0.947751 -0.454054 6.2183e-20)
(0.953504 -0.417123 1.43836e-20)
(0.959433 -0.382936 1.00833e-20)
(0.965435 -0.351302 -4.00924e-20)
(0.971427 -0.322037 -1.22787e-19)
(0.97732 -0.294983 3.83475e-20)
(0.98295 -0.269988 2.54412e-20)
(0.98818 -0.24682 -7.28063e-20)
(0.993277 -0.22574 -4.11597e-20)
(0.999549 -0.207566 -2.04774e-20)
(0.196512 -0.161617 -6.62285e-20)
(0.488887 -0.402386 4.45828e-20)
(0.698851 -0.56486 -9.33518e-20)
(0.833593 -0.651724 5.37445e-21)
(0.909377 -0.677602 3.3418e-20)
(0.94597 -0.663025 -4.37476e-20)
(0.960967 -0.627196 -2.09031e-20)
(0.966533 -0.58351 1.6894e-21)
(0.969203 -0.539094 1.42868e-20)
(0.971609 -0.496764 1.61025e-20)
(0.974463 -0.457245 -3.82652e-20)
(0.977814 -0.420544 -7.08828e-20)
(0.981553 -0.386507 2.5768e-20)
(0.985555 -0.354955 2.30347e-20)
(0.989715 -0.325715 6.27254e-20)
(0.993946 -0.298629 -8.99569e-21)
(0.998133 -0.27353 2.91703e-22)
(1.00208 -0.250268 2.35419e-21)
(1.00565 -0.229281 -6.08774e-21)
(1.01003 -0.210607 -9.53948e-20)
(0.201297 -0.153242 8.58501e-20)
(0.504174 -0.386228 9.25963e-20)
(0.723819 -0.548201 9.64744e-20)
(0.865965 -0.638273 2.60732e-20)
(0.945901 -0.668546 -3.69801e-20)
(0.983644 -0.657807 -2.79682e-20)
(0.997602 -0.62467 -1.28624e-20)
(1.00092 -0.582671 1.01008e-20)
(1.00089 -0.539306 -2.35204e-22)
(1.0006 -0.497691 -8.64697e-21)
(1.00092 -0.458704 4.38397e-21)
(1.00194 -0.422413 2.92676e-20)
(1.00355 -0.388685 -2.63462e-20)
(1.0056 -0.357357 1.36343e-21)
(1.00798 -0.32827 -1.48662e-20)
(1.01058 -0.301267 -8.95614e-21)
(1.01334 -0.276169 4.47741e-21)
(1.01606 -0.252887 -1.47309e-20)
(1.01836 -0.232003 1.49844e-20)
(1.02107 -0.2131 8.70883e-20)
(0.204616 -0.14398 5.8854e-20)
(0.516503 -0.36778 -1.76747e-19)
(0.745293 -0.528258 9.02419e-20)
(0.89531 -0.621247 2.77861e-20)
(0.98004 -0.655999 -6.80758e-20)
(1.01959 -0.649451 4.21166e-20)
(1.03303 -0.619412 1.03737e-20)
(1.03445 -0.579451 -3.38776e-20)
(1.03195 -0.537421 4.43106e-21)
(1.02909 -0.496749 -3.0428e-21)
(1.02698 -0.458489 2.66073e-21)
(1.02576 -0.422779 6.6191e-21)
(1.02532 -0.389513 1.37789e-20)
(1.02549 -0.358545 -2.47732e-20)
(1.02614 -0.329731 1.40141e-20)
(1.02716 -0.302923 -4.31681e-21)
(1.02851 -0.277934 1.50925e-20)
(1.03003 -0.25472 -2.98283e-22)
(1.03116 -0.233961 1.89944e-20)
(1.03242 -0.214983 -2.59258e-20)
(0.206434 -0.13403 -8.55885e-21)
(0.525664 -0.347279 -6.57184e-20)
(0.762954 -0.50536 -5.70208e-20)
(0.921051 -0.600852 3.37612e-20)
(1.01147 -0.640118 -7.16118e-21)
(1.05346 -0.638071 3.75735e-20)
(1.06699 -0.611524 1.98708e-20)
(1.06692 -0.573947 9.45049e-21)
(1.0622 -0.533527 3.3545e-21)
(1.05695 -0.49402 2.95534e-21)
(1.05254 -0.45667 7.29635e-21)
(1.04918 -0.421701 -2.81808e-21)
(1.04677 -0.389042 3.15981e-21)
(1.04514 -0.358562 2.64043e-21)
(1.04414 -0.330136 -1.81473e-20)
(1.04364 -0.303628 3.34373e-20)
(1.04362 -0.278854 -1.94917e-20)
(1.04394 -0.255786 -1.77071e-20)
(1.04393 -0.235168 -8.63512e-21)
(1.04383 -0.216218 -1.46913e-20)
(0.206731 -0.123556 -2.28165e-20)
(0.531447 -0.325037 1.41277e-19)
(0.77662 -0.47978 4.73459e-20)
(0.942759 -0.577359 -1.31504e-19)
(1.0396 -0.621101 -2.52832e-20)
(1.08502 -0.623785 4.27561e-20)
(1.09921 -0.601136 1.8661e-20)
(1.09811 -0.566266 5.12456e-20)
(1.09148 -0.527725 -2.8256e-21)
(1.08405 -0.489592 3.98934e-21)
(1.07747 -0.453326 -4.86625e-21)
(1.07209 -0.419249 -2.01139e-21)
(1.06781 -0.387329 8.90384e-23)
(1.06447 -0.357458 7.76031e-21)
(1.06188 -0.329527 -4.23967e-21)
(1.05994 -0.303418 -3.81131e-20)
(1.0586 -0.278953 -2.01978e-20)
(1.05773 -0.256105 2.17167e-20)
(1.05662 -0.235646 1.116e-20)
(1.05524 -0.216813 -5.03457e-21)
(0.205494 -0.112698 1.30678e-19)
(0.533699 -0.301382 -1.86821e-19)
(0.785987 -0.451868 -1.67649e-19)
(0.960275 -0.55102 2.0448e-19)
(1.06398 -0.59917 5.18012e-20)
(1.11379 -0.606832 -3.28277e-20)
(1.12947 -0.588325 -6.19375e-20)
(1.12785 -0.556519 -6.36569e-20)
(1.11965 -0.520124 4.02516e-20)
(1.11025 -0.483567 9.30194e-21)
(1.10168 -0.448545 1.37236e-20)
(1.0944 -0.415499 9.18154e-21)
(1.08837 -0.384442 -3.9678e-21)
(1.0834 -0.35529 1.26483e-22)
(1.07932 -0.327952 5.5455e-21)
(1.076 -0.302332 1.8446e-20)
(1.07339 -0.278261 9.71798e-21)
(1.07138 -0.255703 -3.37194e-20)
(1.0692 -0.235435 -7.80739e-21)
(1.06661 -0.216802 1.12558e-20)
(0.202722 -0.101608 -1.41857e-19)
(0.532326 -0.27666 1.37584e-19)
(0.790775 -0.422011 -1.20672e-22)
(0.973249 -0.522159 -4.64002e-20)
(1.08443 -0.574578 -8.23667e-21)
(1.13937 -0.587329 -1.04611e-20)
(1.15741 -0.573272 -5.55904e-20)
(1.1559 -0.544829 5.64766e-20)
(1.14654 -0.510843 -7.28773e-20)
(1.13544 -0.476053 3.3777e-21)
(1.12505 -0.442425 -5.94404e-21)
(1.11603 -0.410534 -2.44083e-21)
(1.10836 -0.38045 6.48333e-22)
(1.10187 -0.352117 -8.38984e-21)
(1.0964 -0.325463 1.56664e-21)
(1.09178 -0.300413 -1.2049e-21)
(1.08796 -0.276813 3.40809e-21)
(1.08485 -0.25461 3.31841e-21)
(1.08164 -0.234572 1.2412e-21)
(1.07793 -0.216215 -1.81207e-20)
(0.198444 -0.0904484 2.16335e-20)
(0.527287 -0.251228 3.95742e-20)
(0.790776 -0.39061 7.32889e-20)
(0.981318 -0.491118 -3.84757e-20)
(1.10059 -0.547556 -1.07228e-19)
(1.16151 -0.565479 2.93485e-20)
(1.18278 -0.556132 4.76271e-20)
(1.18208 -0.53135 2.70375e-20)
(1.17201 -0.500009 6.12457e-20)
(1.15951 -0.467161 -1.38731e-20)
(1.14752 -0.435068 -5.83189e-21)
(1.1369 -0.404445 5.93405e-21)
(1.12772 -0.375432 -1.46185e-20)
(1.11983 -0.348006 -1.5e-20)
(1.11304 -0.322115 -4.79694e-21)
(1.10721 -0.297707 4.22642e-21)
(1.10226 -0.274648 -4.9466e-21)
(1.09808 -0.252862 3.09381e-21)
(1.09391 -0.233091 6.62114e-21)
(1.08918 -0.215071 4.3813e-23)
(0.192715 -0.0793857 3.95638e-20)
(0.518599 -0.225452 8.108e-21)
(0.785857 -0.358078 -1.02067e-19)
(0.98419 -0.458258 1.24903e-19)
(1.11206 -0.518377 2.31732e-20)
(1.17988 -0.54149 -1.18545e-19)
(1.2053 -0.537082 3.80004e-20)
(1.2062 -0.516216 -4.12563e-20)
(1.19593 -0.487745 7.34869e-22)
(1.18236 -0.457024 6.09425e-21)
(1.16898 -0.426584 1.42361e-20)
(1.15694 -0.397328 3.26158e-21)
(1.14639 -0.369469 3.35276e-20)
(1.13721 -0.343027 7.01517e-21)
(1.12923 -0.31797 -7.14436e-21)
(1.12227 -0.294267 -2.22029e-21)
(1.11625 -0.271809 -8.1233e-22)
(1.11107 -0.250495 1.55713e-21)
(1.10599 -0.231025 -1.27929e-21)
(1.1003 -0.213388 2.9873e-21)
(0.185621 -0.0685807 -4.60386e-20)
(0.506333 -0.199698 2.49429e-21)
(0.775952 -0.324847 2.13315e-20)
(0.981634 -0.423969 -5.1594e-20)
(1.11852 -0.487344 9.76856e-20)
(1.19414 -0.51558 4.8425e-20)
(1.2247 -0.516279 -4.54288e-20)
(1.22801 -0.499575 -2.60303e-20)
(1.21818 -0.474193 2.03532e-20)
(1.20391 -0.445754 -2.53437e-20)
(1.18938 -0.417089 1.95505e-20)
(1.17609 -0.389282 8.19657e-22)
(1.16432 -0.362646 1.10618e-21)
(1.15398 -0.337253 -8.81669e-21)
(1.14489 -0.313089 1.91261e-20)
(1.1369 -0.290143 -2.23818e-21)
(1.12989 -0.268337 3.51418e-21)
(1.12377 -0.247547 -2.86948e-21)
(1.11785 -0.228408 -3.47243e-22)
(1.11129 -0.211188 -1.77389e-21)
(0.177273 -0.0581849 7.61305e-20)
(0.490627 -0.174331 8.68452e-20)
(0.761068 -0.29136 6.14822e-20)
(0.973478 -0.388662 -9.95022e-21)
(1.11964 -0.45478 1.00061e-20)
(1.20394 -0.487979 -8.33622e-22)
(1.24069 -0.493893 9.75912e-20)
(1.24733 -0.481569 -2.64579e-20)
(1.23858 -0.459489 1.51501e-20)
(1.22407 -0.433485 -7.3718e-20)
(1.20868 -0.406689 1.25029e-20)
(1.19432 -0.380404 2.52792e-20)
(1.18147 -0.355057 -8.70387e-21)
(1.17009 -0.330761 1.81002e-20)
(1.16002 -0.307538 -1.65757e-20)
(1.15108 -0.285392 2.20015e-20)
(1.14316 -0.264281 1.72741e-21)
(1.13616 -0.244058 -5.20568e-21)
(1.12948 -0.225276 -4.22417e-22)
(1.12212 -0.208489 1.32865e-21)
(0.167804 -0.0483369 -1.43713e-19)
(0.471681 -0.149701 3.47648e-20)
(0.741289 -0.258065 -1.39828e-20)
(0.959608 -0.352763 -9.09346e-20)
(1.11517 -0.421023 -2.88154e-20)
(1.20894 -0.458929 -5.48013e-20)
(1.25294 -0.470095 -4.33313e-20)
(1.26391 -0.462339 -4.21352e-20)
(1.257 -0.443759 3.75973e-20)
(1.24274 -0.420337 1.45056e-20)
(1.22681 -0.395501 -4.37875e-20)
(1.2116 -0.370797 -6.43589e-21)
(1.19782 -0.346781 -3.18457e-21)
(1.18552 -0.323631 -1.51418e-20)
(1.17457 -0.301386 -1.95987e-21)
(1.16479 -0.280066 -3.7213e-21)
(1.15604 -0.259684 -1.72059e-20)
(1.14823 -0.240074 5.17495e-21)
(1.14085 -0.221665 7.29315e-21)
(1.13277 -0.205321 -1.55575e-21)
(0.157371 -0.0391588 4.95896e-21)
(0.449754 -0.126139 -6.26914e-20)
(0.716784 -0.225404 2.81353e-20)
(0.939984 -0.316712 -1.89754e-20)
(1.10486 -0.386426 2.23294e-20)
(1.2088 -0.428681 9.03942e-20)
(1.26115 -0.445062 -3.89172e-20)
(1.27751 -0.442018 8.3229e-20)
(1.27329 -0.427123 3.06141e-21)
(1.25983 -0.406427 3.3717e-20)
(1.2437 -0.383641 3.36548e-21)
(1.22787 -0.360568 2.05854e-20)
(1.21334 -0.337916 3.70659e-21)
(1.20026 -0.315936 7.7068e-22)
(1.18853 -0.294692 -2.2525e-20)
(1.178 -0.27423 3.63846e-21)
(1.16851 -0.254599 1.52505e-20)
(1.15995 -0.235635 6.05241e-22)
(1.15196 -0.217614 -4.44816e-21)
(1.14322 -0.201702 1.88319e-21)
(0.146147 -0.0307539 1.71662e-20)
(0.42517 -0.103947 5.00363e-20)
(0.687808 -0.193806 5.27412e-20)
(0.914648 -0.280952 -1.4877e-20)
(1.08853 -0.351357 6.23797e-20)
(1.2032 -0.397498 -1.2175e-20)
(1.26496 -0.418969 8.87459e-20)
(1.28786 -0.420734 -1.03854e-19)
(1.28725 -0.409694 -1.71641e-20)
(1.27524 -0.391866 -1.56709e-20)
(1.25932 -0.371216 -1.71478e-20)
(1.24312 -0.349817 -2.62164e-21)
(1.22801 -0.328553 7.07671e-21)
(1.21428 -0.307755 -1.92552e-20)
(1.20189 -0.287528 1.53728e-20)
(1.19072 -0.267942 -6.57313e-21)
(1.18057 -0.249066 -3.74264e-21)
(1.17132 -0.23079 -4.58297e-21)
(1.16272 -0.213155 -3.13316e-21)
(1.15355 -0.197688 -6.65144e-21)
(0.13432 -0.0232037 7.94182e-20)
(0.398304 -0.0833917 -7.5836e-20)
(0.654706 -0.163677 8.98154e-21)
(0.883737 -0.245926 -1.00332e-20)
(1.06604 -0.316196 -2.36279e-20)
(1.19183 -0.365652 -4.44057e-20)
(1.264 -0.391993 -5.4394e-21)
(1.29464 -0.39861 2.60604e-20)
(1.29868 -0.391573 1.02379e-20)
(1.28886 -0.376752 -1.31942e-20)
(1.27361 -0.358324 1.42388e-20)
(1.25732 -0.33864 -1.42524e-21)
(1.24181 -0.318777 -2.41754e-20)
(1.22758 -0.299168 3.31452e-20)
(1.21465 -0.279966 8.92468e-21)
(1.20291 -0.261259 -4.45978e-21)
(1.19221 -0.243138 5.54757e-21)
(1.18236 -0.225535 6.61946e-21)
(1.17314 -0.208375 5.97099e-21)
(1.16371 -0.193305 5.7481e-21)
(0.122085 -0.0165665 -8.17072e-20)
(0.369578 -0.0646946 6.18931e-20)
(0.617913 -0.135389 2.63488e-20)
(0.847489 -0.212069 -5.32307e-20)
(1.03736 -0.281332 -1.12717e-20)
(1.1744 -0.333425 -4.05916e-20)
(1.25791 -0.364314 1.57773e-20)
(1.29751 -0.375758 -2.50664e-20)
(1.30733 -0.372848 1.37912e-21)
(1.30055 -0.361173 3.29966e-21)
(1.28651 -0.345059 7.10522e-21)
(1.27045 -0.327128 -2.31063e-20)
(1.25474 -0.308675 2.30176e-20)
(1.24014 -0.290251 -1.56041e-20)
(1.22678 -0.272069 -3.47804e-21)
(1.21459 -0.25424 1.32364e-21)
(1.20341 -0.236868 -3.99858e-21)
(1.19306 -0.219928 -9.69086e-21)
(1.18332 -0.203309 -2.44123e-22)
(1.17355 -0.188602 -5.4064e-21)
(0.109644 -0.0108762 -9.77563e-21)
(0.339454 -0.0480298 -2.86523e-20)
(0.577948 -0.109272 -9.77102e-21)
(0.806255 -0.1798 1.53258e-20)
(1.00252 -0.24716 -8.83682e-21)
(1.15068 -0.301113 9.24909e-21)
(1.24628 -0.336117 2.05951e-20)
(1.29606 -0.352287 1.75213e-20)
(1.31291 -0.353595 1.35273e-20)
(1.31013 -0.3452 -2.95894e-21)
(1.29794 -0.331497 -6.8692e-21)
(1.28249 -0.315363 8.4436e-21)
(1.2668 -0.298325 -3.77362e-21)
(1.25198 -0.281077 5.20037e-21)
(1.23831 -0.263903 -2.48116e-21)
(1.22575 -0.24694 6.03325e-21)
(1.21418 -0.23031 -1.74467e-21)
(1.20341 -0.214025 5.80667e-21)
(1.19323 -0.197947 -1.67186e-21)
(1.18307 -0.183577 3.87781e-22)
(0.0971958 -0.00614234 -1.35028e-22)
(0.308416 -0.0335169 -1.31488e-22)
(0.535403 -0.0856026 -3.28969e-21)
(0.760501 -0.149509 1.61761e-20)
(0.961686 -0.214076 1.02466e-20)
(1.12047 -0.269025 -7.66809e-21)
(1.22871 -0.307594 -5.61762e-21)
(1.28986 -0.328298 -1.6286e-21)
(1.31504 -0.333871 -7.77641e-21)
(1.31737 -0.328888 -4.97479e-22)
(1.30778 -0.317704 3.30395e-22)
(1.2934 -0.303418 -3.18328e-21)
(1.27799 -0.287802 -1.94335e-21)
(1.26311 -0.271716 -4.35238e-21)
(1.24924 -0.25553 -4.63907e-21)
(1.23641 -0.239416 -3.66209e-22)
(1.22452 -0.223512 1.65991e-21)
(1.2134 -0.207868 1.69282e-21)
(1.20285 -0.192308 1.80798e-21)
(1.19235 -0.178246 2.58472e-21)
(0.0849308 -0.0023502 1.11418e-20)
(0.276962 -0.0212189 -1.71327e-21)
(0.490937 -0.0645965 -2.92333e-21)
(0.710812 -0.12155 7.36897e-21)
(0.915132 -0.182473 1.47583e-20)
(1.08369 -0.237484 -6.50477e-21)
(1.20482 -0.278949 -5.27081e-21)
(1.27842 -0.303893 -9.75822e-21)
(1.3133 -0.313722 -8.75032e-21)
(1.32197 -0.312271 1.6327e-21)
(1.31587 -0.303724 -1.44673e-21)
(1.30311 -0.291351 -6.60732e-22)
(1.2883 -0.277172 -3.40168e-21)
(1.27354 -0.262234 -5.46214e-21)
(1.25958 -0.247011 -1.32016e-21)
(1.24657 -0.231721 -4.37463e-22)
(1.23445 -0.21652 -9.76713e-23)
(1.22306 -0.201495 1.12846e-21)
(1.2122 -0.186433 4.06893e-21)
(1.20142 -0.172642 3.32427e-21)
(0.0730274 0.000537235 -6.69741e-21)
(0.245586 -0.0111413 -9.77932e-21)
(0.445253 -0.0464005 -1.30261e-20)
(0.657886 -0.0962291 1.71342e-20)
(0.86329 -0.152732 1.65202e-20)
(1.04034 -0.206826 3.02674e-22)
(1.17427 -0.250403 6.26448e-21)
(1.2612 -0.279177 1.7334e-20)
(1.30718 -0.293184 1.87344e-20)
(1.32354 -0.295361 1.21375e-20)
(1.32199 -0.289582 -2.95792e-20)
(1.31152 -0.279206 1.21154e-20)
(1.29769 -0.266491 -5.66864e-21)
(1.28327 -0.252689 1.22309e-20)
(1.26935 -0.238402 -7.74359e-22)
(1.25626 -0.223907 -1.92495e-21)
(1.24399 -0.209379 1.24718e-21)
(1.23239 -0.194947 1.16215e-20)
(1.22129 -0.180368 -4.04108e-21)
(1.21031 -0.166799 3.29412e-22)
(0.0616458 0.00257702 -2.06652e-20)
(0.214763 -0.00323377 4.70885e-20)
(0.399077 -0.0310882 4.67304e-21)
(0.60252 -0.0737909 -5.90297e-20)
(0.806748 -0.125212 -1.09924e-20)
(0.990578 -0.177399 2.54802e-20)
(1.13677 -0.2222 -5.88147e-20)
(1.23767 -0.254268 -5.10481e-22)
(1.29608 -0.272284 5.44696e-21)
(1.32162 -0.278153 -1.10134e-21)
(1.32582 -0.275279 1.57022e-20)
(1.31848 -0.267007 -2.72731e-20)
(1.30611 -0.2558 4.3578e-21)
(1.29229 -0.243132 -1.02417e-20)
(1.27857 -0.229755 -8.43621e-21)
(1.2655 -0.216022 7.7596e-21)
(1.25315 -0.202133 -8.98189e-22)
(1.24142 -0.188262 -1.82966e-20)
(1.23014 -0.174154 5.30309e-22)
(1.21901 -0.160747 -8.98136e-21)
(0.0509234 0.00384304 1.59825e-20)
(0.184934 0.00260583 -2.61667e-20)
(0.353138 -0.018658 -2.06215e-21)
(0.545593 -0.0544099 -4.8816e-20)
(0.746254 -0.100237 -3.04083e-20)
(0.934752 -0.149562 2.48708e-20)