/*--------------------------------*- C++ -*----------------------------------*\
  =========                 |
  \\      /  F ield         | OpenFOAM: The Open Source CFD Toolbox
   \\    /   O peration     | Website:  https://openfoam.org
    \\  /    A nd           | Version:  7
     \\/     M anipulation  |
\*---------------------------------------------------------------------------*/
FoamFile
{
    version     2.0;
    format      ascii;
    class       surfaceScalarField;
    location    "0.6";
    object      phi;
}
// * * * * * * * * * * * * * * * * * * * * * * * * * * * * * * * * * * * * * //

dimensions      [0 3 -1 0 0 0 0];

internalField   nonuniform List<scalar> 
616
(
1.82595e-05
6.69713e-05
2.80964e-05
6.7871e-05
3.78426e-05
6.6994e-05
4.72731e-05
6.45313e-05
5.61935e-05
6.07639e-05
6.44519e-05
5.60259e-05
7.19446e-05
5.06659e-05
7.86162e-05
4.5012e-05
8.4455e-05
3.93474e-05
8.94855e-05
3.38955e-05
9.37585e-05
2.88161e-05
9.73424e-05
2.42095e-05
0.000100315
2.01246e-05
0.000102755
1.6571e-05
0.00010474
1.35294e-05
0.000106344
1.0962e-05
0.000107629
8.82052e-06
0.000108654
7.05277e-06
0.000109465
5.60654e-06
0.000110105
4.4326e-06
0.000110606
3.48626e-06
0.000110998
2.72809e-06
0.000111302
2.12406e-06
0.000111537
1.64529e-06
0.000111718
1.26761e-06
0.000111857
9.71026e-07
0.000111962
7.39164e-07
0.000112042
5.58704e-07
0.000112102
4.18888e-07
3.11079e-07
-2.246e-06
-9.87629e-06
-6.07067e-06
-2.11788e-05
-1.01205e-05
-2.48661e-05
-1.37074e-05
-2.38452e-05
-1.66399e-05
-2.06376e-05
-1.89207e-05
-1.67911e-05
-2.06462e-05
-1.3183e-05
-2.1945e-05
-1.02218e-05
-2.29531e-05
-8.06768e-06
-2.38014e-05
-6.74851e-06
-2.46092e-05
-6.22549e-06
-2.548e-05
-6.42419e-06
-2.64988e-05
-7.24841e-06
-2.77291e-05
-8.58588e-06
-2.92115e-05
-1.03104e-05
-3.09618e-05
-1.22826e-05
-3.29704e-05
-1.43505e-05
-3.52017e-05
-1.63511e-05
-3.75952e-05
-1.81126e-05
-4.00662e-05
-1.94586e-05
-4.25094e-05
-2.02136e-05
-4.48012e-05
-2.02114e-05
-4.6805e-05
-1.93037e-05
-4.83764e-05
-1.73719e-05
-4.93684e-05
-1.4338e-05
-4.96388e-05
-1.01756e-05
-4.9056e-05
-4.9201e-06
-4.75058e-05
1.32453e-06
-4.48985e-05
8.3829e-06
-4.11749e-05
1.60101e-05
-3.63125e-05
2.39006e-05
-3.03314e-05
3.17036e-05
-2.32975e-05
3.90466e-05
-1.53246e-05
4.55638e-05
-6.57218e-06
5.09293e-05
2.76129e-06
5.48897e-05
1.24478e-05
5.72849e-05
2.22458e-05
5.80729e-05
3.19163e-05
5.73235e-05
4.12397e-05
5.5208e-05
5.003e-05
5.19736e-05
5.81451e-05
4.79109e-05
6.54904e-05
4.33205e-05
7.20187e-05
3.84837e-05
7.77244e-05
3.36417e-05
8.26356e-05
2.89843e-05
8.68051e-05
2.46467e-05
9.03013e-05
2.07132e-05
9.32009e-05
1.72251e-05
9.55821e-05
1.41898e-05
9.75207e-05
1.15909e-05
9.90866e-05
9.39604e-06
0.000100343
7.56437e-06
0.000101344
6.05142e-06
0.000102138
4.81285e-06
0.000102764
3.80683e-06
0.000103254
2.99536e-06
0.000103638
2.34485e-06
0.000103935
1.8263e-06
0.000104166
1.41506e-06
0.000104343
1.09051e-06
0.000104478
8.35543e-07
0.000104581
6.36144e-07
0.000104659
4.80901e-07
0.000104717
3.60593e-07
2.67807e-07
-2.07039e-06
-7.8059e-06
-5.77015e-06
-1.7479e-05
-9.81327e-06
-2.0823e-05
-1.34995e-05
-2.0159e-05
-1.65881e-05
-1.7549e-05
-1.90455e-05
-1.43336e-05
-2.09478e-05
-1.12808e-05
-2.24144e-05
-8.75512e-06
-2.35791e-05
-6.90297e-06
-2.45736e-05
-5.75399e-06
-2.55196e-05
-5.27955e-06
-2.65236e-05
-5.42018e-06
-2.7674e-05
-6.09799e-06
-2.90383e-05
-7.22152e-06
-3.06613e-05
-8.68742e-06
-3.25631e-05
-1.03808e-05
-3.4738e-05
-1.21756e-05
-3.71541e-05
-1.3935e-05
-3.97532e-05
-1.55135e-05
-4.24518e-05
-1.67599e-05
-4.51435e-05
-1.7522e-05
-4.77015e-05
-1.76533e-05
-4.9984e-05
-1.70212e-05
-5.18388e-05
-1.5517e-05
-5.31107e-05
-1.30661e-05
-5.36481e-05
-9.63825e-06
-5.33107e-05
-5.25747e-06
-5.19779e-05
-8.28919e-09
-4.95559e-05
5.96089e-06
-4.59853e-05
1.24396e-05
-4.12478e-05
1.91631e-05
-3.53706e-05
2.58264e-05
-2.84301e-05
3.21061e-05
-2.05515e-05
3.76852e-05
-1.19052e-05
4.2283e-05
-2.69812e-06
4.56826e-05
6.83575e-06
4.7751e-05
1.64549e-05
4.84537e-05
2.59235e-05
4.78549e-05
3.50286e-05
4.61029e-05
4.35928e-05
4.34093e-05
5.14831e-05
4.00207e-05
5.86131e-05
3.61905e-05
6.49421e-05
3.21547e-05
7.04688e-05
2.81151e-05
7.52234e-05
2.42297e-05
7.92592e-05
2.06109e-05
8.26436e-05
1.73288e-05
8.54512e-05
1.44174e-05
8.7758e-05
1.1883e-05
8.9637e-05
9.71188e-06
9.11558e-05
7.87726e-06
9.23749e-05
6.34523e-06
9.33474e-05
5.07893e-06
9.41187e-05
4.04157e-06
9.47271e-05
3.19841e-06
9.52046e-05
2.51784e-06
9.55775e-05
1.97193e-06
9.58674e-05
1.53649e-06
9.60914e-05
1.19097e-06
9.62638e-05
9.18143e-07
9.63956e-05
7.0371e-07
9.64958e-05
5.3594e-07
9.65715e-05
4.05273e-07
9.66281e-05
3.03976e-07
2.25829e-07
-1.87565e-06
-5.93025e-06
-5.38206e-06
-1.39726e-05
-9.32162e-06
-1.68835e-05
-1.29993e-05
-1.64813e-05
-1.61383e-05
-1.441e-05
-1.86753e-05
-1.17967e-05
-2.06667e-05
-9.28927e-06
-2.22222e-05
-7.19968e-06
-2.34703e-05
-5.65481e-06
-2.45411e-05
-4.68328e-06
-2.55557e-05
-4.2649e-06
-2.66219e-05
-4.35399e-06
-2.783e-05
-4.88993e-06
-2.92504e-05
-5.80107e-06
-3.09318e-05
-7.00599e-06
-3.28991e-05
-8.41358e-06
-3.51518e-05
-9.92288e-06
-3.76634e-05
-1.14234e-05
-4.03806e-05
-1.27963e-05
-4.3224e-05
-1.39166e-05
-4.60895e-05
-1.46565e-05
-4.88512e-05
-1.48916e-05
-5.13657e-05
-1.45068e-05
-5.34771e-05
-1.34056e-05
-5.50245e-05
-1.15186e-05
-5.58496e-05
-8.81321e-06
-5.58049e-05
-5.30215e-06
-5.47632e-05
-1.04997e-06
-5.2626e-05
3.82367e-06
-4.93316e-05
9.14518e-06
-4.4862e-05
1.46935e-05
-3.92479e-05
2.02123e-05
-3.25709e-05
2.54292e-05
-2.49626e-05
3.00769e-05
-1.65988e-05
3.39192e-05
-7.69077e-06
3.67745e-05
1.52805e-06
3.85322e-05
1.08176e-05
3.91641e-05
1.99482e-05
3.87244e-05
2.87145e-05
3.73366e-05
3.69481e-05
3.51757e-05
4.45241e-05
3.24447e-05
5.13634e-05
2.93512e-05
5.74299e-05
2.60882e-05
6.2725e-05
2.28199e-05
6.72799e-05
1.96748e-05
7.11465e-05
1.67443e-05
7.439e-05
1.40852e-05
7.70821e-05
1.17253e-05
7.92953e-05
9.66981e-06
8.10994e-05
7.90781e-06
8.25588e-05
6.41791e-06
8.37311e-05
5.17288e-06
8.4667e-05
4.14304e-06
8.54098e-05
3.29877e-06
8.59962e-05
2.61206e-06
8.64566e-05
2.05737e-06
8.68164e-05
1.61213e-06
8.70962e-05
1.25676e-06
8.73125e-05
9.74608e-07
8.7479e-05
7.51686e-07
8.76063e-05
5.76387e-07
8.77031e-05
4.39168e-07
8.77761e-05
3.32248e-07
8.78308e-05
2.49326e-07
1.85329e-07
-1.65849e-06
-4.27176e-06
-4.90807e-06
-1.0723e-05
-8.65288e-06
-1.31386e-05
-1.22175e-05
-1.29167e-05
-1.53023e-05
-1.13252e-05
-1.78211e-05
-9.27793e-06
-1.98137e-05
-7.29668e-06
-2.13785e-05
-5.63489e-06
-2.2637e-05
-4.39631e-06
-2.37142e-05
-3.60605e-06
-2.47285e-05
-3.2506e-06
-2.57859e-05
-3.29655e-06
-2.69769e-05
-3.69898e-06
-2.83735e-05
-4.40449e-06
-3.00274e-05
-5.352e-06
-3.19684e-05
-6.47263e-06
-3.42019e-05
-7.68939e-06
-3.67082e-05
-8.91714e-06
-3.94413e-05
-1.00632e-05
-4.2329e-05
-1.10288e-05
-4.52737e-05
-1.17119e-05
-4.81543e-05
-1.20109e-05
-5.08306e-05
-1.18305e-05
-5.31479e-05
-1.10884e-05
-5.49438e-05
-9.72271e-06
-5.60566e-05
-7.70037e-06
-5.63344e-05
-5.02438e-06
-5.56444e-05
-1.73996e-06
-5.38829e-05
2.06214e-06
-5.09838e-05
6.2461e-06
-4.69263e-05
1.06359e-05
-4.17396e-05
1.50257e-05
-3.55051e-05
1.91947e-05
-2.83544e-05
2.29261e-05
-2.04628e-05
2.60277e-05
-1.20395e-05
2.83512e-05
-3.31366e-06
2.98063e-05
5.48076e-06
3.03697e-05
1.41225e-05
3.00826e-05
2.24156e-05
2.90435e-05
3.02003e-05
2.7391e-05
3.73597e-05
2.52853e-05
4.38203e-05
2.28906e-05
4.95499e-05
2.03586e-05
5.4551e-05
1.78188e-05
5.88536e-05
1.53722e-05
6.25074e-05
1.30905e-05
6.55742e-05
1.10185e-05
6.81212e-05
9.1783e-06
7.02167e-05
7.57428e-06
7.19263e-05
7.33104e-05
7.44232e-05
7.53124e-05
7.60188e-05
7.65768e-05
7.70153e-05
7.73582e-05
7.76249e-05
7.78314e-05
7.79903e-05
7.81118e-05
7.82043e-05
7.8274e-05
7.83263e-05
-1.41635e-06
-4.34904e-06
-7.8111e-06
-1.11597e-05
-1.40858e-05
-1.64892e-05
-1.83958e-05
-1.98925e-05
-2.10913e-05
-2.21093e-05
-2.30585e-05
-2.40406e-05
-2.51434e-05
-2.64387e-05
-2.798e-05
-2.9801e-05
-3.19133e-05
-3.4305e-05
-3.69394e-05
-3.97543e-05
-4.26623e-05
-4.55523e-05
-4.82924e-05
-5.07344e-05
-5.27204e-05
-5.40905e-05
-5.46917e-05
-5.43887e-05
-5.30731e-05
-5.06735e-05
-4.7163e-05
-4.2565e-05
-3.69543e-05
-3.0456e-05
-2.32378e-05
-1.55003e-05
-7.46284e-06
6.52339e-07
8.63477e-06
1.62999e-05
2.34979e-05
3.01194e-05
3.60962e-05
4.13983e-05
4.60281e-05
5.00134e-05
5.33998e-05
5.62442e-05
5.86084e-05
)
;

boundaryField
{
    inlet
    {
        type            calculated;
        value           nonuniform 0();
    }
    outlet
    {
        type            calculated;
        value           nonuniform 0();
    }
    wall
    {
        type            calculated;
        value           uniform 0;
    }
    wedge1
    {
        type            wedge;
        value           nonuniform List<scalar> 
344
(
6.01136e-16
4.77562e-16
3.67345e-16
8.19231e-16
-1.27169e-15
1.28828e-15
1.06187e-15
8.51087e-16
1.99117e-15
-3.27662e-15
1.51059e-15
1.26358e-15
1.02733e-15
2.43733e-15
-4.06701e-15
1.44579e-15
1.22154e-15
1.00197e-15
2.39544e-15
-4.02324e-15
1.24965e-15
1.0628e-15
8.76304e-16
2.10296e-15
-3.54011e-15
1.01647e-15
8.68581e-16
7.18451e-16
1.72706e-15
-2.90746e-15
7.9912e-16
6.85203e-16
5.67683e-16
1.36435e-15
-2.29206e-15
6.22231e-16
5.34695e-16
4.42919e-16
1.06186e-15
-1.77553e-15
4.95138e-16
4.25612e-16
3.51713e-16
8.38754e-16
-1.39119e-15
4.19114e-16
3.59509e-16
2.95676e-16
6.99454e-16
-1.14721e-15
3.91585e-16
3.34462e-16
2.73429e-16
6.41156e-16
-1.03962e-15
4.07844e-16
3.4669e-16
2.82039e-16
6.57395e-16
-1.05843e-15
4.61828e-16
3.91266e-16
3.17636e-16
7.39473e-16
-1.18999e-15
5.46405e-16
4.62368e-16
3.75629e-16
8.76917e-16
-1.41762e-15
6.53523e-16
5.53388e-16
4.50776e-16
1.05765e-15
-1.72195e-15
7.74292e-16
6.56985e-16
5.37215e-16
1.26806e-15
-2.08092e-15
8.99076e-16
7.65138e-16
6.28487e-16
1.493e-15
-2.46981e-15
1.0176e-15
8.69219e-16
7.17572e-16
1.71588e-15
-2.86124e-15
1.11914e-15
9.60116e-16
7.96976e-16
1.91879e-15
-3.22534e-15
1.19275e-15
1.02845e-15
8.58892e-16
2.08284e-15
-3.53019e-15
1.22766e-15
1.06486e-15
8.95437e-16
2.1887e-15
-3.74263e-15
1.21423e-15
1.06066e-15
8.99038e-16
2.21732e-15
-3.82949e-15
1.14447e-15
1.00882e-15
8.63524e-16
2.15223e-15
-3.75934e-15
1.01198e-15
9.03503e-16
7.83817e-16
1.98129e-15
-3.51013e-15
8.13155e-16
7.41177e-16
6.56547e-16
1.69539e-15
-3.0662e-15
5.48085e-16
5.21433e-16
4.80897e-16
1.29165e-15
-2.42042e-15
2.22235e-16
2.48163e-16
2.59441e-16
7.75917e-16
-1.58028e-15
-1.67416e-16
-7.60811e-17
-1.63105e-18
1.69965e-16
-5.78337e-16
-6.15034e-16
-4.55448e-16
-3.13455e-16
-5.73571e-16
6.29226e-16
-1.09185e-15
-8.60397e-16
-6.47517e-16
-1.38142e-15
2.00065e-15
-1.58061e-15
-1.27625e-15
-9.91699e-16
-2.21457e-15
3.41617e-15
-2.06021e-15
-1.68472e-15
-1.33062e-15
-3.03739e-15
4.82055e-15
-2.50809e-15
-2.06631e-15
-1.64782e-15
-3.80984e-15
6.14543e-15
-2.90222e-15
-2.40202e-15
-1.92732e-15
-4.49267e-15
7.32272e-15
-3.22314e-15
-2.67522e-15
-2.15517e-15
-5.05153e-15
8.29246e-15
-3.45582e-15
-2.87328e-15
-2.32086e-15
-5.46059e-15
9.00934e-15
-1.27485e-14
-3.59131e-15
-2.98875e-15
-2.4183e-15
-5.70498e-15
9.44707e-15
-1.28795e-14
-3.62762e-15
-3.02028e-15
-2.44648e-15
-5.78221e-15
9.60079e-15
-1.26789e-14
-3.56972e-15
-2.97242e-15
-2.40932e-15
-5.70179e-15
9.48617e-15
-1.21841e-14
-3.42867e-15
-2.85477e-15
-2.31487e-15
-5.48336e-15
9.1365e-15
-1.14487e-14
-3.22004e-15
-2.68064e-15
-2.17419e-15
-5.15363e-15
8.59708e-15
-1.05361e-14
-2.96194e-15
-2.46536e-15
-1.99991e-15
-4.74299e-15
7.91942e-15
-9.51186e-15
-2.67295e-15
-2.22452e-15
-1.80478e-15
-4.28212e-15
7.15541e-15
-8.43748e-15
-2.37038e-15
-1.97259e-15
-1.60061e-15
-3.79914e-15
6.35265e-15
-7.36538e-15
-2.06889e-15
-1.72173e-15
-1.39733e-15
-3.31783e-15
5.55121e-15
-6.33671e-15
-1.7799e-15
-1.48142e-15
-1.20261e-15
-2.85659e-15
4.78207e-15
-5.38071e-15
-1.51152e-15
-1.2583e-15
-1.02181e-15
-2.4282e-15
4.06704e-15
-4.51547e-15
-1.26871e-15
-1.05648e-15
-8.5825e-16
-2.04048e-15
3.41948e-15
-3.74963e-15
-1.05382e-15
-8.77863e-16
-7.13456e-16
-1.6971e-15
2.84563e-15
-3.08444e-15
-8.67166e-16
-7.22671e-16
-5.87605e-16
-1.3985e-15
2.34633e-15
-2.5159e-15
-7.07593e-16
-5.89949e-16
-4.79928e-16
-1.14289e-15
-2.03663e-15
-5.73032e-16
-4.77985e-16
-3.89044e-16
-9.27002e-16
-1.63739e-15
-4.60891e-16
-3.84627e-16
-3.13222e-16
-7.46764e-16
-1.30818e-15
-3.68372e-16
-3.0756e-16
-2.50589e-16
-5.97791e-16
-1.03913e-15
-2.92718e-16
-2.44502e-16
-1.9931e-16
-4.7574e-16
-8.20957e-16
-2.3134e-16
-1.93317e-16
-1.57661e-16
-3.76531e-16
-6.45248e-16
-1.81888e-16
-1.52052e-16
-1.24064e-16
-2.96438e-16
-5.04592e-16
-1.42276e-16
-1.1898e-16
-9.71193e-17
-2.32175e-16
-3.92619e-16
-1.10727e-16
-9.26233e-17
-7.5634e-17
-1.80901e-16
-3.03934e-16
-8.57321e-17
-7.17359e-17
-5.85988e-17
-1.40217e-16
-2.34026e-16
-6.60268e-17
-5.52609e-17
-4.5157e-17
-1.08088e-16
-1.79161e-16
-5.05514e-17
-4.23175e-17
-3.45901e-17
-8.28301e-17
-1.36294e-16
-3.84556e-17
-3.21946e-17
-2.6323e-17
-6.30635e-17
-1.02951e-16
-2.90474e-17
-2.43211e-17
-1.98903e-17
-4.76734e-17
-7.71313e-17
-2.17591e-17
-1.8218e-17
-1.49027e-17
-3.57389e-17
-5.72344e-17
-1.61437e-17
-1.35179e-17
-1.10603e-17
-2.65382e-17
)
;
    }
    wedge2
    {
        type            wedge;
        value           nonuniform List<scalar> 
344
(
6.01135e-16
4.77563e-16
3.67346e-16
8.19232e-16
-1.27169e-15
1.28827e-15
1.06186e-15
8.51083e-16
1.99116e-15
-3.27662e-15
1.51058e-15
1.26357e-15
1.02733e-15
2.43733e-15
-4.06702e-15
1.44578e-15
1.22153e-15
1.00196e-15
2.39544e-15
-4.02324e-15
1.24964e-15
1.06279e-15
8.763e-16
2.10296e-15
-3.54012e-15
1.01646e-15
8.68572e-16
7.18444e-16
1.72705e-15
-2.90747e-15
7.99105e-16
6.85191e-16
5.67673e-16
1.36434e-15
-2.29207e-15
6.22219e-16
5.34686e-16
4.42913e-16
1.06186e-15
-1.77553e-15
4.95129e-16
4.25606e-16
3.5171e-16
8.38753e-16
-1.39119e-15
4.19104e-16
3.59501e-16
2.95671e-16
6.99451e-16
-1.14722e-15
3.91574e-16
3.34453e-16
2.73423e-16
6.41152e-16
-1.03963e-15
4.07837e-16
3.46685e-16
2.82036e-16
6.57393e-16
-1.05843e-15
4.61822e-16
3.91264e-16
3.17636e-16
7.39473e-16
-1.18998e-15
5.46399e-16
4.62365e-16
3.75627e-16
8.76917e-16
-1.41762e-15
6.53516e-16
5.53383e-16
4.50774e-16
1.05765e-15
-1.72195e-15
7.74288e-16
6.56983e-16
5.37216e-16
1.26806e-15
-2.08092e-15
8.99074e-16
7.65139e-16
6.2849e-16
1.493e-15
-2.46981e-15
1.0176e-15
8.6922e-16
7.17574e-16
1.71588e-15
-2.86124e-15
1.11913e-15
9.60117e-16
7.96979e-16
1.91879e-15
-3.22533e-15
1.19275e-15
1.02845e-15
8.58899e-16
2.08285e-15
-3.53018e-15
1.22767e-15
1.06487e-15
8.95448e-16
2.18871e-15
-3.74262e-15
1.21424e-15
1.06067e-15
8.99053e-16
2.21733e-15
-3.82948e-15
1.14448e-15
1.00883e-15
8.63542e-16
2.15225e-15
-3.75932e-15
1.012e-15
9.03522e-16
7.83838e-16
1.98132e-15
-3.51011e-15
8.13179e-16
7.41204e-16
6.56575e-16
1.69542e-15
-3.06618e-15
5.48115e-16
5.21467e-16
4.80932e-16
1.29168e-15
-2.42038e-15
2.22272e-16
2.48202e-16
2.59481e-16
7.75955e-16
-1.58024e-15
-1.67369e-16
-7.60323e-17
-1.58228e-18
1.70006e-16
-5.78299e-16
-6.14978e-16
-4.55391e-16
-3.134e-16
-5.73518e-16
6.29274e-16
-1.09178e-15
-8.60332e-16
-6.47454e-16
-1.38136e-15
2.0007e-15
-1.58054e-15
-1.27617e-15
-9.91628e-16
-2.2145e-15
3.41623e-15
-2.06012e-15
-1.68463e-15
-1.33054e-15
-3.03731e-15
4.82061e-15
-2.508e-15
-2.06621e-15
-1.64774e-15
-3.80977e-15
6.14549e-15
-2.90211e-15
-2.40192e-15
-1.92724e-15
-4.49259e-15
7.32278e-15
-3.22302e-15
-2.67511e-15
-2.15507e-15
-5.05144e-15
8.29253e-15
-3.45569e-15
-2.87316e-15
-2.32076e-15
-5.4605e-15
9.00941e-15
-1.27484e-14
-3.59118e-15
-2.98863e-15
-2.4182e-15
-5.70489e-15
9.44714e-15
-1.28793e-14
-3.62749e-15
-3.02017e-15
-2.44639e-15
-5.78213e-15
9.60085e-15
-1.26787e-14
-3.56959e-15
-2.9723e-15
-2.40922e-15
-5.70171e-15
9.48624e-15
-1.21839e-14
-3.42853e-15
-2.85465e-15
-2.31477e-15
-5.48327e-15
9.13656e-15
-1.14486e-14
-3.21991e-15
-2.68053e-15
-2.1741e-15
-5.15355e-15
8.59714e-15
-1.0536e-14
-2.96182e-15
-2.46526e-15
-1.99983e-15
-4.74293e-15
7.91947e-15
-9.51172e-15
-2.67283e-15
-2.22442e-15
-1.80471e-15
-4.28206e-15
7.15546e-15
-8.43734e-15
-2.37027e-15
-1.97249e-15
-1.60053e-15
-3.79908e-15
6.3527e-15
-7.36526e-15
-2.06879e-15
-1.72165e-15
-1.39726e-15
-3.31778e-15
5.55125e-15
-6.3366e-15
-1.77981e-15
-1.48134e-15
-1.20255e-15
-2.85655e-15
4.7821e-15
-5.38061e-15
-1.51144e-15
-1.25825e-15
-1.02177e-15
-2.42817e-15
4.06706e-15
-4.51538e-15
-1.26863e-15
-1.05643e-15
-8.58207e-16
-2.04045e-15
3.41951e-15
-3.74954e-15
-1.05375e-15
-8.77803e-16
-7.13406e-16
-1.69706e-15
2.84566e-15
-3.08436e-15
-8.67104e-16
-7.2262e-16
-5.87565e-16
-1.39847e-15
2.34635e-15
-2.51584e-15
-7.07545e-16
-5.89915e-16
-4.79903e-16
-1.14287e-15
-2.03658e-15
-5.72987e-16
-4.7795e-16
-3.89019e-16
-9.26983e-16
-1.63733e-15
-4.6084e-16
-3.84586e-16
-3.13188e-16
-7.46739e-16
-1.30813e-15
-3.68331e-16
-3.07527e-16
-2.50564e-16
-5.97772e-16
-1.03909e-15
-2.92689e-16
-2.44484e-16
-1.99298e-16
-4.75734e-16
-8.2092e-16
-2.31313e-16
-1.93297e-16
-1.57646e-16
-3.7652e-16
-6.45205e-16
-1.81851e-16
-1.52023e-16
-1.2404e-16
-2.96422e-16
-5.04556e-16
-1.42246e-16
-1.18957e-16
-9.71014e-17
-2.32161e-16
-3.9259e-16
-1.10706e-16
-9.26125e-17
-7.56275e-17
-1.809e-16
-3.03906e-16
-8.57119e-17
-7.17219e-17
-5.85896e-17
-1.4021e-16
-2.33992e-16
-6.59968e-17
-5.52374e-17
-4.51375e-17
-1.08075e-16
-1.79132e-16
-5.05278e-17
-4.22983e-17
-3.45758e-17
-8.28197e-17
-1.36272e-16
-3.84409e-17
-3.21876e-17
-2.63192e-17
-6.3064e-17
-1.02931e-16
-2.90348e-17
-2.43147e-17
-1.98882e-17
-4.76733e-17
-7.71159e-17
-2.17525e-17
-1.82202e-17
-1.4908e-17
-3.57475e-17
-5.72204e-17
-1.61377e-17
-1.35175e-17
-1.10643e-17
-2.65434e-17
)
;
    }
    axis
    {
        type            empty;
        value           nonuniform 0();
    }
    procBoundary39to33
    {
        type            processor;
        value           nonuniform List<scalar> 
67
(
-7.6659e-05
-7.77079e-05
-7.67402e-05
-7.39618e-05
-6.96843e-05
-6.42844e-05
-5.81586e-05
-5.16836e-05
-4.51862e-05
-3.89259e-05
-3.30892e-05
-2.77933e-05
-2.30968e-05
-1.90112e-05
-1.55152e-05
-1.25653e-05
-1.0106e-05
-8.07701e-06
-6.418e-06
-5.07213e-06
-3.98783e-06
-3.11961e-06
-2.42826e-06
-1.88053e-06
-1.44863e-06
-1.10959e-06
-8.44614e-07
-6.38428e-07
-4.78707e-07
-3.55563e-07
1.21223e-05
2.50035e-05
2.89159e-05
2.74321e-05
2.35701e-05
1.9072e-05
1.49085e-05
1.15205e-05
9.07578e-06
7.5968e-06
7.03327e-06
7.29502e-06
8.26715e-06
9.8162e-06
1.17928e-05
1.40329e-05
1.63591e-05
1.85825e-05
2.0506e-05
2.19297e-05
2.26568e-05
2.25032e-05
2.13076e-05
1.89432e-05
1.533e-05
1.0446e-05
4.33724e-06
-2.87466e-06
-1.09902e-05
-1.97338e-05
-2.8763e-05
-3.76847e-05
-4.60805e-05
-5.35367e-05
-5.96817e-05
-8.57183e-06
-6.42231e-05
)
;
    }
    procBoundary39to34
    {
        type            processor;
        value           uniform 0.000112146;
    }
    procBoundary39to40
    {
        type            processor;
        value           nonuniform List<scalar> 4(0.000104761 9.66701e-05 8.78713e-05 7.8365e-05);
    }
    procBoundary39to45
    {
        type            processor;
        value           nonuniform List<scalar> 
67
(
6.19825e-06
5.03382e-06
4.05999e-06
3.25384e-06
2.59244e-06
2.05404e-06
1.61883e-06
1.26924e-06
9.90017e-07
7.68179e-07
5.92802e-07
4.54811e-07
3.46736e-07
2.62481e-07
1.97105e-07
1.46625e-07
-2.85541e-06
-7.79034e-06
-9.67659e-06
-9.56808e-06
-8.39907e-06
-6.87459e-06
-5.39008e-06
-4.13816e-06
-3.1975e-06
-2.58808e-06
-2.30138e-06
-2.31447e-06
-2.59618e-06
-3.10921e-06
-3.81063e-06
-4.65162e-06
-5.57709e-06
-6.52544e-06
-7.42882e-06
-8.21394e-06
-8.80387e-06
-9.12088e-06
-9.09044e-06
-8.64635e-06
-7.7367e-06
-6.33034e-06
-4.4231e-06
-2.043e-06
7.46542e-07
3.84648e-06
7.12549e-06
1.04276e-05
1.3584e-05
1.64277e-05
1.88095e-05
2.06138e-05
2.17688e-05
2.22545e-05
2.21002e-05
2.13784e-05
2.0193e-05
1.86638e-05
1.69137e-05
1.50565e-05
1.3189e-05
1.13869e-05
9.70406e-06
8.17417e-06
6.81405e-06
6.05553e-05
5.62738e-06
)
;
    }
}


// ************************************************************************* //
