/*--------------------------------*- C++ -*----------------------------------*\
  =========                 |
  \\      /  F ield         | OpenFOAM: The Open Source CFD Toolbox
   \\    /   O peration     | Website:  https://openfoam.org
    \\  /    A nd           | Version:  7
     \\/     M anipulation  |
\*---------------------------------------------------------------------------*/
FoamFile
{
    version     2.0;
    format      ascii;
    class       volVectorField;
    location    "0.6";
    object      U;
}
// * * * * * * * * * * * * * * * * * * * * * * * * * * * * * * * * * * * * * //

dimensions      [0 1 -1 0 0 0 0];

internalField   nonuniform List<vector> 
344
(
(0.0854925 0.160716 5.13844e-16)
(0.148349 0.16287 5.29252e-16)
(0.21138 0.160781 5.45382e-16)
(0.273071 0.154895 5.62878e-16)
(0.33206 0.145877 5.37186e-16)
(0.387227 0.134524 5.07239e-16)
(0.437748 0.121669 4.88355e-16)
(0.483118 0.1081 4.77131e-16)
(0.523135 0.0944981 4.36607e-16)
(0.557851 0.0814018 3.87382e-16)
(0.587524 0.0691976 3.45002e-16)
(0.612548 0.0581279 3.15349e-16)
(0.633401 0.048312 3.173e-16)
(0.650595 0.0397734 2.69858e-16)
(0.66464 0.032466 2.23481e-16)
(0.676018 0.0262991 2.02674e-16)
(0.685167 0.0211567 2.1433e-16)
(0.692476 0.0169129 1.77562e-16)
(0.698281 0.0134418 1.41639e-16)
(0.702866 0.0106251 1.30068e-16)
(0.70647 0.00835518 1.52319e-16)
(0.709288 0.00653708 1.26909e-16)
(0.711483 0.00508897 1.05608e-16)
(0.713184 0.00394141 9.56461e-17)
(0.714495 0.00303634 1.21063e-16)
(0.715502 0.00232575 9.92217e-17)
(0.71627 0.00177031 7.54156e-17)
(0.716852 0.00133806 6.72241e-17)
(0.717291 0.0010032 5.72019e-17)
(0.717618 0.000745015 4.72446e-17)
(-0.00500629 -0.0241252 -2.69359e-18)
(-0.0243251 -0.0507785 -2.2616e-17)
(-0.0515707 -0.0592167 -4.36591e-17)
(-0.0759453 -0.0565212 -3.84301e-17)
(-0.0966146 -0.0487712 -3.5442e-17)
(-0.11291 -0.0395961 -4.36976e-17)
(-0.125332 -0.0310399 -5.45775e-17)
(-0.134639 -0.0240447 -4.10477e-17)
(-0.141689 -0.0189752 -3.23655e-17)
(-0.147336 -0.0158889 -3.57936e-17)
(-0.152375 -0.0146883 -3.91315e-17)
(-0.157513 -0.0151926 -2.71768e-17)
(-0.163347 -0.0171696 -1.96129e-17)
(-0.170349 -0.0203489 -2.30383e-17)
(-0.178848 -0.0244271 -2.53629e-17)
(-0.189026 -0.0290703 -1.54123e-17)
(-0.200901 -0.0339156 -7.75547e-18)
(-0.214331 -0.0385751 -6.76732e-18)
(-0.229012 -0.0426423 -7.40738e-18)
(-0.244483 -0.0457017 8.13718e-18)
(-0.260142 -0.0473426 2.01761e-17)
(-0.27526 -0.0471778 3.55111e-17)
(-0.289012 -0.0448657 4.53624e-17)
(-0.300501 -0.0401352 5.77367e-17)
(-0.308801 -0.0328113 8.41419e-17)
(-0.31299 -0.0228412 1.10511e-16)
(-0.312195 -0.0103151 1.34095e-16)
(-0.305632 0.00451753 1.61508e-16)
(-0.29265 0.021242 1.95472e-16)
(-0.272769 0.039283 2.31761e-16)
(-0.245724 0.057925 2.73048e-16)
(-0.211502 0.0763467 3.15711e-16)
(-0.170372 0.0936762 3.46761e-16)
(-0.122899 0.109055 3.7893e-16)
(-0.0699533 0.121715 4.22749e-16)
(-0.0126738 0.131058 4.62545e-16)
(0.0475771 0.136701 4.68813e-16)
(0.109295 0.138539 4.65411e-16)
(0.170943 0.136732 4.80375e-16)
(0.231051 0.13168 5.00317e-16)
(0.288327 0.123965 4.64856e-16)
(0.341727 0.114277 4.27364e-16)
(0.390503 0.103328 4.06046e-16)
(0.434215 0.0917887 4.11265e-16)
(0.472707 0.080235 3.68078e-16)
(0.506064 0.0691201 3.19907e-16)
(0.534554 0.0587677 2.70558e-16)
(0.558572 0.0493801 2.55481e-16)
(0.578586 0.0410561 2.69572e-16)
(0.595092 0.033814 2.25429e-16)
(0.608579 0.0276142 1.70554e-16)
(0.619509 0.0223796 1.62076e-16)
(0.628303 0.0180124 1.85654e-16)
(0.635332 0.0144062 1.48124e-16)
(0.640917 0.0114549 1.01035e-16)
(0.64533 0.00905849 9.92053e-17)
(0.6488 0.00712605 1.36066e-16)
(0.651514 0.00557738 1.05735e-16)
(0.653628 0.00434319 7.38235e-17)
(0.655266 0.00336468 7.13827e-17)
(0.656529 0.00259258 1.07743e-16)
(0.657497 0.00198616 8.73344e-17)
(0.658236 0.00151199 5.1495e-17)
(0.658795 0.00114289 4.1706e-17)
(0.659216 0.000856879 2.52657e-17)
(0.65953 0.000636328 2.51692e-17)
(-0.00433673 -0.0190553 1.77395e-18)
(-0.0223166 -0.0417794 -1.98427e-17)
(-0.0486752 -0.0494506 -4.23583e-17)
(-0.0730161 -0.0476805 -3.01312e-17)
(-0.0942222 -0.0414119 -2.21472e-17)
(-0.11133 -0.0337778 -3.3893e-17)
(-0.124671 -0.0265666 -4.91891e-17)
(-0.134905 -0.0206217 -3.02909e-17)
(-0.142848 -0.0162782 -1.87933e-17)
(-0.149341 -0.0136002 -2.52963e-17)
(-0.155177 -0.0125155 -3.44162e-17)
(-0.161069 -0.0128798 -1.79699e-17)
(-0.167626 -0.0145048 -8.47533e-18)
(-0.175333 -0.0171705 -1.43352e-17)
(-0.184542 -0.0206285 -2.00528e-17)
(-0.195456 -0.0246037 -4.73092e-18)
(-0.20812 -0.0287951 3.46934e-18)
(-0.22242 -0.0328779 2.61953e-18)
(-0.238074 -0.036508 -5.59778e-19)
(-0.254642 -0.0393298 1.88192e-17)
(-0.27153 -0.0409875 3.29535e-17)
(-0.288009 -0.0411411 4.85046e-17)
(-0.30324 -0.0394854 5.68666e-17)
(-0.3163 -0.0357729 6.67723e-17)
(-0.326228 -0.0298372 9.59684e-17)
(-0.332058 -0.021617 1.22881e-16)
(-0.332876 -0.0111766 1.43542e-16)
(-0.32786 0.00127922 1.66778e-16)
(-0.316334 0.0153985 1.98811e-16)
(-0.297815 0.0306861 2.30891e-16)
(-0.272053 0.0465225 2.67642e-16)
(-0.239071 0.0621957 3.05754e-16)
(-0.199188 0.0769509 3.25529e-16)
(-0.153034 0.0900479 3.46795e-16)
(-0.101534 0.10083 3.86546e-16)
(-0.0458757 0.10879 4.26946e-16)
(0.0125575 0.113612 4.1401e-16)
(0.072267 0.115215 3.9818e-16)
(0.131747 0.113746 4.15529e-16)
(0.189587 0.109553 4.46657e-16)
(0.244562 0.103134 3.95442e-16)
(0.295702 0.0950698 3.47468e-16)
(0.342328 0.0859604 3.37321e-16)
(0.384052 0.0763648 3.6749e-16)
(0.420756 0.0667613 3.0637e-16)
(0.452541 0.0575255 2.59249e-16)
(0.47968 0.0489245 2.02897e-16)
(0.502558 0.0411248 2.00076e-16)
(0.521626 0.0342074 2.37253e-16)
(0.537358 0.0281871 1.81391e-16)
(0.550219 0.023031 1.23909e-16)
(0.560649 0.0186753 1.23877e-16)
(0.569045 0.0150391 1.69443e-16)
(0.575761 0.0120346 1.18812e-16)
(0.581101 0.0095741 6.01052e-17)
(0.585323 0.00757486 6.85881e-17)
(0.588644 0.00596165 1.28007e-16)
(0.591243 0.004668 8.26809e-17)
(0.593267 0.00363645 3.85743e-17)
(0.594836 0.00281814 5.0612e-17)
(0.596046 0.00217215 1.0472e-16)
(0.596973 0.00166453 6.9993e-17)
(0.597681 0.00126747 2.60979e-17)
(0.598216 0.000958273 2.46863e-17)
(0.598618 0.000718619 -8.0458e-18)
(0.598918 0.000533763 1.75797e-18)
(-0.00369026 -0.0145379 8.73454e-18)
(-0.0201187 -0.033405 -1.48394e-17)
(-0.0450642 -0.040112 -3.15365e-17)
(-0.0687303 -0.0390224 -2.23233e-17)
(-0.0897888 -0.0340641 -8.4507e-18)
(-0.107061 -0.0278687 -2.51564e-17)
(-0.12073 -0.0219495 -3.40291e-17)
(-0.131357 -0.0170319 -2.1675e-17)
(-0.139706 -0.0134095 -4.65148e-18)
(-0.146586 -0.0111459 -1.74084e-17)
(-0.152772 -0.01019 -2.25296e-17)
(-0.158969 -0.0104307 -1.04357e-17)
(-0.165785 -0.0117208 2.83792e-18)
(-0.173714 -0.0138874 -7.07854e-18)
(-0.183121 -0.0167342 -9.56358e-18)
(-0.194234 -0.0200423 2.29953e-18)
(-0.20713 -0.02357 1.49732e-17)
(-0.221726 -0.0270543 9.7224e-18)
(-0.237779 -0.0302131 1.00692e-17)
(-0.254884 -0.0327517 2.53683e-17)
(-0.272477 -0.0343711 4.10024e-17)
(-0.28985 -0.0347816 5.87378e-17)
(-0.306175 -0.033718 6.4029e-17)
(-0.320528 -0.0309603 7.57372e-17)
(-0.331933 -0.0263538 1.01452e-16)
(-0.339401 -0.0198309 1.28277e-16)
(-0.341986 -0.01143 1.45038e-16)
(-0.338838 -0.00131041 1.66561e-16)
(-0.329255 0.010242 1.93457e-16)
(-0.312738 0.0228167 2.20751e-16)
(-0.289035 0.0358944 2.52726e-16)
(-0.258182 0.0488761 2.82153e-16)
(-0.220521 0.0611255 2.96959e-16)
(-0.176708 0.0720198 3.05852e-16)
(-0.127693 0.0810083 3.43413e-16)
(-0.0746738 0.0876674 3.71171e-16)
(-0.0190293 0.0917386 3.59276e-16)
(0.0377727 0.0931571 3.27149e-16)
(0.0942761 0.0920498 3.52482e-16)
(0.149134 0.0887077 3.71255e-16)
(0.201195 0.0835429 3.28098e-16)
(0.249557 0.0770341 2.6228e-16)
(0.293599 0.0696717 2.73703e-16)
(0.332977 0.0619118 2.905e-16)
(0.367597 0.0541432 2.46021e-16)
(0.39757 0.0466703 2.12634e-16)
(0.423162 0.0397092 1.39372e-16)
(0.444741 0.0333945 1.55854e-16)
(0.462734 0.0277919 1.74801e-16)
(0.477587 0.0229134 1.42377e-16)
(0.489738 0.0187329 6.52951e-17)
(0.499599 0.0151991 9.29332e-17)
(0.507545 0.012247 1.25541e-16)
(0.513905 0.00980603 8.90875e-17)
(0.518965 0.00780559 2.36599e-17)
(0.52297 0.00617902 4.9012e-17)
(0.526121 0.0048656 8.8051e-17)
(0.528589 0.00381167 6.38737e-17)
(0.530512 0.00297072 1.57793e-18)
(0.532003 0.00230323 3.01872e-17)
(0.533153 0.001776 6.8151e-17)
(0.534035 0.00136151 5.13693e-17)
(0.534707 0.00103713 -1.0379e-17)
(0.535216 0.000784433 6.70691e-18)
(0.535599 0.000588494 -4.02796e-17)
(0.535883 0.000437305 -1.25916e-17)
(-0.00304453 -0.0105915 5.01518e-18)
(-0.0177266 -0.0257642 -1.05791e-17)
(-0.0408022 -0.0313775 -2.14587e-17)
(-0.0632086 -0.030761 -1.67758e-17)
(-0.0834782 -0.026948 -8.39125e-18)
(-0.100296 -0.0220783 -1.90358e-17)
(-0.113724 -0.0173808 -2.39242e-17)
(-0.124232 -0.0134509 -1.515e-17)
(-0.132521 -0.0105322 -3.39109e-18)
(-0.139352 -0.00868215 -1.2034e-17)
(-0.145465 -0.00786635 -1.4392e-17)
(-0.15154 -0.00800275 -6.41771e-18)
(-0.158172 -0.00898157 2.92577e-18)
(-0.165852 -0.0106726 -1.19751e-18)
(-0.174955 -0.0129274 -3.14723e-18)
(-0.185727 -0.015579 5.83517e-18)
(-0.198277 -0.0184417 1.58259e-17)
(-0.212564 -0.0213109 1.3616e-17)
(-0.228391 -0.0239651 1.66758e-17)
(-0.245403 -0.0261695 2.92992e-17)
(-0.263086 -0.0276829 4.38945e-17)
(-0.280781 -0.0282675 5.80942e-17)
(-0.297694 -0.0277018 6.473e-17)
(-0.31293 -0.0257967 7.79626e-17)
(-0.325526 -0.0224135 9.93904e-17)
(-0.334495 -0.0174819 1.2245e-16)
(-0.338881 -0.0110174 1.39174e-16)
(-0.337815 -0.00313448 1.58371e-16)
(-0.330571 0.00594651 1.80682e-16)
(-0.316629 0.0159008 2.03582e-16)
(-0.29572 0.0263114 2.29679e-16)
(-0.267864 0.0366932 2.52622e-16)
(-0.233395 0.0465281 2.63242e-16)
(-0.19296 0.0553086 2.71607e-16)
(-0.147494 0.0625854 2.95757e-16)
(-0.0981699 0.0680131 3.1546e-16)
(-0.0463271 0.0713818 3.03795e-16)
(0.0066215 0.0726385 2.79064e-16)
(0.0592873 0.0718835 2.92375e-16)
(0.110398 0.0693503 3.0317e-16)
(0.158875 0.0653672 2.66792e-16)
(0.203882 0.0603147 2.18346e-16)
(0.244852 0.0545813 2.18869e-16)
(0.281472 0.0485276 2.29594e-16)
(0.313663 0.0424603 1.96536e-16)
(0.341537 0.0366192 1.65616e-16)
(0.365343 0.0311745 1.12672e-16)
(0.385426 0.0262323 1.22908e-16)
(0.402181 0.0218446 1.31823e-16)
(0.416023 0.0180214 1.07221e-16)
(0.427355 0.0147429 5.72452e-17)
(0.436561 0.0119695 7.22572e-17)
(0.443984 0.00965096 8.92841e-17)
(0.449932 0.00773234 6.81241e-17)
(0.454668 0.00615877 2.28989e-17)
(0.458419 0.0048783 3.64566e-17)
(0.461373 0.0038436 6.08739e-17)
(0.463688 0.00301272 4.85984e-17)
(0.465494 0.00234932 5.86238e-18)
(0.466894 0.0018224 2.06117e-17)
(0.467974 0.00140596 4.36044e-17)
(0.468803 0.00107838 3.55433e-17)
(0.469435 0.000821893 -3.07924e-18)
(0.469914 0.000621982 9.25621e-19)
(0.470274 0.000466901 -2.91621e-17)
(0.470542 0.000347184 -2.00567e-17)
(-0.00238395 -0.0072398 3.55415e-18)
(-0.0151389 -0.018951 -8.20343e-18)
(-0.035937 -0.0234044 -1.46733e-17)
(-0.0565376 -0.0230925 -1.25895e-17)
(-0.0754104 -0.0202695 -5.36359e-18)
(-0.0911843 -0.0166034 -1.41597e-17)
(-0.103832 -0.0130406 -1.6359e-17)
(-0.113741 -0.010042 -1.07794e-17)
(-0.12154 -0.00779651 -2.58234e-18)
(-0.127926 -0.00635149 -8.63957e-18)
(-0.133586 -0.00568494 -8.97327e-18)
(-0.13916 -0.00573972 -3.65983e-18)
(-0.14521 -0.00643835 3.43962e-18)
(-0.152212 -0.00768839 1.2053e-18)
(-0.16054 -0.00938373 1.2856e-18)
(-0.170453 -0.0114041 6.90512e-18)
(-0.18209 -0.0136143 1.59012e-17)
(-0.19545 -0.015864 1.56094e-17)
(-0.210391 -0.0179882 1.92894e-17)
(-0.226622 -0.01981 2.98485e-17)
(-0.243699 -0.0211446 4.17414e-17)
(-0.26103 -0.0218068 5.40715e-17)
(-0.277891 -0.0216208 6.17826e-17)
(-0.293445 -0.0204321 7.46716e-17)
(-0.306776 -0.018122 9.25067e-17)
(-0.316932 -0.0146228 1.11891e-16)
(-0.322971 -0.00993158 1.26494e-16)
(-0.324027 -0.00412267 1.43235e-16)
(-0.319363 0.002646 1.61536e-16)
(-0.308438 0.0101328 1.80301e-16)
(-0.29095 0.0180211 2.01031e-16)
(-0.266884 0.0259375 2.18209e-16)
(-0.236534 0.0334804 2.26977e-16)
(-0.200497 0.0402535 2.33057e-16)
(-0.159654 0.0459048 2.4883e-16)
(-0.115112 0.0501622 2.61253e-16)
(-0.0681344 0.0528588 2.52051e-16)
(-0.0200505 0.0539502 2.29415e-16)
(0.0278403 0.0535087 2.37252e-16)
(0.0743535 0.0517108 2.41562e-16)
(0.11849 0.0488057 2.16002e-16)
(0.15948 0.0450815 1.75552e-16)
(0.1968 0.0408329 1.74334e-16)
(0.230169 0.0363328 1.77709e-16)
(0.259512 0.0318135 1.57079e-16)
(0.284931 0.0274564 1.32205e-16)
(0.306653 0.0233903 8.88181e-17)
(0.324991 0.0196959 9.03417e-17)
(0.340302 0.016413 9.40348e-17)
(0.352962 0.0135501 8.40954e-17)
)
;

boundaryField
{
    inlet
    {
        type            uniformFixedValue;
        uniformValue    constant (1 0 0);
        value           nonuniform 0();
    }
    outlet
    {
        type            pressureInletOutletVelocity;
        value           nonuniform 0();
    }
    wall
    {
        type            fixedValue;
        value           uniform (0 0 0);
    }
    wedge1
    {
        type            wedge;
    }
    wedge2
    {
        type            wedge;
    }
    axis
    {
        type            empty;
    }
    procBoundary39to33
    {
        type            processor;
        value           nonuniform List<vector> 
67
(
(0.12605 0.185371 5.52492e-16)
(0.189189 0.187949 5.83116e-16)
(0.252826 0.185666 6.09609e-16)
(0.315414 0.179006 6.25824e-16)
(0.375529 0.168712 6.08362e-16)
(0.431972 0.155685 5.90764e-16)
(0.483836 0.140884 5.68339e-16)
(0.530543 0.125222 5.50174e-16)
(0.571828 0.109491 5.03234e-16)
(0.607704 0.0943255 4.63311e-16)
(0.638402 0.0801797 4.23229e-16)
(0.66431 0.0673418 3.86123e-16)
(0.685908 0.0559552 3.75446e-16)
(0.703719 0.0460501 3.1956e-16)
(0.718265 0.0375749 2.7649e-16)
(0.730047 0.0304248 2.51164e-16)
(0.739518 0.0244651 2.55099e-16)
(0.747082 0.0195493 2.1224e-16)
(0.753087 0.015531 1.8391e-16)
(0.75783 0.012272 1.68891e-16)
(0.761556 0.00964701 1.84163e-16)
(0.764471 0.00754571 1.5581e-16)
(0.766742 0.00587285 1.40338e-16)
(0.768501 0.00454777 1.26665e-16)
(0.769859 0.00350311 1.42334e-16)
(0.770902 0.00268318 1.22037e-16)
(0.771699 0.00204245 1.03185e-16)
(0.772304 0.00154392 9.88415e-17)
(0.77276 0.00115776 8.91781e-17)
(0.773102 0.000860045 8.06726e-17)
(-0.00572562 -0.0297362 -6.35373e-18)
(-0.0261456 -0.0602732 -2.59833e-17)
(-0.053661 -0.0692068 -4.6512e-17)
(-0.0773571 -0.065308 -4.6605e-17)
(-0.0967553 -0.0559049 -4.86727e-17)
(-0.111563 -0.0451026 -5.60311e-17)
(-0.122461 -0.0351683 -6.47754e-17)
(-0.130299 -0.0271176 -5.3752e-17)
(-0.135963 -0.02133 -4.76859e-17)
(-0.140303 -0.0178486 -4.74889e-17)
(-0.144096 -0.0165471 -4.86529e-17)
(-0.148031 -0.0172058 -3.90418e-17)
(-0.152684 -0.0195467 -3.35044e-17)
(-0.158504 -0.0232474 -3.38313e-17)
(-0.1658 -0.0279479 -3.50156e-17)
(-0.174729 -0.0332537 -2.6468e-17)
(-0.185293 -0.0387393 -2.09401e-17)
(-0.19733 -0.0439537 -1.94064e-17)
(-0.210526 -0.0484288 -1.8265e-17)
(-0.224418 -0.0516911 -6.03596e-18)
(-0.23841 -0.0532779 4.44997e-18)
(-0.251797 -0.0527588 1.71305e-17)
(-0.263786 -0.0497591 2.8259e-17)
(-0.273526 -0.0439873 4.10868e-17)
(-0.280144 -0.0352623 6.52712e-17)
(-0.282774 -0.0235399 9.08705e-17)
(-0.280593 -0.00893495 1.16049e-16)
(-0.272857 0.00826225 1.45471e-16)
(-0.258934 0.02758 1.81557e-16)
(-0.238341 0.0483695 2.21945e-16)
(-0.210782 0.0698256 2.67429e-16)
(-0.176189 0.0910234 3.15617e-16)
(-0.13475 0.110977 3.57387e-16)
(-0.0869452 0.128709 4.00349e-16)
(-0.0335536 0.143336 4.49519e-16)
(0.0243628 0.154155 4.9496e-16)
(0.0243628 0.154155 4.9496e-16)
)
;
    }
    procBoundary39to34
    {
        type            processor;
        value           uniform (0.71786 0.000546968 3.93333e-17);
    }
    procBoundary39to40
    {
        type            processor;
        value           nonuniform List<vector> 4((0.659761 0.000467131 1.01848e-17) (0.599139 0.00039192 -2.00899e-17) (0.536093 0.000321257 -5.31426e-17) (0.470739 0.000255255 -4.2261e-17));
    }
    procBoundary39to45
    {
        type            processor;
        value           nonuniform List<vector> 
67
(
(0.363336 0.011093 4.14457e-17)
(0.371771 0.00901264 5.4692e-17)
(0.378581 0.007272 6.57421e-17)
(0.384041 0.00583037 4.99142e-17)
(0.388394 0.00464703 1.69966e-17)
(0.391844 0.00368332 2.91569e-17)
(0.394564 0.00290396 4.19159e-17)
(0.396697 0.00227764 3.55184e-17)
(0.398362 0.0017772 2.93533e-18)
(0.399654 0.00137945 2.04619e-17)
(0.400652 0.00106489 2.90067e-17)
(0.401418 0.000817297 2.677e-17)
(0.402002 0.000623318 -2.51515e-18)
(0.402445 0.000472043 -6.02155e-19)
(0.402778 0.000354627 -2.67297e-17)
(0.403026 0.000263938 -1.96054e-17)
(-0.00170389 -0.00450904 4.34119e-18)
(-0.0123658 -0.0130475 -5.59798e-18)
(-0.0305065 -0.016335 -1.15836e-17)
(-0.0487731 -0.016199 -1.03164e-17)
(-0.065661 -0.0142211 -3.92835e-18)
(-0.0798253 -0.0116271 -1.06393e-17)
(-0.0911856 -0.00909393 -1.12307e-17)
(-0.100056 -0.00695145 -7.4438e-18)
(-0.106984 -0.00533385 4.61992e-19)
(-0.112587 -0.00427591 -4.89038e-18)
(-0.11748 -0.00376462 -6.21266e-18)
(-0.122239 -0.00376307 -2.36886e-18)
(-0.127378 -0.00422074 4.52477e-18)
(-0.133342 -0.00507695 1.39876e-18)
(-0.140486 -0.00626157 2.52161e-18)
(-0.149076 -0.00769444 8.01215e-18)
(-0.159267 -0.0092845 1.60499e-17)
(-0.1711 -0.0109293 1.45051e-17)
(-0.18449 -0.012515 2.03114e-17)
(-0.199216 -0.0139177 2.73639e-17)
(-0.214919 -0.0150062 3.69824e-17)
(-0.231101 -0.0156463 4.92142e-17)
(-0.247131 -0.0157081 5.49067e-17)
(-0.262268 -0.015074 6.65971e-17)
(-0.275679 -0.0136496 8.06294e-17)
(-0.286483 -0.0113749 9.75954e-17)
(-0.293794 -0.00823568 1.08572e-16)
(-0.296777 -0.00427276 1.22989e-16)
(-0.294708 0.000411382 1.37767e-16)
(-0.287031 0.00565137 1.52511e-16)
(-0.273413 0.0112249 1.68158e-16)
(-0.253789 0.0168649 1.8043e-16)
(-0.228381 0.0222803 1.88064e-16)
(-0.197703 0.0271813 1.91443e-16)
(-0.162538 0.0313081 2.04017e-16)
(-0.123885 0.0344577 2.08091e-16)
(-0.0828897 0.036503 2.01638e-16)
(-0.0407614 0.0374062 1.81198e-16)
(0.00131758 0.0372145 1.87344e-16)
(0.0422707 0.0360498 1.87875e-16)
(0.0811905 0.0340891 1.7013e-16)
(0.117378 0.0315362 1.34878e-16)
(0.150359 0.0286007 1.39109e-16)
(0.179871 0.0254768 1.35759e-16)
(0.205846 0.0223299 1.17018e-16)
(0.228365 0.0192892 9.93144e-17)
(0.247627 0.0164468 6.36446e-17)
(0.263901 0.0138608 7.3412e-17)
(0.277503 0.01156 7.14985e-17)
(0.363336 0.011093 4.14457e-17)
(0.288761 0.00955141 6.15003e-17)
)
;
    }
}


// ************************************************************************* //
