/*--------------------------------*- C++ -*----------------------------------*\
  =========                 |
  \\      /  F ield         | OpenFOAM: The Open Source CFD Toolbox
   \\    /   O peration     | Website:  https://openfoam.org
    \\  /    A nd           | Version:  7
     \\/     M anipulation  |
\*---------------------------------------------------------------------------*/
FoamFile
{
    version     2.0;
    format      ascii;
    class       surfaceScalarField;
    location    "1";
    object      phi;
}
// * * * * * * * * * * * * * * * * * * * * * * * * * * * * * * * * * * * * * //

dimensions      [0 3 -1 0 0 0 0];

internalField   nonuniform List<scalar> 
822
(
0.00284264
-0.000949542
0.00289194
-0.000834975
0.00293715
-0.000736118
0.00297889
-0.000650463
0.00301773
-0.00057589
-0.000510634
0.0027707
0.00282237
-0.000886648
0.00287004
-0.00078378
0.00291432
-0.000694743
0.00295577
-0.000617343
0.00299488
-0.000549741
0.00303205
-0.000490405
0.00306766
-0.000438059
0.00310202
-0.000391645
0.00313538
-0.000350265
0.003168
-0.000313174
0.00320008
-0.00027971
0.0032318
-0.000249352
0.00326331
-0.000221552
0.00329477
-0.000196014
0.00332629
-0.000172153
0.003358
-0.000149939
0.00338998
-0.000128327
0.00342235
-0.000108443
0.0034551
-8.70046e-05
0.00348849
-7.03335e-05
-4.04816e-05
0.00580302
-0.000918717
0.00583294
-0.000813704
0.00586058
-0.000722381
0.00588591
-0.000642675
0.00590899
-0.000572821
0.00592992
-0.000511334
0.00594882
-0.000456962
0.00596583
-0.000408657
0.00598109
-0.000365523
0.00599473
-0.000326812
0.00600688
-0.000291858
0.00601766
-0.00026013
0.00602718
-0.000231074
0.00603554
-0.000204378
0.00604284
-0.000179446
0.00604915
-0.000156249
0.00605455
-0.000133735
0.0060591
-0.00011299
0.00606283
-9.07359e-05
0.00606588
-7.33819e-05
-4.24429e-05
0.00602846
-0.000948422
0.00605665
-0.000841892
0.00608303
-0.000748758
0.00610746
-0.000667103
0.0061299
-0.000595266
0.0061504
-0.000531829
0.00616902
-0.000475581
0.00618585
-0.000425493
0.00620102
-0.000380686
0.00621462
-0.000340413
0.00622677
-0.000304009
0.00623757
-0.000270937
0.00624714
-0.000240643
0.00625556
-0.000212796
0.00626292
-0.000186803
0.00626928
-0.000162617
0.00627476
-0.000139206
0.00627935
-0.000117581
0.00628314
-9.4524e-05
0.00628621
-7.64522e-05
-4.44452e-05
0.00626409
-0.000975281
0.00629014
-0.000867942
0.00631492
-0.000773541
0.00633817
-0.000690355
0.00635976
-0.000616856
0.00637964
-0.00055171
0.00639783
-0.000493767
0.00641437
-0.000442036
0.00642935
-0.000395658
0.00644283
-0.000353898
0.00645492
-0.000316099
0.00646571
-0.000281722
0.00647528
-0.000250217
0.00648372
-0.000221236
0.00649111
-0.000194194
0.00649752
-0.000169022
0.00650303
-0.000144718
0.00650766
-0.000122211
0.00651148
-9.83482e-05
0.00651458
-7.95542e-05
-4.6473e-05
0.00651059
-0.00099879
0.00653407
-0.000891418
0.00655689
-0.000796363
0.00657866
-0.000712123
0.00659913
-0.00063733
0.00661819
-0.000570763
0.00663576
-0.000511346
0.00665187
-0.000458139
0.00666653
-0.000410318
0.0066798
-0.000367168
0.00669175
-0.000328047
0.00670244
-0.000292418
0.00671197
-0.00025974
0.00672038
-0.000229653
0.00672777
-0.000201584
0.00673419
-0.000175437
0.00673971
-0.000150247
0.00674436
-0.000126861
0.00674821
-0.000102194
0.00675133
-8.26766e-05
-4.85194e-05
0.0067684
-0.00101848
0.00678888
-0.000911903
0.00680937
-0.000816857
0.00682934
-0.000732092
0.00684843
-0.000656423
0.00686643
-0.000588762
0.00688322
-0.000528128
0.00689872
-0.000473645
0.00691294
-0.000424535
0.00692588
-0.000380114
0.0069376
-0.000339762
0.00694813
-0.00030295
0.00695754
-0.000269152
0.00696589
-0.000237996
0.00697323
-0.00020893
0.00697962
-0.000181826
0.00698514
-0.000155765
0.00698979
-0.000131509
0.00699364
-0.000106043
0.00699677
-8.58069e-05
-5.05763e-05
0.00703784
-0.00103394
0.00705495
-0.000929012
0.00707276
-0.000834674
0.00709062
-0.000749952
0.00710807
-0.000673866
0.00712478
-0.000605478
0.00714057
-0.000543917
0.00715531
-0.000488388
0.00716895
-0.000438171
0.00718146
-0.000392621
0.00719284
-0.000351147
0.00720313
-0.000313238
0.00721236
-0.000278385
0.00722058
-0.000246212
0.00722783
-0.000216185
0.00723416
-0.000188154
0.00723964
-0.000161242
0.00724426
-0.000136132
0.00724809
-0.000109876
0.00725122
-8.89301e-05
-5.26348e-05
0.00731921
-0.00104485
0.00733261
-0.000942406
0.00734743
-0.000849495
0.00736289
-0.000765413
0.00737842
-0.000689399
0.00739363
-0.000620682
0.00740822
-0.000558516
0.00742204
-0.0005022
0.00743495
-0.000451082
0.00744689
-0.000404566
0.00745784
-0.0003621
0.0074678
-0.000323196
0.00747678
-0.000287366
0.00748481
-0.000254238
0.00749193
-0.000223301
0.00749815
-0.000194378
0.00750355
-0.000166643
0.00750812
-0.000140701
0.00751192
-0.000113673
0.00751502
-9.20299e-05
-5.46843e-05
0.00761276
-0.00105094
0.00762217
-0.000951809
0.00763371
-0.000861038
0.0076465
-0.000778206
0.00765988
-0.000702776
0.00767335
-0.000634153
0.00768656
-0.00057173
0.00769927
-0.00051491
0.00771131
-0.000463119
0.00772257
-0.000415823
0.00773298
-0.000372514
0.00774252
-0.000332732
0.00775117
-0.000296021
0.00775895
-0.000262012
0.00776587
-0.000230222
0.00777195
-0.000200455
0.00777724
-0.000171933
0.00778172
-0.000145188
0.00778546
-0.000117409
0.00778852
-9.50881e-05
-5.67136e-05
0.0079187
-0.00105205
0.0079239
-0.000957008
0.00793193
-0.000869071
0.00794182
-0.000788096
0.00795281
-0.000713771
0.00796434
-0.000645683
0.00797598
-0.000583371
0.00798742
-0.00052635
0.00799844
-0.000474138
0.00800889
-0.000426265
0.00801865
-0.000382278
0.00802767
-0.000341754
0.00803592
-0.000304267
0.00804337
-0.000269465
0.00805004
-0.000236892
0.00805592
-0.000206337
0.00806106
-0.000177071
0.00806543
-0.000149562
0.00806908
-0.000121059
0.00807208
-9.80847e-05
-5.87102e-05
0.00823719
-0.00104813
0.00823804
-0.000957866
0.00824239
-0.000873417
0.00824918
-0.000794887
0.00825759
-0.000722185
0.00826699
-0.00065508
0.00827688
-0.000593259
0.00828689
-0.000536359
0.00829674
-0.000483992
0.00830624
-0.000435764
0.00831524
-0.000391281
0.00832365
-0.000350163
0.00833141
-0.000312023
0.00833847
-0.000276527
0.00834483
-0.000243252
0.00835047
-0.000211975
0.00835541
-0.000182016
0.00835964
-0.000153787
0.00836317
-0.000124596
0.00836609
-0.000100998
-6.06603e-05
0.0085684
-0.00103919
0.00856485
-0.00095432
0.00856539
-0.000873952
0.00856892
-0.000798426
0.00857459
-0.00072785
0.00858168
-0.000662173
0.00858965
-0.000601231
0.00859808
-0.000544782
0.00860663
-0.000492541
0.00861505
-0.000444193
0.00862318
-0.00039941
0.00863088
-0.000357861
0.00863806
-0.000319203
0.00864466
-0.000283124
0.00865064
-0.000249236
0.00865598
-0.000217313
0.00866069
-0.000186723
0.00866473
-0.000157827
0.00866812
-0.000127989
0.00867093
-0.000103805
-6.25491e-05
0.0089125
-0.00102535
0.00890455
-0.000946376
0.00890121
-0.000870615
0.00890139
-0.000798602
0.00890417
-0.000730631
0.00890881
-0.000666816
0.00891472
-0.000607136
0.00892141
-0.000551475
0.00892852
-0.000499649
0.00893575
-0.000451428
0.0089429
-0.000406553
0.00894978
-0.00036475
0.0089563
-0.000325718
0.00896236
-0.00028918
0.0089679
-0.00025478
0.00897288
-0.000222297
0.0089773
-0.000191144
0.00898112
-0.000161643
0.00898434
-0.000131208
0.00898701
-0.000106481
-6.43605e-05
0.00926965
-0.0010068
0.00925738
-0.000934113
0.00925017
-0.000863399
0.00924692
-0.000795353
0.00924671
-0.000730427
0.00924878
-0.000668885
0.00925249
-0.000610844
0.00925732
-0.000556305
0.00926286
-0.000505187
0.00926878
-0.000457348
0.00927482
-0.0004126
0.0092808
-0.000370727
0.00928656
-0.00033148
0.009292
-0.000294614
0.00929703
-0.000259815
0.0093016
-0.000226867
0.00930569
-0.000195229
0.00930924
-0.000165194
0.00931225
-0.000134219
0.00931476
-0.000108997
-6.60773e-05
0.00964002
-0.0009838
0.00962358
-0.000917673
0.00961253
-0.000852357
0.00960584
-0.000788663
0.00960259
-0.000727175
0.00960199
-0.000668289
0.00960339
-0.000612244
0.00960624
-0.000559153
0.00961009
-0.000509036
0.00961458
-0.000461837
0.00961942
-0.00041744
0.00962439
-0.000375693
0.00962931
-0.000336397
0.00963404
-0.000299348
0.00963849
-0.00026427
0.00964259
-0.000230961
0.00964628
-0.000198925
0.00964952
-0.000168434
0.00965229
-0.000136984
0.00965462
-0.000111325
-6.76807e-05
0.0100238
-0.000956667
0.0100034
-0.000897259
0.0099886
-0.000837593
0.0099785
-0.000778562
0.00997218
-0.000720852
0.00996885
-0.000664965
0.00996786
-0.000611248
0.00996863
-0.000559919
0.00997068
-0.00051109
0.00997363
-0.000464787
0.00997716
-0.000420971
0.00998102
-0.000379549
0.009985
-0.00034038
0.00998895
-0.000303297
0.00999275
-0.00026807
0.0099963
-0.000234515
0.00999955
-0.000202178
0.0100024
-0.000171317
0.0100049
-0.000139468
0.010007
-0.000113435
-6.91509e-05
0.0104211
-0.00092578
0.010397
-0.000873128
0.0103787
-0.000819265
0.0103652
-0.000765128
0.0103559
-0.000711471
0.0103498
-0.000658881
0.0103463
-0.000607795
0.0103449
-0.000558519
0.0103451
-0.000511252
0.0103464
-0.000466099
0.0103485
-0.000423092
0.0103512
-0.0003822
0.0103541
-0.000343337
0.0103572
-0.00030638
0.0103603
-0.000271143
0.0103632
-0.000237463
0.010366
-0.000204929
0.0103685
-0.000173793
0.0103706
-0.000141628
0.0103725
-0.000115292
-7.04667e-05
0.0108322
-0.000891555
0.0108047
-0.000845585
0.010783
-0.000797579
0.0107664
-0.000748482
0.010754
-0.000699088
0.0107451
-0.000650041
0.0107392
-0.000601849
0.0107356
-0.000554893
0.0107338
-0.000509445
0.0107333
-0.000465686
0.010734
-0.000423713
0.0107353
-0.000383555
0.0107372
-0.000345182
0.0107393
-0.000308516
0.0107416
-0.000273412
0.0107438
-0.000239737
0.010746
-0.00020712
0.0107481
-0.000175813
0.0107499
-0.000143424
0.0107514
-0.000116862
-7.16059e-05
0.0112573
-0.000854439
0.0112267
-0.000814974
0.0112019
-0.000772783
0.0111822
-0.000728789
0.0111669
-0.000683797
0.0111554
-0.000638483
0.0111469
-0.000593403
0.011141
-0.000549
0.0111372
-0.000505609
0.011135
-0.000463473
0.011134
-0.000422751
0.011134
-0.00038353
0.0111347
-0.000345831
0.0111358
-0.000309623
0.0111372
-0.000274804
0.0111387
-0.000241269
0.0111403
-0.00020869
0.0111418
-0.000177323
0.0111432
-0.000144811
0.0111444
-0.000118108
-7.25451e-05
0.0116966
-0.000814896
0.0116633
-0.000781667
0.0116357
-0.00074516
0.0116132
-0.000706251
0.0115951
-0.000665727
0.0115809
-0.000624276
0.01157
0.0115618
0.0115559
0.0115518
0.0115492
0.0115477
0.0115471
0.0115471
0.0115475
0.0115483
0.0115491
0.0115501
0.011551
0.0115519
0.0121504
0.0121148
0.0120847
0.0120595
0.0120388
)
;

boundaryField
{
    inlet
    {
        type            calculated;
        value           nonuniform 0();
    }
    outlet
    {
        type            calculated;
        value           nonuniform List<scalar> 
20
(
0.00606784
0.00628821
0.00651661
0.00675338
0.00699883
0.00725328
0.00751707
0.00779055
0.00807408
0.00836804
0.00867282
0.00898883
0.00931648
0.00965622
0.0100085
0.0103738
0.0107526
0.0111453
0.0115526
0.00352215
)
;
    }
    cylinder
    {
        type            calculated;
        value           nonuniform 0();
    }
    top
    {
        type            symmetryPlane;
        value           nonuniform 0();
    }
    bottom
    {
        type            symmetryPlane;
        value           nonuniform 0();
    }
    defaultFaces
    {
        type            empty;
        value           nonuniform 0();
    }
    procBoundary29to23
    {
        type            processor;
        value           nonuniform List<scalar> 
23
(
0.000895448
0.000785676
0.00069091
0.000608717
0.000537056
0.000474234
0.00305413
0.000453227
0.00040245
0.000357293
0.000316895
0.000280555
0.000247629
0.000217635
0.000190034
0.000164556
0.000140635
0.000118222
9.63509e-05
7.60671e-05
5.42568e-05
3.69354e-05
6.83158e-06
)
;
    }
    procBoundary29to28
    {
        type            processor;
        value           nonuniform List<scalar> 
20
(
-0.00278854
-0.00271431
-0.00100593
-0.00577095
-0.00599876
-0.00623723
-0.00648708
-0.0067487
-0.00702237
-0.00730831
-0.00760667
-0.00791758
-0.00824111
-0.00857733
-0.00892633
-0.0092882
-0.00966302
-0.0100509
-0.010452
-0.0108665
)
;
    }
    procBoundary29to34
    {
        type            processor;
        value           nonuniform List<scalar> 3(-0.0112944 -0.0117362 -0.0121919);
    }
    procBoundary29to35
    {
        type            processor;
        value           nonuniform List<scalar> 
22
(
-0.000582482
-0.000540829
-0.000499703
-0.000459401
-0.000420135
-0.000382047
-0.000345206
-0.000309625
-0.000275246
-0.000241993
-0.000209579
-0.00017827
-0.000145745
-0.000118995
-7.32602e-05
-0.000773401
-0.000746057
-0.000715023
-0.000681102
-0.000645044
0.0120221
-0.000607524
)
;
    }
}


// ************************************************************************* //
