0.197 	0.46734 	-3.54284e-19 	8.06501
0.199027 	0.472148 	-1.16316e-19 	8.06438
0.20008 	0.474647 	2.95137e-19 	8.0607
0.201214 	0.477336 	1.68817e-19 	8.0603
0.203321 	0.482335 	-1.84791e-19 	8.05989
0.205428 	0.487333 	2.81617e-19 	8.05951
0.207535 	0.492331 	1.16027e-18 	8.05924
0.209642 	0.49733 	2.05088e-18 	8.05903
