0.114218 	0.492331 	-9.50284e-19 	0.786844 	-0.0223245 	3.69762e-16
0.115377 	0.49733 	-8.10914e-19 	0.325077 	-0.00575394 	2.84839e-16
