0.185341 	0.46734 	-3.37392e-19 	8.06501
0.187323 	0.472338 	5.06533e-19 	8.06438
0.189306 	0.477336 	1.12839e-18 	8.06372
0.191288 	0.482335 	1.71477e-18 	8.06303
0.19327 	0.487333 	2.25987e-18 	8.06236
0.195252 	0.492331 	2.10411e-18 	8.06182
0.197235 	0.49733 	2.57455e-18 	8.06146
