0.156341 	0.482335 	5.68942e-19 	1.03492 	-0.0235145 	1.26671e-15
0.157961 	0.487333 	1.34445e-18 	0.931911 	-0.0199186 	-1.41318e-15
0.159581 	0.492331 	1.51624e-18 	0.680633 	-0.0113683 	-1.1946e-15
0.161201 	0.49733 	5.41057e-19 	0.240656 	-0.00143785 	-1.42172e-16
