0.216245 	0.457343 	7.53464e-19 	1.06287 	-0.0185647 	-4.29938e-15
0.218608 	0.462342 	9.51306e-19 	1.06606 	-0.0188754 	-5.48418e-15
0.220972 	0.46734 	4.02018e-19 	1.06907 	-0.0191704 	-8.63044e-15
0.223335 	0.472338 	-2.11073e-19 	1.06927 	-0.0193528 	-2.08413e-15
0.225698 	0.477336 	-1.04316e-18 	1.05698 	-0.019082 	-1.52309e-16
0.228062 	0.482335 	-2.0078e-18 	1.0071 	-0.0175291 	-1.00989e-15
0.230425 	0.487333 	-1.97437e-18 	0.872509 	-0.0132934 	1.77591e-15
0.232788 	0.492331 	-1.22696e-18 	0.599609 	-0.00575074 	1.33972e-15
0.235152 	0.49733 	-1.23955e-18 	0.20223 	-0.000269625 	6.10795e-16
