0.168689 	0.484853 	-1.15726e-18 	0.470543
0.170319 	0.489539 	-7.78055e-19 	0.467365
0.172269 	0.495143 	-1.42632e-18 	0.465621
