/*--------------------------------*- C++ -*----------------------------------*\
  =========                 |
  \\      /  F ield         | OpenFOAM: The Open Source CFD Toolbox
   \\    /   O peration     | Website:  https://openfoam.org
    \\  /    A nd           | Version:  7
     \\/     M anipulation  |
\*---------------------------------------------------------------------------*/
FoamFile
{
    version     2.0;
    format      ascii;
    class       volScalarField;
    location    "2";
    object      p;
}
// * * * * * * * * * * * * * * * * * * * * * * * * * * * * * * * * * * * * * //

dimensions      [0 2 -2 0 0 0 0];

internalField   nonuniform List<scalar> 
433
(
-3.93079
-3.83038
-3.67369
-3.49101
-3.30226
-3.11968
-2.95011
-2.79675
-2.66051
-2.54101
-3.94833
-3.84726
-3.68944
-3.50527
-3.31482
-3.13047
-2.95914
-2.80414
-2.66639
-2.54553
-3.9817
-3.87941
-3.71946
-3.53249
-3.33882
-3.15109
-2.97645
-2.81831
-2.67769
-2.55427
-4.0294
-3.92544
-3.76252
-3.5716
-3.37337
-3.18082
-3.00141
-2.83876
-2.69402
-2.56691
-4.09011
-3.98412
-3.81756
-3.62172
-3.41775
-3.21909
-3.03359
-2.86515
-2.71509
-2.58323
-4.16262
-4.05437
-3.88367
-3.68213
-3.4714
-3.26546
-3.07264
-2.89721
-2.7407
-2.60305
-4.24584
-4.13521
-3.96005
-3.75223
-3.53387
-3.31962
-3.11836
-2.93479
-2.77073
-2.62627
-4.33875
-4.22577
-4.04601
-3.83149
-3.60484
-3.38135
-3.1706
-2.97779
-2.80511
-2.65284
-4.44039
-4.3252
-4.14091
-3.9195
-3.68404
-3.45054
-3.22933
-3.02624
-2.84388
-2.68278
-4.54984
-4.43272
-4.24417
-4.01588
-3.77128
-3.52713
-3.29459
-3.08021
-2.88713
-2.71619
-4.66623
-4.5476
-4.35523
-4.1203
-3.86645
-3.61115
-3.36649
-3.13985
-2.93501
-2.7532
-4.78869
-4.66908
-4.47357
-4.23247
-3.96945
-3.70266
-3.44521
-3.2054
-2.98777
-2.79404
-4.9164
-4.79647
-4.59869
-4.35212
-4.08024
-3.80181
-3.531
-3.27715
-3.04571
-2.83897
-5.04852
-4.92906
-4.73007
-4.479
-4.19881
-3.90877
-3.62415
-3.35546
-3.10919
-2.88836
-5.18426
-5.06615
-4.86722
-4.61283
-4.32515
-4.02375
-3.72502
-3.44076
-3.17867
-2.9426
-5.32283
-5.20704
-5.00961
-4.75336
-4.45925
-4.14699
-3.83403
-3.53355
-3.25467
-3.0022
-5.46347
-5.35104
-5.15671
-4.90029
-4.60112
-4.27874
-3.95161
-3.6344
-3.33776
-3.06771
-5.60543
-5.49748
-5.30799
-5.05333
-4.75074
-4.41927
-4.07827
-3.7439
-3.42862
-3.13978
-5.74799
-5.64566
-5.46287
-5.21212
-4.90806
-4.56884
-4.21451
-3.86275
-3.52798
-3.21914
-5.89049
-5.79493
-5.62078
-5.37629
-5.07301
-4.72772
-4.36088
-3.99167
-3.63665
-3.30658
-6.03226
-5.94463
-5.78113
-5.54541
-5.24545
-4.89613
-4.51793
-4.13145
-3.75553
-3.40302
-6.1727
-6.09413
-5.9433
-5.71901
-5.42519
-5.07425
-4.68622
-4.28291
-3.88558
-3.50943
-6.31124
-6.24281
-6.10666
-5.89658
-5.61199
-5.26223
-4.86629
-4.44692
-4.02784
-3.62689
-6.44738
-6.39009
-6.27059
-6.07754
-5.80552
-5.46015
-5.05868
-4.6244
-4.18344
-3.75659
-6.58063
-6.53542
-6.43444
-6.26129
-6.00537
-5.66799
-5.26387
-4.81627
-4.35356
-3.8998
-6.7106
-6.67828
-6.59759
-6.44715
-6.21103
-5.88566
-5.4823
-5.0235
-4.5395
-4.05794
-6.8369
-6.81821
-6.75942
-6.63443
-6.42193
-6.11294
-5.71434
-5.24705
-4.74262
-4.23252
-6.95923
-6.95475
-6.91932
-6.8224
-6.63737
-6.34948
-5.96025
-5.48791
-4.96437
-4.42519
-7.07733
-7.08754
-7.0767
-7.01029
-6.85659
-6.5948
-6.22018
-5.74701
-5.20633
-4.6378
-2.47568
-2.45157
-2.42779
-2.4038
-2.47956
-2.45534
-2.43143
-2.40727
-2.48701
-2.46241
-2.43809
-2.4135
-2.49773
-2.47249
-2.44749
-2.42219
-2.51153
-2.48539
-2.45944
-2.43319
-2.52824
-2.50095
-2.47382
-2.44636
-2.41879
-2.54778
-2.51909
-2.49052
-2.46161
-2.43258
-2.57009
-2.53977
-2.50951
-2.47891
-2.44817
-2.59521
-2.56299
-2.53079
-2.49825
-2.46556
-2.62319
-2.58883
-2.55444
-2.51969
-2.4848
-2.65419
-2.61742
-2.58055
-2.54334
-2.50597
-2.68838
-2.64892
-2.60931
-2.56935
-2.52923
-2.72603
-2.68359
-2.64093
-2.59794
-2.55477
-2.76745
-2.72173
-2.6757
-2.62935
-2.58283
-2.81304
-2.7637
-2.71396
-2.66394
-2.61372
-2.86323
-2.80993
-2.75613
-2.70206
-2.6478
-2.91856
-2.86092
-2.80267
-2.74419
-2.68549
-2.97963
-2.91725
-2.85413
-2.79082
-2.72728
-3.04711
-2.97958
-2.91114
-2.84255
-2.77372
-3.12177
-3.04863
-2.97438
-2.90003
-2.82542
-3.20445
-3.12521
-3.04463
-2.96401
-2.8831
-3.29609
-3.21023
-3.12275
-3.0353
-2.94749
-3.39771
-3.30467
-3.20967
-3.11476
-3.01945
-3.51043
-3.4096
-3.30642
-3.20338
-3.09986
-3.63546
-3.52619
-3.41409
-3.30219
-3.18972
-3.77411
-3.65572
-3.5339
-3.41233
-3.29007
-3.92782
-3.79953
-3.66713
-3.53501
-3.40203
-4.09812
-3.95909
-3.81513
-3.67149
-3.5268
-4.28665
-4.13595
-3.97939
-3.82314
-3.66561
-4.16143
-3.99137
-3.81977
)
;

boundaryField
{
    inlet
    {
        type            zeroGradient;
    }
    outlet
    {
        type            fixedValue;
        value           nonuniform 0();
    }
    cylinder
    {
        type            zeroGradient;
    }
    top
    {
        type            symmetryPlane;
    }
    bottom
    {
        type            symmetryPlane;
    }
    defaultFaces
    {
        type            empty;
    }
    procBoundary0to1
    {
        type            processor;
        value           nonuniform List<scalar> 
31
(
-2.3798
-2.38308
-2.38885
-2.39682
-2.40684
-2.40684
-2.39097
-2.40327
-2.41714
-2.43254
-2.44954
-2.46821
-2.48868
-2.51113
-2.53579
-2.56295
-2.59293
-2.62613
-2.66301
-2.70408
-2.74992
-2.80119
-2.8586
-2.92291
-2.99497
-3.07571
-3.16608
-3.26713
-3.37994
-3.50567
-3.64549
)
;
    }
    procBoundary0to6
    {
        type            processor;
        value           nonuniform List<scalar> 
16
(
-7.19098
-7.21623
-7.23103
-7.19734
-7.07872
-6.84826
-6.49413
-6.02529
-5.47017
-4.87235
-4.49519
-4.33178
-4.33178
-4.36287
-4.17767
-3.99061
)
;
    }
}


// ************************************************************************* //
