/*--------------------------------*- C++ -*----------------------------------*\
  =========                 |
  \\      /  F ield         | OpenFOAM: The Open Source CFD Toolbox
   \\    /   O peration     | Website:  https://openfoam.org
    \\  /    A nd           | Version:  7
     \\/     M anipulation  |
\*---------------------------------------------------------------------------*/
FoamFile
{
    version     2.0;
    format      ascii;
    class       volScalarField;
    location    "0.3";
    object      p;
}
// * * * * * * * * * * * * * * * * * * * * * * * * * * * * * * * * * * * * * //

dimensions      [1 -1 -2 0 0 0 0];

internalField   nonuniform List<scalar> 
580608
(
1
1
1
1
1
1
1
1
1
1
1
1
1
1
1
1
1
1
1
1
1
1
1
1
1
1
1
1
1
1
1
1
1
1
1
1
1
1
1
1
1
1
1
1
1
1
1
1
1
1
1
1
1
1
1
1
1
1
1
1
1
1
1
1
1
1
1
1
1
1
1
1
1
1
1
1
1
1
1
1
1
1
1
1
1
1
1
1
1
1
1
1
1
1
1
1
1
1
1
1
1
1
1
1
1
1
1
1
1
1
1
1
1
1
1
1
1
1
1
1
1
1
1
1
1
1
1
1
1
1
1
1
1
1
1
1
1
1
1
1
1
1
1
1
1
1
1
1
1
1
1
1
1
1
1
1
1
1
1
1
1
1
1
1
1
1
1
1
1
1
1
1
1
1
1
1
1
1
1
1
1
1
1
1
1
1
1
1
1
1
1
1
1
1
1
1
1
1
1
1
5.52896
12.1441
12.3804
12.1654
11.9964
11.8956
11.9183
11.9935
12.139
12.3286
12.4283
12.4721
12.4318
12.2868
12.1167
12.0589
12.1072
12.196
12.3339
12.4538
12.5161
12.5264
12.4468
12.3016
12.2126
12.2348
12.3099
12.4162
12.5069
12.5671
12.5764
12.5098
12.3921
12.3272
12.3609
12.4347
12.5143
12.5815
12.6182
12.6006
12.5184
12.4313
12.4234
12.4805
12.5482
12.6067
12.6428
12.6344
12.5777
12.5102
12.4849
12.5163
12.5749
12.6285
12.6547
12.6312
12.5652
12.5236
12.527
12.5628
12.6064
12.6389
12.6362
12.6043
12.5675
12.5561
12.5701
12.6009
12.6266
12.6311
12.6144
12.592
12.5815
12.5875
12.606
12.6217
12.6238
12.6138
12.6032
12.5995
12.6039
12.6121
12.6179
12.6178
12.6132
12.6076
12.608
12.6146
1
1
1
1
1
1
1
1
1
1
1
1
1
1
1
1
1
1
1
1
1
1
1
1
1
1
1
1
1
1
1
1
1
1
1
1
1
1
1
1
1
1
1
1
1
1
1
1
1
1
1
1
1
1
1
1
1
1
1
1
1
1
1
1
1
1
1
1
1
1
1
1
1
1
1
1
1
1
1
1
1
1
1
1
1
1
1
1
1
1
1
1
1
1
1
1
1
1
1
1
1
1
1
1
1
1
1
1
1
1
1
1
1
1
1
1
1
1
1
1
1
1
1
1
1
1
1
1
1
1
1
1
1
1
1
1
1
1
1
1
1
1
1
1
1
1
1
1
1
1
1
1
1
1
1
1
1
1
1
1
1
1
1
1
1
1
1
1
1
1
1
1
1
1
1
1
1
1
1
1
1
1
1
1
1
1
1
1
1
1
1
1
1
1
1
1
1
1
1
1
5.51108
12.1348
12.3749
12.161
11.9932
11.8953
11.9204
11.9965
12.1435
12.332
12.4291
12.4715
12.4292
12.2826
12.1142
12.0591
12.1086
12.1982
12.3366
12.4549
12.5165
12.5254
12.4444
12.2992
12.212
12.2357
12.3113
12.4179
12.5077
12.5675
12.5758
12.5081
12.3904
12.3269
12.3617
12.4356
12.5151
12.5822
12.6183
12.5998
12.517
12.4305
12.424
12.4812
12.5489
12.6073
12.6431
12.634
12.5768
12.5093
12.4844
12.5166
12.5762
12.6291
12.6546
12.6305
12.564
12.5229
12.527
12.5633
12.6069
12.6391
12.6358
12.6035
12.5668
12.5558
12.5702
12.6011
12.6267
12.6309
12.6139
12.5915
12.5812
12.5874
12.606
12.6217
12.6235
12.6133
12.6027
12.599
12.6036
12.6119
12.6177
12.6175
12.6128
12.6073
12.6077
12.6144
1
1
1
1
1
1
1
1
1
1
1
1
1
1
1
1
1
1
1
1
1
1
1
1
1
1
1
1
1
1
1
1
1
1
1
1
1
1
1
1
1
1
1
1
1
1
1
1
1
1
1
1
1
1
1
1
1
1
1
1
1
1
1
1
1
1
1
1
1
1
1
1
1
1
1
1
1
1
1
1
1
1
1
1
1
1
1
1
1
1
1
1
1
1
1
1
1
1
1
1
1
1
1
1
1
1
1
1
1
1
1
1
1
1
1
1
1
1
1
1
1
1
1
1
1
1
1
1
1
1
1
1
1
1
1
1
1
1
1
1
1
1
1
1
1
1
1
1
1
1
1
1
1
1
1
1
1
1
1
1
1
1
1
1
1
1
1
1
1
1
1
1
1
1
1
1
1
1
1
1
1
1
1
1
1
1
1
1
1
1
1
1
1
1
1
1
1
1
1
1
5.47081
12.1245
12.3672
12.1524
11.9868
11.8934
11.9218
12
12.1497
12.3365
12.4297
12.4704
12.4248
12.2754
12.1096
12.0588
12.1104
12.2013
12.3407
12.4563
12.5172
12.5237
12.4401
12.2948
12.2105
12.2366
12.3131
12.4202
12.5088
12.568
12.5746
12.5049
12.3873
12.3258
12.3624
12.4369
12.516
12.5829
12.618
12.5981
12.5141
12.4286
12.4241
12.4818
12.5495
12.6076
12.6427
12.6326
12.5746
12.5072
12.4832
12.5162
12.5771
12.6298
12.6544
12.629
12.5616
12.5211
12.5261
12.5639
12.6074
12.6394
12.6353
12.6021
12.5656
12.5552
12.5701
12.6014
12.6268
12.6305
12.6131
12.5905
12.5804
12.5871
12.606
12.6216
12.623
12.6126
12.6018
12.5983
12.6032
12.6116
12.6174
12.6171
12.6122
12.6067
12.6072
12.614
1
1
1
1
1
1
1
1
1
1
1
1
1
1
1
1
1
1
1
1
1
1
1
1
1
1
1
1
1
1
1
1
1
1
1
1
1
1
1
1
1
1
1
1
1
1
1
1
1
1
1
1
1
1
1
1
1
1
1
1
1
1
1
1
1
1
1
1
1
1
1
1
1
1
1
1
1
1
1
1
1
1
1
1
1
1
1
1
1
1
1
1
1
1
1
1
1
1
1
1
1
1
1
1
1
1
1
1
1
1
1
1
1
1
1
1
1
1
1
1
1
1
1
1
1
1
1
1
1
1
1
1
1
1
1
1
1
1
1
1
1
1
1
1
1
1
1
1
1
1
1
1
1
1
1
1
1
1
1
1
1
1
1
1
1
1
1
1
1
1
1
1
1
1
1
1
1
1
1
1
1
1
1
1
1
1
1
1
1
1
1
1
1
1
1
1
1
1
1
1
5.41261
12.1101
12.3561
12.1398
11.9776
11.8911
11.9246
12.0054
12.159
12.3431
12.4309
12.4684
12.418
12.2648
12.1031
12.0585
12.1129
12.2057
12.3463
12.4582
12.5177
12.5208
12.4335
12.2883
12.2083
12.238
12.3156
12.4234
12.5101
12.5683
12.5725
12.5
12.3827
12.3244
12.3636
12.4386
12.5172
12.5837
12.6174
12.5954
12.51
12.4259
12.4245
12.4829
12.5507
12.6083
12.6423
12.6307
12.5715
12.5048
12.4823
12.5167
12.5785
12.631
12.6541
12.6266
12.5581
12.5186
12.5251
12.5648
12.6082
12.6397
12.6342
12.6
12.5638
12.5542
12.5699
12.6017
12.627
12.6298
12.6118
12.589
12.5794
12.5867
12.6059
12.6214
12.6223
12.6115
12.6006
12.5973
12.6025
12.6113
12.617
12.6165
12.6114
12.6058
12.6066
12.6136
1
1
1
1
1
1
1
1
1
1
1
1
1
1
1
1
1
1
1
1
1
1
1
1
1
1
1
1
1
1
1
1
1
1
1
1
1
1
1
1
1
1
1
1
1
1
1
1
1
1
1
1
1
1
1
1
1
1
1
1
1
1
1
1
1
1
1
1
1
1
1
1
1
1
1
1
1
1
1
1
1
1
1
1
1
1
1
1
1
1
1
1
1
1
1
1
1
1
1
1
1
1
1
1
1
1
1
1
1
1
1
1
1
1
1
1
1
1
1
1
1
1
1
1
1
1
1
1
1
1
1
1
1
1
1
1
1
1
1
1
1
1
1
1
1
1
1
1
1
1
1
1
1
1
1
1
1
1
1
1
1
1
1
1
1
1
1
1
1
1
1
1
1
1
1
1
1
1
1
1
1
1
1
1
1
1
1
1
1
1
1
1
1
1
1
1
1
1
1
1
5.33702
12.089
12.3417
12.1234
11.9651
11.8882
11.9281
12.0126
12.1716
12.3515
12.4328
12.4659
12.4087
12.2502
12.0944
12.0584
12.1162
12.2118
12.3539
12.4611
12.5186
12.517
12.4246
12.2797
12.2055
12.24
12.3191
12.4277
12.5123
12.5688
12.5697
12.4935
12.3766
12.3227
12.3653
12.441
12.5191
12.5849
12.6167
12.592
12.5047
12.4223
12.4249
12.4845
12.5523
12.6091
12.6415
12.6278
12.5673
12.5017
12.4815
12.518
12.5803
12.6325
12.6538
12.6232
12.5536
12.5158
12.5247
12.5662
12.6097
12.6401
12.6329
12.5973
12.5615
12.553
12.5698
12.6022
12.6272
12.629
12.61
12.5871
12.5781
12.5861
12.6058
12.6211
12.6213
12.61
12.5989
12.596
12.6017
12.6108
12.6165
12.6155
12.6101
12.6046
12.6057
12.613
1
1
1
1
1
1
1
1
1
1
1
1
1
1
1
1
1
1
1
1
1
1
1
1
1
1
1
1
1
1
1
1
1
1
1
1
1
1
1
1
1
1
1
1
1
1
1
1
1
1
1
1
1
1
1
1
1
1
1
1
1
1
1
1
1
1
1
1
1
1
1
1
1
1
1
1
1
1
1
1
1
1
1
1
1
1
1
1
1
1
1
1
1
1
1
1
1
1
1
1
1
1
1
1
1
1
1
1
1
1
1
1
1
1
1
1
1
1
1
1
1
1
1
1
1
1
1
1
1
1
1
1
1
1
1
1
1
1
1
1
1
1
1
1
1
1
1
1
1
1
1
1
1
1
1
1
1
1
1
1
1
1
1
1
1
1
1
1
1
1
1
1
1
1
1
1
1
1
1
1
1
1
1
1
1
1
1
1
1
1
1
1
1
1
1
1
1
1
1
1
5.24319
12.0602
12.3227
12.1029
11.9502
11.8858
11.9332
12.0228
12.1882
12.3612
12.4354
12.4624
12.3965
12.2321
12.0846
12.0591
12.1204
12.2199
12.3633
12.4646
12.5195
12.5119
12.4132
12.2692
12.2026
12.2428
12.3237
12.4331
12.5149
12.5693
12.5661
12.4853
12.3691
12.3208
12.3675
12.444
12.5214
12.5863
12.6157
12.5876
12.4978
12.4178
12.4253
12.4867
12.5544
12.61
12.6405
12.6243
12.5624
12.4982
12.4808
12.5198
12.5824
12.6343
12.6531
12.6187
12.5483
12.5131
12.5247
12.568
12.6114
12.6402
12.6308
12.5936
12.5585
12.5513
12.5697
12.6027
12.6273
12.6277
12.6077
12.5847
12.5765
12.5854
12.6056
12.6206
12.62
12.6081
12.597
12.5945
12.6009
12.6102
12.6157
12.6142
12.6084
12.6031
12.6047
12.6124
1
1
1
1
1
1
1
1
1
1
1
1
1
1
1
1
1
1
1
1
1
1
1
1
1
1
1
1
1
1
1
1
1
1
1
1
1
1
1
1
1
1
1
1
1
1
1
1
1
1
1
1
1
1
1
1
1
1
1
1
1
1
1
1
1
1
1
1
1
1
1
1
1
1
1
1
1
1
1
1
1
1
1
1
1
1
1
1
1
1
1
1
1
1
1
1
1
1
1
1
1
1
1
1
1
1
1
1
1
1
1
1
1
1
1
1
1
1
1
1
1
1
1
1
1
1
1
1
1
1
1
1
1
1
1
1
1
1
1
1
1
1
1
1
1
1
1
1
1
1
1
1
1
1
1
1
1
1
1
1
1
1
1
1
1
1
1
1
1
1
1
1
1
1
1
1
1
1
1
1
1
1
1
1
1
1
1
1
1
1
1
1
1
1
1
1
1
1
1
1
5.13082
12.0217
12.2985
12.0788
11.9337
11.8847
11.9395
12.0361
12.2086
12.3711
12.4387
12.4572
12.3806
12.2105
12.0739
12.0608
12.1255
12.2302
12.3742
12.4686
12.5201
12.5052
12.399
12.257
12.1999
12.2463
12.3294
12.4395
12.5181
12.5697
12.5613
12.475
12.3604
12.3191
12.3703
12.4477
12.5242
12.588
12.6144
12.5821
12.4895
12.4128
12.4263
12.4895
12.5568
12.6109
12.6392
12.6201
12.5565
12.4939
12.48
12.5218
12.5847
12.6359
12.6518
12.613
12.5422
12.5103
12.5253
12.5703
12.6132
12.64
12.628
12.589
12.5549
12.5496
12.5698
12.6033
12.6275
12.6261
12.6048
12.5818
12.5746
12.5847
12.6053
12.62
12.6183
12.6058
12.5947
12.5928
12.5999
12.6095
12.6148
12.6126
12.6063
12.6013
12.6035
12.6117
1
1
1
1
1
1
1
1
1
1
1
1
1
1
1
1
1
1
1
1
1
1
1
1
1
1
1
1
1
1
1
1
1
1
1
1
1
1
1
1
1
1
1
1
1
1
1
1
1
1
1
1
1
1
1
1
1
1
1
1
1
1
1
1
1
1
1
1
1
1
1
1
1
1
1
1
1
1
1
1
1
1
1
1
1
1
1
1
1
1
1
1
1
1
1
1
1
1
1
1
1
1
1
1
1
1
1
1
1
1
1
1
1
1
1
1
1
1
1
1
1
1
1
1
1
1
1
1
1
1
1
1
1
1
1
1
1
1
1
1
1
1
1
1
1
1
1
1
1
1
1
1
1
1
1
1
1
1
1
1
1
1
1
1
1
1
1
1
1
1
1
1
1
1
1
1
1
1
1
1
1
1
1
1
1
1
1
1
1
1
1
1
1
1
1
1
1
1
1
1
5.00011
11.9718
12.2694
12.0513
11.9166
11.8858
11.9473
12.0534
12.2327
12.3801
12.4427
12.4497
12.3605
12.1859
12.063
12.0638
12.1318
12.2428
12.3862
12.473
12.5202
12.4965
12.3819
12.2437
12.1978
12.2505
12.3364
12.4467
12.5218
12.5698
12.5552
12.4627
12.3507
12.3178
12.3736
12.452
12.5275
12.5898
12.6127
12.5753
12.4797
12.4077
12.4281
12.4927
12.5593
12.6119
12.6375
12.615
12.5494
12.4888
12.4795
12.5242
12.5871
12.6371
12.6497
12.6064
12.5358
12.5077
12.5266
12.5729
12.6151
12.6392
12.6245
12.5836
12.5508
12.5476
12.5702
12.6041
12.6273
12.624
12.6012
12.5785
12.5725
12.5839
12.6049
12.6192
12.6163
12.6031
12.5921
12.5909
12.5988
12.6087
12.6136
12.6107
12.6038
12.5992
12.6022
12.6108
1
1
1
1
1
1
1
1
1
1
1
1
1
1
1
1
1
1
1
1
1
1
1
1
1
1
1
1
1
1
1
1
1
1
1
1
1
1
1
1
1
1
1
1
1
1
1
1
1
1
1
1
1
1
1
1
1
1
1
1
1
1
1
1
1
1
1
1
1
1
1
1
1
1
1
1
1
1
1
1
1
1
1
1
1
1
1
1
1
1
1
1
1
1
1
1
1
1
1
1
1
1
1
1
1
1
1
1
1
1
1
1
1
1
1
1
1
1
1
1
1
1
1
1
1
1
1
1
1
1
1
1
1
1
1
1
1
1
1
1
1
1
1
1
1
1
1
1
1
1
1
1
1
1
1
1
1
1
1
1
1
1
1
1
1
1
1
1
1
1
1
1
1
1
1
1
1
1
1
1
1
1
1
1
1
1
1
1
1
1
1
1
1
1
1
1
1
1
1
1
4.85098
11.9085
12.2359
12.0207
11.8999
11.8898
11.9565
12.0755
12.2595
12.3886
12.4458
12.4394
12.3359
12.1591
12.0527
12.0677
12.1401
12.2578
12.399
12.4777
12.5194
12.4852
12.3619
12.2297
12.1967
12.2555
12.3448
12.4544
12.5259
12.5693
12.5473
12.4485
12.3404
12.3172
12.3774
12.4571
12.5312
12.5917
12.6103
12.5669
12.4687
12.4028
12.4306
12.4963
12.5621
12.613
12.6354
12.609
12.5411
12.4832
12.4794
12.5268
12.5896
12.638
12.6469
12.5992
12.5292
12.5054
12.5284
12.5756
12.617
12.6377
12.62
12.5774
12.5464
12.5457
12.571
12.6051
12.6269
12.6213
12.597
12.5748
12.5703
12.5831
12.6045
12.6181
12.6139
12.5999
12.5891
12.5888
12.5975
12.6078
12.6123
12.6085
12.601
12.5967
12.6006
12.6098
1
1
1
1
1
1
1
1
1
1
1
1
1
1
1
1
1
1
1
1
1
1
1
1
1
1
1
1
1
1
1
1
1
1
1
1
1
1
1
1
1
1
1
1
1
1
1
1
1
1
1
1
1
1
1
1
1
1
1
1
1
1
1
1
1
1
1
1
1
1
1
1
1
1
1
1
1
1
1
1
1
1
1
1
1
1
1
1
1
1
1
1
1
1
1
1
1
1
1
1
1
1
1
1
1
1
1
1
1
1
1
1
1
1
1
1
1
1
1
1
1
1
1
1
1
1
1
1
1
1
1
1
1
1
1
1
1
1
1
1
1
1
1
1
1
1
1
1
1
1
1
1
1
1
1
1
1
1
1
1
1
1
1
1
1
1
1
1
1
1
1
1
1
1
1
1
1
1
1
1
1
1
1
1
1
1
1
1
1
1
1
1
1
1
1
1
1
1
1
1
4.68303
11.8304
12.1984
11.987
11.8852
11.8962
11.9691
12.1028
12.2876
12.3965
12.4471
12.4255
12.3059
12.1308
12.0439
12.0729
12.1506
12.2752
12.4117
12.4828
12.5172
12.4708
12.3388
12.2155
12.1971
12.2613
12.3547
12.4622
12.5305
12.5679
12.5373
12.4323
12.3297
12.3176
12.3819
12.4627
12.5353
12.5932
12.6069
12.5569
12.4566
12.3984
12.4338
12.5003
12.565
12.614
12.6329
12.6017
12.5316
12.4773
12.4799
12.5299
12.5921
12.6386
12.6436
12.5912
12.5224
12.5035
12.5306
12.5783
12.6188
12.6354
12.6145
12.5706
12.5419
12.5441
12.5721
12.6061
12.6259
12.6178
12.5922
12.5707
12.568
12.5824
12.604
12.6169
12.6111
12.5963
12.5858
12.5865
12.5962
12.6068
12.6108
12.6059
12.5978
12.5939
12.5988
12.6086
1
1
1
1
1
1
1
1
1
1
1
1
1
1
1
1
1
1
1
1
1
1
1
1
1
1
1
1
1
1
1
1
1
1
1
1
1
1
1
1
1
1
1
1
1
1
1
1
1
1
1
1
1
1
1
1
1
1
1
1
1
1
1
1
1
1
1
1
1
1
1
1
1
1
1
1
1
1
1
1
1
1
1
1
1
1
1
1
1
1
1
1
1
1
1
1
1
1
1
1
1
1
1
1
1
1
1
1
1
1
1
1
1
1
1
1
1
1
1
1
1
1
1
1
1
1
1
1
1
1
1
1
1
1
1
1
1
1
1
1
1
1
1
1
1
1
1
1
1
1
1
1
1
1
1
1
1
1
1
1
1
1
1
1
1
1
1
1
1
1
1
1
1
1
1
1
1
1
1
1
1
1
1
1
1
1
1
1
1
1
1
1
1
1
1
1
1
1
1
1
4.49705
11.735
12.1541
11.9521
11.8748
11.9045
11.9862
12.1356
12.315
12.4039
12.4456
12.407
12.27
12.1022
12.0376
12.0797
12.1637
12.2952
12.4235
12.4887
12.5131
12.4528
12.3132
12.2017
12.1993
12.2677
12.3664
12.4696
12.5357
12.5655
12.525
12.4141
12.3192
12.3193
12.3869
12.469
12.5399
12.5944
12.6024
12.545
12.4435
12.3945
12.4376
12.5047
12.5681
12.6149
12.6294
12.5929
12.5209
12.4717
12.4811
12.5334
12.5947
12.6389
12.6396
12.5824
12.5155
12.5019
12.5332
12.581
12.6203
12.6321
12.6079
12.5632
12.5374
12.5429
12.5736
12.607
12.6243
12.6136
12.5867
12.5665
12.5657
12.5817
12.6034
12.6152
12.6079
12.5923
12.5823
12.5841
12.5948
12.6057
12.609
12.6031
12.5943
12.5909
12.5967
12.6071
1
1
1
1
1
1
1
1
1
1
1
1
1
1
1
1
1
1
1
1
1
1
1
1
1
1
1
1
1
1
1
1
1
1
1
1
1
1
1
1
1
1
1
1
1
1
1
1
1
1
1
1
1
1
1
1
1
1
1
1
1
1
1
1
1
1
1
1
1
1
1
1
1
1
1
1
1
1
1
1
1
1
1
1
1
1
1
1
1
1
1
1
1
1
1
1
1
1
1
1
1
1
1
1
1
1
1
1
1
1
1
1
1
1
1
1
1
1
1
1
1
1
1
1
1
1
1
1
1
1
1
1
1
1
1
1
1
1
1
1
1
1
1
1
1
1
1
1
1
1
1
1
1
1
1
1
1
1
1
1
1
1
1
1
1
1
1
1
1
1
1
1
1
1
1
1
1
1
1
1
1
1
1
1
1
1
1
1
1
1
1
1
1
1
1
1
1
1
1
1
4.29275
11.6189
12.1027
11.9176
11.8712
11.9146
12.009
12.1742
12.3391
12.411
12.4402
12.3823
12.2288
12.0751
12.0343
12.0883
12.1797
12.3177
12.4338
12.4947
12.5062
12.4308
12.2854
12.1889
12.2032
12.2757
12.3797
12.477
12.5406
12.5616
12.51
12.3941
12.309
12.3226
12.3927
12.4756
12.5449
12.5949
12.5965
12.5312
12.4298
12.3915
12.4419
12.5096
12.5714
12.6155
12.625
12.5827
12.5094
12.4665
12.4832
12.5375
12.5974
12.6388
12.6346
12.5726
12.5084
12.5007
12.536
12.5836
12.6214
12.628
12.6004
12.5556
12.5331
12.5421
12.5752
12.6078
12.6219
12.6085
12.5807
12.5621
12.5636
12.5813
12.6028
12.6132
12.6041
12.588
12.5785
12.5815
12.5933
12.6045
12.6071
12.6
12.5905
12.5876
12.5943
12.6054
1
1
1
1
1
1
1
1
1
1
1
1
1
1
1
1
1
1
1
1
1
1
1
1
1
1
1
1
1
1
1
1
1
1
1
1
1
1
1
1
1
1
1
1
1
1
1
1
1
1
1
1
1
1
1
1
1
1
1
1
1
1
1
1
1
1
1
1
1
1
1
1
1
1
1
1
1
1
1
1
1
1
1
1
1
1
1
1
1
1
1
1
1
1
1
1
1
1
1
1
1
1
1
1
1
1
1
1
1
1
1
1
1
1
1
1
1
1
1
1
1
1
1
1
1
1
1
1
1
1
1
1
1
1
1
1
1
1
1
1
1
1
1
1
1
1
1
1
1
1
1
1
1
1
1
1
1
1
1
1
1
1
1
1
1
1
1
1
1
1
1
1
1
1
1
1
1
1
1
1
1
1
1
1
1
1
1
1
1
1
1
1
1
1
1
1
1
1
1
1
4.06965
11.4778
12.0452
11.8863
11.8757
11.9269
12.0395
12.2173
12.357
12.4185
12.4291
12.3498
12.184
12.0511
12.0351
12.0983
12.1996
12.3417
12.4435
12.499
12.4962
12.404
12.2568
12.1781
12.2084
12.2859
12.3941
12.4845
12.5447
12.556
12.4921
12.3728
12.2997
12.3271
12.3995
12.4824
12.5503
12.5948
12.5889
12.5151
12.4157
12.3898
12.4467
12.515
12.5748
12.6157
12.6194
12.571
12.4974
12.4622
12.486
12.5419
12.6001
12.6382
12.6285
12.5616
12.5011
12.5
12.5389
12.586
12.6219
12.6234
12.5921
12.548
12.5291
12.5419
12.5769
12.6082
12.6187
12.6027
12.5743
12.5578
12.5616
12.5809
12.6019
12.6108
12.5999
12.5832
12.5746
12.5789
12.5917
12.603
12.6048
12.5965
12.5864
12.584
12.5917
12.6033
1
1
1
1
1
1
1
1
1
1
1
1
1
1
1
1
1
1
1
1
1
1
1
1
1
1
1
1
1
1
1
1
1
1
1
1
1
1
1
1
1
1
1
1
1
1
1
1
1
1
1
1
1
1
1
1
1
1
1
1
1
1
1
1
1
1
1
1
1
1
1
1
1
1
1
1
1
1
1
1
1
1
1
1
1
1
1
1
1
1
1
1
1
1
1
1
1
1
1
1
1
1
1
1
1
1
1
1
1
1
1
1
1
1
1
1
1
1
1
1
1
1
1
1
1
1
1
1
1
1
1
1
1
1
1
1
1
1
1
1
1
1
1
1
1
1
1
1
1
1
1
1
1
1
1
1
1
1
1
1
1
1
1
1
1
1
1
1
1
1
1
1
1
1
1
1
1
1
1
1
1
1
1
1
1
1
1
1
1
1
1
1
1
1
1
1
1
1
1
1
3.82759
11.3066
11.9848
11.8617
11.8863
11.9445
12.0789
12.2611
12.37
12.4229
12.4116
12.3092
12.138
12.0315
12.0406
12.1103
12.2237
12.3658
12.4527
12.501
12.4817
12.3722
12.2281
12.1703
12.2155
12.2983
12.4093
12.4922
12.5476
12.5479
12.4708
12.351
12.2921
12.3325
12.4076
12.4894
12.5558
12.594
12.5792
12.4968
12.4015
12.3899
12.4519
12.5206
12.5781
12.6152
12.6126
12.5579
12.485
12.4586
12.4894
12.5467
12.6027
12.6369
12.621
12.5495
12.4939
12.4998
12.542
12.5883
12.6215
12.6181
12.5832
12.5403
12.5253
12.542
12.5783
12.6083
12.6148
12.5961
12.5676
12.5535
12.5599
12.5806
12.6009
12.6077
12.5951
12.5782
12.5706
12.5762
12.59
12.6013
12.6021
12.5927
12.582
12.5801
12.5889
12.601
1
1
1
1
1
1
1
1
1
1
1
1
1
1
1
1
1
1
1
1
1
1
1
1
1
1
1
1
1
1
1
1
1
1
1
1
1
1
1
1
1
1
1
1
1
1
1
1
1
1
1
1
1
1
1
1
1
1
1
1
1
1
1
1
1
1
1
1
1
1
1
1
1
1
1
1
1
1
1
1
1
1
1
1
1
1
1
1
1
1
1
1
1
1
1
1
1
1
1
1
1
1
1
1
1
1
1
1
1
1
1
1
1
1
1
1
1
1
1
1
1
1
1
1
1
1
1
1
1
1
1
1
1
1
1
1
1
1
1
1
1
1
1
1
1
1
1
1
1
1
1
1
1
1
1
1
1
1
1
1
1
1
1
1
1
1
1
1
1
1
1
1
1
1
1
1
1
1
1
1
1
1
1
1
1
1
1
1
1
1
1
1
1
1
1
1
1
1
1
1
3.56678
11.1011
11.9272
11.8455
11.8996
11.9699
12.1281
12.2999
12.3804
12.4215
12.3864
12.2602
12.0942
12.0177
12.0488
12.1268
12.2515
12.3883
12.4617
12.5001
12.4618
12.3354
12.201
12.1665
12.2239
12.3131
12.4249
12.5001
12.5488
12.5366
12.4461
12.3291
12.287
12.3388
12.417
12.4967
12.5608
12.5921
12.5673
12.4764
12.3878
12.3919
12.4576
12.5263
12.5812
12.614
12.6046
12.5434
12.4723
12.4558
12.4933
12.5518
12.6051
12.6346
12.6121
12.5369
12.4868
12.5
12.5451
12.5908
12.6204
12.6122
12.5737
12.5327
12.5218
12.5424
12.5796
12.6077
12.6102
12.5888
12.5608
12.5495
12.5584
12.5803
12.5994
12.6039
12.5898
12.5729
12.5666
12.5736
12.5882
12.5993
12.599
12.5884
12.5774
12.5761
12.5858
12.5983
1
1
1
1
1
1
1
1
1
1
1
1
1
1
1
1
1
1
1
1
1
1
1
1
1
1
1
1
1
1
1
1
1
1
1
1
1
1
1
1
1
1
1
1
1
1
1
1
1
1
1
1
1
1
1
1
1
1
1
1
1
1
1
1
1
1
1
1
1
1
1
1
1
1
1
1
1
1
1
1
1
1
1
1
1
1
1
1
1
1
1
1
1
1
1
1
1
1
1
1
1
1
1
1
1
1
1
1
1
1
1
1
1
1
1
1
1
1
1
1
1
1
1
1
1
1
1
1
1
1
1
1
1
1
1
1
1
1
1
1
1
1
1
1
1
1
1
1
1
1
1
1
1
1
1
1
1
1
1
1
1
1
1
1
1
1
1
1
1
1
1
1
1
1
1
1
1
1
1
1
1
1
1
1
1
1
1
1
1
1
1
1
1
1
1
1
1
1
1
1
3.28772
10.8577
11.877
11.8401
11.9145
12.0064
12.1852
12.3281
12.3898
12.412
12.3517
12.2043
12.0554
12.0107
12.0601
12.148
12.2828
12.4071
12.4709
12.4947
12.4352
12.2945
12.1769
12.1675
12.2336
12.3309
12.4397
12.5083
12.5477
12.5213
12.418
12.308
12.285
12.346
12.4275
12.5043
12.5651
12.5886
12.5526
12.4542
12.3754
12.3956
12.4638
12.5319
12.5841
12.6121
12.595
12.5275
12.4597
12.454
12.4976
12.557
12.6072
12.631
12.6019
12.524
12.4802
12.5006
12.5484
12.5932
12.6183
12.6057
12.5636
12.525
12.5186
12.5433
12.5805
12.6065
12.605
12.581
12.5541
12.5457
12.5571
12.5798
12.5975
12.5995
12.584
12.5675
12.5626
12.5709
12.5862
12.5969
12.5954
12.5836
12.5725
12.5719
12.5825
12.5952
1
1
1
1
1
1
1
1
1
1
1
1
1
1
1
1
1
1
1
1
1
1
1
1
1
1
1
1
1
1
1
1
1
1
1
1
1
1
1
1
1
1
1
1
1
1
1
1
1
1
1
1
1
1
1
1
1
1
1
1
1
1
1
1
1
1
1
1
1
1
1
1
1
1
1
1
1
1
1
1
1
1
1
1
1
1
1
1
1
1
1
1
1
1
1
1
1
1
1
1
1
1
1
1
1
1
1
1
1
1
1
1
1
1
1
1
1
1
1
1
1
1
1
1
1
1
1
1
1
1
1
1
1
1
1
1
1
1
1
1
1
1
1
1
1
1
1
1
1
1
1
1
1
1
1
1
1
1
1
1
1
1
1
1
1
1
1
1
1
1
1
1
1
1
1
1
1
1
1
1
1
1
1
1
1
1
1
1
1
1
1
1
1
1
1
1
1
1
1
1
2.99401
10.5722
11.8406
11.8425
11.9333
12.0594
12.242
12.3451
12.3967
12.3931
12.3057
12.1453
12.0242
12.0113
12.0738
12.175
12.3163
12.4214
12.479
12.4835
12.401
12.2518
12.1573
12.1731
12.2455
12.351
12.4526
12.517
12.544
12.5009
12.387
12.2889
12.287
12.3541
12.4388
12.5123
12.5683
12.583
12.5348
12.4309
12.3653
12.4008
12.4704
12.5375
12.5867
12.6091
12.5836
12.5101
12.4476
12.4533
12.5023
12.5621
12.6088
12.6261
12.5902
12.5109
12.4745
12.5019
12.552
12.5952
12.6152
12.5981
12.5529
12.5173
12.5156
12.5445
12.5812
12.6045
12.5992
12.5729
12.5473
12.5421
12.5559
12.579
12.5951
12.5944
12.5778
12.5621
12.5588
12.5683
12.584
12.594
12.5913
12.5785
12.5674
12.5676
12.579
12.5918
1
1
1
1
1
1
1
1
1
1
1
1
1
1
1
1
1
1
1
1
1
1
1
1
1
1
1
1
1
1
1
1
1
1
1
1
1
1
1
1
1
1
1
1
1
1
1
1
1
1
1
1
1
1
1
1
1
1
1
1
1
1
1
1
1
1
1
1
1
1
1
1
1
1
1
1
1
1
1
1
1
1
1
1
1
1
1
1
1
1
1
1
1
1
1
1
1
1
1
1
1
1
1
1
1
1
1
1
1
1
1
1
1
1
1
1
1
1
1
1
1
1
1
1
1
1
1
1
1
1
1
1
1
1
1
1
1
1
1
1
1
1
1
1
1
1
1
1
1
1
1
1
1
1
1
1
1
1
1
1
1
1
1
1
1
1
1
1
1
1
1
1
1
1
1
1
1
1
1
1
1
1
1
1
1
1
1
1
1
1
1
1
1
1
1
1
1
1
1
1
2.69041
10.2377
11.8219
11.8503
11.9656
12.1271
12.2863
12.3577
12.3948
12.3631
12.2488
12.089
12.0017
12.0195
12.0912
12.2081
12.3487
12.4338
12.4826
12.4655
12.3589
12.2107
12.1435
12.1813
12.2615
12.3729
12.464
12.524
12.5369
12.4755
12.3543
12.2726
12.2924
12.3638
12.4506
12.5205
12.57
12.5749
12.5133
12.4072
12.3584
12.407
12.4776
12.5428
12.5887
12.6047
12.5701
12.4915
12.4369
12.4542
12.5074
12.5668
12.6095
12.6197
12.5772
12.4981
12.4699
12.5037
12.5554
12.5969
12.6112
12.5894
12.5417
12.5097
12.5132
12.5459
12.5818
12.6016
12.5926
12.5645
12.5407
12.5386
12.5547
12.5779
12.5921
12.5886
12.5713
12.5567
12.555
12.5656
12.5814
12.5906
12.5866
12.573
12.5621
12.5632
12.5752
12.5878
1
1
1
1
1
1
1
1
1
1
1
1
1
1
1
1
1
1
1
1
1
1
1
1
1
1
1
1
1
1
1
1
1
1
1
1
1
1
1
1
1
1
1
1
1
1
1
1
1
1
1
1
1
1
1
1
1
1
1
1
1
1
1
1
1
1
1
1
1
1
1
1
1
1
1
1
1
1
1
1
1
1
1
1
1
1
1
1
1
1
1
1
1
1
1
1
1
1
1
1
1
1
1
1
1
1
1
1
1
1
1
1
1
1
1
1
1
1
1
1
1
1
1
1
1
1
1
1
1
1
1
1
1
1
1
1
1
1
1
1
1
1
1
1
1
1
1
1
1
1
1
1
1
1
1
1
1
1
1
1
1
1
1
1
1
1
1
1
1
1
1
1
1
1
1
1
1
1
1
1
1
1
1
1
1
1
1
1
1
1
1
1
1
1
1
1
1
1
1
1
2.38282
9.85663
11.8167
11.8707
12.0207
12.1991
12.3114
12.3686
12.3808
12.3204
12.1833
12.0404
11.9896
12.0323
12.1155
12.2463
12.3764
12.4451
12.4805
12.4384
12.3096
12.1734
12.1371
12.1923
12.2812
12.3952
12.4751
12.5279
12.5251
12.4446
12.3215
12.2603
12.2999
12.376
12.4622
12.5288
12.5702
12.5635
12.4879
12.3842
12.3555
12.4141
12.4851
12.5477
12.59
12.5986
12.5542
12.4721
12.4281
12.4568
12.5129
12.571
12.6092
12.6119
12.5631
12.4858
12.4665
12.5061
12.5584
12.5978
12.6065
12.5793
12.5301
12.5023
12.5114
12.5474
12.5821
12.5979
12.5853
12.5557
12.5342
12.5352
12.5534
12.5764
12.5886
12.5823
12.5644
12.5513
12.5514
12.5628
12.5784
12.5866
12.5813
12.5671
12.5568
12.5587
12.5712
12.5834
1
1
1
1
1
1
1
1
1
1
1
1
1
1
1
1
1
1
1
1
1
1
1
1
1
1
1
1
1
1
1
1
1
1
1
1
1
1
1
1
1
1
1
1
1
1
1
1
1
1
1
1
1
1
1
1
1
1
1
1
1
1
1
1
1
1
1
1
1
1
1
1
1
1
1
1
1
1
1
1
1
1
1
1
1
1
1
1
1
1
1
1
1
1
1
1
1
1
1
1
1
1
1
1
1
1
1
1
1
1
1
1
1
1
1
1
1
1
1
1
1
1
1
1
1
1
1
1
1
1
1
1
1
1
1
1
1
1
1
1
1
1
1
1
1
1
1
1
1
1
1
1
1
1
1
1
1
1
1
1
1
1
1
1
1
1
1
1
1
1
1
1
1
1
1
1
1
1
1
1
1
1
1
1
1
1
1
1
1
1
1
1
1
1
1
1
1
1
1
1
2.0809
9.43182
11.8238
11.9174
12.0966
12.2568
12.3259
12.3706
12.3537
12.2647
12.1154
12.0027
11.9884
12.0489
12.1479
12.2876
12.3966
12.4562
12.4705
12.4011
12.2554
12.1431
12.139
12.2052
12.3051
12.4161
12.4861
12.5279
12.5074
12.4084
12.2905
12.2535
12.3089
12.3904
12.4735
12.5363
12.5685
12.5481
12.4592
12.3626
12.357
12.4222
12.4928
12.5523
12.5902
12.5903
12.5356
12.4523
12.422
12.4609
12.5187
12.5745
12.6076
12.6026
12.5482
12.4741
12.4642
12.5089
12.5611
12.5978
12.6008
12.5677
12.5183
12.4956
12.5104
12.549
12.5822
12.5933
12.5772
12.5465
12.5277
12.532
12.5521
12.5744
12.5845
12.5754
12.5572
12.546
12.5477
12.5598
12.575
12.582
12.5755
12.5611
12.5515
12.5543
12.5669
12.5783
1
1
1
1
1
1
1
1
1
1
1
1
1
1
1
1
1
1
1
1
1
1
1
1
1
1
1
1
1
1
1
1
1
1
1
1
1
1
1
1
1
1
1
1
1
1
1
1
1
1
1
1
1
1
1
1
1
1
1
1
1
1
1
1
1
1
1
1
1
1
1
1
1
1
1
1
1
1
1
1
1
1
1
1
1
1
1
1
1
1
1
1
1
1
1
1
1
1
1
1
1
1
1
1
1
1
1
1
1
1
1
1
1
1
1
1
1
1
1
1
1
1
1
1
1
1
1
1
1
1
1
1
1
1
1
1
1
1
1
1
1
1
1
1
1
1
1
1
1
1
1
1
1
1
1
1
1
1
1
1
1
1
1
1
1
1
1
1
1
1
1
1
1
1
1
1
1
1
1
1
1
1
1
1
1
1
1
1
1
1
1
1
1
1
1
1
1
1
1
1
1.79485
8.97253
11.8525
11.9911
12.1758
12.29
12.3369
12.3585
12.3119
12.1977
12.0529
11.9774
11.9984
12.0707
12.1887
12.3272
12.4118
12.4622
12.451
12.3526
12.2021
12.1215
12.1474
12.2224
12.3321
12.4335
12.4969
12.5238
12.4822
12.3676
12.263
12.2535
12.3195
12.4064
12.4846
12.5423
12.5642
12.5282
12.4278
12.3442
12.362
12.4311
12.5007
12.5564
12.5891
12.5793
12.5146
12.4332
12.419
12.4665
12.5248
12.5771
12.6045
12.5917
12.5324
12.4632
12.4628
12.5121
12.5636
12.5966
12.5941
12.5548
12.5063
12.4895
12.5103
12.5505
12.5818
12.5878
12.5681
12.5368
12.5212
12.5288
12.5507
12.5721
12.5797
12.5681
12.5498
12.5406
12.5441
12.5566
12.5711
12.5767
12.5692
12.5548
12.5463
12.5498
12.5623
12.5727
1
1
1
1
1
1
1
1
1
1
1
1
1
1
1
1
1
1
1
1
1
1
1
1
1
1
1
1
1
1
1
1
1
1
1
1
1
1
1
1
1
1
1
1
1
1
1
1
1
1
1
1
1
1
1
1
1
1
1
1
1
1
1
1
1
1
1
1
1
1
1
1
1
1
1
1
1
1
1
1
1
1
1
1
1
1
1
1
1
1
1
1
1
1
1
1
1
1
1
1
1
1
1
1
1
1
1
1
1
1
1
1
1
1
1
1
1
1
1
1
1
1
1
1
1
1
1
1
1
1
1
1
1
1
1
1
1
1
1
1
1
1
1
1
1
1
1
1
1
1
1
1
1
1
1
1
1
1
1
1
1
1
1
1
1
1
1
1
1
1
1
1
1
1
1
1
1
1
1
1
1
1
1
1
1
1
1
1
1
1
1
1
1
1
1
1
1
1
1
1
1.53486
8.4918
11.9077
12.0824
12.2351
12.3095
12.3368
12.331
12.2567
12.1241
12.0019
11.9662
12.0151
12.1025
12.2358
12.3593
12.4254
12.4597
12.4196
12.294
12.1548
12.1103
12.1598
12.2453
12.3606
12.4481
12.505
12.5143
12.4491
12.3246
12.2409
12.2598
12.3322
12.4231
12.4956
12.5461
12.5563
12.503
12.3954
12.3307
12.3694
12.4407
12.5087
12.56
12.586
12.5651
12.4912
12.4159
12.419
12.4731
12.5309
12.5789
12.5998
12.579
12.5159
12.4533
12.4624
12.5155
12.5659
12.5944
12.5861
12.5407
12.4946
12.4844
12.5111
12.5517
12.5807
12.5815
12.5578
12.5268
12.5148
12.5258
12.5494
12.5694
12.5742
12.5603
12.5422
12.5352
12.5403
12.5532
12.5666
12.5709
12.5624
12.5484
12.541
12.5452
12.5574
12.5665
1
1
1
1
1
1
1
1
1
1
1
1
1
1
1
1
1
1
1
1
1
1
1
1
1
1
1
1
1
1
1
1
1
1
1
1
1
1
1
1
1
1
1
1
1
1
1
1
1
1
1
1
1
1
1
1
1
1
1
1
1
1
1
1
1
1
1
1
1
1
1
1
1
1
1
1
1
1
1
1
1
1
1
1
1
1
1
1
1
1
1
1
1
1
1
1
1
1
1
1
1
1
1
1
1
1
1
1
1
1
1
1
1
1
1
1
1
1
1
1
1
1
1
1
1
1
1
1
1
1
1
1
1
1
1
1
1
1
1
1
1
1
1
1
1
1
1
1
1
1
1
1
1
1
1
1
1
1
1
1
1
1
1
1
1
1
1
1
1
1
1
1
1
1
1
1
1
1
1
1
1
1
1
1
1
1
1
1
1
1
1
1
1
1
1
1
1
1
1
1
1.31039
8.00218
11.9844
12.1745
12.2624
12.3221
12.3209
12.2885
12.1895
12.0516
11.9659
11.971
12.0372
12.1456
12.2843
12.3809
12.437
12.4464
12.3742
12.2292
12.1177
12.1111
12.1751
12.2739
12.388
12.4617
12.5077
12.4974
12.4086
12.2829
12.2256
12.2694
12.3487
12.4393
12.5062
12.5474
12.5438
12.472
12.3639
12.3235
12.3783
12.4512
12.5162
12.5626
12.5807
12.5474
12.4658
12.4017
12.4218
12.4803
12.5367
12.5798
12.5933
12.5641
12.4985
12.4446
12.4629
12.5191
12.5679
12.5912
12.5766
12.5256
12.4833
12.4804
12.5126
12.5527
12.5786
12.5742
12.5465
12.5166
12.5086
12.5231
12.548
12.5662
12.568
12.5519
12.5344
12.5298
12.5366
12.5495
12.5617
12.5644
12.5552
12.5419
12.5358
12.5407
12.5522
12.5598
1
1
1
1
1
1
1
1
1
1
1
1
1
1
1
1
1
1
1
1
1
1
1
1
1
1
1
1
1
1
1
1
1
1
1
1
1
1
1
1
1
1
1
1
1
1
1
1
1
1
1
1
1
1
1
1
1
1
1
1
1
1
1
1
1
1
1
1
1
1
1
1
1
1
1
1
1
1
1
1
1
1
1
1
1
1
1
1
1
1
1
1
1
1
1
1
1
1
1
1
1
1
1
1
1
1
1
1
1
1
1
1
1
1
1
1
1
1
1
1
1
1
1
1
1
1
1
1
1
1
1
1
1
1
1
1
1
1
1
1
1
1
1
1
1
1
1
1
1
1
1
1
1
1
1
1
1
1
1
1
1
1
1
1
1
1
1
1
1
1
1
1
1
1
1
1
1
1
1
1
1
1
1
1
1
1
1
1
1
1
1
1
1
1
1
1
1
1
1
1
1.1285
7.5124
12.0684
12.2321
12.272
12.3164
12.2925
12.2327
12.112
11.9908
11.9467
11.9879
12.0702
12.1985
12.3261
12.3975
12.4401
12.4192
12.3142
12.1672
12.0932
12.1211
12.196
12.3069
12.4111
12.4745
12.5047
12.4711
12.3609
12.2457
12.2201
12.2812
12.3683
12.4541
12.5156
12.5461
12.5255
12.4358
12.335
12.3234
12.3884
12.4617
12.5232
12.5641
12.5724
12.5256
12.4393
12.3917
12.4268
12.4879
12.542
12.5796
12.5849
12.547
12.4806
12.4375
12.4643
12.5225
12.5696
12.5873
12.565
12.5099
12.4726
12.4776
12.5145
12.5533
12.5751
12.5658
12.5344
12.5063
12.5027
12.5209
12.5466
12.5626
12.5608
12.5429
12.5263
12.5243
12.5327
12.5454
12.5562
12.5573
12.5475
12.5352
12.5305
12.536
12.5467
12.5527
1
1
1
1
1
1
1
1
1
1
1
1
1
1
1
1
1
1
1
1
1
1
1
1
1
1
1
1
1
1
1
1
1
1
1
1
1
1
1
1
1
1
1
1
1
1
1
1
1
1
1
1
1
1
1
1
1
1
1
1
1
1
1
1
1
1
1
1
1
1
1
1
1
1
1
1
1
1
1
1
1
1
1
1
1
1
1
1
1
1
1
1
1
1
1
1
1
1
1
1
1
1
1
1
1
1
1
1
1
1
1
1
1
1
1
1
1
1
1
1
1
1
1
1
1
1
1
1
1
1
1
1
1
1
1
1
1
1
1
1
1
1
1
1
1
1
1
1
1
1
1
1
1
1
1
1
1
1
1
1
1
1
1
1
1
1
1
1
1
1
1
1
1
1
1
1
1
1
1
1
1
1
1
1
1
1
1
1
1
1
1
1
1
1
1
1
1
1
1
1
1.01067
7.01843
12.1128
12.2468
12.268
12.296
12.2515
12.1622
12.0321
11.9479
11.9482
12.0125
12.1176
12.2544
12.3549
12.4117
12.4307
12.3755
12.243
12.1155
12.0829
12.1364
12.2248
12.3418
12.4292
12.4843
12.4951
12.434
12.309
12.2159
12.2247
12.2956
12.3894
12.468
12.5226
12.5407
12.5006
12.3964
12.3108
12.3292
12.3999
12.4723
12.5294
12.5639
12.5605
12.4998
12.413
12.3865
12.4335
12.4956
12.5465
12.578
12.5743
12.5278
12.4623
12.4323
12.4669
12.5257
12.5706
12.5823
12.551
12.494
12.4631
12.4761
12.5165
12.5534
12.5701
12.5561
12.5217
12.4962
12.4974
12.519
12.545
12.5582
12.5528
12.5335
12.518
12.5186
12.5289
12.5412
12.5503
12.5496
12.5394
12.5283
12.5253
12.5312
12.5409
12.5451
1
1
1
1
1
1
1
1
1
1
1
1
1
1
1
1
1
1
1
1
1
1
1
1
1
1
1
1
1
1
1
1
1
1
1
1
1
1
1
1
1
1
1
1
1
1
1
1
1
1
1
1
1
1
1
1
1
1
1
1
1
1
1
1
1
1
1
1
1
1
1
1
1
1
1
1
1
1
1
1
1
1
1
1
1
1
1
1
1
1
1
1
1
1
1
1
1
1
1
1
1
1
1
1
1
1
1
1
1
1
1
1
1
1
1
1
1
1
1
1
1
1
1
1
1
1
1
1
1
1
1
1
1
1
1
1
1
1
1
1
1
1
1
1
1
1
1
1
1
1
1
1
1
1
1
1
1
1
1
1
1
1
1
1
1
1
1
1
1
1
1
1
1
1
1
1
1
1
1
1
1
1
1
1
1
1
1
1
1
1
1
1
1
1
1
1
1
1
1
1
1
6.46681
12.1077
12.2469
12.2499
12.2625
12.1935
12.0783
11.9658
11.9262
11.9667
12.0499
12.1769
12.3026
12.3743
12.4175
12.4054
12.3145
12.1698
12.079
12.0879
12.1558
12.2604
12.3742
12.445
12.4874
12.476
12.3867
12.2582
12.1955
12.2353
12.3147
12.4105
12.4811
12.5263
12.53
12.4681
12.3563
12.2947
12.3381
12.4127
12.4827
12.5347
12.5616
12.5442
12.4703
12.3888
12.3859
12.4415
12.503
12.5501
12.5746
12.5612
12.5068
12.4444
12.4289
12.4708
12.5291
12.5706
12.5756
12.5349
12.4781
12.4549
12.4758
12.5181
12.5527
12.5637
12.5451
12.5087
12.4868
12.4928
12.5174
12.5429
12.553
12.5437
12.5234
12.5095
12.513
12.525
12.5367
12.5438
12.5412
12.5308
12.5213
12.5201
12.5264
12.5347
12.537
1
1
1
1
1
1
1
1
1
1
1
1
1
1
1
1
1
1
1
1
1
1
1
1
1
1
1
1
1
1
1
1
1
1
1
1
1
1
1
1
1
1
1
1
1
1
1
1
1
1
1
1
1
1
1
1
1
1
1
1
1
1
1
1
1
1
1
1
1
1
1
1
1
1
1
1
1
1
1
1
1
1
1
1
1
1
1
1
1
1
1
1
1
1
1
1
1
1
1
1
1
1
1
1
1
1
1
1
1
1
1
1
1
1
1
1
1
1
1
1
1
1
1
1
1
1
1
1
1
1
1
1
1
1
1
1
1
1
1
1
1
1
1
1
1
1
1
1
1
1
1
1
1
1
1
1
1
1
1
1
1
1
1
1
1
1
1
1
1
1
1
1
1
1
1
1
1
1
1
1
1
1
1
1
1
1
1
1
1
1
1
1
1
1
1
1
1
1
1
1
1
5.90794
12.0661
12.2372
12.2194
12.2146
12.1166
11.9936
11.922
11.9304
11.9967
12.1048
12.2389
12.3344
12.389
12.4087
12.3609
12.2391
12.1075
12.0593
12.1025
12.1845
12.3006
12.3997
12.4589
12.4831
12.4443
12.3304
12.214
12.1883
12.249
12.3382
12.4293
12.4929
12.5266
12.5123
12.4282
12.3186
12.2884
12.3487
12.4258
12.4926
12.5389
12.5562
12.523
12.4379
12.3694
12.3889
12.4502
12.51
12.5525
12.569
12.5454
12.4844
12.4285
12.4272
12.4751
12.5329
12.5697
12.5663
12.517