/*--------------------------------*- C++ -*----------------------------------*\
  =========                 |
  \\      /  F ield         | OpenFOAM: The Open Source CFD Toolbox
   \\    /   O peration     | Website:  https://openfoam.org
    \\  /    A nd           | Version:  7
     \\/     M anipulation  |
\*---------------------------------------------------------------------------*/
FoamFile
{
    version     2.0;
    format      ascii;
    class       surfaceScalarField;
    location    "6";
    object      phi;
}
// * * * * * * * * * * * * * * * * * * * * * * * * * * * * * * * * * * * * * //

dimensions      [0 3 -1 0 0 0 0];

internalField   nonuniform List<scalar> 
611
(
0.000145357
0.000144749
0.000148857
0.000162553
0.00039041
1.5642e-05
0.00039006
1.5369e-05
0.000389728
1.51009e-05
0.000389413
1.48379e-05
1.45797e-05
0.000178816
1.14467e-05
0.000201374
5.53258e-07
0.000221304
-1.36532e-07
0.000238982
3.6883e-07
0.000254041
2.29975e-06
0.000266701
4.85842e-06
0.000277335
7.57356e-06
0.000286297
1.0202e-05
0.000293882
1.26329e-05
0.000300333
1.48199e-05
0.000305845
1.67516e-05
0.000310577
1.84355e-05
0.000314655
1.98874e-05
0.000318182
2.11273e-05
0.000321243
2.21759e-05
0.000323905
2.30532e-05
0.000326226
2.37779e-05
0.000328254
2.43671e-05
0.000330028
2.48363e-05
0.000331582
2.51993e-05
0.000332946
2.54683e-05
0.000334144
2.56543e-05
0.000335198
2.5767e-05
0.000336127
2.58151e-05
0.000336947
2.58063e-05
0.000337671
2.57476e-05
0.000338313
2.56449e-05
0.000338883
2.55038e-05
0.000339392
2.53291e-05
0.000339847
2.51251e-05
0.000340256
2.48959e-05
0.000340625
2.46448e-05
0.000340961
2.43749e-05
0.000341269
2.4089e-05
0.000341553
2.37896e-05
0.000341817
2.3479e-05
0.000342065
2.3159e-05
0.0003423
2.28315e-05
0.000342524
2.24981e-05
0.000342741
2.21601e-05
0.000342952
2.18188e-05
0.000343159
2.14754e-05
0.000343364
2.11308e-05
0.000343567
2.07859e-05
0.000343771
2.04415e-05
0.000343977
2.00982e-05
0.000344184
1.97567e-05
0.000344395
1.94175e-05
0.000344609
1.90811e-05
0.000344827
1.87479e-05
0.00034505
1.84183e-05
0.000345278
1.80924e-05
0.000345511
1.77707e-05
0.000345749
1.74533e-05
0.000345993
1.71404e-05
0.000346243
1.68322e-05
0.000346498
1.65287e-05
0.000346759
1.62302e-05
0.000347025
1.59366e-05
0.000347297
1.5648e-05
0.000347574
1.53645e-05
0.000347857
1.50861e-05
0.000348145
1.48128e-05
0.000348439
1.45446e-05
1.42815e-05
2.58555e-05
-1.44088e-05
3.88942e-05
-1.24855e-05
4.8496e-05
-9.73838e-06
5.61211e-05
-7.25618e-06
6.22544e-05
-3.83359e-06
6.73025e-05
-1.89656e-07
7.15091e-05
3.36698e-06
7.50537e-05
6.65734e-06
7.80708e-05
9.61592e-06
8.06632e-05
1.22274e-05
8.29105e-05
1.45043e-05
8.48746e-05
1.64714e-05
8.6604e-05
1.81581e-05
8.81369e-05
1.95944e-05
8.95041e-05
2.08086e-05
9.07305e-05
2.18268e-05
9.18363e-05
2.26721e-05
9.28382e-05
2.33652e-05
9.37502e-05
2.39243e-05
9.45841e-05
2.43654e-05
9.53497e-05
2.47026e-05
9.60556e-05
2.49483e-05
9.67091e-05
2.51135e-05
9.73164e-05
2.52078e-05
9.78831e-05
2.52397e-05
9.84138e-05
2.52169e-05
9.89127e-05
2.51459e-05
9.93836e-05
2.50329e-05
9.98295e-05
2.48831e-05
0.000100253
2.47013e-05
0.000100658
2.44917e-05
0.000101044
2.42579e-05
0.000101416
2.40035e-05
0.000101773
2.37313e-05
0.000102119
2.34442e-05
0.000102454
2.31443e-05
0.000102779
2.2834e-05
0.000103095
2.25151e-05
0.000103404
2.21893e-05
0.000103706
2.18581e-05
0.000104002
2.15229e-05
0.000104292
2.11849e-05
0.000104578
2.08451e-05
0.000104859
2.05046e-05
0.000105137
2.0164e-05
0.000105411
1.98243e-05
0.000105681
1.9486e-05
0.000105949
1.91497e-05
0.000106214
1.88159e-05
0.000106477
1.8485e-05
0.000106738
1.81575e-05
0.000106997
1.78337e-05
0.000107254
1.75139e-05
0.000107509
1.71982e-05
0.000107762
1.68869e-05
0.000108014
1.65803e-05
0.000108264
1.62783e-05
0.000108513
1.59812e-05
0.000108761
1.56889e-05
0.000109007
1.54017e-05
0.000109252
1.51195e-05
0.000109496
1.48424e-05
0.000109739
1.45704e-05
0.00010998
1.43034e-05
1.40415e-05
1.42355e-05
-2.86443e-05
2.60826e-05
-2.43326e-05
3.60237e-05
-1.96795e-05
4.38214e-05
-1.50539e-05
5.00992e-05
-1.01114e-05
5.52573e-05
-5.34774e-06
5.95619e-05
-9.37578e-07
6.32004e-05
3.01882e-06
6.6313e-05
6.50333e-06
6.90052e-05
9.53523e-06
7.13576e-05
1.21519e-05
7.34323e-05
1.43967e-05
7.52775e-05
1.63128e-05
7.69312e-05
1.79407e-05
7.84235e-05
1.93163e-05
7.97786e-05
2.04716e-05
8.10163e-05
2.14344e-05
8.21527e-05
2.22288e-05
8.32013e-05
2.28758e-05
8.41733e-05
2.33935e-05
8.50781e-05
2.37978e-05
8.5924e-05
2.41025e-05
8.67178e-05
2.43197e-05
8.74655e-05
2.44601e-05
8.81723e-05
2.45329e-05
8.88426e-05
2.45465e-05
8.94805e-05
2.4508e-05
9.00894e-05
2.44241e-05
9.06723e-05
2.43003e-05
9.12318e-05
2.41418e-05
9.17704e-05
2.39531e-05
9.22901e-05
2.37382e-05
9.27927e-05
2.35008e-05
9.32799e-05
2.32441e-05
9.37532e-05
2.29709e-05
9.42138e-05
2.26837e-05
9.46629e-05
2.23849e-05
9.51014e-05
2.20765e-05
9.55304e-05
2.17603e-05
9.59505e-05
2.1438e-05
9.63626e-05
2.11108e-05
9.67673e-05
2.07803e-05
9.7165e-05
2.04474e-05
9.75564e-05
2.01132e-05
9.79418e-05
1.97786e-05
9.83217e-05
1.94444e-05
9.86963e-05
1.91113e-05
9.90661e-05
1.87799e-05
9.94313e-05
1.84507e-05
9.97921e-05
1.81242e-05
0.000100149
1.78009e-05
0.000100501
1.7481e-05
0.00010085
1.7165e-05
0.000101196
1.68529e-05
0.000101537
1.65452e-05
0.000101876
1.62419e-05
0.000102211
1.59432e-05
0.000102543
1.56493e-05
0.000102871
1.53602e-05
0.000103197
1.50761e-05
0.00010352
1.47969e-05
0.000103839
1.45227e-05
0.000104156
1.42535e-05
0.00010447
1.39894e-05
1.37304e-05
7.00716e-06
-3.56514e-05
1.66308e-05
-3.39562e-05
2.57178e-05
-2.87664e-05
3.31311e-05
-2.24672e-05
3.92054e-05
-1.61857e-05
4.42372e-05
-1.03795e-05
4.84622e-05
-5.16263e-06
5.20572e-05
-5.76211e-07
5.51554e-05
3.40518e-06
5.78575e-05
6.83309e-06
6.02405e-05
9.76891e-06
6.23633e-05
1.22739e-05
6.42715e-05
1.44047e-05
6.60007e-05
1.62114e-05
6.75793e-05
1.77378e-05
6.90296e-05
1.90213e-05
7.03701e-05
2.0094e-05
7.16156e-05
2.09833e-05
7.27784e-05
2.17129e-05
7.38689e-05
2.2303e-05
7.48957e-05
2.27709e-05
7.58663e-05
2.31319e-05
7.67869e-05
2.33991e-05
7.7663e-05
2.3584e-05
7.84993e-05
2.36967e-05
7.92998e-05
2.3746e-05
8.00681e-05
2.37397e-05
8.08073e-05
2.36848e-05
8.15202e-05
2.35874e-05
8.22092e-05
2.34528e-05
8.28765e-05
2.32858e-05
8.35238e-05
2.30909e-05
8.4153e-05
2.28717e-05
8.47655e-05
2.26316e-05
8.53626e-05
2.23738e-05
8.59455e-05
2.21008e-05
8.65152e-05
2.18152e-05
8.70728e-05
2.1519e-05
8.76189e-05
2.12142e-05
8.81545e-05
2.09024e-05
8.86801e-05
2.05853e-05
8.91963e-05
2.0264e-05
8.97038e-05
1.994e-05
9.02029e-05
1.96141e-05
9.0694e-05
1.92874e-05
9.11777e-05
1.89607e-05
9.16542e-05
1.86348e-05
9.21239e-05
1.83102e-05
9.2587e-05
1.79876e-05
9.30438e-05
1.76675e-05
9.34944e-05
1.73502e-05
9.39392e-05
1.70362e-05
9.43783e-05
1.67259e-05
9.48119e-05
1.64194e-05
9.52401e-05
1.6117e-05
9.56631e-05
1.58189e-05
9.60809e-05
1.55254e-05
9.64938e-05
1.52364e-05
9.69018e-05
1.49522e-05
9.7305e-05
1.46728e-05
9.77036e-05
1.43983e-05
9.80975e-05
1.41288e-05
9.84869e-05
1.38641e-05
9.88718e-05
1.36045e-05
9.92524e-05
1.33498e-05
1.31001e-05
2.64972e-06
-3.83011e-05
9.73748e-06
-4.1044e-05
1.73746e-05
-3.64036e-05
2.39832e-05
-2.90758e-05
2.95614e-05
-2.17639e-05
3.42562e-05
-1.50743e-05
3.82431e-05
-9.14955e-06
4.16698e-05
-4.00297e-06
4.46529e-05
4.72821e-05
4.96264e-05
5.17387e-05
5.36598e-05
5.54215e-05
5.70489e-05
5.85619e-05
5.99765e-05
6.13058e-05
6.25605e-05
6.37497e-05
6.48807e-05
6.59601e-05
6.69932e-05
6.79848e-05
6.89388e-05
6.98588e-05
7.07479e-05
7.16086e-05
7.24435e-05
7.32545e-05
7.40435e-05
7.48121e-05
7.55618e-05
7.6294e-05
7.70096e-05
7.77098e-05
7.83955e-05
7.90676e-05
7.97267e-05
8.03735e-05
8.10087e-05
8.16328e-05
8.22463e-05
8.28496e-05
8.34431e-05
8.40273e-05
8.46023e-05
8.51687e-05
8.57265e-05
8.62762e-05
8.68179e-05
8.73518e-05
8.78782e-05
8.83972e-05
8.8909e-05
8.94137e-05
8.99116e-05
9.04028e-05
9.08873e-05
9.13654e-05
9.18371e-05
9.23026e-05
9.27619e-05
9.32153e-05
9.36626e-05
1.81214e-07
4.77776e-06
1.07113e-05
1.62467e-05
2.11073e-05
2.52939e-05
2.8909e-05
)
;

boundaryField
{
    inlet
    {
        type            calculated;
        value           nonuniform 0();
    }
    outlet
    {
        type            calculated;
        value           nonuniform 0();
    }
    wall
    {
        type            calculated;
        value           uniform 0;
    }
    wedge1
    {
        type            wedge;
        value           nonuniform List<scalar> 
344
(
-6.76743e-18
-2.26463e-17
-4.26101e-17
-1.0382e-16
-9.22681e-17
-7.54036e-16
4.80692e-15
-1.31532e-15
-1.33988e-15
-2.29464e-16
-7.33622e-16
4.69846e-15
-1.4255e-15
-1.61117e-15
-2.09122e-16
-5.99453e-16
3.93539e-15
-1.24876e-15
-1.47521e-15
-1.43142e-16
-4.54665e-16
3.06721e-15
-9.94659e-16
-1.20155e-15
-3.57318e-17
-2.87967e-16
2.16535e-15
-7.35762e-16
-9.16163e-16
8.96082e-17
-1.19078e-16
1.30783e-15
-4.95935e-16
-6.5213e-16
2.16959e-16
4.10986e-17
5.24438e-16
-2.81415e-16
-4.17984e-16
3.37956e-16
1.86855e-16
-1.72688e-16
-9.35915e-17
-2.14784e-16
4.48585e-16
3.16716e-16
-7.79879e-16
6.88186e-17
5.4737e-16
4.30619e-16
-1.30669e-15
2.08184e-16
6.34206e-16
5.29495e-16
-1.76004e-15
3.27279e-16
7.09661e-16
6.14668e-16
-2.14815e-15
4.28741e-16
7.74621e-16
6.87578e-16
-2.47903e-15
5.14963e-16
8.30083e-16
7.49626e-16
-2.76e-15
5.88053e-16
8.77039e-16
8.02109e-16
-2.99752e-15
6.49817e-16
9.1642e-16
8.46184e-16
-3.19724e-15
7.01806e-16
9.49086e-16
8.82881e-16
-3.36404e-15
7.4533e-16
9.75812e-16
9.13099e-16
-3.50212e-15
7.81509e-16
9.97293e-16
9.37632e-16
-3.6151e-15
8.11293e-16
1.01413e-15
9.57167e-16
-3.70613e-15
8.35506e-16
1.02688e-15
9.72309e-16
-3.77792e-15
8.54846e-16
1.03603e-15
9.83589e-16
-3.83283e-15
8.69921e-16
1.04198e-15
9.9147e-16
-3.87294e-15
8.81261e-16
1.04514e-15
9.96365e-16
-3.90003e-15
8.89322e-16
1.04582e-15
9.98632e-16
-3.9157e-15
8.94511e-16
1.04434e-15
9.98593e-16
-3.92134e-15
8.97176e-16
1.04095e-15
9.96527e-16
-3.91819e-15
8.9763e-16
1.03589e-15
9.9269e-16
-3.90734e-15
8.96146e-16
1.02937e-15
9.87301e-16
-3.88975e-15
8.92968e-16
1.02158e-15
9.80561e-16
-3.86628e-15
8.88309e-16
1.01269e-15
9.72645e-16
-3.83769e-15
8.82363e-16
1.00284e-15
9.63712e-16
-3.80467e-15
8.75296e-16
9.92174e-16
9.53902e-16
-3.76781e-15
8.67262e-16
9.80806e-16
9.4334e-16
-3.72767e-15
8.58394e-16
9.68845e-16
9.32138e-16
-3.68471e-15
8.48813e-16
9.56386e-16
9.20398e-16
-3.63937e-15
8.38624e-16
9.43512e-16
9.08207e-16
-3.59204e-15
8.27925e-16
9.30301e-16
8.95646e-16
-3.54305e-15
8.16798e-16
9.16821e-16
8.82784e-16
-3.4927e-15
8.05321e-16
9.03133e-16
8.69687e-16
-3.44128e-15
7.93561e-16
8.8929e-16
8.5641e-16
-3.38902e-15
7.81578e-16
8.7534e-16
8.43004e-16
-3.33613e-15
7.69426e-16
8.61326e-16
8.29514e-16
-3.28282e-15
7.57152e-16
8.47287e-16
8.15978e-16
-3.22924e-15
7.44798e-16
8.33255e-16
8.02433e-16
-3.17556e-15
7.32402e-16
8.1926e-16
7.88909e-16
-3.1219e-15
7.19998e-16
8.05328e-16
7.75433e-16
-3.06838e-15
7.07613e-16
7.91483e-16
7.62031e-16
-3.0151e-15
6.95275e-16
7.77744e-16
7.48722e-16
-2.96216e-15
6.83006e-16
7.6413e-16
7.35526e-16
-2.90963e-15
6.70826e-16
7.50654e-16
7.22458e-16
-2.85759e-15
6.58751e-16
7.37332e-16
7.09533e-16
-2.8061e-15
6.46798e-16
7.24173e-16
6.96762e-16
-2.7552e-15
6.34979e-16
7.11188e-16
6.84156e-16
-2.70494e-15
6.23305e-16
6.98385e-16
6.71724e-16
-2.65536e-15
6.11785e-16
6.8577e-16
6.59473e-16
-2.60649e-15
6.00429e-16
6.73349e-16
6.47407e-16
-2.55836e-15
5.89242e-16
6.61127e-16
6.35534e-16
-2.51099e-15
5.7823e-16
6.49107e-16
6.23856e-16
-2.46439e-15
5.67398e-16
6.37292e-16
6.12377e-16
-2.41858e-15
5.56748e-16
6.25684e-16
6.01099e-16
-2.37357e-15
5.46284e-16
6.14284e-16
5.90022e-16
-2.32937e-15
5.36008e-16
6.03092e-16
5.79149e-16
-2.28598e-15
5.25921e-16
5.92109e-16
5.68479e-16
-2.24341e-15
5.16022e-16
5.81334e-16
5.58012e-16
-2.20164e-15
5.06314e-16
-2.16069e-15
4.96794e-16
-2.84157e-16
-1.81778e-16
-1.26269e-16
-1.06608e-16
-1.0562e-16
-1.15241e-16
-1.30141e-16
-1.47138e-16
-1.64318e-16
-1.80655e-16
-1.95616e-16
-2.09018e-16
-2.20799e-16
-2.30986e-16
-2.39648e-16
-2.46916e-16
-2.52916e-16
-2.57763e-16
-2.61556e-16
-2.64418e-16
-2.66454e-16
-2.67744e-16
-2.68376e-16
-2.68417e-16
-2.67938e-16
-2.67012e-16
-2.65685e-16
-2.63998e-16
-2.62001e-16
-2.59744e-16
-2.57254e-16
-2.54558e-16
-2.51689e-16
-2.4868e-16
-2.45548e-16
-2.42308e-16
-2.38985e-16
-2.35603e-16
-2.32166e-16
-2.28688e-16
-2.25181e-16
-2.21661e-16
-2.18134e-16
-2.14605e-16
-2.11084e-16
-2.0758e-16
-2.04096e-16
-2.00638e-16
-1.97209e-16
-1.93814e-16
-1.90456e-16
-1.87138e-16
-1.83862e-16
-1.80631e-16
-1.77448e-16
-1.7431e-16
-1.71222e-16
-1.68185e-16
-1.65196e-16
-1.62257e-16
-1.18293e-15
-1.59372e-16
-1.16271e-15
-1.56539e-16
-1.14284e-15
-1.53755e-16
-1.12334e-15
-1.51022e-16
-1.1042e-15
-1.48342e-16
)
;
    }
    wedge2
    {
        type            wedge;
        value           nonuniform List<scalar> 
344
(
-7.28328e-18
-2.30556e-17
-4.30665e-17
-1.04265e-16
-2.84742e-16
-1.82514e-16
-1.27149e-16
-1.07552e-16
-1.06595e-16
-1.16247e-16
-1.31227e-16
-1.48252e-16
-1.65443e-16
-1.81792e-16
-1.96811e-16
-2.10236e-16
-2.22018e-16
-2.32199e-16
-2.40888e-16
-2.48172e-16
-2.54169e-16
-2.59004e-16
-2.62808e-16
-2.65675e-16
-2.67698e-16
-2.68979e-16
-2.69598e-16
-2.69638e-16
-2.6916e-16
-2.68218e-16
-2.6687e-16
-2.65177e-16
-2.63177e-16
-2.60898e-16
-2.58389e-16
-2.55684e-16
-2.52807e-16
-2.49777e-16
-2.46625e-16
-2.43376e-16
-2.40042e-16
-2.36634e-16
-2.33176e-16
-2.29682e-16
-2.26159e-16
-2.22618e-16
-2.1907e-16
-2.15524e-16
-2.11988e-16
-2.08464e-16
-2.04961e-16
-2.01484e-16
-1.98037e-16
-1.94624e-16
-1.91248e-16
-1.87913e-16
-1.8462e-16
-1.81371e-16
-1.78168e-16
-1.75013e-16
-1.71907e-16
-1.6885e-16
-1.65846e-16
-1.62893e-16
-1.18356e-15
-1.59989e-16
-1.16331e-15
-1.57136e-16
-1.14343e-15
-1.54338e-16
-1.12391e-15
-1.51591e-16
-1.10475e-15
-1.48896e-16
-9.23819e-17
-7.54105e-16
4.80687e-15
-1.31536e-15
-1.3399e-15
-2.29635e-16
-7.33759e-16
4.69835e-15
-1.42559e-15
-1.61123e-15
-2.09344e-16
-5.99636e-16
3.93524e-15
-1.24888e-15
-1.4753e-15
-1.43389e-16
-4.54876e-16
3.06704e-15
-9.94808e-16
-1.20167e-15
-3.5995e-17
-2.88198e-16
2.16516e-15
-7.3593e-16
-9.16308e-16
8.93287e-17
-1.19325e-16
1.30761e-15
-4.96125e-16
-6.52294e-16
2.16655e-16
4.08315e-17
5.24203e-16
-2.81619e-16
-4.18158e-16
3.37641e-16
1.86573e-16
-1.72939e-16
-9.38151e-17
-2.14982e-16
4.48261e-16
3.1642e-16
-7.80143e-16
6.8583e-17
5.47035e-16
4.30315e-16
-1.30697e-15
2.07934e-16
6.33853e-16
5.29176e-16
-1.76033e-15
3.2702e-16
7.09301e-16
6.1434e-16
-2.14845e-15
4.28471e-16
7.74259e-16
6.87243e-16
-2.47933e-15
5.14686e-16
8.29717e-16
7.49288e-16
-2.76031e-15
5.87767e-16
8.76663e-16
8.01763e-16
-2.99784e-15
6.49527e-16
9.1604e-16
8.45833e-16
-3.19757e-15
7.01507e-16
9.48706e-16
8.82523e-16
-3.36437e-15
7.45025e-16
9.75431e-16
9.1274e-16
-3.50245e-15
7.81197e-16
9.96905e-16
9.37269e-16
-3.61544e-15
8.10981e-16
1.01375e-15
9.56802e-16
-3.70647e-15
8.35188e-16
1.0265e-15
9.71944e-16
-3.77826e-15
8.54526e-16
1.03564e-15
9.83224e-16
-3.83318e-15
8.69601e-16
1.0416e-15
9.91108e-16
-3.87328e-15
8.8094e-16
1.04475e-15
9.96002e-16
-3.90037e-15
8.89003e-16
1.04544e-15
9.98271e-16
-3.91604e-15
8.9419e-16
1.04396e-15
9.98231e-16
-3.92168e-15
8.96856e-16
1.04057e-15
9.9617e-16
-3.91853e-15
8.97311e-16
1.03551e-15
9.92334e-16
-3.90768e-15
8.95829e-16
1.029e-15
9.86948e-16
-3.89008e-15
8.92652e-16
1.02121e-15
9.8021e-16
-3.86661e-15
8.87996e-16
1.01232e-15
9.72299e-16
-3.83802e-15
8.82051e-16
1.00248e-15
9.63368e-16
-3.80499e-15
8.74988e-16
9.91818e-16
9.53561e-16
-3.76814e-15
8.66956e-16
9.80455e-16
9.43004e-16
-3.72799e-15
8.58091e-16
9.68498e-16
9.31807e-16
-3.68503e-15
8.48512e-16
9.56042e-16
9.2007e-16
-3.63969e-15
8.38328e-16
9.43174e-16
9.07883e-16
-3.59235e-15
8.27631e-16
9.29969e-16
8.95326e-16
-3.54335e-15
8.16509e-16
9.16495e-16
8.8247e-16
-3.493e-15
8.05035e-16
9.02811e-16
8.69378e-16
-3.44157e-15
7.93279e-16
8.88974e-16
8.56106e-16
-3.38931e-15
7.813e-16
8.7503e-16
8.42705e-16
-3.33642e-15
7.69152e-16
8.61022e-16
8.2922e-16
-3.2831e-15
7.56882e-16
8.46988e-16
8.15689e-16
-3.22952e-15
7.44532e-16
8.32961e-16
8.02149e-16
-3.17583e-15
7.32141e-16
8.18972e-16
7.8863e-16
-3.12217e-15
7.1974e-16
8.05046e-16
7.7516e-16
-3.06864e-15
7.0736e-16
7.91206e-16
7.61762e-16
-3.01536e-15
6.95026e-16
7.77473e-16
7.48459e-16
-2.96241e-15
6.82762e-16
7.63864e-16
7.35268e-16
-2.90988e-15
6.70586e-16
7.50394e-16
7.22205e-16
-2.85784e-15
6.58516e-16
7.37077e-16
7.09285e-16
-2.80634e-15
6.46567e-16
7.23924e-16
6.9652e-16
-2.75543e-15
6.34752e-16
7.10944e-16
6.83919e-16
-2.70517e-15
6.23082e-16
6.98146e-16
6.71492e-16
-2.65558e-15
6.11567e-16
6.85537e-16
6.59245e-16
-2.60671e-15
6.00215e-16
6.73122e-16
6.47185e-16
-2.55857e-15
5.89033e-16
6.60905e-16
6.35317e-16
-2.5112e-15
5.78025e-16
6.4889e-16
6.23645e-16
-2.4646e-15
5.67197e-16
6.37081e-16
6.1217e-16
-2.41878e-15
5.56552e-16
6.25478e-16
6.00897e-16
-2.37377e-15
5.46092e-16
6.14083e-16
5.89825e-16
-2.32957e-15
5.3582e-16
6.02896e-16
5.78957e-16
-2.28617e-15
5.25737e-16
5.91918e-16
5.68291e-16
-2.24359e-15
5.15843e-16
5.81147e-16
5.57828e-16
-2.20182e-15
5.06138e-16
-2.16086e-15
4.96622e-16
)
;
    }
    axis
    {
        type            empty;
        value           nonuniform 0();
    }
    procBoundary21to15
    {
        type            processor;
        value           nonuniform List<scalar> 
70
(
6.01823e-06
6.08041e-07
-4.10844e-06
-1.36957e-05
-1.52742e-05
-1.50192e-05
-1.47688e-05
-1.4523e-05
-1.42817e-05
-2.77102e-05
-2.31109e-05
-1.97938e-05
-1.80466e-05
-1.7359e-05
-1.75185e-05
-1.82076e-05
-1.91638e-05
-2.02179e-05
-2.12704e-05
-2.22639e-05
-2.31672e-05
-2.39656e-05
-2.46548e-05
-2.52364e-05
-2.57155e-05
-2.6099e-05
-2.63947e-05
-2.66103e-05
-2.67537e-05
-2.68321e-05
-2.68525e-05
-2.68211e-05
-2.67438e-05
-2.66258e-05
-2.6472e-05
-2.62868e-05
-2.60741e-05
-2.58375e-05
-2.55801e-05
-2.53048e-05
-2.50143e-05
-2.47109e-05
-2.43967e-05
-2.40736e-05
-2.37432e-05
-2.3407e-05
-2.30664e-05
-2.27227e-05
-2.23768e-05
-2.20297e-05
-2.16824e-05
-2.13354e-05
-2.09896e-05
-2.06455e-05
-2.03036e-05
-1.99643e-05
-1.96281e-05
-1.92953e-05
-1.89662e-05
-1.86411e-05
-1.83202e-05
-1.80036e-05
-1.76916e-05
-1.73842e-05
-1.70816e-05
-1.67838e-05
-1.64909e-05
-1.6203e-05
-0.000390778
-1.592e-05
)
;
    }
    procBoundary21to16
    {
        type            processor;
        value           nonuniform List<scalar> 2(0.000389115 0.000348737);
    }
    procBoundary21to20
    {
        type            processor;
        value           uniform -0.000151375;
    }
    procBoundary21to22
    {
        type            processor;
        value           nonuniform List<scalar> 5(0.00011022 0.000104781 -1.34763e-05 9.96286e-05 9.41042e-05);
    }
    procBoundary21to27
    {
        type            processor;
        value           nonuniform List<scalar> 
67
(
4.22135e-07
4.20388e-06
7.42461e-06
1.01616e-05
1.24835e-05
1.44497e-05
1.61104e-05
1.75083e-05
1.86794e-05
1.96541e-05
2.04582e-05
2.11138e-05
2.16398e-05
2.20525e-05
2.2366e-05
2.25924e-05
2.27426e-05
2.2826e-05
2.28507e-05
2.28241e-05
2.27525e-05
2.26418e-05
2.24968e-05
2.23222e-05
2.21219e-05
2.18995e-05
2.16581e-05
2.14006e-05
2.11295e-05
2.0847e-05
2.05551e-05
2.02556e-05
1.99501e-05
1.964e-05
1.93265e-05
1.90108e-05
1.86939e-05
1.83766e-05
1.80597e-05
1.77439e-05
1.74297e-05
1.71178e-05
1.68085e-05
1.65023e-05
1.61995e-05
1.59004e-05
1.56052e-05
1.53142e-05
1.50275e-05
1.47453e-05
1.44677e-05
1.41948e-05
1.39266e-05
1.36633e-05
1.34048e-05
1.31512e-05
1.29024e-05
1.26585e-05
-3.84824e-05
-4.56405e-05
-4.23371e-05
-3.46111e-05
-2.66245e-05
-1.92609e-05
-1.27647e-05
3.20604e-05
-7.15432e-06
)
;
    }
}


// ************************************************************************* //
