/*--------------------------------*- C++ -*----------------------------------*\
  =========                 |
  \\      /  F ield         | OpenFOAM: The Open Source CFD Toolbox
   \\    /   O peration     | Website:  https://openfoam.org
    \\  /    A nd           | Version:  7
     \\/     M anipulation  |
\*---------------------------------------------------------------------------*/
FoamFile
{
    version     2.0;
    format      ascii;
    class       volScalarField;
    location    "2";
    object      p;
}
// * * * * * * * * * * * * * * * * * * * * * * * * * * * * * * * * * * * * * //

dimensions      [0 2 -2 0 0 0 0];

internalField   nonuniform List<scalar> 
5600
(
-0.357223
-0.368101
-0.36001
-0.347058
-0.32602
-0.298058
-0.263625
-0.222927
-0.180984
-0.133387
-0.35871
-0.369145
-0.361003
-0.348017
-0.327054
-0.299223
-0.264971
-0.224417
-0.182743
-0.134712
-0.361658
-0.371215
-0.362969
-0.349913
-0.329093
-0.301514
-0.267614
-0.227337
-0.186186
-0.137312
-0.366019
-0.374278
-0.365872
-0.352701
-0.332081
-0.304855
-0.271465
-0.231572
-0.191168
-0.141087
-0.371722
-0.378286
-0.369656
-0.356319
-0.335939
-0.309148
-0.276388
-0.236963
-0.197486
-0.145899
-0.378678
-0.383177
-0.374257
-0.360691
-0.340569
-0.314269
-0.28222
-0.243314
-0.20489
-0.151577
-0.386786
-0.388883
-0.379599
-0.365731
-0.345866
-0.320078
-0.288784
-0.250412
-0.213101
-0.157929
-0.395932
-0.395329
-0.385601
-0.371348
-0.351714
-0.326428
-0.295889
-0.258033
-0.22183
-0.164751
-0.405999
-0.402438
-0.39218
-0.377452
-0.358001
-0.333179
-0.303351
-0.26596
-0.230791
-0.171838
-0.41687
-0.410124
-0.399263
-0.383959
-0.364624
-0.340197
-0.310993
-0.27399
-0.239714
-0.178996
-0.428432
-0.41832
-0.406772
-0.39079
-0.371487
-0.34736
-0.318657
-0.281944
-0.248359
-0.186041
-0.440569
-0.42696
-0.41464
-0.39788
-0.378508
-0.354566
-0.326204
-0.289665
-0.256515
-0.192814
-0.453184
-0.435977
-0.422812
-0.405172
-0.385621
-0.361728
-0.33352
-0.297027
-0.264008
-0.199174
-0.466186
-0.445316
-0.43124
-0.412623
-0.392773
-0.368776
-0.34051
-0.303931
-0.270697
-0.205012
-0.479495
-0.454926
-0.439884
-0.420199
-0.399921
-0.375656
-0.347099
-0.310301
-0.276479
-0.210262
-0.49304
-0.464766
-0.448712
-0.427871
-0.407032
-0.382321
-0.353229
-0.316085
-0.281273
-0.214888
-0.506756
-0.474798
-0.457695
-0.435619
-0.414079
-0.388732
-0.358857
-0.32125
-0.284975
-0.218747
-0.520588
-0.484985
-0.46681
-0.44342
-0.421035
-0.394855
-0.363955
-0.325786
-0.287417
-0.221594
-0.534482
-0.495294
-0.47603
-0.451253
-0.427871
-0.400651
-0.368514
-0.329703
-0.288569
-0.224207
-0.548384
-0.505688
-0.485326
-0.459088
-0.434552
-0.406081
-0.372517
-0.332979
-0.289013
-0.230619
-0.562241
-0.516128
-0.494664
-0.46689
-0.441035
-0.411094
-0.37593
-0.335491
-0.289548
-0.24492
-0.575993
-0.52657
-0.504001
-0.474612
-0.447266
-0.415635
-0.378703
-0.33714
-0.289446
-0.25
-0.589574
-0.53696
-0.513284
-0.482196
-0.453179
-0.419641
-0.380789
-0.337874
-0.288727
-0.251115
-0.602909
-0.547237
-0.52245
-0.489573
-0.458699
-0.423047
-0.382142
-0.337703
-0.287415
-0.250243
-0.61591
-0.55733
-0.531422
-0.496658
-0.463741
-0.425782
-0.382718
-0.336648
-0.285462
-0.247955
-0.628482
-0.567156
-0.54011
-0.503355
-0.468211
-0.427772
-0.382472
-0.334729
-0.282837
-0.244618
-0.640513
-0.576622
-0.548412
-0.509559
-0.472006
-0.428944
-0.381365
-0.33196
-0.279527
-0.240475
-0.651881
-0.585621
-0.556214
-0.51515
-0.475019
-0.429222
-0.379358
-0.328352
-0.275527
-0.235668
-0.662454
-0.594038
-0.563389
-0.520003
-0.477143
-0.428533
-0.376418
-0.323912
-0.270836
-0.230272
-0.672087
-0.601745
-0.569802
-0.523987
-0.478266
-0.426808
-0.372512
-0.318641
-0.26545
-0.224322
-0.680625
-0.608606
-0.575309
-0.526965
-0.47828
-0.423981
-0.367613
-0.31254
-0.25937
-0.21783
-0.687908
-0.614477
-0.579759
-0.528801
-0.477081
-0.419993
-0.361698
-0.305606
-0.252592
-0.210794
-0.693768
-0.619207
-0.582997
-0.529357
-0.474572
-0.41479
-0.354745
-0.297835
-0.245113
-0.203207
-0.698034
-0.62264
-0.584868
-0.528501
-0.47066
-0.408325
-0.346737
-0.289224
-0.236931
-0.195059
-0.700535
-0.624618
-0.585216
-0.526106
-0.465265
-0.400561
-0.337663
-0.279769
-0.228043
-0.18634
-0.7011
-0.624983
-0.583889
-0.522055
-0.458315
-0.391467
-0.327514
-0.269468
-0.218448
-0.177043
-0.699561
-0.623578
-0.580742
-0.516239
-0.449751
-0.381019
-0.316284
-0.258321
-0.208144
-0.167164
-0.695759
-0.62025
-0.575637
-0.508563
-0.439525
-0.369204
-0.303975
-0.246328
-0.197135
-0.1567
-0.689542
-0.614857
-0.568451
-0.498947
-0.427603
-0.356015
-0.29059
-0.233496
-0.185424
-0.145653
-0.680771
-0.607262
-0.55907
-0.487324
-0.413961
-0.341455
-0.276138
-0.219831
-0.173019
-0.134033
-0.66932
-0.597342
-0.547401
-0.473645
-0.398591
-0.325534
-0.260635
-0.205346
-0.159931
-0.121849
-0.655081
-0.584991
-0.533367
-0.457878
-0.381496
-0.308271
-0.2441
-0.190056
-0.146173
-0.109112
-0.637965
-0.570117
-0.51691
-0.44001
-0.362695
-0.289693
-0.226558
-0.173981
-0.131759
-0.0958077
-0.617903
-0.552649
-0.497993
-0.420044
-0.342216
-0.269835
-0.20804
-0.157145
-0.116717
-0.0819256
-0.594848
-0.532536
-0.476604
-0.398003
-0.320103
-0.24874
-0.188581
-0.139577
-0.101087
-0.0676136
-0.568781
-0.509751
-0.452751
-0.373927
-0.296408
-0.22646
-0.168223
-0.121309
-0.0848445
-0.0528799
-0.539704
-0.48429
-0.426466
-0.347873
-0.271199
-0.203053
-0.147017
-0.102397
-0.0680506
-0.0377078
-0.507649
-0.456175
-0.397803
-0.319918
-0.244554
-0.178585
-0.125019
-0.0828689
-0.0507555
-0.022134
-0.472673
-0.425451
-0.366836
-0.290157
-0.216561
-0.153135
-0.102284
-0.0627747
-0.0329988
-0.00619983
-0.434861
-0.392192
-0.333671
-0.258694
-0.187317
-0.126781
-0.0788821
-0.0421692
-0.0148246
0.0100503
-0.394327
-0.356503
-0.298471
-0.225608
-0.156928
-0.099612
-0.0548835
-0.0211114
0.00371843
0.0265678
-0.351211
-0.318514
-0.261414
-0.191001
-0.125508
-0.0717241
-0.0303663
0.000335351
0.0225779
0.043299
-0.305679
-0.278373
-0.222339
-0.155285
-0.0931923
-0.0432181
-0.00541303
0.0221031
0.0416981
0.0601834
-0.257915
-0.236256
-0.181725
-0.118388
-0.0601104
-0.0142018
0.0198886
0.0441199
0.061019
0.077151
-0.208119
-0.19234
-0.13976
-0.0805036
-0.0264039
0.0152127
0.0454466
0.0663098
0.0804773
0.0941245
-0.156583
-0.146836
-0.0966056
-0.0418257
0.00778053
0.0449087
0.0711646
0.0885941
0.100012
0.111022
-0.10356
-0.0999801
-0.0524792
-0.00254375
0.0422922
0.0747652
0.0969428
0.110896
0.119575
0.127724
-0.0493052
-0.0520384
-0.00761645
0.0371484
0.0769762
0.104658
0.122679
0.133146
0.139121
0.143996
0.00588285
-0.0032772
0.0377414
0.0770514
0.111674
0.134459
0.148269
0.155273
0.158527
0.15951
0.0616907
0.0460257
0.0833463
0.116962
0.146225
0.16404
0.173615
0.177185
0.177503
0.173999
0.117795
0.0955814
0.128945
0.156676
0.180467
0.193272
0.198616
0.198758
0.195671
0.188
0.173864
0.145093
0.174279
0.195986
0.214236
0.222028
0.223167
0.219889
0.213807
0.203711
0.22956
0.194261
0.219092
0.234686
0.247372
0.250177
0.24716
0.240469
0.231502
0.219356
0.284539
0.242779
0.263125
0.272573
0.279713
0.277592
0.27049
0.260426
0.248626
0.234565
0.338461
0.290346
0.306124
0.309443
0.3111
0.304147
0.293055
0.279687
0.265139
0.249215
0.390983
0.336659
0.347836
0.345101
0.341381
0.329721
0.314755
0.298179
0.280985
0.263233
0.44177
0.381425
0.388018
0.379354
0.370404
0.354194
0.335495
0.315826
0.296101
0.276565
0.490495
0.424354
0.426432
0.412017
0.398024
0.377451
0.355182
0.332555
0.310427
0.289157
0.536839
0.46517
0.46285
0.442912
0.424103
0.399383
0.373728
0.348298
0.323903
0.300964
0.580499
0.503605
0.497057
0.471871
0.448509
0.419885
0.39105
0.362987
0.336474
0.311942
0.621185
0.53941
0.528847
0.498736
0.471117
0.438859
0.407067
0.37656
0.348088
0.322055
0.658628
0.572347
0.55803
0.523358
0.491813
0.456212
0.421706
0.388957
0.358694
0.331266
0.692576
0.6022
0.584433
0.545601
0.510489
0.471861
0.434899
0.400124
0.368246
0.339543
0.722801
0.628771
0.607894
0.565343
0.52705
0.485728
0.446584
0.410009
0.376701
0.346855
0.749101
0.651884
0.628274
0.582474
0.541409
0.497746
0.456706
0.418569
0.384022
0.353176
0.771296
0.671386
0.645449
0.596898
0.553491
0.507853
0.465216
0.425764
0.390176
0.358482
0.789236
0.687145
0.659316
0.608536
0.563234
0.516001
0.472074
0.431561
0.395134
0.362752
0.802799
0.699058
0.66979
0.617321
0.570586
0.522147
0.477247
0.435932
0.398872
0.365969
0.811892
0.707045
0.676808
0.623206
0.575509
0.526262
0.480709
0.438858
0.401375
0.368121
0.816455
0.711051
0.680328
0.626156
0.577977
0.528325
0.482445
0.440324
0.402629
0.369199
0.816455
0.711051
0.680328
0.626156
0.577977
0.528325
0.482445
0.440324
0.402629
0.369199
0.811892
0.707045
0.676808
0.623206
0.575509
0.526262
0.480709
0.438858
0.401375
0.368121
0.802799
0.699058
0.66979
0.617321
0.570586
0.522147
0.477247
0.435932
0.398872
0.365969
0.789236
0.687146
0.659316
0.608536
0.563234
0.516001
0.472074
0.431561
0.395134
0.362752
0.771296
0.671386
0.645449
0.596898
0.553491
0.507853
0.465216
0.425764
0.390176
0.358482
0.749101
0.651884
0.628274
0.582474
0.541409
0.497746
0.456706
0.418569
0.384022
0.353176
0.722802
0.628771
0.607894
0.565343
0.52705
0.485728
0.446584
0.410009
0.376701
0.346855
0.692576
0.6022
0.584433
0.545601
0.510489
0.471861
0.434899
0.400124
0.368246
0.339543
0.658628
0.572347
0.55803
0.523358
0.491813
0.456212
0.421706
0.388957
0.358694
0.331266
0.621185
0.53941
0.528847
0.498736
0.471117
0.438859
0.407067
0.37656
0.348088
0.322055
0.580499
0.503606
0.497057
0.471871
0.448509
0.419885
0.39105
0.362987
0.336474
0.311942
0.536839
0.46517
0.46285
0.442912
0.424103
0.399383
0.373728
0.348298
0.323903
0.300964
0.490495
0.424354
0.426432
0.412017
0.398024
0.377451
0.355182
0.332555
0.310427
0.289157
0.44177
0.381425
0.388018
0.379354
0.370404
0.354194
0.335495
0.315826
0.296101
0.276565
0.390983
0.336659
0.347836
0.345101
0.341381
0.329721
0.314755
0.298179
0.280985
0.263233
0.338461
0.290346
0.306124
0.309443
0.3111
0.304147
0.293055
0.279687
0.265139
0.249215
0.284539
0.242779
0.263125
0.272573
0.279713
0.277592
0.27049
0.260426
0.248626
0.234565
0.22956
0.194261
0.219092
0.234686
0.247372
0.250177
0.24716
0.240469
0.231502
0.219356
0.173864
0.145093
0.174279
0.195986
0.214236
0.222028
0.223167
0.219889
0.213807
0.203711
0.117795
0.0955814
0.128945
0.156676
0.180467
0.193272
0.198616
0.198758
0.195671
0.188
0.0616907
0.0460257
0.0833464
0.116962
0.146225
0.16404
0.173615
0.177185
0.177503
0.173999
0.0058829
-0.00327716
0.0377415
0.0770515
0.111674
0.134459
0.148269
0.155273
0.158527
0.15951
-0.0493052
-0.0520384
-0.00761642
0.0371484
0.0769762
0.104658
0.122679
0.133146
0.139121
0.143996
-0.10356
-0.0999801
-0.0524792
-0.00254373
0.0422922
0.0747652
0.0969428
0.110896
0.119575
0.127724
-0.156583
-0.146836
-0.0966056
-0.0418256
0.00778055
0.0449087
0.0711646
0.0885941
0.100012
0.111022
-0.208119
-0.19234
-0.13976
-0.0805035
-0.0264039
0.0152128
0.0454466
0.0663098
0.0804773
0.0941245
-0.257915
-0.236256
-0.181725
-0.118388
-0.0601104
-0.0142017
0.0198886
0.0441199
0.061019
0.077151
-0.305679
-0.278373
-0.222339
-0.155285
-0.0931923
-0.0432181
-0.00541302
0.0221031
0.0416981
0.0601834
-0.35121
-0.318514
-0.261414
-0.191001
-0.125508
-0.0717241
-0.0303663
0.000335355
0.0225779
0.043299
-0.394327
-0.356503
-0.298471
-0.225608
-0.156928
-0.099612
-0.0548835
-0.0211114
0.00371843
0.0265678
-0.434861
-0.392192
-0.333671
-0.258693
-0.187317
-0.126781
-0.0788821
-0.0421692
-0.0148246
0.0100503
-0.472672
-0.425451
-0.366836
-0.290157
-0.216561
-0.153135
-0.102284
-0.0627747
-0.0329988
-0.00619983
-0.507648
-0.456175
-0.397803
-0.319918
-0.244554
-0.178585
-0.125019
-0.0828689
-0.0507555
-0.022134
-0.539704
-0.48429
-0.426466
-0.347873
-0.271199
-0.203053
-0.147017
-0.102397
-0.0680506
-0.0377078
-0.568781
-0.509751
-0.452751
-0.373927
-0.296408
-0.22646
-0.168223
-0.121309
-0.0848445
-0.0528799
-0.594848
-0.532536
-0.476604
-0.398003
-0.320103
-0.24874
-0.188581
-0.139577
-0.101087
-0.0676136
-0.617903
-0.552649
-0.497993
-0.420044
-0.342216
-0.269835
-0.20804
-0.157145
-0.116717
-0.0819256
-0.637965
-0.570117
-0.516909
-0.44001
-0.362695
-0.289692
-0.226558
-0.173981
-0.131759
-0.0958077
-0.655081
-0.584991
-0.533367
-0.457878
-0.381496
-0.308271
-0.2441
-0.190056
-0.146173
-0.109112
-0.66932
-0.597342
-0.547401
-0.473645
-0.398591
-0.325534
-0.260635
-0.205346
-0.159931
-0.121849
-0.680771
-0.607262
-0.55907
-0.487324
-0.413961
-0.341455
-0.276138
-0.219831
-0.173019
-0.134033
-0.689542
-0.614857
-0.568451
-0.498947
-0.427603
-0.356015
-0.29059
-0.233496
-0.185424
-0.145653
-0.695759
-0.62025
-0.575637
-0.508563
-0.439525
-0.369204
-0.303975
-0.246328
-0.197135
-0.1567
-0.699561
-0.623577
-0.580742
-0.516239
-0.449751
-0.381019
-0.316284
-0.258321
-0.208144
-0.167164
-0.7011
-0.624983
-0.583889
-0.522055
-0.458315
-0.391467
-0.327514
-0.269468
-0.218447
-0.177043
-0.700535
-0.624618
-0.585216
-0.526106
-0.465265
-0.400561
-0.337663
-0.279769
-0.228043
-0.18634
-0.698034
-0.62264
-0.584868
-0.528501
-0.47066
-0.408325
-0.346737
-0.289224
-0.236931
-0.195059
-0.693768
-0.619207
-0.582997
-0.529357
-0.474572
-0.41479
-0.354744
-0.297835
-0.245113
-0.203207
-0.687908
-0.614477
-0.579759
-0.528801
-0.477081
-0.419993
-0.361698
-0.305606
-0.252592
-0.210794
-0.680625
-0.608606
-0.575309
-0.526965
-0.47828
-0.423981
-0.367613
-0.31254
-0.25937
-0.21783
-0.672087
-0.601745
-0.569802
-0.523987
-0.478266
-0.426808
-0.372512
-0.318641
-0.26545
-0.224322
-0.662454
-0.594038
-0.563389
-0.520003
-0.477143
-0.428533
-0.376418
-0.323912
-0.270836
-0.230272
-0.651881
-0.585621
-0.556213
-0.51515
-0.475019
-0.429222
-0.379358
-0.328352
-0.275527
-0.235668
-0.640513
-0.576622
-0.548412
-0.509558
-0.472005
-0.428944
-0.381365
-0.33196
-0.279527
-0.240475
-0.628482
-0.567156
-0.54011
-0.503355
-0.468211
-0.427772
-0.382472
-0.334729
-0.282837
-0.244618
-0.61591
-0.55733
-0.531422
-0.496658
-0.463741
-0.425782
-0.382718
-0.336648
-0.285462
-0.247955
-0.602909
-0.547237
-0.52245
-0.489573
-0.458699
-0.423047
-0.382142
-0.337703
-0.287415
-0.250243
-0.589574
-0.53696
-0.513284
-0.482196
-0.453179
-0.419641
-0.380789
-0.337874
-0.288727
-0.251115
-0.575993
-0.526569
-0.504001
-0.474612
-0.447266
-0.415635
-0.378703
-0.33714
-0.289446
-0.25
-0.562241
-0.516128
-0.494664
-0.46689
-0.441035
-0.411094
-0.37593
-0.335491
-0.289548
-0.24492
-0.548384
-0.505688
-0.485326
-0.459088
-0.434552
-0.406081
-0.372517
-0.332979
-0.289013
-0.230619
-0.534482
-0.495294
-0.47603
-0.451252
-0.427871
-0.400651
-0.368514
-0.329703
-0.288569
-0.224207
-0.520588
-0.484985
-0.46681
-0.44342
-0.421035
-0.394855
-0.363955
-0.325786
-0.287417
-0.221594
-0.506756
-0.474798
-0.457695
-0.435619
-0.414079
-0.388732
-0.358857
-0.32125
-0.284975
-0.218747
-0.49304
-0.464766
-0.448712
-0.427871
-0.407032
-0.382321
-0.353229
-0.316085
-0.281273
-0.214888
-0.479495
-0.454926
-0.439884
-0.420199
-0.399921
-0.375656
-0.347099
-0.310301
-0.276479
-0.210262
-0.466186
-0.445315
-0.43124
-0.412623
-0.392773
-0.368776
-0.34051
-0.303931
-0.270697
-0.205011
-0.453184
-0.435977
-0.422812
-0.405172
-0.385621
-0.361728
-0.33352
-0.297027
-0.264007
-0.199174
-0.440569
-0.42696
-0.41464
-0.39788
-0.378508
-0.354566
-0.326204
-0.289665
-0.256515
-0.192814
-0.428432
-0.41832
-0.406772
-0.39079
-0.371487
-0.34736
-0.318657
-0.281944
-0.248359
-0.186041
-0.41687
-0.410124
-0.399263
-0.383959
-0.364624
-0.340197
-0.310993
-0.27399
-0.239714
-0.178996
-0.405999
-0.402438
-0.392179
-0.377452
-0.358001
-0.333179
-0.303351
-0.26596
-0.230791
-0.171838
-0.395932
-0.395329
-0.3856
-0.371348
-0.351714
-0.326428
-0.295889
-0.258033
-0.22183
-0.164751
-0.386786
-0.388883
-0.379599
-0.365731
-0.345865
-0.320077
-0.288784
-0.250412
-0.213101
-0.157929
-0.378678
-0.383177
-0.374257
-0.360691
-0.340569
-0.314269
-0.28222
-0.243314
-0.20489
-0.151577
-0.371722
-0.378286
-0.369656
-0.356319
-0.335939
-0.309148
-0.276388
-0.236963
-0.197486
-0.145899
-0.366019
-0.374278
-0.365872
-0.352701
-0.332081
-0.304855
-0.271465
-0.231572
-0.191168
-0.141087
-0.361658
-0.371215
-0.362969
-0.349913
-0.329093
-0.301514
-0.267614
-0.227337
-0.186186
-0.137312
-0.35871
-0.369145
-0.361003
-0.348017
-0.327054
-0.299223
-0.264971
-0.224417
-0.182743
-0.134712
-0.357223
-0.368101
-0.36001
-0.347058
-0.32602
-0.298058
-0.263625
-0.222927
-0.180984
-0.133387
-0.110425
-0.0954477
-0.0795311
-0.0637132
-0.0482646
-0.0334986
-0.0198541
-0.00775755
0.00243108
0.010452
0.0161849
0.0196906
0.0211509
0.0210027
0.0193927
0.0173722
0.0137499
0.0121876
0.0055198
0.00875841
-0.112566
-0.0974596
-0.0812749
-0.0652743
-0.0496669
-0.0347388
-0.0209356
-0.00868653
0.00164702
0.00980283
0.015658
0.0192717
0.0208246
0.0207538
0.019207
0.0172365
0.0136555
0.0121184
0.00548779
0.00870999
-0.116749
-0.101398
-0.084695
-0.0683403
-0.052424
-0.0371802
-0.0230669
-0.0105196
9.79495e-05
0.00851864
0.0146145
0.0184409
0.0201768
0.0202593
0.0188379
0.0169665
0.0134676
0.0119808
0.0054241
0.0086139
-0.122784
-0.107098
-0.0896608
-0.0728022
-0.0564442
-0.0407468
-0.0261867
-0.0132084
-0.00217908
0.00662695
0.0130741
0.0172123
0.0192172
0.0195258
0.0182896
0.0165651
0.0131881
0.011776
0.00532945
0.00847157
-0.130406
-0.114326
-0.0959865
-0.0785051
-0.0615969
-0.0453307
-0.0302077
-0.016684
-0.00513104
0.00416729
0.0110654
0.0156061
0.0179596
0.0185626
0.0175688
0.0160367
0.0128201
0.011506
0.00520484
0.00828513
-0.139288
-0.122794
-0.103442
-0.0852575
-0.0677204
-0.0507979
-0.0350214
-0.0208603
-0.00869162
0.00118927
0.00862464
0.0136476
0.0164218
0.017382
0.0166835
0.0153868
0.0123672
0.0111736
0.00505158
0.0080573
-0.149068
-0.132175
-0.111768
-0.0928418
-0.0746306
-0.0569955
-0.0405034
-0.0256386
-0.0127844
-0.00224965
0.00579369
0.0113671
0.0146248
0.0159983
0.0156438
0.0146221
0.0118338
0.0107817
0.00487123
0.00779129
-0.159374
-0.142127
-0.120685
-0.101026
-0.0821305
-0.0637593
-0.0465201
-0.0309121
-0.0173263
-0.00608656
0.00261895
0.00879764
0.0125922
0.014428
0.0144607
0.0137502
0.0112252
0.010334
0.00466559
0.00749076
-0.169839
-0.152307
-0.129915
-0.109574
-0.0900187
-0.070921
-0.0529335
-0.0365701
-0.0222307
-0.0102554
-0.000850537
0.00597498
0.0103491
0.0126887
0.0131467
0.0127794
0.010547
0.00983443
0.00443661
0.00715968
-0.180129
-0.16239
-0.139187
-0.118257
-0.0980982
-0.0783147
-0.0596069
-0.0425024
-0.0274105
-0.0146893
-0.00456448
0.00293596
0.00792217
0.0107991
0.0117147
0.0117187
0.00980536
0.00928731
0.00418638
0.00680222
-0.189951
-0.172085
-0.148252
-0.12686
-0.106182
-0.0857821
-0.0664091
-0.0486019
-0.0327805
-0.0193219
-0.00847262
-0.000282101
0.00533853
0.00877861
0.0101786
0.0105775
0.00900662
0.00869717
0.0039171
0.00642272
-0.199063
-0.181143
-0.156892
-0.13519
-0.1141
-0.0931769
-0.0732175
-0.0547679
-0.0382599
-0.0240897
-0.012526
-0.00364245
0.00262521
0.0066467
0.00855198
0.00936538
0.0081574
0.00806866
0.00363099
0.00602551
-0.207281
-0.189365
-0.164922
-0.143079
-0.121702
-0.100369
-0.0799222
-0.0609091
-0.0437744
-0.0289337
-0.0166789
-0.00711041
-0.000192069
0.00442204
0.00684839
0.00809177
0.00726421
0.00740649
0.00333026
0.00561491
-0.214482
-0.196607
-0.172199
-0.15039
-0.128861
-0.107249
-0.0864288
-0.0669463
-0.0492587
-0.0338011
-0.0208895
-0.0106536
-0.00308882
0.00212269
0.00508095
0.00676598
0.00633353
0.00671533
0.00301712
0.00519513
-0.220613
-0.202786
-0.178621
-0.15701
-0.135468
-0.113716
-0.0926483
-0.0728011
-0.0546454
-0.0386348
-0.0251106
-0.0142342
-0.00603569
-0.000229339
0.00326572
0.00539931
0.00537313
0.00600055
0.00269408
0.00477034
-0.225646
-0.207825
-0.184076
-0.162817
-0.141403
-0.119661
-0.0984791
-0.0783807
-0.0598512
-0.0433622
-0.029281
-0.0178029
-0.00899436
-0.00260558
0.0014232
0.00400584
0.00439241
0.00526839
0.00236407
0.00434474
-0.229559
-0.211685
-0.188524
-0.16777
-0.146633
-0.125057
-0.103898
-0.0836664
-0.0648628
-0.0479754
-0.0333981
-0.0213606
-0.011968
-0.00500956
-0.000449326
0.00258431
0.00339111
0.00452012
0.00202739
0.00392163
-0.232791
-0.214824
-0.192365
-0.172194
-0.151444
-0.130175
-0.10917
-0.088917
-0.0699281
-0.0527052
-0.0376686
-0.0250848
-0.015101
-0.00755161
-0.00243077
0.00108333
0.00233775
0.0037406
0.00167603
0.00350174
-0.236096
-0.217379
-0.195498
-0.175861
-0.155611
-0.13484
-0.114165
-0.0940417
-0.0749854
-0.0575101
-0.0420649
-0.0289575
-0.0183824
-0.0102259
-0.00451748
-0.000495095
0.0012349
0.00293125
0.00131205
0.00308804
-0.234815
-0.214707
-0.194396
-0.175671
-0.156255
-0.136273
-0.116182
-0.0964454
-0.0775941
-0.0601586
-0.0446136
-0.0313012
-0.0204486
-0.0119847
-0.00594669
-0.00164194
0.000408832
0.00226118
0.00102728
0.00270841
-0.218907
-0.208052
-0.191964
-0.173875
-0.154655
-0.134763
-0.11468
-0.0949495
-0.0761325
-0.0587723
-0.0433525
-0.0302245
-0.0196008
-0.0114164
-0.00563189
-0.00160918
0.000343038
0.00196291
0.000949993
0.00235817
-0.201915
-0.193073
-0.179568
-0.163724
-0.146803
-0.129065
-0.110883
-0.0927916
-0.0753384
-0.0590454
-0.0443886
-0.0317351
-0.0213262
-0.0131619
-0.00722713
-0.00301297
-0.000727713
0.00105423
0.000544478
0.00186101
-0.186237
-0.17835
-0.166148
-0.152276
-0.137555
-0.121987
-0.105842
-0.089602
-0.0737613
-0.0587922
-0.0451386
-0.0331623
-0.0231193
-0.0150659
-0.00902149
-0.00460666
-0.00196572
3.72986e-05
5.71042e-05
0.00134017
-0.171086
-0.164323
-0.153218
-0.141044
-0.12826
-0.114637
-0.100363
-0.0858649
-0.0715783
-0.0579232
-0.0453047
-0.0340706
-0.0244813
-0.0166361
-0.0105805
-0.00604649
-0.00312086
-0.000934692
-0.000424849
0.000827828
-0.15572
-0.150219
-0.140325
-0.129727
-0.118739
-0.106962
-0.0944898
-0.0816904
-0.0689428
-0.0566126
-0.0450633
-0.0346232
-0.0255522
-0.0179828
-0.0119838
-0.00738375
-0.00422409
-0.00187522
-0.000910226
0.000327318
-0.1402
-0.136017
-0.127465
-0.118373
-0.109052
-0.099015
-0.0882703
-0.0771213
-0.0658917
-0.0548934
-0.0444451
-0.0348492
-0.0263586
-0.0191289
-0.0132495
-0.00863076
-0.00528348
-0.00278597
-0.00140275
-0.000154279
-0.124916
-0.121929
-0.114773
-0.10713
-0.0993447
-0.0909201
-0.0817989
-0.0722215
-0.0624591
-0.0527728
-0.0434358
-0.0347194
-0.0268629
-0.0200349
-0.0143403
-0.00975591
-0.00627428
-0.0036486
-0.00189306
-0.000606356
-0.110155
-0.108168
-0.102381
-0.096113
-0.0897321
-0.0827814
-0.0751632
-0.0670592
-0.0586916
-0.050275
-0.0420386
-0.0342199
-0.027039
-0.0206679
-0.0152214
-0.0107274
-0.00716956
-0.00444311
-0.00236865
-0.00101934
-0.0961302
-0.0949408
-0.0904249
-0.0854282
-0.0803159
-0.0746945
-0.0684474
-0.0617051
-0.0546442
-0.0474377
-0.0402734
-0.0333541
-0.0268768
-0.0210085
-0.0158681
-0.0115203
-0.00794591
-0.00515163
-0.00281651
-0.00138558
-0.0829927
-0.0824161
-0.0790296
-0.0751752
-0.0711902
-0.0667504
-0.0617356
-0.0562334
-0.0503792
-0.0443087
-0.0381723
-0.0321384
-0.0263782
-0.0210475
-0.0162635
-0.0121147
-0.00858278
-0.00575797
-0.00322313
-0.00169931
-0.0708328
-0.0707156
-0.0682977
-0.0654421
-0.0624415
-0.0590364
-0.0551121
-0.0507224
-0.0459663
-0.0409465
-0.0357799
-0.0306024
-0.0255583
-0.0207873
-0.0163998
-0.0124973
-0.00906376
-0.00624849
-0.00357548
-0.00195685
-0.0596966
-0.0599192
-0.0583095
-0.0563061
-0.0541497
-0.0516367
-0.0486627
-0.0452557
-0.0414837
-0.037421
-0.0331546
-0.0287906
-0.0244466
-0.0202435
-0.0162808
-0.012664
-0.00937891
-0.0066137
-0.00386254
-0.00215677
-0.0496071
-0.0500779
-0.0491283
-0.0478367
-0.0463916
-0.0446353
-0.0424762
-0.0399231
-0.0370188
-0.0338131
-0.0303678
-0.0267621
-0.0230882
-0.0194467
-0.0159235
-0.0126215
-0.00952669
-0.00684987
-0.00407673
-0.00230004
-0.0405788
-0.041228
-0.0408077
-0.0400992
-0.0392425
-0.0381168
-0.0366443
-0.0348202
-0.0326671
-0.030215
-0.0275042
-0.0245906
-0.0215433
-0.0184427
-0.0153594
-0.0123888
-0.00951556
-0.00696036
-0.00421523
-0.00239002
-0.0326286
-0.0334022
-0.0333985
-0.0331584
-0.0327787
-0.0321685
-0.0312631
-0.0300488
-0.0285328
-0.0267291
-0.0246607
-0.022364
-0.0198876
-0.0172927
-0.0146346
-0.0119981
-0.00936517
-0.00695681
-0.004281
-0.00243241
-0.0257807
-0.0266376
-0.0269547
-0.0270823
-0.0270804
-0.0268818
-0.0264337
-0.0257171
-0.0247279
-0.0234677
-0.021946
-0.0201832
-0.0182107
-0.0160727
-0.0138099
-0.0114952
-0.00910688
-0.00685976
-0.00428335
-0.00243525
-0.0200769
-0.020986
-0.0215425
-0.0219498
-0.0222377
-0.0223572
-0.022266
-0.0219422
-0.0213737
-0.0205532
-0.0194797
-0.0181614
-0.016616
-0.0148729
-0.0129602
-0.0109389
-0.00878356
-0.00669866
-0.00423792
-0.00240868
-0.0155749
-0.0165146
-0.0172422
-0.0178528
-0.018353
-0.018707
-0.0188811
-0.0188521
-0.0186025
-0.018119
-0.017393
-0.0164239
-0.0152188
-0.0137959
-0.0121726
-0.0103997
-0.0084484
-0.00651112
-0.00416599
-0.00236422
-0.01239
-0.0133438
-0.0141812
-0.0149249
-0.0155654
-0.0160756
-0.0164279
-0.0165986
-0.0165672
-0.0163162
-0.0158326
-0.0151095
-0.014147
-0.0129554
-0.0115446
-0.00995722
-0.0081628
-0.00634128
-0.00409447
-0.00231285
-0.010647
-0.0116116
-0.012509
-0.0133247
-0.0140404
-0.0146336
-0.0150804
-0.015357
-0.0154415
-0.0153145
-0.0149607
-0.0143701
-0.0135391
-0.0124737
-0.0111804
-0.00969613
-0.00799252
-0.00623452
-0.00405774
-0.00226472
-0.111666
-0.12156
-0.130915
-0.139718
-0.147958
-0.155626
-0.162713
-0.169217
-0.175133
-0.180464
-0.185218
-0.18941
-0.19307
-0.19625
-0.199032
-0.201557
-0.204051
-0.20686
-0.21105
-0.220301
-0.0996482
-0.108727
-0.117321
-0.125419
-0.133011
-0.140091
-0.146657
-0.152708
-0.158251
-0.163298
-0.167872
-0.172011
-0.175772
-0.179243
-0.18255
-0.18588
-0.189494
-0.193665
-0.199012
-0.208133
-0.0881842
-0.0965414
-0.104488
-0.112016
-0.119122
-0.125802
-0.132057
-0.137892
-0.143317
-0.148346
-0.153001
-0.157314
-0.161328
-0.165098
-0.168695
-0.172206
-0.175736
-0.179333
-0.183266
-0.189721
-0.0772205
-0.0848924
-0.0922147
-0.0991814
-0.105789
-0.112035
-0.117922
-0.123453
-0.128633
-0.133473
-0.137987
-0.142192
-0.146111
-0.149775
-0.153219
-0.156495
-0.159671
-0.162804
-0.166132
-0.171284
-0.0667888
-0.0738103
-0.0805319
-0.0869471
-0.093052
-0.098845
-0.104326
-0.109496
-0.11436
-0.118924
-0.123197
-0.127191
-0.130923
-0.134417
-0.137703
-0.140824
-0.143837
-0.146778
-0.149755
-0.153786
-0.0568942
-0.0633108
-0.0694687
-0.0753615
-0.0809856
-0.086339
-0.0914212
-0.0962329
-0.100777
-0.105057
-0.10908
-0.112856
-0.116395
-0.119715
-0.122834
-0.125776
-0.128571
-0.131229
-0.133778
-0.136903
-0.0475405
-0.0534018
-0.0590345
-0.0644364
-0.0696049
-0.0745377
-0.0792338
-0.083693
-0.0879164
-0.0919065
-0.095667
-0.0992028
-0.102521
-0.105629
-0.108537
-0.111259
-0.11381
-0.116195
-0.118404
-0.120918
-0.0387475
-0.04409
-0.0492339
-0.0541767
-0.0589156
-0.0634481
-0.0677723
-0.0718874
-0.0757932
-0.0794905
-0.0829809
-0.0862668
-0.0893516
-0.0922396
-0.0949363
-0.097449
-0.0997877
-0.101951
-0.1039
-0.10599
-0.0305242
-0.0353871
-0.0400781
-0.0445938
-0.0489306
-0.0530858
-0.0570571
-0.0608429
-0.0644422
-0.067855
-0.0710813
-0.0741223
-0.0769793
-0.0796545
-0.0821504
-0.0844703
-0.0866199
-0.0885932
-0.0903401
-0.0921434
-0.0228707
-0.0272971
-0.0315735
-0.0356959
-0.0396607
-0.0434649
-0.0471058
-0.0505817
-0.053891
-0.0570329
-0.0600069
-0.0628132
-0.065452
-0.0679241
-0.0702306
-0.072373
-0.0743547
-0.0761686
-0.0777651
-0.0793749
-0.0157976
-0.0198288
-0.0237282
-0.0274916
-0.0311154
-0.0345965
-0.0379321
-0.0411201
-0.0441588
-0.047047
-0.0497838
-0.052369
-0.0548024
-0.0570842
-0.0592149
-0.0611955
-0.0630282
-0.0647061
-0.0661867
-0.0676578
-0.00931387
-0.01299
-0.0165495
-0.0199883
-0.0233029
-0.0264898
-0.0295465
-0.0324706
-0.0352605
-0.0379147
-0.0404323
-0.0428127
-0.0450557
-0.0471614
-0.04913
-0.0509624
-0.0526605
-0.0542182
-0.0556025
-0.0569634
-0.00342826
-0.00678821
-0.0100444
-0.0131928
-0.0162299
-0.0191523
-0.0219574
-0.0246429
-0.0272071
-0.0296485
-0.0319663
-0.0341597
-0.0362286
-0.0381729
-0.039993
-0.0416899
-0.043265
-0.0447139
-0.0460124
-0.0472768
0.00185065
-0.00123142
-0.00422023
-0.00711202
-0.00990322
-0.0125907
-0.0151719
-0.0176447
-0.0200072
-0.0222581
-0.0243965
-0.0264217
-0.0283336
-0.0301322
-0.031818
-0.0333918
-0.0348551
-0.0362047
-0.037424
-0.0385998
0.00651539
0.0036709
0.000912774
-0.0017561
-0.00433282
-0.0068148
-0.00919972
-0.0114856
-0.0136707
-0.0157538
-0.017734
-0.0196107
-0.0213837
-0.0230531
-0.0246194
-0.0260834
-0.0274465
-0.0287068
-0.0298533
-0.030948
0.0104908
0.00786713
0.00531765
0.00284702
0.000458789
-0.00184392
-0.00405839
-0.00618238
-0.00821411
-0.0101522
-0.0119957
-0.0137441
-0.015397
-0.0169545
-0.0184172
-0.0197858
-0.0210616
-0.0222436
-0.0233254
-0.0243483
0.0138537
0.0113981
0.00901267
0.00670079
0.00446554
0.00230968
0.000235612
-0.00175463
-0.00365939
-0.00547735
-0.00720759
-0.00884953
-0.0104029
-0.0118678
-0.0132447
-0.0145342
-0.0157375
-0.0168544
-0.0178816
-0.0188444
0.0164997
0.0141819
0.0119297
0.00974613
0.00763417
0.00559636
0.00363493
0.00175178
-5.15061e-05
-0.00177372
-0.00341396
-0.00497166
-0.00644657
-0.00783874
-0.00914853
-0.0103766
-0.0115238
-0.0125907
-0.0135762
-0.0144935
0.0183964
0.016178
0.0140213
0.0119294
0.00990501
0.00795063
0.00606839
0.00426013
0.00252738
0.000871353
-0.000707034
-0.00220718
-0.00362877
-0.0049718
-0.00623651
-0.00742345
-0.00853342
-0.00956722
-0.0105252
-0.0114126
0.019394
0.0172467
0.0151584
0.0131317
0.011169
0.00927244
0.00744392
0.00568508
0.00399735
0.00238185
0.000839511
-0.000629019
-0.00202332
-0.0033432
-0.00458871
-0.00576012
-0.00685791
-0.00788278
-0.00883547
-0.00971705
0.163387
0.147625
0.132005
0.117218
0.102183
0.0869886
0.0718517
0.0568249
0.041943
0.0272539
0.0128013
-0.00137733
-0.0152477
-0.028778
-0.0419378
-0.054689
-0.0669534
-0.0788861
-0.0903163
-0.101246
0.154855
0.139824
0.124382
0.110462
0.0965173
0.0824151
0.0684221
0.0545928
0.0409317
0.0274685
0.014237
0.00126587
-0.0114184
-0.0237904
-0.0358269
-0.0475163
-0.0588812
-0.0696293
-0.0800711
-0.0900929
0.144189
0.129993
0.115336
0.102449
0.0897769
0.0769614
0.064252
0.051725
0.0393694
0.0271992
0.015241
0.00351755
-0.00795041
-0.0191428
-0.0300399
-0.0406232
-0.0508814
-0.0607263
-0.0702594
-0.0794218
0.133695
0.12074
0.107303
0.095518
0.0840537
0.0724614
0.0609459
0.0496076
0.0384379
0.0274402
0.016635
0.00604138
-0.00432413
-0.0144456
-0.0243071
-0.0338929
-0.0431895
-0.0521627
-0.0608473
-0.0692043
0.123884
0.112203
0.100076
0.0893762
0.0790319
0.0685914
0.0582051
0.0479787
0.0379112
0.0279996
0.0182586