/*--------------------------------*- C++ -*----------------------------------*\
  =========                 |
  \\      /  F ield         | OpenFOAM: The Open Source CFD Toolbox
   \\    /   O peration     | Website:  https://openfoam.org
    \\  /    A nd           | Version:  7
     \\/     M anipulation  |
\*---------------------------------------------------------------------------*/
FoamFile
{
    version     2.0;
    format      ascii;
    class       surfaceScalarField;
    location    "77";
    object      phi;
}
// * * * * * * * * * * * * * * * * * * * * * * * * * * * * * * * * * * * * * //

dimensions      [0 3 -1 0 0 0 0];

internalField   nonuniform List<scalar> 
24510
(
-4.0085e-06
1.11487e-05
-7.14025e-06
-1.50597e-05
3.02389e-05
-1.91876e-05
-3.27937e-05
4.76038e-05
-2.98699e-05
-5.68363e-05
6.30908e-05
-3.90481e-05
-8.6802e-05
7.6654e-05
-4.66884e-05
-0.000122318
8.84006e-05
-5.28847e-05
-0.000163048
9.85659e-05
-5.78359e-05
-0.000208713
0.000107458
-6.17934e-05
-0.000259105
0.000115375
-6.49831e-05
-0.000314088
0.000122497
-6.75143e-05
-0.000373585
0.000128788
-6.92919e-05
-0.000437543
0.000133905
-6.99472e-05
-0.000505888
0.000137131
-6.8786e-05
-0.000578463
0.000137322
-6.47469e-05
-0.000654974
0.000132866
-5.63552e-05
-0.000734959
0.000121655
-4.16694e-05
-0.000817875
0.000101141
-1.8226e-05
-0.000903428
6.86309e-05
1.69226e-05
-0.000991924
2.12021e-05
6.72938e-05
-4.40255e-05
0.000137462
-0.00108536
-3.85723e-06
1.5006e-05
-1.45258e-05
4.09075e-05
-3.16848e-05
6.47627e-05
-5.49893e-05
8.63953e-05
-8.40723e-05
0.000105737
-0.000118568
0.000122896
-0.000158134
0.000138132
-0.000202475
0.0001518
-0.000251358
0.000164258
-0.000304615
0.000175754
-0.000362136
0.000186309
-0.00042384
0.000195609
-0.000489629
0.000202921
-0.000559334
0.000207027
-0.000632645
0.000206177
-0.000709075
0.000198085
-0.000787967
0.000180033
-0.000868797
0.000149461
-0.000951773
0.000104179
4.15774e-05
-0.00103738
-3.63268e-06
1.86387e-05
-1.37265e-05
5.10013e-05
-3.00084e-05
8.10446e-05
-5.21654e-05
0.000108552
-7.98459e-05
0.000133418
-0.000112681
0.000155731
-0.000150305
0.000175757
-0.000192383
0.000193877
-0.000238621
0.000210495
-0.000288777
0.00022591
-0.000342654
0.000240187
-0.000400076
0.000253031
-0.000460845
0.00026369
-0.000524683
0.000270864
-0.000591156
0.00027265
-0.000659603
0.000266532
-0.000729038
0.000249468
-0.000798336
0.00021876
-0.000867394
0.000173237
0.00010736
-0.000933177
-3.34353e-06
2.19822e-05
-1.26904e-05
6.03482e-05
-2.78202e-05
9.61744e-05
-4.84515e-05
0.000129184
-7.42421e-05
0.000159208
-0.000104808
0.000186297
-0.000139745
0.000210694
-0.000178649
0.000232781
-0.000221133
0.000252979
-0.000266834
0.000271612
-0.000315411
0.000288764
-0.00036652
0.00030414
-0.000419775
0.000316945
-0.000474684
0.000325773
-0.000530562
0.000328528
-0.000586436
0.000322406
-0.000640811
0.000303843
-0.000691514
0.000269462
-0.000738499
0.000220221
0.000141042
-0.000772181
-3.00173e-06
2.49839e-05
-1.14572e-05
6.88036e-05
-2.51981e-05
0.000109915
-4.39697e-05
0.000147955
-6.74307e-05
0.000182669
-9.51692e-05
0.000214035
-0.000126721
0.000242246
-0.000161589
0.000267649
-0.000199256
0.000290645
-0.000239191
0.000311547
-0.000280847
0.00033042
-0.000323633
0.000346926
-0.000366873
0.000360185
-0.000409742
0.000368642
-0.000451159
0.000369945
-0.000489683
0.000360931
-0.000523195
0.000337355
-0.000547833
0.0002941
-0.000564643
0.000237032
0.00013061
-0.000554211
-2.62189e-06
2.76058e-05
-1.00754e-05
7.62572e-05
-2.22382e-05
0.000122078
-3.88721e-05
0.000164589
-5.96247e-05
0.000203422
-8.40401e-05
0.000238451
-0.000111574
0.00026978
-0.000141609
0.000297683
-0.00017346
0.000322497
-0.000206382
0.00034447
-0.000239554
0.000363592
-0.000272051
0.000379423
-0.000302798
0.000390932
-0.000330493
0.000396337
-0.000353487
0.000392939
-0.000369676
0.00037712
-0.000376324
0.000344003
-0.000366812
0.000284588
-0.000344645
0.000214865
6.55867e-05
-0.000279622
-2.22052e-06
2.98263e-05
-8.60062e-06
8.26373e-05
-1.90503e-05
0.000132528
-3.33337e-05
0.000178873
-5.10704e-05
0.000221158
-7.17424e-05
0.000259123
-9.47033e-05
0.000292741
-0.000119186
0.000322166
-0.000144303
0.000347614
-0.000169043
0.000369209
-0.000192242
0.000386791
-0.000212552
0.000399732
-0.000228371
0.000406751
-0.000237763
0.000405729
-0.000238304
0.00039348
-0.000226913
0.000365729
-0.000200593
0.000317684
-0.000149239
0.000233233
-7.28016e-05
0.000138428
-5.53596e-05
4.81447e-05
-1.81507e-06
3.16414e-05
-7.09146e-06
8.79137e-05
-1.57518e-05
0.000141188
-2.7542e-05
0.000190663
-4.20335e-05
0.00023565
-5.86243e-05
0.000275714
-7.65417e-05
0.000310659
-9.48399e-05
0.000340464
-0.000112391
0.000365165
-0.000127863
0.000384681
-0.000139683
0.000398612
-0.000145979
0.000406027
-0.00014449
0.000405263
-0.000132466
0.000393704
-0.000106502
0.000367516
-6.21365e-05
0.000321363
6.24772e-06
0.000249299
0.000104638
0.000134843
0.000238559
4.50649e-06
-0.000260797
0.000443997
-1.42293e-06
3.30643e-05
-5.60663e-06
9.20974e-05
-1.246e-05
0.000148041
-2.16855e-05
0.000199888
-3.27813e-05
0.000246746
-4.50371e-05
0.000287969
-5.75264e-05
0.000323148
-6.90932e-05
0.000352031
-7.83271e-05
0.000374399
-8.35233e-05
0.000389877
-8.26225e-05
0.000397711
-7.31249e-05
0.00039653
-5.19733e-05
0.000384111
-1.54078e-05
0.000357139
4.12201e-05
0.000310888
0.000123878
0.000238705
0.000238043
0.000135135
0.000400012
-2.71268e-05
0.000599839
-0.00019532
-0.000561079
0.000900121
-1.06027e-06
3.41246e-05
-4.20064e-06
9.52377e-05
-9.28414e-06
0.000153125
-1.59395e-05
0.000206544
-2.35631e-05
0.000254369
-3.13068e-05
0.000295713
-3.80598e-05
0.000329901
-4.24192e-05
0.00035639
-4.26462e-05
0.000374626
-3.66013e-05
0.000383832
-2.16553e-05
0.000382765
5.43117e-06
0.000369443
4.86711e-05
0.000340871
0.000113036
0.000292774
0.000204647
0.000219276
0.000331521
0.000111832
0.00050077
-3.41143e-05
0.000732672
-0.000259029
0.00101324
-0.000475893
-0.000967644
0.00141981
-7.40833e-07
3.48654e-05
-2.91963e-06
9.74165e-05
-6.31641e-06
0.000156522
-1.04517e-05
0.000210679
-1.45864e-05
0.000258504
-1.77012e-05
0.000298828
-1.84642e-05
0.000330664
-1.51815e-05
0.000353108
-5.73017e-06
0.000365175
1.25379e-05
0.000365564
4.29211e-05
0.000352382
8.95323e-05
0.000322832
0.000157506
0.000272897
0.00025325
0.000197031
0.000384598
8.79277e-05
0.000561725
-6.52945e-05
0.000794283
-0.000266673
0.00110442
-0.000569166
0.00147815
-0.000849622
-0.00149045
0.00200096
-4.748e-07
3.53402e-05
-1.79711e-06
9.87389e-05
-3.6226e-06
0.000158347
-5.3253e-06
0.000212382
-5.99239e-06
0.000259171
-4.39373e-06
0.000297229
1.06952e-06
0.000325201
1.24356e-05
0.000341742
3.22844e-05
0.000345326
6.3866e-05
0.000333983
0.000111272
0.000304976
0.000179644
0.00025446
0.000275435
0.000177106
0.0004067
6.57654e-05
0.000583219
-8.85917e-05
0.000817024
-0.000299099
0.00112145
-0.0005711
0.00151662
-0.000964339
0.00199306
-0.00132606
-0.00213103
0.00263364
-2.67619e-07
3.56079e-05
-8.49954e-07
9.93212e-05
-1.23308e-06
0.00015873
-6.02505e-07
0.000211751
2.16884e-06
0.0002564
8.57195e-06
0.000290826
2.05291e-05
0.000313243
4.04965e-05
0.000321774
7.16006e-05
0.000314222
0.000117815
0.000287769
0.000184176
0.000238615
0.000277044
0.000161592
0.000404382
4.97686e-05
0.000576057
-0.00010591
0.000803948
-0.000316482
0.0011012
-0.000596352
0.00148507
-0.000954965
0.00196938
-0.00144866
0.00255255
-0.00190922
-0.00287518
0.00329671
-1.19187e-07
3.5727e-05
-7.29459e-08
9.92749e-05
8.63333e-07
0.000157794
3.74137e-06
0.000208873
9.9571e-06
0.000250184
2.13161e-05
0.000279467
4.0135e-05
0.000294425
6.93791e-05
0.00029253
0.000112842
0.000270759
0.000175371
0.00022524
0.000263129
0.000150857
0.000383885
4.08357e-05
0.000547275
-0.000113622
0.000764975
-0.00032361
0.00105077
-0.000602278
0.00141799
-0.00096357
0.00188549
-0.00142247
0.00245783
-0.002021
0.00314223
-0.00259361
-0.00369001
0.00395705
-2.43357e-08
3.57514e-05
5.54315e-07
9.86963e-05
2.72536e-06
0.000155623
7.82276e-06
0.000203776
1.75653e-05
0.000240441
3.41461e-05
0.000262887
6.03661e-05
0.000268204
9.9815e-05
0.000253081
0.000157099
0.000213475
0.000238113
0.000144227
0.000350331
3.86379e-05
0.000503085
-0.000111918
0.000707702
-0.000318238
0.000977349
-0.000593257
0.00132676
-0.000951692
0.00176843
-0.00140523
0.00231758
-0.00197162
0.00296815
-0.00267158
0.00373367
-0.00335913
-0.00452816
0.00457182
3.53578e-08
3.5716e-05
1.08777e-06
9.76439e-05
4.46546e-06
0.000152245
1.18399e-05
0.000196401
2.53185e-05
0.000226963
4.7565e-05
0.00024064
8.19732e-05
0.000233796
0.000132894
0.00020216
0.000205912
0.000140457
0.000308143
4.19958e-05
0.000448518
-0.000101737
0.000637939
-0.00030134
0.000889149
-0.000569448
0.00121599
-0.000920096
0.00163213
-0.00136784
0.00214755
-0.00192065
0.00276758
-0.00259165
0.00347565
-0.00337965
0.00428493
-0.00416841
-0.00533791
0.00509468
7.18919e-08
3.56441e-05
1.59627e-06
9.61195e-05
6.24077e-06
0.000147601
1.60748e-05
0.000186567
3.36702e-05
0.000209367
6.22593e-05
0.000212051
0.000105954
0.000190102
0.000170017
0.000138097
0.000261171
4.93032e-05
0.000387889
-8.47223e-05
0.000560571
-0.000274419
0.000791435
-0.000532203
0.00109385
-0.000871867
0.00148083
-0.00130707
0.0019621
-0.00184911
0.00254216
-0.00250071
0.003212
-0.00326149
0.00394655
-0.00411421
0.00474975
-0.0049716
-0.00607767
0.00548951
1.1537e-07
3.55288e-05
2.17159e-06
9.40633e-05
8.24939e-06
0.000141523
2.08785e-05
0.000173938
4.31791e-05
0.000187067
7.9061e-05
0.000176169
0.000133487
0.000135676
0.000212778
5.8806e-05
0.000324917
-6.28363e-05
0.000479754
-0.000239559
0.000688936
-0.000483601
0.000965311
-0.000808578
0.00132146
-0.00122802
0.0017672
-0.00175281
0.00230532
-0.00238723
0.00293098
-0.00312637
0.00362059
-0.0039511
0.00434455
-0.00483816
0.00509214
-0.00571919
-0.00672362
0.00573809
1.93252e-07
3.53355e-05
2.91778e-06
9.13388e-05
1.0717e-05
0.000133724
2.66483e-05
0.000158007
5.447e-05
0.000159245
9.88825e-05
0.000131756
0.000165826
6.8733e-05
0.000262789
-3.81577e-05
0.000399045
-0.000199092
0.000585639
-0.000426153
0.000834884
-0.000732847
0.00115903
-0.00113272
0.00156778
-0.00163677
0.00206493
-0.00224995
0.00264386
-0.00296616
0.00328792
-0.00377042
0.0039634
-0.00462658
0.00464061
-0.00551537
0.00529701
-0.0063756
-0.00727135
0.00584474
3.35652e-07
3.49999e-05
3.94415e-06
8.77303e-05
1.38797e-05
0.000123788
3.3796e-05
0.000138091
6.81804e-05
0.000124861
0.000122629
7.73074e-05
0.000204157
-1.27949e-05
0.000321455
-0.000155455
0.000484948
-0.000362585
0.000706407
-0.000647612
0.00099778
-0.00102422
0.00136893
-0.00150387
0.00182421
-0.00209206
0.00235879
-0.00278453
0.00295573
-0.0035631
0.00358767
-0.00440236
0.00421862
-0.00525754
0.00482192
-0.00611867
0.00536983
-0.00692351
-0.00773939
0.00583787
5.71941e-07
3.44279e-05
5.35659e-06
8.29456e-05
1.79645e-05
0.00011118
4.27127e-05
0.000113342
8.49006e-05
8.2673e-05
0.000151102
1.11061e-05
0.000249442
-0.000111135
0.00038972
-0.000295733
0.00058315
-0.000556015
0.000841392
-0.000905854
0.00117453
-0.00135736
0.00158787
-0.00191721
0.00207814
-0.00258233
0.00263061
-0.003337
0.00321944
-0.00415193
0.00381173
-0.00499466
0.0043771
-0.00582291
0.00489499
-0.00663655
0.00534778
-0.00737629
-0.00814849
0.00575688
9.2821e-07
3.34997e-05
7.24905e-06
7.66248e-05
2.31708e-05
9.52585e-05
5.37336e-05
8.27795e-05
0.000105113
3.1294e-05
0.000184896
-6.86772e-05
0.000302261
-0.0002285
0.000467847
-0.000461319
0.000693003
-0.000781171
0.000988059
-0.00120091
0.00135939
-0.00172869
0.00180567
-0.00236349
0.00231464
-0.0030913
0.0028627
-0.00388506
0.00341905
-0.00470828
0.00395238
-0.00552799
0.00444227
-0.0063128
0.00487575
-0.00707003
0.00526424
-0.00776479
-0.0085032
0.00561894
1.42541e-06
3.20743e-05
9.69669e-06
6.83535e-05
2.96548e-05
7.53005e-05
6.71079e-05
4.53263e-05
0.00012914
-3.07378e-05
0.000224319
-0.000163857
0.000362689
-0.00036687
0.000555239
-0.000653869
0.000812496
-0.00103843
0.00114193
-0.00153034
0.00154433
-0.00213109
0.00201032
-0.00282947
0.00251911
-0.00360009
0.0030415
-0.00440745
0.00354723
-0.00521401
0.00401247
-0.00599323
0.00442751
-0.00672784
0.00479213
-0.00743464
0.00512258
-0.00809524
-0.00880784
0.00542722
2.07837e-06
2.99959e-05
1.27518e-05
5.76801e-05
3.75188e-05
5.05334e-05
8.29788e-05
-1.3362e-07
0.000157109
-0.000104868
0.000269334
-0.000276082
0.000430212
-0.000527749
0.000650356
-0.000874012
0.000938237
-0.00132631
0.00129683
-0.00188893
0.00171988
-0.00255415
0.00218989
-0.00329949
0.00267995
-0.00409015
0.00316001
-0.00488751
0.0036054
-0.0056594
0.0040024
-0.00639022
0.00435165
-0.00707709
0.00466041
-0.00774341
0.00494721
-0.00838204
-0.00908183
0.0052212
2.8958e-06
2.71001e-05
1.64426e-05
4.41333e-05
4.68066e-05
2.01694e-05
0.000101373
-5.47002e-05
0.000188929
-0.000192424
0.000319521
-0.000406674
0.000503689
-0.000711917
0.000750713
-0.00112104
0.00106563
-0.00164122
0.00144547
-0.00226878
0.00187647
-0.00298515
0.00233455
-0.00375756
0.00279053
-0.00454613
0.00321816
-0.00531515
0.00360137
-0.00604261
0.00393639
-0.00672525
0.00423116
-0.00737186
0.00449684
-0.00800909
0.0047513
-0.0086365
-0.0093305
0.00499998
3.88113e-06
2.3219e-05
2.07745e-05
2.72399e-05
5.75065e-05
-1.65626e-05
0.000122196
-0.00011939
0.000224289
-0.000294516
0.000374075
-0.00055646
0.00058137
-0.000919211
0.000852999
-0.00139267
0.00118923
-0.00197745
0.00158036
-0.00265991
0.00200585
-0.00341064
0.00243802
-0.00418973
0.00284958
-0.00495769
0.00322131
-0.00568687
0.00354624
-0.00636754
0.00382848
-0.00700749
0.00407994
-0.00762331
0.00431263
-0.00824178
0.00454177
-0.00886564
-0.00955873
0.00476999
5.03334e-06
1.81857e-05
2.57325e-05
6.54073e-06
6.95495e-05
-6.03797e-05
0.000145238
-0.000195079
0.000262652
-0.00041193
0.00043182
-0.000725629
0.000660962
-0.00114835
0.00095329
-0.00168499
0.00130332
-0.00232748
0.00169472
-0.00305131
0.00210223
-0.00381816
0.00249815
-0.00458565
0.00286037
-0.00531991
0.00317791
-0.00600441
0.00345166
-0.00664129
0.00369071
-0.00724654
0.00390821
-0.00784081
0.00411511
-0.00844867
0.00432358
-0.00907411
-0.00976906
0.00453391
6.34797e-06
1.18377e-05
3.12826e-05
-1.83938e-05
8.28152e-05
-0.000111912
0.000170173
-0.000282437
0.000303271
-0.000545027
0.00049124
-0.000913597
0.000739749
-0.00139686
0.00104738
-0.00199262
0.00140251
-0.00268262
0.00178338
-0.00343218
0.00216287
-0.00419765
0.00251645
-0.00493923
0.00282903
-0.00563249
0.00309738
-0.00627276
0.00332802
-0.00687192
0.00353243
-0.00745095
0.00372307
-0.00803145
0.00390898
-0.00863459
0.0040994
-0.00926453
-0.00996263
0.00429298
7.81743e-06
4.02027e-06
3.73729e-05
-4.79494e-05
9.71315e-05
-0.000171671
0.000196566
-0.000381871
0.000345203
-0.000693665
0.000550539
-0.00111893
0.000814764
-0.00166109
0.00113116
-0.00230902
0.00148241
-0.00303387
0.00184334
-0.00379311
0.00218793
-0.00454224
0.00249708
-0.00524838
0.00276298
-0.00589839
0.0029886
-0.00649838
0.00318379
-0.0070671
0.0033604
-0.00762756
0.00352918
-0.00820023
0.00369709
-0.0088025
0.00387087
-0.00943832
-0.01014
0.00404827
9.43064e-06
-5.41037e-06
4.3933e-05
-8.24517e-05
0.000112274
-0.000240012
0.000223871
-0.000493468
0.000387331
-0.000857124
0.000607736
-0.00133934
0.000883023
-0.00193637
0.00120104
-0.00262704
0.00154001
-0.00337283
0.00187379
-0.00412689
0.00217988
-0.00484833
0.00244561
-0.00551411
0.00266961
-0.00612239
0.00285914
-0.00668791
0.00302538
-0.00723335
0.00317929
-0.00778147
0.00332953
-0.00835047
0.00348117
-0.00895413
0.003639
-0.00959616
-0.0103014
0.00380037
1.11723e-05
-1.65827e-05
5.08715e-05
-0.000122151
0.000127966
-0.000317106
0.000251447
-0.00061695
0.000428405
-0.00103408
0.000660775
-0.00157171
0.000941772
-0.00221737
0.0012543
-0.00293957
0.00157389
-0.00369242
0.00187582
-0.00442882
0.00214265
-0.00511516
0.00236801
-0.00573946
0.00255557
-0.00630996
0.00271502
-0.00684736
0.00285745
-0.00737578
0.00299224
-0.00791626
0.00312601
-0.00848424
0.0032623
-0.00909042
0.00340447
-0.00973832
-0.0104467
0.00354978
1.3022e-05
-2.96047e-05
5.80748e-05
-0.000167204
0.000143877
-0.000402909
0.000278568
-0.000751641
0.000467106
-0.00122262
0.000707681
-0.00181228
0.000988731
-0.00249842
0.00128928
-0.00324012
0.00158418
-0.00398732
0.00185196
-0.00469661
0.00208085
-0.00534405
0.00226995
-0.00592856
0.00242641
-0.00646641
0.0025608
-0.00698175
0.00268323
-0.00749821
0.00280129
-0.00803431
0.00291981
-0.00860277
0.00304121
-0.00921182
0.00316778
-0.00986489
-0.0105759
0.00329695
1.49529e-05
-4.45576e-05
6.54066e-05
-0.000217657
0.000159633
-0.000497135
0.000304453
-0.000896461
0.000502116
-0.00142028
0.000746703
-0.00205687
0.00102227
-0.00277399
0.00130542
-0.00352326
0.00157218
-0.00425408
0.00180553
-0.00492995
0.00199913
-0.00553765
0.00215642
-0.00608585
0.00228651
-0.0065965
0.00239979
-0.00709504
0.00250493
-0.00760335
0.00260777
-0.00813715
0.00271174
-0.00870673
0.00281842
-0.0093185
0.00292936
-0.00997584
-0.0106888
0.00304227
1.69323e-05
-6.14899e-05
7.27095e-05
-0.000273435
0.000174823
-0.000599249
0.000328302
-0.00104994
0.000532212
-0.00162419
0.000776453
-0.00230111
0.00104152
-0.00303905
0.00130316
-0.0037849
0.00154009
-0.00449102
0.00174015
-0.00513002
0.00190183
-0.00569933
0.00203155
-0.00621557
0.00213923
-0.00670419
0.00223437
-0.00719018
0.00232404
-0.00769301
0.00241258
-0.0082257
0.00250235
-0.0087965
0.00259436
-0.0094105
0.00268962
-0.0100711
-0.0107853
0.00278614
1.89213e-05
-8.04112e-05
7.98097e-05
-0.000334323
0.000189021
-0.000708461
0.000349344
-0.00121026
0.000556344
-0.00183119
0.000795989
-0.00254076
0.0010463
-0.00328937
0.0012837
-0.0040223
0.00149054
-0.00469786
0.00165943
-0.0052989
0.0017927
-0.0058326
0.00189864
-0.00632151
0.00198706
-0.0067926
0.0020662
-0.00726932
0.00214159
-0.0077684
0.00221637
-0.00830049
0.0022921
-0.00887222
0.00236941
-0.00948781
0.00244893
-0.0101506
-0.0108653
0.00252893
2.08761e-05
-0.000101287
8.65234e-05
-0.00039997
0.000201804
-0.000823741
0.000366881
-0.00137534
0.000573705
-0.00203802
0.000804858
-0.00277191
0.00103712
-0.00352163
0.0012488
-0.00423398
0.00142635
-0.0048754
0.00156666
-0.00543921
0.00167492
-0.00594086
0.00176026
-0.00640686
0.00183181
-0.00686415
0.00189642
-0.00733393
0.0019583
-0.00783028
0.00201961
-0.0083618
0.00208136
-0.00893397
0.00214392
-0.00955037
0.00220765
-0.0102144
-0.0109287
0.00227104
2.27499e-05
-0.000124037
9.26651e-05
-0.000469886
0.000212773
-0.000943849
0.000380333
-0.0015429
0.000583777
-0.00224146
0.00080307
-0.0029912
0.00101495
-0.00373352
0.00120049
-0.00441952
0.00135025
-0.00502517
0.00146474
-0.0055537
0.00155102
-0.00602714
0.00161834
-0.00647418
0.0016748
-0.00692061
0.00172589
-0.00738502
0.0017747
-0.00787909
0.00182269
-0.0084098
0.00187047
-0.00898174
0.00191824
-0.00959815
0.00196613
-0.0102622
-0.0109754
0.00201285
2.44942e-05
-0.000148531
9.80564e-05
-0.000543448
0.000221581
-0.00106737
0.000389266
-0.00171058
0.000586336
-0.00243853
0.000791039
-0.0031959
0.000981105
-0.00392358
0.00114087
-0.00457929
0.00126477
-0.00514907
0.00135611
-0.00564503
0.00142302
-0.00609405
0.00147433
-0.0065255
0.00151696
-0.00696323
0.00155519
-0.00742325
0.0015912
-0.0079151
0.00162594
-0.00844454
0.00165974
-0.00901554
0.0016927
-0.0096311
0.00172474
-0.0102943
-0.0110054
0.00175474
2.60616e-05
-0.000174593
0.000102535
-0.000619921
0.000227944
-0.00119278
0.000393413
-0.00187605
0.000581445
-0.00262657
0.00076949
-0.00338395
0.000937087
-0.00409118
0.00107203
-0.00471423
0.00117215
-0.00524918
0.00124278
-0.00571566
0.00129248
-0.00614375
0.00132931
-0.00656233
0.001359
-0.00699292
0.00138478
-0.00744903
0.00140815
-0.00793847
0.00142968
-0.00846607
0.0014495
-0.00903536
0.00146762
-0.00964921
0.00148381
-0.0103105
-0.0110187
0.00149711
2.74075e-05
-0.000202001
0.000105961
-0.000698474
0.000231657
-0.00131848
0.000392678
-0.00203707
0.000569408
-0.00280329
0.000739365
-0.00355391
0.000884461
-0.00423627
0.000995887
-0.00482566
0.00107428
-0.00532758
0.00112636
-0.00576774
0.00116059
-0.00617798
0.00118408
-0.00658582
0.00120144
-0.00701028
0.00121504
-0.00746263
0.00122586
-0.00794929
0.0012342
-0.0084744
0.00124004
-0.00904121
0.00124332
-0.00965249
0.00124372
-0.0103109
-0.0110153
0.00124034
2.84922e-05
-0.000230493
0.000108225
-0.000778207
0.000232602
-0.00144286
0.000387122
-0.00219159
0.000550722
-0.0029669
0.000701733
-0.00370492
0.000824764
-0.00435931
0.000914155
-0.00491505
0.000972789
-0.00538622
0.00100815
-0.0058031
0.00102827
-0.00619809
0.00103925
-0.0065968
0.00104469
-0.00701573
0.00104628
-0.00746422
0.00104461
-0.00794762
0.00103976
-0.00846955
0.00103165
-0.0090331
0.00102013
-0.00964097
0.00100479
-0.0102955
-0.0109954
0.000984812
2.92823e-05
-0.000259775
0.000109251
-0.000858176
0.000230745
-0.00156435
0.000376945
-0.00233779
0.000526022
-0.00311597
0.000657708
-0.0038366
0.000759435
-0.00446103
0.000828338
-0.00498395
0.000868979
-0.00542686
0.000889151
-0.00582327
0.000896213
-0.00620516
0.000895272
-0.00659586
0.000889081
-0.00700954
0.000878772
-0.00745391
0.000864647
-0.00793349
0.000846649
-0.00845155
0.000824606
-0.00901106
0.000798321
-0.00961468
0.000767366
-0.0102646
-0.0109589
0.000730883
2.9752e-05
-0.000289527
0.000108998
-0.000937422
0.000226129
-0.00168148
0.000362459
-0.00247412
0.000496027
-0.00324954
0.000608395
-0.00394897
0.000689783
-0.00454242
0.000739711
-0.00503388
0.00076392
-0.00545107
0.000770143
-0.00582949
0.000764951
-0.00619996
0.000752517
-0.00658343
0.000734885
-0.0069919
0.000712758
-0.00743178
0.00068623
-0.00790696
0.000655128
-0.00842045
0.000619202
-0.00897513
0.000578206
-0.00957369
0.000531689
-0.0102181
-0.0109061
0.000478924
2.98837e-05
-0.000319411
0.000107458
-0.001015
0.000218871
-0.00179289
0.000344057
-0.00259931
0.00046149
-0.00336697
0.000554842
-0.00404232
0.000616966
-0.00460455
0.000649346
-0.00506626
0.000658464
-0.00546018
0.000651738
-0.00582277
0.000634899
-0.00618312
0.000611282
-0.00655981
0.000582346
-0.00696297
0.000548475
-0.00739791
0.000509596
-0.00786809
0.000465456
-0.00837631
0.000415737
-0.00892541
0.00036013
-0.00951808
0.000297956
-0.0101559
-0.0108372
0.000229102
2.96681e-05
-0.000349079
0.000104655
-0.00108998
0.000209141
-0.00189738
0.000322185
-0.00271236
0.000423168
-0.00346796
0.000498015
-0.00411717
0.000541988
-0.00464852
0.000558125
-0.00508239
0.000553293
-0.00545535
0.000534412
-0.00580389
0.000506385
-0.0061551
0.000471813
-0.00652524
0.000431684
-0.00692284
0.000386145
-0.00735237
0.000334983
-0.00781692
0.000277865
-0.0083192
0.000214488
-0.00886203
0.000144393
-0.00944798
6.71875e-05
-0.0100787
-0.0107496
-2.04353e-05
2.91043e-05
-0.000378183
0.000100642
-0.00116152
0.000197155
-0.00199389
0.000297314
-0.00281251
0.000381786
-0.00355243
0.000438785
-0.00417417
0.000465706
-0.00467544
0.000466769
-0.00508346
0.000448942
-0.00543753
0.00041854
-0.00577348
0.000379673
-0.00611623
0.000334326
-0.00647989
0.000283104
-0.00687162
0.000225965
-0.00729523
0.000162634
-0.00775359
9.25536e-05
-0.00824912
1.53212e-05
-0.0087848
-6.89086e-05
-0.00936375
-0.000161383
-0.00998622
-0.0106482
-0.000262841
2.81986e-05
-0.000406382
9.54944e-05
-0.00122882
0.000183156
-0.00208156
0.000269923
-0.00289928
0.000338025
-0.00362053
0.000377917
-0.00421406
0.00038884
-0.00468636
0.000375865
-0.00507048
0.000345838
-0.0054075
0.000304417
-0.00573206
0.000254987
-0.0060668
0.000199003
-0.00642391
0.000136813
-0.00680943
6.80759e-05
-0.00722649
-7.5419e-06
-0.00767798
-9.01e-05
-0.00816656
-0.000180411
-0.00869449
-0.000279069
-0.0092651
-0.000386767
-0.00987852
-0.0105314
-0.000503528
2.69645e-05
-0.000433346
8.93066e-05
-0.00129116
0.000167405
-0.00215965
0.000240476
-0.00297235
0.000292506
-0.00367256
0.000316076
-0.00423763
0.00031199
-0.00468228
0.00028588
-0.00504437
0.000244316
-0.00536593
0.000192281
-0.00568003
0.000132528
-0.00600705
6.59702e-05
-0.00635735
-7.30444e-06
-0.00673615
-8.71772e-05
-0.00714662
-0.000174475
-0.00759068
-0.000269838
-0.00807119
-0.000373523
-0.0085908
-0.000486241
-0.00915238
-0.000608617
-0.00975615
-0.0103991
-0.00074091
2.54206e-05
-0.000458767
8.21849e-05
-0.00134792
0.000150168
-0.00222764
0.000209416
-0.0030316
0.000245783
-0.00370893
0.000253833
-0.00424568
0.000235649
-0.00466409
0.000197194
-0.00500592
0.000144646
-0.00531339
8.23115e-05
-0.00561769
1.22803e-05
-0.00593702
-6.44891e-05
-0.00628058
-0.000148267
-0.00665238
-0.00023961
-0.00705528
-0.000338821
-0.00749147
-0.000446594
-0.00796342
-0.000563452
-0.00847395
-0.000690026
-0.0090258
-0.00082689
-0.00961928
-0.0102516
-0.000974406
2.35906e-05
-0.000482358
7.42441e-05
-0.00139857
0.000131709
-0.0022851
0.000177154
-0.00307705
0.000198351
-0.00373012
0.000191669
-0.004239
0.000160222
-0.00463265
0.000110109
-0.00495581
4.70222e-05
-0.0052503
-2.53265e-05
-0.00554535
-0.000105131
-0.00585721
-0.000192227
-0.00619348
-0.000286728
-0.00655787
-0.000389176
-0.00695283
-0.000500095
-0.00738055
-0.000620127
-0.00784339
-0.00074993
-0.00834414
-0.000890162
-0.00888557
-0.00104135
-0.0094681
-0.0100892
-0.00120379
2.15018e-05
-0.000503859
6.5603e-05
-0.00144268
0.000112281
-0.00233178
0.000144064
-0.00310883
0.000150638
-0.0037367
0.000129987
-0.00421835
8.60353e-05
-0.00458869
2.48487e-05
-0.00489462
-4.83247e-05
-0.00517713
-0.000130344
-0.00546333
-0.000220027
-0.00576753
-0.00031722
-0.00609629
-0.000422256
-0.00645284
-0.000535676
-0.00683941
-0.000658101
-0.00725812
-0.000790211
-0.00771128
-0.000932739
-0.00820162
-0.00108641
-0.0087319
-0.00125171
-0.00930281
-0.00991212
-0.00142875
1.91847e-05
-0.000523044
5.63824e-05
-0.00147987
9.21274e-05
-0.00236752
0.000110488
-0.00312719
0.000103013
-0.00372922
6.91203e-05
-0.00418445
1.33683e-05
-0.00453294
-5.83336e-05
-0.00482292
-0.00014126
-0.0050942
-0.000232827
-0.00537176
-0.000332159
-0.0056682
-0.000439305
-0.00598914
-0.000554701
-0.00633744
-0.000678933
-0.00671518
-0.00081267
-0.00712439
-0.000956643
-0.00756731
-0.00111166
-0.0080466
-0.00127854
-0.00856502
-0.00145772
-0.00912363
-0.00972079
-0.00164905
1.66736e-05
-0.000539718
4.67018e-05
-0.0015099
7.14774e-05
-0.0023923
7.67295e-05
-0.00313244
5.57869e-05
-0.00370828
9.44372e-06
-0.00413811
-5.75584e-05
-0.00446594
-0.000139337
-0.00474114
-0.00023172
-0.00500182
-0.000332602
-0.00527088
-0.000441407
-0.00555939
-0.000558345
-0.00587221
-0.000683928
-0.00621186
-0.000818787
-0.00658032
-0.000963631
-0.00697954
-0.00111924
-0.0074117
-0.00128648
-0.00787936
-0.00146631
-0.00838519
-0.00165912
-0.00893081
-0.0095155
-0.00186441
1.40082e-05
-0.000553726
3.66795e-05
-0.00153257
5.05435e-05
-0.00240616
4.30586e-05
-0.00312496
9.47636e-06
-0.0036747
-4.90177e-05
-0.00407962
-0.000126626
-0.00438833
-0.000218043
-0.00464972
-0.000319585
-0.00490027
-0.000429567
-0.0051609
-0.000547667
-0.00544129
-0.00067422
-0.00574565
-0.000809802
-0.00607628
-0.000955088
-0.00643503
-0.00111082
-0.00682381
-0.00127781
-0.00724471
-0.00145702
-0.00770015
-0.00164952
-0.00819269
-0.0018557
-0.00872462
-0.0092966
-0.0020746
1.12362e-05
-0.000564962
2.64329e-05
-0.00154777
2.95187e-05
-0.00240925
9.95871e-06
-0.0031054
-3.63688e-05
-0.00362837
-0.000105986
-0.00401
-0.000193674
-0.00430064
-0.000294341
-0.00454905
-0.000404766
-0.00478985
-0.000523635
-0.00504203
-0.000650839
-0.00531409
-0.000786815
-0.00560968
-0.000932196
-0.0059309
-0.00108769
-0.00627954
-0.00125408
-0.00665742
-0.0014322
-0.00706658
-0.00162309
-0.00750927
-0.00182798
-0.00798781
-0.00204726
-0.00850534
-0.00906458
-0.00227929
8.3633e-06
-0.000573325
1.60608e-05
-0.00155547
8.7099e-06
-0.0024019
-2.3209e-05
-0.00307348
-8.10388e-05
-0.00357054
-0.000161308
-0.00392973
-0.000258589
-0.00420336
-0.000368143
-0.0044395
-0.000487185
-0.00467081
-0.000614723
-0.00491449
-0.000750828
-0.00517798
-0.000896022
-0.00546448
-0.00105098
-0.00577593
-0.00121646
-0.00611405
-0.00139326
-0.00648063
-0.00158224
-0.0068776
-0.00178451
-0.007307
-0.00200148
-0.00777084
-0.00223355
-0.00827326
-0.00881993
-0.0024782
5.40661e-06
-0.000578732
5.59384e-06
-0.00155565
-1.22868e-05
-0.00238402
-5.56374e-05
-0.00303013
-0.000124491
-0.00350169
-0.000214856
-0.00383937
-0.000321278
-0.00409694
-0.000439378
-0.0043214
-0.000566774
-0.00454341
-0.000702757
-0.00477851
-0.000847545
-0.00503319
-0.00100173
-0.0053103
-0.00116605
-0.00561162
-0.00134127
-0.00593883
-0.00152822
-0.00629368
-0.00172779
-0.00667803
-0.00194112
-0.00709366
-0.00216976
-0.00754221
-0.00241428
-0.00802874
-0.00856261
-0.0026716
2.27253e-06
-0.000581004
-4.90077e-06
-0.00154848
-3.30889e-05
-0.00235583
-8.72337e-05
-0.00297598
-0.000166589
-0.00342233
-0.000266529
-0.00373943
-0.000381666
-0.0039818
-0.000507983
-0.00419508
-0.00064347
-0.00440792
-0.000787662
-0.00463431
-0.000940903
-0.00487995
-0.00110385
-0.00514735
-0.00127727
-0.0054382
-0.00146197
-0.00575413
-0.00165882
-0.00609683
-0.00186872
-0.00646813
-0.00209285
-0.00686953
-0.00233274
-0.00730232
-0.00258928
-0.0077722
-0.00829226
-0.00285963
-1.05294e-06
-0.000579951
-1.54984e-05
-0.00153404
-5.33227e-05
-0.00231801
-0.000117904
-0.0029114
-0.000207229
-0.00333301
-0.000316246
-0.00363041
-0.00043969
-0.00385836
-0.000573905
-0.00406087
-0.000717217
-0.00426461
-0.000869372
-0.00448216
-0.00103082
-0.00471851
-0.00120227
-0.0049759
-0.00138453
-0.00525595
-0.00157844
-0.00556021
-0.00178492
-0.00589036
-0.00200493
-0.00624811
-0.00223973
-0.00663474
-0.00249068
-0.00705137
-0.00275801
-0.00750486
-0.00801074
-0.00303953
-3.92105e-06
-0.00057603
-2.57762e-05
-0.00151218
-7.30218e-05
-0.00227076
-0.000147553
-0.00283687
-0.000246324
-0.00323424
-0.00036394
-0.00351279
-0.0004953
-0.003727
-0.000637097
-0.00391907
-0.000787961
-0.00411375
-0.00094782
-0.0043223
-0.00111721
-0.00454912
-0.00129689
-0.00479622
-0.00148771
-0.00506513
-0.00169054
-0.00535737
-0.00190635
-0.00567456
-0.00213623
-0.00601823
-0.00238149
-0.00638948
-0.00264343
-0.00678942
-0.0029241
-0.0072242
-0.00772885
-0.003206
-6.95144e-06
-0.000569079
-3.58245e-05
-0.00148331
-9.21205e-05
-0.00221446
-0.000176108
-0.00275288
-0.000283806
-0.00312654
-0.000409559
-0.00338704
-0.000548454
-0.00358811
-0.000697518
-0.00377001
-0.000855654
-0.00395561
-0.00102295
-0.00415501
-0.0012
-0.00437206
-0.00138763
-0.00460859
-0.0015867
-0.00486606
-0.00179814
-0.00514594
-0.00202296
-0.00544974
-0.00226235
-0.00577883
-0.00251753