/*--------------------------------*- C++ -*----------------------------------*\
  =========                 |
  \\      /  F ield         | OpenFOAM: The Open Source CFD Toolbox
   \\    /   O peration     | Website:  https://openfoam.org
    \\  /    A nd           | Version:  7
     \\/     M anipulation  |
\*---------------------------------------------------------------------------*/
FoamFile
{
    version     2.0;
    format      ascii;
    class       surfaceScalarField;
    location    "9.999332";
    object      phi;
}
// * * * * * * * * * * * * * * * * * * * * * * * * * * * * * * * * * * * * * //

dimensions      [0 3 -1 0 0 0 0];

internalField   nonuniform List<scalar> 
11411
(
-2.01517e-06
3.44052e-13
-7.40789e-06
-1.79545e-12
-1.5788e-05
-5.42247e-12
-2.67077e-05
-9.32159e-12
-3.96512e-05
-1.26356e-11
-5.40334e-05
-1.46766e-11
-6.91942e-05
-1.48294e-11
-8.43907e-05
-1.24892e-11
-9.87864e-05
-6.79652e-12
3.1687e-12
-1.67623e-05
7.58722e-12
-6.45418e-05
1.65129e-11
-0.000142726
2.27505e-11
-0.000250115
2.76993e-11
-0.000385003
3.14984e-11
-0.000545328
3.40366e-11
-0.00072886
3.51614e-11
-0.000933412
3.48494e-11
-0.00115704
3.31165e-11
-0.00139821
3.0965e-11
2.95582e-11
-1.67623e-05
1.67623e-05
-6.45418e-05
4.77796e-05
-0.000142726
7.81843e-05
-0.000250115
0.000107389
-0.000385003
0.000134888
-0.000545328
0.000160325
-0.00072886
0.000183533
-0.000933412
0.000204552
-0.00115704
0.000223626
-0.00139821
0.000241173
-0.00165593
0.00025772
-0.00192977
0.000273842
-0.00221986
0.000290092
-0.00252682
0.000306951
-0.00285162
0.000324809
-0.00319559
0.000343962
-0.00356022
0.000364639
-0.00394725
0.000387026
-0.00435852
0.000411272
0.000437416
-0.00479594
-1.66842e-05
3.34465e-05
-6.42579e-05
9.53532e-05
-0.00014213
0.000156056
-0.000249125
0.000214384
-0.000383563
0.000269326
-0.000543405
0.000320167
-0.000726442
0.000366569
-0.000930496
0.000408606
-0.00115363
0.000446762
-0.00139432
0.000481864
-0.00165157
0.000514965
-0.00192494
0.00054721
-0.00221455
0.000579702
-0.002521
0.000613406
-0.00284529
0.0006491
-0.00318871
0.00068738
-0.00355277
0.0007287
-0.00393918
0.000773436
-0.00434979
0.000821882
0.00087412
-0.0047865
-1.65286e-05
4.99751e-05
-6.36913e-05
0.000142516
-0.00014094
0.000233305
-0.00024715
0.000320594
-0.000380689
0.000402865
-0.000539567
0.000479045
-0.00072161
0.000548612
-0.000924671
0.000611667
-0.00114683
0.000668919
-0.00138656
0.000721593
-0.00164285
0.000771259
-0.00191527
0.000819628
-0.00220392
0.00086835
-0.00250938
0.000918871
-0.00283264
0.00097236
-0.00317497
0.00102971
-0.00353788
0.00109161
-0.00392306
0.00115862
-0.00433235
0.00123117
0.0013094
-0.00476764
-1.62962e-05
6.62713e-05
-6.28448e-05
0.000189064
-0.000139162
0.000309623
-0.000244196
0.000425627
-0.00037639
0.00053506
-0.000533823
0.000636477
-0.000714378
0.000729168
-0.000915949
0.000813238
-0.00113664
0.000889606
-0.00137492
0.000959879
-0.00162979
0.00102613
-0.00190079
0.00109062
-0.002188
0.00115556
-0.00249198
0.00122285
-0.00281369
0.00129407
-0.0031544
0.00137042
-0.00351559
0.0014528
-0.00389893
0.00154196
-0.00430625
0.00163849
0.00174256
-0.00473941
-1.59883e-05
8.22596e-05
-6.17224e-05
0.000234799
-0.000136803
0.000384703
-0.000240274
0.000529099
-0.00037068
0.000665465
-0.000526189
0.000791986
-0.000704763
0.000907742
-0.000904349
0.00101282
-0.00112308
0.00110834
-0.00135944
0.00119624
-0.00161241
0.0012791
-0.00188152
0.00135973
-0.0021668
0.00144084
-0.00246881
0.00152486
-0.00278848
0.00161374
-0.00312702
0.00170897
-0.00348592
0.0018117
-0.00386683
0.00192286
-0.00427153
0.0020432
0.00217291
-0.00470188
-1.56064e-05
9.7866e-05
-6.03295e-05
0.000279522
-0.000133873
0.000458247
-0.000235401
0.000630626
-0.000363578
0.000793643
-0.000516689
0.000945097
-0.00069279
0.00108384
-0.000889895
0.00120993
-0.00110618
0.00132462
-0.00134014
0.0014302
-0.00159074
0.00152971
-0.00185748
0.00162646
-0.00214037
0.00172374
-0.00243993
0.00182442
-0.00275703
0.00193084
-0.0030929
0.00204483
-0.00344896
0.00216775
-0.00382683
0.00230073
-0.00422829
0.00244466
0.00259976
-0.00465514
-1.51527e-05
0.000113019
-5.86729e-05
0.000323042
-0.000130385
0.00052996
-0.000229593
0.000729834
-0.000355109
0.000919158
-0.00050535
0.00109534
-0.000678487
0.00125698
-0.00087262
0.00140406
-0.00108597
0.00153796
-0.00131704
0.00166128
-0.00156481
0.00177747
-0.00182871
0.00189037
-0.00210875
0.00200377
-0.00240536
0.00212103
-0.00271942
0.0022449
-0.00305208
0.0023775
-0.00340475
0.00252042
-0.00377901
0.002675
-0.00417661
0.00284225
0.00302245
-0.0045993
-1.46295e-05
0.000127648
-5.67605e-05
0.000365173
-0.000126355
0.000599554
-0.000222875
0.000826354
-0.0003453
0.00104158
-0.000492205
0.00124224
-0.000661893
0.00142667
-0.00085256
0.00159473
-0.00106248
0.00174789
-0.0012902
0.001889
-0.00153465
0.00202192
-0.00179526
0.00215098
-0.00207196
0.00228047
-0.00236517
0.00241424
-0.00267568
0.00255542
-0.00300464
0.00270645
-0.00335339
0.00286918
-0.00372349
0.00304509
-0.00411662
0.00323539
0.00344035
-0.00453452
-1.40398e-05
0.000141688
-5.46016e-05
0.000405735
-0.000121799
0.000666752
-0.000215272
0.000919828
-0.000334186
0.0011605
-0.000477294
0.00138535
-0.000643049
0.00159242
-0.000829761
0.00178144
-0.00103578
0.0019539
-0.00125966
0.00211288
-0.00150033
0.00226259
-0.00175718
0.00240783
-0.00203009
0.00255338
-0.00231941
0.00270356
-0.00262591
0.00286191
-0.00295065
0.0030312
-0.00329497
0.00321349
-0.00366035
0.00341048
-0.00404846
0.0036235
0.00385284
-0.00446096
-1.33867e-05
0.000155075
-5.2207e-05
0.000444555
-0.000116738
0.000731283
-0.000206815
0.0010099
-0.000321806
0.00127549
-0.000460662
0.00152421
-0.000622006
0.00175377
-0.000804274
0.00196371
-0.00100589
0.00215552
-0.00122546
0.00233244
-0.00146188
0.00249901
-0.00171451
0.00266046
-0.00198317
0.00282204
-0.00226815
0.00298854
-0.00257016
0.00316392
-0.00289021
0.00335125
-0.00322959
0.00355287
-0.00358975
0.00377063
-0.00397228
0.00400604
0.00425936
-0.00437879
-1.26739e-05
0.000167749
-4.95886e-05
0.00048147
-0.000111196
0.00079289
-0.000197537
0.00109625
-0.000308204
0.00138616
-0.000442362
0.00165836
-0.000598819
0.00191022
-0.000776159
0.00214105
-0.000972898
0.00235226
-0.00118767
0.00254721
-0.00141937
0.00273072
-0.00166732
0.00290841
-0.00193128
0.003086
-0.00221146
0.00326873
-0.00250852
0.00346097
-0.00282341
0.00366614
-0.00315737
0.00388682
-0.00351179
0.00412506
-0.00388824
0.00438248
0.00465935
-0.00428824
-1.19052e-05
0.000179654
-4.67596e-05
0.000516324
-0.000105197
0.000851328
-0.000187478
0.00117853
-0.00029343
0.00149211
-0.00042245
0.00178738
-0.000573553
0.00206133
-0.000745481
0.00231298
-0.000936855
0.00254364
-0.00114635
0.00275671
-0.00137288
0.00295724
-0.00161569
0.00315122
-0.00187449
0.0033448
-0.00214943
0.00354367
-0.00244107
0.00375262
-0.00275034
0.00397541
-0.00307841
0.00421489
-0.00342663
0.00447327
-0.0037965
0.00475236
0.00505235
-0.0041895
-1.1085e-05
0.000190739
-4.37344e-05
0.000548973
-9.87692e-05
0.000906363
-0.000176678
0.00125643
-0.000277538
0.00159297
-0.000400993
0.00191084
-0.00054628
0.00220661
-0.000712315
0.00247901
-0.00089784
0.00272916
-0.00110159
0.00296046
-0.00132246
0.00317812
-0.00155968
0.00338844
-0.00181288
0.00359799
-0.00208212
0.00381291
-0.00236792
0.00403841
-0.00267111
0.00427861
-0.00299283
0.00453661
-0.00333439
0.00481483
-0.00369725
0.00511523
0.00543792
-0.00408282
-1.0218e-05
0.000200957
-4.05287e-05
0.000579284
-9.19433e-05
0.000957777
-0.000165184
0.00132968
-0.000260589
0.00168837
-0.000378062
0.00202831
-0.000517077
0.00234563
-0.000676745
0.00263868
-0.000855938
0.00290835
-0.00105346
0.00315798
-0.00126821
0.00339287
-0.00149939
0.00361961
-0.00174653
0.00384514
-0.00200964
0.00407603
-0.00228914
0.00431791
-0.00258582
0.00457528
-0.00290075
0.00485153
-0.0032352
0.00514929
-0.00359064
0.00547066
0.00581569
-0.0039684
-9.30905e-06
0.000210266
-3.71595e-05
0.000607135
-8.4752e-05
0.00100537
-0.000153047
0.00139797
-0.000242649
0.00177798
-0.000353736
0.0021394
-0.000486033
0.00247792
-0.000638861
0.00279151
-0.000811241
0.00308073
-0.00100205
0.00334879
-0.00121022
0.00360104
-0.00143489
0.00384427
-0.00167554
0.00408579
-0.00193208
0.00433257
-0.00220484
0.00459068
-0.00249456
0.004865
-0.00280226
0.00515923
-0.00312918
0.00547621
-0.00347679
0.00581827
0.00618533
-0.00384643
-8.3635e-06
0.000218629
-3.36446e-05
0.000632416
-7.72307e-05
0.00104896
-0.00014032
0.00146106
-0.00022379
0.00186145
-0.0003281
0.00224371
-0.000453244
0.00260307
-0.000598766
0.00293703
-0.000763852
0.00324582
-0.000947475
0.00353242
-0.00114858
0.00380215
-0.00136629
0.00406197
-0.00159999
0.00431949
-0.00184952
0.0045821
-0.00211512
0.00485628
-0.00239744
0.00514732
-0.00269746
0.00545925
-0.00301641
0.00579516
-0.00335578
0.00615764
0.00654659
-0.00371704
-7.3869e-06
0.000226016
-3.00033e-05
0.000655032
-6.94172e-05
0.00108837
-0.000127062
0.0015187
-0.00020409
0.00193847
-0.00030125
0.00234087
-0.000418815
0.00272063
-0.00055657
0.00307479
-0.000713883
0.00340313
-0.000889837
0.00370837
-0.00108341
0.00399573
-0.00129369
0.00427225
-0.00152001
0.00454581
-0.00176209
0.00482418
-0.00202008
0.00511427
-0.00229455
0.0054218
-0.00258645
0.00575115
-0.00289695
0.00610567
-0.00322762
0.0064883
0.00689922
-0.00358025
-6.38506e-06
0.000232401
-2.62556e-05
0.000674903
-6.13516e-05
0.00112347
-0.000113335
0.00157069
-0.000183632
0.00200877
-0.000273287
0.00243052
-0.000382861
0.00283021
-0.000512398
0.00320432
-0.000661462
0.0035522
-0.000829262
0.00387617
-0.00101483
0.00418129
-0.00121722
0.00447464
-0.00143569
0.00476429
-0.00166989
0.00505837
-0.00191984
0.00536422
-0.00218602
0.00568798
-0.00246931
0.00603444
-0.00277085
0.0064072
-0.00309219
0.00680964
0.00724294
-0.00343591
-5.36401e-06
0.000237765
-2.24227e-05
0.000691961
-5.30761e-05
0.00115412
-9.92065e-05
0.00161682
-0.000162508
0.00207207
-0.000244321
0.00251234
-0.000345508
0.00293139
-0.000466382
0.0033252
-0.000606724
0.00369254
-0.000765886
0.00403533
-0.000942961
0.00435837
-0.00113699
0.00466867
-0.00134719
0.00497448
-0.00157306
0.00528424
-0.00181453
0.0056057
-0.00207199
0.00594544
-0.00234621
0.00630866
-0.00263821
0.0066992
-0.00294917
0.0071206
0.00757762
-0.00328385
-4.32995e-06
0.000242095
-1.85266e-05
0.000706158
-4.46351e-05
0.00118023
-8.47453e-05
0.00165693
-0.000140812
0.00212814
-0.000214472
0.002586
-0.000306891
0.00302381
-0.000418669
0.00343697
-0.00054982
0.00382369
-0.00069986
0.00418537
-0.000867962
0.00452647
-0.00105317
0.00485388
-0.00125463
0.00517594
-0.00147175
0.00550136
-0.00170434
0.0058383
-0.00195268
0.00619377
-0.00221748
0.00657346
-0.0024997
0.00698142
-0.0027991
0.00742
0.00790244
-0.00312392
-3.28926e-06
0.000245385
-1.45898e-05
0.000717459
-3.60751e-05
0.00120171
-7.00261e-05
0.00169088
-0.000118646
0.00217676
-0.000183865
0.00265122
-0.000267158
0.00310711
-0.000369418
0.00353923
-0.000490916
0.00394519
-0.000631349
0.0043258
-0.000789991
0.00468511
-0.000965903
0.00502979
-0.00115817
0.00536821
-0.00136612
0.00570931
-0.00158946
0.00606163
-0.00182837
0.00643269
-0.00208364
0.00682873
-0.002357
0.00725478
-0.00265261
0.00771561
0.00822719
-0.00297736
-2.24837e-06
0.000247633
-1.06359e-05
0.000725846
-2.74442e-05
0.00121852
-5.51261e-05
0.00171856
-9.61198e-05
0.00221775
-0.000152638
0.00270773
-0.000226466
0.00318093
-0.000318804
0.00363157
-0.000430192
0.00405658
-0.000560534
0.00445614
-0.000709224
0.0048338
-0.000875359
0.00519593
-0.00105798
0.00555083
-0.00125633
0.00590766
-0.00147002
0.00627532
-0.00169916
0.00666183
-0.00194453
0.0070741
-0.00220792
0.00751817
-0.00249237
0.00800006
0.00853231
-0.00279749
-1.21431e-06
0.000248847
-6.68945e-06
0.000731321
-1.87923e-05
0.00123062
-4.01264e-05
0.0017399
-7.33454e-05
0.00225097
-0.000120934
0.00275532
-0.000184984
0.00324498
-0.000267012
0.0037136
-0.000367845
0.00415741
-0.000487612
0.00457591
-0.000625854
0.00497205
-0.000781724
0.0053518
-0.00095424
0.00572335
-0.00114255
0.00609597
-0.00134616
0.00647892
-0.00156507
0.00688075
-0.00179994
0.00730897
-0.00205215
0.00777037
-0.0023235
0.00827142
0.00882069
-0.00261188
-2.09876e-07
0.000249057
-2.77628e-06
0.000733888
-1.01703e-05
0.00123802
-2.51105e-05
0.00175484
-5.0442e-05
0.0022763
-8.89052e-05
0.00279379
-0.000142895
0.00329897
-0.000214246
0.00378495
-0.000304087
0.00424725
-0.000412799
0.00468462
-0.000540093
0.00509934
-0.000685199
0.0054969
-0.000847125
0.00588527
-0.00102494
0.00627378
-0.00121801
0.006672
-0.00142621
0.00708894
-0.00164994
0.0075327
-0.0018901
0.00801054
-0.00214749
0.0085288
0.00909294
-0.00241973
8.16094e-07
0.000248241
1.08396e-06
0.00073362
-1.63028e-06
0.00124073
-1.01641e-05
0.00176337
-2.75332e-05
0.00229367
-5.67131e-05
0.00282297
-0.000100391
0.00334265
-0.000160722
0.00384528
-0.000239151
0.00432568
-0.000336332
0.0047818
-0.000452173
0.00521518
-0.000586006
0.00563074
-0.000736846
0.00603611
-0.000903682
0.00644061
-0.00108575
0.00685407
-0.00128272
0.00728591
-0.00149472
0.00774471
-0.0017222
0.00823801
-0.00196526
0.00877186
0.0093495
-0.00222182
1.77986e-06
0.000246461
4.86502e-06
0.000730535
6.77691e-06
0.00123882
4.62517e-06
0.00176552
-4.74437e-06
0.00230304
-2.4525e-05
0.00284275
-5.76763e-05
0.0033758
-0.000106675
0.00389428
-0.000173289
0.00439229
-0.000258469
0.00486698
-0.000362348
0.00531906
-0.000484388
0.00575278
-0.000623632
0.00617536
-0.000779
0.00659598
-0.00094958
0.00702465
-0.00113482
0.00747115
-0.00133457
0.00794446
-0.00154885
0.00845229
-0.00177736
0.00900037
0.00959063
-0.0020185
2.72019e-06
0.000243741
8.53931e-06
0.000724716
1.4997e-05
0.00123236
1.91655e-05
0.00176135
1.77856e-05
0.00230442
7.48452e-06
0.00285305
-1.49651e-05
0.00339825
-5.23519e-05
0.00393167
-0.00010677
0.00444671
-0.000179491
0.00493971
-0.000270898
0.00541047
-0.000380616
0.00586249
-0.000507737
0.00630248
-0.000651129
0.00673937
-0.000809732
0.00718325
-0.000982767
0.00764419
-0.00116978
0.00813147
-0.00137047
0.00865298
-0.0015843
0.0092142
0.0098164
-0.00181007
3.62235e-06
0.000240119
1.20863e-05
0.000716252
2.29788e-05
0.00122147
3.33698e-05
0.00175096
3.99286e-05
0.00229786
3.91277e-05
0.00285385
2.75121e-05
0.00340987
1.99762e-06
0.00395718
-3.98851e-05
0.00448859
-9.97035e-05
0.00499952
-0.000178131
0.0054889
-0.000274987
0.00595935
-0.000389446
0.00641694
-0.000520342
0.00687027
-0.000666473
0.00732938
-0.000826836
0.00780455
-0.0010007
0.00830534
-0.00118747
0.00883974
-0.00138648
0.00941322
0.0100268
-0.00159685
4.47982e-06
0.000235639
1.54826e-05
0.000705249
3.06711e-05
0.00120628
4.71478e-05
0.00173449
6.15476e-05
0.00228346
7.02257e-05
0.00284517
6.95186e-05
0.00341058
5.60494e-05
0.00397065
2.7047e-05
0.0045176
-1.94386e-05
0.00504601
-8.4384e-05
0.00555384
-0.000167833
0.0060428
-0.000269076
0.00651818
-0.000386941
0.00698813
-0.0005201
0.00746254
-0.000667338
0.00795179
-0.000827659
0.00846566
-0.00100023
0.00901232
-0.00118429
0.00959728
0.0102216
-0.00137917
5.28701e-06
0.000230352
1.87061e-05
0.00069183
3.80241e-05
0.00118696
6.04109e-05
0.0017121
8.25061e-05
0.00226137
0.000100586
0.00282709
0.000110815
0.00340035
0.000109555
0.00397191
9.36985e-05
0.00453345
6.09435e-05
0.00507876
9.97532e-06
0.00560481
-5.95167e-05
0.00611229
-0.000146978
0.00660564
-0.000251261
0.00709242
-0.000370941
0.00758222
-0.000504605
0.00808545
-0.000651019
0.00861207
-0.000809131
0.00917043
-0.000978095
0.00976624
0.0104009
-0.00115734
6.0388e-06
0.000224313
2.17361e-05
0.000676132
4.49901e-05
0.00116371
7.30728e-05
0.00168402
0.000102669
0.00223177
0.000130018
0.00279974
0.00015115
0.00337922
0.000162192
0.00396087
0.000159717
0.00453593
0.00014106
0.00509742
0.000104545
0.00564132
4.95601e-05
0.00616728
-2.35406e-05
0.00667874
-0.000113674
0.00718255
-0.000219354
0.0076879
-0.000338992
0.00820509
-0.000471139
0.00874422
-0.000614534
0.00931382
-0.000768233
0.00991994
0.0105643
-0.000931668
6.73061e-06
0.000217582
2.45535e-05
0.00065831
5.15242e-05
0.00113674
8.50505e-05
0.00165049
0.000121903
0.00219492
0.00015833
0.00276331
0.000190267
0.00334728
0.000213643
0.00393749
0.000224729
0.00452484
0.000220498
0.00510165
0.000198893
0.00566293
0.000158959
0.00620721
0.000100809
0.00673689
2.54074e-05
0.00725795
-6.57321e-05
0.00777904
-0.000170873
0.00831023
-0.00028839
0.00886173
-0.000416801
0.00944223
-0.000555055
0.0100582
0.0107117
-0.000702473
7.35847e-06
0.000210224
2.71411e-05
0.000638527
5.75846e-05
0.0011063
9.62654e-05
0.00161181
0.00014008
0.0021511
0.000185331
0.00271806
0.00022791
0.0033047
0.000263581
0.00390182
0.000288348
0.00450007
0.000298821
0.00509118
0.000292549
0.0056692
0.000268202
0.00623156
0.000225599
0.0067795
0.000165538
0.00731801
8.94976e-05
0.00785508
-7.26471e-07
0.00840046
-0.000103165
0.00896417
-0.000216293
0.00955536
-0.000338911
0.0101808
0.0108429
-0.000470074
7.919e-06
0.000202305
2.94838e-05
0.000616962
6.31338e-05
0.00107265
0.000106644
0.0015683
0.000157078
0.00210067
0.000210839
0.0026643
0.000263821
0.00325172
0.000311677
0.00385397
0.000350169
0.00446158
0.000375566
0.00506578
0.000385011
0.00565976
0.000376768
0.0062398
0.000350312
0.00680595
0.000306215
0.00736211
0.000245884
0.00791541
0.000171212
0.00847513
8.41554e-05
0.00905123
-1.34609e-05
0.00965298
-0.0001201
0.0102875
0.0109576
-0.000234784
8.40953e-06
0.000193895
3.15688e-05
0.000593803
6.81386e-05
0.00103608
0.000116121
0.00152032
0.000172783
0.00204401
0.000234675
0.00260241
0.00029775
0.00318864
0.000357596
0.00379412
0.000409779
0.0044094
0.00045025
0.00502531
0.000475744
0.00563426
0.000484093
0.00623145
0.000474381
0.00681567
0.000446894
0.0073896
0.000402894
0.00795941
0.00034427
0.00853375
0.000273137
0.00912236
0.000191535
0.00973458
0.000100875
0.0103781
0.0110579
6.18615e-07
8.82814e-06
0.000185067
3.33861e-05
0.000569245
7.25714e-05
0.00099689
0.000124637
0.00146825
0.00018709
0.00198155
0.000256674
0.00253282
0.000329454
0.00311586
0.000401009
0.00372257
0.00046676
0.00434365
0.000522371
0.0049697
0.000564182
0.00559245
0.000589572
0.00620606
0.000597189
0.00680805
0.000586969
0.00739982
0.000559961
0.00798642
0.000518001
0.00857571
0.000463287
0.00917707
0.000398011
0.00979986
0.000324
0.0104521
0.0111391
0.000242755
9.17363e-06
0.000175894
3.49282e-05
0.00054349
7.64099e-05
0.000955409
0.000132143
0.00141252
0.000199907
0.00191379
0.000276683
0.00245605
0.000358701
0.00303385
0.000441593
0.00363967
0.00052069
0.00426455
0.000591415
0.00489897
0.000649731
0.00553414
0.000692558
0.00616323
0.000718065
0.00678254
0.000725776
0.00739211
0.000716457
0.00799573
0.000691818
0.00860035
0.000654092
0.0092148
0.000605615
0.00984833
0.000548452
0.0105093
0.0112034
0.000484121
9.44564e-06
0.000166448
3.61908e-05
0.000516745
7.96382e-05
0.000911961
0.000138601
0.00135356
0.000211156
0.00184124
0.000294565
0.00237264
0.000385277
0.00294313
0.000479039
0.00354591
0.000571155
0.00417244
0.000656861
0.00481327
0.000731776
0.00545922
0.000792362
0.00610264
0.000836283
0.00673862
0.000862589
0.0073658
0.000871684
0.00798664
0.000865075
0.00860696
0.000844963
0.00923491
0.000813795
0.0098795
0.000773834
0.0105492
0.0112504
0.000726905
9.64458e-06
0.000156803
3.71725e-05
0.000489217
8.22471e-05
0.000866887
0.000143981
0.00129182
0.000220774
0.00176444
0.000310204
0.00228321
0.000408988
0.00284435
0.000513055
0.00344184
0.000617751
0.00406774
0.000718187
0.00471283
0.000809685
0.00536772
0.000888265
0.00602406
0.000951066
0.00667582
0.000996613
0.00732025
0.00102487
0.00795838
0.00103705
0.00859478
0.00103525
0.00923671
0.00102198
0.00989277
0.000999707
0.0105715
0.0112795
0.000970547
9.77169e-06
0.000147032
3.78749e-05
0.000461114
8.42341e-05
0.000820527
0.000148268
0.00122779
0.000228717
0.00168399
0.000323505
0.00218842
0.000429669
0.00273819
0.000543379
0.00332814
0.000660096
0.00395102
0.000774881
0.00459805
0.000882818
0.00525979
0.000979517
0.00592736
0.00106159
0.00659375
0.00112699
0.00725486
0.00117516
0.00791021
0.00120694
0.008563
0.00122424
0.00921942
0.00122955
0.00988746
0.00122551
0.0105756
0.0112905
0.00121453
9.82897e-06
0.000137203
3.83029e-05
0.00043264
8.56035e-05
0.000773227
0.000151458
0.00116193
0.000234957
0.00160049
0.000334399
0.00208898
0.000447181
0.0026254
0.000569776
0.00320554
0.000697836
0.00382296
0.00082645
0.00446943
0.000950538
0.0051357
0.00106535
0.00581255
0.00116698
0.00649212
0.00125278
0.00716906
0.00132161
0.00784137
0.00137385
0.00851076
0.00141108
0.00918218
0.00143575
0.0098628
0.00145059
0.0105607
0.0112828
0.00145828
9.81917e-06
0.000127384
3.84643e-05
0.000403995
8.63668e-05
0.000725324
0.000153559
0.00109474
0.000239488
0.00151457
0.000342843
0.00198562
0.000461421
0.00250683
0.000592051
0.00307491
0.000730654
0.00368436
0.000872432
0.00432766
0.00101222
0.00499591
0.00114499
0.00567979
0.00126632
0.00637078
0.00137299
0.00706239
0.0014632
0.00775116
0.00153676
0.00843721
0.00159486
0.00912408
0.00163975
0.00981791
0.00167422
0.0105262
0.0112559
0.00170116
9.74573e-06
0.000117638
3.83697e-05
0.000375371
8.6542e-05
0.000677152
0.000154592
0.00102669
0.000242321
0.00142684
0.000348824
0.00187912
0.000472322
0.00238333
0.000610056
0.00293718
0.000758282
0.00353613
0.000912406
0.00417353
0.00106728
0.00484103
0.00121765
0.00552942
0.0013587
0.00622973
0.00148658
0.00693452
0.00159882
0.00763892
0.00169456
0.00834146
0.0017745
0.00904413
0.00184058
0.00975183
0.00189554
0.0104713
0.011209
0.00194241
9.61272e-06
0.000108025
3.80327e-05
0.000346951
8.61539e-05
0.000629031
0.000154589
0.000958254
0.00024349
0.00133794
0.000352357
0.00177025
0.000479858
0.00225583
0.000623687
0.00279335
0.000780504
0.00337932
0.000946006
0.00400803
0.00111516
0.00467187
0.00128261
0.00536197
0.00144318
0.00606917
0.00159245
0.00678525
0.00172726
0.00750411
0.00184603
0.00822269
0.00194882
0.00894134
0.00203714
0.00966351
0.00211356
0.0103949
0.0111414
0.00218115
9.42477e-06
9.86004e-05
3.74688e-05
0.000318907
8.52329e-05
0.000581267
0.000153597
0.00088989
0.000243047
0.00124849
0.000353488
0.00165981
0.000484046
0.00212527
0.000632899
0.00264449
0.000797169
0.00321505
0.000972933
0.00383227
0.00115538
0.00448943
0.00133915
0.0051782
0.00151883
0.0058895
0.00168948
0.0066146
0.00184726
0.00734633
0.00198981
0.00808014
0.00211647
0.00881468
0.00222816
0.00955182
0.00232713
0.0102959
0.0110522
0.00241637
9.18696e-06
8.94135e-05
3.6696e-05
0.000291398
8.38149e-05
0.000534148
0.00015167
0.000822035
0.000241064
0.00115909
0.000352292
0.00154858
0.000484943
0.00199262
0.000637699
0.00249174
0.000808195
0.00304455
0.000992964
0.0036475
0.00118753
0.00429486
0.00138665
0.00497908
0.00158476
0.00569138
0.00177655
0.00642281
0.0019575
0.00716538
0.00212447
0.00791317
0.00227596
0.00866319
0.0024122
0.00941558
0.00253493
0.0101732
0.0109402
0.00264688
8.90471e-06
8.05087e-05
3.57338e-05
0.000264569
8.19403e-05
0.000487941
0.000148873
0.000755103
0.000237627
0.00107034
0.000348873
0.00143734
0.000482648
0.00185884
0.000638154
0.00233623
0.000813575
0.00286913
0.00100597
0.00345511
0.00121128
0.00408955
0.00142453
0.00476582
0.00164017
0.00547575
0.00185256
0.00621042
0.00205665
0.00696129
0.00224848
0.00772134
0.00242569
0.00848599
0.00258764
0.00925363
0.00273542
0.0100254
0.0108044
0.00287127
8.5837e-06
7.1925e-05
3.46031e-05
0.000238549
7.96534e-05
0.000442891
0.000145279
0.000689478
0.000232841
0.000982775
0.000343358
0.00132682
0.000477302
0.0017249
0.00063439
0.00217914
0.000813378
0.00269014
0.0010119
0.00325658
0.00122644
0.00387501
0.00145238
0.00453989
0.00168431
0.00524381
0.00191648
0.00597825
0.00214336
0.00673442
0.00236026
0.00750443
0.0025639
0.00828235
0.00275269
0.00906484
0.00292688
0.00985119
0.0106433
0.00308794
8.22972e-06
6.36953e-05
3.33256e-05
0.000213454
7.70008e-05
0.000399216
0.000140967
0.000625511
0.000226822
0.000896921
0.000335898
0.00121775
0.00046908
0.00159172
0.000626586
0.00202164
0.000807751
0.00250898
0.00101084
0.00305349
0.00123291
0.00365294
0.00146987
0.00430293
0.0017166
0.00499708
0.00196737
0.00572748
0.00221634
0.00648545
0.0024582
0.00726258
0.00268875
0.0080518
0.00290539
0.0088482
0.00310733
0.00964925
0.0104556
0.00329501
7.84855e-06
5.58468e-05
3.19233e-05
0.000189379
7.40308e-05
0.000357109
0.000136022
0.00056352
0.000219694
0.000813248
0.000326664
0.00111078
0.000458191
0.00146019
0.000614972
0.00186486
0.000796917
0.00232703
0.00100293
0.00284748
0.00123074
0.00342513
0.00147685
0.00405682
0.00173659
0.00473734
0.00200444
0.00545963
0.00227442
0.00621547
0.00254073
0.00699627
0.00279836
0.00779417
0.00304364
0.00860292
0.00327462
0.00941827
0.0102398
0.0034904
7.44584e-06
4.84009e-05
3.0418e-05
0.000166407
7.07921e-05
0.000316734
0.000130528
0.000503785
0.00021159
0.000732185
0.000315839
0.00100653
0.00044487
0.00133116
0.000599825
0.0017099
0.000781166
0.00214569
0.000988444
0.0026402
0.00122009
0.00319348
0.0014733
0.00380361
0.00174401
0.00446663
0.00202704
0.0051766
0.00231653
0.00592599
0.00260635
0.00670644
0.00289083
0.00750969
0.00316526
0.00832849
0.00342642
0.00915711
0.00999449
0.00367178
7.02698e-06
4.1374e-05
2.8831e-05
0.000144603
6.73327e-05
0.000278233
0.000124572
0.000446546
0.000202645
0.000654112
0.000303615
0.000905559
0.00042937
0.0012054
0.000581454
0.00155782
0.000760849
0.0019663
0.000967738
0.00243331
0.00120128
0.00295994
0.00145941
0.00354548
0.00173877
0.00418727
0.00203478
0.0048806
0.00234182
0.00561894
0.00265373
0.00639452
0.00296434
0.00719909
0.00326802
0.00802481
0.00356026
0.00886487
0.0097181
0.00383665
6.597e-06
3.4777e-05
2.71822e-05
0.000124017
6.36989e-05
0.000241716
0.000118238
0.000392007
0.000192994
0.000579356
0.000290189
0.000808363
0.00041196
0.00108363
0.000560201
0.00140958
0.000736369
0.00179013
0.000941248
0.00222843
0.00117471
0.00272647
0.00143549
0.0032847
0.00172104
0.00390172
0.00202747
0.00457417
0.00234969
0.00529672
0.00268173
0.00606248
0.00301718
0.00686363
0.00334973
0.00769226
0.00367363
0.00854097
0.00940928
0.00398245
6.16042e-06
2.86165e-05
2.54903e-05
0.000104687
5.99338e-05
0.000207273
0.000111607
0.000340334
0.000182767
0.000508195
0.000275757
0.000715374
0.000392911
0.00096648
0.000536422
0.00126606
0.000708166
0.00161838
0.000909481
0.00202712
0.00114093
0.00249503
0.00140205
0.00302358
0.00169115
0.00361262
0.00200519
0.00426013
0.00233981
0.00496211
0.00268948
0.0057128
0.0030479
0.00650521
0.00340835
0.00733181
0.00376404
0.00818528
0.00906668
0.00410664
5.72124e-06
2.28953e-05
2.37718e-05
8.66369e-05
5.6077e-05
0.000174967
0.000104753
0.000291658
0.000172089
0.00044086
0.000260508
0.000626954
0.000372494
0.000854494
0.000510482
0.00112808
0.000676704
0.00145216
0.000872995
0.00183083
0.00110056
0.00226746
0.00135971
0.00276442
0.00164966
0.00332267
0.0019683
0.00394149
0.00231216
0.00461825
0.00267645
0.00534851
0.0030553
0.00612636
0.00344201
0.0069451
0.00382915
0.00779815
0.00868887
0.00420696
5.2828e-06
1.76125e-05
2.20412e-05
6.98785e-05
5.21639e-05
0.000144845
9.77441e-05
0.000246078
0.000161075
0.000377529
0.000244621
0.000543408
0.000350971
0.000748145
0.000482741
0.000996305
0.000642459
0.00129244
0.000832384
0.0016409
0.00105429
0.00204555
0.00130925
0.00250947
0.00159732
0.0030346
0.00191741
0.0036214
0.00226706
0.0042686
0.00264245
0.00497312
0.00303852
0.00573029
0.00344911
0.00653451
0.00386679
0.00738047
0.00827395
0.0042817
4.8478e-06
1.27647e-05
2.03105e-05
5.44158e-05
4.82247e-05
0.000116931
9.0641e-05
0.000203661
0.000149829
0.000318341
0.000228263
0.000464973
0.000328588
0.00064782
0.000453551
0.000871342
0.000605905
0.00114009
0.000788256
0.00145855
0.00100288
0.00183093
0.00125151
0.00226085
0.00153505
0.00275106
0.00185338
0.00330307
0.00220514
0.00391684
0.00258767
0.00459059
0.00299708
0.00532088
0.00342831
0.00610328
0.00387504
0.00693374
0.00781893
0.00433007
4.41829e-06
8.34641e-06
1.85896e-05
4.02444e-05
4.42848e-05
9.12354e-05
8.3495e-05
0.000164451
0.000138443
0.000263393
0.000211583
0.000391834
0.000305575
0.000553828
0.000423244
0.000753673
0.0005675
0.000995835
0.000741223
0.00128483
0.000947102
0.00162505
0.00118743
0.00202051
0.00146389
0.0024746
0.00177728
0.00298968
0.00212735
0.00356677
0.0025127
0.00420525
0.00293086
0.00490272
0.00337855
0.00565559
0.00385217
0.00646012
0.00731845
0.00435265
3.99567e-06
4.35074e-06
1.68859e-05
2.73542e-05
4.03649e-05
6.77565e-05
7.63496e-05
0.000128466
0.000126998
0.000212744
0.000194713
0.000324119
0.000282138
0.000466403
0.000392126
0.000643685
0.000527682
0.000860278
0.000691881
0.00112063
0.000887727
0.0014292
0.00111799
0.00179025
0.00138499
0.0022076
0.00169039
0.00268428
0.00203497
0.0032222
0.00241853
0.00382168
0.00284012
0.00448113
0.00329867
0.00519704
0.00379636
0.00596242
0.00676327
0.00435154
3.58082e-06
7.6992e-07
1.52049e-05
1.57302e-05
3.64808e-05
4.64805e-05
6.92402e-05
9.57069e-05
0.000115559
0.000166426
0.000177769
0.000261908
0.000258463
0.000385709
0.000360478
0.00054167
0.00048686
0.000733896
0.0006408
0.000966692
0.000825529
0.00124447
0.00104418
0.0015716
0.0012996
0.00195217
0.00159417
0.00238972
0.00192954
0.00288682
0.00230658
0.00344464
0.00272553
0.00406218
0.00318682
0.00473576
0.00369851
0.00545074
0.00613089
0.00433089
3.17415e-06
-2.40423e-06
1.35501e-05
5.35418e-06
3.26448e-05
2.73858e-05
6.21955e-05
6.61563e-05
0.000104183
0.000124438
0.000160851
0.00020524
0.000234714
0.000311846
0.000328555
0.000447829
0.00044541
0.000617041
0.000588518
0.000823584
0.00076125
0.00107174
0.000966992
0.00136586
0.001209
0.00171017
0.00149019
0.00210853
0.00181295
0.00256406
0.00217894
0.00307865
0.00258903
0.00365209
0.00304335
0.00428143
0.00353827
0.00495582
0.00560366
0.00406549
2.77573e-06
-5.17996e-06
1.19241e-05
-3.79419e-06
2.88661e-05
1.04438e-05
5.52383e-05
3.97841e-05
9.29181e-05
8.67582e-05
0.000144044
0.000154114
0.000211032
0.000244858
0.000296583
0.000362278
0.000403675
0.000509949
0.000535537
0.000691722
0.000695598
0.00091168
0.000887398
0.00117406
0.00111446
0.0014831
0.00138014
0.00184285
0.00168737
0.00225683
0.00203845
0.00272757
0.00243472
0.00325582
0.00287644
0.00383971
0.00336187
0.00447039
0.00508317
0.00388236
2.38544e-06
-7.5654e-06
1.03284e-05
-1.17371e-05
2.51518e-05
-4.37955e-06
4.83879e-05
1.65479e-05
8.18038e-05
5.33424e-05
0.000127423
0.000108495
0.000187547
0.000184734
0.000264767
0.000285059
0.000361967