0.206637 	0.462342 	-3.4679e-19 	1.09767 	-0.0382599 	8.05955e-17
0.208319 	0.466103 	2.41535e-18 	1.08588 	-0.0380251 	-2.43788e-17
0.210413 	0.470789 	2.48285e-18 	1.08359 	-0.0359701 	-1.97496e-17
0.21292 	0.476399 	2.81025e-18 	0.998024 	-0.0308421 	6.86141e-17
0.217109 	0.485771 	3.53742e-18 	0.743818 	-0.0168468 	6.30295e-17
0.219602 	0.491348 	4.38184e-18 	0.255191 	0.00025455 	8.92798e-17
0.221696 	0.496034 	3.45072e-18 	0.247521 	0.000602249 	6.07548e-17
