/*--------------------------------*- C++ -*----------------------------------*\
  =========                 |
  \\      /  F ield         | OpenFOAM: The Open Source CFD Toolbox
   \\    /   O peration     | Website:  https://openfoam.org
    \\  /    A nd           | Version:  7
     \\/     M anipulation  |
\*---------------------------------------------------------------------------*/
FoamFile
{
    version     2.0;
    format      ascii;
    class       volScalarField;
    location    "14";
    object      p;
}
// * * * * * * * * * * * * * * * * * * * * * * * * * * * * * * * * * * * * * //

dimensions      [0 2 -2 0 0 0 0];

internalField   nonuniform List<scalar> 
433
(
-4.20502
-4.20421
-4.08255
-2.45602
-2.44639
-2.43667
-2.42686
-2.41698
-2.40702
-2.39699
-2.38689
-2.37672
-2.36649
-2.35613
-2.4607
-2.45099
-2.4412
-2.43134
-2.4214
-2.41139
-2.40133
-2.39121
-2.38103
-2.37079
-2.36046
-2.46987
-2.46003
-2.45012
-2.44013
-2.43008
-2.41997
-2.40981
-2.39961
-2.38936
-2.37907
-2.36868
-2.48323
-2.4732
-2.4631
-2.45294
-2.44272
-2.43245
-2.42214
-2.41179
-2.40141
-2.391
-2.3805
-2.50052
-2.49024
-2.4799
-2.4695
-2.45905
-2.44856
-2.43803
-2.42748
-2.41691
-2.40632
-2.39563
-2.52153
-2.51094
-2.5003
-2.4896
-2.47885
-2.46808
-2.45727
-2.44646
-2.43563
-2.42478
-2.41385
-2.54609
-2.53513
-2.52412
-2.51305
-2.50195
-2.49082
-2.47967
-2.46852
-2.45737
-2.44621
-2.43496
-2.57408
-2.56268
-2.55123
-2.53972
-2.52819
-2.51663
-2.50507
-2.49351
-2.48196
-2.47042
-2.45877
-2.60541
-2.59348
-2.5815
-2.56948
-2.55743
-2.54537
-2.53331
-2.52126
-2.50924
-2.49724
-2.48511
-2.63998
-2.62745
-2.61485
-2.60222
-2.58957
-2.57692
-2.56427
-2.55165
-2.53907
-2.52652
-2.51383
-2.67774
-2.66449
-2.65119
-2.63786
-2.6245
-2.61115
-2.59782
-2.58453
-2.5713
-2.5581
-2.54476
-2.71864
-2.70456
-2.69044
-2.67628
-2.66211
-2.64796
-2.63383
-2.61977
-2.60577
-2.59183
-2.57772
-2.76261
-2.74759
-2.73251
-2.7174
-2.70229
-2.68721
-2.67217
-2.6572
-2.64233
-2.62752
-2.61254
-2.80962
-2.79349
-2.77732
-2.76112
-2.74493
-2.72877
-2.71268
-2.69667
-2.68079
-2.66499
-2.649
-2.85959
-2.8422
-2.82477
-2.80732
-2.78988
-2.7725
-2.7552
-2.738
-2.72096
-2.70403
-2.68688
-2.91246
-2.89363
-2.87475
-2.85587
-2.83701
-2.81822
-2.79954
-2.78099
-2.76263
-2.74439
-2.72594
-2.96814
-2.94766
-2.92713
-2.90661
-2.88614
-2.86575
-2.84548
-2.82539
-2.80553
-2.78583
-2.76589
-3.02654
-3.00417
-2.98177
-2.95938
-2.93706
-2.91485
-2.8928
-2.87095
-2.84938
-2.82802
-2.80641
-3.08751
-3.063
-3.03846
-3.01396
-2.98954
-2.96527
-2.94119
-2.91737
-2.89387
-2.87064
-2.84716
-3.1509
-3.12395
-3.09699
-3.07009
-3.04331
-3.01671
-2.99035
-2.9643
-2.93864
-2.9133
-2.88774
-3.2165
-3.18679
-3.1571
-3.1275
-3.09805
-3.06883
-3.03991
-3.01136
-2.98328
-2.95561
-2.92772
-3.28406
-3.25125
-3.21849
-3.18585
-3.15341
-3.12126
-3.08947
-3.05813
-3.02736
-2.9971
-2.96665
-3.35328
-3.31699
-3.28078
-3.24475
-3.20898
-3.17356
-3.13859
-3.10416
-3.07041
-3.03729
-3.00405
-3.42382
-3.38363
-3.34358
-3.30377
-3.26429
-3.22526
-3.18678
-3.14894
-3.11192
-3.07569
-3.03941
-3.49525
-3.45074
-3.40642
-3.36242
-3.31886
-3.27585
-3.23351
-3.19194
-3.15134
-3.11174
-3.0722
-3.56708
-3.51778
-3.46877
-3.42017
-3.37213
-3.32477
-3.27821
-3.2326
-3.18813
-3.14492
-3.10191
-3.63876
-3.5842
-3.53003
-3.47641
-3.42348
-3.3714
-3.3203
-3.27031
-3.22169
-3.17464
-3.12799
-3.70964
-3.64933
-3.58955
-3.53049
-3.47229
-3.41512
-3.35913
-3.30447
-3.25141
-3.20031
-3.14985
-3.77899
-3.71245
-3.64663
-3.58172
-3.51787
-3.45528
-3.39408
-3.33444
-3.27666
-3.22131
-3.16689
-3.846
-3.77278
-3.70051
-3.62937
-3.55953
-3.49119
-3.42449
-3.35959
-3.29682
-3.237
-3.17841
-3.90981
-3.82951
-3.75041
-3.6727
-3.59658
-3.52221
-3.44974
-3.37929
-3.31124
-3.24671
-3.1837
-3.96949
-3.88177
-3.79554
-3.71102
-3.62836
-3.54772
-3.46924
-3.39298
-3.31934
-3.24981
-3.182
-4.02411
-3.92875
-3.83522
-3.74369
-3.65431
-3.56722
-3.48251
-3.40019
-3.32065
-3.24577
-3.17267
-4.07275
-3.96974
-3.86888
-3.7703
-3.6741
-3.58042
-3.48928
-3.40064
-3.31487
-3.23426
-3.15523
-4.11457
-4.00423
-3.89631
-3.79084
-3.68788
-3.58751
-3.48975
-3.39446
-3.30207
-3.21522
-3.12954
-4.14865
-4.0318
-3.91756
-3.80581
-3.69647
-3.58953
-3.48496
-3.38261
-3.283
-3.18917
-3.09588
-4.1741
-4.05222
-3.93311
-3.81637
-3.70167
-3.58879
-3.47755
-3.36772
-3.25994
-3.15779
-3.05542
-4.19023
-4.0656
-3.94395
-3.82449
-3.70651
-3.5894
-3.47261
-3.35555
-3.23871
-3.12609
-4.32403
-4.19438
-4.06927
-3.94748
-3.82779
-3.70906
-3.59021
-3.47017
-4.31689
-4.18697
-4.06219
-3.9409
-3.82153
)
;

boundaryField
{
    inlet
    {
        type            zeroGradient;
    }
    outlet
    {
        type            fixedValue;
        value           nonuniform 0();
    }
    cylinder
    {
        type            zeroGradient;
    }
    top
    {
        type            symmetryPlane;
    }
    bottom
    {
        type            symmetryPlane;
    }
    defaultFaces
    {
        type            empty;
    }
    procBoundary3to2
    {
        type            processor;
        value           nonuniform List<scalar> 
33
(
-2.46556
-2.47032
-2.47963
-2.49318
-2.51072
-2.53204
-2.55697
-2.58541
-2.61726
-2.65245
-2.69092
-2.73264
-2.77757
-2.82567
-2.8769
-2.93121
-2.98855
-3.04883
-3.11196
-3.17778
-3.24615
-3.31683
-3.38956
-3.46403
-3.53984
-3.61654
-3.69358
-3.77033
-3.84606
-3.91996
-3.99112
-4.05852
-4.12111
)
;
    }
    procBoundary3to4
    {
        type            processor;
        value           nonuniform List<scalar> 
24
(
-2.33803
-2.34229
-2.35035
-2.36191
-2.37668
-2.39444
-2.41498
-2.43811
-2.46365
-2.49142
-2.52126
-2.55297
-2.58635
-2.62119
-2.65723
-2.69422
-2.73184
-2.76976
-2.80762
-2.84499
-2.88143
-2.91646
-2.94953
-2.98007
)
;
    }
    procBoundary3to8
    {
        type            processor;
        value           nonuniform List<scalar> 
11
(
-4.33097
-4.33114
-4.33114
-4.17777
-4.22729
-4.26828
-4.29921
-4.31867
-4.31867
-4.45944
-4.45361
)
;
    }
    procBoundary3to9
    {
        type            processor;
        value           nonuniform List<scalar> 
16
(
-4.20372
-4.08443
-4.08443
-3.96415
-3.96415
-3.84721
-3.01172
-3.34772
-3.22272
-3.01172
-3.09935
-3.70254
-3.58243
-3.34772
-3.45973
-3.70254
)
;
    }
    procBoundary3to10
    {
        type            processor;
        value           nonuniform List<scalar> 
13
(
-3.00744
-3.03094
-3.04981
-3.06318
-3.07013
-3.06974
-3.06112
-3.04359
-3.01675
-2.9806
-2.93555
-2.88244
-2.82242
)
;
    }
}


// ************************************************************************* //
