/*--------------------------------*- C++ -*----------------------------------*\
  =========                 |
  \\      /  F ield         | OpenFOAM: The Open Source CFD Toolbox
   \\    /   O peration     | Website:  https://openfoam.org
    \\  /    A nd           | Version:  7
     \\/     M anipulation  |
\*---------------------------------------------------------------------------*/
FoamFile
{
    version     2.0;
    format      ascii;
    class       volVectorField;
    location    "1.5";
    object      U;
}
// * * * * * * * * * * * * * * * * * * * * * * * * * * * * * * * * * * * * * //

dimensions      [0 1 -1 0 0 0 0];

internalField   nonuniform List<vector> 
344
(
(1.02126 -0.00634405 1.01011e-15)
(1.02247 -0.00613736 -2.95771e-15)
(1.02364 -0.00593261 3.03896e-16)
(1.02475 -0.00573021 -3.09293e-15)
(1.02581 -0.005514 4.07289e-16)
(1.02683 -0.00528604 -3.19265e-15)
(1.0278 -0.00507176 3.38112e-16)
(1.02872 -0.00487818 -3.38388e-15)
(1.0296 -0.00468598 1.01609e-15)
(1.03046 -0.00448429 -4.0116e-15)
(1.03126 -0.0042786 7.57943e-16)
(1.03202 -0.00407646 -3.82855e-15)
(1.03276 -0.00388819 1.18084e-15)
(1.03346 -0.00371993 -4.12115e-15)
(1.03412 -0.00355529 1.53511e-15)
(1.03475 -0.00337099 -3.84909e-15)
(1.03535 -0.00317552 1.18441e-15)
(1.0359 -0.0030024 -4.05751e-15)
(1.03642 -0.00286316 1.04406e-15)
(1.03692 -0.00273511 -3.52033e-15)
(1.03741 -0.00259453 5.36948e-16)
(1.03785 -0.00244001 -3.62589e-15)
(1.03826 -0.00228585 6.42796e-16)
(1.03863 -0.00214944 -4.00473e-15)
(1.039 -0.00204396 2.78733e-16)
(1.03935 -0.00196741 -3.57173e-15)
(1.03967 -0.00189739 3.07318e-16)
(1.03998 -0.00180761 -4.04198e-15)
(1.04028 -0.00169403 3.87295e-16)
(1.04055 -0.00158155 -4.9122e-15)
(1.04081 -0.00150333 1.26413e-15)
(1.04104 -0.00147368 -5.46801e-15)
(1.04128 -0.0014776 1.57902e-15)
(1.04152 -0.00148181 -5.9566e-15)
(1.04176 -0.00145669 2.77042e-15)
(1.042 -0.0013948 -6.84876e-15)
(1.04222 -0.00131583 2.52013e-15)
(1.04243 -0.00125579 -7.92153e-15)
(1.04262 -0.00124675 2.73568e-15)
(1.04281 -0.00129898 -7.88124e-15)
(1.04302 -0.00139492 3.67236e-15)
(1.04325 -0.00149743 -7.30258e-15)
(1.04351 -0.00156699 3.13216e-15)
(1.04378 -0.00157926 -7.55853e-15)
(1.04404 -0.00153551 2.65481e-15)
(1.04429 -0.00146245 -7.36124e-15)
(1.04452 -0.00140278 1.92139e-15)
(1.04474 -0.00140116 -6.75606e-15)
(1.04495 -0.00149082 2.1236e-15)
(1 -0.000555469 -5.85569e-16)
(1.00024 -0.00165105 3.65299e-16)
(1.0007 -0.00271116 -7.63769e-16)
(1.00138 -0.00371119 1.15863e-15)
(1.00227 -0.00462676 -1.04999e-15)
(1.00335 -0.00544245 1.15405e-16)
(1.00461 -0.00614491 -6.07748e-16)
(1.006 -0.00672443 7.79541e-16)
(1.0075 -0.00717685 -1.53555e-15)
(1.00908 -0.00750434 -3.16908e-16)
(1.01068 -0.00772432 -2.15606e-15)
(1.0123 -0.00785335 -1.41932e-15)
(1.0139 -0.00789067 -1.85424e-15)
(1.01547 -0.00784638 -9.95936e-16)
(1.01699 -0.00774814 -2.00966e-15)
(1.01846 -0.00760989 -2.79563e-15)
(1.01987 -0.00743433 -1.92103e-15)
(1.02122 -0.00722744 -2.87555e-15)
(1.0225 -0.00699498 -3.50237e-15)
(1.02373 -0.00675147 -2.31611e-15)
(1.0249 -0.0065168 -4.31535e-15)
(1.026 -0.00628677 -3.77753e-15)
(1.02707 -0.00604117 -4.43989e-15)
(1.02809 -0.00578653 -4.32006e-15)
(1.02905 -0.00554939 -4.29059e-15)
(1.02996 -0.00533309 -4.65848e-15)
(1.03085 -0.0051201 -4.23945e-15)
(1.03169 -0.00490058 -5.09474e-15)
(1.03248 -0.00467363 -5.18882e-15)
(1.03325 -0.00444626 -4.56621e-15)
(1.03398 -0.00423726 -4.52126e-15)
(1.03467 -0.00405427 -4.39367e-15)
(1.03532 -0.00387323 -4.82608e-15)
(1.03595 -0.00366873 -4.8794e-15)
(1.03654 -0.00345429 -4.99003e-15)
(1.03708 -0.00326375 -4.8334e-15)
(1.03759 -0.003106 -3.92399e-15)
(1.03808 -0.00296139 -4.32055e-15)
(1.03856 -0.0028093 -4.35371e-15)
(1.03899 -0.0026436 -4.31194e-15)
(1.03938 -0.0024723 -4.41007e-15)
(1.03975 -0.00231593 -3.94824e-15)
(1.04011 -0.00219643 -3.93292e-15)
(1.04044 -0.00211422 -3.39452e-15)
(1.04075 -0.0020409 -3.93211e-15)
(1.04104 -0.0019438 -3.65424e-15)
(1.04133 -0.00181812 -4.53402e-15)
(1.04159 -0.00169232 -5.38214e-15)
(1.04183 -0.0016038 -4.49494e-15)
(1.04205 -0.00156965 -5.02021e-15)
(1.04227 -0.00157488 -3.85979e-15)
(1.04249 -0.00158292 -5.21047e-15)
(1.04273 -0.00155909 -4.0196e-15)
(1.04295 -0.00149256 -5.81476e-15)
(1.04316 -0.0014038 -4.76246e-15)
(1.04335 -0.00133334 -5.71953e-15)
(1.04353 -0.00131883 -4.59683e-15)
(1.0437 -0.00137395 -5.66379e-15)
(1.04389 -0.00148062 -4.33863e-15)
(1.04411 -0.00159742 -5.30204e-15)
(1.04435 -0.0016789 -4.88097e-15)
(1.0446 -0.00169575 -5.91534e-15)
(1.04485 -0.00164738 -5.02101e-15)
(1.04509 -0.0015625 -5.85098e-15)
(1.0453 -0.0014889 -5.1855e-15)
(1.0455 -0.00147763 -5.16647e-15)
(1.04569 -0.00156752 -4.36212e-15)
(1 -0.000643888 1.72394e-15)
(1.00027 -0.00191265 -1.88211e-15)
(1.00078 -0.00313611 5.0748e-16)
(1.00154 -0.00428378 -2.32176e-15)
(1.00253 -0.00532643 -3.57258e-16)
(1.00374 -0.00624395 -3.00136e-15)
(1.00513 -0.00702141 -5.75246e-16)
(1.00666 -0.00765191 -2.99569e-15)
(1.00829 -0.00813117 -6.74698e-16)
(1.00999 -0.00846512 -2.69634e-15)
(1.01171 -0.00867843 -1.20813e-15)
(1.01343 -0.00878817 -2.67323e-15)
(1.01512 -0.00879614 -2.21652e-15)
(1.01676 -0.00871765 -2.95898e-15)
(1.01833 -0.00857878 -2.35061e-15)
(1.01984 -0.00839629 -3.52116e-15)
(1.02129 -0.00817961 -2.86219e-15)
(1.02266 -0.00793139 -3.82186e-15)
(1.02396 -0.00765459 -3.31047e-15)
(1.02519 -0.00737119 -3.92133e-15)
(1.02636 -0.00710378 -3.2102e-15)
(1.02746 -0.0068425 -4.07362e-15)
(1.02853 -0.00656754 -3.0359e-15)
(1.02954 -0.00628767 -4.22045e-15)
(1.03048 -0.00602484 -3.15615e-15)
(1.0314 -0.00578275 -4.04623e-15)
(1.03228 -0.00555072 -2.20943e-15)
(1.03311 -0.00531467 -3.72139e-15)
(1.0339 -0.00506386 -2.73754e-15)
(1.03467 -0.0048102 -2.86029e-15)
(1.03539 -0.00458258 -2.70094e-15)
(1.03607 -0.00438478 -2.21115e-15)
(1.03671 -0.00418487 -2.5208e-15)
(1.03734 -0.00396063 -2.31403e-15)
(1.03792 -0.00372904 -3.21093e-15)
(1.03844 -0.00351886 -2.78652e-15)
(1.03894 -0.0033389 -2.54614e-15)
(1.03943 -0.00317807 -2.01475e-15)
(1.03989 -0.00301737 -2.81932e-15)
(1.04031 -0.00284038 -2.20235e-15)
(1.04069 -0.00264874 -2.8371e-15)
(1.04105 -0.00247022 -2.23879e-15)
(1.04139 -0.00233661 -3.00419e-15)
(1.0417 -0.00224885 -2.08388e-15)
(1.04199 -0.00217181 -3.04172e-15)
(1.04228 -0.00206739 -2.58993e-15)
(1.04255 -0.00192994 -3.46368e-15)
(1.0428 -0.00179026 -3.09041e-15)
(1.04302 -0.00168979 -3.78983e-15)
(1.04322 -0.00164973 -2.70355e-15)
(1.04342 -0.00165632 -3.30303e-15)
(1.04363 -0.00166957 -2.40143e-15)
(1.04385 -0.0016487 -3.33027e-15)
(1.04406 -0.00157837 -3.00614e-15)
(1.04426 -0.00147925 -3.29738e-15)
(1.04443 -0.00139667 -2.99245e-15)
(1.04459 -0.00137471 -3.81499e-15)
(1.04474 -0.00143152 -4.16426e-15)
(1.04491 -0.00154915 -2.91284e-15)
(1.04511 -0.0016819 -3.40173e-15)
(1.04533 -0.00177759 -3.21866e-15)
(1.04557 -0.00180089 -3.83896e-15)
(1.04581 -0.00174843 -3.7444e-15)
(1.04603 -0.00165052 -4.76893e-15)
(1.04623 -0.00156032 -3.84526e-15)
(1.0464 -0.00153596 -4.02882e-15)
(1.04656 -0.0016228 -2.25254e-15)
(1 -0.000748424 2.43571e-16)
(1.0003 -0.00222091 -4.78564e-16)
(1.00089 -0.00363434 3.07415e-16)
(1.00175 -0.00495072 -8.83886e-16)
(1.00287 -0.00613438 -7.87549e-17)
(1.00422 -0.00715811 -1.33865e-15)
(1.00577 -0.00801006 5.61789e-16)
(1.00747 -0.00868557 -1.30541e-15)
(1.00926 -0.00918172 2.07687e-17)
(1.01111 -0.00951304 -1.29899e-15)
(1.01296 -0.00970949 1.26521e-16)
(1.01478 -0.00978848 -8.42849e-16)
(1.01656 -0.00975802 -4.0711e-16)
(1.01828 -0.00963594 -9.89524e-16)
(1.01991 -0.00944555 -3.97603e-16)
(1.02147 -0.00921067 -1.39313e-15)
(1.02295 -0.00894605 -6.95863e-16)
(1.02433 -0.00864843 -1.60912e-15)
(1.02565 -0.00832244 -1.61857e-15)
(1.02689 -0.00799733 -1.80057e-15)
(1.02805 -0.00769394 -1.4047e-15)
(1.02915 -0.00739922 -2.50133e-15)
(1.03021 -0.00709616 -1.38661e-15)
(1.0312 -0.00679173 -2.92891e-15)
(1.03215 -0.0065007 -2.18682e-15)
(1.03305 -0.00623166 -2.46868e-15)
(1.03392 -0.00598176 -1.60162e-15)
(1.03475 -0.00572805 -2.86715e-15)
(1.03554 -0.00545185 -1.90207e-15)
(1.0363 -0.005173 -3.47626e-15)
(1.03701 -0.00492755 -1.71279e-15)
(1.03768 -0.00471351 -2.73064e-15)
(1.03832 -0.00449452 -2.27919e-15)
(1.03893 -0.00425255 -3.23946e-15)
(1.0395 -0.00400285 -2.78504e-15)
(1.04002 -0.00376889 -3.66945e-15)
(1.04052 -0.0035651 -2.43542e-15)
(1.041 -0.00339046 -3.492e-15)
(1.04144 -0.00322292 -2.43212e-15)
(1.04184 -0.00303295 -3.55212e-15)
(1.04221 -0.00281862 -2.6154e-15)
(1.04257 -0.00261729 -3.452e-15)
(1.04289 -0.00246937 -2.86704e-15)
(1.04317 -0.00237512 -3.32396e-15)
(1.04345 -0.00229389 -2.79123e-15)
(1.04372 -0.00218302 -3.41346e-15)
(1.04398 -0.00203459 -3.08496e-15)
(1.04421 -0.00187997 -2.53094e-15)
(1.04441 -0.00176503 -2.81358e-15)
(1.0446 -0.00171691 -2.28057e-15)
(1.04478 -0.00172447 -2.18472e-15)
(1.04496 -0.00174422 -1.68152e-15)
(1.04516 -0.00172807 -2.64287e-15)
(1.04536 -0.0016548 -2.02918e-15)
(1.04554 -0.00154447 -2.95468e-15)
(1.0457 -0.0014473 -2.14679e-15)
(1.04584 -0.00141483 -3.49128e-15)
(1.04597 -0.00147105 -2.17356e-15)
(1.04611 -0.00159914 -2.55528e-15)
(1.04628 -0.00174916 -1.20094e-15)
(1.04648 -0.00186141 -2.86987e-15)
(1.0467 -0.00189321 -1.63363e-15)
(1.04693 -0.00183725 -3.55526e-15)
(1.04713 -0.00172489 -2.71635e-15)
(1.04731 -0.00161481 -3.85326e-15)
(1.04746 -0.00157311 -2.13019e-15)
(1.04759 -0.00165272 -2.14061e-15)
(1 -0.000874899 1.66365e-15)
(1.00035 -0.00259271 -1.71489e-15)
(1.00102 -0.00423136 4.81927e-16)
(1.00202 -0.00574313 -2.25123e-15)
(1.0033 -0.00708221 -3.61982e-16)
(1.00485 -0.00821703 -2.48672e-15)
(1.00659 -0.00913929 -7.15859e-16)
(1.00849 -0.00984844 -2.61235e-15)
(1.01046 -0.0103476 -7.85528e-16)
(1.01247 -0.0106615 -2.36022e-15)
(1.01446 -0.0108242 -1.13549e-15)
(1.0164 -0.0108575 -2.47874e-15)
(1.01828 -0.0107751 -1.61974e-15)
(1.02008 -0.010593 -2.54329e-15)
(1.02178 -0.0103365 -2.42689e-15)
(1.02339 -0.0100381 -2.98115e-15)
(1.02489 -0.00971403 -2.89472e-15)
(1.0263 -0.00935888 -3.25459e-15)
(1.02762 -0.00898036 -2.76242e-15)
(1.02886 -0.00861077 -3.87173e-15)
(1.03001 -0.00826886 -3.16863e-15)
(1.0311 -0.00794196 -3.69665e-15)
(1.03215 -0.0076132 -3.2993e-15)
(1.03313 -0.00728224 -3.9042e-15)
(1.03407 -0.00696164 -3.09239e-15)
(1.03497 -0.00666801 -3.35777e-15)
(1.03583 -0.00640024 -2.53957e-15)
(1.03664 -0.00612702 -3.69824e-15)
(1.03744 -0.00582682 -2.61619e-15)
(1.03819 -0.00552525 -2.84002e-15)
(1.03889 -0.00525986 -2.31459e-15)
(1.03955 -0.00502726 -2.32657e-15)
(1.04019 -0.00479304 -2.22068e-15)
(1.04079 -0.00453635 -2.16129e-15)
(1.04135 -0.00426448 -2.60952e-15)
(1.04187 -0.00400205 -2.35756e-15)
(1.04236 -0.0037758 -1.87571e-15)
(1.04281 -0.00359071 -1.80511e-15)
(1.04323 -0.00341563 -1.94224e-15)
(1.04362 -0.00321031 -1.7771e-15)
(1.04399 -0.00297344 -2.06651e-15)
(1.04433 -0.00275027 -1.90796e-15)
(1.04463 -0.00258689 -1.9962e-15)
(1.04489 -0.00248431 -2.02919e-15)
(1.04515 -0.0023996 -2.68294e-15)
(1.0454 -0.00228538 -2.43816e-15)
(1.04565 -0.0021283 -2.40964e-15)
(1.04586 -0.00195834 -2.54929e-15)
(1.04605 -0.00182665 -2.7107e-15)
(1.04621 -0.00176859 -2.60788e-15)
(1.04636 -0.00177716 -2.2886e-15)
(1.04653 -0.00180541 -2.1605e-15)
(1.0467 -0.00179685 -2.73463e-15)
(1.04689 -0.00172265 -2.57552e-15)
(1.04705 -0.00160096 -2.94051e-15)
(1.0472 -0.00148674 -2.90308e-15)
(1.04731 -0.00144016 -2.99521e-15)
(1.04742 -0.0014929 -3.55178e-15)
(1.04753 -0.00163063 -2.37355e-15)
(1.04767 -0.00179946 -2.6814e-15)
(1.04785 -0.00193122 -2.56362e-15)
(1.04805 -0.00197431 -3.12716e-15)
(1.04825 -0.00191593 -2.57573e-15)
(1.04844 -0.00178768 -4.08258e-15)
(1.0486 -0.00165393 -3.0687e-15)
(1.04872 -0.00158962 -3.26833e-15)
(1.04882 -0.00165666 -1.46174e-15)
(1 -0.00102835 1.45556e-15)
(1.00042 -0.00304775 -1.47875e-15)
(1.00121 -0.0049615 7.40292e-16)
(1.00237 -0.00670392 -2.28725e-15)
(1.00387 -0.00821756 1.09482e-17)
(1.00566 -0.00947107 -2.40577e-15)
(1.00765 -0.01046 -6.59769e-16)
(1.00977 -0.0111922 -2.26682e-15)
(1.01196 -0.0116836 -4.07795e-16)
(1.01415 -0.0119649 -2.14201e-15)
(1.01629 -0.0120763 -6.68208e-16)
(1.01837 -0.0120484 -2.56546e-15)
(1.02036 -0.0118949 -9.78276e-16)
(1.02224 -0.0116302 -2.2246e-15)
(1.02401 -0.0112871 -1.40953e-15)
(1.02566 -0.0109044 -2.72145e-15)
(1.02719 -0.0105016 -1.83322e-15)
(1.02861 -0.0100781 -2.62321e-15)
(1.02993 -0.00964143 -1.58569e-15)
(1.03116 -0.00922007 -3.05683e-15)
(1.0323 -0.00883565 -1.73714e-15)
(1.03338 -0.00847849 -2.95359e-15)
(1.03441 -0.00812414 -1.901e-15)
(1.03538 -0.00776273 -2.62252e-15)
(1.03631 -0.00741175 -1.56714e-15)
(1.0372 -0.00709515 -2.56543e-15)
(1.03804 -0.00680749 -1.17664e-15)
)
;

boundaryField
{
    inlet
    {
        type            uniformFixedValue;
        uniformValue    constant (1 0 0);
        value           uniform (1 0 0);
    }
    outlet
    {
        type            pressureInletOutletVelocity;
        value           nonuniform 0();
    }
    wall
    {
        type            fixedValue;
        value           nonuniform 0();
    }
    wedge1
    {
        type            wedge;
    }
    wedge2
    {
        type            wedge;
    }
    axis
    {
        type            empty;
    }
    procBoundary12to6
    {
        type            processor;
        value           nonuniform List<vector> 
68
(
(1.02019 -0.0057013 -3.65552e-15)
(1.02139 -0.00552763 -6.37059e-15)
(1.02255 -0.00535116 -3.79537e-15)
(1.02366 -0.00517352 -5.63244e-15)
(1.02472 -0.00498487 -4.04379e-15)
(1.02574 -0.00478406 -5.74609e-15)
(1.02672 -0.00459151 -3.64813e-15)
(1.02764 -0.00441845 -5.61014e-15)
(1.02853 -0.0042481 -2.53444e-15)
(1.02939 -0.00406589 -5.8487e-15)
(1.0302 -0.00387934 -2.83047e-15)
(1.03096 -0.00370042 -4.49018e-15)
(1.0317 -0.0035344 -1.53044e-15)
(1.03241 -0.0033816 -4.00018e-15)
(1.03308 -0.00323108 -1.89689e-15)
(1.03371 -0.00306637 -3.49214e-15)
(1.03432 -0.00289197 -2.52204e-15)
(1.03488 -0.00273558 -3.31482e-15)
(1.03541 -0.00261105 -1.88359e-15)
(1.03591 -0.00249845 -2.71763e-15)
(1.03641 -0.0023719 -2.842e-15)
(1.03687 -0.00222976 -2.8744e-15)
(1.03729 -0.00209026 -2.24232e-15)
(1.03767 -0.00197116 -2.93884e-15)
(1.03804 -0.00187957 -2.81248e-15)
(1.0384 -0.00180978 -2.68918e-15)
(1.03875 -0.0017436 -3.38564e-15)
(1.03907 -0.00166121 -2.69805e-15)
(1.03937 -0.00155988 -2.90909e-15)
(1.03966 -0.00146059 -3.63235e-15)
(1.03993 -0.00139193 -2.89668e-15)
(1.04018 -0.00136606 -3.91094e-15)
(1.04043 -0.00136892 -2.87876e-15)
(1.04068 -0.0013706 -3.83327e-15)
(1.04094 -0.00134564 -2.24107e-15)
(1.04119 -0.00128904 -3.99235e-15)
(1.04142 -0.00121936 -3.15089e-15)
(1.04164 -0.00116835 -4.14397e-15)
(1.04184 -0.00116326 -3.09745e-15)
(1.04205 -0.00121171 -5.59527e-15)
(1.04228 -0.00129716 -2.36387e-15)
(1.04253 -0.00138659 -4.77298e-15)
(1.04279 -0.00144581 -2.87576e-15)
(1.04307 -0.00145463 -5.2804e-15)
(1.04335 -0.00141553 -2.8036e-15)
(1.04361 -0.00135295 -5.3448e-15)
(1.04385 -0.00130476 -3.67236e-15)
(1.04409 -0.00130985 -4.86691e-15)
(1.04432 -0.00139658 -2.17831e-15)
(1 -0.000479284 2.16435e-15)
(1.00021 -0.0014254 -2.46037e-15)
(1.00063 -0.00234305 1.98412e-15)
(1.00125 -0.00321284 -2.20224e-15)
(1.00205 -0.00401392 6.76572e-16)
(1.00304 -0.00473392 -2.46748e-15)
(1.00419 -0.00536295 1.11012e-15)
(1.00547 -0.00588924 -1.59843e-15)
(1.00686 -0.00630841 1.05402e-15)
(1.00832 -0.00662244 -2.45095e-15)
(1.00983 -0.00684188 4.37928e-16)
(1.01135 -0.00698029 -1.82304e-15)
(1.01288 -0.00703848 1.30917e-15)
(1.01439 -0.00702158 -1.97598e-15)
(1.01586 -0.00695406 4.53284e-16)
(1.01728 -0.00685123 -2.67176e-15)
(1.01866 -0.00671133 6.74482e-16)
(1.01999 -0.00653885 -3.04826e-15)
(1.01999 -0.00653885 -3.04826e-15)
)
;
    }
    procBoundary12to7
    {
        type            processor;
        value           uniform (1.04518 -0.00168492 -6.03434e-15);
    }
    procBoundary12to13
    {
        type            processor;
        value           nonuniform List<vector> 4((1.0459 -0.00177494 -5.09914e-15) (1.04674 -0.00184123 -2.74525e-15) (1.04773 -0.00187904 -1.46455e-15) (1.04892 -0.00188661 -1.8007e-15));
    }
    procBoundary12to18
    {
        type            processor;
        value           nonuniform List<vector> 
68
(
(1.03886 -0.00651403 -2.90953e-15)
(1.03965 -0.00619462 -1.11475e-15)
(1.04039 -0.00587184 -1.99323e-15)
(1.04108 -0.00558122 -5.71141e-16)
(1.04173 -0.00532824 -1.64536e-15)
(1.04236 -0.00508392 -5.41765e-16)
(1.04295 -0.00481406 -1.39304e-15)
(1.0435 -0.00451441 -9.0826e-16)
(1.04402 -0.00421989 -1.54879e-15)
(1.0445 -0.00397318 -6.56989e-16)
(1.04493 -0.00377851 -7.46866e-16)
(1.04533 -0.00359275 -5.19847e-16)
(1.04571 -0.00337017 -8.21874e-16)
(1.04607 -0.00311201 -2.3816e-16)
(1.0464 -0.00286682 -6.61139e-16)
(1.04667 -0.00268405 -5.09387e-16)
(1.04691 -0.00256955 -8.57576e-16)
(1.04715 -0.00248199 -7.84619e-16)
(1.04738 -0.00236778 -8.55345e-16)
(1.04761 -0.00220409 -3.89959e-16)
(1.04781 -0.00201766 -7.58096e-16)
(1.04797 -0.00186615 -7.25454e-16)
(1.04811 -0.00179548 -1.02372e-15)
(1.04824 -0.00180453 -7.27571e-16)
(1.04838 -0.0018434 -5.17503e-16)
(1.04853 -0.00184602 -7.37947e-16)
(1.0487 -0.0017738 -9.77537e-16)
(1.04885 -0.00164101 -5.33964e-16)
(1.04898 -0.00150699 -4.28684e-16)
(1.04907 -0.0014419 -3.38965e-16)
(1.04915 -0.00148732 -1.35921e-15)
(1.04923 -0.00163332 -3.53724e-16)
(1.04933 -0.0018226 -1.12422e-15)
(1.04948 -0.00197758 2.88216e-16)
(1.04965 -0.00203581 -9.17131e-16)
(1.04984 -0.00197713 8.04577e-17)
(1.05001 -0.00183219 -9.13137e-16)
(1.05014 -0.00167104 -2.12217e-17)
(1.05023 -0.00157849 -3.73452e-16)
(1.05029 -0.00162688 9.61148e-16)
(1 -0.00114322 8.11715e-16)
(1.00047 -0.00338764 -1.00915e-15)
(1.00137 -0.00550716 7.41501e-16)
(1.00269 -0.00742007 2.19015e-16)
(1.00438 -0.00906204 7.32774e-16)
(1.00636 -0.0104013 3.21171e-16)
(1.00855 -0.011436 2.29898e-16)
(1.01086 -0.0121838 8.32018e-16)
(1.0132 -0.0126697 7.18152e-16)
(1.01553 -0.0129259 6.1346e-16)
(1.01779 -0.0129995 4.23265e-16)
(1.01997 -0.0129261 4.15731e-16)
(1.02204 -0.0127164 1.16253e-15)
(1.02398 -0.0123871 9.44714e-16)
(1.02579 -0.0119765 1.19774e-15)
(1.02747 -0.0115259 6.41107e-16)
(1.02901 -0.0110607 1.33403e-15)
(1.03043 -0.0105863 8.99378e-16)
(1.03174 -0.0101065 9.32741e-16)
(1.03296 -0.00964559 1.20972e-15)
(1.03408 -0.00922947 1.16172e-15)
(1.03515 -0.00885073 4.24255e-16)
(1.03617 -0.00847715 1.36655e-15)
(1.03713 -0.00809406 9.86129e-16)
(1.03806 -0.00772246 2.05097e-15)
(1.03894 -0.00738853 9.69573e-16)
(1.03886 -0.00651403 -2.90953e-15)
(1.03977 -0.00708534 2.81144e-15)
)
;
    }
}


// ************************************************************************* //
