/*--------------------------------*- C++ -*----------------------------------*\
  =========                 |
  \\      /  F ield         | OpenFOAM: The Open Source CFD Toolbox
   \\    /   O peration     | Website:  https://openfoam.org
    \\  /    A nd           | Version:  7
     \\/     M anipulation  |
\*---------------------------------------------------------------------------*/
FoamFile
{
    version     2.0;
    format      ascii;
    class       volScalarField;
    location    "16";
    object      p;
}
// * * * * * * * * * * * * * * * * * * * * * * * * * * * * * * * * * * * * * //

dimensions      [0 2 -2 0 0 0 0];

internalField   nonuniform List<scalar> 
433
(
0.0282606
0.0275167
0.0267721
0.0260272
0.025282
0.024537
0.0237923
0.0230482
0.0223048
0.0215625
0.0208215
0.0200819
0.0282715
0.0275219
0.0267709
0.0260187
0.0252656
0.024512
0.023758
0.0230039
0.0222501
0.0214969
0.0207444
0.0199931
0.0282525
0.0274878
0.0267212
0.0259531
0.0251837
0.0244134
0.0236424
0.0228711
0.0220998
0.0213289
0.0205586
0.0197894
0.0282204
0.0274333
0.0266438
0.0258524
0.0250594
0.024265
0.0234697
0.0226738
0.0218776
0.0210816
0.020286
0.0194913
0.0281669
0.0273497
0.0265298
0.0257077
0.0248837
0.0240582
0.0232314
0.0224038
0.0215757
0.0207477
0.01992
0.0190931
0.0272396
0.0263821
0.0255222
0.0246601
0.0237962
0.0229309
0.0220646
0.0211977
0.0203307
0.019464
0.0185979
0.0271
0.0261975
0.0252925
0.0243852
0.0234758
0.0225648
0.0216527
0.0207399
0.0198269
0.018914
0.0180019
0.0269302
0.0259752
0.0250176
0.0240576
0.0230953
0.0221313
0.0211661
0.0202001
0.0192338
0.0182676
0.0173022
0.0267283
0.025713
0.0246952
0.0236747
0.0226518
0.0216271
0.0206011
0.0195743
0.0185472
0.0175202
0.0164938
0.0264933
0.0254094
0.024323
0.0232339
0.0221423
0.0210488
0.019954
0.0188583
0.0177623
0.0166664
0.0155713
0.0262241
0.0250627
0.0238989
0.0227323
0.0215632
0.0203922
0.0192198
0.0180466
0.0168732
0.0156999
0.0145274
0.0259204
0.0246717
0.0234208
0.0221673
0.0209113
0.0196533
0.0183941
0.0171341
0.0158739
0.014614
0.013355
0.025582
0.0242354
0.022887
0.021536
0.0201827
0.0188275
0.0174712
0.0161143
0.0147574
0.013401
0.0120456
0.0252096
0.0237533
0.0222957
0.0208359
0.0193738
0.0179102
0.0164457
0.0149809
0.0135163
0.0120524
0.0105898
0.0248044
0.0232253
0.0216457
0.0200642
0.018481
0.0168965
0.0153115
0.0137266
0.0121422
0.010559
0.00897738
0.0243684
0.0226518
0.0209357
0.0192186
0.0175002
0.0157811
0.0140621
0.0123437
0.0106264
0.00891073
0.00719712
0.0239041
0.0220338
0.0201652
0.0182966
0.0164275
0.0145586
0.0126905
0.0108238
0.008959
0.00709645
0.0052366
0.0234153
0.0213726
0.0193337
0.0172959
0.0152589
0.0132232
0.0111894
0.00915803
0.0071295
0.00510419
0.00308239
0.0229062
0.0206705
0.0184409
0.0162143
0.01399
0.0117685
0.00955045
0.00733614
0.00512594
0.00292012
0.000718583
0.0223822
0.0199301
0.0174871
0.0150496
0.0126165
0.0101882
0.00776525
0.00534788
0.00293628
0.000530587
-0.00186932
0.0218494
0.0191545
0.0164726
0.0137994
0.0111334
0.00847489
0.0058243
0.00318176
0.000547275
-0.00207911
-0.00469675
0.0213148
0.0183472
0.0153974
0.0124603
0.00953408
0.00661871
0.00371447
0.000821254
-0.00206113
-0.0049329
-0.00779404
0.020787
0.0175127
0.0142624
0.0110301
0.00781323
0.00461159
0.00142523
-0.00174619
-0.00490313
-0.0080461
-0.0111754
0.0202752
0.0166558
0.0130679
0.0095048
0.0059629
0.00244181
-0.00105875
-0.00453942
-0.00800098
-0.0114444
-0.0148703
0.0197904
0.0157819
0.0118145
0.00788029
0.00397476
9.70715e-05
-0.00375337
-0.00757756
-0.0113766
-0.015152
-0.0189058
0.0193447
0.0148969
0.0105021
0.0061509
0.00183766
-0.00243904
-0.0066804
-0.010888
-0.0150639
-0.0192131
-0.0233415
0.0189532
0.0140086
0.00913177
0.00431182
-0.000458011
-0.00517971
-0.00985475
-0.0144852
-0.0190733
-0.0236195
-0.0281204
0.0186328
0.0131243
0.00770156
0.00235208
-0.00293248
-0.00815485
-0.0133171
-0.0184221
-0.023473
-0.028471
-0.0334111
0.0184068
0.0122567
0.00621435
0.000265554
-0.00559981
-0.0113854
-0.0170938
-0.0227287
-0.0282941
-0.0337932
-0.0392173
0.0183048
0.0114219
0.00467368
-0.00195582
-0.00847879
-0.0148998
-0.0212218
-0.027448
-0.0335839
-0.0396375
-0.0455763
0.0183654
0.0106422
0.00308627
-0.00432023
-0.0115923
-0.0187366
-0.0257584
-0.0326663
-0.0394891
-0.0462649
-0.0526782
0.018641
0.00995065
0.00146814
-0.00682524
-0.014946
-0.0229
-0.030691
-0.0383233
-0.0457822
-0.0530215
-0.0603953
0.0191982
0.00938658
-0.000169888
-0.00949129
-0.0185975
-0.027496
-0.0361921
-0.044695
-0.0530106
-0.0610969
-0.0690846
0.0201332
0.00901929
-0.00178285
-0.012294
-0.0225371
-0.0325204
-0.04225
-0.0517434
-0.061017
-0.0699259
-0.0787073
0.021561
0.00893082
-0.00332172
-0.015217
-0.0267799
-0.0380172
-0.0489341
-0.0595421
-0.0698234
-0.0797918
-0.0895174
0.0236352
0.0092354
-0.00471241
-0.0182281
-0.0313364
-0.0440385
-0.0563367
-0.0682285
-0.0795805
-0.0908184
-0.101645
0.0265113
0.0100337
-0.00590623
-0.021331
-0.0362665
-0.0507192
-0.0647365
-0.0783645
-0.0909574
-0.103388
-0.115382
0.0304704
0.0115863
-0.00666766
-0.024317
-0.041379
-0.0578482
-0.0736764
-0.0885695
-0.103375
-0.117443
-0.130784
-0.0462262
-0.0652055
-0.0834883
-0.100626
-0.117446
-0.133331
-0.148294
-0.136161
-0.153624
-0.170016
)
;

boundaryField
{
    inlet
    {
        type            zeroGradient;
    }
    outlet
    {
        type            fixedValue;
        value           nonuniform 0();
    }
    cylinder
    {
        type            zeroGradient;
    }
    top
    {
        type            symmetryPlane;
    }
    bottom
    {
        type            symmetryPlane;
    }
    defaultFaces
    {
        type            empty;
    }
    procBoundary1to0
    {
        type            processor;
        value           nonuniform List<scalar> 
31
(
0.0290034
0.0290191
0.0290145
0.0290041
0.0289798
0.0280941
0.0280941
0.0279993
0.0278817
0.0277399
0.0275734
0.0273817
0.0271653
0.026925
0.0266626
0.0263808
0.0260829
0.0257736
0.0254584
0.0251442
0.0248391
0.0245522
0.0242945
0.0240784
0.0239181
0.0238302
0.0238336
0.023951
0.0242091
0.0246426
0.0252947
)
;
    }
    procBoundary1to2
    {
        type            processor;
        value           nonuniform List<scalar> 
33
(
0.0193441
0.0192432
0.0190214
0.0186978
0.0182674
0.017733
0.0170908
0.0163377
0.0154686
0.0144774
0.0133562
0.0120975
0.0106918
0.009129
0.00739789
0.00548608
0.00337987
0.00106436
-0.00147894
-0.00426354
-0.00730429
-0.0106437
-0.0142899
-0.0182761
-0.0226296
-0.0274026
-0.0326103
-0.0383283
-0.0445986
-0.0514744
-0.0591087
-0.06754
-0.0768902
)
;
    }
    procBoundary1to6
    {
        type            processor;
        value           nonuniform List<scalar> 8(0.026221 0.0274941 0.0292071 0.0314835 0.0344703 0.03836 0.0433692 0.049804);
    }
    procBoundary1to7
    {
        type            processor;
        value           nonuniform List<scalar> 
13
(
-0.144918
-0.164399
-0.18271
0.0365221
0.0148066
-0.00621693
-0.0265636
-0.0265636
-0.0559311
-0.0773956
-0.0977057
-0.11753
-0.11753
)
;
    }
    procBoundary1to8
    {
        type            processor;
        value           nonuniform List<scalar> 7(-0.0872903 -0.0989555 -0.112053 -0.126867 -0.143489 -0.162413 -0.185329);
    }
}


// ************************************************************************* //
