/*--------------------------------*- C++ -*----------------------------------*\
  =========                 |
  \\      /  F ield         | OpenFOAM: The Open Source CFD Toolbox
   \\    /   O peration     | Website:  https://openfoam.org
    \\  /    A nd           | Version:  7
     \\/     M anipulation  |
\*---------------------------------------------------------------------------*/
FoamFile
{
    version     2.0;
    format      ascii;
    class       surfaceScalarField;
    location    "16";
    object      phi;
}
// * * * * * * * * * * * * * * * * * * * * * * * * * * * * * * * * * * * * * //

dimensions      [0 3 -1 0 0 0 0];

internalField   nonuniform List<scalar> 
814
(
0.0248397
9.07804e-05
0.0247549
8.47428e-05
0.0246764
7.8541e-05
0.0246042
7.21841e-05
0.0245385
6.56815e-05
0.0244795
5.90433e-05
0.0244272
5.22793e-05
0.0243818
4.54e-05
0.0243434
3.84156e-05
0.0243121
3.13371e-05
0.0242879
2.41751e-05
1.69408e-05
0.0239825
0.000178439
0.0239007
0.000166529
0.023825
0.000154299
0.0237554
0.000141767
0.0236921
0.000128952
0.0236353
0.000115873
0.023585
0.000102549
0.0235414
8.90019e-05
0.0235046
7.52509e-05
0.0234746
6.13174e-05
0.0234516
4.72229e-05
3.29884e-05
0.0231651
0.000263023
0.0230862
0.000245402
0.0230132
0.000227313
0.0229462
0.000208781
0.0228853
0.000189835
0.0228306
0.000170504
0.0227824
0.000150815
0.0227406
0.0001308
0.0227053
0.000110487
0.0226768
8.99087e-05
0.0226549
6.90956e-05
4.80793e-05
0.0223841
0.000344577
0.0223081
0.000321398
0.0222378
0.000297609
0.0221734
0.000273243
0.0221149
0.000248339
0.0220625
0.000222932
0.0220162
0.000197062
0.0219762
0.000170766
0.0219426
0.000144085
0.0219155
0.000117058
0.0218949
8.97275e-05
6.21344e-05
0.0216372
0.021564
0.000394558
0.0214964
0.00036522
0.0214345
0.000335178
0.0213783
0.000304478
0.0213281
0.000273165
0.0212839
0.000241285
0.0212458
0.000208887
0.0212138
0.000176019
0.0211882
0.000142731
0.0211688
0.000109073
7.50955e-05
0.0208515
0.00046492
0.0207865
0.000430177
0.0207271
0.000394608
0.0206733
0.000358267
0.0206253
0.000321207
0.0205831
0.000283483
0.0205468
0.000245151
0.0205165
0.000206269
0.0204924
0.000166895
0.0204744
0.000127088
8.69086e-05
0.0201684
0.000532521
0.020106
0.00049251
0.0200491
0.000451557
0.0199976
0.000409721
0.0199518
0.000367066
0.0199116
0.000323653
0.0198772
0.000279547
0.0198487
0.000234814
0.019826
0.000189521
0.0198094
0.000143736
9.75266e-05
0.0195127
0.000597392
0.019453
0.000552243
0.0193985
0.000506041
0.0193494
0.000458852
0.0193057
0.000410745
0.0192676
0.000361792
0.0192351
0.000312065
0.0192082
0.000261638
0.0191872
0.000210584
0.0191719
0.000158981
0.000106906
0.0188828
0.000659556
0.0188257
0.000609396
0.0187736
0.000558074
0.0187268
0.000505666
0.0186853
0.000452247
0.0186492
0.000397897
0.0186186
0.000342694
0.0185935
0.000286719
0.018574
0.000230057
0.0185602
0.00017279
0.000115004
0.018277
0.00071903
0.0182224
0.000663979
0.0181728
0.000607664
0.0181283
0.000550165
0.018089
0.000491568
0.0180549
0.000431956
0.0180262
0.000371416
0.0180029
0.000310039
0.017985
0.000247912
0.0179727
0.000185129
0.000121781
0.0176936
0.000775821
0.0176416
0.000715996
0.0175945
0.000654808
0.0175523
0.000592345
0.0175152
0.000528696
0.0174832
0.000463955
0.0174564
0.000398214
0.0174349
0.00033157
0.0174186
0.000264119
0.0174078
0.000195961
0.000127196
0.0171314
0.000829925
0.017082
0.00076544
0.0170373
0.000699497
0.0169974
0.000632191
0.0169625
0.000563617
0.0169326
0.000493874
0.0169077
0.000423063
0.016888
0.000351285
0.0168735
0.000278645
0.0168642
0.000205249
0.000131204
0.0165889
0.000881324
0.0165421
0.000812292
0.0164999
0.000741711
0.0164624
0.000669681
0.0164297
0.000596304
0.0164019
0.000521685
0.016379
0.000445931
0.0163611
0.00036915
0.0163483
0.000291453
0.0163406
0.000212952
0.000133762
0.0160649
0.000929993
0.0160207
0.000856525
0.015981
0.000781421
0.0159459
0.000704784
0.0159155
0.000626725
0.0158898
0.000547354
0.015869
0.000466782
0.015853
0.000385125
0.0158419
0.0003025
0.0158359
0.000219025
0.000134821
0.0155583
0.000975887
0.0155167
0.000898097
0.0154795
0.000818584
0.0154469
0.000737459
0.0154188
0.000654838
0.0153953
0.000570836
0.0153765
0.000485571
0.0153624
0.000399165
0.0153532
0.000311738
0.0153488
0.000223418
0.000134329
0.0150679
0.00101895
0.015029
0.000936953
0.0149944
0.000853148
0.0149642
0.000767654
0.0149385
0.000680591
0.0149172
0.000592081
0.0149006
0.000502247
0.0148885
0.000411216
0.0148811
0.000319115
0.0148785
0.000226076
0.000132231
0.0145926
0.00105912
0.0145566
0.000973028
0.0145247
0.000885048
0.014497
0.000795305
0.0144737
0.000703923
0.0144547
0.000611028
0.0144402
0.00051675
0.0144302
0.000421219
0.0144248
0.000324571
0.0144239
0.00022694
0.000128466
0.0141317
0.00109631
0.0140985
0.00100624
0.0140693
0.000914208
0.0140443
0.000820338
0.0140234
0.00072476
0.0140069
0.000627606
0.0139946
0.000529009
0.0139867
0.000429107
0.0139833
0.000328038
0.0139843
0.000225944
0.000122969
0.0136841
0.00113042
0.0136539
0.0010365
0.0136275
0.000940538
0.0136052
0.000842667
0.0135869
0.00074302
0.0135728
0.000641734
0.0135629
0.000538948
0.0135572
0.000434802
0.0135558
0.000329442
0.0135587
0.000223013
0.000115666
0.0132491
0.00116134
0.0132219
0.00106369
0.0131985
0.000963934
0.013179
0.000862193
0.0131634
0.00075861
0.0131518
0.000653324
0.0131443
0.00054648
0.0131408
0.000438223
0.0131416
0.000328703
0.0131465
0.000218071
0.000106482
0.0128259
0.00118893
0.0128018
0.0010877
0.0127815
0.000984282
0.0127649
0.000878808
0.0127521
0.000771424
0.0127431
0.000662275
0.0127381
0.00055151
0.012737
0.000439279
0.01274
0.000325735
0.012747
0.000211037
9.53437e-05
0.0124137
0.00121306
0.0123931
0.00110839
0.0123759
0.00100145
0.0123623
0.000892386
0.0123524
0.000781345
0.0123462
0.000668475
0.0123438
0.00055393
0.0123452
0.000437864
0.0123505
0.000320437
0.0123597
0.000201809
8.21489e-05
0.0120121
0.00123355
0.0119949
0.0011256
0.011981
0.00101529
0.0119706
0.000902791
0.0119637
0.000788242
0.0119604
0.0006718
0.0119607
0.000553622
0.0119647
0.000433869
0.0119725
0.000312702
0.011984
0.000190289
6.6807e-05
0.0116203
0.00125024
0.0116068
0.00113916
0.0115964
0.00102565
0.0115893
0.00090987
0.0115856
0.000791972
0.0115853
0.000672114
0.0115885
0.000550459
0.0115952
0.000427171
0.0116055
0.000302416
0.0116194
0.000176369
4.92194e-05
0.011238
0.00126291
0.0112282
0.00114888
0.0112216
0.00103235
0.011218
0.000913456
0.0112176
0.000792376
0.0112204
0.000669268
0.0112266
0.000544299
0.0112361
0.000417636
0.0112491
0.000289454
0.0112655
0.000159929
2.92896e-05
0.0108645
0.00127136
0.0108588
0.00115457
0.010856
0.00103518
0.0108561
0.000913363
0.0108592
0.000789279
0.0108653
0.000663096
0.0108746
0.000534984
0.0108872
0.000405115
0.010903
0.000273667
0.0109221
0.000140821
6.9783e-06
0.0104995
0.00127532
0.010498
0.00115597
0.0104993
0.00103394
0.0105033
0.00090939
0.01051
0.000782495
0.0105197
0.000653427
0.0105323
0.000522361
0.010548
0.000389474
0.0105667
0.000254949
0.0105885
0.000118981
-1.8154e-05
0.0101424
0.00127455
0.0101456
0.00115285
0.0101511
0.00102838
0.0101592
0.000901303
0.0101699
0.000771802
0.0101833
0.000640051
0.0101994
0.00050623
0.0102184
0.000370522
0.0102402
0.000233115
0.010265
9.42194e-05
-4.60193e-05
0.00979304
0.00126872
0.00980099
0.0011449
0.00981115
0.00101822
0.00982361
0.000888844
0.00983845
0.000756957
0.00985576
0.000622741
0.00987561
0.00048638
0.00989807
0.000348064
0.0099232
0.000207988
0.00995102
6.63915e-05
-7.67295e-05
0.00945078
0.00125749
0.00946387
0.00113181
0.00947893
0.00100316
0.00949605
0.000871722
0.00951532
0.000737686
0.00953683
0.000601239
0.00956064
0.000462571
0.00958682
0.000321878
0.00961544
0.000179371
0.00964644
3.53861e-05
-0.000110487
0.00911512
0.00124049
0.00913373
0.0011132
0.00915405
0.000982839
0.00917617
0.000849598
0.00920019
0.000713667
0.00922619
0.000575236
0.00925427
0.000434498
0.0092845
0.000291649
0.00931698
0.000146886
0.0093509
1.46688e-06
-0.00014756
0.00878543
0.00121726
0.00880999
0.00108864
0.00883597
0.000956855
0.00886348
0.000822095
0.00889258
0.00068456
0.00892337
0.000544449
0.00895591
0.000401963
0.00899024
0.000257315
0.00902636
0.000110768
0.00906528
-3.74592e-05
-0.000187732
0.00846102
0.00118728
0.00849204
0.00105761
0.00852421
0.000924693
0.00855759
0.000788708
0.00859229
0.000649865
0.00862837
0.000508372
0.00866589
0.00036444
0.0087049
0.0002183
0.00874537
7.02968e-05
0.00878776
-7.98422e-05
-0.000231565
0.00814107
0.00114991
0.00817918
0.0010195
0.00821811
0.000885755
0.00825796
0.00074886
0.00829879
0.000609037
0.00834066
0.000466503
0.00838361
0.000321485
0.00842768
0.000174231
0.00847256
2.54237e-05
0.00851905
-0.000126334
-0.000279048
0.00782482
0.00110443
0.00787075
0.000973579
0.00791718
0.000839326
0.00796417
0.000701867
0.00801176
0.000561442
0.00805998
0.000418287
0.00810881
0.000272655
0.00815819
0.000124854
0.00820816
-2.45542e-05
0.00825881
-0.000176984
-0.00033
0.00751176
0.00104999
0.00756634
0.000919004
0.00762108
0.000784585
0.00767599
0.000646954
0.00773106
0.000506378
0.00778621
0.000363134
0.00784133
0.00021753
0.00789609
7.00971e-05
0.00795149
-7.99489e-05
0.00800606
-0.000231553
-0.000383888
0.00720168
0.000985719
0.00726578
0.00085491
0.00732965
0.000720709
0.00739323
0.000583374
0.0074564
0.000443211
0.00751901
0.000300529
0.00758087
0.000155667
0.00764056
1.04089e-05
0.00770047
-0.000139856
0.00775838
-0.000289465
-0.00043965
0.00689485
0.00696924
0.00704289
0.00711554
0.00718691
0.000371843
0.00725661
0.000230824
0.00732388
8.83961e-05
0.00739029
-5.60024e-05
0.00745304
-0.00020261
0.0075125
-0.000348916
-0.000495162
0.00692068
0.00699679
0.00706887
0.00713835
0.00720233
-0.000266595
0.00726091
-0.000407497
-0.000547633
0.00693745
0.00699258
)
;

boundaryField
{
    inlet
    {
        type            calculated;
        value           nonuniform 0();
    }
    outlet
    {
        type            calculated;
        value           nonuniform 0();
    }
    cylinder
    {
        type            calculated;
        value           nonuniform 0();
    }
    top
    {
        type            symmetryPlane;
        value           nonuniform 0();
    }
    bottom
    {
        type            symmetryPlane;
        value           uniform 0;
    }
    defaultFaces
    {
        type            empty;
        value           nonuniform 0();
    }
    procBoundary1to0
    {
        type            processor;
        value           nonuniform List<scalar> 
31
(
-0.0249305
-0.0240702
-0.0232496
-0.0224657
-0.0217158
0.00042315
-0.0209218
-0.020236
-0.0195776
-0.018945
-0.0183365
-0.0177504
-0.0171855
-0.0166403
-0.0161136
-0.0156042
-0.0151109
-0.0146328
-0.0141689
-0.0137182
-0.01328
-0.0128534
-0.0124379
-0.0120326
-0.011637
-0.0112506
-0.0108729
-0.0105034
-0.0101417
-0.00978721
-0.00943956
)
;
    }
    procBoundary1to2
    {
        type            processor;
        value           nonuniform List<scalar> 
33
(
0.0242709
0.0234355
0.0226398
0.0218808
0.0211559
0.0204626
0.0197988
0.0191626
0.0185521
0.0179659
0.0174024
0.0168602
0.0163381
0.0158348
0.0153493
0.0148806
0.0144277
0.0139897
0.013566
0.0131557
0.0127582
0.0123729
0.0119993
0.011637
0.0112854
0.0109444
0.0106137
0.0102928
0.00998173
0.0096802
0.00938797
0.00910546
0.00883159
)
;
    }
    procBoundary1to6
    {
        type            processor;
        value           nonuniform List<scalar> 8(-0.00909811 -0.0087622 -0.00843103 -0.0081037 -0.00777934 -0.00745733 -0.00713741 -0.00681986);
    }
    procBoundary1to7
    {
        type            processor;
        value           nonuniform List<scalar> 
13
(
-0.000329302
-0.000462628
-0.000594314
0.000910734
0.000780512
0.000647067
0.000510724
-0.0068417
0.000292867
0.000154712
1.63136e-05
-0.000125479
-0.00687474
)
;
    }
    procBoundary1to8
    {
        type            processor;
        value           nonuniform List<scalar> 7(0.00856653 0.00830977 0.00805994 0.00781414 0.00756801 0.00731338 0.00703926);
    }
}


// ************************************************************************* //
