/*--------------------------------*- C++ -*----------------------------------*\
  =========                 |
  \\      /  F ield         | OpenFOAM: The Open Source CFD Toolbox
   \\    /   O peration     | Website:  https://openfoam.org
    \\  /    A nd           | Version:  7
     \\/     M anipulation  |
\*---------------------------------------------------------------------------*/
FoamFile
{
    version     2.0;
    format      ascii;
    class       volVectorField;
    location    "22";
    object      U;
}
// * * * * * * * * * * * * * * * * * * * * * * * * * * * * * * * * * * * * * //

dimensions      [0 1 -1 0 0 0 0];

internalField   nonuniform List<vector> 
433
(
(1.05283 -0.0023312 1.52897e-22)
(1.05355 -0.00232385 -9.30866e-23)
(1.05426 -0.0023167 2.25398e-23)
(1.05498 -0.00230974 -3.38493e-23)
(1.05339 -0.00695979 -2.97924e-22)
(1.05412 -0.00693485 -1.62415e-23)
(1.05485 -0.00691025 -2.15553e-23)
(1.05558 -0.00688596 4.81666e-23)
(1.05446 -0.011498 1.39856e-22)
(1.05521 -0.0114558 -8.67556e-23)
(1.05596 -0.0114142 4.96211e-23)
(1.05671 -0.0113731 -5.9169e-24)
(1.05601 -0.0160041 5.06158e-23)
(1.05678 -0.0159437 8.50356e-25)
(1.05755 -0.0158841 -4.31496e-23)
(1.05833 -0.0158253 2.84908e-23)
(1.05798 -0.0205118 -5.43317e-23)
(1.05879 -0.0204322 -1.78811e-22)
(1.05959 -0.0203536 2.16932e-22)
(1.0604 -0.020276 -2.75726e-23)
(1.06036 -0.0250575 -1.33403e-22)
(1.0612 -0.0249572 -6.66787e-24)
(1.06205 -0.0248582 -2.18798e-23)
(1.06289 -0.0247603 -9.92237e-24)
(1.06311 -0.0296698 1.10906e-22)
(1.064 -0.0295469 2.76086e-23)
(1.06489 -0.0294256 2.37525e-23)
(1.06578 -0.0293058 -4.06274e-24)
(1.0662 -0.034377 -3.77986e-23)
(1.06714 -0.0342296 2.17878e-22)
(1.06808 -0.0340838 -4.7382e-24)
(1.06903 -0.0339398 3.34766e-23)
(1.06962 -0.0392016 4.56053e-23)
(1.07061 -0.039027 -2.3166e-23)
(1.07162 -0.0388544 -1.71619e-23)
(1.07263 -0.0386839 -9.28219e-24)
(1.07333 -0.0441659 4.29832e-22)
(1.07439 -0.0439613 -1.92792e-23)
(1.07546 -0.0437592 1.06206e-23)
(1.07654 -0.0435596 1.25702e-23)
(1.07731 -0.0492923 -7.56032e-23)
(1.07845 -0.0490547 7.72689e-23)
(1.07959 -0.0488199 2.91651e-23)
(1.08075 -0.0485878 -5.38194e-23)
(1.08155 -0.0545993 7.05719e-24)
(1.08277 -0.0543252 -6.95135e-23)
(1.084 -0.0540542 8.47345e-24)
(1.08524 -0.0537861 5.37218e-24)
(1.08601 -0.0601064 -1.94881e-22)
(1.08732 -0.0597919 6.09458e-23)
(1.08865 -0.0594807 -5.78241e-23)
(1.08999 -0.0591729 -1.2553e-23)
(1.09069 -0.065832 -2.43993e-22)
(1.0921 -0.0654729 7.64957e-24)
(1.09353 -0.0651172 3.71052e-23)
(1.09497 -0.0647651 1.22767e-23)
(1.09555 -0.0717947 -3.28271e-23)
(1.09707 -0.071386 2.48343e-23)
(1.09862 -0.0709811 4.76306e-23)
(1.10017 -0.0705798 -1.43278e-23)
(1.10058 -0.0780128 7.09794e-23)
(1.10223 -0.0775494 7.33391e-24)
(1.10389 -0.0770897 -2.46418e-23)
(1.10558 -0.0766338 -6.71274e-24)
(1.10575 -0.0845054 -3.87769e-23)
(1.10753 -0.0839813 6.51515e-23)
(1.10934 -0.0834609 -2.01399e-24)
(1.11116 -0.0829443 4.16197e-24)
(1.11105 -0.0912909 2.71475e-23)
(1.11298 -0.0906998 -4.13401e-23)
(1.11494 -0.0901122 1.10548e-23)
(1.11692 -0.0895279 -6.03977e-25)
(1.11645 -0.098392 1.36441e-23)
(1.11855 -0.0977262 -1.23695e-23)
(1.12067 -0.0970634 -9.08573e-24)
(1.12282 -0.0964036 -1.28206e-23)
(1.12194 -0.105827 -5.8569e-24)
(1.12422 -0.105079 1.26758e-23)
(1.12653 -0.104332 -3.3453e-23)
(1.12886 -0.103589 5.43592e-23)
(1.1275 -0.113616 -7.35111e-23)
(1.12999 -0.112776 -3.65061e-23)
(1.13249 -0.111938 4.48602e-23)
(1.13503 -0.111101 -1.26919e-23)
(1.13312 -0.121785 1.12449e-22)
(1.13583 -0.120844 -7.52128e-23)
(1.13855 -0.119903 7.55412e-23)
(1.14131 -0.118962 -1.56292e-23)
(1.13878 -0.130359 1.62774e-22)
(1.14173 -0.129306 2.07183e-22)
(1.1447 -0.12825 6.26533e-23)
(1.1477 -0.127192 -8.19498e-23)
(1.14448 -0.139363 -1.41646e-22)
(1.1477 -0.138185 4.82776e-23)
(1.15094 -0.137002 -2.63324e-22)
(1.1542 -0.135813 8.70697e-23)
(1.15021 -0.148823 -2.14008e-22)
(1.15373 -0.147505 -1.48136e-22)
(1.15726 -0.146179 3.51179e-22)
(1.16081 -0.144845 -9.17575e-23)
(1.15597 -0.158782 -5.98387e-22)
(1.15981 -0.157305 -1.40794e-22)
(1.16366 -0.155816 -3.44634e-22)
(1.16753 -0.154316 -1.36112e-23)
(1.16179 -0.169252 4.09276e-22)
(1.16598 -0.167597 -1.78498e-22)
(1.17018 -0.165926 -5.30525e-22)
(1.17438 -0.164239 3.48104e-23)
(1.16764 -0.180264 2.23468e-22)
(1.17222 -0.178411 9.63774e-22)
(1.1768 -0.176535 1.72695e-23)
(1.18137 -0.174634 -1.94227e-23)
(1.17354 -0.191872 1.53488e-21)
(1.17855 -0.189789 -9.18059e-22)
(1.18354 -0.187673 7.11195e-24)
(1.18852 -0.185524 -3.85096e-23)
(1.17952 -0.204092 3.46339e-22)
(1.185 -0.201744 4.37445e-22)
(1.19044 -0.19935 9.71074e-22)
(1.19584 -0.196912 3.24001e-23)
(1.18557 -0.217003 -1.91323e-21)
(1.19157 -0.21433 -1.07921e-21)
(1.19749 -0.2116 5.72072e-22)
(1.20335 -0.208808 3.90212e-22)
(1.19182 -0.230582 1.51392e-21)
(1.19833 -0.227533 3.76106e-21)
(1.20476 -0.224398 -4.68607e-22)
(1.21107 -0.221172 -3.43353e-22)
(1.19813 -0.24486 -2.25419e-21)
(1.20523 -0.241353 -1.00356e-21)
(1.21218 -0.237715 -1.32521e-21)
(1.21894 -0.233939 -3.70783e-22)
(1.21972 -0.251488 -1.35651e-22)
(1.22686 -0.246981 3.8509e-23)
(1.05569 -0.00230295 -3.25717e-23)
(1.0564 -0.00229629 2.32936e-23)
(1.05711 -0.00228975 -6.9853e-23)
(1.05781 -0.00228328 4.29622e-23)
(1.05852 -0.00227687 1.51181e-22)
(1.05921 -0.00227048 -2.03463e-22)
(1.05991 -0.00226408 4.12702e-22)
(1.0606 -0.00225764 -4.11459e-22)
(1.06129 -0.00225111 -1.27945e-22)
(1.0563 -0.006862 5.03645e-23)
(1.05703 -0.00683835 -3.07027e-23)
(1.05775 -0.00681499 -2.65831e-23)
(1.05846 -0.0067919 2.2023e-22)
(1.05918 -0.00676906 -5.03183e-22)
(1.05989 -0.00674644 2.68383e-22)
(1.0606 -0.00672401 3.15452e-23)
(1.0613 -0.00670173 2.67222e-22)
(1.062 -0.00667957 -7.90131e-22)
(1.05745 -0.0113327 -4.46721e-24)
(1.05819 -0.0112927 6.89409e-23)
(1.05893 -0.0112534 -8.73725e-23)
(1.05967 -0.0112145 -4.57712e-23)
(1.06041 -0.0111761 3.05363e-22)
(1.06114 -0.0111381 -2.66751e-22)
(1.06187 -0.0111005 5.34315e-23)
(1.0626 -0.0110632 9.77121e-23)
(1.06332 -0.0110263 -1.07918e-22)
(1.0591 -0.0157673 3.40713e-23)
(1.05987 -0.01571 -4.3703e-23)
(1.06064 -0.0156534 3.09685e-23)
(1.06141 -0.0155976 -4.70836e-23)
(1.06217 -0.0155425 -7.88071e-23)
(1.06293 -0.015488 1.90842e-22)
(1.06369 -0.0154341 -1.75497e-22)
(1.06445 -0.0153808 1.15441e-22)
(1.06521 -0.0153279 1.53165e-22)
(1.06121 -0.0201994 -2.10187e-23)
(1.06201 -0.0201238 1.11677e-22)
(1.06282 -0.0200492 -1.92871e-22)
(1.06362 -0.0199756 1.26513e-22)
(1.06443 -0.0199029 4.20502e-23)
(1.06523 -0.0198311 5.94316e-23)
(1.06603 -0.0197602 -1.00652e-22)
(1.06682 -0.0196901 -1.24234e-22)
(1.06762 -0.0196207 -1.62498e-22)
(1.06374 -0.0246638 -1.9344e-23)
(1.06459 -0.0245684 -1.18821e-24)
(1.06544 -0.0244744 1.44888e-22)
(1.06629 -0.0243815 3.69564e-24)
(1.06714 -0.0242899 -3.98993e-23)
(1.06799 -0.0241994 2.81092e-22)
(1.06883 -0.0241101 -2.89759e-22)
(1.06968 -0.0240218 -1.5433e-22)
(1.07053 -0.0239346 2.5831e-22)
(1.06668 -0.0291875 2.29485e-23)
(1.06758 -0.0290708 6.57306e-23)
(1.06848 -0.0289556 -6.58127e-23)
(1.06938 -0.0288419 -6.65817e-23)
(1.07028 -0.0287297 -8.12168e-23)
(1.07118 -0.028619 1.27689e-22)
(1.07209 -0.0285097 2.64031e-23)
(1.07299 -0.0284018 1.17754e-22)
(1.0739 -0.0282952 -4.50927e-22)
(1.06998 -0.0337976 8.19669e-24)
(1.07094 -0.0336573 -3.58784e-23)
(1.0719 -0.0335189 4.68033e-23)
(1.07286 -0.0333822 -2.29764e-22)
(1.07383 -0.0332474 -8.14676e-23)
(1.07479 -0.0331144 4.78445e-24)
(1.07576 -0.0329832 1.38193e-22)
(1.07673 -0.0328537 1.92547e-22)
(1.0777 -0.0327259 9.73627e-23)
(1.07364 -0.0385155 -1.83098e-23)
(1.07466 -0.0383493 -2.39332e-24)
(1.07569 -0.0381853 9.33846e-23)
(1.07672 -0.0380234 -5.79599e-23)
(1.07775 -0.0378637 1.73483e-22)
(1.07879 -0.0377062 2.50493e-22)
(1.07983 -0.0375508 -2.41132e-22)
(1.08088 -0.0373974 7.49984e-23)
(1.08193 -0.0372461 -1.92871e-22)
(1.07763 -0.0433623 -1.92982e-23)
(1.07872 -0.0431676 8.29709e-23)
(1.07982 -0.0429753 -3.69624e-23)
(1.08093 -0.0427855 -2.18236e-22)
(1.08204 -0.0425983 -2.79419e-23)
(1.08316 -0.0424135 9.50713e-25)
(1.08428 -0.0422312 3.65136e-23)
(1.08541 -0.0420514 -3.02737e-22)
(1.08655 -0.0418741 8.92797e-23)
(1.08192 -0.0483585 -4.53014e-24)
(1.08309 -0.0481319 -1.02173e-22)
(1.08428 -0.0479082 3.38407e-23)
(1.08547 -0.0476874 3.13591e-23)
(1.08667 -0.0474694 1.38869e-22)
(1.08788 -0.0472542 -5.38705e-23)
(1.08909 -0.0470419 4.87444e-23)
(1.09031 -0.0468325 1.13048e-22)
(1.09154 -0.046626 1.04899e-22)
(1.08649 -0.0535212 -1.3908e-23)
(1.08776 -0.0532594 1.2084e-23)
(1.08904 -0.0530007 2.84463e-23)
(1.09032 -0.0527453 7.5705e-24)
(1.09162 -0.052493 -1.70233e-22)
(1.09292 -0.0522439 3.91773e-23)
(1.09424 -0.051998 -5.64095e-23)
(1.09556 -0.0517554 3.05932e-23)
(1.09689 -0.0515161 6.42652e-24)
(1.09134 -0.0588684 -1.08811e-23)
(1.0927 -0.0585673 4.37181e-23)
(1.09408 -0.0582697 -1.1544e-23)
(1.09547 -0.0579755 8.85814e-23)
(1.09687 -0.0576848 3.76824e-23)
(1.09828 -0.0573977 2.32081e-23)
(1.09971 -0.0571142 -1.87203e-23)
(1.10114 -0.0568342 -1.86967e-23)
(1.10259 -0.0565578 -2.5103e-23)
(1.09643 -0.0644166 4.7877e-24)
(1.0979 -0.0640717 1.83192e-23)
(1.09939 -0.0637306 2.34654e-23)
(1.10089 -0.0633931 -2.51484e-23)
(1.10241 -0.0630594 -3.24615e-23)
(1.10394 -0.0627296 -3.91883e-23)
(1.10549 -0.0624035 -1.66874e-23)
(1.10704 -0.0620814 -5.41818e-23)
(1.10861 -0.0617631 -5.46174e-24)
(1.10175 -0.0701823 -4.91201e-24)
(1.10334 -0.0697886 8.03187e-24)
(1.10495 -0.0693988 -2.6271e-23)
(1.10658 -0.0690128 -8.26625e-24)
(1.10822 -0.0686308 -9.79482e-24)
(1.10988 -0.0682528 -4.0472e-23)
(1.11155 -0.0678789 -4.76452e-23)
(1.11324 -0.067509 1.22959e-23)
(1.11494 -0.0671432 1.34349e-22)
(1.10728 -0.0761817 4.14631e-24)
(1.10901 -0.0757335 -2.93145e-25)
(1.11075 -0.0752892 -4.1904e-24)
(1.11251 -0.0748488 7.47478e-24)
(1.11429 -0.0744125 -5.26843e-23)
(1.11609 -0.0739802 2.56276e-22)
(1.1179 -0.073552 -2.11328e-22)
(1.11973 -0.073128 1.58028e-22)
(1.12158 -0.0727082 -7.161e-22)
(1.11301 -0.0824313 -2.43531e-24)
(1.11488 -0.0819221 -2.2872e-25)
(1.11677 -0.0814168 4.34757e-23)
(1.11867 -0.0809153 -2.37072e-23)
(1.1206 -0.0804177 -1.25873e-23)
(1.12255 -0.0799241 -3.64028e-22)
(1.12451 -0.0794345 7.55645e-23)
(1.1265 -0.078949 -2.27767e-22)
(1.1285 -0.0784677 7.66569e-22)
(1.11892 -0.0889471 4.92635e-24)
(1.12094 -0.0883698 1.33933e-23)
(1.12299 -0.087796 1.65449e-23)
(1.12505 -0.0872258 2.9718e-23)
(1.12714 -0.0866592 2.14714e-22)
(1.12925 -0.0860964 2.87009e-22)
(1.13138 -0.0855372 -2.011e-22)
(1.13353 -0.0849819 3.17838e-22)
(1.1357 -0.0844304 4.76674e-22)
(1.12499 -0.0957469 2.86948e-23)
(1.12718 -0.0950932 -6.56967e-24)
(1.1294 -0.0944425 -9.41017e-23)
(1.13164 -0.0937949 -6.18284e-23)
(1.1339 -0.0931504 -5.132e-22)
(1.13618 -0.0925091 2.85482e-22)
(1.13849 -0.091871 -5.90241e-22)
(1.14082 -0.0912362 8.93105e-22)
(1.14317 -0.0906046 -6.93522e-22)
(1.13122 -0.102847 -4.39498e-23)
(1.13359 -0.102108 1.76652e-23)
(1.136 -0.101371 6.56936e-23)
(1.13842 -0.100636 3.71483e-22)
(1.14087 -0.0999038 -1.15282e-22)
(1.14334 -0.0991738 -9.28929e-23)
(1.14584 -0.0984461 1.03209e-21)
(1.14836 -0.0977208 -9.11576e-22)
(1.1509 -0.0969978 6.90407e-22)
(1.13758 -0.110265 -3.11837e-24)
(1.14016 -0.10943 -6.35984e-23)
(1.14277 -0.108596 1.19976e-22)
(1.1454 -0.107764 -4.07328e-22)
(1.14805 -0.106932 4.23007e-22)
(1.15073 -0.106102 -5.14659e-22)
(1.15343 -0.105273 -9.55533e-22)
(1.15615 -0.104444 8.74231e-22)
(1.1589 -0.103617 -2.21304e-21)
(1.14408 -0.11802 -5.94153e-24)
(1.14688 -0.117078 -2.10218e-23)
(1.14971 -0.116136 2.57803e-23)
(1.15256 -0.115193 1.29274e-22)
(1.15543 -0.114249 5.28132e-23)
(1.15833 -0.113305 8.72991e-22)
(1.16125 -0.11236 -1.55079e-21)
(1.16419 -0.111415 -8.5726e-22)
(1.16716 -0.110468 1.40985e-21)
(1.15072 -0.126132 7.32975e-23)
(1.15376 -0.12507 2.27377e-22)
(1.15682 -0.124005 -3.68745e-22)
(1.1599 -0.122937 -4.18899e-22)
(1.16301 -0.121867 -1.15141e-22)
(1.16615 -0.120794 -1.09206e-22)
(1.1693 -0.119718 1.66141e-21)
(1.17248 -0.118638 -7.00664e-22)
(1.17568 -0.117555 -1.82409e-22)
(1.15748 -0.13462 -5.00592e-23)
(1.16078 -0.133422 -2.84896e-22)
(1.1641 -0.132219 5.77048e-23)
(1.16744 -0.131011 4.88949e-22)
(1.17081 -0.129798 1.27998e-21)
(1.17419 -0.128578 -1.8297e-23)
(1.1776 -0.127353 1.45175e-21)
(1.18103 -0.12612 -4.62574e-23)
(1.18448 -0.124878 8.59391e-22)
(1.16437 -0.143503 1.34869e-22)
(1.16795 -0.142153 -6.19349e-22)
(1.17155 -0.140794 4.98684e-22)
(1.17517 -0.139427 3.30448e-22)
(1.17881 -0.13805 -2.8743e-22)
(1.18247 -0.136664 1.28639e-21)
(1.18615 -0.135267 -1.69611e-21)
(1.18984 -0.133857 -1.13477e-21)
(1.19355 -0.132432 3.64142e-22)
(1.1714 -0.152804 3.606e-23)
(1.17529 -0.15128 5.01694e-22)
(1.17919 -0.149744 5.31587e-22)
(1.18311 -0.148194 8.68156e-22)
(1.18704 -0.146631 1.23129e-22)
(1.19098 -0.145052 6.38982e-22)
(1.19494 -0.143456 4.47548e-21)
(1.19891 -0.14184 1.7074e-21)
(1.20288 -0.140199 -1.43155e-21)
(1.17859 -0.162535 -7.89593e-23)
(1.18281 -0.160814 6.57757e-22)
(1.18703 -0.159074 3.76754e-22)
(1.19126 -0.157316 -9.1432e-22)
(1.1955 -0.155537 -8.25008e-22)
(1.19974 -0.153734 -1.73325e-21)
(1.20398 -0.151904 -3.996e-21)
(1.20822 -0.150041 -4.19302e-21)
(1.21245 -0.148139 2.6864e-21)
(1.18594 -0.17271 -6.83508e-23)
(1.19051 -0.170762 1.45164e-22)
(1.19507 -0.168788 -1.81062e-21)
(1.19963 -0.166785 -2.82051e-22)
(1.20419 -0.164751 1.7369e-21)
(1.20873 -0.162681 2.19138e-21)
(1.21325 -0.160569 1.96547e-21)
(1.21774 -0.158405 2.06862e-21)
(1.22219 -0.156179 1.29885e-21)
(1.19347 -0.183343 1.28672e-22)
(1.19841 -0.181128 1.72005e-22)
(1.20333 -0.178875 1.17168e-21)
(1.20822 -0.17658 -2.93257e-21)
(1.21309 -0.174238 -2.25195e-21)
(1.21791 -0.171841 -6.76841e-21)
(1.22268 -0.169377 -2.73259e-21)
(1.22738 -0.166833 7.46373e-22)
(1.23199 -0.164192 1.22306e-21)
(1.2012 -0.194426 -1.40938e-23)
(1.20652 -0.191891 -1.45645e-21)
(1.2118 -0.189301 -1.17672e-21)
(1.21701 -0.186648 2.25562e-22)
(1.22216 -0.183922 1.67617e-22)
(1.22722 -0.181111 1.00245e-20)
(1.23217 -0.178197 1.34975e-21)
(1.23697 -0.175158 2.47172e-21)
(1.2416 -0.171971 -5.44024e-21)
(1.20913 -0.205949 -2.89356e-22)
(1.21483 -0.203017 -8.1394e-22)
(1.22044 -0.200003 1.90249e-21)
(1.22594 -0.196893 3.11012e-21)
(1.2313 -0.193673 2.24122e-21)
(1.2365 -0.190321 -1.01938e-20)
(1.24149 -0.186813 -1.4082e-21)
(1.24622 -0.183118 9.55847e-21)
(1.25064 -0.179202 -1.03754e-20)
(1.21726 -0.217847 4.84909e-22)
(1.2233 -0.214412 3.72221e-22)
(1.22919 -0.210851 -5.38805e-21)
(1.23487 -0.207146 -2.67674e-21)
(1.24031 -0.203272 -2.40024e-21)
(1.24547 -0.199201 3.81251e-21)
(1.25027 -0.194898 9.9887e-21)
(1.25464 -0.190326 2.27456e-21)
(1.25849 -0.185442 2.04674e-20)
(1.22549 -0.230012 2.02376e-22)
(1.2318 -0.225917 1.93054e-21)
(1.23783 -0.221633 1.2194e-21)
(1.24353 -0.217131 4.08434e-21)
(1.24883 -0.212382 -5.16831e-21)
(1.25365 -0.207346 6.92657e-21)
(1.2579 -0.201985 -7.70923e-21)
(1.26147 -0.196253 -9.16947e-21)
(1.26425 -0.190103 -8.49963e-21)
(1.23367 -0.24225 -3.03547e-22)
(1.24008 -0.237269 4.38198e-22)
)
;

boundaryField
{
    inlet
    {
        type            uniformFixedValue;
        uniformValue    constant (1 0 0);
        value           nonuniform 0();
    }
    outlet
    {
        type            pressureInletOutletVelocity;
        value           nonuniform 0();
    }
    cylinder
    {
        type            fixedValue;
        value           nonuniform 0();
    }
    top
    {
        type            symmetryPlane;
    }
    bottom
    {
        type            symmetryPlane;
    }
    defaultFaces
    {
        type            empty;
    }
    procBoundary2to1
    {
        type            processor;
        value           nonuniform List<vector> 
33
(
(1.05211 -0.00233877 1.79442e-22)
(1.05266 -0.00698507 -6.51381e-22)
(1.05371 -0.0115407 5.0004e-22)
(1.05523 -0.0160652 -1.40279e-22)
(1.05718 -0.0205923 1.64473e-23)
(1.05952 -0.0251591 -3.76957e-22)
(1.06223 -0.0297941 3.3625e-23)
(1.06527 -0.0345261 2.26689e-22)
(1.06863 -0.0393781 -1.43505e-22)
(1.07227 -0.0443728 4.23379e-22)
(1.07619 -0.0495325 -2.61202e-22)
(1.08034 -0.0548763 6.65695e-23)
(1.08472 -0.0604241 -2.87729e-22)
(1.08929 -0.0661947 -2.47034e-23)
(1.09405 -0.072207 -2.19327e-22)
(1.09895 -0.07848 1.83783e-22)
(1.10399 -0.0850331 1.43485e-22)
(1.10914 -0.0918858 -4.89021e-23)
(1.11438 -0.0990604 6.17077e-23)
(1.11968 -0.106577 2.99695e-23)
(1.12504 -0.114456 -6.99575e-24)
(1.13044 -0.122725 4.457e-23)
(1.13586 -0.13141 -2.71187e-23)
(1.14129 -0.140537 -2.40402e-22)
(1.14672 -0.150132 2.42176e-22)
(1.15216 -0.160248 -2.69924e-22)
(1.15759 -0.170889 -2.62622e-23)
(1.16304 -0.182092 3.18759e-22)
(1.16851 -0.193922 -3.93007e-23)
(1.174 -0.206393 -7.30003e-23)
(1.17952 -0.219619 -1.38026e-21)
(1.1852 -0.23355 1.2663e-21)
(1.19087 -0.24824 2.42735e-21)
)
;
    }
    procBoundary2to3
    {
        type            processor;
        value           nonuniform List<vector> 
33
(
(1.06197 -0.00224448 -5.02868e-22)
(1.06269 -0.00665749 -6.06376e-22)
(1.06403 -0.0109895 1.51875e-22)
(1.06596 -0.0152755 -2.42677e-22)
(1.06841 -0.019552 -1.37166e-23)
(1.07137 -0.0238483 4.53919e-23)
(1.0748 -0.0281899 -2.47063e-22)
(1.07868 -0.0325997 1.69617e-22)
(1.08298 -0.0370969 -1.02726e-24)
(1.08768 -0.0416991 4.75609e-23)
(1.09277 -0.0464222 9.25277e-24)
(1.09823 -0.05128 1.03778e-23)
(1.10404 -0.056285 -3.54252e-23)
(1.11019 -0.0614488 7.43464e-23)
(1.11666 -0.0667816 1.77985e-22)
(1.12344 -0.0722927 -3.39993e-22)
(1.13052 -0.0779906 7.54037e-23)
(1.13789 -0.0838829 -7.47159e-22)
(1.14554 -0.0899764 1.51864e-21)
(1.15346 -0.0962772 -8.39368e-22)
(1.16167 -0.10279 -7.82126e-22)
(1.17015 -0.10952 1.5939e-21)
(1.17891 -0.116466 -1.6559e-21)
(1.18795 -0.123627 -9.94633e-22)
(1.19727 -0.130991 -7.76811e-22)
(1.20686 -0.138529 3.21918e-21)
(1.21666 -0.14619 -5.2419e-22)
(1.22659 -0.153877 -4.66716e-21)
(1.23647 -0.161432 5.04651e-22)
(1.24599 -0.168604 -5.85071e-21)
(1.25466 -0.175027 2.65916e-21)
(1.26172 -0.1802 6.51006e-21)
(1.26609 -0.183491 5.2653e-22)
)
;
    }
    procBoundary2to8
    {
        type            processor;
        value           nonuniform List<vector> 
15
(
(1.20458 -0.259899 -8.41946e-22)
(1.21228 -0.255789 4.00273e-21)
(1.21228 -0.255789 4.00273e-21)
(1.22721 -0.265519 -1.40651e-21)
(1.23458 -0.260029 3.69917e-22)
(1.24604 -0.23201 -5.46512e-21)
(1.25145 -0.226439 1.12031e-21)
(1.25624 -0.220518 -9.32554e-21)
(1.26028 -0.214205 1.07095e-20)
(1.26346 -0.207457 3.16146e-21)
(1.26564 -0.20023 4.75874e-21)
(1.26666 -0.192482 -4.49772e-21)
(1.24142 -0.254212 -3.10323e-22)
(1.24604 -0.23201 -5.46512e-21)
(1.24765 -0.248039 1.4965e-21)
)
;
    }
}


// ************************************************************************* //
