/*--------------------------------*- C++ -*----------------------------------*\
  =========                 |
  \\      /  F ield         | OpenFOAM: The Open Source CFD Toolbox
   \\    /   O peration     | Website:  https://openfoam.org
    \\  /    A nd           | Version:  7
     \\/     M anipulation  |
\*---------------------------------------------------------------------------*/
FoamFile
{
    version     2.0;
    format      ascii;
    class       surfaceScalarField;
    location    "4";
    object      phi;
}
// * * * * * * * * * * * * * * * * * * * * * * * * * * * * * * * * * * * * * //

dimensions      [0 3 -1 0 0 0 0];

internalField   nonuniform List<scalar> 
615
(
0.000282393
-1.85929e-05
0.000285644
-1.82242e-05
0.000288777
-1.78172e-05
0.000291788
-1.73819e-05
0.000294678
-1.69266e-05
0.000297445
-1.64587e-05
0.000300092
-1.5984e-05
0.000302622
-1.55077e-05
0.000305037
-1.50337e-05
0.000307341
-1.45654e-05
0.000309537
-1.41053e-05
0.000311632
-1.36556e-05
0.000313627
-1.32176e-05
0.000315529
-1.27926e-05
0.000317342
-1.23814e-05
0.000319069
-1.19842e-05
0.000320716
-1.16015e-05
0.000322286
-1.12333e-05
0.000323784
-1.08795e-05
0.000325214
-1.05397e-05
0.000326579
-1.02139e-05
0.000327882
-9.90141e-06
0.000329128
-9.60197e-06
0.000330319
-9.31506e-06
0.000331458
-9.04019e-06
0.000332549
-8.77686e-06
0.000333593
-8.52456e-06
0.000334594
-8.28277e-06
0.000335554
-8.051e-06
0.000336475
-7.82877e-06
0.000337359
-7.6156e-06
0.000338208
-7.41104e-06
0.000339025
-7.21465e-06
0.00033981
-7.02602e-06
0.000340565
-6.84475e-06
0.000341292
-6.67047e-06
0.000341993
-6.5028e-06
0.000342668
-6.34143e-06
0.000343319
-6.18602e-06
0.000343947
-6.03628e-06
0.000344554
-5.89192e-06
0.00034514
-5.75267e-06
0.000345706
-5.61828e-06
0.000346254
-5.48852e-06
0.000346783
-5.36316e-06
0.000347296
-5.24198e-06
0.000347792
-5.1248e-06
0.000348273
-5.01143e-06
-4.90168e-06
0.00024867
-1.59714e-06
0.000249708
-4.82207e-06
0.000251417
-7.95971e-06
0.000253739
-1.09013e-05
0.000256598
-1.35742e-05
0.000259911
-1.59332e-05
0.00026359
-1.79558e-05
0.000267551
-1.96383e-05
0.000271717
-2.09918e-05
0.000276016
-2.2037e-05
0.000280388
-2.28005e-05
0.000284777
-2.33118e-05
0.00028914
-2.36016e-05
0.000293439
-2.36997e-05
0.000297644
-2.36347e-05
0.000301731
-2.3433e-05
0.000305682
-2.3119e-05
0.000309484
-2.27141e-05
0.000313129
-2.22376e-05
0.000316611
-2.17063e-05
0.000319928
-2.11347e-05
0.000323081
-2.0535e-05
0.000326072
-1.99176e-05
0.000328905
-1.92914e-05
0.000331584
-1.86634e-05
0.000334116
-1.80394e-05
0.000336507
-1.74241e-05
0.000338762
-1.6821e-05
0.00034089
-1.62331e-05
0.000342897
-1.56623e-05
0.000344789
-1.51102e-05
0.000346574
-1.45776e-05
0.000348258
-1.40652e-05
0.000349847
-1.35731e-05
0.000351347
-1.31014e-05
0.000352763
-1.26497e-05
0.000354101
-1.22177e-05
0.000355367
-1.18049e-05
0.000356563
-1.14107e-05
0.000357696
-1.10343e-05
0.000358769
-1.0675e-05
0.000359786
-1.03321e-05
0.000360751
-1.00049e-05
0.000361667
-9.69256e-06
0.000362537
-9.39437e-06
0.000363363
-9.10962e-06
0.00036415
-8.83759e-06
0.000364899
-8.5776e-06
0.000365612
-8.32903e-06
0.000366292
-8.09123e-06
0.000366941
-7.86363e-06
0.000367561
-7.64566e-06
0.000368153
-7.43681e-06
0.000368719
-7.23656e-06
0.000369261
-7.04445e-06
0.00036978
-6.86003e-06
0.000370276
-6.68289e-06
0.000370753
-6.51265e-06
0.00037121
-6.34892e-06
0.000371648
-6.19137e-06
0.00037207
-6.03968e-06
0.000372475
-5.89353e-06
0.000372864
-5.75266e-06
0.000373239
-5.61678e-06
0.0003736
-5.48565e-06
0.000373948
-5.35904e-06
-5.23673e-06
0.00027035
-2.02557e-06
0.000271655
-6.1273e-06
0.000273798
-1.01024e-05
0.000276694
-1.3798e-05
0.000280239
-1.71189e-05
0.000284315
-2.0009e-05
0.000288803
-2.24439e-05
0.00029359
-2.44255e-05
0.000298572
-2.59742e-05
0.000303658
-2.71224e-05
0.000308767
-2.79093e-05
0.000313832
-2.83772e-05
0.000318799
-2.85688e-05
0.000323625
-2.85256e-05
0.000328277
-2.82864e-05
0.000332731
-2.78868e-05
0.000336971
-2.73589e-05
0.000340988
-2.6731e-05
0.000344778
-2.60277e-05
0.000348341
-2.527e-05
0.000351682
-2.44759e-05
0.000354808
-2.36602e-05
0.000357725
-2.28352e-05
0.000360445
-2.20108e-05
0.000362976
-2.1195e-05
0.000365331
-2.03941e-05
0.00036752
-1.96127e-05
0.000369553
-1.88544e-05
0.000371441
-1.81217e-05
0.000373196
-1.74164e-05
0.000374825
-1.67393e-05
0.000376338
-1.60911e-05
0.000377745
-1.54716e-05
0.000379052
-1.48805e-05
0.000380268
-1.43174e-05
0.0003814
-1.37813e-05
0.000382453
-1.32714e-05
0.000383435
-1.27867e-05
0.00038435
-1.2326e-05
0.000385204
-1.18883e-05
0.000386002
-1.14725e-05
0.000386747
-1.10773e-05
0.000387444
-1.07018e-05
0.000388096
-1.03448e-05
0.000388707
-1.00053e-05
0.00038928
-9.68227e-06
0.000389817
-9.37481e-06
0.000390321
-9.08199e-06
0.000390795
-8.80295e-06
0.000391241
-8.53688e-06
0.00039166
-8.28302e-06
0.000392055
-8.04063e-06
0.000392427
-7.80905e-06
0.000392779
-7.58765e-06
0.00039311
-7.37582e-06
0.000393423
-7.17302e-06
0.000393719
-6.97872e-06
0.000393999
-6.79244e-06
0.000394263
-6.61372e-06
0.000394514
-6.44215e-06
0.000394752
-6.27733e-06
0.000394977
-6.11888e-06
0.000395191
-5.96647e-06
0.000395394
-5.81976e-06
0.000395587
-5.67847e-06
0.00039577
-5.54231e-06
-5.41102e-06
0.000292058
-2.56863e-06
0.000293726
-7.79576e-06
0.000296457
-1.28327e-05
0.000300123
-1.74647e-05
0.000304574
-2.15692e-05
0.00030964
-2.50755e-05
0.000315154
-2.79583e-05
0.000320958
-3.02295e-05
0.00032691
-3.19258e-05
0.000332887
-3.30989e-05
0.000338786
-3.38084e-05
0.000344526
-3.41173e-05
0.000350044
-3.40874e-05
0.000355297
-3.37777e-05
0.000360252
-3.32422e-05
0.000364895
-3.25291e-05
0.000369217
-3.16809e-05
0.000373219
-3.07338e-05
0.00037691
-2.97186e-05
0.000380301
-2.86608e-05
0.000383407
-2.75813e-05
0.000386243
-2.64968e-05
0.000388829
-2.54208e-05
0.000391181
-2.43634e-05
0.000393319
-2.33324e-05
0.000395258
-2.23336e-05
0.000397017
-2.1371e-05
0.000398609
-2.04471e-05
0.000400051
-1.95635e-05
0.000401356
-1.87209e-05
0.000402536
-1.79191e-05
0.000403602
-1.71576e-05
0.000404566
-1.64355e-05
0.000405437
-1.57514e-05
0.000406223
-1.5104e-05
0.000406934
-1.44916e-05
0.000407575
-1.39125e-05
0.000408153
-1.33652e-05
0.000408675
-1.28478e-05
0.000409145
-1.23587e-05
0.000409569
-1.18962e-05
0.000409951
-1.14588e-05
0.000410294
-1.10449e-05
0.000410602
-1.06531e-05
0.000410879
-1.0282e-05
0.000411127
-9.93025e-06
0.000411349
-9.59666e-06
0.000411547
-9.28006e-06
0.000411723
-8.97937e-06
0.00041188
-8.69358e-06
0.000412019
-8.42174e-06
0.000412141
-8.16297e-06
0.000412248
-7.91643e-06
0.000412342
-7.68137e-06
0.000412423
-7.45708e-06
0.000412493
-7.24288e-06
0.000412553
-7.03817e-06
0.000412603
-6.84237e-06
0.000412644
-6.65494e-06
0.000412677
-6.4754e-06
0.000412703
-6.30328e-06
0.000412722
-6.13815e-06
0.000412736
-5.97963e-06
0.000412743
-5.82733e-06
0.000412746
-5.68092e-06
0.000412743
-5.54007e-06
-5.40449e-06
0.000313807
-3.26709e-06
0.000315991
-9.98016e-06
0.000319545
-1.63866e-05
0.000324275
-2.21941e-05
0.00032995
-2.72447e-05
0.000336318
-3.14432e-05
0.000343128
-3.47687e-05
0.000350154
-3.72549e-05
0.000357197
-3.89693e-05
0.000364098
-3.99993e-05
0.00037073
-4.04412e-05
0.000377005
-4.03922e-05
0.000382863
-3.9945e-05
0.000388269
-3.9184e-05
0.000393211
-3.8184e-05
0.000397691
-3.70089e-05
0.000401723
-3.57128e-05
0.000405329
-3.43399e-05
0.000408536
-3.2926e-05
0.000411375
-3.14992e-05
0.000413875
-3.00817e-05
0.000416068
-2.869e-05
0.000417984
-2.73364e-05
0.00041965
-2.60296e-05
0.000421093
-2.47755e-05
0.000422337
-2.35778e-05
0.000423405
-2.24384e-05
0.000424316
0.000425088
0.000425737
0.000426279
0.000426725
0.000427087
0.000427376
0.0004276
0.000427767
0.000427885
0.000427958
0.000427994
0.000427996
0.000427968
0.000427915
0.00042784
0.000427746
0.000427634
0.000427508
0.00042737
0.00042722
0.000427062
0.000426895
0.000426722
0.000426543
0.000426359
0.000426171
0.000425981
0.000425787
0.000425592
0.000425395
0.000425198
0.000425
0.000424801
0.000424603
0.000424405
0.000424207
0.000424011
0.000423815
0.000335616
0.000338581
0.000343324
0.000349562
0.000356915
0.000364976
0.000373362
0.000381745
0.000389861
0.000397516
0.000404581
0.000410982
0.00041669
0.000421709
0.000426067
0.000429805
0.000432975
0.000435632
0.00043783
0.000439623
0.000441062
0.000442191
0.000443054
0.000443687
0.000444122
0.00044439
)
;

boundaryField
{
    inlet
    {
        type            calculated;
        value           nonuniform List<scalar> 5(-0.000248327 -0.000269921 -0.000291515 -0.000313109 -0.000334702);
    }
    outlet
    {
        type            calculated;
        value           nonuniform 0();
    }
    wall
    {
        type            calculated;
        value           nonuniform 0();
    }
    wedge1
    {
        type            wedge;
        value           nonuniform List<scalar> 
344
(
-2.20078e-16
1.17851e-16
1.5775e-17
1.67462e-16
2.39084e-17
-7.60635e-16
4.21088e-16
6.7393e-17
5.91313e-16
9.8429e-17
-1.30233e-15
7.23889e-16
1.19715e-16
1.00985e-15
1.71833e-16
-1.81947e-15
1.01077e-15
1.68608e-16
1.39934e-15
2.38989e-16
-2.29788e-15
1.27342e-15
2.12675e-16
1.74734e-15
2.97561e-16
-2.72807e-15
1.50705e-15
2.51375e-16
2.04678e-15
3.46544e-16
-3.1047e-15
1.70871e-15
2.8413e-16
2.29424e-15
3.85236e-16
-3.42559e-15
1.87775e-15
3.10926e-16
2.49009e-15
4.14014e-16
-3.6914e-15
2.01499e-15
3.32031e-16
2.63707e-15
4.33681e-16
-3.90479e-15
2.12214e-15
3.4783e-16
2.73938e-15
4.45219e-16
-4.06935e-15
2.20172e-15
3.588e-16
2.80211e-15
4.498e-16
-4.18948e-15
2.25657e-15
3.65604e-16
2.82957e-15
4.48464e-16
-4.2703e-15
2.28942e-15
3.68445e-16
2.82491e-15
4.42276e-16
-4.31482e-15
2.30121e-15
3.6785e-16
2.79446e-15
4.32268e-16
-4.32576e-15
2.29536e-15
3.64479e-16
2.7439e-15
4.19621e-16
-4.3088e-15
2.27492e-15
3.58869e-16
2.67795e-15
4.05052e-16
-4.26902e-15
2.24265e-15
3.51477e-16
2.60059e-15
3.89199e-16
-4.21034e-15
2.20106e-15
3.42827e-16
2.51526e-15
3.72722e-16
1.78714e-15
-4.13661e-15
2.15207e-15
3.33198e-16
2.42464e-15
3.55895e-16
1.75669e-15
-4.05119e-15
2.0975e-15
3.22736e-16
2.33098e-15
3.39052e-16
1.72207e-15
-3.9566e-15
2.039e-15
3.11927e-16
2.23619e-15
3.22556e-16
1.68416e-15
-3.8554e-15
1.97773e-15
3.00896e-16
2.14162e-15
3.06446e-16
1.64386e-15
-3.7497e-15
1.91479e-15
2.89662e-16
2.04836e-15
2.90878e-16
1.6019e-15
-3.64111e-15
1.85116e-15
2.78579e-16
1.95729e-15
2.7595e-16
1.5589e-15
-3.53107e-15
1.78749e-15
2.67662e-16
1.86898e-15
2.61709e-16
1.51539e-15
-3.42075e-15
1.72439e-15
2.56887e-16
1.78385e-15
2.48183e-16
1.47176e-15
-3.31115e-15
1.66232e-15
2.4642e-16
1.70221e-15
2.35383e-16
1.42841e-15
-3.20301e-15
1.60168e-15
2.36309e-16
1.62425e-15
1.38552e-15
-3.097e-15
1.5426e-15
2.26479e-16
1.54988e-15
1.34343e-15
-2.9935e-15
1.48541e-15
2.17105e-16
1.47929e-15
1.30226e-15
-2.89288e-15
1.43032e-15
2.08154e-16
1.41248e-15
1.26215e-15
-2.79542e-15
1.37729e-15
1.99613e-16
1.34927e-15
1.2232e-15
-2.70125e-15
1.32639e-15
1.9148e-16
1.28953e-15
1.18548e-15
-2.61048e-15
1.27764e-15
1.8374e-16
1.23313e-15
1.14901e-15
-2.52316e-15
1.23101e-15
1.76386e-16
1.17994e-15
1.11383e-15
-2.4393e-15
1.18647e-15
1.69413e-16
1.12978e-15
1.07994e-15
-2.35886e-15
1.14399e-15
1.62796e-16
1.08251e-15
1.04732e-15
-2.28177e-15
1.10347e-15
1.56512e-16
1.03794e-15
1.01595e-15
-2.20796e-15
1.06485e-15
1.50556e-16
9.95925e-16
9.85805e-16
-2.13732e-15
1.02807e-15
1.4492e-16
9.56318e-16
9.56867e-16
-2.06976e-15
9.93053e-16
1.39567e-16
9.1897e-16
9.29094e-16
-2.00513e-15
9.59701e-16
1.345e-16
8.83735e-16
9.02433e-16
-1.94334e-15
9.27932e-16
1.29692e-16
8.5047e-16
8.76839e-16
-1.88425e-15
8.9767e-16
1.25124e-16
8.19052e-16
8.52284e-16
-1.82774e-15
8.68834e-16
1.20787e-16
7.89358e-16
8.28701e-16
-1.77373e-15
8.41353e-16
1.16681e-16
7.6128e-16
8.06116e-16
-1.72196e-15
8.15153e-16
1.12741e-16
7.34668e-16
7.84401e-16
-1.67239e-15
7.90165e-16
1.08944e-16
7.09496e-16
7.63522e-16
-1.62504e-15
7.66317e-16
1.05443e-16
6.85645e-16
7.43469e-16
-1.57967e-15
7.43546e-16
1.02096e-16
6.63013e-16
7.24194e-16
-1.53618e-15
7.21791e-16
9.89009e-17
6.41531e-16
7.05655e-16
-1.49448e-15
7.00997e-16
9.58512e-17
6.21116e-16
6.87827e-16
-1.45447e-15
6.81109e-16
9.29376e-17
6.01691e-16
6.70655e-16
-1.41607e-15
6.62068e-16
9.01521e-17
5.832e-16
6.54122e-16
-1.37919e-15
6.43842e-16
8.74959e-17
5.65591e-16
6.38179e-16
-1.34377e-15
6.2634e-16
8.4936e-17
5.4877e-16
6.22893e-16
-1.30964e-15
6.09639e-16
8.25922e-17
5.32833e-16
6.08115e-16
-1.27684e-15
5.93655e-16
8.0296e-17
5.17625e-16
5.93844e-16
-1.24528e-15
5.78195e-16
7.80673e-17
5.02978e-16
5.80057e-16
-1.21489e-15
5.63349e-16
7.59291e-17
4.88968e-16
5.6673e-16
-1.1856e-15
5.49082e-16
7.38711e-17
4.75565e-16
5.53859e-16
-1.15736e-15
5.3536e-16
7.19013e-17
4.62721e-16
5.4141e-16
-1.13013e-15
5.22151e-16
7.00055e-17
4.50405e-16
5.29345e-16
-1.10385e-15
5.09421e-16
6.8175e-17
4.38591e-16
5.17681e-16
-1.07848e-15
4.97148e-16
6.64199e-17
4.27236e-16
5.0638e-16
-1.05396e-15
4.85313e-16
6.47177e-17
4.16321e-16
4.95432e-16
-1.03027e-15
4.73887e-16
6.30791e-17
4.05829e-16
)
;
    }
    wedge2
    {
        type            wedge;
        value           nonuniform List<scalar> 
344
(
-2.20131e-16
1.17833e-16
1.57696e-17
1.67458e-16
2.38999e-17
-7.60809e-16
4.2066e-16
6.71312e-17
5.9087e-16
9.81048e-17
-1.30279e-15
7.22945e-16
1.18832e-16
1.00891e-15
1.71256e-16
-1.82038e-15
1.00944e-15
1.67396e-16
1.39809e-15
2.38196e-16
-2.299e-15
1.27212e-15
2.11494e-16
1.74624e-15
2.96942e-16
-2.72943e-15
1.5055e-15
2.50004e-16
2.04547e-15
3.45803e-16
-3.1062e-15
1.70711e-15
2.82716e-16
2.29301e-15
3.84621e-16
-3.4274e-15
1.87613e-15
3.09559e-16
2.48906e-15
4.13574e-16
-3.69354e-15
2.01328e-15
3.30704e-16
2.63617e-15
4.33353e-16
-3.90695e-15
2.12044e-15
3.46543e-16
2.73857e-15
4.45031e-16
-4.07154e-15
2.19999e-15
3.57582e-16
2.80143e-15
4.49736e-16
-4.19191e-15
2.25475e-15
3.64243e-16
2.82879e-15
4.48304e-16
-4.27266e-15
2.2874e-15
3.67066e-16
2.824e-15
4.42049e-16
-4.31708e-15
2.29932e-15
3.66521e-16
2.79368e-15
4.32232e-16
-4.32808e-15
2.29345e-15
3.63196e-16
2.74322e-15
4.19622e-16
-4.31127e-15
2.27306e-15
3.57647e-16
2.67736e-15
4.05123e-16
-4.2713e-15
2.24089e-15
3.5036e-16
2.60011e-15
3.89417e-16
-4.2127e-15
2.19919e-15
3.41635e-16
2.51476e-15
3.72905e-16
1.78453e-15
-4.13907e-15
2.15022e-15
3.31901e-16
2.42417e-15
3.56144e-16
1.75413e-15
-4.05347e-15
2.09574e-15
3.21606e-16
2.33061e-15
3.39438e-16
1.71943e-15
-3.95897e-15
2.03715e-15
3.10757e-16
2.23579e-15
3.22907e-16
1.68153e-15
-3.85784e-15
1.97591e-15
2.99645e-16
2.14124e-15
3.06861e-16
1.64127e-15
-3.752e-15
1.91306e-15
2.88577e-16
2.04805e-15
2.91394e-16
1.59937e-15
-3.64331e-15
1.84943e-15
2.7747e-16
1.957e-15
2.76573e-16
1.55643e-15
-3.53319e-15
1.78582e-15
2.66515e-16
1.86876e-15
2.62452e-16
1.51296e-15
-3.42281e-15
1.72281e-15
2.55898e-16
1.78375e-15
2.49056e-16
1.46941e-15
-3.31312e-15
1.66085e-15
2.45573e-16
1.70223e-15
2.36389e-16
1.42609e-15
-3.20491e-15
1.60027e-15
2.35579e-16
1.62435e-15
1.38338e-15
-3.09871e-15
1.54147e-15
2.2605e-16
1.55033e-15
1.34137e-15
-2.9951e-15
1.48452e-15
2.16849e-16
1.48e-15
1.3003e-15
-2.89438e-15
1.42948e-15
2.08027e-16
1.41326e-15
1.26028e-15
-2.79679e-15
1.37655e-15
1.99603e-16
1.35014e-15
1.2214e-15
-2.70252e-15
1.32575e-15
1.91573e-16
1.2905e-15
1.18374e-15
-2.61168e-15
1.27709e-15
1.83938e-16
1.2342e-15
1.14733e-15
-2.52429e-15
1.23055e-15
1.76684e-16
1.1811e-15
1.1122e-15
-2.44036e-15
1.18609e-15
1.69789e-16
1.13103e-15
1.07835e-15
-2.35984e-15
1.14367e-15
1.63252e-16
1.08384e-15
1.04577e-15
-2.28269e-15
1.10323e-15
1.57062e-16
1.03937e-15
1.01446e-15
-2.20882e-15
1.0647e-15
1.51196e-16
9.97453e-16
9.84369e-16
-2.13813e-15
1.02799e-15
1.45626e-16
9.57938e-16
9.55473e-16
-2.0705e-15
9.93028e-16
1.40359e-16
9.20672e-16
9.27727e-16
-2.00583e-15
9.59733e-16
1.35358e-16
8.85515e-16
9.01106e-16
-1.94398e-15
9.28033e-16
1.30621e-16
8.52337e-16
8.75566e-16
-1.88484e-15
8.97842e-16
1.26135e-16
8.21005e-16
8.51052e-16
-1.82828e-15
8.69084e-16
1.21881e-16
7.91399e-16
8.2754e-16
-1.77414e-15
8.41677e-16
1.17832e-16
7.634e-16
8.04916e-16
-1.72243e-15
8.15547e-16
1.14024e-16
7.36943e-16
7.83224e-16
-1.67295e-15
7.90623e-16
1.10462e-16
7.11855e-16
7.6241e-16
-1.62546e-15
7.6684e-16
1.06962e-16
6.8807e-16
7.42405e-16
-1.57999e-15
7.44134e-16
1.03647e-16
6.65513e-16
7.23175e-16
-1.53642e-15
7.22444e-16
1.00498e-16
6.44094e-16
7.04688e-16
-1.49465e-15
7.01708e-16
9.75022e-17
6.23745e-16
6.86895e-16
-1.45459e-15
6.81873e-16
9.46508e-17
6.04404e-16
6.69781e-16
-1.41614e-15
6.62896e-16
9.19337e-17
5.85995e-16
6.53298e-16
-1.3792e-15
6.44712e-16
8.93358e-17
5.68454e-16
6.3743e-16
-1.34369e-15
6.27322e-16
8.68738e-17
5.51763e-16
6.22054e-16
-1.30962e-15
6.10563e-16
8.4414e-17
5.35721e-16
6.07258e-16
-1.27682e-15
5.94441e-16
8.21129e-17
5.20388e-16
5.92992e-16
-1.24524e-15
5.79072e-16
7.99375e-17
5.05843e-16
5.79231e-16
-1.21481e-15
5.64299e-16
7.78547e-17
4.91929e-16
5.65947e-16
-1.1855e-15
5.50089e-16
7.58633e-17
4.786e-16
5.53102e-16
-1.15723e-15
5.36417e-16
7.39464e-17
4.65832e-16
5.40687e-16
-1.12995e-15
5.23257e-16
7.21088e-17
4.5359e-16
5.28699e-16
-1.10361e-15
5.10589e-16
7.03503e-17
4.41842e-16
5.17086e-16
-1.07817e-15
4.98385e-16
6.86536e-17
4.30571e-16
5.05848e-16
-1.05359e-15
4.86617e-16
6.70341e-17
4.19745e-16
4.94965e-16
-1.02982e-15
4.7527e-16
6.54729e-17
4.09333e-16
)
;
    }
    axis
    {
        type            empty;
        value           nonuniform 0();
    }
    procBoundary12to6
    {
        type            processor;
        value           nonuniform List<scalar> 
68
(
1.5228e-05
1.49731e-05
1.46846e-05
1.43704e-05
1.40374e-05
1.36912e-05
1.33368e-05
1.29782e-05
1.26189e-05
1.22616e-05
1.19085e-05
1.15615e-05
1.12219e-05
1.08908e-05
1.05689e-05
1.02567e-05
9.95468e-06
9.66291e-06
9.38144e-06
9.11022e-06
8.84911e-06
8.59788e-06
8.35629e-06
8.12403e-06
7.9008e-06
7.68624e-06
7.48002e-06
7.28178e-06
7.09119e-06
6.90788e-06
6.73154e-06
6.56184e-06
6.39845e-06
6.24108e-06
6.08944e-06
5.94325e-06
5.80225e-06
5.66618e-06
5.53481e-06
5.40792e-06
5.28529e-06
5.16672e-06
5.05202e-06
4.94102e-06
4.83354e-06
4.72943e-06
4.62853e-06
4.5307e-06
4.43582e-06
1.25464e-06
3.78359e-06
6.25101e-06
8.57967e-06
1.07149e-05
1.26206e-05
1.42766e-05
1.56768e-05
1.68262e-05
1.77376e-05
1.84293e-05
1.89223e-05
1.92387e-05
1.94008e-05
1.94299e-05
1.93461e-05
1.91679e-05
-0.000279028
1.89118e-05
)
;
    }
    procBoundary12to7
    {
        type            processor;
        value           uniform 0.000348739;
    }
    procBoundary12to13
    {
        type            processor;
        value           nonuniform List<scalar> 4(0.000374283 0.000395944 0.000412737 0.00042362);
    }
    procBoundary12to18
    {
        type            processor;
        value           nonuniform List<scalar> 
68
(
-2.13578e-05
-2.03356e-05
-1.93704e-05
-1.84606e-05
-1.76039e-05
-1.67979e-05
-1.60402e-05
-1.5328e-05
-1.46588e-05
-1.40299e-05
-1.34388e-05
-1.28832e-05
-1.23606e-05
-1.18689e-05
-1.14059e-05
-1.09698e-05
-1.05586e-05
-1.01706e-05
-9.80432e-06
-9.45813e-06
-9.13069e-06
-8.8207e-06
-8.52698e-06
-8.2484e-06
-7.98396e-06
-7.7327e-06
-7.49375e-06
-7.26629e-06
-7.04958e-06
-6.84293e-06
-6.6457e-06
-6.45729e-06
-6.27716e-06
-6.10481e-06
-5.93976e-06
-5.78158e-06
-5.62988e-06
-5.48427e-06
-5.3444e-06
-5.20997e-06
-4.18038e-06
-1.29458e-05
-2.11298e-05
-2.84321e-05
-3.45977e-05
-3.95034e-05
-4.31549e-05
-4.56377e-05
-4.70853e-05
-4.76544e-05
-4.75062e-05
-4.67935e-05
-4.56533e-05
-4.42033e-05
-4.25416e-05
-4.07473e-05
-3.88829e-05
-3.69965e-05
-3.51242e-05
-3.32925e-05
-3.15201e-05
-2.98196e-05
-2.81988e-05
-2.66622e-05
-2.52113e-05
-2.38458e-05
0.000444516
-2.25639e-05
)
;
    }
}


// ************************************************************************* //
