0.218136 	0.461342 	-2.5327e-18 	0.647328 	-0.0349935 	5.98509e-16
0.219895 	0.465063 	3.04833e-19 	0.542338 	-0.0241237 	5.02723e-16
0.221549 	0.468562 	7.73156e-19 	0.516905 	-0.0203359 	6.57107e-16
0.224753 	0.475337 	1.16933e-18 	0.409762 	-0.0124952 	5.04929e-16
0.228062 	0.482335 	1.49981e-18 	0.297691 	-0.00635451 	3.44932e-16
0.23137 	0.489332 	2.09984e-18 	0.181377 	-0.00218616 	2.01996e-16
0.234679 	0.49633 	2.24803e-18 	0.0614198 	-0.000317836 	6.53087e-17
