0.145026 	0.482335 	-1.01551e-18 	0.383217 	-0.0144444 	2.13595e-16
0.14713 	0.489332 	-1.84532e-19 	0.235256 	-0.00506307 	1.03152e-16
0.149234 	0.49633 	6.26892e-19 	0.080169 	-0.000755415 	-2.17947e-17
