/*--------------------------------*- C++ -*----------------------------------*\
  =========                 |
  \\      /  F ield         | OpenFOAM: The Open Source CFD Toolbox
   \\    /   O peration     | Website:  https://openfoam.org
    \\  /    A nd           | Version:  7
     \\/     M anipulation  |
\*---------------------------------------------------------------------------*/
FoamFile
{
    version     2.0;
    format      ascii;
    class       volScalarField;
    location    "2";
    object      p;
}
// * * * * * * * * * * * * * * * * * * * * * * * * * * * * * * * * * * * * * //

dimensions      [0 2 -2 0 0 0 0];

internalField   nonuniform List<scalar> 
344
(
0.186088
0.187711
0.189012
0.189945
0.190472
0.190564
0.190195
0.189352
0.188027
0.186221
0.183942
0.181206
0.178034
0.174449
0.170481
0.166158
0.161514
0.156578
0.151382
0.145956
0.140325
0.134518
0.128556
0.122461
0.116253
0.109947
0.103559
0.0971014
0.0905853
0.0840202
0.0774142
0.070774
0.0641056
0.0574137
0.0507024
0.0439751
0.0372346
0.0304832
0.0237221
0.0169548
0.0101769
0.00340359
0.165095
0.163218
0.161551
0.160115
0.158924
0.157993
0.157335
0.15696
0.156873
0.157079
0.157576
0.158361
0.159424
0.160753
0.162329
0.16413
0.166127
0.168288
0.170576
0.172948
0.175359
0.177759
0.180097
0.182319
0.184372
0.186202
0.187759
0.188996
0.189869
0.190342
0.190385
0.189975
0.189098
0.187747
0.185924
0.183635
0.180896
0.177726
0.174149
0.170193
0.165886
0.161259
0.156343
0.151167
0.145761
0.14015
0.134362
0.128418
0.12234
0.116147
0.109855
0.10348
0.0970335
0.0905273
0.083971
0.0773725
0.070739
0.0640763
0.0573894
0.0506825
0.0439589
0.0372216
0.0304731
0.0237146
0.0169497
0.0101737
0.00340334
0.165437
0.163595
0.161964
0.160561
0.159403
0.158503
0.157873
0.157523
0.157459
0.157682
0.158193
0.158986
0.160052
0.161378
0.162944
0.164728
0.166702
0.168833
0.171083
0.173412
0.175773
0.178118
0.180396
0.182556
0.184544
0.186309
0.187802
0.188976
0.189792
0.190212
0.190209
0.189759
0.18885
0.187475
0.185634
0.183335
0.180593
0.177426
0.173857
0.169912
0.16562
0.161011
0.156113
0.150957
0.14557
0.139978
0.134208
0.128282
0.122221
0.116043
0.109765
0.103402
0.0969663
0.09047
0.0839222
0.0773313
0.0707043
0.0640473
0.0573653
0.0506625
0.0439427
0.0372086
0.0304629
0.0237069
0.0169445
0.0101705
0.00340297
0.165778
0.163971
0.162374
0.161004
0.159878
0.159008
0.158406
0.15808
0.158037
0.158277
0.158801
0.159601
0.160669
0.16199
0.163546
0.165313
0.167263
0.169363
0.171577
0.173862
0.176173
0.178464
0.180685
0.182783
0.184708
0.18641
0.187841
0.188956
0.189716
0.190086
0.190037
0.18955
0.18861
0.187211
0.185354
0.183046
0.1803
0.177136
0.173574
0.16964
0.165363
0.16077
0.15589
0.150752
0.145384
0.139811
0.134059
0.12815
0.122104
0.115941
0.109676
0.103325
0.0969004
0.0904136
0.0838742
0.0772906
0.07067
0.0640186
0.0573414
0.0506428
0.0439266
0.0371956
0.0304528
0.0236993
0.0169392
0.0101673
0.00340249
0.166115
0.164342
0.162779
0.161441
0.160346
0.159505
0.15893
0.158628
0.158604
0.158861
0.159396
0.160203
0.161272
0.162588
0.164133
0.165883
0.167809
0.169879
0.172055
0.174298
0.176561
0.1788
0.180963
0.183003
0.184867
0.186509
0.18788
0.188938
0.189645
0.189966
0.189874
0.189351
0.188381
0.186959
0.185086
0.182769
0.18002
0.176857
0.173302
0.169379
0.165115
0.160537
0.155675
0.150554
0.145204
0.139649
0.133914
0.128021
0.121991
0.115841
0.10959
0.10325
0.0968361
0.0903585
0.0838273
0.0772508
0.0706365
0.0639905
0.057318
0.0506235
0.0439108
0.0371829
0.0304428
0.0236917
0.0169339
0.010164
0.00340191
0.166447
0.164707
0.163176
0.16187
0.160805
0.159992
0.159442
0.159162
0.159158
0.15943
0.159976
0.160788
0.161858
0.163169
0.164703
0.166436
0.168338
0.170379
0.172519
0.17472
0.176938
0.179125
0.181234
0.183217
0.185023
0.186606
0.187921
0.188924
0.189579
0.189854
0.189722
0.189163
0.188165
0.186722
)
;

boundaryField
{
    inlet
    {
        type            zeroGradient;
    }
    outlet
    {
        type            fixedValue;
        value           uniform 0;
    }
    wall
    {
        type            zeroGradient;
    }
    wedge1
    {
        type            wedge;
    }
    wedge2
    {
        type            wedge;
    }
    axis
    {
        type            empty;
    }
    procBoundary29to23
    {
        type            processor;
        value           nonuniform List<scalar> 
68
(
0.185966
0.187657
0.189022
0.190017
0.190602
0.190743
0.190417
0.189609
0.18831
0.186523
0.184255
0.181523
0.178347
0.174754
0.170773
0.166436
0.161773
0.156817
0.151601
0.146153
0.140503
0.134675
0.128695
0.122583
0.116359
0.110039
0.103639
0.0971697
0.0906435
0.0840696
0.0774558
0.070809
0.0641348
0.0574379
0.0507223
0.0439913
0.0372474
0.0304932
0.0237296
0.0169598
0.01018
0.00340374
0.164755
0.162842
0.16114
0.159668
0.158444
0.157482
0.156795
0.156393
0.156283
0.156469
0.156952
0.157727
0.158786
0.160117
0.161702
0.163518
0.165539
0.16773
0.170055
0.172471
0.174932
0.177388
0.179786
0.182072
0.184191
0.184191
)
;
    }
    procBoundary29to28
    {
        type            processor;
        value           nonuniform List<scalar> 4(0.167164 0.16747 0.167776 0.168079);
    }
    procBoundary29to34
    {
        type            processor;
        value           uniform 0.168377;
    }
    procBoundary29to35
    {
        type            processor;
        value           nonuniform List<scalar> 
68
(
0.184833
0.182507
0.179754
0.176593
0.173044
0.169131
0.164879
0.160316
0.155469
0.150366
0.145032
0.139494
0.133775
0.127898
0.121882
0.115746
0.109507
0.103178
0.096774
0.0903053
0.0837819
0.0772123
0.070604
0.0639631
0.0572952
0.0506046
0.0438953
0.0371704
0.030433
0.0236843
0.0169287
0.0101608
0.00340125
0.16677
0.165062
0.163563
0.162288
0.161251
0.160465
0.15994
0.159682
0.159696
0.159982
0.160538
0.161357
0.162427
0.163733
0.165256
0.166972
0.168851
0.170863
0.172969
0.17513
0.177303
0.179441
0.181499
0.183427
0.185178
0.186706
0.187966
0.188917
0.189524
0.189754
0.189583
0.188991
0.187965
0.184833
0.186501
)
;
    }
}


// ************************************************************************* //
