/*--------------------------------*- C++ -*----------------------------------*\
  =========                 |
  \\      /  F ield         | OpenFOAM: The Open Source CFD Toolbox
   \\    /   O peration     | Website:  https://openfoam.org
    \\  /    A nd           | Version:  7
     \\/     M anipulation  |
\*---------------------------------------------------------------------------*/
FoamFile
{
    version     2.0;
    format      ascii;
    class       volVectorField;
    location    "3";
    object      U;
}
// * * * * * * * * * * * * * * * * * * * * * * * * * * * * * * * * * * * * * //

dimensions      [0 1 -1 0 0 0 0];

internalField   nonuniform List<vector> 
346
(
(-1.37328 0.0447917 -4.45322e-16)
(-1.29765 0.0475023 1.28615e-16)
(-1.29318 0.103028 -1.42711e-17)
(-1.22297 0.0874535 2.53405e-17)
(-1.16888 0.127423 8.49005e-16)
(-1.09737 0.137833 2.01404e-16)
(-1.01334 0.162127 8.41793e-16)
(-0.9198 0.181993 3.32461e-16)
(-0.815141 0.202225 1.04953e-15)
(-0.702292 0.218839 8.18917e-16)
(-0.582105 0.230346 8.02599e-16)
(0.0589408 0.194258 -5.02877e-15)
(0.143731 0.396017 -3.18844e-15)
(0.349999 0.396713 -1.11078e-15)
(0.142676 0.316045 -2.0629e-15)
(0.82907 0.432561 -5.46674e-16)
(0.580358 0.721632 -3.65205e-15)
(0.969832 0.327622 -1.2807e-15)
(1.37768 -0.00244556 -1.33593e-15)
(1.04878 0.286098 -4.80839e-16)
(1.66754 -0.0563336 -1.70154e-15)
(1.96225 -0.169573 -1.13495e-15)
(1.72917 0.0191869 -9.20649e-16)
(2.12071 -0.121686 -1.33661e-15)
(2.21376 -0.00383772 -9.63554e-16)
(1.98655 0.223926 -1.02067e-15)
(2.10668 0.277219 -1.23942e-15)
(1.89663 0.34194 -9.26596e-16)
(2.25486 0.224101 -1.23943e-15)
(2.34722 0.184902 -1.33984e-15)
(2.43202 0.165787 -1.32684e-15)
(2.70349 -0.0616191 -1.67134e-15)
(2.61944 -0.213379 -1.32302e-15)
(2.90611 -0.4449 -2.18594e-15)
(2.96809 -0.67129 -1.17663e-15)
(2.35134 -0.68991 1.07329e-16)
(1.59991 -0.681273 -1.33297e-15)
(1.16635 -0.631659 -1.17054e-15)
(0.864469 -0.432302 -4.67987e-16)
(0.670179 -0.0632433 -1.19937e-15)
(0.608479 0.401643 -4.62534e-16)
(0.695192 0.731813 -2.63296e-15)
(0.896202 0.857614 -2.3512e-15)
(1.12144 0.76035 -2.24729e-15)
(1.3673 0.482875 -2.65747e-15)
(1.70761 0.106703 -1.66374e-15)
(1.93284 -0.118049 -1.41377e-15)
(1.98384 -0.109177 -2.49152e-15)
(1.65404 -0.11214 -1.52301e-15)
(1.09055 -0.296864 1.82617e-16)
(0.461314 -0.514007 2.8677e-16)
(0.0821797 -0.603717 -8.30088e-16)
(-0.194322 -0.551034 -2.53822e-15)
(-0.312702 -0.504683 -2.3919e-15)
(-0.440964 -0.46009 -2.47659e-15)
(-0.611271 -0.373034 -2.53868e-15)
(-0.807338 -0.330043 -4.16605e-15)
(-0.829454 -0.291769 -4.47176e-15)
(-1.04341 -0.295332 2.59664e-16)
(-1.13754 -0.198854 -3.08259e-15)
(-1.26241 -0.13665 -5.39474e-15)
(-1.35652 -0.173134 3.88288e-16)
(-1.3292 -0.0806294 -1.43732e-15)
(-1.40572 -0.00560686 -1.89134e-15)
(-1.43336 -0.0496111 -1.74712e-17)
(-1.34777 -0.00945009 6.71274e-16)
(-1.39729 0.0470792 -9.47009e-16)
(-1.34146 0.0324098 8.29206e-16)
(-1.31411 0.0306162 -1.05823e-16)
(-1.26559 0.0911803 -3.04527e-16)
(-1.22084 0.0598869 9.21938e-16)
(-1.15137 0.103022 -4.70445e-17)
(-1.08666 0.106217 4.62909e-16)
(-1.00456 0.129387 6.53198e-16)
(-0.917413 0.146807 2.20544e-16)
(-0.818119 0.164958 7.41266e-16)
(-0.708219 0.17896 2.44726e-16)
(-0.586768 0.187674 7.81355e-16)
(0.136223 0.060744 -2.38158e-15)
(0.120324 0.316874 -2.08614e-15)
(0.172239 0.404474 -1.07312e-15)
(0.569635 0.140406 -1.10454e-15)
(0.929631 0.283973 -1.31102e-15)
(0.567034 0.616138 -2.66974e-15)
(1.19567 0.195388 -2.44495e-15)
(1.09958 0.0228402 1.92128e-16)
(1.21664 0.210527 -1.17663e-15)
(1.87928 -0.153411 -1.27815e-15)
(1.9336 -0.197087 -1.20084e-15)
(1.93792 -0.0323842 -3.29958e-16)
(2.16721 -0.147775 -9.42648e-16)
(2.09313 0.0278837 1.834e-17)
(2.1312 0.243664 -6.72002e-16)
(2.14891 0.304602 -4.82142e-16)
(2.0546 0.301678 -1.10372e-15)
(2.42483 0.143261 -8.94018e-16)
(2.45868 0.151384 -1.36374e-15)
(2.67338 0.109677 -6.18526e-16)
(2.75825 -0.102886 -1.4108e-15)
(2.73431 -0.250311 -1.11505e-15)
(2.94011 -0.445775 -8.281e-16)
(2.61168 -0.530232 -2.94057e-16)
(1.78264 -0.455407 1.63849e-16)
(1.09239 -0.496563 -1.86e-15)
(0.683166 -0.505124 -1.52099e-15)
(0.398961 -0.32095 -2.51756e-16)
(0.226108 0.00264354 -1.3002e-15)
(0.242369 0.386451 -2.13658e-15)
(0.474309 0.641571 -2.77672e-15)
(0.805173 0.760133 -2.62786e-15)
(1.14626 0.687522 -2.60957e-15)
(1.55688 0.405272 -2.74805e-15)
(1.99861 0.037276 -1.26436e-15)
(2.16249 -0.164582 -7.15585e-16)
(2.21899 -0.0902194 -1.10588e-15)
(2.03186 0.0153847 -1.04982e-15)
(1.59614 -0.0940952 -9.24099e-16)
(0.940739 -0.316237 1.81341e-16)
(0.414913 -0.459178 5.84764e-16)
(-0.00304791 -0.462845 -7.12387e-16)
(-0.198945 -0.432351 -1.67872e-15)
(-0.434481 -0.394191 -1.94553e-15)
(-0.604899 -0.304171 -2.52223e-15)
(-0.78177 -0.284605 -3.1337e-15)
(-0.811336 -0.251582 -3.42987e-15)
(-1.0459 -0.228406 1.28403e-16)
(-1.16606 -0.154934 -4.14935e-15)
(-1.21554 -0.10405 -3.80027e-15)
(-1.32064 -0.154413 2.91035e-16)
(-1.3341 -0.0789994 2.31959e-15)
(-1.36971 0.0136159 -5.05695e-15)
(-1.43882 -0.0483282 2.68798e-16)
(-1.34733 -0.0272089 1.52314e-16)
(-1.36132 0.0430589 -2.57667e-15)
(-1.37685 0.024272 -3.53267e-16)
(-1.27814 0.00918567 -1.03684e-15)
(-1.27887 0.0770278 -9.62235e-16)
(-1.21373 0.0382154 -8.70722e-16)
(-1.15464 0.0814436 9.5514e-16)
(-1.09145 0.0818287 -6.57398e-16)
(-1.00992 0.10151 8.54753e-16)
(-0.920551 0.11376 -9.79311e-16)
(-0.814851 0.125351 1.17446e-15)
(-0.695842 0.132416 9.02374e-17)
(-0.564776 0.134836 8.91874e-16)
(-0.0526165 0.0793539 -1.67093e-15)
(-0.295987 0.340192 -2.76307e-15)
(0.298122 0.228555 -1.22221e-15)
(0.69495 0.0607717 -1.33442e-15)
(0.698549 0.369051 -1.00377e-15)
(0.857598 0.592833 -2.12018e-15)
(1.39655 0.20735 -1.91283e-15)
(1.14013 -0.0450995 -5.39472e-16)
(1.58474 -0.0401981 -1.46637e-15)
(2.01907 -0.191412 -1.66252e-15)
(1.92242 -0.190579 -1.06421e-15)
(2.04328 -0.130945 -2.37734e-16)
(1.88043 -0.138754 -6.65828e-16)
(1.80036 0.0100071 -4.24242e-16)
(2.03002 0.16498 -7.46549e-16)
(1.9881 0.305516 -4.93394e-16)
(2.17125 0.240094 -4.75728e-16)
(2.38343 0.0745734 -4.18307e-16)
(2.45114 0.120229 -8.19111e-16)
(2.71679 0.0796754 -2.56338e-16)
(2.64718 -0.104131 -1.04927e-15)
(2.63138 -0.272623 -6.15197e-16)
(2.56166 -0.353071 -7.81041e-16)
(1.89796 -0.291236 -7.11209e-16)
(1.15436 -0.227863 -1.25931e-15)
(0.680819 -0.327027 -1.24319e-15)
(0.2623 -0.374824 -1.47914e-15)
(-0.0518256 -0.248613 -9.31176e-18)
(-0.170381 0.0169093 -9.20726e-16)
(-0.0622997 0.313002 -2.27613e-15)
(0.29456 0.496134 -2.19004e-15)
(0.673674 0.594979 -2.4534e-15)
(1.14491 0.481326 -2.50204e-15)
(1.70086 0.193964 -1.90693e-15)
(2.18188 -0.0800408 -1.72129e-15)
(2.20209 -0.200978 -9.05346e-16)
(2.16625 -0.0828433 -1.10802e-15)
(2.1521 0.10878 -1.41211e-15)
(1.99601 0.0925353 -1.64134e-15)
(1.50021 -0.102303 -9.5452e-16)
(0.918944 -0.27131 -1.46559e-16)
(0.351456 -0.329996 1.25589e-16)
(0.0283552 -0.330513 -4.69615e-16)
(-0.298848 -0.308467 -4.29614e-16)
(-0.520968 -0.240627 -9.51919e-16)
(-0.698151 -0.234667 -8.4542e-16)
(-0.835922 -0.195788 -1.34676e-15)
(-1.0461 -0.150632 -4.1331e-16)
(-1.18005 -0.126426 -2.12067e-15)
(-1.17605 -0.085907 -2.61407e-15)
(-1.30386 -0.111963 1.26796e-15)
(-1.40758 -0.0611424 5.98095e-16)
(-1.36309 0.0227275 -3.95583e-15)
(-1.38723 -0.0461161 2.30457e-16)
(-1.41458 -0.0443911 2.37415e-15)
(-1.36661 0.0581437 -2.63369e-15)
(-1.3569 0.00350893 -1.32093e-15)
(-1.32151 -0.00955162 3.00479e-15)
(-1.26636 0.0726403 -2.23148e-15)
(-1.22663 0.0100975 3.00645e-16)
(-1.15362 0.0635018 1.46218e-15)
(-1.09044 0.052298 -6.17353e-16)
(-1.00282 0.0684597 1.19289e-15)
(-0.909279 0.0740371 2.47594e-16)
(-0.801773 0.0806217 1.08633e-15)
(-0.68701 0.0842985 8.59056e-16)
(-0.568183 0.0862097 8.25114e-16)
(-0.310513 0.100601 -1.51439e-15)
(-0.277142 0.21813 -1.6755e-15)
(0.438965 0.0445865 -3.00647e-15)
(0.496586 -0.0142228 -6.59968e-16)
(0.56921 0.224532 -2.51499e-15)
(1.04149 0.385788 -1.77825e-15)
(1.65514 0.164321 -2.6018e-15)
(1.66672 -0.0640999 -9.24841e-16)
(1.77219 -0.180999 -1.6449e-15)
(1.88459 -0.270939 -6.41984e-16)
(1.61815 -0.176695 -4.96852e-16)
(1.30471 -0.0306809 6.08791e-16)
(1.04757 -0.0157936 -1.65249e-16)
(1.05037 0.0257226 6.96936e-16)
(1.21537 0.151565 -6.40849e-16)
(1.48743 0.217665 -1.09189e-16)
(1.81639 0.136805 -1.15857e-15)
(1.90402 0.0506963 1.28494e-16)
(2.11621 0.0451103 -9.10155e-16)
(2.29227 0.0333091 -9.60748e-16)
(2.2071 -0.0965814 -3.62035e-16)
(2.06621 -0.235838 -2.89082e-16)
(1.70474 -0.193409 -7.38216e-16)
(1.15546 -0.0473071 6.72325e-16)
(0.787621 -0.0413089 -2.12014e-16)
(0.440069 -0.173354 -1.32434e-15)
(-0.0528803 -0.22248 -1.91472e-15)
(-0.42756 -0.149849 -1.40546e-15)
(-0.519926 0.0269446 -1.03284e-15)
(-0.328866 0.217572 -2.46691e-15)
(0.150625 0.344081 -1.45164e-15)
(0.669446 0.413727 -2.07391e-15)
(1.31916 0.293223 -1.95873e-15)
(1.82907 0.0489287 -1.97746e-15)
(2.13119 -0.146932 -1.36035e-15)
(1.98561 -0.187281 -9.64599e-16)
(1.75266 -0.0765101 -6.6866e-16)
(1.76777 0.0731213 -1.27991e-15)
(2.01511 0.111872 -1.30699e-15)
(1.92591 0.0547938 -8.66298e-16)
(1.51539 -0.0458918 -2.61167e-16)
(0.913166 -0.139237 -3.39043e-16)
(0.459287 -0.189727 -6.76945e-16)
(0.0710177 -0.196243 -6.62609e-16)
(-0.281799 -0.164345 -1.26099e-15)
(-0.475203 -0.153538 -7.33157e-16)
(-0.756535 -0.130416 -1.35322e-15)
(-0.928089 -0.0952576 -4.59192e-16)
(-1.07949 -0.100361 -1.24364e-15)
(-1.15193 -0.0587012 -1.64221e-16)
(-1.25691 -0.0562973 -3.56056e-16)
(-1.40689 -0.0570621 1.2062e-15)
(-1.35952 0.00327908 -3.26258e-15)
(-1.29862 -0.0134154 1.04658e-15)
(-1.47312 -0.0447174 1.37073e-15)
(-1.41986 0.0303372 -7.67512e-16)
(-1.21366 0.00532019 -1.37332e-15)
(-1.49077 -0.0214322 2.54974e-15)
(-1.16695 0.0442386 -2.22543e-16)
(-1.30316 -0.00272884 1.44252e-16)
(-1.14919 0.0326087 1.4277e-15)
(-1.11902 0.0246119 8.83175e-16)
(-1.02432 0.0347026 7.49993e-16)
(-0.939031 0.0385864 1.742e-15)
(-0.840143 0.0434584 5.08644e-16)
(-0.737783 0.0469539 2.06619e-15)
(-0.632516 0.0494585 -1.38908e-16)
(-0.425192 0.0578265 -1.3121e-15)
(-0.02007 0.0374983 -6.76313e-16)
(0.21438 -0.0176592 -1.20538e-15)
(0.0881561 0.0392602 -6.56445e-16)
(0.306553 0.159052 -1.62978e-15)
(1.00598 0.213497 -1.59686e-15)
(1.81261 0.0750741 -1.61753e-15)
(1.82681 -0.0879165 -1.0623e-15)
(1.28647 -0.113146 -7.93595e-16)
(0.75784 -0.0189324 -5.10285e-16)
(0.463118 0.0187261 -3.80336e-16)
(0.380226 0.000631753 -2.87932e-16)
(0.309085 -0.0266035 -6.464e-16)
(0.253043 -0.0174378 -3.44234e-16)
(0.38806 0.0406746 -4.95163e-16)
(0.748244 0.0712675 -5.43052e-16)
(1.10525 0.02873 -6.60993e-16)
(1.19172 -0.0177208 -5.27148e-16)
(1.25702 0.0395736 -3.50222e-16)
(1.50106 0.0196476 -5.7332e-16)
(1.39508 -0.0998676 -4.497e-16)
(0.901062 -0.0564978 -5.68849e-16)
(0.596426 0.0275827 -6.28761e-16)
(0.540144 0.0445246 -4.87236e-16)
(0.595104 0.000486752 -7.04197e-16)
(0.417664 -0.069754 -7.84828e-16)
(-0.089193 -0.0943785 -1.37938e-15)
(-0.544318 -0.0672395 -1.41306e-15)
(-0.670968 -0.00151911 -9.85064e-16)
(-0.432959 0.0633986 -1.73723e-15)
(0.0413162 0.11634 -1.2585e-15)
(0.734456 0.149579 -1.54898e-15)
(1.50646 0.0571392 -1.78124e-15)
(1.7638 -0.074014 -1.50542e-15)
(1.49349 -0.0920379 -4.38156e-16)
(1.03347 -0.0241318 -5.46455e-17)
(0.858799 0.0211698 -1.6322e-16)
(0.886213 0.0444399 -6.85663e-16)
(1.16729 0.0590261 -5.41561e-16)
(1.30588 0.0593469 -5.47806e-16)
(1.45015 0.063126 -2.89484e-16)
(1.3753 -0.00260049 -1.39217e-17)
(1.06738 -0.045167 3.34565e-16)
(0.772313 -0.0670694 2.06099e-16)
(0.325454 -0.0700895 1.21622e-17)
(0.117304 -0.0473645 -2.08312e-17)
(-0.236568 -0.0650347 2.81258e-16)
(-0.458751 -0.0335025 -2.67325e-17)
(-0.590398 -0.039835 2.01365e-16)
(-0.836704 -0.0425952 1.40128e-16)
(-0.899866 -0.00846793 2.57148e-16)
(-0.983456 -0.0272975 7.02706e-16)
(-1.14843 -0.0278709 -1.78242e-16)
(-1.07638 0.00855695 -1.01239e-16)
(-1.12746 -0.0153848 9.21161e-16)
(-1.28657 -0.0168464 7.82706e-16)
(-1.05198 0.0129338 -3.37125e-16)
(-1.27902 -0.0132736 8.93195e-16)
(-1.11259 0.00396106 5.80434e-16)
(-1.17318 0.00222576 3.17101e-16)
(-1.10222 0.00318284 2.2493e-16)
(-1.0741 0.00659172 8.06156e-16)
(-1.0136 0.0078488 2.85326e-16)
(-0.951794 0.0100944 1.0197e-15)
(-0.877767 0.0116675 -3.52126e-19)
(-0.797504 0.0129922 8.14846e-16)
(-0.711668 0.0137469 -1.62557e-16)
)
;

boundaryField
{
    inlet
    {
        type            uniformFixedValue;
        uniformValue    constant (1 0 0);
        value           nonuniform 0();
    }
    outlet
    {
        type            pressureInletOutletVelocity;
        value           nonuniform 0();
    }
    wall
    {
        type            fixedValue;
        value           uniform (0 0 0);
    }
    wedge1
    {
        type            wedge;
    }
    wedge2
    {
        type            wedge;
    }
    axis
    {
        type            empty;
    }
    procBoundary46to40
    {
        type            processor;
        value           nonuniform List<vector> 
68
(
(-1.39789 0.0550357 -2.70076e-16)
(-1.31759 0.0705615 -8.63958e-18)
(-1.29434 0.109729 4.82212e-18)
(-1.23373 0.111335 1.01327e-16)
(-1.17554 0.14773 -9.38964e-17)
(-1.10909 0.167356 -5.29816e-16)
(-1.02791 0.196428 6.69605e-16)
(-0.935211 0.222009 -9.06299e-16)
(-0.828434 0.246419 1.26915e-15)
(-0.710968 0.266402 -5.83942e-16)
(-0.586203 0.280238 1.70779e-15)
(0.145337 0.230488 -5.0662e-15)
(0.150877 0.443808 -4.16505e-15)
(0.273895 0.387159 -2.18981e-15)
(0.272536 0.338818 -1.26581e-15)
(0.728303 0.488875 -1.13554e-15)
(0.73594 0.720612 -1.77662e-15)
(0.695046 0.500045 -1.84349e-15)
(1.36292 0.0831454 -1.2483e-15)
(0.92508 0.351472 -1.83292e-15)
(1.39234 0.095809 -1.82028e-15)
(1.93907 -0.136006 -5.59034e-16)
(1.54827 0.054435 -9.92395e-16)
(1.9379 -0.0449894 -5.51803e-16)
(2.21114 -0.0221568 -5.37193e-16)
(1.75121 0.21986 -4.38553e-16)
(1.88546 0.294077 -8.20761e-16)
(1.71059 0.353732 -8.10472e-16)
(1.91073 0.308471 -1.2165e-15)
(2.16577 0.215927 -6.51437e-16)
(2.13585 0.206864 -1.28434e-15)
(2.51844 -0.0240476 -2.20879e-15)
(2.50072 -0.190991 -1.25228e-15)
(2.6781 -0.391113 -1.45936e-15)
(3.01581 -0.735436 -1.80873e-15)
(2.74058 -0.885073 -4.22979e-16)
(2.07937 -0.894414 -9.49374e-16)
(1.63483 -0.791866 -1.62208e-15)
(1.30641 -0.547218 -8.55539e-16)
(1.11049 -0.131054 -6.85785e-16)
(0.989819 0.382516 -3.77049e-16)
(0.965497 0.778572 -2.08288e-15)
(1.03674 0.93898 -1.72592e-15)
(1.14586 0.850078 -2.13192e-15)
(1.25321 0.575429 -2.06948e-15)
(1.46968 0.201263 -2.64472e-15)
(1.65448 -0.064367 -1.82664e-15)
(1.61685 -0.163664 -6.8354e-16)
(1.1788 -0.28856 -1.01624e-15)
(0.611512 -0.508931 9.85659e-19)
(0.125421 -0.675327 -4.55233e-16)
(-0.097323 -0.706597 -1.50559e-15)
(-0.272765 -0.611403 -3.01998e-15)
(-0.381984 -0.552242 -2.75609e-15)
(-0.424009 -0.511606 -2.89058e-15)
(-0.599308 -0.443828 -2.27037e-15)
(-0.80322 -0.382823 -6.20687e-15)
(-0.882357 -0.338866 -7.82453e-15)
(-1.07874 -0.350165 -1.39465e-15)
(-1.1571 -0.239028 -4.77029e-15)
(-1.31647 -0.179972 -6.42074e-15)
(-1.38426 -0.19618 -1.36792e-15)
(-1.36623 -0.0914827 -3.52493e-15)
(-1.47287 -0.0171889 -1.8142e-15)
(-1.43851 -0.0396226 -1.0767e-15)
(-1.37432 -0.00833821 -1.41624e-15)
(-1.39808 0.0508387 3.7322e-16)
(-1.39808 0.0508387 3.7322e-16)
)
;
    }
    procBoundary46to41
    {
        type            processor;
        value           uniform (-0.455765 0.234663 1.26008e-15);
    }
    procBoundary46to45
    {
        type            processor;
        value           nonuniform List<vector> 5((-0.249029 0.239143 -3.99631e-15) (-0.323365 0.176996 -1.87656e-15) (-0.221107 0.0711768 -2.11856e-15) (-0.339241 0.0137406 -1.91792e-15) (-0.509721 0.0183558 -1.14099e-15));
    }
    procBoundary46to47
    {
        type            processor;
        value           nonuniform List<vector> 5((-0.455804 0.189812 8.85922e-18) (-0.426965 0.132638 3.53508e-16) (-0.451373 0.0864672 8.85528e-16) (-0.527722 0.0507786 2.22213e-15) (-0.623031 0.0139754 9.66614e-16));
    }
}


// ************************************************************************* //
