/*--------------------------------*- C++ -*----------------------------------*\
  =========                 |
  \\      /  F ield         | OpenFOAM: The Open Source CFD Toolbox
   \\    /   O peration     | Website:  https://openfoam.org
    \\  /    A nd           | Version:  7
     \\/     M anipulation  |
\*---------------------------------------------------------------------------*/
FoamFile
{
    version     2.0;
    format      ascii;
    class       volScalarField;
    location    "5.2";
    object      p;
}
// * * * * * * * * * * * * * * * * * * * * * * * * * * * * * * * * * * * * * //

dimensions      [0 2 -2 0 0 0 0];

internalField   nonuniform List<scalar> 
344
(
0.205382
0.210177
0.214757
0.219128
0.223294
0.227261
0.231033
0.234616
0.238014
0.24123
0.244271
0.247139
0.249839
0.252375
0.254751
0.25697
0.259036
0.260953
0.262724
0.264353
0.265842
0.267196
0.268416
0.269506
0.27047
0.271309
0.272026
0.272624
0.273107
0.273475
0.273732
0.27388
0.273922
0.273859
0.273694
0.273429
0.273067
0.272608
0.272055
0.27141
0.270676
0.269852
0.268943
0.267948
0.26687
0.265711
0.264472
0.263154
0.26176
0.26029
0.258746
0.25713
0.255442
0.253685
0.251859
0.249966
0.248007
0.245982
0.152177
0.159149
0.165852
0.172294
0.17848
0.184418
0.190112
0.19557
0.200797
0.205798
0.21058
0.215147
0.219506
0.22366
0.227615
0.231376
0.234948
0.238335
0.241541
0.244571
0.24743
0.25012
0.252647
0.255014
0.257225
0.259283
0.261191
0.262955
0.264576
0.266058
0.267404
0.268618
0.269701
0.270658
0.271491
0.272202
0.272795
0.273271
0.273634
0.273886
0.274029
0.274066
0.273998
0.273829
0.273559
0.273192
0.272729
0.272173
0.271524
0.270786
0.269959
0.269046
0.268048
0.266967
0.265804
0.264562
0.263242
0.261844
0.260372
0.258825
0.257207
0.255517
0.253757
0.251929
0.250033
0.248072
0.246046
0.152766
0.159721
0.166407
0.172832
0.179002
0.184923
0.190602
0.196044
0.201256
0.206243
0.211011
0.215564
0.219909
0.224051
0.227993
0.231742
0.235302
0.238678
0.241873
0.244892
0.24774
0.250421
0.252938
0.255295
0.257496
0.259545
0.261446
0.263201
0.264814
0.266288
0.267627
0.268833
0.269909
0.270859
0.271685
0.27239
0.272976
0.273447
0.273804
0.27405
0.274188
0.274219
0.274147
0.273973
0.273698
0.273327
0.272859
0.272299
0.271646
0.270903
0.270073
0.269156
0.268154
0.26707
0.265904
0.264659
0.263335
0.261935
0.26046
0.25891
0.257289
0.255596
0.253834
0.252003
0.250106
0.248142
0.246114
0.153369
0.160305
0.166973
0.173381
0.179534
0.185439
0.191102
0.196528
0.201725
0.206697
0.21145
0.21599
0.220321
0.224449
0.228379
0.232116
0.235664
0.239027
0.242211
0.24522
0.248057
0.250727
0.253234
0.255582
0.257773
0.259813
0.261705
0.263451
0.265056
0.266522
0.267853
0.269052
0.270121
0.271064
0.271884
0.272582
0.273162
0.273627
0.273978
0.274218
0.27435
0.274377
0.274299
0.27412
0.273841
0.273464
0.272993
0.272427
0.27177
0.271024
0.270189
0.269269
0.268264
0.267176
0.266007
0.264758
0.263431
0.262028
0.26055
0.258998
0.257373
0.255678
0.253913
0.25208
0.25018
0.248214
0.246184
0.153956
0.160875
0.167526
0.173917
0.180053
0.185942
0.191589
0.197001
0.202182
0.20714
0.211879
0.216405
0.220723
0.224838
0.228756
0.23248
0.236016
0.239368
0.242541
0.245539
0.248366
0.251026
0.253523
0.255861
0.258044
0.260075
0.261958
0.263697
0.265293
0.266752
0.268075
0.269267
0.270329
0.271265
0.272078
0.27277
0.273344
0.273802
0.274148
0.274383
0.27451
0.274531
0.274448
0.274264
0.27398
0.273599
0.273123
0.272554
0.271893
0.271142
0.270304
0.26938
0.268371
0.26728
0.266107
0.264855
0.263526
0.262119
0.260638
0.259083
0.257457
0.255759
0.253992
0.252156
0.250254
0.248286
0.246253
0.154501
0.161404
0.168039
0.174414
0.180535
0.186409
0.192042
0.19744
0.202608
0.207552
0.212278
0.216792
0.221098
0.225201
0.229107
0.23282
0.236345
0.239687
)
;

boundaryField
{
    inlet
    {
        type            zeroGradient;
    }
    outlet
    {
        type            fixedValue;
        value           nonuniform 0();
    }
    wall
    {
        type            zeroGradient;
    }
    wedge1
    {
        type            wedge;
    }
    wedge2
    {
        type            wedge;
    }
    axis
    {
        type            empty;
    }
    procBoundary10to4
    {
        type            processor;
        value           nonuniform List<scalar> 
68
(
0.205011
0.209817
0.214409
0.21879
0.222968
0.226945
0.230727
0.23432
0.237727
0.240953
0.244002
0.246879
0.249588
0.252132
0.254516
0.256742
0.258816
0.26074
0.262519
0.264154
0.26565
0.26701
0.268236
0.269333
0.270302
0.271146
0.271869
0.272472
0.27296
0.273333
0.273595
0.273748
0.273794
0.273735
0.273574
0.273313
0.272954
0.272499
0.27195
0.271309
0.270578
0.269758
0.268851
0.267859
0.266785
0.265628
0.264392
0.263077
0.261685
0.260217
0.258676
0.257062
0.255376
0.253621
0.251797
0.249906
0.247948
0.245926
0.151626
0.158614
0.165334
0.171791
0.177993
0.183945
0.189654
0.195126
0.200367
0.200367
)
;
    }
    procBoundary10to5
    {
        type            processor;
        value           uniform 0.243895;
    }
    procBoundary10to9
    {
        type            processor;
        value           nonuniform List<scalar> 3(0.14493 0.145537 0.146158);
    }
    procBoundary10to11
    {
        type            processor;
        value           nonuniform List<scalar> 4(0.243956 0.244022 0.24409 0.244157);
    }
    procBoundary10to15
    {
        type            processor;
        value           nonuniform List<scalar> 2(0.146764 0.147326);
    }
    procBoundary10to16
    {
        type            processor;
        value           nonuniform List<scalar> 
68
(
0.242849
0.245837
0.248655
0.251305
0.253794
0.256123
0.258297
0.26032
0.262195
0.263926
0.265515
0.266966
0.268283
0.269468
0.270523
0.271453
0.27226
0.272946
0.273514
0.273967
0.274308
0.274537
0.274659
0.274675
0.274588
0.274399
0.274111
0.273726
0.273246
0.272673
0.272008
0.271254
0.270412
0.269484
0.268472
0.267378
0.266202
0.264948
0.263615
0.262206
0.260722
0.259165
0.257535
0.255835
0.254066
0.252228
0.250324
0.248354
0.246319
0.154981
0.161869
0.168491
0.174853
0.180961
0.186822
0.192443
0.197828
0.202984
0.207917
0.212632
0.217134
0.221429
0.225522
0.229418
0.233122
0.236637
0.242849
0.23997
)
;
    }
}


// ************************************************************************* //
