/*--------------------------------*- C++ -*----------------------------------*\
  =========                 |
  \\      /  F ield         | OpenFOAM: The Open Source CFD Toolbox
   \\    /   O peration     | Website:  https://openfoam.org
    \\  /    A nd           | Version:  7
     \\/     M anipulation  |
\*---------------------------------------------------------------------------*/
FoamFile
{
    version     2.0;
    format      ascii;
    class       volScalarField;
    location    "24";
    object      p;
}
// * * * * * * * * * * * * * * * * * * * * * * * * * * * * * * * * * * * * * //

dimensions      [0 2 -2 0 0 0 0];

internalField   nonuniform List<scalar> 
433
(
-0.291463
-0.292298
-0.293109
-0.293843
-0.29455
-0.29524
-0.295908
-0.296547
-0.297154
-0.297726
-0.298259
-0.298749
-0.299193
-0.299585
-0.299923
-0.300202
-0.300419
-0.300569
-0.300648
-0.300653
-0.30058
-0.300424
-0.300184
-0.299855
-0.299434
-0.292203
-0.293024
-0.29382
-0.29454
-0.295233
-0.29591
-0.296563
-0.297187
-0.29778
-0.298337
-0.298855
-0.299329
-0.299757
-0.300134
-0.300456
-0.300718
-0.300919
-0.301052
-0.301115
-0.301103
-0.301012
-0.30084
-0.300582
-0.300236
-0.299797
-0.293678
-0.29447
-0.295237
-0.29593
-0.296596
-0.297244
-0.297868
-0.298464
-0.299027
-0.299554
-0.300041
-0.300485
-0.300882
-0.301227
-0.301517
-0.301747
-0.301915
-0.302015
-0.302044
-0.301999
-0.301874
-0.301668
-0.301375
-0.300994
-0.30052
-0.295878
-0.296626
-0.297351
-0.298003
-0.298628
-0.299234
-0.299816
-0.300368
-0.300888
-0.30137
-0.301812
-0.30221
-0.30256
-0.302858
-0.3031
-0.303283
-0.303401
-0.303452
-0.303431
-0.303335
-0.303159
-0.302901
-0.302557
-0.302123
-0.301597
-0.300975
-0.298788
-0.29948
-0.300148
-0.300748
-0.301318
-0.30187
-0.302395
-0.302891
-0.303352
-0.303775
-0.304157
-0.304494
-0.304783
-0.305018
-0.305197
-0.305315
-0.305368
-0.305353
-0.305265
-0.305102
-0.304858
-0.304531
-0.304117
-0.303613
-0.303016
-0.302324
-0.302391
-0.303015
-0.303614
-0.304147
-0.304652
-0.305135
-0.305592
-0.306016
-0.306405
-0.306756
-0.307064
-0.307325
-0.307537
-0.307694
-0.307794
-0.307832
-0.307804
-0.307706
-0.307536
-0.307288
-0.306959
-0.306546
-0.306045
-0.305453
-0.304768
-0.303985
-0.306668
-0.307211
-0.307728
-0.308184
-0.308611
-0.309014
-0.309388
-0.309729
-0.310033
-0.310297
-0.310517
-0.310688
-0.310808
-0.310873
-0.310878
-0.310821
-0.310696
-0.3105
-0.310229
-0.309881
-0.30945
-0.308933
-0.308328
-0.30763
-0.306837
-0.305947
-0.304956
-0.311598
-0.312048
-0.312472
-0.31284
-0.313177
-0.313488
-0.313768
-0.314013
-0.314219
-0.314382
-0.3145
-0.314568
-0.314582
-0.314539
-0.314435
-0.314266
-0.314029
-0.313718
-0.313332
-0.312866
-0.312316
-0.311679
-0.310951
-0.31013
-0.309212
-0.308195
-0.307075
-0.31716
-0.317506
-0.317827
-0.318095
-0.318331
-0.318539
-0.318713
-0.318849
-0.318944
-0.318994
-0.318996
-0.318946
-0.318841
-0.318676
-0.318448
-0.318153
-0.317788
-0.317348
-0.316829
-0.316229
-0.315544
-0.31477
-0.313903
-0.312941
-0.311879
-0.310717
-0.30945
-0.308077
-0.323334
-0.323566
-0.323771
-0.32393
-0.324055
-0.324147
-0.324203
-0.324219
-0.324191
-0.324115
-0.323989
-0.323808
-0.323569
-0.323268
-0.322901
-0.322466
-0.321957
-0.321372
-0.320707
-0.319958
-0.319121
-0.318193
-0.31717
-0.31605
-0.314828
-0.313502
-0.312069
-0.310528
-0.308875
-0.330101
-0.330208
-0.330287
-0.330325
-0.330328
-0.330295
-0.330221
-0.330104
-0.329941
-0.329727
-0.329459
-0.329134
-0.328748
-0.328297
-0.327779
-0.327189
-0.326523
-0.325779
-0.324951
-0.324038
-0.323034
-0.321937
-0.320743
-0.319448
-0.31805
-0.316543
-0.314927
-0.313197
-0.311353
-0.337441
-0.337412
-0.337355
-0.337262
-0.337132
-0.336962
-0.336748
-0.336487
-0.336175
-0.335811
-0.335389
-0.334907
-0.334361
-0.333748
-0.333064
-0.332306
-0.33147
-0.330552
-0.329549
-0.328457
-0.327273
-0.325993
-0.324613
-0.32313
-0.321539
-0.319837
-0.318021
-0.316087
-0.314032
-0.311854
-0.345337
-0.345161
-0.344955
-0.344722
-0.344448
-0.344129
-0.343763
-0.343346
-0.342876
-0.342348
-0.341761
-0.341109
-0.340391
-0.339603
-0.338741
-0.337802
-0.336782
-0.335678
-0.334487
-0.333205
-0.331828
-0.330352
-0.328774
-0.327089
-0.325294
-0.323384
-0.321354
-0.353768
-0.353434
-0.353068
-0.352682
-0.352253
-0.351775
-0.351245
-0.350661
-0.35002
-0.349319
-0.348553
-0.347721
-0.346819
-0.345844
-0.344792
-0.34366
-0.342446
-0.341145
-0.339754
-0.33827
-0.336689
-0.335007
-0.333221
-0.36271
-0.362206
-0.361669
-0.361119
-0.360525
-0.359876
-0.359172
-0.35841
-0.357586
-0.356699
-0.355745
-0.354721
-0.353624
-0.352451
-0.351198
-0.349864
-0.348444
-0.346936
-0.345336
-0.372134
-0.371448
-0.370728
-0.370004
-0.369234
-0.368404
-0.367515
-0.366563
-0.365548
-0.364465
-0.363311
-0.362085
-0.360783
-0.359402
-0.35794
-0.382004
-0.381124
-0.380211
-0.379303
-0.378347
-0.377326
-0.376241
-0.375091
-0.373873
-0.372585
-0.371223
-0.369786
-0.392274
-0.391192
-0.390074
-0.388973
-0.387822
-0.386602
-0.385313
-0.383956
-0.402892
-0.401598
-0.400268
-0.291463
-0.292298
-0.293109
)
;

boundaryField
{
    inlet
    {
        type            zeroGradient;
    }
    outlet
    {
        type            fixedValue;
        value           nonuniform 0();
    }
    cylinder
    {
        type            zeroGradient;
    }
    top
    {
        type            symmetryPlane;
    }
    bottom
    {
        type            symmetryPlane;
    }
    defaultFaces
    {
        type            empty;
    }
    procBoundary21to15
    {
        type            processor;
        value           nonuniform List<scalar> 
26
(
-0.293843
-0.29455
-0.29524
-0.295908
-0.296547
-0.297154
-0.297726
-0.298259
-0.298749
-0.299193
-0.299585
-0.299923
-0.300202
-0.300419
-0.300569
-0.300648
-0.300653
-0.30058
-0.300424
-0.300184
-0.299855
-0.299434
-0.292203
-0.293024
-0.29382
-0.293843
)
;
    }
    procBoundary21to16
    {
        type            processor;
        value           uniform -0.298918;
    }
    procBoundary21to22
    {
        type            processor;
        value           nonuniform List<scalar> 
16
(
-0.299264
-0.299952
-0.299952
-0.300255
-0.301532
-0.303104
-0.303104
-0.303863
-0.305852
-0.305852
-0.306597
-0.306597
-0.307112
-0.309392
-0.309392
-0.309553
)
;
    }
    procBoundary21to27
    {
        type            processor;
        value           nonuniform List<scalar> 
37
(
-0.319201
-0.31692
-0.314508
-0.331325
-0.329315
-0.327187
-0.319201
-0.324935
-0.343641
-0.341848
-0.339952
-0.331325
-0.33795
-0.356393
-0.35476
-0.353036
-0.343641
-0.35122
-0.36827
-0.366673
-0.356393
-0.364993
-0.382528
-0.381026
-0.379449
-0.36827
-0.377793
-0.398967
-0.397614
-0.396186
-0.394687
-0.382528
-0.393116
-0.413796
-0.412284
-0.398967
-0.410736
)
;
    }
}


// ************************************************************************* //
