/*--------------------------------*- C++ -*----------------------------------*\
  =========                 |
  \\      /  F ield         | OpenFOAM: The Open Source CFD Toolbox
   \\    /   O peration     | Website:  https://openfoam.org
    \\  /    A nd           | Version:  7
     \\/     M anipulation  |
\*---------------------------------------------------------------------------*/
FoamFile
{
    version     2.0;
    format      ascii;
    class       surfaceScalarField;
    location    "2";
    object      phi;
}
// * * * * * * * * * * * * * * * * * * * * * * * * * * * * * * * * * * * * * //

dimensions      [0 3 -1 0 0 0 0];

internalField   nonuniform List<scalar> 
620
(
-6.28803e-05
-0.000271278
-0.00011535
-0.000334454
-0.000155089
-0.000374255
-0.000187297
-0.000386462
-0.000218846
-0.000359069
-0.000254473
-0.000317611
-0.000294954
-0.000284787
-0.000336158
-0.000247374
-0.000373512
-0.000202387
-0.000402862
-0.000160882
-0.000422337
-0.000106707
-0.000431146
-4.61695e-05
-0.000427563
1.40395e-05
-0.000414224
7.1169e-05
-0.000391178
0.000130874
0.000182108
2.84207e-05
8.98029e-05
5.47598e-05
0.000150031
8.46161e-05
0.000152103
0.000116767
0.000188299
0.00014078
0.000172455
0.000173465
7.15936e-05
0.000192737
4.1822e-05
0.000202148
4.16168e-05
0.000220254
-5.95932e-05
0.000224775
-0.000159252
0.000207045
-0.000161414
0.000185834
-9.48308e-05
0.00016988
-1.22392e-05
0.000156141
2.32951e-05
0.000143703
-3.6499e-06
0.000123036
-3.32483e-05
9.09592e-05
-7.64275e-05
5.18089e-05
-0.000100221
1.10256e-05
-5.66583e-05
-2.42538e-05
-3.57528e-05
-5.43555e-05
-0.00011758
-9.60179e-05
-0.00020671
-0.000139559
-0.000168483
-0.000180809
-0.000117319
-0.00021399
-0.0001863
-0.000239354
-0.000161264
-0.000265845
-8.74132e-05
-0.000286501
-9.45137e-05
-0.000290933
-5.98705e-05
-0.000294446
8.37224e-06
-0.000290093
2.68501e-05
-0.000267719
8.86833e-05
-0.000243809
0.000127628
-0.000202836
0.000185328
-0.000155012
0.000241508
-0.000107354
0.000300184
-5.25615e-05
0.000336638
1.22646e-05
0.000350453
6.80879e-05
0.000341491
0.000132018
0.000156462
0.000207402
-8.55867e-05
0.00025507
-0.000120007
0.000275823
-2.59815e-05
0.000280349
5.46572e-05
0.000277374
5.70042e-05
0.00028249
-4.45904e-06
0.000288796
-3.5737e-05
0.000259596
-2.39055e-06
0.000182389
-7.1939e-07
8.18549e-05
-7.43667e-05
-9.58713e-06
-0.000179836
-8.26115e-05
-0.00026143
-0.000140516
-0.000316351
-0.000186166
-0.000340811
-0.000224139
-0.000321097
-0.00026097
-0.00028078
-0.000300155
-0.000245602
-0.000338919
-0.00020861
-0.000373719
-0.000167587
-0.000402556
-0.000132045
-0.000422014
-8.72489e-05
-0.000431461
-3.67227e-05
-0.000427759
1.03374e-05
-0.000413474
5.6884e-05
-0.000387577
0.000104977
0.00014534
2.74288e-05
6.23741e-05
5.74261e-05
0.000120033
9.49931e-05
0.000114537
0.000129165
0.000154128
0.000161207
0.000140413
0.000200739
3.20616e-05
0.000214294
2.82667e-05
0.000223656
3.22548e-05
0.000241058
-7.69948e-05
0.00023199
-0.000150185
0.000198422
-0.000127845
0.000168819
-6.5228e-05
0.00015198
4.59993e-06
0.00014521
3.00652e-05
0.000139561
1.99913e-06
0.000122187
-1.58751e-05
8.93485e-05
-4.35887e-05
4.91888e-05
-6.00613e-05
1.37086e-05
-2.11781e-05
-1.38937e-05
-8.15061e-06
-4.43514e-05
-8.7122e-05
-9.20228e-05
-0.000159039
-0.0001341
-0.000126406
-0.000166516
-8.49031e-05
-0.000202137
-0.00015068
-0.000237219
-0.000126182
-0.000261434
-6.31984e-05
-0.000279207
-7.67406e-05
-0.000290013
-4.90643e-05
-0.000288063
6.42199e-06
-0.000281706
2.04926e-05
-0.000256294
6.32712e-05
-0.000223707
9.50414e-05
-0.000177091
0.000138712
-0.000128208
0.000192625
-8.33358e-05
0.000255312
-5.25579e-06
0.000258558
7.54402e-05
0.000269757
0.000132864
0.000284067
0.000211168
7.81592e-05
0.000275127
-0.000149546
0.000296405
-0.000141285
0.00030073
-3.03067e-05
0.000302139
5.32485e-05
0.000294529
6.46134e-05
0.000289453
6.17205e-07
0.000300888
-4.7172e-05
0.000301779
-3.2818e-06
0.000255968
4.50918e-05
0.000169017
1.25841e-05
6.9137e-05
-7.99557e-05
-2.41035e-05
-0.000168189
-0.000104744
-0.00023571
-0.000169273
-0.000276282
-0.000218975
-0.000271395
-0.000263318
-0.000236437
-0.000307219
-0.000201701
-0.000347373
-0.000168457
-0.000381062
-0.000133898
-0.000408504
-0.000104603
-0.000426513
-6.92391e-05
-0.000434192
-2.90443e-05
-0.000429155
5.30086e-06
-0.000413915
4.16435e-05
-0.00038692
7.79825e-05
0.00010752
2.07078e-05
4.16664e-05
5.8913e-05
8.18281e-05
0.000110038
6.3412e-05
0.000137737
0.000126428
0.000181521
9.66285e-05
0.00022022
-6.63677e-06
0.000227845
2.06415e-05
0.000240555
1.95441e-05
0.000247718
-8.41576e-05
0.000217553
-0.00012002
0.000169022
-7.93142e-05
0.000134569
-3.0775e-05
0.000123806
1.53634e-05
0.000128829
2.50424e-05
0.000130873
-4.5567e-08
0.00011854
-3.54181e-06
8.74209e-05
-1.24694e-05
4.86953e-05
-2.13358e-05
2.49742e-05
2.54301e-06
1.19845e-05
4.8391e-06
-1.87316e-05
-5.64059e-05
-7.46143e-05
-0.000103156
-0.00011487
-8.61499e-05
-0.000143961
-5.58123e-05
-0.000186378
-0.000108262
-0.00022739
-8.51704e-05
-0.000252976
-3.76127e-05
-0.000265581
-6.41355e-05
-0.000284633
-3.00116e-05
-0.00027891
6.98635e-07
-0.000265892
7.47451e-06
-0.000243812
4.11916e-05
-0.000206933
5.81621e-05
-0.000166771
9.85493e-05
-0.000122223
0.000148077
-5.17818e-05
0.000184871
5.4942e-05
0.000151835
0.0001324
0.000192299
0.000199965
0.000216502
0.000278872
-7.48198e-07
0.000307284
-0.000177958
0.000295988
-0.000129989
0.000288686
-2.30051e-05
0.000294515
4.74195e-05
0.000294967
6.41614e-05
0.000283173
1.24117e-05
0.000279184
-4.31832e-05
0.000293298
-1.73955e-05
0.000292264
4.61257e-05
0.000248578
5.62697e-05
0.000164387
4.23513e-06
6.0382e-05
-6.41842e-05
-4.23835e-05
-0.000132944
-0.000130654
-0.000188012
-0.000197988
-0.000204061
-0.000253666
-0.000180759
-0.000304663
-0.000150703
-0.000348654
-0.000124467
-0.000383379
-9.91727e-05
-0.000411435
-7.65469e-05
-0.00042896
-5.17143e-05
-0.000434932
-2.30718e-05
-0.000429757
1.25555e-07
-0.000413631
2.55172e-05
-0.00038448
4.88317e-05
6.86715e-05
2.21621e-05
1.95043e-05
7.26855e-05
3.13047e-05
0.000106577
2.95201e-05
0.000150978
8.20283e-05
0.000209293
3.83132e-05
0.000225946
-2.329e-05
0.000232588
1.39996e-05
0.000248335
3.79684e-06
0.000227629
-6.34513e-05
0.00017036
-6.2751e-05
0.000116296
-2.52502e-05
8.97884e-05
-4.26761e-06
9.37637e-05
1.13881e-05
0.000108487
1.03188e-05
0.000111062
-2.62046e-06
0.000104324
3.19615e-06
8.29581e-05
8.89675e-06
5.29211e-05
8.70126e-06
4.20378e-05
1.34263e-05
4.59087e-05
9.68212e-07
1.85893e-05
-2.90865e-05
-4.31463e-05
-4.14204e-05
-8.45556e-05
-4.47406e-05
-0.000107719
-3.2649e-05
-0.000162587
-5.33937e-05
-0.000203267
-4.44906e-05
-0.00022088
-1.99994e-05
-0.000249067
-3.59488e-05
-0.000263935
-1.51438e-05
-0.000261927
-1.30948e-06
-0.00025438
-7.19544e-08
-0.00023334
2.01515e-05
-0.000202418
2.72398e-05
-0.000156863
5.29945e-05
-8.82226e-05
7.94362e-05
1.85584e-05
7.80897e-05
0.000117983
5.24104e-05
0.000191338
0.000118944
0.000283445
0.000124395
0.000329028
-4.63311e-05
0.000287915
-0.000136845
0.000232317
-7.43916e-05
0.000210756
-1.44366e-06
0.000224656
3.35194e-05
0.000248329
4.04886e-05
0.00025099
9.7505e-06
0.000231437
-2.36303e-05
0.000232561
-1.85194e-05
0.000265142
1.35449e-05
0.000287906
3.3506e-05
0.000257227
3.49135e-05
0.000174124
1.89187e-05
6.43978e-05
-2.32177e-05
-4.78162e-05
-7.5798e-05
-0.000144278
-0.000107599
-0.000224074
-0.000100962
-0.000289998
-8.47795e-05
-0.000343771
-7.06941e-05
-0.000385435
-5.75085e-05
-0.000418284
-4.36981e-05
-0.000439086
-3.09122e-05
-0.000445339
-1.68191e-05
-0.000440839
-4.37437e-06
-0.000425296
9.97412e-06
-0.000397053
2.05895e-05
3.00337e-05
1.95043e-05
5.0809e-05
8.03291e-05
0.000162357
0.000200671
0.000177381
0.00019138
0.000195177
0.000131726
6.89748e-05
4.37246e-05
3.9457e-05
5.08451e-05
6.11639e-05
5.85434e-05
6.17396e-05
7.06363e-05
7.93376e-05
9.27639e-05
9.37321e-05
6.46455e-05
2.32251e-05
-2.15154e-05
-5.41644e-05
-0.000107558
-0.000152049
-0.000172048
-0.000207997
-0.000223141
-0.00022445
-0.000224522
-0.000204371
-0.000177131
-0.000124136
-4.47002e-05
3.33895e-05
8.57999e-05
0.000204744
0.00032914
0.000282809
0.000145963
7.15719e-05
7.01283e-05
0.000103648
0.000144136
0.000153887
0.000130257
0.000111737
0.000125282
0.000158788
0.000193702
0.00021262
0.000189403
0.000113605
6.00549e-06
-9.49568e-05
-0.000179736
-0.00025043
-0.000307939
-0.000351637
-0.000382549
-0.000399368
-0.000403743
-0.000393769
-0.000373179
)
;

boundaryField
{
    inlet
    {
        type            calculated;
        value           nonuniform 0();
    }
    outlet
    {
        type            calculated;
        value           nonuniform 0();
    }
    wall
    {
        type            calculated;
        value           uniform 0;
    }
    wedge1
    {
        type            wedge;
        value           nonuniform List<scalar> 
346
(
-5.97567e-15
-4.12312e-15
-9.18201e-15
-1.68805e-15
2.2159e-15
-9.38341e-15
-7.68476e-15
-1.77578e-14
-2.9158e-15
3.88027e-15
-9.55383e-15
-7.88629e-15
-1.51128e-14
-2.15799e-15
8.5332e-15
-1.18516e-14
-9.73143e-15
-2.35321e-14
-6.37075e-15
2.10411e-14
-1.08048e-14
-9.27991e-15
-2.05651e-14
-4.11805e-15
2.47045e-15
-5.39013e-15
-3.3014e-15
-1.69997e-15
9.59741e-16
-6.53776e-15
-3.13764e-15
-2.07678e-15
-4.56383e-15
-8.20772e-16
6.43862e-15
-2.87341e-15
-2.41126e-15
-5.40721e-15
-8.72602e-16
-1.21447e-15
2.12646e-15
2.91956e-15
1.11473e-14
3.39234e-15
-1.34889e-14
7.6649e-15
7.41758e-15
1.99221e-14
4.46284e-15
-7.81e-15
9.41235e-15
7.78149e-15
1.69278e-14
2.48416e-15
-8.73341e-16
6.27179e-15
4.58468e-15
8.15035e-15
5.40653e-16
6.8978e-16
1.39255e-15
2.26734e-16
-1.91456e-15
-1.04002e-15
1.87771e-15
-8.60031e-16
-1.4979e-15
-5.00607e-15
-1.02555e-15
2.50158e-16
4.04139e-16
-6.88424e-17
-3.45886e-16
2.01582e-16
-1.02364e-15
2.24347e-15
1.30184e-15
1.6051e-15
2.00558e-17
1.6668e-15
4.87003e-15
3.28378e-15
4.87701e-15
-1.10461e-16
3.98017e-15
6.60711e-15
4.50493e-15
7.31162e-15
2.03303e-17
4.55161e-15
4.50571e-15
2.17182e-15
2.02895e-15
-6.13724e-16
3.67349e-15
3.19076e-15
1.19939e-15
3.62815e-16
-4.31121e-16
-3.06161e-15
7.08817e-15
5.43242e-15
1.1262e-14
1.71358e-15
-7.48004e-15
1.14211e-14
8.88857e-15
1.941e-14
3.25314e-15
-5.58076e-15
9.31366e-15
6.9227e-15
1.52857e-14
2.9034e-15
-9.64372e-15
6.59837e-15
4.67067e-15
9.58071e-15
1.87955e-15
-7.08723e-15
9.77878e-15
7.95968e-15
1.86187e-14
3.7535e-15
-6.75983e-15
8.22892e-15
6.70243e-15
1.42556e-14
2.88269e-15
-7.69333e-15
4.51657e-15
3.21292e-15
6.50526e-15
1.06016e-15
-3.75187e-15
4.77239e-15
3.52958e-15
9.68598e-15
2.43118e-15
-4.58117e-15
2.59756e-15
2.39264e-15
4.6847e-15
8.82883e-16
-2.49979e-15
-7.90568e-16
-1.1073e-15
-7.84801e-16
-1.02097e-16
-2.06333e-16
-2.21112e-15
-2.04019e-15
-3.23052e-15
-1.80014e-16
-1.11747e-16
-6.77801e-15
-4.86801e-15
-8.94616e-15
-2.0355e-15
3.31877e-15
-9.03071e-15
-6.96181e-15
-1.33997e-14
-2.7052e-15
3.64787e-15
-1.31496e-14
-9.47453e-15
-2.09452e-14
-4.95941e-15
7.63907e-15
-1.64213e-14
-1.25449e-14
-3.16368e-14
-7.29685e-15
1.03376e-14
-1.94904e-14
-1.62899e-14
-4.19033e-14
-7.71473e-15
5.5228e-15
-2.18286e-14
-1.80489e-14
-3.8117e-14
-4.96777e-15
7.10498e-15
-2.28066e-14
-1.83368e-14
-4.19344e-14
-8.59966e-15
3.65886e-14
-2.07241e-14
-1.79821e-14
-4.56085e-14
-1.0311e-14
3.48199e-14
-1.01634e-14
-7.07011e-15
-6.02668e-15
8.96955e-16
-1.43521e-14
3.40582e-15
6.06132e-15
2.67673e-14
7.65302e-15
-2.2422e-14
6.51269e-15
7.9146e-15
2.63879e-14
6.44215e-15
-2.75524e-15
1.67668e-15
2.19703e-15
6.7525e-15
1.26868e-15
6.71119e-15
-2.39065e-15
-2.33062e-15
-6.39189e-15
-2.11519e-15
1.01074e-14
-3.1383e-15
-3.37287e-15
-1.20782e-14
-3.31245e-15
7.40007e-15
1.0991e-16
1.0615e-16
-1.59464e-15
-1.19809e-15
-5.90026e-16
1.45596e-15
1.79644e-15
8.12485e-15
1.10452e-15
-6.76651e-15
6.3272e-16
-3.45747e-16
2.98993e-15
9.73346e-16
-5.08835e-15
1.88198e-15
-1.37562e-15
-8.3448e-15
-1.11114e-15
2.15516e-15
6.23437e-15
1.48993e-15
-7.987e-15
-2.34932e-15
8.67333e-15
-1.04791e-13
1.12419e-14
6.31747e-15
4.05773e-15
-1.95135e-15
1.21186e-14
-1.21497e-13
1.46218e-14
1.04628e-14
1.67089e-14
8.03872e-17
1.22227e-14
-1.31529e-13
1.66808e-14
1.32842e-14
2.62496e-14
3.24494e-15
4.28763e-15
-1.33165e-13
1.72798e-14
1.46206e-14
3.24381e-14
6.08916e-15
-8.49358e-15
-1.22843e-13
1.58876e-14
1.3758e-14
3.24925e-14
7.02839e-15
-1.65925e-14
-1.0908e-13
1.38585e-14
1.18081e-14
2.81314e-14
6.22171e-15
-1.64566e-14
-9.8258e-14
1.22439e-14
1.0099e-14
2.36315e-14
5.12169e-15
-1.3543e-14
-8.49881e-14
1.04516e-14
8.43488e-15
1.94624e-14
4.25437e-15
-1.1281e-14
-6.85521e-14
8.39663e-15
6.61114e-15
1.53141e-14
3.40634e-15
-9.33562e-15
-5.29848e-14
6.55854e-15
5.0722e-15
1.18303e-14
2.55655e-15
-6.93742e-15
-3.35064e-14
4.17575e-15
3.20251e-15
7.59256e-15
1.7168e-15
-5.01261e-15
-1.28344e-14
1.61547e-15
1.13472e-15
2.88117e-15
7.77822e-16
-3.04855e-15
1.12891e-14
-1.07692e-15
-9.73383e-16
-1.16794e-15
1.09894e-18
-1.27505e-15
3.79383e-14
-4.26933e-15
-3.41455e-15
-6.75842e-15
-1.18069e-15
1.95407e-15
6.38786e-14
-7.39826e-15
-5.81127e-15
-1.18006e-14
-2.05096e-15
3.74335e-15
8.55667e-14
-9.93278e-15
-7.73784e-15
-1.56336e-14
-2.87906e-15
4.90945e-15
)
;
    }
    wedge2
    {
        type            wedge;
        value           nonuniform List<scalar> 
346
(
-5.97553e-15
-4.12324e-15
-9.18195e-15
-1.6884e-15
2.21552e-15
-9.38395e-15
-7.68513e-15
-1.77584e-14
-2.91623e-15
3.88016e-15
-9.55378e-15
-7.88662e-15
-1.51133e-14
-2.15869e-15
8.53297e-15
-1.18522e-14
-9.73164e-15
-2.35318e-14
-6.37011e-15
2.10411e-14
-1.08049e-14
-9.28005e-15
-2.05652e-14
-4.11857e-15
2.47021e-15
-5.39067e-15
-3.30201e-15
-1.70048e-15
9.59738e-16
-6.53763e-15
-3.13807e-15
-2.07785e-15
-4.56428e-15
-8.20938e-16
6.43851e-15
-2.87337e-15
-2.41124e-15
-5.40773e-15
-8.72938e-16
-1.2149e-15
2.12605e-15
2.91875e-15
1.11465e-14
3.39148e-15
-1.3489e-14
7.66442e-15
7.41679e-15
1.99216e-14
4.46262e-15
-7.80997e-15
9.41173e-15
7.78071e-15
1.69272e-14
2.48331e-15
-8.73669e-16
6.27048e-15
4.58379e-15
8.14974e-15
5.39974e-16
6.89571e-16
1.39202e-15
2.2632e-16
-1.91504e-15
-1.04055e-15
1.87755e-15
-8.59938e-16
-1.4981e-15
-5.00634e-15
-1.02591e-15
2.50005e-16
4.03798e-16
-6.93174e-17
-3.46206e-16
2.01015e-16
-1.02377e-15
2.24318e-15
1.30125e-15
1.60471e-15
1.97099e-17
1.66665e-15
4.86941e-15
3.28321e-15
4.8765e-15
-1.11169e-16
3.9802e-15
6.60686e-15
4.50465e-15
7.31136e-15
1.98086e-17
4.55158e-15
4.50521e-15
2.17144e-15
2.0285e-15
-6.14189e-16
3.67345e-15
3.19018e-15
1.19853e-15
3.62238e-16
-4.31514e-16
-3.06174e-15
7.08765e-15
5.43153e-15
1.12613e-14
1.71296e-15
-7.48012e-15
1.14204e-14
8.88778e-15
1.94096e-14
3.25235e-15
-5.58092e-15
9.31354e-15
6.92246e-15
1.52854e-14
2.90319e-15
-9.64377e-15
6.59861e-15
4.67032e-15
9.58033e-15
1.87896e-15
-7.08741e-15
9.77913e-15
7.95962e-15
1.86183e-14
3.753e-15
-6.75998e-15
8.22899e-15
6.70232e-15
1.42557e-14
2.88234e-15
-7.69336e-15
4.5166e-15
3.213e-15
6.50513e-15
1.05984e-15
-3.75208e-15
4.77274e-15
3.52933e-15
9.68584e-15
2.4306e-15
-4.58131e-15
2.59764e-15
2.39293e-15
4.6849e-15
8.82897e-16
-2.49984e-15
-7.90416e-16
-1.10801e-15
-7.85529e-16
-1.03167e-16
-2.06609e-16
-2.21141e-15
-2.03978e-15
-3.2301e-15
-1.79554e-16
-1.11739e-16
-6.77757e-15
-4.86817e-15
-8.94616e-15
-2.03597e-15
3.31839e-15
-9.03071e-15
-6.96204e-15
-1.33998e-14
-2.70518e-15
3.64787e-15
-1.3149e-14
-9.47456e-15
-2.09449e-14
-4.95975e-15
7.63875e-15
-1.64216e-14
-1.2545e-14
-3.16371e-14
-7.29702e-15
1.03375e-14
-1.94906e-14
-1.62901e-14
-4.19033e-14
-7.71519e-15
5.52249e-15
-2.1829e-14
-1.80494e-14
-3.81174e-14
-4.96811e-15
7.10485e-15
-2.28067e-14
-1.83371e-14
-4.19348e-14
-8.60008e-15
3.65885e-14
-2.07245e-14
-1.79823e-14
-4.56087e-14
-1.03113e-14
3.48195e-14
-1.01639e-14
-7.07053e-15
-6.0268e-15
8.96638e-16
-1.43523e-14
3.40539e-15
6.06118e-15
2.67671e-14
7.65274e-15
-2.24221e-14
6.51276e-15
7.91424e-15
2.63877e-14
6.44204e-15
-2.75532e-15
1.67638e-15
2.19663e-15
6.75229e-15
1.26826e-15
6.71094e-15
-2.39117e-15
-2.33104e-15
-6.39208e-15
-2.11537e-15
1.01072e-14
-3.13874e-15
-3.3733e-15
-1.20785e-14
-3.31293e-15
7.39982e-15
1.09829e-16
1.05891e-16
-1.59502e-15
-1.19849e-15
-5.90199e-16
1.45602e-15
1.79618e-15
8.12452e-15
1.10415e-15
-6.76668e-15
6.32003e-16
-3.46373e-16
2.98971e-15
9.73116e-16
-5.08859e-15
1.88082e-15
-1.37622e-15
-8.3452e-15
-1.11164e-15
2.1549e-15
6.23429e-15
1.48931e-15
-7.98756e-15
-2.34978e-15
8.6731e-15
-1.04791e-13
1.12417e-14
6.31716e-15
4.05725e-15
-1.95226e-15
1.21185e-14
-1.21498e-13
1.46217e-14
1.04628e-14
1.67085e-14
7.98712e-17
1.22228e-14
-1.31529e-13
1.66805e-14
1.32842e-14
2.62495e-14
3.24449e-15
4.28782e-15
-1.33165e-13
1.72794e-14
1.46205e-14
3.24381e-14
6.0888e-15
-8.49341e-15
-1.22844e-13
1.58872e-14
1.37577e-14
3.24926e-14
7.02799e-15
-1.65924e-14
-1.09081e-13
1.3858e-14
1.18077e-14
2.81315e-14
6.22167e-15
-1.64567e-14
-9.82587e-14
1.22432e-14
1.00982e-14
2.36315e-14
5.12151e-15
-1.35429e-14
-8.49889e-14
1.04511e-14
8.43426e-15
1.94624e-14
4.2543e-15
-1.1281e-14
-6.85533e-14
8.39573e-15
6.61018e-15
1.53138e-14
3.40602e-15
-9.33552e-15
-5.29862e-14
6.55778e-15
5.07134e-15
1.18298e-14
2.55648e-15
-6.93741e-15
-3.35077e-14
4.17494e-15
3.20143e-15
7.59211e-15
1.71654e-15
-5.01258e-15
-1.28359e-14
1.61461e-15
1.13385e-15
2.8808e-15
7.77884e-16
-3.04844e-15
1.12868e-14
-1.0785e-15
-9.75235e-16
-1.16886e-15
5.85114e-20
-1.27501e-15
3.79363e-14
-4.27053e-15
-3.41554e-15
-6.75943e-15
-1.181e-15
1.95383e-15
6.38766e-14
-7.39916e-15
-5.81296e-15
-1.18017e-14
-2.05164e-15
3.74333e-15
8.5565e-14
-9.93438e-15
-7.73865e-15
-1.56341e-14
-2.8785e-15
4.90976e-15
)
;
    }
    axis
    {
        type            empty;
        value           nonuniform 0();
    }
    procBoundary45to39
    {
        type            processor;
        value           nonuniform List<scalar> 
67
(
0.000342867
0.000386924
0.000413993
0.00041867
0.000390618
0.000353239
0.000325268
0.000288578
0.000239741
0.000190232
0.000126182
5.49789e-05
-1.76231e-05
-8.45075e-05
-0.00015392
-0.000215767
-0.000118224
-0.00017637
-0.00018196
-0.00022045
-0.000196468
-0.000104279
-6.10938e-05
-5.10274e-05
4.14872e-05
0.000154731
0.000179144
0.000116041
2.81931e-05
-9.55599e-06
1.60878e-05
5.39157e-05
0.000108504
0.000139371
9.74416e-05
7.10323e-05
0.000147681
0.000248372
0.000212024
0.000158569
0.000219482
0.000186628
0.000113904
0.000115169
6.43031e-05
-4.85923e-06
-3.12035e-05
-0.000111058
-0.000151537
-0.000226301
-0.000289332
-0.000347841
-0.000391431
-0.000415279
-0.000397315
-0.000220393
1.02032e-05
7.23389e-05
5.22871e-06
-5.91833e-05
-5.40291e-05
-6.57072e-07
2.94307e-05
3.15908e-05
7.79267e-05
-8.70821e-06
0.0001749
)
;
    }
    procBoundary45to40
    {
        type            processor;
        value           uniform -0.000357518;
    }
    procBoundary45to46
    {
        type            processor;
        value           nonuniform List<scalar> 5(-0.00035081 -0.0003491 -0.000345631 -0.000358416 -0.000343145);
    }
}


// ************************************************************************* //
