/*--------------------------------*- C++ -*----------------------------------*\
  =========                 |
  \\      /  F ield         | OpenFOAM: The Open Source CFD Toolbox
   \\    /   O peration     | Website:  https://openfoam.org
    \\  /    A nd           | Version:  7
     \\/     M anipulation  |
\*---------------------------------------------------------------------------*/
FoamFile
{
    version     2.0;
    format      ascii;
    class       volVectorField;
    location    "7.2";
    object      U;
}
// * * * * * * * * * * * * * * * * * * * * * * * * * * * * * * * * * * * * * //

dimensions      [0 1 -1 0 0 0 0];

internalField   nonuniform List<vector> 
346
(
(0.315951 -0.000292887 -8.19014e-16)
(0.315668 -0.000288207 -8.01257e-16)
(0.315391 -0.000283634 -9.60015e-16)
(0.315117 -0.000279165 -9.40298e-16)
(0.314848 -0.000274801 -1.07178e-15)
(0.314584 -0.000270541 -9.73168e-16)
(0.314323 -0.000266384 -1.13367e-15)
(0.314066 -0.000262333 -1.11293e-15)
(0.313813 -0.000258388 -1.26537e-15)
(0.313564 -0.000254551 -1.17688e-15)
(0.313319 -0.000250826 -1.32865e-15)
(0.284249 -0.000600359 2.72924e-15)
(0.28353 -0.000585118 2.39062e-15)
(0.282829 -0.000570467 2.42483e-15)
(0.282146 -0.000556374 2.21709e-15)
(0.281479 -0.000542807 2.48845e-15)
(0.280829 -0.000529739 2.08979e-15)
(0.280195 -0.000517143 2.13429e-15)
(0.279575 -0.000504995 1.95557e-15)
(0.27897 -0.000493271 2.23033e-15)
(0.278379 -0.000481952 1.84069e-15)
(0.277802 -0.000471017 1.93036e-15)
(0.277238 -0.000460447 1.80577e-15)
(0.276686 -0.000450226 2.15165e-15)
(0.276146 -0.000440336 1.96153e-15)
(0.275619 -0.000430763 2.20045e-15)
(0.275103 -0.000421493 2.30472e-15)
(0.274597 -0.000412511 2.37633e-15)
(0.274103 -0.000403805 2.46462e-15)
(0.273619 -0.000395364 2.56773e-15)
(0.273145 -0.000387176 2.60804e-15)
(0.272681 -0.00037923 2.68532e-15)
(0.272227 -0.000371517 2.7178e-15)
(0.271781 -0.000364026 2.76605e-15)
(0.271345 -0.000356749 2.7569e-15)
(0.270917 -0.000349677 2.71768e-15)
(0.270498 -0.000342802 2.47206e-15)
(0.270087 -0.000336117 2.09312e-15)
(0.269684 -0.000329615 2.17862e-15)
(0.269289 -0.000323287 1.98424e-15)
(0.268901 -0.000317128 2.25173e-15)
(0.268521 -0.000311132 1.83882e-15)
(0.268148 -0.000305293 1.85694e-15)
(0.267782 -0.000299604 1.63169e-15)
(0.267423 -0.000294061 1.2475e-15)
(0.26707 -0.000288658 1.16437e-15)
(0.266724 -0.000283391 8.64166e-16)
(0.266384 -0.000278254 8.4733e-16)
(0.26605 -0.000273244 5.91852e-16)
(0.265723 -0.000268356 5.6574e-16)
(0.265401 -0.000263586 3.77656e-16)
(0.265085 -0.00025893 4.13999e-16)
(0.264774 -0.000254385 1.65613e-16)
(0.264469 -0.000249947 1.8134e-16)
(0.264169 -0.000245612 -2.16168e-17)
(0.263875 -0.000241378 1.41606e-16)
(0.263585 -0.000237241 1.35053e-16)
(0.2633 -0.000233199 -1.39641e-16)
(0.263021 -0.000229248 -1.49831e-16)
(0.262746 -0.000225387 -3.35748e-16)
(0.262475 -0.000221612 -2.30139e-16)
(0.26221 -0.000217922 -4.51753e-16)
(0.261948 -0.000214313 -4.12619e-16)
(0.261691 -0.000210785 -5.83911e-16)
(0.261438 -0.000207335 -4.80866e-16)
(0.261189 -0.000203962 -6.91293e-16)
(0.260945 -0.000200664 -6.22027e-16)
(0.260704 -0.000197439 -7.54373e-16)
(0.260467 -0.000194287 -6.83962e-16)
(0.260234 -0.000191207 -8.65323e-16)
(0.260005 -0.000188197 -8.09955e-16)
(0.259779 -0.000185258 -9.4122e-16)
(0.259557 -0.000182389 -8.32329e-16)
(0.259338 -0.00017959 -1.00239e-15)
(0.259122 -0.000176863 -9.59728e-16)
(0.25891 -0.000174207 -1.10766e-15)
(0.258701 -0.000171624 -9.91123e-16)
(0.258495 -0.000169117 -1.13474e-15)
(0.22323 -0.000363579 2.10844e-15)
(0.222658 -0.000354369 1.87782e-15)
(0.222101 -0.000345514 1.82801e-15)
(0.221557 -0.000336995 1.80097e-15)
(0.221027 -0.000328793 2.01851e-15)
(0.220509 -0.000320892 1.64628e-15)
(0.220004 -0.000313275 1.59516e-15)
(0.219511 -0.000305929 1.61038e-15)
(0.219029 -0.000298839 1.81352e-15)
(0.218559 -0.000291992 1.46634e-15)
(0.218099 -0.000285378 1.43645e-15)
(0.21765 -0.000278984 1.50267e-15)
(0.217211 -0.000272799 1.77344e-15)
(0.216781 -0.000266816 1.6821e-15)
(0.216361 -0.000261023 1.7138e-15)
(0.21595 -0.000255413 1.77407e-15)
(0.215548 -0.000249978 1.82619e-15)
(0.215154 -0.000244709 1.90893e-15)
(0.214769 -0.0002396 1.9913e-15)
(0.214391 -0.000234644 2.02971e-15)
(0.214022 -0.000229834 2.06137e-15)
(0.21366 -0.000225165 2.08207e-15)
(0.213305 -0.00022063 2.13111e-15)
(0.212957 -0.000216224 2.11944e-15)
(0.212617 -0.000211943 2.06845e-15)
(0.212283 -0.00020778 1.92108e-15)
(0.211955 -0.000203733 1.66189e-15)
(0.211634 -0.000199795 1.64451e-15)
(0.21132 -0.000195964 1.63109e-15)
(0.211011 -0.000192234 1.82751e-15)
(0.210708 -0.000188603 1.46242e-15)
(0.210411 -0.000185066 1.38327e-15)
(0.210119 -0.000181621 1.39999e-15)
(0.209833 -0.000178264 9.87353e-16)
(0.209552 -0.000174992 9.94182e-16)
(0.209276 -0.000171801 6.81404e-16)
(0.209005 -0.00016869 7.80926e-16)
(0.208739 -0.000165655 4.65136e-16)
(0.208478 -0.000162694 5.38145e-16)
(0.208222 -0.000159805 3.03006e-16)
(0.20797 -0.000156985 4.60208e-16)
(0.207722 -0.000154231 1.39859e-16)
(0.207479 -0.000151543 2.4807e-16)
(0.20724 -0.000148917 -3.9124e-17)
(0.207006 -0.000146351 1.04934e-16)
(0.206775 -0.000143845 2.54826e-16)
(0.206548 -0.000141396 -8.91559e-17)
(0.206325 -0.000139003 -1.06867e-17)
(0.206106 -0.000136663 -2.58071e-16)
(0.205891 -0.000134376 -3.94345e-17)
(0.205679 -0.00013214 -3.33526e-16)
(0.20547 -0.000129954 -2.41511e-16)
(0.205265 -0.000127816 -4.45422e-16)
(0.205064 -0.000125726 -2.42489e-16)
(0.204866 -0.000123682 -5.26607e-16)
(0.204671 -0.000121684 -3.85538e-16)
(0.204479 -0.00011973 -5.68397e-16)
(0.20429 -0.00011782 -4.00257e-16)
(0.204104 -0.000115954 -6.67792e-16)
(0.203921 -0.000114131 -5.266e-16)
(0.203741 -0.00011235 -7.19353e-16)
(0.203564 -0.000110612 -4.9824e-16)
(0.20339 -0.000108917 -7.48082e-16)
(0.203218 -0.000107265 -6.59124e-16)
(0.203049 -0.000105656 -8.50219e-16)
(0.202882 -0.000104093 -6.46201e-16)
(0.202718 -0.000102575 -8.61004e-16)
(0.160984 -0.000182963 1.5086e-15)
(0.160566 -0.000178339 1.32431e-15)
(0.160159 -0.000173893 1.19115e-15)
(0.159762 -0.000169615 1.35662e-15)
(0.159375 -0.000165496 1.44312e-15)
(0.158997 -0.000161527 1.18679e-15)
(0.158628 -0.000157701 1.05612e-15)
(0.158268 -0.00015401 1.2363e-15)
(0.157916 -0.000150448 1.32408e-15)
(0.157572 -0.000147007 1.05553e-15)
(0.157237 -0.000143683 9.34902e-16)
(0.156908 -0.000140469 1.16079e-15)
(0.156587 -0.00013736 1.29912e-15)
(0.156274 -0.000134352 1.27142e-15)
(0.155967 -0.00013144 1.24594e-15)
(0.155666 -0.00012862 1.26307e-15)
(0.155372 -0.000125887 1.29485e-15)
(0.155085 -0.000123237 1.35562e-15)
(0.154803 -0.000120668 1.40852e-15)
(0.154527 -0.000118175 1.42824e-15)
(0.154257 -0.000115756 1.46e-15)
(0.153992 -0.000113407 1.47251e-15)
(0.153733 -0.000111126 1.4936e-15)
(0.153479 -0.00010891 1.493e-15)
(0.15323 -0.000106756 1.47444e-15)
(0.152986 -0.000104662 1.36619e-15)
(0.152747 -0.000102625 1.20879e-15)
(0.152512 -0.000100644 1.09082e-15)
(0.152282 -9.87164e-05 1.24612e-15)
(0.152056 -9.68397e-05 1.31961e-15)
(0.151835 -9.50124e-05 1.0692e-15)
(0.151618 -9.32327e-05 9.2075e-16)
(0.151404 -9.14989e-05 1.09683e-15)
(0.151195 -8.98093e-05 6.64184e-16)
(0.15099 -8.81624e-05 7.05464e-16)
(0.150788 -8.65566e-05 4.4461e-16)
(0.15059 -8.49907e-05 6.32995e-16)
(0.150396 -8.34632e-05 2.86411e-16)
(0.150205 -8.19728e-05 4.07168e-16)
(0.150017 -8.05184e-05 1.49128e-16)
(0.149833 -7.90987e-05 4.02518e-16)
(0.149652 -7.77126e-05 5.63096e-17)
(0.149474 -7.63591e-05 1.92513e-16)
(0.1493 -7.50371e-05 -8.1579e-17)
(0.149128 -7.37457e-05 7.27343e-17)
(0.148959 -7.24839e-05 2.67344e-16)
(0.148793 -7.12509e-05 -9.81029e-17)
(0.14863 -7.00459e-05 1.25634e-17)
(0.14847 -6.8868e-05 -2.07765e-16)
(0.148312 -6.77165e-05 5.61738e-17)
(0.148158 -6.65907e-05 -2.72667e-16)
(0.148005 -6.54899e-05 -1.51135e-16)
(0.147855 -6.44136e-05 -3.64209e-16)
(0.147708 -6.33612e-05 -8.26411e-17)
(0.147563 -6.23321e-05 -4.21634e-16)
(0.14742 -6.1326e-05 -2.40934e-16)
(0.14728 -6.03423e-05 -4.31087e-16)
(0.147142 -5.93808e-05 -2.1753e-16)
(0.147006 -5.84411e-05 -5.07446e-16)
(0.146872 -5.75231e-05 -3.49897e-16)
(0.14674 -5.66267e-05 -5.31878e-16)
(0.146611 -5.57518e-05 -2.46883e-16)
(0.146483 -5.48984e-05 -5.77407e-16)
(0.146357 -5.40668e-05 -4.57601e-16)
(0.146234 -5.32573e-05 -6.5114e-16)
(0.146112 -5.24704e-05 -3.73436e-16)
(0.145992 -5.17067e-05 -6.43468e-16)
(0.0975217 -6.24701e-05 8.79204e-16)
(0.0972657 -6.08963e-05 8.00058e-16)
(0.0970161 -5.93828e-05 7.3198e-16)
(0.0967726 -5.79262e-05 7.93636e-16)
(0.0965352 -5.65234e-05 9.24721e-16)
(0.0963034 -5.51717e-05 7.20768e-16)
(0.0960772 -5.38683e-05 6.3637e-16)
(0.0958563 -5.26108e-05 7.42135e-16)
(0.0956406 -5.13968e-05 8.47458e-16)
(0.0954298 -5.02243e-05 6.34889e-16)
(0.0952238 -4.90912e-05 5.63766e-16)
(0.0950225 -4.79957e-05 6.97165e-16)
(0.0948256 -4.69359e-05 8.50929e-16)
(0.0946331 -4.59103e-05 8.55577e-16)
(0.0944447 -4.49172e-05 7.6005e-16)
(0.0942604 -4.39553e-05 7.52906e-16)
(0.0940801 -4.30231e-05 7.72485e-16)
(0.0939036 -4.21193e-05 7.9071e-16)
(0.0937307 -4.12429e-05 8.36932e-16)
(0.0935615 -4.03924e-05 8.57406e-16)
(0.0933957 -3.9567e-05 8.66388e-16)
(0.0932333 -3.87656e-05 8.71228e-16)
(0.0930742 -3.79872e-05 8.8131e-16)
(0.0929183 -3.72309e-05 8.83669e-16)
(0.0927655 -3.64957e-05 8.69406e-16)
(0.0926156 -3.5781e-05 8.12725e-16)
(0.0924688 -3.50858e-05 7.40532e-16)
(0.0923247 -3.44095e-05 6.66977e-16)
(0.0921835 -3.37513e-05 7.42689e-16)
(0.0920449 -3.31106e-05 8.64235e-16)
(0.0919089 -3.24867e-05 6.57483e-16)
(0.0917755 -3.18791e-05 5.79869e-16)
(0.0916446 -3.1287e-05 7.05884e-16)
(0.0915162 -3.07101e-05 4.20717e-16)
(0.09139 -3.01477e-05 4.82297e-16)
(0.0912662 -2.95993e-05 2.99584e-16)
(0.0911447 -2.90645e-05 4.20378e-16)
(0.0910253 -2.85428e-05 1.92413e-16)
(0.0909081 -2.80337e-05 3.01235e-16)
(0.0907929 -2.7537e-05 1.01964e-16)
(0.0906798 -2.7052e-05 2.90777e-16)
(0.0905687 -2.65785e-05 6.26819e-17)
(0.0904595 -2.61162e-05 1.88312e-16)
(0.0903523 -2.56646e-05 -1.28181e-17)
(0.0902468 -2.52234e-05 6.16244e-17)
(0.0901432 -2.47923e-05 2.19269e-16)
(0.0900414 -2.43711e-05 -1.55171e-17)
(0.0899412 -2.39593e-05 6.00076e-17)
(0.0898428 -2.35569e-05 -8.89132e-17)
(0.089746 -2.31635e-05 7.79517e-17)
(0.0896508 -2.27788e-05 -1.27092e-16)
(0.0895572 -2.24027e-05 -1.64657e-17)
(0.0894652 -2.20349e-05 -1.89864e-16)
(0.0893747 -2.16753e-05 -4.6126e-19)
(0.0892856 -2.13237e-05 -2.29054e-16)
(0.089198 -2.09799e-05 -8.69979e-17)
(0.0891117 -2.06438e-05 -2.3306e-16)
(0.0890269 -2.03152e-05 -7.99976e-17)
(0.0889434 -1.99942e-05 -2.84395e-16)
(0.0888613 -1.96805e-05 -1.40956e-16)
(0.0887804 -1.93743e-05 -2.83106e-16)
(0.0887007 -1.90754e-05 -9.50913e-17)
(0.0886223 -1.87839e-05 -3.11231e-16)
(0.0885451 -1.84998e-05 -2.2041e-16)
(0.0884691 -1.82234e-05 -3.63867e-16)
(0.0883942 -1.79547e-05 -1.6322e-16)
(0.0883203 -1.76939e-05 -3.65767e-16)
(0.0328549 -9.00959e-06 2.78454e-16)
(0.0327675 -8.78402e-06 2.68846e-16)
(0.0326822 -8.56701e-06 2.46695e-16)
(0.032599 -8.35809e-06 2.68947e-16)
(0.0325179 -8.15682e-06 3.01297e-16)
(0.0324387 -7.96281e-06 2.37246e-16)
(0.0323614 -7.77568e-06 2.12909e-16)
(0.0322859 -7.59509e-06 2.32423e-16)
(0.0322121 -7.4207e-06 2.70457e-16)
(0.0321401 -7.25222e-06 2.11214e-16)
(0.0320697 -7.08935e-06 1.88052e-16)
(0.0320008 -6.93185e-06 2.3275e-16)
(0.0319335 -6.77945e-06 2.86357e-16)
(0.0318677 -6.63193e-06 2.80959e-16)
(0.0318032 -6.48907e-06 2.50167e-16)
(0.0317402 -6.35065e-06 2.40601e-16)
(0.0316785 -6.21649e-06 2.52516e-16)
(0.0316182 -6.08639e-06 2.58346e-16)
(0.031559 -5.9602e-06 2.62999e-16)
(0.0315011 -5.83774e-06 2.81109e-16)
(0.0314444 -5.71886e-06 2.7628e-16)
(0.0313889 -5.60342e-06 2.79415e-16)
(0.0313345 -5.49127e-06 2.92303e-16)
(0.0312811 -5.38229e-06 2.94084e-16)
(0.0312288 -5.27635e-06 2.81943e-16)
(0.0311776 -5.17334e-06 2.73087e-16)
(0.0311273 -5.07313e-06 2.46355e-16)
(0.031078 -4.97563e-06 2.18163e-16)
(0.0310297 -4.88074e-06 2.45807e-16)
(0.0309822 -4.78835e-06 2.79972e-16)
(0.0309357 -4.69838e-06 2.28284e-16)
(0.0308901 -4.61073e-06 1.99018e-16)
(0.0308453 -4.52533e-06 2.28753e-16)
(0.0308013 -4.4421e-06 1.41745e-16)
(0.0307581 -4.36096e-06 1.67962e-16)
(0.0307157 -4.28184e-06 1.00899e-16)
(0.0306741 -4.20467e-06 1.33978e-16)
(0.0306333 -4.12938e-06 7.07289e-17)
(0.0305931 -4.05592e-06 9.39617e-17)
(0.0305537 -3.98422e-06 3.57667e-17)
(0.030515 -3.91422e-06 9.3545e-17)
(0.030477 -3.84587e-06 2.17419e-17)
(0.0304396 -3.77912e-06 5.61313e-17)
(0.0304029 -3.71392e-06 5.2374e-18)
(0.0303668 -3.65022e-06 1.70373e-17)
(0.0303313 -3.58798e-06 7.77257e-17)
(0.0302964 -3.52715e-06 -9.5582e-18)
(0.0302621 -3.4677e-06 1.48e-17)
(0.0302284 -3.40958e-06 -2.27019e-17)
(0.0301953 -3.35276e-06 9.95692e-18)
(0.0301627 -3.2972e-06 -4.69266e-17)
(0.0301306 -3.24288e-06 5.57217e-18)
(0.0300991 -3.18976e-06 -5.66812e-17)
(0.0300681 -3.13782e-06 -1.96512e-17)
(0.0300376 -3.08703e-06 -7.06891e-17)
(0.0300076 -3.03737e-06 -2.94542e-17)
(0.0299781 -2.98882e-06 -7.75875e-17)
(0.029949 -2.94137e-06 -2.34427e-17)
(0.0299204 -2.895e-06 -8.77212e-17)
(0.0298923 -2.8497e-06 -5.09076e-17)
(0.0298646 -2.80547e-06 -8.90658e-17)
(0.0298373 -2.76231e-06 -2.97436e-17)
(0.0298104 -2.72022e-06 -1.01744e-16)
(0.029784 -2.67922e-06 -6.28091e-17)
(0.0297579 -2.63932e-06 -1.08101e-16)
(0.0297323 -2.60055e-06 -6.37422e-17)
(0.029707 -2.56295e-06 -1.26502e-16)
)
;

boundaryField
{
    inlet
    {
        type            uniformFixedValue;
        uniformValue    constant (1 0 0);
        value           nonuniform 0();
    }
    outlet
    {
        type            pressureInletOutletVelocity;
        value           nonuniform 0();
    }
    wall
    {
        type            fixedValue;
        value           uniform (0 0 0);
    }
    wedge1
    {
        type            wedge;
    }
    wedge2
    {
        type            wedge;
    }
    axis
    {
        type            empty;
    }
    procBoundary43to37
    {
        type            processor;
        value           nonuniform List<vector> 
68
(
(0.370213 -0.000405492 -9.31029e-16)
(0.369888 -0.000399007 -8.82363e-16)
(0.369568 -0.00039267 -1.09255e-15)
(0.369254 -0.000386478 -1.05124e-15)
(0.368944 -0.00038043 -1.21562e-15)
(0.36864 -0.000374526 -1.09442e-15)
(0.36834 -0.000368766 -1.28662e-15)
(0.368044 -0.000363151 -1.25841e-15)
(0.367754 -0.000357682 -1.45873e-15)
(0.367467 -0.000352363 -1.34825e-15)
(0.367185 -0.000347197 -1.5359e-15)
(0.344023 -0.000891673 3.34322e-15)
(0.343165 -0.000868993 2.98871e-15)
(0.342329 -0.000847195 2.89491e-15)
(0.341514 -0.000826227 2.72327e-15)
(0.340719 -0.000806046 2.86956e-15)
(0.339943 -0.000786608 2.58969e-15)
(0.339187 -0.000767874 2.52302e-15)
(0.338448 -0.000749807 2.41151e-15)
(0.337726 -0.000732375 2.59329e-15)
(0.337021 -0.000715544 2.28734e-15)
(0.336332 -0.000699286 2.28128e-15)
(0.335659 -0.000683572 2.2304e-15)
(0.335001 -0.000668377 2.458e-15)
(0.334358 -0.000653676 2.346e-15)
(0.333729 -0.000639448 2.55519e-15)
(0.333113 -0.000625669 2.69719e-15)
(0.332511 -0.000612321 2.7865e-15)
(0.331921 -0.000599384 2.89305e-15)
(0.331344 -0.00058684 2.99825e-15)
(0.330779 -0.000574673 3.08119e-15)
(0.330226 -0.000562866 3.16071e-15)
(0.329684 -0.000551405 3.18278e-15)
(0.329153 -0.000540276 3.25037e-15)
(0.328633 -0.000529465 3.27502e-15)
(0.328123 -0.000518959 3.24054e-15)
(0.327623 -0.000508747 3.01223e-15)
(0.327133 -0.000498816 2.64787e-15)
(0.326653 -0.000489157 2.60783e-15)
(0.326182 -0.000479759 2.46961e-15)
(0.32572 -0.000470611 2.60406e-15)
(0.325266 -0.000461705 2.2941e-15)
(0.324822 -0.000453032 2.2128e-15)
(0.324385 -0.000444583 1.98864e-15)
(0.323957 -0.000436351 1.59884e-15)
(0.323537 -0.000428327 1.47069e-15)
(0.323124 -0.000420505 1.15072e-15)
(0.322719 -0.000412877 1.0955e-15)
(0.322322 -0.000405438 8.13682e-16)
(0.321931 -0.000398179 7.47197e-16)
(0.321547 -0.000391096 5.30017e-16)
(0.321171 -0.000384183 5.3767e-16)
(0.320801 -0.000377434 2.98736e-16)
(0.320437 -0.000370844 2.72916e-16)
(0.32008 -0.000364408 8.01954e-17)
(0.319729 -0.000358121 2.29972e-16)
(0.319384 -0.000351979 1.8086e-16)
(0.319044 -0.000345978 -7.12198e-17)
(0.318711 -0.000340112 -1.04901e-16)
(0.318383 -0.000334379 -3.10115e-16)
(0.318061 -0.000328775 -2.51657e-16)
(0.317744 -0.000323296 -4.26189e-16)
(0.317433 -0.000317939 -4.35057e-16)
(0.317127 -0.000312701 -6.13808e-16)
(0.316825 -0.000307579 -5.73375e-16)
(0.316529 -0.000302571 -7.47331e-16)
(0.316237 -0.000297675 -6.79807e-16)
(0.316237 -0.000297675 -6.79807e-16)
)
;
    }
    procBoundary43to38
    {
        type            processor;
        value           uniform (0.313077 -0.000247215 -1.21572e-15);
    }
    procBoundary43to42
    {
        type            processor;
        value           nonuniform List<vector> 5((0.284986 -0.000616225 3.02776e-15) (0.223817 -0.000373167 2.32385e-15) (0.161412 -0.000187775 1.64384e-15) (0.0977844 -6.41078e-05 9.92959e-16) (0.0329447 -9.24422e-06 3.24904e-16));
    }
    procBoundary43to44
    {
        type            processor;
        value           nonuniform List<vector> 5((0.258292 -0.000166687 -1.03021e-15) (0.202556 -0.000101104 -6.9572e-16) (0.145873 -5.0967e-05 -4.715e-16) (0.0882476 -1.74415e-05 -2.18267e-16) (0.0296821 -2.52656e-06 -8.15075e-17));
    }
}


// ************************************************************************* //
