/*--------------------------------*- C++ -*----------------------------------*\
  =========                 |
  \\      /  F ield         | OpenFOAM: The Open Source CFD Toolbox
   \\    /   O peration     | Website:  https://openfoam.org
    \\  /    A nd           | Version:  7
     \\/     M anipulation  |
\*---------------------------------------------------------------------------*/
FoamFile
{
    version     2.0;
    format      ascii;
    class       volScalarField;
    location    "76.999188";
    object      p;
}
// * * * * * * * * * * * * * * * * * * * * * * * * * * * * * * * * * * * * * //

dimensions      [0 2 -2 0 0 0 0];

internalField   nonuniform List<scalar> 
5800
(
-0.217573
-0.219345
-0.220418
-0.221258
-0.221992
-0.222643
-0.223248
-0.223835
-0.224414
-0.224983
0.674333
0.657548
0.647281
0.63642
0.622604
0.60575
0.58624
0.564669
0.541646
0.517707
0.493303
0.674348
0.657562
0.647295
0.636432
0.622616
0.605761
0.58625
0.564678
0.541655
0.517715
0.49331
0.468811
0.444522
0.420688
0.397499
0.3751
0.353597
0.333081
0.313632
0.295275
0.669666
0.65302
0.642968
0.632396
0.618901
0.602368
0.583163
0.561875
0.539114
0.515414
0.491229
0.46693
0.442823
0.419153
0.396113
0.373848
0.352464
0.332046
0.31269
0.294469
0.660328
0.64396
0.634339
0.624341
0.61149
0.595599
0.577003
0.556282
0.534042
0.510822
0.487073
0.463174
0.439429
0.416087
0.393344
0.371348
0.350199
0.329977
0.310807
0.292853
0.646416
0.63046
0.621477
0.612335
0.600439
0.585504
0.567816
0.547938
0.526476
0.503968
0.480872
0.457567
0.434362
0.411509
0.389208
0.367612
0.346816
0.326888
0.307992
0.290431
0.628049
0.612636
0.604491
0.596471
0.585833
0.572159
0.555668
0.536903
0.516467
0.494902
0.472667
0.450147
0.427656
0.405448
0.383732
0.362665
0.342335
0.322797
0.304263
0.287209
0.605388
0.590642
0.583521
0.576879
0.567787
0.555664
0.54065
0.523258
0.504089
0.483686
0.462514
0.440963
0.419352
0.397942
0.376948
0.356534
0.336782
0.317728
0.299638
0.283197
0.578628
0.564667
0.558743
0.553714
0.54644
0.536145
0.522872
0.507101
0.489427
0.470396
0.450481
0.430075
0.409505
0.389038
0.368897
0.349256
0.33019
0.311712
0.294145
0.278407
0.548002
0.534934
0.530363
0.527163
0.521957
0.513749
0.502465
0.488549
0.472585
0.455126
0.436648
0.417554
0.398177
0.378791
0.359629
0.340874
0.322596
0.304784
0.287811
0.272857
0.513777
0.5017
0.49862
0.497439
0.494529
0.488643
0.47958
0.467735
0.453682
0.437979
0.421109
0.403483
0.38544
0.367264
0.349198
0.331437
0.314045
0.296984
0.28067
0.266568
0.47625
0.465254
0.463778
0.464783
0.464368
0.461019
0.454385
0.444808
0.432851
0.419074
0.403968
0.387952
0.371375
0.354529
0.337668
0.320999
0.304585
0.288356
0.272761
0.259563
0.43575
0.425911
0.426131
0.429457
0.431709
0.431082
0.427065
0.419932
0.410236
0.398538
0.385338
0.371063
0.356071
0.340664
0.325106
0.309621
0.294269
0.278948
0.264125
0.251873
0.392629
0.384012
0.385996
0.391747
0.396806
0.39906
0.397819
0.393286
0.385996
0.376512
0.365342
0.352924
0.339624
0.325753
0.311588
0.297367
0.283156
0.268812
0.254806
0.243528
0.347266
0.339923
0.343711
0.351958
0.35993
0.365192
0.36686
0.365059
0.360298
0.353144
0.344113
0.33365
0.322135
0.309886
0.297192
0.284309
0.271308
0.258005
0.244853
0.234564
0.300056
0.294027
0.299635
0.310413
0.321368
0.329732
0.334415
0.33545
0.333319
0.328591
0.321787
0.313365
0.303712
0.293157
0.282002
0.270519
0.258791
0.246586
0.234319
0.225016
0.251413
0.246724
0.25414
0.26745
0.28142
0.292945
0.300719
0.304667
0.305245
0.303016
0.29851
0.292195
0.284468
0.275667
0.266105
0.256075
0.245673
0.234621
0.223259
0.214924
0.201763
0.198428
0.207613
0.223417
0.240396
0.255107
0.266013
0.272926
0.276264
0.276587
0.274431
0.270271
0.264518
0.257516
0.249589
0.241053
0.232027
0.222178
0.211733
0.204325
0.15154
0.149557
0.160449
0.178673
0.198615
0.216498
0.230546
0.240447
0.246573
0.249476
0.2497
0.247728
0.24398
0.23881
0.232548
0.225534
0.217926
0.209338
0.199818
0.193253
0.101181
0.100536
0.113047
0.133581
0.156399
0.177404
0.194571
0.207452
0.216368
0.221859
0.224473
0.224701
0.222974
0.219655
0.215075
0.209596
0.203435
0.196182
0.187604
0.181716
0.0511239
0.0517873
0.0658099
0.0885092
0.114075
0.138111
0.15834
0.174166
0.185847
0.19391
0.198903
0.201327
0.201621
0.200155
0.197264
0.193318
0.188612
0.182789
0.175266
0.169747
0.00180415
0.0037261
0.0191369
0.0438208
0.0719682
0.098907
0.122106
0.14081
0.155207
0.165802
0.173145
0.177741
0.180038
0.180417
0.179212
0.176786
0.173509
0.169207
0.163022
0.157269
-0.0463448
-0.0432432
-0.0265801
-0.000124399
0.0303992
0.0600739
0.0861175
0.107605
0.124641
0.137708
0.14735
0.154077
0.158343
0.160543
0.16101
0.160085
0.158166
0.155356
0.151045
0.144741
-0.0929353
-0.088701
-0.0709685
-0.0429774
-0.0103181
0.0218881
0.0506167
0.0747637
0.0943399
0.109794
0.121665
0.130464
0.136652
0.140632
0.142745
0.143307
0.142696
0.141235
0.138792
0.134133
-0.137855
-0.132112
-0.113702
-0.0844033
-0.0498813
-0.0153838
0.0158383
0.0424934
0.0644852
0.0822227
0.0962341
0.107031
0.115076
0.120782
0.124499
0.126532
0.127214
0.126981
0.126148
0.123433
-0.180393
-0.173252
-0.154548
-0.124102
-0.0880051
-0.0514875
-0.0179935
0.0109917
0.035252
0.055148
0.0711933
0.0838965
0.0937223
0.101087
0.106353
0.109822
0.111788
0.112706
0.113153
0.112002
-0.220214
-0.211948
-0.19279
-0.16192
-0.124427
-0.0861811
-0.0506667
-0.0195547
0.00680511
0.0287162
0.0466723
0.0611765
0.072692
0.0816372
0.0883824
0.0932351
0.0964591
0.0984855
0.100016
0.100113
-0.257087
-0.24788
-0.228341
-0.197257
-0.15897
-0.119241
-0.0819821
-0.0489711
-0.0207012
0.00306364
0.022792
0.0389777
0.0520803
0.062517
0.0706625
0.0768304
0.0812686
0.0843731
0.0869006
0.0881051
-0.290825
-0.280759
-0.261052
-0.229924
-0.19126
-0.150479
-0.111756
-0.077096
-0.0471251
-0.0216842
-0.000336041
0.0173995
0.0319753
0.043805
0.0532641
0.0606711
0.0662663
0.070411
0.0738814
0.0761213
-0.321243
-0.310374
-0.290711
-0.259834
-0.221064
-0.179676
-0.139822
-0.103783
-0.0723374
-0.0454142
-0.0226105
-0.0034676
0.0124576
0.0255734
0.0362528
0.0448173
0.0515034
0.056638
0.0609948
0.0642047
-0.348184
-0.336577
-0.317138
-0.286813
-0.248291
-0.206641
-0.166033
-0.128906
-0.0962234
-0.068026
-0.0439408
-0.0235421
-0.00640027
0.00788754
0.0196881
0.0293232
0.0370279
0.043093
0.0482743
0.0523898
-0.371546
-0.359272
-0.340209
-0.310707
-0.272807
-0.231268
-0.190261
-0.152367
-0.11868
-0.0894325
-0.0642478
-0.0427515
-0.024535
-0.00919419
0.0036228
0.0142373
0.0228836
0.0298153
0.0357579
0.0407182
-0.391281
-0.378418
-0.35986
-0.331417
-0.294494
-0.253456
-0.21241
-0.174069
-0.139679
-0.109537
-0.083465
-0.0610332
-0.0418924
-0.0256199
-0.0118972
-0.000397807
0.00910986
0.0168422
0.0234816
0.0292302
-0.407397
-0.394029
-0.376078
-0.348898
-0.313277
-0.273124
-0.232405
-0.19393
-0.15911
-0.12835
-0.10154
-0.0783345
-0.0584277
-0.0413442
-0.0268332
-0.014544
-0.0042596
0.0042077
0.0114744
0.0179593
-0.419958
-0.406173
-0.388908
-0.363155
-0.329125
-0.290219
-0.250194
-0.211905
-0.176921
-0.145784
-0.118459
-0.0946697
-0.0740799
-0.056332
-0.0411529
-0.0281682
-0.0171979
-0.0080562
-0.000242268
0.00693009
-0.42908
-0.414972
-0.398446
-0.374243
-0.342049
-0.304724
-0.265747
-0.227968
-0.193092
-0.161805
-0.134169
-0.109963
-0.0888727
-0.0705895
-0.054818
-0.0412457
-0.0296847
-0.0199204
-0.0116436
-0.00384941
-0.43493
-0.420598
-0.404841
-0.382264
-0.352101
-0.316655
-0.279062
-0.242113
-0.207619
-0.176407
-0.148651
-0.124194
-0.102765
-0.0840745
-0.0678414
-0.0537928
-0.0416887
-0.0313719
-0.0226808
-0.0144033
-0.437722
-0.423268
-0.408289
-0.38737
-0.359377
-0.32606
-0.29016
-0.254347
-0.220506
-0.189598
-0.161911
-0.137367
-0.115742
-0.09677
-0.0801935
-0.0657597
-0.0532255
-0.0424444
-0.033261
-0.0247926
-0.437708
-0.42324
-0.409031
-0.389758
-0.364012
-0.333021
-0.299088
-0.264699
-0.231773
-0.201392
-0.173964
-0.149493
-0.127808
-0.108677
-0.0918641
-0.077137
-0.0642687
-0.0531017
-0.0435021
-0.0348494
-0.435173
-0.420802
-0.407343
-0.389666
-0.366184
-0.337653
-0.305916
-0.273216
-0.241455
-0.211819
-0.18483
-0.160588
-0.138978
-0.119805
-0.102859
-0.0879297
-0.0748082
-0.0633343
-0.0533989
-0.0444613
-0.430428
-0.416266
-0.403529
-0.387366
-0.366107
-0.340106
-0.310741
-0.279962
-0.2496
-0.220915
-0.194543
-0.170678
-0.149271
-0.13017
-0.113191
-0.0981469
-0.0848476
-0.0731369
-0.062923
-0.0536852
-0.423795
-0.409955
-0.39791
-0.383155
-0.364026
-0.340557
-0.313684
-0.285018
-0.256268
-0.22873
-0.203141
-0.179795
-0.158714
-0.139792
-0.122876
-0.1078
-0.0943963
-0.0825126
-0.0720768
-0.0625957
-0.415609
-0.402198
-0.390816
-0.377348
-0.360213
-0.339215
-0.314887
-0.288482
-0.261529
-0.235319
-0.210674
-0.187981
-0.16734
-0.148697
-0.131932
-0.116906
-0.103467
-0.0914734
-0.0808753
-0.0712263
-0.406195
-0.393318
-0.382575
-0.370266
-0.35496
-0.336311
-0.314516
-0.290467
-0.265465
-0.240748
-0.217193
-0.19528
-0.175186
-0.156916
-0.140386
-0.125483
-0.112078
-0.100035
-0.0893294
-0.0795823
-0.395872
-0.383623
-0.3735
-0.362228
-0.348563
-0.332095
-0.312758
-0.291101
-0.268165
-0.245084
-0.222757
-0.201742
-0.182297
-0.164485
-0.148267
-0.133556
-0.120247
-0.108214
-0.0974472
-0.0876584
-0.384937
-0.373399
-0.363884
-0.353537
-0.34132
-0.326829
-0.309814
-0.290527
-0.269729
-0.248401
-0.227427
-0.207421
-0.188718
-0.171445
-0.155608
-0.141152
-0.127997
-0.116027
-0.10524
-0.0954547
-0.373663
-0.362903
-0.353993
-0.344471
-0.333516
-0.320777
-0.305903
-0.288903
-0.270263
-0.250775
-0.231262
-0.212369
-0.194496
-0.177837
-0.162445
-0.148301
-0.135351
-0.123494
-0.112724
-0.10298
-0.36229
-0.352361
-0.344055
-0.335278
-0.325414
-0.314197
-0.301246
-0.286397
-0.269885
-0.252289
-0.234326
-0.216639
-0.19968
-0.183704
-0.168817
-0.155035
-0.142336
-0.130638
-0.119919
-0.110249
-0.351028
-0.341964
-0.334266
-0.326169
-0.317247
-0.307332
-0.296068
-0.283188
-0.268719
-0.253024
-0.236679
-0.220282
-0.204315
-0.189088
-0.174761
-0.16139
-0.148981
-0.137483
-0.126846
-0.117279
-0.340049
-0.331868
-0.324779
-0.317316
-0.309211
-0.300399
-0.290583
-0.279457
-0.266901
-0.253073
-0.238381
-0.223345
-0.208445
-0.194031
-0.180316
-0.167398
-0.155316
-0.144054
-0.133529
-0.124087
-0.329492
-0.322192
-0.315713
-0.308851
-0.301463
-0.29358
-0.284987
-0.275388
-0.264572
-0.25253
-0.239495
-0.225873
-0.212107
-0.198569
-0.185517
-0.173095
-0.161372
-0.150377
-0.139991
-0.130692
-0.319463
-0.313027
-0.307154
-0.300866
-0.294121
-0.287026
-0.279452
-0.271151
-0.261876
-0.251498
-0.240086
-0.227907
-0.215334
-0.202735
-0.190399
-0.178513
-0.167179
-0.156479
-0.146254
-0.137113
-0.310036
-0.304433
-0.299155
-0.293422
-0.287264
-0.280844
-0.274117
-0.266902
-0.258958
-0.250086
-0.240221
-0.229486
-0.218154
-0.206553
-0.194987
-0.183682
-0.172766
-0.162387
-0.152345
-0.143372
-0.301261
-0.296445
-0.291746
-0.286549
-0.280936
-0.275108
-0.26909
-0.262772
-0.255953
-0.248407
-0.239978
-0.230654
-0.220588
-0.210042
-0.199303
-0.188626
-0.178161
-0.168126
-0.158286
-0.14949
-0.293162
-0.289079
-0.284934
-0.280255
-0.275156
-0.269858
-0.264442
-0.258864
-0.252979
-0.246573
-0.239437
-0.231455
-0.222657
-0.21321
-0.203356
-0.193361
-0.183385
-0.173721
-0.164101
-0.155486
-0.285746
-0.282334
-0.278712
-0.274529
-0.269918
-0.265107
-0.260213
-0.255252
-0.250137
-0.244688
-0.238685
-0.231943
-0.224381
-0.21606
-0.207146
-0.197894
-0.188452
-0.17919
-0.169813
-0.161381
-0.279004
-0.276194
-0.27306
-0.269349
-0.265203
-0.260846
-0.256418
-0.251981
-0.2475
-0.242843
-0.237808
-0.232176
-0.225785
-0.218592
-0.210664
-0.202217
-0.193367
-0.184547
-0.175436
-0.1672
-0.272913
-0.270635
-0.267949
-0.264682
-0.260979
-0.257051
-0.253051
-0.24907
-0.245118
-0.241113
-0.236887
-0.232221
-0.226905
-0.220807
-0.213892
-0.20631
-0.198117
-0.189792
-0.180985
-0.172955
-0.26744
-0.265624
-0.263344
-0.260492
-0.257209
-0.253689
-0.25009
-0.246518
-0.243017
-0.23955
-0.23599
-0.232143
-0.22778
-0.222712
-0.216808
-0.21014
-0.202674
-0.194914
-0.186444
-0.1787
-0.262544
-0.261122
-0.259207
-0.256738
-0.253851
-0.250722
-0.247502
-0.244307
-0.241204
-0.238187
-0.235173
-0.232003
-0.228459
-0.224325
-0.219397
-0.213665
-0.206988
-0.199881
-0.1918
-0.184403
-0.258178
-0.257084
-0.255492
-0.253377
-0.250861
-0.248104
-0.245248
-0.242411
-0.239667
-0.237037
-0.234474
-0.231855
-0.228994
-0.225674
-0.221651
-0.216841
-0.211012
-0.204607
-0.197017
-0.190181
-0.254285
-0.253464
-0.252156
-0.250363
-0.248195
-0.245793
-0.243287
-0.240789
-0.238381
-0.236095
-0.233909
-0.23174
-0.229434
-0.226797
-0.223579
-0.219637
-0.214669
-0.209064
-0.201929
-0.195787
-0.250808
-0.25021
-0.249151
-0.247651
-0.245808
-0.243741
-0.241571
-0.239401
-0.23731
-0.235338
-0.23348
-0.231679
-0.22982
-0.227737
-0.225203
-0.22203
-0.217955
-0.212953
-0.207229
-0.199974
-0.247685
-0.247272
-0.246431
-0.245198
-0.243654
-0.241904
-0.240055
-0.238202
-0.236414
-0.234735
-0.233169
-0.231679
-0.230179
-0.228535
-0.226565
-0.224016
-0.22089
-0.216144
-0.212507
-0.203568
-0.24486
-0.2446
-0.243951
-0.242958
-0.241692
-0.240239
-0.238695
-0.237143
-0.235647
-0.234245
-0.232947
-0.231728
-0.230522
-0.229224
-0.227708
-0.225621
-0.223467
-0.218576
-0.217299
-0.206677
-0.242275
-0.242147
-0.241667
-0.240894
-0.239882
-0.238706
-0.237448
-0.236182
-0.234963
-0.233825
-0.232776
-0.231798
-0.230842
-0.22982
-0.228665
-0.2269
-0.225668
-0.220327
-0.221619
-0.209006
-0.239877
-0.239868
-0.239546
-0.238969
-0.238189
-0.237269
-0.236277
-0.235278
-0.23432
-0.23343
-0.232615
-0.231858
-0.231119
-0.230325
-0.229453
-0.227926
-0.227461
-0.22162
-0.22541
-0.210491
-0.237624
-0.23773
-0.237552
-0.237156
-0.236585
-0.235898
-0.235151
-0.2344
-0.233683
-0.233024
-0.232425
-0.23187
-0.231325
-0.230729
-0.230072
-0.228759
-0.228806
-0.222732
-0.228391
-0.211419
-0.23548
-0.235705
-0.23566
-0.235427
-0.23505
-0.234572
-0.234047
-0.23352
-0.233024
-0.232575
-0.232174
-0.231805
-0.231432
-0.231011
-0.230517
-0.229427
-0.229701
-0.223844
-0.230306
-0.212276
-0.23342
-0.23377
-0.233853
-0.23377
-0.233565
-0.233276
-0.232949
-0.232622
-0.232324
-0.232064
-0.231841
-0.231637
-0.23142
-0.231149
-0.230785
-0.229922
-0.230195
-0.224962
-0.231159
-0.213436
-0.23143
-0.231914
-0.232119
-0.232173
-0.232124
-0.232002
-0.23185
-0.2317
-0.231574
-0.231481
-0.231414
-0.231355
-0.231273
-0.231132
-0.230876
-0.23022
-0.230375
-0.225967
-0.231206
-0.21494
-0.229505
-0.230132
-0.230456
-0.230636
-0.230725
-0.23075
-0.230749
-0.230752
-0.230776
-0.230826
-0.230893
-0.230958
-0.230992
-0.230958
-0.230794
-0.230303
-0.230326
-0.226726
-0.230775
-0.216572
-0.227651
-0.228427
-0.228866
-0.229162
-0.229374
-0.229527
-0.229656
-0.229788
-0.229938
-0.230108
-0.230288
-0.230457
-0.230586
-0.23064
-0.230554
-0.230172
-0.230126
-0.227151
-0.230132
-0.218087
-0.225879
-0.22681
-0.227359
-0.22776
-0.22808
-0.228343
-0.228583
-0.228824
-0.229078
-0.229347
-0.229619
-0.229872
-0.230078
-0.230201
-0.230172
-0.229861
-0.229814
-0.227236
-0.22947
-0.219335
-0.22421
-0.225296
-0.225949
-0.226445
-0.22686
-0.227217
-0.227548
-0.227878
-0.228218
-0.228567
-0.228912
-0.229232
-0.229498
-0.229673
-0.229693
-0.229492
-0.229249
-0.227241
-0.228815
-0.220268
-0.222668
-0.223904
-0.224654
-0.225234
-0.225731
-0.226167
-0.226573
-0.226976
-0.227384
-0.227796
-0.228199
-0.228571
-0.228883
-0.229096
-0.229156
-0.229014
-0.228653
-0.227271
-0.227679
-0.221469
-0.22128
-0.222656
-0.223495
-0.224148
-0.224715
-0.225215
-0.225682
-0.226142
-0.226604
-0.227065
-0.227512
-0.227924
-0.22827
-0.228513
-0.228604
-0.228495
-0.228108
-0.227118
-0.226771
-0.222499
-0.220073
-0.221576
-0.222491
-0.223207
-0.22383
-0.224383
-0.224899
-0.225403
-0.225906
-0.226404
-0.226885
-0.227326
-0.227699
-0.227966
-0.228081
-0.227996
-0.227628
-0.226856
-0.226148
-0.219076
-0.220685
-0.221663
-0.22243
-0.223099
-0.223692
-0.224244
-0.224783
-0.225316
-0.225842
-0.226348
-0.226811
-0.227204
-0.22749
-0.227625
-0.227563
-0.227233
-0.226587
-0.225755
-0.218311
-0.220003
-0.22103
-0.221835
-0.222537
-0.22316
-0.223739
-0.224301
-0.224857
-0.225403
-0.225927
-0.226407
-0.226815
-0.227116
-0.22727
-0.227231
-0.226941
-0.226377
-0.225543
-0.217798
-0.219546
-0.220606
-0.221435
-0.22216
-0.222802
-0.223399
-0.223976
-0.224546
-0.225106
-0.225642
-0.226135
-0.226555
-0.22687
-0.227041
-0.227024
-0.226772
-0.226267
-0.22548
-0.21755
-0.219325
-0.2204
-0.221242
-0.221977
-0.222628
-0.223233
-0.223819
-0.224397
-0.224964
-0.225508
-0.226009
-0.22644
-0.226767
-0.226954
-0.226958
-0.226738
-0.226277
-0.225544
0.136473
0.139578
0.146993
0.153658
0.162256
0.168009
0.173544
0.173661
0.172784
0.163179
0.137688
0.140863
0.148526
0.155499
0.16465
0.171217
0.177967
0.179656
0.181063
0.173932
0.138892
0.142075
0.149994
0.15725
0.16698
0.174305
0.182259
0.185368
0.188808
0.184059
0.140046
0.143246
0.151433
0.158965
0.16926
0.177309
0.186404
0.1909
0.196181
0.193803
0.141154
0.144365
0.152817
0.160609
0.171444
0.180184
0.190353
0.196212
0.203166
0.203113
0.142211
0.145441
0.154145
0.162181
0.173532
0.182934
0.1941
0.201291
0.209772
0.211961
0.143214
0.146426
0.155419
0.163679
0.175516
0.185552
0.197635
0.206117
0.215998
0.220325
0.144162
0.147367
0.156602
0.165095
0.177387
0.188032
0.200948
0.210671
0.221841
0.228183
0.145056
0.148255
0.157786
0.166433
0.17914
0.190366
0.204036
0.214935
0.22729
0.235511
0.145889
0.149062
0.158723
0.167684
0.180767
0.192545
0.206891
0.218891
0.232335
0.242289
0.146658
0.149815
0.159757
0.168835
0.182262
0.194562
0.209509
0.222527
0.236963
0.248498
0.147361
0.150501
0.160615
0.169879
0.18362
0.196406
0.211885
0.225828
0.241161
0.25412
0.147993
0.151117
0.161414
0.170823
0.184837
0.198071
0.214016
0.228785
0.244918
0.259142
0.148553
0.151661
0.162111
0.171657
0.18591
0.199547
0.215894
0.231389
0.248224
0.26355
0.149037
0.152131
0.162716
0.172381
0.186836
0.200827
0.217517
0.233634
0.251069
0.267335
0.149444
0.152525
0.163222
0.17299
0.187611
0.201903
0.218878
0.235512
0.253447
0.270491
0.149772
0.152842
0.16363
0.17348
0.188235
0.202772
0.219973
0.23702
0.255353
0.273014
0.150018
0.15308
0.163936
0.17385
0.188704
0.203427
0.220798
0.238153
0.256783
0.274904
0.150183
0.153239
0.16414
0.174098
0.189017
0.203865
0.221349
0.238909
0.257737
0.276162
0.150264
0.153318
0.164241
0.17422
0.189172
0.204082
0.221624
0.239285
0.258212
0.276787
0.0302625
0.0289369
0.0267568
0.024172
0.0214598
0.0188148
0.01633
0.014061
0.0120196
0.0102074
0.0303911
0.0290623
0.0268733
0.0242791
0.0215562
0.0189013
0.0164064
0.0141284
0.0120783
0.0102581
0.030641
0.0293053
0.0271001
0.0244874
0.0217443
0.0190699
0.0165556
0.0142597
0.0121927
0.010358
0.0310055
0.0296599
0.0274316
0.0247922
0.0220196
0.0193165
0.0167738
0.0144517
0.0123604
0.0105047
0.0314786
0.0301204
0.0278627
0.0251887
0.022378
0.0196375
0.0170579
0.0147018
0.012579
0.010696
0.0320549
0.0306818
0.0283886
0.0256727
0.0228158
0.0200298
0.0174053
0.0150077
0.0128463
0.0109298
0.0327295
0.0313394
0.0290051
0.0262407
0.0233298
0.0204906
0.0178135
0.0153672
0.0131605
0.0112047
0.0334978
0.032089
0.0297085
0.0268894
0.0239173
0.0210178
0.0182806
0.0157786
0.0135201
0.0115192
0.0343554
0.0329267
0.0304951
0.0276156
0.0245757
0.0216091
0.0188047
0.0162405
0.0139238
0.0118723
0.0352984
0.0338487
0.0313618
0.0284168
0.025303
0.0222627
0.0193845
0.0167516
0.0143705
0.0122629
0.036323
0.0348519
0.0323056
0.0292906
0.026097
0.0229773
0.0200187
0.0173108
0.0148593
0.0126903
0.0374255
0.035933
0.0333237
0.0302348
0.0269562
0.0237514
0.0207061
0.0179174
0.0153895
0.0131539
0.0386026
0.0370891
0.0344136
0.0312473
0.0278791
0.024584
0.0214461
0.0185706
0.0159606
0.0136532
0.039851
0.0383172
0.0355727
0.0323263
0.0288642
0.0254741
0.0222379
0.01927
0.0165721
0.014188
0.0411675
0.0396146
0.0367987
0.0334703
0.0299105
0.026421
0.0230809
0.0200154
0.017224
0.0147581
0.042549
0.0409786
0.0380894
0.0346776
0.031017
0.0274241
0.023975
0.0208064
0.0179161
0.0153635
0.0439924
0.0424066
0.0394426
0.0359468
0.0321828
0.028483
0.0249198
0.0216431
0.0186485
0.0160043
0.0454948
0.043896
0.0408563
0.0372767
0.0334072
0.0295973
0.0259153
0.0225257
0.0194214
0.0166807
0.0470532
0.0454442
0.0423282
0.0386661
0.0346895
0.0307669
0.0269616
0.0234544
0.0202351
0.0173933
0.0486646
0.0470486
0.0438564
0.0401138
0.0360291
0.0319916
0.0280588
0.0244295
0.0210902
0.0181423
0.0503261
0.0487066
0.0454389
0.0416188
0.0374256
0.0332714
0.0292072
0.0254517
0.0219872
0.0189286
0.0520349
0.0504155
0.0470738
0.0431801
0.0388786
0.0346064
0.0304073
0.0265216
0.0229269
0.0197528
0.053788
0.0521727
0.048759
0.0447968
0.0403877
0.0359967
0.0316596
0.0276399
0.0239101
0.0206158
0.0555825
0.0539754
0.0504926
0.046468
0.0419525
0.0374427
0.0329648
0.0288076
0.0249378
0.0215186
0.0574153
0.0558209
0.0522727
0.0481927
0.0435727
0.0389446
0.0343236
0.0300257
0.0260112
0.0224624
0.0592837
0.0577062
0.0540975
0.04997
0.0452479
0.0405028
0.0357368
0.0312955
0.0271315
0.0234483
0.0611847
0.0596285
0.055965
0.0517991
0.046978
0.0421179
0.0372055
0.032618
0.0283
0.0244779
0.0631151
0.0615847
0.0578733
0.0536789
0.0487625
0.0437903
0.0387307
0.0339949
0.0295182
0.0255525
0.0650722
0.063572
0.0598206
0.0556085
0.0506012
0.0455207
0.0403136
0.0354275
0.0307878
0.0266738
0.0670527
0.0655872
0.061805
0.0575867
0.0524936
0.0473096
0.0419554
0.0369174
0.0321104
0.0278437
0.0690538
0.0676272
0.0638247
0.0596124
0.0544396
0.0491579
0.0436574
0.0384665
0.0334881
0.0290639
0.0710723
0.069689
0.0658778
0.0616842
0.0564386
0.0510662
0.0454211
0.0400764
0.0349227
0.0303366
0.0731053
0.0717695
0.0679624
0.0638008
0.0584903
0.0530353
0.0472477
0.0417492
0.0364163
0.0316639
0.0751497
0.0738654
0.0700765
0.0659606
0.0605944
0.055066
0.0491389
0.0434868
0.0379714
0.0330483
0.0772023
0.0759737
0.0722183
0.0681621
0.0627504
0.0571591
0.0510961
0.0452913
0.0395903
0.0344921
0.0792603
0.0780913
0.0743857
0.0704033
0.0649578
0.0593153
0.0531209
0.047165
0.0412754
0.0359981
0.0813205
0.0802151
0.0765767
0.0726824
0.0672162
0.0615353
0.0552147
0.0491101
0.0430297
0.0375691
0.08338
0.0823422
0.0787891
0.0749972
0.0695251
0.0638197
0.0573792
0.051129
0.0448557
0.039208
0.0854358
0.0844694
0.0810209
0.0773458
0.0718838
0.0661691
0.0596158
0.0532243
0.0467566
0.040918
0.087485
0.086594
0.0832696
0.0797256
0.0742918
0.0685838
0.061926
0.0553983
0.0487355
0.0427023
0.0895246
0.0887131
0.0855331
0.0821342
0.0767484
0.071064
0.0643115
0.0576538
0.0507954
0.0445644
0.091552
0.0908239
0.0878088
0.0845692
0.0792527
0.0736099
0.0667736
0.0599933
0.0529399
0.0465079
0.0935644
0.0929237
0.0900942
0.0870279
0.0818039
0.0762214
0.0693138
0.0624197
0.0551723
0.0485366
0.095559
0.0950099
0.0923867
0.0895076
0.0844008
0.0788981
0.0719333
0.0649356
0.0574961
0.0506544
0.0975334
0.0970801
0.0946837
0.0920053
0.0870423
0.0816396
0.0746337
0.0675439
0.0599151
0.0528652
0.099485
0.0991318
0.0969823
0.0945184
0.089727
0.0844449
0.077416
0.0702471
0.0624329
0.0551735
0.101411
0.101163
0.0992797
0.0970437
0.0924533
0.0873132
0.0802814
0.0730482
0.0650532
0.0575834
0.103311
0.10317
0.101573
0.0995784
0.0952195
0.090243
0.083231
0.0759497
0.06778
0.0600997
0.10518
0.105153
0.103859
0.102119
0.0980235
0.0932329
0.0862656
0.0789541
0.0706169
0.0627269
0.107018
0.107109
0.106136
0.104664
0.100863
0.096281
0.0893862
0.082064
0.0735677
0.0654699
0.108823
0.109035
0.108399
0.107208
0.103736
0.0993852
0.0925933
0.0852816
0.0766364
0.0683337
0.110593
0.110931
0.110646
0.109749
0.106639
0.102543
0.0958873
0.088609
0.0798266
0.0713236
0.112326
0.112793
0.112874
0.112285
0.109569
0.105752
0.0992685
0.0920481
0.0831422
0.074445
0.114021
0.114622
0.11508
0.114811
0.112523
0.109008
0.102737
0.0956003
0.0865868
0.0777034
0.115676
0.116415
0.117261
0.117325
0.115497
0.11231
0.106292
0.0992669
0.0901641
0.0811047
0.117291
0.118171
0.119415
0.119824
0.118488
0.115652
0.109934
0.103049
0.093878
0.0846548
0.118864
0.119888
0.121538
0.122304
0.121491
0.119032
0.113662
0.106946
0.0977323
0.0883601
0.120395
0.121566
0.123627
0.124763
0.124501
0.122445
0.117473
0.110958
0.101731
0.092227
0.121883
0.123203
0.125681
0.127198
0.127515
0.125887
0.121367
0.115085
0.105879
0.0962618
0.123327
0.124799
0.127697
0.129605
0.130527
0.129353
0.125342
0.119325
0.11018
0.100471
0.124727
0.126352
0.129672
0.131982
0.133532
0.13284
0.129394
0.123676
0.114641
0.104862
0.126082
0.127861
0.131605
0.134326
0.136524
0.136341
0.13352
0.128136
0.119268
0.109439
0.127393
0.129327
0.133493
0.136634
0.139499
0.139853
0.137715
0.132702
0.124069
0.114207
0.128659
0.130749
0.135335
0.138904
0.14245
0.14337
0.141974
0.13737
0.129056
0.119169
0.12988
0.132125
0.137128
0.141133
0.145372
0.146887
0.146291
0.142139
0.134243
0.124338
0.131057
0.133457
0.138873
0.143318
0.148261
0.150399
0.15066
0.147006
0.139645
0.129727
0.13219
0.134743
0.140568
0.14546
0.151113
0.153906
0.155075
0.151968
0.145265
0.135297
0.133278
0.135984
0.142213
0.147556
0.15392
0.157395
0.159509
0.157004
0.151088
0.14087
0.134322
0.137175
0.143795
0.149582
0.156647
0.160816
0.163901
0.162067
0.157182
0.146326
0.135326
0.138306
0.145298
0.151502
0.159262
0.164137
0.16828
0.167264
0.164004
0.152672
0.00900436
0.00831083
0.00760921
0.00690237
0.00619113
0.00547545
0.00475537
0.00403122
0.00330351
0.00257278
0.00183951
0.00110414
0.0003671
-0.000371179
-0.00111027
-0.00184973
-0.00258913
-0.00332799
-0.00406583
-0.00480226
0.00905083
0.00835635
0.00765343
0.00694578
0.00623402
0.00551772
0.00479667
0.00407114
0.00334167
0.00260878
0.00187298
0.00113471
0.000394416
-0.000347461
-0.00109047
-0.00183415
-0.00257807
-0.00332185
-0.00406514
-0.00480761
0.00914331
0.00844515
0.00773701
0.00702425
0.0063077
0.00558655
0.00486031
0.00412921
0.00339382
0.00265475
0.00191255
0.00116767
0.000420571
-0.000328285
-0.00107843
-0.00182938
-0.00258065
-0.00333174
-0.00408212
-0.00483127
0.00927815
0.00857293
0.00785567
0.00713411
0.00640947
0.00568047
0.0049462
0.00420674
0.00346274
0.0027149
0.00196378
0.00120986
0.000453605
-0.000304519
-0.00106402
-0.00182439
-0.00258514
-0.00334576
-0.0041058
-0.00486486
0.00945333
0.00873791
0.00800796
0.00727434
0.00653869
0.00579907
0.00505401
0.00430343
0.00354805
0.00278868
0.00202593
0.0012603
0.000492222
-0.000277811
-0.0010493
-0.00182173
-0.00259458
-0.00336734
-0.0041395
-0.00491062
0.00966721
0.00893859
0.00819253
0.00744365
0.00669412
0.00594115
0.00518259
0.00441818
0.00364875
0.00287522
0.00209826
0.00131837
0.000535994
-0.00024839
-0.00103427
-0.0018211
-0.00260836
-0.00339551
-0.00418204
-0.00496752
0.0099183
0.00917359
0.00840808
0.00764088
0.00687471
0.00610579
0.00533115
0.00455033
0.00376429
0.00297408
0.00218045
0.00138388
0.000584815
-0.000216278
-0.00101887
-0.00182241
-0.00262636
-0.00343017
-0.00423331
-0.00503538
0.0102053
0.00944172
0.00865355
0.00786507
0.00707964
0.00629226
0.00549904
0.00469931
0.00389416
0.00308484
0.00227213
0.00145652
0.00063843
-0.000181677
-0.00100326
-0.00182577
-0.00264863
-0.0034713
-0.00429325
-0.00511408
0.0105273
0.00974199
0.00892802
0.00811542
0.00730816
0.00649991
0.00568568
0.00486459
0.00403792
0.00320709
0.00237296
0.001536
0.000696599
-0.000144777
-0.000987585
-0.00183126
-0.00267522
-0.00351892
-0.00436181
-0.00520355
0.0108833
0.0100736
0.00923074
0.00839123
0.00755969
0.00672818
0.00589058
0.00504573
0.00419515
0.00334047
0.00248262
0.00162204
0.000759095
-0.000105767
-0.000971993
-0.001839
-0.00270622
-0.00357309
-0.00443904
-0.00530378
0.0112726
0.0104358
0.00956107
0.00869194
0.00783371
0.00697664
0.00611331
0.00524235
0.00436551
0.00348468
0.00260084
0.00171441
0.000825696
-6.48428e-05
-0.000956657
-0.00184916
-0.00274176
-0.0036339
-0.00452502
-0.00541486
0.0116947
0.0108281
0.00991851
0.00901709
0.00812981
0.00724491
0.00635354
0.00545412
0.00454871
0.00363944
0.00272737
0.00181286
0.000896192
-2.21993e-05
-0.000941755
-0.00186188
-0.00278198
-0.00370149
-0.00461987
-0.00553688
0.0121491
0.0112502
0.0103027
0.00936634
0.00844768
0.00753269
0.00661099
0.00568078
0.00474449
0.00380452
0.00286198
0.00191719
0.000970379
2.1971e-05
-0.000927473
-0.00187735
-0.00282706
-0.00377604
-0.00472374
-0.00567001
0.0126357
0.0117017
0.0107133
0.00973943
0.0087871
0.00783979
0.00688546
0.00592214
0.00495265
0.00397971
0.00300447
0.0020272
0.00104807
6.7479e-05
-0.000913999
-0.00189575
-0.00287718
-0.00385773
-0.00483684
-0.00581443
0.0131543
0.0121825
0.0111503
0.0101362
0.00914792
0.00816605
0.0071768
0.00617803
0.00517304
0.00416486
0.00315469
0.00214273
0.00112909
0.000114141
-0.000901524
-0.00191729
-0.00293256
-0.00394677
-0.00495937
-0.00597038
0.0137048
0.0126926
0.0116134
0.0105566
0.00953008
0.00851142
0.00748493
0.00644836
0.00540554
0.00435983
0.0033125
0.00226363
0.00121326
0.000161777
-0.000890241
-0.00194217
-0.00299341
-0.0040434
-0.0050916
-0.00613812
0.0142875
0.0132321
0.0121029
0.0110007
0.0099336
0.0088759
0.00780983
0.00673308
0.00565007
0.00456455
0.00347778
0.00238975
0.00130045
0.000210216
-0.000880342
-0.0019706
-0.00305996
-0.00414786
-0.00523378
-0.00631794
0.0149026
0.0138011
0.0126188
0.0114685
0.0103586
0.00925957
0.00815155
0.0070322
0.00590662
0.00477895
0.00365045
0.002521
0.0013905
0.000259291
-0.000872022
-0.0020028
-0.00313246
-0.00426044
-0.00538622
-0.00651015
0.0155505
0.0144001
0.0131614
0.0119603
0.0108052
0.00966256
0.00851017
0.00734576
0.0061752
0.005003
0.00383046
0.00265728
0.0014833
0.000308842
-0.000865472
-0.002039
-0.00321117
-0.00438141
-0.00554922
-0.00671511
0.0162316
0.0150294
0.013731
0.0124763
0.0112737
0.0100851
0.00888586
0.00767388
0.00645585
0.00523674
0.00401777
0.00279852
0.00157873
0.000358716
-0.000860887
-0.00207943
-0.00329635
-0.00451109
-0.00572312
-0.00693318
0.0169466
0.0156896
0.0143281
0.013017
0.0117645
0.0105274
0.00927883
0.0080167
0.00674869
0.00548019
0.00421238
0.00294467
0.00167669
0.000408764
-0.000858458
-0.00212433
-0.00338828
-0.00464978
-0.00590829
-0.00716475
0.0176963
0.0163813
0.0149532
0.0135828
0.0122779
0.01099
0.00968935
0.00837443
0.00705384
0.00573344
0.00441432
0.00309569
0.00177709
0.000458844
-0.000858382
-0.00217394
-0.00348726
-0.00479783
-0.0061051
-0.00741026
0.0184814
0.0171054
0.015607
0.0141743
0.0128144
0.011473
0.0101177
0.00874731
0.00737149
0.00599661
0.00462364
0.00325157
0.00187986
0.000508817
-0.000860853
-0.00222851
-0.0035936
-0.0049556
-0.00631394