/*--------------------------------*- C++ -*----------------------------------*\
  =========                 |
  \\      /  F ield         | OpenFOAM: The Open Source CFD Toolbox
   \\    /   O peration     | Website:  https://openfoam.org
    \\  /    A nd           | Version:  7
     \\/     M anipulation  |
\*---------------------------------------------------------------------------*/
FoamFile
{
    version     2.0;
    format      ascii;
    class       volScalarField;
    location    "14";
    object      p;
}
// * * * * * * * * * * * * * * * * * * * * * * * * * * * * * * * * * * * * * //

dimensions      [0 2 -2 0 0 0 0];

internalField   nonuniform List<scalar> 
433
(
-0.337027
-0.32729
-0.331219
0.00674113
0.00605605
0.00537572
0.00470032
0.00403001
0.00336494
0.00270529
0.0020512
0.00140286
0.000760392
0.000123519
0.00648472
0.00579048
0.00510164
0.0044184
0.00374097
0.00306953
0.00240424
0.00174528
0.00109294
0.00044743
-0.000192723
0.00603096
0.00532089
0.00461658
0.00391826
0.00322615
0.00254045
0.00186135
0.00118905
0.000524042
-0.000133223
-0.000786738
0.00537445
0.00464113
0.00391398
0.00319327
0.00247922
0.00177206
0.00107198
0.000379205
-0.000305502
-0.00098134
-0.00165591
0.00452364
0.00376034
0.00300356
0.00225358
0.00151067
0.000775044
4.68945e-05
-0.000673537
-0.00138512
-0.00208658
-0.00279015
0.00347714
0.00267686
0.00188344
0.00109717
0.000318329
-0.000452832
-0.00121615
-0.00197136
-0.0027169
-0.0034509
-0.00419103
0.00223123
0.00138698
0.000549892
-0.000279735
-0.0011016
-0.00191544
-0.00272111
-0.00351834
-0.00430508
-0.00507868
-0.00586298
0.000779591
-0.000115939
-0.00100404
-0.0018844
-0.0027567
-0.00362066
-0.00447617
-0.00532297
-0.00615845
-0.00697902
-0.00781519
-0.000887433
-0.00184186
-0.00278862
-0.0037274
-0.00465786
-0.00557973
-0.00649292
-0.00739718
-0.00828935
-0.00916468
-0.0100606
-0.00278118
-0.00380258
-0.00481614
-0.00582151
-0.00681836
-0.00780642
-0.00878563
-0.00975578
-0.0107131
-0.0116516
-0.0126155
-0.00491572
-0.00601271
-0.00710172
-0.0081824
-0.00925443
-0.0103175
-0.0113717
-0.0124167
-0.0134484
-0.0144589
-0.0154996
-0.00730692
-0.00848877
-0.00966254
-0.0108279
-0.0119846
-0.0131322
-0.0142709
-0.0154006
-0.0165165
-0.0176089
-0.0187355
-0.00997338
-0.01125
-0.0125186
-0.0137787
-0.0150302
-0.0162727
-0.0175063
-0.0187311
-0.0199419
-0.0211268
-0.0223491
-0.0129354
-0.0143176
-0.0156918
-0.0170577
-0.0184149
-0.0197633
-0.0211031
-0.0224345
-0.0237517
-0.0250408
-0.0263692
-0.0162161
-0.0177155
-0.019207
-0.0206903
-0.0221653
-0.0236317
-0.0250897
-0.0265399
-0.0279762
-0.0293821
-0.0308279
-0.0198407
-0.0214699
-0.0230914
-0.024705
-0.0263105
-0.0279079
-0.0294973
-0.0310796
-0.0326486
-0.0341851
-0.0357603
-0.0238373
-0.0256098
-0.027375
-0.0291327
-0.0308827
-0.0326251
-0.0343601
-0.0360889
-0.0378053
-0.0394872
-0.0412048
-0.0282365
-0.0301671
-0.0320908
-0.0340075
-0.0359171
-0.0378196
-0.0397156
-0.0416063
-0.0434861
-0.0453295
-0.0472034
-0.0330718
-0.0351766
-0.0372749
-0.0393666
-0.041452
-0.0435311
-0.0456045
-0.0476739
-0.0497341
-0.0517566
-0.053802
-0.0383804
-0.0406765
-0.0429665
-0.0452508
-0.0475295
-0.0498029
-0.0520715
-0.0543377
-0.0565968
-0.0588176
-0.061051
-0.0442017
-0.0467076
-0.0492082
-0.0517038
-0.0541948
-0.0566816
-0.059165
-0.0616475
-0.0641259
-0.0665664
-0.0690064
-0.0505789
-0.0533148
-0.0560461
-0.0587733
-0.0614972
-0.0642182
-0.0669375
-0.069658
-0.0723782
-0.0750631
-0.0777316
-0.0575579
-0.0605452
-0.0635288
-0.0665097
-0.0694888
-0.072467
-0.0754457
-0.0784283
-0.0814158
-0.0843746
-0.0872988
-0.0651876
-0.0684492
-0.0717083
-0.0749664
-0.078225
-0.0814855
-0.0847499
-0.088022
-0.0913063
-0.0945756
-0.0977908
-0.0735183
-0.0770782
-0.0806373
-0.084198
-0.0877624
-0.091333
-0.0949125
-0.0985055
-0.102121
-0.105748
-0.109302
-0.0826017
-0.0864845
-0.0903692
-0.0942589
-0.0981572
-0.102068
-0.105996
-0.109946
-0.113934
-0.117978
-0.121935
-0.092489
-0.0967191
-0.100955
-0.1052
-0.109462
-0.113746
-0.118058
-0.122405
-0.126813
-0.131348
-0.135793
-0.10323
-0.10783
-0.11244
-0.117068
-0.121721
-0.126411
-0.131145
-0.135931
-0.140809
-0.145925
-0.150961
-0.11487
-0.119859
-0.124864
-0.129896
-0.134967
-0.140091
-0.145284
-0.15055
-0.155946
-0.161738
-0.167485
-0.127453
-0.132842
-0.138254
-0.143705
-0.14921
-0.154792
-0.160469
-0.166245
-0.172198
-0.178757
-0.185329
-0.141012
-0.146802
-0.152622
-0.158492
-0.164435
-0.170478
-0.176648
-0.182946
-0.189468
-0.196865
-0.204349
-0.155576
-0.161749
-0.167957
-0.174226
-0.180585
-0.187069
-0.193712
-0.200506
-0.207572
-0.215836
-0.22426
-0.171154
-0.177667
-0.184216
-0.190833
-0.197553
-0.20442
-0.211473
-0.218693
-0.226228
-0.235336
-0.24465
-0.187738
-0.194514
-0.201319
-0.208189
-0.215169
-0.22231
-0.229659
-0.237179
-0.245053
-0.254927
-0.265
-0.205284
-0.212204
-0.219134
-0.22612
-0.23321
-0.240469
-0.247948
-0.255591
-0.263624
-0.274136
-0.284761
-0.223603
-0.230478
-0.237336
-0.244233
-0.251231
-0.258406
-0.26582
-0.273399
-0.281422
-0.292461
-0.303438
-0.242641
-0.249212
-0.255718
-0.262227
-0.268819
-0.275592
-0.282631
-0.289854
-0.297624
-0.30908
-0.320396
-0.262753
-0.26886
-0.274848
-0.280798
-0.286796
-0.292953
-0.299366
-0.305922
-0.313039
-0.324458
-0.275551
-0.280891
-0.286026
-0.291066
-0.296125
-0.301327
-0.306819
-0.312741
-0.290927
-0.29401
-0.296764
-0.299344
-0.301915
)
;

boundaryField
{
    inlet
    {
        type            zeroGradient;
    }
    outlet
    {
        type            fixedValue;
        value           nonuniform 0();
    }
    cylinder
    {
        type            zeroGradient;
    }
    top
    {
        type            symmetryPlane;
    }
    bottom
    {
        type            symmetryPlane;
    }
    defaultFaces
    {
        type            empty;
    }
    procBoundary3to2
    {
        type            processor;
        value           nonuniform List<scalar> 
33
(
0.00743081
0.00718415
0.00674656
0.00611367
0.00529317
0.00428396
0.0030823
0.00168221
7.43044e-05
-0.00175228
-0.00381109
-0.00611736
-0.00868899
-0.0115455
-0.0147091
-0.0182041
-0.0220575
-0.0262988
-0.0309605
-0.0360781
-0.0416899
-0.0478378
-0.0545661
-0.0619223
-0.0699559
-0.078718
-0.0882602
-0.0986338
-0.109889
-0.122075
-0.135237
-0.149417
-0.16465
)
;
    }
    procBoundary3to4
    {
        type            processor;
        value           nonuniform List<scalar> 
24
(
-0.000945548
-0.00128221
-0.00192317
-0.00286101
-0.0040863
-0.00559985
-0.00740621
-0.0095147
-0.0119386
-0.0146945
-0.0178026
-0.0212863
-0.0251719
-0.0294892
-0.0342708
-0.0395528
-0.0453744
-0.0517785
-0.058811
-0.0665213
-0.0749615
-0.0841844
-0.0942413
-0.105175
)
;
    }
    procBoundary3to8
    {
        type            processor;
        value           nonuniform List<scalar> 
11
(
-0.333441
-0.322906
-0.322906
-0.180958
-0.198335
-0.216661
-0.235941
-0.256456
-0.256456
-0.269904
-0.287369
)
;
    }
    procBoundary3to9
    {
        type            processor;
        value           nonuniform List<scalar> 
16
(
-0.344643
-0.340032
-0.340032
-0.334773
-0.334773
-0.338024
-0.335838
-0.318997
-0.326105
-0.335838
-0.338598
-0.304647
-0.307739
-0.318997
-0.31143
-0.304647
)
;
    }
    procBoundary3to10
    {
        type            processor;
        value           nonuniform List<scalar> 
13
(
-0.11701
-0.12974
-0.143303
-0.157566
-0.172301
-0.187179
-0.201779
-0.215617
-0.228217
-0.239188
-0.248313
-0.255628
-0.261469
)
;
    }
}


// ************************************************************************* //
