/*--------------------------------*- C++ -*----------------------------------*\
  =========                 |
  \\      /  F ield         | OpenFOAM: The Open Source CFD Toolbox
   \\    /   O peration     | Website:  https://openfoam.org
    \\  /    A nd           | Version:  7
     \\/     M anipulation  |
\*---------------------------------------------------------------------------*/
FoamFile
{
    version     2.0;
    format      ascii;
    class       volVectorField;
    location    "9.999332";
    object      U;
}
// * * * * * * * * * * * * * * * * * * * * * * * * * * * * * * * * * * * * * //

dimensions      [0 1 -1 0 0 0 0];

internalField   nonuniform List<vector> 
5800
(
(0.0814011 0.0297809 -7.67626e-21)
(0.0561951 0.0236171 -3.18059e-21)
(0.0371615 0.0171072 2.00794e-20)
(0.0244124 0.0103577 -7.781e-21)
(0.0180201 0.00346792 9.20425e-22)
(1.04846 -0.00060389 0)
(1.04891 -0.000584357 0)
(1.04936 -0.000564145 0)
(1.0498 -0.000543246 0)
(1.05023 -0.000521655 0)
(1.05065 -0.000499369 0)
(1.05106 -0.000476386 0)
(1.05146 -0.000452709 0)
(1.05185 -0.00042834 0)
(1.05222 -0.000403285 0)
(1.05258 -0.000377553 0)
(1.05292 -0.000351152 0)
(1.05324 -0.000324098 0)
(1.05354 -0.000296404 0)
(1.05382 -0.000268091 0)
(1.05408 -0.000239181 0)
(1.05431 -0.0002097 0)
(1.05451 -0.00017968 0)
(1.05469 -0.000149158 0)
(1.05483 -0.000118177 0)
(1.05495 -8.6786e-05 0)
(1.05503 -5.50432e-05 0)
(1.05507 -2.30158e-05 0)
(1.05508 9.21868e-06 0)
(1.05505 4.1571e-05 0)
(1.05498 7.39387e-05 0)
(1.05486 0.000106205 0)
(1.05471 0.000138237 0)
(1.0545 0.000169886 0)
(1.05425 0.000200985 0)
(1.05396 0.000231352 0)
(1.05361 0.000260785 0)
(1.05322 0.00028907 0)
(1.05278 0.000315982 0)
(1.0523 0.000341287 0)
(1.05176 0.000364751 0)
(1.05118 0.000386148 0)
(1.05056 0.000405266 0)
(1.04989 0.000421924 0)
(1.04919 0.000435983 0)
(1.04845 0.000447356 0)
(1.04768 0.000456027 0)
(1.04688 0.000462062 0)
(1.04606 0.000465617 0)
(1.04521 0.000466951 0)
(1.04435 0.000466418 0)
(1.04347 0.000464471 0)
(1.04258 0.000461643 0)
(1.04168 0.000458526 0)
(1.04076 0.000455744 0)
(1.03983 0.000453915 0)
(1.03889 0.000453613 0)
(1.03792 0.000455319 0)
(1.03693 0.0004594 0)
(1.03591 0.000466044 0)
(1.03485 0.000475317 0)
(1.03375 0.000486967 0)
(1.03258 0.000500915 0)
(1.03138 0.000516074 0)
(1.03006 0.000533311 0)
(1.02879 0.000548536 0)
(1.02718 0.000568593 0)
(1.02613 0.000576407 0)
(1.02345 0.000603289 0)
(1.04869 -0.00180205 0)
(1.04915 -0.00174366 0)
(1.0496 -0.00168324 0)
(1.05004 -0.00162075 0)
(1.05047 -0.0015562 0)
(1.05089 -0.00148957 0)
(1.05131 -0.00142087 0)
(1.05171 -0.0013501 0)
(1.05209 -0.00127728 0)
(1.05247 -0.00120241 0)
(1.05282 -0.00112553 0)
(1.05316 -0.00104667 0)
(1.05348 -0.000965854 0)
(1.05378 -0.000883142 0)
(1.05406 -0.000798587 0)
(1.05432 -0.000712257 0)
(1.05455 -0.000624231 0)
(1.05475 -0.000534602 0)
(1.05493 -0.000443481 0)
(1.05507 -0.000350995 0)
(1.05519 -0.000257293 0)
(1.05526 -0.000162547 0)
(1.05531 -6.69578e-05 0)
(1.05531 2.92442e-05 0)
(1.05528 0.000125793 0)
(1.05521 0.000222382 0)
(1.05509 0.000318665 0)
(1.05493 0.000414245 0)
(1.05472 0.000508679 0)
(1.05447 0.000601471 0)
(1.05417 0.000692074 0)
(1.05382 0.000779892 0)
(1.05343 0.000864286 0)
(1.05298 0.000944583 0)
(1.05249 0.00102009 0)
(1.05195 0.0010901 0)
(1.05137 0.00115395 0)
(1.05074 0.001211 0)
(1.05007 0.00126071 0)
(1.04936 0.00130267 0)
(1.04862 0.00133662 0)
(1.04784 0.0013625 0)
(1.04704 0.00138051 0)
(1.0462 0.00139113 0)
(1.04535 0.0013951 0)
(1.04448 0.0013935 0)
(1.0436 0.00138767 0)
(1.0427 0.00137919 0)
(1.04179 0.00136984 0)
(1.04087 0.00136148 0)
(1.03994 0.00135594 0)
(1.03899 0.00135494 0)
(1.03801 0.00135993 0)
(1.03702 0.00137199 0)
(1.03599 0.0013917 0)
(1.03492 0.00141922 0)
(1.03381 0.00145389 0)
(1.03264 0.00149526 0)
(1.03143 0.00154064 0)
(1.03011 0.00159128 0)
(1.02883 0.00163824 0)
(1.02721 0.00169472 0)
(1.02616 0.00172621 0)
(1.02347 0.00179586 0)
(1.04915 -0.00298235 0)
(1.04961 -0.00288537 0)
(1.05006 -0.00278501 0)
(1.0505 -0.00268126 0)
(1.05094 -0.00257408 0)
(1.05136 -0.00246349 0)
(1.05178 -0.00234947 0)
(1.05218 -0.00223205 0)
(1.05257 -0.00211122 0)
(1.05294 -0.00198703 0)
(1.0533 -0.00185952 0)
(1.05364 -0.00172873 0)
(1.05396 -0.00159474 0)
(1.05426 -0.00145761 0)
(1.05454 -0.00131744 0)
(1.05479 -0.00117436 0)
(1.05502 -0.00102848 0)
(1.05522 -0.000879962 0)
(1.0554 -0.000728993 0)
(1.05554 -0.000575783 0)
(1.05565 -0.000420578 0)
(1.05573 -0.000263662 0)
(1.05577 -0.000105367 0)
(1.05577 5.39243e-05 0)
(1.05573 0.000213774 0)
(1.05565 0.000373676 0)
(1.05553 0.000533057 0)
(1.05536 0.000691265 0)
(1.05515 0.000847565 0)
(1.05489 0.00100114 0)
(1.05459 0.00115109 0)
(1.05423 0.00129643 0)
(1.05383 0.0014361 0)
(1.05338 0.00156899 0)
(1.05288 0.00169396 0)
(1.05233 0.00180984 0)
(1.05174 0.00191553 0)
(1.0511 0.00200998 0)
(1.05042 0.00209229 0)
(1.0497 0.00216178 0)
(1.04894 0.002218 0)
(1.04815 0.00226087 0)
(1.04734 0.00229072 0)
(1.04649 0.0023083 0)
(1.04563 0.00231487 0)
(1.04475 0.00231218 0)
(1.04385 0.00230245 0)
(1.04294 0.00228831 0)
(1.04202 0.00227268 0)
(1.04109 0.00225863 0)
(1.04014 0.00224922 0)
(1.03917 0.00224727 0)
(1.03819 0.00225519 0)
(1.03718 0.00227478 0)
(1.03614 0.00230701 0)
(1.03506 0.00235212 0)
(1.03394 0.00240914 0)
(1.03276 0.00247704 0)
(1.03153 0.0025521 0)
(1.0302 0.00263464 0)
(1.02891 0.00271417 0)
(1.02728 0.0028031 0)
(1.02622 0.00286503 0)
(1.02351 0.00296652 0)
(1.04982 -0.00414735 0)
(1.05029 -0.00401193 0)
(1.05074 -0.0038718 0)
(1.05119 -0.00372693 0)
(1.05162 -0.0035773 0)
(1.05205 -0.0034229 0)
(1.05247 -0.00326375 0)
(1.05287 -0.00309985 0)
(1.05326 -0.00293124 0)
(1.05364 -0.00275795 0)
(1.054 -0.00258006 0)
(1.05434 -0.00239762 0)
(1.05466 -0.00221073 0)
(1.05496 -0.00201952 0)
(1.05523 -0.0018241 0)
(1.05549 -0.00162464 0)
(1.05571 -0.00142132 0)
(1.05591 -0.00121437 0)
(1.05608 -0.00100404 0)
(1.05622 -0.000790618 0)
(1.05633 -0.000574456 0)
(1.0564 -0.000355949 0)
(1.05643 -0.000135558 0)
(1.05643 8.61871e-05 0)
(1.05639 0.000308676 0)
(1.0563 0.00053121 0)
(1.05617 0.000752992 0)
(1.056 0.000973118 0)
(1.05578 0.00119057 0)
(1.05551 0.00140422 0)
(1.05519 0.00161282 0)
(1.05483 0.00181499 0)
(1.05441 0.00200929 0)
(1.05395 0.00219416 0)
(1.05344 0.00236801 0)
(1.05288 0.00252925 0)
(1.05227 0.00267632 0)
(1.05162 0.00280777 0)
(1.05092 0.00292235 0)
(1.05019 0.00301909 0)
(1.04942 0.00309738 0)
(1.04861 0.00315711 0)
(1.04778 0.00319868 0)
(1.04692 0.00322317 0)
(1.04604 0.0032323 0)
(1.04514 0.00322849 0)
(1.04422 0.00321481 0)
(1.04329 0.00319491 0)
(1.04235 0.00317285 0)
(1.0414 0.0031529 0)
(1.04043 0.0031393 0)
(1.03945 0.003136 0)
(1.03845 0.00314635 0)
(1.03742 0.00317286 0)
(1.03636 0.00321692 0)
(1.03526 0.00327884 0)
(1.03412 0.00335735 0)
(1.03292 0.00345086 0)
(1.03168 0.00355466 0)
(1.03033 0.00366814 0)
(1.02903 0.00377922 0)
(1.02737 0.0038999 0)
(1.02632 0.00398994 0)
(1.02357 0.00412359 0)
(1.0507 -0.00530043 0)
(1.05117 -0.00512639 0)
(1.05163 -0.00494632 0)
(1.05208 -0.00476019 0)
(1.05252 -0.00456796 0)
(1.05295 -0.00436965 0)
(1.05337 -0.00416525 0)
(1.05377 -0.0039548 0)
(1.05417 -0.00373833 0)
(1.05454 -0.00351591 0)
(1.0549 -0.0032876 0)
(1.05524 -0.00305352 0)
(1.05556 -0.00281379 0)
(1.05586 -0.00256854 0)
(1.05614 -0.00231796 0)
(1.05639 -0.00206226 0)
(1.05662 -0.00180168 0)
(1.05681 -0.00153649 0)
(1.05698 -0.00126703 0)
(1.05711 -0.000993683 0)
(1.05721 -0.000716881 0)
(1.05728 -0.000437137 0)
(1.0573 -0.000155038 0)
(1.05729 0.000128737 0)
(1.05724 0.000413411 0)
(1.05715 0.000698094 0)
(1.05701 0.000981771 0)
(1.05682 0.00126329 0)
(1.05659 0.00154137 0)
(1.05631 0.00181455 0)
(1.05598 0.00208125 0)
(1.0556 0.00233975 0)
(1.05517 0.00258816 0)
(1.0547 0.00282454 0)
(1.05417 0.00304685 0)
(1.05359 0.00325305 0)
(1.05296 0.00344116 0)
(1.05229 0.00360933 0)
(1.05158 0.00375595 0)
(1.05082 0.00387977 0)
(1.05003 0.00398002 0)
(1.04921 0.00405652 0)
(1.04835 0.00410978 0)
(1.04747 0.00414115 0)
(1.04656 0.0041528 0)
(1.04564 0.00414781 0)
(1.0447 0.0041301 0)
(1.04375 0.00410429 0)
(1.04278 0.00407557 0)
(1.0418 0.00404938 0)
(1.04081 0.00403118 0)
(1.03981 0.004026 0)
(1.03878 0.00403814 0)
(1.03773 0.00407082 0)
(1.03665 0.00412586 0)
(1.03553 0.00420367 0)
(1.03436 0.00430269 0)
(1.03314 0.00442078 0)
(1.03188 0.00455223 0)
(1.03051 0.00469563 0)
(1.02919 0.004837 0)
(1.0275 0.00498864 0)
(1.02643 0.00510478 0)
(1.02365 0.00527071 0)
(1.05177 -0.00644431 0)
(1.05225 -0.00623126 0)
(1.05271 -0.00601087 0)
(1.05317 -0.00578309 0)
(1.05361 -0.0055479 0)
(1.05405 -0.00530531 0)
(1.05447 -0.00505533 0)
(1.05488 -0.00479799 0)
(1.05527 -0.00453336 0)
(1.05565 -0.00426151 0)
(1.05601 -0.00398254 0)
(1.05635 -0.00369658 0)
(1.05667 -0.00340379 0)
(1.05697 -0.00310434 0)
(1.05725 -0.00279847 0)
(1.05749 -0.00248643 0)
(1.05772 -0.00216851 0)
(1.05791 -0.00184507 0)
(1.05807 -0.00151651 0)
(1.0582 -0.00118329 0)
(1.05829 -0.000845958 0)
(1.05835 -0.000505129 0)
(1.05837 -0.000161518 0)
(1.05835 0.00018405 0)
(1.05828 0.000530634 0)
(1.05818 0.000877156 0)
(1.05803 0.00122239 0)
(1.05783 0.00156494 0)
(1.05758 0.00190325 0)
(1.05729 0.00223558 0)
(1.05694 0.00256 0)
(1.05655 0.00287442 0)
(1.0561 0.00317659 0)
(1.0556 0.00346413 0)
(1.05506 0.00373458 0)
(1.05446 0.00398547 0)
(1.05381 0.00421438 0)
(1.05312 0.00441908 0)
(1.05238 0.00459761 0)
(1.0516 0.00474844 0)
(1.05078 0.0048706 0)
(1.04993 0.00496385 0)
(1.04905 0.0050288 0)
(1.04814 0.00506703 0)
(1.0472 0.00508119 0)
(1.04625 0.00507497 0)
(1.04528 0.00505309 0)
(1.0443 0.00502117 0)
(1.0433 0.00498549 0)
(1.0423 0.00495267 0)
(1.04128 0.00492933 0)
(1.04024 0.00492162 0)
(1.03918 0.00493479 0)
(1.0381 0.00497279 0)
(1.03699 0.00503785 0)
(1.03585 0.00513051 0)
(1.03466 0.00524892 0)
(1.0334 0.00539046 0)
(1.03212 0.00554838 0)
(1.03072 0.00572053 0)
(1.02938 0.00589093 0)
(1.02766 0.00607247 0)
(1.02657 0.00621334 0)
(1.02375 0.00641062 0)
(1.05303 -0.00758154 0)
(1.05351 -0.00732887 0)
(1.05398 -0.00706754 0)
(1.05445 -0.00679751 0)
(1.0549 -0.00651877 0)
(1.05534 -0.00623131 0)
(1.05576 -0.00593517 0)
(1.05618 -0.0056304 0)
(1.05657 -0.00531707 0)
(1.05695 -0.00499528 0)
(1.05732 -0.00466515 0)
(1.05766 -0.00432686 0)
(1.05798 -0.00398058 0)
(1.05827 -0.00362655 0)
(1.05855 -0.00326502 0)
(1.05879 -0.00289632 0)
(1.05901 -0.00252081 0)
(1.0592 -0.00213889 0)
(1.05935 -0.00175105 0)
(1.05947 -0.00135784 0)
(1.05956 -0.000959902 0)
(1.05961 -0.000557964 0)
(1.05961 -0.000152866 0)
(1.05958 0.000254422 0)
(1.05951 0.000662798 0)
(1.05939 0.001071 0)
(1.05922 0.00147759 0)
(1.05901 0.00188095 0)
(1.05875 0.00227924 0)
(1.05843 0.00267045 0)
(1.05807 0.00305231 0)
(1.05766 0.00342238 0)
(1.05719 0.00377804 0)
(1.05667 0.00411649 0)
(1.0561 0.00443486 0)
(1.05548 0.00473025 0)
(1.0548 0.00499984 0)
(1.05408 0.00524097 0)
(1.05332 0.00545135 0)
(1.05251 0.00562916 0)
(1.05166 0.00577324 0)
(1.05078 0.00588328 0)
(1.04987 0.00595995 0)
(1.04892 0.00600509 0)
(1.04796 0.00602175 0)
(1.04697 0.00601422 0)
(1.04597 0.00598805 0)
(1.04495 0.00594978 0)
(1.04392 0.00590679 0)
(1.04288 0.00586686 0)
(1.04182 0.00583777 0)
(1.04075 0.0058268 0)
(1.03966 0.00584013 0)
(1.03854 0.00588246 0)
(1.0374 0.00595648 0)
(1.03622 0.00606284 0)
(1.035 0.00619945 0)
(1.03371 0.0063632 0)
(1.0324 0.0065463 0)
(1.03096 0.00674596 0)
(1.02959 0.00694405 0)
(1.02784 0.00715429 0)
(1.02674 0.00731862 0)
(1.02386 0.0075459 0)
(1.05448 -0.00871428 0)
(1.05497 -0.00842119 0)
(1.05544 -0.00811812 0)
(1.05591 -0.00780504 0)
(1.05637 -0.00748194 0)
(1.05682 -0.00714883 0)
(1.05725 -0.00680576 0)
(1.05766 -0.00645279 0)
(1.05806 -0.00609002 0)
(1.05845 -0.00571757 0)
(1.05881 -0.0053356 0)
(1.05915 -0.0049443 0)
(1.05947 -0.00454391 0)
(1.05976 -0.00413469 0)
(1.06003 -0.00371698 0)
(1.06027 -0.00329112 0)
(1.06049 -0.00285755 0)
(1.06067 -0.00241675 0)
(1.06082 -0.00196928 0)
(1.06093 -0.00151579 0)
(1.061 -0.00105701 0)
(1.06104 -0.000593788 0)
(1.06104 -0.00012708 0)
(1.06099 0.000341996 0)
(1.0609 0.00081218 0)
(1.06077 0.00128203 0)
(1.06059 0.0017499 0)
(1.06036 0.00221395 0)
(1.06007 0.00267209 0)
(1.05974 0.003122 0)
(1.05936 0.00356112 0)
(1.05892 0.00398666 0)
(1.05843 0.00439562 0)
(1.05788 0.00478482 0)
(1.05729 0.00515098 0)
(1.05664 0.00549076 0)
(1.05594 0.00580094 0)
(1.05519 0.00607848 0)
(1.05439 0.00632072 0)
(1.05355 0.00652555 0)
(1.05267 0.00669162 0)
(1.05175 0.00681853 0)
(1.0508 0.00690701 0)
(1.04982 0.0069591 0)
(1.04881 0.00697826 0)
(1.04779 0.00696938 0)
(1.04675 0.00693875 0)
(1.04569 0.00689388 0)
(1.04462 0.00684318 0)
(1.04354 0.00679561 0)
(1.04244 0.00676011 0)
(1.04133 0.00674505 0)
(1.0402 0.0067576 0)
(1.03905 0.0068032 0)
(1.03786 0.00688501 0)
(1.03664 0.00700384 0)
(1.03538 0.00715734 0)
(1.03406 0.00734197 0)
(1.03271 0.00754889 0)
(1.03124 0.0077747 0)
(1.02984 0.00799909 0)
(1.02804 0.00823673 0)
(1.02692 0.00842318 0)
(1.02399 0.00867891 0)
(1.0561 -0.00984443 0)
(1.0566 -0.00950992 0)
(1.05708 -0.00916413 0)
(1.05756 -0.00880701 0)
(1.05802 -0.00843856 0)
(1.05847 -0.00805883 0)
(1.05891 -0.00766786 0)
(1.05933 -0.00726574 0)
(1.05973 -0.00685259 0)
(1.06012 -0.00642857 0)
(1.06048 -0.00599387 0)
(1.06082 -0.00554873 0)
(1.06114 -0.00509342 0)
(1.06144 -0.00462826 0)
(1.0617 -0.00415362 0)
(1.06194 -0.00366993 0)
(1.06214 -0.00317769 0)
(1.06232 -0.00267745 0)
(1.06246 -0.00216986 0)
(1.06256 -0.00165564 0)
(1.06263 -0.00113565 0)
(1.06265 -0.000610821 0)
(1.06263 -8.22633e-05 0)
(1.06257 0.000448794 0)
(1.06247 0.00098092 0)
(1.06232 0.00151249 0)
(1.06212 0.00204167 0)
(1.06186 0.00256638 0)
(1.06156 0.0030843 0)
(1.06121 0.00359283 0)
(1.0608 0.0040891 0)
(1.06033 0.00456999 0)
(1.05982 0.00503214 0)
(1.05924 0.00547199 0)
(1.05862 0.00588585 0)
(1.05793 0.00626998 0)
(1.0572 0.00662074 0)
(1.05642 0.0069347 0)
(1.05559 0.00720885 0)
(1.05471 0.00744079 0)
(1.05379 0.00762896 0)
(1.05283 0.00777286 0)
(1.05184 0.00787326 0)
(1.05082 0.00793239 0)
(1.04977 0.00795409 0)
(1.04871 0.0079438 0)
(1.04762 0.00790857 0)
(1.04652 0.0078568 0)
(1.0454 0.00779799 0)
(1.04427 0.0077422 0)
(1.04313 0.00769956 0)
(1.04198 0.00767954 0)
(1.0408 0.00769029 0)
(1.03961 0.00773803 0)
(1.03838 0.00782638 0)
(1.03712 0.00795636 0)
(1.03582 0.00812538 0)
(1.03445 0.00832947 0)
(1.03306 0.00855875 0)
(1.03155 0.00880929 0)
(1.03011 0.00905849 0)
(1.02827 0.00932211 0)
(1.02712 0.00952932 0)
(1.02413 0.00981179 0)
(1.0579 -0.0109736 0)
(1.0584 -0.0105965 0)
(1.0589 -0.0102068 0)
(1.05938 -0.0098045 0)
(1.05985 -0.00938955 0)
(1.06031 -0.00896203 0)
(1.06075 -0.00852201 0)
(1.06118 -0.00806961 0)
(1.06158 -0.00760498 0)
(1.06197 -0.00712832 0)
(1.06234 -0.00663984 0)
(1.06268 -0.00613984 0)
(1.06299 -0.00562863 0)
(1.06328 -0.00510659 0)
(1.06354 -0.00457416 0)
(1.06378 -0.00403182 0)
(1.06398 -0.00348014 0)
(1.06414 -0.00291976 0)
(1.06427 -0.0023514 0)
(1.06436 -0.0017759 0)
(1.06442 -0.00119418 0)
(1.06443 -0.000607328 0)
(1.06439 -1.65543e-05 0)
(1.06432 0.000576766 0)
(1.06419 0.00117104 0)
(1.06402 0.00176449 0)
(1.0638 0.00235507 0)
(1.06353 0.00294049 0)
(1.0632 0.00351819 0)
(1.06282 0.00408531 0)
(1.06238 0.00463868 0)
(1.06189 0.00517486 0)
(1.06134 0.00569013 0)
(1.06074 0.00618057 0)
(1.06008 0.00664208 0)
(1.05936 0.00707055 0)
(1.0586 0.0074619 0)
(1.05777 0.00781234 0)
(1.0569 0.0081185 0)
(1.05599 0.00837768 0)
(1.05503 0.00858809 0)
(1.05403 0.00874914 0)
(1.05299 0.00886159 0)
(1.05192 0.00892788 0)
(1.05083 0.00895216 0)
(1.04971 0.00894043 0)
(1.04858 0.00890045 0)
(1.04743 0.00884152 0)
(1.04626 0.00877416 0)
(1.04509 0.00870957 0)
(1.04389 0.00865903 0)
(1.04269 0.00863313 0)
(1.04147 0.00864101 0)
(1.04022 0.00868968 0)
(1.03895 0.00878327 0)
(1.03764 0.008923 0)
(1.03629 0.00910606 0)
(1.03488 0.00932812 0)
(1.03345 0.00957824 0)
(1.03188 0.00985199 0)
(1.03041 0.0101244 0)
(1.02852 0.0104125 0)
(1.02734 0.010639 0)
(1.02428 0.0109464 0)
(1.05987 -0.0121031 0)
(1.06038 -0.0116821 0)
(1.06089 -0.0112472 0)
(1.06138 -0.0107984 0)
(1.06186 -0.0103356 0)
(1.06232 -0.00985896 0)
(1.06277 -0.00936859 0)
(1.0632 -0.00886462 0)
(1.06361 -0.00834724 0)
(1.064 -0.00781668 0)
(1.06436 -0.00727322 0)
(1.0647 -0.00671719 0)
(1.06502 -0.00614896 0)
(1.0653 -0.00556897 0)
(1.06556 -0.00497772 0)
(1.06578 -0.00437577 0)
(1.06598 -0.00376376 0)
(1.06613 -0.00314241 0)
(1.06625 -0.00251253 0)
(1.06633 -0.00187506 0)
(1.06637 -0.00123103 0)
(1.06636 -0.000581623 0)
(1.06631 7.18162e-05 0)
(1.06622 0.000727758 0)
(1.06607 0.00138448 0)
(1.06588 0.00204001 0)
(1.06564 0.00269215 0)
(1.06534 0.00333839 0)
(1.06498 0.00397592 0)
(1.06457 0.00460163 0)
(1.06411 0.00521208 0)
(1.06359 0.00580351 0)
(1.06301 0.00637186 0)
(1.06237 0.00691285 0)
(1.06167 0.007422 0)
(1.06092 0.0078948 0)
(1.06011 0.00832679 0)
(1.05925 0.00871379 0)
(1.05834 0.00905207 0)
(1.05738 0.00933863 0)
(1.05637 0.00957147 0)
(1.05533 0.00974984 0)
(1.05424 0.00987453 0)
(1.05313 0.0099481 0)
(1.05198 0.00997504 0)
(1.05081 0.00996186 0)
(1.04962 0.009917 0)
(1.04842 0.00985063 0)
(1.0472 0.00977429 0)
(1.04597 0.0097003 0)
(1.04472 0.00964108 0)
(1.04346 0.00960835 0)
(1.04219 0.00961225 0)
(1.04089 0.00966061 0)
(1.03956 0.00975806 0)
(1.0382 0.00990609 0)
(1.0368 0.0101017 0)
(1.03534 0.0103401 0)
(1.03386 0.0106095 0)
(1.03225 0.0109049 0)
(1.03073 0.0111989 0)
(1.02878 0.0115099 0)
(1.02758 0.0117542 0)
(1.02443 0.0120845 0)
(1.062 -0.0132342 0)
(1.06253 -0.0127678 0)
(1.06304 -0.0122862 0)
(1.06354 -0.0117893 0)
(1.06403 -0.0112772 0)
(1.0645 -0.0107499 0)
(1.06495 -0.0102078 0)
(1.06539 -0.00965076 0)
(1.0658 -0.00907921 0)
(1.06619 -0.00849337 0)
(1.06655 -0.00789358 0)
(1.06689 -0.0072802 0)
(1.06721 -0.00665369 0)
(1.06749 -0.00601455 0)
(1.06774 -0.00536333 0)
(1.06796 -0.00470069 0)
(1.06814 -0.00402734 0)
(1.06828 -0.00334409 0)
(1.06839 -0.00265185 0)
(1.06846 -0.00195164 0)
(1.06848 -0.00124461 0)
(1.06846 -0.000532057 0)
(1.06839 0.000184549 0)
(1.06827 0.000903544 0)
(1.06811 0.00162305 0)
(1.06789 0.00234095 0)
(1.06762 0.00305484 0)
(1.06729 0.00376202 0)
(1.06691 0.00445946 0)
(1.06647 0.0051438 0)
(1.06597 0.00581132 0)
(1.06541 0.00645797 0)
(1.0648 0.00707937 0)
(1.06412 0.00767087 0)
(1.06339 0.00822765 0)
(1.0626 0.0087448 0)
(1.06175 0.00921748 0)
(1.06084 0.00964112 0)
(1.05988 0.0100117 0)
(1.05888 0.0103258 0)
(1.05782 0.0105812 0)
(1.05673 0.0107771 0)
(1.05559 0.0109142 0)
(1.05442 0.0109952 0)
(1.05322 0.0110249 0)
(1.052 0.0110103 0)
(1.05075 0.0109605 0)
(1.04949 0.0108864 0)
(1.04821 0.0108007 0)
(1.04692 0.0107167 0)
(1.04562 0.010648 0)
(1.0443 0.0106075 0)
(1.04296 0.0106063 0)
(1.04161 0.010653 0)
(1.04023 0.0107529 0)
(1.03881 0.0109077 0)
(1.03735 0.0111143 0)
(1.03584 0.0113675 0)
(1.0343 0.0116544 0)
(1.03264 0.0119697 0)
(1.03107 0.0122837 0)
(1.02906 0.0126158 0)
(1.02783 0.0128763 0)
(1.0246 0.0132274 0)
(1.0643 -0.0143676 0)
(1.06484 -0.0138542 0)
(1.06536 -0.0133242 0)
(1.06587 -0.0127776 0)
(1.06637 -0.0122146 0)
(1.06685 -0.0116351 0)
(1.0673 -0.0110395 0)
(1.06774 -0.0104279 0)
(1.06816 -0.00980061 0)
(1.06855 -0.00915796 0)
(1.06891 -0.00850033 0)
(1.06925 -0.00782818 0)
(1.06956 -0.007142 0)
(1.06984 -0.00644237 0)
(1.07008 -0.00572994 0)
(1.07029 -0.00500543 0)
(1.07046 -0.00426963 0)
(1.07059 -0.00352346 0)
(1.07069 -0.00276792 0)
(1.07074 -0.00200412 0)
(1.07074 -0.00123334 0)
(1.0707 -0.000456986 0)
(1.07061 0.000323349 0)
(1.07047 0.00110587 0)
(1.07028 0.00188855 0)
(1.07004 0.0026691 0)
(1.06974 0.00344496 0)
(1.06938 0.00421322 0)
(1.06897 0.00497065 0)
(1.0685 0.00571365 0)
(1.06796 0.00643824 0)
(1.06737 0.00714008 0)
(1.06672 0.00781448 0)
(1.066 0.00845647 0)
(1.06522 0.00906085 0)
(1.06439 0.00962235 0)
(1.06349 0.0101358 0)
(1.06254 0.0105961 0)
(1.06154 0.010999 0)
(1.06048 0.0113409 0)
(1.05937 0.0116191 0)
(1.05822 0.0118328 0)
(1.05703 0.0119825 0)
(1.0558 0.0120712 0)
(1.05455 0.0121038 0)
(1.05326 0.0120877 0)
(1.05196 0.0120328 0)
(1.05063 0.0119509 0)
(1.04929 0.0118553 0)
(1.04794 0.0117608 0)
(1.04657 0.0116818 0)
(1.04519 0.0116326 0)
(1.04379 0.0116251 0)
(1.04238 0.0116689 0)
(1.04093 0.0117698 0)
(1.03945 0.0119299 0)
(1.03794 0.0121457 0)
(1.03637 0.012412 0)
(1.03477 0.0127147 0)
(1.03305 0.0130482 0)
(1.03143 0.0133802 0)
(1.02936 0.0137319 0)
(1.02809 0.0140067 0)
(1.02478 0.0143764 0)
(1.06676 -0.0155041 0)
(1.06731 -0.0149419 0)
(1.06785 -0.0143618 0)
(1.06837 -0.0137637 0)
(1.06887 -0.0131479 0)
(1.06935 -0.0125145 0)
(1.06982 -0.0118636 0)
(1.07026 -0.0111957 0)
(1.07068 -0.010511 0)
(1.07107 -0.00980985 0)
(1.07143 -0.00909278 0)
(1.07177 -0.00836029 0)
(1.07207 -0.00761294 0)
(1.07234 -0.00685141 0)
(1.07258 -0.0060764 0)
(1.07278 -0.00528873 0)
(1.07294 -0.00448931 0)
(1.07306 -0.00367911 0)
(1.07314 -0.00285926 0)
(1.07317 -0.00203098 0)
(1.07315 -0.00119565 0)
(1.07309 -0.000354786 0)
(1.07298 0.000489878 0)
(1.07282 0.00133642 0)
(1.0726 0.00218267 0)
(1.07232 0.00302619 0)
(1.07199 0.00386424 0)
(1.07161 0.00469373 0)
(1.07116 0.00551122 0)
(1.07065 0.0063129 0)
(1.07008 0.00709453 0)
(1.06945 0.00785151 0)
(1.06875 0.00857885 0)
(1.06799 0.00927125 0)
(1.06717 0.00992319 0)
(1.06629 0.010529 0)
(1.06535 0.0110832 0)
(1.06435 0.0115803 0)
(1.06329 0.0120157 0)
(1.06218 0.0123854 0)
(1.06102 0.0126867 0)
(1.05981 0.0129183 0)
(1.05856 0.0130809 0)
(1.05727 0.0131774 0)
(1.05595 0.0132131 0)
(1.05461 0.0131957 0)
(1.05324 0.0131357 0)
(1.05185 0.0130457 0)
(1.05044 0.01294 0)
(1.04902 0.0128342 0)
(1.04759 0.0127443 0)
(1.04614 0.0126853 0)
(1.04467 0.0126705 0)
(1.04319 0.0127101 0)
(1.04168 0.0128105 0)
(1.04013 0.0129742 0)
(1.03856 0.0131977 0)
(1.03692 0.0134753 0)
(1.03527 0.013792 0)
(1.03348 0.0141419 0)
(1.03181 0.01449 0)
(1.02967 0.0148592 0)
(1.02836 0.0151468 0)
(1.02496 0.0155327 0)
(1.06938 -0.0166442 0)
(1.06994 -0.0160313 0)
(1.07049 -0.015399 0)
(1.07102 -0.0147476 0)
(1.07153 -0.0140771 0)
(1.07202 -0.0133877 0)
(1.07249 -0.0126798 0)
(1.07294 -0.0119537 0)
(1.07336 -0.0112097 0)
(1.07375 -0.0104483 0)
(1.07411 -0.00967007 0)
(1.07444 -0.00887557 0)
(1.07474 -0.00806546 0)
(1.07501 -0.00724049 0)
(1.07523 -0.00640146 0)
(1.07542 -0.00554929 0)
(1.07557 -0.00468497 0)
(1.07567 -0.0038096 0)
(1.07573 -0.00292438 0)
(1.07575 -0.00203067 0)
(1.07571 -0.00112994 0)
(1.07563 -0.000223851 0)
(1.07549 0.000685764 0)
(1.0753 0.00159684 0)
(1.07505 0.00250707 0)
(1.07474 0.00341386 0)
(1.07438 0.0043143 0)
(1.07396 0.00520515 0)
(1.07347 0.00608276 0)
(1.07293 0.0069431 0)
(1.07232 0.00778172 0)
(1.07164 0.00859375 0)
(1.0709 0.00937392 0)
(1.0701 0.0101166 0)
(1.06923 0.010816 0)
(1.0683 0.0114661 0)
(1.06731 0.012061 0)
(1.06626 0.012595 0)
(1.06514 0.013063 0)
(1.06398 0.0134607 0)
(1.06276 0.0137852 0)
(1.06149 0.014035 0)
(1.06018 0.0142107 0)
(1.05883 0.0143153 0)
(1.05744 0.0143542 0)
(1.05603 0.0143356 0)
(1.05459 0.0142705 0)
(1.05313 0.0141722 0)
(1.05165 0.014056 0)
(1.05016 0.0139386 0)
(1.04866 0.013837 0)
(1.04714 0.0137674 0)
(1.0456 0.013744 0)
(1.04405 0.013778 0)
(1.04247 0.0138766 0)
(1.04085 0.0140423 0)
(1.03921 0.0142716 0)
(1.03751 0.0145589 0)
(1.03579 0.0148876 0)
(1.03393 0.015252 0)
(1.0322 0.0156143 0)
(1.02999 0.0159991 0)
(1.02865 0.0162974 0)
(1.02514 0.0166971 0)
(1.07216 -0.0177882 0)
(1.07273 -0.0171224 0)
(1.07329 -0.016436 0)
(1.07383 -0.015729 0)
(1.07435 -0.0150018 0)
(1.07485 -0.0142545 0)
(1.07532 -0.0134875 0)
(1.07577 -0.0127011 0)
(1.07619 -0.0118959 0)
(1.07659 -0.0110724 0)
(1.07695 -0.0102312 0)
(1.07727 -0.00937294 0)
(1.07757 -0.00849838 0)
(1.07782 -0.00760837 0)
(1.07804 -0.00670381 0)
(1.07821 -0.00578571 0)
(1.07834 -0.00485518 0)
(1.07843 -0.00391342 0)
(1.07847 -0.00296174 0)
(1.07846 -0.00200161 0)
(1.07841 -0.00103462 0)
(1.0783 -6.2559e-05 0)
(1.07813 0.00091263 0)
(1.07791 0.00188875 0)
(1.07763 0.00286334 0)
(1.07729 0.00383368 0)
(1.07689 0.00479671 0)
(1.07643 0.005749 0)
(1.07591 0.00668674 0)
(1.07532 0.0076057 0)
(1.07467 0.00850121 0)
(1.07395 0.00936814 0)
(1.07316 0.010201 0)
(1.07231 0.0109939 0)
(1.0714 0.0117406 0)
(1.07041 0.0124349 0)
(1.06937 0.0130704 0)
(1.06826 0.0136412 0)
(1.06709 0.0141418 0)
(1.06586 0.0145677 0)
(1.06458 0.0149156 0)
(1.06325 0.0151838 0)
(1.06187 0.0153729 0)
(1.06046 0.0154858 0)
(1.059 0.0155281 0)
(1.05752 0.0155084 0)
(1.05601 0.0154383 0)
(1.05448 0.0153316 0)
(1.05293 0.0152047 0)
(1.05136 0.0150752 0)
(1.04978 0.0149612 0)
(1.04818 0.01488 0)
(1.04657 0.014847 0)
(1.04494 0.0148742 0)
(1.04329 0.0149694 0)
(1.0416 0.0151355 0)
(1.03989 0.015369 0)
(1.03811 0.0156639 0)
(1.03632 0.0160028 0)
(1.0344 0.0163797 0)
(1.03261 0.0167542 0)
(1.03032 0.0171525 0)
(1.02894 0.0174596 0)
(1.02533 0.0178704 0)
(1.07509 -0.0189361 0)
(1.07568 -0.0182153 0)
(1.07625 -0.0174724 0)
(1.0768 -0.0167078 0)
(1.07733 -0.0159216 0)
(1.07783 -0.0151142 0)
(1.07831 -0.0142859 0)
(1.07876 -0.0134373 0)
(1.07918 -0.0125689 0)
(1.07957 -0.0116812 0)
(1.07993 -0.0107751 0)
(1.08025 -0.00985119 0)
(1.08054 -0.00891042 0)
(1.08078 -0.00795368 0)
(1.08099 -0.00698202 0)
(1.08115 -0.00599653 0)
(1.08126 -0.00499842 0)
(1.08133 -0.00398902 0)
(1.08135 -0.00296976 0)
(1.08132 -0.00194222 0)
(1.08124 -0.000908102 0)
(1.0811 0.000130687 0)
(1.0809 0.00117206 0)
(1.08065 0.0022137 0)
(1.08034 0.00325302 0)
(1.07996 0.00428717 0)
(1.07953 0.00531293 0)
(1.07903 0.00632672 0)
(1.07846 0.00732455 0)
(1.07783 0.00830202 0)
(1.07713 0.00925425 0)
(1.07636 0.0101759 0)
(1.07553 0.0110612 0)
(1.07463 0.011904 0)
(1.07366 0.0126979 0)
(1.07262 0.0134361 0)
(1.07152 0.0141122 0)
(1.07035 0.0147198 0)
(1.06912 0.0152531 0)
(1.06784 0.0157072 0)
(1.06649 0.0160785 0)
(1.06509 0.0163654 0)
(1.06365 0.0165681 0)
(1.06216 0.0166895 0)
(1.06064 0.0167356 0)
(1.05908 0.016715 0)
(1.05749 0.0166399 0)
(1.05589 0.0165248 0)
(1.05426 0.016387 0)
(1.05261 0.0162449 0)
(1.05095 0.0161179 0)
(1.04928 0.0160244 0)
(1.04759 0.0159806 0)
(1.04588 0.0159998 0)
(1.04415 0.0160901 0)
(1.04239 0.016255 0)
(1.04059 0.0164909 0)
(1.03874 0.0167916 0)
(1.03688 0.0171386 0)
(1.03488 0.0175261 0)
(1.03303 0.0179105 0)
(1.03066 0.0183203 0)
(1.02924 0.0186341 0)
(1.02552 0.0190533 0)
(1.07817 -0.0200878 0)
(1.07877 -0.0193096 0)
(1.07936 -0.018508 0)
(1.07992 -0.0176833 0)
(1.08045 -0.0168359 0)
(1.08096 -0.015966 0)
(1.08145 -0.0150743 0)
(1.0819 -0.0141612 0)
(1.08232 -0.0132273 0)
(1.08271 -0.0122735 0)
(1.08306 -0.0113004 0)
(1.08338 -0.010309 0)
(1.08365 -0.00930017 0)
(1.08389 -0.00827499 0)
(1.08408 -0.00723459 0)
(1.08422 -0.00618019 0)
(1.08432 -0.00511313 0)
(1.08437 -0.00403483 0)
(1.08437 -0.00294685 0)
(1.08431 -0.00185089 0)
(1.0842 -0.000748788 0)
(1.08403 0.000357448 0)
(1.0838 0.00146559 0)
(1.08351 0.00257322 0)
(1.08316 0.00367761 0)
(1.08275 0.00477577 0)
(1.08227 0.00586435 0)
(1.08173 0.00693962 0)
(1.08112 0.00799746 0)
(1.08044 0.00903326 0)
(1.0797 0.010042 0)
(1.07888 0.0110181 0)
(1.078 0.0119555 0)
(1.07704 0.012848 0)
(1.07601 0.0136887 0)
(1.07492 0.0144707 0)
(1.07376 0.0151872 0)
(1.07253 0.0158314 0)
(1.07124 0.0163973 0)
(1.06989 0.0168796 0)
(1.06848 0.0172747 0)
(1.06701 0.0175803 0)
(1.0655 0.0177969 0)
(1.06394 0.0179271 0)
(1.06234 0.0179771 0)
(1.06071 0.0179559 0)
(1.05904 0.0178759 0)
(1.05735 0.0177525 0)
(1.05565 0.0176035 0)
(1.05392 0.0174487 0)
(1.05218 0.0173081 0)
(1.05042 0.0172014 0)
(1.04865 0.017146 0)
(1.04686 0.0171558 0)
(1.04504 0.0172398 0)
(1.0432 0.0174019 0)
(1.04133 0.0176384 0)
(1.0394 0.0179431 0)
(1.03746 0.0182962 0)
(1.03538 0.018692 0)
(1.03346 0.0190842 0)
(1.03101 0.0195032 0)
(1.02954 0.0198216 0)
(1.02571 0.0202462 0)
(1.08141 -0.021243 0)
(1.08202 -0.0204049 0)
(1.08262 -0.0195421 0)
(1.08319 -0.0186549 0)
(1.08373 -0.0177437 0)
(1.08425 -0.0168091 0)
(1.08473 -0.0158515 0)
(1.08519 -0.0148716 0)
(1.08561 -0.0138701 0)
(1.08599 -0.0128479 0)
(1.08634 -0.0118059 0)
(1.08665 -0.0107449 0)
(1.08691 -0.00966614 0)
(1.08713 -0.00857074 0)
(1.08731 -0.00745994 0)
(1.08744 -0.0063351 0)
(1.08751 -0.00519767 0)
(1.08754 -0.00404921 0)
(1.08751 -0.00289139 0)
(1.08742 -0.00172603 0)
(1.08728 -0.000555086 0)
(1.08708 0.00061929 0)
(1.08682 0.00179477 0)
(1.08649 0.00296879 0)
(1.08611 0.00413853 0)
(1.08565 0.00530085 0)
(1.08513 0.00645228 0)
(1.08454 0.00758897 0)
(1.08389 0.00870663 0)
(1.08316 0.00980051 0)
(1.08236 0.0108654 0)
(1.08149 0.0118956 0)
(1.08055 0.0128848 0)
(1.07954 0.0138265 0)
(1.07846 0.0147137 0)
(1.07731 0.0155392 0)
(1.07608 0.0162957 0)
(1.07479 0.0169764 0)
(1.07344 0.0175748 0)
(1.07202 0.0180854 0)
(1.07054 0.0185042 0)
(1.06901 0.0188288 0)
(1.06742 0.0190594 0)
(1.06578 0.0191989 0)
(1.06411 0.0192531 0)
(1.06239 0.0192314 0)
(1.06065 0.0191468 0)
(1.05888 0.0190151 0)
(1.05709 0.018855 0)
(1.05527 0.018687 0)
(1.05345 0.0185324 0)
(1.0516 0.0184119 0)
(1.04974 0.0183438 0)
(1.04787 0.0183431 0)
(1.04597 0.0184194 0)
(1.04404 0.0185772 0)
(1.04208 0.0188124 0)
(1.04007 0.0191191 0)
(1.03805 0.0194762 0)
(1.03589 0.0198783 0)
(1.0339 0.0202758 0)
(1.03136 0.0207018 0)
(1.02984 0.0210225 0)
(1.0259 0.0214495 0)
(1.08479 -0.0224012 0)
(1.08542 -0.0215006 0)
(1.08602 -0.0205739 0)
(1.0866 -0.0196217 0)
(1.08715 -0.0186442 0)
(1.08768 -0.0176423 0)
(1.08816 -0.0166164 0)
(1.08862 -0.0155673 0)
(1.08904 -0.0144959 0)
(1.08942 -0.0134031 0)
(1.08976 -0.0122899 0)
(1.09006 -0.0111573 0)
(1.09031 -0.0100067 0)
(1.09052 -0.00883929 0)
(1.09067 -0.00765642 0)
(1.09078 -0.00645959 0)
(1.09083 -0.00525038 0)
(1.09083 -0.00403049 0)
(1.09078 -0.00280171 0)
(1.09066 -0.00156599 0)
(1.09049 -0.000325419 0)
(1.09025 0.000917758 0)
(1.08995 0.00216108 0)
(1.08959 0.00340186 0)
(1.08916 0.00463715 0)
(1.08866 0.00586372 0)
(1.08809 0.00707796 0)
(1.08746 0.0082759 0)
(1.08675 0.00945312 0)
(1.08597 0.0106048 0)
(1.08512 0.0117254 0)
(1.0842 0.0128092 0)
(1.0832 0.0138498 0)
(1.08213 0.0148402 0)
(1.08099 0.0157735 0)
(1.07977 0.016642 0)
(1.07849 0.0174383 0)
(1.07713 0.0181552 0)
(1.07571 0.0187859 0)
(1.07422 0.0193247 0)
(1.07267 0.0197673 0)
(1.07106 0.020111 0)
(1.0694 0.0203559 0)
(1.06769 0.0205047 0)
(1.06593 0.0205635 0)
(1.06414 0.0205417 0)
(1.06231 0.0204527 0)
(1.06046 0.0203128 0)
(1.05858 0.0201415 0)
(1.05668 0.0199603 0)
(1.05476 0.0197913 0)
(1.05283 0.0196563 0)
(1.05088 0.0195747 0)