/*--------------------------------*- C++ -*----------------------------------*\
  =========                 |
  \\      /  F ield         | OpenFOAM: The Open Source CFD Toolbox
   \\    /   O peration     | Website:  https://openfoam.org
    \\  /    A nd           | Version:  7
     \\/     M anipulation  |
\*---------------------------------------------------------------------------*/
FoamFile
{
    version     2.0;
    format      ascii;
    class       volScalarField;
    location    "62.00019";
    object      p;
}
// * * * * * * * * * * * * * * * * * * * * * * * * * * * * * * * * * * * * * //

dimensions      [0 2 -2 0 0 0 0];

internalField   nonuniform List<scalar> 
23200
(
-0.21869
-0.220465
-0.22154
-0.222381
-0.223116
-0.223768
-0.224374
-0.224961
-0.22554
-0.226109
-0.226656
-0.227162
-0.227598
-0.227932
-0.228128
-0.228143
-0.227938
-0.227495
-0.226784
-0.225714
-0.218965
-0.220709
-0.221766
-0.222594
-0.223317
-0.223959
-0.224556
-0.225136
-0.225709
-0.226273
-0.226817
-0.227319
-0.227754
-0.228088
-0.228284
-0.228299
-0.228089
-0.227637
-0.226916
-0.225727
-0.219503
-0.221187
-0.22221
-0.223011
-0.223712
-0.224333
-0.224913
-0.225478
-0.226038
-0.226591
-0.227126
-0.227622
-0.228053
-0.228384
-0.228579
-0.228592
-0.228371
-0.227893
-0.227169
-0.225708
-0.220291
-0.221889
-0.222861
-0.223623
-0.224288
-0.22488
-0.225433
-0.225974
-0.226513
-0.227049
-0.227569
-0.228054
-0.228477
-0.228803
-0.228994
-0.229004
-0.228768
-0.22824
-0.227558
-0.225612
-0.221308
-0.222797
-0.223704
-0.224414
-0.225033
-0.225583
-0.226099
-0.226607
-0.227116
-0.227626
-0.228125
-0.228592
-0.229002
-0.229319
-0.229502
-0.229507
-0.229258
-0.228631
-0.228113
-0.225364
-0.222531
-0.223891
-0.22472
-0.225367
-0.225928
-0.226425
-0.226892
-0.227355
-0.227824
-0.228298
-0.228766
-0.229207
-0.229597
-0.229899
-0.23007
-0.230066
-0.229819
-0.228998
-0.228881
-0.224848
-0.223932
-0.22515
-0.225889
-0.226461
-0.226952
-0.227383
-0.227789
-0.228194
-0.228609
-0.229035
-0.229461
-0.229866
-0.230226
-0.230506
-0.230655
-0.230631
-0.230432
-0.229233
-0.229908
-0.223958
-0.225483
-0.226549
-0.22719
-0.227677
-0.228085
-0.228437
-0.228766
-0.229097
-0.229445
-0.229808
-0.230176
-0.230532
-0.23085
-0.231097
-0.231215
-0.231137
-0.231081
-0.229264
-0.231109
-0.222929
-0.227157
-0.228066
-0.228603
-0.228994
-0.229306
-0.229563
-0.229799
-0.23004
-0.230302
-0.230584
-0.23088
-0.23117
-0.23143
-0.23163
-0.231706
-0.231512
-0.231682
-0.229331
-0.231821
-0.222077
-0.228928
-0.229683
-0.230109
-0.230394
-0.230597
-0.230742
-0.230867
-0.230999
-0.231154
-0.231337
-0.23154
-0.231747
-0.231931
-0.232065
-0.232088
-0.231847
-0.231996
-0.229266
-0.232527
-0.220882
-0.230779
-0.231384
-0.231695
-0.231864
-0.231943
-0.231959
-0.231952
-0.231952
-0.23198
-0.232041
-0.232132
-0.232234
-0.232324
-0.232371
-0.232319
-0.231976
-0.232197
-0.228845
-0.233191
-0.219395
-0.232695
-0.233159
-0.233351
-0.233394
-0.233334
-0.233202
-0.233041
-0.232887
-0.232764
-0.23268
-0.232635
-0.232613
-0.232587
-0.232527
-0.232384
-0.231878
-0.232238
-0.22808
-0.233623
-0.217766
-0.234674
-0.235006
-0.235076
-0.234981
-0.234765
-0.234465
-0.234128
-0.233795
-0.233496
-0.233245
-0.233042
-0.232873
-0.232711
-0.232522
-0.232273
-0.231561
-0.232043
-0.227058
-0.233559
-0.216248
-0.23672
-0.23693
-0.236873
-0.236628
-0.236238
-0.235748
-0.235212
-0.234677
-0.234178
-0.233736
-0.233353
-0.233017
-0.2327
-0.23236
-0.231982
-0.231044
-0.231528
-0.22592
-0.232676
-0.215056
-0.238849
-0.238943
-0.238753
-0.238345
-0.237762
-0.237061
-0.236301
-0.23554
-0.234819
-0.234164
-0.233582
-0.23306
-0.232569
-0.232055
-0.231514
-0.230354
-0.230611
-0.224785
-0.230722
-0.214147
-0.241087
-0.241068
-0.240736
-0.240147
-0.239354
-0.238419
-0.237414
-0.236404
-0.235439
-0.234552
-0.233752
-0.233027
-0.232342
-0.231631
-0.230876
-0.229502
-0.229241
-0.223647
-0.227693
-0.213146
-0.243469
-0.243333
-0.242845
-0.242061
-0.241035
-0.239845
-0.238572
-0.237293
-0.236067
-0.234931
-0.233897
-0.232951
-0.232049
-0.231109
-0.230072
-0.228461
-0.227426
-0.222323
-0.223852
-0.211568
-0.246041
-0.245774
-0.245118
-0.244115
-0.242836
-0.241368
-0.239809
-0.238244
-0.23674
-0.23534
-0.234056
-0.232868
-0.231718
-0.230503
-0.229103
-0.227168
-0.225202
-0.220534
-0.219477
-0.209137
-0.248853
-0.248436
-0.24759
-0.246346
-0.24479
-0.243026
-0.241162
-0.239295
-0.237499
-0.235822
-0.234271
-0.232813
-0.231369
-0.229809
-0.227953
-0.22555
-0.222599
-0.218057
-0.21462
-0.20592
-0.251965
-0.251366
-0.250303
-0.248794
-0.246938
-0.244857
-0.242673
-0.24049
-0.238392
-0.236422
-0.234579
-0.232812
-0.231009
-0.229009
-0.226586
-0.223552
-0.219637
-0.214814
-0.209266
-0.202205
-0.255435
-0.254614
-0.253303
-0.251501
-0.249323
-0.246907
-0.244387
-0.241878
-0.239463
-0.23718
-0.235011
-0.232876
-0.230627
-0.228071
-0.224958
-0.221145
-0.216321
-0.210871
-0.203883
-0.197885
-0.259324
-0.258232
-0.256636
-0.254514
-0.251988
-0.249219
-0.246351
-0.243502
-0.240754
-0.238129
-0.235582
-0.232999
-0.230194
-0.226952
-0.223028
-0.218334
-0.212632
-0.206358
-0.198889
-0.192164
-0.263689
-0.262268
-0.26035
-0.257876
-0.254979
-0.251839
-0.248608
-0.245405
-0.242299
-0.239288
-0.236293
-0.233157
-0.229668
-0.225607
-0.220769
-0.215142
-0.208573
-0.201577
-0.193595
-0.186286
-0.268586
-0.266772
-0.26449
-0.261632
-0.258341
-0.254812
-0.251203
-0.247624
-0.244122
-0.240662
-0.237122
-0.233309
-0.228998
-0.223998
-0.218176
-0.211598
-0.204226
-0.196558
-0.188168
-0.180495
-0.274063
-0.271786
-0.269098
-0.265826
-0.262117
-0.258181
-0.254173
-0.250186
-0.246235
-0.242238
-0.238032
-0.2334
-0.228132
-0.222096
-0.215253
-0.20775
-0.199636
-0.191389
-0.182647
-0.174675
-0.28016
-0.27735
-0.274214
-0.270499
-0.266348
-0.261983
-0.25755
-0.253109
-0.24863
-0.243983
-0.238968
-0.233368
-0.227022
-0.219883
-0.212019
-0.203638
-0.194856
-0.186099
-0.177042
-0.168853
-0.28691
-0.283497
-0.279873
-0.275686
-0.271071
-0.266254
-0.261355
-0.256393
-0.251281
-0.245842
-0.239859
-0.233146
-0.225624
-0.217352
-0.208493
-0.199297
-0.189912
-0.180702
-0.171369
-0.162976
-0.294335
-0.290251
-0.286103
-0.28142
-0.276317
-0.271015
-0.265595
-0.260017
-0.254137
-0.247741
-0.240623
-0.232669
-0.223906
-0.214501
-0.204693
-0.194747
-0.184817
-0.175197
-0.165613
-0.157028
-0.302443
-0.297626
-0.292924
-0.287723
-0.282107
-0.276275
-0.270255
-0.263938
-0.257124
-0.249588
-0.241176
-0.231876
-0.221841
-0.211331
-0.200631
-0.189994
-0.179568
-0.16957
-0.159758
-0.150986
-0.311229
-0.305623
-0.300343
-0.294606
-0.288445
-0.282022
-0.275295
-0.26808
-0.260142
-0.251279
-0.24143
-0.230716
-0.219409
-0.207839
-0.196306
-0.185034
-0.17415
-0.163801
-0.153782
-0.144829
-0.320667
-0.314228
-0.308352
-0.30206
-0.295313
-0.288215
-0.280641
-0.272342
-0.263072
-0.252702
-0.241303
-0.229142
-0.216591
-0.204016
-0.191708
-0.179849
-0.168542
-0.157866
-0.14766
-0.138533
-0.330708
-0.323404
-0.316922
-0.310056
-0.302667
-0.294782
-0.286188
-0.27659
-0.265779
-0.253744
-0.24072
-0.227112
-0.213363
-0.199846
-0.186817
-0.174417
-0.162715
-0.151739
-0.141367
-0.132079
-0.341277
-0.333092
-0.325999
-0.318534
-0.310426
-0.301612
-0.291796
-0.280671
-0.268118
-0.254295
-0.239611
-0.224587
-0.2097
-0.195303
-0.181605
-0.168706
-0.156641
-0.145394
-0.13488
-0.125446
-0.352269
-0.343201
-0.335498
-0.327399
-0.318474
-0.308558
-0.297293
-0.284412
-0.269945
-0.254253
-0.237913
-0.221525
-0.205569
-0.190355
-0.176042
-0.162684
-0.15029
-0.138803
-0.128174
-0.118612
-0.363544
-0.35361
-0.345301
-0.33652
-0.326654
-0.315435
-0.302482
-0.287631
-0.271118
-0.253523
-0.235564
-0.217883
-0.200932
-0.184965
-0.170089
-0.156318
-0.143629
-0.131939
-0.121226
-0.111559
-0.37493
-0.364165
-0.355252
-0.345726
-0.334769
-0.322026
-0.307149
-0.290146
-0.271503
-0.252014
-0.232502
-0.213612
-0.195745
-0.179092
-0.163708
-0.149572
-0.136629
-0.124778
-0.114012
-0.104269
-0.386219
-0.374674
-0.365156
-0.354805
-0.342585
-0.328089
-0.311069
-0.291777
-0.270974
-0.249643
-0.228668
-0.208663
-0.189963
-0.172695
-0.156862
-0.142411
-0.129261
-0.117295
-0.106511
-0.0967251
-0.397167
-0.384912
-0.374785
-0.363509
-0.349839
-0.333365
-0.314021
-0.292357
-0.269415
-0.246328
-0.223999
-0.202983
-0.183538
-0.165729
-0.149513
-0.134805
-0.121499
-0.109468
-0.0987022
-0.0889117
-0.407503
-0.39462
-0.383872
-0.371559
-0.356247
-0.33759
-0.315786
-0.291728
-0.266718
-0.241994
-0.218434
-0.196518
-0.176424
-0.158153
-0.141624
-0.126722
-0.113318
-0.101276
-0.09057
-0.0808201
-0.416929
-0.403513
-0.392126
-0.378652
-0.361511
-0.340503
-0.316163
-0.289747
-0.262784
-0.236566
-0.211914
-0.189217
-0.168573
-0.149928
-0.133163
-0.118136
-0.104697
-0.0927025
-0.0821026
-0.07245
-0.425128
-0.411281
-0.399231
-0.38447
-0.365332
-0.341852
-0.314965
-0.286286
-0.257524
-0.229976
-0.20438
-0.181028
-0.159943
-0.141017
-0.124099
-0.109022
-0.095616
-0.0837305
-0.073292
-0.0638067
-0.431771
-0.417603
-0.404861
-0.388691
-0.367421
-0.341406
-0.312027
-0.281232
-0.250857
-0.222161
-0.19578
-0.171908
-0.150495
-0.13139
-0.114407
-0.0993599
-0.0860578
-0.0743443
-0.064127
-0.0548845
-0.436527
-0.42215
-0.408685
-0.391
-0.367505
-0.338958
-0.307204
-0.274487
-0.242712
-0.213063
-0.186065
-0.161814
-0.140197
-0.121019
-0.104068
-0.0891346
-0.0760094
-0.064532
-0.0545925
-0.0456498
-0.43907
-0.424597
-0.410381
-0.391098
-0.365338
-0.334329
-0.300377
-0.265971
-0.233029
-0.202635
-0.175195
-0.150715
-0.129022
-0.109884
-0.0930659
-0.0783341
-0.0654615
-0.0542903
-0.0446861
-0.0360275
-0.439091
-0.424632
-0.409646
-0.388715
-0.360706
-0.32737
-0.29145
-0.255618
-0.22176
-0.190838
-0.163139
-0.138585
-0.116951
-0.0979714
-0.0813885
-0.0669492
-0.0544101
-0.0436243
-0.0344359
-0.0259609
-0.436305
-0.421968
-0.406203
-0.383613
-0.353433
-0.317966
-0.280352
-0.243382
-0.208871
-0.177644
-0.149875
-0.125407
-0.103969
-0.08527
-0.0690298
-0.0549752
-0.0428655
-0.0325434
-0.0238471
-0.0155632
-0.430459
-0.416346
-0.399812
-0.375594
-0.343381
-0.306034
-0.267035
-0.229236
-0.194341
-0.163038
-0.135388
-0.111171
-0.0900708
-0.071779
-0.056
-0.0424215
-0.0308538
-0.0210842
-0.0128019
-0.00500121
-0.42134
-0.40755
-0.390276
-0.364508
-0.330457
-0.291527
-0.251479
-0.213169
-0.178166
-0.147013
-0.119674
-0.0958726
-0.0752723
-0.0575155
-0.0423284
-0.029337
-0.01836
-0.00921268
-0.00139296
0.00578594
-0.40878
-0.395407
-0.377446
-0.35025
-0.314606
-0.274429
-0.233687
-0.19519
-0.160351
-0.129574
-0.10275
-0.0795322
-0.0596143
-0.0425217
-0.0280024
-0.015706
-0.005415
0.00305823
0.0103309
0.0168224
-0.392663
-0.379796
-0.361227
-0.332766
-0.29582
-0.254758
-0.213688
-0.175324
-0.140915
-0.110756
-0.0846696
-0.0622252
-0.0430733
-0.0267912
-0.0130601
-0.0015533
0.00796106
0.0156995
0.022345
0.0281002
-0.372926
-0.360647
-0.341573
-0.312053
-0.274128
-0.232564
-0.191533
-0.153617
-0.11991
-0.090646
-0.0654466
-0.0439375
-0.0257098
-0.0103593
0.00246615
0.0130882
0.0217412
0.0286791
0.034628
0.0395948
-0.34956
-0.337948
-0.318497
-0.288153
-0.249607
-0.207931
-0.167299
-0.130149
-0.0974479
-0.0692334
-0.0451336
-0.024722
-0.00756898
0.00672859
0.0185377
0.0281804
0.0358918
0.0419631
0.0471508
0.0512727
-0.322613
-0.31174
-0.292065
-0.261167
-0.222373
-0.180959
-0.141081
-0.10502
-0.0735553
-0.0466152
-0.0237968
-0.00464119
0.0112951
0.0244207
0.0351086
0.0436807
0.0503735
0.0555143
0.0598774
0.0630937
-0.292189
-0.282118
-0.262399
-0.23125
-0.192561
-0.151754
-0.113008
-0.0783258
-0.0483359
-0.0228784
-0.00151574
0.0162324
0.0308193
0.0426586
0.0521262
0.0595407
0.0651426
0.0692934
0.07277
0.0750161
-0.258442
-0.249231
-0.229679
-0.198574
-0.160263
-0.120508
-0.0832253
-0.0501931
-0.0219045
0.00187662
0.0216192
0.0378174
0.0509309
0.061377
0.0695309
0.0757062
0.0801509
0.0832614
0.0857951
0.0870056
-0.22156
-0.213289
-0.194118
-0.163228
-0.12571
-0.0874387
-0.0519011
-0.0207683
0.00560968
0.0275367
0.0455067
0.060023
0.0715492
0.0805037
0.0872571
0.092117
0.0953474
0.0973796
0.0989163
0.0990189
-0.181728
-0.174582
-0.155865
-0.125398
-0.0892772
-0.0527351
-0.0192185
0.00978686
0.0340648
0.0539763
0.0700352
0.0827502
0.0925863
0.0999601
0.105234
0.10871
0.110682
0.111606
0.112059
0.110914
-0.139178
-0.13343
-0.115007
-0.085688
-0.0511422
-0.0166209
0.0146232
0.0412978
0.0633067
0.0810592
0.0950836
0.105892
0.113947
0.119662
0.123386
0.125426
0.126114
0.125887
0.12506
0.122349
-0.094245
-0.0900069
-0.0722608
-0.0442496
-0.0115671
0.0206622
0.0494119
0.0735777
0.0931703
0.108639
0.120522
0.129333
0.13553
0.139519
0.141638
0.142208
0.141602
0.140147
0.137709
0.133054
-0.0476406
-0.0445351
-0.0278588
-0.00138339
0.0291627
0.0588596
0.0849235
0.106429
0.123481
0.136561
0.146215
0.152952
0.157228
0.159436
0.15991
0.158992
0.157078
0.154274
0.149967
0.143667
0.00052304
0.00244894
0.0178726
0.0425756
0.0707447
0.0977047
0.120923
0.139645
0.154056
0.164664
0.172019
0.176625
0.17893
0.179317
0.178118
0.175698
0.172427
0.16813
0.161949
0.1562
0.0498583
0.0505256
0.0645607
0.0872784
0.112865
0.136921
0.157169
0.173011
0.184706
0.192781
0.197785
0.200219
0.20052
0.199062
0.196177
0.192237
0.187536
0.181718
0.174198
0.168683
0.0999314
0.0992903
0.111813
0.132366
0.155203
0.176226
0.193411
0.206308
0.215237
0.22074
0.223363
0.223601
0.221881
0.218568
0.213995
0.208521
0.202366
0.195116
0.186541
0.180657
0.150307
0.148328
0.159231
0.177472
0.197433
0.215334
0.229398
0.239314
0.245452
0.248366
0.248599
0.246636
0.242894
0.237731
0.231475
0.224465
0.216862
0.208278
0.198761
0.1922
0.200548
0.197216
0.206413
0.222232
0.239229
0.253956
0.264877
0.271804
0.275153
0.275486
0.273338
0.269187
0.26344
0.256444
0.248522
0.239991
0.230969
0.221124
0.210681
0.203277
0.250216
0.24553
0.252956
0.26628
0.280267
0.291808
0.299595
0.303556
0.304144
0.301924
0.297427
0.291119
0.283397
0.274602
0.265044
0.255019
0.244621
0.233572
0.222213
0.213882
0.298877
0.292851
0.298468
0.30926
0.320231
0.328608
0.333305
0.33435
0.332229
0.327509
0.320713
0.312297
0.302649
0.2921
0.280949
0.26947
0.257745
0.245543
0.233278
0.22398
0.346105
0.338765
0.342562
0.350821
0.358807
0.364082
0.365762
0.363971
0.359219
0.352072
0.343047
0.332591
0.32108
0.308835
0.296146
0.283266
0.270268
0.256968
0.243818
0.233533
0.391487
0.382872
0.384864
0.390626
0.395698
0.397964
0.396733
0.39221
0.384927
0.37545
0.364286
0.351872
0.338577
0.324709
0.310548
0.296331
0.282122
0.26778
0.253776
0.242502
0.434626
0.424789
0.425017
0.428353
0.430617
0.43
0.425992
0.418868
0.409178
0.397486
0.384291
0.37002
0.355032
0.339628
0.324073
0.30859
0.293241
0.277922
0.263101
0.250853
0.475145
0.464151
0.462681
0.463696
0.463291
0.45995
0.453325
0.443755
0.431803
0.418031
0.40293
0.386917
0.370344
0.3535
0.336642
0.319975
0.303563
0.287336
0.271743
0.258548
0.51269
0.500616
0.497541
0.496369
0.493466
0.487589
0.478533
0.466693
0.452646
0.436947
0.42008
0.402456
0.384416
0.366242
0.348179
0.330419
0.313029
0.29597
0.279658
0.265558
0.546934
0.533867
0.529302
0.526109
0.52091
0.512708
0.501431
0.487519
0.471559
0.454103
0.435628
0.416536
0.397161
0.377776
0.358616
0.339863
0.321586
0.303776
0.286803
0.271853
0.577579
0.563618
0.557699
0.552676
0.545408
0.535118
0.52185
0.506083
0.488411
0.469383
0.449469
0.429065
0.408496
0.388031
0.367891
0.348252
0.329186
0.310709
0.293143
0.277408
0.604357
0.589612
0.582495
0.575857
0.56677
0.554651
0.53964
0.522251
0.503084
0.482682
0.461512
0.439962
0.418351
0.396942
0.375949
0.355536
0.335784
0.316731
0.298642
0.282203
0.627037
0.611624
0.603481
0.595465
0.584831
0.571159
0.55467
0.535907
0.515473
0.493908
0.471674
0.449154
0.426663
0.404455
0.382739
0.361673
0.341343
0.321805
0.303272
0.28622
0.645422
0.629465
0.620484
0.611344
0.59945
0.584517
0.56683
0.546953
0.525491
0.502983
0.479887
0.456582
0.433377
0.410523
0.388222
0.366626
0.34583
0.325902
0.307007
0.289447
0.659352
0.642982
0.633362
0.623366
0.610516
0.594625
0.57603
0.555308
0.533067
0.509846
0.486097
0.462196
0.438451
0.415108
0.392364
0.370368
0.349219
0.328998
0.309827
0.291874
0.668706
0.652059
0.642008
0.631435
0.617941
0.601407
0.582201
0.560912
0.538149
0.514448
0.49026
0.46596
0.441852
0.418181
0.39514
0.372875
0.351489
0.331072
0.311716
0.293496
0.673405
0.656618
0.646349
0.635487
0.621669
0.604812
0.585299
0.563724
0.540699
0.516757
0.492349
0.467849
0.443558
0.419722
0.396532
0.374132
0.352628
0.332113
0.312663
0.294307
0.673406
0.656619
0.646351
0.635488
0.62167
0.604813
0.5853
0.563726
0.5407
0.516758
0.49235
0.46785
0.443559
0.419723
0.396533
0.374133
0.352629
0.332113
0.312664
0.294308
0.668711
0.652064
0.642012
0.631439
0.617945
0.601411
0.582204
0.560915
0.538152
0.51445
0.490263
0.465962
0.441854
0.418183
0.395142
0.372877
0.351491
0.331074
0.311718
0.293497
0.65936
0.64299
0.63337
0.623373
0.610522
0.594631
0.576035
0.555313
0.533072
0.50985
0.486101
0.4622
0.438454
0.415111
0.392368
0.370371
0.349222
0.329001
0.30983
0.291877
0.645433
0.629476
0.620495
0.611354
0.599459
0.584525
0.566838
0.54696
0.525497
0.50299
0.479893
0.456587
0.433382
0.410528
0.388227
0.366631
0.345834
0.325907
0.307011
0.289451
0.627051
0.611638
0.603495
0.595477
0.584842
0.571169
0.55468
0.535916
0.515481
0.493916
0.471681
0.449161
0.426669
0.404461
0.382745
0.361678
0.341348
0.321811
0.303277
0.286225
0.604374
0.589629
0.582511
0.575872
0.566784
0.554664
0.539652
0.522262
0.503094
0.482692
0.461521
0.43997
0.418359
0.39695
0.375956
0.355543
0.335791
0.316737
0.298649
0.282209
0.577599
0.563638
0.557718
0.552693
0.545424
0.535134
0.521864
0.506096
0.488423
0.469394
0.44948
0.429075
0.408506
0.38804
0.3679
0.34826
0.329194
0.310717
0.29315
0.277415
0.546957
0.53389
0.529324
0.526129
0.520929
0.512726
0.501447
0.487534
0.471573
0.454116
0.43564
0.416548
0.397171
0.377786
0.358626
0.339872
0.321595
0.303784
0.286812
0.271861
0.512716
0.500641
0.497565
0.496392
0.493488
0.487609
0.478551
0.46671
0.452661
0.436961
0.420094
0.402469
0.384428
0.366254
0.34819
0.33043
0.313039
0.295979
0.279667
0.265567
0.475174
0.464179
0.462708
0.463721
0.463314
0.459972
0.453345
0.443773
0.431821
0.418047
0.402945
0.386932
0.370357
0.353513
0.336654
0.319987
0.303574
0.287346
0.271754
0.258558
0.434657
0.42482
0.425046
0.428381
0.430642
0.430024
0.426014
0.418888
0.409197
0.397504
0.384307
0.370036
0.355047
0.339642
0.324087
0.308603
0.293254
0.277934
0.263113
0.250864
0.391521
0.382906
0.384896
0.390657
0.395726
0.39799
0.396757
0.392232
0.384948
0.375469
0.364304
0.351889
0.338593
0.324725
0.310563
0.296345
0.282136
0.267793
0.253789
0.242515
0.346141
0.338801
0.342596
0.350854
0.358838
0.36411
0.365788
0.363995
0.359241
0.352093
0.343067
0.332609
0.321097
0.308852
0.296161
0.283281
0.270283
0.256982
0.243832
0.233546
0.298915
0.292889
0.298505
0.309295
0.320263
0.328638
0.333332
0.334376
0.332253
0.327532
0.320734
0.312317
0.302668
0.292118
0.280966
0.269486
0.25776
0.245558
0.233293
0.223994
0.250257
0.245571
0.252995
0.266317
0.280302
0.29184
0.299625
0.303583
0.30417
0.301948
0.297449
0.29114
0.283417
0.274621
0.265063
0.255036
0.244638
0.233588
0.222229
0.213897
0.200591
0.197258
0.206454
0.22227
0.239265
0.25399
0.264908
0.271833
0.27518
0.275511
0.273362
0.269209
0.263461
0.256465
0.248542
0.240009
0.230987
0.221141
0.210698
0.203293
0.150353
0.148373
0.159274
0.177513
0.197471
0.215369
0.229431
0.239344
0.24548
0.248393
0.248624
0.246659
0.242917
0.237752
0.231495
0.224485
0.21688
0.208297
0.198778
0.192217
0.0999788
0.099337
0.111858
0.132408
0.155242
0.176263
0.193445
0.20634
0.215266
0.220767
0.223389
0.223626
0.221905
0.218591
0.214016
0.208542
0.202385
0.195135
0.18656
0.180676
0.0499074
0.050574
0.0646074
0.0873225
0.112906
0.13696
0.157204
0.173044
0.184737
0.19281
0.197812
0.200244
0.200545
0.199085
0.1962
0.192258
0.187557
0.181738
0.174218
0.168702
0.000573697
0.00249892
0.0179208
0.0426213
0.0707874
0.0977444
0.12096
0.139679
0.154088
0.164695
0.172047
0.176651
0.178956
0.179342
0.178142
0.175721
0.172449
0.168151
0.16197
0.15622
-0.0475886
-0.0444837
-0.0278092
-0.00133629
0.0292068
0.0589006
0.0849616
0.106464
0.123514
0.136593
0.146245
0.15298
0.157255
0.159462
0.159934
0.159015
0.157101
0.154295
0.149988
0.143688
-0.0941917
-0.0899541
-0.0722099
-0.0442012
-0.0115217
0.0207044
0.0494512
0.0736144
0.0932047
0.108671
0.120553
0.129362
0.135558
0.139545
0.141664
0.142232
0.141626
0.14017
0.137731
0.133076
-0.139123
-0.133377
-0.114955
-0.0856385
-0.0510957
-0.0165775
0.0146636
0.0413355
0.0633421
0.0810924
0.095115
0.105921
0.113976
0.119689
0.123413
0.125452
0.126138
0.12591
0.125083
0.122372
-0.181673
-0.174528
-0.155812
-0.125348
-0.0892298
-0.0526908
-0.0191771
0.00982553
0.0341011
0.0540105
0.0700675
0.0827809
0.0926157
0.0999882
0.105261
0.108737
0.110708
0.11163
0.112083
0.110937
-0.221504
-0.213234
-0.194065
-0.163176
-0.125661
-0.0873936
-0.0518589
-0.0207288
0.00564682
0.0275717
0.0455399
0.0600546
0.0715795
0.0805327
0.0872851
0.092144
0.0953737
0.0974052
0.0989412
0.0990431
-0.258386
-0.249175
-0.229624
-0.198522
-0.160214
-0.120462
-0.0831823
-0.0501528
-0.0218666
0.00191246
0.0216532
0.0378498
0.0509619
0.0614069
0.0695597
0.0757341
0.0801781
0.0832879
0.0858209
0.0870307
-0.292132
-0.282061
-0.262344
-0.231198
-0.192512
-0.151708
-0.112964
-0.0782848
-0.0482972
-0.0228418
-0.00148099
0.0162656
0.0308511
0.0426893
0.0521558
0.0595695
0.0651706
0.0693208
0.0727968
0.0750421
-0.322556
-0.311684
-0.29201
-0.261115
-0.222323
-0.180912
-0.141037
-0.104979
-0.073516
-0.046578
-0.0237614
-0.00460726
0.0113277
0.0244522
0.0351391
0.0437104
0.0504025
0.0555426
0.059905
0.0631206
-0.349503
-0.337892
-0.318442
-0.2881
-0.249557
-0.207883
-0.167254
-0.130107
-0.0974081
-0.0691956
-0.0450975
-0.0246874
-0.00753564
0.00676084
0.018569
0.0282109
0.0359216
0.0419923
0.0471793
0.0513006
-0.372869
-0.360591
-0.341518
-0.312
-0.274078
-0.232516
-0.191488
-0.153575
-0.11987
-0.0906076
-0.06541
-0.0439023
-0.0256757
-0.0103263
0.00249828
0.0131195
0.0217719
0.0287092
0.0346575
0.0396237
-0.392607
-0.37974
-0.361172
-0.332714
-0.29577
-0.25471
-0.213643
-0.175281
-0.140875
-0.110717
-0.0846324
-0.0621893
-0.0430385
-0.0267574
-0.0130272
-0.00152107
0.00799268
0.0157306
0.0223755
0.0281301
-0.408725
-0.395352
-0.377393
-0.350197
-0.314556
-0.274381
-0.233642
-0.195147
-0.16031
-0.129535
-0.102712
-0.0794957
-0.0595789
-0.0424872
-0.0279687
-0.0156729
-0.00538245
0.00309028
0.0103625
0.0168533
-0.421285
-0.407496
-0.390223
-0.364456
-0.330407
-0.29148
-0.251434
-0.213126
-0.178125
-0.146973
-0.119636
-0.0958356
-0.0752363
-0.0574803
-0.0422939
-0.029303
-0.0183265
-0.00917962
-0.00136035
0.00581792
-0.430406
-0.416293
-0.39976
-0.375543
-0.343332
-0.305987
-0.26699
-0.229193
-0.1943
-0.162998
-0.13535
-0.111133
-0.0900341
-0.0717431
-0.0559646
-0.0423866
-0.0308193
-0.0210501
-0.0127682
-0.00496809
-0.436253
-0.421916
-0.406152
-0.383563
-0.353384
-0.317919
-0.280307
-0.243339
-0.20883
-0.177604
-0.149836
-0.125369
-0.103931
-0.0852333
-0.0689936
-0.0549393
-0.0428299
-0.0325082
-0.0238123
-0.0155289
-0.439041
-0.424582
-0.409596
-0.388667
-0.360659
-0.327324
-0.291406
-0.255575
-0.221719
-0.190798
-0.1631
-0.138547
-0.116913
-0.097934
-0.0813515
-0.0669124
-0.0543735
-0.0435879
-0.0343998
-0.0259253
-0.439021
-0.424548
-0.410333
-0.391051
-0.365291
-0.334284
-0.300334
-0.265929
-0.232988
-0.202595
-0.175156
-0.150676
-0.128984
-0.109846
-0.093028
-0.0782962
-0.0654237
-0.0542526
-0.0446487
-0.0359904
-0.436479
-0.422103
-0.408638
-0.390954
-0.36746
-0.338914
-0.307161
-0.274446
-0.242672
-0.213023
-0.186025
-0.161775
-0.140158
-0.12098
-0.104029
-0.0890957
-0.0759705
-0.064493
-0.0545537
-0.0456112
-0.431725
-0.417558
-0.404816
-0.388646
-0.367377
-0.341363
-0.311985
-0.281191
-0.250817
-0.222121
-0.19574
-0.171868
-0.150456
-0.13135
-0.114367
-0.0993199
-0.0860176
-0.074304
-0.0640867
-0.0548444
-0.425084
-0.411238
-0.399188
-0.384427
-0.36529
-0.34181
-0.314924
-0.286246
-0.257484
-0.229937
-0.204341
-0.180989
-0.159903
-0.140977
-0.124058
-0.108981
-0.0955744
-0.0836886
-0.07325
-0.0637648
-0.416887
-0.403471
-0.392085
-0.378611
-0.36147
-0.340462
-0.316123
-0.289707
-0.262745
-0.236527
-0.211875
-0.189177
-0.168532
-0.149887
-0.133121
-0.118093
-0.104654
-0.092659
-0.0820588
-0.0724063
-0.407463
-0.394581
-0.383833
-0.37152
-0.356208
-0.337551
-0.315748
-0.291689
-0.266679
-0.241955
-0.218395
-0.196478
-0.176383
-0.158111
-0.141581
-0.126679
-0.113274
-0.101231
-0.0905242
-0.0807742
-0.397128
-0.384874
-0.374747
-0.363472
-0.349802
-0.333328
-0.313983
-0.292319
-0.269377
-0.24629
-0.22396
-0.202943
-0.183497
-0.165686
-0.149469
-0.13476
-0.121453
-0.109421
-0.0986542
-0.0888635
-0.386182
-0.374638
-0.365121
-0.354769
-0.342549
-0.328053
-0.311033
-0.291741
-0.270937
-0.249605
-0.228629
-0.208623
-0.189921
-0.172651
-0.156817
-0.142365
-0.129213
-0.117246
-0.10646
-0.0966743
-0.374896
-0.364131
-0.355218
-0.345692
-0.334735
-0.321992
-0.307114
-0.290111
-0.271467
-0.251977
-0.232464
-0.213572
-0.195703
-0.179048
-0.163662
-0.149523
-0.136579
-0.124726
-0.113959
-0.104216
-0.363511
-0.353578
-0.345269
-0.336488
-0.326622
-0.315403
-0.302449
-0.287598
-0.271083
-0.253487
-0.235526
-0.217843
-0.200889
-0.18492
-0.170041
-0.156268
-0.143576
-0.131885
-0.12117
-0.111503
-0.352238
-0.34317
-0.335468
-0.327369
-0.318444
-0.308528
-0.297262
-0.28438
-0.269912
-0.254218
-0.237876
-0.221485
-0.205526
-0.190309
-0.175992
-0.162632
-0.150234
-0.138745
-0.128115
-0.118552
-0.341248
-0.333062
-0.32597
-0.318505
-0.310398
-0.301584
-0.291767
-0.280641
-0.268086
-0.254261
-0.239575
-0.224547
-0.209657
-0.195256
-0.181555
-0.168651
-0.156583
-0.145333
-0.134818
-0.125381
-0.33068
-0.323377
-0.316895
-0.310029
-0.30264
-0.294755
-0.286161
-0.276562
-0.265748
-0.253711
-0.240684
-0.227073
-0.21332
-0.199798
-0.186764
-0.17436
-0.162654
-0.151675
-0.1413
-0.13201
-0.320641
-0.314202
-0.308326
-0.302035
-0.295288
-0.28819
-0.280615
-0.272315
-0.263044
-0.252671
-0.241269
-0.229103
-0.216547
-0.203968
-0.191653
-0.17979
-0.168477
-0.157797
-0.147588
-0.138459
-0.311204
-0.305598
-0.300318
-0.294582
-0.288421
-0.281998
-0.275271
-0.268055
-0.260115
-0.25125
-0.241397
-0.230678
-0.219366
-0.20779
-0.19625
-0.184972
-0.174082
-0.163728
-0.153705
-0.144749
-0.30242
-0.297602
-0.2929
-0.2877
-0.282084
-0.276253
-0.270233
-0.263915
-0.257099
-0.249561
-0.241145
-0.23184
-0.221798
-0.21128
-0.200573
-0.189929
-0.179496
-0.169491
-0.159676
-0.1509
-0.294312
-0.290228
-0.286081
-0.281398
-0.276296
-0.270994
-0.265575
-0.259996
-0.254114
-0.247716
-0.240594
-0.232634
-0.223863
-0.21445
-0.204634
-0.194678
-0.184741
-0.175113
-0.165524
-0.156935
-0.286889
-0.283476
-0.279852
-0.275665
-0.271051
-0.266234
-0.261336
-0.256374
-0.25126
-0.245819
-0.239831
-0.233112
-0.225582
-0.2173
-0.208431
-0.199225
-0.189831
-0.180612
-0.171272
-0.162873
-0.28014
-0.27733
-0.274194
-0.270479
-0.266329
-0.261965
-0.257533
-0.253092
-0.248611
-0.243962
-0.238942
-0.233336
-0.226981
-0.219831
-0.211955
-0.203563
-0.194769
-0.186002
-0.176936
-0.168741
-0.274043
-0.271766
-0.269078
-0.265807
-0.262099
-0.258164
-0.254157
-0.250171
-0.246218
-0.242219
-0.238009
-0.23337
-0.228092
-0.222044
-0.215188
-0.207671
-0.199544
-0.191284
-0.182531
-0.174551
-0.268567
-0.266752
-0.26447
-0.261614
-0.258324
-0.254796
-0.251188
-0.24761
-0.244107
-0.240645
-0.2371
-0.23328
-0.228959
-0.223946
-0.218109
-0.211515
-0.204127
-0.196444
-0.188042
-0.180358
-0.26367
-0.262248
-0.260331
-0.257857
-0.254962
-0.251824
-0.248594
-0.245392
-0.242285
-0.239272
-0.236273
-0.23313
-0.22963
-0.225555
-0.220701
-0.215055
-0.208467
-0.201453
-0.193456
-0.186134
-0.259304
-0.258211
-0.256617
-0.254495
-0.251971
-0.249204
-0.246337
-0.24349
-0.240742
-0.238114
-0.235564
-0.232973
-0.230157
-0.2269
-0.222957
-0.218243
-0.212519
-0.206224
-0.198736
-0.191995
-0.255414
-0.254593
-0.253282
-0.251482
-0.249306
-0.246892
-0.244374
-0.241866
-0.239451
-0.237167
-0.234993
-0.23285
-0.23059
-0.228018
-0.224886
-0.22105
-0.216201
-0.210726
-0.203715
-0.197696
-0.251943
-0.251344
-0.250281
-0.248774
-0.24692
-0.244842
-0.242659
-0.240478
-0.23838
-0.236408
-0.234561
-0.232786
-0.230972
-0.228956
-0.226513
-0.223453
-0.219511
-0.214658
-0.209082
-0.201994
-0.248829
-0.248413
-0.247567
-0.246325
-0.244771
-0.243009
-0.241147
-0.239282
-0.237487
-0.235807
-0.234252
-0.232787
-0.231331
-0.229754
-0.227877
-0.225448
-0.222467
-0.21789
-0.214422
-0.205687
-0.246014
-0.245749
-0.245094
-0.244093
-0.242815
-0.24135
-0.239793
-0.238229
-0.236725
-0.235324
-0.234036
-0.23284
-0.231679
-0.230447
-0.229025
-0.227062
-0.225063
-0.220358
-0.219265
-0.208883
-0.24344
-0.243306
-0.24282
-0.242037
-0.241014
-0.239825
-0.238554
-0.237277
-0.236051
-0.234913
-0.233874
-0.232921
-0.232008
-0.231051
-0.229991
-0.228352
-0.227282
-0.222139
-0.223628
-0.211295
-0.241056
-0.241039
-0.240708
-0.240122
-0.239331
-0.238397
-0.237394
-0.236385
-0.235421
-0.234531
-0.233726
-0.232994
-0.232298
-0.23157
-0.230792
-0.22939
-0.229093
-0.223456
-0.22746
-0.212855
-0.238816
-0.238912
-0.238724
-0.238318
-0.237737
-0.237038
-0.23628
-0.235519
-0.234798
-0.23414
-0.233553
-0.233024
-0.232521
-0.23199
-0.231427
-0.230238
-0.230457
-0.224588
-0.230479
-0.213841
-0.236684
-0.236897
-0.236842
-0.2366
-0.236212
-0.235723
-0.235188
-0.234653
-0.234154
-0.233709
-0.233321
-0.232977
-0.232648
-0.232291
-0.231891
-0.230924
-0.23137
-0.225718
-0.232425
-0.21474
-0.234637
-0.234972
-0.235044
-0.234951
-0.234737
-0.234438
-0.234102
-0.23377
-0.23347
-0.233215
-0.233007
-0.23283
-0.232656
-0.23245
-0.232178
-0.231438
-0.231882
-0.226853
-0.233303
-0.215926
-0.232657
-0.233124
-0.233319
-0.233363
-0.233304
-0.233174
-0.233014
-0.23286
-0.232735
-0.232649
-0.232598
-0.232567
-0.232529
-0.232452
-0.232287
-0.231753
-0.232076
-0.227873
-0.233364
-0.217441
-0.230739
-0.231349
-0.231662
-0.231833
-0.231913
-0.231931
-0.231924
-0.231924
-0.23195
-0.232008
-0.232092
-0.232186
-0.232264
-0.232295
-0.232221
-0.23185
-0.232034
-0.228639
-0.232933
-0.21907
-0.228889
-0.229648
-0.230076
-0.230363
-0.230567
-0.230714
-0.230838
-0.230969
-0.231123
-0.231302
-0.2315
-0.231698
-0.231871
-0.231988
-0.23199
-0.231723
-0.231835
-0.229062
-0.232275
-0.220564
-0.227119
-0.228032
-0.228571
-0.228963
-0.229277
-0.229535