/*--------------------------------*- C++ -*----------------------------------*\
  =========                 |
  \\      /  F ield         | OpenFOAM: The Open Source CFD Toolbox
   \\    /   O peration     | Website:  https://openfoam.org
    \\  /    A nd           | Version:  7
     \\/     M anipulation  |
\*---------------------------------------------------------------------------*/
FoamFile
{
    version     2.0;
    format      ascii;
    class       volVectorField;
    location    "120.999914";
    object      U;
}
// * * * * * * * * * * * * * * * * * * * * * * * * * * * * * * * * * * * * * //

dimensions      [0 1 -1 0 0 0 0];

internalField   nonuniform List<vector> 
5800
(
(-0.123805 0.164017 -1.21675e-20)
(-0.138925 0.148756 1.37112e-21)
(-0.153162 0.128809 -4.23878e-21)
(-0.166084 0.102423 7.84467e-21)
(-0.177133 0.0676973 -1.02512e-20)
(-0.185604 0.0227915 -1.12528e-20)
(-0.19055 -0.0337622 -3.25987e-21)
(-0.190818 -0.102492 1.80734e-20)
(-0.186568 -0.181554 -1.52786e-20)
(-0.00269842 0.0413092 -3.09415e-21)
(-0.00815402 0.103231 -8.96229e-21)
(-0.0153794 0.149028 7.75817e-21)
(-0.0241628 0.180152 1.80529e-20)
(-0.034432 0.19865 3.16982e-21)
(-0.0459917 0.207073 5.94797e-22)
(-0.0585133 0.2081 -6.27404e-21)
(-0.0716149 0.20411 3.4764e-21)
(-0.0849042 0.196812 -1.96978e-20)
(-0.0979964 0.18703 1.26238e-20)
(-0.110515 0.174671 4.58385e-20)
(-0.122076 0.158867 -7.86337e-21)
(-0.132258 0.13818 1.18291e-20)
(-0.140569 0.110812 -7.05513e-21)
(-0.146426 0.074793 1.95632e-20)
(-0.149148 0.0282068 -2.97311e-21)
(-0.147923 -0.0304383 1.10237e-20)
(-0.141413 -0.101881 -7.01153e-20)
(-0.131369 -0.183542 6.68736e-21)
(-0.0041756 0.0418384 1.77438e-20)
(-0.0112965 0.10521 1.74549e-20)
(-0.0187458 0.152719 -3.77021e-21)
(-0.0267819 0.185581 -8.43922e-21)
(-0.0355803 0.205641 -3.04062e-21)
(-0.0451285 0.21531 1.17909e-20)
(-0.0552342 0.217198 1.7329e-20)
(-0.0655858 0.21368 -3.87876e-20)
(-0.0757967 0.206512 1.10428e-20)
(-0.0854372 0.196581 -1.36465e-20)
(-0.0940526 0.183856 -2.45285e-20)
(-0.101167 0.167509 -5.27474e-21)
(-0.106271 0.146111 -7.74741e-21)
(-0.108805 0.117848 -1.81365e-20)
(-0.108149 0.0807122 2.31178e-20)
(-0.103632 0.0327415 -2.18966e-20)
(-0.0946685 -0.0275443 3.00883e-21)
(-0.0793441 -0.101182 7.06504e-20)
(-0.0621208 -0.184819 -5.17149e-20)
(-0.00562589 0.0417779 -1.29761e-20)
(-0.0144142 0.105835 2.35708e-20)
(-0.0220858 0.154614 -3.31979e-20)
(-0.0293305 0.189007 1.5093e-20)
(-0.0365424 0.210586 -8.21353e-20)
(-0.043875 0.221552 -5.0319e-20)
(-0.0512679 0.224387 3.18529e-20)
(-0.05848 0.221421 7.70525e-20)
(-0.0651337 0.214431 -3.23363e-20)
(-0.0707565 0.204366 -2.19986e-20)
(-0.0748154 0.191269 -3.23909e-20)
(-0.0767402 0.174375 6.74272e-20)
(-0.0759306 0.152294 8.59295e-20)
(-0.0717554 0.123223 -6.99994e-20)
(-0.063563 0.0851606 -5.77757e-20)
(-0.0506551 0.036123 2.23049e-20)
(-0.0328247 -0.0253413 -5.11791e-20)
(-0.00709235 -0.100422 -1.87553e-21)
(0.018317 -0.186232 8.77923e-20)
(-0.00699247 0.0411378 5.27754e-20)
(-0.0173956 0.105093 1.61023e-20)
(-0.0252913 0.154647 5.36392e-20)
(-0.0317346 0.190305 -1.61601e-20)
(-0.0372968 0.213305 8.09692e-20)
(-0.0422725 0.225579 4.87047e-20)
(-0.0467235 0.22942 -5.855e-20)
(-0.0504807 0.227072 -7.57786e-20)
(-0.0531825 0.220304 6.98943e-20)
(-0.0543225 0.210121 -2.0286e-20)
(-0.0532977 0.19665 3.08131e-20)
(-0.0494501 0.179207 -1.22982e-19)
(-0.042094 0.156474 4.58107e-20)
(-0.0305256 0.126696 1.68252e-20)
(-0.0140682 0.0878933 9.49697e-21)
(0.00804756 0.0380849 3.7888e-20)
(0.0355709 -0.0241822 1.02516e-19)
(0.072602 -0.0998491 3.03617e-21)
(0.107019 -0.187686 -2.94972e-20)
(-0.00822662 0.0399529 3.69233e-20)
(-0.020141 0.103022 1.73812e-20)
(-0.028264 0.152819 -8.75615e-20)
(-0.033929 0.189415 -5.198e-20)
(-0.0378336 0.213676 -1.99409e-20)
(-0.0403812 0.227213 6.71314e-20)
(-0.0417387 0.232086 7.95817e-20)
(-0.041809 0.230403 -9.77779e-21)
(-0.0402569 0.223899 -1.87629e-20)
(-0.036557 0.213618 -1.71703e-20)
(-0.0300509 0.199775 -5.53235e-20)
(-0.0200048 0.181788 1.27555e-19)
(-0.00565541 0.158433 1.55e-22)
(0.0137574 0.128033 -5.32455e-20)
(0.0389253 0.0886555 -5.49999e-21)
(0.0707505 0.038349 1.10755e-20)
(0.108477 -0.0243717 3.88412e-20)
(0.157922 -0.0999012 -1.41542e-19)
(0.201243 -0.188871 6.65677e-20)
(0.281959 -0.282814 -1.66589e-20)
(-0.0092877 0.03828 -6.18592e-20)
(-0.0225641 0.0997162 3.42078e-20)
(-0.0309189 0.149198 3.99356e-20)
(-0.0358618 0.186347 3.35254e-20)
(-0.0381554 0.211637 7.21929e-20)
(-0.0382731 0.226332 1.05682e-20)
(-0.0364659 0.232216 -9.71267e-21)
(-0.0327057 0.231221 3.10345e-20)
(-0.0266943 0.225013 -4.6634e-20)
(-0.0179048 0.214659 -4.6234e-21)
(-0.00564376 0.200456 2.39881e-20)
(0.0108807 0.181936 -1.10466e-19)
(0.0324977 0.157984 -3.89598e-20)
(0.0600298 0.127024 3.60084e-20)
(0.0941754 0.087206 -9.08261e-20)
(0.136084 0.0366488 1.0424e-19)
(0.184262 -0.0262406 1.37351e-20)
(0.247238 -0.100891 -1.70384e-20)
(0.299403 -0.190696 -1.79199e-19)
(0.400325 -0.281644 1.0222e-19)
(-0.0101472 0.0361973 -2.48799e-20)
(-0.0246002 0.0953168 -2.53743e-20)
(-0.0331904 0.143918 -1.17773e-19)
(-0.0374937 0.181183 -5.17572e-20)
(-0.0382717 0.207202 -1.74187e-19)
(-0.0360236 0.222878 -1.46787e-20)
(-0.0310586 0.229695 -8.60007e-20)
(-0.0234108 0.229374 -6.18996e-20)
(-0.0128268 0.223479 1.37761e-19)
(0.00120329 0.213077 2.42046e-20)
(0.0193876 0.198537 6.13477e-20)
(0.0425583 0.179504 7.94795e-20)
(0.071602 0.154991 -2.6439e-20)
(0.107418 0.123537 -9.51144e-20)
(0.150725 0.0833807 8.74416e-20)
(0.203071 0.0328031 8.68865e-20)
(0.261976 -0.0302204 -9.04995e-20)
(0.339413 -0.103137 1.29672e-19)
(0.400849 -0.193623 2.02978e-19)
(0.522257 -0.279675 5.49335e-20)
(-0.0107915 0.0337991 6.55144e-20)
(-0.0262116 0.0900089 7.50869e-20)
(-0.0350374 0.137175 3.60777e-20)
(-0.0387999 0.174079 8.90273e-20)
(-0.0381943 0.200456 4.05244e-20)
(-0.0336995 0.216863 1.07404e-19)
(-0.0256525 0.224467 9.30799e-20)
(-0.0141369 0.224759 -3.70738e-20)
(0.0010523 0.219171 -6.0906e-20)
(0.0203949 0.208741 1.08916e-19)
(0.0445968 0.193894 -7.07267e-20)
(0.0745198 0.174382 5.33777e-20)
(0.11111 0.149347 7.4939e-20)
(0.155373 0.117455 8.69351e-20)
(0.208083 0.0770371 -2.60798e-19)
(0.271332 0.0266614 -1.30142e-19)
(0.341544 -0.0365668 -3.7082e-20)
(0.434008 -0.106945 1.55498e-19)
(0.505718 -0.197646 -3.39416e-19)
(0.645607 -0.276802 -1.2692e-19)
(-0.0112228 0.0311903 9.76625e-20)
(-0.0273899 0.0840085 -1.11891e-19)
(-0.0364451 0.129214 -1.15619e-19)
(-0.0397694 0.165254 -1.18415e-19)
(-0.037932 0.191561 -7.27919e-20)
(-0.0313461 0.208371 -1.72372e-20)
(-0.0203431 0.216548 -1.17831e-19)
(-0.00503736 0.217335 1.47281e-19)
(0.0147327 0.212012 4.34466e-20)
(0.0394122 0.20156 4.32237e-20)
(0.0696995 0.186437 -1.76978e-19)
(0.106489 0.166489 2.79007e-20)
(0.150807 0.140979 -2.37339e-20)
(0.203824 0.108699 -7.21426e-21)
(0.266405 0.068088 -9.71054e-20)
(0.341247 0.0181472 1.32331e-19)
(0.423829 -0.0452121 -2.8947e-20)
(0.531316 -0.112402 -3.46172e-19)
(0.614446 -0.202213 5.06423e-20)
(0.768032 -0.272411 2.31005e-19)
(-0.0114595 0.0284799 6.94956e-20)
(-0.0281568 0.0775502 -2.14037e-20)
(-0.0374248 0.120319 1.21449e-19)
(-0.0404023 0.154987 5.9893e-20)
(-0.0374819 0.180749 8.51127e-20)
(-0.0289706 0.197569 7.66047e-21)
(-0.0151587 0.206031 1.60197e-19)
(0.00383394 0.207136 -1.44115e-19)
(0.0281414 0.201992 -6.70099e-20)
(0.058185 0.191502 -2.82275e-20)
(0.0946676 0.176133 1.76047e-19)
(0.138541 0.155802 -3.17704e-20)
(0.190949 0.129882 2.93137e-20)
(0.253307 0.0973228 1.20428e-19)
(0.326647 0.0565907 1.19291e-19)
(0.414056 0.00733813 -2.14255e-19)
(0.510411 -0.0556814 -1.19935e-19)
(0.632063 -0.119107 6.99589e-20)
(0.726891 -0.206193 2.08775e-19)
(0.88639 -0.265553 -3.09534e-20)
(-0.0115343 0.0257743 -9.19582e-20)
(-0.028561 0.0708727 -4.82198e-20)
(-0.0380092 0.110796 -6.59601e-20)
(-0.0407017 0.143598 -6.3129e-20)
(-0.0368168 0.168316 7.12344e-20)
(-0.026521 0.184702 -1.37335e-19)
(-0.0100278 0.1931 1.34949e-19)
(0.0125705 0.194285 9.08796e-21)
(0.0414106 0.189189 -1.1636e-19)
(0.0769205 0.178621 -2.6825e-20)
(0.119845 0.163032 -1.11421e-19)
(0.171244 0.14239 5.02802e-20)
(0.232451 0.116176 -3.63507e-20)
(0.305143 0.0835039 -2.29893e-19)
(0.390566 0.0428382 1.08663e-20)
(0.491718 -0.00538168 7.77911e-20)
(0.602983 -0.0670414 1.74327e-19)
(0.736641 -0.126034 3.05446e-19)
(0.841282 -0.208024 4.7987e-20)
(0.996664 -0.255321 -3.11884e-19)
(-0.0114918 0.0231712 -1.26872e-19)
(-0.0286718 0.0642042 -1.69188e-20)
(-0.0382433 0.100951 2.35865e-19)
(-0.0406623 0.131431 -1.04361e-19)
(-0.0358687 0.154606 5.12311e-21)
(-0.0238612 0.170088 -9.87823e-20)
(-0.00474117 0.178031 -9.44922e-20)
(0.0214684 0.179012 1.45325e-20)
(0.0549538 0.173799 5.01957e-20)
(0.096205 0.163093 1.89914e-19)
(0.146069 0.147316 -6.107e-20)
(0.205791 0.126473 -2.687e-19)
(0.276944 0.100152 1.95521e-19)
(0.361436 0.0676242 1.75505e-19)
(0.460566 0.0274897 1.17736e-19)
(0.576396 -0.0191543 3.02335e-19)
(0.70241 -0.0779186 -9.86229e-20)
(0.84406 -0.131655 -4.68672e-19)
(0.953655 -0.206125 7.24024e-20)
(1.09448 -0.241274 8.77167e-20)
(-0.0113837 0.0207534 -6.54931e-20)
(-0.028569 0.057747 8.31082e-20)
(-0.0381709 0.0910759 -8.21026e-20)
(-0.0402535 0.118835 1.28179e-19)
(-0.0345072 0.139999 -1.45495e-19)
(-0.020743 0.154112 1.33916e-19)
(0.0010872 0.161197 2.6926e-20)
(0.0310807 0.161672 -1.42693e-19)
(0.0695386 0.156159 1.19821e-19)
(0.11709 0.145258 -1.31175e-19)
(0.17477 0.129347 1.65831e-19)
(0.24405 0.108501 9.08789e-20)
(0.326754 0.0823851 7.38631e-20)
(0.424793 0.050458 -1.18125e-19)
(0.539055 0.0116324 -2.20876e-20)
(0.669469 -0.0326103 -1.61816e-19)
(0.807688 -0.0866674 1.1652e-19)
(0.951165 -0.134349 8.19999e-21)
(1.05837 -0.199452 -1.88983e-19)
(1.17613 -0.2237 8.18093e-20)
(-0.0112627 0.0185832 1.50394e-20)
(-0.0283286 0.0516649 5.34891e-20)
(-0.0378167 0.0814257 1.15144e-20)
(-0.0393991 0.106144 4.23203e-20)
(-0.0325178 0.12489 1.00282e-19)
(-0.016779 0.137209 9.3012e-20)
(0.00805356 0.143058 6.53612e-20)
(0.0422586 0.142743 8.2015e-20)
(0.0863299 0.136771 -1.66873e-19)
(0.141118 0.125657 -2.38169e-20)
(0.207927 0.109769 -2.71444e-19)
(0.288455 0.0892196 -8.75475e-20)
(0.384576 0.0637873 -1.02798e-19)
(0.497722 0.0331572 1.68988e-19)
(0.62749 -0.00328624 -2.73919e-19)
(0.770381 -0.0440641 5.20466e-20)
(0.915351 -0.0917356 2.60569e-20)
(1.05284 -0.13297 2.73072e-19)
(1.14969 -0.187868 -1.2636e-19)
(1.23961 -0.203564 9.80132e-20)
(-0.0111758 0.016698 1.94461e-19)
(-0.0280081 0.0460724 6.7002e-20)
(-0.0371671 0.0722062 1.19699e-19)
(-0.0379578 0.0936584 1.06932e-19)
(-0.0295815 0.109666 1.79754e-20)
(-0.011425 0.119846 -2.24953e-19)
(0.0169792 0.124149 -1.64896e-19)
(0.0561581 0.122823 -1.48651e-19)
(0.106879 0.116303 1.4071e-19)
(0.170285 0.105055 8.49521e-20)
(0.247935 0.0894516 3.07395e-19)
(0.341621 0.0696417 -2.55915e-19)
(0.452842 0.0455946 9.66727e-20)
(0.581709 0.0171786 -1.90034e-19)
(0.725354 -0.0156726 1.45071e-19)
(0.875954 -0.0519202 -5.317e-20)
(1.01983 -0.0921207 7.39171e-20)
(1.14334 -0.127238 -2.45417e-19)
(1.22357 -0.172127 1.95815e-19)
(1.28509 -0.18221 8.44336e-20)
(-0.0111558 0.0151071 -2.67738e-19)
(-0.02763 0.0410269 1.04405e-19)
(-0.0361527 0.0635603 -1.623e-19)
(-0.0357071 0.0816248 -1.50731e-19)
(-0.0252661 0.0946864 5.41707e-20)
(-0.00398076 0.102495 2.68562e-19)
(0.0288911 0.105051 -1.94095e-19)
(0.0741871 0.102603 2.46089e-20)
(0.133005 0.0955589 -5.54214e-20)
(0.206785 0.0843782 -5.56412e-20)
(0.297212 0.0694537 1.42897e-19)
(0.405783 0.0510295 3.22521e-19)
(0.532894 0.0292355 -1.17201e-20)
(0.676289 0.00405663 2.90338e-20)
(0.82957 -0.0241473 -1.12822e-20)
(0.980718 -0.0551252 -1.90668e-19)
(1.11485 -0.0876787 1.85082e-19)
(1.21812 -0.11774 2.84714e-19)
(1.27867 -0.153433 7.30499e-20)
(1.31457 -0.16097 -1.44155e-19)
(-0.0112152 0.0137912 -6.854e-20)
(-0.0271693 0.0365268 2.11756e-19)
(-0.0346364 0.0555616 -6.92718e-21)
(-0.0323382 0.0702253 1.45048e-19)
(-0.0190323 0.0802617 6.61257e-20)
(0.00638212 0.0856019 6.30046e-20)
(0.0449585 0.0863543 -7.81307e-20)
(0.0978823 0.0828168 1.34321e-19)
(0.166579 0.0754257 2.40376e-20)
(0.25267 0.0646682 -8.12778e-20)
(0.35764 0.0509917 -4.84169e-20)
(0.482044 0.0347249 -2.17852e-19)
(0.624215 0.0160925 -2.2273e-19)
(0.778574 -0.00493721 5.38241e-20)
(0.934843 -0.0279085 -1.80882e-20)
(1.07832 -0.0534398 -7.30046e-20)
(1.19531 -0.0791109 -2.4715e-19)
(1.27516 -0.105518 -2.89037e-19)
(1.31618 -0.13289 -3.16561e-19)
(1.331 -0.140971 3.82768e-20)
(-0.01134 0.0127045 1.45166e-20)
(-0.0265451 0.0325139 -1.91116e-19)
(-0.0324094 0.0482131 -1.77372e-19)
(-0.0274628 0.0595684 -1.16552e-19)
(-0.0102601 0.0666336 2.06943e-19)
(0.0205624 0.0695621 -4.42462e-19)
(0.0663845 0.0686144 8.98363e-20)
(0.128725 0.0641891 -5.09829e-20)
(0.209232 0.0567933 1.47351e-19)
(0.309425 0.0469754 1.85224e-20)
(0.430031 0.0352369 -2.29219e-19)
(0.56982 0.0219302 1.03301e-19)
(0.724116 0.00722898 3.37962e-20)
(0.883595 -0.00910743 1.04124e-19)
(1.03494 -0.0269094 -1.08655e-19)
(1.16334 -0.0474096 1.96627e-19)
(1.25856 -0.0676471 -7.95004e-20)
(1.31513 -0.0915177 4.57718e-20)
(1.33875 -0.111244 -2.25121e-20)
(1.33743 -0.12326 -8.90926e-20)
(-0.0114881 0.0117804 2.22272e-19)
(-0.0256196 0.0288837 -3.97003e-20)
(-0.0291981 0.0414543 -2.44681e-20)
(-0.0206333 0.0496883 1.40356e-19)
(0.00170799 0.0539662 -7.08108e-20)
(0.0394493 0.0546919 3.98353e-19)
(0.0942715 0.052315 1.86306e-20)
(0.167931 0.0473728 1.21664e-19)
(0.262055 0.0404748 -2.03885e-19)
(0.377587 0.0322355 -1.56563e-19)
(0.513756 0.0231633 2.3301e-19)
(0.666663 0.0135091 -1.92934e-19)
(0.828066 0.00317859 1.56646e-19)
(0.98541 -0.00846801 -2.97997e-20)
(1.12433 -0.0217582 4.84726e-19)
(1.23257 -0.0380877 -1.09518e-20)
(1.30472 -0.0545843 1.62733e-19)
(1.34068 -0.0762599 2.27404e-19)
(1.34969 -0.0893953 1.31191e-19)
(1.33652 -0.109259 1.94505e-19)
(-0.0115908 0.0109396 1.06875e-19)
(-0.0242038 0.0254998 -2.28218e-19)
(-0.0246787 0.0351756 7.5733e-20)
(-0.0113722 0.0405551 1.21831e-19)
(0.0175155 0.0423464 1.01561e-19)
(0.0638373 0.0412218 -2.89349e-19)
(0.129489 0.0378427 1.29554e-19)
(0.216262 0.0329092 5.89497e-20)
(0.325368 0.027139 2.53438e-20)
(0.456531 0.0211762 1.05677e-19)
(0.606669 0.0154282 -6.33206e-20)
(0.768574 0.00985581 1.93812e-19)
(0.930619 0.00387801 -1.64577e-19)
(1.07855 -0.00363417 -1.68566e-19)
(1.19939 -0.0134311 -2.90317e-19)
(1.28532 -0.0266741 -9.22626e-20)
(1.33585 -0.0408771 -1.90565e-19)
(1.35519 -0.060054 -2.01886e-19)
(1.35278 -0.0694087 -1.72229e-19)
(1.33011 -0.101304 -8.61278e-20)
(-0.0115581 0.0101006 1.62191e-19)
(-0.0220698 0.0222145 -3.96158e-20)
(-0.0184971 0.0292402 -1.04642e-19)
(0.000796737 0.0320948 -3.34316e-19)
(0.0377425 0.031801 -2.64494e-20)
(0.094353 0.0293044 3.46379e-19)
(0.172575 0.0254877 -7.76168e-20)
(0.273911 0.0212139 6.64926e-20)
(0.398618 0.0172792 1.58322e-19)
(0.54447 0.0142665 4.77324e-20)
(0.70538 0.0123117 -3.09136e-19)
(0.870728 0.0108748 -7.66962e-20)
(1.02658 0.00876389 -5.33826e-20)
(1.15912 0.00444695 1.54041e-19)
(1.25884 -0.00297179 4.41025e-19)
(1.32291 -0.0142008 -1.36638e-19)
(1.35493 -0.0270098 -8.63842e-20)
(1.36158 -0.0437318 2.21036e-19)
(1.35093 -0.053807 1.15599e-19)
(1.32956 -0.0756555 4.90225e-20)
(-0.0112861 0.00918971 -1.73853e-19)
(-0.0189664 0.0188894 1.21788e-19)
(-0.0102902 0.023511 -2.44374e-19)
(0.0163198 0.0242188 2.73899e-20)
(0.0628694 0.0223257 1.6701e-19)
(0.131409 0.0190434 -3.51017e-19)
(0.223684 0.0154659 -3.66051e-19)
(0.340467 0.01259 6.6862e-21)
(0.480419 0.0112131 -2.16529e-19)
(0.638665 0.011705 -1.53415e-19)
(0.805783 0.0137219 2.45961e-19)
(0.968375 0.0160665 3.92646e-19)
(1.11197 0.0169803 -1.52841e-19)
(1.22527 0.0147747 -9.7493e-20)
(1.30331 0.00871607 -2.43677e-19)
(1.34777 -0.00135562 1.84081e-20)
(1.36498 -0.0132257 -7.49652e-21)
(1.36227 -0.028577 -9.24171e-21)
(1.34748 -0.0373417 2.11343e-20)
(1.32435 -0.0592258 2.71697e-19)
(-0.0106654 0.00814982 1.73279e-19)
(-0.0146342 0.0154162 1.81814e-19)
(0.000295532 0.0178796 2.37026e-19)
(0.0355932 0.0168588 9.31868e-20)
(0.0932547 0.0139241 -1.25845e-19)
(0.175183 0.0105324 -8.73204e-20)
(0.28258 0.00795597 -1.22581e-20)
(0.414948 0.00725651 1.24234e-19)
(0.568686 0.00909842 1.14732e-19)
(0.735779 0.0134366 7.43545e-20)
(0.903701 0.0192566 -9.07504e-21)
(1.05761 0.0246808 -1.87733e-19)
(1.18448 0.0276015 1.51389e-19)
(1.27697 0.0264804 -2.16816e-20)
(1.33469 0.0209716 6.87521e-20)
(1.36268 0.0114844 3.03613e-20)
(1.36859 0.000106866 -2.0862e-20)
(1.35968 -0.0139014 5.69451e-20)
(1.342 -0.0229305 -4.06208e-20)
(1.3193 -0.0420452 -2.71137e-19)
(-0.00958779 0.00694653 8.96102e-20)
(-0.00882044 0.0117329 -3.26968e-19)
(0.0135891 0.0122906 1.58199e-19)
(0.0589496 0.0099991 6.56902e-20)
(0.129125 0.0066458 -1.91272e-19)
(0.22562 0.00389509 1.85805e-19)
(0.348659 0.00313364 1.04411e-19)
(0.495882 0.00537032 -2.48534e-19)
(0.660848 0.0109465 3.02244e-20)
(0.832297 0.0191847 -4.75442e-20)
(0.995468 0.0283009 1.1214e-19)
(1.13583 0.0358833 -8.56136e-20)
(1.24346 0.0397937 -1.30027e-19)
(1.31547 0.0389089 1.91937e-19)
(1.35536 0.0333835 -9.23142e-20)
(1.37023 0.0240941 3.71883e-20)
(1.36798 0.0130501 -8.44757e-20)
(1.35494 -0.000101188 8.89932e-22)
(1.33598 -0.00890296 -7.31795e-20)
(1.31364 -0.0265849 7.56573e-20)
(-0.00795201 0.00557069 -2.28729e-20)
(-0.00128986 0.00783382 -9.62088e-20)
(0.0298835 0.00676049 -1.0803e-19)
(0.0866481 0.00370236 6.12484e-20)
(0.170569 0.000614955 -1.79283e-20)
(0.282431 -0.000689058 1.12733e-19)
(0.420981 0.00118826 8.013e-20)
(0.581409 0.00703048 7.67031e-20)
(0.754092 0.0166275 2.51149e-20)
(0.924937 0.0284981 6.68379e-20)
(1.07834 0.0401392 1.12157e-19)
(1.2018 0.0488879 2.49274e-20)
(1.28949 0.052897 -5.59703e-20)
(1.34271 0.0516244 4.16885e-20)
(1.36774 0.0457254 1.38087e-19)
(1.37261 0.0364265 -2.45618e-19)
(1.36463 0.0255596 7.75532e-20)
(1.34911 0.0131619 8.80573e-20)
(1.32953 0.00426978 2.7753e-20)
(1.30783 -0.0120012 5.34869e-20)
(-0.00566408 0.00403784 -3.57587e-20)
(0.00817439 0.00376852 2.10052e-19)
(0.0494271 0.00138346 7.26313e-20)
(0.118863 -0.00187894 -2.20348e-19)
(0.217527 -0.00395808 -5.91146e-20)
(0.345094 -0.00298006 1.11028e-19)
(0.498298 0.00231433 5.37905e-20)
(0.669404 0.0122616 1.87721e-19)
(0.845625 0.0258759 -6.9641e-21)
(1.01098 0.0408129 8.77568e-21)
(1.15065 0.054057 -9.52411e-20)
(1.25548 0.0630358 -1.48924e-19)
(1.32395 0.0664434 -1.58373e-20)
(1.36082 0.0643734 -9.31608e-20)
(1.37398 0.057911 7.71078e-20)
(1.37148 0.0484849 3.71397e-19)
(1.35967 0.0377331 1.43163e-19)
(1.34268 0.0258837 -1.37239e-19)
(1.323 0.0169291 -6.65873e-20)
(1.30198 0.00180004 2.58701e-20)
(-0.0026427 0.00238245 1.74119e-19)
(0.0197564 -0.000356458 -2.54324e-19)
(0.0724138 -0.00366333 -2.40001e-19)
(0.15567 -0.00650316 3.24521e-19)
(0.269776 -0.00678441 9.68609e-20)
(0.41285 -0.0026965 -5.95087e-20)
(0.579108 0.00668119 -1.73013e-19)
(0.757623 0.0209905 -2.14365e-19)
(0.932927 0.0383091 1.42765e-19)
(1.08848 0.0555211 2.49089e-20)
(1.21175 0.0694155 7.53771e-20)
(1.29766 0.0778276 6.18634e-20)
(1.34861 0.0801368 -3.07542e-21)
(1.37181 0.0770377 -4.15017e-20)
(1.37582 0.0699317 -8.29653e-20)
(1.36806 0.0603231 -2.21809e-19)
(1.35375 0.0496216 -8.57231e-20)
(1.336 0.0381967 2.83208e-19)
(1.31644 0.0290891 4.59576e-20)
(1.29607 0.0148913 -6.60296e-20)
(0.00118488 0.000660182 -1.80939e-19)
(0.0336028 -0.00438426 1.78279e-19)
(0.0989664 -0.00813804 4.58009e-21)
(0.197027 -0.009857 -7.35138e-20)
(0.326909 -0.0075218 -2.40776e-20)
(0.484711 0.000447999 -2.06365e-20)
(0.661714 0.0143941 -1.26398e-19)
(0.843872 0.0330328 1.52705e-19)
(1.01394 0.0534638 -2.52653e-19)
(1.15631 0.0720353 4.01536e-22)
(1.26183 0.0856935 -4.52762e-20)
(1.32962 0.0929188 -2.23366e-20)
(1.36528 0.0938168 5.13083e-20)
(1.37746 0.0895872 -1.12495e-19)
(1.37461 0.0818221 -6.47283e-21)
(1.36319 0.0719955 6.11636e-20)
(1.34729 0.0612926 -1.4888e-19)
(1.32919 0.0501528 -1.17559e-21)
(1.30989 0.0408412 2.4592e-22)
(1.29014 0.0274082 1.17238e-19)
(0.00588156 -0.00106015 2.60229e-20)
(0.0498251 -0.00812195 4.88598e-20)
(0.129129 -0.0117458 9.5069e-20)
(0.242755 -0.0115791 -5.1043e-20)
(0.388327 -0.00581013 -1.64876e-19)
(0.559476 0.00670164 4.24098e-20)
(0.74433 0.0254618 9.66186e-20)
(0.926169 0.0481004 5.2378e-20)
(1.0872 0.0708438 1.77247e-19)
(1.21408 0.089836 -4.82761e-20)
(1.30166 0.1025 -2.88243e-20)
(1.35287 0.108097 2.4265e-20)
(1.37564 0.107419 -6.91628e-20)
(1.37917 0.102041 -9.57057e-20)
(1.37129 0.0936298 -6.23293e-20)
(1.35738 0.0835547 5.09147e-20)
(1.34053 0.0727895 1.26228e-19)
(1.32232 0.0618105 -6.06331e-20)
(1.30334 0.0522335 -9.32414e-20)
(1.28415 0.0394014 1.40299e-20)
(0.0114978 -0.00269811 4.61258e-20)
(0.0684861 -0.0113467 1.03191e-20)
(0.162851 -0.0141573 -1.27287e-19)
(0.292526 -0.011289 1.67287e-19)
(0.453239 -0.00131009 3.72379e-20)
(0.63579 0.0162364 -1.9294e-19)
(0.825199 0.0397833 7.34269e-20)
(1.00288 0.0658285 -9.59481e-20)
(1.15183 0.089966 4.72676e-21)
(1.262 0.108497 1.53562e-20)
(1.33233 0.119563 4.43628e-20)
(1.36891 0.123252 4.95202e-21)
(1.38111 0.120938 1.95049e-19)
(1.37802 0.114441 7.70007e-20)
(1.36655 0.1054 -3.59745e-20)
(1.35098 0.0950389 -4.17733e-20)
(1.33358 0.0841458 2.3713e-20)
(1.3154 0.0732052 2.432e-20)
(1.29676 0.0633073 -4.00272e-20)
(1.27807 0.0509408 -4.35634e-20)
(0.01807 -0.00416388 -5.40449e-20)
(0.089593 -0.0138156 3.51669e-21)
(0.199977 -0.0150288 2.60304e-20)
(0.345857 -0.00861675 -7.05227e-20)
(0.520686 0.00626219 1.34572e-19)
(0.712212 0.0291233 7.67301e-20)
(0.902707 0.0571543 -7.70258e-20)
(1.0728 0.0858131 -5.06854e-20)
(1.20752 0.110395 4.55661e-20)
(1.30068 0.127691 -7.04243e-20)
(1.35506 0.136715 5.17471e-20)
(1.37913 0.138342 -1.14149e-21)
(1.38287 0.134403 1.65824e-21)
(1.37482 0.126831 -3.81021e-20)
(1.3608 0.117169 1.07887e-19)
(1.34415 0.106473 -8.97334e-21)
(1.32646 0.0953805 4.5221e-20)
(1.3084 0.0843631 -6.48685e-20)
(1.29009 0.0740931 4.91208e-20)
(1.27187 0.0620666 -1.99872e-20)
(0.0256169 -0.00536011 8.87853e-20)
(0.113091 -0.0152754 1.0245e-19)
(0.240238 -0.0140197 7.51841e-20)
(0.402115 -0.00322886 -1.06173e-20)
(0.589575 0.0171091 1.52922e-20)
(0.787306 0.0453249 1.34757e-21)
(0.975488 0.0772904 1.66822e-19)
(1.13516 0.107646 -4.89437e-20)
(1.25437 0.13176 3.41801e-20)
(1.33099 0.147184 -1.70856e-19)
(1.37109 0.153863 2.45965e-20)
(1.38469 0.153369 7.4095e-20)
(1.38181 0.147851 -3.33895e-20)
(1.3701 0.139246 6.85924e-20)
(1.35433 0.128956 -8.90958e-20)
(1.33699 0.117869 1.20714e-19)
(1.31917 0.106502 4.02704e-21)
(1.30128 0.0953 -3.98827e-20)
(1.28332 0.0846121 1.46162e-21)
(1.26553 0.0728148 5.87953e-20)
(0.0341361 -0.00618406 -1.67747e-19)
(0.138858 -0.0154709 4.08598e-20)
(0.283257 -0.0108096 -1.56537e-20)
(0.46054 0.0051502 -1.14519e-19)
(0.658744 0.0313368 -4.20863e-20)
(0.859727 0.0647018 -7.96632e-20)
(1.04247 0.099856 -6.84144e-20)
(1.1896 0.130944 -7.289e-20)
(1.29281 0.153764 7.42716e-20)
(1.3539 0.166816 3.6564e-20)
(1.38153 0.170966 -1.05932e-19)
(1.38658 0.168357 -2.63911e-20)
(1.37861 0.161318 -1.24274e-20)
(1.36424 0.151711 -5.16799e-20)
(1.34728 0.140769 -8.82789e-21)
(1.32953 0.129228 -2.13431e-20)
(1.3117 0.11751 -8.57509e-20)
(1.294 0.106024 4.13725e-20)
(1.27638 0.0948786 5.09917e-20)
(1.259 0.0832088 -1.24876e-20)
(0.0436008 -0.0065302 6.08045e-21)
(0.1667 -0.0141548 -7.44658e-20)
(0.328548 -0.00511409 3.43948e-20)
(0.520269 0.016722 -2.37929e-20)
(0.727015 0.0489501 2.90285e-20)
(0.928289 0.0870311 1.31398e-19)
(1.10292 0.124493 -5.63074e-20)
(1.23607 0.15536 1.38869e-19)
(1.32346 0.176175 6.76976e-21)
(1.37037 0.186488 6.79284e-20)
(1.38736 0.188016 5.92609e-21)
(1.38555 0.183333 4.64558e-20)
(1.37373 0.17483 9.74129e-21)
(1.35748 0.164233 4.66718e-21)
(1.33973 0.152602 -6.8068e-20)
(1.32175 0.140539 1.20721e-20)
(1.30399 0.128396 6.21368e-20)
(1.28652 0.116536 2.72406e-21)
(1.26926 0.1049 -3.03793e-20)
(1.25227 0.0932647 1.23818e-20)
(0.0539573 -0.00629339 2.05074e-20)
(0.196354 -0.011097 6.03637e-20)
(0.375534 0.00330272 6.48616e-20)
(0.580375 0.031604 -1.76701e-20)
(0.793256 0.0698581 8.29817e-20)
(0.992012 0.112027 -1.65312e-20)
(1.15637 0.150842 1.32949e-19)
(1.27481 0.180595 -1.67167e-19)
(1.34704 0.198817 -2.94093e-20)
(1.38132 0.206138 -2.92002e-20)
(1.3894 0.205018 -3.5057e-20)
(1.38219 0.198319 -8.40048e-21)
(1.36751 0.188396 1.19341e-20)
(1.34995 0.176804 -4.41113e-20)
(1.3317 0.164439 4.53242e-20)
(1.31364 0.151785 -1.97751e-20)
(1.29601 0.139146 -1.53441e-20)
(1.2788 0.126832 -1.41958e-20)
(1.26191 0.114677 -8.99887e-21)
(1.2453 0.102991 -2.8589e-20)
(0.0651242 -0.00537256 9.71197e-20)
(0.227487 -0.00609427 -9.29091e-20)
(0.423562 0.0146162 1.09684e-20)
(0.63991 0.0498251 -1.17767e-20)
(0.856431 0.093884 -3.01223e-20)
(1.05014 0.139363 -6.138e-20)
(1.20264 0.178559 -9.37648e-21)
(1.30619 0.206394 4.06051e-20)
(1.36429 0.221557 1.8627e-20)
(1.38754 0.225731 -2.25111e-20)
(1.38831 0.221979 2.52116e-20)
(1.37692 0.213325 -5.4178e-21)
(1.36016 0.202012 -5.04405e-20)
(1.34172 0.189407 7.40155e-20)
(1.3232 0.176253 2.06275e-20)
(1.30516 0.162943 -1.12675e-20)
(1.28772 0.149741 1.37058e-20)
(1.2708 0.136903 2.12271e-20)
(1.25431 0.124206 2.1043e-20)
(1.23808 0.11239 2.23079e-20)
(0.0769928 -0.00367469 -1.01076e-19)
(0.259711 0.00102059 7.73864e-20)
(0.471929 0.0289332 3.35914e-20)
(0.697937 0.071326 -6.83058e-20)
(0.915637 0.12078 -1.45888e-20)
(1.10213 0.168691 -5.5961e-20)
(1.24174 0.20732 2.21354e-20)
(1.33071 0.23254 -3.64732e-20)
(1.37593 0.244295 2.80076e-21)
(1.38972 0.245239 5.86089e-21)
(1.38459 0.238901 1.10957e-20)
(1.37003 0.228347 -4.22162e-20)
(1.35181 0.215656 4.35141e-20)
(1.33282 0.202008 -3.10442e-20)
(1.31419 0.18801 -8.50179e-21)
(1.29627 0.173983 4.16871e-21)
(1.27908 0.160157 -9.54443e-21)
(1.2625 0.146736 -2.24454e-20)
(1.24642 0.133479 -9.65426e-22)
(1.23058 0.121458 -1.55051e-20)
(0.0894286 -0.00111883 -1.24825e-20)
(0.292587 0.0103706 -3.63991e-20)
(0.519903 0.0462863 -1.2359e-20)
(0.75357 0.0959642 1.96204e-20)
(0.970119 0.150241 -1.20954e-20)
(1.14766 0.19965 1.22774e-20)
(1.27384 0.236827 2.8724e-20)
(1.34889 0.258849 2.53926e-20)
(1.3826 0.266947 2.00665e-20)
(1.38844 0.264637 -4.49535e-21)
(1.37864 0.25577 -1.1823e-20)
(1.36173 0.243362 1.40121e-20)
(1.34254 0.229294 -6.90906e-21)
(1.32326 0.214566 8.83418e-21)
(1.30466 0.199671 -5.41835e-21)
(1.28694 0.184869 1.17337e-20)
(1.27006 0.170365 -3.2423e-21)
(1.25386 0.156312 1.39389e-20)
(1.23822 0.14248 -3.49836e-21)
(1.2228 0.130185 2.10637e-21)
(0.102274 0.00236017 -2.96179e-22)
(0.32564 0.0220281 -1.90946e-22)
(0.56675 0.0666321 -4.33661e-21)
(0.806002 0.123522 2.14101e-20)
(1.01928 0.181923 1.3687e-20)
(1.18655 0.231884 -1.04506e-20)
(1.29921 0.266807 -7.82042e-21)
(1.36127 0.285161 -2.38434e-21)
(1.38488 0.289441 -1.12393e-20)
(1.38416 0.283893 -6.53762e-22)
(1.37074 0.272561 5.0694e-22)
(1.35217 0.258332 -4.90604e-21)
(1.33238 0.242879 -3.1804e-21)
(1.31301 0.227032 -7.29331e-21)
(1.29458 0.21119 -7.89077e-21)
(1.27714 0.195561 -7.02678e-22)
(1.26062 0.180333 2.97711e-21)
(1.24486 0.165609 3.26229e-21)
(1.22971 0.151189 3.80514e-21)
(1.21474 0.138559 5.48666e-21)
(0.115353 0.00680835 1.51307e-20)
(0.358375 0.0360103 -2.3112e-21)
(0.61176 0.089852 -4.01515e-21)
(0.85452 0.153717 1.01723e-20)
(1.06269 0.215451 2.0124e-20)
(1.21879 0.265041 -8.81218e-21)
(1.31819 0.297006 -7.08587e-21)
(1.36836 0.311329 -1.31499e-20)
(1.38327 0.311703 -1.17417e-20)
(1.37722 0.302964 2.20801e-21)
(1.36109 0.28923 -2.01152e-21)
(1.34141 0.273206 -8.47259e-22)
(1.32134 0.256352 -4.71281e-21)
(1.30207 0.239349 -7.61178e-21)
(1.2839 0.222514 -1.70841e-21)
(1.26683 0.206018 -5.97047e-22)
(1.25075 0.190027 -2.23586e-22)
(1.23548 0.174601 1.59193e-21)
(1.22086 0.159573 6.14326e-21)
(1.2064 0.146562 5.04501e-21)
(0.128475 0.0122501 -9.25013e-21)
(0.390291 0.0522773 -1.40147e-20)
(0.654261 0.115757 -1.84234e-20)
(0.898525 0.186211 2.42546e-20)
(1.10003 0.250432 2.27492e-20)
(1.24447 0.29878 2.54297e-22)
(1.33116 0.327188 8.28968e-21)
(1.37064 0.337216 2.28055e-20)
(1.37818 0.333657 2.46025e-20)
(1.36793 0.321794 1.56886e-20)
(1.34985 0.305719 -3.80721e-20)
(1.32952 0.287918 1.57288e-20)
(1.30942 0.269648 -7.03969e-21)
(1.29041 0.251455 1.6402e-20)
(1.27262 0.233589 -4.19485e-22)
(1.25601 0.216192 -2.72325e-21)
(1.24043 0.199412 1.55275e-21)
(1.2257 0.183257 1.44805e-20)
(1.21166 0.167599 -5.78646e-21)
(1.19775 0.15418 -3.87112e-22)
(0.141441 0.0186862 -3.0117e-20)
(0.420895 0.0707315 6.72782e-20)
(0.693643 0.144092 6.48182e-21)
(0.937528 0.220627 -8.30814e-20)
(1.13115 0.286464 -1.47929e-20)
(1.26375 0.332772 3.4216e-20)
(1.33851 0.35713 -7.75151e-20)
(1.36854 0.362689 -6.02019e-22)
(1.36997 0.355218 6.36668e-21)
(1.3565 0.340312 -1.73932e-21)
(1.33711 0.321954 2.00249e-20)
(1.31651 0.302393 -3.24627e-20)
(1.29663 0.282691 4.98083e-21)
(1.278 0.263281 -1.15924e-20)
(1.26071 0.244357 -8.9769e-21)
(1.24463 0.226036 8.59505e-21)
(1.22963 0.208445 -8.82447e-22)
(1.21551 0.191545 -2.26426e-20)
(1.20212 0.175245 8.60175e-22)
(1.18872 0.161402 -1.0532e-20)
(0.15405 0.0260932 2.26804e-20)
(0.449715 0.0912208 -3.8374e-20)
(0.729369 0.174548 -3.01479e-21)
(0.971159 0.256552 -7.05409e-20)
(1.15598 0.323143 -4.1677e-20)
(1.27686 0.366697 3.36393e-20)
(1.34061 0.386621 -3.84102e-20)
(1.36244 0.387614 4.18292e-21)
(1.35893 0.376292 3.02381e-20)
(1.3431 0.358434 -8.43802e-21)
(1.32296 0.337851 3.11835e-21)
(1.30242 0.316544 9.8252e-21)
(1.28293 0.295403 -3.40267e-20)
(1.26485 0.274757 4.3502e-20)
(1.24815 0.254759 4.04208e-20)
(1.23269 0.235499 -9.36954e-21)
(1.21833 0.217083 -1.43237e-20)
(1.20492 0.199424 1.64147e-20)
(1.19224 0.182521 9.42713e-21)
(1.17925 0.168208 2.15921e-20)
(0.1661 0.0344232 -8.75804e-20)
(0.476315 0.113542 3.83606e-20)
(0.760981 0.206766 -2.73193e-20)
(0.999154 0.293554 7.34376e-20)
(1.17455 0.360067 7.57848e-21)
(1.28408 0.400251 6.92606e-20)
(1.33783 0.415453 4.21287e-20)
(1.35269 0.411855 -4.71372e-20)
(1.34529 0.396774 -6.5158e-20)
(1.32785 0.376063 -3.60314e-20)
(1.30743 0.353313 -1.94197e-20)
(1.28724 0.33028 2.48863e-20)
(1.26834 0.3077 -9.15881e-21)
(1.25092 0.285811 -9.70735e-21)
(1.23493 0.26473 -5.48828e-21)
(1.22019 0.24453 3.05513e-22)
(1.20655 0.225275 -8.99121e-21)
(1.19392 0.206849 -8.57522e-21)
(1.18199 0.189431 -1.05786e-20)
(1.16951 0.174565 -1.4443e-20)