/*--------------------------------*- C++ -*----------------------------------*\
  =========                 |
  \\      /  F ield         | OpenFOAM: The Open Source CFD Toolbox
   \\    /   O peration     | Website:  https://openfoam.org
    \\  /    A nd           | Version:  7
     \\/     M anipulation  |
\*---------------------------------------------------------------------------*/
FoamFile
{
    version     2.0;
    format      ascii;
    class       surfaceScalarField;
    location    "1";
    object      phi;
}
// * * * * * * * * * * * * * * * * * * * * * * * * * * * * * * * * * * * * * //

dimensions      [0 3 -1 0 0 0 0];

internalField   nonuniform List<scalar> 
613
(
0.000778179
-8.72247e-05
0.000782091
-5.91115e-05
0.000775484
-3.14995e-05
-1.0229e-05
0.000766804
0.000843261
-7.84752e-05
0.000838137
-5.39869e-05
0.00082356
-1.69228e-05
1.74299e-06
0.000811588
0.000958672
-7.79257e-05
0.000913452
-8.76655e-06
0.000901225
-4.69632e-06
1.66324e-05
0.000886336
0.000852923
-3.74398e-05
0.000790682
5.34749e-05
0.000756537
2.94483e-05
-1.31515e-05
0.000786321
0.000253246
0.00012245
-2.30232e-05
5.27248e-06
0.000341787
8.10106e-05
0.000342859
8.58719e-05
0.000340291
8.51321e-05
7.87749e-05
0.000770147
-2.38772e-05
0.000772537
-1.83668e-05
0.000771443
-4.74305e-06
0.000777496
-1.51614e-05
0.000778293
-6.32748e-06
0.00078416
1.33e-06
0.000789617
1.13133e-05
0.00078823
3.41377e-05
0.00078214
5.46323e-05
0.000759812
8.4026e-05
0.000732312
0.000109823
0.000698689
0.00012544
0.000655656
0.000131959
0.000616789
0.000125336
0.000586172
0.00010215
0.000563045
6.57579e-05
0.000546651
2.22151e-05
0.000538126
-2.00629e-05
0.000548956
-6.30036e-05
0.0005705
-9.86737e-05
0.000598196
-0.000135182
0.000636982
-0.000167596
0.000681114
-0.0001837
0.000719712
-0.000192195
0.00075533
-0.000196767
0.000791973
-0.000194688
0.000823338
-0.0001882
0.000849001
-0.000175074
0.000872336
-0.000159087
0.000890822
-0.000144021
0.000906319
-0.000129126
0.00092157
-0.000116305
0.000933151
-9.82634e-05
0.000939932
-7.70389e-05
0.000944514
-6.07106e-05
0.000946778
-4.09557e-05
0.00094472
-2.04275e-05
0.000940573
-5.5151e-06
0.00093951
6.99785e-06
0.000935296
2.33398e-05
0.000926273
4.43701e-05
0.000919169
6.10599e-05
0.000909362
7.95045e-05
0.000890058
0.000112984
0.000869036
0.000137513
0.000846064
0.000150901
0.000821518
0.000172069
0.000808195
0.000183057
0.000794338
0.000197866
0.000762403
0.0002409
0.000721888
0.000274561
0.000671056
0.000289123
0.000604098
0.00030187
0.000539595
0.000283662
0.000488348
0.000230702
0.000443654
0.000184391
0.00040073
0.000161123
0.000362496
0.000144409
0.00033504
0.000120796
0.000320384
9.61401e-05
0.000315259
8.23526e-05
0.000314901
8.13682e-05
0.000315024
8.57487e-05
0.000311984
8.81724e-05
8.6505e-05
0.000810226
-2.2515e-05
0.00080714
-1.52813e-05
0.000801062
1.33498e-06
0.000809021
-2.31201e-05
0.000820619
-1.79255e-05
0.000837733
-1.57838e-05
0.00085019
-1.14353e-06
0.000849533
3.47947e-05
0.000844246
5.99188e-05
0.000823086
0.000105186
0.000785847
0.000147062
0.000742085
0.000169203
0.000695317
0.000178726
0.000637221
0.000183432
0.000593624
0.000145748
0.000583099
7.62824e-05
0.000583093
2.22218e-05
0.00058514
-2.21107e-05
0.000592965
-7.08285e-05
0.000605376
-0.000111084
0.000630695
-0.000160502
0.000667746
-0.000204647
0.000707517
-0.000223471
0.00074447
-0.000229149
0.000780692
-0.000232989
0.000818261
-0.000232258
0.000850752
-0.000220691
0.000876128
-0.00020045
0.000899358
-0.000182317
0.000919389
-0.000164053
0.00093622
-0.000145957
0.000952995
-0.000133079
0.000965141
-0.00011041
0.000969731
-8.16292e-05
0.000972209
-6.31886e-05
0.000971957
-4.07032e-05
0.000966551
-1.50223e-05
0.000963755
-2.71865e-06
0.000963662
7.0904e-06
0.00095948
2.75224e-05
0.000951913
5.19364e-05
0.000946101
6.68726e-05
0.000935217
9.03879e-05
0.000913267
0.000134934
0.000881752
0.000169028
0.000845878
0.000186775
0.000818815
0.000199132
0.000802679
0.000199193
0.000787105
0.000213441
0.000770864
0.00025714
0.000742844
0.000302581
0.000688949
0.000343018
0.000625816
0.000365002
0.000566269
0.000343209
0.000505981
0.00029099
0.000452199
0.000238173
0.00041198
0.000201342
0.000380761
0.000175628
0.000352258
0.000149299
0.000324706
0.000123692
0.000301002
0.000106056
0.000285083
9.7288e-05
0.000277497
9.33343e-05
0.000275384
9.02852e-05
8.61858e-05
0.000864696
-8.75248e-07
0.000863209
-1.37943e-05
0.000859068
5.47635e-06
0.000858656
-2.27079e-05
0.0008807
-3.99702e-05
0.000900472
-3.55556e-05
0.000912211
-1.2882e-05
0.000918823
2.8182e-05
0.000905637
7.31048e-05
0.000884846
0.000125977
0.000846319
0.000185589
0.000789111
0.000226411
0.000710694
0.000257143
0.000620948
0.000273178
0.000544205
0.000222491
0.000475726
0.000144761
0.000438708
5.92395e-05
0.000434408
-1.78105e-05
0.000441236
-7.76566e-05
0.000466422
-0.00013627
0.000512545
-0.000206624
0.000570817
-0.000262919
0.000629942
-0.000282596
0.000689736
-0.000288943
0.00074754
-0.000290792
0.000796935
-0.000281654
0.000837968
-0.000261723
0.000872398
-0.000234881
0.000898858
-0.000208777
0.000920785
-0.00018598
0.000943347
-0.000168518
0.000961445
-0.000151177
0.000970542
-0.000119506
0.000973488
-8.45754e-05
0.000971501
-6.12022e-05
0.000965592
-3.47941e-05
0.000959269
-8.69876e-06
0.00095604
5.1034e-07
0.000956798
6.33238e-06
0.000954955
2.93648e-05
0.000949725
5.7167e-05
0.0009422
7.43975e-05
0.000933969
9.86183e-05
0.000920858
0.000148046
0.000889901
0.000199984
0.000844111
0.000232564
0.000801735
0.000241508
0.000772915
0.000228013
0.000760752
0.000225603
0.000752922
0.000264971
0.000724666
0.000330837
0.000679841
0.000387843
0.000632061
0.000412782
0.000573222
0.000402048
0.000511006
0.000353206
0.000467688
0.000281491
0.000444236
0.000224795
0.000423859
0.000196005
0.0003928
0.000180358
0.00035214
0.000164353
0.000314428
0.000143768
0.000290249
0.000121467
0.000280744
0.000102839
0.000280864
9.01653e-05
8.19636e-05
0.000738011
4.74349e-05
0.000734836
-1.06192e-05
0.0007622
-2.1888e-05
0.000767017
-2.75247e-05
0.000784945
-5.78987e-05
0.000816178
-6.67883e-05
0.000851953
-4.86573e-05
0.000873736
6.39976e-06
0.000881879
6.49614e-05
0.000875843
0.000132014
0.000862774
0.000198657
0.000835616
0.00025357
0.000761601
0.000331158
0.000663358
0.000371421
0.000533347
0.000352502
0.000419171
0.000258937
0.000369762
0.000108648
0.000350348
1.60375e-06
0.000365247
-9.25554e-05
0.000400214
-0.000171237
0.00045694
-0.00026335
0.00053295
-0.000338929
0.000611689
-0.000361336
0.000681874
-0.000359128
0.000740076
-0.000348995
0.000786971
-0.000328548
0.000823328
-0.00029808
0.000851401
-0.000262954
0.000875628
-0.000233003
0.000897508
-0.00020786
0.00091698
-0.00018799
0.000925481
-0.000159678
0.000924144
-0.00011817
0.000922374
-8.28054e-05
0.000917553
-5.63812e-05
0.0009109
-2.81412e-05
0.00091252
-1.03187e-05
0.000920124
-7.09412e-06
0.00092026
6.1965e-06
0.000911917
3.77085e-05
0.000904167
6.49162e-05
0.000897707
8.08581e-05
0.000884258
0.000112067
0.000860505
0.000171799
0.000829389
0.000231101
0.000793324
0.00026863
0.000758588
0.000276244
0.000733714
0.000252887
0.000717454
0.000241863
0.000696508
0.000285916
0.000666365
0.00036098
0.000632456
0.000421752
0.000587722
0.000457517
0.000535266
0.000454504
0.000498092
0.000390379
0.000482208
0.000297376
0.000473382
0.000233621
0.00045592
0.000213467
0.000424336
0.000211942
0.000387035
0.000201654
0.000356349
0.000337253
0.000327395
0.000322599
0.000150148
0.000151633
0.00019857
0.000283688
0.000371616
0.000464621
0.000552315
0.000618788
0.000634974
0.000608031
0.000594646
0.000595749
0.000589096
0.00054336
0.000456773
0.000386207
0.000309763
0.000240401
0.00020718
0.000243259
0.000319713
0.000409239
0.000490074
0.000552827
0.000598468
0.00063921
0.000672668
0.000699325
0.000727316
0.000752271
0.000769787
0.000781254
0.000792177
0.000804117
0.000817493
0.000838151
0.000860891
0.000870397
0.000864302
0.000854398
0.000844158
0.000827452
0.000804546
0.000779206
0.000742541
0.00069549
0.000662536
0.000652365
0.000644553
0.000624332
0.000592713
0.000550926
0.000506747
0.000482494
0.000482036
0.000485205
0.000478118
0.000460019
0.00043706
)
;

boundaryField
{
    inlet
    {
        type            calculated;
        value           nonuniform 0();
    }
    outlet
    {
        type            calculated;
        value           nonuniform 0();
    }
    wall
    {
        type            calculated;
        value           nonuniform 0();
    }
    wedge1
    {
        type            wedge;
        value           nonuniform List<scalar> 
344
(
9.67371e-15
-2.00627e-14
1.10588e-14
3.87188e-16
8.15913e-15
7.48311e-15
-9.73647e-15
1.04053e-14
-1.02662e-15
2.16281e-15
6.01574e-15
6.26406e-16
5.59743e-15
-7.95663e-16
-1.33336e-15
3.95818e-15
4.42164e-15
2.44483e-15
-9.10236e-16
1.0492e-14
4.98181e-15
2.46464e-15
6.80975e-15
-1.0402e-15
-1.62888e-15
4.94007e-15
3.98391e-15
5.74538e-15
-6.19654e-16
4.61427e-15
3.42997e-15
5.38113e-15
2.50206e-15
-6.91747e-16
8.69097e-15
4.5981e-15
3.65177e-15
6.99427e-15
-7.09568e-16
9.97452e-15
4.35106e-15
5.66213e-15
7.74177e-15
-2.47155e-16
1.14502e-14
2.48662e-15
4.36403e-15
7.1323e-15
-1.02418e-16
1.22578e-14
2.08996e-15
7.66233e-15
5.95347e-15
-2.92912e-16
1.10423e-14
-1.89247e-17
1.31195e-14
2.33776e-15
-6.40595e-16
5.49413e-15
-1.91547e-15
1.63502e-14
-1.24552e-15
-1.07106e-15
-1.83928e-15
-3.10243e-15
2.43797e-14
-5.2865e-15
-1.5551e-15
-8.40136e-15
-5.40682e-15
3.06137e-14
-9.95955e-15
-2.19594e-15
-1.35526e-14
-6.6723e-15
3.44639e-14
-1.28117e-14
-2.70104e-15
-1.7565e-14
-5.85528e-15
3.95585e-14
-1.30186e-14
-3.43624e-15
-2.32068e-14
-6.22853e-15
4.16581e-14
-1.51297e-14
-3.75227e-15
-2.79996e-14
-4.85563e-15
3.72378e-14
-1.21083e-14
-3.34491e-15
-3.07518e-14
-1.18686e-16
3.08228e-14
-2.06238e-15
-3.13805e-15
-2.14322e-14
3.75068e-15
2.12593e-14
3.51587e-15
-1.99054e-15
-5.80674e-15
6.45141e-15
8.05582e-15
5.41631e-15
-3.983e-16
1.55509e-15
8.72139e-15
-3.96506e-15
8.33109e-15
6.41588e-16
7.81155e-15
1.14906e-14
-1.09682e-14
1.23073e-14
1.24868e-15
1.70432e-14
1.46361e-14
-1.86765e-14
1.78727e-14
2.06514e-15
2.71682e-14
1.69675e-14
-2.76836e-14
2.25006e-14
2.96994e-15
3.46119e-14
1.86175e-14
-3.36162e-14
2.53471e-14
3.36351e-15
3.6951e-14
2.11332e-14
-3.67493e-14
2.61253e-14
3.58354e-15
3.63666e-14
2.18512e-14
-3.92456e-14
2.64009e-14
3.71686e-15
3.4201e-14
2.13381e-14
-4.08131e-14
2.60544e-14
3.60269e-15
3.16718e-14
2.12672e-14
-3.94389e-14
2.47325e-14
3.32941e-15
2.83305e-14
1.9948e-14
-3.71587e-14
2.22697e-14
3.01631e-15
2.45788e-14
1.77799e-14
-3.4867e-14
2.00878e-14
2.66588e-15
2.1848e-14
1.66306e-14
-3.11925e-14
1.82314e-14
2.36187e-15
1.95438e-14
1.49385e-14
-2.83164e-14
1.6178e-14
2.2149e-15
1.72224e-14
1.28401e-14
-2.6686e-14
1.46909e-14
1.95176e-15
1.43622e-14
1.12937e-14
-2.22639e-14
1.24369e-14
1.44058e-15
1.08948e-14
9.23346e-15
-1.73512e-14
9.236e-15
9.82008e-16
8.02485e-15
7.01907e-15
-1.4226e-14
7.17238e-15
6.61131e-16
5.74741e-15
5.19551e-15
-9.13105e-15
4.98862e-15
2.87033e-16
3.59435e-15
3.21265e-15
-3.93226e-15
2.11284e-15
1.18185e-17
2.6094e-15
1.12645e-15
-1.05522e-15
7.65386e-16
-2.43649e-17
2.40534e-15
-2.95036e-16
1.40724e-15
4.6279e-17
-8.47182e-17
4.8669e-16
-1.46791e-15
4.56799e-15
-1.58192e-15
-3.27024e-16
-2.25566e-15
-3.5791e-15
8.55423e-15
-3.59858e-15
-6.47807e-16
-4.09236e-15
-5.13457e-15
1.16677e-14
-4.70182e-15
-8.408e-16
-5.15302e-15
-6.599e-15
1.55801e-14
-6.79547e-15
-1.07213e-15
-7.91848e-15
-9.76361e-15
2.28779e-14
-1.08107e-14
-1.67588e-15
-1.26034e-14
-1.16466e-14
2.8905e-14
-1.42917e-14
-2.41376e-15
-1.73339e-14
-1.21637e-14
3.24761e-14
-1.66683e-14
-2.8652e-15
-2.10728e-14
-1.49571e-14
3.48627e-14
-1.81038e-14
-2.90992e-15
-2.19945e-14
-1.7205e-14
3.41319e-14
-1.79046e-14
-2.63391e-15
-1.95273e-14
-1.80546e-14
3.73662e-14
-1.81488e-14
-2.51436e-15
-1.8092e-14
-2.1661e-14
4.68999e-14
-2.0841e-14
-3.00458e-15
-2.15217e-14
-2.52204e-14
5.36538e-14
-2.55774e-14
-3.86123e-15
-2.79006e-14
-2.57941e-14
5.91368e-14
-3.06222e-14
-4.53011e-15
-3.35899e-14
-2.64046e-14
6.45503e-14
-3.28511e-14
-4.89875e-15
-3.73074e-14
-2.54863e-14
6.09979e-14
-3.14235e-14
-4.95347e-15
-3.66249e-14
-2.08306e-14
5.00575e-14
-2.76312e-14
-4.39333e-15
-3.03028e-14
-1.62755e-14
4.06392e-14
-2.26617e-14
-3.40192e-15
-2.24122e-14
-1.41377e-14
3.54316e-14
-1.85658e-14
-2.62718e-15
-1.7628e-14
-1.27859e-14
3.15881e-14
-1.5963e-14
-2.30895e-15
-1.66262e-14
-1.08902e-14
2.64335e-14
-1.39016e-14
-2.2365e-15
-1.7059e-14
-8.94035e-15
2.09597e-14
-1.20229e-14
-2.13716e-15
-1.64812e-14
-7.90935e-15
1.75836e-14
-1.04669e-14
-1.8878e-15
-1.34431e-15
-7.97592e-15
1.67533e-14
-9.24674e-15
-1.54873e-15
-1.42183e-15
-8.44968e-15
1.71303e-14
-8.3199e-15
-1.24631e-15
-1.37921e-15
-8.65315e-15
1.74014e-14
-7.62502e-15
-1.04343e-15
-1.2146e-15
-8.46331e-15
1.70346e-14
-7.06013e-15
-9.24831e-16
)
;
    }
    wedge2
    {
        type            wedge;
        value           nonuniform List<scalar> 
344
(
9.66333e-15
-2.00673e-14
1.10483e-14
3.80512e-16
8.14705e-15
7.47691e-15
-9.74628e-15
1.03927e-14
-1.03158e-15
2.1521e-15
6.00428e-15
6.22161e-16
5.58521e-15
-8.00927e-16
-1.33714e-15
3.9538e-15
4.41399e-15
2.43499e-15
-9.16811e-16
1.04906e-14
4.97206e-15
2.45636e-15
6.79892e-15
-1.04274e-15
-1.63594e-15
4.93538e-15
3.9747e-15
5.73162e-15
-6.25765e-16
4.61201e-15
3.42023e-15
5.37319e-15
2.49427e-15
-6.97502e-16
8.68713e-15
4.59496e-15
3.6425e-15
6.98176e-15
-7.13465e-16
9.9737e-15
4.34041e-15
5.65612e-15
7.72887e-15
-2.50393e-16
1.145e-14
2.48384e-15
4.35594e-15
7.1203e-15
-1.07634e-16
1.2256e-14
2.07907e-15
7.65609e-15
5.94058e-15
-2.96707e-16
1.10412e-14
-2.07946e-17
1.3114e-14
2.31979e-15
-6.43042e-16
5.49443e-15
-1.92369e-15
1.63432e-14
-1.25404e-15
-1.07333e-15
-1.83918e-15
-3.10425e-15
2.43756e-14
-5.30064e-15
-1.55964e-15
-8.40031e-15
-5.41655e-15
3.0609e-14
-9.9694e-15
-2.20169e-15
-1.35536e-14
-6.67284e-15
3.4459e-14
-1.28225e-14
-2.7075e-15
-1.75677e-14
-5.86606e-15
3.95569e-14
-1.30306e-14
-3.44475e-15
-2.32115e-14
-6.22981e-15
4.1655e-14
-1.51391e-14
-3.76017e-15
-2.80071e-14
-4.86782e-15
3.72366e-14
-1.21149e-14
-3.3561e-15
-3.07581e-14
-1.18346e-16
3.08182e-14
-2.07467e-15
-3.14266e-15
-2.14436e-14
3.74016e-15
2.12594e-14
3.50522e-15
-1.99862e-15
-5.81826e-15
6.4509e-15
8.04995e-15
5.40706e-15
-4.0648e-16
1.54606e-15
8.70976e-15
-3.96577e-15
8.32191e-15
6.31111e-16
7.80903e-15
1.14899e-14
-1.09733e-14
1.22949e-14
1.24393e-15
1.7041e-14
1.46233e-14
-1.86786e-14
1.78631e-14
2.0618e-15
2.71666e-14
1.6966e-14
-2.76897e-14
2.24909e-14
2.9686e-15
3.46045e-14
1.86032e-14
-3.36202e-14
2.53425e-14
3.36098e-15
3.69481e-14
2.11288e-14
-3.67521e-14
2.61179e-14
3.58196e-15
3.63569e-14
2.18362e-14
-3.92489e-14
2.63978e-14
3.71262e-15
3.41976e-14
2.13331e-14
-4.08122e-14
2.60475e-14
3.60067e-15
3.16615e-14
2.12514e-14
-3.94404e-14
2.47271e-14
3.32319e-15
2.8325e-14
1.99404e-14
-3.71551e-14
2.22601e-14
3.01329e-15
2.45703e-14
1.77648e-14
-3.48673e-14
2.00797e-14
2.66103e-15
2.1843e-14
1.66218e-14
-3.11872e-14
1.822e-14
2.36117e-15
1.95346e-14
1.49232e-14
-2.83153e-14
1.61688e-14
2.21008e-15
1.72142e-14
1.28307e-14
-2.66797e-14
1.46781e-14
1.94901e-15
1.43527e-14
1.12788e-14
-2.2263e-14
1.24242e-14
1.43513e-15
1.08887e-14
9.22268e-15
-1.73456e-14
9.22134e-15
9.79736e-16
8.01697e-15
7.00458e-15
-1.42234e-14
7.16018e-15
6.57482e-16
5.74009e-15
5.18386e-15
-9.12452e-15
4.97462e-15
2.84858e-16
3.58499e-15
3.19837e-15
-3.92888e-15
2.10025e-15
8.46012e-18
2.60188e-15
1.11437e-15
-1.04647e-15
7.51901e-16
-2.52675e-17
2.39748e-15
-3.0566e-16
1.41076e-15
3.2239e-17
-8.69532e-17
4.7765e-16
-1.4774e-15
4.57232e-15
-1.59147e-15
-3.28954e-16
-2.26275e-15
-3.59013e-15
8.55783e-15
-3.60678e-15
-6.49242e-16
-4.09771e-15
-5.14466e-15
1.16714e-14
-4.70978e-15
-8.38832e-16
-5.15611e-15
-6.61091e-15
1.55831e-14
-6.80205e-15
-1.06964e-15
-7.91964e-15
-9.77454e-15
2.28797e-14
-1.08176e-14
-1.67519e-15
-1.26038e-14
-1.16585e-14
2.89075e-14
-1.42984e-14
-2.41538e-15
-1.73356e-14
-1.21771e-14
3.24752e-14
-1.66741e-14
-2.86903e-15
-2.10766e-14
-1.497e-14
3.48622e-14
-1.81081e-14
-2.91398e-15
-2.19987e-14
-1.72186e-14
3.41284e-14
-1.79074e-14
-2.63732e-15
-1.953e-14
-1.80688e-14
3.73601e-14
-1.81517e-14
-2.51565e-15
-1.80942e-14
-2.16729e-14
4.6891e-14
-2.08456e-14
-3.00745e-15
-2.15249e-14
-2.52293e-14
5.36444e-14
-2.55846e-14
-3.86658e-15
-2.79055e-14
-2.58022e-14
5.91273e-14
-3.06303e-14
-4.53688e-15
-3.3596e-14
-2.64111e-14
6.45429e-14
-3.28585e-14
-4.90551e-15
-3.73135e-14
-2.54906e-14
6.09923e-14
-3.14298e-14
-4.95928e-15
-3.66301e-14
-2.08343e-14
5.00532e-14
-2.76358e-14
-4.39728e-15
-3.03063e-14
-1.62787e-14
4.06363e-14
-2.26643e-14
-3.40442e-15
-2.24149e-14
-1.41395e-14
3.54301e-14
-1.85675e-14
-2.62928e-15
-1.76306e-14
-1.27863e-14
3.15873e-14
-1.59644e-14
-2.31099e-15
-1.66289e-14
-1.08897e-14
2.64335e-14
-1.39024e-14
-2.23794e-15
-1.70612e-14
-8.93901e-15
2.09606e-14
-1.20226e-14
-2.1376e-15
-1.64825e-14
-7.90727e-15
1.75852e-14
-1.04657e-14
-1.88742e-15
-1.34061e-15
-7.97314e-15
1.67554e-14
-9.24518e-15
-1.54786e-15
-1.41759e-15
-8.44652e-15
1.71325e-14
-8.31835e-15
-1.24528e-15
-1.37486e-15
-8.64982e-15
1.74035e-14
-7.62363e-15
-1.04241e-15
-1.21034e-15
-8.46024e-15
1.70364e-14
-7.05897e-15
-9.23953e-16
)
;
    }
    axis
    {
        type            empty;
        value           nonuniform 0();
    }
    procBoundary15to9
    {
        type            processor;
        value           nonuniform List<scalar> 
70
(
7.2899e-05
5.51995e-05
3.81068e-05
1.89092e-05
-8.15927e-05
-8.69446e-05
-8.25633e-05
-6.98083e-05
2.05338e-05
1.59773e-05
5.83727e-06
9.10773e-06
5.531e-06
-7.19774e-06
-1.67701e-05
-3.2751e-05
-4.85423e-05
-6.16972e-05
-8.23229e-05
-9.18172e-05
-8.89266e-05
-8.64695e-05
-7.15332e-05
-4.26307e-05
-5.82106e-06
2.8588e-05
5.21739e-05
7.71293e-05
0.000107486
0.000128809
0.000139568
0.000153598
0.000161149
0.000158046
0.000156836
0.000149411
0.000135752
0.000125535
0.00011363
0.000101053
8.66828e-05
7.02577e-05
5.61291e-05
3.86917e-05
2.24847e-05
9.66204e-06
-5.93451e-06
-1.91257e-05
-3.53471e-05
-5.39559e-05
-6.96974e-05
-9.36797e-05
-0.000116491
-0.000127929
-0.000147523
-0.000169734
-0.000184009
-0.000208965
-0.000234046
-0.000238291
-0.000234912
-0.000219159
-0.000179456
-0.000139697
-0.000118198
-0.000106176
-9.334e-05
-8.14841e-05
-0.000341205
-7.72276e-05
)
;
    }
    procBoundary15to10
    {
        type            processor;
        value           nonuniform List<scalar> 2(0.000331324 0.000304254);
    }
    procBoundary15to14
    {
        type            processor;
        value           nonuniform List<scalar> 4(-0.000763854 -0.000852011 -0.000959221 -0.000893409);
    }
    procBoundary15to16
    {
        type            processor;
        value           nonuniform List<scalar> 3(0.000275704 0.000285086 0.000319978);
    }
    procBoundary15to20
    {
        type            processor;
        value           uniform -0.000375776;
    }
    procBoundary15to21
    {
        type            processor;
        value           nonuniform List<scalar> 
70
(
8.50896e-05
0.000184271
0.000174921
-4.14472e-05
0.000174454
0.000140563
0.000112696
9.49617e-05
8.45842e-05
-9.74404e-05
-1.21046e-05
-6.88245e-05
-0.000112643
-0.000145827
-0.000159794
-0.000136351
-6.0073e-05
4.87745e-05
0.000158957
0.000212042
0.000252466
0.000337811
0.000417157
0.000439089
0.000329504
0.000185092
7.09662e-05
-5.93348e-05
-0.000207316
-0.000339804
-0.000428455
-0.000442171
-0.000421881
-0.000394636
-0.00036929
-0.000331538
-0.000289611
-0.000260994
-0.000232816
-0.000205506
-0.000171145
-0.000129093
-9.47449e-05
-6.97574e-05
-4.8799e-05
-3.30588e-05
-1.66004e-05
1.22916e-05
4.76123e-05
7.51568e-05
9.75638e-05
0.000134973
0.000197138
0.000267766
0.000315681
0.000309198
0.000263058
0.000249675
0.000306137
0.000392599
0.000463539
0.000501696
0.000478757
0.000390838
0.000294207
0.000240707
0.000231566
0.000234902
0.000416331
0.000222383
)
;
    }
}


// ************************************************************************* //
