/*--------------------------------*- C++ -*----------------------------------*\
  =========                 |
  \\      /  F ield         | OpenFOAM: The Open Source CFD Toolbox
   \\    /   O peration     | Website:  https://openfoam.org
    \\  /    A nd           | Version:  7
     \\/     M anipulation  |
\*---------------------------------------------------------------------------*/
FoamFile
{
    version     2.0;
    format      ascii;
    class       volVectorField;
    location    "1";
    object      U;
}
// * * * * * * * * * * * * * * * * * * * * * * * * * * * * * * * * * * * * * //

dimensions      [0 1 -1 0 0 0 0];

internalField   nonuniform List<vector> 
344
(
(3.4178 -0.344835 -1.16163e-14)
(3.45936 -0.272362 -7.00732e-15)
(3.48703 -0.225509 -1.31188e-14)
(3.42753 -0.150009 -4.9772e-15)
(3.49576 -0.320096 -4.91941e-15)
(3.41392 -0.144927 -1.03868e-14)
(3.39744 0.0236052 -6.73768e-15)
(3.29757 0.102719 -9.99163e-15)
(3.62823 -0.384773 -1.17504e-14)
(3.53579 -0.369063 -1.40961e-14)
(3.4192 -0.202702 -1.38739e-14)
(3.34698 -0.106981 -1.2337e-14)
(3.137 -0.0581324 -6.82571e-15)
(2.74735 0.349809 -6.39822e-15)
(2.83573 0.18359 -5.84992e-15)
(2.54184 0.27348 -7.64138e-15)
(0.906001 -0.270456 -1.31726e-14)
(0.643182 -0.0581363 -1.08223e-14)
(0.29594 0.0709098 -5.09856e-15)
(-0.510413 -0.402368 -1.64622e-15)
(1.66282 0.408562 4.59844e-15)
(1.67116 0.431735 5.25746e-15)
(1.67113 0.414176 5.38572e-15)
(1.64539 0.359592 5.26847e-15)
(3.38865 -0.198098 -1.16181e-14)
(3.42257 -0.195905 -5.71639e-15)
(3.37442 -0.132459 -1.13929e-14)
(3.38218 -0.177496 -3.76529e-15)
(3.41274 -0.16334 -1.23939e-14)
(3.44157 -0.0856654 -3.17554e-15)
(3.49263 -0.0666683 -1.18456e-14)
(3.46156 0.00919683 -3.21092e-15)
(3.46356 0.107999 -1.15536e-14)
(3.40862 0.166855 -2.55509e-15)
(3.31686 0.273282 -1.2921e-14)
(3.20996 0.323529 -7.82747e-16)
(3.00928 0.277944 -1.40025e-14)
(2.82575 0.258709 -1.644e-15)
(2.64475 0.184584 -1.41098e-14)
(2.51104 -0.00136282 2.52806e-16)
(2.43613 -0.191841 -1.41195e-14)
(2.36751 -0.317234 -6.86963e-16)
(2.37527 -0.423181 -1.52318e-14)
(2.45995 -0.549142 -9.16745e-16)
(2.55218 -0.685984 -1.65806e-14)
(2.68695 -0.779261 -2.00158e-15)
(2.88969 -0.830084 -1.79435e-14)
(3.07659 -0.885349 -5.11063e-15)
(3.22292 -0.893103 -1.81057e-14)
(3.39612 -0.858931 -5.88503e-15)
(3.56756 -0.847723 -1.88698e-14)
(3.68567 -0.788632 -8.8758e-15)
(3.80585 -0.69699 -1.78645e-14)
(3.91352 -0.649436 -1.04803e-14)
(3.9637 -0.579393 -1.81041e-14)
(4.03662 -0.493509 -1.08004e-14)
(4.11194 -0.431164 -1.73998e-14)
(4.11809 -0.34762 -1.24964e-14)
(4.1518 -0.258119 -1.67718e-14)
(4.19735 -0.186478 -1.30513e-14)
(4.17782 -0.109682 -1.59653e-14)
(4.16683 -0.0311736 -1.26746e-14)
(4.15938 0.0237457 -1.62744e-14)
(4.13654 0.083823 -1.32466e-14)
(4.11876 0.184725 -1.49199e-14)
(4.0769 0.256331 -1.34168e-14)
(4.04668 0.32531 -1.5799e-14)
(3.99617 0.468341 -1.40345e-14)
(3.88315 0.548774 -1.54804e-14)
(3.78944 0.570784 -1.73608e-14)
(3.68081 0.694874 -1.65688e-14)
(3.5781 0.795654 -1.75613e-14)
(3.55948 0.839808 -1.79947e-14)
(3.46915 1.0039 -1.52905e-14)
(3.28331 1.15575 -1.12815e-14)
(3.0945 1.171 -1.03601e-14)
(2.81789 1.18298 -8.02308e-15)
(2.49258 1.12214 -5.49296e-15)
(2.23888 0.907732 -4.6644e-15)
(2.04373 0.710183 -4.01379e-15)
(1.85778 0.620484 -2.17951e-15)
(1.67154 0.562275 -4.7344e-16)
(1.51901 0.476699 6.88619e-16)
(1.42813 0.388019 1.65191e-15)
(1.39244 0.342969 2.59865e-15)
(1.38845 0.348026 3.46063e-15)
(1.39289 0.370395 3.92552e-15)
(1.3879 0.379996 4.15571e-15)
(1.36259 0.372142 3.8234e-15)
(3.21496 0.0480231 -9.84988e-15)
(3.27288 0.082116 -1.15624e-14)
(3.21037 0.115692 -1.00469e-14)
(3.194 0.0828594 -1.2071e-14)
(3.29815 0.13197 -7.84649e-15)
(3.29112 0.108618 -1.10574e-14)
(3.39905 0.188951 -8.41712e-15)
(3.40907 0.315278 -7.44946e-15)
(3.38208 0.392077 -9.29722e-15)
(3.41472 0.570757 -5.40995e-15)
(3.28232 0.698164 -6.15135e-15)
(3.1005 0.768337 -6.32605e-15)
(2.93148 0.855223 -1.87876e-15)
(2.74184 0.823886 -3.8001e-15)
(2.43588 0.704231 -1.40342e-15)
(2.30179 0.565613 -5.40062e-15)
(2.35569 0.376329 1.79776e-16)
(2.36468 0.128024 -6.40714e-15)
(2.35581 -0.107665 -1.01085e-15)
(2.40297 -0.264174 -6.91658e-15)
(2.45342 -0.429374 -2.79879e-15)
(2.57198 -0.610981 -7.68794e-15)
(2.75153 -0.70189 -5.27923e-15)
(2.90336 -0.721759 -3.41324e-15)
(3.04066 -0.754918 -4.09492e-15)
(3.2045 -0.776619 1.2183e-15)
(3.36606 -0.743975 -1.84225e-15)
(3.48845 -0.695652 4.25505e-15)
(3.58934 -0.65048 -5.75756e-16)
(3.6808 -0.578792 6.40348e-15)
(3.74388 -0.52131 1.09492e-15)
(3.80737 -0.489747 7.30145e-15)
(3.87153 -0.404468 8.01252e-16)
(3.89021 -0.308177 6.53948e-15)
(3.90763 -0.248947 2.78254e-15)
(3.93533 -0.154357 7.30753e-15)
(3.91674 -0.0588541 3.50388e-15)
(3.88506 -0.0095464 8.36885e-15)
(3.87857 0.0420541 5.13473e-15)
(3.88108 0.117192 5.98139e-15)
(3.85808 0.206691 4.6977e-15)
(3.81922 0.27526 4.96014e-15)
(3.80876 0.362769 3.83489e-15)
(3.75619 0.519844 2.32548e-15)
(3.62159 0.643977 3.0288e-15)
(3.47365 0.712837 -1.33023e-15)
(3.34021 0.757291 -4.78055e-16)
(3.25346 0.745392 -4.56327e-15)
(3.20983 0.823534 -7.76447e-15)
(3.1606 1.03053 -1.15437e-14)
(3.08676 1.17168 -1.18348e-14)
(2.9086 1.28025 -1.21524e-14)
(2.63907 1.37798 -9.17671e-15)
(2.38828 1.28604 -7.07498e-15)
(2.14108 1.05022 -5.35447e-15)
(1.90384 0.854516 -3.6308e-15)
(1.72404 0.747308 -1.87896e-15)
(1.59013 0.665741 -9.22963e-16)
(1.47304 0.554576 -7.75654e-17)
(1.35735 0.437261 1.02141e-15)
(1.25043 0.366113 1.98237e-15)
(1.17102 0.349775 2.65388e-15)
(1.12666 0.359174 2.74561e-15)
(1.1098 0.36615 2.6267e-15)
(1.10769 0.359126 2.222e-15)
(3.15186 -0.269873 -1.28517e-14)
(3.17395 -0.234995 -1.66068e-14)
(3.22358 -0.11772 -1.01022e-14)
(3.10709 -0.308214 -1.5177e-14)
(3.21087 -0.308963 -1.53282e-14)
(3.2903 -0.267219 -1.38976e-14)
(3.32596 -0.208845 -1.4483e-14)
(3.36457 -0.064042 -1.84976e-14)
(3.36031 0.0838809 -1.30232e-14)
(3.35724 0.286002 -1.95665e-14)
(3.27102 0.501689 -1.31583e-14)
(3.06497 0.625896 -1.4188e-14)
(2.83731 0.625391 -1.5581e-14)
(2.52198 0.690751 -1.18268e-14)
(2.12969 0.500375 -7.92794e-15)
(1.86783 0.0750501 -1.36918e-14)
(1.63574 -0.176414 -1.41608e-14)
(1.58793 -0.263985 -1.21375e-14)
(1.61645 -0.398889 -1.19439e-14)
(1.6808 -0.578793 -1.5939e-14)
(1.76915 -0.821462 -1.21795e-14)
(1.96401 -1.00503 -1.21937e-14)
(2.20734 -1.0577 -5.62692e-15)
(2.41822 -1.06376 -9.02691e-15)
(2.6383 -1.06136 -3.80613e-15)
(2.86183 -1.04035 -8.2387e-15)
(3.03664 -0.983451 -6.39624e-15)
(3.1848 -0.881451 -1.15917e-14)
(3.30847 -0.792444 -9.62099e-15)
(3.38513 -0.716612 -1.34897e-14)
(3.45559 -0.631556 -1.07034e-14)
(3.53856 -0.569977 -1.51183e-14)
(3.58247 -0.478646 -1.48076e-14)
(3.59107 -0.348886 -1.70302e-14)
(3.60778 -0.266143 -1.40675e-14)
(3.60426 -0.180329 -1.60505e-14)
(3.57074 -0.0688016 -1.37814e-14)
(3.54733 -0.0182011 -1.38821e-14)
(3.53882 0.00577733 -1.16136e-14)
(3.54405 0.0883692 -1.33062e-14)
(3.54233 0.183149 -1.09679e-14)
(3.50788 0.235092 -1.0529e-14)
(3.48181 0.333286 -8.64114e-15)
(3.46521 0.514761 -9.0822e-15)
(3.38017 0.666398 -8.70388e-15)
(3.21295 0.762579 -7.3387e-15)
(3.02803 0.817969 -5.34424e-15)
(2.88497 0.811902 -3.56506e-15)
(2.83061 0.830264 -3.84838e-15)
(2.84211 0.955812 -5.93456e-15)
(2.78268 1.16712 -9.20695e-15)
(2.60979 1.38243 -1.02004e-14)
(2.43579 1.46587 -9.29035e-15)
(2.23619 1.38958 -7.81781e-15)
(1.97604 1.21662 -5.64332e-15)
(1.77533 0.998658 -3.1673e-15)
(1.67614 0.819948 -2.10831e-15)
(1.61525 0.70486 -1.74255e-15)
(1.52418 0.612424 -9.7959e-16)
(1.3792 0.528667 4.18063e-16)
(1.22122 0.45993 1.46649e-15)
(1.10465 0.40627 1.95847e-15)
(1.04689 0.365881 1.92615e-15)
(1.03458 0.335986 1.73548e-15)
(1.04622 0.311774 1.43805e-15)
(2.6303 0.277596 -2.98637e-15)
(2.5396 0.154685 -7.07901e-15)
(2.62159 0.179705 -6.77549e-15)
(2.53727 0.188902 -4.66938e-15)
(2.67811 0.0627006 -3.87198e-15)
(2.69561 0.0448062 -6.93229e-15)
(2.82028 0.117165 -5.08007e-15)
(2.91334 0.240317 -3.32876e-15)
(3.01012 0.386753 -3.06159e-15)
(3.08831 0.544595 -6.08885e-15)
(2.97145 0.748409 -7.54345e-15)
(2.98043 0.908336 -8.47447e-15)
(2.81649 1.13479 -1.10425e-14)
(2.54021 1.20958 -1.014e-14)
(2.03614 1.04396 -1.38562e-14)
(1.5743 0.90866 -5.58467e-15)
(1.2623 0.557505 -9.61557e-15)
(1.24597 0.0977646 -9.39401e-15)
(1.21323 -0.219057 -1.36156e-14)
(1.30324 -0.404615 -6.05569e-15)
(1.42138 -0.643011 -4.20714e-15)
(1.64476 -0.857304 -1.7093e-15)
(1.94714 -0.943711 -3.06991e-15)
(2.19595 -0.991537 -1.87936e-15)
(2.42395 -1.02219 -5.11293e-15)
(2.63062 -0.988838 -2.37055e-15)
(2.77634 -0.911334 -7.49702e-15)
(2.89721 -0.824675 -3.60497e-15)
(2.98667 -0.727629 -5.89525e-15)
(3.051 -0.642539 -9.87131e-16)
(3.12069 -0.599838 -5.82587e-15)
(3.17134 -0.525668 -3.21094e-15)
(3.16628 -0.380728 -6.55161e-15)
(3.15082 -0.252016 -2.61165e-15)
(3.15853 -0.163154 -4.34573e-15)
(3.1494 -0.0606974 -2.46135e-15)
(3.1269 0.0140586 -3.70831e-15)
(3.1362 0.0243805 -1.24053e-15)
(3.16073 0.0457893 -3.11555e-15)
(3.15376 0.125402 -2.54868e-15)
(3.11573 0.226563 -1.96728e-15)
(3.09149 0.287225 2.63717e-15)
(3.08218 0.361791 3.07329e-15)
(3.02226 0.549935 8.66418e-16)
(2.90493 0.770773 -2.30813e-15)
(2.77812 0.895784 -5.02776e-15)
(2.64005 0.903887 -5.3301e-15)
(2.52565 0.825265 -4.47885e-15)
(2.49048 0.795982 -1.66015e-15)
(2.46498 0.950907 -3.80915e-15)
(2.36282 1.21087 -6.72236e-15)
(2.24001 1.40412 -8.62925e-15)
(2.1127 1.50029 -8.39858e-15)
(1.91042 1.50516 -7.31275e-15)
(1.72569 1.33245 -4.97972e-15)
(1.65414 1.03482 -3.13693e-15)
(1.6403 0.803348 -2.61095e-15)
(1.60876 0.708173 -2.55843e-15)
(1.51885 0.684569 -1.78229e-15)
(1.38499 0.650757 -5.65375e-16)
(1.26148 0.571338 4.7122e-16)
(1.17952 0.466753 1.06989e-15)
(1.13447 0.375894 1.27934e-15)
(1.11194 0.316291 1.26806e-15)
(1.10055 0.281997 1.09474e-15)
(0.561154 0.0854242 -9.53865e-15)
(0.375563 -0.213857 -2.868e-15)
(0.547536 -0.354615 -4.72322e-15)
(0.770128 -0.406924 -1.01613e-15)
(1.03332 -0.464976 -2.42517e-16)
(1.28468 -0.480227 -2.03118e-15)
(1.6312 -0.413096 -1.3146e-15)
(1.80631 -0.182773 3.13438e-16)
(2.07822 0.112404 1.62938e-16)
(1.99683 0.422693 1.36888e-15)
(1.92337 0.652973 -1.43275e-15)
(1.87467 0.832949 -3.51727e-15)
(1.95849 1.08547 -6.04032e-15)
(1.92878 1.28792 -9.55675e-15)
(1.60919 1.3725 -7.77872e-15)
(1.29863 0.913248 -1.38591e-14)
(1.11482 0.239019 -1.38221e-14)
(0.862697 -0.0767328 -1.16472e-14)
(0.640619 -0.337676 -3.01786e-15)
(0.701471 -0.711277 -2.60204e-15)
(0.875245 -1.11791 -1.96177e-15)
(1.11317 -1.40714 -8.86821e-15)
(1.43062 -1.48528 -3.56379e-15)
(1.64331 -1.45309 -1.16545e-14)
(1.83898 -1.3677 -3.92501e-15)
(1.99725 -1.26988 -1.21389e-14)
(2.10498 -1.13706 -6.53395e-15)
(2.21901 -0.989063 -1.03058e-14)
(2.29918 -0.881661 -5.966e-15)
(2.37471 -0.787762 -1.08765e-14)
(2.43676 -0.693738 -9.75317e-15)
(2.47413 -0.576196 -1.15994e-14)
(2.50004 -0.431374 -7.16936e-15)
(2.53533 -0.310845 -9.22345e-15)
(2.58452 -0.216776 -8.45242e-15)
(2.65039 -0.129378 -1.07334e-14)
(2.72372 -0.0887522 -8.42022e-15)
(2.77041 -0.0800924 -8.70647e-15)
(2.77585 -0.010154 -9.01981e-15)
(2.75168 0.117568 -9.59402e-15)
(2.7188 0.201401 -6.99914e-15)
(2.67713 0.250101 -4.00704e-15)
(2.62239 0.374037 -1.49555e-15)
(2.55833 0.577383 -6.84758e-16)
(2.45999 0.774818 -2.10443e-15)
(2.29118 0.928368 -4.71785e-15)
(2.11762 0.972009 -5.17576e-15)
(2.05945 0.872784 -3.39796e-15)
(2.0844 0.813442 -2.94766e-15)
(2.06685 0.953745 -4.10643e-15)
(1.97387 1.20715 -6.13486e-15)
(1.84958 1.43352 -7.5085e-15)
(1.68912 1.58868 -7.85134e-15)
(1.54034 1.56954 -6.3696e-15)
(1.50332 1.30893 -4.39921e-15)
(1.53636 0.975432 -3.33071e-15)
(1.54814 0.772638 -3.28934e-15)
(1.5093 0.730277 -3.2578e-15)
(1.43275 0.745836 -2.65186e-15)
(1.35421 0.713937 -1.57945e-15)
)
;

boundaryField
{
    inlet
    {
        type            uniformFixedValue;
        uniformValue    constant (1 0 0);
        value           nonuniform 0();
    }
    outlet
    {
        type            pressureInletOutletVelocity;
        value           nonuniform 0();
    }
    wall
    {
        type            fixedValue;
        value           nonuniform 0();
    }
    wedge1
    {
        type            wedge;
    }
    wedge2
    {
        type            wedge;
    }
    axis
    {
        type            empty;
    }
    procBoundary15to9
    {
        type            processor;
        value           nonuniform List<vector> 
70
(
(3.3413 -0.348617 1.34509e-15)
(3.37927 -0.281676 4.08256e-15)
(3.40144 -0.179839 1.03332e-15)
(3.36781 -0.0693792 2.62769e-15)
(1.87943 0.451905 6.92427e-15)
(1.81431 0.483132 7.43341e-15)
(1.72962 0.460652 6.60629e-15)
(1.64916 0.387232 5.45674e-15)
(3.31411 -0.0446233 1.65896e-16)
(3.34277 0.0025063 6.91027e-16)
(3.3247 0.0506501 -1.43909e-15)
(3.3261 0.0614092 -7.75866e-16)
(3.3888 0.0888568 -2.4683e-15)
(3.39565 0.128895 -9.27224e-16)
(3.41828 0.19567 -1.66358e-15)
(3.42575 0.269156 -1.34043e-15)
(3.37751 0.322443 -1.48568e-15)
(3.31941 0.393132 -1.1051e-15)
(3.2311 0.467432 -1.6718e-15)
(3.08636 0.507645 -8.01597e-16)
(2.91848 0.531553 -1.30317e-15)
(2.79828 0.521806 4.36953e-17)
(2.61834 0.447241 -8.28327e-16)
(2.46885 0.368541 5.33928e-16)
(2.4726 0.234169 -9.59397e-16)
(2.51109 0.0549051 9.43995e-16)
(2.55923 -0.0753352 -9.32604e-16)
(2.6393 -0.19621 4.86703e-16)
(2.73045 -0.354407 6.99124e-16)
(2.8526 -0.461288 2.16759e-16)
(3.01324 -0.50808 8.10267e-16)
(3.1779 -0.584821 1.40496e-16)
(3.34892 -0.648972 1.61346e-15)
(3.52147 -0.656171 1.02983e-15)
(3.67725 -0.653645 4.09943e-15)
(3.83364 -0.638602 9.75671e-16)
(3.96715 -0.603456 4.61354e-15)
(4.07313 -0.54933 3.11187e-15)
(4.17058 -0.498379 5.11341e-15)
(4.24872 -0.464194 3.94443e-15)
(4.32015 -0.383531 5.90063e-15)
(4.36469 -0.310961 4.01729e-15)
(4.39515 -0.273818 6.46401e-15)
(4.4374 -0.175977 3.99967e-15)
(4.44516 -0.100316 4.93899e-15)
(4.44057 -0.0636059 3.47987e-15)
(4.43721 0.0310095 4.25798e-15)
(4.41287 0.0961657 2.17765e-15)
(4.39653 0.142582 2.72277e-15)
(4.36205 0.250251 9.67856e-16)
(4.31786 0.326871 6.05738e-16)
(4.27962 0.394966 -1.1017e-15)
(4.17203 0.519334 -2.46387e-15)
(4.06627 0.607318 -3.17243e-15)
(4.01158 0.669799 -4.25538e-15)
(3.89037 0.774902 -4.84815e-15)
(3.75597 0.865095 -5.43863e-15)
(3.62799 0.938777 -4.3305e-15)
(3.39302 1.0257 -5.14944e-15)
(3.12424 1.05435 -7.59862e-15)
(2.85984 1.01833 -7.88792e-15)
(2.55102 0.939489 -5.17879e-15)
(2.28575 0.78111 -4.06797e-15)
(2.12904 0.60099 -4.11407e-15)
(2.02954 0.48779 -3.06686e-15)
(1.92304 0.43609 -1.08485e-15)
(1.80225 0.403658 5.60079e-16)
(1.70785 0.379837 1.92342e-15)
(1.66601 0.380944 3.30912e-15)
(1.66601 0.380944 3.30912e-15)
)
;
    }
    procBoundary15to10
    {
        type            processor;
        value           nonuniform List<vector> 2((1.58342 0.303556 4.78274e-15) (1.31862 0.353246 3.26162e-15));
    }
    procBoundary15to14
    {
        type            processor;
        value           nonuniform List<vector> 4((3.36476 -0.536145 -8.21245e-15) (3.46043 -0.562284 -1.00191e-14) (3.52319 -0.742613 -1.39773e-14) (2.89545 -0.232879 -7.47402e-15));
    }
    procBoundary15to16
    {
        type            processor;
        value           nonuniform List<vector> 3((1.11133 0.33828 1.77875e-15) (1.06497 0.288769 1.17291e-15) (1.09362 0.259933 8.88517e-16));
    }
    procBoundary15to20
    {
        type            processor;
        value           uniform (1.54451 -0.871677 -1.01254e-14);
    }
    procBoundary15to21
    {
        type            processor;
        value           nonuniform List<vector> 
70
(
(-1.05039 0.889482 -6.94069e-15)
(-1.90838 1.20576 -1.0507e-14)
(0.323521 0.860285 -8.37319e-15)
(-1.09216 0.192406 -1.14617e-15)
(1.29663 0.612461 -4.58709e-16)
(1.25104 0.489111 4.27342e-16)
(1.20486 0.391099 8.58935e-16)
(1.15909 0.329306 9.45466e-16)
(1.12003 0.291603 8.28379e-16)
(0.0340195 -0.794909 3.90527e-15)
(0.0720184 0.124797 -4.00171e-16)
(0.475215 -0.0744752 4.21641e-16)
(0.784206 -0.308559 -8.69788e-16)
(1.08246 -0.484782 -3.47547e-16)
(1.41838 -0.563293 -1.44644e-15)
(1.72215 -0.500135 -3.53439e-15)
(1.89143 -0.244581 -3.18335e-15)
(2.07843 0.146216 -2.95581e-15)
(1.91381 0.516757 -2.55951e-15)
(1.72891 0.668501 -1.68414e-16)
(1.45428 0.765326 -1.76556e-15)
(1.37949 1.05953 -1.53562e-15)
(1.12743 1.36348 -3.84784e-15)
(0.884019 1.4008 -7.20002e-15)
(0.716651 1.13123 -5.7174e-15)
(0.394491 0.878259 -4.1554e-15)
(0.255189 0.483857 3.37577e-15)
(0.288489 -0.064081 -8.33602e-16)
(0.370245 -0.585342 -7.08833e-16)
(0.485265 -1.00683 -7.57181e-15)
(0.596109 -1.29965 -1.02031e-15)
(0.811266 -1.33046 -8.57871e-15)
(0.931598 -1.24618 -1.81481e-15)
(1.04989 -1.15893 -8.35055e-15)
(1.13923 -1.09066 -2.61394e-15)
(1.2452 -0.984632 -6.15165e-15)
(1.36809 -0.854402 -4.99662e-15)
(1.42758 -0.77705 -6.20927e-15)
(1.51922 -0.696609 -4.82531e-15)
(1.585 -0.597761 -2.58666e-15)
(1.64435 -0.476611 -1.2471e-15)
(1.74042 -0.361356 1.39241e-15)
(1.87144 -0.279155 -1.90613e-15)
(2.01886 -0.227014 1.41314e-15)
(2.14257 -0.188619 1.14549e-15)
(2.20606 -0.131442 4.40628e-15)
(2.19683 -0.0322823 6.75023e-15)
(2.16047 0.0785468 7.55156e-15)
(2.13721 0.167374 6.84804e-15)
(2.10988 0.25015 4.19436e-15)
(2.07243 0.333276 1.66244e-15)
(2.01025 0.446661 2.19248e-15)
(1.89415 0.644951 -1.0342e-15)
(1.72217 0.888423 -3.27023e-15)
(1.57662 1.02651 -6.23901e-15)
(1.57924 0.941214 -5.20494e-15)
(1.68415 0.76089 -3.05556e-15)
(1.71891 0.750289 -3.83989e-15)
(1.6193 0.97469 -5.2356e-15)
(1.45565 1.27124 -5.85768e-15)
(1.29926 1.49669 -6.8039e-15)
(1.18577 1.58411 -6.97104e-15)
(1.17709 1.45544 -5.53361e-15)
(1.2595 1.15735 -3.88671e-15)
(1.32772 0.879488 -3.17722e-15)
(1.33349 0.744397 -3.21818e-15)
(1.29655 0.729973 -3.11551e-15)
(1.25493 0.736806 -2.45924e-15)
(1.29663 0.612461 -4.58709e-16)
(1.23106 0.690475 -1.3775e-15)
)
;
    }
}


// ************************************************************************* //
