/*--------------------------------*- C++ -*----------------------------------*\
  =========                 |
  \\      /  F ield         | OpenFOAM: The Open Source CFD Toolbox
   \\    /   O peration     | Website:  https://openfoam.org
    \\  /    A nd           | Version:  7
     \\/     M anipulation  |
\*---------------------------------------------------------------------------*/
FoamFile
{
    version     2.0;
    format      ascii;
    class       volScalarField;
    location    "0.2";
    object      p;
}
// * * * * * * * * * * * * * * * * * * * * * * * * * * * * * * * * * * * * * //

dimensions      [0 2 -2 0 0 0 0];

internalField   nonuniform List<scalar> 
344
(
2.10189
2.08907
2.07622
2.06333
2.05043
2.03752
2.0246
2.01168
1.99876
1.98584
1.97292
1.96001
1.94711
1.93421
1.92131
1.90842
1.89553
1.88265
1.86977
1.85689
1.84402
1.83114
1.81828
1.80541
1.79255
1.77969
1.76683
1.75397
1.74111
1.72825
0.623
0.58961
0.582422
0.573821
0.578162
0.604865
0.665776
0.767583
0.909516
1.08246
1.27147
1.46016
1.63485
1.78659
1.91176
2.01064
2.08591
2.14125
2.18047
2.20701
2.22376
2.23305
2.23671
2.23612
2.23236
2.22623
2.21833
2.20911
2.1989
2.18796
2.17648
2.16459
2.1524
2.14
2.12743
2.11475
2.10198
2.08916
2.07629
2.0634
2.05049
2.03757
2.02464
2.01171
1.99879
1.98587
1.97295
1.96003
1.94712
1.93422
1.92132
1.90843
1.89554
1.88265
1.86977
1.85689
1.84402
1.83115
1.81828
1.80541
1.79255
1.77969
1.76683
1.75397
1.74111
1.72825
0.63398
0.600243
0.595333
0.590802
0.600485
0.632451
0.697225
0.800407
0.940792
1.10963
1.29297
1.47562
1.64492
1.79242
1.91466
2.01174
2.08604
2.14095
2.18006
2.20665
2.2235
2.23291
2.23667
2.23617
2.23247
2.22638
2.21849
2.20928
2.19907
2.18812
2.17663
2.16473
2.15253
2.14011
2.12753
2.11484
2.10206
2.08923
2.07635
2.06345
2.05054
2.03761
2.02468
2.01175
1.99882
1.98589
1.97297
1.96005
1.94714
1.93423
1.92133
1.90844
1.89555
1.88266
1.86978
1.8569
1.84402
1.83115
1.81828
1.80542
1.79255
1.77969
1.76683
1.75397
1.74111
1.72825
0.641285
0.60795
0.60501
0.604237
0.618866
0.655779
0.72426
0.828904
0.96811
1.13345
1.31189
1.48929
1.65382
1.79761
1.91727
2.01275
2.08618
2.1407
2.1797
2.20632
2.22327
2.23279
2.23664
2.23621
2.23256
2.2265
2.21863
2.20943
2.19922
2.18827
2.17676
2.16485
2.15264
2.14021
2.12763
2.11492
2.10213
2.08929
2.07641
2.0635
2.05058
2.03764
2.02471
2.01177
1.99884
1.98591
1.97298
1.96007
1.94715
1.93424
1.92134
1.90845
1.89555
1.88267
1.86978
1.8569
1.84403
1.83116
1.81829
1.80542
1.79255
1.77969
1.76683
1.75397
1.74111
1.72826
0.645056
0.612717
0.61134
0.613926
0.633067
0.674621
0.746708
0.852994
0.991492
1.15405
1.32841
1.50137
1.66183
1.80243
1.91983
2.01389
2.08652
2.14067
2.17954
2.20616
2.22317
2.23275
2.23666
2.23628
2.23267
2.22663
2.21877
2.20957
2.19936
2.1884
2.17688
2.16496
2.15274
2.1403
2.1277
2.11499
2.1022
2.08935
2.07646
2.06354
2.05061
2.03767
2.02473
2.01179
1.99886
1.98593
1.973
1.96008
1.94716
1.93425
1.92135
1.90845
1.89556
1.88267
1.86979
1.85691
1.84403
1.83116
1.81829
1.80542
1.79256
1.77969
1.76683
1.75397
1.74111
1.72826
0.645608
0.614648
0.614328
0.61979
0.64297
0.688858
0.764491
0.87268
1.01104
1.17163
1.34281
1.51219
1.66931
1.80721
1.92266
2.01544
2.08732
2.14106
2.17974
2.20629
2.22329
2.23288
2.23681
2.23644
2.23284
2.2268
2.21894
2.20972
2.1995
2.18853
2.177
2.16507
2.15284
2.14039
2.12778
2.11506
2.10225
2.08939
2.0765
2.06358
2.05064
2.0377
2.02476
2.01181
1.99887
1.98594
1.97301
1.96009
1.94717
1.93426
)
;

boundaryField
{
    inlet
    {
        type            zeroGradient;
    }
    outlet
    {
        type            fixedValue;
        value           nonuniform 0();
    }
    wall
    {
        type            zeroGradient;
    }
    wedge1
    {
        type            wedge;
    }
    wedge2
    {
        type            wedge;
    }
    axis
    {
        type            empty;
    }
    procBoundary39to33
    {
        type            processor;
        value           nonuniform List<scalar> 
67
(
2.10178
2.08898
2.07613
2.06326
2.05037
2.03746
2.02455
2.01164
1.99872
1.98581
1.9729
1.95999
1.94709
1.93419
1.92129
1.9084
1.89552
1.88264
1.86976
1.85688
1.84401
1.83114
1.81827
1.80541
1.79254
1.77968
1.76682
1.75396
1.74111
1.72825
0.608356
0.576185
0.566512
0.553615
0.55225
0.573359
0.630188
0.730616
0.874362
1.05193
1.24728
1.44274
1.62346
1.77994
1.90838
2.00928
2.08564
2.14147
2.18083
2.20733
2.22397
2.23314
2.23669
2.23603
2.23221
2.22605
2.21813
2.2089
2.19869
2.18776
2.17629
2.16442
2.15225
2.13986
2.12731
2.11464
2.11464
)
;
    }
    procBoundary39to34
    {
        type            processor;
        value           uniform 1.7154;
    }
    procBoundary39to40
    {
        type            processor;
        value           nonuniform List<scalar> 4(1.7154 1.7154 1.7154 1.7154);
    }
    procBoundary39to45
    {
        type            processor;
        value           nonuniform List<scalar> 
67
(
1.92136
1.90846
1.89556
1.88267
1.86979
1.85691
1.84403
1.83116
1.81829
1.80542
1.79256
1.77969
1.76683
1.75397
1.74111
1.72826
0.643453
0.61397
0.614121
0.621902
0.648601
0.698494
0.777636
0.888047
1.02693
1.18644
1.35542
1.52211
1.67661
1.8123
1.92608
2.0177
2.08882
2.14209
2.18049
2.20687
2.22376
2.23328
2.23716
2.23675
2.23311
2.22704
2.21915
2.20991
2.19967
2.18868
2.17713
2.16518
2.15293
2.14047
2.12785
2.11512
2.1023
2.08944
2.07654
2.06361
2.05067
2.03772
2.02478
2.01183
1.99889
1.98595
1.97302
1.9601
1.94718
1.92136
1.93427
)
;
    }
}


// ************************************************************************* //
