/*--------------------------------*- C++ -*----------------------------------*\
  =========                 |
  \\      /  F ield         | OpenFOAM: The Open Source CFD Toolbox
   \\    /   O peration     | Website:  https://openfoam.org
    \\  /    A nd           | Version:  7
     \\/     M anipulation  |
\*---------------------------------------------------------------------------*/
FoamFile
{
    version     2.0;
    format      ascii;
    class       surfaceScalarField;
    location    "21";
    object      phi;
}
// * * * * * * * * * * * * * * * * * * * * * * * * * * * * * * * * * * * * * //

dimensions      [0 3 -1 0 0 0 0];

internalField   nonuniform List<scalar> 
810
(
0.00109854
-0.00113988
-0.00124005
-6.02296e-05
-0.00354047
0.00121409
-0.00537375
0.00246662
-0.00643188
0.00321091
0.00306039
-0.000430515
-0.00127837
-0.00127766
-0.00188798
-0.00244664
-0.000987235
-0.00398053
0.000394007
-0.00566601
0.00162525
-0.00697514
0.00252322
-0.00739653
0.00288802
-0.00677408
0.00258846
0.00170871
-0.00181307
0.000534692
-0.00410839
0.000407346
-0.00495379
-0.000141837
-0.00448126
-7.85277e-05
-0.00336403
0.000508027
-0.00183561
0.00099479
-0.000109164
0.00116157
0.00146885
0.00101044
0.000647663
-0.000398231
0.000932924
-0.000378957
0.000388072
0.000930152
-0.00145094
0.0033239
-0.00247227
0.00610783
-0.0022759
0.00850021
-0.0013976
0.00983834
-0.000176559
0.00987247
0.000976319
0.0087157
0.00180443
0.00209275
0.00145135
-0.000518423
0.00347835
-0.00163893
0.00469664
-0.00266924
0.00528142
-0.00305705
0.00558907
-0.00258355
0.00549503
-0.00130356
0.0048719
0.00044657
0.00373293
0.00211529
0.00237654
0.00316081
0.00335936
0.0014381
-0.00195653
0.00299877
-0.0031996
0.0029471
-0.00261757
0.00149218
-0.00160213
-0.000480096
-0.000611271
-0.0023698
0.000586145
-0.00376955
0.00184631
-0.00446393
0.00280968
-0.00439542
0.0030923
-0.00372467
0.00268861
0.00189892
-0.000714854
-0.00124167
-0.00178073
-0.00213372
-0.00267876
-0.00171953
-0.00351851
-0.000762383
-0.00438995
0.000260168
-0.00502611
0.00122231
-0.00508377
0.00190397
-0.0044205
0.00214641
-0.00325235
0.00192415
-0.00195383
0.00139009
-0.000842297
0.00078738
0.000309875
-0.00176661
0.000524938
-0.00400796
0.000107627
-0.00473896
-0.000988531
-0.00411652
-0.00138483
-0.00297053
-0.000885817
-0.00164118
-0.000107041
-0.000282977
0.000545766
0.000910298
0.000953137
0.0016872
0.00114725
0.00192763
0.00114965
0.00168778
0.00102723
0.000809195
-0.000375453
0.000900391
-0.000556772
0.000288946
0.000217332
-0.00176264
0.00187239
-0.00303988
0.00393015
-0.00294358
0.00582829
-0.00200519
0.00705064
-0.00067658
0.00726904
0.000734732
0.00655104
0.00186526
0.00513935
0.00256134
0.00346838
0.00269821
0.00191308
0.00236449
0.00177705
0.00134073
-0.000440339
0.00309804
-0.00146836
0.00385499
-0.00251959
0.00392621
-0.0031111
0.00395911
-0.00297648
0.00402449
-0.00207057
0.00393733
-0.000589414
0.0035523
0.00111976
0.00279722
0.00262034
0.00183121
0.00352735
0.000854951
0.00367447
4.40721e-05
0.00317537
-0.000508121
0.00232925
0.00145216
0.00156991
-0.00201025
0.00349683
-0.00339528
0.00395661
-0.00297937
0.0030617
-0.00221619
0.00163151
-0.0015463
0.000175631
-0.000614686
-0.00103084
0.000617053
-0.00185835
0.00194727
-0.00223563
0.00299762
-0.00217753
0.00346926
-0.00180208
0.00329901
-0.00128847
0.00266176
-0.000804863
0.00184564
-0.000449625
0.00109692
-0.000227592
0.000535693
0.000228739
-0.000529772
-0.00148047
-0.00114841
-0.00277664
-0.00142099
-0.00270679
-0.00159611
-0.00204107
-0.00199911
-0.0011433
-0.00263697
2.31652e-05
-0.00328231
0.0012624
-0.00360317
0.00226813
-0.00340454
0.00279899
-0.00273101
0.00279573
-0.00182929
0.00239729
-0.000972799
0.00180527
-0.000346842
0.00121969
-3.77233e-06
0.000753848
9.19906e-05
0.00043993
5.591e-05
0.00026482
0.000203799
-0.00167007
0.000189598
-0.00385408
-0.000592636
-0.00463139
-0.00192948
-0.00420765
-0.00246481
-0.00350741
-0.00184354
-0.00290364
-0.000580605
-0.00234718
0.000705946
-0.00170077
0.00162172
-0.00100367
0.00210188
-0.000401734
0.00219379
-2.47937e-05
0.00202035
8.88748e-05
0.0016916
1.86134e-05
0.00128995
-0.000122584
0.000895045
-0.000258187
0.000575534
-0.000358603
0.000365236
-0.000418719
0.000263915
0.000245395
-0.000786679
0.000976277
-0.00179925
0.000419937
-0.00204431
-0.00168442
-0.00141332
-0.0030958
-0.000242142
-0.00301471
0.00116743
-0.00199018
0.00250185
-0.00062848
0.00344955
0.000674026
0.00378489
0.00176654
0.00350894
0.00246974
0.00274598
0.00278331
0.00177619
0.00266139
0.000870665
0.00219548
0.00019058
0.00157513
-0.000222473
0.000988586
-0.000413705
0.000556468
-0.000461291
0.000311501
-0.00044245
0.000226554
0.000223457
0.000964318
1.19593e-05
0.00202531
-0.000641053
0.00206764
-0.00172675
0.00154475
-0.00257291
0.001308
-0.00277797
0.00157911
-0.00226129
0.00212861
-0.00117797
0.00257769
0.000224946
0.00267381
0.00167041
0.00229602
0.00284754
0.00161236
0.00346697
0.000860924
0.00341283
0.000240269
0.00281613
-0.000155797
0.0019712
-0.000337426
0.00117021
-0.000366041
0.000585083
-0.00031125
0.000256709
-0.000223243
0.000138547
-0.000151506
0.00015172
-0.000115047
0.000228091
0.000326015
0.00183555
-0.00182359
0.0041757
-0.0029812
0.00502421
-0.00257526
0.00444942
-0.00199812
0.00326045
-0.001589
0.00196316
-0.000963996
0.000761176
2.40105e-05
-0.000269067
0.00125519
-0.00104907
0.00245042
-0.00150247
0.00330093
-0.00155638
0.00352088
-0.00127611
0.00313255
-0.000828128
0.00236815
-0.000386699
0.00152977
-5.4828e-05
0.000838344
0.0001533
0.000376955
0.000239993
0.000170016
0.000251883
0.000126657
0.000212721
0.000190881
0.00015374
0.000287072
9.1137e-05
0.000388618
0.000486338
-0.000162041
-0.00166155
-6.06871e-05
-0.00308256
0.000438915
-0.00307486
0.000896293
-0.0024555
0.000844578
-0.00153729
0.000121272
-0.00024069
-0.00106705
0.00121233
-0.00228703
0.00247518
-0.00306988
0.00323327
-0.00313902
0.00337006
-0.00259831
0.00298018
-0.00174978
0.00228402
-0.00091213
0.0015305
-0.000281092
0.000898729
8.82591e-05
0.000468992
0.000231285
0.000233929
0.000248744
0.000152557
0.000200803
0.000174599
0.000136685
0.000254999
7.77005e-05
0.000346056
2.77191e-05
0.000438599
-1.45721e-05
0.00052863
-5.23755e-05
0.000615886
0.00070205
-0.00172523
6.3676e-05
-0.0038967
-0.000911085
-0.0045929
-0.00237866
-0.00408589
-0.00296251
-0.00339245
-0.00223072
-0.00295192
-0.000681227
-0.00268618
0.000946588
-0.00229277
0.00208177
-0.00164067
0.00258117
-0.000875731
0.00260512
-0.000219708
0.00232415
0.000190752
0.00187356
0.000336592
0.00138466
0.000311221
0.000924099
0.000220604
0.00055961
0.000125721
0.000328811
4.78701e-05
0.000230409
-1.08705e-05
0.00023334
-4.01942e-05
0.000284323
-4.78717e-05
0.000353734
-5.12375e-05
0.000441965
-5.66063e-05
0.000533999
-6.64149e-05
0.000625695
-8.19249e-05
0.00071756
0.00081085
-0.00101153
0.00107521
-0.00245436
0.000531741
-0.00325499
-0.00157803
-0.00315954
-0.00305796
-0.00233339
-0.00305686
-0.000958306
-0.00205631
0.000678286
-0.000690004
0.00218642
0.000573643
0.00316123
0.00160636
0.00346101
0.00230534
0.00314308
0.00264209
0.00241416
0.00260248
0.00159471
0.00220411
0.000907535
0.00161127
0.000442921
0.00102422
0.000188256
0.000583476
8.18039e-05
0.000336861
5.33304e-05
0.000261813
5.94058e-05
0.000278248
7.23657e-05
0.000340773
7.66134e-05
0.000437717
6.9175e-05
0.000541437
5.11367e-05
0.000643733
2.46214e-05
0.00110925
-3.40397e-05
0.00218627
-0.000545285
0.00199701
-0.00138876
0.0010859
-0.00214685
0.000486019
-0.00245698
0.00058198
-0.00215228
0.00120446
-0.00131248
0.00190281
-0.000124712
0.00232439
0.00118477
0.00222277
0.00240697
0.0016969
0.00316796
0.00102382
0.00327556
0.000445505
0.00278242
8.31301e-05
0.00197365
-6.62724e-05
0.00117363
-6.91455e-05
0.000586349
1.68803e-06
0.000266028
0.000102535
0.000160966
0.000176789
0.000203993
0.000209485
0.000308078
0.000214001
0.000433202
0.000197969
0.00193268
-0.00196672
0.00455345
-0.00316605
0.00597533
-0.00281064
0.0061338
-0.00230533
0.0056062
-0.00192938
0.00472059
-0.00126667
0.00361312
-0.000205009
0.00235634
0.00113207
0.00107921
0.0024619
5.23002e-05
0.00343388
-0.000547759
0.00376802
-0.000708764
0.00343656
-0.000557662
0.00263132
-0.000275609
0.0016916
-3.89435e-06
0.000901911
0.000198253
0.000384202
0.000307361
0.00015692
0.000345845
0.000122482
0.000341312
0.000208526
0.000310739
-0.000464465
-0.00150225
-0.000516145
-0.00311437
0.000416664
-0.00374345
0.0018124
-0.00370106
0.00278579
-0.00290278
0.00280183
-0.00128271
0.00180412
0.000792708
0.000266724
0.00266946
-0.00114118
0.0038698
-0.00192255
0.00421526
-0.00197107
0.00381654
-0.00149542
0.00296092
-0.000851582
0.00198748
-0.00030627
0.00114628
3.64489e-05
0.000559193
0.000185342
0.000235309
0.000222565
0.000119697
0.000206761
-0.00193668
0.000434429
-0.00443599
-0.000615072
-0.00548311
-0.00269633
-0.00525619
-0.00392798
-0.00465113
-0.00350785
-0.00411767
-0.00181617
-0.00368008
0.000355112
-0.00312369
0.00211308
-0.00228071
0.00302682
-0.0012672
0.00320174
-0.000311155
0.0028605
0.000348756
0.002301
0.000678452
0.00165778
0.00074131
0.00108343
0.000655602
0.000515954
-0.0006274
0.00106183
-0.00193434
0.000691871
-0.00354101
-0.00108965
-0.00493234
-0.00253665
-0.0055747
-0.00286549
-0.00516501
-0.00222586
-0.00376218
-0.00104772
-0.00183035
0.000181251
8.88289e-06
0.00118759
0.00130458
0.00190604
0.00191167
0.00225341
0.00194548
0.0022672
0.00164425
0.00190279
-0.000840963
0.00403497
-0.00144031
0.00447784
-0.00153253
0.00361717
-0.00167597
0.00254537
-0.00179369
0.0018811
-0.0015616
0.00172817
-0.000894785
0.00182037
8.9055e-05
0.00180477
0.00120319
0.00150507
0.00220574
0.000937895
0.00123705
-0.00207801
0.00332488
-0.00352814
0.005284
-0.00349164
0.00687096
-0.00326293
0.00802617
-0.0029489
0.00854209
-0.00207751
0.00822982
-0.000582511
0.00708503
0.00123384
0.00534313
-0.00154019
-0.000537827
-0.00314796
-0.00192037
-0.00306754
-0.00357206
-0.00157925
-0.00475122
0.00023541
-0.00476356
0.00155016
-0.00339226
0.00196765
-0.000999999
-0.00174744
0.00120961
-0.00443162
0.000763813
-0.00658936
-0.00141432
-0.00810843
-0.00323215
-0.00911618
-0.00375581
-0.00950754
0.000648943
0.000560667
0.000765656
0.0006471
-0.000743211
9.45436e-05
-0.00339249
0.00222064
-0.00165997
0.00522504
)
;

boundaryField
{
    inlet
    {
        type            calculated;
        value           nonuniform 0();
    }
    outlet
    {
        type            calculated;
        value           nonuniform 0();
    }
    cylinder
    {
        type            calculated;
        value           uniform 0;
    }
    top
    {
        type            symmetryPlane;
        value           nonuniform 0();
    }
    bottom
    {
        type            symmetryPlane;
        value           nonuniform 0();
    }
    defaultFaces
    {
        type            empty;
        value           nonuniform 0();
    }
    procBoundary13to6
    {
        type            processor;
        value           nonuniform List<scalar> 8(-0.000107225 -0.000425442 3.02397e-05 -0.000578083 -0.000665568 -8.88571e-05 -0.000788959 -0.000103816);
    }
    procBoundary13to7
    {
        type            processor;
        value           nonuniform List<scalar> 
38
(
0.000744075
-8.51874e-06
0.00084399
0.000557469
0.000167661
0.00067404
0.000338651
0.000272669
0.000471271
0.000138286
0.000174846
0.000240441
0.000644901
0.000374958
0.000368915
0.000266736
0.00195901
0.0012582
0.00146948
0.00282059
0.000338653
0.00286644
0.00294509
0.0034706
0.00407826
0.00157792
0.00162357
-0.00300091
-0.0091459
-0.00136164
-0.000582865
-0.00609678
-0.00105152
-0.00235731
0.00696771
-0.00164813
-0.000189841
-0.00147013
)
;
    }
    procBoundary13to12
    {
        type            processor;
        value           nonuniform List<scalar> 
26
(
-0.00654103
-0.0054224
0.0025299
-0.000197553
0.0068205
0.00110994
-0.0028739
-0.00274969
-0.00108322
-6.89562e-05
0.00118846
-0.000569725
0.000705749
-0.00116512
-0.000795154
-0.000757727
-0.000323989
-0.000132342
-0.000104566
-4.33242e-05
-0.000209007
-0.000455108
-0.000266754
-0.000399153
-0.000264548
-0.000333838
)
;
    }
    procBoundary13to19
    {
        type            processor;
        value           nonuniform List<scalar> 10(0.00288884 0.00239881 0.00108634 -0.000633347 -0.00215278 -0.00295124 0.00170889 0.00273512 -0.0028475 0.00215622);
    }
}


// ************************************************************************* //
