/*--------------------------------*- C++ -*----------------------------------*\
  =========                 |
  \\      /  F ield         | OpenFOAM: The Open Source CFD Toolbox
   \\    /   O peration     | Website:  https://openfoam.org
    \\  /    A nd           | Version:  7
     \\/     M anipulation  |
\*---------------------------------------------------------------------------*/
FoamFile
{
    version     2.0;
    format      ascii;
    class       volVectorField;
    location    "8.4";
    object      U;
}
// * * * * * * * * * * * * * * * * * * * * * * * * * * * * * * * * * * * * * //

dimensions      [0 1 -1 0 0 0 0];

internalField   nonuniform List<vector> 
344
(
(1.78702 -0.00513772 3.97386e-15)
(1.78856 -0.00506649 4.65265e-15)
(1.79008 -0.00499691 4.32516e-15)
(1.79158 -0.00492903 4.03123e-15)
(1.79305 -0.00486294 4.69723e-15)
(1.79451 -0.00479872 5.05848e-15)
(1.79595 -0.0047365 5.60713e-15)
(1.79737 -0.00467641 4.98992e-15)
(1.79877 -0.00461862 5.57367e-15)
(1.80015 -0.00456333 4.91253e-15)
(1.80152 -0.00451079 5.71842e-15)
(1.80287 -0.00446129 5.26944e-15)
(1.8042 -0.00441516 5.60801e-15)
(1.80553 -0.00437283 5.96969e-15)
(1.80684 -0.00433476 6.42576e-15)
(1.80814 -0.00430154 5.85727e-15)
(1.80943 -0.00427384 6.43077e-15)
(1.81072 -0.00425247 5.95331e-15)
(1.81199 -0.00423837 6.48207e-15)
(1.81327 -0.00423266 5.9897e-15)
(1.81455 -0.00423666 6.32829e-15)
(1.81583 -0.00425193 6.56281e-15)
(1.81712 -0.0042803 6.96599e-15)
(1.81842 -0.00432393 6.40417e-15)
(1.81974 -0.00438537 6.85314e-15)
(1.82108 -0.00446762 6.28151e-15)
(1.82245 -0.0045742 6.72855e-15)
(1.82386 -0.00470926 6.36932e-15)
(1.82531 -0.00487769 6.10144e-15)
(1.82683 -0.00508521 6.68653e-15)
(1.82842 -0.00533855 6.98788e-15)
(1.83011 -0.00564562 7.28621e-15)
(1.83189 -0.00601567 6.69878e-15)
(1.83381 -0.00645956 7.21588e-15)
(1.83589 -0.00699 6.7207e-15)
(1.83814 -0.00762182 7.20834e-15)
(1.84062 -0.00837235 6.71527e-15)
(1.84336 -0.00926178 6.97689e-15)
(1.84641 -0.0103136 7.2305e-15)
(1.84983 -0.0115549 7.61427e-15)
(1.85367 -0.0130172 7.07403e-15)
(1.85803 -0.0147368 7.44591e-15)
(1.863 -0.0167552 6.96694e-15)
(1.86867 -0.0191199 7.4767e-15)
(1.87517 -0.0218844 6.83292e-15)
(1.88265 -0.0251093 7.16057e-15)
(1.89127 -0.0288618 7.37951e-15)
(1.90122 -0.0332156 7.65006e-15)
(1.91274 -0.0382505 7.26925e-15)
(1.92608 -0.0440506 7.51891e-15)
(1.94152 -0.0507018 6.90905e-15)
(1.95939 -0.058288 7.18301e-15)
(1.98008 -0.0668851 6.801e-15)
(2.00398 -0.0765526 6.52822e-15)
(2.03154 -0.0873222 6.98854e-15)
(2.06322 -0.0991834 7.26293e-15)
(2.09952 -0.112063 7.59522e-15)
(2.1409 -0.12581 6.9043e-15)
(2.18779 -0.140158 7.18288e-15)
(2.2405 -0.15473 6.70089e-15)
(2.29922 -0.168968 7.00622e-15)
(2.36386 -0.18223 6.62747e-15)
(2.43405 -0.193646 6.73446e-15)
(2.50899 -0.202393 6.70844e-15)
(2.58746 -0.207541 6.70175e-15)
(2.66775 -0.208367 6.34431e-15)
(1.76255 -0.0057126 2.92498e-15)
(1.76389 -0.00563282 3.06053e-15)
(1.76522 -0.00555491 3.01242e-15)
(1.76652 -0.00547894 3.59266e-15)
(1.76781 -0.00540499 3.50798e-15)
(1.76907 -0.00533318 3.53215e-15)
(1.77032 -0.00526363 3.77255e-15)
(1.77156 -0.0051965 3.6536e-15)
(1.77278 -0.00513198 3.83329e-15)
(1.77398 -0.0050703 3.87936e-15)
(1.77517 -0.00501172 3.95042e-15)
(1.77634 -0.00495658 4.00384e-15)
(1.77751 -0.00490526 4.01186e-15)
(1.77866 -0.00485823 4.06525e-15)
(1.7798 -0.00481602 4.35131e-15)
(1.78093 -0.00477929 4.3166e-15)
(1.78205 -0.00474881 4.40626e-15)
(1.78317 -0.00472547 4.39646e-15)
(1.78429 -0.00471035 4.58153e-15)
(1.7854 -0.00470472 4.53676e-15)
(1.78651 -0.00471005 4.4933e-15)
(1.78763 -0.00472813 4.67158e-15)
(1.78875 -0.00476101 4.8289e-15)
(1.78988 -0.00481114 4.90326e-15)
(1.79104 -0.0048814 4.92089e-15)
(1.79221 -0.00497519 4.78689e-15)
(1.79341 -0.00509649 5.02909e-15)
(1.79465 -0.00525 4.78439e-15)
(1.79593 -0.00544125 5.37358e-15)
(1.79726 -0.00567673 5.30759e-15)
(1.79867 -0.00596408 5.25298e-15)
(1.80015 -0.00631225 5.36251e-15)
(1.80173 -0.00673177 5.31674e-15)
(1.80343 -0.00723498 5.38921e-15)
(1.80528 -0.00783631 5.34299e-15)
(1.80729 -0.00855268 5.34944e-15)
(1.8095 -0.00940385 5.26341e-15)
(1.81195 -0.0104129 5.12654e-15)
(1.81469 -0.0116067 5.38149e-15)
(1.81776 -0.0130164 5.48511e-15)
(1.82123 -0.0146783 5.43062e-15)
(1.82516 -0.0166343 5.45074e-15)
(1.82965 -0.0189325 5.43089e-15)
(1.8348 -0.0216282 5.42528e-15)
(1.84071 -0.0247844 5.34227e-15)
(1.84753 -0.0284726 5.42668e-15)
(1.85542 -0.0327728 5.33214e-15)
(1.86455 -0.037774 5.5483e-15)
(1.87516 -0.0435736 5.47438e-15)
(1.88748 -0.0502762 5.44048e-15)
(1.90181 -0.0579916 5.39441e-15)
(1.91848 -0.0668304 5.34471e-15)
(1.93788 -0.0768981 5.14635e-15)
(1.96043 -0.088286 5.60989e-15)
(1.98662 -0.101058 5.54653e-15)
(2.01697 -0.115235 5.5421e-15)
(2.05203 -0.130765 5.47593e-15)
(2.0924 -0.147507 5.40791e-15)
(2.13862 -0.165177 5.31046e-15)
(2.19118 -0.183353 5.20962e-15)
(2.25042 -0.20135 5.1288e-15)
(2.31644 -0.218402 5.0056e-15)
(2.38899 -0.2333 4.95922e-15)
(2.46731 -0.24503 4.86561e-15)
(2.55016 -0.252143 4.77587e-15)
(2.63549 -0.253645 4.6149e-15)
(1.73255 -0.00613255 2.0567e-15)
(1.73368 -0.00604623 2.06887e-15)
(1.73479 -0.00596197 2.01765e-15)
(1.73588 -0.00587985 2.34663e-15)
(1.73696 -0.00579996 2.60619e-15)
(1.73802 -0.00572242 2.60342e-15)
(1.73907 -0.00564735 2.79673e-15)
(1.74011 -0.00557494 2.77944e-15)
(1.74113 -0.0055054 2.83277e-15)
(1.74214 -0.00543896 2.87527e-15)
(1.74313 -0.00537593 2.95493e-15)
(1.74412 -0.00531666 2.97956e-15)
(1.74509 -0.00526157 3.05872e-15)
(1.74606 -0.00521118 3.01542e-15)
(1.74702 -0.00516607 3.07651e-15)
(1.74796 -0.00512695 3.11107e-15)
(1.74891 -0.00509467 3.24642e-15)
(1.74985 -0.0050702 3.32903e-15)
(1.75078 -0.00505473 3.39092e-15)
(1.75171 -0.00504963 3.23342e-15)
(1.75265 -0.00505655 3.23527e-15)
(1.75359 -0.00507739 3.43955e-15)
(1.75453 -0.00511444 3.48383e-15)
(1.75549 -0.00517037 3.53571e-15)
(1.75646 -0.00524834 3.58945e-15)
(1.75745 -0.00535206 3.60706e-15)
(1.75847 -0.00548591 3.68757e-15)
(1.75952 -0.00565504 3.58761e-15)
(1.76061 -0.0058655 3.78623e-15)
(1.76175 -0.00612444 3.90834e-15)
(1.76294 -0.00644023 3.95589e-15)
(1.76422 -0.00682273 3.94846e-15)
(1.76557 -0.00728351 3.95606e-15)
(1.76704 -0.00783614 4.03921e-15)
(1.76863 -0.00849656 4.05614e-15)
(1.77037 -0.00928343 4.04814e-15)
(1.77229 -0.0102186 4.00123e-15)
(1.77443 -0.0113277 3.98396e-15)
(1.77681 -0.0126404 4.00557e-15)
(1.7795 -0.0141916 3.9644e-15)
(1.78255 -0.0160216 4.06473e-15)
(1.78601 -0.0181775 4.19114e-15)
(1.78998 -0.0207135 4.12319e-15)
(1.79453 -0.0236922 4.02297e-15)
(1.79978 -0.0271854 3.99459e-15)
(1.80585 -0.031275 4.02982e-15)
(1.8129 -0.0360539 4.04032e-15)
(1.82109 -0.0416264 3.99733e-15)
(1.83064 -0.0481086 3.95228e-15)
(1.84179 -0.0556274 4.03801e-15)
(1.85481 -0.0643189 4.04483e-15)
(1.87006 -0.0743254 4.0099e-15)
(1.8879 -0.0857892 3.86785e-15)
(1.90881 -0.0988438 4.05081e-15)
(1.93328 -0.1136 4.15648e-15)
(1.96191 -0.130125 4.07692e-15)
(1.99534 -0.148417 4.00381e-15)
(2.03427 -0.16837 3.96252e-15)
(2.07943 -0.18971 3.89894e-15)
(2.13152 -0.212004 3.84732e-15)
(2.19109 -0.234435 3.69014e-15)
(2.25856 -0.256151 3.5773e-15)
(2.33383 -0.27544 3.43352e-15)
(2.41633 -0.291207 3.36443e-15)
(2.50481 -0.301008 3.28904e-15)
(2.59675 -0.303688 3.11722e-15)
(1.69646 -0.00638949 1.60486e-15)
(1.69737 -0.00629884 1.57667e-15)
(1.69826 -0.0062104 1.57403e-15)
(1.69913 -0.00612425 2.24987e-15)
(1.69999 -0.00604048 2.24357e-15)
(1.70085 -0.00595922 2.1675e-15)
(1.70168 -0.0058806 2.16829e-15)
(1.70251 -0.00580482 2.17874e-15)
(1.70333 -0.00573208 2.2405e-15)
(1.70414 -0.00566266 2.26185e-15)
(1.70493 -0.00559688 2.22381e-15)
(1.70572 -0.0055351 2.36994e-15)
(1.7065 -0.00547777 2.31551e-15)
(1.70727 -0.00542544 2.31957e-15)
(1.70804 -0.00537874 2.35367e-15)
(1.7088 -0.00533842 2.38409e-15)
(1.70955 -0.00530537 2.40528e-15)
(1.7103 -0.00528066 2.44862e-15)
(1.71105 -0.00526551 2.49039e-15)
(1.7118 -0.00526142 2.47918e-15)
(1.71255 -0.00527012 2.40269e-15)
(1.7133 -0.00529365 2.55568e-15)
(1.71407 -0.00533445 2.55075e-15)
(1.71484 -0.00539536 2.53993e-15)
(1.71562 -0.00547976 2.58056e-15)
(1.71642 -0.0055916 2.67326e-15)
(1.71725 -0.00573556 2.64385e-15)
(1.7181 -0.00591713 2.59399e-15)
(1.71899 -0.0061428 3.2263e-15)
(1.71992 -0.00642018 3.1808e-15)
(1.7209 -0.00675824 2.94683e-15)
(1.72195 -0.00716753 2.96497e-15)
(1.72307 -0.00766043 2.94433e-15)
(1.72428 -0.00825153 2.92147e-15)
(1.72561 -0.00895791 2.93005e-15)
(1.72706 -0.00979966 2.94793e-15)
(1.72867 -0.0108003 2.8741e-15)
(1.73047 -0.0119874 2.95818e-15)
(1.73248 -0.0133933 2.9958e-15)
(1.73476 -0.0150557 2.92142e-15)
(1.73735 -0.0170185 2.9614e-15)
(1.7403 -0.0193331 2.97487e-15)
(1.7437 -0.0220591 3.0331e-15)
(1.74761 -0.0252654 2.9245e-15)
(1.75213 -0.0290321 2.85371e-15)
(1.75738 -0.0334507 2.90889e-15)
(1.7635 -0.0386265 2.89558e-15)
(1.77064 -0.0446789 2.9293e-15)
(1.779 -0.0517427 2.93707e-15)
(1.78881 -0.0599682 2.89263e-15)
(1.80035 -0.0695206 2.91013e-15)
(1.81393 -0.0805778 2.88724e-15)
(1.82996 -0.0933259 2.64341e-15)
(1.84888 -0.107951 3.15971e-15)
(1.87125 -0.124627 3.0439e-15)
(1.89771 -0.143492 3.00606e-15)
(1.929 -0.164621 2.85302e-15)
(1.96595 -0.187984 2.81886e-15)
(2.00948 -0.213363 2.65122e-15)
(2.06058 -0.240361 2.56786e-15)
(2.1201 -0.268059 2.4534e-15)
(2.18889 -0.295592 2.33603e-15)
(2.26716 -0.320503 2.19669e-15)
(2.35471 -0.341948 2.06078e-15)
(2.45039 -0.355405 1.86151e-15)
(2.55095 -0.360248 1.69807e-15)
(1.65375 -0.00648152 1.34393e-15)
(1.65443 -0.00638886 1.37858e-15)
(1.65509 -0.00629851 1.43607e-15)
(1.65575 -0.00621053 1.60205e-15)
(1.65639 -0.00612504 1.72963e-15)
(1.65703 -0.00604215 1.71798e-15)
(1.65766 -0.00596202 1.77591e-15)
(1.65828 -0.00588484 1.84707e-15)
(1.65889 -0.00581083 1.78951e-15)
(1.65949 -0.00574026 1.84132e-15)
(1.66009 -0.00567347 1.81583e-15)
(1.66068 -0.00561084 1.85615e-15)
(1.66126 -0.00555285 1.78086e-15)
(1.66184 -0.00550004 1.77277e-15)
(1.66241 -0.00545308 1.86929e-15)
(1.66298 -0.00541276 1.86825e-15)
(1.66354 -0.00537999 1.87209e-15)
(1.6641 -0.00535588 1.88628e-15)
(1.66467 -0.00534173 1.86443e-15)
(1.66523 -0.00533907 1.76915e-15)
(1.66579 -0.0053497 1.7159e-15)
(1.66636 -0.00537578 1.79815e-15)
(1.66694 -0.0054198 1.88616e-15)
(1.66752 -0.00548476 1.86268e-15)
(1.66812 -0.00557415 1.81187e-15)
(1.66873 -0.00569212 1.82011e-15)
(1.66936 -0.00584352 1.90125e-15)
(1.67001 -0.00603409 1.82397e-15)
(1.67069 -0.00627059 2.05907e-15)
(1.67141 -0.00656099 2.16479e-15)
(1.67218 -0.00691464 2.20558e-15)
(1.67299 -0.00734258 2.11157e-15)
(1.67388 -0.00785777 2.17752e-15)
(1.67483 -0.00847548 2.14441e-15)
(1.67588 -0.00921366 2.08969e-15)
(1.67704 -0.0100934 2.14054e-15)
(1.67833 -0.0111394 2.08171e-15)
(1.67977 -0.0123809 2.12281e-15)
(1.6814 -0.0138518 2.10463e-15)
(1.68325 -0.0155923 2.09152e-15)
(1.68536 -0.0176491 2.07708e-15)
(1.68777 -0.0200769 2.07225e-15)
(1.69056 -0.0229398 2.0368e-15)
(1.69379 -0.0263122 1.97549e-15)
(1.69753 -0.0302808 2.02775e-15)
(1.7019 -0.0349461 1.94205e-15)
(1.70701 -0.0404244 1.88317e-15)
(1.71301 -0.0468493 1.90343e-15)
(1.72007 -0.054374 1.9327e-15)
(1.72841 -0.063172 1.8347e-15)
(1.73827 -0.0734389 1.86364e-15)
(1.74997 -0.0853914 1.80837e-15)
(1.76389 -0.0992652 1.68509e-15)
(1.7805 -0.11531 1.85025e-15)
(1.80034 -0.133776 1.87242e-15)
(1.82412 -0.154902 1.80708e-15)
(1.85264 -0.178873 1.77501e-15)
(1.8869 -0.205787 1.66138e-15)
(1.92802 -0.235551 1.53577e-15)
(1.97732 -0.26788 1.40774e-15)
(2.77066 -0.163546 7.30048e-15)
(2.84561 -0.15684 7.1318e-15)
(2.91633 -0.146956 6.92073e-15)
(2.98127 -0.134671 6.8326e-15)
(2.74841 -0.204462 6.16212e-15)
(2.82711 -0.195644 5.87864e-15)
(2.9009 -0.18256 5.79626e-15)
(2.9679 -0.166409 5.61389e-15)
(2.7215 -0.248868 4.47726e-15)
(2.80527 -0.237398 4.24615e-15)
(2.88305 -0.220257 4.06235e-15)
(2.95255 -0.199353 3.94723e-15)
(2.69001 -0.297999 2.79241e-15)
(2.78067 -0.283007 2.74367e-15)
(2.86357 -0.26051 2.5691e-15)
(2.93588 -0.233611 2.40698e-15)
(2.65428 -0.353597 1.47172e-15)
(2.75445 -0.333554 1.23674e-15)
(2.8437 -0.303683 1.03261e-15)
(2.91863 -0.269048 8.8472e-16)
)
;

boundaryField
{
    inlet
    {
        type            uniformFixedValue;
        uniformValue    constant (1 0 0);
        value           nonuniform 0();
    }
    outlet
    {
        type            pressureInletOutletVelocity;
        value           nonuniform 0();
    }
    wall
    {
        type            fixedValue;
        value           nonuniform 0();
    }
    wedge1
    {
        type            wedge;
    }
    wedge2
    {
        type            wedge;
    }
    axis
    {
        type            empty;
    }
    procBoundary8to2
    {
        type            processor;
        value           nonuniform List<vector> 
71
(
(1.80647 -0.00442184 4.55996e-15)
(1.80819 -0.00436095 4.83587e-15)
(1.80988 -0.00430144 4.9412e-15)
(1.81155 -0.00424337 4.72717e-15)
(1.8132 -0.00418681 4.83256e-15)
(1.81482 -0.00413183 4.9253e-15)
(1.81642 -0.00407853 5.23354e-15)
(1.81801 -0.00402704 5.30134e-15)
(1.81957 -0.0039775 5.67612e-15)
(1.82111 -0.00393008 5.65749e-15)
(1.82264 -0.00388498 5.95592e-15)
(1.82414 -0.00384246 5.92502e-15)
(1.82563 -0.0038028 5.81235e-15)
(1.82711 -0.00376636 6.06009e-15)
(1.82857 -0.00373354 6.30723e-15)
(1.83002 -0.00370484 6.28099e-15)
(1.83146 -0.00368082 6.57388e-15)
(1.8329 -0.00366217 6.63858e-15)
(1.83432 -0.0036497 6.72589e-15)
(1.83575 -0.00364435 6.66468e-15)
(1.83717 -0.00364725 6.55072e-15)
(1.8386 -0.00365972 6.80584e-15)
(1.84003 -0.00368331 6.9742e-15)
(1.84148 -0.00371987 7.0374e-15)
(1.84294 -0.00377154 7.21916e-15)
(1.84443 -0.00384088 7.08894e-15)
(1.84595 -0.00393087 7.16705e-15)
(1.84752 -0.00404503 7.14196e-15)
(1.84913 -0.0041875 6.69483e-15)
(1.85081 -0.00436314 6.82271e-15)
(1.85257 -0.00457764 6.90896e-15)
(1.85442 -0.0048377 7.27297e-15)
(1.85639 -0.00515114 7.09472e-15)
(1.8585 -0.00552713 7.34933e-15)
(1.86078 -0.00597641 7.41753e-15)
(1.86325 -0.00651149 7.42155e-15)
(1.86596 -0.00714697 7.47394e-15)
(1.86895 -0.0078998 7.36148e-15)
(1.87228 -0.0087897 7.33086e-15)
(1.87599 -0.00983945 7.50534e-15)
(1.88017 -0.0110753 7.55247e-15)
(1.8849 -0.0125275 7.7444e-15)
(1.89026 -0.0142305 7.68428e-15)
(1.89638 -0.0162235 7.60089e-15)
(1.90339 -0.0185506 7.52966e-15)
(1.91143 -0.0212611 7.66985e-15)
(1.92067 -0.0244095 7.69384e-15)
(1.93133 -0.028055 7.76329e-15)
(1.94361 -0.0322606 7.67964e-15)
(1.95779 -0.0370919 7.80362e-15)
(1.97414 -0.0426142 7.62489e-15)
(1.993 -0.0488892 7.64673e-15)
(2.01473 -0.0559697 7.6185e-15)
(2.0397 -0.0638922 7.39529e-15)
(2.06833 -0.0726678 7.21009e-15)
(2.10104 -0.0822706 7.41798e-15)
(2.13824 -0.0926226 7.58889e-15)
(2.18033 -0.103581 7.45193e-15)
(2.22761 -0.114915 7.55765e-15)
(2.2803 -0.126307 7.47236e-15)
(2.33845 -0.137321 7.43992e-15)
(2.40187 -0.147443 7.46334e-15)
(2.47011 -0.156047 7.44078e-15)
(2.54236 -0.162508 7.39517e-15)
(2.61748 -0.166204 7.37235e-15)
(2.69397 -0.16664 7.13484e-15)
(2.69397 -0.16664 7.13484e-15)
(2.78828 -0.125218 7.80361e-15)
(2.86048 -0.120273 7.53715e-15)
(2.92893 -0.113026 7.20514e-15)
(2.99226 -0.103983 7.13173e-15)
)
;
    }
    procBoundary8to3
    {
        type            processor;
        value           uniform (3.03943 -0.120906 6.61569e-15);
    }
    procBoundary8to7
    {
        type            processor;
        value           nonuniform List<vector> 5((1.78546 -0.00521054 4.45064e-15) (1.76119 -0.0057942 2.85852e-15) (1.7314 -0.00622087 2.04107e-15) (1.69555 -0.00648228 1.6385e-15) (1.65307 -0.00657643 1.43445e-15));
    }
    procBoundary8to9
    {
        type            processor;
        value           nonuniform List<vector> 4((3.0271 -0.148529 5.44052e-15) (3.01283 -0.1766 3.81352e-15) (2.997 -0.204978 2.25889e-15) (2.97957 -0.23318 7.58022e-16));
    }
    procBoundary8to14
    {
        type            processor;
        value           nonuniform List<vector> 
71
(
(2.03609 -0.301831 1.3255e-15)
(2.10577 -0.336644 1.19652e-15)
(2.18706 -0.368857 9.93575e-16)
(2.28063 -0.398585 8.09538e-16)
(2.38539 -0.416951 5.32574e-16)
(2.49733 -0.426241 3.79145e-16)
(1.60389 -0.00641292 1.28655e-15)
(1.60434 -0.00632058 1.23341e-15)
(1.60479 -0.00623058 1.13353e-15)
(1.60523 -0.00614301 1.65315e-15)
(1.60566 -0.00605796 1.65042e-15)
(1.60609 -0.00597555 1.60299e-15)
(1.60651 -0.00589595 1.60734e-15)
(1.60693 -0.00581933 1.52926e-15)
(1.60734 -0.00574594 1.44871e-15)
(1.60774 -0.00567605 1.5038e-15)
(1.60814 -0.00560998 1.46075e-15)
(1.60854 -0.00554815 1.43527e-15)
(1.60893 -0.00549102 1.38694e-15)
(1.60931 -0.00543917 1.36291e-15)
(1.6097 -0.00539326 1.41102e-15)
(1.61008 -0.00535408 1.40801e-15)
(1.61046 -0.0053226 1.40878e-15)
(1.61084 -0.00529991 1.35405e-15)
(1.61122 -0.00528735 1.33459e-15)
(1.6116 -0.00528647 1.24817e-15)
(1.61199 -0.00529912 1.23052e-15)
(1.61237 -0.00532748 1.2317e-15)
(1.61277 -0.00537411 1.26777e-15)
(1.61317 -0.00544205 1.25049e-15)
(1.61358 -0.00553487 1.27234e-15)
(1.614 -0.00565678 1.2336e-15)
(1.61444 -0.00581276 1.30479e-15)
(1.6149 -0.00600866 1.16662e-15)
(1.61538 -0.00625138 1.65596e-15)
(1.61589 -0.00654905 1.627e-15)
(1.61644 -0.00691125 1.58857e-15)
(1.61703 -0.00734926 1.51224e-15)
(1.61767 -0.00787638 1.49582e-15)
(1.61837 -0.00850825 1.41143e-15)
(1.61914 -0.00926328 1.37268e-15)
(1.62 -0.0101632 1.26813e-15)
(1.62097 -0.0112334 1.3219e-15)
(1.62205 -0.012504 1.40139e-15)
(1.62329 -0.0140103 1.35483e-15)
(1.6247 -0.0157937 1.27031e-15)
(1.62631 -0.0179029 1.27348e-15)
(1.62818 -0.0203952 1.26591e-15)
(1.63034 -0.0233377 1.25726e-15)
(1.63285 -0.026809 1.26231e-15)
(1.63579 -0.0309011 1.22005e-15)
(1.63923 -0.0357218 1.07002e-15)
(1.64328 -0.0413965 1.0513e-15)
(1.64807 -0.0480716 1.09307e-15)
(1.65373 -0.0559165 1.03682e-15)
(1.66047 -0.0651272 1.01527e-15)
(1.6685 -0.0759289 9.3588e-16)
(1.67811 -0.0885778 9.30258e-16)
(1.68966 -0.103363 7.52591e-16)
(1.70359 -0.120604 1.18712e-15)
(1.72046 -0.140647 1.02268e-15)
(1.74097 -0.163848 9.1119e-16)
(1.76601 -0.19055 8.5571e-16)
(1.79667 -0.221038 7.6096e-16)
(1.83435 -0.255441 5.41626e-16)
(2.03609 -0.301831 1.3255e-15)
(1.88067 -0.293696 4.05208e-16)
(2.61538 -0.418333 3.81419e-17)
(2.72867 -0.390207 -1.20464e-16)
(2.82473 -0.349621 -3.24805e-16)
(2.90034 -0.304679 -4.8496e-16)
)
;
    }
}


// ************************************************************************* //
