/*--------------------------------*- C++ -*----------------------------------*\
  =========                 |
  \\      /  F ield         | OpenFOAM: The Open Source CFD Toolbox
   \\    /   O peration     | Website:  https://openfoam.org
    \\  /    A nd           | Version:  7
     \\/     M anipulation  |
\*---------------------------------------------------------------------------*/
FoamFile
{
    version     2.0;
    format      ascii;
    class       surfaceScalarField;
    location    "83.99972";
    object      phi;
}
// * * * * * * * * * * * * * * * * * * * * * * * * * * * * * * * * * * * * * //

dimensions      [0 3 -1 0 0 0 0];

internalField   nonuniform List<scalar> 
46020
(
-3.79117e-06
5.54137e-06
-1.7502e-06
-1.42612e-05
1.53624e-05
-4.89235e-06
-3.10885e-05
2.47262e-05
-7.89899e-06
-5.39302e-05
3.35687e-05
-1.0727e-05
-8.24294e-05
4.18493e-05
-1.33501e-05
-0.000116238
4.95791e-05
-1.57709e-05
-0.000155035
5.68208e-05
-1.80229e-05
-0.000198551
6.36833e-05
-2.01676e-05
-0.000246573
7.03055e-05
-2.22838e-05
-0.00029895
7.68265e-05
-2.44495e-05
-0.00035558
8.335e-05
-2.67196e-05
-0.000416382
8.99059e-05
-2.91042e-05
-0.00048125
9.64164e-05
-3.15486e-05
-0.000550003
0.000102669
-3.39164e-05
-0.000622338
0.000108306
-3.59706e-05
-0.000697816
0.000112829
-3.73516e-05
-0.000775914
0.000115643
-3.75451e-05
-0.000856413
0.000116355
-3.58558e-05
-0.000939827
0.000114785
-3.13704e-05
0.000109662
-2.27039e-05
-0.00102678
-3.69734e-06
9.23872e-06
-1.39249e-05
2.559e-05
-3.0378e-05
4.11793e-05
-5.27247e-05
5.59154e-05
-8.06125e-05
6.97371e-05
-0.00011369
8.26566e-05
-0.000151627
9.4758e-05
-0.000194134
0.00010619
-0.000240973
0.000117144
-0.00029196
0.000127814
-0.000346955
0.000138345
-0.000405832
0.000148783
-0.000468438
0.000159023
-0.000534542
0.000168772
-0.000603774
0.000177539
-0.000675609
0.000184665
-0.000749359
0.000189393
-0.000824512
0.000191507
-0.000901588
0.000191861
0.000187444
-0.000979371
-3.53736e-06
1.27761e-05
-1.3349e-05
3.54017e-05
-2.91559e-05
5.69862e-05
-5.06403e-05
7.73998e-05
-7.74521e-05
9.65489e-05
-0.00010923
0.000114434
-0.00014562
0.000131148
-0.000186295
0.000146865
-0.000230965
0.000161815
-0.000279383
0.000176231
-0.000331327
0.00019029
-0.000386584
0.000204039
-0.000444897
0.000217336
-0.000505917
0.000229792
-0.000569132
0.000240754
-0.000633828
0.00024936
-0.000698983
0.000254548
-0.000763413
0.000255938
-0.000827861
0.000256309
0.000246565
-0.000886982
-3.31811e-06
1.60942e-05
-1.25567e-05
4.46402e-05
-2.74676e-05
7.18971e-05
-4.77482e-05
9.76804e-05
-7.30473e-05
0.000121848
-0.000102985
0.000144372
-0.00013717
0.000165333
-0.000175217
0.000184913
-0.00021676
0.000203358
-0.000261451
0.000220921
-0.000308948
0.000237787
-0.000358894
0.000253986
-0.000410873
0.000269315
-0.000464345
0.000283264
-0.000518569
0.000294978
-0.000572545
0.000303336
-0.000624815
0.000306818
-0.000672995
0.000304117
-0.000718724
0.000302038
0.000277677
-0.000749836
-3.04919e-06
1.91434e-05
-1.15798e-05
5.31709e-05
-2.53762e-05
8.56935e-05
-4.41483e-05
0.000116453
-6.7538e-05
0.000145238
-9.51359e-05
0.00017197
-0.000126499
0.000196696
-0.000161164
0.000219578
-0.000198659
0.000240852
-0.000238499
0.000260761
-0.000280178
0.000279466
-0.000323141
0.000296948
-0.000366736
0.000312911
-0.000410157
0.000326684
-0.000452332
0.000337153
-0.000491871
0.000342876
-0.000526881
0.000341828
-0.00055303
0.000330266
-0.000573884
0.000322892
0.000271878
-0.000568085
-2.7424e-06
2.18858e-05
-1.0458e-05
6.08865e-05
-2.29602e-05
9.81957e-05
-3.99652e-05
0.000133458
-6.10986e-05
0.000166371
-8.59097e-05
0.000196781
-0.000113886
0.000224672
-0.000144465
0.000250157
-0.000177039
0.000273426
-0.000210952
0.000294674
-0.00024548
0.000313995
-0.000279806
0.000331274
-0.000312966
0.000346071
-0.000343786
0.000357504
-0.000370747
0.000364115
-0.000391913
0.000364041
-0.000405113
0.000355028
-0.000403215
0.000328368
-0.000392106
0.000311783
0.000221473
-0.000341701
-2.41119e-06
2.4297e-05
-9.23635e-06
6.77117e-05
-2.03091e-05
0.000109268
-3.53412e-05
0.00014849
-5.39295e-05
0.000184959
-7.55668e-05
0.000218418
-9.96533e-05
0.000248759
-0.000125503
0.000276007
-0.000152342
0.000300266
-0.000179302
0.000321633
-0.000205389
0.000340082
-0.000229451
0.000355337
-0.000250121
0.000366741
-0.000265738
0.000373121
-0.000274199
0.000372576
-0.00027274
0.000362582
-0.000259115
0.000341402
-0.000223432
0.000292685
-0.000170132
0.000258483
0.000123821
-7.2479e-05
-2.06984e-06
2.63668e-05
-7.96283e-06
7.36046e-05
-1.75185e-05
0.000118824
-3.04289e-05
0.0001614
-4.62459e-05
0.000200776
-6.4388e-05
0.00023656
-8.41469e-05
0.000268518
-0.000104687
0.000296547
-0.000125038
0.000320617
-0.000144072
0.000340666
-0.000160468
0.000356478
-0.000172662
0.00036753
-0.00017877
0.000372849
-0.00017651
0.00037086
-0.000163063
0.000359129
-0.000134504
0.000334024
-8.73452e-05
0.000294244
-1.60461e-05
0.000221386
9.21864e-05
0.000150251
-3.5705e-05
0.000251712
-1.73269e-06
2.80995e-05
-6.68564e-06
7.85576e-05
-1.46844e-05
0.000126823
-2.53818e-05
0.000172098
-3.82642e-05
0.000213659
-5.26548e-05
0.000250951
-6.77134e-05
0.000283576
-8.2427e-05
0.000311261
-9.55896e-05
0.00033378
-0.000105767
0.000350844
-0.000111246
0.000361956
-0.000109958
0.000366242
-9.93864e-05
0.000362278
-7.64461e-05
0.00034792
-3.73713e-05
0.000320054
2.2263e-05
0.00027439
0.000109648
0.000206859
0.000232823
9.8211e-05
0.000390892
-7.8183e-06
-0.000275648
0.000630834
-1.41322e-06
2.95127e-05
-5.44994e-06
8.25943e-05
-1.18969e-05
0.00013327
-2.0343e-05
0.000180544
-3.01857e-05
0.000223501
-4.0628e-05
0.000261393
-5.06696e-05
0.000293618
-5.90869e-05
0.000319678
-6.43968e-05
0.000339089
-6.48031e-05
0.000351251
-5.81212e-05
0.000355274
-4.16787e-05
0.0003498
-1.21844e-05
0.000332784
3.44234e-05
0.000301312
0.000103143
0.000251335
0.00020055
0.000176982
0.000332753
7.46565e-05
0.00051537
-8.4406e-05
0.000739188
-0.000231636
-0.000605766
0.00106931
-1.12312e-06
3.06358e-05
-4.29449e-06
8.57657e-05
-9.2323e-06
0.000138208
-1.54336e-05
0.000186745
-2.21786e-05
0.000230246
-2.85204e-05
0.000267735
-3.32665e-05
0.000298364
-3.4942e-05
0.000321354
-3.17354e-05
0.000335883
-2.14207e-05
0.000340936
-1.25234e-06
0.000335106
3.21726e-05
0.000316375
8.30782e-05
0.000281878
0.000156715
0.000227676
0.000259509
0.000148541
0.000399864
3.66266e-05
0.000585987
-0.000111466
0.000835919
-0.000334338
0.00113925
-0.000534964
-0.00103751
0.00157099
-8.71282e-07
3.15071e-05
-3.24818e-06
8.81426e-05
-6.7467e-06
0.000141706
-1.07398e-05
0.000190738
-1.4358e-05
0.000233865
-1.647e-05
0.000269847
-1.56501e-05
0.000297544
-1.01226e-05
0.000315826
2.31682e-06
0.000323443
2.44103e-05
0.000318842
5.9578e-05
0.000299938
0.000112094
0.000263859
0.000187301
0.00020667
0.000291862
0.000123115
0.000433878
6.52543e-06
0.000623494
-0.000152989
0.000872317
-0.00036029
0.00119749
-0.000659511
0.00159271
-0.000930179
-0.00157891
0.00213411
-6.62934e-07
3.217e-05
-2.32679e-06
8.98064e-05
-4.46833e-06
0.000143848
-6.30047e-06
0.00019257
-6.76725e-06
0.000234331
-4.50944e-06
0.000267589
2.17979e-06
0.000290855
1.54407e-05
0.000302565
3.79546e-05
0.00030093
7.30869e-05
0.00028371
0.000125071
0.000247954
0.000199228
0.000189703
0.000302214
0.000103684
0.000442305
-1.69753e-05
0.000629495
-0.000180664
0.000875228
-0.000398723
0.00119533
-0.000680387
0.00160227
-0.00106645
0.00209791
-0.00142582
-0.00222838
0.00274738
-4.98799e-07
3.26688e-05
-1.53005e-06
9.08377e-05
-2.39161e-06
0.000144709
-2.09548e-06
0.000192274
6.44783e-07
0.000231591
7.45693e-06
0.000260777
2.04031e-05
0.000277909
4.20671e-05
0.000280901
7.57094e-05
0.000267287
0.000125454
0.000233966
0.000196512
0.000176896
0.000295439
9.07757e-05
0.000430388
-3.12651e-05
0.000611347
-0.000197934
0.000850248
-0.000419566
0.00115914
-0.000707615
0.00155704
-0.00107829
0.00204921
-0.00155862
0.00264649
-0.00202311
-0.0029686
0.00338672
-3.74543e-07
3.30434e-05
-8.39605e-07
9.13028e-05
-4.69734e-07
0.000144339
1.95837e-06
0.000189846
8.01504e-06
0.000225534
1.96746e-05
0.000249117
3.94131e-05
0.00025817
7.03615e-05
0.000249953
0.00011649
0.000221159
0.000182837
0.000167619
0.000275771
8.39619e-05
0.000403249
-3.67024e-05
0.000575019
-0.000203036
0.000802661
-0.000425576
0.00109959
-0.000716499
0.00147777
-0.00108579
0.00195541
-0.00155593
0.00253021
-0.00213341
0.00321902
-0.00271192
-0.00376433
0.00401474
-2.80635e-07
3.3324e-05
-2.15825e-07
9.12379e-05
1.37398e-06
0.000142749
6.01591e-06
0.000185204
1.56142e-05
0.000215936
3.25506e-05
0.000232181
5.98211e-05
0.0002309
0.000101221
0.000208552
0.000161577
0.000160803
0.000247008
8.21881e-05
0.000365192
-3.42222e-05
0.000525576
-0.000197086
0.000739397
-0.000416857
0.00101934
-0.000705515
0.00137899
-0.00107615
0.00182931
-0.00153611
0.00238162
-0.00210824
0.00302698
-0.00277877
0.00378257
-0.00346752
-0.00456784
0.00458608
-2.02741e-07
3.35268e-05
3.88889e-07
9.06463e-05
3.26885e-06
0.000139869
1.03039e-05
0.000178169
2.38024e-05
0.000202438
4.66418e-05
0.000209341
8.24448e-05
0.000195097
0.000135807
0.000155191
0.000212559
8.40506e-05
0.000320044
-2.52966e-05
0.000467326
-0.000181505
0.000665233
-0.000394992
0.000926033
-0.000677657
0.00126248
-0.00104196
0.00168613
-0.0014998
0.00220503
-0.00205501
0.00281819
-0.0027214
0.00351106
-0.00347164
0.00429394
-0.0042504
-0.00533044
0.00505655
-1.21457e-07
3.36482e-05
1.05212e-06
8.94727e-05
5.37283e-06
0.000135549
1.51047e-05
0.000168437
3.30345e-05
0.000184508
6.26313e-05
0.000179745
0.000108263
0.000149465
0.000175459
8.79946e-05
0.000271186
-1.16764e-05
0.000404077
-0.000158188
0.000584488
-0.000361915
0.000824208
-0.000634713
0.00113556
-0.000989009
0.00152966
-0.00143606
0.00201329
-0.00198343
0.00258832
-0.00263004
0.00323946
-0.00337254
0.0039478
-0.00417998
0.00470987
-0.00501246
-0.00601433
0.00539376
-1.16244e-08
3.36598e-05
1.8593e-06
8.76018e-05
7.86952e-06
0.000129539
2.0744e-05
0.000155563
4.38277e-05
0.000161424
8.12822e-05
0.00014229
0.000138339
9.24084e-05
0.000221574
4.75974e-06
0.000339156
-0.000129258
0.000500929
-0.000319961
0.000718183
-0.000579169
0.00100281
-0.000919341
0.00136561
-0.00135181
0.0018137
-0.00188415
0.00234656
-0.00251629
0.00295631
-0.0032398
0.00361588
-0.00403211
0.00430381
-0.00486792
0.00499998
-0.00570863
-0.00660009
0.00558573
1.48574e-07
3.35113e-05
2.89886e-06
8.48515e-05
1.09553e-05
0.000121482
2.75679e-05
0.00013895
5.67227e-05
0.000132269
0.000103373
9.56396e-05
0.000173712
2.20699e-05
0.000275427
-9.69553e-05
0.000417828
-0.00027166
0.000611683
-0.000513816
0.000868482
-0.000835968
0.00119886
-0.00124972
0.00161003
-0.00176298
0.00210252
-0.00237665
0.0026668
-0.00308056
0.00328391
-0.00385691
0.00392111
-0.0046693
0.00455565
-0.00550246
0.00515378
-0.00630676
-0.00709853
0.00565223
3.85243e-07
3.3126e-05
4.26109e-06
8.09757e-05
1.4825e-05
0.000110918
3.59152e-05
0.00011786
7.22379e-05
9.59466e-05
0.000129622
3.8256e-05
0.000215278
-6.35868e-05
0.000337973
-0.00021965
0.000507932
-0.000441619
0.000736248
-0.000742132
0.00103347
-0.00113319
0.00140718
-0.00162343
0.00185875
-0.00221454
0.00238021
-0.00289811
0.00295284
-0.00365319
0.00354917
-0.00445324
0.004138
-0.00525813
0.00469731
-0.00606178
0.00519495
-0.00680439
-0.0075612
0.00565761
7.21545e-07
3.24045e-05
6.02958e-06
7.56676e-05
1.96575e-05
9.72903e-05
4.60903e-05
9.14271e-05
9.08208e-05
5.1216e-05
0.000160604
-3.15274e-05
0.000263658
-0.00016664
0.000409655
-0.000365647
0.000609276
-0.00064124
0.000873004
-0.00100586
0.00120892
-0.00146911
0.00161958
-0.00203409
0.00209872
-0.00269368
0.00262948
-0.00342887
0.00318605
-0.00420976
0.0037382
-0.00500539
0.00426137
-0.0057813
0.00473661
-0.00653702
0.00516478
-0.00723256
-0.007958
0.00556158
1.17699e-06
3.12275e-05
8.27537e-06
6.85693e-05
2.56019e-05
7.99638e-05
5.83371e-05
5.86919e-05
0.000112804
-3.25042e-06
0.000196682
-0.000115406
0.00031908
-0.000289038
0.000490233
-0.0005368
0.000720539
-0.000871546
0.00101862
-0.00130394
0.00138838
-0.00183886
0.00182562
-0.00247133
0.00231583
-0.00318389
0.00283495
-0.003948
0.00335432
-0.00472912
0.00384728
-0.00549835
0.00429793
-0.00623195
0.00469945
-0.00693854
0.00506276
-0.00759587
-0.00829154
0.00539631
1.76695e-06
2.94605e-05
1.10529e-05
5.92833e-05
3.27677e-05
5.82491e-05
7.28194e-05
1.86401e-05
0.000138367
-6.87982e-05
0.000237943
-0.000214981
0.000381296
-0.000432391
0.000578669
-0.000734173
0.000839176
-0.00113205
0.00116812
-0.00163289
0.00156362
-0.00223436
0.0020139
-0.00292162
0.0024973
-0.00366729
0.00298613
-0.00443682
0.00345389
-0.00519688
0.00388169
-0.00592616
0.00426391
-0.00661417
0.00460307
-0.0072777
0.00491465
-0.00790744
-0.00858604
0.00520914
2.50217e-06
2.69584e-05
1.43981e-05
4.73873e-05
4.12191e-05
3.14282e-05
8.96081e-05
-2.97489e-05
0.000167515
-0.000146705
0.000284156
-0.000331622
0.000449518
-0.000597753
0.000673078
-0.000957734
0.000961464
-0.00142044
0.00131521
-0.00198663
0.00172565
-0.0026448
0.00217395
-0.00336992
0.00263401
-0.00412736
0.00307893
-0.00488174
0.00348844
-0.00560639
0.00385311
-0.00629084
0.00417593
-0.00693698
0.00446538
-0.00756715
0.00473849
-0.00818056
-0.00885043
0.00500289
3.38901e-06
2.35694e-05
1.8328e-05
3.24484e-05
5.09721e-05
-1.21592e-06
0.000108672
-8.74492e-05
0.00020006
-0.000238093
0.000334753
-0.000466315
0.000522404
-0.000785405
0.000770771
-0.0012061
0.00108273
-0.0017324
0.00145293
-0.00235683
0.00186594
-0.0030578
0.00229778
-0.00380176
0.00272166
-0.00455124
0.00311532
-0.0052754
0.00346674
-0.00595781
0.00377514
-0.00659923
0.0040493
-0.00721114
0.00430037
-0.00781822
0.00454395
-0.00842414
-0.00909123
0.00478475
4.42992e-06
1.91394e-05
2.28414e-05
1.40369e-05
6.1994e-05
-4.03685e-05
0.000129877
-0.000155332
0.000235614
-0.000343831
0.00038882
-0.00061952
0.000598085
-0.00099467
0.000868386
-0.0014764
0.00119774
-0.00206175
0.00157451
-0.00273361
0.00197764
-0.00346093
0.00238102
-0.00420515
0.00276077
-0.00493098
0.00310162
-0.00561624
0.00339969
-0.00625589
0.00366065
-0.00686018
0.00389617
-0.00744666
0.00411751
-0.00803956
0.00433776
-0.00864439
-0.00931258
0.0045591
5.62394e-06
1.35155e-05
2.79197e-05
-8.25885e-06
7.42035e-05
-8.66524e-05
0.00015298
-0.000234108
0.00027359
-0.000464441
0.000445111
-0.000791041
0.00067423
-0.00122379
0.000962117
-0.00176429
0.00130124
-0.00240087
0.00167418
-0.00310655
0.00205645
-0.0038432
0.00242304
-0.00457174
0.00275555
-0.00526349
0.00304629
-0.00590698
0.00329805
-0.00650765
0.00352033
-0.00708247
0.00372537
-0.0076517
0.00392312
-0.00823731
0.00412386
-0.00884513
-0.00951643
0.00432771
6.96685e-06
6.54865e-06
3.35263e-05
-3.48183e-05
8.74694e-05
-0.000140595
0.000177633
-0.000324272
0.000313205
-0.000600012
0.000502088
-0.000979924
0.000748183
-0.00146988
0.00104805
-0.00206415
0.00138855
-0.00274137
0.00174789
-0.00346589
0.00210088
-0.00419619
0.00242628
-0.00489714
0.00271235
-0.00554957
0.00295819
-0.00615283
0.00317114
-0.0067206
0.0033623
-0.00727362
0.00354295
-0.00783235
0.00372114
-0.0084155
0.00390454
-0.00902854
-0.00970389
0.004092
8.45074e-06
-1.90209e-06
3.96062e-05
-6.59738e-05
0.00010161
-0.000202599
0.000203381
-0.000426044
0.000353495
-0.000750126
0.000557979
-0.00118441
0.000817142
-0.00172905
0.00112251
-0.00236952
0.00145605
-0.00307491
0.00179364
-0.00380349
0.00211198
-0.00451453
0.00239524
-0.0051804
0.00263828
-0.00579261
0.00284539
-0.00635994
0.00302642
-0.00690162
0.00319239
-0.00743959
0.00335286
-0.00799282
0.00351395
-0.00857659
0.0036812
-0.00919579
-0.00987541
0.00385272
1.00633e-05
-1.19653e-05
4.6084e-05
-0.000101995
0.000116389
-0.000272903
0.000229666
-0.000539321
0.000393349
-0.00091381
0.000610881
-0.00140194
0.000878381
-0.00199655
0.00118246
-0.00267359
0.00150153
-0.00339398
0.00181142
-0.00411338
0.00209266
-0.00479576
0.00233542
-0.00542316
0.00254016
-0.00599735
0.00271461
-0.00653439
0.00286943
-0.00705644
0.00301456
-0.00758473
0.00315762
-0.00813588
0.00330303
-0.008722
0.00345469
-0.00934746
-0.0100311
0.00361043
1.1788e-05
-2.37533e-05
5.28625e-05
-0.000143069
0.000131519
-0.00035156
0.000255839
-0.000663641
0.000431551
-0.00108952
0.000658882
-0.00162927
0.000929489
-0.00226716
0.00122574
-0.00296984
0.00152425
-0.00369249
0.00180282
-0.00439196
0.00204692
-0.00503987
0.00225241
-0.00562865
0.00242397
-0.00616891
0.00257113
-0.00668155
0.00270416
-0.00718947
0.00283148
-0.00771204
0.00295883
-0.00826324
0.00308932
-0.00885249
0.00322563
-0.00948377
-0.0101711
0.00336557
1.36018e-05
-3.73551e-05
5.98216e-05
-0.000189289
0.000146665
-0.000438403
0.000281186
-0.000798163
0.000466849
-0.00127519
0.000700204
-0.00186262
0.000968575
-0.00253553
0.00125122
-0.00325248
0.00152478
-0.00396606
0.00177054
-0.00463771
0.0019792
-0.00524853
0.0021514
-0.00580085
0.00229462
-0.00631212
0.00241888
-0.00680581
0.0025334
-0.00730399
0.00264488
-0.00782352
0.00275753
-0.00837589
0.00287344
-0.0089684
0.00299445
-0.00960478
-0.0102952
0.00311852
1.54756e-05
-5.28308e-05
6.68201e-05
-0.000240633
0.00016145
-0.000533033
0.000304953
-0.000941666
0.000498032
-0.00146826
0.000733338
-0.00209793
0.000994397
-0.00279658
0.00125876
-0.00351684
0.00150473
-0.00421202
0.00171786
-0.00485085
0.00189382
-0.00542449
0.00203686
-0.0059439
0.00215596
-0.00643122
0.00226075
-0.0069106
0.00235902
-0.00740225
0.00245592
-0.00792042
0.00255441
-0.00847438
0.00265589
-0.00906988
0.00276157
-0.00971047
-0.0104032
0.00286965
1.73747e-05
-7.02055e-05
7.36988e-05
-0.000296957
0.000175476
-0.00063481
0.000326391
-0.00109258
0.000524011
-0.00166588
0.000757154
-0.00233107
0.00100641
-0.00304584
0.00124909
-0.00375952
0.00146633
-0.00442926
0.00164825
-0.00503277
0.00179471
-0.00557095
0.00191246
-0.00606164
0.00201091
-0.00652967
0.00209877
-0.00699846
0.00218231
-0.0074858
0.00226537
-0.00800348
0.00234998
-0.00855898
0.00243704
-0.00915694
0.00252735
-0.00980078
-0.0104952
0.00261932
1.9259e-05
-8.94645e-05
8.0286e-05
-0.000357984
0.000188334
-0.000742858
0.000344798
-0.00124904
0.000543894
-0.00186498
0.00077096
-0.00255814
0.00100473
-0.00327961
0.00122357
-0.00397835
0.00141219
-0.00461788
0.00156503
-0.00518561
0.00168528
-0.00569119
0.0017811
-0.00615746
0.00186164
-0.00661021
0.00193436
-0.00707118
0.00200417
-0.00755561
0.00207382
-0.00807313
0.00214464
-0.00862981
0.00221725
-0.00922955
0.00229212
-0.00987564
-0.010571
0.00236787
2.10849e-05
-0.000110549
8.64045e-05
-0.000423304
0.000199634
-0.000856087
0.000359561
-0.00140897
0.000557037
-0.00206246
0.000774519
-0.00277562
0.000990013
-0.00349511
0.00118396
-0.0041723
0.00134494
-0.00477886
0.00147121
-0.00531188
0.00156832
-0.0057883
0.00164502
-0.00623417
0.00170971
-0.0066749
0.00176855
-0.00713002
0.00182523
-0.0076123
0.00188168
-0.00812957
0.00193876
-0.00868689
0.00199686
-0.00928766
0.00205622
-0.00993499
-0.0106304
0.00211566
2.28066e-05
-0.000133356
9.18804e-05
-0.000492378
0.000209018
-0.000973225
0.000370194
-0.00157015
0.000563075
-0.00225534
0.000768006
-0.00298055
0.000963324
-0.00369043
0.00113224
-0.00434122
0.00126714
-0.00491375
0.00136939
-0.00541413
0.00144609
-0.005865
0.00150593
-0.00629401
0.00155628
-0.00672525
0.00160205
-0.00717579
0.00164597
-0.00765621
0.00168932
-0.00817292
0.00173265
-0.00873021
0.00177619
-0.0093312
0.00181998
-0.00997878
-0.0106735
0.00186305
2.4378e-05
-0.000157734
9.65507e-05
-0.000564551
0.000216185
-0.00109286
0.000376359
-0.00173032
0.000561917
-0.00244089
0.00075194
-0.00317057
0.000925989
-0.00386448
0.00107042
-0.00448565
0.00118108
-0.00502441
0.00126176
-0.00549482
0.00132037
-0.00592361
0.00136508
-0.00633873
0.00140216
-0.00676233
0.00143542
-0.00720905
0.00146677
-0.00768757
0.00149706
-0.00820322
0.00152661
-0.00875976
0.00155554
-0.00936013
0.00158375
-0.010007
-0.0107001
0.00161042
2.57553e-05
-0.000183489
0.000100271
-0.000639066
0.0002209
-0.00121349
0.000377876
-0.0018873
0.000553724
-0.00261674
0.000727101
-0.00334395
0.000879467
-0.00401684
0.00100041
-0.0046066
0.00108878
-0.00511278
0.00115011
-0.00555614
0.00119252
-0.00596602
0.00122343
-0.00636964
0.00124798
-0.00678688
0.00126905
-0.00723012
0.00128795
-0.00770647
0.0013052
-0.00822047
0.00132095
-0.00877551
0.00133524
-0.00937442
0.00134786
-0.0100196
-0.0107104
0.00135814
2.6898e-05
-0.000210387
0.000102923
-0.000715092
0.000223008
-0.00133357
0.000374722
-0.00203901
0.000538866
-0.00278089
0.000694436
-0.00349952
0.000825238
-0.00414764
0.000923972
-0.00470533
0.000991974
-0.00518079
0.00103587
-0.00560004
0.00106361
-0.00599375
0.00108168
-0.00638771
0.00109422
-0.00679942
0.00110331
-0.00723921
0.00110981
-0.00771297
0.00111401
-0.00822467
0.00111595
-0.00877745
0.00111558
-0.00937405
0.00111265
-0.0100167
-0.0107044
0.00110663
2.77712e-05
-0.000238159
0.000104418
-0.000791739
0.000222434
-0.00145159
0.000367017
-0.00218359
0.000517875
-0.00293174
0.000654984
-0.00363663
0.000764734
-0.00425739
0.000842676
-0.00478327
0.000892088
-0.0052302
0.000920191
-0.00562815
0.000934441
-0.006008
0.000940383
-0.00639365
0.000941235
-0.00680027
0.000938476
-0.00723645
0.00093262
-0.00770712
0.000923772
-0.00821582
0.000911873
-0.00876555
0.000896841
-0.00935902
0.000878423
-0.00999825
-0.0106821
0.000856094
2.83467e-05
-0.000266505
0.000104699
-0.000868091
0.000219182
-0.00156607
0.000354999
-0.00231941
0.000491389
-0.00306813
0.000609804
-0.00375505
0.00069928
-0.00434687
0.000757875
-0.00484187
0.0007903
-0.00526262
0.000803955
-0.0056418
0.000805631
-0.00600968
0.000799948
-0.00638797
0.000789345
-0.00678967
0.000774821
-0.00722192
0.000756629
-0.00768892
0.000734744
-0.00819393
0.000709019
-0.00873982
0.000679305
-0.00932931
0.000645399
-0.00996434
-0.0106435
0.000606778
2.86037e-05
-0.000295109
0.000103742
-0.00094323
0.000213325
-0.00167565
0.000339001
-0.00244509
0.00046011
-0.00318924
0.00055993
-0.00385487
0.000630075
-0.00441702
0.000670721
-0.00488251
0.000687562
-0.00527946
0.000687866
-0.00564211
0.000677662
-0.00599947
0.000660713
-0.00637102
0.000638812
-0.00676777
0.000612584
-0.0071957
0.00058209
-0.00765843
0.000547194
-0.00815904
0.000507685
-0.00870031
0.000463342
-0.00928496
0.000413788
-0.00991479
-0.0105885
0.000358792
2.85295e-05
-0.000323638
0.000101556
-0.00101626
0.000204998
-0.0017791
0.00031942
-0.00255951
0.000424759
-0.00329458
0.000506334
-0.00393644
0.00055817
-0.00446885
0.000582175
-0.00490652
0.000584636
-0.00528192
0.000572469
-0.00562994
0.00055091
-0.00597792
0.000522955
-0.00634307
0.000489872
-0.00673468
0.000451995
-0.00715782
0.000409245
-0.00761568
0.000361382
-0.00811117
0.000308135
-0.00864707
0.000249353
-0.00922618
0.000184234
-0.00984967
-0.010516
0.00011174
2.81192e-05
-0.000351758
9.81769e-05
-0.00108631
0.000194384
-0.0018753
0.000296694
-0.00266182
0.000386046
-0.00338393
0.000449903
-0.0040003
0.000484477
-0.00450343
0.000493031
-0.00491507
0.000482132
-0.00527102
0.000458195
-0.005606
0.000425679
-0.0059454
0.000386912
-0.0063043
0.000342743
-0.00669052
0.000293275
-0.00710835
0.00023831
-0.00756072
0.000177572
-0.00805044
0.00011055
-0.00858005
3.70498e-05
-0.00915268
-4.20024e-05
-0.00977062
-0.0104263
-0.000131674
2.73755e-05
-0.000379133
9.36657e-05
-0.0011526
0.000181702
-0.00196334
0.000271276
-0.00275139
0.00034465
-0.00345731
0.000391434
-0.00404708
0.000409769
-0.00452176
0.000403937
-0.00490924
0.000380533
-0.00524762
0.000345382
-0.00557085
0.000302219
-0.00590224
0.000252794
-0.00625487
0.000197617
-0.00663534
0.000136627
-0.00704736
6.94323e-05
-0.00749352
-4.34892e-06
-0.00797666
-8.46065e-05
-0.00849979
-0.000171929
-0.00906536
-0.000267533
-0.00967501
-0.0103225
-0.000371309
2.6308e-05
-0.000405441
8.81035e-05
-0.0012144
0.000167194
-0.00204243
0.000243619
-0.00282782
0.000301198
-0.00351489
0.000331625
-0.00407751
0.000334698
-0.00452483
0.000315419
-0.00488996
0.000280222
-0.00521242
0.000234306
-0.00552493
0.00018073
-0.00584866
0.000120792
-0.00619493
5.45928e-05
-0.00656914
-1.79349e-05
-0.00697483
-9.69042e-05
-0.00741455
-0.00018304
-0.00789052
-0.000276904
-0.00840592
-0.000378586
-0.00896368
-0.000489251
-0.00956435
-0.0102034
-0.000608382
2.49321e-05
-0.000430373
8.15862e-05
-0.00127105
0.000151112
-0.00211195
0.00021416
-0.00289087
0.000256262
-0.00355699
0.00027108
-0.00409233
0.000259804
-0.00451356
0.000227902
-0.00485806
0.00018151
-0.00516603
0.000125201
-0.00546862
6.13341e-05
-0.0057848
-9.19869e-06
-0.0061244
-8.59035e-05
-0.00649244
-0.000169528
-0.00689121
-0.000260567
-0.00732351
-0.000359353
-0.00779173
-0.000466466
-0.00829881
-0.000582345
-0.0088478
-0.000707685
-0.00943901
-0.0100688
-0.000842314
2.32682e-05
-0.000453641
7.42199e-05
-0.00132201
0.000133709
-0.00217144
0.000183313
-0.00294047
0.000210355
-0.00358403
0.00021032
-0.00409229
0.000185535
-0.00448877
0.000141726
-0.00481425
8.46401e-05
-0.00510895
1.80874e-05
-0.00540207
-5.56442e-05
-0.00571106
-0.000136149
-0.0060439
-0.00022376
-0.00640482
-0.000318666
-0.0067963
-0.000421479
-0.0072207
-0.000532717
-0.00768049
-0.000652956
-0.00817857
-0.000782782
-0.00871797
-0.000922675
-0.00929911
-0.00991882
-0.00107261
2.13407e-05
-0.000474982
6.61169e-05
-0.00136678
0.000115237
-0.00222056
0.000151459
-0.00297669
0.000163929
-0.0035965
0.000149783
-0.00407815
0.000112262
-0.00445125
5.71534e-05
-0.00475914
-1.03257e-05
-0.00504147
-8.64174e-05
-0.00532598
-0.000170037
-0.00562744
-0.000260778
-0.00595316
-0.000358948
-0.00630665
-0.000464962
-0.00669029
-0.000579401
-0.00710626
-0.000702895
-0.007557
-0.000836089
-0.00804538
-0.000979648
-0.00857441
-0.00113397
-0.00914479
-0.00975383
-0.00129896
1.91772e-05
-0.000494159
5.73925e-05
-0.001405
9.59371e-05
-0.00225911
0.000118949
-0.0029997
0.000117377
-0.00359493
8.98403e-05
-0.00405061
4.02891e-05
-0.0044017
-2.5553e-05
-0.0046933
-0.000102713
-0.00496431
-0.000188551
-0.00524014
-0.000281891
-0.0055341
-0.000382673
-0.00585237
-0.000491274
-0.00619805
-0.000608217
-0.00657334
-0.00073412
-0.00698036
-0.000869673
-0.00742145
-0.00101561
-0.00789944
-0.00117268
-0.00841734
-0.00134127
-0.00897621
-0.00957405
-0.00152105
1.68089e-05
-0.000510968
4.81619e-05
-0.00143635
7.60387e-05
-0.00228699
8.61e-05
-0.00300977
7.10429e-05
-0.00357987
3.08369e-05
-0.0040104
-3.01254e-05
-0.00434074
-0.000106155
-0.00461727
-0.000192932
-0.00487753
-0.000288149
-0.00514493
-0.000391031
-0.00543122
-0.000501685
-0.00574172
-0.000620567
-0.00607917
-0.000748266
-0.00644565
-0.000885444
-0.00684318
-0.00103284
-0.00727405
-0.00119128
-0.007741
-0.00136164
-0.00824698
-0.00154429
-0.00879356
-0.00937974
-0.00173859
1.42714e-05
-0.00052524
3.85369e-05
-0.00146062
5.57596e-05
-0.00230421
5.31975e-05
-0.0030072
2.53153e-05
-0.00355199
-2.70401e-05
-0.00395805
-9.88168e-05
-0.00426896
-0.000184645
-0.00453144
-0.000280694
-0.00478148
-0.000385079
-0.00504054
-0.000497326
-0.00531898
-0.000617682
-0.00562136
-0.000746675
-0.00595018
-0.000884941
-0.00630738
-0.00103319
-0.00669493
-0.0011922
-0.00711504
-0.00136288
-0.00757032
-0.00154627
-0.00806359
-0.00174277
-0.00859706
-0.00917123
-0.00195128
1.16141e-05
-0.000536854
2.86453e-05
-0.00147765
3.52997e-05
-0.00231086
2.059e-05
-0.00299249
-1.97588e-05
-0.00351164
-8.36036e-05
-0.0038942
-0.00016564
-0.00418693
-0.000260858
-0.00443622
-0.000365888
-0.00467645
-0.000479235
-0.00492719
-0.000600663
-0.00519755
-0.000730539
-0.00549149
-0.000869452
-0.00581126
-0.00101808
-0.00615875
-0.00117718
-0.00653584
-0.00134756
-0.00694466
-0.00153021
-0.00738767
-0.00172634
-0.00786746
-0.00193644
-0.00838696
-0.0089489
-0.00215877
8.89444e-06
-0.000545748
1.8598e-05
-0.00148735
1.48857e-05
-0.00230715
-1.16842e-05
-0.00296592
-6.40782e-05
-0.00345925
-0.000138672
-0.00381961
-0.000230455
-0.00409514
-0.000334687
-0.00433199
-0.000448426
-0.00456271
-0.000570521
-0.0048051
-0.000700935
-0.00506713
-0.000840134
-0.00535229
-0.00098876
-0.00566264
-0.00114754
-0.00599997
-0.00131724
-0.00636613
-0.00149873
-0.00676317
-0.00169305
-0.00719334
-0.00190162
-0.00765889
-0.00212501
-0.00816357
-0.00871315
-0.00236076
6.06558e-06
-0.000551814
8.43454e-06
-0.00148972
-5.30319e-06
-0.00229341
-4.38882e-05
-0.00292734
-0.000107254
-0.00339588
-0.000192083
-0.00373478
-0.000293152
-0.00399407
-0.000406044
-0.0042191
-0.000528227
-0.00444053
-0.000658848
-0.00467448
-0.000798039
-0.00492794
-0.000946347
-0.00520398
-0.00110447
-0.00550452
-0.00127315
-0.00583128
-0.00145322
-0.00618607
-0.00164554
-0.00657086
-0.00185122
-0.00698765
-0.00207184
-0.00743827
-0.00230821
-0.00792721
-0.00846394
-0.00255742
3.10994e-06
-0.000554924
-1.61331e-06
-0.001485
-2.60109e-05
-0.00226902
-7.52159e-05
-0.00287813
-0.000149176
-0.00332192
-0.000243718
-0.00364024
-0.000353635
-0.00388416
-0.000474852
-0.00409788
-0.000605215
-0.00431017
-0.000744134
-0.00453556
-0.000891878
-0.0047802
-0.00104906
-0.0050468
-0.00121644
-0.00533715
-0.00139479
-0.00565293
-0.00158496
-0.0059959
-0.00178785
-0.00636797
-0.00200462
-0.00677089
-0.00223687
-0.00720602
-0.00248582
-0.00767826
-0.00820122
-0.00274854
-2.8677e-07
-0.000554637
-1.21401e-05
-0.00147314
-4.60246e-05
-0.00223513
-0.00010569
-0.00281847
-0.000189721
-0.00323789
-0.000293477
-0.00353648
-0.000411828
-0.00376581
-0.000541047
-0.00396866
-0.000679325
-0.00417189
-0.000826298
-0.00438859
-0.000982355
-0.00462414
-0.00114817
-0.00488098
-0.00132454
-0.00516078
-0.00151229
-0.00546518
-0.0017123
-0.00579589
-0.00192553
-0.00615474
-0.0021532
-0.00654321
-0.00239678
-0.00696244
-0.00265687
-0.00741817
-0.00792631
-0.00293178
-3.03644e-06
-0.000551601
-2.22869e-05
-0.00145389
-6.55335e-05
-0.00219188
-0.000135199
-0.0027488
-0.000228791
-0.0031443
-0.00034128
-0.00342399
-0.000467668
-0.00363942
-0.000604571
-0.00383176
-0.000750492
-0.00402597
-0.000905266
-0.00423381
-0.00106938
-0.00446003
-0.00124357
-0.00470679
-0.00142865
-0.0049757
-0.00162551
-0.00526832
-0.00183507
-0.00558633
-0.00205839
-0.00593142
-0.00229676
-0.00630484
-0.00255151
-0.00670769
-0.00282446
-0.00714522
-0.00764712
-0.00310365
-6.00347e-06
-0.000545597
-3.22092e-05
-0.00142769
-8.44858e-05
-0.00213961
-0.000163671
-0.00266962
-0.000266306
-0.00304166
-0.000387063
-0.00330324
-0.000521103
-0.00350538
-0.000665372
-0.00368749
-0.000818658
-0.00387268
-0.000980965
-0.0040715
-0.00115287
-0.00428813
-0.00133514
-0.00452451
-0.00152865
-0.00478219
-0.00173431