/*--------------------------------*- C++ -*----------------------------------*\
  =========                 |
  \\      /  F ield         | OpenFOAM: The Open Source CFD Toolbox
   \\    /   O peration     | Website:  https://openfoam.org
    \\  /    A nd           | Version:  7
     \\/     M anipulation  |
\*---------------------------------------------------------------------------*/
FoamFile
{
    version     2.0;
    format      ascii;
    class       volScalarField;
    location    "5";
    object      p;
}
// * * * * * * * * * * * * * * * * * * * * * * * * * * * * * * * * * * * * * //

dimensions      [0 2 -2 0 0 0 0];

internalField   nonuniform List<scalar> 
344
(
0.275319
0.275423
0.275422
0.275318
0.275113
0.274809
0.274408
0.273913
0.273325
0.272646
0.271878
0.271022
0.270081
0.269057
0.26795
0.266762
0.265496
0.264152
0.262732
0.261237
0.259669
0.25803
0.25632
0.25454
0.252693
0.25078
0.248801
0.246758
0.244651
0.163344
0.169942
0.176279
0.182363
0.1882
0.193795
0.199156
0.204287
0.209195
0.213886
0.218364
0.222635
0.226704
0.230576
0.234256
0.237748
0.241058
0.244189
0.247147
0.249934
0.252555
0.255015
0.257316
0.259463
0.261459
0.263308
0.265013
0.266577
0.268004
0.269297
0.270458
0.271491
0.272399
0.273184
0.273849
0.274397
0.274831
0.275151
0.275362
0.275466
0.275464
0.275359
0.275154
0.27485
0.274448
0.273953
0.273364
0.272685
0.271916
0.27106
0.270119
0.269094
0.267987
0.266799
0.265532
0.264187
0.262767
0.261272
0.259703
0.258063
0.256353
0.254573
0.252726
0.250812
0.248833
0.246789
0.244683
0.163417
0.170014
0.176351
0.182435
0.188271
0.193865
0.199225
0.204356
0.209264
0.213953
0.218431
0.222701
0.226769
0.230641
0.23432
0.237812
0.241121
0.244252
0.247208
0.249995
0.252615
0.255074
0.257375
0.259521
0.261516
0.263365
0.265069
0.266632
0.268059
0.269351
0.270512
0.271544
0.272451
0.273236
0.273901
0.274448
0.27488
0.275201
0.275411
0.275514
0.275512
0.275406
0.2752
0.274895
0.274494
0.273997
0.273408
0.272728
0.271959
0.271103
0.270161
0.269135
0.268027
0.266839
0.265572
0.264227
0.262806
0.26131
0.259741
0.258101
0.25639
0.25461
0.252762
0.250848
0.248868
0.246824
0.244717
0.163503
0.1701
0.176436
0.182518
0.188353
0.193947
0.199306
0.204436
0.209343
0.214032
0.218508
0.222777
0.226845
0.230715
0.234394
0.237885
0.241193
0.244323
0.247278
0.250064
0.252684
0.255142
0.257442
0.259587
0.261582
0.263429
0.265132
0.266695
0.268121
0.269412
0.270572
0.271604
0.27251
0.273294
0.273958
0.274505
0.274936
0.275256
0.275466
0.275568
0.275565
0.275459
0.275252
0.274946
0.274544
0.274047
0.273457
0.272777
0.272007
0.27115
0.270208
0.269182
0.268073
0.266884
0.265616
0.264271
0.262849
0.261353
0.259784
0.258143
0.256431
0.254651
0.252803
0.250888
0.248907
0.246863
0.244756
0.163604
0.1702
0.176535
0.182616
0.18845
0.194043
0.1994
0.204529
0.209434
0.214122
0.218597
0.222866
0.226932
0.230801
0.234479
0.237968
0.241276
0.244404
0.247359
0.250143
0.252762
0.255219
0.257518
0.259662
0.261656
0.263502
0.265204
0.266766
0.268191
0.269481
0.27064
0.271671
0.272577
0.27336
0.274023
0.274568
0.274999
0.275318
0.275527
0.275628
0.275624
0.275518
0.27531
0.275004
0.274601
0.274103
0.273512
0.272831
0.272061
0.271203
0.27026
0.269233
0.268124
0.266934
0.265665
0.264319
0.262897
0.2614
0.259831
0.258189
0.256477
0.254696
0.252847
0.250932
0.248951
0.246906
0.244798
0.163722
0.170316
0.176649
0.182729
0.188561
0.194152
0.199509
0.204636
0.20954
0.214226
0.2187
0.222966
0.227031
0.230899
0.234575
0.238064
0.241369
0.244497
0.24745
0.250233
0.252851
0.255306
0.257604
0.259747
0.261739
0.263584
0.265286
0.266846
0.26827
0.269559
0.270717
0.271747
0.272651
0.273433
0.274095
0.274639
0.275069
0.275387
0.275595
0.275695
0.275691
0.275583
0.275374
0.275067
0.274663
0.274165
0.273573
)
;

boundaryField
{
    inlet
    {
        type            zeroGradient;
    }
    outlet
    {
        type            fixedValue;
        value           nonuniform 0();
    }
    wall
    {
        type            zeroGradient;
    }
    wedge1
    {
        type            wedge;
    }
    wedge2
    {
        type            wedge;
    }
    axis
    {
        type            empty;
    }
    procBoundary34to28
    {
        type            processor;
        value           nonuniform List<scalar> 
68
(
0.275281
0.275385
0.275384
0.27528
0.275076
0.274772
0.274372
0.273877
0.273289
0.272611
0.271843
0.270988
0.270048
0.269023
0.267917
0.26673
0.265463
0.26412
0.2627
0.261206
0.259638
0.257999
0.256289
0.254511
0.252664
0.250751
0.248772
0.246729
0.244623
0.163282
0.169881
0.176219
0.182303
0.18814
0.193736
0.199097
0.204228
0.209137
0.213828
0.218306
0.222578
0.226647
0.23052
0.2342
0.237693
0.241003
0.244135
0.247093
0.249881
0.252503
0.254963
0.257264
0.259412
0.261408
0.263258
0.264963
0.266528
0.267956
0.269249
0.270411
0.271445
0.272353
0.273138
0.273804
0.274353
0.274786
0.275108
0.275108
)
;
    }
    procBoundary34to29
    {
        type            processor;
        value           uniform 0.242483;
    }
    procBoundary34to33
    {
        type            processor;
        value           nonuniform List<scalar> 4(0.156478 0.156552 0.156639 0.156742);
    }
    procBoundary34to35
    {
        type            processor;
        value           nonuniform List<scalar> 4(0.242514 0.242548 0.242586 0.242628);
    }
    procBoundary34to39
    {
        type            processor;
        value           uniform 0.156861;
    }
    procBoundary34to40
    {
        type            processor;
        value           nonuniform List<scalar> 
68
(
0.272891
0.27212
0.271262
0.270318
0.26929
0.26818
0.26699
0.26572
0.264373
0.26295
0.261453
0.259882
0.25824
0.256528
0.254746
0.252896
0.25098
0.248999
0.246953
0.244844
0.163858
0.17045
0.176781
0.182859
0.188689
0.194279
0.199633
0.204758
0.20966
0.214344
0.218816
0.223081
0.227144
0.231011
0.234685
0.238172
0.241476
0.244601
0.247553
0.250335
0.252951
0.255405
0.257701
0.259842
0.261833
0.263677
0.265377
0.266936
0.268358
0.269646
0.270803
0.271831
0.272734
0.273515
0.274175
0.274719
0.275148
0.275464
0.275671
0.27577
0.275764
0.275656
0.275446
0.275138
0.274733
0.274233
0.272891
0.273641
)
;
    }
}


// ************************************************************************* //
