/*--------------------------------*- C++ -*----------------------------------*\
  =========                 |
  \\      /  F ield         | OpenFOAM: The Open Source CFD Toolbox
   \\    /   O peration     | Website:  https://openfoam.org
    \\  /    A nd           | Version:  7
     \\/     M anipulation  |
\*---------------------------------------------------------------------------*/
FoamFile
{
    version     2.0;
    format      ascii;
    class       surfaceScalarField;
    location    "20";
    object      phi;
}
// * * * * * * * * * * * * * * * * * * * * * * * * * * * * * * * * * * * * * //

dimensions      [0 3 -1 0 0 0 0];

internalField   nonuniform List<scalar> 
818
(
-0.00335624
0.000595695
0.000464025
0.00672587
-0.000153201
0.00680205
-1.48442e-05
0.00687136
0.000127041
0.00693391
0.000268157
0.00698887
0.000409063
0.000549195
0.00675762
-0.000645564
0.00683892
-0.000509181
0.00691779
-0.000370262
0.0069938
-0.000229213
0.00706573
-8.67719e-05
0.00713508
5.76906e-05
0.00719893
0.000204305
0.00725737
0.00035063
0.000496882
0.00689236
-0.000984226
0.00696668
-0.00085337
0.00704024
-0.000719122
0.0071128
-0.00058174
0.00718407
-0.000441532
0.00725366
-0.000298806
0.00732079
-0.000153898
0.00738721
-8.72836e-06
0.00744981
0.0001417
0.00750913
0.000291314
0.000441512
0.00719921
-0.00104843
0.00726323
-0.000917396
0.00732704
-0.000782928
0.00739055
-0.000645249
0.00745364
-0.000504628
0.00751618
-0.00036134
0.00757798
-0.000215698
0.00763749
-6.82417e-05
0.00769732
8.18752e-05
0.00775513
0.000233501
0.000385859
0.0075093
-0.00110281
0.00756382
-0.000971913
0.0076185
-0.00083761
0.00767335
-0.000700101
0.00772835
-0.000559628
0.00778344
-0.000416428
0.00783849
-0.000270752
0.00789317
-0.000122916
0.00794846
2.65782e-05
0.00800295
0.000179011
0.000332063
0.00782238
-0.00114825
0.00786825
-0.00101779
0.00791463
-0.000883987
0.00796157
-0.000747041
0.00800911
-0.000607166
0.00805726
-0.000464582
0.00810603
-0.000319514
0.00815532
-0.000172211
0.00820529
-2.33894e-05
0.00825585
0.000128446
0.000281192
0.00813866
-0.00118557
0.00817673
-0.00105585
0.00821562
-0.000922883
0.00825543
-0.000786845
0.00829621
-0.000647949
0.00833803
-0.000506404
0.00838094
-0.000362421
0.00842496
-0.000216233
0.00846976
-6.81901e-05
0.0085162
8.20097e-05
0.000233771
0.00845866
-0.00121553
0.00848966
-0.00108685
0.00852178
-0.000955009
0.00855513
-0.000820196
0.00858979
-0.000682606
0.00862583
-0.000542441
0.00866331
-0.000399903
0.00870228
-0.000255205
0.00874271
-0.000108614
0.00878505
3.96695e-05
0.000189988
0.00878315
-0.00123873
0.00880768
-0.00111138
0.00883363
-0.000980965
0.0088611
-0.000847668
0.00889018
-0.000711679
0.00892093
-0.000573191
0.00895342
-0.000432395
0.0089877
-0.000289487
0.00902375
-0.00014466
0.00906277
6.42881e-07
0.000149888
0.00911292
-0.00125571
0.00913151
-0.00112997
0.00915181
-0.00100126
0.00917391
-0.000869771
0.00919791
-0.000735679
0.0092239
-0.000599175
0.00925195
-0.000460452
0.00928217
-0.000319704
0.00931466
-0.000177146
0.00934842
-3.31232e-05
0.000112824
0.00944869
-0.00126692
0.00946177
-0.00114305
0.00947681
-0.00101631
0.00949392
-0.000886879
0.00951318
-0.000754935
0.00953466
-0.000620661
0.00955846
-0.000484244
0.00958462
-0.000345871
0.00961322
-0.00020574
0.00964419
-6.40923e-05
7.90905e-05
0.00979107
-0.00127275
0.00979901
-0.00115099
0.00980916
-0.00102646
0.00982162
-0.00089933
0.00983645
-0.000769771
0.00985375
-0.000637961
0.00987359
-0.000504082
0.00989604
-0.000368316
0.00992115
-0.000230852
0.00994896
-9.19011e-05
4.84008e-05
0.0101406
-0.00127353
0.0101437
-0.00115412
0.0101493
-0.00103202
0.0101574
-0.000907416
0.0101681
-0.000780461
0.0101815
-0.000651334
0.0101976
-0.000520209
0.0102165
-0.000387263
0.0102384
-0.000252679
0.0102631
-0.000116655
2.05512e-05
0.0104978
-0.00126956
0.0104964
-0.00115271
0.0104976
-0.00103327
0.0105016
-0.000911393
0.0105084
-0.000787249
0.0105181
-0.000661005
0.0105307
-0.000532831
0.0105463
-0.000402901
0.010565
-0.000271391
0.0105869
-0.000138482
-4.63543e-06
0.010863
-0.00126113
0.0108573
-0.00114704
0.0108545
-0.00103045
0.0108546
-0.000911497
0.0108577
-0.000790356
0.0108639
-0.000667187
0.0108732
-0.000542156
0.0108857
-0.000415433
0.0109015
-0.000287189
0.0109207
-0.000157604
-2.69107e-05
0.0112367
-0.00124847
0.011227
-0.00113733
0.0112203
-0.00102377
0.0112167
-0.000907927
0.0112163
-0.000789967
0.0112192
-0.000670049
0.0112254
-0.000548332
0.0112349
-0.000424982
0.0112479
-0.000300166
0.0112643
-0.000174057
-4.68474e-05
0.0116193
-0.00123181
0.0116057
-0.00112379
0.0115954
-0.00101343
0.0115883
-0.000900869
0.0115846
-0.00078626
0.0115843
-0.000669756
0.0115875
-0.000551517
0.0115942
-0.000431701
0.0116045
-0.000310472
0.0116185
-0.000187996
-6.44526e-05
0.0120112
-0.00121134
0.011994
-0.00110661
0.0119802
-0.000999615
0.0119699
-0.000890492
0.011963
-0.00077939
0.0119597
-0.000666459
0.01196
-0.000551852
0.011964
-0.000435724
0.0119718
-0.000318233
0.0119833
-0.000199543
-7.98203e-05
0.0124131
-0.00118724
0.0123925
-0.00108596
0.0123753
-0.00098248
0.0123618
-0.000876946
0.0123519
-0.000769502
0.0123457
-0.000660292
0.0123433
-0.000549465
0.0123448
-0.000437172
0.0123501
-0.000323566
0.0123594
-0.000208804
-9.30484e-05
0.0128255
-0.00115969
0.0128015
-0.00106199
0.0127812
-0.000962169
0.0127646
-0.000860369
0.0127518
-0.000756726
0.0127429
-0.00065138
0.0127379
-0.000544475
0.0127369
-0.000436156
0.0127399
-0.000326574
0.012747
-0.00021588
-0.000104229
0.013249
-0.00112881
0.0132218
-0.00103483
0.0131985
-0.000938814
0.013179
-0.000840885
0.0131634
-0.00074118
0.0131519
-0.000639834
0.0131444
-0.000536987
0.013141
-0.000432781
0.0131418
-0.000327358
0.0131468
-0.000220867
-0.000113457
0.0136843
-0.00109474
0.0136541
-0.00100462
0.0136278
-0.000912531
0.0136055
-0.000818604
0.0135873
-0.000722969
0.0135732
-0.000625756
0.0135633
-0.0005271
0.0135577
-0.000427138
0.0135563
-0.000326009
0.0135593
-0.000223853
-0.000120817
0.0141322
-0.0010576
0.014099
-0.000971457
0.0140699
-0.000883423
0.0140449
-0.000793625
0.0140241
-0.000702186
0.0140076
-0.000609234
0.0139954
-0.000514898
0.0139876
-0.000419309
0.0139842
-0.000322601
0.0139852
-0.000224911
-0.000126376
0.0145934
-0.00101749
0.0145574
-0.000935436
0.0145256
-0.000851578
0.014498
-0.000766032
0.0144747
-0.000678915
0.0144558
-0.000590349
0.0144414
-0.000500459
0.0144314
-0.000409371
0.014426
-0.000317212
0.0144252
-0.000224114
-0.00013021
0.0150689
-0.000974478
0.0150301
-0.000896638
0.0149956
-0.000817075
0.0149655
-0.0007359
0.0149398
-0.000653226
0.0149186
-0.000569171
0.014902
-0.000483852
0.0148901
-0.00039739
0.0148828
-0.000309908
0.0148802
-0.00022153
-0.000132384
0.0155597
-0.000928644
0.0155182
-0.00085513
0.0154811
-0.000779978
0.0154485
-0.000703293
0.0154204
-0.000625183
0.015397
-0.000545761
0.0153783
-0.000465137
0.0153643
-0.000383427
0.0153552
-0.000300748
0.0153509
-0.000217218
-0.000132958
0.0160667
-0.000880042
0.0160225
-0.000810965
0.0159829
-0.000740339
0.0159478
-0.000668262
0.0159175
-0.000594837
0.0158919
-0.00052017
0.0158711
-0.000444366
0.0158552
-0.000367535
0.0158443
-0.000289786
0.0158383
-0.000211233
-0.00013199
0.016591
-0.000828711
0.0165442
-0.000764185
0.0165021
-0.000698199
0.0164647
-0.000630849
0.0164321
-0.000562231
0.0164043
-0.000492442
0.0163815
-0.000421584
0.0163638
-0.000349759
0.0163511
-0.00027707
0.0163434
-0.000203625
-0.000129529
0.0171338
-0.000774682
0.0170845
-0.000714818
0.0170398
-0.00065359
0.0170001
-0.000591086
0.0169652
-0.000527396
0.0169354
-0.000462612
0.0169107
-0.000396828
0.016891
-0.000330138
0.0168766
-0.000262642
0.0168674
-0.000194437
-0.000125624
0.0176964
-0.000717969
0.0176445
-0.000662883
0.0175974
-0.000606531
0.0175553
-0.000548995
0.0175183
-0.000490359
0.0174864
-0.000430707
0.0174597
-0.000370127
0.0174382
-0.000308708
0.0174221
-0.000246539
0.0174114
-0.000183712
-0.000120321
0.0182801
-0.000658578
0.0182256
-0.000608386
0.0181761
-0.000557031
0.0181317
-0.000504588
0.0180925
-0.000451135
0.0180585
-0.000396748
0.0180299
-0.000341508
0.0180067
-0.000285496
0.0179889
-0.000228794
0.0179767
-0.000171488
-0.000113661
0.0188863
-0.000596501
0.0188292
-0.000551324
0.0187773
-0.000505092
0.0187306
-0.000457872
0.0186892
-0.000409734
0.0186532
-0.000360749
0.0186226
-0.000310988
0.0185977
-0.000260526
0.0185783
-0.000209438
0.0185646
-0.000157798
-0.000105686
0.0195165
-0.000531724
0.0194569
-0.000491687
0.0194025
-0.000450708
0.0193535
-0.000408845
0.0193099
-0.000366162
0.0192719
-0.00032272
0.0192395
-0.000278585
0.0192128
-0.000233822
0.0191918
-0.000188498
0.0191767
-0.000142681
-9.64382e-05
0.0201725
-0.00046422
0.0201103
-0.000429456
0.0200534
-0.000393865
0.0200021
-0.0003575
0.0199563
-0.000320416
0.0199163
-0.000282667
0.019882
-0.00024431
0.0198536
-0.000205401
0.0198311
-0.000166
0.0198146
-0.000126166
-8.59576e-05
0.020856
-0.000393961
0.0207911
-0.000364605
0.0207318
-0.000334545
0.0206781
-0.000303825
0.0206302
-0.000272492
0.0205881
-0.000240592
0.020552
-0.000208172
0.0205218
-0.000175282
0.0204978
-0.000141971
0.0204799
-0.00010829
-7.42882e-05
0.0215688
-0.00032091
0.0215013
-0.000297106
0.0214395
-0.000272726
0.0213835
-0.000247806
0.0213334
-0.000222383
0.0212893
-0.000196496
0.0212513
-0.000170183
0.0212195
-0.000143484
0.021194
-0.000116439
0.0211748
-8.90897e-05
-6.1477e-05
0.0223133
-0.000245027
0.0222431
-0.000226927
0.0221787
-0.000208385
0.0221204
-0.000189427
0.0220681
-0.000170084
0.0220219
-0.000150383
0.0219821
-0.000130355
0.0219487
-0.000110029
0.0219217
-8.94364e-05
0.0219012
-6.8609e-05
-4.75779e-05
0.0230916
-0.000166273
0.0230187
-0.000154036
0.0229518
-0.000141497
0.0228911
-0.000128674
0.0228366
-0.000115587
0.0227885
-0.000102256
0.0227468
-8.86999e-05
0.0227117
-7.49401e-05
0.0226833
-6.09974e-05
0.0226616
-4.68932e-05
-3.26487e-05
0.0239065
-8.46121e-05
0.0238308
-7.84069e-05
0.0237614
-7.20464e-05
0.0236982
-6.55402e-05
0.0236416
-5.88981e-05
0.0235914
-5.213e-05
0.023548
-4.52465e-05
0.0235113
-3.82577e-05
0.0234815
-3.11746e-05
0.0234586
-2.40077e-05
-1.67684e-05
0.0247609
0.0246825
0.0246105
0.0245449
0.024486
0.0244339
0.0243886
0.0243504
0.0243192
0.0242952
)
;

boundaryField
{
    inlet
    {
        type            calculated;
        value           nonuniform 0();
    }
    outlet
    {
        type            calculated;
        value           nonuniform 0();
    }
    cylinder
    {
        type            calculated;
        value           nonuniform 0();
    }
    top
    {
        type            symmetryPlane;
        value           uniform 0;
    }
    bottom
    {
        type            symmetryPlane;
        value           nonuniform 0();
    }
    defaultFaces
    {
        type            empty;
        value           nonuniform 0();
    }
    procBoundary31to24
    {
        type            processor;
        value           nonuniform List<scalar> 8(-0.00681746 -0.007135 -0.00745492 -0.00777695 -0.00810133 -0.00842871 -0.00875994 -0.00909593);
    }
    procBoundary31to25
    {
        type            processor;
        value           nonuniform List<scalar> 
14
(
-0.000594206
-0.000470611
-0.00334966
-0.000330703
-0.000196353
-6.13355e-05
7.29256e-05
0.000562269
0.000427887
-0.00664559
0.00029139
0.00090932
-0.00667433
0.000779053
)
;
    }
    procBoundary31to26
    {
        type            processor;
        value           nonuniform List<scalar> 8(0.00335475 0.00703537 0.00730968 0.0075645 0.00781078 0.00805675 0.00830673 0.00856362);
    }
    procBoundary31to30
    {
        type            processor;
        value           nonuniform List<scalar> 
30
(
-0.00943748
-0.00978525
-0.0101398
-0.0105017
-0.0108714
-0.0112493
-0.0116359
-0.0120317
-0.0124372
-0.012853
-0.0132799
-0.0137183
-0.0141693
-0.0146335
-0.015112
-0.0156055
-0.0161153
-0.0166423
-0.0171879
-0.0177531
-0.0183395
-0.0189484
-0.0195813
-0.02024
-0.0209262
-0.0216419
-0.0223891
-0.0231704
-0.0239881
-0.0248455
)
;
    }
    procBoundary31to32
    {
        type            processor;
        value           nonuniform List<scalar> 
33
(
0.00882883
0.00910287
0.00938549
0.00967792
0.00997965
0.010291
0.010612
0.0109429
0.0112843
0.0116361
0.0119987
0.0123726
0.0127582
0.013156
0.0135667
0.0139908
0.0144291
0.0148823
0.0153514
0.0158373
0.016341
0.0168635
0.0174061
0.01797
0.0185567
0.0191675
0.0198041
0.0204683
0.021162
0.0218873
0.0226466
0.0234427
0.0242784
)
;
    }
}


// ************************************************************************* //
