/*--------------------------------*- C++ -*----------------------------------*\
  =========                 |
  \\      /  F ield         | OpenFOAM: The Open Source CFD Toolbox
   \\    /   O peration     | Website:  https://openfoam.org
    \\  /    A nd           | Version:  7
     \\/     M anipulation  |
\*---------------------------------------------------------------------------*/
FoamFile
{
    version     2.0;
    format      ascii;
    class       surfaceScalarField;
    location    "15";
    object      phi;
}
// * * * * * * * * * * * * * * * * * * * * * * * * * * * * * * * * * * * * * //

dimensions      [0 3 -1 0 0 0 0];

internalField   nonuniform List<scalar> 
823
(
0.000394686
-0.000295517
0.000471927
-0.000199627
0.00055062
-8.29746e-05
0.000630397
5.32261e-05
0.000710885
0.000206365
0.000791709
0.000372258
0.000872509
0.000544954
0.000953002
0.000716534
0.00103298
0.000877324
0.00111239
0.0010159
0.00119126
0.00111956
0.00126988
0.00117469
0.00134843
0.00116831
-0.00124686
0.00142748
0.00108782
-0.00116687
0.00150686
0.000926282
-0.00100567
0.00158741
0.000676141
-0.000756688
0.00166745
0.000349807
-0.000429842
0.00174892
-5.92518e-05
-2.2225e-05
0.00182659
-0.000488433
0.000410763
0.00190705
-0.00098867
0.000908215
0.00197788
-0.00135115
0.00128032
0.00205624
-0.00184775
0.0017694
-0.00189937
0.0018325
0.0003933
-0.00037016
0.000469921
-0.000276248
0.000548199
-0.000161253
0.000627796
-2.6371e-05
0.000708358
0.000125803
0.000789528
0.000291088
0.000870946
0.000463536
0.000952329
0.000635151
0.00103346
0.000796197
0.00111424
0.000935114
0.00119468
0.00103912
0.00127499
0.00109437
0.00135532
0.00108799
0.00143613
0.001007
0.0015172
0.000845213
0.00159924
0.000594101
0.00168052
0.000268528
0.00176288
-0.000141604
0.00184108
-0.000566635
0.00192154
-0.00106913
0.00199212
-0.00142173
0.00206947
-0.0019251
-0.00196525
0.000399465
-0.000443657
0.000475117
-0.000351899
0.000552629
-0.000238765
0.000631701
-0.000105442
0.000712001
4.55024e-05
0.000793189
0.0002099
0.000874909
0.000381816
0.000956879
0.000553181
0.00103886
0.000714213
0.00112074
0.000853234
0.00120248
0.000957381
0.00128425
0.00101261
0.00136611
0.00100613
0.00144846
0.000924645
0.00153098
0.00076269
0.00161431
0.000510776
0.00169663
0.000186201
0.00177969
-0.000224662
0.0018583
-0.000645238
0.00193866
-0.00114949
0.00200893
-0.001492
0.00208524
-0.00200142
-0.00203018
0.000413077
-0.000515674
0.00048742
-0.000426243
0.000563837
-0.000315183
0.000642036
-0.00018364
0.00072175
-3.42119e-05
0.00080263
0.00012902
0.000884337
0.000300109
0.000966588
0.00047093
0.00104913
0.000631667
0.00113183
0.000770538
0.0012146
0.000874613
0.00129755
0.000929658
0.00138068
0.000922997
0.00146433
0.000841003
0.00154807
0.000678945
0.00163246
0.000426388
0.00171564
0.000103023
0.00179923
-0.000308256
0.0018781
-0.000724108
0.00195827
-0.00122967
0.00202819
-0.00156192
0.00210347
-0.00207669
-0.00209421
0.000433914
-0.000585895
0.00050663
-0.000498959
0.000581627
-0.00039018
0.000658655
-0.000260668
0.00073743
-0.000112987
0.000817705
4.87458e-05
0.000899086
0.000218729
0.000981315
0.000388701
0.00106413
0.000548855
0.00114735
0.000687314
0.00123087
0.000791096
0.00131473
0.000845791
0.00139888
0.000838848
0.00148356
0.000756322
0.00156829
0.000594217
0.00165353
0.000341155
0.00173736
1.91906e-05
0.00182132
-0.000392222
0.00190034
-0.00080312
0.00198024
-0.00130957
0.00204978
-0.00163146
0.00212402
-0.00215093
-0.00215742
0.000461644
-0.000654028
0.000532438
-0.000569753
0.000605715
-0.000463457
0.00068127
-0.000336223
0.000758812
-0.000190529
0.000838179
-3.06216e-05
0.000918929
0.000137979
0.00100084
0.000306788
0.00108363
0.000466066
0.0011671
0.000603848
0.00125108
0.000707108
0.0013356
0.00076128
0.0014205
0.000753947
0.00150597
0.000670853
0.00159144
0.000508741
0.0016773
0.000255295
0.0017616
-6.51077e-05
0.00184578
-0.000476407
0.00192483
-0.000882165
0.00200439
-0.00138913
0.00207356
-0.00170063
0.00214679
-0.00222417
-0.00221987
0.000495828
-0.000719809
0.000564432
-0.000638357
0.000635719
-0.000534744
0.000709516
-0.000410021
0.0007856
-0.000266612
0.000863695
-0.000108717
0.000943572
5.81026e-05
0.00102488
0.000225475
0.00110737
0.000383582
0.0011908
0.000520416
0.00127499
0.000622924
0.00135988
0.00067639
0.00144527
0.00066855
0.00153128
0.000584844
0.00161727
0.000422747
0.00170356
0.000169013
0.00178814
-0.000149694
0.00187241
-0.00056067
0.00195139
-0.000961148
0.00203057
-0.00146831
0.00209936
-0.00176941
0.00217164
-0.00229645
-0.00228168
0.000535924
-0.000783005
0.000602102
-0.000704535
0.000671159
-0.000603801
0.000742954
-0.000481816
0.000817304
-0.000340961
0.00089392
-0.000185334
0.000972643
-2.06199e-05
0.00105309
0.000145028
0.00113501
0.000301665
0.00121814
0.000437283
0.00130226
0.000538802
0.00138727
0.000591378
0.00147292
0.000582907
0.00155923
0.00049853
0.00164552
0.000336455
0.00173203
8.25058e-05
0.00181674
-0.000234407
0.00190096
-0.000644888
0.00197981
-0.00103999
0.00205858
-0.00154708
0.00212702
-0.00183786
0.00219842
-0.00236785
-0.00234296
0.0005813
-0.000843421
0.000644852
-0.000768087
0.000711474
-0.000670423
0.000781057
-0.0005514
0.000853441
-0.000413345
0.000928385
-0.000260278
0.0010057
-9.79324e-05
0.00108505
6.56759e-05
0.00116616
0.000220557
0.00124875
0.000354691
0.00133256
0.000454988
0.00141746
0.000506484
0.00150311
0.000497251
0.00158951
0.000412132
0.0016759
0.000250068
0.00176245
-4.0508e-06
0.00184715
-0.0003191
0.00193122
-0.00072896
0.00200987
-0.00111865
0.00208822
-0.00162543
0.00215638
-0.00190601
0.00222699
-0.00243847
-0.00240383
0.000631241
0.000692007
-0.000828852
0.000756027
-0.000734443
0.000823225
-0.000618598
0.000893465
-0.000483585
0.000966551
-0.000333364
0.00104224
-0.000173624
0.0011203
-1.23814e-05
0.00120038
0.000140479
0.00128221
0.000272861
0.00136549
0.000371704
0.00145005
0.00042193
0.0015355
0.000411797
0.00162178
0.000325853
0.00170808
0.00016377
0.00179453
-9.04974e-05
0.00187908
-0.000403653
0.00196292
-0.000812804
0.00204136
-0.00119708
0.00211931
-0.00170338
0.00218724
-0.00197395
0.00225719
-0.00250842
-0.00246447
0.000742823
-0.000886712
0.000804119
-0.00079574
0.000868801
-0.000683281
0.00093676
-0.000551544
0.00100782
-0.000404424
0.00108176
-0.000247562
0.00115833
-8.89499e-05
0.0012372
6.1608e-05
0.00131807
0.000191984
0.00140063
0.000289146
0.00148465
0.00033791
0.00156971
0.000326734
0.00165569
0.000239872
0.00174174
7.77204e-05
0.00182795
-0.000176701
0.00191226
-0.000487968
0.00199582
-0.000896365
0.00207403
-0.00127528
0.00215162
-0.00178098
0.00221944
-0.00204176
0.00228887
-0.00257785
-0.00252503
0.000796504
-0.000941592
0.000854996
-0.000854232
0.000917076
-0.00074536
0.000982655
-0.000617123
0.00105158
-0.000473346
0.00112365
-0.000319632
0.00119857
-0.000163877
0.0012761
-1.5921e-05
0.00135586
0.000112226
0.00143753
0.000207478
0.00152085
0.000254593
0.00160535
0.000242228
0.00169088
0.000154343
0.00177655
-7.94573e-06
0.0018624
-0.000262556
0.00194641
-0.000571972
0.00202966
-0.000979614
0.00210765
-0.00135328
0.00218496
-0.00185829
0.00225277
-0.00210958
0.00232185
-0.00264692
-0.00258569
0.000852212
-0.000993459
0.000907866
-0.000909886
0.000967301
-0.000804795
0.00103045
-0.000680271
0.00109717
-0.000540069
0.00116728
-0.000389739
0.00124049
-0.00023709
0.00131655
-9.19824e-05
0.00139507
3.37045e-05
0.00147572
0.000126834
0.0015582
0.000172113
0.00164202
0.00015841
0.00172697
6.93879e-05
0.00181215
-9.31196e-05
0.00189757
-0.000347983
0.00198122
-0.000655623
0.00206416
-0.00106255
0.00214199
-0.00143111
0.0022191
-0.0019354
0.00228707
-0.00217754
0.00235598
-0.00271584
-0.00264668
0.000909082
-0.00104233
0.000961909
-0.000962713
0.0010187
-0.000861591
0.00107941
-0.000740982
0.00114392
-0.00060457
0.00121202
-0.000457844
0.0012835
-0.000308563
0.00135797
-0.000166455
0.0014352
-4.35234e-05
0.00151472
4.73071e-05
0.00159626
9.05728e-05
0.00167929
7.53816e-05
0.00176358
-1.49003e-05
0.00184819
-0.000177729
0.00193314
-0.000432935
0.00201642
-0.000738907
0.00209907
-0.0011452
0.00217682
-0.00150886
0.00225385
-0.00201244
0.00232213
-0.00224581
0.00239109
-0.0027848
-0.0027082
0.000966238
-0.00108825
0.00101629
-0.00101277
0.0010705
-0.000915796
0.00112881
-0.000799294
0.00119112
-0.000666876
0.00125724
-0.000523962
0.00132693
-0.000378254
0.00139984
-0.000239373
0.00147569
-0.000119374
0.00155406
-3.10533e-05
0.00163459
1.00353e-05
0.00171676
-6.78989e-06
0.00180032
-9.84586e-05
0.00188433
-0.000261733
0.00196878
-0.000517393
0.00205172
-0.00082184
0.00213414
-0.00122762
0.0022119
-0.00158662
0.002289
-0.00208954
0.00235777
-0.00231459
0.00242702
-0.00285405
-0.0027705
0.00102281
-0.00113134
0.00107019
-0.00106015
0.0011219
-0.000967507
0.0011779
-0.000855293
0.00123808
-0.000727055
0.00130226
-0.000588144
0.0013702
-0.000446194
0.00144158
-0.000310748
0.00151606
-0.000193859
0.00159323
-0.000108215
0.00167274
-6.94801e-05
0.00175402
-8.80699e-05
0.00183683
-0.000181268
0.00192022
-0.00034512
0.0020042
-0.000601372
0.00208683
-0.000904469
0.0021691
-0.00130989
0.002247
-0.00166452
0.00232434
-0.00216687
0.00239383
-0.00238408
0.00246361
-0.00292384
-0.00283381
0.00107792
-0.00117173
0.00112277
-0.00110501
0.00117213
-0.00101686
0.00122594
-0.000909107
0.00128411
-0.000785224
0.00134646
-0.000650489
0.00141273
-0.000512471
0.00148262
-0.000380629
0.00155578
-0.000267021
0.00163178
-0.000184216
0.00171026
-0.000147958
0.00179066
-0.000168478
0.00187274
-0.00026334
0.00195553
-0.000427916
0.00203908
-0.000684918
0.00212148
-0.00098687
0.00220372
-0.00139213
0.00228192
-0.00174272
0.00235968
-0.00224464
0.00243011
-0.00245451
0.00250071
-0.00299444
-0.00289841
0.00113069
0.00117321
0.00122039
0.00127219
0.00132852
0.00138917
0.00145391
-0.000577211
0.00152241
-0.000449124
0.00159432
-0.000338941
0.00166922
-0.000259113
0.00174674
-0.000225473
0.00182631
-0.00024805
0.00190769
-0.00034472
0.00198995
-0.000510175
0.00207314
-0.000768108
0.00215542
-0.00106915
0.00223776
-0.00147448
0.00231644
-0.00182139
0.00239484
-0.00232304
0.00246646
-0.00252613
0.00253815
-0.00306613
-0.00296456
0.0014932
0.00156044
0.00163123
0.00170512
0.00178175
0.00186057
0.00194133
0.00202315
0.00210609
0.00218839
0.00227101
0.00235036
0.00242963
0.00250271
0.0025758
0.00134551
0.00142257
0.00150006
0.00157891
0.00165752
0.00173795
0.00181494
0.00189528
0.00196631
0.00204564
)
;

boundaryField
{
    inlet
    {
        type            calculated;
        value           nonuniform 0();
    }
    outlet
    {
        type            calculated;
        value           nonuniform List<scalar> 
20
(
0.00212311
0.00213535
0.00215017
0.0021675
0.00218723
0.00220925
0.00223345
0.0022597
0.00228787
0.00231783
0.00234943
0.00238252
0.00241697
0.00245261
0.00248932
0.00252693
0.0025653
0.0026043
0.00264378
0.00211353
)
;
    }
    cylinder
    {
        type            calculated;
        value           nonuniform 0();
    }
    top
    {
        type            symmetryPlane;
        value           nonuniform 0();
    }
    bottom
    {
        type            symmetryPlane;
        value           nonuniform 0();
    }
    defaultFaces
    {
        type            empty;
        value           nonuniform 0();
    }
    procBoundary23to17
    {
        type            processor;
        value           nonuniform List<scalar> 
24
(
0.000220081
0.000122384
4.28115e-06
-0.000133004
-0.000286854
-0.000453082
-0.000625754
-0.000797027
-0.000957305
-0.0010953
-0.00119844
-0.0012533
-0.00132341
-0.00124393
-0.00108316
-0.000835542
-0.000508443
-0.000102666
0.000333756
0.000827867
0.00120928
0.00169007
0.00176461
-0.00126896
)
;
    }
    procBoundary23to22
    {
        type            processor;
        value           nonuniform List<scalar> 
16
(
-0.000319249
-0.000318658
-0.000325968
-0.000341059
-0.000363693
-0.000393512
-0.000430048
-0.000472728
-0.000520884
-0.000573763
-0.0009009
-0.000684962
-0.000741625
-0.000800345
-0.000860214
-0.000920312
)
;
    }
    procBoundary23to28
    {
        type            processor;
        value           nonuniform List<scalar> 3(-0.000979723 -0.00103753 -0.00109282);
    }
    procBoundary23to29
    {
        type            processor;
        value           nonuniform List<scalar> 
23
(
-0.0012096
-0.00114753
-0.00106404
-0.000960914
-0.000841547
-0.000711145
-0.00142985
-0.000640565
-0.000516367
-0.00040973
-0.000332994
-0.000302106
-0.000326861
-0.000425483
-0.000591987
-0.000851049
-0.00115145
-0.0015571
-0.00190075
-0.00240231
-0.00259921
-0.00313921
-0.00303255
)
;
    }
}


// ************************************************************************* //
