/*--------------------------------*- C++ -*----------------------------------*\
  =========                 |
  \\      /  F ield         | OpenFOAM: The Open Source CFD Toolbox
   \\    /   O peration     | Website:  https://openfoam.org
    \\  /    A nd           | Version:  7
     \\/     M anipulation  |
\*---------------------------------------------------------------------------*/
FoamFile
{
    version     2.0;
    format      ascii;
    class       volScalarField;
    location    "121.999514";
    object      p;
}
// * * * * * * * * * * * * * * * * * * * * * * * * * * * * * * * * * * * * * //

dimensions      [0 2 -2 0 0 0 0];

internalField   nonuniform List<scalar> 
23200
(
-0.364172
-0.365805
-0.366687
-0.367297
-0.367854
-0.36851
-0.369428
-0.37075
-0.372588
-0.375054
-0.378285
-0.382464
-0.387836
-0.394697
-0.403373
-0.414147
-0.427129
-0.442075
-0.458383
-0.473087
-0.365222
-0.366331
-0.366913
-0.367292
-0.367651
-0.368146
-0.368952
-0.370229
-0.372119
-0.374772
-0.378375
-0.383178
-0.38951
-0.397769
-0.408384
-0.421735
-0.437993
-0.456754
-0.477718
-0.496395
-0.366378
-0.36696
-0.367233
-0.367372
-0.36752
-0.367836
-0.368506
-0.369706
-0.371605
-0.374387
-0.378281
-0.383595
-0.390723
-0.400141
-0.412357
-0.427809
-0.44674
-0.468481
-0.493134
-0.514648
-0.367526
-0.367602
-0.367566
-0.367458
-0.36738
-0.367496
-0.367996
-0.369074
-0.370923
-0.373757
-0.377842
-0.383526
-0.391255
-0.401559
-0.414997
-0.432033
-0.452955
-0.476801
-0.504196
-0.527364
-0.368577
-0.36817
-0.36784
-0.367484
-0.367167
-0.367054
-0.367343
-0.368243
-0.36997
-0.372764
-0.37692
-0.382818
-0.390935
-0.401836
-0.416099
-0.434173
-0.456434
-0.48142
-0.510759
-0.534416
-0.369442
-0.368614
-0.368007
-0.367403
-0.366833
-0.366461
-0.366491
-0.367147
-0.368668
-0.371319
-0.375418
-0.381365
-0.389656
-0.400863
-0.415572
-0.434156
-0.457174
-0.482393
-0.512935
-0.536061
-0.37007
-0.368893
-0.368038
-0.367192
-0.366356
-0.365694
-0.365413
-0.365754
-0.366979
-0.369377
-0.373286
-0.379119
-0.387376
-0.398625
-0.413443
-0.432074
-0.455356
-0.480056
-0.511124
-0.53283
-0.370431
-0.36899
-0.367922
-0.366844
-0.365734
-0.36475
-0.364106
-0.36406
-0.364898
-0.366934
-0.370525
-0.376093
-0.384136
-0.395197
-0.409854
-0.428159
-0.451317
-0.474958
-0.50594
-0.525346
-0.370524
-0.368912
-0.367671
-0.366376
-0.364986
-0.363654
-0.3626
-0.362099
-0.362465
-0.364037
-0.367195
-0.372367
-0.380046
-0.390743
-0.405037
-0.422763
-0.445498
-0.467768
-0.498194
-0.51499
-0.370371
-0.368684
-0.367314
-0.36582
-0.364148
-0.362448
-0.360944
-0.359933
-0.359754
-0.360779
-0.363408
-0.368084
-0.37529
-0.385503
-0.399303
-0.416311
-0.438387
-0.45919
-0.488479
-0.502487
-0.370023
-0.368353
-0.366896
-0.365223
-0.363273
-0.361192
-0.359213
-0.357651
-0.356876
-0.357293
-0.359329
-0.36344
-0.370109
-0.379776
-0.393009
-0.409256
-0.430454
-0.449836
-0.477178
-0.488386
-0.369552
-0.367983
-0.366478
-0.364644
-0.362424
-0.35996
-0.357494
-0.355362
-0.353966
-0.353745
-0.355158
-0.358678
-0.364789
-0.373898
-0.386533
-0.402022
-0.422136
-0.440085
-0.464501
-0.472812
-0.369054
-0.367654
-0.366131
-0.364153
-0.361674
-0.358834
-0.355888
-0.353191
-0.351179
-0.350325
-0.351121
-0.354062
-0.359634
-0.368206
-0.380233
-0.39496
-0.413711
-0.430049
-0.450583
-0.455595
-0.368645
-0.367459
-0.36594
-0.363831
-0.361106
-0.357908
-0.354504
-0.351273
-0.348678
-0.34723
-0.347453
-0.349862
-0.354936
-0.363006
-0.374396
-0.38825
-0.4053
-0.419582
-0.435581
-0.436803
-0.368458
-0.367505
-0.365997
-0.363765
-0.360809
-0.35728
-0.353457
-0.349744
-0.346629
-0.344657
-0.344378
-0.346321
-0.350945
-0.358518
-0.369169
-0.381917
-0.396829
-0.408442
-0.419675
-0.416819
-0.368638
-0.367904
-0.366401
-0.364049
-0.360878
-0.357051
-0.352865
-0.348738
-0.345188
-0.342779
-0.342084
-0.343629
-0.347824
-0.354838
-0.364545
-0.375823
-0.388074
-0.396486
-0.403093
-0.396303
-0.369325
-0.368777
-0.367252
-0.364777
-0.361408
-0.357323
-0.352834
-0.348377
-0.344484
-0.341734
-0.340703
-0.341889
-0.345619
-0.351919
-0.360362
-0.369723
-0.37879
-0.383745
-0.386083
-0.375949
-0.370664
-0.370227
-0.368644
-0.366038
-0.362487
-0.358185
-0.353458
-0.348753
-0.344607
-0.3416
-0.340284
-0.3411
-0.344251
-0.349583
-0.356367
-0.363355
-0.368856
-0.370388
-0.368771
-0.356227
-0.372771
-0.372344
-0.370663
-0.36791
-0.364185
-0.359703
-0.354798
-0.349918
-0.345593
-0.342381
-0.340785
-0.341153
-0.34353
-0.347567
-0.3523
-0.356541
-0.358367
-0.356669
-0.3511
-0.337349
-0.37574
-0.375207
-0.373369
-0.370445
-0.36655
-0.361914
-0.356875
-0.351873
-0.347413
-0.344007
-0.342079
-0.34185
-0.343195
-0.345591
-0.347961
-0.34924
-0.347605
-0.342934
-0.333362
-0.319407
-0.379627
-0.37885
-0.376811
-0.373677
-0.369601
-0.364822
-0.359675
-0.354576
-0.349987
-0.34635
-0.343978
-0.342947
-0.342974
-0.34342
-0.343234
-0.341532
-0.336868
-0.329581
-0.317087
-0.302517
-0.384456
-0.383314
-0.381
-0.377615
-0.373335
-0.368408
-0.363153
-0.35795
-0.353199
-0.349241
-0.346263
-0.34419
-0.342623
-0.340893
-0.338092
-0.333574
-0.326335
-0.316778
-0.302983
-0.288038
-0.390233
-0.388599
-0.385938
-0.382256
-0.377737
-0.372636
-0.36725
-0.361906
-0.356917
-0.352507
-0.348719
-0.345354
-0.341958
-0.337925
-0.332577
-0.325523
-0.316124
-0.304861
-0.290171
-0.274822
-0.396926
-0.394702
-0.391621
-0.387589
-0.382787
-0.377473
-0.371911
-0.366357
-0.361016
-0.355977
-0.35115
-0.346253
-0.340855
-0.334498
-0.326769
-0.317502
-0.306344
-0.293739
-0.278463
-0.263038
-0.404512
-0.401607
-0.398041
-0.393607
-0.388472
-0.382896
-0.377093
-0.371227
-0.365378
-0.359496
-0.353388
-0.34675
-0.339251
-0.330639
-0.320753
-0.309598
-0.297004
-0.283367
-0.267685
-0.252154
-0.412963
-0.4093
-0.405196
-0.40031
-0.394794
-0.388894
-0.382761
-0.376446
-0.369893
-0.362926
-0.355296
-0.346753
-0.337132
-0.3264
-0.314602
-0.301852
-0.288089
-0.273629
-0.257642
-0.242068
-0.422257
-0.417773
-0.413087
-0.407707
-0.401759
-0.395465
-0.388886
-0.381946
-0.374451
-0.366139
-0.356768
-0.346213
-0.334515
-0.321836
-0.308367
-0.294271
-0.279544
-0.264416
-0.248204
-0.232579
-0.432372
-0.427017
-0.421715
-0.415809
-0.409379
-0.402601
-0.395428
-0.387642
-0.378938
-0.369018
-0.357723
-0.345113
-0.331431
-0.316994
-0.302071
-0.286835
-0.271303
-0.255622
-0.239235
-0.223572
-0.443284
-0.437017
-0.431079
-0.424619
-0.41765
-0.410277
-0.402321
-0.393433
-0.383232
-0.371458
-0.35811
-0.343455
-0.327916
-0.311904
-0.295716
-0.279505
-0.26329
-0.247145
-0.230626
-0.214929
-0.454956
-0.44775
-0.441164
-0.434125
-0.426547
-0.418435
-0.409471
-0.399192
-0.387204
-0.373368
-0.357891
-0.34125
-0.323993
-0.306576
-0.289282
-0.272232
-0.255432
-0.238894
-0.222278
-0.206557
-0.467333
-0.459171
-0.451933
-0.444286
-0.43601
-0.426982
-0.416745
-0.404768
-0.390724
-0.374666
-0.357043
-0.338504
-0.319674
-0.301003
-0.282737
-0.264958
-0.247654
-0.230787
-0.214107
-0.198372
-0.480331
-0.471209
-0.46332
-0.455028
-0.445937
-0.435779
-0.423977
-0.409996
-0.393662
-0.375284
-0.355543
-0.335218
-0.314954
-0.295163
-0.276039
-0.257624
-0.239887
-0.222748
-0.206036
-0.190301
-0.49383
-0.483761
-0.475224
-0.466234
-0.456182
-0.444646
-0.43097
-0.4147
-0.395897
-0.375159
-0.353369
-0.33138
-0.309814
-0.289021
-0.26914
-0.250172
-0.232065
-0.21471
-0.197996
-0.18228
-0.507675
-0.496686
-0.487502
-0.477745
-0.466554
-0.453365
-0.437508
-0.4187
-0.397313
-0.37423
-0.35049
-0.326966
-0.304221
-0.282535
-0.261986
-0.242543
-0.224128
-0.206612
-0.189929
-0.174253
-0.521669
-0.509805
-0.499972
-0.489354
-0.476818
-0.461687
-0.44336
-0.421824
-0.397801
-0.372436
-0.346868
-0.321939
-0.298134
-0.275656
-0.254526
-0.234681
-0.216019
-0.198397
-0.181779
-0.166168
-0.535578
-0.5229
-0.512408
-0.500812
-0.486704
-0.469342
-0.448295
-0.423905
-0.397258
-0.369716
-0.342455
-0.316255
-0.291506
-0.268332
-0.246706
-0.226532
-0.207686
-0.190015
-0.173498
-0.157981
-0.54913
-0.535713
-0.524544
-0.511835
-0.495911
-0.476048
-0.452087
-0.424788
-0.395587
-0.366003
-0.3372
-0.309863
-0.284283
-0.260513
-0.238475
-0.218047
-0.199082
-0.181421
-0.165041
-0.149652
-0.562018
-0.547952
-0.536078
-0.522102
-0.504122
-0.481521
-0.454518
-0.424326
-0.392693
-0.361231
-0.331045
-0.302707
-0.276414
-0.252145
-0.229784
-0.209179
-0.190165
-0.172574
-0.156369
-0.141148
-0.573914
-0.559297
-0.54668
-0.531275
-0.511011
-0.485489
-0.45539
-0.422388
-0.388488
-0.355332
-0.323928
-0.294732
-0.267844
-0.243181
-0.220588
-0.199888
-0.180896
-0.163438
-0.147453
-0.13245
-0.584465
-0.569403
-0.555999
-0.539001
-0.516257
-0.487693
-0.45452
-0.418854
-0.382888
-0.348237
-0.315791
-0.285883
-0.258523
-0.233574
-0.210846
-0.190136
-0.171242
-0.153981
-0.138268
-0.123551
-0.593311
-0.577914
-0.563671
-0.544928
-0.51955
-0.487897
-0.451748
-0.413616
-0.375813
-0.339881
-0.306574
-0.276106
-0.248406
-0.223284
-0.200521
-0.179891
-0.161172
-0.144176
-0.128792
-0.114439
-0.600089
-0.584468
-0.569336
-0.548716
-0.520606
-0.485892
-0.446933
-0.406578
-0.367192
-0.330205
-0.296225
-0.265355
-0.23745
-0.212276
-0.189583
-0.169125
-0.150663
-0.134
-0.118997
-0.105062
-0.604445
-0.588709
-0.572641
-0.550045
-0.519167
-0.481499
-0.439958
-0.397662
-0.356964
-0.319154
-0.284698
-0.25359
-0.225622
-0.200519
-0.178006
-0.157815
-0.139691
-0.123434
-0.108873
-0.0953258
-0.606042
-0.590299
-0.573259
-0.548627
-0.515015
-0.474569
-0.430728
-0.386802
-0.345077
-0.306686
-0.271954
-0.240779
-0.212893
-0.187989
-0.165768
-0.145941
-0.128234
-0.112459
-0.0984444
-0.0851804
-0.604571
-0.588923
-0.570891
-0.544212
-0.507969
-0.46499
-0.419174
-0.373949
-0.331492
-0.292767
-0.257964
-0.226896
-0.199242
-0.174669
-0.152855
-0.133493
-0.116294
-0.101074
-0.0876927
-0.0747645
-0.599759
-0.584305
-0.565281
-0.536594
-0.49789
-0.452678
-0.405249
-0.359074
-0.316184
-0.277374
-0.242707
-0.211922
-0.184654
-0.16055
-0.139272
-0.120478
-0.103896
-0.089344
-0.0764836
-0.0641642
-0.591375
-0.576207
-0.556219
-0.525614
-0.484683
-0.437588
-0.38893
-0.342164
-0.299143
-0.260492
-0.226169
-0.195847
-0.169141
-0.145647
-0.125041
-0.106915
-0.0910281
-0.0772086
-0.0649072
-0.0533185
-0.579236
-0.564444
-0.543546
-0.511165
-0.468296
-0.419704
-0.37022
-0.323222
-0.280368
-0.242123
-0.20836
-0.178684
-0.152745
-0.12999
-0.110138
-0.0927947
-0.0777009
-0.0646645
-0.0530095
-0.0422082
-0.563214
-0.548881
-0.527157
-0.493191
-0.448718
-0.399044
-0.349144
-0.302265
-0.259864
-0.222302
-0.189337
-0.160517
-0.13542
-0.113565
-0.0945941
-0.078136
-0.0639258
-0.0517339
-0.040807
-0.0308389
-0.543235
-0.529442
-0.507007
-0.471687
-0.425983
-0.37566
-0.325751
-0.27933
-0.237666
-0.201126
-0.169115
-0.141311
-0.117227
-0.0964011
-0.0784355
-0.0629643
-0.0497236
-0.0384426
-0.0283131
-0.01923
-0.519284
-0.506107
-0.483101
-0.446698
-0.400166
-0.349637
-0.300118
-0.254506
-0.213954
-0.17852
-0.147723
-0.121115
-0.0982064
-0.0785386
-0.0616956
-0.047311
-0.0351223
-0.0248186
-0.0155491
-0.00740674
-0.491404
-0.478912
-0.455503
-0.418318
-0.371394
-0.321083
-0.27234
-0.227897
-0.188685
-0.154619
-0.125223
-0.0999851
-0.0784066
-0.0600244
-0.0444153
-0.0312133
-0.0201561
-0.0108938
-0.00254507
0.00459853
-0.459696
-0.447948
-0.424332
-0.386713
-0.33982
-0.290097
-0.24253
-0.19958
-0.161967
-0.129505
-0.101694
-0.077991
-0.0578863
-0.0409124
-0.0266429
-0.0147147
-0.00486465
0.00329485
0.0106619
0.016747
-0.424313
-0.413363
-0.389779
-0.352117
-0.305521
-0.2568
-0.210841
-0.16968
-0.133913
-0.103272
-0.0772238
-0.0552103
-0.0367139
-0.0212638
-0.00843333
0.00213505
0.0107077
0.0177074
0.0240329
0.0289978
-0.385434
-0.375378
-0.352103
-0.314674
-0.268511
-0.221509
-0.177443
-0.138345
-0.104654
-0.0760294
-0.0519106
-0.0317304
-0.0149668
-0.00114723
0.0101517
0.0192801
0.0265118
0.0323043
0.037534
0.0413176
-0.343252
-0.334284
-0.311499
-0.274097
-0.229588
-0.184395
-0.142517
-0.105734
-0.0743299
-0.0478993
-0.0258631
-0.00764805
0.0072697
0.0193615
0.0290438
0.0366587
0.0424959
0.0470473
0.0511299
0.0536649
-0.298013
-0.290377
-0.267812
-0.231508
-0.188714
-0.145679
-0.106266
-0.0720232
-0.0430925
-0.0190165
0.000799623
0.0169318
0.029903
0.0401804
0.0481695
0.0542065
0.0586109
0.061897
0.0647493
0.0658987
-0.250034
-0.243888
-0.221841
-0.186961
-0.146161
-0.1056
-0.0689004
-0.0373974
-0.0111063
0.0104743
0.0279498
0.0418964
0.0528337
0.0612213
0.0674513
0.0718618
0.0748158
0.076804
0.0782327
0.07767
-0.199876
-0.195078
-0.173966
-0.140721
-0.10222
-0.0644111
-0.0306458
-0.00205507
0.0214541
0.0404189
0.0554516
0.0671258
0.0759559
0.0823907
0.0868095
0.0895658
0.0910687
0.0916883
0.0913591
0.088684
-0.147942
-0.144344
-0.124487
-0.0931267
-0.0572024
-0.0223833
0.00826201
0.033796
0.0544052
0.0706556
0.0831622
0.0924943
0.0991583
0.103591
0.106162
0.107253
0.107294
0.106416
0.10404
0.0995673
-0.0945225
-0.0921767
-0.0737663
-0.0445356
-0.0114274
0.0202032
0.0475775
0.0699395
0.0875564
0.101016
0.110933
0.117871
0.122326
0.124721
0.125424
0.12484
0.12337
0.120833
0.116357
0.112342
-0.0400384
-0.0390118
-0.0222011
0.00468403
0.0347753
0.0630598
0.0870479
0.106153
0.120711
0.131326
0.138611
0.143121
0.145339
0.145679
0.144507
0.142235
0.139179
0.134958
0.128968
0.125092
0.0150609
0.0147198
0.0297982
0.0541571
0.0810718
0.105893
0.126416
0.142209
0.153669
0.16141
0.166041
0.168106
0.168079
0.16636
0.163317
0.159348
0.154683
0.148878
0.141695
0.137374
0.0703221
0.0685821
0.0818156
0.103505
0.127126
0.148408
0.165421
0.177879
0.186227
0.191088
0.193064
0.192688
0.190422
0.186657
0.181756
0.176091
0.169828
0.16255
0.154311
0.149238
0.125291
0.122135
0.133435
0.152351
0.172603
0.190308
0.203803
0.212932
0.218183
0.220182
0.219522
0.216727
0.212247
0.206462
0.199726
0.192385
0.184561
0.175891
0.166628
0.160632
0.179514
0.174941
0.184245
0.200321
0.217171
0.231303
0.241305
0.247141
0.249334
0.248511
0.245258
0.240085
0.233431
0.225665
0.217132
0.208149
0.198813
0.188821
0.178548
0.17154
0.232544
0.226567
0.233839
0.247048
0.260506
0.271104
0.277673
0.280281
0.279482
0.275901
0.270116
0.262625
0.253853
0.244162
0.23388
0.223303
0.212511
0.201255
0.189989
0.181923
0.283947
0.276591
0.281824
0.292178
0.30229
0.309432
0.312659
0.312133
0.308432
0.302181
0.293945
0.284212
0.273396
0.261847
0.249879
0.237767
0.225582
0.213123
0.200887
0.191743
0.333299
0.324603
0.327819
0.335366
0.34222
0.346019
0.346024
0.342485
0.335998
0.327183
0.316597
0.304718
0.291946
0.278619
0.265041
0.251465
0.237955
0.224357
0.211184
0.200963
0.380195
0.370213
0.37146
0.376285
0.380005
0.380605
0.37754
0.371134
0.361998
0.350749
0.337934
0.324018
0.309392
0.294383
0.27928
0.26432
0.249563
0.234896
0.220828
0.209546
0.424251
0.413048
0.412404
0.414626
0.41537
0.412948
0.406991
0.397888
0.386263
0.372728
0.35782
0.341994
0.32563
0.309046
0.292517
0.276262
0.260343
0.244682
0.229769
0.217457
0.465108
0.452763
0.450328
0.450099
0.448057
0.442819
0.434173
0.422566
0.408632
0.392977
0.37613
0.358535
0.340564
0.322523
0.304674
0.287224
0.270235
0.253663
0.23796
0.224666
0.502433
0.489037
0.484936
0.482438
0.47783
0.470006
0.458899
0.445002
0.428958
0.411366
0.392748
0.37354
0.354103
0.334733
0.315683
0.297144
0.279185
0.261789
0.245361
0.231144
0.535923
0.521576
0.515957
0.511399
0.504472
0.494319
0.480998
0.465044
0.447105
0.427776
0.40757
0.386915
0.366163
0.345605
0.325478
0.305967
0.287141
0.269014
0.251932
0.236865
0.565305
0.550119
0.543152
0.536766
0.527791
0.515586
0.500318
0.482556
0.462952
0.442098
0.420499
0.398575
0.376672
0.355072
0.334004
0.313641
0.294061
0.275298
0.25764
0.241808
0.590344
0.574439
0.566307
0.55835
0.547617
0.533657
0.516725
0.497419
0.476395
0.45424
0.431452
0.408448
0.385565
0.363079
0.341209
0.320122
0.299904
0.280605
0.262454
0.245955
0.610837
0.594341
0.585246
0.57599
0.563808
0.548403
0.530104
0.509531
0.487342
0.464121
0.44036
0.416471
0.392786
0.369575
0.347052
0.325374
0.304636
0.284902
0.266348
0.249293
0.62662
0.609668
0.599822
0.589555
0.576247
0.559723
0.540365
0.518812
0.495722
0.471676
0.447165
0.422594
0.398291
0.374523
0.351496
0.329365
0.30823
0.288165
0.269301
0.251812
0.637568
0.620298
0.609924
0.598945
0.584846
0.567535
0.547435
0.525196
0.501477
0.476856
0.451822
0.426776
0.402045
0.37789
0.354516
0.332073
0.310664
0.290373
0.271296
0.253506
0.643593
0.626148
0.615475
0.604091
0.589542
0.571785
0.551267
0.528641
0.504568
0.479627
0.454301
0.428992
0.404024
0.379657
0.356093
0.33348
0.311924
0.291513
0.272325
0.254381
0.64465
0.627174
0.616434
0.604956
0.590303
0.572445
0.551833
0.529123
0.504976
0.479969
0.454585
0.429226
0.404216
0.379812
0.356217
0.333578
0.312001
0.291578
0.272384
0.254431
0.640731
0.62337
0.612796
0.601536
0.587125
0.569509
0.54913
0.526639
0.502696
0.477879
0.452673
0.427477
0.402617
0.378353
0.354886
0.332365
0.310895
0.290563
0.271459
0.253641
0.631872
0.614768
0.60459
0.593856
0.580031
0.563
0.543177
0.521205
0.497744
0.473372
0.448574
0.423754
0.399238
0.375287
0.352106
0.329847
0.308609
0.288472
0.269551
0.251996
0.618146
0.601439
0.591882
0.581977
0.569073
0.552963
0.534015
0.512859
0.490153
0.466476
0.442316
0.418081
0.394098
0.370633
0.347895
0.326038
0.305157
0.28532
0.266681
0.249522
0.599666
0.583492
0.574773
0.565987
0.554333
0.539471
0.521709
0.501658
0.479973
0.457235
0.433938
0.410491
0.387228
0.364417
0.342274
0.320958
0.300558
0.281126
0.262865
0.246232
0.576585
0.561075
0.553397
0.546009
0.535917
0.522619
0.506343
0.487677
0.46727
0.44571
0.423492
0.401033
0.378669
0.356676
0.335277
0.314637
0.294837
0.275913
0.258121
0.242128
0.549092
0.534368
0.527923
0.522194
0.513961
0.502526
0.488025
0.471011
0.452131
0.431975
0.411045
0.389763
0.368473
0.347456
0.326942
0.307108
0.288026
0.269709
0.252472
0.237223
0.517412
0.503589
0.49855
0.49472
0.488623
0.479336
0.46688
0.451772
0.434654
0.416119
0.396675
0.376752
0.3567
0.336809
0.317319
0.298414
0.280162
0.26255
0.245948
0.231531
0.481805
0.468987
0.46551
0.463796
0.460089
0.453212
0.443055
0.430092
0.414956
0.398244
0.380473
0.362079
0.343422
0.324799
0.30646
0.288602
0.271288
0.254476
0.238583
0.225075
0.442563
0.430844
0.429061
0.429655
0.428567
0.424339
0.416715
0.406115
0.393165
0.378465
0.36254
0.345835
0.328718
0.311495
0.294429
0.277728
0.261453
0.245529
0.230414
0.217877
0.400006
0.389469
0.389491
0.392553
0.394285
0.39292
0.388039
0.380004
0.369425
0.356909
0.342988
0.328118
0.312674
0.296974
0.281292
0.265851
0.25071
0.23576
0.221482
0.209967
0.354485
0.345199
0.347111
0.352773
0.357492
0.359176
0.357226
0.351932
0.343891
0.333713
0.32194
0.309035
0.295387
0.281321
0.267124
0.253036
0.239117
0.22522
0.211832
0.201375
0.306371
0.298394
0.302256
0.310614
0.318456
0.323345
0.324484
0.322087
0.31673
0.309025
0.299525
0.288703
0.276958
0.264625
0.252004
0.239353
0.226737
0.213965
0.201513
0.192137
0.25606
0.249436
0.255278
0.266395
0.277461
0.285678
0.290039
0.290666
0.288116
0.283001
0.275881
0.267242
0.257493
0.24698
0.236015
0.224876
0.213636
0.202057
0.190577
0.182289
0.203963
0.198723
0.20655
0.220452
0.234802
0.246437
0.254122
0.257878
0.258233
0.255801
0.251152
0.24478
0.237106
0.228485
0.219244
0.209681
0.199883
0.18956
0.179082
0.17187
0.150506
0.146668
0.156456
0.17313
0.19079
0.205897
0.216975
0.223936
0.227272
0.227596
0.225486
0.221447
0.215912
0.209244
0.201781
0.193847
0.185552
0.176547
0.167087
0.160916
0.0961282
0.0936937
0.105393
0.12479
0.145742
0.164337
0.178848
0.18906
0.195427
0.198559
0.199037
0.19738
0.19403
0.189362
0.18372
0.177455
0.170717
0.163098
0.154673
0.149464
0.0412715
0.0402307
0.0537632
0.0757953
0.0999819
0.122045
0.139993
0.153476
0.162898
0.168863
0.17196
0.172715
0.171582
0.168946
0.165155
0.160584
0.155444
0.149298
0.141933
0.137521
-0.0136177
-0.0132904
0.00197553
0.0265172
0.0538393
0.0793107
0.100667
0.117408
0.129885
0.138688
0.144411
0.14759
0.148689
0.148104
0.146183
0.143313
0.139789
0.135229
0.129051
0.12512
-0.0680948
-0.0664416
-0.0495627
-0.0226736
0.00764326
0.0364233
0.0611236
0.0810834
0.0965869
0.108209
0.116547
0.122143
0.125474
0.126943
0.126903
0.125733
0.123807
0.120937
0.116256
0.112167
-0.121719
-0.118804
-0.100447
-0.0714084
-0.0382784
-0.00632836
0.0216178
0.0447256
0.0632024
0.0776027
0.0885227
0.0965112
0.102055
0.105569
0.107408
0.107929
0.107535
0.106335
0.103733
0.0991144
-0.174051
-0.169967
-0.15028
-0.119326
-0.083603
-0.0486607
-0.0176015
0.00855437
0.0299257
0.0470399
0.06049
0.0708292
0.0785511
0.0840846
0.0877897
0.089999
0.0910948
0.0914194
0.0908813
0.0880769
-0.224714
-0.2195
-0.198688
-0.166075
-0.128016
-0.0902974
-0.056292
-0.0272164
-0.00305411
0.0166881
0.0325968
0.0452275
0.055079
0.0625902
0.0681333
0.0720267
0.0746097
0.0763427
0.0775947
0.0769253
-0.27361
-0.266858
-0.245352
-0.211322
-0.171216
-0.130973
-0.09422
-0.062381
-0.0355551
-0.0132917
0.00498563
0.0198322
0.0317501
0.0411854
0.0485228
0.0540794
0.058154
0.0612305
0.0639436
0.0650067
-0.319985
-0.311786
-0.290081
-0.254769
-0.21292
-0.170434
-0.131163
-0.0967432
-0.0674041
-0.042746
-0.0222077
-0.00523633
0.0086711
0.0199647
0.0290395
0.0362178
0.0417709
0.0461616
0.0501492
0.0526289
-0.363514
-0.354174
-0.332036
-0.296284
-0.252865
-0.208441
-0.166911
-0.130118
-0.0984377
-0.0715302
-0.048855
-0.0298648
-0.0140575
-0.000982189
0.00976248
0.0185063
0.0255054
0.0311907
0.0363762
0.0401462
-0.403963
-0.393691
-0.371184
-0.335216
-0.290876
-0.244769
-0.201267
-0.162334
-0.128504
-0.09951
-0.0748371
-0.0539472
-0.0363417
-0.0215712
-0.00923209
0.00101229
0.00941119
0.0163627
0.0227008
0.0277003
-0.441134
-0.430043
-0.407393
-0.371366
-0.326585
-0.279231
-0.234048
-0.193232
-0.157464
-0.126562
-0.100045
-0.0773862
-0.0580944
-0.0417245
-0.0278734
-0.0161994
-0.00645616
0.00172059
0.00916271
0.015336
-0.474853
-0.463005
-0.440442
-0.404676
-0.35972
-0.311624
-0.265091
-0.222668
-0.185192
-0.152575
-0.124379
-0.100093
-0.0792362
-0.0613708
-0.0460967
-0.0330693
-0.0220439
-0.0126917
-0.00419895
0.0030922
-0.504964
-0.492422
-0.470147
-0.434975
-0.390217
-0.34173
-0.294253
-0.25052
-0.211576
-0.177449
-0.147755
-0.12199
-0.099696
-0.0804461
-0.063844
-0.0495444
-0.0373034
-0.0268296
-0.0173399
-0.00898489
-0.53136
-0.518195
-0.496378
-0.462099
-0.417944
-0.369456
-0.321404
-0.276689
-0.236522
-0.201097
-0.170098
-0.143005
-0.119412
-0.0988942
-0.0810635
-0.0655768
-0.0521904
-0.0406509
-0.0302171
-0.0208509
-0.553988
-0.540277
-0.519063
-0.485941
-0.442777
-0.394704
-0.346451
-0.301085
-0.259986
-0.223441
-0.191347
-0.163079
-0.138331
-0.116667
-0.0977101
-0.0811249
-0.0666657
-0.054118
-0.0427943
-0.0324678
-0.57285
-0.558675
-0.538183
-0.506447
-0.464635
-0.41739
-0.369323
-0.323632
-0.281891
-0.244523
-0.211405
-0.182166
-0.15641
-0.133723
-0.113745
-0.0961533
-0.0806954
-0.0671973
-0.0550428
-0.0438034
-0.588002
-0.573449
-0.553771
-0.523615
-0.48348
-0.43746
-0.389967
-0.344284
-0.302171
-0.264206
-0.230327
-0.200257
-0.173609
-0.150032
-0.129136
-0.110633
-0.0942519
-0.079857
-0.0669409
-0.0548311
-0.599555
-0.584715
-0.565915
-0.537489
-0.499316
-0.454892
-0.408356
-0.363017
-0.320807
-0.282469
-0.248054
-0.21733
-0.18995
-0.165569
-0.143857
-0.12454
-0.107316
-0.0920692
-0.0784645
-0.0655344
-0.60767
-0.592636
-0.574754
-0.54816
-0.512185
-0.469696
-0.424484
-0.379829
-0.337804
-0.299323
-0.264563
-0.23335
-0.205383
-0.180339
-0.157922
-0.137857
-0.119873
-0.103826
-0.0895667
-0.0759194
-0.612553
-0.597423
-0.580475
-0.555769
-0.52217
-0.481913
-0.438372
-0.394731
-0.353175
-0.314782
-0.279861
-0.248318
-0.219901
-0.194319
-0.1713
-0.150582
-0.131925
-0.115167
-0.100159
-0.0860225
-0.614451
-0.599328
-0.583309
-0.5605
-0.529397
-0.491616
-0.450062
-0.407753
-0.366944
-0.328868
-0.293971
-0.262252
-0.233516
-0.20751
-0.183984
-0.1627
-0.143438
-0.126031
-0.110338
-0.0957699
-0.613646
-0.598635
-0.583523
-0.562578
-0.534026
-0.49891
-0.45962
-0.418941
-0.379149
-0.341615
-0.306925
-0.27518
-0.246251
-0.219926
-0.195984
-0.174211
-0.154405
-0.136409
-0.120114
-0.10501
-0.610444
-0.595651
-0.581416
-0.562265
-0.536258
-0.503929
-0.467135
-0.42836
-0.389843
-0.353068
-0.318761
-0.287134
-0.258132
-0.231589
-0.207315
-0.185125
-0.164835
-0.146303
-0.129451
-0.113782
-0.60517
-0.590703
-0.577307
-0.559848
-0.536324
-0.506837
-0.472717
-0.436088
-0.39909
-0.363284
-0.32953
-0.298158
-0.269194
-0.242526
-0.218
-0.195458
-0.174741
-0.15572
-0.138347
-0.122157
-0.598158
-0.58412
-0.571526
-0.555637
-0.534483
-0.507827
-0.476497
-0.442218
-0.406964
-0.372328
-0.339291
-0.308302
-0.27948
-0.252771
-0.228064
-0.205229
-0.184136
-0.164668
-0.146808
-0.130158
-0.58974
-0.576231
-0.564402
-0.54995
-0.531013
-0.507112
-0.478627
-0.446857
-0.413546
-0.380271
-0.348107
-0.317625
-0.289039
-0.262366
-0.237538
-0.214462
-0.193036
-0.173157
-0.154839
-0.137774
-0.580241
-0.567353
-0.556258
-0.543106
-0.526204
-0.504927
-0.479277
-0.450123
-0.418929
-0.387191
-0.35605
-0.32619
-0.297927
-0.271356
-0.24646
-0.223184
-0.201459
-0.1812
-0.162443
-0.144988
-0.569967
-0.557782
-0.547396
-0.535413
-0.52035
-0.50152
-0.47863
-0.452146
-0.423206
-0.393168
-0.363194
-0.334065
-0.306205
-0.279793
-0.254871
-0.231428
-0.209429
-0.188813
-0.169625
-0.151795
-0.559203
-0.54779
-0.538094
-0.52716
-0.513736
-0.497144
-0.476885
-0.453068
-0.426481
-0.398285
-0.369612
-0.341321
-0.313938
-0.287733
-0.262818
-0.239227
-0.216969
-0.196009
-0.176395
-0.158195
-0.548206
-0.537618
-0.528598
-0.518608
-0.506632
-0.492051
-0.474249
-0.453038
-0.428859
-0.402624
-0.375381
-0.348029
-0.321192
-0.295235
-0.270348
-0.246621
-0.224107
-0.202808
-0.182763
-0.164189
-0.5372
-0.527472
-0.519119
-0.509985
-0.49928
-0.486483
-0.470931
-0.452216
-0.430452
-0.406268
-0.380571
-0.354259
-0.328034
-0.302361
-0.277514
-0.253651
-0.230871
-0.209226
-0.188738
-0.169777
-0.526375
-0.517525
-0.50983
-0.501481
-0.491895
-0.480662
-0.467137
-0.450764
-0.431376
-0.409301
-0.385253
-0.360077
-0.33453
-0.309171
-0.28437
-0.260358
-0.237292
-0.215281
-0.19433
-0.174957
-0.515889
-0.507915
-0.500869
-0.49325
-0.484652
-0.474787
-0.463063
-0.448847
-0.431749
-0.411805
-0.389489
-0.365544
-0.340742
-0.315727
-0.29097
-0.266786
-0.2434
-0.220992
-0.199544
-0.179726
-0.505863
-0.498746
-0.492337
-0.485405
-0.477693
-0.469023
-0.458885
-0.446627
-0.431695
-0.41386
-0.393339
-0.370713
-0.346725
-0.322086
-0.297365
-0.272979
-0.249226
-0.226373
-0.204384
-0.184074
-0.496389
-0.490092
-0.484305
-0.478027
-0.47112
-0.463504
-0.454759
-0.444253
-0.431332
-0.415549
-0.396854
-0.375625
-0.352524
-0.328296
-0.303606
-0.27898
-0.254799
-0.231439
-0.208851
-0.18799
-0.487523
-0.481996
-0.476811
-0.471163
-0.465004
-0.458328
-0.450807
-0.441858
-0.430777
-0.416951
-0.400081
-0.380311
-0.358173
-0.334399
-0.309735
-0.284825
-0.260146
-0.236201
-0.21294
-0.191453
-0.479292
-0.474473
-0.469869
-0.464832
-0.459379
-0.453559
-0.447124
-0.439551
-0.430132
-0.418139
-0.403059
-0.384791
-0.363686
-0.34042
-0.315786
-0.29055
-0.265292
-0.240666
-0.21664
-0.194436
-0.47169
-0.467515
-0.463467
-0.459027
-0.454252
-0.449228
-0.443768
-0.437415
-0.429483
-0.419177
-0.405819
-0.389069
-0.369064
-0.346366
-0.32178
-0.296177
-0.270255
-0.244835
-0.219928
-0.196901
-0.464682
-0.461085
-0.45757
-0.453715
-0.449602
-0.445331
-0.440763
-0.435498
-0.428888
-0.420117
-0.408382
-0.393138
-0.374284
-0.352224
-0.327716
-0.30172
-0.275046
-0.248705
-0.222778
-0.198791
-0.458207
-0.455127
-0.452121
-0.448843
-0.44538
-0.441836
-0.438097
-0.433811
-0.428376
-0.420984
-0.410757
-0.396975
-0.379308
-0.357955
-0.333576
-0.307176
-0.279669
-0.252268
-0.225142
-0.200049
-0.452176
-0.449564
-0.447047
-0.444336
-0.441514
-0.438676
-0.435719
-0.432327
-0.427942
-0.42178
-0.41293
-0.400543
-0.384075
-0.363497
-0.339314
-0.312524
-0.284118
-0.255519
-0.226987
-0.200543
-0.446488
-0.444308
-0.442262
-0.440106
-0.437914
-0.435762
-0.43355
-0.430982
-0.427538
-0.422473
-0.414869
-0.40379
-0.388511
-0.368768
-0.344862
-0.317723
-0.288384
-0.258442
-0.228286
-0.200249
-0.441031
-0.439264
-0.437671
-0.436055
-0.434476
-0.432986
-0.431481
-0.429676
-0.427085
-0.422998
-0.416514
-0.406647
-0.392526
-0.373664
-0.350129
-0.322713
-0.29244
-0.261084
-0.229099
-0.198866
-0.435694
-0.434336
-0.433184
-0.432087
-0.431093
-0.430231
-0.42939
-0.428291
-0.426473
-0.423262
-0.417783
-0.409029
-0.396021
-0.378073
-0.355007
-0.327415
-0.296287
-0.263353
-0.230058
-0.197019
-0.43038
-0.429441
-0.428716
-0.428109
-0.427663
-0.427385
-0.427153
-0.426698
-0.425576
-0.423149
-0.418572
-0.410836
-0.398889
-0.381876
-0.359381
-0.331735
-0.299918
-0.265318
-0.230981
-0.194482
-0.42501
-0.424509
-0.424197
-0.424047
-0.4241
-0.424348
-0.424661
-0.424777
-0.424273
-0.422542
-0.418773
-0.411966
-0.401024
-0.384957
-0.363136
-0.335581
-0.303286
-0.266926
-0.231491
-0.191558
-0.419538
-0.419497
-0.41958
-0.419846
-0.420341
-0.421045
-0.421827
-0.422434
-0.422463
-0.421339
-0.418287
-0.412322
-0.40233
-0.387214
-0.366165
-0.33887
-0.306343
-0.268203
-0.231877
-0.187783
-0.413944
-0.414387
-0.414844
-0.415478
-0.416352
-0.417436
-0.418603
-0.41961
-0.42008
-0.41947
-0.417046
-0.411838
-0.402735
-0.388569
-0.368384
-0.341545
-0.309076
-0.269252
-0.232534
-0.183383
-0.408249
-0.409189
-0.409995
-0.410948
-0.412133
-0.413515
-0.414977
-0.416292
-0.417111
-0.416915
-0.415033
-0.410491
-0.402214
-0.388992
-0.369753
-0.343587
-0.311496
-0.270281
-0.23378
-0.178933
-0.402502
-0.403941
-0.405067
-0.406287
-0.407713
-0.409314
-0.410985
-0.412521
-0.41359
-0.4137
-0.412296
-0.40832
-0.400808
-0.388516
-0.370294
-0.345035
-0.313642
-0.271601
-0.235775
-0.175297
-0.396783
-0.398708
-0.400118
-0.401552
-0.403154
-0.4049
-0.406701
-0.408374
-0.409616
-0.409983
-0.408881
-0.405421
-0.398629
-0.387254
-0.370117
-0.345993
-0.315629
-0.273554
-0.238607
-0.173564
-0.391193
-0.393575
-0.395229
-0.396825
-0.398542
-0.400366
-0.402226
-0.403965
-0.405308
-0.405845
-0.405005
-0.401995
-0.395849
-0.385401
-0.369428
-0.346645
-0.317702
-0.27644
-0.24249
-0.17491
-0.385846
-0.388637
-0.390492
-0.3922
-0.393978
-0.395823
-0.397686
-0.399434
-0.40082
-0.401471
-0.400855
-0.398248
-0.392737
-0.383231
-0.368507
-0.347305
-0.320177
-0.28058
-0.247874
-0.180358
-0.380861
-0.383998
-0.386005
-0.387778
-0.389569
-0.39139
-0.393213
-0.39493
-0.396323
-0.397055
-0.396643
-0.394427
-0.38957
-0.381059
-0.367731
-0.348474
-0.323104
-0.286679
-0.255163
-0.190696