/*--------------------------------*- C++ -*----------------------------------*\
  =========                 |
  \\      /  F ield         | OpenFOAM: The Open Source CFD Toolbox
   \\    /   O peration     | Website:  https://openfoam.org
    \\  /    A nd           | Version:  7
     \\/     M anipulation  |
\*---------------------------------------------------------------------------*/
FoamFile
{
    version     2.0;
    format      ascii;
    class       volVectorField;
    location    "4.6";
    object      U;
}
// * * * * * * * * * * * * * * * * * * * * * * * * * * * * * * * * * * * * * //

dimensions      [0 1 -1 0 0 0 0];

internalField   nonuniform List<vector> 
344
(
(1.00014 -0.000244853 4.26813e-16)
(1.00145 -0.000722192 6.83683e-16)
(1.00426 -0.00119827 1.41471e-15)
(1.00852 -0.00165953 4.51693e-15)
(1.0141 -0.00209531 2.30159e-15)
(1.02092 -0.00250064 1.35289e-15)
(1.02889 -0.00287138 4.79812e-16)
(1.03791 -0.00320403 1.08326e-15)
(1.04785 -0.00349646 9.86417e-17)
(1.0586 -0.00374796 -1.21729e-15)
(1.07003 -0.00395903 -1.25439e-15)
(1.08202 -0.00413113 -1.37095e-15)
(1.09447 -0.00426645 -1.8141e-15)
(1.10727 -0.00436774 -2.61249e-15)
(1.12031 -0.00443812 -2.44088e-15)
(1.13352 -0.00448088 -4.12839e-15)
(1.14681 -0.00449934 -4.04922e-15)
(1.16013 -0.0044968 -4.12804e-15)
(1.17341 -0.00447635 -4.31638e-15)
(1.1866 -0.00444093 -5.41429e-15)
(1.19967 -0.00439319 -4.51657e-15)
(1.21258 -0.00433554 -4.9678e-15)
(1.2253 -0.00427011 -5.06183e-15)
(1.23783 -0.00419876 -1.08948e-14)
(1.25013 -0.00412312 -7.12094e-15)
(1.2622 -0.00404455 -6.66646e-15)
(1.27404 -0.00396422 -6.3516e-15)
(1.28564 -0.00388309 -6.5672e-15)
(1.297 -0.00380194 -5.4493e-15)
(1.30811 -0.00372142 -4.73698e-15)
(1.31899 -0.00364203 -5.45786e-15)
(1.32964 -0.00356415 -5.27834e-15)
(1.34006 -0.00348807 -5.8076e-15)
(1.35026 -0.00341402 -6.28065e-15)
(1.36024 -0.00334211 -4.98188e-15)
(1.37001 -0.00327246 -5.04131e-15)
(1.37958 -0.00320508 -5.2157e-15)
(1.38895 -0.00313998 -5.26843e-15)
(1.39813 -0.00307714 -5.60801e-15)
(1.40713 -0.00301651 -6.12993e-15)
(1.41596 -0.00295803 -5.32506e-15)
(1.42461 -0.0029016 -4.57423e-15)
(1.4331 -0.00284716 -5.5461e-15)
(1.44143 -0.00279461 -5.71237e-15)
(1.44961 -0.00274384 -6.85095e-15)
(1.45764 -0.00269478 -6.2817e-15)
(1.46552 -0.00264732 -6.19959e-15)
(1.47327 -0.00260138 -6.63517e-15)
(1.48088 -0.00255686 -6.48633e-15)
(1.48837 -0.00251368 -6.53947e-15)
(1.49573 -0.00247176 -5.97092e-15)
(1.50296 -0.00243103 -6.95647e-15)
(1.51008 -0.00239141 -5.82227e-15)
(1.51708 -0.00235284 -6.17495e-15)
(1.52397 -0.00231525 -6.02784e-15)
(1.53075 -0.00227859 -6.43526e-15)
(1.53742 -0.0022428 -5.53853e-15)
(1.54398 -0.00220783 -5.04242e-15)
(1.55044 -0.00217365 -5.02821e-15)
(1.55681 -0.0021402 -5.82193e-15)
(1.56307 -0.00210745 -5.87501e-15)
(1.56924 -0.00207537 -5.60319e-15)
(1.57532 -0.00204392 -5.88602e-15)
(1.5813 -0.00201307 -5.45617e-15)
(1.58719 -0.0019828 -6.40317e-15)
(1.59299 -0.00195309 -5.62801e-15)
(1.59871 -0.00192391 -5.67964e-15)
(1.00014 -0.000568189 2.36066e-16)
(1.00147 -0.00169332 9.5418e-16)
(1.0043 -0.00280669 5.13738e-15)
(1.00858 -0.00388364 6.64498e-15)
(1.01421 -0.00490282 2.07853e-15)
(1.02108 -0.00585089 4.62693e-15)
(1.02911 -0.00671746 -1.89294e-15)
(1.03819 -0.00749446 2.57234e-15)
(1.04819 -0.0081771 1.86655e-15)
(1.059 -0.00876381 -3.67885e-15)
(1.07049 -0.00925581 -2.37567e-15)
(1.08255 -0.00965658 -1.67575e-15)
(1.09505 -0.00997132 -5.39952e-15)
(1.1079 -0.0102065 -8.05492e-15)
(1.12099 -0.0103696 -6.19926e-15)
(1.13424 -0.0104681 -9.22104e-15)
(1.14758 -0.01051 -1.05519e-14)
(1.16093 -0.010503 -8.48651e-15)
(1.17425 -0.0104542 -1.04715e-14)
(1.18747 -0.0103706 -1.21222e-14)
(1.20056 -0.0102583 -9.85408e-15)
(1.2135 -0.010123 -1.16763e-14)
(1.22624 -0.00996964 -1.29704e-14)
(1.23878 -0.00980252 -1.06531e-14)
(1.2511 -0.00962543 -1.25042e-14)
(1.26319 -0.00944156 -1.32908e-14)
(1.27504 -0.00925361 -1.37843e-14)
(1.28665 -0.00906381 -1.45311e-14)
(1.29802 -0.008874 -1.05328e-14)
(1.30914 -0.00868565 -1.15116e-14)
(1.32003 -0.00849994 -1.26406e-14)
(1.33068 -0.00831775 -1.29256e-14)
(1.3411 -0.00813978 -1.33428e-14)
(1.3513 -0.0079665 -1.43885e-14)
(1.36128 -0.00779824 -1.07065e-14)
(1.37105 -0.0076352 -1.19257e-14)
(1.38061 -0.00747747 -1.29243e-14)
(1.38998 -0.00732505 -1.37137e-14)
(1.39916 -0.00717789 -1.37445e-14)
(1.40815 -0.00703588 -1.46225e-14)
(1.41696 -0.00689885 -1.11679e-14)
(1.4256 -0.00676664 -1.23631e-14)
(1.43407 -0.00663904 -1.29761e-14)
(1.44239 -0.00651584 -1.35469e-14)
(1.45055 -0.00639683 -1.3998e-14)
(1.45856 -0.00628178 -1.45095e-14)
(1.46642 -0.00617049 -1.40573e-14)
(1.47415 -0.00606273 -1.4391e-14)
(1.48173 -0.00595831 -1.45514e-14)
(1.48919 -0.00585703 -1.47589e-14)
(1.49652 -0.00575869 -1.42129e-14)
(1.50373 -0.00566314 -1.46765e-14)
(1.51081 -0.0055702 -1.45674e-14)
(1.51778 -0.00547971 -1.45357e-14)
(1.52463 -0.00539154 -1.45462e-14)
(1.53137 -0.00530554 -1.48476e-14)
(1.538 -0.0052216 -1.12487e-14)
(1.54453 -0.0051396 -1.20579e-14)
(1.55095 -0.00505944 -1.27344e-14)
(1.55727 -0.00498102 -1.29831e-14)
(1.5635 -0.00490425 -1.337e-14)
(1.56962 -0.00482905 -1.34736e-14)
(1.57565 -0.00475535 -1.3588e-14)
(1.58159 -0.00468308 -1.38889e-14)
(1.58743 -0.00461218 -1.36773e-14)
(1.59319 -0.00454258 -1.39734e-14)
(1.59886 -0.00447425 -1.38128e-14)
(1.00015 -0.000928354 2.01385e-16)
(1.0015 -0.0027836 2.54746e-15)
(1.00437 -0.00461125 2.8598e-15)
(1.00873 -0.00637593 6.98244e-16)
(1.01445 -0.00804666 -2.32649e-15)
(1.02144 -0.00960001 -2.07839e-17)
(1.02959 -0.0110179 -1.36951e-15)
(1.0388 -0.0122873 -3.64159e-16)
(1.04895 -0.0134006 -6.24023e-17)
(1.0599 -0.0143557 -1.67559e-15)
(1.07152 -0.0151549 -2.09576e-15)
(1.08371 -0.0158041 -1.90762e-15)
(1.09634 -0.0163123 -3.30218e-15)
(1.1093 -0.0166904 -4.92811e-15)
(1.12251 -0.0169505 -7.34766e-15)
(1.13586 -0.0171056 -7.28593e-15)
(1.14929 -0.0171686 -7.77763e-15)
(1.16272 -0.0171519 -9.7845e-15)
(1.17611 -0.0170678 -9.41643e-15)
(1.1894 -0.0169272 -9.80073e-15)
(1.20255 -0.0167403 -1.16114e-14)
(1.21554 -0.0165162 -1.08964e-14)
(1.22833 -0.016263 -1.11096e-14)
(1.24091 -0.0159878 -1.04219e-14)
(1.25327 -0.0156966 -1.06701e-14)
(1.26539 -0.0153945 -1.10916e-14)
(1.27726 -0.015086 -1.15044e-14)
(1.2889 -0.0147746 -1.22866e-14)
(1.30028 -0.0144632 -9.04081e-15)
(1.31142 -0.0141543 -9.77026e-15)
(1.32232 -0.0138497 -1.02764e-14)
(1.33298 -0.0135508 -1.10238e-14)
(1.3434 -0.0132588 -1.15657e-14)
(1.3536 -0.0129744 -1.19491e-14)
(1.36358 -0.0126982 -1.1261e-14)
(1.37334 -0.0124304 -1.11135e-14)
(1.38289 -0.0121712 -1.12679e-14)
(1.39224 -0.0119206 -1.16474e-14)
(1.40139 -0.0116785 -1.18248e-14)
(1.41036 -0.0114448 -1.24558e-14)
(1.41915 -0.0112192 -1.15625e-14)
(1.42775 -0.0110014 -1.14619e-14)
(1.43619 -0.0107911 -1.16562e-14)
(1.44447 -0.010588 -1.19553e-14)
(1.45258 -0.0103918 -1.21458e-14)
(1.46054 -0.0102019 -1.24389e-14)
(1.46835 -0.0100183 -1.25481e-14)
(1.47602 -0.0098404 -1.2597e-14)
(1.48355 -0.009668 -1.26391e-14)
(1.49094 -0.00950076 -1.2786e-14)
(1.4982 -0.00933837 -1.27044e-14)
(1.50534 -0.00918058 -1.27863e-14)
(1.51235 -0.00902709 -1.28566e-14)
(1.51924 -0.00887768 -1.29806e-14)
(1.52601 -0.00873211 -1.30012e-14)
(1.53267 -0.00859016 -1.3554e-14)
(1.53921 -0.00845164 -1.03711e-14)
(1.54565 -0.00831636 -1.08003e-14)
(1.55198 -0.00818415 -1.09613e-14)
(1.55821 -0.00805486 -1.11397e-14)
(1.56433 -0.00792835 -1.14937e-14)
(1.57036 -0.00780447 -1.15585e-14)
(1.57628 -0.00768312 -1.17306e-14)
(1.58212 -0.00756418 -1.21029e-14)
(1.58786 -0.00744754 -1.22492e-14)
(1.59351 -0.00733312 -1.23043e-14)
(1.59906 -0.00722084 -1.22416e-14)
(1.00015 -0.00130711 3.00805e-17)
(1.00154 -0.00392477 1.57504e-16)
(1.00449 -0.00649999 2.29114e-15)
(1.00897 -0.0089833 8.35709e-16)
(1.01484 -0.0113323 -2.34932e-15)
(1.022 -0.0135131 -1.52196e-16)
(1.03035 -0.0154997 -2.80616e-15)
(1.03977 -0.0172742 -5.16309e-16)
(1.05012 -0.0188264 -8.2622e-16)
(1.06129 -0.0201539 -3.16613e-15)
(1.07313 -0.0212607 -2.63883e-15)
(1.08552 -0.022156 -2.61411e-15)
(1.09835 -0.0228531 -4.6385e-15)
(1.11149 -0.0233678 -6.169e-15)
(1.12486 -0.0237177 -5.55785e-15)
(1.13837 -0.0239213 -7.05611e-15)
(1.15194 -0.023997 -8.26244e-15)
(1.1655 -0.0239625 -7.76676e-15)
(1.179 -0.0238347 -9.14806e-15)
(1.19239 -0.0236292 -9.95964e-15)
(1.20563 -0.02336 -9.2033e-15)
(1.2187 -0.0230399 -1.06223e-14)
(1.23156 -0.02268 -1.14367e-14)
(1.24421 -0.0222901 -1.03261e-14)
(1.25662 -0.0218785 -1.12574e-14)
(1.26878 -0.0214522 -1.19701e-14)
(1.2807 -0.0210172 -1.23827e-14)
(1.29236 -0.0205785 -1.30609e-14)
(1.30377 -0.02014 -1.07999e-14)
(1.31493 -0.0197051 -1.14194e-14)
(1.32583 -0.0192762 -1.17161e-14)
(1.3365 -0.0188553 -1.19941e-14)
(1.34692 -0.0184439 -1.2366e-14)
(1.35711 -0.0180431 -1.28115e-14)
(1.36707 -0.0176536 -1.12434e-14)
(1.37681 -0.0172757 -1.17788e-14)
(1.38633 -0.0169098 -1.22156e-14)
(1.39565 -0.0165558 -1.26324e-14)
(1.40476 -0.0162136 -1.27828e-14)
(1.41368 -0.015883 -1.3118e-14)
(1.42241 -0.0155636 -1.15716e-14)
(1.43096 -0.0152552 -1.21994e-14)
(1.43933 -0.0149572 -1.25344e-14)
(1.44753 -0.0146692 -1.26909e-14)
(1.45556 -0.0143907 -1.29292e-14)
(1.46344 -0.0141213 -1.30204e-14)
(1.47116 -0.0138606 -1.31346e-14)
(1.47873 -0.013608 -1.31782e-14)
(1.48615 -0.0133631 -1.33349e-14)
(1.49344 -0.0131256 -1.34363e-14)
(1.50059 -0.0128949 -1.34839e-14)
(1.5076 -0.0126708 -1.35481e-14)
(1.51449 -0.0124528 -1.37155e-14)
(1.52125 -0.0122407 -1.36902e-14)
(1.52788 -0.0120341 -1.35854e-14)
(1.5344 -0.0118327 -1.40227e-14)
(1.54081 -0.0116362 -1.19336e-14)
(1.5471 -0.0114444 -1.19121e-14)
(1.55328 -0.0112571 -1.20953e-14)
(1.55935 -0.0110741 -1.22809e-14)
(1.56532 -0.0108951 -1.23949e-14)
(1.57119 -0.0107199 -1.25928e-14)
(1.57695 -0.0105484 -1.26527e-14)
(1.58262 -0.0103805 -1.28397e-14)
(1.58819 -0.010216 -1.29083e-14)
(1.59367 -0.0100547 -1.30624e-14)
(1.59906 -0.00989652 -1.31282e-14)
(1.00016 -0.00170623 -7.87793e-17)
(1.00159 -0.00512507 -2.67302e-16)
(1.00466 -0.00848603 -1.11422e-15)
(1.0093 -0.0117228 -1.22398e-15)
(1.01537 -0.0147795 -2.23821e-15)
(1.02278 -0.0176111 -2.54382e-15)
(1.0314 -0.0201836 -2.99928e-15)
(1.04111 -0.0224739 -2.56538e-15)
(1.05176 -0.02447 -2.34689e-15)
(1.06323 -0.0261699 -2.66994e-15)
(1.07536 -0.0275803 -2.72658e-15)
(1.08803 -0.0287144 -3.11522e-15)
(1.10112 -0.0295907 -3.57975e-15)
(1.11452 -0.0302309 -4.23629e-15)
(1.12812 -0.0306587 -3.30988e-15)
(1.14184 -0.0308985 -4.33615e-15)
(1.1556 -0.0309746 -5.10419e-15)
(1.16933 -0.0309102 -5.82249e-15)
(1.18299 -0.0307273 -6.36e-15)
(1.19652 -0.030446 -6.73273e-15)
(1.20988 -0.0300844 -7.15853e-15)
(1.22306 -0.0296587 -7.72374e-15)
(1.23601 -0.0291831 -7.9031e-15)
(1.24874 -0.0286699 -9.09524e-15)
(1.26121 -0.0281297 -8.8445e-15)
(1.27344 -0.0275714 -8.83371e-15)
(1.2854 -0.0270025 -8.88558e-15)
(1.29709 -0.0264292 -9.26457e-15)
(1.30852 -0.0258565 -8.86716e-15)
(1.31969 -0.0252885 -8.72241e-15)
(1.3306 -0.0247284 -8.75895e-15)
(1.34126 -0.0241787 -8.71754e-15)
(1.35166 -0.0236411 -8.86822e-15)
(1.36182 -0.0231171 -9.09928e-15)
(1.37175 -0.0226075 -8.86329e-15)
(1.38144 -0.0221129 -8.8729e-15)
(1.3909 -0.0216336 -8.84157e-15)
(1.40015 -0.0211695 -8.95982e-15)
(1.40919 -0.0207207 -9.05947e-15)
(1.41802 -0.0202867 -9.26136e-15)
(1.42665 -0.0198672 -9.08407e-15)
(1.43509 -0.0194618 -9.02261e-15)
(1.44335 -0.0190699 -9.06765e-15)
(1.45143 -0.018691 -9.16796e-15)
(1.45933 -0.0183245 -9.28474e-15)
(1.46707 -0.0179698 -9.30873e-15)
(1.47464 -0.0176265 -9.29681e-15)
(1.48206 -0.0172938 -9.22797e-15)
(1.48932 -0.0169713 -9.46832e-15)
(1.49644 -0.0166585 -9.5312e-15)
(1.50341 -0.0163547 -9.58047e-15)
(1.51024 -0.0160597 -9.6821e-15)
(1.51694 -0.0157729 -9.78589e-15)
(1.5235 -0.0154939 -9.83277e-15)
(1.52994 -0.0152222 -9.71737e-15)
(1.53626 -0.0149576 -1.00774e-14)
(1.54245 -0.0146997 -8.55498e-15)
(1.54853 -0.0144481 -8.69153e-15)
(1.5545 -0.0142026 -8.78838e-15)
(1.56035 -0.0139628 -8.77839e-15)
(1.56609 -0.0137286 -8.9231e-15)
(1.57173 -0.0134996 -8.99741e-15)
(1.57727 -0.0132757 -9.14795e-15)
(1.5827 -0.0130566 -9.25106e-15)
(1.58804 -0.0128422 -9.34178e-15)
(1.59328 -0.0126322 -9.44163e-15)
(1.59843 -0.0124266 -9.44618e-15)
(1.00017 -0.00213098 -1.05404e-17)
(1.00167 -0.0064021 -1.21653e-15)
(1.00488 -0.0105979 -1.00665e-15)
(1.00973 -0.0146323 -2.72511e-15)
(1.01609 -0.0184337 -3.95488e-15)
(1.02381 -0.0219449 -4.60993e-15)
(1.03279 -0.0251234 -3.89082e-15)
(1.04288 -0.0279415 -3.38845e-15)
(1.05393 -0.0303859 -3.12554e-15)
)
;

boundaryField
{
    inlet
    {
        type            uniformFixedValue;
        uniformValue    constant (1 0 0);
        value           uniform (1 0 0);
    }
    outlet
    {
        type            pressureInletOutletVelocity;
        value           nonuniform 0();
    }
    wall
    {
        type            fixedValue;
        value           nonuniform 0();
    }
    wedge1
    {
        type            wedge;
    }
    wedge2
    {
        type            wedge;
    }
    axis
    {
        type            empty;
    }
    procBoundary0to1
    {
        type            processor;
        value           nonuniform List<vector> 5((1.60434 -0.00189524 -7.00819e-15) (1.60444 -0.00440713 -1.51274e-14) (1.60454 -0.0071106 -1.26577e-14) (1.60436 -0.00974138 -1.32939e-14) (1.60348 -0.0122251 -9.51001e-15));
    }
    procBoundary0to6
    {
        type            processor;
        value           nonuniform List<vector> 
68
(
(1.06578 -0.0324562 -3.0369e-15)
(1.07829 -0.0341629 -3.01817e-15)
(1.09133 -0.0355247 -4.24603e-15)
(1.10476 -0.0365663 -3.96435e-15)
(1.11848 -0.0373163 -3.94111e-15)
(1.13238 -0.0378054 -4.8613e-15)
(1.14637 -0.0380645 -4.56632e-15)
(1.16038 -0.0381244 -4.46952e-15)
(1.17433 -0.038014 -5.74467e-15)
(1.18819 -0.0377605 -5.47169e-15)
(1.20189 -0.0373886 -5.40359e-15)
(1.21541 -0.0369204 -6.68932e-15)
(1.22872 -0.0363756 -6.46181e-15)
(1.24179 -0.0357715 -6.28543e-15)
(1.2546 -0.0351228 -6.47016e-15)
(1.26715 -0.0344423 -6.5407e-15)
(1.27943 -0.0337407 -6.65595e-15)
(1.29143 -0.0330268 -6.70362e-15)
(1.30315 -0.0323082 -6.89715e-15)
(1.31459 -0.0315908 -6.8019e-15)
(1.32575 -0.0308795 -6.72658e-15)
(1.33664 -0.0301781 -6.72243e-15)
(1.34726 -0.0294895 -6.6525e-15)
(1.35761 -0.0288159 -6.73172e-15)
(1.3677 -0.0281591 -6.74915e-15)
(1.37754 -0.0275199 -6.77361e-15)
(1.38713 -0.0268993 -6.79247e-15)
(1.39649 -0.0262974 -6.75136e-15)
(1.40561 -0.0257145 -6.7127e-15)
(1.41452 -0.0251502 -6.77107e-15)
(1.4232 -0.0246044 -6.94558e-15)
(1.43167 -0.0240766 -6.89691e-15)
(1.43994 -0.0235662 -6.84573e-15)
(1.44802 -0.0230728 -6.90204e-15)
(1.4559 -0.0225955 -6.84544e-15)
(1.46361 -0.0221338 -6.89739e-15)
(1.47113 -0.0216871 -6.94456e-15)
(1.47848 -0.0212545 -6.95582e-15)
(1.48567 -0.0208355 -6.89296e-15)
(1.49269 -0.0204295 -7.06511e-15)
(1.49956 -0.0200357 -7.08909e-15)
(1.50628 -0.0196536 -6.99106e-15)
(1.51285 -0.0192826 -7.068e-15)
(1.51928 -0.0189222 -7.21008e-15)
(1.52558 -0.0185719 -7.22372e-15)
(1.53174 -0.0182312 -7.1848e-15)
(1.53777 -0.0178995 -7.35153e-15)
(1.54368 -0.0175766 -6.93022e-15)
(1.54946 -0.0172619 -6.84253e-15)
(1.55513 -0.0169552 -6.83853e-15)
(1.56068 -0.016656 -6.67634e-15)
(1.56612 -0.016364 -6.79337e-15)
(1.57145 -0.016079 -6.85554e-15)
(1.57668 -0.0158006 -6.89883e-15)
(1.58181 -0.0155286 -6.93829e-15)
(1.58683 -0.0152628 -7.0069e-15)
(1.59176 -0.0150028 -7.06441e-15)
(1.59659 -0.0147485 -7.0745e-15)
(1.00018 -0.00258872 -4.32686e-17)
(1.00177 -0.00777854 -6.64291e-16)
(1.00516 -0.0128725 -1.01707e-15)
(1.0103 -0.017761 -2.83985e-15)
(1.01701 -0.0223537 -3.06236e-15)
(1.02515 -0.0265802 -3.87058e-15)
(1.03458 -0.0303891 -3.82128e-15)
(1.04515 -0.0337485 -3.70732e-15)
(1.06578 -0.0324562 -3.0369e-15)
(1.05669 -0.036645 -3.4816e-15)
)
;
    }
}


// ************************************************************************* //
