0.216393 	0.457656 	-2.43593e-18 	1.09858 	-0.0365654 	9.40279e-17
0.219304 	0.463813 	-5.55708e-19 	1.08359 	-0.0359701 	-1.85763e-17
0.22152 	0.468499 	1.67853e-19 	1.08089 	-0.0340795 	-1.21588e-17
0.225255 	0.476399 	5.77665e-19 	0.988653 	-0.0286145 	8.81536e-17
0.228735 	0.48376 	2.58789e-19 	0.727596 	-0.0145809 	8.8137e-17
0.230951 	0.488446 	7.03344e-19 	0.712235 	-0.0126672 	9.33128e-17
0.234118 	0.495143 	1.89731e-18 	0.241045 	0.000776133 	5.17146e-17
