/*--------------------------------*- C++ -*----------------------------------*\
  =========                 |
  \\      /  F ield         | OpenFOAM: The Open Source CFD Toolbox
   \\    /   O peration     | Website:  https://openfoam.org
    \\  /    A nd           | Version:  7
     \\/     M anipulation  |
\*---------------------------------------------------------------------------*/
FoamFile
{
    version     2.0;
    format      ascii;
    class       volVectorField;
    location    "0.7";
    object      U;
}
// * * * * * * * * * * * * * * * * * * * * * * * * * * * * * * * * * * * * * //

dimensions      [0 1 -1 0 0 0 0];

internalField   nonuniform List<vector> 
84
(
(3.20238 -0.197925 0)
(3.17713 -0.137285 0)
(3.15457 -0.0764152 0)
(3.13555 -0.0216893 0)
(3.11922 0.0221142 0)
(3.10842 0.0512862 0)
(3.10423 0.0666197 0)
(3.1029 0.0752097 0)
(3.10264 0.0893317 0)
(3.10574 0.107927 0)
(3.1135 0.132801 0)
(3.12554 0.161226 0)
(3.13471 0.181008 0)
(3.13598 0.184274 0)
(3.13293 0.178137 0)
(3.11876 0.160286 0)
(3.0864 0.116517 0)
(3.03604 0.0470843 0)
(3.00442 0.00575743 0)
(3.00008 0.000107616 0)
(3 1.3025e-07 0)
(3.25048 -0.181616 0)
(3.24501 -0.161289 0)
(3.22671 -0.134092 0)
(3.2066 -0.0988369 0)
(3.18533 -0.0530567 0)
(3.16271 0.00240278 0)
(3.14297 0.0610261 0)
(3.13206 0.110758 0)
(3.13181 0.143437 0)
(3.13583 0.175208 0)
(3.13932 0.199681 0)
(3.14024 0.205809 0)
(3.13842 0.201606 0)
(3.12847 0.187858 0)
(3.10632 0.156739 0)
(3.0652 0.0940181 0)
(3.01856 0.0263363 0)
(3.00128 0.00191743 0)
(3.00001 1.96495e-05 0)
(3 2.97655e-09 0)
(3 -1.04787e-08 0)
(3.20707 -0.237323 0)
(3.22193 -0.245712 0)
(3.23565 -0.244079 0)
(3.24146 -0.223082 0)
(3.23904 -0.182448 0)
(3.23251 -0.124598 0)
(3.22249 -0.0501601 0)
(3.20733 0.0345749 0)
(3.18618 0.115621 0)
(3.16224 0.177556 0)
(3.14634 0.20835 0)
(3.13534 0.207246 0)
(3.11642 0.186295 0)
(3.08458 0.13479 0)
(3.0381 0.0592974 0)
(3.00625 0.0100355 0)
(3.00021 0.000389448 0)
(3 1.94687e-06 0)
(3 -5.87082e-09 0)
(3 -7.26813e-09 0)
(3 -5.4747e-09 0)
(3.20244 -0.0835802 0)
(3.2134 -0.0681796 0)
(3.22973 -0.0423716 0)
(3.24661 -0.00954157 0)
(3.26051 0.0255341 0)
(3.26636 0.0528803 0)
(3.27067 0.0784609 0)
(3.27072 0.105439 0)
(3.25085 0.127418 0)
(3.21319 0.137999 0)
(3.16142 0.134458 0)
(3.10227 0.112394 0)
(3.05011 0.0652926 0)
(3.0134 0.0198851 0)
(3.00117 0.00203633 0)
(3.00002 4.11796e-05 0)
(3 9.11664e-08 0)
(3 -2.71066e-09 0)
(3 -2.94578e-09 0)
(3 -2.28093e-09 0)
(3 -7.05101e-10 0)
)
;

boundaryField
{
    inlet
    {
        type            fixedValue;
        value           nonuniform 0();
    }
    outlet
    {
        type            inletOutlet;
        inletValue      uniform (3 0 0);
        value           nonuniform List<vector> 4((3 1.3025e-07 0) (3 -1.04787e-08 0) (3 -5.4747e-09 0) (3 -7.05101e-10 0));
    }
    bottom
    {
        type            symmetryPlane;
    }
    top
    {
        type            symmetryPlane;
    }
    obstacle
    {
        type            slip;
    }
    defaultFaces
    {
        type            empty;
    }
    procBoundary47to41
    {
        type            processor;
        value           nonuniform List<vector> 
21
(
(3.12956 -0.0589712 0)
(3.11597 -0.0289219 0)
(3.10728 -0.00990704 0)
(3.10122 0.00162132 0)
(3.09765 0.00861278 0)
(3.09635 0.0127155 0)
(3.09427 0.0185686 0)
(3.09246 0.0262758 0)
(3.09138 0.0355773 0)
(3.09102 0.0474179 0)
(3.09227 0.0637132 0)
(3.09735 0.0869865 0)
(3.10913 0.118205 0)
(3.1249 0.14979 0)
(3.13215 0.164231 0)
(3.13181 0.163366 0)
(3.12422 0.152918 0)
(3.09992 0.124415 0)
(3.05287 0.0644407 0)
(3.00999 0.0117402 0)
(3.00036 0.000321229 0)
)
;
    }
    procBoundary47to46
    {
        type            processor;
        value           nonuniform List<vector> 4((3.22196 -0.249797 0) (3.2492 -0.197403 0) (3.21051 -0.222524 0) (3.19285 -0.0886646 0));
    }
}


// ************************************************************************* //
