/*--------------------------------*- C++ -*----------------------------------*\
  =========                 |
  \\      /  F ield         | OpenFOAM: The Open Source CFD Toolbox
   \\    /   O peration     | Website:  https://openfoam.org
    \\  /    A nd           | Version:  7
     \\/     M anipulation  |
\*---------------------------------------------------------------------------*/
FoamFile
{
    version     2.0;
    format      ascii;
    class       surfaceScalarField;
    location    "1.6";
    object      phi;
}
// * * * * * * * * * * * * * * * * * * * * * * * * * * * * * * * * * * * * * //

dimensions      [0 3 -1 0 0 0 0];

internalField   nonuniform List<scalar> 
620
(
5.15499e-06
2.10364e-06
5.95684e-06
2.07624e-06
6.74958e-06
2.05126e-06
7.53397e-06
2.02859e-06
8.31065e-06
2.00805e-06
9.08017e-06
1.98937e-06
9.84292e-06
1.97221e-06
1.05991e-05
1.95614e-06
1.13488e-05
1.94067e-06
1.20917e-05
1.92529e-06
1.28275e-05
1.90939e-06
1.35556e-05
1.89237e-06
1.42751e-05
1.87361e-06
1.49848e-05
1.85249e-06
1.56836e-05
1.82839e-06
1.80076e-06
-1.24973e-06
-1.82117e-06
-4.07531e-06
-5.76359e-06
-7.55686e-06
-7.41868e-06
-1.10495e-05
-7.56138e-06
-1.42116e-05
-6.86641e-06
-1.69035e-05
-5.86025e-06
-1.91054e-05
-4.81423e-06
-2.08514e-05
-3.84779e-06
-2.21951e-05
-2.99857e-06
-2.31917e-05
-2.26788e-06
-2.38921e-05
-1.64379e-06
-2.43402e-05
-1.11135e-06
-2.45734e-05
-6.565e-07
-2.46232e-05
-2.67159e-07
-2.45162e-05
6.66741e-08
-2.4275e-05
3.53227e-07
-2.39191e-05
5.9927e-07
-2.34649e-05
8.10412e-07
-2.29268e-05
9.91334e-07
-2.23172e-05
1.14597e-06
-2.16469e-05
1.27765e-06
-2.09254e-05
1.3892e-06
-2.0161e-05
1.48306e-06
-1.93611e-05
1.56132e-06
-1.8532e-05
1.62579e-06
-1.76794e-05
1.67803e-06
-1.68086e-05
1.71941e-06
-1.5924e-05
1.75113e-06
-1.50295e-05
1.77426e-06
-1.41289e-05
1.78972e-06
-1.32252e-05
1.79836e-06
-1.23213e-05
1.80094e-06
-1.14197e-05
1.79813e-06
-1.05225e-05
1.79058e-06
-9.63167e-06
1.77886e-06
-8.74889e-06
1.76352e-06
-7.87555e-06
1.74507e-06
-7.0128e-06
1.72401e-06
-6.16161e-06
1.70081e-06
-5.3227e-06
1.67591e-06
-4.49659e-06
1.64975e-06
-3.68361e-06
1.62274e-06
-2.8839e-06
1.59528e-06
-2.09744e-06
1.56773e-06
-1.32402e-06
1.54046e-06
-5.63326e-07
1.51377e-06
1.85116e-07
1.48796e-06
9.21873e-07
1.46327e-06
1.6476e-06
1.43991e-06
2.36301e-06
1.41804e-06
3.06886e-06
1.39779e-06
3.76591e-06
1.37919e-06
4.4549e-06
1.36227e-06
5.13654e-06
1.34696e-06
5.81144e-06
1.33315e-06
6.48014e-06
1.32067e-06
7.14304e-06
1.30931e-06
7.80038e-06
1.29879e-06
8.45227e-06
1.28879e-06
9.0986e-06
1.27896e-06
9.73908e-06
1.2689e-06
1.03732e-05
1.25822e-06
1.10004e-05
1.24649e-06
1.16195e-05
1.23329e-06
1.22297e-05
1.21821e-06
1.20084e-06
-9.29638e-07
-8.91527e-07
-3.2794e-06
-3.41382e-06
-6.24544e-06
-4.45265e-06
-9.25191e-06
-4.5549e-06
-1.19863e-05
-4.132e-06
-1.43216e-05
-3.52494e-06
-1.62388e-05
-2.89708e-06
-1.77669e-05
-2.31969e-06
-1.89517e-05
-1.81372e-06
-1.98407e-05
-1.37893e-06
-2.04768e-05
-1.00764e-06
-2.08975e-05
-6.90717e-07
-2.11342e-05
-4.19739e-07
-2.12138e-05
-1.87552e-07
-2.11589e-05
1.17423e-08
-2.09887e-05
1.82991e-07
-2.07196e-05
3.30177e-07
-2.03658e-05
4.56606e-07
-1.99395e-05
5.65042e-07
-1.94513e-05
6.57812e-07
-1.89106e-05
7.3689e-07
-1.83253e-05
8.0396e-07
-1.77027e-05
8.60464e-07
-1.70491e-05
9.07648e-07
-1.63698e-05
9.46588e-07
-1.567e-05
9.7822e-07
-1.4954e-05
1.00336e-06
-1.42256e-05
1.02272e-06
-1.34883e-05
1.03695e-06
-1.27451e-05
1.04658e-06
-1.19989e-05
1.05213e-06
-1.1252e-05
1.05405e-06
-1.05066e-05
1.05274e-06
-9.76462e-06
1.04857e-06
-9.02766e-06
1.0419e-06
-8.29719e-06
1.03304e-06
-7.57443e-06
1.02231e-06
-6.86041e-06
1.00999e-06
-6.15597e-06
9.96365e-07
-5.46175e-06
9.81695e-07
-4.77825e-06
9.6624e-07
-4.10576e-06
9.50247e-07
-3.44443e-06
9.33951e-07
-2.79427e-06
9.17576e-07
-2.15515e-06
9.01331e-07
-1.52679e-06
8.8541e-07
-9.08819e-07
8.69988e-07
-3.00772e-07
8.55218e-07
2.97905e-07
8.41232e-07
8.87818e-07
8.28131e-07
1.46961e-06
8.15991e-07
2.04395e-06
8.04855e-07
2.61149e-06
7.94733e-07
3.17284e-06
7.85603e-07
3.72858e-06
7.77408e-07
4.27919e-06
7.70057e-07
4.82508e-06
7.63426e-07
5.36651e-06
7.57361e-07
5.90361e-06
7.51681e-07
6.43639e-06
7.4618e-07
6.96466e-06
7.40633e-07
7.48809e-06
7.34799e-07
8.00615e-06
7.2843e-07
8.51817e-06
7.21273e-07
9.02329e-06
7.13082e-07
7.03616e-07
-5.93008e-07
-2.9852e-07
-2.39373e-06
-1.6131e-06
-4.71981e-06
-2.12657e-06
-7.09444e-06
-2.18027e-06
-9.25647e-06
-1.96997e-06
-1.11042e-05
-1.67722e-06
-1.26236e-05
-1.37766e-06
-1.38389e-05
-1.10438e-06
-1.47867e-05
-8.65937e-07
-1.55042e-05
-6.6146e-07
-1.60249e-05
-4.86933e-07
-1.63777e-05
-3.37897e-07
-1.65871e-05
-2.10348e-07
-1.66737e-05
-1.00938e-07
-1.6655e-05
-6.92168e-09
-1.6546e-05
7.39571e-08
-1.63594e-05
1.43542e-07
-1.61061e-05
2.03373e-07
-1.57958e-05
2.5474e-07
-1.54368e-05
2.98728e-07
-1.50361e-05
3.36262e-07
-1.46003e-05
3.68131e-07
-1.41348e-05
3.95013e-07
-1.36447e-05
4.17495e-07
-1.31342e-05
4.36082e-07
-1.26072e-05
4.51217e-07
-1.20671e-05
4.63283e-07
-1.1517e-05
4.7262e-07
-1.09596e-05
4.79524e-07
-1.03973e-05
4.84259e-07
-9.83218e-06
4.8706e-07
-9.26627e-06
4.88139e-07
-8.70123e-06
4.87687e-07
-8.13853e-06
4.85879e-07
-7.57951e-06
4.82879e-07
-7.0253e-06
4.78836e-07
-6.47689e-06
4.73895e-07
-5.93508e-06
4.68191e-07
-5.40057e-06
4.61853e-07
-4.87389e-06
4.55008e-07
-4.35542e-06
4.47775e-07
-3.84544e-06
4.4027e-07
-3.3441e-06
4.32604e-07
-2.8514e-06
4.24884e-07
-2.36728e-06
4.17209e-07
-1.89154e-06
4.09672e-07
-1.42391e-06
4.02358e-07
-9.64038e-07
3.95341e-07
-5.11493e-07
3.88687e-07
-6.58097e-08
3.82448e-07
3.73519e-07
3.76662e-07
8.07017e-07
3.71356e-07
1.23521e-06
3.6654e-07
1.65861e-06
3.62207e-07
2.07768e-06
3.58335e-07
2.49285e-06
3.54888e-07
2.90446e-06
3.51812e-07
3.31278e-06
3.49039e-07
3.71798e-06
3.46488e-07
4.12009e-06
3.44064e-07
4.51906e-06
3.41666e-07
4.91468e-06
3.39181e-07
5.30661e-06
3.36494e-07
5.6944e-06
3.33485e-07
6.07745e-06
3.30037e-07
3.26034e-07
-2.6953e-07
-2.899e-08
-1.44344e-06
-4.39192e-07
-2.98585e-06
-5.84155e-07
-4.56691e-06
-5.99216e-07
-6.00073e-06
-5.36137e-07
-7.22359e-06
-4.5437e-07
-8.22885e-06
-3.72393e-07
-9.03455e-06
-2.98685e-07
-9.66565e-06
-2.34836e-07
-1.01468e-05
-1.80272e-07
-1.05e-05
-1.33743e-07
-1.07439e-05
-9.39905e-08
-1.08944e-05
-5.99306e-08
-1.09646e-05
-3.06728e-08
-1.0966e-05
-5.4964e-09
-1.09083e-05
1.61936e-08
-1.07996e-05
3.48773e-08
-1.06472e-05
5.09622e-08
-1.04572e-05
6.47873e-08
-1.02352e-05
7.664e-08
-9.98567e-06
8.67654e-08
-9.71291e-06
9.53735e-08
-9.42054e-06
1.02645e-07
-9.11178e-06
1.08736e-07
-8.78948e-06
1.13783e-07
-8.45617e-06
1.17903e-07
-8.11409e-06
1.212e-07
-7.76523e-06
1.23763e-07
-7.41138e-06
1.25673e-07
-7.05412e-06
1.27e-07
-6.69487e-06
1.27807e-07
-6.33488e-06
1.2815e-07
-5.97527e-06
1.2808e-07
-5.61704e-06
1.27644e-07
-5.26104e-06
1.26885e-07
-4.90805e-06
1.25842e-07
-4.55871e-06
1.24554e-07
-4.21357e-06
1.23057e-07
-3.87311e-06
1.21384e-07
-3.53767e-06
1.19569e-07
-3.20753e-06
1.17643e-07
-2.8829e-06
1.15639e-07
-2.56388e-06
1.13584e-07
-2.25051e-06
1.11509e-07
-1.94274e-06
1.0944e-07
-1.64047e-06
1.07402e-07
-1.34353e-06
1.05419e-07
-1.0517e-06
1.03512e-07
-7.64713e-07
1.01699e-07
-4.8226e-07
9.99956e-08
-2.04012e-07
9.84143e-08
7.03808e-08
9.69633e-08
3.41273e-07
9.56471e-08
6.09014e-07
9.44661e-08
8.73933e-07
9.34164e-08
1.13633e-06
9.24898e-08
1.39647e-06
9.1674e-08
1.65456e-06
9.09525e-08
1.91074e-06
9.03051e-08
2.16509e-06
8.97082e-08
2.41763e-06
8.9135e-08
2.66825e-06
8.85567e-08
2.9168e-06
8.79425e-08
3.16303e-06
8.72607e-08
3.40658e-06
8.64791e-08
8.55664e-08
-2.899e-08
-4.68182e-07
-1.05234e-06
-1.65155e-06
-2.18769e-06
-2.64206e-06
-3.01445e-06
-3.31314e-06
-3.54797e-06
-3.72825e-06
-3.86199e-06
-3.95598e-06
-4.01591e-06
-4.04658e-06
-4.05208e-06
-4.03588e-06
-4.00101e-06
-3.95005e-06
-3.88526e-06
-3.80862e-06
-3.72185e-06
-3.62648e-06
-3.52383e-06
-3.4151e-06
-3.30131e-06
-3.18341e-06
-3.06221e-06
-2.93845e-06
-2.81278e-06
-2.68577e-06
-2.55797e-06
-2.42982e-06
-2.30174e-06
-2.17409e-06
-2.04721e-06
-1.92137e-06
-1.79681e-06
-1.67375e-06
-1.55237e-06
-1.4328e-06
-1.31516e-06
-1.19952e-06
-1.08594e-06
-9.74427e-07
-8.64987e-07
-7.57585e-07
-6.52166e-07
-5.48655e-07
-4.46956e-07
-3.46961e-07
-2.48546e-07
-1.51583e-07
-5.59359e-08
3.85302e-08
1.31947e-07
2.24436e-07
3.1611e-07
4.07063e-07
4.97368e-07
5.87076e-07
6.76211e-07
7.64768e-07
8.5271e-07
9.39971e-07
1.02645e-06
)
;

boundaryField
{
    inlet
    {
        type            calculated;
        value           nonuniform 0();
    }
    outlet
    {
        type            calculated;
        value           nonuniform 0();
    }
    wall
    {
        type            calculated;
        value           uniform 0;
    }
    wedge1
    {
        type            wedge;
        value           nonuniform List<scalar> 
346
(
1.3169e-16
7.46973e-17
1.02461e-16
1.20055e-17
-8.401e-18
3.75243e-16
2.37956e-16
3.92264e-16
5.68774e-17
-8.01827e-17
4.82005e-16
3.09771e-16
5.16555e-16
7.51791e-17
-1.05754e-16
4.91351e-16
3.17147e-16
5.30217e-16
7.72058e-17
-1.08394e-16
4.46983e-16
2.88669e-16
4.8182e-16
7.00608e-17
-9.76389e-17
3.81808e-16
2.46725e-16
4.116e-16
5.99747e-17
-8.359e-17
3.13607e-16
2.02918e-16
3.38798e-16
4.9584e-17
-6.94007e-17
2.50313e-16
1.62363e-16
2.71766e-16
4.00252e-17
-5.64732e-17
1.94548e-16
1.26684e-16
2.12954e-16
3.16082e-17
-4.50832e-17
1.46499e-16
9.59543e-17
1.62326e-16
2.4313e-17
-3.51537e-17
1.05435e-16
6.96797e-17
1.1899e-16
1.80203e-17
-2.64918e-17
7.03941e-17
4.72372e-17
8.18785e-17
1.25864e-17
-1.89051e-17
4.0472e-17
2.80404e-17
5.00047e-17
7.88396e-18
-1.22254e-17
1.48882e-17
1.15936e-17
2.25147e-17
3.80063e-18
-6.31815e-18
-7.02426e-18
-2.49807e-18
-1.14613e-18
2.53571e-19
-1.06897e-18
-2.58218e-17
-1.45888e-17
-2.13512e-17
-2.78542e-18
3.45098e-18
-4.19496e-17
-2.49677e-17
-3.86559e-17
-5.37752e-18
7.25088e-18
-5.57799e-17
-3.38736e-17
-5.34932e-17
-7.59402e-18
1.04623e-17
-6.76224e-17
-4.15049e-17
-6.62014e-17
-9.48698e-18
1.31857e-17
-7.77383e-17
-4.80281e-17
-7.70645e-17
-1.11012e-17
1.54965e-17
-8.63458e-17
-5.35831e-17
-8.63189e-17
-1.24739e-17
1.74545e-17
-9.36314e-17
-5.82898e-17
-9.41643e-17
-1.36359e-17
1.91088e-17
-9.97552e-17
-6.22509e-17
-1.00775e-16
-1.46155e-17
2.04981e-17
-1.04855e-16
-6.55542e-17
-1.06294e-16
-1.5433e-17
2.16575e-17
-1.09049e-16
-6.82761e-17
-1.10849e-16
-1.61077e-17
2.2615e-17
-1.12441e-16
-7.04824e-17
-1.14549e-16
-1.66558e-17
2.33952e-17
-1.1512e-16
-7.22312e-17
-1.17492e-16
-1.70939e-17
2.40174e-17
-1.17164e-16
-7.35725e-17
-1.1976e-16
-1.74322e-17
2.45009e-17
-1.18645e-16
-7.45514e-17
-1.21426e-16
-1.7682e-17
2.48608e-17
-1.19624e-16
-7.5207e-17
-1.22557e-16
-1.78528e-17
2.51111e-17
-1.20154e-16
-7.5575e-17
-1.23211e-16
-1.79548e-17
2.52628e-17
-1.20287e-16
-7.56871e-17
-1.23441e-16
-1.79939e-17
2.53275e-17
-1.20068e-16
-7.55723e-17
-1.23293e-16
-1.79775e-17
2.53147e-17
-1.19539e-16
-7.52571e-17
-1.22811e-16
-1.79118e-17
2.52333e-17
-1.18737e-16
-7.47664e-17
-1.22038e-16
-1.78038e-17
2.50905e-17
-1.17699e-16
-7.4123e-17
-1.2101e-16
-1.76578e-17
2.48945e-17
-1.16461e-16
-7.33489e-17
-1.19761e-16
-1.74791e-17
2.46523e-17
-1.15053e-16
-7.24647e-17
-1.18328e-16
-1.72725e-17
2.43706e-17
-1.13507e-16
-7.14904e-17
-1.16742e-16
-1.70437e-17
2.40552e-17
-1.11853e-16
-7.04449e-17
-1.15034e-16
-1.67962e-17
2.3713e-17
-1.1012e-16
-6.93465e-17
-1.13235e-16
-1.65346e-17
2.33496e-17
-1.08336e-16
-6.82128e-17
-1.11372e-16
-1.62631e-17
2.29711e-17
-1.06525e-16
-6.70606e-17
-1.09476e-16
-1.59861e-17
2.25826e-17
-1.04712e-16
-6.59055e-17
-1.0757e-16
-1.57071e-17
2.219e-17
-1.02922e-16
-6.47622e-17
-1.0568e-16
-1.54298e-17
2.17982e-17
-1.01173e-16
-6.36443e-17
-1.03829e-16
-1.51575e-17
2.14121e-17
-9.94849e-17
-6.25639e-17
-1.02036e-16
-1.48934e-17
2.10362e-17
-9.78733e-17
-6.15314e-17
-1.0032e-16
-1.46403e-17
2.06745e-17
-9.63512e-17
-6.05556e-17
-9.86966e-17
-1.44004e-17
2.03306e-17
-9.49286e-17
-5.96432e-17
-9.71771e-17
-1.41757e-17
2.00074e-17
9.11301e-16
-9.36119e-17
-5.87988e-17
-9.57705e-17
-1.39676e-17
1.97074e-17
8.99724e-16
-9.2404e-17
-5.80249e-17
-9.44814e-17
-1.37768e-17
1.94321e-17
8.89159e-16
-9.13041e-17
-5.73214e-17
-9.33114e-17
-1.36039e-17
1.91825e-17
8.79556e-16
-9.03075e-17
-5.6686e-17
-9.22575e-17
-1.34486e-17
1.89586e-17
8.70827e-16
-8.94057e-17
-5.61137e-17
-9.13129e-17
-1.331e-17
1.87596e-17
8.62846e-16
-8.85866e-17
-5.55974e-17
-9.04665e-17
-1.31865e-17
1.8584e-17
8.55459e-16
-8.78346e-17
-5.51275e-17
-8.9704e-17
-1.30764e-17
1.84294e-17
8.48477e-16
-8.71303e-17
-5.46923e-17
-8.90072e-17
-1.2977e-17
1.82925e-17
8.41687e-16
-8.64522e-17
-5.42783e-17
-8.83547e-17
-1.28855e-17
1.81693e-17
8.3485e-16
-8.57759e-17
-5.38703e-17
-8.77215e-17
-1.27979e-17
1.80556e-17
8.27715e-16
-8.50754e-17
-5.34519e-17
-8.70819e-17
-1.27108e-17
1.79458e-17
8.20017e-16
-8.43229e-17
-5.30058e-17
-8.64073e-17
-1.26201e-17
1.78343e-17
8.11487e-16
-8.34907e-17
-5.25141e-17
-8.56688e-17
-1.25215e-17
1.77152e-17
8.01858e-16
-8.25508e-17
-5.19589e-17
-8.48357e-17
-1.24102e-17
1.75826e-17
7.90874e-16
-8.14763e-17
-5.13229e-17
-8.38802e-17
-1.22826e-17
1.74296e-17
7.78291e-16
-8.02414e-17
-5.05893e-17
-8.27727e-17
-1.21336e-17
1.72508e-17
)
;
    }
    wedge2
    {
        type            wedge;
        value           nonuniform List<scalar> 
346
(
1.31687e-16
7.46935e-17
1.02454e-16
1.20004e-17
-8.40348e-18
3.75234e-16
2.37948e-16
3.92257e-16
5.68732e-17
-8.01842e-17
4.81988e-16
3.09758e-16
5.16546e-16
7.5174e-17
-1.05756e-16
4.91328e-16
3.17129e-16
5.30204e-16
7.71977e-17
-1.08397e-16
4.46955e-16
2.88645e-16
4.81798e-16
7.00462e-17
-9.76445e-17
3.81773e-16
2.46698e-16
4.1158e-16
5.99623e-17
-8.35942e-17
3.13566e-16
2.02886e-16
3.38775e-16
4.95701e-17
-6.94056e-17
2.50268e-16
1.62328e-16
2.71741e-16
4.00096e-17
-5.64785e-17
1.945e-16
1.26646e-16
2.12922e-16
3.1588e-17
-4.50907e-17
1.46447e-16
9.59133e-17
1.62296e-16
2.42951e-17
-3.51596e-17
1.05378e-16
6.96362e-17
1.18959e-16
1.80016e-17
-2.6498e-17
7.03364e-17
4.71919e-17
8.18459e-17
1.25668e-17
-1.89116e-17
4.04111e-17
2.79926e-17
4.99662e-17
7.86065e-18
-1.22341e-17
1.48248e-17
1.15441e-17
2.24792e-17
3.7792e-18
-6.32524e-18
-7.09061e-18
-2.54921e-18
-1.18245e-18
2.31851e-19
-1.07611e-18
-2.58886e-17
-1.4641e-17
-2.13888e-17
-2.80813e-18
3.44341e-18
-4.20179e-17
-2.50214e-17
-3.86979e-17
-5.40291e-18
7.24169e-18
-5.585e-17
-3.39283e-17
-5.35325e-17
-7.61769e-18
1.04544e-17
-6.76944e-17
-4.15601e-17
-6.62404e-17
-9.50996e-18
1.31782e-17
-7.78096e-17
-4.8083e-17
-7.71035e-17
-1.11244e-17
1.54888e-17
-8.64167e-17
-5.36384e-17
-8.63586e-17
-1.24977e-17
1.74465e-17
-9.37028e-17
-5.83455e-17
-9.42067e-17
-1.36615e-17
1.90997e-17
-9.9827e-17
-6.23066e-17
-1.00815e-16
-1.46396e-17
2.049e-17
-1.04927e-16
-6.561e-17
-1.06334e-16
-1.54566e-17
2.16496e-17
-1.0912e-16
-6.83316e-17
-1.10889e-16
-1.61314e-17
2.26072e-17
-1.12512e-16
-7.05376e-17
-1.1459e-16
-1.6681e-17
2.33864e-17
-1.1519e-16
-7.22857e-17
-1.17531e-16
-1.71173e-17
2.40096e-17
-1.17235e-16
-7.36267e-17
-1.19798e-16
-1.74551e-17
2.44933e-17
-1.18715e-16
-7.46049e-17
-1.21465e-16
-1.77049e-17
2.48532e-17
-1.19692e-16
-7.526e-17
-1.22596e-16
-1.78765e-17
2.51029e-17
-1.20222e-16
-7.56272e-17
-1.23249e-16
-1.7977e-17
2.52554e-17
-1.20354e-16
-7.57386e-17
-1.23477e-16
-1.80156e-17
2.53203e-17
-1.20134e-16
-7.56229e-17
-1.23329e-16
-1.79991e-17
2.53076e-17
-1.19603e-16
-7.5307e-17
-1.22848e-16
-1.79339e-17
2.52257e-17
-1.188e-16
-7.48151e-17
-1.22073e-16
-1.78245e-17
2.50836e-17
-1.17762e-16
-7.41707e-17
-1.21043e-16
-1.76778e-17
2.48879e-17
-1.16521e-16
-7.33955e-17
-1.19795e-16
-1.74988e-17
2.46458e-17
-1.15112e-16
-7.25102e-17
-1.18361e-16
-1.72923e-17
2.43639e-17
-1.13565e-16
-7.15346e-17
-1.16773e-16
-1.70624e-17
2.40491e-17
-1.11909e-16
-7.04879e-17
-1.15064e-16
-1.68142e-17
2.3707e-17
-1.10175e-16
-6.93884e-17
-1.13264e-16
-1.65522e-17
2.33438e-17
-1.08388e-16
-6.82535e-17
-1.11402e-16
-1.62805e-17
2.29652e-17
-1.06576e-16
-6.70999e-17
-1.09504e-16
-1.60026e-17
2.25772e-17
-1.04762e-16
-6.59435e-17
-1.07597e-16
-1.5723e-17
2.21847e-17
-1.0297e-16
-6.47989e-17
-1.05706e-16
-1.54451e-17
2.17931e-17
-1.01219e-16
-6.36796e-17
-1.03854e-16
-1.51723e-17
2.14072e-17
-9.95293e-17
-6.25978e-17
-1.0206e-16
-1.49077e-17
2.10315e-17
-9.79159e-17
-6.15639e-17
-1.00343e-16
-1.46539e-17
2.067e-17
-9.63921e-17
-6.05867e-17
-9.87185e-17
-1.44134e-17
2.03263e-17
-9.49676e-17
-5.96729e-17
-9.7198e-17
-1.4188e-17
2.00034e-17
9.11255e-16
-9.36491e-17
-5.88271e-17
-9.57902e-17
-1.39792e-17
1.97036e-17
8.9968e-16
-9.24393e-17
-5.80517e-17
-9.45003e-17
-1.37879e-17
1.94285e-17
8.89117e-16
-9.13375e-17
-5.73468e-17
-9.33292e-17
-1.36144e-17
1.91791e-17
8.79517e-16
-9.03391e-17
-5.671e-17
-9.22742e-17
-1.34584e-17
1.89554e-17
8.70789e-16
-8.94355e-17
-5.61362e-17
-9.13283e-17
-1.3319e-17
1.87567e-17
8.62811e-16
-8.86146e-17
-5.56184e-17
-9.04812e-17
-1.31951e-17
1.85812e-17
8.55426e-16
-8.78604e-17
-5.5147e-17
-8.97176e-17
-1.30844e-17
1.84268e-17
8.48447e-16
-8.71544e-17
-5.47103e-17
-8.90197e-17
-1.29843e-17
1.82901e-17
8.41658e-16
-8.64744e-17
-5.42949e-17
-8.83656e-17
-1.28919e-17
1.81674e-17
8.34824e-16
-8.57963e-17
-5.38855e-17
-8.7732e-17
-1.2804e-17
1.80536e-17
8.27692e-16
-8.50937e-17
-5.34657e-17
-8.70914e-17
-1.27164e-17
1.79439e-17
8.19995e-16
-8.43397e-17
-5.30182e-17
-8.64158e-17
-1.2625e-17
1.78327e-17
8.11467e-16
-8.3506e-17
-5.25252e-17
-8.56756e-17
-1.25254e-17
1.77141e-17
8.0184e-16
-8.25646e-17
-5.19688e-17
-8.48422e-17
-1.24138e-17
1.75814e-17
7.90857e-16
-8.14882e-17
-5.13313e-17
-8.38849e-17
-1.22852e-17
1.7429e-17
7.78278e-16
-8.02515e-17
-5.05962e-17
-8.27771e-17
-1.21359e-17
1.72501e-17
)
;
    }
    axis
    {
        type            empty;
        value           nonuniform 0();
    }
    procBoundary45to39
    {
        type            processor;
        value           nonuniform List<scalar> 
67
(
-2.91539e-06
-2.87809e-06
-2.844e-06
-2.81298e-06
-2.78474e-06
-2.75889e-06
-2.73495e-06
-2.71232e-06
-2.69033e-06
-2.66823e-06
-2.64521e-06
-2.62044e-06
-2.59308e-06
-2.56226e-06
-2.52718e-06
-2.48706e-06
3.07089e-06
8.58917e-06
1.09002e-05
1.1054e-05
1.00285e-05
8.55219e-06
7.01613e-06
5.59382e-06
4.34217e-06
3.26453e-06
2.3442e-06
1.55947e-06
8.89673e-07
3.16918e-07
-1.73676e-07
-5.94361e-07
-9.55219e-07
-1.26459e-06
-1.52943e-06
-1.75556e-06
-1.94792e-06
-2.11069e-06
-2.24746e-06
-2.36131e-06
-2.4549e-06
-2.53054e-06
-2.59024e-06
-2.63577e-06
-2.66868e-06
-2.69037e-06
-2.70205e-06
-2.70485e-06
-2.69978e-06
-2.68776e-06
-2.66966e-06
-2.64629e-06
-2.61841e-06
-2.58675e-06
-2.552e-06
-2.51482e-06
-2.47586e-06
-2.43572e-06
-2.39498e-06
-2.3542e-06
-2.31387e-06
-2.27447e-06
-2.2364e-06
-2.20002e-06
-2.16563e-06
-4.34323e-06
-2.13346e-06
)
;
    }
    procBoundary45to40
    {
        type            processor;
        value           uniform 1.63699e-05;
    }
    procBoundary45to46
    {
        type            processor;
        value           nonuniform List<scalar> 5(1.28297e-05 9.52052e-06 6.45503e-06 3.64705e-06 1.11202e-06);
    }
}


// ************************************************************************* //
