/*--------------------------------*- C++ -*----------------------------------*\
  =========                 |
  \\      /  F ield         | OpenFOAM: The Open Source CFD Toolbox
   \\    /   O peration     | Website:  https://openfoam.org
    \\  /    A nd           | Version:  7
     \\/     M anipulation  |
\*---------------------------------------------------------------------------*/
FoamFile
{
    version     2.0;
    format      ascii;
    class       volScalarField;
    location    "15";
    object      p;
}
// * * * * * * * * * * * * * * * * * * * * * * * * * * * * * * * * * * * * * //

dimensions      [0 2 -2 0 0 0 0];

internalField   nonuniform List<scalar> 
433
(
-0.211511
-0.112667
-0.0696707
-0.0558413
-0.0559482
-0.0618831
-0.0696943
-0.077645
-1.78641
-1.74773
-1.72329
-1.68952
-1.65458
-1.61864
-1.58201
-1.65144
-1.62259
-1.59217
-1.56047
-1.5278
-1.4945
-1.46061
-1.42714
-1.5794
-1.55217
-1.52402
-1.49513
-1.46564
-1.43568
-1.40544
-1.37481
-1.34402
-1.50295
-1.47653
-1.44946
-1.42237
-1.39534
-1.36832
-1.34129
-1.3143
-1.28713
-1.25936
-1.40145
-1.38024
-1.35828
-1.33591
-1.31323
-1.29029
-1.26713
-1.24386
-1.22065
-1.19734
-1.1731
-1.29166
-1.26808
-1.25039
-1.23418
-1.21765
-1.20027
-1.18201
-1.16311
-1.14386
-1.12465
-1.10549
-1.08543
-1.16225
-1.14491
-1.13075
-1.11723
-1.10333
-1.08874
-1.07349
-1.05778
-1.04188
-1.02627
-1.01133
-0.996638
-1.0317
-1.03618
-1.02926
-1.01769
-1.00455
-0.991062
-0.977595
-0.964182
-0.950793
-0.937452
-0.924343
-0.911363
-0.896911
-0.888624
-0.900636
-0.898944
-0.891469
-0.881953
-0.871899
-0.861761
-0.851578
-0.841286
-0.830847
-0.820348
-0.809599
-0.796897
-0.769435
-0.754943
-0.75058
-0.749826
-0.749475
-0.748182
-0.745532
-0.741527
-0.73632
-0.730111
-0.723095
-0.715513
-0.707307
-0.697006
-0.664535
-0.622238
-0.610701
-0.611916
-0.616785
-0.621248
-0.623858
-0.62437
-0.623012
-0.620138
-0.616079
-0.61117
-0.605456
-0.597723
-0.449992
-0.467129
-0.480939
-0.491988
-0.500568
-0.506854
-0.511099
-0.51359
-0.514601
-0.514372
-0.513105
-0.510962
-0.508134
-0.504611
-0.499387
-0.172614
-0.30333
-0.365776
-0.393085
-0.40369
-0.407252
-0.40823
-0.40845
-0.408487
-0.4084
-0.408086
-0.407428
-0.406402
-0.404891
-0.402107
-0.190345
-0.248171
-0.275581
-0.287572
-0.292604
-0.294931
-0.296559
-0.298219
-0.299988
-0.301758
-0.303378
-0.304706
-0.305698
-0.30626
-0.30593
-0.342051
-0.237384
-0.190416
-0.173276
-0.170434
-0.173731
-0.179162
-0.184917
-0.190329
-0.195166
-0.199425
-0.203093
-0.206244
-0.208901
-0.211004
-1.36761
-1.2151
-1.10867
-1.0122
-0.93498
-0.857257
-0.787975
-0.725726
-0.669162
-0.617947
-0.571276
-0.528596
-0.489463
-0.453453
-0.42017
-0.389264
-0.360462
-0.333502
-1.28697
-1.14253
-1.04192
-0.951222
-0.878339
-0.806909
-0.741966
-0.683844
-0.630833
-0.582875
-0.539077
-0.498959
-0.462142
-0.428236
-0.396863
-0.367697
-0.340492
-0.315011
-1.20583
-1.06914
-0.973856
-0.889123
-0.816334
-0.755942
-0.695484
-0.641533
-0.592055
-0.547457
-0.506595
-0.469079
-0.434611
-0.402838
-0.373393
-0.345977
-0.320382
-0.296387
-1.1245
-0.994702
-0.904593
-0.825877
-0.758821
-0.704013
-0.648655
-0.598936
-0.552918
-0.511745
-0.473864
-0.438975
-0.406885
-0.377275
-0.349774
-0.324119
-0.300141
-0.277642
-1.04349
-0.919005
-0.834206
-0.761738
-0.700664
-0.648047
-0.60104
-0.556267
-0.513494
-0.475817
-0.440947
-0.408676
-0.378987
-0.351567
-0.326023
-0.302137
-0.279783
-0.961027
-0.842949
-0.763627
-0.697638
-0.641589
-0.596828
-0.548756
-0.513326
-0.473762
-0.439803
-0.407937
-0.37822
-0.35096
-0.325739
-0.302159
-0.280045
-0.259323
-0.863196
-0.765675
-0.696021
-0.637474
-0.589275
-0.548537
-0.499674
-0.467707
-0.433002
-0.40367
-0.374846
-0.347616
-0.322867
-0.299828
-0.278207
-0.257862
-0.238776
-0.766047
-0.687392
-0.627448
-0.576259
-0.533638
-0.495959
-0.4565
-0.427853
-0.391886
-0.365024
-0.340776
-0.316662
-0.294705
-0.273848
-0.254205
-0.235618
-0.218161
-0.67083
-0.608215
-0.558087
-0.514433
-0.477444
-0.444077
-0.411111
-0.384327
-0.355522
-0.32929
-0.307764
-0.285705
-0.266045
-0.247604
-0.230157
-0.213338
-0.197508
-0.576995
-0.528624
-0.488226
-0.4522
-0.421057
-0.392545
-0.364965
-0.341137
-0.316907
-0.294859
-0.275273
-0.254779
-0.237863
-0.22157
-0.20582
-0.191013
-0.176837
-0.484394
-0.448973
-0.418112
-0.389723
-0.36456
-0.3411
-0.318516
-0.298214
-0.277991
-0.259413
-0.243739
-0.223621
-0.209684
-0.195604
-0.181817
-0.168691
-0.156146
-0.392983
-0.369517
-0.347979
-0.327168
-0.308044
-0.289729
-0.271938
-0.255393
-0.238999
-0.223709
-0.210142
-0.194503
-0.18159
-0.169681
-0.157818
-0.146414
-0.135475
-0.302786
-0.29047
-0.278028
-0.264682
-0.251604
-0.238455
-0.22534
-0.21267
-0.199984
-0.18792
-0.176901
-0.165163
-0.15351
-0.143836
-0.133843
-0.12416
-0.114834
-0.213885
-0.212018
-0.208438
-0.202401
-0.195334
-0.187318
-0.178806
-0.17006
-0.161006
-0.152122
-0.143867
-0.134981
-0.126224
-0.11811
-0.109928
-0.101955
-0.0942332
)
;

boundaryField
{
    inlet
    {
        type            zeroGradient;
    }
    outlet
    {
        type            fixedValue;
        value           nonuniform 0();
    }
    cylinder
    {
        type            zeroGradient;
    }
    top
    {
        type            symmetryPlane;
    }
    bottom
    {
        type            symmetryPlane;
    }
    defaultFaces
    {
        type            empty;
    }
    procBoundary16to9
    {
        type            processor;
        value           nonuniform List<scalar> 9(-1.87968 -1.82439 -1.82439 -1.75572 -1.75572 -1.67857 -1.67857 -1.60535 -1.60535);
    }
    procBoundary16to10
    {
        type            processor;
        value           nonuniform List<scalar> 
25
(
-1.83853
-1.70825
-1.70825
-1.66807
-1.54474
-1.54474
-1.50868
-1.44752
-1.28666
-1.17371
-1.07854
-0.989496
-0.906965
-0.83333
-0.767051
-0.707009
-0.65265
-0.603175
-0.557978
-0.516565
-0.478478
-0.443303
-0.410671
-0.38028
-0.351854
)
;
    }
    procBoundary16to15
    {
        type            processor;
        value           nonuniform List<scalar> 
17
(
-1.52682
-1.52682
-1.42114
-1.42114
-1.33052
-1.18804
-1.18804
-1.00244
-0.847334
-0.847334
-0.80608
-0.769893
-0.769893
-0.429575
0.0848841
-0.0772338
-0.551285
)
;
    }
    procBoundary16to17
    {
        type            processor;
        value           nonuniform List<scalar> 
15
(
-0.308156
-0.291038
-0.273795
-0.256439
-0.258786
-0.258786
-0.239833
-0.2208
-0.201702
-0.182558
-0.163387
-0.144206
-0.125026
-0.105877
-0.0867771
)
;
    }
    procBoundary16to21
    {
        type            processor;
        value           uniform -0.41033;
    }
    procBoundary16to22
    {
        type            processor;
        value           nonuniform List<scalar> 
33
(
0.172575
0.108226
0.0746772
0.0564555
0.0452404
0.0368491
0.029383
-0.0850965
0.0221091
-0.0850965
-0.0918967
-0.0980259
-0.103572
-0.108592
-0.113138
-0.117534
-0.126376
-0.134321
-0.139371
-0.140447
-0.139313
-0.136357
-0.132397
-0.127591
-0.122109
-0.116368
-0.111004
-0.10493
-0.0989566
-0.0924922
-0.0860949
-0.0798245
-0.073699
)
;
    }
}


// ************************************************************************* //
