/*--------------------------------*- C++ -*----------------------------------*\
  =========                 |
  \\      /  F ield         | OpenFOAM: The Open Source CFD Toolbox
   \\    /   O peration     | Website:  https://openfoam.org
    \\  /    A nd           | Version:  7
     \\/     M anipulation  |
\*---------------------------------------------------------------------------*/
FoamFile
{
    version     2.0;
    format      ascii;
    class       volVectorField;
    location    "15";
    object      U;
}
// * * * * * * * * * * * * * * * * * * * * * * * * * * * * * * * * * * * * * //

dimensions      [0 1 -1 0 0 0 0];

internalField   nonuniform List<vector> 
433
(
(-0.00844964 -0.0128597 3.32272e-21)
(-0.0137686 -0.0165681 -1.27808e-21)
(-0.0182816 -0.0189559 -3.62309e-22)
(-0.0222198 -0.0203982 3.3512e-22)
(-0.0257745 -0.0212151 9.41301e-22)
(-0.029095 -0.0216426 4.25938e-22)
(-0.0322827 -0.0218397 -2.02898e-21)
(-0.0354037 -0.0219071 1.18743e-21)
(0.0438011 -0.0337136 1.50228e-18)
(0.0569851 -0.0314562 1.99347e-19)
(0.0169928 -0.0409568 2.25134e-18)
(0.0270243 -0.0386098 -1.23956e-18)
(0.0380422 -0.0364286 -5.78543e-19)
(0.0500479 -0.0345422 9.0557e-19)
(0.0630446 -0.0332385 -8.12302e-19)
(-0.0024144 -0.0473302 3.83015e-19)
(0.00474153 -0.0451409 2.71954e-19)
(0.0128223 -0.0430074 -1.49963e-19)
(0.0218054 -0.041018 -5.50472e-20)
(0.0316582 -0.0392997 6.03286e-19)
(0.0423556 -0.0380992 2.36018e-19)
(0.0538086 -0.0377245 -4.85007e-19)
(0.0657067 -0.0383068 1.34857e-18)
(-0.0162593 -0.0520657 2.14308e-20)
(-0.0113698 -0.050383 5.05615e-19)
(-0.0057202 -0.0485583 -1.10904e-18)
(0.000693677 -0.0467063 1.07148e-18)
(0.00786417 -0.044938 -7.42664e-19)
(0.0157638 -0.043379 -8.16636e-20)
(0.0243663 -0.0422425 -2.39681e-19)
(0.0335772 -0.0417841 9.47384e-19)
(0.0432415 -0.0421137 1.33955e-19)
(-0.026224 -0.0559654 1.26134e-19)
(-0.0227678 -0.0545524 -5.27559e-19)
(-0.0189021 -0.0529868 -4.06185e-19)
(-0.0145268 -0.0513328 4.24955e-19)
(-0.00957906 -0.0496626 -4.17943e-20)
(-0.00403244 -0.0480572 -1.55013e-19)
(0.00210597 -0.0466133 1.12878e-18)
(0.00881764 -0.0455019 -5.88576e-19)
(0.0160096 -0.0449336 -3.55654e-19)
(0.0236566 -0.0449963 -9.41699e-20)
(-0.0305918 -0.0600497 3.86699e-19)
(-0.0289992 -0.0581608 -3.18427e-19)
(-0.0269952 -0.0564722 2.63192e-19)
(-0.0245254 -0.0548654 4.14073e-19)
(-0.0215529 -0.0532909 -1.60197e-19)
(-0.018057 -0.0517481 -6.10899e-20)
(-0.0140356 -0.0502696 2.48929e-19)
(-0.0095071 -0.048915 8.73678e-20)
(-0.00449784 -0.0478144 -7.09314e-19)
(0.00089715 -0.0471433 2.48917e-19)
(0.00675282 -0.0469571 4.119e-19)
(-0.0291901 -0.0598582 4.23792e-19)
(-0.0302971 -0.0587652 -2.87414e-19)
(-0.0305319 -0.0576878 -1.8113e-19)
(-0.0300376 -0.0565631 8.06142e-20)
(-0.0289194 -0.0553653 1.23479e-19)
(-0.0272463 -0.0540989 8.58354e-20)
(-0.0250637 -0.0527917 -5.13794e-19)
(-0.0224066 -0.0514877 2.03868e-19)
(-0.0193094 -0.0502453 -7.02728e-19)
(-0.0158079 -0.049178 1.64018e-19)
(-0.0119891 -0.0484411 4.84564e-19)
(-0.00771536 -0.0480677 -1.39664e-19)
(-0.0314809 -0.0542757 -7.10527e-19)
(-0.0326575 -0.0554172 7.8893e-19)
(-0.0332076 -0.0557398 -4.16311e-19)
(-0.0332497 -0.0554919 4.17294e-20)
(-0.0328546 -0.0548526 9.1367e-20)
(-0.0320632 -0.0539539 1.94931e-19)
(-0.030898 -0.0528978 -7.86263e-20)
(-0.0293736 -0.0517684 -2.59257e-19)
(-0.0275066 -0.0506433 5.57478e-19)
(-0.0253115 -0.0496427 2.6507e-19)
(-0.0228699 -0.0489386 -8.69711e-20)
(-0.0200602 -0.0485562 -4.32003e-19)
(-0.0382442 -0.051221 -1.54178e-19)
(-0.0371373 -0.0534688 2.02283e-19)
(-0.0365623 -0.0545724 1.8429e-19)
(-0.0363084 -0.0548852 9.18067e-20)
(-0.0361999 -0.0546576 -5.81195e-19)
(-0.0361014 -0.0540656 2.77107e-19)
(-0.0359125 -0.0532342 -4.17561e-19)
(-0.0355626 -0.0522558 -1.54713e-20)
(-0.0350084 -0.051203 5.81644e-19)
(-0.0342307 -0.0501411 -4.15522e-19)
(-0.0332344 -0.049173 -2.39261e-19)
(-0.0321084 -0.048473 4.9298e-19)
(-0.0306035 -0.0480943 3.29224e-20)
(-0.0381552 -0.059732 -1.13322e-19)
(-0.0368297 -0.0577881 2.70875e-20)
(-0.0364165 -0.0563061 2.71289e-19)
(-0.036591 -0.055076 -2.02545e-19)
(-0.0370877 -0.0539722 9.43299e-20)
(-0.0377164 -0.0529191 -4.09144e-19)
(-0.0383441 -0.0518768 4.16279e-19)
(-0.0388824 -0.0508308 -1.36789e-19)
(-0.0392775 -0.0497844 3.10256e-20)
(-0.0395027 -0.0487569 4.03266e-19)
(-0.0395556 -0.0478168 -1.37938e-19)
(-0.0395185 -0.0471108 -2.15762e-19)
(-0.0391456 -0.0466449 1.96094e-19)
(-0.0210475 -0.065809 1.0254e-19)
(-0.0248609 -0.0606035 -1.12866e-19)
(-0.0281574 -0.0570759 1.56845e-19)
(-0.0310235 -0.0546318 -4.51782e-20)
(-0.0335379 -0.0528624 -1.32953e-19)
(-0.0357593 -0.0514956 2.49821e-19)
(-0.0377278 -0.0503537 -2.7601e-20)
(-0.0394694 -0.049327 1.78687e-21)
(-0.0410011 -0.0483536 -7.17565e-20)
(-0.0423353 -0.0474045 -1.72144e-19)
(-0.0434837 -0.0464766 5.45635e-20)
(-0.0444645 -0.045622 3.37905e-19)
(-0.0453627 -0.0449817 -1.69482e-19)
(-0.0459598 -0.0445266 -1.36969e-19)
(-0.009676 -0.0473529 7.13228e-21)
(-0.0169869 -0.0475357 1.57382e-19)
(-0.0228292 -0.0475134 2.25817e-20)
(-0.0275633 -0.0473223 -2.60462e-20)
(-0.0314769 -0.0470007 1.36086e-20)
(-0.0347897 -0.0465743 -7.69426e-21)
(-0.0376604 -0.0460592 -1.23344e-19)
(-0.0401983 -0.0454679 -2.44268e-20)
(-0.0424761 -0.0448125 -4.5252e-20)
(-0.0445414 -0.0441072 6.22078e-20)
(-0.0464258 -0.0433723 8.18739e-20)
(-0.0481581 -0.0426718 5.26053e-20)
(-0.0498172 -0.0421572 9.60771e-20)
(-0.0512166 -0.0417829 7.50258e-20)
(-0.0122082 -0.0223576 1.47213e-20)
(-0.0171076 -0.0296339 -8.90249e-20)
(-0.0214856 -0.0344773 -1.24902e-20)
(-0.0254118 -0.0375691 -1.15534e-20)
(-0.0289754 -0.0394463 -8.91354e-20)
(-0.0322651 -0.0404948 1.65195e-19)
(-0.0353399 -0.0409833 -1.61587e-19)
(-0.03824 -0.041093 1.03313e-19)
(-0.0409917 -0.0409446 -1.25135e-20)
(-0.0436113 -0.0406189 -3.76356e-20)
(-0.0461092 -0.0401717 1.07383e-19)
(-0.0484914 -0.0396482 -1.11036e-19)
(-0.0507706 -0.0391256 -4.25798e-21)
(-0.0530005 -0.0387664 2.79224e-20)
(-0.0550278 -0.0385126 -9.4885e-20)
(-0.0343671 -0.0282053 -3.41808e-21)
(-0.0317724 -0.030958 -3.31003e-21)
(-0.0307524 -0.0330407 4.82722e-20)
(-0.031033 -0.0345091 -2.37178e-21)
(-0.0322529 -0.0354858 2.01425e-20)
(-0.0341098 -0.0360854 -3.94856e-20)
(-0.0363818 -0.0363968 9.84395e-21)
(-0.0389053 -0.0364871 3.3438e-20)
(-0.0415646 -0.0364085 -4.11158e-20)
(-0.0442809 -0.0362009 1.44633e-20)
(-0.0470025 -0.0358958 -1.29424e-20)
(-0.0496949 -0.0355245 -5.78844e-20)
(-0.0523439 -0.0351563 1.02306e-19)
(-0.0549702 -0.0349507 2.48755e-20)
(-0.0574585 -0.0348349 9.92668e-21)
(-0.028284 -0.0464011 1.04507e-20)
(-0.0277929 -0.0404464 -1.39892e-20)
(-0.028211 -0.0368646 4.53101e-21)
(-0.0293744 -0.0347523 4.17286e-22)
(-0.031114 -0.0335294 -6.53141e-21)
(-0.0332827 -0.0328259 8.90257e-21)
(-0.0357538 -0.0324056 -5.18335e-21)
(-0.0384317 -0.0321218 -3.1656e-21)
(-0.0412425 -0.0318868 8.87859e-21)
(-0.0441271 -0.0316543 1.62857e-20)
(-0.0470435 -0.0314025 -3.55675e-20)
(-0.0499598 -0.031131 -7.10057e-21)
(-0.0528587 -0.0308903 -1.85508e-21)
(-0.0557395 -0.0308276 -1.46787e-20)
(-0.0585392 -0.0308558 9.02736e-21)
(-0.00965241 -0.0374171 -6.41135e-21)
(-0.0151203 -0.0333831 1.57071e-21)
(-0.0197481 -0.0308964 -8.0562e-22)
(-0.0237571 -0.0293616 -3.4047e-21)
(-0.0273493 -0.0284172 -2.92647e-21)
(-0.0306831 -0.0278344 4.11696e-21)
(-0.0338733 -0.0274651 3.06538e-21)
(-0.0369922 -0.0272142 -3.46489e-21)
(-0.0400805 -0.0270209 -3.25846e-21)
(-0.0431571 -0.0268505 9.22821e-21)
(-0.0462265 -0.026686 2.22172e-21)
(-0.0492828 -0.0265238 -3.08935e-21)
(-0.0523193 -0.0264116 -8.8046e-22)
(-0.0553211 -0.0264902 -1.74589e-21)
(-0.0582882 -0.0266663 4.97097e-21)
(0.0890816 -0.0420112 2.74255e-20)
(0.0965459 -0.0254849 -3.5339e-19)
(0.113761 -0.0155977 4.10479e-21)
(0.127717 -0.00708575 -1.79821e-20)
(0.140869 0.000524169 1.1768e-19)
(0.152727 0.00688649 -1.80785e-19)
(0.164127 0.0119663 -3.91083e-20)
(0.175332 0.0160718 1.02871e-19)
(0.186586 0.0194398 1.07541e-21)
(0.198158 0.0223181 5.15158e-20)
(0.2102 0.0248801 -9.56225e-21)
(0.222855 0.0273244 -7.98978e-20)
(0.23619 0.0298487 9.82928e-20)
(0.250227 0.0326109 1.63673e-22)
(0.264951 0.0357621 -1.01263e-20)
(0.280296 0.0394098 9.13554e-21)
(0.296169 0.0436252 -3.53382e-20)
(0.312438 0.0484322 1.62408e-20)
(0.0629453 -0.0451309 -1.70539e-20)
(0.0682678 -0.0295678 7.3934e-20)
(0.0832827 -0.0196587 -5.18041e-19)
(0.095749 -0.0105473 1.57478e-19)
(0.108193 -0.00339395 -3.44321e-20)
(0.119737 0.00320516 2.59458e-19)
(0.131084 0.0083911 -4.35398e-20)
(0.142453 0.0125346 -1.17706e-19)
(0.154052 0.0158535 5.41574e-20)
(0.166095 0.0186778 -7.72012e-20)
(0.178694 0.0211788 -5.0564e-20)
(0.191977 0.0235692 -2.07875e-20)
(0.20599 0.0260579 1.1724e-20)
(0.220741 0.0288071 -3.82521e-20)
(0.236205 0.0319732 1.43427e-19)
(0.252309 0.0356643 -6.44532e-20)
(0.268956 0.039952 2.08826e-20)
(0.286013 0.0448588 -3.71784e-20)
(0.0399951 -0.0472809 -1.59399e-19)
(0.0434335 -0.0329414 -1.3133e-19)
(0.0561226 -0.0232151 2.14615e-19)
(0.0667796 -0.0140415 -7.77499e-20)
(0.0783029 -0.00696613 -1.08724e-19)
(0.0893924 -0.000443477 6.51972e-20)
(0.100417 0.0046631 2.79891e-20)
(0.111765 0.00881482 4.28421e-20)
(0.123545 0.0120603 5.6232e-20)
(0.135927 0.0148004 1.48342e-20)
(0.148961 0.0172206 -4.45919e-20)
(0.162763 0.0195447 5.39371e-20)
(0.177352 0.0219922 -1.90488e-20)
(0.19272 0.0247266 2.57126e-20)
(0.208833 0.0279083 -3.92538e-20)
(0.225609 0.0316454 2.64611e-20)
(0.242946 0.0360091 -2.11141e-21)
(0.260711 0.0410205 -3.77395e-20)
(0.0199457 -0.0484754 -1.85506e-19)
(0.0216465 -0.0354763 2.02353e-19)
(0.0319934 -0.0262008 -3.20147e-19)
(0.0408378 -0.0172814 1.18226e-19)
(0.0512098 -0.0101027 6.6566e-20)
(0.0615543 -0.00410197 4.86799e-20)
(0.072167 0.000940276 -5.46639e-20)
(0.0833797 0.00495507 1.46333e-19)
(0.0951961 0.0080783 -8.91896e-20)
(0.107793 0.0107257 -6.52351e-21)
(0.121151 0.0130431 -1.93137e-20)
(0.135367 0.0152852 -4.5008e-20)
(0.150434 0.0176832 3.78783e-20)
(0.166324 0.0203972 -2.71578e-20)
(0.182995 0.0235931 1.79612e-20)
(0.200353 0.0273763 5.87272e-21)
(0.218294 0.0318177 -1.95328e-20)
(0.236685 0.0369364 2.05944e-21)
(0.00253034 -0.0490323 1.03727e-19)
(0.00260597 -0.0371705 -2.54059e-19)
(0.0106658 -0.0285964 5.67265e-20)
(0.0177277 -0.0200909 2.14874e-19)
(0.0267926 -0.0131939 -1.59563e-19)
(0.0363174 -0.00743899 -4.12475e-20)
(0.0464595 -0.00289292 8.93573e-20)
(0.0573557 0.0010523 -6.20787e-20)
(0.0691185 0.0039226 -1.81567e-20)
(0.0818293 0.00648349 5.91932e-20)
(0.0954008 0.00867114 -7.70785e-20)
(0.109936 0.0108225 3.6472e-20)
(0.125386 0.0131629 -5.16094e-21)
(0.141705 0.0158484 3.01188e-20)
(0.158842 0.0190544 -4.83249e-20)
(0.176693 0.022882 2.24062e-20)
(0.195152 0.0274009 7.42465e-21)
(-0.0124753 -0.0493088 2.70347e-20)
(-0.0138636 -0.0381609 1.65965e-21)
(-0.00805729 -0.0304046 2.21119e-20)
(-0.00268274 -0.0223643 3.48522e-20)
(0.00512842 -0.0158246 7.53584e-21)
(0.0136347 -0.0103181 -1.14343e-19)
(0.0231975 -0.00649556 4.1156e-20)
(0.0338213 -0.00295282 -1.51842e-20)
(0.0454015 -0.000287977 1.47636e-20)
(0.0581578 0.00210039 4.03603e-20)
(0.0718402 0.00412091 -2.42381e-20)
(0.0866075 0.00618115 1.8351e-20)
(0.102348 0.00845275 -2.70463e-20)
(0.119007 0.0111093 2.71302e-20)
(0.136521 0.0143204 -2.52734e-20)
(0.154775 0.0181891 -7.18256e-21)
(0.173663 0.0227827 6.51609e-21)
(-0.025211 -0.0487493 -5.48064e-20)
(-0.0278286 -0.0386255 9.96019e-20)
(-0.0242722 -0.0316995 -4.58282e-20)
(-0.0203905 -0.0242781 -3.40072e-21)
(-0.0138987 -0.0182432 -1.50209e-20)
(-0.00647503 -0.0134392 2.33574e-20)
(0.00242435 -0.00965106 -7.37306e-20)
(0.0127436 -0.00671911 3.7095e-20)
(0.0241628 -0.00448241 -5.10781e-21)
(0.0368601 -0.00245434 -1.61754e-22)
(0.0505868 -0.000553395 -3.46434e-20)
(0.0655109 0.00138906 4.14867e-20)
(0.0814552 0.00356182 -2.37949e-20)
(0.0983668 0.00620414 4.82761e-20)
(0.116168 0.00941911 -1.06722e-20)
(0.134738 0.013325 6.9249e-21)
(0.153967 0.0179891 -2.99636e-20)
(-0.0359354 -0.0470153 3.03542e-20)
(-0.0396753 -0.0385036 5.39931e-20)
(-0.0381278 -0.0324393 3.65781e-20)
(-0.0356047 -0.0258778 -6.24714e-20)
(-0.0304226 -0.0206393 -4.75221e-20)
(-0.0238859 -0.0165383 7.02333e-20)
(-0.0155955 -0.012944 -1.98394e-20)
(-0.00582001 -0.0104617 -5.40854e-21)
(0.00534895 -0.00850655 -3.94864e-21)
(0.0180276 -0.00690831 5.77437e-21)
(0.0317719 -0.00522705 3.00785e-20)
(0.0467515 -0.00349137 -6.48232e-21)
(0.062828 -0.00145188 -1.44544e-20)
(0.0799166 0.00115756 -2.00234e-20)
(0.0979144 0.00437196 4.66487e-21)
(0.11671 0.00831225 1.79817e-21)
(0.136191 0.0130463 2.51407e-20)
(-0.044774 -0.0446947 -9.41689e-20)
(-0.0495349 -0.0378115 9.07739e-20)
(-0.0497039 -0.0326264 -5.53722e-20)
(-0.0484034 -0.0270833 7.93696e-20)
(-0.0444075 -0.0227088 -4.7129e-20)
(-0.0386917 -0.0192393 -1.40265e-21)
(-0.0310277 -0.0163255 -1.38105e-20)
(-0.0216893 -0.0143873 3.89903e-20)
(-0.010771 -0.0125755 -5.50107e-20)
(0.00172441 -0.0112814 1.79825e-20)
(0.0154231 -0.00990915 2.60962e-21)
(0.0304144 -0.0084155 2.22826e-21)
(0.0465696 -0.00648132 2.78846e-21)
(0.0637637 -0.00397018 1.28904e-20)
(0.0818766 -0.000799893 -1.9654e-21)
(0.100813 0.00316871 -1.19688e-20)
(0.120458 0.00797512 3.92414e-21)
(-0.0518465 -0.0419188 -5.00206e-20)
(-0.057477 -0.0365737 6.14598e-21)
(-0.0590794 -0.0323518 -3.75114e-20)
(-0.0588474 -0.0279252 1.81395e-21)
(-0.0558716 -0.0244661 -4.93028e-20)
(-0.0508928 -0.0217401 7.78817e-20)
(-0.0438146 -0.0195562 -2.5342e-20)
(-0.034881 -0.0181137 1.66861e-20)
(-0.024221 -0.0167869 -3.26663e-21)
(-0.0119289 -0.0158172 -9.53233e-21)
(0.00167063 -0.014677 -3.95812e-21)
(0.0166236 -0.0133931 7.80754e-21)
(0.0327857 -0.0115537 -1.6466e-20)
(0.0499931 -0.00914957 1.71024e-20)
(0.0681514 -0.00602473 -2.08713e-21)
(0.0871562 -0.00205283 1.00881e-21)
(0.10688 0.00279522 -2.28245e-21)
(-0.0572415 -0.03873 2.86036e-20)
(-0.0635677 -0.034858 3.71438e-20)
(-0.0663166 -0.0316867 -4.0104e-21)
(-0.0669649 -0.0284375 -1.76075e-20)
(-0.0648379 -0.0259462 -8.13009e-21)
(-0.0604937 -0.0240698 7.80629e-21)
(-0.0539223 -0.0226389 1.11396e-20)
(-0.0453595 -0.0217536 -1.70484e-20)
(-0.0349631 -0.0209496 -2.14872e-21)
(-0.0228724 -0.0203502 7.11292e-21)
(-0.00940635 -0.0195094 -9.05566e-21)
(0.00545331 -0.0183587 2.25606e-21)
(0.0215638 -0.0167013 1.60561e-20)
(0.0387167 -0.0143827 -1.70309e-20)
(0.0568411 -0.0112797 1.29758e-20)
(0.0758241 -0.00731307 3.81087e-22)
(0.0955469 -0.00243894 -1.76223e-21)
(-0.0610156 -0.0352147 -3.18491e-20)
(-0.0678547 -0.032755 1.62761e-20)
(-0.07146 -0.030699 -1.94777e-20)
(-0.0727882 -0.028668 2.77332e-20)
(-0.0713215 -0.0272161 -1.43484e-20)
(-0.067487 -0.0262403 5.07609e-21)
(-0.0613342 -0.0256067 -1.6021e-20)
(-0.053093 -0.0253247 1.21037e-20)
(-0.0429425 -0.0250502 -4.47628e-21)
(-0.0310649 -0.024836 2.63928e-21)
(-0.0177348 -0.0243248 -8.72743e-21)
(-0.00301375 -0.0233281 1.67789e-20)
(0.0129629 -0.0218608 -1.1009e-20)
(0.0300098 -0.0196354 1.55027e-21)
(0.0480267 -0.016576 3.35719e-21)
(0.0669086 -0.0126117 -1.969e-21)
(0.0865435 -0.00770056 -5.06738e-21)
(-0.0632028 -0.0314609 -8.39887e-21)
(-0.0703671 -0.0303596 5.82359e-21)
(-0.0745385 -0.0294604 7.24727e-21)
(-0.0763359 -0.0286714 -7.3002e-21)
(-0.0753317 -0.0283015 4.12388e-23)
(-0.0718706 -0.0282655 9.6126e-21)
(-0.0660326 -0.0284425 -5.70202e-21)
(-0.0580468 -0.0288096 3.02261e-21)
(-0.0481208 -0.0290722 1.19715e-21)
(-0.036449 -0.0292706 -4.96565e-22)
(-0.0232802 -0.029057 -3.13567e-21)
(-0.00873802 -0.0283381 3.4335e-21)
(0.00705796 -0.0269829 -2.70747e-21)
(0.0239347 -0.0248788 3.26573e-21)
(0.0417727 -0.0218761 -1.52248e-21)
(0.0604766 -0.0179254 1.29666e-21)
(0.079941 -0.0129891 -6.93702e-22)
(-0.0638224 -0.0275497 -1.65696e-21)
(-0.071121 -0.0277668 7.3464e-22)
(-0.075568 -0.028043 -1.13376e-21)
(-0.0776158 -0.0285066 -4.48656e-22)
(-0.0768701 -0.0292395 3.21276e-21)
(-0.0736293 -0.0301654 -1.88696e-21)
(-0.0680037 -0.0311543 -6.22316e-22)
(-0.0602096 -0.0322054 1.31307e-21)
(-0.0504707 -0.0330147 -2.35631e-22)
(-0.0389936 -0.0336375 -5.06879e-22)
(-0.0260117 -0.033735 1.66022e-22)
(-0.0116717 -0.0332906 1.46167e-21)
(0.00389956 -0.0320609 -8.91082e-22)
(0.0205317 -0.0300858 -2.00002e-22)
(0.0381281 -0.0271499 -8.4855e-24)
(0.0565798 -0.0232225 -3.9998e-22)
(0.0757943 -0.0182729 4.83785e-22)
)
;

boundaryField
{
    inlet
    {
        type            uniformFixedValue;
        uniformValue    constant (1 0 0);
        value           nonuniform 0();
    }
    outlet
    {
        type            pressureInletOutletVelocity;
        value           nonuniform 0();
    }
    cylinder
    {
        type            fixedValue;
        value           nonuniform 0();
    }
    top
    {
        type            symmetryPlane;
    }
    bottom
    {
        type            symmetryPlane;
    }
    defaultFaces
    {
        type            empty;
    }
    procBoundary16to9
    {
        type            processor;
        value           nonuniform List<vector> 9((0.0637777 -0.0289142 -6.58523e-21) (0.0316785 -0.0360432 2.00554e-18) (0.0316785 -0.0360432 2.00554e-18) (0.00792707 -0.0434107 1.76018e-18) (0.00792707 -0.0434107 1.76018e-18) (-0.00862098 -0.0495078 -2.68423e-19) (-0.00862098 -0.0495078 -2.68423e-19) (-0.0203901 -0.0534762 -3.11317e-19) (-0.0203901 -0.0534762 -3.11317e-19));
    }
    procBoundary16to10
    {
        type            processor;
        value           nonuniform List<vector> 
25
(
(0.0791273 -0.0266743 -1.25223e-19)
(0.0712863 -0.029425 4.19552e-19)
(0.0712863 -0.029425 4.19552e-19)
(0.0867605 -0.0279621 2.37717e-19)
(0.0769732 -0.0329083 -2.82258e-19)
(0.0769732 -0.0329083 -2.82258e-19)
(0.0913416 -0.0337311 1.068e-19)
(0.118802 -0.0382487 -1.58081e-19)
(0.128661 -0.0207934 1.4175e-19)
(0.147903 -0.0112518 -9.0329e-20)
(0.162887 -0.00333084 1.61126e-19)
(0.176244 0.0043529 -2.87017e-19)
(0.188237 0.01046 1.39112e-19)
(0.199451 0.0153434 -3.85179e-20)
(0.210269 0.0193938 9.49024e-20)
(0.221007 0.0227698 1.11857e-21)
(0.231962 0.0256776 4.23873e-20)
(0.243318 0.0282872 -3.81707e-21)
(0.255231 0.0307786 -1.8611e-19)
(0.267785 0.0333364 1.38923e-19)
(0.281013 0.0361125 -4.73536e-20)
(0.294907 0.0392521 -1.20365e-20)
(0.309408 0.042861 2.95132e-21)
(0.324425 0.0470099 -1.15463e-20)
(0.339831 0.0517237 7.82424e-20)
)
;
    }
    procBoundary16to15
    {
        type            processor;
        value           nonuniform List<vector> 
17
(
(-0.0294165 -0.0571658 3.37684e-19)
(-0.0294165 -0.0571658 3.37684e-19)
(-0.0318555 -0.0623556 -7.25045e-20)
(-0.0318555 -0.0623556 -7.25045e-20)
(-0.0270273 -0.0610885 8.90361e-19)
(-0.0295004 -0.0519772 -6.9427e-20)
(-0.0295004 -0.0519772 -6.9427e-20)
(-0.0401341 -0.0473703 9.3744e-20)
(-0.0407809 -0.0624801 3.6082e-20)
(-0.0407809 -0.0624801 3.6082e-20)
(-0.0167547 -0.0735694 1.72882e-19)
(-0.000615776 -0.0469428 9.05285e-20)
(-0.000615776 -0.0469428 9.05285e-20)
(-0.00669704 -0.0120076 -5.13491e-20)
(-0.0385904 -0.0249361 -2.20964e-20)
(-0.02978 -0.0560943 4.88732e-21)
(-0.00327709 -0.0440034 2.79291e-21)
)
;
    }
    procBoundary16to17
    {
        type            processor;
        value           nonuniform List<vector> 
15
(
(0.328947 0.0538026 -1.39871e-20)
(0.303322 0.0503546 -2.40228e-20)
(0.278746 0.0466472 2.7609e-21)
(0.255367 0.0426977 9.24295e-21)
(0.214083 0.0326274 1.30016e-20)
(0.214083 0.0326274 1.30016e-20)
(0.193048 0.028116 2.76337e-21)
(0.173719 0.0234255 8.97163e-21)
(0.156223 0.0185801 -9.88545e-21)
(0.14068 0.013605 7.40369e-24)
(0.127202 0.00852445 5.20021e-21)
(0.115888 0.00336388 -6.61946e-21)
(0.106817 -0.00184818 7.74855e-22)
(0.100061 -0.00708482 -1.90642e-21)
(0.0956774 -0.0123226 3.10549e-23)
)
;
    }
    procBoundary16to21
    {
        type            processor;
        value           uniform (-0.00222234 -0.00749408 -4.02922e-21);
    }
    procBoundary16to22
    {
        type            processor;
        value           nonuniform List<vector> 
33
(
(-0.022408 -0.00578197 3.15862e-21)
(-0.0220811 -0.0104727 -2.41103e-22)
(-0.0227196 -0.0133936 2.38186e-21)
(-0.0241027 -0.0151034 1.73847e-21)
(-0.0260306 -0.0160461 1.10128e-21)
(-0.0283397 -0.0165304 1.95192e-22)
(-0.0309086 -0.0167598 -1.57458e-22)
(-0.0384963 -0.0219069 2.48002e-21)
(-0.033649 -0.016861 3.37245e-22)
(-0.0384963 -0.0219069 2.48002e-21)
(-0.041579 -0.021875 -3.59863e-21)
(-0.044654 -0.0218321 6.24727e-22)
(-0.0477136 -0.0217934 3.51979e-22)
(-0.050751 -0.0218146 1.19827e-22)
(-0.0537311 -0.0220334 -1.89389e-21)
(-0.0567177 -0.0223575 3.30789e-21)
(-0.0628819 -0.0235645 9.71132e-22)
(-0.070121 -0.0250751 -6.13912e-22)
(-0.0745535 -0.0265201 6.94725e-22)
(-0.0766292 -0.0282347 -1.21526e-23)
(-0.0759355 -0.0300754 -1.81446e-21)
(-0.072761 -0.031968 1.4817e-21)
(-0.0672386 -0.0337805 8.60107e-23)
(-0.0595647 -0.0355139 -1.17464e-21)
(-0.0499743 -0.036869 4.80546e-22)
(-0.0386797 -0.0379213 6.15046e-22)
(-0.0258985 -0.0383362 -4.33824e-23)
(-0.0117942 -0.0381442 -4.65698e-22)
(0.00350765 -0.037087 4.7169e-22)
(0.0198377 -0.0352311 -3.66728e-22)
(0.037126 -0.0323684 -1.71626e-23)
(0.0552533 -0.0284731 3.26995e-22)
(0.0741408 -0.023522 -7.18388e-22)
)
;
    }
}


// ************************************************************************* //
