/*--------------------------------*- C++ -*----------------------------------*\
  =========                 |
  \\      /  F ield         | OpenFOAM: The Open Source CFD Toolbox
   \\    /   O peration     | Website:  https://openfoam.org
    \\  /    A nd           | Version:  7
     \\/     M anipulation  |
\*---------------------------------------------------------------------------*/
FoamFile
{
    version     2.0;
    format      ascii;
    class       volScalarField;
    location    "62.00019";
    object      p;
}
// * * * * * * * * * * * * * * * * * * * * * * * * * * * * * * * * * * * * * //

dimensions      [0 2 -2 0 0 0 0];

internalField   nonuniform List<scalar> 
5800
(
-0.287761
-0.291951
-0.294402
-0.295753
-0.296313
-0.296051
-0.294977
-0.293116
-0.290483
-0.287094
0.821318
0.782293
0.754638
0.732057
0.710977
0.690729
0.670472
0.649507
0.627489
0.604349
0.580216
0.821318
0.782293
0.754638
0.732057
0.710977
0.690729
0.670472
0.649507
0.627489
0.604349
0.580216
0.555348
0.530055
0.504656
0.479446
0.454677
0.430554
0.407237
0.384858
0.363483
0.816791
0.777945
0.750439
0.728017
0.707121
0.687083
0.667055
0.646331
0.624557
0.601658
0.577757
0.553106
0.528016
0.502805
0.477766
0.453154
0.429175
0.405987
0.383718
0.362468
0.80777
0.769283
0.742074
0.719966
0.699438
0.679817
0.660244
0.639999
0.618712
0.596292
0.572851
0.548635
0.523949
0.499112
0.474415
0.450116
0.426423
0.403493
0.381444
0.360442
0.794323
0.756373
0.729606
0.707965
0.687984
0.668982
0.650086
0.630554
0.609991
0.588283
0.565529
0.54196
0.517878
0.493597
0.469411
0.445578
0.422312
0.399767
0.378046
0.357413
0.776551
0.739312
0.713129
0.692103
0.672842
0.654656
0.636651
0.618057
0.598448
0.577682
0.555833
0.53312
0.509835
0.48629
0.462779
0.439563
0.416862
0.394827
0.373542
0.353395
0.754586
0.718229
0.692768
0.6725
0.654123
0.636939
0.620029
0.60259
0.584156
0.564551
0.54382
0.522164
0.499865
0.47723
0.454554
0.432102
0.410101
0.388698
0.367951
0.348403
0.728594
0.693283
0.668676
0.649302
0.631964
0.615957
0.600334
0.584254
0.567206
0.54897
0.529561
0.509155
0.488022
0.466465
0.444779
0.423232
0.402061
0.381408
0.361301
0.342459
0.698767
0.664662
0.641035
0.62268
0.606526
0.591858
0.577701
0.56317
0.547703
0.531034
0.513137
0.494166
0.474372
0.454053
0.433504
0.412998
0.392781
0.372992
0.353622
0.335585
0.665327
0.632581
0.610052
0.592833
0.577993
0.564811
0.552282
0.539474
0.52577
0.51085
0.494646
0.47728
0.458988
0.440059
0.420787
0.40145
0.382305
0.363489
0.344948
0.327808
0.628521
0.597279
0.575959
0.559981
0.546573
0.535007
0.52425
0.513322
0.501544
0.488539
0.474193
0.458592
0.441953
0.424556
0.406693
0.388645
0.370684
0.352943
0.335319
0.319157
0.588619
0.559018
0.539009
0.524366
0.512491
0.502654
0.493794
0.484882
0.475175
0.464236
0.451897
0.438207
0.42336
0.407624
0.391291
0.374646
0.357972
0.341401
0.324774
0.309663
0.545913
0.518081
0.499475
0.486249
0.475992
0.467978
0.461119
0.454338
0.446828
0.438084
0.427884
0.416236
0.403306
0.389352
0.37466
0.359519
0.344226
0.328914
0.313357
0.299356
0.500714
0.474769
0.457648
0.445907
0.437337
0.431219
0.426445
0.421888
0.416678
0.41024
0.402293
0.3928
0.381899
0.369833
0.356881
0.343337
0.32951
0.315536
0.301115
0.288268
0.453346
0.429396
0.413832
0.403631
0.396801
0.392633
0.390002
0.38774
0.384909
0.380866
0.375267
0.368027
0.359252
0.349165
0.338042
0.326176
0.313889
0.301325
0.288094
0.27643
0.404149
0.382289
0.368344
0.359726
0.354669
0.352483
0.352033
0.352111
0.351717
0.350137
0.346961
0.342052
0.335482
0.327454
0.318234
0.308116
0.297434
0.286339
0.274345
0.26387
0.35347
0.333784
0.321509
0.314502
0.311236
0.311043
0.312788
0.315229
0.317304
0.31823
0.31753
0.315014
0.310712
0.304807
0.297554
0.289241
0.280217
0.270642
0.25992
0.250614
0.301663
0.284223
0.273658
0.268278
0.266802
0.268595
0.272525
0.277326
0.281879
0.285332
0.287141
0.287057
0.285071
0.281337
0.276099
0.26964
0.262315
0.254304
0.244882
0.236671
0.249086
0.23395
0.225124
0.221373
0.221672
0.225422
0.231505
0.238638
0.245653
0.251631
0.255959
0.258329
0.258687
0.25716
0.253973
0.249403
0.243809
0.237397
0.229293
0.222019
0.196094
0.183309
0.176238
0.174109
0.17615
0.181809
0.189992
0.199407
0.208844
0.21732
0.224155
0.228981
0.231696
0.232393
0.231282
0.228625
0.22478
0.219985
0.213211
0.206637
0.143041
0.132637
0.127331
0.126801
0.130538
0.138041
0.14825
0.159874
0.171668
0.182592
0.191901
0.199165
0.20423
0.207156
0.20813
0.207404
0.205313
0.202136
0.196881
0.19075
0.090272
0.0822666
0.078722
0.0797603
0.0851351
0.0944004
0.10654
0.120278
0.134342
0.147643
0.159371
0.169033
0.176426
0.181568
0.184627
0.185842
0.185518
0.184017
0.181208
0.176657
0.0381246
0.0325187
0.0307235
0.0332887
0.040229
0.0511604
0.0651202
0.0808557
0.097082
0.112664
0.126735
0.138739
0.148417
0.155747
0.160873
0.164023
0.165467
0.165556
0.164721
0.162224
-0.0130728
-0.0163028
-0.0163682
-0.0123253
-0.00390104
0.00858731
0.0242397
0.0418396
0.060099
0.0778475
0.0941632
0.108431
0.120335
0.129811
0.13697
0.14203
0.145231
0.146867
0.147643
0.147207
-0.0630109
-0.0639084
-0.0622736
-0.0568083
-0.0469898
-0.0330642
-0.0158601
0.00345445
0.0235994
0.0433791
0.0618234
0.0782588
0.0923135
0.103875
0.113021
0.119952
0.124892
0.128085
0.13034
0.131657
-0.111495
-0.10997
-0.106723
-0.0999045
-0.0887883
-0.0735528
-0.054949
-0.034084
-0.0122172
0.00944049
0.0298781
0.0483673
0.0644796
0.0780527
0.0891285
0.097884
0.104531
0.109285
0.112981
0.115811
-0.158127
-0.154329
-0.149478
-0.141376
-0.129067
-0.112653
-0.0928107
-0.0705703
-0.0471599
-0.0237935
-0.00151459
0.0188977
0.0369593
0.052457
0.0653923
0.0759162
0.0842271
0.0905231
0.0956298
0.0998687
-0.202714
-0.196717
-0.190321
-0.181008
-0.167609
-0.150164
-0.129246
-0.105812
-0.0810473
-0.0561557
-0.0322031
-0.0100139
0.00987417
0.0271958
0.0419097
0.0541368
0.0640607
0.0718635
0.0783435
0.0839299
-0.245051
-0.236931
-0.229056
-0.218612
-0.204232
-0.185891
-0.164068
-0.139636
-0.11371
-0.0874886
-0.0620431
-0.038237
-0.016659
0.00237336
0.0187739
0.0326302
0.0441083
0.0533745
0.0611862
0.0680644
-0.284951
-0.274799
-0.265519
-0.254024
-0.238772
-0.219673
-0.197114
-0.17187
-0.144996
-0.117646
-0.0908983
-0.0656481
-0.0425292
-0.0219109
-0.00392606
0.0114766
0.0244422
0.0351209
0.0442189
0.0523352
-0.322254
-0.310176
-0.29957
-0.287108
-0.271089
-0.25137
-0.228241
-0.202378
-0.174759
-0.14649
-0.118643
-0.0921312
-0.0676316
-0.045563
-0.026106
-0.00924881
0.00513002
0.0171628
0.0274966
0.0367982
-0.356833
-0.342947
-0.3311
-0.317753
-0.301073
-0.280865
-0.257328
-0.231034
-0.202875
-0.1739
-0.14516
-0.117579
-0.0918683
-0.0684952
-0.0476876
-0.0294757
-0.0137655
-0.000444214
0.0110697
0.0215026
-0.388591
-0.373025
-0.360026
-0.34588
-0.328639
-0.308067
-0.284276
-0.257732
-0.229236
-0.199768
-0.170345
-0.141893
-0.11515
-0.0906258
-0.0685978
-0.0491392
-0.0321868
-0.0176488
-0.00501719
0.00649306
-0.417459
-0.400352
-0.386296
-0.371435
-0.35373
-0.332911
-0.30901
-0.28239
-0.253751
-0.223999
-0.194105
-0.164984
-0.137393
-0.111881
-0.0887705
-0.0681793
-0.0500814
-0.0344026
-0.0207258
-0.00818927
-0.443403
-0.424901
-0.409886
-0.394394
-0.376316
-0.35536
-0.331481
-0.304945
-0.27635
-0.246517
-0.216361
-0.186775
-0.158526
-0.132193
-0.108145
-0.0865453
-0.0674006
-0.0506595
-0.0360218
-0.0225077
-0.466414
-0.446671
-0.4308
-0.41476
-0.396395
-0.375399
-0.351664
-0.325359
-0.296981
-0.267261
-0.237047
-0.207198
-0.178482
-0.151502
-0.126667
-0.104186
-0.0841054
-0.0664046
-0.0508222
-0.0364629
-0.486514
-0.465688
-0.449067
-0.432561
-0.41399
-0.393044
-0.369559
-0.343616
-0.315614
-0.286187
-0.25611
-0.226198
-0.197207
-0.169756
-0.144289
-0.121058
-0.100154
-0.081583
-0.0651401
-0.0501389
-0.503749
-0.482005
-0.464741
-0.44785
-0.429147
-0.408329
-0.385187
-0.359722
-0.332237
-0.30327
-0.273515
-0.243732
-0.214654
-0.186909
-0.160968
-0.137126
-0.115514
-0.0961704
-0.0789487
-0.0632659
-0.518193
-0.495697
-0.477899
-0.460703
-0.441938
-0.421316
-0.398594
-0.373705
-0.346861
-0.318503
-0.28924
-0.259768
-0.230789
-0.202925
-0.176671
-0.152357
-0.130157
-0.110141
-0.0922219
-0.0759
-0.529941
-0.506859
-0.488637
-0.471214
-0.452453
-0.432085
-0.409848
-0.385614
-0.359514
-0.331896
-0.303279
-0.27429
-0.245584
-0.217775
-0.191367
-0.166724
-0.144059
-0.123473
-0.104943
-0.0880669
-0.539107
-0.515606
-0.497069
-0.479497
-0.460799
-0.440737
-0.419034
-0.395519
-0.370247
-0.343479
-0.315643
-0.287291
-0.259026
-0.231438
-0.205035
-0.180206
-0.1572
-0.136151
-0.117096
-0.0997492
-0.545825
-0.522067
-0.503325
-0.485679
-0.4671
-0.447386
-0.426257
-0.403507
-0.379127
-0.353296
-0.326356
-0.29878
-0.27111
-0.243902
-0.217659
-0.192786
-0.169565
-0.14816
-0.128667
-0.11093
-0.550243
-0.526386
-0.507545
-0.489901
-0.471494
-0.452163
-0.431635
-0.40968
-0.386236
-0.361411
-0.335461
-0.308779
-0.281842
-0.255162
-0.229227
-0.204451
-0.181142
-0.159491
-0.139646
-0.121601
-0.552518
-0.528717
-0.509881
-0.49231
-0.474125
-0.455208
-0.4353
-0.414156
-0.391676
-0.367902
-0.343014
-0.317324
-0.29124
-0.265225
-0.239738
-0.215196
-0.191922
-0.170135
-0.150027
-0.13176
-0.55282
-0.529218
-0.51049
-0.493061
-0.475147
-0.456669
-0.437391
-0.417064
-0.395558
-0.372861
-0.349084
-0.324463
-0.299334
-0.274102
-0.249195
-0.225016
-0.201903
-0.180089
-0.159807
-0.141404
-0.551322
-0.528057
-0.509531
-0.492314
-0.474716
-0.456699
-0.438056
-0.418541
-0.398005
-0.376393
-0.353756
-0.330257
-0.306163
-0.281819
-0.257608
-0.233916
-0.211082
-0.189352
-0.168984
-0.150538
-0.548201
-0.525398
-0.507166
-0.490227
-0.472988
-0.455454
-0.437446
-0.418731
-0.399149
-0.378613
-0.357123
-0.33478
-0.31178
-0.288406
-0.264995
-0.241902
-0.219463
-0.197925
-0.177561
-0.159171
-0.543635
-0.521409
-0.503557
-0.486958
-0.47012
-0.453087
-0.435712
-0.417779
-0.399126
-0.379644
-0.359292
-0.338114
-0.316246
-0.293906
-0.27138
-0.248988
-0.22705
-0.205811
-0.185543
-0.167317
-0.537798
-0.516252
-0.498858
-0.482659
-0.466263
-0.44975
-0.433004
-0.415832
-0.398075
-0.379613
-0.360374
-0.340354
-0.319633
-0.29837
-0.276796
-0.255192
-0.233855
-0.213017
-0.192936
-0.174997
-0.530861
-0.510085
-0.493221
-0.477477
-0.461562
-0.445587
-0.429467
-0.413033
-0.396137
-0.378653
-0.360488
-0.3416
-0.322021
-0.301856
-0.281283
-0.260537
-0.239888
-0.219551
-0.199748
-0.182236
-0.522987
-0.50306
-0.486789
-0.471552
-0.456155
-0.440736
-0.425239
-0.409521
-0.393447
-0.376894
-0.359754
-0.341959
-0.3235
-0.304432
-0.284886
-0.265051
-0.245167
-0.225422
-0.20599
-0.189068
-0.514333
-0.495319
-0.479698
-0.465014
-0.45017
-0.435325
-0.42045
-0.405426
-0.390137
-0.374464
-0.358294
-0.341541
-0.324161
-0.306173
-0.28766
-0.268769
-0.249708
-0.230641
-0.211669
-0.195532
-0.505043
-0.486994
-0.472071
-0.457984
-0.443725
-0.429472
-0.415219
-0.400871
-0.38633
-0.371486
-0.356227
-0.340455
-0.324104
-0.307159
-0.289664
-0.271729
-0.253534
-0.235217
-0.216792
-0.201665
-0.49525
-0.478209
-0.464024
-0.45057
-0.436927
-0.423284
-0.409654
-0.395966
-0.38214
-0.368076
-0.353668
-0.338812
-0.323427
-0.307473
-0.290963
-0.273975
-0.256666
-0.239156
-0.221361
-0.207502
-0.485079
-0.469074
-0.45566
-0.442872
-0.429872
-0.416854
-0.403852
-0.390811
-0.377669
-0.36434
-0.350723
-0.336716
-0.322228
-0.307202
-0.291627
-0.275555
-0.259127
-0.242461
-0.225367
-0.213056
-0.474637
-0.459689
-0.447071
-0.434976
-0.422642
-0.410267
-0.397895
-0.385492
-0.373008
-0.360372
-0.347491
-0.334266
-0.320604
-0.306433
-0.291728
-0.27652
-0.260943
-0.245125
-0.228786
-0.218297
-0.464022
-0.450142
-0.43834
-0.426959
-0.415311
-0.403592
-0.391857
-0.380083
-0.368236
-0.356255
-0.344059
-0.331553
-0.318643
-0.305252
-0.29134
-0.276925
-0.26214
-0.247138
-0.231575
-0.223107
-0.45332
-0.44051
-0.429536
-0.418886
-0.40794
-0.39689
-0.385795
-0.374646
-0.363417
-0.35206
-0.340503
-0.328657
-0.31643
-0.303741
-0.290539
-0.276832
-0.262748
-0.248477
-0.233668
-0.227211
-0.442602
-0.430861
-0.420722
-0.410814
-0.400582
-0.39021
-0.379759
-0.369229
-0.358604
-0.347844
-0.336885
-0.325646
-0.314037
-0.301976
-0.289401
-0.276303
-0.262804
-0.249128
-0.235018
-0.230144
-0.431933
-0.421253
-0.41195
-0.402791
-0.393281
-0.383592
-0.373788
-0.363873
-0.353839
-0.343652
-0.333257
-0.322578
-0.311531
-0.300027
-0.287997
-0.27541
-0.262351
-0.249077
-0.23559
-0.231112
-0.421366
-0.411734
-0.403265
-0.394856
-0.386072
-0.377069
-0.367911
-0.358607
-0.349151
-0.339517
-0.329657
-0.3195
-0.308963
-0.297957
-0.2864
-0.274229
-0.261448
-0.248296
-0.234768
-0.226667
-0.410945
-0.402346
-0.394704
-0.387045
-0.378984
-0.370667
-0.362152
-0.353451
-0.344563
-0.335465
-0.326113
-0.316444
-0.306376
-0.29582
-0.284679
-0.272852
-0.260229
-0.246957
-0.231865
-0.204755
-0.40071
-0.393127
-0.386302
-0.379384
-0.372042
-0.364406
-0.356528
-0.348422
-0.340089
-0.33151
-0.322645
-0.313435
-0.303804
-0.29366
-0.282899
-0.271397
-0.258942
-0.2457
-0.231275
-0.197719
-0.390696
-0.384109
-0.378088
-0.371901
-0.365268
-0.358302
-0.351052
-0.34353
-0.335739
-0.327662
-0.319263
-0.310489
-0.301267
-0.291508
-0.281108
-0.269939
-0.257753
-0.24479
-0.231764
-0.198385
-0.380934
-0.375322
-0.370088
-0.364619
-0.35868
-0.352371
-0.345735
-0.338783
-0.331519
-0.323926
-0.315975
-0.307614
-0.298778
-0.289382
-0.279329
-0.268497
-0.256643
-0.24406
-0.23197
-0.199716
-0.371455
-0.366795
-0.362329
-0.357558
-0.352297
-0.346627
-0.340587
-0.334188
-0.327432
-0.320306
-0.312781
-0.304814
-0.296343
-0.287291
-0.277569
-0.267068
-0.255561
-0.243381
-0.231812
-0.201041
-0.362289
-0.358555
-0.354835
-0.350742
-0.346135
-0.341084
-0.335618
-0.329751
-0.323483
-0.316803
-0.309686
-0.302091
-0.293965
-0.285239
-0.275833
-0.265651
-0.25449
-0.242726
-0.231508
-0.202569
-0.353467
-0.350633
-0.347633
-0.344192
-0.340215
-0.335756
-0.330841
-0.325481
-0.319678
-0.313421
-0.30669
-0.299447
-0.291647
-0.283228
-0.274124
-0.26425
-0.253434
-0.242088
-0.231145
-0.20427
-0.345023
-0.343057
-0.34075
-0.337933
-0.334556
-0.33066
-0.326268
-0.321388
-0.316024
-0.310167
-0.303798
-0.296887
-0.289392
-0.281264
-0.272446
-0.26287
-0.252393
-0.241458
-0.230749
-0.206048
-0.336994
-0.335862
-0.334216
-0.331991
-0.329182
-0.325817
-0.321915
-0.317487
-0.312534
-0.30705
-0.301019
-0.294416
-0.287208
-0.279352
-0.270807
-0.261517
-0.251374
-0.240832
-0.230343
-0.207836
-0.329418
-0.329081
-0.328059
-0.326392
-0.324115
-0.321247
-0.317802
-0.313792
-0.309221
-0.304082
-0.298364
-0.292046
-0.285103
-0.277503
-0.269215
-0.260199
-0.250383
-0.240213
-0.22995
-0.209587
-0.322337
-0.322749
-0.322315
-0.321166
-0.319383
-0.316973
-0.31395
-0.310325
-0.306102
-0.30128
-0.295848
-0.289792
-0.283093
-0.27573
-0.267683
-0.258929
-0.249427
-0.239606
-0.229582
-0.21126
-0.315794
-0.316906
-0.317015
-0.316344
-0.315013
-0.313022
-0.310382
-0.307106
-0.3032
-0.298663
-0.29349
-0.287671
-0.281195
-0.274048
-0.266225
-0.257718
-0.248516
-0.239019
-0.229247
-0.212822
-0.309833
-0.311588
-0.312193
-0.311956
-0.311034
-0.30942
-0.307124
-0.30416
-0.300536
-0.296254
-0.291312
-0.285704
-0.279428
-0.272478
-0.264861
-0.256583
-0.247661
-0.23846
-0.228949
-0.214246
-0.304498
-0.306834
-0.307884
-0.308033
-0.307474
-0.306194
-0.3042
-0.301511
-0.298135
-0.294076
-0.289335
-0.283914
-0.277814
-0.27104
-0.263608
-0.25554
-0.246875
-0.237938
-0.228689
-0.215513
-0.299832
-0.30268
-0.304119
-0.304606
-0.304362
-0.303369
-0.301637
-0.299184
-0.29602
-0.292152
-0.287586
-0.282325
-0.276377
-0.269756
-0.262487
-0.254606
-0.24617
-0.237465
-0.228467
-0.216611
-0.295875
-0.29916
-0.30093
-0.301701
-0.301723
-0.300972
-0.299458
-0.297202
-0.294215
-0.290507
-0.286085
-0.280958
-0.275138
-0.268646
-0.261516
-0.253796
-0.245558
-0.23705
-0.228283
-0.292662
-0.296304
-0.298343
-0.299345
-0.29958
-0.299024
-0.297686
-0.295588
-0.292743
-0.289162
-0.284856
-0.279836
-0.274119
-0.267732
-0.260716
-0.253128
-0.245051
-0.236704
-0.228136
-0.290224
-0.294138
-0.296382
-0.297558
-0.297955
-0.297546
-0.296339
-0.294359
-0.291621
-0.288136
-0.283916
-0.278977
-0.273338
-0.26703
-0.2601
-0.252613
-0.244661
-0.236435
-0.228026
-0.288585
-0.292682
-0.295064
-0.296357
-0.296862
-0.296551
-0.295433
-0.293532
-0.290864
-0.287443
-0.283281
-0.278395
-0.272808
-0.266553
-0.259682
-0.252264
-0.244396
-0.236252
-0.227953
-0.287761
-0.291951
-0.294402
-0.295753
-0.296313
-0.296051
-0.294977
-0.293116
-0.290483
-0.287094
-0.282961
-0.278102
-0.272541
-0.266313
-0.259471
-0.252087
-0.244262
-0.236158
-0.227917
0.176917
0.181005
0.188598
0.197219
0.206364
0.213576
0.219068
0.218979
0.217165
0.203707
0.17845
0.182644
0.190549
0.19966
0.209553
0.217824
0.224747
0.226622
0.226924
0.217419
0.179879
0.184121
0.192216
0.201661
0.212117
0.221238
0.22939
0.233016
0.235314
0.229191
0.181277
0.185559
0.19386
0.20366
0.214713
0.224731
0.234148
0.239582
0.243901
0.240939
0.182615
0.186954
0.195466
0.205629
0.217273
0.228179
0.238815
0.246005
0.252246
0.252181
0.183885
0.188295
0.197004
0.20751
0.219713
0.231462
0.243238
0.252092
0.260149
0.262773
0.185086
0.189571
0.198464
0.209296
0.222023
0.234573
0.247417
0.257846
0.267635
0.272766
0.186215
0.190697
0.199844
0.210985
0.224205
0.237514
0.251358
0.263269
0.274702
0.282164
0.187271
0.191838
0.201138
0.212572
0.226252
0.240273
0.255049
0.268341
0.281325
0.290949
0.188252
0.192885
0.20234
0.214049
0.228155
0.242841
0.258478
0.273047
0.28748
0.299103
0.189153
0.193841
0.203448
0.215413
0.229908
0.245206
0.261634
0.277373
0.293147
0.306605
0.189971
0.194711
0.204457
0.216657
0.231505
0.247362
0.264507
0.281306
0.298306
0.313432
0.190705
0.195494
0.205363
0.217776
0.23294
0.249299
0.267088
0.284834
0.302939
0.319563
0.191351
0.196184
0.206167
0.218767
0.234208
0.25101
0.269368
0.287946
0.307029
0.324976
0.191909
0.19678
0.20687
0.219626
0.235304
0.252489
0.271337
0.290632
0.310563
0.329653
0.192377
0.197279
0.207387
0.220347
0.236224
0.25373
0.27299
0.292885
0.313526
0.333577
0.192753
0.197682
0.207888
0.220928
0.236964
0.254729
0.27432
0.294696
0.31591
0.336733
0.193036
0.197987
0.208242
0.221364
0.237522
0.255481
0.275322
0.296059
0.317706
0.33911
0.193225
0.19819
0.208478
0.221655
0.237895
0.255985
0.275992
0.296971
0.318906
0.3407
0.19332
0.198292
0.208597
0.221801
0.238082
0.256237
0.276327
0.297427
0.319508
0.341496
0.0532257
0.0519064
0.049635
0.0469244
0.0441028
0.0413542
0.0387809
0.0364358
0.0343352
0.0324797
0.0533643
0.052041
0.0497587
0.0470364
0.0442024
0.0414412
0.0388558
0.0364996
0.0343887
0.0325247
0.0536346
0.0523017
0.0499997
0.0472548
0.0443965
0.0416107
0.0390017
0.036624
0.0344932
0.0326122
0.0540294
0.0526821
0.050352
0.0475742
0.0446802
0.0418585
0.039215
0.0368058
0.0346459
0.0327402
0.0545425
0.0531765
0.0508105
0.0479899
0.0450494
0.0421811
0.0394927
0.0370424
0.0348446
0.0329067
0.0551683
0.0537797
0.0513702
0.0484977
0.0455007
0.0425755
0.0398322
0.0373316
0.0350873
0.0331101
0.0559019
0.054487
0.0520272
0.049094
0.0460309
0.0430389
0.0402312
0.0376715
0.0353723
0.0333488
0.0567386
0.0552941
0.0527775
0.0497757
0.0466372
0.0435692
0.0406877
0.0380603
0.0356982
0.0336216
0.0576742
0.0561971
0.053618
0.05054
0.0473175
0.0441643
0.0412001
0.0384967
0.0360636
0.0339274
0.0587049
0.0571924
0.0545454
0.0513843
0.0480697
0.0448227
0.0417671
0.0389795
0.0364675
0.0342653
0.059827
0.0582769
0.0555572
0.0523066
0.048892
0.045543
0.0423874
0.0395076
0.036909
0.0346344
0.0610371
0.0594473
0.0566509
0.0533049
0.049783
0.046324
0.0430603
0.0400805
0.0373875
0.0350341
0.0623319
0.0607008
0.057824
0.0543774
0.0507414
0.047165
0.043785
0.0406976
0.0379025
0.0354641
0.0637083
0.0620347
0.0590745
0.0555227
0.0517663
0.0480652
0.0445612
0.0413585
0.0384535
0.035924
0.0651633
0.0634463
0.0604004
0.0567394
0.0528568
0.0490242
0.0453884
0.0420631
0.0390405
0.0364137
0.0666939
0.0649331
0.0617999
0.0580263
0.0540123
0.0500417
0.0462667
0.0428114
0.0396636
0.0369331
0.0682972
0.0664926
0.0632711
0.0593824
0.0552321
0.0511175
0.0471962
0.0436036
0.0403227
0.0374826
0.0699704
0.0681222
0.0648124
0.0608066
0.056516
0.0522518
0.0481772
0.0444402
0.0410184
0.0380622
0.0717104
0.0698197
0.0664221
0.062298
0.0578637
0.0534448
0.04921
0.0453216
0.0417511
0.0386726
0.0735144
0.0715825
0.0680986
0.0638559
0.0592751
0.0546969
0.0502954
0.0462487
0.0425216
0.0393144
0.0753795
0.0734082
0.0698402
0.0654795
0.0607502
0.0560084
0.0514341
0.0472224
0.0433306
0.0399882
0.0773026
0.0752942
0.0716454
0.067168
0.062289
0.0573802
0.0526272
0.0482438
0.0441793
0.0406952
0.0792808
0.077238
0.0735125
0.0689207
0.0638917
0.0588129
0.0538756
0.049314
0.0450689
0.0414363
0.0813109
0.0792372
0.0754399
0.0707369
0.0655586
0.0603075
0.0551807
0.0504347
0.0460008
0.0422129
0.0833898
0.0812889
0.0774259
0.0726161
0.0672898
0.0618648
0.056544
0.0516074
0.0469766
0.0430265
0.0855142
0.0833905
0.0794687
0.0745574
0.0690858
0.0634861
0.057967
0.0528339
0.0479981
0.0438786
0.087681
0.0855393
0.0815666
0.0765601
0.0709469
0.0651725
0.0594514
0.0541161
0.0490674
0.044771
0.0898868
0.0877325
0.0837177
0.0786235
0.0728736
0.0669252
0.0609992
0.0554564
0.0501865
0.0457059
0.0921282
0.089967
0.0859201
0.0807467
0.0748662
0.0687456
0.0626123
0.0568569
0.0513581
0.0466853
0.0944018
0.09224
0.0881718
0.082929
0.0769251
0.070635
0.0642929
0.0583201
0.0525846
0.0477117
0.096704
0.0945485
0.0904705
0.0851694
0.0790508
0.072595
0.0660435
0.0598489
0.053869
0.0487876
0.0990313
0.0968892
0.0928143
0.0874668
0.0812437
0.0746269
0.0678662
0.0614459
0.0552144
0.049916
0.10138
0.0992591
0.0952007
0.0898201
0.083504
0.0767324
0.0697639
0.0631142
0.0566241
0.0510997
0.103747
0.101655
0.0976275
0.0922282
0.0858319
0.0789127
0.071739
0.064857
0.0581016
0.052342
0.106128
0.104074
0.100092
0.0946897
0.0882278
0.0811695
0.0737943
0.0666775
0.0596508
0.0536464
0.10852
0.106512
0.102592
0.0972032
0.0906915
0.0835042
0.0759327
0.0685793
0.0612758
0.0550166
0.110919
0.108966
0.105124
0.0997671
0.0932232
0.0859181
0.0781571
0.0705659
0.0629809
0.0564565
0.113322
0.111432
0.107686
0.10238
0.0958226
0.0884126
0.0804704
0.072641
0.0647706
0.0579703
0.115725
0.113908
0.110275
0.105039
0.0984893
0.090989
0.0828757
0.0748085
0.0666499
0.0595624
0.118124
0.11639
0.112887
0.107743
0.101223
0.0936483
0.0853759
0.0770722
0.0686238
0.0612373
0.120517
0.118875
0.115521
0.11049
0.104023
0.0963916
0.0879739
0.0794362
0.0706976
0.0630002
0.122899
0.121358
0.118172
0.113278
0.106887
0.0992196
0.0906728
0.0819045
0.072877
0.064856
0.125267
0.123838
0.120837
0.116103
0.109816
0.102133
0.0934753
0.0844812
0.0751679
0.0668101
0.127619
0.126309
0.123514
0.118963
0.112808
0.105132
0.0963841
0.0871704
0.0775763
0.0688683
0.12995
0.12877
0.126198
0.121855
0.11586
0.108218
0.0994018
0.0899763
0.0801086
0.0710365
0.132259
0.131217
0.128886
0.124777
0.118972
0.111389
0.102531
0.0929029
0.0827713
0.0733206
0.134542
0.133647
0.131575
0.127725
0.122141
0.114647
0.105773
0.0959543
0.085571
0.0757272
0.136796
0.136056
0.134262
0.130696
0.125363
0.117989
0.109131
0.0991345
0.0885147
0.0782627
0.139019
0.138443
0.136942
0.133686
0.128638
0.121415
0.112605
0.102447
0.0916091
0.0809341
0.141208
0.140802
0.139613
0.136691
0.13196
0.124925
0.116197
0.105896
0.0948613
0.0837483
0.14336
0.143133
0.14227
0.139709
0.135328
0.128515
0.119908
0.109485
0.0982782
0.0867125
0.145475
0.145432
0.144911
0.142734
0.138737
0.132184
0.123738
0.113218
0.101867
0.0898341
0.147549
0.147697
0.147532
0.145763
0.142184
0.13593
0.127687
0.117096
0.105634
0.0931205
0.149581
0.149925
0.150129
0.148792
0.145663
0.13975
0.131753
0.121124
0.109585
0.0965794
0.151569
0.152114
0.1527
0.151816
0.149171
0.143639
0.135936
0.125303
0.113728
0.100219
0.153512
0.154262
0.15524
0.154832
0.152703
0.147595
0.140234
0.129635
0.118068
0.104046
0.155407
0.156367
0.157748
0.157835
0.156253
0.151614
0.144644
0.134123
0.12261
0.108069
0.157255
0.158427
0.160219
0.160821
0.159817
0.155689
0.149163
0.138768
0.127359
0.112295
0.159054
0.16044
0.162651
0.163785
0.163389
0.159817
0.153787
0.14357
0.132318
0.116734
0.160802
0.162405
0.165042
0.166723
0.166963
0.163992
0.158511
0.14853
0.137491
0.121391
0.1625
0.16432
0.167388
0.169631
0.170533
0.168208
0.16333
0.153647
0.14288
0.126277
0.164146
0.166185
0.169687
0.172505
0.174094
0.172458
0.168238
0.158922
0.148486
0.131397
0.165741
0.167998
0.171937
0.175341
0.17764
0.176736
0.173228
0.164351
0.154308
0.136757
0.167283
0.169758
0.174135
0.178134
0.181165
0.181033
0.178293
0.169933
0.160344
0.142365
0.168773
0.171464
0.17628
0.180882
0.184663
0.185345
0.183426
0.175671
0.166602
0.148237
0.170212
0.173118
0.178371
0.183583
0.188133
0.189671
0.18863
0.181577
0.173099
0.154415
0.171598
0.174717
0.180406
0.186232
0.191566
0.193995
0.193881
0.187623
0.179791
0.160842
0.172929
0.176254
0.182372
0.188804
0.194915
0.198243
0.19906
0.193642
0.186407
0.167083
0.174207
0.177725
0.184249
0.191264
0.198128
0.202337
0.204077
0.199542
0.192864
0.172942
0.175448
0.179181
0.186127
0.193764
0.201481
0.206771
0.209785
0.206676
0.201379
0.182118
0.0312496
0.0305454
0.0298379
0.0291263
0.0284102
0.02769
0.0269663
0.0262395
0.02551
0.0247783
0.0240446
0.0233096
0.0225735
0.0218368
0.0210999
0.0203631
0.019627
0.0188918
0.018158
0.017426
0.0312891
0.0305845
0.0298767
0.0291645
0.0284476
0.027726
0.0270006
0.0262716
0.0255395
0.0248048
0.0240678
0.0233291
0.022589
0.021848
0.0211065
0.020365
0.0196239
0.0188836
0.0181446
0.0174073
0.031364
0.0306544
0.029942
0.0292253
0.0285034
0.0277766
0.0270456
0.0263109
0.0255728
0.0248319
0.0240885
0.0233432
0.0225964
0.0218486
0.0211002
0.0203516
0.0196035
0.0188561
0.01811
0.0173656
0.0314727
0.0307544
0.0300341
0.0293098
0.02858
0.027845
0.0271056
0.0263623
0.0256155
0.0248656
0.0241132
0.0233586
0.0226025
0.0218452
0.0210872
0.0203291
0.0195712
0.0188142
0.0180585
0.0173044
0.0316135
0.0308828
0.0301514
0.0294164
0.0286757
0.0279297
0.027179
0.0264242
0.0256658
0.0249042
0.02414
0.0233736
0.0226055
0.0218361
0.0210661
0.0202959
0.0195261
0.018757
0.0179892
0.0172233
0.0317849
0.0310382
0.0302926
0.0295441
0.0287897
0.0280297
0.0272649
0.0264959
0.0257233
0.0249474
0.0241688
0.023388
0.0226054
0.0218217
0.0210372
0.0202526
0.0194683
0.0186848
0.0179028
0.0171226
0.0319854
0.0312193
0.0304566
0.0296917
0.0289209
0.0281442
0.0273626
0.0265768
0.0257874
0.0249947
0.0241992
0.0234015
0.022602
0.0218014
0.0210001
0.0201987
0.0193977
0.0185976
0.017799
0.0170024
0.0322139
0.0314251
0.0306423
0.0298585
0.0290685
0.0282724
0.0274714
0.0266663
0.0258575
0.0250454
0.0242306
0.0234136
0.0225949
0.021775
0.0209546
0.0201341
0.0193141
0.0184952
0.0176778
0.0168626
0.0324694
0.0316545
0.0308488
0.0300434
0.0292317
0.0284136
0.0275907
0.0267636
0.0259329
0.0250991
0.0242625
0.0234238
0.0225835
0.0217421
0.0209002
0.0200584
0.0192171
0.0183771
0.0175388
0.0167027
0.032751
0.0319067
0.0310754
0.0302458
0.0294097
0.0285671
0.0277197
0.0268682
0.0260132
0.0251551
0.0242944
0.0234316
0.0225673
0.0217021
0.0208365
0.019971
0.0191064
0.018243
0.0173815
0.0165225
0.0330578
0.032181
0.0313213
0.030465
0.029602
0.0287323
0.0278578
0.0269795
0.0260977
0.0252129
0.0243256
0.0234364
0.0225459
0.0216545
0.0207629
0.0198716
0.0189812
0.0180924
0.0172056
0.0163214
0.0333893
0.0324766
0.0315859
0.0307004
0.029808
0.0289086
0.0280046
0.0270968
0.0261859
0.025272
0.0243558
0.0234378
0.0225186
0.0215988
0.0206789
0.0197595
0.0188412
0.0179246
0.0170103
0.0160988
0.033745
0.0327931
0.0318687
0.0309515
0.0300271
0.0290955
0.0281594
0.0272198
0.0262772
0.0253318
0.0243842
0.0234351
0.0224849
0.0215343
0.0205838
0.0196341
0.0186856
0.017739
0.0167949
0.0158539
0.0341246
0.0331302
0.0321694
0.0312179
0.030259
0.0292926
0.0283219
0.0273479
0.0263711
0.0253918
0.0244105
0.0234278
0.0224442
0.0214605
0.0204771
0.0194946
0.0185137
0.0175349
0.0165588
0.015586
0.034528
0.0334877
0.0324877
0.0314993
0.0305033
0.0294996
0.0284916
0.0274808
0.0264673
0.0254515
0.0244339
0.0234152
0.022396
0.0213767
0.0203581
0.0193406
0.0183249
0.0173115
0.0163012
0.0152944
0.0349549
0.0338653
0.0328233
0.0317956
0.0307598
0.029716
0.0286683
0.0276179
0.0265652
0.0255104
0.0244542
0.023397
0.0223395
0.0212823
0.020226
0.0191711
0.0181182
0.017068
0.0160211
0.014978
0.0354056
0.0342632
0.0331764
0.0321067
0.0310283
0.0299418
0.0288516
0.0277591
0.0266645
0.0255682
0.0244706
0.0233725
0.0222743
0.0211767
0.0200802
0.0189855
0.0178931
0.0168036
0.0157177
0.0146359
0.0358804
0.0346815
0.033547
0.0324325
0.0313089
0.0301768
0.0290413
0.027904
0.0267649
0.0256244
0.0244829
0.0233412
0.0221997
0.0210592
0.01992
0.018783
0.0176486
0.0165174
0.0153901
0.0142672
0.0363795
0.0351206
0.0339353
0.0327731
0.0316015
0.030421
0.0292374
0.0280525
0.0268661
0.0256786
0.0244906
0.0233026
0.0221152
0.0209291
0.0197447
0.0185628
0.0173838
0.0162084
0.0150373
0.0138708
0.0369037
0.0355808
0.0343416
0.033129
0.0319062
0.0306744
0.0294398
0.0282043
0.0269679
0.0257306
0.0244932
0.0232562
0.0220202
0.0207858
0.0195536
0.0183241
0.017098
0.0158758
0.0146582
0.0134456
0.0374536
0.0360628
0.0347665
0.0335003
0.0322234
0.0309371
0.0296485
0.0283596
0.02707
0.0257801
0.0244905
0.0232016
0.0219142
0.0206288
0.0193459
0.0180662
0.0167902
0.0155185
0.0142519
0.0129905
0.0380302
0.0365674
0.0352104
0.0338875
0.0325533
0.0312093
0.0298636
0.0285181
0.0271725
0.0258269
0.024482
0.0231384
0.0217966
0.0204573
0.0191209
0.0177882
0.0164595
0.0151356
0.0138171
0.0125044
0.0386344
0.0370954
0.0356743
0.0342914
0.0328964
0.0314915
0.0300854
0.02868
0.0272751
0.0258707
0.0244675
0.023066
0.0216669
0.0202707
0.0188779
0.0174892
0.0161051
0.0147261
0.0133529
0.0119859
0.0392677
0.037648
0.036159
0.0347125
0.0332533
0.031784
0.030314
0.0288455
0.0273779
0.0259115
0.0244467
0.0229843
0.0215246
0.0200685
0.0186162
0.0171685
0.0157258
0.0142888
0.0128581
0.011434
0.0399314
0.0382265
0.0366654
0.0351518
0.0336247
0.0320872
0.0305498
0.0290147
0.0274811
0.0259491
0.0244195
0.0228927
0.0213693
0.0198499
0.018335
0.0168252
0.0153209
0.0138227
0.0123315
0.0108472
0.0406272
0.0388322
0.037195
0.0356103
0.0340114
0.032402
0.0307934
0.0291879
0.0275846
0.0259836
0.0243855
0.022791
0.0212004
0.0196145
0.0180336
0.0164584
0.0148893
0.0133267
0.0117719
0.0102243
0.0413569
0.0394668
0.0377489
0.036089
0.0344143
0.0327289
0.0310452
0.0293654
0.0276887
0.0260149
0.0243448
0.0226788
0.0210176
0.0193616
0.0177113