/*--------------------------------*- C++ -*----------------------------------*\
  =========                 |
  \\      /  F ield         | OpenFOAM: The Open Source CFD Toolbox
   \\    /   O peration     | Website:  https://openfoam.org
    \\  /    A nd           | Version:  7
     \\/     M anipulation  |
\*---------------------------------------------------------------------------*/
FoamFile
{
    version     2.0;
    format      ascii;
    class       volVectorField;
    location    "24";
    object      U;
}
// * * * * * * * * * * * * * * * * * * * * * * * * * * * * * * * * * * * * * //

dimensions      [0 1 -1 0 0 0 0];

internalField   nonuniform List<vector> 
433
(
(0.514196 -0.068644 1.43266e-21)
(0.520253 -0.067035 -6.44978e-21)
(0.526732 -0.0652293 2.39847e-21)
(0.5336 -0.0632645 -5.68859e-21)
(0.540821 -0.061176 8.05657e-21)
(0.54836 -0.0589928 -5.29122e-21)
(0.542201 -0.0699242 -4.74178e-21)
(0.547066 -0.0683798 5.15907e-22)
(0.552395 -0.0666207 -2.95718e-21)
(0.558154 -0.0646866 -2.11147e-21)
(0.564306 -0.0626148 1.74593e-21)
(0.570817 -0.0604361 -9.57297e-23)
(0.577646 -0.0581842 -6.67783e-23)
(0.584764 -0.0558778 -4.39757e-22)
(0.592124 -0.0535548 -1.27029e-22)
(0.599719 -0.0512088 6.91727e-22)
(0.607474 -0.0489084 3.08748e-22)
(0.615441 -0.0465781 -3.58658e-22)
(0.62345 -0.0443972 5.78503e-22)
(0.63174 -0.0420846 -3.90848e-22)
(0.639829 -0.040168 3.36903e-22)
(0.648513 -0.0377586 -3.83325e-22)
(0.656368 -0.0364096 1.22945e-22)
(0.665823 -0.0335162 3.19052e-23)
(0.672715 -0.0334107 -4.20742e-23)
(0.684055 -0.0291792 1.64295e-23)
(0.688277 -0.0312754 5.69446e-24)
(0.703998 -0.0257565 7.2228e-25)
(0.58226 -0.0693877 0)
(0.586274 -0.0677626 0)
(0.590757 -0.0659389 0)
(0.59567 -0.0639557 0)
(0.600976 -0.061846 0)
(0.606637 -0.0596451 0)
(0.61262 -0.0573739 0)
(0.61888 -0.0550722 0)
(0.625406 -0.0527353 0)
(0.632124 -0.050434 0)
(0.639084 -0.0480934 0)
(0.646121 -0.0458964 0)
(0.653459 -0.0435587 0)
(0.660644 -0.0416192 0)
(0.66842 -0.0391708 0)
(0.675453 -0.0378046 0)
(0.684014 -0.0348509 0)
(0.690215 -0.0347555 0)
(0.700588 -0.0304268 0)
(0.70438 -0.0325796 0)
(0.718884 -0.0269497 0)
(0.630108 -0.0703918 0)
(0.632328 -0.0689175 0)
(0.635068 -0.067221 0)
(0.638287 -0.0653426 0)
(0.641949 -0.0633171 0)
(0.646011 -0.0611812 0)
(0.650443 -0.0589586 0)
(0.655196 -0.0566893 0)
(0.660256 -0.0543731 0)
(0.665555 -0.0520783 0)
(0.671132 -0.0497386 0)
(0.676835 -0.0475279 0)
(0.682864 -0.0451794 0)
(0.688804 -0.0432102 0)
(0.695329 -0.0407467 0)
(0.701224 -0.0393387 0)
(0.708552 -0.0363723 0)
(0.713784 -0.0362265 0)
(0.72283 -0.0318984 0)
(0.725997 -0.033976 0)
(0.738833 -0.0283759 0)
(0.680219 -0.0708146 0)
(0.680589 -0.0695323 0)
(0.681529 -0.0680004 0)
(0.682999 -0.066261 0)
(0.684962 -0.0643512 0)
(0.687373 -0.0623094 0)
(0.6902 -0.060162 0)
(0.693397 -0.0579499 0)
(0.696945 -0.0556776 0)
(0.700777 -0.0534106 0)
(0.704926 -0.0510921 0)
(0.709252 -0.048886 0)
(0.713929 -0.0465453 0)
(0.718582 -0.0445613 0)
(0.723816 -0.0421019 0)
(0.728534 -0.0406608 0)
(0.734589 -0.0377072 0)
(0.738816 -0.0375048 0)
(0.74649 -0.0332229 0)
(0.749011 -0.0351888 0)
(0.760101 -0.0296908 0)
(0.731963 -0.0704685 0)
(0.730475 -0.0694374 0)
(0.729604 -0.0681247 0)
(0.729312 -0.0665747 0)
(0.729558 -0.0648269 0)
(0.7303 -0.0629218 0)
(0.731504 -0.0608889 0)
(0.733123 -0.0587701 0)
(0.735137 -0.0565746 0)
(0.737482 -0.0543663 0)
(0.740181 -0.0520967 0)
(0.743106 -0.0499214 0)
(0.746411 -0.0476117 0)
(0.749754 -0.0456351 0)
(0.753675 -0.0432001 0)
(0.757191 -0.0417436 0)
(0.76195 -0.0388235 0)
(0.76515 -0.0385732 0)
(0.77142 -0.0343671 0)
(0.773282 -0.0362138 0)
(0.78257 -0.0308645 0)
(0.784585 -0.069314 0)
(0.781291 -0.0685897 0)
(0.778652 -0.0675487 0)
(0.77663 -0.0662374 0)
(0.775188 -0.064698 0)
(0.774283 -0.0629728 0)
(0.773881 -0.0610949 0)
(0.773936 -0.0591072 0)
(0.774426 -0.0570234 0)
(0.775291 -0.0549062 0)
(0.776546 -0.0527156 0)
(0.778074 -0.0505991 0)
(0.780006 -0.0483463 0)
(0.782039 -0.0464009 0)
(0.784644 -0.0440137 0)
(0.786956 -0.0425599 0)
(0.790411 -0.0396981 0)
(0.792578 -0.0394071 0)
(0.797432 -0.0353127 0)
(0.798634 -0.037028 0)
(0.806084 -0.0318796 0)
(0.837224 -0.0673458 0)
(0.832239 -0.0669789 0)
(0.827932 -0.0662582 0)
(0.824269 -0.065232 0)
(0.821214 -0.063945 0)
(0.818729 -0.0624417 0)
(0.81678 -0.060758 0)
(0.815324 -0.0589385 0)
(0.814336 -0.0570013 0)
(0.813761 -0.0550079 0)
(0.813608 -0.0529267 0)
(0.81377 -0.0508973 0)
(0.814359 -0.0487282 0)
(0.815105 -0.0468379 0)
(0.816416 -0.0445228 0)
(0.81754 -0.04309 0)
(0.819706 -0.0403128 0)
(0.820853 -0.0399878 0)
(0.824296 -0.0360434 0)
(0.824849 -0.0376135 0)
(0.830452 -0.0327203 0)
(0.888935 -0.0645791 0)
(0.882439 -0.0646129 0)
(0.876625 -0.0642552 0)
(0.871464 -0.063556 0)
(0.866926 -0.0625621 0)
(0.862977 -0.0613199 0)
(0.859585 -0.0598681 0)
(0.85671 -0.0582525 0)
(0.854329 -0.0564955 0)
(0.85239 -0.054658 0)
(0.850897 -0.052716 0)
(0.849756 -0.050802 0)
(0.849058 -0.0487429 0)
(0.848568 -0.046932 0)
(0.848631 -0.0447132 0)
(0.848609 -0.0433199 0)
(0.849524 -0.0406536 0)
(0.849683 -0.0403018 0)
(0.851743 -0.0365451 0)
(0.851672 -0.0379581 0)
(0.855447 -0.0333712 0)
(0.938726 -0.0610625 0)
(0.930962 -0.061529 0)
(0.923861 -0.061568 0)
(0.917403 -0.0612302 0)
(0.911562 -0.060564 0)
(0.906311 -0.059617 0)
(0.901624 -0.0584305 0)
(0.897466 -0.0570514 0)
(0.893816 -0.0555059 0)
(0.890625 -0.0538541 0)
(0.887897 -0.0520796 0)
(0.885546 -0.050308 0)
(0.883648 -0.0483841 0)
(0.882002 -0.0466762 0)
(0.880891 -0.044577 0)
(0.879787 -0.0432418 0)
(0.879512 -0.0407113 0)
(0.878737 -0.040341 0)
(0.879466 -0.036807 0)
(0.878809 -0.0380545 0)
(0.880806 -0.0338196 0)
(0.985612 -0.0568839 0)
(0.976879 -0.0577999 0)
(0.968763 -0.0582561 0)
(0.961254 -0.0583032 0)
(0.954338 -0.0579898 0)
(0.947994 -0.0573647 0)
(0.942204 -0.0564704 0)
(0.936938 -0.0553549 0)
(0.932179 -0.0540476 0)
(0.927885 -0.0526077 0)
(0.924058 -0.0510259 0)
(0.920624 -0.049421 0)
(0.917642 -0.0476556 0)
(0.914946 -0.0460723 0)
(0.91276 -0.0441145 0)
(0.910666 -0.0428546 0)
(0.909287 -0.0404835 0)
(0.907654 -0.0401027 0)
(0.907129 -0.0368233 0)
(0.905936 -0.0379004 0)
(0.906236 -0.0340561 0)
(1.02868 -0.0521672 0)
(1.01931 -0.0535313 0)
(1.01049 -0.0544095 0)
(1.00222 -0.0548512 0)
(0.99449 -0.0549044 0)
(0.987299 -0.0546174 0)
(0.980631 -0.0540337 0)
(0.974467 -0.0532016 0)
(0.968793 -0.0521528 0)
(0.963576 -0.0509457 0)
(0.958817 -0.0495772 0)
(0.954454 -0.0481594 0)
(0.950533 -0.0465721 0)
(0.946921 -0.0451324 0)
(0.943786 -0.043335 0)
(0.940816 -0.0421659 0)
(0.938443 -0.0399749 0)
(0.936045 -0.0395917 0)
(0.934368 -0.036594 0)
(0.932703 -0.0374997 0)
(0.931421 -0.0340759 0)
(1.06716 -0.0470652 0)
(1.0575 -0.0488568 0)
(1.0483 -0.0501449 0)
(1.03957 -0.0509757 0)
(1.03132 -0.0513956 0)
(1.02355 -0.0514514 0)
(1.01626 -0.0511864 0)
(1.00943 -0.0506484 0)
(1.00306 -0.0498706 0)
(0.997125 -0.0489103 0)
(0.991624 -0.0477697 0)
(0.986512 -0.0465543 0)
(0.981819 -0.0451603 0)
(0.977447 -0.0438791 0)
(0.973509 -0.0422576 0)
(0.9698 -0.041192 0)
(0.966562 -0.0391983 0)
(0.963513 -0.0388199 0)
(0.96081 -0.0361254 0)
(0.958745 -0.0368624 0)
(0.956027 -0.0338788 0)
(1.10045 -0.0417486 0)
(1.09084 -0.0439294 0)
(1.08159 -0.0455984 0)
(1.07271 -0.0467977 0)
(1.06423 -0.0475705 0)
(1.05616 -0.0479611 0)
(1.04851 -0.0480117 0)
(1.04126 -0.0477684 0)
(1.03443 -0.0472654 0)
(1.028 -0.046558 0)
(1.02197 -0.0456528 0)
(1.0163 -0.0446489 0)
(1.01102 -0.0434581 0)
(1.00606 -0.0423457 0)
(1.00149 -0.0409109 0)
(0.997188 -0.0399582 0)
(0.993235 -0.0381746 0)
(0.989662 -0.0378073 0)
(0.986077 -0.0354302 0)
(0.983696 -0.0360055 0)
(0.979716 -0.0334704 0)
(1.12823 -0.0363919 0)
(1.11897 -0.0389089 0)
(1.10996 -0.0409157 0)
(1.10122 -0.0424492 0)
(1.0928 -0.0435482 0)
(1.08469 -0.0442538 0)
(1.07693 -0.0446056 0)
(1.06952 -0.0446476 0)
(1.06247 -0.0444137 0)
(1.05576 -0.043957 0)
(1.04941 -0.0432876 0)
(1.04339 -0.0424976 0)
(1.03771 -0.0415136 0)
(1.03235 -0.0405747 0)
(1.02731 -0.0393328 0)
(1.02258 -0.0384982 0)
(1.01808 -0.0369323 0)
(1.01412 -0.0365813 0)
(1.00981 -0.0345281 0)
(1.0072 -0.034952 0)
(1.00216 -0.0328617 0)
(1.15042 -0.0311588 0)
(1.14176 -0.0339494 0)
(1.13323 -0.0362405 0)
(1.12489 -0.0380632 0)
(1.11675 -0.0394512 0)
(1.10886 -0.0404414 0)
(1.10123 -0.0410703 0)
(1.09388 -0.0413789 0)
(1.08683 -0.0414001 0)
(1.08006 -0.0411837 0)
(1.0736 -0.0407429 0)
(1.06742 -0.0401624 0)
(1.06154 -0.0393828 0)
(1.05596 -0.0386168 0)
(1.05063 -0.0375681 0)
(1.04564 -0.0368533 0)
(1.04074 -0.0355068 0)
(1.03653 -0.035176 0)
(1.03168 -0.0334445 0)
(1.02893 -0.0337311 0)
(1.02303 -0.0320695 0)
(1.1672 -0.0261879 0)
(1.15931 -0.0291856 0)
(1.15146 -0.0317022 0)
(1.14369 -0.0337627 0)
(1.13605 -0.0353955 0)
(1.12857 -0.0366327 0)
(1.12128 -0.037507 0)
(1.11419 -0.038056 0)
(1.10732 -0.0383107 0)
(1.10069 -0.0383175 0)
(1.0943 -0.0380916 0)
(1.08816 -0.0377099 0)
(1.08226 -0.0371264 0)
(1.07662 -0.0365274 0)
(1.07117 -0.0356673 0)
(1.06608 -0.0350695 0)
(1.06096 -0.0339386 0)
(1.05664 -0.0336305 0)
(1.05141 -0.0322101 0)
(1.0486 -0.0323759 0)
(1.04207 -0.0311159 0)
(1.17899 -0.0215836 0)
(1.17197 -0.0247238 0)
(1.1649 -0.0274068 0)
(1.15785 -0.0296517 0)
(1.15084 -0.0314819 0)
(1.14391 -0.0329244 0)
(1.1371 -0.034008 0)
(1.13043 -0.0347661 0)
(1.12392 -0.0352277 0)
(1.11758 -0.0354352 0)
(1.11143 -0.0354051 0)
(1.10547 -0.0352067 0)
(1.09971 -0.0348061 0)
(1.09417 -0.0343636 0)
(1.08876 -0.0336825 0)
(1.08371 -0.0331958 0)
(1.07852 -0.0322711 0)
(1.0742 -0.0319871 0)
(1.06877 -0.0308592 0)
(1.06599 -0.0309226 0)
(1.05905 -0.0300272 0)
(1.18636 -0.0174113 0)
(1.18024 -0.0206353 0)
(1.17401 -0.0234297 0)
(1.16773 -0.0258083 0)
(1.16143 -0.0277892 0)
(1.15515 -0.0293949 0)
(1.14893 -0.03065 0)
(1.14278 -0.0315839 0)
(1.13674 -0.0322229 0)
(1.13081 -0.0326055 0)
(1.12502 -0.032749 0)
(1.11938 -0.0327147 0)
(1.11387 -0.0324802 0)
(1.10856 -0.0321804 0)
(1.10332 -0.0316648 0)
(1.09843 -0.0312807 0)
(1.09331 -0.0305479 0)
(1.08911 -0.0302887 0)
(1.08363 -0.0294277 0)
(1.08093 -0.029408 0)
(1.07379 -0.0288327 0)
(1.19 -0.0136984 0)
(1.18475 -0.0169567 0)
(1.17935 -0.0198146 0)
(1.17384 -0.0222814 0)
(1.16828 -0.0243704 0)
(1.16269 -0.0260998 0)
(1.15709 -0.0274901 0)
(1.15153 -0.0285667 0)
(1.14602 -0.0293535 0)
(1.14059 -0.0298846 0)
(1.13524 -0.030178 0)
(1.13 -0.030287 0)
(1.12485 -0.0301997 0)
(1.11986 -0.0300268 0)
(1.11489 -0.0296607 0)
(1.11026 -0.029369 0)
(1.10531 -0.0288101 0)
(1.10132 -0.0285759 0)
(1.09592 -0.0279512 0)
(1.09337 -0.0278678 0)
(1.08621 -0.0275629 0)
(1.19062 -0.0104408 0)
(1.18616 -0.0136936 0)
(1.18154 -0.0165757 0)
(1.17678 -0.0190922 0)
(1.17193 -0.0212525 0)
(1.16701 -0.0230705 0)
(1.16205 -0.0245633 0)
(1.15709 -0.0257524 0)
(1.15215 -0.026659 0)
(1.14724 -0.0273131 0)
(1.14237 -0.0277331 0)
(1.13758 -0.0279646 0)
(1.13284 -0.0280052 0)
(1.12824 -0.027943 0)
(1.1236 -0.0277089 0)
(1.11929 -0.027499 0)
(1.11461 -0.0270936 0)
(1.11088 -0.0268847 0)
(1.10567 -0.0264622 0)
(1.1033 -0.0263339 0)
(1.09628 -0.0262474 0)
(1.18889 -0.00761162 0)
(1.18515 -0.0108281 0)
(1.18122 -0.0137033 0)
(1.17714 -0.0162385 0)
(1.17294 -0.0184396 0)
(1.16866 -0.020317 0)
)
;

boundaryField
{
    inlet
    {
        type            uniformFixedValue;
        uniformValue    constant (1 0 0);
        value           nonuniform 0();
    }
    outlet
    {
        type            pressureInletOutletVelocity;
        value           nonuniform List<vector> 
20
(
(0.718884 -0.0269497 0)
(0.738833 -0.0283759 0)
(0.760101 -0.0296908 0)
(0.78257 -0.0308645 0)
(0.806084 -0.0318796 0)
(0.830452 -0.0327203 0)
(0.855447 -0.0333712 0)
(0.880806 -0.0338196 0)
(0.906236 -0.0340561 0)
(0.931421 -0.0340759 0)
(0.956027 -0.0338788 0)
(0.979716 -0.0334704 0)
(1.00216 -0.0328617 0)
(1.02303 -0.0320695 0)
(1.04207 -0.0311159 0)
(1.05905 -0.0300272 0)
(1.07379 -0.0288327 0)
(1.08621 -0.0275629 0)
(1.09628 -0.0262474 0)
(0.703998 -0.0257565 7.2228e-25)
)
;
    }
    cylinder
    {
        type            fixedValue;
        value           nonuniform 0();
    }
    top
    {
        type            symmetryPlane;
    }
    bottom
    {
        type            symmetryPlane;
    }
    defaultFaces
    {
        type            empty;
    }
    procBoundary29to23
    {
        type            processor;
        value           nonuniform List<vector> 
23
(
(0.486299 -0.0670734 6.75081e-21)
(0.493551 -0.065421 -7.5641e-22)
(0.501184 -0.0635878 -1.3017e-21)
(0.509167 -0.0616098 2.65793e-21)
(0.517462 -0.0595203 -1.02453e-22)
(0.526037 -0.057347 -1.49092e-21)
(0.556179 -0.0567465 -1.31898e-21)
(0.556179 -0.0567465 -1.31898e-21)
(0.564249 -0.0544545 -5.78666e-22)
(0.572523 -0.0521526 3.98223e-22)
(0.580995 -0.0498341 7.66066e-22)
(0.589589 -0.0475641 -2.27042e-22)
(0.598362 -0.0452705 2.35949e-22)
(0.607137 -0.0431233 -7.77311e-22)
(0.616166 -0.0408547 2.24889e-22)
(0.624946 -0.0389676 -2.63787e-22)
(0.634312 -0.0366125 1.36259e-22)
(0.642774 -0.0352762 5.26696e-23)
(0.652877 -0.0324595 2.21758e-23)
(0.660259 -0.0323263 -4.00232e-23)
(0.672273 -0.0282159 6.12661e-24)
(0.676778 -0.0302191 1.60867e-23)
(0.693331 -0.0248358 6.67025e-24)
)
;
    }
    procBoundary29to28
    {
        type            processor;
        value           nonuniform List<vector> 
20
(
(0.508594 -0.0700147 -4.52529e-21)
(0.537833 -0.0712103 -1.54661e-20)
(0.578748 -0.0707729 0)
(0.578748 -0.0707729 0)
(0.628444 -0.0716015 0)
(0.680458 -0.0718034 0)
(0.734107 -0.0711722 0)
(0.788572 -0.0696735 0)
(0.842922 -0.067309 0)
(0.89614 -0.0641025 0)
(0.947168 -0.0601165 0)
(0.994968 -0.0554571 0)
(1.03859 -0.0502687 0)
(1.07725 -0.0447252 0)
(1.11038 -0.0390164 0)
(1.13769 -0.0333312 0)
(1.15917 -0.0278418 0)
(1.17508 -0.0226888 0)
(1.18592 -0.0179722 0)
(1.19234 -0.013749 0)
)
;
    }
    procBoundary29to34
    {
        type            processor;
        value           nonuniform List<vector> 3((1.19508 -0.010036 0) (1.19487 -0.00681759 0) (1.19243 -0.00405708 0));
    }
    procBoundary29to35
    {
        type            processor;
        value           nonuniform List<vector> 
22
(
(1.16431 -0.0218842 0)
(1.15993 -0.0231593 0)
(1.15553 -0.024161 0)
(1.15114 -0.0249152 0)
(1.14677 -0.0254404 0)
(1.14245 -0.0257751 0)
(1.13814 -0.025925 0)
(1.13395 -0.025958 0)
(1.12968 -0.0258385 0)
(1.12573 -0.0257003 0)
(1.12137 -0.0254271 0)
(1.11794 -0.0252441 0)
(1.113 -0.0249887 0)
(1.11082 -0.0248328 0)
(1.10407 -0.0249134 0)
(1.18543 -0.00517108 0)
(1.1823 -0.00832796 0)
(1.17898 -0.0111719 0)
(1.1755 -0.0137013 0)
(1.17188 -0.0159189 0)
(1.16431 -0.0218842 0)
(1.16817 -0.0178317 0)
)
;
    }
}


// ************************************************************************* //
