/*--------------------------------*- C++ -*----------------------------------*\
  =========                 |
  \\      /  F ield         | OpenFOAM: The Open Source CFD Toolbox
   \\    /   O peration     | Website:  https://openfoam.org
    \\  /    A nd           | Version:  7
     \\/     M anipulation  |
\*---------------------------------------------------------------------------*/
FoamFile
{
    version     2.0;
    format      ascii;
    class       volVectorField;
    location    "120.000314";
    object      U;
}
// * * * * * * * * * * * * * * * * * * * * * * * * * * * * * * * * * * * * * //

dimensions      [0 1 -1 0 0 0 0];

internalField   nonuniform List<vector> 
5800
(
(-0.201066 -0.430522 -7.48071e-22)
(-0.2227 -0.441376 -2.20817e-20)
(-0.221791 -0.446746 3.26964e-20)
(-0.195899 -0.446326 1.0019e-20)
(-0.143666 -0.440019 -2.81946e-20)
(-0.184256 -0.42938 4.36547e-21)
(-0.169332 -0.422968 4.26534e-21)
(-0.151769 -0.409806 -7.94592e-21)
(-0.13121 -0.389211 3.88383e-21)
(-0.107672 -0.360689 -2.32501e-21)
(-0.0813106 -0.324035 -8.64186e-22)
(-0.0523494 -0.279339 4.90278e-21)
(-0.0209943 -0.226944 -7.28239e-21)
(0.0120507 -0.167402 3.19617e-21)
(0.0465432 -0.101504 3.07938e-21)
(0.082278 -0.0298243 -6.4334e-21)
(0.118753 0.0458931 -1.26661e-22)
(0.155884 0.124672 5.22476e-21)
(0.193375 0.204612 -4.18615e-22)
(0.231048 0.283609 -2.06217e-21)
(0.268614 0.359207 1.77508e-21)
(0.305572 0.428808 -7.82255e-22)
(0.341156 0.48991 1.0002e-21)
(0.374398 0.540504 -7.06522e-22)
(0.404235 0.57943 -4.12146e-22)
(0.429648 0.6066 1.63625e-21)
(0.449757 0.623027 -5.27918e-22)
(0.463815 0.630723 -9.55874e-22)
(0.471112 0.632543 5.9751e-22)
(0.470976 0.631829 1.77028e-22)
(0.463225 0.631391 -6.89947e-22)
(0.449162 0.631663 8.13115e-22)
(0.432452 0.628944 -6.89894e-22)
(0.418891 0.615346 -5.77628e-22)
(0.414669 0.581323 1.68531e-21)
(0.423949 0.519742 -1.29022e-21)
(0.447399 0.428909 -3.31445e-22)
(0.482659 0.312636 2.76745e-22)
(0.525992 0.17807 -2.08277e-23)
(0.573845 0.0336565 1.01926e-21)
(0.623295 -0.11164 -1.3662e-21)
(0.671828 -0.247517 1.14912e-21)
(0.716852 -0.363657 -7.92105e-24)
(0.755633 -0.452323 -6.06816e-23)
(0.786092 -0.510931 -9.06662e-23)
(0.807474 -0.542345 5.24388e-22)
(0.820278 -0.553127 -3.81704e-23)
(0.825585 -0.551 -1.78988e-22)
(0.824773 -0.542277 -7.15647e-23)
(0.819487 -0.530677 4.19186e-23)
(0.810477 -0.519667 -2.17928e-22)
(0.796248 -0.514705 2.8543e-22)
(0.774233 -0.519879 -8.30958e-23)
(0.744647 -0.529297 2.17585e-22)
(0.71238 -0.524462 -6.89386e-23)
(0.685395 -0.481773 1.48812e-23)
(0.669952 -0.387241 7.21666e-23)
(0.669426 -0.243786 -2.85921e-22)
(0.683553 -0.0708427 3.78782e-22)
(0.70989 0.103516 -3.43755e-22)
(0.743137 0.25337 3.11927e-23)
(0.777026 0.362093 2.02241e-22)
(0.805472 0.43171 -1.23416e-23)
(0.825365 0.465199 -6.32675e-23)
(0.83695 0.478578 -2.89656e-23)
(0.842782 0.470815 -1.35146e-23)
(0.83705 0.47585 3.2622e-23)
(0.823092 0.478407 -2.76814e-23)
(0.790765 0.502225 -2.08216e-23)
(0.762802 0.479411 2.08739e-23)
(0.721727 0.423204 -6.59285e-23)
(0.702422 0.297165 3.36569e-23)
(0.677964 0.13093 -3.00008e-23)
(0.669916 -0.0356272 1.56338e-23)
(0.678062 -0.226411 3.7649e-24)
(-0.213864 -0.44298 -1.60368e-21)
(-0.204036 -0.439645 -2.84204e-21)
(-0.191673 -0.429785 -2.73818e-21)
(-0.176308 -0.412486 3.81696e-22)
(-0.157735 -0.387112 -2.0225e-21)
(-0.135948 -0.353348 1.63278e-20)
(-0.111021 -0.311164 -1.19307e-20)
(-0.0831291 -0.260819 9.08206e-21)
(-0.052721 -0.202969 -6.86677e-21)
(-0.0197818 -0.138115 -4.70688e-21)
(0.0147472 -0.0674368 4.84949e-21)
(0.0505446 0.00793376 4.78319e-21)
(0.0878486 0.0866913 -1.05599e-20)
(0.12588 0.166904 2.42346e-21)
(0.16455 0.246425 -4.00955e-21)
(0.203584 0.322946 4.20154e-21)
(0.242526 0.39406 -8.66567e-22)
(0.280633 0.45743 6.59946e-21)
(0.316938 0.511137 -2.84152e-21)
(0.350322 0.554 6.41963e-22)
(0.379638 0.585808 9.73596e-22)
(0.403794 0.607418 -3.52326e-21)
(0.42179 0.620713 4.06465e-22)
(0.432728 0.628411 -4.59624e-22)
(0.436038 0.63349 6.93233e-24)
(0.43213 0.637896 3.44648e-22)
(0.423282 0.640746 1.48693e-21)
(0.41402 0.637151 -4.62083e-22)
(0.410275 0.618953 -1.29004e-21)
(0.417376 0.577652 2.81751e-21)
(0.438 0.508063 -5.12799e-21)
(0.471441 0.410346 1.18506e-21)
(0.514542 0.289316 5.53048e-21)
(0.56335 0.152205 -3.79694e-21)
(0.614339 0.00698719 -1.68581e-21)
(0.664969 -0.137817 2.56107e-21)
(0.713042 -0.272004 -4.13988e-21)
(0.755978 -0.385171 5.59029e-21)
(0.791235 -0.469699 -2.26617e-21)
(0.817132 -0.523542 -4.99455e-22)
(0.833466 -0.550276 4.11092e-22)
(0.841305 -0.556949 2.963e-24)
(0.842123 -0.55147 1.36084e-22)
(0.837362 -0.54023 -5.36725e-23)
(0.828562 -0.526772 2.87664e-22)
(0.816597 -0.513822 -1.74757e-22)
(0.800162 -0.50608 3.53082e-22)
(0.77642 -0.508012 -4.68986e-22)
(0.744805 -0.515398 -1.30746e-22)
(0.709616 -0.511381 -2.89857e-22)
(0.678967 -0.472581 9.63031e-22)
(0.659855 -0.383842 -1.30046e-21)
(0.656291 -0.246618 -5.16882e-22)
(0.668366 -0.0791809 4.94426e-22)
(0.693844 0.0913829 -9.1519e-23)
(0.727406 0.23991 -1.60654e-22)
(0.762652 0.349809 -7.30802e-23)
(0.793098 0.422309 5.42858e-23)
(0.81573 0.458966 -2.80709e-22)
(0.830239 0.475102 1.94233e-22)
(0.839011 0.470253 2.63704e-23)
(0.835487 0.478792 -8.86937e-24)
(0.823848 0.485116 7.55194e-23)
(0.793544 0.511263 -5.32567e-23)
(0.767971 0.489425 -6.48142e-24)
(0.728147 0.43222 -2.3224e-23)
(0.709976 0.303618 7.98592e-25)
(0.685491 0.135802 -4.7937e-23)
(0.677723 -0.0354103 5.64386e-23)
(0.683132 -0.227423 -2.95601e-23)
(-0.22007 -0.450696 6.65488e-23)
(-0.216084 -0.450594 8.41319e-21)
(-0.209659 -0.444269 1.66486e-21)
(-0.200493 -0.430721 -1.65075e-20)
(-0.18811 -0.409146 -1.02578e-20)
(-0.172305 -0.379092 9.20124e-21)
(-0.152935 -0.34037 2.17762e-20)
(-0.130012 -0.293102 -1.20549e-20)
(-0.103738 -0.237764 -4.55585e-21)
(-0.0742268 -0.174964 2.59345e-21)
(-0.0419618 -0.106118 5.78011e-21)
(-0.00737597 -0.0317924 -7.74646e-21)
(0.0291221 0.0459153 8.52736e-21)
(0.0668712 0.126416 -7.38249e-21)
(0.105747 0.206324 1.3707e-20)
(0.145531 0.283633 -1.3006e-20)
(0.185744 0.356156 1.98995e-21)
(0.225636 0.42171 -1.49478e-20)
(0.264232 0.478481 5.90314e-21)
(0.300364 0.525286 -2.9931e-21)
(0.332774 0.561832 1.93297e-21)
(0.360209 0.588835 1.07855e-20)
(0.381508 0.608004 -5.54198e-21)
(0.395764 0.621753 1.74732e-21)
(0.402737 0.632433 -4.65245e-21)
(0.403543 0.640938 3.95121e-21)
(0.401277 0.645194 -5.88931e-21)
(0.400901 0.63958 2.18191e-21)
(0.407969 0.616224 -1.28361e-21)
(0.426652 0.568006 1.95308e-21)
(0.458191 0.491594 2.52172e-21)
(0.500789 0.388622 4.25214e-21)
(0.550757 0.264522 -3.61803e-21)
(0.604073 0.126358 8.63113e-22)
(0.657474 -0.0185548 -2.24896e-21)
(0.708767 -0.161964 4.33038e-21)
(0.755908 -0.293888 -2.38779e-21)
(0.796359 -0.403736 8.97581e-22)
(0.827726 -0.483999 -4.12789e-21)
(0.848767 -0.533176 9.54048e-22)
(0.85987 -0.555524 1.18793e-21)
(0.862664 -0.558506 -1.85378e-21)
(0.859012 -0.550096 1.33605e-21)
(0.850411 -0.536668 1.20841e-21)
(0.838241 -0.52163 -8.02388e-22)
(0.823428 -0.507046 -2.09655e-22)
(0.804907 -0.496777 -6.89887e-22)
(0.779697 -0.495484 1.39943e-22)
(0.74646 -0.500617 2.97423e-22)
(0.708755 -0.497223 8.40606e-22)
(0.674697 -0.462419 -8.34883e-22)
(0.652003 -0.379882 9.21022e-22)
(0.645378 -0.24939 8.55878e-22)
(0.65529 -0.0878409 -6.72028e-22)
(0.679727 0.0786269 5.32864e-23)
(0.713337 0.225656 6.53837e-22)
(0.749626 0.336628 -2.37328e-22)
(0.781807 0.411949 1.40849e-23)
(0.807004 0.45171 2.93387e-22)
(0.824308 0.470677 -3.40737e-24)
(0.835948 0.468847 2.75292e-22)
(0.834647 0.480987 -2.01749e-22)
(0.825483 0.491063 -8.68112e-23)
(0.797352 0.519591 2.24139e-22)
(0.774337 0.498931 -1.59624e-22)
(0.735851 0.441006 2.23691e-22)
(0.718924 0.310054 2.2821e-22)
(0.694463 0.14076 2.00615e-22)
(0.687145 -0.0348157 -2.57725e-22)
(0.689708 -0.228024 5.59467e-23)
(-0.200123 -0.451887 -3.0217e-22)
(-0.202448 -0.454844 -3.06449e-20)
(-0.202352 -0.45199 -6.36983e-21)
(-0.200104 -0.442372 3.31367e-20)
(-0.194926 -0.425016 -2.32917e-20)
(-0.186414 -0.399325 3.97453e-21)
(-0.174162 -0.364936 1.38886e-20)
(-0.15792 -0.321779 -1.1555e-20)
(-0.137608 -0.27011 -1.09504e-20)
(-0.113278 -0.21049 1.80876e-20)
(-0.0852185 -0.14404 5.75448e-21)
(-0.0539179 -0.0718504 -6.72098e-21)
(-0.0189635 0.00451726 -6.64397e-21)
(0.0179298 0.0834925 4.93904e-22)
(0.0556375 0.163819 1.38715e-20)
(0.0951556 0.241734 -7.16351e-21)
(0.135745 0.31548 -8.76706e-22)
(0.176551 0.383111 -6.57044e-21)
(0.216564 0.442879 -2.03131e-22)
(0.254563 0.493613 2.4135e-21)
(0.28922 0.534949 5.17173e-21)
(0.319198 0.567451 -5.53802e-21)
(0.343316 0.592561 4.40618e-21)
(0.360846 0.612213 -2.46944e-21)
(0.37201 0.627939 -1.14184e-21)
(0.378588 0.639565 -5.82236e-22)
(0.384214 0.644103 3.22512e-21)
(0.393823 0.635668 4.17987e-21)
(0.412202 0.607098 -7.82881e-21)
(0.442248 0.552766 -2.36623e-21)
(0.48395 0.470963 9.65721e-21)
(0.534698 0.364417 -3.34106e-21)
(0.590498 0.238878 -7.53625e-21)
(0.647408 0.101028 3.11392e-21)
(0.702541 -0.0424834 -4.92591e-21)
(0.754036 -0.183847 4.86478e-21)
(0.799902 -0.313031 -2.55556e-21)
(0.837547 -0.419255 9.47858e-21)
(0.86472 -0.495162 4.97986e-22)
(0.880678 -0.539812 -8.71602e-22)
(0.886443 -0.558105 -2.28281e-21)
(0.884189 -0.557846 -2.63898e-21)
(0.876137 -0.546957 -3.28475e-22)
(0.863843 -0.531689 2.46431e-21)
(0.848484 -0.51534 2.28899e-22)
(0.830954 -0.499432 -8.32185e-22)
(0.81046 -0.486935 1.86872e-22)
(0.784017 -0.482496 9.59967e-23)
(0.749568 -0.485159 9.17632e-22)
(0.709796 -0.482112 -5.60374e-22)
(0.672624 -0.451291 -5.71805e-22)
(0.646443 -0.375284 -5.38954e-23)
(0.636733 -0.251995 2.08509e-21)
(0.644364 -0.0967465 -1.19253e-21)
(0.667551 0.0653558 -1.50579e-21)
(0.700928 0.210721 5.36833e-22)
(0.737946 0.322643 1.40644e-22)
(0.771603 0.400686 2.3833e-23)
(0.799188 0.443468 -7.10179e-22)
(0.819147 0.46532 3.05098e-22)
(0.833581 0.466588 -6.54788e-23)
(0.834518 0.482389 1.01049e-22)
(0.827982 0.496183 -1.42227e-22)
(0.802169 0.527148 -2.39973e-22)
(0.781884 0.507881 1.833e-22)
(0.744843 0.449531 -1.59276e-22)
(0.72929 0.316444 -2.49943e-22)
(0.704902 0.145782 -2.75876e-22)
(0.698211 -0.0338511 1.68117e-22)
(0.697831 -0.228203 -1.0302e-22)
(-0.152629 -0.446315 3.08432e-20)
(-0.161339 -0.451852 -1.21707e-20)
(-0.167556 -0.452055 6.25959e-21)
(-0.1725 -0.446171 -4.56777e-20)
(-0.175116 -0.433091 2.09088e-20)
(-0.174835 -0.412097 -2.63205e-20)
(-0.171008 -0.382659 2.90049e-20)
(-0.163083 -0.344508 -2.63707e-20)
(-0.150655 -0.297644 -6.18582e-21)
(-0.133516 -0.242443 5.22086e-20)
(-0.1117 -0.179715 -2.85485e-20)
(-0.08547 -0.110568 2.37188e-20)
(-0.0551464 -0.0362932 -5.413e-21)
(-0.0206412 0.0400879 -5.3975e-22)
(0.0156786 0.119642 -1.37652e-20)
(0.0532108 0.198084 -5.58085e-21)
(0.092975 0.272663 -2.36513e-21)
(0.13368 0.342181 6.17471e-21)
(0.174147 0.404805 -1.39672e-20)
(0.213122 0.459373 6.96218e-21)
(0.249251 0.505435 -3.2673e-21)
(0.281211 0.543351 1.84988e-21)
(0.307943 0.574189 3.31284e-21)
(0.329014 0.599256 6.36624e-21)
(0.345122 0.619193 -4.12546e-21)
(0.358549 0.632919 -3.86583e-21)
(0.373113 0.636856 2.89337e-21)
(0.393334 0.62524 4.17117e-22)
(0.423003 0.591869 4.23545e-21)
(0.463776 0.532558 -3.55025e-21)
(0.514627 0.446922 -5.99888e-21)
(0.572388 0.338454 1.03196e-20)
(0.632942 0.212972 -9.82121e-21)
(0.692583 0.0766328 7.0373e-21)
(0.748869 -0.0646147 2.9022e-21)
(0.800205 -0.20334 -4.73152e-21)
(0.844527 -0.329353 -2.70449e-21)
(0.879098 -0.431673 3.22969e-21)
(0.901832 -0.50316 -5.18503e-21)
(0.912547 -0.543463 1.29659e-21)
(0.912941 -0.558069 -1.30839e-21)
(0.905708 -0.55504 4.63139e-22)
(0.89338 -0.542143 -3.04592e-22)
(0.87757 -0.525396 1.34221e-21)
(0.859229 -0.507999 -1.20617e-21)
(0.839145 -0.491067 7.36545e-22)
(0.816788 -0.47668 -1.41889e-21)
(0.789313 -0.469245 3.94196e-22)
(0.754051 -0.469246 1.5154e-21)
(0.712692 -0.466195 -1.32752e-21)
(0.672748 -0.439217 -1.25108e-21)
(0.64319 -0.369966 1.67277e-21)
(0.630351 -0.254309 -1.56299e-21)
(0.635575 -0.105775 9.74438e-22)
(0.657307 0.0516876 2.02482e-22)
(0.690155 0.195218 2.95569e-22)
(0.727593 0.307939 -1.30271e-21)
(0.762476 0.388576 4.0153e-22)
(0.792271 0.434275 2.39459e-23)
(0.814737 0.459051 4.06935e-22)
(0.831887 0.463466 -6.32552e-22)
(0.835077 0.48295 2.4522e-22)
(0.831313 0.500412 1.08714e-22)
(0.807958 0.533873 1.61004e-22)
(0.790581 0.516218 -1.01186e-22)
(0.755115 0.45776 1.05337e-22)
(0.741082 0.322756 4.30071e-22)
(0.716812 0.150837 -3.31097e-22)
(0.710927 -0.0325298 -4.61261e-22)
(0.707526 -0.22795 2.65264e-22)
(-0.0778244 -0.434216 -1.44485e-20)
(-0.0925979 -0.441736 1.17267e-20)
(-0.10469 -0.444272 7.11425e-21)
(-0.116582 -0.441558 -4.85384e-20)
(-0.127012 -0.432397 4.81373e-20)
(-0.135313 -0.416003 -1.09521e-21)
(-0.140663 -0.391715 -2.97498e-20)
(-0.142229 -0.359118 1.78734e-20)
(-0.139278 -0.317921 4.91855e-21)
(-0.131281 -0.26825 4.95818e-21)
(-0.117941 -0.210606 -1.97559e-20)
(-0.0991635 -0.145903 -1.67383e-20)
(-0.0756227 -0.0753796 6.13011e-21)
(-0.0462655 -0.000804485 1.52078e-20)
(-0.0129188 0.075436 -8.7831e-21)
(0.0214149 0.15402 2.3059e-20)
(0.0584842 0.228666 -2.43736e-20)
(0.0978739 0.299696 2.53117e-20)
(0.137703 0.364858 -7.1477e-21)
(0.176768 0.422992 -1.62093e-20)
(0.213718 0.47351 1.33795e-20)
(0.24732 0.516496 -1.34493e-21)
(0.276715 0.552547 -2.0227e-21)
(0.301789 0.582252 6.28637e-21)
(0.323635 0.605455 -4.15067e-21)
(0.344788 0.620384 -1.14553e-20)
(0.368899 0.62318 9.83917e-21)
(0.399806 0.608476 -2.53396e-21)
(0.440231 0.571101 -2.92587e-21)
(0.490736 0.508149 6.48137e-21)
(0.549523 0.42026 1.59574e-20)
(0.613075 0.311415 -2.64886e-21)
(0.677316 0.187319 -3.29985e-20)
(0.738895 0.0535049 2.6247e-20)
(0.795851 -0.0847869 -1.37302e-20)
(0.846757 -0.220373 4.45482e-21)
(0.889319 -0.342821 1.01006e-20)
(0.920586 -0.440976 -4.11257e-21)
(0.938681 -0.508003 -4.05066e-22)
(0.944059 -0.544172 1.4381e-21)
(0.939123 -0.555496 -5.12608e-21)
(0.92705 -0.550186 -1.63045e-21)
(0.910623 -0.535759 4.15755e-21)
(0.891499 -0.517904 7.11228e-22)
(0.870407 -0.499711 -2.08495e-21)
(0.847954 -0.482033 7.09982e-22)
(0.823844 -0.46612 -4.97345e-22)
(0.795501 -0.455915 -1.24141e-21)
(0.759791 -0.453111 -2.57282e-22)
(0.717346 -0.449649 1.7038e-21)
(0.675025 -0.426235 1.01261e-21)
(0.642224 -0.363844 1.50182e-21)
(0.626206 -0.256199 -5.55686e-22)
(0.628879 -0.114753 2.01681e-21)
(0.648937 0.037763 -2.54151e-21)
(0.680966 0.179264 1.35165e-21)
(0.71853 0.292603 -1.17834e-21)
(0.754402 0.375676 7.46908e-23)
(0.78623 0.424174 6.62281e-22)
(0.811048 0.451894 -5.49449e-22)
(0.830835 0.459474 3.1723e-22)
(0.836286 0.482627 -1.99847e-22)
(0.835429 0.503691 -4.53036e-22)
(0.814667 0.539704 -2.73834e-22)
(0.800382 0.523884 1.17704e-22)
(0.766642 0.465647 -1.07065e-22)
(0.754291 0.328957 -4.90486e-22)
(0.730184 0.155896 -2.79349e-22)
(0.725284 -0.0308671 2.71303e-22)
(0.7188 -0.227257 -1.36331e-22)
(0.022095 -0.416453 4.67617e-20)
(0.00199883 -0.425273 -3.22034e-20)
(-0.0151301 -0.429247 5.06397e-20)
(-0.0332435 -0.428878 -1.88407e-20)
(-0.0509039 -0.422913 1.26399e-20)
(-0.0674252 -0.410587 -3.24932e-20)
(-0.0819528 -0.391069 5.49531e-21)
(-0.093425 -0.364087 -6.39485e-22)
(-0.100815 -0.328956 6.41664e-21)
(-0.103307 -0.285574 1.58505e-20)
(-0.10024 -0.234084 -1.26854e-20)
(-0.0911043 -0.175074 8.38565e-21)
(-0.0760801 -0.109567 4.65715e-21)
(-0.0552819 -0.0386445 1.47777e-21)
(-0.0275678 0.0341258 -1.37728e-20)
(0.00236971 0.110847 7.37428e-21)
(0.0345881 0.184798 -1.08345e-20)
(0.0712031 0.256639 1.32776e-21)
(0.109106 0.323738 -1.47519e-22)
(0.147312 0.384906 1.22636e-20)
(0.184474 0.439338 -1.04236e-20)
(0.219477 0.486771 -1.376e-21)
(0.251649 0.52724 -2.53347e-21)
(0.28115 0.560666 1.11482e-20)
(0.309309 0.58624 -3.88505e-21)
(0.338629 0.601708 -4.49732e-21)
(0.372333 0.603179 -3.62743e-21)
(0.41343 0.585844 1.42827e-20)
(0.46362 0.545525 -4.73308e-21)
(0.52257 0.480362 -9.13622e-21)
(0.587934 0.391745 -1.01442e-20)
(0.656021 0.283926 2.85483e-20)
(0.722926 0.162351 -7.43699e-21)
(0.785748 0.0318583 -2.69369e-21)
(0.842992 -0.10291 -7.47854e-21)
(0.893255 -0.234924 -6.18231e-21)
(0.933855 -0.353433 6.39632e-21)
(0.961597 -0.447166 5.24792e-21)
(0.974894 -0.509717 -5.41964e-21)
(0.974905 -0.542012 -6.49954e-21)
(0.964749 -0.550497 8.57911e-21)
(0.948045 -0.543406 -1.10025e-21)
(0.92775 -0.527924 2.13247e-24)
(0.905538 -0.50933 -1.06985e-21)
(0.881937 -0.490584 1.52808e-21)
(0.857323 -0.472407 -1.75825e-21)
(0.831574 -0.455338 1.97892e-21)
(0.80249 -0.442668 -2.08012e-23)
(0.766649 -0.436984 -1.18572e-22)
(0.723621 -0.432674 -5.81058e-22)
(0.679371 -0.412412 -9.77116e-22)
(0.643501 -0.356844 4.2894e-22)
(0.624249 -0.257516 1.49195e-21)
(0.624206 -0.123531 -3.55002e-21)
(0.642362 0.0237261 2.71878e-21)
(0.673291 0.162978 -1.55635e-21)
(0.710708 0.276721 5.57252e-22)
(0.747346 0.362046 2.82591e-22)
(0.78103 0.413209 -4.79917e-22)
(0.808043 0.443875 -8.44874e-23)
(0.830384 0.454609 2.92301e-22)
(0.838098 0.481382 -1.04718e-22)
(0.84027 0.505967 1.4754e-22)
(0.822228 0.544584 6.97228e-22)
(0.81122 0.530816 1.09309e-22)
(0.779378 0.473144 2.64905e-22)
(0.768892 0.335015 1.36351e-21)
(0.744986 0.160933 -3.47857e-23)
(0.741245 -0.0288799 -9.42732e-23)
(0.731642 -0.226118 -8.62952e-25)
(0.142543 -0.394722 2.46826e-20)
(0.118732 -0.403428 4.36035e-20)
(0.0975717 -0.408485 -5.01667e-20)
(0.0743486 -0.409452 -3.99151e-22)
(0.0506178 -0.405675 9.53473e-21)
(0.0270577 -0.396505 -7.24532e-21)
(0.00416601 -0.380787 -1.29847e-20)
(-0.0168338 -0.358947 -3.72019e-24)
(-0.0344868 -0.329749 2.91485e-20)
(-0.0478806 -0.292899 -1.64959e-21)
(-0.0560048 -0.248184 -2.4737e-21)
(-0.0579957 -0.195818 -3.79973e-21)
(-0.0535129 -0.136499 3.006e-21)
(-0.0429607 -0.071321 -2.41473e-21)
(-0.0236547 -0.0010192 3.03428e-21)
(-0.000541948 0.070239 -8.00126e-21)
(0.0252623 0.14283 -6.27096e-21)
(0.0571336 0.214283 8.95372e-21)
(0.091609 0.282365 5.43479e-22)
(0.127822 0.345687 -4.14939e-21)
(0.16445 0.403179 9.44099e-21)
(0.200453 0.454138 -1.23366e-21)
(0.235307 0.498046 -4.80074e-22)
(0.269342 0.534267 -9.43555e-21)
(0.303907 0.561456 2.37059e-22)
(0.341238 0.577061 1.05889e-20)
(0.383957 0.577338 -4.37158e-21)
(0.434217 0.558084 -1.03385e-20)
(0.492813 0.515996 6.15493e-21)
(0.558716 0.450033 -3.45821e-21)
(0.62922 0.362096 2.17117e-21)
(0.700597 0.256525 1.1754e-20)
(0.769211 0.138391 -3.20723e-21)
(0.832693 0.011796 -1.95047e-20)
(0.889925 -0.118965 2.10661e-20)
(0.939335 -0.247013 4.06923e-21)
(0.977746 -0.361198 4.79652e-21)
(1.00174 -0.450262 -3.23004e-21)
(1.01011 -0.508364 -2.00811e-20)
(1.00478 -0.537097 9.38106e-21)
(0.989593 -0.543215 1.30648e-21)
(0.968533 -0.534843 -3.30634e-22)
(0.944647 -0.518763 1.1219e-21)
(0.919594 -0.499797 2.70117e-22)
(0.893733 -0.480731 -5.29316e-22)
(0.867181 -0.462267 2.7418e-22)
(0.839916 -0.444398 3.31851e-22)
(0.810179 -0.429633 -5.69238e-22)
(0.774466 -0.421087 3.17724e-22)
(0.731341 -0.415492 5.44785e-22)
(0.685662 -0.397844 -6.12128e-22)
(0.646953 -0.348903 -8.36159e-22)
(0.624415 -0.258107 2.70944e-22)
(0.621469 -0.131954 1.64751e-22)
(0.637484 0.00972764 5.33964e-23)
(0.667048 0.14648 7.42798e-22)
(0.704066 0.260379 -2.74737e-22)
(0.741263 0.347746 -1.68495e-21)
(0.776628 0.401427 -2.27408e-22)
(0.805675 0.43502 -1.54203e-22)
(0.830485 0.448869 2.22481e-22)
(0.840456 0.479183 2.03621e-22)
(0.845761 0.507191 -4.36612e-22)
(0.83056 0.548454 -1.22839e-22)
(0.823014 0.536948 -3.66573e-22)
(0.793258 0.480193 -1.14915e-21)
(0.784833 0.340895 5.90119e-22)
(0.761169 0.16592 -8.08625e-22)
(0.758756 -0.0265884 2.19823e-22)
(0.746018 -0.224532 -7.71307e-23)
(0.27751 -0.369526 -4.26e-20)
(0.252 -0.377647 5.32621e-20)
(0.227239 -0.382973 5.80793e-20)
(0.200815 -0.384185 -6.6313e-20)
(0.172516 -0.381464 -3.34373e-20)
(0.143843 -0.374141 2.59399e-20)
(0.114321 -0.362093 1.92547e-20)
(0.0849027 -0.344556 2.18389e-20)
(0.0580086 -0.320657 -2.66153e-20)
(0.0343848 -0.289949 -2.97529e-22)
(0.01528 -0.25199 -1.42866e-20)
(0.00183957 -0.206599 4.95709e-21)
(-0.00520631 -0.154118 9.81751e-21)
(-0.00525244 -0.0952543 -7.42241e-22)
(0.00252772 -0.0305036 -4.50296e-21)
(0.01599 0.0347562 1.40185e-21)
(0.0348646 0.104668 2.48868e-21)
(0.059854 0.174233 -4.28083e-21)
(0.089292 0.241973 8.95488e-21)
(0.122148 0.306208 -4.29815e-21)
(0.157185 0.365562 -2.58391e-21)
(0.193417 0.418869 6.18013e-21)
(0.230424 0.465155 -6.64395e-21)
(0.268554 0.503283 2.20712e-21)
(0.308974 0.531481 1.07267e-21)
(0.353495 0.547053 4.98029e-21)
(0.404063 0.546484 -3.57099e-21)
(0.462011 0.526152 -8.54412e-21)
(0.527379 0.483476 1.37895e-21)
(0.598618 0.418021 -7.18217e-21)
(0.672803 0.331999 3.01513e-20)
(0.746273 0.229694 -1.19688e-20)
(0.815716 0.115705 -2.5331e-20)
(0.879398 -0.00645521 3.55239e-20)
(0.936386 -0.132962 -2.29534e-20)
(0.984692 -0.256687 -5.03988e-21)
(1.02063 -0.366154 1.2065e-20)
(1.04061 -0.450322 -3.87459e-21)
(1.04396 -0.504051 8.08688e-21)
(1.03341 -0.529577 -2.89128e-21)
(1.01345 -0.533821 4.41445e-21)
(0.988367 -0.524659 -8.41001e-21)
(0.961211 -0.508414 5.19708e-21)
(0.933581 -0.489427 2.12035e-21)
(0.905707 -0.470266 -3.72519e-21)
(0.877452 -0.451696 1.72955e-22)
(0.848803 -0.433344 1.84907e-21)
(0.818471 -0.416898 -2.11478e-21)
(0.783076 -0.405617 2.29529e-21)
(0.740303 -0.39834 -6.15561e-22)
(0.693732 -0.382666 1.85378e-22)
(0.652488 -0.339986 -1.12784e-22)
(0.626632 -0.257821 5.46194e-24)
(0.620578 -0.139851 -1.15955e-21)
(0.634207 -0.00402117 1.39183e-21)
(0.662146 0.129887 5.28171e-22)
(0.698539 0.24366 2.4131e-22)
(0.736099 0.332839 4.83987e-23)
(0.772975 0.388877 9.21111e-22)
(0.803893 0.42536 -5.96556e-22)
(0.831082 0.44226 5.15748e-22)
(0.843292 0.476006 -1.43355e-22)
(0.851816 0.507325 6.30134e-22)
(0.839564 0.551261 -1.31402e-22)
(0.835662 0.542213 -1.50916e-22)
(0.808191 0.486732 5.29424e-22)
(0.80204 0.346558 -7.22588e-22)
(0.778663 0.170826 8.59878e-22)
(0.777738 -0.0240149 6.23998e-22)
(0.761875 -0.2225 -1.59016e-22)
(0.393961 -0.350132 -1.05453e-20)
(0.367188 -0.354652 -9.6811e-20)
(0.338781 -0.355515 9.49863e-20)
(0.307872 -0.352826 -4.544e-20)
(0.27523 -0.346364 -2.97187e-21)
(0.241198 -0.336575 2.42246e-20)
(0.206435 -0.321861 -2.4885e-20)
(0.172372 -0.30212 -2.17976e-21)
(0.140297 -0.276716 1.18067e-20)
(0.111577 -0.24513 -3.34648e-21)
(0.0875833 -0.206874 -8.09597e-21)
(0.069292 -0.161965 1.13387e-20)
(0.0575192 -0.110558 -3.58658e-21)
(0.0532235 -0.0535135 -3.59221e-21)
(0.0563931 0.00736514 3.14678e-21)
(0.0665023 0.0721738 2.44085e-22)
(0.0830972 0.138297 -1.34864e-21)
(0.10591 0.204077 -1.62641e-21)
(0.133912 0.267681 -2.29925e-21)
(0.165998 0.327405 1.0857e-21)
(0.201283 0.381734 1.12587e-21)
(0.23939 0.429278 2.94875e-21)
(0.280546 0.46845 -4.34713e-21)
(0.325616 0.497166 3.87951e-21)
(0.375901 0.51267 1.13886e-22)
(0.43266 0.5117 -5.41488e-21)
(0.496493 0.491137 4.68236e-21)
(0.566824 0.448964 1.2102e-21)
(0.641725 0.385162 -1.70284e-20)
(0.718155 0.302086 3.78742e-21)
(0.792601 0.203839 1.36255e-20)
(0.862176 0.0945115 -9.97857e-21)
(0.925613 -0.0229063 5.1563e-21)
(0.982066 -0.144957 1.26271e-20)
(1.02903 -0.263987 -1.99809e-20)
(1.06215 -0.368349 9.59017e-21)
(1.07784 -0.447432 9.26225e-21)
(1.07611 -0.49692 -8.57216e-21)
(1.06052 -0.519634 6.5973e-22)
(1.03613 -0.522508 -7.53065e-21)
(1.00742 -0.513029 4.12981e-21)
(0.977348 -0.49702 1.78949e-21)
(0.947421 -0.478337 4.3028e-22)
(0.917776 -0.459302 -2.12401e-21)
(0.888053 -0.440776 -2.54394e-22)
(0.858166 -0.422213 2.92326e-21)
(0.827273 -0.404515 -3.3457e-22)
(0.792316 -0.390735 -1.34023e-21)
(0.750282 -0.381458 3.98382e-24)
(0.703379 -0.367054 -2.91915e-22)
(0.659988 -0.330092 2.89805e-22)
(0.630835 -0.25652 2.1791e-22)
(0.621477 -0.147023 6.14909e-22)
(0.632435 -0.0174541 -5.83855e-22)
(0.658476 0.113308 -4.30674e-23)
(0.694056 0.226646 -6.37659e-22)
(0.731799 0.317386 8.18482e-23)
(0.770014 0.375613 -6.27174e-23)
(0.802639 0.414927 1.36651e-22)
(0.832113 0.434794 -2.6287e-22)
(0.846531 0.471836 -3.44519e-22)
(0.858336 0.506335 1.70288e-22)
(0.849129 0.552959 -1.06109e-21)
(0.849045 0.546545 1.33274e-21)
(0.824067 0.492697 4.93456e-23)
(0.820413 0.351962 -6.00508e-22)
(0.797374 0.175626 -7.52154e-22)
(0.798089 -0.0211825 2.88121e-22)
(0.779135 -0.220025 9.41613e-23)
(0.536265 -0.322144 -6.09421e-20)
(0.508895 -0.325949 2.19557e-20)
(0.47973 -0.326209 -1.59007e-20)
(0.447944 -0.323113 -1.13685e-20)
(0.413785 -0.316687 2.89462e-21)
(0.377566 -0.307089 -6.3059e-22)
(0.339787 -0.29391 3.48061e-21)
(0.30138 -0.276873 1.18148e-20)
(0.263481 -0.255499 -1.67148e-20)
(0.227414 -0.229269 8.59645e-21)
(0.19467 -0.197547 8.6857e-24)
(0.166587 -0.160008 -4.90267e-21)
(0.144385 -0.116232 1.76239e-21)
(0.129178 -0.0665006 -3.26757e-22)
(0.121258 -0.0117243 -1.87359e-22)
(0.121095 0.0467436 -8.77807e-22)
(0.128691 0.108053 1.24504e-21)
(0.143668 0.170233 -4.6992e-22)
(0.165437 0.231523 5.60044e-22)
(0.193127 0.290024 -7.50351e-22)
(0.226019 0.343971 9.182e-22)
(0.263734 0.391599 -1.73979e-22)
(0.306332 0.430961 1.06802e-21)
(0.354329 0.459744 4.006e-21)
(0.408498 0.475177 1.29303e-21)
(0.469457 0.47423 -3.43597e-21)
(0.537174 0.454186 -9.12694e-21)
(0.610579 0.413442 1.24796e-20)
(0.687475 0.35223 1.83222e-21)
(0.764785 0.272907 -1.1147e-20)
(0.839202 0.179285 4.76625e-21)
(0.908285 0.0749096 1.79578e-20)
(0.971153 -0.0376957 -3.60979e-20)
(1.02682 -0.154985 8.63135e-21)
(1.07205 -0.268936 1.27664e-20)
(1.10192 -0.367823 3.54693e-21)
(1.11305 -0.441694 -1.45012e-20)
(1.10625 -0.487144 5.07144e-22)
(1.08589 -0.50748 -9.30064e-22)
(1.05749 -0.509488 9.5689e-21)
(1.02558 -0.500141 -5.32375e-21)
(0.992975 -0.484725 -8.26412e-23)
(0.96104 -0.466644 2.4507e-21)
(0.929856 -0.447946 -2.28656e-22)
(0.898895 -0.429593 -1.8663e-21)
(0.867933 -0.411038 2.11274e-21)
(0.8365 -0.392505 -4.1011e-22)
(0.802028 -0.376552 -1.05529e-21)
(0.761047 -0.365076 6.18871e-22)
(0.714369 -0.351218 -2.5517e-22)
(0.669304 -0.319268 -1.88653e-22)
(0.636952 -0.254081 -2.18248e-22)
(0.624074 -0.153307 5.82376e-22)
(0.632085 -0.0304478 -1.13466e-21)
(0.65599 0.0968617 3.24101e-22)
(0.690551 0.209424 -1.59387e-22)
(0.728301 0.301454 5.45622e-22)
(0.767686 0.361691 2.70631e-22)
(0.801852 0.403758 -2.60065e-22)
(0.833511 0.426488 8.62562e-23)
(0.850091 0.466666 3.32675e-22)
(0.865215 0.504201 -3.92454e-22)
(0.859134 0.553507 4.42915e-22)
(0.863023 0.54988 -1.77622e-22)
(0.840748 0.49802 2.70661e-22)
(0.839824 0.357064 5.82986e-23)
(0.817185 0.180294 4.75506e-22)
(0.819685 -0.018117 2.21942e-23)
(0.7977 -0.217115 8.54018e-23)
(0.672179 -0.294116 3.30695e-20)
(0.645 -0.297393 -2.74363e-20)
(0.615873 -0.297173 1.02319e-20)
(0.58428 -0.293711 1.89809e-20)
(0.550253 -0.287091 -2.91147e-20)
(0.513977 -0.27744 1.03361e-20)
(0.47571 -0.264749 2.76818e-20)
(0.435958 -0.248989 -1.08422e-20)
(0.3955 -0.229967 -9.92566e-21)
(0.355382 -0.207329 4.67058e-21)
(0.316936 -0.1805 -1.67638e-21)
(0.281596 -0.148991 -1.66832e-21)
(0.250837 -0.11217 1.57603e-21)
(0.226065 -0.0699705 5.45585e-21)
(0.208115 -0.022612 -9.52119e-21)
(0.19796 0.0293266 1.05108e-20)
(0.19613 0.0846004 -6.40169e-21)
(0.202576 0.141751 -5.11241e-21)
(0.217094 0.199156 9.23827e-21)
(0.239119 0.25491 -5.97144e-21)
(0.268133 0.307071 2.15154e-21)
(0.303778 0.353603 -6.29557e-22)
(0.345967 0.3923 -1.69237e-21)
(0.394885 0.420685 6.34514e-21)
(0.450821 0.435993 -1.4164e-20)
(0.513837 0.435384 1.85165e-20)
(0.583377 0.416444 1.10287e-20)
(0.65799 0.377842 -1.5986e-21)
(0.735291 0.319924 -3.29668e-20)
(0.812237 0.244924 8.38984e-21)
(0.885768 0.156268 2.03197e-20)
(0.953875 0.0569753 -2.24967e-20)
(1.0159 -0.0507364 1.8149e-20)
(1.07045 -0.163047 -1.06243e-20)
(1.11346 -0.271528 6.56273e-21)
(1.13958 -0.364611 -6.32146e-21)
(1.14588 -0.433231 3.79284e-21)
(1.13409 -0.474925 8.65494e-22)
(1.10934 -0.493351 -2.82001e-21)
(1.0774 -0.494987 4.91697e-21)
(1.04276 -0.486187 -6.35631e-21)
(1.00802 -0.471677 -1.62008e-21)
(0.974376 -0.454455 7.30835e-22)
(0.941873 -0.436295 2.75784e-22)
(0.909892 -0.418231 -4.29177e-22)
(0.87803 -0.399851 1.93365e-21)
(0.846082 -0.380867 -3.55663e-22)
(0.812076 -0.363134 -3.98676e-22)
(0.772365 -0.34939 -4.18333e-22)
(0.726443 -0.335396 7.55385e-22)
(0.680253 -0.307616 1.02362e-23)
(0.644906 -0.250416 8.32389e-22)
(0.628338 -0.158515 -1.71958e-21)
(0.63311 -0.0427661 1.18247e-21)
(0.654618 0.080673 2.06174e-22)
(0.687965 0.19208 -2.57166e-22)
(0.725549 0.28511 2.34725e-22)
(0.765931 0.347168 -3.14003e-22)
(0.801472 0.391892 1.50019e-23)
(0.835204 0.417369 1.24912e-23)
(0.853885 0.460501 -2.92987e-22)
(0.872337 0.500912 1.52249e-22)
(0.869444 0.552871 -2.95521e-22)
(0.877447 0.552161 5.54e-22)
(0.85808 0.502631 8.45995e-23)
(0.86012 0.361822 2.70693e-22)
(0.837956 0.184806 -9.68581e-22)
(0.842378 -0.0148455 5.80919e-22)
(0.817452 -0.21378 -1.05336e-22)
(0.769895 -0.269406 -3.55304e-20)
(0.741324 -0.269049 2.6228e-20)
(0.710544 -0.265524 -5.83815e-20)
(0.67759 -0.258866 8.63249e-21)
(0.642562 -0.249181 1.53169e-20)
(0.605567 -0.236621 -7.75534e-21)
(0.56683 -0.221349 -2.82193e-21)
(0.526758 -0.203444 2.22153e-21)
(0.48599 -0.182838 -1.29413e-22)
(0.445471 -0.159221 -7.20125e-22)
(0.406414 -0.132165 3.38602e-21)
(0.37024 -0.101014 -6.56395e-21)
(0.338492 -0.0653811 1.00091e-20)
(0.312504 -0.0250025 2.73498e-21)
(0.293531 0.0199589 -1.12874e-21)
(0.282702 0.0684383 -1.06312e-20)
(0.280566 0.119511 -3.91645e-21)
(0.287303 0.171761 4.94368e-21)
(0.302734 0.223427 3.06041e-21)
(0.32658 0.272514 -9.18983e-22)
(0.358561 0.316837 -7.88736e-22)
(0.398495 0.354031 9.00473e-23)
(0.446309 0.381519 2.34513e-21)
(0.501894 0.396555 4.28962e-21)
(0.564863 0.396449 -7.30412e-23)
(0.634252 0.378994 -8.54672e-21)
(0.708328 0.343014 -8.92721e-21)
(0.784605 0.288846 3.66469e-20)
(0.860124 0.218499 1.42517e-21)
(0.932098 0.134949 -5.93393e-20)
(0.998859 0.0407382 5.79511e-20)
(1.05975 -0.062032 -4.56854e-20)
(1.11273 -0.169109 1.45304e-20)
(1.15289 -0.271729 1.20567e-20)
(1.1747 -0.358749 -1.39986e-21)
(1.17597 -0.422189 6.79563e-21)
(1.15941 -0.460496 -1.50802e-20)
(1.13072 -0.47751 9.40684e-21)
(1.09578 -0.479245 -3.86632e-21)
(1.0589 -0.47136 8.9996e-23)
(1.02243 -0.458022 4.45562e-21)
(0.987373 -0.441873 -2.91356e-21)
(0.953762 -0.424439 -1.64498e-21)
(0.920958 -0.406774 1.9129e-21)
(0.888378 -0.388688 -9.38914e-22)
(0.855955 -0.369585 2.80872e-22)
(0.82235 -0.350509 -3.4981e-22)