/*--------------------------------*- C++ -*----------------------------------*\
  =========                 |
  \\      /  F ield         | OpenFOAM: The Open Source CFD Toolbox
   \\    /   O peration     | Website:  https://openfoam.org
    \\  /    A nd           | Version:  7
     \\/     M anipulation  |
\*---------------------------------------------------------------------------*/
FoamFile
{
    version     2.0;
    format      ascii;
    class       volScalarField;
    location    "50.999592";
    object      p;
}
// * * * * * * * * * * * * * * * * * * * * * * * * * * * * * * * * * * * * * //

dimensions      [0 2 -2 0 0 0 0];

internalField   nonuniform List<scalar> 
5800
(
-0.219379
-0.219195
-0.218827
-0.218273
-0.217535
-0.214096
-0.21011
-0.205911
-0.201637
-0.197294
-0.192876
-0.18839
-0.183845
-0.179246
-0.174599
-0.16991
-0.165186
-0.160431
-0.155652
-0.150856
-0.146049
-0.141238
-0.136431
-0.131634
-0.126855
-0.122101
-0.117379
-0.112697
-0.108062
-0.103482
-0.0989611
-0.0945079
-0.0901279
-0.085827
-0.0816107
-0.0774841
-0.0734519
-0.0695183
-0.0656871
-0.0619618
-0.0583452
-0.0548399
-0.0514479
-0.0481707
-0.0450097
-0.0419655
-0.0390385
-0.0362288
-0.0335359
-0.0309593
-0.0284978
-0.0261502
-0.0239149
-0.0217901
-0.0197739
-0.017864
-0.0160581
-0.0143538
-0.0127485
-0.0112396
-0.00982431
-0.00850027
-0.0072641
-0.00611489
-0.00504579
-0.00406452
-0.00314445
-0.00233901
-0.00151929
-0.000963788
-5.61647e-05
-0.000109214
0.00166273
-0.000515283
0.00522918
-0.214431
-0.210442
-0.206173
-0.201869
-0.19751
-0.193077
-0.188578
-0.184022
-0.179415
-0.174761
-0.170066
-0.165335
-0.160575
-0.155791
-0.15099
-0.146179
-0.141364
-0.136552
-0.131751
-0.126968
-0.12221
-0.117484
-0.112799
-0.10816
-0.103576
-0.0990516
-0.0945948
-0.0902113
-0.085907
-0.0816874
-0.0775575
-0.073522
-0.0695853
-0.065751
-0.0620226
-0.0584031
-0.0548949
-0.0515001
-0.0482202
-0.0450565
-0.0420098
-0.0390803
-0.0362682
-0.0335731
-0.0309942
-0.0285306
-0.0261809
-0.0239437
-0.0218171
-0.0197991
-0.0178875
-0.01608
-0.0143742
-0.0127674
-0.0112571
-0.00984058
-0.00851532
-0.007278
-0.0061277
-0.00505758
-0.00407537
-0.00315441
-0.00234814
-0.00152776
-0.000971363
-6.3999e-05
-0.000114685
0.00165218
-0.000514127
0.00520074
-0.215097
-0.211103
-0.206695
-0.20233
-0.197938
-0.193475
-0.188951
-0.184375
-0.17975
-0.175081
-0.170373
-0.165631
-0.16086
-0.156066
-0.151256
-0.146435
-0.141612
-0.136792
-0.131983
-0.127191
-0.122426
-0.117693
-0.113
-0.108354
-0.103762
-0.0992313
-0.0947675
-0.0903772
-0.0860662
-0.0818399
-0.0777035
-0.0736617
-0.0697186
-0.0658782
-0.0621439
-0.0585185
-0.0550045
-0.0516041
-0.0483189
-0.0451499
-0.0420981
-0.0391637
-0.0363469
-0.0336472
-0.0310639
-0.0285961
-0.0262424
-0.0240012
-0.0218709
-0.0198494
-0.0179344
-0.0161238
-0.0144149
-0.0128052
-0.0112922
-0.0098731
-0.00854539
-0.00730577
-0.00615331
-0.00508114
-0.00409704
-0.00317431
-0.00236639
-0.0015447
-0.000986503
-7.96562e-05
-0.000125624
0.00163115
-0.000511888
0.00514424
-0.216084
-0.212086
-0.207471
-0.203015
-0.198573
-0.194066
-0.189504
-0.184897
-0.180246
-0.175555
-0.170827
-0.166068
-0.161281
-0.156472
-0.151648
-0.146814
-0.141978
-0.137146
-0.132325
-0.127522
-0.122745
-0.118001
-0.113298
-0.108641
-0.104039
-0.0994977
-0.0950238
-0.0906235
-0.0863026
-0.0820666
-0.0779207
-0.0738695
-0.0699172
-0.0660677
-0.0623245
-0.0586905
-0.0551681
-0.0517594
-0.0484661
-0.0452894
-0.04223
-0.0392884
-0.0364645
-0.0337579
-0.0311681
-0.028694
-0.0263343
-0.0240874
-0.0219515
-0.0199247
-0.0180047
-0.0161893
-0.0144759
-0.0128619
-0.0113448
-0.00992179
-0.00859044
-0.00734736
-0.00619167
-0.00511644
-0.00412952
-0.00320412
-0.00239374
-0.00157008
-0.00100919
-0.000103111
-0.000142021
0.00159975
-0.000508702
0.00506044
-0.217376
-0.213383
-0.208494
-0.203916
-0.199409
-0.194842
-0.190228
-0.185579
-0.180894
-0.176173
-0.17142
-0.166637
-0.161829
-0.157001
-0.152159
-0.147308
-0.142455
-0.137607
-0.132771
-0.127954
-0.123163
-0.118405
-0.113687
-0.109017
-0.104402
-0.0998474
-0.0953604
-0.0909473
-0.0866137
-0.0823652
-0.0782069
-0.0741435
-0.0701793
-0.066318
-0.0625633
-0.0589179
-0.0553845
-0.051965
-0.0486612
-0.0454742
-0.0424049
-0.0394537
-0.0366204
-0.033905
-0.0313065
-0.028824
-0.0264563
-0.0242018
-0.0220586
-0.0200248
-0.0180982
-0.0162764
-0.0145569
-0.0129372
-0.0114147
-0.00998658
-0.00865038
-0.00740272
-0.00624273
-0.00516343
-0.00417275
-0.00324382
-0.00243015
-0.00160388
-0.00103938
-0.000134325
-0.000163859
0.00155817
-0.000504768
0.00495046
-0.218949
-0.214978
-0.209751
-0.205022
-0.200434
-0.195793
-0.191114
-0.186412
-0.181683
-0.176925
-0.172139
-0.167327
-0.162493
-0.157642
-0.152778
-0.147906
-0.143034
-0.138168
-0.133314
-0.128479
-0.123671
-0.118897
-0.114163
-0.109477
-0.104846
-0.100276
-0.0957733
-0.0913448
-0.0869961
-0.0827326
-0.0785594
-0.0744813
-0.0705026
-0.0666272
-0.0628584
-0.0591992
-0.0556523
-0.0522196
-0.048903
-0.0457034
-0.0426219
-0.0396588
-0.0368142
-0.0340876
-0.0314785
-0.0289857
-0.0266081
-0.0243441
-0.0221919
-0.0201494
-0.0182145
-0.0163849
-0.0146579
-0.0130311
-0.0115019
-0.0100673
-0.00872509
-0.00747173
-0.00630639
-0.00522204
-0.00422667
-0.00329335
-0.00247556
-0.00164605
-0.00107704
-0.000173243
-0.000191118
0.00150666
-0.000500339
0.00481578
-0.220772
-0.21685
-0.211225
-0.206316
-0.201634
-0.196903
-0.192146
-0.187381
-0.182599
-0.177796
-0.172971
-0.168125
-0.163261
-0.158382
-0.153493
-0.148598
-0.143704
-0.138817
-0.133943
-0.129089
-0.124262
-0.119469
-0.114718
-0.110014
-0.105365
-0.100777
-0.0962574
-0.0918116
-0.0874456
-0.083165
-0.0789749
-0.07488
-0.0708846
-0.0669927
-0.0632076
-0.0595325
-0.0559698
-0.0525218
-0.04919
-0.0459758
-0.04288
-0.039903
-0.0370448
-0.0343052
-0.0316834
-0.0291785
-0.0267892
-0.024514
-0.022351
-0.0202982
-0.0183535
-0.0165144
-0.0147786
-0.0131433
-0.011606
-0.0101639
-0.00881443
-0.00755426
-0.00638254
-0.00529215
-0.00429119
-0.00335262
-0.00252992
-0.00169655
-0.00112211
-0.000219793
-0.000223764
0.00144552
-0.000495706
0.00465816
-0.222813
-0.218968
-0.212892
-0.207779
-0.202989
-0.198156
-0.193308
-0.188469
-0.183626
-0.178771
-0.1739
-0.169016
-0.164117
-0.159207
-0.15429
-0.14937
-0.144452
-0.139542
-0.134647
-0.129773
-0.124926
-0.120114
-0.115343
-0.11062
-0.105952
-0.101346
-0.096807
-0.0923424
-0.0879577
-0.0836584
-0.0794496
-0.075336
-0.0713221
-0.0674118
-0.0636086
-0.0599155
-0.0563352
-0.0528697
-0.0495209
-0.04629
-0.0431778
-0.0401849
-0.0373113
-0.0345567
-0.0319205
-0.0294017
-0.0269989
-0.0247107
-0.0225353
-0.0204707
-0.0185146
-0.0166648
-0.0149186
-0.0132735
-0.0117269
-0.010276
-0.00891821
-0.00765016
-0.00647104
-0.00537365
-0.0043662
-0.00342156
-0.00259313
-0.00175529
-0.00117451
-0.00027388
-0.000261755
0.00137512
-0.000491194
0.00447964
-0.22502
-0.221293
-0.214721
-0.209383
-0.204477
-0.19953
-0.194579
-0.189655
-0.184743
-0.179829
-0.174908
-0.16998
-0.165044
-0.160101
-0.155154
-0.150207
-0.145265
-0.140332
-0.135415
-0.13052
-0.125653
-0.120821
-0.11603
-0.111288
-0.1066
-0.101974
-0.0974161
-0.0929318
-0.0885273
-0.084208
-0.0799792
-0.0758457
-0.0718118
-0.0678816
-0.0640585
-0.0603458
-0.056746
-0.0532614
-0.0498937
-0.0466443
-0.0435141
-0.0405035
-0.0376126
-0.0348413
-0.0321889
-0.0296544
-0.0272365
-0.0249338
-0.0227444
-0.0206664
-0.0186975
-0.0168354
-0.0150776
-0.0134215
-0.0118643
-0.0104034
-0.00903619
-0.00775921
-0.0065717
-0.00546638
-0.00445156
-0.00350004
-0.00266508
-0.00182219
-0.00123413
-0.000335388
-0.000305033
0.00129588
-0.000487143
0.00428251
-0.223768
-0.216669
-0.211093
-0.206066
-0.200996
-0.195933
-0.190917
-0.185928
-0.180949
-0.175973
-0.170999
-0.166022
-0.161045
-0.156068
-0.151094
-0.146127
-0.141171
-0.136233
-0.131318
-0.126431
-0.12158
-0.11677
-0.112008
-0.107302
-0.102656
-0.0980781
-0.0935737
-0.0891488
-0.0848089
-0.0805593
-0.0764048
-0.0723499
-0.0683985
-0.0645544
-0.0608206
-0.0572
-0.0536946
-0.0503065
-0.047037
-0.043887
-0.0408571
-0.0379474
-0.0351577
-0.0324874
-0.0299357
-0.0275011
-0.0251823
-0.0229775
-0.0208846
-0.0189016
-0.0170259
-0.0152551
-0.0135867
-0.0120179
-0.0105458
-0.0091681
-0.00788117
-0.00668432
-0.00557015
-0.00454711
-0.00358791
-0.00274564
-0.00189713
-0.00130088
-0.000404174
-0.000353529
0.00120827
-0.000483898
0.00406923
-0.226323
-0.218683
-0.212868
-0.20772
-0.202521
-0.197338
-0.192224
-0.187154
-0.182106
-0.177073
-0.17205
-0.167033
-0.162021
-0.157014
-0.152014
-0.147023
-0.142047
-0.137089
-0.132155
-0.12725
-0.122381
-0.117553
-0.112773
-0.108048
-0.103384
-0.0987861
-0.0942619
-0.0898166
-0.085456
-0.0811852
-0.0770092
-0.0729325
-0.0689592
-0.065093
-0.0613371
-0.0576943
-0.054167
-0.0507572
-0.0474661
-0.0442949
-0.0412442
-0.0383142
-0.0355046
-0.032815
-0.0302445
-0.0277918
-0.0254555
-0.0232338
-0.0211248
-0.0191262
-0.0172356
-0.0154507
-0.0137687
-0.0121871
-0.0107028
-0.00931361
-0.00801575
-0.00680862
-0.00568473
-0.00465264
-0.003685
-0.00283464
-0.00197997
-0.0013746
-0.000480067
-0.000407153
0.00111282
-0.000481803
0.0038424
-0.228871
-0.220698
-0.214652
-0.20939
-0.204063
-0.198759
-0.193545
-0.188391
-0.183274
-0.178183
-0.173111
-0.168054
-0.163009
-0.157974
-0.15295
-0.147939
-0.142944
-0.137969
-0.133019
-0.128098
-0.123213
-0.11837
-0.113573
-0.108831
-0.104149
-0.0995333
-0.09499
-0.090525
-0.0861439
-0.081852
-0.0776544
-0.0735556
-0.0695598
-0.0656709
-0.0618921
-0.0582263
-0.0546761
-0.0512433
-0.0479295
-0.0447359
-0.0416631
-0.0387114
-0.0358806
-0.0331703
-0.0305797
-0.0281075
-0.0257524
-0.0235125
-0.021386
-0.0193706
-0.017464
-0.0156637
-0.0139671
-0.0123715
-0.0108741
-0.00947233
-0.0081626
-0.00694431
-0.00580986
-0.0047679
-0.0037911
-0.0029319
-0.00207053
-0.00145514
-0.000562867
-0.000465801
0.00101009
-0.000481184
0.0036047
-0.222631
-0.216382
-0.211021
-0.205572
-0.200151
-0.19484
-0.189606
-0.184421
-0.179274
-0.174158
-0.169064
-0.163989
-0.15893
-0.153887
-0.148859
-0.143849
-0.138861
-0.133898
-0.128965
-0.124067
-0.11921
-0.1144
-0.109643
-0.104945
-0.100313
-0.0957518
-0.091268
-0.0868672
-0.0825548
-0.0783359
-0.0742151
-0.0701967
-0.0662847
-0.0624825
-0.0587931
-0.0552191
-0.0517625
-0.0484251
-0.045208
-0.0421119
-0.0391374
-0.0362842
-0.033552
-0.03094
-0.0284471
-0.0260718
-0.0238126
-0.0216674
-0.019634
-0.0177102
-0.0158935
-0.0141812
-0.0125707
-0.011059
-0.00964383
-0.00832135
-0.00709104
-0.00594523
-0.00489264
-0.00390597
-0.00303719
-0.00216862
-0.00154231
-0.000652344
-0.000529348
0.000900669
-0.000482346
0.00335883
-0.217979
-0.212543
-0.206986
-0.201461
-0.196066
-0.19076
-0.185515
-0.18032
-0.175165
-0.170041
-0.164943
-0.159865
-0.154807
-0.149768
-0.144749
-0.139752
-0.134781
-0.129839
-0.124933
-0.120066
-0.115245
-0.110476
-0.105765
-0.101118
-0.0965414
-0.0920404
-0.0876211
-0.083289
-0.0790494
-0.074907
-0.0708662
-0.0669311
-0.0631052
-0.0593918
-0.0557935
-0.0523125
-0.0489506
-0.0457091
-0.0425889
-0.0395904
-0.0367138
-0.0339586
-0.0313241
-0.0288093
-0.0264128
-0.024133
-0.021968
-0.0199156
-0.0179736
-0.0161394
-0.0144104
-0.012784
-0.0112572
-0.00982764
-0.00849155
-0.00724843
-0.00609049
-0.00502654
-0.00402934
-0.00315026
-0.002274
-0.00163589
-0.000748235
-0.000597652
0.000785183
-0.000485573
0.00310749
-0.21935
-0.213873
-0.208236
-0.202634
-0.197174
-0.191813
-0.186522
-0.181291
-0.176109
-0.170964
-0.165851
-0.160763
-0.155697
-0.150653
-0.14563
-0.14063
-0.135656
-0.130712
-0.125801
-0.120929
-0.116101
-0.111323
-0.106602
-0.101943
-0.0973522
-0.0928359
-0.0883998
-0.0840494
-0.07979
-0.0756267
-0.071564
-0.067606
-0.0637566
-0.060019
-0.056396
-0.0528901
-0.0495032
-0.0462366
-0.0430915
-0.0400683
-0.0371672
-0.034388
-0.0317301
-0.0291924
-0.0267737
-0.0244724
-0.0222866
-0.0202142
-0.0182529
-0.0164003
-0.0146537
-0.0130105
-0.0114678
-0.0100231
-0.0086726
-0.00741592
-0.00624515
-0.00516916
-0.00416082
-0.00327076
-0.00238637
-0.00173561
-0.000850216
-0.000670536
0.000664293
-0.000491135
0.00285328
-0.214909
-0.209233
-0.203594
-0.198102
-0.192713
-0.187399
-0.18215
-0.176955
-0.171804
-0.166687
-0.161599
-0.156535
-0.151495
-0.146476
-0.14148
-0.13651
-0.131567
-0.126657
-0.121785
-0.116954
-0.112172
-0.107444
-0.102777
-0.098175
-0.0936458
-0.0891949
-0.0848279
-0.0805504
-0.0763673
-0.0722836
-0.0683035
-0.0644309
-0.0606693
-0.0570218
-0.0534909
-0.0500787
-0.0467867
-0.0436161
-0.0405676
-0.0376415
-0.0348376
-0.0321555
-0.0295942
-0.0271524
-0.0248287
-0.0226213
-0.0205281
-0.0185468
-0.0166749
-0.01491
-0.0132492
-0.0116898
-0.0102292
-0.00886371
-0.00759282
-0.00640861
-0.00531996
-0.00429993
-0.00339828
-0.00250533
-0.00184114
-0.000957906
-0.000747791
0.000538687
-0.000499276
0.00259866
-0.215517
-0.209862
-0.204249
-0.198776
-0.193399
-0.188096
-0.182859
-0.177676
-0.172536
-0.167433
-0.162358
-0.157309
-0.152283
-0.147277
-0.142294
-0.137335
-0.132402
-0.127499
-0.122631
-0.117803
-0.113021
-0.108291
-0.103618
-0.0990086
-0.0944693
-0.090006
-0.0856245
-0.0813304
-0.0771291
-0.0730254
-0.0690239
-0.0651287
-0.0613435
-0.0576716
-0.0541156
-0.0506778
-0.04736
-0.0441635
-0.0410892
-0.0381373
-0.0353081
-0.0326009
-0.0300151
-0.0275495
-0.0252026
-0.0229727
-0.0208578
-0.0188555
-0.0169637
-0.0151795
-0.0135004
-0.0119235
-0.0104463
-0.00906505
-0.00777926
-0.00658095
-0.00547899
-0.00444669
-0.00353278
-0.00263084
-0.00195239
-0.00107114
-0.000829285
0.00040884
-0.000510029
0.00234575
-0.210157
-0.204659
-0.199269
-0.193953
-0.188699
-0.183501
-0.178351
-0.173241
-0.168164
-0.163114
-0.158088
-0.153083
-0.148097
-0.143131
-0.138187
-0.133267
-0.128375
-0.123516
-0.118693
-0.113913
-0.109182
-0.104505
-0.0998897
-0.0953413
-0.0908662
-0.0864705
-0.0821599
-0.07794
-0.0738158
-0.0697922
-0.0658735
-0.0620636
-0.058366
-0.0547835
-0.0513187
-0.0479734
-0.0447493
-0.0416473
-0.038668
-0.0358115
-0.0330776
-0.0304655
-0.0279742
-0.0256024
-0.0233483
-0.02121
-0.0191853
-0.0172719
-0.015467
-0.0137683
-0.0121726
-0.0106776
-0.00927937
-0.00797758
-0.00676415
-0.00564789
-0.00460246
-0.00367534
-0.00276372
-0.0020699
-0.00119031
-0.000915131
0.000274673
-0.000523016
0.00209623
-0.204751
-0.199504
-0.194292
-0.189121
-0.18399
-0.178895
-0.173832
-0.168796
-0.163783
-0.158791
-0.153816
-0.148859
-0.143919
-0.138998
-0.134099
-0.129224
-0.124379
-0.119568
-0.114796
-0.110069
-0.105393
-0.100776
-0.0962217
-0.0917382
-0.0873311
-0.0830065
-0.07877
-0.0746271
-0.0705827
-0.0666414
-0.0628075
-0.0590845
-0.0554756
-0.0519836
-0.0486107
-0.0453585
-0.0422283
-0.0392208
-0.0363363
-0.0335747
-0.0309355
-0.0284176
-0.0260199
-0.0237407
-0.0215781
-0.01953
-0.0175941
-0.0157678
-0.0140485
-0.0124332
-0.0109196
-0.00950367
-0.00818518
-0.00695595
-0.00582472
-0.00476556
-0.00382454
-0.00290279
-0.00219278
-0.0013145
-0.00100499
0.000137319
-0.000539186
0.00185332
-0.202369
-0.197552
-0.192696
-0.187819
-0.182933
-0.178042
-0.173153
-0.168267
-0.163385
-0.158508
-0.153637
-0.148772
-0.143916
-0.139071
-0.134239
-0.129426
-0.124636
-0.119873
-0.115143
-0.110454
-0.10581
-0.101219
-0.0966874
-0.0922213
-0.0878274
-0.083512
-0.0792811
-0.0751404
-0.0710952
-0.0671504
-0.0633104
-0.0595793
-0.0559605
-0.0524569
-0.049071
-0.0458047
-0.0426596
-0.0396364
-0.0367358
-0.0339577
-0.0313017
-0.0287671
-0.0263526
-0.0240569
-0.021878
-0.019814
-0.0178625
-0.016021
-0.0142871
-0.0126576
-0.0111304
-0.00970143
-0.00837041
-0.00712917
-0.00598643
-0.00491656
-0.00396455
-0.00303476
-0.0023114
-0.00143458
-0.0010957
5.60123e-06
-0.000566411
0.00162542
-0.197419
-0.192611
-0.187772
-0.182914
-0.178048
-0.173179
-0.16831
-0.163443
-0.158579
-0.153718
-0.148864
-0.144016
-0.139178
-0.134354
-0.129546
-0.124761
-0.120003
-0.115278
-0.110592
-0.105952
-0.101364
-0.0968349
-0.0923711
-0.0879791
-0.0836652
-0.0794355
-0.0752957
-0.071251
-0.0673065
-0.0634665
-0.0597351
-0.0561157
-0.0526113
-0.0492243
-0.0459568
-0.0428101
-0.0397853
-0.0368828
-0.0341028
-0.0314447
-0.0289078
-0.026491
-0.0241928
-0.0220114
-0.0199447
-0.0179906
-0.0161463
-0.0144096
-0.0127772
-0.0112471
-0.00981501
-0.00848093
-0.00723647
-0.00609055
-0.0050174
-0.0040618
-0.00312945
-0.00240042
-0.00152599
-0.00117099
-9.5639e-05
-0.000605027
0.0014409
-0.194169
-0.189701
-0.185147
-0.180536
-0.175885
-0.171207
-0.166509
-0.161797
-0.157074
-0.152345
-0.147611
-0.142876
-0.138144
-0.133419
-0.128705
-0.124007
-0.119332
-0.114684
-0.110071
-0.105498
-0.100973
-0.0965031
-0.0920938
-0.0877523
-0.0834849
-0.0792978
-0.0751969
-0.0711876
-0.0672751
-0.0634638
-0.059758
-0.0561613
-0.0526769
-0.0493073
-0.0460548
-0.0429209
-0.0399067
-0.037013
-0.0342399
-0.0315872
-0.0290543
-0.0266401
-0.0243433
-0.0221622
-0.020095
-0.0181393
-0.0162929
-0.0145532
-0.0129174
-0.0113832
-0.00994681
-0.00860793
-0.00735846
-0.00620702
-0.00512874
-0.00416648
-0.00323049
-0.00249102
-0.00162054
-0.00123985
-0.000199838
-0.000622925
0.00126575
-0.190313
-0.186164
-0.181893
-0.177534
-0.173109
-0.168635
-0.164125
-0.159585
-0.155023
-0.150442
-0.145849
-0.141247
-0.13664
-0.132034
-0.127433
-0.122843
-0.11827
-0.113719
-0.109198
-0.104713
-0.100271
-0.0958788
-0.091543
-0.0872703
-0.0830674
-0.0789404
-0.0748952
-0.0709375
-0.0670724
-0.0633048
-0.0596388
-0.0560782
-0.0526264
-0.0492862
-0.0460599
-0.0429492
-0.0399554
-0.0370795
-0.0343217
-0.031682
-0.02916
-0.0267547
-0.0244651
-0.0222894
-0.0202261
-0.018273
-0.0164279
-0.0146884
-0.0130518
-0.011516
-0.0100771
-0.00873496
-0.00748181
-0.00632567
-0.00524328
-0.00427428
-0.00333589
-0.00258421
-0.00172076
-0.00130831
-0.000312795
-0.000631412
0.00108082
-0.186505
-0.182642
-0.178632
-0.174509
-0.170301
-0.166026
-0.161699
-0.157329
-0.152925
-0.148493
-0.14404
-0.139569
-0.135088
-0.130601
-0.126113
-0.121631
-0.11716
-0.112708
-0.10828
-0.103883
-0.099525
-0.0952119
-0.0909508
-0.0867484
-0.0826114
-0.078546
-0.0745584
-0.070654
-0.0668383
-0.063116
-0.0594917
-0.0559692
-0.052552
-0.049243
-0.0460447
-0.042959
-0.0399875
-0.037131
-0.0343901
-0.031765
-0.0292553
-0.0268604
-0.0245791
-0.0224102
-0.0203519
-0.0184025
-0.0165597
-0.0148213
-0.0131847
-0.0116478
-0.0102071
-0.00886217
-0.00760583
-0.00644532
-0.0053592
-0.00438353
-0.00344315
-0.00267888
-0.00182311
-0.0013776
-0.000427834
-0.0006392
0.000894053
-0.182596
-0.179006
-0.175252
-0.171367
-0.167379
-0.163308
-0.15917
-0.154977
-0.150738
-0.146461
-0.142154
-0.137822
-0.133471
-0.129108
-0.124739
-0.120369
-0.116005
-0.111655
-0.107323
-0.103019
-0.0987472
-0.0945162
-0.0903325
-0.086203
-0.0821343
-0.0781328
-0.0742046
-0.0703556
-0.066591
-0.0629159
-0.0593348
-0.0558518
-0.0524705
-0.0491939
-0.0460248
-0.0429652
-0.0400167
-0.0371806
-0.0344575
-0.0318476
-0.029351
-0.0269669
-0.0246946
-0.0225327
-0.0204799
-0.0185344
-0.0166941
-0.014957
-0.0133206
-0.0117829
-0.0103403
-0.00899272
-0.0077332
-0.00656824
-0.00547834
-0.00449579
-0.00355336
-0.00277606
-0.00192795
-0.00144858
-0.000544354
-0.000647799
0.000707226
-0.17853
-0.175203
-0.171701
-0.168054
-0.16429
-0.160429
-0.156487
-0.152478
-0.148413
-0.144299
-0.140146
-0.13596
-0.131748
-0.127516
-0.123272
-0.119021
-0.114771
-0.110528
-0.106299
-0.102091
-0.097912
-0.0937679
-0.0896663
-0.0856139
-0.0816176
-0.0776838
-0.0738188
-0.0700284
-0.0663181
-0.0626931
-0.059158
-0.0557171
-0.0523741
-0.0491322
-0.0459943
-0.0429626
-0.040039
-0.0372247
-0.0345207
-0.0319274
-0.0294448
-0.0270726
-0.0248101
-0.0226562
-0.0206095
-0.0186685
-0.0168312
-0.0150958
-0.0134598
-0.0119213
-0.0104772
-0.00912694
-0.00786427
-0.00669479
-0.00560106
-0.00461139
-0.00366682
-0.00287598
-0.00203544
-0.00152136
-0.000662404
-0.000657106
0.000521271
-0.174329
-0.171252
-0.167995
-0.164584
-0.161044
-0.157396
-0.153656
-0.149837
-0.14595
-0.142007
-0.138015
-0.133981
-0.129915
-0.125821
-0.121708
-0.117583
-0.113452
-0.109322
-0.105201
-0.101096
-0.0970133
-0.092961
-0.0889459
-0.0849752
-0.0810554
-0.0771933
-0.0733952
-0.0696671
-0.0660146
-0.0624429
-0.0589568
-0.0555608
-0.0522587
-0.049054
-0.0459496
-0.042948
-0.0400511
-0.0372605
-0.0345773
-0.032002
-0.0295349
-0.0271758
-0.0249241
-0.022779
-0.0207392
-0.0188034
-0.0169698
-0.0152365
-0.0136014
-0.0120626
-0.0106171
-0.00926434
-0.00799861
-0.00682462
-0.00572704
-0.00473008
-0.00378326
-0.0029785
-0.00214531
-0.0015959
-0.000781537
-0.000667387
0.000337538
-0.170011
-0.167172
-0.164152
-0.160973
-0.157657
-0.154223
-0.150686
-0.147061
-0.14336
-0.139592
-0.135766
-0.131891
-0.127976
-0.124026
-0.120051
-0.116056
-0.112049
-0.108038
-0.10403
-0.100032
-0.0960514
-0.0920955
-0.0881714
-0.0842864
-0.0804472
-0.0766607
-0.0729332
-0.0692709
-0.0656794
-0.0621641
-0.0587301
-0.0553818
-0.0521233
-0.0489582
-0.0458896
-0.0429202
-0.0400521
-0.037287
-0.0346262
-0.0320704
-0.0296202
-0.0272754
-0.0250357
-0.0229004
-0.0208685
-0.0189386
-0.0171092
-0.0153787
-0.0137449
-0.0122062
-0.0107596
-0.00940452
-0.00813588
-0.00695741
-0.005856
-0.00485161
-0.00390241
-0.00308343
-0.00225723
-0.00167218
-0.000901151
-0.00067909
0.000157505
-0.165587
-0.162976
-0.160185
-0.157233
-0.154139
-0.150919
-0.147588
-0.14416
-0.140647
-0.137058
-0.133404
-0.129693
-0.125934
-0.122134
-0.1183
-0.114442
-0.110565
-0.106677
-0.102787
-0.0989006
-0.0950261
-0.0911709
-0.087342
-0.0835468
-0.0797922
-0.076085
-0.0724318
-0.0688386
-0.0653115
-0.0618559
-0.0584768
-0.0551791
-0.0519668
-0.0488438
-0.0458134
-0.0428783
-0.0400409
-0.0373032
-0.0346665
-0.0321319
-0.0296999
-0.0273708
-0.0251442
-0.0230198
-0.0209966
-0.0190735
-0.0172491
-0.0155219
-0.01389
-0.0123516
-0.0109043
-0.00954717
-0.00827578
-0.00709291
-0.00598766
-0.00497577
-0.00402401
-0.00319063
-0.00237085
-0.00175018
-0.00102066
-0.000692612
-1.74129e-05
-0.161068
-0.158676
-0.156107
-0.153378
-0.150502
-0.147494
-0.14437
-0.141141
-0.137818
-0.134412
-0.130934
-0.12739
-0.123792
-0.120145
-0.116459
-0.112741
-0.108998
-0.105239
-0.101471
-0.0977007
-0.0939368
-0.0901864
-0.0864569
-0.0827555
-0.0790893
-0.0754651
-0.0718896
-0.0683691
-0.0649096
-0.0615167
-0.0581957
-0.0549513
-0.0517879
-0.0487095
-0.0457196
-0.0428211
-0.0400166
-0.0373081
-0.0346973
-0.0321855
-0.0297733
-0.0274611
-0.0252489
-0.0231364
-0.021123
-0.0192075
-0.0173889
-0.0156656
-0.014036
-0.0124986
-0.0110509
-0.00969194
-0.00841798
-0.0072308
-0.00612173
-0.0051023
-0.00414778
-0.0032999
-0.00248585
-0.00182984
-0.00113951
-0.000708275
-0.000185885
-0.156466
-0.154285
-0.151933
-0.14942
-0.146758
-0.143962
-0.141042
-0.138012
-0.134881
-0.131661
-0.12836
-0.124988
-0.121553
-0.118064
-0.114529
-0.110956
-0.107351
-0.103724
-0.100082
-0.0964327
-0.0927834
-0.0891418
-0.0855155
-0.0819116
-0.0783374
-0.0747999
-0.0713056
-0.0678611
-0.0644725
-0.0611454
-0.0578852
-0.054697
-0.0515853
-0.0485541
-0.045607
-0.0427474
-0.0399778
-0.0373006
-0.0347176
-0.0322301
-0.0298392
-0.0275454
-0.0253489
-0.0232496
-0.0212468
-0.0193399
-0.0175278
-0.0158092
-0.0141826
-0.0126465
-0.0111988
-0.0098384
-0.00856209
-0.00737076
-0.00625789
-0.00523093
-0.00427341
-0.00341102
-0.00260186
-0.00191108
-0.00125713
-0.000726334
-0.000346675
-0.151793
-0.149818
-0.147675
-0.145373
-0.142922
-0.140333
-0.137617
-0.134784
-0.131846
-0.128812
-0.125691
-0.122492
-0.119224
-0.115896
-0.112514
-0.109089
-0.105626
-0.102135
-0.098623
-0.0950975
-0.0915664
-0.0880373
-0.0845177
-0.0810149
-0.0775362
-0.0740887
-0.070679
-0.0673137
-0.063999
-0.0607408
-0.0575445
-0.0544152
-0.0513577
-0.0483762
-0.0454745
-0.0426559
-0.0399234
-0.0372795
-0.0347261
-0.0322648
-0.0298968
-0.0276228
-0.0254433
-0.0233583
-0.0213674
-0.01947
-0.0176653
-0.0159521
-0.0143291
-0.0127949
-0.0113476
-0.0099861
-0.00870769
-0.00751238
-0.00639577
-0.00536134
-0.00440055
-0.00352376
-0.00271851
-0.00199377
-0.00137298
-0.000746978
-0.000498653
-0.147063
-0.145289
-0.14335
-0.141253
-0.139007
-0.136622
-0.134106
-0.13147
-0.128723
-0.125874
-0.122933
-0.119909
-0.11681
-0.113644
-0.110419
-0.107144
-0.103826
-0.100474
-0.0970948
-0.0936965
-0.0902869
-0.0868734
-0.0834638
-0.0800654
-0.0766855
-0.0733311
-0.0700092
-0.0667262
-0.0634885
-0.060302
-0.0571724
-0.0541048
-0.0511042
-0.0481749
-0.0453209
-0.0425457
-0.0398524
-0.0372437
-0.0347218
-0.0322884
-0.0299449
-0.0276923
-0.0255312
-0.0234617
-0.0214838
-0.019597
-0.0178006
-0.0160936
-0.0144749
-0.0129432
-0.0114968
-0.0101345
-0.00885432
-0.00765526
-0.00653497
-0.00549316
-0.00452884
-0.00363782
-0.00283541
-0.00207775
-0.00148652
-0.000770334
-0.000640813
-0.142291
-0.140711
-0.13897
-0.137073
-0.135027
-0.132841
-0.130522
-0.128079
-0.125521
-0.122858
-0.120097
-0.117247
-0.114317
-0.111315
-0.108248
-0.105126
-0.101955
-0.0987439
-0.0955002
-0.0922318
-0.0889463
-0.0856515
-0.0823548
-0.0790636
-0.0757854
-0.0725272
-0.0692958
-0.0660981
-0.0629402
-0.0598283
-0.056768
-0.0537648
-0.0508236
-0.047949
-0.045145
-0.0424155
-0.0397636
-0.0371921
-0.0347036
-0.0322999
-0.0299827
-0.027753
-0.0256116
-0.023559
-0.0215953
-0.01972
-0.0179329
-0.0162329
-0.0146193
-0.0130907
-0.0116458
-0.0102832
-0.00900148
-0.00779894
-0.00667506
-0.00562603
-0.0046579
-0.0037529
-0.00295217
-0.00216283
-0.00159727
-0.000796461
-0.00077229
-0.13749
-0.136099
-0.13455
-0.132848
-0.130996
-0.129004
-0.126877
-0.124624
-0.122253
-0.119772
-0.11719
-0.114514
-0.111754
-0.108915
-0.106008
-0.103039
-0.100017
-0.0969484
-0.0938422
-0.0907058
-0.0875468
-0.0843729
-0.0811917
-0.0780104
-0.0748365
-0.0716771
-0.0685391
-0.0654292
-0.0623538
-0.0593191
-0.0563308
-0.0533945
-0.0505152
-0.0476976
-0.0449461
-0.0422643
-0.0396559
-0.0371238
-0.0346706
-0.0322984
-0.030009
-0.0278038
-0.0256837
-0.0236493
-0.0217009
-0.0198384
-0.0180614
-0.0163694
-0.0147616
-0.0132368
-0.0117939
-0.0104315
-0.00914865
-0.00794292
-0.00681557
-0.00575952
-0.0047873
-0.00386867
-0.0030684
-0.00224878
-0.00170475
-0.00082535
-0.000892374
-0.132675
-0.131468
-0.130106
-0.12859
-0.126928
-0.125123
-0.123184
-0.121117
-0.118929
-0.116628
-0.114223
-0.111719
-0.109127
-0.106452
-0.103704
-0.100889
-0.0980158
-0.0950916
-0.0921243
-0.0891215
-0.0860909
-0.0830399
-0.0799761
-0.076907
-0.0738397
-0.0707815
-0.0677392
-0.0647196
-0.0617292
-0.0587741
-0.0558603
-0.0529932
-0.0501782
-0.04742
-0.044723
-0.0420913
-0.0395285
-0.0370376
-0.0346216
-0.0322827
-0.0300229
-0.0278437
-0.0257464
-0.0237315
-0.0217997
-0.0199511
-0.0181854
-0.0165023
-0.0149011
-0.0133808
-0.0119405
-0.0105788
-0.00929527
-0.00808671
-0.00695602
-0.00589319
-0.00491662
-0.00398475
-0.00318368
-0.00233536
-0.00180852
-0.000856928
-0.00100052
-0.127862
-0.126832
-0.125649
-0.124315
-0.122834
-0.121213
-0.119455
-0.117569
-0.11556
-0.113436
-0.111204
-0.108871
-0.106445
-0.103933
-0.101343
-0.0986818
-0.0959578
-0.0931782
-0.0903506
-0.0874824
-0.0845814
-0.0816548
-0.0787102
-0.075755
-0.0727962
-0.0698412
-0.0668968
-0.0639697
-0.0610664
-0.0581932
-0.0553561
-0.0525606
-0.0498121
-0.0471154
-0.0444752
-0.0418956
-0.0393803
-0.0369328
-0.0345558
-0.032252
-0.0300235
-0.0278719
-0.0257987
-0.0238049
-0.021891
-0.0200574
-0.0183041
-0.0166308
-0.015037
-0.013522
-0.0120851
-0.0107246
-0.00944075
-0.00822974
-0.00709591
-0.00602658
-0.00504541
-0.00410077
-0.00329762
-0.00242227
-0.0019082
-0.000891055
-0.00109637
-0.123064
-0.122205
-0.121195
-0.120035
-0.118729
-0.117284
-0.115702
-0.113991
-0.112157
-0.110205
-0.108143
-0.105977
-0.103715
-0.101364
-0.0989312
-0.0964233
-0.0938481
-0.0912129
-0.0885252
-0.0857922
-0.0830215
-0.0802204
-0.0773962
-0.0745562
-0.0717076
-0.0688575
-0.0660127
-0.06318
-0.0603659
-0.0575766
-0.0548182
-0.0520963
-0.0494164
-0.0467834
-0.044202
-0.0416765
-0.0392108
-0.0368084
-0.0344723
-0.0322053
-0.0300097
-0.0278874
-0.0258399
-0.0238684
-0.0219738
-0.0201564
-0.0184165
-0.016754
-0.0151687
-0.0136597
-0.0122268
-0.0108682
-0.00958449
-0.00837147
-0.0072347
-0.00615921
-0.00517322
-0.00421633
-0.00340981
-0.00250921
-0.00200344
-0.000927534
-0.00117972
-0.118296
-0.1176
-0.116754
-0.115761
-0.114625
-0.113348
-0.111937
-0.110395
-0.10873
-0.106946
-0.10505
-0.103048
-0.100947
-0.0987542
-0.096476
-0.0941198
-0.0916924
-0.0892009
-0.0866527
-0.0840549
-0.0814148
-0.0787397
-0.0760367
-0.073313
-0.0705757
-0.0678318
-0.0650881
-0.0623514
-0.0596282
-0.0569246
-0.0542468
-0.0516004
-0.048991
-0.0464236
-0.0439029
-0.0414334
-0.0390191
-0.0366637
-0.0343703
-0.0321419
-0.0299809
-0.0278894
-0.0258691
-0.0239213
-0.0220472
-0.0202472
-0.0185219
-0.0168713
-0.0152953
-0.0137932
-0.012365
-0.0110089
-0.00972589
-0.00851132
-0.00737186
-0.00629058
-0.00529957
-0.004331
-0.00351988
-0.00259586
-0.00209396
-0.000966114
-0.00125057
-0.113571
-0.113029
-0.112341
-0.111507
-0.110531
-0.109417
-0.108169
-0.106791
-0.105289
-0.103667
-0.101932
-0.10009
-0.0981475
-0.0961099
-0.0939844
-0.0917776
-0.0894962
-0.0871473
-0.0847378
-0.0822747
-0.0797651
-0.077216
-0.0746345
-0.0720277
-0.0694025
-0.0667658
-0.0641245
-0.0614851
-0.0588541
-0.0562378
-0.0536422
-0.051073
-0.0485358
-0.0460357
-0.0435776
-0.0411659
-0.0388048
-0.0364981
-0.0342491
-0.0320609
-0.0299361
-0.0278769
-0.0258853
-0.0239627
-0.0221104
-0.0203291
-0.0186196
-0.0169818
-0.015416
-0.0139218
-0.012499
-0.0111461
-0.00986431
-0.0086487
-0.00750684
-0.00642019
-0.00542401
-0.00444438
-0.00362743
-0.00268187
-0.00217952
-0.0010065
-0.00130909
-0.1089
-0.108505
-0.107966
-0.107283
-0.10646
-0.105501
-0.104409
-0.103188
-0.101843
-0.100379
-0.0988002
-0.0971136
-0.0953244
-0.0934386
-0.0914627
-0.0894028
-0.0872655
-0.0850574
-0.0827852
-0.0804558
-0.078076
-0.0756527
-0.0731927
-0.0707029
-0.0681903
-0.0656615
-0.0631233
-0.0605822
-0.0580447
-0.0555169
-0.0530049
-0.0505144
-0.0480509
-0.0456198
-0.0432258
-0.0408736
-0.0385673
-0.036311
-0.0341081
-0.0319617
-0.0298746
-0.0278493
-0.0258878
-0.0239918
-0.0221626
-0.0204013
-0.0187086
-0.0170848
-0.0155303
-0.0140446
-0.0126281
-0.0112791
-0.00999913
-0.00878302
-0.00763908
-0.00654751
-0.00554606
-0.00455601
-0.00373212
-0.0027669
-0.00225994
-0.00104835
-0.00135562
-0.104296
-0.104038
-0.103639
-0.103099
-0.102421
-0.10161
-0.100666
-0.0995956
-0.0984014
-0.0970883
-0.0956611
-0.0941249
-0.092485
-0.0907473
-0.0889174
-0.0870015
-0.0850057
-0.0829363
-0.0807998
-0.0786027
-0.0763517
-0.0740533
-0.0717144
-0.0693416
-0.0669416
-0.064521
-0.0620864