/*--------------------------------*- C++ -*----------------------------------*\
  =========                 |
  \\      /  F ield         | OpenFOAM: The Open Source CFD Toolbox
   \\    /   O peration     | Website:  https://openfoam.org
    \\  /    A nd           | Version:  7
     \\/     M anipulation  |
\*---------------------------------------------------------------------------*/
FoamFile
{
    version     2.0;
    format      ascii;
    class       surfaceScalarField;
    location    "1";
    object      phi;
}
// * * * * * * * * * * * * * * * * * * * * * * * * * * * * * * * * * * * * * //

dimensions      [0 3 -1 0 0 0 0];

internalField   nonuniform List<scalar> 
615
(
0.000136455
6.96885e-10
0.000136455
9.39687e-10
0.000136455
1.20129e-09
0.000136455
1.48755e-09
0.000136455
1.80459e-09
0.000136455
2.15937e-09
0.000136455
2.55913e-09
0.000136455
3.01237e-09
0.000136455
3.52748e-09
0.000136455
4.11615e-09
0.000136455
4.78611e-09
0.000136455
5.55719e-09
0.000136455
6.4279e-09
0.000136456
7.44423e-09
0.000136456
8.56049e-09
0.000136456
9.91786e-09
0.000136456
1.12905e-08
0.000136457
1.31763e-08
0.000136457
1.46651e-08
0.000136457
1.75601e-08
0.000136458
1.84807e-08
0.000136459
2.38291e-08
0.00013646
2.17041e-08
0.000136461
3.40165e-08
0.000136462
2.08255e-08
0.000136464
5.38705e-08
0.000136465
5.47614e-09
0.000136471
9.92311e-08
0.000136469
-5.22987e-08
0.000136484
2.10921e-07
-2.21801e-07
0.000139164
-1.52277e-07
0.00013916
-1.27896e-07
0.000139156
-1.07589e-07
0.000139153
-9.06333e-08
0.00013915
-7.64448e-08
0.000139148
-6.45476e-08
0.000139146
-5.45535e-08
0.000139144
-4.61443e-08
0.000139142
-3.90586e-08
0.000139141
-3.30803e-08
0.00013914
-2.80309e-08
0.000139139
-2.37615e-08
0.000139138
-2.01486e-08
0.000139138
-1.70885e-08
0.000139137
-1.44948e-08
0.000139137
-1.22945e-08
0.000139136
-1.04267e-08
0.000139136
-8.83976e-09
0.000139136
-7.49027e-09
0.000139135
-6.34144e-09
0.000139135
-5.36216e-09
0.000139135
-4.52606e-09
0.000139135
-3.81072e-09
0.000139135
-3.19704e-09
0.000139135
-2.66874e-09
0.000139134
-2.21183e-09
0.000139134
-1.81425e-09
0.000139134
-1.4656e-09
0.000139134
-1.15679e-09
0.000139134
-8.7994e-10
0.000139134
-6.27888e-10
0.000139134
-3.94216e-10
0.000139134
-1.73182e-10
0.000139134
4.06852e-11
0.000139134
2.5289e-10
0.000139134
4.68145e-10
0.000139134
6.91594e-10
0.000139134
9.2832e-10
0.000139134
1.18359e-09
0.000139134
1.46309e-09
0.000139134
1.77273e-09
0.000139134
2.1193e-09
0.000139134
2.50977e-09
0.000139134
2.95239e-09
0.000139134
3.45523e-09
0.000139134
4.02964e-09
0.000139135
4.68285e-09
0.000139135
5.43414e-09
0.000139135
6.28142e-09
0.000139135
7.26947e-09
0.000139135
8.35241e-09
0.000139135
9.668e-09
0.000139136
1.09936e-08
0.000139136
1.28139e-08
0.000139137
1.42404e-08
0.000139137
1.702e-08
0.000139138
1.78787e-08
0.000139139
2.29823e-08
0.000139139
2.08912e-08
0.000139141
3.25637e-08
0.000139142
1.9904e-08
0.000139145
5.10219e-08
0.000139145
5.11774e-09
0.000139151
9.27635e-08
0.000139149
-4.95064e-08
0.000139165
1.94604e-07
-2.07666e-07
0.000141847
-1.46528e-07
0.000141842
-1.22952e-07
0.000141838
-1.03348e-07
0.000141834
-8.70046e-08
0.000141831
-7.33442e-08
0.000141828
-6.19013e-08
0.000141826
-5.22966e-08
0.000141824
-4.42206e-08
0.000141823
-3.74196e-08
0.000141821
-3.16844e-08
0.00014182
-2.68422e-08
0.000141819
-2.27495e-08
0.000141818
-1.92871e-08
0.000141817
-1.63554e-08
0.000141817
-1.38709e-08
0.000141816
-1.17637e-08
0.000141816
-9.97516e-09
0.000141815
-8.45582e-09
0.000141815
-7.16391e-09
0.000141815
-6.06416e-09
0.000141815
-5.12675e-09
0.000141814
-4.32638e-09
0.000141814
-3.64157e-09
0.000141814
-3.054e-09
0.000141814
-2.54808e-09
0.000141814
-2.1104e-09
0.000141814
-1.7294e-09
0.000141814
-1.39509e-09
0.000141814
-1.09877e-09
0.000141814
-8.32882e-10
0.000141814
-5.90532e-10
0.000141813
-3.65549e-10
0.000141813
-1.52432e-10
0.000141813
5.41281e-11
0.000141813
2.59362e-10
0.000141813
4.67849e-10
0.000141813
6.84571e-10
0.000141813
9.14444e-10
0.000141813
1.16256e-09
0.000141814
1.4344e-09
0.000141814
1.7357e-09
0.000141814
2.07301e-09
0.000141814
2.45304e-09
0.000141814
2.88376e-09
0.000141814
3.37291e-09
0.000141814
3.93143e-09
0.000141814
4.56614e-09
0.000141814
5.29557e-09
0.000141814
6.11729e-09
0.000141815
7.07442e-09
0.000141815
8.12173e-09
0.000141815
9.39195e-09
0.000141815
1.06688e-08
0.000141816
1.24178e-08
0.000141816
1.37835e-08
0.000141817
1.64357e-08
0.000141817
1.72462e-08
0.000141818
2.20732e-08
0.000141819
2.00677e-08
0.000141821
3.10093e-08
0.000141822
1.9043e-08
0.000141825
4.7975e-08
0.000141825
5.01802e-09
0.000141832
8.58685e-08
0.000141828
-4.59728e-08
0.000141845
1.77363e-07
-1.91735e-07
0.00014453
-1.40057e-07
0.000144524
-1.17415e-07
0.00014452
-9.86195e-08
0.000144516
-8.29715e-08
0.000144512
-6.99079e-08
0.000144509
-5.89753e-08
0.000144507
-4.98061e-08
0.000144505
-4.21015e-08
0.000144503
-3.56167e-08
0.000144501
-3.01507e-08
0.0001445
-2.55375e-08
0.000144499
-2.16398e-08
0.000144498
-1.83433e-08
0.000144497
-1.55526e-08
0.000144496
-1.31882e-08
0.000144496
-1.11832e-08
0.000144495
-9.48159e-09
0.000144495
-8.03629e-09
0.000144495
-6.80744e-09
0.000144494
-5.76142e-09
0.000144494
-4.86982e-09
0.000144494
-4.10854e-09
0.000144494
-3.45712e-09
0.000144493
-2.89811e-09
0.000144493
-2.41665e-09
0.000144493
-1.99999e-09
0.000144493
-1.63712e-09
0.000144493
-1.31851e-09
0.000144493
-1.03587e-09
0.000144493
-7.81987e-10
0.000144493
-5.50282e-10
0.000144493
-3.34859e-10
0.000144493
-1.30472e-10
0.000144493
6.80185e-11
0.000144493
2.6555e-10
0.000144493
4.66549e-10
0.000144493
6.75811e-10
0.000144493
8.98062e-10
0.000144493
1.13821e-09
0.000144493
1.40153e-09
0.000144493
1.69354e-09
0.000144493
2.02055e-09
0.000144493
2.389e-09
0.000144493
2.80657e-09
0.000144493
3.28063e-09
0.000144493
3.82169e-09
0.000144493
4.43614e-09
0.000144494
5.14172e-09
0.000144494
5.93581e-09
0.000144494
6.85951e-09
0.000144494
7.86896e-09
0.000144495
9.09048e-09
0.000144495
1.03168e-08
0.000144495
1.19895e-08
0.000144496
1.32955e-08
0.000144496
1.58106e-08
0.000144497
1.65835e-08
0.000144498
2.11101e-08
0.000144499
1.92298e-08
0.000144501
2.93759e-08
0.000144501
1.82214e-08
0.000144505
4.47961e-08
0.000144504
5.09757e-09
0.000144512
7.8734e-08
0.000144508
-4.19566e-08
0.000144525
1.59734e-07
-1.74793e-07
0.000147213
-1.32871e-07
0.000147207
-1.11291e-07
0.000147201
-9.34083e-08
0.000147197
-7.85401e-08
0.000147193
-6.61414e-08
0.00014719
-5.57747e-08
0.000147187
-4.70867e-08
0.000147185
-3.97908e-08
0.000147183
-3.36533e-08
0.000147181
-2.84822e-08
0.00014718
-2.41196e-08
0.000147179
-2.04346e-08
0.000147178
-1.73189e-08
0.000147177
-1.46819e-08
0.000147176
-1.2448e-08
0.000147175
-1.05541e-08
0.000147175
-8.94696e-09
0.000147174
-7.58203e-09
0.000147174
-6.42159e-09
0.000147174
-5.43384e-09
0.000147173
-4.59191e-09
0.000147173
-3.87298e-09
0.000147173
-3.25773e-09
0.000147173
-2.72967e-09
0.000147173
-2.27472e-09
0.000147173
-1.88083e-09
0.000147172
-1.53761e-09
0.000147172
-1.23602e-09
0.000147172
-9.68225e-10
0.000147172
-7.27374e-10
0.000147172
-5.07239e-10
0.000147172
-3.02228e-10
0.000147172
-1.07366e-10
0.000147172
8.23112e-11
0.000147172
2.71423e-10
0.000147172
4.64218e-10
0.000147172
6.653e-10
0.000147172
8.79177e-10
0.000147172
1.11055e-09
0.000147172
1.3645e-09
0.000147172
1.6463e-09
0.000147172
1.96199e-09
0.000147172
2.31773e-09
0.000147173
2.72092e-09
0.000147173
3.17851e-09
0.000147173
0.000147173
0.000147173
0.000147173
0.000147173
0.000147174
0.000147174
0.000147174
0.000147175
0.000147175
0.000147176
0.000147177
0.000147178
0.000147179
0.00014718
0.000147181
0.000147184
0.000147184
0.000147191
0.000147187
0.000147205
0.000149895
0.000149889
0.000149883
0.000149878
0.000149874
0.000149871
0.000149868
0.000149865
0.000149863
0.000149861
0.00014986
0.000149859
0.000149857
0.000149856
0.000149856
0.000149855
0.000149854
0.000149854
0.000149854
0.000149853
0.000149853
0.000149853
0.000149852
0.000149852
0.000149852
0.000149852
0.000149852
0.000149852
0.000149852
0.000149852
0.000149852
0.000149852
0.000149852
0.000149852
0.000149852
0.000149852
0.000149852
0.000149852
0.000149852
0.000149852
0.000149852
0.000149852
0.000149852
0.000149852
)
;

boundaryField
{
    inlet
    {
        type            calculated;
        value           nonuniform 0();
    }
    outlet
    {
        type            calculated;
        value           nonuniform 0();
    }
    wall
    {
        type            calculated;
        value           nonuniform 0();
    }
    wedge1
    {
        type            wedge;
        value           nonuniform List<scalar> 
344
(
-8.08205e-18
1.26036e-17
-7.57791e-18
-2.81767e-17
6.48195e-18
-9.08899e-18
1.01888e-17
-8.25279e-18
-2.59876e-17
3.16101e-18
-6.90587e-18
8.47302e-18
-6.74578e-18
-2.09952e-17
3.41959e-18
-6.54483e-18
6.39735e-18
-6.29915e-18
-1.87365e-17
2.08308e-18
-5.90642e-18
4.7158e-18
-5.9332e-18
-1.59664e-17
1.5402e-18
-5.28078e-18
3.76109e-18
-5.33247e-18
-1.38909e-17
9.72435e-19
-5.2824e-18
2.79746e-18
-5.28019e-18
-1.25399e-17
9.07489e-20
-4.54171e-18
2.00515e-18
-4.39205e-18
-1.07888e-17
-4.23103e-20
-4.55852e-18
9.85929e-19
-4.6616e-18
-9.88579e-18
-7.24095e-19
-3.59162e-18
8.2332e-19
-3.71466e-18
-8.01205e-18
-2.58764e-19
-4.37651e-18
2.50358e-19
-4.3209e-18
-8.16366e-18
-1.42973e-18
-3.12153e-18
1.33601e-20
-3.0378e-18
-6.37657e-18
-7.33677e-19
-4.02183e-18
-8.62462e-19
-4.10201e-18
-6.89888e-18
-1.91902e-18
-2.55503e-18
-7.86401e-19
-2.83531e-18
-4.94086e-18
-7.82451e-19
-3.53722e-18
-1.36641e-18
-3.94323e-18
-5.68986e-18
-1.92636e-18
-2.40974e-18
-1.08491e-18
-2.32336e-18
-4.17242e-18
-1.06336e-18
-2.89759e-18
-1.6928e-18
-2.97266e-18
-4.52735e-18
-1.7296e-18
-2.3655e-18
-1.44594e-18
-2.34389e-18
-3.7013e-18
-1.37066e-18
-2.85636e-18
-1.9459e-18
-2.92657e-18
-4.04184e-18
-1.92277e-18
-2.13904e-18
-1.45687e-18
-2.05282e-18
-3.03686e-18
-1.28487e-18
-2.58074e-18
-1.89636e-18
-2.70804e-18
-3.50721e-18
-1.8759e-18
-2.08989e-18
-1.6502e-18
-2.06127e-18
-2.81347e-18
-1.45474e-18
-2.72443e-18
-2.13544e-18
-2.81615e-18
-3.38442e-18
-2.0888e-18
-2.0996e-18
-1.82013e-18
-2.03833e-18
-2.63243e-18
-1.58799e-18
-2.5882e-18
-2.06032e-18
-2.71103e-18
-3.12664e-18
-2.07526e-18
-1.90655e-18
-1.76625e-18
-1.85415e-18
-2.3533e-18
-1.51434e-18
-3.34956e-18
-1.87739e-18
-3.00004e-18
-3.73311e-18
-2.91257e-18
-2.57366e-18
-1.48876e-18
-2.6252e-18
-2.85313e-18
-2.12713e-18
-2.36408e-18
-2.20312e-18
-2.53856e-18
-2.7485e-18
-2.05125e-18
-2.70515e-18
-2.13165e-18
-2.76655e-18
-2.95043e-18
-2.3029e-18
-1.98205e-18
-2.26193e-18
-2.38552e-18
-2.23053e-18
-1.65701e-18
-2.85827e-18
-1.65491e-18
-2.74062e-18
-3.0198e-18
-2.42424e-18
-1.93387e-18
-2.35727e-18
-2.19396e-18
-2.25205e-18
-1.7598e-18
-2.48747e-18
-2.02202e-18
-2.78895e-18
-2.68606e-18
-2.12291e-18
-2.65749e-18
-1.84993e-18
-2.82234e-18
-2.97202e-18
-2.56122e-18
-2.18321e-18
-1.59943e-18
-2.51875e-18
-2.37988e-18
-1.87777e-18
-2.29008e-18
-2.4275e-18
-1.84063e-18
-2.51257e-18
-2.71179e-18
-2.38904e-18
-1.94091e-18
-1.95224e-18
-2.00661e-18
-2.28959e-18
-2.09933e-18
-1.67156e-18
-2.09854e-18
-2.30336e-18
-1.72724e-18
-2.27375e-18
-2.51553e-18
-2.27398e-18
-1.64072e-18
-1.67281e-18
-1.56748e-18
-2.03547e-18
-1.7485e-18
-1.33654e-18
-1.89619e-18
-2.21511e-18
-1.77003e-18
-2.06592e-18
-2.29598e-18
-2.11757e-18
-1.61175e-18
-1.62338e-18
-2.08847e-18
-1.98703e-18
-1.56848e-18
-1.2086e-18
-1.93294e-18
-2.3365e-18
-1.83384e-18
-2.04947e-18
-2.28575e-18
-2.16893e-18
-1.53895e-18
-1.49678e-18
-1.87099e-18
-1.94692e-18
-1.36869e-18
-1.08659e-18
-1.57751e-18
-2.1609e-18
-1.73219e-18
-1.76241e-18
-2.07482e-18
-2.0887e-18
-9.09462e-19
-1.15612e-18
-2.11744e-18
-1.28588e-18
-9.01955e-19
-1.45626e-18
-1.66871e-18
-1.78159e-18
-1.65054e-18
-1.62494e-18
-1.13851e-18
-1.37138e-18
-1.65949e-18
-1.42247e-18
-8.12001e-19
-1.15629e-18
-1.40431e-18
-1.34239e-18
-1.24795e-18
-1.11602e-18
-7.64873e-19
-1.018e-18
-1.54624e-18
-1.03045e-18
-3.30356e-19
-8.36487e-19
-1.06526e-18
-1.44216e-18
-9.09651e-19
-6.06063e-19
-4.03607e-19
-6.27104e-19
-1.25217e-18
-6.25111e-19
2.03926e-19
-5.25256e-19
-8.40548e-19
-1.22201e-18
-6.75457e-19
-1.05651e-19
-3.17798e-19
-5.76827e-19
-1.54756e-18
-5.66319e-19
5.74309e-19
-2.72003e-19
-6.44486e-19
-1.48887e-18
-4.64091e-19
4.41918e-19
-6.88432e-20
-3.48928e-19
-1.58653e-18
-3.03835e-19
1.23371e-18
8.07871e-20
-3.23229e-19
-1.27651e-18
-1.01727e-19
1.22479e-18
2.6348e-19
-3.16358e-20
-1.89168e-18
6.2443e-20
2.21885e-18
3.11805e-19
-1.00247e-19
-1.4263e-18
1.26374e-19
1.76824e-18
5.24982e-19
2.37112e-19
-2.5285e-18
3.7727e-19
3.54204e-18
1.82842e-19
-1.97432e-19
-1.09494e-18
1.25652e-19
1.66862e-18
1.31814e-18
9.6402e-19
-4.13337e-18
1.03058e-18
6.25658e-18
-3.16895e-19
-6.42249e-19
2.48066e-19
-2.12401e-19
-2.36629e-19
3.16466e-18
2.61079e-18
-7.77696e-18
2.46457e-18
1.23349e-17
-2.42018e-18
-2.54356e-18
5.21297e-18
-1.77926e-18
-7.565e-18
7.53554e-18
6.56691e-18
-1.74398e-17
5.68995e-18
2.6832e-17
-8.70445e-18
-8.15145e-18
1.86785e-17
-6.18621e-18
-2.76513e-17
)
;
    }
    wedge2
    {
        type            wedge;
        value           nonuniform List<scalar> 
344
(
-3.62413e-18
1.77628e-17
-2.87377e-18
-2.3302e-17
1.02056e-17
-7.58053e-19
1.53383e-17
-6.35949e-19
-1.71686e-17
1.08209e-17
-1.38326e-18
1.28017e-17
-6.29988e-19
-1.52416e-17
8.31595e-18
-4.38114e-19
1.17262e-17
9.42595e-20
-1.17389e-17
7.78067e-18
8.40151e-21
1.05854e-17
6.98147e-19
-9.71961e-18
6.77315e-18
3.2442e-19
9.17142e-18
9.16143e-19
-7.66713e-18
5.99837e-18
1.06799e-18
7.99235e-18
1.54541e-18
-5.76363e-18
5.83031e-18
9.77492e-19
7.25807e-18
1.23564e-18
-4.68036e-18
5.04331e-18
1.53741e-18
6.86285e-18
1.98779e-18
-3.21003e-18
4.95905e-18
1.04624e-18
5.831e-18
1.45165e-18
-3.01389e-18
3.8212e-18
2.20574e-18
5.3003e-18
2.4012e-18
-1.23448e-18
4.46732e-18
1.28179e-18
4.77678e-18
1.41174e-18
-1.58594e-18
3.30667e-18
2.4595e-18
4.92956e-18
2.72117e-18
1.40772e-19
4.10265e-18
1.23711e-18
4.24038e-18
1.66457e-18
-7.55499e-19
2.62216e-18
2.38894e-18
4.30113e-18
2.94867e-18
7.33382e-19
3.53151e-18
1.45431e-18
3.57858e-18
1.47981e-18
4.45452e-20
2.39651e-18
2.0861e-18
3.81315e-18
2.25625e-18
1.02257e-18
2.86165e-18
1.6763e-18
3.249e-18
1.73547e-18
7.25629e-19
2.3319e-18
2.27092e-18
3.47944e-18
2.40989e-18
1.51442e-18
2.73885e-18
1.64181e-18
2.76195e-18
1.61404e-18
8.90999e-19
1.97789e-18
2.15854e-18
3.00747e-18
2.33547e-18
1.68546e-18
2.46425e-18
1.73147e-18
2.59632e-18
1.74511e-18
1.26749e-18
1.9538e-18
2.42039e-18
2.94187e-18
2.54799e-18
2.07305e-18
2.51209e-18
1.8418e-18
2.50783e-18
1.81109e-18
1.52108e-18
1.94682e-18
2.36982e-18
2.6476e-18
2.51852e-18
2.18548e-18
2.37892e-18
1.72205e-18
2.26841e-18
1.69145e-18
1.55781e-18
1.7709e-18
3.19368e-18
2.30736e-18
2.85127e-18
3.06148e-18
3.12922e-18
2.44262e-18
1.82355e-18
2.50966e-18
2.28806e-18
2.30924e-18
2.25435e-18
2.52109e-18
2.44172e-18
2.27561e-18
2.20374e-18
2.61378e-18
2.40627e-18
2.68594e-18
2.55708e-18
2.42969e-18
1.91183e-18
2.50048e-18
2.31918e-18
1.93112e-18
1.75335e-18
2.79674e-18
1.81192e-18
2.68654e-18
2.75532e-18
2.50917e-18
1.88469e-18
2.54085e-18
2.15061e-18
2.04124e-18
1.82757e-18
2.42266e-18
2.18493e-18
2.7554e-18
2.4174e-18
2.21426e-18
2.6291e-18
1.9224e-18
2.7976e-18
2.85084e-18
2.60014e-18
2.12889e-18
1.64844e-18
2.50192e-18
2.16744e-18
1.95386e-18
2.27854e-18
2.41676e-18
1.86795e-18
2.5034e-18
2.66722e-18
2.40266e-18
1.93838e-18
1.90378e-18
2.11943e-18
2.28755e-18
1.92947e-18
1.7389e-18
2.10454e-18
2.3084e-18
1.71287e-18
2.27884e-18
2.53986e-18
2.26468e-18
1.65445e-18
1.62637e-18
1.53269e-18
2.04747e-18
1.61604e-18
1.39993e-18
1.9193e-18
2.23652e-18
1.71316e-18
2.08601e-18
2.3901e-18
2.08567e-18
1.64423e-18
1.57627e-18
2.17621e-18
2.0151e-18
1.48008e-18
1.27062e-18
1.9752e-18
2.37606e-18
1.73308e-18
2.08559e-18
2.44875e-18
2.11079e-18
1.59211e-18
1.44715e-18
1.7429e-18
1.99245e-18
1.34595e-18
1.1475e-18
1.6428e-18
2.22254e-18
1.57835e-18
1.81658e-18
2.31602e-18
1.99949e-18
8.55857e-19
1.1034e-18
2.15826e-18
1.23692e-18
9.85805e-19
1.54974e-18
1.61565e-18
1.79842e-18
1.72977e-18
1.78327e-18
1.25005e-18
1.47644e-18
1.40779e-18
1.51733e-18
1.22146e-18
1.28648e-18
1.3538e-18
1.0574e-18
1.35901e-18
1.49256e-18
9.15589e-19
1.16315e-18
1.21394e-18
1.15902e-18
9.67779e-19
1.0151e-18
1.02754e-18
1.25221e-18
1.0601e-18
1.3182e-18
6.12104e-19
8.25893e-19
7.87758e-19
8.03392e-19
8.17284e-19
7.60939e-19
8.31832e-19
6.87249e-19
8.75898e-19
1.30691e-18
6.03372e-19
8.50372e-19
8.49942e-19
8.13762e-19
1.05273e-18
5.66073e-19
6.86579e-19
7.92391e-19
7.21077e-19
1.42089e-18
4.60286e-19
7.25164e-19
4.62461e-19
6.48505e-19
1.32876e-18
2.57367e-19
4.30433e-19
1.60503e-19
4.10885e-19
1.42041e-18
3.40204e-19
6.08384e-19
-2.31394e-21
4.5928e-19
1.82315e-18
7.16003e-21
2.27288e-19
9.28953e-20
1.68846e-19
1.50215e-18
5.73074e-19
8.00628e-19
-8.5297e-19
5.39356e-19
3.08486e-18
-1.75226e-19
7.93115e-20
1.44213e-19
-6.19418e-20
1.13307e-18
1.04126e-18
1.24163e-18
-2.47972e-18
8.64278e-19
5.59654e-18
-1.00268e-18
-6.62253e-19
1.60717e-18
-7.1057e-19
-1.20007e-18
2.51159e-18
2.65028e-18
-6.58622e-18
1.92475e-18
1.14821e-17
-3.27364e-18
-2.73127e-18
6.35723e-18
-2.29868e-18
-8.68202e-18
6.80388e-18
6.58341e-18
-1.62428e-17
5.03037e-18
2.59668e-17
-9.48845e-18
-8.37651e-18
2.02412e-17
-6.55647e-18
-2.88758e-17
)
;
    }
    axis
    {
        type            empty;
        value           nonuniform 0();
    }
    procBoundary25to19
    {
        type            processor;
        value           nonuniform List<scalar> 
68
(
-7.00502e-10
-9.48604e-10
-1.21572e-09
-1.50787e-09
-1.83135e-09
-2.19331e-09
-2.60117e-09
-3.06371e-09
-3.58964e-09
-4.19092e-09
-4.8758e-09
-5.66456e-09
-6.55652e-09
-7.59838e-09
-8.74556e-09
-1.01408e-08
-1.15588e-08
-1.35035e-08
-1.50569e-08
-1.80527e-08
-1.90519e-08
-2.46052e-08
-2.25103e-08
-3.5344e-08
-2.18292e-08
-5.64513e-08
-6.17893e-09
-1.05061e-07
5.40574e-08
-2.25711e-07
2.33263e-07
1.57306e-07
1.32246e-07
1.11337e-07
9.38537e-08
7.92057e-08
6.69107e-08
5.65736e-08
4.78696e-08
4.0531e-08
3.43362e-08
2.91016e-08
2.46741e-08
2.09261e-08
1.77508e-08
1.50587e-08
1.27746e-08
1.08353e-08
9.18738e-09
7.78589e-09
6.59271e-09
5.57558e-09
4.70717e-09
3.96424e-09
3.32694e-09
2.7784e-09
2.30409e-09
1.89151e-09
1.52989e-09
1.20979e-09
9.23045e-10
6.62251e-10
4.20782e-10
1.9266e-10
-2.77329e-11
-2.46179e-10
-0.000136455
-4.67473e-10
)
;
    }
    procBoundary25to24
    {
        type            processor;
        value           nonuniform List<scalar> 4(-0.000139169 -0.000141853 -0.000144536 -0.00014722);
    }
    procBoundary25to26
    {
        type            processor;
        value           nonuniform List<scalar> 5(0.000136473 0.000139151 0.000141829 0.000144508 0.000147187);
    }
    procBoundary25to30
    {
        type            processor;
        value           uniform -0.000149903;
    }
    procBoundary25to31
    {
        type            processor;
        value           nonuniform List<scalar> 
68
(
3.70049e-09
4.29302e-09
4.97284e-09
5.73731e-09
6.62519e-09
7.59462e-09
8.76441e-09
9.93854e-09
1.15306e-08
1.27774e-08
1.51479e-08
1.5891e-08
2.01009e-08
1.83742e-08
2.76849e-08
1.74209e-08
4.15445e-08
5.28572e-09
7.15317e-08
-3.76891e-08
1.42187e-07
-1.57507e-07
-1.24978e-07
-1.04591e-07
-8.77238e-08
-7.37188e-08
-6.20523e-08
-5.23061e-08
-4.41439e-08
-3.72935e-08
-3.15335e-08
-2.66825e-08
-2.25913e-08
-1.91366e-08
-1.62162e-08
-1.37451e-08
-1.16521e-08
-9.87788e-09
-8.3725e-09
-7.0941e-09
-6.00726e-09
-5.08219e-09
-4.29366e-09
-3.62027e-09
-3.04389e-09
-2.5491e-09
-2.12263e-09
-1.75322e-09
-1.43113e-09
-1.14784e-09
-8.96012e-10
-6.69204e-10
-4.6155e-10
-2.67794e-10
-8.32382e-11
9.68932e-11
2.76872e-10
4.60769e-10
6.52965e-10
8.57735e-10
1.07955e-09
1.32329e-09
1.59398e-09
1.89735e-09
2.2393e-09
2.62687e-09
0.000149852
3.06665e-09
)
;
    }
}


// ************************************************************************* //
