/*--------------------------------*- C++ -*----------------------------------*\
  =========                 |
  \\      /  F ield         | OpenFOAM: The Open Source CFD Toolbox
   \\    /   O peration     | Website:  https://openfoam.org
    \\  /    A nd           | Version:  7
     \\/     M anipulation  |
\*---------------------------------------------------------------------------*/
FoamFile
{
    version     2.0;
    format      ascii;
    class       volScalarField;
    location    "37.999794";
    object      p;
}
// * * * * * * * * * * * * * * * * * * * * * * * * * * * * * * * * * * * * * //

dimensions      [0 2 -2 0 0 0 0];

internalField   nonuniform List<scalar> 
23200
(
-0.287846
-0.292035
-0.294486
-0.295838
-0.296398
-0.296136
-0.295061
-0.2932
-0.290567
-0.287178
-0.283044
-0.278185
-0.272623
-0.266395
-0.259552
-0.252168
-0.244342
-0.236238
-0.227995
-0.219452
-0.28867
-0.292767
-0.295148
-0.296441
-0.296947
-0.296636
-0.295517
-0.293616
-0.290948
-0.287527
-0.283365
-0.278478
-0.272891
-0.266636
-0.259763
-0.252345
-0.244476
-0.236331
-0.228031
-0.219268
-0.290309
-0.294222
-0.296467
-0.297642
-0.29804
-0.29763
-0.296424
-0.294444
-0.291705
-0.28822
-0.284
-0.27906
-0.27342
-0.267112
-0.260181
-0.252694
-0.244742
-0.236515
-0.228104
-0.2189
-0.292747
-0.296388
-0.298428
-0.29943
-0.299665
-0.299109
-0.297771
-0.295672
-0.292827
-0.289246
-0.28494
-0.279919
-0.274202
-0.267814
-0.260797
-0.253209
-0.245132
-0.236783
-0.228214
-0.218346
-0.295959
-0.299245
-0.301015
-0.301786
-0.301808
-0.301057
-0.299543
-0.297287
-0.2943
-0.290591
-0.286169
-0.281041
-0.275221
-0.268729
-0.261598
-0.253878
-0.245638
-0.23713
-0.228361
-0.217609
-0.299917
-0.302765
-0.304205
-0.304691
-0.304447
-0.303454
-0.301722
-0.299268
-0.296104
-0.292236
-0.28767
-0.282408
-0.27646
-0.269838
-0.262569
-0.254687
-0.24625
-0.237545
-0.228546
-0.216689
-0.304583
-0.306919
-0.307969
-0.308119
-0.30756
-0.306279
-0.304285
-0.301596
-0.298219
-0.29416
-0.289419
-0.283998
-0.277897
-0.271123
-0.26369
-0.255622
-0.246956
-0.238018
-0.228768
-0.215591
-0.309919
-0.311674
-0.312279
-0.312042
-0.31112
-0.309505
-0.307209
-0.304245
-0.300621
-0.296338
-0.291396
-0.285788
-0.279511
-0.272561
-0.264943
-0.256665
-0.247742
-0.23854
-0.229028
-0.214324
-0.31588
-0.316992
-0.317101
-0.31643
-0.315099
-0.313108
-0.310468
-0.307191
-0.303285
-0.298748
-0.293574
-0.287755
-0.281278
-0.274131
-0.266308
-0.2578
-0.248597
-0.2391
-0.229327
-0.2129
-0.322423
-0.322836
-0.322401
-0.321252
-0.319469
-0.317059
-0.314036
-0.31041
-0.306187
-0.301364
-0.295932
-0.289876
-0.283177
-0.275813
-0.267765
-0.259011
-0.249508
-0.239687
-0.229662
-0.211339
-0.329505
-0.329167
-0.328146
-0.326478
-0.324201
-0.321333
-0.317888
-0.313878
-0.309306
-0.304167
-0.298448
-0.292131
-0.285187
-0.277587
-0.269298
-0.260282
-0.250464
-0.240294
-0.23003
-0.209666
-0.337081
-0.335949
-0.334302
-0.332077
-0.329268
-0.325903
-0.322001
-0.317572
-0.312619
-0.307135
-0.301104
-0.294501
-0.287292
-0.279436
-0.27089
-0.261599
-0.251456
-0.240913
-0.230424
-0.207915
-0.34511
-0.343144
-0.340837
-0.33802
-0.334643
-0.330747
-0.326354
-0.321474
-0.31611
-0.310253
-0.303883
-0.296971
-0.289477
-0.281348
-0.27253
-0.262953
-0.252476
-0.241539
-0.23083
-0.206128
-0.353554
-0.35072
-0.347721
-0.344279
-0.340302
-0.335842
-0.330927
-0.325567
-0.319763
-0.313507
-0.306775
-0.299532
-0.291732
-0.283313
-0.274207
-0.264333
-0.253516
-0.24217
-0.231226
-0.20435
-0.362377
-0.358643
-0.354923
-0.350829
-0.346222
-0.34117
-0.335705
-0.329837
-0.323569
-0.316889
-0.309771
-0.302176
-0.29405
-0.285323
-0.275917
-0.265734
-0.254573
-0.242808
-0.23159
-0.202649
-0.371543
-0.366883
-0.362417
-0.357646
-0.352384
-0.346714
-0.340674
-0.334274
-0.327518
-0.320392
-0.312867
-0.3049
-0.296428
-0.287376
-0.277653
-0.267151
-0.255643
-0.243463
-0.231893
-0.201121
-0.381023
-0.375411
-0.370177
-0.364707
-0.358768
-0.352459
-0.345822
-0.33887
-0.331605
-0.324012
-0.31606
-0.3077
-0.298863
-0.289467
-0.279413
-0.268581
-0.256726
-0.244142
-0.232051
-0.199796
-0.390785
-0.384198
-0.378176
-0.37199
-0.365356
-0.35839
-0.351139
-0.343617
-0.335826
-0.327748
-0.319349
-0.310575
-0.301352
-0.291592
-0.281193
-0.270023
-0.257836
-0.244873
-0.231846
-0.198466
-0.4008
-0.393216
-0.386391
-0.379473
-0.372131
-0.364493
-0.356616
-0.34851
-0.340176
-0.331597
-0.322731
-0.313521
-0.303889
-0.293745
-0.282984
-0.27148
-0.259025
-0.245783
-0.231356
-0.1978
-0.411035
-0.402436
-0.394793
-0.387133
-0.379072
-0.370755
-0.36224
-0.353539
-0.34465
-0.335552
-0.3262
-0.31653
-0.306462
-0.295905
-0.284763
-0.272936
-0.260312
-0.24704
-0.231946
-0.204836
-0.421456
-0.411823
-0.403354
-0.394945
-0.38616
-0.377158
-0.368
-0.358695
-0.349238
-0.339604
-0.329743
-0.319586
-0.309049
-0.298042
-0.286485
-0.274313
-0.261531
-0.248378
-0.23485
-0.226747
-0.432024
-0.421343
-0.41204
-0.40288
-0.39337
-0.383681
-0.373876
-0.363961
-0.353926
-0.343739
-0.333344
-0.322665
-0.311617
-0.300112
-0.288082
-0.275494
-0.262434
-0.249159
-0.235671
-0.231192
-0.442693
-0.430952
-0.420812
-0.410904
-0.400672
-0.390299
-0.379848
-0.369318
-0.358692
-0.347931
-0.336972
-0.325733
-0.314124
-0.302061
-0.289485
-0.276387
-0.262887
-0.24921
-0.235099
-0.230223
-0.453411
-0.440601
-0.429627
-0.418976
-0.40803
-0.396979
-0.385884
-0.374734
-0.363505
-0.352148
-0.34059
-0.328743
-0.316516
-0.303826
-0.290624
-0.276915
-0.262831
-0.248559
-0.233748
-0.22729
-0.464113
-0.450233
-0.43843
-0.427049
-0.4154
-0.403682
-0.391946
-0.380172
-0.368324
-0.356343
-0.344147
-0.33164
-0.318729
-0.305338
-0.291425
-0.277009
-0.262223
-0.247219
-0.231655
-0.223185
-0.474728
-0.45978
-0.447162
-0.435066
-0.422732
-0.410357
-0.397985
-0.385581
-0.373097
-0.36046
-0.347579
-0.334353
-0.32069
-0.306519
-0.291812
-0.276603
-0.261026
-0.245206
-0.228866
-0.218375
-0.48517
-0.469165
-0.455751
-0.442963
-0.429962
-0.416944
-0.403941
-0.3909
-0.377757
-0.364428
-0.350811
-0.336803
-0.322315
-0.307287
-0.291711
-0.275638
-0.259209
-0.242541
-0.225446
-0.213134
-0.495342
-0.4783
-0.464115
-0.450661
-0.437018
-0.423374
-0.409744
-0.396056
-0.382228
-0.368164
-0.353756
-0.338899
-0.323513
-0.307558
-0.291047
-0.274058
-0.256747
-0.239236
-0.22144
-0.207579
-0.505135
-0.487086
-0.472162
-0.458075
-0.443816
-0.429562
-0.415309
-0.40096
-0.386419
-0.371574
-0.356315
-0.340542
-0.32419
-0.307244
-0.289748
-0.271812
-0.253615
-0.235297
-0.216871
-0.201742
-0.514425
-0.495411
-0.479789
-0.465105
-0.450261
-0.435415
-0.42054
-0.405516
-0.390226
-0.374552
-0.358382
-0.341627
-0.324247
-0.306258
-0.287743
-0.268851
-0.249789
-0.230721
-0.211747
-0.195608
-0.52308
-0.503152
-0.486881
-0.471643
-0.456246
-0.440826
-0.425329
-0.40961
-0.393536
-0.376982
-0.359841
-0.342046
-0.323585
-0.304517
-0.284969
-0.265133
-0.245247
-0.225501
-0.206067
-0.189145
-0.530953
-0.510177
-0.493313
-0.477568
-0.461653
-0.445677
-0.429557
-0.413123
-0.396226
-0.378741
-0.360575
-0.341687
-0.322107
-0.30194
-0.281365
-0.260618
-0.239968
-0.21963
-0.199826
-0.182312
-0.53789
-0.516344
-0.49895
-0.48275
-0.466354
-0.44984
-0.433094
-0.415921
-0.398164
-0.379702
-0.360461
-0.34044
-0.319718
-0.298453
-0.276879
-0.255273
-0.233934
-0.213095
-0.193013
-0.175072
-0.543727
-0.521501
-0.503648
-0.487049
-0.470211
-0.453178
-0.435802
-0.417869
-0.399215
-0.379732
-0.359379
-0.3382
-0.31633
-0.293989
-0.271462
-0.249069
-0.227129
-0.205889
-0.18562
-0.167393
-0.548293
-0.52549
-0.507258
-0.490319
-0.473079
-0.455545
-0.437536
-0.41882
-0.399237
-0.3787
-0.35721
-0.334865
-0.311864
-0.288489
-0.265077
-0.241982
-0.219541
-0.198002
-0.177637
-0.159246
-0.551414
-0.528148
-0.509622
-0.492406
-0.474807
-0.45679
-0.438146
-0.418631
-0.398093
-0.37648
-0.353842
-0.330342
-0.306247
-0.281901
-0.257689
-0.233995
-0.21116
-0.189429
-0.16906
-0.150613
-0.552912
-0.52931
-0.510581
-0.493152
-0.475238
-0.456759
-0.437481
-0.417153
-0.395646
-0.372948
-0.34917
-0.324547
-0.299417
-0.274184
-0.249276
-0.225095
-0.201981
-0.180166
-0.159882
-0.141478
-0.55261
-0.528808
-0.509972
-0.4924
-0.474216
-0.455298
-0.435389
-0.414245
-0.391764
-0.367988
-0.343099
-0.317408
-0.291323
-0.265306
-0.239818
-0.215274
-0.192
-0.170211
-0.150102
-0.131833
-0.550334
-0.526477
-0.507636
-0.489991
-0.471584
-0.452252
-0.431724
-0.409768
-0.386324
-0.361497
-0.335546
-0.308863
-0.281924
-0.255243
-0.229307
-0.20453
-0.181219
-0.159566
-0.139721
-0.121675
-0.545916
-0.522158
-0.503415
-0.48577
-0.46719
-0.447475
-0.426346
-0.403594
-0.379213
-0.353381
-0.326441
-0.298863
-0.271192
-0.243982
-0.217738
-0.192864
-0.169641
-0.148235
-0.128742
-0.111003
-0.539198
-0.515696
-0.497159
-0.479587
-0.460888
-0.440825
-0.419123
-0.395607
-0.370333
-0.343564
-0.315727
-0.287373
-0.259108
-0.231518
-0.205114
-0.180284
-0.157276
-0.136226
-0.11717
-0.0998221
-0.530031
-0.506949
-0.488726
-0.471304
-0.452541
-0.432174
-0.409936
-0.385701
-0.3596
-0.331981
-0.303362
-0.274372
-0.245665
-0.217854
-0.191445
-0.166801
-0.144135
-0.123548
-0.105017
-0.0881396
-0.518282
-0.495786
-0.477988
-0.460792
-0.442027
-0.421404
-0.398681
-0.373791
-0.346946
-0.318587
-0.289323
-0.25985
-0.230869
-0.203004
-0.176748
-0.152434
-0.130233
-0.110215
-0.0922953
-0.0759724
-0.503838
-0.482094
-0.46483
-0.447939
-0.429235
-0.408416
-0.385273
-0.359807
-0.332322
-0.303353
-0.273597
-0.243813
-0.214734
-0.186987
-0.161045
-0.137202
-0.115589
-0.0962445
-0.0790219
-0.063338
-0.486601
-0.465776
-0.449155
-0.432649
-0.414077
-0.39313
-0.369644
-0.343701
-0.315698
-0.28627
-0.256191
-0.226278
-0.197285
-0.169834
-0.144365
-0.121134
-0.100229
-0.0816568
-0.065213
-0.0502105
-0.466501
-0.446758
-0.430887
-0.414847
-0.396481
-0.375485
-0.351749
-0.325443
-0.297065
-0.267343
-0.237127
-0.207277
-0.17856
-0.15158
-0.126743
-0.104261
-0.0841797
-0.0664781
-0.0508948
-0.0365343
-0.443489
-0.424987
-0.409972
-0.39448
-0.376402
-0.355445
-0.331566
-0.305028
-0.276433
-0.246598
-0.216441
-0.186853
-0.158603
-0.13227
-0.108221
-0.08662
-0.0674745
-0.0507326
-0.0360942
-0.022579
-0.417545
-0.400438
-0.386381
-0.37152
-0.353815
-0.332996
-0.309093
-0.282472
-0.253833
-0.22408
-0.194185
-0.165062
-0.137471
-0.111957
-0.0888457
-0.0682537
-0.050155
-0.0344754
-0.0207979
-0.00826055
-0.388675
-0.37311
-0.36011
-0.345964
-0.328723
-0.308151
-0.284358
-0.257814
-0.229317
-0.199848
-0.170424
-0.14197
-0.115226
-0.0907015
-0.0686726
-0.0492132
-0.0322601
-0.0177213
-0.00508906
0.00642195
-0.356917
-0.343031
-0.331183
-0.317837
-0.301157
-0.280948
-0.25741
-0.231115
-0.202955
-0.173979
-0.145238
-0.117656
-0.0919444
-0.0685705
-0.047762
-0.0295494
-0.0138385
-0.000516503
0.010998
0.0214317
-0.322337
-0.310259
-0.299653
-0.287191
-0.271172
-0.251452
-0.228322
-0.202459
-0.174839
-0.146569
-0.11872
-0.0922076
-0.0677071
-0.0456377
-0.02618
-0.00932211
0.00505737
0.0170908
0.0274252
0.0367275
-0.285033
-0.274881
-0.265601
-0.254106
-0.238853
-0.219754
-0.197194
-0.17195
-0.145075
-0.117723
-0.090975
-0.0657239
-0.0426043
-0.0219851
-0.00399966
0.0114036
0.0243698
0.0350491
0.0441476
0.0522646
-0.245132
-0.237012
-0.229138
-0.218693
-0.204313
-0.185971
-0.164148
-0.139715
-0.113788
-0.0875655
-0.0621191
-0.0383123
-0.0167336
0.00229951
0.0187006
0.0325576
0.0440362
0.0533029
0.0611152
0.067994
-0.202793
-0.196797
-0.190401
-0.181088
-0.167689
-0.150244
-0.129324
-0.10589
-0.0811244
-0.056232
-0.0322786
-0.0100886
0.00980012
0.0271224
0.0418368
0.0540645
0.0639889
0.0717921
0.0782727
0.0838597
-0.158205
-0.154408
-0.149557
-0.141455
-0.129146
-0.112732
-0.0928885
-0.0706474
-0.0472362
-0.023869
-0.00158945
0.0188235
0.0368857
0.052384
0.0653199
0.0758442
0.0841556
0.0904521
0.0955591
0.0997986
-0.111573
-0.110048
-0.106801
-0.0999827
-0.0888663
-0.0736303
-0.055026
-0.0341603
-0.0122928
0.00936556
0.0298039
0.0482936
0.0644065
0.0779801
0.0890564
0.0978123
0.104459
0.109215
0.112911
0.115741
-0.0630879
-0.0639857
-0.0623511
-0.0568856
-0.0470669
-0.0331409
-0.0159362
0.00337891
0.0235245
0.0433048
0.0617497
0.0781856
0.0922409
0.103802
0.112949
0.119881
0.124821
0.128015
0.13027
0.131587
-0.0131489
-0.0163792
-0.0164448
-0.0124017
-0.00397727
0.00851147
0.0241643
0.0417648
0.0600247
0.0777738
0.09409
0.108358
0.120263
0.129739
0.136899
0.141959
0.14516
0.146796
0.147573
0.147138
0.0380494
0.0324432
0.0306479
0.0332131
0.0401536
0.0510854
0.0650456
0.0807816
0.0970084
0.112591
0.126662
0.138666
0.148345
0.155676
0.160802
0.163953
0.165396
0.165486
0.164651
0.162154
0.0901977
0.0821919
0.0786473
0.0796856
0.0850605
0.0943262
0.106467
0.120204
0.134269
0.14757
0.159299
0.168962
0.176354
0.181497
0.184556
0.185772
0.185448
0.183947
0.181138
0.176587
0.142967
0.132563
0.127257
0.126727
0.130465
0.137968
0.148177
0.159801
0.171595
0.18252
0.19183
0.199094
0.204159
0.207085
0.20806
0.207334
0.205243
0.202066
0.196812
0.190681
0.196021
0.183236
0.176165
0.174035
0.176077
0.181736
0.18992
0.199335
0.208772
0.217248
0.224084
0.22891
0.231625
0.232323
0.231211
0.228554
0.22471
0.219916
0.213142
0.206568
0.249014
0.233878
0.225051
0.221301
0.221599
0.22535
0.231434
0.238567
0.245582
0.25156
0.255888
0.258258
0.258617
0.25709
0.253903
0.249333
0.243739
0.237328
0.229224
0.22195
0.301592
0.284152
0.273587
0.268206
0.26673
0.268524
0.272454
0.277255
0.281808
0.285261
0.28707
0.286986
0.285
0.281267
0.276029
0.26957
0.262246
0.254234
0.244813
0.236602
0.3534
0.333713
0.321439
0.314431
0.311165
0.310973
0.312718
0.315159
0.317234
0.31816
0.31746
0.314944
0.310642
0.304737
0.297484
0.289172
0.280148
0.270573
0.259851
0.250545
0.404079
0.382219
0.368274
0.359656
0.354599
0.352413
0.351963
0.352041
0.351648
0.350067
0.346891
0.341982
0.335412
0.327384
0.318165
0.308047
0.297365
0.286269
0.274276
0.263801
0.453277
0.429326
0.413763
0.403562
0.396731
0.392563
0.389933
0.38767
0.38484
0.380797
0.375198
0.367958
0.359183
0.349096
0.337973
0.326107
0.31382
0.301255
0.288025
0.276361
0.500645
0.4747
0.457579
0.445838
0.437268
0.43115
0.426376
0.421819
0.416609
0.410171
0.402224
0.392731
0.38183
0.369764
0.356812
0.343268
0.329441
0.315467
0.301046
0.288199
0.545845
0.518013
0.499407
0.48618
0.475923
0.467909
0.461051
0.45427
0.44676
0.438016
0.427815
0.416167
0.403237
0.389283
0.374591
0.35945
0.344157
0.328845
0.313288
0.299287
0.588552
0.55895
0.538941
0.524298
0.512422
0.502586
0.493726
0.484813
0.475107
0.464168
0.451828
0.438138
0.423291
0.407556
0.391223
0.374577
0.357903
0.341333
0.324705
0.309594
0.628454
0.597211
0.575892
0.559914
0.546505
0.534939
0.524182
0.513254
0.501476
0.488471
0.474125
0.458524
0.441885
0.424487
0.406624
0.388577
0.370616
0.352875
0.33525
0.319089
0.665261
0.632514
0.609985
0.592766
0.577926
0.564743
0.552215
0.539407
0.525702
0.510782
0.494578
0.477212
0.45892
0.439991
0.420719
0.401382
0.382237
0.363421
0.34488
0.32774
0.698701
0.664596
0.640968
0.622613
0.606459
0.59179
0.577634
0.563103
0.547636
0.530966
0.51307
0.494098
0.474304
0.453985
0.433436
0.412929
0.392712
0.372924
0.353553
0.335516
0.728528
0.693217
0.66861
0.649235
0.631897
0.61589
0.600267
0.584187
0.567139
0.548903
0.529493
0.509087
0.487954
0.466397
0.444711
0.423164
0.401992
0.38134
0.361233
0.34239
0.754521
0.718163
0.692702
0.672434
0.654057
0.636872
0.619962
0.602523
0.584089
0.564483
0.543753
0.522097
0.499797
0.477162
0.454486
0.432033
0.410032
0.38863
0.367883
0.348335
0.776485
0.739246
0.713063
0.692037
0.672776
0.654589
0.636584
0.61799
0.598381
0.577614
0.555766
0.533053
0.509767
0.486222
0.462711
0.439494
0.416794
0.394759
0.373473
0.353326
0.794257
0.756308
0.72954
0.707899
0.687917
0.668916
0.65002
0.630487
0.609924
0.588216
0.565462
0.541893
0.51781
0.493529
0.469343
0.445509
0.422243
0.399699
0.377978
0.357345
0.807705
0.769218
0.742009
0.7199
0.699372
0.679751
0.660178
0.639933
0.618645
0.596225
0.572784
0.548567
0.523882
0.499044
0.474347
0.450048
0.426355
0.403425
0.381376
0.360374
0.816726
0.77788
0.750374
0.727951
0.707055
0.687017
0.666988
0.646265
0.624491
0.601591
0.577689
0.553038
0.527948
0.502737
0.477698
0.453086
0.429107
0.405919
0.38365
0.3624
0.821253
0.782227
0.754572
0.731992
0.710911
0.690663
0.670405
0.649441
0.627423
0.604282
0.580149
0.55528
0.529987
0.504589
0.479378
0.454609
0.430486
0.407169
0.38479
0.363415
0.821253
0.782227
0.754572
0.731992
0.710911
0.690663
0.670405
0.649441
0.627423
0.604282
0.580149
0.55528
0.529987
0.504589
0.479378
0.454609
0.430486
0.407169
0.38479
0.363415
0.816726
0.77788
0.750374
0.727951
0.707055
0.687017
0.666988
0.646265
0.624491
0.601591
0.577689
0.553038
0.527948
0.502737
0.477698
0.453086
0.429107
0.405919
0.38365
0.3624
0.807705
0.769218
0.742009
0.7199
0.699372
0.679751
0.660178
0.639933
0.618645
0.596225
0.572784
0.548567
0.523882
0.499044
0.474347
0.450048
0.426355
0.403425
0.381376
0.360374
0.794257
0.756308
0.72954
0.707899
0.687917
0.668916
0.65002
0.630487
0.609924
0.588216
0.565462
0.541893
0.51781
0.493529
0.469343
0.445509
0.422243
0.399699
0.377978
0.357345
0.776485
0.739246
0.713063
0.692037
0.672776
0.654589
0.636584
0.61799
0.598381
0.577614
0.555766
0.533053
0.509767
0.486222
0.462711
0.439495
0.416794
0.394759
0.373473
0.353326
0.754521
0.718163
0.692702
0.672434
0.654057
0.636872
0.619962
0.602523
0.584089
0.564483
0.543753
0.522097
0.499797
0.477162
0.454486
0.432033
0.410032
0.38863
0.367883
0.348335
0.728528
0.693217
0.66861
0.649235
0.631897
0.61589
0.600267
0.584187
0.567139
0.548903
0.529493
0.509087
0.487954
0.466397
0.444711
0.423164
0.401992
0.38134
0.361233
0.34239
0.698701
0.664596
0.640968
0.622613
0.606459
0.59179
0.577634
0.563103
0.547636
0.530966
0.51307
0.494098
0.474304
0.453985
0.433436
0.412929
0.392712
0.372924
0.353553
0.335516
0.665261
0.632514
0.609985
0.592766
0.577926
0.564743
0.552215
0.539407
0.525702
0.510782
0.494578
0.477212
0.45892
0.439991
0.420719
0.401382
0.382237
0.363421
0.34488
0.32774
0.628454
0.597211
0.575892
0.559914
0.546505
0.534939
0.524182
0.513254
0.501476
0.488471
0.474125
0.458524
0.441885
0.424487
0.406624
0.388577
0.370616
0.352875
0.33525
0.319089
0.588552
0.55895
0.538941
0.524298
0.512422
0.502586
0.493726
0.484813
0.475107
0.464168
0.451828
0.438138
0.423291
0.407556
0.391223
0.374577
0.357903
0.341333
0.324705
0.309594
0.545845
0.518013
0.499407
0.48618
0.475923
0.467909
0.461051
0.45427
0.44676
0.438016
0.427815
0.416167
0.403237
0.389283
0.374591
0.35945
0.344157
0.328845
0.313288
0.299287
0.500645
0.4747
0.457579
0.445838
0.437268
0.43115
0.426376
0.421819
0.416609
0.410171
0.402224
0.392731
0.38183
0.369764
0.356812
0.343268
0.329441
0.315467
0.301046
0.288199
0.453277
0.429326
0.413763
0.403562
0.396731
0.392563
0.389933
0.38767
0.38484
0.380797
0.375198
0.367958
0.359183
0.349096
0.337973
0.326107
0.31382
0.301255
0.288025
0.276361
0.404079
0.382219
0.368274
0.359656
0.354599
0.352413
0.351963
0.352041
0.351648
0.350067
0.346891
0.341982
0.335412
0.327384
0.318165
0.308047
0.297365
0.286269
0.274276
0.263801
0.3534
0.333713
0.321439
0.314431
0.311165
0.310973
0.312718
0.315159
0.317234
0.31816
0.31746
0.314944
0.310642
0.304737
0.297484
0.289172
0.280148
0.270573
0.259851
0.250545
0.301592
0.284152
0.273587
0.268206
0.26673
0.268524
0.272454
0.277255
0.281808
0.285261
0.28707
0.286986
0.285
0.281267
0.276029
0.26957
0.262246
0.254234
0.244813
0.236602
0.249014
0.233878
0.225051
0.221301
0.221599
0.22535
0.231434
0.238567
0.245582
0.25156
0.255888
0.258258
0.258617
0.25709
0.253903
0.249333
0.243739
0.237328
0.229224
0.22195
0.196021
0.183236
0.176165
0.174035
0.176077
0.181736
0.18992
0.199335
0.208772
0.217248
0.224084
0.22891
0.231625
0.232323
0.231211
0.228554
0.22471
0.219916
0.213142
0.206568
0.142967
0.132563
0.127257
0.126727
0.130465
0.137968
0.148177
0.159801
0.171595
0.18252
0.19183
0.199094
0.204159
0.207085
0.20806
0.207334
0.205243
0.202066
0.196812
0.190681
0.0901977
0.0821919
0.0786473
0.0796856
0.0850605
0.0943262
0.106467
0.120204
0.134269
0.14757
0.159299
0.168962
0.176354
0.181497
0.184556
0.185772
0.185448
0.183947
0.181138
0.176587
0.0380494
0.0324432
0.0306479
0.0332131
0.0401536
0.0510854
0.0650456
0.0807816
0.0970084
0.112591
0.126662
0.138666
0.148345
0.155676
0.160802
0.163953
0.165396
0.165486
0.164651
0.162154
-0.0131488
-0.0163792
-0.0164448
-0.0124017
-0.00397726
0.00851148
0.0241643
0.0417648
0.0600247
0.0777738
0.0940901
0.108358
0.120263
0.129739
0.136899
0.141959
0.14516
0.146796
0.147573
0.147138
-0.0630879
-0.0639857
-0.0623511
-0.0568856
-0.0470669
-0.0331408
-0.0159362
0.00337892
0.0235245
0.0433048
0.0617497
0.0781856
0.0922409
0.103802
0.112949
0.119881
0.124821
0.128015
0.13027
0.131587
-0.111573
-0.110048
-0.106801
-0.0999827
-0.0888663
-0.0736303
-0.055026
-0.0341603
-0.0122928
0.00936557
0.0298039
0.0482936
0.0644065
0.0779801
0.0890564
0.0978123
0.104459
0.109215
0.112911
0.115741
-0.158205
-0.154408
-0.149557
-0.141455
-0.129146
-0.112732
-0.0928885
-0.0706474
-0.0472362
-0.023869
-0.00158944
0.0188235
0.0368857
0.052384
0.0653199
0.0758442
0.0841556
0.0904521
0.0955591
0.0997987
-0.202793
-0.196797
-0.190401
-0.181088
-0.167689
-0.150244
-0.129324
-0.10589
-0.0811244
-0.056232
-0.0322786
-0.0100886
0.00980013
0.0271224
0.0418368
0.0540645
0.0639889
0.0717922
0.0782727
0.0838597
-0.245132
-0.237012
-0.229137
-0.218693
-0.204313
-0.185971
-0.164148
-0.139715
-0.113788
-0.0875655
-0.0621191
-0.0383123
-0.0167336
0.00229952
0.0187006
0.0325576
0.0440362
0.0533029
0.0611152
0.067994
-0.285033
-0.274881
-0.265601
-0.254106
-0.238853
-0.219754
-0.197194
-0.17195
-0.145075
-0.117723
-0.090975
-0.0657239
-0.0426043
-0.0219851
-0.00399965
0.0114036
0.0243698
0.0350491
0.0441477
0.0522646
-0.322337
-0.310259
-0.299653
-0.287191
-0.271172
-0.251452
-0.228322
-0.202459
-0.174839
-0.146569
-0.11872
-0.0922076
-0.0677071
-0.0456377
-0.02618
-0.0093221
0.00505738
0.0170908
0.0274252
0.0367275
-0.356917
-0.343031
-0.331183
-0.317837
-0.301156
-0.280948
-0.25741
-0.231115
-0.202955
-0.173979
-0.145238
-0.117656
-0.0919444
-0.0685704
-0.047762
-0.0295493
-0.0138385
-0.000516492
0.010998
0.0214317
-0.388675
-0.37311
-0.36011
-0.345964
-0.328723
-0.308151
-0.284358
-0.257814
-0.229317
-0.199848
-0.170424
-0.14197
-0.115226
-0.0907015
-0.0686726
-0.0492132
-0.0322601
-0.0177213
-0.00508905
0.00642196
-0.417545
-0.400438
-0.386381
-0.37152
-0.353815
-0.332996
-0.309093
-0.282472
-0.253833
-0.22408
-0.194185
-0.165062
-0.137471
-0.111957
-0.0888457
-0.0682536
-0.050155
-0.0344754
-0.0207978
-0.00826054
-0.443489
-0.424987
-0.409972
-0.39448
-0.376402
-0.355445
-0.331566
-0.305028
-0.276433
-0.246598
-0.216441
-0.186853
-0.158603
-0.13227
-0.108221
-0.08662
-0.0674745
-0.0507326
-0.0360942
-0.022579
-0.466501
-0.446758
-0.430887
-0.414847
-0.396481
-0.375485
-0.351749
-0.325443
-0.297065
-0.267343
-0.237127
-0.207277
-0.17856
-0.15158
-0.126743
-0.104261
-0.0841797
-0.066478
-0.0508948
-0.0365343
-0.486601
-0.465776
-0.449155
-0.432649
-0.414077
-0.39313
-0.369644
-0.343701
-0.315698
-0.28627
-0.256191
-0.226278
-0.197285
-0.169834
-0.144365
-0.121134
-0.100229
-0.0816568
-0.065213
-0.0502105
-0.503838
-0.482094
-0.46483
-0.447939
-0.429235
-0.408416
-0.385273
-0.359807
-0.332322
-0.303353
-0.273597
-0.243813
-0.214734
-0.186987
-0.161045
-0.137202
-0.115589
-0.0962445
-0.0790219
-0.063338
-0.518282
-0.495786
-0.477988
-0.460792
-0.442027
-0.421404
-0.398681
-0.373791
-0.346946
-0.318587
-0.289323
-0.25985
-0.230869
-0.203004
-0.176748
-0.152434
-0.130233
-0.110215
-0.0922953
-0.0759724
-0.530031
-0.506949
-0.488726
-0.471304
-0.452541
-0.432174
-0.409936
-0.385701
-0.3596
-0.331981
-0.303362
-0.274372
-0.245665
-0.217854
-0.191445
-0.166801
-0.144135
-0.123548
-0.105017
-0.0881396
-0.539198
-0.515696
-0.497159
-0.479587
-0.460888
-0.440825
-0.419123
-0.395607
-0.370333
-0.343564
-0.315727
-0.287373
-0.259108
-0.231518
-0.205114
-0.180284
-0.157276
-0.136226
-0.11717
-0.0998221
-0.545916
-0.522158
-0.503415
-0.48577
-0.46719
-0.447475
-0.426346
-0.403594
-0.379213
-0.353381
-0.326441
-0.298863
-0.271192
-0.243982
-0.217738
-0.192864
-0.169641
-0.148235
-0.128742
-0.111003
-0.550334
-0.526477
-0.507636
-0.489991
-0.471584
-0.452252
-0.431724
-0.409768
-0.386324
-0.361497
-0.335546
-0.308863
-0.281924
-0.255243
-0.229307
-0.20453
-0.181219
-0.159566
-0.139721
-0.121675
-0.55261
-0.528808
-0.509972
-0.4924
-0.474216
-0.455298
-0.435389
-0.414245
-0.391764
-0.367988
-0.343099
-0.317408
-0.291323
-0.265306
-0.239818
-0.215274
-0.192
-0.170211
-0.150102
-0.131833
-0.552912
-0.52931
-0.510581
-0.493152
-0.475238
-0.456759
-0.437481
-0.417153
-0.395646
-0.372948
-0.34917
-0.324547
-0.299417
-0.274184
-0.249276
-0.225095
-0.201981
-0.180166
-0.159882
-0.141478
-0.551414
-0.528148
-0.509622
-0.492405
-0.474807
-0.45679
-0.438146
-0.418631
-0.398093
-0.37648
-0.353842
-0.330342
-0.306247
-0.281901
-0.257689
-0.233995
-0.21116
-0.189429
-0.16906
-0.150613
-0.548293
-0.52549
-0.507258
-0.490319
-0.473079
-0.455545
-0.437536
-0.41882
-0.399237
-0.3787
-0.35721
-0.334865
-0.311864
-0.288489
-0.265077
-0.241982
-0.219541
-0.198002
-0.177637
-0.159246
-0.543727
-0.521501
-0.503648
-0.487049
-0.470211
-0.453178
-0.435802
-0.417869
-0.399214
-0.379731
-0.359379
-0.3382
-0.31633
-0.293989
-0.271462
-0.249069
-0.227129
-0.205889
-0.18562
-0.167393
-0.53789
-0.516344
-0.49895
-0.48275
-0.466354
-0.44984
-0.433094
-0.415921
-0.398164
-0.379701
-0.360461
-0.34044
-0.319718
-0.298453
-0.276879
-0.255273
-0.233934
-0.213095
-0.193013
-0.175072
-0.530953
-0.510177
-0.493313
-0.477568
-0.461653
-0.445677
-0.429557
-0.413123
-0.396226
-0.378741
-0.360575
-0.341687
-0.322107
-0.30194
-0.281365
-0.260618
-0.239968
-0.21963
-0.199826
-0.182312
-0.52308
-0.503152
-0.486881
-0.471643
-0.456246
-0.440826
-0.425329
-0.40961
-0.393536
-0.376982
-0.359841
-0.342046
-0.323585
-0.304517
-0.284969
-0.265133
-0.245247
-0.225501
-0.206067
-0.189145
-0.514425
-0.495411
-0.479789
-0.465105
-0.450261
-0.435415
-0.42054
-0.405516
-0.390226
-0.374552
-0.358382
-0.341627
-0.324247
-0.306258
-0.287743
-0.268851
-0.249789
-0.230721
-0.211747
-0.195608
-0.505135
-0.487086
-0.472162
-0.458075
-0.443816
-0.429562
-0.415309
-0.40096
-0.386419
-0.371574
-0.356315
-0.340542
-0.32419
-0.307244
-0.289748
-0.271812
-0.253615
-0.235297
-0.216871
-0.201742
-0.495342
-0.4783
-0.464115
-0.450661
-0.437018
-0.423374
-0.409744
-0.396056
-0.382228
-0.368164
-0.353756
-0.338899
-0.323513
-0.307558
-0.291047
-0.274058
-0.256747
-0.239236
-0.22144
-0.207579
-0.48517
-0.469165
-0.455751
-0.442963
-0.429962
-0.416944
-0.403941
-0.3909
-0.377757
-0.364428
-0.350811
-0.336803
-0.322315
-0.307287
-0.291711
-0.275638
-0.259209
-0.242541
-0.225446
-0.213134
-0.474728
-0.45978
-0.447162
-0.435066
-0.422732
-0.410357
-0.397985
-0.385581
-0.373097
-0.36046
-0.347579
-0.334353
-0.32069
-0.306519
-0.291812
-0.276603
-0.261026
-0.245206
-0.228866
-0.218375
-0.464113
-0.450233
-0.43843
-0.427049
-0.4154
-0.403682
-0.391946
-0.380172
-0.368324
-0.356343
-0.344147
-0.33164
-0.318729
-0.305338
-0.291425
-0.277009
-0.262223
-0.247219
-0.231655
-0.223185
-0.453411
-0.440601
-0.429626
-0.418976
-0.40803
-0.396979
-0.385884
-0.374734
-0.363505
-0.352148
-0.34059
-0.328743
-0.316516
-0.303826
-0.290624
-0.276915
-0.262831
-0.248559
-0.233748
-0.22729
-0.442693
-0.430952
-0.420812
-0.410904
-0.400672
-0.390299
-0.379848
-0.369318
-0.358692
-0.347931
-0.336972
-0.325733
-0.314124
-0.302061
-0.289485
-0.276387
-0.262887
-0.24921
-0.235099
-0.230223
-0.432024
-0.421343
-0.41204
-0.40288
-0.39337
-0.383681
-0.373876
-0.363961
-0.353926
-0.343739
-0.333344
-0.322665
-0.311617
-0.300112
-0.288082
-0.275494
-0.262434
-0.249159
-0.235671
-0.231192
-0.421456
-0.411823
-0.403354
-0.394945
-0.38616
-0.377158
-0.368
-0.358695
-0.349238
-0.339604
-0.329743
-0.319586
-0.309049
-0.298042
-0.286485
-0.274313
-0.261531
-0.248378
-0.23485
-0.226747
-0.411035
-0.402436
-0.394793
-0.387133
-0.379072
-0.370755
-0.36224
-0.353539
-0.34465
-0.335552
-0.3262
-0.31653
-0.306462
-0.295905
-0.284763
-0.272936
-0.260312
-0.24704
-0.231946
-0.204836
-0.4008
-0.393216
-0.386391
-0.379473
-0.372131
-0.364493
-0.356616
-0.34851
-0.340176
-0.331596
-0.322731
-0.313521
-0.303889
-0.293745
-0.282984
-0.27148
-0.259025
-0.245783
-0.231356
-0.1978
-0.390785
-0.384198
-0.378176
-0.37199
-0.365356
-0.35839
-0.351139
-0.343617
-0.335826
-0.327748
-0.319349
-0.310575
-0.301352
-0.291592
-0.281193
-0.270023
-0.257836
-0.244873
-0.231846
-0.198466
-0.381023
-0.375411
-0.370176
-0.364707
-0.358768
-0.352459
-0.345822
-0.33887
-0.331605
-0.324012
-0.31606
-0.3077
-0.298863
-0.289467
-0.279413
-0.268581
-0.256726
-0.244142
-0.232051
-0.199796
-0.371543
-0.366883
-0.362417
-0.357646
-0.352384
-0.346714
-0.340674
-0.334274
-0.327518
-0.320392
-0.312867
-0.3049
-0.296428
-0.287376
-0.277653
-0.267151
-0.255643
-0.243463
-0.231893
-0.201121
-0.362377
-0.358643
-0.354923
-0.350829
-0.346222
-0.34117
-0.335705
-0.329837
-0.323569
-0.316889
-0.309771
-0.302176
-0.29405
-0.285323
-0.275917
-0.265734
-0.254573
-0.242808
-0.23159
-0.202649
-0.353554
-0.35072
-0.347721
-0.344279
-0.340302
-0.335842
-0.330927
-0.325567
-0.319763
-0.313507
-0.306775
-0.299532
-0.291732
-0.283313
-0.274207
-0.264333
-0.253516
-0.24217
-0.231226
-0.20435
-0.34511
-0.343144
-0.340837
-0.33802
-0.334643
-0.330747
-0.326354
-0.321474
-0.31611
-0.310253
-0.303883
-0.296971
-0.289477
-0.281348
-0.27253
-0.262953
-0.252476
-0.241539
-0.23083
-0.206128
-0.337081
-0.335949
-0.334302
-0.332077
-0.329268
-0.325903
-0.322001
-0.317572
-0.312619
-0.307135
-0.301104
-0.294501
-0.287292
-0.279436
-0.27089
-0.261599
-0.251456
-0.240913
-0.230424
-0.207915
-0.329505
-0.329167
-0.328146
-0.326478
-0.324201
-0.321333
-0.317888
-0.313878
-0.309306
-0.304167
-0.298448
-0.292131
-0.285187
-0.277587
-0.269298
-0.260282
-0.250464
-0.240294
-0.23003
-0.209666
-0.322423
-0.322836
-0.322401
-0.321252
-0.319469
-0.317059
-0.314036
-0.31041
-0.306187
-0.301364
-0.295932
-0.289876
-0.283177
-0.275813
-0.267765
-0.259011
-0.249508
-0.239687
-0.229662
-0.211339
-0.31588
-0.316992
-0.317101
-0.31643
-0.315099
-0.313108
-0.310468
-0.307191
-0.303285
-0.298748
-0.293574
-0.287755
-0.281278
-0.274131
-0.266308
-0.2578
-0.248597
-0.2391
-0.229327
-0.2129
-0.309919
-0.311674
-0.312279