/*--------------------------------*- C++ -*----------------------------------*\
  =========                 |
  \\      /  F ield         | OpenFOAM: The Open Source CFD Toolbox
   \\    /   O peration     | Website:  https://openfoam.org
    \\  /    A nd           | Version:  7
     \\/     M anipulation  |
\*---------------------------------------------------------------------------*/
FoamFile
{
    version     2.0;
    format      ascii;
    class       surfaceScalarField;
    location    "4.6";
    object      phi;
}
// * * * * * * * * * * * * * * * * * * * * * * * * * * * * * * * * * * * * * //

dimensions      [0 3 -1 0 0 0 0];

internalField   nonuniform List<scalar> 
617
(
8.80333e-05
-3.73078e-07
8.79678e-05
-3.93298e-07
8.78987e-05
-4.17803e-07
8.78252e-05
-4.47353e-07
8.77462e-05
-4.82842e-07
8.76609e-05
-5.25331e-07
8.75679e-05
-5.76072e-07
8.74656e-05
-6.36548e-07
8.73525e-05
-7.08513e-07
8.72263e-05
-7.94046e-07
8.70845e-05
-8.95608e-07
8.69244e-05
-1.01612e-06
8.67424e-05
-1.15905e-06
8.65345e-05
-1.32852e-06
8.62957e-05
-1.52942e-06
8.60204e-05
-1.76759e-06
8.57016e-05
-2.04996e-06
8.53312e-05
-2.38482e-06
8.48995e-05
-2.78207e-06
8.43947e-05
-3.25352e-06
8.38029e-05
-3.81331e-06
8.31073e-05
-4.4784e-06
8.22877e-05
-5.26905e-06
8.13197e-05
-6.20957e-06
8.01736e-05
-7.32906e-06
7.88132e-05
-8.66235e-06
7.71944e-05
-1.02511e-05
7.5263e-05
-1.2145e-05
7.29521e-05
-1.44034e-05
7.0179e-05
-1.7097e-05
6.68415e-05
-2.031e-05
6.28139e-05
-2.41381e-05
5.79422e-05
-2.86811e-05
5.20419e-05
-3.39929e-05
4.49026e-05
-3.99731e-05
3.633e-05
-4.60083e-05
2.62811e-05
-5.05476e-05
1.52805e-05
-4.99756e-05
5.10271e-06
-3.99255e-05
-1.39731e-05
8.29679e-05
-2.93119e-07
8.29101e-05
-2.88947e-07
8.28531e-05
-2.84921e-07
8.2797e-05
-2.8105e-07
8.27415e-05
-2.77343e-07
8.26869e-05
-2.73814e-07
8.26328e-05
-2.70477e-07
8.25795e-05
-2.67351e-07
8.25267e-05
-2.64459e-07
8.24746e-05
-2.61827e-07
8.24229e-05
-2.59485e-07
8.23716e-05
-2.57473e-07
8.23207e-05
-2.55835e-07
8.22702e-05
-2.54622e-07
8.22198e-05
-2.53899e-07
8.21696e-05
-2.53738e-07
8.21193e-05
-2.54228e-07
8.20689e-05
-2.55472e-07
8.20182e-05
-2.57592e-07
8.1967e-05
-2.60732e-07
8.19152e-05
-2.65064e-07
8.18623e-05
-2.70787e-07
8.18083e-05
-2.7814e-07
8.17527e-05
-2.87403e-07
8.16951e-05
-2.98907e-07
8.1635e-05
-3.13044e-07
8.1572e-05
-3.30273e-07
8.15053e-05
-3.51142e-07
8.14343e-05
-3.76293e-07
8.13579e-05
-4.06487e-07
8.12752e-05
-4.42624e-07
8.11849e-05
-4.85767e-07
8.10855e-05
-5.37174e-07
8.09754e-05
-5.98335e-07
8.08523e-05
-6.71011e-07
8.0714e-05
-7.57294e-07
8.05576e-05
-8.59658e-07
8.03795e-05
-9.81044e-07
8.0176e-05
-1.12494e-06
7.9942e-05
-1.2955e-06
7.96721e-05
-1.49765e-06
7.93594e-05
-1.73726e-06
7.89959e-05
-2.02134e-06
7.85721e-05
-2.35823e-06
7.80765e-05
-2.7579e-06
7.74954e-05
-3.23223e-06
7.68124e-05
-3.79543e-06
7.60079e-05
-4.46448e-06
7.50579e-05
-5.25961e-06
7.39338e-05
-6.20497e-06
7.26007e-05
-7.32925e-06
7.10162e-05
-8.66654e-06
6.91284e-05
-1.02572e-05
6.6874e-05
-1.2149e-05
6.41755e-05
-1.43985e-05
6.0938e-05
-1.70725e-05
5.70465e-05
-2.02465e-05
5.23629e-05
-2.39975e-05
4.67277e-05
-2.83578e-05
3.99709e-05
-3.32162e-05
3.19638e-05
-3.80012e-05
2.27548e-05
-4.13387e-05
1.29399e-05
-4.01607e-05
4.16338e-06
-3.1149e-05
-9.80973e-06
7.6091e-05
-2.38132e-07
7.60368e-05
-2.3475e-07
7.59833e-05
-2.31488e-07
7.59306e-05
-2.28352e-07
7.58787e-05
-2.2535e-07
7.58273e-05
-2.22495e-07
7.57767e-05
-2.19798e-07
7.57266e-05
-2.17274e-07
7.56771e-05
-2.14942e-07
7.56281e-05
-2.12825e-07
7.55795e-05
-2.10947e-07
7.55314e-05
-2.09341e-07
7.54836e-05
-2.08042e-07
7.54361e-05
-2.07096e-07
7.53887e-05
-2.06553e-07
7.53415e-05
-2.06475e-07
7.52942e-05
-2.06935e-07
7.52467e-05
-2.08018e-07
7.51989e-05
-2.09825e-07
7.51507e-05
-2.12475e-07
7.51017e-05
-2.16111e-07
7.50519e-05
-2.20899e-07
7.50007e-05
-2.27034e-07
7.49481e-05
-2.34749e-07
7.48935e-05
-2.44319e-07
7.48365e-05
-2.56067e-07
7.47766e-05
-2.70374e-07
7.47132e-05
-2.87691e-07
7.46454e-05
-3.08553e-07
7.45725e-05
-3.33587e-07
7.44935e-05
-3.63539e-07
7.4407e-05
-3.99287e-07
7.43117e-05
-4.41873e-07
7.42059e-05
-4.92527e-07
7.40876e-05
-5.52708e-07
7.39544e-05
-6.24142e-07
7.38036e-05
-7.08875e-07
7.36319e-05
-8.09337e-07
7.34354e-05
-9.28407e-07
7.32094e-05
-1.06951e-06
7.29485e-05
-1.23671e-06
7.2646e-05
-1.43485e-06
7.22944e-05
-1.66969e-06
7.18842e-05
-1.94809e-06
7.14046e-05
-2.27822e-06
7.08422e-05
-2.66983e-06
7.01813e-05
-3.13452e-06
6.94029e-05
-3.68611e-06
6.84843e-05
-4.34101e-06
6.7398e-05
-5.11871e-06
6.6111e-05
-6.0422e-06
6.4583e-05
-7.13863e-06
6.27657e-05
-8.43981e-06
6.05998e-05
-9.98318e-06
5.80139e-05
-1.18126e-05
5.49215e-05
-1.398e-05
5.12187e-05
-1.65437e-05
4.67836e-05
-1.95624e-05
4.14802e-05
-2.30543e-05
3.51744e-05
-2.69104e-05
2.77934e-05
-3.06202e-05
1.94577e-05
-3.3003e-05
1.08041e-05
-3.15072e-05
3.33111e-06
-2.3676e-05
-6.47862e-06
6.87937e-05
-1.87358e-07
6.87437e-05
-1.84703e-07
6.86944e-05
-1.82143e-07
6.86457e-05
-1.79683e-07
6.85977e-05
-1.7733e-07
6.85503e-05
-1.75093e-07
6.85034e-05
-1.72981e-07
6.84572e-05
-1.71008e-07
6.84114e-05
-1.69188e-07
6.83661e-05
-1.67538e-07
6.83213e-05
-1.6608e-07
6.82768e-05
-1.64838e-07
6.82326e-05
-1.63843e-07
6.81886e-05
-1.63128e-07
6.81448e-05
-1.62737e-07
6.8101e-05
-1.62717e-07
6.80572e-05
-1.63127e-07
6.80132e-05
-1.64036e-07
6.79689e-05
-1.65524e-07
6.79241e-05
-1.67688e-07
6.78787e-05
-1.70641e-07
6.78323e-05
-1.74515e-07
6.77847e-05
-1.7947e-07
6.77357e-05
-1.8569e-07
6.76847e-05
-1.93395e-07
6.76315e-05
-2.02844e-07
6.75755e-05
-2.14344e-07
6.75161e-05
-2.28255e-07
6.74525e-05
-2.45005e-07
6.7384e-05
-2.65097e-07
6.73096e-05
-2.89129e-07
6.72281e-05
-3.17803e-07
6.71382e-05
-3.51953e-07
6.70382e-05
-3.92565e-07
6.69263e-05
-4.40806e-07
6.68003e-05
-4.98056e-07
6.66573e-05
-5.65953e-07
6.64944e-05
-6.46438e-07
6.63078e-05
-7.41813e-07
6.60931e-05
-8.54811e-07
6.58451e-05
-9.8868e-07
6.55575e-05
-1.14728e-06
6.5223e-05
-1.33519e-06
6.48328e-05
-1.55788e-06
6.43764e-05
-1.82183e-06
6.38414e-05
-2.13476e-06
6.32127e-05
-2.50585e-06
6.24726e-05
-2.94597e-06
6.15996e-05
-3.468e-06
6.0568e-05
-4.08713e-06
5.9347e-05
-4.82119e-06
5.78994e-05
-5.69103e-06
5.61805e-05
-6.72091e-06
5.41364e-05
-7.93909e-06
5.17023e-05
-9.37857e-06
4.88006e-05
-1.10783e-05
4.53394e-05
-1.30825e-05
4.12123e-05
-1.54354e-05
3.63048e-05
-1.81468e-05
3.05141e-05
-2.11197e-05
2.38121e-05
-2.39182e-05
1.6373e-05
-2.55638e-05
8.8496e-06
-2.39838e-05
2.58717e-06
-1.74136e-05
-3.89144e-06
6.10697e-05
-1.41386e-07
6.10243e-05
-1.39387e-07
6.09797e-05
-1.3746e-07
6.09356e-05
-1.35609e-07
6.08921e-05
-1.33839e-07
6.08492e-05
-1.32158e-07
6.08067e-05
-1.30573e-07
6.07648e-05
-1.29094e-07
6.07234e-05
-1.27731e-07
6.06823e-05
-1.26498e-07
6.06417e-05
-1.25412e-07
6.06013e-05
-1.24492e-07
6.05612e-05
-1.2376e-07
6.05214e-05
-1.23244e-07
6.04816e-05
-1.22975e-07
6.04419e-05
-1.22991e-07
6.04021e-05
-1.23337e-07
6.03621e-05
-1.24065e-07
6.03218e-05
-1.25239e-07
6.02811e-05
-1.2693e-07
6.02396e-05
-1.29227e-07
6.01974e-05
-1.32232e-07
6.0154e-05
-1.36066e-07
6.01091e-05
-1.40872e-07
6.00626e-05
-1.46818e-07
6.00138e-05
-1.54103e-07
5.99624e-05
-1.62963e-07
5.99079e-05
-1.73675e-07
5.98494e-05
-1.86567e-07
5.97864e-05
-2.02026e-07
5.97177e-05
-2.20509e-07
5.96425e-05
-2.42558e-07
5.95594e-05
-2.6881e-07
5.94668e-05
-3.00024e-07
5.93631e-05
-3.37093e-07
5.92461e-05
-3.81078e-07
5.91134e-05
-4.33233e-07
5.8962e-05
-4.95045e-07
5.87885e-05
-5.68279e-07
5.85887e-05
-6.55025e-07
5.83578e-05
-7.57768e-07
5.809e-05
-8.79456e-07
5.77784e-05
-1.02359e-06
5.74148e-05
-1.19433e-06
5.69896e-05
5.64911e-05
5.59056e-05
5.52166e-05
5.44043e-05
5.34453e-05
5.23115e-05
5.09691e-05
4.93779e-05
4.74899e-05
4.52477e-05
4.25831e-05
3.94162e-05
3.56557e-05
3.12064e-05
2.5991e-05
2.00157e-05
1.34893e-05
7.05969e-06
1.91835e-06
5.29122e-05
5.28722e-05
5.28328e-05
5.27939e-05
5.27555e-05
5.27176e-05
5.26801e-05
5.26431e-05
5.26065e-05
5.25702e-05
5.25343e-05
5.24986e-05
5.24632e-05
5.24279e-05
5.23928e-05
5.23576e-05
5.23224e-05
5.2287e-05
5.22513e-05
5.22151e-05
5.21783e-05
5.21408e-05
5.21022e-05
5.20623e-05
5.20207e-05
5.19772e-05
5.19313e-05
5.18825e-05
5.18301e-05
5.17735e-05
5.17119e-05
5.16442e-05
5.15693e-05
5.14858e-05
5.13922e-05
5.12865e-05
5.11665e-05
5.10295e-05
5.08724e-05
5.06914e-05
5.04821e-05
5.02392e-05
4.99567e-05
)
;

boundaryField
{
    inlet
    {
        type            calculated;
        value           nonuniform 0();
    }
    outlet
    {
        type            calculated;
        value           nonuniform 0();
    }
    wall
    {
        type            calculated;
        value           uniform 0;
    }
    wedge1
    {
        type            wedge;
        value           nonuniform List<scalar> 
344
(
1.86629e-17
1.51827e-17
1.20204e-17
2.74051e-17
-4.38722e-17
1.8396e-17
1.49697e-17
1.18573e-17
2.7023e-17
-4.32429e-17
1.81329e-17
1.47445e-17
1.16703e-17
2.6623e-17
-4.26729e-17
1.78746e-17
1.45388e-17
1.15048e-17
2.62574e-17
-4.21083e-17
1.76458e-17
1.43527e-17
1.13577e-17
2.59167e-17
-4.1557e-17
1.74291e-17
1.41786e-17
1.12232e-17
2.55992e-17
-4.10247e-17
1.72335e-17
1.40251e-17
1.11114e-17
2.53148e-17
-4.05041e-17
1.70302e-17
1.38636e-17
1.09824e-17
2.5027e-17
-4.00509e-17
1.68686e-17
1.37343e-17
1.08861e-17
2.47794e-17
-3.96049e-17
1.67071e-17
1.36034e-17
1.07796e-17
2.4539e-17
-3.92282e-17
1.65568e-17
1.34872e-17
1.06939e-17
2.43327e-17
-3.88819e-17
1.6418e-17
1.3373e-17
1.05991e-17
2.41374e-17
-3.8616e-17
1.6316e-17
1.32885e-17
1.05309e-17
2.39875e-17
-3.8394e-17
1.62439e-17
1.32338e-17
1.04913e-17
2.3891e-17
-3.82261e-17
1.621e-17
1.32127e-17
1.04841e-17
2.38543e-17
-3.81182e-17
1.61891e-17
1.3201e-17
1.04757e-17
2.38489e-17
-3.81314e-17
1.62347e-17
1.32428e-17
1.0517e-17
2.39249e-17
-3.82188e-17
1.63128e-17
1.33095e-17
1.05691e-17
2.40554e-17
-3.84539e-17
1.64358e-17
1.34179e-17
1.06634e-17
2.42752e-17
-3.88137e-17
1.66157e-17
1.3567e-17
1.07793e-17
2.4574e-17
-3.93629e-17
1.68825e-17
1.37871e-17
1.0956e-17
2.49974e-17
-4.00844e-17
1.72369e-17
1.4084e-17
1.11982e-17
2.55661e-17
-4.10158e-17
1.76997e-17
1.44742e-17
1.15222e-17
2.63052e-17
-4.21872e-17
1.82602e-17
1.49436e-17
1.19008e-17
2.72073e-17
-4.36927e-17
1.89842e-17
1.5546e-17
1.23921e-17
2.83416e-17
-4.55273e-17
7.1054e-17
1.98568e-17
1.6269e-17
1.29718e-17
2.97114e-17
-4.78071e-17
7.48217e-17
2.09107e-17
1.71465e-17
1.36837e-17
3.13837e-17
-5.0564e-17
7.9383e-17
2.21846e-17
1.81921e-17
1.45182e-17
3.33774e-17
-5.39327e-17
8.48816e-17
2.37165e-17
1.94658e-17
1.55424e-17
3.58021e-17
-5.79634e-17
9.15062e-17
2.55782e-17
2.10076e-17
1.67845e-17
3.87205e-17
-6.27834e-17
9.94444e-17
2.78077e-17
2.28563e-17
1.82769e-17
4.22199e-17
-6.85354e-17
1.08939e-16
3.04793e-17
2.50741e-17
2.0071e-17
4.64071e-17
-7.53817e-17
1.20235e-16
3.36409e-17
2.76949e-17
2.21804e-17
5.13674e-17
-8.35702e-17
1.33704e-16
3.74288e-17
3.08313e-17
2.47103e-17
5.7283e-17
-9.32787e-17
1.49698e-16
4.19119e-17
3.45414e-17
2.76922e-17
6.4288e-17
-1.04839e-16
1.68688e-16
4.72275e-17
3.8944e-17
3.124e-17
7.26078e-17
-1.1854e-16
1.91213e-16
5.35279e-17
4.41543e-17
3.54263e-17
8.24543e-17
-1.34814e-16
2.17947e-16
6.10157e-17
5.03457e-17
4.04045e-17
9.41392e-17
-1.54079e-16
2.4965e-16
6.98939e-17
5.76905e-17
4.6314e-17
1.07997e-16
-1.76891e-16
2.87247e-16
8.04262e-17
6.6405e-17
5.33297e-17
1.24427e-16
-2.03893e-16
3.31801e-16
9.28892e-17
7.6713e-17
6.16163e-17
1.43865e-16
-2.35906e-16
3.84657e-16
1.07689e-16
8.89488e-17
7.14569e-17
1.6691e-16
-2.7379e-16
4.4733e-16
1.25221e-16
1.03437e-16
8.30952e-17
1.9419e-16
-3.18688e-16
5.21685e-16
1.46007e-16
1.20613e-16
9.68974e-17
2.2652e-16
-3.71851e-16
6.09936e-16
1.70667e-16
1.40975e-16
1.13242e-16
2.64815e-16
7.14766e-16
1.99957e-16
1.65149e-16
1.32641e-16
3.10221e-16
8.39351e-16
2.34749e-16
1.93852e-16
1.55665e-16
3.64065e-16
9.8752e-16
2.76103e-16
2.27946e-16
1.82999e-16
4.27919e-16
1.16384e-15
3.25256e-16
2.68431e-16
2.15414e-16
5.03603e-16
1.37385e-15
3.83757e-16
3.16559e-16
2.5391e-16
5.93342e-16
1.62414e-15
4.53371e-16
3.73746e-16
2.99574e-16
6.99659e-16
1.92265e-15
5.3625e-16
4.41714e-16
3.53756e-16
8.2556e-16
2.2789e-15
6.34953e-16
5.22469e-16
4.17975e-16
9.74473e-16
2.70432e-15
7.52522e-16
6.18429e-16
4.9409e-16
1.15047e-15
3.21261e-15
8.92593e-16
7.32408e-16
5.84226e-16
1.35823e-15
3.82005e-15
1.05943e-15
8.67721e-16
6.90889e-16
1.60329e-15
4.54539e-15
1.2579e-15
1.02812e-15
8.16908e-16
1.89193e-15
5.40821e-15
1.49292e-15
1.21731e-15
9.6503e-16
2.2303e-15
6.42033e-15
1.7669e-15
1.43663e-15
1.13597e-15
2.61946e-15
7.56494e-15
2.0733e-15
1.67945e-15
1.32358e-15
3.04378e-15
8.73274e-15
2.3782e-15
1.91525e-15
1.5016e-15
3.43795e-15
9.6331e-15
2.59657e-15
2.07092e-15
1.60914e-15
3.65465e-15
9.59781e-15
2.54267e-15
1.99338e-15
1.5226e-15
3.39967e-15
7.73387e-15
1.9919e-15
1.5158e-15
1.12155e-15
2.41876e-15
2.88799e-15
6.86475e-16
4.71385e-16
3.03472e-16
5.2754e-16
)
;
    }
    wedge2
    {
        type            wedge;
        value           nonuniform List<scalar> 
344
(
1.82282e-17
1.47507e-17
1.16075e-17
2.7017e-17
-4.42128e-17
1.7969e-17
1.45376e-17
1.14351e-17
2.66281e-17
-4.35973e-17
1.77241e-17
1.43518e-17
1.12984e-17
2.62845e-17
-4.29672e-17
1.74937e-17
1.4162e-17
1.11527e-17
2.59356e-17
-4.23792e-17
1.72542e-17
1.39696e-17
1.1002e-17
2.55931e-17
-4.18289e-17
1.70248e-17
1.37832e-17
1.08532e-17
2.52609e-17
-4.13143e-17
1.67982e-17
1.35959e-17
1.06974e-17
2.49321e-17
-4.08479e-17
1.66056e-17
1.34381e-17
1.0576e-17
2.46469e-17
-4.03798e-17
1.64002e-17
1.3272e-17
1.0441e-17
2.43659e-17
-3.99774e-17
1.6227e-17
1.3134e-17
1.03373e-17
2.41273e-17
-3.95869e-17
1.60788e-17
1.30111e-17
1.02368e-17
2.39103e-17
-3.92573e-17
1.59597e-17
1.29197e-17
1.01722e-17
2.37452e-17
-3.89506e-17
1.58501e-17
1.28368e-17
1.01116e-17
2.36061e-17
-3.87174e-17
1.57634e-17
1.27675e-17
1.00572e-17
2.34954e-17
-3.85645e-17
1.56989e-17
1.27146e-17
1.00105e-17
2.34186e-17
-3.85057e-17
1.5691e-17
1.27097e-17
1.00112e-17
2.34185e-17
-3.85035e-17
1.56971e-17
1.27177e-17
1.00155e-17
2.3462e-17
-3.86328e-17
1.57637e-17
1.27777e-17
1.00708e-17
2.35959e-17
-3.88527e-17
1.58936e-17
1.28855e-17
1.01559e-17
2.38089e-17
-3.92254e-17
1.60927e-17
1.30568e-17
1.03029e-17
2.41393e-17
-3.97318e-17
1.63519e-17
1.32786e-17
1.0487e-17
2.45742e-17
-4.04433e-17
1.66953e-17
1.35656e-17
1.07197e-17
2.51317e-17
-4.13863e-17
1.71316e-17
1.39257e-17
1.10044e-17
2.58324e-17
-4.26058e-17
1.77058e-17
1.44015e-17
1.13913e-17
2.67381e-17
-4.40973e-17
1.8393e-17
1.49731e-17
1.18495e-17
2.78429e-17
-4.59705e-17
7.04271e-17
1.92565e-17
1.56926e-17
1.24353e-17
2.92191e-17
-4.82334e-17
7.41958e-17
2.03203e-17
1.65734e-17
1.31428e-17
3.08887e-17
-5.10009e-17
7.87747e-17
2.16132e-17
1.76575e-17
1.40265e-17
3.29376e-17
-5.4311e-17
8.4304e-17
2.31763e-17
1.89505e-17
1.50719e-17
3.53802e-17
-5.83178e-17
9.09303e-17
2.50319e-17
2.04899e-17
1.63136e-17
3.83003e-17
-6.31353e-17
9.88625e-17
2.72528e-17
2.2329e-17
1.77926e-17
4.17838e-17
-6.89059e-17
1.08327e-16
2.9896e-17
2.4514e-17
1.9545e-17
4.59284e-17
-7.58042e-17
1.19633e-16
3.30688e-17
2.71391e-17
2.16604e-17
5.08909e-17
-8.39806e-17
1.33065e-16
3.68186e-17
3.02439e-17
2.41556e-17
5.67753e-17
-9.37285e-17
1.4905e-16
4.12943e-17
3.39501e-17
2.71436e-17
6.37862e-17
-1.05273e-16
1.6804e-16
4.66161e-17
3.83518e-17
3.06819e-17
7.20995e-17
-1.18986e-16
1.90587e-16
5.29378e-17
4.35864e-17
3.49008e-17
8.19785e-17
-1.35217e-16
2.17317e-16
6.04194e-17
4.97804e-17
3.98873e-17
9.3675e-17
-1.54472e-16
2.49012e-16
6.9289e-17
5.7117e-17
4.57877e-17
1.07523e-16
-1.77295e-16
2.86583e-16
7.97953e-17
6.58028e-17
5.27662e-17
1.23915e-16
-2.04344e-16
3.31148e-16
9.22711e-17
7.61165e-17
6.1061e-17
1.43359e-16
-2.36342e-16
3.83969e-16
1.07036e-16
8.83223e-17
7.08681e-17
1.66373e-16
-2.74265e-16
4.46636e-16
1.24562e-16
1.02808e-16
8.2514e-17
1.93661e-16
-3.19145e-16
5.20995e-16
1.45358e-16
1.19987e-16
9.63111e-17
2.25987e-16
-3.72318e-16
6.09271e-16
1.70041e-16
1.40375e-16
1.12689e-16
2.64316e-16
7.14099e-16
1.99327e-16
1.64553e-16
1.32098e-16
3.09735e-16
8.38677e-16
2.3411e-16
1.93248e-16
1.55113e-16
3.63569e-16
9.86821e-16
2.75441e-16
2.27316e-16
1.82411e-16
4.27385e-16
1.16315e-15
3.24606e-16
2.67808e-16
2.14836e-16
5.03077e-16
1.37313e-15
3.83075e-16
3.15908e-16
2.53301e-16
5.92788e-16
1.62341e-15
4.52685e-16
3.73095e-16
2.98974e-16
6.99114e-16
1.92193e-15
5.35578e-16
4.4107e-16
3.53155e-16
8.25016e-16
2.27821e-15
6.34306e-16
5.2187e-16
4.17428e-16
9.73988e-16
2.70367e-15
7.51911e-16
6.17853e-16
4.93567e-16
1.15001e-15
3.21196e-15
8.91981e-16
7.31833e-16
5.83706e-16
1.35777e-15
3.81939e-15
1.05881e-15
8.67136e-16
6.90356e-16
1.60281e-15
4.54471e-15
1.25725e-15
1.02751e-15
8.16339e-16
1.89141e-15
5.40754e-15
1.49229e-15
1.2167e-15
9.64473e-16
2.2298e-15
6.41964e-15
1.76625e-15
1.43601e-15
1.13539e-15
2.61894e-15
7.56427e-15
2.07266e-15
1.67885e-15
1.32303e-15
3.04329e-15
8.73212e-15
2.37762e-15
1.91469e-15
1.50108e-15
3.43748e-15
9.63257e-15
2.59607e-15
2.07044e-15
1.60871e-15
3.65427e-15
9.59736e-15
2.54225e-15
1.99299e-15
1.52225e-15
3.39936e-15
7.73356e-15
1.99161e-15
1.51553e-15
1.1213e-15
2.41854e-15
2.88786e-15
6.86353e-16
4.71261e-16
3.03346e-16
5.27418e-16
)
;
    }
    axis
    {
        type            empty;
        value           nonuniform 0();
    }
    procBoundary38to32
    {
        type            processor;
        value           nonuniform List<scalar> 
66
(
4.35504e-07
4.58738e-07
4.86914e-07
5.20909e-07
5.61754e-07
6.10673e-07
6.69109e-07
7.38774e-07
8.21691e-07
9.20259e-07
1.03732e-06
1.17625e-06
1.34104e-06
1.53647e-06
1.76818e-06
2.04293e-06
2.36874e-06
2.75521e-06
3.21382e-06
3.7583e-06
4.4051e-06
5.17397e-06
6.08863e-06
7.1776e-06
8.4752e-06
1.00227e-05
1.18698e-05
1.40764e-05
1.67143e-05
1.98702e-05
2.36474e-05
2.81657e-05
3.35528e-05
3.98932e-05
4.71124e-05
5.45809e-05
6.05966e-05
6.09762e-05
5.01033e-05
1.90758e-05
3.51737e-07
3.4672e-07
3.41878e-07
3.37219e-07
3.32755e-07
3.28503e-07
3.24479e-07
3.20705e-07
3.17208e-07
3.14019e-07
3.11174e-07
3.08719e-07
3.06704e-07
3.05193e-07
3.04259e-07
3.03989e-07
3.04486e-07
3.05872e-07
3.08292e-07
3.11914e-07
3.16939e-07
3.23605e-07
3.3219e-07
3.43026e-07
-8.80957e-05
3.56502e-07
)
;
    }
    procBoundary38to37
    {
        type            processor;
        value           nonuniform List<scalar> 4(-8.30265e-05 -7.6146e-05 -6.88445e-05 -6.11156e-05);
    }
    procBoundary38to43
    {
        type            processor;
        value           uniform -5.29528e-05;
    }
    procBoundary38to44
    {
        type            processor;
        value           nonuniform List<scalar> 
66
(
-1.39661e-06
-1.6363e-06
-1.92034e-06
-2.25693e-06
-2.65575e-06
-3.12814e-06
-3.68732e-06
-4.34863e-06
-5.12974e-06
-6.05106e-06
-7.13634e-06
-8.41378e-06
-9.91562e-06
-1.16749e-05
-1.36974e-05
-1.59044e-05
-1.79429e-05
-1.90374e-05
-1.75542e-05
-1.22722e-05
-1.97309e-06
-1.00808e-07
-9.93856e-08
-9.80151e-08
-9.66995e-08
-9.54425e-08
-9.42489e-08
-9.31245e-08
-9.20762e-08
-9.11121e-08
-9.02422e-08
-8.94781e-08
-8.88338e-08
-8.83258e-08
-8.79736e-08
-8.78006e-08
-8.7834e-08
-8.81063e-08
-8.86557e-08
-8.95275e-08
-9.07751e-08
-9.24614e-08
-9.4661e-08
-9.74616e-08
-1.00967e-07
-1.05299e-07
-1.10602e-07
-1.17048e-07
-1.24836e-07
-1.34205e-07
-1.45435e-07
-1.58859e-07
-1.74867e-07
-1.93924e-07
-2.16577e-07
-2.43474e-07
-2.75383e-07
-3.13213e-07
-3.58038e-07
-4.11135e-07
-4.74016e-07
-5.48473e-07
-6.36633e-07
-7.4102e-07
4.9627e-05
-8.64626e-07
)
;
    }
}


// ************************************************************************* //
