/*--------------------------------*- C++ -*----------------------------------*\
  =========                 |
  \\      /  F ield         | OpenFOAM: The Open Source CFD Toolbox
   \\    /   O peration     | Website:  https://openfoam.org
    \\  /    A nd           | Version:  7
     \\/     M anipulation  |
\*---------------------------------------------------------------------------*/
FoamFile
{
    version     2.0;
    format      ascii;
    class       volScalarField;
    location    "1.9";
    object      p;
}
// * * * * * * * * * * * * * * * * * * * * * * * * * * * * * * * * * * * * * //

dimensions      [1 -1 -2 0 0 0 0];

internalField   nonuniform List<scalar> 
100800
(
1
1
1
1
1
1
1
1
1
1
1
1
1
1
1
1
1
1
1
1
1
1
1
1
1
1
1
1
1
1
1
1
1
1
1
1
1
1
1
1
1
1
1
1
1
1
1
1
1
1
1
1
1
1
1
1
1
1
1
1
1
1
1.2254
7.28405
10.4658
10.4993
10.5473
10.5984
10.651
10.7049
10.758
10.8073
10.8507
10.8905
10.9323
10.9799
11.0312
11.0804
11.1236
11.16
11.1923
11.2241
11.258
11.2951
11.3338
11.3709
11.405
11.4376
11.471
11.5067
11.5452
11.5865
11.6286
11.6665
11.6951
11.714
11.7289
11.7446
11.763
11.7856
11.8132
11.8431
11.8718
11.899
11.9246
11.9482
11.9688
11.9853
11.9961
12.0021
12.007
12.0135
12.023
12.0368
12.0516
12.0671
12.0824
12.0947
12.1022
12.1077
1
1
1
1
1
1
1
1
1
1
1
1
1
1
1
1
1
1
1
1
1
1
1
1
1
1
1
1
1
1
1
1
1
1
1
1
1
1
1
1
1
1
1
1
1
1
1
1
1
1
1
1
1
1
1
1
1
1
1
1
1
1
1.22022
7.2571
10.451
10.5065
10.5472
10.5956
10.6493
10.7053
10.7599
10.809
10.851
10.89
10.932
10.98
11.0314
11.08
11.122
11.1576
11.1901
11.223
11.2584
11.2961
11.334
11.3699
11.4034
11.4365
11.4713
11.5085
11.5479
11.5887
11.6284
11.6633
11.6899
11.7088
11.7251
11.7425
11.7619
11.7847
11.812
11.8417
11.8706
11.8982
11.9238
11.9467
11.9663
11.9821
11.9936
12.0012
12.007
12.0144
12.0237
12.0358
12.0491
12.0637
12.0785
12.091
12.0993
12.1052
1
1
1
1
1
1
1
1
1
1
1
1
1
1
1
1
1
1
1
1
1
1
1
1
1
1
1
1
1
1
1
1
1
1
1
1
1
1
1
1
1
1
1
1
1
1
1
1
1
1
1
1
1
1
1
1
1
1
1
1
1
1
1.20721
7.20308
10.4404
10.4997
10.5392
10.5901
10.6464
10.7056
10.7617
10.8099
10.85
10.8878
10.9301
10.9792
11.0311
11.0793
11.1201
11.1548
11.187
11.2207
11.2573
11.2958
11.3336
11.3682
11.4007
11.4338
11.4699
11.5092
11.55
11.5906
11.628
11.6594
11.6834
11.7019
11.7195
11.7388
11.7595
11.7827
11.8094
11.8385
11.8676
11.8958
11.9217
11.9444
11.9635
11.9788
11.9909
11.9996
12.0064
12.0143
12.0233
12.0343
12.0461
12.059
12.0724
12.085
12.0945
12.1014
1
1
1
1
1
1
1
1
1
1
1
1
1
1
1
1
1
1
1
1
1
1
1
1
1
1
1
1
1
1
1
1
1
1
1
1
1
1
1
1
1
1
1
1
1
1
1
1
1
1
1
1
1
1
1
1
1
1
1
1
1
1
1.1754
7.09104
10.432
10.4917
10.5366
10.5898
10.6486
10.709
10.7637
10.8083
10.8458
10.8831
10.9266
10.9771
11.0298
11.0778
11.1179
11.1519
11.1841
11.2181
11.2554
11.2948
11.3326
11.3667
11.3983
11.4306
11.4672
11.5078
11.5498
11.5903
11.6259
11.6543
11.6761
11.6939
11.7126
11.7334
11.7557
11.7797
11.8058
11.8343
11.8632
11.8915
11.9176
11.9403
11.9593
11.9748
11.9875
11.9974
12.0055
12.0136
12.022
12.0317
12.0417
12.0524
12.0642
12.0765
12.0872
12.095
1
1
1
1
1
1
1
1
1
1
1
1
1
1
1
1
1
1
1
1
1
1
1
1
1
1
1
1
1
1
1
1
1
1
1
1
1
1
1
1
1
1
1
1
1
1
1
1
1
1
1
1
1
1
1
1
1
1
1
1
1
1
1.09722
6.92767
10.4674
10.4897
10.5313
10.5863
10.6487
10.7106
10.763
10.8041
10.8399
10.8774
10.9219
10.9734
11.0267
11.0749
11.1152
11.1494
11.1816
11.2154
11.2526
11.2924
11.3308
11.365
11.3963
11.4277
11.4635
11.5036
11.5458
11.5867
11.6216
11.6487
11.6692
11.6863
11.7051
11.7267
11.7504
11.7752
11.8011
11.829
11.8572
11.885
11.9111
11.9343
11.9542
11.9706
11.984
11.995
12.0039
12.0115
12.0192
12.0276
12.0361
12.0448
12.0548
12.0664
12.0777
12.086
1
1
1
1
1
1
1
1
1
1
1
1
1
1
1
1
1
1
1
1
1
1
1
1
1
1
1
1
1
1
1
1
1
1
1
1
1
1
1
1
1
1
1
1
1
1
1
1
1
1
1
1
1
1
1
1
1
1
1
1
1
1
1.0158
6.74492
10.4902
10.4923
10.5315
10.5883
10.6516
10.7116
10.7599
10.7977
10.8325
10.87
10.9151
10.9674
11.0214
11.0703
11.1117
11.1469
11.1796
11.213
11.2494
11.289
11.3279
11.3629
11.3945
11.4251
11.459
11.4969
11.5379
11.5791
11.6148
11.6423
11.6628
11.6794
11.6975
11.7191
11.7433
11.7689
11.795
11.8226
11.85
11.8769
11.9026
11.9264
11.9478
11.9659
11.9806
11.992
12.0008
12.0078
12.0143
12.0217
12.0291
12.0362
12.0445
12.055
12.0662
12.0745
1
1
1
1
1
1
1
1
1
1
1
1
1
1
1
1
1
1
1
1
1
1
1
1
1
1
1
1
1
1
1
1
1
1
1
1
1
1
1
1
1
1
1
1
1
1
1
1
1
1
1
1
1
1
1
1
1
1
1
1
1
1
1.00017
6.51377
10.4702
10.4913
10.5332
10.591
10.6519
10.708
10.7535
10.79
10.8248
10.8623
10.9073
10.9597
11.0142
11.0644
11.1074
11.144
11.1775
11.2105
11.2458
11.2844
11.3233
11.359
11.3914
11.4215
11.4534
11.4885
11.5276
11.5688
11.6057
11.6348
11.6563
11.6728
11.69
11.7108
11.7345
11.7604
11.7869
11.8145
11.8416
11.8678
11.893
11.9171
11.9399
11.9599
11.9759
11.9877
11.9962
12.0023
12.0076
12.014
12.0207
12.0267
12.0336
12.0428
12.0531
12.0608
1
1
1
1
1
1
1
1
1
1
1
1
1
1
1
1
1
1
1
1
1
1
1
1
1
1
1
1
1
1
1
1
1
1
1
1
1
1
1
1
1
1
1
1
1
1
1
1
1
1
1
1
1
1
1
1
1
1
1
1
1
1
1
6.2508
10.4539
10.4915
10.5309
10.5872
10.6458
10.7005
10.7456
10.7826
10.8179
10.855
10.8992
10.9511
11.0059
11.0571
11.1016
11.1398
11.1741
11.2068
11.2413
11.2787
11.3171
11.3532
11.3862
11.4162
11.4469
11.4796
11.5169
11.5576
11.595
11.6256
11.6486
11.6656
11.682
11.7016
11.7243
11.7498
11.7768
11.8048
11.8322
11.8583
11.883
11.907
11.9304
11.9518
11.9692
11.9816
11.99
11.9952
11.9992
12.0046
12.0106
12.016
12.0219
12.0298
12.0387
12.0455
1
1
1
1
1
1
1
1
1
1
1
1
1
1
1
1
1
1
1
1
1
1
1
1
1
1
1
1
1
1
1
1
1
1
1
1
1
1
1
1
1
1
1
1
1
1
1
1
1
1
1
1
1
1
1
1
1
1
1
1
1
1
1
5.95646
10.4291
10.4875
10.5244
10.5786
10.6349
10.6892
10.7355
10.7748
10.8117
10.8487
10.892
10.9428
10.997
11.0485
11.0939
11.1334
11.1687
11.2017
11.2356
11.2719
11.3092
11.3452
11.3785
11.4088
11.4392
11.4708
11.5068
11.5464
11.5835
11.615
11.6391
11.657
11.673
11.6917
11.7131
11.7377
11.7646
11.7932
11.8216
11.8484
11.873
11.8964
11.9195
11.9413
11.9597
11.9729
11.9819
11.9868
11.9898
11.9938
11.9988
12.0035
12.0088
12.0157
12.0233
12.0291
1
1
1
1
1
1
1
1
1
1
1
1
1
1
1
1
1
1
1
1
1
1
1
1
1
1
1
1
1
1
1
1
1
1
1
1
1
1
1
1
1
1
1
1
1
1
1
1
1
1
1
1
1
1
1
1
1
1
1
1
1
1
1
5.62955
10.3926
10.4802
10.5162
10.5683
10.6225
10.6763
10.7238
10.7656
10.805
10.8428
10.8859
10.9356
10.9882
11.0388
11.0838
11.1242
11.1604
11.1943
11.2283
11.2638
11.2997
11.3348
11.3681
11.3991
11.4301
11.4617
11.4972
11.5359
11.5719
11.6034
11.6279
11.6464
11.6624
11.6806
11.7011
11.7246
11.7511
11.7801
11.8097
11.8377
11.8627
11.8853
11.9071
11.9281
11.9469
11.9612
11.9713
11.977
11.9795
11.9819
11.9852
11.9889
11.994
12.0004
12.0072
12.0124
1
1
1
1
1
1
1
1
1
1
1
1
1
1
1
1
1
1
1
1
1
1
1
1
1
1
1
1
1
1
1
1
1
1
1
1
1
1
1
1
1
1
1
1
1
1
1
1
1
1
1
1
1
1
1
1
1
1
1
1
1
1
1
5.26995
10.34
10.4711
10.5088
10.56
10.612
10.6641
10.7112
10.7545
10.7962
10.8357
10.8797
10.9288
10.9794
11.0281
11.0718
11.1122
11.1492
11.1847
11.2196
11.2546
11.2891
11.3229
11.3559
11.3876
11.4197
11.4521
11.4877
11.5256
11.5602
11.5907
11.6145
11.6331
11.6493
11.6675
11.6879
11.7108
11.7368
11.7657
11.7961
11.8253
11.8511
11.873
11.8932
11.9126
11.9309
11.9463
11.9583
11.9659
11.9685
11.969
11.9698
11.9721
11.977
11.9836
11.9903
11.9957
1
1
1
1
1
1
1
1
1
1
1
1
1
1
1
1
1
1
1
1
1
1
1
1
1
1
1
1
1
1
1
1
1
1
1
1
1
1
1
1
1
1
1
1
1
1
1
1
1
1
1
1
1
1
1
1
1
1
1
1
1
1
1
4.87871
10.2689
10.4617
10.5018
10.5536
10.604
10.6536
10.6985
10.7424
10.7855
10.8268
10.8726
10.9221
10.9713
11.0174
11.0589
11.0983
11.1357
11.1725
11.2086
11.2436
11.2767
11.3091
11.3415
11.3738
11.407
11.4408
11.4773
11.5151
11.5484
11.5772
11.5994
11.6174
11.6337
11.6526
11.6738
11.697
11.7226
11.7509
11.7812
11.8109
11.8372
11.8587
11.8774
11.8949
11.9123
11.9287
11.9429
11.9529
11.9563
11.9548
11.9528
11.9532
11.9576
11.9647
11.9723
11.9784
1
1
1
1
1
1
1
1
1
1
1
1
1
1
1
1
1
1
1
1
1
1
1
1
1
1
1
1
1
1
1
1
1
1
1
1
1
1
1
1
1
1
1
1
1
1
1
1
1
1
1
1
1
1
1
1
1
1
1
1
1
1
1
4.46363
10.1694
10.4528
10.4949
10.5467
10.5947
10.6424
10.6859
10.7299
10.7736
10.8159
10.8638
10.9148
10.964
11.0081
11.047
11.0841
11.1204
11.1576
11.1948
11.2303
11.2627
11.2943
11.326
11.3585
11.3922
11.4273
11.465
11.5032
11.5356
11.5628
11.5831
11.5998
11.6158
11.6356
11.6581
11.6823
11.7082
11.7356
11.7648
11.7939
11.8203
11.8418
11.8597
11.8757
11.892
11.9091
11.9255
11.938
11.9424
11.9393
11.9345
11.9326
11.9362
11.944
11.9528
11.9602
1
1
1
1
1
1
1
1
1
1
1
1
1
1
1
1
1
1
1
1
1
1
1
1
1
1
1
1
1
1
1
1
1
1
1
1
1
1
1
1
1
1
1
1
1
1
1
1
1
1
1
1
1
1
1
1
1
1
1
1
1
1
1
4.04036
10.0368
10.4384
10.4846
10.5393
10.5855
10.6321
10.6751
10.719
10.7623
10.8042
10.8522
10.9038
10.9533
10.9959
11.033
11.0684
11.1033
11.1404
11.1785
11.2148
11.2474
11.2787
11.31
11.3422
11.3758
11.4117
11.4505
11.4891
11.5212
11.5473
11.5656
11.5806
11.5959
11.6162
11.6404
11.6664
11.6931
11.7197
11.7472
11.7747
11.8005
11.8223
11.8401
11.8553
11.8707
11.8879
11.9058
11.9202
11.9256
11.9218
11.9148
11.9108
11.9134
11.9216
11.9318
11.9406
1
1
1
1
1
1
1
1
1
1
1
1
1
1
1
1
1
1
1
1
1
1
1
1
1
1
1
1
1
1
1
1
1
1
1
1
1
1
1
1
1
1
1
1
1
1
1
1
1
1
1
1
1
1
1
1
1
1
1
1
1
1
1
3.61284
9.86446
10.4288
10.4738
10.5294
10.5742
10.6214
10.6655
10.7092
10.7513
10.7918
10.839
10.8906
10.9405
10.9824
11.0186
11.0523
11.0856
11.122
11.1608
11.1983
11.2318
11.2634
11.2945
11.3255
11.358
11.3934
11.4325
11.4716
11.5039
11.5297
11.547
11.5605
11.5751
11.5955
11.621
11.6489
11.6767
11.7027
11.7281
11.7532
11.7778
11.7999
11.8183
11.8336
11.8485
11.8653
11.8837
11.8992
11.9055
11.9017
11.8939
11.8883
11.8899
11.8979
11.9089
11.9187
1
1
1
1
1
1
1
1
1
1
1
1
1
1
1
1
1
1
1
1
1
1
1
1
1
1
1
1
1
1
1
1
1
1
1
1
1
1
1
1
1
1
1
1
1
1
1
1
1
1
1
1
1
1
1
1
1
1
1
1
1
1
1
3.1893
9.64712
10.4172
10.459
10.5167
10.5612
10.6098
10.6554
10.6996
10.7411
10.7797
10.8245
10.8749
10.9244
10.9665
11.0037
11.0378
11.0701
11.1048
11.1422
11.179
11.2131
11.2457
11.2776
11.3083
11.3399
11.3741
11.4128
11.4516
11.4846
11.5104
11.5276
11.5402
11.5541
11.5741
11.6003
11.6295
11.6581
11.6835
11.7068
11.7294
11.7526
11.7749
11.7947
11.8108
11.8259
11.842
11.8596
11.8748
11.8815
11.8786
11.871
11.8649
11.8656
11.873
11.8839
11.8939
1
1
1
1
1
1
1
1
1
1
1
1
1
1
1
1
1
1
1
1
1
1
1
1
1
1
1
1
1
1
1
1
1
1
1
1
1
1
1
1
1
1
1
1
1
1
1
1
1
1
1
1
1
1
1
1
1
1
1
1
1
1
1
2.76739
9.37239
10.4116
10.4511
10.5056
10.5491
10.5983
10.6447
10.6895
10.7302
10.7676
10.8098
10.8581
10.9074
10.9509
10.9892
11.0233
11.054
11.0863
11.1213
11.1572
11.1925
11.2271
11.2606
11.2917
11.3222
11.3545
11.3918
11.4295
11.4629
11.4892
11.5069
11.5195
11.5332
11.5528
11.579
11.6086
11.6372
11.6619
11.6831
11.7035
11.7253
11.7479
11.7691
11.7868
11.8023
11.8174
11.8331
11.8468
11.8534
11.8518
11.8457
11.8404
11.8408
11.8474
11.8572
11.8666
1
1
1
1
1
1
1
1
1
1
1
1
1
1
1
1
1
1
1
1
1
1
1
1
1
1
1
1
1
1
1
1
1
1
1
1
1
1
1
1
1
1
1
1
1
1
1
1
1
1
1
1
1
1
1
1
1
1
1
1
1
1
1
2.35069
9.02864
10.4105
10.449
10.4974
10.5384
10.5864
10.6323
10.6781
10.7196
10.7567
10.7969
10.8427
10.8896
10.9332
10.9727
11.0076
11.0372
11.067
11.0995
11.1343
11.1706
11.2073
11.2426
11.2744
11.3041
11.3347
11.3704
11.4068
11.4399
11.4663
11.4844
11.4974
11.5114
11.5312
11.5571
11.5865
11.6147
11.6382
11.6576
11.6758
11.696
11.7184
11.7409
11.7604
11.7769
11.791
11.8045
11.8159
11.8217
11.8217
11.8179
11.8143
11.815
11.8206
11.8286
11.8368
1
1
1
1
1
1
1
1
1
1
1
1
1
1
1
1
1
1
1
1
1
1
1
1
1
1
1
1
1
1
1
1
1
1
1
1
1
1
1
1
1
1
1
1
1
1
1
1
1
1
1
1
1
1
1
1
1
1
1
1
1
1
1
1.95044
8.60824
10.4229
10.4452
10.4891
10.5281
10.5743
10.6196
10.6656
10.7075
10.7446
10.7829
10.8258
10.8709
10.9143
10.9549
10.9906
11.0195
11.0468
11.0767
11.11
11.147
11.1857
11.223
11.2562
11.2855
11.3148
11.3486
11.3831
11.4151
11.4412
11.4596
11.4734
11.4884
11.5089
11.5349
11.5637
11.5906
11.6123
11.6295
11.6455
11.6641
11.6861
11.7098
11.7313
11.7491
11.7629
11.7743
11.7831
11.7873
11.7883
11.7868
11.7855
11.7869
11.792
11.7982
11.8051
1
1
1
1
1
1
1
1
1
1
1
1
1
1
1
1
1
1
1
1
1
1
1
1
1
1
1
1
1
1
1
1
1
1
1
1
1
1
1
1
1
1
1
1
1
1
1
1
1
1
1
1
1
1
1
1
1
1
1
1
1
1
1
1.59895
8.10846
10.4421
10.435
10.4776
10.5147
10.5607
10.6061
10.6517
10.6916
10.7277
10.7656
10.8067
10.8505
10.8939
10.9352
10.9711
10.999
11.0243
11.052
11.084
11.1216
11.1621
11.201
11.2354
11.2645
11.2931
11.3253
11.3586
11.3897
11.4154
11.4336
11.4475
11.4628
11.4837
11.5096
11.538
11.564
11.5839
11.5993
11.6134
11.6304
11.6518
11.6762
11.6996
11.7189
11.7327
11.7425
11.7485
11.7509
11.7518
11.7521
11.7529
11.7558
11.7609
11.7661
11.7722
1
1
1
1
1
1
1
1
1
1
1
1
1
1
1
1
1
1
1
1
1
1
1
1
1
1
1
1
1
1
1
1
1
1
1
1
1
1
1
1
1
1
1
1
1
1
1
1
1
1
1
1
1
1
1
1
1
1
1
1
1
1
1
1.29788
7.52172
10.4395
10.4137
10.4573
10.4971
10.5455
10.5946
10.6416
10.6805
10.7141
10.7489
10.7886
10.8315
10.8748
10.9158
10.9511
10.9781
11.0016
11.0275
11.0582
11.0958
11.1376
11.1778
11.2134
11.2424
11.2702
11.3004
11.3317
11.3616
11.3866
11.4048
11.4189
11.4346
11.4559
11.4821
11.5103
11.5353
11.5538
11.5675
11.5798
11.5953
11.6156
11.64
11.6644
11.6848
11.699
11.7081
11.712
11.7126
11.7128
11.7138
11.7164
11.721
11.7272
11.7324
11.7386
1
1
1
1
1
1
1
1
1
1
1
1
1
1
1
1
1
1
1
1
1
1
1
1
1
1
1
1
1
1
1
1
1
1
1
1
1
1
1
1
1
1
1
1
1
1
1
1
1
1
1
1
1
1
1
1
1
1
1
1
1
1
1
1.05169
6.89476
10.3995
10.3895
10.4395
10.4816
10.5296
10.5773
10.6223
10.6612
10.6951
10.7291
10.767
10.8084
10.851
10.8916
10.9262
10.9526
10.9754
11.0004
11.0307
11.0685
11.1116
11.1531
11.1898
11.2193
11.2466
11.275
11.3045
11.3329
11.3571
11.3751
11.3893
11.4047
11.4257
11.4517
11.4797
11.5042
11.5218
11.534
11.5446
11.5584
11.577
11.6005
11.625
11.6463
11.6617
11.6713
11.6745
11.6734
11.6721
11.6726
11.6757
11.6817
11.6896
11.6959
11.703
1
1
1
1
1
1
1
1
1
1
1
1
1
1
1
1
1
1
1
1
1
1
1
1
1
1
1
1
1
1
1
1
1
1
1
1
1
1
1
1
1
1
1
1
1
1
1
1
1
1
1
1
1
1
1
1
1
1
1
1
1
1
1
1.00094
6.15567
10.2826
10.3521
10.4097
10.4624
10.5156
10.5648
10.6089
10.6469
10.6812
10.7154
10.7527
10.7925
10.8321
10.8695
10.9022
10.9287
10.9524
10.9778
11.0077
11.0444
11.0869
11.1282
11.1652
11.1948
11.2213
11.2478
11.275
11.3014
11.3246
11.3429
11.3574
11.3728
11.3933
11.4191
11.4464
11.4702
11.4867
11.4976
11.507
11.5191
11.536
11.5582
11.5823
11.6041
11.6208
11.6314
11.6347
11.6322
11.6291
11.6279
11.6307
11.6379
11.648
11.6567
11.6654
1
1
1
1
1
1
1
1
1
1
1
1
1
1
1
1
1
1
1
1
1
1
1
1
1
1
1
1
1
1
1
1
1
1
1
1
1
1
1
1
1
1
1
1
1
1
1
1
1
1
1
1
1
1
1
1
1
1
1
1
1
1
1
1
5.32529
10.1498
10.3243
10.3839
10.4401
10.4936
10.5433
10.5883
10.6285
10.6648
10.7004
10.7377
10.7757
10.8117
10.8452
10.8755
10.9024
10.9279
10.955
10.9852
11.0208
11.0618
11.1022
11.1387
11.1683
11.1939
11.2187
11.2436
11.2681
11.2903
11.3088
11.3239
11.3392
11.359
11.384
11.4099
11.4326
11.448
11.4581
11.467
11.4779
11.4931
11.5137
11.5367
11.5583
11.5757
11.5875
11.5915
11.5884
11.5835
11.5805
11.5822
11.59
11.6021
11.6132
11.6238
1
1
1
1
1
1
1
1
1
1
1
1
1
1
1
1
1
1
1
1
1
1
1
1
1
1
1
1
1
1
1
1
1
1
1
1
1
1
1
1
1
1
1
1
1
1
1
1
1
1
1
1
1
1
1
1
1
1
1
1
1
1
1
1
4.45704
9.95794
10.301
10.3665
10.4268
10.4809
10.5295
10.5723
10.6116
10.648
10.6838
10.7202
10.7559
10.7885
10.818
10.8466
10.8747
10.9027
10.9321
10.963
10.9969
11.0356
11.0741
11.1091
11.1381
11.1631
11.1869
11.2104
11.2334
11.2544
11.2726
11.288
11.3033
11.3225
11.3468
11.3711
11.3924
11.4067
11.416
11.4241
11.4339
11.4479
11.467
11.4884
11.5091
11.5265
11.5391
11.5438
11.5406
11.5345
11.5299
11.5306
11.5386
11.5518
11.565
11.5769
1
1
1
1
1
1
1
1
1
1
1
1
1
1
1
1
1
1
1
1
1
1
1
1
1
1
1
1
1
1
1
1
1
1
1
1
1
1
1
1
1
1
1
1
1
1
1
1
1
1
1
1
1
1
1
1
1
1
1
1
1
1
1
1
3.60994
9.66493
10.297
10.3648
10.4191
10.4683
10.5149
10.5578
10.5956
10.6309
10.6665
10.7016
10.736
10.767
10.7943
10.8213
10.8495
10.8789
10.91
10.9414
10.9735
11.009
11.0449
11.0777
11.1059
11.1306
11.154
11.1766
11.1983
11.2176
11.2349
11.25
11.2654
11.2845
11.3077
11.3305
11.3501
11.363
11.3713
11.3785
11.3875
11.4007
11.4185
11.4382
11.457
11.4733
11.486
11.4909
11.4881
11.4815
11.476
11.476
11.4838
11.497
11.5106
11.5225
1
1
1
1
1
1
1
1
1
1
1
1
1
1
1
1
1
1
1
1
1
1
1
1
1
1
1
1
1
1
1
1
1
1
1
1
1
1
1
1
1
1
1
1
1
1
1
1
1
1
1
1
1
1
1
1
1
1
1
1
1
1
1
1
2.84608
9.24395
10.3023
10.3664
10.4205
10.4626
10.5052
10.5416
10.5735
10.6072
10.6422
10.6768
10.7122
10.7438
10.7707
10.7973
10.8258
10.8558
10.8874
10.9191
10.9496
10.982
11.0148
11.0452
11.0726
11.097
11.1204
11.1425
11.1628
11.1803
11.1961
11.2103
11.2255
11.2444
11.2668
11.2885
11.3066
11.318
11.3249
11.3306
11.3386
11.351
11.3678
11.3855
11.4018
11.4159
11.4273
11.4318
11.4297
11.4234
11.418
11.4179
11.4253
11.4374
11.4501
11.4605
1
1
1
1
1
1
1
1
1
1
1
1
1
1
1
1
1
1
1
1
1
1
1
1
1
1
1
1
1
1
1
1
1
1
1
1
1
1
1
1
1
1
1
1
1
1
1
1
1
1
1
1
1
1
1
1
1
1
1
1
1
1
1
1
2.12729
8.66001
10.3674
10.3622
10.4072
10.4449
10.4858
10.5222
10.5541
10.5858
10.6169
10.6498
10.6861
10.7201
10.749
10.776
10.8042
10.8333
10.8635
10.8946
10.9238
10.9535
10.9834
11.0115
11.0382
11.0627
11.0863
11.108
11.1269
11.1423
11.156
11.169
11.1834
11.202
11.224
11.2452
11.2622
11.2722
11.2769
11.2805
11.2871
11.2988
11.3146
11.3304
11.3434
11.3547
11.3637
11.3671
11.3657
11.3605
11.3558
11.3558
11.3619
11.3717
11.3817
11.3893
1
1
1
1
1
1
1
1
1
1
1
1
1
1
1
1
1
1
1
1
1
1
1
1
1
1
1
1
1
1
1
1
1
1
1
1
1
1
1
1
1
1
1
1
1
1
1
1
1
1
1
1
1
1
1
1
1
1
1
1
1
1
1
1
1.48856
7.98317
10.4384
10.3549
10.3819
10.4151
10.4562
10.4957
10.5304
10.5621
10.5915
10.6218
10.6566
10.6926
10.7253
10.755
10.7842
10.8126
10.84
10.8687
10.8961
10.923
10.9504
10.9767
11.0029
11.0277
11.0514
11.0728
11.0903
11.1037
11.1151
11.1264
11.1394
11.1573
11.179
11.2003
11.2165
11.225
11.2272
11.2285
11.2328
11.2436
11.2585
11.2721
11.2817
11.289
11.2937
11.2955
11.2946
11.2908
11.2875
11.2877
11.2925
11.2993
11.3061
11.3103
1
1
1
1
1
1
1
1
1
1
1
1
1
1
1
1
1
1
1
1
1
1
1
1
1
1
1
1
1
1
1
1
1
1
1
1
1
1
1
1
1
1
1
1
1
1
1
1
1
1
1
1
1
1
1
1
1
1
1
1
1
1
1
1
1.0825
7.19689
10.3945
10.3146
10.3474
10.386
10.431
10.4726
10.507
10.5366
10.5625
10.5904
10.6245
10.6627
10.6992
10.7324
10.7635
10.7915
10.8163
10.8418
10.8667
10.8908
10.916
10.9408
10.9665
10.9915
11.0153
11.0364
11.0527
11.0645
11.0737
11.0828
11.0938
11.1106
11.1317
11.1528
11.1686
11.1759
11.1755
11.174
11.1758
11.1852
11.1989
11.21
11.2165
11.2188
11.2182
11.218
11.2175
11.2154
11.2133
11.2129
11.2151
11.2177
11.2203
11.2208
1
1
1
1
1
1
1
1
1
1
1
1
1
1
1
1
1
1
1
1
1
1
1
1
1
1
1
1
1
1
1
1
1
1
1
1
1
1
1
1
1
1
1
1
1
1
1
1
1
1
1
1
1
1
1
1
1
1
1
1
1
1
1
1
1.00147
6.17387
10.1796
10.2558
10.3067
10.3512
10.3999
10.4463
10.4853
10.5183
10.5474
10.5733
10.6002
10.6324
10.6673
10.7024
10.737
10.7674
10.7917
10.8141
10.836
10.8572
10.8804
10.9041
10.9288
10.9536
10.9773
10.998
11.0137
11.0245
11.0316
11.0383
11.0472
11.0622
11.0822
11.1027
11.118
11.124
11.1209
11.1166
11.116
11.123
11.1353
11.1435
11.1465
11.143
11.137
11.1335
11.1322
11.131
11.1295
11.1281
11.1274
11.1263
11.1255
11.1232
1
1
1
1
1
1
1
1
1
1
1
1
1
1
1
1
1
1
1
1
1
1
1
1
1
1
1
1
1
1
1
1
1
1
1
1
1
1
1
1
1
1
1
1
1
1
1
1
1
1
1
1
1
1
1
1
1
1
1
1
1
1
1
1
1
5.14307
10.0365
10.1834
10.2572
10.3181
10.3704
10.4195
10.4606
10.4945
10.5218
10.5475
10.5759
10.6076
10.64
10.673
10.7062
10.7363
10.7616
10.7843
10.8049
10.8238
10.8446
10.8664
10.8891
10.9131
10.9363
10.9571
10.9725
10.9825
10.9883
10.9927
10.9998
11.0127
11.031
11.0499
11.0638
11.0679
11.0621
11.0554
11.0528
11.0573
11.0671
11.0723
11.0709
11.061
11.05
11.043
11.0403
11.0392
11.0371
11.033
11.0276
11.0215
11.0166
11.0114
1
1
1
1
1
1
1
1
1
1
1
1
1
1
1
1
1
1
1
1
1
1
1
1
1
1
1
1
1
1
1
1
1
1
1
1
1
1
1
1
1
1
1
1
1
1
1
1
1
1
1
1
1
1
1
1
1
1
1
1
1
1
1
1
1
4.08927
9.65605
10.1641
10.2385
10.2992
10.3552
10.4024
10.4392
10.4697
10.4957
10.5198
10.546
10.5758
10.6088
10.6424
10.6755
10.7059
10.7297
10.7507
10.7698
10.7878
10.8074
10.828
10.8482
10.8703
10.8923
10.9128
10.9282
10.9379
10.9426
10.9454
10.9511
10.9619
10.9783
10.9947
11.0061
11.0075
10.9988
10.99
10.9858
10.988
10.9941
10.996
10.9889
10.9725
10.9562
10.9449
10.9391
10.9354
10.9301
10.9217
10.9119
10.902
10.8945
10.8883
1
1
1
1
1
1
1
1
1
1
1
1
1
1
1
1
1
1
1
1
1
1
1
1
1
1
1
1
1
1
1
1
1
1
1
1
1
1
1
1
1
1
1
1
1
1
1
1
1
1
1
1
1
1
1
1
1
1
1
1
1
1
1
1
1
3.10702
9.16383
10.131
10.1996
10.2714
10.3294
10.3804
10.4197
10.45
10.4734
10.4945
10.5187
10.5475
10.5792
10.6104
10.6398
10.6685
10.693
10.7156
10.735
10.7517
10.7687
10.7859
10.8036
10.8241
10.8453
10.8656
10.8809
10.8899
10.894
10.896
10.9
10.909
10.9232
10.9365
10.9447
10.9427
10.9309
10.9198
10.9137
10.9138
10.916
10.9134
10.9
10.8776
10.8557
10.8394
10.8292
10.8214
10.8112
10.7968
10.7797
10.7629
10.7505
10.7411
1
1
1
1
1
1
1
1
1
1
1
1
1
1
1
1
1
1
1
1
1
1
1
1
1
1
1
1
1
1
1
1
1
1
1
1
1
1
1
1
1
1
1
1
1
1
1
1
1
1
1
1
1
1
1
1
1
1
1
1
1
1
1
1
1
2.10472
8.47022
10.2735
10.2221
10.2705
10.3151
10.3563
10.39
10.4195
10.4442
10.4675
10.4927
10.5211
10.5517
10.5806
10.6067
10.6327
10.6563
10.6776
10.6968
10.714
10.729
10.7442
10.7584
10.7753
10.7945
10.8144
10.8301
10.8391
10.8426
10.8437
10.8461
10.8531
10.8646
10.8746
10.8794
10.8738
10.8591
10.8456
10.837
10.834
10.8319
10.8237
10.8044
10.7763
10.7481
10.7253
10.7078
10.6916
10.6716
10.6473
10.6217
10.5992
10.5836
10.5746
1
1
1
1
1
1
1
1
1
1
1
1
1
1
1
1
1
1
1
1
1
1
1
1
1
1
1
1
1
1
1
1
1
1
1
1
1
1
1
1
1
1
1
1
1
1
1
1
1
1
1
1
1
1
1
1
1
1
1
1
1
1
1
1
1
1.27091
7.61367
10.3873
10.26
10.2423
10.2689
10.3139
10.3563
10.3912
10.4171
10.4404
10.4647
10.4927
10.523
10.5509
10.575
10.5984
10.6204
10.6411
10.6599
10.6757
10.6874
10.6981
10.7106
10.7253
10.7423
10.7607
10.7756
10.7844
10.7877
10.7883
10.7888
10.7935
10.8015
10.8081
10.8098
10.8009
10.7835
10.7674
10.7553
10.748
10.7407
10.7266
10.7017
10.668
10.6329
10.6018
10.5742
10.5468
10.5158
10.4805
10.4432
10.4071
10.3785
10.3595
1
1
1
1
1
1
1
1
1
1
1
1
1
1
1
1
1
1
1
1
1
1
1
1
1
1
1
1
1
1
1
1
1
1
1
1
1
1
1
1
1
1
1
1
1
1
1
1
1
1
1
1
1
1
1
1
1
1
1
1
1
1
1
1
1
1.00899
6.5686
10.1742
10.1237
10.199
10.243
10.289
10.3266
10.3607
10.3901
10.4141
10.4378
10.4642
10.493
10.5195
10.5424
10.5641
10.5841
10.6035
10.6214
10.6356
10.6453
10.6538
10.6642
10.6759
10.6894
10.705
10.7186
10.7276
10.7308
10.7309
10.7282
10.7295
10.7336
10.7371
10.7357
10.7244
10.7048
10.6855
10.6689
10.6559
10.6425
10.6223
10.592
10.5526
10.5095
10.4678
10.4271
10.3839
10.3343
10.2772
10.2185
10.1644
10.1231
10.1046
1
1
1
1
1
1
1
1
1
1
1
1
1
1
1
1
1
1
1
1
1
1
1
1
1
1
1
1
1
1
1
1
1
1
1
1
1
1
1
1
1
1
1
1
1
1
1
1
1
1
1
1
1
1
1
1
1
1
1
1
1
1
1
1
1
1
5.24008
9.83525
10.0793
10.1787
10.2168
10.2528
10.2918
10.3297
10.3601
10.3852
10.4083
10.4331
10.4599
10.4853
10.5081
10.529
10.5474
10.565
10.5816
10.5945
10.6025
10.6091
10.6173
10.6265
10.6369
10.6497
10.6616
10.6701
10.6734
10.6731
10.6657
10.662
10.6614
10.6614
10.6575
10.6447
10.6232
10.5997
10.5772
10.5574
10.5371
10.5106
10.4748
10.4292
10.3772
10.3224
10.2649
10.2013
10.1291
10.049
9.96605
9.88229
9.79838
9.73082
1
1
1
1
1
1
1
1
1
1
1
1
1
1
1
1
1
1
1
1
1
1
1
1
1
1
1
1
1
1
1
1
1
1
1
1
1
1
1
1
1
1
1
1
1
1
1
1
1
1
1
1
1
1
1
1
1
1
1
1
1
1
1
1
1
1
4.03035
9.50421
10.0746
10.1398
10.19
10.2334
10.2702
10.3003
10.3272
10.3515
10.3741
10.3971
10.422
10.4467
10.4699
10.4908
10.5087
10.5254
10.5409
10.5526
10.5598
10.5647
10.5703
10.5762
10.5833
10.5938
10.6052
10.6139
10.6175
10.6148
10.6025
10.5928
10.5864
10.5823
10.5762
10.5625
10.539
10.5103
10.481
10.4533
10.4254
10.3925
10.3508
10.298
10.2352
10.1651
10.0874
9.99959
9.89772
9.7788
9.63782
9.47628
9.32205
9.21053
1
1
1
1
1
1
1
1
1
1
1
1
1
1
1
1
1
1
1
1
1
1
1
1
1
1
1
1
1
1
1
1
1
1
1
1
1
1
1
1
1
1
1
1
1
1
1
1
1
1
1
1
1
1
1
1
1
1
1
1
1
1
1
1
1
1
2.80548
8.85976
10.1209
10.1468
10.1811
10.2106
10.2458
10.279
10.3057
10.3267
10.3441
10.3619
10.3827
10.4054
10.428
10.4488
10.4669
10.4833
10.498
10.51
10.5171
10.5208
10.5235
10.5262
10.5301
10.5381
10.5487
10.5571
10.5608
10.5555
10.5394
10.5235
10.5111
10.5028
10.4941
10.4787
10.4523
10.4176
10.3804
10.344
10.3079
10.2686
10.2201
10.1587
10.0835
9.99567
9.89466
9.77759
9.6377
9.46882
9.26504
9.0194
8.75049
8.57142
1
1
1
1
1
1
1
1
1
1
1
1
1
1
1
1
1
1
1
1
1
1
1
1
1
1
1
1
1
1
1
1
1
1
1
1
1
1
1
1
1
1
1
1
1
1
1
1
1
1
1
1
1
1
1
1
1
1
1
1
1
1
1
1
1
1
1.70424
8.16777
10.2216
10.129
10.1444
10.1771
10.2168
10.2518
10.2791
10.2999
10.3154
10.3294
10.3452
10.3643
10.3849
10.4047
10.4226
10.4387
10.4533
10.466
10.4732
10.4764
10.4769
10.4765
10.4778
10.483
10.4921
10.4994
10.5022
10.4939
10.4753
10.4543
10.4367
10.4239
10.4117
10.3934
10.3634
10.3224
10.2765
10.231
10.1867
10.1402
10.0841
10.0126
9.923
9.81553
9.68864
9.5387
9.35565
9.12686
8.82593
8.38272
7.54038
5.59028
1
1
1
1
1
1
1
1
1
1
1
1
1
1
1
1
1
1
1
1
1
1
1
1
1
1
1
1
1
1
1
1
1
1
1
1
1
1
1
1
1
1
1
1
1
1
1
1
1
1
1
1
1
1
1
1
1
1
1
1
1
1
1
1
1
1
1.05886
7.02279
10.2129
10.127
10.1318
10.1525
10.1879
10.2229
10.2494
10.2689
10.283
10.2953
10.3089
10.3257
10.3439
10.3615
10.3777
10.3925
10.4063
10.4191
10.4273
10.4313
10.4308
10.4281
10.4267
10.4292
10.4354
10.4407
10.4415
10.4307
10.4102
10.3855
10.3636
10.3461
10.3295
10.3071
10.2726
10.2251
10.1706
10.116
10.0632
10.0085
9.94348
9.86048
9.75518
9.62677
9.4727
9.28783
9.05745
8.75735
8.33333
7.71025
6.62284
4.52223
1
1
1
1
1
1
1
1
1
1
1
1
1
1
1
1
1
1
1
1
1
1
1
1
1
1
1
1
1
1
1
1
1
1
1
1
1
1
1
1
1
1
1
1
1
1
1
1
1
1
1
1
1
1
1
1
1
1
1
1
1
1
1
1
1
1
1.0003
5.56073
9.82379
9.98494
10.0681
10.1207
10.1559
10.1888
10.2144
10.2333
10.2467
10.2583
10.2711
10.2868
10.3039
10.32
10.3344
10.3474
10.3596
10.3713
10.3803
10.385
10.3845
10.38
10.3757
10.3749
10.3774
10.38
10.3784
10.3665
10.3447
10.3175
10.2914
10.2684
10.2461
10.2183
10.1789
10.1259
10.0641
10.0011
9.93952
9.87557
9.8002
9.70453
9.58265
9.43302
9.25177
9.03326
8.75502
8.39653
7.8772
7.19013
5.88748
4.08927
1
1
1
1
1
1
1
1
1
1
1
1
1
1
1
1
1
1
1
1
1
1
1
1
1
1
1
1
1
1
1
1
1
1
1
1
1
1
1
1
1
1
1
1
1
1
1
1
1
1
1
1
1
1
1
1
1
1
1
1
1
1
1
1
1
1
0.999998
4.13327
9.45292
9.97556
10.0553
10.1077
10.1408
10.1571
10.1769
10.1944
10.2079
10.2196
10.2323
10.2473
10.2637
10.2788
10.2914
10.3024
10.3124
10.3225
10.3316
10.3371
10.3375
10.332
10.325
10.3202
10.3183
10.3173
10.3135
10.3012
10.2789
10.2502
10.2202
10.1911
10.1618
10.1274
10.0829
10.0255
9.95825
9.8877
9.81695
9.74263
9.65577
9.54695
9.40847
9.2386
9.03187
8.78339
8.46858
8.06138
7.50549
6.69778
5.47963
4.05838
1
1
1
1
1
1
1
1
1
1
1
1
1
1
1
1
1
1
1
1
1
1
1
1
1
1
1
1
1
1
1
1
1
1
1
1
1
1
1
1
1
1
1
1
1
1
1
1
1
1
1
1
1
1
1
1
1
1
1
1
1
1
1
1
1
1
1
2.72498
8.78996
10.0472
10.0644
10.0916
10.1099
10.1277
10.1454
10.1603
10.1727
10.1839
10.1956
10.2092
10.2242
10.2379
10.2491
10.2586
10.2671
10.2756
10.2835
10.2893
10.2897
10.2833
10.2736
10.2644
10.2578
10.2527
10.2467
10.2342
10.212
10.1822
10.1487
10.1134
10.0764
10.0349
9.98518
9.92434
9.85326
9.77634
9.69638
9.61111
9.51202
9.39024
9.23623
9.0482
8.81972
8.5446
8.20335
7.75822
7.18405
6.35092
5.28607
4.12774
1
1
1
1
1
1
1
1
1
1
1
1
1
1
1
1
1
1
1
1
1
1
1
1
1
1
1
1
1
1
1
1
1
1
1
1
1
1
1
1
1
1
1
1
1
1
1
1
1
1
1
1
1
1
1
1
1
1
1
1
1
1
1
1
1
1
1
1.52895
7.9785
10.2119
10.0722
10.043
10.0623
10.089
10.1089
10.1252
10.1382
10.1495
10.1605
10.1721
10.1848
10.1969
10.2067
10.215
10.2223
10.2292
10.2357
10.2407
10.2402
10.233
10.2214
10.2087
10.1979
10.1886
10.1796
10.1656
10.143
10.1121
10.0755
10.0348
9.99061
9.94219
9.88759
9.82384
9.74961
9.66706
9.57808
9.4817
9.3702
9.23592
9.06858
8.86544
8.62032
8.32499
7.9636
7.50332
6.92763
6.12696
5.22053
4.26607
1
1
1
1
1
1
1
1
1
1
1
1
1
1
1
1
1
1
1
1
1
1
1
1
1
1
1
1
1
1
1
1
1
1
1
1
1
1
1
1
1
1
1
1
1
1
1
1
1
1
1
1
1
1
1
1
1
1
1
1
1
1
1
1
1
1
1
1.03131
6.68313
9.97684
9.9569
9.99025
10.0153
10.0462
10.0687
10.088
10.1031
10.1155
10.1263
10.1365
10.147
10.1571
10.1651
10.1727
10.1791
10.1847
10.1897
10.193
10.1903
10.1816
10.1684
10.1532
10.1388
10.1252
10.1122
10.0955
10.0713
10.0388
9.99934
9.95423
9.90442
9.85059
9.79187
9.72533
9.64792
9.56001
9.46241
9.35515
9.23178
9.08566
8.90736
8.69258
8.43582
8.12816
7.75581
7.29251
6.71844
6.00523
5.24315
4.4078
1
1
1
1
1
1
1
1
1
1
1
1
1
1
1
1
1
1
1
1
1
1
1
1
1
1
1
1
1
1
1
1
1
1
1
1
1
1
1
1
1
1
1
1
1
1
1
1
1
1
1
1
1
1
1
1
1
1
1
1
1
1
1
1
1
1
1
1.00005
4.98824
9.57134
9.88707
9.96121
9.99041
10.0079
10.031
10.0517
10.068
10.0808
10.0913
10.1005
10.1089
10.1169
10.1235
10.13
10.1356
10.1401
10.1434
10.1443
10.1394
10.1291
10.1148
10.0985
10.0816
10.0639
10.0462
10.0257
9.99843
9.96308
9.92033
9.87151
9.81782
9.76033
9.69827
9.62882
9.54804
9.45499
9.34953
9.2321
9.09803
8.9414
8.7543
8.53126
8.26714
7.95396
7.58013
7.11945
6.57615
5.94591
5.26858
4.53689
1
1
1
1
1
1
1
1
1
1
1
1
1
1
1
1
1
1
1
1
1
1
1
1
1
1
1
1
1
1
1
1
1
1
1
1
1
1
1
1
1
1
1
1
1
1
1
1
1
1
1
1
1
1
1
1
1
1
1
1
1
1
1
1
1
1
1
0.999999
3.41422
9.12613
9.91706
9.94336
9.95926
9.98237
10.003
10.0206
10.0354
10.047
10.0563
10.0643
10.071
10.077
10.0818
10.087
10.0914
10.0947
10.0966
10.0954
10.0888
10.077
10.0617
10.0443
10.0241
10.0027
9.98035
9.95536
9.92454
9.88593
9.83978
9.78769
9.7313
9.67152
9.60701
9.53481
9.45059
9.35252
9.2399
9.11327
8.96983
8.80451
8.61064
8.38225
8.11439
7.8005
7.42904
6.98995
6.48851
5.90276
5.29917
4.65769
1
1
1
1
1
1
1
1
1
1
1
1
1
1
1
1
1
1
1
1
1
1
1
1
1
1
1
1
1
1
1
1
1
1
1
1
1
1
1
1
1
1
1
1
1
1
1
1
1
1
1
1
1
1
1
1
1
1
1
1
1
1
1
1
1
1
1
1
1.98993
8.36907
9.95451
9.89655
9.9189
9.95305
9.975
9.99105
10.0037
10.0134
10.0212
10.0278
10.0326
10.0367
10.0398
10.0432
10.0457
10.0471
10.0472
10.0446
10.0375
10.0251
10.0093
9.99014
9.96655
9.94135
9.9146
9.88565
9.85154
9.80959
9.75996
9.70476
9.6459
9.58399
9.51704
9.44194
9.35434
9.25188
9.13343
8.99937
8.84829
8.67622
8.47748
8.24633
7.97796
7.66519
7.30291
6.89527
6.41745
5.87672
5.35524
4.77409
1
1
1
1
1
1
1
1
1
1
1
1
1
1
1
1
1
1
1
1
1
1
1
1
1
1
1
1
1
1
1
1
1
1
1
1
1
1
1
1
1
1
1
1
1
1
1
1
1
1
1
1
1
1
1
1
1
1
1
1
1
1
1
1
1
1
1
1
1.10207
7.02572
9.99397
9.90847
9.90166
9.91775
9.93823
9.95473
9.96804
9.97822
9.98558
9.99079
9.99432
9.99702
9.99873
9.9998
9.99941
9.99767
9.9954
9.99163
9.9851
9.97354
9.95746
9.93557
9.90801
9.87837
9.84751
9.81499
9.77798
9.73357
9.68148
9.62393
9.56263
9.49805
9.42815
9.35004
9.25945
9.15349
9.03055
8.89077
8.73368
8.55641
8.35446
8.12285
7.85636
7.54834
7.20207
6.8111
6.35824
5.89132
5.42369
4.8744
1
1
1
1
1
1
1
1
1
1
1
1
1
1
1
1
1
1
1
1
1
1
1
1
1
1
1
1
1
1
1
1
1
1
1
1
1
1
1
1
1
1
1
1
1
1
1
1
1
1
1
1
1
1
1
1
1
1
1
1
1
1
1
1
1
1
1
1
1.00088
5.29467
9.53322
9.77299
9.84347
9.88127
9.89626
9.9139
9.92876
9.94056
9.94837
9.95307
9.95611
9.95819
9.95917
9.95818
9.95451
9.94882
9.94314
9.93762
9.93148
9.92094
9.90492
9.88076
9.8493
9.81519
9.78011
9.74405
9.70452