/*--------------------------------*- C++ -*----------------------------------*\
  =========                 |
  \\      /  F ield         | OpenFOAM: The Open Source CFD Toolbox
   \\    /   O peration     | Website:  https://openfoam.org
    \\  /    A nd           | Version:  7
     \\/     M anipulation  |
\*---------------------------------------------------------------------------*/
FoamFile
{
    version     2.0;
    format      ascii;
    class       volVectorField;
    location    "24";
    object      U;
}
// * * * * * * * * * * * * * * * * * * * * * * * * * * * * * * * * * * * * * //

dimensions      [0 1 -1 0 0 0 0];

internalField   nonuniform List<vector> 
433
(
(-0.000276746 -0.000336077 -1.62093e-20)
(-0.000650209 -0.000891551 -9.80936e-21)
(-0.000795393 -0.00137816 -1.35679e-20)
(-0.000694368 -0.00178823 4.70301e-20)
(-0.000328079 -0.00211389 4.68258e-21)
(-0.000396135 -0.000504036 -2.42351e-20)
(-0.00102778 -0.00139166 4.84751e-20)
(-0.00146393 -0.00220615 2.81283e-20)
(-0.00168819 -0.00293938 -3.56214e-20)
(-0.00168308 -0.00358307 -4.04239e-20)
(-0.00142701 -0.00413156 2.99537e-22)
(-0.000896883 -0.00458 9.53409e-20)
(-6.88076e-05 -0.00492375 -4.97349e-20)
(0.00108198 -0.00515855 -6.08817e-20)
(-0.000480046 -0.000652105 8.39931e-21)
(-0.00129873 -0.00183381 5.73437e-21)
(-0.00195304 -0.00293976 -4.91174e-20)
(-0.0024281 -0.00396152 3.77735e-20)
(-0.00270797 -0.00489041 -2.31515e-20)
(-0.00277321 -0.00571982 -3.0451e-20)
(-0.00260295 -0.00644372 9.64229e-20)
(-0.00217559 -0.00705631 -3.92317e-20)
(-0.00146866 -0.0075521 1.86889e-20)
(-0.000458743 -0.00792613 -7.34237e-20)
(0.000878459 -0.00817404 3.45033e-20)
(0.00256811 -0.00829215 -2.08376e-20)
(0.00463619 -0.00827759 -4.17774e-20)
(-0.000532421 -0.000778374 -2.82205e-20)
(-0.00147463 -0.00221218 1.31084e-20)
(-0.00228173 -0.00356916 -1.93472e-20)
(-0.00294035 -0.00484061 5.24052e-20)
(-0.00343607 -0.00601764 -9.40069e-21)
(-0.00375156 -0.00709278 -2.15247e-20)
(-0.00386821 -0.00805908 1.19054e-20)
(-0.00376665 -0.00890971 -5.56815e-20)
(-0.00342671 -0.00963819 5.09979e-20)
(-0.00282728 -0.0102385 -5.59982e-20)
(-0.00194641 -0.010705 4.46787e-21)
(-0.000761272 -0.011033 4.45735e-20)
(0.000751728 -0.0112182 -2.6821e-20)
(0.00261696 -0.0112574 -3.23831e-20)
(0.00485951 -0.0111481 6.002e-22)
(0.00750511 -0.010889 -7.71315e-20)
(0.0105801 -0.0104797 1.15965e-19)
(-0.000557356 -0.00088154 -2.10919e-20)
(-0.00156757 -0.00252275 1.93973e-20)
(-0.00246994 -0.0040874 1.13233e-21)
(-0.00325257 -0.00556667 1.74768e-21)
(-0.00390256 -0.00695152 -6.49343e-20)
(-0.00440465 -0.00823387 4.25586e-20)
(-0.00474244 -0.00940597 3.19737e-20)
(-0.00489881 -0.0104603 -4.35121e-20)
(-0.00485582 -0.0113894 1.2772e-20)
(-0.00459464 -0.0121865 -3.26959e-21)
(-0.00409561 -0.0128451 -2.57514e-20)
(-0.00333823 -0.0133594 6.60876e-20)
(-0.00230121 -0.0137242 -9.40441e-20)
(-0.000962492 -0.0139351 2.50082e-20)
(0.000700725 -0.0139885 -5.69424e-20)
(0.00271191 -0.013882 6.62445e-20)
(0.00509518 -0.013614 9.86107e-20)
(0.00787519 -0.0131842 -4.19273e-20)
(0.0110771 -0.0125936 2.52884e-20)
(0.0147267 -0.0118444 -1.52879e-19)
(-0.000558961 -0.000960821 2.90031e-20)
(-0.0015897 -0.00276302 -7.34549e-20)
(-0.00253782 -0.00449009 1.0798e-20)
(-0.00339285 -0.00613321 -4.0266e-21)
(-0.00414337 -0.00768331 7.09866e-20)
(-0.00477614 -0.00913188 -6.05138e-20)
(-0.00527697 -0.0104706 2.69755e-20)
(-0.0056309 -0.0116914 -2.69274e-21)
(-0.00582218 -0.0127863 -5.20951e-20)
(-0.00583422 -0.0137478 6.65277e-20)
(-0.00564961 -0.0145688 -2.73441e-20)
(-0.00525009 -0.0152426 6.48577e-22)
(-0.00461664 -0.0157633 -2.18534e-20)
(-0.00372943 -0.0161257 -2.64164e-20)
(-0.00256789 -0.0163254 5.60437e-20)
(-0.00111074 -0.016359 2.61691e-20)
(0.000663986 -0.0162241 -1.00221e-19)
(0.00277889 -0.0159194 5.83405e-20)
(0.00525716 -0.0154448 -2.50624e-21)
(0.00812249 -0.0148018 -5.85419e-20)
(0.0113991 -0.0139932 1.36914e-19)
(0.0151115 -0.0130233 -9.57752e-20)
(0.0192846 -0.0118983 2.04494e-20)
(0.0239436 -0.0106264 -2.42047e-20)
(-0.000541264 -0.00101587 1.50017e-20)
(-0.00155299 -0.00293179 -1.76766e-20)
(-0.00250527 -0.004775 5.35041e-20)
(-0.00338901 -0.00653677 -4.34041e-20)
(-0.00419421 -0.00820814 5.4146e-21)
(-0.00490964 -0.00978037 -2.42245e-20)
(-0.0055232 -0.0112448 2.83679e-20)
(-0.00602205 -0.012593 1.90017e-20)
(-0.00639259 -0.0138167 -3.03887e-20)
(-0.00662039 -0.0149078 2.31785e-20)
(-0.00669019 -0.0158589 4.29974e-20)
(-0.00658597 -0.0166628 -1.49212e-20)
(-0.00629085 -0.017313 -1.50053e-21)
(-0.00578721 -0.0178038 -8.92436e-21)
(-0.00505662 -0.0181302 2.65015e-21)
(-0.00407991 -0.0182881 -1.15162e-20)
(-0.0028372 -0.0182744 -2.19004e-20)
(-0.00130791 -0.0180873 1.37233e-20)
(0.000529201 -0.0177259 -1.24258e-20)
(0.00269595 -0.0171911 5.27733e-20)
(0.00521474 -0.016485 -1.00318e-19)
(0.00810844 -0.0156114 2.73979e-20)
(0.0114004 -0.0145761 -4.00989e-21)
(0.0151142 -0.0133866 2.52515e-20)
(0.019274 -0.0120531 4.10131e-20)
(0.0239037 -0.0105879 3.84255e-20)
(0.0290278 -0.00900693 2.10826e-20)
(-0.000508129 -0.00104669 1.94639e-20)
(-0.00146898 -0.00302897 7.20634e-22)
(-0.00239153 -0.00494173 -3.22454e-20)
(-0.00326804 -0.00677648 1.45216e-20)
(-0.00408988 -0.00852449 -3.55264e-20)
(-0.0048477 -0.010177 -6.7283e-21)
(-0.00553146 -0.0117252 1.61614e-20)
(-0.00613036 -0.0131606 -1.71537e-21)
(-0.00663284 -0.0144746 5.3373e-20)
(-0.00702655 -0.0156591 -5.07695e-20)
(-0.00729836 -0.0167063 -1.50668e-20)
(-0.00743433 -0.0176089 8.55285e-21)
(-0.00741971 -0.0183601 1.40417e-21)
(-0.00723895 -0.0189537 5.11916e-20)
(-0.00687572 -0.0193845 -1.67097e-20)
(-0.0063129 -0.0196479 -5.20053e-20)
(-0.0055326 -0.0197404 8.12054e-20)
(-0.00451621 -0.0196598 -1.33845e-20)
(-0.00324441 -0.0194048 -3.9409e-20)
(-0.0016972 -0.0189757 -1.59487e-20)
(0.000146027 -0.0183743 1.43481e-19)
(0.00230643 -0.0176041 -8.29372e-20)
(0.0048057 -0.0166702 6.5651e-21)
(0.00766592 -0.0155803 -6.55651e-20)
(0.0109095 -0.014344 -6.65157e-20)
(0.0145591 -0.012974 3.03963e-20)
(0.0186373 -0.0114859 -5.18339e-20)
(0.0231666 -0.00989917 3.54935e-20)
(0.028169 -0.00823791 -1.59291e-20)
(0.0336654 -0.00653166 4.63834e-20)
(-0.000463236 -0.00105357 -1.56644e-20)
(-0.00134863 -0.00305534 -2.77171e-20)
(-0.00221496 -0.00499144 7.93722e-20)
(-0.00305576 -0.00685372 -5.60924e-20)
(-0.00386368 -0.00863383 4.93429e-20)
(-0.00463119 -0.0103231 -1.62736e-20)
(-0.00535017 -0.0119129 2.65264e-20)
(-0.00601179 -0.0133947 -4.00688e-20)
(-0.00660643 -0.0147601 4.25799e-20)
(-0.00712373 -0.0160008 -2.80603e-20)
(-0.00755256 -0.0171093 1.70648e-20)
(-0.00788099 -0.0180779 7.50075e-21)
(-0.0080963 -0.0188999 -8.11898e-20)
(-0.00818494 -0.019569 7.79331e-20)
(-0.00813257 -0.0200798 -2.11e-20)
(-0.00792402 -0.0204276 -2.38211e-20)
(-0.00754335 -0.0206086 -4.42704e-21)
(-0.00697384 -0.0206203 7.52774e-20)
(-0.00619801 -0.0204613 -9.72049e-20)
(-0.00519767 -0.0201315 -1.05982e-20)
(-0.00395398 -0.0196324 6.39623e-21)
(-0.00244746 -0.0189672 7.70039e-20)
(-0.00065811 -0.0181408 -7.14693e-20)
(0.00143452 -0.0171605 1.62809e-20)
(0.00385123 -0.0160356 -2.12144e-20)
(0.00661298 -0.0147786 1.34746e-19)
(0.00974073 -0.0134047 -4.61633e-20)
(0.0132551 -0.0119332 -3.56353e-20)
(0.0171762 -0.0103874 -1.06401e-20)
(-0.00041004 -0.00103711 7.57299e-21)
(-0.00120231 -0.00301258 -3.71658e-20)
(-0.00199292 -0.00492677 4.17366e-20)
(-0.00277657 -0.00677201 -5.68714e-20)
(-0.00354715 -0.00854041 4.52369e-20)
(-0.0042988 -0.0102236 -2.19458e-20)
(-0.00502524 -0.0118133 1.99633e-20)
(-0.00571945 -0.0133011 2.80325e-20)
(-0.00637365 -0.0146789 -4.96363e-20)
(-0.00697938 -0.0159388 4.80813e-21)
(-0.00752737 -0.0170732 5.36612e-20)
(-0.0080076 -0.0180747 -7.90723e-20)
(-0.00840925 -0.0189367 3.01689e-20)
(-0.00872067 -0.019653 1.39641e-20)
(-0.0089294 -0.0202182 -8.73249e-21)
(-0.00902214 -0.0206275 -2.75538e-20)
(-0.00898479 -0.0208773 -3.43825e-20)
(-0.00880243 -0.0209648 3.66709e-20)
(-0.00845936 -0.0208885 -2.49627e-20)
(-0.00793914 -0.0206482 1.83059e-20)
(-0.00722461 -0.0202451 2.15169e-20)
(-0.00629798 -0.0196821 7.73707e-21)
(-0.0051409 -0.0189639 -2.73066e-21)
(-0.00373453 -0.0180973 9.26431e-21)
(-0.00205974 -0.0170914 3.06638e-20)
(-9.72184e-05 -0.0159578 -1.88366e-20)
(0.00217228 -0.0147114 -1.15814e-19)
(0.00476762 -0.0133701 1.45556e-19)
(-0.000351786 -0.00099815 -2.10689e-20)
(-0.00103971 -0.00290317 -2.65223e-21)
(-0.00174164 -0.00475179 -5.25957e-21)
(-0.00245336 -0.00653689 -1.54189e-20)
(-0.00316984 -0.00825119 3.26337e-20)
(-0.00388681 -0.0098868 2.68032e-20)
(-0.00459967 -0.0114358 -3.42232e-20)
(-0.00530308 -0.0128903 -2.66714e-20)
(-0.00599101 -0.0142426 3.1217e-20)
(-0.00665668 -0.0154851 -7.04349e-21)
(-0.00729262 -0.0166106 5.591e-20)
(-0.00789056 -0.0176122 -6.0554e-20)
(-0.00844145 -0.0184834 4.72645e-20)
(-0.00893542 -0.0192183 6.57743e-21)
(-0.00936175 -0.0198117 -4.18095e-20)
(-0.00970891 -0.0202589 6.68226e-20)
(-0.00996451 -0.0205565 -5.13836e-21)
(-0.0101153 -0.0207016 -6.21943e-20)
(-0.0101474 -0.0206928 2.012e-21)
(-0.0100458 -0.0205297 3.82786e-20)
(-0.0097951 -0.0202134 9.91035e-21)
(-0.00937908 -0.0197464 -3.48769e-20)
(-0.00878097 -0.0191332 4.39178e-20)
(-0.00798353 -0.0183801 -2.46662e-20)
(-0.00696918 -0.0174954 -1.22188e-20)
(-0.00572023 -0.0164901 6.23286e-20)
(-0.00421906 -0.0153779 -5.53447e-20)
(-0.00244849 -0.0141756 -1.45437e-20)
(-0.000291499 -0.000937808 1.59752e-21)
(-0.000869897 -0.00273045 -1.1741e-20)
(-0.00147627 -0.00447201 1.84614e-20)
(-0.00210737 -0.00615603 1.41378e-20)
(-0.00275917 -0.00777588 -1.22274e-20)
(-0.00342882 -0.0093243 -4.31956e-21)
(-0.00411327 -0.0107939 -3.14016e-20)
(-0.00480873 -0.0121775 5.0503e-21)
(-0.00551069 -0.0134679 2.52133e-20)
(-0.00621399 -0.014658 2.86225e-20)
(-0.00691274 -0.0157412 -2.82417e-20)
(-0.0076003 -0.016711 1.59294e-20)
(-0.00826924 -0.0175615 2.20116e-20)
(-0.0089113 -0.018287 -1.08358e-20)
(-0.00951739 -0.0188827 -7.26174e-20)
(-0.0100776 -0.0193442 3.34569e-20)
(-0.0105811 -0.0196683 -1.69616e-21)
(-0.0110162 -0.0198522 8.89526e-21)
(-0.0113705 -0.0198946 -3.00536e-20)
(-0.0116308 -0.0197949 5.1858e-20)
(-0.011783 -0.0195542 -4.24172e-20)
(-0.0118123 -0.0191748 -9.99851e-21)
(-0.0117035 -0.0186605 6.85955e-21)
(-0.0114409 -0.0180172 6.16975e-20)
(-0.0110083 -0.0172524 -1.09951e-19)
(-0.0103896 -0.0163762 2.36944e-20)
(-0.00956853 -0.0154009 2.37227e-20)
(-0.000231977 -0.00085752 1.06407e-20)
(-0.000701209 -0.00249869 -3.74815e-20)
(-0.00121073 -0.00409451 3.31421e-20)
(-0.00175815 -0.00563926 4.81221e-22)
(-0.00234032 -0.00712704 -1.60273e-22)
(-0.00295567 -0.00855133 -3.29293e-20)
(-0.00360251 -0.0099055 8.89303e-21)
(-0.00427842 -0.011183 1.73911e-21)
(-0.0049803 -0.0123774 -9.07565e-22)
(-0.00570441 -0.0134823 1.4072e-20)
(-0.00644627 -0.0144917 -3.36371e-20)
(-0.00720071 -0.0153998 5.6647e-20)
(-0.00796174 -0.016201 -4.08666e-20)
(-0.00872256 -0.0168905 -5.19059e-21)
(-0.00947555 -0.0174637 -6.09126e-22)
(-0.0102122 -0.0179167 2.08141e-20)
(-0.0109232 -0.0182464 -2.37e-20)
(-0.0115982 -0.0184505 -1.36098e-20)
(-0.0122262 -0.0185275 4.55159e-20)
(-0.0127954 -0.0184771 -2.48911e-20)
(-0.0132931 -0.0182999 3.29775e-20)
(-0.0137059 -0.0179981 -2.08019e-20)
(-0.0140199 -0.0175752 -3.37693e-20)
(-0.0142206 -0.0170361 6.99951e-20)
(-0.0142934 -0.0163877 5.62361e-21)
(-0.0142232 -0.0156388 -3.26579e-20)
(-0.0139953 -0.0148002 1.10209e-20)
(-0.000175776 -0.000759034 -1.73095e-20)
(-0.000541262 -0.00221309 1.99563e-20)
(-0.000957698 -0.00362793 -3.23671e-21)
(-0.00142343 -0.00499863 -2.18708e-20)
(-0.00193607 -0.00632009 2.26751e-20)
(-0.00249515 -0.00758663 2.78312e-21)
(-0.00310018 -0.00879246 -9.20374e-21)
(-0.00374994 -0.00993186 -1.17092e-20)
(-0.00444254 -0.0109992 1.00743e-20)
(-0.00517546 -0.0119889 -2.4586e-21)
(-0.00594551 -0.0128957 -7.67039e-21)
(-0.00674875 -0.0137145 1.61276e-20)
(-0.00758048 -0.0144405 1.12279e-21)
(-0.00843517 -0.0150693 1.77872e-20)
(-0.00930646 -0.015597 -3.10243e-20)
(-0.0101871 -0.0160201 3.37676e-20)
(-0.0110691 -0.016336 -2.68116e-20)
(-0.0119433 -0.0165425 2.99906e-21)
(-0.0128 -0.0166383 1.07873e-20)
(-0.0136286 -0.016623 -1.59224e-20)
(-0.0144175 -0.0164974 6.11985e-20)
(-0.0151546 -0.0162631 -2.83091e-20)
(-0.0158271 -0.0159231 -3.06366e-20)
(-0.0164218 -0.0154817 3.74008e-20)
(-0.0169251 -0.0149449 -7.04482e-20)
(-0.0173232 -0.01432 4.62474e-20)
(-0.000125184 -0.000644429 -3.04147e-21)
(-0.000396852 -0.00187983 -1.05065e-20)
(-0.000728458 -0.00308254 -1.61543e-20)
(-0.00111896 -0.00424844 1.6315e-20)
(-0.00156661 -0.00537333 5.76733e-21)
(-0.00207186 -0.00645243 -1.67134e-20)
(-0.00263523 -0.00748089 4.12685e-21)
(-0.00325652 -0.0084539 1.37849e-21)
(-0.00393487 -0.00936672 4.67685e-21)
(-0.00466879 -0.0102147 3.02766e-22)
(-0.00545616 -0.0109934 1.2913e-20)
(-0.0062941 -0.0116986 -1.73233e-20)
(-0.00717899 -0.0123261 -1.7187e-20)
(-0.00810638 -0.0128724 1.21148e-20)
(-0.00907099 -0.0133341 -1.79479e-20)
(-0.0100667 -0.0137082 2.90014e-20)
(-0.0110864 -0.0139926 -6.57485e-21)
(-0.0121223 -0.0141853 -1.36287e-20)
(-0.0131655 -0.0142854 1.12361e-21)
(-0.0142064 -0.0142924 -8.6451e-23)
(-0.0152346 -0.014207 2.11971e-20)
(-0.0162391 -0.0140304 -8.6576e-21)
(-0.0172079 -0.0137652 1.67967e-20)
(-0.0181288 -0.0134149 -2.43162e-20)
(-0.0189892 -0.0129844 1.05602e-20)
(-0.0197764 -0.0124798 2.70617e-20)
(-8.2188e-05 -0.000516105 -9.76149e-22)
(-0.000273871 -0.00150603 -1.28258e-20)
(-0.000532763 -0.00247012 1.11739e-20)
(-0.00085832 -0.00340515 -9.16615e-21)
(-0.00124928 -0.00430779 1.14111e-20)
(-0.00170688 -0.00517427 -1.96718e-21)
(-0.00223243 -0.00600074 -5.75759e-21)
(-0.00282656 -0.00678338 1.51803e-20)
(-0.00348923 -0.00751845 -3.91318e-21)
(-0.0042198 -0.00820225 -1.29559e-20)
(-0.005017 -0.00883125 1.71338e-20)
(-0.00587882 -0.00940204 -3.71845e-20)
(-0.0068025 -0.00991144 3.14633e-20)
(-0.00778449 -0.0103565 -6.76599e-21)
(-0.00882036 -0.0107346 -1.93013e-20)
(-0.00990485 -0.0110434 4.84416e-22)
(-0.0110318 -0.0112811 3.8146e-21)
(-0.0121941 -0.0114462 2.59534e-20)
(-0.013384 -0.0115379 -3.93011e-20)
(-0.0145925 -0.0115559 9.86157e-21)
(-0.0158101 -0.0115006 9.48508e-21)
(-0.0170266 -0.0113731 1.76188e-20)
(-0.0182308 -0.0111752 -1.08141e-20)
(-0.0194115 -0.0109099 1.75127e-20)
(-0.0205566 -0.0105808 -2.91847e-20)
(-4.84378e-05 -0.000376758 4.42008e-21)
(-0.000177198 -0.00109968 1.46733e-21)
(-0.00037868 -0.00180392 -9.34055e-21)
(-0.000652706 -0.00248715 4.12861e-21)
(-0.000998396 -0.00314699 -5.83402e-21)
(-0.00141754 -0.00378069 1.3824e-20)
(-0.00191209 -0.00438546 -2.23598e-21)
(-0.00248327 -0.00495855 -5.80904e-22)
(-0.00313168 -0.00549724 -5.00938e-22)
(-0.00385732 -0.00599885 9.13523e-21)
(-0.00465955 -0.00646082 -1.4611e-20)
(-0.00553703 -0.00688068 -1.01618e-21)
(-0.00648766 -0.00725611 -5.02994e-21)
(-0.00750853 -0.00758499 1.5318e-20)
(-0.0085959 -0.0078654 -1.02341e-20)
(-0.00974515 -0.00809568 2.63468e-22)
(-0.0109508 -0.00827446 9.60789e-21)
(-0.0122064 -0.00840073 -8.85498e-21)
(-0.0135047 -0.00847383 1.73485e-20)
(-0.0148376 -0.00849356 -8.29591e-22)
(-0.0161961 -0.00846018 -8.83784e-21)
(-0.0175706 -0.00837448 -1.64539e-20)
(-0.0189506 -0.00823782 -1.19325e-20)
(-0.0203253 -0.00805222 3.38142e-21)
(-0.0216834 -0.00782037 2.04417e-20)
(-2.521e-05 -0.000229341 -8.18957e-22)
(-0.000110604 -0.000669505 4.28693e-21)
(-0.000272424 -0.00109836 3.4641e-22)
(-0.000510737 -0.00151452 -6.09936e-21)
(-0.000824916 -0.00191652 1.70501e-21)
(-0.00121713 -0.00230272 4.18736e-21)
(-0.00168974 -0.00267143 -7.71157e-21)
(-0.0022444 -0.00302096 4.66719e-21)
(-0.00288211 -0.00334969 2.15102e-21)
(-0.00360331 -0.00365598 -3.55345e-21)
(-0.00440778 -0.00393829 -3.83736e-21)
(-0.00529464 -0.00419512 8.59632e-21)
(-0.00626221 -0.00442506 1.79516e-21)
(-0.00730803 -0.00462683 -4.82399e-21)
(-0.00842881 -0.00479927 -3.9516e-21)
(-0.00962038 -0.00494136 -6.42562e-21)
(-0.0108777 -0.00505228 1.22417e-20)
(-0.0121947 -0.00513141 -1.95243e-21)
(-0.0135647 -0.00517835 -7.07904e-21)
(-0.0149799 -0.00519298 5.57899e-21)
(-0.0164318 -0.00517545 8.23115e-21)
(-0.0179111 -0.00512622 -8.09519e-21)
(-0.0194078 -0.00504614 9.78627e-21)
(-0.0209116 -0.00493639 -1.2875e-20)
(-0.0224115 -0.0047986 1.01449e-20)
(-0.000438271 -0.000508571 -3.18476e-21)
(-0.000736294 -0.000643597 1.54911e-21)
(-0.00111465 -0.000773334 -1.31262e-21)
(-0.00157592 -0.000897215 3.03742e-21)
(-0.00212194 -0.00101468 -3.54013e-21)
(-0.00275395 -0.00112518 1.06759e-21)
(-0.00347257 -0.00122817 2.1932e-21)
(-0.00427784 -0.00132313 -3.09739e-21)
(-0.00516906 -0.00140957 -2.04384e-22)
(-0.0061448 -0.001487 2.85153e-21)
(-0.00720281 -0.001555 -1.45234e-21)
(-0.00834002 -0.00161318 -4.02272e-22)
(-0.00955249 -0.00166121 1.87971e-21)
(-0.0108354 -0.00169879 -4.82255e-21)
(-0.0121829 -0.00172574 1.15688e-21)
(-0.0135885 -0.0017419 2.92916e-21)
(-0.0150447 -0.00174725 -2.71567e-21)
(-0.0165431 -0.00174182 -2.54031e-21)
(-0.0180747 -0.00172579 3.88463e-21)
(-0.0196297 -0.00169941 1.49422e-21)
(-0.0211979 -0.0016631 -4.40215e-21)
(-0.0227686 -0.0016174 -3.96642e-22)
)
;

boundaryField
{
    inlet
    {
        type            uniformFixedValue;
        uniformValue    constant (1 0 0);
        value           nonuniform 0();
    }
    outlet
    {
        type            pressureInletOutletVelocity;
        value           nonuniform 0();
    }
    cylinder
    {
        type            fixedValue;
        value           uniform (0 0 0);
    }
    top
    {
        type            symmetryPlane;
    }
    bottom
    {
        type            symmetryPlane;
    }
    defaultFaces
    {
        type            empty;
    }
    procBoundary15to9
    {
        type            processor;
        value           nonuniform List<vector> 
37
(
(-0.000118233 -0.0001508 -3.7199e-21)
(-0.000155346 -0.000341234 6.01395e-21)
(7.00325e-05 -0.000468817 3.54402e-20)
(0.000577374 -0.000526394 2.59345e-20)
(0.0013873 -0.000506644 -4.04474e-20)
(0.000327152 -0.00235067 1.49984e-20)
(0.000327152 -0.00235067 1.49984e-20)
(0.0012967 -0.00249504 2.60411e-20)
(0.00260671 -0.0025437 -1.58288e-20)
(0.00428424 -0.00249379 3.16751e-20)
(0.00258122 -0.00528071 -6.50148e-20)
(0.00258122 -0.00528071 -6.50148e-20)
(0.00445558 -0.00528723 7.07333e-20)
(0.00673261 -0.00517584 -9.36734e-20)
(0.00944068 -0.00494513 3.74861e-20)
(0.00710942 -0.00812833 -8.52026e-20)
(0.00710942 -0.00812833 -8.52026e-20)
(0.0100152 -0.00784336 -5.2372e-20)
(0.0133817 -0.00742272 -2.93191e-20)
(0.0172374 -0.00686763 7.77417e-20)
(0.0141112 -0.00992121 -5.61029e-20)
(0.0141112 -0.00992121 -5.61029e-20)
(0.0181258 -0.00921574 -3.46968e-21)
(0.0226514 -0.00836685 1.26289e-19)
(0.0188497 -0.0109404 -1.29557e-19)
(0.0188497 -0.0109404 -1.29557e-19)
(0.0234725 -0.00988692 6.76763e-20)
(0.0286216 -0.00869076 -1.46874e-20)
(0.0343235 -0.00736062 3.23844e-20)
(0.0291139 -0.00921751 3.87175e-21)
(0.0291139 -0.00921751 3.87175e-21)
(0.034821 -0.00768429 -8.62807e-20)
(0.0410903 -0.006042 2.23719e-21)
(0.0346701 -0.00732931 1.68845e-20)
(0.0346701 -0.00732931 1.68845e-20)
(0.0408547 -0.00557884 2.44588e-20)
(0.0476043 -0.0037849 2.3855e-20)
)
;
    }
    procBoundary15to16
    {
        type            processor;
        value           nonuniform List<vector> 
17
(
(0.039675 -0.00481679 1.80358e-20)
(0.0215228 -0.00879592 6.03699e-20)
(0.0215228 -0.00879592 6.03699e-20)
(0.00770693 -0.0119563 7.0939e-20)
(0.00770693 -0.0119563 7.0939e-20)
(-0.000392142 -0.0129036 -1.30718e-19)
(-0.00852952 -0.0143416 -3.07586e-20)
(-0.00852952 -0.0143416 -3.07586e-20)
(-0.0135953 -0.0138852 -2.68355e-20)
(-0.0176025 -0.0136164 2.95931e-20)
(-0.0176025 -0.0136164 2.95931e-20)
(-0.0204775 -0.0119088 1.34991e-21)
(-0.0216543 -0.0101928 7.44916e-21)
(-0.0216543 -0.0101928 7.44916e-21)
(-0.0230136 -0.00754573 -6.87517e-21)
(-0.0238965 -0.00463484 1.35764e-20)
(-0.024331 -0.00156298 -4.13076e-21)
)
;
    }
    procBoundary15to21
    {
        type            processor;
        value           nonuniform List<vector> 
26
(
(-0.000438271 0.000508569 -3.76856e-22)
(-0.000736293 0.000643594 -1.47024e-21)
(-0.00111465 0.000773331 1.20646e-21)
(-0.00157592 0.000897211 -3.19769e-21)
(-0.00212194 0.00101468 3.30373e-21)
(-0.00275395 0.00112518 -6.82452e-22)
(-0.00347257 0.00122817 -2.3154e-21)
(-0.00427784 0.00132313 2.74695e-21)
(-0.00516906 0.00140956 -8.89246e-22)
(-0.0061448 0.001487 -3.36205e-21)
(-0.00720281 0.001555 1.57085e-21)
(-0.00834002 0.00161318 6.02748e-22)
(-0.00955249 0.0016612 -2.38312e-21)
(-0.0108354 0.00169879 5.73454e-21)
(-0.0121829 0.00172573 -1.78029e-21)
(-0.0135885 0.00174189 -3.22735e-21)
(-0.0150447 0.00174724 2.11704e-21)
(-0.0165431 0.00174181 1.42953e-21)
(-0.0180747 0.00172578 -1.3497e-21)
(-0.0196297 0.0016994 -1.40976e-21)
(-0.0211979 0.00166309 2.50386e-21)
(-0.0227686 0.00161739 -1.78682e-21)
(-1.33753e-05 -7.69988e-05 9.39461e-22)
(-7.66566e-05 -0.000224797 -3.33528e-21)
(-0.000218225 -0.00036881 8.25597e-22)
(-0.000218225 -0.00036881 8.25597e-22)
)
;
    }
}


// ************************************************************************* //
