/*--------------------------------*- C++ -*----------------------------------*\
  =========                 |
  \\      /  F ield         | OpenFOAM: The Open Source CFD Toolbox
   \\    /   O peration     | Website:  https://openfoam.org
    \\  /    A nd           | Version:  7
     \\/     M anipulation  |
\*---------------------------------------------------------------------------*/
FoamFile
{
    version     2.0;
    format      ascii;
    class       volVectorField;
    location    "22";
    object      U;
}
// * * * * * * * * * * * * * * * * * * * * * * * * * * * * * * * * * * * * * //

dimensions      [0 1 -1 0 0 0 0];

internalField   nonuniform List<vector> 
433
(
(0.578512 0.0584152 1.76449e-22)
(0.585695 0.0561209 4.44079e-22)
(0.593127 0.0538116 1.29065e-22)
(0.6008 0.0514792 -6.9845e-22)
(0.608638 0.0491954 -3.12217e-22)
(0.6167 0.04688 3.63614e-22)
(0.624807 0.0447205 -5.86969e-22)
(0.633215 0.0424226 3.97136e-22)
(0.641417 0.0405371 -3.43361e-22)
(0.650253 0.0381372 3.91247e-22)
(0.65823 0.036839 -7.63048e-23)
(0.667898 0.0339404 -3.29235e-23)
(0.6749 0.0339221 4.35221e-23)
(0.68656 0.029664 -1.71997e-23)
(0.690839 0.0318846 -5.85719e-24)
(0.707063 0.0263923 -7.76494e-25)
(0.514758 0.0688074 7.43009e-21)
(0.520855 0.0672069 -1.77397e-21)
(0.527377 0.0654101 -2.41243e-21)
(0.534293 0.0634546 5.72487e-21)
(0.541565 0.061376 -8.11131e-21)
(0.54916 0.0592031 5.32954e-21)
(0.557039 0.0569679 -1.42086e-21)
(0.565175 0.0546875 6.44939e-22)
(0.57352 0.0523985 -6.35445e-22)
(0.582071 0.0500931 -3.82761e-22)
(0.590748 0.0478388 6.79245e-22)
(0.599617 0.0455593 -2.02902e-22)
(0.608491 0.0434326 6.32478e-22)
(0.617639 0.0411778 -6.76685e-22)
(0.626532 0.0393204 3.91287e-22)
(0.636052 0.0369743 -3.36096e-22)
(0.644636 0.0356863 -8.47579e-23)
(0.654953 0.0328644 2.37061e-23)
(0.662445 0.0328145 1.84749e-23)
(0.674785 0.0286784 -5.3643e-24)
(0.679345 0.0308005 1.92652e-23)
(0.69641 0.0254434 7.3151e-24)
(0.486851 0.06723 -4.82572e-21)
(0.494143 0.0655857 -2.0901e-22)
(0.50182 0.0637611 1.38404e-21)
(0.50985 0.0617919 -2.28947e-21)
(0.518197 0.0597118 1.41406e-21)
(0.526828 0.0575483 1.56645e-21)
(0.535704 0.0553313 -6.5246e-22)
(0.544799 0.053077 -1.25815e-21)
(0.554066 0.0508195 1.56994e-21)
(0.563503 0.0485517 -1.36616e-21)
(0.573029 0.0463365 2.76274e-22)
(0.582713 0.0441025 8.9442e-23)
(0.592362 0.0420165 -1.10686e-22)
(0.602259 0.0398143 2.5336e-22)
(0.611853 0.0379913 -1.03516e-22)
(0.622066 0.0357091 1.32522e-22)
(0.631268 0.0344347 1.42861e-22)
(0.642243 0.0317029 -6.12372e-23)
(0.650239 0.0316183 8.19563e-23)
(0.663265 0.0276259 5.95321e-24)
(0.668122 0.0296348 1.47214e-23)
(0.686029 0.024439 6.40338e-23)
(0.459209 0.065407 -3.08582e-21)
(0.467691 0.0637332 1.84941e-21)
(0.476519 0.0618938 -1.87202e-21)
(0.485662 0.0599231 4.22168e-22)
(0.495083 0.057853 5.82241e-22)
(0.504749 0.0557095 5.34412e-22)
(0.514623 0.0535208 -1.23572e-21)
(0.524679 0.0513022 1.0482e-21)
(0.534869 0.0490854 4.80246e-22)
(0.545194 0.0468639 6.68484e-22)
(0.55557 0.0446964 -1.41599e-21)
(0.566072 0.0425159 1.59134e-21)
(0.5765 0.0404789 -2.96967e-22)
(0.58715 0.0383365 -6.22103e-23)
(0.597451 0.0365557 -1.8098e-22)
(0.60836 0.0343442 1.56123e-22)
(0.618187 0.0330903 -1.21716e-22)
(0.629825 0.0304554 -6.95088e-23)
(0.638333 0.0303414 -6.20995e-23)
(0.652046 0.0265018 -6.69488e-24)
(0.657216 0.0283986 -2.93869e-23)
(0.675959 0.0233769 -1.02431e-22)
(0.432 0.0632909 -5.55525e-21)
(0.441658 0.0616061 5.57346e-21)
(0.451626 0.0597694 1.17135e-21)
(0.461871 0.0578136 -2.43693e-21)
(0.472357 0.055769 -2.3128e-22)
(0.483052 0.0536602 2.12643e-22)
(0.493917 0.0515136 5.46791e-23)
(0.504927 0.0493435 -3.02776e-22)
(0.516036 0.0471798 -7.32543e-22)
(0.527244 0.0450162 1.89293e-21)
(0.538468 0.0429074 -4.69495e-22)
(0.549785 0.0407908 -3.68764e-23)
(0.560991 0.0388126 -5.66581e-22)
(0.572392 0.0367393 -5.56779e-22)
(0.583398 0.0350095 3.707e-22)
(0.595004 0.0328769 -2.20596e-22)
(0.605456 0.0316514 4.06161e-23)
(0.617756 0.0291216 -1.22346e-22)
(0.62678 0.0289834 4.91139e-23)
(0.641176 0.0253069 1.08401e-23)
(0.646669 0.0270922 -3.52596e-23)
(0.666241 0.022259 3.28422e-24)
(0.405395 0.0608717 1.24672e-20)
(0.416207 0.0591955 -5.43732e-21)
(0.427294 0.05738 -3.28129e-21)
(0.438623 0.0554565 2.97062e-21)
(0.450158 0.0534538 5.47942e-22)
(0.461865 0.0513952 -1.38955e-22)
(0.473708 0.0493053 -5.30612e-22)
(0.485661 0.0471978 2.51661e-22)
(0.497677 0.0451001 3.11408e-22)
(0.509758 0.0430066 -1.22044e-22)
(0.521819 0.0409682 -3.17334e-22)
(0.533943 0.0389263 -1.75607e-24)
(0.545917 0.0370172 3.39452e-22)
(0.558062 0.0350226 -2.61858e-22)
(0.569768 0.033353 -2.14588e-22)
(0.582063 0.0313081 2.85807e-23)
(0.593138 0.0301185 -2.78528e-23)
(0.606093 0.0277027 2.23305e-22)
(0.615634 0.0275448 4.52154e-23)
(0.630705 0.0240431 -4.5429e-24)
(0.636527 0.025716 3.53703e-23)
(0.656912 0.0210881 6.08995e-23)
(0.379568 0.0581578 -2.03171e-21)
(0.391502 0.0565087 -1.01217e-21)
(0.40368 0.0547321 4.80401e-22)
(0.416066 0.0528578 2.24592e-21)
(0.428625 0.0509129 -1.04657e-21)
(0.441323 0.0489196 -1.30074e-21)
(0.454122 0.0469008 1.88156e-22)
(0.466998 0.0448691 9.26138e-22)
(0.479902 0.0428503 -5.13393e-22)
(0.492839 0.040839 1.50632e-21)
(0.505722 0.0388821 3.23714e-22)
(0.518636 0.0369256 -7.15402e-22)
(0.531366 0.0350958 -7.06561e-24)
(0.544241 0.0331894 3.95959e-22)
(0.556635 0.0315887 8.95699e-23)
(0.569608 0.0296403 1.10451e-22)
(0.581295 0.0284938 3.68438e-23)
(0.594894 0.026201 -3.47333e-23)
(0.604946 0.0260279 -5.04942e-23)
(0.620677 0.0227125 -7.06439e-24)
(0.626832 0.024272 3.97156e-23)
(0.64801 0.0198666 1.09394e-23)
(0.354692 0.055158 -3.6792e-21)
(0.367709 0.0535538 3.52735e-21)
(0.38094 0.0518332 -2.21227e-21)
(0.39435 0.0500243 2.26824e-21)
(0.4079 0.0481528 5.05765e-22)
(0.421558 0.0462394 -3.63909e-22)
(0.435285 0.0443054 -2.44976e-21)
(0.449056 0.0423629 1.1641e-21)
(0.462823 0.0404352 -9.60022e-22)
(0.476591 0.0385177 -7.40606e-22)
(0.490273 0.0366536 1.17015e-21)
(0.503957 0.0347929 -2.27154e-23)
(0.517422 0.0330521 1.57148e-23)
(0.531008 0.0312432 -1.35569e-22)
(0.544071 0.0297202 1.60523e-22)
(0.557705 0.0278768 -3.89695e-22)
(0.569989 0.0267807 8.42783e-23)
(0.584216 0.0246192 -1.04302e-22)
(0.594769 0.0244355 8.40941e-23)
(0.611141 0.0213173 -1.43761e-23)
(0.617627 0.0227628 -4.4614e-24)
(0.639571 0.0185972 -8.42104e-23)
(0.33094 0.0518819 3.70489e-22)
(0.344991 0.0503397 -2.84216e-21)
(0.35923 0.0486913 2.04998e-21)
(0.373621 0.0469635 -3.24039e-21)
(0.388123 0.0451804 4.08399e-21)
(0.402702 0.0433611 -1.06358e-21)
(0.41732 0.0415255 -9.72862e-22)
(0.431952 0.0396848 1.09977e-21)
(0.44655 0.0378604 8.01445e-22)
(0.461118 0.0360482 -3.06386e-22)
(0.475569 0.0342876 -8.27448e-22)
(0.489995 0.0325328 -6.17792e-23)
(0.504168 0.0308906 -1.5258e-22)
(0.51844 0.0291884 -1.65851e-22)
(0.53215 0.0277514 1.36765e-22)
(0.54642 0.0260211 -3.65094e-23)
(0.559282 0.0249825 -2.00097e-24)
(0.574113 0.0229605 2.3783e-23)
(0.585153 0.0227709 -6.46242e-23)
(0.602141 0.0198604 3.21645e-23)
(0.608952 0.0211912 -6.6654e-23)
(0.631631 0.0172826 5.5787e-23)
(0.308479 0.0483415 1.55836e-21)
(0.323508 0.0468772 -1.93208e-21)
(0.338703 0.0453167 -3.08544e-23)
(0.354023 0.043685 -3.37008e-22)
(0.369429 0.0420044 -1.17772e-21)
(0.384885 0.0402929 -1.76199e-21)
(0.40035 0.0385687 1.55322e-21)
(0.415802 0.0368421 -1.04087e-21)
(0.43119 0.0351326 5.28645e-22)
(0.446521 0.0334367 -5.54737e-22)
(0.461705 0.03179 4.21366e-22)
(0.476837 0.030151 1.01126e-22)
(0.491686 0.0286168 -2.55859e-22)
(0.506612 0.0270298 -1.24257e-22)
(0.52094 0.0256871 2.84028e-22)
(0.535817 0.0240778 -1.11179e-22)
(0.549232 0.0231036 3.36866e-22)
(0.56464 0.0212289 -3.215e-23)
(0.576146 0.0210379 4.71986e-23)
(0.59372 0.0183448 -1.9685e-23)
(0.600847 0.0195607 7.14032e-23)
(0.624223 0.015926 6.01467e-23)
(0.271717 0.0458083 2.38827e-21)
(0.287472 0.0445511 1.63589e-21)
(0.303417 0.0431798 -2.07238e-21)
(0.319506 0.0417217 -2.2804e-21)
(0.335699 0.0402001 -1.07235e-21)
(0.351952 0.0386357 2.13483e-21)
(0.368231 0.0370449 5.67466e-22)
(0.384494 0.0354444 1.7291e-21)
(0.400716 0.0338436 -1.05587e-21)
(0.416848 0.0322602 -4.84377e-22)
(0.432898 0.0306911 8.30893e-22)
(0.448772 0.0291682 -1.29514e-22)
(0.46457 0.0276543 -7.62701e-23)
(0.480056 0.0262368 -1.59885e-22)
(0.495599 0.0247734 4.54129e-22)
(0.510508 0.0235328 -1.57702e-22)
(0.525959 0.022052 1.64122e-23)
(0.539896 0.0211487 -2.32293e-22)
(0.555847 0.0194286 -6.20609e-25)
(0.567795 0.0192406 -8.74316e-24)
(0.58592 0.0167742 3.43864e-24)
(0.593349 0.0178749 -6.36503e-23)
(0.61738 0.0145303 -1.75123e-22)
(0.251462 0.0416897 5.29399e-22)
(0.268075 0.0405277 3.10996e-21)
(0.284864 0.039263 1.20497e-21)
(0.30178 0.0379207 -9.34027e-22)
(0.31878 0.0365224 1.50878e-21)
(0.33582 0.0350868 -1.76927e-21)
(0.352862 0.0336288 -1.33375e-21)
(0.369863 0.0321635 1.62267e-21)
(0.386801 0.0306995 -3.70664e-22)
(0.403624 0.0292526 9.71957e-22)
(0.420341 0.0278201 -1.98961e-22)
(0.436857 0.0264304 -1.46799e-22)
(0.453274 0.0250503 -7.23653e-23)
(0.469353 0.0237579 1.91209e-22)
(0.485469 0.0224259 -6.23791e-23)
(0.50092 0.0212946 4.18102e-23)
(0.516904 0.0199494 -2.40726e-22)
(0.531326 0.0191231 2.68951e-22)
(0.547784 0.0175645 4.44364e-23)
(0.560144 0.0173837 -2.30247e-23)
(0.578781 0.0151527 2.8698e-23)
(0.586494 0.0161378 -1.02881e-23)
(0.61113 0.0130989 6.64834e-24)
(0.233041 0.0373444 1.87572e-21)
(0.250433 0.03629 -2.77598e-21)
(0.26799 0.0351443 -1.57757e-21)
(0.285659 0.0339302 -1.54521e-21)
(0.303394 0.0326671 3.49655e-21)
(0.32115 0.0313718 -6.85343e-22)
(0.338888 0.0300578 -1.0029e-21)
(0.356566 0.0287384 -1.03072e-21)
(0.374157 0.0274213 6.06211e-22)
(0.391612 0.0261206 -8.87869e-22)
(0.408938 0.0248337 6.03151e-22)
(0.426042 0.0235859 1.59659e-22)
(0.443025 0.0223477 8.47574e-24)
(0.459646 0.0211881 -2.88331e-22)
(0.476287 0.0199947 -5.3547e-24)
(0.492234 0.0189795 -1.84802e-22)
(0.508706 0.0177763 1.41812e-22)
(0.523574 0.0170328 -1.9174e-22)
(0.540494 0.015642 7.14966e-23)
(0.553233 0.0154723 -8.95663e-23)
(0.572337 0.0134844 -3.93857e-23)
(0.580313 0.014354 -3.67231e-23)
(0.605502 0.0116353 1.5203e-22)
(0.216595 0.0327945 -2.29372e-21)
(0.234682 0.0318586 2.21035e-21)
(0.252923 0.0308431 -2.20429e-21)
(0.271264 0.0297681 3.23023e-21)
(0.289657 0.028651 -1.20745e-21)
(0.308054 0.0275065 -8.12027e-22)
(0.326416 0.0263465 8.87955e-22)
(0.344699 0.0251826 -9.14072e-22)
(0.362876 0.0240217 4.5802e-22)
(0.380898 0.0228758 -1.91448e-22)
(0.398771 0.0217429 -1.66826e-22)
(0.416401 0.0206447 4.12784e-22)
(0.433893 0.019556 2.77178e-22)
(0.451001 0.0185361 -8.08185e-23)
(0.468113 0.0174878 -2.25826e-22)
(0.484506 0.0165949 2.15988e-22)
(0.501416 0.0155396 2.04281e-23)
(0.516684 0.0148842 1.44641e-22)
(0.53402 0.0136668 -1.12104e-22)
(0.5471 0.0135119 7.8343e-23)
(0.566622 0.0117743 3.0498e-23)
(0.574837 0.012528 1.1412e-22)
(0.600521 0.0101429 -1.91526e-22)
(0.202251 0.0280639 3.45058e-24)
(0.220941 0.027256 -8.63755e-22)
(0.239779 0.0263802 8.12544e-22)
(0.258707 0.0254541 -3.78561e-22)
(0.277675 0.0244924 6.13394e-24)
(0.296632 0.0235079 -5.12159e-22)
(0.31554 0.0225108 1.34038e-21)
(0.334352 0.021511 -9.30742e-22)
(0.353043 0.0205144 1.92565e-22)
(0.37156 0.0195311 1.97015e-22)
(0.389912 0.0185596 3.21396e-22)
(0.408004 0.0176181 -1.63287e-22)
(0.425942 0.0166853 -3.30692e-22)
(0.443476 0.0158113 2.17184e-22)
(0.461001 0.0149141 3.82689e-23)
(0.477785 0.0141489 -6.89855e-24)
(0.495079 0.0132468 -1.60858e-22)
(0.510699 0.012684 -1.29472e-22)
(0.528398 0.0116451 -1.19737e-23)
(0.541778 0.0115082 -4.71731e-23)
(0.561667 0.0100271 -1.18524e-23)
(0.570092 0.010665 -1.09818e-22)
(0.596208 0.00862547 1.74584e-22)
(0.19012 0.0231778 1.48113e-21)
(0.209321 0.022506 -7.96437e-22)
(0.228663 0.0217781 6.76428e-22)
(0.248087 0.021009 2.27275e-22)
(0.267541 0.0202109 4.0765e-22)
(0.286973 0.0193944 3.74714e-22)
(0.306343 0.0185679 1.75517e-22)
(0.325604 0.0177396 2.97161e-22)
(0.34473 0.0169143 -7.25794e-22)
(0.363668 0.0161004 6.73821e-23)
(0.382427 0.0152965 2.15427e-22)
(0.400911 0.0145178 3.63795e-23)
(0.419226 0.0137466 1.37603e-22)
(0.437123 0.013024 -8.94772e-23)
(0.454999 0.0122828 1.57371e-22)
(0.472115 0.01165 1.76934e-23)
(0.489735 0.0109056 7.831e-23)
(0.505654 0.0104395 6.78575e-23)
(0.523662 0.00958342 2.66484e-23)
(0.537297 0.00946742 1.84144e-23)
(0.557496 0.00824814 -9.41125e-24)
(0.566101 0.0087701 3.75488e-23)
(0.592583 0.00708662 1.71265e-23)
(0.180298 0.0181628 -2.14728e-21)
(0.19991 0.0176335 2.36902e-21)
(0.219661 0.0170604 -8.16999e-22)
(0.239487 0.0164551 7.48293e-23)
(0.259335 0.0158273 -1.28665e-22)
(0.279152 0.0151853 2.37227e-22)
(0.298897 0.0145358 -5.68691e-22)
(0.318522 0.0138851 7.60159e-22)
(0.338001 0.013237 7.29001e-23)
(0.357281 0.012598 -5.88541e-23)
(0.37637 0.0119672 -2.893e-22)
(0.395173 0.0113562 -7.78366e-23)
(0.413795 0.0107514 1.5375e-23)
(0.431986 0.0101846 -2.81079e-22)
(0.450147 0.00960367 -8.39809e-23)
(0.467533 0.00910735 -9.18474e-23)
(0.485418 0.00852438 -9.85185e-24)
(0.50158 0.0081583 1.05871e-24)
(0.519839 0.00748865 1.18921e-24)
(0.533682 0.00739589 2.4787e-23)
(0.554133 0.0064429 -2.22755e-24)
(0.562884 0.00684889 3.68895e-23)
(0.589664 0.00553018 -7.48095e-23)
(0.172862 0.0130465 2.50222e-22)
(0.192786 0.0126648 4.60482e-23)
(0.212845 0.0122517 -5.29749e-22)
(0.232976 0.0118155 -4.75082e-22)
(0.253122 0.0113633 8.09271e-22)
(0.273231 0.010901 -1.92488e-22)
(0.29326 0.0104334 -7.94079e-24)
(0.313161 0.00996516 1.211e-23)
(0.332909 0.0094989 -1.29913e-22)
(0.352448 0.00903932 6.88147e-23)
(0.371788 0.00858572 3.40679e-22)
(0.390831 0.00814639 -2.02448e-23)
(0.409687 0.00771167 -4.97776e-23)
(0.428102 0.00730428 8.93442e-23)
(0.446478 0.00688694 9.82354e-23)
(0.46407 0.00653017 2.24891e-23)
(0.482156 0.00611162 1.04811e-23)
(0.498502 0.00584822 -6.60793e-23)
(0.516951 0.00536785 -1.91007e-23)
(0.530952 0.00530022 -3.35701e-23)
(0.551594 0.00461699 3.80684e-24)
(0.560458 0.004907 3.71926e-24)
(0.587462 0.00396 5.45731e-23)
(0.167871 0.00785721 -8.31121e-22)
(0.188004 0.00762676 -2.20268e-23)
(0.208271 0.00737738 3.13523e-22)
(0.228605 0.00711415 -6.02388e-23)
(0.248952 0.0068413 4.04499e-23)
(0.269257 0.00656243 -4.4723e-22)
(0.289477 0.00628043 -1.80956e-22)
(0.309564 0.00599808 1.45249e-22)
(0.329491 0.00571698 -6.03839e-23)
(0.349205 0.00543995 1.60621e-22)
(0.368713 0.00516658 -1.49918e-22)
(0.387919 0.00490184 9.25433e-23)
(0.406932 0.00463992 6.19197e-24)
(0.425497 0.00439446 -5.3556e-24)
(0.444019 0.00414311 -5.30055e-23)
(0.461748 0.00392815 4.63056e-23)
(0.479969 0.00367616 -3.54827e-23)
(0.496439 0.00351735 1.88449e-23)
(0.515017 0.00322831 1.38952e-23)
(0.529124 0.00318718 -1.36168e-24)
(0.549894 0.00277623 7.85323e-25)
(0.558833 0.00295023 -6.95994e-24)
(0.585989 0.00237998 -4.14835e-23)
(0.165366 0.00262395 1.76126e-23)
(0.185604 0.00254689 4.14828e-23)
(0.205974 0.00246351 1.30876e-22)
(0.226411 0.00237551 -1.89573e-23)
(0.246859 0.0022843 -5.67299e-23)
(0.267262 0.0021911 -3.7947e-23)
(0.287578 0.00209686 1.18729e-22)
(0.307758 0.00200251 -1.6527e-22)
(0.327776 0.00190859 6.7167e-23)
(0.347577 0.00181605 -4.14893e-23)
(0.36717 0.00172473 1.53963e-23)
(0.386458 0.0016363 -1.80171e-23)
)
;

boundaryField
{
    inlet
    {
        type            uniformFixedValue;
        uniformValue    constant (1 0 0);
        value           nonuniform 0();
    }
    outlet
    {
        type            pressureInletOutletVelocity;
        value           nonuniform List<vector> 
19
(
(0.707063 0.0263923 -7.76494e-25)
(0.69641 0.0254434 7.3151e-24)
(0.686029 0.024439 6.40338e-23)
(0.675959 0.0233769 -1.02431e-22)
(0.666241 0.022259 3.28422e-24)
(0.656912 0.0210881 6.08995e-23)
(0.64801 0.0198666 1.09394e-23)
(0.639571 0.0185972 -8.42104e-23)
(0.631631 0.0172826 5.5787e-23)
(0.624223 0.015926 6.01467e-23)
(0.61738 0.0145303 -1.75123e-22)
(0.61113 0.0130989 6.64834e-24)
(0.605502 0.0116353 1.5203e-22)
(0.600521 0.0101429 -1.91526e-22)
(0.596208 0.00862547 1.74584e-22)
(0.592583 0.00708662 1.71265e-23)
(0.589664 0.00553018 -7.48095e-23)
(0.587462 0.00396 5.45731e-23)
(0.585989 0.00237998 -4.14835e-23)
)
;
    }
    cylinder
    {
        type            fixedValue;
        value           nonuniform 0();
    }
    top
    {
        type            symmetryPlane;
    }
    bottom
    {
        type            symmetryPlane;
    }
    defaultFaces
    {
        type            empty;
    }
    procBoundary17to10
    {
        type            processor;
        value           nonuniform List<vector> 5((0.509119 0.0701698 3.88609e-21) (0.479975 0.0686538 -1.01777e-20) (0.451104 0.0668765 -8.59283e-21) (0.422683 0.0647864 -6.5313e-21) (0.394891 0.0623728 1.11076e-20));
    }
    procBoundary17to11
    {
        type            processor;
        value           nonuniform List<vector> 
23
(
(0.607508 0.0598892 0)
(0.613557 0.057631 0)
(0.619887 0.0553438 0)
(0.62649 0.0530215 0)
(0.633291 0.0507378 0)
(0.640345 0.0484132 0)
(0.64748 0.046239 0)
(0.654934 0.0439172 0)
(0.662231 0.0420106 0)
(0.670157 0.0395729 0)
(0.677312 0.0382601 0)
(0.686081 0.035302 0)
(0.692393 0.0352978 0)
(0.703079 0.030943 0)
(0.706931 0.0332251 0)
(0.721926 0.027624 0)
(0.542772 0.0700944 1.37246e-20)
(0.547676 0.0685589 -9.12849e-21)
(0.553048 0.0668092 3.12394e-21)
(0.558854 0.0648848 2.47995e-21)
(0.565057 0.0628233 -1.54002e-21)
(0.571623 0.0606554 -1.06789e-22)
(0.571623 0.0606554 -1.06789e-22)
)
;
    }
    procBoundary17to16
    {
        type            processor;
        value           nonuniform List<vector> 
15
(
(0.367912 0.059645 2.44723e-21)
(0.341926 0.0566128 -5.81548e-21)
(0.317116 0.0532868 -6.24059e-21)
(0.293656 0.0496801 3.50461e-22)
(0.293656 0.0496801 3.50461e-22)
(0.256197 0.0469195 1.3544e-21)
(0.235072 0.0427194 1.34e-21)
(0.215865 0.0382805 -6.52059e-21)
(0.19872 0.0336265 5.85831e-21)
(0.183768 0.0287828 9.80803e-22)
(0.171125 0.0237761 -7.28556e-22)
(0.16089 0.0186344 -5.67813e-22)
(0.153142 0.0133867 -1.87318e-21)
(0.147942 0.00806265 -3.15715e-22)
(0.145332 0.00269265 2.72734e-22)
)
;
    }
    procBoundary17to23
    {
        type            processor;
        value           nonuniform List<vector> 
24
(
(0.165366 -0.00262402 -1.33134e-23)
(0.185604 -0.00254697 5.4812e-23)
(0.205974 -0.0024636 -1.04448e-22)
(0.226411 -0.0023756 -1.58378e-22)
(0.246859 -0.0022844 2.48877e-23)
(0.267262 -0.0021912 5.24698e-23)
(0.287578 -0.00209695 2.19123e-23)
(0.307758 -0.00200258 2.82859e-23)
(0.327776 -0.00190864 -8.25962e-23)
(0.347577 -0.00181607 -7.15168e-24)
(0.36717 -0.00172472 -5.25373e-24)
(0.386458 -0.00163626 9.3204e-24)
(0.405549 0.00154883 -2.01925e-23)
(0.424189 0.00146685 2.92484e-23)
(0.442785 0.00138292 -4.87496e-23)
(0.460583 0.00131113 1.41916e-23)
(0.478872 0.001227 -6.84468e-24)
(0.495404 0.00117395 -8.56823e-24)
(0.514047 0.00107747 4.86297e-24)
(0.528207 0.00106367 -9.83544e-25)
(0.549042 0.000926504 -1.60225e-24)
(0.558019 0.000984496 -2.17364e-24)
(0.58525 0.000794035 -1.14814e-23)
(0.405549 0.00154883 -2.01925e-23)
)
;
    }
}


// ************************************************************************* //
