/*--------------------------------*- C++ -*----------------------------------*\
  =========                 |
  \\      /  F ield         | OpenFOAM: The Open Source CFD Toolbox
   \\    /   O peration     | Website:  https://openfoam.org
    \\  /    A nd           | Version:  7
     \\/     M anipulation  |
\*---------------------------------------------------------------------------*/
FoamFile
{
    version     2.0;
    format      ascii;
    class       surfaceScalarField;
    location    "18";
    object      phi;
}
// * * * * * * * * * * * * * * * * * * * * * * * * * * * * * * * * * * * * * //

dimensions      [0 3 -1 0 0 0 0];

internalField   nonuniform List<scalar> 
814
(
7.12109e-07
-1.49702e-06
1.67252e-06
-2.81191e-06
-4.42385e-06
1.88325e-07
-6.27008e-07
7.84256e-07
-2.09295e-06
1.84059e-06
-3.86824e-06
3.41534e-06
-5.9986e-06
5.57224e-06
-8.53548e-06
8.38118e-06
-1.15364e-05
1.19188e-05
-1.50655e-05
-1.91943e-05
2.05509e-07
-8.32518e-07
8.55129e-07
-2.74257e-06
2.00559e-06
-5.01871e-06
3.71914e-06
-7.71215e-06
6.06397e-06
-1.08803e-05
9.11474e-06
-1.45872e-05
1.29531e-05
-1.89039e-05
1.76684e-05
-2.39096e-05
2.33581e-05
-2.96915e-05
3.01284e-05
-3.63467e-05
3.80954e-05
-4.39817e-05
4.73853e-05
-5.27143e-05
-6.26738e-05
2.22344e-07
-1.05486e-06
9.24491e-07
-3.44472e-06
2.16695e-06
-6.26117e-06
4.01597e-06
-9.56116e-06
6.54397e-06
-1.34083e-05
9.83011e-06
-1.78733e-05
1.39607e-05
-2.30346e-05
1.90301e-05
-2.89789e-05
2.51406e-05
-3.58021e-05
3.24041e-05
-4.36101e-05
4.09417e-05
-5.25194e-05
5.08854e-05
-6.2658e-05
6.2378e-05
-7.41664e-05
7.55744e-05
-8.71985e-05
9.06421e-05
-0.000101922
0.000107762
-0.000118522
-0.000137196
2.38799e-07
-1.29366e-06
9.92195e-07
-4.19811e-06
2.32427e-06
-7.59324e-06
4.30503e-06
-1.15419e-05
7.01086e-06
-1.61141e-05
1.05251e-05
-2.13875e-05
1.49383e-05
-2.74478e-05
2.03492e-05
-3.43897e-05
2.68649e-05
-4.23178e-05
3.46017e-05
-5.13469e-05
4.36856e-05
-6.16033e-05
5.42531e-05
-7.32255e-05
6.64517e-05
-8.6365e-05
8.04406e-05
-0.000101187
9.63912e-05
-0.000117873
0.000114488
-0.000136619
0.000134929
-0.000157637
0.000157927
-0.00018116
0.000183708
-0.000207436
0.000212512
-0.000236734
-0.000269344
2.54846e-07
-1.54851e-06
1.0581e-06
-5.00137e-06
2.47717e-06
-9.01232e-06
4.58557e-06
-1.36503e-05
7.46331e-06
-1.89919e-05
1.11975e-05
-2.51217e-05
1.58826e-05
-3.21329e-05
2.16212e-05
-4.01284e-05
2.85245e-05
-4.92211e-05
3.67129e-05
-5.95352e-05
4.63161e-05
-7.12066e-05
5.74746e-05
-8.43839e-05
7.03392e-05
-9.92296e-05
8.50725e-05
-0.000115921
0.000101849
-0.000134649
0.000120854
-0.000155624
0.000142288
-0.000179071
0.000166363
-0.000205234
0.000193303
-0.000234376
0.000223347
-0.000266778
0.000256746
-0.000302743
0.000293762
-0.000342591
0.000334668
-0.000386666
2.70438e-07
-1.81894e-06
1.12199e-06
-5.85292e-06
2.62515e-06
-1.05155e-05
4.85659e-06
-1.58818e-05
7.89963e-06
-2.20349e-05
1.18447e-05
-2.90667e-05
1.67897e-05
-3.70779e-05
2.28407e-05
-4.61794e-05
3.01122e-05
-5.64927e-05
3.87279e-05
-6.81509e-05
4.88207e-05
-8.12994e-05
6.05338e-05
-9.6097e-05
7.40207e-05
-0.000112717
8.94459e-05
-0.000131346
0.000106985
-0.000152188
0.000126825
-0.000175464
0.000149165
-0.000201411
0.000174214
-0.000230284
0.000202195
-0.000262357
0.00023334
-0.000297924
0.000267893
-0.000337295
0.000306104
-0.000380802
2.85501e-07
-2.10444e-06
1.18356e-06
-6.75099e-06
2.76744e-06
-1.20993e-05
5.11665e-06
-1.8231e-05
8.31741e-06
-2.52357e-05
1.2463e-05
-3.32123e-05
1.76544e-05
-4.22693e-05
2.40004e-05
-5.25254e-05
3.16182e-05
-6.41105e-05
4.0634e-05
-7.71667e-05
5.11831e-05
-9.18486e-05
6.34107e-05
-0.000108325
7.74715e-05
-0.000126777
9.35309e-05
-0.000147405
0.000111765
-0.000170422
0.000132358
-0.000196058
0.000155509
-0.000224561
0.000181423
-0.000256198
0.000210317
-0.000291251
0.000242416
-0.000330022
0.000277952
-0.000372831
2.99925e-07
-2.40437e-06
1.24235e-06
-7.69341e-06
2.90295e-06
-1.376e-05
5.36374e-06
-2.06918e-05
8.71339e-06
-2.85853e-05
1.30476e-05
-3.75466e-05
1.84697e-05
-4.76914e-05
2.50907e-05
-5.91463e-05
3.30299e-05
-7.20497e-05
4.24151e-05
-8.65519e-05
5.33831e-05
-0.000102817
6.60798e-05
-0.000121021
8.06606e-05
-0.000141358
9.72901e-05
-0.000164035
0.000116143
-0.000189274
0.000137402
-0.000217317
0.000161261
-0.00024842
0.00018792
-0.000282857
0.000217588
-0.000320919
0.000250481
-0.000362915
3.13566e-07
-2.71794e-06
1.29775e-06
-8.67759e-06
3.03031e-06
-1.54925e-05
5.59532e-06
-2.32568e-05
9.08344e-06
-3.20735e-05
1.35923e-05
-4.20555e-05
1.92269e-05
-5.3326e-05
2.60999e-05
-6.60193e-05
3.43318e-05
-8.02815e-05
4.40513e-05
-9.62714e-05
5.53957e-05
-0.000114161
6.85108e-05
-0.000134136
8.35509e-05
-0.000156398
0.000100679
-0.000181163
0.000120067
-0.000208662
0.000141894
-0.000239144
0.000166347
-0.000272873
0.00019362
-0.00031013
0.000223912
-0.000351211
3.26247e-07
-3.04418e-06
1.34905e-06
-9.70039e-06
3.14785e-06
-1.72913e-05
5.80833e-06
-2.59172e-05
9.42264e-06
-3.56878e-05
1.40898e-05
-4.67226e-05
1.99158e-05
-5.9152e-05
2.70143e-05
-7.31177e-05
3.5506e-05
-8.87733e-05
4.552e-05
-0.000106285
5.71927e-05
-0.000125834
7.06687e-05
-0.000147612
8.61003e-05
-0.00017183
0.000103648
-0.00019871
0.000123478
-0.000228492
0.000145764
-0.000261431
0.000170687
-0.000297796
0.000198431
-0.000337874
3.37767e-07
-3.38195e-06
1.39543e-06
-1.0758e-05
3.25369e-06
-1.91496e-05
5.99934e-06
-2.86629e-05
9.72551e-06
-3.94139e-05
1.45319e-05
-5.1529e-05
2.0525e-05
-6.51452e-05
2.78185e-05
-8.04111e-05
3.65328e-05
-9.74876e-05
4.67958e-05
-0.000116548
5.87426e-05
-0.000137781
7.25154e-05
-0.000161385
8.82631e-05
-0.000187578
0.000106141
-0.000216588
0.000126311
-0.000248662
0.000148939
-0.000284059
0.000174197
-0.000323053
-0.000365934
3.47911e-07
-3.72986e-06
1.43601e-06
-1.18461e-05
3.3458e-06
-2.10594e-05
6.16468e-06
-3.14818e-05
9.98615e-06
-4.32354e-05
1.491e-05
-5.64529e-05
2.10425e-05
-7.12777e-05
2.84964e-05
-8.7865e-05
3.73911e-05
-0.000106382
4.78526e-05
-0.00012701
6.00131e-05
-0.000149941
7.40115e-05
-0.000175383
8.99919e-05
-0.000203558
0.000108104
-0.0002347
0.000128502
-0.00026906
0.000151344
-0.000306901
0.000176789
-0.000348499
3.56454e-07
-4.08631e-06
1.46989e-06
-1.29596e-05
3.42211e-06
-2.30116e-05
6.30058e-06
-3.43602e-05
1.01986e-05
-4.71334e-05
1.52153e-05
-6.14696e-05
2.14559e-05
-7.75183e-05
2.90317e-05
-9.54408e-05
3.806e-05
-0.000115411
4.86637e-05
-0.000137614
6.09715e-05
-0.000162249
7.51174e-05
-0.000189529
9.12398e-05
-0.00021968
0.000109481
-0.000252942
0.000129987
-0.000289566
0.000152905
-0.000329818
-0.000373976
3.63173e-07
-4.44949e-06
1.49618e-06
-1.40926e-05
3.48058e-06
-2.4996e-05
6.40332e-06
-3.7283e-05
1.03568e-05
-5.10869e-05
1.5439e-05
-6.65517e-05
2.17533e-05
-8.38326e-05
2.94085e-05
-0.000103096
3.85189e-05
-0.000124521
4.92036e-05
-0.000148298
6.15864e-05
-0.000174632
7.57955e-05
-0.000203738
9.19621e-05
-0.000235847
0.00011022
-0.0002712
0.000130705
-0.000310051
0.000153553
-0.000352666
-0.00039932
3.67856e-07
-4.81734e-06
1.514e-06
-1.52387e-05
3.51922e-06
-2.70012e-05
6.46937e-06
-4.02331e-05
1.04553e-05
-5.50728e-05
1.5573e-05
-7.16694e-05
2.19233e-05
-9.01828e-05
2.96118e-05
-0.000110785
3.87487e-05
-0.000133658
4.94484e-05
-0.000158998
6.18288e-05
-0.000187012
7.6011e-05
-0.00021792
9.2118e-05
-0.000251954
0.000110274
-0.000289356
0.000130604
-0.000330381
0.000153228
-0.000375291
-0.000424359
3.70305e-07
-5.18765e-06
1.52257e-06
-1.6391e-05
3.53625e-06
-2.90149e-05
6.49546e-06
-4.31923e-05
1.04889e-05
-5.90663e-05
1.56098e-05
-7.67903e-05
2.19556e-05
-9.65287e-05
2.9628e-05
-0.000118457
3.87322e-05
-0.000142762
4.93768e-05
-0.000169643
6.1673e-05
-0.000199308
7.57335e-05
-0.000231981
9.16723e-05
-0.000267893
0.000109603
-0.000307286
0.000129636
-0.000350414
0.000151881
-0.000397535
3.7034e-07
-5.55799e-06
1.52117e-06
-1.75418e-05
3.53005e-06
-3.10238e-05
6.47875e-06
-4.6141e-05
1.04531e-05
-6.30407e-05
1.55429e-05
-8.18801e-05
2.18415e-05
-0.000102827
2.94456e-05
-0.000126061
3.84549e-05
-0.000151771
4.89711e-05
-0.000180159
6.10976e-05
-0.000211435
7.49382e-05
-0.000245822
9.05962e-05
-0.000283551
0.000108173
-0.000324863
0.000127767
-0.000370008
-0.000419239
3.67813e-07
-5.9258e-06
1.50922e-06
-1.86832e-05
3.49929e-06
-3.30139e-05
6.41683e-06
-4.90586e-05
1.03442e-05
-6.6968e-05
1.53669e-05
-8.69028e-05
2.15736e-05
-0.000109034
2.90554e-05
-0.000133543
3.79051e-05
-0.000160621
4.82172e-05
-0.000190471
6.00861e-05
-0.000223304
7.36059e-05
-0.000259341
8.88685e-05
-0.000298814
0.000105963
-0.000341958
0.000124972
-0.000389017
-0.00044024
3.62602e-07
-6.2884e-06
1.48624e-06
-1.98069e-05
3.44291e-06
-3.49705e-05
6.30785e-06
-5.19235e-05
1.01592e-05
-7.08194e-05
1.50778e-05
-9.18214e-05
2.11466e-05
-0.000115103
2.84503e-05
-0.000140847
3.70746e-05
-0.000169245
4.71052e-05
-0.000200501
5.86274e-05
-0.000234826
7.17244e-05
-0.000272438
8.64761e-05
-0.000313565
0.000102958
-0.000358439
0.000121238
-0.000407297
0.000141377
-0.000460379
-0.000517923
3.54618e-07
-6.64302e-06
1.45188e-06
-2.09041e-05
3.36017e-06
-3.68788e-05
6.15054e-06
-5.47139e-05
9.89637e-06
-7.45652e-05
1.4673e-05
-9.6598e-05
2.05572e-05
-0.000120987
2.76264e-05
-0.000147916
3.59585e-05
-0.000177577
4.56301e-05
-0.000210173
5.67162e-05
-0.000245912
6.92886e-05
-0.000285011
8.34146e-05
-0.000327691
9.91554e-05
-0.00037418
0.000116564
-0.000424706
0.000135683
-0.000479498
-0.000538785
3.43809e-07
-6.98683e-06
1.40596e-06
-2.19663e-05
3.25067e-06
-3.87235e-05
5.94425e-06
-5.74074e-05
9.55471e-06
-7.81757e-05
1.41513e-05
-0.000101195
1.98039e-05
-0.00012664
2.65824e-05
-0.000154694
3.45558e-05
-0.000185551
4.37912e-05
-0.000219408
5.43529e-05
-0.000256474
6.63006e-05
-0.000296958
7.96885e-05
-0.000341079
9.45632e-05
-0.000389055
0.000110962
-0.000441105
0.000128911
-0.000497448
-0.000558296
3.30161e-07
-7.31699e-06
1.34844e-06
-2.29846e-05
3.11436e-06
-4.04894e-05
5.68897e-06
-5.99821e-05
9.13437e-06
-8.16211e-05
1.35132e-05
-0.000105573
1.88878e-05
-0.000132014
2.532e-05
-0.000161126
3.28694e-05
-0.0001931
4.15931e-05
-0.000228132
5.1544e-05
-0.000266425
6.27697e-05
-0.000308184
7.53107e-05
-0.00035362
8.91991e-05
-0.000402943
0.000104456
-0.000456362
0.000121091
-0.000514082
-0.000576303
3.13694e-07
-7.63069e-06
1.27943e-06
-2.39503e-05
2.95156e-06
-4.21616e-05
5.38537e-06
-6.24159e-05
8.63652e-06
-8.48722e-05
1.27605e-05
-0.000109697
1.78119e-05
-0.000137066
2.38436e-05
-0.000167158
3.09057e-05
-0.000200162
3.90447e-05
-0.000236271
4.83019e-05
-0.000275682
5.87124e-05
-0.000318595
7.0303e-05
-0.000365211
8.3091e-05
-0.000415731
9.70821e-05
-0.000470353
0.000112268
-0.000529269
0.000128626
2.94471e-07
-7.92516e-06
1.1992e-06
-2.4855e-05
2.76293e-06
-4.37253e-05
5.03472e-06
-6.46876e-05
8.06336e-06
1.18968e-05
1.65813e-05
2.21605e-05
2.86748e-05
3.61596e-05
4.46445e-05
5.41519e-05
6.46949e-05
7.62762e-05
8.88859e-05
2.72587e-07
1.10817e-06
2.54946e-06
)
;

boundaryField
{
    inlet
    {
        type            calculated;
        value           nonuniform 0();
    }
    outlet
    {
        type            calculated;
        value           nonuniform 0();
    }
    cylinder
    {
        type            calculated;
        value           uniform 0;
    }
    top
    {
        type            symmetryPlane;
        value           nonuniform 0();
    }
    bottom
    {
        type            symmetryPlane;
        value           nonuniform 0();
    }
    defaultFaces
    {
        type            empty;
        value           nonuniform 0();
    }
    procBoundary20to14
    {
        type            processor;
        value           nonuniform List<scalar> 2(-1.70841e-07 4.38684e-07);
    }
    procBoundary20to25
    {
        type            processor;
        value           nonuniform List<scalar> 
20
(
-0.000592661
-0.0006607
-8.79009e-05
-0.000113531
-0.00014175
-0.000172737
-0.000206677
-0.000243756
-0.000284167
-0.000328102
-0.000375754
-0.000427312
-0.000482963
0.0001025
-0.000542883
-8.19774e-06
-2.56906e-05
-4.51666e-05
4.6389e-06
-6.67771e-05
)
;
    }
    procBoundary20to26
    {
        type            processor;
        value           nonuniform List<scalar> 
28
(
-0.000435328
0.000348233
-0.000428795
0.000317164
-0.000420015
0.000286818
-0.000409169
0.000257427
-0.00039643
0.000229184
-0.000381964
0.000202257
0.000204999
-0.000394143
0.000178382
0.000178897
0.000178268
0.000176439
-0.000448917
0.000149471
0.000145973
0.000495877
0.000163423
0.000156545
0.000148423
0.000139098
0.000643212
0.000146115
)
;
    }
    procBoundary20to27
    {
        type            processor;
        value           nonuniform List<scalar> 
29
(
9.55753e-07
1.8515e-06
2.99065e-06
3.10572e-06
6.37858e-06
8.72747e-06
1.15279e-05
1.4844e-05
1.6269e-05
2.40019e-05
2.95763e-05
3.60147e-05
4.34244e-05
5.19236e-05
5.81355e-05
7.40021e-05
8.68548e-05
0.000101402
0.000117829
0.000127129
0.000158162
0.000181655
0.000207929
0.000237259
0.000244598
0.000305575
0.000345759
0.000390249
0.000379747
)
;
    }
}


// ************************************************************************* //
