/*--------------------------------*- C++ -*----------------------------------*\
  =========                 |
  \\      /  F ield         | OpenFOAM: The Open Source CFD Toolbox
   \\    /   O peration     | Website:  https://openfoam.org
    \\  /    A nd           | Version:  7
     \\/     M anipulation  |
\*---------------------------------------------------------------------------*/
FoamFile
{
    version     2.0;
    format      ascii;
    class       volVectorField;
    location    "1";
    object      U;
}
// * * * * * * * * * * * * * * * * * * * * * * * * * * * * * * * * * * * * * //

dimensions      [0 1 -1 0 0 0 0];

internalField   nonuniform List<vector> 
344
(
(1.59218 -4.35481e-06 -1.10072e-16)
(1.59219 -5.0631e-06 -4.3968e-17)
(1.59221 -5.8875e-06 -7.63372e-16)
(1.59223 -6.84702e-06 -2.01131e-16)
(1.59225 -7.96376e-06 4.05408e-16)
(1.59228 -9.26343e-06 1.16111e-15)
(1.59231 -1.07759e-05 1.22221e-15)
(1.59234 -1.2536e-05 3.55288e-16)
(1.59238 -1.45842e-05 6.08793e-16)
(1.59243 -1.69675e-05 3.76888e-16)
(1.59248 -1.97408e-05 3.72451e-16)
(1.59254 -2.29679e-05 -4.29262e-16)
(1.59261 -2.67229e-05 -9.8298e-17)
(1.5927 -3.10921e-05 6.72993e-16)
(1.5928 -3.61761e-05 9.14914e-16)
(1.59291 -4.20916e-05 8.90641e-16)
(1.59305 -4.89747e-05 5.99847e-16)
(1.5932 -5.69834e-05 -3.2377e-16)
(1.59338 -6.63019e-05 2.64707e-16)
(1.59359 -7.7144e-05 3.05418e-16)
(1.59384 -8.97587e-05 2.27043e-16)
(1.59412 -0.000104435 1.71531e-16)
(1.59445 -0.000121511 1.30249e-15)
(1.59484 -0.000141375 4.30211e-16)
(1.59529 -0.000164485 7.61898e-16)
(1.59581 -0.000191367 6.71861e-17)
(1.59641 -0.000222636 4.7251e-16)
(1.59712 -0.000259004 -2.8727e-17)
(1.59794 -0.000301298 6.94431e-16)
(1.5989 -0.000350478 4.83425e-16)
(1.60001 -0.000407656 9.07424e-16)
(1.6013 -0.000474121 1.46022e-15)
(1.6028 -0.000551363 8.24878e-16)
(1.60455 -0.000641107 1.2627e-15)
(1.60658 -0.000745342 -6.31112e-17)
(1.60895 -0.000866362 3.80572e-16)
(1.61169 -0.0010068 5.95807e-16)
(1.61488 -0.0011697 8.79452e-16)
(1.61859 -0.00135851 1.09176e-15)
(1.62289 -0.00157718 8.80839e-16)
(1.62789 -0.00183022 6.81642e-16)
(1.63368 -0.00212267 1.04296e-15)
(1.6404 -0.00246025 8.63803e-16)
(1.64819 -0.00284928 5.70155e-16)
(1.65721 -0.00329678 7.00792e-16)
(1.66763 -0.00381036 1.01749e-15)
(1.67968 -0.00439821 5.44331e-16)
(1.69357 -0.00506893 1.85932e-15)
(1.70958 -0.00583128 9.93133e-16)
(1.72797 -0.00669388 1.27331e-15)
(1.74906 -0.00766466 7.48454e-16)
(1.77319 -0.00875017 4.3737e-16)
(1.80069 -0.0099547 1.03663e-15)
(1.83193 -0.0112791 6.93047e-16)
(1.86725 -0.0127193 1.29442e-15)
(1.90699 -0.0142649 1.12523e-15)
(1.95145 -0.0158971 2.22117e-15)
(2.00085 -0.0175875 8.39377e-16)
(2.0553 -0.0192959 1.43892e-15)
(2.1148 -0.0209705 8.30705e-16)
(2.17917 -0.0225477 1.12025e-15)
(2.24802 -0.0239542 1.08043e-15)
(2.32074 -0.0251112 8.05628e-16)
(2.39648 -0.0259404 1.26643e-15)
(2.47416 -0.0263726 1.47222e-15)
(2.55253 -0.0263562 1.7242e-15)
(1.59164 -1.01122e-05 -2.00384e-15)
(1.59166 -1.17569e-05 3.09631e-16)
(1.59167 -1.36711e-05 -1.65624e-15)
(1.59169 -1.58992e-05 9.78332e-17)
(1.59171 -1.84923e-05 1.06421e-15)
(1.59174 -2.15101e-05 1.95222e-15)
(1.59177 -2.50222e-05 2.75781e-15)
(1.5918 -2.91091e-05 5.29714e-17)
(1.59184 -3.3865e-05 1.71312e-15)
(1.59188 -3.93992e-05 -8.24468e-16)
(1.59194 -4.58389e-05 1.33621e-15)
(1.592 -5.33322e-05 -8.26972e-16)
(1.59207 -6.20514e-05 9.11154e-16)
(1.59216 -7.21969e-05 1.79185e-15)
(1.59225 -8.4002e-05 2.86552e-15)
(1.59237 -9.7738e-05 -8.45918e-17)
(1.5925 -0.000113721 2.0035e-15)
(1.59265 -0.000132317 -3.94208e-16)
(1.59283 -0.000153955 1.60565e-15)
(1.59304 -0.000179131 -2.96622e-16)
(1.59328 -0.000208423 9.42556e-16)
(1.59356 -0.000242502 1.94166e-15)
(1.59389 -0.000282152 2.86551e-15)
(1.59427 -0.000328279 3.1899e-16)
(1.59471 -0.000381941 2.23151e-15)
(1.59523 -0.000444364 6.72199e-17)
(1.59583 -0.000516973 1.58369e-15)
(1.59653 -0.000601424 -2.56617e-16)
(1.59734 -0.000699638 1.47981e-15)
(1.59829 -0.000813843 2.33427e-15)
(1.59939 -0.000946623 2.641e-15)
(1.60066 -0.00110097 3.66404e-15)
(1.60215 -0.00128035 1.17363e-15)
(1.60388 -0.00148877 2.66125e-15)
(1.60589 -0.00173086 5.24273e-16)
(1.60823 -0.00201194 2.27608e-15)
(1.61094 -0.00233814 1.01012e-16)
(1.6141 -0.00271652 1.83674e-15)
(1.61777 -0.00315512 2.93232e-15)
(1.62203 -0.00366315 3.97595e-15)
(1.62697 -0.00425105 1.11315e-15)
(1.63271 -0.00493064 2.87111e-15)
(1.63937 -0.00571519 8.97183e-16)
(1.64708 -0.00661949 2.45506e-15)
(1.65601 -0.00765989 7.59919e-16)
(1.66634 -0.00885422 1.91586e-15)
(1.67827 -0.0102216 2.56292e-15)
(1.69205 -0.0117823 3.7392e-15)
(1.70792 -0.013557 1.42701e-15)
(1.72616 -0.0155659 3.15913e-15)
(1.7471 -0.0178279 1.1508e-15)
(1.77106 -0.0203589 3.02083e-15)
(1.7984 -0.0231693 1.27506e-15)
(1.82947 -0.0262618 2.59472e-15)
(1.86464 -0.0296279 3.10904e-15)
(1.90424 -0.033244 3.3271e-15)
(1.9486 -0.0370672 4.52156e-15)
(1.99793 -0.0410315 2.26719e-15)
(2.05238 -0.0450435 3.55561e-15)
(2.11196 -0.0489822 1.67794e-15)
(2.1765 -0.0526968 3.08081e-15)
(2.24563 -0.056015 2.13513e-15)
(2.31873 -0.0587484 3.05914e-15)
(2.39494 -0.0607105 3.47993e-15)
(2.47318 -0.0617354 4.12172e-15)
(2.55216 -0.0616986 3.60995e-15)
(1.59039 -1.62767e-05 3.40633e-15)
(1.5904 -1.89237e-05 3.9522e-15)
(1.59042 -2.20047e-05 3.78233e-15)
(1.59044 -2.55908e-05 3.56958e-15)
(1.59046 -2.97646e-05 3.87155e-15)
(1.59048 -3.4622e-05 4.37806e-15)
(1.59051 -4.02748e-05 4.98836e-15)
(1.59054 -4.6853e-05 4.69474e-15)
(1.59058 -5.45078e-05 5.13491e-15)
(1.59063 -6.34153e-05 4.74445e-15)
(1.59068 -7.37803e-05 5.28302e-15)
(1.59074 -8.58412e-05 4.92168e-15)
(1.59081 -9.98752e-05 4.87835e-15)
(1.59089 -0.000116205 5.12946e-15)
(1.59099 -0.000135206 5.63836e-15)
(1.5911 -0.000157315 5.18532e-15)
(1.59122 -0.00018304 5.60703e-15)
(1.59137 -0.000212973 5.35767e-15)
(1.59155 -0.0002478 5.54087e-15)
(1.59175 -0.000288323 5.66965e-15)
(1.59199 -0.00033547 5.52615e-15)
(1.59226 -0.000390325 5.90902e-15)
(1.59258 -0.000454146 6.19106e-15)
(1.59295 -0.000528394 6.00003e-15)
(1.59339 -0.000614771 6.22555e-15)
(1.59389 -0.000715252 5.96366e-15)
(1.59448 -0.000832132 6.02454e-15)
(1.59516 -0.000968077 5.9478e-15)
(1.59595 -0.00112618 5.7948e-15)
(1.59687 -0.00131004 5.89574e-15)
(1.59795 -0.0015238 5.99478e-15)
(1.5992 -0.0017723 6.44576e-15)
(1.60065 -0.00206113 6.40225e-15)
(1.60234 -0.00239673 6.387e-15)
(1.6043 -0.00278657 6.3237e-15)
(1.60658 -0.00323925 6.55833e-15)
(1.60924 -0.00376468 6.18729e-15)
(1.61232 -0.00437422 6.36199e-15)
(1.6159 -0.00508091 6.69675e-15)
(1.62007 -0.00589963 6.99368e-15)
(1.6249 -0.00684731 6.68384e-15)
(1.63051 -0.0079431 6.81902e-15)
(1.63702 -0.00920855 6.41931e-15)
(1.64456 -0.0106678 6.81578e-15)
(1.6533 -0.0123474 6.53905e-15)
(1.66342 -0.0142766 6.41027e-15)
(1.67512 -0.016487 6.74776e-15)
(1.68863 -0.0190116 7.12108e-15)
(1.7042 -0.021885 6.97981e-15)
(1.72213 -0.0251412 7.17165e-15)
(1.74273 -0.0288122 6.68666e-15)
(1.76633 -0.0329255 7.10359e-15)
(1.79329 -0.0375005 6.92186e-15)
(1.82399 -0.0425443 6.73251e-15)
(1.85881 -0.048046 6.784e-15)
(1.8981 -0.0539705 6.69738e-15)
(1.94221 -0.0602512 7.07508e-15)
(1.9914 -0.0667833 6.94328e-15)
(2.04585 -0.0734157 7.281e-15)
(2.10559 -0.0799506 7.17775e-15)
(2.1705 -0.0861373 7.20051e-15)
(2.24022 -0.091688 7.12699e-15)
(2.31415 -0.0962818 7.20975e-15)
(2.39143 -0.0995997 7.28396e-15)
(2.47092 -0.101353 7.54047e-15)
(2.55125 -0.101323 7.41483e-15)
(1.58829 -2.22343e-05 7.44618e-15)
(1.58831 -2.58499e-05 7.78742e-15)
(1.58832 -3.00584e-05 7.97011e-15)
(1.58834 -3.49569e-05 6.48528e-15)
(1.58836 -4.06581e-05 7.18913e-15)
(1.58838 -4.72931e-05 7.46065e-15)
(1.58841 -5.50147e-05 7.94629e-15)
(1.58844 -6.40003e-05 8.22652e-15)
(1.58848 -7.44566e-05 8.55553e-15)
(1.58852 -8.66241e-05 8.66382e-15)
(1.58857 -0.000100783 8.8535e-15)
(1.58863 -0.000117257 8.9793e-15)
(1.5887 -0.000136428 8.84151e-15)
(1.58878 -0.000158734 9.0403e-15)
(1.58887 -0.000184689 9.24616e-15)
(1.58897 -0.00021489 9.25622e-15)
(1.5891 -0.00025003 9.42321e-15)
(1.58924 -0.000290918 9.51633e-15)
(1.58941 -0.000338493 9.60346e-15)
(1.58961 -0.000393847 9.68535e-15)
(1.58983 -0.000458252 9.77041e-15)
(1.5901 -0.000533187 9.79731e-15)
(1.59041 -0.00062037 1.00353e-14)
(1.59076 -0.0007218 9.94029e-15)
(1.59118 -0.000839801 9.97218e-15)
(1.59167 -0.000977074 9.98582e-15)
(1.59223 -0.00113675 1.01862e-14)
(1.59289 -0.00132249 1.02574e-14)
(1.59365 -0.00153851 8.90996e-15)
(1.59454 -0.00178972 9.28857e-15)
(1.59557 -0.00208183 9.49079e-15)
(1.59678 -0.00242142 9.87659e-15)
(1.59818 -0.00281615 1.01141e-14)
(1.5998 -0.00327487 1.03315e-14)
(1.6017 -0.00380779 1.03068e-14)
(1.6039 -0.00442671 1.04457e-14)
(1.60646 -0.00514522 1.039e-14)
(1.60943 -0.00597894 1.04798e-14)
(1.61289 -0.0069458 1.04532e-14)
(1.6169 -0.00806627 1.07618e-14)
(1.62157 -0.00936371 1.07314e-14)
(1.62699 -0.0108646 1.07777e-14)
(1.63327 -0.0125987 1.07086e-14)
(1.64057 -0.0145996 1.06601e-14)
(1.64902 -0.0169044 1.06739e-14)
(1.65881 -0.019554 1.07425e-14)
(1.67015 -0.0225927 1.06535e-14)
(1.68325 -0.0260676 1.07504e-14)
(1.69838 -0.0300279 1.06482e-14)
(1.71582 -0.034523 1.06331e-14)
(1.73589 -0.0396002 1.06796e-14)
(1.75893 -0.0453014 1.07394e-14)
(1.78531 -0.0516584 1.09274e-14)
(1.81543 -0.0586867 9.58569e-15)
(1.84969 -0.066378 9.97094e-15)
(1.88848 -0.0746909 9.98417e-15)
(1.93218 -0.08354 1.0136e-14)
(1.98111 -0.0927857 1.02774e-14)
(2.0355 -0.102221 1.03355e-14)
(2.09545 -0.11157 1.03184e-14)
(2.16089 -0.120475 1.02928e-14)
(2.2315 -0.12852 1.02059e-14)
(2.30672 -0.135228 1.01517e-14)
(2.38564 -0.140124 1.00837e-14)
(2.46708 -0.142761 1.00925e-14)
(2.54955 -0.142796 9.86801e-15)
(1.58511 -2.78169e-05 6.05539e-15)
(1.58512 -3.23399e-05 6.30309e-15)
(1.58513 -3.76048e-05 6.37095e-15)
(1.58515 -4.3733e-05 6.13077e-15)
(1.58517 -5.08653e-05 6.22954e-15)
(1.58519 -5.91659e-05 6.4439e-15)
(1.58522 -6.88258e-05 6.8019e-15)
(1.58525 -8.00672e-05 6.82497e-15)
(1.58528 -9.31484e-05 7.20375e-15)
(1.58532 -0.00010837 7.1906e-15)
(1.58537 -0.000126083 7.53486e-15)
(1.58543 -0.000146694 7.55905e-15)
(1.58549 -0.000170677 7.69397e-15)
(1.58557 -0.000198583 7.87467e-15)
(1.58565 -0.000231054 8.11726e-15)
(1.58575 -0.000268837 8.03552e-15)
(1.58587 -0.000312799 8.22633e-15)
(1.58601 -0.000363953 8.15675e-15)
(1.58617 -0.000423472 8.34233e-15)
(1.58635 -0.000492726 8.31094e-15)
(1.58657 -0.000573304 8.35978e-15)
(1.58682 -0.000667056 8.53642e-15)
(1.58711 -0.000776135 8.71722e-15)
(1.58745 -0.000903042 8.69023e-15)
(1.58785 -0.00105069 8.79841e-15)
(1.58831 -0.00122245 8.83144e-15)
(1.58885 -0.00142226 8.92845e-15)
(1.58947 -0.00165468 8.97395e-15)
(1.5902 -0.00192501 8.63294e-15)
(1.59104 -0.00223941 8.61659e-15)
(1.59202 -0.00260501 8.72157e-15)
(1.59317 -0.00303009 8.96894e-15)
(1.5945 -0.00352426 8.98982e-15)
(1.59604 -0.0040986 9.17678e-15)
(1.59784 -0.00476596 9.28343e-15)
(1.59993 -0.00554118 9.35062e-15)
(1.60237 -0.00644135 9.25776e-15)
(1.6052 -0.00748616 9.38636e-15)
(1.60848 -0.00869822 9.48282e-15)
(1.61231 -0.0101034 9.74204e-15)
(1.61675 -0.0117314 9.66286e-15)
(1.62191 -0.0136156 9.80668e-15)
(1.6279 -0.0157942 9.66357e-15)
(1.63486 -0.0183099 9.73694e-15)
(1.64293 -0.0212104 9.5703e-15)
(1.65229 -0.0245486 9.6501e-15)
(1.66314 -0.0283819 9.62567e-15)
(1.6757 -0.0327724 9.72001e-15)
(1.69022 -0.0377851 9.61363e-15)
(1.70699 -0.0434868 9.5676e-15)
(1.72634 -0.0499427 9.58887e-15)
(1.74861 -0.0572128 9.60356e-15)
(1.77419 -0.0653458 9.60599e-15)
(1.80349 -0.0743719 9.26404e-15)
(1.83695 -0.0842924 9.19351e-15)
(1.87501 -0.0950677 9.26961e-15)
(1.91809 -0.106602 9.39304e-15)
(1.96659 -0.118728 9.30162e-15)
(2.02083 -0.131189 9.42288e-15)
(2.08098 -0.143633 9.32128e-15)
(2.14706 -0.155581 9.33968e-15)
(2.21883 -0.166485 9.168e-15)
(2.29576 -0.175668 9.13702e-15)
(2.37693 -0.18247 9.05903e-15)
(2.46109 -0.18623 9.08776e-15)
(2.54659 -0.186428 8.84998e-15)
(2.63079 -0.025864 1.46461e-15)
(2.70749 -0.0248932 1.23174e-15)
(2.7806 -0.0234953 1.38104e-15)
(2.63104 -0.0605357 3.72578e-15)
(2.70832 -0.0582387 2.72429e-15)
(2.78194 -0.0549332 3.53859e-15)
(2.63153 -0.0993942 7.74102e-15)
(2.71011 -0.0955505 7.96395e-15)
(2.78483 -0.0900094 7.61301e-15)
(2.85436 -0.0831232 7.67768e-15)
(2.63202 -0.140048 9.80784e-15)
(2.71266 -0.13448 9.52541e-15)
(2.78911 -0.126424 9.11134e-15)
(2.85988 -0.116435 9.07462e-15)
)
;

boundaryField
{
    inlet
    {
        type            uniformFixedValue;
        uniformValue    constant (1 0 0);
        value           nonuniform 0();
    }
    outlet
    {
        type            pressureInletOutletVelocity;
        value           nonuniform 0();
    }
    wall
    {
        type            fixedValue;
        value           nonuniform 0();
    }
    wedge1
    {
        type            wedge;
    }
    wedge2
    {
        type            wedge;
    }
    axis
    {
        type            empty;
    }
    procBoundary2to1
    {
        type            processor;
        value           nonuniform List<vector> 5((1.59217 -3.74638e-06 -5.93625e-17) (1.59163 -8.69944e-06 1.76407e-16) (1.59038 -1.40028e-05 3.66539e-15) (1.58828 -1.91283e-05 7.39678e-15) (1.5851 -2.39315e-05 5.99799e-15));
    }
    procBoundary2to3
    {
        type            processor;
        value           nonuniform List<vector> 5((2.84894 -0.0217519 1.36372e-15) (2.85065 -0.0508182 3.70298e-15) (2.85065 -0.0508182 3.70298e-15) (2.91773 -0.0753307 7.49744e-15) (2.92396 -0.105191 8.71694e-15));
    }
    procBoundary2to8
    {
        type            processor;
        value           nonuniform List<vector> 
71
(
(1.58048 -3.29031e-05 5.18127e-15)
(1.58049 -3.82526e-05 5.8587e-15)
(1.5805 -4.44798e-05 5.5015e-15)
(1.58052 -5.1728e-05 5.33632e-15)
(1.58053 -6.0164e-05 6.07876e-15)
(1.58055 -6.9982e-05 6.49659e-15)
(1.58058 -8.14077e-05 7.02401e-15)
(1.58061 -9.47039e-05 6.43208e-15)
(1.58064 -0.000110176 6.98238e-15)
(1.58068 -0.000128181 6.45959e-15)
(1.58072 -0.000149132 7.27153e-15)
(1.58077 -0.00017351 6.72115e-15)
(1.58083 -0.000201877 7.27127e-15)
(1.5809 -0.000234885 7.61251e-15)
(1.58099 -0.000273292 8.09697e-15)
(1.58108 -0.000317982 7.38563e-15)
(1.58119 -0.000369983 7.92914e-15)
(1.58132 -0.000430489 7.28473e-15)
(1.58147 -0.000500892 7.93652e-15)
(1.58164 -0.000582809 7.27244e-15)
(1.58184 -0.000678122 7.87831e-15)
(1.58208 -0.000789022 8.21019e-15)
(1.58235 -0.000918054 8.62725e-15)
(1.58267 -0.00106818 7.85629e-15)
(1.58304 -0.00124284 8.47116e-15)
(1.58347 -0.00144604 7.89079e-15)
(1.58397 -0.00168243 8.50009e-15)
(1.58456 -0.00195743 8.07238e-15)
(1.58523 -0.00227729 7.72544e-15)
(1.58602 -0.00264933 8.24244e-15)
(1.58694 -0.00308201 8.62095e-15)
(1.58801 -0.00358514 9.04294e-15)
(1.58926 -0.00417011 8.45192e-15)
(1.5907 -0.00485011 8.94702e-15)
(1.59239 -0.0056404 8.40949e-15)
(1.59434 -0.00655863 8.97067e-15)
(1.59662 -0.00762517 8.49427e-15)
(1.59927 -0.00886351 8.95028e-15)
(1.60235 -0.0103007 9.26099e-15)
(1.60594 -0.0119677 9.5857e-15)
(1.6101 -0.0138999 8.81848e-15)
(1.61495 -0.016138 9.34258e-15)
(1.62058 -0.0187278 8.69326e-15)
(1.62712 -0.0217212 9.26177e-15)
(1.63471 -0.0251764 8.64773e-15)
(1.64353 -0.0291582 9.01291e-15)
(1.65377 -0.033738 9.16038e-15)
(1.66564 -0.0389932 9.48996e-15)
(1.67939 -0.0450064 8.71273e-15)
(1.69532 -0.0518636 9.13377e-15)
(1.71373 -0.0596512 8.57583e-15)
(1.735 -0.0684517 9.05861e-15)
(1.75953 -0.078337 8.60059e-15)
(1.78775 -0.0893594 8.18124e-15)
(1.82012 -0.101539 8.59375e-15)
(1.85716 -0.114851 8.79056e-15)
(1.89935 -0.1292 9.02917e-15)
(1.94718 -0.144406 8.27434e-15)
(2.00107 -0.160168 8.71673e-15)
(2.06134 -0.176068 8.16493e-15)
(2.1281 -0.191496 8.39493e-15)
(2.20125 -0.205763 7.93794e-15)
(2.28031 -0.217927 8.01879e-15)
(2.36439 -0.227125 7.96015e-15)
(2.45215 -0.232365 7.92131e-15)
(2.54168 -0.23289 7.57894e-15)
(2.63216 -0.182792 9.0518e-15)
(2.63216 -0.182792 9.0518e-15)
(2.71572 -0.175242 8.8116e-15)
(2.79457 -0.164259 8.48812e-15)
(2.86701 -0.150693 8.44491e-15)
)
;
    }
}


// ************************************************************************* //
