/*--------------------------------*- C++ -*----------------------------------*\
  =========                 |
  \\      /  F ield         | OpenFOAM: The Open Source CFD Toolbox
   \\    /   O peration     | Website:  https://openfoam.org
    \\  /    A nd           | Version:  7
     \\/     M anipulation  |
\*---------------------------------------------------------------------------*/
FoamFile
{
    version     2.0;
    format      ascii;
    class       volVectorField;
    location    "17.999464";
    object      U;
}
// * * * * * * * * * * * * * * * * * * * * * * * * * * * * * * * * * * * * * //

dimensions      [0 1 -1 0 0 0 0];

internalField   nonuniform List<vector> 
23200
(
(-0.00035204 0.000426709 -1.73105e-21)
(-0.00191186 0.00104278 -6.72298e-21)
(-0.00499741 0.00146432 1.26294e-21)
(-0.00898405 0.00171855 4.94262e-21)
(-0.0134777 0.00182641 2.16103e-21)
(-0.0181689 0.00180696 -5.39297e-21)
(-0.0227524 0.00167838 -1.74528e-21)
(-0.0269469 0.00145736 -7.06755e-22)
(-0.0304996 0.00115885 -6.47307e-21)
(-0.0331847 0.000796063 -1.23736e-21)
(-0.0348018 0.000380584 -7.4104e-21)
(-0.0351752 -7.73087e-05 7.6585e-22)
(-0.0341528 -0.00056795 -2.4757e-21)
(-0.0316088 -0.00108105 4.39786e-21)
(-0.0274497 -0.00160371 -5.55244e-21)
(-0.0216272 -0.00211738 -5.86744e-21)
(-0.0141623 -0.00259321 -1.68313e-21)
(-0.00521016 -0.00298684 8.91746e-21)
(0.00490867 -0.00324683 -7.41955e-21)
(0.0159563 -0.00328743 -4.30686e-22)
(-0.000412934 0.00127002 -1.50771e-21)
(-0.0020395 0.00310248 -4.76139e-21)
(-0.00512656 0.0043555 4.21059e-21)
(-0.00906 0.00510989 1.02007e-20)
(-0.0134509 0.00542798 1.8186e-21)
(-0.0179932 0.00536661 3.49998e-22)
(-0.0223852 0.00498005 -3.75571e-21)
(-0.0263482 0.00431807 2.04582e-21)
(-0.0296318 0.00342532 -1.19761e-20)
(-0.0320121 0.00234127 7.5946e-21)
(-0.0332902 0.00110053 2.74696e-20)
(-0.0332912 -0.000266194 -4.59907e-21)
(-0.0318639 -0.00173006 6.71401e-21)
(-0.0288828 -0.00326051 -4.07812e-21)
(-0.0242542 -0.00481909 1.03187e-20)
(-0.0179293 -0.00635061 -1.17232e-21)
(-0.00992768 -0.00776907 5.60472e-21)
(-0.000411122 -0.00894188 -3.32759e-20)
(0.0102971 -0.00971264 3.29583e-21)
(0.0221011 -0.00981596 -1.32275e-20)
(-0.000532039 0.00208328 8.27246e-21)
(-0.00228798 0.00508529 9.04587e-21)
(-0.00537525 0.00713521 -2.079e-21)
(-0.00920034 0.00836497 -4.71346e-21)
(-0.0133846 0.00887693 -1.85859e-21)
(-0.0176286 0.00876468 6.85909e-21)
(-0.0216372 0.00811765 1.02864e-20)
(-0.0251374 0.00701794 -2.30347e-20)
(-0.0278834 0.00553926 6.58093e-21)
(-0.029655 0.00374685 -8.51296e-21)
(-0.0302561 0.00169791 -1.45126e-20)
(-0.0295139 -0.000556864 -2.77384e-21)
(-0.0272786 -0.00296992 -4.44513e-21)
(-0.0234252 -0.00549102 -9.97885e-21)
(-0.0178603 -0.00805725 1.12037e-20)
(-0.0105341 -0.0105781 -1.07127e-20)
(-0.00146344 -0.0129118 1.33741e-21)
(0.00917715 -0.0148391 3.26416e-20)
(0.0210561 -0.016094 -2.24953e-20)
(0.0343642 -0.0162039 1.96137e-20)
(-0.000704066 0.00284733 -6.08218e-21)
(-0.00264392 0.00694205 1.21314e-20)
(-0.00572442 0.00973206 -1.77039e-20)
(-0.00938214 0.0113965 8.36281e-21)
(-0.0132533 0.0120754 -4.6536e-20)
(-0.0170481 0.0118974 -2.89856e-20)
(-0.0204812 0.0109859 1.85931e-20)
(-0.0232878 0.00945379 4.54469e-20)
(-0.0252289 0.00740298 -1.89288e-20)
(-0.0260896 0.0049236 -1.30582e-20)
(-0.025678 0.00209474 -1.85136e-20)
(-0.0238246 -0.00101352 3.78516e-20)
(-0.0203816 -0.00433572 4.62187e-20)
(-0.0152253 -0.00780294 -3.63135e-20)
(-0.00826269 -0.0113295 -2.90982e-20)
(0.000556936 -0.0147917 1.0444e-20)
(0.0112203 -0.0179943 -2.32508e-20)
(0.0235341 -0.0206342 -1.25453e-21)
(0.0371484 -0.0223304 3.69438e-20)
(0.052691 -0.0223521 6.30856e-21)
(-0.000921277 0.00354427 2.43887e-20)
(-0.00308764 0.00862673 8.14851e-21)
(-0.00614602 0.012079 2.84421e-20)
(-0.00957154 0.0141222 -8.80541e-21)
(-0.0130194 0.014931 4.55625e-20)
(-0.0162123 0.0146672 2.79546e-20)
(-0.0188771 0.0134855 -3.41998e-20)
(-0.0207597 0.0115285 -4.42438e-20)
(-0.0216299 0.00892474 4.09359e-20)
(-0.02128 0.00578812 -1.16413e-20)
(-0.0195235 0.00221875 1.71254e-20)
(-0.0161951 -0.00169478 -6.76645e-20)
(-0.0111501 -0.00587011 2.31994e-20)
(-0.00426686 -0.0102211 8.17635e-21)
(0.0045465 -0.0146412 4.84623e-21)
(0.0153411 -0.0189768 1.77484e-20)
(0.0281072 -0.0229826 4.51013e-20)
(0.042627 -0.0262757 1.06311e-21)
(0.0585162 -0.0283541 -1.28582e-20)
(0.0769955 -0.0281543 -1.66934e-20)
(-0.0011737 0.00415794 1.704e-20)
(-0.0035937 0.0100975 8.89573e-21)
(-0.00660359 0.014115 -4.63578e-20)
(-0.00972436 0.016467 -2.83069e-20)
(-0.0126336 0.0173594 -1.12183e-20)
(-0.0150688 0.0169843 3.81171e-20)
(-0.0167715 0.0155257 4.57621e-20)
(-0.0175004 0.0131535 -5.79236e-21)
(-0.0170358 0.0100212 -1.10748e-20)
(-0.0151786 0.00626529 -9.59703e-21)
(-0.0117493 0.00200568 -3.06275e-20)
(-0.00658792 -0.00265151 6.99358e-20)
(0.000446079 -0.00760811 -6.15206e-22)
(0.00947126 -0.0127623 -2.68418e-20)
(0.020577 -0.0179894 -1.82049e-21)
(0.0338132 -0.0231097 5.50435e-21)
(0.0491732 -0.0278326 1.5813e-20)
(0.0664091 -0.0317009 -5.82226e-20)
(0.0850783 -0.0340877 2.62708e-20)
(0.107155 -0.0334952 -6.56169e-21)
(-0.0014494 0.00467422 -2.86712e-20)
(-0.00413147 0.0113176 1.73873e-20)
(-0.00705302 0.015786 2.1161e-20)
(-0.00978688 0.0183644 1.83309e-20)
(-0.0120357 0.0192858 4.04522e-20)
(-0.0135537 0.0187696 6.02234e-21)
(-0.0140989 0.0170263 -5.7671e-21)
(-0.0134446 0.0142508 1.76924e-20)
(-0.0113834 0.0106198 -2.70678e-20)
(-0.00772623 0.00629064 -2.96296e-21)
(-0.0023017 0.00140184 1.29315e-20)
(0.00504356 -0.00392421 -5.92659e-20)
(0.0144444 -0.00957446 -1.92121e-20)
(0.0260147 -0.0154333 1.81074e-20)
(0.0398393 -0.0213608 -4.27038e-20)
(0.0559644 -0.0271554 4.70403e-20)
(0.0743846 -0.0324876 5.7537e-21)
(0.0948162 -0.0368337 -6.83971e-21)
(0.116726 -0.0394417 -7.07707e-20)
(0.143007 -0.0382486 4.0431e-20)
(-0.0017348 0.00508138 -1.1613e-20)
(-0.00466584 0.0122561 -1.28938e-20)
(-0.00744344 0.0170466 -6.24833e-20)
(-0.00969673 0.0197583 -2.83758e-20)
(-0.0111555 0.0206469 -9.75116e-20)
(-0.0115919 0.0199561 -8.17271e-21)
(-0.0107819 0.01792 -4.96162e-20)
(-0.00851521 0.0147558 -3.56663e-20)
(-0.00459789 0.0106612 7.88929e-20)
(0.00114782 0.00581281 1.31194e-20)
(0.00888358 0.000366326 3.36633e-20)
(0.0187546 -0.00554053 4.18531e-20)
(0.0308887 -0.0117813 -1.4867e-20)
(0.0453924 -0.0182281 -4.70135e-20)
(0.0623433 -0.0247287 4.25516e-20)
(0.0817799 -0.0310652 3.9248e-20)
(0.103694 -0.0368758 -3.82493e-20)
(0.127762 -0.0415815 5.28466e-20)
(0.153317 -0.0443122 7.97124e-20)
(0.184335 -0.042278 2.18057e-20)
(-0.00201497 0.00537023 3.04638e-20)
(-0.00515798 0.0128887 3.89303e-20)
(-0.00771814 0.0178604 1.92063e-20)
(-0.00938399 0.0206036 4.89393e-20)
(-0.00991373 0.0213923 2.28308e-20)
(-0.00909806 0.020491 6.14627e-20)
(-0.00673246 0.0181542 5.34424e-20)
(-0.00262385 0.014619 -2.14922e-20)
(0.00340682 0.0101016 -3.43728e-20)
(0.0115246 0.00479605 6.26831e-20)
(0.0218801 -0.00112608 -3.90665e-20)
(0.0346086 -0.0075128 2.8783e-20)
(0.049828 -0.0142255 3.86438e-20)
(0.0676351 -0.0211256 4.20236e-20)
(0.0880959 -0.0280516 -1.2326e-19)
(0.111235 -0.0347744 -5.67838e-20)
(0.137037 -0.0409087 -1.46823e-20)
(0.165132 -0.0458337 6.33569e-20)
(0.194671 -0.0485792 -1.34283e-19)
(0.230864 -0.045437 -4.93167e-20)
(-0.00227402 0.00553426 4.61618e-20)
(-0.00556613 0.0131977 -5.8065e-20)
(-0.00781563 0.0182013 -6.23847e-20)
(-0.00877226 0.020868 -6.55846e-20)
(-0.00822314 0.0214859 -4.1224e-20)
(-0.00597804 0.020337 -9.86081e-21)
(-0.00185257 0.0176931 -6.8583e-20)
(0.00432803 0.0138082 8.61378e-20)
(0.0127269 0.00891487 2.48175e-20)
(0.0234948 0.00322266 2.45441e-20)
(0.0367698 -0.00308241 -9.94771e-20)
(0.0526747 -0.00983539 1.53693e-20)
(0.0713149 -0.0168863 -1.18423e-20)
(0.0927729 -0.0240876 -4.51308e-21)
(0.117098 -0.0312708 -4.70457e-20)
(0.144293 -0.0382014 5.97131e-20)
(0.174326 -0.0444799 -1.30674e-20)
(0.206777 -0.0494605 -1.43015e-19)
(0.240556 -0.0521053 1.95986e-20)
(0.282243 -0.0475704 9.25471e-20)
(-0.00249537 0.00556962 3.36443e-20)
(-0.00584631 0.0131724 -1.12122e-20)
(-0.00767069 0.0180533 6.53693e-20)
(-0.00777988 0.0205321 3.31702e-20)
(-0.00598999 0.0209066 4.86791e-20)
(-0.00212993 0.0194736 4.9589e-21)
(0.00396411 0.0165188 9.3332e-20)
(0.0124477 0.0123103 -8.51244e-20)
(0.023467 0.00709475 -3.85012e-20)
(0.0371571 0.00109517 -1.52038e-20)
(0.053641 -0.00548948 9.91973e-20)
(0.0730265 -0.0124824 -1.73435e-20)
(0.0954022 -0.0197232 1.42856e-20)
(0.120831 -0.0270563 5.99463e-20)
(0.149338 -0.0343089 5.68899e-20)
(0.180895 -0.0412464 -9.79871e-20)
(0.215442 -0.0474653 -5.36083e-20)
(0.252502 -0.0523135 2.72699e-20)
(0.290688 -0.054736 8.54481e-20)
(0.338038 -0.0485179 -1.07851e-20)
(-0.00266207 0.00547513 -4.43697e-20)
(-0.00595313 0.0128092 -2.59407e-20)
(-0.00721528 0.017411 -3.69394e-20)
(-0.00632119 0.0195897 -3.57689e-20)
(-0.00311532 0.0196494 4.15739e-20)
(0.00255435 0.0178982 -8.04203e-20)
(0.0108308 0.0146331 7.94969e-20)
(0.0218496 0.0101331 5.64215e-21)
(0.0357387 0.00465669 -6.83141e-20)
(0.0526156 -0.0015616 -1.56852e-20)
(0.0725858 -0.00831149 -6.34649e-20)
(0.0957382 -0.0154054 2.92809e-20)
(0.12214 -0.0226736 -1.9765e-20)
(0.151826 -0.0299534 -1.16669e-19)
(0.184789 -0.0370696 5.57543e-21)
(0.220958 -0.0437922 3.48145e-20)
(0.260227 -0.0497245 7.5455e-20)
(0.302059 -0.0542288 1.31642e-19)
(0.344712 -0.0563014 2.10303e-20)
(0.397717 -0.048119 -1.29231e-19)
(-0.002757 0.00525214 -6.26681e-20)
(-0.00584043 0.0121113 -9.89093e-21)
(-0.00637974 0.0162794 1.31274e-19)
(-0.00430771 0.0180486 -6.03995e-20)
(0.000503552 0.0177255 3.20328e-21)
(0.00818732 0.0156269 -5.90077e-20)
(0.0188654 0.012058 -5.6717e-20)
(0.0326528 0.0073063 9.99644e-21)
(0.0496575 0.00163927 3.04558e-20)
(0.0699773 -0.00469893 1.12078e-19)
(0.0936967 -0.0114884 -3.55322e-20)
(0.120881 -0.0185321 -1.50993e-19)
(0.151568 -0.0256518 1.06754e-19)
(0.185759 -0.0326788 9.11243e-20)
(0.2234 -0.0394372 5.86123e-20)
(0.264363 -0.045706 1.45582e-19)
(0.308478 -0.0511046 -4.54863e-20)
(0.355135 -0.055032 -2.06154e-19)
(0.402199 -0.0566204 3.32064e-20)
(0.460642 -0.0462196 3.66886e-20)
(-0.00276315 0.00490431 -3.31446e-20)
(-0.00546184 0.0110884 4.47963e-20)
(-0.00509359 0.0146739 -4.62656e-20)
(-0.00164954 0.0159301 7.39892e-20)
(0.00497141 0.0151626 -8.62259e-20)
(0.014884 0.0126948 8.00691e-20)
(0.0281886 0.00883693 1.52873e-20)
(0.0449785 0.00388237 -8.7191e-20)
(0.06534 -0.00189478 7.32445e-20)
(0.0893481 -0.00824301 -7.90491e-20)
(0.117062 -0.0149346 9.76438e-20)
(0.148516 -0.0217649 5.2383e-20)
(0.183714 -0.0285483 4.24464e-20)
(0.222608 -0.0351112 -6.27173e-20)
(0.265087 -0.0412787 -9.38228e-21)
(0.310948 -0.046842 -7.6357e-20)
(0.359931 -0.0514456 5.042e-20)
(0.411344 -0.0545463 7.89695e-22)
(0.462641 -0.055507 -8.52647e-20)
(0.526066 -0.04268 3.68205e-20)
(-0.00266375 0.00443748 7.74629e-21)
(-0.00477136 0.00975618 2.92451e-20)
(-0.00328646 0.0126197 6.57986e-21)
(0.00174342 0.0132687 2.51812e-20)
(0.0103934 0.012005 5.93773e-20)
(0.0227597 0.00915599 5.64522e-20)
(0.0389208 0.00503452 4.09176e-20)
(0.0589469 -6.28953e-05 5.14006e-20)
(0.0828998 -0.00585805 -1.03136e-19)
(0.110828 -0.0120946 -1.5716e-20)
(0.142759 -0.0185392 -1.62202e-19)
(0.178692 -0.0249814 -5.00302e-20)
(0.218581 -0.0312304 -5.61513e-20)
(0.262321 -0.0371097 9.23801e-20)
(0.309725 -0.0424464 -1.40866e-19)
(0.360495 -0.0470471 2.77759e-20)
(0.41426 -0.0505883 9.40159e-21)
(0.47022 -0.0526046 1.2946e-19)
(0.525448 -0.0527802 -6.0901e-20)
(0.593129 -0.0373894 4.44192e-20)
(-0.00244239 0.00385949 1.02779e-19)
(-0.00372383 0.00813645 3.76435e-20)
(-0.000889046 0.0101518 7.00827e-20)
(0.00596003 0.010112 6.44379e-20)
(0.0168731 0.0083127 1.06909e-20)
(0.0319278 0.00508332 -1.3977e-19)
(0.0511794 0.000736573 -1.02536e-19)
(0.074673 -0.00443064 -9.35421e-20)
(0.102443 -0.0101387 8.7792e-20)
(0.134506 -0.0161291 5.33006e-20)
(0.170852 -0.0221659 1.8678e-19)
(0.211432 -0.0280353 -1.51633e-19)
(0.256143 -0.0335444 5.61676e-20)
(0.304804 -0.0385162 -1.0437e-19)
(0.357137 -0.0427827 7.61312e-20)
(0.412727 -0.0461677 -2.72646e-20)
(0.471065 -0.048384 3.37031e-20)
(0.531218 -0.0490637 -1.18836e-19)
(0.589962 -0.0482779 9.74425e-20)
(0.66088 -0.0302872 3.63305e-20)
(-0.00208313 0.00317992 -1.43244e-19)
(-0.0022753 0.00625624 6.08961e-20)
(0.00216609 0.00731368 -9.56818e-20)
(0.0110866 0.00651982 -9.06719e-20)
(0.0245107 0.00416143 3.38413e-20)
(0.0424966 0.00056796 1.68206e-19)
(0.065075 -0.00395055 -1.23275e-19)
(0.0922632 -0.0090997 1.54863e-20)
(0.124064 -0.0146015 -3.49783e-20)
(0.160455 -0.0201984 -3.34624e-20)
(0.201379 -0.0256551 8.90934e-20)
(0.246731 -0.0307589 1.92438e-19)
(0.296333 -0.0353185 -7.33831e-21)
(0.349915 -0.0391607 1.57098e-20)
(0.407086 -0.0421265 -6.06851e-21)
(0.467296 -0.044058 -1.01196e-19)
(0.529871 -0.0447055 9.72789e-20)
(0.593713 -0.0438184 1.48656e-19)
(0.65546 -0.0418487 3.98827e-20)
(0.728268 -0.0213432 -6.84599e-20)
(-0.00157057 0.00240997 -3.79673e-20)
(-0.000383494 0.00414758 1.25892e-19)
(0.00594361 0.00415756 -3.64227e-21)
(0.0172053 0.00256365 8.85537e-20)
(0.0334007 -0.000358517 4.1443e-20)
(0.054567 -0.00428167 4.08179e-20)
(0.0807083 -0.0089011 -5.10752e-20)
(0.11181 -0.013928 8.59652e-20)
(0.147837 -0.0190894 1.40795e-20)
(0.188722 -0.0241325 -5.17319e-20)
(0.23435 -0.0288272 -2.91754e-20)
(0.284543 -0.0329669 -1.33829e-19)
(0.339037 -0.0363678 -1.32925e-19)
(0.397452 -0.0388675 3.02063e-20)
(0.459266 -0.0403212 -1.18716e-20)
(0.52378 -0.040591 -4.32094e-20)
(0.590131 -0.0394638 -1.32046e-19)
(0.65702 -0.0368133 -1.55381e-19)
(0.721155 -0.0332871 -1.7194e-19)
(0.794012 -0.010451 1.74592e-20)
(-0.000889903 0.00156234 6.82217e-21)
(0.00199182 0.00184717 -1.14849e-19)
(0.0105045 0.000743374 -1.08733e-19)
(0.0243929 -0.00167403 -7.29959e-20)
(0.0436298 -0.00514319 1.32024e-19)
(0.0682294 -0.00934118 -2.84811e-19)
(0.0981658 -0.0139716 5.76359e-20)
(0.133388 -0.0187546 -3.42277e-20)
(0.173816 -0.0234261 9.61712e-20)
(0.219326 -0.0277431 1.1706e-20)
(0.269735 -0.031486 -1.47292e-19)
(0.324778 -0.0344611 6.24146e-20)
(0.384083 -0.0365008 1.87055e-20)
(0.447146 -0.0374622 6.07305e-20)
(0.5133 -0.0372245 -6.48485e-20)
(0.581684 -0.0356744 1.09817e-19)
(0.651243 -0.0326367 -4.63529e-20)
(0.720483 -0.0280746 2.23056e-20)
(0.786377 -0.0223344 -1.61506e-20)
(0.856663 0.0023089 -5.95545e-20)
(-2.70402e-05 0.000651097 1.25126e-19)
(0.00488839 -0.000603949 -2.44791e-20)
(0.015905 -0.00286159 -1.52095e-20)
(0.0327187 -0.00610074 8.91605e-20)
(0.0552743 -0.0100761 -4.48712e-20)
(0.0835601 -0.0144718 2.59162e-19)
(0.117516 -0.0190028 1.17403e-20)
(0.157048 -0.0234024 7.90435e-20)
(0.202022 -0.0274201 -1.34427e-19)
(0.25225 -0.0308279 -1.02325e-19)
(0.307462 -0.0334244 1.49531e-19)
(0.36729 -0.0350372 -1.2194e-19)
(0.431239 -0.0355254 9.84606e-20)
(0.49866 -0.0347791 -1.57616e-20)
(0.568728 -0.0327157 2.87879e-19)
(0.640424 -0.0292618 -4.7635e-21)
(0.712535 -0.0242957 9.57013e-20)
(0.783507 -0.0177833 1.34044e-19)
(0.850975 -0.00915042 7.81856e-20)
(0.916718 0.0148021 1.08791e-19)
(0.00103132 -0.000308357 6.14352e-20)
(0.00834098 -0.00316063 -1.41385e-19)
(0.0221959 -0.00658329 4.82806e-20)
(0.0422433 -0.0106148 7.88966e-20)
(0.0683981 -0.0150299 6.64493e-20)
(0.100619 -0.0195223 -1.90086e-19)
(0.138805 -0.0238226 8.59769e-20)
(0.182813 -0.0276816 3.92176e-20)
(0.232446 -0.0308679 1.68265e-20)
(0.287433 -0.0331758 6.96869e-20)
(0.347407 -0.0344302 -3.95111e-20)
(0.411877 -0.034491 1.25088e-19)
(0.480205 -0.033257 -1.027e-19)
(0.551582 -0.0306673 -1.04364e-19)
(0.625014 -0.0266979 -1.76978e-19)
(0.699323 -0.0213442 -5.46747e-20)
(0.773183 -0.0145775 -1.16735e-19)
(0.845181 -0.00634421 -1.26222e-19)
(0.914316 0.00467104 -1.12444e-19)
(0.97725 0.0214284 -6.82938e-20)
(0.00229752 -0.0012993 9.49985e-20)
(0.0123808 -0.00577384 -2.57944e-20)
(0.0294209 -0.0103415 -6.68039e-20)
(0.0530167 -0.0151065 -2.15596e-19)
(0.0830501 -0.0198673 -1.65852e-20)
(0.119445 -0.0243312 2.29715e-19)
(0.162054 -0.0282486 -5.13962e-20)
(0.210675 -0.0313932 4.47849e-20)
(0.265036 -0.0335598 1.06207e-19)
(0.32477 -0.0345727 3.15381e-20)
(0.389394 -0.0342934 -2.04025e-19)
(0.458278 -0.0326265 -5.0313e-20)
(0.530621 -0.0295252 -3.50648e-20)
(0.605438 -0.0249952 9.85393e-20)
(0.681555 -0.0190937 2.7893e-19)
(0.757636 -0.0119157 -8.74813e-20)
(0.832239 -0.00358027 -5.68207e-20)
(0.903975 0.00577549 1.42364e-19)
(0.972477 0.0170326 7.55887e-20)
(1.03206 0.0246539 2.95092e-20)
(0.00378275 -0.00230369 -1.02637e-19)
(0.0170348 -0.00839081 7.64124e-20)
(0.0376158 -0.0140503 -1.57374e-19)
(0.0650762 -0.019459 1.80061e-20)
(0.0992615 -0.0244436 1.10158e-19)
(0.140055 -0.0287293 -2.34714e-19)
(0.187255 -0.0320918 -2.46238e-19)
(0.24059 -0.0343341 4.57711e-21)
(0.2997 -0.0352846 -1.47044e-19)
(0.364107 -0.0348079 -1.03532e-19)
(0.433194 -0.0328133 1.6398e-19)
(0.506173 -0.0292635 2.59001e-19)
(0.582068 -0.024182 -1.01755e-19)
(0.659704 -0.0176583 -6.29825e-20)
(0.737724 -0.00984853 -1.56758e-19)
(0.814632 -0.000967204 9.3136e-21)
(0.888868 0.00870594 -6.47667e-21)
(0.958978 0.0188168 -5.53195e-21)
(1.02463 0.0298932 1.66484e-20)
(1.07974 0.0335319 2.01589e-19)
(0.00549677 -0.00330219 1.03246e-19)
(0.022325 -0.0109553 1.15845e-19)
(0.046807 -0.0176188 1.52428e-19)
(0.0784452 -0.0235497 6.03114e-20)
(0.117044 -0.0286082 -8.38631e-20)
(0.162439 -0.0325426 -5.8855e-20)
(0.214368 -0.03516 -8.46315e-21)
(0.272475 -0.0363007 8.49432e-20)
(0.3363 -0.0358359 7.82656e-20)
(0.405238 -0.0336809 4.96392e-20)
(0.478523 -0.029806 -6.29618e-21)
(0.555192 -0.0242465 -1.24939e-19)
(0.634082 -0.0171113 1.00458e-19)
(0.713826 -0.0085885 -1.54604e-20)
(0.792889 0.0010542 4.59047e-20)
(0.869631 0.0114777 1.92177e-20)
(0.942397 0.0222584 -1.58449e-20)
(1.00968 0.0328882 3.90346e-20)
(1.07099 0.0436843 -2.8259e-20)
(1.12079 0.0458356 -2.0782e-19)
(0.00744764 -0.00427412 5.41552e-20)
(0.0282674 -0.0134078 -2.09214e-19)
(0.0570104 -0.0209518 1.03518e-19)
(0.0931306 -0.0272514 4.29927e-20)
(0.136387 -0.0322066 -1.27381e-19)
(0.186561 -0.0355948 1.25221e-19)
(0.243317 -0.0372623 7.03326e-20)
(0.306208 -0.0370951 -1.69633e-19)
(0.374653 -0.0350176 2.08894e-20)
(0.447911 -0.0310083 -3.24356e-20)
(0.525047 -0.0251122 7.74113e-20)
(0.604917 -0.0174518 -5.83628e-20)
(0.686164 -0.00823557 -8.87636e-20)
(0.767236 0.00223777 1.31645e-19)
(0.846439 0.013583 -6.44047e-20)
(0.922022 0.025341 2.65897e-20)
(0.992286 0.036972 -6.21192e-20)
(1.05573 0.0478781 3.53572e-22)
(1.11178 0.0582286 -5.36063e-20)
(1.15579 0.0598836 5.88043e-20)
(0.00964135 -0.00519757 -1.36407e-20)
(0.0348714 -0.015686 -6.19337e-20)
(0.0682296 -0.0239508 -6.99657e-20)
(0.109122 -0.0304342 4.04968e-20)
(0.157258 -0.0350831 -1.1953e-20)
(0.212355 -0.0377112 7.66752e-20)
(0.273994 -0.0382125 5.47001e-20)
(0.341623 -0.0365288 5.23728e-20)
(0.414533 -0.0326495 1.71529e-20)
(0.491826 -0.0266296 4.56546e-20)
(0.572391 -0.0186028 7.79053e-20)
(0.654896 -0.00879319 1.67916e-20)
(0.737794 0.00247875 -3.89935e-20)
(0.819368 0.0147962 3.09625e-20)
(0.897798 0.0276564 9.6921e-20)
(0.971273 0.0404925 -1.76977e-19)
(1.03812 0.0526805 5.40435e-20)
(1.09693 0.0635875 6.58127e-20)
(1.14714 0.0732861 2.07828e-20)
(1.18515 0.0747433 4.22024e-20)
(0.0120815 -0.00604939 -2.18198e-20)
(0.0421387 -0.0177249 1.3505e-19)
(0.0804552 -0.0265147 4.71281e-20)
(0.12639 -0.0329668 -1.46154e-19)
(0.179597 -0.0370827 -3.92908e-20)
(0.239721 -0.0387212 7.50407e-20)
(0.306252 -0.0378334 3.65096e-20)
(0.378519 -0.0344282 1.29081e-19)
(0.455671 -0.028573 -4.98118e-21)
(0.536643 -0.0204128 6.34922e-21)
(0.620143 -0.0101846 -6.6094e-20)
(0.704652 0.00177338 -1.04267e-19)
(0.788449 0.0150192 -1.14699e-20)
(0.86968 0.0290148 -6.54482e-20)
(0.946447 0.0431467 5.63624e-20)
(1.01694 0.0567594 2.73029e-19)
(1.07959 0.0691789 1.06044e-19)
(1.13317 0.0797855 -1.03942e-19)
(1.17725 0.0886038 -5.19154e-20)
(1.20922 0.0898114 2.00287e-20)
(0.0147687 -0.00680539 1.04699e-19)
(0.0500623 -0.0194579 -1.64733e-19)
(0.0936628 -0.0285413 -1.56666e-19)
(0.144884 -0.0347184 2.14938e-19)
(0.203318 -0.0380544 6.41269e-20)
(0.268531 -0.0384623 -4.06122e-20)
(0.339909 -0.0359611 -1.17826e-19)
(0.416653 -0.0306393 -1.47053e-19)
(0.497757 -0.0226554 9.94707e-20)
(0.581987 -0.0122588 1.79242e-20)
(0.667866 0.000196848 5.37549e-20)
(0.753698 0.0142486 4.48594e-20)
(0.837617 0.0293279 -3.43848e-21)
(0.917668 0.0447782 -3.02617e-20)
(0.991935 0.0598884 -6.05657e-20)
(1.05869 0.0739392 -1.65424e-19)
(1.11651 0.0862435 -6.52679e-20)
(1.16448 0.0962357 2.18398e-19)
(1.20235 0.103939 3.55786e-20)
(1.22842 0.104687 -5.35843e-20)
(0.0177004 -0.00744055 -1.08692e-19)
(0.0586257 -0.0208171 1.15412e-19)
(0.107813 -0.0299284 3.40266e-21)
(0.164532 -0.0355612 -4.83787e-20)
(0.228311 -0.0378536 -1.59945e-20)
(0.298626 -0.036783 -1.36212e-20)
(0.37475 -0.0324485 -8.58549e-20)
(0.455748 -0.0250309 1.05533e-19)
(0.540453 -0.0147939 -1.75755e-19)
(0.627457 -0.00210484 6.34886e-22)
(0.715107 0.0125548 -3.18313e-20)
(0.801552 0.0285899 -1.56776e-20)
(0.884809 0.0453048 3.71543e-20)
(0.962881 0.0619337 -8.48643e-20)
(1.03389 0.0776873 -4.5952e-21)
(1.09626 0.0918134 4.69596e-20)
(1.14882 0.103648 -1.16439e-19)
(1.19096 0.112717 7.86497e-23)
(1.22273 0.119083 5.75178e-22)
(1.24322 0.119116 9.44897e-20)
(0.0208706 -0.00792931 1.61339e-20)
(0.0678022 -0.0217344 3.17752e-20)
(0.12285 -0.0305756 6.1742e-20)
(0.185242 -0.0353721 -3.34371e-20)
(0.254436 -0.0363446 -1.10046e-19)
(0.329814 -0.0335466 2.90072e-20)
(0.410528 -0.0271692 6.64814e-20)
(0.495497 -0.0174992 3.63392e-20)
(0.583393 -0.00491889 1.23976e-19)
(0.672635 0.0100741 -3.4308e-20)
(0.761413 0.0268617 -2.06718e-20)
(0.847746 0.0447136 1.82002e-20)
(0.929582 0.0628128 -5.25509e-20)
(1.00493 0.0802994 -7.38646e-20)
(1.07204 0.0963323 -4.84826e-20)
(1.12953 0.11016 4.02047e-20)
(1.17655 0.121179 9.83358e-20)
(1.21283 0.129037 -4.78058e-20)
(1.23876 0.13387 -7.44072e-20)
(1.25409 0.132944 1.13015e-20)
(0.0242692 -0.00824588 2.71982e-20)
(0.0775541 -0.0221428 6.59179e-21)
(0.138699 -0.0303861 -8.21827e-20)
(0.206897 -0.0340354 1.0951e-19)
(0.28153 -0.0334042 2.4665e-20)
(0.361878 -0.0286339 -1.29622e-19)
(0.446967 -0.0200205 5.00121e-20)
(0.535567 -0.00796993 -6.61606e-20)
(0.626191 0.00700422 3.31756e-21)
(0.717098 0.0242643 1.10643e-20)
(0.80634 0.0430503 3.24402e-20)
(0.891844 0.0624991 4.08819e-21)
(0.971539 0.081684 1.47638e-19)
(1.04351 0.0996733 5.88563e-20)
(1.10618 0.115605 -2.86823e-20)
(1.15845 0.128763 -3.27948e-20)
(1.19981 0.138643 1.85854e-20)
(1.23037 0.145035 1.96659e-20)
(1.25083 0.148176 -3.24746e-20)
(1.26148 0.146093 -3.56661e-20)
(0.0278819 -0.00836478 -3.20899e-20)
(0.0878327 -0.0219773 1.91992e-21)
(0.155272 -0.0292684 1.68652e-20)
(0.22936 -0.0314452 -4.55877e-20)
(0.309403 -0.0289243 8.87219e-20)
(0.394573 -0.0219468 5.13842e-20)
(0.483766 -0.0109266 -5.20865e-20)
(0.575607 0.00359886 -3.50299e-20)
(0.668454 0.0209739 3.21442e-20)
(0.760424 0.040414 -5.05909e-20)
(0.849462 0.0610164 3.85198e-20)
(0.933448 0.0817937 -6.39226e-22)
(1.01035 0.101727 1.49422e-21)
(1.07839 0.119842 -3.01186e-20)
(1.13622 0.135288 8.56469e-20)
(1.18307 0.147424 -7.36425e-21)
(1.2188 0.155872 3.62795e-20)
(1.24389 0.160586 -5.2265e-20)
(1.25934 0.161919 3.96396e-20)
(1.26586 0.158534 -1.62368e-20)
(0.0316902 -0.00826125 5.20361e-20)
(0.0985775 -0.0211764 6.40082e-20)
(0.172462 -0.0271386 4.69767e-20)
(0.252474 -0.0275079 -7.17411e-21)
(0.337844 -0.0228142 9.32702e-21)
(0.427633 -0.0134106 6.16294e-22)
(0.520609 0.000159472 1.12652e-19)
(0.615254 0.0172159 -3.38299e-20)
(0.709786 0.0369526 2.42348e-20)
(0.802205 0.0584351 -1.2422e-19)
(0.890385 0.0806232 1.85971e-20)
(0.972209 0.102419 5.70196e-20)
(1.04574 0.122736 -2.56876e-20)
(1.1094 0.140587 5.43275e-20)
(1.16212 0.155174 -7.10728e-20)
(1.2035 0.165963 9.74217e-20)
(1.23376 0.172729 3.35804e-21)
(1.25374 0.1756 -3.23342e-20)
(1.26468 0.175049 1.1859e-21)
(1.26763 0.170271 4.78093e-20)
(0.035671 -0.00791187 -9.69947e-20)
(0.109717 -0.0196835 2.52675e-20)
(0.190143 -0.023922 -1.03925e-20)
(0.27606 -0.0221446 -7.29231e-20)
(0.366619 -0.015004 -2.70834e-20)
(0.460773 -0.00297647 -5.21634e-20)
(0.557162 0.013254 -4.60362e-20)
(0.654137 0.0328556 -5.03056e-20)
(0.749796 0.0548673 5.26467e-20)
(0.842052 0.0782063 2.66834e-20)
(0.928752 0.101705 -7.9628e-20)
(1.00783 0.124175 -2.02343e-20)
(1.07751 0.144494 -9.71256e-21)
(1.13646 0.161696 -4.11739e-20)
(1.18394 0.175071 -7.08076e-21)
(1.21991 0.184223 -1.72058e-20)
(1.24497 0.189102 -6.97307e-20)
(1.26027 0.190011 3.35752e-20)
(1.26725 0.187543 4.11703e-20)
(1.26716 0.181329 -1.02672e-20)
(0.0397969 -0.00729507 3.25682e-21)
(0.121168 -0.0174485 -4.54334e-20)
(0.208179 -0.0195558 2.13035e-20)
(0.299924 -0.0152938 -1.52529e-20)
(0.395481 -0.00544643 1.87201e-20)
(0.493693 0.00937652 8.59823e-20)
(0.593085 0.0283413 -3.75333e-20)
(0.691891 0.0504585 9.57867e-20)
(0.788111 0.0746115 4.95216e-21)
(0.879609 0.0995759 5.00525e-20)
(0.964251 0.124073 4.57174e-21)
(1.04008 0.146852 3.62418e-20)
(1.10553 0.166782 7.84324e-21)
(1.15955 0.182963 3.6809e-21)
(1.20178 0.194803 -5.53165e-20)
(1.23253 0.202073 9.84205e-21)
(1.25274 0.204907 5.06443e-20)
(1.26382 0.203779 2.38019e-21)
(1.26738 0.199395 -2.44279e-20)
(1.26479 0.19174 9.98696e-21)
(0.0440363 -0.00639184 1.15072e-20)
(0.132838 -0.0144291 3.61568e-20)
(0.226415 -0.0139908 3.94341e-20)
(0.323857 -0.0069132 -1.16946e-20)
(0.424165 0.0058812 5.23035e-20)
(0.526087 0.0236401 -1.08146e-20)
(0.628038 0.0453736 8.85995e-20)
(0.728156 0.0699323 -1.15124e-19)
(0.824376 0.0960477 -2.11244e-20)
(0.914552 0.122367 -2.1485e-20)
(0.996618 0.147522 -2.65668e-20)
(1.06878 0.170227 -6.48445e-21)
(1.12972 0.189387 9.61173e-21)
(1.17872 0.204197 -3.57195e-20)
(1.21579 0.214216 3.68713e-20)
(1.24159 0.219403 -1.6167e-20)
(1.25737 0.220079 -1.25119e-20)
(1.26474 0.21688 -1.14695e-20)
(1.2654 0.21061 -7.18957e-21)
(1.26079 0.201542 -2.26532e-20)
(0.0483534 -0.00518621 5.31169e-20)
(0.144624 -0.0105926 -5.47936e-20)
(0.244688 -0.00719315 6.66171e-21)
(0.347635 0.00301823 -7.75717e-21)
(0.452402 0.018975 -1.88772e-20)
(0.557642 0.0397758 -3.94846e-20)
(0.661683 0.064271 -6.41184e-21)
(0.762589 0.091153 2.79701e-20)
(0.858266 0.11901 1.33772e-20)
(0.946599 0.146379 -1.67797e-20)
(1.02564 0.17183 1.92362e-20)
(1.09381 0.194079 -4.14168e-21)
(1.15007 0.2121 -4.03581e-20)
(1.19407 0.225219 5.99417e-20)
(1.22616 0.233175 1.68426e-20)
(1.24735 0.236123 -9.02664e-21)
(1.25916 0.234572 1.11081e-20)
(1.26332 0.229304 1.70134e-20)
(1.2616 0.2212 1.6693e-20)
(1.25541 0.210767 1.74955e-20)
(0.0527089 -0.00366594 -5.469e-20)
(0.156415 -0.00591664 4.49155e-20)
(0.262823 0.000853794 1.9603e-20)
(0.371028 0.0144986 -4.09395e-20)
(0.479912 0.0338039 -8.82189e-21)
(0.588048 0.0577149 -3.56358e-20)
(0.693693 0.0849227 1.45437e-20)
(0.79487 0.113968 -2.48557e-20)
(0.889488 0.14331 2.00554e-21)
(0.975512 0.171398 4.35151e-21)
(1.05116 0.196772 8.53707e-21)
(1.1151 0.218187 -3.32332e-20)
(1.16661 0.234723 3.48615e-20)
(1.20571 0.245869 -2.51935e-20)
(1.2331 0.251564 -7.00103e-21)
(1.25009 0.252163 3.36282e-21)
(1.25839 0.248355 -7.69226e-21)
(1.25985 0.241047 -1.77558e-20)
(1.25622 0.23118 -7.98902e-22)
(1.24884 0.219442 -1.19391e-20)
(0.0570603 -0.00182294 -6.63967e-21)
(0.168095 -0.000390926 -2.08371e-20)
(0.280637 0.0101482 -7.25068e-21)
(0.3938 0.027502 1.182e-20)
(0.506418 0.0503084 -7.19161e-21)
(0.617001 0.0773584 7.56327e-21)
(0.723759 0.107188 1.87528e-20)
(0.824702 0.138196 1.73999e-20)
(0.917786 0.168735 1.43442e-20)
(1.0011 0.197193 -3.41214e-21)
(1.07306 0.222117 -9.14525e-21)
(1.13262 0.242336 1.10343e-20)
(1.17942 0.257071 -5.54043e-21)
(1.21381 0.266003 7.13565e-21)
(1.23684 0.269282 -4.38371e-21)
(1.25006 0.267464 9.45119e-21)
(1.25534 0.261403 -2.60865e-21)
(1.25457 0.252107 1.11067e-20)
(1.24946 0.24056 -2.6229e-21)
(1.24125 0.227589 1.68728e-21)
(0.0613625 0.000346161 -7.68681e-23)
(0.179542 0.00598205 -5.44634e-23)
(0.297945 0.0206685 -2.44125e-21)
(0.415713 0.0419777 1.24585e-20)
(0.531647 0.0684013 8.23037e-21)
(0.64421 0.0985784 -6.54158e-21)
(0.751591 0.130899 -5.13384e-21)
(0.851822 0.163637 -1.63182e-21)
(0.942944 0.195059 -7.97528e-21)
(1.02321 0.223529 -4.53533e-22)
(1.09128 0.247634 4.03875e-22)
(1.14642 0.266317 -3.85325e-21)
(1.18862 0.278972 -2.54831e-21)
(1.21857 0.285493 -5.8904e-21)
(1.2376 0.286246 -6.34755e-21)
(1.24751 0.281981 -5.38986e-22)
(1.25025 0.2737 2.35505e-21)
(1.24771 0.262487 2.5177e-21)
(1.24151 0.24935 2.90732e-21)
(1.23278 0.235219 4.09322e-21)
(0.0655687 0.00283967 7.56688e-21)
(0.190628 0.0131862 -1.29902e-21)
(0.314557 0.0323731 -2.20954e-21)
(0.436532 0.0578501 5.66602e-21)
(0.555332 0.0879676 1.17394e-20)
(0.669398 0.121219 -5.33964e-21)
(0.776923 0.155861 -4.50465e-21)
(0.875998 0.190065 -8.90511e-21)
(0.964786 0.222042 -8.38591e-21)
(1.04174 0.250163 1.60386e-21)
(1.1058 0.273096 -1.55159e-21)
(1.15656 0.289933 -6.62282e-22)
(1.19434 0.30027 -3.72247e-21)
(1.22016 0.304225 -6.01885e-21)
(1.23563 0.302383 -1.33117e-21)
(1.24268 0.295677 -4.89529e-22)
(1.24334 0.285231 -1.93768e-22)
(1.23944 0.272186 1.19006e-21)
(1.23252 0.257552 4.44203e-21)
(1.22353 0.242337 3.47418e-21)
(0.0696306 0.00565053 -4.52482e-21)
(0.201229 0.0211912 -7.14766e-21)
(0.330288 0.0451995 -9.77592e-21)
(0.456028 0.0750184 1.31543e-20)
(0.577223 0.108866 1.30481e-20)
(0.692311 0.1451 3.83515e-22)
(0.799522 0.181861 5.35133e-21)
(0.897037 0.217244 1.53207e-20)
(0.98318 0.249435 1.74059e-20)
(1.05663 0.276852 1.16195e-20)
(1.11664 0.298283 -2.89054e-20)
(1.16312 0.313 1.22058e-20)
(1.19674 0.320821 -5.45932e-21)
(1.21881 0.322099 1.29535e-20)
(1.23114 0.317632 -2.9506e-22)
(1.23579 0.308518 -2.11673e-21)
(1.2348 0.295982 1.19678e-21)
(1.22995 0.281198 1.03559e-20)
(1.2226 0.265165 -4.10899e-21)
(1.21359 0.248942 -4.22998e-22)
(0.0734997 0.00876608 -1.40795e-20)
(0.211219 0.0299526 3.46336e-20)
(0.344955 0.059065 3.51305e-21)
(0.473982 0.0933582 -4.52268e-20)
(0.597084 0.130929 -8.70216e-21)
(0.712719 0.170015 2.07256e-20)
(0.819184 0.208664 -4.89449e-20)
(0.914783 0.24492 -6.68276e-22)
(0.998032 0.276984 4.40816e-21)
(1.06787 0.303358 -1.32012e-21)
(1.12386 0.322983 1.51999e-20)
(1.16624 0.335342 -2.4907e-20)
(1.196 0.340493 3.87608e-21)
(1.21471 0.339025 -8.76081e-21)
(1.22435 0.331938 -6.58947e-21)