/*--------------------------------*- C++ -*----------------------------------*\
  =========                 |
  \\      /  F ield         | OpenFOAM: The Open Source CFD Toolbox
   \\    /   O peration     | Website:  https://openfoam.org
    \\  /    A nd           | Version:  7
     \\/     M anipulation  |
\*---------------------------------------------------------------------------*/
FoamFile
{
    version     2.0;
    format      ascii;
    class       volVectorField;
    location    "8.8";
    object      U;
}
// * * * * * * * * * * * * * * * * * * * * * * * * * * * * * * * * * * * * * //

dimensions      [0 1 -1 0 0 0 0];

internalField   nonuniform List<vector> 
344
(
(0.387741 0.00476282 -9.13456e-17)
(0.389817 0.00468323 -8.95538e-17)
(0.391859 0.00460539 -8.54943e-17)
(0.393869 0.00452928 -8.41837e-17)
(0.395848 0.00445484 -7.67686e-17)
(0.397795 0.00438202 -6.36315e-17)
(0.399711 0.00431078 -6.44888e-17)
(0.401597 0.00424109 -6.20755e-17)
(0.403454 0.0041729 -6.07919e-17)
(0.405283 0.00410616 -5.82919e-17)
(0.407083 0.00404085 -5.5494e-17)
(0.408856 0.00397693 -5.34581e-17)
(0.410601 0.00391435 -5.10439e-17)
(0.412321 0.00385308 -4.4903e-17)
(0.414014 0.00379309 -3.44278e-17)
(0.415682 0.00373434 -3.35455e-17)
(0.417325 0.00367681 -3.47251e-17)
(0.418944 0.00362046 -2.84137e-17)
(0.420539 0.00356525 -2.08837e-17)
(0.42211 0.00351117 -2.13365e-17)
(0.202071 0.00982337 -2.90747e-16)
(0.206766 0.00961945 -2.8114e-16)
(0.211368 0.00941997 -2.70056e-16)
(0.215878 0.0092249 -2.67315e-16)
(0.220299 0.00903419 -2.65081e-16)
(0.224632 0.00884781 -2.64232e-16)
(0.22888 0.00866569 -2.58978e-16)
(0.233043 0.00848777 -2.55863e-16)
(0.237125 0.008314 -2.49204e-16)
(0.241127 0.00814429 -2.44588e-16)
(0.24505 0.00797858 -2.34097e-16)
(0.248897 0.00781679 -2.21998e-16)
(0.252669 0.00765885 -2.22416e-16)
(0.256367 0.00750468 -2.20519e-16)
(0.259995 0.0073542 -2.14884e-16)
(0.263553 0.00720734 -2.0445e-16)
(0.267042 0.00706401 -2.03501e-16)
(0.270465 0.00692414 -2.04781e-16)
(0.273823 0.00678764 -1.96954e-16)
(0.277118 0.00665443 -1.845e-16)
(0.28035 0.00652445 -1.85565e-16)
(0.283522 0.00639761 -1.89109e-16)
(0.286635 0.00627383 -1.83844e-16)
(0.289689 0.00615304 -1.82408e-16)
(0.292688 0.00603516 -1.76723e-16)
(0.295631 0.00592012 -1.7095e-16)
(0.29852 0.00580785 -1.60025e-16)
(0.301357 0.00569828 -1.47268e-16)
(0.304142 0.00559133 -1.48118e-16)
(0.306877 0.00548695 -1.456e-16)
(0.309563 0.00538506 -1.49101e-16)
(0.312201 0.00528559 -1.43773e-16)
(0.314792 0.00518849 -1.43435e-16)
(0.317337 0.00509369 -1.35669e-16)
(0.319838 0.00500112 -1.35895e-16)
(0.322295 0.00491074 -1.26048e-16)
(0.324709 0.00482248 -1.12433e-16)
(0.327081 0.00473629 -1.14004e-16)
(0.329412 0.0046521 -1.16093e-16)
(0.331704 0.00456987 -1.10068e-16)
(0.333956 0.00448955 -9.83953e-17)
(0.336171 0.00441107 -9.96619e-17)
(0.338348 0.0043344 -1.01302e-16)
(0.340488 0.00425949 -9.61273e-17)
(0.342593 0.00418628 -8.33747e-17)
(0.344663 0.00411473 -8.65094e-17)
(0.346699 0.0040448 -8.62168e-17)
(0.348702 0.00397644 -8.47729e-17)
(0.350671 0.00390961 -8.46659e-17)
(0.352609 0.00384427 -8.07847e-17)
(0.354516 0.00378038 -7.99459e-17)
(0.356392 0.0037179 -6.96744e-17)
(0.358238 0.00365679 -5.66268e-17)
(0.360054 0.00359702 -5.79966e-17)
(0.361842 0.00353855 -5.70796e-17)
(0.363602 0.00348134 -5.8607e-17)
(0.365335 0.00342537 -5.52681e-17)
(0.36704 0.0033706 -5.44573e-17)
(0.368719 0.00331699 -5.29304e-17)
(0.370372 0.00326452 -5.10997e-17)
(0.372 0.00321316 -4.23473e-17)
(0.373603 0.00316287 -3.03994e-17)
(0.375182 0.00311364 -2.9902e-17)
(0.376737 0.00306542 -3.31564e-17)
(0.378269 0.0030182 -2.7756e-17)
(0.379778 0.00297195 -1.58384e-17)
(0.381264 0.00292664 -1.96689e-17)
(0.172117 0.00806037 -2.61342e-16)
(0.176559 0.00789192 -2.50737e-16)
(0.180912 0.00772717 -2.37146e-16)
(0.185178 0.00756608 -2.37293e-16)
(0.189357 0.00740862 -2.37091e-16)
(0.193453 0.00725475 -2.37902e-16)
(0.197466 0.00710443 -2.31914e-16)
(0.201399 0.00695759 -2.31346e-16)
(0.205254 0.00681419 -2.23638e-16)
(0.209032 0.00667417 -2.21033e-16)
(0.212735 0.00653747 -2.08885e-16)
(0.216365 0.00640403 -1.93742e-16)
(0.219924 0.00627379 -1.98225e-16)
(0.223412 0.00614667 -1.98727e-16)
(0.226833 0.00602262 -1.92007e-16)
(0.230186 0.00590156 -1.77714e-16)
(0.233475 0.00578344 -1.81671e-16)
(0.2367 0.00566818 -1.8533e-16)
(0.239863 0.00555572 -1.76737e-16)
(0.242966 0.005446 -1.61171e-16)
(0.246009 0.00533894 -1.66736e-16)
(0.248995 0.00523449 -1.72049e-16)
(0.251924 0.00513257 -1.66523e-16)
(0.254798 0.00503313 -1.66431e-16)
(0.257618 0.00493611 -1.60293e-16)
(0.260386 0.00484143 -1.57488e-16)
(0.263102 0.00474905 -1.43566e-16)
(0.265768 0.00465891 -1.28173e-16)
(0.268386 0.00457093 -1.31414e-16)
(0.270955 0.00448508 -1.29293e-16)
(0.273478 0.00440129 -1.35716e-16)
(0.275955 0.0043195 -1.30584e-16)
(0.278388 0.00423967 -1.32423e-16)
(0.280777 0.00416175 -1.25303e-16)
(0.283124 0.00408567 -1.25838e-16)
(0.285429 0.0040114 -1.13144e-16)
(0.287694 0.00393888 -9.63009e-17)
(0.289919 0.00386807 -1.01888e-16)
(0.292105 0.00379892 -1.06489e-16)
(0.294253 0.00373139 -9.92187e-17)
(0.296365 0.00366542 -8.35743e-17)
(0.29844 0.00360099 -8.9694e-17)
(0.30048 0.00353805 -9.39614e-17)
(0.302485 0.00347655 -8.68213e-17)
(0.304456 0.00341647 -6.94853e-17)
(0.306395 0.00335775 -7.70089e-17)
(0.308301 0.00330037 -8.07276e-17)
(0.310176 0.00324429 -7.80873e-17)
(0.312019 0.00318947 -8.15171e-17)
(0.313833 0.00313588 -7.51213e-17)
(0.315616 0.00308348 -7.43949e-17)
(0.317371 0.00303225 -6.3631e-17)
(0.319098 0.00298215 -4.66137e-17)
(0.320797 0.00293315 -5.16907e-17)
(0.322468 0.00288522 -5.20348e-17)
(0.324113 0.00283834 -5.60834e-17)
(0.325733 0.00279247 -5.14867e-17)
(0.327326 0.00274758 -5.44574e-17)
(0.328895 0.00270367 -4.90821e-17)
(0.33044 0.00266068 -4.97503e-17)
(0.33196 0.00261861 -3.97619e-17)
(0.333457 0.00257743 -2.24782e-17)
(0.334932 0.00253711 -2.67366e-17)
(0.336383 0.00249763 -3.36575e-17)
(0.337813 0.00245897 -2.5622e-17)
(0.339221 0.0024211 -1.23086e-17)
(0.340609 0.00238402 -1.74222e-17)
(0.144303 0.00642569 -2.32583e-16)
(0.148436 0.00629053 -2.20375e-16)
(0.152484 0.00615836 -2.09692e-16)
(0.156449 0.00602914 -2.08028e-16)
(0.160334 0.00590285 -2.08798e-16)
(0.16414 0.00577946 -2.12938e-16)
(0.167868 0.00565892 -2.04473e-16)
(0.171521 0.00554121 -2.07432e-16)
(0.175101 0.00542626 -1.97466e-16)
(0.178608 0.00531405 -1.98827e-16)
(0.182045 0.00520451 -1.85358e-16)
(0.185413 0.0050976 -1.72574e-16)
(0.188714 0.00499326 -1.73935e-16)
(0.191949 0.00489145 -1.79032e-16)
(0.19512 0.00479211 -1.68703e-16)
(0.198229 0.00469518 -1.58525e-16)
(0.201277 0.00460062 -1.60372e-16)
(0.204265 0.00450836 -1.67768e-16)
(0.207195 0.00441836 -1.56433e-16)
(0.210068 0.00433056 -1.44065e-16)
(0.212886 0.00424491 -1.46539e-16)
(0.21565 0.00416135 -1.56366e-16)
(0.218361 0.00407984 -1.4638e-16)
(0.22102 0.00400031 -1.51651e-16)
(0.223629 0.00392273 -1.42281e-16)
(0.226188 0.00384705 -1.45032e-16)
(0.2287 0.0037732 -1.2781e-16)
(0.231165 0.00370116 -1.15807e-16)
(0.233584 0.00363086 -1.15534e-16)
(0.235958 0.00356226 -1.13871e-16)
(0.238289 0.00349532 -1.23943e-16)
(0.240577 0.00343 -1.17528e-16)
(0.242824 0.00336624 -1.23415e-16)
(0.24503 0.00330402 -1.13389e-16)
(0.247196 0.00324328 -1.17088e-16)
(0.249324 0.00318399 -9.94815e-17)
(0.251414 0.0031261 -8.85771e-17)
(0.253466 0.00306959 -9.16412e-17)
(0.255483 0.00301441 -9.86627e-17)
(0.257464 0.00296053 -8.69581e-17)
(0.259411 0.0029079 -7.60058e-17)
(0.261324 0.00285651 -7.8778e-17)
(0.263204 0.00280631 -8.75704e-17)
(0.265053 0.00275727 -7.6311e-17)
(0.266869 0.00270936 -6.46025e-17)
(0.268655 0.00266255 -6.82252e-17)
(0.270411 0.00261681 -7.66658e-17)
(0.272137 0.00257211 -7.04626e-17)
(0.273835 0.00252842 -7.71836e-17)
(0.275504 0.00248572 -6.79306e-17)
(0.277146 0.00244397 -7.08319e-17)
(0.278761 0.00240316 -5.65033e-17)
(0.28035 0.00236325 -4.46887e-17)
(0.281913 0.00232423 -4.62516e-17)
(0.283451 0.00228606 -4.59304e-17)
(0.284964 0.00224873 -5.5496e-17)
(0.286453 0.00221221 -4.60762e-17)
(0.287918 0.00217648 -5.39867e-17)
(0.289361 0.00214152 -4.59102e-17)
(0.29078 0.00210731 -4.97941e-17)
(0.292178 0.00207383 -3.6614e-17)
(0.293554 0.00204106 -2.27139e-17)
(0.294908 0.00200898 -2.45608e-17)
(0.296242 0.00197757 -3.49728e-17)
(0.297556 0.00194681 -2.20609e-17)
(0.298849 0.0019167 -1.37117e-17)
(0.300123 0.0018872 -1.44103e-17)
(0.11859 0.00493667 -1.99537e-16)
(0.122355 0.00483217 -1.89726e-16)
(0.126043 0.00472999 -1.8175e-16)
(0.129654 0.00463012 -1.79293e-16)
(0.133191 0.00453252 -1.79811e-16)
(0.136655 0.00443718 -1.81986e-16)
(0.140048 0.00434405 -1.76044e-16)
(0.143371 0.00425312 -1.76982e-16)
(0.146627 0.00416435 -1.70266e-16)
(0.149816 0.00407769 -1.6961e-16)
(0.152941 0.00399312 -1.59273e-16)
(0.156002 0.00391058 -1.4921e-16)
(0.159002 0.00383005 -1.49821e-16)
(0.161941 0.00375148 -1.52527e-16)
(0.164822 0.00367482 -1.4442e-16)
(0.167645 0.00360004 -1.38283e-16)
(0.170412 0.0035271 -1.38019e-16)
(0.173124 0.00345594 -1.41739e-16)
(0.175783 0.00338654 -1.33827e-16)
(0.17839 0.00331884 -1.24762e-16)
(0.180946 0.00325281 -1.26486e-16)
(0.183453 0.0031884 -1.32606e-16)
(0.185911 0.00312558 -1.24654e-16)
(0.188321 0.0030643 -1.27726e-16)
(0.190686 0.00300453 -1.22687e-16)
(0.193006 0.00294623 -1.23313e-16)
(0.195281 0.00288935 -1.10126e-16)
(0.197514 0.00283387 -1.01856e-16)
(0.199705 0.00277973 -1.00018e-16)
(0.201855 0.00272692 -9.91738e-17)
(0.203965 0.00267539 -1.04427e-16)
(0.206036 0.00262511 -1.01064e-16)
(0.208069 0.00257605 -1.05248e-16)
(0.210065 0.00252817 -9.87963e-17)
(0.212025 0.00248144 -9.97852e-17)
(0.213949 0.00243583 -8.63882e-17)
(0.215839 0.00239131 -7.77231e-17)
(0.217695 0.00234784 -7.99491e-17)
(0.219518 0.00230541 -8.28299e-17)
(0.221308 0.00226398 -7.58206e-17)
(0.223068 0.00222353 -6.76156e-17)
(0.224796 0.00218403 -6.82223e-17)
(0.226495 0.00214545 -7.30071e-17)
(0.228164 0.00210776 -6.51808e-17)
(0.229804 0.00207095 -5.8042e-17)
(0.231417 0.00203499 -5.95924e-17)
(0.233002 0.00199985 -6.45799e-17)
(0.23456 0.00196552 -6.09474e-17)
(0.236092 0.00193197 -6.48478e-17)
(0.237599 0.00189917 -5.82856e-17)
(0.23908 0.00186712 -5.98593e-17)
(0.240537 0.00183579 -4.96719e-17)
(0.24197 0.00180515 -4.04669e-17)
(0.24338 0.0017752 -4.01024e-17)
(0.244766 0.00174591 -4.10381e-17)
(0.24613 0.00171726 -4.66603e-17)
(0.247473 0.00168924 -3.94837e-17)
(0.248794 0.00166183 -4.51032e-17)
(0.250093 0.00163501 -3.99181e-17)
(0.251373 0.00160877 -4.05448e-17)
(0.252632 0.00158309 -3.2177e-17)
(0.253871 0.00155796 -2.20009e-17)
(0.255091 0.00153337 -2.22123e-17)
(0.256292 0.00150929 -2.71196e-17)
(0.257475 0.00148571 -1.8599e-17)
(0.25864 0.00146263 -1.28601e-17)
(0.259787 0.00144002 -1.16315e-17)
(0.0949354 0.00361049 -1.67621e-16)
(0.098276 0.00353359 -1.59499e-16)
(0.101547 0.00345841 -1.53196e-16)
(0.10475 0.00338493 -1.51296e-16)
(0.107885 0.00331314 -1.50527e-16)
(0.110956 0.00324302 -1.52572e-16)
(0.113963 0.00317454 -1.47832e-16)
(0.116908 0.00310769 -1.48146e-16)
(0.119792 0.00304243 -1.42511e-16)
(0.122617 0.00297873 -1.41955e-16)
(0.125384 0.00291658 -1.34414e-16)
(0.128094 0.00285593 -1.25587e-16)
(0.130749 0.00279677 -1.25477e-16)
(0.13335 0.00273905 -1.28213e-16)
(0.135899 0.00268275 -1.20381e-16)
(0.138396 0.00262784 -1.16453e-16)
(0.140843 0.00257428 -1.14731e-16)
(0.143241 0.00252204 -1.1745e-16)
(0.145592 0.0024711 -1.12888e-16)
(0.147896 0.00242142 -1.06286e-16)
(0.150155 0.00237296 -1.06866e-16)
(0.152369 0.00232571 -1.103e-16)
(0.15454 0.00227963 -1.03631e-16)
(0.156669 0.00223468 -1.06596e-16)
(0.158757 0.00219085 -1.02373e-16)
(0.160804 0.0021481 -1.02107e-16)
(0.162813 0.0021064 -9.25811e-17)
(0.164783 0.00206573 -8.57719e-17)
(0.166716 0.00202605 -8.42443e-17)
(0.168613 0.00198735 -8.34855e-17)
(0.170474 0.00194959 -8.69445e-17)
(0.1723 0.00191275 -8.47723e-17)
(0.174093 0.00187681 -8.75579e-17)
(0.175852 0.00184174 -8.24824e-17)
(0.177579 0.00180752 -8.24548e-17)
(0.179275 0.00177412 -7.24174e-17)
(0.18094 0.00174153 -6.59962e-17)
(0.182575 0.00170971 -6.76306e-17)
(0.184181 0.00167865 -6.91149e-17)
(0.185758 0.00164833 -6.47492e-17)
(0.187307 0.00161873 -5.71767e-17)
(0.188828 0.00158983 -5.92017e-17)
(0.190323 0.0015616 -5.98001e-17)
(0.191792 0.00153404 -5.53971e-17)
(0.193236 0.00150711 -5.03863e-17)
(0.194655 0.00148081 -4.90327e-17)
(0.196049 0.00145512 -5.40516e-17)
(0.19742 0.00143002 -5.12898e-17)
(0.198767 0.00140549 -5.34865e-17)
(0.200092 0.00138152 -4.85251e-17)
(0.201394 0.00135809 -4.92208e-17)
(0.202675 0.00133519 -4.2543e-17)
(0.203934 0.0013128 -3.48276e-17)
(0.205173 0.00129092 -3.31317e-17)
(0.206391 0.00126952 -3.33131e-17)
(0.20759 0.00124859 -3.75192e-17)
)
;

boundaryField
{
    inlet
    {
        type            uniformFixedValue;
        uniformValue    constant (1 0 0);
        value           nonuniform 0();
    }
    outlet
    {
        type            pressureInletOutletVelocity;
        value           nonuniform 0();
    }
    wall
    {
        type            fixedValue;
        value           nonuniform 0();
    }
    wedge1
    {
        type            wedge;
    }
    wedge2
    {
        type            wedge;
    }
    axis
    {
        type            empty;
    }
    procBoundary40to34
    {
        type            processor;
        value           nonuniform List<vector> 
68
(
(0.427319 0.00559758 -9.77875e-17)
(0.42948 0.00550459 -9.48081e-17)
(0.431608 0.00541364 -9.15508e-17)
(0.433702 0.00532469 -8.79726e-17)
(0.435763 0.00523768 -8.23497e-17)
(0.437792 0.00515256 -7.07489e-17)
(0.43979 0.00506927 -7.16111e-17)
(0.441756 0.00498778 -6.71621e-17)
(0.443693 0.00490803 -6.33306e-17)
(0.4456 0.00482998 -6.04792e-17)
(0.447478 0.00475358 -5.83364e-17)
(0.449327 0.00467879 -5.56046e-17)
(0.451149 0.00460557 -5.2083e-17)
(0.452944 0.00453388 -4.67151e-17)
(0.454711 0.00446367 -3.83689e-17)
(0.456453 0.00439491 -3.76733e-17)
(0.458169 0.00432756 -3.56938e-17)
(0.45986 0.00426158 -3.03139e-17)
(0.461526 0.00419694 -2.22364e-17)
(0.463167 0.0041336 -2.33009e-17)
(0.234205 0.0116972 -3.20253e-16)
(0.239095 0.0114561 -3.1187e-16)
(0.24389 0.0112201 -3.02499e-16)
(0.24859 0.0109894 -2.98285e-16)
(0.253199 0.0107638 -2.93956e-16)
(0.257717 0.0105432 -2.9087e-16)
(0.262147 0.0103277 -2.84931e-16)
(0.266492 0.0101171 -2.81166e-16)
(0.270751 0.00991138 -2.74736e-16)
(0.274929 0.00971044 -2.68699e-16)
(0.279026 0.00951421 -2.59522e-16)
(0.283044 0.0093226 -2.48605e-16)
(0.286985 0.00913551 -2.47737e-16)
(0.290851 0.00895286 -2.43163e-16)
(0.294643 0.00877455 -2.38636e-16)
(0.298364 0.0086005 -2.28126e-16)
(0.302014 0.00843061 -2.26401e-16)
(0.305595 0.00826479 -2.24839e-16)
(0.30911 0.00810294 -2.1754e-16)
(0.312558 0.00794498 -2.07052e-16)
(0.315943 0.00779081 -2.05977e-16)
(0.319266 0.00764034 -2.07965e-16)
(0.322527 0.00749348 -2.01487e-16)
(0.325728 0.00735014 -1.98252e-16)
(0.328871 0.00721024 -1.92802e-16)
(0.331957 0.00707369 -1.86114e-16)
(0.334987 0.0069404 -1.76192e-16)
(0.337962 0.00681029 -1.65516e-16)
(0.340885 0.00668329 -1.6566e-16)
(0.343755 0.0065593 -1.60397e-16)
(0.346575 0.00643826 -1.62405e-16)
(0.349345 0.00632008 -1.56935e-16)
(0.352066 0.00620469 -1.53913e-16)
(0.35474 0.00609202 -1.47411e-16)
(0.357367 0.005982 -1.46503e-16)
(0.359949 0.00587455 -1.38199e-16)
(0.362487 0.00576961 -1.27151e-16)
(0.364982 0.0056671 -1.25796e-16)
(0.367434 0.00556698 -1.2515e-16)
(0.369844 0.00546916 -1.21976e-16)
(0.372214 0.0053736 -1.11455e-16)
(0.374544 0.00528023 -1.11216e-16)
(0.376836 0.00518899 -1.0968e-16)
(0.37909 0.00509982 -1.06046e-16)
(0.381306 0.00501267 -9.52877e-17)
(0.383486 0.00492749 -9.5631e-17)
(0.385631 0.00484423 -9.36504e-17)
(0.385631 0.00484423 -9.36504e-17)
)
;
    }
    procBoundary40to35
    {
        type            processor;
        value           uniform (0.423658 0.00345818 -2.0978e-17);
    }
    procBoundary40to39
    {
        type            processor;
        value           nonuniform List<vector> 4((0.19728 0.0100318 -2.95882e-16) (0.167582 0.00823253 -2.6463e-16) (0.140085 0.00656385 -2.33185e-16) (0.114746 0.0050435 -2.01272e-16));
    }
    procBoundary40to41
    {
        type            processor;
        value           nonuniform List<vector> 4((0.382728 0.00288225 -2.08507e-17) (0.341975 0.00234768 -2.23405e-17) (0.301378 0.00185831 -2.39461e-17) (0.260916 0.00141788 -1.93493e-17));
    }
    procBoundary40to45
    {
        type            processor;
        value           uniform (0.0915235 0.00368911 -1.69323e-16);
    }
    procBoundary40to46
    {
        type            processor;
        value           nonuniform List<vector> 
68
(
(0.208769 0.00122813 -3.27405e-17)
(0.209929 0.00120811 -3.86054e-17)
(0.211071 0.00118853 -3.332e-17)
(0.212194 0.00116937 -3.40584e-17)
(0.2133 0.00115062 -2.65606e-17)
(0.214388 0.00113227 -1.99961e-17)
(0.215459 0.00111432 -1.91953e-17)
(0.216513 0.00109674 -2.28645e-17)
(0.217551 0.00107954 -1.63391e-17)
(0.218573 0.00106269 -1.08959e-17)
(0.219579 0.0010462 -1.01556e-17)
(0.073296 0.00246392 -1.35879e-16)
(0.0761555 0.00241112 -1.29535e-16)
(0.0789548 0.00235951 -1.25014e-16)
(0.081695 0.00230908 -1.2265e-16)
(0.0843776 0.00225981 -1.21492e-16)
(0.0870039 0.0022117 -1.23521e-16)
(0.0895752 0.00216472 -1.19458e-16)
(0.0920928 0.00211885 -1.20246e-16)
(0.0945579 0.00207409 -1.14561e-16)
(0.0969717 0.00203042 -1.14919e-16)
(0.0993356 0.0019878 -1.08091e-16)
(0.101651 0.00194623 -1.03044e-16)
(0.103918 0.00190567 -1.01339e-16)
(0.106139 0.00186611 -1.04099e-16)
(0.108315 0.00182754 -9.83711e-17)
(0.110446 0.00178991 -9.33157e-17)
(0.112534 0.00175322 -9.2336e-17)
(0.11458 0.00171745 -9.60784e-17)
(0.116586 0.00168256 -9.02796e-17)
(0.118551 0.00164854 -8.57092e-17)
(0.120476 0.00161537 -8.64163e-17)
(0.122364 0.00158302 -8.99716e-17)
(0.124215 0.00155148 -8.2462e-17)
(0.126029 0.00152072 -8.60947e-17)
(0.127808 0.00149073 -8.1858e-17)
(0.129553 0.00146148 -8.26195e-17)
(0.131263 0.00143296 -7.3447e-17)
(0.132941 0.00140514 -6.99304e-17)
(0.134587 0.00137801 -6.83355e-17)
(0.136202 0.00135155 -6.66227e-17)
(0.137786 0.00132574 -7.06633e-17)
(0.13934 0.00130056 -6.73121e-17)
(0.140865 0.00127599 -6.95751e-17)
(0.142362 0.00125202 -6.49631e-17)
(0.143831 0.00122864 -6.59642e-17)
(0.145274 0.00120582 -5.82474e-17)
(0.146689 0.00118356 -5.31798e-17)
(0.14808 0.00116182 -5.38093e-17)
(0.149444 0.00114061 -5.61103e-17)
(0.150785 0.00111991 -5.24542e-17)
(0.152101 0.0010997 -4.70544e-17)
(0.153394 0.00107997 -4.8306e-17)
(0.154665 0.0010607 -4.90201e-17)
(0.155912 0.00104188 -4.53782e-17)
(0.157138 0.00102351 -4.07936e-17)
(0.158343 0.00100556 -3.86593e-17)
(0.159527 0.000988033 -4.41462e-17)
(0.160691 0.000970908 -4.13195e-17)
(0.161835 0.000954176 -4.29312e-17)
(0.162959 0.000937827 -3.91125e-17)
(0.164064 0.00092185 -3.95815e-17)
(0.165151 0.000906236 -3.28091e-17)
(0.16622 0.000890973 -2.92368e-17)
(0.16727 0.000876053 -2.77241e-17)
(0.168304 0.000861465 -2.71671e-17)
(0.208769 0.00122813 -3.27405e-17)
(0.16932 0.000847202 -3.02841e-17)
)
;
    }
}


// ************************************************************************* //
