/*--------------------------------*- C++ -*----------------------------------*\
  =========                 |
  \\      /  F ield         | OpenFOAM: The Open Source CFD Toolbox
   \\    /   O peration     | Website:  https://openfoam.org
    \\  /    A nd           | Version:  7
     \\/     M anipulation  |
\*---------------------------------------------------------------------------*/
FoamFile
{
    version     2.0;
    format      ascii;
    class       volVectorField;
    location    "7";
    object      U;
}
// * * * * * * * * * * * * * * * * * * * * * * * * * * * * * * * * * * * * * //

dimensions      [0 1 -1 0 0 0 0];

internalField   nonuniform List<vector> 
12400
(
(-0.00137861 0.00170923 -7.12697e-21)
(-0.0075668 0.00417631 -2.66052e-20)
(-0.0199579 0.00596621 4.92934e-21)
(-0.036365 0.00724547 1.90592e-20)
(-0.0557109 0.00813144 8.27904e-21)
(-0.0773282 0.00872231 -2.0533e-20)
(-0.100638 0.00910287 -6.65e-21)
(-0.12521 0.00934266 -2.63529e-21)
(-0.150758 0.00949493 -2.49296e-20)
(-0.177098 0.00959573 -4.94366e-21)
(-0.204112 0.00966407 -1.91276e-20)
(-0.231704 0.00970356 3.25562e-21)
(-0.259765 0.00970529 -1.03163e-20)
(-0.288136 0.00965106 1.91212e-20)
(-0.316582 0.00951628 -2.54791e-20)
(-0.344777 0.00927255 -2.79055e-20)
(-0.372319 0.00889417 -8.24001e-21)
(-0.398677 0.00836069 4.65783e-20)
(-0.422997 0.00762249 -4.08382e-20)
(-0.444875 0.00677154 5.93009e-21)
(-0.0015899 0.0050566 1.0472e-20)
(-0.00794657 0.0123745 1.71139e-20)
(-0.0202183 0.0177017 5.60244e-21)
(-0.0363265 0.021521 1.6621e-20)
(-0.0552426 0.0241741 -3.99835e-21)
(-0.0763207 0.025948 2.55872e-20)
(-0.0989909 0.0270921 9.7024e-21)
(-0.12282 0.0278115 2.31026e-20)
(-0.147505 0.0282643 -1.34881e-20)
(-0.172841 0.028558 3.3087e-20)
(-0.198678 0.0287501 1.09048e-19)
(-0.224885 0.0288518 -1.87064e-20)
(-0.251312 0.0288371 2.83263e-20)
(-0.277752 0.0286515 -1.7479e-20)
(-0.303917 0.028221 4.7297e-20)
(-0.329414 0.0274596 -6.01365e-21)
(-0.353764 0.0262863 2.74322e-20)
(-0.376378 0.0246482 -1.73763e-19)
(-0.396227 0.0224196 1.75199e-20)
(-0.4125 0.0197364 -2.58502e-20)
(-0.00199609 0.00819583 3.38884e-20)
(-0.00867977 0.0201189 3.56743e-20)
(-0.0207234 0.0288559 -8.10137e-21)
(-0.0362536 0.0351585 -1.80974e-20)
(-0.0543342 0.0395619 -7.14759e-21)
(-0.0743605 0.0425212 2.60299e-20)
(-0.0957801 0.0444345 3.9012e-20)
(-0.118153 0.0456332 -8.79443e-20)
(-0.141151 0.0463746 2.58309e-20)
(-0.164524 0.0468364 -3.27722e-20)
(-0.188066 0.0471147 -5.78746e-20)
(-0.211582 0.0472307 -1.16736e-20)
(-0.234843 0.0471429 -1.79432e-20)
(-0.257562 0.0467618 -4.21153e-20)
(-0.279354 0.045964 5.20395e-20)
(-0.299718 0.0446041 -4.9977e-20)
(-0.31804 0.0425352 6.65117e-21)
(-0.333645 0.0396839 1.70847e-19)
(-0.345324 0.0359484 -1.2387e-19)
(-0.351099 0.0310451 1.08336e-19)
(-0.00256621 0.0110057 -2.50174e-20)
(-0.00971641 0.0271399 4.75815e-20)
(-0.0214432 0.0390771 -6.88058e-20)
(-0.0361546 0.0477646 3.22337e-20)
(-0.0530407 0.0538849 -1.77324e-19)
(-0.0715536 0.0580275 -1.10232e-19)
(-0.0911665 0.0607158 7.02372e-20)
(-0.111433 0.0623913 1.73495e-19)
(-0.131989 0.0634023 -7.24915e-20)
(-0.152528 0.0639931 -5.05456e-20)
(-0.17277 0.0642998 -7.41021e-20)
(-0.19243 0.0643567 1.5379e-19)
(-0.211187 0.0641108 1.95411e-19)
(-0.228646 0.0634406 -1.57194e-19)
(-0.244314 0.0621749 -1.31121e-19)
(-0.257572 0.0601095 5.10496e-20)
(-0.26765 0.0570181 -1.14526e-19)
(-0.273749 0.0527828 -4.9352e-21)
(-0.274913 0.047591 2.0474e-19)
(-0.266412 0.0398564 7.07899e-20)
(-0.00325817 0.0133894 9.95449e-20)
(-0.0109879 0.0332151 3.1795e-20)
(-0.0223366 0.048065 1.09889e-19)
(-0.0360413 0.0589929 -3.36009e-20)
(-0.0514396 0.0667716 1.73119e-19)
(-0.0680502 0.0720835 1.06109e-19)
(-0.0853788 0.0755463 -1.28955e-19)
(-0.102974 0.0776915 -1.68548e-19)
(-0.120435 0.0789459 1.56941e-19)
(-0.13739 0.0796159 -4.50228e-20)
(-0.153478 0.0798783 6.84881e-20)
(-0.168319 0.0797849 -2.75534e-19)
(-0.181485 0.0792776 9.9898e-20)
(-0.192476 0.0782094 3.87593e-20)
(-0.200693 0.0763655 2.16029e-20)
(-0.205428 0.0734883 8.30437e-20)
(-0.205797 0.0692691 2.25354e-19)
(-0.200679 0.0634271 6.49727e-21)
(-0.190584 0.0569627 -7.25771e-20)
(-0.165202 0.0458342 7.2925e-20)
(-0.00402339 0.0152812 6.90721e-20)
(-0.0124142 0.0381822 3.44146e-20)
(-0.0233553 0.0555867 -1.7898e-19)
(-0.0359289 0.0685601 -1.07685e-19)
(-0.0496256 0.0779041 -4.27035e-20)
(-0.0640345 0.0843488 1.44277e-19)
(-0.0786986 0.0885718 1.73261e-19)
(-0.0931658 0.0911698 -2.13733e-20)
(-0.107 0.0926336 -4.18132e-20)
(-0.11977 0.0933248 -3.72981e-20)
(-0.131031 0.0934608 -1.22867e-19)
(-0.140312 0.093116 2.8368e-19)
(-0.147088 0.0922354 -8.70979e-22)
(-0.150766 0.0906564 -1.15853e-19)
(-0.15066 0.0881303 -1.17675e-20)
(-0.146014 0.0843535 2.39739e-20)
(-0.135993 0.0789715 8.18256e-20)
(-0.118537 0.0713302 -3.07475e-19)
(-0.097746 0.063637 1.43448e-19)
(-0.0542188 0.0494321 -1.26913e-19)
(-0.00481207 0.0166495 -1.15449e-19)
(-0.0139118 0.0419478 6.72512e-20)
(-0.0244489 0.0614881 8.06336e-20)
(-0.035835 0.0762586 6.96303e-20)
(-0.0477039 0.0870311 1.51822e-19)
(-0.0597119 0.0945388 2.22688e-20)
(-0.0714409 0.0994837 -2.18922e-20)
(-0.0824438 0.102502 6.78303e-20)
(-0.092258 0.104131 -1.02429e-19)
(-0.1004 0.104778 -9.98068e-21)
(-0.106357 0.104701 5.21395e-20)
(-0.109577 0.104 -2.41491e-19)
(-0.109456 0.102633 -8.29367e-20)
(-0.105332 0.100434 7.82452e-20)
(-0.0964627 0.0971361 -1.94074e-19)
(-0.0820493 0.0923979 2.2082e-19)
(-0.0616659 0.0859015 2.76331e-20)
(-0.0313827 0.0767012 -3.43566e-20)
(-0.000707133 0.0668837 -3.95292e-19)
(0.0604462 0.0509284 2.38609e-19)
(-0.00557844 0.0174974 -4.58474e-20)
(-0.0154023 0.0444899 -4.99412e-20)
(-0.0255704 0.0657004 -2.37636e-19)
(-0.0357789 0.0819659 -1.06295e-19)
(-0.045782 0.0939788 -3.65307e-19)
(-0.0552926 0.102436 -3.13365e-20)
(-0.0639306 0.10803 -1.85356e-19)
(-0.0712599 0.111412 -1.34401e-19)
(-0.0768025 0.113148 3.0092e-19)
(-0.0800384 0.11368 5.25887e-20)
(-0.0804037 0.113301 1.32887e-19)
(-0.0772875 0.112141 1.71738e-19)
(-0.0700306 0.110179 -5.75708e-20)
(-0.0579304 0.107259 -2.02441e-19)
(-0.0402269 0.103112 1.85625e-19)
(-0.0160022 0.0973802 1.81831e-19)
(0.0144085 0.0898037 -1.90787e-19)
(0.0573408 0.0792128 2.75418e-19)
(0.0964205 0.0672087 4.42711e-19)
(0.176534 0.0497623 1.28936e-19)
(-0.00628545 0.0178598 1.21613e-19)
(-0.01682 0.0458553 1.47833e-19)
(-0.0266803 0.0682405 7.27472e-20)
(-0.0357798 0.0856492 1.82751e-19)
(-0.0439596 0.0986593 8.49178e-20)
(-0.0509736 0.1079 2.27819e-19)
(-0.0564748 0.11403 2.00083e-19)
(-0.0600432 0.117688 -8.02351e-20)
(-0.0611979 0.119452 -1.31861e-19)
(-0.0594003 0.119788 2.37926e-19)
(-0.0540567 0.119018 -1.5401e-19)
(-0.0445221 0.117304 1.15083e-19)
(-0.0301049 0.114648 1.60691e-19)
(-0.0100827 0.110918 1.83793e-19)
(0.016279 0.10586 -5.48964e-19)
(0.0501516 0.0991201 -2.71262e-19)
(0.0898942 0.0904091 -7.73103e-20)
(0.146143 0.0784918 3.2945e-19)
(0.191112 0.0652011 -7.38638e-19)
(0.292683 0.045687 -2.91252e-19)
(-0.00690892 0.0177993 1.80786e-19)
(-0.0181181 0.0461505 -2.19858e-19)
(-0.0277501 0.0692043 -2.3218e-19)
(-0.0358542 0.0873643 -2.42684e-19)
(-0.0423181 0.101075 -1.51806e-19)
(-0.0469173 0.110879 -3.65837e-20)
(-0.0493303 0.11738 -2.52571e-19)
(-0.0491556 0.121191 3.18474e-19)
(-0.0459202 0.122883 9.39681e-20)
(-0.0390833 0.122933 9.30861e-20)
(-0.0280411 0.121685 -3.83976e-19)
(-0.0121338 0.119331 5.9977e-20)
(0.00934732 0.115904 -5.03052e-20)
(0.0371432 0.111299 -1.55005e-20)
(0.0719254 0.105286 -2.03879e-19)
(0.115365 0.097591 2.75478e-19)
(0.163803 0.0876365 -6.03855e-20)
(0.2345 0.0750001 -7.319e-19)
(0.283636 0.0603389 1.07529e-19)
(0.409793 0.0392831 5.44365e-19)
(-0.00743944 0.0173951 1.28723e-19)
(-0.0192737 0.0455303 -4.20607e-20)
(-0.0287633 0.0687565 2.43792e-19)
(-0.0360111 0.0872482 1.22885e-19)
(-0.040908 0.101316 1.77476e-19)
(-0.0432294 0.111412 1.63804e-20)
(-0.0426685 0.118074 3.43092e-19)
(-0.0388411 0.121876 -3.12119e-19)
(-0.031288 0.123369 -1.44924e-19)
(-0.019476 0.123034 -6.06258e-20)
(-0.00280062 0.121229 3.81558e-19)
(0.0194066 0.118171 -6.86562e-20)
(0.047875 0.113928 6.0975e-20)
(0.0833973 0.108436 2.53666e-19)
(0.126571 0.101472 2.49708e-19)
(0.179854 0.093014 -4.46249e-19)
(0.237063 0.0816533 -2.51904e-19)
(0.323639 0.0692846 1.4754e-19)
(0.376845 0.0527504 4.67813e-19)
(0.531033 0.031584 -6.52966e-20)
(-0.00787908 0.0167391 -1.70406e-19)
(-0.0202835 0.044182 -9.49641e-20)
(-0.0297143 0.0671123 -1.32437e-19)
(-0.0362465 0.0855066 -1.29343e-19)
(-0.0397349 0.0995578 1.48413e-19)
(-0.0399338 0.109633 -2.90612e-19)
(-0.0365372 0.116204 2.89001e-19)
(-0.0291709 0.119802 1.96805e-20)
(-0.0173862 0.120954 -2.52225e-19)
(-0.000654185 0.120132 -5.82319e-20)
(0.0216378 0.117706 -2.41272e-19)
(0.0501858 0.113919 1.09602e-19)
(0.0857731 0.108878 -7.75518e-20)
(0.129314 0.10257 -4.85096e-19)
(0.181378 0.0947543 2.32829e-20)
(0.245371 0.0859064 1.61644e-19)
(0.312689 0.0731126 3.64314e-19)
(0.416356 0.0621031 6.52275e-19)
(0.475892 0.0433944 1.15955e-19)
(0.659291 0.0242587 -7.5037e-19)
(-0.00824548 0.0159264 -2.35197e-19)
(-0.021164 0.0423037 -3.34835e-20)
(-0.030601 0.0645175 4.73449e-19)
(-0.0365328 0.0823958 -2.13624e-19)
(-0.0387445 0.0960442 1.07386e-20)
(-0.036949 0.105762 -2.09097e-19)
(-0.0308236 0.111969 -2.02465e-19)
(-0.0199888 0.115152 3.2091e-20)
(-0.00398944 0.115813 1.09628e-19)
(0.0177213 0.114417 4.12887e-19)
(0.0457974 0.111344 -1.32558e-19)
(0.0810113 0.106866 -5.78612e-19)
(0.124266 0.101135 4.18777e-19)
(0.176688 0.0942163 3.71589e-19)
(0.238916 0.0858168 2.47573e-19)
(0.31511 0.0770908 6.35828e-19)
(0.395233 0.0633302 -2.12126e-19)
(0.515988 0.0545387 -1.01989e-18)
(0.586358 0.0341281 1.61965e-19)
(0.793806 0.0192594 2.08308e-19)
(-0.00856486 0.0150444 -1.21786e-19)
(-0.0219435 0.0400894 1.63096e-19)
(-0.0314165 0.0612266 -1.64682e-19)
(-0.0368079 0.0782014 2.62539e-19)
(-0.0378072 0.0910728 -3.03529e-19)
(-0.0340658 0.1001 2.83511e-19)
(-0.0252226 0.105666 5.73797e-20)
(-0.0108657 0.108228 -3.09259e-19)
(0.00950013 0.108269 2.60921e-19)
(0.0364849 0.10625 -2.86106e-19)
(0.0708434 0.102568 3.59991e-19)
(0.1135 0.0975347 1.97298e-19)
(0.165557 0.0913606 1.59947e-19)
(0.228404 0.0842107 -2.51221e-19)
(0.302831 0.0757409 -4.49123e-20)
(0.393069 0.0677079 -3.38248e-19)
(0.489164 0.0542007 2.47755e-19)
(0.624801 0.047873 1.72167e-20)
(0.710687 0.0273347 -4.42553e-19)
(0.928565 0.0180778 2.03532e-19)
(-0.00886736 0.0141666 2.76787e-20)
(-0.0226516 0.0377111 1.04684e-19)
(-0.032137 0.0574814 2.29573e-20)
(-0.0369632 0.0732151 8.6842e-20)
(-0.0367045 0.0849719 2.09319e-19)
(-0.0309318 0.0930043 1.97261e-19)
(-0.0192162 0.0976823 1.40697e-19)
(-0.00107446 0.0994519 1.78271e-19)
(0.0240809 0.0987917 -3.64165e-19)
(0.0569889 0.0961714 -5.28475e-20)
(0.0985817 0.0920191 -5.91052e-19)
(0.150009 0.0866999 -1.88629e-19)
(0.212618 0.0804991 -2.1923e-19)
(0.287987 0.0736902 3.61861e-19)
(0.376964 0.0659482 -5.82335e-19)
(0.482752 0.0591867 1.12364e-19)
(0.59658 0.0476688 5.10807e-20)
(0.742409 0.0434451 6.21207e-19)
(0.844777 0.0249532 -3.08347e-19)
(1.05365 0.0208575 2.47071e-19)
(-0.00918103 0.0133468 3.62254e-19)
(-0.0233066 0.0353048 1.31949e-19)
(-0.032709 0.0534915 2.40958e-19)
(-0.0368318 0.0677122 2.19632e-19)
(-0.0351214 0.0780763 3.76151e-20)
(-0.0270467 0.0848663 -4.77438e-19)
(-0.0120747 0.088469 -3.54398e-19)
(0.0104003 0.0893425 -3.22742e-19)
(0.0411233 0.0879813 3.0724e-19)
(0.0810354 0.0848844 1.86562e-19)
(0.131312 0.0805298 6.71022e-19)
(0.19335 0.0753536 -5.55715e-19)
(0.26867 0.0697248 2.09576e-19)
(0.358747 0.0640009 -4.0779e-19)
(0.464043 0.0579842 3.10412e-19)
(0.585543 0.053075 -1.12265e-19)
(0.715442 0.0451104 1.57658e-19)
(0.864732 0.042348 -5.68241e-19)
(0.97795 0.0275698 4.69623e-19)
(1.15956 0.0265854 2.14581e-19)
(-0.00952552 0.0126154 -4.99429e-19)
(-0.0239042 0.0329611 2.05773e-19)
(-0.0330381 0.0494193 -3.2701e-19)
(-0.0361822 0.0619312 -3.09704e-19)
(-0.0326466 0.0707034 1.1313e-19)
(-0.0217736 0.0760851 5.70226e-19)
(-0.00288433 0.0785115 -4.17655e-19)
(0.0248071 0.0784808 5.36686e-20)
(0.062268 0.0765293 -1.20889e-19)
(0.110696 0.0732092 -1.2075e-19)
(0.171517 0.0690677 3.1305e-19)
(0.246285 0.0646213 7.00991e-19)
(0.336411 0.0603171 -2.59204e-20)
(0.442714 0.0565189 6.17103e-20)
(0.564431 0.0531989 -2.47603e-20)
(0.699414 0.0506894 -4.2225e-19)
(0.839486 0.0469918 4.14974e-19)
(0.984187 0.0449378 6.74839e-19)
(1.09731 0.0343308 1.9713e-19)
(1.24047 0.0335249 -3.8507e-19)
(-0.00990637 0.0119781 -1.2829e-19)
(-0.024407 0.0307214 4.18347e-19)
(-0.0329813 0.045371 -1.39012e-20)
(-0.0347176 0.0560594 2.97952e-19)
(-0.0287837 0.0631312 1.38584e-19)
(-0.0143689 0.0670373 1.3404e-19)
(0.00939492 0.0682937 -1.68175e-19)
(0.0435256 0.0674677 2.91861e-19)
(0.0892543 0.065165 5.16611e-20)
(0.148033 0.0620139 -1.7859e-19)
(0.221439 0.0586423 -1.05383e-19)
(0.310903 0.0556374 -4.76835e-19)
(0.417208 0.0534811 -4.86222e-19)
(0.539726 0.0524155 1.16374e-19)
(0.675459 0.0524589 -4.01226e-20)
(0.818755 0.0526834 -1.67417e-19)
(0.959926 0.0528682 -5.67455e-19)
(1.09175 0.0506261 -6.96846e-19)
(1.19325 0.0436503 -8.1843e-19)
(1.2957 0.0400353 9.27817e-20)
(-0.0103109 0.0114182 2.70541e-20)
(-0.0247387 0.0285795 -3.77567e-19)
(-0.0323449 0.0413948 -3.57563e-19)
(-0.0320831 0.0502242 -2.397e-19)
(-0.0229739 0.0555825 4.32935e-19)
(-0.0040283 0.058054 -9.40187e-19)
(0.0258464 0.0582646 1.9343e-19)
(0.0679284 0.0568793 -1.11048e-19)
(0.123703 0.0545974 3.22625e-19)
(0.194776 0.0521377 4.02743e-20)
(0.282619 0.0502026 -5.0513e-19)
(0.388057 0.0494045 2.25144e-19)
(0.510506 0.0501604 7.26064e-20)
(0.647041 0.052427 2.2914e-19)
(0.791686 0.0559811 -2.45386e-19)
(0.93567 0.0588187 4.44756e-19)
(1.06807 0.0615835 -1.92073e-19)
(1.18025 0.0582925 1.02548e-19)
(1.26229 0.0540783 -6.8068e-20)
(1.3286 0.0450326 -2.66902e-19)
(-0.0107064 0.0109007 4.16067e-19)
(-0.0247823 0.0264896 -7.84873e-20)
(-0.0308886 0.0374863 -4.96437e-20)
(-0.0278796 0.0444936 2.88406e-19)
(-0.0146264 0.048219 -1.4819e-19)
(0.010057 0.0494055 8.46435e-19)
(0.047503 0.0488142 4.00626e-20)
(0.099234 0.0472313 2.64395e-19)
(0.166897 0.0454656 -4.46973e-19)
(0.252023 0.0443238 -3.44224e-19)
(0.355544 0.0445451 5.12922e-19)
(0.477013 0.0466728 -4.25589e-19)
(0.613673 0.0508952 3.46693e-19)
(0.759668 0.0567011 -6.54451e-20)
(0.906049 0.0633205 1.09333e-18)
(1.04221 0.0680884 -2.40267e-20)
(1.15776 0.0716704 3.8501e-19)
(1.24676 0.0669754 5.65236e-19)
(1.30641 0.0644539 3.4125e-19)
(1.34425 0.047657 5.51734e-19)
(-0.0110414 0.0103797 2.00358e-19)
(-0.0243837 0.0243785 -4.51694e-19)
(-0.028334 0.0336007 1.52698e-19)
(-0.0216822 0.0388859 2.5036e-19)
(-0.00315171 0.0411458 2.12363e-19)
(0.0286446 0.0413007 -6.14653e-19)
(0.0752592 0.0402658 2.78628e-19)
(0.138377 0.0389631 1.2826e-19)
(0.21961 0.0383114 5.56049e-20)
(0.320037 0.0391758 2.32647e-19)
(0.439458 0.0422505 -1.38633e-19)
(0.57541 0.0478601 4.29037e-19)
(0.722318 0.055752 -3.65495e-19)
(0.871341 0.0647872 -3.80089e-19)
(1.01154 0.0735212 -6.62409e-19)
(1.1325 0.0790995 -2.11025e-19)
(1.2266 0.0818997 -4.6233e-19)
(1.29245 0.076104 -5.15662e-19)
(1.33096 0.0732246 -4.68136e-19)
(1.34834 0.047284 -2.56488e-19)
(-0.0112488 0.00980552 3.04159e-19)
(-0.0233583 0.022161 -7.83707e-20)
(-0.0243761 0.0296711 -2.11167e-19)
(-0.0130587 0.0333876 -6.87376e-19)
(0.012009 0.0344277 -5.54239e-20)
(0.0523952 0.0339006 7.35156e-19)
(0.109804 0.0328856 -1.6712e-19)
(0.18592 0.0324414 1.44299e-19)
(0.282001 0.0335745 3.46586e-19)
(0.398158 0.0371396 1.0492e-19)
(0.532374 0.0436512 -6.84335e-19)
(0.679526 0.053016 -1.71273e-19)
(0.831037 0.0643338 -1.21249e-19)
(0.97584 0.0757801 3.48738e-19)
(1.10282 0.085389 1.0205e-18)
(1.20386 0.0905409 -3.25682e-19)
(1.27559 0.0916307 -2.16653e-19)
(1.32072 0.0849659 5.6397e-19)
(1.3421 0.078894 3.09967e-19)
(1.35142 0.0592832 1.35009e-19)
(-0.0112504 0.00913217 -3.25944e-19)
(-0.0215009 0.0197563 2.41282e-19)
(-0.0186958 0.0256298 -4.93351e-19)
(-0.00158572 0.0279779 5.62798e-20)
(0.0313612 0.028116 3.48925e-19)
(0.0818413 0.0273454 -7.44484e-19)
(0.15158 0.0269081 -7.85977e-19)
(0.242003 0.0279811 1.44069e-20)
(0.353573 0.0316025 -4.74515e-19)
(0.484822 0.0384991 -3.38406e-19)
(0.631268 0.0488164 5.45618e-19)
(0.78481 0.0618296 8.78237e-19)
(0.934379 0.0758734 -3.47326e-19)
(1.06823 0.0885674 -2.22849e-19)
(1.17708 0.0977929 -5.67918e-19)
(1.25662 0.101539 4.08426e-20)
(1.30778 0.100653 -2.07298e-20)
(1.33586 0.0925902 -2.06441e-20)
(1.34594 0.0858345 6.21925e-20)
(1.34822 0.0659499 7.93808e-19)
(-0.0109615 0.00832401 3.25036e-19)
(-0.0185946 0.0171037 3.60237e-19)
(-0.010971 0.0214307 4.78523e-19)
(0.0131384 0.0226557 1.91509e-19)
(0.0553419 0.0222785 -2.6276e-19)
(0.117368 0.0217863 -1.84599e-19)
(0.20076 0.0225666 -2.57809e-20)
(0.306323 0.0258684 2.69607e-19)
(0.43319 0.0326607 2.51271e-19)
(0.57768 0.0433696 1.63842e-19)
(0.732414 0.0575499 -1.93839e-20)
(0.886557 0.0736851 -4.2073e-19)
(1.0278 0.089402 3.43258e-19)
(1.14559 0.102086 -5.18211e-20)
(1.23408 0.109898 1.63914e-19)
(1.2931 0.111705 7.25176e-20)
(1.32693 0.108749 -5.77743e-20)
(1.34233 0.0997873 1.44185e-19)
(1.34452 0.0917174 -1.13422e-19)
(1.34217 0.0733154 -7.89353e-19)
(-0.0102953 0.00735993 1.68177e-19)
(-0.0144188 0.0141739 -6.47804e-19)
(-0.0008859 0.0170674 3.19259e-19)
(0.0314835 0.0174644 1.34872e-19)
(0.0843075 0.0170285 -3.98948e-19)
(0.159197 0.0174151 3.93545e-19)
(0.25723 0.0201176 2.23945e-19)
(0.378135 0.0263721 -5.38592e-19)
(0.519126 0.0369254 6.62233e-20)
(0.67379 0.0516831 -1.05411e-19)
(0.831842 0.0694083 2.51509e-19)
(0.980624 0.0877702 -1.9286e-19)
(1.10828 0.103947 -2.99639e-19)
(1.20714 0.11551 4.47262e-19)
(1.27541 0.121246 -2.22978e-19)
(1.31651 0.120926 8.93066e-20)
(1.33674 0.116155 -2.19006e-19)
(1.34305 0.106386 1.21249e-21)
(1.3402 0.0976958 -1.99432e-19)
(1.3352 0.080026 2.18747e-19)
(-0.00916557 0.00623538 -4.28614e-20)
(-0.00875655 0.010977 -1.90678e-19)
(0.0118603 0.0125878 -2.18017e-19)
(0.0537768 0.0125108 1.25668e-19)
(0.118519 0.0125455 -3.73509e-20)
(0.20737 0.0144815 2.38579e-19)
(0.320573 0.0198474 1.71658e-19)
(0.456255 0.029734 1.66191e-19)
(0.609154 0.0444587 5.5073e-20)
(0.769898 0.0631772 1.48117e-19)
(0.925848 0.0837559 2.53271e-19)
(1.06396 0.103219 5.80979e-20)
(1.17455 0.118696 -1.29588e-19)
(1.25376 0.128325 9.7856e-20)
(1.30363 0.131681 3.31355e-19)
(1.33007 0.129326 -6.07638e-19)
(1.34018 0.123021 1.98186e-19)
(1.3403 0.112756 2.35797e-19)
(1.33433 0.103471 7.87754e-20)
(1.32748 0.0866165 1.57038e-19)
(-0.00748882 0.00496259 -6.70939e-20)
(-0.00140019 0.00756572 4.16338e-19)
(0.0275438 0.00810053 1.46553e-19)
(0.0802889 0.00797365 -4.52122e-19)
(0.158124 0.0090824 -1.23129e-19)
(0.261721 0.0132927 2.34575e-19)
(0.390049 0.0220574 1.1508e-19)
(0.539086 0.0361364 4.06762e-19)
(0.700707 0.0551772 -1.52845e-20)
(0.862786 0.0774079 1.98823e-20)
(1.01144 0.0998593 -2.13524e-19)
(1.13489 0.11925 -3.40886e-19)
(1.22682 0.133083 -3.7943e-20)
(1.28735 0.140299 -2.19426e-19)
(1.32153 0.141258 1.86918e-19)
(1.3366 0.137095 9.23998e-19)
(1.33947 0.12958 3.65818e-19)
(1.3355 0.118972 -3.63698e-19)
(1.32761 0.109274 -1.83401e-19)
(1.31966 0.0931214 7.58144e-20)
(-0.00518394 0.00356938 3.27155e-19)
(0.0078456 0.00403342 -5.04305e-19)
(0.0464059 0.00377454 -4.844e-19)
(0.111215 0.0041029 6.65769e-19)
(0.203126 0.00695839 2.01591e-19)
(0.321849 0.0141943 -1.25711e-19)
(0.464585 0.0270291 -3.70224e-19)
(0.624691 0.04566 -4.64828e-19)
(0.791089 0.0688353 3.13696e-19)
(0.949623 0.0938016 5.57682e-20)
(1.08663 0.116998 1.70539e-19)
(1.193 0.13526 1.42331e-19)
(1.26634 0.146792 -8.92859e-21)
(1.31025 0.151412 -9.88181e-20)
(1.33172 0.150137 -2.0204e-19)
(1.33829 0.144448 -5.56137e-19)
(1.33615 0.135989 -2.23906e-19)
(1.32954 0.125172 7.51765e-19)
(1.3205 0.115105 1.26524e-19)
(1.31176 0.0995799 -1.90895e-19)
(-0.00217457 0.00209693 -3.4021e-19)
(0.0191546 0.000512688 3.53728e-19)
(0.0686389 -0.000164014 9.16963e-21)
(0.146652 0.00120926 -1.50755e-19)
(0.253355 0.00653894 -5.0052e-20)
(0.387089 0.017537 -4.35927e-20)
(0.542795 0.03498 -2.7078e-19)
(0.710914 0.0582505 3.31151e-19)
(0.877741 0.085042 -5.56472e-19)
(1.02825 0.111735 1.19415e-21)
(1.15047 0.134557 -1.01782e-19)
(1.23889 0.150854 -5.01062e-20)
(1.29492 0.159715 1.21166e-19)
(1.32476 0.161772 -2.71209e-19)
(1.33632 0.158516 -1.62841e-20)
(1.33676 0.151571 1.54475e-19)
(1.33124 0.142379 -3.84854e-19)
(1.32293 0.131408 -1.70412e-21)
(1.31318 0.121005 2.08054e-21)
(1.30391 0.106025 3.38035e-19)
(0.00161074 0.000600025 4.9019e-20)
(0.0326719 -0.0028294 9.70068e-20)
(0.094369 -0.0034445 1.92059e-19)
(0.186574 -0.000354353 -1.04848e-19)
(0.308447 0.00820657 -3.43515e-19)
(0.456511 0.0236356 8.96433e-20)
(0.623045 0.0460227 2.06693e-19)
(0.795557 0.073709 1.13971e-19)
(0.958486 0.103309 3.90742e-19)
(1.09731 0.130619 -1.08323e-19)
(1.20295 0.152076 -6.55232e-20)
(1.27382 0.165826 5.67294e-20)
(1.31453 0.171884 -1.63233e-19)
(1.33292 0.171548 -2.30931e-19)
(1.33701 0.166586 -1.54795e-19)
(1.33312 0.158609 1.27783e-19)
(1.32534 0.148827 3.27061e-19)
(1.31595 0.137718 -1.60412e-19)
(1.30575 0.126977 -2.56191e-19)
(1.29609 0.112457 4.12152e-20)
(0.00623628 -0.000855401 8.71125e-20)
(0.0485078 -0.00579816 2.04652e-20)
(0.123642 -0.00576282 -2.57442e-19)
(0.230813 -0.000214217 3.43637e-19)
(0.367821 0.0123282 7.75459e-20)
(0.528945 0.0327312 -4.08163e-19)
(0.703552 0.0601418 1.57428e-19)
(0.876574 0.0917125 -2.08809e-19)
(1.03169 0.123117 1.07959e-20)
(1.15623 0.149957 3.46423e-20)
(1.24475 0.169257 1.01231e-19)
(1.29933 0.180122 1.1867e-20)
(1.32702 0.183416 4.62984e-19)
(1.3364 0.180919 1.8719e-19)
(1.33499 0.174504 -8.85513e-20)
(1.32811 0.165665 -1.05403e-19)
(1.31883 0.15538 6.19009e-20)
(1.30872 0.144111 6.50604e-20)
(1.29823 0.133018 -1.10518e-19)
(1.28828 0.118876 -1.24394e-19)
(0.0117552 -0.00219296 -1.02116e-19)
(0.0667257 -0.00817614 6.92884e-21)
(0.156407 -0.006795 5.26529e-20)
(0.279041 0.00200077 -1.4485e-19)
(0.430692 0.0192236 2.81069e-19)
(0.603034 0.0449621 1.62411e-19)
(0.782526 0.0771923 -1.65897e-19)
(0.952235 0.111857 -1.10861e-19)
(1.09635 0.143975 1.01223e-19)
(1.20511 0.169375 -1.58755e-19)
(1.27693 0.185947 1.19146e-19)
(1.31704 0.193785 -2.44124e-21)
(1.33401 0.194462 4.22889e-21)
(1.33648 0.190049 -9.28332e-20)
(1.33111 0.182391 2.66244e-19)
(1.32217 0.172801 -2.28972e-20)
(1.31189 0.162055 1.17971e-19)
(1.30131 0.150584 -1.72559e-19)
(1.29063 0.139116 1.34671e-19)
(1.28046 0.125272 -5.68116e-20)
(0.0182061 -0.00332685 1.68118e-19)
(0.0873332 -0.00972968 2.04464e-19)
(0.192505 -0.00621177 1.52565e-19)
(0.330771 0.00663629 -2.19387e-20)
(0.496095 0.0291393 3.22332e-20)
(0.67732 0.0603505 3.03611e-21)
(0.858302 0.0969197 3.59864e-19)
(1.02123 0.133707 -1.07438e-19)
(1.15204 0.165464 7.6256e-20)
(1.24451 0.188622 -3.87541e-19)
(1.30077 0.202099 5.68386e-20)
(1.32843 0.206917 1.74549e-19)
(1.33683 0.205175 -7.92216e-20)
(1.3341 0.199072 1.6614e-19)
(1.32592 0.190327 -2.21613e-19)
(1.31557 0.180051 3.05011e-19)
(1.30463 0.168852 1.03178e-20)
(1.29373 0.157122 -1.06395e-19)
(1.28291 0.145256 3.93194e-21)
(1.27259 0.131633 1.66948e-19)
(0.0256084 -0.00416336 -3.17951e-19)
(0.110273 -0.0102163 8.1939e-20)
(0.231661 -0.00369319 -3.17405e-20)
(0.385361 0.0139919 -2.36446e-19)
(0.562924 0.0422301 -8.80723e-20)
(0.75034 0.0788044 -1.69833e-19)
(0.929452 0.118994 -1.478e-19)
(1.08272 0.156842 -1.60508e-19)
(1.19879 0.18725 1.65917e-19)
(1.2753 0.207551 8.31493e-20)
(1.31756 0.217742 -2.45056e-19)
(1.33481 0.219638 -6.24543e-20)
(1.33648 0.21569 -2.97715e-20)
(1.32992 0.208084 -1.25332e-19)
(1.31977 0.198357 -2.20404e-20)
(1.30846 0.187424 -5.43647e-20)
(1.29707 0.175757 -2.22141e-19)
(1.28595 0.163706 1.10258e-19)
(1.27507 0.151418 1.39986e-19)
(1.26465 0.137942 -3.43468e-20)
(0.0339587 -0.00460314 1.16538e-20)
(0.135417 -0.00939291 -1.49184e-19)
(0.273488 0.00105664 6.99725e-20)
(0.442037 0.0243037 -4.91168e-20)
(0.63 0.0585505 6.09618e-20)
(0.820716 0.100132 2.80454e-19)
(0.994859 0.143045 -1.22327e-19)
(1.13627 0.180882 3.06939e-19)
(1.23701 0.209091 1.54007e-20)
(1.29846 0.226097 1.55161e-19)
(1.32847 0.232942 1.3788e-20)
(1.33722 0.232071 1.09664e-19)
(1.33374 0.226115 2.3642e-20)
(1.32439 0.217148 1.15095e-20)
(1.31287 0.206502 -1.68531e-19)
(1.30092 0.19491 3.05242e-20)
(1.28923 0.182747 1.60476e-19)
(1.27797 0.170313 6.3991e-21)
(1.26706 0.157582 -8.366e-20)
(1.25658 0.144181 3.46565e-20)
(0.0432275 -0.00454411 3.91864e-20)
(0.162565 -0.00702555 1.21427e-19)
(0.317489 0.00829535 1.32337e-19)
(0.499924 0.0377308 -3.63198e-20)
(0.696128 0.0780544 1.75039e-19)
(0.887236 0.124066 -3.52988e-20)
(1.05373 0.168697 2.8974e-19)
(1.18182 0.205504 -3.70056e-19)
(1.26733 0.230818 -6.64699e-20)
(1.31499 0.244251 -6.66844e-20)
(1.33457 0.247784 -8.12637e-20)
(1.33651 0.244319 -1.98563e-20)
(1.32914 0.236525 2.84726e-20)
(1.31781 0.226298 -1.07605e-19)
(1.30534 0.21476 1.12295e-19)
(1.29296 0.20249 -4.98331e-20)
(1.28109 0.189793 -3.97167e-20)
(1.26976 0.176915 -3.72752e-20)
(1.25887 0.163723 -2.39945e-20)
(1.24837 0.150328 -7.97995e-20)
(0.0533575 -0.00388507 1.86009e-19)
(0.191443 -0.00289902 -1.87294e-19)
(0.363073 0.0182293 2.24837e-20)
(0.558084 0.0543476 -2.4121e-20)
(0.760164 0.100603 -6.35847e-20)
(0.948899 0.150286 -1.31852e-19)
(1.10561 0.195586 -2.03532e-20)
(1.21958 0.230445 9.02285e-20)
(1.29046 0.252323 4.19552e-20)
(1.32586 0.262034 -5.17448e-20)
(1.33672 0.26235 5.86205e-20)
(1.33332 0.256462 -1.26999e-20)
(1.32306 0.246964 -1.20889e-19)
(1.31033 0.235539 1.80168e-19)
(1.29724 0.223111 5.08893e-20)
(1.28459 0.210134 -2.88009e-20)
(1.27262 0.196861 3.51476e-20)
(1.26128 0.183484 5.62326e-20)
(1.25046 0.169816 5.72591e-20)
(1.23999 0.15636 6.2418e-20)
(0.0642624 -0.00252975 -1.93889e-19)
(0.221708 0.00317288 1.56569e-19)
(0.409577 0.0310025 6.90899e-20)
(0.615556 0.0741402 -1.42652e-19)
(0.821062 0.125979 -3.10494e-20)
(1.00494 0.178442 -1.20786e-19)
(1.15027 0.223376 4.85789e-20)
(1.24995 0.255492 -8.12953e-20)
(1.30719 0.273543 6.26988e-21)
(1.33189 0.279479 1.34425e-20)
(1.33562 0.276707 2.58675e-20)
(1.3281 0.268551 -9.97455e-20)
(1.31576 0.257449 1.0434e-19)
(1.30208 0.244858 -7.53238e-20)
(1.28858 0.231526 -2.09253e-20)
(1.27579 0.217806 1.06703e-20)
(1.2638 0.203915 -2.45026e-20)
(1.25252 0.189988 -5.87525e-20)
(1.24182 0.175832 -2.57119e-21)
(1.23141 0.162251 -4.29213e-20)
(0.0758283 -0.00039101 -2.4096e-20)
(0.25296 0.011338 -7.37927e-20)
(0.456284 0.0466887 -2.54016e-20)
(0.671399 0.0970084 4.09199e-20)
(0.877914 0.1539 -2.59548e-20)
(1.05481 0.208174 2.65883e-20)
(1.18775 0.251766 6.3213e-20)
(1.27341 0.280478 5.67723e-20)
(1.31824 0.294436 4.55378e-20)
(1.33381 0.29662 -1.03998e-20)
(1.33182 0.290901 -2.75976e-20)
(1.32119 0.280608 3.31026e-20)
(1.30738 0.267971 -1.65468e-20)
(1.29308 0.254224 2.14018e-20)
(1.27937 0.239963 -1.34724e-20)
(1.26655 0.225464 2.94332e-20)
(1.25462 0.210913 -8.19195e-21)
(1.24346 0.196396 3.64481e-20)
(1.23292 0.181741 -9.42522e-21)
(1.22261 0.167974 5.95322e-21)
(0.0879149 0.00260502 -5.81916e-22)
(0.28475 0.0216976 -3.56059e-22)
(0.502457 0.0652863 -8.94235e-21)
(0.724724 0.122772 4.49741e-20)
(0.929971 0.184036 2.92e-20)
(1.09819 0.239123 -2.26931e-20)
(1.21822 0.280485 -1.72619e-20)
(1.29052 0.305267 -5.32389e-21)
(1.3243 0.314975 -2.55144e-20)
(1.33222 0.313479 -1.49462e-21)
(1.32573 0.304954 1.19535e-21)
(1.31282 0.292632 -1.15718e-20)
(1.29802 0.278504 -7.60031e-21)
(1.28337 0.263596 -1.76672e-20)
(1.26959 0.248376 -1.94137e-20)
(1.25684 0.233062 -1.79642e-21)
(1.24504 0.217815 7.56192e-21)
(1.23407 0.202672 8.51296e-21)
(1.22375 0.187512 1.01602e-20)
(1.21359 0.173502 1.49815e-20)
(0.10036 0.00651519 2.93734e-20)
(0.316594 0.0343005 -4.75481e-21)
(0.547355 0.0867175 -8.36404e-21)
(0.774729 0.15118 2.15265e-20)
(0.976647 0.216024 4.32524e-20)
(1.13492 0.270938 -1.92459e-20)
(1.24197 0.30929 -1.57073e-20)
(1.30183 0.329743 -2.9561e-20)
(1.32596 0.335131 -2.67464e-20)
(1.3276 0.330062 5.07993e-21)
(1.31765 0.318864 -4.6965e-21)
(1.30314 0.304596 -1.9989e-21)
(1.28773 0.289002 -1.1235e-20)
(1.27295 0.27292 -1.83659e-20)
(1.25924 0.256711 -4.15183e-21)
(1.24664 0.240551 -1.44572e-21)
(1.23505 0.224576 -5.62946e-22)
(1.22433 0.208779 4.0534e-21)
(1.21429 0.193107 1.61279e-20)
(1.20434 0.178805 1.36061e-20)
(0.112982 0.0113761 -1.79694e-20)
(0.347992 0.0491388 -2.87842e-20)
(0.590269 0.11083 -3.84589e-20)
(0.820712 0.181922 5.15651e-20)
(1.01752 0.249479 4.91433e-20)
(1.16501 0.303282 5.4606e-22)
(1.25937 0.337962 1.84206e-20)
(1.30788 0.353802 5.13296e-20)
(1.32373 0.354873 5.60395e-20)
(1.32033 0.346353 3.61439e-20)
(1.3078 0.332603 -8.86047e-20)
(1.29224 0.316456 3.69674e-20)
(1.27654 0.299408 -1.67304e-20)
(1.26181 0.282135 3.946e-20)
(1.24828 0.264912 -8.99809e-22)
(1.23593 0.24788 -6.7529e-21)
(1.22464 0.231152 3.82696e-21)
(1.21424 0.214679 3.6772e-20)
(1.20453 0.198487 -1.51675e-20)
(1.19486 0.183851 -1.20532e-21)
(0.125587 0.0172018 -5.89977e-20)
(0.378438 0.0661465 1.38342e-19)
(0.630534 0.137404 1.34757e-20)
(0.862088 0.214637 -1.76546e-19)
(1.05231 0.284007 -3.18753e-20)
(1.18856 0.335834 7.50253e-20)
(1.27079 0.366299 -1.72455e-19)
(1.30915 0.377344 -1.33509e-21)
(1.31805 0.374153 1.44957e-20)
(1.3107 0.362318 -4.02625e-21)
(1.29636 0.346124 4.6597e-20)
(1.28019 0.32815 -7.60516e-20)
(1.26447 0.309655 1.17186e-20)
(1.24993 0.291175 -2.77016e-20)
(1.23671 0.272917 -2.1615e-20)
(1.22471 0.254994 2.0895e-20)
(1.21378 0.237495 -2.1578e-21)
(1.20379 0.220334 -5.7508e-20)
(1.19446 0.203611 2.23831e-21)
(1.18511 0.188608 -2.78517e-20)
(0.137974 0.0239821 4.4352e-20)
(0.407441 0.0852003 -7.91202e-20)
(0.667552 0.166156 -6.33044e-21)
(0.89839 0.24893 -1.50703e-19)
(1.08086 0.319209 -9.0326e-20)
(1.20575 0.368284 7.38703e-20)
(1.27665 0.394109 -8.56462e-20)
(1.3061 0.400268 9.4325e-21)
(1.30928 0.392913 6.88058e-20)
(1.29895 0.377901 -1.94105e-20)
(1.28342 0.359363 7.2764e-21)
(1.26703 0.339602 2.32334e-20)
(1.2515 0.319666 -8.01109e-20)
(1.23732 0.29997 1.03288e-19)
(1.22451 0.280664 9.7146e-20)
(1.21295 0.261838 -2.27233e-20)
(1.20249 0.243558 -3.51398e-20)
(1.19297 0.225703 4.08407e-20)
(1.18411 0.208456 2.37527e-20)
(1.17506 0.193051 5.61139e-20)
(0.14994 0.031682 -1.72152e-19)
(0.434536 0.106123 7.92021e-20)
(0.700801 0.19675 -5.73215e-20)