/*--------------------------------*- C++ -*----------------------------------*\
  =========                 |
  \\      /  F ield         | OpenFOAM: The Open Source CFD Toolbox
   \\    /   O peration     | Website:  https://openfoam.org
    \\  /    A nd           | Version:  7
     \\/     M anipulation  |
\*---------------------------------------------------------------------------*/
FoamFile
{
    version     2.0;
    format      ascii;
    class       volVectorField;
    location    "6";
    object      U;
}
// * * * * * * * * * * * * * * * * * * * * * * * * * * * * * * * * * * * * * //

dimensions      [0 1 -1 0 0 0 0];

internalField   nonuniform List<vector> 
433
(
(0.656322 -0.254039 7.61538e-20)
(0.608366 -0.322103 6.7918e-20)
(0.625359 -0.310983 2.94781e-21)
(0.642015 -0.299593 -1.2815e-19)
(0.658383 -0.288 1.04401e-19)
(0.673876 -0.276526 -1.68353e-20)
(0.561291 -0.388592 9.99365e-20)
(0.57908 -0.37921 -2.03301e-19)
(0.59651 -0.369002 2.19047e-20)
(0.613569 -0.358106 -4.34529e-20)
(0.630241 -0.346661 2.77447e-20)
(0.646519 -0.3348 1.68772e-19)
(0.662461 -0.322617 -1.20088e-19)
(0.678136 -0.310173 -1.3347e-20)
(0.692878 -0.297858 7.86649e-20)
(0.533452 -0.436006 3.22152e-20)
(0.551783 -0.429804 -1.17359e-20)
(0.569737 -0.422284 3.22871e-20)
(0.5873 -0.413577 -9.42857e-20)
(0.604466 -0.403821 1.15631e-19)
(0.621231 -0.393159 -1.35372e-19)
(0.637593 -0.381737 8.87965e-22)
(0.653544 -0.369701 7.76897e-20)
(0.669086 -0.357191 -3.66697e-20)
(0.68429 -0.344298 -1.44115e-19)
(0.699251 -0.331074 1.32451e-19)
(0.713225 -0.317986 1.03851e-19)
(0.486405 -0.467851 -1.78226e-20)
(0.505979 -0.468313 -6.3714e-20)
(0.525166 -0.466986 -4.13192e-20)
(0.543942 -0.463937 9.15344e-20)
(0.562287 -0.459256 -8.78411e-20)
(0.580186 -0.453046 -6.1333e-20)
(0.597631 -0.44543 7.79573e-20)
(0.614621 -0.436539 6.29335e-20)
(0.631158 -0.426517 -2.73069e-20)
(0.647248 -0.415511 1.01578e-20)
(0.6629 -0.403672 7.47079e-21)
(0.678118 -0.391152 -9.43776e-20)
(0.69291 -0.378094 4.56218e-20)
(0.707363 -0.364587 1.07248e-19)
(0.721597 -0.350668 -1.42619e-19)
(0.734798 -0.336881 1.31264e-19)
(0.455657 -0.473262 3.06519e-20)
(0.476518 -0.47993 -4.32574e-20)
(0.496981 -0.484659 7.89671e-20)
(0.517009 -0.487453 -9.39357e-20)
(0.536568 -0.488335 -2.32795e-20)
(0.555631 -0.487349 6.04081e-20)
(0.574178 -0.484562 -2.22484e-20)
(0.592196 -0.480058 5.14463e-20)
(0.609679 -0.473942 4.9224e-20)
(0.626628 -0.466336 -5.51289e-20)
(0.643049 -0.457375 -5.49034e-20)
(0.658957 -0.447204 1.94739e-19)
(0.674371 -0.435973 7.44585e-21)
(0.689309 -0.423837 -9.60554e-20)
(0.703787 -0.410951 -8.66664e-20)
(0.717821 -0.397464 1.30887e-19)
(0.731517 -0.383453 -7.0081e-20)
(0.745022 -0.368936 1.26382e-19)
(0.757455 -0.354534 -5.37632e-20)
(0.507411 -0.495515 -2.22916e-20)
(0.528137 -0.500843 -4.38095e-20)
(0.548309 -0.50418 -9.10722e-20)
(0.567895 -0.505545 8.0314e-20)
(0.586872 -0.504976 1.45691e-20)
(0.605225 -0.502534 -3.21948e-20)
(0.622946 -0.498303 -2.75665e-20)
(0.640037 -0.492385 8.05964e-20)
(0.656507 -0.4849 -1.4861e-19)
(0.672373 -0.475985 7.86304e-20)
(0.687659 -0.465786 -7.94356e-20)
(0.702397 -0.454457 2.13251e-19)
(0.716619 -0.442155 -1.39291e-19)
(0.730353 -0.429039 5.91086e-20)
(0.743627 -0.415257 2.53135e-20)
(0.756566 -0.400876 2.1838e-20)
(0.769348 -0.385878 -8.5579e-20)
(0.781027 -0.370959 -3.11657e-20)
(0.580034 -0.517946 -4.59903e-20)
(0.599697 -0.519852 -1.41222e-20)
(0.618635 -0.51977 2.48258e-20)
(0.636836 -0.517757 4.11211e-21)
(0.654299 -0.513891 4.77545e-20)
(0.67103 -0.508271 8.95366e-21)
(0.687047 -0.501016 -1.76221e-20)
(0.702376 -0.492263 -4.80835e-20)
(0.717052 -0.48216 1.70965e-19)
(0.731119 -0.470865 -7.96106e-20)
(0.744624 -0.458536 6.52952e-22)
(0.757608 -0.445337 -4.93632e-20)
(0.770116 -0.431417 -1.25955e-19)
(0.782297 -0.416828 5.95987e-20)
(0.794369 -0.401504 -1.61701e-20)
(0.805322 -0.386191 5.21418e-20)
(0.631711 -0.531182 1.92699e-21)
(0.650666 -0.531653 2.98663e-20)
(0.668769 -0.530145 -7.9324e-21)
(0.686022 -0.526729 8.53895e-22)
(0.702437 -0.521502 7.94076e-21)
(0.718038 -0.514579 -2.24614e-21)
(0.73286 -0.506097 5.31295e-20)
(0.746946 -0.496206 -6.76764e-20)
(0.760351 -0.485068 1.47735e-20)
(0.773137 -0.472849 -6.25534e-20)
(0.785362 -0.459721 1.06554e-19)
(0.797089 -0.445844 -1.33621e-19)
(0.808501 -0.43126 1.24152e-19)
(0.819882 -0.41584 -3.36486e-20)
(0.830169 -0.400324 5.13544e-21)
(0.700789 -0.539629 4.85639e-20)
(0.717897 -0.53674 -6.06051e-20)
(0.734057 -0.531988 8.4474e-20)
(0.749297 -0.525485 -7.40941e-20)
(0.763659 -0.517365 5.82768e-20)
(0.777194 -0.507781 -1.11408e-19)
(0.789965 -0.496899 -8.36754e-21)
(0.802044 -0.484895 3.76691e-20)
(0.813503 -0.471961 2.03703e-20)
(0.824415 -0.458284 1.33652e-19)
(0.83499 -0.443917 -7.26283e-20)
(0.845633 -0.42865 -1.68234e-20)
(0.855329 -0.413163 -4.95532e-20)
(0.765708 -0.539662 -2.96892e-20)
(0.780674 -0.533647 -1.04823e-20)
(0.79466 -0.525952 -4.14627e-20)
(0.807724 -0.516724 4.9464e-20)
(0.819933 -0.506126 -2.13024e-20)
(0.831365 -0.494334 -6.5779e-20)
(0.842091 -0.481541 -3.24364e-20)
(0.852176 -0.467935 1.01002e-19)
(0.861796 -0.453553 2.7343e-20)
(0.871453 -0.438152 -1.25955e-19)
(0.880563 -0.422636 4.12834e-20)
(0.825849 -0.531842 4.82672e-21)
(0.838646 -0.523011 -7.18322e-21)
(0.850565 -0.51271 -2.67193e-21)
(0.861736 -0.501097 -3.63274e-20)
(0.872332 -0.488334 -1.03758e-20)
(0.882609 -0.474576 9.45315e-20)
(0.893 -0.459956 -5.81371e-20)
(0.904329 -0.444881 -2.305e-20)
(0.918249 -0.430747 3.8326e-20)
(0.869746 -0.526931 1.18975e-20)
(0.881597 -0.517114 -3.0187e-20)
(0.892754 -0.505934 2.10675e-20)
(0.903457 -0.493576 2.04412e-20)
(0.914038 -0.480247 -1.0087e-20)
(0.924901 -0.466258 1.7905e-20)
(0.936425 -0.452319 1.92679e-20)
(0.949291 -0.439219 -6.29271e-20)
(0.923592 -0.508974 -1.19429e-20)
(0.93428 -0.497302 3.40755e-20)
(0.944788 -0.48471 -6.36107e-20)
(0.955368 -0.471571 2.67779e-20)
(0.966026 -0.458589 2.97597e-20)
(0.976922 -0.446029 -3.28967e-20)
(0.97429 -0.487454 1.10245e-20)
(0.984165 -0.475103 -5.21628e-21)
(0.993627 -0.462784 3.16979e-20)
(1.0027 -0.450468 -2.40847e-21)
(1.01984 -0.464898 -2.1614e-20)
(1.02745 -0.452814 2.24269e-21)
(0.99986 -0.00620155 -1.03088e-21)
(0.991958 -0.0190835 1.5193e-21)
(0.978619 -0.0347097 1.44559e-21)
(0.960385 -0.0552727 -4.39572e-21)
(0.939807 -0.0826424 1.53679e-20)
(0.916837 -0.120187 -8.54745e-21)
(0.897115 -0.16837 5.22146e-21)
(0.880798 -0.231977 4.39166e-21)
(0.879668 -0.303668 -5.84039e-21)
(0.888054 -0.388524 3.17714e-21)
(0.999849 -0.00589258 4.79563e-21)
(0.991807 -0.0181622 -1.20326e-20)
(0.978116 -0.0330373 -6.02077e-22)
(0.959312 -0.0526437 -1.39121e-21)
(0.937641 -0.0786955 9.59743e-21)
(0.913071 -0.114637 5.24528e-21)
(0.890441 -0.160818 -2.06438e-20)
(0.870726 -0.222693 6.07725e-21)
(0.862486 -0.293301 1.29573e-20)
(0.867878 -0.376263 -1.75175e-20)
(0.999843 -0.00557436 3.358e-21)
(0.991683 -0.0172098 4.11512e-21)
(0.977677 -0.0313045 1.1186e-20)
(0.958368 -0.0499132 2.90149e-21)
(0.935702 -0.0745898 -6.40014e-21)
(0.909679 -0.108819 -2.00865e-20)
(0.884323 -0.152848 1.6984e-20)
(0.861314 -0.21256 1.51337e-20)
(0.846255 -0.281894 4.12674e-21)
(0.846594 -0.362266 8.4946e-21)
(0.99984 -0.00525799 3.38592e-21)
(0.991581 -0.0162613 -3.81823e-21)
(0.977292 -0.0295861 -8.86846e-21)
(0.957533 -0.0472153 -4.56561e-21)
(0.933958 -0.0705528 -3.46782e-21)
(0.90661 -0.103095 1.49862e-20)
(0.878698 -0.145021 -1.00255e-20)
(0.852514 -0.202401 -8.1797e-21)
(0.831037 -0.270373 2.31966e-20)
(0.825212 -0.347947 -4.09769e-20)
(0.999839 -0.00494203 -1.13767e-20)
(0.991497 -0.0153084 1.45503e-20)
(0.976953 -0.0278599 2.91434e-21)
(0.956791 -0.0445019 2.45885e-21)
(0.932383 -0.0664954 2.67072e-21)
(0.903827 -0.0973153 1.48845e-20)
(0.873524 -0.137111 -3.38159e-20)
(0.84429 -0.191929 1.57501e-20)
(0.816842 -0.258284 1.61379e-20)
(0.804254 -0.332999 2.28324e-21)
(0.999839 -0.00462388 6.12125e-21)
(0.991427 -0.0143472 4.32941e-21)
(0.976654 -0.0261163 -4.87472e-21)
(0.956133 -0.0417537 -5.13315e-21)
(0.930961 -0.0623848 -8.11121e-21)
(0.901304 -0.0914268 1.75027e-22)
(0.868776 -0.129031 -6.38097e-21)
(0.836616 -0.181053 2.57263e-20)
(0.803663 -0.24544 6.07678e-21)
(0.784017 -0.317211 -2.86004e-20)
(0.999839 -0.00430445 -1.64169e-21)
(0.99137 -0.0133788 -4.44717e-21)
(0.976391 -0.024358 -1.4645e-20)
(0.955551 -0.0389761 2.37348e-20)
(0.929678 -0.0582308 1.49584e-20)
(0.899019 -0.0854458 4.88226e-21)
(0.864433 -0.120805 -1.54416e-20)
(0.82947 -0.169828 1.73261e-21)
(0.79148 -0.231859 -5.28544e-21)
(0.764703 -0.300536 -2.19849e-20)
(0.999841 -0.00398454 5.59731e-21)
(0.991324 -0.0124047 -5.98509e-21)
(0.976158 -0.0225882 2.82859e-21)
(0.955035 -0.0361746 6.11056e-21)
(0.928523 -0.0540429 -2.20736e-20)
(0.89695 -0.0793879 -5.70646e-21)
(0.860475 -0.112449 3.05717e-21)
(0.822837 -0.158307 -3.36004e-22)
(0.780269 -0.217576 7.14666e-22)
(0.746455 -0.282949 -1.66496e-20)
(0.999842 -0.00366444 -5.34262e-21)
(0.991285 -0.0114255 -7.71024e-21)
(0.975952 -0.0208089 1.09485e-20)
(0.954579 -0.033352 -2.71106e-21)
(0.927484 -0.0498251 1.83323e-21)
(0.895082 -0.073261 3.93963e-21)
(0.856887 -0.10397 -1.168e-20)
(0.816706 -0.146524 1.33975e-20)
(0.770004 -0.202625 4.03715e-20)
(0.729379 -0.264437 -4.00332e-20)
(0.999845 -0.00334435 -7.30238e-21)
(0.991255 -0.0104394 1.2769e-20)
(0.975771 -0.0190213 3.44745e-21)
(0.954177 -0.0305104 -1.26451e-20)
(0.926554 -0.0455803 9.74344e-21)
(0.8934 -0.0670721 5.83918e-21)
(0.853652 -0.0953721 -2.97228e-21)
(0.811072 -0.134506 1.39936e-20)
(0.760658 -0.187049 -3.06518e-20)
(0.713552 -0.245006 9.10714e-21)
(0.953825 -0.0276519 -1.5704e-20)
(0.925726 -0.0413114 -8.56112e-21)
(0.891892 -0.0608283 6.84125e-21)
(0.850759 -0.086661 -8.29535e-21)
(0.805934 -0.122283 8.99893e-21)
(0.75221 -0.170903 8.79312e-21)
(0.699033 -0.224681 -2.3804e-20)
(1.00006 -0.00992683 0)
(0.997595 -0.0295784 0)
(0.994705 -0.0510995 0)
(0.992337 -0.0748898 0)
(0.993488 -0.10175 0)
(0.998407 -0.130004 0)
(1.00971 -0.158875 0)
(1.02613 -0.185892 0)
(1.04786 -0.207417 0)
(1.07269 -0.230287 0)
(1.00005 -0.00972167 0)
(0.996974 -0.0290444 0)
(0.993053 -0.0504672 0)
(0.989146 -0.0745811 0)
(0.988693 -0.102379 0)
(0.991712 -0.132334 0)
(1.00197 -0.163861 0)
(1.01744 -0.193984 0)
(1.04013 -0.219173 0)
(1.06586 -0.245763 0)
(1.00004 -0.00947826 0)
(0.996356 -0.0283933 0)
(0.991378 -0.0496084 0)
(0.985881 -0.0739252 0)
(0.983681 -0.10251 0)
(0.98456 -0.134101 0)
(0.993478 -0.168284 0)
(1.00754 -0.201723 0)
(1.03114 -0.231058 0)
(1.05743 -0.261797 0)
(1.00003 -0.00919968 0)
(0.995745 -0.0276333 0)
(0.989697 -0.0485343 0)
(0.982582 -0.0729274 0)
(0.978499 -0.102131 0)
(0.977027 -0.135263 0)
(0.984281 -0.172045 0)
(0.996463 -0.209011 0)
(1.02085 -0.24296 0)
(1.04715 -0.278286 0)
(1.00002 -0.00888919 0)
(0.995149 -0.026773 0)
(0.988028 -0.0472591 0)
(0.979289 -0.0715977 0)
(0.973204 -0.101237 0)
(0.969202 -0.135785 0)
(0.974423 -0.175048 0)
(0.984237 -0.215749 0)
(1.00919 -0.254722 0)
(1.03479 -0.295093 0)
(0.999999 -0.00855025 0)
(0.994572 -0.0258223 0)
(0.98639 -0.045799 0)
(0.976043 -0.0699502 0)
(0.967859 -0.0998353 0)
(0.961187 -0.135636 0)
(0.963961 -0.177202 0)
(0.970953 -0.22182 0)
(0.996071 -0.266117 0)
(1.02005 -0.312021 0)
(0.999979 -0.00818623 0)
(0.99402 -0.0247908 0)
(0.984803 -0.0441712 0)
(0.972888 -0.0680002 0)
(0.962534 -0.0979325 0)
(0.953093 -0.134779 0)
(0.952978 -0.178407 0)
(0.95674 -0.227055 0)
(0.981346 -0.276789 0)
(1.00267 -0.328747 0)
(0.999957 -0.00780053 0)
(0.9935 -0.0236885 0)
(0.983288 -0.0423925 0)
(0.969866 -0.065764 0)
(0.957306 -0.09554 0)
(0.945039 -0.133178 0)
(0.941583 -0.178574 0)
(0.941783 -0.231254 0)
(0.964837 -0.28633 0)
(0.98243 -0.344921 0)
(0.999932 -0.00739807 0)
(0.99302 -0.0225301 0)
(0.98187 -0.0404906 0)
(0.967024 -0.0632803 0)
(0.952261 -0.092715 0)
(0.937147 -0.130881 0)
(0.929914 -0.177781 0)
(0.926283 -0.234439 0)
(0.946306 -0.294822 0)
(0.959305 -0.36105 0)
(0.999907 -0.0069878 0)
(0.992588 -0.0213455 0)
(0.980571 -0.038527 0)
(0.9644 -0.0606554 0)
(0.947473 -0.0896389 0)
(0.929516 -0.12815 0)
(0.918094 -0.176446 0)
(0.910331 -0.237072 0)
(0.925266 -0.303223 0)
(0.933905 -0.379091 0)
(0.99988 -0.00657319 0)
(0.992209 -0.0201518 0)
(0.979409 -0.0365415 0)
(0.962024 -0.0579535 0)
(0.942996 -0.0863726 0)
(0.922192 -0.12497 0)
(0.906194 -0.174319 0)
(0.893812 -0.238306 0)
(0.900874 -0.309977 0)
(0.908188 -0.396122 0)
(1.09009 -0.226271 3.59204e-22)
(1.09705 -0.224575 -4.14409e-21)
(1.08532 -0.241978 6.30043e-21)
(1.09326 -0.240329 3.53883e-21)
(1.10049 -0.238522 -1.24621e-23)
(1.10743 -0.236597 1.9963e-21)
(1.11435 -0.234562 1.16247e-22)
(1.07912 -0.258441 -4.14969e-21)
(1.08817 -0.256903 -4.44136e-21)
(1.09643 -0.255155 2.7772e-21)
(1.10431 -0.253245 9.22962e-22)
(1.11216 -0.251188 -3.59139e-23)
(1.07127 -0.27562 -8.99427e-21)
(1.08157 -0.274286 6.08085e-21)
(1.09101 -0.27267 3.05091e-21)
(1.09998 -0.270838 8.76038e-22)
(1.10887 -0.268809 -9.15508e-22)
(1.06148 -0.293456 4.64809e-21)
(1.07322 -0.292446 -2.28478e-21)
(1.08401 -0.291065 -5.9639e-22)
(1.09421 -0.289398 -3.56499e-21)
(1.10432 -0.28747 9.6167e-22)
(1.04946 -0.311867 1.20257e-20)
(1.06283 -0.311343 7.04871e-22)
(1.07517 -0.310337 -4.5396e-21)
(1.08679 -0.308956 -2.04467e-21)
(1.09828 -0.307233 -3.0159e-22)
(1.03492 -0.330728 -2.24673e-20)
(1.05012 -0.330924 4.72194e-21)
(1.06425 -0.33049 5.36209e-21)
(1.0775 -0.329564 4.90704e-21)
(1.09059 -0.328188 2.09956e-21)
(1.01761 -0.349944 1.63923e-20)
(1.03489 -0.351176 -4.04542e-21)
(1.05106 -0.351579 -1.5675e-20)
(1.06617 -0.351337 1.82384e-21)
(1.08109 -0.3505 -3.20913e-21)
(0.997287 -0.369821 1.74067e-21)
(1.01694 -0.372332 1.37938e-21)
(1.03544 -0.373825 1.96467e-20)
(1.05265 -0.374511 -5.19426e-21)
(1.06968 -0.374416 4.25005e-21)
(0.974332 -0.390581 -4.25694e-20)
(0.996718 -0.394223 4.9768e-21)
(1.01776 -0.396985 -7.84129e-21)
(1.03736 -0.398823 1.14483e-20)
(1.05681 -0.399646 -5.84196e-21)
(0.949121 -0.411166 5.10177e-20)
(0.973519 -0.417512 -3.13075e-21)
(0.996604 -0.423024 -5.33599e-21)
(1.01874 -0.426901 -4.0209e-21)
(1.04081 -0.429098 5.71194e-21)
)
;

boundaryField
{
    inlet
    {
        type            uniformFixedValue;
        uniformValue    constant (1 0 0);
        value           uniform (1 0 0);
    }
    outlet
    {
        type            pressureInletOutletVelocity;
        value           nonuniform 0();
    }
    cylinder
    {
        type            fixedValue;
        value           nonuniform 0();
    }
    top
    {
        type            symmetryPlane;
    }
    bottom
    {
        type            symmetryPlane;
    }
    defaultFaces
    {
        type            empty;
    }
    procBoundary6to0
    {
        type            processor;
        value           nonuniform List<vector> 
16
(
(1.00006 -0.010091 0)
(0.99821 -0.0299887 0)
(0.996318 -0.0514971 0)
(0.995418 -0.0748501 0)
(0.998023 -0.100642 0)
(1.00459 -0.127154 0)
(1.0167 -0.153423 0)
(1.03366 -0.177541 0)
(1.05438 -0.19587 0)
(1.07809 -0.215438 0)
(1.09361 -0.211333 1.31443e-21)
(1.09972 -0.209638 -3.25101e-21)
(1.10339 -0.222763 1.41399e-21)
(1.10339 -0.222763 1.41399e-21)
(1.1095 -0.220866 2.15544e-21)
(1.11562 -0.218886 -1.44582e-22)
)
;
    }
    procBoundary6to1
    {
        type            processor;
        value           nonuniform List<vector> 8((1.12124 -0.232417 -6.69571e-22) (1.11995 -0.248984 7.20632e-22) (1.11771 -0.266583 5.98185e-23) (1.11434 -0.285283 -2.61208e-22) (1.10969 -0.305168 1.99266e-22) (1.10358 -0.326365 1.7734e-22) (1.09592 -0.349071 -4.33552e-22) (1.08662 -0.373537 4.24042e-22));
    }
    procBoundary6to7
    {
        type            processor;
        value           nonuniform List<vector> 
24
(
(0.663679 -0.539483 -7.94256e-21)
(0.682718 -0.540565 2.75654e-20)
(0.682718 -0.540565 2.75654e-20)
(0.73267 -0.546168 3.31462e-20)
(0.749718 -0.543871 -1.11426e-20)
(0.749718 -0.543871 -1.11426e-20)
(0.797242 -0.544518 -2.74544e-20)
(0.812073 -0.539055 -8.22286e-21)
(0.812073 -0.539055 -8.22286e-21)
(0.85702 -0.535219 -1.69783e-20)
(0.85702 -0.535219 -1.69783e-20)
(0.90057 -0.528619 -7.64084e-21)
(0.912435 -0.519483 1.72766e-20)
(0.912435 -0.519483 1.72766e-20)
(0.953658 -0.510093 1.86916e-20)
(0.964162 -0.499235 2.23927e-20)
(0.964162 -0.499235 2.23927e-20)
(1.00245 -0.488261 5.79989e-21)
(1.01152 -0.476654 -1.90844e-20)
(1.01152 -0.476654 -1.90844e-20)
(1.0449 -0.464998 4.73681e-22)
(1.05135 -0.453238 8.8246e-22)
(1.07611 -0.399446 -2.03784e-22)
(1.06259 -0.429727 -7.71397e-22)
)
;
    }
    procBoundary6to12
    {
        type            processor;
        value           nonuniform List<vector> 
35
(
(0.640301 -0.230462 -6.09151e-20)
(0.58806 -0.296109 7.11671e-20)
(0.605735 -0.28581 -5.6954e-20)
(0.623073 -0.275289 1.15477e-19)
(0.640105 -0.264612 -1.06062e-20)
(0.640105 -0.264612 -1.06062e-20)
(0.536781 -0.361696 -1.00648e-20)
(0.555181 -0.352789 -8.49046e-20)
(0.573259 -0.343133 7.80685e-20)
(0.590995 -0.332861 -1.15674e-19)
(0.590995 -0.332861 -1.15674e-19)
(0.505918 -0.410425 -3.41702e-20)
(0.52469 -0.40433 1.09349e-19)
(0.543155 -0.39701 -4.49302e-21)
(0.543155 -0.39701 -4.49302e-21)
(0.456759 -0.44548 5.02117e-20)
(0.476384 -0.445587 6.89952e-21)
(0.495728 -0.443994 -8.59335e-21)
(0.51476 -0.44077 -7.54198e-20)
(0.51476 -0.44077 -7.54198e-20)
(0.425699 -0.455342 -1.03638e-19)
(0.446227 -0.461384 7.15165e-20)
(0.466475 -0.465551 -3.02551e-20)
(0.466475 -0.465551 -3.02551e-20)
(0.999847 -0.00302443 1.15815e-20)
(0.99123 -0.00944487 4.32652e-21)
(0.975612 -0.0172266 -1.6953e-22)
(0.975612 -0.0172266 -1.6953e-22)
(0.953518 -0.0247785 -2.47642e-20)
(0.924995 -0.037021 -6.17019e-21)
(0.890551 -0.0545373 2.08868e-20)
(0.848194 -0.0778442 8.30195e-21)
(0.801293 -0.109879 -1.64155e-20)
(0.744638 -0.154243 1.51674e-20)
(0.685867 -0.203509 1.11266e-20)
)
;
    }
    procBoundary6to13
    {
        type            processor;
        value           nonuniform List<vector> 8((0.434441 -0.464671 9.06333e-20) (0.486168 -0.4882 1.64927e-20) (0.486168 -0.4882 1.64927e-20) (0.538627 -0.508061 1.04446e-19) (0.559668 -0.514019 -9.8132e-20) (0.559668 -0.514019 -9.8132e-20) (0.611914 -0.528681 2.19877e-20) (0.611914 -0.528681 2.19877e-20));
    }
}


// ************************************************************************* //
