/*--------------------------------*- C++ -*----------------------------------*\
  =========                 |
  \\      /  F ield         | OpenFOAM: The Open Source CFD Toolbox
   \\    /   O peration     | Website:  https://openfoam.org
    \\  /    A nd           | Version:  7
     \\/     M anipulation  |
\*---------------------------------------------------------------------------*/
FoamFile
{
    version     2.0;
    format      ascii;
    class       volScalarField;
    location    "3";
    object      p;
}
// * * * * * * * * * * * * * * * * * * * * * * * * * * * * * * * * * * * * * //

dimensions      [0 2 -2 0 0 0 0];

internalField   nonuniform List<scalar> 
344
(
4.67983
4.66398
4.64838
4.63303
4.61795
4.60314
4.58861
4.57434
4.56035
4.54662
4.53314
4.51992
4.50693
4.49417
4.48164
4.46931
4.45719
4.44526
4.43352
4.42194
4.41054
4.39929
4.3882
4.37725
4.36643
4.35574
4.34518
4.33473
4.32439
4.31416
4.30403
4.29399
4.28405
4.2742
4.26443
4.25474
4.24513
4.23559
4.22612
4.21672
4.20739
4.19812
4.18891
4.17976
4.17066
4.16162
4.15263
4.1437
4.13481
4.91817
4.91707
4.91317
4.90648
4.89742
4.88637
4.87364
4.85956
4.84443
4.82851
4.81205
4.79523
4.77821
4.76113
4.74408
4.72715
4.71039
4.69385
4.67756
4.66155
4.64583
4.63041
4.6153
4.60048
4.58597
4.57175
4.55781
4.54415
4.53076
4.51761
4.50472
4.49205
4.47961
4.46738
4.45535
4.44351
4.43186
4.42037
4.40905
4.39788
4.38686
4.37598
4.36523
4.35461
4.3441
4.33371
4.32343
4.31324
4.30316
4.29317
4.28327
4.27346
4.26373
4.25407
4.24449
4.23498
4.22555
4.21617
4.20687
4.19762
4.18843
4.1793
4.17023
4.1612
4.15223
4.14331
4.13444
4.93073
4.92947
4.92499
4.91733
4.90705
4.89463
4.88048
4.86499
4.84851
4.83136
4.81379
4.79599
4.77814
4.76034
4.74271
4.7253
4.70816
4.69133
4.67484
4.65868
4.64287
4.62741
4.61229
4.5975
4.58304
4.56889
4.55503
4.54147
4.52817
4.51514
4.50235
4.4898
4.47747
4.46535
4.45343
4.44169
4.43013
4.41874
4.40751
4.39643
4.38549
4.37468
4.36401
4.35345
4.34301
4.33268
4.32245
4.31233
4.30229
4.29235
4.2825
4.27272
4.26303
4.25341
4.24386
4.23439
4.22498
4.21563
4.20635
4.19713
4.18796
4.17885
4.1698
4.1608
4.15185
4.14294
4.13409
4.94542
4.94395
4.9387
4.92976
4.91791
4.90376
4.88785
4.87065
4.85259
4.83401
4.81517
4.7963
4.77753
4.75899
4.74076
4.72287
4.70538
4.68829
4.67162
4.65535
4.63949
4.62403
4.60894
4.59422
4.57984
4.56579
4.55205
4.53861
4.52545
4.51254
4.49989
4.48747
4.47526
4.46326
4.45146
4.43984
4.42838
4.4171
4.40596
4.39497
4.38412
4.3734
4.3628
4.35231
4.34194
4.33167
4.3215
4.31143
4.30145
4.29155
4.28174
4.27201
4.26235
4.25277
4.24326
4.23381
4.22443
4.21512
4.20586
4.19666
4.18752
4.17843
4.1694
4.16041
4.15148
4.14259
4.13375
4.96271
4.96097
4.95464
4.944
4.93009
4.91374
4.89564
4.87636
4.85642
4.83619
4.81595
4.7959
4.77618
4.75688
4.73806
4.71975
4.70194
4.68465
4.66786
4.65155
4.6357
4.62029
4.60529
4.59068
4.57643
4.56253
4.54894
4.53566
4.52265
4.5099
4.49739
4.48512
4.47305
4.46119
4.44951
4.43801
4.42667
4.41549
4.40446
4.39356
4.3828
4.37216
4.36164
4.35122
4.34092
4.33071
4.3206
4.31058
4.30065
4.2908
4.28103
4.27134
4.26172
4.25217
4.24269
4.23328
4.22393
4.21464
4.2054
4.19623
4.18711
4.17804
4.16902
4.16006
4.15114
4.14227
4.13344
4.9832
4.98121
4.97327
4.9603
4.94368
4.92449
4.90364
4.88187
4.85973
4.83763
4.81586
4.79458
4.7739
4.75388
4.73454
4.71587
4.69784
4.68044
4.66362
4.64734
4.63158
4.61629
4.60144
4.587
4.57293
4.55921
4.5458
)
;

boundaryField
{
    inlet
    {
        type            zeroGradient;
    }
    outlet
    {
        type            fixedValue;
        value           nonuniform 0();
    }
    wall
    {
        type            zeroGradient;
    }
    wedge1
    {
        type            wedge;
    }
    wedge2
    {
        type            wedge;
    }
    axis
    {
        type            empty;
    }
    procBoundary12to6
    {
        type            processor;
        value           nonuniform List<scalar> 
68
(
4.6817
4.66603
4.65055
4.63529
4.62026
4.60548
4.59094
4.57666
4.56262
4.54884
4.53531
4.52201
4.50895
4.49612
4.48351
4.4711
4.4589
4.44689
4.43507
4.42343
4.41195
4.40063
4.38947
4.37845
4.36758
4.35683
4.34621
4.33571
4.32532
4.31504
4.30487
4.29479
4.28481
4.27492
4.26512
4.2554
4.24575
4.23619
4.22669
4.21727
4.20791
4.19861
4.18938
4.18021
4.1711
4.16204
4.15303
4.14408
4.13518
4.90739
4.90641
4.90296
4.89701
4.88891
4.87895
4.86738
4.85447
4.84047
4.82562
4.81013
4.79418
4.77792
4.76149
4.745
4.72852
4.71213
4.69589
4.69589
)
;
    }
    procBoundary12to7
    {
        type            processor;
        value           uniform 4.12597;
    }
    procBoundary12to13
    {
        type            processor;
        value           nonuniform List<scalar> 4(4.12562 4.12528 4.12495 4.12466);
    }
    procBoundary12to18
    {
        type            processor;
        value           nonuniform List<scalar> 
68
(
4.5327
4.51987
4.50729
4.49495
4.48283
4.47092
4.45919
4.44765
4.43627
4.42505
4.41398
4.40305
4.39225
4.38157
4.37101
4.36056
4.35022
4.33997
4.32983
4.31977
4.3098
4.29992
4.29012
4.28039
4.27073
4.26115
4.25163
4.24218
4.2328
4.22347
4.2142
4.20499
4.19584
4.18674
4.17769
4.16869
4.15974
4.15084
4.14198
4.13317
4.99926
4.99746
4.98763
4.97248
4.95352
4.932
4.909
4.88535
4.86163
4.83824
4.81543
4.79335
4.77207
4.7516
4.73195
4.71308
4.69494
4.6775
4.66069
4.64447
4.62879
4.6136
4.59887
4.58455
4.57061
4.55702
4.5327
4.54374
)
;
    }
}


// ************************************************************************* //
