/*--------------------------------*- C++ -*----------------------------------*\
  =========                 |
  \\      /  F ield         | OpenFOAM: The Open Source CFD Toolbox
   \\    /   O peration     | Website:  https://openfoam.org
    \\  /    A nd           | Version:  7
     \\/     M anipulation  |
\*---------------------------------------------------------------------------*/
FoamFile
{
    version     2.0;
    format      ascii;
    class       volScalarField;
    location    "6";
    object      p;
}
// * * * * * * * * * * * * * * * * * * * * * * * * * * * * * * * * * * * * * //

dimensions      [0 2 -2 0 0 0 0];

internalField   nonuniform List<scalar> 
433
(
-328.411
-306.318
-286.376
-480.152
-455.417
-431.528
-403.373
-368.628
-330.562
-291.646
-253.585
149.792
141.288
135.386
129.262
120.251
109.019
96.0087
82.7897
70.7765
60.012
49.8316
39.9877
30.9448
538.129
515.774
496.341
468.695
428.527
381.27
332.156
286.425
246.09
210.248
177.01
145.277
115.467
88.7567
66.1518
48.0961
34.2862
91.1886
94.4735
95.4351
88.3986
73.9878
55.8304
38.786
26.503
20.5158
19.5381
20.7041
21.4621
20.6435
18.4491
15.5834
12.6883
10.1903
8.24098
6.81773
5.82694
5.17613
-525.864
-494.016
-464.591
-433.695
-398.087
-360.329
-321.407
-281.858
-242.129
-202.668
-164.619
-129.495
-98.6202
-72.7575
-51.866
-35.5189
-23.0907
-13.9231
-7.38112
-2.88514
0.0919686
1.98104
3.12274
3.77916
-266.402
-255.009
-243.317
-228.404
-209.807
-189.157
-167.527
-145.835
-124.385
-103.739
-84.5292
-67.1111
-51.6394
-38.3178
-27.1439
-18.0788
-11.0161
-5.73466
-1.94139
0.670259
2.37396
3.43636
4.06452
397.448
378.547
362.802
342.605
313.592
279.526
244.052
210.891
181.471
154.889
129.704
105.527
83.1589
63.7723
47.8838
35.4244
25.9892
19.073
14.1629
10.7815
8.53458
7.07868
453.351
437.755
423.165
398.719
361.394
317.188
272.637
233.225
200.876
173.663
148.609
123.948
99.8675
77.7331
58.678
43.2396
31.3712
22.6183
16.3974
12.145
9.356
-229.398
-210.693
-195.166
-183.46
-173.212
-163.136
-150.722
-134.19
-113.536
-90.5527
-68.2003
-48.9551
-33.8996
-22.7956
-14.7706
-8.89911
-4.55757
-1.35488
0.964233
2.59539
-530.904
-502.936
-476.662
-446.951
-411.611
-373.398
-333.692
-293.151
-252.262
-211.675
-172.597
-136.416
-104.442
-77.3452
-55.2206
-37.7138
-24.3053
-14.3747
-7.28275
48.1989
43.156
39.3305
34.8942
28.0169
20.2172
13.434
9.02031
6.94916
5.90944
4.99008
4.22325
3.84654
3.90378
4.31334
4.85898
5.35157
5.708
533.473
510.9
491.094
462.953
422.001
374.957
328.294
286.488
249.585
215.357
181.837
148.93
118.075
90.8509
68.1369
50.0894
36.3096
26.1713
193.558
192.304
189.05
176.61
154.609
128.707
105.287
88.7188
79.6359
74.7606
69.9403
62.7621
53.2444
42.8669
33.1668
25.0512
18.7994
-493.55
-463.004
-435.538
-408.021
-377.547
-345.412
-310.773
-273.332
-233.409
-192.517
-153.202
-117.98
-88.3438
-64.4223
-45.5359
-30.8565
-19.6163
-335.752
-321.836
-308.597
-292.813
-273.879
-252.969
-230.221
-205.797
-180.106
-153.616
-127.097
-101.633
-78.2688
-57.8102
-40.694
-26.9666
-16.4035
358.6
340.799
325.222
304.395
274.594
240.431
206.592
176.299
149.746
125.585
103.212
83.0776
65.7256
51.3722
39.844
30.8322
23.9564
484.469
467.882
452.809
428.257
391.013
348.506
307.65
272.196
241.56
212.517
182.675
152.003
122.136
95.1252
72.2398
53.829
-173.315
-158.736
-147.257
-139.162
-131.98
-123.406
-110.471
-91.5225
-67.6951
-42.9841
-22.0513
-7.74124
0.069559
3.51103
4.80943
5.34932
-539.631
-511.248
-485.369
-457.547
-425.204
-389.698
-351.305
-310.462
-267.909
-224.88
-183.395
-145.138
-111.383
-82.6501
-58.887
-39.8017
-24.9975
10.8241
7.14805
2.67405
-4.60362
-15.6053
-27.0601
-35.7548
-40.6378
-42.1373
-40.7502
-36.8781
-31.1143
-24.2216
-16.9617
-10.1753
-4.42554
0.0487139
534.03
512.073
492.374
464.068
423.17
376.806
330.244
286.701
246.531
208.933
173.773
141.432
112.76
88.2066
67.9191
51.6913
39.076
245.41
241.098
235.92
223.543
204.007
183.827
167.718
157.178
149.548
140.565
127.481
110.334
91.1092
72.2894
55.7266
42.2546
31.9374
-451.721
-424.865
-401.095
-376.505
-347.529
-313.959
-275.352
-232.594
-188.079
-145.304
-108.097
-78.5365
-56.3665
-39.8507
-27.2076
-17.3241
-9.66585
-3.86812
-382.799
-365.103
-349.556
-333.486
-315.036
-294.21
-270.303
-243.401
-214.262
-184.456
-154.974
-126.483
-99.7904
-75.5286
-54.3509
-36.7395
287.446
273.067
258.313
236.388
)
;

boundaryField
{
    inlet
    {
        type            zeroGradient;
    }
    outlet
    {
        type            fixedValue;
        value           nonuniform 0();
    }
    cylinder
    {
        type            zeroGradient;
    }
    top
    {
        type            symmetryPlane;
    }
    bottom
    {
        type            symmetryPlane;
    }
    defaultFaces
    {
        type            empty;
    }
    procBoundary20to14
    {
        type            processor;
        value           uniform -353.569;
    }
    procBoundary20to25
    {
        type            processor;
        value           nonuniform List<scalar> 
20
(
-22.8108
-12.3246
204.999
169.967
136.569
107.348
82.6443
62.5926
46.9927
35.4776
27.6426
22.6407
19.4464
-22.8108
17.237
532.922
513.018
495.532
204.999
469.969
)
;
    }
    procBoundary20to26
    {
        type            processor;
        value           nonuniform List<scalar> 
28
(
4.40744
4.40744
6.15669
6.15669
7.58008
7.58008
3.6839
3.6839
-2.42113
-2.42113
5.92774
5.92774
18.9806
14.2668
14.2668
-11.2279
-8.58713
18.8252
39.6426
39.6426
5.74985
5.74985
-13.9941
3.27506
29.5908
24.341
24.341
0.36776
)
;
    }
    procBoundary20to27
    {
        type            processor;
        value           nonuniform List<scalar> 
29
(
343.527
332.749
312.17
-265.474
-265.474
-244.02
-220.915
-195.657
-216.924
-216.924
-181.903
-149.008
-118.886
-92.1128
23.3453
23.3453
17.5115
13.2148
10.1552
24.1258
24.1258
16.9207
11.9991
8.76332
4.76458
4.76458
4.51043
4.35621
4.13173
)
;
    }
}


// ************************************************************************* //
