/*--------------------------------*- C++ -*----------------------------------*\
  =========                 |
  \\      /  F ield         | OpenFOAM: The Open Source CFD Toolbox
   \\    /   O peration     | Website:  https://openfoam.org
    \\  /    A nd           | Version:  7
     \\/     M anipulation  |
\*---------------------------------------------------------------------------*/
FoamFile
{
    version     2.0;
    format      ascii;
    class       volVectorField;
    location    "11";
    object      U;
}
// * * * * * * * * * * * * * * * * * * * * * * * * * * * * * * * * * * * * * //

dimensions      [0 1 -1 0 0 0 0];

internalField   nonuniform List<vector> 
433
(
(1.00017 -0.000379235 0)
(1.00342 -0.00103295 0)
(1.00854 -0.00154692 0)
(1.01449 -0.00193744 0)
(1.02056 -0.00222193 0)
(1.02636 -0.00242218 0)
(1.03167 -0.00255314 0)
(1.03642 -0.0026379 0)
(1.04057 -0.00267839 0)
(1.04424 -0.00271551 0)
(1.00017 -0.00113048 0)
(1.00346 -0.00307154 0)
(1.00863 -0.004602 0)
(1.01465 -0.00576761 0)
(1.02079 -0.00661737 0)
(1.02667 -0.0072157 0)
(1.03205 -0.00760719 0)
(1.03687 -0.00786052 0)
(1.04108 -0.00798189 0)
(1.04481 -0.00808974 0)
(1.00018 -0.00186901 0)
(1.00353 -0.00506573 0)
(1.0088 -0.00759505 0)
(1.01495 -0.0095279 0)
(1.02123 -0.0109393 0)
(1.02725 -0.0119343 0)
(1.03277 -0.0125859 0)
(1.03772 -0.0130081 0)
(1.04204 -0.0132099 0)
(1.0459 -0.0133896 0)
(1.00019 -0.00259963 0)
(1.00363 -0.00703345 0)
(1.00904 -0.0105536 0)
(1.01537 -0.0132543 0)
(1.02185 -0.0152315 0)
(1.02808 -0.0166291 0)
(1.0338 -0.0175455 0)
(1.03894 -0.0181407 0)
(1.04342 -0.0184244 0)
(1.04746 -0.01868 0)
(1.0002 -0.00332737 0)
(1.00375 -0.00898731 0)
(1.00934 -0.0134979 0)
(1.01589 -0.016975 0)
(1.02263 -0.0195299 0)
(1.02912 -0.0213424 0)
(1.03509 -0.0225331 0)
(1.04049 -0.0233095 0)
(1.04516 -0.0236781 0)
(1.04945 -0.0240155 0)
(1.00022 -0.00405583 0)
(1.0039 -0.0109355 0)
(1.00968 -0.0164423 0)
(1.01649 -0.0207116 0)
(1.02353 -0.0238631 0)
(1.03035 -0.0261092 0)
(1.03662 -0.0275888 0)
(1.04233 -0.028558 0)
(1.04725 -0.0290168 0)
(1.05183 -0.029444 0)
(1.00024 -0.00478711 0)
(1.00405 -0.0128829 0)
(1.01005 -0.0193962 0)
(1.01716 -0.0244798 0)
(1.02453 -0.0282532 0)
(1.03172 -0.030958 0)
(1.03836 -0.0327458 0)
(1.04442 -0.0339237 0)
(1.04963 -0.0344797 0)
(1.05456 -0.0350075 0)
(1.00026 -0.00552205 0)
(1.00421 -0.0148309 0)
(1.01044 -0.0223645 0)
(1.01786 -0.0282897 0)
(1.0256 -0.0327165 0)
(1.03321 -0.0359115 0)
(1.04025 -0.0380322 0)
(1.04673 -0.0394389 0)
(1.05227 -0.040102 0)
(1.05761 -0.0407437 0)
(1.00028 -0.00626036 0)
(1.00437 -0.0167782 0)
(1.01083 -0.0253478 0)
(1.01858 -0.0321465 0)
(1.02672 -0.0372643 0)
(1.03479 -0.0409873 0)
(1.04228 -0.0434713 0)
(1.04922 -0.0451319 0)
(1.05514 -0.0459144 0)
(1.06093 -0.0466868 0)
(1.00031 -0.00700073 0)
(1.00453 -0.0187209 0)
(1.01121 -0.0283431 0)
(1.01929 -0.0360507 0)
(1.02785 -0.0419026 0)
(1.03641 -0.0461986 0)
(1.0444 -0.0490822 0)
(1.05185 -0.0510272 0)
(1.0582 -0.0519452 0)
(1.0645 -0.0528686 0)
(1.00033 -0.00774096 0)
(1.00467 -0.0206528 0)
(1.01155 -0.0313437 0)
(1.01997 -0.0399983 0)
(1.02896 -0.0466332 0)
(1.03804 -0.0515539 0)
(1.04656 -0.0548805 0)
(1.05459 -0.0571465 0)
(1.0614 -0.0582198 0)
(1.06826 -0.0593187 0)
(1.00036 -0.00847804 0)
(1.0048 -0.0225653 0)
(1.01185 -0.0343398 0)
(1.02059 -0.0439813 0)
(1.03 -0.0514532 0)
(1.03964 -0.057058 0)
(1.04873 -0.0608779 0)
(1.05737 -0.0635087 0)
(1.0647 -0.0647615 0)
(1.07219 -0.0660654 0)
(1.00038 -0.00920827 0)
(1.0049 -0.0244484 0)
(1.01209 -0.0373186 0)
(1.02111 -0.0479876 0)
(1.03095 -0.0563556 0)
(1.04115 -0.0627115 0)
(1.05085 -0.0670832 0)
(1.06016 -0.0701301 0)
(1.06806 -0.0715923 0)
(1.07622 -0.0731362 0)
(1.00041 -0.00992741 0)
(1.00498 -0.0262905 0)
(1.01226 -0.040265 0)
(1.02153 -0.0520015 0)
(1.03177 -0.0613294 0)
(1.04254 -0.0685108 0)
(1.05287 -0.0735017 0)
(1.06291 -0.0770251 0)
(1.07142 -0.0787323 0)
(1.08032 -0.0805579 0)
(1.00044 -0.0106307 0)
(1.00501 -0.0280787 0)
(1.01232 -0.0431614 0)
(1.0218 -0.0560036 0)
(1.03241 -0.0663594 0)
(1.04376 -0.0744485 0)
(1.05474 -0.0801353 0)
(1.06554 -0.0842054 0)
(1.07473 -0.0862007 0)
(1.08443 -0.088357 0)
(1.00046 -0.0113133 0)
(1.005 -0.0297998 0)
(1.01228 -0.0459887 0)
(1.0219 -0.0599716 0)
(1.03283 -0.0714266 0)
(1.04474 -0.080513 0)
(1.05641 -0.0869827 0)
(1.06802 -0.0916809 0)
(1.07794 -0.0940155 0)
(1.08849 -0.0965603 0)
(1.00049 -0.0119698 0)
(1.00494 -0.0314397 0)
(1.01212 -0.0487262 0)
(1.0218 -0.06388 0)
(1.033 -0.0765085 0)
(1.04545 -0.0866882 0)
(1.0578 -0.0940392 0)
(1.07026 -0.099459 0)
(1.08098 -0.102194 0)
(1.09244 -0.105195 0)
(1.00051 -0.012595 0)
(1.00483 -0.0329846 0)
(1.01182 -0.0513522 0)
(1.02148 -0.067701 0)
(1.03288 -0.0815785 0)
(1.04582 -0.0929537 0)
(1.05886 -0.101296 0)
(1.07221 -0.107545 0)
(1.08378 -0.110751 0)
(1.09622 -0.114289 0)
(1.00054 -0.0131837 0)
(1.00465 -0.0344209 0)
(1.01138 -0.0538444 0)
(1.02091 -0.0714048 0)
(1.03241 -0.086607 0)
(1.04581 -0.0992842 0)
(1.05952 -0.108741 0)
(1.07379 -0.11594 0)
(1.08629 -0.119704 0)
(1.09975 -0.123871 0)
(1.00056 -0.013731 0)
(1.00442 -0.0357359 0)
(1.01079 -0.0561805 0)
(1.02008 -0.0749599 0)
(1.03158 -0.091561 0)
(1.04535 -0.10565 0)
(1.05972 -0.116358 0)
(1.07493 -0.124646 0)
(1.08842 -0.129065 0)
(1.10298 -0.133972 0)
(1.00058 -0.014232 0)
(1.00412 -0.0369178 0)
(1.01004 -0.0583383 0)
(1.01896 -0.0783339 0)
(1.03035 -0.0964043 0)
(1.0444 -0.112015 0)
(1.05938 -0.124126 0)
(1.07556 -0.133656 0)
(1.09011 -0.138848 0)
(1.10582 -0.144624 0)
(1.0006 -0.0146825 0)
(1.00375 -0.0379561 0)
(1.00914 -0.0602965 0)
(1.01755 -0.0814942 0)
(1.0287 -0.101098 0)
(1.04291 -0.11834 0)
(1.05845 -0.132019 0)
(1.07558 -0.142962 0)
(1.09127 -0.149064 0)
(1.1082 -0.155862 0)
(1.00062 -0.0150787 0)
(1.00332 -0.0388421 0)
(1.00808 -0.0620348 0)
(1.01582 -0.0844086 0)
(1.0266 -0.105601 0)
(1.04083 -0.12458 0)
(1.05686 -0.140008 0)
(1.07493 -0.152551 0)
(1.09182 -0.159725 0)
(1.11004 -0.167722 0)
(1.00064 -0.0154176 0)
(1.00283 -0.0395686 0)
(1.00686 -0.0635348 0)
(1.01379 -0.0870461 0)
(1.02403 -0.10987 0)
(1.03811 -0.130684 0)
(1.05454 -0.148057 0)
(1.07353 -0.162402 0)
(1.09168 -0.170841 0)
(1.11124 -0.180244 0)
(1.00066 -0.0156968 0)
(1.00228 -0.0401304 0)
(1.0055 -0.0647799 0)
(1.01144 -0.0893775 0)
(1.021 -0.113858 0)
(1.03473 -0.136599 0)
(1.05144 -0.156125 0)
(1.07127 -0.172489 0)
(1.09076 -0.18242 0)
(1.11174 -0.193472 0)
(1.00067 -0.0159146 0)
(1.00167 -0.0405242 0)
(1.004 -0.065756 0)
(1.0088 -0.0913762 0)
(1.0175 -0.117518 0)
(1.03064 -0.142268 0)
(1.04752 -0.164163 0)
(1.06809 -0.182774 0)
(1.08896 -0.194471 0)
(1.11143 -0.207452 0)
(1.00068 -0.0160704 0)
(1.00102 -0.0407487 0)
(1.00237 -0.0664521 0)
(1.00586 -0.0930184 0)
(1.01354 -0.120804 0)
(1.02582 -0.147631 0)
(1.04273 -0.172116 0)
(1.06389 -0.193213 0)
(1.08621 -0.207003 0)
(1.11022 -0.222229 0)
(1.00068 -0.0161641 0)
(1.00032 -0.0408041 0)
(1.00063 -0.0668603 0)
(1.00266 -0.0942839 0)
(1.00913 -0.123668 0)
(1.02027 -0.152628 0)
(1.03704 -0.179919 0)
(1.05858 -0.203751 0)
(1.08241 -0.220027 0)
(1.108 -0.237849 0)
(1.00068 -0.0161965 0)
(0.999592 -0.0406926 0)
(0.998778 -0.0669766 0)
(0.999216 -0.0951565 0)
(1.00429 -0.126063 0)
(1.01398 -0.157198 0)
(1.03044 -0.187494 0)
(1.05207 -0.214325 0)
(1.0775 -0.233552 0)
(1.10468 -0.254345 0)
(1.04627 -0.00267668 6.50925e-20)
(1.04702 -0.0026634 1.58706e-20)
(1.04783 -0.00265164 -8.6563e-20)
(1.04859 -0.00263649 9.80003e-20)
(1.04686 -0.00798065 -6.89833e-20)
(1.04761 -0.00794377 -5.27528e-20)
(1.04841 -0.00791151 2.87058e-21)
(1.04918 -0.0078688 8.72272e-20)
(1.04799 -0.0132068 8.03487e-20)
(1.04875 -0.0131453 -4.06094e-20)
(1.04956 -0.0130914 4.15508e-20)
(1.05034 -0.0130197 -1.14574e-19)
(1.04962 -0.0184196 -2.51462e-20)
(1.05039 -0.0183325 -4.2615e-20)
(1.0512 -0.0182563 2.23063e-19)
(1.05199 -0.0181545 1.67756e-21)
(1.0517 -0.0236708 -1.85942e-19)
(1.05249 -0.0235559 1.52813e-19)
(1.05331 -0.0234554 -1.27291e-19)
(1.05411 -0.0233212 -3.09641e-19)
(1.0542 -0.029007 -2.08247e-21)
(1.055 -0.028862 -1.31448e-19)
(1.05583 -0.0287348 4.38011e-20)
(1.05665 -0.0285655 -7.7357e-20)
(1.05749 -0.0283983 5.67601e-20)
(1.05707 -0.0344687 5.14322e-19)
(1.0579 -0.0342902 -3.02465e-19)
(1.05875 -0.0341335 -2.03466e-19)
(1.05959 -0.0339257 1.48286e-20)
(1.06045 -0.0337207 5.05854e-20)
(1.06028 -0.0400924 -1.75415e-19)
(1.06115 -0.0398769 7.04529e-19)
(1.06201 -0.0396874 4.86198e-19)
(1.06288 -0.0394371 -9.95214e-20)
(1.06377 -0.0391905 -2.3155e-19)
(1.06381 -0.0459112 -4.67096e-19)
(1.06471 -0.0456546 -6.68651e-19)
(1.06559 -0.0454287 -2.5402e-19)
(1.0665 -0.0451315 -3.25004e-19)
(1.06742 -0.0448391 -6.94779e-20)
(1.06761 -0.0519558 9.52623e-20)
(1.06856 -0.0516537 1.99655e-19)
(1.06947 -0.0513874 2.82632e-19)
(1.07041 -0.0510384 5.0148e-19)
(1.07137 -0.0506956 -1.2273e-19)
(1.07165 -0.058255 9.14044e-20)
(1.07266 -0.0579028 4.03837e-19)
(1.07359 -0.0575917 -7.58033e-20)
(1.07458 -0.0571857 1.17435e-19)
(1.07559 -0.0567873 3.50663e-19)
(1.07589 -0.0648366 -4.50725e-19)
(1.07697 -0.064429 -2.82219e-19)
(1.07793 -0.0640686 -5.72873e-19)
(1.07898 -0.0635997 2.27736e-20)
(1.08003 -0.0631402 4.71278e-19)
(1.08029 -0.0717271 6.1925e-19)
(1.08145 -0.0712589 -2.34021e-19)
(1.08246 -0.0708441 4.3842e-19)
(1.08357 -0.0703064 -5.73796e-19)
(1.08468 -0.0697798 4.59382e-20)
(1.08481 -0.0789529 -4.11684e-19)
(1.08607 -0.0784184 1.59745e-19)
(1.08712 -0.0779441 2.40566e-19)
(1.08831 -0.0773308 1.40689e-19)
(1.08949 -0.0767309 6.82178e-20)
(1.08941 -0.0865402 4.19443e-19)
(1.09078 -0.0859335 2.3674e-19)
(1.09189 -0.0853942 -4.49833e-19)
(1.09316 -0.0846984 -2.55935e-19)
(1.09442 -0.0840182 -1.49926e-19)
(1.09403 -0.0945153 1.58153e-19)
(1.09554 -0.0938304 5.59512e-20)
(1.09671 -0.0932202 2.32463e-19)
(1.09808 -0.0924345 3.82294e-19)
(1.09944 -0.0916669 -2.9983e-19)
(1.09863 -0.102905 -1.69254e-19)
(1.1003 -0.102136 1.05995e-18)
(1.10155 -0.101449 -5.88891e-20)
(1.10304 -0.100565 1.16083e-19)
(1.10451 -0.0997023 -1.00795e-19)
(1.10316 -0.111738 -5.69649e-19)
(1.10501 -0.110877 -7.11369e-19)
(1.10635 -0.110107 2.68222e-19)
(1.10797 -0.109117 -1.086e-19)
(1.10957 -0.108151 9.47769e-20)
(1.10755 -0.121042 -1.07694e-18)
(1.10962 -0.120084 -3.16734e-19)
(1.11108 -0.119223 -8.45807e-19)
(1.11285 -0.118118 -1.18285e-18)
(1.1146 -0.11704 -9.42483e-20)
(1.11175 -0.130848 5.195e-20)
(1.11408 -0.129786 -1.26199e-18)
(1.11567 -0.128828 4.33125e-19)
(1.11763 -0.127598 1.91258e-18)
(1.11954 -0.126399 8.85067e-19)
(1.1157 -0.141189 4.38331e-19)
(1.11833 -0.140016 2.24948e-18)
(1.12008 -0.138953 7.34744e-21)
(1.12225 -0.137588 -1.4471e-18)
(1.12435 -0.136258 6.02161e-19)
(1.11935 -0.152101 2.32652e-18)
(1.12232 -0.15081 -5.90226e-19)
(1.12426 -0.149633 6.57319e-19)
(1.12667 -0.148123 1.00142e-18)
(1.129 -0.146651 -1.50509e-18)
(1.12262 -0.16362 -3.12415e-18)
(1.12601 -0.162204 -1.42809e-18)
(1.12816 -0.160906 -7.35721e-19)
(1.13085 -0.159239 7.77457e-19)
(1.13343 -0.157613 1.30756e-18)
(1.12546 -0.17579 3.75028e-18)
(1.12932 -0.174242 3.15903e-19)
(1.13172 -0.172813 8.1565e-19)
(1.13474 -0.170976 -1.93203e-18)
(1.13761 -0.169185 7.31872e-19)
(1.1278 -0.188655 -2.96872e-18)
(1.13221 -0.186968 2.57731e-19)
(1.13492 -0.185399 -2.34311e-18)
(1.13829 -0.183381 7.69616e-19)
(1.14151 -0.18141 -3.42745e-18)
(1.12956 -0.202265 3.49088e-19)
(1.13461 -0.200432 1.17242e-19)
(1.13768 -0.198714 1.32167e-18)
(1.14148 -0.196501 8.81004e-19)
(1.14507 -0.194338 3.16204e-18)
(1.13069 -0.216672 3.16652e-19)
(1.13648 -0.214688 2.56908e-18)
(1.13996 -0.212812 -1.1202e-18)
(1.14424 -0.210392 -2.00157e-19)
(1.14828 -0.208022 -4.02563e-18)
(1.1311 -0.231931 1.02763e-18)
(1.13775 -0.229792 -4.07641e-18)
(1.14171 -0.227752 1.37775e-18)
(1.14654 -0.225111 1.69595e-18)
(1.15108 -0.222521 1.96923e-18)
(1.13069 -0.248091 -8.17094e-19)
(1.13834 -0.245797 2.67419e-18)
(1.14287 -0.243589 -1.38333e-18)
(1.14832 -0.240718 -5.1192e-19)
(1.15343 -0.237896 8.82096e-19)
(1.14334 -0.260378 -1.43436e-18)
(1.1495 -0.257272 -4.45969e-18)
(1.15527 -0.254208 1.21769e-18)
)
;

boundaryField
{
    inlet
    {
        type            uniformFixedValue;
        uniformValue    constant (1 0 0);
        value           uniform (1 0 0);
    }
    outlet
    {
        type            pressureInletOutletVelocity;
        value           nonuniform 0();
    }
    cylinder
    {
        type            fixedValue;
        value           nonuniform 0();
    }
    top
    {
        type            symmetryPlane;
    }
    bottom
    {
        type            symmetryPlane;
    }
    defaultFaces
    {
        type            empty;
    }
    procBoundary0to1
    {
        type            processor;
        value           nonuniform List<vector> 
31
(
(1.04938 -0.0026215 1.95252e-19)
(1.04997 -0.00782648 1.28235e-19)
(1.05113 -0.0129487 9.50716e-20)
(1.05279 -0.0180538 -8.74173e-20)
(1.05493 -0.0231886 -1.03959e-19)
(1.05493 -0.0231886 -1.03959e-19)
(1.05833 -0.0282321 -3.35244e-20)
(1.06131 -0.0335171 4.58917e-20)
(1.06466 -0.0389459 -7.17346e-20)
(1.06835 -0.0445494 1.22006e-19)
(1.07234 -0.0503562 2.08335e-19)
(1.07661 -0.0563932 3.48522e-20)
(1.08111 -0.0626861 -1.49948e-19)
(1.08582 -0.0692598 1.2592e-20)
(1.09071 -0.0761387 1.1782e-19)
(1.09572 -0.0833473 -2.82205e-19)
(1.10084 -0.0909101 2.67609e-19)
(1.10602 -0.098852 -4.45141e-19)
(1.11121 -0.107199 3.70764e-19)
(1.11639 -0.115977 -1.05021e-19)
(1.1215 -0.125216 5.54974e-19)
(1.12652 -0.134946 -6.73171e-19)
(1.13139 -0.145198 1.34454e-18)
(1.13608 -0.156008 -7.59556e-19)
(1.14056 -0.167414 4.64404e-19)
(1.14479 -0.179461 -1.24159e-18)
(1.14875 -0.192195 3.10945e-19)
(1.15239 -0.20567 1.57847e-18)
(1.15569 -0.219943 -2.62583e-18)
(1.15861 -0.235077 -1.15027e-18)
(1.16111 -0.251134 1.9272e-18)
)
;
    }
    procBoundary0to6
    {
        type            processor;
        value           nonuniform List<vector> 
16
(
(1.00067 -0.0161692 0)
(0.998838 -0.0404182 0)
(0.996842 -0.0668005 0)
(0.995566 -0.0956237 0)
(0.999045 -0.127948 0)
(1.00698 -0.161284 0)
(1.0229 -0.194752 0)
(1.04428 -0.224866 0)
(1.0714 -0.247583 0)
(1.1001 -0.271739 0)
(1.12935 -0.265195 -2.34251e-19)
(1.13815 -0.262751 3.06299e-18)
(1.13815 -0.262751 3.06299e-18)
(1.14303 -0.27816 -2.71956e-19)
(1.14999 -0.274822 -3.79112e-18)
(1.15651 -0.271514 -5.48574e-19)
)
;
    }
}


// ************************************************************************* //
