/*--------------------------------*- C++ -*----------------------------------*\
  =========                 |
  \\      /  F ield         | OpenFOAM: The Open Source CFD Toolbox
   \\    /   O peration     | Website:  https://openfoam.org
    \\  /    A nd           | Version:  7
     \\/     M anipulation  |
\*---------------------------------------------------------------------------*/
FoamFile
{
    version     2.0;
    format      ascii;
    class       volScalarField;
    location    "0.6";
    object      p;
}
// * * * * * * * * * * * * * * * * * * * * * * * * * * * * * * * * * * * * * //

dimensions      [0 2 -2 0 0 0 0];

internalField   nonuniform List<scalar> 
344
(
-0.242234
-0.242718
-0.238888
-0.228867
-0.210804
-0.18299
-0.144003
-0.0928585
-0.0291515
0.0468297
0.134032
0.230649
0.3342
0.441706
0.549928
0.655663
0.756014
0.848629
0.931843
1.00472
1.067
1.11897
1.16133
1.19504
1.22114
1.24072
1.2548
1.26431
1.27006
1.27275
1.27299
1.27125
1.26794
1.26339
1.25786
1.25157
1.24467
1.23731
1.22958
1.22158
1.21336
1.20498
1.19648
1.18788
-0.47465
-0.477334
-0.468372
-0.455598
-0.440583
-0.423284
-0.404233
-0.383802
-0.362566
-0.341164
-0.32027
-0.300548
-0.282607
-0.266972
-0.254051
-0.244111
-0.237251
-0.233373
-0.23216
-0.233052
-0.235233
-0.237625
-0.238896
-0.237493
-0.231695
-0.219699
-0.199729
-0.17016
-0.129657
-0.0773247
-0.0128405
0.0634411
0.150425
0.2463
0.348617
0.454477
0.560758
0.664396
0.762643
0.85328
0.934747
1.00617
1.06732
1.11847
1.1603
1.19368
1.21965
1.23921
1.25336
1.26299
1.26888
1.27173
1.27212
1.27052
1.26734
1.26289
1.25746
1.25124
1.24441
1.2371
1.22942
1.22145
1.21326
1.2049
1.19642
1.18783
-0.463071
-0.468938
-0.461623
-0.450815
-0.437149
-0.421023
-0.402983
-0.383481
-0.363116
-0.342529
-0.322384
-0.30332
-0.285915
-0.270663
-0.257939
-0.24798
-0.24086
-0.236463
-0.234465
-0.234307
-0.235185
-0.236045
-0.235594
-0.232329
-0.22459
-0.210647
-0.188803
-0.157522
-0.115556
-0.0620979
0.00309405
0.0796035
0.166302
0.261377
0.362423
0.466625
0.570979
0.672562
0.768766
0.857501
0.937301
1.00735
1.06744
1.11783
1.15915
1.19226
1.2181
1.23767
1.25189
1.26165
1.26769
1.2707
1.27123
1.26977
1.26672
1.26239
1.25704
1.25091
1.24414
1.23689
1.22925
1.22132
1.21316
1.20482
1.19636
1.18779
-0.453834
-0.461716
-0.455713
-0.446497
-0.43399
-0.418904
-0.401782
-0.383138
-0.363585
-0.343767
-0.324334
-0.305899
-0.289015
-0.27414
-0.261619
-0.251659
-0.244309
-0.239432
-0.236693
-0.235533
-0.235159
-0.234541
-0.23242
-0.227344
-0.217717
-0.201881
-0.17822
-0.145286
-0.101921
-0.0474061
0.0184265
0.0951024
0.181464
0.275709
0.375478
0.478041
0.580517
0.680117
0.774367
0.861296
0.939525
1.00829
1.06739
1.11707
1.15794
1.19079
1.21654
1.23611
1.25043
1.26031
1.2665
1.26966
1.27035
1.26903
1.2661
1.26188
1.25663
1.25057
1.24387
1.23667
1.22908
1.22118
1.21305
1.20474
1.19629
1.18774
-0.44659
-0.455631
-0.450665
-0.442717
-0.431189
-0.417003
-0.400695
-0.382823
-0.364011
-0.344902
-0.326129
-0.308287
-0.291898
-0.277391
-0.265078
-0.255136
-0.247587
-0.242276
-0.238854
-0.236757
-0.235202
-0.233179
-0.229465
-0.222655
-0.211215
-0.193561
-0.16816
-0.133647
-0.0889568
-0.0334537
0.0329582
0.109752
0.19575
0.289159
0.387674
0.488653
0.58933
0.687046
0.779455
0.864692
0.941456
1.00903
1.06722
1.11626
1.15671
1.18933
1.215
1.23459
1.24899
1.259
1.26534
1.26866
1.26949
1.26831
1.2655
1.26138
1.25622
1.25024
1.24361
1.23646
1.22891
1.22105
1.21295
1.20466
1.19623
1.18769
-0.441053
-0.450628
-0.446476
-0.439522
-0.428803
-0.415379
-0.399773
-0.382578
-0.364425
-0.345954
-0.327785
-0.31049
-0.294565
-0.280409
-0.268305
-0.2584
-0.25069
-0.244997
-0.240957
-0.238003
-0.235356
-0.232022
-0.226813
-0.218368
-0.205214
-0.185837
-0.158786
-0.122781
-0.0768429
-0.0204179
0.0465223
0.123404
0.209032
0.30163
0.398943
0.498423
)
;

boundaryField
{
    inlet
    {
        type            zeroGradient;
    }
    outlet
    {
        type            fixedValue;
        value           nonuniform 0();
    }
    wall
    {
        type            zeroGradient;
    }
    wedge1
    {
        type            wedge;
    }
    wedge2
    {
        type            wedge;
    }
    axis
    {
        type            empty;
    }
    procBoundary33to27
    {
        type            processor;
        value           nonuniform List<scalar> 
67
(
-0.245519
-0.247889
-0.246024
-0.237978
-0.221831
-0.195795
-0.15836
-0.108455
-0.0455914
0.0300119
0.117351
0.214633
0.319351
0.428455
0.538599
0.646437
0.748923
0.843566
0.928587
1.00298
1.06644
1.11928
1.16223
1.19628
1.22255
1.24216
1.25618
1.26558
1.27119
1.27374
1.27383
1.27196
1.26853
1.26388
1.25825
1.25188
1.24492
1.2375
1.22974
1.2217
1.21346
1.20505
1.19653
1.18792
-0.489
-0.48691
-0.475902
-0.460744
-0.44419
-0.425598
-0.405459
-0.384045
-0.361898
-0.339648
-0.317982
-0.297586
-0.279101
-0.263085
-0.249977
-0.240075
-0.2335
-0.230169
-0.229773
-0.231748
-0.235263
-0.239215
-0.239215
)
;
    }
    procBoundary33to28
    {
        type            processor;
        value           uniform 1.17921;
    }
    procBoundary33to34
    {
        type            processor;
        value           nonuniform List<scalar> 4(1.17918 1.17914 1.1791 1.17906);
    }
    procBoundary33to39
    {
        type            processor;
        value           nonuniform List<scalar> 
67
(
0.597408
0.693365
0.784063
0.867736
0.943152
1.00963
1.06698
1.11544
1.15551
1.18793
1.21353
1.23315
1.24763
1.25776
1.26424
1.2677
1.26867
1.26761
1.26492
1.2609
1.25583
1.24992
1.24335
1.23626
1.22875
1.22092
1.21285
1.20458
1.19617
1.18764
-0.436986
-0.446641
-0.443124
-0.436936
-0.426874
-0.414076
-0.399057
-0.382439
-0.364856
-0.346945
-0.329314
-0.312513
-0.297015
-0.283191
-0.271295
-0.261446
-0.253613
-0.247597
-0.243016
-0.239296
-0.235659
-0.231128
-0.224541
-0.21458
-0.199829
-0.178842
-0.150244
-0.112839
-0.0657325
-0.00844569
0.0589851
0.135944
0.221221
0.313059
0.409258
0.597408
0.507346
)
;
    }
}


// ************************************************************************* //
