/*--------------------------------*- C++ -*----------------------------------*\
  =========                 |
  \\      /  F ield         | OpenFOAM: The Open Source CFD Toolbox
   \\    /   O peration     | Website:  https://openfoam.org
    \\  /    A nd           | Version:  7
     \\/     M anipulation  |
\*---------------------------------------------------------------------------*/
FoamFile
{
    version     2.0;
    format      ascii;
    class       volVectorField;
    location    "173";
    object      U;
}
// * * * * * * * * * * * * * * * * * * * * * * * * * * * * * * * * * * * * * //

dimensions      [0 1 -1 0 0 0 0];

internalField   nonuniform List<vector> 
12400
(
(1.42337e-05 -0.0434813 -8.13064e-21)
(-0.00289734 -0.104662 -3.04208e-20)
(-0.0109218 -0.145926 5.61143e-21)
(-0.0227045 -0.170004 2.17062e-20)
(-0.0374065 -0.18019 9.38827e-21)
(-0.0543498 -0.180019 -2.32693e-20)
(-0.072873 -0.172743 -7.38786e-21)
(-0.0924187 -0.16086 -2.87601e-21)
(-0.112542 -0.145808 -2.80487e-20)
(-0.132869 -0.127895 -5.561e-21)
(-0.153049 -0.10648 -2.09389e-20)
(-0.1727 -0.0802808 3.42778e-21)
(-0.191353 -0.0477097 -1.11848e-20)
(-0.208363 -0.0071377 2.02943e-20)
(-0.222961 0.0429077 -2.6871e-20)
(-0.234192 0.103267 -2.83665e-20)
(-0.24086 0.173887 -8.31472e-21)
(-0.2418 0.253108 4.41831e-20)
(-0.236266 0.337017 -3.67195e-20)
(-0.221825 0.420865 5.2405e-21)
(0.00139862 -0.0409946 1.18765e-20)
(-2.0996e-05 -0.0982842 1.96045e-20)
(-0.00776546 -0.136538 5.83099e-21)
(-0.0200098 -0.158382 1.82157e-20)
(-0.0356187 -0.167024 -4.92161e-21)
(-0.0537157 -0.165884 2.861e-20)
(-0.073507 -0.158091 1.12781e-20)
(-0.0943697 -0.146034 2.53922e-20)
(-0.115845 -0.131081 -1.40894e-20)
(-0.137578 -0.113512 3.51551e-20)
(-0.159242 -0.0926978 1.18024e-19)
(-0.180468 -0.0674054 -1.98481e-20)
(-0.200777 -0.0361167 2.97641e-20)
(-0.219493 0.00272484 -1.90997e-20)
(-0.235748 0.0503884 4.77342e-20)
(-0.248407 0.107717 -3.52013e-21)
(-0.256031 0.17459 2.69297e-20)
(-0.257093 0.249401 -1.54856e-19)
(-0.249879 0.328399 1.66355e-20)
(-0.231988 0.406709 -1.85186e-20)
(0.00258956 -0.0381081 3.59859e-20)
(0.00246668 -0.0910821 3.84219e-20)
(-0.00496847 -0.126179 -9.21427e-21)
(-0.0174889 -0.145822 -1.97448e-20)
(-0.0336941 -0.153047 -8.93339e-21)
(-0.0525225 -0.151099 2.77173e-20)
(-0.0730508 -0.142936 4.17967e-20)
(-0.0945826 -0.130823 -9.28133e-20)
(-0.11663 -0.116055 2.83203e-20)
(-0.138833 -0.0988994 -3.69791e-20)
(-0.160864 -0.0787619 -6.17476e-20)
(-0.182345 -0.0544765 -1.05697e-20)
(-0.202751 -0.024616 -1.776e-20)
(-0.221352 0.0122462 -4.11144e-20)
(-0.237165 0.0572675 4.50172e-20)
(-0.24885 0.111155 -4.38516e-20)
(-0.254704 0.1737 5.10459e-21)
(-0.252877 0.24335 1.4502e-19)
(-0.240937 0.316493 -9.24404e-20)
(-0.215179 0.387616 7.81912e-20)
(0.0035564 -0.0349227 -2.73797e-20)
(0.00450184 -0.0832801 4.91081e-20)
(-0.00261374 -0.115142 -7.28413e-20)
(-0.0152386 -0.132652 3.45557e-20)
(-0.0317446 -0.138608 -1.86547e-19)
(-0.0509008 -0.136023 -1.14886e-19)
(-0.0716583 -0.127656 7.17595e-20)
(-0.0932388 -0.115625 1.80247e-19)
(-0.115107 -0.101153 -7.23261e-20)
(-0.136876 -0.0845073 -5.21459e-20)
(-0.158195 -0.065144 -7.4122e-20)
(-0.178643 -0.0419828 1.4931e-19)
(-0.19764 -0.0137017 1.84253e-19)
(-0.214371 0.0209752 -1.40324e-19)
(-0.227718 0.0630876 -1.1693e-19)
(-0.236166 0.11318 4.35808e-20)
(-0.237732 0.170914 -8.96244e-20)
(-0.230287 0.234741 -7.13064e-21)
(-0.211357 0.301454 1.41283e-19)
(-0.173881 0.364003 4.14337e-20)
(0.00427954 -0.0315367 1.02105e-19)
(0.00603866 -0.0750941 3.11351e-20)
(-0.000772277 -0.103705 1.1176e-19)
(-0.0133561 -0.119181 -3.34105e-20)
(-0.0298969 -0.124031 1.7724e-19)
(-0.0490134 -0.120999 1.09102e-19)
(-0.0695363 -0.112611 -1.30975e-19)
(-0.0905977 -0.100826 -1.69697e-19)
(-0.111599 -0.086793 1.57061e-19)
(-0.132104 -0.0707851 -4.22178e-20)
(-0.151716 -0.0523213 6.31609e-20)
(-0.169956 -0.0304208 -2.54558e-19)
(-0.186169 -0.00388859 8.31983e-20)
(-0.199445 0.0284183 3.69019e-20)
(-0.208531 0.0673882 1.96219e-20)
(-0.211776 0.113408 6.43317e-20)
(-0.206975 0.165987 1.63299e-19)
(-0.191589 0.223423 2.47457e-21)
(-0.164514 0.283534 -5.44815e-20)
(-0.112612 0.337125 4.08788e-20)
(0.00474906 -0.0280402 6.82675e-20)
(0.00704773 -0.0667197 3.29034e-20)
(0.000497563 -0.0921188 -1.80882e-19)
(-0.0119341 -0.105688 -1.0519e-19)
(-0.0282841 -0.109611 -4.37816e-20)
(-0.047042 -0.106334 1.41761e-19)
(-0.0669258 -0.0981297 1.69122e-19)
(-0.0869734 -0.0867846 -2.00893e-20)
(-0.106509 -0.0733686 -4.07649e-20)
(-0.125029 -0.0581622 -3.23503e-20)
(-0.142076 -0.0407565 -1.13085e-19)
(-0.157099 -0.0202795 2.55856e-19)
(-0.169363 0.00433074 -4.09349e-21)
(-0.177856 0.0340858 -9.28559e-20)
(-0.181218 0.0697186 -8.03763e-21)
(-0.177709 0.111465 1.83153e-20)
(-0.165078 0.158704 4.56238e-20)
(-0.139849 0.209306 -1.85325e-19)
(-0.104075 0.262328 7.30842e-20)
(-0.0375278 0.307936 -6.69976e-20)
(0.00496274 -0.0245098 -1.11637e-19)
(0.00751385 -0.0583246 6.39485e-20)
(0.00115127 -0.0805993 7.72599e-20)
(-0.0110545 -0.0924103 6.97583e-20)
(-0.0270333 -0.0955983 1.46661e-19)
(-0.0451686 -0.0922913 2.01638e-20)
(-0.0640765 -0.0844959 -2.45739e-20)
(-0.0827006 -0.0738132 6.4458e-20)
(-0.100278 -0.0612268 -9.44591e-20)
(-0.116229 -0.0470234 -7.4213e-21)
(-0.130019 -0.0308688 4.41796e-20)
(-0.141025 -0.0120059 -2.04548e-19)
(-0.148431 0.0104996 -6.2034e-20)
(-0.151144 0.0375228 6.23974e-20)
(-0.14772 0.0696554 -1.39872e-19)
(-0.136376 0.106992 1.46312e-19)
(-0.115196 0.148855 1.22097e-20)
(-0.0792013 0.192814 -1.31318e-20)
(-0.0342007 0.238342 -2.10338e-19)
(0.0470166 0.2759 1.17608e-19)
(0.00492391 -0.0210065 -4.13565e-20)
(0.00743385 -0.050044 -4.79318e-20)
(0.00116007 -0.0693205 -2.26247e-19)
(-0.0107813 -0.0795398 -9.98892e-20)
(-0.0262513 -0.0821921 -3.45856e-19)
(-0.0435521 -0.0790793 -2.97906e-20)
(-0.0612138 -0.0719317 -1.72273e-19)
(-0.07809 -0.0621568 -1.23112e-19)
(-0.0933293 -0.0506435 2.7208e-19)
(-0.106266 -0.0376777 4.59999e-20)
(-0.116288 -0.0229991 1.08928e-19)
(-0.1227 -0.00596234 1.38585e-19)
(-0.124618 0.0142393 -4.4558e-20)
(-0.120895 0.0383517 -1.45118e-19)
(-0.11005 0.0668417 1.28266e-19)
(-0.0902368 0.0996903 1.10207e-19)
(-0.0601659 0.1362 -1.12153e-19)
(-0.0131989 0.173804 1.47153e-19)
(0.0395059 0.21285 2.08948e-19)
(0.136089 0.240833 5.66802e-20)
(0.00463953 -0.0175763 1.13896e-19)
(0.00681529 -0.0419809 1.35832e-19)
(0.00051396 -0.0584156 6.87219e-20)
(-0.0111508 -0.067221 1.7039e-19)
(-0.0260071 -0.0695386 8.11041e-20)
(-0.0423031 -0.0668434 2.09048e-19)
(-0.0585015 -0.0605868 1.83617e-19)
(-0.0733763 -0.0519765 -7.16401e-20)
(-0.08599 -0.0417979 -1.14375e-19)
(-0.0955936 -0.0303278 2.04065e-19)
(-0.101496 -0.0173693 -1.29638e-19)
(-0.102938 -0.00238423 8.94168e-20)
(-0.0989838 0.0153115 1.21416e-19)
(-0.0884657 0.0363421 1.2787e-19)
(-0.0699275 0.0610717 -3.59175e-19)
(-0.0414614 0.0894377 -1.57786e-19)
(-0.00275118 0.120682 -3.62703e-20)
(0.0558416 0.151946 1.56796e-19)
(0.113716 0.186146 -3.39875e-19)
(0.225923 0.203955 -1.24253e-19)
(0.00411915 -0.0142517 1.62937e-19)
(0.00567637 -0.0342109 -2.00553e-19)
(-0.000774059 -0.0479809 -2.1027e-19)
(-0.0121616 -0.0555535 -2.20854e-19)
(-0.026315 -0.0577299 -1.36812e-19)
(-0.0414563 -0.0556641 -3.30639e-20)
(-0.0560022 -0.0505304 -2.24736e-19)
(-0.0686613 -0.0433345 2.78991e-19)
(-0.0784182 -0.03475 7.97364e-20)
(-0.0844422 -0.0250326 7.29147e-20)
(-0.0859695 -0.014035 -3.0856e-19)
(-0.0821826 -0.00131607 4.42085e-20)
(-0.0721141 0.0136966 -3.62507e-20)
(-0.0545955 0.0315219 -8.86153e-21)
(-0.0282378 0.052458 -1.25834e-19)
(0.00899539 0.0764714 1.5439e-19)
(0.0558003 0.102656 -3.01042e-20)
(0.126884 0.127988 -3.37139e-19)
(0.187568 0.15827 5.17484e-20)
(0.317681 0.166742 2.22777e-19)
(0.00337493 -0.0110564 1.12435e-19)
(0.0040476 -0.026789 -3.74531e-20)
(-0.00266285 -0.0380837 2.20719e-19)
(-0.0137646 -0.0445997 1.11234e-19)
(-0.0271181 -0.0468105 1.58277e-19)
(-0.0409459 -0.0455596 1.50443e-20)
(-0.0536402 -0.041751 3.03733e-19)
(-0.0638594 -0.036188 -2.74009e-19)
(-0.070518 -0.0294252 -1.22255e-19)
(-0.0727069 -0.0216828 -5.00385e-20)
(-0.0695882 -0.0128475 3.0325e-19)
(-0.0602871 -0.00255525 -5.34808e-20)
(-0.0438045 0.00967504 3.81831e-20)
(-0.018973 0.0242931 1.65784e-19)
(0.0155072 0.0415443 1.52291e-19)
(0.0619612 0.0615023 -2.45198e-19)
(0.116892 0.0828793 -1.22029e-19)
(0.201987 0.103465 6.8177e-20)
(0.263889 0.130026 1.95732e-19)
(0.417839 0.131764 -2.72242e-20)
(0.00242267 -0.00800978 -1.49588e-19)
(0.00197478 -0.0197595 -8.33934e-20)
(-0.00507779 -0.0287734 -1.14413e-19)
(-0.0158546 -0.0343954 -1.13533e-19)
(-0.0282755 -0.0367874 1.28703e-19)
(-0.0405865 -0.0364959 -2.55216e-19)
(-0.0511737 -0.0341642 2.51574e-19)
(-0.0586559 -0.0303951 1.57007e-20)
(-0.0618807 -0.0256169 -2.09536e-19)
(-0.0598554 -0.0199985 -4.64417e-20)
(-0.0516551 -0.0134382 -1.87473e-19)
(-0.0363278 -0.0056214 8.29978e-20)
(-0.0128139 0.00387688 -5.21444e-20)
(0.020083 0.0154714 -3.09785e-19)
(0.0635755 0.0293557 1.75892e-20)
(0.12046 0.045881 8.51734e-20)
(0.184852 0.0629136 1.78261e-19)
(0.28605 0.0806996 2.85439e-19)
(0.349901 0.102899 4.57661e-20)
(0.534271 0.102277 -2.97542e-19)
(0.00128386 -0.00513175 -2.02166e-19)
(-0.000477272 -0.0131652 -2.76491e-20)
(-0.00790639 -0.0200926 4.12783e-19)
(-0.0182657 -0.024963 -1.845e-19)
(-0.0295565 -0.0276448 7.96946e-21)
(-0.0400656 -0.0284031 -1.80767e-19)
(-0.0481828 -0.0276315 -1.72383e-19)
(-0.0524899 -0.025735 2.71497e-20)
(-0.0517593 -0.023008 9.24902e-20)
(-0.0448952 -0.0195496 3.30055e-19)
(-0.0308535 -0.0152417 -1.01814e-19)
(-0.00856139 -0.00978319 -4.19627e-19)
(0.0231498 -0.00275905 2.89726e-19)
(0.065569 0.00623196 2.34832e-19)
(0.119836 0.0173617 1.44534e-19)
(0.189213 0.0314173 3.38468e-19)
(0.265888 0.0449873 -9.90515e-20)
(0.384435 0.0621141 -4.39953e-19)
(0.45451 0.0794412 6.9947e-20)
(0.669043 0.0809332 8.16676e-20)
(-1.20445e-05 -0.00244674 -1.03695e-19)
(-0.00322117 -0.0070553 1.40996e-19)
(-0.0109962 -0.0120888 -1.42303e-19)
(-0.0207707 -0.0163256 2.27524e-19)
(-0.0306434 -0.0193616 -2.61357e-19)
(-0.0389489 -0.0211973 2.43668e-19)
(-0.0440811 -0.0219879 4.82932e-20)
(-0.0445736 -0.0219432 -2.6119e-19)
(-0.0391013 -0.0212146 2.13222e-19)
(-0.0264295 -0.0198119 -2.28099e-19)
(-0.00534776 -0.0175691 2.72744e-19)
(0.0253902 -0.0141485 1.4765e-19)
(0.067108 -0.00911981 1.11681e-19)
(0.121208 -0.00204644 -1.59703e-19)
(0.188729 0.00723247 -2.40364e-20)
(0.272978 0.0199396 -1.77087e-19)
(0.365298 0.0315233 1.10285e-19)
(0.499613 0.04926 6.39862e-22)
(0.582335 0.0626222 -1.86343e-19)
(0.81409 0.0686142 8.08544e-20)
(-0.00142566 1.45563e-05 2.27996e-20)
(-0.00614489 -0.00149077 8.91864e-20)
(-0.0141557 -0.00482208 1.95473e-20)
(-0.023088 -0.00851902 7.404e-20)
(-0.0311443 -0.0119285 1.79821e-19)
(-0.0367039 -0.0148042 1.67738e-19)
(-0.0381521 -0.0170741 1.19455e-19)
(-0.0339513 -0.0187546 1.50316e-19)
(-0.0226449 -0.0198458 -2.98911e-19)
(-0.00281675 -0.0202474 -4.31096e-20)
(0.0269544 -0.0197022 -4.50157e-19)
(0.0681156 -0.0178152 -1.34064e-19)
(0.122122 -0.0141041 -1.43313e-19)
(0.19038 -0.00805743 2.30909e-19)
(0.273627 0.000463347 -3.33386e-19)
(0.374331 0.012833 6.4e-20)
(0.484129 0.0243005 2.04772e-20)
(0.629049 0.0425224 2.74009e-19)
(0.728157 0.0540711 -1.34646e-19)
(0.954427 0.0640185 1.01472e-19)
(-0.00290694 0.00221562 3.04151e-19)
(-0.00911248 0.00345559 1.12264e-19)
(-0.0171599 0.00163106 2.05249e-19)
(-0.0248928 -0.00159983 1.87093e-19)
(-0.0306147 -0.00536194 3.21595e-20)
(-0.0327353 -0.00918007 -4.0658e-19)
(-0.0296084 -0.0127668 -3.00094e-19)
(-0.0195947 -0.0159474 -2.68865e-19)
(-0.00107069 -0.0185624 2.51354e-19)
(0.0275931 -0.0203737 1.49899e-19)
(0.068031 -0.0210167 5.11699e-19)
(0.121841 -0.0200154 -4.00911e-19)
(0.190454 -0.0168063 1.4596e-19)
(0.27495 -0.0108288 -2.56396e-19)
(0.375315 -0.00195522 1.79563e-19)
(0.492092 0.0107981 -6.28131e-20)
(0.617504 0.0236947 7.30523e-20)
(0.765468 0.0414733 -2.53964e-19)
(0.877177 0.0530039 2.09954e-19)
(1.07558 0.0643693 9.18925e-20)
(-0.00439592 0.00411706 -4.19454e-19)
(-0.0119672 0.00770306 1.7344e-19)
(-0.0197588 0.00717953 -2.78184e-19)
(-0.0258342 0.00435255 -2.64114e-19)
(-0.0285852 0.000289605 9.6337e-20)
(-0.0264291 -0.00432463 4.84867e-19)
(-0.017661 -0.00899901 -3.51888e-19)
(-0.00051053 -0.0133717 4.57726e-20)
(0.026833 -0.0171126 -9.79138e-20)
(0.0661998 -0.019835 -9.31554e-20)
(0.119371 -0.0210568 2.39601e-19)
(0.187912 -0.0201976 5.04821e-19)
(0.272895 -0.0166392 -1.99254e-20)
(0.374513 -0.00984401 3.91717e-20)
(0.491323 0.000292484 -1.38898e-20)
(0.621116 0.0138567 -2.28391e-19)
(0.755932 0.0286847 2.16003e-19)
(0.898649 0.0450972 3.25055e-19)
(1.01205 0.0569325 9.34437e-20)
(1.16921 0.0667996 -1.7642e-19)
(-0.00582544 0.00568124 -1.08102e-19)
(-0.0145379 0.0111709 3.53304e-19)
(-0.0216875 0.0117249 -1.17235e-20)
(-0.0255511 0.00924149 2.53337e-19)
(-0.0245869 0.0049483 1.17816e-19)
(-0.017193 -0.000280621 1.13551e-19)
(-0.00158131 -0.00576401 -1.41495e-19)
(0.0241637 -0.0109554 2.4289e-19)
(0.0620247 -0.0153512 3.96809e-20)
(0.113959 -0.0184139 -1.43091e-19)
(0.181713 -0.0195343 -7.91834e-20)
(0.266491 -0.0180496 -3.51689e-19)
(0.368482 -0.0133382 -3.37736e-19)
(0.486305 -0.0050123 7.38428e-20)
(0.616358 0.00690413 -3.00656e-20)
(0.753426 0.0214169 -1.00663e-19)
(0.888566 0.0375666 -2.92907e-19)
(1.01815 0.0518657 -3.41357e-19)
(1.12083 0.0632309 -3.88902e-19)
(1.23432 0.0693902 3.81426e-20)
(-0.00712506 0.00687776 2.26519e-20)
(-0.0166467 0.0137886 -3.18742e-19)
(-0.0226776 0.0151743 -3.03187e-19)
(-0.023687 0.0129666 -2.03798e-19)
(-0.0181726 0.00852136 3.68243e-19)
(-0.00448725 0.00288142 -7.98934e-19)
(0.0192553 -0.00309543 1.63166e-19)
(0.0551004 -0.00868314 -9.3549e-20)
(0.105136 -0.0132087 2.64918e-19)
(0.171285 -0.0159851 3.10214e-20)
(0.254957 -0.0162931 -3.94644e-19)
(0.356517 -0.0134378 1.61926e-19)
(0.474632 -0.00688855 4.61217e-20)
(0.605679 0.00343501 1.47242e-19)
(0.743457 0.0171715 -1.53894e-19)
(0.88019 0.0323947 2.5035e-19)
(1.00627 0.0486033 -1.04277e-19)
(1.11646 0.0601589 4.87595e-20)
(1.19995 0.0701346 -3.86277e-20)
(1.27505 0.071228 -1.37462e-19)
(-0.00822563 0.00768833 3.50781e-19)
(-0.0181165 0.0155073 -6.62231e-20)
(-0.0224647 0.017455 -4.25513e-20)
(-0.0198983 0.015443 2.45224e-19)
(-0.00892444 0.0109252 -1.26115e-19)
(0.0121676 0.00509342 7.19654e-19)
(0.0453565 -0.00103071 3.34926e-20)
(0.0927669 -0.00655092 2.20113e-19)
(0.156457 -0.0106318 -3.69058e-19)
(0.238056 -0.0124533 -2.76498e-19)
(0.338214 -0.0112297 3.98368e-19)
(0.455867 -0.00632277 -3.15746e-19)
(0.587516 0.00256188 2.51029e-19)
(0.726887 0.0150309 -3.57516e-20)
(0.865361 0.030176 6.81653e-19)
(0.993789 0.0454606 -1.05185e-20)
(1.10342 0.0603262 2.15757e-19)
(1.19094 0.0688089 2.97417e-19)
(1.25225 0.0767038 1.72523e-19)
(1.2976 0.0720174 2.70982e-19)
(-0.00906321 0.00810998 1.69863e-19)
(-0.0187772 0.0163084 -3.8306e-19)
(-0.0207929 0.0185308 1.29655e-19)
(-0.0138556 0.0166242 2.13231e-19)
(0.00354641 0.0121152 1.81091e-19)
(0.0331947 0.00632812 -5.23285e-19)
(0.0771268 0.000436087 2.35895e-19)
(0.137446 -0.00450617 1.07781e-19)
(0.215968 -0.0075171 4.60713e-20)
(0.313668 -0.0076814 1.88033e-19)
(0.429905 -0.00422636 -1.03519e-19)
(0.561566 0.00329117 3.26283e-19)
(0.702527 0.0147425 -2.58205e-19)
(0.843956 0.0291213 -2.5415e-19)
(0.975786 0.0449036 -4.18748e-19)
(1.08926 0.0593208 -1.26947e-19)
(1.17832 0.0717169 -2.62552e-19)
(1.24317 0.0772119 -2.78651e-19)
(1.28368 0.082259 -2.4554e-19)
(1.30863 0.0717381 -1.35157e-19)
(-0.00958142 0.00815594 2.5869e-19)
(-0.0184687 0.0162094 -6.66572e-20)
(-0.0174146 0.0184148 -1.79678e-19)
(-0.00523843 0.0165229 -5.86056e-19)
(0.0196118 0.012116 -4.72397e-20)
(0.058977 0.00663884 6.2625e-19)
(0.114886 0.00140303 -1.4164e-19)
(0.189258 -0.00239437 1.2115e-19)
(0.283369 -0.00365868 2.86656e-19)
(0.397072 -0.00144941 8.3759e-20)
(0.527847 0.00486376 -5.36828e-19)
(0.670022 0.0153415 -1.29054e-19)
(0.814792 0.0292444 -8.74349e-20)
(0.95155 0.0449089 2.42339e-19)
(1.07038 0.0603451 6.61222e-19)
(1.16476 0.0729443 -2.01225e-19)
(1.23248 0.0822732 -1.26672e-19)
(1.27703 0.0849758 3.13796e-19)
(1.30068 0.0863607 1.65341e-19)
(1.31533 0.0765163 6.74627e-20)
(-0.00973115 0.00785396 -2.77262e-19)
(-0.0170402 0.0152654 2.05614e-19)
(-0.0120881 0.0171769 -4.21051e-19)
(0.00627019 0.0152274 4.78722e-20)
(0.0396354 0.0110466 2.9775e-19)
(0.08987 0.00619078 -6.34684e-19)
(0.15888 0.00209553 -6.66339e-19)
(0.248164 7.26317e-05 1.18165e-20)
(0.358065 0.00126922 -3.95229e-19)
(0.486769 0.00653346 -2.75422e-19)
(0.629327 0.0161681 4.30247e-19)
(0.777295 0.0296437 6.64372e-19)
(0.919735 0.0454981 -2.54598e-19)
(1.0457 0.0615329 -1.53349e-19)
(1.14718 0.075625 -3.70892e-19)
(1.22111 0.085698 2.22666e-20)
(1.26919 0.0918486 -1.37504e-20)
(1.2971 0.0917841 -1.26433e-20)
(1.30907 0.0910205 3.38541e-20)
(1.316 0.0799621 4.19796e-19)
(-0.00946824 0.00724288 2.77546e-19)
(-0.0143457 0.013565 3.07916e-19)
(-0.00457194 0.0149462 4.08653e-19)
(0.0209888 0.0129107 1.63537e-19)
(0.0639742 0.00913386 -2.24379e-19)
(0.126195 0.00527641 -1.57162e-19)
(0.209259 0.00287737 -2.1398e-20)
(0.313923 0.00331319 2.27578e-19)
(0.439112 0.00768074 2.09125e-19)
(0.580786 0.0165611 1.31586e-19)
(0.731212 0.0297064 -1.83921e-20)
(0.879466 0.0458341 -3.20401e-19)
(1.01366 0.0628067 2.51605e-19)
(1.12421 0.0781887 -3.64822e-20)
(1.20637 0.0901215 1.06935e-19)
(1.26087 0.0973254 4.39416e-20)
(1.29237 0.100417 -3.27278e-20)
(1.30774 0.0981494 8.58588e-20)
(1.31165 0.0953793 -6.00182e-20)
(1.31299 0.0840667 -4.23675e-19)
(-0.00875004 0.00636831 1.44328e-19)
(-0.0102402 0.0112257 -5.54028e-19)
(0.00537721 0.0119076 2.73295e-19)
(0.0392353 0.00982832 1.15291e-19)
(0.0929675 0.00671065 -3.40606e-19)
(0.16821 0.00431026 3.3548e-19)
(0.266023 0.00423266 1.89759e-19)
(0.386011 0.00783394 -4.5268e-19)
(0.525142 0.016004 5.51576e-20)
(0.676694 0.0288323 -8.44397e-20)
(0.830184 0.0453121 1.99362e-19)
(0.973102 0.0633755 -1.49282e-19)
(1.0942 0.0804467 -2.18284e-19)
(1.18673 0.094247 3.18231e-19)
(1.24975 0.10351 -1.48175e-19)
(1.28726 0.10781 6.12978e-20)
(1.30573 0.108214 -1.33138e-19)
(1.31211 0.104125 1.32745e-21)
(1.31067 0.0999517 -1.12998e-19)
(1.30866 0.0882826 1.17047e-19)
(-0.00753101 0.00527907 -3.64563e-20)
(-0.00457488 0.00838655 -1.63647e-19)
(0.0180031 0.00829308 -1.86502e-19)
(0.0613143 0.00630774 1.07533e-19)
(0.126907 0.00420111 -3.1835e-20)
(0.216059 0.0038027 2.03683e-19)
(0.328947 0.00672014 1.45608e-19)
(0.46354 0.0141568 1.39919e-19)
(0.614339 0.0265844 4.50657e-20)
(0.771748 0.0433638 1.19403e-19)
(0.9231 0.0626147 1.97975e-19)
(1.05568 0.0816366 3.98654e-20)
(1.16044 0.0977912 -9.56839e-20)
(1.2343 0.10932 7.47003e-20)
(1.27992 0.115713 2.25362e-19)
(1.30353 0.117313 -3.95725e-19)
(1.31227 0.115442 1.18439e-19)
(1.31246 0.109977 1.37914e-19)
(1.30768 0.104622 4.26851e-20)
(1.30324 0.0928324 8.47485e-20)
(-0.00575955 0.00402493 -5.75725e-20)
(0.00280352 0.00520243 3.57182e-19)
(0.0335425 0.0043711 1.25637e-19)
(0.0874957 0.00273212 -3.87154e-19)
(0.165996 0.0020939 -1.05036e-19)
(0.269702 0.00431745 1.99584e-19)
(0.397497 0.0109088 9.73959e-20)
(0.545203 0.0227333 3.41507e-19)
(0.704498 0.0395996 -1.29514e-20)
(0.863144 0.0599551 1.59305e-20)
(1.00737 0.0810958 -1.70363e-19)
(1.12581 0.100009 -2.59969e-19)
(1.21275 0.114395 -2.60719e-20)
(1.26888 0.123251 -1.56324e-19)
(1.29965 0.126831 1.28692e-19)
(1.31246 0.126052 6.04838e-19)
(1.31426 0.122329 2.29043e-19)
(1.31034 0.115796 -2.17667e-19)
(1.30341 0.109507 -1.05679e-19)
(1.29739 0.0976515 4.14671e-20)
(-0.00337684 0.00265622 2.81621e-19)
(0.0120504 0.00184004 -4.33559e-19)
(0.052212 0.00043629 -4.15731e-19)
(0.117985 -0.000479724 5.70306e-19)
(0.210298 0.000909132 1.71972e-19)
(0.328857 0.00642087 -1.07207e-19)
(0.470783 0.0173084 -3.13062e-19)
(0.629303 0.0338684 -3.89069e-19)
(0.793212 0.0550148 2.6052e-19)
(0.948352 0.0782213 4.60086e-20)
(1.08126 0.100192 1.36482e-19)
(1.18326 0.118005 1.11089e-19)
(1.25243 0.130019 -5.70432e-21)
(1.29277 0.136067 -7.07465e-20)
(1.3115 0.137051 -1.37867e-19)
(1.31627 0.134255 -3.62137e-19)
(1.31326 0.129039 -1.37195e-19)
(1.30667 0.121683 4.53605e-19)
(1.29841 0.114587 7.26644e-20)
(1.29122 0.102725 -1.04768e-19)
(-0.00031808 0.0012251 -2.93304e-19)
(0.0233161 -0.00152339 3.04546e-19)
(0.0741901 -0.00319929 7.69449e-21)
(0.152894 -0.00289285 -1.29075e-19)
(0.259696 0.00116456 -4.25443e-20)
(0.392954 0.010632 -3.69008e-20)
(0.547558 0.0263093 -2.28517e-19)
(0.713864 0.0476757 2.78414e-19)
(0.878126 0.0725941 -4.5934e-19)
(1.0254 0.0976745 1.20487e-21)
(1.14397 0.119393 -8.18173e-20)
(1.22867 0.135302 -4.09819e-20)
(1.28128 0.1446 8.7669e-20)
(1.30824 0.147906 -1.93692e-19)
(1.3176 0.146594 -9.78484e-21)
(1.31658 0.142118 1.00925e-19)
(1.31034 0.135699 -2.43629e-19)
(1.30203 0.127675 -1.63008e-21)
(1.2929 0.119865 -7.87014e-23)
(1.28487 0.108011 1.86121e-19)
(0.00348398 -0.000212206 4.24941e-20)
(0.036735 -0.00469953 8.37232e-20)
(0.0995975 -0.00621271 1.65213e-19)
(0.192205 -0.00407359 -9.00999e-20)
(0.313858 0.00334492 -2.93939e-19)
(0.461128 0.0173806 7.70123e-20)
(0.626283 0.0381432 1.75593e-19)
(0.796813 0.064073 9.62234e-20)
(0.957191 0.0919578 3.23689e-19)
(1.09303 0.117817 -8.77967e-20)
(1.19551 0.138309 -5.20163e-20)
(1.26328 0.151745 4.33975e-20)
(1.30122 0.158206 -1.23554e-19)
(1.3173 0.158959 -1.67238e-19)
(1.31961 0.155667 -1.05035e-19)
(1.31453 0.149797 8.59589e-20)
(1.30615 0.142387 2.05875e-19)
(1.29672 0.133789 -9.82199e-20)
(1.28702 0.125315 -1.48361e-19)
(1.27835 0.113469 2.15365e-20)
(0.00809391 -0.00159279 7.55385e-20)
(0.052413 -0.00748752 1.75974e-20)
(0.128477 -0.00827511 -2.21841e-19)
(0.235758 -0.00360417 2.95219e-19)
(0.372227 0.00787672 6.62111e-20)
(0.532253 0.0269777 -3.47947e-19)
(0.705245 0.0528706 1.33338e-19)
(0.876187 0.0828147 -1.74878e-19)
(1.02886 0.11266 8.15945e-21)
(1.15073 0.138215 2.8275e-20)
(1.23656 0.15669 8.11886e-20)
(1.28862 0.167311 9.13197e-21)
(1.31407 0.170976 3.43258e-19)
(1.32159 0.169426 1.31502e-19)
(1.31875 0.164444 -6.23217e-20)
(1.31088 0.157402 -6.97181e-20)
(1.30109 0.149146 3.85211e-20)
(1.29094 0.140021 3.88534e-20)
(1.28085 0.130914 -6.26863e-20)
(1.27168 0.11906 -6.82769e-20)
(0.0135677 -0.0028453 -8.86199e-20)
(0.0704138 -0.00967346 5.87129e-21)
(0.160779 -0.00905664 4.54067e-20)
(0.283229 -0.00109578 -1.2428e-19)
(0.434034 0.0151087 2.41081e-19)
(0.605002 0.0396002 1.38512e-19)
(0.7827 0.0703931 -1.4049e-19)
(0.950309 0.103548 -9.27659e-20)
(1.09215 0.134258 8.35655e-20)
(1.19859 0.158534 -1.28694e-19)
(1.26818 0.174411 9.43816e-20)
(1.30625 0.182067 -2.03568e-21)
(1.32143 0.183083 2.70528e-21)
(1.32239 0.179492 -6.59854e-20)
(1.31586 0.17306 1.85022e-19)
(1.3061 0.165003 -1.47216e-20)
(1.2954 0.155994 7.35204e-20)
(1.28477 0.146356 -1.0455e-19)
(1.2744 0.136631 7.79271e-20)
(1.26486 0.124743 -2.99563e-20)
(0.0199468 -0.0038892 1.46154e-19)
(0.0907473 -0.0110317 1.77233e-19)
(0.196344 -0.00823279 1.31829e-19)
(0.334134 0.00379922 -1.91155e-20)
(0.498322 0.0252979 2.744e-20)
(0.677943 0.0552908 2.21688e-21)
(0.857019 0.0904861 3.04017e-19)
(1.0179 0.125873 -8.97015e-20)
(1.14665 0.156366 6.23542e-20)
(1.23716 0.17855 -3.13052e-19)
(1.2916 0.191449 4.53497e-20)
(1.31763 0.196133 1.32244e-19)
(1.32459 0.194699 -5.97633e-20)
(1.32065 0.189305 1.20138e-19)
(1.31152 0.181608 -1.50809e-19)
(1.3005 0.172642 2.02143e-19)
(1.2892 0.162931 6.36783e-21)
(1.27825 0.152772 -6.30026e-20)
(1.26769 0.142436 2.57503e-21)
(1.25787 0.130485 9.0334e-20)
(0.0272535 -0.00463543 -2.76497e-19)
(0.11336 -0.0113291 7.13543e-20)
(0.234901 -0.00549292 -2.7549e-20)
(0.387837 0.0113749 -2.03951e-19)
(0.564004 0.0386007 -7.52e-20)
(0.749636 0.0739685 -1.44899e-19)
(0.926801 0.112839 -1.25353e-19)
(1.07814 0.149391 -1.34122e-19)
(1.1924 0.178673 1.36704e-19)
(1.26728 0.198135 6.6463e-20)
(1.30807 0.207847 -1.92515e-19)
(1.32402 0.209648 -4.61297e-20)
(1.32456 0.205976 -2.17121e-20)
(1.31702 0.198981 -9.04672e-20)
(1.3061 0.19015 -1.4927e-20)
(1.29424 0.180335 -3.51383e-20)
(1.28256 0.169945 -1.38694e-19)
(1.27139 0.159244 6.56804e-20)
(1.26071 0.1483 7.72559e-20)
(1.25068 0.13625 -1.91511e-20)
(0.035486 -0.00498842 1.01948e-20)
(0.138126 -0.010331 -1.29656e-19)
(0.276068 -0.000551198 6.05527e-20)
(0.443575 0.0218597 -4.2356e-20)
(0.629915 0.0550706 5.24768e-20)
(0.818726 0.0954492 2.3901e-19)
(0.990945 0.137096 -1.03988e-19)
(1.13059 0.173738 2.55987e-19)
(1.22979 0.200949 1.21267e-20)
(1.2899 0.217238 1.24328e-19)
(1.31876 0.223687 1.08052e-20)
(1.32649 0.222749 8.30949e-20)
(1.3221 0.217037 1.64047e-20)
(1.31198 0.208595 7.9266e-21)
(1.29982 0.198715 -1.15449e-19)
(1.28742 0.18808 1.98494e-20)
(1.27549 0.177013 1.00068e-19)
(1.2642 0.165741 5.24076e-21)
(1.25346 0.154193 -4.55463e-20)
(1.2433 0.142005 1.82456e-20)
(0.0446164 -0.00484915 3.42808e-20)
(0.16485 -0.00781087 1.05811e-19)
(0.319354 0.00684113 1.14731e-19)
(0.500485 0.0354063 -3.14075e-20)
(0.694879 0.0746609 1.50447e-19)
(0.88402 0.119471 -3.02645e-20)
(1.04867 0.16289 2.44827e-19)
(1.17519 0.198603 -3.08912e-19)
(1.2594 0.223037 -5.40577e-20)
(1.30601 0.235858 -5.37994e-20)
(1.32469 0.239064 -6.40644e-20)
(1.32583 0.235552 -1.49408e-20)
(1.31775 0.227972 2.11659e-20)
(1.3058 0.218196 -7.52019e-20)
(1.29282 0.207313 7.68127e-20)
(1.28009 0.195865 -3.26472e-20)
(1.26802 0.18411 -2.46587e-20)
(1.25667 0.172235 -2.15857e-20)
(1.24592 0.160083 -1.30789e-20)
(1.23568 0.147719 -4.03067e-20)
(0.0545881 -0.0041189 1.62727e-19)
(0.19326 -0.00355943 -1.63345e-19)
(0.364179 0.0168834 1.95907e-20)
(0.557642 0.0520844 -2.08752e-20)
(0.75777 0.0972335 -5.50424e-20)
(0.944532 0.145719 -1.12645e-19)
(1.09952 0.189865 -1.69598e-20)
(1.21213 0.223728 7.50905e-20)
(1.28196 0.244835 3.4201e-20)
(1.31653 0.254023 -4.10244e-20)
(1.32671 0.254069 4.59524e-20)
(1.32269 0.248148 -1.00977e-20)
(1.31189 0.238837 -8.832e-20)
(1.29867 0.2278 1.26748e-19)
(1.28518 0.215935 3.45988e-20)
(1.27225 0.203664 -1.72478e-20)
(1.26013 0.191203 2.13066e-20)
(1.24879 0.178694 3.16537e-20)
(1.23809 0.165941 3.00897e-20)
(1.22783 0.153359 3.05709e-20)
(0.065316 -0.00270358 -1.69708e-19)
(0.223021 0.00260459 1.36802e-19)
(0.409886 0.0297145 6.0134e-20)
(0.614102 0.0718777 -1.23764e-19)
(0.81756 0.122573 -2.694e-20)
(0.999503 0.17385 -1.02992e-19)
(1.14327 0.217693 4.10955e-20)
(1.24179 0.248907 -6.79416e-20)
(1.29821 0.266283 5.18298e-21)
(1.32229 0.271776 1.07404e-20)
(1.32551 0.268779 1.99755e-20)
(1.31753 0.2606 -7.49973e-20)
(1.30477 0.249662 7.54477e-20)
(1.29071 0.237405 -5.33203e-20)
(1.27691 0.224557 -1.46487e-20)
(1.26391 0.211447 6.54347e-21)
(1.25182 0.198258 -1.46199e-20)
(1.24055 0.185086 -3.22774e-20)
(1.22995 0.171736 -1.52399e-21)
(1.21973 0.158894 -2.0292e-20)
(0.0766874 -0.000517967 -2.11623e-20)
(0.253736 0.0108251 -6.45134e-20)
(0.455774 0.0454047 -2.21231e-20)
(0.668939 0.0946859 3.54573e-20)
(0.873355 0.150399 -2.22442e-20)
(1.0484 0.203507 2.29357e-20)
(1.17995 0.246075 5.3412e-20)
(1.26465 0.273975 4.70886e-20)
(1.30886 0.287345 3.70351e-20)
(1.32398 0.289153 -7.93551e-21)
(1.32163 0.283247 -2.11028e-20)
(1.31067 0.272941 2.47284e-20)
(1.29655 0.260448 -1.2052e-20)
(1.28198 0.246991 1.4802e-20)
(1.26804 0.233148 -8.75077e-21)
(1.25507 0.219177 1.82944e-20)
(1.24307 0.205236 -4.93856e-21)
(1.23193 0.191376 2.0383e-20)
(1.2215 0.177433 -4.35171e-21)
(1.21136 0.16429 3.01768e-21)
(0.0885639 0.00251007 -4.97574e-22)
(0.284963 0.0212004 -2.76085e-22)
(0.501113 0.0639506 -7.7583e-21)
(0.72128 0.12033 3.90354e-20)
(0.924417 0.180387 2.51776e-20)
(1.0909 0.234335 -1.93257e-20)
(1.20972 0.274743 -1.44798e-20)
(1.28125 0.298798 -4.443e-21)
(1.31458 0.307998 -2.08564e-20)
(1.32221 0.306184 -1.28673e-21)
(1.31547 0.297505 8.02881e-22)
(1.30235 0.285176 -8.68545e-21)
(1.28733 0.271176 -5.50391e-21)
(1.27249 0.256522 -1.22095e-20)
(1.25855 0.241667 -1.25879e-20)
(1.2457 0.226813 -9.65393e-22)
(1.23387 0.212097 4.35682e-21)
(1.22294 0.197531 4.4248e-21)
(1.21273 0.183001 4.95933e-21)
(1.20273 0.169517 6.63528e-21)
(0.100785 0.00643586 2.57689e-20)
(0.316227 0.033777 -4.19666e-21)
(0.545178 0.0852739 -7.33106e-21)
(0.770333 0.14856 1.86563e-20)
(0.970169 0.212177 3.7223e-20)
(1.12684 0.265988 -1.64362e-20)
(1.23286 0.303457 -1.32515e-20)
(1.29213 0.323264 -2.43453e-20)
(1.31596 0.328215 -2.13865e-20)
(1.31743 0.322878 4.09731e-21)
(1.30735 0.311554 -3.45652e-21)
(1.2927 0.297288 -1.34898e-21)
(1.27716 0.281809 -7.79377e-21)
(1.26226 0.265952 -1.20641e-20)
(1.24845 0.250065 -2.53616e-21)
(1.2358 0.234309 -9.7779e-22)
(1.22422 0.218801 -3.96264e-22)
(1.21356 0.203513 2.01705e-21)
(1.20362 0.1884 7.02265e-21)
(1.19383 0.174541 4.96257e-21)
(0.113172 0.0112947 -1.57408e-20)
(0.347032 0.0485455 -2.51405e-20)
(0.587268 0.109223 -3.3508e-20)
(0.815409 0.179069 4.46894e-20)
(1.01019 0.245389 4.20604e-20)
(1.15623 0.298131 1.98036e-22)
(1.24973 0.332 1.53136e-20)
(1.29782 0.34727 4.21924e-20)
(1.3135 0.347968 4.49671e-20)
(1.31003 0.339226 2.78011e-20)
(1.29746 0.325376 -6.65838e-20)
(1.28184 0.309238 2.71456e-20)
(1.26609 0.292298 -1.10901e-20)
(1.25129 0.275228 2.61263e-20)
(1.23772 0.258291 -5.60272e-22)
(1.22537 0.241617 -3.93095e-21)
(1.21411 0.225302 2.16792e-21)
(1.20379 0.209283 1.6554e-20)
(1.19419 0.193591 -6.32924e-21)
(1.18467 0.17933 -9.57823e-22)
(0.125533 0.0170996 -5.17085e-20)
(0.376883 0.0654393 1.20984e-19)
(0.62673 0.135579 1.17873e-20)
(0.85593 0.211502 -1.52757e-19)
(1.0442 0.279631 -2.71647e-20)
(1.17916 0.330445 6.33919e-20)
(1.2607 0.360171 -1.43963e-19)
(1.29879 0.370719 -7.36387e-22)
(1.30763 0.367214 1.13762e-20)
(1.3003 0.355197 -3.19283e-21)
(1.28599 0.338928 3.49468e-20)
(1.26983 0.320972 -5.41584e-20)
(1.25411 0.302581 8.17739e-21)
(1.23957 0.284288 -1.66095e-20)
(1.22635 0.266289 -1.17866e-20)
(1.21438 0.248686 1.14361e-20)
(1.20352 0.231557 -9.40655e-22)
(1.19362 0.214804 -2.56469e-20)
(1.18442 0.198536 1.13345e-21)
(1.17521 0.183846 -8.2341e-21)
(0.13767 0.0238397 3.89625e-20)
(0.405295 0.0843353 -6.90984e-20)
(0.662975 0.16406 -5.59268e-21)
(0.891437 0.245464 -1.29924e-19)
(1.07207 0.314507 -7.67873e-20)
(1.19582 0.362622 6.25824e-20)
(1.26617 0.387781 -7.12409e-20)
(1.29548 0.393511 7.70493e-21)
(1.29871 0.385895 5.42154e-20)
(1.28847 0.37074 -1.4601e-20)
(1.27304 0.352149 6.00786e-21)