/*--------------------------------*- C++ -*----------------------------------*\
  =========                 |
  \\      /  F ield         | OpenFOAM: The Open Source CFD Toolbox
   \\    /   O peration     | Website:  https://openfoam.org
    \\  /    A nd           | Version:  7
     \\/     M anipulation  |
\*---------------------------------------------------------------------------*/
FoamFile
{
    version     2.0;
    format      ascii;
    class       volScalarField;
    location    "1.1";
    object      p;
}
// * * * * * * * * * * * * * * * * * * * * * * * * * * * * * * * * * * * * * //

dimensions      [1 -1 -2 0 0 0 0];

internalField   nonuniform List<scalar> 
580608
(
1
1
1
1
1
1
1
1
1
1
1
1
1
1
1
1
1
1
1
1
1
1
1
1
1
1
1
1
1
1
1
1
1
1
1
1
1
1
1
1
1
1
1
1
1
1
1
1
1
1
1
1
1
1
1
1
1
1
1
1
1
1
1
1
1
1
1
1
1
1
1
1
1
1
1
1
1
1
1
1
1
1
1
1
1
1
1
1
1
1
1
1
1
1
1
1
1
1
1
1
1
1
1
1
1
1
1
1
1
1
1
1
1
1
1
1
1
1
1
1
1
1
1
1
1
1
1
1
1
1
1
1
1
1
1
1
1
1
1
1
1
1
1
1
1
1
1
1
1
1
1
1
1
1
1
1
1
1
1
1
1
6.05016
10.5795
10.7661
10.8033
10.8363
10.8379
10.8233
10.7995
10.7842
10.7854
10.8091
10.8482
10.8953
10.9434
10.9911
11.0341
11.0692
11.0912
11.1
11.0923
11.0762
11.0569
11.0473
11.0602
11.0812
11.1092
11.1395
11.1689
11.1995
11.2339
11.2736
11.3142
11.3468
11.3637
11.3622
11.3477
11.3282
11.3113
11.304
11.3087
11.3272
11.3538
11.3806
11.4008
11.4221
11.4535
11.4966
11.546
11.5939
11.6321
11.6571
11.669
11.6652
11.6531
11.6372
11.6242
11.6191
11.6261
11.6459
11.6791
11.7191
11.7545
11.7783
11.7909
11.7969
11.803
11.8151
11.8384
11.8737
11.9117
11.9392
11.9521
11.9509
11.9317
11.9
11.8651
11.8355
11.8166
11.8093
11.8165
11.8452
11.8847
11.924
11.9553
11.9757
11.9868
11.9932
12.0011
12.0144
12.035
12.063
12.096
12.1288
12.1542
12.1686
12.1716
12.1618
12.1399
12.1123
12.0875
12.0723
12.0689
12.0766
12.0937
12.113
12.1294
12.1425
12.1541
12.1658
12.1789
12.1926
12.2035
12.2096
12.211
12.21
12.2081
12.2046
12.1964
12.1806
12.1599
12.1428
12.1397
12.1555
12.1863
12.2246
12.2423
12.2785
1
1
1
1
1
1
1
1
1
1
1
1
1
1
1
1
1
1
1
1
1
1
1
1
1
1
1
1
1
1
1
1
1
1
1
1
1
1
1
1
1
1
1
1
1
1
1
1
1
1
1
1
1
1
1
1
1
1
1
1
1
1
1
1
1
1
1
1
1
1
1
1
1
1
1
1
1
1
1
1
1
1
1
1
1
1
1
1
1
1
1
1
1
1
1
1
1
1
1
1
1
1
1
1
1
1
1
1
1
1
1
1
1
1
1
1
1
1
1
1
1
1
1
1
1
1
1
1
1
1
1
1
1
1
1
1
1
1
1
1
1
1
1
1
1
1
1
1
1
1
1
1
1
1
1
1
1
1
1
1
1
6.03525
10.5829
10.7595
10.8032
10.8324
10.8367
10.8234
10.8015
10.7856
10.7865
10.8093
10.8479
10.8949
10.9434
10.991
11.0338
11.0687
11.0901
11.0986
11.091
11.0762
11.0577
11.0494
11.0609
11.0814
11.1084
11.1377
11.1667
11.1982
11.2338
11.2744
11.3154
11.3479
11.3646
11.3626
11.3478
11.3283
11.3115
11.3041
11.3089
11.3276
11.3541
11.3811
11.4014
11.4231
11.4546
11.4974
11.5465
11.5938
11.6315
11.6559
11.6677
11.6644
11.6529
11.6375
11.625
11.6199
11.6265
11.646
11.6789
11.7189
11.7542
11.7782
11.7912
11.7976
11.8041
11.8165
11.8402
11.8756
11.9134
11.9402
11.9525
11.9502
11.9303
11.8984
11.8641
11.8355
11.8175
11.8108
11.8184
11.8466
11.8852
11.9238
11.9549
11.9759
11.9879
11.9953
12.0034
12.0161
12.0355
12.062
12.0944
12.1278
12.1545
12.1698
12.1734
12.1634
12.1407
12.1119
12.0865
12.0714
12.0686
12.077
12.095
12.1144
12.1305
12.1432
12.1543
12.1657
12.1788
12.1922
12.203
12.2091
12.2109
12.2102
12.2083
12.2041
12.1949
12.1787
12.1589
12.1437
12.1424
12.1591
12.1891
12.2254
12.2411
12.2739
1
1
1
1
1
1
1
1
1
1
1
1
1
1
1
1
1
1
1
1
1
1
1
1
1
1
1
1
1
1
1
1
1
1
1
1
1
1
1
1
1
1
1
1
1
1
1
1
1
1
1
1
1
1
1
1
1
1
1
1
1
1
1
1
1
1
1
1
1
1
1
1
1
1
1
1
1
1
1
1
1
1
1
1
1
1
1
1
1
1
1
1
1
1
1
1
1
1
1
1
1
1
1
1
1
1
1
1
1
1
1
1
1
1
1
1
1
1
1
1
1
1
1
1
1
1
1
1
1
1
1
1
1
1
1
1
1
1
1
1
1
1
1
1
1
1
1
1
1
1
1
1
1
1
1
1
1
1
1
1
1
5.99951
10.5887
10.7586
10.8009
10.8282
10.835
10.8228
10.8021
10.7849
10.7866
10.809
10.8472
10.8941
10.943
10.9905
11.0333
11.068
11.0889
11.0969
11.0889
11.0755
11.0586
11.051
11.0617
11.0813
11.1069
11.1348
11.1634
11.196
11.233
11.2748
11.3165
11.349
11.3655
11.3628
11.3476
11.3279
11.311
11.3032
11.3081
11.3267
11.353
11.3801
11.4005
11.423
11.455
11.4978
11.5465
11.5934
11.6303
11.6539
11.6651
11.6623
11.6515
11.6368
11.625
11.6202
11.6264
11.6455
11.6778
11.7172
11.752
11.776
11.7894
11.7965
11.8037
11.8169
11.841
11.8766
11.9139
11.9401
11.9518
11.9483
11.9271
11.8944
11.86
11.8323
11.8156
11.8102
11.8188
11.8467
11.8844
11.9218
11.9524
11.9738
11.9867
11.9951
12.0041
12.0168
12.0353
12.0604
12.092
12.1253
12.1525
12.1683
12.1725
12.1631
12.1401
12.1108
12.0851
12.0699
12.0669
12.0757
12.0943
12.1141
12.1306
12.1434
12.1542
12.165
12.1773
12.19
12.2003
12.2068
12.2097
12.2104
12.2087
12.2032
12.1918
12.1745
12.1555
12.1429
12.1444
12.1625
12.1918
12.2255
12.2406
12.2691
1
1
1
1
1
1
1
1
1
1
1
1
1
1
1
1
1
1
1
1
1
1
1
1
1
1
1
1
1
1
1
1
1
1
1
1
1
1
1
1
1
1
1
1
1
1
1
1
1
1
1
1
1
1
1
1
1
1
1
1
1
1
1
1
1
1
1
1
1
1
1
1
1
1
1
1
1
1
1
1
1
1
1
1
1
1
1
1
1
1
1
1
1
1
1
1
1
1
1
1
1
1
1
1
1
1
1
1
1
1
1
1
1
1
1
1
1
1
1
1
1
1
1
1
1
1
1
1
1
1
1
1
1
1
1
1
1
1
1
1
1
1
1
1
1
1
1
1
1
1
1
1
1
1
1
1
1
1
1
1
1
5.94762
10.5911
10.7553
10.7982
10.8261
10.8353
10.8228
10.8011
10.7834
10.7862
10.809
10.8471
10.8935
10.9422
10.9895
11.0318
11.0665
11.0865
11.0942
11.0866
11.0753
11.0601
11.0526
11.0625
11.0804
11.104
11.1306
11.1594
11.1934
11.2321
11.2752
11.3174
11.3498
11.3659
11.3624
11.347
11.3272
11.3104
11.3026
11.3074
11.3257
11.3516
11.3789
11.3996
11.4233
11.456
11.499
11.5471
11.5933
11.6292
11.652
11.6627
11.6603
11.6504
11.6365
11.6257
11.6211
11.6267
11.6454
11.6772
11.7158
11.7501
11.774
11.7878
11.7958
11.8042
11.8183
11.843
11.8785
11.9151
11.9403
11.9508
11.9461
11.9242
11.8912
11.857
11.83
11.8145
11.8105
11.8199
11.8475
11.8843
11.9208
11.951
11.9725
11.9862
11.9956
12.005
12.0175
12.0351
12.0594
12.091
12.1247
12.1519
12.1677
12.1719
12.1621
12.1388
12.1094
12.0843
12.0698
12.0668
12.076
12.0947
12.1142
12.1303
12.1431
12.1539
12.1647
12.1768
12.1887
12.1982
12.2047
12.2086
12.2104
12.2089
12.2022
12.1888
12.1703
12.1522
12.1425
12.1472
12.1665
12.1944
12.2252
12.2403
12.2642
1
1
1
1
1
1
1
1
1
1
1
1
1
1
1
1
1
1
1
1
1
1
1
1
1
1
1
1
1
1
1
1
1
1
1
1
1
1
1
1
1
1
1
1
1
1
1
1
1
1
1
1
1
1
1
1
1
1
1
1
1
1
1
1
1
1
1
1
1
1
1
1
1
1
1
1
1
1
1
1
1
1
1
1
1
1
1
1
1
1
1
1
1
1
1
1
1
1
1
1
1
1
1
1
1
1
1
1
1
1
1
1
1
1
1
1
1
1
1
1
1
1
1
1
1
1
1
1
1
1
1
1
1
1
1
1
1
1
1
1
1
1
1
1
1
1
1
1
1
1
1
1
1
1
1
1
1
1
1
1
1
5.88454
10.5875
10.7509
10.7949
10.8249
10.8347
10.8214
10.7995
10.7828
10.7859
10.8089
10.847
10.8927
10.9411
10.9878
11.0295
11.064
11.0835
11.0913
11.0846
11.076
11.0622
11.0545
11.0629
11.0789
11.1003
11.1261
11.1554
11.1908
11.2311
11.2752
11.3176
11.3497
11.3653
11.3611
11.3458
11.3262
11.3099
11.3021
11.3066
11.3241
11.3493
11.3767
11.3979
11.4231
11.457
11.5003
11.548
11.5935
11.6285
11.6504
11.6607
11.6587
11.6495
11.6362
11.6262
11.6218
11.6269
11.6452
11.6764
11.7143
11.7479
11.7716
11.7859
11.795
11.8047
11.8199
11.8452
11.8804
11.9157
11.9393
11.9486
11.943
11.9209
11.8881
11.8543
11.828
11.8136
11.8107
11.8205
11.8477
11.8839
11.9198
11.9498
11.9714
11.9854
11.9951
12.0045
12.0167
12.0341
12.0585
12.091
12.1253
12.1521
12.167
12.1699
12.1586
12.1349
12.1066
12.0834
12.0707
12.0687
12.0778
12.0954
12.1133
12.1283
12.1409
12.1523
12.1641
12.1766
12.1879
12.1964
12.2023
12.2065
12.2088
12.2076
12.2002
12.1855
12.1663
12.149
12.1415
12.1483
12.1685
12.1955
12.2247
12.2406
12.2615
1
1
1
1
1
1
1
1
1
1
1
1
1
1
1
1
1
1
1
1
1
1
1
1
1
1
1
1
1
1
1
1
1
1
1
1
1
1
1
1
1
1
1
1
1
1
1
1
1
1
1
1
1
1
1
1
1
1
1
1
1
1
1
1
1
1
1
1
1
1
1
1
1
1
1
1
1
1
1
1
1
1
1
1
1
1
1
1
1
1
1
1
1
1
1
1
1
1
1
1
1
1
1
1
1
1
1
1
1
1
1
1
1
1
1
1
1
1
1
1
1
1
1
1
1
1
1
1
1
1
1
1
1
1
1
1
1
1
1
1
1
1
1
1
1
1
1
1
1
1
1
1
1
1
1
1
1
1
1
1
1
5.80921
10.5797
10.7481
10.7923
10.8237
10.8332
10.819
10.7973
10.7822
10.7859
10.8091
10.847
10.8919
10.9396
10.9857
11.0263
11.0604
11.0799
11.0885
11.084
11.0779
11.0646
11.056
11.0622
11.0762
11.0957
11.1216
11.1521
11.1885
11.2301
11.275
11.3171
11.3485
11.3634
11.3588
11.3438
11.3249
11.3095
11.3018
11.3058
11.3221
11.3463
11.3738
11.3956
11.4227
11.4579
11.5015
11.549
11.5938
11.6279
11.6493
11.6594
11.6576
11.6488
11.6359
11.6263
11.6221
11.6267
11.6448
11.6754
11.7125
11.7455
11.7689
11.7836
11.7939
11.805
11.8215
11.8473
11.8818
11.9154
11.9372
11.9452
11.939
11.9173
11.8852
11.8522
11.8268
11.8131
11.8109
11.8208
11.8474
11.8832
11.9189
11.9488
11.9706
11.9845
11.9939
12.0028
12.0147
12.0323
12.0579
12.092
12.1274
12.1536
12.1666
12.1667
12.153
12.1291
12.1027
12.0827
12.0728
12.0726
12.0814
12.0969
12.1116
12.1247
12.1369
12.1494
12.163
12.1768
12.1883
12.196
12.2005
12.2037
12.2057
12.2045
12.1973
12.1827
12.1637
12.1471
12.1403
12.1474
12.1675
12.1946
12.2238
12.2416
12.262
1
1
1
1
1
1
1
1
1
1
1
1
1
1
1
1
1
1
1
1
1
1
1
1
1
1
1
1
1
1
1
1
1
1
1
1
1
1
1
1
1
1
1
1
1
1
1
1
1
1
1
1
1
1
1
1
1
1
1
1
1
1
1
1
1
1
1
1
1
1
1
1
1
1
1
1
1
1
1
1
1
1
1
1
1
1
1
1
1
1
1
1
1
1
1
1
1
1
1
1
1
1
1
1
1
1
1
1
1
1
1
1
1
1
1
1
1
1
1
1
1
1
1
1
1
1
1
1
1
1
1
1
1
1
1
1
1
1
1
1
1
1
1
1
1
1
1
1
1
1
1
1
1
1
1
1
1
1
1
1
1
5.72073
10.5687
10.7462
10.7897
10.8221
10.8314
10.8166
10.7951
10.7813
10.786
10.8094
10.8468
10.8907
10.9373
10.9824
11.0218
11.0558
11.0763
11.0863
11.0847
11.0804
11.067
11.0571
11.0608
11.0731
11.0911
11.1177
11.1496
11.187
11.2297
11.2748
11.316
11.3465
11.3606
11.3558
11.3414
11.3234
11.3091
11.3016
11.3049
11.3199
11.3428
11.3702
11.3929
11.4221
11.4587
11.5027
11.5499
11.5942
11.6276
11.6487
11.6587
11.657
11.6484
11.6355
11.6259
11.6216
11.626
11.6439
11.6742
11.7107
11.7429
11.766
11.781
11.7924
11.805
11.8228
11.8489
11.8825
11.9144
11.9343
11.941
11.9345
11.9136
11.8827
11.8509
11.8265
11.8132
11.811
11.8203
11.846
11.8816
11.9176
11.9479
11.9699
11.9834
11.992
12.0002
12.0119
12.0302
12.0574
12.0936
12.1304
12.1559
12.1666
12.1633
12.1464
12.1217
12.0978
12.0818
12.0755
12.0774
12.086
12.0986
12.1096
12.12
12.1314
12.1451
12.1611
12.1769
12.1894
12.1964
12.1991
12.2003
12.201
12.1996
12.1934
12.1805
12.1628
12.1464
12.1386
12.1444
12.1637
12.1915
12.2225
12.2433
12.2652
1
1
1
1
1
1
1
1
1
1
1
1
1
1
1
1
1
1
1
1
1
1
1
1
1
1
1
1
1
1
1
1
1
1
1
1
1
1
1
1
1
1
1
1
1
1
1
1
1
1
1
1
1
1
1
1
1
1
1
1
1
1
1
1
1
1
1
1
1
1
1
1
1
1
1
1
1
1
1
1
1
1
1
1
1
1
1
1
1
1
1
1
1
1
1
1
1
1
1
1
1
1
1
1
1
1
1
1
1
1
1
1
1
1
1
1
1
1
1
1
1
1
1
1
1
1
1
1
1
1
1
1
1
1
1
1
1
1
1
1
1
1
1
1
1
1
1
1
1
1
1
1
1
1
1
1
1
1
1
1
1
5.61837
10.5547
10.7441
10.7877
10.8208
10.8289
10.8139
10.7933
10.7809
10.7865
10.8098
10.8459
10.8886
10.9338
10.9778
11.0166
11.0512
11.0737
11.0854
11.0869
11.0832
11.0689
11.0575
11.0589
11.0699
11.0871
11.1147
11.148
11.1862
11.2296
11.2746
11.3148
11.3444
11.3575
11.3528
11.3389
11.3216
11.3083
11.3009
11.3035
11.317
11.3386
11.3663
11.3903
11.4218
11.4598
11.5041
11.5509
11.5945
11.6273
11.6482
11.6581
11.6562
11.6476
11.6346
11.6247
11.6205
11.6248
11.6426
11.6727
11.7087
11.7402
11.7629
11.7783
11.7906
11.8045
11.8233
11.8497
11.8824
11.9126
11.9309
11.9365
11.9298
11.9098
11.8805
11.8501
11.8265
11.8134
11.8109
11.8192
11.8437
11.8793
11.9157
11.9466
11.9687
11.9819
11.9898
11.9975
12.0091
12.0281
12.0571
12.0952
12.1331
12.1579
12.1666
12.1602
12.1402
12.1143
12.0923
12.0801
12.0776
12.0817
12.0901
12.1002
12.1079
12.1155
12.1256
12.1402
12.1585
12.1768
12.1907
12.1975
12.1984
12.1968
12.1952
12.1935
12.1889
12.1786
12.1628
12.1463
12.1365
12.1398
12.158
12.187
12.2208
12.2452
12.27
1
1
1
1
1
1
1
1
1
1
1
1
1
1
1
1
1
1
1
1
1
1
1
1
1
1
1
1
1
1
1
1
1
1
1
1
1
1
1
1
1
1
1
1
1
1
1
1
1
1
1
1
1
1
1
1
1
1
1
1
1
1
1
1
1
1
1
1
1
1
1
1
1
1
1
1
1
1
1
1
1
1
1
1
1
1
1
1
1
1
1
1
1
1
1
1
1
1
1
1
1
1
1
1
1
1
1
1
1
1
1
1
1
1
1
1
1
1
1
1
1
1
1
1
1
1
1
1
1
1
1
1
1
1
1
1
1
1
1
1
1
1
1
1
1
1
1
1
1
1
1
1
1
1
1
1
1
1
1
1
1
5.50179
10.5369
10.7415
10.7861
10.8191
10.8259
10.8115
10.7923
10.7812
10.7873
10.8098
10.8436
10.8851
10.9293
10.9725
11.0111
11.0473
11.0722
11.0854
11.0895
11.0853
11.0699
11.057
11.0565
11.0668
11.0836
11.1122
11.1469
11.1856
11.2296
11.2744
11.3135
11.3423
11.3546
11.3501
11.3369
11.32
11.307
11.2995
11.301
11.3131
11.3338
11.3623
11.3884
11.4224
11.4618
11.506
11.5521
11.5947
11.6267
11.6472
11.6567
11.6547
11.6461
11.6329
11.6229
11.6188
11.6233
11.641
11.6709
11.7063
11.7373
11.7598
11.7755
11.7888
11.8036
11.823
11.8493
11.8811
11.91
11.9272
11.9322
11.9257
11.9066
11.8786
11.8494
11.8264
11.8131
11.8101
11.8174
11.8407
11.8762
11.913
11.9444
11.9667
11.9798
11.9876
11.9952
12.007
12.0265
12.0567
12.0959
12.1343
12.1586
12.1659
12.1575
12.1355
12.1087
12.0875
12.0775
12.0777
12.0837
12.0926
12.1011
12.1064
12.1118
12.1207
12.1355
12.1556
12.176
12.1914
12.1985
12.1978
12.1934
12.1892
12.1869
12.184
12.1765
12.1628
12.1461
12.1341
12.1348
12.1518
12.1822
12.2191
12.2466
12.2748
1
1
1
1
1
1
1
1
1
1
1
1
1
1
1
1
1
1
1
1
1
1
1
1
1
1
1
1
1
1
1
1
1
1
1
1
1
1
1
1
1
1
1
1
1
1
1
1
1
1
1
1
1
1
1
1
1
1
1
1
1
1
1
1
1
1
1
1
1
1
1
1
1
1
1
1
1
1
1
1
1
1
1
1
1
1
1
1
1
1
1
1
1
1
1
1
1
1
1
1
1
1
1
1
1
1
1
1
1
1
1
1
1
1
1
1
1
1
1
1
1
1
1
1
1
1
1
1
1
1
1
1
1
1
1
1
1
1
1
1
1
1
1
1
1
1
1
1
1
1
1
1
1
1
1
1
1
1
1
1
1
5.37179
10.5163
10.7383
10.7835
10.8169
10.8228
10.8094
10.7918
10.7818
10.7884
10.8095
10.8402
10.8805
10.9248
10.9668
11.0058
11.0441
11.0715
11.0855
11.0913
11.0861
11.0696
11.0559
11.0538
11.064
11.0808
11.1099
11.1459
11.1848
11.2291
11.2736
11.3117
11.3402
11.3519
11.3482
11.3357
11.3189
11.3056
11.2972
11.2972
11.3076
11.3281
11.3581
11.3875
11.4244
11.4649
11.5086
11.5536
11.5948
11.6255
11.6454
11.6543
11.652
11.6434
11.6304
11.6206
11.6169
11.6217
11.6392
11.6689
11.7037
11.7342
11.7566
11.7729
11.7869
11.8023
11.8217
11.8476
11.8785
11.9066
11.9234
11.9285
11.9225
11.9045
11.8774
11.8486
11.8255
11.8117
11.8083
11.8148
11.8372
11.8727
11.9098
11.9413
11.9637
11.977
11.9853
11.9937
12.0064
12.0262
12.0564
12.0954
12.1334
12.1572
12.1641
12.1552
12.1328
12.1058
12.0845
12.0747
12.0755
12.0823
12.0922
12.1007
12.1054
12.1099
12.1179
12.1321
12.1524
12.1738
12.1906
12.1984
12.197
12.1904
12.1841
12.1809
12.1789
12.1735
12.1614
12.1447
12.1312
12.1302
12.1468
12.1785
12.2178
12.2466
12.2778
1
1
1
1
1
1
1
1
1
1
1
1
1
1
1
1
1
1
1
1
1
1
1
1
1
1
1
1
1
1
1
1
1
1
1
1
1
1
1
1
1
1
1
1
1
1
1
1
1
1
1
1
1
1
1
1
1
1
1
1
1
1
1
1
1
1
1
1
1
1
1
1
1
1
1
1
1
1
1
1
1
1
1
1
1
1
1
1
1
1
1
1
1
1
1
1
1
1
1
1
1
1
1
1
1
1
1
1
1
1
1
1
1
1
1
1
1
1
1
1
1
1
1
1
1
1
1
1
1
1
1
1
1
1
1
1
1
1
1
1
1
1
1
1
1
1
1
1
1
1
1
1
1
1
1
1
1
1
1
1
1
5.2305
10.4918
10.7339
10.7801
10.814
10.8192
10.8071
10.7912
10.7819
10.7887
10.8087
10.8367
10.8751
10.9199
10.9621
11.0017
11.0417
11.0708
11.0849
11.0917
11.0848
11.0677
11.054
11.0511
11.0618
11.0788
11.1077
11.1446
11.1834
11.2275
11.2719
11.3093
11.338
11.3497
11.347
11.3354
11.3186
11.3041
11.2942
11.2919
11.3004
11.3214
11.3538
11.3874
11.4276
11.4691
11.5121
11.5555
11.5949
11.624
11.6427
11.6506
11.648
11.6395
11.627
11.6178
11.6149
11.6203
11.6377
11.6668
11.701
11.7309
11.7535
11.7704
11.7851
11.8007
11.8197
11.8447
11.8747
11.9024
11.9195
11.9253
11.9205
11.9036
11.8769
11.8478
11.824
11.8093
11.8052
11.8113
11.8332
11.869
11.9062
11.9375
11.9598
11.9735
11.9831
11.993
12.0071
12.0272
12.0565
12.0941
12.1304
12.1534
12.1607
12.1527
12.1314
12.1052
12.0837
12.0725
12.0718
12.0781
12.0888
12.0986
12.1047
12.1097
12.1173
12.1302
12.1492
12.1703
12.1877
12.1965
12.1953
12.1881
12.1805
12.1762
12.1739
12.1691
12.1576
12.1412
12.1277
12.1267
12.1439
12.1767
12.2171
12.2449
12.2777
1
1
1
1
1
1
1
1
1
1
1
1
1
1
1
1
1
1
1
1
1
1
1
1
1
1
1
1
1
1
1
1
1
1
1
1
1
1
1
1
1
1
1
1
1
1
1
1
1
1
1
1
1
1
1
1
1
1
1
1
1
1
1
1
1
1
1
1
1
1
1
1
1
1
1
1
1
1
1
1
1
1
1
1
1
1
1
1
1
1
1
1
1
1
1
1
1
1
1
1
1
1
1
1
1
1
1
1
1
1
1
1
1
1
1
1
1
1
1
1
1
1
1
1
1
1
1
1
1
1
1
1
1
1
1
1
1
1
1
1
1
1
1
1
1
1
1
1
1
1
1
1
1
1
1
1
1
1
1
1
1
5.07752
10.4631
10.7291
10.7763
10.8104
10.815
10.8042
10.7893
10.7808
10.7877
10.8071
10.8336
10.8697
10.9153
10.9586
10.9997
11.0393
11.0696
11.0837
11.0901
11.0813
11.0645
11.0516
11.0486
11.0598
11.0773
11.1055
11.1428
11.1814
11.225
11.2693
11.3062
11.3355
11.3474
11.346
11.3357
11.3189
11.3028
11.2907
11.2856
11.292
11.3141
11.3493
11.3882
11.4317
11.474
11.516
11.5575
11.5947
11.6219
11.6393
11.6461
11.6429
11.6344
11.6227
11.6147
11.613
11.6193
11.6365
11.665
11.6984
11.7278
11.7504
11.7677
11.7829
11.7986
11.817
11.8408
11.8699
11.8975
11.9155
11.9225
11.9193
11.9036
11.8772
11.8473
11.822
11.8058
11.8009
11.8067
11.8288
11.8653
11.9027
11.9336
11.9554
11.9696
11.9808
11.9926
12.0083
12.029
12.0572
12.0925
12.1262
12.1475
12.1552
12.1492
12.1303
12.1059
12.0844
12.0712
12.0678
12.0724
12.0832
12.0949
12.1036
12.1104
12.1181
12.1295
12.1461
12.1656
12.1828
12.1926
12.1928
12.1863
12.1785
12.1731
12.1693
12.1632
12.1513
12.1356
12.1237
12.1246
12.1433
12.1768
12.2168
12.2421
12.2745
1
1
1
1
1
1
1
1
1
1
1
1
1
1
1
1
1
1
1
1
1
1
1
1
1
1
1
1
1
1
1
1
1
1
1
1
1
1
1
1
1
1
1
1
1
1
1
1
1
1
1
1
1
1
1
1
1
1
1
1
1
1
1
1
1
1
1
1
1
1
1
1
1
1
1
1
1
1
1
1
1
1
1
1
1
1
1
1
1
1
1
1
1
1
1
1
1
1
1
1
1
1
1
1
1
1
1
1
1
1
1
1
1
1
1
1
1
1
1
1
1
1
1
1
1
1
1
1
1
1
1
1
1
1
1
1
1
1
1
1
1
1
1
1
1
1
1
1
1
1
1
1
1
1
1
1
1
1
1
1
1
4.91229
10.43
10.7246
10.7721
10.8055
10.8093
10.7998
10.7861
10.7796
10.785
10.8035
10.8312
10.8667
10.9121
10.9558
10.9989
11.0373
11.0675
11.0818
11.0871
11.0773
11.0607
11.0487
11.0459
11.0574
11.0759
11.1035
11.1405
11.1788
11.2218
11.266
11.3028
11.3328
11.345
11.3448
11.3359
11.3196
11.3013
11.2871
11.2789
11.2833
11.3068
11.3456
11.3898
11.4363
11.4791
11.5198
11.5592
11.5942
11.6195
11.6355
11.6413
11.6375
11.6288
11.618
11.6113
11.6112
11.6188
11.6359
11.6637
11.6963
11.7248
11.7472
11.7646
11.7801
11.7957
11.8135
11.8362
11.8645
11.8923
11.9114
11.9198
11.9185
11.9041
11.8778
11.8468
11.8196
11.8016
11.7956
11.8012
11.824
11.8616
11.8997
11.9302
11.9515
11.9656
11.978
11.9918
12.0092
12.0307
12.0581
12.0912
12.1219
12.141
12.1484
12.1441
12.1283
12.1064
12.0853
12.0708
12.0646
12.0669
12.0769
12.09
12.1016
12.111
12.1192
12.1289
12.143
12.1601
12.1765
12.1871
12.1894
12.1849
12.1778
12.1713
12.1651
12.1564
12.1432
12.1285
12.1192
12.1232
12.1441
12.1779
12.2165
12.239
12.2695
1
1
1
1
1
1
1
1
1
1
1
1
1
1
1
1
1
1
1
1
1
1
1
1
1
1
1
1
1
1
1
1
1
1
1
1
1
1
1
1
1
1
1
1
1
1
1
1
1
1
1
1
1
1
1
1
1
1
1
1
1
1
1
1
1
1
1
1
1
1
1
1
1
1
1
1
1
1
1
1
1
1
1
1
1
1
1
1
1
1
1
1
1
1
1
1
1
1
1
1
1
1
1
1
1
1
1
1
1
1
1
1
1
1
1
1
1
1
1
1
1
1
1
1
1
1
1
1
1
1
1
1
1
1
1
1
1
1
1
1
1
1
1
1
1
1
1
1
1
1
1
1
1
1
1
1
1
1
1
1
1
4.73565
10.3905
10.7202
10.7671
10.7995
10.8023
10.7941
10.7826
10.779
10.7823
10.799
10.8277
10.8661
10.9099
10.9533
10.998
11.0357
11.0649
11.0796
11.0839
11.0733
11.0569
11.0457
11.0431
11.0539
11.0739
11.1013
11.1373
11.1755
11.2183
11.2627
11.2996
11.3304
11.3426
11.3433
11.3355
11.3205
11.2998
11.2829
11.2721
11.2747
11.3003
11.3432
11.3925
11.4412
11.484
11.5231
11.5602
11.593
11.6167
11.6317
11.6368
11.6324
11.6233
11.6134
11.6078
11.6095
11.6184
11.6356
11.6627
11.6945
11.7222
11.7439
11.7611
11.7764
11.7919
11.8091
11.8309
11.8587
11.8869
11.9072
11.917
11.9175
11.9044
11.8781
11.846
11.8169
11.797
11.7898
11.7954
11.8191
11.858
11.8972
11.9279
11.9486
11.9624
11.975
11.9901
12.009
12.0317
12.0587
12.0901
12.1183
12.1349
12.1411
12.1376
12.1243
12.1052
12.0854
12.0703
12.0624
12.0629
12.0714
12.085
12.0985
12.1103
12.1193
12.1279
12.1397
12.1543
12.1696
12.1808
12.1853
12.1834
12.1776
12.1703
12.1614
12.1495
12.1347
12.1207
12.1143
12.1217
12.1448
12.1786
12.2157
12.2365
12.2644
1
1
1
1
1
1
1
1
1
1
1
1
1
1
1
1
1
1
1
1
1
1
1
1
1
1
1
1
1
1
1
1
1
1
1
1
1
1
1
1
1
1
1
1
1
1
1
1
1
1
1
1
1
1
1
1
1
1
1
1
1
1
1
1
1
1
1
1
1
1
1
1
1
1
1
1
1
1
1
1
1
1
1
1
1
1
1
1
1
1
1
1
1
1
1
1
1
1
1
1
1
1
1
1
1
1
1
1
1
1
1
1
1
1
1
1
1
1
1
1
1
1
1
1
1
1
1
1
1
1
1
1
1
1
1
1
1
1
1
1
1
1
1
1
1
1
1
1
1
1
1
1
1
1
1
1
1
1
1
1
1
4.54835
10.3429
10.7153
10.7614
10.7922
10.7946
10.7882
10.7805
10.7777
10.7812
10.7961
10.822
10.8629
10.9069
10.9507
10.9959
11.0337
11.0623
11.0779
11.081
11.0696
11.054
11.043
11.0404
11.0492
11.0702
11.098
11.1329
11.1717
11.2147
11.2593
11.2972
11.328
11.3405
11.3418
11.3345
11.3207
11.2978
11.2778
11.2649
11.2669
11.2952
11.3428
11.3963
11.4462
11.4884
11.5257
11.5604
11.591
11.6134
11.6278
11.6324
11.6278
11.6185
11.6094
11.6047
11.6078
11.6177
11.6351
11.6616
11.6927
11.7197
11.7408
11.7573
11.7721
11.7871
11.8038
11.8249
11.8525
11.8814
11.903
11.9139
11.9157
11.9038
11.8776
11.8445
11.8137
11.7922
11.784
11.7895
11.8143
11.8546
11.8951
11.9263
11.9467
11.9601
11.9724
11.9876
12.0074
12.0313
12.0588
12.089
12.1154
12.1299
12.1344
12.1305
12.1186
12.1017
12.0838
12.0694
12.0613
12.0607
12.068
12.0814
12.0952
12.1077
12.1174
12.1255
12.1358
12.1486
12.1627
12.1743
12.1807
12.181
12.1767
12.1689
12.1578
12.1432
12.127
12.1136
12.1093
12.1192
12.1439
12.1778
12.214
12.2349
12.261
1
1
1
1
1
1
1
1
1
1
1
1
1
1
1
1
1
1
1
1
1
1
1
1
1
1
1
1
1
1
1
1
1
1
1
1
1
1
1
1
1
1
1
1
1
1
1
1
1
1
1
1
1
1
1
1
1
1
1
1
1
1
1
1
1
1
1
1
1
1
1
1
1
1
1
1
1
1
1
1
1
1
1
1
1
1
1
1
1
1
1
1
1
1
1
1
1
1
1
1
1
1
1
1
1
1
1
1
1
1
1
1
1
1
1
1
1
1
1
1
1
1
1
1
1
1
1
1
1
1
1
1
1
1
1
1
1
1
1
1
1
1
1
1
1
1
1
1
1
1
1
1
1
1
1
1
1
1
1
1
1
4.35035
10.2866
10.7106
10.7546
10.7843
10.7875
10.7838
10.7802
10.7749
10.7804
10.7955
10.8181
10.8591
10.9021
10.9474
10.9921
11.0309
11.0598
11.0769
11.0784
11.0665
11.0525
11.0407
11.0377
11.0438
11.0643
11.0932
11.1275
11.1672
11.2109
11.2558
11.295
11.3255
11.3388
11.3405
11.3333
11.3201
11.2946
11.2713
11.2573
11.26
11.2917
11.3441
11.4009
11.451
11.4921
11.5273
11.5598
11.5885
11.6098
11.6238
11.6281
11.6237
11.6145
11.6061
11.6021
11.6059
11.6164
11.6338
11.6597
11.6905
11.7172
11.7379
11.7537
11.7677
11.7819
11.7978
11.8184
11.8461
11.8758
11.8985
11.9103
11.9132
11.9019
11.8757
11.8419
11.81
11.7874
11.7784
11.7839
11.8096
11.8511
11.8929
11.9248
11.9455
11.9586
11.9706
11.9854
12.0051
12.0296
12.0575
12.0872
12.1124
12.1259
12.1291
12.1241
12.1122
12.0962
12.08
12.0674
12.0606
12.0599
12.0665
12.0793
12.0923
12.104
12.1135
12.1214
12.131
12.143
12.1563
12.1682
12.1756
12.1774
12.1742
12.1663
12.154
12.1381
12.121
12.1077
12.1043
12.1153
12.1408
12.1749
12.2116
12.2344
12.2598
1
1
1
1
1
1
1
1
1
1
1
1
1
1
1
1
1
1
1
1
1
1
1
1
1
1
1
1
1
1
1
1
1
1
1
1
1
1
1
1
1
1
1
1
1
1
1
1
1
1
1
1
1
1
1
1
1
1
1
1
1
1
1
1
1
1
1
1
1
1
1
1
1
1
1
1
1
1
1
1
1
1
1
1
1
1
1
1
1
1
1
1
1
1
1
1
1
1
1
1
1
1
1
1
1
1
1
1
1
1
1
1
1
1
1
1
1
1
1
1
1
1
1
1
1
1
1
1
1
1
1
1
1
1
1
1
1
1
1
1
1
1
1
1
1
1
1
1
1
1
1
1
1
1
1
1
1
1
1
1
1
4.14267
10.2227
10.7041
10.7451
10.7767
10.7817
10.7826
10.7797
10.7729
10.7775
10.7931
10.8147
10.854
10.8958
10.9418
10.9869
11.0273
11.0575
11.0755
11.0766
11.0647
11.0523
11.0386
11.0348
11.038
11.0565
11.0873
11.1212
11.1618
11.2064
11.2519
11.2923
11.3224
11.3372
11.3396
11.3324
11.3187
11.2902
11.2634
11.2495
11.254
11.2898
11.3466
11.4056
11.4552
11.4948
11.5281
11.5584
11.5855
11.606
11.6195
11.6237
11.6198
11.6112
11.6036
11.6001
11.604
11.614
11.6309
11.6562
11.687
11.7141
11.7351
11.7507
11.7641
11.7773
11.7921
11.8117
11.8393
11.8697
11.8935
11.9062
11.9096
11.8988
11.8726
11.8384
11.8057
11.7825
11.7731
11.7789
11.8051
11.8473
11.8899
11.9227
11.9439
11.9574
11.9696
11.9842
12.0033
12.0271
12.0546
12.0837
12.1085
12.1219
12.1248
12.1191
12.1064
12.0901
12.0748
12.0637
12.0587
12.0593
12.0661
12.0782
12.0897
12.0998
12.1084
12.1161
12.1255
12.1376
12.1508
12.1625
12.1701
12.1722
12.1694
12.1619
12.1498
12.134
12.117
12.1035
12.0997
12.1101
12.1355
12.1701
12.2083
12.2343
12.2605
1
1
1
1
1
1
1
1
1
1
1
1
1
1
1
1
1
1
1
1
1
1
1
1
1
1
1
1
1
1
1
1
1
1
1
1
1
1
1
1
1
1
1
1
1
1
1
1
1
1
1
1
1
1
1
1
1
1
1
1
1
1
1
1
1
1
1
1
1
1
1
1
1
1
1
1
1
1
1
1
1
1
1
1
1
1
1
1
1
1
1
1
1
1
1
1
1
1
1
1
1
1
1
1
1
1
1
1
1
1
1
1
1
1
1
1
1
1
1
1
1
1
1
1
1
1
1
1
1
1
1
1
1
1
1
1
1
1
1
1
1
1
1
1
1
1
1
1
1
1
1
1
1
1
1
1
1
1
1
1
1
3.92726
10.151
10.6936
10.7341
10.77
10.7787
10.7838
10.7767
10.7729
10.7756
10.7851
10.8108
10.8461
10.8888
10.9343
10.9803
11.0227
11.0543
11.0733
11.0753
11.0644
11.0524
11.0361
11.0311
11.0324
11.0479
11.0811
11.1151
11.1561
11.2014
11.2472
11.2884
11.3184
11.3355
11.3391
11.3318
11.3164
11.2846
11.255
11.2422
11.2492
11.2892
11.3497
11.4096
11.4583
11.4963
11.5277
11.5564
11.5822
11.602
11.6151
11.6191
11.6159
11.6085
11.6017
11.5984
11.6018
11.6106
11.6261
11.6506
11.6818
11.71
11.7322
11.7483
11.7615
11.7738
11.7872
11.8055
11.8325
11.8633
11.8879
11.9012
11.905
11.8945
11.8684
11.8341
11.8011
11.7778
11.7684
11.7744
11.8007
11.8431
11.8857
11.9191
11.9412
11.956
11.9693
11.9843
12.0027
12.0247
12.0504
12.0781
12.1026
12.117
12.1209
12.1155
12.1024
12.0852
12.0693
12.0583
12.0546
12.0572
12.0652
12.0771
12.0874
12.0957
12.103
12.1103
12.1198
12.1323
12.1458
12.1572
12.1641
12.1656
12.1626
12.1557
12.145
12.1307
12.1145
12.1006
12.0954
12.1042
12.1287
12.1641
12.2044
12.2341
12.2619
1
1
1
1
1
1
1
1
1
1
1
1
1
1
1
1
1
1
1
1
1
1
1
1
1
1
1
1
1
1
1
1
1
1
1
1
1
1
1
1
1
1
1
1
1
1
1
1
1
1
1
1
1
1
1
1
1
1
1
1
1
1
1
1
1
1
1
1
1
1
1
1
1
1
1
1
1
1
1
1
1
1
1
1
1
1
1
1
1
1
1
1
1
1
1
1
1
1
1
1
1
1
1
1
1
1
1
1
1
1
1
1
1
1
1
1
1
1
1
1
1
1
1
1
1
1
1
1
1
1
1
1
1
1
1
1
1
1
1
1
1
1
1
1
1
1
1
1
1
1
1
1
1
1
1
1
1
1
1
1
1
3.70514
10.0671
10.6813
10.7244
10.7646
10.7781
10.7836
10.7754
10.7721
10.7745
10.779
10.8064
10.8376
10.8809
10.9273
10.9733
11.0168
11.0491
11.0696
11.073
11.0645
11.0516
11.0331
11.026
11.0277
11.0416
11.076
11.1101
11.1507
11.1961
11.2419
11.283
11.3137
11.3335
11.339
11.3313
11.3129
11.2782
11.2471
11.2362
11.2461
11.2898
11.3529
11.4128
11.46
11.4962
11.5261
11.5536
11.5786
11.5979
11.6103
11.6144
11.6121
11.6064
11.6005
11.5969
11.5993
11.606
11.6194
11.643
11.6746
11.7047
11.7289
11.7463
11.7598
11.7715
11.7836
11.8001
11.826
11.8567
11.8818
11.8954
11.8994
11.8893
11.8635
11.8293
11.7965
11.7735
11.7644
11.7705
11.7964
11.8382
11.88
11.9135
11.9369
11.9539
11.9695
11.9857
12.0035
12.0232
12.0459
12.0708
12.0945
12.1103
12.1165
12.113
12.1006
12.0827
12.0648
12.0522
12.0483
12.0523
12.0621
12.0748
12.0849
12.0921
12.0983
12.1049
12.1143
12.1273
12.141
12.1519
12.1577
12.1579
12.1543
12.1482
12.1395
12.1275
12.1126
12.0983
12.0914
12.0983
12.1218
12.1579
12.2003
12.2329
12.2627
1
1
1
1
1
1
1
1
1
1
1
1
1
1
1
1
1
1
1
1
1
1
1
1
1
1
1
1
1
1
1
1
1
1
1
1
1
1
1
1
1
1
1
1
1
1
1
1
1
1
1
1
1
1
1
1
1
1
1
1
1
1
1
1
1
1
1
1
1
1
1
1
1
1
1
1
1
1
1
1
1
1
1
1
1
1
1
1
1
1
1
1
1
1
1
1
1
1
1
1
1
1
1
1
1
1
1
1
1
1
1
1
1
1
1
1
1
1
1
1
1
1
1
1
1
1
1
1
1
1
1
1
1
1
1
1
1
1
1
1
1
1
1
1
1
1
1
1
1
1
1
1
1
1
1
1
1
1
1
1
1
3.47567
9.96961
10.6745
10.7154
10.7593
10.7783
10.779
10.776
10.772
10.7705
10.7751
10.8002
10.8313
10.8734
10.9213
10.9677
11.0097
11.0424
11.064
11.069
11.0635
11.0489
11.03
11.0201
11.0231
11.0389
11.0722
11.1068
11.1462
11.191
11.2361
11.2768
11.309
11.3308
11.3383
11.3307
11.3078
11.2711
11.2407
11.2325
11.2454
11.2919
11.3563
11.4153
11.4605
11.4946
11.5231
11.5498
11.5744
11.5933
11.6054
11.6097
11.6084
11.6047
11.5996
11.5954
11.5962
11.6005
11.6114
11.6341
11.666
11.6983
11.7249
11.7442
11.7584
11.7699
11.7807
11.7955
11.82
11.8504
11.8755
11.8892
11.8931
11.8833
11.8578
11.8242
11.792
11.7698
11.7612
11.7674
11.7923
11.8326
11.8728
11.906
11.9308
11.9508
11.9698
11.988
12.0056
12.0228
12.0414
12.0625
12.0845
12.1016
12.1109
12.1106
12.1002
12.0821
12.0619
12.0465
12.0411
12.0451
12.0561
12.0704
12.0816
12.0889
12.0946
12.1005
12.1095
12.1223
12.1359
12.1464
12.151
12.15
12.1456
12.1401
12.1333
12.1235
12.11
12.0956
12.0874
12.0928
12.1157
12.1524
12.1963
12.2305
12.2618
1
1
1
1
1
1
1
1
1
1
1
1
1
1
1
1
1
1
1
1
1
1
1
1
1
1
1
1
1
1
1
1
1
1
1
1
1
1
1
1
1
1
1
1
1
1
1
1
1
1
1
1
1
1
1
1
1
1
1
1
1
1
1
1
1
1
1
1
1
1
1
1
1
1
1
1
1
1
1
1
1
1
1
1
1
1
1
1
1
1
1
1
1
1
1
1
1
1
1
1
1
1
1
1
1
1
1
1
1
1
1
1
1
1
1
1
1
1
1
1
1
1
1
1
1
1
1
1
1
1
1
1
1
1
1
1
1
1
1
1
1
1
1
1
1
1
1
1
1
1
1
1
1
1
1
1
1
1
1
1
1
3.23427
9.85735
10.6738
10.7053
10.755
10.7757
10.7766
10.7736
10.7687
10.7663
10.7752
10.793
10.8282
10.8696
10.9165
10.9627
11.0019
11.0349
11.0567
11.0636
11.0608
11.0448
11.027
11.0153
11.0176
11.037
11.0686
11.1041
11.143
11.1867
11.2299
11.2705
11.3053
11.3278
11.3367
11.329
11.3009
11.2633
11.236
11.2308
11.2473
11.2957
11.3604
11.4176
11.4606
11.4922
11.519
11.5447
11.569
11.5881
11.6002
11.6052
11.6053
11.6032
11.5988
11.5935
11.5924
11.5945
11.6032
11.6249
11.6574
11.6915
11.7203
11.7412
11.7561
11.7676
11.7777
11.7909
11.8144
11.8447
11.8698
11.8833
11.8867
11.8769
11.8516
11.8186
11.7874
11.7663
11.7585
11.765
11.7884
11.8266
11.8646
11.8971
11.9234
11.9467
11.9696
11.9904
12.0083
12.0231
12.0373
12.0541
12.0737
12.0916
12.1038
12.1076
12.1004
12.0826
12.0603
12.0418
12.0338
12.0362
12.0475
12.0636
12.077
12.0857
12.0917
12.0971
12.1052
12.1173
12.1303
12.1403
12.1442
12.1423
12.1375
12.1324
12.1268
12.1184
12.1057
12.0915
12.083
12.0882
12.1111
12.1483
12.1927
12.2268
12.2588
1
1
1
1
1
1
1
1
1
1
1
1
1
1
1
1
1
1
1
1
1
1
1
1
1
1
1
1
1
1
1
1
1
1
1
1
1
1
1
1
1
1
1
1
1
1
1
1
1
1
1
1
1
1
1
1
1
1
1
1
1
1
1
1
1
1
1
1
1
1
1
1
1
1
1
1
1
1
1
1
1
1
1
1
1
1
1
1
1
1
1
1
1
1
1
1
1
1
1
1
1
1
1
1
1
1
1
1
1
1
1
1
1
1
1
1
1
1
1
1
1
1
1
1
1
1
1
1
1
1
1
1
1
1
1
1
1
1
1
1
1
1
1
1
1
1
1
1
1
1
1
1
1
1
1
1
1
1
1
1
1
2.97956
9.71939
10.6728
10.6982
10.7525
10.7675
10.7767
10.769
10.7657
10.7624
10.7756
10.7901
10.8269
10.8684
10.9126
10.9578
10.9943
11.0271
11.0485
11.0578
11.0561
11.04
11.0236
11.0121
11.0118
11.0349
11.0643
11.1004
11.1403
11.1828
11.2236
11.2653
11.3028
11.3246
11.3338
11.3248
11.292
11.2553
11.232
11.2309
11.2509
11.3006
11.3649
11.4199
11.4605
11.4897
11.5144
11.5387
11.5624
11.5817
11.5946
11.6011
11.6026
11.6017
11.5973
11.5909
11.5878
11.5883
11.5955
11.617
11.6501
11.6857
11.7156
11.7372
11.7523
11.7634
11.7729
11.7854
11.8085
11.8393
11.8649
11.8783
11.8811
11.8706
11.8449
11.8124
11.7822
11.7626
11.7561
11.7629
11.7848
11.8204
11.856
11.8876
11.9153
11.9419
11.9685
11.992
12.0104
12.0233
12.0336
12.0463
12.0634
12.0815
12.096
12.1034
12.0996
12.0827
12.0593
12.0382
12.0271
12.0271
12.0377
12.0552
12.0709
12.0817
12.0889
12.0941
12.1011
12.112
12.124
12.1336
12.1373
12.1356
12.1308
12.1258
12.1201
12.1117
12.099
12.0852
12.0777
12.084
12.108
12.1455
12.1896
12.2224
12.2538
1
1
1
1
1
1
1
1
1
1
1
1
1
1
1
1
1
1
1
1
1
1
1
1
1
1
1
1
1
1
1
1
1
1
1
1
1
1
1
1
1
1
1
1
1
1
1
1
1
1
1
1
1
1
1
1
1
1
1
1
1
1
1
1
1
1
1
1
1
1
1
1
1
1
1
1
1
1
1
1
1