/*--------------------------------*- C++ -*----------------------------------*\
  =========                 |
  \\      /  F ield         | OpenFOAM: The Open Source CFD Toolbox
   \\    /   O peration     | Website:  https://openfoam.org
    \\  /    A nd           | Version:  7
     \\/     M anipulation  |
\*---------------------------------------------------------------------------*/
FoamFile
{
    version     2.0;
    format      ascii;
    class       volScalarField;
    location    "3.6";
    object      T;
}
// * * * * * * * * * * * * * * * * * * * * * * * * * * * * * * * * * * * * * //

dimensions      [0 0 0 1 0 0 0];

internalField   nonuniform List<scalar> 
4116
(
1.86087
1.86148
1.86255
1.86246
1.86057
1.85769
1.85338
1.84985
1.84864
1.84822
1.84898
1.85049
1.85048
1.84952
1.8473
1.84264
1.83643
1.832
1.82919
1.82715
1.82681
1.82695
1.82653
1.82363
1.8175
1.81068
1.80305
1.79519
1.78856
1.78359
1.78004
1.77656
1.77259
1.76812
1.76273
1.75565
1.74631
1.73627
1.72719
1.71994
1.71396
1.70857
1.70254
1.69591
1.68901
1.68191
1.67444
1.66683
1.65925
1.65089
1.64793
1.64182
1.64477
1.66919
1.72262
1.80564
1.8666
1.92173
1.94274
1.96109
1.96857
1.97077
1.96971
1.96159
1.95613
1.95397
1.95388
1.95426
1.95465
1.95499
1.95508
1.95444
1.95297
1.95049
1.94751
1.94455
1.94214
1.94099
1.93977
1.93788
1.93509
1.93149
1.92795
1.92464
1.9209
1.91629
1.9117
1.90862
1.90787
1.90839
1.91046
1.91342
1.91562
1.91604
1.91575
1.91448
1.91046
1.90425
1.90013
1.89826
1.89688
1.89576
1.89484
1.89393
1.89252
1.89056
1.88834
1.88654
1.88592
1.88606
1.88724
1.88909
1.89082
1.89227
1.89361
1.89442
1.89407
1.89301
1.8914
1.88892
1.88511
1.88152
1.88067
1.88094
1.88242
1.88617
1.89038
1.89208
1.89204
1.89092
1.8881
1.88384
1.87685
1.86752
1.86024
1.85648
1.85412
1.85231
1.8512
1.85123
1.85337
1.8585
1.8647
1.86866
1.86923
1.86798
1.86178
1.86125
1.86403
1.86551
1.86485
1.86323
1.85996
1.8553
1.85293
1.85226
1.85218
1.85256
1.85281
1.85235
1.85084
1.84774
1.84375
1.84066
1.83783
1.83518
1.83383
1.83249
1.83002
1.82671
1.82314
1.81932
1.81495
1.8102
1.80485
1.79961
1.79506
1.79037
1.7849
1.77894
1.77358
1.76923
1.76577
1.76125
1.75455
1.74698
1.74009
1.73379
1.72736
1.72087
1.71498
1.70962
1.70389
1.69683
1.68923
1.68449
1.67734
1.67847
1.69757
1.75743
1.84289
1.91233
1.96049
1.98355
2.00726
2.01279
2.01246
2.00794
2.00064
1.99303
1.98593
1.98406
1.98587
1.98914
1.99047
1.99103
1.99095
1.98978
1.98697
1.98354
1.98015
1.9769
1.97315
1.97074
1.96922
1.96765
1.96535
1.96258
1.95981
1.95714
1.95506
1.95286
1.94951
1.94507
1.94099
1.93817
1.93691
1.93673
1.93701
1.93757
1.93732
1.93587
1.93254
1.92798
1.92545
1.92438
1.9235
1.92239
1.92147
1.9205
1.91905
1.91694
1.91452
1.91209
1.91054
1.9103
1.91098
1.91358
1.9169
1.91977
1.92207
1.92341
1.92324
1.92213
1.92007
1.91681
1.91219
1.90749
1.90521
1.90463
1.90437
1.90493
1.9076
1.91177
1.91355
1.91295
1.90985
1.90571
1.90112
1.89502
1.88707
1.8796
1.87518
1.8731
1.87165
1.87063
1.87041
1.87116
1.87375
1.87753
1.88074
1.88234
1.88233
1.88048
1.86216
1.86472
1.86558
1.86475
1.86301
1.8603
1.85814
1.85683
1.85557
1.85454
1.85371
1.85269
1.85134
1.84967
1.84793
1.84637
1.84487
1.84325
1.84114
1.83787
1.83402
1.82974
1.82556
1.82222
1.82071
1.81999
1.81842
1.81459
1.80901
1.80275
1.79578
1.78894
1.78334
1.77892
1.77749
1.77779
1.77761
1.77435
1.76795
1.76133
1.75446
1.7474
1.74111
1.73533
1.7302
1.72572
1.72119
1.71916
1.71455
1.73151
1.79642
1.87589
1.96008
2.00445
2.03137
2.04478
2.05526
2.0543
2.04894
2.04302
2.03498
2.02846
2.02449
2.02365
2.02485
2.02807
2.03022
2.02974
2.02889
2.02776
2.0256
2.02229
2.01838
2.01466
2.01129
2.00786
2.00569
2.00374
2.00113
1.99809
1.9953
1.99282
1.99087
1.98931
1.98765
1.98539
1.98268
1.97942
1.97487
1.97061
1.9677
1.966
1.96452
1.96225
1.95877
1.95533
1.95407
1.95421
1.95479
1.95483
1.95425
1.95362
1.95244
1.95034
1.94808
1.94607
1.94448
1.944
1.94428
1.94585
1.94977
1.95443
1.95781
1.95898
1.95852
1.95708
1.95489
1.95151
1.94651
1.94096
1.93734
1.93561
1.93415
1.93275
1.93227
1.93279
1.93512
1.93725
1.9368
1.93285
1.9278
1.9231
1.91838
1.91321
1.90738
1.90197
1.89879
1.89745
1.89675
1.8966
1.89719
1.89843
1.89985
1.90092
1.90138
1.90229
1.90273
1.86303
1.86391
1.86381
1.86271
1.86102
1.85979
1.85929
1.85867
1.8573
1.85475
1.85208
1.85012
1.84886
1.84806
1.8483
1.8488
1.84893
1.84759
1.84405
1.83964
1.83372
1.82839
1.82493
1.82312
1.82349
1.8246
1.8238
1.82002
1.81493
1.80817
1.8002
1.79482
1.79138
1.78985
1.78979
1.79079
1.79151
1.7894
1.78474
1.77996
1.77423
1.76754
1.76184
1.75699
1.75246
1.75147
1.74667
1.75861
1.81436
1.90631
1.99645
2.04469
2.07812
2.08671
2.09349
2.09077
2.08737
2.08047
2.07437
2.07097
2.06789
2.06565
2.06533
2.06624
2.06841
2.06891
2.06856
2.06794
2.06698
2.06537
2.06258
2.05907
2.05532
2.05244
2.04952
2.04654
2.04409
2.04112
2.03705
2.03319
2.02977
2.02668
2.02411
2.02235
2.02153
2.0213
2.02092
2.01875
2.0138
2.00857
2.00372
1.99945
1.9955
1.99137
1.98806
1.98702
1.9874
1.98914
1.9913
1.99181
1.99174
1.99141
1.98993
1.98745
1.98555
1.98438
1.98393
1.98408
1.98506
1.98739
1.9919
1.99639
1.99865
1.99868
1.99689
1.99408
1.9905
1.98523
1.97863
1.97369
1.97095
1.96861
1.96622
1.96396
1.9622
1.96143
1.96185
1.96358
1.96386
1.96073
1.95584
1.95175
1.9483
1.94503
1.94124
1.93656
1.93237
1.93038
1.92983
1.92979
1.93024
1.93013
1.92994
1.92937
1.92878
1.92928
1.93061
1.86247
1.86123
1.85991
1.85916
1.85902
1.85888
1.85861
1.85827
1.85697
1.85354
1.85007
1.84883
1.84809
1.84768
1.84876
1.8509
1.8509
1.84858
1.84524
1.84072
1.8348
1.82992
1.82704
1.82593
1.82635
1.82697
1.82602
1.82264
1.81846
1.81336
1.80818
1.80483
1.80261
1.8011
1.8001
1.79976
1.79948
1.79905
1.79831
1.79559
1.79236
1.78856
1.78377
1.7799
1.77287
1.7791
1.81735
1.91342
2.00665
2.08175
2.10867
2.12534
2.12851
2.12346
2.11956
2.11134
2.10618
2.10364
2.10258
2.10238
2.10238
2.10248
2.10335
2.10515
2.10576
2.10556
2.10492
2.10367
2.10214
2.09975
2.09684
2.09388
2.09139
2.08931
2.08605
2.08306
2.08002
2.07575
2.07002
2.06494
2.06053
2.05616
2.05302
2.05228
2.05408
2.05768
2.05901
2.05755
2.05364
2.04943
2.04366
2.03617
2.02936
2.02568
2.02476
2.02463
2.02517
2.02732
2.02997
2.03096
2.03098
2.03054
2.02876
2.02688
2.0262
2.02611
2.02634
2.02717
2.02853
2.03149
2.03531
2.03744
2.03758
2.03666
2.03383
2.02972
2.02467
2.01817
2.012
2.00775
2.00425
2.00094
1.99772
1.9946
1.99204
1.99067
1.99069
1.9926
1.99443
1.99311
1.98949
1.98643
1.98388
1.98139
1.9786
1.97515
1.97154
1.96921
1.9683
1.96796
1.96772
1.96715
1.96542
1.96281
1.96094
1.96053
1.96067
1.86014
1.85768
1.85642
1.85607
1.85673
1.85736
1.85721
1.85713
1.85626
1.85356
1.85031
1.84898
1.84839
1.84823
1.84931
1.85055
1.85067
1.84878
1.84584
1.84226
1.83781
1.83377
1.8312
1.82998
1.8287
1.82761
1.82608
1.82362
1.82117
1.81879
1.81641
1.81371
1.81032
1.80733
1.80555
1.80449
1.80467
1.80769
1.81027
1.80991
1.80768
1.80589
1.79886
1.79981
1.82438
1.9018
2.00492
2.08838
2.12248
2.14955
2.15161
2.15076
2.1432
2.13417
2.12955
2.12749
2.12783
2.12915
2.13051
2.13074
2.13118
2.13274
2.13635
2.13861
2.13844
2.13769
2.13567
2.1333
2.13079
2.12779
2.12542
2.12353
2.12187
2.11913
2.11564
2.11248
2.10888
2.10388
2.09738
2.09115
2.08596
2.0812
2.07911
2.08052
2.08659
2.09281
2.09455
2.09328
2.09081
2.08752
2.08153
2.07329
2.06673
2.0643
2.06407
2.0641
2.06437
2.06548
2.06697
2.06759
2.06759
2.06709
2.06588
2.06526
2.06527
2.06547
2.06617
2.06721
2.06962
2.07271
2.0741
2.07375
2.07205
2.06934
2.0654
2.06049
2.05475
2.04903
2.0445
2.04034
2.03594
2.03164
2.02794
2.02459
2.02184
2.02082
2.02108
2.02329
2.02672
2.02777
2.02638
2.02455
2.02276
2.02069
2.01838
2.01593
2.01336
2.01084
2.0088
2.00743
2.00634
2.00474
2.00167
1.99785
1.99507
1.99371
1.99134
1.85665
1.85448
1.8538
1.85353
1.85416
1.85535
1.8554
1.85561
1.85541
1.8541
1.85168
1.85003
1.84952
1.84925
1.84905
1.84894
1.84889
1.84849
1.84663
1.84398
1.84133
1.8388
1.83576
1.83229
1.82932
1.82708
1.82534
1.82465
1.82452
1.82315
1.82149
1.81917
1.81503
1.81155
1.81046
1.81006
1.81133
1.81627
1.81944
1.81992
1.81768
1.81772
1.8348
1.89268
2.00026
2.08322
2.14069
2.16185
2.16312
2.16374
2.15953
2.15301
2.14602
2.14419
2.14433
2.14644
2.14946
2.15083
2.15114
2.15245
2.15484
2.15926
2.16332
2.16379
2.16289
2.16025
2.15644
2.15329
2.15075
2.1491
2.14752
2.14573
2.14337
2.14002
2.13696
2.13391
2.13017
2.12484
2.1181
2.11163
2.10651
2.10425
2.10582
2.11152
2.1183
2.12266
2.12411
2.12357
2.12184
2.11851
2.1137
2.10894
2.10506
2.10182
2.09963
2.09871
2.09837
2.09829
2.09842
2.09897
2.09943
2.09945
2.09924
2.09888
2.09874
2.09895
2.09956
2.10205
2.10509
2.10622
2.10553
2.10306
2.09927
2.09476
2.08974
2.08509
2.08098
2.07698
2.07311
2.06908
2.06468
2.06015
2.05644
2.05366
2.05172
2.05145
2.05216
2.05425
2.05743
2.06069
2.06212
2.0616
2.06041
2.05869
2.05694
2.05529
2.0534
2.05103
2.0482
2.04525
2.04235
2.03901
2.03468
2.03
2.02634
2.02372
2.01986
1.85441
1.85262
1.85204
1.85174
1.85194
1.85334
1.8538
1.8542
1.85427
1.85409
1.85373
1.85263
1.85067
1.84934
1.84839
1.84729
1.84688
1.84702
1.84698
1.8463
1.84428
1.84169
1.83823
1.83318
1.82861
1.82639
1.8252
1.82509
1.82606
1.82579
1.82456
1.82273
1.81982
1.81712
1.81617
1.81596
1.81746
1.82127
1.82458
1.82502
1.83562
1.88486
1.98446
2.08078
2.15417
2.17554
2.18373
2.18219
2.17588
2.16612
2.15761
2.1547
2.15494
2.15865
2.16185
2.16349
2.16401
2.16471
2.16686
2.17102
2.17577
2.17906
2.17923
2.17794
2.17463
2.17064
2.16816
2.16722
2.1665
2.16505
2.16284
2.15997
2.1572
2.15466
2.15204
2.14894
2.14467
2.13901
2.13339
2.12998
2.12942
2.13093
2.13593
2.14149
2.14416
2.14436
2.1443
2.14382
2.14261
2.14079
2.13903
2.13756
2.13545
2.13189
2.12812
2.12616
2.12549
2.12508
2.12461
2.12398
2.12332
2.12258
2.12191
2.12161
2.12165
2.12278
2.12638
2.13006
2.1314
2.13084
2.12821
2.12405
2.11911
2.11358
2.10909
2.10587
2.10353
2.10087
2.09739
2.09401
2.09039
2.08654
2.08342
2.08147
2.08058
2.08074
2.08172
2.08326
2.08519
2.0877
2.09039
2.09203
2.0922
2.0916
2.09134
2.09072
2.0892
2.08691
2.08301
2.07729
2.07091
2.06504
2.0599
2.05532
2.05194
2.04881
2.0446
1.85336
1.85154
1.85089
1.85065
1.85074
1.8515
1.85272
1.85328
1.85389
1.85454
1.85484
1.85448
1.85267
1.8497
1.84748
1.8462
1.84533
1.8453
1.84582
1.84595
1.84446
1.84213
1.83885
1.83395
1.82919
1.82648
1.82556
1.82521
1.82583
1.82694
1.82659
1.82582
1.82443
1.82245
1.82174
1.82209
1.82353
1.82409
1.8283
1.8586
1.94075
2.06199
2.14386
2.1893
2.19749
2.19636
2.19387
2.18389
2.17377
2.16614
2.16362
2.1645
2.16868
2.17237
2.17303
2.17319
2.17381
2.1768
2.18187
2.18694
2.18872
2.18826
2.18605
2.18246
2.18002
2.17898
2.17893
2.17925
2.17817
2.17515
2.17198
2.16928
2.16706
2.16491
2.16232
2.15879
2.15437
2.1511
2.15018
2.15114
2.15394
2.15892
2.162
2.16211
2.16087
2.15808
2.15556
2.15489
2.15592
2.15795
2.15863
2.15826
2.1573
2.15493
2.15113
2.14766
2.14536
2.14353
2.14145
2.13865
2.13604
2.13503
2.13543
2.13801
2.14194
2.14568
2.14897
2.15046
2.15012
2.14793
2.14437
2.13929
2.13297
2.12791
2.12488
2.12258
2.1208
2.11859
2.11576
2.11295
2.11061
2.10899
2.10822
2.10815
2.10836
2.10828
2.10801
2.10781
2.10759
2.10764
2.10908
2.11213
2.11589
2.11851
2.11941
2.11874
2.11702
2.11423
2.10876
2.10035
2.09156
2.08476
2.08001
2.07618
2.07308
2.0695
2.0646
1.85282
1.85135
1.85039
1.85002
1.85001
1.85038
1.85137
1.85324
1.85497
1.85583
1.85595
1.85578
1.85439
1.85083
1.84721
1.84538
1.84428
1.84372
1.84393
1.84455
1.84402
1.84179
1.83899
1.83522
1.83067
1.82757
1.82605
1.82563
1.82554
1.82633
1.82798
1.82794
1.82808
1.8276
1.82658
1.82568
1.8269
1.83876
1.89283
2.00647
2.10619
2.18084
2.20861
2.21231
2.21025
2.20289
2.19298
2.18152
2.1755
2.1743
2.1747
2.17725
2.17915
2.1791
2.17929
2.18054
2.18379
2.18899
2.1937
2.19467
2.19394
2.19104
2.1872
2.18544
2.18534
2.18665
2.18757
2.1867
2.18421
2.18116
2.17817
2.17577
2.1737
2.17142
2.16843
2.16545
2.1643
2.16483
2.1673
2.17165
2.17644
2.17794
2.17721
2.17457
2.16996
2.16589
2.1641
2.16368
2.16483
2.16808
2.17087
2.17118
2.17069
2.16949
2.1662
2.16083
2.15557
2.15109
2.14724
2.145
2.14453
2.14542
2.14935
2.15486
2.15983
2.16391
2.16539
2.16488
2.16252
2.15879
2.1538
2.14722
2.14091
2.13706
2.13455
2.13242
2.13081
2.13004
2.12972
2.12966
2.1302
2.13138
2.13238
2.13243
2.13181
2.13006
2.12701
2.12352
2.12138
2.12067
2.12155
2.12516
2.13117
2.13637
2.13788
2.13681
2.13455
2.13059
2.12391
2.11535
2.10699
2.09999
2.09457
2.09039
2.0874
2.08486
2.08185
1.85198
1.8514
1.85078
1.85015
1.84979
1.84987
1.85036
1.8513
1.8528
1.85474
1.856
1.85606
1.8554
1.8525
1.84815
1.84511
1.84375
1.84251
1.84186
1.84195
1.84204
1.84068
1.83845
1.8362
1.83336
1.82964
1.82684
1.82591
1.82579
1.82596
1.82725
1.82901
1.82897
1.82918
1.82928
1.83439
1.86832
1.95116
2.07132
2.15161
2.19098
2.21133
2.21637
2.21601
2.21137
2.20199
2.19228
2.18613
2.18511
2.18501
2.18502
2.18511
2.18452
2.18432
2.18546
2.18853
2.19355
2.19728
2.19807
2.19747
2.19479
2.19159
2.18975
2.18914
2.19024
2.19132
2.19112
2.18948
2.18711
2.18445
2.18206
2.17984
2.17737
2.17479
2.17331
2.17326
2.17461
2.1777
2.183
2.18796
2.18938
2.1885
2.18532
2.18021
2.17588
2.17344
2.17206
2.17109
2.17111
2.17283
2.17598
2.17757
2.17741
2.17649
2.17324
2.16636
2.15895
2.155
2.15394
2.15391
2.1546
2.15725
2.16222
2.16892
2.1749
2.17641
2.17564
2.17301
2.16921
2.16356
2.15581
2.14811
2.14344
2.14113
2.13976
2.13941
2.14036
2.14253
2.14521
2.14747
2.14884
2.14938
2.14932
2.14856
2.14639
2.14259
2.13845
2.13532
2.13328
2.13243
2.13324
2.13549
2.13864
2.14253
2.14518
2.14482
2.14262
2.13857
2.13323
2.12711
2.1202
2.11314
2.1076
2.10397
2.10193
2.10099
2.10008
1.85129
1.85109
1.85096
1.85063
1.8504
1.84971
1.84965
1.85038
1.85194
1.85428
1.85558
1.85539
1.85481
1.85293
1.84925
1.84543
1.84228
1.84044
1.83909
1.83809
1.83804
1.83856
1.83809
1.83659
1.83505
1.83273
1.82921
1.82661
1.82607
1.826
1.82644
1.82869
1.82937
1.83301
1.85283
1.91858
2.03443
2.12933
2.19291
2.20335
2.21285
2.21328
2.21246
2.21013
2.20507
2.19973
2.19612
2.19437
2.19433
2.19394
2.19233
2.19013
2.18955
2.18975
2.19189
2.19615
2.19905
2.19943
2.19887
2.19708
2.19539
2.194
2.19341
2.19391
2.19371
2.19274
2.19119
2.18932
2.18758
2.18592
2.18417
2.1821
2.18019
2.17966
2.17999
2.18129
2.18424
2.18944
2.19379
2.19518
2.19492
2.19308
2.18887
2.18458
2.18161
2.17919
2.17722
2.176
2.17573
2.17635
2.17805
2.17959
2.17968
2.17869
2.17531
2.16901
2.1642
2.16309
2.163
2.16307
2.16403
2.16732
2.17384
2.18081
2.18277
2.18244
2.18039
2.17662
2.17012
2.16132
2.15313
2.14921
2.14796
2.14756
2.14789
2.14913
2.15148
2.15501
2.15824
2.1603
2.16045
2.16011
2.15934
2.15773
2.1554
2.15271
2.14988
2.1472
2.14552
2.14434
2.14297
2.14185
2.14109
2.14104
2.14241
2.14411
2.14399
2.1426
2.14031
2.13706
2.13202
2.12596
2.12114
2.11779
2.11581
2.11526
2.11603
1.85146
1.85219
1.85238
1.85212
1.85166
1.85059
1.84943
1.84953
1.8508
1.85277
1.854
1.85394
1.85358
1.85215
1.84944
1.84565
1.84169
1.83822
1.83626
1.83491
1.83442
1.83542
1.83744
1.83769
1.83653
1.83475
1.83202
1.82802
1.82617
1.82634
1.82714
1.82848
1.8377
1.88621
1.9848
2.10626
2.17319
2.20744
2.21987
2.21902
2.21893
2.21546
2.20943
2.2039
2.19939
2.19876
2.19929
2.19959
2.19955
2.19894
2.1974
2.196
2.19528
2.19574
2.19815
2.20026
2.20017
2.19965
2.19885
2.19827
2.19766
2.19732
2.19722
2.1962
2.19426
2.19159
2.18882
2.18754
2.18722
2.18686
2.18623
2.18567
2.18562
2.18587
2.18671
2.18915
2.19328
2.19646
2.19742
2.19722
2.19568
2.19305
2.19057
2.18834
2.18594
2.18354
2.18166
2.18056
2.1802
2.17977
2.17945
2.17923
2.17873
2.17753
2.17523
2.17265
2.17103
2.17063
2.17064
2.17123
2.17345
2.17828
2.18363
2.18559
2.18574
2.18416
2.18066
2.17447
2.16569
2.15891
2.15676
2.15649
2.15623
2.15611
2.15687
2.15896
2.16141
2.16283
2.16409
2.16583
2.16695
2.16664
2.16595
2.1651
2.16391
2.16214
2.15997
2.15746
2.15449
2.15121
2.14773
2.14405
2.14098
2.13925
2.13893
2.14062
2.14346
2.14519
2.14501
2.14366
2.14116
2.1377
2.13452
2.13179
2.12945
2.12907
2.12919
1.84977
1.85017
1.851
1.85091
1.85097
1.85072
1.84953
1.84908
1.84975
1.85117
1.85183
1.85181
1.85139
1.85023
1.84834
1.84561
1.84188
1.83776
1.83465
1.83311
1.83228
1.83278
1.83527
1.83694
1.83632
1.83517
1.83328
1.8294
1.82649
1.82649
1.82908
1.85128
1.92475
2.05509
2.14606
2.2087
2.2255
2.23153
2.23013
2.22509
2.2202
2.21471
2.20822
2.20166
2.19755
2.19731
2.19828
2.19956
2.19992
2.20005
2.20032
2.20025
2.20048
2.202
2.20239
2.20185
2.20148
2.20119
2.2008
2.20062
2.20046
2.19976
2.19821
2.19553
2.19181
2.18812
2.18672
2.18657
2.18695
2.18822
2.18937
2.19013
2.19081
2.19202
2.19414
2.19682
2.19826
2.19841
2.19776
2.19558
2.19326
2.1919
2.19138
2.19109
2.19048
2.1893
2.18786
2.18577
2.18354
2.18187
2.18
2.17826
2.17676
2.17577
2.17566
2.17623
2.17659
2.17717
2.17834
2.1806
2.184
2.18661
2.18711
2.1864
2.1844
2.18077
2.1753
2.16888
2.16483
2.16404
2.16415
2.16406
2.16415
2.16503
2.16626
2.16679
2.16637
2.16602
2.166
2.1671
2.16969
2.17162
2.1718
2.17128
2.17074
2.16979
2.16745
2.16429
2.16012
2.15392
2.14658
2.14151
2.13948
2.13897
2.13894
2.1402
2.14238
2.14475
2.14644
2.14634
2.14568
2.14518
2.14452
2.14449
2.14431
2.14318
2.13834
1.8496
1.84988
1.8499
1.8497
1.84953
1.84918
1.84891
1.8489
1.84901
1.84941
1.84955
1.84936
1.84893
1.84826
1.8471
1.84522
1.8422
1.83796
1.83388
1.83171
1.83071
1.83048
1.83189
1.83453
1.83499
1.834
1.83245
1.83003
1.82887
1.83667
1.88446
1.98736
2.10356
2.17988
2.20969
2.22543
2.23146
2.23158
2.23068
2.22596
2.22046
2.21487
2.20885
2.20301
2.19876
2.19708
2.19711
2.19728
2.19759
2.19878
2.20096
2.20294
2.20471
2.20583
2.20572
2.20545
2.20497
2.20435
2.20369
2.20287
2.20156
2.19945
2.1962
2.192
2.18842
2.187
2.18681
2.18692
2.18754
2.18912
2.19143
2.19364
2.19585
2.19817
2.19981
2.20024
2.20011
2.19812
2.1949
2.19273
2.19172
2.1913
2.19138
2.19196
2.19264
2.19308
2.19279
2.1909
2.18788
2.18406
2.18084
2.17824
2.17658
2.17622
2.17713
2.17968
2.18273
2.18482
2.18649
2.188
2.18908
2.18899
2.18741
2.18366
2.17808
2.17272
2.16946
2.16861
2.16905
2.16986
2.17056
2.17186
2.17331
2.17351
2.1722
2.17011
2.16812
2.1673
2.1671
2.16757
2.17019
2.17369
2.17564
2.17583
2.17517
2.17326
2.17087
2.16769
2.1619
2.15347
2.14745
2.14454
2.14338
2.14292
2.14288
2.14306
2.14285
2.1428
2.14382
2.14651
2.14908
2.15081
2.1533
2.15519
2.15468
2.15248
2.14566
1.84853
1.84798
1.84804
1.84798
1.84753
1.84756
1.84784
1.84801
1.84784
1.84737
1.84687
1.84684
1.84679
1.8465
1.84594
1.8443
1.84192
1.8384
1.83382
1.83065
1.82932
1.82887
1.82906
1.83007
1.83136
1.83216
1.83108
1.83566
1.8618
1.94013
2.06589
2.1483
2.20268
2.21609
2.22798
2.23176
2.23122
2.22899
2.22843
2.227
2.22369
2.219
2.21254
2.20503
2.1991
2.1957
2.1941
2.19357
2.19389
2.19615
2.20031
2.20492
2.20768
2.20824
2.20858
2.20882
2.20881
2.20819
2.2064
2.2039
2.20079
2.19672
2.1926
2.18978
2.18836
2.18769
2.18756
2.18768
2.18816
2.18945
2.19211
2.19608
2.19926
2.20108
2.20159
2.20141
2.19944
2.19556
2.19311
2.19222
2.19149
2.19097
2.19098
2.19182
2.19425
2.19656
2.19687
2.19557
2.1932
2.1894
2.18462
2.18118
2.17963
2.17961
2.18074
2.1828
2.18603
2.18874
2.18983
2.18993
2.18929
2.18712
2.18218
2.17585
2.17115
2.16903
2.16854
2.16925
2.17143
2.17441
2.17737
2.17987
2.18067
2.17986
2.1776
2.17387
2.17086
2.16967
2.16942
2.16942
2.17085
2.17377
2.17635
2.17724
2.17652
2.17395
2.17065
2.16598
2.16056
2.15769
2.1559
2.15372
2.151
2.14887
2.14722
2.14509
2.14312
2.14212
2.1421
2.14436
2.15016
2.15613
2.15883
2.15932
2.15846
2.15651
2.14858
1.84704
1.84629
1.84659
1.84655
1.84587
1.84606
1.84655
1.84653
1.84573
1.84451
1.84445
1.84492
1.84509
1.84505
1.84477
1.84315
1.84086
1.83814
1.83483
1.8313
1.8284
1.82714
1.82625
1.82604
1.82751
1.83015
1.84543
1.90789
2.01683
2.13253
2.18935
2.20739
2.2171
2.22086
2.22776
2.22976
2.23005
2.22914
2.22901
2.22924
2.22753
2.22345
2.21641
2.2066
2.19804
2.19381
2.19227
2.19199
2.19239
2.19454
2.19992
2.20604
2.20878
2.20921
2.20955
2.20987
2.21006
2.20966
2.20762
2.20309
2.19772
2.19388
2.19156
2.19017
2.18917
2.18849
2.18833
2.18844
2.18893
2.19026
2.19268
2.19594
2.19936
2.20081
2.20079
2.19991
2.19753
2.19527
2.19336
2.19198
2.19108
2.19051
2.19052
2.19169
2.19524
2.19906
2.19982
2.19907
2.19762
2.19539
2.1918
2.18802
2.18617
2.18581
2.18598
2.18613
2.18639
2.18816
2.18914
2.1883
2.18577
2.18121
2.17603
2.17241
2.17027
2.16911
2.16879
2.16996
2.1741
2.17991
2.18369
2.18447
2.18432
2.18382
2.18232
2.17934
2.17543
2.17317
2.17264
2.17257
2.17292
2.1739
2.17481
2.17512
2.17417
2.1711
2.16704
2.16391
2.16282
2.16264
2.16267
2.16219
2.16008
2.15527
2.14978
2.14642
2.14432
2.14317
2.14281
2.14386
2.14727
2.15177
2.15555
2.15765
2.15756
2.15492
2.14716
1.83777
1.84123
1.84227
1.84323
1.84346
1.84388
1.84433
1.8438
1.84298
1.84293
1.84306
1.84328
1.84319
1.84288
1.84253
1.84167
1.83972
1.83762
1.83505
1.8317
1.82779
1.82481
1.82367
1.82354
1.8284
1.86311
1.95717
2.09115
2.1716
2.21697
2.22733
2.23441
2.23216
2.22743
2.22766
2.22884
2.22966
2.2298
2.23064
2.23049
2.22836
2.22434
2.21776
2.20898
2.19984
2.1944
2.1928
2.19268
2.19318
2.19529
2.19837
2.20157
2.20509
2.2083
2.20941
2.20982
2.2099
2.20909
2.20662
2.20291
2.199
2.19553
2.19294
2.19119
2.19001
2.18927
2.18908
2.18926
2.19019
2.19179
2.19338
2.19492
2.19649
2.19803
2.19833
2.19835
2.19837
2.19763
2.1952
2.19267
2.19151
2.19094
2.19089
2.19207
2.19563
2.19957
2.20134
2.20133
2.20074
2.20008
2.19907
2.19702
2.19374
2.19045
2.18842
2.18718
2.18617
2.18556
2.18485
2.1833
2.18096
2.17844
2.17602
2.17346
2.1715
2.17047
2.17025
2.17114
2.17421
2.1794
2.1842
2.18618
2.18642
2.18633
2.18562
2.18424
2.18219
2.17936
2.17666
2.17526
2.17446
2.17331
2.17142
2.16911
2.16705
2.16604
2.16565
2.16545
2.1662
2.16767
2.16792
2.16766
2.16633
2.16206
2.1551
2.14958
2.14701
2.14578
2.14543
2.1465
2.1486
2.14977
2.15031
2.1503
2.15008
2.14816
2.1453
1.83756
1.84209
1.84039
1.84128
1.84211
1.84197
1.84158
1.84076
1.84119
1.84213
1.84225
1.84182
1.84133
1.8406
1.84005
1.83977
1.83882
1.83671
1.83431
1.83126
1.82701
1.82311
1.82347
1.83515
1.89761
2.01888
2.13374
2.19773
2.21711
2.225
2.23224
2.23823
2.23725
2.23406
2.23046
2.22895
2.22965
2.2292
2.22875
2.22873
2.22678
2.22296
2.21705
2.21032
2.2044
2.19927
2.19597
2.19535
2.1959
2.19758
2.19894
2.19992
2.20149
2.20428
2.20696
2.20765
2.20757
2.20682
2.20509
2.20268
2.20009
2.19757
2.19526
2.19324
2.19156
2.19047
2.19013
2.19031
2.19108
2.19188
2.19242
2.19263
2.1929
2.19381
2.19619
2.19863
2.19947
2.19938
2.19806
2.19516
2.19298
2.19211
2.19205
2.1932
2.19567
2.19844
2.20101
2.20288
2.20404
2.20476
2.20491
2.20387
2.19982
2.1938
2.18866
2.18498
2.18248
2.18098
2.18038
2.18039
2.18019
2.1791
2.17754
2.17565
2.17376
2.17254
2.17219
2.17278
2.17525
2.17925
2.18307
2.18621
2.18812
2.18834
2.18791
2.18724
2.1863
2.18473
2.18165
2.17733
2.17361
2.1698
2.16636
2.16385
2.16216
2.16218
2.16432
2.16764
2.16931
2.16957
2.16981
2.16982
2.16904
2.16636
2.16194
2.15744
2.15407
2.15198
2.15097
2.15027
2.14921
2.14742
2.14381
2.13997
2.13872
2.14054
2.14489
1.78165
1.81337
1.83262
1.84117
1.841
1.83949
1.8387
1.83925
1.84038
1.84142
1.84143
1.84046
1.83928
1.83839
1.83795
1.83788
1.83751
1.8355
1.83269
1.82991
1.82572
1.82891
1.85855
1.95026
2.08555
2.16606
2.20774
2.22511
2.23294
2.23204
2.23319
2.23634
2.23962
2.23936
2.23645
2.23179
2.22935
2.2283
2.22697
2.22526
2.22255
2.21861
2.21443
2.21097
2.20824
2.20559
2.20228
2.19897
2.19797
2.19805
2.1984
2.19854
2.19888
2.19975
2.20199
2.20433
2.2052
2.20503
2.20415
2.20251
2.20036
2.19828
2.19639
2.1948
2.1936
2.19269
2.19186
2.19114
2.19081
2.19053
2.19023
2.19029
2.19087
2.19196
2.19411
2.19712
2.19955
2.20019
2.19993
2.19852
2.19654
2.19517
2.19477
2.19512
2.19633
2.19812
2.201
2.20461
2.20618
2.20635
2.20624
2.20518
2.20145
2.19418
2.18649
2.18286
2.18147
2.18087
2.18063
2.18059
2.1804
2.18013
2.17946
2.1779
2.17614
2.17491
2.17449
2.1751
2.17723
2.1797
2.1813
2.18277
2.18455
2.18657
2.1878
2.18747
2.18666
2.18563
2.18376
2.17943
2.17267
2.16797
2.1655
2.16348
2.16176
2.16145
2.16276
2.16544
2.16746
2.16838
2.16912
2.16946
2.16926
2.16843
2.16709
2.16522
2.16282
2.15997
2.15664
2.1528
2.14868
2.14318
2.13708
2.13412
2.13347
2.13483
2.143
1.63916
1.74801
1.81935
1.8281
1.83042
1.83187
1.83308
1.83615
1.83903
1.83942
1.83947
1.83844
1.83697
1.83619
1.83573
1.83555
1.83546
1.83403
1.83165
1.83131
1.84398
1.91011
2.02626
2.14409
2.20017
2.20668
2.21311
2.21932
2.22798
2.23783
2.23717
2.23901
2.24177
2.24339
2.24222
2.23738
2.23068
2.22678
2.22436
2.22129
2.21787
2.21495
2.21289
2.21179
2.21107
2.2101
2.20834
2.20426
2.19943
2.19737
2.19649
2.19606
2.19622
2.19697
2.19852
2.20088
2.20256
2.20297
2.2027
2.20172
2.19979
2.19789
2.1964
2.19542
2.19469
2.19393
2.19299
2.19168
2.19003
2.1889
2.18874
2.18919
2.1902
2.19149
2.19323
2.19519
2.19741
2.19932
2.20016
2.20031
2.20004
2.19948
2.19881
2.19816
2.19816
2.19894
2.20041
2.20211
2.20377
2.20455
2.20448
2.20287
2.19806
2.19256
2.18981
2.188
2.18599
2.18373
2.18236
2.18168
2.18125
2.18082
2.18018
2.17917
2.17768
2.17666
2.17667
2.17796
2.17985
2.18044
2.18089
2.18123
2.18117
2.18141
2.18261
2.18453
2.18513
2.18436
2.18305
2.18099
2.17716
2.17174
2.16686
2.164
2.16241
2.16235
2.16263
2.16331
2.16435
2.16511
2.16597
2.16693
2.16828
2.16964
2.17037
2.17048
2.16965
2.16724
2.16254
2.15491
2.14564
2.13803
2.13496
2.1338
2.13318
2.1334
2.13762
1.49029
1.58518
1.71109
1.78967
1.82358
1.83198
1.83369
1.83701
1.83828
1.83827
1.83821
1.83744
1.83612
1.83483
1.83346
1.83249
1.83274
1.83293
1.83803
1.87491
1.97626
2.11018
2.18463
2.22539
2.23152
2.22729
2.21964
2.21979
2.22425
2.23189
2.23864
2.24154
2.24312
2.24415
2.24388
2.24054
2.2331
2.22504
2.22056
2.21754
2.21485
2.21257
2.2122
2.21297
2.21329
2.2125
2.21107
2.20753
2.20098
2.19548
2.19401
2.19395
2.1945
2.19551
2.19683
2.19863
2.19992
2.20057
2.2007
2.20031
2.19892
2.19722
2.19611
2.19522
2.19423
2.19325
2.19225
2.19117
2.19018
2.18938
2.18903
2.18913
2.18978
2.19076
2.19185
2.1933
2.19495
2.19696
2.1991
2.20114
2.20264
2.20309
2.20294
2.20216
2.20118
2.20072
2.20072
2.20068
2.20069
2.20044
2.19915
2.19575
2.19169
2.19068
2.19099
2.19128
2.19093
2.18909
2.18566
2.18326
2.18217
2.18111
2.18025
2.17943
2.17851
2.17831
2.17919
2.18118
2.18155
2.18165
2.18152
2.17998
2.17774
2.17646
2.17602
2.17691
2.17979
2.18172
2.18131
2.18045
2.17915
2.17673
2.17238
2.1671
2.16389
2.16232
2.1612
2.16044
2.16026
2.16058
2.16195
2.16407
2.16646
2.16944
2.17225
2.1736
2.17348
2.17136
2.16579
2.15484
2.14214
2.13628
2.13468
2.13404
2.13356
2.13397
2.135
1.44506
1.4636
1.54083
1.66873
1.76293
1.80112
1.82345
1.8357
1.83684
1.8377
1.83802
1.83751
1.83591
1.83408
1.8323
1.83197
1.83335
1.84803
1.91968
2.04949
2.17141
2.21566
2.22437
2.22667
2.22934
2.22758
2.22283
2.2212
2.22308
2.2287
2.23531
2.24077
2.24286
2.24265
2.24223
2.23993
2.23468
2.22716
2.21999
2.21551
2.21284
2.21113
2.21157
2.21295
2.21268
2.21166
2.21017
2.20726
2.20275
2.19827
2.19523
2.19411
2.19419
2.19475
2.19562
2.19691
2.1976
2.19792
2.19836
2.19872
2.19835
2.19699
2.19547
2.19406
2.19266
2.19123
2.19012
2.18951
2.18928
2.18929
2.1894
2.18953
2.18969
2.19002
2.19082
2.19197
2.19348
2.19537
2.19802
2.20089
2.20311
2.20435
2.20476
2.20487
2.2046
2.20318
2.201
2.19919
2.19757
2.19528
2.19193
2.18912
2.18868
2.1894
2.19165
2.19317
2.19303
2.19217
2.18964
2.18586
2.18323
2.18164
2.18007
2.17933
2.17935
2.1805
2.18288
2.18367
2.1833
2.18246
2.18016
2.17615
2.17264
2.17128
2.17071
2.17054
2.17192
2.1758
2.17981
2.1809
2.18051
2.17923
2.17648
2.17194
2.1664
2.16148
2.15854
2.15736
2.1571
2.15756
2.15952
2.16216
2.16561
2.17026
2.17485
2.17661
2.17556
2.17235
2.16549
2.15427
2.14408
2.13846
2.13579
2.13436
2.13349
2.13351
2.13235
1.44009
1.4406
1.45081
1.50171
1.61731
1.73526
1.80647
1.8179
1.8256
1.83063
1.83511
1.83526
1.83479
1.83319
1.83322
1.83865
1.87317
1.97244
2.11676
2.19839
2.24336
2.24285
2.2393
2.22933
2.22531
2.2255
2.22476
2.2234
2.22398
2.22666
2.23076
2.2354
2.23891
2.23952
2.23885
2.23692
2.23331
2.22825
2.22202
2.2156
2.21145
2.20928
2.20833
2.20862
2.20899
2.20834
2.20701
2.20472
2.20206
2.19962
2.19753
2.196
2.19528
2.19523
2.19529
2.19535
2.1956
2.19584
2.19623
2.19688
2.19703
2.19578
2.19368
2.19177
2.18989
2.18828
2.18765
2.18777
2.18819
2.18862
2.18889
2.18912
2.18942
2.19002
2.19086
2.19179
2.19296
2.19471
2.19709
2.19966
2.20224
2.20436
2.20557
2.20605
2.20584
2.20453
2.20174
2.19729
2.19288
2.189
2.1864
2.18552
2.18641
2.18902
2.19135
2.19242
2.19234
2.19189
2.19071
2.18804
2.18477
2.18213
2.18018
2.17959
2.18065
2.18362
2.18529
2.18493
2.18435
2.18258
2.17806
2.17282
2.16978
2.16833
2.16757
2.1673
2.16734
2.16899
2.17299
2.17737
2.17903
2.17806
2.17564
2.17266
2.1687
2.16422
2.16025
2.15766
2.15657
2.15664
2.15856
2.16249
2.16746
2.17222
2.17418
2.17413
2.17301
2.16981
2.16258
2.15193
2.14435
2.1408
2.13815
2.13517
2.13253
2.1304
2.12742
1.43846
1.4372
1.43738
1.44206
1.47775
1.57166
1.6985
1.77981
1.82004
1.8305
1.834
1.83272
1.83225
1.83508
1.85301
1.92343
2.04116
2.16318
2.22518
2.23058
2.23487
2.2352
2.2344
2.22966
2.22319
2.22343
2.22519
2.22673
2.2259
2.22558
2.22691
2.22949
2.23284
2.23467
2.23434
2.23274
2.23036
2.22714
2.22302
2.21765
2.2116
2.20722
2.20522
2.2039
2.20329
2.20271
2.20172
2.2004
2.19911
2.1981
2.19757
2.19716
2.19649
2.19573
2.1953
2.19485
2.19431
2.19398
2.19397
2.19453
2.19466
2.19328
2.19102
2.18887
2.18684
2.18548
2.18538
2.18575
2.18631
2.18656
2.18679
2.18727
2.1882
2.18948
2.19082
2.19217
2.1936
2.19509
2.19657
2.19829
2.20068
2.20341
2.20509
2.20549
2.20515
2.20406
2.20157
2.19664
2.19062
2.18653
2.18433
2.18402
2.18443
2.18506
2.18599
2.1876
2.18931
2.18949
2.18872
2.18762
2.18589
2.18385
2.18246
2.18268
2.18444
2.18594
2.18537
2.18437
2.18334
2.18137
2.17771
2.17318
2.16943
2.16688
2.16553
2.16498
2.16519
2.16586
2.16663
2.16821
2.17048
2.17231
2.17236
2.17024
2.16772
2.16524
2.16286
2.16137
2.16087
2.16109
2.16368
2.16829
2.17207
2.17254
2.17178
2.1705
2.16802
2.16331
2.15553
2.14726
2.142
2.13937
2.13779
2.13585
2.13291
2.12899
2.12535
1.43802
1.43672
1.43643
1.43662
1.43902
1.45677
1.53367
1.65687
1.75477
1.79929
1.81999
1.83344
1.85344
1.89649
1.98343
2.11314
2.19327
2.24229
2.24878
2.23999
2.22525
2.22002
2.22104
2.22304
2.22166
2.22214
2.22355
2.22626
2.22637
2.22477
2.22453
2.22559
2.22689
2.22794
2.22839
2.22849
2.22737
2.2251
2.22213
2.21808