/*--------------------------------*- C++ -*----------------------------------*\
  =========                 |
  \\      /  F ield         | OpenFOAM: The Open Source CFD Toolbox
   \\    /   O peration     | Website:  https://openfoam.org
    \\  /    A nd           | Version:  7
     \\/     M anipulation  |
\*---------------------------------------------------------------------------*/
FoamFile
{
    version     2.0;
    format      ascii;
    class       volVectorField;
    location    "1";
    object      U;
}
// * * * * * * * * * * * * * * * * * * * * * * * * * * * * * * * * * * * * * //

dimensions      [0 1 -1 0 0 0 0];

internalField   nonuniform List<vector> 
433
(
(0.919398 0.447158 3.99008e-19)
(0.831452 0.460436 -1.90084e-20)
(0.860394 0.454703 -6.55266e-20)
(0.721914 0.47014 -3.29942e-20)
(0.746958 0.468596 -2.5263e-19)
(0.774455 0.465085 3.13193e-19)
(0.801168 0.459163 2.79514e-19)
(0.648143 0.475237 2.20905e-20)
(0.669435 0.473857 -1.84194e-20)
(0.692388 0.471781 -5.63954e-20)
(0.717796 0.467693 -1.3149e-19)
(0.742424 0.461309 -1.23169e-19)
(0.61749 0.477038 -1.22502e-20)
(0.638061 0.474053 1.79212e-21)
(0.661238 0.469094 5.98607e-20)
(0.683854 0.461991 -1.52058e-20)
(0.604497 0.469702 -7.14518e-21)
(0.625096 0.461517 2.5253e-20)
(1.00007 0.0649562 0)
(0.99662 0.059238 0)
(0.993921 0.0536489 0)
(1.15023 0.0818516 0)
(1.13996 0.0901883 0)
(1.12855 0.0973139 0)
(1.1169 0.103084 0)
(1.10493 0.107394 0)
(1.09265 0.110168 0)
(1.08033 0.111409 0)
(1.06825 0.111188 0)
(1.05665 0.109621 0)
(1.0457 0.106849 0)
(1.03556 0.103027 0)
(1.02635 0.0983179 0)
(1.01814 0.092894 0)
(1.01099 0.0869367 0)
(1.00489 0.0806294 0)
(0.999822 0.0741488 0)
(0.995722 0.0676541 0)
(0.992514 0.0612803 0)
(0.990103 0.0551352 0)
(1.1613 0.0943021 0)
(1.14916 0.10339 0)
(1.13579 0.110988 0)
(1.12225 0.116941 0)
(1.10844 0.121137 0)
(1.09441 0.123512 0)
(1.08049 0.124098 0)
(1.06699 0.123016 0)
(1.05418 0.120434 0)
(1.04226 0.116547 0)
(1.03138 0.111557 0)
(1.02165 0.105671 0)
(1.01314 0.0990995 0)
(1.00586 0.0920554 0)
(0.999791 0.0847472 0)
(0.994879 0.0773696 0)
(0.991032 0.0700918 0)
(0.988144 0.0630519 0)
(0.986093 0.056354 0)
(1.17286 0.108562 0)
(1.15855 0.11838 0)
(1.14293 0.126384 0)
(1.12726 0.132407 0)
(1.1114 0.136335 0)
(1.09544 0.138117 0)
(1.07977 0.137833 0)
(1.06478 0.135663 0)
(1.05074 0.131843 0)
(1.03785 0.126631 0)
(1.02628 0.120287 0)
(1.01611 0.113067 0)
(1.00738 0.105221 0)
(1.00009 0.0969943 0)
(0.994162 0.0886187 0)
(0.989513 0.0803038 0)
(0.986017 0.0722252 0)
(0.983534 0.0645189 0)
(0.981917 0.0572811 0)
(1.18475 0.124863 0)
(1.16793 0.13535 0)
(1.14978 0.143656 0)
(1.13171 0.149601 0)
(1.11358 0.153064 0)
(1.09552 0.154022 0)
(1.07801 0.152615 0)
(1.06146 0.149099 0)
(1.04617 0.143791 0)
(1.03237 0.137027 0)
(1.02018 0.129133 0)
(1.00968 0.120418 0)
(1.00086 0.111174 0)
(0.993672 0.101676 0)
(0.988013 0.092177 0)
(0.983745 0.0828967 0)
(0.980704 0.0740116 0)
(0.978715 0.0656503 0)
(0.977605 0.0578956 0)
(1.19668 0.143439 0)
(1.17701 0.154477 0)
(1.15604 0.162941 0)
(1.13533 0.168618 0)
(1.11473 0.171379 0)
(1.09443 0.171241 0)
(1.07497 0.168419 0)
(1.05684 0.163266 0)
(1.04035 0.156199 0)
(1.0257 0.147641 0)
(1.01302 0.137995 0)
(1.00231 0.127626 0)
(0.993549 0.116866 0)
(0.986618 0.10602 0)
(0.981365 0.0953547 0)
(0.977603 0.0850952 0)
(0.975126 0.0754117 0)
(0.973723 0.066419 0)
(0.97319 0.0581806 0)
(1.20813 0.1645 0)
(1.18534 0.175906 0)
(1.1613 0.184334 0)
(1.13775 0.189513 0)
(1.11451 0.191293 0)
(1.09186 0.189747 0)
(1.07044 0.185187 0)
(1.05075 0.17808 0)
(1.03312 0.168961 0)
(1.01776 0.158358 0)
(1.00472 0.146756 0)
(0.993983 0.134579 0)
(0.985449 0.122199 0)
(0.978942 0.109942 0)
(0.97425 0.0980847 0)
(0.971129 0.0868485 0)
(0.969327 0.0763898 0)
(0.968598 0.0668022 0)
(0.968713 0.0581238 0)
(1.21836 0.188196 0)
(1.19223 0.199707 0)
(1.165 0.207866 0)
(1.13848 0.212277 0)
(1.11251 0.212763 0)
(1.08749 0.209465 0)
(1.06413 0.202815 0)
(1.04297 0.193418 0)
(1.02435 0.181943 0)
(1.00843 0.169041 0)
(0.995237 0.155284 0)
(0.98468 0.141158 0)
(0.976576 0.127069 0)
(0.970682 0.113358 0)
(0.966715 0.100302 0)
(0.964373 0.0881104 0)
(0.963359 0.0769157 0)
(0.963391 0.0667827 0)
(0.964217 0.057718 0)
(1.22627 0.214561 0)
(1.19679 0.225842 0)
(1.16638 0.233464 0)
(1.13687 0.236811 0)
(1.10821 0.235662 0)
(1.0809 0.23025 0)
(1.05573 0.221144 0)
(1.03328 0.209109 0)
(1.01387 0.194976 0)
(0.997645 0.179527 0)
(0.98455 0.163432 0)
(0.974414 0.147234 0)
(0.966971 0.131369 0)
(0.961893 0.116184 0)
(0.958824 0.101947 0)
(0.957403 0.0888403 0)
(0.957285 0.0769654 0)
(0.958157 0.0663495 0)
(0.959748 0.0569615 0)
(1.23041 0.243448 0)
(1.19782 0.254115 0)
(1.16447 0.260917 0)
(1.13214 0.262891 0)
(1.10095 0.259758 0)
(1.07159 0.251865 0)
(1.04488 0.23994 0)
(1.02143 0.224931 0)
(1.00156 0.20785 0)
(0.985339 0.189627 0)
(0.972649 0.171034 0)
(0.963223 0.15267 0)
(0.956697 0.134992 0)
(0.952655 0.118342 0)
(0.950663 0.102964 0)
(0.9503 0.0890052 0)
(0.951178 0.0765228 0)
(0.95296 0.0654988 0)
(0.955361 0.0558589 0)
(1.22903 0.27447 0)
(1.19393 0.284145 0)
(1.15814 0.289862 0)
(1.12333 0.290153 0)
(1.09001 0.284696 0)
(1.05901 0.273973 0)
(1.0312 0.258888 0)
(1.0072 0.240596 0)
(0.987284 0.22031 0)
(0.971477 0.199124 0)
(0.959567 0.177911 0)
(0.951182 0.157324 0)
(0.945856 0.137832 0)
(0.943078 0.119758 0)
(0.942338 0.103309 0)
(0.943161 0.0885821 0)
(0.945124 0.0755811 0)
(0.94787 0.064235 0)
(0.951112 0.0544213 0)
(1.2202 0.306963 0)
(1.1836 0.31537 0)
(1.14611 0.319772 0)
(1.10939 0.318088 0)
(1.07454 0.309993 0)
(1.04256 0.296128 0)
(1.01429 0.277586 0)
(0.990339 0.255751 0)
(0.970954 0.23206 0)
(0.956073 0.207773 0)
(0.945386 0.183872 0)
(0.938415 0.161055 0)
(0.934586 0.139791 0)
(0.9333 0.120372 0)
(0.933979 0.10295 0)
(0.936099 0.0875609 0)
(0.939214 0.0741451 0)
(0.942962 0.0625718 0)
(0.947059 0.0526672 0)
(1.20207 0.339982 0)
(1.16534 0.347064 0)
(1.1271 0.349976 0)
(1.08927 0.346041 0)
(1.05376 0.335032 0)
(1.02168 0.317761 0)
(0.993816 0.295525 0)
(0.970714 0.269962 0)
(0.952569 0.24274 0)
(0.939224 0.215294 0)
(0.930265 0.188706 0)
(0.925106 0.163714 0)
(0.923076 0.140774 0)
(0.923497 0.120128 0)
(0.925735 0.101863 0)
(0.929238 0.0859402 0)
(0.93355 0.0722269 0)
(0.938314 0.0605288 0)
(0.943261 0.0506193 0)
(1.17306 0.37242 0)
(1.13781 0.378399 0)
(1.09987 0.379645 0)
(1.06198 0.373174 0)
(1.02699 0.359 0)
(0.995994 0.338109 0)
(0.969622 0.312025 0)
(0.948351 0.282649 0)
(0.932283 0.251884 0)
(0.921161 0.221326 0)
(0.914466 0.192152 0)
(0.911518 0.165124 0)
(0.911566 0.140669 0)
(0.913873 0.118968 0)
(0.917775 0.100026 0)
(0.922709 0.0837198 0)
(0.928229 0.0698399 0)
(0.933997 0.0581263 0)
(0.939769 0.0483003 0)
(1.13194 0.403351 0)
(1.09974 0.40859 0)
(1.06333 0.40782 0)
(1.02683 0.398515 0)
(0.99392 0.380984 0)
(0.965462 0.356364 0)
(0.941891 0.326413 0)
(0.923569 0.293296 0)
(0.910491 0.259121 0)
(0.902297 0.225633 0)
(0.898383 0.19408 0)
(0.897998 0.165236 0)
(0.900344 0.139485 0)
(0.904659 0.116935 0)
(0.910274 0.0974992 0)
(0.916643 0.0809671 0)
(0.923346 0.0670503 0)
(0.930077 0.0554246 0)
(0.936627 0.0457627 0)
(1.078 0.433109 0)
(1.04982 0.437461 0)
(1.01669 0.433901 0)
(0.983754 0.421643 0)
(0.954907 0.400889 0)
(0.93068 0.372725 0)
(0.91132 0.339121 0)
(0.89708 0.302477 0)
(0.887856 0.265097 0)
(0.883215 0.228865 0)
(0.882499 0.195106 0)
(0.884931 0.164605 0)
(0.889704 0.137704 0)
(0.896068 0.114432 0)
(0.903382 0.0946124 0)
(0.911139 0.0779447 0)
(0.918964 0.0640629 0)
(0.926594 0.0525813 0)
(0.933861 0.0431258 0)
(1.01174 0.461264 0)
(0.986489 0.464064 0)
(0.960268 0.456956 0)
(0.934147 0.442161 0)
(0.911583 0.418767 0)
(0.893167 0.387526 0)
(0.879205 0.350592 0)
(0.869925 0.310631 0)
(0.865177 0.270186 0)
(0.864497 0.23132 0)
(0.867222 0.195459 0)
(0.872584 0.163405 0)
(0.879809 0.135458 0)
(0.88819 0.111564 0)
(0.897141 0.0914515 0)
(0.906212 0.0747256 0)
(0.91508 0.0609419 0)
(0.923535 0.0496538 0)
(0.931451 0.0404421 0)
(0.938617 0.461842 -5.20123e-20)
(0.926956 0.467157 6.423e-21)
(0.911351 0.460112 1.14727e-20)
(0.893037 0.444212 -7.70781e-21)
(0.876631 0.418722 -4.34002e-21)
(0.863491 0.385219 6.29101e-22)
(0.854243 0.346325 -1.93042e-20)
(0.849174 0.304897 3.87886e-20)
(0.848133 0.263521 -1.64218e-20)
(0.850659 0.224216 2.79348e-20)
(0.856104 0.188316 -4.07897e-20)
(0.863731 0.156523 1.70988e-20)
(0.872809 0.129039 -3.97817e-20)
(0.882686 0.105728 1.87595e-20)
(0.892829 0.0862476 6.03312e-21)
(0.902841 0.0701551 -7.18282e-21)
(0.912448 0.0569719 3.70376e-20)
(0.921479 0.0462326 -5.94289e-20)
(0.877589 0.466451 1.61608e-21)
(0.874077 0.47388 -1.13842e-20)
(0.867854 0.464316 1.54855e-21)
(0.856771 0.44511 -1.50077e-20)
(0.846181 0.416272 8.94016e-21)
(0.837978 0.380002 -3.13444e-20)
(0.833063 0.339159 1.63262e-20)
(0.831803 0.296603 1.01259e-20)
(0.834062 0.254808 -6.34956e-21)
(0.839398 0.215625 9.45757e-21)
(0.847189 0.180218 1.42815e-20)
(0.856738 0.149139 2.54086e-21)
(0.867363 0.122475 -1.22268e-20)
(0.878466 0.100006 -3.02999e-20)
(0.88957 0.081335 2.92736e-20)
(0.900328 0.0659828 1.61926e-20)
(0.910511 0.0534554 -2.47301e-20)
(0.919985 0.043283 -1.60949e-20)
(0.817049 0.468228 -1.04351e-19)
(0.819106 0.475326 2.65698e-20)
(0.821465 0.463771 6.16009e-21)
(0.817824 0.441932 1.26767e-20)
(0.81362 0.410389 -4.75713e-21)
(0.810957 0.371962 -1.7435e-20)
(0.810894 0.329737 -1.8109e-20)
(0.813849 0.286558 7.80952e-20)
(0.81971 0.244772 -6.65782e-20)
(0.828065 0.206057 2.48866e-20)
(0.838336 0.171409 -1.79737e-20)
(0.849883 0.141244 -1.29185e-21)
(0.862092 0.115546 6.04483e-20)
(0.874432 0.0940213 -2.02648e-20)
(0.886491 0.0762283 -1.11688e-20)
(0.897982 0.061664 -6.14867e-20)
(0.908722 0.0498244 1.59734e-20)
(0.918619 0.040241 4.49309e-20)
(0.757191 0.466519 4.26779e-20)
(0.763169 0.472746 -5.90239e-21)
(0.77311 0.459803 -5.13809e-21)
(0.776835 0.436131 -1.73594e-21)
(0.779401 0.402652 8.48895e-22)
(0.782773 0.362699 2.1519e-20)
(0.788003 0.319576 -6.10869e-20)
(0.795521 0.276125 7.91165e-20)
(0.805236 0.234581 -9.71807e-21)
(0.816777 0.196477 -1.20362e-20)
(0.829628 0.162668 2.21825e-20)
(0.843224 0.133454 2.74292e-20)
(0.857033 0.108731 -6.05326e-20)
(0.870606 0.0881459 3.94125e-20)
(0.883605 0.0712189 -3.33204e-20)
(0.895805 0.0574271 1.13617e-20)
(0.90708 0.0462602 -3.3988e-20)
(0.917377 0.0372523 4.09616e-20)
(0.697339 0.463585 -8.41964e-21)
(0.706385 0.46769 1.54082e-21)
(0.723176 0.453021 -3.91538e-21)
(0.734183 0.427752 9.59072e-21)
(0.743828 0.392809 -1.05428e-20)
(0.753656 0.351815 4.76168e-21)
(0.764568 0.308218 -3.02246e-20)
(0.776954 0.264836 -8.83365e-21)
(0.790738 0.223796 1.04614e-20)
(0.805603 0.186494 9.03383e-20)
(0.821112 0.153659 8.24391e-21)
(0.836792 0.125489 -7.43257e-20)
(0.852207 0.101803 1.0514e-20)
(0.867001 0.0821978 1.98286e-20)
(0.880917 0.066162 -4.38544e-20)
(0.893802 0.053158 1.6804e-20)
(0.905585 0.0426731 -1.44555e-20)
(0.916259 0.0342462 3.37355e-20)
(0.637272 0.459139 -3.38976e-21)
(0.649033 0.460095 4.41418e-21)
(0.672152 0.443334 -2.41511e-21)
(0.690377 0.416588 -1.34941e-20)
(0.707327 0.380587 3.25172e-20)
(0.723936 0.339028 -2.40461e-20)
(0.740836 0.295403 1.04712e-20)
(0.75833 0.252469 -3.47786e-20)
(0.776347 0.212234 -5.42248e-21)
(0.794636 0.175965 -2.65147e-20)
(0.812851 0.144276 -4.16133e-21)
(0.830627 0.117272 1.13255e-19)
(0.847638 0.0947086 -9.04045e-20)
(0.863629 0.0761409 3.21582e-20)
(0.878435 0.0610338 8.8353e-21)
(0.891975 0.0488415 -1.73376e-21)
(0.904238 0.0390534 9.19845e-21)
(0.915264 0.0312168 -6.23188e-20)
)
;

boundaryField
{
    inlet
    {
        type            uniformFixedValue;
        uniformValue    constant (1 0 0);
        value           nonuniform 0();
    }
    outlet
    {
        type            pressureInletOutletVelocity;
        value           nonuniform 0();
    }
    cylinder
    {
        type            fixedValue;
        value           nonuniform 0();
    }
    top
    {
        type            symmetryPlane;
    }
    bottom
    {
        type            symmetryPlane;
    }
    defaultFaces
    {
        type            empty;
    }
    procBoundary10to3
    {
        type            processor;
        value           nonuniform List<vector> 
13
(
(1.15588 0.0753049 4.79675e-19)
(1.16808 0.0870636 -5.65849e-20)
(1.181 0.100611 -5.1073e-20)
(1.19453 0.116204 -1.11518e-19)
(1.2084 0.134119 8.31261e-20)
(1.22218 0.154624 -5.63354e-20)
(1.23514 0.17795 2.05931e-19)
(1.24621 0.204223 -1.4716e-19)
(1.25392 0.233389 -1.40507e-19)
(1.25641 0.265126 1.91325e-19)
(1.2516 0.298745 -6.30917e-20)
(1.23736 0.333121 -3.25494e-20)
(1.21175 0.366749 -8.50074e-21)
)
;
    }
    procBoundary10to4
    {
        type            processor;
        value           nonuniform List<vector> 
20
(
(1.00405 0.0620428 0)
(1.00044 0.0569606 0)
(0.997524 0.0519221 0)
(1.13976 0.0709926 0)
(1.13107 0.0785853 0)
(1.12136 0.0852022 0)
(1.11137 0.0907107 0)
(1.10102 0.0950138 0)
(1.09031 0.098032 0)
(1.07946 0.099745 0)
(1.06871 0.10019 0)
(1.05826 0.0994408 0)
(1.04828 0.0975961 0)
(1.03891 0.0947688 0)
(1.03026 0.0910842 0)
(1.02244 0.0866811 0)
(1.0155 0.0817102 0)
(1.00946 0.0763296 0)
(1.00433 0.0706962 0)
(1.00433 0.0706962 0)
)
;
    }
    procBoundary10to9
    {
        type            processor;
        value           nonuniform List<vector> 
12
(
(0.986362 0.444974 -2.6579e-19)
(0.888833 0.453182 6.80875e-19)
(0.888833 0.453182 6.80875e-19)
(0.775084 0.465276 2.56073e-19)
(0.801947 0.463825 -1.26229e-19)
(0.801947 0.463825 -1.26229e-19)
(0.698368 0.471222 -2.7342e-19)
(0.698368 0.471222 -2.7342e-19)
(0.628499 0.476396 6.47401e-21)
(1.17318 0.397679 -2.78813e-20)
(1.12262 0.421735 1.82621e-20)
(1.05904 0.43661 -7.3125e-20)
)
;
    }
    procBoundary10to11
    {
        type            processor;
        value           nonuniform List<vector> 
19
(
(0.991887 0.0482735 0)
(0.988389 0.0492991 0)
(0.984758 0.0500706 0)
(0.98102 0.050572 0)
(0.977205 0.0507908 0)
(0.973343 0.0507183 0)
(0.969469 0.0503499 0)
(0.965619 0.0496858 0)
(0.961833 0.0487304 0)
(0.958153 0.0474935 0)
(0.954625 0.0459897 0)
(0.951292 0.0442393 0)
(0.948198 0.042265 0)
(0.945378 0.0400895 0)
(0.942863 0.0377568 0)
(0.940664 0.0353563 0)
(0.938764 0.0329364 0)
(0.929842 0.0375095 -5.34331e-20)
(0.929842 0.0375095 -5.34331e-20)
)
;
    }
    procBoundary10to16
    {
        type            processor;
        value           nonuniform List<vector> 
25
(
(0.598814 0.479113 -2.83487e-20)
(0.598814 0.479113 -2.83487e-20)
(0.565808 0.480298 -9.95235e-21)
(0.583718 0.475935 -1.5411e-20)
(0.583718 0.475935 -1.5411e-20)
(0.547283 0.469749 -2.52081e-20)
(0.565887 0.459979 9.22904e-20)
(0.576934 0.452948 5.62616e-21)
(0.591448 0.449848 -3.2073e-20)
(0.620587 0.430707 -7.56484e-22)
(0.645998 0.40259 1.02677e-21)
(0.670395 0.365915 -2.19408e-20)
(0.693997 0.32427 4.14687e-20)
(0.717087 0.281076 2.11909e-20)
(0.739845 0.238984 -3.78746e-20)
(0.762198 0.199871 9.7722e-22)
(0.783963 0.164878 -2.92082e-20)
(0.804899 0.134513 5.09073e-21)
(0.824762 0.108803 5.69691e-20)
(0.843344 0.0874504 -7.2529e-20)
(0.860501 0.0699787 -2.45335e-21)
(0.876162 0.0558386 7.35171e-21)
(0.890324 0.0444818 -8.90336e-21)
(0.903038 0.0354053 3.07707e-20)
(0.914389 0.028168 -1.47623e-20)
)
;
    }
    procBoundary10to17
    {
        type            processor;
        value           nonuniform List<vector> 5((0.928688 0.0350418 -3.10645e-20) (0.927643 0.0324971 2.17457e-20) (0.926701 0.0299944 1.4876e-20) (0.925862 0.0274778 2.98751e-20) (0.925124 0.0249437 -7.18741e-20));
    }
}


// ************************************************************************* //
