/*--------------------------------*- C++ -*----------------------------------*\
  =========                 |
  \\      /  F ield         | OpenFOAM: The Open Source CFD Toolbox
   \\    /   O peration     | Website:  https://openfoam.org
    \\  /    A nd           | Version:  7
     \\/     M anipulation  |
\*---------------------------------------------------------------------------*/
FoamFile
{
    version     2.0;
    format      ascii;
    class       surfaceScalarField;
    location    "4.2";
    object      phi;
}
// * * * * * * * * * * * * * * * * * * * * * * * * * * * * * * * * * * * * * //

dimensions      [0 3 -1 0 0 0 0];

internalField   nonuniform List<scalar> 
612
(
0.000424727
-6.76238e-05
0.000440287
-7.59386e-05
0.00045823
-8.37543e-05
0.000478869
-9.1332e-05
0.000501027
-9.59245e-05
-9.91027e-05
0.00052494
0.000363707
-1.47509e-06
0.00036381
-1.45379e-06
0.00036391
-1.43303e-06
0.000364009
-1.41283e-06
0.000364107
-1.39323e-06
0.000364203
-1.37424e-06
0.000364298
-1.3559e-06
0.000364391
-1.33826e-06
0.000364483
-1.32137e-06
0.000364575
-1.3053e-06
0.000364665
-1.29012e-06
0.000364754
-1.27593e-06
0.000364842
-1.26284e-06
0.00036493
-1.25098e-06
0.000365017
-1.2405e-06
0.000365103
-1.2316e-06
0.000365189
-1.2245e-06
0.000365275
-1.21945e-06
0.000365362
-1.21676e-06
0.000365448
-1.21681e-06
0.000365536
-1.22001e-06
0.000365624
-1.22689e-06
0.000365714
-1.23804e-06
0.000365806
-1.25417e-06
0.0003659
-1.27612e-06
0.000365998
-1.30488e-06
0.0003661
-1.3416e-06
0.000366206
-1.38766e-06
0.000366319
-1.44468e-06
0.000366439
-1.51456e-06
0.000366568
-1.59954e-06
0.000366707
-1.70228e-06
0.000366859
-1.82588e-06
0.000367026
-1.97402e-06
0.000367211
-2.15102e-06
0.000367417
-2.36198e-06
0.00036765
-2.6129e-06
0.000367912
-2.91084e-06
0.000368212
-3.26412e-06
0.000368554
-3.68252e-06
0.000368948
-4.17756e-06
0.000369404
-4.76278e-06
0.000369933
-5.45411e-06
0.00037055
-6.27026e-06
0.000371272
-7.23322e-06
0.000372121
-8.36875e-06
0.00037312
-9.70709e-06
0.000374302
-1.12836e-05
0.000375704
-1.31395e-05
0.000377374
-1.53231e-05
0.000379369
-1.78899e-05
0.000381762
-2.09045e-05
0.000384641
-2.44403e-05
0.000388122
-2.85807e-05
0.000392345
-3.34177e-05
0.000397491
-3.90509e-05
0.000403785
-4.55812e-05
0.000411508
-5.3103e-05
0.000421005
-6.16813e-05
0.000432685
-7.13414e-05
0.000447005
-8.19435e-05
0.00046448
-9.34139e-05
0.000485342
-0.000104616
0.000510427
-0.000116416
0.000537695
-0.000123193
-0.000130691
0.000569284
0.000384043
-1.53631e-06
0.000384104
-1.51399e-06
0.000384163
-1.49226e-06
0.000384221
-1.47112e-06
0.000384278
-1.45062e-06
0.000384335
-1.43077e-06
0.000384391
-1.41163e-06
0.000384446
-1.39323e-06
0.0003845
-1.37563e-06
0.000384554
-1.35891e-06
0.000384607
-1.34314e-06
0.000384659
-1.32843e-06
0.000384711
-1.3149e-06
0.000384763
-1.30269e-06
0.000384814
-1.29197e-06
0.000384866
-1.28294e-06
0.000384917
-1.27583e-06
0.000384968
-1.27094e-06
0.00038502
-1.26858e-06
0.000385073
-1.26917e-06
0.000385126
-1.27315e-06
0.00038518
-1.28108e-06
0.000385236
-1.29361e-06
0.000385293
-1.3115e-06
0.000385352
-1.33565e-06
0.000385415
-1.36714e-06
0.00038548
-1.40721e-06
0.00038555
-1.45734e-06
0.000385625
-1.51928e-06
0.000385705
-1.59509e-06
0.000385793
-1.6872e-06
0.000385889
-1.79846e-06
0.000385995
-1.93226e-06
0.000386114
-2.09257e-06
0.000386247
-2.2841e-06
0.000386397
-2.51237e-06
0.000386568
-2.78391e-06
0.000386764
-3.10644e-06
0.000386989
-3.48904e-06
0.000387249
-3.94243e-06
0.00038755
-4.47928e-06
0.000387902
-5.11452e-06
0.000388314
-5.86579e-06
0.000388798
-6.75393e-06
0.000389368
-7.80355e-06
0.000390043
-9.04372e-06
0.000390845
-1.05088e-05
0.0003918
-1.22394e-05
0.000392945
-1.42836e-05
0.00039432
-1.66981e-05
0.00039598
-1.955e-05
0.000397993
-2.29183e-05
0.000400449
-2.68961e-05
0.000403461
-3.15925e-05
0.000407178
-3.71345e-05
0.000411795
-4.36676e-05
0.000417569
-5.13553e-05
0.00042484
-6.03739e-05
0.000434053
-7.08945e-05
0.00044578
-8.30685e-05
0.000460732
-9.68959e-05
0.000479749
-0.000112431
0.000503568
-0.000128435
0.000533733
-0.000146581
0.000567579
-0.000157039
-0.000174878
0.000611766
0.000399723
-1.55088e-06
0.000399737
-1.52823e-06
0.000399751
-1.50619e-06
0.000399764
-1.48478e-06
0.000399778
-1.46402e-06
0.000399791
-1.44394e-06
0.000399804
-1.42458e-06
0.000399817
-1.406e-06
0.000399829
-1.38826e-06
0.000399842
-1.37142e-06
0.000399854
-1.35558e-06
0.000399867
-1.34084e-06
0.000399879
-1.32732e-06
0.000399892
-1.31518e-06
0.000399904
-1.30459e-06
0.000399917
-1.29577e-06
0.00039993
-1.28895e-06
0.000399944
-1.28445e-06
0.000399958
-1.28259e-06
0.000399972
-1.28381e-06
0.000399988
-1.28858e-06
0.000400004
-1.29748e-06
0.000400022
-1.3112e-06
0.000400041
-1.33052e-06
0.000400062
-1.3564e-06
0.000400084
-1.38996e-06
0.00040011
-1.43251e-06
0.000400138
-1.48561e-06
0.00040017
-1.55108e-06
0.000400206
-1.6311e-06
0.000400247
-1.72822e-06
0.000400294
-1.84544e-06
0.000400348
-1.98633e-06
0.00040041
-2.15507e-06
0.000400483
-2.35663e-06
0.000400567
-2.59684e-06
0.000400666
-2.88262e-06
0.000400782
-3.22214e-06
0.000400918
-3.62504e-06
0.000401078
-4.10275e-06
0.000401268
-4.66876e-06
0.000401492
-5.33908e-06
0.000401759
-6.13266e-06
0.000402077
-7.07199e-06
0.000402457
-8.18379e-06
0.000402913
-9.49979e-06
0.000403462
-1.10578e-05
0.000404126
-1.29029e-05
0.000404931
-1.50889e-05
0.000405913
-1.76804e-05
0.000407118
-2.07546e-05
0.000408604
-2.44045e-05
0.00041045
-2.87423e-05
0.000412761
-3.39033e-05
0.000415678
-4.00512e-05
0.000419394
-4.73836e-05
0.000424177
-5.61385e-05
0.000430402
-6.65991e-05
0.000438598
-7.90903e-05
0.000449507
-9.39776e-05
0.000464163
-0.000111552
0.000483893
-0.00013216
0.00051031
-0.000154852
0.000545632
-0.000181903
0.000588374
-0.000199781
-0.000238566
0.000652062
0.000410127
-1.51741e-06
0.000410093
-1.49517e-06
0.000410061
-1.47354e-06
0.000410029
-1.45253e-06
0.000409997
-1.43218e-06
0.000409965
-1.41252e-06
0.000409934
-1.39358e-06
0.000409904
-1.37543e-06
0.000409874
-1.35811e-06
0.000409844
-1.34171e-06
0.000409815
-1.32632e-06
0.000409786
-1.31203e-06
0.000409757
-1.29899e-06
0.00040973
-1.28733e-06
0.000409702
-1.27725e-06
0.000409675
-1.26896e-06
0.000409649
-1.2627e-06
0.000409624
-1.25879e-06
0.000409599
-1.25758e-06
0.000409574
-1.25948e-06
0.000409551
-1.26499e-06
0.000409528
-1.27471e-06
0.000409506
-1.28932e-06
0.000409485
-1.30964e-06
0.000409465
-1.33664e-06
0.000409447
-1.37145e-06
0.00040943
-1.41542e-06
0.000409414
-1.47015e-06
0.000409401
-1.53749e-06
0.000409389
-1.61966e-06
0.00040938
-1.71927e-06
0.000409374
-1.8394e-06
0.000409372
-1.98369e-06
0.000409373
-2.15644e-06
0.000409379
-2.36272e-06
0.000409391
-2.60855e-06
0.000409409
-2.90101e-06
0.000409436
-3.24853e-06
0.000409472
-3.66104e-06
0.000409519
-4.15036e-06
0.000409581
-4.73046e-06
0.00040966
-5.41796e-06
0.00040976
-6.23262e-06
0.000409886
-7.19795e-06
0.000410044
-8.34201e-06
0.000410242
-9.69833e-06
0.000410492
-1.13071e-05
0.000410805
-1.32165e-05
0.000411201
-1.54846e-05
0.000411703
-1.81819e-05
0.000412342
-2.13937e-05
0.000413162
-2.52244e-05
0.000414221
-2.98019e-05
0.000415602
-3.52846e-05
0.000417421
0.000419842
0.000423107
0.000427575
0.000433789
0.000442594
0.000455323
0.000474015
0.00050172
0.000541756
0.000596866
0.000680463
0.000414634
0.000414555
0.000414478
0.000414401
0.000414325
0.000414251
0.000414177
0.000414105
0.000414033
0.000413962
0.000413893
0.000413824
0.000413756
0.000413689
0.000413623
0.000413558
0.000413493
0.00041343
0.000413367
0.000413304
0.000413242
0.000413181
0.000413121
0.00041306
0.000413001
0.000412941
0.000412882
0.000412823
0.000412763
0.000412704
0.000412644
0.000412584
0.000412523
0.000412461
0.000412398
0.000412333
0.000412266
0.000412198
0.000412127
0.000412054
0.000411977
0.000411898
0.000411815
0.00041173
0.000411643
0.000411555
0.000411469
0.000411389
0.000411319
0.00041127
0.000411255
0.000411293
0.000411416
0.000548889
-9.90867e-05
0.000569902
-9.15504e-05
0.000587107
-8.08489e-05
-6.94231e-05
0.000600044
-0.000129847
0.000624918
-0.000116425
0.000643465
-9.93956e-05
-8.26024e-05
0.000650389
-0.00016847
0.00067664
-0.000142676
0.000692618
-0.000115373
-9.10023e-05
0.000694656
-0.000211064
0.000713082
-0.000161102
0.000717076
-0.000119367
-8.62674e-05
0.000707531
0.000698093
0.000675377
)
;

boundaryField
{
    inlet
    {
        type            calculated;
        value           nonuniform 0();
    }
    outlet
    {
        type            calculated;
        value           nonuniform 0();
    }
    wall
    {
        type            calculated;
        value           nonuniform 0();
    }
    wedge1
    {
        type            wedge;
        value           nonuniform List<scalar> 
344
(
1.49733e-16
-3.0489e-16
1.36447e-16
1.78137e-17
1.12553e-16
1.47546e-16
-3.00442e-16
1.34435e-16
1.76231e-17
1.10913e-16
1.45468e-16
-2.96048e-16
1.32553e-16
1.73821e-17
1.09364e-16
1.43345e-16
-2.91862e-16
1.30603e-16
1.72052e-17
1.07791e-16
1.41193e-16
-2.87876e-16
1.28731e-16
1.68425e-17
1.06266e-16
1.39258e-16
-2.83864e-16
1.26939e-16
1.6619e-17
1.04801e-16
1.37378e-16
-2.79999e-16
1.25204e-16
1.63793e-17
1.0337e-16
1.35561e-16
-2.76266e-16
1.23573e-16
1.61779e-17
1.02043e-16
1.33811e-16
-2.72687e-16
1.21972e-16
1.6053e-17
1.00738e-16
1.32121e-16
-2.69265e-16
1.20476e-16
1.58414e-17
9.95389e-17
1.30519e-16
-2.66022e-16
1.19032e-16
1.5712e-17
9.83743e-17
1.2902e-16
-2.6295e-16
1.17703e-16
1.55251e-17
9.73192e-17
1.27616e-16
-2.60095e-16
1.16454e-16
1.54531e-17
9.63313e-17
1.26314e-16
-2.57466e-16
1.15319e-16
1.52873e-17
9.54336e-17
1.25142e-16
-2.55111e-16
1.14273e-16
1.51291e-17
9.46214e-17
1.2411e-16
-2.53064e-16
1.13409e-16
1.50182e-17
9.39717e-17
1.2325e-16
-2.51349e-16
1.12677e-16
1.49971e-17
9.34387e-17
1.22566e-16
-2.50024e-16
1.12159e-16
1.49332e-17
9.31118e-17
1.22094e-16
-2.49148e-16
1.11818e-16
1.49637e-17
9.29316e-17
1.21889e-16
-2.4879e-16
1.11753e-16
1.49451e-17
9.29965e-17
1.21963e-16
-2.49041e-16
1.11939e-16
1.50545e-17
9.32919e-17
1.22359e-16
-2.50003e-16
1.12445e-16
1.51061e-17
9.38644e-17
1.23152e-16
-2.51797e-16
1.13324e-16
1.52037e-17
9.47607e-17
1.244e-16
-2.54541e-16
1.14684e-16
1.54076e-17
9.6109e-17
1.26179e-16
-2.5842e-16
1.16537e-16
1.57326e-17
9.7897e-17
1.28587e-16
-2.63617e-16
1.1904e-16
1.60739e-17
1.00265e-16
1.31732e-16
-2.70388e-16
1.22218e-16
1.65574e-17
1.0324e-16
1.3578e-16
-2.78941e-16
1.263e-16
1.71247e-17
1.07018e-16
1.40701e-16
-2.89797e-16
1.31275e-16
1.78468e-17
1.11637e-16
1.46833e-16
-3.03147e-16
1.37442e-16
1.85632e-17
1.17312e-16
1.54474e-16
-3.19399e-16
1.45005e-16
1.95814e-17
1.2423e-16
1.63773e-16
-3.39163e-16
1.54199e-16
2.07972e-17
1.32606e-16
1.75016e-16
-3.63043e-16
1.65348e-16
2.23176e-17
1.42756e-16
1.88549e-16
-3.91782e-16
1.78732e-16
2.4165e-17
1.54922e-16
2.04808e-16
-4.26209e-16
1.94838e-16
2.63535e-17
1.6954e-16
2.24256e-16
-4.67361e-16
2.14053e-16
2.89799e-17
1.86974e-16
2.47445e-16
-5.16422e-16
2.36993e-16
3.20871e-17
2.07787e-16
2.75064e-16
-5.74782e-16
2.64281e-16
3.5808e-17
2.32534e-16
3.0786e-16
-6.44104e-16
2.9671e-16
4.0165e-17
2.6195e-16
3.46755e-16
-7.26331e-16
3.35192e-16
4.53397e-17
2.96889e-16
3.92817e-16
-8.23738e-16
3.80875e-16
5.1586e-17
3.38412e-16
4.47308e-16
-9.39038e-16
4.34972e-16
5.89738e-17
3.87653e-16
5.11699e-16
-1.07537e-15
4.99074e-16
6.77718e-17
4.46102e-16
5.87741e-16
-1.2365e-15
5.74903e-16
7.81702e-17
5.15393e-16
6.77439e-16
-1.42682e-15
6.64681e-16
9.05641e-17
5.97633e-16
7.83119e-16
-1.65153e-15
7.70856e-16
1.05237e-16
6.95185e-16
9.07593e-16
-1.91672e-15
8.96443e-16
1.22616e-16
8.10975e-16
1.05404e-15
-2.22957e-15
1.04499e-15
1.43248e-16
9.48533e-16
1.22621e-15
-2.59849e-15
1.22075e-15
1.67871e-16
1.11214e-15
1.42841e-15
-3.03339e-15
1.4287e-15
1.97039e-16
1.30687e-15
1.66558e-15
-3.54586e-15
1.67487e-15
2.31814e-16
1.53906e-15
1.94335e-15
-4.14946e-15
1.96631e-15
2.73126e-16
1.81635e-15
2.2682e-15
-4.85986e-15
2.31156e-15
3.22458e-16
2.14829e-15
2.64703e-15
-5.69547e-15
2.72061e-15
3.81187e-16
2.54665e-15
3.0879e-15
-6.67676e-15
3.20558e-15
4.5152e-16
3.59884e-15
-7.82719e-15
3.78068e-15
5.35871e-16
4.18792e-15
-9.17224e-15
4.46257e-15
6.3722e-16
4.86239e-15
-1.07385e-14
5.27059e-15
7.59466e-16
5.62666e-15
-1.25504e-14
6.22586e-15
9.07038e-16
6.48232e-15
-1.4629e-14
7.35156e-15
1.08592e-15
9.60857e-16
7.41616e-15
-1.69677e-14
8.66318e-15
1.30227e-15
1.07805e-15
8.42535e-15
-1.95825e-14
1.01872e-14
1.56531e-15
1.19103e-15
9.41967e-15
-2.22549e-14
1.18357e-14
1.87258e-15
1.30317e-15
1.04766e-14
-2.53069e-14
1.38317e-14
2.26364e-15
1.39475e-15
1.12805e-14
-2.74329e-14
1.51809e-14
2.57409e-15
1.46893e-15
1.21344e-14
-3.06948e-14
1.80976e-14
3.34064e-15
1.49974e-15
1.24177e-14
-3.13271e-14
1.7847e-14
2.91965e-15
1.42552e-15
1.15748e-14
-2.82038e-14
1.50562e-14
2.16987e-15
1.29386e-15
1.02287e-14
-2.39207e-14
1.19584e-14
1.53862e-15
1.13794e-15
8.75644e-15
-1.96499e-14
9.19008e-15
1.05365e-15
)
;
    }
    wedge2
    {
        type            wedge;
        value           nonuniform List<scalar> 
344
(
1.50792e-16
-3.03918e-16
1.37201e-16
1.84203e-17
1.12978e-16
1.48619e-16
-2.9948e-16
1.35197e-16
1.80786e-17
1.11284e-16
1.46444e-16
-2.95209e-16
1.33164e-16
1.77975e-17
1.09588e-16
1.4442e-16
-2.90955e-16
1.31305e-16
1.74684e-17
1.08007e-16
1.42544e-16
-2.8674e-16
1.29476e-16
1.73414e-17
1.06471e-16
1.40565e-16
-2.82795e-16
1.2768e-16
1.7089e-17
1.04976e-16
1.38655e-16
-2.7896e-16
1.25947e-16
1.68692e-17
1.0355e-16
1.36813e-16
-2.75267e-16
1.24237e-16
1.66268e-17
1.02132e-16
1.35045e-16
-2.71712e-16
1.22632e-16
1.63292e-17
1.0081e-16
1.33367e-16
-2.68315e-16
1.21068e-16
1.61362e-17
9.95118e-17
1.31764e-16
-2.65082e-16
1.19611e-16
1.58844e-17
9.83197e-17
1.30239e-16
-2.62052e-16
1.18213e-16
1.57131e-17
9.71727e-17
1.28817e-16
-2.59219e-16
1.16929e-16
1.54539e-17
9.61304e-17
1.27516e-16
-2.56629e-16
1.15749e-16
1.5318e-17
9.51909e-17
1.26337e-16
-2.54293e-16
1.14724e-16
1.52081e-17
9.43843e-17
1.25302e-16
-2.52249e-16
1.13795e-16
1.50902e-17
9.36627e-17
1.24419e-16
-2.50556e-16
1.13049e-16
1.49225e-17
9.31072e-17
1.23732e-16
-2.49258e-16
1.12452e-16
1.48511e-17
9.26698e-17
1.2326e-16
-2.48411e-16
1.12095e-16
1.47368e-17
9.24594e-17
1.23013e-16
-2.48093e-16
1.11945e-16
1.47424e-17
9.24361e-17
1.23061e-16
-2.48378e-16
1.12104e-16
1.46902e-17
9.26845e-17
1.23454e-16
-2.49367e-16
1.12595e-16
1.47865e-17
9.32404e-17
1.24228e-16
-2.51171e-16
1.13474e-16
1.49393e-17
9.41552e-17
1.25456e-16
-2.53955e-16
1.14762e-16
1.51079e-17
9.54169e-17
1.27221e-16
-2.57866e-16
1.166e-16
1.529e-17
9.71753e-17
1.29608e-16
-2.63112e-16
1.19013e-16
1.56246e-17
9.94538e-17
1.32728e-16
-2.69899e-16
1.22191e-16
1.60045e-17
1.02418e-16
1.36675e-16
-2.78565e-16
1.26158e-16
1.65309e-17
1.06099e-16
1.41785e-16
-2.89232e-16
1.31226e-16
1.71666e-17
1.10731e-16
1.48078e-16
-3.02466e-16
1.3745e-16
1.81186e-17
1.16419e-16
1.55681e-16
-3.18753e-16
1.45043e-16
1.91399e-17
1.23351e-16
1.64947e-16
-3.38533e-16
1.54264e-16
2.03993e-17
1.31759e-16
1.76178e-16
-3.62441e-16
1.6537e-16
2.18697e-17
1.41853e-16
1.89721e-16
-3.9119e-16
1.78766e-16
2.36177e-17
1.54016e-16
2.05953e-16
-4.25665e-16
1.94775e-16
2.57453e-17
1.68543e-16
2.25373e-16
-4.66851e-16
2.1396e-16
2.82821e-17
1.85941e-16
2.48551e-16
-5.15939e-16
2.36832e-16
3.1345e-17
2.06672e-16
2.76123e-16
-5.74341e-16
2.6409e-16
3.49814e-17
2.31398e-16
3.08895e-16
-6.43691e-16
2.96505e-16
3.93904e-17
2.60819e-16
3.47771e-16
-7.25929e-16
3.35011e-16
4.46482e-17
2.95787e-16
3.93826e-16
-8.23357e-16
3.80637e-16
5.08085e-17
3.3726e-16
4.48312e-16
-9.38651e-16
4.34745e-16
5.81644e-17
3.86507e-16
5.12703e-16
-1.07502e-15
4.98784e-16
6.68807e-17
4.44891e-16
5.88706e-16
-1.23618e-15
5.74634e-16
7.72795e-17
5.14184e-16
6.78356e-16
-1.42653e-15
6.64334e-16
8.95768e-17
5.96341e-16
7.84053e-16
-1.65125e-15
7.70482e-16
1.04214e-16
6.9386e-16
9.085e-16
-1.91647e-15
8.96049e-16
1.21634e-16
8.09653e-16
1.05494e-15
-2.22932e-15
1.0446e-15
1.42324e-16
9.4721e-16
1.22707e-15
-2.59828e-15
1.2203e-15
1.66787e-16
1.11074e-15
1.42921e-15
-3.03324e-15
1.42823e-15
1.9596e-16
1.30545e-15
1.66632e-15
-3.54577e-15
1.67431e-15
2.3058e-16
1.53755e-15
1.94408e-15
-4.1494e-15
1.9657e-15
2.71895e-16
1.81481e-15
2.26883e-15
-4.85993e-15
2.31084e-15
3.21067e-16
2.14665e-15
2.64788e-15
-5.69533e-15
2.71995e-15
3.79951e-16
2.54499e-15
3.0887e-15
-6.67666e-15
3.20491e-15
4.50306e-16
3.59956e-15
-7.82718e-15
3.77997e-15
5.34612e-16
4.18856e-15
-9.17229e-15
4.46183e-15
6.35948e-16
4.86292e-15
-1.07387e-14
5.26971e-15
7.57948e-16
5.62711e-15
-1.25507e-14
6.22491e-15
9.05464e-16
6.48264e-15
-1.46295e-14
7.35042e-15
1.08411e-15
9.61872e-16
7.41633e-15
-1.69683e-14
8.66188e-15
1.30039e-15
1.07893e-15
8.42536e-15
-1.95832e-14
1.01856e-14
1.56316e-15
1.19176e-15
9.41949e-15
-2.22558e-14
1.18339e-14
1.87026e-15
1.30373e-15
1.04763e-14
-2.53081e-14
1.38297e-14
2.26113e-15
1.39514e-15
1.128e-14
-2.74344e-14
1.51787e-14
2.57139e-15
1.46917e-15
1.21337e-14
-3.06965e-14
1.80952e-14
3.33778e-15
1.49974e-15
1.24167e-14
-3.13291e-14
1.78444e-14
2.91677e-15
1.42537e-15
1.15736e-14
-2.82059e-14
1.50535e-14
2.16712e-15
1.29357e-15
1.02274e-14
-2.39229e-14
1.19557e-14
1.53607e-15
1.13754e-15
8.75498e-15
-1.96521e-14
9.18749e-15
1.05128e-15
)
;
    }
    axis
    {
        type            empty;
        value           nonuniform 0();
    }
    procBoundary14to8
    {
        type            processor;
        value           nonuniform List<scalar> 
71
(
5.44453e-05
6.03781e-05
6.58118e-05
7.06923e-05
7.37665e-05
7.51898e-05
1.37134e-06
1.35166e-06
1.33249e-06
1.31382e-06
1.29568e-06
1.27811e-06
1.26112e-06
1.24477e-06
1.22909e-06
1.21416e-06
1.20003e-06
1.1868e-06
1.17456e-06
1.16344e-06
1.15357e-06
1.14512e-06
1.13829e-06
1.13333e-06
1.1305e-06
1.13013e-06
1.13262e-06
1.13843e-06
1.14809e-06
1.16225e-06
1.18165e-06
1.2072e-06
1.23992e-06
1.28107e-06
1.33209e-06
1.39469e-06
1.47089e-06
1.56307e-06
1.67402e-06
1.80703e-06
1.96597e-06
2.15539e-06
2.38064e-06
2.64802e-06
2.9649e-06
3.33996e-06
3.78336e-06
4.30702e-06
4.92488e-06
5.65324e-06
6.51111e-06
7.52064e-06
8.70756e-06
1.01016e-05
1.17371e-05
1.36533e-05
1.58949e-05
1.85121e-05
2.15605e-05
2.51003e-05
2.91944e-05
3.39051e-05
3.92873e-05
4.53799e-05
5.21843e-05
-0.000411548
5.96609e-05
7.51376e-05
7.05381e-05
6.36433e-05
5.58335e-05
)
;
    }
    procBoundary14to9
    {
        type            processor;
        value           uniform 0.000600697;
    }
    procBoundary14to13
    {
        type            processor;
        value           nonuniform List<scalar> 5(-0.000363604 -0.000383982 -0.000399708 -0.00041016 -0.000414714);
    }
    procBoundary14to15
    {
        type            processor;
        value           nonuniform List<scalar> 4(0.000656644 0.000701018 0.000712341 0.000648599);
    }
    procBoundary14to20
    {
        type            processor;
        value           nonuniform List<scalar> 
71
(
-4.18698e-05
-4.98049e-05
-5.94035e-05
-7.10664e-05
-8.53045e-05
-0.000102783
-0.000124281
-0.000150852
-0.000182557
-0.00022194
-0.000254891
-0.000322163
-1.43741e-06
-1.41629e-06
-1.39576e-06
-1.37584e-06
-1.35655e-06
-1.33793e-06
-1.32003e-06
-1.30288e-06
-1.28655e-06
-1.27111e-06
-1.25666e-06
-1.2433e-06
-1.23116e-06
-1.22038e-06
-1.21114e-06
-1.20367e-06
-1.1982e-06
-1.19504e-06
-1.19454e-06
-1.19712e-06
-1.20326e-06
-1.21355e-06
-1.22868e-06
-1.24945e-06
-1.27683e-06
-1.31193e-06
-1.3561e-06
-1.41091e-06
-1.47822e-06
-1.56021e-06
-1.65948e-06
-1.77909e-06
-1.92266e-06
-2.09445e-06
-2.29954e-06
-2.54389e-06
-2.83459e-06
-3.18003e-06
-3.59018e-06
-4.07683e-06
-4.65405e-06
-5.33853e-06
-6.15019e-06
-7.11283e-06
-8.25492e-06
-9.61062e-06
-1.12211e-05
-1.31359e-05
-1.54153e-05
-1.81328e-05
-2.13783e-05
-2.52629e-05
-2.99249e-05
0.00041167
-3.55379e-05
-0.000238133
-0.000151664
-9.66511e-05
-5.94893e-05
)
;
    }
}


// ************************************************************************* //
