/*--------------------------------*- C++ -*----------------------------------*\
  =========                 |
  \\      /  F ield         | OpenFOAM: The Open Source CFD Toolbox
   \\    /   O peration     | Website:  https://openfoam.org
    \\  /    A nd           | Version:  7
     \\/     M anipulation  |
\*---------------------------------------------------------------------------*/
FoamFile
{
    version     2.0;
    format      ascii;
    class       volScalarField;
    location    "15.000664";
    object      p;
}
// * * * * * * * * * * * * * * * * * * * * * * * * * * * * * * * * * * * * * //

dimensions      [0 2 -2 0 0 0 0];

internalField   nonuniform List<scalar> 
5800
(
-0.277895
-0.27862
-0.279323
-0.27998
-0.280565
-0.281054
-0.281426
-0.281699
-0.281868
-0.269232
-0.271095
-0.272221
-0.273104
-0.273884
-0.274588
-0.275262
-0.275937
-0.276629
-0.277341
-0.278065
-0.278786
-0.279485
-0.280137
-0.280717
-0.281198
-0.281555
-0.281805
-0.281947
-0.269821
-0.271614
-0.2727
-0.273554
-0.274308
-0.274991
-0.275646
-0.276305
-0.276983
-0.277682
-0.278395
-0.279106
-0.279796
-0.280439
-0.281009
-0.281475
-0.281801
-0.281999
-0.282117
-0.270682
-0.272375
-0.273403
-0.274213
-0.274929
-0.275579
-0.276204
-0.276838
-0.277492
-0.278171
-0.278866
-0.279561
-0.280235
-0.280863
-0.281414
-0.281858
-0.282142
-0.282247
-0.282405
-0.271791
-0.273357
-0.274311
-0.275063
-0.275727
-0.276332
-0.276918
-0.277514
-0.278135
-0.278783
-0.27945
-0.280119
-0.28077
-0.281374
-0.281899
-0.282314
-0.282552
-0.282491
-0.282856
-0.273119
-0.274536
-0.275402
-0.276082
-0.276683
-0.277229
-0.277761
-0.278307
-0.278882
-0.279487
-0.280114
-0.280747
-0.281363
-0.281934
-0.282421
-0.282796
-0.283008
-0.282649
-0.283533
-0.279516
-0.274632
-0.275886
-0.276651
-0.277248
-0.277771
-0.278245
-0.278708
-0.279189
-0.279702
-0.280249
-0.280822
-0.281404
-0.281972
-0.282497
-0.282934
-0.283253
-0.283496
-0.282617
-0.284439
-0.277967
-0.276296
-0.277378
-0.278033
-0.278536
-0.278967
-0.279353
-0.27973
-0.280129
-0.280563
-0.281034
-0.281536
-0.28205
-0.282555
-0.283021
-0.283395
-0.283622
-0.283992
-0.282375
-0.285201
-0.277066
-0.278079
-0.278988
-0.279526
-0.279924
-0.280249
-0.280529
-0.280803
-0.281098
-0.281433
-0.281809
-0.282219
-0.282648
-0.283071
-0.283462
-0.283767
-0.28386
-0.28432
-0.282278
-0.285588
-0.275944
-0.279954
-0.280692
-0.281109
-0.28139
-0.281595
-0.281753
-0.281901
-0.282073
-0.282285
-0.282543
-0.282841
-0.283164
-0.283487
-0.283785
-0.284001
-0.283985
-0.284466
-0.281909
-0.28605
-0.274482
-0.281899
-0.282475
-0.282767
-0.282922
-0.282991
-0.283006
-0.283008
-0.283031
-0.283097
-0.283214
-0.283378
-0.283575
-0.283778
-0.283963
-0.28408
-0.28391
-0.28449
-0.281189
-0.286465
-0.272793
-0.283899
-0.284325
-0.28449
-0.284508
-0.284426
-0.284278
-0.28411
-0.283961
-0.283856
-0.283808
-0.283815
-0.283864
-0.28393
-0.283984
-0.28399
-0.283617
-0.284344
-0.280173
-0.286602
-0.271072
-0.285953
-0.286241
-0.286276
-0.286147
-0.285896
-0.285564
-0.285202
-0.284856
-0.284556
-0.28432
-0.284149
-0.284031
-0.28394
-0.283844
-0.283728
-0.283121
-0.28395
-0.278971
-0.286145
-0.269567
-0.288067
-0.288229
-0.288132
-0.287842
-0.287405
-0.286867
-0.286289
-0.285721
-0.285202
-0.284755
-0.284386
-0.284083
-0.28382
-0.283555
-0.283295
-0.282446
-0.283216
-0.277723
-0.284753
-0.268386
-0.29026
-0.290306
-0.29007
-0.289606
-0.288964
-0.2882
-0.287382
-0.286569
-0.28581
-0.285132
-0.284546
-0.284042
-0.283591
-0.283137
-0.282694
-0.281615
-0.282057
-0.276497
-0.282234
-0.267315
-0.292564
-0.292497
-0.292112
-0.29146
-0.290594
-0.289582
-0.288501
-0.287423
-0.286404
-0.285479
-0.284661
-0.28394
-0.283281
-0.282613
-0.281929
-0.280622
-0.280431
-0.275198
-0.27869
-0.265862
-0.295017
-0.294833
-0.294289
-0.293431
-0.29232
-0.291038
-0.289676
-0.288314
-0.287019
-0.285831
-0.284767
-0.283812
-0.282921
-0.282004
-0.280999
-0.279416
-0.278347
-0.273563
-0.274429
-0.263572
-0.297671
-0.297355
-0.296637
-0.295552
-0.294175
-0.292604
-0.290942
-0.289281
-0.287696
-0.286233
-0.284907
-0.283696
-0.282535
-0.281311
-0.279891
-0.277915
-0.275822
-0.271299
-0.269657
-0.260263
-0.300583
-0.300112
-0.299197
-0.297861
-0.296198
-0.294319
-0.29234
-0.290367
-0.288481
-0.28673
-0.285124
-0.283624
-0.282139
-0.280522
-0.278574
-0.276035
-0.272858
-0.268226
-0.264315
-0.256055
-0.303812
-0.303155
-0.302013
-0.300403
-0.29843
-0.296225
-0.293917
-0.29162
-0.289421
-0.287367
-0.285452
-0.283615
-0.281727
-0.279604
-0.276997
-0.273713
-0.269459
-0.264329
-0.258333
-0.251206
-0.307423
-0.306535
-0.305136
-0.303223
-0.300918
-0.298368
-0.295717
-0.293086
-0.290561
-0.28818
-0.285916
-0.283672
-0.281277
-0.278513
-0.275108
-0.270925
-0.265642
-0.259725
-0.252229
-0.245616
-0.311478
-0.310305
-0.308611
-0.306368
-0.303706
-0.300795
-0.297788
-0.29481
-0.291941
-0.289198
-0.286523
-0.283777
-0.280747
-0.277197
-0.272866
-0.267684
-0.261413
-0.25456
-0.246451
-0.239056
-0.316036
-0.314518
-0.312489
-0.309883
-0.306841
-0.303552
-0.300176
-0.296834
-0.29359
-0.290434
-0.287263
-0.283894
-0.280087
-0.275609
-0.270251
-0.264028
-0.256801
-0.249137
-0.240434
-0.23241
-0.321151
-0.31922
-0.316814
-0.313814
-0.310368
-0.306683
-0.30292
-0.29919
-0.295529
-0.291884
-0.288106
-0.283974
-0.27924
-0.273711
-0.267265
-0.260002
-0.251901
-0.243503
-0.234329
-0.225909
-0.326871
-0.324457
-0.32163
-0.318204
-0.314331
-0.31023
-0.306059
-0.301903
-0.29776
-0.293525
-0.289003
-0.283954
-0.278154
-0.271483
-0.263927
-0.255668
-0.246773
-0.237747
-0.228176
-0.219424
-0.333235
-0.330265
-0.326975
-0.323094
-0.31877
-0.314232
-0.309621
-0.304984
-0.300269
-0.295314
-0.289892
-0.283767
-0.276782
-0.268914
-0.260265
-0.251076
-0.241472
-0.2319
-0.22198
-0.212976
-0.340274
-0.336677
-0.332884
-0.328521
-0.323723
-0.31872
-0.313622
-0.308428
-0.30302
-0.297189
-0.290695
-0.283348
-0.275088
-0.266008
-0.256309
-0.246264
-0.236029
-0.225973
-0.215752
-0.206512
-0.348007
-0.343715
-0.339385
-0.334515
-0.329217
-0.323713
-0.318065
-0.312205
-0.305953
-0.299067
-0.291329
-0.282635
-0.273047
-0.262773
-0.252083
-0.241258
-0.230455
-0.219963
-0.209473
-0.200014
-0.356441
-0.351392
-0.346494
-0.341096
-0.335272
-0.329215
-0.322926
-0.316261
-0.308985
-0.300851
-0.291707
-0.281572
-0.270641
-0.259214
-0.247602
-0.236064
-0.224745
-0.213855
-0.203123
-0.193456
-0.365564
-0.359706
-0.354218
-0.348272
-0.341886
-0.335207
-0.328157
-0.320514
-0.312008
-0.302433
-0.291746
-0.280114
-0.267856
-0.255335
-0.242866
-0.230675
-0.218884
-0.207627
-0.196679
-0.186814
-0.375348
-0.368637
-0.362543
-0.35603
-0.349036
-0.34164
-0.333673
-0.324849
-0.314898
-0.303701
-0.291369
-0.278222
-0.264678
-0.251127
-0.237866
-0.225076
-0.212849
-0.201254
-0.190113
-0.180065
-0.385736
-0.378145
-0.371435
-0.364334
-0.356668
-0.34843
-0.33936
-0.329127
-0.317514
-0.304544
-0.290506
-0.27586
-0.261087
-0.246575
-0.232581
-0.219239
-0.20661
-0.194708
-0.183401
-0.173184
-0.396648
-0.388161
-0.380833
-0.373116
-0.364693
-0.355457
-0.345065
-0.333185
-0.319712
-0.304857
-0.289093
-0.272991
-0.257058
-0.241653
-0.226982
-0.213135
-0.200138
-0.187961
-0.176515
-0.166149
-0.407968
-0.39859
-0.390644
-0.382271
-0.372983
-0.362561
-0.350608
-0.336848
-0.321349
-0.304542
-0.28707
-0.269576
-0.252559
-0.236329
-0.221037
-0.206729
-0.1934
-0.180984
-0.169429
-0.158937
-0.419549
-0.409301
-0.40074
-0.391657
-0.381366
-0.369546
-0.355783
-0.339931
-0.322286
-0.303508
-0.284379
-0.265573
-0.247552
-0.230565
-0.214708
-0.199986
-0.186365
-0.173751
-0.16212
-0.151529
-0.431208
-0.420129
-0.410953
-0.40109
-0.389635
-0.376184
-0.360372
-0.342252
-0.322392
-0.301668
-0.28096
-0.260934
-0.241993
-0.224319
-0.207956
-0.192871
-0.179001
-0.166235
-0.154562
-0.143903
-0.442725
-0.430871
-0.421079
-0.410346
-0.397545
-0.382225
-0.364149
-0.343636
-0.321545
-0.298942
-0.276754
-0.255609
-0.235836
-0.217549
-0.200742
-0.185349
-0.17128
-0.15841
-0.146732
-0.136042
-0.453849
-0.441292
-0.430875
-0.419166
-0.404823
-0.387406
-0.366889
-0.343915
-0.319633
-0.29525
-0.271701
-0.249545
-0.229032
-0.21021
-0.193027
-0.177387
-0.163174
-0.150253
-0.138608
-0.127929
-0.464296
-0.451122
-0.440066
-0.42726
-0.411175
-0.391459
-0.368377
-0.342937
-0.31655
-0.290517
-0.265739
-0.242689
-0.221533
-0.202261
-0.184776
-0.168954
-0.154658
-0.141743
-0.130175
-0.119553
-0.473759
-0.460066
-0.448349
-0.434315
-0.4163
-0.394121
-0.368414
-0.340562
-0.3122
-0.284672
-0.258807
-0.234987
-0.213295
-0.193661
-0.175954
-0.160023
-0.145709
-0.132861
-0.121419
-0.110916
-0.481915
-0.467807
-0.4554
-0.440008
-0.419895
-0.395143
-0.366816
-0.336666
-0.306497
-0.277645
-0.25085
-0.22639
-0.204272
-0.184374
-0.166532
-0.15057
-0.136309
-0.123591
-0.112333
-0.102022
-0.488427
-0.474015
-0.460885
-0.444012
-0.42167
-0.394298
-0.363424
-0.331139
-0.299361
-0.269376
-0.241814
-0.216853
-0.194427
-0.174369
-0.156484
-0.140573
-0.126439
-0.113917
-0.102904
-0.0928661
-0.49296
-0.478356
-0.464472
-0.446009
-0.421356
-0.391382
-0.358098
-0.323886
-0.290723
-0.259807
-0.231651
-0.206335
-0.183728
-0.163621
-0.14579
-0.130017
-0.116086
-0.103826
-0.0931138
-0.0834013
-0.495187
-0.480502
-0.465834
-0.445704
-0.418709
-0.38622
-0.350722
-0.31483
-0.280525
-0.248892
-0.220322
-0.194804
-0.172148
-0.152107
-0.134434
-0.118888
-0.105239
-0.0933138
-0.0829599
-0.0735333
-0.494797
-0.480143
-0.464669
-0.442828
-0.413522
-0.378672
-0.341205
-0.30391
-0.268721
-0.236593
-0.207797
-0.182236
-0.159669
-0.139814
-0.122405
-0.107179
-0.0938911
-0.082378
-0.072474
-0.0632186
-0.491506
-0.476989
-0.460704
-0.437148
-0.405624
-0.368628
-0.329481
-0.291083
-0.255279
-0.222886
-0.194054
-0.168613
-0.146276
-0.126734
-0.109698
-0.0948929
-0.0820508
-0.0710235
-0.0616474
-0.0526559
-0.485066
-0.470788
-0.453703
-0.428473
-0.394886
-0.356012
-0.315508
-0.276323
-0.240184
-0.207757
-0.179079
-0.153924
-0.131965
-0.11287
-0.0963227
-0.0820444
-0.0697503
-0.0593159
-0.0503698
-0.0419155
-0.47527
-0.461327
-0.443476
-0.41666
-0.381221
-0.340781
-0.29927
-0.259624
-0.223429
-0.1912
-0.162872
-0.138176
-0.116749
-0.098246
-0.0823102
-0.0686425
-0.0569888
-0.0472035
-0.0387448
-0.0309449
-0.461956
-0.44844
-0.429883
-0.401615
-0.364585
-0.322928
-0.280774
-0.240997
-0.205018
-0.173212
-0.145463
-0.121403
-0.100674
-0.0828702
-0.0676529
-0.0547036
-0.0437798
-0.0346981
-0.0268144
-0.0197288
-0.445016
-0.432015
-0.412834
-0.383292
-0.344974
-0.302477
-0.260054
-0.22047
-0.184976
-0.153814
-0.126919
-0.103643
-0.0837325
-0.0667652
-0.0523806
-0.0402528
-0.0301434
-0.0218281
-0.0146003
-0.00827774
-0.424395
-0.411992
-0.392298
-0.361695
-0.32243
-0.279486
-0.237167
-0.198098
-0.163377
-0.133165
-0.107178
-0.0849037
-0.0659676
-0.0499666
-0.0365277
-0.0253207
-0.0161079
-0.00862528
-0.00212309
0.00338328
-0.400095
-0.388366
-0.368294
-0.336879
-0.297035
-0.254043
-0.212192
-0.173963
-0.1403
-0.111218
-0.0863583
-0.0652379
-0.0474266
-0.0325185
-0.0201349
-0.00994425
-0.00170787
0.00487625
0.0105883
0.0152211
-0.372174
-0.361189
-0.340901
-0.308956
-0.268916
-0.22625
-0.185227
-0.14816
-0.1158
-0.0880594
-0.0645247
-0.0447118
-0.0281659
-0.0144724
-0.00324901
0.00583383
0.0130171
0.018639
0.0234976
0.027196
-0.340745
-0.330566
-0.310252
-0.278091
-0.238207
-0.196207
-0.15641
-0.120794
-0.0899774
-0.0637822
-0.0417551
-0.0233998
-0.00825107
0.00411308
0.0140765
0.0219649
0.0280229
0.0326235
0.0365667
0.0392665
-0.305971
-0.296659
-0.276537
-0.24445
-0.204975
-0.164152
-0.12589
-0.091997
-0.0629496
-0.0384919
-0.0181393
-0.0013844
0.0122438
0.0231716
0.0317818
0.0383942
0.0432612
0.0467904
0.0497621
0.0513984
-0.268039
-0.259691
-0.239964
-0.208089
-0.169555
-0.130275
-0.0938364
-0.061917
-0.0348474
-0.0123048
0.00622007
0.0212426
0.0332369
0.0426302
0.0498005
0.0550613
0.0586808
0.0611013
0.0630476
0.0635489
-0.227145
-0.219954
-0.200653
-0.16934
-0.132243
-0.0947734
-0.0604366
-0.0307182
-0.00581537
0.0146514
0.03121
0.044381
0.0546391
0.0624093
0.0680611
0.0719031
0.0742319
0.0755143
0.0763492
0.0755764
-0.183543
-0.177757
-0.15882
-0.128685
-0.093241
-0.0578769
-0.0258925
0.00142229
0.0239903
0.0422382
0.056708
0.0679222
0.0763544
0.0824238
0.0864885
0.0888591
0.0898728
0.0899769
0.0895045
0.0871385
-0.137611
-0.133297
-0.115086
-0.0863188
-0.0528187
-0.0198303
0.00958081
0.0343152
0.0544023
0.0703078
0.0825832
0.0917508
0.0982805
0.102583
0.105005
0.105872
0.105563
0.104413
0.102301
0.0979586
-0.0899805
-0.0868323
-0.0697145
-0.0425489
-0.0112655
0.0191083
0.0457565
0.0677608
0.0852442
0.098704
0.108698
0.115745
0.120309
0.122792
0.123532
0.122879
0.121234
0.118706
0.114691
0.108674
-0.0408215
-0.0388763
-0.0230423
0.00228541
0.0311126
0.0586694
0.0823976
0.10155
0.116331
0.127264
0.134907
0.139777
0.142329
0.142952
0.141985
0.139798
0.136768
0.132717
0.126784
0.121307
0.00947415
0.0101456
0.0245538
0.0478312
0.0739988
0.0985742
0.119259
0.135467
0.147473
0.155818
0.161063
0.163715
0.164223
0.162964
0.160277
0.15654
0.152052
0.14645
0.139146
0.133888
0.0604717
0.0598218
0.0726785
0.0937261
0.117069
0.138538
0.156091
0.169291
0.178474
0.184195
0.187012
0.187426
0.185874
0.182724
0.178317
0.173018
0.167046
0.159985
0.151602
0.145961
0.111733
0.109732
0.120929
0.139602
0.159997
0.178272
0.192639
0.202798
0.209136
0.21222
0.212601
0.210773
0.207162
0.202128
0.196007
0.189144
0.181699
0.173279
0.163933
0.1576
0.162816
0.159451
0.168901
0.185092
0.202453
0.217487
0.228648
0.235763
0.239261
0.239716
0.237675
0.23362
0.227967
0.221069
0.213254
0.204842
0.195953
0.186249
0.17596
0.168768
0.213281
0.208551
0.216191
0.229828
0.244115
0.255898
0.263867
0.267962
0.268651
0.266509
0.262077
0.255829
0.248169
0.239441
0.229963
0.220031
0.209743
0.198814
0.187593
0.179458
0.262691
0.256609
0.262403
0.273452
0.28466
0.293221
0.298044
0.299174
0.297109
0.292426
0.285658
0.277267
0.26765
0.257139
0.246041
0.234633
0.222995
0.210895
0.198754
0.189633
0.310618
0.303212
0.307149
0.315613
0.32378
0.329181
0.330938
0.329185
0.324446
0.317298
0.308266
0.297803
0.286293
0.274061
0.261401
0.248569
0.235639
0.222422
0.209382
0.199257
0.356649
0.347958
0.350055
0.355973
0.361172
0.363513
0.362312
0.357784
0.350475
0.340961
0.329757
0.317308
0.303986
0.290107
0.275953
0.261763
0.247604
0.23333
0.219421
0.208291
0.400384
0.390461
0.390762
0.394208
0.39655
0.395962
0.39194
0.384772
0.375021
0.363259
0.349994
0.33566
0.320622
0.305183
0.289615
0.274141
0.258824
0.243558
0.228819
0.216699
0.441446
0.430357
0.428931
0.430013
0.429641
0.426288
0.419609
0.409959
0.397914
0.384042
0.368844
0.352744
0.336097
0.319199
0.302308
0.285634
0.269238
0.253051
0.237528
0.224447
0.47948
0.467302
0.464244
0.463102
0.460193
0.454263
0.445119
0.433168
0.418997
0.403172
0.386184
0.368451
0.350317
0.33207
0.313958
0.296175
0.278787
0.261756
0.245503
0.231503
0.514159
0.500981
0.496408
0.493211
0.48797
0.479682
0.468285
0.454234
0.438124
0.420518
0.401901
0.382679
0.363192
0.343719
0.324495
0.305705
0.287419
0.269625
0.252702
0.237839
0.545183
0.531105
0.525158
0.520101
0.512759
0.502354
0.488939
0.473007
0.455164
0.435965
0.415889
0.395338
0.374643
0.354073
0.333857
0.314169
0.295083
0.276614
0.259087
0.243429
0.572287
0.557419
0.550255
0.543558
0.53437
0.522111
0.506929
0.489355
0.469996
0.449406
0.428058
0.406346
0.384595
0.363071
0.341989
0.321517
0.301736
0.282683
0.264626
0.248254
0.595238
0.579697
0.571492
0.563396
0.552639
0.538804
0.522127
0.50316
0.482518
0.46075
0.438325
0.415631
0.392988
0.370655
0.348842
0.327707
0.307341
0.287796
0.269289
0.252296
0.613839
0.59775
0.588695
0.579458
0.567424
0.552311
0.53442
0.514325
0.492642
0.46992
0.446622
0.423133
0.399767
0.37678
0.354374
0.332704
0.311864
0.291925
0.27305
0.255543
0.627931
0.611426
0.601722
0.591617
0.578613
0.562531
0.543719
0.522769
0.500298
0.476853
0.452894
0.428802
0.40489
0.381407
0.358553
0.336477
0.31528
0.295043
0.275889
0.257984
0.637393
0.620608
0.610467
0.599777
0.58612
0.569386
0.549956
0.528432
0.505432
0.481502
0.457099
0.432603
0.408323
0.384508
0.361353
0.339005
0.317569
0.297133
0.27779
0.259615
0.434509
0.410045
0.386063
0.362757
0.340273
0.318717
0.298181
0.278744
0.260431
-0.283502
-0.282809
-0.281622
-0.279867
-0.282008
-0.277559
-0.27999
-0.279581
-0.27472
-0.277095
-0.277083
-0.271279
-0.273317
-0.273729
-0.273934
-0.267129
-0.268745
-0.269581
-0.270075
-0.262316
-0.263629
-0.264783
-0.265457
-0.266082
-0.25724
-0.258374
-0.259517
-0.260205
-0.260993
-0.261898
-0.252552
-0.253419
-0.253971
-0.254367
-0.255139
-0.256066
-0.24652
-0.249045
-0.249585
-0.250093
-0.250978
-0.251975
-0.252926
-0.241029
-0.244209
-0.244823
-0.245314
-0.246264
-0.247362
-0.248397
-0.235539
-0.23911
-0.239738
-0.240196
-0.241199
-0.242393
-0.243507
-0.230097
-0.233848
-0.234519
-0.234985
-0.236041
-0.237313
-0.238498
-0.224512
-0.228436
-0.229207
-0.229713
-0.230815
-0.232152
-0.233398
-0.218819
-0.222928
-0.223825
-0.224386
-0.225529
-0.226921
-0.228223
-0.213114
-0.217363
-0.218392
-0.219017
-0.220201
-0.221641
-0.222995
-0.20742
-0.211765
-0.212926
-0.213625
-0.214849
-0.216333
-0.217734
-0.201745
-0.20616
-0.207447
-0.208223
-0.209487
-0.211011
-0.212456
-0.196111
-0.20057
-0.201972
-0.202824
-0.204128
-0.205687
-0.207172
-0.190528
-0.195009
-0.196515
-0.197439
-0.198781
-0.200373
-0.201892
-0.185003
-0.189488
-0.191087
-0.19208
-0.193457
-0.195076
-0.196628
-0.179543
-0.184018
-0.185699
-0.186756
-0.188165
-0.189808
-0.191387
-0.174158
-0.178608
-0.180361
-0.181477
-0.182914
-0.184576
-0.186179
-0.168855
-0.173266
-0.175082
-0.176253
-0.177713
-0.179391
-0.181012
-0.163642
-0.168002
-0.169872
-0.171091
-0.172571
-0.174259
-0.175894
-0.158528
-0.162824
-0.164738
-0.165999
-0.167494
-0.169188
-0.170834
-0.153517
-0.157739
-0.159687
-0.160985
-0.162491
-0.164186
-0.165837
-0.148614
-0.152754
-0.154726
-0.156054
-0.157566
-0.159258
-0.16091
-0.143823
-0.147872
-0.149859
-0.151211
-0.152725
-0.15441
-0.156058
-0.139146
-0.143099
-0.145092
-0.146462
-0.147973
-0.149647
-0.151287
-0.134584
-0.138436
-0.140428
-0.141809
-0.143314
-0.144973
-0.146602
-0.130141
-0.133887
-0.13587
-0.137257
-0.138752
-0.140392
-0.142006
-0.125815
-0.129453
-0.131421
-0.132809
-0.134289
-0.135908
-0.137504
-0.12161
-0.125135
-0.127082
-0.128467
-0.12993
-0.131524
-0.133098
-0.117524
-0.120935
-0.122856
-0.124233
-0.125677
-0.127244
-0.128793
-0.113559
-0.116854
-0.118745
-0.12011
-0.121531
-0.123068
-0.12459
-0.109715
-0.112893
-0.114748
-0.116099
-0.117495
-0.119
-0.120493
-0.10599
-0.109051
-0.110868
-0.112201
-0.11357
-0.115041
-0.116503
-0.102385
-0.105328
-0.107104
-0.108416
-0.109756
-0.111192
-0.112621
-0.0988974
-0.101724
-0.103456
-0.104745
-0.106055
-0.107454
-0.108848
-0.0955272
-0.0982375
-0.0999237
-0.101187
-0.102466
-0.103828
-0.105186
-0.0922725
-0.0948684
-0.0965068
-0.0977431
-0.098989
-0.100313
-0.101634
-0.0891318
-0.091615
-0.0932043
-0.094412
-0.0956245
-0.0969097
-0.0981932
-0.0861033
-0.0884758
-0.0900151
-0.0911929
-0.0923715
-0.0936175
-0.094863
-0.0831852
-0.0854494
-0.086938
-0.088085
-0.0892292
-0.090436
-0.091643
-0.0803754
-0.0825338
-0.0839715
-0.0850869
-0.0861966
-0.0873641
-0.0885326
-0.0776721
-0.0797275
-0.081114
-0.0821974
-0.0832725
-0.084401
-0.085531
-0.0750731
-0.0770283
-0.078364
-0.079415
-0.0804557
-0.0815454
-0.0826371
-0.0725763
-0.0744344
-0.0757196
-0.0767381
-0.0777446
-0.0787961
-0.0798499
-0.0701795
-0.0719436
-0.073179
-0.0741651
-0.0751377
-0.0761515
-0.0771679
-0.0678806
-0.0695541
-0.0707404
-0.0716941
-0.0726334
-0.0736103
-0.0745898
-0.0656775
-0.0672635
-0.0684017
-0.0693235
-0.07023
-0.0711707
-0.072114
-0.0635681
-0.06507
-0.0661611
-0.0670513
-0.0679258
-0.0688312
-0.0697391
-0.0615503
-0.0629714
-0.0640165
-0.0648758
-0.065719
-0.06659
-0.0674634
-0.0596221
-0.0609657
-0.0619662
-0.062795
-0.0636078
-0.0644454
-0.0652853
-0.0577813
-0.0590508
-0.060008
-0.0608073
-0.0615904
-0.0623957
-0.063203
-0.0560262
-0.057225
-0.0581403
-0.0589107
-0.0596651
-0.0604392
-0.0612149
-0.0543549
-0.0554861
-0.0563611
-0.0571035
-0.0578302
-0.0585742
-0.0593195
-0.0527656
-0.0538326
-0.0546687
-0.0553839
-0.056084
-0.056799
-0.057515
-0.0512565
-0.0522625
-0.0530613
-0.0537504
-0.0544248
-0.0551121
-0.0557999
-0.0498261
-0.0507744
-0.0515374
-0.0522014
-0.0528512
-0.053512
-0.0541727
-0.0484729
-0.0493666
-0.0500955
-0.0507354
-0.0513617
-0.0519971
-0.0526321
-0.0471956
-0.0480377
-0.0487342
-0.0493511
-0.0499549
-0.0505662
-0.0511767
-0.0459928
-0.0467865
-0.0474522
-0.0480471
-0.0486296
-0.0492181
-0.0498053
-0.0448635
-0.0456118
-0.0462484
-0.0468224
-0.0473848
-0.0479517
-0.0485168
-0.0438068
-0.0445125
-0.0451218
-0.0456761
-0.0462194
-0.046766
-0.0473104
-0.0428218
-0.043488
-0.0440715
-0.0446073
-0.0451328
-0.0456603
-0.0461852
-0.0419079
-0.0425375
-0.043097
-0.0436154
-0.0441243
-0.044634
-0.0451408
-0.0410648
-0.0416606
-0.0421979
-0.0427002
-0.0431936
-0.0436869
-0.0441768
-0.0402922
-0.0408572
-0.0413741
-0.0418614
-0.0423406
-0.0428187
-0.0432931
-0.0395903
-0.0401273
-0.0406255
-0.0410992
-0.0415654
-0.0420297
-0.0424899
-0.0389595
-0.0394713
-0.0399526
-0.040414
-0.0408684
-0.0413203
-0.0417677
-0.0384003
-0.0388898
-0.0393561
-0.0398065
-0.0402505
-0.0406914
-0.0411275
-0.0379138
-0.038384
-0.0388372
-0.039278
-0.0397129
-0.0401441
-0.0405703
-0.0375016
-0.0379553
-0.0383974
-0.03883
-0.0392572
-0.0396803
-0.0400981
-0.0371652
-0.0376056
-0.0380386
-0.0384646
-0.0388856
-0.0393019
-0.0397129
-0.0369073
-0.0373374
-0.0377634
-0.0381843
-0.0386005
-0.0390118
-0.0394175
-0.0367319
-0.037155
-0.0375763
-0.0379937
-0.0384066
-0.0388144
-0.0392165
-0.0366376
-0.0370579
-0.0374775
-0.0378936
-0.0383052
-0.0387115
-0.0391121
-0.104704
-0.113087
-0.121261
-0.129227
-0.136994
-0.144576
-0.151986
-0.15924
-0.166356
-0.173351
-0.180243
-0.18705
-0.193789
-0.200473
-0.207112
-0.213713
-0.220246
-0.226844
-0.23308
-0.240594
-0.101436
-0.109549
-0.117473
-0.125213
-0.13278
-0.140186
-0.147442
-0.154563
-0.161563
-0.168457
-0.175259
-0.181984
-0.188645
-0.195255
-0.20181
-0.208356
-0.214772
-0.221487
-0.227537
-0.23543
-0.0983029
-0.106101
-0.113726
-0.121187
-0.128493
-0.135654
-0.142682
-0.149588
-0.156384
-0.163083
-0.169696
-0.176237
-0.182714
-0.189151
-0.195526
-0.20196
-0.208224
-0.214989
-0.221017
-0.228879
-0.0952856
-0.102796
-0.110153
-0.117365
-0.12444
-0.131388
-0.138219
-0.144943
-0.151571
-0.158116
-0.164586
-0.170998
-0.177355
-0.183702
-0.189986
-0.196401
-0.202613
-0.209397
-0.215506
-0.223045
-0.0924021
-0.0996425
-0.10675
-0.113731
-0.120593
-0.127345
-0.133998
-0.140561
-0.147045
-0.153462
-0.15982
-0.166142
-0.172419
-0.178716
-0.184946
-0.191343
-0.197508
-0.204191
-0.210295
-0.217375
-0.0896497
-0.0966291
-0.103492
-0.110245
-0.116894
-0.12345
-0.129922
-0.13632
-0.142652
-0.148933
-0.155168
-0.161382
-0.167557
-0.17377
-0.179903
-0.186206
-0.192271
-0.198759
-0.204837
-0.211583
-0.0870173
-0.0937423
-0.100365
-0.106892
-0.113329
-0.119685
-0.12597
-0.132193
-0.138361
-0.14449
-0.15058
-0.15666
-0.162701
-0.168787
-0.17479
-0.180951
-0.18692
-0.193221
-0.199316
-0.20585
-0.0844961
-0.0909739
-0.0973621
-0.103666
-0.109892
-0.11605
-0.122145
-0.12819
-0.134189
-0.140157
-0.146091
-0.152023
-0.157919
-0.163865
-0.169741
-0.17576
-0.181658
-0.187799
-0.193882
-0.200219
-0.0820798
-0.0883179
-0.0944774
-0.100564
-0.106582
-0.112542
-0.11845
-0.124315
-0.130142
-0.135946
-0.141722
-0.147503
-0.153256
-0.15906
-0.164818
-0.170696
-0.176513
-0.182484
-0.188491
-0.194642
-0.0797628
-0.0857685
-0.0917054
-0.0975784
-0.103393
-0.109158
-0.114879
-0.120565
-0.126219
-0.131858
-0.137476
-0.143103
-0.148712
-0.154369
-0.160002
-0.165724
-0.171431
-0.177225
-0.183125
-0.189118
-0.0775395
-0.0833201
-0.0890403
-0.094705
-0.10032
-0.105892
-0.111427
-0.116934
-0.122416
-0.127888
-0.133345
-0.138815
-0.144275
-0.149776
-0.155271
-0.160828
-0.166408
-0.172038
-0.17782
-0.183664
-0.0754049
-0.0809674
-0.0864769
-0.091938
-0.097356
-0.102738
-0.10809
-0.113419
-0.118729
-0.124033
-0.129327
-0.134635
-0.139941
-0.145282
-0.150632
-0.156027
-0.161473
-0.166946
-0.172593
-0.178281
-0.0733544
-0.0787058
-0.0840103
-0.0892727
-0.0944983
-0.0996937
-0.104864
-0.110016
-0.115154
-0.12029
-0.12542
-0.130565
-0.135715
-0.140894
-0.146096
-0.151332
-0.156634
-0.161948
-0.167446
-0.172972
-0.0713834
-0.0765304
-0.0816357
-0.0867046
-0.091742
-0.096754
-0.101745
-0.106723
-0.11169
-0.116657
-0.121624
-0.126605
-0.131598
-0.136616
-0.141667
-0.146742
-0.151891
-0.157044
-0.162387
-0.167748
-0.0694881
-0.0744373
-0.079349
-0.0842295
-0.0890831
-0.0939153
-0.0987304
-0.103535
-0.108334
-0.113133
-0.117938
-0.122755
-0.12759
-0.132446
-0.137341
-0.142254
-0.147247
-0.152238
-0.157424
-0.162619
-0.0676654
-0.0724227
-0.0771465
-0.0818435
-0.0865177
-0.0911738
-0.0958163
-0.100451
-0.105082
-0.109717
-0.114358
-0.119013
-0.123688
-0.128384
-0.13312
-0.137873
-0.142708
-0.147537
-0.152562
-0.157589
-0.0659113
-0.0704828
-0.0750245
-0.079543
-0.0840421
-0.088526
-0.0929992
-0.0974668
-0.101933
-0.106404
-0.110885
-0.115378
-0.119894
-0.124429
-0.129007
-0.1336
-0.138275
-0.142943
-0.147803
-0.152664
-0.064222
-0.0686139
-0.0729792
-0.0773241
-0.0816527
-0.0859686
-0.090276
-0.0945797
-0.0988842
-0.103194
-0.107514
-0.111848
-0.116206
-0.120582
-0.125001
-0.129435
-0.133949
-0.138456
-0.143151
-0.147847
-0.0625946
-0.0668126
-0.071007
-0.0751836
-0.0793461
-0.0834981
-0.0876436
-0.0917867
-0.0959321
-0.100083
-0.104246
-0.108423
-0.112624
-0.116842
-0.121103
-0.125378
-0.129732
-0.134078
-0.138608
-0.14314
-0.0610262
-0.0650759
-0.0691048
-0.073118
-0.0771191
-0.0811115
-0.0850989
-0.089085
-0.0930744
-0.0970701
-0.101078
-0.1051
-0.109145
-0.113208
-0.117312
-0.12143
-0.125624
-0.129812
-0.134175
-0.138545
-0.0595138
-0.0634009
-0.0672695
-0.0711242
-0.0749687
-0.0788057
-0.082639
-0.0864719
-0.0903087
-0.0941521
-0.0980081
-0.101877
-0.10577
-0.109679
-0.113628
-0.117591
-0.121627
-0.125657
-0.129855
-0.134062
-0.0580547
-0.0617846
-0.0654981
-0.0691994
-0.0728917
-0.0765778
-0.0802611
-0.0839445
-0.0876323
-0.0913268
-0.0950337
-0.0987533
-0.102496
-0.106254
-0.110051
-0.11386
-0.117739
-0.121613
-0.125648
-0.129693
-0.0566463
-0.0602244
-0.0637879
-0.0673406
-0.0708855
-0.0744251
-0.0779624
-0.0815004
-0.0850428
-0.0885919
-0.092153
-0.0957263
-0.0993211
-0.102932
-0.106578
-0.110237
-0.113961
-0.117681
-0.121554
-0.12544
-0.0552863
-0.0587179
-0.0621364
-0.0655454
-0.0689474
-0.0723448
-0.0757404
-0.0791368
-0.0825377
-0.0859451
-0.0893638
-0.0927942
-0.0962448
-0.0997101
-0.103209
-0.10672
-0.110293
-0.113862
-0.117576
-0.121302
-0.0539726
-0.0572627
-0.0605412
-0.0638111
-0.0670748
-0.0703344
-0.0735925
-0.0768515
-0.0801147
-0.0833841
-0.0866641
-0.089955
-0.0932648
-0.0965884
-0.0999434
-0.10331
-0.106733
-0.110153
-0.113712
-0.117282
-0.0527029
-0.0558566
-0.0589999
-0.0621356
-0.0652655
-0.0683916
-0.0715164
-0.074642
-0.0777715
-0.0809067
-0.0840517
-0.0872068
-0.0903793
-0.0935645
-0.096779
-0.100004
-0.103282
-0.106556
-0.109962
-0.113379
-0.0514755
-0.0544976
-0.0575105
-0.0605164
-0.063517
-0.066514
-0.0695096
-0.072506
-0.0755058
-0.0785107
-0.0815245
-0.0845475
-0.0875864
-0.090637
-0.0937143
-0.0968009
-0.0999371
-0.10307
-0.106326
-0.109593
-0.0502888
-0.053184
-0.0560712
-0.0589519
-0.0618275
-0.0646995
-0.0675702
-0.0704413
-0.0733155
-0.076194
-0.0790805
-0.0819752
-0.0848843
-0.0878039
-0.090748
-0.0937001
-0.0966983
-0.0996922
-0.102803
-0.105924
-0.0491393
-0.0519135
-0.0546799
-0.0574398
-0.0601947
-0.0629461
-0.065696
-0.068446
-0.0711984
-0.0739545
-0.0767176
-0.0794879
-0.0822711
-0.0850635
-0.0878782
-0.0906998
-0.0935638
-0.096423
-0.0993923
-0.102371
-0.0480245
-0.0506841
-0.0533346
-0.0559781
-0.0586166
-0.0612516
-0.0638849
-0.0665178
-0.0691525
-0.0717902
-0.0744339
-0.0770837
-0.0797449
-0.0824141
-0.0851033
-0.0877982
-0.0905321
-0.0932606
-0.0960925
-0.0989324
-0.0469472
-0.0494958
-0.0520345
-0.0545657
-0.0570918
-0.0596145
-0.0621352
-0.064655
-0.067176
-0.0696992
-0.0722273
-0.0747606
-0.0773037
-0.0798536
-0.0824214
-0.0849937
-0.0876016
-0.0902035
-0.0929022
-0.095608
-0.045908
-0.0483481
-0.0507783
-0.0532012
-0.055619
-0.0580332
-0.0604451
-0.0628558
-0.0652669
-0.0676795
-0.0700961
-0.0725167
-0.0749458
-0.0773804
-0.0798307
-0.0822845
-0.0847706
-0.0872501
-0.0898199
-0.092396
-0.0449036
-0.0472384
-0.0495642
-0.0518828
-0.0541963
-0.056506
-0.058813
-0.0611184
-0.0634235
-0.0657295
-0.0680383
-0.0703502
-0.0726692
-0.0749925
-0.0773295
-0.0796688
-0.0820372
-0.0843986
-0.0868439
-0.0892947
-0.0439321
-0.0461657
-0.0483908
-0.0506091
-0.0528222
-0.0550313
-0.0572373
-0.0594411
-0.0616441
-0.0638472
-0.0660522
-0.0682593
-0.0704721
-0.072688
-0.0749158
-0.0771448
-0.0793997
-0.0816473
-0.0839724
-0.0863025
-0.0429926
-0.0451289
-0.0472573
-0.049379
-0.0514955
-0.0536076
-0.0557163
-0.0578224
-0.0599271
-0.062031
-0.0641361
-0.0662422
-0.0683527
-0.0704653
-0.0725878
-0.0747105
-0.0768563
-0.0789942
-0.0812037
-0.0834175
-0.0420839
-0.044127
-0.0461624
-0.0481912
-0.0502146
-0.0522335
-0.0542487
-0.0562607
-0.0582708
-0.0602794
-0.0622882
-0.0642971
-0.0663092
-0.0683224
-0.0703436
-0.0723642
-0.074405
-0.0764375
-0.0785358
-0.0806378
-0.0412053
-0.0431588
-0.0451049
-0.0470445
-0.0489785
-0.0509078
-0.052833
-0.0547546
-0.0566737
-0.0585906
-0.0605069
-0.0624225
-0.06434
-0.0662575
-0.0681815
-0.0701039
-0.0720439
-0.0739752
-0.0759668
-0.0779614
-0.0403559
-0.0422235
-0.0440838
-0.0459377
-0.0477859
-0.0496291
-0.0514679
-0.0533027
-0.0551343
-0.0569632
-0.0587906
-0.0606165
-0.0624432
-0.064269
-0.0660997
-0.0679279
-0.0697711
-0.0716054
-0.0734946
-0.0753862
-0.0395349
-0.0413202
-0.0430983
-0.0448699
-0.0466358
-0.0483964
-0.0501522
-0.0519036
-0.0536513
-0.0553957
-0.0571379
-0.0588777
-0.0606173
-0.0623551
-0.0640963
-0.0658342
-0.0675849
-0.0693262
-0.0711174
-0.0729103
-0.0387419
-0.0404482
-0.0421474
-0.0438402
-0.045527
-0.0472084
-0.0488846
-0.0505561
-0.0522234
-0.0538867
-0.0555471
-0.0572045
-0.0588606
-0.0605142
-0.0621697
-0.0638212
-0.0654831
-0.0671355
-0.068833
-0.0705316
-0.0379762
-0.0396068
-0.0412305
-0.0428476
-0.0444587
-0.0460641
-0.0476641
-0.049259
-0.0508492
-0.0524349
-0.054017
-0.0555954
-0.0571716
-0.0587445
-0.0603181
-0.0618869