/*--------------------------------*- C++ -*----------------------------------*\
  =========                 |
  \\      /  F ield         | OpenFOAM: The Open Source CFD Toolbox
   \\    /   O peration     | Website:  https://openfoam.org
    \\  /    A nd           | Version:  7
     \\/     M anipulation  |
\*---------------------------------------------------------------------------*/
FoamFile
{
    version     2.0;
    format      ascii;
    class       surfaceScalarField;
    location    "2";
    object      phi;
}
// * * * * * * * * * * * * * * * * * * * * * * * * * * * * * * * * * * * * * //

dimensions      [0 3 -1 0 0 0 0];

internalField   nonuniform List<scalar> 
825
(
-0.00156311
0.00986232
-0.00197582
-0.0098705
0.00985455
-0.00188162
0.00984838
-0.00177686
0.00984382
-0.00166999
-0.00156029
0.0102217
-0.00196101
-0.0102365
0.0102076
-0.00186757
0.0101954
-0.00176466
0.0101851
-0.00165965
-0.00155194
0.0105871
-0.00194005
-0.0106081
0.0105672
-0.00184772
0.0105495
-0.00174689
0.0105338
-0.00164398
-0.00153846
0.0109594
-0.00191338
-0.0109861
0.0109342
-0.00182247
0.0109113
-0.00172395
0.0108906
-0.00162335
-0.00152022
0.0113395
-0.00188141
-0.0113715
0.0113093
-0.00179221
0.0112815
-0.00169618
0.0112562
-0.00159808
-0.00149754
0.0117281
-0.00184448
-0.0117651
0.0116932
-0.00175726
0.0116609
-0.0016639
0.0116313
-0.00156849
-0.0014707
0.012126
-0.00180292
-0.0121676
0.0120867
-0.00171791
0.0120502
-0.00162739
0.0120165
-0.00153482
-0.00143995
0.0125341
-0.001757
-0.01258
0.0124906
-0.00167443
0.0124501
-0.00158689
0.0124126
-0.00149731
-0.00140549
0.012953
-0.00170699
-0.013003
0.0129056
-0.00162704
0.0128613
-0.00154261
0.0128201
-0.00145616
-0.00136753
0.0133836
-0.00165308
-0.0134375
0.0133325
-0.00157594
0.0132846
-0.00149473
0.01324
-0.00141154
-0.00132624
0.0138268
-0.00159548
-0.0138844
0.0137721
-0.0015213
0.0137208
-0.00144343
0.0136729
-0.00136361
-0.00128175
0.0142834
-0.00153432
-0.0143445
0.0142253
-0.00146325
0.0141707
-0.00138883
0.0141196
-0.00131251
-0.0012342
0.0147543
-0.00146975
-0.0148189
0.014693
-0.00140193
0.0146352
-0.00133106
0.0145811
-0.00125833
-0.00118369
0.0152405
-0.00140189
-0.0153084
0.015176
-0.00133743
0.0151152
-0.00127021
0.0150581
-0.00120119
-0.00113032
0.015743
-0.0013308
-0.0158141
0.0156754
-0.00126984
0.0156116
-0.00120636
0.0155515
-0.00114114
-0.00107417
0.0162628
-0.00125656
-0.016337
0.0161922
-0.00119921
0.0161254
-0.00113957
0.0160625
-0.00107826
-0.00101528
0.0168009
-0.00117921
-0.0168783
0.0167273
-0.00112559
0.0166576
-0.00106988
0.0165919
-0.00101259
-0.000953703
0.0173585
-0.00109878
-0.017439
0.0172819
-0.001049
0.0172094
-0.000997316
0.0171409
-0.000944136
-0.000889464
0.0179368
-0.00101527
-0.0180203
0.0178573
-0.000969431
0.0177818
-0.000921879
0.0177106
-0.000872921
-0.000822573
0.018537
-0.000928671
-0.0186236
0.0184545
-0.000886883
0.0183761
-0.00084356
0.0183022
-0.000798934
-0.000753024
0.0191604
-0.000838946
-0.0192501
0.0190749
-0.000801323
0.0189936
-0.000762332
0.0189168
-0.000722151
-0.000680799
0.0198084
-0.00074605
-0.0199013
0.0197198
-0.000712704
0.0196356
-0.000678155
0.019556
-0.000642534
-0.000605863
0.0204826
-0.00064992
-0.0205787
0.0203908
-0.000620966
0.0203037
-0.000590971
0.0202212
-0.000560032
-0.00052817
0.0211844
-0.000550477
-0.0212839
0.0210895
-0.000526035
0.0209992
-0.000500712
0.0209138
-0.000474582
-0.000447662
0.0219157
-0.000447632
-0.0220185
0.0218175
-0.000427821
0.0217241
-0.000407295
0.0216356
-0.000386105
-0.000364266
0.0226783
-0.000341279
-0.0227846
0.0225767
-0.000326226
0.02248
-0.000310626
0.0223884
-0.000294513
-0.000277901
0.0234743
-0.000231305
-0.0235843
0.0233692
-0.000221138
0.0232692
-0.000210598
0.0231744
-0.000199707
-0.000188473
0.024306
-0.000117584
-0.0244197
0.0241973
-0.000112437
0.0240938
-0.000107098
0.0239956
-0.000101577
-9.58801e-05
0.0251761
-0.0252937
0.0250637
0.0249566
0.024855
0.00898941
0.00161304
0.00897216
0.00241875
0.00897473
0.002964
0.00901591
0.0033105
0.00910532
0.0034677
0.00924772
0.00346491
0.0094309
0.00333789
0.00964052
0.00305566
0.00281082
0.00933375
0.000537432
0.00932512
0.00162167
0.0093194
0.00242447
0.00933543
0.00294797
0.00939051
0.00325542
0.00949101
0.0033672
0.00963872
0.0033172
0.00982118
0.00315543
0.0100217
0.00285511
0.00259605
0.00967385
0.000531373
0.00967278
0.00162274
0.0096786
0.00241865
0.00970772
0.00291885
0.00977555
0.00318759
0.00988561
0.00325714
0.0100368
0.00316602
0.0102169
0.00297531
0.0104081
0.00266391
0.00239609
0.0100261
0.000522861
0.0100327
0.00161617
0.0100499
0.00240143
0.0100916
0.00287715
0.010171
0.00310822
0.0102891
0.00313906
0.0104421
0.00301297
0.0106186
0.00279887
0.0108003
0.00248214
0.00221031
0.010391
0.000511967
0.0104052
0.00160198
0.0104335
0.0023731
0.0104872
0.00282349
0.0105769
0.00301854
0.0107015
0.00301446
0.010855
0.0028594
0.0110267
0.00262719
0.0111991
0.00230979
0.00203789
0.0107689
0.000498796
0.0107906
0.00158028
0.0108296
0.00233406
0.0108945
0.00275861
0.0109933
0.00291982
0.0111229
0.00288478
0.0112759
0.00270642
0.0114421
0.00246104
0.0116051
0.0021467
0.00187798
0.0111602
0.000483486
0.0111893
0.00155125
0.0112385
0.00228482
0.0113138
0.00268331
0.0114203
0.00281328
0.0115538
0.00275135
0.0117052
0.00255499
0.0118653
0.00230096
0.0120193
0.00199265
0.00172969
0.0115655
0.000466205
0.0116015
0.00151519
0.0116604
0.002226
0.0117452
0.00259852
0.0118583
0.0027001
0.0119943
0.00261537
0.0121434
0.00240586
0.0122971
0.00214726
0.0124425
0.00184735
0.00159217
0.0119851
0.000447147
0.0120279
0.00147247
0.0120956
0.00215829
0.0121889
0.00250517
0.0123076
0.00258141
0.0124451
0.00247792
0.0125913
0.00225964
0.0127385
0.00200008
0.0128754
0.00171041
0.00146459
0.0124197
0.000426526
0.0124686
0.00142353
0.0125445
0.00208245
0.0126454
0.00240426
0.0127685
0.00245826
0.0129066
0.00233991
0.0130494
0.00211678
0.0131901
0.00185942
0.013319
0.00158143
0.00134614
0.0128697
0.000404573
0.0129243
0.00136889
0.0130075
0.00199927
0.013115
0.00229678
0.0132416
0.00233163
0.0133794
0.00220212
0.0135186
0.00197763
0.0136528
0.00172516
0.0137743
0.00145996
0.00123607
0.0133357
0.000381529
0.0133955
0.00130912
0.0134851
0.00190958
0.0135982
0.0021837
0.0137274
0.0022024
0.0138643
0.00206522
0.0139996
0.00184238
0.0141277
0.0015971
0.0142421
0.00134551
0.00113364
0.0138183
0.000357642
0.0138825
0.00124484
0.0139779
0.00181423
0.0140956
0.002066
0.0142266
0.00207138
0.0143621
0.0019297
0.0144934
0.00171116
0.0146155
0.00147496
0.0147234
0.00123759
0.00103816
0.014318
0.000333156
0.0143862
0.00117667
0.0144863
0.00171405
0.0146078
0.00194456
0.0147399
0.00193926
0.0148736
0.00179598
0.0150008
0.00158398
0.0151173
0.00135843
0.0152192
0.00113569
0.000948972
0.0148356
0.000308311
0.014907
0.00110527
0.0150112
0.00160985
0.0151355
0.00182023
0.0152681
0.00180666
0.0153998
0.00166434
0.0155229
0.0014608
0.0156342
0.00124715
0.0157306
0.00103932
0.000865448
0.0153716
0.000283334
0.0154457
0.00103124
0.0155531
0.0015024
0.0156796
0.00169377
0.0158122
0.00167409
0.0159415
0.00153497
0.0160608
0.0013415
0.0161672
0.00114075
0.0162586
0.00094797
0.000786989
0.0159269
0.000258437
0.0160029
0.000955197
0.0161129
0.00139242
0.0162408
0.00156583
0.016373
0.00154197
0.0165
0.00140799
0.0166156
0.00122589
0.0167175
0.00103882
0.0168043
0.00086115
0.00071303
0.016502
0.000233808
0.0165795
0.000877687
0.0166914
0.00128055
0.0168202
0.001437
0.0169516
0.0014106
0.0170762
0.0012834
0.0171883
0.00111375
0.0172862
0.000940951
0.017369
0.000778376
0.000643034
0.0170978
0.000209609
0.0171763
0.000799199
0.0172895
0.00116737
0.0174188
0.00130773
0.0175492
0.00128021
0.0176714
0.00116115
0.0177804
0.00100482
0.0178746
0.000846725
0.0179538
0.000699173
0.000576492
0.0177151
0.000185971
0.0177941
0.000720151
0.0179082
0.00105333
0.0180376
0.00117835
0.0181669
0.00115091
0.0182869
0.00104112
0.0183929
0.000898781
0.0184839
0.000755708
0.01856
0.000623079
0.000512921
0.0183546
0.00016299
0.0184339
0.000640871
0.0185484
0.000938789
0.0186777
0.00104911
0.0188059
0.00102272
0.0189239
0.000923103
0.0190274
0.000795284
0.0191156
0.000667458
0.0191891
0.000549634
0.000451859
0.0190172
0.000140724
0.0190965
0.000561587
0.0192113
0.000823975
0.0193404
0.000920086
0.0194675
0.000895548
0.0195838
0.000806826
0.0196852
0.00069394
0.0197711
0.000581519
0.0198423
0.000478384
0.00039286
0.0197038
0.000119188
0.019783
0.000482421
0.019898
0.000708981
0.0200268
0.000791247
0.0201532
0.000769181
0.0202681
0.000691939
0.0203677
0.000594312
0.0204518
0.000497419
0.0205213
0.000408874
0.000335487
0.0204154
9.83511e-05
0.0204944
0.000403374
0.0206096
0.000593752
0.0207385
0.000662406
0.0208644
0.000643301
0.0209783
0.000578007
0.0210767
0.000495913
0.0211594
0.000414658
0.0212277
0.000340635
0.00027931
0.0211527
7.81329e-05
0.0212318
0.000324317
0.0213475
0.000478073
0.0214766
0.000533224
0.0216025
0.000517455
0.021716
0.000464503
0.0218137
0.000398194
0.0218957
0.0003327
0.0219631
0.000273183
0.000223887
0.0219169
5.84e-05
0.0219963
0.00024498
0.0221128
0.000361553
0.0222428
0.000403191
0.0223692
0.000391048
0.0224829
0.00035079
0.0225806
0.000300526
0.0226623
0.000250958
0.0227295
0.000205999
0.000168772
0.022709
3.89598e-05
0.022789
0.000164942
0.022907
0.000243613
0.0230385
0.000271611
0.0231663
0.000263325
0.0232809
0.000236105
0.0233793
0.000202189
0.0234615
0.00016878
0.0235289
0.000138515
0.000113452
0.02353
1.95493e-05
0.0236113
8.36239e-05
0.0237315
0.000123462
0.0238655
0.000137582
0.0239955
0.000133348
0.024112
0.000119532
0.0242119
0.000102337
0.0242952
8.54133e-05
0.0243637
7.00976e-05
5.74329e-05
0.0243809
0.0244645
0.0245879
0.0247255
0.0248589
0.0249784
0.0250807
0.0251662
0.0252363
)
;

boundaryField
{
    inlet
    {
        type            calculated;
        value           nonuniform List<scalar> 
28
(
-0.00933018
-0.00966779
-0.0100176
-0.0103801
-0.0107557
-0.0111449
-0.0115482
-0.0119661
-0.0123991
-0.0128477
-0.0133126
-0.0137944
-0.0142935
-0.0148107
-0.0153467
-0.015902
-0.0164774
-0.0170736
-0.0176915
-0.0183316
-0.018995
-0.0196823
-0.0203945
-0.0211325
-0.0218972
-0.0226895
-0.0235106
-0.0243613
)
;
    }
    outlet
    {
        type            calculated;
        value           nonuniform 0();
    }
    cylinder
    {
        type            calculated;
        value           nonuniform 0();
    }
    top
    {
        type            symmetryPlane;
        value           uniform 0;
    }
    bottom
    {
        type            symmetryPlane;
        value           nonuniform 0();
    }
    defaultFaces
    {
        type            empty;
        value           nonuniform 0();
    }
    procBoundary30to24
    {
        type            processor;
        value           nonuniform List<scalar> 
17
(
0.00155991
0.001984
0.00188939
0.00178303
-0.00950907
0.00167455
-0.00159702
-0.00240149
-0.00296657
-0.00335168
-0.00355711
-0.00360731
-0.00352107
-0.00326528
-0.0030408
-0.00900544
-0.000541008
)
;
    }
    procBoundary30to31
    {
        type            processor;
        value           nonuniform List<scalar> 
30
(
0.00951227
0.009841
0.0101768
0.0105203
0.0108724
0.0112335
0.0116045
0.0119858
0.0123781
0.0127822
0.0131987
0.0136284
0.0140721
0.0145305
0.0150047
0.0154954
0.0160036
0.0165304
0.0170767
0.0176437
0.0182326
0.0188446
0.0194811
0.0201435
0.0208333
0.0215522
0.0223021
0.0230849
0.023903
0.0247591
)
;
    }
}


// ************************************************************************* //
