/*--------------------------------*- C++ -*----------------------------------*\
  =========                 |
  \\      /  F ield         | OpenFOAM: The Open Source CFD Toolbox
   \\    /   O peration     | Website:  https://openfoam.org
    \\  /    A nd           | Version:  7
     \\/     M anipulation  |
\*---------------------------------------------------------------------------*/
FoamFile
{
    version     2.0;
    format      ascii;
    class       volVectorField;
    location    "9";
    object      U;
}
// * * * * * * * * * * * * * * * * * * * * * * * * * * * * * * * * * * * * * //

dimensions      [0 1 -1 0 0 0 0];

internalField   nonuniform List<vector> 
344
(
(2.92087 -0.280241 -1.76924e-15)
(2.9501 -0.227098 -1.83512e-15)
(2.96574 -0.178736 -1.81523e-15)
(2.97034 -0.135638 -1.79577e-15)
(2.83453 -0.285749 -2.64649e-15)
(2.8362 -0.221002 -2.66596e-15)
(2.82599 -0.164452 -2.60643e-15)
(2.80703 -0.115414 -2.57894e-15)
(2.62557 -0.259175 -3.04812e-15)
(2.58433 -0.185026 -2.85084e-15)
(2.54009 -0.124194 -2.83177e-15)
(2.49451 -0.0727177 -2.70397e-15)
(2.1801 -0.177897 -2.69469e-15)
(2.09803 -0.108793 -2.49688e-15)
(2.03113 -0.0569044 -2.40452e-15)
(1.97367 -0.0110951 -2.20935e-15)
(1.41308 -0.0495451 -1.88312e-15)
(1.33806 -0.0156107 -1.58444e-15)
(1.29196 0.00839727 -1.61678e-15)
(1.25605 0.0422515 -1.50137e-15)
(2.26708 0.0415619 -1.50535e-16)
(2.25834 0.0410716 -1.44489e-16)
(2.24976 0.0405884 -1.33905e-16)
(2.24133 0.0401122 -1.27835e-16)
(2.96601 -0.0980837 -1.719e-15)
(2.95474 -0.0666968 -1.8354e-15)
(2.93876 -0.0413306 -1.68359e-15)
(2.92032 -0.0209612 -1.73234e-15)
(2.90076 -0.00446769 -1.71996e-15)
(2.88056 0.00901112 -1.78514e-15)
(2.85999 0.0200477 -1.59598e-15)
(2.8393 0.0291669 -1.66347e-15)
(2.81866 0.0367528 -1.56348e-15)
(2.79813 0.0430848 -1.61294e-15)
(2.77777 0.0483749 -1.4371e-15)
(2.7576 0.0527915 -1.46036e-15)
(2.73766 0.0564702 -1.44983e-15)
(2.71797 0.0595212 -1.48249e-15)
(2.69854 0.0620351 -1.32844e-15)
(2.67938 0.0640871 -1.39748e-15)
(2.66051 0.0657408 -1.27837e-15)
(2.64193 0.0670504 -1.30989e-15)
(2.62364 0.0680621 -1.1904e-15)
(2.60564 0.0688159 -1.20201e-15)
(2.58794 0.0693463 -1.21985e-15)
(2.57054 0.0696831 -1.19367e-15)
(2.55344 0.0698525 -1.21769e-15)
(2.53663 0.0698769 -1.08441e-15)
(2.52011 0.0697761 -1.12103e-15)
(2.50389 0.0695674 -1.05718e-15)
(2.48796 0.0692656 -1.07454e-15)
(2.47232 0.0688841 -9.90452e-16)
(2.45696 0.0684343 -1.0069e-15)
(2.44188 0.0679263 -9.89481e-16)
(2.42708 0.0673689 -9.9589e-16)
(2.41256 0.0667699 -9.16145e-16)
(2.3983 0.066136 -9.30027e-16)
(2.38431 0.0654732 -8.86487e-16)
(2.37059 0.0647868 -8.91393e-16)
(2.35713 0.0640812 -8.31342e-16)
(2.34392 0.0633604 -8.28662e-16)
(2.33096 0.0626281 -8.09272e-16)
(2.31826 0.0618872 -8.03925e-16)
(2.30579 0.0611404 -7.52338e-16)
(2.29357 0.0603901 -7.46415e-16)
(2.28158 0.0596382 -7.12117e-16)
(2.26983 0.0588866 -6.99577e-16)
(2.2583 0.0581367 -6.63164e-16)
(2.247 0.0573899 -6.44684e-16)
(2.23592 0.0566474 -6.28777e-16)
(2.22506 0.0559101 -6.10447e-16)
(2.21441 0.0551788 -5.92529e-16)
(2.20397 0.0544543 -5.70338e-16)
(2.19374 0.0537372 -5.51226e-16)
(2.18371 0.0530279 -5.3482e-16)
(2.17387 0.0523269 -5.14033e-16)
(2.16423 0.0516345 -5.0258e-16)
(2.15478 0.050951 -4.79321e-16)
(2.14552 0.0502766 -4.63176e-16)
(2.13645 0.0496114 -4.38655e-16)
(2.12755 0.0489557 -4.37297e-16)
(2.11883 0.0483094 -4.07346e-16)
(2.11028 0.0476727 -4.02147e-16)
(2.10191 0.0470454 -3.73579e-16)
(2.0937 0.0464277 -3.78858e-16)
(2.08565 0.0458195 -3.50277e-16)
(2.07777 0.0452207 -3.3599e-16)
(2.07004 0.0446313 -3.04872e-16)
(2.06246 0.0440512 -3.1008e-16)
(2.78158 -0.0732031 -2.3796e-15)
(2.75104 -0.0396253 -2.41003e-15)
(2.71845 -0.014207 -2.3061e-15)
(2.6867 0.00516884 -2.34166e-15)
(2.65673 0.0203299 -2.15623e-15)
(2.62853 0.0323385 -2.19107e-15)
(2.60193 0.0419518 -2.08958e-15)
(2.5768 0.04972 -2.15627e-15)
(2.553 0.0560487 -1.96702e-15)
(2.53036 0.0612293 -2.01291e-15)
(2.50871 0.0654754 -1.89425e-15)
(2.48794 0.0689496 -1.94235e-15)
(2.46793 0.0717789 -1.79674e-15)
(2.44859 0.0740634 -1.82985e-15)
(2.42984 0.0758839 -1.75841e-15)
(2.41163 0.0773071 -1.82131e-15)
(2.39391 0.0783886 -1.66148e-15)
(2.37663 0.0791755 -1.69173e-15)
(2.35977 0.0797079 -1.62247e-15)
(2.34329 0.0800204 -1.61421e-15)
(2.32718 0.0801428 -1.64209e-15)
(2.31142 0.0801009 -1.51853e-15)
(2.29598 0.079917 -1.55147e-15)
(2.28087 0.0796108 -1.4744e-15)
(2.26606 0.0791992 -1.49234e-15)
(2.25155 0.0786972 -1.39572e-15)
(2.23734 0.0781178 -1.40977e-15)
(2.2234 0.0774724 -1.36463e-15)
(2.20974 0.0767711 -1.37444e-15)
(2.19636 0.0760227 -1.28783e-15)
(2.18324 0.0752349 -1.30035e-15)
(2.17038 0.0744145 -1.25497e-15)
(2.15777 0.0735674 -1.26271e-15)
(2.14542 0.0726989 -1.18557e-15)
(2.13332 0.0718135 -1.18311e-15)
(2.12146 0.0709153 -1.13876e-15)
(2.10985 0.0700078 -1.13341e-15)
(2.09847 0.0690942 -1.07135e-15)
(2.08732 0.068177 -1.06553e-15)
(2.07641 0.0672587 -1.02922e-15)
(2.06572 0.0663414 -1.01726e-15)
(2.05525 0.0654268 -9.69195e-16)
(2.045 0.0645165 -9.51019e-16)
(2.03496 0.0636118 -9.21922e-16)
(2.02514 0.0627139 -8.97476e-16)
(2.01553 0.0618238 -8.76062e-16)
(2.00612 0.0609424 -8.44364e-16)
(1.99691 0.0600702 -8.22828e-16)
(1.98789 0.0592081 -7.99583e-16)
(1.97908 0.0583564 -7.74762e-16)
(1.97045 0.0575155 -7.53979e-16)
(1.96201 0.0566859 -7.27764e-16)
(1.95375 0.0558678 -7.08715e-16)
(1.94568 0.0550613 -6.7842e-16)
(1.93778 0.0542667 -6.66985e-16)
(1.93005 0.053484 -6.37267e-16)
(1.92249 0.0527134 -6.20901e-16)
(1.9151 0.0519548 -5.88555e-16)
(1.90787 0.0512082 -5.86256e-16)
(1.90081 0.0504736 -5.52217e-16)
(1.8939 0.049751 -5.43893e-16)
(1.88714 0.0490403 -5.08423e-16)
(1.88053 0.0483413 -5.12239e-16)
(1.87407 0.0476541 -4.71937e-16)
(1.86776 0.0469784 -4.82174e-16)
(2.44813 -0.0280662 -2.57086e-15)
(2.39966 0.00372627 -2.46469e-15)
(2.35424 0.0250136 -2.45255e-15)
(2.31544 0.0399327 -2.39147e-15)
(2.28269 0.0509072 -2.31537e-15)
(2.25446 0.0591329 -2.23998e-15)
(2.22973 0.0654298 -2.26006e-15)
(2.2078 0.0703805 -2.23767e-15)
(2.18808 0.0743555 -2.1618e-15)
(2.17003 0.0775836 -2.1051e-15)
(2.15326 0.0802143 -2.09746e-15)
(2.13749 0.0823509 -2.07828e-15)
(2.12248 0.0840683 -2.03042e-15)
(2.10809 0.085423 -1.97588e-15)
(2.0942 0.0864604 -1.98727e-15)
(2.08071 0.0872185 -1.95074e-15)
(2.06757 0.0877301 -1.89763e-15)
(2.05472 0.088024 -1.85115e-15)
(2.04214 0.0881258 -1.86256e-15)
(2.02979 0.0880585 -1.81982e-15)
(2.01766 0.0878424 -1.78886e-15)
(2.00574 0.0874959 -1.74182e-15)
(1.99402 0.0870355 -1.71177e-15)
(1.98249 0.0864757 -1.70509e-15)
(1.97115 0.0858297 -1.68019e-15)
(1.95999 0.0851092 -1.62726e-15)
(1.94903 0.0843247 -1.59879e-15)
(1.93825 0.0834855 -1.59152e-15)
(1.92765 0.0826 -1.56441e-15)
(1.91724 0.0816756 -1.51953e-15)
(1.90701 0.0807187 -1.49244e-15)
(1.89697 0.0797354 -1.47894e-15)
(1.88711 0.0787308 -1.45061e-15)
(1.87744 0.0777095 -1.4015e-15)
(1.86795 0.0766756 -1.36644e-15)
(1.85865 0.0756327 -1.34528e-15)
(1.84953 0.074584 -1.31031e-15)
(1.8406 0.0735324 -1.27264e-15)
(1.83185 0.0724804 -1.2391e-15)
(1.82328 0.0714301 -1.21686e-15)
(1.81489 0.0703834 -1.18902e-15)
(1.80668 0.069342 -1.15073e-15)
(1.79864 0.0683075 -1.11925e-15)
(1.79079 0.067281 -1.09669e-15)
(1.78311 0.0662636 -1.06654e-15)
(1.7756 0.0652564 -1.038e-15)
(1.76825 0.0642601 -1.00979e-15)
(1.76108 0.0632754 -9.83132e-16)
(1.75407 0.0623029 -9.56672e-16)
(1.74723 0.061343 -9.29473e-16)
(1.74054 0.0603963 -9.03425e-16)
(1.73402 0.0594629 -8.79012e-16)
(1.72765 0.0585431 -8.49201e-16)
(1.72143 0.0576372 -8.25563e-16)
(1.71536 0.0567452 -8.02142e-16)
(1.70944 0.0558674 -7.79447e-16)
(1.70366 0.0550036 -7.50004e-16)
(1.69803 0.0541539 -7.26418e-16)
(1.69253 0.0533184 -7.08669e-16)
(1.68717 0.0524969 -6.88576e-16)
(1.68195 0.0516894 -6.57169e-16)
(1.67685 0.0508958 -6.3616e-16)
(1.67188 0.050116 -6.21618e-16)
(1.66704 0.0493498 -5.96538e-16)
(1.66232 0.0485972 -5.87398e-16)
(1.92247 0.0320907 -2.11313e-15)
(1.87007 0.0546337 -2.15051e-15)
(1.82956 0.0656423 -2.10051e-15)
(1.80257 0.0716981 -2.14665e-15)
(1.78432 0.0752873 -2.15714e-15)
(1.77125 0.0776584 -2.1626e-15)
(1.76149 0.0795552 -2.08287e-15)
(1.75385 0.0812991 -2.14295e-15)
(1.74746 0.0829651 -2.0439e-15)
(1.74174 0.0845391 -2.07671e-15)
(1.7363 0.0859873 -2.02415e-15)
(1.73095 0.0872781 -2.04971e-15)
(1.72554 0.0883882 -2.05355e-15)
(1.72001 0.0893044 -2.04312e-15)
(1.71432 0.0900228 -1.97412e-15)
(1.70846 0.0905466 -1.97806e-15)
(1.70245 0.090884 -1.92738e-15)
(1.69628 0.091046 -1.93208e-15)
(1.68997 0.0910458 -1.88486e-15)
(1.68355 0.090897 -1.88016e-15)
(1.67704 0.0906134 -1.87413e-15)
(1.67045 0.0902086 -1.84545e-15)
(1.6638 0.0896955 -1.8247e-15)
(1.65712 0.0890863 -1.76867e-15)
(1.65042 0.0883923 -1.77516e-15)
(1.64372 0.0876239 -1.71241e-15)
(1.63703 0.0867907 -1.70865e-15)
(1.63037 0.0859015 -1.66294e-15)
(1.62375 0.0849641 -1.6504e-15)
(1.61718 0.0839859 -1.62968e-15)
(1.61067 0.0829733 -1.60309e-15)
(1.60424 0.0819322 -1.55581e-15)
(1.59788 0.0808678 -1.54379e-15)
(1.5916 0.0797849 -1.49242e-15)
(1.58542 0.0786877 -1.46817e-15)
(1.57934 0.07758 -1.42514e-15)
(1.57336 0.0764653 -1.40452e-15)
(1.56749 0.0753464 -1.37446e-15)
(1.56172 0.0742262 -1.34219e-15)
(1.55607 0.073107 -1.30462e-15)
(1.55054 0.0719908 -1.28125e-15)
(1.54512 0.0708796 -1.24115e-15)
(1.53981 0.069775 -1.21525e-15)
(1.53463 0.0686785 -1.18351e-15)
(1.52957 0.0675912 -1.15645e-15)
(1.52462 0.0665142 -1.12853e-15)
(1.5198 0.0654486 -1.10054e-15)
(1.51509 0.0643951 -1.07122e-15)
(1.5105 0.0633544 -1.04202e-15)
(1.50603 0.0623272 -1.01327e-15)
(1.50168 0.0613138 -9.86669e-16)
(1.49744 0.0603147 -9.58376e-16)
(1.49331 0.0593302 -9.32031e-16)
(1.4893 0.0583606 -9.03938e-16)
(1.4854 0.0574061 -8.77808e-16)
(1.48161 0.0564669 -8.50897e-16)
(1.47793 0.0555429 -8.29825e-16)
(1.47435 0.0546344 -7.98926e-16)
(1.47087 0.0537412 -7.84231e-16)
(1.4675 0.0528634 -7.54673e-16)
(1.46422 0.0520009 -7.34914e-16)
(1.46105 0.0511536 -7.0469e-16)
(1.45797 0.0503215 -6.7983e-16)
(1.45498 0.0495044 -6.54031e-16)
(1.45209 0.0487022 -6.48525e-16)
(1.23682 0.0851237 -1.47959e-15)
(1.21001 0.0858609 -1.49947e-15)
(1.207 0.0811094 -1.63587e-15)
(1.21789 0.0764655 -1.64433e-15)
(1.23298 0.0732314 -1.65783e-15)
(1.24848 0.0717893 -1.68053e-15)
(1.26306 0.0718985 -1.77709e-15)
(1.27613 0.073041 -1.77173e-15)
(1.28747 0.0747524 -1.75448e-15)
(1.29709 0.0767061 -1.74028e-15)
(1.30508 0.0786902 -1.826e-15)
(1.31162 0.0805721 -1.80572e-15)
(1.31687 0.0822739 -1.78834e-15)
(1.32098 0.0837545 -1.77423e-15)
(1.3241 0.0849972 -1.83645e-15)
(1.32636 0.0860002 -1.79901e-15)
(1.32786 0.0867714 -1.79371e-15)
(1.32871 0.0873235 -1.76449e-15)
(1.329 0.0876723 -1.80534e-15)
(1.32879 0.0878348 -1.76405e-15)
(1.32817 0.087828 -1.72844e-15)
(1.32718 0.0876686 -1.706e-15)
(1.32588 0.0873725 -1.68913e-15)
(1.32432 0.0869546 -1.70991e-15)
(1.32253 0.0864285 -1.68637e-15)
(1.32056 0.0858071 -1.65383e-15)
(1.31843 0.085102 -1.62414e-15)
(1.31617 0.0843238 -1.62793e-15)
(1.31381 0.0834821 -1.59291e-15)
(1.31136 0.0825857 -1.56382e-15)
(1.30886 0.0816424 -1.53766e-15)
(1.30631 0.0806595 -1.53538e-15)
(1.30374 0.0796433 -1.50214e-15)
(1.30115 0.0785995 -1.46274e-15)
(1.29855 0.0775335 -1.43226e-15)
(1.29597 0.0764499 -1.42254e-15)
(1.2934 0.0753527 -1.38725e-15)
(1.29086 0.0742459 -1.35507e-15)
(1.28835 0.0731326 -1.321e-15)
(1.28588 0.0720159 -1.30637e-15)
(1.28345 0.0708984 -1.27425e-15)
(1.28107 0.0697825 -1.2439e-15)
(1.27874 0.0686703 -1.21401e-15)
(1.27647 0.0675635 -1.1935e-15)
(1.27426 0.0664638 -1.16459e-15)
(1.2721 0.0653727 -1.13684e-15)
(1.27001 0.0642913 -1.11001e-15)
(1.26798 0.0632207 -1.08354e-15)
(1.26601 0.0621619 -1.05815e-15)
(1.26411 0.0611157 -1.03177e-15)
(1.26228 0.0600828 -1.00681e-15)
(1.26051 0.0590637 -9.82044e-16)
(1.2588 0.058059 -9.53203e-16)
(1.25717 0.057069 -9.30102e-16)
(1.25559 0.0560941 -9.07718e-16)
(1.25408 0.0551345 -8.84474e-16)
(1.25263 0.0541904 -8.53849e-16)
(1.25125 0.0532619 -8.33757e-16)
(1.24992 0.0523492 -8.14847e-16)
(1.24866 0.0514523 -7.94224e-16)
)
;

boundaryField
{
    inlet
    {
        type            uniformFixedValue;
        uniformValue    constant (1 0 0);
        value           nonuniform 0();
    }
    outlet
    {
        type            pressureInletOutletVelocity;
        value           nonuniform 0();
    }
    wall
    {
        type            fixedValue;
        value           nonuniform 0();
    }
    wedge1
    {
        type            wedge;
    }
    wedge2
    {
        type            wedge;
    }
    axis
    {
        type            empty;
    }
    procBoundary15to9
    {
        type            processor;
        value           nonuniform List<vector> 
70
(
(2.95799 -0.259656 -6.20682e-16)
(3.0009 -0.216445 -6.39207e-16)
(3.03135 -0.17611 -7.46785e-16)
(3.0511 -0.139414 -7.79256e-16)
(2.4276 0.0366427 7.45987e-17)
(2.41844 0.0362583 8.04619e-17)
(2.40942 0.035879 9.8418e-17)
(2.40055 0.0355049 8.43498e-17)
(3.06171 -0.106985 -7.61237e-16)
(3.06494 -0.0791225 -7.87226e-16)
(3.06254 -0.0557333 -8.50656e-16)
(3.0562 -0.036375 -8.11473e-16)
(3.04714 -0.0203215 -7.80079e-16)
(3.03613 -0.00693393 -8.00413e-16)
(3.02356 0.00422453 -8.25299e-16)
(3.00975 0.0135355 -8.23918e-16)
(2.99501 0.0213651 -7.65137e-16)
(2.97956 0.0279778 -7.56434e-16)
(2.96355 0.0335719 -7.73044e-16)
(2.9471 0.038305 -7.43473e-16)
(2.93031 0.0423062 -7.18151e-16)
(2.91327 0.045682 -6.78455e-16)
(2.89607 0.0485206 -7.30097e-16)
(2.87876 0.0508952 -7.23037e-16)
(2.86141 0.0528678 -6.71406e-16)
(2.84407 0.0544914 -6.28845e-16)
(2.82676 0.0558113 -6.49088e-16)
(2.80954 0.0568668 -6.05954e-16)
(2.79242 0.0576917 -5.9157e-16)
(2.77543 0.0583159 -5.82948e-16)
(2.7586 0.058765 -5.67793e-16)
(2.74194 0.0590616 -5.75944e-16)
(2.72546 0.0592256 -5.73286e-16)
(2.70917 0.0592742 -5.46744e-16)
(2.6931 0.0592228 -5.28695e-16)
(2.67723 0.0590846 -5.33979e-16)
(2.66159 0.0588714 -5.08362e-16)
(2.64617 0.0585935 -5.0193e-16)
(2.63097 0.05826 -4.9375e-16)
(2.61601 0.057879 -4.98106e-16)
(2.60127 0.0574574 -4.84912e-16)
(2.58677 0.0570014 -4.66991e-16)
(2.5725 0.0565165 -4.55557e-16)
(2.55846 0.0560075 -4.55018e-16)
(2.54465 0.0554785 -4.40821e-16)
(2.53106 0.0549333 -4.19215e-16)
(2.51771 0.0543751 -4.10706e-16)
(2.50458 0.0538067 -4.06508e-16)
(2.49167 0.0532306 -3.89134e-16)
(2.47899 0.0526491 -3.69115e-16)
(2.46652 0.0520639 -3.54785e-16)
(2.45426 0.0514768 -3.45405e-16)
(2.44222 0.0508893 -3.25935e-16)
(2.43039 0.0503024 -3.13698e-16)
(2.41877 0.0497175 -3.00911e-16)
(2.40734 0.0491353 -2.91156e-16)
(2.39612 0.0485567 -2.81302e-16)
(2.3851 0.0479823 -2.70708e-16)
(2.37427 0.0474128 -2.60231e-16)
(2.36363 0.0468487 -2.51575e-16)
(2.35318 0.0462902 -2.39131e-16)
(2.34292 0.0457379 -2.29848e-16)
(2.33283 0.0451919 -2.21115e-16)
(2.32293 0.0446526 -2.10302e-16)
(2.3132 0.04412 -1.95645e-16)
(2.30364 0.0435942 -1.85573e-16)
(2.29425 0.0430755 -1.81887e-16)
(2.28503 0.0425639 -1.72174e-16)
(2.27598 0.0420593 -1.55505e-16)
(2.27598 0.0420593 -1.55505e-16)
)
;
    }
    procBoundary15to10
    {
        type            processor;
        value           nonuniform List<vector> 2((2.23305 0.039643 -1.15023e-16) (2.05504 0.0434803 -2.8183e-16));
    }
    procBoundary15to14
    {
        type            processor;
        value           nonuniform List<vector> 4((2.87451 -0.337318 -1.72057e-15) (2.81584 -0.358754 -2.65044e-15) (2.65797 -0.349513 -3.05359e-15) (2.27534 -0.27357 -2.79924e-15));
    }
    procBoundary15to16
    {
        type            processor;
        value           nonuniform List<vector> 3((1.86158 0.0463141 -4.41804e-16) (1.65772 0.0478579 -5.64051e-16) (1.44928 0.0479147 -6.18243e-16));
    }
    procBoundary15to20
    {
        type            processor;
        value           uniform (1.5262 -0.112745 -1.92937e-15);
    }
    procBoundary15to21
    {
        type            processor;
        value           nonuniform List<vector> 
70
(
(0.439379 0.00881808 -6.55613e-16)
(0.43081 0.0115266 -4.78579e-16)
(0.435627 0.0167198 -5.79348e-16)
(0.43752 0.0367399 -5.35244e-16)
(1.24746 0.0505712 -7.61789e-16)
(1.24631 0.0497058 -7.43076e-16)
(1.24522 0.0488561 -7.22853e-16)
(1.24419 0.0480221 -7.0355e-16)
(1.24321 0.0472036 -6.87046e-16)
(0.527005 0.104613 -7.41175e-16)
(0.565565 0.0565888 -9.04685e-16)
(0.631021 0.0404818 -1.12737e-15)
(0.689015 0.0339987 -1.15529e-15)
(0.738098 0.0337032 -1.21723e-15)
(0.779338 0.0366223 -1.26257e-15)
(0.81396 0.0411008 -1.39253e-15)
(0.843061 0.0461313 -1.39799e-15)
(0.867616 0.0511662 -1.41243e-15)
(0.88844 0.05592 -1.40701e-15)
(0.90619 0.0602532 -1.51212e-15)
(0.921393 0.0641084 -1.50769e-15)
(0.934471 0.0674749 -1.51992e-15)
(0.945764 0.0703682 -1.51001e-15)
(0.955549 0.072817 -1.58606e-15)
(0.96405 0.0748564 -1.56419e-15)
(0.971455 0.0765232 -1.5762e-15)
(0.977918 0.0778536 -1.55028e-15)
(0.983568 0.0788819 -1.60244e-15)
(0.988516 0.0796404 -1.5663e-15)
(0.992855 0.0801582 -1.54677e-15)
(0.996664 0.0804621 -1.53575e-15)
(1.00001 0.0805764 -1.52059e-15)
(1.00296 0.080523 -1.56088e-15)
(1.00556 0.0803214 -1.52516e-15)
(1.00786 0.0799894 -1.50837e-15)
(1.00989 0.0795428 -1.48176e-15)
(1.01169 0.0789959 -1.50306e-15)
(1.0133 0.0783616 -1.46711e-15)
(1.01473 0.0776512 -1.44722e-15)
(1.01601 0.076875 -1.41903e-15)
(1.01717 0.0760424 -1.42704e-15)
(1.01822 0.0751616 -1.39398e-15)
(1.01918 0.07424 -1.36556e-15)
(1.02006 0.0732842 -1.3361e-15)
(1.02088 0.0723001 -1.33054e-15)
(1.02164 0.0712932 -1.29973e-15)
(1.02236 0.0702681 -1.27095e-15)
(1.02304 0.0692292 -1.2448e-15)
(1.0237 0.0681801 -1.23549e-15)
(1.02434 0.0671242 -1.20841e-15)
(1.02496 0.0660646 -1.18388e-15)
(1.02557 0.0650039 -1.15863e-15)
(1.02618 0.0639445 -1.14142e-15)
(1.02679 0.0628885 -1.11501e-15)
(1.0274 0.0618377 -1.09115e-15)
(1.02802 0.0607938 -1.06719e-15)
(1.02864 0.0597581 -1.04404e-15)
(1.02928 0.0587319 -1.02235e-15)
(1.02992 0.0577163 -9.9986e-16)
(1.03058 0.0567122 -9.77474e-16)
(1.03125 0.0557204 -9.55999e-16)
(1.03194 0.0547416 -9.30531e-16)
(1.03264 0.0537764 -9.10113e-16)
(1.03336 0.0528253 -8.90167e-16)
(1.0341 0.0518886 -8.70302e-16)
(1.03486 0.0509666 -8.42409e-16)
(1.03563 0.0500597 -8.24205e-16)
(1.03641 0.049168 -8.06468e-16)
(1.24746 0.0505712 -7.61789e-16)
(1.03722 0.0482917 -7.87824e-16)
)
;
    }
}


// ************************************************************************* //
