/*--------------------------------*- C++ -*----------------------------------*\
  =========                 |
  \\      /  F ield         | OpenFOAM: The Open Source CFD Toolbox
   \\    /   O peration     | Website:  https://openfoam.org
    \\  /    A nd           | Version:  7
     \\/     M anipulation  |
\*---------------------------------------------------------------------------*/
FoamFile
{
    version     2.0;
    format      ascii;
    class       volVectorField;
    location    "4";
    object      U;
}
// * * * * * * * * * * * * * * * * * * * * * * * * * * * * * * * * * * * * * //

dimensions      [0 1 -1 0 0 0 0];

internalField   nonuniform List<vector> 
16528
(
(1.00014 -0.000244853 1.00586e-15)
(1.00145 -0.000722192 8.33205e-17)
(1.00426 -0.00119827 1.33156e-15)
(1.00852 -0.00165953 2.4821e-15)
(1.0141 -0.00209531 2.79713e-15)
(1.02092 -0.00250064 2.30408e-15)
(1.02889 -0.00287138 2.59524e-16)
(1.03791 -0.00320403 1.4389e-15)
(1.04785 -0.00349646 -4.83631e-16)
(1.0586 -0.00374796 -8.01101e-17)
(1.07003 -0.00395903 -9.69197e-16)
(1.08202 -0.00413113 -9.83676e-16)
(1.09447 -0.00426645 -2.0545e-15)
(1.10727 -0.00436774 -3.26923e-15)
(1.12031 -0.00443812 -3.08296e-15)
(1.13352 -0.00448088 -3.46707e-15)
(1.14681 -0.00449934 -4.61565e-15)
(1.16013 -0.0044968 -4.26058e-15)
(1.17341 -0.00447635 -3.75393e-15)
(1.1866 -0.00444093 -4.88776e-15)
(1.19967 -0.00439319 -4.31463e-15)
(1.21258 -0.00433554 -4.91531e-15)
(1.2253 -0.00427011 -5.77049e-15)
(1.23783 -0.00419876 -1.08575e-14)
(1.25013 -0.00412312 -7.84256e-15)
(1.2622 -0.00404455 -6.29319e-15)
(1.27404 -0.00396422 -6.04841e-15)
(1.28564 -0.00388309 -6.21127e-15)
(1.297 -0.00380194 -5.12128e-15)
(1.30811 -0.00372142 -4.63047e-15)
(1.31899 -0.00364203 -5.10194e-15)
(1.32964 -0.00356415 -5.01458e-15)
(1.34006 -0.00348807 -5.57423e-15)
(1.35026 -0.00341402 -5.79674e-15)
(1.36024 -0.00334211 -4.47424e-15)
(1.37001 -0.00327246 -4.76618e-15)
(1.37958 -0.00320508 -4.99909e-15)
(1.38895 -0.00313998 -5.72602e-15)
(1.39813 -0.00307714 -6.27507e-15)
(1.40713 -0.00301651 -6.92961e-15)
(1.41596 -0.00295803 -5.08072e-15)
(1.42461 -0.0029016 -5.08578e-15)
(1.4331 -0.00284716 -5.71181e-15)
(1.44143 -0.00279461 -5.68749e-15)
(1.44961 -0.00274384 -6.06125e-15)
(1.45764 -0.00269478 -6.71643e-15)
(1.46552 -0.00264732 -6.086e-15)
(1.47327 -0.00260138 -6.22371e-15)
(1.48088 -0.00255686 -5.88959e-15)
(1.48837 -0.00251368 -6.89116e-15)
(1.49573 -0.00247176 -6.04172e-15)
(1.50296 -0.00243103 -6.53134e-15)
(1.51008 -0.00239141 -6.49846e-15)
(1.51708 -0.00235284 -6.61025e-15)
(1.52397 -0.00231525 -6.43299e-15)
(1.53075 -0.00227859 -5.96107e-15)
(1.53742 -0.0022428 -5.53995e-15)
(1.54398 -0.00220783 -5.69009e-15)
(1.55044 -0.00217365 -5.4575e-15)
(1.55681 -0.0021402 -5.26893e-15)
(1.56307 -0.00210745 -5.67334e-15)
(1.56924 -0.00207537 -6.3113e-15)
(1.57532 -0.00204392 -5.77241e-15)
(1.5813 -0.00201307 -5.21293e-15)
(1.58719 -0.0019828 -6.25417e-15)
(1.59299 -0.00195309 -6.00127e-15)
(1.59871 -0.00192391 -6.25571e-15)
(1.60434 -0.00189524 -6.32761e-15)
(1.60989 -0.00186706 -4.91506e-15)
(1.61535 -0.00183936 -4.52088e-15)
(1.62073 -0.00181213 -4.93156e-15)
(1.62603 -0.00178533 -5.46851e-15)
(1.63126 -0.00175898 -4.65832e-15)
(1.6364 -0.00173305 -4.43497e-15)
(1.64147 -0.00170752 -4.59829e-15)
(1.64647 -0.0016824 -5.11741e-15)
(1.65139 -0.00165767 -3.84032e-15)
(1.65624 -0.00163333 -4.14305e-15)
(1.66102 -0.00160936 -4.37818e-15)
(1.66573 -0.00158576 -4.4138e-15)
(1.67036 -0.00156252 -3.88026e-15)
(1.67493 -0.00153963 -3.26267e-15)
(1.67944 -0.00151709 -2.69776e-15)
(1.68387 -0.00149489 -3.51139e-15)
(1.68824 -0.00147302 -4.53179e-15)
(1.69255 -0.00145148 -4.22135e-15)
(1.6968 -0.00143027 -4.32039e-15)
(1.70098 -0.00140938 -3.95083e-15)
(1.7051 -0.0013888 -4.61858e-15)
(1.70916 -0.00136853 -5.02612e-15)
(1.71316 -0.00134857 -4.95442e-15)
(1.7171 -0.00132891 -4.7103e-15)
(1.72099 -0.00130954 -5.80702e-15)
(1.72482 -0.00129046 -3.57255e-15)
(1.72859 -0.00127167 -3.55293e-15)
(1.73231 -0.00125316 -4.20307e-15)
(1.73597 -0.00123494 -4.79098e-15)
(1.73958 -0.00121698 -3.60036e-15)
(1.74314 -0.0011993 -3.83576e-15)
(1.74664 -0.00118188 -4.63677e-15)
(1.7501 -0.00116473 -2.90084e-15)
(1.7535 -0.00114784 -3.62371e-15)
(1.75686 -0.0011312 -2.8231e-15)
(1.76016 -0.00111481 -3.14944e-15)
(1.76342 -0.00109867 -3.07278e-15)
(1.76663 -0.00108278 -2.72965e-15)
(1.7698 -0.00106712 -2.65579e-15)
(1.77291 -0.00105171 -2.99785e-15)
(1.77599 -0.00103653 -2.15402e-15)
(1.77902 -0.00102158 -2.68051e-15)
(1.782 -0.00100685 -1.5255e-15)
(1.78494 -0.000992356 -1.98564e-15)
(1.78784 -0.000978079 -1.95423e-15)
(1.7907 -0.000964019 -8.63558e-16)
(1.79352 -0.000950175 -1.24385e-15)
(1.7963 -0.000936543 -1.5612e-15)
(1.79903 -0.00092312 -1.8806e-15)
(1.80173 -0.000909904 -1.22344e-15)
(1.80439 -0.000896892 -2.68509e-15)
(1.80701 -0.000884081 -1.31992e-15)
(1.80959 -0.00087147 -1.595e-15)
(1.81214 -0.000859055 -9.32352e-16)
(1.81465 -0.000846835 -9.71824e-16)
(1.81712 -0.000834809 -1.00241e-15)
(1.81956 -0.000822974 -1.78147e-15)
(1.82197 -0.00081133 -8.26914e-16)
(1.82434 -0.000799875 -1.49851e-15)
(1.82668 -0.000788609 -5.2466e-16)
(1.82898 -0.000777531 -8.78485e-16)
(1.83125 -0.000766643 -3.81922e-16)
(1.83349 -0.000755944 -1.07259e-15)
(1.8357 -0.000745437 -1.52829e-16)
(1.83788 -0.000735124 -1.29468e-15)
(1.84003 -0.000725008 -4.48886e-16)
(1.84215 -0.000715094 -1.333e-15)
(1.84424 -0.000705386 -1.19154e-15)
(1.8463 -0.000695893 -7.37837e-16)
(1.84833 -0.000686622 -3.29967e-16)
(1.85034 -0.000677585 4.69465e-16)
(1.85232 -0.000668795 -2.52491e-16)
(1.85427 -0.000660268 5.95118e-16)
(1.8562 -0.000652022 -3.61516e-16)
(1.85811 -0.000644081 1.42648e-16)
(1.85999 -0.000636473 2.54144e-17)
(1.86186 -0.00062923 8.04084e-17)
(1.8637 -0.000622392 -3.37866e-16)
(1.86552 -0.000616004 3.44939e-16)
(1.86732 -0.000610122 5.27082e-17)
(1.86911 -0.000604812 3.05056e-16)
(1.87088 -0.00060015 3.21466e-17)
(1.87264 -0.000596227 2.82009e-16)
(1.87439 -0.000593152 -4.36703e-16)
(1.87613 -0.000591051 1.98952e-16)
(1.87787 -0.000590076 9.93276e-17)
(1.87961 -0.000590403 3.6797e-16)
(1.88134 -0.00059224 5.05827e-16)
(1.88309 -0.000595835 5.59033e-16)
(1.88485 -0.000601476 2.24028e-16)
(1.88663 -0.000609504 9.2907e-16)
(1.88844 -0.000620321 -3.05693e-16)
(1.89028 -0.000634397 1.27894e-15)
(1.89217 -0.000652287 -1.80231e-16)
(1.89412 -0.000674642 -4.50959e-16)
(1.89614 -0.000702226 3.05716e-16)
(1.89826 -0.000735933 7.70424e-16)
(1.90048 -0.000776813 1.27637e-15)
(1.90283 -0.000826093 5.79657e-16)
(1.90534 -0.000885208 6.76315e-16)
(1.90804 -0.000955832 -1.96596e-16)
(1.91097 -0.00103991 6.26748e-16)
(1.91417 -0.00113972 2.09539e-16)
(1.91769 -0.00125788 5.06734e-16)
(1.92158 -0.00139743 1.40594e-17)
(1.92592 -0.00156187 9.70071e-16)
(1.93078 -0.00175521 1.754e-16)
(1.93626 -0.00198203 1.80208e-16)
(1.94247 -0.00224753 -1.76025e-16)
(1.94951 -0.00255753 6.59556e-16)
(1.95754 -0.00291856 1.98298e-16)
(1.96672 -0.00333778 7.54796e-16)
(1.97722 -0.00382296 3.71029e-16)
(1.98926 -0.00438238 8.50573e-16)
(2.00306 -0.00502459 3.90548e-16)
(2.01889 -0.00575815 6.47073e-16)
(2.03702 -0.00659114 -5.95101e-16)
(2.05776 -0.00753052 6.17643e-16)
(2.08144 -0.00858133 2.38298e-16)
(2.10838 -0.00974552 2.25555e-16)
(2.13893 -0.0110207 3.59672e-16)
(2.17341 -0.0123985 9.23751e-16)
(2.2121 -0.0138631 1.17891e-15)
(2.25523 -0.0153892 9.33303e-16)
(2.30294 -0.016941 1.20656e-15)
(2.35526 -0.0184713 8.22918e-16)
(2.41203 -0.0199213 8.95574e-16)
(2.47294 -0.0212236 5.60794e-16)
(2.53744 -0.0223043 5.88596e-16)
(2.60478 -0.02309 8.39439e-16)
(2.67399 -0.0235151 9.86794e-16)
(2.74391 -0.0235303 1.03696e-15)
(1.00014 -0.000568189 1.1263e-16)
(1.00147 -0.00169332 1.18078e-15)
(1.0043 -0.00280669 4.99134e-15)
(1.00858 -0.00388364 6.36216e-15)
(1.01421 -0.00490282 2.74651e-15)
(1.02108 -0.00585089 5.3759e-15)
(1.02911 -0.00671746 -2.02315e-15)
(1.03819 -0.00749446 3.1742e-15)
(1.04819 -0.0081771 1.50729e-15)
(1.059 -0.00876381 -3.64359e-15)
(1.07049 -0.00925581 -2.52734e-15)
(1.08255 -0.00965657 -2.08581e-15)
(1.09505 -0.00997132 -5.68274e-15)
(1.1079 -0.0102065 -8.1286e-15)
(1.12099 -0.0103696 -6.2873e-15)
(1.13424 -0.0104681 -9.0809e-15)
(1.14758 -0.01051 -1.0582e-14)
(1.16093 -0.010503 -8.02288e-15)
(1.17425 -0.0104542 -1.0761e-14)
(1.18747 -0.0103706 -1.19294e-14)
(1.20056 -0.0102583 -9.57768e-15)
(1.2135 -0.010123 -1.16661e-14)
(1.22624 -0.00996964 -1.31102e-14)
(1.23878 -0.00980252 -1.09306e-14)
(1.2511 -0.00962543 -1.24968e-14)
(1.26319 -0.00944156 -1.33288e-14)
(1.27504 -0.00925361 -1.39809e-14)
(1.28665 -0.00906381 -1.43312e-14)
(1.29802 -0.008874 -1.01192e-14)
(1.30914 -0.00868565 -1.16676e-14)
(1.32003 -0.00849994 -1.24883e-14)
(1.33068 -0.00831775 -1.30773e-14)
(1.3411 -0.00813978 -1.35826e-14)
(1.3513 -0.0079665 -1.45131e-14)
(1.36128 -0.00779824 -1.07545e-14)
(1.37105 -0.0076352 -1.20353e-14)
(1.38061 -0.00747747 -1.2867e-14)
(1.38998 -0.00732505 -1.34965e-14)
(1.39916 -0.00717789 -1.35859e-14)
(1.40815 -0.00703588 -1.43597e-14)
(1.41696 -0.00689885 -1.11096e-14)
(1.4256 -0.00676664 -1.23552e-14)
(1.43407 -0.00663904 -1.28181e-14)
(1.44239 -0.00651584 -1.34984e-14)
(1.45055 -0.00639683 -1.38571e-14)
(1.45856 -0.00628178 -1.40377e-14)
(1.46642 -0.00617049 -1.41894e-14)
(1.47415 -0.00606273 -1.44177e-14)
(1.48173 -0.00595831 -1.43551e-14)
(1.48919 -0.00585703 -1.43972e-14)
(1.49652 -0.00575869 -1.4516e-14)
(1.50373 -0.00566314 -1.44173e-14)
(1.51081 -0.0055702 -1.47198e-14)
(1.51778 -0.00547971 -1.46542e-14)
(1.52463 -0.00539154 -1.45974e-14)
(1.53137 -0.00530554 -1.54675e-14)
(1.538 -0.0052216 -1.13242e-14)
(1.54453 -0.0051396 -1.23017e-14)
(1.55095 -0.00505944 -1.27851e-14)
(1.55727 -0.00498102 -1.31114e-14)
(1.5635 -0.00490425 -1.32791e-14)
(1.56962 -0.00482905 -1.35717e-14)
(1.57565 -0.00475535 -1.34741e-14)
(1.58159 -0.00468308 -1.35831e-14)
(1.58743 -0.00461218 -1.36463e-14)
(1.59319 -0.00454258 -1.36965e-14)
(1.59886 -0.00447425 -1.38994e-14)
(1.60444 -0.00440713 -1.50331e-14)
(1.60993 -0.00434118 -8.59626e-15)
(1.61535 -0.00427636 -1.03584e-14)
(1.62068 -0.00421263 -1.10761e-14)
(1.62593 -0.00414996 -1.20522e-14)
(1.6311 -0.00408832 -9.53585e-15)
(1.6362 -0.00402768 -1.03863e-14)
(1.64121 -0.00396802 -1.11141e-14)
(1.64616 -0.00390931 -1.16539e-14)
(1.65102 -0.00385153 -8.55475e-15)
(1.65582 -0.00379465 -9.22733e-15)
(1.66054 -0.00373867 -1.00046e-14)
(1.6652 -0.00368355 -1.09815e-14)
(1.66978 -0.00362929 -8.77997e-15)
(1.6743 -0.00357586 -6.50651e-15)
(1.67875 -0.00352325 -7.59889e-15)
(1.68313 -0.00347145 -8.60539e-15)
(1.68745 -0.00342044 -9.28837e-15)
(1.6917 -0.00337021 -9.94874e-15)
(1.69589 -0.00332074 -1.03514e-14)
(1.70002 -0.00327203 -1.06209e-14)
(1.70409 -0.00322405 -1.10509e-14)
(1.70809 -0.00317681 -1.09548e-14)
(1.71204 -0.00313028 -1.13934e-14)
(1.71593 -0.00308446 -1.14404e-14)
(1.71976 -0.00303934 -1.27918e-14)
(1.72354 -0.0029949 -6.84267e-15)
(1.72726 -0.00295114 -8.74227e-15)
(1.73093 -0.00290804 -9.5038e-15)
(1.73454 -0.0028656 -1.046e-14)
(1.7381 -0.0028238 -7.66534e-15)
(1.7416 -0.00278264 -9.08322e-15)
(1.74506 -0.00274211 -1.01515e-14)
(1.74846 -0.00270219 -7.1472e-15)
(1.75182 -0.00266288 -8.70352e-15)
(1.75512 -0.00262417 -6.13177e-15)
(1.75838 -0.00258605 -7.87503e-15)
(1.76159 -0.00254851 -5.57675e-15)
(1.76475 -0.00251155 -7.20543e-15)
(1.76787 -0.00247515 -4.47236e-15)
(1.77094 -0.0024393 -6.39115e-15)
(1.77396 -0.00240401 -4.04232e-15)
(1.77695 -0.00236925 -5.76662e-15)
(1.77989 -0.00233503 -3.38197e-15)
(1.78278 -0.00230133 -5.04845e-15)
(1.78564 -0.00226815 -3.30962e-15)
(1.78845 -0.00223548 -1.76036e-15)
(1.79122 -0.00220331 -4.23371e-15)
(1.79395 -0.00217163 -2.45548e-15)
(1.79665 -0.00214045 -4.15394e-15)
(1.7993 -0.00210975 -2.39337e-15)
(1.80192 -0.00207952 -4.05271e-15)
(1.8045 -0.00204976 -1.62429e-15)
(1.80704 -0.00202047 -3.76771e-15)
(1.80954 -0.00199164 -1.25064e-15)
(1.81201 -0.00196327 -3.06224e-15)
(1.81445 -0.00193534 -1.02063e-15)
(1.81685 -0.00190786 -3.48882e-15)
(1.81921 -0.00188082 -1.1537e-15)
(1.82154 -0.00185423 -2.90319e-15)
(1.82384 -0.00182808 -9.78384e-16)
(1.82611 -0.00180236 -2.69373e-15)
(1.82834 -0.00177709 -7.23536e-16)
(1.83054 -0.00175226 -2.36477e-15)
(1.83271 -0.00172787 -5.56349e-16)
(1.83486 -0.00170393 -2.54304e-15)
(1.83697 -0.00168046 -4.71782e-16)
(1.83905 -0.00165745 -2.43409e-15)
(1.84111 -0.00163492 -3.9412e-16)
(1.84313 -0.0016129 -2.03522e-15)
(1.84513 -0.00159139 -5.58611e-16)
(1.8471 -0.00157042 4.88348e-16)
(1.84905 -0.00155002 8.12735e-16)
(1.85097 -0.00153024 1.52796e-15)
(1.85287 -0.00151111 -8.00699e-16)
(1.85474 -0.00149269 1.01997e-15)
(1.85659 -0.00147504 -1.31713e-15)
(1.85842 -0.00145824 5.27045e-16)
(1.86023 -0.00144238 -1.40066e-15)
(1.86202 -0.00142757 2.50523e-16)
(1.8638 -0.00141393 1.03643e-15)
(1.86555 -0.00140161 2.03046e-15)
(1.86729 -0.0013908 -3.83082e-16)
(1.86902 -0.00138171 1.25048e-15)
(1.87074 -0.00137458 -6.49285e-16)
(1.87245 -0.00136971 1.29508e-15)
(1.87416 -0.00136745 -6.31926e-16)
(1.87587 -0.00136822 6.66625e-16)
(1.87758 -0.00137249 1.64303e-15)
(1.87929 -0.00138083 2.58169e-15)
(1.88102 -0.00139393 1.21396e-16)
(1.88277 -0.00141256 1.77063e-15)
(1.88455 -0.00143766 -3.66281e-16)
(1.88636 -0.00147032 1.38588e-15)
(1.88822 -0.00151183 -5.56571e-16)
(1.89014 -0.00156371 6.81214e-16)
(1.89213 -0.00162771 1.87832e-15)
(1.89421 -0.00170592 1.94727e-15)
(1.8964 -0.00180077 2.75681e-15)
(1.89871 -0.00191512 1.9105e-16)
(1.90119 -0.00205229 1.78457e-15)
(1.90385 -0.00221618 -3.73576e-16)
(1.90673 -0.0024113 1.49674e-15)
(1.90988 -0.00264293 -4.03385e-16)
(1.91335 -0.00291717 9.37323e-16)
(1.91719 -0.00324109 1.75482e-15)
(1.92147 -0.00362282 2.4912e-15)
(1.92627 -0.00407169 4.48805e-16)
(1.93168 -0.00459837 1.66195e-15)
(1.9378 -0.00521496 -1.33565e-16)
(1.94476 -0.00593507 1.78284e-15)
(1.9527 -0.0067739 -1.76001e-16)
(1.96177 -0.0077482 1.25928e-15)
(1.97215 -0.00887618 1.94128e-15)
(1.98406 -0.0101772 2.73465e-15)
(1.99773 -0.0116715 5.97603e-16)
(2.0134 -0.0133792 2.24743e-15)
(2.03137 -0.0153195 6.05905e-16)
(2.05195 -0.0175091 2.24723e-15)
(2.07545 -0.0199603 5.12694e-16)
(2.10222 -0.0226784 1.58179e-15)
(2.13261 -0.0256585 1.94123e-15)
(2.16693 -0.0288822 2.57605e-15)
(2.2055 -0.0323128 3.13847e-15)
(2.24855 -0.0358925 1.59032e-15)
(2.29624 -0.0395373 2.61258e-15)
(2.3486 -0.0431371 1.43825e-15)
(2.40551 -0.0465535 2.50153e-15)
(2.46664 -0.0496266 1.49177e-15)
(2.53147 -0.0521807 2.16737e-15)
(2.59924 -0.0540406 2.61353e-15)
(2.66895 -0.0550491 3.26581e-15)
(2.73943 -0.0550873 2.66998e-15)
(1.00015 -0.000928354 -2.71285e-16)
(1.0015 -0.0027836 2.42862e-15)
(1.00437 -0.00461125 2.89489e-15)
(1.00873 -0.00637593 2.83217e-16)
(1.01445 -0.00804666 -2.44119e-15)
(1.02144 -0.00960001 -9.05082e-17)
(1.02959 -0.0110179 -1.59355e-15)
(1.0388 -0.0122873 -4.57465e-16)
(1.04895 -0.0134006 -8.71582e-17)
(1.0599 -0.0143557 -1.64064e-15)
(1.07152 -0.0151549 -2.24983e-15)
(1.08371 -0.0158041 -2.39602e-15)
(1.09634 -0.0163123 -3.55873e-15)
(1.1093 -0.0166904 -5.01674e-15)
(1.12251 -0.0169505 -7.60127e-15)
(1.13586 -0.0171056 -7.44706e-15)
(1.14929 -0.0171686 -7.93437e-15)
(1.16272 -0.0171519 -9.81627e-15)
(1.17611 -0.0170678 -9.5791e-15)
(1.1894 -0.0169272 -9.79482e-15)
(1.20255 -0.0167403 -1.15596e-14)
(1.21554 -0.0165162 -1.08609e-14)
(1.22833 -0.016263 -1.1197e-14)
(1.24091 -0.0159878 -1.03416e-14)
(1.25327 -0.0156966 -1.08147e-14)
(1.26539 -0.0153945 -1.11737e-14)
(1.27726 -0.015086 -1.16149e-14)
(1.2889 -0.0147746 -1.23046e-14)
(1.30028 -0.0144632 -9.10757e-15)
(1.31142 -0.0141543 -9.91988e-15)
(1.32232 -0.0138497 -1.0416e-14)
(1.33298 -0.0135508 -1.10312e-14)
(1.3434 -0.0132588 -1.14937e-14)
(1.3536 -0.0129744 -1.19515e-14)
(1.36358 -0.0126982 -1.10963e-14)
(1.37334 -0.0124304 -1.11984e-14)
(1.38289 -0.0121712 -1.12616e-14)
(1.39224 -0.0119206 -1.17456e-14)
(1.40139 -0.0116785 -1.18292e-14)
(1.41036 -0.0114448 -1.24351e-14)
(1.41915 -0.0112192 -1.16386e-14)
(1.42775 -0.0110014 -1.13939e-14)
(1.43619 -0.0107911 -1.15843e-14)
(1.44447 -0.010588 -1.1849e-14)
(1.45258 -0.0103918 -1.20307e-14)
(1.46054 -0.0102019 -1.22663e-14)
(1.46835 -0.0100183 -1.24488e-14)
(1.47602 -0.0098404 -1.22464e-14)
(1.48355 -0.009668 -1.25319e-14)
(1.49094 -0.00950076 -1.26877e-14)
(1.4982 -0.00933837 -1.29128e-14)
(1.50534 -0.00918058 -1.30419e-14)
(1.51235 -0.00902709 -1.30553e-14)
(1.51924 -0.00887768 -1.31474e-14)
(1.52601 -0.00873211 -1.30733e-14)
(1.53267 -0.00859016 -1.37951e-14)
(1.53921 -0.00845164 -1.05518e-14)
(1.54565 -0.00831636 -1.08328e-14)
(1.55198 -0.00818415 -1.11083e-14)
(1.55821 -0.00805486 -1.12834e-14)
(1.56433 -0.00792835 -1.15155e-14)
(1.57036 -0.00780447 -1.17577e-14)
(1.57628 -0.00768312 -1.18859e-14)
(1.58212 -0.00756418 -1.22858e-14)
(1.58786 -0.00744754 -1.22916e-14)
(1.59351 -0.00733313 -1.21692e-14)
(1.59906 -0.00722084 -1.21665e-14)
(1.60454 -0.0071106 -1.2726e-14)
(1.60992 -0.00700235 -1.17026e-14)
(1.61522 -0.00689601 -1.04838e-14)
(1.62044 -0.00679152 -1.03846e-14)
(1.62557 -0.00668882 -9.95287e-15)
(1.63063 -0.00658788 -9.67875e-15)
(1.63561 -0.00648862 -9.03947e-15)
(1.64051 -0.00639102 -9.12705e-15)
(1.64533 -0.00629503 -8.6972e-15)
(1.65008 -0.00620061 -8.36633e-15)
(1.65476 -0.00610773 -7.69599e-15)
(1.65937 -0.00601634 -8.00315e-15)
(1.6639 -0.00592643 -7.76986e-15)
(1.66837 -0.00583795 -7.95611e-15)
(1.67276 -0.00575088 -5.41707e-15)
(1.67709 -0.00566519 -5.76106e-15)
(1.68136 -0.00558086 -6.53405e-15)
(1.68556 -0.00549785 -7.0569e-15)
(1.68969 -0.00541616 -7.51508e-15)
(1.69376 -0.00533574 -8.03516e-15)
(1.69777 -0.00525659 -8.3094e-15)
(1.70172 -0.00517867 -8.68078e-15)
(1.70561 -0.00510198 -8.92792e-15)
(1.70945 -0.00502648 -9.30342e-15)
(1.71322 -0.00495216 -9.332e-15)
(1.71694 -0.004879 -1.00011e-14)
(1.7206 -0.00480698 -9.31214e-15)
(1.7242 -0.00473608 -8.42057e-15)
(1.72776 -0.00466629 -8.37692e-15)
(1.73125 -0.00459758 -7.99301e-15)
(1.7347 -0.00452995 -7.63242e-15)
(1.7381 -0.00446336 -6.95295e-15)
(1.74144 -0.00439782 -7.40776e-15)
(1.74473 -0.00433329 -6.63464e-15)
(1.74798 -0.00426977 -6.42695e-15)
(1.75118 -0.00420723 -5.59834e-15)
(1.75433 -0.00414567 -5.15545e-15)
(1.75743 -0.00408506 -4.25107e-15)
(1.76049 -0.0040254 -3.86133e-15)
(1.7635 -0.00396667 -3.0911e-15)
(1.76647 -0.00390885 -2.85118e-15)
(1.76939 -0.00385193 -2.30578e-15)
(1.77227 -0.0037959 -2.17652e-15)
(1.77511 -0.00374073 -1.45074e-15)
(1.77791 -0.00368643 -1.15293e-15)
(1.78066 -0.00363298 -1.13431e-15)
(1.78338 -0.00358036 -5.93069e-16)
(1.78605 -0.00352855 -6.98118e-16)
(1.78869 -0.00347756 -2.81594e-16)
(1.79129 -0.00342737 -3.36805e-16)
(1.79385 -0.00337797 1.7034e-16)
(1.79637 -0.00332934 1.57598e-16)
(1.79886 -0.00328147 9.31033e-16)
(1.80131 -0.00323437 6.77078e-16)
(1.80372 -0.00318801 1.28034e-15)
(1.8061 -0.00314239 1.08337e-15)
(1.80845 -0.0030975 1.44151e-15)
(1.81076 -0.00305334 1.18818e-15)
(1.81304 -0.0030099 1.81846e-15)
(1.81528 -0.00296718 1.84511e-15)
(1.8175 -0.00292517 2.17637e-15)
(1.81968 -0.00288387 1.80964e-15)
(1.82183 -0.00284329 2.21698e-15)
(1.82395 -0.00280342 2.18817e-15)
(1.82604 -0.00276427 2.59242e-15)
(1.82811 -0.00272586 2.49825e-15)
(1.83014 -0.00268818 2.83558e-15)
(1.83214 -0.00265126 2.82342e-15)
(1.83412 -0.00261512 2.78416e-15)
(1.83607 -0.00257979 2.78043e-15)
(1.838 -0.00254529 2.62716e-15)
(1.83989 -0.00251166 3.01542e-15)
(1.84177 -0.00247896 3.30846e-15)
(1.84362 -0.00244725 3.629e-15)
(1.84544 -0.00241659 3.60886e-15)
(1.84725 -0.00238706 3.80175e-15)
(1.84903 -0.00235879 3.54659e-15)
(1.85079 -0.00233187 3.87509e-15)
(1.85253 -0.00230647 3.49494e-15)
(1.85425 -0.00228275 3.76234e-15)
(1.85595 -0.00226091 4.0131e-15)
(1.85764 -0.00224121 4.55303e-15)
(1.85932 -0.00222392 4.26273e-15)
(1.86098 -0.0022094 4.51575e-15)
(1.86264 -0.00219803 4.25652e-15)
(1.86428 -0.0021903 4.46601e-15)
(1.86592 -0.00218676 4.29076e-15)
(1.86757 -0.00218808 4.36572e-15)
(1.86921 -0.00219503 4.54671e-15)
(1.87086 -0.00220853 4.84017e-15)
(1.87253 -0.00222965 4.71916e-15)
(1.87421 -0.00225968 4.70591e-15)
(1.87593 -0.0023001 4.64975e-15)
(1.87767 -0.00235267 4.75048e-15)
(1.87946 -0.00241947 4.65567e-15)
(1.88131 -0.00250291 4.49832e-15)
(1.88323 -0.00260585 4.6264e-15)
(1.88524 -0.00273163 4.70113e-15)
(1.88735 -0.00288417 5.0335e-15)
(1.88959 -0.00306805 4.8871e-15)
(1.89198 -0.00328864 4.99638e-15)
(1.89455 -0.00355219 4.78683e-15)
(1.89734 -0.00386601 4.91277e-15)
(1.90039 -0.00423858 4.97317e-15)
(1.90375 -0.00467976 5.14641e-15)
(1.90748 -0.00520094 5.00962e-15)
(1.91163 -0.00581528 5.30424e-15)
(1.91629 -0.00653788 4.8687e-15)
(1.92155 -0.00738601 5.20773e-15)
(1.9275 -0.0083793 5.07611e-15)
(1.93427 -0.00953989 5.45477e-15)
(1.942 -0.0108926 5.05188e-15)
(1.95084 -0.0124647 5.14438e-15)
(1.96097 -0.0142861 5.14843e-15)
(1.9726 -0.0163888 5.641e-15)
(1.98596 -0.0188063 5.30062e-15)
(2.00131 -0.0215722 5.5948e-15)
(2.01893 -0.024719 5.38773e-15)
(2.03913 -0.0282756 5.54374e-15)
(2.06225 -0.0322642 5.32413e-15)
(2.08864 -0.0366959 5.20688e-15)
(2.11866 -0.0415658 5.35359e-15)
(2.15265 -0.0468469 5.43356e-15)
(2.19094 -0.0524831 5.66559e-15)
(2.23381 -0.0583824 5.46553e-15)
(2.28144 -0.0644096 5.95064e-15)
(2.3339 -0.0703845 5.64975e-15)
(2.3911 -0.0760773 5.81245e-15)
(2.45274 -0.0812207 5.60361e-15)
(2.51831 -0.0855158 5.71341e-15)
(2.58703 -0.0886624 5.74088e-15)
(2.65787 -0.0903879 5.91837e-15)
(2.72958 -0.0904821 5.7465e-15)
(1.00015 -0.00130711 -1.54997e-16)
(1.00154 -0.00392477 3.58811e-16)
(1.00449 -0.00649999 1.98773e-15)
(1.00897 -0.0089833 6.73368e-16)
(1.01484 -0.0113323 -2.63329e-15)
(1.022 -0.0135131 -1.94116e-16)
(1.03035 -0.0154997 -3.13905e-15)
(1.03977 -0.0172742 -3.76962e-16)
(1.05012 -0.0188264 -1.0193e-15)
(1.06129 -0.0201539 -3.30685e-15)
(1.07313 -0.0212607 -3.10974e-15)
(1.08552 -0.022156 -2.77625e-15)
(1.09835 -0.0228531 -4.78666e-15)
(1.11149 -0.0233678 -6.41272e-15)
(1.12486 -0.0237177 -5.7486e-15)
(1.13837 -0.0239213 -7.09695e-15)
(1.15194 -0.023997 -8.38463e-15)
(1.1655 -0.0239625 -7.83193e-15)
(1.179 -0.0238347 -9.3101e-15)
(1.19239 -0.0236292 -1.02981e-14)
(1.20563 -0.02336 -9.45932e-15)
(1.2187 -0.0230399 -1.06496e-14)
(1.23156 -0.02268 -1.15159e-14)
(1.24421 -0.0222901 -1.04148e-14)
(1.25662 -0.0218785 -1.14613e-14)
(1.26878 -0.0214522 -1.20538e-14)
(1.2807 -0.0210172 -1.2542e-14)
(1.29236 -0.0205785 -1.31109e-14)
(1.30377 -0.02014 -1.09982e-14)
(1.31493 -0.0197051 -1.15335e-14)
(1.32583 -0.0192762 -1.18389e-14)
(1.3365 -0.0188553 -1.2162e-14)
(1.34692 -0.0184439 -1.25118e-14)
(1.35711 -0.0180431 -1.29621e-14)
(1.36707 -0.0176536 -1.1177e-14)
(1.37681 -0.0172757 -1.18657e-14)
(1.38633 -0.0169098 -1.22716e-14)
(1.39565 -0.0165558 -1.24834e-14)
(1.40476 -0.0162136 -1.26008e-14)
(1.41368 -0.015883 -1.32049e-14)
(1.42241 -0.0155636 -1.15912e-14)
(1.43096 -0.0152552 -1.19787e-14)
(1.43933 -0.0149572 -1.24641e-14)
(1.44753 -0.0146692 -1.26782e-14)
(1.45556 -0.0143907 -1.27773e-14)
(1.46344 -0.0141213 -1.3049e-14)
(1.47116 -0.0138606 -1.31141e-14)
(1.47873 -0.013608 -1.30797e-14)
(1.48615 -0.0133631 -1.32614e-14)
(1.49344 -0.0131256 -1.34374e-14)
(1.50059 -0.0128949 -1.34493e-14)
(1.5076 -0.0126708 -1.35701e-14)
(1.51449 -0.0124528 -1.35652e-14)
(1.52125 -0.0122407 -1.37905e-14)
(1.52788 -0.0120341 -1.37225e-14)
(1.5344 -0.0118327 -1.43064e-14)
(1.54081 -0.0116362 -1.19948e-14)
(1.5471 -0.0114444 -1.21049e-14)
(1.55328 -0.0112571 -1.2271e-14)
(1.55935 -0.0110741 -1.23465e-14)
(1.56532 -0.0108951 -1.24161e-14)
(1.57119 -0.0107199 -1.24421e-14)
(1.57695 -0.0105484 -1.26922e-14)
(1.58262 -0.0103805 -1.28311e-14)
(1.58819 -0.010216 -1.29262e-14)
(1.59367 -0.0100547 -1.28745e-14)
(1.59906 -0.00989652 -1.29411e-14)
(1.60436 -0.00974138 -1.32995e-14)
(1.60957 -0.00958917 -1.22867e-14)
(1.61469 -0.00943977 -9.46875e-15)
(1.61973 -0.00929311 -1.09296e-14)
(1.62469 -0.00914909 -8.40875e-15)
(1.62957 -0.00900764 -1.00701e-14)
(1.63436 -0.00886869 -7.56905e-15)
(1.63908 -0.00873216 -9.2595e-15)
(1.64373 -0.00859801 -6.93758e-15)
(1.64829 -0.00846616 -8.50927e-15)
(1.65279 -0.00833657 -6.21713e-15)
(1.65721 -0.00820917 -8.03487e-15)
(1.66156 -0.00808392 -5.98631e-15)
(1.66585 -0.00796077 -7.72459e-15)
(1.67006 -0.00783968 -6.34164e-15)
(1.67421 -0.00772061 -7.00927e-15)
(1.67829 -0.00760351 -7.44514e-15)
(1.68231 -0.00748834 -7.89171e-15)
(1.68627 -0.00737506 -8.26288e-15)
(1.69016 -0.00726365 -8.71091e-15)
(1.69399 -0.00715406 -9.02087e-15)
(1.69776 -0.00704626 -9.23488e-15)
(1.70147 -0.00694021 -9.54251e-15)
(1.70513 -0.0068359 -9.78404e-15)
(1.70873 -0.00673327 -9.96145e-15)
(1.71227 -0.00663231 -1.0342e-14)
(1.71576 -0.00653299 -9.507e-15)
(1.71919 -0.00643527 -6.84916e-15)
(1.72257 -0.00633913 -8.37966e-15)
(1.7259 -0.00624454 -6.09986e-15)
(1.72918 -0.00615148 -7.6975e-15)
(1.7324 -0.00605991 -5.38623e-15)
(1.73558 -0.00596982 -7.07235e-15)
(1.73871 -0.00588117 -5.35582e-15)
(1.74179 -0.00579395 -4.33836e-15)
(1.74483 -0.00570812 -3.28832e-15)
(1.74782 -0.00562367 -2.48016e-15)
(1.75076 -0.00554057 -1.8353e-15)
(1.75366 -0.0054588 -1.33472e-15)
(1.75652 -0.00537834 -5.32271e-16)
(1.75933 -0.00529917 -2.29853e-16)
(1.7621 -0.00522126 3.52431e-16)
(1.76483 -0.00514459 7.94459e-16)
(1.76751 -0.00506914 1.17176e-15)
(1.77016 -0.0049949 1.84846e-15)
(1.77277 -0.00492185 7.65683e-16)
(1.77534 -0.00484996 1.34509e-15)
(1.77787 -0.00477921 1.84629e-15)
(1.78036 -0.0047096 2.31105e-15)
(1.78282 -0.0046411 2.6042e-15)
(1.78524 -0.00457369 3.21415e-15)
(1.78762 -0.00450736 3.37698e-15)
(1.78997 -0.0044421 3.65845e-15)
(1.79229 -0.00437789 3.84278e-15)
(1.79457 -0.00431472 4.07564e-15)
(1.79682 -0.00425257 4.33734e-15)
(1.79903 -0.00419144 4.55744e-15)
(1.80121 -0.00413131 4.61098e-15)
(1.80336 -0.00407218 4.84578e-15)
(1.80548 -0.00401403 4.99851e-15)
(1.80757 -0.00395688 5.23154e-15)
(1.80963 -0.0039007 5.18938e-15)
(1.81166 -0.00384551 5.53054e-15)
(1.81366 -0.00379131 5.65091e-15)
(1.81563 -0.0037381 5.71328e-15)
(1.81758 -0.00368589 5.88798e-15)
(1.81949 -0.00363471 6.1574e-15)
(1.82138 -0.00358456 6.14095e-15)
(1.82325 -0.00353548 6.25993e-15)
(1.82508 -0.0034875 6.53072e-15)
(1.8269 -0.00344067 5.2653e-15)
(1.82868 -0.00339503 5.74475e-15)
(1.83045 -0.00335067 6.10978e-15)
(1.83219 -0.00330764 6.53016e-15)
(1.83391 -0.00326606 6.61084e-15)
(1.83561 -0.00322604 6.79736e-15)
(1.83728 -0.00318771 6.83936e-15)
(1.83894 -0.00315125 7.12265e-15)
(1.84058 -0.00311684 7.03953e-15)
(1.8422 -0.00308473 7.09132e-15)
(1.84381 -0.0030552 7.30149e-15)
(1.8454 -0.00302857 7.43676e-15)
(1.84697 -0.00300524 7.58354e-15)
(1.84854 -0.00298567 7.7619e-15)
(1.8501 -0.0029704 7.75069e-15)
(1.85165 -0.00296009 7.79975e-15)
(1.85319 -0.00295549 7.79507e-15)
(1.85474 -0.0029575 7.80882e-15)
(1.85629 -0.00296719 7.89655e-15)
(1.85785 -0.00298581 7.94174e-15)
(1.85942 -0.00301481 8.0392e-15)
(1.861 -0.00305595 8.13681e-15)
(1.86262 -0.00311124 8.21811e-15)
(1.86427 -0.0031831 8.14133e-15)
(1.86596 -0.00327435 8.41915e-15)
(1.86771 -0.00338828 7.23854e-15)
(1.86952 -0.00352879 7.53649e-15)
(1.87142 -0.00370045 7.73896e-15)
(1.87342 -0.0039086 7.98411e-15)
(1.87554 -0.0041595 8.08882e-15)
(1.87781 -0.00446049 8.20763e-15)
(1.88025 -0.00482012 8.13188e-15)
(1.8829 -0.00524838 8.20544e-15)
(1.88581 -0.00575689 8.34853e-15)
(1.88901 -0.00635917 8.65537e-15)
(1.89256 -0.00707085 8.48937e-15)
(1.89652 -0.00791001 8.57733e-15)
(1.90097 -0.00889745 8.46438e-15)
(1.906 -0.010057 8.57985e-15)
(1.9117 -0.0114158 8.43755e-15)
(1.91819 -0.0130045 8.67412e-15)
(1.9256 -0.0148576 8.57262e-15)
(1.9341 -0.0170135 8.51111e-15)
(1.94385 -0.0195139 8.42609e-15)
(1.95506 -0.0224043 8.78707e-15)
(1.96796 -0.0257322 8.71302e-15)
(1.98281 -0.0295464 8.68822e-15)
(1.99989 -0.0338947 8.76411e-15)
(2.01952 -0.0388206 8.76606e-15)
(2.04205 -0.0443594 8.96882e-15)
(2.06785 -0.050532 7.9497e-15)
(2.09729 -0.0573382 8.18339e-15)
(2.13075 -0.0647477 8.21312e-15)
(2.1686 -0.0726891 8.35469e-15)
(2.21116 -0.0810412 8.38439e-15)
(2.25867 -0.0896189 8.46655e-15)
(2.31125 -0.098172 8.457e-15)
(2.36888 -0.106371 8.45975e-15)
(2.43129 -0.113832 8.35616e-15)
(2.49799 -0.120109 8.25445e-15)
(2.56819 -0.124755 8.12699e-15)
(2.6408 -0.12735 8.12136e-15)
(2.71449 -0.127563 7.9582e-15)
(1.00016 -0.00170623 -1.54784e-16)
(1.00159 -0.00512507 -5.55742e-16)
(1.00466 -0.00848603 -1.50702e-15)
(1.0093 -0.0117228 -1.29419e-15)
(1.01537 -0.0147795 -2.14474e-15)
(1.02278 -0.0176111 -2.38496e-15)
(1.0314 -0.0201836 -2.83722e-15)
(1.04111 -0.0224739 -2.41662e-15)
(1.05176 -0.02447 -2.29616e-15)
(1.06323 -0.0261699 -2.81245e-15)
(1.07536 -0.0275803 -2.9624e-15)
(1.08803 -0.0287144 -3.26658e-15)
(1.10112 -0.0295907 -3.75717e-15)
(1.11452 -0.0302309 -4.40646e-15)
(1.12812 -0.0306587 -3.44741e-15)
(1.14184 -0.0308985 -4.39524e-15)
(1.1556 -0.0309746 -5.27809e-15)
(1.16933 -0.0309102 -5.82622e-15)
(1.18299 -0.0307273 -6.39767e-15)
(1.19652 -0.030446 -6.90994e-15)
(1.20988 -0.0300844 -7.22945e-15)
(1.22306 -0.0296587 -7.62419e-15)
(1.23601 -0.0291831 -7.83058e-15)
(1.24874 -0.0286699 -9.22932e-15)
(1.26121 -0.0281297 -8.92905e-15)
(1.27344 -0.0275714 -8.88135e-15)
(1.2854 -0.0270025 -8.85432e-15)
(1.29709 -0.0264292 -9.11465e-15)
(1.30852 -0.0258565 -8.80061e-15)
(1.31969 -0.0252885 -8.82706e-15)
(1.3306 -0.0247284 -8.74785e-15)
(1.34126 -0.0241787 -8.79568e-15)
(1.35166 -0.0236411 -8.88656e-15)
(1.36182 -0.0231171 -9.10995e-15)
(1.37175 -0.0226075 -8.89656e-15)
(1.38144 -0.0221129 -8.83351e-15)
(1.3909 -0.0216336 -8.90455e-15)
(1.40015 -0.0211695 -8.90479e-15)
(1.40919 -0.0207207 -8.97867e-15)
(1.41802 -0.0202867 -9.23251e-15)
(1.42665 -0.0198672 -9.01823e-15)
(1.43509 -0.0194618 -9.04772e-15)
(1.44335 -0.0190699 -9.02195e-15)
(1.45143 -0.018691 -9.11025e-15)
(1.45933 -0.0183245 -9.1923e-15)
(1.46707 -0.0179698 -9.18021e-15)
(1.47464 -0.0176265 -9.29517e-15)
(1.48206 -0.0172938 -9.296e-15)
(1.48932 -0.0169713 -9.41208e-15)
(1.49644 -0.0166585 -9.54441e-15)
(1.50341 -0.0163547 -9.63284e-15)
(1.51024 -0.0160597 -9.65161e-15)
(1.51694 -0.0157729 -9.71331e-15)
(1.5235 -0.0154939 -9.83163e-15)
(1.52994 -0.0152222 -9.82413e-15)
(1.53626 -0.0149576 -1.01156e-14)
(1.54245 -0.0146997 -8.49925e-15)
(1.54853 -0.0144481 -8.6566e-15)
(1.5545 -0.0142026 -8.95427e-15)
(1.56035 -0.0139628 -8.98271e-15)