/*--------------------------------*- C++ -*----------------------------------*\
  =========                 |
  \\      /  F ield         | OpenFOAM: The Open Source CFD Toolbox
   \\    /   O peration     | Website:  https://openfoam.org
    \\  /    A nd           | Version:  7
     \\/     M anipulation  |
\*---------------------------------------------------------------------------*/
FoamFile
{
    version     2.0;
    format      ascii;
    class       surfaceScalarField;
    location    "11.000598";
    object      phi;
}
// * * * * * * * * * * * * * * * * * * * * * * * * * * * * * * * * * * * * * //

dimensions      [0 3 -1 0 0 0 0];

internalField   nonuniform List<scalar> 
46020
(
-2.00467e-06
2.00467e-06
-1.9639e-12
-7.37039e-06
5.36573e-06
-7.98949e-12
-1.57099e-05
8.33948e-06
-1.56605e-11
-2.6578e-05
1.08682e-05
-2.41002e-11
-3.94623e-05
1.28843e-05
-3.28679e-11
-5.37808e-05
1.43185e-05
-4.1626e-11
-6.88771e-05
1.50963e-05
-4.99293e-11
-8.40123e-05
1.51353e-05
-5.75033e-11
-9.83551e-05
1.43428e-05
-6.37854e-11
-0.000110968
1.26132e-05
-6.81738e-11
-0.000120794
9.82547e-06
-6.96254e-11
-0.000126637
5.8432e-06
-6.67738e-11
-0.000127156
5.1891e-07
-6.00951e-11
-0.000120864
-6.29121e-06
-4.83242e-11
-0.000106169
-1.46952e-05
-3.02457e-11
-8.14671e-05
-2.4702e-05
-4.64361e-12
-4.53618e-05
-3.61053e-05
3.11711e-11
2.93394e-06
-4.82958e-05
7.85876e-11
6.31843e-05
-6.02505e-05
1.40113e-10
-6.99985e-05
2.17728e-10
0.000133183
-1.96493e-06
3.9696e-06
-7.21409e-06
1.06149e-05
-1.5355e-05
1.64803e-05
-2.59355e-05
2.14487e-05
-3.84343e-05
2.53831e-05
-5.22585e-05
2.81428e-05
-6.67385e-05
2.95763e-05
-8.11196e-05
2.95164e-05
-9.45518e-05
2.7775e-05
-0.000106076
2.41374e-05
-0.000114609
1.83581e-05
-0.000118925
1.01598e-05
-0.000117649
-7.57813e-07
-0.00010925
-1.46901e-05
-9.20812e-05
-3.18637e-05
-6.44711e-05
-5.23122e-05
-2.49322e-05
-7.56442e-05
2.74343e-05
-0.000100662
9.24881e-05
-0.000125304
-0.000145653
0.000168143
-1.88614e-06
5.85573e-06
-6.90397e-06
1.56327e-05
-1.46504e-05
2.42268e-05
-2.46595e-05
3.14578e-05
-3.6392e-05
3.71156e-05
-4.92332e-05
4.0984e-05
-6.24872e-05
4.28303e-05
-7.53678e-05
4.2397e-05
-8.69877e-05
3.93949e-05
-9.63444e-05
3.34941e-05
-0.000102304
2.43173e-05
-0.000103582
1.14378e-05
-9.8731e-05
-5.6083e-06
-8.61386e-05
-2.72824e-05
-6.40514e-05
-5.39509e-05
-3.06617e-05
-8.57019e-05
1.56936e-05
-0.000122
7.61295e-05
-0.000161098
0.000150715
-0.00019989
-0.000232507
0.000237568
-1.76965e-06
7.62538e-06
-6.44489e-06
2.0308e-05
-1.36067e-05
3.13886e-05
-2.27676e-05
4.06187e-05
-3.33621e-05
4.77101e-05
-4.47427e-05
5.23646e-05
-5.61738e-05
5.42614e-05
-6.68225e-05
5.30456e-05
-7.57459e-05
4.83183e-05
-8.18768e-05
3.96251e-05
-8.40058e-05
2.64462e-05
-8.07613e-05
8.19336e-06
-7.05933e-05
-1.57764e-05
-5.17645e-05
-4.61112e-05
-2.23685e-05
-8.33468e-05
1.95986e-05
-0.000127669
7.60549e-05
-0.000178456
0.000148433
-0.000233476
0.000237107
-0.000288564
-0.000335882
0.000340482
-1.61739e-06
9.24277e-06
-5.84387e-06
2.45345e-05
-1.22385e-05
3.77832e-05
-2.02854e-05
4.86657e-05
-2.93834e-05
5.68081e-05
-3.88416e-05
6.18228e-05
-4.78721e-05
6.32919e-05
-5.55795e-05
6.0753e-05
-6.0948e-05
5.36868e-05
-6.28251e-05
4.15022e-05
-5.99023e-05
2.35235e-05
-5.06938e-05
-1.01518e-06
-3.35155e-05
-3.29546e-05
-6.47118e-06
-7.31556e-05
3.25405e-05
-0.000122359
8.57724e-05
-0.000180901
0.000155469
-0.000248152
0.000243466
-0.000321474
0.000350534
-0.000395632
-0.000460779
0.000475431
-1.4318e-06
1.06746e-05
-5.10972e-06
2.82124e-05
-1.05648e-05
4.32383e-05
-1.72453e-05
5.53461e-05
-2.45053e-05
6.4068e-05
-3.15997e-05
6.89172e-05
-3.76758e-05
6.9368e-05
-4.17612e-05
6.48384e-05
-4.27497e-05
5.46753e-05
-3.93839e-05
3.81364e-05
-3.02342e-05
1.43738e-05
-1.36753e-05
-1.7574e-05
1.21382e-05
-5.87682e-05
4.92923e-05
-0.00011031
0.000100119
-0.000173185
0.00016716
-0.000247943
0.000253039
-0.000334031
0.000360073
-0.000428507
0.000489505
-0.000525064
-0.000611765
0.00064049
-1.21572e-06
1.18903e-05
-4.25273e-06
3.12494e-05
-8.60766e-06
4.75933e-05
-1.36849e-05
6.04234e-05
-1.87853e-05
6.91684e-05
-2.3099e-05
7.3231e-05
-2.56959e-05
7.19649e-05
-2.55126e-05
6.4655e-05
-2.13362e-05
5.04989e-05
-1.1786e-05
2.85862e-05
4.70941e-06
-2.12166e-06
2.99371e-05
-4.28017e-05
6.5928e-05
-9.47591e-05
0.000114983
-0.000159364
0.000179688
-0.000237891
0.000262905
-0.000331159
0.000367667
-0.000438794
0.000496828
-0.000557668
0.000652172
-0.000680407
-0.000792865
0.000833272
-9.72203e-07
1.28625e-05
-3.28412e-06
3.35613e-05
-6.39109e-06
5.07002e-05
-9.64608e-06
6.36784e-05
-1.22874e-05
7.18097e-05
-1.34305e-05
7.4374e-05
-1.20562e-05
7.05906e-05
-6.99636e-06
5.95952e-05
3.08353e-06
4.0419e-05
1.97046e-05
1.19651e-05
4.45984e-05
-2.70155e-05
7.97338e-05
-7.79371e-05
0.000127346
-0.000142371
0.000189968
-0.000221986
0.000270457
-0.00031838
0.000372002
-0.000432704
0.000498061
-0.000564853
0.000652049
-0.000711655
0.000836341
-0.0008647
-0.00100746
0.00105094
-7.04448e-07
1.35669e-05
-2.2156e-06
3.50725e-05
-3.94043e-06
5.24251e-05
-5.17264e-06
6.49106e-05
-5.07936e-06
7.17164e-05
-2.69132e-06
7.1986e-05
3.11068e-06
6.47886e-05
1.36119e-05
4.9094e-05
3.02827e-05
2.37483e-05
5.47995e-05
-1.25517e-05
8.907e-05
-6.1286e-05
0.00013526
-0.000124127
0.000195824
-0.000202935
0.000273537
-0.000299699
0.00037153
-0.000416373
0.000493311
-0.000554485
0.000642746
-0.000714288
0.000823803
-0.000892712
0.00103948
-0.00108038
-0.00125815
0.00129017
-4.1561e-07
1.39826e-05
-1.05887e-06
3.57157e-05
-1.28109e-06
5.26473e-05
-3.08957e-07
6.39384e-05
2.76979e-06
6.86377e-05
9.01871e-06
6.57371e-05
1.96674e-05
5.414e-05
3.61293e-05
3.2632e-05
6.00229e-05
-1.45304e-07
9.31924e-05
-4.57212e-05
0.000137735
-0.000105828
0.000196024
-0.000182417
0.000270742
-0.000277653
0.000364907
-0.000393864
0.000481911
-0.000533377
0.000625558
-0.000698131
0.000800069
-0.0008888
0.00100992
-0.00110256
0.00125872
-0.00132918
-0.00154665
0.00154721
-1.08714e-07
1.40913e-05
1.74895e-07
3.54321e-05
1.56207e-06
5.12601e-05
4.90105e-06
6.05995e-05
1.11918e-05
6.23469e-05
2.16004e-05
5.53285e-05
3.74759e-05
3.82645e-05
6.03701e-05
9.73776e-06
9.20588e-05
-3.18339e-05
0.000134565
-8.82279e-05
0.000190184
-0.000161447
0.000261504
-0.000253736
0.000351433
-0.000367582
0.000463226
-0.000505657
0.000600513
-0.000670664
0.000767339
-0.000864957
0.000968204
-0.00108966
0.00120798
-0.00134234
0.00149087
-0.00161207
-0.00187364
0.00181786
2.13585e-07
1.38777e-05
1.47503e-06
3.41707e-05
4.56618e-06
4.8169e-05
1.04167e-05
5.47489e-05
2.01217e-05
5.26419e-05
3.49575e-05
4.04927e-05
5.64008e-05
1.68213e-05
8.61493e-05
-2.00108e-05
0.000126144
-7.18291e-05
0.000178594
-0.000140678
0.000245994
-0.000228847
0.000331149
-0.000338891
0.000437187
-0.000473621
0.000567578
-0.000636048
0.00072615
-0.000829236
0.00091712
-0.00105593
0.00114515
-0.00131769
0.00141536
-0.00161255
0.00173244
-0.00192914
-0.00223869
0.00209749
5.48889e-07
1.33288e-05
2.83289e-06
3.18867e-05
7.71062e-06
4.32912e-05
1.62004e-05
4.62592e-05
2.94988e-05
3.93434e-05
4.89993e-05
2.09922e-05
7.63121e-05
-1.04915e-05
0.000113287
-5.69855e-05
0.000162035
-0.000120577
0.000224951
-0.000203594
0.000304731
-0.000308627
0.000404388
-0.000438548
0.000527253
-0.000596486
0.00067698
-0.000785776
0.00085754
-0.0010098
0.00107323
-0.00127162
0.00132873
-0.00157319
0.00162919
-0.00191301
0.00197965
-0.0022796
-0.00264015
0.0023811
8.95353e-07
1.24334e-05
4.24056e-06
2.85415e-05
1.09774e-05
3.65544e-05
2.22186e-05
3.5018e-05
3.92682e-05
2.22939e-05
6.36413e-05
-3.38091e-06
9.70865e-05
-4.39367e-05
0.000141608
-0.000101507
0.000199488
-0.000178457
0.000273305
-0.000277411
0.000365949
-0.000401271
0.000480622
-0.000553221
0.000620834
-0.000736698
0.000790376
-0.000955318
0.000993294
-0.00121271
0.00123386
-0.00151218
0.00151657
-0.00185591
0.0018464
-0.00224283
0.00222848
-0.00266169
-0.00307506
0.0026634
1.25154e-06
1.11819e-05
5.69193e-06
2.41011e-05
1.43516e-05
2.78947e-05
2.84427e-05
2.09269e-05
4.93807e-05
1.35586e-06
7.88063e-05
-3.28065e-05
0.000118608
-8.37384e-05
0.000170945
-0.000153844
0.000238266
-0.000245778
0.000323325
-0.00036247
0.000429189
-0.000507135
0.000559226
-0.000683258
0.000717082
-0.000894554
0.000906632
-0.00114487
0.00113191
-0.00143799
0.00139703
-0.0017773
0.00170616
-0.00216504
0.00206373
-0.00260041
0.00247475
-0.00307271
-0.00353919
0.00293888
1.6165e-06
9.5654e-06
7.18238e-06
1.85352e-05
1.78212e-05
1.72559e-05
3.48481e-05
3.90009e-06
5.97929e-05
-2.3589e-05
9.44233e-05
-6.74369e-05
0.000140767
-0.000130082
0.000201133
-0.00021421
0.00027813
-0.000322775
0.000374672
-0.000459012
0.000493975
-0.000626438
0.000639539
-0.000828822
0.000815095
-0.00107011
0.00102453
-0.0013543
0.00127176
-0.00168522
0.00156063
-0.00206617
0.00189476
-0.00249917
0.0022778
-0.00298345
0.00271421
-0.00350912
-0.004027
0.00320202
1.9897e-06
7.5757e-06
8.70863e-06
1.18163e-05
2.13767e-05
4.58782e-06
4.14141e-05
-1.61374e-05
7.04664e-05
-5.26412e-05
0.000110427
-0.000107397
0.000163458
-0.000183114
0.000232012
-0.000282764
0.00031884
-0.000409603
0.000426994
-0.000567166
0.000559808
-0.000759252
0.00072086
-0.000989874
0.000913899
-0.00126315
0.00114274
-0.00158314
0.00141108
-0.00195357
0.00172237
-0.00237745
0.00207952
-0.00285632
0.00248512
-0.00338905
0.0029426
-0.0039666
-0.00453215
0.00344776
2.37095e-06
5.20475e-06
1.02685e-05
3.91874e-06
2.50104e-05
-1.01541e-05
4.81228e-05
-3.92498e-05
8.13653e-05
-8.58837e-05
0.000126753
-0.000152785
0.000186577
-0.000242937
0.000263417
-0.000359604
0.000360147
-0.000506333
0.000479924
-0.000686943
0.000626155
-0.000905483
0.000802434
-0.00116615
0.00101245
-0.00147316
0.00125984
-0.00183052
0.00154799
-0.00224173
0.00187983
-0.00270929
0.00225746
-0.00323395
0.00268227
-0.00381385
0.00315578
-0.00444012
-0.00504831
0.00367194
2.7603e-06
2.44445e-06
1.18604e-05
-5.18135e-06
2.8716e-05
-2.70097e-05
5.49575e-05
-6.54913e-05
9.2455e-05
-0.000123381
0.000143339
-0.000203669
0.000210015
-0.000309614
0.000295175
-0.000444764
0.000401786
-0.000612944
0.000533069
-0.000818225
0.000692445
-0.00106486
0.00088345
-0.00135716
0.00110961
-0.00169933
0.00137429
-0.0020952
0.00168045
-0.00254789
0.00203043
-0.00305927
0.00242563
-0.00362915
0.00286638
-0.0042546
0.00335102
-0.00492476
-0.00556814
0.00387086
3.15788e-06
-7.13436e-07
1.3483e-05
-1.55065e-05
3.24871e-05
-4.60138e-05
6.19011e-05
-9.49053e-05
0.000103699
-0.000165179
0.000160116
-0.000260086
0.000233659
-0.000383156
0.000327102
-0.000538207
0.000443472
-0.000729315
0.000586003
-0.000960756
0.000758061
-0.00123692
0.000963036
-0.00156213
0.00120419
-0.00194048
0.00148447
-0.00237548
0.00180629
-0.00286971
0.00217137
-0.00342435
0.00258065
-0.00403843
0.00303436
-0.00470832
0.00352898
-0.00541938
-0.00609534
0.00405617
3.5638e-06
-4.27724e-06
1.51348e-05
-2.70775e-05
3.63165e-05
-6.71955e-05
6.89345e-05
-0.000127523
0.000115058
-0.000211302
0.000177011
-0.000322039
0.00025738
-0.000463525
0.000358993
-0.000639821
0.000484892
-0.000855213
0.000638263
-0.00111413
0.000822341
-0.00142099
0.00104026
-0.00178006
0.00129491
-0.00219512
0.00158866
-0.00266923
0.00192324
-0.0032043
0.00229958
-0.00380069
0.002718
-0.00445685
0.00317906
-0.00516937
0.00369102
-0.00593134
-0.00672898
0.00432466
3.97799e-06
-8.25523e-06
1.68134e-05
-3.99129e-05
4.01951e-05
-9.05772e-05
7.60344e-05
-0.000163363
0.000126483
-0.000261751
0.000193937
-0.000389494
0.000281035
-0.000550622
0.000390622
-0.000749408
0.000525703
-0.000990294
0.00068935
-0.00127777
0.000884577
-0.00161622
0.00111417
-0.00200965
0.00138047
-0.00246142
0.00168518
-0.00297394
0.00202912
-0.00354824
0.0024122
-0.00418377
0.00283355
-0.00487819
0.0032922
-0.00562802
0.00379052
-0.00642966
-0.00728553
0.00434707
4.40003e-06
-1.26553e-05
1.85149e-05
-5.40278e-05
4.41105e-05
-0.000116173
8.31725e-05
-0.000202425
0.000137919
-0.000316497
0.000210796
-0.000462371
0.000304461
-0.000644287
0.000421735
-0.000866682
0.000565529
-0.00113409
0.000738726
-0.00145097
0.000944027
-0.00182152
0.00118375
-0.00224937
0.00145959
-0.00273727
0.00177243
-0.00328677
0.00212205
-0.00389787
0.00250713
-0.00456885
0.00292531
-0.00529637
0.00337339
-0.00607611
0.00384792
-0.00690418
-0.00778752
0.0043499
4.82904e-06
-1.74843e-05
2.0234e-05
-6.94328e-05
4.80468e-05
-0.000143986
9.03132e-05
-0.000244691
0.000149298
-0.000375481
0.00022747
-0.000540544
0.000327473
-0.000744289
0.000452052
-0.000991261
0.000603962
-0.001286
0.00078582
-0.00163283
0.00099992
-0.00203562
0.00124801
-0.00249746
0.00153105
-0.00302031
0.00184895
-0.00360467
0.00220044
-0.00424935
0.00258292
-0.00495133
0.00299259
-0.00570604
0.00342448
-0.006508
0.00387232
-0.00735202
-0.00824418
0.00432898
5.26361e-06
-2.27479e-05
2.19633e-05
-8.61325e-05
5.19835e-05
-0.000174006
9.74132e-05
-0.000290121
0.000160541
-0.000438609
0.000243829
-0.000623833
0.000349864
-0.000850323
0.000481265
-0.00112266
0.000640564
-0.0014453
0.000830034
-0.0018223
0.00105147
-0.00225706
0.00130597
-0.00275196
0.00159366
-0.00330799
0.00191347
-0.00392448
0.00226301
-0.0045989
0.00263856
-0.00532688
0.00303511
-0.00610259
0.00344657
-0.00691945
0.00386554
-0.007771
-0.00866081
0.00428217
5.70172e-06
-2.84496e-05
2.3693e-05
-0.000104124
5.58953e-05
-0.000206208
0.000104421
-0.000338646
0.000171556
-0.000505744
0.000259723
-0.000711999
0.000371405
-0.000962006
0.000509042
-0.0012603
0.000674876
-0.00161113
0.000870758
-0.00201818
0.00109792
-0.00248422
0.00135671
-0.00301075
0.00164638
-0.00359766
0.00196488
-0.00424299
0.00230881
-0.00494283
0.00267344
-0.00569151
0.00305296
-0.00648211
0.00344071
-0.0073072
0.00382927
-0.00815956
-0.00904039
0.00420885
6.14068e-06
-3.45903e-05
2.5411e-05
-0.000123394
5.97519e-05
-0.000240549
0.000111276
-0.000390171
0.00018224
-0.000576708
0.000274986
-0.000804745
0.00039185
-0.00107887
0.000535034
-0.00140348
0.000706424
-0.00178252
0.00090738
-0.00221914
0.00113849
-0.00271533
0.00139934
-0.0032716
0.00168828
-0.0038866
0.00200233
-0.00455704
0.00233717
-0.00527767
0.00268735
-0.00604169
0.0030466
-0.00684136
0.00340822
-0.00766882
0.00376541
-0.00851675
-0.00938477
0.00410979
6.57713e-06
-4.11674e-05
2.7103e-05
-0.00014392
6.35181e-05
-0.000276964
0.000117911
-0.000444564
0.000192477
-0.000651274
0.000289438
-0.000901706
0.000410937
-0.00120037
0.000558877
-0.00155142
0.000734731
-0.00195838
0.000939306
-0.00242371
0.00117251
-0.00294854
0.00143311
-0.0035322
0.00171861
-0.0041721
0.00202518
-0.0048636
0.00234777
-0.00560027
0.00268046
-0.00637438
0.00301686
-0.00717776
0.00335067
-0.00800263
0.00367611
-0.00884218
-0.00969535
0.00398669
7.00712e-06
-4.81746e-05
2.87523e-05
-0.000165665
6.71543e-05
-0.000315366
0.000124252
-0.000501661
0.000202142
-0.000729164
0.000302891
-0.00100245
0.000428394
-0.00132587
0.000580207
-0.00170324
0.000759331
-0.0021375
0.000965975
-0.00263036
0.00119933
-0.00318189
0.00145738
-0.00379025
0.00173681
-0.00445153
0.00203307
-0.00515986
0.00234061
-0.0059078
0.00265328
-0.00668705
0.00296493
-0.00748941
0.00326992
-0.00830762
0.00356371
-0.00913597
-0.00997345
0.00384181
7.42612e-06
-5.56007e-05
3.03405e-05
-0.000188579
7.06174e-05
-0.000355643
0.000130217
-0.000561261
0.000211106
-0.000810053
0.000315148
-0.0011065
0.00044395
-0.00145467
0.000598667
-0.00185795
0.000779784
-0.00231862
0.000986878
-0.00283745
0.00121842
-0.00341343
0.00147164
-0.00404347
0.00174251
-0.0047224
0.00202591
-0.00544327
0.00231599
-0.00619788
0.00260667
-0.00697773
0.00289225
-0.00777498
0.00316801
-0.00858337
0.00343068
-0.00939865
-0.0102205
0.00367769
7.82912e-06
-6.34298e-05
3.18475e-05
-0.000212598
7.38613e-05
-0.000397657
0.000135722
-0.000623122
0.000219232
-0.000893563
0.000326013
-0.00121328
0.000457337
-0.001586
0.000613916
-0.00201453
0.000795684
-0.00250038
0.00100157
-0.00304334
0.00122935
-0.00364121
0.00147555
-0.00428967
0.00173556
-0.00498241
0.00200387
-0.00571157
0.00227453
-0.00646855
0.00254175
-0.00724495
0.00280051
-0.00803374
0.00304711
-0.00882998
0.00327956
-0.0096311
-0.0104378
0.0034969
8.21074e-06
-7.16406e-05
3.32522e-05
-0.000237639
7.68379e-05
-0.000441243
0.000140682
-0.000686966
0.000226387
-0.000979268
0.000335294
-0.00132218
0.000468299
-0.001719
0.00062564
-0.00217188
0.000806678
-0.00268142
0.0010097
-0.00324637
0.00123182
-0.00386333
0.00146895
-0.0045268
0.00171603
-0.00522949
0.00196734
-0.00596288
0.00221705
-0.00671826
0.00245986
-0.00748776
0.00269154
-0.00826543
0.00290947
-0.0090479
0.00311281
-0.00983445
-0.0106269
0.00330196
8.56533e-06
-8.02059e-05
3.45327e-05
-0.000263607
7.94986e-05
-0.000486208
0.000145011
-0.000752478
0.000232437
-0.00106669
0.000342804
-0.00143255
0.000476601
-0.0018528
0.000633563
-0.00232884
0.000812472
-0.00286033
0.001011
-0.00344489
0.00122564
-0.00407797
0.00145183
-0.00475299
0.00168417
-0.00546184
0.00191694
-0.00619565
0.00214461
-0.00694592
0.00236247
-0.00770563
0.00256723
-0.00847019
0.00275727
-0.00923794
0.00293278
-0.01001
-0.0107894
0.00309521
8.8871e-06
-8.9093e-05
3.5667e-05
-0.000290387
8.1795e-05
-0.000532336
0.000148624
-0.000819307
0.000237257
-0.00115533
0.000348376
-0.00154367
0.000482033
-0.00198646
0.000637453
-0.00248426
0.000812842
-0.00303572
0.00100529
-0.00363734
0.00121077
-0.00428345
0.00142434
-0.00496655
0.00164044
-0.00567794
0.00185348
-0.00640869
0.00205838
-0.00715082
0.00225118
-0.00789843
0.00242947
-0.00864848
0.00259261
-0.00940108
0.00274164
-0.010159
-0.0109265
0.00287876
9.17027e-06
-9.82632e-05
3.66334e-05
-0.00031785
8.36802e-05
-0.000579383
0.000151442
-0.000887069
0.000240731
-0.00124462
0.000351856
-0.00165479
0.000484419
-0.00211902
0.000637126
-0.00263696
0.000807638
-0.00320623
0.000992515
-0.00382221
0.0011873
-0.00447824
0.00138679
-0.00516604
0.00158542
-0.00587657
0.00177788
-0.00660115
0.00195966
-0.0073326
0.00212758
-0.00806635
0.00228012
-0.00880102
0.00241747
-0.00953843
0.00254136
-0.0102829
-0.0110396
0.00265449
9.40915e-06
-0.000107672
3.74109e-05
-0.000345851
8.51101e-05
-0.000627082
0.000153393
-0.000955352
0.000242755
-0.00133398
0.000353115
-0.00176515
0.000483617
-0.00224952
0.000632459
-0.00278581
0.000796788
-0.00337056
0.000972707
-0.00399813
0.00115543
-0.00466096
0.00133961
-0.00535022
0.00151983
-0.0060568
0.00169118
-0.00677249
0.00184978
-0.0074912
0.00199325
-0.00820982
0.00212091
-0.00892868
0.00223365
-0.00965117
0.0023337
-0.0103829
-0.0111299
0.00242403
9.59832e-06
-0.000117271
3.79801e-05
-0.000374233
8.60441e-05
-0.000675146
0.000154411
-0.00102372
0.000243241
-0.00142281
0.00035205
-0.00187396
0.000479525
-0.002377
0.00062338
-0.00292966
0.000780297
-0.00352748
0.000945998
-0.00416383
0.00111547
-0.00483043
0.00128336
-0.00551811
0.0014445
-0.00621794
0.00159447
-0.00692246
0.00173008
-0.00762681
0.00184974
-0.00832948
0.00195348
-0.00903241
0.00204278
-0.00974047
0.00212019
-0.0104604
-0.0111985
0.00218879
9.73266e-06
-0.000127003
3.83229e-05
-0.000402823
8.64461e-05
-0.00072327
0.000154439
-0.00109171
0.000242116
-0.00151049
0.000348585
-0.00198043
0.000472086
-0.0025005
0.00060988
-0.00306746
0.000758244
-0.00367584
0.000912604
-0.00431819
0.00106783
-0.00498566
0.00121867
-0.00566895
0.00136031
-0.00635957
0.00148887
-0.00705103
0.00160189
-0.00773983
0.00169848
-0.00842607
0.00177931
-0.00911324
0.0018463
-0.00980746
0.00190218
-0.0105162
-0.0112463
0.00194997
9.80756e-06
-0.000136811
3.84235e-05
-0.000431439
8.62854e-05
-0.000771131
0.000153434
-0.00115886
0.000239328
-0.00159638
0.000342673
-0.00208378
0.000461281
-0.00261911
0.000592004
-0.00319818
0.000730778
-0.00381462
0.000872824
-0.00446024
0.00101299
-0.00512582
0.00114624
-0.0058022
0.00126817
-0.00648151
0.00137552
-0.00715837
0.00146648
-0.0078308
0.00154083
-0.00850043
0.00159977
-0.00917218
0.0016455
-0.00985319
0.00168082
-0.0105516
-0.0112741
0.00170861
9.81891e-06
-0.00014663
3.82685e-05
-0.000459889
8.55372e-05
-0.0008184
0.000151361
-0.00122468
0.000234844
-0.00167986
0.000334297
-0.00218323
0.000447136
-0.00273194
0.000569851
-0.00332089
0.000698113
-0.00394288
0.000827022
-0.00458915
0.000951505
-0.00525031
0.00106681
-0.00591751
0.00116903
-0.00658372
0.00125549
-0.00724483
0.00132504
-0.00790035
0.00137803
-0.00855341
0.00141604
-0.00921019
0.00144148
-0.00987864
0.00145712
-0.0105672
-0.0112826
0.00146558
9.76325e-06
-0.000156393
3.78472e-05
-0.000487973
8.41832e-05
-0.000864736
0.0001482
-0.0012887
0.000228649
-0.00176031
0.00032347
-0.00227805
0.000429716
-0.00283819
0.000543572
-0.00343475
0.000660516
-0.00405982
0.000775616
-0.00470425
0.000883962
-0.00535865
0.000981161
-0.00601471
0.00106381
-0.00666637
0.00112984
-0.00731087
0.0011787
-0.0079492
0.00121119
-0.0085859
0.0012292
-0.0092282
0.00123523
-0.00988467
0.00123192
-0.0105639
-0.0112723
0.00122165
9.63782e-06
-0.000166031
3.71515e-05
-0.000515487
8.22119e-05
-0.000909796
0.000143941
-0.00135043
0.000220751
-0.00183712
0.000310234
-0.00236753
0.000409123
-0.00293708
0.000513359
-0.00353899
0.000618302
-0.00416476
0.00071907
-0.00480501
0.000810985
-0.00545057
0.000890062
-0.00609378
0.000953425
-0.00672973
0.000999584
-0.00735703
0.00102848
-0.0079781
0.00104132
-0.00859874
0.00104019
-0.00922706
0.00102759
-0.00987207
0.00100597
-0.0105423
-0.0112438
0.000977461
9.44059e-06
-0.000175472
3.61767e-05
-0.000542223
7.96185e-05
-0.000953238
0.000138589
-0.0014094
0.000211177
-0.00190971
0.000294658
-0.00245102
0.000385493
-0.00302791
0.000479445
-0.00363294
0.000571825
-0.00425715
0.000657874
-0.00489106
0.00073321
-0.0055259
0.000794285
-0.00615486
0.00083875
-0.00677419
0.000865639
-0.00738392
0.000875341
-0.0079878
0.000869346
-0.00859275
0.000849849
-0.00920757
0.000819293
-0.00984151
0.000779938
-0.0105029
-0.0111975
0.0007336
9.17031e-06
-0.000184642
3.4921e-05
-0.000567973
7.64055e-05
-0.000994723
0.000132159
-0.00146515
0.00019997
-0.00197752
0.000276835
-0.00252788
0.000358994
-0.00311007
0.000442093
-0.00371604
0.000521467
-0.00433652
0.000592542
-0.00496214
0.000651277
-0.00558464
0.000694582
-0.00619816
0.000720613
-0.00680023
0.000728877
-0.00739218
0.000720127
-0.00797906
0.000696061
-0.00856868
0.000658905
-0.00917041
0.000610993
-0.0097936
0.000554374
-0.0104463
-0.0111337
0.00049058
8.82654e-06
-0.000193468
3.33855e-05
-0.000592532
7.2582e-05
-0.00103392
0.000124679
-0.00151725
0.000187193
-0.00204004
0.000256882
-0.00259757
0.000329819
-0.00318301
0.000401594
-0.00378781
0.000467631
-0.00440256
0.000523595
-0.0050181
0.00056582
-0.00562686
0.000591675
-0.00622402
0.000599793
-0.00680834
0.000590096
-0.00738249
0.000563621
-0.00795258
0.000522194
-0.00852725
0.000468013
-0.00911623
0.00040326
-0.00972885
0.00032975
-0.0103728
-0.0110528
0.000248901
8.40963e-06
-0.000201878
3.15748e-05
-0.000615698
6.81637e-05
-0.00107051
0.000116188
-0.00156527
0.000172924
-0.00209677
0.000234934
-0.00265958
0.00029818
-0.00324626
0.000358256
-0.00384789
0.000410732
-0.00445503
0.000451555
-0.00505893
0.000477455
-0.00565276
0.000486254
-0.00623282
0.000477019
-0.00679911
0.000450025
-0.00735549
0.000406523
-0.00790908
0.000348394
-0.00846913
0.000277757
-0.0090456
0.000196644
-0.00964773
0.000106526
-0.0102827
-0.0109538
7.46539e-06
7.92075e-06
-0.000209799
2.94961e-05
-0.000637273
6.31727e-05
-0.00110418
0.000106735
-0.00160884
0.000157254
-0.00214729
0.000211145
-0.00271347
0.000264308
-0.00329942
0.000312402
-0.00389598
0.00035119
-0.00449382
0.000376938
-0.00508467
0.000386778
-0.0056626
0.000378967
-0.006225
0.000352964
-0.00677311
0.000309331
-0.00731186
0.000249465
-0.00784921
0.000175248
-0.00839491
8.8655e-05
-0.008959
-8.51378e-06
-0.00955057
-0.000114664
-0.0101765
-0.0108393
-0.000229135
7.36181e-06
-0.000217161
2.71594e-05
-0.00065707
5.76365e-05
-0.00113466
9.63777e-05
-0.00164758
0.000140289
-0.0021912
0.00018568
-0.00275886
0.000228448
-0.00334219
0.000264363
-0.0039319
0.000289426
-0.00451888
0.000300244
-0.00509549
0.000294356
-0.00565672
0.000270422
-0.00620107
0.000228248
-0.00673093
0.000168622
-0.00725223
9.30192e-05
-0.00777361
3.24748e-06
-0.00830514
-9.87911e-05
-0.00885696
-0.000211495
-0.00943786
-0.000333707
-0.0100543
-0.0107084
-0.000464567
6.73548e-06
-0.000223896
2.45774e-05
-0.000674912
5.15882e-05
-0.00116167
8.51831e-05
-0.00168117
0.000122141
-0.00222816
0.000158716
-0.00279544
0.00019085
-0.00337432
0.000214472
-0.00395552
0.000225854
-0.00453027
0.00022196
-0.0050916
0.000200725
-0.00563548
0.000161185
-0.00616153
0.00010344
-0.00667319
2.84456e-05
-0.00717724
-6.229e-05
-0.00768287
-0.000167041
-0.00820039
-0.00028416
-0.00873984
-0.000412183
-0.00930984
-0.000550068
-0.00991641
-0.0105613
-0.000697167
6.0451e-06
-0.000229941
2.17653e-05
-0.000690633
4.50653e-05
-0.00118497
7.32239e-05
-0.00170933
0.000102933
-0.00225787
0.000130437
-0.00282294
0.00015177
-0.00339565
0.00016306
-0.00396681
0.000160877
-0.00452808
0.000142548
-0.00507327
0.00010639
-0.00559932
5.17785e-05
-0.00610692
-2.09411e-05
-0.00660047
-0.000110694
-0.00708749
-0.000215998
-0.00757757
-0.000335271
-0.00808111
-0.000467054
-0.00860806
-0.000610094
-0.0091668
-0.000763455
-0.00976305
-0.0103982
-0.000926577
5.29465e-06
-0.000235236
1.87403e-05
-0.000704078
3.81095e-05
-0.00120434
6.05784e-05
-0.0017318
8.27927e-05
-0.00228008
0.000101034
-0.00284118
0.000111467
-0.00340609
0.000110455
-0.0039658
9.48843e-05
-0.00451251
6.24477e-05
-0.00504083
1.18208e-05
-0.0055487
-5.73169e-05
-0.00603778
-0.00014442
-0.00651336
-0.000248346
-0.00698356
-0.000367678
-0.00745824
-0.000501002
-0.00794779
-0.000647081
-0.00846198
-0.000804868
-0.00900901
-0.00097352
-0.0095944
-0.0102193
-0.00115247
4.4887e-06
-0.000239724
1.55212e-05
-0.000715111
3.07656e-05
-0.00121959
4.73299e-05
-0.00174836
6.1854e-05
-0.00229461
7.06966e-05
-0.00285002
7.01954e-05
-0.00340559
5.69726e-05
-0.00395257
2.82496e-05
-0.00448379
-1.79284e-05
-0.00499466
-8.25477e-05
-0.00548408
-0.000165661
-0.00595467
-0.000266568
-0.00641246
-0.0003841
-0.00686603
-0.000516935
-0.0073254
-0.000663857
-0.00780087
-0.00082387
-0.00830197
-0.000996142
-0.00883674
-0.00117992
-0.00941062
-0.0100247
-0.00137452
3.63236e-06
-0.000243357
1.2129e-05
-0.000723607
2.30814e-05
-0.00123054
3.35647e-05
-0.00175885
4.02519e-05
-0.00230129
3.96181e-05
-0.00284939
2.8208e-05
-0.00339418
2.93295e-06
-0.0039273
-3.86741e-05
-0.00444218
-9.81957e-05
-0.00493513
-0.000176313
-0.00540596
-0.000272851
-0.00585813
-0.000386995
-0.00629831
-0.00051758
-0.00673544
-0.000663409
-0.00717958
-0.000823479
-0.0076408
-0.000997057
-0.00812839
-0.00118355
-0.00865024
-0.0013823
-0.00921187
-0.00981454
-0.00159242
2.73124e-06
-0.000246088
8.58549e-06
-0.000729462
1.51067e-05
-0.00123706
1.93712e-05
-0.00176311
1.81228e-05
-0.00230005
7.99027e-06
-0.00283926
-1.42541e-05
-0.00337193
-5.14023e-05
-0.00389015
-0.000105556
-0.00438803
-0.000177993
-0.0048627
-0.000269105
-0.00531485
-0.000378523
-0.00574871
-0.000505348
-0.00617149
-0.00064845
-0.00659234
-0.000806772
-0.00702125
-0.000979535
-0.00746803
-0.00116629
-0.00794164
-0.00136672
-0.00844981
-0.00158031
-0.00899829
-0.009589
-0.00180585
1.79185e-06
-0.00024788
4.9143e-06
-0.000732584
6.89271e-06
-0.00123904
4.83994e-06
-0.00176106
-4.39567e-06
-0.00229081
-2.40072e-05
-0.00281965
-5.69557e-05
-0.00333898
-0.000105721
-0.00384138
-0.000172079
-0.00432167
-0.000256987
-0.00477779
-0.000360585
-0.00521125
-0.000482343
-0.00562695
-0.000621309
-0.00603252
-0.000776406
-0.00643724
-0.000946725
-0.00685094
-0.00113172
-0.00728304
-0.00133122
-0.00774213
-0.00154527
-0.00823577
-0.00177356
-0.00876999
-0.00934808
-0.00201449
8.28888e-07
-0.000248709
1.13609e-06
-0.000732891
-1.50936e-06
-0.00123639
-9.94192e-06
-0.00175263
-2.71761e-05
-0.00227358
-5.61872e-05
-0.00279063
-9.96649e-05
-0.00329551
-0.00015977
-0.00378128
-0.000237952
-0.00424349
-0.000334872
-0.00468087
-0.000450446
-0.00509568
-0.000584013
-0.00549339
-0.000734592
-0.00588194
-0.000901176
-0.00627066
-0.001083
-0.00666911
-0.00127973
-0.00708631
-0.00149152
-0.00753035
-0.00171878
-0.0080085
-0.00196164
-0.00852713
-0.0090917
-0.00221801
-1.96902e-07
-0.000248512
-2.72221e-06
-0.000730366
-1.00453e-05
-0.00122907
-2.48827e-05
-0.00173779
-5.00786e-05
-0.00224838
-8.83743e-05
-0.00275234
-0.000142168
-0.00324171
-0.000213298
-0.00371015
-0.000302901
-0.00415388
-0.000411365
-0.00457241
-0.000538407
-0.00496863
-0.000683262
-0.00534853
-0.000844943
-0.00572026
-0.00102252
-0.00609308
-0.00121536
-0.00647627
-0.00142334
-0.00687833
-0.00164687
-0.00730682
-0.00188684
-0.00776853
-0.00214404
-0.00826993
-0.00881963
-0.00241611
-1.2002e-06
-0.000247312
-6.63342e-06
-0.000724933
-1.8664e-05
-0.00121704
-3.98944e-05
-0.00171656
-7.29779e-05
-0.0022153
-0.000120401
-0.00270492
-0.000184259
-0.00317785
-0.000266074
-0.00362833
-0.000366677
-0.00405328
-0.000486207
-0.00445288
-0.00062421
-0.00483063
-0.000779844
-0.0051929
-0.00095213
-0.00554798
-0.00114022
-0.00590499
-0.00134361
-0.00627287
-0.00156233
-0.00665961
-0.00179701
-0.00707214
-0.00204904
-0.0075165
-0.00232023
-0.00799874
-0.00853141
-0.00260846
-2.2339e-06
-0.000245078
-1.05785e-05
-0.000716588
-2.73135e-05
-0.0012003
-5.48912e-05
-0.00168898
-9.57502e-05
-0.00217444
-0.000152105
-0.00264856
-0.000225746
-0.00310421
-0.000317877
-0.0035362
-0.000429046
-0.00394211
-0.000559162
-0.00432276
-0.000707625
-0.00468217
-0.000873537
-0.00502699
-0.00105595
-0.00536557
-0.00125409
-0.00570685
-0.00146758
-0.00605938
-0.00169653
-0.00643065
-0.00194173
-0.00682694
-0.00220496
-0.00725328
-0.00248926
-0.00771444
-0.00822641
-0.00279425
-3.27446e-06
-0.000241803
-1.45313e-05
-0.000705331
-3.59428e-05
-0.00117889
-6.97895e-05
-0.00165513
-0.000118277
-0.00212595
-0.000183335
-0.0025835
-0.000266445
-0.0030211
-0.000368507
-0.00343414
-0.000489794
-0.00382082
-0.000630012
-0.00418254
-0.000788439
-0.00452374
-0.000964141
-0.00485128
-0.00115621
-0.0051735
-0.00136396
-0.0054991
-0.00158711
-0.00583623
-0.00182586
-0.00619191
-0.00208097
-0.00657183
-0.00235418
-0.00698006
-0.00264966
-0.00741896
-0.00790178
-0.0029743
-4.31488e-06
-0.000237488
-1.84673e-05
-0.000691179
-4.45018e-05
-0.00115286
-8.45083e-05
-0.00161513
-0.000140443
-0.00207002
-0.000213946
-0.00251
-0.000306189
-0.00292886
-0.000417774
-0.00332256
-0.000548724
-0.00368987
-0.000698559
-0.00403271