0.0285166 	0.499829 	-5.29264e-19 	0.905077 	-0.0345863 	-4.8226e-17
