/*--------------------------------*- C++ -*----------------------------------*\
  =========                 |
  \\      /  F ield         | OpenFOAM: The Open Source CFD Toolbox
   \\    /   O peration     | Website:  https://openfoam.org
    \\  /    A nd           | Version:  7
     \\/     M anipulation  |
\*---------------------------------------------------------------------------*/
FoamFile
{
    version     2.0;
    format      ascii;
    class       volScalarField;
    location    "87.000186";
    object      p;
}
// * * * * * * * * * * * * * * * * * * * * * * * * * * * * * * * * * * * * * //

dimensions      [0 2 -2 0 0 0 0];

internalField   nonuniform List<scalar> 
23200
(
-0.219247
-0.221024
-0.222099
-0.22294
-0.223673
-0.224321
-0.224921
-0.225501
-0.226069
-0.226625
-0.227155
-0.227638
-0.228046
-0.228347
-0.228502
-0.228469
-0.228208
-0.227703
-0.226924
-0.225784
-0.21927
-0.221029
-0.222092
-0.222922
-0.223644
-0.224278
-0.224862
-0.225422
-0.225965
-0.22649
-0.226983
-0.22742
-0.227773
-0.228006
-0.22808
-0.227952
-0.227578
-0.226943
-0.226026
-0.224643
-0.219562
-0.221274
-0.222308
-0.223114
-0.223813
-0.224424
-0.224983
-0.225515
-0.226027
-0.226516
-0.226967
-0.227356
-0.227651
-0.227817
-0.227811
-0.227588
-0.227096
-0.22632
-0.225274
-0.223499
-0.220112
-0.221749
-0.222739
-0.223508
-0.224172
-0.22475
-0.225275
-0.225771
-0.226246
-0.226694
-0.227098
-0.227435
-0.227671
-0.227769
-0.227683
-0.227368
-0.226758
-0.225821
-0.224701
-0.222325
-0.220904
-0.222442
-0.223372
-0.224093
-0.22471
-0.225244
-0.225726
-0.226178
-0.226607
-0.227006
-0.227359
-0.22764
-0.227816
-0.227845
-0.22768
-0.227276
-0.226555
-0.225416
-0.224348
-0.22107
-0.221915
-0.223335
-0.224193
-0.224853
-0.225413
-0.225891
-0.226319
-0.226716
-0.22709
-0.227434
-0.227729
-0.227949
-0.228059
-0.228019
-0.227775
-0.227285
-0.226476
-0.22505
-0.224276
-0.219639
-0.223122
-0.224409
-0.225182
-0.22577
-0.226261
-0.226672
-0.227034
-0.227366
-0.227674
-0.227951
-0.228179
-0.228332
-0.228373
-0.22826
-0.227936
-0.227358
-0.226511
-0.224635
-0.224545
-0.217942
-0.224499
-0.225642
-0.226322
-0.226827
-0.227236
-0.227568
-0.227849
-0.228102
-0.228331
-0.228531
-0.228682
-0.228758
-0.228722
-0.228533
-0.228126
-0.227443
-0.226653
-0.22411
-0.225105
-0.216183
-0.226019
-0.227013
-0.227592
-0.228004
-0.22832
-0.228557
-0.228744
-0.228902
-0.229037
-0.229145
-0.229206
-0.229194
-0.229073
-0.228801
-0.228309
-0.227483
-0.226835
-0.223666
-0.225307
-0.214787
-0.22766
-0.228505
-0.228976
-0.229286
-0.229494
-0.229621
-0.229697
-0.229742
-0.229767
-0.229766
-0.229723
-0.22961
-0.229391
-0.229026
-0.228449
-0.227509
-0.226848
-0.223246
-0.22561
-0.213169
-0.229403
-0.230102
-0.230461
-0.230657
-0.230744
-0.230745
-0.23069
-0.230605
-0.2305
-0.230372
-0.230208
-0.229979
-0.22965
-0.229179
-0.228502
-0.227431
-0.226821
-0.22258
-0.226009
-0.211408
-0.231236
-0.231794
-0.232036
-0.232109
-0.23206
-0.231915
-0.23171
-0.231473
-0.231217
-0.230944
-0.23064
-0.23028
-0.229825
-0.229236
-0.228454
-0.227209
-0.226722
-0.221673
-0.226318
-0.209649
-0.233153
-0.233578
-0.233699
-0.233636
-0.233435
-0.233126
-0.23275
-0.232338
-0.231911
-0.231471
-0.231009
-0.2305
-0.229905
-0.229182
-0.228288
-0.226835
-0.226472
-0.220605
-0.226264
-0.208133
-0.235159
-0.235457
-0.235451
-0.235241
-0.23487
-0.234377
-0.233806
-0.233198
-0.232577
-0.231951
-0.231312
-0.230638
-0.229888
-0.229013
-0.227992
-0.226319
-0.225977
-0.219502
-0.225506
-0.207075
-0.237266
-0.237443
-0.237303
-0.23693
-0.236371
-0.235671
-0.234885
-0.234058
-0.233222
-0.23239
-0.231557
-0.230702
-0.229782
-0.228738
-0.227561
-0.22568
-0.225142
-0.21848
-0.223766
-0.206434
-0.239498
-0.239555
-0.239271
-0.238719
-0.237952
-0.237024
-0.235999
-0.234932
-0.23386
-0.232804
-0.231761
-0.230709
-0.229602
-0.228368
-0.226991
-0.224916
-0.223905
-0.217526
-0.221016
-0.205824
-0.241887
-0.241819
-0.241376
-0.240628
-0.239632
-0.238455
-0.237169
-0.235841
-0.234516
-0.233219
-0.23195
-0.230684
-0.229368
-0.227917
-0.226277
-0.223995
-0.222262
-0.216452
-0.217497
-0.204727
-0.244474
-0.244267
-0.243651
-0.242686
-0.241438
-0.239988
-0.238422
-0.236815
-0.23522
-0.233667
-0.232156
-0.230656
-0.229102
-0.22739
-0.225413
-0.222847
-0.220244
-0.214966
-0.213489
-0.20283
-0.247308
-0.24694
-0.24613
-0.244924
-0.2434
-0.241657
-0.239792
-0.23789
-0.23601
-0.234187
-0.232416
-0.230655
-0.228818
-0.226779
-0.224378
-0.221393
-0.217877
-0.212827
-0.209046
-0.200168
-0.250443
-0.249882
-0.248852
-0.247379
-0.245557
-0.2435
-0.241318
-0.239104
-0.236928
-0.234818
-0.232762
-0.230699
-0.228518
-0.226063
-0.223134
-0.219573
-0.215172
-0.209937
-0.20414
-0.196999
-0.253934
-0.253142
-0.25186
-0.250092
-0.247947
-0.245555
-0.24304
-0.240504
-0.238014
-0.235596
-0.23322
-0.2308
-0.228189
-0.225207
-0.221632
-0.217355
-0.21212
-0.206342
-0.199196
-0.193196
-0.25784
-0.256769
-0.255199
-0.253107
-0.250613
-0.247868
-0.245004
-0.24213
-0.239309
-0.236553
-0.233807
-0.23095
-0.227804
-0.22417
-0.219831
-0.214735
-0.208693
-0.202163
-0.194592
-0.187879
-0.262216
-0.26081
-0.258913
-0.256466
-0.253599
-0.250481
-0.247254
-0.244024
-0.240847
-0.237708
-0.234521
-0.231127
-0.227321
-0.222905
-0.217702
-0.211732
-0.204884
-0.197689
-0.18964
-0.182355
-0.267116
-0.265312
-0.263048
-0.260215
-0.256949
-0.253439
-0.249832
-0.246225
-0.242653
-0.239069
-0.235346
-0.231291
-0.22669
-0.221373
-0.215235
-0.208369
-0.200768
-0.192945
-0.184511
-0.176864
-0.272588
-0.270318
-0.267645
-0.264395
-0.260707
-0.256787
-0.252778
-0.248761
-0.24474
-0.240624
-0.236245
-0.23139
-0.225861
-0.219546
-0.212432
-0.204689
-0.196388
-0.188018
-0.179245
-0.171302
-0.278673
-0.275869
-0.272746
-0.269048
-0.264915
-0.260563
-0.256124
-0.251652
-0.247103
-0.242342
-0.237165
-0.231363
-0.224785
-0.217405
-0.20931
-0.20073
-0.191794
-0.18294
-0.173861
-0.165701
-0.285405
-0.281997
-0.278384
-0.274212
-0.269611
-0.264801
-0.259895
-0.254898
-0.249718
-0.244171
-0.23804
-0.231145
-0.223421
-0.214941
-0.205888
-0.196526
-0.187015
-0.177727
-0.168379
-0.160012
-0.292806
-0.288727
-0.284589
-0.279919
-0.274827
-0.269528
-0.264097
-0.258484
-0.252537
-0.24604
-0.238788
-0.230673
-0.221735
-0.212153
-0.202183
-0.192098
-0.182064
-0.172381
-0.162786
-0.154227
-0.300887
-0.296075
-0.291382
-0.286192
-0.280583
-0.274752
-0.268717
-0.262364
-0.255486
-0.247858
-0.239326
-0.229886
-0.219701
-0.209041
-0.198205
-0.187453
-0.176941
-0.166891
-0.157071
-0.148323
-0.309642
-0.304043
-0.298771
-0.293042
-0.286886
-0.280461
-0.273716
-0.266466
-0.258468
-0.249522
-0.239567
-0.228732
-0.217298
-0.205603
-0.193955
-0.182588
-0.171633
-0.161241
-0.151216
-0.142284
-0.319046
-0.312616
-0.306748
-0.300463
-0.293718
-0.286615
-0.279023
-0.270689
-0.261364
-0.25092
-0.239429
-0.227165
-0.214507
-0.201828
-0.189424
-0.177487
-0.16612
-0.15541
-0.145199
-0.136092
-0.329052
-0.321758
-0.315284
-0.308424
-0.301035
-0.293143
-0.284531
-0.2749
-0.26404
-0.25194
-0.238838
-0.225144
-0.211306
-0.197702
-0.184593
-0.172127
-0.160377
-0.149373
-0.138998
-0.129727
-0.339586
-0.331411
-0.324326
-0.316865
-0.308757
-0.299935
-0.290101
-0.278947
-0.266351
-0.252473
-0.237724
-0.222628
-0.207667
-0.193198
-0.179435
-0.166481
-0.154376
-0.143106
-0.13259
-0.123171
-0.350541
-0.341484
-0.333789
-0.325693
-0.316768
-0.306844
-0.295562
-0.282656
-0.268154
-0.252416
-0.236023
-0.219576
-0.203559
-0.188285
-0.173918
-0.160516
-0.148089
-0.136583
-0.125953
-0.116405
-0.361779
-0.351857
-0.343554
-0.334777
-0.32491
-0.313684
-0.300718
-0.285847
-0.269305
-0.251674
-0.233672
-0.215943
-0.198942
-0.182927
-0.168007
-0.1542
-0.141484
-0.12978
-0.119065
-0.109411
-0.373128
-0.362375
-0.353468
-0.343946
-0.332988
-0.32024
-0.305354
-0.288336
-0.269672
-0.250156
-0.23061
-0.211683
-0.193776
-0.177084
-0.161665
-0.147499
-0.134535
-0.122672
-0.111905
-0.102173
-0.38438
-0.372848
-0.363336
-0.352988
-0.340769
-0.326271
-0.309247
-0.289946
-0.269128
-0.247777
-0.226777
-0.206743
-0.188012
-0.170713
-0.154853
-0.140379
-0.127212
-0.115236
-0.104451
-0.0946754
-0.395292
-0.383049
-0.372929
-0.361657
-0.34799
-0.331518
-0.312173
-0.290506
-0.267557
-0.244458
-0.222111
-0.201073
-0.181605
-0.163772
-0.147535
-0.132808
-0.119489
-0.107451
-0.0966855
-0.0869035
-0.405594
-0.392723
-0.381981
-0.369674
-0.354366
-0.335716
-0.313917
-0.289862
-0.26485
-0.24012
-0.21655
-0.194619
-0.174508
-0.15622
-0.139674
-0.124759
-0.111345
-0.0992973
-0.0885916
-0.0788493
-0.414986
-0.401582
-0.390202
-0.376735
-0.359602
-0.338604
-0.314275
-0.287868
-0.260909
-0.234691
-0.210034
-0.187328
-0.166673
-0.148016
-0.131239
-0.116202
-0.102756
-0.090758
-0.080159
-0.0705132
-0.423154
-0.409318
-0.397276
-0.382523
-0.363397
-0.339932
-0.313061
-0.284396
-0.255644
-0.228101
-0.202505
-0.17915
-0.158058
-0.139126
-0.122199
-0.107116
-0.093705
-0.0818174
-0.0713802
-0.0619009
-0.429767
-0.415611
-0.402877
-0.386718
-0.365464
-0.339469
-0.31011
-0.279334
-0.248974
-0.220287
-0.193911
-0.17004
-0.148626
-0.129517
-0.112531
-0.0974794
-0.0841747
-0.0724604
-0.0622447
-0.0530075
-0.434496
-0.42013
-0.406675
-0.389003
-0.365528
-0.337006
-0.305277
-0.272584
-0.240828
-0.211193
-0.184203
-0.159958
-0.138343
-0.119165
-0.102213
-0.0872783
-0.0741522
-0.0626751
-0.0527376
-0.0437999
-0.437016
-0.422553
-0.408348
-0.389081
-0.363345
-0.332365
-0.298443
-0.264064
-0.231145
-0.200769
-0.173341
-0.14887
-0.127183
-0.108049
-0.0912318
-0.0765008
-0.0636288
-0.0524589
-0.0428571
-0.0342037
-0.437016
-0.422567
-0.407593
-0.386681
-0.3587
-0.325397
-0.289512
-0.25371
-0.219879
-0.188977
-0.161294
-0.136752
-0.115127
-0.0961533
-0.0795745
-0.0651379
-0.052601
-0.0418173
-0.0326314
-0.0241625
-0.434212
-0.419884
-0.404133
-0.381566
-0.351417
-0.315988
-0.278411
-0.241476
-0.206993
-0.175791
-0.14804
-0.123587
-0.10216
-0.0834695
-0.0672354
-0.0531852
-0.041079
-0.03076
-0.0220662
-0.0137888
-0.428352
-0.414248
-0.397729
-0.373537
-0.341359
-0.304053
-0.265094
-0.227332
-0.19247
-0.161193
-0.133565
-0.109364
-0.0882775
-0.069996
-0.0542248
-0.0406522
-0.0290893
-0.0193234
-0.0110442
-0.00324993
-0.419221
-0.405441
-0.388184
-0.362443
-0.328431
-0.289546
-0.249541
-0.21127
-0.176302
-0.145177
-0.117862
-0.0940799
-0.0734949
-0.0557502
-0.0405724
-0.0275882
-0.0166171
-0.00747398
0.000341966
0.00751462
-0.406654
-0.393291
-0.375348
-0.348182
-0.312581
-0.27245
-0.231754
-0.193299
-0.158496
-0.12775
-0.100951
-0.0777542
-0.0578531
-0.0407742
-0.0262656
-0.0139777
-0.00369329
0.00477509
0.0120434
0.0185287
-0.390532
-0.377675
-0.359125
-0.330699
-0.293797
-0.252784
-0.211762
-0.173441
-0.139071
-0.108944
-0.0828845
-0.0604625
-0.041329
-0.0250619
-0.0113428
0.000154579
0.0096616
0.0173946
0.0240352
0.0297843
-0.370794
-0.358525
-0.339473
-0.309988
-0.272111
-0.230598
-0.189616
-0.151745
-0.118078
-0.088847
-0.0636763
-0.0421911
-0.0239831
-0.00864875
0.00416377
0.0147754
0.0234205
0.0303525
0.036296
0.0412567
-0.34743
-0.335829
-0.316401
-0.286095
-0.247598
-0.205975
-0.165393
-0.12829
-0.095629
-0.0674494
-0.0433792
-0.0229927
-0.00586052
0.00841995
0.0202152
0.0298468
0.0375497
0.0436146
0.0487965
0.0529122
-0.320489
-0.309627
-0.289976
-0.259118
-0.220375
-0.179015
-0.139189
-0.103175
-0.0717517
-0.0448474
-0.0220597
-0.00293001
0.0129846
0.0260922
0.0367655
0.0453259
0.0520097
0.0571437
0.0615006
0.0647106
-0.290074
-0.280013
-0.26032
-0.229213
-0.190576
-0.149825
-0.111131
-0.0764969
-0.0465491
-0.0211281
0.000203084
0.0179245
0.0324889
0.0443096
0.0537619
0.0611642
0.0667566
0.0709003
0.0743704
0.0766103
-0.256339
-0.247139
-0.227614
-0.196552
-0.158293
-0.118595
-0.0813659
-0.048382
-0.020136
0.00360798
0.0233185
0.0394893
0.0525798
0.0630067
0.0711448
0.0773074
0.0817424
0.0848454
0.0873723
0.0885768
-0.219471
-0.211213
-0.192069
-0.161222
-0.123759
-0.085545
-0.0500609
-0.0189767
0.00735832
0.0292478
0.0471854
0.0616739
0.0731765
0.0821113
0.0888485
0.0936953
0.0969157
0.0989403
0.10047
0.100567
-0.179657
-0.172524
-0.153835
-0.123414
-0.0873479
-0.0508624
-0.0173994
0.0115573
0.0357921
0.0556658
0.0716919
0.0843788
0.094191
0.101545
0.106802
0.110265
0.112227
0.113142
0.113588
0.112438
-0.137128
-0.131392
-0.113
-0.0837268
-0.0492359
-0.0147711
0.0164194
0.0430454
0.0650111
0.0827257
0.0967172
0.107497
0.115528
0.121222
0.12493
0.126957
0.127634
0.127398
0.126564
0.12385
-0.0922208
-0.0879923
-0.0702782
-0.0423134
-0.00968592
0.0224869
0.0511834
0.0753007
0.0948504
0.110281
0.122132
0.130913
0.137087
0.141055
0.143157
0.143713
0.143097
0.141633
0.139188
0.134533
-0.0456425
-0.0425481
-0.0259034
0.000525303
0.0310165
0.0606574
0.0866684
0.108126
0.125135
0.138178
0.147799
0.154507
0.158759
0.160947
0.161403
0.160471
0.158547
0.155733
0.151421
0.145124
0.00249212
0.00440587
0.0197981
0.0444545
0.072569
0.0994736
0.12264
0.141314
0.155683
0.166254
0.173575
0.178153
0.180434
0.180801
0.179585
0.177151
0.173869
0.169563
0.163378
0.15763
0.0517953
0.0524499
0.0664537
0.089125
0.114658
0.138659
0.158855
0.17465
0.186304
0.194342
0.199314
0.201719
0.201996
0.200518
0.197616
0.193662
0.18895
0.183124
0.175602
0.170086
0.101834
0.101179
0.113671
0.134178
0.156962
0.177932
0.195066
0.207917
0.216804
0.22227
0.224862
0.225072
0.223328
0.219995
0.215405
0.209918
0.203751
0.196494
0.187918
0.182032
0.152172
0.150179
0.161052
0.179247
0.199156
0.217005
0.231019
0.24089
0.246987
0.249866
0.250067
0.248076
0.244311
0.239128
0.232855
0.225832
0.218218
0.209627
0.200109
0.193544
0.202373
0.199027
0.208193
0.223968
0.240914
0.25559
0.266463
0.273346
0.276656
0.276953
0.274774
0.270596
0.264825
0.257811
0.249872
0.241328
0.232295
0.222443
0.212
0.204591
0.251997
0.247298
0.254695
0.267975
0.281913
0.293404
0.301144
0.305062
0.305611
0.303357
0.29883
0.292495
0.284751
0.275936
0.266363
0.256324
0.245916
0.234861
0.223501
0.215165
0.300613
0.294573
0.300162
0.310911
0.321834
0.330163
0.334814
0.335818
0.33366
0.328907
0.322081
0.313639
0.303969
0.293401
0.282234
0.270743
0.259008
0.246801
0.234535
0.225231
0.347792
0.340439
0.344208
0.352427
0.360367
0.365595
0.367231
0.3654
0.360611
0.353433
0.344379
0.333897
0.322365
0.310102
0.297398
0.284506
0.271499
0.258193
0.245043
0.234752
0.393124
0.384496
0.38646
0.392184
0.397212
0.399433
0.39816
0.393598
0.38628
0.376772
0.36558
0.353142
0.339826
0.325941
0.311766
0.297537
0.28332
0.268973
0.254968
0.243689
0.436209
0.42636
0.426561
0.42986
0.432082
0.431423
0.427374
0.420213
0.41049
0.398768
0.385546
0.371252
0.356244
0.340824
0.325256
0.309761
0.294405
0.279081
0.264259
0.252005
0.476672
0.465665
0.464171
0.46515
0.464705
0.461325
0.454662
0.445056
0.433073
0.419272
0.404145
0.388111
0.371518
0.354659
0.337787
0.32111
0.304691
0.28846
0.272867
0.259667
0.514159
0.502071
0.498973
0.497768
0.494829
0.488914
0.479822
0.467949
0.453871
0.438145
0.421254
0.40361
0.385551
0.367363
0.349287
0.331518
0.314121
0.297059
0.280747
0.266643
0.548341
0.535262
0.530675
0.527451
0.522218
0.513981
0.50267
0.488727
0.472739
0.455257
0.436759
0.417648
0.398256
0.378857
0.359686
0.340925
0.322642
0.304829
0.287857
0.272903
0.578921
0.564949
0.55901
0.553958
0.546659
0.536337
0.523037
0.507242
0.489544
0.470492
0.450557
0.430134
0.40955
0.389072
0.368922
0.349275
0.330204
0.311726
0.294161
0.278423
0.605632
0.590876
0.58374
0.577077
0.567962
0.555814
0.540774
0.523359
0.504167
0.483744
0.462554
0.440987
0.419362
0.397942
0.376939
0.35652
0.336764
0.317711
0.299624
0.283182
0.628242
0.612818
0.604659
0.596621
0.585961
0.572263
0.555749
0.536963
0.516506
0.494921
0.472669
0.450134
0.42763
0.405413
0.383689
0.362617
0.342284
0.322747
0.304216
0.287164
0.646553
0.630587
0.621592
0.612433
0.600518
0.585562
0.567852
0.547954
0.526472
0.503947
0.480835
0.457516
0.4343
0.411437
0.38913
0.36753
0.346732
0.326805
0.307914
0.290355
0.660407
0.644028
0.634397
0.624386
0.611517
0.595608
0.576993
0.556252
0.533995
0.510758
0.486995
0.463083
0.439328
0.415978
0.393229
0.37123
0.35008
0.329861
0.310695
0.292746
0.669683
0.653027
0.642967
0.632382
0.618874
0.602325
0.583103
0.561799
0.539021
0.515307
0.491108
0.466798
0.442682
0.419005
0.395961
0.373694
0.35231
0.331896
0.312545
0.29433
0.674299
0.657504
0.64723
0.636359
0.622531
0.605663
0.586138
0.564552
0.541515
0.517562
0.493145
0.468637
0.444341
0.420501
0.397309
0.374909
0.353408
0.332896
0.313453
0.295105
0.674215
0.657421
0.64715
0.636283
0.622459
0.605595
0.586074
0.564491
0.541457
0.517507
0.493093
0.468587
0.444293
0.420454
0.397264
0.374866
0.353366
0.332856
0.313414
0.295068
0.669431
0.652778
0.642726
0.632154
0.618659
0.602122
0.582911
0.561617
0.538849
0.515142
0.490951
0.466647
0.442538
0.418866
0.395827
0.373565
0.352186
0.331775
0.312428
0.29422
0.659988
0.643613
0.633996
0.624005
0.611158
0.595269
0.576673
0.55595
0.533707
0.510484
0.486733
0.462832
0.439087
0.415746
0.393006
0.371015
0.349873
0.32966
0.310499
0.292561
0.645966
0.630005
0.62103
0.6119
0.600015
0.585087
0.567404
0.547529
0.526069
0.503563
0.480468
0.457164
0.433962
0.411113
0.388818
0.367229
0.346441
0.326524
0.30764
0.290097
0.627486
0.612069
0.603937
0.595935
0.585314
0.571653
0.555173
0.536417
0.515987
0.494427
0.472197
0.449682
0.427196
0.404995
0.383287
0.36223
0.341911
0.322385
0.303865
0.286832
0.604707
0.58996
0.582856
0.576237
0.56717
0.555067
0.540069
0.522692
0.503533
0.483139
0.461977
0.440434
0.418832
0.397432
0.376449
0.356047
0.336308
0.317268
0.299195
0.282777
0.577826
0.563865
0.557963
0.552964
0.545721
0.535454
0.522204
0.506452
0.488794
0.469778
0.449875
0.429481
0.408923
0.388469
0.368343
0.348717
0.329666
0.311205
0.293655
0.277944
0.547076
0.534009
0.529465
0.526302
0.521134
0.51296
0.501707
0.487815
0.471873
0.454433
0.435972
0.416894
0.397533
0.378163
0.359018
0.340281
0.322022
0.304228
0.287274
0.27235
0.512722
0.500649
0.497599
0.496463
0.493599
0.487755
0.478729
0.466914
0.452889
0.43721
0.420362
0.402756
0.384733
0.366576
0.34853
0.33079
0.313419
0.296379
0.280087
0.266017
0.475064
0.464072
0.462632
0.463689
0.463328
0.460028
0.453439
0.443899
0.431975
0.418227
0.403148
0.387157
0.370603
0.35378
0.336942
0.320297
0.303907
0.287702
0.272131
0.258968
0.434428
0.424595
0.424856
0.428242
0.430556
0.429987
0.426021
0.418933
0.409275
0.397612
0.384443
0.370198
0.355234
0.339853
0.324323
0.308864
0.29354
0.278244
0.263447
0.251233
0.391168
0.382559
0.384589
0.390407
0.395538
0.397857
0.396675
0.392194
0.384949
0.375505
0.364372
0.351987
0.33872
0.324879
0.310745
0.296555
0.282374
0.268059
0.254081
0.242843
0.345663
0.338329
0.34217
0.350491
0.358543
0.363879
0.365615
0.363871
0.359162
0.352055
0.343066
0.332642
0.321163
0.308949
0.29629
0.28344
0.270473
0.257202
0.244081
0.233834
0.298308
0.29229
0.297955
0.308816
0.31986
0.328307
0.333065
0.334166
0.332094
0.327418
0.320662
0.312284
0.302672
0.292156
0.281039
0.269594
0.257902
0.245733
0.233499
0.224241
0.249517
0.24484
0.252319
0.265719
0.279788
0.291406
0.299262
0.303285
0.303928
0.301757
0.297306
0.291039
0.283358
0.274601
0.265081
0.255092
0.244731
0.233717
0.222391
0.214103
0.199717
0.196394
0.205648
0.221551
0.238638
0.253451
0.264448
0.271444
0.274854
0.275242
0.273145
0.269041
0.263338
0.256385
0.248504
0.240013
0.231031
0.221224
0.210817
0.203457
0.14934
0.147372
0.158337
0.176669
0.196727
0.214723
0.228872
0.238862
0.245068
0.248044
0.248333
0.246421
0.242729
0.237612
0.2314
0.224435
0.216875
0.208334
0.198854
0.192339
0.0988262
0.0981973
0.110787
0.131437
0.154381
0.175507
0.192785
0.205764
0.214768
0.220338
0.223023
0.223318
0.221652
0.218389
0.213864
0.208439
0.20233
0.195126
0.186592
0.180756
0.048613
0.0492936
0.0633991
0.0862222
0.111925
0.136092
0.156441
0.172373
0.18415
0.192298
0.19737
0.199866
0.200225
0.198822
0.19599
0.192101
0.187452
0.181683
0.174208
0.16874
-0.000864144
0.00107621
0.0165743
0.0413898
0.0696835
0.0967639
0.120092
0.138912
0.153411
0.1641
0.171527
0.176201
0.178569
0.179016
0.177874
0.17551
0.172293
0.16805
0.161918
0.156216
-0.0491712
-0.0460493
-0.0292954
-0.00270049
0.0279791
0.0578055
0.0839878
0.105599
0.122747
0.135914
0.145647
0.152457
0.156801
0.159073
0.159608
0.158749
0.156894
0.154147
0.149897
0.143643
-0.0959203
-0.0916626
-0.0738369
-0.0456993
-0.0128746
0.0194934
0.0483704
0.0726504
0.0923458
0.107908
0.119876
0.128765
0.135036
0.139093
0.141279
0.141911
0.141367
0.139973
0.137597
0.132996
-0.140994
-0.13523
-0.116723
-0.0872713
-0.0525746
-0.0179053
0.0134748
0.0402718
0.0623909
0.0802432
0.0943589
0.105251
0.113385
0.119173
0.122968
0.125075
0.125828
0.125665
0.124905
0.122256
-0.183687
-0.176524
-0.157718
-0.127115
-0.0908352
-0.054136
-0.0204744
0.0086615
0.033057
0.0530751
0.0692314
0.0820363
0.091956
0.0994084
0.104757
0.108305
0.110345
0.111337
0.11186
0.110783
-0.223662
-0.21537
-0.196113
-0.165074
-0.127393
-0.0889563
-0.053265
-0.0219935
0.00450946
0.0265498
0.0446234
0.0592352
0.0708502
0.0798882
0.0867207
0.0916563
0.0949596
0.0970634
0.0986742
0.0988489
-0.260682
-0.251449
-0.23181
-0.200558
-0.162069
-0.122142
-0.0846973
-0.0515183
-0.0230974
0.000803754
0.020656
0.0369552
0.0501628
0.0606972
0.0689348
0.0751903
0.079712
0.0828979
0.0855094
0.0867963
-0.294564
-0.28447
-0.264663
-0.233364
-0.194495
-0.153504
-0.114587
-0.079751
-0.0496214
-0.0240373
-0.00255903
0.0152957
0.0299818
0.0419143
0.0514701
0.0589692
0.0646522
0.0688825
0.0724406
0.0747673
-0.325118
-0.314223
-0.294458
-0.263409
-0.22443
-0.182826
-0.142768
-0.106545
-0.0749334
-0.0478599
-0.0249203
-0.00565271
0.010388
0.0236115
0.0343922
0.0430531
0.0498315
0.0550557
0.059504
0.0628051
-0.35219
-0.340556
-0.321016
-0.290519
-0.251783
-0.209911
-0.169092
-0.131773
-0.0989183
-0.0705632
-0.0463373
-0.0258085
-0.0085459
0.00585424
0.0177605
0.0274964
0.0352976
0.0414565
0.0467332
0.0509442
-0.375674
-0.363373
-0.344211
-0.314538
-0.276422
-0.234656
-0.193431
-0.155338
-0.121473
-0.0920596
-0.066731
-0.0450992
-0.0267564
-0.0112991
0.00162781
0.0123474
0.0210946
0.0281241
0.0341659
0.039226
-0.395522
-0.382632
-0.363977
-0.335366
-0.298227
-0.256958
-0.215688
-0.177141
-0.142566
-0.112255
-0.0860347
-0.0634621
-0.0441892
-0.0277969
-0.01396
-0.00235154
0.00726146
0.0150958
0.021838
0.0276907
-0.411741
-0.398345
-0.380302
-0.352958
-0.317122
-0.276734
-0.235788
-0.197101
-0.162091
-0.131158
-0.104192
-0.0808446
-0.060799
-0.0435942
-0.0289641
-0.0165626
-0.00616781
0.00240533
0.00977857
0.0163716
-0.424394
-0.41058
-0.393227
-0.367316
-0.333075
-0.293934
-0.253677
-0.215172
-0.179993
-0.148679
-0.121193
-0.0972559
-0.0765287
-0.0586557
-0.0433518
-0.0302536
-0.0191661
-0.00991551
-0.00199138
0.00529323
-0.433596
-0.419458
-0.402849
-0.378495
-0.346095
-0.308538
-0.269326
-0.231329
-0.196254
-0.164786
-0.136985
-0.112627
-0.0913979
-0.0729838
-0.0570869
-0.0433997
-0.0317136
-0.0218382
-0.0134474
-0.00553629
-0.439513
-0.425149
-0.409315
-0.386596
-0.356235
-0.32056
-0.282733
-0.245562
-0.210866
-0.179471
-0.151548
-0.126937
-0.105366
-0.086541
-0.07018
-0.0560097
-0.0437846
-0.03335
-0.0245416
-0.0161404
-0.442359
-0.427872
-0.412821
-0.39177
-0.363588
-0.330048
-0.293917
-0.257881
-0.223837
-0.192743
-0.164887
-0.140188
-0.118418
-0.09931
-0.082603
-0.0680438
-0.0553886
-0.0444866
-0.0351808
-0.0265786
-0.442386
-0.427883
-0.413608
-0.394214
-0.36829
-0.337084
-0.302924
-0.268314
-0.235184
-0.204617
-0.177018
-0.152391
-0.13056
-0.111291
-0.0943464
-0.0794917
-0.0664994
-0.0552082
-0.0454816
-0.0366947
-0.439878
-0.42547
-0.41195
-0.394164
-0.370517
-0.341783
-0.309824
-0.276906
-0.244942
-0.215119
-0.187961
-0.163562
-0.141805
-0.122495
-0.105416
-0.0903569
-0.0771081
-0.0655065
-0.0554407
-0.0463677
-0.435145
-0.420945
-0.408152
-0.391892
-0.370483
-0.344291
-0.314714
-0.283722
-0.253159
-0.224289
-0.197748
-0.173727
-0.152174
-0.132935
-0.115823
-0.100648
-0.0872194
-0.0753779
-0.06503
-0.0556523
-0.428514
-0.414633
-0.402537
-0.387695
-0.368432
-0.344787
-0.317713
-0.288842
-0.259895
-0.232174
-0.206419
-0.182918
-0.161693
-0.142634
-0.125585
-0.110379
-0.0968432
-0.0848259
-0.0742523
-0.0646257
-0.420316
-0.406863
-0.395434
-0.381889
-0.364636
-0.343479
-0.318964
-0.292363
-0.265219
-0.238831
-0.214022
-0.191177
-0.170395
-0.151617
-0.134721
-0.119564
-0.105993
-0.0938632
-0.0831236
-0.0733235
-0.41088
-0.397959
-0.387172
-0.374797
-0.359387
-0.340597
-0.318631
-0.294398
-0.269214
-0.244324
-0.22061
-0.198549
-0.178318
-0.159916
-0.143257
-0.128224
-0.114687
-0.102506
-0.0916556
-0.0817523
-0.400524
-0.38823
-0.378066
-0.366737
-0.352983
-0.336391
-0.316901
-0.295075
-0.271967
-0.24872
-0.226241
-0.205085
-0.185507
-0.167567
-0.151223
-0.136384
-0.122944
-0.110771
-0.099857
-0.0899073
-0.389548
-0.377964
-0.368411
-0.358013
-0.345721
-0.331124
-0.313975
-0.294535
-0.273577
-0.252094
-0.230975
-0.210835
-0.192006
-0.174611
-0.158653
-0.144073
-0.130787
-0.118678
-0.10774
-0.0977892
-0.378225
-0.36742
-0.358473
-0.348906
-0.337888
-0.325059
-0.310071
-0.292936
-0.274151
-0.254521
-0.234873
-0.215855
-0.197864
-0.18109
-0.165584
-0.15132
-0.138242
-0.126246
-0.115322
-0.105408
-0.366799
-0.356824
-0.348483
-0.339665
-0.329748
-0.318457
-0.30541
-0.290445
-0.273806
-0.256081
-0.237996
-0.220196
-0.203129
-0.187047
-0.172054
-0.158159
-0.145336
-0.133499
-0.122624
-0.11278
-0.355478
-0.34637
-0.338637
-0.330504
-0.321535
-0.31156
-0.300217
-0.287241
-0.272664
-0.256858
-0.240405
-0.223908
-0.207847
-0.192526
-0.178102
-0.164626
-0.152099
-0.140464
-0.129669
-0.119923
-0.344438
-0.336214
-0.329091
-0.321595
-0.313449
-0.304587
-0.294708
-0.283505
-0.270862
-0.256942
-0.242161
-0.227041
-0.21206
-0.197567
-0.183767
-0.170755
-0.158562
-0.147166
-0.136482
-0.126857
-0.333818
-0.326478
-0.319966
-0.313071
-0.305647
-0.297723
-0.289079
-0.279421
-0.268538
-0.256426
-0.243323
-0.229636
-0.215808
-0.202208
-0.189088
-0.176583
-0.164757
-0.153634
-0.143088
-0.133603
-0.323726
-0.317253
-0.311348
-0.305028
-0.298249
-0.291117
-0.283504
-0.275159
-0.265839
-0.255413
-0.243956
-0.231736
-0.219124
-0.206483
-0.194096
-0.182143
-0.170718
-0.159898
-0.149513
-0.140183
-0.314237
-0.3086
-0.303292
-0.297526
-0.291335
-0.284883
-0.278124
-0.270878
-0.262907
-0.254011
-0.244128
-0.233378
-0.222033
-0.210415
-0.198821
-0.187468
-0.176476
-0.165985
-0.155784
-0.14662
-0.305403
-0.300556
-0.295827
-0.290598
-0.284952
-0.279093
-0.273048
-0.26671
-0.25988
-0.252333
-0.243913
-0.234605
-0.224557
-0.214024
-0.203284
-0.192582
-0.182059
-0.171925
-0.161929
-0.15294
-0.297248
-0.293138
-0.288964
-0.284252
-0.279119
-0.273789
-0.268348
-0.262759
-0.256877
-0.250492
-0.243393
-0.235461
-0.226716
-0.217317
-0.207496
-0.197505
-0.187493
-0.177745
-0.167974
-0.159165
-0.289782
-0.286345
-0.282695
-0.278478
-0.273831
-0.268986
-0.264068
-0.259101
-0.254001
-0.248592
-0.242655
-0.235997
-0.228529
-0.220298
-0.211456
-0.202243
-0.192793
-0.183467
-0.173947
-0.165322
-0.282996
-0.280164
-0.277001
-0.273254
-0.26907
-0.264677
-0.260225
-0.255783
-0.251327
-0.246728
-0.241785
-0.236274
-0.23002
-0.222963
-0.215155
-0.20679
-0.197967
-0.18911
-0.179866
-0.17144
-0.27687
-0.274571
-0.271856
-0.268551
-0.264806
-0.26084
-0.256814
-0.25283
-0.248909
-0.244977
-0.240867
-0.236357
-0.231223
-0.225314
-0.218573
-0.211126
-0.203004
-0.194678
-0.185752
-0.177539
-0.271372
-0.269535
-0.267225
-0.264332
-0.261004
-0.257443
-0.253815
-0.250241
-0.246777
-0.243394
-0.239972
-0.236313
-0.232177
-0.227355
-0.221686
-0.215216
-0.207877
-0.200161
-0.191597
-0.183677
-0.266463
-0.265017
-0.263069
-0.260558
-0.257622
-0.254449
-0.251199
-0.248003
-0.24494
-0.242018
-0.23916
-0.236207
-0.232933
-0.229101
-0.224475
-0.219016
-0.212533
-0.205532
-0.197393
-0.189833
-0.262094
-0.260973
-0.259345
-0.257184
-0.254618
-0.251815
-0.248929
-0.24609
-0.243391
-0.240863
-0.23847
-0.236095
-0.233543
-0.23058
-0.226929
-0.222473
-0.216922
-0.210702
-0.203108
-0.196136
-0.25821
-0.257354
-0.256008
-0.254166
-0.251947
-0.249498
-0.246962
-0.244466
-0.242106
-0.239929
-0.237926
-0.236021
-0.234057
-0.231828
-0.229052
-0.22555
-0.220957
-0.215638
-0.208586
-0.202338
-0.25475
-0.254109
-0.253008
-0.251458
-0.249562
-0.24745
-0.245252
-0.243088
-0.24105
-0.239195
-0.237531
-0.236011
-0.234522
-0.232889
-0.230862
-0.228216
-0.22462
-0.220024
-0.214507
-0.207309
-0.251652
-0.251184
-0.250298
-0.249013
-0.247418
-0.245625
-0.243753
-0.24191
-0.240182
-0.238629
-0.237267
-0.236072
-0.234964
-0.233808
-0.2324
-0.230458
-0.227917
-0.223717
-0.220412
-0.211703
-0.248853
-0.248528
-0.247829
-0.246785
-0.245468
-0.243977
-0.242416
-0.240882
-0.239454
-0.238187
-0.237103
-0.236191
-0.235397
-0.234614
-0.233707
-0.232297
-0.230827
-0.226629
-0.225774
-0.21561
-0.246292
-0.246088
-0.245556
-0.244731
-0.243672
-0.242462
-0.241195
-0.239956
-0.238815
-0.237821
-0.236997
-0.23634
-0.23581
-0.235324
-0.234816
-0.233785
-0.233322
-0.228811
-0.230601
-0.218705
-0.243914
-0.243821
-0.243439
-0.242812
-0.241989
-0.241041
-0.240048
-0.239087
-0.238218
-0.237483
-0.236903
-0.236477
-0.236177
-0.235938
-0.235741
-0.234989
-0.235368
-0.23046
-0.234852
-0.220882
-0.24167
-0.241682
-0.241443
-0.240995
-0.240388
-0.23968
-0.238941
-0.238237
-0.23762
-0.237127
-0.236774
-0.23656
-0.236464
-0.236436
-0.236476
-0.235966
-0.236924
-0.231841
-0.238251
-0.222374
-0.23952
-0.239643
-0.239536
-0.239255
-0.238844
-0.238353
-0.237844
-0.237374
-0.236988
-0.236715
-0.236569
-0.236549
-0.236634
-0.236789
-0.237006
-0.236739
-0.237974
-0.233138
-0.240517
-0.223632
-0.237437
-0.23768
-0.237699
-0.23757
-0.237336
-0.237041
-0.236738
-0.236477
-0.236297
-0.236221
-0.23626
-0.23641
-0.236654
-0.236965
-0.237317
-0.237291
-0.238554
-0.23436
-0.241617
-0.225024
-0.235403
-0.235776
-0.235918
-0.235929
-0.235855
-0.235732
-0.235611
-0.235534
-0.235533
-0.235629
-0.235827
-0.236123
-0.236502
-0.236941
-0.237399
-0.237584
-0.238736
-0.235383
-0.24177
-0.226604
-0.23341
-0.233925
-0.234187
-0.234327
-0.234395
-0.234425
-0.234461
-0.234541
-0.234693
-0.234933
-0.235264
-0.235682
-0.236169
-0.236707
-0.237244
-0.23759
-0.238591
-0.23606
-0.241283
-0.228165
-0.231461
-0.232128
-0.232508
-0.232767
-0.232962
-0.233123
-0.233292
-0.233505
-0.233784
-0.234141
-0.234579
-0.235091
-0.23566
-0.236268
-0.23686
-0.2373
-0.238188
-0.23629
-0.240414
-0.229445
-0.22957
-0.230395