/*--------------------------------*- C++ -*----------------------------------*\
  =========                 |
  \\      /  F ield         | OpenFOAM: The Open Source CFD Toolbox
   \\    /   O peration     | Website:  https://openfoam.org
    \\  /    A nd           | Version:  7
     \\/     M anipulation  |
\*---------------------------------------------------------------------------*/
FoamFile
{
    version     2.0;
    format      ascii;
    class       volVectorField;
    location    "2";
    object      U;
}
// * * * * * * * * * * * * * * * * * * * * * * * * * * * * * * * * * * * * * //

dimensions      [0 1 -1 0 0 0 0];

internalField   nonuniform List<vector> 
16528
(
(1.00014 -0.000244853 4.98618e-17)
(1.00145 -0.000722192 -1.26741e-16)
(1.00426 -0.00119827 1.10649e-15)
(1.00852 -0.00165953 1.92897e-15)
(1.0141 -0.00209531 2.27769e-15)
(1.02092 -0.00250064 1.84944e-15)
(1.02889 -0.00287138 -1.99499e-16)
(1.03791 -0.00320403 7.87616e-16)
(1.04785 -0.00349646 9.92853e-16)
(1.0586 -0.00374796 -1.04515e-15)
(1.07003 -0.00395903 -1.17282e-15)
(1.08202 -0.00413113 -9.57235e-16)
(1.09447 -0.00426645 -2.34017e-15)
(1.10727 -0.00436774 -3.21284e-15)
(1.12031 -0.00443812 -2.57637e-15)
(1.13352 -0.00448088 -3.84494e-15)
(1.14681 -0.00449934 -4.80844e-15)
(1.16013 -0.0044968 -3.89237e-15)
(1.17341 -0.00447635 -4.29609e-15)
(1.1866 -0.00444093 -4.56972e-15)
(1.19967 -0.00439319 -3.58911e-15)
(1.21258 -0.00433554 -4.92065e-15)
(1.2253 -0.00427011 -5.57524e-15)
(1.23783 -0.00419876 -1.16875e-14)
(1.25013 -0.00412312 -7.00953e-15)
(1.2622 -0.00404455 -6.38768e-15)
(1.27404 -0.00396422 -6.38429e-15)
(1.28564 -0.00388309 -6.11079e-15)
(1.297 -0.00380194 -5.66896e-15)
(1.30811 -0.00372142 -4.38784e-15)
(1.31899 -0.00364203 -5.23285e-15)
(1.32964 -0.00356414 -4.93607e-15)
(1.34006 -0.00348807 -4.95322e-15)
(1.35026 -0.00341401 -6.09901e-15)
(1.36024 -0.00334211 -4.48618e-15)
(1.37001 -0.00327245 -5.66613e-15)
(1.37958 -0.00320507 -5.93372e-15)
(1.38895 -0.00313998 -5.44324e-15)
(1.39813 -0.00307714 -6.22666e-15)
(1.40713 -0.00301651 -5.95987e-15)
(1.41596 -0.00295802 -4.52585e-15)
(1.42461 -0.0029016 -5.07337e-15)
(1.4331 -0.00284715 -5.4099e-15)
(1.44143 -0.00279459 -6.13364e-15)
(1.44961 -0.00274383 -6.41588e-15)
(1.45763 -0.00269476 -6.48009e-15)
(1.46552 -0.0026473 -6.76927e-15)
(1.47327 -0.00260136 -6.10478e-15)
(1.48088 -0.00255683 -6.07401e-15)
(1.48837 -0.00251365 -5.64183e-15)
(1.49573 -0.00247173 -6.0759e-15)
(1.50296 -0.002431 -6.40195e-15)
(1.51008 -0.00239137 -6.89317e-15)
(1.51708 -0.00235279 -7.20548e-15)
(1.52397 -0.0023152 -5.94669e-15)
(1.53074 -0.00227853 -6.77652e-15)
(1.53741 -0.00224273 -5.84461e-15)
(1.54398 -0.00220775 -4.7729e-15)
(1.55044 -0.00217356 -5.92041e-15)
(1.55681 -0.0021401 -5.58907e-15)
(1.56307 -0.00210733 -5.48755e-15)
(1.56924 -0.00207523 -5.9177e-15)
(1.57531 -0.00204377 -5.73124e-15)
(1.5813 -0.0020129 -5.71542e-15)
(1.58719 -0.00198261 -6.11136e-15)
(1.59299 -0.00195287 -6.63106e-15)
(1.5987 -0.00192366 -5.91969e-15)
(1.60433 -0.00189496 -6.15676e-15)
(1.60988 -0.00186674 -4.31217e-15)
(1.61534 -0.001839 -4.90823e-15)
(1.62072 -0.00181171 -4.43842e-15)
(1.62602 -0.00178486 -4.79778e-15)
(1.63125 -0.00175843 -4.44476e-15)
(1.63639 -0.00173242 -5.00959e-15)
(1.64146 -0.00170681 -4.82709e-15)
(1.64645 -0.00168158 -4.74812e-15)
(1.65137 -0.00165673 -4.36677e-15)
(1.65622 -0.00163225 -4.23909e-15)
(1.66099 -0.00160812 -4.35286e-15)
(1.66569 -0.00158434 -4.68064e-15)
(1.67033 -0.00156088 -4.62089e-15)
(1.67489 -0.00153775 -3.36201e-15)
(1.67939 -0.00151493 -3.02423e-15)
(1.68382 -0.00149241 -3.26651e-15)
(1.68818 -0.00147018 -3.28186e-15)
(1.69248 -0.00144822 -4.1071e-15)
(1.69672 -0.00142653 -4.68804e-15)
(1.70089 -0.00140509 -4.6718e-15)
(1.70499 -0.00138389 -5.08034e-15)
(1.70904 -0.00136291 -4.938e-15)
(1.71302 -0.00134214 -4.35122e-15)
(1.71694 -0.00132156 -4.76255e-15)
(1.72081 -0.00130116 -5.12548e-15)
(1.72461 -0.00128093 -3.909e-15)
(1.72835 -0.00126084 -3.59194e-15)
(1.73203 -0.00124087 -4.08023e-15)
(1.73566 -0.00122102 -3.54912e-15)
(1.73923 -0.00120126 -3.64663e-15)
(1.74273 -0.00118156 -2.96163e-15)
(1.74618 -0.00116192 -4.32055e-15)
(1.74958 -0.00114231 -3.39769e-15)
(1.75291 -0.00112272 -3.84618e-15)
(1.75619 -0.00110311 -3.04945e-15)
(1.75941 -0.00108348 -3.37655e-15)
(1.76257 -0.00106381 -2.93918e-15)
(1.76567 -0.00104408 -2.93495e-15)
(1.76871 -0.00102427 -1.85302e-15)
(1.7717 -0.00100436 -2.76469e-15)
(1.77463 -0.000984341 -1.97434e-15)
(1.77749 -0.000964201 -2.36861e-15)
(1.7803 -0.000943927 -2.1896e-15)
(1.78305 -0.000923509 -2.43738e-15)
(1.78574 -0.00090294 -1.43234e-15)
(1.78837 -0.000882215 -1.97695e-15)
(1.79093 -0.00086133 -1.71148e-15)
(1.79343 -0.000840285 -1.0272e-15)
(1.79588 -0.000819083 -1.98623e-15)
(1.79826 -0.000797726 -1.05893e-15)
(1.80057 -0.000776223 -2.34108e-15)
(1.80282 -0.000754582 -3.60047e-16)
(1.80501 -0.000732815 -1.96023e-15)
(1.80713 -0.000710934 -1.30788e-15)
(1.80919 -0.000688956 -1.90323e-15)
(1.81119 -0.000666897 -3.16409e-16)
(1.81312 -0.000644775 -1.0931e-15)
(1.81498 -0.000622611 -3.72068e-17)
(1.81678 -0.000600425 -1.64792e-15)
(1.81851 -0.000578239 -1.97862e-16)
(1.82018 -0.000556076 -1.50934e-15)
(1.82178 -0.00053396 -5.44364e-16)
(1.82332 -0.000511915 -1.10518e-15)
(1.82479 -0.000489968 1.79962e-17)
(1.8262 -0.000468145 -1.43806e-15)
(1.82755 -0.000446478 -5.41858e-16)
(1.82883 -0.000424997 -1.29308e-15)
(1.83004 -0.000403737 -5.47316e-16)
(1.8312 -0.000382738 -1.36307e-15)
(1.83229 -0.000362042 1.89304e-17)
(1.83333 -0.000341696 8.37185e-17)
(1.8343 -0.000321754 3.7177e-17)
(1.83522 -0.000302275 3.5255e-16)
(1.83608 -0.000283325 3.02141e-16)
(1.83688 -0.000264978 7.20138e-16)
(1.83763 -0.000247315 -6.27301e-16)
(1.83833 -0.000230424 3.81299e-16)
(1.83899 -0.000214403 -8.73588e-16)
(1.83959 -0.000199358 -1.84265e-16)
(1.84016 -0.000185404 1.67478e-16)
(1.84068 -0.000172665 1.19535e-15)
(1.84117 -0.000161275 -1.03995e-16)
(1.84163 -0.000151379 5.67176e-16)
(1.84206 -0.000143136 2.76056e-16)
(1.84247 -0.000136718 8.12622e-16)
(1.84286 -0.000132314 -3.14782e-16)
(1.84325 -0.000130134 -2.53857e-16)
(1.84363 -0.000130413 4.07781e-16)
(1.84401 -0.000133417 6.90613e-16)
(1.84441 -0.000139447 1.8388e-17)
(1.84483 -0.000148853 1.10327e-15)
(1.84529 -0.000162038 -2.57827e-16)
(1.84579 -0.000179473 1.07379e-15)
(1.84634 -0.000201708 -7.2734e-16)
(1.84698 -0.00022939 1.33866e-16)
(1.8477 -0.000263282 4.80142e-16)
(1.84853 -0.000304278 8.91125e-16)
(1.84949 -0.000353434 1.28271e-15)
(1.85061 -0.000411989 6.16351e-16)
(1.85192 -0.0004814 5.65831e-16)
(1.85345 -0.00056337 6.69463e-16)
(1.85524 -0.000659892 1.03821e-15)
(1.85734 -0.000773286 -8.44298e-17)
(1.8598 -0.000906247 5.18374e-16)
(1.86268 -0.00106189 6.56081e-16)
(1.86606 -0.00124382 7.51803e-16)
(1.87001 -0.00145615 3.25682e-16)
(1.87464 -0.00170357 8.24771e-16)
(1.88006 -0.0019914 9.05028e-17)
(1.88639 -0.00232562 -5.42306e-18)
(1.89377 -0.00271288 -3.01262e-17)
(1.90238 -0.00316047 1.3295e-16)
(1.91241 -0.0036763 6.66654e-16)
(1.92406 -0.00426875 1.62674e-15)
(1.93759 -0.00494647 -9.3261e-18)
(1.95324 -0.00571804 6.18598e-16)
(1.97131 -0.00659154 9.95365e-16)
(1.99212 -0.00757388 8.13685e-16)
(2.01599 -0.0086699 8.63098e-17)
(2.04327 -0.00988131 3.60714e-16)
(2.0743 -0.0112053 6.08897e-16)
(2.1094 -0.0126331 1.28045e-15)
(2.14886 -0.0141479 1.14069e-15)
(2.19291 -0.0157238 3.78049e-16)
(2.24169 -0.0173239 9.0268e-16)
(2.2952 -0.0188996 7.47333e-16)
(2.35331 -0.0203911 9.85875e-16)
(2.41567 -0.0217293 8.42565e-16)
(2.48172 -0.0228391 1.04503e-15)
(2.55069 -0.0236458 6.06237e-16)
(2.62157 -0.024083 1.37228e-15)
(2.69318 -0.0241004 1.28033e-15)
(1.00014 -0.000568189 2.26938e-16)
(1.00147 -0.00169332 7.95833e-16)
(1.0043 -0.00280669 4.62872e-15)
(1.00858 -0.00388364 6.76472e-15)
(1.01421 -0.00490282 3.01876e-15)
(1.02108 -0.00585089 4.97599e-15)
(1.02911 -0.00671746 -1.83507e-15)
(1.03819 -0.00749446 2.42423e-15)
(1.04819 -0.0081771 1.54368e-15)
(1.059 -0.00876381 -3.41062e-15)
(1.07049 -0.00925581 -2.75858e-15)
(1.08255 -0.00965657 -1.8775e-15)
(1.09505 -0.00997132 -5.84811e-15)
(1.1079 -0.0102065 -8.09965e-15)
(1.12099 -0.0103696 -6.18746e-15)
(1.13424 -0.0104681 -8.96692e-15)
(1.14758 -0.01051 -1.0414e-14)
(1.16093 -0.010503 -8.24004e-15)
(1.17425 -0.0104542 -1.02721e-14)
(1.18747 -0.0103706 -1.21709e-14)
(1.20056 -0.0102583 -9.43104e-15)
(1.2135 -0.010123 -1.12938e-14)
(1.22624 -0.00996964 -1.29724e-14)
(1.23878 -0.00980252 -1.08665e-14)
(1.2511 -0.00962543 -1.25942e-14)
(1.26319 -0.00944156 -1.33372e-14)
(1.27504 -0.0092536 -1.38432e-14)
(1.28665 -0.00906381 -1.43137e-14)
(1.29802 -0.008874 -9.99284e-15)
(1.30914 -0.00868565 -1.12044e-14)
(1.32003 -0.00849993 -1.21318e-14)
(1.33068 -0.00831775 -1.27144e-14)
(1.3411 -0.00813977 -1.35279e-14)
(1.3513 -0.00796649 -1.38012e-14)
(1.36128 -0.00779823 -1.06052e-14)
(1.37105 -0.00763519 -1.22327e-14)
(1.38061 -0.00747746 -1.30534e-14)
(1.38998 -0.00732504 -1.3274e-14)
(1.39915 -0.00717788 -1.35762e-14)
(1.40815 -0.00703586 -1.4315e-14)
(1.41696 -0.00689883 -1.07909e-14)
(1.4256 -0.00676662 -1.19561e-14)
(1.43407 -0.00663901 -1.27736e-14)
(1.44239 -0.00651581 -1.32961e-14)
(1.45055 -0.00639679 -1.40878e-14)
(1.45856 -0.00628174 -1.4048e-14)
(1.46642 -0.00617044 -1.40094e-14)
(1.47414 -0.00606268 -1.43732e-14)
(1.48173 -0.00595825 -1.42383e-14)
(1.48919 -0.00585696 -1.44318e-14)
(1.49652 -0.00575862 -1.45865e-14)
(1.50372 -0.00566306 -1.45332e-14)
(1.51081 -0.0055701 -1.47147e-14)
(1.51778 -0.0054796 -1.45884e-14)
(1.52463 -0.00539141 -1.44082e-14)
(1.53137 -0.0053054 -1.49753e-14)
(1.538 -0.00522144 -1.12589e-14)
(1.54453 -0.00513942 -1.21391e-14)
(1.55095 -0.00505923 -1.28301e-14)
(1.55727 -0.00498078 -1.31688e-14)
(1.56349 -0.00490398 -1.34246e-14)
(1.56962 -0.00482875 -1.35299e-14)
(1.57565 -0.00475501 -1.3668e-14)
(1.58158 -0.00468269 -1.3575e-14)
(1.58743 -0.00461173 -1.37828e-14)
(1.59318 -0.00454208 -1.4268e-14)
(1.59885 -0.00447367 -1.44075e-14)
(1.60443 -0.00440647 -1.47259e-14)
(1.60993 -0.00434043 -8.41933e-15)
(1.61534 -0.0042755 -1.02915e-14)
(1.62067 -0.00421165 -1.11803e-14)
(1.62592 -0.00414885 -1.20142e-14)
(1.63109 -0.00408705 -9.55844e-15)
(1.63618 -0.00402623 -1.0569e-14)
(1.6412 -0.00396636 -1.11987e-14)
(1.64614 -0.00390741 -1.18243e-14)
(1.651 -0.00384935 -8.84436e-15)
(1.6558 -0.00379215 -9.92634e-15)
(1.66052 -0.0037358 -1.04359e-14)
(1.66517 -0.00368025 -1.11259e-14)
(1.66975 -0.0036255 -8.58169e-15)
(1.67426 -0.00357151 -6.0618e-15)
(1.6787 -0.00351825 -7.66859e-15)
(1.68308 -0.00346571 -8.48365e-15)
(1.68739 -0.00341385 -9.14272e-15)
(1.69163 -0.00336264 -1.00499e-14)
(1.69581 -0.00331205 -1.02166e-14)
(1.69993 -0.00326206 -1.05731e-14)
(1.70398 -0.00321264 -1.06942e-14)
(1.70797 -0.00316374 -1.11939e-14)
(1.7119 -0.00311535 -1.14056e-14)
(1.71577 -0.00306741 -1.14774e-14)
(1.71958 -0.00301989 -1.27978e-14)
(1.72333 -0.00297276 -6.85855e-15)
(1.72702 -0.00292598 -8.5519e-15)
(1.73066 -0.00287949 -9.55437e-15)
(1.73423 -0.00283327 -1.04625e-14)
(1.73775 -0.00278726 -7.83194e-15)
(1.7412 -0.00274142 -8.61331e-15)
(1.7446 -0.00269571 -9.85567e-15)
(1.74795 -0.00265008 -7.08465e-15)
(1.75123 -0.00260449 -8.72853e-15)
(1.75446 -0.00255888 -6.5711e-15)
(1.75763 -0.00251323 -7.97724e-15)
(1.76074 -0.00246747 -5.15731e-15)
(1.7638 -0.00242157 -7.25093e-15)
(1.7668 -0.00237549 -4.47383e-15)
(1.76974 -0.00232919 -6.29069e-15)
(1.77262 -0.00228265 -4.0137e-15)
(1.77544 -0.00223581 -5.83717e-15)
(1.7782 -0.00218868 -3.56618e-15)
(1.78091 -0.00214121 -4.94568e-15)
(1.78355 -0.00209339 -3.57531e-15)
(1.78613 -0.00204521 -2.0615e-15)
(1.78866 -0.00199666 -4.22302e-15)
(1.79112 -0.00194774 -2.15828e-15)
(1.79352 -0.00189846 -4.26028e-15)
(1.79586 -0.00184883 -2.21668e-15)
(1.79813 -0.00179885 -3.97901e-15)
(1.80035 -0.00174856 -1.53432e-15)
(1.8025 -0.00169798 -3.81952e-15)
(1.80458 -0.00164714 -1.70028e-15)
(1.8066 -0.00159608 -3.82164e-15)
(1.80856 -0.00154483 -1.47647e-15)
(1.81045 -0.00149344 -3.20931e-15)
(1.81228 -0.00144196 -1.35816e-15)
(1.81405 -0.00139043 -3.0758e-15)
(1.81575 -0.0013389 -1.21658e-15)
(1.81738 -0.00128743 -3.05077e-15)
(1.81895 -0.00123608 -9.00125e-16)
(1.82046 -0.0011849 -2.6891e-15)
(1.8219 -0.00113395 -5.68318e-16)
(1.82328 -0.00108329 -2.60325e-15)
(1.8246 -0.00103301 -6.89989e-16)
(1.82585 -0.000983162 -2.52897e-15)
(1.82704 -0.000933838 -4.45784e-16)
(1.82817 -0.000885126 -2.36182e-15)
(1.82924 -0.000837126 -8.02072e-16)
(1.83025 -0.000789949 2.09433e-16)
(1.8312 -0.000743717 6.8682e-16)
(1.83209 -0.000698571 1.88344e-15)
(1.83293 -0.000654663 -5.67604e-16)
(1.83372 -0.000612163 8.26096e-16)
(1.83445 -0.000571259 -1.17383e-15)
(1.83513 -0.000532157 1.69755e-16)
(1.83577 -0.000495084 -1.27695e-15)
(1.83636 -0.000460282 -1.91261e-16)
(1.83691 -0.000428019 9.16724e-16)
(1.83742 -0.000398581 2.11832e-15)
(1.83789 -0.00037228 -2.56408e-16)
(1.83834 -0.00034945 1.29081e-15)
(1.83876 -0.000330456 -7.85184e-16)
(1.83916 -0.000315698 7.86898e-16)
(1.83954 -0.000305614 -1.12272e-15)
(1.83991 -0.000300688 1.54408e-16)
(1.84029 -0.000301464 1.11928e-15)
(1.84066 -0.000308558 2.59377e-15)
(1.84105 -0.000322669 4.53949e-17)
(1.84147 -0.000344607 1.74131e-15)
(1.84191 -0.000375305 -2.90327e-16)
(1.84241 -0.000415856 1.4209e-15)
(1.84295 -0.000467538 -3.59624e-16)
(1.84358 -0.000531852 7.76322e-16)
(1.84429 -0.000610566 1.65465e-15)
(1.84511 -0.000705759 1.97553e-15)
(1.84606 -0.000819882 2.9479e-15)
(1.84716 -0.000955813 2.80466e-16)
(1.84846 -0.00111693 1.92773e-15)
(1.84997 -0.0013072 6.83698e-17)
(1.85174 -0.00153125 1.77495e-15)
(1.85381 -0.00179446 -2.69335e-16)
(1.85624 -0.00210312 1.08298e-15)
(1.85909 -0.00246446 1.7221e-15)
(1.86243 -0.00288685 2.8112e-15)
(1.86634 -0.00337987 7.32927e-16)
(1.87092 -0.00395446 2.0551e-15)
(1.87627 -0.00462301 -8.73361e-17)
(1.88253 -0.00539947 1.65578e-15)
(1.88984 -0.00629934 1.06672e-16)
(1.89836 -0.00733971 1.36807e-15)
(1.90829 -0.00853906 2.08563e-15)
(1.91983 -0.00991706 2.84523e-15)
(1.93323 -0.0114941 9.11438e-16)
(1.94875 -0.0132904 2.71674e-15)
(1.96667 -0.0153251 9.84453e-16)
(1.98733 -0.0176149 2.25503e-15)
(2.01104 -0.0201717 6.85514e-16)
(2.03816 -0.023 1.58421e-15)
(2.06903 -0.0260942 2.00294e-15)
(2.10399 -0.0294344 2.68793e-15)
(2.14335 -0.0329825 3.33743e-15)
(2.18733 -0.0366786 1.48879e-15)
(2.2361 -0.0404363 2.63377e-15)
(2.28968 -0.0441426 1.55686e-15)
(2.34794 -0.047656 2.70798e-15)
(2.41054 -0.0508132 1.76354e-15)
(2.47694 -0.0534355 2.34466e-15)
(2.54635 -0.0553444 2.58277e-15)
(2.61776 -0.0563807 3.27062e-15)
(2.68995 -0.0564238 2.86172e-15)
(1.00015 -0.000928354 6.70577e-17)
(1.0015 -0.0027836 2.25783e-15)
(1.00437 -0.00461125 3.01456e-15)
(1.00873 -0.00637593 7.9961e-16)
(1.01445 -0.00804666 -2.29976e-15)
(1.02144 -0.00960001 -2.84421e-16)
(1.02959 -0.0110179 -1.44477e-15)
(1.0388 -0.0122873 -4.80999e-16)
(1.04895 -0.0134006 -1.28428e-16)
(1.0599 -0.0143557 -1.63116e-15)
(1.07152 -0.0151549 -2.15561e-15)
(1.08371 -0.0158041 -2.31807e-15)
(1.09634 -0.0163123 -3.60924e-15)
(1.1093 -0.0166904 -5.03858e-15)
(1.12251 -0.0169505 -7.3386e-15)
(1.13586 -0.0171056 -7.38243e-15)
(1.14929 -0.0171686 -7.86603e-15)
(1.16272 -0.0171519 -9.84989e-15)
(1.17611 -0.0170678 -9.39492e-15)
(1.1894 -0.0169272 -9.72497e-15)
(1.20255 -0.0167403 -1.17184e-14)
(1.21554 -0.0165162 -1.08841e-14)
(1.22833 -0.016263 -1.10673e-14)
(1.24091 -0.0159878 -1.03932e-14)
(1.25327 -0.0156966 -1.05828e-14)
(1.26539 -0.0153945 -1.08017e-14)
(1.27726 -0.015086 -1.14338e-14)
(1.2889 -0.0147746 -1.21423e-14)
(1.30028 -0.0144632 -8.95818e-15)
(1.31142 -0.0141543 -9.78273e-15)
(1.32232 -0.0138497 -1.03831e-14)
(1.33298 -0.0135508 -1.1051e-14)
(1.3434 -0.0132588 -1.14448e-14)
(1.3536 -0.0129744 -1.19475e-14)
(1.36358 -0.0126981 -1.1172e-14)
(1.37334 -0.0124303 -1.10996e-14)
(1.38289 -0.0121711 -1.11896e-14)
(1.39224 -0.0119206 -1.15972e-14)
(1.40139 -0.0116785 -1.18411e-14)
(1.41036 -0.0114448 -1.23142e-14)
(1.41915 -0.0112192 -1.14971e-14)
(1.42775 -0.0110014 -1.12225e-14)
(1.43619 -0.0107911 -1.1389e-14)
(1.44446 -0.010588 -1.18581e-14)
(1.45258 -0.0103917 -1.19552e-14)
(1.46054 -0.0102019 -1.22859e-14)
(1.46835 -0.0100182 -1.2381e-14)
(1.47602 -0.00984032 -1.25129e-14)
(1.48355 -0.00966791 -1.27019e-14)
(1.49094 -0.00950065 -1.26854e-14)
(1.4982 -0.00933826 -1.28843e-14)
(1.50534 -0.00918044 -1.29277e-14)
(1.51235 -0.00902694 -1.31827e-14)
(1.51924 -0.00887751 -1.29949e-14)
(1.52601 -0.00873191 -1.29719e-14)
(1.53267 -0.00858993 -1.36686e-14)
(1.53921 -0.00845138 -1.06547e-14)
(1.54565 -0.00831606 -1.09586e-14)
(1.55198 -0.00818382 -1.12572e-14)
(1.5582 -0.00805448 -1.15623e-14)
(1.56433 -0.00792791 -1.17018e-14)
(1.57035 -0.00780398 -1.19518e-14)
(1.57628 -0.00768256 -1.19699e-14)
(1.58211 -0.00756354 -1.21724e-14)
(1.58785 -0.00744682 -1.22466e-14)
(1.5935 -0.00733231 -1.24182e-14)
(1.59906 -0.00721991 -1.23631e-14)
(1.60453 -0.00710954 -1.28407e-14)
(1.60991 -0.00700114 -1.18445e-14)
(1.61521 -0.00689463 -1.05201e-14)
(1.62043 -0.00678995 -1.05298e-14)
(1.62556 -0.00668704 -9.99641e-15)
(1.63062 -0.00658583 -9.76319e-15)
(1.63559 -0.00648629 -9.05876e-15)
(1.64049 -0.00638835 -9.35187e-15)
(1.64532 -0.00629198 -8.86144e-15)
(1.65006 -0.00619711 -8.60787e-15)
(1.65474 -0.00610371 -8.11825e-15)
(1.65934 -0.00601174 -8.31781e-15)
(1.66387 -0.00592114 -7.87437e-15)
(1.66833 -0.00583187 -8.04793e-15)
(1.67272 -0.0057439 -5.29014e-15)
(1.67705 -0.00565717 -5.86025e-15)
(1.68131 -0.00557164 -6.47597e-15)
(1.6855 -0.00548727 -6.87281e-15)
(1.68962 -0.005404 -7.47215e-15)
(1.69369 -0.00532179 -8.03924e-15)
(1.69769 -0.00524059 -8.34465e-15)
(1.70162 -0.00516033 -8.60647e-15)
(1.7055 -0.00508098 -8.97098e-15)
(1.70931 -0.00500247 -9.27033e-15)
(1.71307 -0.00492473 -9.35627e-15)
(1.71676 -0.00484772 -9.94772e-15)
(1.7204 -0.00477136 -9.2804e-15)
(1.72397 -0.00469559 -8.25023e-15)
(1.72749 -0.00462033 -8.31605e-15)
(1.73096 -0.00454552 -7.89528e-15)
(1.73436 -0.00447109 -7.53052e-15)
(1.73771 -0.00439696 -7.15249e-15)
(1.741 -0.00432306 -7.45356e-15)
(1.74423 -0.00424931 -6.74775e-15)
(1.74741 -0.00417563 -6.32679e-15)
(1.75053 -0.00410196 -5.58398e-15)
(1.7536 -0.00402821 -5.11087e-15)
(1.7566 -0.00395433 -4.30882e-15)
(1.75956 -0.00388023 -3.9327e-15)
(1.76245 -0.00380585 -3.17519e-15)
(1.76529 -0.00373114 -3.18823e-15)
(1.76807 -0.00365604 -2.50113e-15)
(1.7708 -0.00358049 -2.22554e-15)
(1.77346 -0.00350446 -1.5955e-15)
(1.77607 -0.0034279 -1.40261e-15)
(1.77862 -0.0033508 -1.38118e-15)
(1.78111 -0.00327312 -9.49206e-16)
(1.78354 -0.00319486 -9.15545e-16)
(1.78591 -0.00311602 -3.44491e-16)
(1.78822 -0.00303661 -3.54598e-16)
(1.79047 -0.00295663 1.72009e-16)
(1.79266 -0.00287613 4.73429e-17)
(1.79479 -0.00279512 7.2671e-16)
(1.79685 -0.00271366 7.15428e-16)
(1.79885 -0.0026318 1.01652e-15)
(1.8008 -0.0025496 9.301e-16)
(1.80267 -0.00246711 1.26088e-15)
(1.80449 -0.00238441 1.23381e-15)
(1.80624 -0.00230158 1.48144e-15)
(1.80793 -0.0022187 1.4414e-15)
(1.80956 -0.00213584 1.88098e-15)
(1.81112 -0.00205309 1.62321e-15)
(1.81262 -0.00197056 2.12105e-15)
(1.81406 -0.00188832 1.98845e-15)
(1.81544 -0.00180648 2.54011e-15)
(1.81676 -0.00172515 2.25878e-15)
(1.81801 -0.00164443 2.53698e-15)
(1.8192 -0.00156446 2.40665e-15)
(1.82034 -0.00148536 2.64519e-15)
(1.82141 -0.00140728 2.73554e-15)
(1.82242 -0.00133037 2.48179e-15)
(1.82338 -0.00125483 2.93338e-15)
(1.82428 -0.00118085 3.22848e-15)
(1.82513 -0.00110865 3.65617e-15)
(1.82592 -0.00103849 3.33913e-15)
(1.82667 -0.000970625 3.47007e-15)
(1.82736 -0.000905366 3.50684e-15)
(1.828 -0.000843041 3.56426e-15)
(1.8286 -0.00078401 3.44468e-15)
(1.82916 -0.000728663 3.54921e-15)
(1.82967 -0.000677422 3.99386e-15)
(1.83015 -0.000630745 4.34214e-15)
(1.8306 -0.000589126 4.35732e-15)
(1.83102 -0.000553098 4.46986e-15)
(1.83142 -0.000523242 4.17958e-15)
(1.83179 -0.000500192 4.25455e-15)
(1.83215 -0.000484645 4.16397e-15)
(1.83251 -0.000477375 4.38221e-15)
(1.83286 -0.000479251 4.47894e-15)
(1.83322 -0.000491254 5.02597e-15)
(1.83359 -0.000514508 4.73011e-15)
(1.83399 -0.000550305 5.08715e-15)
(1.83442 -0.000600148 4.80093e-15)
(1.83489 -0.000665787 4.87164e-15)
(1.83542 -0.000749279 4.73776e-15)
(1.83603 -0.000853037 4.51806e-15)
(1.83672 -0.000979904 4.59838e-15)
(1.83751 -0.00113323 4.63901e-15)
(1.83844 -0.00131696 5.36875e-15)
(1.83951 -0.00153572 5.02085e-15)
(1.84077 -0.00179498 5.24487e-15)
(1.84224 -0.0021011 5.03189e-15)
(1.84396 -0.00246156 5.1979e-15)
(1.84598 -0.00288506 4.77251e-15)
(1.84835 -0.00338171 4.9357e-15)
(1.85113 -0.00396323 5.04815e-15)
(1.85438 -0.00464313 5.53784e-15)
(1.8582 -0.00543693 5.29537e-15)
(1.86266 -0.00636237 5.47455e-15)
(1.86789 -0.00743955 5.33693e-15)
(1.874 -0.00869114 5.32696e-15)
(1.88113 -0.0101425 5.40625e-15)
(1.88946 -0.0118214 5.23719e-15)
(1.89917 -0.0137583 5.36579e-15)
(1.91047 -0.0159856 5.66901e-15)
(1.92359 -0.0185371 5.54157e-15)
(1.93881 -0.0214467 5.90501e-15)
(1.95641 -0.0247469 5.70621e-15)
(1.97673 -0.0284664 5.72032e-15)
(2.00008 -0.0326266 5.68656e-15)
(2.02685 -0.0372377 5.3746e-15)
(2.05738 -0.0422936 5.5031e-15)
(2.09204 -0.0477651 5.54104e-15)
(2.13114 -0.0535933 5.82883e-15)
(2.17498 -0.0596832 5.4647e-15)
(2.22372 -0.0658954 5.79192e-15)
(2.27743 -0.0720451 5.73427e-15)
(2.33602 -0.0778973 5.86827e-15)
(2.39917 -0.0831792 5.92071e-15)
(2.46635 -0.0875863 5.87218e-15)
(2.53675 -0.0908135 5.83395e-15)
(2.60933 -0.092584 6.02763e-15)
(2.6828 -0.0926849 5.84252e-15)
(1.00015 -0.00130711 7.82187e-17)
(1.00154 -0.00392477 3.98052e-16)
(1.00449 -0.00649999 2.2161e-15)
(1.00897 -0.0089833 7.97713e-16)
(1.01484 -0.0113323 -2.30719e-15)
(1.022 -0.0135131 -1.99529e-16)
(1.03035 -0.0154997 -2.95767e-15)
(1.03977 -0.0172742 -6.30984e-16)
(1.05012 -0.0188264 -1.00095e-15)
(1.06129 -0.0201539 -3.26487e-15)
(1.07313 -0.0212607 -2.85649e-15)
(1.08552 -0.022156 -2.78865e-15)
(1.09835 -0.0228531 -4.59444e-15)
(1.11149 -0.0233678 -6.07213e-15)
(1.12486 -0.0237177 -5.40013e-15)
(1.13837 -0.0239213 -7.10126e-15)
(1.15194 -0.023997 -8.32555e-15)
(1.1655 -0.0239625 -7.74241e-15)
(1.179 -0.0238347 -9.22487e-15)
(1.19239 -0.0236292 -1.01362e-14)
(1.20563 -0.02336 -9.53861e-15)
(1.2187 -0.0230399 -1.05378e-14)
(1.23156 -0.02268 -1.13246e-14)
(1.24421 -0.0222901 -1.03002e-14)
(1.25662 -0.0218785 -1.12245e-14)
(1.26878 -0.0214522 -1.18326e-14)
(1.2807 -0.0210172 -1.23834e-14)
(1.29236 -0.0205785 -1.28579e-14)
(1.30377 -0.02014 -1.09158e-14)
(1.31493 -0.0197051 -1.13434e-14)
(1.32583 -0.0192762 -1.17346e-14)
(1.3365 -0.0188553 -1.21881e-14)
(1.34692 -0.0184439 -1.24684e-14)
(1.35711 -0.0180431 -1.2819e-14)
(1.36707 -0.0176535 -1.12599e-14)
(1.37681 -0.0172757 -1.19351e-14)
(1.38633 -0.0169098 -1.22377e-14)
(1.39565 -0.0165558 -1.24517e-14)
(1.40476 -0.0162136 -1.2515e-14)
(1.41368 -0.015883 -1.31206e-14)
(1.42241 -0.0155636 -1.1601e-14)
(1.43096 -0.0152551 -1.20027e-14)
(1.43933 -0.0149571 -1.23908e-14)
(1.44753 -0.0146691 -1.27623e-14)
(1.45556 -0.0143906 -1.28557e-14)
(1.46344 -0.0141212 -1.30061e-14)
(1.47116 -0.0138605 -1.32352e-14)
(1.47873 -0.0136079 -1.33791e-14)
(1.48615 -0.013363 -1.33611e-14)
(1.49344 -0.0131254 -1.34733e-14)
(1.50059 -0.0128948 -1.35559e-14)
(1.5076 -0.0126706 -1.35371e-14)
(1.51449 -0.0124526 -1.3708e-14)
(1.52125 -0.0122405 -1.38286e-14)
(1.52788 -0.0120338 -1.37287e-14)
(1.5344 -0.0118324 -1.43724e-14)
(1.54081 -0.0116359 -1.21338e-14)
(1.5471 -0.011444 -1.20368e-14)
(1.55328 -0.0112567 -1.22844e-14)
(1.55935 -0.0110736 -1.25915e-14)
(1.56532 -0.0108945 -1.26477e-14)
(1.57118 -0.0107192 -1.2812e-14)
(1.57695 -0.0105477 -1.28578e-14)
(1.58262 -0.0103796 -1.3037e-14)
(1.58819 -0.010215 -1.30551e-14)
(1.59367 -0.0100536 -1.29484e-14)
(1.59905 -0.00989525 -1.31759e-14)
(1.60435 -0.00973994 -1.3338e-14)
(1.60956 -0.00958752 -1.23452e-14)
(1.61468 -0.0094379 -9.46104e-15)
(1.61972 -0.00929097 -1.09559e-14)
(1.62468 -0.00914665 -8.43224e-15)
(1.62955 -0.00900486 -1.01671e-14)
(1.63435 -0.00886551 -7.62801e-15)
(1.63907 -0.00872853 -9.22122e-15)
(1.64371 -0.00859385 -7.07593e-15)
(1.64827 -0.0084614 -8.74055e-15)
(1.65277 -0.0083311 -6.45714e-15)
(1.65719 -0.0082029 -8.19103e-15)
(1.66154 -0.00807673 -5.93454e-15)
(1.66581 -0.00795252 -7.77014e-15)
(1.67002 -0.0078302 -6.46689e-15)
(1.67417 -0.00770971 -7.00353e-15)
(1.67824 -0.00759098 -7.4549e-15)
(1.68225 -0.00747394 -7.82887e-15)
(1.6862 -0.00735853 -8.16917e-15)
(1.69008 -0.00724467 -8.7202e-15)
(1.6939 -0.00713228 -8.86899e-15)
(1.69766 -0.00702129 -9.09816e-15)
(1.70136 -0.00691162 -9.53784e-15)
(1.705 -0.00680318 -9.72067e-15)
(1.70858 -0.00669589 -9.91309e-15)
(1.7121 -0.00658966 -1.04012e-14)
(1.71557 -0.0064844 -9.47501e-15)
(1.71897 -0.00638001 -6.88873e-15)
(1.72232 -0.00627638 -8.42608e-15)
(1.72561 -0.00617344 -6.15036e-15)
(1.72885 -0.00607106 -7.83466e-15)
(1.73203 -0.00596914 -5.61188e-15)
(1.73516 -0.00586758 -7.09165e-15)
(1.73823 -0.00576628 -5.42296e-15)
(1.74125 -0.00566512 -4.33168e-15)
(1.74421 -0.005564 -3.48909e-15)
(1.74711 -0.00546282 -2.75847e-15)
(1.74997 -0.00536148 -1.9749e-15)
(1.75276 -0.00525988 -1.12063e-15)
(1.75551 -0.00515794 -5.08058e-16)
(1.75819 -0.00505556 -2.72392e-16)
(1.76083 -0.00495266 1.17604e-16)
(1.7634 -0.00484919 5.05859e-16)
(1.76592 -0.00474507 9.68268e-16)
(1.76839 -0.00464026 1.59367e-15)
(1.77079 -0.00453473 4.86967e-16)
(1.77314 -0.00442843 1.13971e-15)
(1.77544 -0.00432136 1.63827e-15)
(1.77767 -0.00421352 2.21505e-15)
(1.77985 -0.00410492 2.56577e-15)
(1.78197 -0.00399558 2.82892e-15)
(1.78403 -0.00388554 3.05059e-15)
(1.78603 -0.00377485 3.41768e-15)
(1.78797 -0.00366356 3.51882e-15)
(1.78985 -0.00355176 3.84737e-15)
(1.79167 -0.00343952 3.94727e-15)
(1.79343 -0.00332693 4.21842e-15)
(1.79513 -0.00321409 4.35818e-15)
(1.79677 -0.0031011 4.62795e-15)
(1.79835 -0.00298808 4.73872e-15)
(1.79987 -0.00287514 5.00881e-15)
(1.80133 -0.0027624 4.96906e-15)
(1.80273 -0.00265 5.20006e-15)
(1.80407 -0.00253805 5.39365e-15)
(1.80535 -0.00242671 5.66281e-15)
(1.80658 -0.00231611 5.74159e-15)
(1.80774 -0.00220642 5.96457e-15)
(1.80884 -0.0020978 5.93719e-15)
(1.80989 -0.00199045 5.97914e-15)
(1.81089 -0.00188456 6.27804e-15)
(1.81182 -0.00178035 5.07461e-15)
(1.8127 -0.00167808 5.60231e-15)
(1.81353 -0.00157802 5.7351e-15)
(1.81431 -0.00148047 6.20683e-15)
(1.81504 -0.00138577 6.20738e-15)
(1.81572 -0.0012943 6.39136e-15)
(1.81635 -0.00120645 6.63816e-15)
(1.81694 -0.00112268 6.79385e-15)
(1.81749 -0.00104347 6.80681e-15)
(1.81799 -0.000969337 6.92114e-15)
(1.81846 -0.000900859 7.03317e-15)
(1.8189 -0.000838644 7.2051e-15)
(1.81931 -0.000783354 7.3582e-15)
(1.81969 -0.000735705 7.62735e-15)
(1.82005 -0.000696473 7.57658e-15)
(1.82039 -0.000666511 7.63716e-15)
(1.82072 -0.000646754 7.60185e-15)
(1.82105 -0.000638246 7.6277e-15)
(1.82138 -0.000642156 7.69107e-15)
(1.82171 -0.000659814 7.97703e-15)
(1.82206 -0.00069274 8.14071e-15)
(1.82243 -0.000742689 8.28478e-15)
(1.82283 -0.000811703 8.27461e-15)
(1.82328 -0.000902167 8.28317e-15)
(1.82379 -0.00101688 8.65174e-15)
(1.82436 -0.00115914 7.38722e-15)
(1.82502 -0.00133283 7.54982e-15)
(1.82578 -0.00154253 7.88795e-15)
(1.82666 -0.00179361 8.10104e-15)
(1.82769 -0.00209244 8.25175e-15)
(1.8289 -0.00244646 8.30723e-15)
(1.83031 -0.00286442 8.40238e-15)
(1.83196 -0.00335653 8.48215e-15)
(1.8339 -0.00393474 8.49255e-15)
(1.83618 -0.00461292 8.56004e-15)
(1.83884 -0.00540717 8.50015e-15)
(1.84197 -0.00633608 8.79174e-15)
(1.84564 -0.00742102 8.71529e-15)
(1.84993 -0.00868648 8.66055e-15)
(1.85496 -0.0101603 8.89481e-15)
(1.86085 -0.0118739 8.95734e-15)
(1.86773 -0.0138625 8.75197e-15)
(1.87576 -0.0161651 8.8474e-15)
(1.88514 -0.0188245 8.86381e-15)
(1.89606 -0.0218865 8.8618e-15)
(1.90877 -0.0253993 8.93833e-15)
(1.92353 -0.029412 8.99289e-15)
(1.94064 -0.0339724 9.01648e-15)
(1.96043 -0.0391238 8.94272e-15)
(1.98323 -0.0449006 9.02495e-15)
(2.00944 -0.0513227 8.05115e-15)
(2.03944 -0.0583878 8.18766e-15)
(2.0736 -0.0660627 8.25191e-15)
(2.11231 -0.0742728 8.32806e-15)
(2.15587 -0.0828919 8.41575e-15)
(2.20454 -0.0917294 8.5021e-15)
(2.25843 -0.100529 8.50995e-15)
(2.31749 -0.108953 8.52073e-15)
(2.38146 -0.116609 8.47597e-15)
(2.44983 -0.123045 8.34489e-15)
(2.52177 -0.127804 8.20043e-15)
(2.59619 -0.130461 8.19834e-15)
(2.67169 -0.130682 7.94891e-15)
(1.00016 -0.00170623 5.00658e-17)
(1.00159 -0.00512507 -3.81995e-16)
(1.00466 -0.00848603 -1.34094e-15)
(1.0093 -0.0117228 -1.28766e-15)
(1.01537 -0.0147795 -2.20668e-15)
(1.02278 -0.0176111 -2.42854e-15)
(1.0314 -0.0201836 -2.89583e-15)
(1.04111 -0.0224739 -2.53038e-15)
(1.05176 -0.02447 -2.36081e-15)
(1.06323 -0.0261699 -2.71874e-15)
(1.07536 -0.0275803 -2.83215e-15)
(1.08803 -0.0287144 -3.16212e-15)
(1.10112 -0.0295907 -3.69311e-15)
(1.11452 -0.0302309 -4.26599e-15)
(1.12812 -0.0306587 -3.4383e-15)
(1.14184 -0.0308985 -4.40017e-15)
(1.1556 -0.0309746 -5.21694e-15)
(1.16933 -0.0309102 -5.76489e-15)
(1.18299 -0.0307273 -6.41805e-15)
(1.19652 -0.030446 -6.75997e-15)
(1.20988 -0.0300844 -7.29401e-15)
(1.22306 -0.0296587 -7.62119e-15)
(1.23601 -0.0291831 -7.88583e-15)
(1.24874 -0.0286699 -9.14671e-15)
(1.26121 -0.0281297 -8.77459e-15)
(1.27344 -0.0275714 -8.76247e-15)
(1.2854 -0.0270025 -8.88546e-15)
(1.29709 -0.0264292 -8.91134e-15)
(1.30852 -0.0258565 -8.81798e-15)
(1.31969 -0.0252885 -8.67837e-15)
(1.3306 -0.0247284 -8.72593e-15)
(1.34126 -0.0241787 -8.85573e-15)
(1.35166 -0.0236411 -8.93605e-15)
(1.36182 -0.0231171 -9.07044e-15)
(1.37175 -0.0226075 -8.85639e-15)
(1.38144 -0.0221129 -8.86741e-15)
(1.3909 -0.0216335 -8.87012e-15)
(1.40015 -0.0211695 -9.0087e-15)
(1.40919 -0.0207206 -9.07566e-15)
(1.41802 -0.0202867 -9.32466e-15)
(1.42665 -0.0198672 -9.08232e-15)
(1.43509 -0.0194617 -9.05697e-15)
(1.44335 -0.0190698 -9.06197e-15)
(1.45143 -0.0186909 -9.19833e-15)
(1.45933 -0.0183244 -9.16385e-15)
(1.46707 -0.0179697 -9.36592e-15)
(1.47464 -0.0176263 -9.47392e-15)
(1.48206 -0.0172937 -9.59154e-15)
(1.48932 -0.0169711 -9.588e-15)
(1.49643 -0.0166583 -9.59744e-15)
(1.50341 -0.0163545 -9.74106e-15)
(1.51024 -0.0160595 -9.75195e-15)
(1.51694 -0.0157726 -9.82687e-15)
(1.5235 -0.0154935 -9.95571e-15)
(1.52994 -0.0152219 -9.88668e-15)
(1.53626 -0.0149572 -1.0337e-14)
(1.54245 -0.0146992 -8.79583e-15)