/*--------------------------------*- C++ -*----------------------------------*\
  =========                 |
  \\      /  F ield         | OpenFOAM: The Open Source CFD Toolbox
   \\    /   O peration     | Website:  https://openfoam.org
    \\  /    A nd           | Version:  7
     \\/     M anipulation  |
\*---------------------------------------------------------------------------*/
FoamFile
{
    version     2.0;
    format      ascii;
    class       volVectorField;
    location    "120.999914";
    object      U;
}
// * * * * * * * * * * * * * * * * * * * * * * * * * * * * * * * * * * * * * //

dimensions      [0 1 -1 0 0 0 0];

internalField   nonuniform List<vector> 
5800
(
(-0.00125142 0.0402075 -3.60658e-21)
(-0.0050983 0.099961 -1.26053e-20)
(-0.0120976 0.143662 2.30237e-21)
(-0.0215545 0.172896 8.64825e-21)
(-0.0331334 0.189834 3.68432e-21)
(-0.0464488 0.197097 -8.98657e-21)
(-0.0610336 0.19737 -2.89698e-21)
(-0.0764357 0.192997 -1.14693e-21)
(-0.092255 0.185625 -1.04827e-20)
(-0.108147 0.176011 -2.04982e-21)
(0.00756536 0.0175252 -6.0802e-21)
(0.0393968 0.0391595 -2.06601e-20)
(0.0974635 0.0503334 3.77994e-21)
(0.164515 0.0541238 1.36963e-20)
(0.233022 0.0535232 5.60323e-21)
(0.299443 0.0508427 -1.33639e-20)
(0.362072 0.0474797 -4.03231e-21)
(0.420464 0.0440694 -1.62064e-21)
(0.474686 0.0408173 -8.10048e-21)
(0.524926 0.0377639 -7.16489e-21)
(0.571392 0.0349096 -8.90571e-21)
(0.00722366 -0.000484743 6.13014e-21)
(0.0386275 -0.000962584 2.07932e-20)
(0.0964416 -0.000829443 -3.80989e-21)
(0.163373 -0.000380126 -1.37757e-20)
(0.231843 0.000256613 -5.63548e-21)
(0.298273 0.000976147 1.34357e-20)
(0.360929 0.00167931 4.06975e-21)
(0.419355 0.00230063 1.64016e-21)
(0.473613 0.00281485 1.3599e-20)
(0.523891 0.00322397 2.36787e-21)
(0.570396 0.00354103 8.98061e-21)
(0.613339 0.00378109 -1.28132e-21)
(0.652929 0.00395886 4.17829e-21)
(0.689371 0.00408816 -6.9892e-21)
(0.722865 0.00418178 8.31477e-21)
(0.753606 0.00425155 8.43298e-21)
(0.781786 0.00430806 2.34349e-21)
(0.807563 0.00435805 -1.17866e-20)
(0.831063 0.00440374 9.40903e-21)
(0.852468 0.00445058 -1.3524e-21)
(0.00827076 -0.0184148 -9.01825e-21)
(0.0408818 -0.0409276 -1.35015e-20)
(0.0991931 -0.051817 -4.17009e-21)
(0.166189 -0.0547209 -1.19659e-20)
(0.234488 -0.0528693 2.57987e-21)
(0.300645 -0.0487722 -1.71853e-20)
(0.363006 -0.0440218 -6.21066e-21)
(0.421153 -0.0393847 -1.32593e-20)
(0.475157 -0.0351178 7.27315e-21)
(0.525209 -0.0312582 -1.70562e-20)
(0.571513 -0.0277806 -5.1415e-20)
(0.614279 -0.02465 8.10939e-21)
(0.653714 -0.0218316 -1.11549e-20)
(0.690021 -0.0192921 6.54868e-21)
(0.723396 -0.0169998 -1.5425e-20)
(0.754036 -0.0149257 1.59187e-21)
(0.78213 -0.0130429 -7.81295e-21)
(0.807838 -0.0113198 4.39568e-20)
(0.831283 -0.00971814 -4.24397e-21)
(0.852618 -0.00823574 5.31836e-21)
(0.0106884 -0.0360984 -2.77455e-20)
(0.0461251 -0.0804084 -2.70366e-20)
(0.105681 -0.102257 6.15943e-21)
(0.172929 -0.10854 1.31001e-20)
(0.240926 -0.105531 5.38939e-21)
(0.306533 -0.0981166 -1.67425e-20)
(0.368282 -0.0893708 -2.38575e-20)
(0.425838 -0.0807617 5.00332e-20)
(0.479301 -0.0727803 -1.34425e-20)
(0.528864 -0.0655044 1.74055e-20)
(0.574731 -0.058897 2.69736e-20)
(0.617105 -0.0529032 4.57829e-21)
(0.65619 -0.0474689 7.52168e-21)
(0.692186 -0.0425411 1.61107e-20)
(0.725286 -0.0380699 -1.63733e-20)
(0.755681 -0.0340096 1.54522e-20)
(0.783561 -0.0303173 -1.80583e-21)
(0.809092 -0.0269377 -4.30141e-20)
(0.832379 -0.0238045 2.84416e-20)
(0.853508 -0.0209394 -2.29252e-20)
(0.0144407 -0.0533721 2.12904e-20)
(0.0542908 -0.119082 -3.39994e-20)
(0.115831 -0.151781 4.99383e-20)
(0.183525 -0.161481 -2.24292e-20)
(0.251099 -0.157409 1.17613e-19)
(0.315887 -0.146774 6.87513e-20)
(0.376712 -0.134118 -4.19867e-20)
(0.433372 -0.121608 -9.7824e-20)
(0.486011 -0.109975 3.81591e-20)
(0.534827 -0.0993385 2.55516e-20)
(0.580022 -0.0896513 3.3703e-20)
(0.621792 -0.0808397 -6.54656e-20)
(0.660337 -0.0728297 -7.52347e-20)
(0.695851 -0.0655498 5.6402e-20)
(0.728519 -0.0589319 4.33718e-20)
(0.758527 -0.0529141 -1.4613e-20)
(0.786069 -0.0474369 3.1692e-20)
(0.811319 -0.04242 1.92594e-21)
(0.834352 -0.0377694 -4.63158e-20)
(0.855133 -0.0335348 -1.44749e-20)
(0.0194749 -0.0700767 -7.87381e-20)
(0.06528 -0.156634 -2.17903e-20)
(0.129537 -0.200028 -7.53632e-20)
(0.197879 -0.213198 2.15805e-20)
(0.26492 -0.208189 -1.1165e-19)
(0.328633 -0.194468 -6.57023e-20)
(0.388232 -0.178017 7.6424e-20)
(0.443697 -0.161706 9.32806e-20)
(0.495235 -0.146507 -8.23118e-20)
(0.543053 -0.132587 2.14393e-20)
(0.587347 -0.11989 -2.97735e-20)
(0.628307 -0.108323 1.14144e-19)
(0.666125 -0.0977931 -3.58067e-20)
(0.700987 -0.0882111 -1.23453e-20)
(0.733072 -0.0794913 -7.20225e-21)
(0.762556 -0.0715562 -2.49549e-20)
(0.789637 -0.0643294 -6.04063e-20)
(0.814504 -0.057706 -1.2205e-21)
(0.837191 -0.051569 1.64067e-20)
(0.857497 -0.0460047 -1.55356e-20)
(0.0257214 -0.0860596 -5.14173e-20)
(0.0789628 -0.192759 -2.16469e-20)
(0.146657 -0.246649 1.21824e-19)
(0.215858 -0.26335 6.67862e-20)
(0.282274 -0.257564 2.74336e-20)
(0.344672 -0.240926 -8.42598e-20)
(0.402756 -0.220829 -9.63936e-20)
(0.456739 -0.200843 1.14795e-20)
(0.506908 -0.182188 2.19829e-20)
(0.553484 -0.165083 1.64371e-20)
(0.596655 -0.149464 5.3116e-20)
(0.636604 -0.13522 -1.16627e-19)
(0.673513 -0.122241 1.71228e-21)
(0.70756 -0.110421 4.01892e-20)
(0.738913 -0.0996558 2.27181e-21)
(0.76774 -0.0898544 -7.86973e-21)
(0.79424 -0.080923 -1.99415e-20)
(0.818621 -0.0727318 7.36566e-20)
(0.840873 -0.0651465 -3.17718e-20)
(0.86059 -0.0583029 2.55722e-20)
(0.033095 -0.101176 8.14818e-20)
(0.0951788 -0.227166 -4.30494e-20)
(0.167015 -0.291306 -4.94731e-20)
(0.237299 -0.31161 -4.57943e-20)
(0.303021 -0.305239 -9.01527e-20)
(0.363883 -0.285888 -1.15915e-20)
(0.420178 -0.262324 1.54092e-20)
(0.472405 -0.238813 -3.4769e-20)
(0.520948 -0.216834 4.99086e-20)
(0.566046 -0.196662 4.26319e-21)
(0.607881 -0.178227 -2.07764e-20)
(0.646626 -0.161402 9.45807e-20)
(0.682452 -0.146061 2.76674e-20)
(0.715526 -0.132078 -2.70389e-20)
(0.746006 -0.119336 5.9649e-20)
(0.774046 -0.10773 -6.27835e-20)
(0.799848 -0.0971479 -6.74965e-21)
(0.823644 -0.087435 7.78833e-21)
(0.845377 -0.0784443 8.56012e-20)
(0.864402 -0.0703762 -4.76401e-20)
(0.0414955 -0.115291 2.78782e-20)
(0.113739 -0.259578 3.26217e-20)
(0.190403 -0.333677 1.43035e-19)
(0.262011 -0.357664 6.03836e-20)
(0.326992 -0.350928 2.06217e-19)
(0.386122 -0.329102 1.71503e-20)
(0.440374 -0.30228 9.56636e-20)
(0.490585 -0.275422 6.6179e-20)
(0.537257 -0.250273 -1.412e-19)
(0.580653 -0.22717 -2.22087e-20)
(0.62095 -0.206042 -5.19887e-20)
(0.658307 -0.186747 -6.41394e-20)
(0.692883 -0.169141 2.12496e-20)
(0.724835 -0.153085 6.54771e-20)
(0.754305 -0.138446 -5.73737e-20)
(0.781435 -0.125106 -5.01773e-20)
(0.806428 -0.112937 4.86614e-20)
(0.829541 -0.101757 -6.47432e-20)
(0.850673 -0.0914085 -9.27738e-20)
(0.868918 -0.0821756 -2.49106e-20)
(0.0508088 -0.128281 -8.00727e-20)
(0.134426 -0.28974 -8.13709e-20)
(0.216583 -0.373461 -4.25621e-20)
(0.289772 -0.401214 -1.00779e-19)
(0.353996 -0.394361 -4.93479e-20)
(0.411223 -0.37033 -1.16373e-19)
(0.463201 -0.340486 -1.00583e-19)
(0.511153 -0.310482 3.75013e-20)
(0.555725 -0.282337 5.7524e-20)
(0.597209 -0.25646 -1.00686e-19)
(0.635775 -0.232778 6.24169e-20)
(0.67157 -0.211138 -4.16201e-20)
(0.70474 -0.19138 -5.542e-20)
(0.735427 -0.173351 -5.77645e-20)
(0.763759 -0.156904 1.61974e-19)
(0.789862 -0.141911 7.1565e-20)
(0.813939 -0.128227 1.71251e-20)
(0.836274 -0.11564 -7.38122e-20)
(0.856733 -0.103987 1.54072e-19)
(0.874122 -0.093652 5.7186e-20)
(0.0609081 -0.140034 -1.03988e-19)
(0.156999 -0.317415 1.18954e-19)
(0.245287 -0.410375 1.1635e-19)
(0.320331 -0.441982 1.22045e-19)
(0.383813 -0.435285 7.31507e-20)
(0.439 -0.409348 1.76408e-20)
(0.488497 -0.376747 1.16035e-19)
(0.533968 -0.343819 -1.40159e-19)
(0.576227 -0.312871 -3.8992e-20)
(0.615603 -0.284391 -3.25442e-20)
(0.65226 -0.258311 1.4436e-19)
(0.686331 -0.234465 -1.99106e-20)
(0.717947 -0.212679 1.68112e-20)
(0.747236 -0.192788 3.59187e-21)
(0.774311 -0.174634 5.76502e-20)
(0.799278 -0.158076 -7.16846e-20)
(0.822337 -0.142956 1.43935e-20)
(0.843805 -0.129032 1.6227e-19)
(0.863521 -0.116132 -2.32255e-20)
(0.879995 -0.104758 -1.03472e-19)
(0.0716555 -0.150453 -6.17967e-20)
(0.181191 -0.342391 2.06819e-20)
(0.27622 -0.444162 -1.23626e-19)
(0.353413 -0.479708 -6.06054e-20)
(0.416205 -0.473462 -8.02293e-20)
(0.469248 -0.445946 -6.55648e-21)
(0.516084 -0.410877 -1.55528e-19)
(0.558875 -0.375271 1.3671e-19)
(0.598626 -0.341733 5.94919e-20)
(0.635713 -0.310838 2.50241e-20)
(0.670297 -0.282528 -1.39996e-19)
(0.702495 -0.256626 2.49043e-20)
(0.732422 -0.232949 -1.73586e-20)
(0.76019 -0.211316 -7.49034e-20)
(0.785896 -0.191562 -6.97782e-20)
(0.809626 -0.173537 1.13945e-19)
(0.831573 -0.15707 5.73707e-20)
(0.85209 -0.141884 -3.28651e-20)
(0.871001 -0.127796 -9.13806e-20)
(0.886513 -0.115447 1.36173e-20)
(0.0829033 -0.159456 8.37109e-20)
(0.206715 -0.364482 3.77993e-20)
(0.309059 -0.474589 4.63382e-20)
(0.388716 -0.514157 5.20624e-20)
(0.450909 -0.508675 -5.51627e-20)
(0.501743 -0.479933 1.2196e-19)
(0.545772 -0.442711 -1.20535e-19)
(0.585705 -0.404692 -4.75432e-21)
(0.622773 -0.368791 9.52276e-20)
(0.657409 -0.335682 1.98144e-20)
(0.689772 -0.305323 8.31814e-20)
(0.719961 -0.277528 -3.48597e-20)
(0.748075 -0.252105 2.15969e-20)
(0.774211 -0.228862 1.37931e-19)
(0.798447 -0.207623 -8.32909e-21)
(0.820847 -0.188236 -4.01777e-20)
(0.841596 -0.170515 -8.4709e-20)
(0.86108 -0.154151 -1.38491e-19)
(0.879134 -0.13894 -2.12997e-20)
(0.893651 -0.125679 1.38215e-19)
(0.0944958 -0.166977 9.68938e-20)
(0.233264 -0.38353 3.23893e-21)
(0.34346 -0.501454 -1.78448e-19)
(0.425915 -0.545119 7.06921e-20)
(0.487641 -0.540729 4.6636e-22)
(0.536243 -0.511136 7.55797e-20)
(0.577352 -0.472097 7.1815e-20)
(0.614279 -0.431947 -6.28625e-21)
(0.648511 -0.393926 -4.05025e-20)
(0.680552 -0.358819 -1.3991e-19)
(0.71056 -0.326603 4.25822e-20)
(0.738621 -0.297088 1.75062e-19)
(0.764813 -0.270073 -1.22639e-19)
(0.789216 -0.245357 -1.00839e-19)
(0.811891 -0.222758 -6.30055e-20)
(0.832878 -0.202118 -1.50154e-19)
(0.852348 -0.183244 4.382e-20)
(0.870726 -0.165791 2.08176e-19)
(0.887875 -0.149526 -3.12222e-20)
(0.901381 -0.135415 -3.89973e-20)
(0.106271 -0.172967 4.01006e-20)
(0.260516 -0.399405 -6.38547e-20)
(0.379056 -0.524581 5.53076e-20)
(0.464665 -0.572408 -8.94262e-20)
(0.526099 -0.569451 9.81087e-20)
(0.572493 -0.539403 -9.84264e-20)
(0.610605 -0.498902 -2.41148e-20)
(0.644406 -0.456922 1.056e-19)
(0.675672 -0.417037 -8.06288e-20)
(0.704993 -0.380157 8.94317e-20)
(0.732533 -0.346286 -1.05353e-19)
(0.75836 -0.315232 -6.09664e-20)
(0.782533 -0.286786 -4.26435e-20)
(0.805117 -0.260742 6.60248e-20)
(0.826151 -0.236911 1.33808e-20)
(0.845651 -0.215134 8.0594e-20)
(0.86377 -0.195213 -5.36976e-20)
(0.880974 -0.176768 -3.63845e-21)
(0.897177 -0.159522 8.1241e-20)
(0.909673 -0.144623 -3.68372e-20)
(0.118063 -0.177394 -9.429e-21)
(0.288135 -0.41201 -3.79029e-20)
(0.415464 -0.543832 -7.14624e-21)
(0.504599 -0.595869 -2.02465e-20)
(0.565965 -0.59469 -6.7156e-20)
(0.610221 -0.5646 -5.75416e-20)
(0.645301 -0.523012 -3.77601e-20)
(0.675887 -0.479516 -5.26798e-20)
(0.704081 -0.438035 1.08579e-19)
(0.730578 -0.399617 1.14083e-20)
(0.755554 -0.3643 1.65952e-19)
(0.779058 -0.331895 5.11266e-20)
(0.801132 -0.302188 5.53794e-20)
(0.821821 -0.274966 -8.83439e-20)
(0.841147 -0.250037 1.33947e-19)
(0.859097 -0.227242 -2.38267e-20)
(0.8758 -0.206386 -1.40625e-20)
(0.891765 -0.187053 -1.1638e-19)
(0.906992 -0.168908 5.38598e-20)
(0.918495 -0.15328 -4.33505e-20)
(0.129702 -0.180247 -7.31425e-20)
(0.315776 -0.421282 -3.30199e-20)
(0.452281 -0.559097 -4.83985e-20)
(0.545335 -0.615375 -4.19138e-20)
(0.606904 -0.616323 -1.11438e-20)
(0.649143 -0.586617 1.14863e-19)
(0.681199 -0.544331 9.87794e-20)
(0.708513 -0.499647 8.30506e-20)
(0.733556 -0.456848 -8.4764e-20)
(0.757149 -0.417134 -4.87352e-20)
(0.779482 -0.380588 -1.7312e-19)
(0.800593 -0.347025 1.3433e-19)
(0.820501 -0.316229 -5.15691e-20)
(0.839233 -0.287985 9.28034e-20)
(0.856795 -0.262095 -6.88338e-20)
(0.873143 -0.238404 2.53311e-20)
(0.888372 -0.216721 -3.33541e-20)
(0.903033 -0.196607 1.03793e-19)
(0.917259 -0.177653 -8.16624e-20)
(0.927815 -0.161362 -3.59213e-20)
(0.141021 -0.181531 7.96658e-20)
(0.343085 -0.42719 -2.96273e-20)
(0.489096 -0.570305 5.72874e-20)
(0.586474 -0.63083 6.03041e-20)
(0.648564 -0.634252 -1.8177e-20)
(0.688965 -0.605366 -1.22042e-19)
(0.718049 -0.562786 8.70477e-20)
(0.742071 -0.517252 -1.77101e-20)
(0.763912 -0.473419 2.70255e-20)
(0.784541 -0.432658 3.3104e-20)
(0.804175 -0.395103 -6.68883e-20)
(0.822838 -0.360581 -1.58312e-19)
(0.840529 -0.328873 6.99282e-21)
(0.857256 -0.299764 -1.58049e-20)
(0.87301 -0.273055 4.53355e-21)
(0.887719 -0.248592 7.9078e-20)
(0.901426 -0.226202 -7.61786e-20)
(0.914714 -0.205428 -1.16242e-19)
(0.927913 -0.185785 -3.00989e-20)
(0.937607 -0.168902 6.08592e-20)
(0.151852 -0.181271 4.35414e-21)
(0.369708 -0.429741 -2.88366e-20)
(0.525485 -0.57742 8.4315e-21)
(0.627604 -0.642172 -4.40506e-20)
(0.690586 -0.648406 -1.70755e-20)
(0.729382 -0.620783 -1.07549e-20)
(0.755597 -0.578321 1.82143e-20)
(0.776343 -0.532286 -6.19076e-20)
(0.794958 -0.48771 -1.47095e-20)
(0.812587 -0.446154 4.03981e-20)
(0.829485 -0.407814 2.72945e-20)
(0.845665 -0.372531 9.80614e-20)
(0.861104 -0.34009 9.69215e-20)
(0.875792 -0.310276 -2.4886e-20)
(0.889707 -0.282888 6.6326e-21)
(0.902753 -0.257775 2.64518e-20)
(0.914903 -0.234774 9.89972e-20)
(0.926736 -0.213424 1.1555e-19)
(0.938857 -0.193174 1.28873e-19)
(0.947853 -0.175807 -1.66586e-20)
(0.162032 -0.179511 -1.21853e-20)
(0.395289 -0.428976 1.47799e-20)
(0.561019 -0.580446 1.60163e-20)
(0.668305 -0.64937 1.25942e-20)
(0.732595 -0.65874 -3.17282e-20)
(0.770079 -0.632825 1.1389e-19)
(0.79358 -0.590904 -3.54292e-20)
(0.811107 -0.544721 8.46557e-21)
(0.826503 -0.499698 -5.11982e-20)
(0.841121 -0.457601 -5.00025e-21)
(0.855265 -0.4187 8.77077e-20)
(0.868943 -0.382857 -4.48158e-20)
(0.882112 -0.349863 -1.64481e-20)
(0.89474 -0.319504 -3.98386e-20)
(0.906795 -0.291581 3.75907e-20)
(0.918167 -0.265947 -7.58869e-20)
(0.928749 -0.24246 2.91035e-20)
(0.939029 -0.220692 -1.93947e-20)
(0.949937 -0.200087 7.98035e-21)
(0.958541 -0.182537 3.66942e-20)
(0.171404 -0.176314 5.56157e-21)
(0.419478 -0.424972 -1.28302e-21)
(0.595269 -0.579422 -4.07935e-21)
(0.708147 -0.652428 -1.71364e-21)
(0.774211 -0.665242 1.43394e-20)
(0.810737 -0.641475 -6.41769e-20)
(0.831734 -0.600521 -7.91603e-21)
(0.84614 -0.554551 -4.16682e-20)
(0.858355 -0.509378 6.33025e-20)
(0.869973 -0.466993 4.81876e-20)
(0.881367 -0.427755 -8.28118e-20)
(0.892544 -0.391552 6.29122e-20)
(0.90344 -0.358182 -5.3295e-20)
(0.914001 -0.327439 1.2475e-20)
(0.924186 -0.299122 -1.69442e-19)
(0.933887 -0.273083 6.16673e-21)
(0.942932 -0.24918 -5.80866e-20)
(0.951614 -0.226976 -8.41586e-20)
(0.961045 -0.205886 -5.02013e-20)
(0.96979 -0.18805 -8.14289e-20)
(0.179827 -0.171763 2.13252e-20)
(0.44193 -0.417839 -3.53283e-20)
(0.627805 -0.574428 1.40952e-20)
(0.746696 -0.651386 1.86565e-20)
(0.815045 -0.667923 6.3044e-21)
(0.85103 -0.646741 2.33969e-20)
(0.86979 -0.60718 -1.31454e-20)
(0.881218 -0.561785 -1.21489e-20)
(0.890321 -0.516761 -7.34155e-21)
(0.898978 -0.47434 -2.91904e-20)
(0.907646 -0.434987 2.13951e-20)
(0.916338 -0.39862 -5.95717e-20)
(0.924975 -0.36505 5.13807e-20)
(0.933481 -0.334079 5.12878e-20)
(0.941796 -0.305511 9.2743e-20)
(0.949829 -0.279193 3.18328e-20)
(0.957396 -0.254979 6.40406e-20)
(0.964541 -0.232533 7.05077e-20)
(0.972017 -0.211826 6.32428e-20)
(0.980497 -0.194976 3.12516e-20)
(0.187191 -0.165961 5.25042e-20)
(0.462307 -0.407713 -1.63914e-20)
(0.658204 -0.565588 -2.37651e-20)
(0.783518 -0.646318 -4.98324e-20)
(0.854704 -0.666827 5.58718e-21)
(0.890628 -0.64865 7.5722e-21)
(0.907478 -0.610911 1.25562e-20)
(0.916118 -0.566453 -2.81341e-21)
(0.922215 -0.521874 -2.10814e-20)
(0.927971 -0.479667 -7.36029e-21)
(0.933958 -0.440415 6.4488e-20)
(0.940201 -0.404077 1.47829e-20)
(0.946609 -0.37048 1.02886e-20)
(0.953081 -0.339435 -4.05405e-20)
(0.959542 -0.310756 -1.23421e-19)
(0.96591 -0.284284 3.8416e-20)
(0.972032 -0.259869 2.53942e-20)
(0.977786 -0.237282 -7.25487e-20)
(0.983458 -0.216766 -4.09297e-20)
(0.990333 -0.199078 -2.03421e-20)
(0.193396 -0.158978 -6.02535e-20)
(0.480301 -0.394737 4.05556e-20)
(0.686052 -0.553079 -8.56406e-20)
(0.818184 -0.637334 4.39297e-21)
(0.892791 -0.662023 2.91984e-20)
(0.929197 -0.647259 -3.58381e-20)
(0.944529 -0.611761 -1.42327e-20)
(0.950621 -0.568602 1.56246e-21)
(0.953849 -0.524761 1.71259e-20)
(0.956793 -0.483011 1.76566e-20)
(0.960162 -0.444071 -4.01302e-20)
(0.964009 -0.40795 -7.30409e-20)
(0.968231 -0.374493 2.64151e-20)
(0.97271 -0.343523 2.32825e-20)
(0.977346 -0.314866 6.30859e-20)
(0.982061 -0.288362 -8.99517e-21)
(0.986751 -0.263845 2.91012e-22)
(0.991237 -0.241167 2.36208e-21)
(0.995402 -0.220735 -6.02741e-21)
(1.00039 -0.202551 -9.46531e-20)
(0.198282 -0.150878 8.00554e-20)
(0.495639 -0.379144 8.67461e-20)
(0.710945 -0.537116 8.91354e-20)
(0.850287 -0.624576 2.35886e-20)
(0.928912 -0.65361 -3.3677e-20)
(0.966404 -0.642644 -2.62186e-20)
(0.980673 -0.609799 -1.28041e-20)
(0.984509 -0.568294 8.11824e-21)
(0.985044 -0.52548 -1.71253e-21)
(0.985289 -0.484425 -9.3172e-21)
(0.986124 -0.446 4.58587e-21)
(0.987643 -0.410276 3.03491e-20)
(0.989737 -0.37712 -2.69851e-20)
(0.992274 -0.346369 1.41338e-21)
(0.995131 -0.317862 -1.49489e-20)
(0.998225 -0.291441 -8.95992e-21)
(1.00149 -0.266929 4.43483e-21)
(1.00477 -0.244237 -1.47061e-20)
(1.00767 -0.223907 1.48811e-20)
(1.01099 -0.205495 8.63682e-20)
(0.201724 -0.141872 5.60416e-20)
(0.508071 -0.361271 -1.66305e-19)
(0.732403 -0.517874 8.54952e-20)
(0.87947 -0.608251 2.6057e-20)
(0.962679 -0.641708 -6.34386e-20)
(1.00191 -0.634904 3.79483e-20)
(1.01564 -0.605106 8.54833e-21)
(1.01757 -0.565606 -3.02357e-20)
(1.01562 -0.524104 4.05348e-21)
(1.01331 -0.483973 -2.66306e-21)
(1.01171 -0.446259 1.83139e-21)
(1.01099 -0.411104 7.14872e-21)
(1.01103 -0.378402 1.42629e-20)
(1.01169 -0.348006 -2.53492e-20)
(1.01282 -0.319771 1.41269e-20)
(1.01434 -0.293548 -4.38001e-21)
(1.01622 -0.269151 1.50435e-20)
(1.01829 -0.246533 -3.05566e-22)
(1.02003 -0.226332 1.88783e-20)
(1.02189 -0.207846 -2.5707e-20)
(0.20369 -0.132168 -7.71402e-21)
(0.517405 -0.341339 -6.29134e-20)
(0.750077 -0.495687 -5.38186e-20)
(0.905083 -0.588535 3.21799e-20)
(0.993827 -0.626462 -6.75816e-21)
(1.0354 -0.62417 3.49998e-20)
(1.04917 -0.597785 1.84027e-20)
(1.04959 -0.560632 8.30921e-21)
(1.04542 -0.520719 3.08973e-21)
(1.04071 -0.481733 2.40428e-21)
(1.03681 -0.444914 6.60783e-21)
(1.03394 -0.410489 -2.81777e-21)
(1.03201 -0.378387 3.38928e-21)
(1.03086 -0.348477 2.46518e-21)
(1.03034 -0.32063 -1.83856e-20)
(1.03035 -0.294712 3.36005e-20)
(1.03086 -0.270537 -1.94507e-20)
(1.03175 -0.248075 -1.76069e-20)
(1.03235 -0.22802 -8.56722e-21)
(1.03285 -0.209566 -1.45542e-20)
(0.204165 -0.121936 -2.16771e-20)
(0.523437 -0.319657 1.35096e-19)
(0.763862 -0.470797 4.53993e-20)
(0.926694 -0.565728 -1.25811e-19)
(1.02176 -0.608161 -2.39765e-20)
(1.0666 -0.610498 4.0556e-20)
(1.081 -0.587937 1.78561e-20)
(1.08037 -0.553474 4.86598e-20)
(1.07427 -0.515421 -2.72169e-21)
(1.06737 -0.477793 3.94194e-21)
(1.0613 -0.442043 -4.15073e-21)
(1.0564 -0.408499 -1.26083e-21)
(1.05259 -0.377131 8.82905e-23)
(1.04972 -0.347828 8.02051e-21)
(1.04763 -0.32048 -4.36235e-21)
(1.04619 -0.294966 -3.83429e-20)
(1.04538 -0.271109 -2.01813e-20)
(1.04509 -0.248879 2.16061e-20)
(1.04459 -0.228995 1.10687e-20)
(1.0438 -0.210663 -4.98876e-21)
(0.203135 -0.111314 1.25813e-19)
(0.526004 -0.296558 -1.79731e-19)
(0.773443 -0.443583 -1.61316e-19)
(0.944216 -0.540124 1.96471e-19)
(1.04599 -0.586906 4.99524e-20)
(1.09506 -0.594109 -3.16445e-20)
(1.11087 -0.575673 -5.92272e-20)
(1.1097 -0.544244 -6.09689e-20)
(1.10202 -0.508318 3.86918e-20)
(1.09315 -0.472248 9.08237e-21)
(1.08507 -0.43773 1.32043e-20)
(1.07826 -0.405208 8.84992e-21)
(1.07269 -0.374698 -4.00323e-21)
(1.06819 -0.346115 2.26218e-22)
(1.0646 -0.319365 5.66689e-21)
(1.06179 -0.294349 1.85409e-20)
(1.05972 -0.270898 9.67232e-21)
(1.05828 -0.248972 -3.35185e-20)
(1.0567 -0.229294 -7.74413e-21)
(1.05472 -0.211172 1.11235e-20)
(0.200598 -0.100449 -1.3709e-19)
(0.525013 -0.272379 1.32894e-19)
(0.778525 -0.414419 -4.76744e-22)
(0.957276 -0.511986 -4.46843e-20)
(1.06632 -0.562955 -7.68276e-21)
(1.12039 -0.575174 -1.02104e-20)
(1.13847 -0.561158 -5.38646e-20)
(1.13737 -0.533064 5.4462e-20)
(1.12853 -0.499526 -7.04215e-20)
(1.11793 -0.465206 3.37574e-21)
(1.10802 -0.43207 -5.59839e-21)
(1.09946 -0.400695 -2.26114e-21)
(1.09224 -0.371156 5.14483e-22)
(1.08621 -0.343395 -8.16537e-21)
(1.08121 -0.317336 1.55834e-21)
(1.0771 -0.292902 -1.22309e-21)
(1.07382 -0.269937 3.38643e-21)
(1.07128 -0.248383 3.31622e-21)
(1.06868 -0.228954 1.24139e-21)
(1.06558 -0.211121 -1.79109e-20)
(0.19658 -0.0894996 2.09939e-20)
(0.520423 -0.247471 3.84037e-20)
(0.778908 -0.383693 7.10568e-20)
(0.965517 -0.481643 -3.74544e-20)
(1.08241 -0.536562 -1.04021e-19)
(1.14232 -0.553886 2.85357e-20)
(1.16353 -0.544542 4.6033e-20)
(1.1632 -0.520079 2.64336e-20)
(1.15362 -0.489164 5.95144e-20)
(1.14161 -0.456775 -1.35251e-20)
(1.13008 -0.425162 -5.65727e-21)
(1.1199 -0.39505 5.85257e-21)
(1.11115 -0.366582 -1.4405e-20)
(1.10371 -0.339732 -1.48125e-20)
(1.09739 -0.314448 -4.75492e-21)
(1.09206 -0.29067 4.19698e-21)
(1.08765 -0.268264 -4.92064e-21)
(1.08404 -0.247148 3.06261e-21)
(1.08047 -0.228008 6.5348e-21)
(1.07636 -0.210532 4.88246e-23)
(0.191138 -0.0786303 3.86716e-20)
(0.512253 -0.222193 7.84055e-21)
(0.774463 -0.351816 -9.94056e-20)
(0.968655 -0.449463 1.21607e-19)
(1.09391 -0.508002 2.24996e-20)
(1.16054 -0.530447 -1.15589e-19)
(1.18578 -0.525994 3.70122e-20)
(1.18698 -0.505416 -4.02142e-20)
(1.17718 -0.477355 7.43254e-22)
(1.16408 -0.447081 6.01075e-21)
(1.15114 -0.417111 1.39806e-20)
(1.13952 -0.388364 3.26098e-21)
(1.12939 -0.361053 3.30183e-20)
(1.12063 -0.335194 6.90749e-21)
(1.1131 -0.310757 -7.10709e-21)
(1.10663 -0.287702 -2.20676e-21)
(1.10115 -0.265918 -8.04813e-22)
(1.09654 -0.245299 1.56323e-21)
(1.09207 -0.22649 -1.29136e-21)
(1.08701 -0.20942 2.93291e-21)
(0.184354 -0.0679993 -4.49827e-20)
(0.500577 -0.196906 2.42572e-21)
(0.765131 -0.319212 2.07671e-20)
(0.966467 -0.415832 -5.03467e-20)
(1.10047 -0.477573 9.55576e-20)
(1.1747 -0.505067 4.73108e-20)
(1.20495 -0.505669 -4.461e-20)
(1.2085 -0.48922 -2.5565e-20)
(1.19909 -0.464234 2.00079e-20)
(1.18526 -0.436233 -2.48973e-20)
(1.17116 -0.408033 1.93479e-20)
(1.15826 -0.380733 8.37763e-22)
(1.14688 -0.354651 1.11935e-21)
(1.13694 -0.329853 -8.781e-21)
(1.12829 -0.306325 1.90433e-20)
(1.12078 -0.284049 -2.24121e-21)
(1.1143 -0.262942 3.52093e-21)
(1.10874 -0.242876 -2.88841e-21)
(1.10343 -0.224433 -3.18476e-22)
(1.09752 -0.207807 -1.76026e-21)
(0.176337 -0.0577563 7.46264e-20)
(0.485529 -0.171969 8.5171e-20)
(0.750921 -0.286322 6.03952e-20)
(0.958785 -0.381158 -9.73489e-21)
(1.10179 -0.445588 9.97692e-21)
(1.18445 -0.47797 -7.55811e-22)
(1.22073 -0.483729 9.59513e-20)
(1.22752 -0.471629 -2.60757e-20)
(1.21917 -0.44993 1.49232e-20)
(1.20507 -0.424359 -7.28884e-20)
(1.19007 -0.398027 1.24301e-20)
(1.17608 -0.372254 2.51422e-20)
(1.16359 -0.347467 -8.61666e-21)
(1.15259 -0.323777 1.80251e-20)
(1.14294 -0.301213 -1.65382e-20)
(1.13446 -0.279762 2.19788e-20)
(1.12706 -0.259381 1.72567e-21)
(1.12062 -0.239917 -5.19743e-21)
(1.11454 -0.221872 -4.1648e-22)
(1.10784 -0.205714 1.33802e-21)
(0.167219 -0.0480376 -1.41142e-19)
(0.467306 -0.147728 3.42724e-20)
(0.731921 -0.253583 -1.36422e-20)
(0.945504 -0.34586 -8.94447e-20)
(1.09761 -0.412382 -2.8319e-20)
(1.18947 -0.449393 -5.40709e-20)
(1.23282 -0.460344 -4.27073e-20)
(1.24384 -0.452778 -4.1666e-20)
(1.23728 -0.434567 3.717e-20)
(1.2234 -0.411577 1.43407e-20)
(1.20782 -0.387209 -4.34859e-20)
(1.19295 -0.363022 -6.38362e-21)
(1.1795 -0.339574 -3.16996e-21)
(1.16755 -0.317051 -1.50989e-20)
(1.15699 -0.295489 -1.95565e-21)
(1.14765 -0.274894 -3.71974e-21)
(1.13941 -0.255278 -1.71916e-20)
(1.13216 -0.236467 5.16891e-21)
(1.12539 -0.21884 7.23737e-21)
(1.11798 -0.203169 -1.54961e-21)
(0.157151 -0.0389638 4.93425e-21)
(0.446165 -0.124508 -6.17953e-20)
(0.708299 -0.221433 2.77206e-20)
(0.92659 -0.310373 -1.86564e-20)
(1.0877 -0.378305 2.20152e-20)
(1.18943 -0.419585 8.92615e-20)
(1.2409 -0.435685 -3.85543e-20)
(1.2572 -0.432796 8.25544e-20)
(1.25325 -0.41826 3.0582e-21)
(1.24015 -0.397999 3.35396e-20)
(1.22435 -0.375688 3.37217e-21)
(1.20882 -0.35314 2.05563e-20)
(1.19458 -0.331071 3.71936e-21)
(1.18181 -0.30974 7.64336e-22)
(1.17044 -0.289205 -2.2528e-20)
(1.16033 -0.269507 3.63757e-21)
(1.15133 -0.250684 1.52322e-20)
(1.14332 -0.232563 6.16173e-22)
(1.13594 -0.215381 -4.4051e-21)
(1.1279 -0.200191 1.86139e-21)
(0.146305 -0.0306363 1.69889e-20)
(0.422424 -0.102605 4.95237e-20)
(0.680309 -0.190292 5.21492e-20)
(0.902091 -0.275133 -1.45624e-20)
(1.07188 -0.343719 6.17957e-20)
(1.18401 -0.388804 -1.20313e-20)
(1.24463 -0.409922 8.80864e-20)
(1.26732 -0.411805 -1.03163e-19)
(1.26691 -0.401114 -1.71279e-20)
(1.25522 -0.383727 -1.56084e-20)
(1.23959 -0.363564 -1.70929e-20)
(1.22365 -0.342704 -2.59823e-21)
(1.20879 -0.322042 7.09876e-21)
(1.19534 -0.301918 -1.92861e-20)
(1.18328 -0.282436 1.53766e-20)
(1.17249 -0.263656 -6.57289e-21)
(1.16282 -0.245636 -3.73824e-21)
(1.15411 -0.228256 -4.55668e-21)
(1.14613 -0.211519 -3.10043e-21)
(1.13767 -0.196835 -6.5436e-21)
(0.134862 -0.0231354 7.88263e-20)
(0.396449 -0.0822803 -7.52441e-20)
(0.648296 -0.160559 8.90585e-21)
(0.87215 -0.240577 -9.81469e-21)
(1.05004 -0.308999 -2.34321e-20)
(1.17291 -0.357317 -4.41024e-20)
(1.24366 -0.38323 -5.36474e-21)
(1.2739 -0.389922 2.59621e-20)
(1.27805 -0.383226 1.01779e-20)
(1.2685 -0.368856 -1.3205e-20)
(1.2535 -0.350933 1.42492e-20)
(1.23744 -0.331806 -1.39459e-21)
(1.22213 -0.312569 -2.42186e-20)
(1.20813 -0.293663 3.32018e-20)
(1.19548 -0.275245 8.93781e-21)
(1.18411 -0.257394 -4.44671e-21)
(1.17385 -0.240185 5.53004e-21)
(1.16454 -0.223537 6.56856e-21)
(1.15594 -0.207349 5.89286e-21)
(1.14725 -0.193137 5.63902e-21)
(0.123014 -0.0165189 -8.12296e-20)
(0.368655 -0.0637523 6.16057e-20)
(0.612685 -0.1326 2.62624e-20)
(0.837009 -0.207134 -5.30161e-20)
(1.02215 -0.274529 -1.12619e-20)
(1.15587 -0.325405 -4.04671e-20)
(1.2376 -0.355785 1.57527e-20)
(1.27659 -0.367257 -2.50594e-20)
(1.28641 -0.364678 1.35708e-21)
(1.27985 -0.353467 3.29417e-21)
(1.26602 -0.337879 7.14249e-21)
(1.25014 -0.320529 -2.31711e-20)
(1.23458 -0.302731 2.30891e-20)
(1.22016 -0.285047 -1.56469e-20)
(1.20704 -0.267695 -3.48644e-21)
(1.19517 -0.250776 1.31893e-21)
(1.18441 -0.234381 -3.98273e-21)
(1.17459 -0.218467 -9.59998e-21)
(1.16547 -0.202899 -2.44645e-22)
(1.15646 -0.189132 -5.29212e-21)
(0.110957 -0.0108203 -9.75926e-21)
(0.339491 -0.0471908 -2.85803e-20)
(0.573988 -0.106737 -9.7317e-21)
(0.79702 -0.175213 1.5247e-20)
(0.988249 -0.2407 -8.88741e-21)
(1.13265 -0.29336 9.26143e-21)
(1.22609 -0.327768 2.06159e-20)
(1.27499 -0.343911 1.75562e-20)
(1.2917 -0.345537 1.35754e-20)
(1.28907 -0.337623 -2.97997e-21)
(1.27705 -0.324473 -6.89085e-21)
(1.26174 -0.308951 8.48363e-21)
(1.24615 -0.292602 -3.78675e-21)
(1.23146 -0.276137 5.22076e-21)
(1.21796 -0.259844 -2.48082e-21)
(1.20568 -0.243856 6.02504e-21)
(1.1945 -0.228275 -1.73934e-21)
(1.18424 -0.213097 5.76059e-21)
(1.1747 -0.198159 -1.63549e-21)
(1.16531 -0.184821 3.84267e-22)
(0.0988837 -0.00604951 -1.46877e-22)
(0.30943 -0.0327134 -1.3301e-22)
(0.532786 -0.0832411 -3.29411e-21)
(0.752648 -0.145199 1.62021e-20)
(0.948515 -0.207903 1.02573e-20)
(1.1031 -0.261488 -7.68561e-21)
(1.20873 -0.299369 -5.63544e-21)
(1.26868 -0.319984 -1.62909e-21)
(1.29354 -0.325857 -7.81167e-21)
(1.29593 -0.321371 -5.00676e-22)
(1.28647 -0.310772 3.3313e-22)
(1.27218 -0.297136 -3.20337e-21)
(1.25683 -0.282251 -1.95378e-21)
(1.24201 -0.266996 -4.37049e-21)
(1.22825 -0.251751 -4.64585e-21)
(1.21565 -0.236684 -3.62322e-22)
(1.20412 -0.221912 1.65072e-21)
(1.1935 -0.207467 1.67095e-21)
(1.18358 -0.193148 1.7757e-21)
(1.17387 -0.180228 2.52148e-21)
(0.0869795 -0.00219283 1.12103e-20)
(0.278954 -0.020382 -1.722e-21)
(0.48972 -0.0623224 -2.94687e-21)
(0.70447 -0.117438 7.44116e-21)
(0.903239 -0.176524 1.48837e-20)
(1.06713 -0.230108 -6.56393e-21)
(1.18517 -0.270791 -5.31988e-21)
(1.25718 -0.295572 -9.84869e-21)
(1.29152 -0.305676 -8.84137e-21)
(1.30014 -0.304735 1.64816e-21)
(1.29412 -0.296812 -1.4598e-21)
(1.2814 -0.285134 -6.67167e-22)
(1.26658 -0.271735 -3.42565e-21)
(1.25182 -0.257684 -5.48598e-21)
(1.23792 -0.24347 -1.32176e-21)
(1.22508 -0.229309 -4.40079e-22)
(1.21327 -0.215335 -9.933e-23)
(1.20235 -0.201614 1.11264e-21)
(1.19213 -0.187908 3.97499e-21)
(1.18218 -0.175388 3.21477e-21)
(0.075417 0.000785126 -6.75529e-21)
(0.248544 -0.0102026 -9.91978e-21)
(0.445475 -0.0441245 -1.31959e-20)
(0.653172 -0.092229 1.73951e-20)
(0.852856 -0.146938 1.67559e-20)
(1.02479 -0.199556 2.89804e-22)
(1.15508 -0.242253 6.34068e-21)
(1.23998 -0.27078 1.75449e-20)
(1.28513 -0.285024 1.89556e-20)
(1.3013 -0.287722 1.22857e-20)
(1.29976 -0.282607 -2.99262e-20)
(1.28929 -0.272979 1.22452e-20)
(1.27539 -0.261101 -5.71013e-21)
(1.2609 -0.248251 1.22958e-20)
(1.24697 -0.23505 -7.82079e-22)
(1.23398 -0.221776 -1.91843e-21)
(1.22196 -0.208584 1.24208e-21)
(1.21081 -0.195576 1.14047e-20)
(1.20035 -0.182484 -3.9392e-21)
(1.19023 -0.170334 3.0642e-22)
(0.0643513 0.00293917 -2.10088e-20)
(0.218657 -0.00212709 4.77421e-20)
(0.400756 -0.0287195 4.71254e-21)
(0.599535 -0.0698107 -5.99041e-20)
(0.797953 -0.119498 -1.11112e-20)
(0.976246 -0.170176 2.58336e-20)
(1.11822 -0.214 -5.97017e-20)
(1.21657 -0.245724 -5.00315e-22)
(1.27379 -0.263924 5.55958e-21)
(1.29894 -0.270317 -1.10034e-21)
(1.30308 -0.268146 1.58916e-20)
(1.29567 -0.260681 -2.76126e-20)
(1.28319 -0.250379 4.41353e-21)
(1.26922 -0.238738 -1.02728e-20)
(1.25541 -0.226535 -8.41669e-21)
(1.24236 -0.214128 7.72901e-21)
(1.23021 -0.201699 -8.84189e-22)
(1.21889 -0.189388 -1.79461e-20)
(1.20825 -0.176916 5.2523e-22)
(1.19801 -0.165099 -8.63452e-21)
(0.0539152 0.00434037 1.61761e-20)
(0.189721 0.00394266 -2.66505e-20)
(0.356266 -0.0161065 -2.08781e-21)
(0.544413 -0.0503534 -4.99331e-20)
(0.739271 -0.0945217 -3.10265e-20)