/*--------------------------------*- C++ -*----------------------------------*\
  =========                 |
  \\      /  F ield         | OpenFOAM: The Open Source CFD Toolbox
   \\    /   O peration     | Website:  https://openfoam.org
    \\  /    A nd           | Version:  7
     \\/     M anipulation  |
\*---------------------------------------------------------------------------*/
FoamFile
{
    version     2.0;
    format      ascii;
    class       volScalarField;
    location    "2";
    object      p;
}
// * * * * * * * * * * * * * * * * * * * * * * * * * * * * * * * * * * * * * //

dimensions      [0 2 -2 0 0 0 0];

internalField   nonuniform List<scalar> 
344
(
0.135894
0.152192
0.160252
0.16616
0.170567
0.17437
0.178637
0.185849
0.192758
0.202102
0.212723
0.223605
0.232751
0.236784
0.230988
0.209372
0.164354
0.0867634
-0.0333269
-0.204156
-0.428327
-0.702971
-1.02388
-1.38432
-1.7713
-2.17463
-2.5922
-3.0151
-3.42748
-3.82502
-4.20876
-4.57147
-4.90333
-5.1937
-5.43035
-5.60591
-5.71784
-5.76934
-5.7243
-5.61374
-5.43727
-5.20047
-4.90699
-4.56495
-4.17927
-3.76001
-3.33136
-2.90261
-2.46781
-4.88578
-4.36403
-3.79216
-3.19732
-2.62071
-2.06902
-1.5516
-1.10849
-0.76619
-0.496718
-0.292024
-0.158023
-0.087553
-0.0688011
-0.0655532
-0.0448019
-0.00405937
0.0399236
0.0714401
0.0905175
0.103534
0.111555
0.114848
0.11514
0.113992
0.113133
0.114896
0.119368
0.126342
0.134391
0.140886
0.142203
0.133634
0.109275
0.0616377
-0.0182198
-0.139908
-0.311774
-0.536926
-0.812097
-1.1324
-1.49388
-1.88642
-2.29455
-2.71078
-3.13408
-3.55488
-3.95961
-4.34716
-4.72102
-5.06817
-5.36944
-5.61981
-5.80921
-5.91892
-5.95587
-5.9269
-5.81919
-5.63319
-5.38954
-5.09282
-4.73937
-4.33643
-3.90033
-3.45318
-3.01143
-2.57711
-2.14966
-5.34402
-4.7576
-4.12419
-3.45688
-2.81122
-2.2247
-1.67568
-1.19564
-0.821056
-0.528332
-0.306606
-0.160626
-0.0866414
-0.0628511
-0.0577613
-0.0494692
-0.0285174
-0.00227004
0.0196231
0.0370061
0.0496449
0.0555727
0.0551167
0.0501683
0.043006
0.0366794
0.0335514
0.0345478
0.0389782
0.0448014
0.0489841
0.0477576
0.0365658
0.00991537
-0.039168
-0.119282
-0.240052
-0.410284
-0.634428
-0.909871
-1.22974
-1.58828
-1.97854
-2.38975
-2.81232
-3.23921
-3.66092
-4.07032
-4.46888
-4.85586
-5.21627
-5.53017
-5.7872
-5.98096
-6.09964
-6.13572
-6.0946
-5.98427
-5.80329
-5.55635
-5.25373
-4.89691
-4.48414
-4.03321
-3.57257
-3.1151
-2.66181
-2.21755
-5.81681
-5.19406
-4.50401
-3.75015
-3.03285
-2.37998
-1.77536
-1.26583
-0.864121
-0.552793
-0.330162
-0.192585
-0.124042
-0.0970317
-0.0882896
-0.0824152
-0.0712343
-0.0568276
-0.0428965
-0.0278829
-0.0153758
-0.00959368
-0.0119153
-0.0202757
-0.0317953
-0.0422629
-0.0487053
-0.0505435
-0.0483163
-0.044421
-0.0422241
-0.0455714
-0.0587768
-0.0869441
-0.136447
-0.215282
-0.332895
-0.4982
-0.71655
-0.9869
-1.30357
-1.66045
-2.04962
-2.46007
-2.88316
-3.31448
-3.74454
-4.16081
-4.56409
-4.9618
-5.34061
-5.67147
-5.93649
-6.1288
-6.24155
-6.27432
-6.23748
-6.11848
-5.92733
-5.67828
-5.37592
-5.01405
-4.5946
-4.13592
-3.66062
-3.18617
-2.72349
-2.27185
-6.27213
-5.60639
-4.85924
-4.0483
-3.26128
-2.52829
-1.87145
-1.32738
-0.90031
-0.582828
-0.365209
-0.233537
-0.163529
-0.131928
-0.123762
-0.125531
-0.127726
-0.12651
-0.117353
-0.0985227
-0.0808178
-0.0716246
-0.0740057
-0.0856681
-0.103452
-0.118995
-0.131236
-0.13904
-0.142007
-0.141355
-0.140231
-0.143199
-0.155439
-0.182135
-0.229101
-0.303463
-0.414205
-0.570733
-0.779604
-1.04054
-1.34813
-1.69696
-2.08139
-2.49193
-2.91763
-3.35054
-3.78357
-4.20915
-4.62447
-5.03143
-5.421
-5.76707
-6.045
-6.24258
-6.35181
-6.36361
-6.32576
-6.2031
-6.00793
-5.7508
-5.43843
-5.07014
-4.64856
-4.1884
-3.71086
-3.2326
-2.75871
-2.28691
-6.66653
-5.97768
-5.1716
-4.30083
-3.45066
-2.65617
-1.94922
-1.36548
-0.917797
-0.593859
-0.380535
-0.259927
-0.198869
-0.174705
-0.175583
-0.191155
-0.21088
-0.2237
-0.216309
-0.183265
-0.150255
-0.129568
-0.128318
)
;

boundaryField
{
    inlet
    {
        type            zeroGradient;
    }
    outlet
    {
        type            fixedValue;
        value           nonuniform 0();
    }
    wall
    {
        type            zeroGradient;
    }
    wedge1
    {
        type            wedge;
    }
    wedge2
    {
        type            wedge;
    }
    axis
    {
        type            empty;
    }
    procBoundary16to10
    {
        type            processor;
        value           nonuniform List<scalar> 
68
(
0.135045
0.161908
0.180419
0.194834
0.206004
0.216019
0.226499
0.237888
0.252757
0.269081
0.286369
0.302986
0.31682
0.324801
0.322576
0.304449
0.262916
0.18844
0.07074
-0.097831
-0.318855
-0.589355
-0.905415
-1.26025
-1.64316
-2.0457
-2.45985
-2.87434
-3.28328
-3.68069
-4.05433
-4.40514
-4.73128
-5.00732
-5.22847
-5.40253
-5.50499
-5.52364
-5.50726
-5.40933
-5.23314
-5.004
-4.72031
-4.38199
-4.00738
-3.60301
-3.18407
-2.76898
-2.35133
-4.48418
-4.01731
-3.49899
-2.93415
-2.40072
-1.90424
-1.42717
-1.02258
-0.717439
-0.47178
-0.278766
-0.159229
-0.1023
-0.077344
-0.0548094
-0.0142506
0.0429748
0.0994419
0.0994419
)
;
    }
    procBoundary16to11
    {
        type            processor;
        value           uniform -2.04043;
    }
    procBoundary16to15
    {
        type            processor;
        value           nonuniform List<scalar> 3(-5.34786 -5.84515 -6.36623);
    }
    procBoundary16to17
    {
        type            processor;
        value           nonuniform List<scalar> 4(-1.73075 -1.78465 -1.82506 -1.82406);
    }
    procBoundary16to21
    {
        type            processor;
        value           nonuniform List<scalar> 2(-6.85721 -7.25443);
    }
    procBoundary16to22
    {
        type            processor;
        value           nonuniform List<scalar> 
69
(
-0.143525
-0.167794
-0.198141
-0.227801
-0.24842
-0.257452
-0.25676
-0.251698
-0.248968
-0.255017
-0.275558
-0.316074
-0.38273
-0.483108
-0.626224
-0.820185
-1.06695
-1.36191
-1.69898
-2.0729
-2.47596
-2.89941
-3.33543
-3.7736
-4.20426
-4.62578
-5.04092
-5.44089
-5.79905
-6.08608
-6.28727
-6.40213
-6.44015
-6.36797
-6.22715
-6.02051
-5.75514
-5.43504
-5.06116
-4.6388
-4.18122
-3.705
-3.22159
-2.73499
-2.25175
-6.82435
-6.11853
-5.30175
-4.41191
-3.53237
-2.70626
-1.97006
-1.36566
-0.908472
-0.585361
-0.3873
-0.281661
-0.22973
-0.211658
-0.218802
-0.245168
-0.282145
-0.313984
-0.311217
-0.257004
-0.200605
-0.162472
-0.143525
-0.156125
)
;
    }
}


// ************************************************************************* //
