/*--------------------------------*- C++ -*----------------------------------*\
  =========                 |
  \\      /  F ield         | OpenFOAM: The Open Source CFD Toolbox
   \\    /   O peration     | Website:  https://openfoam.org
    \\  /    A nd           | Version:  7
     \\/     M anipulation  |
\*---------------------------------------------------------------------------*/
FoamFile
{
    version     2.0;
    format      ascii;
    class       surfaceScalarField;
    location    "69.000722";
    object      phi;
}
// * * * * * * * * * * * * * * * * * * * * * * * * * * * * * * * * * * * * * //

dimensions      [0 3 -1 0 0 0 0];

internalField   nonuniform List<scalar> 
46020
(
-3.80615e-06
3.98322e-06
-1.77067e-07
-1.43145e-05
1.09961e-05
-4.87771e-07
-3.11992e-05
1.7662e-05
-7.7723e-07
-5.41143e-05
2.39564e-05
-1.0413e-06
-8.27001e-05
2.98636e-05
-1.27783e-06
-0.000116606
3.53939e-05
-1.48759e-06
-0.000155513
4.05812e-05
-1.67418e-06
-0.00019915
4.54798e-05
-1.84343e-06
-0.000247305
5.0157e-05
-2.00205e-06
-0.000299829
5.46804e-05
-2.15563e-06
-0.000356624
5.91006e-05
-2.3065e-06
-0.000417606
6.3434e-05
-2.45162e-06
-0.000482671
6.7646e-05
-2.58088e-06
-0.000551636
7.16403e-05
-2.67559e-06
-0.000624193
7.52637e-05
-2.70701e-06
-0.000699895
7.83369e-05
-2.63467e-06
-0.000778213
8.07221e-05
-2.40366e-06
-0.000858913
8.26409e-05
-1.94146e-06
-0.000942482
8.47307e-05
-1.16104e-06
8.69938e-05
6.67838e-08
-0.00102954
-3.7336e-06
7.71682e-06
-1.40533e-05
2.13158e-05
-3.06446e-05
3.42532e-05
-5.31666e-05
4.64785e-05
-8.12599e-05
5.79569e-05
-0.000114568
6.87023e-05
-0.00015276
7.87725e-05
-0.000195544
8.82642e-05
-0.000242686
9.72989e-05
-0.000294005
0.000105999
-0.000349363
0.000114459
-0.000408635
0.000122706
-0.000471666
0.000130677
-0.000538214
0.000138188
-0.000607896
0.000144946
-0.000680164
0.000150604
-0.000754302
0.00015486
-0.000829759
0.000158098
-0.000906982
0.000161953
0.00016473
-0.000984718
-3.59389e-06
1.13107e-05
-1.35495e-05
3.12714e-05
-2.95721e-05
5.02758e-05
-5.13303e-05
6.82367e-05
-7.84632e-05
8.50897e-05
-0.000110601
0.000100841
-0.000147388
0.000115559
-0.000188496
0.000129372
-0.000233638
0.000142441
-0.000282572
0.000154933
-0.000335081
0.000166968
-0.000390952
0.000178577
-0.000449926
0.000189651
-0.00051164
0.000199902
-0.000575559
0.000208866
-0.000640934
0.000215978
-0.000706704
0.00022063
-0.000771627
0.000223021
-0.000836306
0.000226632
0.000223833
-0.000895409
-3.39336e-06
1.47041e-05
-1.28239e-05
4.0702e-05
-2.80233e-05
6.54752e-05
-4.8671e-05
8.88844e-05
-7.44013e-05
0.00011082
-0.000104824
0.000131263
-0.000139544
0.000150279
-0.000178175
0.000168004
-0.000220357
0.000184623
-0.000265746
0.000200322
-0.000314011
0.000215233
-0.000364798
0.000229364
-0.000417686
0.000242539
-0.000472123
0.00025434
-0.000527343
0.000264085
-0.000582301
0.000270936
-0.000635497
0.000273826
-0.000684485
0.00027201
-0.000730677
0.000272824
0.000255215
-0.000762058
-3.14107e-06
1.78451e-05
-1.19069e-05
4.94678e-05
-2.6058e-05
7.96263e-05
-4.52829e-05
0.000108109
-6.92062e-05
0.000134743
-9.74068e-05
0.000159464
-0.000129436
0.000182308
-0.000164831
0.000203399
-0.000203125
0.000222917
-0.000243845
0.000241042
-0.000286495
0.000257883
-0.000330526
0.000273395
-0.000375291
0.000287304
-0.000419972
0.00029902
-0.000463473
0.000307587
-0.000504359
0.000311823
-0.000540707
0.000310173
-0.000568136
0.000299439
-0.00058989
0.000294578
0.00025023
-0.000584906
-2.84834e-06
2.06935e-05
-1.08364e-05
5.74559e-05
-2.3751e-05
9.25409e-05
-4.1285e-05
0.000125643
-6.30446e-05
0.000156503
-8.85659e-05
0.000184985
-0.00011733
0.000211072
-0.000148776
0.000234845
-0.000182304
0.000256445
-0.000217269
0.000276008
-0.000252966
0.00029358
-0.000288589
0.000309018
-0.000323183
0.000321898
-0.000355572
0.00033141
-0.000384221
0.000336235
-0.000407151
0.000334753
-0.000422195
0.000325217
-0.000422188
0.000299432
-0.000412721
0.000285111
0.00020129
-0.000363781
-2.52818e-06
2.32216e-05
-9.65581e-06
6.45835e-05
-2.11889e-05
0.000104074
-3.68145e-05
0.000141269
-5.6109e-05
0.000175797
-7.85512e-05
0.000207427
-0.000103535
0.000236055
-0.000130375
0.000261685
-0.00015831
0.000284379
-0.000186483
0.000304182
-0.000213925
0.000321021
-0.000239502
0.000334595
-0.000261864
0.00034426
-0.000279359
0.000348905
-0.000289876
0.000346752
-0.000290615
0.000335492
-0.000279424
0.000314026
-0.000246257
0.000266266
-0.000195966
0.00023482
0.000104923
-9.9598e-05
-2.19453e-06
2.54162e-05
-8.41198e-06
7.0801e-05
-1.84643e-05
0.000114126
-3.20191e-05
0.000154824
-4.86072e-05
0.000192386
-6.76332e-05
0.000226453
-8.83821e-05
0.000256804
-0.000110021
0.000283324
-0.00013159
0.000305948
-0.000151981
0.000324572
-0.000169896
0.000338937
-0.0001838
0.000348499
-0.000191835
0.000352295
-0.000191741
0.000348811
-0.000180708
0.000335719
-0.00015465
0.000309434
-0.000110786
0.000270162
-4.15217e-05
0.000197001
6.3222e-05
0.000130076
-4.98944e-05
0.000218039
-1.86149e-06
2.72777e-05
-7.15207e-06
7.60916e-05
-1.56713e-05
0.000122646
-2.70482e-05
0.000166201
-4.07493e-05
0.000206087
-5.60838e-05
0.000241788
-7.22052e-05
0.000272926
-8.81029e-05
0.000299222
-0.000102583
0.000320428
-0.000114233
0.000336221
-0.000121365
0.000346069
-0.000121944
0.000349078
-0.00011349
0.000343841
-9.29514e-05
0.000328273
-5.66588e-05
0.000299427
-5.94945e-07
0.00025337
8.42134e-05
0.000185353
0.000202827
7.83881e-05
0.000357364
-2.44613e-05
-0.000284853
0.000592322
-1.54238e-06
2.882e-05
-5.92061e-06
8.04698e-05
-1.2898e-05
0.000129623
-2.20419e-05
0.000175345
-3.27313e-05
0.000216776
-4.41556e-05
0.000253212
-5.53087e-05
0.000284079
-6.49693e-05
0.000308882
-7.1666e-05
0.000327125
-7.36237e-05
0.000338179
-6.86865e-05
0.000341131
-5.42166e-05
0.000334609
-2.69631e-05
0.000316587
1.70891e-05
0.00028422
8.29243e-05
0.000233592
0.000177128
0.000159167
0.000305504
5.6977e-05
0.000483534
-9.96422e-05
0.000702807
-0.000243734
-0.000609241
0.0010272
-1.24887e-06
3.00689e-05
-4.75618e-06
8.39771e-05
-1.02204e-05
0.000135087
-1.71198e-05
0.000182244
-2.4718e-05
0.000224374
-3.20561e-05
0.00026055
-3.79352e-05
0.000289958
-4.08821e-05
0.000311829
-3.9096e-05
0.000325339
-3.03699e-05
0.000329453
-1.19854e-05
0.000322747
1.94242e-05
0.000303199
6.80453e-05
0.000267966
0.000139083
0.000213182
0.000238919
0.000133756
0.000375928
2.21586e-05
0.000558096
-0.000125191
0.000803346
-0.000344892
0.00110162
-0.000542007
-0.00103474
0.00152711
-9.90013e-07
3.10589e-05
-3.68805e-06
8.66751e-05
-7.69481e-06
0.000139094
-1.23681e-05
0.000186917
-1.68243e-05
0.00022883
-1.99211e-05
0.000263647
-2.02264e-05
0.000290263
-1.59649e-05
0.000307568
-4.94017e-06
0.000314314
1.55735e-05
0.000308939
4.89724e-05
0.000289348
9.95e-05
0.000252671
0.000172463
0.000195004
0.000274476
0.000111169
0.000413589
-5.35727e-06
0.000599902
-0.000164154
0.000844816
-0.000370105
0.00116539
-0.000665465
0.00155542
-0.000932037
-0.00156979
0.00209047
-7.71332e-07
3.18303e-05
-2.73295e-06
8.86368e-05
-5.35133e-06
0.000141712
-7.82835e-06
0.000189394
-9.09592e-06
0.000230098
-7.78641e-06
0.000262338
-2.18465e-06
0.000284661
9.85041e-06
0.000295533
3.09952e-05
0.000293169
6.46035e-05
0.000275331
0.00011489
0.000239062
0.000187149
0.000180412
0.000288004
9.41484e-05
0.000425685
-2.65116e-05
0.000610123
-0.000189795
0.000852718
-0.000406749
0.00116908
-0.000686465
0.00157163
-0.00106802
0.0020622
-0.00142261
-0.00221332
0.00270573
-5.94051e-07
3.24243e-05
-1.89227e-06
8.9935e-05
-3.18739e-06
0.000143007
-3.48589e-06
0.000189693
-1.49073e-06
0.000228103
4.4364e-06
0.000256411
1.63606e-05
0.000272737
3.68707e-05
0.000275022
6.92261e-05
0.000260814
0.000117543
0.000227014
0.00018702
0.000169585
0.00028419
8.32431e-05
0.000417172
-3.88343e-05
0.000595911
-0.00020525
0.000832262
-0.000426146
0.00113822
-0.000712708
0.00153262
-0.00108087
0.00202067
-0.00155607
0.00261313
-0.00201507
-0.0029485
0.00334832
-4.54499e-07
3.28788e-05
-1.14995e-06
9.06304e-05
-1.16254e-06
0.00014302
7.39709e-07
0.000187791
6.12494e-06
0.000222717
1.69779e-05
0.000245558
3.57832e-05
0.000253932
6.56764e-05
0.000245129
0.000110629
0.000215861
0.000175676
0.000161967
0.000267174
7.80868e-05
0.00039306
-4.26427e-05
0.000563047
-0.000208821
0.000788662
-0.000430866
0.00108324
-0.000720728
0.00145866
-0.00108812
0.00193304
-0.00155525
0.00250405
-0.00212708
0.00318845
-0.00269946
-0.00374049
0.00398043
-3.43893e-07
3.32227e-05
-4.70783e-07
9.07573e-05
8.00244e-07
0.000141749
4.98584e-06
0.000183605
1.39988e-05
0.000213705
3.0225e-05
0.000229331
5.66677e-05
0.000227489
9.71287e-05
0.000204668
0.000156436
0.000156554
0.000240707
7.7696e-05
0.000357608
-3.88139e-05
0.00051656
-0.000201595
0.000728761
-0.000421022
0.00100683
-0.000708937
0.00136429
-0.00107819
0.00181199
-0.00153582
0.00236127
-0.00210452
0.00300325
-0.00276907
0.00375513
-0.00345134
-0.00454172
0.00455637
-2.48519e-07
3.34712e-05
1.97789e-07
9.0311e-05
2.81543e-06
0.000139131
9.47305e-06
0.000176947
2.24776e-05
0.0002007
4.47096e-05
0.000207099
7.97976e-05
0.000192401
0.000132342
0.000152124
0.000208175
8.07198e-05
0.000314635
-2.87633e-05
0.000460768
-0.000184948
0.000657373
-0.000398199
0.00091667
-0.000680319
0.00125135
-0.00104362
0.00167291
-0.00149975
0.00218933
-0.00205225
0.00279973
-0.00271492
0.00348977
-0.00345912
0.00427002
-0.00423159
-0.00530338
0.00503168
-1.50596e-07
3.36218e-05
9.15209e-07
8.92452e-05
5.03708e-06
0.000135009
1.44694e-05
0.000167515
3.19962e-05
0.000183173
6.10873e-05
0.000178008
0.000106114
0.000147375
0.000172606
8.56317e-05
0.00026753
-1.42037e-05
0.000399506
-0.000160739
0.000578867
-0.000364309
0.000817367
-0.000636699
0.00112728
-0.000990229
0.00151966
-0.001436
0.00200129
-0.00198138
0.00257404
-0.002625
0.00322282
-0.0033637
0.00392908
-0.00416538
0.00468984
-0.00499235
-0.00598727
0.00537373
-2.81887e-08
3.365e-05
1.77397e-06
8.7443e-05
7.6416e-06
0.000129142
2.02883e-05
0.000154868
4.30527e-05
0.000160409
8.0094e-05
0.000140967
0.000136642
9.08269e-05
0.000219269
3.00448e-06
0.000336136
-0.000131071
0.00049707
-0.000321673
0.00071333
-0.000580569
0.000996771
-0.00092014
0.00135815
-0.00135161
0.00180458
-0.00188242
0.00233556
-0.00251236
0.00294337
-0.00323281
0.00360113
-0.00402146
0.00428789
-0.00485213
0.00498396
-0.00568843
-0.00657343
0.00557012
1.46151e-07
3.35039e-05
2.85752e-06
8.47317e-05
1.08189e-05
0.00012118
2.72649e-05
0.000138422
5.61714e-05
0.000131502
0.000102485
9.46536e-05
0.00017239
2.09213e-05
0.000273568
-9.81729e-05
0.00041531
-0.000272813
0.000608362
-0.000514725
0.000864183
-0.00083639
0.00119338
-0.00124934
0.00160315
-0.00176138
0.00209408
-0.00237334
0.00265671
-0.00307499
0.00327232
-0.00384842
0.00390839
-0.00465753
0.00454268
-0.00548643
0.00514163
-0.00628738
-0.00707229
0.00564049
3.91543e-07
3.31123e-05
4.25305e-06
8.08702e-05
1.47592e-05
0.000110674
3.57303e-05
0.000117451
7.18587e-05
9.53738e-05
0.000128961
3.75517e-05
0.000214235
-6.43534e-05
0.000336432
-0.000220369
0.000505756
-0.000442138
0.000733275
-0.000742244
0.00102952
-0.00113263
0.00140206
-0.00162188
0.00185229
-0.00221162
0.00237236
-0.00289341
0.00294369
-0.00364632
0.00353904
-0.00444377
0.0041274
-0.00524589
0.00468714
-0.00604617
0.00518582
-0.00678606
-0.00753761
0.00565115
7.33434e-07
3.23789e-05
6.04339e-06
7.55602e-05
1.9639e-05
9.70786e-05
4.59848e-05
9.11054e-05
9.05562e-05
5.08025e-05
0.000160091
-3.1983e-05
0.000262788
-0.000167051
0.000408301
-0.000365883
0.000607287
-0.000641124
0.000870211
-0.00100517
0.00120515
-0.00146757
0.00161469
-0.00203142
0.00209263
-0.00268957
0.00262226
-0.00342304
0.00317793
-0.00420198
0.00372962
-0.00499546
0.00425285
-0.00576912
0.0047289
-0.00652222
0.00515828
-0.00721544
-0.00793695
0.00555762
1.19126e-06
3.11876e-05
8.29984e-06
6.84516e-05
2.56075e-05
7.97709e-05
5.82728e-05
5.84402e-05
0.000112597
-3.52149e-06
0.000196239
-0.000115626
0.000318286
-0.000289097
0.00048895
-0.000536546
0.00071861
-0.000870784
0.00101589
-0.00130244
0.0013847
-0.00183638
0.00182091
-0.00246763
0.00231014
-0.00317879
0.00282846
-0.00394136
0.00334734
-0.00472086
0.00384025
-0.00548837
0.0042913
-0.00622017
0.00469374
-0.00692466
0.00505834
-0.00758004
-0.00827257
0.00539396
1.78075e-06
2.94069e-05
1.10781e-05
5.91543e-05
3.2777e-05
5.8072e-05
7.2762e-05
1.84552e-05
0.000138168
-6.89279e-05
0.000237504
-0.000214961
0.000380496
-0.000432088
0.000577366
-0.000733416
0.00083722
-0.00113064
0.00116538
-0.0016306
0.00156
-0.00223101
0.00200943
-0.00291706
0.00249211
-0.00366147
0.00298045
-0.0044297
0.00344807
-0.00518848
0.0038761
-0.0059164
0.00425888
-0.00660295
0.00459896
-0.00726474
0.00491171
-0.00789279
-0.00856878
0.00520793
2.51331e-06
2.68936e-05
1.44161e-05
4.72515e-05
4.12155e-05
3.12726e-05
8.95304e-05
-2.98596e-05
0.000167286
-0.000146683
0.000283672
-0.000331348
0.000448655
-0.000597072
0.000671701
-0.000956462
0.000959443
-0.00141838
0.00131245
-0.00198361
0.00172214
-0.0026407
0.00216979
-0.00336471
0.00262939
-0.00412107
0.00307412
-0.00487443
0.00348373
-0.00559809
0.00384878
-0.00628145
0.0041722
-0.00692637
0.0044625
-0.00755505
0.00473666
-0.00816695
-0.00883467
0.00500255
3.39605e-06
2.34975e-05
1.83334e-05
3.23142e-05
5.09442e-05
-1.33828e-06
0.000108555
-8.74708e-05
0.000199773
-0.000237901
0.000334192
-0.000465766
0.00052145
-0.000784329
0.000769301
-0.00120431
0.00108065
-0.00172973
0.00145021
-0.00235317
0.00186262
-0.00305311
0.00229402
-0.00379612
0.00271769
-0.00454474
0.00311137
-0.00526812
0.00346304
-0.00594975
0.00377186
-0.00659027
0.0040466
-0.00720111
0.00429844
-0.00780688
0.00454295
-0.00841146
-0.00907676
0.00478504
4.43215e-06
1.90654e-05
2.28312e-05
1.39151e-05
6.19354e-05
-4.04424e-05
0.00012971
-0.000155246
0.000235257
-0.000343448
0.000388169
-0.000618679
0.000597031
-0.000993191
0.000866831
-0.00147411
0.00119563
-0.00205852
0.00157187
-0.00272941
0.00197458
-0.00345582
0.00237773
-0.00419927
0.00275745
-0.00492445
0.00309845
-0.00560912
0.00339684
-0.00624814
0.00365822
-0.00685165
0.00389428
-0.00743717
0.0041163
-0.00802891
0.00433739
-0.00863255
-0.00929927
0.00455989
5.62124e-06
1.34441e-05
2.7893e-05
-8.35662e-06
7.41117e-05
-8.66612e-05
0.00015276
-0.000233894
0.000273159
-0.000463847
0.000444373
-0.000789892
0.00067309
-0.00122191
0.000960509
-0.00176153
0.00129916
-0.00239717
0.0016717
-0.00310195
0.00205372
-0.00383784
0.00242024
-0.00456579
0.00275285
-0.00525706
0.00304382
-0.00590009
0.0032959
-0.00650022
0.00351858
-0.00707434
0.00372411
-0.0076427
0.00392249
-0.00822728
0.00412399
-0.00883406
-0.00950415
0.00432887
6.9595e-06
6.48463e-06
3.34836e-05
-3.48807e-05
8.73454e-05
-0.000140523
0.000177363
-0.000323912
0.000312706
-0.00059919
0.000501273
-0.000978459
0.000746982
-0.00146762
0.00104643
-0.00206098
0.00138655
-0.0027373
0.00174563
-0.00346103
0.00209851
-0.00419073
0.00242396
-0.00489123
0.00271021
-0.00554331
0.00295631
-0.00614619
0.00316957
-0.00671348
0.0033611
-0.00726586
0.00354219
-0.00782379
0.00372095
-0.00840604
0.00390506
-0.00901817
-0.00969254
0.00409345
8.43924e-06
-1.9546e-06
3.9549e-05
-6.59905e-05
0.000101456
-0.00020243
0.000203065
-0.00042552
0.000352939
-0.000749064
0.000557108
-0.00118263
0.000815911
-0.00172642
0.00112092
-0.00236599
0.00145419
-0.00307056
0.00179164
-0.00379848
0.00210998
-0.00450906
0.00239337
-0.00517463
0.00263662
-0.00578656
0.00284399
-0.00635356
0.0030253
-0.0068948
0.00319161
-0.00743217
0.00335249
-0.00798468
0.00351411
-0.00856765
0.00368202
-0.00918608
-0.00986491
0.00385439
1.00481e-05
-1.20027e-05
4.6014e-05
-0.000101956
0.00011621
-0.000272626
0.000229311
-0.000538622
0.000392748
-0.000912502
0.000609977
-0.00139986
0.000877156
-0.0019936
0.00118095
-0.00266979
0.00149985
-0.00338945
0.0018097
-0.00410834
0.00209102
-0.00479038
0.00233395
-0.00541756
0.00253891
-0.00599152
0.00271361
-0.00652826
0.00286869
-0.00704988
0.00301413
-0.00757761
0.00315758
-0.00812812
0.00330348
-0.00871356
0.00345575
-0.00933835
-0.0100214
0.00361225
1.17698e-05
-2.37725e-05
5.27814e-05
-0.000142968
0.000131319
-0.000351163
0.000255455
-0.000662758
0.000430922
-0.00108797
0.00065797
-0.00162691
0.000928304
-0.00226393
0.00122435
-0.00296583
0.00152277
-0.00368787
0.00180137
-0.00438694
0.00204561
-0.00503462
0.00225129
-0.00562323
0.00242306
-0.00616329
0.00257044
-0.00667564
0.00270372
-0.00718316
0.00283133
-0.00770522
0.00295905
-0.00825584
0.00308999
-0.0088445
0.00322687
-0.00947523
-0.0101621
0.00336751
1.35809e-05
-3.73534e-05
5.97314e-05
-0.000189119
0.000146447
-0.000437879
0.000280781
-0.000797091
0.000466206
-0.00127339
0.000699306
-0.00186001
0.000967457
-0.00253208
0.00124997
-0.00324834
0.00152351
-0.00396142
0.00176935
-0.00463278
0.00197817
-0.00524344
0.00215057
-0.00579563
0.00229398
-0.00630671
0.00241846
-0.00680011
0.0025332
-0.0072979
0.00264496
-0.00781698
0.00275795
-0.00836883
0.0028743
-0.00896085
0.00299584
-0.00959677
-0.0102868
0.00312054
1.54524e-05
-5.28058e-05
6.67225e-05
-0.000240389
0.00016122
-0.000532377
0.000304536
-0.000940407
0.000497391
-0.00146625
0.000732476
-0.00209509
0.000993369
-0.00279298
0.00125766
-0.00351263
0.00150366
-0.00420742
0.00171692
-0.00484604
0.00189304
-0.00541956
0.00203627
-0.00593886
0.00215555
-0.00642599
0.00226054
-0.0069051
0.00235902
-0.00739639
0.00245618
-0.00791414
0.002555
-0.00846765
0.00265688
-0.00906273
0.00276306
-0.00970294
-0.0103954
0.00287172
1.73495e-05
-7.01553e-05
7.35953e-05
-0.000296634
0.000175238
-0.000634019
0.00032597
-0.00109114
0.000523386
-0.00166366
0.000756346
-0.00232805
0.00100549
-0.00304212
0.00124815
-0.00375529
0.00146547
-0.00442474
0.00164753
-0.0050281
0.00179415
-0.00556619
0.00191207
-0.00605677
0.00201069
-0.00652461
0.00209873
-0.00699313
0.00218248
-0.00748014
0.00226579
-0.00799745
0.0023507
-0.00855257
0.00243815
-0.00915017
0.00252891
-0.0097937
-0.0104879
0.0026214
1.92322e-05
-8.93875e-05
8.01783e-05
-0.00035758
0.000188092
-0.000741933
0.000344382
-0.00124743
0.000543297
-0.00186258
0.00077022
-0.00255497
0.00100392
-0.00327583
0.00122278
-0.00397415
0.0014115
-0.00461346
0.00156449
-0.00518109
0.0016849
-0.00568659
0.00178088
-0.00615275
0.00186157
-0.00660531
0.00193447
-0.00706602
0.00200447
-0.00755015
0.00207436
-0.00806734
0.00214548
-0.00862369
0.00221845
-0.00922314
0.00229372
-0.00986898
-0.0105641
0.00236995
2.10568e-05
-0.000110444
8.62944e-05
-0.000422818
0.000199393
-0.000855031
0.000359159
-0.0014072
0.000556479
-0.0020599
0.000773855
-0.00277235
0.000989322
-0.00349129
0.00118333
-0.00416816
0.00134442
-0.00477455
0.00147083
-0.0053075
0.00156809
-0.00578385
0.00164494
-0.0062296
0.00170977
-0.00667015
0.00176877
-0.00712502
0.00182564
-0.00760702
0.00188232
-0.00812401
0.00193968
-0.00868105
0.00199811
-0.00928157
0.00205785
-0.00992871
-0.010624
0.00211773
2.27776e-05
-0.000133222
9.17695e-05
-0.00049181
0.000208781
-0.000972043
0.000369811
-0.00156823
0.000562564
-0.00225265
0.000767423
-0.00297721
0.000962746
-0.00368662
0.00113174
-0.00433715
0.00126676
-0.00490957
0.00136915
-0.00540989
0.00144598
-0.00586069
0.00150596
-0.00628957
0.00155644
-0.00672063
0.00160237
-0.00717095
0.00164647
-0.00765112
0.00169004
-0.00816758
0.00173363
-0.00872464
0.00177748
-0.00932542
0.00182163
-0.00997286
-0.0106675
0.00186509
2.43485e-05
-0.00015757
9.64406e-05
-0.000563902
0.000215956
-0.00109156
0.000376001
-0.00172827
0.000561458
-0.00243811
0.00075144
-0.00316719
0.00092552
-0.0038607
0.00107004
-0.00448167
0.00118082
-0.00502034
0.00126163
-0.0054907
0.00132036
-0.00591942
0.0013652
-0.00633441
0.00140241
-0.00675784
0.00143581
-0.00720435
0.00146734
-0.00768265
0.00149785
-0.00819808
0.00152764
-0.00875443
0.00155686
-0.00935464
0.00158539
-0.0100014
-0.0106945
0.00161241
2.57257e-05
-0.000183296
0.000100164
-0.00063834
0.000220683
-0.00121208
0.000377547
-0.00188514
0.000553319
-0.00261388
0.000726681
-0.00334055
0.000879097
-0.00401311
0.00100013
-0.00460271
0.00108863
-0.00510884
0.00115007
-0.00555215
0.0011926
-0.00596194
0.00122363
-0.00636544
0.0012483
-0.00678252
0.00126952
-0.00722556
0.00128859
-0.00770172
0.00130603
-0.00821553
0.00132202
-0.00877041
0.00133657
-0.00936919
0.00134948
-0.0100143
-0.0107051
0.00136009
2.68687e-05
-0.000210165
0.00010282
-0.000714291
0.000222805
-0.00133206
0.000374426
-0.00203676
0.000538517
-0.00277797
0.000694094
-0.00349613
0.000824959
-0.00414398
0.000923791
-0.00470154
0.000991905
-0.00517695
0.00103592
-0.00559616
0.00106376
-0.00598979
0.00108194
-0.00638362
0.0010946
-0.00679517
0.00110382
-0.00723479
0.00111049
-0.00770839
0.00111488
-0.00821992
0.00111703
-0.00877256
0.00111691
-0.00936907
0.00111425
-0.0100116
-0.0106994
0.00110852
2.77426e-05
-0.000237907
0.00010432
-0.000790868
0.000222248
-0.00144999
0.000366755
-0.00218126
0.00051758
-0.0029288
0.000654713
-0.00363326
0.000764534
-0.0042538
0.000842574
-0.00477958
0.000892091
-0.00522647
0.000920297
-0.00562437
0.000934647
-0.00600414
0.000940693
-0.00638967
0.00094166
-0.00679614
0.000939033
-0.00723217
0.00093333
-0.00770268
0.000924661
-0.00821125
0.000912964
-0.00876087
0.000898158
-0.00935427
0.000879989
-0.00999346
-0.0106773
0.000857922
2.83191e-05
-0.000266226
0.000104607
-0.000867156
0.000219013
-0.0015644
0.000354772
-0.00231702
0.000491147
-0.00306517
0.000609598
-0.00375171
0.00069915
-0.00434335
0.00075784
-0.00483827
0.000790364
-0.00525899
0.000804114
-0.00563812
0.000805884
-0.00600591
0.000800299
-0.00638408
0.000789807
-0.00678565
0.00077541
-0.00721777
0.000757364
-0.00768464
0.000735647
-0.00818953
0.00071011
-0.00873533
0.000680606
-0.00932476
0.000646927
-0.00995978
-0.0106389
0.000608542
2.85774e-05
-0.000294804
0.000103657
-0.000942236
0.000213174
-0.00167391
0.000338808
-0.00244266
0.000459917
-0.00318628
0.000559782
-0.00385158
0.000630005
-0.00441357
0.000670742
-0.00487901
0.000687675
-0.00527592
0.000688067
-0.00563851
0.000677953
-0.00599579
0.000661098
-0.00636723
0.000639304
-0.00676385
0.000613197
-0.00719166
0.000582842
-0.00765428
0.000548103
-0.00815479
0.00050877
-0.008696
0.000464619
-0.00928061
0.000415275
-0.00991044
-0.0105841
0.000360495
2.85047e-05
-0.000323309
0.000101479
-0.00101521
0.000204866
-0.0017773
0.00031926
-0.00255705
0.000424611
-0.00329163
0.000506237
-0.0039332
0.000558151
-0.00446549
0.000582243
-0.0049031
0.00058479
-0.00527847
0.000572706
-0.00562643
0.000551231
-0.00597432
0.000523367
-0.00633937
0.000490386
-0.00673087
0.000452624
-0.0071539
0.000410006
-0.00761166
0.000362291
-0.00810708
0.000309208
-0.00864291
0.0002506
-0.009222
0.000185667
-0.00984551
-0.0105119
0.000113396
2.80961e-05
-0.000351405
9.81074e-05
-0.00108522
0.00019427
-0.00187346
0.000296564
-0.00265934
0.000385938
-0.00338101
0.000449851
-0.00399712
0.000484501
-0.00450014
0.000493137
-0.00491174
0.000482318
-0.00526765
0.000458459
-0.00560257
0.000426024
-0.00594188
0.000387344
-0.00630069
0.000343273
-0.0066868
0.000293915
-0.00710454
0.000239073
-0.00755682
0.000178478
-0.00804648
0.000111605
-0.00857604
3.82744e-05
-0.00914867
-4.06039e-05
-0.00976663
-0.0104224
-0.000130116
2.73543e-05
-0.000378759
9.36043e-05
-0.00115147
0.000181607
-0.00196147
0.000271174
-0.00274891
0.000344578
-0.00345441
0.00039142
-0.00404396
0.000409829
-0.00451854
0.000404074
-0.00490598
0.000380745
-0.00524432
0.000345668
-0.00556749
0.000302582
-0.0058988
0.000253241
-0.00625134
0.000198158
-0.00663172
0.000137274
-0.00704366
7.0193e-05
-0.00748974
-3.47503e-06
-0.00797282
-8.35803e-05
-0.00849594
-0.000170754
-0.0090615
-0.000266198
-0.00967118
-0.0103188
-0.000369814
2.62888e-05
-0.000405048
8.80501e-05
-0.00121323
0.000167116
-0.00204053
0.000243543
-0.00282534
0.000301157
-0.00351202
0.000331643
-0.00407445
0.000334787
-0.00452169
0.000315581
-0.00488678
0.000280455
-0.0052092
0.00023461
-0.00552165
0.000181107
-0.0058453
0.000121251
-0.00619149
5.51403e-05
-0.00656561
-1.7293e-05
-0.00697122
-9.61511e-05
-0.00741089
-0.000182161
-0.00788681
-0.000275903
-0.0084022
-0.000377448
-0.00895995
-0.00048797
-0.00956066
-0.0101998
-0.000606955
2.4915e-05
-0.000429963
8.15406e-05
-0.00126986
0.000151049
-0.00211004
0.000214108
-0.0028884
0.000256249
-0.00355416
0.000271126
-0.00408932
0.000259918
-0.00451048
0.000228084
-0.00485494
0.00018176
-0.00516287
0.000125517
-0.0054654
6.17209e-05
-0.0057815
-8.73971e-06
-0.00612103
-8.5356e-05
-0.00648899
-0.000168885
-0.00688769
-0.000259822
-0.00731995
-0.000358495
-0.00778813
-0.000465492
-0.0082952
-0.000581247
-0.0088442
-0.000706456
-0.00943545
-0.0100653
-0.000840954
2.32531e-05
-0.000453216
7.41817e-05
-0.00132079
0.000133661
-0.00216952
0.000183281
-0.00293802
0.000210364
-0.00358125
0.000210388
-0.00408935
0.000185668
-0.00448576
0.000141924
-0.0048112
8.49024e-05
-0.00510585
1.84149e-05
-0.00539891
-5.52515e-05
-0.00570783
-0.000135681
-0.0060406
-0.000223213
-0.00640146
-0.00031803
-0.00679288
-0.000420747
-0.00721723
-0.000531882
-0.007677
-0.000652012
-0.00817507
-0.000781725
-0.00871449
-0.000921499
-0.00929568
-0.00991545
-0.00107131
2.13275e-05
-0.000474543
6.60857e-05
-0.00136554
0.000115202
-0.00221864
0.000151444
-0.00297426
0.000163958
-0.00359376
0.00014987
-0.00407526
0.000112411
-0.0044483
5.7363e-05
-0.00475615
-1.00578e-05
-0.00503843
-8.60873e-05
-0.00532289
-0.000169641
-0.00562428
-0.00026031
-0.00594993
-0.000358405
-0.00630336
-0.000464335
-0.00668695
-0.000578684
-0.00710288
-0.000702083
-0.0075536
-0.000835177
-0.00804197
-0.000978633
-0.00857103
-0.00113285
-0.00914146
-0.00975057
-0.00129773
1.9166e-05
-0.000493709
5.73678e-05
-0.00140375
9.59138e-05
-0.00225718
0.00011895
-0.00299729
0.000117423
-0.00359224
8.99415e-05
-0.00404778
4.04492e-05
-0.00439881
-2.53349e-05
-0.00469037
-0.000102437
-0.00496133
-0.000188217
-0.00523711
-0.000281494
-0.005531
-0.000382209
-0.00584921
-0.000490737
-0.00619484
-0.000607602
-0.00657008
-0.000733421
-0.00697706
-0.000868886
-0.00741813
-0.00101473
-0.00789613
-0.00117171
-0.00841405
-0.0013402
-0.00897298
-0.00957088
-0.00151989
1.67995e-05
-0.000510509
4.8143e-05
-0.00143509
7.60257e-05
-0.00228506
8.6114e-05
-0.00300738
7.11015e-05
-0.00357722
3.09494e-05
-0.00400763
-2.99565e-05
-0.0043379
-0.000105931
-0.00461439
-0.000192653
-0.00487461
-0.000287814
-0.00514194
-0.000390636
-0.00542818
-0.000501225
-0.00573862
-0.000620039
-0.00607602
-0.000747664
-0.00644246
-0.000884764
-0.00683996
-0.00103208
-0.00727082
-0.00119044
-0.00773777
-0.00136071
-0.00824378
-0.00154327
-0.00879041
-0.00937667
-0.00173749
1.42636e-05
-0.000524772
3.85233e-05
-0.00145935
5.57555e-05
-0.0023023
5.32224e-05
-0.00300485
2.53842e-05
-0.00354938
-2.69182e-05
-0.00395532
-9.86413e-05
-0.00426618
-0.000184416
-0.00452862
-0.000280413
-0.00477861
-0.000384745
-0.00503761
-0.000496934
-0.00531599
-0.000617229
-0.00561833
-0.000746157
-0.0059471
-0.000884354
-0.00630426
-0.00103253
-0.00669179
-0.00119147
-0.00711188
-0.00136207
-0.00756717
-0.00154538
-0.00806047
-0.0017418
-0.00859399
-0.00916823
-0.00195024
1.16076e-05
-0.00053638
2.86364e-05
-0.00147638
3.53032e-05
-0.00230896
2.06233e-05
-0.00299017
-1.96801e-05
-0.00350908
-8.34749e-05
-0.00389153
-0.00016546
-0.0041842
-0.000260628
-0.00443345
-0.000365608
-0.00467363
-0.000478903
-0.00492432
-0.000600277
-0.00519462
-0.000730094
-0.00548851
-0.000868946
-0.00580824
-0.00101751
-0.00615569
-0.00117654
-0.00653276
-0.00134685
-0.00694157
-0.00152943
-0.00738458
-0.0017255
-0.00786441
-0.00193553
-0.00838396
-0.00894597
-0.00215779
8.8893e-06
-0.000545269
1.85931e-05
-0.00148608
1.48953e-05
-0.00230527
-1.1642e-05
-0.00296363
-6.39929e-05
-0.00345673
-0.000138538
-0.00381698
-0.000230273
-0.00409246
-0.000334457
-0.00432927
-0.000448148
-0.00455994
-0.000570193
-0.00480227
-0.000700555
-0.00506426
-0.000839698
-0.00534937
-0.000988267
-0.00565968
-0.00114698
-0.00599698
-0.00131663
-0.00636312
-0.00149805
-0.00676015
-0.00169231
-0.00719032
-0.00190082
-0.0076559
-0.00212414
-0.00816063
-0.00871028
-0.00235984
6.06179e-06
-0.000551331
8.43332e-06
-0.00148845
-5.28735e-06
-0.00229155
-4.384e-05
-0.00292508
-0.000107163
-0.00339341
-0.000191946
-0.0037322
-0.000292968
-0.00399144
-0.000405814
-0.00421642
-0.000527951
-0.0044378
-0.000658525
-0.0046717
-0.000797666
-0.00492512
-0.000945922
-0.00520111
-0.00110399
-0.00550161
-0.00127262
-0.00582834
-0.00145263
-0.00618311
-0.00164488
-0.00656789
-0.00185051
-0.00698469
-0.00207108
-0.00743534
-0.00230739
-0.00792432
-0.00846112
-0.00255655
3.10725e-06
-0.000554438
-1.61175e-06
-0.00148373
-2.59902e-05
-0.00226717
-7.51626e-05
-0.00287591
-0.000149081
-0.00331949
-0.000243579
-0.0036377
-0.000353451
-0.00388157
-0.000474625
-0.00409525
-0.000604944
-0.00430748
-0.000743816
-0.00453283
-0.000891513
-0.00477742
-0.00104865
-0.00504398
-0.00121597
-0.00533429
-0.00139427
-0.00565004
-0.00158439
-0.00599299
-0.00178722
-0.00636506
-0.00200394
-0.00676798
-0.00223614
-0.00720313
-0.00248504
-0.00767542
-0.00819844
-0.00274772
-2.87588e-07
-0.000554151
-1.21351e-05
-0.00147189
-4.59997e-05
-0.0022333
-0.000105632
-0.00281627
-0.000189624
-0.0032355
-0.000293337
-0.00353399
-0.000411645
-0.00376326
-0.000540822
-0.00396607
-0.000679058
-0.00416925
-0.000825988
-0.0043859
-0.000981999
-0.00462141
-0.00114777
-0.0048782
-0.00132409
-0.00515797
-0.00151179
-0.00546234
-0.00171175
-0.00579304
-0.00192493
-0.00615188
-0.00215255
-0.00654035
-0.00239608
-0.0069596
-0.00265613
-0.00741537
-0.00792356
-0.00293101
-3.03688e-06
-0.000551114
-2.22794e-05
-0.00145264
-6.55052e-05
-0.00219008
-0.000135139
-0.00274664
-0.000228691
-0.00314195
-0.00034114
-0.00342154
-0.000467487
-0.00363691
-0.000604349
-0.00382921
-0.00075023
-0.00402337
-0.000904963
-0.00423116
-0.00106903
-0.00445734
-0.00124318
-0.00470406
-0.00142822
-0.00497293
-0.00162503
-0.00526553
-0.00183454
-0.00558352
-0.00205781
-0.0059286
-0.00229614
-0.00630203
-0.00255084
-0.00670489
-0.00282376
-0.00714246
-0.00764437
-0.00310295
-6.00313e-06
-0.000545111
-3.21995e-05
-0.00142645
-8.44548e-05
-0.00213782
-0.000163608
-0.00266749
-0.000266206
-0.00303935
-0.000386924
-0.00330082
-0.000520925
-0.00350291
-0.000665155
-0.00368498
-0.000818402
-0.00387012
-0.000980669
-0.0040689
-0.00115253
-0.00428548
-0.00133476
-0.00452183
-0.00152823
-0.00477947
-0.00173384