/*--------------------------------*- C++ -*----------------------------------*\
  =========                 |
  \\      /  F ield         | OpenFOAM: The Open Source CFD Toolbox
   \\    /   O peration     | Website:  https://openfoam.org
    \\  /    A nd           | Version:  7
     \\/     M anipulation  |
\*---------------------------------------------------------------------------*/
FoamFile
{
    version     2.0;
    format      ascii;
    class       volVectorField;
    location    "18";
    object      U;
}
// * * * * * * * * * * * * * * * * * * * * * * * * * * * * * * * * * * * * * //

dimensions      [0 1 -1 0 0 0 0];

internalField   nonuniform List<vector> 
433
(
(-0.0243351 0.00156197 2.38384e-21)
(-0.025877 0.00149947 -2.24765e-21)
(-0.0273886 0.00143012 -2.97838e-21)
(-0.0288599 0.00135512 -1.11814e-21)
(-0.0302816 0.00127583 3.15369e-21)
(-0.0316455 0.00119382 1.36613e-21)
(-0.0329452 0.00111081 -4.83171e-21)
(-0.0341761 0.00102867 2.78881e-21)
(0.170936 0.0139585 1.63258e-19)
(0.187315 0.0148453 2.10234e-20)
(0.127879 0.00968665 2.59491e-19)
(0.141381 0.0109752 -1.40257e-19)
(0.15569 0.0118763 -6.63938e-20)
(0.170754 0.0122157 1.0059e-19)
(0.186587 0.0116754 -9.11496e-20)
(0.0922026 0.00482462 4.66533e-20)
(0.103103 0.00637232 3.25954e-20)
(0.114729 0.00765085 -1.82837e-20)
(0.127059 0.00853454 -6.27827e-21)
(0.140034 0.00886525 7.11666e-20)
(0.153652 0.0083806 2.62648e-20)
(0.168097 0.00658773 -5.45703e-20)
(0.182378 0.0035012 1.53806e-19)
(0.0631219 -0.000112685 3.71604e-21)
(0.0717092 0.00155988 6.58965e-20)
(0.0809294 0.00306264 -1.43782e-19)
(0.0907819 0.00430237 1.36261e-19)
(0.101242 0.00516548 -9.25396e-20)
(0.11225 0.00551667 -9.86438e-21)
(0.123797 0.00514663 -3.18812e-20)
(0.13604 0.00367686 1.19107e-19)
(0.148138 0.00113979 1.8716e-20)
(0.0398605 -0.00472705 1.82386e-20)
(0.0464188 -0.00304224 -7.38624e-20)
(0.0535202 -0.00144896 -5.77267e-20)
(0.0611705 -1.55812e-05 5.70999e-20)
(0.0693655 0.00117419 -6.76812e-21)
(0.0780792 0.00202213 -2.0902e-20)
(0.0872564 0.00241661 1.53477e-19)
(0.0968856 0.0021949 -7.76684e-20)
(0.107101 0.00107133 -4.47367e-20)
(0.117197 -0.000918359 -1.32949e-20)
(0.0216637 -0.00872389 6.10488e-20)
(0.0264681 -0.00711603 -4.74632e-20)
(0.0317298 -0.0055395 3.89471e-20)
(0.0374584 -0.00404523 6.13231e-20)
(0.043657 -0.0026944 -2.40354e-20)
(0.0503195 -0.00155966 -8.4427e-21)
(0.0574211 -0.00072342 3.64505e-20)
(0.0649129 -0.000275569 1.41074e-20)
(0.0727849 -0.000340196 -1.01609e-19)
(0.0811508 -0.0011296 3.51217e-20)
(0.0894287 -0.00261059 5.47608e-20)
(0.00781086 -0.0119002 7.17341e-20)
(0.0111233 -0.0104356 -4.75321e-20)
(0.0148123 -0.00895744 -3.01031e-20)
(0.0188896 -0.00750408 1.28905e-20)
(0.0233627 -0.00612091 1.95094e-20)
(0.0282333 -0.00486122 1.27267e-20)
(0.0334948 -0.0037865 -8.21755e-20)
(0.039125 -0.00296453 3.32641e-20)
(0.0450821 -0.00246654 -1.10746e-19)
(0.0513584 -0.00238591 2.41839e-20)
(0.0580498 -0.00287869 7.48853e-20)
(0.0646829 -0.00391919 -2.06216e-20)
(-0.000308635 -0.0128568 -1.32194e-19)
(0.00205902 -0.011535 1.46126e-19)
(0.00474142 -0.0101968 -7.69635e-20)
(0.00774869 -0.00887616 7.2799e-21)
(0.011087 -0.00761262 1.65631e-20)
(0.0147573 -0.00645155 3.38383e-20)
(0.0187534 -0.0054441 -1.54277e-20)
(0.0230563 -0.00464524 -4.51524e-20)
(0.0276315 -0.00411088 9.40152e-20)
(0.0324729 -0.00391066 4.37881e-20)
(0.0376606 -0.00415847 -1.38778e-20)
(0.0428165 -0.00483833 -7.08954e-20)
(-0.00847225 -0.0143072 -3.11064e-20)
(-0.00719242 -0.0131784 4.08194e-20)
(-0.00566546 -0.0120054 3.64945e-20)
(-0.0038797 -0.0108136 1.80986e-20)
(-0.00182623 -0.00963249 -1.16272e-19)
(0.000500279 -0.00849568 5.62938e-20)
(0.0031006 -0.00744112 -8.26322e-20)
(0.00596939 -0.00651076 -3.18641e-21)
(0.00909093 -0.00574874 1.11848e-19)
(0.0124372 -0.00519873 -8.02141e-20)
(0.0160031 -0.00491244 -4.62505e-20)
(0.0198539 -0.00497301 9.05169e-20)
(0.0236966 -0.00537562 4.81467e-21)
(-0.0135527 -0.0138578 -2.71411e-20)
(-0.0129606 -0.012879 5.41109e-21)
(-0.0121699 -0.0118583 6.21235e-20)
(-0.0111699 -0.0108174 -4.71092e-20)
(-0.00995276 -0.00978127 2.08436e-20)
(-0.00851345 -0.00877788 -9.24383e-20)
(-0.00685116 -0.00783846 9.24474e-20)
(-0.00497017 -0.00699689 -2.88308e-20)
(-0.00288315 -0.00628833 7.81832e-21)
(-0.000612762 -0.00574679 8.45799e-20)
(0.00183565 -0.00541027 -3.03467e-20)
(0.00451354 -0.00533898 -4.52552e-20)
(0.00720544 -0.0055416 3.92883e-20)
(-0.017577 -0.0135978 2.99312e-20)
(-0.0177195 -0.012824 -3.26181e-20)
(-0.0177169 -0.0119962 4.40586e-20)
(-0.0175576 -0.01113 -1.21966e-20)
(-0.0172321 -0.0102434 -3.64959e-20)
(-0.0167328 -0.00935702 6.62699e-20)
(-0.0160551 -0.0084937 -7.87173e-21)
(-0.0151978 -0.00767855 2.26824e-21)
(-0.0141641 -0.00693848 -1.83841e-20)
(-0.0129642 -0.00630106 -4.28742e-20)
(-0.011616 -0.00579264 1.27531e-20)
(-0.0101246 -0.0054408 8.14361e-20)
(-0.00845327 -0.00528746 -4.11117e-20)
(-0.00676181 -0.00535105 -2.97898e-20)
(-0.0204615 -0.0118948 1.36512e-21)
(-0.0210606 -0.0112644 5.55505e-20)
(-0.0215491 -0.0105877 8.87005e-21)
(-0.0219165 -0.00987732 -8.99793e-21)
(-0.0221535 -0.00914787 4.03497e-21)
(-0.0222531 -0.00841571 -1.30662e-21)
(-0.0222107 -0.00769896 -3.81715e-20)
(-0.0220248 -0.0070173 -6.25653e-21)
(-0.0216977 -0.00639159 -1.49841e-20)
(-0.0212372 -0.00584303 1.58025e-20)
(-0.0206569 -0.00539172 2.37547e-20)
(-0.0199616 -0.00505767 1.47959e-20)
(-0.0191301 -0.00486935 2.6085e-20)
(-0.0182924 -0.00484555 2.01948e-20)
(-0.0216482 -0.0101844 7.53501e-21)
(-0.022684 -0.0097418 -4.07752e-20)
(-0.0236481 -0.00925333 -4.61472e-21)
(-0.0245297 -0.00872745 -4.22469e-21)
(-0.0253186 -0.00817396 -3.73529e-20)
(-0.0260061 -0.007604 6.60351e-20)
(-0.0265853 -0.00703004 -6.20949e-20)
(-0.0270518 -0.00646579 3.85799e-20)
(-0.0274036 -0.00592604 -3.24556e-21)
(-0.0276424 -0.00542633 -1.44952e-20)
(-0.0277742 -0.00498235 3.64175e-20)
(-0.0278098 -0.00460887 -3.81354e-20)
(-0.0277545 -0.00431999 -2.40026e-21)
(-0.0275999 -0.00413472 9.57666e-21)
(-0.0274448 -0.00406841 -3.00392e-20)
(-0.0230126 -0.00754021 -6.95441e-21)
(-0.0243015 -0.00722585 -1.50472e-21)
(-0.0255394 -0.006878 2.80722e-20)
(-0.0267158 -0.00650267 -1.84524e-21)
(-0.027821 -0.00610679 9.94085e-21)
(-0.0288466 -0.00569823 -1.93596e-20)
(-0.0297859 -0.00528575 4.65788e-21)
(-0.0306344 -0.00487895 1.62046e-20)
(-0.03139 -0.00448808 -1.87659e-20)
(-0.0320536 -0.0041239 6.03719e-21)
(-0.0326303 -0.00379716 -5.22542e-21)
(-0.0331285 -0.00351789 -2.41709e-20)
(-0.0335545 -0.00329527 4.22183e-20)
(-0.0339083 -0.00314101 9.43858e-21)
(-0.0342613 -0.00306632 4.83638e-21)
(-0.0238989 -0.00463172 1.37331e-20)
(-0.0253565 -0.00444384 -1.17897e-20)
(-0.0267769 -0.00423557 4.29554e-21)
(-0.0281499 -0.00401049 1.23678e-21)
(-0.029466 -0.00377275 -4.01216e-21)
(-0.0307172 -0.00352703 5.73336e-21)
(-0.0318967 -0.00327851 -3.7118e-21)
(-0.033 -0.00303287 -1.73984e-21)
(-0.034025 -0.00279617 4.47261e-21)
(-0.0349722 -0.00257468 1.01107e-20)
(-0.0358456 -0.00237469 -2.10253e-20)
(-0.0366526 -0.002202 -3.05518e-21)
(-0.0373999 -0.00206173 -9.43182e-22)
(-0.0380929 -0.00196012 -7.47968e-21)
(-0.0387841 -0.00190422 4.63832e-21)
(-0.0243351 -0.00156197 -4.17848e-21)
(-0.025877 -0.00149947 1.04802e-21)
(-0.0273886 -0.00143012 -4.87473e-22)
(-0.0288599 -0.00135512 -3.33967e-21)
(-0.0302816 -0.00127584 -3.44475e-21)
(-0.0316455 -0.00119383 4.62122e-21)
(-0.0329452 -0.00111082 2.85286e-21)
(-0.0341761 -0.00102867 -3.5263e-21)
(-0.0353358 -0.0009494 -3.21912e-21)
(-0.0364248 -0.000875066 8.50194e-21)
(-0.0374467 -0.000807736 1.44138e-21)
(-0.0384082 -0.000749307 -2.44339e-21)
(-0.0393163 -0.000701418 -6.89842e-22)
(-0.0401789 -0.000666026 -1.32729e-21)
(-0.0410392 -0.000645541 3.12418e-21)
(0.199158 0.000548775 7.39879e-21)
(0.202855 0.0159619 -4.08154e-20)
(0.217638 0.0244137 6.14472e-22)
(0.2296 0.0328091 -2.2487e-21)
(0.240746 0.0399331 1.59997e-20)
(0.251035 0.045888 -2.50692e-20)
(0.26063 0.0508268 -6.05306e-21)
(0.269818 0.05482 1.50113e-20)
(0.278818 0.0579551 1.00732e-22)
(0.287815 0.0603143 7.90113e-21)
(0.296952 0.0619776 -1.47036e-21)
(0.306332 0.0630231 -1.25555e-20)
(0.316023 0.0635256 1.54974e-20)
(0.326068 0.0635557 8.18635e-23)
(0.336484 0.063179 -1.60842e-21)
(0.347276 0.0624555 1.41673e-21)
(0.358434 0.0614395 -5.47618e-21)
(0.369938 0.06018 2.49734e-21)
(0.162368 -0.0014139 9.65882e-22)
(0.165186 0.0129827 1.05679e-20)
(0.178859 0.0213385 -6.71739e-20)
(0.190326 0.0297822 2.08832e-20)
(0.20152 0.0370303 -5.23371e-21)
(0.212219 0.0430923 3.83107e-20)
(0.222478 0.0480869 -5.91117e-21)
(0.232505 0.0520866 -1.80836e-20)
(0.242467 0.0551912 8.74115e-21)
(0.252513 0.0574972 -1.24583e-20)
(0.262758 0.0590974 -8.30302e-21)
(0.273285 0.0600798 -3.53875e-21)
(0.284145 0.0605266 1.90618e-21)
(0.295368 0.0605129 -6.287e-21)
(0.306963 0.0601068 2.35895e-20)
(0.318924 0.0593694 -1.05548e-20)
(0.331235 0.0583553 3.37243e-21)
(0.343873 0.0571126 -5.9345e-21)
(0.129103 -0.00299057 -1.95254e-20)
(0.131204 0.0102348 -1.80212e-20)
(0.143523 0.0183744 2.88488e-20)
(0.154228 0.0267073 -1.14739e-20)
(0.165168 0.0339451 -1.7038e-20)
(0.17599 0.0400186 9.50702e-21)
(0.186666 0.0450065 4.19139e-21)
(0.197327 0.0489756 6.83244e-21)
(0.208079 0.0520307 9.52828e-21)
(0.219031 0.0542769 2.64426e-21)
(0.230263 0.0558163 -7.59859e-21)
(0.241833 0.0567442 9.33978e-21)
(0.253772 0.0571477 -3.28349e-21)
(0.266093 0.0571052 4.40719e-21)
(0.278793 0.0566864 -6.87013e-21)
(0.291858 0.0559529 4.51869e-21)
(0.305263 0.0549584 -3.64165e-22)
(0.318979 0.0537503 -6.36961e-21)
(0.0991867 -0.00415945 -2.42917e-20)
(0.100656 0.00777966 2.82322e-20)
(0.111504 0.015591 -4.74954e-20)
(0.121285 0.0236672 1.73546e-20)
(0.131752 0.0307615 1.05451e-20)
(0.142473 0.0367428 8.23215e-21)
(0.153362 0.041651 -9.22257e-21)
(0.164475 0.0455418 2.57414e-20)
(0.175861 0.0485189 -1.55861e-20)
(0.187582 0.0506914 -1.04799e-21)
(0.199683 0.0521663 -3.46144e-21)
(0.21219 0.0530432 -8.24658e-21)
(0.225113 0.0534122 6.99335e-21)
(0.238448 0.0533531 -5.0686e-21)
(0.252176 0.052936 3.29329e-21)
(0.266272 0.0522218 1.02555e-21)
(0.280704 0.0512634 -3.50897e-21)
(0.295435 0.0501063 3.57458e-22)
(0.072455 -0.00498899 1.6058e-20)
(0.0733449 0.0056408 -3.74086e-20)
(0.0826888 0.0130324 8.58847e-21)
(0.0914631 0.0207219 3.63992e-20)
(0.101313 0.0275455 -2.69418e-20)
(0.111768 0.0333295 -7.2595e-21)
(0.122705 0.0380788 1.65477e-20)
(0.134116 0.0418363 -1.14676e-20)
(0.145998 0.0447003 -3.51752e-21)
(0.158363 0.0467791 1.14301e-20)
(0.171218 0.0481809 -1.50424e-20)
(0.184559 0.0490064 7.15445e-21)
(0.198371 0.0493462 -1.0318e-21)
(0.212629 0.0492799 5.83814e-21)
(0.227302 0.0488765 -9.40259e-21)
(0.242352 0.0481953 4.34828e-21)
(0.257736 0.0472874 1.38285e-21)
(0.0487619 -0.00550527 3.8254e-21)
(0.0491119 0.00383572 2.26677e-22)
(0.0569804 0.0107254 3.88165e-21)
(0.0647232 0.0179125 6.63125e-21)
(0.0738724 0.0243471 1.81578e-21)
(0.08395 0.0298307 -2.19346e-20)
(0.0948125 0.0343403 8.20084e-21)
(0.106398 0.037906 -2.98e-21)
(0.118655 0.0406173 3.03523e-21)
(0.131551 0.0425783 8.41743e-21)
(0.145052 0.0438944 -5.05715e-21)
(0.159126 0.0446648 3.84773e-21)
(0.173731 0.0449779 -5.70497e-21)
(0.188822 0.0449111 5.63309e-21)
(0.204353 0.0445311 -5.28649e-21)
(0.220272 0.0438947 -1.48431e-21)
(0.23653 0.0430503 1.36581e-21)
(0.0279799 -0.00573238 -9.17582e-21)
(0.0278287 0.0023742 1.7661e-20)
(0.0342968 0.00868116 -8.21965e-21)
(0.0410289 0.0152633 -6.13522e-22)
(0.0494468 0.0212012 -3.11775e-21)
(0.0590823 0.0262871 4.87093e-21)
(0.0697847 0.0304779 -1.5941e-20)
(0.0814496 0.0337923 8.07165e-21)
(0.0939815 0.0363094 -1.11922e-21)
(0.107307 0.0381257 -3.34234e-23)
(0.121356 0.0393412 -7.90108e-21)
(0.136065 0.04005 9.39039e-21)
(0.151367 0.0403365 -5.3795e-21)
(0.167199 0.040274 1.09215e-20)
(0.183497 0.0399252 -2.42624e-21)
(0.200199 0.0393435 1.46884e-21)
(0.217244 0.0385738 -6.64644e-21)
(0.00999837 -0.00570699 5.28874e-21)
(0.00939598 0.00128307 1.07409e-20)
(0.0145687 0.00689709 8.19032e-21)
(0.020348 0.0127858 -1.31772e-20)
(0.0280467 0.0181301 -1.07287e-20)
(0.0372158 0.0227287 1.60353e-20)
(0.0477066 0.026526 -4.53853e-21)
(0.0593809 0.0295315 -1.36342e-21)
(0.0721074 0.0318128 -9.63363e-22)
(0.0857747 0.0334568 1.35542e-21)
(0.100281 0.0345551 7.42127e-21)
(0.115531 0.0351944 -1.62967e-21)
(0.131437 0.0354526 -3.5378e-21)
(0.147916 0.0353972 -4.94427e-21)
(0.164889 0.0350859 1.14602e-21)
(0.182282 0.0345671 4.23561e-22)
(0.200026 0.0338817 5.9754e-21)
(-0.00527357 -0.00543028 -1.97564e-20)
(-0.00625712 0.000540733 1.97232e-20)
(-0.00227338 0.00535485 -1.26495e-20)
(0.00265565 0.0104825 1.91972e-20)
(0.00968089 0.0151453 -1.14663e-20)
(0.0183932 0.0191761 -2.80843e-22)
(0.0286504 0.0225117 -3.55757e-21)
(0.0402885 0.0251546 1.03565e-20)
(0.0531465 0.0271606 -1.47151e-20)
(0.0670814 0.0286053 4.83559e-21)
(0.0819609 0.0295695 7.09745e-22)
(0.0976648 0.0301305 5.49228e-22)
(0.114083 0.0303575 7.74777e-22)
(0.131115 0.0303108 3.51179e-21)
(0.148669 0.0300415 -5.64853e-22)
(0.16666 0.0295924 -3.17334e-21)
(0.185009 0.0289994 1.00036e-21)
(-0.0179095 -0.00485348 -1.13911e-20)
(-0.0192014 3.20363e-05 1.82118e-21)
(-0.0162708 0.00403902 -9.66196e-21)
(-0.0120633 0.00833698 3.76943e-22)
(-0.00564342 0.0122477 -1.40555e-20)
(0.0026508 0.0156417 2.21813e-20)
(0.0126772 0.0184559 -7.39637e-21)
(0.0242537 0.020688 4.95045e-21)
(0.0371965 0.0223827 -9.53712e-22)
(0.0513354 0.023603 -2.851e-21)
(0.0665131 0.024417 -1.13784e-21)
(0.0825869 0.0248908 2.31888e-21)
(0.0994278 0.0250832 -5.03707e-21)
(0.11692 0.0250457 5.25443e-21)
(0.134959 0.0248217 -6.43945e-22)
(0.15345 0.0244476 2.92835e-22)
(0.172309 0.0239538 -7.40878e-22)
(-0.0279606 -0.00400417 7.92088e-21)
(-0.0295049 -0.000246339 1.10169e-20)
(-0.0274314 0.00292885 -9.01477e-22)
(-0.023826 0.00632735 -5.46265e-21)
(-0.0179161 0.00943067 -2.61194e-21)
(-0.00998075 0.012131 2.56305e-21)
(-0.000162538 0.0143736 3.73251e-21)
(0.0113444 0.0161539 -5.73553e-21)
(0.0243384 0.0175062 -7.7651e-22)
(0.0386282 0.0184799 2.43822e-21)
(0.0540356 0.0191294 -3.07393e-21)
(0.0703996 0.0195076 7.23756e-22)
(0.0875756 0.0196619 5.48379e-21)
(0.105435 0.0196335 -5.75882e-21)
(0.123863 0.0194573 4.40421e-21)
(0.142757 0.0191623 1.11782e-22)
(0.162026 0.0187729 -5.79156e-22)
(-0.0354518 -0.002979 -1.12234e-20)
(-0.0372055 -0.000310085 5.7498e-21)
(-0.0357929 0.00197914 -7.25963e-21)
(-0.0326437 0.00443308 1.03576e-20)
(-0.0271289 0.00668288 -5.42846e-21)
(-0.0194767 0.00864428 1.94752e-21)
(-0.00982806 0.0102752 -6.31104e-21)
(0.00161486 0.011571 4.74648e-21)
(0.0146376 0.0125556 -1.73956e-21)
(0.0290331 0.0132646 1.01142e-21)
(0.0446076 0.0137377 -3.46178e-21)
(0.0611858 0.0140132 6.65421e-21)
(0.0786113 0.0141261 -4.40601e-21)
(0.0967454 0.0141064 5.91913e-22)
(0.115465 0.0139795 1.30604e-21)
(0.134663 0.0137667 -7.56196e-22)
(0.154242 0.0134857 -1.91011e-21)
(-0.0404281 -0.00183668 -3.83959e-21)
(-0.042327 -0.000247755 2.67414e-21)
(-0.0413596 0.00114061 3.26719e-21)
(-0.0385201 0.00262463 -3.31007e-21)
(-0.033275 0.0039878 -1.37493e-23)
(-0.0258181 0.0051777 4.4653e-21)
(-0.0162888 0.0061679 -2.67305e-21)
(-0.00489424 0.00695517 1.39703e-21)
(0.00814305 0.0075535 5.5351e-22)
(0.0226055 0.00798443 -2.60215e-22)
(0.0382888 0.00827199 -1.49399e-21)
(0.0550082 0.0084396 1.59597e-21)
(0.0725991 0.00850843 -1.29026e-21)
(0.0909161 0.00849683 1.49615e-21)
(0.109831 0.00842034 -7.10642e-22)
(0.129231 0.00829188 5.72705e-22)
(0.149017 0.00812219 -3.22223e-22)
(-0.0429112 -0.000620633 -1.0488e-21)
(-0.0448841 -9.31851e-05 4.83513e-22)
(-0.0441406 0.000372205 -6.78844e-22)
(-0.0414576 0.000868916 -2.39906e-22)
(-0.0363494 0.00132553 1.8967e-21)
(-0.0289921 0.00172434 -1.13178e-21)
(-0.0195244 0.00205637 -3.46421e-22)
(-0.00815562 0.00232042 7.84555e-22)
(0.00488756 0.00252115 -1.53374e-22)
(0.0193823 0.00266573 -3.03857e-22)
(0.0351193 0.00276221 9.50711e-23)
(0.0519089 0.00281847 8.08874e-22)
(0.0695822 0.00284161 -4.97664e-22)
(0.0879905 0.0028378 -9.06383e-23)
(0.107003 0.00281225 -3.36779e-24)
(0.126505 0.00276931 -2.19731e-22)
(0.146394 0.00271257 2.78033e-22)
)
;

boundaryField
{
    inlet
    {
        type            uniformFixedValue;
        uniformValue    constant (1 0 0);
        value           nonuniform 0();
    }
    outlet
    {
        type            pressureInletOutletVelocity;
        value           nonuniform 0();
    }
    cylinder
    {
        type            fixedValue;
        value           nonuniform 0();
    }
    top
    {
        type            symmetryPlane;
    }
    bottom
    {
        type            symmetryPlane;
    }
    defaultFaces
    {
        type            empty;
    }
    procBoundary16to9
    {
        type            processor;
        value           nonuniform List<vector> 9((0.203627 0.0162269 -4.70314e-22) (0.155465 0.0127255 2.20024e-19) (0.155465 0.0127255 2.20024e-19) (0.115195 0.00814054 2.06438e-19) (0.115195 0.00814054 2.06438e-19) (0.0820212 0.00310647 -3.3095e-20) (0.0820212 0.00310647 -3.3095e-20) (0.0551577 -0.00188164 -4.05574e-20) (0.0551577 -0.00188164 -4.05574e-20));
    }
    procBoundary16to10
    {
        type            processor;
        value           nonuniform List<vector> 
25
(
(0.222153 0.0170017 -1.28675e-20)
(0.204568 0.0152128 4.6162e-20)
(0.204568 0.0152128 4.6162e-20)
(0.222743 0.0146988 2.65045e-20)
(0.203412 0.00962257 -3.08432e-20)
(0.203412 0.00962257 -3.08432e-20)
(0.220083 0.0060196 1.48479e-20)
(0.239693 0.0027833 -1.62873e-20)
(0.244469 0.0190944 1.60767e-20)
(0.259986 0.0275002 -1.02982e-20)
(0.272044 0.0356779 2.01634e-20)
(0.282744 0.0425506 -3.64992e-20)
(0.292278 0.048318 1.82703e-20)
(0.300927 0.0531551 -5.28223e-21)
(0.30905 0.057119 1.34536e-20)
(0.316907 0.0602769 3.9774e-22)
(0.324709 0.0626917 6.46072e-21)
(0.332618 0.0644273 -3.49984e-22)
(0.34075 0.0655493 -2.79914e-20)
(0.349187 0.066124 2.09569e-20)
(0.357979 0.0662162 -7.20392e-21)
(0.367152 0.0658879 -1.83085e-21)
(0.376718 0.0651977 4.07547e-22)
(0.38667 0.0641993 -1.69206e-21)
(0.396993 0.062942 1.13401e-20)
)
;
    }
    procBoundary16to15
    {
        type            processor;
        value           nonuniform List<vector> 
17
(
(0.0338331 -0.00644809 4.68974e-20)
(0.0338331 -0.00644809 4.68974e-20)
(0.0173027 -0.0103209 -1.07576e-20)
(0.0173027 -0.0103209 -1.07576e-20)
(0.00486017 -0.0133189 1.47181e-19)
(-0.0023746 -0.0141332 -1.4709e-20)
(-0.0023746 -0.0141332 -1.4709e-20)
(-0.00951854 -0.0153703 2.39906e-20)
(-0.0139585 -0.014776 1.11465e-20)
(-0.0139585 -0.014776 1.11465e-20)
(-0.0173019 -0.014304 4.67735e-20)
(-0.0197636 -0.012468 2.73713e-20)
(-0.0197636 -0.012468 2.73713e-20)
(-0.0205527 -0.010574 -2.95194e-20)
(-0.021684 -0.00781598 2.06768e-20)
(-0.0224151 -0.00479614 1.02619e-20)
(-0.0227737 -0.0016166 -4.01233e-22)
)
;
    }
    procBoundary16to17
    {
        type            processor;
        value           nonuniform List<vector> 
15
(
(0.381763 0.0587207 -2.078e-21)
(0.356808 0.0556839 -3.76253e-21)
(0.332972 0.0523697 3.83076e-22)
(0.310427 0.04879 1.59426e-21)
(0.273413 0.0461964 2.43734e-21)
(0.273413 0.0461964 2.43734e-21)
(0.253075 0.0420388 5.40465e-22)
(0.234575 0.0376539 1.91748e-21)
(0.218057 0.0330639 -2.34304e-21)
(0.203647 0.0282926 2.39955e-24)
(0.191458 0.0233655 1.51142e-21)
(0.181588 0.0183091 -2.1923e-21)
(0.174116 0.0131512 2.56141e-22)
(0.1691 0.00792015 -8.48349e-22)
(0.166582 0.00264502 1.78122e-23)
)
;
    }
    procBoundary16to21
    {
        type            processor;
        value           uniform (-0.0227737 0.00161661 -1.80741e-21);
    }
    procBoundary16to22
    {
        type            processor;
        value           nonuniform List<vector> 
33
(
(-0.0238989 0.00463172 -5.79464e-21)
(-0.0253565 0.00444384 3.2368e-21)
(-0.0267769 0.00423557 -6.16085e-21)
(-0.0281499 0.00401049 -5.97146e-21)
(-0.029466 0.00377275 -1.66019e-21)
(-0.0307172 0.00352702 -5.59167e-21)
(-0.0318967 0.00327851 3.33804e-21)
(-0.0353358 0.000949391 5.5013e-21)
(-0.033 0.00303287 -8.89196e-22)
(-0.0353358 0.000949391 5.5013e-21)
(-0.0364248 0.000875056 -6.80665e-21)
(-0.0374467 0.000807723 2.28839e-21)
(-0.0384082 0.000749292 1.92567e-22)
(-0.0393163 0.000701401 1.25903e-22)
(-0.0401789 0.000666005 -2.85545e-21)
(-0.0410392 0.000645516 5.53284e-21)
(-0.0429112 0.000620601 1.01593e-21)
(-0.0448841 9.3144e-05 -6.72728e-22)
(-0.0441406 -0.000372254 5.95506e-22)
(-0.0414576 -0.000868972 -8.0234e-23)
(-0.0363494 -0.0013256 -1.48904e-21)
(-0.0289921 -0.00172441 1.22743e-21)
(-0.0195244 -0.00205643 3.21141e-23)
(-0.00815562 -0.00232048 -9.38909e-22)
(0.00488755 -0.0025212 3.93167e-22)
(0.0193823 -0.00266577 4.78737e-22)
(0.0351193 -0.00276224 -3.34618e-23)
(0.0519089 -0.00281848 -3.07201e-22)
(0.0695822 -0.0028416 3.31936e-22)
(0.0879905 -0.00283776 -2.90555e-22)
(0.107003 -0.00281218 -1.38095e-23)
(0.126505 -0.00276921 2.29769e-22)
(0.146394 -0.00271244 -5.19104e-22)
)
;
    }
}


// ************************************************************************* //
