/*--------------------------------*- C++ -*----------------------------------*\
  =========                 |
  \\      /  F ield         | OpenFOAM: The Open Source CFD Toolbox
   \\    /   O peration     | Website:  https://openfoam.org
    \\  /    A nd           | Version:  7
     \\/     M anipulation  |
\*---------------------------------------------------------------------------*/
FoamFile
{
    version     2.0;
    format      ascii;
    class       volScalarField;
    location    "29.999662";
    object      p;
}
// * * * * * * * * * * * * * * * * * * * * * * * * * * * * * * * * * * * * * //

dimensions      [0 2 -2 0 0 0 0];

internalField   nonuniform List<scalar> 
5800
(
-0.219816
-0.219633
-0.219264
-0.218711
-0.217973
-0.214531
-0.210542
-0.206339
-0.202063
-0.197717
-0.193296
-0.188807
-0.184258
-0.179656
-0.175005
-0.170313
-0.165584
-0.160826
-0.156043
-0.151243
-0.146431
-0.141616
-0.136804
-0.132003
-0.127219
-0.12246
-0.117734
-0.113047
-0.108407
-0.103821
-0.0992955
-0.0948369
-0.0904514
-0.0861451
-0.0819232
-0.077791
-0.073753
-0.0698137
-0.0659767
-0.0622454
-0.0586229
-0.0551115
-0.0517134
-0.0484301
-0.0452628
-0.0422123
-0.039279
-0.0364628
-0.0337634
-0.03118
-0.0287117
-0.0263572
-0.0241148
-0.0219828
-0.0199592
-0.0180417
-0.016228
-0.0145156
-0.012902
-0.0113845
-0.00996031
-0.00862702
-0.00738121
-0.00622201
-0.00514237
-0.00415039
-0.00321849
-0.00240208
-0.00156802
-0.00100364
-7.46158e-05
-0.000130013
0.0016868
-0.000536958
0.00533071
-0.214865
-0.210874
-0.206602
-0.202295
-0.197933
-0.193497
-0.188995
-0.184436
-0.179825
-0.175167
-0.170469
-0.165734
-0.16097
-0.156182
-0.151377
-0.146561
-0.141742
-0.136926
-0.13212
-0.127332
-0.12257
-0.117839
-0.113149
-0.108505
-0.103915
-0.0993863
-0.0949241
-0.0905352
-0.0862254
-0.0820002
-0.0778647
-0.0738235
-0.069881
-0.0660409
-0.0623066
-0.0586811
-0.0551669
-0.051766
-0.0484799
-0.04531
-0.042257
-0.0393212
-0.0365026
-0.0338009
-0.0312153
-0.0287449
-0.0263883
-0.024144
-0.0220102
-0.0199847
-0.0180656
-0.0162503
-0.0145364
-0.0129213
-0.0114024
-0.00997696
-0.00864245
-0.00739548
-0.0062352
-0.00515453
-0.0041616
-0.00322882
-0.00241157
-0.00157685
-0.00101157
-8.27865e-05
-0.0001358
0.00167595
-0.000535985
0.00530198
-0.215532
-0.211535
-0.207124
-0.202757
-0.198361
-0.193896
-0.189368
-0.184789
-0.180161
-0.175489
-0.170777
-0.166031
-0.161256
-0.156458
-0.151644
-0.146819
-0.141991
-0.137166
-0.132353
-0.127557
-0.122786
-0.118049
-0.113351
-0.1087
-0.104103
-0.0995666
-0.0950975
-0.0907018
-0.0863853
-0.0821534
-0.0780114
-0.0739639
-0.070015
-0.0661688
-0.0624286
-0.0587972
-0.0552773
-0.0518708
-0.0485793
-0.0454042
-0.042346
-0.0394053
-0.036582
-0.0338757
-0.0312857
-0.0288111
-0.0264505
-0.0242023
-0.0220648
-0.0200358
-0.0181133
-0.0162948
-0.0145779
-0.0129599
-0.0114383
-0.0100102
-0.00867327
-0.007424
-0.00626155
-0.00517883
-0.00418402
-0.00324944
-0.00243055
-0.00159449
-0.00102741
-9.91088e-05
-0.000147363
0.00165431
-0.000534105
0.0052449
-0.21652
-0.21252
-0.207902
-0.203443
-0.198998
-0.194488
-0.189922
-0.185312
-0.180658
-0.175963
-0.171232
-0.166468
-0.161677
-0.156865
-0.152037
-0.147199
-0.142358
-0.137521
-0.132696
-0.127889
-0.123107
-0.118358
-0.11365
-0.108988
-0.104381
-0.099834
-0.0953548
-0.0909491
-0.0866227
-0.0823812
-0.0782296
-0.0741727
-0.0702147
-0.0663594
-0.0626103
-0.0589703
-0.0554419
-0.0520271
-0.0487277
-0.0455447
-0.0424791
-0.039531
-0.0367006
-0.0339876
-0.0313911
-0.0289101
-0.0265435
-0.0242895
-0.0221465
-0.0201122
-0.0181847
-0.0163614
-0.0146399
-0.0130177
-0.011492
-0.01006
-0.00871943
-0.0074667
-0.00630102
-0.00521523
-0.00421759
-0.00328034
-0.00245898
-0.00162092
-0.00105113
-0.00012355
-0.000164685
0.00162201
-0.000531452
0.00516025
-0.217814
-0.213818
-0.208926
-0.204345
-0.199835
-0.195265
-0.190648
-0.185995
-0.181307
-0.176583
-0.171825
-0.167038
-0.162227
-0.157395
-0.152548
-0.147693
-0.142837
-0.137984
-0.133144
-0.128322
-0.123526
-0.118763
-0.11404
-0.109365
-0.104745
-0.100185
-0.0956928
-0.0912742
-0.0869352
-0.0826811
-0.0785172
-0.0744481
-0.0704781
-0.0666111
-0.0628504
-0.0591991
-0.0556596
-0.0522341
-0.0489242
-0.045731
-0.0426554
-0.0396977
-0.0368581
-0.034136
-0.0315309
-0.0290416
-0.026667
-0.0244054
-0.022255
-0.0202138
-0.0182796
-0.01645
-0.0147225
-0.0130945
-0.0115633
-0.0101263
-0.00878081
-0.0075235
-0.00635352
-0.00526366
-0.00426225
-0.00332146
-0.0024968
-0.0016561
-0.00108269
-0.000156058
-0.000187738
0.00157925
-0.000528217
0.00504916
-0.219388
-0.215414
-0.210184
-0.205452
-0.200861
-0.196216
-0.191534
-0.186829
-0.182097
-0.177335
-0.172546
-0.16773
-0.162892
-0.158037
-0.153169
-0.148293
-0.143417
-0.138546
-0.133688
-0.128848
-0.124036
-0.119256
-0.114518
-0.109827
-0.10519
-0.100615
-0.0961072
-0.0916733
-0.0873192
-0.0830501
-0.0788714
-0.0747876
-0.0708031
-0.0669219
-0.0631472
-0.0594821
-0.0559292
-0.0524905
-0.0491676
-0.0459619
-0.0428741
-0.0399046
-0.0370535
-0.0343204
-0.0317046
-0.0292051
-0.0268206
-0.0245495
-0.02239
-0.0203402
-0.0183977
-0.0165602
-0.0148252
-0.0131901
-0.0116522
-0.0102088
-0.0088573
-0.00759428
-0.00641895
-0.00532402
-0.00431793
-0.00337272
-0.00254395
-0.00169996
-0.00112202
-0.00019656
-0.000216482
0.0015263
-0.00052464
0.00491311
-0.221212
-0.217287
-0.21166
-0.206748
-0.202062
-0.197328
-0.192568
-0.1878
-0.183015
-0.178208
-0.173379
-0.16853
-0.163662
-0.158779
-0.153885
-0.148987
-0.144088
-0.139197
-0.134318
-0.12946
-0.124628
-0.119831
-0.115074
-0.110365
-0.105711
-0.101118
-0.0965931
-0.0921419
-0.0877706
-0.0834844
-0.0792887
-0.0751881
-0.071187
-0.0672893
-0.0634984
-0.0598173
-0.0562487
-0.0527946
-0.0494567
-0.0462363
-0.0431342
-0.0401508
-0.0372862
-0.03454
-0.0319116
-0.0293999
-0.0270037
-0.0247214
-0.0225512
-0.020491
-0.0185387
-0.0166918
-0.0149479
-0.0133044
-0.0117585
-0.0103074
-0.00894871
-0.00767889
-0.00649717
-0.0053962
-0.0043845
-0.00343403
-0.00260033
-0.00175242
-0.00116904
-0.000244963
-0.000250865
0.00146348
-0.000521003
0.00475389
-0.223255
-0.219408
-0.213328
-0.208212
-0.203419
-0.198583
-0.193732
-0.188889
-0.184043
-0.179184
-0.17431
-0.169422
-0.164519
-0.159606
-0.154684
-0.14976
-0.144838
-0.139924
-0.135024
-0.130146
-0.125294
-0.120477
-0.115701
-0.110973
-0.1063
-0.101689
-0.0971448
-0.0926749
-0.0882847
-0.0839799
-0.0797655
-0.0756463
-0.0716267
-0.0677106
-0.0639016
-0.0602026
-0.0566162
-0.0531447
-0.0497898
-0.0465527
-0.0434343
-0.040435
-0.037555
-0.0347938
-0.0321509
-0.0296253
-0.0272157
-0.0249205
-0.0227378
-0.0206658
-0.0187022
-0.0168445
-0.0150903
-0.0134369
-0.0118817
-0.0104218
-0.00905483
-0.00777712
-0.006588
-0.00548003
-0.00446184
-0.00350526
-0.00266583
-0.0018134
-0.00122365
-0.000301147
-0.000290822
0.00139118
-0.000517613
0.00457356
-0.225464
-0.221734
-0.215158
-0.209817
-0.204908
-0.199958
-0.195004
-0.190077
-0.185161
-0.180244
-0.17532
-0.170388
-0.165448
-0.160501
-0.15555
-0.150599
-0.145652
-0.140715
-0.135794
-0.130894
-0.126023
-0.121186
-0.11639
-0.111643
-0.106951
-0.102319
-0.097756
-0.0932664
-0.0888565
-0.0845318
-0.0802974
-0.0761582
-0.0721187
-0.0681827
-0.0643539
-0.0606352
-0.0570295
-0.0535388
-0.0501651
-0.0469095
-0.0437729
-0.040756
-0.0378588
-0.0350809
-0.0324218
-0.0298805
-0.0274558
-0.025146
-0.0229495
-0.020864
-0.0188876
-0.0170177
-0.0152518
-0.0135874
-0.0120217
-0.0105518
-0.00917539
-0.00788875
-0.00669124
-0.00557532
-0.00454977
-0.00358627
-0.00274032
-0.00188276
-0.00128572
-0.00036497
-0.00033627
0.00130984
-0.000514796
0.00437442
-0.224211
-0.217108
-0.21153
-0.206499
-0.201426
-0.19636
-0.19134
-0.186348
-0.181365
-0.176387
-0.171408
-0.166428
-0.161447
-0.156466
-0.151488
-0.146516
-0.141557
-0.136614
-0.131694
-0.126803
-0.121947
-0.117132
-0.112366
-0.107654
-0.103004
-0.0984203
-0.0939106
-0.0894804
-0.0851351
-0.08088
-0.0767199
-0.0726593
-0.0687022
-0.0648522
-0.0611126
-0.057486
-0.0539747
-0.0505805
-0.0473048
-0.0441485
-0.0411123
-0.0381962
-0.0354
-0.0327231
-0.0301645
-0.0277231
-0.0253973
-0.0231853
-0.021085
-0.0190944
-0.0172109
-0.0154322
-0.0137554
-0.012178
-0.010697
-0.00931008
-0.00801349
-0.00680664
-0.00568187
-0.00464809
-0.00367688
-0.00282361
-0.00196036
-0.00135511
-0.000436257
-0.00038711
0.00121997
-0.00051288
0.00415897
-0.226768
-0.219124
-0.213306
-0.208154
-0.202953
-0.197767
-0.19265
-0.187576
-0.182525
-0.177488
-0.172461
-0.167441
-0.162425
-0.157414
-0.152409
-0.147415
-0.142435
-0.137472
-0.132534
-0.127624
-0.12275
-0.117918
-0.113133
-0.108403
-0.103733
-0.0991307
-0.0946012
-0.0901507
-0.0857846
-0.0815084
-0.0773268
-0.0732444
-0.0692654
-0.0653934
-0.0616317
-0.057983
-0.0544498
-0.0510338
-0.0477366
-0.0445592
-0.0415022
-0.0385657
-0.0357497
-0.0330535
-0.0304762
-0.0280167
-0.0256733
-0.0234445
-0.021328
-0.0193219
-0.0174236
-0.0156306
-0.0139404
-0.0123501
-0.010857
-0.00945853
-0.00815102
-0.00693389
-0.00579939
-0.00475656
-0.00377688
-0.00291553
-0.00204602
-0.00143164
-0.000514809
-0.000443225
0.00112211
-0.00051219
0.00392981
-0.229317
-0.221141
-0.215092
-0.209827
-0.204496
-0.199189
-0.193972
-0.188815
-0.183694
-0.178599
-0.173524
-0.168464
-0.163415
-0.158376
-0.153348
-0.148333
-0.143334
-0.138355
-0.1334
-0.128475
-0.123585
-0.118736
-0.113935
-0.109188
-0.104501
-0.0998803
-0.0953318
-0.0908615
-0.086475
-0.0821777
-0.0779746
-0.0738702
-0.0698687
-0.065974
-0.0621894
-0.0585178
-0.0549615
-0.0515227
-0.0482028
-0.045003
-0.0419239
-0.0389658
-0.0361286
-0.0334117
-0.0308143
-0.0283353
-0.0259731
-0.0237261
-0.0215922
-0.0195693
-0.017655
-0.0158467
-0.0141418
-0.0125377
-0.0110313
-0.00962032
-0.00830095
-0.00707267
-0.0059276
-0.00487491
-0.00388603
-0.00301583
-0.00213954
-0.00151512
-0.00060039
-0.00050448
0.00101686
-0.000513034
0.00368967
-0.223074
-0.216823
-0.211459
-0.206006
-0.200582
-0.195269
-0.190031
-0.184843
-0.179693
-0.174573
-0.169476
-0.164397
-0.159334
-0.154286
-0.149254
-0.144241
-0.139248
-0.134281
-0.129343
-0.124441
-0.119579
-0.114764
-0.110003
-0.1053
-0.100662
-0.096096
-0.091607
-0.0872009
-0.0828831
-0.0786586
-0.0745323
-0.0705083
-0.0665905
-0.0627825
-0.0590873
-0.0555073
-0.0520448
-0.0487013
-0.045478
-0.0423757
-0.0393947
-0.0365351
-0.0337963
-0.0311776
-0.0286779
-0.0262957
-0.0240292
-0.0218767
-0.0198358
-0.0179043
-0.0160796
-0.014359
-0.01274
-0.0112194
-0.00979499
-0.00846286
-0.00722258
-0.00606614
-0.00500283
-0.00400405
-0.00312428
-0.00224069
-0.00160533
-0.000692741
-0.000570722
0.000904838
-0.000515701
0.00344126
-0.218421
-0.212981
-0.207422
-0.201894
-0.196495
-0.191186
-0.185938
-0.18074
-0.175581
-0.170454
-0.165352
-0.160271
-0.155209
-0.150165
-0.145142
-0.140141
-0.135165
-0.13022
-0.125308
-0.120437
-0.115612
-0.110838
-0.106122
-0.10147
-0.0968879
-0.0923818
-0.0879572
-0.0836198
-0.0793747
-0.0752268
-0.0711804
-0.0672396
-0.063408
-0.0596888
-0.0560846
-0.0525976
-0.0492296
-0.045982
-0.0428555
-0.0398507
-0.0369676
-0.0342059
-0.0315647
-0.0290431
-0.0266397
-0.0243528
-0.0221804
-0.0201206
-0.0181708
-0.0163286
-0.0145914
-0.0129564
-0.0114208
-0.00998202
-0.00863629
-0.0073832
-0.00621463
-0.00513997
-0.00413062
-0.00324056
-0.00234919
-0.00170202
-0.000791565
-0.000641775
0.000786695
-0.000520454
0.00318729
-0.219793
-0.214312
-0.208672
-0.203067
-0.197604
-0.19224
-0.186947
-0.181712
-0.176526
-0.171378
-0.166261
-0.161169
-0.1561
-0.151052
-0.146025
-0.141021
-0.136043
-0.131094
-0.126178
-0.121302
-0.116469
-0.111687
-0.106961
-0.102297
-0.0977011
-0.0931796
-0.0887383
-0.0843825
-0.0801178
-0.075949
-0.0718807
-0.0679172
-0.064062
-0.0603187
-0.0566898
-0.053178
-0.049785
-0.0465123
-0.043361
-0.0403315
-0.037424
-0.0346383
-0.0319737
-0.0294293
-0.0270036
-0.0246952
-0.0225021
-0.0204222
-0.0184533
-0.0165927
-0.0148379
-0.0131862
-0.0116346
-0.0101807
-0.00882059
-0.00755396
-0.00637255
-0.00528585
-0.00426533
-0.00336431
-0.0024647
-0.00180488
-0.000896505
-0.000717436
0.000663121
-0.00052755
0.00293041
-0.215349
-0.20967
-0.204028
-0.198533
-0.193141
-0.187824
-0.182572
-0.177374
-0.172219
-0.167098
-0.162007
-0.15694
-0.151895
-0.146872
-0.141873
-0.136898
-0.131951
-0.127037
-0.12216
-0.117325
-0.112538
-0.107805
-0.103132
-0.098526
-0.0939917
-0.0895356
-0.0851634
-0.0808805
-0.0766921
-0.0726028
-0.0686171
-0.0647389
-0.0609716
-0.0573183
-0.0537815
-0.0503632
-0.0470652
-0.0438884
-0.0408337
-0.0379012
-0.0350908
-0.0324021
-0.029834
-0.0273853
-0.0250546
-0.0228399
-0.0207392
-0.0187502
-0.0168704
-0.0150973
-0.0134281
-0.0118598
-0.0103901
-0.00901493
-0.00773411
-0.00653926
-0.00543992
-0.00440768
-0.00349507
-0.00258681
-0.00191355
-0.00100715
-0.000797468
0.000534828
-0.000537221
0.0026731
-0.215957
-0.210299
-0.204684
-0.199208
-0.193828
-0.188522
-0.183282
-0.178095
-0.172952
-0.167845
-0.162767
-0.157715
-0.152684
-0.147675
-0.142688
-0.137724
-0.132787
-0.12788
-0.123008
-0.118176
-0.113389
-0.108654
-0.103976
-0.0993616
-0.0948173
-0.0903489
-0.0859622
-0.0816629
-0.0774562
-0.073347
-0.06934
-0.0654392
-0.0616484
-0.0579706
-0.0544088
-0.050965
-0.0476412
-0.0444386
-0.041358
-0.0383998
-0.0355641
-0.0328504
-0.0302578
-0.0277853
-0.0254314
-0.0231943
-0.0210719
-0.019062
-0.0171622
-0.0153699
-0.0136824
-0.0120966
-0.0106103
-0.00921945
-0.00792375
-0.0067148
-0.00560217
-0.00455763
-0.00363279
-0.00271543
-0.00202791
-0.00112331
-0.000881713
0.00040231
-0.000549478
0.00241747
-0.210594
-0.205094
-0.199702
-0.194382
-0.189125
-0.183924
-0.178771
-0.173658
-0.168577
-0.163524
-0.158494
-0.153485
-0.148496
-0.143526
-0.138578
-0.133654
-0.128758
-0.123894
-0.119067
-0.114282
-0.109546
-0.104865
-0.100245
-0.0956912
-0.091211
-0.0868102
-0.0824944
-0.0782692
-0.0741396
-0.0701106
-0.0661863
-0.0623708
-0.0586674
-0.0550791
-0.0516084
-0.0482571
-0.0450269
-0.0419187
-0.0389331
-0.0360702
-0.0333297
-0.0307109
-0.0282128
-0.025834
-0.0235727
-0.021427
-0.0193947
-0.0174734
-0.0156604
-0.0139532
-0.0123487
-0.0108446
-0.00943684
-0.00812518
-0.00690111
-0.00577421
-0.0047165
-0.00377847
-0.00285135
-0.00214846
-0.00124536
-0.000970235
0.000265495
-0.000563887
0.00216523
-0.205185
-0.199935
-0.194721
-0.189547
-0.184413
-0.179315
-0.174249
-0.16921
-0.164194
-0.159197
-0.154219
-0.149258
-0.144315
-0.13939
-0.134486
-0.129608
-0.124758
-0.119942
-0.115166
-0.110434
-0.105754
-0.101132
-0.0965731
-0.0920846
-0.0876725
-0.0833427
-0.079101
-0.0749527
-0.0709029
-0.0669562
-0.0631166
-0.0593879
-0.0557733
-0.0522755
-0.0488966
-0.0456384
-0.042502
-0.0394883
-0.0365974
-0.0338293
-0.0311834
-0.0286588
-0.0262541
-0.0239677
-0.0217978
-0.0197421
-0.0177984
-0.0159639
-0.0142362
-0.0126122
-0.0110895
-0.00966405
-0.00833571
-0.00709585
-0.00595402
-0.00488255
-0.00393066
-0.00299331
-0.00227424
-0.00137229
-0.00106265
0.000125574
-0.000581409
0.00191968
-0.202803
-0.197983
-0.193124
-0.188245
-0.183356
-0.178462
-0.17357
-0.168681
-0.163796
-0.158915
-0.15404
-0.149172
-0.144312
-0.139463
-0.134628
-0.129811
-0.125016
-0.120249
-0.115515
-0.110821
-0.106173
-0.101577
-0.0970405
-0.0925695
-0.0881706
-0.0838501
-0.0796141
-0.0754681
-0.0714176
-0.0674674
-0.0636219
-0.0598852
-0.0562606
-0.0527512
-0.0493594
-0.0460872
-0.0429359
-0.0399065
-0.0369995
-0.034215
-0.0315524
-0.029011
-0.0265896
-0.0242867
-0.0221005
-0.0200289
-0.0180697
-0.0162201
-0.0144778
-0.0128396
-0.0113033
-0.00986479
-0.00852393
-0.00727206
-0.00611873
-0.0050365
-0.00407365
-0.00312812
-0.00239576
-0.00149498
-0.00115599
-8.39908e-06
-0.000610413
0.00168952
-0.197852
-0.193041
-0.1882
-0.183339
-0.17847
-0.173598
-0.168726
-0.163856
-0.158988
-0.154124
-0.149266
-0.144415
-0.139573
-0.134745
-0.129933
-0.125144
-0.120382
-0.115652
-0.110962
-0.106318
-0.101725
-0.0971909
-0.0927222
-0.0883253
-0.0840064
-0.0797716
-0.0756266
-0.0715766
-0.0676267
-0.0637812
-0.0600442
-0.0564191
-0.0529089
-0.0495161
-0.0462426
-0.0430899
-0.0400589
-0.0371501
-0.0343635
-0.0316988
-0.0291552
-0.0267315
-0.0244261
-0.0222374
-0.0201632
-0.0182012
-0.0163489
-0.0146037
-0.0129626
-0.0114234
-0.00998173
-0.00863779
-0.00738263
-0.0062261
-0.00514047
-0.00417404
-0.0032257
-0.00248779
-0.00158884
-0.00123411
-0.000111291
-0.00065157
0.00150355
-0.194601
-0.19013
-0.185574
-0.18096
-0.176306
-0.171625
-0.166924
-0.162209
-0.157483
-0.15275
-0.148013
-0.143275
-0.138539
-0.13381
-0.129092
-0.12439
-0.11971
-0.115058
-0.110441
-0.105864
-0.101335
-0.0968595
-0.0924455
-0.0880991
-0.0838268
-0.0796347
-0.0755286
-0.0715141
-0.0675962
-0.0637796
-0.0600682
-0.0564659
-0.0529758
-0.0496004
-0.046342
-0.043202
-0.0401817
-0.0372818
-0.0345023
-0.031843
-0.0293034
-0.0268823
-0.0245784
-0.02239
-0.0203152
-0.0183518
-0.0164972
-0.0147492
-0.0131046
-0.0115615
-0.0101155
-0.00876675
-0.00750658
-0.00634455
-0.00525377
-0.00428069
-0.00332864
-0.00258028
-0.00168518
-0.00130466
-0.000217086
-0.000670526
0.0013267
-0.190742
-0.186591
-0.182317
-0.177955
-0.173528
-0.169051
-0.164538
-0.159995
-0.155429
-0.150846
-0.146249
-0.141644
-0.137033
-0.132423
-0.127819
-0.123225
-0.118647
-0.114093
-0.109567
-0.105078
-0.100632
-0.0962347
-0.0918942
-0.0876168
-0.083409
-0.079277
-0.0752268
-0.071264
-0.0673937
-0.0636207
-0.0599492
-0.0563831
-0.0529257
-0.0495798
-0.0463476
-0.043231
-0.0402311
-0.037349
-0.0345849
-0.0319387
-0.02941
-0.0269979
-0.0247012
-0.0225183
-0.0204475
-0.0184867
-0.0166335
-0.0148857
-0.0132404
-0.0116956
-0.0102472
-0.00889522
-0.00763142
-0.00646471
-0.00536985
-0.00439003
-0.00343563
-0.00267498
-0.00178701
-0.00137436
-0.000331781
-0.000679382
0.00113967
-0.186932
-0.183066
-0.179053
-0.174928
-0.170718
-0.16644
-0.16211
-0.157737
-0.15333
-0.148895
-0.144438
-0.139965
-0.13548
-0.130989
-0.126497
-0.122011
-0.117537
-0.11308
-0.108648
-0.104247
-0.0998847
-0.0955671
-0.0913015
-0.0870945
-0.0829527
-0.0788825
-0.0748898
-0.0709804
-0.0671595
-0.063432
-0.0598023
-0.0562744
-0.0528516
-0.049537
-0.0463329
-0.0432413
-0.0402637
-0.0374011
-0.034654
-0.0320224
-0.0295061
-0.0271044
-0.0248162
-0.0226401
-0.0205744
-0.0186172
-0.0167664
-0.0150198
-0.0133745
-0.0118287
-0.0103785
-0.0090238
-0.00775684
-0.0065858
-0.00548724
-0.00450075
-0.00354441
-0.00277106
-0.00189094
-0.00144477
-0.000448579
-0.000687367
0.000950603
-0.183019
-0.179427
-0.175671
-0.171784
-0.167793
-0.16372
-0.159579
-0.155383
-0.151141
-0.146861
-0.14255
-0.138215
-0.133861
-0.129495
-0.125122
-0.120748
-0.116381
-0.112026
-0.107691
-0.103382
-0.0991061
-0.0948707
-0.0906826
-0.0865485
-0.0824752
-0.0784689
-0.0745359
-0.0706818
-0.0669122
-0.0632319
-0.0596455
-0.0561571
-0.0527703
-0.0494882
-0.0463134
-0.043248
-0.0402936
-0.0374513
-0.034722
-0.0321058
-0.0296025
-0.0272117
-0.0249325
-0.0227635
-0.0207034
-0.0187502
-0.016902
-0.0151567
-0.0135116
-0.011965
-0.010513
-0.00915566
-0.00788556
-0.00671009
-0.0056078
-0.00461441
-0.00365609
-0.00286958
-0.00199732
-0.00151679
-0.000566851
-0.000696049
0.000761318
-0.17895
-0.175621
-0.172117
-0.168468
-0.164702
-0.160838
-0.156894
-0.152882
-0.148813
-0.144697
-0.140541
-0.136351
-0.132136
-0.127901
-0.123653
-0.119399
-0.115145
-0.110898
-0.106665
-0.102454
-0.09827
-0.0941216
-0.0900156
-0.0859588
-0.0819579
-0.0780194
-0.0741496
-0.0703543
-0.0666391
-0.063009
-0.0594687
-0.0560225
-0.0526741
-0.0494267
-0.0462831
-0.0432457
-0.0403162
-0.0374959
-0.0347857
-0.0321861
-0.0296971
-0.0273182
-0.0250488
-0.0228878
-0.0208338
-0.0188852
-0.01704
-0.0152964
-0.0136519
-0.0121046
-0.010651
-0.00929107
-0.00801786
-0.00683789
-0.00573182
-0.0047313
-0.00377092
-0.00297072
-0.00210628
-0.00159049
-0.00068664
-0.000705289
0.000572755
-0.174747
-0.171668
-0.168408
-0.164995
-0.161453
-0.157802
-0.154059
-0.150238
-0.146349
-0.142402
-0.138407
-0.134371
-0.130301
-0.126204
-0.122088
-0.117959
-0.113824
-0.109691
-0.105566
-0.101457
-0.0973701
-0.0933137
-0.0892943
-0.0853192
-0.081395
-0.0775283
-0.0737255
-0.0699926
-0.0663351
-0.0627584
-0.0592673
-0.0558661
-0.0525587
-0.0493485
-0.0462385
-0.0432312
-0.0403286
-0.037532
-0.0348427
-0.0322611
-0.0297876
-0.0274219
-0.0251634
-0.0230113
-0.0209642
-0.0190209
-0.0171794
-0.015438
-0.0137944
-0.0122468
-0.0107919
-0.00942952
-0.0081533
-0.00696885
-0.00585898
-0.00485114
-0.00388862
-0.00307433
-0.00221753
-0.0016658
-0.000807489
-0.000715349
0.000386279
-0.170425
-0.167585
-0.164562
-0.161381
-0.158063
-0.154626
-0.151088
-0.14746
-0.143756
-0.139985
-0.136156
-0.132279
-0.12836
-0.124407
-0.120428
-0.11643
-0.11242
-0.108406
-0.104394
-0.100392
-0.096407
-0.0924469
-0.0885187
-0.0846294
-0.0807858
-0.0769948
-0.0732627
-0.0695957
-0.0659994
-0.0624792
-0.0590402
-0.0556868
-0.052423
-0.0492526
-0.0461785
-0.0432034
-0.0403296
-0.0375586
-0.0348918
-0.0323298
-0.0298732
-0.0275219
-0.0252754
-0.0231332
-0.021094
-0.0191567
-0.0173196
-0.0155809
-0.0139387
-0.0123912
-0.0109353
-0.00957061
-0.00829153
-0.00710262
-0.00598898
-0.00497369
-0.0040089
-0.00318022
-0.00233073
-0.00174271
-0.000928784
-0.000726687
0.000203383
-0.165998
-0.163385
-0.160592
-0.157638
-0.154542
-0.151319
-0.147986
-0.144556
-0.14104
-0.137449
-0.133792
-0.130078
-0.126316
-0.122513
-0.118676
-0.114814
-0.110934
-0.107043
-0.103149
-0.0992585
-0.0953802
-0.091521
-0.087688
-0.0838886
-0.0801297
-0.0764182
-0.0727604
-0.0691626
-0.0656308
-0.0621703
-0.0587863
-0.0554835
-0.0522661
-0.0491378
-0.046102
-0.0431614
-0.0403183
-0.0375748
-0.0349322
-0.0323914
-0.0299531
-0.0276175
-0.0253843
-0.0232529
-0.0212226
-0.0192921
-0.01746
-0.0157247
-0.0140844
-0.0125373
-0.0110807
-0.00971402
-0.00843223
-0.00723894
-0.00612153
-0.00509871
-0.0041315
-0.00328822
-0.00244553
-0.0018212
-0.00104993
-0.000739711
2.55036e-05
-0.161475
-0.159082
-0.156511
-0.153779
-0.150901
-0.147892
-0.144765
-0.141534
-0.138209
-0.1348
-0.131319
-0.127773
-0.124171
-0.120522
-0.116832
-0.113111
-0.109365
-0.105602
-0.10183
-0.0980569
-0.0942893
-0.090535
-0.0868015
-0.0830959
-0.0794255
-0.075797
-0.0722171
-0.0686921
-0.065228
-0.0618303
-0.0585044
-0.055255
-0.0520866
-0.049003
-0.0460078
-0.0431038
-0.0402937
-0.0375795
-0.0349628
-0.0324449
-0.0300265
-0.0277079
-0.0254891
-0.0233697
-0.0213491
-0.0194263
-0.0176
-0.0158688
-0.0142309
-0.0126847
-0.0112278
-0.00985936
-0.00857506
-0.0073775
-0.00625635
-0.00522596
-0.00425613
-0.00339814
-0.00256158
-0.00190121
-0.00117034
-0.000754752
-0.000146013
-0.15687
-0.154688
-0.152333
-0.149818
-0.147155
-0.144356
-0.141435
-0.138402
-0.135269
-0.132046
-0.128743
-0.125368
-0.121931
-0.118439
-0.1149
-0.111324
-0.107716
-0.104086
-0.10044
-0.0967871
-0.0931341
-0.0894887
-0.0858584
-0.0822506
-0.0786723
-0.0751305
-0.0716319
-0.0681829
-0.0647897
-0.061458
-0.0581931
-0.055
-0.0518832
-0.0488469
-0.0458946
-0.0430295
-0.0402544
-0.0375716
-0.0349827
-0.0324893
-0.0300922
-0.0277921
-0.025589
-0.0234828
-0.021473
-0.0195588
-0.0177391
-0.0160126
-0.0143777
-0.012833
-0.0113761
-0.0100062
-0.00871964
-0.00751795
-0.00639308
-0.00535513
-0.00438245
-0.00350977
-0.00267852
-0.00198265
-0.00128947
-0.000772076
-0.000309911
-0.152193
-0.150217
-0.148073
-0.145769
-0.143316
-0.140724
-0.138006
-0.135172
-0.132231
-0.129194
-0.126071
-0.122869
-0.119599
-0.116267
-0.112883
-0.109454
-0.105989
-0.102494
-0.0989788
-0.0954499
-0.0919151
-0.0883823
-0.0848589
-0.0813522
-0.0778695
-0.0744178
-0.0710038
-0.0676342
-0.064315
-0.0610522
-0.0578512
-0.0547172
-0.0516548
-0.0486682
-0.0457613
-0.0429374
-0.0401995
-0.0375499
-0.0349907
-0.0325235
-0.0301494
-0.0278692
-0.0256831
-0.0235913
-0.0215935
-0.0196888
-0.0178766
-0.0161555
-0.0145243
-0.0129815
-0.0115251
-0.0101542
-0.00886552
-0.00765988
-0.00653135
-0.0054859
-0.00451013
-0.00362283
-0.00279596
-0.0020654
-0.00140673
-0.000791883
-0.000465043
-0.14746
-0.145684
-0.143743
-0.141645
-0.139397
-0.13701
-0.134492
-0.131854
-0.129104
-0.126254
-0.12331
-0.120284
-0.117182
-0.114013
-0.110785
-0.107507
-0.104186
-0.100831
-0.0974484
-0.0940467
-0.0906335
-0.0872165
-0.0838031
-0.0804009
-0.077017
-0.0736586
-0.0703324
-0.0670452
-0.0638031
-0.0606121
-0.0574779
-0.0544056
-0.0514001
-0.0484658
-0.0456067
-0.0428263
-0.0401276
-0.0375134
-0.0349857
-0.0325465
-0.030197
-0.0279382
-0.0257706
-0.0236944
-0.0217096
-0.0198155
-0.0180116
-0.0162968
-0.0146699
-0.0131297
-0.0116743
-0.0103026
-0.00901225
-0.00780289
-0.00667077
-0.00561791
-0.00463879
-0.00373706
-0.00291351
-0.00214929
-0.00152161
-0.000814311
-0.000610389
-0.142684
-0.141103
-0.13936
-0.137462
-0.135414
-0.133226
-0.130905
-0.12846
-0.1259
-0.123234
-0.120471
-0.117619
-0.114686
-0.111681
-0.108612
-0.105486
-0.102313
-0.0990984
-0.0958515
-0.0925797
-0.0892908
-0.0859924
-0.082692
-0.0793971
-0.076115
-0.0728528
-0.0696174
-0.0664154
-0.0632532
-0.0601369
-0.0570721
-0.0540643
-0.0511183
-0.0482387
-0.0454297
-0.042695
-0.0400378
-0.0374609
-0.0349667
-0.0325572
-0.030234
-0.0279981
-0.0258504
-0.0237911
-0.0218205
-0.0199381
-0.0181435
-0.0164358
-0.014814
-0.0132769
-0.011823
-0.0104511
-0.00915933
-0.0079465
-0.00681088
-0.00575078
-0.00476804
-0.00385214
-0.00303078
-0.00223415
-0.00163359
-0.000839429
-0.000745068
-0.13788
-0.136488
-0.134937
-0.133233
-0.13138
-0.129385
-0.127257
-0.125002
-0.122629
-0.120146
-0.117561
-0.114883
-0.11212
-0.109279
-0.106369
-0.103397
-0.100372
-0.0973003
-0.094191
-0.0910513
-0.087889
-0.0847116
-0.0815268
-0.0783418
-0.0751641
-0.0720008
-0.0688588
-0.0657447
-0.0626651
-0.059626
-0.0566333
-0.0536924
-0.0508084
-0.047986
-0.0452295
-0.0425426
-0.0399289
-0.0373914
-0.0349326
-0.0325547
-0.0302594
-0.028048
-0.0259216
-0.0238806
-0.0219254
-0.0200558
-0.0182715
-0.0165718
-0.0149558
-0.0134226
-0.0119708
-0.0105991
-0.00930621
-0.00809024
-0.00695124
-0.00588409
-0.00489746
-0.00396773
-0.00314735
-0.00231974
-0.0017422
-0.000867242
-0.000868353
-0.133062
-0.131853
-0.130489
-0.128972
-0.127308
-0.125502
-0.123561
-0.121491
-0.119302
-0.116999
-0.114591
-0.112085
-0.10949
-0.106813
-0.104062
-0.101244
-0.0983681
-0.095441
-0.0924706
-0.0894646
-0.0864307
-0.0833763
-0.080309
-0.0772362
-0.0741652
-0.0711031
-0.0680569
-0.0650333
-0.0620386
-0.0590793
-0.0561611
-0.0532895
-0.0504698
-0.0477069
-0.045005
-0.0423682
-0.0398002
-0.037304
-0.0348824
-0.0325379
-0.0302722
-0.0280869
-0.0259833
-0.0239619
-0.0220234
-0.0201677
-0.0183947
-0.0167039
-0.0150946
-0.0135659
-0.0121168
-0.0107459
-0.00945235
-0.00823358
-0.00709134
-0.0060174
-0.00502662
-0.00408348
-0.00326283
-0.00240582
-0.001847
-0.000897685
-0.000979687
-0.128245
-0.127214
-0.126029
-0.124694
-0.123211
-0.121588
-0.119829
-0.11794
-0.115929
-0.113803
-0.111569
-0.109234
-0.106805
-0.104291
-0.101698
-0.0990343
-0.0963074
-0.0935249
-0.0906943
-0.087823
-0.0849187
-0.0819888
-0.0790407
-0.0760819
-0.0731195
-0.0701607
-0.0672124
-0.0642813
-0.0613739
-0.0584965
-0.055655
-0.0528551
-0.050102
-0.0474006
-0.0447556
-0.042171
-0.0396505
-0.0371977
-0.0348152
-0.0325058
-0.0302714
-0.0281139
-0.0260345
-0.0240341
-0.0221135
-0.0202729
-0.0185123
-0.0168314
-0.0152297
-0.0137063
-0.0122606
-0.0108909
-0.00959716
-0.00837598
-0.0072307
-0.00615026
-0.00515508
-0.004199
-0.0033768
-0.00249212
-0.0019476
-0.000930633
-0.00107869
-0.123444
-0.122583
-0.121571
-0.12041
-0.119103
-0.117656
-0.116073
-0.11436
-0.112523
-0.110569
-0.108505
-0.106337
-0.104073
-0.101719
-0.0992835
-0.096773
-0.094195
-0.091557
-0.0888662
-0.0861302
-0.0833563
-0.0805519
-0.0777243
-0.0748808
-0.0720286
-0.0691747
-0.0663261
-0.0634895
-0.0606713
-0.0578779
-0.0551152
-0.0523889
-0.0497044
-0.0470668
-0.0444806
-0.0419501
-0.0394793
-0.0370717
-0.0347302
-0.0324576
-0.0302563
-0.028128
-0.0260743
-0.0240964
-0.022195
-0.0203707
-0.0186236
-0.0169536
-0.0153603
-0.013843
-0.0124013
-0.0110336
-0.00974006
-0.00851689
-0.00736878
-0.00628217
-0.00528239
-0.00431391
-0.00348889
-0.00257833
-0.00204365
-0.0009659
-0.00116515
-0.118672
-0.117975
-0.117128
-0.116134
-0.114995
-0.113717
-0.112304
-0.110761
-0.109093
-0.107307
-0.105409
-0.103405
-0.101302
-0.0991062
-0.0968256
-0.0944667
-0.0920365
-0.0895422
-0.0869911
-0.0843902
-0.081747
-0.0790686
-0.0763623
-0.0736351
-0.0708943
-0.0681467
-0.0653993
-0.0626587
-0.0599314
-0.0572238
-0.0545417
-0.051891
-0.049277
-0.046705
-0.0441796
-0.0417052
-0.0392859
-0.0369252
-0.0346265
-0.0323925
-0.0302258
-0.0281283
-0.0261019
-0.0241478
-0.022267
-0.0204602
-0.0187277
-0.0170696
-0.0154856
-0.0139753
-0.0125384
-0.0111732
-0.00988042
-0.00865574
-0.00750505
-0.00641265
-0.00540807
-0.00442778
-0.0035987
-0.00266414
-0.00213487
-0.00100325
-0.00123906
-0.113944
-0.113401
-0.112711
-0.111876
-0.110899
-0.109783
-0.108533
-0.107153
-0.105649
-0.104025
-0.102288
-0.100444
-0.098499
-0.096459
-0.094331
-0.0921216
-0.0898376
-0.0874859
-0.0850734
-0.0826073
-0.0800946
-0.0775423
-0.0749576
-0.0723473
-0.0697186
-0.0670784
-0.0644333
-0.06179
-0.0591551
-0.0565347
-0.0539349
-0.0513614
-0.0488198
-0.0463151
-0.0438523
-0.0414357
-0.0390696
-0.0367578
-0.0345035
-0.0323097
-0.0301792
-0.0281142
-0.0261165
-0.0241875
-0.0223286
-0.0205405
-0.0188238
-0.0171786
-0.015605
-0.0141025
-0.012671
-0.0113091
-0.0100176
-0.00879196
-0.00763897
-0.00654121
-0.00553168
-0.00454021
-0.00370586
-0.00274923
-0.00222101
-0.00104239
-0.00130057
-0.10927
-0.108874
-0.108333
-0.107649
-0.106825
-0.105864
-0.10477
-0.103547
-0.1022
-0.100734
-0.0991533
-0.0974644
-0.0956729
-0.0937849
-0.0918064
-0.0897439
-0.087604
-0.0853932
-0.0831182
-0.0807858
-0.0784029
-0.0759764
-0.0735132
-0.0710201
-0.068504
-0.0659716
-0.0634297
-0.0608848
-0.0583433
-0.0558115
-0.0532953
-0.0508006
-0.0483327
-0.045897
-0.0434984
-0.0411414
-0.0388302
-0.0365687
-0.0343605
-0.0322086
-0.0301159
-0.0280848
-0.0261172
-0.0242149
-0.0223791
-0.020611
-0.0189111
-0.01728
-0.0157176
-0.0142238
-0.0127987
-0.0114407
-0.0101511
-0.00892496
-0.00776999
-0.00666734
-0.00565275
-0.00465077
-0.00381002
-0.00283324
-0.00230192
-0.001083
-0.00135001
-0.104663
-0.104403
-0.104003
-0.103461
-0.102783
-0.101969
-0.101024
-0.0999516
-0.0987555
-0.0974405
-0.0960112
-0.0944728
-0.0928307
-0.0910906
-0.0892583
-0.0873399
-0.0853414
-0.0832693
-0.08113
-0.07893
-0.0766759
-0.0743745
-0.0720323
-0.0696561
-0.0672527
-0.0648286
-0.0623903
-0.0599445
-0.0574974
-0.0550551
-0.0526237
-0.0502089