/*--------------------------------*- C++ -*----------------------------------*\
  =========                 |
  \\      /  F ield         | OpenFOAM: The Open Source CFD Toolbox
   \\    /   O peration     | Website:  https://openfoam.org
    \\  /    A nd           | Version:  7
     \\/     M anipulation  |
\*---------------------------------------------------------------------------*/
FoamFile
{
    version     2.0;
    format      ascii;
    class       volScalarField;
    location    "83.99972";
    object      p;
}
// * * * * * * * * * * * * * * * * * * * * * * * * * * * * * * * * * * * * * //

dimensions      [0 2 -2 0 0 0 0];

internalField   nonuniform List<scalar> 
5800
(
-0.226119
-0.226635
-0.227085
-0.227438
-0.227659
-0.227707
-0.227542
-0.227149
-0.2265
-0.218536
-0.220263
-0.221311
-0.222133
-0.222852
-0.223493
-0.224092
-0.224676
-0.225259
-0.225839
-0.226405
-0.226939
-0.227416
-0.227806
-0.228076
-0.228185
-0.228092
-0.227783
-0.227237
-0.219175
-0.220833
-0.221842
-0.222634
-0.223329
-0.223949
-0.224532
-0.225106
-0.225682
-0.226261
-0.226833
-0.227381
-0.227882
-0.228306
-0.228621
-0.228788
-0.228758
-0.228513
-0.228073
-0.220057
-0.221621
-0.222574
-0.223324
-0.223982
-0.224571
-0.225129
-0.225682
-0.226244
-0.226815
-0.227387
-0.227943
-0.228461
-0.228915
-0.22927
-0.229491
-0.229516
-0.229304
-0.229013
-0.221161
-0.222607
-0.223491
-0.224186
-0.224796
-0.225343
-0.225864
-0.226387
-0.226925
-0.227478
-0.228041
-0.228597
-0.229126
-0.229602
-0.229991
-0.230259
-0.230335
-0.230101
-0.230077
-0.222459
-0.22377
-0.224572
-0.225201
-0.22575
-0.226244
-0.226717
-0.227197
-0.227698
-0.228223
-0.228766
-0.229311
-0.229842
-0.230331
-0.230743
-0.231049
-0.231188
-0.230823
-0.231303
-0.227849
-0.223923
-0.225086
-0.225796
-0.226347
-0.226825
-0.227251
-0.227662
-0.228085
-0.228537
-0.229019
-0.229528
-0.23005
-0.230569
-0.231059
-0.231482
-0.23181
-0.23205
-0.23135
-0.232725
-0.227387
-0.225524
-0.226532
-0.22714
-0.227604
-0.227997
-0.228342
-0.228675
-0.229026
-0.229411
-0.229834
-0.230293
-0.230776
-0.231267
-0.231744
-0.232161
-0.232474
-0.232891
-0.231601
-0.234197
-0.226825
-0.227235
-0.228084
-0.228586
-0.228952
-0.229246
-0.229494
-0.229733
-0.229993
-0.230292
-0.230637
-0.231027
-0.231452
-0.231897
-0.232341
-0.232738
-0.232983
-0.233589
-0.231927
-0.235091
-0.226249
-0.22903
-0.229724
-0.230113
-0.230372
-0.230555
-0.230689
-0.230814
-0.230962
-0.231154
-0.2314
-0.2317
-0.232046
-0.232422
-0.232811
-0.233167
-0.233365
-0.23402
-0.231975
-0.235957
-0.225236
-0.230891
-0.231437
-0.231711
-0.231852
-0.231908
-0.231911
-0.231901
-0.231915
-0.231976
-0.232099
-0.232286
-0.23253
-0.232815
-0.233125
-0.233417
-0.233514
-0.234278
-0.231602
-0.236699
-0.223843
-0.232807
-0.233213
-0.233369
-0.233383
-0.233298
-0.233149
-0.232982
-0.232837
-0.232744
-0.23272
-0.232769
-0.232887
-0.233058
-0.233265
-0.233472
-0.23341
-0.234329
-0.23084
-0.23714
-0.222231
-0.234775
-0.235053
-0.235087
-0.234963
-0.23472
-0.234399
-0.234052
-0.233725
-0.233452
-0.233255
-0.233143
-0.233113
-0.233147
-0.233225
-0.233329
-0.23306
-0.234108
-0.229785
-0.237025
-0.220662
-0.236802
-0.236961
-0.236871
-0.236596
-0.236179
-0.235664
-0.235114
-0.234579
-0.234101
-0.233709
-0.233413
-0.233212
-0.23309
-0.233015
-0.232991
-0.232493
-0.23354
-0.228586
-0.236041
-0.219354
-0.238904
-0.238954
-0.238734
-0.238294
-0.237683
-0.236955
-0.236177
-0.235411
-0.234706
-0.234095
-0.233596
-0.233206
-0.232906
-0.232656
-0.232467
-0.231744
-0.232551
-0.227366
-0.233946
-0.218259
-0.241111
-0.241056
-0.240694
-0.240077
-0.239253
-0.238289
-0.237261
-0.236242
-0.235288
-0.234441
-0.233719
-0.233122
-0.232627
-0.232177
-0.231769
-0.230826
-0.231096
-0.226121
-0.230751
-0.217006
-0.243461
-0.243294
-0.242782
-0.241969
-0.240912
-0.23969
-0.238392
-0.2371
-0.235881
-0.23478
-0.233821
-0.233
-0.232286
-0.231604
-0.230907
-0.229717
-0.229187
-0.224665
-0.226723
-0.215123
-0.246
-0.24571
-0.245032
-0.244002
-0.242691
-0.241192
-0.239605
-0.238024
-0.236523
-0.235156
-0.233945
-0.232879
-0.231913
-0.230953
-0.229885
-0.228355
-0.226859
-0.222718
-0.222142
-0.212356
-0.248784
-0.248349
-0.247483
-0.246214
-0.244627
-0.242831
-0.240938
-0.239054
-0.23726
-0.235614
-0.234133
-0.232797
-0.231533
-0.230222
-0.228685
-0.226665
-0.224143
-0.220064
-0.217051
-0.20879
-0.25187
-0.251259
-0.250179
-0.248647
-0.246762
-0.24465
-0.242437
-0.240237
-0.23814
-0.236199
-0.234426
-0.232778
-0.231152
-0.229393
-0.227272
-0.224591
-0.221058
-0.216631
-0.211432
-0.20471
-0.255319
-0.254492
-0.253167
-0.251344
-0.249138
-0.246692
-0.244145
-0.241619
-0.239206
-0.236953
-0.234853
-0.232835
-0.230758
-0.22843
-0.225598
-0.222104
-0.217611
-0.212494
-0.205779
-0.200008
-0.259195
-0.2581
-0.256493
-0.254351
-0.2518
-0.249003
-0.24611
-0.243247
-0.240501
-0.237907
-0.23543
-0.23296
-0.230319
-0.227291
-0.223621
-0.219209
-0.21379
-0.207788
-0.200529
-0.19397
-0.263554
-0.262132
-0.260204
-0.257713
-0.254794
-0.251629
-0.248376
-0.24516
-0.242058
-0.239079
-0.236152
-0.233127
-0.229791
-0.225927
-0.221316
-0.215932
-0.2096
-0.202824
-0.195003
-0.187814
-0.268451
-0.266636
-0.264346
-0.261474
-0.258163
-0.254612
-0.250984
-0.247395
-0.2439
-0.240473
-0.236999
-0.23329
-0.229122
-0.224298
-0.218674
-0.212303
-0.205127
-0.197636
-0.189369
-0.181785
-0.273933
-0.271657
-0.268962
-0.265677
-0.26195
-0.257995
-0.253972
-0.249978
-0.246036
-0.242073
-0.23793
-0.233395
-0.228256
-0.222374
-0.215702
-0.208373
-0.20042
-0.192312
-0.183664
-0.175757
-0.280042
-0.277231
-0.274089
-0.270362
-0.266196
-0.261816
-0.25737
-0.252925
-0.248457
-0.243843
-0.238888
-0.233376
-0.227144
-0.220139
-0.212418
-0.204182
-0.19553
-0.186884
-0.177898
-0.169756
-0.286807
-0.283392
-0.279761
-0.275564
-0.270936
-0.266107
-0.261198
-0.256235
-0.251135
-0.245728
-0.239799
-0.233165
-0.225742
-0.217583
-0.208844
-0.199766
-0.190487
-0.181363
-0.172084
-0.163721
-0.29425
-0.290162
-0.286008
-0.281316
-0.276202
-0.27089
-0.265463
-0.259886
-0.254018
-0.247651
-0.240583
-0.232696
-0.224017
-0.214706
-0.204997
-0.195146
-0.185301
-0.175748
-0.166203
-0.157637
-0.302379
-0.297556
-0.292848
-0.287639
-0.282013
-0.276173
-0.270148
-0.263832
-0.25703
-0.249521
-0.241151
-0.231909
-0.221943
-0.21151
-0.20089
-0.190329
-0.179969
-0.170022
-0.160237
-0.151474
-0.311187
-0.305575
-0.300287
-0.294542
-0.288373
-0.281943
-0.275212
-0.268
-0.260072
-0.251232
-0.241417
-0.23075
-0.219499
-0.207991
-0.196522
-0.185309
-0.174477
-0.164165
-0.154163
-0.145211
-0.32065
-0.314202
-0.308318
-0.302019
-0.295264
-0.288161
-0.280583
-0.272285
-0.263024
-0.252671
-0.241299
-0.229174
-0.216667
-0.204142
-0.191882
-0.18007
-0.1688
-0.158151
-0.147954
-0.138822
-0.330715
-0.323402
-0.316912
-0.310039
-0.302642
-0.294752
-0.286154
-0.276556
-0.265749
-0.253726
-0.240721
-0.227141
-0.213425
-0.199945
-0.186953
-0.174587
-0.162912
-0.151953
-0.141584
-0.132285
-0.34131
-0.333114
-0.326014
-0.318541
-0.310426
-0.301606
-0.291784
-0.280657
-0.268104
-0.254287
-0.239615
-0.224609
-0.209746
-0.195375
-0.181705
-0.168829
-0.156783
-0.145544
-0.135028
-0.125578
-0.352328
-0.343249
-0.335538
-0.327431
-0.318499
-0.308575
-0.297302
-0.284415
-0.269943
-0.254251
-0.237916
-0.221539
-0.205598
-0.190401
-0.176106
-0.162764
-0.15038
-0.138895
-0.128259
-0.118679
-0.363631
-0.353685
-0.345366
-0.336577
-0.326703
-0.315474
-0.30251
-0.287648
-0.271126
-0.253525
-0.235564
-0.217887
-0.200943
-0.184986
-0.17012
-0.156357
-0.143672
-0.13198
-0.121255
-0.111567
-0.375043
-0.364266
-0.355343
-0.345808
-0.334841
-0.322085
-0.307193
-0.290175
-0.271517
-0.252017
-0.232498
-0.213605
-0.195739
-0.179089
-0.163709
-0.149574
-0.136629
-0.124771
-0.11399
-0.104225
-0.386358
-0.374801
-0.365273
-0.354912
-0.342679
-0.328167
-0.311128
-0.291815
-0.270992
-0.249644
-0.228657
-0.208644
-0.189939
-0.172668
-0.156833
-0.142379
-0.129222
-0.117245
-0.106444
-0.0966334
-0.397331
-0.385064
-0.374926
-0.363639
-0.349954
-0.33346
-0.314091
-0.292401
-0.269434
-0.246326
-0.22398
-0.202951
-0.183496
-0.165679
-0.149456
-0.13474
-0.121423
-0.109378
-0.0985935
-0.0887772
-0.407692
-0.394796
-0.384037
-0.371711
-0.35638
-0.337699
-0.315865
-0.291776
-0.266736
-0.241987
-0.218406
-0.196472
-0.176363
-0.15808
-0.14154
-0.126626
-0.113209
-0.10115
-0.0904232
-0.0806467
-0.41714
-0.403711
-0.392313
-0.378824
-0.36166
-0.340622
-0.316248
-0.289796
-0.2628
-0.236552
-0.211875
-0.189156
-0.168494
-0.149833
-0.133053
-0.118011
-0.104556
-0.0925426
-0.0819209
-0.0722412
-0.42536
-0.4115
-0.399438
-0.384659
-0.365494
-0.341979
-0.315053
-0.286334
-0.257535
-0.229954
-0.204329
-0.180952
-0.159845
-0.140901
-0.123964
-0.108869
-0.0954452
-0.0835394
-0.0730781
-0.0635655
-0.432021
-0.417841
-0.405085
-0.388894
-0.367593
-0.341539
-0.312115
-0.281277
-0.250861
-0.222128
-0.195716
-0.171816
-0.150379
-0.131252
-0.114249
-0.0991814
-0.0858591
-0.0741241
-0.0638833
-0.0546136
-0.436792
-0.422403
-0.408923
-0.391214
-0.367683
-0.339093
-0.30729
-0.274526
-0.242707
-0.21302
-0.185987
-0.161706
-0.140062
-0.12086
-0.103887
-0.0889312
-0.0757844
-0.0642844
-0.054321
-0.0453509
-0.439348
-0.424862
-0.410631
-0.39132
-0.36552
-0.334462
-0.300459
-0.266002
-0.233014
-0.202579
-0.175102
-0.15059
-0.128868
-0.109705
-0.0928618
-0.0781067
-0.0652114
-0.054017
-0.0443884
-0.0357018
-0.439379
-0.424907
-0.409903
-0.388941
-0.360888
-0.327499
-0.291524
-0.255639
-0.221733
-0.190768
-0.163031
-0.138443
-0.116778
-0.0977711
-0.0811624
-0.0666987
-0.0541361
-0.0433265
-0.0341136
-0.0256096
-0.436598
-0.422248
-0.406464
-0.38384
-0.353612
-0.318089
-0.280416
-0.243392
-0.208831
-0.177559
-0.14975
-0.125247
-0.103777
-0.0850493
-0.0687823
-0.0547026
-0.0425681
-0.0322219
-0.0235013
-0.0151891
-0.430754
-0.416629
-0.400073
-0.375818
-0.343553
-0.306147
-0.267088
-0.229232
-0.194286
-0.162937
-0.135247
-0.110993
-0.0898599
-0.0715382
-0.0557316
-0.0421279
-0.0305337
-0.0207403
-0.0124335
-0.00460521
-0.421633
-0.407831
-0.390533
-0.364725
-0.330619
-0.291628
-0.251518
-0.21315
-0.178095
-0.146895
-0.119515
-0.0956757
-0.0750418
-0.0572549
-0.0420392
-0.0290218
-0.0180188
-0.00884731
-0.00100297
0.006203
-0.409067
-0.395683
-0.377697
-0.350457
-0.314756
-0.274515
-0.23371
-0.195154
-0.160262
-0.129438
-0.102572
-0.0793165
-0.0593639
-0.0422407
-0.0276927
-0.0153697
-0.0050531
0.00344437
0.0107417
0.0172597
-0.392941
-0.380062
-0.361466
-0.33296
-0.295954
-0.254826
-0.213692
-0.17527
-0.140808
-0.110601
-0.0844723
-0.0619897
-0.0428031
-0.0264899
-0.0127301
-0.00119644
0.00834329
0.0161059
0.0227759
0.0285571
-0.373191
-0.3609
-0.341798
-0.31223
-0.274244
-0.232613
-0.191518
-0.153543
-0.119783
-0.0904707
-0.0652291
-0.0436818
-0.0254195
-0.0100377
0.00281651
0.0134653
0.0221435
0.0291052
0.0350785
0.0400707
-0.349808
-0.338184
-0.318704
-0.288311
-0.249701
-0.207959
-0.167262
-0.130054
-0.0972993
-0.0690374
-0.0448952
-0.0244456
-0.00725818
0.00707061
0.0189083
0.0285776
0.0363139
0.0424087
0.0476204
0.0517671
-0.322842
-0.311956
-0.29225
-0.261302
-0.222444
-0.180964
-0.141021
-0.104902
-0.0733845
-0.0463974
-0.023537
-0.00434365
0.0116267
0.0247832
0.0354995
0.0440979
0.0508151
0.0559791
0.0603659
0.0636062
-0.292394
-0.28231
-0.26256
-0.231359
-0.192607
-0.151733
-0.112923
-0.0781835
-0.0481418
-0.022638
-0.00123388
0.0165515
0.031172
0.0430419
0.0525374
0.0599778
0.0656036
0.0697771
0.073277
0.0755465
-0.258621
-0.249397
-0.229813
-0.198656
-0.16028
-0.120459
-0.0831146
-0.0500256
-0.0216862
0.00214042
0.0219238
0.0381585
0.0513051
0.0617812
0.0699625
0.0761631
0.0806313
0.0837639
0.0863204
0.0875535
-0.221709
-0.213426
-0.194223
-0.163279
-0.125697
-0.0873616
-0.0517629
-0.0205746
0.00585313
0.0278246
0.0458345
0.0603867
0.0719452
0.080929
0.0877092
0.0925938
0.095847
0.0979009
0.0994599
0.0995841
-0.181845
-0.174687
-0.155938
-0.125417
-0.0892333
-0.0526277
-0.0190515
0.0100079
0.0343343
0.0542891
0.0703868
0.0831368
0.0930044
0.100407
0.105707
0.109207
0.111201
0.112146
0.112621
0.111496
-0.13926
-0.133502
-0.115044
-0.0856724
-0.0510652
-0.016482
0.01482
0.0415471
0.063603
0.0813975
0.0954596
0.106301
0.114388
0.12013
0.12388
0.125943
0.126652
0.126446
0.12564
0.122948
-0.0942895
-0.0900415
-0.0722608
-0.0441979
-0.0114555
0.0208338
0.0496396
0.0738561
0.0934941
0.109003
0.120923
0.129766
0.135993
0.140009
0.142153
0.142745
0.14216
0.140725
0.138307
0.133668
-0.0476463
-0.0445305
-0.0278202
-0.00129412
0.0293102
0.0590651
0.085183
0.106737
0.123833
0.136953
0.146641
0.15341
0.157715
0.159948
0.160445
0.159549
0.157656
0.154871
0.150583
0.144296
0.000558352
0.00249479
0.0179516
0.0427039
0.0709292
0.0979451
0.121216
0.139984
0.154437
0.165083
0.172471
0.177107
0.17944
0.179852
0.178675
0.176276
0.173025
0.168746
0.162581
0.156846
0.0499365
0.0506143
0.0646815
0.087447
0.113088
0.137197
0.157495
0.173381
0.185116
0.193227
0.198263
0.200726
0.201053
0.199619
0.196756
0.192835
0.188153
0.182353
0.174847
0.169346
0.100054
0.0994233
0.111978
0.132576
0.155465
0.176539
0.193771
0.20671
0.215677
0.221214
0.223868
0.224133
0.222438
0.219148
0.214595
0.20914
0.203003
0.19577
0.187208
0.181339
0.150476
0.148506
0.15944
0.177725
0.197734
0.215684
0.229793
0.239748
0.245923
0.248869
0.249131
0.247193
0.243476
0.238334
0.232097
0.225105
0.217519
0.208951
0.199446
0.1929
0.200764
0.197441
0.206667
0.222528
0.239571
0.254345
0.265307
0.272272
0.275655
0.276018
0.273897
0.26977
0.264045
0.25707
0.249166
0.240652
0.231647
0.221816
0.211385
0.203996
0.25048
0.245804
0.253257
0.266621
0.280652
0.292235
0.300061
0.304057
0.304677
0.302486
0.298014
0.291728
0.284028
0.275251
0.265711
0.255701
0.245319
0.234283
0.222935
0.214619
0.29919
0.293173
0.298816
0.309645
0.320657
0.329074
0.333807
0.334885
0.332794
0.3281
0.321327
0.312933
0.303304
0.292772
0.281637
0.270174
0.258462
0.246274
0.234019
0.224735
0.346468
0.339137
0.342958
0.351252
0.359276
0.364587
0.366301
0.36454
0.359815
0.352693
0.34369
0.333253
0.32176
0.309531
0.296857
0.283991
0.271007
0.257718
0.244578
0.234307
0.391901
0.383294
0.385308
0.391103
0.39621
0.398509
0.397309
0.392814
0.385556
0.376101
0.364957
0.352561
0.339281
0.325429
0.311282
0.297077
0.282881
0.26855
0.254556
0.243295
0.435092
0.425262
0.42551
0.428876
0.431171
0.430586
0.426605
0.419506
0.409839
0.398167
0.38499
0.370735
0.355762
0.340372
0.32483
0.309358
0.294021
0.278711
0.263899
0.251664
0.475663
0.464675
0.463224
0.464265
0.463888
0.460576
0.453976
0.444428
0.432497
0.418742
0.403657
0.387659
0.371099
0.354268
0.337421
0.320765
0.304363
0.288145
0.272561
0.259378
0.51326
0.501191
0.498133
0.496984
0.494108
0.488255
0.479221
0.467401
0.453371
0.437688
0.420836
0.403225
0.385197
0.367034
0.348981
0.331231
0.31385
0.296799
0.280495
0.266406
0.547557
0.534494
0.529944
0.526771
0.521595
0.513414
0.502156
0.488262
0.472317
0.454875
0.436412
0.417332
0.397967
0.378592
0.359441
0.340697
0.322428
0.304625
0.28766
0.27272
0.578254
0.564297
0.558391
0.553385
0.546136
0.535865
0.522613
0.506861
0.489202
0.470185
0.450282
0.429888
0.409328
0.388871
0.368739
0.349107
0.330049
0.311579
0.294019
0.278294
0.605085
0.590342
0.583235
0.576612
0.567541
0.555438
0.54044
0.523064
0.503907
0.483515
0.462353
0.440811
0.419208
0.397806
0.37682
0.356413
0.336668
0.317621
0.299538
0.283107
0.627817
0.612406
0.604272
0.596267
0.585645
0.571986
0.555508
0.536754
0.516328
0.494771
0.472544
0.45003
0.427545
0.405343
0.383633
0.362572
0.342248
0.322715
0.304188
0.287143
0.646253
0.630298
0.621324
0.612192
0.600308
0.585384
0.567704
0.547834
0.526378
0.503876
0.480785
0.457485
0.434284
0.411435
0.389139
0.367548
0.346756
0.326833
0.307942
0.290389
0.660235
0.643866
0.63425
0.62426
0.611416
0.595531
0.576941
0.556223
0.533987
0.510769
0.487023
0.463126
0.439383
0.416044
0.393303
0.371311
0.350165
0.329948
0.310781
0.292834
0.669641
0.652993
0.642944
0.632374
0.618883
0.602352
0.583149
0.561861
0.5391
0.5154
0.491214
0.466916
0.442809
0.41914
0.396102
0.373839
0.352457
0.332042
0.31269
0.294474
0.468831
0.444541
0.420705
0.397516
0.375118
0.353617
0.333103
0.313657
0.295304
-0.233762
-0.233612
-0.232864
-0.231438
-0.233242
-0.229382
-0.231627
-0.230802
-0.226759
-0.229123
-0.228706
-0.223595
-0.225756
-0.225777
-0.225582
-0.219821
-0.221616
-0.222074
-0.222214
-0.215475
-0.216916
-0.21772
-0.218124
-0.218458
-0.210935
-0.212053
-0.212922
-0.213435
-0.213973
-0.214491
-0.206653
-0.207458
-0.207878
-0.208157
-0.208682
-0.209259
-0.200754
-0.203126
-0.203748
-0.204218
-0.204897
-0.205584
-0.206141
-0.195741
-0.198641
-0.19934
-0.199806
-0.200553
-0.201341
-0.201989
-0.190797
-0.194007
-0.194662
-0.195078
-0.195873
-0.196751
-0.19748
-0.185865
-0.189224
-0.189865
-0.19027
-0.191116
-0.192077
-0.192881
-0.180787
-0.184301
-0.184996
-0.185424
-0.186319
-0.18735
-0.188226
-0.175599
-0.179287
-0.18008
-0.180549
-0.181487
-0.182581
-0.183525
-0.170397
-0.174224
-0.175132
-0.175657
-0.176639
-0.177791
-0.1788
-0.165212
-0.169138
-0.17017
-0.170765
-0.171793
-0.172999
-0.174071
-0.16006
-0.164057
-0.165211
-0.165884
-0.16696
-0.168219
-0.169352
-0.154959
-0.159002
-0.160273
-0.161026
-0.162153
-0.163462
-0.164654
-0.149923
-0.15399
-0.155368
-0.156202
-0.157378
-0.158736
-0.159984
-0.144956
-0.149032
-0.150506
-0.151419
-0.152645
-0.154048
-0.15535
-0.140064
-0.144136
-0.145699
-0.146687
-0.14796
-0.149407
-0.150759
-0.135254
-0.139311
-0.140953
-0.142013
-0.143331
-0.144818
-0.146217
-0.130534
-0.134563
-0.136277
-0.137404
-0.138764
-0.140288
-0.141731
-0.125909
-0.1299
-0.131678
-0.132868
-0.134267
-0.135824
-0.137306
-0.121387
-0.125328
-0.127163
-0.12841
-0.129844
-0.13143
-0.132947
-0.116972
-0.120855
-0.122736
-0.124036
-0.125501
-0.127111
-0.128659
-0.112668
-0.116485
-0.118404
-0.119751
-0.121242
-0.122872
-0.124446
-0.108478
-0.112222
-0.11417
-0.115557
-0.11707
-0.118716
-0.120312
-0.104402
-0.108068
-0.110037
-0.111458
-0.11299
-0.114647
-0.11626
-0.100443
-0.104026
-0.106007
-0.107457
-0.109002
-0.110667
-0.112293
-0.0965996
-0.100096
-0.102084
-0.103556
-0.10511
-0.106778
-0.108413
-0.0928727
-0.0962799
-0.0982667
-0.0997558
-0.101315
-0.102983
-0.104623
-0.0892623
-0.0925775
-0.0945579
-0.0960588
-0.0976199
-0.0992838
-0.100924
-0.0857678
-0.088989
-0.0909576
-0.0924658
-0.0940246
-0.0956811
-0.0973177
-0.0823887
-0.0855143
-0.0874663
-0.0889772
-0.0905304
-0.0921761
-0.0938059
-0.0791241
-0.0821529
-0.0840838
-0.0855934
-0.0871378
-0.0887698
-0.0903894
-0.0759726
-0.0789042
-0.08081
-0.0823144
-0.083847
-0.0854625
-0.0870688
-0.0729329
-0.0757669
-0.0776442
-0.0791399
-0.080658
-0.0822545
-0.0838446
-0.0700032
-0.0727399
-0.0745855
-0.0760692
-0.0775705
-0.0791455
-0.0807169
-0.0671817
-0.0698216
-0.0716328
-0.0731016
-0.0745837
-0.0761354
-0.0776856
-0.0644661
-0.0670102
-0.0687847
-0.0702361
-0.071697
-0.0732233
-0.0747504
-0.0618543
-0.0643038
-0.0660397
-0.0674713
-0.0689092
-0.0704087
-0.0719106
-0.0593441
-0.0617005
-0.0633961
-0.0648058
-0.0662192
-0.0676904
-0.0691657
-0.056933
-0.059198
-0.0608521
-0.0622382
-0.0636257
-0.0650674
-0.0665145
-0.0546187
-0.0567942
-0.0584058
-0.0597666
-0.0611271
-0.0625384
-0.0639562
-0.0523986
-0.0544867
-0.0560551
-0.0573895
-0.058722
-0.060102
-0.0614895
-0.0502703
-0.0522732
-0.053798
-0.0551048
-0.0564086
-0.0577567
-0.0591131
-0.0482314
-0.0501513
-0.0516323
-0.0529107
-0.0541851
-0.055501
-0.0568257
-0.0462794
-0.0481188
-0.0495559
-0.0508052
-0.0520499
-0.0533332
-0.0546257
-0.0444118
-0.0461733
-0.0475667
-0.0487865
-0.0500012
-0.0512517
-0.0525118
-0.0426264
-0.0443125
-0.0456626
-0.0468525
-0.048037
-0.0492548
-0.0504824
-0.0409208
-0.0425341
-0.0438413
-0.0450012
-0.0461555
-0.0473408
-0.0485359
-0.0392928
-0.0408359
-0.0421009
-0.0432308
-0.0443551
-0.045508
-0.0466708
-0.0377402
-0.0392157
-0.0404394
-0.0415393
-0.0426338
-0.0437548
-0.0448855
-0.0362609
-0.0376715
-0.0388546
-0.039925
-0.04099
-0.0420795
-0.0431785
-0.034853
-0.0362013
-0.0373448
-0.0383859
-0.0394219
-0.0404805
-0.0415483
-0.0335144
-0.0348032
-0.0359081
-0.0369204
-0.037928
-0.0389562
-0.0399935
-0.0322434
-0.0334752
-0.0345427
-0.0355268
-0.0365066
-0.0375052
-0.0385126
-0.0310384
-0.0322158
-0.0332471
-0.0342037
-0.0351562
-0.0361261
-0.0371044
-0.0298976
-0.0310232
-0.0320197
-0.0329494
-0.0338756
-0.0348176
-0.0357676
-0.0288196
-0.0298961
-0.0308589
-0.0317627
-0.0326633
-0.0335783
-0.034501
-0.0278031
-0.028833
-0.0297636
-0.0306422
-0.0315182
-0.0324073
-0.0333036
-0.0268468
-0.0278327
-0.0287325
-0.029587
-0.0304393
-0.0313035
-0.0321744
-0.0259497
-0.0268941
-0.0277646
-0.0285959
-0.0294256
-0.0302659
-0.0311126
-0.0251107
-0.0260162
-0.0268589
-0.0276682
-0.0284763
-0.029294
-0.0301176
-0.0243293
-0.0251983
-0.0260148
-0.0268032
-0.0275909
-0.0283871
-0.0291889
-0.0236046
-0.0244397
-0.0252317
-0.0260003
-0.0267687
-0.0275448
-0.028326
-0.0229364
-0.0237401
-0.0245091
-0.0252593
-0.0260097
-0.0267669
-0.0275289
-0.0223242
-0.0230991
-0.0238469
-0.02458
-0.0253137
-0.0260534
-0.0267975
-0.0217683
-0.0225169
-0.0232452
-0.0239625
-0.0246808
-0.0254045
-0.0261322
-0.0212687
-0.0219936
-0.0227043
-0.0234072
-0.0241116
-0.0248207
-0.0255336
-0.0208259
-0.0215298
-0.0222247
-0.0229148
-0.0236067
-0.0243028
-0.0250023
-0.0204407
-0.0211262
-0.0218074
-0.0224862
-0.0231672
-0.0238519
-0.0245397
-0.0201143
-0.0207842
-0.0214536
-0.0221228
-0.0227945
-0.0234695
-0.0241474
-0.0198478
-0.0205051
-0.0211649
-0.0218263
-0.0224903
-0.0231574
-0.0238271
-0.0196433
-0.0202907
-0.0209431
-0.0215985
-0.0222567
-0.0229177
-0.0235813
-0.0195046
-0.0201454
-0.0207928
-0.021444
-0.0220982
-0.022755
-0.0234142
-0.0194276
-0.020066
-0.0207117
-0.0213616
-0.0220142
-0.0226693
-0.0233267
-0.0665696
-0.0747459
-0.0826991
-0.0904308
-0.0979489
-0.105265
-0.112392
-0.119345
-0.126139
-0.132791
-0.139319
-0.145738
-0.152064
-0.158309
-0.164483
-0.170591
-0.176604
-0.182678
-0.188358
-0.195522
-0.0636038
-0.0715247
-0.0792426
-0.0867637
-0.0940965
-0.101251
-0.108239
-0.115073
-0.121765
-0.128329
-0.134779
-0.141127
-0.147385
-0.153564
-0.159662
-0.165728
-0.171634
-0.177872
-0.183368
-0.191001
-0.0607707
-0.0683898
-0.0758226
-0.0830776
-0.0901632
-0.0970883
-0.103863
-0.110496
-0.117
-0.123386
-0.129664
-0.135846
-0.14194
-0.147971
-0.153915
-0.159906
-0.165691
-0.172026
-0.177482
-0.185027
-0.0580515
-0.0653961
-0.0725739
-0.0795929
-0.0864605
-0.0931851
-0.099775
-0.10624
-0.112589
-0.118834
-0.124982
-0.131051
-0.13704
-0.142997
-0.148866
-0.154857
-0.160592
-0.166946
-0.172451
-0.179616
-0.0554639
-0.0625522
-0.0694933
-0.0762939
-0.0829612
-0.0895031
-0.0959278
-0.102245
-0.108462
-0.114592
-0.12064
-0.126629
-0.13255
-0.138468
-0.144287
-0.150265
-0.15594
-0.16219
-0.167699
-0.174381
-0.0530068
-0.0598467
-0.0665563
-0.0731417
-0.0796095
-0.0859679
-0.0922244
-0.0983885
-0.104467
-0.110474
-0.116411
-0.122305
-0.128134
-0.133978
-0.139704
-0.145596
-0.151178
-0.157241
-0.162751
-0.169064
-0.0506697
-0.0572671
-0.0637491
-0.0701208
-0.0763885
-0.0825601
-0.0886425
-0.094645
-0.100573
-0.106441
-0.112246
-0.118019
-0.123724
-0.129455
-0.135062
-0.140826
-0.146328
-0.152207
-0.157752
-0.163813
-0.048444
-0.0548057
-0.0610649
-0.0672264
-0.0732959
-0.0792807
-0.0851869
-0.0910236
-0.0967946
-0.102514
-0.108177
-0.113815
-0.119388
-0.124993
-0.130487
-0.136123
-0.141567
-0.147281
-0.152831
-0.158674
-0.0463234
-0.0524566
-0.0584987
-0.0644543
-0.0703284
-0.076128
-0.0818585
-0.0875286
-0.0931407
-0.0987098
-0.104227
-0.109729
-0.115172
-0.12065
-0.126038
-0.131542
-0.136919
-0.142462
-0.147958
-0.153609
-0.0443027
-0.0502143
-0.0560449
-0.0617989
-0.0674809
-0.0730974
-0.0786532
-0.0841569
-0.0896097
-0.0950269
-0.100399
-0.105761
-0.111074
-0.116418
-0.121695
-0.127052
-0.132338
-0.137711
-0.143121
-0.148613
-0.0423767
-0.0480734
-0.053698
-0.0592549
-0.0647482
-0.070184
-0.0755664
-0.080904
-0.0861973
-0.0914611
-0.0966864
-0.101904
-0.107082
-0.112284
-0.117439
-0.122644
-0.127822
-0.13304
-0.138348
-0.143696
-0.0405401
-0.0460286
-0.051453
-0.0568174
-0.0621254
-0.067383
-0.0725939
-0.0777661
-0.0829
-0.088009
-0.0930857
-0.0981555
-0.103195
-0.108249
-0.113277
-0.118333
-0.123395
-0.128467
-0.133657
-0.13886
-0.0387885
-0.0440752
-0.049305
-0.0544815
-0.0596082
-0.0646906
-0.0697321
-0.07474
-0.079715
-0.0846687
-0.0895958
-0.0945161
-0.0994152
-0.104322
-0.109219
-0.114129
-0.119065
-0.123993
-0.129051
-0.134106
-0.0371172
-0.0422087
-0.0472495
-0.052243
-0.0571923
-0.0621026
-0.0669772
-0.0718226
-0.0766398
-0.0814386
-0.0862162
-0.090987
-0.0957446
-0.100505
-0.105267
-0.110032
-0.114833
-0.119615
-0.124536
-0.129443
-0.0355219
-0.0404247
-0.0452823
-0.0500976
-0.0548737
-0.0596154
-0.0643259
-0.0690109
-0.073672
-0.078317
-0.0829456
-0.0875675
-0.0921822
-0.0967968
-0.10142
-0.106039
-0.110702
-0.11534
-0.120122
-0.124878
-0.0339987
-0.0387191
-0.0433991
-0.0480412
-0.0526485
-0.0572253
-0.0617748
-0.0663019
-0.0708089
-0.0753017
-0.079782
-0.0842559
-0.0887269
-0.093196
-0.0976781
-0.102154
-0.106677
-0.111171
-0.115811
-0.120417
-0.0325444
-0.0370886
-0.0415963
-0.0460701
-0.0505129
-0.0549287
-0.0593206
-0.0636927
-0.0680478
-0.0723904
-0.0767236
-0.0810508
-0.0853781
-0.089703
-0.0940438
-0.0983771
-0.102759
-0.10711
-0.111606
-0.116064
-0.031155
-0.0355292
-0.0398701
-0.0441805
-0.0484634
-0.0527223
-0.05696
-0.0611802
-0.065386
-0.0695808
-0.0737684
-0.0779508
-0.0821354
-0.0863175
-0.0905171
-0.0947087
-0.0989491
-0.103158
-0.107509
-0.111822
-0.0298275
-0.0340378
-0.0382171
-0.0423692
-0.0464967
-0.0506027
-0.0546899
-0.0587615
-0.0628208
-0.0668704
-0.0709147
-0.0749543
-0.0789977
-0.0830386
-0.0870976
-0.0911487
-0.0952479
-0.0993167
-0.103523
-0.107693
-0.0285599
-0.0326117
-0.0366346
-0.040633
-0.0446096
-0.0485667
-0.0525072
-0.0564337
-0.0603495
-0.0642569
-0.0681602
-0.0720595
-0.0759633
-0.0798649
-0.0837847
-0.0876969
-0.091656
-0.0955859
-0.0996477
-0.103676
-0.0273502
-0.0312483
-0.0351198
-0.0389692
-0.0427991
-0.0466115
-0.050409
-0.054194
-0.0579696
-0.0617377
-0.0655027
-0.0692643
-0.0730307
-0.0767953
-0.0805777
-0.084353
-0.088173
-0.0919658
-0.0958841
-0.0997718
-0.0261942
-0.0299439
-0.0336693
-0.0373746
-0.0410622
-0.044734
-0.0483924
-0.0520395
-0.0556783
-0.0593104
-0.0629401
-0.0665667
-0.0701983
-0.0738283
-0.0774754
-0.0811158
-0.0847987
-0.0884561
-0.0922325
-0.095981
-0.0250898
-0.0286962
-0.0322804
-0.0358463
-0.039396
-0.0429314
-0.0464546
-0.0499676
-0.0534731
-0.0569725
-0.0604699
-0.0639646
-0.0674641
-0.0709622
-0.0744763
-0.0779844
-0.0815322
-0.0850562
-0.088693
-0.0923036
-0.0240348
-0.0275029
-0.0309507
-0.0343816
-0.0377978
-0.0412009
-0.0445929
-0.0479755
-0.0513513
-0.0547215
-0.0580899
-0.0614557
-0.0648261
-0.0681952
-0.0715791
-0.0749574
-0.0783727
-0.0817656
-0.0852653
-0.0887397
-0.0230269
-0.0263614
-0.0296774
-0.032978
-0.0362649
-0.0395399
-0.0428046
-0.0460606
-0.0493104
-0.0525549
-0.0557976
-0.0590379
-0.0622823
-0.0655254
-0.0687821
-0.0720333
-0.0753191
-0.0785833
-0.0819488
-0.0852892
-0.0220637
-0.0252694
-0.0284583
-0.0316328
-0.0347949
-0.0379458
-0.0410872
-0.0442205
-0.0473478
-0.0504702
-0.0535907
-0.0567089
-0.0598306
-0.0629508
-0.0660834
-0.0692106
-0.0723698
-0.0755082
-0.0787424
-0.0819515
-0.0211432
-0.0242249
-0.027291
-0.0303439
-0.0333852
-0.0364161
-0.0394382
-0.0424525
-0.0454612
-0.048465
-0.0514669
-0.0544663
-0.0574686
-0.0604693
-0.0634811
-0.0664874
-0.0695233
-0.0725389
-0.0756452
-0.078726
-0.0202634
-0.0232256
-0.0261734
-0.0291089
-0.0320336
-0.0349486
-0.0378551
-0.0407543
-0.043648
-0.0465369
-0.0494237
-0.0523079
-0.0551944
-0.0580789
-0.0609733
-0.0638619
-0.0667779
-0.0696739
-0.0726555
-0.0756114
-0.0194227
-0.0222697
-0.0251035
-0.0279258
-0.0307379
-0.0335408
-0.0363357
-0.0391236
-0.041906
-0.0446837
-0.0474589
-0.0502313
-0.0530054
-0.0557772
-0.0585576
-0.0613321
-0.0641316
-0.0669114
-0.0697718
-0.0726063
-0.0186192
-0.0213554
-0.0240793
-0.0267924
-0.0294959
-0.0321907
-0.0348777
-0.0375579
-0.0402328
-0.0429028
-0.0455702
-0.0482344
-0.0508996
-0.0535621
-0.0562321
-0.0588958
-0.0615824
-0.0642496
-0.0669923
-0.069709
-0.0178515
-0.020481
-0.023099
-0.0257068
-0.0283056
-0.030896
-0.033479
-0.0360553
-0.0386262
-0.0411921
-0.0437551
-0.0463147
-0.0488746
-0.0514314
-0.0539945
-0.056551
-0.0591282
-0.0616862
-0.0643149
-0.0669176
-0.017118
-0.0196448
-0.0221608
-0.0246673
-0.0271651
-0.0296549
-0.0321375
-0.0346135
-0.037084
-0.0395495
-0.0420117
-0.0444701
-0.0469282
-0.0493828
-0.0518425
-0.0542953
-0.0567667
-0.0592193
-0.0617377
-0.0642302
-0.0164174
-0.0188453
-0.0212631
-0.0236719
-0.0260726
-0.0284654
-0.0308512
-0.0332304
-0.0356041
-0.0379726
-0.0403375
-0.0426983
-0.0450582
-0.0474141
-0.049774
-0.0521267
-0.0544959
-0.0568466
-0.0592584
-0.0616446
-0.0157482
-0.0180809
-0.0204042
-0.0227191
-0.0250262
-0.0273256
-0.0296181
-0.0319041
-0.0341845
-0.0364595
-0.0387306
-0.0409972
-0.0432623
-0.045523
-0.0477866
-0.0500427
-0.0523133
-0.0545658
-0.0568748
-0.0591584
-0.0151091
-0.0173501
-0.0195826
-0.0218072
-0.0240242
-0.0262337
-0.0284364
-0.0306326
-0.0328231
-0.0350081
-0.0371887
-0.0393646
-0.0415384
-0.0437072
-0.045878
-0.0480411
-0.0502168
-0.0523746
-0.0545845
-0.0567694
-0.0144994
-0.0166522
-0.0187973
-0.0209349
-0.0230652
-0.0251882
-0.0273044
-0.0294142
-0.0315181
-0.0336164
-0.0357099
-0.0377985
-0.0398842
-0.0419648
-0.0440462
-0.0461196
-0.0482039
-0.0502706
-0.0523852
-0.0544752
-0.0139154
-0.0159846
-0.0180463
-0.0201005
-0.0221474
-0.0241873
-0.0262204
-0.028247
-0.0302677
-0.0322825
-0.0342923
-0.0362967
-0.0382978
-0.0402934
-0.0422889
-0.0442761
-0.0462725
-0.0482516
-0.0502745
-0.0522734
-0.0133549
-0.015346
-0.0173282
-0.0193024
-0.0212693
-0.0232292
-0.0251825
-0.0271293
-0.0290699
-0.0310045
-0.0329338
-0.0348574
-0.0367771
-0.038691
-0.0406039
-0.0425083
-0.0444202
-0.0463152
-0.0482501
-0.0501615
-0.0128233
-0.0147376
-0.0166428
-0.0185399
-0.0204298
-0.022313
-0.0241895
-0.0260595
-0.0279232
-0.0297807
-0.0316326
-0.0334785
-0.0353201
-0.0371555
-0.0389891
-0.040814
-0.0426449
-0.0444591
-0.0463095
-0.0481371
-0.0123196
-0.0141586
-0.0159893
-0.0178122
-0.0196281
-0.0214373
-0.0232401
-0.0250362
-0.026826
-0.0286094
-0.030387
-0.0321584
-0.0339249
-0.0356849
-0.0374424