/*--------------------------------*- C++ -*----------------------------------*\
  =========                 |
  \\      /  F ield         | OpenFOAM: The Open Source CFD Toolbox
   \\    /   O peration     | Website:  https://openfoam.org
    \\  /    A nd           | Version:  7
     \\/     M anipulation  |
\*---------------------------------------------------------------------------*/
FoamFile
{
    version     2.0;
    format      ascii;
    class       volVectorField;
    location    "22";
    object      U;
}
// * * * * * * * * * * * * * * * * * * * * * * * * * * * * * * * * * * * * * //

dimensions      [0 1 -1 0 0 0 0];

internalField   nonuniform List<vector> 
433
(
(0.0332418 0.0120953 -2.65882e-21)
(0.0412524 0.0131823 6.97903e-21)
(0.0332418 -0.0120953 2.65882e-21)
(0.0412524 -0.0131823 -6.97903e-21)
(0.0502254 -0.0142145 2.25762e-21)
(0.0601741 -0.0151869 8.34229e-21)
(0.0711054 -0.0160946 -3.90083e-21)
(0.0830201 -0.016933 -1.4778e-21)
(0.0959117 -0.017698 5.72123e-21)
(0.109766 -0.0183855 -1.36963e-20)
(0.124563 -0.0189923 4.26352e-21)
(0.140272 -0.0195156 7.5684e-21)
(0.156856 -0.0199532 -4.92933e-21)
(0.174272 -0.0203039 -3.25526e-21)
(0.192467 -0.020567 3.12023e-21)
(0.211382 -0.0207428 3.17372e-21)
(0.230953 -0.0208324 -5.59917e-21)
(0.251107 -0.0208379 3.99181e-21)
(0.271771 -0.0207622 1.23961e-21)
(0.292864 -0.0206092 4.84367e-21)
(0.314307 -0.0203834 6.30769e-21)
(0.336015 -0.0200903 2.32525e-21)
(0.357906 -0.0197358 -6.52069e-21)
(0.3799 -0.0193266 -2.71946e-21)
(0.401917 -0.0188695 9.8468e-21)
(0.423882 -0.0183717 -5.61727e-21)
(0.445724 -0.0178404 -7.28272e-21)
(0.467379 -0.0172828 1.33372e-20)
(0.488786 -0.0167056 -4.49262e-21)
(0.509894 -0.0161156 -4.2794e-22)
(0.530657 -0.0155187 -2.69513e-22)
(0.551034 -0.0149197 5.22731e-21)
(0.570992 -0.0143229 -1.04328e-20)
(0.0350548 -0.0361868 3.55837e-21)
(0.0432178 -0.0394402 -7.84547e-21)
(0.0523331 -0.0425301 1.9706e-20)
(0.0624134 -0.0454413 2.54229e-21)
(0.0734652 -0.0481594 -1.65928e-20)
(0.0854886 -0.0506705 -5.65564e-21)
(0.0984768 -0.0529618 -1.28258e-20)
(0.112416 -0.0550218 2.77088e-20)
(0.127284 -0.0568404 -3.70777e-21)
(0.143051 -0.0584094 -5.77887e-21)
(0.159682 -0.0597223 9.71354e-21)
(0.177131 -0.0607749 1.37976e-20)
(0.195346 -0.0615656 -6.51779e-21)
(0.21427 -0.0620949 1.23639e-20)
(0.233836 -0.0623664 -3.44902e-20)
(0.253976 -0.062386 2.65082e-20)
(0.274615 -0.0621625 -1.98091e-20)
(0.295673 -0.0617074 -9.4897e-21)
(0.317071 -0.0610343 5.7611e-21)
(0.338727 -0.0601595 3.15804e-21)
(0.360559 -0.0591008 2.83192e-21)
(0.382487 -0.0578778 8.39712e-21)
(0.404433 -0.0565112 -1.03716e-21)
(0.426323 -0.0550224 2.81742e-22)
(0.448087 -0.0534329 -1.37324e-20)
(0.46966 -0.0517642 3.08238e-20)
(0.490985 -0.0500368 -2.32101e-20)
(0.512009 -0.0482705 8.34525e-21)
(0.532688 -0.0464832 -2.44817e-21)
(0.552984 -0.0446892 -4.51088e-21)
(0.57285 -0.0429023 2.71765e-20)
(0.0386612 -0.0599815 3.34925e-20)
(0.0471273 -0.0653791 -3.86321e-20)
(0.056526 -0.0705067 -1.75981e-21)
(0.0668685 -0.0753391 -5.52975e-21)
(0.0781603 -0.0798522 2.72854e-20)
(0.0904005 -0.0840231 -2.02628e-20)
(0.103581 -0.0878306 -1.55411e-20)
(0.117688 -0.0912553 2.06059e-20)
(0.132699 -0.0942805 -1.68151e-20)
(0.148584 -0.0968923 1.90307e-20)
(0.165306 -0.09908 -7.0636e-21)
(0.182822 -0.100837 -1.63669e-20)
(0.201079 -0.102159 -2.78765e-20)
(0.220019 -0.103048 5.36565e-20)
(0.23958 -0.103509 -3.15192e-20)
(0.259692 -0.103552 1.62812e-20)
(0.28028 -0.103192 9.9775e-21)
(0.30127 -0.102446 -3.26102e-20)
(0.32258 -0.101339 3.44481e-20)
(0.344133 -0.0998954 -2.52266e-20)
(0.365847 -0.0981463 -1.26886e-20)
(0.387645 -0.0961236 -1.94823e-20)
(0.409451 -0.0938614 3.35532e-21)
(0.431191 -0.0913954 3.35917e-20)
(0.452799 -0.0887611 1.96481e-20)
(0.474211 -0.085994 -1.84265e-20)
(0.49537 -0.0831285 -1.49944e-20)
(0.516227 -0.0801972 -5.73794e-20)
(0.53674 -0.0772299 4.4737e-20)
(0.556875 -0.0742501 -7.96884e-20)
(0.576558 -0.0712831 7.15604e-20)
(0.0529387 -0.0907898 1.69949e-20)
(0.0627593 -0.0979218 -8.70478e-20)
(0.0734925 -0.104646 7.47355e-20)
(0.0851421 -0.110929 -1.00446e-20)
(0.0977058 -0.116738 -4.08187e-20)
(0.111174 -0.122045 1.15539e-20)
(0.125533 -0.126821 1.50294e-20)
(0.140757 -0.131044 5.35177e-20)
(0.156818 -0.134694 -5.86525e-20)
(0.173679 -0.137756 4.55235e-20)
(0.191295 -0.14022 1.25068e-20)
(0.209615 -0.14208 1.11841e-21)
(0.228583 -0.143338 -3.75193e-20)
(0.248136 -0.144002 2.92867e-20)
(0.268207 -0.144084 -3.79178e-20)
(0.288723 -0.143605 5.29955e-20)
(0.309611 -0.142589 -3.72693e-20)
(0.330794 -0.141068 5.03078e-20)
(0.352194 -0.139079 3.98915e-20)
(0.373734 -0.136662 -5.88386e-20)
(0.39534 -0.133863 1.05467e-19)
(0.416937 -0.130728 -8.74803e-20)
(0.438456 -0.127308 4.56525e-20)
(0.459832 -0.123651 -1.96121e-20)
(0.481005 -0.119807 -1.92712e-20)
(0.50192 -0.115823 7.44552e-21)
(0.522528 -0.111746 -7.45666e-20)
(0.542796 -0.107616 2.7155e-20)
(0.562689 -0.103465 9.7403e-20)
(0.582102 -0.0993348 -8.90771e-20)
(0.060589 -0.115468 7.13815e-20)
(0.0709665 -0.124558 -5.41845e-20)
(0.0822158 -0.133133 -4.21608e-20)
(0.0943384 -0.14115 4.98588e-20)
(0.10733 -0.148569 -4.75704e-20)
(0.12118 -0.15535 7.98587e-20)
(0.135871 -0.161461 -1.77994e-20)
(0.15138 -0.166869 -1.17886e-20)
(0.167676 -0.171551 9.8422e-21)
(0.184722 -0.175485 -3.77091e-20)
(0.202473 -0.17866 4.97966e-20)
(0.22088 -0.181068 7.88771e-21)
(0.239888 -0.182709 3.56695e-20)
(0.259434 -0.183593 -8.91545e-20)
(0.279454 -0.183736 9.64841e-21)
(0.299878 -0.183162 3.58659e-20)
(0.320635 -0.181903 -1.08741e-19)
(0.341651 -0.179998 8.73212e-20)
(0.362853 -0.177494 -1.87671e-20)
(0.384166 -0.174442 -9.36117e-21)
(0.40552 -0.170898 2.03587e-20)
(0.426844 -0.166924 -5.06186e-21)
(0.448073 -0.162581 -1.74206e-20)
(0.469146 -0.157932 -2.61851e-21)
(0.490005 -0.15304 -6.54063e-20)
(0.510598 -0.147967 3.84328e-20)
(0.530881 -0.14277 5.0211e-20)
(0.550824 -0.137501 -2.57203e-20)
(0.570402 -0.132201 -2.14557e-20)
(0.589459 -0.12693 5.88446e-20)
(0.0810596 -0.150206 -3.31812e-20)
(0.0929461 -0.16058 -3.57336e-22)
(0.105653 -0.170286 2.5798e-20)
(0.119175 -0.179275 -6.30492e-20)
(0.133498 -0.187501 5.70986e-20)
(0.148603 -0.194922 -2.80973e-20)
(0.164466 -0.2015 -5.02082e-21)
(0.181055 -0.207205 -9.02888e-21)
(0.198333 -0.21201 -2.61839e-20)
(0.216257 -0.215901 1.10745e-19)
(0.234776 -0.218867 -6.65577e-20)
(0.253836 -0.220909 -7.68024e-20)
(0.273379 -0.222036 9.12094e-20)
(0.293341 -0.222266 -9.49988e-20)
(0.313657 -0.221629 1.16737e-19)
(0.334257 -0.220161 1.09955e-20)
(0.355072 -0.21791 -1.02406e-19)
(0.376034 -0.21493 6.7394e-20)
(0.397071 -0.211283 -1.52554e-20)
(0.418118 -0.207037 -8.56864e-20)
(0.43911 -0.202264 5.60231e-20)
(0.459984 -0.197039 -1.07269e-19)
(0.480686 -0.191438 3.2886e-20)
(0.50116 -0.185538 5.51346e-20)
(0.52136 -0.17941 1.32933e-20)
(0.541242 -0.173128 -2.07188e-20)
(0.560788 -0.16675 1.31763e-19)
(0.579978 -0.160328 2.34419e-20)
(0.5986 -0.153945 -2.43975e-20)
(0.10557 -0.186774 4.31949e-20)
(0.118969 -0.198115 -2.79506e-20)
(0.133119 -0.208629 7.43921e-22)
(0.148003 -0.218262 4.92668e-20)
(0.163602 -0.226965 -6.29504e-20)
(0.179888 -0.234693 -5.50927e-20)
(0.196829 -0.241409 1.03692e-19)
(0.214388 -0.247084 -2.66054e-20)
(0.23252 -0.251695 6.0477e-20)
(0.251178 -0.255233 -5.11154e-20)
(0.270308 -0.257696 -8.03169e-20)
(0.289854 -0.259092 1.68083e-19)
(0.309756 -0.259443 -6.50717e-20)
(0.32995 -0.25878 -4.50916e-20)
(0.350372 -0.257146 3.56783e-20)
(0.370958 -0.254593 -2.90257e-21)
(0.391642 -0.251185 -1.4785e-20)
(0.41236 -0.246993 2.69927e-20)
(0.43305 -0.242094 -7.92133e-21)
(0.453654 -0.236573 2.21299e-20)
(0.474116 -0.230516 -7.09435e-20)
(0.494383 -0.224011 6.49344e-20)
(0.514408 -0.217147 5.84142e-20)
(0.534146 -0.21001 -1.2361e-19)
(0.553559 -0.202683 1.17396e-19)
(0.572638 -0.195235 -1.03628e-19)
(0.591373 -0.187722 -2.93709e-20)
(0.609487 -0.180262 -6.31897e-20)
(0.119953 -0.211516 9.72304e-20)
(0.134147 -0.224428 1.57671e-20)
(0.149019 -0.236413 -1.54399e-19)
(0.16455 -0.247409 5.7392e-20)
(0.180719 -0.25736 -3.94956e-20)
(0.197495 -0.266215 5.89392e-20)
(0.214847 -0.273929 -5.53795e-20)
(0.232734 -0.280468 1.06179e-19)
(0.251115 -0.285808 -6.05182e-20)
(0.269941 -0.289932 -1.25619e-20)
(0.289162 -0.292838 2.39274e-20)
(0.308721 -0.294534 1.046e-19)
(0.328563 -0.295043 -1.28254e-19)
(0.348629 -0.294398 1.7816e-20)
(0.368857 -0.292646 3.90832e-20)
(0.389189 -0.289844 -8.88145e-20)
(0.409564 -0.286064 7.26535e-20)
(0.429925 -0.281384 1.25816e-19)
(0.450216 -0.275891 -1.05188e-20)
(0.470383 -0.26968 -2.25331e-19)
(0.490378 -0.262849 1.19729e-19)
(0.510155 -0.255497 -8.4189e-20)
(0.529671 -0.247725 -3.97592e-20)
(0.548886 -0.23963 1.57478e-19)
(0.567768 -0.231306 -8.66217e-20)
(0.586317 -0.222832 -1.45254e-20)
(0.604536 -0.214268 1.34457e-19)
(0.622076 -0.205771 -8.21694e-20)
(0.151026 -0.249029 5.41003e-20)
(0.166709 -0.262424 -9.66341e-20)
(0.18297 -0.274733 1.39797e-19)
(0.199782 -0.285893 9.80408e-21)
(0.217116 -0.295846 -1.0749e-19)
(0.234936 -0.304543 1.02514e-20)
(0.253202 -0.311942 5.4092e-20)
(0.271872 -0.318014 1.58491e-20)
(0.290898 -0.322741 -4.37322e-20)
(0.310232 -0.326116 7.62406e-20)
(0.32982 -0.328147 -5.51399e-20)
(0.349608 -0.328855 -5.09312e-20)
(0.369543 -0.328277 7.28745e-20)
(0.389567 -0.326461 -1.17874e-19)
(0.409627 -0.323471 -8.52309e-21)
(0.42967 -0.319381 -2.2401e-20)
(0.449643 -0.314279 2.77639e-19)
(0.469497 -0.308259 -9.9363e-20)
(0.489186 -0.301426 -4.26181e-23)
(0.508669 -0.293888 -7.31105e-20)
(0.527906 -0.285754 -2.00682e-20)
(0.54686 -0.277136 -1.13319e-19)
(0.565498 -0.268143 -4.32883e-20)
(0.583793 -0.258879 8.54124e-20)
(0.601757 -0.249429 -1.65955e-20)
(0.619405 -0.239858 8.30874e-20)
(0.636313 -0.23037 -6.47847e-20)
(0.186007 -0.286474 6.28614e-20)
(0.203075 -0.300039 -6.27512e-20)
(0.220602 -0.312365 -5.03111e-20)
(0.238557 -0.323385 6.59507e-20)
(0.256902 -0.333045 -4.07216e-20)
(0.275597 -0.341298 3.63326e-20)
(0.294598 -0.348108 7.15764e-21)
(0.31386 -0.353453 -1.44621e-20)
(0.333333 -0.357325 7.57974e-21)
(0.352968 -0.359727 -1.49941e-21)
(0.372715 -0.360681 6.77429e-20)
(0.392522 -0.360223 2.15515e-20)
(0.412339 -0.358404 -2.19297e-19)
(0.432117 -0.35529 2.3893e-19)
(0.451809 -0.350961 -1.32382e-19)
(0.47137 -0.34551 -3.46165e-20)
(0.490759 -0.339039 1.76763e-20)
(0.509937 -0.33166 4.67821e-20)
(0.528869 -0.323489 -4.24332e-20)
(0.547524 -0.314647 1.68852e-19)
(0.565874 -0.305254 4.27235e-20)
(0.583888 -0.295431 7.55978e-20)
(0.601547 -0.285292 -6.05287e-20)
(0.618877 -0.274924 1.22731e-19)
(0.635907 -0.264396 -1.12444e-20)
(0.242968 -0.336594 -3.73453e-20)
(0.261606 -0.348647 8.6167e-20)
(0.280533 -0.359248 -1.66455e-19)
(0.299706 -0.368345 1.5674e-20)
(0.319083 -0.375897 6.53554e-20)
(0.338617 -0.381878 1.15059e-19)
(0.358261 -0.386274 -9.72319e-20)
(0.377968 -0.389087 -1.97545e-22)
(0.397689 -0.390335 -1.04737e-19)
(0.417379 -0.390056 1.57013e-19)
(0.436992 -0.388299 1.16794e-20)
(0.456484 -0.385133 -1.78515e-20)
(0.475816 -0.380642 -1.86375e-20)
(0.49495 -0.374922 1.54368e-20)
(0.513853 -0.368082 -1.07613e-19)
(0.532493 -0.36024 -1.07364e-20)
(0.550845 -0.351521 -9.02357e-20)
(0.568885 -0.342053 8.29219e-20)
(0.586593 -0.331966 -1.2301e-19)
(0.286033 -0.371464 9.39396e-20)
(0.305597 -0.38298 -5.98849e-20)
(0.3253 -0.39291 -5.45978e-20)
(0.345097 -0.401208 1.54997e-19)
(0.364944 -0.40784 -1.20554e-19)
(0.384793 -0.412789 -1.05707e-20)
(0.404599 -0.416053 6.12566e-21)
(0.424318 -0.417648 -4.93075e-20)
(0.443907 -0.417608 1.36988e-19)
(0.463326 -0.415983 -9.93908e-20)
(0.482537 -0.412842 4.1984e-20)
(0.501508 -0.408271 -3.63609e-20)
(0.520207 -0.40237 1.16372e-19)
(0.538611 -0.395251 -4.80144e-21)
(0.331847 -0.404094 3.71831e-20)
(0.35213 -0.414843 5.76751e-20)
(0.372395 -0.423886 -1.2091e-19)
(0.392597 -0.431184 5.32645e-20)
(0.412689 -0.436714 -5.22646e-20)
(0.432629 -0.440471 -1.21006e-20)
(0.452374 -0.442465 5.35709e-20)
(0.471885 -0.442727 7.49222e-21)
(0.491127 -0.441307 -9.17664e-21)
(0.510069 -0.438273 -8.06411e-20)
(0.379937 -0.43401 -1.12115e-19)
(0.400718 -0.443796 1.79198e-19)
(0.421319 -0.451773 -1.11521e-19)
(0.441697 -0.457912 7.68517e-20)
(0.461808 -0.462201 -3.2549e-20)
(0.99986 -0.00308666 1.33012e-20)
(0.991031 -0.00963473 4.95291e-21)
(0.975109 -0.0175443 -1.89422e-22)
(0.999863 -0.00276022 -2.84625e-20)
(0.991012 -0.00862519 -4.84617e-21)
(0.974973 -0.0157099 1.01103e-20)
(0.952594 -0.0251696 -2.77966e-20)
(0.923634 -0.0375397 -6.85077e-21)
(0.888643 -0.0551691 2.29496e-20)
(0.845795 -0.0785508 9.02168e-21)
(0.798312 -0.110604 -1.76789e-20)
(0.741254 -0.154775 1.63249e-20)
(0.681982 -0.203757 1.1857e-20)
(0.999865 -0.00243418 3.98866e-21)
(0.990996 -0.007625 1.69652e-20)
(0.974856 -0.0138709 -1.84331e-20)
(0.952334 -0.0222361 1.47091e-20)
(0.923006 -0.0331669 1.1171e-20)
(0.887479 -0.0487604 -1.41943e-20)
(0.843577 -0.0695466 -1.84213e-20)
(0.794228 -0.0979503 -1.24272e-20)
(0.734622 -0.137585 2.43794e-20)
(0.670354 -0.181746 7.54518e-21)
(0.999867 -0.00210857 1.32106e-20)
(0.990985 -0.0066148 -7.99994e-21)
(0.974756 -0.012028 1.28164e-20)
(0.952112 -0.0192918 -3.63061e-21)
(0.922465 -0.028778 -8.74956e-22)
(0.886467 -0.0423188 2.74659e-21)
(0.841662 -0.0604562 8.38298e-21)
(0.790644 -0.0851615 2.53729e-20)
(0.728833 -0.120005 -1.41578e-20)
(0.660125 -0.159023 -1.33061e-20)
(0.999869 -0.00178336 -7.10476e-21)
(0.990976 -0.0056 -3.17948e-21)
(0.974673 -0.0101821 4.4702e-21)
(0.951925 -0.0163385 1.63147e-21)
(0.922007 -0.0243749 3.16758e-21)
(0.885604 -0.0358501 -1.26659e-21)
(0.840039 -0.0512893 -4.08184e-22)
(0.787563 -0.0722562 -3.0285e-21)
(0.723877 -0.102092 -1.2618e-20)
(0.651317 -0.135665 -1.53206e-20)
(0.999871 -0.00145851 3.1716e-22)
(0.990969 -0.00458372 -5.12231e-21)
(0.974604 -0.00833379 -6.72097e-21)
(0.951773 -0.0133777 3.88938e-21)
(0.921629 -0.0199599 -7.50344e-21)
(0.884887 -0.0293596 1.30254e-20)
(0.8387 -0.0420562 -6.96972e-21)
(0.784989 -0.0592527 1.06286e-21)
(0.719752 -0.0839007 1.27083e-20)
(0.643949 -0.111761 -2.69191e-20)
(0.999872 -0.00113401 -2.35803e-21)
(0.990964 -0.00356636 7.44711e-21)
(0.97455 -0.00648362 1.43102e-21)
(0.951652 -0.010411 -5.76088e-21)
(0.92133 -0.0155348 4.55304e-22)
(0.884314 -0.0228521 -6.9841e-21)
(0.837638 -0.0327683 -1.61077e-21)
(0.782925 -0.046169 9.43917e-21)
(0.716452 -0.0654852 -3.26436e-21)
(0.638037 -0.0874035 1.04779e-20)
(0.999873 -0.000809793 4.67272e-21)
(0.99096 -0.00254805 -3.33901e-21)
(0.974509 -0.00463208 -1.63166e-21)
(0.951563 -0.00743962 5.38395e-21)
(0.921107 -0.011102 -3.92583e-21)
(0.883885 -0.0163317 3.38183e-21)
(0.836847 -0.0234371 5.022e-21)
(0.781375 -0.0330227 -1.44036e-21)
(0.713978 -0.0468971 8.39237e-22)
(0.633591 -0.0626886 -1.07178e-20)
(0.999874 -0.000485788 -2.81767e-21)
(0.990958 -0.00152909 2.60027e-21)
(0.974483 -0.00277961 -2.99787e-22)
(0.951504 -0.00446505 -1.37374e-21)
(0.92096 -0.00666347 4.235e-22)
(0.883599 -0.00980248 1.58742e-21)
(0.836321 -0.0140748 -6.37342e-21)
(0.780341 -0.0198316 -8.89101e-22)
(0.712329 -0.0281868 2.85869e-21)
(0.630623 -0.0377165 1.85477e-21)
(0.999874 -0.000161915 1.87354e-21)
(0.990957 -0.000509737 -1.13318e-21)
(0.974469 -0.000926598 2.46534e-23)
(0.951475 -0.00148856 -1.0776e-21)
(0.920886 -0.00222154 8.87173e-22)
(0.883456 -0.00326807 1.08734e-22)
(0.83606 -0.0046937 1.35612e-22)
(0.779823 -0.00661353 1.7383e-21)
(0.711505 -0.00940367 4.81359e-22)
(0.629137 -0.0125894 -2.0603e-21)
)
;

boundaryField
{
    inlet
    {
        type            uniformFixedValue;
        uniformValue    constant (1 0 0);
        value           uniform (1 0 0);
    }
    outlet
    {
        type            pressureInletOutletVelocity;
        value           nonuniform 0();
    }
    cylinder
    {
        type            fixedValue;
        value           nonuniform 0();
    }
    top
    {
        type            symmetryPlane;
    }
    bottom
    {
        type            symmetryPlane;
    }
    defaultFaces
    {
        type            empty;
    }
    procBoundary12to6
    {
        type            processor;
        value           nonuniform List<vector> 
35
(
(0.652136 -0.253966 8.11164e-20)
(0.603947 -0.321389 7.23182e-20)
(0.62093 -0.310445 3.25323e-21)
(0.637585 -0.299226 -1.36758e-19)
(0.652136 -0.253966 8.11164e-20)
(0.65396 -0.287799 1.11569e-19)
(0.556697 -0.387038 1.06651e-19)
(0.574447 -0.377863 -2.16761e-19)
(0.591848 -0.36786 2.32871e-20)
(0.603947 -0.321389 7.23182e-20)
(0.608888 -0.357167 -4.64376e-20)
(0.528684 -0.43371 3.45691e-20)
(0.546951 -0.42772 -1.2666e-20)
(0.556697 -0.387038 1.06651e-19)
(0.564851 -0.42042 3.47598e-20)
(0.481612 -0.464648 -1.91315e-20)
(0.501075 -0.465278 -6.85747e-20)
(0.520165 -0.464138 -4.45244e-20)
(0.528684 -0.43371 3.45691e-20)
(0.538858 -0.461294 9.84858e-20)
(0.450842 -0.469491 3.32551e-20)
(0.47155 -0.476263 -4.70992e-20)
(0.481612 -0.464648 -1.91315e-20)
(0.491875 -0.481124 8.59789e-20)
(0.999857 -0.00341335 -8.39124e-21)
(0.991055 -0.0106527 1.46056e-20)
(0.975264 -0.0193733 3.90796e-21)
(0.952896 -0.0280906 -1.76501e-20)
(0.952896 -0.0280906 -1.76501e-20)
(0.924353 -0.0418942 -9.52502e-21)
(0.889965 -0.0615387 7.51262e-21)
(0.848325 -0.0874599 -9.02848e-21)
(0.802891 -0.123101 9.73851e-21)
(0.748739 -0.171517 9.36145e-21)
(0.69498 -0.224985 -2.54463e-20)
)
;
    }
    procBoundary12to13
    {
        type            processor;
        value           nonuniform List<vector> 
26
(
(0.0261749 -0.0109588 1.80099e-21)
(0.0278263 -0.0327853 5.72744e-21)
(0.0311109 -0.0543395 -4.05984e-22)
(0.0440212 -0.083285 -3.04156e-20)
(0.0440212 -0.083285 -3.04156e-20)
(0.0510761 -0.105907 8.89426e-21)
(0.069995 -0.139216 -2.43347e-20)
(0.069995 -0.139216 -2.43347e-20)
(0.0929302 -0.174665 1.17571e-19)
(0.0929302 -0.174665 1.17571e-19)
(0.10645 -0.197745 2.66003e-20)
(0.135942 -0.23462 8.27027e-20)
(0.135942 -0.23462 8.27027e-20)
(0.169429 -0.27174 1.24526e-20)
(0.169429 -0.27174 1.24526e-20)
(0.206711 -0.308395 -3.13807e-20)
(0.224658 -0.323153 -3.32264e-20)
(0.224658 -0.323153 -3.32264e-20)
(0.266652 -0.35842 1.08127e-19)
(0.266652 -0.35842 1.08127e-19)
(0.311593 -0.391691 2.49191e-20)
(0.311593 -0.391691 2.49191e-20)
(0.359025 -0.42246 1.43345e-21)
(0.359025 -0.42246 1.43345e-21)
(0.40845 -0.450304 -1.60264e-19)
(0.429794 -0.460826 9.86438e-20)
)
;
    }
    procBoundary12to18
    {
        type            processor;
        value           nonuniform List<vector> 
42
(
(0.0350548 0.0361868 -3.27186e-21)
(0.0432178 0.0394402 9.58164e-21)
(0.0502254 0.0142145 7.01741e-21)
(0.0502254 0.0142145 7.01741e-21)
(0.0601741 0.0151869 -7.07778e-21)
(0.0711054 0.0160946 3.61022e-21)
(0.0830201 0.016933 9.91014e-22)
(0.0959117 0.017698 -4.51069e-21)
(0.109766 0.0183855 1.15242e-20)
(0.124563 0.0189923 -2.79274e-21)
(0.140272 0.0195156 -6.87145e-21)
(0.156856 0.0199532 6.3155e-21)
(0.174272 0.0203039 5.80353e-21)
(0.192467 0.020567 -8.88173e-21)
(0.211382 0.0207428 -3.3639e-21)
(0.230953 0.0208324 9.83313e-21)
(0.251107 0.0208379 8.31565e-22)
(0.271771 0.0207622 2.64136e-21)
(0.292864 0.0206092 -2.27536e-21)
(0.314307 0.0203834 1.03637e-21)
(0.336015 0.0200903 7.02109e-21)
(0.357906 0.0197358 7.1243e-21)
(0.3799 0.0193266 -9.52678e-21)
(0.401917 0.0188695 -5.75135e-21)
(0.423882 0.0183717 7.09412e-21)
(0.445724 0.0178404 6.31793e-21)
(0.467379 0.0172828 -1.66474e-20)
(0.488786 0.0167056 -2.69433e-21)
(0.509894 0.0161156 4.70646e-21)
(0.530657 0.0155187 1.32664e-21)
(0.551034 0.0149197 2.46914e-21)
(0.570992 0.0143229 -5.84717e-21)
(0.999874 0.000161914 1.87923e-21)
(0.990957 0.000509734 -1.18517e-21)
(0.974469 0.000926594 6.46424e-23)
(0.951475 0.00148856 -8.92291e-22)
(0.920886 0.00222154 2.41273e-22)
(0.883456 0.00326806 4.08624e-22)
(0.83606 0.00469369 1.13761e-21)
(0.779823 0.00661352 1.00141e-21)
(0.711505 0.00940366 -6.2464e-22)
(0.629137 0.0125894 -5.39132e-22)
)
;
    }
    procBoundary12to19
    {
        type            processor;
        value           uniform (0.0261749 0.0109588 -2.79558e-21);
    }
}


// ************************************************************************* //
