/*--------------------------------*- C++ -*----------------------------------*\
  =========                 |
  \\      /  F ield         | OpenFOAM: The Open Source CFD Toolbox
   \\    /   O peration     | Website:  https://openfoam.org
    \\  /    A nd           | Version:  7
     \\/     M anipulation  |
\*---------------------------------------------------------------------------*/
FoamFile
{
    version     2.0;
    format      ascii;
    class       volVectorField;
    location    "3";
    object      U;
}
// * * * * * * * * * * * * * * * * * * * * * * * * * * * * * * * * * * * * * //

dimensions      [0 1 -1 0 0 0 0];

internalField   nonuniform List<vector> 
344
(
(1.04636 -0.00201121 -6.70265e-14)
(1.06097 0.00168523 -3.00986e-14)
(1.04556 -0.00179759 -6.16263e-14)
(1.06249 0.00141117 -2.72648e-14)
(1.04626 -0.00146002 -6.33234e-14)
(1.0622 0.0010326 -4.22119e-14)
(1.04896 -0.00103517 -6.42987e-14)
(1.05964 0.000605796 -4.65224e-14)
(1.05398 -0.00063446 -6.44345e-14)
(1.05484 0.000356217 -4.89127e-14)
(1.06047 -0.000604024 -5.62427e-14)
(1.04969 0.000678328 -4.06963e-14)
(1.06545 -0.0012474 -6.34617e-14)
(1.04771 0.00162212 -3.87685e-14)
(1.06574 -0.00226244 -8.54234e-14)
(1.05068 0.00252081 -4.06614e-14)
(1.06192 -0.00283509 -9.17503e-14)
(1.05578 0.00266851 -2.68376e-14)
(1.05841 -0.00263518 -8.76282e-14)
(1.05863 0.00230005 -3.19228e-14)
(1.05798 -0.00231423 -9.6881e-14)
(1.05891 0.00223686 -3.39757e-14)
(1.05842 -0.00250291 -9.55684e-14)
(1.05997 0.00263747 -3.84879e-14)
(1.05671 -0.00291571 -9.76205e-14)
(1.06335 0.00295307 -3.01307e-14)
(1.05314 -0.00305971 -1.15281e-13)
(1.06766 0.00292892 -3.66837e-14)
(1.04954 -0.00289128 -1.02621e-13)
(1.07126 0.00255418 -4.13183e-14)
(1.04775 -0.00227245 -9.08063e-14)
(1.0717 0.00165 -5.3547e-14)
(1.05069 -0.00121481 -8.91967e-14)
(1.06666 0.000716478 -5.84137e-14)
(1.05826 -0.000680164 -9.17251e-14)
(1.05937 0.000755043 -6.77972e-14)
(1.06477 -0.0011402 -9.01968e-14)
(1.05534 0.00133263 -7.18655e-14)
(1.06777 -0.00149523 -7.85547e-14)
(1.05292 0.00144789 -6.84778e-14)
(1.07121 -0.00158763 -9.58171e-14)
(1.04929 0.00201014 -6.2826e-14)
(1.07366 -0.00272805 -1.0842e-13)
(1.04966 0.00365383 -6.22139e-14)
(1.06957 -0.00429713 -1.30854e-13)
(1.05592 0.00462503 -3.59894e-14)
(1.06317 -0.00459699 -1.29573e-13)
(1.06062 0.00440005 -3.89554e-14)
(1.06103 -0.00437955 -1.24386e-13)
(1.06181 0.00455844 -3.00233e-14)
(1.05947 -0.00483533 -1.36311e-13)
(1.06504 0.00519544 -4.71064e-14)
(1.05415 -0.00529997 -1.39332e-13)
(1.07152 0.00531347 -4.02133e-14)
(1.04724 -0.00507836 -1.39315e-13)
(1.07786 0.00457136 -4.06346e-14)
(1.04317 -0.00392574 -1.30609e-13)
(1.0794 0.00297496 -6.71172e-14)
(1.046 -0.00215204 -1.10302e-13)
(1.0736 0.00122703 -8.94529e-14)
(1.05546 -0.000571774 -1.13599e-13)
(1.06267 -0.000105282 -1.04481e-13)
(1.06795 0.000393876 -9.06117e-14)
(1.05121 -0.000456595 -9.8014e-14)
(1.07718 -2.66074e-06 -1.03218e-13)
(1.047 0.000555429 -9.42255e-14)
(1.07666 -0.00121653 -1.16579e-13)
(1.04578 -0.00481356 -2.78322e-13)
(1.06158 0.00405127 -2.11332e-13)
(1.04482 -0.00432288 -2.56752e-13)
(1.06327 0.00340031 -2.20458e-13)
(1.04534 -0.00350377 -2.55582e-13)
(1.06304 0.00246601 -2.28132e-13)
(1.04811 -0.00245412 -2.45643e-13)
(1.06022 0.00141688 -2.40442e-13)
(1.05354 -0.00148865 -2.49399e-13)
(1.0549 0.000839137 -2.49095e-13)
(1.06055 -0.0014615 -2.33872e-13)
(1.04933 0.00166447 -2.55498e-13)
(1.06573 -0.00305337 -2.36054e-13)
(1.04741 0.00394696 -2.66761e-13)
(1.06575 -0.00547673 -2.26792e-13)
(1.0508 0.00605536 -2.66754e-13)
(1.06147 -0.0067825 -2.32586e-13)
(1.05629 0.00634203 -2.76759e-13)
(1.0577 -0.00624453 -2.4146e-13)
(1.05925 0.00542222 -2.75615e-13)
(1.05726 -0.00545495 -2.5299e-13)
(1.05943 0.00525822 -2.79226e-13)
(1.05782 -0.00589953 -2.68018e-13)
(1.06036 0.00620991 -2.77655e-13)
(1.05618 -0.0068906 -2.84044e-13)
(1.06373 0.00697789 -2.74724e-13)
(1.05248 -0.00725777 -3.04938e-13)
(1.06825 0.00694154 -2.49435e-13)
(1.04855 -0.00686205 -3.12725e-13)
(1.07212 0.00603255 -2.50396e-13)
(1.04656 -0.00535584 -3.21624e-13)
(1.07249 0.00385232 -2.4251e-13)
(1.04976 -0.00283695 -3.2292e-13)
(1.06696 0.00166772 -2.48902e-13)
(1.05783 -0.00163467 -3.04424e-13)
(1.05926 0.00182344 -2.59879e-13)
(1.06455 -0.00276102 -2.83888e-13)
(1.05517 0.00317232 -2.77404e-13)
(1.06758 -0.00354142 -2.67174e-13)
(1.0526 0.00336587 -2.94128e-13)
(1.07134 -0.00371132 -2.49527e-13)
(1.04858 0.00469612 -3.01692e-13)
(1.07407 -0.00647058 -2.36258e-13)
(1.049 0.00866426 -3.1367e-13)
(1.06954 -0.0102475 -2.22976e-13)
(1.056 0.0109692 -3.24522e-13)
(1.06241 -0.0108955 -2.09473e-13)
(1.06114 0.0103391 -3.1716e-13)
(1.06027 -0.0102839 -2.09874e-13)
(1.06199 0.0106655 -3.07789e-13)
(1.05906 -0.0113736 -2.10081e-13)
(1.06515 0.012217 -3.05969e-13)
(1.05332 -0.0125035 -2.11984e-13)
(1.07226 0.01249 -3.02335e-13)
(1.04568 -0.0119327 -2.14568e-13)
(1.07895 0.0107031 -2.97137e-13)
(1.04144 -0.00922187 -2.14287e-13)
(1.08037 0.00700498 -2.95272e-13)
(1.0443 -0.0051222 -2.26008e-13)
(1.07438 0.00292213 -2.88106e-13)
(1.05402 -0.00138909 -2.3991e-13)
(1.06282 -0.000223842 -2.83987e-13)
(1.06737 0.000860766 -2.51311e-13)
(1.0505 -0.000985547 -2.7644e-13)
(1.07711 -0.000173508 -2.63059e-13)
(1.04611 0.00147026 -2.61545e-13)
(1.07663 -0.00305536 -2.81324e-13)
(1.04524 -0.00788311 4.38e-15)
(1.06224 0.00670274 -4.56156e-14)
(1.04402 -0.00717728 -1.79435e-15)
(1.06431 0.0056754 -4.92665e-14)
(1.0441 -0.00578913 -5.91133e-15)
(1.06435 0.00400493 -4.7823e-14)
(1.04685 -0.00386091 -1.04174e-14)
(1.06114 0.00205237 -4.57416e-14)
(1.05305 -0.0020836 -1.92702e-14)
(1.05479 0.001009 -4.60467e-14)
(1.06113 -0.00207835 -2.56236e-14)
(1.04833 0.00253367 -5.00683e-14)
(1.06683 -0.00495846 -2.25908e-14)
(1.0464 0.00656461 -5.96448e-14)
(1.06641 -0.00917793 -1.58566e-14)
(1.05057 0.0101636 -6.42175e-14)
(1.06127 -0.0113415 -7.73028e-15)
(1.05685 0.0105627 -6.72224e-14)
(1.05692 -0.010321 -1.14545e-14)
(1.0601 0.00891186 -6.20937e-14)
(1.05641 -0.00889778 -1.36627e-14)
(1.06015 0.00854682 -6.30453e-14)
(1.05718 -0.00957019 -1.24706e-14)
(1.06081 0.0100922 -7.13757e-14)
(1.05573 -0.0112308 -8.67009e-15)
(1.06412 0.0114494 -7.08643e-14)
(1.05185 -0.0119676 -9.26826e-15)
(1.06906 0.0115312 -7.10308e-14)
(1.04721 -0.0113895 -1.13031e-14)
(1.07361 0.00999061 -7.07005e-14)
(1.04467 -0.0087284 -2.21666e-14)
(1.07402 0.0061328 -6.29023e-14)
(1.04828 -0.0043235 -3.72984e-14)
(1.06762 0.00238646 -5.49308e-14)
(1.05731 -0.00236504 -4.42816e-14)
(1.05912 0.00279537 -5.5898e-14)
(1.06444 -0.00441728 -3.8334e-14)
(1.05493 0.00513394 -6.84573e-14)
(1.06753 -0.00568454 -3.84846e-14)
(1.05206 0.00532273 -6.83241e-14)
(1.07199 -0.00585531 -3.93718e-14)
(1.04713 0.00755234 -7.44302e-14)
(1.07546 -0.0106799 -2.53887e-14)
(1.0475 0.014532 -9.64967e-14)
(1.07017 -0.0173199 -5.29419e-15)
(1.05599 0.0184983 -1.11769e-13)
(1.06147 -0.0181679 -1.61385e-16)
(1.0622 0.0169437 -1.05792e-13)
(1.05917 -0.0165791 -5.44262e-15)
(1.06243 0.0171659 -1.0696e-13)
(1.05873 -0.0184786 2.12816e-15)
(1.06531 0.0201725 -1.18384e-13)
(1.05228 -0.0208279 7.70033e-15)
(1.07373 0.0208689 -1.1785e-13)
(1.04307 -0.0197597 2.96834e-15)
(1.08126 0.0176001 -1.0299e-13)
(1.03848 -0.0150034 -1.26475e-14)
(1.08237 0.011422 -8.44914e-14)
(1.04141 -0.00830007 -3.7585e-14)
(1.07625 0.00466199 -6.43053e-14)
(1.05137 -0.00196174 -5.86806e-14)
(1.06365 -0.0007406 -5.33745e-14)
(1.06637 0.00174114 -6.87164e-14)
(1.04951 -0.00158887 -5.25368e-14)
(1.07728 -0.000612618 -6.10156e-14)
(1.04474 0.00299156 -6.62252e-14)
(1.07689 -0.00558489 -4.47609e-14)
(1.04583 -0.0108914 -6.1002e-14)
(1.06187 0.00940982 -1.60755e-13)
(1.04448 -0.0101697 -5.90663e-14)
(1.06439 0.00810752 -1.50068e-13)
(1.04391 -0.00816236 -6.31638e-14)
(1.06503 0.00547947 -1.34558e-13)
(1.04636 -0.00499968 -6.73979e-14)
(1.06165 0.00221069 -1.15603e-13)
(1.05323 -0.00205287 -7.56094e-14)
(1.05422 0.000517204 -1.01017e-13)
(1.06255 -0.00211721 -7.96228e-14)
(1.0467 0.0030267 -8.79057e-14)
(1.06886 -0.00674543 -7.96671e-14)
(1.04479 0.00931175 -7.58821e-14)
(1.06789 -0.0131924 -7.95541e-14)
(1.04998 0.0146545 -7.32263e-14)
(1.06161 -0.0162505 -8.36863e-14)
(1.05734 0.0150273 -7.38113e-14)
(1.05641 -0.014497 -9.40771e-14)
(1.06112 0.0123677 -7.46583e-14)
(1.0556 -0.0121937 -1.05712e-13)
(1.0612 0.0116029 -7.99818e-14)
(1.05648 -0.012965 -1.15981e-13)
(1.0616 0.0136782 -8.95738e-14)
(1.05535 -0.0153232 -1.21744e-13)
(1.06464 0.0157643 -9.99425e-14)
(1.05146 -0.0166504 -1.29354e-13)
(1.06993 0.0162107 -1.06701e-13)
(1.04608 -0.0160356 -1.24054e-13)
(1.0753 0.0139847 -1.14615e-13)
(1.04285 -0.0119346 -1.1537e-13)
(1.07581 0.00800739 -1.1552e-13)
(1.04693 -0.00522335 -1.07602e-13)
(1.0684 0.00247403 -1.1225e-13)
(1.05705 -0.00257588 -9.57703e-14)
(1.05906 0.0034223 -9.98026e-14)
(1.06457 -0.00586999 -7.90882e-14)
(1.05482 0.00687655 -8.82666e-14)
(1.06774 -0.00745611 -6.37535e-14)
(1.05151 0.0066898 -7.27046e-14)
(1.07314 -0.00730325 -5.23255e-14)
(1.04545 0.00980367 -5.90174e-14)
(1.07747 -0.0146449 -3.4959e-14)
(1.04595 0.0205872 -5.12521e-14)
(1.07095 -0.0249717 -1.68545e-14)
(1.0567 0.0266814 -4.33387e-14)
(1.05982 -0.0258986 -1.61771e-14)
(1.0646 0.0235499 -3.28912e-14)
(1.05709 -0.0225206 -8.61304e-15)
(1.06392 0.0231383 -2.59483e-14)
(1.058 -0.0253018 -5.77369e-15)
(1.06597 0.028184 -2.49614e-14)
(1.05105 -0.029552 -3.21645e-15)
(1.07592 0.0296085 -2.31387e-14)
(1.03986 -0.0277104 -3.62511e-15)
(1.08442 0.0242196 -1.86513e-14)
(1.03518 -0.0203918 -6.92564e-15)
(1.08472 0.0155204 -1.03163e-14)
(1.03853 -0.0114041 -9.44469e-15)
(1.07856 0.00628778 -4.08029e-15)
(1.04833 -0.00221385 -1.23418e-14)
(1.06525 -0.0019667 9.57451e-16)
(1.0651 0.00332472 -9.4245e-15)
(1.04891 -0.00258466 5.86114e-15)
(1.07746 -0.00121696 -3.38691e-15)
(1.04381 0.00489592 8.37363e-15)
(1.07699 -0.00848622 5.31842e-15)
(1.04815 -0.013512 1.22997e-14)
(1.05971 0.0119107 -2.97207e-14)
(1.04721 -0.0131481 8.87549e-15)
(1.06242 0.0106581 -2.87973e-14)
(1.04606 -0.0106982 4.96919e-15)
(1.06387 0.00703754 -2.53252e-14)
(1.0478 -0.0060566 -2.25758e-15)
(1.0609 0.00206317 -2.06665e-14)
(1.05469 -0.00152839 -7.98797e-15)
(1.05315 -0.000587041 -1.61659e-14)
(1.06441 -0.00156532 -8.90519e-15)
(1.04546 0.00305012 -2.10128e-14)
(1.07047 -0.00828383 -6.18742e-16)
(1.04431 0.0120127 -3.09667e-14)
(1.06838 -0.0173551 8.74235e-15)
(1.05076 0.0193696 -3.36923e-14)
(1.06095 -0.0214324 1.37828e-14)
(1.05891 0.0197086 -3.43938e-14)
(1.05523 -0.0188659 1.17775e-14)
(1.06283 0.0159074 -2.72589e-14)
(1.05436 -0.015544 7.27215e-15)
(1.06278 0.014556 -2.5001e-14)
(1.05549 -0.016212 8.17856e-15)
(1.06272 0.0169621 -2.77113e-14)
(1.05499 -0.0191497 8.79963e-15)
(1.06514 0.0198225 -2.86178e-14)
(1.05153 -0.0212616 1.02217e-14)
(1.07039 0.0209446 -3.14494e-14)
(1.04582 -0.0208463 6.52095e-15)
(1.07621 0.0180899 -2.95594e-14)
(1.04227 -0.0150815 2.32002e-16)
(1.07658 0.00958255 -2.404e-14)
(1.04684 -0.00562786 -7.64325e-15)
(1.06856 0.00198601 -1.80731e-14)
(1.05722 -0.00226886 -1.16342e-14)
(1.05949 0.00363763 -2.13347e-14)
(1.06408 -0.00699385 -8.15853e-15)
(1.05586 0.00825128 -2.34381e-14)
(1.06719 -0.0087425 -7.1192e-15)
(1.05183 0.00746597 -2.11314e-14)
(1.07383 -0.00820484 -9.83611e-15)
(1.04462 0.0117699 -2.27854e-14)
(1.0786 -0.0188535 -3.48848e-15)
(1.04595 0.0274316 -2.99503e-14)
(1.07014 -0.0338874 2.43108e-15)
(1.05933 0.0362056 -3.33021e-14)
(1.05633 -0.0346298 2.89453e-15)
(1.06876 0.0304713 -2.49976e-14)
(1.05326 -0.0280806 -1.9184e-15)
(1.06672 0.028274 -2.38895e-14)
(1.05628 -0.0314333 -2.78915e-15)
(1.0668 0.0359329 -2.60204e-14)
(1.05038 -0.0385945 1.2111e-15)
(1.07689 0.0388312 -2.41235e-14)
(1.03861 -0.0358701 -1.41755e-15)
(1.08551 0.0305745 -1.89837e-14)
(1.03454 -0.025145 -6.15318e-15)
(1.08485 0.0191627 -1.69315e-14)
(1.03803 -0.0142918 -7.87052e-15)
(1.07972 0.00794399 -1.52017e-14)
(1.04602 -0.00218628 -1.41633e-14)
(1.06784 -0.00387358 -1.14855e-14)
(1.06243 0.00583942 -1.64555e-14)
(1.05111 -0.00415826 -1.09472e-14)
(1.07508 -0.00170539 -1.46014e-14)
(1.0461 0.00703321 -1.30853e-14)
(1.07466 -0.0113241 -1.3322e-14)
(1.05173 -0.0154408 -1.54506e-14)
(1.05609 0.0139339 -6.77265e-15)
(1.05209 -0.0159168 -1.56833e-14)
(1.05834 0.0132272 -7.83599e-15)
(1.05068 -0.0133908 -1.59739e-14)
(1.06074 0.0087945 -6.55986e-15)
(1.05108 -0.00724057 -1.36851e-14)
(1.05936 0.00196353 -5.42715e-15)
(1.05632 -0.000974633 -1.18752e-14)
)
;

boundaryField
{
    inlet
    {
        type            uniformFixedValue;
        uniformValue    constant (1 0 0);
        value           nonuniform 0();
    }
    outlet
    {
        type            pressureInletOutletVelocity;
        value           nonuniform 0();
    }
    wall
    {
        type            fixedValue;
        value           nonuniform 0();
    }
    wedge1
    {
        type            wedge;
    }
    wedge2
    {
        type            wedge;
    }
    axis
    {
        type            empty;
    }
    procBoundary1to0
    {
        type            processor;
        value           nonuniform List<vector> 5((1.05824 0.00179269 -2.33219e-14) (1.0588 0.00428278 -2.04076e-13) (1.05943 0.0069568 -4.79488e-14) (1.0593 0.00944865 -1.57686e-13) (1.05803 0.0114054 -2.83251e-14));
    }
    procBoundary1to2
    {
        type            processor;
        value           nonuniform List<vector> 5((1.05168 0.00171247 -8.89067e-14) (1.05061 0.00419775 -2.42141e-13) (1.04878 0.00745277 -7.85426e-14) (1.04727 0.0108766 1.04881e-14) (1.04855 0.0140365 -1.37591e-14));
    }
    procBoundary1to6
    {
        type            processor;
        value           uniform (1.05622 0.0125146 -5.48856e-15);
    }
    procBoundary1to7
    {
        type            processor;
        value           nonuniform List<vector> 
68
(
(1.05332 -0.00168858 -6.45029e-15)
(1.06426 -0.00112511 -8.49961e-15)
(1.04754 0.0033437 -6.13968e-15)
(1.06838 -0.0102363 -5.13539e-15)
(1.04816 0.015159 -8.32536e-15)
(1.06494 -0.0219028 1.84442e-15)
(1.05519 0.0242677 -9.51628e-15)
(1.05763 -0.0265892 4.23623e-15)
(1.06239 0.0241758 -9.03557e-15)
(1.05312 -0.022919 3.0144e-15)
(1.06494 0.01911 -6.49082e-15)
(1.05335 -0.0185414 1.84237e-15)
(1.06399 0.0171016 -5.66857e-15)
(1.05527 -0.0189357 -1.41055e-15)
(1.06316 0.0195665 -5.56359e-15)
(1.05565 -0.0221981 -4.88552e-15)
(1.06485 0.0230767 -5.05534e-15)
(1.05272 -0.0251386 -6.34299e-15)
(1.07001 0.0250271 -4.22084e-15)
(1.04688 -0.025011 -1.08182e-14)
(1.07594 0.021515 -4.15534e-15)
(1.04345 -0.0174524 -1.38697e-14)
(1.07594 0.0104826 -2.26697e-15)
(1.04808 -0.00559402 -1.21295e-14)
(1.0686 0.00150087 -2.55777e-15)
(1.05666 -0.00234828 -6.24791e-15)
(1.06212 0.00436195 -3.63511e-15)
(1.06095 -0.00837512 -1.91923e-16)
(1.06005 0.00934278 -6.23735e-15)
(1.06391 -0.00915931 6.51412e-15)
(1.05494 0.00708696 -7.70414e-15)
(1.07179 -0.00802042 1.51741e-14)
(1.04726 0.0130367 -9.18429e-15)
(1.07573 -0.022857 2.09434e-14)
(1.05049 0.0342991 -1.06031e-14)
(1.06507 -0.0429582 2.51971e-14)
(1.06538 0.0455672 -1.13095e-14)
(1.05045 -0.0429509 2.78947e-14)
(1.07413 0.0364606 -7.94042e-15)
(1.04878 -0.0324108 2.96164e-14)
(1.06946 0.031704 -7.12191e-15)
(1.05524 -0.0358892 2.78912e-14)
(1.06585 0.0418879 -3.53242e-15)
(1.05312 -0.0462377 2.63863e-14)
(1.0734 0.046673 -1.70425e-15)
(1.04334 -0.0427973 2.52573e-14)
(1.0812 0.0356912 -1.83079e-15)
(1.0397 -0.0289646 2.45789e-14)
(1.08096 0.0225314 1.55511e-15)
(1.04152 -0.0177117 2.02666e-14)
(1.079 0.0108138 6.71241e-15)
(1.04479 -0.0035825 1.57896e-14)
(1.07265 -0.00461934 9.76427e-15)
(1.0556 0.00742763 1.21656e-14)
(1.06111 -0.00529396 1.59019e-14)
(1.06418 -0.00229056 9.95336e-15)
(1.05882 0.00858012 2.01123e-14)
(1.06231 -0.0129967 7.16414e-15)
(1.0563 -0.0161023 -2.64212e-14)
(1.05146 0.0149107 2.1364e-14)
(1.0583 -0.0179914 -2.66812e-14)
(1.05315 0.0155288 1.63278e-14)
(1.05633 -0.0162247 -2.32317e-14)
(1.05728 0.0110787 1.03244e-14)
(1.05405 -0.00922675 -1.74246e-14)
(1.05928 0.00288925 3.54318e-15)
(1.05332 -0.00168858 -6.45029e-15)
(1.05547 -0.00154591 -1.11611e-14)
)
;
    }
}


// ************************************************************************* //
