/*--------------------------------*- C++ -*----------------------------------*\
  =========                 |
  \\      /  F ield         | OpenFOAM: The Open Source CFD Toolbox
   \\    /   O peration     | Website:  https://openfoam.org
    \\  /    A nd           | Version:  7
     \\/     M anipulation  |
\*---------------------------------------------------------------------------*/
FoamFile
{
    version     2.0;
    format      ascii;
    class       volScalarField;
    location    "74.000388";
    object      p;
}
// * * * * * * * * * * * * * * * * * * * * * * * * * * * * * * * * * * * * * //

dimensions      [0 2 -2 0 0 0 0];

internalField   nonuniform List<scalar> 
5800
(
-0.224521
-0.224734
-0.224787
-0.224757
-0.224691
-0.023603
-0.0242628
-0.0249234
-0.0255838
-0.026243
-0.0269
-0.0275537
-0.0282031
-0.0288468
-0.0294836
-0.0301122
-0.030731
-0.0313387
-0.0319335
-0.0325138
-0.0330779
-0.0336239
-0.03415
-0.0346541
-0.0351342
-0.0355882
-0.0360139
-0.0364091
-0.0367715
-0.0370986
-0.0373882
-0.0376377
-0.0378446
-0.0380065
-0.0381209
-0.0381852
-0.0381969
-0.0381535
-0.0380525
-0.0378916
-0.0376684
-0.0373804
-0.0370256
-0.0366017
-0.0361069
-0.035539
-0.0348968
-0.034178
-0.0333821
-0.0325068
-0.0315525
-0.0305168
-0.0294012
-0.0282028
-0.0269251
-0.0255639
-0.0241254
-0.0226035
-0.0210082
-0.0193298
-0.0175844
-0.0157565
-0.0138706
-0.0119025
-0.00988903
-0.00779206
-0.00566618
-0.00345005
-0.00121774
-0.0236917
-0.0243535
-0.025016
-0.0256783
-0.0263394
-0.0269983
-0.0276539
-0.028305
-0.0289505
-0.029589
-0.0302192
-0.0308395
-0.0314485
-0.0320446
-0.0326262
-0.0331913
-0.0337383
-0.0342651
-0.0347699
-0.0352506
-0.035705
-0.0361309
-0.0365262
-0.0368884
-0.0372153
-0.0375044
-0.0377532
-0.0379594
-0.0381203
-0.0382335
-0.0382964
-0.0383066
-0.0382614
-0.0381586
-0.0379956
-0.0377701
-0.0374797
-0.0371223
-0.0366957
-0.036198
-0.0356271
-0.0349817
-0.0342596
-0.0334603
-0.0325815
-0.0316236
-0.0305842
-0.0294649
-0.0282626
-0.0269811
-0.025616
-0.0241737
-0.0226477
-0.0210487
-0.0193662
-0.0176172
-0.015785
-0.0138958
-0.0119231
-0.00990672
-0.00780487
-0.00567657
-0.00345502
-0.00122102
-0.0238609
-0.0245271
-0.025194
-0.0258605
-0.0265256
-0.0271885
-0.0278479
-0.0285027
-0.0291517
-0.0297935
-0.0304269
-0.0310502
-0.0316621
-0.0322608
-0.0328446
-0.0334119
-0.0339607
-0.0344892
-0.0349953
-0.035477
-0.0359321
-0.0363585
-0.0367538
-0.0371158
-0.0374421
-0.0377303
-0.0379779
-0.0381825
-0.0383415
-0.0384524
-0.0385126
-0.0385198
-0.0384713
-0.0383647
-0.0381977
-0.0379678
-0.0376727
-0.0373102
-0.0368783
-0.036375
-0.0357981
-0.0351466
-0.0344181
-0.0336122
-0.0327265
-0.0317617
-0.0307151
-0.0295885
-0.0283789
-0.0270899
-0.0257172
-0.0242674
-0.0227337
-0.0211272
-0.019437
-0.0176806
-0.0158407
-0.0139442
-0.0119638
-0.00994035
-0.00783063
-0.00569566
-0.00346598
-0.00122579
-0.0241101
-0.0247826
-0.0254556
-0.026128
-0.026799
-0.0274675
-0.0281324
-0.0287925
-0.0294466
-0.0300933
-0.0307312
-0.0313589
-0.0319747
-0.0325771
-0.0331644
-0.0337347
-0.0342862
-0.0348169
-0.0353249
-0.035808
-0.0362642
-0.0366911
-0.0370866
-0.0374482
-0.0377737
-0.0380605
-0.0383063
-0.0385084
-0.0386645
-0.038772
-0.0388284
-0.0388311
-0.0387776
-0.0386656
-0.0384926
-0.0382562
-0.0379542
-0.0375844
-0.0371446
-0.036633
-0.0360476
-0.035387
-0.0346491
-0.0338335
-0.0329379
-0.0319629
-0.0309058
-0.0297686
-0.0285481
-0.0272483
-0.0258645
-0.0244037
-0.0228589
-0.0212414
-0.01954
-0.0177727
-0.0159216
-0.0140145
-0.012023
-0.00998914
-0.00786828
-0.00572321
-0.00348223
-0.00123216
-0.0244345
-0.0251153
-0.0257963
-0.0264766
-0.0271552
-0.027831
-0.0285031
-0.0291701
-0.0298308
-0.0304838
-0.0311277
-0.0317609
-0.032382
-0.0329892
-0.0335808
-0.034155
-0.0347099
-0.0352436
-0.0357539
-0.0362389
-0.0366963
-0.037124
-0.0375195
-0.0378806
-0.0382049
-0.0384898
-0.0387331
-0.0389321
-0.0390844
-0.0391874
-0.0392385
-0.0392354
-0.0391754
-0.0390563
-0.0388754
-0.0386306
-0.0383195
-0.0379401
-0.03749
-0.0369677
-0.036371
-0.0356987
-0.0349486
-0.0341204
-0.0332118
-0.0322235
-0.0311528
-0.0300018
-0.0287673
-0.0274533
-0.0260552
-0.0245801
-0.0230208
-0.021389
-0.0196731
-0.0178917
-0.0160263
-0.0141053
-0.0120994
-0.0100521
-0.00791696
-0.0057587
-0.00350328
-0.00124018
-0.024832
-0.0255229
-0.0262138
-0.0269036
-0.0275915
-0.0282763
-0.0289571
-0.0296325
-0.0303012
-0.0309618
-0.0316129
-0.032253
-0.0328803
-0.0334933
-0.0340902
-0.0346691
-0.0352281
-0.0357652
-0.0362784
-0.0367655
-0.0372244
-0.0376527
-0.0380482
-0.0384086
-0.0387313
-0.0390139
-0.039254
-0.0394491
-0.0395966
-0.039694
-0.0397387
-0.0397283
-0.0396603
-0.0395323
-0.0393418
-0.0390866
-0.0387644
-0.0383731
-0.0379105
-0.037375
-0.0367645
-0.0360777
-0.0353128
-0.0344691
-0.0335447
-0.0325401
-0.0314528
-0.030285
-0.0290333
-0.0277021
-0.0262865
-0.024794
-0.0232171
-0.0215679
-0.0198345
-0.0180359
-0.016153
-0.0142152
-0.0121921
-0.0101283
-0.00797589
-0.00580159
-0.00352875
-0.00124979
-0.0253007
-0.0260034
-0.0267058
-0.0274068
-0.0281055
-0.0288009
-0.0294919
-0.030177
-0.0308551
-0.0315246
-0.0321841
-0.032832
-0.0334667
-0.0340864
-0.0346893
-0.0352736
-0.0358372
-0.0363783
-0.0368947
-0.0373842
-0.0378446
-0.0382737
-0.038669
-0.0390283
-0.039349
-0.0396288
-0.039865
-0.0400553
-0.040197
-0.0402877
-0.0403247
-0.0403057
-0.0402281
-0.0400896
-0.0398877
-0.0396202
-0.0392848
-0.0388795
-0.0384021
-0.037851
-0.0372242
-0.0365205
-0.035738
-0.0348762
-0.0339331
-0.0329095
-0.0318027
-0.0306151
-0.0293433
-0.0279919
-0.0265559
-0.025043
-0.0234455
-0.021776
-0.0200221
-0.0182035
-0.0163003
-0.0143428
-0.0122996
-0.0102167
-0.00804433
-0.00585133
-0.00355833
-0.00126088
-0.0258388
-0.0265551
-0.0272706
-0.0279844
-0.0286954
-0.0294028
-0.0301053
-0.0308015
-0.0314902
-0.0321698
-0.0328388
-0.0334956
-0.0341384
-0.0347656
-0.0353753
-0.0359656
-0.0365345
-0.0370799
-0.0375997
-0.0380918
-0.0385538
-0.0389835
-0.0393784
-0.0397363
-0.0400546
-0.0403308
-0.0405624
-0.040747
-0.040882
-0.0409648
-0.0409929
-0.0409638
-0.0408751
-0.0407244
-0.0405093
-0.0402276
-0.039877
-0.0394556
-0.0389611
-0.0383922
-0.0377467
-0.0370236
-0.0362209
-0.0353384
-0.034374
-0.0333285
-0.0321995
-0.0309893
-0.0296947
-0.0283202
-0.0268609
-0.0253248
-0.0237039
-0.0220113
-0.0202342
-0.0183928
-0.0164666
-0.0144869
-0.012421
-0.0103164
-0.00812152
-0.00590739
-0.00359169
-0.00127333
-0.0264453
-0.0271766
-0.0279068
-0.0286348
-0.0293596
-0.0300803
-0.0307957
-0.0315043
-0.0322047
-0.0328955
-0.033575
-0.0342415
-0.0348934
-0.0355289
-0.036146
-0.0367428
-0.0373173
-0.0378673
-0.0383908
-0.0388855
-0.039349
-0.0397792
-0.0401735
-0.0405295
-0.0408448
-0.0411168
-0.0413431
-0.041521
-0.0416481
-0.0417219
-0.0417397
-0.0416992
-0.0415978
-0.0414333
-0.0412032
-0.0409054
-0.0405376
-0.0400979
-0.0395843
-0.0389952
-0.0383286
-0.0375837
-0.0367584
-0.0358526
-0.0348643
-0.0337944
-0.0326404
-0.031405
-0.0300847
-0.0286845
-0.0271992
-0.0256372
-0.0239903
-0.022272
-0.020469
-0.0186023
-0.0166506
-0.0146462
-0.0125552
-0.0104265
-0.00820676
-0.00596925
-0.00362851
-0.00128705
-0.0271191
-0.0278671
-0.0286135
-0.0293571
-0.030097
-0.0308323
-0.0315618
-0.0322839
-0.0329972
-0.0337001
-0.034391
-0.0350681
-0.0357298
-0.0363741
-0.0369992
-0.037603
-0.0381834
-0.0387383
-0.0392656
-0.0397629
-0.0402279
-0.0406582
-0.0410515
-0.0414052
-0.0417168
-0.0419839
-0.0422039
-0.0423743
-0.0424925
-0.0425559
-0.0425621
-0.0425086
-0.042393
-0.042213
-0.0419661
-0.0416503
-0.0412633
-0.0408034
-0.0402683
-0.0396569
-0.0389669
-0.0381978
-0.0373474
-0.0364159
-0.0354011
-0.0343042
-0.0331227
-0.0318595
-0.030511
-0.0290824
-0.0275686
-0.0259781
-0.0243026
-0.0225561
-0.0207247
-0.0188303
-0.0168508
-0.0148194
-0.012701
-0.0105462
-0.00829934
-0.0060364
-0.00366849
-0.00130192
-0.0278598
-0.0286259
-0.0293898
-0.0301504
-0.0309067
-0.0316578
-0.0324025
-0.0331392
-0.0338664
-0.0345824
-0.0352855
-0.035974
-0.0366461
-0.0372999
-0.0379333
-0.0385444
-0.039131
-0.039691
-0.040222
-0.0407218
-0.041188
-0.0416182
-0.04201
-0.0423608
-0.0426682
-0.0429295
-0.0431423
-0.0433041
-0.0434121
-0.043464
-0.0434572
-0.0433893
-0.0432578
-0.0430605
-0.042795
-0.0424593
-0.0420512
-0.0415689
-0.0410103
-0.0403742
-0.0396587
-0.038863
-0.0379852
-0.0370254
-0.0359817
-0.0348554
-0.0336439
-0.0323503
-0.0309711
-0.0295117
-0.0279668
-0.0263455
-0.024639
-0.0228618
-0.0209998
-0.0190755
-0.0170658
-0.0150054
-0.0128574
-0.0106745
-0.00839859
-0.00610836
-0.00371132
-0.00131784
-0.028667
-0.0294526
-0.0302354
-0.0310142
-0.0317881
-0.0325562
-0.0333172
-0.0340695
-0.0348114
-0.0355413
-0.0362574
-0.036958
-0.0376411
-0.0383047
-0.038947
-0.0395656
-0.0401586
-0.0407235
-0.0412583
-0.0417604
-0.0422275
-0.0426572
-0.0430469
-0.0433942
-0.0436965
-0.0439512
-0.0441558
-0.0443078
-0.0444045
-0.0444435
-0.0444222
-0.0443383
-0.0441893
-0.043973
-0.0436871
-0.0433296
-0.0428983
-0.0423916
-0.0418074
-0.0411445
-0.0404011
-0.0395765
-0.038669
-0.0376787
-0.0366037
-0.0354455
-0.0342016
-0.0328752
-0.0314628
-0.0299702
-0.0283919
-0.0267373
-0.0249975
-0.0231875
-0.0212926
-0.0193362
-0.0172944
-0.0152029
-0.0130235
-0.0108107
-0.00850384
-0.00618463
-0.0037567
-0.00133471
-0.0295407
-0.0303471
-0.0311501
-0.0319483
-0.0327409
-0.0335271
-0.0343054
-0.0350742
-0.0358317
-0.0365762
-0.037306
-0.0380191
-0.0387137
-0.0393876
-0.0400388
-0.0406652
-0.0412646
-0.0418345
-0.0423728
-0.042877
-0.0433446
-0.0437732
-0.0441603
-0.0445032
-0.0447996
-0.0450467
-0.045242
-0.045383
-0.0454671
-0.0454918
-0.0454546
-0.0453531
-0.0451849
-0.0449479
-0.0446398
-0.0442585
-0.0438021
-0.0432688
-0.0426569
-0.041965
-0.0411915
-0.0403358
-0.0393962
-0.038373
-0.0372644
-0.036072
-0.0347933
-0.0334318
-0.031984
-0.0304559
-0.0288418
-0.0271518
-0.0253764
-0.0235315
-0.0216017
-0.0196112
-0.0175352
-0.0154109
-0.0131983
-0.0109539
-0.00861445
-0.00626476
-0.00380435
-0.00135243
-0.0304809
-0.0313095
-0.0321339
-0.0329526
-0.033765
-0.0345702
-0.0353667
-0.0361528
-0.0369267
-0.0376866
-0.0384305
-0.0391567
-0.0398631
-0.0405476
-0.041208
-0.0418422
-0.0424478
-0.0430226
-0.0435642
-0.04407
-0.0445376
-0.0449645
-0.0453482
-0.0456861
-0.0459756
-0.046214
-0.0463989
-0.0465277
-0.0465978
-0.0466067
-0.046552
-0.0464313
-0.0462422
-0.0459827
-0.0456504
-0.0452434
-0.0447598
-0.044198
-0.0435562
-0.0428332
-0.0420274
-0.0411384
-0.0401644
-0.0391061
-0.0379616
-0.0367326
-0.0354169
-0.034018
-0.0325325
-0.0309666
-0.0293146
-0.027587
-0.025774
-0.0238921
-0.0219254
-0.019899
-0.0177871
-0.0156283
-0.0133808
-0.0111032
-0.00872977
-0.00634827
-0.00385397
-0.00137089
-0.031488
-0.03234
-0.0331868
-0.0340272
-0.0348604
-0.0356856
-0.0365011
-0.0373053
-0.0380962
-0.038872
-0.0396306
-0.0403702
-0.0410887
-0.0417839
-0.0424536
-0.0430955
-0.0437073
-0.0442867
-0.0448311
-0.0453381
-0.0458051
-0.0462297
-0.0466092
-0.046941
-0.0472226
-0.0474512
-0.0476245
-0.0477397
-0.0477944
-0.047786
-0.0477122
-0.0475706
-0.0473589
-0.0470749
-0.0467165
-0.046282
-0.0457692
-0.0451767
-0.0445029
-0.0437466
-0.0429063
-0.0419817
-0.0409713
-0.0398756
-0.0386929
-0.0374252
-0.0360702
-0.0346318
-0.0331063
-0.0315005
-0.0298085
-0.0280412
-0.0261886
-0.0242679
-0.0222624
-0.0201984
-0.0180489
-0.0158539
-0.01357
-0.0112581
-0.0088492
-0.00643472
-0.0039053
-0.00139001
-0.0325624
-0.0334389
-0.0343094
-0.0351724
-0.0360273
-0.0368733
-0.0377087
-0.0385316
-0.0393401
-0.0401322
-0.0409059
-0.0416592
-0.04239
-0.0430959
-0.0437748
-0.0444244
-0.0450421
-0.0456257
-0.0461725
-0.0466801
-0.0471458
-0.0475672
-0.0479416
-0.0482663
-0.0485389
-0.0487565
-0.0489168
-0.049017
-0.0490548
-0.0490275
-0.0489329
-0.0487687
-0.0485325
-0.0482223
-0.0478359
-0.0473717
-0.0468277
-0.0462026
-0.0454946
-0.0447029
-0.043826
-0.0428637
-0.0418145
-0.0406793
-0.0394562
-0.0381477
-0.0367512
-0.035271
-0.0337035
-0.0320558
-0.0303217
-0.0285128
-0.0266187
-0.0246572
-0.0226112
-0.0205079
-0.0183193
-0.0160868
-0.0137652
-0.0114176
-0.00897211
-0.00652367
-0.00395806
-0.00140969
-0.0337047
-0.034607
-0.0355021
-0.0363886
-0.0372661
-0.0381336
-0.0389895
-0.0398317
-0.0406583
-0.0414672
-0.0422562
-0.0430234
-0.0437665
-0.0444832
-0.0451712
-0.0458281
-0.0464514
-0.0470387
-0.0475873
-0.0480948
-0.0485585
-0.0489757
-0.049344
-0.0496606
-0.0499228
-0.0501282
-0.050274
-0.0503578
-0.0503771
-0.0503293
-0.0502122
-0.0500236
-0.049761
-0.0494226
-0.0490063
-0.0485104
-0.0479332
-0.0472733
-0.046529
-0.0456998
-0.0447841
-0.043782
-0.0426919
-0.041515
-0.0402495
-0.0388979
-0.0374578
-0.0359338
-0.0343222
-0.0326306
-0.0308525
-0.0290001
-0.0270627
-0.0250588
-0.0229706
-0.0208265
-0.0185972
-0.0163259
-0.0139653
-0.011581
-0.00909793
-0.00661467
-0.00401198
-0.00142984
-0.0349158
-0.0358448
-0.0367655
-0.0376764
-0.0385772
-0.0394669
-0.0403439
-0.041206
-0.042051
-0.0428769
-0.0436815
-0.0444626
-0.045218
-0.0459454
-0.0466422
-0.047306
-0.0479344
-0.0485248
-0.0490746
-0.0495811
-0.0500418
-0.050454
-0.050815
-0.0511222
-0.0513729
-0.0515646
-0.0516946
-0.0517603
-0.0517594
-0.0516894
-0.051548
-0.0513331
-0.0510423
-0.0506738
-0.0502255
-0.049696
-0.0490834
-0.0483866
-0.0476041
-0.0467352
-0.0457787
-0.0447345
-0.0436014
-0.0423807
-0.0410706
-0.0396739
-0.0381882
-0.0366184
-0.0349608
-0.0332232
-0.0313993
-0.0295016
-0.027519
-0.0254711
-0.0233391
-0.0211528
-0.0188815
-0.0165702
-0.0141695
-0.0117476
-0.00922606
-0.0067073
-0.0040668
-0.00145036
-0.0361965
-0.0371532
-0.0381003
-0.0390364
-0.0399612
-0.0408738
-0.0417723
-0.0426546
-0.0435184
-0.0443615
-0.0451817
-0.0459768
-0.0467443
-0.047482
-0.0481873
-0.0488576
-0.0494905
-0.0500833
-0.0506334
-0.0511382
-0.0515948
-0.0520008
-0.0523534
-0.0526499
-0.0528876
-0.0530641
-0.0531766
-0.0532227
-0.0532
-0.053106
-0.0529384
-0.0526953
-0.0523743
-0.0519737
-0.0514915
-0.0509262
-0.0502763
-0.0495405
-0.0487176
-0.047807
-0.0468074
-0.0457192
-0.044541
-0.0432744
-0.0419176
-0.0404738
-0.0389405
-0.037323
-0.0356174
-0.0338321
-0.0319604
-0.0300157
-0.0279864
-0.0258928
-0.0237156
-0.0214857
-0.0191712
-0.0168188
-0.0143771
-0.0119167
-0.00935594
-0.00680115
-0.00412226
-0.00147117
-0.0375478
-0.0385331
-0.0395075
-0.0404694
-0.0414188
-0.0423547
-0.0432752
-0.044178
-0.0450607
-0.0459211
-0.0467569
-0.0475657
-0.0483452
-0.0490928
-0.0498061
-0.0504823
-0.051119
-0.0517135
-0.052263
-0.0527649
-0.0532164
-0.053615
-0.0539578
-0.0542421
-0.0544655
-0.0546252
-0.0547186
-0.0547433
-0.0546969
-0.0545771
-0.0543815
-0.0541082
-0.0537551
-0.0533204
-0.0528022
-0.0521991
-0.0515097
-0.0507329
-0.0498675
-0.048913
-0.0478684
-0.046734
-0.0455087
-0.0441942
-0.0427888
-0.0412959
-0.039713
-0.0380458
-0.0362903
-0.0344555
-0.0325344
-0.030541
-0.0284633
-0.0263226
-0.0240988
-0.021824
-0.0194651
-0.0170707
-0.0145871
-0.0120877
-0.009487
-0.0068958
-0.0041781
-0.00149218
-0.0389707
-0.0399855
-0.0409878
-0.0419762
-0.0429507
-0.0439103
-0.0448531
-0.0457766
-0.0466783
-0.047556
-0.0484072
-0.0492295
-0.0500205
-0.0507776
-0.0514983
-0.0521797
-0.0528194
-0.0534145
-0.0539624
-0.0544603
-0.0549055
-0.0552953
-0.0556269
-0.0558977
-0.056105
-0.0562462
-0.0563189
-0.0563204
-0.0562486
-0.0561009
-0.0558754
-0.05557
-0.0551827
-0.0547118
-0.0541555
-0.0535126
-0.0527817
-0.0519618
-0.0510518
-0.0500514
-0.0489596
-0.0477771
-0.0465027
-0.0451382
-0.0436822
-0.0421383
-0.040504
-0.0387853
-0.0369782
-0.035092
-0.0331198
-0.0310761
-0.0289485
-0.0267592
-0.0244875
-0.0221667
-0.0197624
-0.0173251
-0.0147987
-0.0122597
-0.0096187
-0.00699084
-0.00423407
-0.0015133
-0.0404664
-0.0415115
-0.0425424
-0.0435577
-0.0445577
-0.0455414
-0.0465066
-0.0474509
-0.0483716
-0.0492663
-0.0501327
-0.0509681
-0.0517702
-0.0525362
-0.0532634
-0.0539493
-0.054591
-0.0551857
-0.0557309
-0.0562236
-0.0566611
-0.0570406
-0.0573596
-0.0576152
-0.0578048
-0.0579258
-0.0579759
-0.0579524
-0.0578531
-0.0576758
-0.0574182
-0.0570787
-0.0566551
-0.056146
-0.0555496
-0.0548648
-0.0540902
-0.0532251
-0.0522684
-0.0512202
-0.0500792
-0.0488465
-0.047521
-0.0461047
-0.0445962
-0.0429993
-0.0413118
-0.0395398
-0.0376793
-0.0357402
-0.0337152
-0.0316196
-0.0294406
-0.0272015
-0.0248806
-0.0225127
-0.0200619
-0.0175809
-0.0150112
-0.0124321
-0.00975047
-0.00708587
-0.00428993
-0.00153443
-0.0420362
-0.0431122
-0.0441722
-0.0452149
-0.0462407
-0.0472485
-0.0482363
-0.0492013
-0.0501408
-0.0510524
-0.0519335
-0.0527816
-0.0535941
-0.0543682
-0.0551013
-0.0557905
-0.0564332
-0.0570264
-0.0575675
-0.0580537
-0.058482
-0.0588499
-0.0591545
-0.0593932
-0.0595634
-0.0596624
-0.0596879
-0.0596375
-0.0595088
-0.0592998
-0.0590082
-0.0586324
-0.0581706
-0.0576211
-0.0569824
-0.0562536
-0.0554333
-0.054521
-0.0535156
-0.0524174
-0.0512253
-0.0499405
-0.0485619
-0.0470919
-0.045529
-0.0438775
-0.0421348
-0.0403078
-0.0383922
-0.0363985
-0.0343192
-0.0321702
-0.0299385
-0.0276482
-0.0252769
-0.0228609
-0.0203628
-0.0178374
-0.0152237
-0.0126043
-0.0098818
-0.00718049
-0.00434541
-0.00155551
-0.0436813
-0.0447888
-0.0458783
-0.0469487
-0.0480004
-0.0490326
-0.0500429
-0.0510284
-0.0519865
-0.0529145
-0.0538098
-0.0546699
-0.0554921
-0.0562735
-0.0570114
-0.0577029
-0.0583454
-0.0589359
-0.0594716
-0.0599496
-0.0603673
-0.0607218
-0.0610104
-0.0612304
-0.0613793
-0.0614545
-0.0614535
-0.0613741
-0.0612139
-0.060971
-0.0606435
-0.0602294
-0.0597271
-0.0591352
-0.0584522
-0.0576772
-0.0568091
-0.0558475
-0.0547914
-0.0536412
-0.0523961
-0.0510572
-0.0496237
-0.0480981
-0.0464791
-0.0447711
-0.0429716
-0.0410879
-0.0391156
-0.0370657
-0.0349306
-0.0327268
-0.030441
-0.0280983
-0.0256754
-0.0232103
-0.0206641
-0.0180937
-0.0154356
-0.0127757
-0.0100121
-0.0072743
-0.00440029
-0.00157642
-0.045403
-0.0465425
-0.0476618
-0.04876
-0.0498379
-0.0508943
-0.0519269
-0.0529327
-0.0539089
-0.0548528
-0.0557618
-0.0566331
-0.057464
-0.0582517
-0.0589933
-0.059686
-0.060327
-0.0609133
-0.0614421
-0.0619105
-0.0623158
-0.0626552
-0.062926
-0.0631255
-0.0632511
-0.0633004
-0.0632709
-0.0631605
-0.0629668
-0.062688
-0.0623223
-0.0618678
-0.0613228
-0.0606863
-0.0599568
-0.0591337
-0.0582157
-0.0572028
-0.056094
-0.0548899
-0.0535897
-0.0521949
-0.0507047
-0.0491218
-0.0474448
-0.0456786
-0.0438208
-0.0418787
-0.0398481
-0.0377405
-0.035548
-0.0332882
-0.0309469
-0.0285506
-0.0260751
-0.02356
-0.0209649
-0.018349
-0.0156461
-0.0129454
-0.010141
-0.00736691
-0.0044543
-0.0015971
-0.0472028
-0.0483745
-0.0495239
-0.0506501
-0.0517539
-0.0528344
-0.053889
-0.0549147
-0.0559085
-0.0568676
-0.0577894
-0.058671
-0.0595097
-0.0603025
-0.0610467
-0.0617392
-0.0623772
-0.0629578
-0.0634781
-0.0639353
-0.0643265
-0.0646489
-0.0649
-0.065077
-0.0651773
-0.0651987
-0.0651386
-0.064995
-0.0647657
-0.0644489
-0.0640427
-0.0635455
-0.0629559
-0.0622726
-0.0614946
-0.0606211
-0.0596513
-0.058585
-0.0574216
-0.0561616
-0.0548046
-0.053352
-0.0518033
-0.0501612
-0.0484247
-0.0465987
-0.0446808
-0.0426788
-0.0405884
-0.0384217
-0.0361704
-0.0338531
-0.0314551
-0.029004
-0.0264749
-0.023909
-0.0212642
-0.0186023
-0.0158543
-0.013113
-0.0102677
-0.00745792
-0.0045072
-0.00161744
-0.0490819
-0.0502862
-0.0514657
-0.0526197
-0.0537493
-0.0548536
-0.0559298
-0.0569748
-0.0579855
-0.058959
-0.0598926
-0.0607836
-0.0616289
-0.0624257
-0.063171
-0.0638618
-0.0644954
-0.0650686
-0.0655787
-0.0660228
-0.066398
-0.0667016
-0.0669309
-0.0670834
-0.0671564
-0.0671477
-0.067055
-0.066876
-0.0666089
-0.0662517
-0.0658029
-0.0652609
-0.0646244
-0.0638923
-0.0630636
-0.0621377
-0.0611139
-0.0599923
-0.0587723
-0.0574547
-0.0560389
-0.0545269
-0.0529178
-0.0512151
-0.0494173
-0.0475299
-0.0455504
-0.0434871
-0.0413354
-0.0391081
-0.0367967
-0.0344205
-0.0319646
-0.0294577
-0.0268739
-0.0242563
-0.0215613
-0.018853
-0.0160597
-0.0132778
-0.010392
-0.00754695
-0.00455876
-0.00163737
-0.0510418
-0.0522787
-0.0534882
-0.0546699
-0.055825
-0.0569526
-0.0580499
-0.0591134
-0.0601402
-0.0611272
-0.0620716
-0.0629706
-0.0638213
-0.0646206
-0.0653656
-0.0660532
-0.0666806
-0.0672448
-0.0677428
-0.0681719
-0.0685292
-0.0688119
-0.0690175
-0.0691433
-0.0691868
-0.0691459
-0.0690182
-0.0688017
-0.0684944
-0.0680948
-0.0676011
-0.0670121
-0.0663265
-0.0655434
-0.0646619
-0.0636816
-0.0626019
-0.061423
-0.0601444
-0.0587673
-0.0572911
-0.0557178
-0.0540469
-0.0522818
-0.0504212
-0.0484709
-0.0464283
-0.0443021
-0.0420878
-0.0397985
-0.0374257
-0.0349895
-0.0324743
-0.0299106
-0.0272712
-0.0246012
-0.0218552
-0.0191002
-0.0162615
-0.0134392
-0.0105131
-0.0076336
-0.00460872
-0.00165678
-0.0530838
-0.0543534
-0.0555927
-0.0568016
-0.0579818
-0.0591321
-0.0602496
-0.0613309
-0.0623727
-0.0633721
-0.0643261
-0.0652319
-0.0660865
-0.0668868
-0.0676298
-0.0683126
-0.068932
-0.0694853
-0.0699694
-0.0703815
-0.0707187
-0.0709785
-0.0711581
-0.0712551
-0.071267
-0.0711915
-0.0710266
-0.0707703
-0.0704207
-0.0699762
-0.0694355
-0.0687972
-0.0680603
-0.0672241
-0.0662876
-0.0652509
-0.0641132
-0.0628752
-0.0615363
-0.0600979
-0.0585594
-0.0569233
-0.0551889
-0.0533599
-0.0514351
-0.0494204
-0.0473133
-0.0451229
-0.0428445
-0.0404919
-0.0380564
-0.0355589
-0.0329835
-0.0303617
-0.0276659
-0.0249427
-0.0221453
-0.0193432
-0.016459
-0.0135965
-0.0106307
-0.00771749
-0.00465685
-0.0016756
-0.0552093
-0.0565114
-0.0577801
-0.0590158
-0.0602203
-0.0613925
-0.0625295
-0.0636275
-0.0646832
-0.0656937
-0.066656
-0.0675671
-0.0684241
-0.0692237
-0.0699631
-0.0706391
-0.0712487
-0.0717891
-0.0722571
-0.0726502
-0.0729653
-0.0731999
-0.0733514
-0.0734172
-0.0733951
-0.0732829
-0.0730784
-0.07278
-0.0723857
-0.0718942
-0.0713041
-0.0706144
-0.069824
-0.0689324
-0.067939
-0.0668438
-0.0656463
-0.0643472
-0.0629462
-0.0614447
-0.0598425
-0.0581419
-0.0563425
-0.0544482
-0.0524577
-0.0503772
-0.0482042
-0.0459483
-0.0436045
-0.0411874
-0.0386879
-0.0361279
-0.0334911
-0.0308104
-0.028057
-0.02528
-0.0224306
-0.0195812
-0.0166515
-0.0137492
-0.0107442
-0.00779821
-0.00470288
-0.00169372
-0.0574197
-0.0587538
-0.0600514
-0.0613132
-0.0625412
-0.0637345
-0.0648898
-0.0660033
-0.0670717
-0.0680919
-0.0690609
-0.0699758
-0.0708334
-0.0716306
-0.0723644
-0.0730318
-0.0736296
-0.0741549
-0.0746049
-0.0749767
-0.0752675
-0.0754747
-0.0755957
-0.0756281
-0.0755697
-0.0754183
-0.0751719
-0.0748289
-0.0743877
-0.0738468
-0.0732051
-0.0724616
-0.0716156
-0.0706666
-0.0696142
-0.0684585
-0.0671992
-0.0658372
-0.0643724
-0.0628062
-0.0611386
-0.0593721
-0.0575062
-0.0555452
-0.0534876
-0.0513401
-0.0491
-0.0467773
-0.0443669
-0.041884
-0.0393192
-0.0366957
-0.0339963
-0.0312556
-0.028444
-0.0256123
-0.0227104
-0.0198135
-0.0168383
-0.0138965
-0.0108531
-0.00787537
-0.00474658
-0.00171106
-0.0597161
-0.0610818
-0.0624076
-0.0636946
-0.0649452
-0.0661584
-0.0673308
-0.0684585
-0.0695381
-0.0705664
-0.0715405
-0.0724573
-0.0733138
-0.0741067
-0.074833
-0.0754896
-0.0760735
-0.0765817
-0.0770113
-0.0773596
-0.0776237
-0.0778011
-0.0778893
-0.077886
-0.0777888
-0.0775959
-0.0773053
-0.0769154
-0.0764247
-0.0758322
-0.0751366
-0.0743372
-0.0734333
-0.0724248
-0.0713113
-0.0700931
-0.0687703
-0.0673436
-0.0658132
-0.0641808
-0.0624462
-0.0606124
-0.0586787
-0.0566497
-0.0545238
-0.0523081
-0.0499996
-0.0476089
-0.0451306
-0.0425808
-0.0399497
-0.0372613
-0.0344983
-0.0316966
-0.0288258
-0.0259389
-0.022984
-0.0200394
-0.0170188
-0.014038
-0.0109569
-0.00794858
-0.0047877
-0.00172752
-0.0620998
-0.0634963
-0.0648494
-0.0661605
-0.0674325
-0.0686644
-0.0698525
-0.0709929
-0.0720821
-0.0731168
-0.0740942
-0.0750112
-0.0758645
-0.076651
-0.0773677
-0.0780114
-0.0785791
-0.079068
-0.079475
-0.0797974
-0.0800325
-0.0801778
-0.0802307
-0.0801891
-0.0800508
-0.0798139
-0.0794766
-0.0790374
-0.078495
-0.0778484
-0.0770966
-0.076239
-0.0752751
-0.074205
-0.0730284
-0.0717459
-0.0703576
-0.0688646
-0.0672671
-0.0655669
-0.063764
-0.0618615
-0.0598587
-0.0577604
-0.0555651
-0.05328
-0.050902
-0.0484422
-0.0458949
-0.043277
-0.0405783
-0.0378241
-0.0349964
-0.0321327
-0.0292019
-0.0262589
-0.0232507
-0.0202581
-0.0171923
-0.014173
-0.011055
-0.00801743
-0.00482598
-0.00174299
-0.0645719
-0.0659983
-0.0673775
-0.0687116
-0.0700037
-0.0712527
-0.072455
-0.0736064
-0.0747033
-0.0757427
-0.0767214
-0.0776364
-0.0784845
-0.0792625
-0.0799674
-0.0805959
-0.0811452
-0.0816123
-0.0819943
-0.0822885
-0.0824921
-0.0826028
-0.0826181
-0.0825358
-0.0823538
-0.0820705
-0.081684
-0.0811931
-0.0805966
-0.0798936
-0.0790832
-0.0781652
-0.0771392
-0.0760054
-0.0747638
-0.0734151
-0.0719596
-0.0703986
-0.0687323
-0.0669629
-0.0650904
-0.0631179
-0.0610449
-0.0588763
-0.0566104
-0.0542548
-0.0518063
-0.0492762
-0.046659
-0.0439719
-0.0412046
-0.0383833
-0.0354899
-0.0325632
-0.0295714
-0.0265718
-0.0235097
-0.020469
-0.0173582
-0.014301
-0.0111471
-0.00808152
-0.00486116
-0.00175738
-0.0671334
-0.0685886
-0.0699926
-0.0713482
-0.0726588
-0.0739234
-0.075138
-0.0762986
-0.0774014
-0.0784433
-0.0794213
-0.0803322
-0.0811729
-0.0819401
-0.0826308
-0.0832419
-0.0837703
-0.0842132
-0.0845678
-0.0848312
-0.0850009
-0.0850745
-0.0850495
-0.084924
-0.084696
-0.0843637
-0.0839256
-0.0833806
-0.0827275
-0.0819657
-0.0810946
-0.0801139
-0.0790236
-0.0778241
-0.0765155
-0.0750988
-0.0735744
-0.0719438
-0.0702074
-0.0683675
-0.066424
-0.0643804
-0.0622361
-0.0599961
-0.0576587
-0.0552316
-0.0527116
-0.0501103
-0.047422
-0.0446646
-0.0418276
-0.0389383
-0.035978
-0.0329874
-0.0299338
-0.0268768
-0.0237604
-0.0206715
-0.0175157
-0.0144212
-0.0112325
-0.00814044
-0.00489298
-0.00177058
-0.0697852
-0.0712677
-0.072695
-0.0740705
-0.0753979
-0.0766762
-0.0779013
-0.079069
-0.0801755
-0.0812178
-0.0821928
-0.0830974
-0.0839283
-0.0846824
-0.0853565
-0.0859477
-0.0864528
-0.0868691
-0.0871937
-0.0874239
-0.0875571
-0.087591
-0.0875233
-0.087352
-0.0870753
-0.0866915
-0.0861994
-0.0855978
-0.0848857
-0.0840628
-0.0831286
-0.0820831
-0.0809265
-0.0796592
-0.0782818
-0.0767953
-0.0752004
-0.0734987
-0.0716907
-0.069779
-0.0677635
-0.0656477
-0.0634311
-0.0611188
-0.0587089
-0.0562095
-0.0536171
-0.0509437
-0.0481833
-0.0453547
-0.0424469
-0.0394885
-0.0364603
-0.0334047
-0.0302884
-0.0271734
-0.024002
-0.0208648
-0.0176644
-0.0145332
-0.0113107
-0.00819377
-0.00492119
-0.00178249
-0.0725279
-0.0740363
-0.0754851
-0.0768785
-0.0782208
-0.0795108
-0.0807443
-0.0819169
-0.0830249
-0.0840653
-0.085035
-0.0859308
-0.0867495
-0.087488
-0.0881431
-0.0887118
-0.0891911
-0.0895782
-0.0898702
-0.0900646
-0.0901588
-0.0901504
-0.0900374
-0.0898178
-0.0894899
-0.0890521
-0.0885034
-0.0878427
-0.0870693
-0.0861829
-0.0851834
-0.0840709
-0.0828458
-0.0815088
-0.0800607
-0.0785028
-0.0768357
-0.0750615
-0.0731807
-0.071196
-0.0691074
-0.0669185
-0.0646287
-0.0622433
-0.0597602
-0.0571877
-0.054522
-0.0517757
-0.0489423
-0.0460415
-0.0430619
-0.0400333
-0.0369361
-0.0338146
-0.0306347
-0.0274607
-0.0242341
-0.0210483
-0.0178035
-0.0146363
-0.0113813
-0.0082411
-0.00494551
-0.00179299
-0.0753621
-0.0768945
-0.0783629
-0.0797722
-0.0811273
-0.0824267
-0.0836663
-0.0848415
-0.0859486
-0.0869846
-0.0879465
-0.088831
-0.089635
-0.0903553
-0.0909888
-0.0915325
-0.0919834
-0.0923387
-0.0925956
-0.0927515
-0.092804
-0.0927509
-0.0925899
-0.0923194
-0.0919377
-0.0914434
-0.0908356
-0.0901133
-0.0892762
-0.0883241
-0.0872569
-0.0860753
-0.0847797
-0.0833711
-0.0818505
-0.0802194
-0.0784788
-0.0766307
-0.0746759
-0.0726171
-0.0704544
-0.0681917
-0.0658279
-0.0633686
-0.0608117
-0.0581654
-0.0554257
-0.0526056
-0.0496985
-0.0467244
-0.043672
-0.0405721
-0.037405
-0.0342164
-0.030972
-0.0277384
-0.024456
-0.0212214
-0.0179325
-0.01473
-0.0114436
-0.00828199
-0.00496567
-0.00180197
-0.0782883
-0.0798426
-0.0813283
-0.0827513
-0.0841167
-0.0854232
-0.0866664
-0.0878416
-0.0889453
-0.0899744
-0.0909259
-0.0917965
-0.0925832
-0.0932827
-0.093892
-0.094408
-0.0948279
-0.0951487
-0.0953678
-0.0954827
-0.0954909
-0.0953903
-0.0951788
-0.0948548
-0.0944168
-0.0938634
-0.0931939
-0.0924077
-0.0915045
-0.0904842
-0.0893472
-0.0880943
-0.0867262
-0.0852441
-0.0836493
-0.0819435
-0.0801278
-0.0782046
-0.0761747
-0.0740409
-0.0718033
-0.0694659
-0.0670276
-0.0644939
-0.0618625
-0.0591418
-0.0563275
-0.053433
-0.0504512
-0.0474031
-0.0442769
-0.0411047
-0.0378664
-0.0346098
-0.0312998
-0.0280058
-0.0246671
-0.0213834
-0.0180507
-0.0148136
-0.0114973
-0.00831602
-0.0049814
-0.0018093
-0.0813066
-0.0828805
-0.0843809
-0.0858151
-0.0871883
-0.0884994
-0.0897435
-0.0909162
-0.0920137
-0.0930332
-0.0939715
-0.0948256
-0.0955923
-0.0962683
-0.0968507
-0.0973364
-0.0977225
-0.0980062
-0.0981849
-0.0982561
-0.0982174
-0.0980667
-0.0978021
-0.097422
-0.096925
-0.0963101
-0.0955765
-0.0947238
-0.093752
-0.0926613
-0.0914523
-0.090126
-0.0886834
-0.087126
-0.0854553
-0.0836733
-0.0817812
-0.0797817
-0.0776756
-0.075466
-0.0731528
-0.0707401
-0.0682267
-0.0656181
-0.0629118
-0.0601162
-0.0572268
-0.0542572
-0.0512001
-0.048077
-0.0448761
-0.0416305
-0.0383201
-0.0349942
-0.0316178
-0.0282625
-0.0248669
-0.0215339
-0.0181576
-0.0148866
-0.0115418
-0.00834273
-0.0049924
-0.00181488
-0.0844169
-0.0860077
-0.0875203
-0.0889629
-0.0903413
-0.091654
-0.0928964
-0.0940636
-0.0951523
-0.0961593
-0.0970818
-0.0979165
-0.0986604
-0.0993102
-0.0998629
-0.100316
-0.100665
-0.100909
-0.101045
-0.10107
-0.100981
-0.100778
-0.100458
-0.100019
-0.0994603
-0.0987812
-0.097981
-0.0970595
-0.0960168
-0.0948534
-0.0935702
-0.0921685
-0.0906494
-0.089015
-0.0872667
-0.085407
-0.0834373
-0.0813604
-0.0791772
-0.076891
-0.0745016
-0.0720132
-0.0694243
-0.0667405
-0.0639589
-0.0610881
-0.0581231
-0.0550779
-0.0519447
-0.0487459
-0.0454693
-0.0421493
-0.0387656
-0.0353694
-0.0319254
-0.0285079
-0.0250548
-0.0216723
-0.0182526
-0.0149484
-0.0115766
-0.00836169
-0.0049984
-0.00181855
-0.0892238
-0.0907456
-0.0921936
-0.0935742
-0.0948858
-0.0961234
-0.0972823
-0.0983591
-0.0993508
-0.100255
-0.101067
-0.101785
-0.102406
-0.102927
-0.103343
-0.103654
-0.103855
-0.103945
-0.103921
-0.103781
-0.103522
-0.103143
-0.102643
-0.102021
-0.101275
-0.100406
-0.0994128
-0.0982968
-0.0970585
-0.0956989
-0.0942197
-0.0926223
-0.090909
-0.0890816
-0.0871429
-0.0850944
-0.0829391
-0.0806781
-0.0783146
-0.0758486
-0.0732841
-0.0706194
-0.0678602
-0.0650031
-0.0620568
-0.0590159
-0.0558945
-0.0526848
-0.0494094
-0.0460563
-0.0426607
-0.0392026
-0.0357348