/*--------------------------------*- C++ -*----------------------------------*\
  =========                 |
  \\      /  F ield         | OpenFOAM: The Open Source CFD Toolbox
   \\    /   O peration     | Website:  https://openfoam.org
    \\  /    A nd           | Version:  7
     \\/     M anipulation  |
\*---------------------------------------------------------------------------*/
FoamFile
{
    version     2.0;
    format      ascii;
    class       surfaceScalarField;
    location    "1";
    object      phi;
}
// * * * * * * * * * * * * * * * * * * * * * * * * * * * * * * * * * * * * * //

dimensions      [0 3 -1 0 0 0 0];

internalField   nonuniform List<scalar> 
621
(
0.000163671
-1.55632e-05
0.00016183
-1.82144e-05
0.00015989
-2.1394e-05
0.000157453
-2.49033e-05
0.000154606
-2.92283e-05
0.000151376
-3.39288e-05
0.000147243
-3.93031e-05
0.000142397
-4.5267e-05
0.000136243
-5.13952e-05
0.000128475
-5.75497e-05
0.000118294
-6.27727e-05
0.000104754
-6.59494e-05
8.65567e-05
-6.56843e-05
6.26969e-05
-6.07289e-05
3.46657e-05
-5.24911e-05
1.10385e-05
-4.98205e-05
-1.63337e-06
-5.29942e-05
-6.09028e-06
-3.54055e-05
-6.01969e-06
1.81165e-05
-5.97403e-06
9.27548e-05
0.000135523
0.000174345
-5.27224e-08
0.00017436
5.14508e-09
0.000174325
-1.13888e-07
0.000174352
1.53205e-10
0.000174284
-2.09039e-07
0.000174329
-1.23399e-08
0.000174216
-3.28796e-07
0.000174277
-4.33239e-08
0.000174123
-4.32532e-07
0.000174187
-1.14597e-07
0.00017402
-4.4994e-07
0.000174053
-2.51258e-07
0.000173927
-3.25508e-07
0.000173893
-4.53123e-07
0.000173851
-8.80729e-08
0.000173736
-6.66087e-07
0.000173778
1.3138e-07
0.000173609
-7.91517e-07
0.000173679
1.69445e-07
0.000173515
-7.43474e-07
0.000173541
-6.11549e-08
0.000173428
-5.33458e-07
0.000173369
-4.92102e-07
0.000173308
-3.1983e-07
0.000173169
-9.28952e-07
0.000173118
-3.2121e-07
0.000172928
-1.22604e-06
0.000172837
-6.28649e-07
0.00017261
-1.42397e-06
0.000172448
-1.15884e-06
0.000172171
-1.69515e-06
0.00017192
-1.78439e-06
0.000171572
-2.18905e-06
0.000171207
-2.48355e-06
0.000170759
-2.947e-06
0.000170252
-3.36607e-06
0.000169659
-3.9694e-06
0.000168977
-4.57494e-06
0.000168176
-5.34237e-06
0.000167261
-6.22544e-06
0.000166181
-7.25131e-06
0.000164931
-8.47277e-06
0.000163483
-9.91438e-06
0.000161756
-1.15743e-05
0.000159779
-1.3586e-05
0.000157421
-1.58565e-05
0.000154614
-1.85873e-05
0.000151376
-2.16654e-05
0.000147346
-2.51976e-05
0.000142631
-2.9214e-05
0.000136772
-3.34441e-05
0.000129594
-3.80885e-05
0.000120593
-4.23947e-05
0.000109327
-4.62831e-05
9.48763e-05
-4.83225e-05
7.64876e-05
-4.75607e-05
5.31795e-05
-4.23762e-05
2.56971e-05
-3.32465e-05
-2.72367e-07
-2.65216e-05
-1.69145e-05
-3.31784e-05
-2.46855e-05
-4.52232e-05
-2.65282e-05
-3.35629e-05
-2.29389e-05
1.45273e-05
-1.33672e-05
8.31831e-05
0.000122156
0.000167205
-3.93396e-08
0.000167213
-3.0314e-09
0.000167182
-8.34411e-08
0.000167196
-1.3988e-08
0.000167138
-1.50351e-07
0.00016716
-3.48052e-08
0.000167063
-2.31994e-07
0.000167093
-7.30203e-08
0.00016696
-2.98887e-07
0.000166985
-1.40596e-07
0.000166839
-3.03348e-07
0.000166836
-2.48511e-07
0.000166722
-2.11827e-07
0.000166659
-3.89634e-07
0.000166621
-5.02074e-08
0.00016648
-5.2504e-07
0.000166523
8.87772e-08
0.000166324
-5.92853e-07
0.000166399
9.46434e-08
0.000166197
-5.42007e-07
0.000166226
-8.99215e-08
0.000166078
-3.85607e-07
0.000166002
-4.15964e-07
0.000165921
-2.38588e-07
0.000165735
-7.4333e-07
0.000165673
-2.59095e-07
0.000165417
-9.69553e-07
0.000165301
-5.13271e-07
0.000165004
-1.12634e-06
0.000164785
-9.39684e-07
0.000164434
-1.34507e-06
0.00016409
-1.43988e-06
0.000163647
-1.74564e-06
0.000163157
-1.99383e-06
0.000162573
-2.36364e-06
0.000161897
-2.68934e-06
0.000161123
-3.19578e-06
0.000160195
-3.64719e-06
0.000159155
-4.30236e-06
0.000157894
-4.96432e-06
0.000156469
-5.82606e-06
0.000154757
-6.76044e-06
0.000152778
-7.93547e-06
0.00015043
-9.22704e-06
0.000147661
-1.08163e-05
0.00014439
-1.25856e-05
0.000140481
-1.46786e-05
0.000135815
-1.69992e-05
0.000130228
-1.9611e-05
0.000123401
-2.2387e-05
0.000115214
-2.52567e-05
0.000105056
-2.79306e-05
9.27801e-05
-3.01189e-05
7.75771e-05
-3.10802e-05
5.93205e-05
-3.00659e-05
3.73729e-05
-2.56131e-05
1.32272e-05
-1.82305e-05
-9.73105e-06
-1.02883e-05
-2.58948e-05
-1.03579e-05
-3.51463e-05
-2.39268e-05
-4.1527e-05
-3.88425e-05
-4.42301e-05
-3.08598e-05
-3.84578e-05
8.75493e-06
-2.08331e-05
6.55584e-05
0.000101323
0.000146802
-2.7119e-08
0.000146804
-4.7661e-09
0.000146776
-5.59978e-08
0.000146777
-1.52414e-08
0.000146725
-9.82889e-08
0.000146725
-3.49032e-08
0.000146641
-1.47102e-07
0.000146637
-6.92697e-08
0.00014652
-1.82057e-07
0.000146504
-1.24821e-07
0.000146374
-1.7361e-07
0.00014633
-2.03953e-07
0.000146224
-1.0608e-07
0.000146129
-2.94466e-07
0.000146083
-4.43072e-09
0.000145924
-3.65836e-07
0.000145945
6.76191e-08
0.000145734
-3.81553e-07
0.000145784
4.48127e-08
0.000145563
-3.21331e-07
0.000145569
-9.6189e-08
0.000145391
-2.07091e-07
0.000145289
-3.14084e-07
0.000145171
-1.20489e-07
0.000144943
-5.15517e-07
0.000144842
-1.58092e-07
0.00014452
-6.47692e-07
0.000144354
-3.47624e-07
0.000143972
-7.44179e-07
0.000143675
-6.42134e-07
0.00014322
-8.90379e-07
0.000142762
-9.81749e-07
0.000142176
-1.1594e-06
0.000141539
-1.35705e-06
0.000140749
-1.57395e-06
0.000139883
-1.82359e-06
0.000138822
-2.13462e-06
0.000137634
-2.45897e-06
0.000136209
-2.87755e-06
0.000134576
-3.33115e-06
0.000132634
-3.88439e-06
0.000130393
-4.5189e-06
0.000127711
-5.25318e-06
0.000124609
-6.12527e-06
0.000120878
-7.08551e-06
0.000116532
-8.23904e-06
0.000111302
-9.44916e-06
0.000105149
-1.08457e-05
9.77434e-05
-1.22058e-05
8.89597e-05
-1.36033e-05
7.8426e-05
-1.47229e-05
6.5942e-05
-1.54467e-05
5.11849e-05
-1.53618e-05
3.42297e-05
-1.4125e-05
1.53239e-05
-1.11601e-05
-3.3641e-06
-6.92509e-06
-1.92214e-05
-2.37316e-06
-2.97422e-05
2.32526e-07
-3.68837e-05
-3.21642e-06
-4.50164e-05
-1.57941e-05
-5.44458e-05
-2.94131e-05
-5.86401e-05
-2.66654e-05
-5.17577e-05
1.87246e-06
-2.9192e-05
4.29927e-05
7.2131e-05
0.000104935
-1.39083e-08
0.000104933
-2.79362e-09
0.000104905
-2.77957e-08
0.000104898
-8.285e-09
0.000104847
-4.73436e-08
0.000104831
-1.88152e-08
0.000104752
-6.82355e-08
0.00010472
-3.7416e-08
0.000104618
-7.96525e-08
0.00010456
-6.71627e-08
0.000104454
-6.74271e-08
0.000104358
-1.07857e-07
0.000104279
-2.69086e-08
0.000104134
-1.5011e-07
0.000104105
2.46637e-08
0.000103915
-1.75494e-07
0.000103929
5.3147e-08
0.000103714
-1.66267e-07
0.00010373
2.90265e-08
0.000103527
-1.1848e-07
0.000103482
-5.1011e-08
0.000103325
-5.02633e-08
0.00010317
-1.5887e-07
0.000103058
-8.63572e-09
0.000102785
-2.42961e-07
0.000102665
-3.74851e-08
0.000102303
-2.86404e-07
0.000102093
-1.37263e-07
0.000101665
-3.16609e-07
0.000101299
-2.76016e-07
0.000100785
-3.75844e-07
0.000100229
-4.26085e-07
9.95618e-05
-4.92139e-07
9.87924e-05
-5.87628e-07
9.78881e-05
-6.69668e-07
9.68506e-05
-7.86005e-07
9.56239e-05
-9.0795e-07
9.4215e-05
-1.05004e-06
9.25601e-05
-1.22266e-06
9.06338e-05
-1.40484e-06
8.83892e-05
-1.63987e-06
8.57508e-05
-1.88049e-06
8.26808e-05
-2.18318e-06
7.90571e-05
-2.50155e-06
7.48379e-05
-2.86633e-06
6.98514e-05
-3.25249e-06
6.4051e-05
-3.64876e-06
5.72172e-05
-4.01194e-06
4.93081e-05
-4.29671e-06
4.01037e-05
-4.39888e-06
2.96426e-05
-4.26187e-06
1.79325e-05
-3.73657e-06
5.47476e-06
-2.90403e-06
-6.76273e-06
-1.88748e-06
-1.70124e-05
-9.10393e-07
-2.41612e-05
2.23659e-07
-2.79939e-05
1.45962e-06
-3.01185e-05
2.35711e-06
-3.3774e-05
4.39023e-07
-4.32182e-05
-6.34992e-06
-5.71113e-05
-1.552e-05
-6.67796e-05
-1.69971e-05
-6.17107e-05
-3.19647e-06
-3.73856e-05
1.86676e-05
3.47454e-05
3.91031e-05
3.91003e-05
3.90725e-05
3.90643e-05
3.90169e-05
3.89981e-05
3.89299e-05
3.88925e-05
3.88128e-05
3.87456e-05
3.86782e-05
3.85704e-05
3.85434e-05
3.83933e-05
3.8418e-05
3.82425e-05
3.82956e-05
3.81294e-05
3.81584e-05
3.80399e-05
3.79889e-05
3.79387e-05
3.77798e-05
3.77711e-05
3.75282e-05
3.74907e-05
3.72043e-05
3.7067e-05
3.67504e-05
3.64744e-05
3.60986e-05
3.56725e-05
3.51803e-05
3.45927e-05
3.3923e-05
3.3137e-05
3.22291e-05
3.11791e-05
2.99564e-05
2.85516e-05
2.69117e-05
2.50312e-05
2.2848e-05
2.03465e-05
1.74801e-05
1.42276e-05
1.05789e-05
6.56694e-06
2.27024e-06
-2.12864e-06
-6.39051e-06
-1.01271e-05
-1.30311e-05
-1.49186e-05
-1.5829e-05
-1.56053e-05
-1.41457e-05
-1.17886e-05
-1.13496e-05
-1.76995e-05
-3.32195e-05
-5.02166e-05
-5.3413e-05
-3.47454e-05
)
;

boundaryField
{
    inlet
    {
        type            calculated;
        value           nonuniform 0();
    }
    outlet
    {
        type            calculated;
        value           nonuniform 0();
    }
    wall
    {
        type            calculated;
        value           uniform 0;
    }
    wedge1
    {
        type            wedge;
        value           nonuniform List<scalar> 
346
(
1.64675e-18
6.76358e-19
2.2066e-18
1.88756e-19
-9.75918e-19
-2.18661e-18
-2.36153e-18
-2.84555e-18
-1.4542e-18
-9.57097e-20
4.52803e-18
2.45873e-18
6.52902e-18
4.95485e-19
-2.6318e-18
-2.91207e-18
-2.41441e-18
-1.98222e-18
-1.20885e-18
-6.52267e-19
9.38112e-18
5.74311e-18
1.34726e-17
1.53078e-18
-5.39664e-18
-3.15115e-18
-2.11149e-18
6.61843e-19
-1.02054e-18
-2.07331e-18
1.61111e-17
1.02299e-17
2.25488e-17
2.78003e-18
-8.7972e-18
-1.95432e-18
-3.40914e-19
6.56193e-18
2.19407e-19
-4.78913e-18
2.24932e-17
1.45305e-17
3.0261e-17
3.93197e-18
-1.1373e-17
2.57275e-18
3.89208e-18
1.71106e-17
2.57733e-18
-9.22048e-18
2.45879e-17
1.59002e-17
3.16969e-17
4.03374e-18
-1.17957e-17
1.23623e-17
1.16179e-17
3.32667e-17
6.0494e-18
-1.52611e-17
1.89468e-17
1.22272e-17
2.37471e-17
3.04182e-18
-7.33006e-18
2.7943e-17
2.26694e-17
5.35202e-17
9.75973e-18
-2.17297e-17
7.70726e-18
5.0349e-18
9.80171e-18
8.01165e-19
2.10203e-18
4.32752e-17
3.36637e-17
7.25532e-17
1.28534e-17
-2.67117e-17
-3.36706e-18
-2.29666e-18
-5.31883e-18
-1.3634e-18
7.99107e-18
5.05622e-17
3.85624e-17
7.89902e-17
1.39173e-17
-2.81429e-17
-6.08441e-18
-3.7789e-18
-5.24563e-18
-7.48014e-19
6.81666e-18
4.47357e-17
3.41616e-17
6.90192e-17
1.16829e-17
-2.13826e-17
5.85312e-18
5.47617e-18
1.53969e-17
3.23158e-18
-1.41748e-18
2.8315e-17
2.11339e-17
4.47539e-17
6.91293e-18
-8.72637e-18
2.71208e-17
2.13731e-17
5.0465e-17
8.82281e-18
-1.70401e-17
1.46425e-17
1.04661e-17
2.47038e-17
3.14222e-18
1.1849e-18
4.81487e-17
3.83611e-17
8.83839e-17
1.49973e-17
-3.21981e-17
1.38039e-17
1.0001e-17
2.76151e-17
3.14296e-18
-7.47143e-19
6.26745e-17
5.03329e-17
1.14406e-16
1.89562e-17
-4.17587e-17
3.01422e-17
2.32628e-17
5.93942e-17
8.1472e-18
-1.28479e-17
7.18611e-17
5.8413e-17
1.32605e-16
2.18355e-17
-4.77042e-17
5.8421e-17
4.62813e-17
1.12623e-16
1.80252e-17
-3.41122e-17
8.55506e-17
7.0064e-17
1.5877e-16
2.6188e-17
-5.61641e-17
9.17235e-17
7.31615e-17
1.75574e-16
2.95439e-17
-5.80284e-17
1.11137e-16
9.22806e-17
2.07849e-16
3.49696e-17
-7.07779e-17
1.29422e-16
1.03072e-16
2.45186e-16
4.2267e-17
-8.30885e-17
1.50379e-16
1.26481e-16
2.84204e-16
4.87416e-17
-9.32704e-17
1.77337e-16
1.4098e-16
3.32243e-16
5.7807e-17
-1.12732e-16
2.03244e-16
1.72271e-16
3.8713e-16
6.76553e-17
-1.25312e-16
2.42448e-16
1.93436e-16
4.51535e-16
7.84431e-17
-1.50718e-16
2.75065e-16
2.33232e-16
5.23273e-16
9.25924e-17
-1.67687e-16
3.30301e-16
2.65177e-16
6.15756e-16
1.06618e-16
-1.99487e-16
3.75572e-16
3.17784e-16
7.09726e-16
1.26292e-16
-2.23237e-16
4.49204e-16
3.63221e-16
8.39268e-16
1.45155e-16
-2.61839e-16
5.16657e-16
4.35065e-16
9.67058e-16
1.71195e-16
-2.94163e-16
6.12796e-16
4.99263e-16
1.14434e-15
1.96969e-16
-3.40999e-16
-5.48622e-15
7.12632e-16
5.95676e-16
1.3179e-15
2.29968e-16
-3.73763e-16
-6.43389e-15
8.39216e-16
6.8731e-16
1.55509e-15
2.63279e-16
-4.19516e-16
-7.542e-15
9.8064e-16
8.13875e-16
1.78506e-15
3.0262e-16
-4.33052e-16
-8.77492e-15
1.15218e-15
9.39189e-16
2.08762e-15
3.39868e-16
-4.46306e-16
-1.03788e-14
1.33442e-15
1.10363e-15
2.36793e-15
3.79094e-16
-3.94307e-16
-1.18989e-14
1.57535e-15
1.25711e-15
2.72037e-15
4.05712e-16
-3.06049e-16
-1.41459e-14
1.78093e-15
1.46402e-15
2.99983e-15
4.24265e-16
-1.11191e-16
-1.58408e-14
2.10583e-15
1.61502e-15
3.32911e-15
4.10022e-16
1.21464e-16
-1.89191e-14
2.29465e-15
1.83794e-15
3.45916e-15
3.68309e-16
3.70023e-16
-2.03557e-14
2.6669e-15
1.91371e-15
3.50716e-15
2.7759e-16
4.09232e-16
-2.38891e-14
2.7393e-15
2.02189e-15
3.03569e-15
1.53799e-16
3.10956e-16
-2.43441e-14
2.97275e-15
1.83928e-15
2.24569e-15
3.72072e-18
1.33836e-16
-2.65907e-14
2.72237e-15
1.55688e-15
1.07531e-15
-7.47571e-17
3.8559e-16
-2.47565e-14
2.45497e-15
9.9134e-16
4.04534e-16
-1.17131e-16
6.4019e-16
-2.33496e-14
1.88423e-15
8.6899e-16
9.80196e-16
7.78314e-17
5.68597e-16
-2.01893e-14
2.00709e-15
1.41583e-15
3.4071e-15
6.02401e-16
-6.7441e-16
-1.96618e-14
2.33621e-15
2.11224e-15
5.09167e-15
1.12626e-15
-2.64029e-15
-1.20552e-14
1.63756e-15
1.49783e-15
4.08081e-15
1.03971e-15
-3.56869e-15
7.63111e-15
-1.03995e-15
-8.04218e-16
-1.11296e-15
3.35183e-18
-1.4995e-15
3.36628e-14
-5.07914e-15
-4.27698e-15
-9.45143e-15
-1.75596e-15
2.50486e-15
4.93123e-14
-7.19206e-15
-6.29915e-15
-1.5009e-14
-3.00558e-15
5.55877e-15
)
;
    }
    wedge2
    {
        type            wedge;
        value           nonuniform List<scalar> 
346
(
5.42323e-19
4.66661e-19
1.8028e-18
1.5799e-19
-8.26636e-19
-3.56637e-18
-1.53468e-18
-1.74461e-18
2.59062e-19
4.63439e-19
2.92074e-18
2.16811e-18
6.04606e-18
7.64497e-19
-2.48793e-18
-4.57384e-18
-2.04584e-18
-9.17521e-19
4.97358e-20
-1.27366e-19
7.68803e-18
5.4442e-18
1.3271e-17
1.79756e-18
-5.24418e-18
-5.05106e-18
-1.62017e-18
1.82332e-18
6.51331e-19
-1.5273e-18
1.42391e-17
1.00384e-17
2.23727e-17
3.35448e-18
-8.59735e-18
-3.91043e-18
8.37598e-20
7.48139e-18
1.79308e-18
-4.27141e-18
2.05306e-17
1.43565e-17
3.03166e-17
4.61488e-18
-1.1129e-17
4.87719e-19
4.13052e-18
1.78465e-17
4.00642e-18
-8.72665e-18
2.24424e-17
1.57241e-17
3.16795e-17
4.80456e-18
-1.15035e-17
1.0121e-17
1.15972e-17
3.3929e-17
7.31955e-18
-1.47947e-17
1.67797e-17
1.20108e-17
2.39802e-17
3.74716e-18
-7.00148e-18
2.55988e-17
2.25433e-17
5.433e-17
1.1265e-17
-2.12446e-17
5.49543e-18
4.98818e-18
1.01957e-17
1.88868e-18
2.49464e-18
4.07962e-17
3.34436e-17
7.29225e-17
1.40866e-17
-2.62482e-17
-5.70285e-18
-2.23297e-18
-4.6054e-18
-8.1452e-20
8.45031e-18
4.79014e-17
3.81927e-17
7.92979e-17
1.49131e-17
-2.772e-17
-8.57424e-18
-3.62623e-18
-4.49369e-18
6.58894e-19
7.32079e-18
4.22074e-17
3.35938e-17
6.9208e-17
1.2597e-17
-2.10061e-17
3.5478e-18
5.75684e-18
1.64888e-17
4.61786e-18
-8.89897e-19
2.57003e-17
2.07339e-17
4.50505e-17
8.09417e-18
-8.34528e-18
2.49498e-17
2.19343e-17
5.17063e-17
1.06361e-17
-1.64198e-17
1.19962e-17
9.98938e-18
2.46673e-17
4.08699e-18
1.52486e-18
4.58266e-17
3.90646e-17
8.99923e-17
1.70088e-17
-3.15288e-17
1.12263e-17
9.41958e-18
2.73042e-17
3.70723e-18
-4.63325e-19
6.02946e-17
5.11794e-17
1.16122e-16
2.11746e-17
-4.10439e-17
2.75045e-17
2.25446e-17
5.9058e-17
8.68101e-18
-1.25987e-17
6.97079e-17
5.91641e-17
1.34381e-16
2.38804e-17
-4.70235e-17
5.58195e-17
4.56341e-17
1.12526e-16
1.86552e-17
-3.38777e-17
8.33414e-17
7.10546e-17
1.60747e-16
2.85519e-17
-5.54675e-17
8.93114e-17
7.27787e-17
1.75437e-16
3.02798e-17
-5.77581e-17
1.0893e-16
9.32118e-17
2.09611e-16
3.71805e-17
-7.00957e-17
1.27124e-16
1.02794e-16
2.45302e-16
4.3045e-17
-8.27777e-17
1.48066e-16
1.27309e-16
2.85767e-16
5.08166e-17
-9.26209e-17
1.7514e-16
1.40894e-16
3.32292e-16
5.86139e-17
-1.1242e-16
2.01032e-16
1.72991e-16
3.88661e-16
6.95719e-17
-1.24668e-16
2.40286e-16
1.93374e-16
4.51789e-16
7.94121e-17
-1.50379e-16
2.72669e-16
2.34074e-16
5.24938e-16
9.48633e-17
-1.67034e-16
3.28223e-16
2.65326e-16
6.16011e-16
1.07696e-16
-1.99083e-16
3.73242e-16
3.1859e-16
7.11219e-16
1.28449e-16
-2.22601e-16
4.4726e-16
3.63517e-16
8.39847e-16
1.46319e-16
-2.61428e-16
5.14401e-16
4.3588e-16
9.6841e-16
1.73209e-16
-2.93565e-16
6.11005e-16
4.9981e-16
1.14499e-15
1.98257e-16
-3.40577e-16
-5.48882e-15
7.10531e-16
5.96564e-16
1.31944e-15
2.31845e-16
-3.73212e-16
-6.43567e-15
8.37653e-16
6.88219e-16
1.5561e-15
2.6472e-16
-4.19111e-16
-7.54448e-15
9.78829e-16
8.15261e-16
1.78681e-15
3.0485e-16
-4.3249e-16
-8.77636e-15
1.15113e-15
9.40577e-16
2.08863e-15
3.41321e-16
-4.45874e-16
-1.03809e-14
1.33304e-15
1.10517e-15
2.3695e-15
3.81104e-16
-3.93784e-16
-1.19e-14
1.57481e-15
1.25898e-15
2.7218e-15
4.07208e-16
-3.05606e-16
-1.41476e-14
1.78002e-15
1.46569e-15
3.00099e-15
4.2612e-16
-1.10725e-16
-1.58416e-14
2.10588e-15
1.61749e-15
3.33069e-15
4.11748e-16
1.21873e-16
-1.89204e-14
2.29449e-15
1.83973e-15
3.4601e-15
3.69409e-16
3.70332e-16
-2.03559e-14
2.668e-15
1.91633e-15
3.50882e-15
2.79475e-16
4.0974e-16
-2.38897e-14
2.73985e-15
2.02422e-15
3.03712e-15
1.56229e-16
3.1159e-16
-2.43435e-14
2.97495e-15
1.84281e-15
2.24733e-15
6.06161e-18
1.34521e-16
-2.65902e-14
2.72398e-15
1.55891e-15
1.07539e-15
-7.36258e-17
3.86002e-16
-2.47549e-14
2.45776e-15
9.94302e-16
4.06886e-16
-1.14588e-16
6.40955e-16
-2.33479e-14
1.88592e-15
8.70798e-16
9.81082e-16
7.93757e-17
5.69046e-16
-2.01871e-14
2.0099e-15
1.42003e-15
3.41072e-15
6.05249e-16
-6.73658e-16
-1.96599e-14
2.33795e-15
2.11465e-15
5.09267e-15
1.12688e-15
-2.63999e-15
-1.20538e-14
1.63864e-15
1.49984e-15
4.08139e-15
1.04049e-15
-3.5686e-15
7.6323e-15
-1.04064e-15
-8.04842e-16
-1.11464e-15
2.46753e-18
-1.49989e-15
3.36627e-14
-5.07907e-15
-4.27632e-15
-9.45117e-15
-1.75599e-15
2.50433e-15
4.93119e-14
-7.19281e-15
-6.30041e-15
-1.50107e-14
-3.0083e-15
5.55684e-15
)
;
    }
    axis
    {
        type            empty;
        value           nonuniform 0();
    }
    procBoundary44to38
    {
        type            processor;
        value           nonuniform List<scalar> 
66
(
1.70384e-05
2.00557e-05
2.3334e-05
2.73402e-05
3.20755e-05
3.71588e-05
4.34358e-05
5.01133e-05
5.75492e-05
6.53173e-05
7.29542e-05
7.94891e-05
8.38813e-05
8.45888e-05
8.05223e-05
7.34476e-05
6.56661e-05
3.98624e-05
-1.81871e-05
-9.28005e-05
-0.000141497
6.85947e-08
-2.0522e-08
1.49517e-07
-2.77506e-08
2.77549e-07
-3.25304e-08
4.41432e-07
-1.80413e-08
5.86658e-07
5.13006e-08
6.16633e-07
2.17685e-07
4.52364e-07
4.86691e-07
1.29827e-07
7.81389e-07
-1.73016e-07
9.60398e-07
-2.40014e-07
9.0769e-07
3.47416e-08
6.46513e-07
5.5113e-07
3.808e-07
1.06821e-06
3.7233e-07
1.41607e-06
7.19902e-07
1.65104e-06
1.32087e-06
1.97133e-06
2.03598e-06
2.5374e-06
2.84793e-06
3.39556e-06
3.87294e-06
4.56209e-06
5.25736e-06
6.14344e-06
7.14005e-06
8.3311e-06
9.72334e-06
1.13616e-05
-0.000165146
1.33014e-05
)
;
    }
    procBoundary44to43
    {
        type            processor;
        value           nonuniform List<scalar> 5(-0.000174361 -0.000167218 -0.000146814 -0.000104948 -3.9117e-05);
    }
}


// ************************************************************************* //
