/*--------------------------------*- C++ -*----------------------------------*\
  =========                 |
  \\      /  F ield         | OpenFOAM: The Open Source CFD Toolbox
   \\    /   O peration     | Website:  https://openfoam.org
    \\  /    A nd           | Version:  7
     \\/     M anipulation  |
\*---------------------------------------------------------------------------*/
FoamFile
{
    version     2.0;
    format      ascii;
    class       surfaceScalarField;
    location    "1.4";
    object      phi;
}
// * * * * * * * * * * * * * * * * * * * * * * * * * * * * * * * * * * * * * //

dimensions      [0 3 -1 0 0 0 0];

internalField   nonuniform List<scalar> 
32582
(
1.08047e-05
-7.80432e-09
1.08277e-05
-2.30359e-08
1.0866e-05
-3.82764e-08
1.0919e-05
-5.30191e-08
1.09859e-05
-6.69399e-08
1.10658e-05
-7.98913e-08
1.11576e-05
-9.17367e-08
1.12599e-05
-1.02361e-07
1.13716e-05
-1.11697e-07
1.14913e-05
-1.19724e-07
1.16178e-05
-1.26457e-07
1.17497e-05
-1.31944e-07
1.1886e-05
-1.36255e-07
1.20255e-05
-1.39479e-07
1.21672e-05
-1.41716e-07
1.23103e-05
-1.4307e-07
1.24539e-05
-1.4365e-07
1.25975e-05
-1.43559e-07
1.27404e-05
-1.42898e-07
1.28821e-05
-1.41759e-07
1.30223e-05
-1.40228e-07
1.31607e-05
-1.38381e-07
1.3297e-05
-1.36286e-07
1.3431e-05
-1.34003e-07
1.35626e-05
-1.31583e-07
1.36917e-05
-1.2907e-07
1.38182e-05
-1.265e-07
1.39421e-05
-1.23906e-07
1.40634e-05
-1.2131e-07
1.41821e-05
-1.18734e-07
1.42983e-05
-1.16194e-07
1.4412e-05
-1.13701e-07
1.45233e-05
-1.11266e-07
1.46322e-05
-1.08894e-07
1.47388e-05
-1.06591e-07
1.48431e-05
-1.04358e-07
1.49453e-05
-1.02196e-07
1.50454e-05
-1.00107e-07
1.51435e-05
-9.80882e-08
1.52397e-05
-9.61385e-08
1.53339e-05
-9.42557e-08
1.54263e-05
-9.2437e-08
1.5517e-05
-9.06795e-08
1.5606e-05
-8.89799e-08
1.56933e-05
-8.73351e-08
1.57791e-05
-8.57416e-08
1.58633e-05
-8.41961e-08
1.5946e-05
-8.26953e-08
1.60272e-05
-8.12359e-08
1.6107e-05
-7.98146e-08
1.61855e-05
-7.84283e-08
1.62625e-05
-7.70738e-08
1.63383e-05
-7.57482e-08
1.64127e-05
-7.44485e-08
1.64859e-05
-7.31719e-08
1.65578e-05
-7.19155e-08
1.66285e-05
-7.06766e-08
1.66979e-05
-6.94525e-08
1.67662e-05
-6.82406e-08
1.68332e-05
-6.70383e-08
1.68991e-05
-6.58432e-08
1.69637e-05
-6.46529e-08
1.70272e-05
-6.34651e-08
1.70895e-05
-6.22776e-08
1.71505e-05
-6.10883e-08
1.72104e-05
-5.98953e-08
1.72691e-05
-5.8697e-08
1.73266e-05
-5.74917e-08
1.73829e-05
-5.62783e-08
1.7438e-05
-5.50557e-08
1.74918e-05
-5.38231e-08
1.75444e-05
-5.258e-08
1.75957e-05
-5.13262e-08
1.76458e-05
-5.00616e-08
1.76945e-05
-4.87864e-08
1.7742e-05
-4.7501e-08
1.77882e-05
-4.62056e-08
1.78331e-05
-4.49009e-08
1.78767e-05
-4.3587e-08
1.7919e-05
-4.22643e-08
1.79599e-05
-4.09327e-08
1.79995e-05
-3.9592e-08
1.80378e-05
-3.82417e-08
1.80746e-05
-3.68809e-08
1.81102e-05
-3.55085e-08
1.81443e-05
-3.41232e-08
1.8177e-05
-3.27236e-08
1.82083e-05
-3.13084e-08
1.82382e-05
-2.98766e-08
1.82666e-05
-2.84275e-08
1.82936e-05
-2.69611e-08
1.83191e-05
-2.54783e-08
1.8343e-05
-2.3981e-08
1.83655e-05
-2.24722e-08
1.83865e-05
-2.09563e-08
1.84059e-05
-1.9439e-08
1.84238e-05
-1.79271e-08
1.84403e-05
-1.64287e-08
1.84552e-05
-1.49526e-08
1.84687e-05
-1.35084e-08
1.84808e-05
-1.21061e-08
1.84916e-05
-1.07555e-08
1.8501e-05
-9.4661e-09
1.85093e-05
-8.24669e-09
1.85164e-05
-7.1049e-09
1.85224e-05
-6.04696e-09
1.85275e-05
-5.07755e-09
1.85317e-05
-4.19957e-09
1.85351e-05
-3.41414e-09
1.85379e-05
-2.72059e-09
1.854e-05
-2.11662e-09
1.85416e-05
-1.5984e-09
1.85427e-05
-1.16087e-09
1.85435e-05
-7.9794e-10
1.8544e-05
-5.0282e-10
1.85443e-05
-2.68272e-10
1.85444e-05
-8.69052e-11
1.85443e-05
4.87048e-11
1.85442e-05
1.45528e-10
1.8544e-05
2.10233e-10
1.85437e-05
2.48887e-10
1.85435e-05
2.66916e-10
1.85432e-05
2.69059e-10
1.85429e-05
2.59361e-10
1.85427e-05
2.41189e-10
1.85425e-05
2.17272e-10
1.85423e-05
1.89755e-10
1.85421e-05
1.60261e-10
1.8542e-05
1.29959e-10
1.85419e-05
9.96263e-11
1.85418e-05
6.97159e-11
1.85418e-05
4.04107e-11
1.85418e-05
1.16783e-11
1.85418e-05
-1.67363e-11
1.85418e-05
-4.51554e-11
1.85419e-05
-7.40675e-11
1.8542e-05
-1.0407e-10
1.85422e-05
-1.35849e-10
1.85423e-05
-1.70178e-10
1.85425e-05
-2.07925e-10
1.85428e-05
-2.50068e-10
1.85431e-05
-2.977e-10
1.85434e-05
-3.52057e-10
1.85438e-05
-4.14537e-10
1.85443e-05
-4.86738e-10
1.85449e-05
-5.70489e-10
1.85456e-05
-6.67896e-10
1.85464e-05
-7.81394e-10
1.85473e-05
-9.13803e-10
1.85483e-05
-1.0684e-09
1.85496e-05
-1.249e-09
1.8551e-05
-1.46005e-09
1.85528e-05
-1.70672e-09
1.85547e-05
-1.99506e-09
1.85571e-05
-2.33211e-09
1.85598e-05
-2.72612e-09
1.8563e-05
-3.1867e-09
1.85667e-05
-3.72505e-09
1.85711e-05
-4.35427e-09
1.85762e-05
-5.08965e-09
1.85821e-05
-5.94899e-09
1.85891e-05
-6.95308e-09
1.85972e-05
-8.12613e-09
1.86067e-05
-9.49636e-09
1.86178e-05
-1.10966e-08
1.86307e-05
-1.2965e-08
1.86459e-05
-1.5146e-08
1.86636e-05
-1.7691e-08
1.86842e-05
-2.06598e-08
1.87084e-05
-2.41213e-08
1.87365e-05
-2.81553e-08
1.87694e-05
-3.28536e-08
1.88077e-05
-3.83217e-08
1.88524e-05
-4.46802e-08
1.89044e-05
-5.20667e-08
1.89651e-05
-6.06373e-08
1.90356e-05
-7.05678e-08
1.91177e-05
-8.20547e-08
1.9213e-05
-9.5316e-08
1.93236e-05
-1.1059e-07
1.94517e-05
-1.28133e-07
1.96e-05
-1.48217e-07
1.97711e-05
-1.7112e-07
1.99682e-05
-1.97118e-07
2.01947e-05
-2.26468e-07
2.04541e-05
-2.59387e-07
2.07501e-05
-2.96024e-07
2.10865e-05
-3.36425e-07
2.1467e-05
-3.80485e-07
2.18949e-05
-4.27905e-07
2.2373e-05
-4.78126e-07
2.29033e-05
-5.30288e-07
2.34865e-05
-5.83168e-07
2.41216e-05
-6.35175e-07
2.4806e-05
-6.84334e-07
2.55344e-05
-7.28376e-07
2.62992e-05
-7.64828e-07
2.70904e-05
-7.91228e-07
2.78958e-05
-8.0538e-07
-8.0562e-07
2.87014e-05
3.24138e-05
-3.10287e-08
3.24837e-05
-9.30144e-08
3.25996e-05
-1.54177e-07
3.27599e-05
-2.13287e-07
3.29622e-05
-2.69253e-07
3.32036e-05
-3.21302e-07
3.34807e-05
-3.68841e-07
3.37898e-05
-4.11432e-07
3.41269e-05
-4.48815e-07
3.44881e-05
-4.80911e-07
3.48694e-05
-5.07792e-07
3.52672e-05
-5.29654e-07
3.56777e-05
-5.46791e-07
3.60978e-05
-5.59564e-07
3.65244e-05
-5.6838e-07
3.6955e-05
-5.73666e-07
3.73872e-05
-5.75855e-07
3.78191e-05
-5.75368e-07
3.82488e-05
-5.72607e-07
3.86749e-05
-5.67943e-07
3.90964e-05
-5.6172e-07
3.95123e-05
-5.54242e-07
3.99218e-05
-5.45781e-07
4.03244e-05
-5.36575e-07
4.07196e-05
-5.26827e-07
4.11073e-05
-5.16713e-07
4.14871e-05
-5.06377e-07
4.18592e-05
-4.95941e-07
4.22234e-05
-4.85506e-07
4.25798e-05
-4.75151e-07
4.29285e-05
-4.64938e-07
4.32697e-05
-4.54917e-07
4.36036e-05
-4.45124e-07
4.39303e-05
-4.35585e-07
4.425e-05
-4.26317e-07
4.4563e-05
-4.17331e-07
4.48694e-05
-4.08631e-07
4.51695e-05
-4.00217e-07
4.54635e-05
-3.92085e-07
4.57516e-05
-3.84229e-07
4.6034e-05
-3.7664e-07
4.63109e-05
-3.69306e-07
4.65824e-05
-3.62217e-07
4.68488e-05
-3.5536e-07
4.71102e-05
-3.48723e-07
4.73667e-05
-3.42291e-07
4.76186e-05
-3.36051e-07
4.78659e-05
-3.29992e-07
4.81087e-05
-3.24099e-07
4.83473e-05
-3.18359e-07
4.85816e-05
-3.12761e-07
4.88118e-05
-3.07292e-07
4.9038e-05
-3.0194e-07
4.92603e-05
-2.96694e-07
4.94786e-05
-2.91541e-07
4.96932e-05
-2.86472e-07
4.9904e-05
-2.81474e-07
5.01111e-05
-2.76538e-07
5.03145e-05
-2.71653e-07
5.05143e-05
-2.66809e-07
5.07104e-05
-2.61996e-07
5.0903e-05
-2.57204e-07
5.10919e-05
-2.52424e-07
5.12773e-05
-2.47648e-07
5.14591e-05
-2.42867e-07
5.16373e-05
-2.38073e-07
5.18118e-05
-2.3326e-07
5.19827e-05
-2.28422e-07
5.215e-05
-2.23552e-07
5.23136e-05
-2.18648e-07
5.24735e-05
-2.13706e-07
5.26296e-05
-2.08723e-07
5.2782e-05
-2.03699e-07
5.29306e-05
-1.98634e-07
5.30753e-05
-1.93527e-07
5.32162e-05
-1.88381e-07
5.33532e-05
-1.83196e-07
5.34863e-05
-1.77974e-07
5.36154e-05
-1.72717e-07
5.37406e-05
-1.67426e-07
5.38617e-05
-1.621e-07
5.39789e-05
-1.56738e-07
5.4092e-05
-1.51339e-07
5.4201e-05
-1.459e-07
5.43059e-05
-1.40415e-07
5.44067e-05
-1.34881e-07
5.45032e-05
-1.29292e-07
5.45956e-05
-1.23643e-07
5.46836e-05
-1.17931e-07
5.47673e-05
-1.12153e-07
5.48467e-05
-1.0631e-07
5.49216e-05
-1.00407e-07
5.49921e-05
-9.44498e-08
5.50581e-05
-8.84528e-08
5.51195e-05
-8.2433e-08
5.51765e-05
-7.64132e-08
5.5229e-05
-7.04207e-08
5.52771e-05
-6.44874e-08
5.53208e-05
-5.86485e-08
5.53602e-05
-5.29418e-08
5.53955e-05
-4.74062e-08
5.54268e-05
-4.20803e-08
5.54544e-05
-3.70012e-08
5.54783e-05
-3.22027e-08
5.54989e-05
-2.77143e-08
5.55164e-05
-2.35599e-08
5.55311e-05
-1.97573e-08
5.55432e-05
-1.6317e-08
5.55531e-05
-1.32428e-08
5.55609e-05
-1.05314e-08
5.55669e-05
-8.17309e-09
5.55715e-05
-6.15219e-09
5.55748e-05
-4.44832e-09
5.5577e-05
-3.03716e-09
5.55784e-05
-1.8917e-09
5.55791e-05
-9.83226e-10
5.55793e-05
-2.82462e-10
5.55791e-05
2.39613e-10
5.55787e-05
6.10668e-10
5.5578e-05
8.56784e-10
5.55773e-05
1.00175e-09
5.55765e-05
1.06679e-09
5.55757e-05
1.07042e-09
5.55749e-05
1.02841e-09
5.55742e-05
9.5388e-10
5.55735e-05
8.57423e-10
5.5573e-05
7.47359e-10
5.55725e-05
6.29961e-10
5.55721e-05
5.09726e-10
5.55718e-05
3.8963e-10
5.55716e-05
2.71379e-10
5.55715e-05
1.55633e-10
5.55715e-05
4.22054e-11
5.55715e-05
-6.99382e-11
5.55717e-05
-1.82124e-10
5.55719e-05
-2.96306e-10
5.55722e-05
-4.1484e-10
5.55726e-05
-5.40453e-10
5.55731e-05
-6.76222e-10
5.55737e-05
-8.25596e-10
5.55745e-05
-9.92435e-10
5.55754e-05
-1.18108e-09
5.55764e-05
-1.39641e-09
5.55776e-05
-1.64399e-09
5.55791e-05
-1.93013e-09
5.55808e-05
-2.26209e-09
5.55828e-05
-2.6482e-09
5.55851e-05
-3.09813e-09
5.55878e-05
-3.62305e-09
5.55909e-05
-4.23596e-09
5.55947e-05
-4.95196e-09
5.5599e-05
-5.78869e-09
5.5604e-05
-6.76667e-09
5.561e-05
-7.90986e-09
5.56169e-05
-9.24623e-09
5.5625e-05
-1.08084e-08
5.56344e-05
-1.26345e-08
5.56454e-05
-1.47691e-08
5.56584e-05
-1.7264e-08
5.56734e-05
-2.01798e-08
5.56911e-05
-2.35872e-08
5.57117e-05
-2.75686e-08
5.57358e-05
-3.22201e-08
5.57639e-05
-3.76537e-08
5.57969e-05
-4.39995e-08
5.58353e-05
-5.14092e-08
5.58802e-05
-6.00589e-08
5.59327e-05
-7.0153e-08
5.59939e-05
-8.19284e-08
5.60655e-05
-9.56595e-08
5.6149e-05
-1.11663e-07
5.62464e-05
-1.30304e-07
5.63601e-05
-1.52002e-07
5.64927e-05
-1.77237e-07
5.66472e-05
-2.06558e-07
5.68271e-05
-2.40587e-07
5.70366e-05
-2.80025e-07
5.72802e-05
-3.25659e-07
5.75632e-05
-3.7836e-07
5.78917e-05
-4.39084e-07
5.82724e-05
-5.08866e-07
5.8713e-05
-5.88799e-07
5.92219e-05
-6.80015e-07
5.98084e-05
-7.83639e-07
6.04827e-05
-9.00728e-07
6.12555e-05
-1.03219e-06
6.21382e-05
-1.17868e-06
6.31422e-05
-1.34044e-06
6.42788e-05
-1.51713e-06
6.55586e-05
-1.70763e-06
6.69902e-05
-1.90978e-06
6.85801e-05
-2.1202e-06
7.0331e-05
-2.33402e-06
7.22407e-05
-2.54487e-06
7.43011e-05
-2.74473e-06
7.64971e-05
-2.92435e-06
7.88057e-05
-3.0735e-06
8.11965e-05
-3.18198e-06
8.36317e-05
-3.2406e-06
-3.24228e-06
8.60684e-05
5.40236e-05
-7.04394e-08
5.41423e-05
-2.1168e-07
5.43389e-05
-3.50774e-07
5.46106e-05
-4.84999e-07
5.49534e-05
-6.12034e-07
5.53622e-05
-7.30057e-07
5.5831e-05
-8.37671e-07
5.63534e-05
-9.33894e-07
5.69228e-05
-1.01817e-06
5.75322e-05
-1.09034e-06
5.8175e-05
-1.15061e-06
5.88448e-05
-1.19946e-06
5.95356e-05
-1.23757e-06
6.02419e-05
-1.26581e-06
6.09586e-05
-1.28512e-06
6.16814e-05
-1.29647e-06
6.24064e-05
-1.30086e-06
6.31303e-05
-1.29926e-06
6.38503e-05
-1.29256e-06
6.4564e-05
-1.28163e-06
6.52695e-05
-1.26721e-06
6.59652e-05
-1.25001e-06
6.66501e-05
-1.23063e-06
6.73231e-05
-1.20961e-06
6.79837e-05
-1.18738e-06
6.86313e-05
-1.16435e-06
6.92658e-05
-1.14084e-06
6.98869e-05
-1.11712e-06
7.04949e-05
-1.09341e-06
7.10896e-05
-1.06988e-06
7.16713e-05
-1.04668e-06
7.22403e-05
-1.0239e-06
7.27968e-05
-1.00164e-06
7.33412e-05
-9.7995e-07
7.38737e-05
-9.58867e-07
7.43948e-05
-9.38414e-07
7.49048e-05
-9.18603e-07
7.5404e-05
-8.99432e-07
7.58928e-05
-8.80894e-07
7.63716e-05
-8.62974e-07
7.68406e-05
-8.45653e-07
7.73002e-05
-8.28908e-07
7.77507e-05
-8.12714e-07
7.81924e-05
-7.97043e-07
7.86255e-05
-7.81867e-07
7.90504e-05
-7.67157e-07
7.94672e-05
-7.52885e-07
7.98762e-05
-7.39021e-07
8.02777e-05
-7.25537e-07
8.06717e-05
-7.12406e-07
8.10585e-05
-6.99598e-07
8.14383e-05
-6.87088e-07
8.18113e-05
-6.74849e-07
8.21774e-05
-6.62855e-07
8.2537e-05
-6.51081e-07
8.289e-05
-6.39502e-07
8.32366e-05
-6.28094e-07
8.35769e-05
-6.16833e-07
8.39109e-05
-6.05696e-07
8.42388e-05
-5.94661e-07
8.45605e-05
-5.83704e-07
8.48761e-05
-5.72805e-07
8.51856e-05
-5.61943e-07
8.54891e-05
-5.51097e-07
8.57865e-05
-5.40249e-07
8.60778e-05
-5.29383e-07
8.6363e-05
-5.18481e-07
8.66421e-05
-5.0753e-07
8.69151e-05
-4.96518e-07
8.71818e-05
-4.85436e-07
8.74424e-05
-4.74275e-07
8.76967e-05
-4.6303e-07
8.79447e-05
-4.51699e-07
8.81864e-05
-4.40279e-07
8.84216e-05
-4.28773e-07
8.86504e-05
-4.17182e-07
8.88727e-05
-4.0551e-07
8.90885e-05
-3.93758e-07
8.92977e-05
-3.81931e-07
8.95003e-05
-3.7003e-07
8.96963e-05
-3.58054e-07
8.98855e-05
-3.46003e-07
9.00681e-05
-3.33872e-07
9.02438e-05
-3.21655e-07
9.04128e-05
-3.09343e-07
9.05748e-05
-2.96926e-07
9.07299e-05
-2.84396e-07
9.0878e-05
-2.71742e-07
9.1019e-05
-2.58957e-07
9.11529e-05
-2.4604e-07
9.12796e-05
-2.32994e-07
9.1399e-05
-2.19829e-07
9.15111e-05
-2.06565e-07
9.16159e-05
-1.93232e-07
9.17134e-05
-1.7987e-07
9.18035e-05
-1.66531e-07
9.18863e-05
-1.53276e-07
9.1962e-05
-1.40175e-07
9.20307e-05
-1.27306e-07
9.20925e-05
-1.14752e-07
9.21477e-05
-1.02597e-07
9.21965e-05
-9.09238e-08
9.22393e-05
-7.98127e-08
9.22765e-05
-6.93355e-08
9.23083e-05
-5.95539e-08
9.23353e-05
-5.05177e-08
9.23578e-05
-4.22626e-08
9.23763e-05
-3.4809e-08
9.23912e-05
-2.8162e-08
9.2403e-05
-2.23119e-08
9.2412e-05
-1.72347e-08
9.24188e-05
-1.28943e-08
9.24236e-05
-9.24414e-09
9.24268e-05
-6.2297e-09
9.24287e-05
-3.7908e-09
9.24295e-05
-1.86401e-09
9.24296e-05
-3.8492e-10
9.24292e-05
7.10141e-10
9.24283e-05
1.48133e-09
9.24272e-05
1.98546e-09
9.24259e-05
2.27408e-09
9.24246e-05
2.39304e-09
9.24233e-05
2.38222e-09
9.2422e-05
2.27551e-09
9.24209e-05
2.10098e-09
9.24198e-05
1.88125e-09
9.2419e-05
1.63397e-09
9.24182e-05
1.37242e-09
9.24176e-05
1.106e-09
9.24172e-05
8.40885e-10
9.24169e-05
5.80496e-10
9.24167e-05
3.26035e-10
9.24166e-05
7.69479e-11
9.24167e-05
-1.69371e-10
9.2417e-05
-4.15785e-10
9.24174e-05
-6.66776e-10
9.24179e-05
-9.27558e-10
9.24185e-05
-1.2042e-09
9.24194e-05
-1.50352e-09
9.24204e-05
-1.83315e-09
9.24216e-05
-2.20164e-09
9.2423e-05
-2.61856e-09
9.24247e-05
-3.09474e-09
9.24267e-05
-3.64244e-09
9.24291e-05
-4.27563e-09
9.24318e-05
-5.01037e-09
9.2435e-05
-5.86512e-09
9.24388e-05
-6.86124e-09
9.24432e-05
-8.02349e-09
9.24483e-05
-9.38063e-09
9.24543e-05
-1.09661e-08
9.24614e-05
-1.2819e-08
9.24696e-05
-1.49847e-08
9.24792e-05
-1.75164e-08
9.24904e-05
-2.04759e-08
9.25036e-05
-2.39355e-08
9.25189e-05
-2.79798e-08
9.25368e-05
-3.27071e-08
9.25578e-05
-3.82327e-08
9.25823e-05
-4.46907e-08
9.2611e-05
-5.22378e-08
9.26445e-05
-6.10566e-08
9.26836e-05
-7.13602e-08
9.27293e-05
-8.33966e-08
9.27828e-05
-9.74549e-08
9.28453e-05
-1.13871e-07
9.29182e-05
-1.33036e-07
9.30035e-05
-1.55404e-07
9.31031e-05
-1.81501e-07
9.32193e-05
-2.11937e-07
9.33551e-05
-2.47415e-07
9.35135e-05
-2.88749e-07
9.36984e-05
-3.36873e-07
9.3914e-05
-3.92859e-07
9.41654e-05
-4.5793e-07
9.44583e-05
-5.33478e-07
9.47993e-05
-6.21076e-07
9.51962e-05
-7.22489e-07
9.56575e-05
-8.39683e-07
9.61932e-05
-9.7482e-07
9.68146e-05
-1.13025e-06
9.75343e-05
-1.30847e-06
9.83663e-05
-1.51208e-06
9.93264e-05
-1.74371e-06
0.000100432
-2.00586e-06
0.0001017
-2.30073e-06
0.000103151
-2.62999e-06
0.000104805
-2.99445e-06
0.000106682
-3.39363e-06
0.0001088
-3.82532e-06
0.000111175
-4.28499e-06
0.00011382
-4.76532e-06
0.000116741
-5.25546e-06
0.000119938
-5.74106e-06
0.000123396
-6.20362e-06
0.000127094
-6.62174e-06
0.000130991
-6.9711e-06
0.000135037
-7.22733e-06
0.000139164
-7.36799e-06
-7.3754e-06
0.000143297
7.56346e-05
-1.27139e-07
7.58053e-05
-3.8232e-07
7.60879e-05
-6.33435e-07
7.64784e-05
-8.75448e-07
7.69705e-05
-1.10419e-06
7.75568e-05
-1.31632e-06
7.82284e-05
-1.50928e-06
7.89758e-05
-1.68133e-06
7.97892e-05
-1.83154e-06
8.06586e-05
-1.95972e-06
8.15743e-05
-2.0663e-06
8.2527e-05
-2.15223e-06
8.35083e-05
-2.21886e-06
8.45103e-05
-2.26777e-06
8.55259e-05
-2.30072e-06
8.65489e-05
-2.31951e-06
8.7574e-05
-2.32595e-06
8.85966e-05
-2.32179e-06
8.96126e-05
-2.30865e-06
9.06191e-05
-2.28805e-06
9.16132e-05
-2.26136e-06
9.2593e-05
-2.22979e-06
9.35568e-05
-2.19443e-06
9.45034e-05
-2.1562e-06
9.54319e-05
-2.11591e-06
9.63418e-05
-2.07423e-06
9.72327e-05
-2.03173e-06
9.81044e-05
-1.98888e-06
9.89571e-05
-1.94606e-06
9.97908e-05
-1.90359e-06
0.000100606
-1.8617e-06
0.000101402
-1.82058e-06
0.000102181
-1.78037e-06
0.000102942
-1.74117e-06
0.000103687
-1.70305e-06
0.000104414
-1.66605e-06
0.000105126
-1.63019e-06
0.000105822
-1.59546e-06
0.000106503
-1.56186e-06
0.000107169
-1.52936e-06
0.000107821
-1.49792e-06
0.00010846
-1.46752e-06
0.000109085
-1.43809e-06
0.000109698
-1.40961e-06
0.000110298
-1.38202e-06
0.000110886
-1.35526e-06
0.000111463
-1.3293e-06
0.000112028
-1.30408e-06
0.000112582
-1.27956e-06
0.000113125
-1.25567e-06
0.000113658
-1.23238e-06
0.00011418
-1.20965e-06
0.000114693
-1.18741e-06
0.000115196
-1.16563e-06
0.000115689
-1.14427e-06
0.000116173
-1.12327e-06
0.000116647
-1.10261e-06
0.000117113
-1.08223e-06
0.000117569
-1.06209e-06
0.000118017
-1.04216e-06
0.000118455
-1.02239e-06
0.000118885
-1.00275e-06
0.000119306
-9.83198e-07
0.000119719
-9.63699e-07
0.000120123
-9.4422e-07
0.000120518
-9.24729e-07
0.000120905
-9.05197e-07
0.000121283
-8.85599e-07
0.000121653
-8.65913e-07
0.000122013
-8.46121e-07
0.000122365
-8.26207e-07
0.000122708
-8.06161e-07
0.000123043
-7.85976e-07
0.000123368
-7.65651e-07
0.000123684
-7.45184e-07
0.000123992
-7.24578e-07
0.00012429
-7.03838e-07
0.000124579
-6.82969e-07
0.000124859
-6.61974e-07
0.00012513
-6.40857e-07
0.000125392
-6.19617e-07
0.000125644
-5.98253e-07
0.000125887
-5.76759e-07
0.00012612
-5.55124e-07
0.000126344
-5.33336e-07
0.000126559
-5.11382e-07
0.000126764
-4.89247e-07
0.000126959
-4.6692e-07
0.000127144
-4.44393e-07
0.00012732
-4.21666e-07
0.000127486
-3.98751e-07
0.000127641
-3.75671e-07
0.000127787
-3.52464e-07
0.000127923
-3.29187e-07
0.000128049
-3.05913e-07
0.000128166
-2.82733e-07
0.000128272
-2.59756e-07
0.000128369
-2.37103e-07
0.000128457
-2.14909e-07
0.000128535
-1.93314e-07
0.000128605
-1.7246e-07
0.000128667
-1.52486e-07
0.00012872
-1.33525e-07
0.000128767
-1.15692e-07
0.000128806
-9.90885e-08
0.000128839
-8.37919e-08
0.000128867
-6.9856e-08
0.000128889
-5.73087e-08
0.000128907
-4.61517e-08
0.000128922
-3.63616e-08
0.000128932
-2.78921e-08
0.00012894
-2.06762e-08
0.000128945
-1.46302e-08
0.000128949
-9.65789e-09
0.000128951
-5.65407e-09
0.000128951
-2.5089e-09
0.000128951
-1.1174e-10
0.00012895
1.64609e-09
0.000128949
2.8669e-09
0.000128947
3.64676e-09
0.000128945
4.07244e-09
0.000128943
4.22083e-09
0.000128942
4.15851e-09
0.00012894
3.94181e-09
0.000128938
3.61718e-09
0.000128937
3.22186e-09
0.000128936
2.78473e-09
0.000128935
2.32732e-09
0.000128934
1.86474e-09
0.000128934
1.40665e-09
0.000128933
9.58204e-10
0.000128933
5.20879e-10
0.000128933
9.33238e-11
0.000128933
-3.29593e-10
0.000128934
-7.5272e-10
0.000128934
-1.18422e-09
0.000128935
-1.63319e-09
0.000128936
-2.11017e-09
0.000128937
-2.62704e-09
0.000128938
-3.19705e-09
0.00012894
-3.83499e-09
0.000128942
-4.55748e-09
0.000128944
-5.38327e-09
0.000128947
-6.33363e-09
0.00012895
-7.43281e-09
0.000128954
-8.70865e-09
0.000128958
-1.01932e-08
0.000128963
-1.19236e-08
0.000128969
-1.39428e-08
0.000128976
-1.63007e-08
0.000128984
-1.90556e-08
0.000128993
-2.22752e-08
0.000129004
-2.60385e-08
0.000129017
-3.04377e-08
0.000129032
-3.55806e-08
0.00012905
-4.15929e-08
0.000129071
-4.86212e-08
0.000129095
-5.6837e-08
0.000129123
-6.64402e-08
0.000129156
-7.76645e-08
0.000129195
-9.07822e-08
0.00012924
-1.06111e-07
0.000129292
-1.24022e-07
0.000129354
-1.44947e-07
0.000129426
-1.69389e-07
0.00012951
-1.97933e-07
0.000129608
-2.31262e-07
0.000129723
-2.70165e-07
0.000129857
-3.15562e-07
0.000130014
-3.68517e-07
0.000130196
-4.30261e-07
0.00013041
-5.02216e-07
0.000130659
-5.86018e-07
0.00013095
-6.83548e-07
0.000131289
-7.96958e-07
0.000131684
-9.28699e-07
0.000132144
-1.08155e-06
0.000132681
-1.25864e-06
0.000133304
-1.46347e-06
0.000134029
-1.6999e-06
0.000134871
-1.97215e-06
0.000135848
-2.28478e-06
0.000136978
-2.64254e-06
0.000138285
-3.0503e-06
0.000139792
-3.5128e-06
0.000141525
-4.03438e-06
0.000143514
-4.61852e-06
0.000145787
-5.26728e-06
0.000148374
-5.98058e-06
0.000151304
-6.75534e-06
0.000154603
-7.58436e-06
0.000158293
-8.45536e-06
0.000162387
-9.34952e-06
0.000166887
-1.02414e-05
0.000171781
-1.1097e-05
0.000177036
-1.18771e-05
0.0001826
-1.25346e-05
0.000188395
-1.30229e-05
0.000194324
-1.3297e-05
-1.33205e-05
0.000200269
9.72472e-05
-2.02741e-07
9.74747e-05
-6.09846e-07
9.78515e-05
-1.01021e-06
9.83716e-05
-1.3955e-06
9.90263e-05
-1.75895e-06
9.98052e-05
-2.09514e-06
0.000100696
-2.4e-06
0.000101685
-2.67082e-06
0.00010276
-2.90625e-06
0.000103907
-3.10617e-06
0.000105112
-3.27146e-06
0.000106363
-3.40383e-06
0.00010765
-3.50555e-06
0.000108962
-3.57929e-06
0.000110289
-3.62793e-06
0.000111624
-3.65442e-06
0.000112959
-3.66166e-06
0.00011429
-3.65242e-06
0.000115611
-3.62931e-06
0.000116917
-3.59469e-06
0.000118207
-3.55071e-06
0.000119476
-3.49927e-06
0.000120724
-3.44204e-06
0.000121948
-3.38045e-06
0.000123148
-3.31574e-06
0.000124323
-3.24894e-06
0.000125472
-3.18093e-06
0.000126595
-3.11243e-06
0.000127693
-3.04401e-06
0.000128766
-2.97617e-06
0.000129813
-2.90925e-06
0.000130836
-2.84356e-06
0.000131835
-2.77929e-06
0.000132811
-2.71662e-06
0.000133763
-2.65563e-06
0.000134694
-2.59641e-06
0.000135602
-2.53896e-06
0.00013649
-2.48331e-06
0.000137358
-2.42942e-06
0.000138206
-2.37727e-06
0.000139035
-2.3268e-06
0.000139845
-2.27797e-06
0.000140638
-2.2307e-06
0.000141413
-2.18492e-06
0.000142171
-2.14057e-06
0.000142914
-2.09757e-06
0.00014364
-2.05584e-06
0.000144352
-2.01531e-06
0.000145048
-1.97591e-06
0.00014573
-1.93755e-06
0.000146398
-1.90018e-06
0.000147052
-1.8637e-06
0.000147692
-1.82806e-06
0.00014832
-1.79319e-06
0.000148935
-1.75901e-06
0.000149537
-1.72546e-06
0.000150127
-1.69248e-06
0.000150704
-1.65999e-06
0.00015127
-1.62793e-06
0.000151824
-1.59624e-06
0.000152367
-1.56486e-06
0.000152898
-1.53373e-06
0.000153417
-1.50278e-06
0.000153926
-1.47196e-06
0.000154423
-1.44122e-06
0.000154908
-1.41051e-06
0.000155383
-1.37977e-06
0.000155846
-1.34898e-06
0.000156299
-1.31808e-06
0.000156739
-1.28706e-06
0.000157169
-1.25588e-06
0.000157588
-1.22453e-06
0.000157995
-1.19299e-06
0.00015839
-1.16126e-06
0.000158774
-1.12934e-06
0.000159147
-1.09722e-06
0.000159508
-1.06492e-06
0.000159857
-1.03243e-06
0.000160195
-9.99767e-07
0.000160521
-9.6693e-07
0.000160836
-9.33921e-07
0.000161138
-9.00738e-07
0.000161429
-8.67373e-07
0.000161707
-8.33815e-07
0.000161974
-8.00051e-07
0.000162229
-7.66064e-07
0.000162471
-7.31841e-07
0.000162702
-6.9737e-07
0.00016292
-6.62649e-07
0.000163126
-6.27688e-07
0.00016332
-5.92511e-07
0.000163501
-5.57165e-07
0.000163671
-5.21716e-07
0.000163828
-4.86256e-07
0.000163973
-4.50903e-07
0.000164106
-4.15799e-07
0.000164227
-3.81111e-07
0.000164337
-3.47022e-07
0.000164436
-3.13732e-07
0.000164524
-2.81446e-07
0.000164602
-2.50373e-07
0.00016467
-2.20713e-07
0.000164729
-1.9265e-07
0.00016478
-1.66349e-07
0.000164823
-1.41944e-07
0.000164859
-1.1954e-07
0.000164888
-9.92003e-08
0.000164912
-8.09539e-08
0.00016493
-6.47901e-08
0.000164944
-5.06622e-08
0.000164955
-3.84901e-08
0.000164963
-2.81656e-08
0.000164967
-1.95572e-08
0.00016497
-1.25161e-08
0.000164972
-6.88249e-09
0.000164972
-2.49094e-09
0.000164971
8.23964e-10
0.000164969
3.22186e-09
0.000164967
4.8545e-09
0.000164965
5.86187e-09
0.000164963
6.37013e-09
0.00016496
6.4905e-09
0.000164958
6.31875e-09
0.000164956
5.93544e-09
0.000164954
5.40661e-09
0.000164953
4.78485e-09
0.000164951
4.11062e-09
0.00016495
3.41371e-09
0.00016495
2.7147e-09
0.000164949
2.02638e-09
0.000164948
1.3551e-09
0.000164948
7.0193e-10
0.000164948
6.3997e-11
0.000164949
-5.67013e-10
0.000164949
-1.19885e-09
0.00016495
-1.84412e-09
0.000164951
-2.51688e-09
0.000164952
-3.23311e-09
0.000164953
-4.01075e-09
0.000164955
-4.86984e-09
0.000164957
-5.83277e-09
0.000164959
-6.92467e-09
0.000164962
-8.17386e-09
0.000164965
-9.6125e-09
0.000164969
-1.12773e-08
0.000164974
-1.32104e-08
0.000164979
-1.54604e-08
0.000164985
-1.80834e-08
0.000164992
-2.11447e-08
0.000165001
-2.47198e-08
0.00016501
-2.88971e-08
0.000165022
-3.37793e-08
0.000165035
-3.94863e-08
0.000165051
-4.61579e-08
0.000165069
-5.39575e-08
0.000165091
-6.30758e-08
0.000165116
-7.37355e-08
0.000165145
-8.61966e-08
0.00016518
-1.00763e-07
0.00016522
-1.17789e-07
0.000165267
-1.37688e-07
0.000165322
-1.60943e-07
0.000165386
-1.88117e-07
0.000165461
-2.19866e-07
0.000165548
-2.56957e-07
0.000165651
-3.00278e-07
0.00016577
-3.50868e-07
0.00016591
-4.09931e-07
0.000166073
-4.78867e-07
0.000166264
-5.593e-07
0.000166487
-6.53111e-07
0.000166747
-7.62473e-07
0.000167051
-8.89895e-07
0.000167406
-1.03826e-06
0.00016782
-1.21088e-06
0.000168302
-1.41154e-06
0.000168865
-1.64454e-06
0.000169522
-1.91474e-06
0.000170286
-2.22761e-06
0.000171175
-2.58921e-06
0.000172209
-3.00624e-06
0.00017341
-3.48595e-06
0.000174804
-4.03606e-06
0.000176418
-4.66457e-06
0.000178285
-5.37947e-06
0.000180439
-6.18831e-06
0.000182918
-7.09757e-06
0.000185762
-8.11179e-06
0.000189014
-9.23244e-06
0.000192715
-1.04565e-05
0.000196905
-1.17746e-05
0.000201619
-1.31694e-05
0.000206882
-1.46125e-05
0.000212706
-1.6065e-05
0.00021908
-1.74715e-05
0.000225972
-1.87687e-05
0.000233312
-1.98745e-05
0.000240999
-2.07103e-05
0.000248895
-2.11924e-05
-2.12534e-05
0.000256828
0.000118862
-2.99507e-07
0.000119153
-9.01135e-07
0.000119636
-1.49236e-06
0.0001203
-2.06034e-06
0.000121136
-2.59474e-06
0.000122128
-3.08742e-06
0.000123261
-3.53238e-06
0.000124516
-3.9258e-06
0.000125876
-4.26597e-06
0.000127322
-4.55305e-06
0.00012884
-4.78869e-06
0.000130412
-4.97573e-06
0.000132024
-5.1178e-06
0.000133664
-5.21906e-06
0.00013532
-5.2839e-06
0.000136982
-5.31678e-06
0.000138642
-5.32201e-06
0.000140293
-5.30368e-06
0.00014193
-5.26559e-06
0.000143546
-5.21117e-06
0.000145139
-5.14353e-06
0.000146705
-5.06538e-06
0.000148242
-4.9791e-06
0.000149749
-4.88674e-06
0.000151223
-4.79004e-06
0.000152664
-4.69048e-06
0.000154073
-4.5893e-06
0.000155448
-4.48749e-06
0.00015679
-4.3859e-06
0.000158099
-4.28519e-06
0.000159375
-4.18588e-06
0.00016062
-4.08837e-06
0.000161834
-3.99297e-06
0.000163017
-3.8999e-06
0.000164171
-3.80932e-06
0.000165296
-3.72131e-06
0.000166393
-3.63592e-06
0.000167463
-3.55315e-06
0.000168506
-3.473e-06
0.000169524
-3.3954e-06
0.000170518
-3.3203e-06
0.000171487
-3.24761e-06
0.000172434
-3.17725e-06
0.000173358
-3.10912e-06
0.000174261
-3.04313e-06
0.000175142
-2.97916e-06
0.000176004
-2.91711e-06
0.000176845
-2.85688e-06
0.000177668
-2.79836e-06
0.000178471
-2.74144e-06
0.000179257
-2.68602e-06
0.000180026
-2.632e-06
0.000180777
-2.57927e-06
0.000181511
-2.52775e-06
0.00018223
-2.47732e-06
0.000182932
-2.42788e-06
0.000183619
-2.37936e-06
0.000184291
-2.33163e-06
0.000184947
-2.28463e-06
0.000185589
-2.23824e-06
0.000186217
-2.19238e-06
0.00018683
-2.14697e-06
0.000187429
-2.1019e-06
0.000188014
-2.05711e-06
0.000188586
-2.0125e-06
0.000189143
-1.96801e-06
0.000189687
-1.92356e-06
0.000190217
-1.8791e-06
0.000190733
-1.83455e-06
0.000191236
-1.78989e-06
0.000191725
-1.74506e-06
0.000192201
-1.70004e-06
0.000192663
-1.65481e-06
0.000193111
-1.60934e-06
0.000193545
-1.56364e-06
0.000193966
-1.5177e-06
0.000194372
-1.47152e-06
0.000194765
-1.42512e-06
0.000195144
-1.37849e-06
0.000195508
-1.33164e-06
0.000195859
-1.28458e-06
0.000196196
-1.23731e-06
0.000196518
-1.18981e-06
0.000196826
-1.14208e-06
0.00019712
-1.09411e-06
0.0001974
-1.04589e-06
0.000197666
-9.97396e-07
0.000197917
-9.48641e-07
0.000198154
-8.99632e-07
0.000198377
-8.50397e-07
0.000198585
-8.00985e-07
0.000198779
-7.51473e-07
0.00019896
-7.01969e-07
0.000199126
-6.52611e-07
0.000199279
-6.0357e-07
0.000199418
-5.55051e-07
0.000199544
-5.07284e-07
0.000199658
-4.60522e-07
0.000199759
-4.15034e-07
0.000199849
-3.71093e-07
0.000199927
-3.28973e-07
0.000199995
-2.88929e-07
0.000200054
-2.51198e-07
0.000200104
-2.15981e-07
0.000200145
-1.8344e-07
0.000200179
-1.53692e-07
0.000200207
-1.26803e-07
0.000200229
-1.02787e-07
0.000200246
-8.16098e-08
0.000200258
-6.31885e-08
0.000200267
-4.7398e-08
0.000200273
-3.40779e-08
0.000200276
-2.3039e-08
0.000200278
-1.4072e-08
0.000200278
-6.95588e-09
0.000200277
-1.46297e-09
0.000200275
2.62997e-09
0.000200273
5.53738e-09
0.00020027
7.46199e-09
0.000200268
8.58898e-09
0.000200265
9.08426e-09
0.000200262
9.09313e-09
0.00020026
8.73992e-09
0.000200258
8.1285e-09
0.000200256
7.34335e-09
0.000200254
6.45121e-09
0.000200253
5.50288e-09
0.000200251
4.53521e-09
0.000200251
3.57308e-09
0.00020025
2.63131e-09
0.00020025
1.71646e-09
0.00020025
8.28441e-10
0.00020025
-3.8912e-11
0.00020025
-8.96173e-10
0.000200251
-1.75624e-09
0.000200251
-2.63635e-09
0.000200252
-3.55624e-09
0.000200254
-4.53815e-09
0.000200255
-5.60686e-09
0.000200257
-6.79006e-09
0.000200259
-8.1187e-09
0.000200262
-9.62746e-09
0.000200265
-1.13555e-08
0.000200269
-1.33473e-08
0.000200273
-1.56536e-08
0.000200279
-1.83328e-08
0.000200285
-2.14521e-08
0.000200292
-2.50894e-08
0.0002003
-2.9335e-08
0.000200309
-3.4294e-08
0.000200321
-4.00886e-08
0.000200334
-4.68614e-08
0.000200349
-5.47787e-08
0.000200367
-6.40346e-08
0.000200388
-7.48559e-08
0.000200412
-8.75073e-08
0.000200441
-1.02298e-07
0.000200474
-1.19589e-07
0.000200513
-1.39801e-07
0.000200559
-1.63429e-07
0.000200612
-1.91045e-07
0.000200674
-2.23322e-07
0.000200747
-2.61041e-07
0.000200833
-3.05116e-07
0.000200932
-3.56612e-07
0.000201049
-4.16769e-07
0.000201185
-4.8703e-07
0.000201344
-5.69077e-07
0.00020153
-6.64864e-07
0.000201747
-7.76657e-07
0.000202001
-9.07089e-07
0.000202298
-1.05921e-06
0.000202645
-1.23653e-06
0.00020305
-1.44311e-06
0.000203522
-1.68363e-06
0.000204074
-1.96344e-06
0.000204718
-2.28864e-06
0.00020547
-2.66618e-06
0.000206346
-3.1039e-06
0.000207367
-3.61057e-06
0.000208557
-4.19595e-06
0.000209942
-4.87072e-06
0.000211552
-5.64642e-06
0.000213423
-6.53521e-06
0.000215593
-7.54956e-06
0.000218106
-8.70167e-06
0.000221012
-1.00027e-05
0.000224361
-1.14615e-05