/*--------------------------------*- C++ -*----------------------------------*\
  =========                 |
  \\      /  F ield         | OpenFOAM: The Open Source CFD Toolbox
   \\    /   O peration     | Website:  https://openfoam.org
    \\  /    A nd           | Version:  7
     \\/     M anipulation  |
\*---------------------------------------------------------------------------*/
FoamFile
{
    version     2.0;
    format      ascii;
    class       volScalarField;
    location    "17";
    object      p;
}
// * * * * * * * * * * * * * * * * * * * * * * * * * * * * * * * * * * * * * //

dimensions      [0 2 -2 0 0 0 0];

internalField   nonuniform List<scalar> 
12400
(
-0.292262
-0.29411
-0.295303
-0.296205
-0.296993
-0.2977
-0.298367
-0.299024
-0.299683
-0.300342
-0.300987
-0.301596
-0.302139
-0.302583
-0.302888
-0.30301
-0.302913
-0.302579
-0.301968
-0.301123
-0.292565
-0.294379
-0.295551
-0.296438
-0.297214
-0.29791
-0.298569
-0.299218
-0.29987
-0.300524
-0.301165
-0.30177
-0.302312
-0.302754
-0.303057
-0.303175
-0.303068
-0.302718
-0.302067
-0.301094
-0.293163
-0.29491
-0.296042
-0.296899
-0.297649
-0.298324
-0.298964
-0.299598
-0.300237
-0.300879
-0.30151
-0.302109
-0.302645
-0.303084
-0.303382
-0.303493
-0.303366
-0.302981
-0.302269
-0.301019
-0.294037
-0.295689
-0.296761
-0.297574
-0.298286
-0.298929
-0.29954
-0.300148
-0.300765
-0.301389
-0.302005
-0.302591
-0.303118
-0.303548
-0.303839
-0.303938
-0.303782
-0.303343
-0.302582
-0.300862
-0.295165
-0.296695
-0.297691
-0.298446
-0.299107
-0.299704
-0.300275
-0.300847
-0.301433
-0.302028
-0.30262
-0.303187
-0.303697
-0.304115
-0.304392
-0.304476
-0.304285
-0.303761
-0.303027
-0.300558
-0.296517
-0.297905
-0.298809
-0.299494
-0.30009
-0.300629
-0.301146
-0.30167
-0.30221
-0.302766
-0.303324
-0.30386
-0.304345
-0.304741
-0.304998
-0.305063
-0.304837
-0.304169
-0.30365
-0.299972
-0.29806
-0.299291
-0.300092
-0.300693
-0.301211
-0.301677
-0.302126
-0.302585
-0.303066
-0.303568
-0.304076
-0.30457
-0.305018
-0.305381
-0.305607
-0.305644
-0.305404
-0.304465
-0.304487
-0.298991
-0.299762
-0.300827
-0.301514
-0.302019
-0.302445
-0.302822
-0.303186
-0.303563
-0.303967
-0.304396
-0.304839
-0.305273
-0.305669
-0.305986
-0.306168
-0.30616
-0.305956
-0.304567
-0.305257
-0.298346
-0.301589
-0.302486
-0.303052
-0.30345
-0.303769
-0.30404
-0.304298
-0.304573
-0.304879
-0.305216
-0.305574
-0.30593
-0.306254
-0.306509
-0.306632
-0.306547
-0.306382
-0.304648
-0.305804
-0.297469
-0.303515
-0.304245
-0.304685
-0.304965
-0.305162
-0.305307
-0.305439
-0.30559
-0.305775
-0.305997
-0.306247
-0.306503
-0.306736
-0.306908
-0.306955
-0.306769
-0.306669
-0.304401
-0.306396
-0.296267
-0.305517
-0.306089
-0.306399
-0.30655
-0.306607
-0.306607
-0.30659
-0.306591
-0.306629
-0.306712
-0.30683
-0.306965
-0.307085
-0.307152
-0.307108
-0.30677
-0.306804
-0.303761
-0.306895
-0.294847
-0.307584
-0.308007
-0.308184
-0.308193
-0.308095
-0.307927
-0.307737
-0.307562
-0.307428
-0.307345
-0.307308
-0.307298
-0.307283
-0.307223
-0.307072
-0.306528
-0.306734
-0.302782
-0.307047
-0.293416
-0.309711
-0.309996
-0.310037
-0.309894
-0.309621
-0.309264
-0.308874
-0.308498
-0.308165
-0.307891
-0.307674
-0.307497
-0.307325
-0.307116
-0.306841
-0.306048
-0.306381
-0.301583
-0.306529
-0.292183
-0.311907
-0.312065
-0.311966
-0.311656
-0.31119
-0.310619
-0.310006
-0.309401
-0.308844
-0.308355
-0.307936
-0.307571
-0.307224
-0.30684
-0.306416
-0.305357
-0.305645
-0.300307
-0.305035
-0.291139
-0.314192
-0.31423
-0.313985
-0.313493
-0.312813
-0.312007
-0.311144
-0.310287
-0.309482
-0.308756
-0.308114
-0.307541
-0.306999
-0.306418
-0.305799
-0.304482
-0.304435
-0.299004
-0.302465
-0.28994
-0.316597
-0.316518
-0.316115
-0.315426
-0.314511
-0.313446
-0.31231
-0.311177
-0.310103
-0.309121
-0.308239
-0.307441
-0.306681
-0.305872
-0.30499
-0.303416
-0.302719
-0.297539
-0.298993
-0.28809
-0.319164
-0.318963
-0.31839
-0.317483
-0.316312
-0.314965
-0.313535
-0.312107
-0.310746
-0.309491
-0.308352
-0.307308
-0.3063
-0.30522
-0.303988
-0.302103
-0.300513
-0.295641
-0.294889
-0.285267
-0.321946
-0.321607
-0.320847
-0.3197
-0.31825
-0.3166
-0.314856
-0.313116
-0.311453
-0.309911
-0.308498
-0.307181
-0.30588
-0.304463
-0.302776
-0.300453
-0.297834
-0.293053
-0.290254
-0.281462
-0.325002
-0.3245
-0.323528
-0.322117
-0.320366
-0.318392
-0.316318
-0.314252
-0.312274
-0.310429
-0.308719
-0.307091
-0.305435
-0.303584
-0.301319
-0.298381
-0.294676
-0.289645
-0.284947
-0.276837
-0.328393
-0.327696
-0.326482
-0.324781
-0.322704
-0.320388
-0.317968
-0.315563
-0.313257
-0.311092
-0.309051
-0.307055
-0.304955
-0.302547
-0.299565
-0.29583
-0.291048
-0.285439
-0.278894
-0.271555
-0.332187
-0.331249
-0.329758
-0.327738
-0.325311
-0.322635
-0.319856
-0.3171
-0.314451
-0.311936
-0.309516
-0.307073
-0.304413
-0.301303
-0.297464
-0.292784
-0.286973
-0.280559
-0.272657
-0.265563
-0.336448
-0.335215
-0.333408
-0.331038
-0.328238
-0.325182
-0.322031
-0.318909
-0.315894
-0.31299
-0.31012
-0.307123
-0.303764
-0.299799
-0.294977
-0.289264
-0.282469
-0.275138
-0.266677
-0.258887
-0.341237
-0.339647
-0.337481
-0.33473
-0.331531
-0.328078
-0.324539
-0.321033
-0.317618
-0.314263
-0.310847
-0.307162
-0.302952
-0.29799
-0.292091
-0.285315
-0.277575
-0.269465
-0.260455
-0.252134
-0.346611
-0.344597
-0.342026
-0.338861
-0.335238
-0.331371
-0.327424
-0.323505
-0.319638
-0.315747
-0.31166
-0.307135
-0.301921
-0.295841
-0.288814
-0.280987
-0.272388
-0.263578
-0.254128
-0.24549
-0.352619
-0.350109
-0.347088
-0.343475
-0.339406
-0.335103
-0.330724
-0.326349
-0.321955
-0.317414
-0.312505
-0.306977
-0.300617
-0.293335
-0.285168
-0.276342
-0.266964
-0.257554
-0.247731
-0.238813
-0.359301
-0.356223
-0.352707
-0.348617
-0.344077
-0.339313
-0.334466
-0.329571
-0.324548
-0.319212
-0.313313
-0.306618
-0.298994
-0.290465
-0.281183
-0.271427
-0.261354
-0.251416
-0.24126
-0.232119
-0.366689
-0.362972
-0.358919
-0.354324
-0.349288
-0.344033
-0.338666
-0.333161
-0.327374
-0.321071
-0.314
-0.30599
-0.29702
-0.287237
-0.276888
-0.266278
-0.25558
-0.245169
-0.234718
-0.225355
-0.374801
-0.370379
-0.365751
-0.360627
-0.355069
-0.349282
-0.343319
-0.337084
-0.330365
-0.322901
-0.31448
-0.305031
-0.294671
-0.28366
-0.272307
-0.260914
-0.249648
-0.238803
-0.22808
-0.218504
-0.383643
-0.378456
-0.373222
-0.367546
-0.361435
-0.355058
-0.348397
-0.341274
-0.333426
-0.324598
-0.314662
-0.303689
-0.291932
-0.279739
-0.26745
-0.255337
-0.24355
-0.2323
-0.221328
-0.211539
-0.393202
-0.387197
-0.381334
-0.375087
-0.368383
-0.361336
-0.35384
-0.345638
-0.33644
-0.326048
-0.314464
-0.301918
-0.288788
-0.275476
-0.262314
-0.249536
-0.237265
-0.225636
-0.214434
-0.204436
-0.403443
-0.396581
-0.390071
-0.383232
-0.375883
-0.368057
-0.359554
-0.350052
-0.339275
-0.327135
-0.313807
-0.299681
-0.285225
-0.270858
-0.256886
-0.243492
-0.230768
-0.218785
-0.207372
-0.197175
-0.414305
-0.40656
-0.399395
-0.391939
-0.383872
-0.375127
-0.365409
-0.354363
-0.341783
-0.327748
-0.312625
-0.296942
-0.281222
-0.265869
-0.251142
-0.237177
-0.22403
-0.211719
-0.200118
-0.189731
-0.425698
-0.41706
-0.409236
-0.40113
-0.392249
-0.382411
-0.371241
-0.358398
-0.343815
-0.32778
-0.310852
-0.293664
-0.276751
-0.260479
-0.245052
-0.230557
-0.21702
-0.20441
-0.192646
-0.182084
-0.437499
-0.427974
-0.419491
-0.41069
-0.400871
-0.389733
-0.376855
-0.361973
-0.345224
-0.327134
-0.30843
-0.289806
-0.271777
-0.254653
-0.238581
-0.2236
-0.209705
-0.196831
-0.184931
-0.174215
-0.449548
-0.439159
-0.43002
-0.420461
-0.409552
-0.396882
-0.382033
-0.364898
-0.345872
-0.325719
-0.305299
-0.285324
-0.26626
-0.248353
-0.231689
-0.216269
-0.202055
-0.188957
-0.176952
-0.166106
-0.461647
-0.450437
-0.440641
-0.430243
-0.418066
-0.403614
-0.386545
-0.366987
-0.345625
-0.323448
-0.301399
-0.280168
-0.260156
-0.241535
-0.224338
-0.20853
-0.19404
-0.180762
-0.168686
-0.157739
-0.473563
-0.461589
-0.451132
-0.439796
-0.42615
-0.409666
-0.390158
-0.368059
-0.344363
-0.320239
-0.296668
-0.274287
-0.253415
-0.234155
-0.21649
-0.200348
-0.185632
-0.172223
-0.160113
-0.149101
-0.485027
-0.472362
-0.461236
-0.448842
-0.433516
-0.414762
-0.392643
-0.367949
-0.341972
-0.316014
-0.291046
-0.267626
-0.245989
-0.22617
-0.208105
-0.191692
-0.176807
-0.16332
-0.151216
-0.140178
-0.495739
-0.482471
-0.470656
-0.457072
-0.439855
-0.418624
-0.39378
-0.366502
-0.338347
-0.310695
-0.284468
-0.260131
-0.23783
-0.217539
-0.199151
-0.182534
-0.167541
-0.154035
-0.141979
-0.13096
-0.505378
-0.491601
-0.479074
-0.464157
-0.444851
-0.420984
-0.393368
-0.36358
-0.333393
-0.304211
-0.276876
-0.251749
-0.228893
-0.208222
-0.189593
-0.172848
-0.157814
-0.144353
-0.132393
-0.121448
-0.513601
-0.499417
-0.486148
-0.469758
-0.448192
-0.421588
-0.391225
-0.359059
-0.327021
-0.296494
-0.268211
-0.24243
-0.219134
-0.198185
-0.179406
-0.162612
-0.147611
-0.13426
-0.122451
-0.111644
-0.52006
-0.505576
-0.491531
-0.473537
-0.449583
-0.420207
-0.387191
-0.35283
-0.319155
-0.287479
-0.258421
-0.232129
-0.208517
-0.187398
-0.168566
-0.151809
-0.136917
-0.123745
-0.112148
-0.10155
-0.524406
-0.509729
-0.494875
-0.475168
-0.448748
-0.416639
-0.381129
-0.344801
-0.309724
-0.277114
-0.247458
-0.220809
-0.197011
-0.175839
-0.157055
-0.140426
-0.125724
-0.112803
-0.101473
-0.0911332
-0.526301
-0.511537
-0.495847
-0.474347
-0.445444
-0.410711
-0.372925
-0.334896
-0.298674
-0.265351
-0.235286
-0.208439
-0.184594
-0.163489
-0.144862
-0.128453
-0.114027
-0.101436
-0.0904247
-0.0803281
-0.525427
-0.51068
-0.494136
-0.470804
-0.439466
-0.402287
-0.362494
-0.323056
-0.28596
-0.252156
-0.221876
-0.194996
-0.171248
-0.150336
-0.131976
-0.115887
-0.101824
-0.0896541
-0.0790147
-0.0691221
-0.521495
-0.506867
-0.489467
-0.464307
-0.430647
-0.391261
-0.349773
-0.309242
-0.271553
-0.237505
-0.20721
-0.180467
-0.156964
-0.136375
-0.118396
-0.102736
-0.0891225
-0.077464
-0.067226
-0.0577578
-0.514255
-0.499841
-0.481603
-0.454669
-0.418865
-0.377564
-0.334724
-0.293432
-0.255437
-0.221386
-0.191279
-0.164845
-0.141738
-0.121617
-0.10413
-0.0890242
-0.0759665
-0.0648524
-0.0550744
-0.0461695
-0.503501
-0.489393
-0.470359
-0.441753
-0.404039
-0.361162
-0.317338
-0.275624
-0.237614
-0.203801
-0.174084
-0.148143
-0.125582
-0.106092
-0.0892277
-0.0747394
-0.0623412
-0.0518463
-0.0426012
-0.0343281
-0.489074
-0.475363
-0.455598
-0.425474
-0.386136
-0.342055
-0.29763
-0.255837
-0.218099
-0.184764
-0.155644
-0.130401
-0.108559
-0.0897855
-0.0736758
-0.0599206
-0.048266
-0.03847
-0.0298298
-0.0222444
-0.470874
-0.457644
-0.437242
-0.405796
-0.365162
-0.320274
-0.275639
-0.234108
-0.196928
-0.16432
-0.136029
-0.111622
-0.0906586
-0.0727488
-0.0575056
-0.0445947
-0.03377
-0.0247495
-0.016782
-0.00994421
-0.448854
-0.436187
-0.415267
-0.382735
-0.341167
-0.295888
-0.251432
-0.210497
-0.174165
-0.142526
-0.115245
-0.0918623
-0.0719255
-0.0550195
-0.0407567
-0.028795
-0.0188869
-0.0107147
-0.00348567
0.00254103
-0.423028
-0.411002
-0.389706
-0.356359
-0.314249
-0.268996
-0.225095
-0.185088
-0.149877
-0.119432
-0.0933593
-0.071175
-0.0524126
-0.0366434
-0.0234739
-0.0125611
-0.00365452
0.00359924
0.0100232
0.0151742
-0.393464
-0.382153
-0.360647
-0.326794
-0.284549
-0.23971
-0.196729
-0.157975
-0.124147
-0.0951185
-0.0704458
-0.0496261
-0.0321813
-0.0176745
-0.00570752
0.00406107
0.0118855
0.0181526
0.0237023
0.0279123
-0.360289
-0.34976
-0.328243
-0.294222
-0.252209
-0.208126
-0.166487
-0.129281
-0.0970838
-0.0696807
-0.0465898
-0.0272919
-0.011301
0.00182499
0.0124861
0.0210204
0.0276873
0.0329041
0.0375098
0.0407113
-0.323675
-0.314003
-0.292702
-0.258815
-0.217282
-0.174529
-0.134525
-0.0991433
-0.0688085
-0.0432277
-0.021888
-0.00425904
0.0101506
0.0217856
0.0310441
0.0382596
0.0437014
0.0478139
0.0514109
0.0535373
-0.283823
-0.275125
-0.254239
-0.22061
-0.180212
-0.13908
-0.101018
-0.0677178
-0.0394581
-0.0158807
0.00355145
0.0193764
0.0320882
0.0421309
0.0498973
0.055716
0.0598748
0.0628413
0.0653662
0.0663503
-0.240968
-0.233399
-0.212974
-0.180106
-0.141195
-0.101998
-0.0661631
-0.0351751
-0.00918307
0.0122272
0.0296107
0.04351
0.0544191
0.0627788
0.0689717
0.0733254
0.0761574
0.0779394
0.0792859
0.0789994
-0.195378
-0.189148
-0.169285
-0.13763
-0.100479
-0.0635219
-0.030169
-0.0016993
0.0218544
0.0409523
0.0561624
0.0680291
0.0770443
0.0836412
0.088191
0.0910282
0.0925093
0.0930502
0.0929813
0.0910866
-0.147481
-0.142643
-0.123653
-0.093433
-0.0583486
-0.0239067
0.00674118
0.0325136
0.053481
0.0701414
0.0830714
0.0928145
0.0998579
0.104625
0.107477
0.108769
0.108892
0.108094
0.106231
0.102299
-0.0978614
-0.0941593
-0.0763654
-0.0478447
-0.0151048
0.0165804
0.0443327
0.0672569
0.0855144
0.0996333
0.110195
0.11774
0.122749
0.125633
0.12675
0.126484
0.12523
0.122946
0.119025
0.113561
-0.0467144
-0.0442102
-0.027789
-0.00121561
0.028935
0.0576608
0.082361
0.102315
0.117765
0.12926
0.137386
0.142676
0.145602
0.146565
0.145924
0.144088
0.141395
0.137464
0.131551
0.12739
0.00554622
0.00677307
0.0216803
0.0460902
0.0734448
0.0990478
0.120574
0.137467
0.150036
0.158849
0.16449
0.167486
0.168299
0.167319
0.16491
0.16148
0.157265
0.151707
0.144536
0.140921
0.0584705
0.0583684
0.0716343
0.0936993
0.118092
0.140449
0.158716
0.172486
0.182128
0.188224
0.191353
0.192034
0.190719
0.18779
0.183612
0.178573
0.172815
0.165773
0.157656
0.153685
0.111607
0.110144
0.12166
0.141235
0.162543
0.18157
0.196526
0.207143
0.213839
0.217205
0.217816
0.216181
0.212741
0.207871
0.201931
0.195279
0.187997
0.179601
0.170606
0.16585
0.164504
0.161664
0.171342
0.188319
0.206461
0.222115
0.233744
0.241208
0.244965
0.245614
0.243721
0.239788
0.234242
0.227453
0.219769
0.211521
0.202757
0.193087
0.183183
0.177437
0.21671
0.212491
0.22027
0.23458
0.249516
0.261792
0.270114
0.274453
0.275305
0.273272
0.268912
0.262715
0.255101
0.246428
0.237033
0.227219
0.217023
0.206136
0.195298
0.188465
0.267779
0.262193
0.26804
0.27965
0.291383
0.300314
0.30538
0.306654
0.304662
0.300004
0.293233
0.284828
0.275197
0.264689
0.253628
0.242294
0.230721
0.218663
0.206882
0.198917
0.317276
0.310348
0.314256
0.323173
0.331745
0.337402
0.339297
0.337592
0.33284
0.32564
0.316534
0.305993
0.294414
0.282135
0.269466
0.256668
0.243775
0.230596
0.217882
0.208768
0.364778
0.356548
0.358538
0.364806
0.370298
0.372787
0.371624
0.367056
0.359653
0.350012
0.338669
0.326082
0.312637
0.298664
0.284459
0.270264
0.256116
0.241871
0.228247
0.217989
0.40988
0.400402
0.400522
0.404222
0.40675
0.406209
0.402135
0.394842
0.384921
0.372964
0.359498
0.344971
0.32976
0.314183
0.298523
0.283008
0.267678
0.252429
0.237932
0.22655
0.4522
0.441539
0.439864
0.44111
0.440827
0.437427
0.430612
0.420761
0.408475
0.394345
0.378888
0.362543
0.345678
0.3286
0.311579
0.294831
0.278398
0.262215
0.246891
0.234425
0.491378
0.479613
0.476243
0.475181
0.472271
0.466211
0.456853
0.444631
0.430156
0.414015
0.396716
0.37869
0.360295
0.341831
0.323555
0.305667
0.28822
0.271179
0.255083
0.241585
0.527083
0.514303
0.509362
0.506169
0.500846
0.492353
0.480673
0.466287
0.449817
0.431843
0.412866
0.39331
0.373524
0.353799
0.33438
0.315457
0.297091
0.279274
0.262469
0.248008
0.559011
0.545318
0.538952
0.533832
0.526337
0.51566
0.5019
0.48558
0.467324
0.447711
0.427236
0.406312
0.385284
0.364432
0.343993
0.324146
0.304962
0.286456
0.269013
0.253671
0.586895
0.572399
0.564773
0.557955
0.548553
0.535963
0.520385
0.502373
0.482559
0.461515
0.43973
0.417614
0.395501
0.373668
0.352339
0.331687
0.311791
0.292687
0.274684
0.258557
0.610498
0.59532
0.586617
0.57835
0.567326
0.553114
0.535996
0.516551
0.495417
0.473162
0.45027
0.427144
0.404114
0.38145
0.35937
0.338037
0.317541
0.297933
0.279453
0.26265
0.629624
0.61389
0.604306
0.594859
0.582517
0.566988
0.54862
0.528015
0.50581
0.482574
0.458785
0.434841
0.41107
0.387733
0.365044
0.343161
0.32218
0.302166
0.283297
0.265939
0.64411
0.627954
0.6177
0.607354
0.59401
0.577482
0.558167
0.536683
0.513669
0.489689
0.46522
0.440658
0.416324
0.392479
0.369328
0.347029
0.325681
0.305361
0.286197
0.268413
0.653835
0.637395
0.626689
0.615738
0.601721
0.584522
0.564571
0.542496
0.518937
0.494459
0.469534
0.444556
0.419845
0.395659
0.372199
0.34962
0.328027
0.307501
0.288138
0.270066
0.658718
0.642136
0.631202
0.619946
0.605591
0.588054
0.567784
0.545412
0.521581
0.496852
0.471698
0.446512
0.421612
0.397253
0.373638
0.350919
0.329203
0.308574
0.289111
0.270893
0.658718
0.642136
0.631202
0.619946
0.605591
0.588054
0.567784
0.545412
0.521581
0.496852
0.471698
0.446512
0.421612
0.397253
0.373638
0.350919
0.329203
0.308574
0.289111
0.270893
0.653835
0.637395
0.626689
0.615738
0.601721
0.584522
0.564571
0.542496
0.518937
0.494459
0.469534
0.444556
0.419845
0.395659
0.372199
0.34962
0.328027
0.307501
0.288138
0.270066
0.64411
0.627954
0.6177
0.607354
0.59401
0.577482
0.558168
0.536683
0.513669
0.489689
0.46522
0.440658
0.416324
0.392479
0.369328
0.347029
0.325681
0.305361
0.286197
0.268413
0.629624
0.61389
0.604306
0.594859
0.582517
0.566988
0.54862
0.528015
0.50581
0.482574
0.458785
0.434841
0.41107
0.387733
0.365044
0.343161
0.32218
0.302166
0.283297
0.265939
0.610498
0.59532
0.586617
0.57835
0.567327
0.553114
0.535996
0.516551
0.495417
0.473162
0.45027
0.427144
0.404114
0.38145
0.35937
0.338037
0.317541
0.297933
0.279453
0.26265
0.586895
0.572399
0.564773
0.557955
0.548553
0.535963
0.520386
0.502373
0.482559
0.461515
0.43973
0.417614
0.395501
0.373668
0.352339
0.331687
0.311791
0.292687
0.274684
0.258557
0.559011
0.545318
0.538952
0.533832
0.526337
0.51566
0.501901
0.48558
0.467324
0.447711
0.427236
0.406312
0.385284
0.364432
0.343993
0.324146
0.304962
0.286456
0.269013
0.253671
0.527083
0.514303
0.509362
0.506169
0.500846
0.492353
0.480673
0.466287
0.449817
0.431843
0.412866
0.39331
0.373525
0.353799
0.33438
0.315457
0.297091
0.279274
0.262469
0.248008
0.491379
0.479613
0.476243
0.475181
0.472271
0.466211
0.456853
0.444631
0.430156
0.414015
0.396716
0.37869
0.360296
0.341831
0.323555
0.305667
0.28822
0.271179
0.255083
0.241585
0.4522
0.44154
0.439864
0.44111
0.440827
0.437427
0.430612
0.420761
0.408475
0.394346
0.378888
0.362543
0.345678
0.3286
0.31158
0.294831
0.278398
0.262215
0.246891
0.234425
0.409881
0.400402
0.400522
0.404222
0.40675
0.40621
0.402135
0.394843
0.384921
0.372965
0.359498
0.344971
0.32976
0.314183
0.298523
0.283008
0.267678
0.252429
0.237932
0.22655
0.364778
0.356549
0.358538
0.364807
0.370298
0.372787
0.371624
0.367056
0.359653
0.350013
0.338669
0.326082
0.312638
0.298664
0.284459
0.270264
0.256116
0.241871
0.228247
0.217989
0.317276
0.310348
0.314256
0.323173
0.331745
0.337403
0.339297
0.337592
0.33284
0.32564
0.316534
0.305993
0.294414
0.282135
0.269466
0.256668
0.243775
0.230596
0.217882
0.208768
0.267779
0.262193
0.26804
0.27965
0.291383
0.300314
0.30538
0.306654
0.304662
0.300004
0.293233
0.284828
0.275198
0.26469
0.253628
0.242294
0.230721
0.218663
0.206882
0.198917
0.21671
0.212491
0.220271
0.23458
0.249517
0.261792
0.270114
0.274453
0.275306
0.273272
0.268912
0.262716
0.255101
0.246428
0.237033
0.227219
0.217024
0.206136
0.195298
0.188465
0.164505
0.161664
0.171342
0.188319
0.206461
0.222115
0.233745
0.241208
0.244965
0.245614
0.243721
0.239788
0.234243
0.227453
0.219769
0.211521
0.202757
0.193087
0.183183
0.177437
0.111608
0.110145
0.12166
0.141235
0.162543
0.18157
0.196526
0.207143
0.213839
0.217205
0.217816
0.216181
0.212741
0.207871
0.201931
0.195279
0.187997
0.179601
0.170606
0.16585
0.0584709
0.0583687
0.0716346
0.0936995
0.118093
0.140449
0.158716
0.172486
0.182128
0.188224
0.191353
0.192035
0.190719
0.187791
0.183612
0.178573
0.172815
0.165773
0.157656
0.153685
0.00554655
0.00677339
0.0216807
0.0460904
0.0734451
0.0990481
0.120575
0.137468
0.150036
0.15885
0.16449
0.167486
0.168299
0.167319
0.16491
0.16148
0.157265
0.151707
0.144536
0.140921
-0.0467141
-0.0442099
-0.0277887
-0.0012153
0.0289353
0.0576611
0.0823613
0.102316
0.117765
0.129261
0.137386
0.142676
0.145602
0.146565
0.145924
0.144088
0.141395
0.137465
0.131551
0.12739
-0.0978611
-0.0941589
-0.0763651
-0.0478444
-0.0151045
0.0165807
0.0443329
0.0672571
0.0855147
0.0996336
0.110195
0.117741
0.122749
0.125633
0.12675
0.126484
0.125231
0.122946
0.119025
0.113561
-0.147481
-0.142643
-0.123652
-0.0934326
-0.0583483
-0.0239064
0.00674144
0.0325138
0.0534812
0.0701416
0.0830716
0.0928147
0.0998581
0.104625
0.107477
0.108769
0.108892
0.108094
0.106231
0.102299
-0.195378
-0.189148
-0.169285
-0.137629
-0.100479
-0.0635216
-0.0301687
-0.00169905
0.0218546
0.0409525
0.0561626
0.0680293
0.0770444
0.0836413
0.0881912
0.0910283
0.0925095
0.0930504
0.0929815
0.0910867
-0.240967
-0.233398
-0.212974
-0.180106
-0.141195
-0.101998
-0.0661629
-0.0351749
-0.00918282
0.0122274
0.0296109
0.0435102
0.0544193
0.062779
0.0689719
0.0733256
0.0761576
0.0779396
0.079286
0.0789995
-0.283822
-0.275124
-0.254238
-0.22061
-0.180211
-0.13908
-0.101018
-0.0677175
-0.0394579
-0.0158804
0.00355167
0.0193767
0.0320884
0.0421311
0.0498974
0.0557162
0.059875
0.0628415
0.0653663
0.0663505
-0.323675
-0.314003
-0.292701
-0.258815
-0.217282
-0.174529
-0.134524
-0.099143
-0.0688082
-0.0432274
-0.0218878
-0.00425882
0.0101508
0.0217858
0.0310443
0.0382598
0.0437015
0.0478141
0.051411
0.0535375
-0.360289
-0.349759
-0.328243
-0.294222
-0.252209
-0.208125
-0.166487
-0.129281
-0.0970836
-0.0696805
-0.0465895
-0.0272917
-0.0113008
0.0018252
0.0124863
0.0210206
0.0276875
0.0329043
0.03751
0.0407115
-0.393464
-0.382152
-0.360647
-0.326794
-0.284548
-0.239709
-0.196729
-0.157975
-0.124147
-0.0951182
-0.0704456
-0.0496259
-0.0321811
-0.0176743
-0.00570731
0.00406127
0.0118857
0.0181528
0.0237025
0.0279125
-0.423027
-0.411002
-0.389705
-0.356359
-0.314249
-0.268996
-0.225095
-0.185088
-0.149876
-0.119432
-0.0933591
-0.0711748
-0.0524124
-0.0366432
-0.0234737
-0.0125609
-0.00365431
0.00359944
0.0100234
0.0151744
-0.448854
-0.436187
-0.415267
-0.382735
-0.341167
-0.295888
-0.251432
-0.210496
-0.174165
-0.142526
-0.115244
-0.0918621
-0.0719253
-0.0550193
-0.0407565
-0.0287948
-0.0188867
-0.0107145
-0.00348546
0.00254124
-0.470874
-0.457643
-0.437241
-0.405795
-0.365161
-0.320274
-0.275639
-0.234108
-0.196928
-0.164319
-0.136028
-0.111622
-0.0906584
-0.0727486
-0.0575054
-0.0445945
-0.0337697
-0.0247493
-0.0167818
-0.009944
-0.489074
-0.475362
-0.455598
-0.425473
-0.386135
-0.342054
-0.297629
-0.255837
-0.218099
-0.184764
-0.155644
-0.130401
-0.108558
-0.0897853
-0.0736756
-0.0599204
-0.0482657
-0.0384698
-0.0298296
-0.0222442
-0.5035
-0.489393
-0.470358
-0.441753
-0.404039
-0.361162
-0.317338
-0.275624
-0.237614
-0.203801
-0.174083
-0.148143
-0.125582
-0.106092
-0.0892275
-0.0747392
-0.062341
-0.0518461
-0.042601
-0.0343279
-0.514255
-0.499841
-0.481603
-0.454669
-0.418864
-0.377564
-0.334724
-0.293432
-0.255437
-0.221386
-0.191279
-0.164845
-0.141738
-0.121617
-0.10413
-0.089024
-0.0759662
-0.0648521
-0.0550741
-0.0461693
-0.521495
-0.506866
-0.489467
-0.464307
-0.430647
-0.39126
-0.349772
-0.309242
-0.271553
-0.237504
-0.20721
-0.180466
-0.156964
-0.136375
-0.118395
-0.102735
-0.0891222
-0.0774638
-0.0672257
-0.0577576
-0.525426
-0.51068
-0.494136
-0.470804
-0.439466
-0.402286
-0.362494
-0.323056
-0.28596
-0.252155
-0.221876
-0.194996
-0.171248
-0.150336
-0.131976
-0.115886
-0.101824
-0.0896539
-0.0790145
-0.0691219
-0.5263
-0.511536
-0.495846
-0.474347
-0.445444
-0.410711
-0.372925
-0.334895
-0.298674
-0.265351
-0.235286
-0.208438
-0.184593
-0.163489
-0.144861
-0.128453
-0.114027
-0.101435
-0.0904244
-0.0803278
-0.524406
-0.509728
-0.494875
-0.475168
-0.448747
-0.416639
-0.381128
-0.344801
-0.309724
-0.277113
-0.247458
-0.220809
-0.197011
-0.175839
-0.157055
-0.140426
-0.125724
-0.112802
-0.101473
-0.091133
-0.52006
-0.505575
-0.491531
-0.473537
-0.449582
-0.420207
-0.387191
-0.35283
-0.319154
-0.287479
-0.25842
-0.232129
-0.208516
-0.187398
-0.168566
-0.151809
-0.136917
-0.123745
-0.112147
-0.101549
-0.513601
-0.499417
-0.486148
-0.469758
-0.448192
-0.421588
-0.391225
-0.359059
-0.327021
-0.296493
-0.268211
-0.24243
-0.219133
-0.198185
-0.179406
-0.162612
-0.14761
-0.13426
-0.122451
-0.111644
-0.505378
-0.4916
-0.479074
-0.464157
-0.44485
-0.420984
-0.393368
-0.36358
-0.333392
-0.304211
-0.276876
-0.251749
-0.228892
-0.208222
-0.189593
-0.172848
-0.157814
-0.144353
-0.132393
-0.121447
-0.495739
-0.482471
-0.470656
-0.457071
-0.439854
-0.418624
-0.39378
-0.366502
-0.338347
-0.310695
-0.284468
-0.260131
-0.23783
-0.217539
-0.19915
-0.182534
-0.16754
-0.154035
-0.141979
-0.13096
-0.485026
-0.472362
-0.461235
-0.448842
-0.433516
-0.414762
-0.392642
-0.367949
-0.341971
-0.316014
-0.291045
-0.267626
-0.245989
-0.22617
-0.208105
-0.191692
-0.176806
-0.16332
-0.151215
-0.140177
-0.473563
-0.461589
-0.451132
-0.439796
-0.42615
-0.409666
-0.390158
-0.368059
-0.344363
-0.320239
-0.296668
-0.274287
-0.253415
-0.234155
-0.216489
-0.200348
-0.185632
-0.172223
-0.160113
-0.149101
-0.461647
-0.450436
-0.44064
-0.430243
-0.418065
-0.403614
-0.386545
-0.366986
-0.345625
-0.323448
-0.301398
-0.280168
-0.260155
-0.241534
-0.224338
-0.208529
-0.19404
-0.180761
-0.168685
-0.157739
-0.449548
-0.439159
-0.43002
-0.420461
-0.409551
-0.396882
-0.382032
-0.364898
-0.345871
-0.325719
-0.305299
-0.285323
-0.26626
-0.248353
-0.231689
-0.216269
-0.202054
-0.188956
-0.176951
-0.166106
-0.437499
-0.427973
-0.419491
-0.41069
-0.40087
-0.389733
-0.376854
-0.361973
-0.345224
-0.327134
-0.30843
-0.289806
-0.271777
-0.254653
-0.23858
-0.2236
-0.209704
-0.196831
-0.184931
-0.174215
-0.425698
-0.41706
-0.409236
-0.40113
-0.392249
-0.382411
-0.371241
-0.358398
-0.343815
-0.32778
-0.310852
-0.293663
-0.27675
-0.260478
-0.245052
-0.230557
-0.217019
-0.20441
-0.192645
-0.182084
-0.414305
-0.40656
-0.399395
-0.391939
-0.383872
-0.375127
-0.365409
-0.354362
-0.341782
-0.327747
-0.312625
-0.296942
-0.281221
-0.265868
-0.251142
-0.237176
-0.22403
-0.211718
-0.200118
-0.18973
-0.403442
-0.396581
-0.390071
-0.383232
-0.375883
-0.368057
-0.359554
-0.350052
-0.339274
-0.327135
-0.313807
-0.299681
-0.285225
-0.270858
-0.256886
-0.243492
-0.230768
-0.218785
-0.207372
-0.197174
-0.393202
-0.387197
-0.381334
-0.375087
-0.368383
-0.361335
-0.35384
-0.345638
-0.33644
-0.326047
-0.314463
-0.301918
-0.288788
-0.275475
-0.262314
-0.249536
-0.237265
-0.225636
-0.214433
-0.204436
-0.383643
-0.378456
-0.373222
-0.367546
-0.361435
-0.355058
-0.348397
-0.341274
-0.333425
-0.324598
-0.314662
-0.303688
-0.291932
-0.279739
-0.26745
-0.255336
-0.243549
-0.232299
-0.221327
-0.211538
-0.374801
-0.370379
-0.365751
-0.360627
-0.355069
-0.349282
-0.343319
-0.337083
-0.330364
-0.322901
-0.314479
-0.305031
-0.294671
-0.283659
-0.272307
-0.260913
-0.249648
-0.238802
-0.22808
-0.218503
-0.366689
-0.362972
-0.358919
-0.354324
-0.349288
-0.344033
-0.338666
-0.333161
-0.327374
-0.321071
-0.314
-0.30599
-0.29702
-0.287237
-0.276888
-0.266278
-0.255579
-0.245168
-0.234717
-0.225354
-0.359301
-0.356223
-0.352707
-0.348617
-0.344077
-0.339313
-0.334466
-0.329571
-0.324548
-0.319212
-0.313312
-0.306618
-0.298994
-0.290465
-0.281182
-0.271426
-0.261353
-0.251416
-0.241259
-0.232118
-0.352619
-0.350109
-0.347088
-0.343475
-0.339406
-0.335102
-0.330724
-0.326349
-0.321955
-0.317413
-0.312505
-0.306977
-0.300616
-0.293334
-0.285167
-0.276341
-0.266964
-0.257554
-0.24773
-0.238812
-0.346611
-0.344597
-0.342026
-0.33886
-0.335238
-0.331371
-0.327424
-0.323505
-0.319638
-0.315747
-0.31166
-0.307135
-0.301921
-0.295841
-0.288814
-0.280987
-0.272388
-0.263577
-0.254127
-0.245489
-0.341237
-0.339647
-0.337481
-0.33473
-0.331531
-0.328078
-0.324539
-0.321033
-0.317617
-0.314263
-0.310847
-0.307162
-0.302952
-0.29799
-0.292091
-0.285314
-0.277574
-0.269464
-0.260454
-0.252133
-0.336448
-0.335215
-0.333408
-0.331038
-0.328238
-0.325182
-0.32203
-0.318909
-0.315894
-0.31299
-0.31012
-0.307122
-0.303764
-0.299799
-0.294977
-0.289263
-0.282468
-0.275137
-0.266676
-0.258885
-0.332187
-0.331249
-0.329758
-0.327738
-0.325311
-0.322634
-0.319856
-0.3171
-0.314451
-0.311936
-0.309516
-0.307073
-0.304413
-0.301302
-0.297463
-0.292783
-0.286972
-0.280558
-0.272656
-0.265562
-0.328393
-0.327696
-0.326481
-0.324781
-0.322703
-0.320387
-0.317968
-0.315563
-0.313257
-0.311091
-0.309051
-0.307055
-0.304955
-0.302546
-0.299565
-0.295829
-0.291047
-0.285438
-0.278893
-0.271554
-0.325002
-0.3245
-0.323528
-0.322117
-0.320365
-0.318392
-0.316318
-0.314252
-0.312274
-0.310429
-0.308718
-0.30709
-0.305434
-0.303584
-0.301318
-0.29838
-0.294675
-0.289644
-0.284945
-0.276836
-0.321946
-0.321607
-0.320847
-0.3197
-0.31825
-0.3166
-0.314856
-0.313116
-0.311453
-0.309911
-0.308497
-0.30718
-0.30588
-0.304463
-0.302775
-0.300452
-0.297833
-0.293051
-0.290252
-0.28146
-0.319164
-0.318962
-0.31839
-0.317483
-0.316312
-0.314965
-0.313535
-0.312107
-0.310746
-0.309491
-0.308352
-0.307308
-0.306299
-0.305219
-0.303987
-0.302102
-0.300512
-0.29564
-0.294887
-0.285265
-0.316597
-0.316518
-0.316115
-0.315426
-0.314511
-0.313446
-0.31231
-0.311177
-0.310103
-0.309121
-0.308239
-0.307441
-0.306681
-0.305871
-0.304989
-0.303415
-0.302718
-0.297537
-0.298991
-0.288088
-0.314192
-0.31423
-0.313985
-0.313493
-0.312813
-0.312007
-0.311144
-0.310286
-0.309481
-0.308755
-0.308114
-0.307541
-0.306999
-0.306417
-0.305798
-0.304481
-0.304434
-0.299002
-0.302464
-0.289938
-0.311907
-0.312065
-0.311966
-0.311656
-0.31119
-0.310619
-0.310006
-0.309401
-0.308844
-0.308355
-0.307936
-0.30757
-0.307223
-0.30684
-0.306416
-0.305356
-0.305643
-0.300306
-0.305033
-0.291137
-0.309711
-0.309996
-0.310037
-0.309894
-0.309621
-0.309263
-0.308874
-0.308497
-0.308165
-0.307891
-0.307674
-0.307496
-0.307325
-0.307115
-0.306841
-0.306047
-0.30638
-0.301582
-0.306527
-0.292181
-0.307583
-0.308006
-0.308183
-0.308193
-0.308094
-0.307927
-0.307736
-0.307562
-0.307428
-0.307345
-0.307308
-0.307297
-0.307282
-0.307223
-0.307071
-0.306527
-0.306733
-0.30278
-0.307045
-0.293414
-0.305517
-0.306089
-0.306399
-0.306549
-0.306607
-0.306607
-0.30659
-0.306591
-0.306629
-0.306712
-0.30683
-0.306965
-0.307084
-0.307152
-0.307107
-0.306769
-0.306802
-0.30376
-0.306893
-0.294845
-0.303514
-0.304245
-0.304685
-0.304965
-0.305162
-0.305307
-0.305439
-0.305589
-0.305774
-0.305997
-0.306246
-0.306503
-0.306736
-0.306907
-0.306954
-0.306768
-0.306667
-0.3044
-0.306395
-0.296265
-0.301589
-0.302485
-0.303052
-0.30345
-0.303769