0.0500078 	0.499751 	-1.31843e-18 	0.749537 	-0.0332393 	-2.8455e-17
