/*--------------------------------*- C++ -*----------------------------------*\
  =========                 |
  \\      /  F ield         | OpenFOAM: The Open Source CFD Toolbox
   \\    /   O peration     | Website:  https://openfoam.org
    \\  /    A nd           | Version:  7
     \\/     M anipulation  |
\*---------------------------------------------------------------------------*/
FoamFile
{
    version     2.0;
    format      ascii;
    class       surfaceScalarField;
    location    "197";
    object      phi;
}
// * * * * * * * * * * * * * * * * * * * * * * * * * * * * * * * * * * * * * //

dimensions      [0 3 -1 0 0 0 0];

internalField   nonuniform List<scalar> 
24510
(
-5.71804e-06
8.80934e-05
-8.23754e-05
-2.17131e-05
0.000219992
-0.000203997
-4.7741e-05
0.000318777
-0.000292749
-8.34968e-05
0.000384496
-0.00034874
-0.000128637
0.000419449
-0.000374308
-0.000182864
0.000427628
-0.000373401
-0.000245968
0.000413278
-0.000350174
-0.000317821
0.000379125
-0.000307273
-0.000398321
0.000324765
-0.000244264
-0.000487302
0.000245694
-0.000156713
-0.000584414
0.000133157
-3.60447e-05
-0.00068882
-2.52793e-05
0.000129685
-0.00079913
-0.000245033
0.000355343
-0.000912876
-0.000543713
0.000657459
-0.00102622
-0.000939601
0.00105295
-0.00113367
-0.00144889
0.00155634
-0.00122787
-0.00208092
0.00217511
-0.00129952
-0.00283067
0.00290232
-0.00133836
-0.00366869
0.00370753
-0.00454987
0.00453915
-0.00132764
-4.82627e-06
9.29197e-05
-1.8808e-05
0.000233974
-4.21259e-05
0.000342095
-7.47677e-05
0.000417138
-0.000116535
0.000461216
-0.000167132
0.000478225
-0.000226245
0.000472391
-0.000293585
0.000446465
-0.000368896
0.000400075
-0.00045191
0.000328708
-0.000542268
0.000223515
-0.000639196
7.16491e-05
-0.000741564
-0.000142665
-0.000847362
-0.000437915
-0.000953553
-0.00083341
-0.00105602
-0.00134642
-0.00114968
-0.00198726
-0.00122841
-0.00275194
-0.00128885
-0.00360825
-0.00452015
-0.00131856
-3.73356e-06
9.66532e-05
-1.5171e-05
0.000245411
-3.49405e-05
0.000361865
-6.33319e-05
0.000445529
-0.000100285
0.000498169
-0.000145479
0.000523419
-0.000198439
0.000525351
-0.000258628
0.000506655
-0.000325511
0.000466958
-0.000398556
0.000401753
-0.00047716
0.000302118
-0.000560513
0.000155002
-0.000647167
-5.60111e-05
-0.000735413
-0.00034967
-0.00082245
-0.000746373
-0.000904904
-0.00126396
-0.000979237
-0.00191293
-0.00104145
-0.00268972
-0.00109435
-0.00355535
-0.00448439
-0.00113012
-2.4823e-06
9.91355e-05
-1.09285e-05
0.000253858
-2.64127e-05
0.000377349
-4.95254e-05
0.000468642
-8.03392e-05
0.000528982
-0.000118491
0.000561571
-0.000163305
0.000570165
-0.000213928
0.000557277
-0.000269442
0.000522473
-0.000328914
0.000461225
-0.000391342
0.000364546
-0.000455583
0.000219243
-0.000519667
8.07275e-06
-0.000581925
-0.000287411
-0.000639246
-0.000689052
-0.000688386
-0.00121482
-0.000726586
-0.00187473
-0.000750682
-0.00266563
-0.00076754
-0.0035385
-0.00447699
-0.000774932
-1.12831e-06
0.000100264
-6.25297e-06
0.000258982
-1.68654e-05
0.000387961
-3.38403e-05
0.000485617
-5.73741e-05
0.000552516
-8.70551e-05
0.000591252
-0.000121985
0.000605095
-0.00016095
0.000596243
-0.000202578
0.000564102
-0.000245422
0.000504068
-0.000287935
0.000407059
-0.000328327
0.000259636
-0.00036463
4.43759e-05
-0.000393857
-0.000258185
-0.000412959
-0.00066995
-0.000418163
-0.00120962
-0.000407007
-0.00188589
-0.000375214
-0.00269742
-0.000331686
-0.00358202
-0.00452475
-0.000283935
2.67008e-07
9.99968e-05
-1.34948e-06
0.000260599
-6.69526e-06
0.000393307
-1.68957e-05
0.000495817
-3.22507e-05
0.000567871
-5.23077e-05
0.000611309
-7.59397e-05
0.000628727
-0.000101556
0.00062186
-0.000127288
0.000589833
-0.000151108
0.000527888
-0.000170843
0.000426795
-0.00018407
0.000272862
-0.00018801
4.83156e-05
-0.000179227
-0.000266967
-0.000153921
-0.000695257
-0.000107472
-0.00125607
-3.67328e-05
-0.00195663
5.47807e-05
-0.00278893
0.000186745
-0.00371399
-0.00463564
0.000297642
1.62883e-06
9.8368e-05
3.54995e-06
0.000258678
3.65702e-06
0.0003932
6.34262e-07
0.00049884
-5.96215e-06
0.000574468
-1.55699e-05
0.000620917
-2.68643e-05
0.000640021
-3.78867e-05
0.000632882
-4.62604e-05
0.000598207
-4.93475e-05
0.000530975
-4.43012e-05
0.000421748
-2.80093e-05
0.00025657
2.90003e-06
1.74064e-05
5.31198e-05
-0.000317187
0.000127472
-0.000769609
0.000230637
-0.00135923
0.00036713
-0.00209312
0.000535933
-0.00295774
0.000735124
-0.00391318
-0.00484649
0.000945968
2.8953e-06
9.54727e-05
8.22036e-06
0.000253353
1.37098e-05
0.000387711
1.79236e-05
0.000494626
2.04124e-05
0.000571979
2.17317e-05
0.000619598
2.34141e-05
0.000638339
2.77679e-05
0.000628528
3.76631e-05
0.000588312
5.6359e-05
0.000512279
8.74433e-05
0.000390664
0.000134864
0.000209149
0.000203141
-5.08707e-05
0.000297322
-0.000411367
0.000422999
-0.000895286
0.000586063
-0.0015223
0.000791303
-0.00229836
0.00103523
-0.00320166
0.0013132
-0.00419115
-0.00514576
0.00161247
4.00453e-06
9.14682e-05
1.24464e-05
0.000244911
2.30382e-05
0.000377119
3.43162e-05
0.000483348
4.5814e-05
0.000560481
5.81605e-05
0.000607251
7.3059e-05
0.00062344
9.31328e-05
0.000608454
0.000121721
0.000559724
0.0001627
0.0004713
0.0002204
0.000332964
0.000299649
0.000129901
0.000405917
-0.000157139
0.000545347
-0.000550797
0.000724576
-0.00107451
0.00094952
-0.00174724
0.00122555
-0.00257439
0.00154365
-0.00351976
0.00189705
-0.00454454
-0.00551821
0.00226951
4.90614e-06
8.6562e-05
1.60418e-05
0.000233775
3.12367e-05
0.000361924
4.91069e-05
0.000465478
6.92422e-05
0.000540346
9.23594e-05
0.000584134
0.000120326
0.000595474
0.000156052
0.000572728
0.00020332
0.000512456
0.000266619
0.000408001
0.000351074
0.000248508
0.000462463
1.85115e-05
0.000607401
-0.000302077
0.000793197
-0.000736593
0.00102749
-0.00130881
0.0013155
-0.00203526
0.00166135
-0.00292024
0.00204974
-0.00390815
0.00246873
-0.00496353
-0.00594301
0.00289352
5.56346e-06
8.09986e-05
1.88628e-05
0.000220476
3.79848e-05
0.000342802
6.17382e-05
0.000441725
8.98502e-05
0.000512234
0.000123166
0.000550819
0.000163726
0.000554913
0.000214723
0.000521731
0.000280375
0.000446804
0.000365811
0.000322565
0.000477005
0.000137314
0.00062089
-0.000125373
0.00080525
-0.000486437
0.00103861
-0.000969951
0.00132919
-0.00159939
0.00168043
-0.0023865
0.00209197
-0.00333178
0.00254166
-0.00435783
0.00301041
-0.00543229
-0.00639539
0.0034628
5.95616e-06
7.50424e-05
2.08203e-05
0.000205612
4.30691e-05
0.000320553
7.18182e-05
0.000412976
0.000107024
0.000477027
0.000149724
0.000508119
0.000202171
0.000502466
0.000267864
0.000456039
0.000351498
0.000363169
0.000458918
0.000215146
0.000597064
-8.32302e-07
0.000774114
-0.000302423
0.000999173
-0.000711496
0.00128161
-0.00125239
0.00162912
-0.0019469
0.00204169
-0.00279907
0.00251068
-0.00380077
0.00300667
-0.00485382
0.00350346
-0.00592908
-0.00684975
0.00395782
6.08183e-06
6.89606e-05
2.18885e-05
0.000189805
4.64059e-05
0.000296036
7.91671e-05
0.000380215
0.00012046
0.000435735
0.000171598
0.000456981
0.000235125
0.000438939
0.000314924
0.000376239
0.00041626
0.000261833
0.000545806
8.56007e-05
0.000711689
-0.000166715
0.000923309
-0.000514043
0.00119097
-0.000979155
0.00152406
-0.00158548
0.00192767
-0.00235051
0.00239594
-0.00326735
0.00290882
-0.00431366
0.00343055
-0.00537555
0.00392987
-0.0064284
-0.0072834
0.00436351
5.95701e-06
6.30036e-05
2.21107e-05
0.000173651
4.80583e-05
0.000270088
8.38541e-05
0.000344419
0.000130225
0.000389364
0.000188876
0.000398331
0.000262758
0.000365056
0.000356277
0.00028272
0.000475415
0.000142695
0.00062788
-6.68639e-05
0.000823012
-0.000361847
0.00107146
-0.000762491
0.00138397
-0.00129166
0.00176837
-0.00196987
0.00222424
-0.00280639
0.00273719
-0.00378029
0.0032748
-0.00485127
0.00379816
-0.0058989
0.00427487
-0.00690511
-0.00768002
0.0046715
5.61759e-06
5.7386e-05
2.16021e-05
0.000157667
4.82462e-05
0.000243444
8.62203e-05
0.000306445
0.000136806
0.000338778
0.000202238
0.000332899
0.000286041
0.000281253
0.000393338
0.000175423
0.000531008
5.02443e-06
0.000707983
-0.000243838
0.000934776
-0.00058864
0.00122277
-0.00105049
0.00158179
-0.00165068
0.00201558
-0.00240367
0.00251513
-0.00330593
0.0030557
-0.00432086
0.00359482
-0.00539039
0.00409583
-0.00639991
0.0045299
-0.00733919
-0.00803157
0.00488146
5.11823e-06
5.22678e-05
2.05477e-05
0.000142237
4.7343e-05
0.000216649
8.68784e-05
0.000266909
0.000141114
0.000284542
0.000212975
0.000261038
0.00030676
0.000187468
0.000428506
5.36779e-05
0.000586319
-0.000152788
0.000790172
-0.000447692
0.00105155
-0.00085002
0.00138142
-0.00138036
0.00178647
-0.00205573
0.00226333
-0.00288053
0.00279217
-0.00383477
0.00333852
-0.00486721
0.00385543
-0.0059073
0.00431455
-0.00685903
0.00469427
-0.00771891
-0.00833807
0.00500077
4.53024e-06
4.77375e-05
1.91941e-05
0.000127573
4.58582e-05
0.000189984
8.66836e-05
0.000226084
0.000144438
0.000226788
0.000222917
0.000182559
0.000327409
8.29759e-05
0.000465101
-8.40142e-05
0.000645279
-0.000332967
0.000878954
-0.000681366
0.00117757
-0.00114863
0.00154985
-0.00175264
0.00199658
-0.00250246
0.00250464
-0.0033886
0.00304341
-0.00437354
0.00357221
-0.00539601
0.00404702
-0.00638211
0.00445229
-0.00726431
0.0047747
-0.00804131
-0.00860558
0.00504221
3.93716e-06
4.38004e-05
1.78321e-05
0.000113679
4.43996e-05
0.000163417
8.66653e-05
0.000183818
0.000148335
0.000165118
0.00023425
9.66444e-05
0.000350883
-3.36578e-05
0.000506677
-0.000239808
0.000711996
-0.000538286
0.000978199
-0.00094757
0.00131522
-0.00148566
0.00172713
-0.00216454
0.00220618
-0.00298151
0.0027285
-0.00391092
0.00325564
-0.00490067
0.00374645
-0.00588682
0.00416654
-0.0068022
0.00451407
-0.00761184
0.00478314
-0.00831038
-0.00884221
0.00501977
3.4276e-06
4.03728e-05
1.67712e-05
0.000100335
4.36156e-05
0.000136573
8.79223e-05
0.000139511
0.000154457
9.85834e-05
0.000249246
1.85606e-06
0.000380065
-0.000164478
0.000556535
-0.000416277
0.000789646
-0.000771397
0.00108993
-0.00124785
0.00146381
-0.00185953
0.00190818
-0.00260892
0.00240533
-0.00347866
0.00292224
-0.00442783
0.00341792
-0.00539635
0.00385679
-0.00632569
0.0042181
-0.00716351
0.00451016
-0.0079039
0.00473312
-0.00853334
-0.00905635
0.00494727
3.08606e-06
3.72867e-05
1.63065e-05
8.71145e-05
4.41245e-05
0.000108755
9.14945e-05
9.21414e-05
0.000164325
2.57527e-05
0.000269942
-0.00010376
0.000417327
-0.000311863
0.000616988
-0.000615939
0.000879657
-0.00103407
0.00121341
-0.00158161
0.00161895
-0.00226507
0.00208426
-0.00307423
0.00258221
-0.0039766
0.00307471
-0.00492033
0.0035242
-0.00584583
0.00390515
-0.00670665
0.00421111
-0.00746946
0.00445457
-0.00814736
0.00463641
-0.00871518
-0.0092648
0.00484486
2.983e-06
3.43037e-05
1.66855e-05
7.3412e-05
4.6442e-05
7.89981e-05
9.8234e-05
4.03494e-05
0.000179158
-5.51713e-05
0.000297769
-0.000222371
0.00046408
-0.000478174
0.000688802
-0.000840661
0.000981151
-0.00132641
0.00134488
-0.00194533
0.00177313
-0.00269332
0.00224474
-0.00354585
0.00272594
-0.0044578
0.00317895
-0.00537335
0.00357428
-0.00624116
0.00389825
-0.00703062
0.00415629
-0.0077275
0.00436353
-0.0083546
0.0045334
-0.00888505
-0.00943061
0.0046992
3.1665e-06
3.11372e-05
1.80794e-05
5.8499e-05
5.09199e-05
4.61577e-05
0.000108695
-1.74253e-05
0.000199647
-0.000146124
0.000333396
-0.000356121
0.000520508
-0.000665285
0.000770951
-0.0010911
0.0010909
-0.00164636
0.00147804
-0.00233248
0.00191715
-0.00313243
0.00237952
-0.00400822
0.00282906
-0.00490734
0.0032332
-0.00577748
0.00357289
-0.00658085
0.00384549
-0.00730322
0.00406368
-0.00794569
0.0042429
-0.00853382
0.00441475
-0.0090569
-0.00960944
0.00459358
3.65814e-06
2.74791e-05
2.05684e-05
4.15887e-05
5.77151e-05
9.011e-06
0.000123081
-8.27908e-05
0.000225924
-0.000248967
0.000376598
-0.000506794
0.000585517
-0.000874205
0.000860723
-0.00136631
0.00120381
-0.00198945
0.00160524
-0.00273391
0.00204202
-0.0035692
0.00248105
-0.00444725
0.00288852
-0.00531481
0.00324025
-0.00612921
0.0035277
-0.0068683
0.00375672
-0.00753224
0.00394342
-0.0081324
0.00410557
-0.00869597
0.00426492
-0.00921625
-0.00977318
0.00442866
4.45396e-06
2.30251e-05
2.41439e-05
2.18988e-05
6.67931e-05
-3.36382e-05
0.000141256
-0.000157254
0.000257572
-0.000365283
0.000426332
-0.000675554
0.000656909
-0.00110478
0.00095413
-0.00166353
0.00131374
-0.00234906
0.0017188
-0.00313897
0.00214053
-0.00399093
0.0025454
-0.00485212
0.00290543
-0.00567484
0.00320597
-0.00642975
0.00344739
-0.00710971
0.00364092
-0.00772578
0.00380395
-0.00829542
0.00395197
-0.00884399
0.00410411
-0.00936839
-0.00993633
0.00426726
5.52989e-06
1.74952e-05
2.87242e-05
-1.29555e-06
7.79599e-05
-8.28739e-05
0.0001628
-0.000242095
0.000293724
-0.000496207
0.00048092
-0.00086275
0.000731705
-0.00135557
0.00104648
-0.00197831
0.00141446
-0.00271704
0.00181225
-0.00353676
0.00220829
-0.00438698
0.0025722
-0.00521602
0.00288387
-0.00598651
0.00313758
-0.00668346
0.00334019
-0.00731232
0.00350569
-0.00789128
0.00365051
-0.00844023
0.0037881
-0.00898158
0.0039333
-0.0095136
-0.0100909
0.00408787
6.85002e-06
1.06452e-05
3.41799e-05
-2.86255e-05
9.09109e-05
-0.000139605
0.00018709
-0.000338274
0.000333196
-0.000642313
0.00053826
-0.00106781
0.000806503
-0.00162381
0.00113298
-0.00230478
0.00150048
-0.00308454
0.00188114
-0.00391742
0.00224383
-0.00474967
0.00256389
-0.00553608
0.00282954
-0.00625217
0.00304234
-0.00689626
0.00321321
-0.00748319
0.00335672
-0.00803479
0.00348741
-0.00857092
0.00361604
-0.00911021
0.00375406
-0.00965161
-0.0102395
0.00390269
8.37422e-06
2.27098e-06
4.03586e-05
-6.06099e-05
0.00010528
-0.000204526
0.000213384
-0.000446378
0.000374618
-0.000803548
0.000596037
-0.00128923
0.000877825
-0.0019056
0.00120925
-0.00263621
0.00156767
-0.00344296
0.00192325
-0.004273
0.00224812
-0.00507454
0.00252466
-0.00581262
0.00274862
-0.00647612
0.00292683
-0.00707447
0.0030721
-0.00762846
0.00319821
-0.00816091
0.00331731
-0.00869001
0.00343777
-0.00923068
0.00356846
-0.0097823
-0.0103802
0.00370912
1.00642e-05
-7.79327e-06
4.71029e-05
-9.76485e-05
0.000120675
-0.000278099
0.000240879
-0.000566581
0.000416535
-0.000979204
0.000651898
-0.00152459
0.000942413
-0.00219611
0.00127175
-0.00296555
0.00161349
-0.0037847
0.00193845
-0.00459795
0.00222393
-0.00536002
0.00245948
-0.00604817
0.00264697
-0.00666361
0.00279648
-0.00722398
0.00292113
-0.00775311
0.00303308
-0.00827286
0.00314207
-0.00879901
0.00325449
-0.0093431
0.00337709
-0.0099049
-0.0105124
0.00350926
1.18864e-05
-1.96797e-05
5.42591e-05
-0.000140021
0.000136699
-0.000360539
0.000268752
-0.000698634
0.000457476
-0.00116793
0.000703587
-0.00177071
0.000997462
-0.00248999
0.00131798
-0.00328607
0.001637
-0.00410372
0.0019282
-0.00488915
0.00217499
-0.0056068
0.00237338
-0.00624657
0.0025297
-0.00681992
0.00265558
-0.00734987
0.00276337
-0.0078609
0.00286328
-0.00837276
0.0029629
-0.00889862
0.00306701
-0.00944721
0.00318083
-0.0100187
-0.010635
0.00330345
1.381e-05
-3.34897e-05
6.16775e-05
-0.000187889
0.000152951
-0.000451813
0.000296176
-0.000841859
0.00049601
-0.00136776
0.000749074
-0.00202377
0.00104079
-0.00278171
0.00134657
-0.00359185
0.00163864
-0.0043958
0.00189505
-0.00514556
0.00210539
-0.00581714
0.002271
-0.00641218
0.00240102
-0.00694994
0.00250738
-0.00745623
0.002601
-0.00795452
0.00269014
-0.00846191
0.00278059
-0.00898907
0.00287593
-0.00954255
0.00298021
-0.010123
-0.0107472
0.00309246
1.58052e-05
-4.9295e-05
6.92072e-05
-0.000241291
0.000169026
-0.000551631
0.000322328
-0.000995161
0.000530796
-0.00157623
0.000786653
-0.00227963
0.00107095
-0.003066
0.00135723
-0.00387813
0.00161988
-0.00465844
0.0018421
-0.00536779
0.00201916
-0.0059942
0.00215634
-0.00654936
0.00226426
-0.00705786
0.00235422
-0.00754619
0.00243548
-0.00803578
0.00251454
-0.00854097
0.00259571
-0.00907025
0.00268173
-0.00962856
0.00277575
-0.010217
-0.0108484
0.00287686
1.78406e-05
-6.71356e-05
7.66915e-05
-0.000300141
0.000184513
-0.000659453
0.000346413
-0.00115706
0.000560636
-0.00179045
0.000815027
-0.00253402
0.00108722
-0.0033382
0.00135056
-0.00414147
0.00158286
-0.00489074
0.00177265
-0.00555757
0.00191994
-0.00614149
0.0020327
-0.00666212
0.00212193
-0.00714709
0.00219778
-0.00762204
0.00226783
-0.00810583
0.00233706
-0.0086102
0.0024087
-0.00914188
0.00248482
-0.00970468
0.00256794
-0.0103001
-0.0109376
0.00265723
1.98808e-05
-8.70164e-05
8.39648e-05
-0.000364225
0.000198998
-0.000774486
0.000367682
-0.00132574
0.000584535
-0.0020073
0.000833359
-0.00278284
0.00108959
-0.00359443
0.00132781
-0.00437969
0.00153006
-0.00509299
0.00168985
-0.00571736
0.0018109
-0.00626254
0.00190271
-0.00675393
0.00197591
-0.00722028
0.00203924
-0.00768538
0.00209874
-0.00816533
0.00215816
-0.00866962
0.0022199
-0.00920361
0.00228559
-0.00977037
0.00235722
-0.0103718
-0.0110145
0.00243409
2.18865e-05
-0.000108903
9.08547e-05
-0.000433194
0.000212078
-0.00089571
0.000385472
-0.00149914
0.000601742
-0.00222357
0.000841281
-0.00302238
0.0010786
-0.00383174
0.00129069
-0.00459179
0.00146406
-0.00526637
0.00159659
-0.00584989
0.00169466
-0.00636061
0.0017684
-0.00682767
0.00182756
-0.00727943
0.00187943
-0.00773726
0.0019287
-0.0082146
0.00197818
-0.00871909
0.00202963
-0.00925507
0.00208439
-0.00982513
0.00214402
-0.0104314
-0.0110784
0.00220796
2.38145e-05
-0.000132717
9.71867e-05
-0.000506566
0.000223376
-0.0010219
0.000399231
-0.00167499
0.000611785
-0.00243613
0.000838858
-0.00324946
0.00105524
-0.00404812
0.00124111
-0.00477766
0.00138734
-0.0054126
0.00149538
-0.00595793
0.00157336
-0.00643859
0.00163132
-0.00688563
0.00167787
-0.00732598
0.00171894
-0.00777833
0.00175809
-0.00825375
0.0017974
-0.0087584
0.0018382
-0.00929588
0.00188159
-0.00986851
0.00192878
-0.0104786
-0.011129
0.00197933
2.56198e-05
-0.000158337
0.000102792
-0.000583738
0.000232557
-0.00115166
0.00040855
-0.00185099
0.000614475
-0.00264205
0.000826523
-0.0034615
0.00102079
-0.00424239
0.00118104
-0.00493791
0.00130216
-0.00553371
0.00138835
-0.00604412
0.00144867
-0.00649891
0.00149261
-0.00692957
0.00152755
-0.00736092
0.0015582
-0.00780898
0.0015872
-0.00828276
0.0016161
-0.00878729
0.00164591
-0.00932569
0.00167752
-0.00990013
0.00171191
-0.010513
-0.0111658
0.00174869
2.72574e-05
-0.000185595
0.000107514
-0.000663994
0.000239349
-0.0012835
0.000413175
-0.00202481
0.000609885
-0.00283876
0.000804989
-0.00365661
0.000976667
-0.00441406
0.0011124
-0.00507364
0.00121051
-0.00563183
0.00127722
-0.00611083
0.00132188
-0.00654357
0.00135314
-0.00696083
0.00137714
-0.00738493
0.00139753
-0.00782937
0.00141629
-0.00830151
0.00143453
-0.00880553
0.00145303
-0.0093442
0.00147255
-0.00991965
0.0014938
-0.0105342
-0.0111885
0.0015165
2.86845e-05
-0.000214279
0.000111218
-0.000746527
0.000243552
-0.00141583
0.000413012
-0.00219427
0.000598313
-0.00302406
0.000775164
-0.00383346
0.000924356
-0.00456326
0.00103694
-0.00518623
0.00111412
-0.00570901
0.00116342
-0.00616013
0.00119401
-0.00657416
0.00121354
-0.00698036
0.00122702
-0.00739841
0.00123723
-0.00783958
0.00124559
-0.00830987
0.00125294
-0.00881288
0.00125987
-0.00935113
0.001267
-0.00992678
0.00127485
-0.0105421
-0.0111968
0.00128321
2.98624e-05
-0.000244141
0.000113795
-0.00083046
0.000245046
-0.00154709
0.000408117
-0.00235734
0.000580238
-0.00319618
0.000738064
-0.00399128
0.00086529
-0.00469048
0.000956254
-0.00527719
0.00101443
-0.00576719
0.00104806
-0.00619376
0.00106581
-0.00659191
0.00107429
-0.00698884
0.0010775
-0.00740162
0.00107751
-0.00783959
0.00107534
-0.0083077
0.00107158
-0.00880913
0.00106671
-0.00934626
0.00106122
-0.00992129
0.00105547
-0.0105363
-0.0111906
0.00104926
3.0758e-05
-0.000274899
0.000115169
-0.000914871
0.00024379
-0.00167571
0.000398675
-0.00251223
0.000556264
-0.00335377
0.000694746
-0.00412977
0.000800816
-0.00479655
0.000871714
-0.00534809
0.00091261
-0.00580809
0.000932009
-0.00621316
0.000937876
-0.00659778
0.00093578
-0.00698674
0.00092885
-0.00739469
0.0009186
-0.00782934
0.000905742
-0.00829484
0.000890709
-0.00879409
0.000873836
-0.00932938
0.000855534
-0.00990299
0.000836017
-0.0105168
-0.0111697
0.0008151
3.1345e-05
-0.000306244
0.000115293
-0.000998818
0.000239819
-0.00180023
0.000384977
-0.00265739
0.000527073
-0.00349587
0.000646256
-0.00424895
0.000732159
-0.00488245
0.000784496
-0.00540043
0.000809626
-0.00583322
0.000815964
-0.00621949
0.000810647
-0.00659246
0.000798285
-0.00697438
0.000781275
-0.00737768
0.000760698
-0.00780876
0.000737029
-0.00827117
0.000710563
-0.00876763
0.000681535
-0.00930036
0.000650251
-0.00987171
0.000616859
-0.0104834
-0.011134
0.00058116
3.16048e-05
-0.000337849
0.000114154
-0.00108137
0.000233233
-0.00191931
0.000367393
-0.00279155
0.000493384
-0.00362186
0.000593587
-0.00434915
0.000660404
-0.00494927
0.000695589
-0.00543561
0.00070625
-0.00584388
0.000700456
-0.0062137
0.000684474
-0.00657648
0.000662049
-0.00695195
0.000634975
-0.0073506
0.000603998
-0.00777779
0.000569413
-0.00823659
0.000531393
-0.00872961
0.0004901
-0.00925906
0.000445722
-0.00982733
0.000398281
-0.010436
-0.0110835
0.000347777
3.15265e-05
-0.000369376
0.000111769
-0.00116161
0.000224187
-0.00203173
0.000346342
-0.0029137
0.000455913
-0.00373143
0.000537654
-0.00443089
0.000586495
-0.00499811
0.00060581
-0.00545493
0.000603098
-0.00584117
0.000585904
-0.0061965
0.000559633
-0.00655021
0.000527274
-0.00691959
0.000490131
-0.00731346
0.000448687
-0.00773634
0.000403108
-0.00819101
0.000353449
-0.00867995
0.000299797
-0.00920541
0.000242324
-0.00976985
0.000180659
-0.0103743
-0.0110178
0.000114953
3.11068e-05
-0.000400483
0.000108183
-0.00123869
0.000212881
-0.00213643
0.000322273
-0.00302309
0.000415354
-0.00382451
0.000479284
-0.00449482
0.000511239
-0.00503007
0.000515831
-0.00545952
0.000500658
-0.00582599
0.000472636
-0.00616848
0.000436351
-0.00651392
0.000394137
-0.00687738
0.00034692
-0.00726624
0.00029496
-0.00768438
0.000238302
-0.00813435
0.000177003
-0.00861865
0.000110799
-0.00913921
3.99813e-05
-0.00969904
-3.47299e-05
-0.0102996
-0.0109361
-0.000116397
3.03498e-05
-0.000430832
0.000103461
-0.0013118
0.000199541
-0.00223251
0.00029564
-0.00311919
0.000372357
-0.00390123
0.000419209
-0.00454168
0.000435318
-0.00504617
0.000426195
-0.0054504
0.000399316
-0.00579911
0.00036091
-0.00613008
0.000314815
-0.00646783
0.000262807
-0.00682537
0.000205496
-0.00720893
0.000143023
-0.00762191
7.51297e-05
-0.00806646
1.69642e-06
-0.00854522
-7.65006e-05
-0.00906101
-0.000160149
-0.00961539
-0.000249963
-0.0102098
-0.0108407
-0.000345394
2.9266e-05
-0.000460098
9.76893e-05
-0.00138022
0.000184413
-0.00231923
0.000266888
-0.00320167
0.000327518
-0.00396186
0.000358065
-0.00457222
0.000359301
-0.00504741
0.000337343
-0.00542844
0.000299379
-0.00576115
0.000250939
-0.00608164
0.000195177
-0.00641207
0.000133462
-0.00676366
6.59438e-05
-0.00714141
-7.32755e-06
-0.00754864
-8.59654e-05
-0.00798782
-0.000170578
-0.0084606
-0.000261553
-0.00897004
-0.000358582
-0.00951836
-0.00046235
-0.010106
-0.0107305
-0.000572556
2.78712e-05
-0.00048797
9.09648e-05
-0.00144331
0.00016775
-0.00239602
0.000236441
-0.00327036
0.000281373
-0.00400679
0.000296399
-0.00458725
0.000283659
-0.00503467
0.000249629
-0.00539441
0.000201097
-0.00571262
0.000142904
-0.00602344
7.75409e-05
-0.0063467
5.84647e-06
-0.00669196
-7.14081e-05
-0.00706416
-0.000154833
-0.00746521
-0.000244802
-0.00789785
-0.000341239
-0.00836416
-0.000444531
-0.00886674
-0.000554788
-0.0094081
-0.000672378
-0.00998843
-0.0106055
-0.00079736
2.6186e-05
-0.000514156
8.33943e-05
-0.00150052
0.000149801
-0.00246242
0.000204695
-0.00332525
0.000234395
-0.00403649
0.000234677
-0.00458753
0.000208778
-0.00500877
0.000163334
-0.00534896
0.000104675
-0.00565396
3.68832e-05
-0.00595565
-3.78673e-05
-0.00627195
-0.000118844
-0.00661099
-0.000206373
-0.00697663
-0.000300399
-0.00737119
-0.000401359
-0.00779689
-0.000509489
-0.00825603
-0.000625082
-0.00875115
-0.000748418
-0.00928477
-0.000879799
-0.00985705
-0.0104659
-0.00101938
2.42345e-05
-0.00053839
7.50891e-05
-0.00155138
0.000130811
-0.00251815
0.000172013
-0.00336646
0.000187007
-0.00405149
0.000173292
-0.00457382
0.00013497
-0.00497045
7.86858e-05
-0.00529268
1.0105e-05
-0.00558538
-6.68464e-05
-0.0058787
-0.000150854
-0.00618794
-0.000241519
-0.00652032
-0.000338989
-0.00687916
-0.000443494
-0.00726668
-0.000555403
-0.00768498
-0.000675097
-0.00813634
-0.000802923
-0.00862333
-0.000939231
-0.00914846
-0.00108431
-0.00971197
-0.0103119
-0.0012383
2.20448e-05
-0.000560435
6.61634e-05
-0.00159549
0.000111012
-0.00256299
0.000138726
-0.00339417
0.000139573
-0.00405233
0.000112567
-0.00454681
6.24813e-05
-0.00492036
-4.23739e-06
-0.00522596
-8.20374e-05
-0.00550758
-0.000168228
-0.00579251
-0.000261505
-0.00609467
-0.00036171
-0.00642012
-0.000469071
-0.0067718
-0.000583938
-0.00715181
-0.00070672
-0.0075622
-0.000837864
-0.0080052
-0.000977801
-0.00848339
-0.00112696
-0.0089993
-0.00128561
-0.00955332
-0.0101438
-0.0014538
1.96486e-05
-0.000580084
5.6734e-05
-0.00163258
9.06305e-05
-0.00259689
0.000105134
-0.00340867
9.23867e-05
-0.00403958
5.27708e-05
-0.00450719
-8.41049e-06
-0.00485918
-8.49023e-05
-0.00514947
-0.000172037
-0.00542044
-0.000267236
-0.00569731
-0.000369653
-0.00599225
-0.000479289
-0.00631048
-0.000596459
-0.00665463
-0.000721581
-0.00702669
-0.000855119
-0.00742866
-0.000997579
-0.00786274
-0.00114948
-0.00833149
-0.00131134
-0.00883744
-0.00148341
-0.00938125
-0.00996158
-0.00166558
1.70826e-05
-0.000597166
4.69151e-05
-0.00166241
6.98836e-05
-0.00261986
7.15296e-05
-0.00341032
4.56564e-05
-0.00401371
-5.68955e-06
-0.00445585
-7.75625e-05
-0.00478731
-0.000163626
-0.00506341
-0.000259714
-0.00532435
-0.000363758
-0.00559327
-0.000475188
-0.00588082
-0.000594144
-0.00619153
-0.000721012
-0.00652776
-0.000856266
-0.00689144
-0.00100042
-0.0072845
-0.00115404
-0.00770912
-0.00131773
-0.0081678
-0.00149211
-0.00866306
-0.00167743
-0.00919593
-0.00976567
-0.00187334
1.43901e-05
-0.000611556
3.68137e-05
-0.00168484
4.89493e-05
-0.00263199
3.8168e-05
-0.00339954
7.43144e-07
-0.00397629
-6.28858e-05
-0.00439222
-0.000144946
-0.00470525
-0.000240178
-0.00496817
-0.000344978
-0.00521955
-0.000457703
-0.00548054
-0.000578013
-0.00576051
-0.000706161
-0.00606338
-0.000842596
-0.00639132
-0.00098784
-0.00674619
-0.00114246
-0.00712989
-0.00130706
-0.00754451
-0.00148234
-0.00799253
-0.00166904
-0.00847636
-0.0018674
-0.00899757
-0.0095563
-0.00207677
1.15839e-05
-0.00062314
2.65213e-05
-0.00169977
2.79865e-05
-0.00263346
5.57798e-06
-0.00337713
-4.51615e-05
-0.00392555
-0.000118825
-0.00431856
-0.000210405
-0.00461367
-0.000314462
-0.00486412
-0.000427753
-0.00510626
-0.000548991
-0.0053593
-0.000678034
-0.00563147
-0.000815229
-0.00592618
-0.00096108
-0.00624547
-0.00111615
-0.00659112
-0.00128106
-0.00696498
-0.00145645
-0.00736912
-0.0016431
-0.00780588
-0.00184189
-0.00827757
-0.00205309
-0.00878638
-0.00933378
-0.0022756
8.68588e-06
-0.000631826
1.61383e-05
-0.00170723
7.35367e-06
-0.00262468
-2.76333e-05
-0.00334214
-8.91008e-05
-0.00386408
-0.000173095
-0.00423456
-0.000273833
-0.00451293
-0.000386399
-0.00475155
-0.000507966
-0.0049847
-0.000637545
-0.00522973
-0.00077516
-0.00549385
-0.00092124
-0.0057801
-0.00107634
-0.00609037
-0.00124107
-0.00642639
-0.00141607
-0.00678998
-0.00160204
-0.00718315
-0.00179983
-0.00760809
-0.00201049
-0.00806691
-0.00223427
-0.00856259
-0.00909857
-0.00246948
5.71195e-06
-0.000637538
5.66194e-06
-0.00170718
-1.3703e-05
-0.00260531
-5.97174e-05
-0.00329613
-0.000131877
-0.00379192
-0.000225627
-0.00414081
-0.000335155
-0.0044034
-0.000455936
-0.00463077
-0.000585557
-0.00485508
-0.000723292
-0.00509199
-0.000869304
-0.00534784
-0.00102409
-0.00562532
-0.00118825
-0.00592621
-0.00136243
-0.00625221
-0.00154733
-0.00660509
-0.00174365
-0.00698682
-0.00195234
-0.0073994
-0.00217461
-0.00784464
-0.00241071
-0.00832649
-0.00885122
-0.00265806
2.57036e-06
-0.000640108
-4.82067e-06
-0.00169979
-3.44227e-05
-0.00257571
-9.09909e-05
-0.00323956
-0.000173352
-0.00370956
-0.000276364
-0.0040378
-0.000394302
-0.00428546
-0.000523017
-0.00450205
-0.000660469
-0.00471762
-0.000806163
-0.0049463
-0.000960378
-0.00519362
-0.00112367
-0.00546203
-0.00129669
-0.0057532
-0.00148012
-0.00606878
-0.00167468
-0.00641053
-0.00188113
-0.00678038
-0.00210044
-0.00718009
-0.00233397
-0.00761111
-0.00258206
-0.0080784
-0.00859171
-0.00284158
-8.663e-07
-0.000639242
-1.54764e-05
-0.00168518
-5.45572e-05
-0.00253663
-0.000121359
-0.00317276
-0.000213427
-0.00361749
-0.000325239
-0.00392599
-0.000451222
-0.00415948
-0.000587594
-0.00436568
-0.000732647
-0.00457257
-0.00088609
-0.00479285
-0.0010483
-0.00503141
-0.00121989
-0.00529044
-0.00140154
-0.00557154
-0.00159399
-0.00587632
-0.00179799
-0.00620653
-0.00201434
-0.00656403
-0.00224406
-0.00695036
-0.00248849
-0.00736668
-0.00274819
-0.00781869
-0.00831951
-0.00302039
-3.67314e-06
-0.000635569
-2.57512e-05
-0.0016631
-7.41587e-05
-0.00248822
-0.000150735
-0.00309618
-0.000252025
-0.0035162
-0.000372199
-0.00380581
-0.000505873
-0.00402581
-0.000649624
-0.00422193
-0.000802041
-0.00442015
-0.000963006
-0.00463189
-0.00113298
-0.00486144
-0.00131263
-0.00511079
-0.00150268
-0.00538149
-0.00170391
-0.0056751
-0.0019171
-0.00599334
-0.00214316
-0.00633797
-0.00238321
-0.00671031
-0.00263849
-0.00711141
-0.00290884
-0.00754833
-0.00803682
-0.00319153
-6.7041e-06
-0.000628865
-3.5789e-05
-0.00163401
-9.31743e-05
-0.00243083
-0.000179061
-0.0030103
-0.000289087
-0.00340618
-0.000417197
-0.0036777
-0.000558219
-0.00388479
-0.000709067
-0.00407108
-0.000868599
-0.00426062
-0.00103685
-0.00446364
-0.00121435
-0.00468393
-0.00140181
-0.00492333
-0.0016
-0.0051833
-0.00180972
-0.00546538
-0.00203183
-0.00577123
-0.00226737
-0.00610243
-0.00251757
-0.00646011
-0.00278368
-0.0068453
-0.00306752
-0.00726449
-0.00775661
-0.00334773
-9.72392e-06
-0.000619141
-4.5577e-05
-0.00159816
-0.000111549
-0.00236486
-0.000206275
-0.00291557
-0.000324563
-0.00328789
-0.000460196
-0.00354207
-0.000608225
-0.00373676
-0.000765886
-0.00391342
-0.000932275
-0.00409423
-0.00110755
-0.00428836
-0.00129232
-0.00449917
-0.00148733
-0.00472832
-0.00169337
-0.00497726
-0.00191129
-0.00524746
-0.00214202
-0.00554049
-0.0023867
-0.00585776
-0.00264645
-0.00620036
-0.00292079
-0.00657096
-0.00320677
-0.00697852
-0.00742217
-0.00354121
-1.26854e-05
-0.000606455
-5.50739e-05