/*--------------------------------*- C++ -*----------------------------------*\
  =========                 |
  \\      /  F ield         | OpenFOAM: The Open Source CFD Toolbox
   \\    /   O peration     | Website:  https://openfoam.org
    \\  /    A nd           | Version:  7
     \\/     M anipulation  |
\*---------------------------------------------------------------------------*/
FoamFile
{
    version     2.0;
    format      ascii;
    class       volVectorField;
    location    "15";
    object      U;
}
// * * * * * * * * * * * * * * * * * * * * * * * * * * * * * * * * * * * * * //

dimensions      [0 1 -1 0 0 0 0];

internalField   nonuniform List<vector> 
433
(
(1.00012 -0.000367773 0)
(1.00336 -0.00103527 0)
(1.00851 -0.00156387 0)
(1.01454 -0.00196975 0)
(1.02073 -0.00226952 0)
(1.02666 -0.0024844 0)
(1.03212 -0.00262865 0)
(1.03701 -0.00272538 0)
(1.04131 -0.00277592 0)
(1.04511 -0.00282268 0)
(1.00013 -0.00109636 0)
(1.0034 -0.00307799 0)
(1.0086 -0.00465165 0)
(1.0147 -0.00586276 0)
(1.02096 -0.00675794 0)
(1.02696 -0.00739982 0)
(1.03249 -0.00783099 0)
(1.03745 -0.0081201 0)
(1.04181 -0.00827157 0)
(1.04567 -0.0084081 0)
(1.00014 -0.00181261 0)
(1.00346 -0.00507496 0)
(1.00876 -0.00767453 0)
(1.01498 -0.00968185 0)
(1.02138 -0.011168 0)
(1.02753 -0.012235 0)
(1.03319 -0.0129525 0)
(1.03829 -0.0134342 0)
(1.04276 -0.0136862 0)
(1.04675 -0.0139139 0)
(1.00015 -0.00252105 0)
(1.00356 -0.0070435 0)
(1.00899 -0.0106592 0)
(1.01539 -0.0134621 0)
(1.02198 -0.0155427 0)
(1.02833 -0.0170405 0)
(1.03419 -0.0180491 0)
(1.03948 -0.0187281 0)
(1.0441 -0.0190826 0)
(1.04828 -0.0194061 0)
(1.00016 -0.00322654 0)
(1.00368 -0.00899575 0)
(1.00928 -0.0136252 0)
(1.01589 -0.017231 0)
(1.02272 -0.0199173 0)
(1.02934 -0.0218581 0)
(1.03545 -0.0231679 0)
(1.04099 -0.024053 0)
(1.04582 -0.024514 0)
(1.05024 -0.0249403 0)
(1.00018 -0.00393263 0)
(1.00381 -0.0109396 0)
(1.00961 -0.0165864 0)
(1.01647 -0.0210093 0)
(1.02359 -0.0243194 0)
(1.03053 -0.0267222 0)
(1.03694 -0.0283481 0)
(1.04279 -0.0294522 0)
(1.04786 -0.0300261 0)
(1.05258 -0.0305648 0)
(1.00019 -0.00464144 0)
(1.00396 -0.0128796 0)
(1.00996 -0.0195516 0)
(1.01711 -0.024812 0)
(1.02455 -0.0287704 0)
(1.03185 -0.0316604 0)
(1.03862 -0.0336227 0)
(1.04482 -0.0349627 0)
(1.05018 -0.0356581 0)
(1.05525 -0.0363215 0)
(1.00022 -0.00535389 0)
(1.00411 -0.0148171 0)
(1.01033 -0.0225253 0)
(1.01778 -0.0286486 0)
(1.02558 -0.033286 0)
(1.03329 -0.0366944 0)
(1.04045 -0.0390185 0)
(1.04706 -0.0406161 0)
(1.05276 -0.0414443 0)
(1.05823 -0.0422479 0)
(1.00024 -0.00606986 0)
(1.00427 -0.016751 0)
(1.0107 -0.025508 0)
(1.01846 -0.0325238 0)
(1.02665 -0.0378763 0)
(1.0348 -0.041841 0)
(1.0424 -0.044558 0)
(1.04948 -0.0464396 0)
(1.05554 -0.047415 0)
(1.06148 -0.0483777 0)
(1.00027 -0.00678828 0)
(1.00442 -0.0186771 0)
(1.01106 -0.0284965 0)
(1.01914 -0.0364374 0)
(1.02772 -0.0425467 0)
(1.03635 -0.047112 0)
(1.04444 -0.0502589 0)
(1.05202 -0.0524566 0)
(1.0585 -0.0535969 0)
(1.06495 -0.0547414 0)
(1.00029 -0.0075072 0)
(1.00456 -0.0205896 0)
(1.01139 -0.0314839 0)
(1.01978 -0.0403852 0)
(1.02877 -0.0472979 0)
(1.0379 -0.0525149 0)
(1.04651 -0.0561353 0)
(1.05465 -0.058687 0)
(1.0616 -0.0600142 0)
(1.0686 -0.0613674 0)
(1.00032 -0.00822393 0)
(1.00469 -0.0224803 0)
(1.01167 -0.0344606 0)
(1.02036 -0.0443587 0)
(1.02976 -0.0521262 0)
(1.03942 -0.0580529 0)
(1.04857 -0.0621973 0)
(1.05731 -0.065148 0)
(1.06477 -0.0666883 0)
(1.0724 -0.0682823 0)
(1.00035 -0.00893515 0)
(1.00479 -0.0243393 0)
(1.0119 -0.037414 0)
(1.02085 -0.0483456 0)
(1.03065 -0.057024 0)
(1.04084 -0.0637254 0)
(1.05058 -0.0684519 0)
(1.05997 -0.0718539 0)
(1.06799 -0.0736391 0)
(1.07628 -0.0755115 0)
(1.00038 -0.00963696 0)
(1.00487 -0.0261556 0)
(1.01205 -0.0403293 0)
(1.02123 -0.05233 0)
(1.0314 -0.0619794 0)
(1.04214 -0.0695273 0)
(1.05248 -0.0749024 0)
(1.06257 -0.0788166 0)
(1.07119 -0.0808844 0)
(1.08021 -0.0830792 0)
(1.00041 -0.010325 0)
(1.00491 -0.027917 0)
(1.01211 -0.0431894 0)
(1.02147 -0.0562928 0)
(1.03198 -0.0669766 0)
(1.04326 -0.0754498 0)
(1.05422 -0.0815486 0)
(1.06505 -0.0860454 0)
(1.07432 -0.0884405 0)
(1.08412 -0.0910093 0)
(1.00045 -0.0109948 0)
(1.0049 -0.0296105 0)
(1.01207 -0.0459759 0)
(1.02154 -0.0602117 0)
(1.03234 -0.0719962 0)
(1.04414 -0.0814799 0)
(1.05575 -0.088387 0)
(1.06735 -0.0935473 0)
(1.07733 -0.0963225 0)
(1.08796 -0.0993253 0)
(1.00048 -0.0116413 0)
(1.00486 -0.031223 0)
(1.0119 -0.0486687 0)
(1.02142 -0.064062 0)
(1.03246 -0.0770153 0)
(1.04475 -0.0876001 0)
(1.057 -0.0954105 0)
(1.06941 -0.101327 0)
(1.08015 -0.104544 0)
(1.09167 -0.108051 0)
(1.00051 -0.0122596 0)
(1.00476 -0.0327412 0)
(1.01162 -0.0512471 0)
(1.02109 -0.0678164 0)
(1.03228 -0.0820075 0)
(1.04503 -0.0937888 0)
(1.05791 -0.102608 0)
(1.07116 -0.109385 0)
(1.08272 -0.113117 0)
(1.09518 -0.11721 0)
(1.00055 -0.0128449 0)
(1.00461 -0.0341523 0)
(1.01119 -0.0536898 0)
(1.02052 -0.0714461 0)
(1.03178 -0.0869432 0)
(1.04492 -0.10002 0)
(1.05842 -0.109965 0)
(1.07253 -0.117721 0)
(1.08497 -0.122053 0)
(1.09842 -0.126827 0)
(1.00058 -0.0133923 0)
(1.00439 -0.0354443 0)
(1.01062 -0.0559756 0)
(1.01969 -0.0749208 0)
(1.03092 -0.0917901 0)
(1.04438 -0.106262 0)
(1.05847 -0.117462 0)
(1.07346 -0.12633 0)
(1.08683 -0.131362 0)
(1.10132 -0.136927 0)
(1.00062 -0.0138974 0)
(1.00412 -0.0366059 0)
(1.00991 -0.0580836 0)
(1.01859 -0.0782097 0)
(1.02968 -0.0965131 0)
(1.04336 -0.11248 0)
(1.058 -0.125077 0)
(1.07385 -0.135205 0)
(1.08822 -0.141051 0)
(1.10382 -0.147538 0)
(1.00065 -0.0143559 0)
(1.00379 -0.0376274 0)
(1.00904 -0.0599937 0)
(1.01721 -0.0812818 0)
(1.02802 -0.101075 0)
(1.04182 -0.118634 0)
(1.05693 -0.132782 0)
(1.07365 -0.14433 0)
(1.08908 -0.151126 0)
(1.10581 -0.158688 0)
(1.00068 -0.0147641 0)
(1.00339 -0.0385006 0)
(1.00802 -0.0616869 0)
(1.01553 -0.084107 0)
(1.02594 -0.105435 0)
(1.0397 -0.124679 0)
(1.05522 -0.140544 0)
(1.07278 -0.153689 0)
(1.08931 -0.161593 0)
(1.10724 -0.170406 0)
(1.00072 -0.015119 0)
(1.00293 -0.0392189 0)
(1.00686 -0.063146 0)
(1.01355 -0.0866565 0)
(1.02342 -0.109553 0)
(1.03697 -0.130567 0)
(1.0528 -0.148326 0)
(1.07114 -0.163256 0)
(1.08883 -0.172453 0)
(1.10801 -0.182725 0)
(1.00075 -0.015418 0)
(1.00242 -0.0397774 0)
(1.00556 -0.0643557 0)
(1.01128 -0.0889033 0)
(1.02046 -0.113387 0)
(1.0336 -0.136244 0)
(1.04962 -0.156086 0)
(1.06868 -0.172998 0)
(1.08757 -0.183708 0)
(1.10803 -0.195678 0)
(1.00077 -0.0156595 0)
(1.00185 -0.0401732 0)
(1.00413 -0.0653032 0)
(1.00873 -0.0908233 0)
(1.01705 -0.116891 0)
(1.02956 -0.141658 0)
(1.04566 -0.163776 0)
(1.0653 -0.182874 0)
(1.08542 -0.195357 0)
(1.10722 -0.209301 0)
(1.00079 -0.0158425 0)
(1.00124 -0.040405 0)
(1.00258 -0.0659783 0)
(1.00589 -0.0923952 0)
(1.0132 -0.120023 0)
(1.02483 -0.146752 0)
(1.04086 -0.171339 0)
(1.06094 -0.192832 0)
(1.08232 -0.207397 0)
(1.10548 -0.223627 0)
(1.00081 -0.0159667 0)
(1.00058 -0.0404733 0)
(1.00091 -0.0663742 0)
(1.00281 -0.0936013 0)
(1.00894 -0.12274 0)
(1.01941 -0.151472 0)
(1.03522 -0.178713 0)
(1.0555 -0.202813 0)
(1.07819 -0.219826 0)
(1.1027 -0.238681 0)
(1.00082 -0.0160326 0)
(0.999899 -0.0403802 0)
(0.999147 -0.0664875 0)
(0.999499 -0.0944275 0)
(1.00427 -0.125 0)
(1.0133 -0.155764 0)
(1.02872 -0.185824 0)
(1.04892 -0.21275 0)
(1.07296 -0.232638 0)
(1.09877 -0.254481 0)
(1.04723 -0.00278648 2.66003e-20)
(1.04802 -0.00277295 6.44154e-21)
(1.04884 -0.00276074 -3.52976e-20)
(1.04965 -0.00274761 3.98809e-20)
(1.04781 -0.00830641 -2.8192e-20)
(1.0486 -0.00826817 -2.15263e-20)
(1.04942 -0.00823392 1.15389e-21)
(1.05023 -0.00819691 3.54451e-20)
(1.04893 -0.0137431 3.28298e-20)
(1.04972 -0.0136791 -1.65273e-20)
(1.05055 -0.0136219 1.69373e-20)
(1.05136 -0.0135598 -4.65676e-20)
(1.05053 -0.0191627 -1.02482e-20)
(1.05133 -0.019072 -1.72885e-20)
(1.05217 -0.0189909 9.06647e-20)
(1.05299 -0.0189031 6.36629e-22)
(1.05258 -0.0246178 -7.57318e-20)
(1.05339 -0.0244982 6.21647e-20)
(1.05424 -0.0243914 -5.17097e-20)
(1.05508 -0.0242757 -1.25487e-19)
(1.05503 -0.0301556 -7.16608e-22)
(1.05586 -0.0300048 -5.33492e-20)
(1.05672 -0.0298698 1.77864e-20)
(1.05757 -0.029724 -3.12303e-20)
(1.05845 -0.0295756 2.29696e-20)
(1.05784 -0.0358169 2.08722e-19)
(1.0587 -0.0356316 -1.22352e-19)
(1.05958 -0.0354657 -8.21128e-20)
(1.06045 -0.0352869 5.93199e-21)
(1.06135 -0.0351052 2.04687e-20)
(1.06098 -0.041638 -7.13109e-20)
(1.06187 -0.0414147 2.8479e-19)
(1.06277 -0.0412147 1.9614e-19)
(1.06367 -0.0409997 -4.01261e-20)
(1.0646 -0.0407814 -9.29186e-20)
(1.06442 -0.0476514 -1.88745e-19)
(1.06534 -0.0473863 -2.69613e-19)
(1.06626 -0.0471486 -1.02263e-19)
(1.0672 -0.0468938 -1.30247e-19)
(1.06816 -0.0466353 -2.75644e-20)
(1.06812 -0.0538872 3.86369e-20)
(1.06907 -0.0535761 8.05828e-20)
(1.07003 -0.0532968 1.13298e-19)
(1.071 -0.052998 2.00587e-19)
(1.07201 -0.0526955 -4.86896e-20)
(1.07203 -0.060373 3.68311e-20)
(1.07304 -0.0600112 1.61857e-19)
(1.07403 -0.0596861 -3.05372e-20)
(1.07505 -0.0593392 4.63931e-20)
(1.0761 -0.0589883 1.39593e-19)
(1.07613 -0.0671347 -1.80314e-19)
(1.07719 -0.0667175 -1.12779e-19)
(1.07822 -0.0663423 -2.28085e-19)
(1.07929 -0.0659425 8.50266e-21)
(1.08041 -0.0655387 1.86364e-19)
(1.08037 -0.0741971 2.47582e-19)
(1.08149 -0.0737195 -9.28263e-20)
(1.08257 -0.0732894 1.74178e-19)
(1.0837 -0.0728319 -2.27177e-19)
(1.08488 -0.0723703 1.7659e-20)
(1.0847 -0.0815843 -1.6382e-19)
(1.0859 -0.0810409 6.38522e-20)
(1.08704 -0.0805512 9.47381e-20)
(1.08824 -0.0800309 5.56492e-20)
(1.08949 -0.0795063 2.62857e-20)
(1.08908 -0.0893197 1.66653e-19)
(1.09037 -0.0887052 9.37483e-20)
(1.09157 -0.0881508 -1.77557e-19)
(1.09286 -0.0875622 -1.00321e-19)
(1.0942 -0.0869691 -5.93266e-20)
(1.09345 -0.0974266 6.23765e-20)
(1.09486 -0.0967354 2.20188e-20)
(1.09614 -0.0961111 9.10752e-20)
(1.09752 -0.0954485 1.49569e-19)
(1.09896 -0.0947812 -1.17172e-19)
(1.09778 -0.105929 -6.69832e-20)
(1.09931 -0.105155 4.15588e-19)
(1.10068 -0.104456 -2.3268e-20)
(1.10217 -0.103713 4.5068e-20)
(1.10373 -0.102966 -3.90643e-20)
(1.102 -0.11485 -2.23857e-19)
(1.10367 -0.113988 -2.79428e-19)
(1.10515 -0.113208 1.04008e-19)
(1.10677 -0.112379 -4.22239e-20)
(1.10847 -0.111546 3.69369e-20)
(1.10605 -0.124215 -4.21297e-19)
(1.1079 -0.123259 -1.23833e-19)
(1.1095 -0.122393 -3.28567e-19)
(1.11127 -0.121472 -4.56239e-19)
(1.11312 -0.120545 -3.57013e-20)
(1.10988 -0.13405 2.17242e-20)
(1.11193 -0.132995 -4.90277e-19)
(1.11368 -0.132037 1.67703e-19)
(1.11563 -0.131017 7.36317e-19)
(1.11765 -0.129991 3.38961e-19)
(1.11343 -0.144382 1.72092e-19)
(1.11572 -0.143222 8.72883e-19)
(1.11764 -0.142167 2.64342e-21)
(1.11978 -0.141042 -5.55102e-19)
(1.12201 -0.139908 2.28526e-19)
(1.11663 -0.155241 9.06637e-19)
(1.1192 -0.153971 -2.29071e-19)
(1.12132 -0.152814 2.52249e-19)
(1.12369 -0.151575 3.82782e-19)
(1.12615 -0.150327 -5.72903e-19)
(1.11943 -0.166658 -1.21598e-18)
(1.12232 -0.165274 -5.51852e-19)
(1.12467 -0.164008 -2.827e-19)
(1.1273 -0.162649 2.95515e-19)
(1.13002 -0.16128 4.94944e-19)
(1.12176 -0.178668 1.45936e-18)
(1.12502 -0.177165 1.22198e-19)
(1.12763 -0.175787 3.1219e-19)
(1.13056 -0.1743 -7.35003e-19)
(1.13359 -0.172801 2.75127e-19)
(1.12356 -0.191309 -1.15565e-18)
(1.12725 -0.189684 9.952e-20)
(1.13016 -0.188188 -8.96492e-19)
(1.13343 -0.186567 2.92244e-19)
(1.1368 -0.18493 -1.2924e-18)
(1.12476 -0.20462 1.35222e-19)
(1.12894 -0.202871 4.50549e-20)
(1.1322 -0.201255 5.05374e-19)
(1.13586 -0.199492 3.33945e-19)
(1.13961 -0.19771 1.19011e-18)
(1.1253 -0.218642 1.22831e-19)
(1.13004 -0.216773 9.94808e-19)
(1.1337 -0.215035 -4.29399e-19)
(1.1378 -0.213124 -7.59454e-20)
(1.14199 -0.211189 -1.51379e-18)
(1.12509 -0.233417 4.03411e-19)
(1.13049 -0.231433 -1.58157e-18)
(1.1346 -0.229574 5.28128e-19)
(1.1392 -0.227511 6.44763e-19)
(1.14388 -0.225418 7.40321e-19)
(1.12405 -0.24898 -3.22991e-19)
(1.1302 -0.246893 1.04232e-18)
(1.13483 -0.24492 -5.33343e-19)
(1.13999 -0.242705 -1.91851e-19)
(1.14523 -0.240449 3.3242e-19)
(1.13429 -0.261114 -5.59857e-19)
(1.1401 -0.25875 -1.70365e-18)
(1.14596 -0.256334 4.61281e-19)
)
;

boundaryField
{
    inlet
    {
        type            uniformFixedValue;
        uniformValue    constant (1 0 0);
        value           uniform (1 0 0);
    }
    outlet
    {
        type            pressureInletOutletVelocity;
        value           nonuniform 0();
    }
    cylinder
    {
        type            fixedValue;
        value           nonuniform 0();
    }
    top
    {
        type            symmetryPlane;
    }
    bottom
    {
        type            symmetryPlane;
    }
    defaultFaces
    {
        type            empty;
    }
    procBoundary0to1
    {
        type            processor;
        value           nonuniform List<vector> 
31
(
(1.05046 -0.00273425 7.93187e-20)
(1.05104 -0.00815917 5.20855e-20)
(1.05218 -0.0134964 3.8515e-20)
(1.05383 -0.0188134 -3.54655e-20)
(1.05593 -0.0241577 -4.21081e-20)
(1.05593 -0.0241577 -4.21081e-20)
(1.05932 -0.0294274 -1.35068e-20)
(1.06225 -0.0349239 1.83503e-20)
(1.06554 -0.040564 -2.88115e-20)
(1.06914 -0.0463783 4.86867e-20)
(1.07303 -0.0523949 8.26527e-20)
(1.07717 -0.0586401 1.34095e-20)
(1.08153 -0.0651382 -5.92224e-20)
(1.08608 -0.0719129 4.93397e-21)
(1.09077 -0.0789868 4.58899e-20)
(1.09556 -0.0863823 -1.10155e-19)
(1.10043 -0.0941212 1.03817e-19)
(1.10531 -0.102227 -1.71901e-19)
(1.11018 -0.110721 1.43046e-19)
(1.11499 -0.119629 -4.01358e-20)
(1.1197 -0.128975 2.11082e-19)
(1.12426 -0.138787 -2.56171e-19)
(1.12862 -0.149092 5.07595e-19)
(1.13276 -0.159923 -2.87565e-19)
(1.13662 -0.171314 1.7361e-19)
(1.14016 -0.183304 -4.65316e-19)
(1.14336 -0.195937 1.1628e-19)
(1.14616 -0.20926 5.8808e-19)
(1.14853 -0.223324 -9.78763e-19)
(1.15042 -0.238186 -4.294e-19)
(1.15176 -0.253899 7.18647e-19)
)
;
    }
    procBoundary0to6
    {
        type            processor;
        value           nonuniform List<vector> 
16
(
(1.00083 -0.0160416 0)
(0.999188 -0.0401294 0)
(0.997297 -0.0663182 0)
(0.995992 -0.0948634 0)
(0.999233 -0.126767 0)
(1.00653 -0.159575 0)
(1.02137 -0.192589 0)
(1.04111 -0.22257 0)
(1.06657 -0.245818 0)
(1.09354 -0.271018 0)
(1.12206 -0.265352 -9.21738e-20)
(1.12907 -0.263185 1.20396e-18)
(1.12907 -0.263185 1.20396e-18)
(1.13288 -0.278181 -9.71264e-20)
(1.13941 -0.275683 -1.45485e-18)
(1.14597 -0.273116 -2.11925e-19)
)
;
    }
}


// ************************************************************************* //
