/*--------------------------------*- C++ -*----------------------------------*\
  =========                 |
  \\      /  F ield         | OpenFOAM: The Open Source CFD Toolbox
   \\    /   O peration     | Website:  https://openfoam.org
    \\  /    A nd           | Version:  7
     \\/     M anipulation  |
\*---------------------------------------------------------------------------*/
FoamFile
{
    version     2.0;
    format      ascii;
    class       surfaceScalarField;
    location    "7";
    object      phi;
}
// * * * * * * * * * * * * * * * * * * * * * * * * * * * * * * * * * * * * * //

dimensions      [0 3 -1 0 0 0 0];

internalField   nonuniform List<scalar> 
615
(
0.000135356
-1.72841e-06
0.000135252
-1.69712e-06
0.00013515
-1.6666e-06
0.00013505
-1.63682e-06
0.000134952
-1.60775e-06
0.000134855
-1.57937e-06
0.000134761
-1.55166e-06
0.000134667
-1.5246e-06
0.000134576
-1.49817e-06
0.000134486
-1.47234e-06
0.000134397
-1.4471e-06
0.00013431
-1.42244e-06
0.000134224
-1.39832e-06
0.00013414
-1.37475e-06
0.000134057
-1.3517e-06
0.000133975
-1.32916e-06
0.000133895
-1.30712e-06
0.000133816
-1.28556e-06
0.000133739
-1.26447e-06
0.000133662
-1.24384e-06
0.000133587
-1.22366e-06
0.000133513
-1.20392e-06
0.00013344
-1.18461e-06
0.000133369
-1.16573e-06
0.000133298
-1.14727e-06
0.000133229
-1.12922e-06
0.000133161
-1.11159e-06
0.000133093
-1.09436e-06
0.000133027
-1.07755e-06
0.000132962
-1.06114e-06
-1.04516e-06
0.000138435
-3.51763e-06
0.000138209
-3.42714e-06
0.000137989
-3.34022e-06
0.000137774
-3.25666e-06
0.000137564
-3.17629e-06
0.000137359
-3.09891e-06
0.000137159
-3.02439e-06
0.000136964
-2.95255e-06
0.000136772
-2.88327e-06
0.000136585
-2.81642e-06
0.000136402
-2.75187e-06
0.000136223
-2.68951e-06
0.000136048
-2.62924e-06
0.000135877
-2.57095e-06
0.000135709
-2.51456e-06
0.000135545
-2.45996e-06
0.000135384
-2.4071e-06
0.000135226
-2.35587e-06
0.000135072
-2.30622e-06
0.000134921
-2.25808e-06
0.000134773
-2.21138e-06
0.000134627
-2.16605e-06
0.000134485
-2.12205e-06
0.000134345
-2.07931e-06
0.000134209
-2.0378e-06
0.000134074
-1.99745e-06
0.000133943
-1.95822e-06
0.000133813
-1.92007e-06
0.000133687
-1.88295e-06
0.000133562
-1.84684e-06
0.00013344
-1.81168e-06
0.00013332
-1.77745e-06
0.000133203
-1.74411e-06
0.000133087
-1.71162e-06
0.000132974
-1.67997e-06
0.000132862
-1.64911e-06
0.000132753
-1.61902e-06
0.000132645
-1.58968e-06
0.00013254
-1.56105e-06
0.000132436
-1.53312e-06
0.000132334
-1.50586e-06
0.000132234
-1.47925e-06
0.000132136
-1.45327e-06
0.000132039
-1.4279e-06
0.000131944
-1.40312e-06
0.000131851
-1.3789e-06
0.000131759
-1.35525e-06
0.000131668
-1.33212e-06
0.00013158
-1.30952e-06
0.000131492
-1.28743e-06
0.000131406
-1.26582e-06
0.000131322
-1.2447e-06
0.000131239
-1.22404e-06
0.000131157
-1.20383e-06
0.000131077
-1.18407e-06
0.000130998
-1.16474e-06
0.00013092
-1.14583e-06
0.000130843
-1.12734e-06
0.000130768
-1.10925e-06
0.000130694
-1.09156e-06
0.000130621
-1.07427e-06
0.000130549
-1.05737e-06
0.000130478
-1.04085e-06
0.000130409
-1.02472e-06
0.00013034
-1.00897e-06
0.000130272
-9.93617e-07
-9.7865e-07
0.000135652
-3.27793e-06
0.000135418
-3.19337e-06
0.00013519
-3.11216e-06
0.000134968
-3.03411e-06
0.00013475
-2.95903e-06
0.000134538
-2.88677e-06
0.000134331
-2.81718e-06
0.000134129
-2.75011e-06
0.000133931
-2.68543e-06
0.000133737
-2.62303e-06
0.000133548
-2.56278e-06
0.000133363
-2.50458e-06
0.000133183
-2.44833e-06
0.000133006
-2.39395e-06
0.000132832
-2.34133e-06
0.000132663
-2.2904e-06
0.000132497
-2.24108e-06
0.000132334
-2.19331e-06
0.000132175
-2.147e-06
0.000132019
-2.1021e-06
0.000131866
-2.05855e-06
0.000131716
-2.01629e-06
0.00013157
-1.97526e-06
0.000131426
-1.93542e-06
0.000131285
-1.89672e-06
0.000131146
-1.8591e-06
0.000131011
-1.82254e-06
0.000130877
-1.78698e-06
0.000130747
-1.75239e-06
0.000130619
-1.71873e-06
0.000130493
-1.68597e-06
0.00013037
-1.65407e-06
0.000130249
-1.62301e-06
0.00013013
-1.59274e-06
0.000130013
-1.56325e-06
0.000129898
-1.5345e-06
0.000129786
-1.50648e-06
0.000129675
-1.47914e-06
0.000129567
-1.45248e-06
0.00012946
-1.42647e-06
0.000129355
-1.40108e-06
0.000129252
-1.3763e-06
0.000129151
-1.3521e-06
0.000129052
-1.32847e-06
0.000128954
-1.3054e-06
0.000128858
-1.28285e-06
0.000128764
-1.26082e-06
0.000128671
-1.23929e-06
0.000128579
-1.21825e-06
0.00012849
-1.19768e-06
0.000128401
-1.17757e-06
0.000128315
-1.15791e-06
0.000128229
-1.13868e-06
0.000128145
-1.11987e-06
0.000128063
-1.10148e-06
0.000127982
-1.08349e-06
0.000127902
-1.06589e-06
0.000127823
-1.04868e-06
0.000127746
-1.03185e-06
0.000127669
-1.01539e-06
0.000127594
-9.99299e-07
0.000127521
-9.83573e-07
0.000127448
-9.68207e-07
0.000127376
-9.53202e-07
0.000127306
-9.38557e-07
0.000127237
-9.24275e-07
-9.10358e-07
0.00013245
-3.03169e-06
0.00013221
-2.95331e-06
0.000131976
-2.87803e-06
0.000131748
-2.80569e-06
0.000131525
-2.73612e-06
0.000131307
-2.66917e-06
0.000131095
-2.6047e-06
0.000130887
-2.54257e-06
0.000130685
-2.48266e-06
0.000130486
-2.42486e-06
0.000130293
-2.36906e-06
0.000130103
-2.31517e-06
0.000129918
-2.26309e-06
0.000129737
-2.21273e-06
0.000129559
-2.16402e-06
0.000129386
-2.11687e-06
0.000129216
-2.07122e-06
0.00012905
-2.027e-06
0.000128887
-1.98414e-06
0.000128727
-1.94259e-06
0.000128571
-1.90228e-06
0.000128418
-1.86318e-06
0.000128268
-1.82521e-06
0.000128121
-1.78835e-06
0.000127977
-1.75254e-06
0.000127835
-1.71774e-06
0.000127697
-1.68392e-06
0.000127561
-1.65103e-06
0.000127427
-1.61903e-06
0.000127297
-1.5879e-06
0.000127168
-1.5576e-06
0.000127042
-1.5281e-06
0.000126919
-1.49937e-06
0.000126797
-1.47138e-06
0.000126678
-1.44411e-06
0.000126561
-1.41753e-06
0.000126446
-1.39162e-06
0.000126334
-1.36635e-06
0.000126223
-1.3417e-06
0.000126114
-1.31765e-06
0.000126007
-1.29418e-06
0.000125902
-1.27127e-06
0.000125799
-1.2489e-06
0.000125697
-1.22706e-06
0.000125598
-1.20573e-06
0.0001255
-1.1849e-06
0.000125403
-1.16454e-06
0.000125309
-1.14464e-06
0.000125216
-1.12519e-06
0.000125124
-1.10618e-06
0.000125034
-1.0876e-06
0.000124946
-1.06943e-06
0.000124859
-1.05166e-06
0.000124773
-1.03428e-06
0.000124689
-1.01729e-06
0.000124606
-1.00067e-06
0.000124525
-9.84409e-07
0.000124445
-9.6851e-07
0.000124366
-9.52962e-07
0.000124288
-9.37759e-07
0.000124212
-9.22898e-07
0.000124136
-9.08373e-07
0.000124062
-8.94183e-07
0.00012399
-8.80327e-07
0.000123918
-8.66805e-07
0.000123847
-8.53619e-07
-8.40773e-07
0.00012882
-2.78102e-06
0.000128576
-2.70899e-06
0.000128337
-2.63982e-06
0.000128105
-2.57336e-06
0.000127878
-2.50944e-06
0.000127657
-2.44794e-06
0.000127441
-2.38872e-06
0.00012723
-2.33165e-06
0.000127024
-2.27663e-06
0.000126823
-2.22355e-06
0.000126626
-2.17231e-06
0.000126434
-2.12283e-06
0.000126246
-2.07501e-06
0.000126062
-2.02877e-06
0.000125882
-1.98405e-06
0.000125706
-1.94077e-06
0.000125533
-1.89887e-06
0.000125365
-1.85828e-06
0.000125199
-1.81894e-06
0.000125038
-1.7808e-06
0.000124879
-1.74381e-06
0.000124724
-1.70792e-06
0.000124572
-1.67309e-06
0.000124423
-1.63926e-06
0.000124277
-1.60641e-06
0.000124133
-1.57448e-06
0.000123993
-1.54345e-06
0.000123855
-1.51327e-06
0.00012372
-1.48392e-06
0.000123587
-1.45536e-06
0.000123457
-1.42756e-06
0.00012333
-1.4005e-06
0.000123205
-1.37415e-06
0.000123082
-1.34848e-06
0.000122961
-1.32347e-06
0.000122843
-1.29909e-06
0.000122726
-1.27533e-06
0.000122612
-1.25215e-06
0.0001225
-1.22954e-06
0.00012239
-1.20749e-06
0.000122282
-1.18597e-06
0.000122175
-1.16497e-06
0.000122071
-1.14446e-06
0.000121968
-1.12443e-06
0.000121867
-1.10488e-06
0.000121768
0.000121671
0.000121575
0.000121481
0.000121388
0.000121297
0.000121208
0.00012112
0.000121033
0.000120948
0.000120864
0.000120782
0.000120701
0.000120621
0.000120542
0.000120465
0.000120389
0.000120314
0.000120241
0.000120168
0.000120097
0.000124751
0.000124505
0.000124265
0.00012403
0.000123802
0.000123579
0.000123361
0.000123149
0.000122941
0.000122738
0.00012254
0.000122347
0.000122157
0.000121972
0.000121791
0.000121614
0.00012144
0.00012127
0.000121104
0.000120941
0.000120782
0.000120626
0.000120473
0.000120323
0.000120176
0.000120032
0.000119891
0.000119752
0.000119616
0.000119483
0.000119353
0.000119224
0.000119099
0.000118975
0.000118854
0.000118735
0.000118618
0.000118503
0.000118391
0.00011828
0.000118171
0.000118065
0.00011796
0.000117857
)
;

boundaryField
{
    inlet
    {
        type            calculated;
        value           nonuniform 0();
    }
    outlet
    {
        type            calculated;
        value           nonuniform 0();
    }
    wall
    {
        type            calculated;
        value           nonuniform 0();
    }
    wedge1
    {
        type            wedge;
        value           nonuniform List<scalar> 
344
(
-1.36117e-16
3.34569e-16
-1.14024e-16
-5.37207e-16
1.66842e-16
-1.3258e-16
3.25993e-16
-1.11016e-16
-5.23223e-16
1.62572e-16
-1.29152e-16
3.17773e-16
-1.0812e-16
-5.09787e-16
1.58479e-16
-1.25959e-16
3.09754e-16
-1.05441e-16
-4.96994e-16
1.54444e-16
-1.22792e-16
3.02163e-16
-1.0276e-16
-4.84579e-16
1.50656e-16
-1.1988e-16
2.94691e-16
-1.00336e-16
-4.72793e-16
1.46877e-16
-1.16963e-16
2.8764e-16
-9.78633e-17
-4.61292e-16
1.4337e-16
-1.14226e-16
2.80739e-16
-9.55707e-17
-4.50313e-16
1.39903e-16
-1.11484e-16
2.74211e-16
-9.32508e-17
-4.39617e-16
1.36651e-16
-1.08981e-16
2.67745e-16
-9.11692e-17
-4.29456e-16
1.33383e-16
-1.0645e-16
2.61648e-16
-8.90219e-17
-4.19498e-16
1.30358e-16
-1.04076e-16
2.55653e-16
-8.70397e-17
-4.09987e-16
1.27345e-16
-1.01685e-16
2.49984e-16
-8.50188e-17
-4.00685e-16
1.24523e-16
-9.95111e-17
2.44337e-16
-8.32153e-17
-3.9185e-16
1.21661e-16
-9.73131e-17
2.38993e-16
-8.13641e-17
-3.83189e-16
1.18987e-16
-9.52447e-17
2.33741e-16
-7.96388e-17
-3.74879e-16
1.16345e-16
-9.32457e-17
2.28656e-16
-7.79762e-17
-3.66838e-16
1.13779e-16
-9.13141e-17
2.23728e-16
-7.63659e-17
-3.59046e-16
1.11295e-16
-8.94307e-17
2.18962e-16
-7.47946e-17
-3.51487e-16
1.08895e-16
-8.76118e-17
2.14333e-16
-7.32778e-17
-3.44166e-16
1.06559e-16
-8.58458e-17
2.09846e-16
-7.18039e-17
-3.37062e-16
1.043e-16
-8.41245e-17
2.055e-16
-7.03666e-17
-3.30162e-16
1.0211e-16
-8.24565e-17
2.01276e-16
-6.89753e-17
-3.23469e-16
9.99853e-17
-8.08309e-17
1.9718e-16
-6.76205e-17
-3.16968e-16
9.79213e-17
-7.92609e-17
1.93192e-16
-6.63092e-17
-3.10655e-16
9.59171e-17
-7.77326e-17
1.89323e-16
-6.50289e-17
-3.04513e-16
9.39793e-17
-7.61595e-17
1.8566e-16
-6.36831e-17
-2.98442e-16
9.21856e-17
-7.4616e-17
1.82104e-16
-6.23774e-17
-2.92534e-16
9.04442e-17
-7.32034e-17
1.78537e-16
-6.12004e-17
-2.869e-16
8.86571e-17
-7.17324e-17
1.75186e-16
-5.99552e-17
-2.8131e-16
8.70038e-17
-7.04472e-17
1.71755e-16
-5.88975e-17
-2.76024e-16
8.52654e-17
-6.90786e-17
1.68559e-16
-5.77317e-17
-2.70731e-16
8.37021e-17
-6.78166e-17
1.65346e-16
-5.66825e-17
-2.65677e-16
8.20954e-17
-6.65273e-17
1.62301e-16
-5.55926e-17
-2.60678e-16
8.05863e-17
-6.52437e-17
1.5936e-16
-5.44964e-17
-2.55772e-16
7.91591e-17
-6.40251e-17
1.56447e-16
-5.34712e-17
-2.51033e-16
7.77272e-17
-6.81011e-17
-6.28072e-17
1.53646e-16
-5.24342e-17
-2.46378e-16
7.63648e-17
-6.68465e-17
-6.16343e-17
1.50889e-16
-5.14486e-17
-2.41872e-16
7.50038e-17
-6.55935e-17
-6.0481e-17
1.4822e-16
-5.04716e-17
-2.37453e-16
7.37006e-17
-6.44155e-17
-5.93863e-17
1.45577e-16
-4.95518e-17
-2.33174e-16
7.24003e-17
-6.32223e-17
-5.82841e-17
1.43037e-16
-4.86172e-17
-2.28965e-16
7.11617e-17
-6.209e-17
-5.72255e-17
1.4053e-16
-4.77306e-17
-2.24887e-16
6.99194e-17
-6.09524e-17
-5.618e-17
1.38108e-16
-4.68431e-17
-2.20877e-16
6.87391e-17
-5.98841e-17
-5.51857e-17
1.35705e-16
-4.60122e-17
-2.16997e-16
6.75496e-17
-5.87954e-17
-5.41847e-17
1.33394e-16
-4.51661e-17
-2.13177e-16
6.64187e-17
-5.77743e-17
-5.32421e-17
1.3109e-16
-4.4381e-17
-2.09491e-16
-5.67815e-17
-5.23155e-17
1.28854e-16
-4.36072e-17
-2.05877e-16
-5.57687e-17
-5.13851e-17
1.26698e-16
-4.28178e-17
-2.0231e-16
-5.48172e-17
-5.05003e-17
1.24555e-16
-4.20804e-17
-1.98861e-16
-5.38477e-17
-4.96102e-17
1.22494e-16
-4.13271e-17
-1.95456e-16
-5.29338e-17
-4.87543e-17
1.20455e-16
-4.06139e-17
-1.92155e-16
-5.20089e-17
-4.79078e-17
1.18483e-16
-3.98976e-17
-1.88902e-16
-5.11455e-17
-4.71052e-17
1.16518e-16
-3.92288e-17
-1.85754e-16
-5.02524e-17
-4.6285e-17
1.1464e-16
-3.85342e-17
-1.82638e-16
-4.94174e-17
-4.55027e-17
1.12773e-16
-3.78843e-17
-1.79623e-16
-4.8573e-17
-4.47296e-17
1.10967e-16
-3.72307e-17
-1.76649e-16
-4.77898e-17
-4.40041e-17
1.0916e-16
-3.66291e-17
-1.73777e-16
-4.69765e-17
-4.32575e-17
1.07437e-16
-3.59973e-17
-1.70929e-16
-4.62138e-17
-4.25432e-17
1.05727e-16
-3.54032e-17
-1.68175e-16
-4.5441e-17
-4.18382e-17
1.04074e-16
-3.48066e-17
-1.65455e-16
-4.47267e-17
-4.11732e-17
1.02421e-16
-3.42548e-17
-1.6283e-16
-4.39818e-17
-4.0491e-17
1.00845e-16
-3.36774e-17
-1.60227e-16
-4.32818e-17
-3.98345e-17
9.92879e-17
-3.31329e-17
-1.5771e-16
-4.25719e-17
-3.91877e-17
9.77843e-17
-3.25838e-17
-1.55228e-16
-4.1921e-17
-3.85827e-17
9.62781e-17
-3.20843e-17
-1.52841e-16
-4.12427e-17
-3.79642e-17
9.48458e-17
-3.15624e-17
-1.50482e-16
-4.06134e-17
-3.73695e-17
9.34305e-17
-3.10723e-17
-1.48207e-16
)
;
    }
    wedge2
    {
        type            wedge;
        value           nonuniform List<scalar> 
344
(
-1.33643e-16
3.37074e-16
-1.11528e-16
-5.34747e-16
1.69224e-16
-1.30243e-16
3.28326e-16
-1.08704e-16
-5.20957e-16
1.64773e-16
-1.27006e-16
3.19906e-16
-1.05999e-16
-5.07723e-16
1.60492e-16
-1.23793e-16
3.11932e-16
-1.03295e-16
-4.94889e-16
1.56482e-16
-1.20797e-16
3.04141e-16
-1.00799e-16
-4.8266e-16
1.52534e-16
-1.17776e-16
2.96808e-16
-9.82422e-17
-4.70733e-16
1.4887e-16
-1.1498e-16
2.89599e-16
-9.59169e-17
-4.59398e-16
1.4521e-16
-1.12209e-16
2.82758e-16
-9.35864e-17
-4.48376e-16
1.41771e-16
-1.09639e-16
2.76034e-16
-9.14488e-17
-4.37859e-16
1.38366e-16
-1.07016e-16
2.69714e-16
-8.92298e-17
-4.27556e-16
1.35213e-16
-1.04597e-16
2.63467e-16
-8.72255e-17
-4.1776e-16
1.32039e-16
-1.0219e-16
2.57537e-16
-8.51978e-17
-4.08193e-16
1.29066e-16
-9.9959e-17
2.51682e-16
-8.33437e-17
-3.9906e-16
1.26104e-16
-9.76637e-17
2.46185e-16
-8.14005e-17
-3.90071e-16
1.23373e-16
-9.55373e-17
2.40747e-16
-7.96272e-17
-3.81492e-16
1.20639e-16
-9.34196e-17
2.35565e-16
-7.78447e-17
-3.73117e-16
1.18047e-16
-9.13646e-17
2.30545e-16
-7.61107e-17
-3.65004e-16
1.15545e-16
-8.93684e-17
2.25684e-16
-7.44307e-17
-3.57147e-16
1.13121e-16
-8.74445e-17
2.20961e-16
-7.28132e-17
-3.49542e-16
1.10765e-16
-8.55716e-17
2.16391e-16
-7.12384e-17
-3.42162e-16
1.0849e-16
-8.37562e-17
2.11954e-16
-6.97137e-17
-3.35007e-16
1.06277e-16
-8.20018e-17
2.0764e-16
-6.82413e-17
-3.28072e-16
1.04128e-16
-8.02955e-17
2.03458e-16
-6.68082e-17
-3.21337e-16
1.02041e-16
-7.8644e-17
1.99391e-16
-6.54204e-17
-3.14799e-16
1.00016e-16
-7.70301e-17
1.95449e-16
-6.40675e-17
-3.08446e-16
9.80488e-17
-7.54641e-17
1.91611e-16
-6.27588e-17
-3.02282e-16
9.61276e-17
-7.40289e-17
1.87781e-16
-6.15879e-17
-2.9639e-16
9.41703e-17
-7.26467e-17
1.84051e-16
-6.04465e-17
-2.90666e-16
9.22646e-17
-7.1213e-17
1.80531e-16
-5.92431e-17
-2.84986e-16
9.05043e-17
-6.99142e-17
1.76985e-16
-5.81722e-17
-2.79567e-16
8.87064e-17
-6.85033e-17
1.73704e-16
-5.69756e-17
-2.74139e-16
8.70859e-17
-6.72466e-17
1.70364e-16
-5.59465e-17
-2.69002e-16
8.53793e-17
-6.59516e-17
1.6721e-16
-5.48581e-17
-2.63898e-16
8.38016e-17
-6.47496e-17
1.64054e-16
-5.38658e-17
-2.59002e-16
8.22091e-17
-6.36054e-17
1.60952e-16
-5.2933e-17
-2.54267e-16
8.0614e-17
-6.24574e-17
1.57974e-16
-5.19806e-17
-2.49609e-16
7.91005e-17
-6.66369e-17
-6.13678e-17
1.55033e-16
-5.10894e-17
-2.45103e-16
7.75915e-17
-6.5453e-17
-6.02902e-17
1.52189e-16
-5.01949e-17
-2.40677e-16
7.61526e-17
-6.4327e-17
-5.92481e-17
1.49394e-16
-4.93379e-17
-2.36383e-16
7.47248e-17
-6.31835e-17
-5.82007e-17
1.46707e-16
-4.84683e-17
-2.32161e-16
7.33609e-17
-6.21109e-17
-5.72121e-17
1.44044e-16
-4.76568e-17
-2.28075e-16
7.19998e-17
-6.10312e-17
-5.62299e-17
1.41473e-16
-4.6839e-17
-2.24056e-16
7.07046e-17
-6.00089e-17
-5.52827e-17
1.38937e-16
-4.60625e-17
-2.20161e-16
6.94078e-17
-5.89677e-17
-5.43309e-17
1.36499e-16
-4.52685e-17
-2.16323e-16
6.81785e-17
-5.79958e-17
-5.3431e-17
1.34081e-16
-4.45275e-17
-2.12605e-16
6.69472e-17
-5.70036e-17
-5.25165e-17
1.31764e-16
-4.37623e-17
-2.08926e-16
-5.6029e-17
-5.16284e-17
1.29486e-16
-4.30212e-17
-2.05346e-16
-5.51189e-17
-5.07853e-17
1.27231e-16
-4.23304e-17
-2.01882e-16
-5.41908e-17
-4.99365e-17
1.25062e-16
-4.16209e-17
-1.9846e-16
-5.33226e-17
-4.91319e-17
1.22908e-16
-4.09598e-17
-1.95148e-16
-5.24396e-17
-4.83306e-17
1.20825e-16
-4.02903e-17
-1.91882e-16
-5.16072e-17
-4.75568e-17
1.18768e-16
-3.96546e-17
-1.88715e-16
-5.0752e-17
-4.67746e-17
1.16791e-16
-3.90012e-17
-1.85585e-16
-4.99641e-17
-4.60449e-17
1.14815e-16
-3.84029e-17
-1.82561e-16
-4.91548e-17
-4.53112e-17
1.12912e-16
-3.77881e-17
-1.79572e-16
-4.83907e-17
-4.46014e-17
1.11032e-16
-3.72049e-17
-1.76673e-16
-4.76006e-17
-4.38764e-17
1.09232e-16
-3.65968e-17
-1.73802e-16
-4.68747e-17
-4.32042e-17
1.07427e-16
-3.60454e-17
-1.71033e-16
-4.6132e-17
-4.25308e-17
1.05687e-16
-3.54825e-17
-1.68294e-16
-4.54324e-17
-4.18788e-17
1.03967e-16
-3.49477e-17
-1.65643e-16
-4.4707e-17
-4.12169e-17
1.02321e-16
-3.43935e-17
-1.63018e-16
-4.40444e-17
-4.0602e-17
1.00673e-16
-3.38898e-17
-1.60489e-16
-4.3369e-17
-3.99911e-17
9.90804e-17
-3.3378e-17
-1.57993e-16
-4.27352e-17
-3.93998e-17
9.75073e-17
-3.28957e-17
-1.55581e-16
-4.20742e-17
-3.87962e-17
9.60102e-17
-3.23884e-17
-1.5319e-16
-4.14726e-17
-3.82356e-17
9.45132e-17
-3.19284e-17
-1.50891e-16
-4.08541e-17
-3.76811e-17
9.30738e-17
-3.14618e-17
-1.48627e-16
)
;
    }
    axis
    {
        type            empty;
        value           nonuniform 0();
    }
    procBoundary25to19
    {
        type            processor;
        value           nonuniform List<scalar> 
68
(
1.83383e-06
1.80068e-06
1.76834e-06
1.73679e-06
1.70599e-06
1.67592e-06
1.64655e-06
1.61787e-06
1.58985e-06
1.56248e-06
1.53573e-06
1.50958e-06
1.48402e-06
1.45902e-06
1.43459e-06
1.41069e-06
1.38731e-06
1.36445e-06
1.34208e-06
1.3202e-06
1.2988e-06
1.27786e-06
1.25738e-06
1.23735e-06
1.21777e-06
1.19862e-06
1.17991e-06
1.16163e-06
1.14378e-06
1.12637e-06
1.1094e-06
3.74876e-06
3.65264e-06
3.5603e-06
3.47151e-06
3.38609e-06
3.30385e-06
3.22462e-06
3.14824e-06
3.07458e-06
3.00348e-06
2.93482e-06
2.86848e-06
2.80435e-06
2.74233e-06
2.68232e-06
2.62422e-06
2.56794e-06
2.51342e-06
2.46056e-06
2.4093e-06
2.35957e-06
2.3113e-06
2.26444e-06
2.21892e-06
2.1747e-06
2.13171e-06
2.08992e-06
2.04927e-06
2.00973e-06
1.97124e-06
1.93377e-06
1.89729e-06
1.86175e-06
1.82713e-06
1.79338e-06
-0.000135461
1.76049e-06
)
;
    }
    procBoundary25to24
    {
        type            processor;
        value           nonuniform List<scalar> 4(-0.000138666 -0.000135892 -0.000132697 -0.000129071);
    }
    procBoundary25to26
    {
        type            processor;
        value           nonuniform List<scalar> 5(0.000132898 0.000130206 0.000127168 0.000123778 0.000120026);
    }
    procBoundary25to30
    {
        type            processor;
        value           uniform -0.000125004;
    }
    procBoundary25to31
    {
        type            processor;
        value           nonuniform List<scalar> 
68
(
-1.08577e-06
-1.06711e-06
-1.04887e-06
-1.03104e-06
-1.01362e-06
-9.9658e-07
-9.79923e-07
-9.63636e-07
-9.47708e-07
-9.32132e-07
-9.16898e-07
-9.01999e-07
-8.87429e-07
-8.73181e-07
-8.5925e-07
-8.45633e-07
-8.32326e-07
-8.19326e-07
-8.06633e-07
-7.94247e-07
-7.82171e-07
-7.7041e-07
-2.5281e-06
-2.46253e-06
-2.39958e-06
-2.33908e-06
-2.28092e-06
-2.22495e-06
-2.17105e-06
-2.11913e-06
-2.06907e-06
-2.02077e-06
-1.97416e-06
-1.92914e-06
-1.88564e-06
-1.84358e-06
-1.80291e-06
-1.76354e-06
-1.72543e-06
-1.68851e-06
-1.65273e-06
-1.61805e-06
-1.58441e-06
-1.55178e-06
-1.5201e-06
-1.48935e-06
-1.45947e-06
-1.43044e-06
-1.40223e-06
-1.37479e-06
-1.34811e-06
-1.32215e-06
-1.29688e-06
-1.27228e-06
-1.24833e-06
-1.22499e-06
-1.20226e-06
-1.1801e-06
-1.1585e-06
-1.13744e-06
-1.11689e-06
-1.09685e-06
-1.07729e-06
-1.0582e-06
-1.03957e-06
-1.02137e-06
0.000117755
-1.0036e-06
)
;
    }
}


// ************************************************************************* //
