/*--------------------------------*- C++ -*----------------------------------*\
  =========                 |
  \\      /  F ield         | OpenFOAM: The Open Source CFD Toolbox
   \\    /   O peration     | Website:  https://openfoam.org
    \\  /    A nd           | Version:  7
     \\/     M anipulation  |
\*---------------------------------------------------------------------------*/
FoamFile
{
    version     2.0;
    format      ascii;
    class       volScalarField;
    location    "2";
    object      p;
}
// * * * * * * * * * * * * * * * * * * * * * * * * * * * * * * * * * * * * * //

dimensions      [0 2 -2 0 0 0 0];

internalField   nonuniform List<scalar> 
344
(
2.13549
2.13476
2.13404
2.13335
2.13267
2.13201
2.13137
2.13075
2.13014
2.12956
2.12899
2.12843
2.1279
2.12738
2.12687
2.12638
2.1259
2.12543
2.12497
2.12453
2.12409
2.12366
2.12323
2.12282
2.1224
2.12199
2.12159
2.12118
2.12078
2.12039
2.11999
2.18947
2.1888
2.18753
2.18568
2.18337
2.18073
2.17792
2.17506
2.17224
2.16951
2.1669
2.16442
2.16211
2.15997
2.15803
2.15628
2.15472
2.15331
2.15202
2.15083
2.14971
2.14864
2.14761
2.14661
2.14563
2.14468
2.14375
2.14283
2.14194
2.14106
2.1402
2.13936
2.13854
2.13773
2.13694
2.13618
2.13542
2.13469
2.13398
2.13329
2.13261
2.13195
2.13131
2.13069
2.13009
2.1295
2.12894
2.12838
2.12785
2.12733
2.12683
2.12634
2.12586
2.12539
2.12494
2.1245
2.12406
2.12363
2.12321
2.12279
2.12238
2.12198
2.12157
2.12117
2.12077
2.12037
2.11998
2.19057
2.18985
2.18847
2.18648
2.184
2.1812
2.17824
2.17526
2.17233
2.16952
2.16683
2.16429
2.16192
2.15975
2.15779
2.15604
2.15449
2.15309
2.15183
2.15066
2.14956
2.1485
2.14748
2.14649
2.14553
2.14458
2.14365
2.14274
2.14185
2.14098
2.14012
2.13928
2.13846
2.13766
2.13687
2.13611
2.13536
2.13463
2.13392
2.13322
2.13255
2.13189
2.13125
2.13063
2.13003
2.12945
2.12888
2.12833
2.1278
2.12728
2.12678
2.1263
2.12582
2.12536
2.12491
2.12447
2.12403
2.12361
2.12319
2.12277
2.12236
2.12196
2.12156
2.12116
2.12076
2.12036
2.11997
2.19174
2.19096
2.18946
2.18731
2.18466
2.18167
2.17856
2.17545
2.17242
2.16951
2.16674
2.16413
2.1617
2.1595
2.15753
2.15578
2.15424
2.15287
2.15163
2.15048
2.1494
2.14836
2.14736
2.14638
2.14542
2.14448
2.14356
2.14266
2.14177
2.1409
2.14004
2.13921
2.13839
2.13759
2.1368
2.13604
2.13529
2.13456
2.13385
2.13316
2.13248
2.13183
2.13119
2.13057
2.12997
2.12939
2.12883
2.12828
2.12775
2.12724
2.12674
2.12625
2.12578
2.12532
2.12487
2.12443
2.124
2.12358
2.12316
2.12275
2.12234
2.12194
2.12154
2.12114
2.12075
2.12035
2.11996
2.193
2.19214
2.19051
2.18818
2.18532
2.18215
2.17887
2.17563
2.17249
2.16948
2.16663
2.16394
2.16147
2.15923
2.15724
2.15551
2.15398
2.15264
2.15142
2.1503
2.14923
2.14821
2.14722
2.14626
2.14531
2.14438
2.14346
2.14257
2.14168
2.14082
2.13996
2.13913
2.13831
2.13751
2.13673
2.13597
2.13522
2.13449
2.13378
2.13309
2.13242
2.13176
2.13113
2.13051
2.12991
2.12933
2.12877
2.12823
2.1277
2.12719
2.12669
2.12621
2.12574
2.12528
2.12484
2.1244
2.12397
2.12355
2.12314
2.12273
2.12232
2.12192
2.12152
2.12113
2.12073
2.12034
2.11994
2.19435
2.1934
2.19162
2.18908
2.186
2.18262
2.17917
2.1758
2.17255
2.16944
2.16649
2.16373
2.1612
2.15893
2.15694
2.15521
2.15371
2.15239
2.15121
2.15011
2.14907
2.14807
2.14709
2.14614
2.1452
2.14428
2.14337
2.14248
2.1416
2.14073
2.13988
2.13905
2.13824
2.13744
2.13666
2.13589
2.13515
2.13442
2.13371
2.13302
2.13235
2.1317
2.13106
2.13045
2.12985
)
;

boundaryField
{
    inlet
    {
        type            zeroGradient;
    }
    outlet
    {
        type            fixedValue;
        value           nonuniform 0();
    }
    wall
    {
        type            zeroGradient;
    }
    wedge1
    {
        type            wedge;
    }
    wedge2
    {
        type            wedge;
    }
    axis
    {
        type            empty;
    }
    procBoundary24to18
    {
        type            processor;
        value           nonuniform List<scalar> 
68
(
2.13556
2.13482
2.13411
2.13341
2.13273
2.13207
2.13143
2.1308
2.1302
2.12961
2.12904
2.12848
2.12794
2.12742
2.12691
2.12642
2.12594
2.12547
2.12501
2.12456
2.12412
2.12368
2.12326
2.12284
2.12242
2.12201
2.1216
2.1212
2.1208
2.1204
2.12
2.18844
2.18782
2.18663
2.18492
2.18276
2.18027
2.1776
2.17486
2.17214
2.16949
2.16695
2.16454
2.16227
2.16017
2.15825
2.15651
2.15493
2.15351
2.15221
2.151
2.14986
2.14878
2.14773
2.14672
2.14574
2.14478
2.14384
2.14292
2.14202
2.14114
2.14028
2.13943
2.13861
2.1378
2.13701
2.13624
2.13624
)
;
    }
    procBoundary24to19
    {
        type            processor;
        value           uniform 2.11959;
    }
    procBoundary24to25
    {
        type            processor;
        value           nonuniform List<scalar> 4(2.11958 2.11957 2.11956 2.11955);
    }
    procBoundary24to30
    {
        type            processor;
        value           nonuniform List<scalar> 
68
(
2.12927
2.12871
2.12817
2.12765
2.12714
2.12664
2.12616
2.1257
2.12524
2.1248
2.12437
2.12394
2.12353
2.12312
2.12271
2.1223
2.12191
2.12151
2.12111
2.12072
2.12033
2.11993
2.1958
2.19475
2.19279
2.19001
2.18668
2.18308
2.17947
2.17596
2.1726
2.16938
2.16633
2.16349
2.1609
2.1586
2.1566
2.15489
2.15342
2.15214
2.15098
2.14991
2.1489
2.14792
2.14696
2.14602
2.14509
2.14418
2.14327
2.14238
2.14151
2.14065
2.1398
2.13897
2.13816
2.13736
2.13658
2.13582
2.13508
2.13435
2.13364
2.13296
2.13228
2.13163
2.131
2.13039
2.12927
2.12979
)
;
    }
}


// ************************************************************************* //
