/*--------------------------------*- C++ -*----------------------------------*\
  =========                 |
  \\      /  F ield         | OpenFOAM: The Open Source CFD Toolbox
   \\    /   O peration     | Website:  https://openfoam.org
    \\  /    A nd           | Version:  7
     \\/     M anipulation  |
\*---------------------------------------------------------------------------*/
FoamFile
{
    version     2.0;
    format      ascii;
    class       volScalarField;
    location    "11";
    object      p;
}
// * * * * * * * * * * * * * * * * * * * * * * * * * * * * * * * * * * * * * //

dimensions      [0 2 -2 0 0 0 0];

internalField   nonuniform List<scalar> 
433
(
-250.902
216.189
210.15
202.244
185.208
159.611
-463.819
-436.838
-413.275
-390.737
-365.261
-338.106
-309.883
-281.063
-251.195
-219.992
-188.041
-156.73
-127.755
-102.506
-81.7059
-65.3648
-464.163
-441.111
-418.196
-390.107
-354.155
-314.881
-276.591
-242.432
-212.446
-184.969
-159.12
-135.032
-113.165
-93.8509
-77.2618
-63.5641
-52.6063
-44.0826
193.015
184.819
180.429
176.843
172.297
165.898
154.474
136.636
114.137
90.53
68.2293
48.2528
30.7918
16.0481
4.22709
-4.65662
-11.1095
513.815
492.832
474.264
447.1
408.414
363.2
314.739
266.158
220.546
179.836
144.579
113.87
86.5424
62.1459
40.9258
23.2862
9.44228
-14.991
-10.0167
-8.86418
-15.6626
-27.6757
-41.7257
-54.7138
-64.4049
-69.0102
-67.578
-61.0767
-51.8266
-42.4099
-34.654
-29.195
-25.7598
-23.8593
-564.661
-534.713
-507.209
-477.288
-440.771
-400.785
-360.654
-322.375
-285.58
-249.22
-212.999
-177.767
-144.875
-115.699
-91.134
-71.4675
-56.3665
-256.243
-242.913
-227.676
-206.619
-178.084
-146.189
-116.558
-94.2893
-80.2809
-71.6475
-65.2968
-59.5353
-53.8422
-48.19
-42.7402
-37.8073
410.155
394.236
382.821
368.601
348.79
324.73
295.083
259.604
220.47
180.729
143.229
109.472
79.8809
54.7449
34.1808
18.1276
399.074
383.126
366.272
339.12
301.534
259.701
217.62
177.814
141.999
111.733
87.2552
67.5628
51.0138
36.4476
23.5221
12.4473
3.3826
-287.763
-270.806
-258.022
-249.155
-240.103
-229.877
-217.907
-204.254
-187.995
-168.105
-145.021
-120.483
-96.8416
-76.0673
-59.2099
-46.3994
-37.0767
-538.527
-510.744
-483.557
-450.76
-408.482
-361.516
-315.244
-274.197
-238.895
-207.441
-177.906
-149.632
-123.067
-99.0743
-78.4247
-61.6054
-48.4925
33.9657
34.3483
38.2455
46.0548
58.0132
72.0052
82.9508
85.7763
78.7744
64.6239
47.5308
30.9603
16.847
5.89556
-2.0512
-7.53638
-11.1877
516.397
496.333
479.499
455.382
420.808
380.158
335.722
289.625
243.912
200.359
160.547
125.091
94.1304
67.6679
45.666
28.0585
14.4681
4.36461
150.66
145.949
137.666
119.708
94.6275
67.6377
42.2334
20.4795
3.701
-6.92105
-11.7271
-12.4421
-11.2923
-10.0405
-9.54188
-9.81087
-10.6235
-11.6523
-12.6345
-480.289
-454.516
-431.85
-408.65
-380.507
-348.861
-315.597
-283.282
-252.095
-220.938
-189.078
-157.089
-126.591
-99.2622
-76.2572
-58.0047
-44.1746
-34.0946
-27.003
-379.051
-358.075
-336.114
-307.741
-269.779
-226.269
-183.11
-146.445
-119.197
-100.229
-86.3816
-74.7527
-63.9071
-53.5375
-44.063
-36.0021
-29.4855
-24.4576
-20.7512
-18.1231
307.724
297.155
290.513
282.893
272.871
261.691
247.056
226.371
198.965
166.773
133.287
101.739
74.1597
51.3533
33.2914
19.533
9.30698
1.887
-3.32949
-6.85043
-9.14978
481.133
461.141
441.517
411.625
369.775
322.677
275.276
230.543
189.658
153.086
121.25
94.1838
71.3982
52.2585
36.291
23.2391
12.9198
5.05155
-0.721909
-4.7843
-7.52166
-9.29794
-114.954
-108.286
-106.018
-109.973
-116.215
-121.227
-123.178
-121.965
-117.655
-109.366
-96.9782
-81.7882
-65.8999
-51.2955
-39.1982
-29.9743
-23.3335
-18.7589
-15.7215
-13.7829
-12.6029
-11.8957
-11.4822
-540.096
-511.439
-484.169
-452.753
-412.933
-367.862
-321.66
-279.113
-241.455
-207.877
-176.689
-146.893
-118.726
-93.2015
-71.3205
-53.6004
-40.0502
-30.0951
-23.0673
-18.2656
-15.0917
-13.0718
-11.8376
-11.1099
-123.48
-115.15
-104.699
-89.177
-66.6321
-38.9839
-11.1499
10.8161
22.6254
24.3908
19.3736
11.7145
4.48839
-0.953683
-4.55939
-6.81865
-8.1337
-8.88196
-9.29154
-9.52263
477.263
459.475
445.221
425.492
397.527
364.905
328.465
288.905
247.343
205.487
165.546
129.392
97.9066
71.485
49.9974
33.0656
300.84
287.825
272.292
246.226
210.575
172.183
135.637
103.284
76.1595
54.6771
38.8564
27.786
-359.125
-340.336
-325.147
-311.665
-295.624
-276.359
-254.031
-230.673
-472.11
-446.487
-421.065
)
;

boundaryField
{
    inlet
    {
        type            zeroGradient;
    }
    outlet
    {
        type            fixedValue;
        value           nonuniform 0();
    }
    cylinder
    {
        type            zeroGradient;
    }
    top
    {
        type            symmetryPlane;
    }
    bottom
    {
        type            symmetryPlane;
    }
    defaultFaces
    {
        type            empty;
    }
    procBoundary14to7
    {
        type            processor;
        value           nonuniform List<scalar> 
20
(
498.543
476.442
458.357
434.414
400.309
129.662
129.662
99.2973
71.8488
49.6999
34.1602
24.3707
17.9829
12.633
6.99088
0.948509
-4.91219
-52.9206
-52.9206
-43.7294
)
;
    }
    procBoundary14to8
    {
        type            processor;
        value           nonuniform List<scalar> 
28
(
-37.6466
-15.6004
-15.6004
-0.947598
-22.869
-45.1373
-33.4894
-33.4894
6.045
6.045
-3.64799
-30.5025
-38.6764
-13.5367
-13.5367
-2.83393
-2.83393
-13.4284
-22.1766
-22.1766
-16.3024
-16.3024
-10.5906
-10.5906
-10.394
-10.394
-11.245
-11.245
)
;
    }
    procBoundary14to9
    {
        type            processor;
        value           nonuniform List<scalar> 
30
(
-9.6607
-9.7298
-9.75909
-10.7056
-9.76864
20.0762
10.4096
3.46825
-9.6607
-1.33019
19.9767
14.0376
9.1025
20.0762
4.82611
-207.343
-183.297
-157.902
19.9767
-131.565
-389.756
-348.591
-300.702
-251.437
-207.343
-206.725
164.355
159.973
-389.756
158.661
)
;
    }
    procBoundary14to20
    {
        type            processor;
        value           nonuniform List<scalar> 2(-237.45 -491.728);
    }
    procBoundary14to27
    {
        type            processor;
        value           uniform 395.696;
    }
}


// ************************************************************************* //
