/*--------------------------------*- C++ -*----------------------------------*\
  =========                 |
  \\      /  F ield         | OpenFOAM: The Open Source CFD Toolbox
   \\    /   O peration     | Website:  https://openfoam.org
    \\  /    A nd           | Version:  7
     \\/     M anipulation  |
\*---------------------------------------------------------------------------*/
FoamFile
{
    version     2.0;
    format      ascii;
    class       volScalarField;
    location    "1.8";
    object      p;
}
// * * * * * * * * * * * * * * * * * * * * * * * * * * * * * * * * * * * * * //

dimensions      [1 -1 -2 0 0 0 0];

internalField   nonuniform List<scalar> 
580608
(
1
1
1
1
1
1
1
1
1
1
1
1
1
1
1
1
1
1
1
1
1
1
1
1
1
1
1
1
1
1
1
1
1
1
1
1
1
1
1
1
1
1
1
1
1
1
1
1
1
1
1
1
1
1
1
1
1
1
1
1
1
1
1
1
1
1
1
1
1
1
1
1
1
1
1
1
1
1
1
1
1
1
1
1
1
1
1
1
1
1
1
1
1
1
1
1
1
1
1
1
1
1
1
1
1
1
1
1
1
1
1
1
1
1
1
1
1
1
1
1
1
1
1
1
1
1
1
1
1
1
1
1
1
1
1
1
1
1
1
1
1
1
1
1
1
1
1
1
1
1
1
1
5.13152
10.2932
10.473
10.4787
10.5022
10.531
10.566
10.602
10.6383
10.6718
10.6956
10.7059
10.706
10.7022
10.7071
10.7267
10.7567
10.7931
10.8315
10.8655
10.8894
10.9015
10.9045
10.9043
10.9088
10.9229
10.9443
10.9693
10.9943
11.0146
11.0261
11.0311
11.0388
11.055
11.0816
11.1145
11.1456
11.1686
11.1826
11.1913
11.1986
11.2083
11.2235
11.2426
11.2632
11.2818
11.2951
11.3045
11.3149
11.3335
11.3633
11.398
11.428
11.4463
11.4499
11.4466
11.4427
11.4457
11.4608
11.4879
11.5185
11.5449
11.561
11.565
11.562
11.5614
11.5674
11.5849
11.6119
11.64
11.662
11.675
11.68
11.6835
11.6905
11.7037
11.7224
11.7424
11.7586
11.7673
11.7684
11.7669
11.7682
11.7745
11.7834
11.7913
11.7955
11.7973
11.8031
11.8183
11.8455
11.8782
11.905
11.9172
11.9153
11.9055
11.898
11.9024
11.9195
11.9395
11.9514
11.9531
11.9499
11.9472
11.9539
11.9753
12.0025
12.021
12.0261
12.0241
12.0241
12.0341
12.0528
12.0756
12.0907
12.0881
12.0708
12.0518
12.0408
12.0448
12.0606
12.0803
12.096
12.1021
12.0991
12.0928
12.0892
12.0905
12.0948
12.0997
12.1045
12.1087
12.1111
12.1124
12.112
12.1219
1
1
1
1
1
1
1
1
1
1
1
1
1
1
1
1
1
1
1
1
1
1
1
1
1
1
1
1
1
1
1
1
1
1
1
1
1
1
1
1
1
1
1
1
1
1
1
1
1
1
1
1
1
1
1
1
1
1
1
1
1
1
1
1
1
1
1
1
1
1
1
1
1
1
1
1
1
1
1
1
1
1
1
1
1
1
1
1
1
1
1
1
1
1
1
1
1
1
1
1
1
1
1
1
1
1
1
1
1
1
1
1
1
1
1
1
1
1
1
1
1
1
1
1
1
1
1
1
1
1
1
1
1
1
1
1
1
1
1
1
1
1
1
1
1
1
1
1
1
1
1
1
5.12084
10.2927
10.4794
10.4864
10.5069
10.5341
10.5683
10.6043
10.6389
10.6696
10.6942
10.7077
10.7102
10.709
10.7145
10.7327
10.7604
10.7939
10.8299
10.8631
10.8878
10.9011
10.9047
10.9044
10.9083
10.9217
10.9426
10.9669
10.9908
11.0104
11.0225
11.0291
11.0386
11.0569
11.0857
11.12
11.1516
11.174
11.1858
11.1912
11.1955
11.2031
11.2179
11.2386
11.2618
11.2832
11.2995
11.3113
11.3229
11.3402
11.3659
11.3959
11.4232
11.4419
11.4488
11.4484
11.4476
11.4516
11.4656
11.4896
11.517
11.5417
11.559
11.566
11.5665
11.5679
11.5742
11.5893
11.6123
11.637
11.6576
11.6711
11.6782
11.6837
11.6916
11.705
11.7234
11.7432
11.7595
11.7685
11.7698
11.768
11.7686
11.7737
11.7823
11.7908
11.796
11.7991
11.8055
11.8198
11.8449
11.8757
11.9021
11.9154
11.9157
11.9081
11.9019
11.9053
11.9196
11.9376
11.9496
11.9529
11.9513
11.95
11.9565
11.9753
12.0005
12.0194
12.0266
12.0268
12.0283
12.0371
12.0528
12.0717
12.0847
12.0836
12.0701
12.0551
12.0463
12.0493
12.0622
12.0787
12.0921
12.0981
12.0975
12.0944
12.0929
12.0941
12.0967
12.0998
12.1035
12.1076
12.1105
12.112
12.111
12.1196
1
1
1
1
1
1
1
1
1
1
1
1
1
1
1
1
1
1
1
1
1
1
1
1
1
1
1
1
1
1
1
1
1
1
1
1
1
1
1
1
1
1
1
1
1
1
1
1
1
1
1
1
1
1
1
1
1
1
1
1
1
1
1
1
1
1
1
1
1
1
1
1
1
1
1
1
1
1
1
1
1
1
1
1
1
1
1
1
1
1
1
1
1
1
1
1
1
1
1
1
1
1
1
1
1
1
1
1
1
1
1
1
1
1
1
1
1
1
1
1
1
1
1
1
1
1
1
1
1
1
1
1
1
1
1
1
1
1
1
1
1
1
1
1
1
1
1
1
1
1
1
1
5.0886
10.3023
10.4695
10.4806
10.5045
10.5346
10.5694
10.6051
10.6378
10.6652
10.6856
10.6977
10.7027
10.7076
10.7184
10.7371
10.7625
10.7933
10.8269
10.8591
10.884
10.8982
10.9026
10.9029
10.9068
10.9203
10.9409
10.964
10.9861
11.004
11.0162
11.0249
11.0371
11.0584
11.0899
11.1259
11.1584
11.181
11.1916
11.1938
11.194
11.1981
11.21
11.2299
11.254
11.2776
11.2977
11.3149
11.3312
11.3496
11.3714
11.3948
11.4159
11.4313
11.4397
11.4437
11.4481
11.4565
11.4715
11.4922
11.5144
11.535
11.5511
11.5608
11.5667
11.5735
11.5832
11.5974
11.6152
11.6338
11.6503
11.663
11.6719
11.6807
11.691
11.7052
11.723
11.7417
11.7576
11.7671
11.7692
11.768
11.7681
11.7714
11.7784
11.7869
11.7936
11.7993
11.8079
11.822
11.8435
11.8696
11.893
11.9071
11.911
11.9084
11.9065
11.9104
11.9207
11.9338
11.9434
11.9478
11.9495
11.952
11.9606
11.9774
11.9981
12.015
12.0234
12.026
12.0299
12.0389
12.0524
12.067
12.0769
12.0769
12.0681
12.0581
12.0525
12.0544
12.0632
12.0748
12.0845
12.0901
12.0935
12.0962
12.0986
12.0997
12.0995
12.0992
12.1007
12.1043
12.108
12.1107
12.1097
12.1169
1
1
1
1
1
1
1
1
1
1
1
1
1
1
1
1
1
1
1
1
1
1
1
1
1
1
1
1
1
1
1
1
1
1
1
1
1
1
1
1
1
1
1
1
1
1
1
1
1
1
1
1
1
1
1
1
1
1
1
1
1
1
1
1
1
1
1
1
1
1
1
1
1
1
1
1
1
1
1
1
1
1
1
1
1
1
1
1
1
1
1
1
1
1
1
1
1
1
1
1
1
1
1
1
1
1
1
1
1
1
1
1
1
1
1
1
1
1
1
1
1
1
1
1
1
1
1
1
1
1
1
1
1
1
1
1
1
1
1
1
1
1
1
1
1
1
1
1
1
1
1
1
5.04758
10.3143
10.466
10.4764
10.5037
10.5329
10.5657
10.6004
10.6318
10.6572
10.6773
10.692
10.7022
10.7117
10.7248
10.7418
10.7637
10.7917
10.8237
10.8554
10.8807
10.8954
10.9004
10.9012
10.9055
10.9192
10.9395
10.9614
10.9812
10.9966
11.0079
11.0188
11.0347
11.06
11.0948
11.1327
11.1656
11.1873
11.1954
11.1942
11.1911
11.1927
11.2029
11.2223
11.2479
11.275
11.3005
11.3229
11.342
11.3589
11.3749
11.3913
11.407
11.4206
11.4319
11.4426
11.4537
11.466
11.48
11.4951
11.5107
11.527
11.5427
11.5564
11.5692
11.5815
11.5934
11.6052
11.6168
11.6291
11.6419
11.6543
11.6666
11.6788
11.6918
11.7067
11.7234
11.7406
11.7557
11.7657
11.7692
11.769
11.7686
11.7703
11.7756
11.7835
11.7921
11.8013
11.8121
11.8256
11.8429
11.8632
11.8829
11.8979
11.9063
11.91
11.9126
11.9166
11.9229
11.9306
11.9374
11.9429
11.9482
11.9551
11.9659
11.9807
11.9972
12.0117
12.021
12.0268
12.0326
12.0406
12.0507
12.0606
12.0678
12.0698
12.0667
12.0628
12.0606
12.0611
12.0646
12.0702
12.0757
12.0815
12.0897
12.0988
12.1055
12.1067
12.1032
12.099
12.0977
12.1006
12.1054
12.1093
12.1084
12.1138
1
1
1
1
1
1
1
1
1
1
1
1
1
1
1
1
1
1
1
1
1
1
1
1
1
1
1
1
1
1
1
1
1
1
1
1
1
1
1
1
1
1
1
1
1
1
1
1
1
1
1
1
1
1
1
1
1
1
1
1
1
1
1
1
1
1
1
1
1
1
1
1
1
1
1
1
1
1
1
1
1
1
1
1
1
1
1
1
1
1
1
1
1
1
1
1
1
1
1
1
1
1
1
1
1
1
1
1
1
1
1
1
1
1
1
1
1
1
1
1
1
1
1
1
1
1
1
1
1
1
1
1
1
1
1
1
1
1
1
1
1
1
1
1
1
1
1
1
1
1
1
1
4.99614
10.3151
10.4692
10.4779
10.5037
10.5303
10.5586
10.5914
10.6242
10.6507
10.6721
10.6891
10.7023
10.7144
10.728
10.7435
10.7636
10.7899
10.8212
10.8528
10.8779
10.8923
10.8971
10.8988
10.9046
10.9194
10.9396
10.96
10.9774
10.99
10.9995
11.0118
11.0309
11.0605
11.0981
11.1368
11.1692
11.1897
11.1963
11.1933
11.1884
11.1886
11.1978
11.2169
11.2437
11.2734
11.3034
11.3301
11.3512
11.3657
11.3761
11.3855
11.3961
11.4087
11.4242
11.4423
11.4607
11.4762
11.4885
11.4978
11.5059
11.5172
11.5331
11.5514
11.5706
11.5886
11.6029
11.6118
11.618
11.6244
11.6335
11.6458
11.6612
11.6777
11.6939
11.7093
11.7237
11.738
11.7515
11.762
11.7679
11.7699
11.7697
11.77
11.7729
11.7799
11.7903
11.8029
11.8163
11.8294
11.8425
11.8564
11.8715
11.8866
11.9001
11.9106
11.9181
11.9226
11.9254
11.9279
11.9313
11.9372
11.946
11.9576
11.9709
11.9847
11.9978
12.0091
12.0184
12.0264
12.0335
12.0403
12.0469
12.053
12.0584
12.0627
12.0653
12.067
12.0679
12.0673
12.0658
12.065
12.0668
12.0734
12.0862
12.1009
12.1116
12.1132
12.1064
12.0982
12.0943
12.0963
12.1018
12.107
12.1068
12.1108
1
1
1
1
1
1
1
1
1
1
1
1
1
1
1
1
1
1
1
1
1
1
1
1
1
1
1
1
1
1
1
1
1
1
1
1
1
1
1
1
1
1
1
1
1
1
1
1
1
1
1
1
1
1
1
1
1
1
1
1
1
1
1
1
1
1
1
1
1
1
1
1
1
1
1
1
1
1
1
1
1
1
1
1
1
1
1
1
1
1
1
1
1
1
1
1
1
1
1
1
1
1
1
1
1
1
1
1
1
1
1
1
1
1
1
1
1
1
1
1
1
1
1
1
1
1
1
1
1
1
1
1
1
1
1
1
1
1
1
1
1
1
1
1
1
1
1
1
1
1
1
1
4.92907
10.2999
10.4733
10.4821
10.5047
10.5278
10.5542
10.5862
10.6194
10.6483
10.6711
10.6893
10.7038
10.7159
10.7286
10.743
10.7623
10.7879
10.819
10.8504
10.8751
10.8891
10.8941
10.8971
10.9048
10.9206
10.9403
10.959
10.9744
10.9851
10.9938
11.0067
11.0275
11.0587
11.097
11.1356
11.1672
11.1871
11.194
11.1916
11.1873
11.1875
11.1962
11.2152
11.2431
11.2749
11.3078
11.336
11.3564
11.3678
11.3737
11.3778
11.3844
11.3973
11.4184
11.4444
11.469
11.4863
11.4959
11.4995
11.5007
11.5073
11.5236
11.5465
11.5713
11.5937
11.6095
11.6158
11.6175
11.6188
11.6252
11.6382
11.6566
11.6776
11.6972
11.7127
11.7244
11.7346
11.7455
11.7563
11.7651
11.7702
11.7712
11.7708
11.7715
11.7772
11.7887
11.8038
11.8195
11.8324
11.842
11.8503
11.8607
11.8753
11.8931
11.91
11.9217
11.9267
11.9269
11.9257
11.9264
11.9324
11.9445
11.9601
11.9755
11.9887
11.9993
12.0084
12.0169
12.0255
12.0331
12.0383
12.0415
12.0451
12.0502
12.0568
12.064
12.0703
12.0732
12.0718
12.0666
12.0609
12.0601
12.0675
12.0836
12.1024
12.1158
12.1174
12.1083
12.0969
12.0908
12.0921
12.098
12.104
12.1053
12.1085
1
1
1
1
1
1
1
1
1
1
1
1
1
1
1
1
1
1
1
1
1
1
1
1
1
1
1
1
1
1
1
1
1
1
1
1
1
1
1
1
1
1
1
1
1
1
1
1
1
1
1
1
1
1
1
1
1
1
1
1
1
1
1
1
1
1
1
1
1
1
1
1
1
1
1
1
1
1
1
1
1
1
1
1
1
1
1
1
1
1
1
1
1
1
1
1
1
1
1
1
1
1
1
1
1
1
1
1
1
1
1
1
1
1
1
1
1
1
1
1
1
1
1
1
1
1
1
1
1
1
1
1
1
1
1
1
1
1
1
1
1
1
1
1
1
1
1
1
1
1
1
1
4.84801
10.2758
10.4746
10.4845
10.5052
10.5262
10.5523
10.5845
10.6183
10.6482
10.6718
10.6901
10.7041
10.7152
10.7268
10.7409
10.7601
10.7855
10.8163
10.8475
10.8719
10.8864
10.8926
10.8971
10.9064
10.922
10.9402
10.9575
10.9719
10.9822
10.9914
11.0051
11.0259
11.0554
11.0912
11.1282
11.1596
11.1804
11.1897
11.1908
11.1892
11.1908
11.1994
11.2173
11.2444
11.2766
11.3097
11.3377
11.3569
11.3664
11.3692
11.3703
11.3747
11.3886
11.415
11.4472
11.4757
11.4939
11.5011
11.5004
11.4967
11.4997
11.5158
11.5415
11.5707
11.5962
11.6128
11.6175
11.6159
11.6134
11.6176
11.6317
11.653
11.6781
11.7008
11.7167
11.7257
11.7311
11.738
11.7485
11.7602
11.7688
11.7726
11.7727
11.7718
11.7756
11.7869
11.8034
11.8208
11.834
11.8414
11.8458
11.8522
11.8652
11.8853
11.9067
11.9219
11.9281
11.9271
11.9237
11.923
11.9295
11.9441
11.9625
11.9793
11.9919
12.0012
12.0086
12.0161
12.0244
12.0311
12.0341
12.0355
12.0379
12.0434
12.0525
12.0626
12.0714
12.0759
12.0741
12.067
12.0588
12.0567
12.0648
12.0826
12.1031
12.1174
12.1186
12.1081
12.0949
12.0873
12.0881
12.0941
12.1009
12.1036
12.1066
1
1
1
1
1
1
1
1
1
1
1
1
1
1
1
1
1
1
1
1
1
1
1
1
1
1
1
1
1
1
1
1
1
1
1
1
1
1
1
1
1
1
1
1
1
1
1
1
1
1
1
1
1
1
1
1
1
1
1
1
1
1
1
1
1
1
1
1
1
1
1
1
1
1
1
1
1
1
1
1
1
1
1
1
1
1
1
1
1
1
1
1
1
1
1
1
1
1
1
1
1
1
1
1
1
1
1
1
1
1
1
1
1
1
1
1
1
1
1
1
1
1
1
1
1
1
1
1
1
1
1
1
1
1
1
1
1
1
1
1
1
1
1
1
1
1
1
1
1
1
1
1
4.75609
10.2521
10.4746
10.4839
10.5038
10.5242
10.5522
10.5853
10.6187
10.6477
10.671
10.6889
10.7027
10.7137
10.7252
10.7391
10.7578
10.7827
10.8128
10.8435
10.8686
10.8844
10.8928
10.8992
10.9084
10.922
10.9382
10.9545
10.9699
10.9819
10.993
11.0074
11.0274
11.0537
11.0845
11.1172
11.1475
11.1706
11.1846
11.1909
11.1936
11.1977
11.2063
11.2216
11.2456
11.2757
11.3071
11.3344
11.3535
11.3624
11.3645
11.3651
11.3694
11.3843
11.4126
11.4473
11.4781
11.497
11.5036
11.5007
11.4944
11.4956
11.511
11.5377
11.5688
11.596
11.6133
11.6174
11.6139
11.6087
11.6111
11.6257
11.6496
11.6783
11.7041
11.7207
11.7276
11.7282
11.7306
11.7398
11.7534
11.7658
11.7732
11.7752
11.7736
11.7752
11.7851
11.8016
11.8201
11.834
11.8406
11.8429
11.8467
11.8578
11.8778
11.9011
11.9185
11.9261
11.9253
11.9217
11.9212
11.9288
11.9453
11.9652
11.9821
11.9941
12.0025
12.0089
12.0151
12.0223
12.0274
12.0289
12.0296
12.0318
12.0381
12.0487
12.0602
12.0702
12.0753
12.0736
12.0666
12.0587
12.0572
12.0658
12.0834
12.103
12.1161
12.1168
12.1057
12.0919
12.0839
12.0845
12.0907
12.0982
12.1019
12.1049
1
1
1
1
1
1
1
1
1
1
1
1
1
1
1
1
1
1
1
1
1
1
1
1
1
1
1
1
1
1
1
1
1
1
1
1
1
1
1
1
1
1
1
1
1
1
1
1
1
1
1
1
1
1
1
1
1
1
1
1
1
1
1
1
1
1
1
1
1
1
1
1
1
1
1
1
1
1
1
1
1
1
1
1
1
1
1
1
1
1
1
1
1
1
1
1
1
1
1
1
1
1
1
1
1
1
1
1
1
1
1
1
1
1
1
1
1
1
1
1
1
1
1
1
1
1
1
1
1
1
1
1
1
1
1
1
1
1
1
1
1
1
1
1
1
1
1
1
1
1
1
1
4.65435
10.2225
10.4718
10.4807
10.5023
10.5237
10.5531
10.5859
10.6176
10.6451
10.6677
10.6858
10.7006
10.7126
10.7244
10.738
10.7561
10.7799
10.8091
10.8399
10.8662
10.8843
10.8949
10.9022
10.9096
10.9199
10.9338
10.95
10.9679
10.9835
10.9976
11.0131
11.0313
11.0535
11.0785
11.1058
11.1344
11.1602
11.1798
11.1925
11.2008
11.2082
11.2165
11.2282
11.2465
11.2716
11.2997
11.3261
11.3463
11.3579
11.3627
11.3649
11.3699
11.3842
11.4099
11.4423
11.4736
11.4944
11.5027
11.5013
11.4951
11.4955
11.5097
11.5355
11.5663
11.5939
11.612
11.6163
11.6122
11.6055
11.606
11.62
11.6454
11.6774
11.7061
11.724
11.7297
11.7269
11.7247
11.7313
11.7457
11.7617
11.7729
11.7773
11.7762
11.776
11.7835
11.7985
11.8171
11.8322
11.8398
11.8419
11.8447
11.8539
11.8717
11.8938
11.9116
11.9203
11.921
11.9191
11.9206
11.9303
11.9483
11.9682
11.9841
11.995
12.0026
12.0083
12.0136
12.0195
12.0234
12.0241
12.0248
12.0271
12.0338
12.0447
12.0565
12.0665
12.0714
12.0705
12.0655
12.0606
12.0612
12.0699
12.0853
12.1018
12.112
12.1114
12.1006
12.0878
12.0806
12.0817
12.0882
12.096
12.1004
12.1036
1
1
1
1
1
1
1
1
1
1
1
1
1
1
1
1
1
1
1
1
1
1
1
1
1
1
1
1
1
1
1
1
1
1
1
1
1
1
1
1
1
1
1
1
1
1
1
1
1
1
1
1
1
1
1
1
1
1
1
1
1
1
1
1
1
1
1
1
1
1
1
1
1
1
1
1
1
1
1
1
1
1
1
1
1
1
1
1
1
1
1
1
1
1
1
1
1
1
1
1
1
1
1
1
1
1
1
1
1
1
1
1
1
1
1
1
1
1
1
1
1
1
1
1
1
1
1
1
1
1
1
1
1
1
1
1
1
1
1
1
1
1
1
1
1
1
1
1
1
1
1
1
4.54417
10.1828
10.4673
10.4772
10.5002
10.5238
10.5541
10.5857
10.6152
10.6407
10.6629
10.682
10.6986
10.7122
10.7245
10.7375
10.7544
10.7768
10.8056
10.8374
10.8656
10.8858
10.8977
10.9043
10.9086
10.9161
10.9289
10.9451
10.965
10.9846
11.0023
11.0192
11.0362
11.0547
11.0753
11.0983
11.1241
11.151
11.1751
11.1941
11.208
11.2188
11.2269
11.2354
11.2475
11.2653
11.2879
11.3132
11.3366
11.3544
11.3649
11.3707
11.3765
11.3881
11.4074
11.4329
11.4624
11.4856
11.4979
11.501
11.4983
11.4988
11.5111
11.5345
11.5637
11.5909
11.6097
11.6149
11.6114
11.6039
11.6027
11.6148
11.6402
11.6743
11.7061
11.7259
11.7317
11.7269
11.7213
11.7243
11.7382
11.7567
11.7714
11.7784
11.7785
11.777
11.7819
11.7946
11.8123
11.8286
11.8384
11.8422
11.8449
11.8525
11.8672
11.8862
11.9026
11.912
11.9151
11.9163
11.921
11.9336
11.952
11.9707
11.9849
11.9946
12.0013
12.0064
12.0113
12.0168
12.0204
12.0209
12.0217
12.0239
12.0301
12.0401
12.0508
12.06
12.0652
12.0661
12.0646
12.0639
12.0675
12.0764
12.0885
12.1001
12.106
12.103
12.093
12.0823
12.0772
12.0797
12.0866
12.0945
12.0989
12.1023
1
1
1
1
1
1
1
1
1
1
1
1
1
1
1
1
1
1
1
1
1
1
1
1
1
1
1
1
1
1
1
1
1
1
1
1
1
1
1
1
1
1
1
1
1
1
1
1
1
1
1
1
1
1
1
1
1
1
1
1
1
1
1
1
1
1
1
1
1
1
1
1
1
1
1
1
1
1
1
1
1
1
1
1
1
1
1
1
1
1
1
1
1
1
1
1
1
1
1
1
1
1
1
1
1
1
1
1
1
1
1
1
1
1
1
1
1
1
1
1
1
1
1
1
1
1
1
1
1
1
1
1
1
1
1
1
1
1
1
1
1
1
1
1
1
1
1
1
1
1
1
1
4.4225
10.1346
10.4631
10.4736
10.4991
10.5242
10.5547
10.5847
10.6121
10.6366
10.659
10.6794
10.6978
10.7128
10.7249
10.7368
10.752
10.7733
10.8028
10.8364
10.8666
10.8879
10.8995
10.9043
10.9062
10.9128
10.9255
10.9416
10.9617
10.9841
11.0047
11.0237
11.0416
11.0586
11.0769
11.0971
11.1197
11.1447
11.17
11.1928
11.2118
11.2259
11.2354
11.2413
11.2485
11.2588
11.2751
11.2981
11.3251
11.3503
11.369
11.3803
11.3872
11.3945
11.4056
11.4213
11.4462
11.4717
11.4895
11.4989
11.5019
11.5042
11.5144
11.5341
11.5603
11.5869
11.6063
11.6136
11.6118
11.6044
11.6017
11.6113
11.635
11.6689
11.7028
11.7257
11.7336
11.7285
11.7206
11.7204
11.7319
11.7507
11.7675
11.7772
11.7793
11.7775
11.7802
11.7904
11.8065
11.8238
11.8363
11.8426
11.8463
11.8526
11.8638
11.8786
11.8928
11.9029
11.909
11.914
11.9224
11.9369
11.9549
11.9719
11.9844
11.9926
11.9983
12.0031
12.0083
12.0141
12.0182
12.0194
12.0204
12.0222
12.0269
12.0347
12.0436
12.0517
12.0574
12.0608
12.0634
12.0677
12.0746
12.0838
12.093
12.0988
12.0991
12.0932
12.0837
12.0758
12.0738
12.0782
12.0856
12.0934
12.0971
12.1003
1
1
1
1
1
1
1
1
1
1
1
1
1
1
1
1
1
1
1
1
1
1
1
1
1
1
1
1
1
1
1
1
1
1
1
1
1
1
1
1
1
1
1
1
1
1
1
1
1
1
1
1
1
1
1
1
1
1
1
1
1
1
1
1
1
1
1
1
1
1
1
1
1
1
1
1
1
1
1
1
1
1
1
1
1
1
1
1
1
1
1
1
1
1
1
1
1
1
1
1
1
1
1
1
1
1
1
1
1
1
1
1
1
1
1
1
1
1
1
1
1
1
1
1
1
1
1
1
1
1
1
1
1
1
1
1
1
1
1
1
1
1
1
1
1
1
1
1
1
1
1
1
4.28611
10.0831
10.4633
10.4711
10.5008
10.5259
10.5539
10.5803
10.6055
10.63
10.6539
10.6771
10.6975
10.7138
10.7255
10.7356
10.7487
10.7694
10.8006
10.8364
10.8679
10.8894
10.8997
10.9028
10.9038
10.9117
10.9243
10.9402
10.9582
10.9798
11.0023
11.0236
11.0441
11.0638
11.0833
11.1024
11.1217
11.1423
11.1643
11.1863
11.2079
11.2265
11.2398
11.2466
11.2501
11.2548
11.2648
11.2836
11.3129
11.3455
11.373
11.391
11.3988
11.4016
11.4046
11.4105
11.4278
11.4548
11.4793
11.4956
11.505
11.5098
11.5176
11.533
11.5555
11.5809
11.6012
11.6123
11.6134
11.6075
11.6039
11.6103
11.6305
11.6621
11.6964
11.7227
11.7346
11.7322
11.7234
11.72
11.728
11.7444
11.7612
11.7729
11.7776
11.7772
11.7791
11.7869
11.801
11.8187
11.8336
11.8428
11.848
11.8531
11.8611
11.8718
11.8834
11.8942
11.9036
11.9129
11.9244
11.9396
11.9563
11.9713
11.9822
11.9891
11.994
11.999
12.0049
12.0116
12.0166
12.019
12.0204
12.0215
12.0242
12.0293
12.0358
12.0426
12.0489
12.0549
12.0617
12.0704
12.0805
12.091
12.098
12.0981
12.0926
12.0831
12.0736
12.0685
12.0701
12.077
12.0851
12.0925
12.0953
12.0977
1
1
1
1
1
1
1
1
1
1
1
1
1
1
1
1
1
1
1
1
1
1
1
1
1
1
1
1
1
1
1
1
1
1
1
1
1
1
1
1
1
1
1
1
1
1
1
1
1
1
1
1
1
1
1
1
1
1
1
1
1
1
1
1
1
1
1
1
1
1
1
1
1
1
1
1
1
1
1
1
1
1
1
1
1
1
1
1
1
1
1
1
1
1
1
1
1
1
1
1
1
1
1
1
1
1
1
1
1
1
1
1
1
1
1
1
1
1
1
1
1
1
1
1
1
1
1
1
1
1
1
1
1
1
1
1
1
1
1
1
1
1
1
1
1
1
1
1
1
1
1
1
4.12743
10.025
10.4662
10.4699
10.5015
10.5263
10.5521
10.5765
10.5992
10.6232
10.6493
10.6751
10.6982
10.7155
10.7262
10.7339
10.7448
10.7655
10.7985
10.8359
10.8682
10.8895
10.8989
10.9005
10.9023
10.9126
10.9259
10.9409
10.955
10.9722
10.9939
11.0172
11.0416
11.0664
11.0906
11.1114
11.1281
11.1427
11.1581
11.1761
11.1975
11.2204
11.2391
11.2506
11.2542
11.2555
11.2596
11.2733
11.3012
11.3388
11.3743
11.3984
11.4083
11.4075
11.4043
11.4031
11.4119
11.4384
11.469
11.4923
11.507
11.5143
11.5195
11.5302
11.5483
11.5716
11.5942
11.6104
11.6156
11.6131
11.6092
11.6118
11.6274
11.6546
11.6879
11.717
11.7338
11.7363
11.7294
11.7231
11.7265
11.7385
11.7535
11.766
11.7733
11.7759
11.7786
11.7848
11.7966
11.8138
11.8305
11.8425
11.8492
11.8535
11.8589
11.8658
11.8751
11.8868
11.8998
11.9131
11.927
11.9417
11.956
11.9683
11.9776
11.9841
11.9893
11.995
12.0019
12.0091
12.0149
12.0187
12.0205
12.0212
12.022
12.0243
12.0282
12.0337
12.0405
12.0485
12.0588
12.0711
12.0844
12.0968
12.1025
12.0981
12.0874
12.074
12.0639
12.0611
12.0661
12.0756
12.0846
12.0916
12.0932
12.0946
1
1
1
1
1
1
1
1
1
1
1
1
1
1
1
1
1
1
1
1
1
1
1
1
1
1
1
1
1
1
1
1
1
1
1
1
1
1
1
1
1
1
1
1
1
1
1
1
1
1
1
1
1
1
1
1
1
1
1
1
1
1
1
1
1
1
1
1
1
1
1
1
1
1
1
1
1
1
1
1
1
1
1
1
1
1
1
1
1
1
1
1
1
1
1
1
1
1
1
1
1
1
1
1
1
1
1
1
1
1
1
1
1
1
1
1
1
1
1
1
1
1
1
1
1
1
1
1
1
1
1
1
1
1
1
1
1
1
1
1
1
1
1
1
1
1
1
1
1
1
1
1
3.94981
9.97263
10.4591
10.4654
10.4996
10.5256
10.5507
10.5729
10.5932
10.617
10.6446
10.6733
10.6989
10.7174
10.7269
10.7318
10.7403
10.7612
10.7956
10.834
10.8674
10.8891
10.8982
10.899
10.9031
10.9141
10.929
10.9432
10.9534
10.965
10.9829
11.0065
11.035
11.0659
11.0954
11.1194
11.1355
11.145
11.1529
11.1642
11.183
11.2078
11.2331
11.2516
11.2601
11.2614
11.2619
11.2706
11.2926
11.3285
11.3672
11.3975
11.4123
11.412
11.4052
11.3994
11.4017
11.4252
11.4599
11.4891
11.508
11.5168
11.5198
11.5255
11.5383
11.5595
11.5851
11.6064
11.6182
11.6202
11.6167
11.6158
11.6256
11.6473
11.6781
11.7094
11.7314
11.7397
11.7364
11.7287
11.7267
11.7328
11.7445
11.757
11.767
11.7739
11.779
11.7842
11.7934
11.8089
11.8265
11.8408
11.8491
11.8533
11.8569
11.8608
11.8683
11.8809
11.8972
11.914
11.9292
11.9425
11.9536
11.9627
11.9706
11.9778
11.9846
11.9918
11.9992
12.0064
12.0129
12.018
12.0204
12.0209
12.0203
12.0201
12.0219
12.0262
12.0325
12.0418
12.0545
12.0696
12.0856
12.1001
12.1054
12.0981
12.0832
12.0665
12.0553
12.0541
12.062
12.0739
12.0838
12.0903
12.0905
12.0904
1
1
1
1
1
1
1
1
1
1
1
1
1
1
1
1
1
1
1
1
1
1
1
1
1
1
1
1
1
1
1
1
1
1
1
1
1
1
1
1
1
1
1
1
1
1
1
1
1
1
1
1
1
1
1
1
1
1
1
1
1
1
1
1
1
1
1
1
1
1
1
1
1
1
1
1
1
1
1
1
1
1
1
1
1
1
1
1
1
1
1
1
1
1
1
1
1
1
1
1
1
1
1
1
1
1
1
1
1
1
1
1
1
1
1
1
1
1
1
1
1
1
1
1
1
1
1
1
1
1
1
1
1
1
1
1
1
1
1
1
1
1
1
1
1
1
1
1
1
1
1
1
3.76501
9.89639
10.458
10.4646
10.4976
10.5235
10.5481
10.569
10.5882
10.6119
10.6404
10.671
10.699
10.7182
10.7264
10.7284
10.7349
10.7568
10.7921
10.8311
10.8656
10.8882
10.8977
10.8989
10.904
10.9151
10.931
10.9456
10.9534
10.9602
10.9737
10.9963
11.0269
11.0626
11.0966
11.1238
11.1404
11.1471
11.1489
11.1539
11.1689
11.1934
11.2235
11.2489
11.2647
11.2693
11.2696
11.2739
11.2888
11.3176
11.3538
11.3881
11.4097
11.4147
11.4086
11.4006
11.3979
11.4168
11.4527
11.4865
11.5081
11.5175
11.5189
11.5201
11.5281
11.5461
11.5733
11.6006
11.6202
11.627
11.6253
11.622
11.6249
11.6407
11.668
11.7007
11.7276
11.7417
11.743
11.7351
11.7276
11.7277
11.735
11.747
11.76
11.772
11.7805
11.7852
11.7914
11.8041
11.8212
11.8372
11.8475
11.8526
11.8552
11.8571
11.8631
11.8766
11.8955
11.9147
11.9302
11.9415
11.9494
11.9556
11.9625
11.9712
11.9808
11.9895
11.9965
12.0031
12.0101
12.0162
12.0195
12.0205
12.0192
12.0171
12.0171
12.02
12.0256
12.0349
12.0486
12.0658
12.0841
12.1
12.1053
12.0969
12.08
12.0611
12.0486
12.0481
12.0581
12.0718
12.0824
12.0884
12.0869
12.0855
1
1
1
1
1
1
1
1
1
1
1
1
1
1
1
1
1
1
1
1
1
1
1
1
1
1
1
1
1
1
1
1
1
1
1
1
1
1
1
1
1
1
1
1
1
1
1
1
1
1
1
1
1
1
1
1
1
1
1
1
1
1
1
1
1
1
1
1
1
1
1
1
1
1
1
1
1
1
1
1
1
1
1
1
1
1
1
1
1
1
1
1
1
1
1
1
1
1
1
1
1
1
1
1
1
1
1
1
1
1
1
1
1
1
1
1
1
1
1
1
1
1
1
1
1
1
1
1
1
1
1
1
1
1
1
1
1
1
1
1
1
1
1
1
1
1
1
1
1
1
1
1
3.57895
9.8164
10.4654
10.4715
10.5001
10.5226
10.5444
10.5643
10.5854
10.6097
10.639
10.6706
10.6988
10.7172
10.7235
10.7226
10.7295
10.7533
10.7886
10.828
10.8632
10.887
10.8971
10.8997
10.9026
10.9152
10.9312
10.9467
10.9541
10.9574
10.9681
10.9887
11.0195
11.0571
11.0937
11.1233
11.1415
11.1478
11.147
11.1474
11.1584
11.1809
11.2125
11.2439
11.2664
11.2769
11.2794
11.2805
11.2881
11.3073
11.3378
11.3719
11.4
11.4134
11.413
11.4068
11.4009
11.4132
11.4466
11.4827
11.506
11.5162
11.5166
11.5153
11.5199
11.5341
11.5608
11.5935
11.6195
11.6316
11.6327
11.6274
11.6245
11.6353
11.6588
11.6917
11.7228
11.7421
11.7475
11.7405
11.7288
11.7232
11.7263
11.7377
11.7538
11.771
11.7826
11.7874
11.7905
11.7993
11.815
11.8322
11.8448
11.8514
11.8541
11.8548
11.8597
11.8735
11.8941
11.9144
11.9288
11.9381
11.9441
11.9482
11.9546
11.9652
11.9777
11.9875
11.9935
11.9991
12.0062
12.013
12.0176
12.0196
12.0183
12.0155
12.0141
12.0153
12.02
12.0287
12.0422
12.0604
12.0803
12.0967
12.1022
12.0944
12.0773
12.0579
12.0448
12.0443
12.055
12.0693
12.0799
12.0852
12.0825
12.0805
1
1
1
1
1
1
1
1
1
1
1
1
1
1
1
1
1
1
1
1
1
1
1
1
1
1
1
1
1
1
1
1
1
1
1
1
1
1
1
1
1
1
1
1
1
1
1
1
1
1
1
1
1
1
1
1
1
1
1
1
1
1
1
1
1
1
1
1
1
1
1
1
1
1
1
1
1
1
1
1
1
1
1
1
1
1
1
1
1
1
1
1
1
1
1
1
1
1
1
1
1
1
1
1
1
1
1
1
1
1
1
1
1
1
1
1
1
1
1
1
1
1
1
1
1
1
1
1
1
1
1
1
1
1
1
1
1
1
1
1
1
1
1
1
1
1
1
1
1
1
1
1
3.37965
9.73257
10.4642
10.471
10.4943
10.5155
10.5372
10.5598
10.5834
10.6104
10.6412
10.6725
10.6984
10.7139
10.7172
10.7153
10.7254
10.7513
10.7864
10.8255
10.8606
10.8848
10.8957
10.8982
10.9005
10.9136
10.9297
10.9461
10.9534
10.9557
10.9651
10.9838
11.0136
11.0507
11.0878
11.1187
11.1389
11.1471
11.1466
11.1455
11.1533
11.1728
11.2028
11.2367
11.265
11.2816
11.2867
11.2865
11.2884
11.2992
11.3226
11.3548
11.3871
11.4092
11.4167
11.4144
11.4083
11.4132
11.4409
11.4766
11.5012
11.513
11.514
11.5123
11.5155
11.5274
11.5517
11.5854
11.6153
11.6328
11.6362
11.6299
11.6241
11.6311
11.6517
11.6832
11.7164
11.7401
11.7485
11.7426
11.729
11.7195
11.7194
11.7304
11.7491
11.7699
11.7841
11.7893
11.7898
11.7944
11.8077
11.8257
11.841
11.85
11.8535
11.8539
11.8578
11.871
11.8917
11.9121
11.9251
11.9331
11.9384
11.9416
11.9479
11.9602
11.9745
11.9848
11.9898
11.9945
12.0013
12.0088
12.0153
12.019
12.0174
12.0143
12.0122
12.0118
12.0153
12.0232
12.0362
12.0544
12.0745
12.0905
12.0961
12.0899
12.0744
12.0561
12.0438
12.0432
12.0529
12.0663
12.0761
12.0808
12.0774
12.0758
1
1
1
1
1
1
1
1
1
1
1
1
1
1
1
1
1
1
1
1
1
1
1
1
1
1
1
1
1
1
1
1
1
1
1
1
1
1
1
1
1
1
1
1
1
1
1
1
1
1
1
1
1
1
1
1
1
1
1
1
1
1
1
1
1
1
1
1
1
1
1
1
1
1
1
1
1
1
1
1
1
1
1
1
1
1
1
1
1
1
1
1
1
1
1
1
1
1
1
1
1
1
1
1
1
1
1
1
1
1
1
1
1
1
1
1
1
1
1
1
1
1
1
1
1
1
1
1
1
1
1
1
1
1
1
1
1
1
1
1
1
1
1
1
1
1
1
1
1
1
1
1
3.17982
9.64811
10.4552
10.4657
10.4853
10.5067
10.5304
10.5555
10.5829
10.6133
10.6451
10.6747
10.6972
10.7085
10.7093
10.7097
10.7244
10.7516
10.786
10.8233
10.8564
10.8795
10.892
10.8944
10.8998
10.9124
10.928
10.9438
10.9505
10.9539
10.9628
10.9804
11.0086
11.0442
11.0805
11.1119
11.1343
11.1453
11.1468
11.1464
11.1528
11.1697
11.1965
11.2291
11.2596
11.2807
11.2895
11.2894
11.2879
11.2937
11.3115
11.3413
11.3753
11.4036
11.4192
11.4222
11.4175
11.4156
11.4346
11.4669
11.4927
11.5073
11.5117
11.5125
11.5159
11.5271
11.5487
11.5786
11.6079
11.6277
11.6338
11.629
11.6224
11.6276
11.6468
11.6767
11.7095
11.7348
11.7454
11.7411
11.7276
11.7164
11.7149
11.726
11.7464
11.7692
11.7849
11.7902
11.7888
11.7901
11.8005
11.8184
11.8364
11.8483
11.8533
11.8539
11.8572
11.8686
11.8877
11.907
11.9192
11.9268
11.9324
11.9361
11.9432
11.9563
11.9709
11.9809
11.9849
11.989
11.9961
12.0043
12.0131
12.018
12.0165
12.0132
12.0101
12.0091
12.0117
12.019
12.0313
12.0486
12.067
12.0812
12.0869
12.0831
12.0705
12.0551
12.0446
12.0437
12.0515
12.0627
12.0708
12.075
12.0716
12.0717
1
1
1
1
1
1
1
1
1
1
1
1
1
1
1
1
1
1
1
1
1
1
1
1
1
1
1
1
1
1
1
1
1
1
1
1
1
1
1
1
1
1
1
1
1
1
1
1
1
1
1
1
1
1
1
1
1
1
1
1
1
1
1
1
1
1
1
1
1
1
1
1
1
1
1
1
1
1
1
1
1
1
1
1
1
1
1
1
1
1
1
1
1
1
1
1
1
1
1
1
1
1
1
1
1
1
1
1
1
1
1
1
1
1
1
1
1
1
1
1
1
1
1
1
1
1
1
1
1
1
1
1
1
1
1
1
1
1
1
1
1
1
1
1
1
1
1
1
1
1
1
1
2.98354
9.54944
10.4462
10.4557
10.4775
10.501
10.5272
10.5551
10.585
10.6162
10.6471
10.6738
10.6923
10.7009
10.7025
10.7083
10.7277
10.7545
10.7864
10.8196
10.8488
10.8701
10.8852
10.8907
10.9008
10.9139
10.9289
10.941
10.9468
10.9512
10.96
10.9774
11.0048
11.0394
11.0744
11.1048
11.1279
11.1414
11.1458
11.1476
11.1545
11.1704
11.1941
11.2229
11.2511
11.2731
11.2847
11.2872
11.2866
11.2911
11.3063
11.3339
11.3677
11.3988
11.4197
11.4274
11.4251
11.4192
11.4282
11.4541
11.4799
11.498
11.5081
11.514
11.5207
11.5328
11.5514
11.5755
11.5997
11.6173
11.6245
11.6225
11.6183
11.6248
11.6442
11.6725
11.7032
11.7272
11.7381
11.7357
11.7242
11.7139
11.7129
11.7244
11.7453
11.7682
11.7839
11.7889
11.7869
11.7865
11.7945
11.8114
11.8309
11.8453
11.8522
11.8539
11.857
11.8664
11.8825
11.8998
11.9119
11.9197
11.9263
11.932
11.9406
11.9538
11.9671
11.9759
11.9792
11.9831
11.9913
12.0006
12.0108
12.0159
12.0146
12.0116
12.0075
12.0062
12.0091
12.0161
12.0278
12.0432
12.058
12.0695
12.0753
12.0739
12.0653
12.0545
12.0466
12.0453
12.0506
12.0585
12.0645
12.0682
12.0657
12.0683
1
1
1
1
1
1
1
1
1
1
1
1
1
1
1
1
1
1
1
1
1
1
1
1
1
1
1
1
1
1
1
1
1
1
1
1
1
1
1
1
1
1
1
1
1
1
1
1
1
1
1
1
1
1
1
1
1
1
1
1
1
1
1
1
1
1
1
1
1
1
1
1
1
1
1
1
1
1
1
1
1
1
1
1
1
1
1
1
1
1
1
1
1
1
1
1
1
1
1
1
1
1
1
1
1
1
1
1
1
1
1
1
1
1
1
1
1
1
1
1
1
1
1
1
1
1
1
1
1
1
1
1
1
1
1
1
1
1
1
1
1
1
1
1
1
1
1
1
1
1
1
1
2.78027
9.42865
10.4423
10.4481
10.4734
10.4986
10.527
10.5572
10.5882
10.6181
10.6454
10.6677
10.6831
10.6921
10.6982
10.7122
10.7342
10.7592
10.7861
10.8134
10.838
10.8584
10.8754
10.8881
10.9029
10.9177
10.9321
10.9393
10.9441
10.9483
10.9569
10.9747
11.0025
11.0369
11.0708
11.0996
11.1214
11.1355
11.1423
11.1468
11.156
11.1723
11.1943
11.2191
11.2429
11.2622
11.2742
11.2802
11.2844
11.2918
11.3077
11.3336
11.3648
11.395
11.4175
11.4285
11.4288
11.4223
11.4236
11.4415
11.4651
11.4861
11.5028
11.5151
11.5268
11.5412
11.5574
11.5751
11.5922
11.6051
11.6113
11.6117
11.6119
11.6222
11.643
11.6703
11.6979
11.7188
11.7286
11.7275
11.7189
11.7118
11.7128
11.7246
11.7447
11.7655
11.7799
11.7848
11.7836
11.7836
11.7908
11.8062
11.8252
11.8408
11.8496
11.853
11.8567
11.8643
11.8766
11.8912
11.9032
11.9124
11.9206
11.9292
11.9395
11.9517
11.9628
11.9696
11.9727
11.9776
11.9871
11.9979
12.0081
12.0127
12.0112
12.0083
12.0038
12.0031
12.0072
12.0141
12.0261
12.0382
12.0482
12.057
12.0621
12.0628
12.0591
12.0535
12.0489
12.0475
12.0495
12.0536
12.0573
12.061
12.0601
12.0657
1
1
1
1
1
1
1
1
1
1
1
1
1
1
1
1
1
1
1
1
1
1
1
1
1
1
1
1
1
1
1
1
1
1
1
1
1
1
1
1
1
1
1
1
1
1
1
1
1
1
1
1
1
1
1
1
1
1
1
1
1
1
1
1
1
1
1
1
1
1
1
1
1
1
1
1
1
1
1
1
1
1
1
1
1
1
1
1
1
1
1
1
1
1
1
1
1
1
1
1
1
1
1
1
1
1
1
1
1
1
1
1
1
1
1
1
1
1
1
1
1
1
1
1
1
1
1
1
1
1
1
1
1
1
1
1
1
1
1
1
1
1
1
1
1
1
1
1
1
1
1
1
2.57189
9.28042
10.4451
10.4449
10.4699
10.4956
10.5279
10.5622
10.5934
10.6191
10.6397
10.6561
10.6705
10.6834
10.6982
10.7194
10.7414
10.7622
10.7827
10.8043
10.8258
10.8459
10.866
10.8848
10.9037
10.9213
10.9331
10.938
10.9414
10.9447
10.9535
10.9727
11.0022
11.037
11.07
11.0968
11.1162
11.1286
11.1357
11.1427
11.1552
11.1736
11.1955
11.2175
11.2366
11.2514
11.2619
11.2703
11.2798
11.2933
11.3131
11.338
11.3656
11.3912
11.4119
11.4246
11.4279
11.4235
11.4218
11.4329
11.4524
11.4742
11.4957
11.5146
11.5317
11.5483
11.5634
11.5759
11.5865
11.5939
11.597
11.5987
11.6041
11.6183
11.6418
11.6687
11.6932
11.7104
11.7181
11.7178
11.713
11.7102
11.7139
11.7256
11.7429
11.76
11.7721
11.7775
11.7788
11.7815
11.7894
11.8031
11.8197
11.8346
11.8448
11.8504
11.8554
11.862
11.8712
11.8825
11.8938
11.9044
11.9151
11.9266
11.9384
11.9494
11.9577
11.9626
11.9663
11.9731
11.9838
11.9957
12.0052
12.0082
12.006
12.0027
11.9991
12
12.0056
12.0133
12.0243
12.0329
12.0388
12.0449
12.0486
12.0512
12.0522
12.0516
12.0502
12.0486
12.0476
12.0481
12.0497
12.0537
12.0552
12.0637
1
1
1
1
1
1
1
1
1
1
1
1
1
1
1
1
1
1
1
1
1
1
1
1
1
1
1
1
1
1
1
1
1
1
1
1
1
1
1
1
1
1
1
1
1
1
1
1
1
1
1
1
1
1
1
1
1
1
1
1
1
1
1
1
1
1
1
1
1
1
1
1
1
1
1
1
1
1
1
1
1
1
1
1
1
1
1
1
1
1
1
1
1
1
1
1
1
1
1
1
1
1
1
1
1
1
1
1
1
1
1
1
1
1
1
1
1
1
1
1
1
1
1
1
1
1
1
1
1
1
1
1
1
1
1
1
1
1
1
1
1
1
1
1
1
1
1
1
1
1
1
1
2.36424
9.10299
10.45
10.4443
10.4679
10.494
10.53
10.5658
10.5951