/*--------------------------------*- C++ -*----------------------------------*\
  =========                 |
  \\      /  F ield         | OpenFOAM: The Open Source CFD Toolbox
   \\    /   O peration     | Website:  https://openfoam.org
    \\  /    A nd           | Version:  7
     \\/     M anipulation  |
\*---------------------------------------------------------------------------*/
FoamFile
{
    version     2.0;
    format      ascii;
    class       volVectorField;
    location    "2.8";
    object      U;
}
// * * * * * * * * * * * * * * * * * * * * * * * * * * * * * * * * * * * * * //

dimensions      [0 1 -1 0 0 0 0];

internalField   nonuniform List<vector> 
344
(
(1.31603 -0.137249 -2.02441e-15)
(1.31797 -0.163735 -2.05862e-15)
(1.32115 -0.195948 -2.08897e-15)
(1.32622 -0.235368 -2.24018e-15)
(1.3343 -0.283952 -2.39229e-15)
(1.34719 -0.344389 -2.57202e-15)
(1.36822 -0.420217 -2.74251e-15)
(1.4026 -0.516779 -2.96894e-15)
(1.4635 -0.638628 -3.23411e-15)
(1.56018 -0.799555 -3.46248e-15)
(1.74158 -0.958029 -3.61152e-15)
(1.9687 -1.22836 -3.33282e-15)
(1.23302 -0.0041954 3.60753e-16)
(1.23266 -0.00413396 2.8983e-16)
(1.2323 -0.00407416 1.51101e-16)
(1.23195 -0.00401605 4.87176e-17)
(1.2316 -0.0039597 6.13731e-18)
(1.23126 -0.00390517 -4.08481e-17)
(1.23092 -0.00385258 -2.08788e-17)
(1.23059 -0.00380203 -1.03137e-16)
(1.23027 -0.00375369 -1.46971e-16)
(1.22994 -0.00370776 -2.94292e-16)
(1.22963 -0.00366446 -3.13545e-16)
(1.22931 -0.00362408 -4.48277e-16)
(1.229 -0.00358697 -4.96472e-16)
(1.2287 -0.00355354 -5.20541e-16)
(1.22839 -0.00352431 -5.07919e-16)
(1.2281 -0.00349987 -6.31553e-16)
(1.2278 -0.00348095 -6.65784e-16)
(1.22751 -0.0034684 -7.56145e-16)
(1.22722 -0.00346326 -8.14175e-16)
(1.22693 -0.00346673 -9.44431e-16)
(1.22665 -0.00348028 -1.00145e-15)
(1.22636 -0.00350561 -1.02281e-15)
(1.22608 -0.00354476 -1.01206e-15)
(1.2258 -0.00360014 -1.08008e-15)
(1.22552 -0.00367461 -1.08456e-15)
(1.22523 -0.00377154 -1.19073e-15)
(1.22495 -0.00389493 -1.20271e-15)
(1.22466 -0.00404949 -1.30348e-15)
(1.22437 -0.00424082 -1.41581e-15)
(1.22407 -0.00447549 -1.39972e-15)
(1.22376 -0.00476132 -1.37349e-15)
(1.22344 -0.00510751 -1.32575e-15)
(1.22311 -0.00552497 -1.39611e-15)
(1.22276 -0.00602659 -1.41453e-15)
(1.2224 -0.00662761 -1.51896e-15)
(1.22201 -0.0073461 -1.52749e-15)
(1.22159 -0.00820344 -1.59617e-15)
(1.22114 -0.00922497 -1.64984e-15)
(1.22064 -0.0104408 -1.67249e-15)
(1.2201 -0.0118866 -1.68189e-15)
(1.21951 -0.0136049 -1.72448e-15)
(1.21885 -0.0156463 -1.74742e-15)
(1.2181 -0.018071 -1.80242e-15)
(1.21727 -0.0209514 -1.84113e-15)
(1.21633 -0.0243737 -1.93369e-15)
(1.21527 -0.0284418 -1.96932e-15)
(1.21407 -0.0332809 -2.01246e-15)
(1.2127 -0.0390425 -2.00895e-15)
(1.21115 -0.0459105 -2.10516e-15)
(1.20938 -0.0541101 -2.12625e-15)
(1.20738 -0.0639176 -2.24543e-15)
(1.20512 -0.0756759 -2.27677e-15)
(1.20259 -0.0898132 -2.41363e-15)
(1.19977 -0.106871 -2.4873e-15)
(1.19666 -0.12754 -2.53595e-15)
(1.19332 -0.152723 -2.52637e-15)
(1.18983 -0.183608 -2.52238e-15)
(1.18639 -0.221816 -2.68036e-15)
(1.18337 -0.269592 -2.78965e-15)
(1.18152 -0.330241 -2.99832e-15)
(1.1823 -0.408622 -3.10781e-15)
(1.1888 -0.513033 -3.40808e-15)
(1.20874 -0.655538 -3.58188e-15)
(1.25471 -0.862954 -3.67733e-15)
(1.37917 -1.13755 -3.46217e-15)
(1.45786 -1.49915 -2.47289e-15)
(2.10957 -0.738463 -2.78709e-15)
(1.91251 -0.419959 -2.47028e-15)
(1.69109 -0.228225 -2.15608e-15)
(1.52699 -0.112876 -1.90094e-15)
(1.26069 -0.589371 -1.38343e-15)
(0.719223 -0.190052 -1.00788e-15)
(0.531759 -0.0499317 -7.46202e-16)
(0.467712 -0.0035213 -6.39225e-16)
(1.16607 -0.00375827 -8.05205e-17)
(1.16566 -0.00370328 -2.0449e-17)
(1.16525 -0.00364979 -2.91744e-16)
(1.16485 -0.00359784 -3.50509e-16)
(1.16446 -0.00354749 -2.99364e-16)
(1.16407 -0.00349881 -2.99267e-16)
(1.16368 -0.00345188 -2.63737e-16)
(1.16331 -0.00340683 -5.14917e-16)
(1.16293 -0.0033638 -4.3823e-16)
(1.16256 -0.00332297 -7.03528e-16)
(1.1622 -0.00328456 -6.31207e-16)
(1.16184 -0.00324883 -8.75113e-16)
(1.16149 -0.0032161 -8.01587e-16)
(1.16114 -0.00318676 -8.04579e-16)
(1.16079 -0.00316127 -7.92156e-16)
(1.16045 -0.0031402 -1.02876e-15)
(1.16011 -0.00312422 -9.54231e-16)
(1.15978 -0.00311411 -1.18875e-15)
(1.15945 -0.00311082 -1.11524e-15)
(1.15912 -0.00311549 -1.37156e-15)
(1.15879 -0.00312946 -1.30219e-15)
(1.15846 -0.0031543 -1.29079e-15)
(1.15813 -0.00319191 -1.253e-15)
(1.1578 -0.00324452 -1.48331e-15)
(1.15747 -0.00331476 -1.38853e-15)
(1.15714 -0.00340576 -1.61576e-15)
(1.15681 -0.00352121 -1.51558e-15)
(1.15646 -0.00366548 -1.75808e-15)
(1.15611 -0.00384373 -1.79184e-15)
(1.15575 -0.00406207 -1.69345e-15)
(1.15538 -0.00432771 -1.64543e-15)
(1.15499 -0.00464919 -1.59623e-15)
(1.15458 -0.00503659 -1.78542e-15)
(1.15415 -0.00550187 -1.70599e-15)
(1.15368 -0.00605914 -1.91972e-15)
(1.15318 -0.00672516 -1.81408e-15)
(1.15264 -0.00751974 -2.03015e-15)
(1.15205 -0.00846642 -1.96096e-15)
(1.1514 -0.00959313 -1.94739e-15)
(1.15068 -0.010933 -1.90483e-15)
(1.14987 -0.0125257 -2.11505e-15)
(1.14896 -0.0144181 -2.01124e-15)
(1.14793 -0.0166665 -2.2457e-15)
(1.14676 -0.0193383 -2.1458e-15)
(1.14542 -0.022514 -2.35627e-15)
(1.14388 -0.0262908 -2.2798e-15)
(1.14212 -0.030786 -2.27766e-15)
(1.14008 -0.0361415 -2.24288e-15)
(1.13773 -0.0425306 -2.4619e-15)
(1.13501 -0.050165 -2.38462e-15)
(1.13185 -0.0593061 -2.60845e-15)
(1.1282 -0.0702784 -2.55452e-15)
(1.12395 -0.0834888 -2.78709e-15)
(1.11902 -0.0994533 -2.81869e-15)
(1.1133 -0.118834 -2.75979e-15)
(1.10668 -0.142498 -2.7517e-15)
(1.099 -0.171595 -2.74265e-15)
(1.09012 -0.2077 -3.00445e-15)
(1.07985 -0.253014 -3.00025e-15)
(1.06803 -0.310796 -3.3037e-15)
(1.05426 -0.38588 -3.32529e-15)
(1.03822 -0.486464 -3.68497e-15)
(1.01709 -0.624374 -3.71268e-15)
(0.984667 -0.821286 -3.58778e-15)
(0.889871 -1.05595 -2.99856e-15)
(0.542313 -1.0612 -1.52724e-15)
(1.13046 -0.00353139 -3.64763e-16)
(1.13003 -0.00347976 -3.56379e-16)
(1.1296 -0.00342955 -5.91603e-16)
(1.12917 -0.0033808 -5.77547e-16)
(1.12876 -0.00333356 -6.09675e-16)
(1.12835 -0.00328791 -6.01235e-16)
(1.12794 -0.00324392 -5.81351e-16)
(1.12754 -0.00320172 -7.67378e-16)
(1.12715 -0.00316144 -7.64934e-16)
(1.12676 -0.00312325 -9.58469e-16)
(1.12638 -0.00308736 -9.55234e-16)
(1.126 -0.00305402 -1.15475e-15)
(1.12562 -0.00302354 -1.15403e-15)
(1.12526 -0.0029963 -1.1523e-15)
(1.12489 -0.00297273 -1.09227e-15)
(1.12453 -0.00295337 -1.29367e-15)
(1.12417 -0.00293886 -1.2812e-15)
(1.12382 -0.00292996 -1.467e-15)
(1.12347 -0.00292758 -1.43644e-15)
(1.12312 -0.00293279 -1.65194e-15)
(1.12277 -0.00294688 -1.63948e-15)
(1.12242 -0.00297136 -1.61916e-15)
(1.12207 -0.00300804 -1.55996e-15)
(1.12172 -0.00305905 -1.73965e-15)
(1.12137 -0.00312691 -1.71462e-15)
(1.12102 -0.0032146 -1.89337e-15)
(1.12066 -0.00332566 -1.84215e-15)
(1.12029 -0.00346427 -2.0367e-15)
(1.11991 -0.00363536 -1.98929e-15)
(1.11953 -0.00384477 -2.00069e-15)
(1.11912 -0.0040994 -1.95645e-15)
(1.1187 -0.00440741 -1.88989e-15)
(1.11825 -0.00477846 -2.04309e-15)
(1.11778 -0.00522397 -2.00787e-15)
(1.11727 -0.00575746 -2.18236e-15)
(1.11672 -0.00639495 -2.12145e-15)
(1.11612 -0.00715543 -2.30184e-15)
(1.11546 -0.00806142 -2.29096e-15)
(1.11473 -0.00913966 -2.26391e-15)
(1.11392 -0.010422 -2.20906e-15)
(1.11301 -0.0119462 -2.35989e-15)
(1.11198 -0.0137574 -2.32291e-15)
(1.11081 -0.0159097 -2.49541e-15)
(1.10947 -0.0184674 -2.44777e-15)
(1.10794 -0.0215082 -2.62778e-15)
(1.10617 -0.0251253 -2.59884e-15)
(1.10413 -0.0294313 -2.56906e-15)
(1.10177 -0.0345631 -2.53549e-15)
(1.09903 -0.040687 -2.70574e-15)
(1.09584 -0.0480073 -2.68066e-15)
(1.09212 -0.0567757 -2.85626e-15)
(1.08777 -0.0673055 -2.83947e-15)
(1.08269 -0.0799895 -3.03439e-15)
(1.07673 -0.0953263 -2.98482e-15)
(1.06973 -0.113957 -3.0212e-15)
(1.06148 -0.136718 -3.00761e-15)
(1.05175 -0.164723 -2.99105e-15)
(1.0402 -0.199495 -3.19344e-15)
(1.02638 -0.243154 -3.2394e-15)
(1.0097 -0.29882 -3.48769e-15)
(0.98891 -0.371066 -3.55246e-15)
(0.962273 -0.467344 -3.84315e-15)
(0.922993 -0.597481 -3.86152e-15)
(0.859612 -0.77423 -3.62039e-15)
(0.699162 -0.953168 -2.88317e-15)
(0.345522 -0.848706 -1.35416e-15)
(1.0938 -0.00330362 -5.33622e-16)
(1.09334 -0.00325536 -5.12936e-16)
(1.09289 -0.00320844 -7.37678e-16)
(1.09245 -0.0031629 -7.68309e-16)
(1.09202 -0.0031188 -7.60029e-16)
(1.09159 -0.00307618 -7.33515e-16)
(1.09117 -0.00303515 -6.98691e-16)
(1.09075 -0.0029958 -8.8841e-16)
(1.09034 -0.00295827 -8.82291e-16)
(1.08993 -0.00292272 -1.1023e-15)
(1.08953 -0.00288935 -1.07706e-15)
(1.08914 -0.0028584 -1.29079e-15)
(1.08875 -0.00283017 -1.29361e-15)
(1.08836 -0.002805 -1.26689e-15)
(1.08798 -0.00278332 -1.22353e-15)
(1.08761 -0.00276565 -1.42348e-15)
(1.08723 -0.00275258 -1.41e-15)
(1.08686 -0.00274485 -1.599e-15)
(1.08649 -0.00274331 -1.57382e-15)
(1.08613 -0.002749 -1.79137e-15)
(1.08576 -0.00276313 -1.78716e-15)
(1.0854 -0.00278716 -1.7307e-15)
(1.08503 -0.00282278 -1.67489e-15)
(1.08467 -0.00287204 -1.84787e-15)
(1.0843 -0.00293733 -1.83835e-15)
(1.08392 -0.00302151 -2.02397e-15)
(1.08354 -0.00312792 -1.96321e-15)
(1.08315 -0.00326056 -2.17516e-15)
(1.08275 -0.00342411 -2.16348e-15)
(1.08234 -0.00362415 -2.11725e-15)
(1.08191 -0.00386724 -2.06267e-15)
(1.08146 -0.00416115 -1.99452e-15)
(1.08098 -0.00451509 -2.15187e-15)
(1.08047 -0.00493994 -2.12561e-15)
(1.07992 -0.00544857 -2.29986e-15)
(1.07932 -0.00605626 -2.2433e-15)
(1.07867 -0.0067811 -2.43546e-15)
(1.07795 -0.00764457 -2.43073e-15)
(1.07715 -0.00867217 -2.3727e-15)
(1.07625 -0.00989423 -2.31163e-15)
(1.07524 -0.0113469 -2.47514e-15)
(1.0741 -0.0130731 -2.43732e-15)
(1.0728 -0.0151246 -2.60876e-15)
(1.07131 -0.0175628 -2.57066e-15)
(1.06959 -0.0204618 -2.75298e-15)
(1.06761 -0.0239108 -2.72664e-15)
(1.06532 -0.0280175 -2.68591e-15)
(1.06265 -0.0329126 -2.63102e-15)
(1.05954 -0.0387556 -2.8004e-15)
(1.05591 -0.0457418 -2.78766e-15)
(1.05166 -0.0541124 -2.97326e-15)
(1.04667 -0.0641672 -2.92679e-15)
(1.04079 -0.0762826 -3.13556e-15)
(1.03386 -0.0909361 -3.1195e-15)
(1.02565 -0.108741 -3.10645e-15)
(1.01589 -0.130497 -3.06293e-15)
(1.00423 -0.157266 -3.02578e-15)
(0.990184 -0.190494 -3.23993e-15)
(0.973066 -0.23218 -3.28e-15)
(0.95191 -0.28522 -3.53617e-15)
(0.924791 -0.353763 -3.5706e-15)
(0.888921 -0.444125 -3.85715e-15)
(0.835073 -0.563446 -3.79858e-15)
(0.749862 -0.714982 -3.45384e-15)
(0.558645 -0.840427 -2.64467e-15)
(0.239448 -0.670016 -1.18683e-15)
(1.05608 -0.00307585 -7.58938e-16)
(1.05561 -0.00303096 -6.62121e-16)
(1.05515 -0.00298734 -9.70087e-16)
(1.05469 -0.00294502 -9.75764e-16)
(1.05424 -0.00290404 -8.87606e-16)
(1.0538 -0.00286446 -8.38575e-16)
(1.05336 -0.00282637 -7.93775e-16)
(1.05293 -0.00278987 -1.06583e-15)
(1.05251 -0.00275509 -9.95782e-16)
(1.05209 -0.00272217 -1.28765e-15)
(1.05167 -0.0026913 -1.20006e-15)
(1.05127 -0.00266273 -1.46475e-15)
(1.05086 -0.00263672 -1.45052e-15)
(1.05047 -0.0026136 -1.40616e-15)
(1.05007 -0.00259379 -1.3228e-15)
(1.04968 -0.00257777 -1.61178e-15)
(1.04929 -0.0025661 -1.54477e-15)
(1.04891 -0.00255948 -1.7812e-15)
(1.04853 -0.00255873 -1.69498e-15)
(1.04815 -0.00256483 -1.97963e-15)
(1.04777 -0.00257891 -1.91732e-15)
(1.04739 -0.00260237 -1.85922e-15)
(1.04701 -0.00263682 -1.77459e-15)
(1.04663 -0.00268418 -2.01324e-15)
(1.04625 -0.00274674 -1.95653e-15)
(1.04586 -0.00282719 -2.19286e-15)
(1.04546 -0.00292871 -2.0798e-15)
(1.04505 -0.00305509 -2.35618e-15)
(1.04463 -0.00321077 -2.33102e-15)
(1.0442 -0.00340102 -2.22802e-15)
(1.04374 -0.00363208 -2.1537e-15)
(1.04326 -0.00391132 -2.06923e-15)
(1.04275 -0.00424746 -2.30778e-15)
(1.04221 -0.00465081 -2.23564e-15)
(1.04162 -0.00513361 -2.46391e-15)
(1.04098 -0.00571033 -2.34757e-15)
(1.04028 -0.00639814 -2.59991e-15)
(1.03951 -0.00721743 -2.54389e-15)
(1.03864 -0.00819238 -2.46812e-15)
(1.03767 -0.0093518 -2.40069e-15)
(1.03658 -0.01073 -2.61665e-15)
(1.03533 -0.0123678 -2.54068e-15)
(1.03391 -0.0143143 -2.77213e-15)
(1.03227 -0.0166278 -2.66218e-15)
(1.03039 -0.0193789 -2.90632e-15)
(1.02821 -0.0226523 -2.83251e-15)
(1.02568 -0.0265503 -2.77215e-15)
(1.02273 -0.0311974 -2.70262e-15)
(1.01928 -0.036745 -2.93003e-15)
(1.01524 -0.0433792 -2.86622e-15)
(1.01049 -0.0513291 -3.11599e-15)
(1.0049 -0.0608799 -3.00335e-15)
(0.998292 -0.0723891 -3.28369e-15)
(0.990456 -0.0863096 -3.24361e-15)
(0.981126 -0.103222 -3.16687e-15)
(0.969963 -0.123884 -3.10411e-15)
(0.956516 -0.149292 -3.05199e-15)
(0.940182 -0.180798 -3.31511e-15)
(0.920061 -0.220249 -3.31648e-15)
(0.894892 -0.270264 -3.60517e-15)
)
;

boundaryField
{
    inlet
    {
        type            uniformFixedValue;
        uniformValue    constant (1 0 0);
        value           nonuniform 0();
    }
    outlet
    {
        type            pressureInletOutletVelocity;
        value           nonuniform 0();
    }
    wall
    {
        type            fixedValue;
        value           uniform (0 0 0);
    }
    wedge1
    {
        type            wedge;
    }
    wedge2
    {
        type            wedge;
    }
    axis
    {
        type            empty;
    }
    procBoundary20to14
    {
        type            processor;
        value           nonuniform List<vector> 
71
(
(1.42883 -0.143303 -1.45822e-15)
(1.43606 -0.170117 -1.51879e-15)
(1.44575 -0.20235 -1.54176e-15)
(1.45889 -0.241201 -1.92992e-15)
(1.47704 -0.288133 -1.95116e-15)
(1.50243 -0.344937 -2.28961e-15)
(1.53893 -0.413472 -2.32306e-15)
(1.59127 -0.496145 -2.71897e-15)
(1.67004 -0.591162 -2.85523e-15)
(1.78047 -0.706886 -3.06702e-15)
(1.94395 -0.785674 -3.27663e-15)
(2.17156 -0.956333 -3.49619e-15)
(1.32438 -0.00481915 6.01795e-16)
(1.32413 -0.00474856 5.58488e-16)
(1.32388 -0.00467983 3.8864e-16)
(1.32364 -0.00461299 3.95215e-16)
(1.32339 -0.00454811 3.90213e-16)
(1.32316 -0.00448528 3.6639e-16)
(1.32292 -0.0044246 3.80891e-16)
(1.32269 -0.00436621 2.7696e-16)
(1.32246 -0.00431027 2.25438e-16)
(1.32223 -0.004257 1.00316e-16)
(1.32201 -0.00420666 4.81979e-17)
(1.32179 -0.00415956 -8.80363e-17)
(1.32158 -0.00411608 -1.36419e-16)
(1.32136 -0.00407668 -1.29546e-16)
(1.32115 -0.0040419 -1.77122e-16)
(1.32095 -0.00401242 -2.63721e-16)
(1.32074 -0.00398901 -2.99932e-16)
(1.32054 -0.00397262 -3.70244e-16)
(1.32034 -0.00396438 -4.61418e-16)
(1.32014 -0.00396562 -5.72176e-16)
(1.31995 -0.00397792 -5.97754e-16)
(1.31976 -0.00400316 -6.36394e-16)
(1.31957 -0.00404358 -6.52764e-16)
(1.31938 -0.00410181 -7.24067e-16)
(1.31919 -0.00418098 -7.0106e-16)
(1.31901 -0.00428478 -8.20531e-16)
(1.31882 -0.00441759 -8.15388e-16)
(1.31864 -0.00458457 -9.46707e-16)
(1.31846 -0.00479183 -9.44174e-16)
(1.31827 -0.00504657 -8.88781e-16)
(1.31809 -0.00535733 -8.97825e-16)
(1.3179 -0.00573418 -8.69843e-16)
(1.31772 -0.00618902 -9.81381e-16)
(1.31753 -0.00673592 -9.46206e-16)
(1.31734 -0.00739151 -1.06287e-15)
(1.31715 -0.00817548 -1.07206e-15)
(1.31695 -0.00911111 -1.18548e-15)
(1.31674 -0.010226 -1.22813e-15)
(1.31653 -0.0115527 -1.23299e-15)
(1.31632 -0.0131301 -1.22586e-15)
(1.31609 -0.0150042 -1.29386e-15)
(1.31586 -0.0172296 -1.31552e-15)
(1.31562 -0.0198713 -1.39193e-15)
(1.31537 -0.0230071 -1.40413e-15)
(1.31511 -0.0267294 -1.48571e-15)
(1.31486 -0.0311494 -1.55471e-15)
(1.3146 -0.0364002 -1.58511e-15)
(1.31436 -0.0426423 -1.53695e-15)
(1.31414 -0.0500696 -1.65257e-15)
(1.31398 -0.0589176 -1.66934e-15)
(1.3139 -0.0694739 -1.79963e-15)
(1.31397 -0.0820914 -1.85752e-15)
(1.31425 -0.0972065 -1.98265e-15)
(1.31488 -0.115364 -1.9809e-15)
(1.31488 -0.115364 -1.9809e-15)
(2.40813 -0.780748 -3.36166e-15)
(2.45076 -0.572433 -3.20536e-15)
(2.37759 -0.403782 -2.96203e-15)
(2.27668 -0.27391 -2.76951e-15)
)
;
    }
    procBoundary20to15
    {
        type            processor;
        value           uniform (1.41372 -0.0495934 -1.86598e-15);
    }
    procBoundary20to19
    {
        type            processor;
        value           nonuniform List<vector> 5((1.23338 -0.00425847 5.1977e-16) (1.16649 -0.00381473 2.46231e-16) (1.1309 -0.00358442 -9.25732e-17) (1.09426 -0.00335319 -2.52254e-16) (1.05656 -0.00312196 -4.35824e-16));
    }
    procBoundary20to21
    {
        type            processor;
        value           uniform (0.4394 0.00884287 -6.55925e-16);
    }
    procBoundary20to26
    {
        type            processor;
        value           nonuniform List<vector> 
67
(
(0.862249 -0.334473 -3.57512e-15)
(0.818645 -0.417924 -3.89549e-15)
(0.753627 -0.52506 -3.73967e-15)
(0.653932 -0.651479 -3.30489e-15)
(0.452615 -0.734262 -2.45529e-15)
(0.173369 -0.533823 -1.10165e-15)
(1.01731 -0.00284921 -1.0201e-15)
(1.01683 -0.0028077 -9.75818e-16)
(1.01636 -0.00276735 -1.25062e-15)
(1.01589 -0.00272822 -1.17751e-15)
(1.01543 -0.00269035 -1.20331e-15)
(1.01498 -0.00265379 -1.13924e-15)
(1.01453 -0.00261863 -1.06543e-15)
(1.01409 -0.00258496 -1.30826e-15)
(1.01365 -0.00255289 -1.30311e-15)
(1.01323 -0.00252257 -1.54782e-15)
(1.0128 -0.00249419 -1.49134e-15)
(1.01238 -0.00246796 -1.75174e-15)
(1.01197 -0.00244413 -1.75903e-15)
(1.01156 -0.00242304 -1.68339e-15)
(1.01116 -0.00240505 -1.60116e-15)
(1.01076 -0.00239063 -1.84036e-15)
(1.01036 -0.00238031 -1.82622e-15)
(1.00997 -0.00237475 -2.02983e-15)
(1.00958 -0.00237472 -1.96243e-15)
(1.00919 -0.00238114 -2.23083e-15)
(1.0088 -0.00239509 -2.21585e-15)
(1.00841 -0.00241787 -2.12574e-15)
(1.00802 -0.00245102 -2.02624e-15)
(1.00762 -0.00249635 -2.23168e-15)
(1.00723 -0.00255601 -2.22477e-15)
(1.00682 -0.00263253 -2.42061e-15)
(1.00641 -0.00272894 -2.34117e-15)
(1.00599 -0.00284878 -2.61224e-15)
(1.00555 -0.00299626 -2.47235e-15)
(1.0051 -0.00317636 -2.48693e-15)
(1.00462 -0.00339494 -2.39726e-15)
(1.00412 -0.00365897 -2.30552e-15)
(1.00359 -0.00397668 -2.5116e-15)
(1.00301 -0.00435781 -2.47952e-15)
(1.00239 -0.00481389 -2.6764e-15)
(1.00172 -0.00535859 -2.59678e-15)
(1.00097 -0.00600813 -2.83259e-15)
(1.00015 -0.00678173 -2.82593e-15)
(0.999223 -0.00770225 -2.71868e-15)
(0.998185 -0.0087969 -2.63111e-15)
(0.99701 -0.0100981 -2.81709e-15)
(0.995671 -0.0116444 -2.80178e-15)
(0.994138 -0.0134821 -2.97884e-15)
(0.992375 -0.0156665 -2.88715e-15)
(0.990337 -0.0182641 -3.13385e-15)
(0.987975 -0.021355 -3.08774e-15)
(0.985225 -0.0250361 -3.01307e-15)
(0.982014 -0.0294248 -2.92082e-15)
(0.978255 -0.0346645 -3.12106e-15)
(0.97384 -0.0409305 -3.10841e-15)
(0.968639 -0.0484395 -3.29174e-15)
(0.962496 -0.0574603 -3.22056e-15)
(0.955215 -0.0683297 -3.47879e-15)
(0.946552 -0.0814735 -3.33591e-15)
(0.936199 -0.0974365 -3.35579e-15)
(0.923758 -0.116925 -3.27715e-15)
(0.908697 -0.140865 -3.20648e-15)
(0.890303 -0.170498 -3.43817e-15)
(0.867516 -0.207502 -3.49051e-15)
(0.862249 -0.334473 -3.57512e-15)
(0.838849 -0.254185 -3.7247e-15)
)
;
    }
}


// ************************************************************************* //
