/*--------------------------------*- C++ -*----------------------------------*\
  =========                 |
  \\      /  F ield         | OpenFOAM: The Open Source CFD Toolbox
   \\    /   O peration     | Website:  https://openfoam.org
    \\  /    A nd           | Version:  7
     \\/     M anipulation  |
\*---------------------------------------------------------------------------*/
FoamFile
{
    version     2.0;
    format      ascii;
    class       volScalarField;
    location    "53.000458";
    object      p;
}
// * * * * * * * * * * * * * * * * * * * * * * * * * * * * * * * * * * * * * //

dimensions      [0 2 -2 0 0 0 0];

internalField   nonuniform List<scalar> 
23200
(
-0.287764
-0.291954
-0.294404
-0.295756
-0.296316
-0.296054
-0.29498
-0.293118
-0.290486
-0.287097
-0.282964
-0.278105
-0.272543
-0.266316
-0.259473
-0.25209
-0.244264
-0.236161
-0.227919
-0.219377
-0.288588
-0.292685
-0.295067
-0.296359
-0.296865
-0.296554
-0.295436
-0.293535
-0.290867
-0.287446
-0.283284
-0.278398
-0.272811
-0.266556
-0.259685
-0.252266
-0.244399
-0.236254
-0.227955
-0.219193
-0.290227
-0.294141
-0.296385
-0.29756
-0.297958
-0.297548
-0.296342
-0.294362
-0.291624
-0.288139
-0.283919
-0.278979
-0.273341
-0.267033
-0.260103
-0.252616
-0.244664
-0.236438
-0.228028
-0.218825
-0.292665
-0.296306
-0.298346
-0.299348
-0.299583
-0.299027
-0.297689
-0.295591
-0.292746
-0.289165
-0.284859
-0.279839
-0.274122
-0.267735
-0.260718
-0.253131
-0.245054
-0.236706
-0.228138
-0.218271
-0.295877
-0.299162
-0.300933
-0.301704
-0.301726
-0.300975
-0.299461
-0.297205
-0.294218
-0.29051
-0.286088
-0.280961
-0.275141
-0.268649
-0.261519
-0.253799
-0.245561
-0.237053
-0.228285
-0.217533
-0.299835
-0.302683
-0.304122
-0.304609
-0.304365
-0.303372
-0.30164
-0.299186
-0.296023
-0.292155
-0.287588
-0.282328
-0.27638
-0.269758
-0.262489
-0.254608
-0.246173
-0.237467
-0.228469
-0.216613
-0.304501
-0.306837
-0.307887
-0.308036
-0.307477
-0.306196
-0.304203
-0.301514
-0.298137
-0.294078
-0.289338
-0.283917
-0.277817
-0.271043
-0.263611
-0.255543
-0.246878
-0.237941
-0.228691
-0.215516
-0.309836
-0.311591
-0.312196
-0.311959
-0.311037
-0.309423
-0.307127
-0.304163
-0.300539
-0.296257
-0.291314
-0.285707
-0.27943
-0.272481
-0.264863
-0.256586
-0.247664
-0.238463
-0.228952
-0.214249
-0.315797
-0.316909
-0.317018
-0.316347
-0.315016
-0.313025
-0.310385
-0.307109
-0.303203
-0.298666
-0.293493
-0.287674
-0.281198
-0.274051
-0.266228
-0.257721
-0.248519
-0.239022
-0.22925
-0.212825
-0.32234
-0.322752
-0.322318
-0.321169
-0.319386
-0.316976
-0.313953
-0.310328
-0.306105
-0.301283
-0.295851
-0.289795
-0.283096
-0.275732
-0.267685
-0.258931
-0.249429
-0.239609
-0.229585
-0.211263
-0.329421
-0.329084
-0.328062
-0.326395
-0.324118
-0.32125
-0.317805
-0.313795
-0.309223
-0.304085
-0.298366
-0.292049
-0.285106
-0.277506
-0.269218
-0.260202
-0.250385
-0.240216
-0.229953
-0.20959
-0.336997
-0.335865
-0.334219
-0.331994
-0.329185
-0.32582
-0.321918
-0.31749
-0.312537
-0.307053
-0.301022
-0.294419
-0.287211
-0.279355
-0.27081
-0.261519
-0.251377
-0.240835
-0.230346
-0.207839
-0.345026
-0.34306
-0.340753
-0.337936
-0.334559
-0.330663
-0.326271
-0.321391
-0.316027
-0.31017
-0.303801
-0.296889
-0.289395
-0.281267
-0.272449
-0.262873
-0.252396
-0.241461
-0.230752
-0.206051
-0.35347
-0.350635
-0.347636
-0.344195
-0.340218
-0.335759
-0.330844
-0.325484
-0.319681
-0.313424
-0.306692
-0.29945
-0.29165
-0.283231
-0.274127
-0.264253
-0.253436
-0.242091
-0.231148
-0.204273
-0.362292
-0.358558
-0.354838
-0.350745
-0.346138
-0.341087
-0.335621
-0.329754
-0.323486
-0.316806
-0.309689
-0.302094
-0.293968
-0.285242
-0.275836
-0.265654
-0.254493
-0.242729
-0.231511
-0.202572
-0.371458
-0.366798
-0.362332
-0.357561
-0.3523
-0.34663
-0.34059
-0.334191
-0.327435
-0.320309
-0.312784
-0.304817
-0.296346
-0.287294
-0.277572
-0.267071
-0.255563
-0.243383
-0.231815
-0.201043
-0.380937
-0.375325
-0.370091
-0.364622
-0.358683
-0.352374
-0.345738
-0.338786
-0.331521
-0.323929
-0.315978
-0.307617
-0.298781
-0.289385
-0.279332
-0.2685
-0.256646
-0.244063
-0.231972
-0.199718
-0.390699
-0.384112
-0.378091
-0.371904
-0.365271
-0.358305
-0.351055
-0.343533
-0.335742
-0.327665
-0.319266
-0.310492
-0.30127
-0.29151
-0.281111
-0.269942
-0.257756
-0.244793
-0.231767
-0.198388
-0.400713
-0.39313
-0.386305
-0.379387
-0.372045
-0.364409
-0.356531
-0.348425
-0.340092
-0.331513
-0.322648
-0.313438
-0.303807
-0.293662
-0.282902
-0.271399
-0.258945
-0.245703
-0.231278
-0.197721
-0.410948
-0.402349
-0.394707
-0.387048
-0.378987
-0.37067
-0.362155
-0.353454
-0.344566
-0.335468
-0.326116
-0.316447
-0.306379
-0.295823
-0.284682
-0.272855
-0.260231
-0.24696
-0.231868
-0.204758
-0.421369
-0.411737
-0.403268
-0.394859
-0.386075
-0.377072
-0.367914
-0.35861
-0.349154
-0.33952
-0.32966
-0.319502
-0.308966
-0.29796
-0.286403
-0.274231
-0.261451
-0.248299
-0.234771
-0.22667
-0.431936
-0.421256
-0.411953
-0.402794
-0.393284
-0.383595
-0.373791
-0.363876
-0.353842
-0.343655
-0.33326
-0.322581
-0.311534
-0.30003
-0.288
-0.275413
-0.262354
-0.24908
-0.235592
-0.231115
-0.442605
-0.430865
-0.420725
-0.410817
-0.400585
-0.390213
-0.379762
-0.369232
-0.358607
-0.347847
-0.336888
-0.325649
-0.31404
-0.301978
-0.289404
-0.276306
-0.262807
-0.249131
-0.235021
-0.230146
-0.453323
-0.440513
-0.429539
-0.418889
-0.407943
-0.396893
-0.385798
-0.374649
-0.36342
-0.352063
-0.340506
-0.32866
-0.316433
-0.303743
-0.290542
-0.276834
-0.262751
-0.24848
-0.23367
-0.227214
-0.464025
-0.450145
-0.438343
-0.426962
-0.415314
-0.403595
-0.39186
-0.380086
-0.368239
-0.356258
-0.344062
-0.331556
-0.318646
-0.305255
-0.291343
-0.276928
-0.262143
-0.24714
-0.231578
-0.22311
-0.47464
-0.459692
-0.447074
-0.434979
-0.422645
-0.41027
-0.397898
-0.385495
-0.373011
-0.360375
-0.347494
-0.334269
-0.320607
-0.306436
-0.291731
-0.276523
-0.260946
-0.245128
-0.228789
-0.2183
-0.485082
-0.469077
-0.455663
-0.442875
-0.429875
-0.416857
-0.403855
-0.390814
-0.377672
-0.364343
-0.350726
-0.336719
-0.322231
-0.307205
-0.29163
-0.275558
-0.25913
-0.242463
-0.22537
-0.213059
-0.495253
-0.478212
-0.464027
-0.450573
-0.436931
-0.423287
-0.409657
-0.395969
-0.382143
-0.368079
-0.353671
-0.338815
-0.32343
-0.307476
-0.290966
-0.273978
-0.256668
-0.239159
-0.221364
-0.207505
-0.505046
-0.486997
-0.472074
-0.457987
-0.443728
-0.429475
-0.415222
-0.400874
-0.386333
-0.371489
-0.35623
-0.340458
-0.324107
-0.307162
-0.289667
-0.271732
-0.253537
-0.23522
-0.216795
-0.201668
-0.514336
-0.495322
-0.479701
-0.465017
-0.450173
-0.435328
-0.420453
-0.405429
-0.39014
-0.374467
-0.358297
-0.341543
-0.324164
-0.306176
-0.287663
-0.268771
-0.249711
-0.230644
-0.211672
-0.195534
-0.52299
-0.503063
-0.486792
-0.471555
-0.456158
-0.440739
-0.425242
-0.409524
-0.39345
-0.376897
-0.359757
-0.341962
-0.323502
-0.304435
-0.284889
-0.265054
-0.245169
-0.225425
-0.205992
-0.189071
-0.530864
-0.510088
-0.493224
-0.47748
-0.461565
-0.44559
-0.42947
-0.413036
-0.39614
-0.378656
-0.360491
-0.341603
-0.322024
-0.301859
-0.281286
-0.260539
-0.239891
-0.219554
-0.199751
-0.182239
-0.537801
-0.516255
-0.498861
-0.482662
-0.466266
-0.449753
-0.433007
-0.415835
-0.398078
-0.379616
-0.360377
-0.340357
-0.319635
-0.298373
-0.276799
-0.255195
-0.233857
-0.21302
-0.192939
-0.174999
-0.543638
-0.521412
-0.50356
-0.486961
-0.470123
-0.45309
-0.435715
-0.417782
-0.399129
-0.379647
-0.359295
-0.338117
-0.316249
-0.293909
-0.271383
-0.248991
-0.227053
-0.205813
-0.185546
-0.16732
-0.548204
-0.525401
-0.50717
-0.49023
-0.472991
-0.455457
-0.437449
-0.418734
-0.399152
-0.378616
-0.357126
-0.334782
-0.311783
-0.288409
-0.264998
-0.241905
-0.219465
-0.197927
-0.177564
-0.159174
-0.551325
-0.52806
-0.509534
-0.492317
-0.474719
-0.456702
-0.438059
-0.418545
-0.398008
-0.376396
-0.353759
-0.33026
-0.306166
-0.281821
-0.257611
-0.233919
-0.211085
-0.189355
-0.168987
-0.150541
-0.552823
-0.529221
-0.510493
-0.493064
-0.47515
-0.456672
-0.437394
-0.417067
-0.395561
-0.372864
-0.349087
-0.324466
-0.299337
-0.274105
-0.249198
-0.225019
-0.201906
-0.180092
-0.159809
-0.141406
-0.552521
-0.52872
-0.509884
-0.492313
-0.474129
-0.455211
-0.435303
-0.414159
-0.391679
-0.367904
-0.343017
-0.317327
-0.291243
-0.265227
-0.239741
-0.215198
-0.191925
-0.170138
-0.15003
-0.131762
-0.550246
-0.526389
-0.507548
-0.489904
-0.471497
-0.452166
-0.431639
-0.409683
-0.386239
-0.361414
-0.335464
-0.308782
-0.281845
-0.255165
-0.22923
-0.204454
-0.181144
-0.159493
-0.139649
-0.121604
-0.545829
-0.52207
-0.503328
-0.485682
-0.467103
-0.447389
-0.42626
-0.40351
-0.379129
-0.353299
-0.326359
-0.298782
-0.271113
-0.243905
-0.217661
-0.192788
-0.169567
-0.148163
-0.12867
-0.110933
-0.53911
-0.515609
-0.497072
-0.4795
-0.460802
-0.44074
-0.419037
-0.395522
-0.37025
-0.343481
-0.315646
-0.287293
-0.259029
-0.231441
-0.205038
-0.180209
-0.157202
-0.136153
-0.117099
-0.0997516
-0.529944
-0.506862
-0.48864
-0.471217
-0.452456
-0.432088
-0.409851
-0.385617
-0.359517
-0.331899
-0.303282
-0.274292
-0.245587
-0.217778
-0.19137
-0.166727
-0.144061
-0.123476
-0.104946
-0.0880694
-0.518196
-0.4957
-0.477902
-0.460706
-0.441941
-0.421319
-0.398597
-0.373708
-0.346864
-0.318506
-0.289243
-0.259771
-0.230791
-0.202928
-0.176673
-0.15236
-0.13016
-0.110143
-0.0922244
-0.0759024
-0.503752
-0.482008
-0.464744
-0.447853
-0.42915
-0.408332
-0.38519
-0.359725
-0.33224
-0.303273
-0.273518
-0.243735
-0.214657
-0.186912
-0.160971
-0.137129
-0.115517
-0.0961729
-0.0789512
-0.0632684
-0.486517
-0.465691
-0.44907
-0.432564
-0.413993
-0.393047
-0.369561
-0.343619
-0.315617
-0.28619
-0.256113
-0.226201
-0.197209
-0.169759
-0.144291
-0.121061
-0.100157
-0.0815855
-0.0651426
-0.0501413
-0.466417
-0.446674
-0.430803
-0.414763
-0.396398
-0.375402
-0.351667
-0.325362
-0.296984
-0.267264
-0.237049
-0.207201
-0.178484
-0.151505
-0.12667
-0.104188
-0.0841079
-0.0664071
-0.0508247
-0.0364653
-0.443406
-0.424904
-0.409889
-0.394397
-0.376319
-0.355363
-0.331484
-0.304948
-0.276353
-0.24652
-0.216364
-0.186777
-0.158528
-0.132196
-0.108148
-0.0865478
-0.0674031
-0.050662
-0.0360243
-0.0225101
-0.417462
-0.400355
-0.386299
-0.371438
-0.353733
-0.332914
-0.309013
-0.282393
-0.253754
-0.224002
-0.194108
-0.164987
-0.137396
-0.111884
-0.088773
-0.0681818
-0.0500839
-0.0344051
-0.0207282
-0.00819169
-0.388593
-0.373028
-0.360028
-0.345883
-0.328642
-0.30807
-0.284278
-0.257735
-0.229239
-0.199771
-0.170348
-0.141895
-0.115152
-0.0906284
-0.0686003
-0.0491417
-0.0321893
-0.0176512
-0.00501964
0.00649064
-0.356836
-0.34295
-0.331102
-0.317756
-0.301076
-0.280868
-0.257331
-0.231037
-0.202878
-0.173903
-0.145163
-0.117581
-0.0918709
-0.0684978
-0.0476901
-0.0294782
-0.013768
-0.000446677
0.0110672
0.0215002
-0.322257
-0.310179
-0.299573
-0.287111
-0.271092
-0.251373
-0.228244
-0.202381
-0.174762
-0.146493
-0.118646
-0.0921338
-0.0676342
-0.0455655
-0.0261086
-0.00925131
0.00512754
0.0171604
0.0274942
0.0367958
-0.284954
-0.274802
-0.265522
-0.254027
-0.238775
-0.219676
-0.197117
-0.171873
-0.144999
-0.117649
-0.0909009
-0.0656507
-0.0425318
-0.0219134
-0.00392857
0.0114741
0.0244397
0.0351184
0.0442164
0.0523328
-0.245054
-0.236934
-0.229059
-0.218615
-0.204235
-0.185894
-0.164071
-0.139639
-0.113713
-0.0874912
-0.0620457
-0.0382396
-0.0166616
0.00237083
0.0187713
0.0326277
0.0441058
0.053372
0.0611838
0.068062
-0.202716
-0.19672
-0.190323
-0.18101
-0.167612
-0.150167
-0.129248
-0.105815
-0.08105
-0.0561584
-0.0322057
-0.0100164
0.00987163
0.0271933
0.0419072
0.0541343
0.0640583
0.071861
0.0783411
0.0839275
-0.158129
-0.154331
-0.149481
-0.141379
-0.12907
-0.112656
-0.0928134
-0.070573
-0.0471625
-0.023796
-0.00151715
0.0188951
0.0369568
0.0524545
0.0653898
0.0759137
0.0842246
0.0905207
0.0956273
0.0998663
-0.111498
-0.109973
-0.106726
-0.0999072
-0.088791
-0.0735554
-0.0549517
-0.0340866
-0.0122198
0.00943791
0.0298756
0.0483648
0.0644771
0.0780502
0.0891261
0.0978815
0.104528
0.109283
0.112979
0.115809
-0.0630136
-0.063911
-0.0622763
-0.0568109
-0.0469924
-0.0330668
-0.0158627
0.00345186
0.0235968
0.0433765
0.0618208
0.0782563
0.092311
0.103872
0.113019
0.11995
0.124889
0.128083
0.130338
0.131654
-0.0130754
-0.0163054
-0.0163709
-0.0123279
-0.00390367
0.0085847
0.0242371
0.0418371
0.0600964
0.0778449
0.0941607
0.108428
0.120333
0.129809
0.136968
0.142027
0.145228
0.146864
0.14764
0.147205
0.038122
0.0325161
0.0307209
0.0332861
0.0402264
0.0511578
0.0651177
0.0808531
0.0970795
0.112662
0.126732
0.138736
0.148414
0.155745
0.160871
0.164021
0.165465
0.165554
0.164719
0.162221
0.0902694
0.082264
0.0787195
0.0797578
0.0851325
0.0943979
0.106538
0.120275
0.13434
0.14764
0.159368
0.169031
0.176423
0.181566
0.184625
0.18584
0.185516
0.184014
0.181205
0.176654
0.143038
0.132634
0.127328
0.126798
0.130536
0.138039
0.148248
0.159871
0.171665
0.18259
0.191899
0.199162
0.204228
0.207154
0.208128
0.207402
0.205311
0.202133
0.196879
0.190748
0.196091
0.183306
0.176236
0.174106
0.176147
0.181806
0.18999
0.199405
0.208841
0.217317
0.224152
0.228978
0.231693
0.232391
0.231279
0.228622
0.224777
0.219983
0.213209
0.206635
0.249083
0.233948
0.225121
0.221371
0.221669
0.225419
0.231503
0.238636
0.245651
0.251628
0.255956
0.258326
0.258685
0.257158
0.253971
0.2494
0.243806
0.237395
0.229291
0.222017
0.301661
0.284221
0.273656
0.268275
0.266799
0.268593
0.272523
0.277323
0.281876
0.285329
0.287138
0.287054
0.285068
0.281335
0.276097
0.269637
0.262313
0.254301
0.24488
0.236669
0.353468
0.333782
0.321507
0.3145
0.311233
0.311041
0.312786
0.315227
0.317302
0.318228
0.317528
0.315011
0.31071
0.304805
0.297551
0.289239
0.280215
0.27064
0.259918
0.250612
0.404147
0.382286
0.368342
0.359724
0.354666
0.35248
0.352031
0.352109
0.351715
0.350134
0.346958
0.342049
0.335479
0.327451
0.318232
0.308114
0.297432
0.286336
0.274342
0.263867
0.453344
0.429393
0.41383
0.403629
0.396798
0.39263
0.39
0.387737
0.384907
0.380864
0.375265
0.368025
0.359249
0.349163
0.33804
0.326173
0.313887
0.301322
0.288092
0.276427
0.500711
0.474766
0.457646
0.445904
0.437335
0.431217
0.426442
0.421886
0.416675
0.410237
0.40229
0.392797
0.381897
0.36983
0.356879
0.343335
0.329507
0.315534
0.301113
0.288266
0.545911
0.518079
0.499473
0.486247
0.475989
0.467975
0.461117
0.454336
0.446826
0.438082
0.427882
0.416233
0.403304
0.38935
0.374658
0.359517
0.344223
0.328912
0.313355
0.299354
0.588617
0.559016
0.539007
0.524364
0.512488
0.502651
0.493792
0.484879
0.475173
0.464234
0.451894
0.438204
0.423357
0.407622
0.391289
0.374644
0.357969
0.341399
0.324771
0.30966
0.628518
0.597276
0.575957
0.559979
0.54657
0.535004
0.524248
0.513319
0.501542
0.488537
0.474191
0.45859
0.441951
0.424553
0.40669
0.388643
0.370682
0.352941
0.335316
0.319155
0.665325
0.632578
0.61005
0.592831
0.577991
0.564809
0.55228
0.539472
0.525768
0.510847
0.494644
0.477277
0.458985
0.440057
0.420785
0.401448
0.382303
0.363487
0.344946
0.327806
0.698765
0.66466
0.641033
0.622678
0.606523
0.591855
0.577699
0.563168
0.547701
0.531031
0.513135
0.494163
0.47437
0.454051
0.433502
0.412995
0.392778
0.37299
0.35362
0.335582
0.728592
0.69328
0.668674
0.6493
0.631962
0.615954
0.600332
0.584252
0.567203
0.548968
0.529558
0.509153
0.48802
0.466463
0.444777
0.42323
0.402058
0.381406
0.361299
0.342456
0.754584
0.718226
0.692765
0.672498
0.654121
0.636937
0.620027
0.602588
0.584154
0.564548
0.543818
0.522162
0.499863
0.477228
0.454552
0.432099
0.410098
0.388696
0.367949
0.348401
0.776548
0.739309
0.713127
0.692101
0.672839
0.654654
0.636648
0.618055
0.598445
0.577679
0.555831
0.533118
0.509833
0.486288
0.462776
0.43956
0.41686
0.394825
0.373539
0.353392
0.79432
0.756371
0.729604
0.707962
0.687981
0.66898
0.650084
0.630552
0.609988
0.588281
0.565527
0.541958
0.517876
0.493594
0.469408
0.445575
0.422309
0.399765
0.378044
0.357411
0.807767
0.769281
0.742072
0.719963
0.699436
0.679815
0.660242
0.639997
0.61871
0.596289
0.572849
0.548633
0.523947
0.499109
0.474413
0.450113
0.42642
0.40349
0.381442
0.36044
0.816788
0.777943
0.750437
0.728014
0.707119
0.687081
0.667052
0.646329
0.624555
0.601655
0.577754
0.553103
0.528013
0.502802
0.477764
0.453152
0.429173
0.405985
0.383716
0.362466
0.821316
0.78229
0.754636
0.732055
0.710974
0.690727
0.670469
0.649505
0.627487
0.604346
0.580214
0.555345
0.530052
0.504654
0.479444
0.454675
0.430552
0.407235
0.384856
0.363481
0.821316
0.78229
0.754636
0.732055
0.710974
0.690727
0.670469
0.649505
0.627487
0.604346
0.580214
0.555345
0.530052
0.504654
0.479444
0.454675
0.430552
0.407235
0.384856
0.363481
0.816788
0.777943
0.750437
0.728014
0.707119
0.687081
0.667052
0.646329
0.624555
0.601655
0.577754
0.553103
0.528013
0.502802
0.477764
0.453152
0.429173
0.405985
0.383716
0.362466
0.807767
0.769281
0.742072
0.719963
0.699436
0.679815
0.660242
0.639997
0.61871
0.596289
0.572849
0.548633
0.523947
0.499109
0.474413
0.450113
0.42642
0.40349
0.381442
0.36044
0.79432
0.756371
0.729604
0.707962
0.687981
0.66898
0.650084
0.630552
0.609988
0.588281
0.565527
0.541958
0.517876
0.493594
0.469408
0.445575
0.422309
0.399765
0.378044
0.357411
0.776548
0.739309
0.713127
0.692101
0.672839
0.654654
0.636648
0.618055
0.598445
0.577679
0.555831
0.533118
0.509833
0.486287
0.462776
0.43956
0.41686
0.394825
0.373539
0.353392
0.754584
0.718226
0.692765
0.672498
0.654121
0.636937
0.620027
0.602588
0.584154
0.564548
0.543818
0.522162
0.499863
0.477228
0.454552
0.432099
0.410098
0.388696
0.367949
0.348401
0.728592
0.69328
0.668674
0.6493
0.631962
0.615954
0.600332
0.584252
0.567203
0.548968
0.529558
0.509153
0.48802
0.466463
0.444777
0.42323
0.402058
0.381406
0.361299
0.342456
0.698765
0.66466
0.641033
0.622678
0.606523
0.591855
0.577698
0.563168
0.547701
0.531031
0.513135
0.494163
0.47437
0.454051
0.433502
0.412995
0.392778
0.37299
0.35362
0.335582
0.665325
0.632578
0.61005
0.592831
0.577991
0.564809
0.55228
0.539472
0.525768
0.510847
0.494644
0.477277
0.458985
0.440057
0.420785
0.401448
0.382303
0.363487
0.344946
0.327806
0.628518
0.597276
0.575957
0.559979
0.54657
0.535004
0.524248
0.513319
0.501542
0.488537
0.474191
0.45859
0.441951
0.424553
0.40669
0.388643
0.370682
0.352941
0.335316
0.319155
0.588617
0.559016
0.539007
0.524364
0.512488
0.502651
0.493792
0.484879
0.475173
0.464234
0.451894
0.438204
0.423357
0.407622
0.391289
0.374644
0.357969
0.341399
0.324771
0.30966
0.545911
0.518079
0.499473
0.486247
0.475989
0.467975
0.461117
0.454336
0.446826
0.438082
0.427882
0.416233
0.403304
0.38935
0.374658
0.359517
0.344223
0.328912
0.313355
0.299354
0.500711
0.474766
0.457646
0.445904
0.437335
0.431217
0.426442
0.421886
0.416675
0.410237
0.40229
0.392797
0.381897
0.36983
0.356879
0.343335
0.329507
0.315534
0.301113
0.288266
0.453344
0.429393
0.41383
0.403629
0.396798
0.39263
0.39
0.387737
0.384907
0.380864
0.375265
0.368025
0.359249
0.349163
0.33804
0.326173
0.313887
0.301322
0.288092
0.276427
0.404147
0.382286
0.368342
0.359723
0.354666
0.35248
0.352031
0.352109
0.351715
0.350134
0.346958
0.342049
0.335479
0.327451
0.318232
0.308114
0.297432
0.286336
0.274342
0.263867
0.353468
0.333782
0.321507
0.3145
0.311233
0.311041
0.312786
0.315227
0.317302
0.318228
0.317528
0.315011
0.31071
0.304804
0.297551
0.289239
0.280215
0.27064
0.259918
0.250612
0.301661
0.284221
0.273656
0.268275
0.266799
0.268593
0.272523
0.277323
0.281876
0.285329
0.287138
0.287054
0.285068
0.281335
0.276097
0.269637
0.262313
0.254301
0.24488
0.236669
0.249083
0.233948
0.225121
0.221371
0.221669
0.225419
0.231503
0.238636
0.245651
0.251628
0.255956
0.258326
0.258685
0.257158
0.253971
0.2494
0.243806
0.237395
0.229291
0.222017
0.196091
0.183306
0.176236
0.174106
0.176147
0.181806
0.18999
0.199405
0.208841
0.217317
0.224152
0.228978
0.231693
0.232391
0.231279
0.228622
0.224777
0.219983
0.213209
0.206635
0.143038
0.132634
0.127328
0.126798
0.130536
0.138039
0.148248
0.159871
0.171665
0.18259
0.191899
0.199162
0.204228
0.207154
0.208128
0.207402
0.205311
0.202133
0.196879
0.190748
0.0902694
0.0822639
0.0787194
0.0797577
0.0851325
0.0943978
0.106538
0.120275
0.13434
0.14764
0.159368
0.169031
0.176423
0.181566
0.184625
0.18584
0.185516
0.184014
0.181205
0.176654
0.0381219
0.0325161
0.0307209
0.0332861
0.0402264
0.0511578
0.0651176
0.0808531
0.0970794
0.112662
0.126732
0.138736
0.148414
0.155745
0.160871
0.164021
0.165464
0.165553
0.164719
0.162221
-0.0130754
-0.0163054
-0.0163709
-0.0123279
-0.0039037
0.00858467
0.024237
0.041837
0.0600964
0.0778449
0.0941607
0.108428
0.120333
0.129808
0.136968
0.142027
0.145228
0.146864
0.14764
0.147205
-0.0630136
-0.0639111
-0.0622763
-0.056811
-0.0469925
-0.0330668
-0.0158627
0.00345182
0.0235968
0.0433765
0.0618208
0.0782562
0.092311
0.103872
0.113019
0.11995
0.124889
0.128083
0.130338
0.131654
-0.111498
-0.109973
-0.106726
-0.0999072
-0.088791
-0.0735554
-0.0549517
-0.0340866
-0.0122199
0.00943788
0.0298756
0.0483647
0.0644771
0.0780502
0.089126
0.0978815
0.104528
0.109283
0.112979
0.115809
-0.158129
-0.154331
-0.149481
-0.141379
-0.12907
-0.112656
-0.0928134
-0.070573
-0.0471625
-0.0237961
-0.00151719
0.0188951
0.0369567
0.0524544
0.0653898
0.0759137
0.0842246
0.0905207
0.0956273
0.0998663
-0.202716
-0.19672
-0.190323
-0.18101
-0.167612
-0.150167
-0.129248
-0.105815
-0.08105
-0.0561584
-0.0322058
-0.0100165
0.00987159
0.0271932
0.0419071
0.0541343
0.0640582
0.071861
0.078341
0.0839275
-0.245054
-0.236934
-0.229059
-0.218615
-0.204235
-0.185894
-0.164071
-0.139639
-0.113713
-0.0874913
-0.0620457
-0.0382396
-0.0166616
0.00237079
0.0187713
0.0326277
0.0441058
0.053372
0.0611838
0.0680619
-0.284954
-0.274802
-0.265522
-0.254027
-0.238775
-0.219676
-0.197117
-0.171873
-0.144999
-0.117649
-0.0909009
-0.0656507
-0.0425318
-0.0219134
-0.00392862
0.011474
0.0244397
0.0351184
0.0442164
0.0523327
-0.322257
-0.310179
-0.299573
-0.287111
-0.271092
-0.251373
-0.228244
-0.202381
-0.174762
-0.146493
-0.118646
-0.0921338
-0.0676342
-0.0455656
-0.0261086
-0.00925136
0.0051275
0.0171603
0.0274942
0.0367958
-0.356836
-0.34295
-0.331103
-0.317756
-0.301076
-0.280868
-0.257331
-0.231037
-0.202878
-0.173903
-0.145163
-0.117582
-0.0918709
-0.0684978
-0.0476902
-0.0294783
-0.013768
-0.000446726
0.0110672
0.0215002
-0.388594
-0.373028
-0.360028
-0.345883
-0.328642
-0.30807
-0.284278
-0.257735
-0.229239
-0.199771
-0.170348
-0.141895
-0.115153
-0.0906284
-0.0686004
-0.0491418
-0.0321894
-0.0176513
-0.00501969
0.00649059
-0.417462
-0.400355
-0.386299
-0.371438
-0.353733
-0.332914
-0.309013
-0.282393
-0.253754
-0.224002
-0.194108
-0.164987
-0.137396
-0.111884
-0.0887731
-0.0681818
-0.050084
-0.0344051
-0.0207283
-0.00819174
-0.443406
-0.424904
-0.409889
-0.394397
-0.376319
-0.355363
-0.331484
-0.304948
-0.276353
-0.24652
-0.216364
-0.186777
-0.158528
-0.132196
-0.108148
-0.0865478
-0.0674032
-0.0506621
-0.0360243
-0.0225101
-0.466417
-0.446674
-0.430803
-0.414763
-0.396398
-0.375402
-0.351667
-0.325362
-0.296984
-0.267264
-0.237049
-0.207201
-0.178484
-0.151505
-0.12667
-0.104188
-0.084108
-0.0664072
-0.0508247
-0.0364654
-0.486517
-0.465691
-0.44907
-0.432564
-0.413993
-0.393047
-0.369562
-0.343619
-0.315617
-0.28619
-0.256113
-0.226201
-0.197209
-0.169759
-0.144291
-0.121061
-0.100157
-0.0815856
-0.0651426
-0.0501414
-0.503752
-0.482008
-0.464744
-0.447853
-0.42915
-0.408332
-0.38519
-0.359725
-0.33224
-0.303273
-0.273518
-0.243735
-0.214657
-0.186912
-0.160971
-0.137129
-0.115517
-0.096173
-0.0789513
-0.0632684
-0.518196
-0.4957
-0.477902
-0.460706
-0.441941
-0.421319
-0.398597
-0.373708
-0.346864
-0.318506
-0.289243
-0.259771
-0.230791
-0.202928
-0.176673
-0.15236
-0.13016
-0.110143
-0.0922244
-0.0759025
-0.529944
-0.506862
-0.48864
-0.471217
-0.452456
-0.432088
-0.409851
-0.385617
-0.359517
-0.331899
-0.303282
-0.274292
-0.245587
-0.217778
-0.19137
-0.166727
-0.144061
-0.123476
-0.104946
-0.0880694
-0.53911
-0.515609
-0.497072
-0.4795
-0.460802
-0.44074
-0.419037
-0.395522
-0.37025
-0.343481
-0.315646
-0.287293
-0.259029
-0.231441
-0.205038
-0.180209
-0.157202
-0.136153
-0.117099
-0.0997517
-0.545829
-0.52207
-0.503328
-0.485682
-0.467104
-0.447389
-0.42626
-0.40351
-0.37913
-0.353299
-0.326359
-0.298783
-0.271113
-0.243905
-0.217661
-0.192789
-0.169567
-0.148163
-0.12867
-0.110933
-0.550246
-0.526389
-0.507548
-0.489904
-0.471497
-0.452166
-0.431639
-0.409683
-0.386239
-0.361414
-0.335464
-0.308782
-0.281845
-0.255165
-0.22923
-0.204454
-0.181144
-0.159493
-0.139649
-0.121604
-0.552521
-0.52872
-0.509884
-0.492313
-0.474129
-0.455211
-0.435303
-0.414159
-0.391679
-0.367905
-0.343017
-0.317327
-0.291243
-0.265227
-0.239741
-0.215198
-0.191925
-0.170138
-0.15003
-0.131762
-0.552823
-0.529221
-0.510493
-0.493065
-0.47515
-0.456672
-0.437394
-0.417067
-0.395561
-0.372864
-0.349087
-0.324466
-0.299337
-0.274105
-0.249198
-0.225019
-0.201906
-0.180092
-0.159809
-0.141406
-0.551325
-0.52806
-0.509534
-0.492317
-0.474719
-0.456702
-0.438059
-0.418545
-0.398008
-0.376396
-0.353759
-0.33026
-0.306166
-0.281821
-0.257611
-0.233919
-0.211085
-0.189355
-0.168987
-0.150541
-0.548204
-0.525401
-0.50717
-0.490231
-0.472991
-0.455457
-0.437449
-0.418734
-0.399152
-0.378616
-0.357126
-0.334783
-0.311783
-0.288409
-0.264998
-0.241905
-0.219465
-0.197927
-0.177564
-0.159174
-0.543638
-0.521412
-0.50356
-0.486961
-0.470123
-0.45309
-0.435715
-0.417782
-0.399129
-0.379647
-0.359295
-0.338117
-0.316249
-0.293909
-0.271383
-0.248991
-0.227053
-0.205814
-0.185546
-0.16732
-0.537801
-0.516255
-0.498861
-0.482662
-0.466266
-0.449753
-0.433007
-0.415835
-0.398079
-0.379616
-0.360377
-0.340357
-0.319636
-0.298373
-0.276799
-0.255195
-0.233857
-0.21302
-0.192939
-0.174999
-0.530864
-0.510088
-0.493224
-0.47748
-0.461565
-0.44559
-0.42947
-0.413036
-0.39614
-0.378656
-0.360491
-0.341603
-0.322024
-0.301859
-0.281286
-0.260539
-0.239891
-0.219554
-0.199751
-0.182239
-0.522991
-0.503063
-0.486792
-0.471555
-0.456158
-0.440739
-0.425242
-0.409524
-0.393451
-0.376897
-0.359757
-0.341962
-0.323503
-0.304435
-0.284889
-0.265054
-0.245169
-0.225425
-0.205992
-0.189071
-0.514336
-0.495322
-0.479701
-0.465017
-0.450173
-0.435328
-0.420453
-0.405429
-0.39014
-0.374467
-0.358297
-0.341544
-0.324164
-0.306176
-0.287663
-0.268771
-0.249711
-0.230644
-0.211672
-0.195534
-0.505046
-0.486997
-0.472074
-0.457987
-0.443728
-0.429475
-0.415222
-0.400874
-0.386333
-0.371489
-0.35623
-0.340458
-0.324107
-0.307162
-0.289667
-0.271732
-0.253537
-0.23522
-0.216795
-0.201668
-0.495254
-0.478212
-0.464027
-0.450573
-0.436931
-0.423287
-0.409657
-0.395969
-0.382143
-0.368079
-0.353671
-0.338815
-0.32343
-0.307476
-0.290966
-0.273978
-0.256668
-0.239159
-0.221364
-0.207505
-0.485082
-0.469077
-0.455663
-0.442875
-0.429875
-0.416857
-0.403855
-0.390814
-0.377672
-0.364343
-0.350726
-0.336719
-0.322231
-0.307205
-0.29163
-0.275558
-0.25913
-0.242463
-0.22537
-0.213059
-0.47464
-0.459692
-0.447074
-0.434979
-0.422645
-0.41027
-0.397898
-0.385495
-0.373011
-0.360375
-0.347494
-0.334269
-0.320607
-0.306436
-0.291731
-0.276523
-0.260946
-0.245128
-0.228789
-0.2183
-0.464025
-0.450145
-0.438343
-0.426962
-0.415314
-0.403595
-0.39186
-0.380086
-0.368239
-0.356258
-0.344062
-0.331556
-0.318646
-0.305255
-0.291343
-0.276928
-0.262143
-0.24714
-0.231578
-0.22311
-0.453323
-0.440513
-0.429539
-0.418889
-0.407943
-0.396893
-0.385798
-0.374649
-0.36342
-0.352063
-0.340506
-0.32866
-0.316433
-0.303744
-0.290542
-0.276835
-0.262751
-0.24848
-0.23367
-0.227214
-0.442605
-0.430865
-0.420725
-0.410817
-0.400585
-0.390213
-0.379762
-0.369232
-0.358607
-0.347847
-0.336888
-0.325649
-0.31404
-0.301978
-0.289404
-0.276306
-0.262807
-0.249131
-0.235021
-0.230146
-0.431936
-0.421256
-0.411953
-0.402794
-0.393284
-0.383595
-0.373791
-0.363876
-0.353842
-0.343655
-0.33326
-0.322581
-0.311534
-0.30003
-0.288
-0.275413
-0.262354
-0.24908
-0.235592
-0.231115
-0.421369
-0.411737
-0.403268
-0.394859
-0.386075
-0.377072
-0.367914
-0.35861
-0.349154
-0.33952
-0.32966
-0.319502
-0.308966
-0.29796
-0.286403
-0.274231
-0.261451
-0.248299
-0.234771
-0.22667
-0.410948
-0.402349
-0.394707
-0.387048
-0.378987
-0.37067
-0.362155
-0.353454
-0.344566
-0.335468
-0.326116
-0.316447
-0.306379
-0.295823
-0.284682
-0.272855
-0.260231
-0.24696
-0.231868
-0.204758
-0.400713
-0.39313
-0.386305
-0.379387
-0.372045
-0.364409
-0.356531
-0.348425
-0.340092
-0.331513
-0.322648
-0.313438
-0.303807
-0.293662
-0.282902
-0.271399
-0.258945
-0.245703
-0.231278
-0.197721
-0.390699
-0.384112
-0.378091
-0.371904
-0.365271
-0.358305
-0.351055
-0.343533
-0.335742
-0.327665
-0.319266
-0.310492
-0.30127
-0.29151
-0.281111
-0.269942
-0.257756
-0.244793
-0.231767
-0.198388
-0.380937
-0.375325
-0.370091
-0.364622
-0.358683
-0.352374
-0.345738
-0.338786
-0.331521
-0.323929
-0.315978
-0.307617
-0.298781
-0.289385
-0.279332
-0.2685
-0.256646
-0.244063
-0.231972
-0.199718
-0.371458
-0.366798
-0.362332
-0.357561
-0.3523
-0.34663
-0.34059
-0.334191
-0.327435
-0.320309
-0.312784
-0.304817
-0.296346
-0.287294
-0.277572
-0.267071
-0.255563
-0.243383
-0.231815
-0.201043
-0.362292
-0.358558
-0.354838
-0.350745
-0.346138
-0.341087
-0.335621
-0.329754
-0.323486
-0.316806
-0.309689
-0.302094
-0.293968
-0.285242
-0.275836
-0.265654
-0.254493
-0.242729
-0.231511
-0.202572
-0.35347
-0.350635
-0.347636
-0.344195
-0.340218
-0.335759
-0.330844
-0.325484
-0.319681
-0.313424
-0.306692
-0.29945
-0.29165
-0.283231
-0.274127
-0.264253
-0.253436
-0.242091
-0.231148
-0.204273
-0.345026
-0.34306
-0.340753
-0.337936
-0.334559
-0.330663
-0.326271
-0.321391
-0.316027
-0.31017
-0.303801
-0.29689
-0.289395
-0.281267
-0.272449
-0.262873
-0.252396
-0.241461
-0.230752
-0.206051
-0.336997
-0.335865
-0.334219
-0.331994
-0.329185
-0.32582
-0.321918
-0.31749
-0.312537
-0.307053
-0.301022
-0.294419
-0.287211
-0.279355
-0.27081
-0.261519
-0.251377
-0.240835
-0.230346
-0.207839
-0.329421
-0.329084
-0.328062
-0.326395
-0.324118
-0.32125
-0.317805
-0.313795
-0.309223
-0.304085
-0.298366
-0.292049
-0.285106
-0.277506
-0.269218
-0.260202
-0.250385
-0.240216
-0.229953
-0.20959
-0.32234
-0.322752
-0.322318
-0.321169
-0.319386
-0.316976
-0.313953
-0.310328
-0.306105
-0.301283
-0.295851
-0.289795
-0.283096
-0.275732
-0.267685
-0.258931
-0.249429
-0.239609
-0.229585
-0.211263
-0.315797
-0.316909
-0.317018
-0.316347
-0.315016
-0.313025
-0.310385
-0.307109
-0.303203
-0.298666
-0.293493
-0.287674
-0.281198
-0.274051