/*--------------------------------*- C++ -*----------------------------------*\
  =========                 |
  \\      /  F ield         | OpenFOAM: The Open Source CFD Toolbox
   \\    /   O peration     | Website:  https://openfoam.org
    \\  /    A nd           | Version:  7
     \\/     M anipulation  |
\*---------------------------------------------------------------------------*/
FoamFile
{
    version     2.0;
    format      ascii;
    class       surfaceScalarField;
    location    "48.000792";
    object      phi;
}
// * * * * * * * * * * * * * * * * * * * * * * * * * * * * * * * * * * * * * //

dimensions      [0 3 -1 0 0 0 0];

internalField   nonuniform List<scalar> 
11438
(
8.77706e-05
-0.00103308
0.000165752
-0.000987894
0.000224871
-0.000897907
0.000255998
-0.000763649
-0.000585454
-0.00104955
1.66379e-05
-0.00106637
1.69824e-05
-0.00108278
1.65619e-05
-0.00109855
1.59158e-05
-0.00111357
1.51667e-05
-0.00112781
1.43673e-05
-0.00114125
1.35472e-05
-0.00115388
1.27189e-05
-0.00116571
1.18865e-05
-0.00117674
1.10502e-05
-0.00118697
1.0208e-05
-0.00119639
9.35625e-06
-0.001205
8.49032e-06
-0.0012128
7.60491e-06
-0.00121975
6.69432e-06
-0.00122585
5.75294e-06
-0.00123106
4.77575e-06
-0.00123535
3.75903e-06
-0.00123869
2.70066e-06
-0.00124103
1.59897e-06
-0.00124233
4.42103e-07
-0.0012426
-6.76674e-07
-0.0012418
-1.81846e-06
-0.00123989
-3.04098e-06
-0.0012368
-4.33166e-06
-0.00123244
-5.68791e-06
-0.00122674
-7.11194e-06
-0.0012196
-8.60735e-06
-0.00121094
-1.01784e-05
-0.00120063
-1.18297e-05
-0.00118857
-1.35661e-05
-0.00117461
-1.53925e-05
-0.00115864
-1.73134e-05
-0.00114049
-1.93345e-05
-0.00112001
-2.14541e-05
-0.00109704
-2.36846e-05
-0.0010714
-2.60319e-05
-0.00104292
-2.85029e-05
-0.00101139
-3.11053e-05
-0.000976643
-3.38462e-05
-0.000938475
-3.67341e-05
-0.000896704
-3.9775e-05
-0.000851138
-4.29919e-05
-0.000801642
-4.63414e-05
-0.000748055
-4.98756e-05
-0.000690246
-5.35864e-05
-0.000628112
-5.74746e-05
-0.000561552
-6.15669e-05
-0.000490569
-6.57826e-05
-0.000415148
-7.01694e-05
-5.25105e-06
-0.000335319
-7.47077e-05
-5.12224e-06
-0.000251179
-7.93382e-05
-4.80077e-06
-0.000162852
-8.40547e-05
-4.27313e-06
-7.0518e-05
-8.8792e-05
-3.54162e-06
2.56282e-05
-9.35374e-05
-2.60885e-06
0.000125295
-9.81588e-05
-1.50826e-06
0.000228226
-0.000102665
-2.65163e-07
0.000334071
-0.000106922
1.0767e-06
0.000442535
-0.000110918
2.45447e-06
0.000553203
-0.000114492
3.82411e-06
0.000665844
-0.000117724
5.08366e-06
0.000779882
-0.000120257
6.21919e-06
0.000895493
-0.000122685
7.07381e-06
0.00101142
-0.000123637
7.71282e-06
0.00112933
-0.000125819
7.90822e-06
0.00124568
-0.000124154
7.80097e-06
0.00136624
-0.000127796
7.23317e-06
0.00148222
-0.000121977
5.99525e-06
0.00160675
-0.000129503
4.97813e-06
-0.00012219
1.2958e-06
-0.00100364
3.23857e-05
-0.00101983
3.31687e-05
-0.00103566
3.23934e-05
-0.0010509
3.11609e-05
-0.00106545
2.9709e-05
-0.00107923
2.81482e-05
-0.00109222
2.65441e-05
-0.00110443
2.49247e-05
-0.00111584
2.32998e-05
-0.00112646
2.16711e-05
-0.00113629
2.00352e-05
-0.00114532
1.83858e-05
-0.00115355
1.67143e-05
-0.00116095
1.50106e-05
-0.00116752
1.32637e-05
-0.00117323
1.14622e-05
-0.00117805
9.59589e-06
-0.00118195
7.65635e-06
-0.00118488
5.63849e-06
-0.00118683
3.53966e-06
-0.00118773
1.3483e-06
-0.00118757
-8.42095e-07
-0.00118635
-3.03158e-06
-0.00118401
-5.38093e-06
-0.00118048
-7.86905e-06
-0.00117567
-1.0498e-05
-0.0011695
-1.32761e-05
-0.00116189
-1.62147e-05
-0.00115275
-1.93271e-05
-0.00114195
-2.26273e-05
-0.00112938
-2.61304e-05
-0.00111493
-2.98511e-05
-0.00109843
-3.3804e-05
-0.00107976
-3.80059e-05
-0.00105876
-4.24529e-05
-0.00103527
-4.71767e-05
-0.00100911
-5.21897e-05
-0.000980111
-5.75059e-05
-0.00094808
-6.31371e-05
-0.000912832
-6.90934e-05
-0.000874183
-7.53833e-05
-0.000831952
-8.20067e-05
-0.000785944
-8.89997e-05
-0.000736038
-9.62469e-05
-0.000682076
-0.000103838
-0.000623934
-0.000111729
-0.000561513
-0.000119895
-0.000494713
-0.000128368
-0.00042355
-0.000136945
-0.000348016
-0.000145704
-0.000268142
-0.000154582
-0.000184036
-0.000163444
-9.5821e-05
-0.00017227
-3.66587e-06
-0.000180947
9.21502e-05
-0.000189353
0.000191417
-0.000197425
0.000293848
-0.000205097
0.000399088
-0.000212162
0.000506847
-0.000218678
0.000616698
-0.000224343
0.000728434
-0.000229461
0.000841451
-0.000233274
0.000955979
-0.000237213
0.00107071
-0.000238366
0.00118738
-0.000242487
0.00130244
-0.000239218
0.00142158
-0.000246932
0.00153633
-0.000236726
0.00165913
-0.000252311
-0.000241781
-0.000912292
4.67706e-05
-0.000927249
4.81257e-05
-0.000941956
4.71007e-05
-0.000956183
4.53873e-05
-0.000969781
4.33074e-05
-0.00098267
4.10374e-05
-0.000994815
3.86885e-05
-0.0010062
3.63088e-05
-0.00101682
3.39162e-05
-0.00102666
3.15147e-05
-0.00103572
2.91007e-05
-0.001044
2.66654e-05
-0.00105149
2.41969e-05
-0.00105816
2.16806e-05
-0.00106399
1.90999e-05
-0.00106897
1.64379e-05
-0.00107305
1.36779e-05
-0.0010762
1.08064e-05
-0.00107838
7.81498e-06
-0.00107954
4.70519e-06
-0.00107965
1.45878e-06
-0.00107874
-1.75795e-06
-0.00107673
-5.04035e-06
-0.00107357
-8.54162e-06
-0.00106919
-1.2249e-05
-0.00106351
-1.61708e-05
-0.00105647
-2.03227e-05
-0.00104796
-2.47239e-05
-0.00103789
-2.93961e-05
-0.00102615
-3.43626e-05
-0.00101264
-3.96481e-05
-0.000997211
-4.52775e-05
-0.000979741
-5.12742e-05
-0.000960077
-5.76692e-05
-0.000938082
-6.44479e-05
-0.000913594
-7.16649e-05
-0.000886445
-7.9339e-05
-0.000856461
-8.74897e-05
-0.000823465
-9.61325e-05
-0.00078728
-0.000105279
-0.000747726
-0.000114937
-0.000704635
-0.000125098
-0.000657808
-0.000135827
-0.000607149
-0.000146905
-0.000552507
-0.000158479
-0.00049377
-0.000170467
-0.000430853
-0.000182812
-0.000363655
-0.000195566
-0.000292217
-0.000208383
-0.000216539
-0.000221381
-0.000136661
-0.00023446
-5.26959e-05
-0.000247409
3.52031e-05
-0.000260169
0.000126827
-0.000272571
0.000222001
-0.000284527
0.000320417
-0.000295842
0.000421812
-0.000306492
0.000525818
-0.000316168
0.000632169
-0.000325028
0.000740408
-0.000332583
0.000850387
-0.00033944
0.000961437
-0.000344324
0.0010739
-0.000349676
0.00118637
-0.000350834
0.00130069
-0.000356813
0.00141334
-0.000351867
0.0015298
-0.000363393
0.00164224
-0.000349166
0.00176183
-0.000371897
-0.000358868
-0.000776239
5.93605e-05
-0.000789463
6.13505e-05
-0.000802549
6.01862e-05
-0.000815309
5.8147e-05
-0.000827557
5.55562e-05
-0.000839183
5.26632e-05
-0.000850131
4.96363e-05
-0.000860371
4.65489e-05
-0.000869885
4.34301e-05
-0.000878659
4.02888e-05
-0.000886681
3.71222e-05
-0.000893936
3.39205e-05
-0.000900408
3.06691e-05
-0.000906077
2.73495e-05
-0.000910917
2.39402e-05
-0.000914897
2.04181e-05
-0.00091798
1.67602e-05
-0.000920119
1.29461e-05
-0.00092127
8.96613e-06
-0.000921401
4.83598e-06
-0.000920398
4.55445e-07
-0.00091846
-3.69614e-06
-0.000915375
-8.1251e-06
-0.000911102
-1.2815e-05
-0.000905577
-1.77731e-05
-0.000898731
-2.30174e-05
-0.000890482
-2.85715e-05
-0.000880743
-3.44629e-05
-0.000869418
-4.07213e-05
-0.000856402
-4.73788e-05
-0.000841581
-5.4469e-05
-0.000824832
-6.20265e-05
-0.000806024
-7.00822e-05
-0.000785004
-7.86893e-05
-0.000761647
-8.78044e-05
-0.000735798
-9.75137e-05
-0.000707296
-0.000107841
-0.000675976
-0.00011881
-0.00064167
-0.000130438
-0.000604212
-0.000142737
-0.000563437
-0.000155712
-0.000519193
-0.000169342
-0.000471273
-0.000183747
-0.000419618
-0.00019856
-0.000364087
-0.00021401
-0.000304586
-0.000229968
-0.000241051
-0.000246347
-0.000173374
-0.000263242
-0.000101626
-0.000280131
-2.58084e-05
-0.000297199
5.39369e-05
-0.000314206
0.000137545
-0.000331017
0.000224879
-0.000347503
0.000315718
-0.00036341
0.000409846
-0.000378655
0.000506954
-0.000392949
0.000606786
-0.000406324
0.000708959
-0.000418341
0.000813236
-0.000429305
0.000919126
-0.000438472
0.00102656
-0.000446873
0.00113478
-0.000452547
0.00124429
-0.00045918
0.00135354
-0.000460083
0.00146453
-0.000467805
0.00157376
-0.000461097
0.00168643
-0.000476067
0.00179559
-0.000458323
0.00191066
-0.00048697
-0.00047235
-0.000596221
7.01276e-05
-0.000607318
7.24475e-05
-0.000618386
7.12543e-05
-0.000629325
6.90854e-05
-0.000639912
6.6143e-05
-0.000650004
6.27558e-05
-0.00065952
5.91525e-05
-0.000668408
5.54369e-05
-0.000676633
5.16545e-05
-0.000684166
4.7822e-05
-0.000690984
4.39402e-05
-0.000697063
4e-05
-0.00070238
3.59858e-05
-0.000706907
3.18763e-05
-0.000710613
2.7646e-05
-0.00071346
2.32653e-05
-0.000715403
1.8703e-05
-0.000716386
1.3929e-05
-0.000716349
8.92943e-06
-0.000715238
3.72528e-06
-0.000713171
-1.61196e-06
-0.000709998
-6.86928e-06
-0.00070566
-1.24627e-05
-0.000700104
-1.83711e-05
-0.000693264
-2.46132e-05
-0.000685067
-3.12141e-05
-0.000675434
-3.82051e-05
-0.000664276
-4.56208e-05
-0.000651499
-5.34984e-05
-0.000637
-6.18775e-05
-0.000620669
-7.07998e-05
-0.000602388
-8.03078e-05
-0.000582031
-9.04391e-05
-0.000559437
-0.000101283
-0.000534501
-0.000112741
-0.000507074
-0.00012494
-0.000477006
-0.00013791
-0.000444141
-0.000151675
-0.000408325
-0.000166255
-0.000369405
-0.000181656
-0.000327238
-0.000197879
-0.000281687
-0.000214893
-0.000232539
-0.000232895
-0.000179771
-0.000251328
-0.000123261
-0.00027052
-6.29142e-05
-0.000290315
1.41845e-06
-0.00031068
6.93275e-05
-0.000331151
0.00014123
-0.000352033
0.000216963
-0.000372933
0.000296442
-0.000393685
0.000379512
-0.000414088
0.00046601
-0.000434
0.000555705
-0.000453105
0.000648382
-0.000471333
0.00074372
-0.000488287
0.000841475
-0.000504079
0.000941243
-0.000518109
0.00104283
-0.000530892
0.0011457
-0.00054134
0.00124988
-0.000551056
0.00135452
-0.000557186
0.00146029
-0.000564945
0.0015655
-0.000565298
0.00167231
-0.000574611
0.00177728
-0.000566067
0.00188522
-0.000584013
0.00199026
-0.000563357
0.0020998
-0.000596513
-0.000581265
-0.000372421
7.9319e-05
-0.000381115
8.11416e-05
-0.00039002
8.01598e-05
-0.000398971
7.80359e-05
-0.000407751
7.49233e-05
-0.00041621
7.12147e-05
-0.00042423
6.71724e-05
-0.000431729
6.29354e-05
-0.000438647
5.8573e-05
-0.000444939
5.41138e-05
-0.000450564
4.95653e-05
-0.000455486
4.49222e-05
-0.00045967
4.01702e-05
-0.000463081
3.52873e-05
-0.00046568
3.02449e-05
-0.000467423
2.5008e-05
-0.000468256
1.95363e-05
-0.000468116
1.37885e-05
-0.000466936
7.74992e-06
-0.000464606
1.39471e-06
-0.000461421
-4.79644e-06
-0.000457049
-1.12419e-05
-0.000451474
-1.80376e-05
-0.000444639
-2.52058e-05
-0.00043648
-3.27723e-05
-0.000426924
-4.07705e-05
-0.00041589
-4.92391e-05
-0.000403291
-5.82192e-05
-0.000389035
-6.77545e-05
-0.000373021
-7.78913e-05
-0.000355144
-8.86773e-05
-0.000335291
-0.000100161
-0.000313341
-0.000112389
-0.000289131
-0.000125492
-0.000262568
-0.000139304
-0.000233518
-0.00015399
-0.000201839
-0.000169589
-0.000167387
-0.000186127
-0.00013002
-0.000203621
-8.95959e-05
-0.00022208
-4.5971e-05
-0.000241504
1.0862e-06
-0.00026195
5.11809e-05
-0.00028299
0.000104921
-0.000305068
0.000162268
-0.000327868
0.000223256
-0.000351302
0.000287887
-0.000375311
0.000356231
-0.000399495
0.000428179
-0.000423981
0.000503659
-0.000448412
0.00058258
-0.000472606
0.000664775
-0.000496283
0.000750072
-0.000519297
0.000838223
-0.000541256
0.000929012
-0.000562122
0.0010221
-0.000581379
0.00111727
-0.000599249
0.00121409
-0.000614927
0.00131242
-0.000629222
0.00141167
-0.000640585
0.00151198
-0.000651371
0.0016124
-0.0006576
0.00171376
-0.000666311
0.00181428
-0.000665817
0.0019162
-0.000676529
0.00201625
-0.000666118
0.00211873
-0.000686489
0.00221896
-0.000663588
0.00232225
-0.000699799
-0.00068483
-0.000102293
8.36303e-05
-0.000109691
8.85393e-05
-0.000117001
8.74701e-05
-0.000124149
8.51836e-05
-0.000131293
8.20672e-05
-0.000138309
7.82309e-05
-0.000145036
7.38992e-05
-0.000151359
6.92591e-05
-0.000157197
6.44108e-05
-0.000162481
5.93974e-05
-0.000167151
5.42355e-05
-0.000171156
4.89271e-05
-0.000174448
4.3462e-05
-0.000176981
3.78201e-05
-0.000178708
3.1972e-05
-0.000179578
2.58784e-05
-0.00017953
1.94884e-05
-0.000178481
1.27393e-05
-0.000176312
5.58132e-06
-0.000173143
-1.7743e-06
-0.000168962
-8.97727e-06
-0.000163582
-1.66223e-05
-0.000156956
-2.46639e-05
-0.000149025
-3.31365e-05
-0.000139724
-4.20735e-05
-0.000128978
-5.15163e-05
-0.000116707
-6.15104e-05
-0.000102823
-7.21031e-05
-8.72333e-05
-8.33442e-05
-6.98381e-05
-9.52864e-05
-5.05305e-05
-0.000107985
-2.91963e-05
-0.000121495
-5.68586e-06
-0.0001359
1.99008e-05
-0.000151079
4.78627e-05
-0.000167266
7.83333e-05
-0.000184461
0.000111431
-0.000202687
0.000147274
-0.000221971
0.000185984
-0.000242331
0.000227676
-0.000263772
0.000272452
-0.00028628
0.000320392
-0.00030989
0.000371681
-0.000334279
0.000426305
-0.000359692
0.000484326
-0.000385888
0.000545771
-0.000412748
0.000610629
-0.000440168
0.000678922
-0.000467788
0.000750546
-0.000495605
0.000825402
-0.000523269
0.000903377
-0.000550581
0.000984286
-0.000577191
0.00106795
-0.000602958
0.0011541
-0.000627405
0.00124252
-0.000650547
0.00133287
-0.000671728
0.00142495
-0.000691325
0.00151829
-0.000708272
0.00161283
-0.000723766
0.00170792
-0.000735673
0.00180383
-0.000747281
0.00189949
-0.000753259
0.00199592
-0.000762737
0.00209123
-0.000761133
0.00218772
-0.000773013
0.00228237
-0.000760768
0.00237883
-0.000782955
0.00247375
-0.000758503
0.00257034
-0.000796389
-0.000782459
0.000215865
8.86564e-05
0.000209026
9.53783e-05
0.000202567
9.39298e-05
0.000196398
9.1352e-05
0.000190191
8.82742e-05
0.00018399
8.44323e-05
0.000177962
7.99269e-05
0.000172241
7.49799e-05
0.000166928
6.97242e-05
0.000162109
6.42166e-05
0.000157861
5.84836e-05
0.000154252
5.25361e-05
0.000151343
4.63711e-05
0.00014919
3.99727e-05
0.000147849
3.33129e-05
0.000147378
2.63496e-05
0.000147846
1.90206e-05
0.000149345
1.12401e-05
0.00015203
2.89608e-06
0.000155573
-5.3173e-06
0.000160341
-1.37449e-05
0.000166331
-2.2613e-05
0.00017361
-3.19426e-05
0.000182241
-4.17672e-05
0.000192292
-5.21247e-05
0.000203839
-6.30631e-05
0.000216962
-7.46339e-05
0.000231748
-8.68889e-05
0.000248286
-9.98821e-05
0.00026667
-0.00011367
0.000286997
-0.000128312
0.000309366
-0.000143864
0.000333875
-0.000160409
0.000360677
-0.000177882
0.000389859
-0.000196447
0.000421521
-0.000216123
0.000455776
-0.000236942
0.000492734
-0.000258929
0.0005325
-0.000282097
0.000575171
-0.000306443
0.000620833
-0.000331942
0.000669542
-0.0003586
0.000721437
-0.000386173
0.000776502
-0.000414758
0.000834775
-0.000444161
0.000896253
-0.000474225
0.0009609
-0.000504815
0.0010287
-0.000535586
0.00109954
-0.000566444
0.00117329
-0.000597026
0.00124983
-0.00062712
0.00132895
-0.000656312
0.00141047
-0.000684472
0.0014941
-0.000711035
0.00157964
-0.000736087
0.00166672
-0.000758813
0.00175519
-0.000779791
0.00184455
-0.000797636
0.00193482
-0.000814028
0.00202527
-0.000826126
0.00211631
-0.000838321
0.00220678
-0.000843735
0.00229784
-0.000853791
0.00238759
-0.000850883
0.00247824
-0.000863661
0.00256717
-0.000849701
0.00265728
-0.000873069
0.00274653
-0.00084775
0.00283624
-0.000886095
-0.000873775
0.000588049
0.000579716
0.000103711
0.000572273
0.000101373
0.00056542
9.82044e-05
0.000558699
9.49954e-05
0.000552044
9.10869e-05
0.000545569
8.6402e-05
0.000539389
8.11602e-05
0.000533601
7.55124e-05
0.000528296
6.95211e-05
0.000523562
6.32181e-05
0.000519475
5.66225e-05
0.000516107
4.97391e-05
0.000513522
4.2558e-05
0.00051178
3.5055e-05
0.000510939
2.71902e-05
0.000511061
1.8899e-05
0.000512226
1.00754e-05
0.000514801
3.21091e-07
0.000518185
-8.7013e-06
0.000522838
-1.83981e-05
0.000528792
-2.85675e-05
0.000536107
-3.92569e-05
0.000544843
-5.05031e-05
0.000555067
-6.23491e-05
0.000566854
-7.485e-05
0.000580284
-8.80635e-05
0.00059544
-0.000102045
0.000612409
-0.000116852
0.000631282
-0.000132543
0.000652149
-0.000149179
0.000675105
-0.00016682
0.000700235
-0.000185539
0.000727676
-0.000205323
0.000757506
-0.000226276
0.000789818
-0.000248435
0.000824707
-0.000271831
0.000862264
-0.000296486
0.000902572
-0.000322406
0.000945709
-0.00034958
0.000991738
-0.000377971
0.0010407
-0.000407557
0.00109267
-0.000438148
0.00114764
-0.000469732
0.00120562
-0.000502141
0.00126658
-0.000535182
0.00133046
-0.00056869
0.00139719
-0.000602322
0.00146667
-0.000635923
0.00153875
-0.000669101
0.00161327
-0.000701642
0.00169002
-0.000733062
0.00176881
-0.000763262
0.00184935
-0.000791574
0.00193145
-0.000818186
0.00201473
-0.000842094
0.00209907
-0.000864131
0.00218396
-0.000882528
0.00226948
-0.000899547
0.00235487
-0.000911523
0.00244065
-0.000924093
0.00252561
-0.000928694
0.00261096
-0.000939143
0.0026949
-0.000934826
0.00277945
-0.000948213
0.0028625
-0.000932747
0.0029461
-0.000956669
0.00302948
-0.000931135
0.00311233
-0.000968946
-0.000958609
0.0010071
0.000116201
0.000996019
0.000112458
0.000986062
0.000108161
0.000976662
0.000104396
0.0009676
0.000100148
0.000958906
9.50966e-05
0.000950643
8.9423e-05
0.000942877
8.32783e-05
0.000935683
7.67156e-05
0.000929139
6.9762e-05
0.000923322
6.24396e-05
0.000918303
5.47582e-05
0.000914148
4.67123e-05
0.000910922
3.82809e-05
0.000908688
2.94248e-05
0.000907514
2.00728e-05
0.000907499
1.00905e-05
0.000908594
-7.74173e-07
0.000910997
-1.11039e-05
0.000914722
-2.21231e-05
0.000919826
-3.36719e-05
0.000926374
-4.58044e-05
0.000934428
-5.85576e-05
0.000944056
-7.1977e-05
0.000955331
-8.61244e-05
0.000968331
-0.000101064
0.000983138
-0.000116852
0.000999834
-0.000133548
0.0010185
-0.000151212
0.00103923
-0.000169907
0.0010621
-0.000189691
0.0010872
-0.000210633
0.00111462
-0.000232748
0.00114445
-0.000256108
0.00117677
-0.000280753
0.00121165
-0.000306711
0.00124916
-0.000333999
0.00128937
-0.000362614
0.00133233
-0.000392537
0.00137808
-0.000423719
0.00142663
-0.000456111
0.00147803
-0.00048955
0.00153226
-0.000523957
0.00158928
-0.000559163
0.00164905
-0.000594947
0.00171148
-0.00063112
0.00177648
-0.000667327
0.00184393
-0.000703372
0.00191366
-0.000738829
0.00198551
-0.000773489
0.00205924
-0.000806797
0.00213468
-0.000838701
0.00221152
-0.000868418
0.0022896
-0.000896266
0.00236854
-0.000921027
0.00244824
-0.000943836
0.0025282
-0.000962486
0.00260856
-0.000979901
0.00268854
-0.000991506
0.00276872
-0.00100427
0.00284792
-0.0010079
0.00292734
-0.00101856
0.00300536
-0.00101284
0.00308369
-0.00102654
0.00316081
-0.00100987
0.00323791
-0.00103377
0.00331538
-0.00100861
0.00339158
-0.00104514
-0.00103699
0.00149393
0.000135647
0.00147627
0.000130123
0.00146031
0.000124123
0.00144548
0.00011922
0.00143148
0.000114148
0.00141824
0.000108339
0.00140575
0.000101916
0.00139402
9.50097e-05
0.00138308
8.76497e-05
0.001373
7.98458e-05
0.00136382
7.16146e-05
0.00135562
6.29653e-05
0.00134844
5.38939e-05
0.00134233
4.43825e-05
0.00133736
3.43973e-05
0.00133356
2.38775e-05
0.00133095
1.26949e-05
0.00132991
2.64963e-07
0.00133014
-1.13295e-05
0.00133181
-2.37982e-05
0.00133501
-3.6872e-05
0.00133979
-5.05827e-05
0.0013462
-6.49693e-05
0.00135431
-8.00801e-05
0.00136417
-9.59861e-05
0.00137586
-0.000112759
0.00138947
-0.000130457
0.00140506
-0.000149137
0.00142271
-0.000168862
0.0014425
-0.000189694
0.0014645
-0.00021169
0.00148878
-0.000234913
0.00151542
-0.000259393
0.0015445
-0.000285184
0.00157607
-0.000312322
0.00161019
-0.000340831
0.00164691
-0.000370718
0.00168627
-0.000401974
0.00172829
-0.000434566
0.00177301
-0.000468434
0.0018204
-0.000503506
0.00187048
-0.000539629
0.0019232
-0.000576676
0.00197851
-0.000614473
0.00203633
-0.000652768
0.00209657
-0.000691355
0.0021591
-0.000729857
0.00222379
-0.00076806
0.00229045
-0.000805492
0.00235892
-0.000841962
0.00242897
-0.000876843
0.00250041
-0.000910144
0.00257295
-0.000940958
0.00264645
-0.000969761
0.00272051
-0.000995092
0.00279511
-0.00101844
0.00286973
-0.0010371
0.00294456
-0.00105473
0.00301885
-0.0010658
0.0030932
-0.00107862
0.0031665
-0.0010812
0.00323988
-0.00109194
0.00331196
-0.00108492
0.00338408
-0.00109867
0.00345536
-0.00108114
0.00352612
-0.00110454
0.00359779
-0.00108028
0.00366768
-0.00111503
-0.00110913
0.00203845
0.00201128
0.000157295
0.00198633
0.000149067
0.00196317
0.000142382
0.00194147
0.000135849
0.00192109
0.000128723
0.00190194
0.000121066
0.00188397
0.000112975
0.00186718
0.000104443
0.00185157
9.54551e-05
0.00183717
8.60127e-05
0.00182402
7.61173e-05
0.00181215
6.57603e-05
0.00180161
5.49218e-05
0.00179244
4.35668e-05
0.00178469
3.1634e-05
0.00177837
1.90078e-05
0.00177327
5.37143e-06
0.0017702
-8.26371e-06
0.00176869
-2.22841e-05
0.00176888
-3.7067e-05
0.00177082
-5.25241e-05
0.00177455
-6.87013e-05
0.00178013
-8.56513e-05
0.0017876
-0.000103457
0.00179704
-0.0001222
0.00180852
-0.000141935
0.0018221
-0.000162719
0.00183785
-0.000184612
0.00185583
-0.000207677
0.00187611
-0.000231967
0.00189873
-0.00025754
0.00192377
-0.000284431
0.00195127
-0.000312683
0.00198127
-0.000342326
0.00201382
-0.000373376
0.00204893
-0.000405831
0.00208663
-0.000439671
0.00212692
-0.000474852
0.00216978
-0.000511302
0.0022152
-0.000548925
0.00226315
-0.000587574
0.00231355
-0.000627081
0.00236634
-0.000667263
0.00242142
-0.000707845
0.00247867
-0.000748604
0.00253795
-0.000789141
0.00259912
-0.000829231
0.00266199
-0.00086836
0.00272639
-0.000906364
0.00279209
-0.000942538
0.00285891
-0.000976972
0.00292658
-0.00100862
0.00299497
-0.00103815
0.00306371
-0.00106383
0.00313281
-0.00108754
0.00320176
-0.00110605
0.00327081
-0.00112378
0.00333923
-0.00113422
0.00340762
-0.00114702
0.00347501
-0.00114859
0.00354235
-0.00115928
0.00360861
-0.00115117
0.00367468
-0.00116474
0.00374032
-0.00114678
0.00380507
-0.00116929
0.00387117
-0.00114638
0.00393522
-0.00117909
-0.00117541
0.00259155
0.00255522
0.000185397
0.00252128
0.000176324
0.00248948
0.000167647
0.00245964
0.000158568
0.0024316
0.000149103
0.00240528
0.0001393
0.00238061
0.000129113
0.00235756
0.0001185
0.00233613
0.000107443
0.00231632
9.59282e-05
0.00229814
8.39386e-05
0.00228161
7.14493e-05
0.00226675
5.84262e-05
0.00225357
4.48176e-05
0.00224203
3.05503e-05
0.002232
1.54001e-05
0.0022246
-8.64304e-07
0.00221862
-1.63054e-05
0.00221461
-3.30574e-05
0.0022126
-5.05142e-05
0.00221261
-6.8708e-05
0.00221465
-8.76916e-05
0.00221877
-0.000107574
0.00222502
-0.000128451
0.00223346
-0.000150378
0.00224415
-0.000173405
0.00225713
-0.000197592
0.00227245
-0.000222999
0.00229016
-0.000249677
0.0023103
-0.000277677
0.0023329
-0.000307034
0.002358
-0.000337783
0.00238562
-0.000369944
0.00241577
-0.000403526
0.00244845
-0.000438516
0.00248367
-0.000474885
0.00252139
-0.000512573
0.00256158
-0.000551498
0.0026042
-0.000591545
0.00264919
-0.000632562
0.00269646
-0.000674353
0.00274593
-0.000716727
0.00279747
-0.000759383
0.00285095
-0.000802091
0.00290624
-0.000844425
0.00296317
-0.000886164
0.00302156
-0.000926746
0.00308124
-0.000966047
0.00314198
-0.00100328
0.00320365
-0.00103864
0.00326596
-0.00107093
0.00332883
-0.00110102
0.0033919
-0.0011269
0.00345521
-0.00115085
0.00351831
-0.00116915
0.00358144
-0.00118691
0.00364396
-0.00119674
0.00370642
-0.00120947
0.003768
-0.00121018
0.00382948
-0.00122076
0.00389016
-0.00121185
0.00395048
-0.00122506
0.00401081
-0.00120711
0.00407001
-0.00122849
0.00413093
-0.00120729
0.00418972
-0.00123788
-0.00123635
0.00314822
0.000234093
0.00310235
0.000222195
0.00305918
0.000210809
0.00301853
0.000199224
0.00298022
0.000187413
0.00294415
0.000175371
0.00291023
0.000163028
0.00287841
0.00015032
0.00284865
0.000137208
0.00282092
0.00012366
0.00279521
0.000109646
0.00277152
9.51339e-05
0.00274987
8.00852e-05
0.00273024
6.44458e-05
0.00271263
4.8155e-05
0.00269697
3.10619e-05
0.00268302
1.30838e-05
0.00267222
-5.50326e-06
0.00266318
-2.4013e-05
0.00265635
-4.36852e-05
0.00265179
-6.41488e-05
0.00264948
-8.53801e-05
0.00264943
-0.000107532
0.00265171
-0.000130725
0.00265634
-0.000155011
0.00266337
-0.00018043
0.00267282
-0.000207045
0.00268473
-0.00023491
0.00269912
-0.000264072
0.00271602
-0.000294575
0.00273544
-0.000326452
0.00275738
-0.000359728
0.00278186
-0.000394417
0.00280885
-0.000430516
0.00283834
-0.000468004
0.00287029
-0.000506839
0.00290467
-0.000546951
0.00294141
-0.000588245
0.00298046
-0.000630588
0.00302172
-0.000673823
0.0030651
-0.000717733
0.00311049
-0.000762119
0.00315776
-0.000806655
0.00320678
-0.000851112
0.0032574
-0.00089504
0.00330946
-0.000938226
0.00336278
-0.000980066
0.00341721
-0.00102048
0.00347254
-0.00105861
0.00352864
-0.00109474
0.00358526
-0.00112755
0.00364234
-0.00115809
0.00369955
-0.00118412
0.00375698
-0.00120828
0.00381419
-0.00122636
0.00387145
-0.00124416
0.0039282
-0.00125349
0.00398491
-0.00126618
0.00404097
-0.00126624
0.0040969
-0.00127669
0.0041524
-0.00126735
0.00420744
-0.00128011
0.00426294
-0.0012626
0.00431717
-0.00128273
0.00437342
-0.00126354
0.00442763
-0.00129209
-0.00129262
0.0037361
0.00367915
0.000279145
0.00362518
0.000264785
0.00357401
0.00025039
0.00352554
0.000235883
0.00347969
0.000221219
0.00343639
0.00020633
0.00339557
0.000191144
0.00335718
0.000175599
0.00332119
0.00015965
0.00328758
0.000143257
0.00325633
0.000126379
0.00322744
0.000108974
0.0032009
9.09879e-05
0.00317669
7.23671e-05
0.00315474
5.30129e-05
0.00313501
3.28064e-05
0.00311782
1.1694e-05
0.00310356
-9.75953e-06
0.00309144
-3.15662e-05
0.0030818
-5.45094e-05
0.00307463
-7.82063e-05
0.00306992
-0.000102826
0.00306771
-0.000128514
0.00306802
-0.000155315
0.00307086
-0.000183268
0.00307624
-0.00021243
0.00308419
-0.000242855
0.0030947
-0.000274583
0.00310777
-0.000307649
0.0031234
-0.000342084
0.00314158
-0.000377904
0.00316228
-0.000415114
0.00318546
-0.000453703
0.0032111
-0.000493639
0.00323913
-0.000534871
0.0032695
-0.000577315
0.00330212
-0.00062087
0.00333692
-0.000665384
0.00337379
-0.000710699
0.00341264
-0.000756576
0.00345333
-0.000802814
0.00349574
-0.000849067
0.00353974
-0.000895111
0.00358517
-0.000940468
0.00363189
-0.00098495
0.00367974
-0.00102791
0.00372857
-0.00106932
0.0037782
-0.00110824
0.00382852
-0.00114507
0.00387931
-0.00117834
0.00393054
-0.00120933
0.00398193
-0.00123551
0.00403356
-0.00125991
0.00408507
-0.00127787
0.0041367
-0.00129579
0.00418801
-0.0013048
0.00423935
-0.00131753
0.00429034
-0.00131722
0.00434124
-0.00132759
0.00439209
-0.0013182
0.00444247
-0.0013305
0.00449373
-0.00131386
0.00454372
-0.00133272
0.00459596
-0.00131578
0.00464634
-0.00134247
-0.00134499
0.00421737
0.000344094
0.00415524
0.000326912
0.00409586
0.000309771
0.00403922
0.000292519
0.00398532
0.00027512
0.00393412
0.000257533
0.00388558
0.000239685
0.00383967
0.000221506
0.00379638
0.000202944
0.00375568
0.000183952
0.00371758
0.000164485
0.00368205
0.000144497
0.00364911
0.000123936
0.00361872
0.000102749
0.00359087
8.08666e-05
0.00356547
5.82012e-05
0.00354247
3.47014e-05
0.00352262
1.00834e-05
0.00350556
-1.45026e-05
0.00349093
-3.98773e-05
0.00347889
-6.61662e-05
0.00346946
-9.33933e-05
0.00346264
-0.000121701
0.00345846
-0.000151132
0.00345691
-0.000181714
0.00345798
-0.000213507
0.00346168
-0.000246556
0.00346799
-0.000280893
0.00347689
-0.000316549
0.00348836
-0.000353547
0.00350235
-0.000391898
0.00351883
-0.000431596
0.00353775
-0.000472625
0.00355906
-0.000514942
0.00358267
-0.000558488
0.00360853
-0.000603168
0.00363653
-0.000648873
0.00366659
-0.000695441
0.0036986
-0.000742709
0.00373244
-0.000790424
0.00376801
-0.000838383
0.00380517
-0.000886227
0.0038438
-0.000933737
0.00388375
-0.000980415
0.0039249
-0.0010261
0.00396709
-0.0010701
0.00401022
-0.00111245
0.00405411
-0.00115213
0.00409869
-0.00118966
0.00414378
-0.00122342
0.00418935
-0.0012549
0.00423518
-0.00128133
0.00428135
-0.00130608
0.00432757
-0.0013241
0.00437404
-0.00134226
0.00442043
-0.00135119
0.00446699
-0.00136409
0.00451352
-0.00136376
0.00456006
-0.00137413
0.00460695
-0.00136509
0.00465343
-0.00137698
0.00470117
-0.00136159
0.00474774
-0.00137929
0.00479672
-0.00136476
0.00484412
-0.00138987
-0.00139428
0.00468158
0.00461579
0.000392704
0.00455233
0.000373227
0.00449132
0.000353523
0.00443283
0.00033361
0.00437688
0.000313486
0.00432348
0.000293083
0.00427266
0.000272334
0.00422441
0.000251191
0.00417875
0.000229607
0.0041357
0.000207534
0.00409527
0.000184929
0.00405747
0.000161742
0.00402229
0.000137924
0.00398974
0.000113417
0.00395979
8.81508e-05
0.00393243
6.20658e-05
0.00390741
3.51009e-05
0.0038861
6.80544e-06
0.0038671
-2.08767e-05
0.00385061
-4.96744e-05
0.00383684
-7.96205e-05
0.00382576
-0.00011062
0.00381734
-0.000142714
0.00381157
-0.000175943
0.00380843
-0.000210372
0.00380792
-0.000246041
0.00381
-0.000282971
0.00381463
-0.000321188
0.00382179
-0.000360706
0.00383143
-0.000401532
0.00384349
-0.000443653
0.0038579
-0.000487044
0.00387462
-0.000531654
0.00389355
-0.000577419
0.00391461
-0.000624234
0.00393773
-0.000671986
0.00396279
-0.000720502
0.0039897
-0.000769618
0.00401834
-0.000819071
0.00404862
-0.00086866
0.0040804
-0.000918012
0.00411359
-0.000966922
0.00414804
-0.00101487
0.00418366
-0.00106172
0.00422032
-0.00110675
0.00425793
-0.00115005
0.00429634
-0.00119054
0.00433552
-0.00122883
0.00437529
-0.00126319
0.00441567
-0.00129528
0.00445647
-0.00132213
0.00449776
-0.00134737
0.00453933
-0.00136566
0.00458131
-0.00138424
0.00462352
-0.0013934
0.00466605
-0.00140662
0.00470892
-0.00140662
0.00475191
-0.00141713
0.00479566
-0.00140884
0.00483911
-0.00142043
0.00488415
-0.00140662
0.0049282
-0.00142334
0.00497477
-0.00141133
0.00502006
-0.00143517
-0.00144141
0.00497975
0.00491746
0.000435517
0.00485701
0.000413972
0.00479852
0.000392096
0.0047421
0.000369912
0.00468781
0.000347369
0.00463573
0.000324417
0.0045859
0.000301015
0.00453839
0.00027712
0.00449324
0.000252688
0.00445049
0.000227679
0.00441018
0.00020205
0.00437234
0.000175758
0.00433701
0.000148754
0.00430417
0.00012099
0.00427382
9.24109e-05
0.00424591
6.3013e-05
0.00422008
3.2632e-05
0.0041991
1.05916e-07
0.00417922
-2.97921e-05
0.00416183
-6.22287e-05
0.00414706
-9.5851e-05
0.00413492
-0.000130571
0.00412537
-0.000166394
0.00411839
-0.000203393
0.00411395
-0.000241606
0.00411203
-0.000281046
0.00411257
-0.000321733
0.00411555
-0.00036368
0.0041209
-0.000406883
0.00412857
-0.000451325
0.0041385
-0.000496976
0.00415062
-0.000543778
0.00416487
-0.000591661
0.00418115
-0.000640514
0.00419938
-0.000690222
0.00421948
-0.000740602
0.00424136
-0.000791493
0.00426491
-0.000842622
0.00429004
-0.000893794
0.00431666
-0.000944623
0.00434466
-0.000994922
0.00437393
-0.00104415
0.00440441
-0.0010922
0.00443598
-0.00113831
0.00446857