/*--------------------------------*- C++ -*----------------------------------*\
  =========                 |
  \\      /  F ield         | OpenFOAM: The Open Source CFD Toolbox
   \\    /   O peration     | Website:  https://openfoam.org
    \\  /    A nd           | Version:  7
     \\/     M anipulation  |
\*---------------------------------------------------------------------------*/
FoamFile
{
    version     2.0;
    format      ascii;
    class       volVectorField;
    location    "48.000792";
    object      U;
}
// * * * * * * * * * * * * * * * * * * * * * * * * * * * * * * * * * * * * * //

dimensions      [0 1 -1 0 0 0 0];

internalField   nonuniform List<vector> 
5800
(
(-0.173143 0.00149558 -4.64078e-22)
(-0.166445 0.00430723 -1.41528e-20)
(-0.152995 0.00678783 2.11544e-20)
(-0.132636 0.00874485 6.9575e-21)
(-0.105047 0.0100582 -1.77572e-20)
(-0.176872 0.00177737 2.7511e-21)
(-0.179876 0.00177479 2.62861e-21)
(-0.182848 0.00169811 -4.89091e-21)
(-0.185714 0.00160262 2.35379e-21)
(-0.188466 0.00150081 -1.3862e-21)
(-0.191095 0.00139781 -4.94647e-22)
(-0.193593 0.00129631 2.8068e-21)
(-0.195961 0.00119731 -4.1136e-21)
(-0.198198 0.00110105 1.79887e-21)
(-0.200305 0.00100745 1.71221e-21)
(-0.202281 0.000916229 -3.58184e-21)
(-0.204126 0.000827009 -1.02065e-22)
(-0.20584 0.000739372 2.96643e-21)
(-0.20742 0.000652887 -2.29192e-22)
(-0.208865 0.000567145 -1.27786e-21)
(-0.21017 0.000481803 1.12692e-21)
(-0.211332 0.000396631 -5.4951e-22)
(-0.212344 0.000311558 7.51175e-22)
(-0.213202 0.000226695 -5.58751e-22)
(-0.213897 0.000142321 -3.8643e-22)
(-0.214421 5.90175e-05 1.68217e-21)
(-0.21477 -2.21421e-05 -4.8686e-22)
(-0.214945 -0.000101973 -1.14372e-21)
(-0.214937 -0.000184792 7.63381e-22)
(-0.214735 -0.000268676 2.582e-22)
(-0.214324 -0.000352488 -9.68207e-22)
(-0.213691 -0.000436015 1.13633e-21)
(-0.212821 -0.000519209 -9.40512e-22)
(-0.211696 -0.000602016 -6.78967e-22)
(-0.210297 -0.000684367 1.95043e-21)
(-0.208603 -0.000766186 -1.37209e-21)
(-0.206592 -0.000847392 -2.50623e-22)
(-0.20424 -0.000927911 2.81114e-22)
(-0.201518 -0.00100773 4.65143e-24)
(-0.198401 -0.00108661 7.6788e-22)
(-0.194858 -0.00116488 -1.02743e-21)
(-0.190856 -0.00124273 8.6476e-22)
(-0.186363 -0.00132046 -1.00208e-23)
(-0.181342 -0.00139835 -5.64245e-23)
(-0.175759 -0.00147698 -1.0223e-22)
(-0.169577 -0.00155691 6.28132e-22)
(-0.162758 -0.00163877 -1.65937e-23)
(-0.155264 -0.001724 -2.61197e-22)
(-0.147065 -0.0018112 -1.22226e-22)
(-0.138129 -0.00190327 6.95185e-23)
(-0.128425 -0.00200048 -3.65401e-22)
(-0.117928 -0.00210355 4.606e-22)
(-0.106613 -0.00221415 -1.19156e-22)
(-0.0944652 -0.00232966 2.51427e-22)
(-0.0814817 -0.00245244 -8.20776e-23)
(-0.067653 -0.00258201 7.80464e-24)
(-0.0529872 -0.00271622 3.24029e-23)
(-0.0374964 -0.00285487 -1.45048e-22)
(-0.0212037 -0.00299506 1.62702e-22)
(-0.0041336 -0.00313651 -1.39423e-22)
(0.0136758 -0.00327249 1.22559e-23)
(0.0321774 -0.00340312 8.38903e-23)
(0.0513334 -0.00352301 -3.66809e-24)
(0.0710613 -0.00362992 -3.14563e-23)
(0.0913793 -0.00371834 -1.57428e-23)
(0.11205 -0.00378828 -7.21044e-24)
(0.133418 -0.00383021 1.77608e-23)
(0.154574 -0.00385765 -1.39751e-23)
(0.17721 -0.00383532 -8.74886e-24)
(0.197878 -0.00383384 2.59215e-24)
(0.222955 -0.00371892 -6.18993e-24)
(0.24087 -0.00373604 1.43146e-24)
(0.271701 -0.0034872 2.94019e-25)
(0.282101 -0.00359437 1.34411e-25)
(0.325727 -0.00326092 -5.96831e-25)
(-0.169591 0.00518258 -1.02863e-21)
(-0.172527 0.00518542 -1.83536e-21)
(-0.175396 0.00496584 -1.75193e-21)
(-0.178147 0.00468937 2.53175e-22)
(-0.180794 0.00439308 -1.26583e-21)
(-0.183322 0.00409322 1.02319e-20)
(-0.185724 0.00379852 -7.45741e-21)
(-0.187997 0.00351237 5.57303e-21)
(-0.190142 0.00323572 -4.22943e-21)
(-0.192159 0.00296845 -2.86565e-21)
(-0.194046 0.00270984 2.95341e-21)
(-0.195803 0.00245887 2.97336e-21)
(-0.19743 0.00221435 -6.58612e-21)
(-0.198924 0.001975 1.51565e-21)
(-0.200283 0.00173958 -2.78169e-21)
(-0.201502 0.00150694 2.87046e-21)
(-0.202576 0.00127619 -7.12342e-22)
(-0.203501 0.00104687 5.47246e-21)
(-0.204269 0.000819036 -2.25462e-21)
(-0.204873 0.000593239 8.16574e-22)
(-0.205306 0.000370035 1.30385e-21)
(-0.205563 0.000148791 -3.94419e-21)
(-0.205642 -7.68577e-05 4.92457e-22)
(-0.205538 -0.000305447 -6.38652e-22)
(-0.205236 -0.000536746 -1.2155e-23)
(-0.204724 -0.000771036 4.78443e-22)
(-0.203988 -0.00100878 2.00828e-21)
(-0.203011 -0.00125051 -6.8301e-22)
(-0.201776 -0.00149682 -1.56158e-21)
(-0.200266 -0.00174829 2.96398e-21)
(-0.198459 -0.00200549 -5.00438e-21)
(-0.196332 -0.00226891 1.23509e-21)
(-0.193862 -0.00253894 4.32525e-21)
(-0.191021 -0.00281606 -2.8934e-21)
(-0.187782 -0.00309941 -1.18454e-21)
(-0.184116 -0.00339048 1.7989e-21)
(-0.179991 -0.00368942 -3.05111e-21)
(-0.175373 -0.00399646 4.36978e-21)
(-0.17023 -0.00431174 -1.85252e-21)
(-0.164524 -0.00463524 -5.44629e-22)
(-0.15822 -0.00496689 4.08084e-22)
(-0.151284 -0.00530613 -1.12911e-23)
(-0.143674 -0.00565451 2.1087e-22)
(-0.135363 -0.00600467 -7.67167e-23)
(-0.126322 -0.00636177 5.06333e-22)
(-0.116518 -0.00672297 -3.02706e-22)
(-0.10593 -0.00708658 5.51662e-22)
(-0.0945306 -0.0074539 -7.59496e-22)
(-0.0823096 -0.00781407 -1.7554e-22)
(-0.0692647 -0.00817134 -2.69415e-22)
(-0.055387 -0.00852242 7.57878e-22)
(-0.0406864 -0.00886007 -8.82907e-22)
(-0.0251761 -0.00918381 -2.32706e-22)
(-0.0088814 -0.00948785 2.53132e-22)
(0.00817314 -0.00976799 -4.7733e-23)
(0.0259478 -0.0100189 -6.86216e-23)
(0.0443945 -0.0102401 -3.08776e-23)
(0.0634749 -0.010422 3.05973e-23)
(0.0831048 -0.0105679 -1.44004e-22)
(0.103307 -0.010666 1.03262e-22)
(0.123834 -0.0107295 1.53835e-23)
(0.145049 -0.0107288 -4.35917e-24)
(0.166012 -0.0107243 3.29289e-23)
(0.188468 -0.0105975 -2.03436e-23)
(0.208898 -0.0105873 -8.54901e-25)
(0.23377 -0.0102709 -3.28313e-25)
(0.251426 -0.0103968 5.04706e-25)
(0.281991 -0.00980194 7.33862e-26)
(0.29221 -0.0102288 2.60854e-25)
(0.335359 -0.00962355 5.06283e-24)
(-0.15501 0.00834641 4.51878e-23)
(-0.157822 0.00837459 5.67244e-21)
(-0.160492 0.0080336 1.18108e-21)
(-0.16302 0.00759498 -1.12475e-20)
(-0.165461 0.0071172 -7.02746e-21)
(-0.167794 0.00662976 6.29075e-21)
(-0.170007 0.00614917 1.48759e-20)
(-0.172098 0.00568192 -8.2413e-21)
(-0.174066 0.00523001 -3.10845e-21)
(-0.175908 0.00479346 1.76577e-21)
(-0.177625 0.00437124 3.95023e-21)
(-0.179214 0.00396175 -5.36575e-21)
(-0.180675 0.00356309 6.0493e-21)
(-0.182003 0.00317319 -5.24121e-21)
(-0.183196 0.00278997 1.05041e-20)
(-0.184249 0.00241145 -9.96658e-21)
(-0.185157 0.00203605 1.75517e-21)
(-0.185913 0.0016627 -1.37627e-20)
(-0.18651 0.00129115 4.99888e-21)
(-0.18694 0.000922198 -3.79176e-21)
(-0.187195 0.00055807 1.52581e-21)
(-0.187275 0.000200204 1.3223e-20)
(-0.187177 -0.000168257 -7.14356e-21)
(-0.186888 -0.000542446 2.39678e-21)
(-0.186396 -0.000921945 -6.56799e-21)
(-0.185688 -0.0013074 5.57241e-21)
(-0.184752 -0.00169983 -7.80254e-21)
(-0.18357 -0.00210044 3.20918e-21)
(-0.182126 -0.00251046 -1.03732e-21)
(-0.180401 -0.00293113 2.46325e-21)
(-0.178375 -0.00336364 2.4648e-21)
(-0.176025 -0.00380904 3.32362e-21)
(-0.173328 -0.00426816 -2.88212e-21)
(-0.170256 -0.00474215 5.68314e-22)
(-0.166782 -0.00522894 -1.52082e-21)
(-0.16288 -0.00573145 2.92855e-21)
(-0.158517 -0.0062498 -1.60985e-21)
(-0.153662 -0.00678413 7.64838e-22)
(-0.148282 -0.00733421 -3.45769e-21)
(-0.142341 -0.00789956 7.62183e-22)
(-0.135806 -0.0084794 1.31853e-21)
(-0.128645 -0.0090719 -2.46206e-21)
(-0.120816 -0.00967935 1.86315e-21)
(-0.112295 -0.010287 2.0863e-21)
(-0.103056 -0.0109034 -1.36489e-21)
(-0.0930675 -0.0115223 -3.82905e-22)
(-0.0823125 -0.0121392 -1.22278e-21)
(-0.0707636 -0.012757 2.67433e-22)
(-0.0584131 -0.0133534 3.91255e-22)
(-0.0452642 -0.0139366 8.29058e-22)
(-0.0313081 -0.014501 -8.94622e-22)
(-0.0165577 -0.0150333 5.83701e-22)
(-0.00102872 -0.0155321 3.85506e-22)
(0.0152519 -0.0159894 -3.93074e-22)
(0.0322574 -0.0163989 2.57904e-23)
(0.0499452 -0.0167552 3.02755e-22)
(0.0682683 -0.0170573 -1.10916e-22)
(0.087187 -0.0172917 6.42271e-24)
(0.106614 -0.0174682 1.57387e-22)
(0.126581 -0.0175665 -3.24267e-24)
(0.146822 -0.017617 1.62943e-22)
(0.167739 -0.0175647 -1.17422e-22)
(0.188329 -0.0175243 -3.57813e-23)
(0.210441 -0.0172849 7.66833e-23)
(0.230418 -0.0172635 -2.49927e-23)
(0.254902 -0.0167431 1.64613e-23)
(0.272076 -0.0169681 6.37632e-24)
(0.302134 -0.0160434 -2.66686e-24)
(0.31202 -0.0167534 -7.37173e-25)
(0.354253 -0.015907 -8.62669e-24)
(-0.133056 0.0111519 2.04426e-22)
(-0.135718 0.0112103 -2.12967e-20)
(-0.138109 0.0107776 -4.75519e-21)
(-0.140315 0.0102079 2.42099e-20)
(-0.14246 0.00957078 -1.72441e-20)
(-0.144514 0.00891219 2.95727e-21)
(-0.14646 0.00825875 1.06097e-20)
(-0.148294 0.00762113 -8.86298e-21)
(-0.150012 0.00700294 -8.48526e-21)
(-0.151611 0.00640471 1.40693e-20)
(-0.15309 0.00582533 4.57328e-21)
(-0.154445 0.00526284 -5.24473e-21)
(-0.155674 0.00471476 -5.34938e-21)
(-0.156773 0.00417834 3.69232e-22)
(-0.157737 0.00365073 1.21532e-20)
(-0.158561 0.00312918 -6.06504e-21)
(-0.159239 0.00261139 -5.91546e-22)
(-0.159762 0.00209586 -6.63683e-21)
(-0.160123 0.0015827 -4.47592e-22)
(-0.160313 0.00107543 2.71019e-21)
(-0.160319 0.000577359 6.68982e-21)
(-0.160154 6.86149e-05 -7.35616e-21)
(-0.159809 -0.00044675 6.2818e-21)
(-0.159263 -0.000967457 -3.53521e-21)
(-0.158508 -0.00149533 -1.66275e-21)
(-0.15753 -0.002032 -7.91077e-22)
(-0.156316 -0.00257918 4.36835e-21)
(-0.15485 -0.00313868 4.81731e-21)
(-0.153115 -0.00371231 -9.1611e-21)
(-0.151092 -0.00430189 -1.95485e-21)
(-0.148762 -0.00490919 8.68023e-21)
(-0.146102 -0.0055358 -2.92897e-21)
(-0.143089 -0.00618294 -5.3299e-21)
(-0.139695 -0.00685275 2.25831e-21)
(-0.135896 -0.0075408 -3.17578e-21)
(-0.131665 -0.00825215 3.12266e-21)
(-0.126973 -0.00898674 -1.89462e-21)
(-0.121788 -0.00974452 6.96777e-21)
(-0.116078 -0.0105249 8.42196e-22)
(-0.109813 -0.0113267 -3.7719e-22)
(-0.102959 -0.0121485 -2.28094e-21)
(-0.0954892 -0.0129866 -3.58325e-21)
(-0.0873614 -0.013847 -9.29196e-22)
(-0.078554 -0.0147028 3.97632e-21)
(-0.0690473 -0.0155688 4.68239e-22)
(-0.0588112 -0.0164343 -1.60234e-21)
(-0.0478353 -0.0172922 3.67352e-22)
(-0.0360918 -0.0181523 2.23888e-22)
(-0.0235753 -0.0189715 1.42893e-21)
(-0.0102989 -0.0197678 -7.93566e-22)
(0.00374704 -0.0205279 -5.05638e-22)
(0.0185466 -0.0212404 7.75087e-23)
(0.0340798 -0.0219001 1.38798e-21)
(0.050316 -0.0224947 -7.48072e-22)
(0.0672278 -0.0230213 -7.9573e-22)
(0.0847689 -0.0234668 2.68345e-22)
(0.102893 -0.0238354 9.35785e-23)
(0.12156 -0.0241074 2.4588e-23)
(0.140677 -0.0243019 -4.18162e-22)
(0.160291 -0.0243863 1.98329e-22)
(0.180108 -0.0244143 -4.2052e-23)
(0.200587 -0.0242968 4.76273e-23)
(0.220636 -0.0242151 -8.03265e-23)
(0.242247 -0.0238515 -7.27663e-23)
(0.261574 -0.0238147 3.34498e-23)
(0.285496 -0.0230877 -1.37943e-23)
(0.301986 -0.0233959 -1.19296e-23)
(0.331305 -0.0221667 5.25218e-25)
(0.340731 -0.0231041 3.49051e-25)
(0.381638 -0.0220603 1.35652e-23)
(-0.103549 0.0135551 2.22234e-20)
(-0.106104 0.0135806 -7.96296e-21)
(-0.108142 0.0130886 5.53022e-21)
(-0.109946 0.0124312 -3.5675e-20)
(-0.111726 0.011667 1.68567e-20)
(-0.113438 0.0108622 -2.22314e-20)
(-0.115058 0.0100559 2.48353e-20)
(-0.11658 0.00926403 -2.32948e-20)
(-0.117999 0.00849286 -5.88326e-21)
(-0.119308 0.00774398 4.75826e-20)
(-0.120504 0.00701664 -2.62455e-20)
(-0.121583 0.00630883 2.25626e-20)
(-0.122538 0.00561777 -4.70881e-21)
(-0.123366 0.00494026 -5.09047e-23)
(-0.12406 0.0042728 -1.37005e-20)
(-0.124614 0.00361194 -5.91942e-21)
(-0.12502 0.00295458 -2.83286e-21)
(-0.125269 0.0022985 7.28196e-21)
(-0.125349 0.00164397 -1.80204e-20)
(-0.125249 0.000997898 8.77859e-21)
(-0.124976 0.000362549 -5.09941e-21)
(-0.12453 -0.000296643 2.30251e-21)
(-0.123886 -0.000958304 5.00672e-21)
(-0.123035 -0.00162591 1.00754e-20)
(-0.121966 -0.00230275 -6.5185e-21)
(-0.120668 -0.00299118 -5.6491e-21)
(-0.119125 -0.00369358 4.35534e-21)
(-0.117321 -0.00441229 6.67557e-22)
(-0.11524 -0.00514965 4.6135e-21)
(-0.112863 -0.00590798 -3.79358e-21)
(-0.110171 -0.00668953 -4.99967e-21)
(-0.107141 -0.00749641 8.05578e-21)
(-0.103753 -0.00832979 -6.94732e-21)
(-0.0999772 -0.00919414 4.73345e-21)
(-0.0957902 -0.0100806 1.81925e-21)
(-0.0911693 -0.0109973 -2.97111e-21)
(-0.0860847 -0.0119439 -1.76737e-21)
(-0.0805079 -0.01292 2.44769e-21)
(-0.0744096 -0.0139244 -4.17227e-21)
(-0.0677607 -0.0149553 1.13536e-21)
(-0.0605308 -0.0160098 -1.45187e-21)
(-0.0527003 -0.0170826 5.29224e-22)
(-0.0442245 -0.0181919 -5.05746e-22)
(-0.0350844 -0.0192826 2.3693e-21)
(-0.0252711 -0.0203851 -2.2382e-21)
(-0.0147538 -0.0214845 1.49355e-21)
(-0.00353356 -0.0225753 -2.88641e-21)
(0.0084198 -0.0236411 9.62967e-22)
(0.0211129 -0.0246739 2.67843e-21)
(0.034516 -0.0256667 -2.09665e-21)
(0.0486397 -0.0266044 -1.33858e-21)
(0.0634626 -0.027478 1.67111e-21)
(0.0789647 -0.0282798 -1.21524e-21)
(0.0951086 -0.028993 6.18138e-22)
(0.111867 -0.0296164 1.02813e-22)
(0.129189 -0.0301316 1.46353e-22)
(0.14703 -0.0305485 -7.50987e-22)
(0.165348 -0.0308394 2.4153e-22)
(0.184046 -0.0310361 -1.27958e-23)
(0.20319 -0.0310889 2.8767e-22)
(0.222448 -0.0310829 -4.35792e-22)
(0.242356 -0.0308833 1.62507e-22)
(0.261705 -0.0307537 4.71072e-23)
(0.28267 -0.0302519 3.88e-23)
(0.301172 -0.0301942 -9.3586e-24)
(0.324365 -0.0292585 1.83436e-23)
(0.340004 -0.0296292 1.38928e-23)
(0.368361 -0.0281276 -1.94586e-24)
(0.377228 -0.0292244 -3.5422e-24)
(0.416443 -0.0280332 -3.21782e-23)
(-0.0661235 0.0155441 -1.00852e-20)
(-0.0687284 0.015394 9.16827e-21)
(-0.0703296 0.0148879 6.3916e-21)
(-0.071686 0.0141931 -4.1262e-20)
(-0.0730679 0.0133436 4.27268e-20)
(-0.0744092 0.0124276 -1.4445e-22)
(-0.0756787 0.0114962 -2.90952e-20)
(-0.0768686 0.0105724 1.82203e-20)
(-0.0779701 0.00966604 5.52616e-21)
(-0.0789751 0.00878096 5.85137e-21)
(-0.079876 0.00791739 -2.21013e-20)
(-0.0806657 0.00707384 -1.96573e-20)
(-0.0813375 0.00624768 6.63597e-21)
(-0.0818844 0.00543556 1.81736e-20)
(-0.0822991 0.00463361 -1.12036e-20)
(-0.0825734 0.0038377 3.0277e-20)
(-0.0826984 0.00304377 -3.32099e-20)
(-0.0826634 0.00224868 3.66122e-20)
(-0.0824523 0.00145413 -1.00188e-20)
(-0.0820511 0.000672097 -2.59649e-20)
(-0.0814822 -0.000119586 2.23932e-20)
(-0.0807372 -0.000921276 -2.17388e-21)
(-0.0797816 -0.00172641 -3.55515e-21)
(-0.0786105 -0.00254063 1.09375e-20)
(-0.077213 -0.00336678 -7.60083e-21)
(-0.0755757 -0.00420753 -1.81719e-20)
(-0.073684 -0.00506569 1.48213e-20)
(-0.0715222 -0.00594403 -3.51825e-21)
(-0.0690733 -0.00684527 -3.17986e-21)
(-0.0663193 -0.00777206 6.35164e-21)
(-0.0632407 -0.00872692 1.25826e-20)
(-0.0598164 -0.00971211 -3.52187e-21)
(-0.056028 -0.0107291 -2.30579e-20)
(-0.0518441 -0.0117907 1.73249e-20)
(-0.0472421 -0.0128726 -8.68784e-21)
(-0.0422044 -0.01399 2.75882e-21)
(-0.0367017 -0.0151432 6.81359e-21)
(-0.0307079 -0.0163314 -2.59908e-21)
(-0.0241965 -0.0175529 -4.85094e-23)
(-0.0171414 -0.0188049 1.83132e-21)
(-0.00951472 -0.0200841 -5.39121e-21)
(-0.00131059 -0.0213894 -2.57123e-21)
(0.00752317 -0.0227061 6.15305e-21)
(0.0170085 -0.0240277 1.5669e-21)
(0.0271302 -0.0253534 -4.06138e-21)
(0.0379231 -0.0266709 1.52531e-21)
(0.0493873 -0.0279758 -1.09438e-21)
(0.0615339 -0.0292284 -2.73329e-21)
(0.07437 -0.0304545 -2.63491e-22)
(0.0878687 -0.0316213 3.18535e-21)
(0.102029 -0.032718 1.39555e-21)
(0.116825 -0.0337299 1.42097e-21)
(0.132235 -0.0346504 -7.55889e-22)
(0.148216 -0.0354588 1.37497e-21)
(0.164742 -0.0361565 -1.77334e-21)
(0.181756 -0.0367189 9.03648e-22)
(0.199215 -0.0371633 -7.95969e-22)
(0.21708 -0.0374516 4.31981e-23)
(0.235243 -0.037633 4.86082e-22)
(0.253798 -0.037634 -4.23377e-22)
(0.272367 -0.0375814 2.22808e-22)
(0.291574 -0.0372812 -1.53823e-22)
(0.310079 -0.0370964 -2.39249e-22)
(0.330258 -0.0364418 -8.77511e-23)
(0.347788 -0.0363563 1.35602e-23)
(0.370094 -0.0352117 -5.11998e-24)
(0.384751 -0.0356195 -1.67721e-23)
(0.411935 -0.0338827 -6.11617e-25)
(0.420174 -0.0350659 1.58939e-24)
(0.457381 -0.0337769 1.57374e-23)
(-0.0201237 0.0167218 3.37328e-20)
(-0.0230159 0.0166576 -2.5905e-20)
(-0.024138 0.0162008 4.28474e-20)
(-0.0250761 0.0154778 -1.61075e-20)
(-0.0260917 0.014584 1.32198e-20)
(-0.0270918 0.0135997 -3.40827e-20)
(-0.0280404 0.0125771 5.28592e-21)
(-0.0289276 0.0115476 -1.4541e-21)
(-0.0297425 0.0105273 7.74823e-21)
(-0.0304738 0.00952288 2.17484e-20)
(-0.0311107 0.00853641 -1.76663e-20)
(-0.0316435 0.00756766 1.26179e-20)
(-0.0320629 0.00661478 7.68293e-21)
(-0.0323599 0.00567478 3.10561e-21)
(-0.0325255 0.00474383 -2.23103e-20)
(-0.0325499 0.00381751 1.29391e-20)
(-0.0324227 0.00289116 -1.88826e-20)
(-0.0321302 0.0019611 2.28533e-21)
(-0.0316486 0.00103045 -5.29769e-22)
(-0.0309816 0.000113575 2.50444e-20)
(-0.0301476 -0.000838009 -2.14311e-20)
(-0.0291181 -0.00178764 -2.96219e-21)
(-0.0278716 -0.00274067 -5.17452e-21)
(-0.0264007 -0.00370407 2.2677e-20)
(-0.0246932 -0.00468138 -8.16798e-21)
(-0.0227354 -0.00567604 -7.94987e-21)
(-0.0205125 -0.00669144 -4.95567e-21)
(-0.0180087 -0.00773074 1.9019e-20)
(-0.0152071 -0.00879698 -6.80842e-21)
(-0.0120897 -0.00989315 -9.263e-21)
(-0.00863781 -0.0110221 -7.83766e-21)
(-0.00483051 -0.0121863 2.19174e-20)
(-0.000657634 -0.0133901 -5.88538e-21)
(0.00391933 -0.0146293 -2.00389e-21)
(0.00892763 -0.0159038 -4.75751e-21)
(0.0143701 -0.0172195 -3.99894e-21)
(0.0202775 -0.0185751 4.04956e-21)
(0.0266736 -0.0199693 3.90235e-21)
(0.0335818 -0.0213998 -4.25417e-21)
(0.0410243 -0.0228635 -6.8458e-21)
(0.049024 -0.0243563 8.91407e-21)
(0.0575923 -0.0258796 -1.4244e-21)
(0.0667569 -0.0273897 5.95621e-24)
(0.0765417 -0.0289269 -1.98688e-21)
(0.0869394 -0.0304576 3.36956e-21)
(0.0979674 -0.0319723 -4.15022e-21)
(0.109626 -0.0334637 4.95525e-21)
(0.121914 -0.0349012 -8.78282e-23)
(0.134835 -0.0362907 -4.07515e-22)
(0.148361 -0.0376063 -1.36368e-21)
(0.162484 -0.0388365 -1.67074e-21)
(0.177171 -0.0399617 5.93934e-22)
(0.192402 -0.0409761 1.43112e-21)
(0.208125 -0.0418544 -3.23425e-21)
(0.224317 -0.0426023 2.26301e-21)
(0.240915 -0.0431876 -1.20325e-21)
(0.25788 -0.0436376 4.52032e-22)
(0.275174 -0.0439007 2.56609e-22)
(0.29268 -0.0440487 -4.19064e-22)
(0.310523 -0.0439771 -8.47878e-23)
(0.328272 -0.0438653 2.43822e-22)
(0.346652 -0.0434459 -8.06943e-23)
(0.364181 -0.0431984 1.02153e-22)
(0.383443 -0.0423778 2.29972e-22)
(0.399875 -0.0422555 1.91983e-23)
(0.421143 -0.0409055 2.12847e-23)
(0.434726 -0.0413219 4.49211e-23)
(0.460539 -0.0393896 -6.83384e-24)
(0.468109 -0.040588 -2.18786e-24)
(0.503045 -0.0392452 -4.03065e-25)
(0.0356173 0.0173561 1.78307e-20)
(0.0325814 0.0176126 3.7024e-20)
(0.0313236 0.0171155 -4.35063e-20)
(0.0306117 0.0163518 -1.24229e-21)
(0.0298611 0.0154499 9.71796e-21)
(0.0290862 0.014437 -8.91599e-21)
(0.0283458 0.0133555 -1.85937e-20)
(0.0276583 0.0122466 -2.6681e-21)
(0.0270332 0.0111332 4.5288e-20)
(0.0264823 0.0100258 -1.46476e-21)
(0.026019 0.0089289 -3.79717e-21)
(0.0256556 0.00784437 -7.16324e-21)
(0.0254037 0.00677175 6.68558e-21)
(0.0252741 0.00570899 -5.04138e-21)
(0.0252777 0.00465271 7.19408e-21)
(0.0254258 0.00359835 -1.93206e-20)
(0.0257302 0.00253987 -1.62848e-20)
(0.0262055 0.00147042 2.30891e-20)
(0.0268861 0.00039184 1.57658e-21)
(0.0277439 -0.000678798 -1.14381e-20)
(0.0287763 -0.0017709 2.62704e-20)
(0.0300284 -0.00286334 -3.81896e-21)
(0.0315046 -0.00396413 -1.85173e-21)
(0.0332149 -0.00507808 -2.33832e-20)
(0.035173 -0.00620855 1.60331e-21)
(0.0373929 -0.00735932 2.06956e-20)
(0.0398898 -0.0085341 -8.472e-21)
(0.0426796 -0.00973625 -1.39198e-20)
(0.045779 -0.010969 8.90781e-21)
(0.0492056 -0.0122356 -2.61865e-21)
(0.0529772 -0.013539 2.76553e-21)
(0.0571136 -0.0148819 9.19245e-21)
(0.0616298 -0.0162695 -2.48066e-21)
(0.0665504 -0.0176838 -1.2611e-20)
(0.0719019 -0.0191488 1.3489e-20)
(0.0776957 -0.0206583 2.71057e-21)
(0.0839546 -0.02221 3.71238e-21)
(0.0906987 -0.0238024 -1.49513e-21)
(0.0979473 -0.0254325 -1.67774e-20)
(0.105719 -0.0270963 8.066e-21)
(0.114031 -0.0287881 1.34524e-21)
(0.122894 -0.0305059 -4.98793e-22)
(0.132325 -0.0322218 1.73074e-21)
(0.142341 -0.0339475 5.86097e-22)
(0.152937 -0.0356623 -1.19275e-21)
(0.164119 -0.0373533 5.76709e-22)
(0.175885 -0.03901 9.41845e-22)
(0.188224 -0.0406048 -1.58562e-21)
(0.201134 -0.0421345 8.59989e-22)
(0.214585 -0.0435744 1.19955e-21)
(0.228564 -0.0449123 -1.39545e-21)
(0.24303 -0.0461246 -1.21019e-21)
(0.257965 -0.0472071 5.09327e-22)
(0.273309 -0.0481296 2.62685e-22)
(0.289043 -0.0489032 8.10737e-23)
(0.305099 -0.0494868 6.52326e-22)
(0.321439 -0.0499208 -2.48336e-22)
(0.338033 -0.0501362 -1.66827e-21)
(0.35475 -0.0502336 -2.67478e-22)
(0.371753 -0.0500694 -1.95572e-22)
(0.388553 -0.0498866 2.29757e-22)
(0.40598 -0.0493314 1.6714e-22)
(0.422413 -0.0490135 -2.47977e-22)
(0.440628 -0.0480176 -2.7664e-23)
(0.455865 -0.0478479 -6.85533e-23)
(0.475949 -0.0463006 -8.86495e-23)
(0.488395 -0.0466952 1.65236e-23)
(0.512655 -0.0446078 -1.03714e-23)
(0.519541 -0.0457578 6.52966e-25)
(0.551996 -0.0443959 4.93704e-24)
(0.102242 0.0183091 -3.5047e-20)
(0.0992783 0.0185566 4.32679e-20)
(0.0973218 0.0178654 5.71337e-20)
(0.0964625 0.0170365 -6.57631e-20)
(0.0957221 0.0161296 -4.2041e-20)
(0.094937 0.0151007 2.97513e-20)
(0.0941829 0.0139767 2.83582e-20)
(0.093493 0.0128039 4.11694e-20)
(0.0928717 0.0116106 -4.81287e-20)
(0.0923269 0.0104102 -3.354e-22)
(0.0918718 0.00920993 -3.8335e-20)
(0.0915201 0.00801406 1.04597e-20)
(0.0912846 0.00682408 3.03738e-20)
(0.0911772 0.00563939 -2.34409e-21)
(0.0912098 0.00445768 -1.79732e-20)
(0.0913941 0.00327511 4.77204e-21)
(0.0917411 0.00208603 1.03689e-20)
(0.0922661 0.000884686 -1.87526e-20)
(0.0930218 -0.000326598 3.99205e-20)
(0.093966 -0.00157142 -1.87927e-20)
(0.0950955 -0.00281733 -1.06198e-20)
(0.0964527 -0.00406345 2.46893e-20)
(0.0980477 -0.0053192 -2.41592e-20)
(0.0998916 -0.00658934 8.15469e-21)
(0.101997 -0.00787778 3.21022e-21)
(0.104379 -0.00918893 1.03591e-20)
(0.107051 -0.0105269 -7.89892e-21)
(0.11003 -0.0118952 -1.23371e-20)
(0.113332 -0.0132971 3.30403e-21)
(0.116974 -0.0147357 -6.03891e-21)
(0.120973 -0.016214 2.70907e-20)
(0.125347 -0.0177342 -1.0645e-20)
(0.130111 -0.0193007 -1.77857e-20)
(0.135285 -0.0209056 2.38927e-20)
(0.140892 -0.0225572 -1.49297e-20)
(0.146945 -0.0242541 -3.44989e-21)
(0.153462 -0.025995 7.95701e-21)
(0.16046 -0.0277773 -3.14366e-21)
(0.167952 -0.0295975 6.6795e-21)
(0.175955 -0.0314505 -2.75199e-21)
(0.184479 -0.0333292 5.4e-21)
(0.193532 -0.0352287 -1.20528e-20)
(0.203123 -0.0371274 7.90248e-21)
(0.213261 -0.0390252 4.63262e-21)
(0.22394 -0.0409052 -8.84687e-21)
(0.235158 -0.0427515 -1.58662e-22)
(0.246907 -0.0445514 5.63087e-21)
(0.25917 -0.0462783 -7.19415e-21)
(0.27194 -0.047924 7.81592e-21)
(0.28518 -0.0494627 -2.06056e-21)
(0.298877 -0.0508825 3.88945e-22)
(0.31298 -0.0521558 -3.42949e-22)
(0.327476 -0.053281 6.50952e-23)
(0.342295 -0.0542224 -1.41096e-21)
(0.357425 -0.0549981 1.68109e-21)
(0.372793 -0.0555566 5.73085e-22)
(0.388364 -0.0559546 2.57585e-22)
(0.404116 -0.0561014 -2.76973e-23)
(0.419905 -0.0561329 1.21472e-21)
(0.435933 -0.0558586 -8.11227e-22)
(0.451657 -0.0555946 6.59441e-22)
(0.468004 -0.0548907 -9.63741e-23)
(0.483233 -0.0544952 3.39632e-22)
(0.500275 -0.0533196 -6.65283e-23)
(0.51424 -0.0530908 -1.77367e-23)
(0.532999 -0.0513598 3.96198e-23)
(0.544278 -0.0517023 -2.48291e-23)
(0.56682 -0.049499 8.03416e-24)
(0.573022 -0.0505482 6.49794e-24)
(0.602838 -0.0491921 8.63791e-24)
(0.178206 0.0199089 -4.50478e-21)
(0.1752 0.0189037 -9.40883e-20)
(0.173705 0.0179265 1.03514e-19)
(0.172563 0.0169594 -5.26272e-20)
(0.171402 0.0158825 -4.56128e-21)
(0.170293 0.014699 4.36032e-20)
(0.169286 0.0134529 -4.66343e-20)
(0.168379 0.0121734 -7.12116e-21)
(0.167571 0.0108746 3.58294e-20)
(0.166871 0.00956524 -7.80575e-21)
(0.166292 0.00825146 -3.80947e-20)
(0.165847 0.00693674 6.6966e-20)
(0.165547 0.00562204 -1.77551e-20)
(0.165403 0.00430633 -2.93494e-20)
(0.165429 0.00298669 3.47119e-20)
(0.165637 0.00165767 4.70665e-21)
(0.166039 0.000310525 -1.56139e-20)
(0.166668 -0.00106253 -1.87419e-20)
(0.167502 -0.00247551 -2.28903e-20)
(0.168574 -0.00387915 1.21967e-20)
(0.169888 -0.00528421 8.58181e-21)
(0.171453 -0.00670173 1.49036e-20)
(0.173283 -0.00813566 -2.14712e-20)
(0.175392 -0.00958966 1.29782e-20)
(0.177794 -0.0110685 -1.72328e-21)
(0.180502 -0.0125765 -1.16777e-20)
(0.183534 -0.0141172 8.07481e-21)
(0.186905 -0.0156937 9.30628e-22)
(0.19063 -0.017309 -1.77992e-20)
(0.194726 -0.018966 5.3357e-21)
(0.199208 -0.0206667 1.1505e-20)
(0.204091 -0.0224141 -7.26137e-21)
(0.209391 -0.024204 3.6478e-21)
(0.215127 -0.0260403 8.34457e-21)
(0.221311 -0.0279221 -1.33475e-20)
(0.227956 -0.0298475 6.64456e-21)
(0.235076 -0.0318133 7.71428e-21)
(0.242681 -0.0338149 -6.61087e-21)
(0.250779 -0.0358465 1.10461e-21)
(0.259378 -0.0378996 -9.39689e-21)
(0.268481 -0.0399672 5.17427e-21)
(0.278089 -0.0420306 3.14436e-21)
(0.288204 -0.0440831 1.33754e-21)
(0.298817 -0.0461086 -5.38233e-21)
(0.309917 -0.0480889 -1.33616e-21)
(0.321493 -0.0500098 1.0558e-20)
(0.333521 -0.0518446 -7.83217e-22)
(0.345988 -0.0535821 -5.6228e-21)
(0.358852 -0.0551946 7.34305e-23)
(0.3721 -0.0566715 -9.61929e-22)
(0.385674 -0.0579808 9.08977e-22)
(0.399562 -0.0591249 4.73315e-22)
(0.413691 -0.0600614 9.26757e-22)
(0.428053 -0.0608179 -9.40162e-22)
(0.442572 -0.0613301 -8.04593e-23)
(0.457219 -0.0616748 -9.29681e-22)
(0.471978 -0.0617353 1.29323e-23)
(0.486696 -0.0616884 -1.03205e-22)
(0.501612 -0.0612905 1.84409e-22)
(0.516136 -0.0609374 -3.78298e-22)
(0.531276 -0.060077 -3.94967e-22)
(0.545206 -0.0595978 1.19148e-22)
(0.560952 -0.0582445 -3.14264e-22)
(0.573591 -0.0579445 2.44237e-22)
(0.590894 -0.0560486 -9.46474e-24)
(0.600995 -0.0563111 -2.98966e-23)
(0.621681 -0.0540287 -9.6772e-24)
(0.627211 -0.0549379 4.2005e-24)
(0.654279 -0.0536028 -5.03633e-24)
(0.270477 0.0222315 -5.19098e-20)
(0.26606 0.0207895 2.33591e-20)
(0.263365 0.0195372 -1.58911e-20)
(0.261299 0.0184068 -1.47482e-20)
(0.259292 0.0172023 3.4021e-21)
(0.257384 0.0158984 -2.35529e-21)
(0.255641 0.0145328 6.99627e-21)
(0.254059 0.0131305 3.92802e-20)
(0.252626 0.0117025 -6.18201e-20)
(0.251344 0.0102567 4.68177e-20)
(0.25022 0.00880014 1.47833e-20)
(0.249264 0.0073373 -7.40307e-20)
(0.248485 0.00587028 7.02305e-20)
(0.247894 0.00439912 -2.77845e-20)
(0.2475 0.00292185 1.27988e-21)
(0.247312 0.00143374 1.82471e-20)
(0.247338 -7.39116e-05 -2.86008e-20)
(0.247628 -0.00160214 1.31764e-20)
(0.248163 -0.00319406 -2.84882e-20)
(0.248962 -0.00478153 -1.14796e-20)
(0.250023 -0.00636936 4.41405e-20)
(0.251359 -0.00796728 -6.75018e-21)
(0.252984 -0.00958035 5.25621e-21)
(0.254912 -0.0112132 1.42101e-20)
(0.257153 -0.0128716 -2.64261e-21)
(0.259724 -0.0145606 -1.19432e-20)
(0.262637 -0.0162836 -1.61259e-20)
(0.265908 -0.0180434 1.82959e-20)
(0.269551 -0.0198429 3.99964e-22)
(0.27358 -0.0216847 -1.14596e-20)
(0.278009 -0.0235706 4.18499e-21)
(0.282851 -0.0255026 1.30397e-20)
(0.288117 -0.0274783 -2.57616e-20)
(0.293823 -0.0294991 6.08932e-21)
(0.299977 -0.0315638 8.79444e-21)
(0.306591 -0.0336697 2.84626e-21)
(0.313671 -0.035813 -1.14219e-20)
(0.321223 -0.0379883 -1.0414e-22)
(0.329251 -0.0401884 -1.74789e-21)
(0.337757 -0.0424042 1.18216e-20)
(0.346738 -0.0446263 -7.58366e-21)
(0.356189 -0.046838 -6.34253e-22)
(0.366103 -0.0490277 5.46329e-21)
(0.37647 -0.0511796 3.70816e-23)
(0.38727 -0.0532734 -6.20296e-21)
(0.398488 -0.0552939 8.92632e-21)
(0.410093 -0.0572137 -1.27454e-21)
(0.42207 -0.05902 -5.71728e-21)
(0.43437 -0.060683 3.63585e-21)
(0.446981 -0.0621939 -1.43008e-21)
(0.459837 -0.0635165 -6.64272e-22)
(0.472935 -0.0646581 -5.59913e-22)
(0.486193 -0.0655691 1.36735e-21)
(0.499612 -0.0662882 -2.41847e-21)
(0.513113 -0.0667367 5.38163e-22)
(0.526673 -0.0670142 -3.18419e-22)
(0.540287 -0.0669751 1.11847e-21)
(0.553793 -0.0668411 6.77327e-22)
(0.567461 -0.0663111 -6.00972e-22)
(0.580669 -0.0658641 2.8033e-22)
(0.594483 -0.0648454 4.54978e-22)
(0.607034 -0.0642781 -2.66095e-22)
(0.621372 -0.0627556 1.84215e-22)
(0.632648 -0.0623736 -1.65052e-23)
(0.648379 -0.0603361 2.1853e-23)
(0.657311 -0.060495 -6.98394e-24)
(0.67603 -0.0581668 3.5036e-24)
(0.680906 -0.0589107 1.38111e-24)
(0.705167 -0.0576043 -1.61744e-24)
(0.376319 0.0261423 2.94385e-20)
(0.370203 0.024124 -2.8926e-20)
(0.365766 0.0224549 9.49822e-21)
(0.362211 0.0210269 2.54678e-20)
(0.358841 0.019572 -4.84643e-20)
(0.355641 0.0180426 1.40707e-20)
(0.352691 0.0164703 7.23978e-20)
(0.349989 0.0148721 -2.27567e-20)
(0.34751 0.013252 -4.46839e-20)
(0.345248 0.0116148 3.88266e-20)
(0.343206 0.00996623 -1.15953e-20)
(0.341386 0.00831057 3.19141e-20)
(0.339795 0.00665014 -4.11038e-20)
(0.33844 0.00498555 -4.72768e-20)
(0.337327 0.00331583 7.81345e-20)
(0.336466 0.00163795 -7.43745e-20)
(0.335863 -5.5796e-05 4.40609e-20)
(0.335517 -0.00178319 3.78519e-20)
(0.335456 -0.00358759 -7.39088e-20)
(0.335739 -0.00537051 5.80135e-20)
(0.336324 -0.00715667 -2.88211e-20)
(0.337212 -0.00895388 -2.35941e-20)
(0.338419 -0.0107657 4.94053e-21)
(0.339955 -0.012596 4.83689e-20)
(0.341831 -0.0144513 -5.98808e-20)
(0.344062 -0.0163373 5.60336e-20)
(0.34666 -0.0182571 1.41924e-20)
(0.349639 -0.0202132 -9.98142e-21)
(0.353011 -0.0222081 -4.158e-20)
(0.356786 -0.0242443 1.08835e-20)
(0.360976 -0.026323 1.79194e-20)
(0.365592 -0.0284456 -1.80805e-20)
(0.370641 -0.0306105 1.35494e-20)
(0.376133 -0.0328175 -7.63991e-21)
(0.382075 -0.0350647 4.767e-21)
(0.388471 -0.0373488 -4.83383e-21)
(0.395324 -0.039665 2.97882e-21)
(0.402636 -0.0420071 1.00988e-21)
(0.410403 -0.044367 -2.7389e-21)
(0.418622 -0.0467346 7.23266e-21)
(0.427284 -0.0490987 -8.94346e-21)
(0.436379 -0.0514435 -3.40578e-21)
(0.445893 -0.0537541 1.06868e-21)
(0.455811 -0.0560145 3.29392e-24)
(0.466105 -0.0582028 -2.95953e-21)
(0.476759 -0.060303 8.73027e-21)
(0.487734 -0.062287 -1.89813e-21)
(0.499015 -0.0641414 -3.15254e-21)
(0.510546 -0.0658342 -3.66659e-21)
(0.522319 -0.067359 6.69361e-21)
(0.534261 -0.0686755 -2.46407e-22)
(0.546376 -0.069797 3.34978e-21)
(0.558576 -0.0706659 -6.52636e-21)
(0.570874 -0.0713336 3.79977e-21)
(0.583189 -0.0717057 5.6349e-22)
(0.595506 -0.071907 -6.55615e-22)
(0.607826 -0.0717601 9.66479e-22)
(0.619989 -0.0715345 -1.35868e-21)
(0.632282 -0.0708701 1.54997e-23)
(0.644077 -0.0703278 -4.69398e-23)
(0.656456 -0.0691558 -5.5409e-22)
(0.667568 -0.0684981 1.29414e-22)