/*--------------------------------*- C++ -*----------------------------------*\
  =========                 |
  \\      /  F ield         | OpenFOAM: The Open Source CFD Toolbox
   \\    /   O peration     | Website:  https://openfoam.org
    \\  /    A nd           | Version:  7
     \\/     M anipulation  |
\*---------------------------------------------------------------------------*/
FoamFile
{
    version     2.0;
    format      ascii;
    class       volVectorField;
    location    "61";
    object      U;
}
// * * * * * * * * * * * * * * * * * * * * * * * * * * * * * * * * * * * * * //

dimensions      [0 1 -1 0 0 0 0];

internalField   nonuniform List<vector> 
12400
(
(-0.000688763 0.000711524 -4.65136e-21)
(-0.00392278 0.00176207 -1.7332e-20)
(-0.0105288 0.00251573 3.21216e-21)
(-0.0193585 0.0030289 1.2392e-20)
(-0.0297926 0.00334299 5.36918e-21)
(-0.0413856 0.00349397 -1.32914e-20)
(-0.0537132 0.00351448 -4.2856e-21)
(-0.0664159 0.00343264 -1.70531e-21)
(-0.0792064 0.00327178 -1.58948e-20)
(-0.0918598 0.00305061 -3.09869e-21)
(-0.104203 0.0027835 -1.19678e-20)
(-0.116098 0.00248081 1.97821e-21)
(-0.127431 0.00214958 -6.29983e-21)
(-0.138089 0.00179476 1.14426e-20)
(-0.147956 0.00142157 -1.48676e-20)
(-0.1569 0.00103972 -1.59965e-20)
(-0.164797 0.000670737 -4.65526e-21)
(-0.171593 0.000361319 2.55394e-20)
(-0.177252 0.000176042 -2.18703e-20)
(-0.181871 0.00023065 3.16546e-21)
(-0.000807367 0.00244661 6.83365e-21)
(-0.0041867 0.00612189 1.11536e-20)
(-0.0108387 0.00883276 3.64191e-21)
(-0.0196416 0.0107472 1.08016e-20)
(-0.0299892 0.0119925 -2.5818e-21)
(-0.0414442 0.0126847 1.65976e-20)
(-0.0535883 0.0129342 6.27385e-21)
(-0.0660659 0.0128404 1.48053e-20)
(-0.0785913 0.0124885 -8.59094e-21)
(-0.0909392 0.011948 2.09879e-20)
(-0.102935 0.0112707 6.82629e-20)
(-0.114438 0.010491 -1.1563e-20)
(-0.125328 0.00962734 1.72038e-20)
(-0.135491 0.00868583 -1.05263e-20)
(-0.144802 0.00766751 2.75991e-20)
(-0.153121 0.00658008 -3.32105e-21)
(-0.160305 0.00545848 1.54943e-20)
(-0.16628 0.00440765 -9.51909e-20)
(-0.17097 0.00358733 9.51443e-21)
(-0.174199 0.00324722 -1.34092e-20)
(-0.00104526 0.00412362 2.20327e-20)
(-0.00471649 0.0103468 2.31927e-20)
(-0.01146 0.0149678 -5.27548e-21)
(-0.020207 0.0182563 -1.17667e-20)
(-0.0303779 0.0204192 -4.65744e-21)
(-0.0415514 0.0216482 1.68358e-20)
(-0.0533218 0.0221279 2.5153e-20)
(-0.065341 0.0220265 -5.63553e-20)
(-0.0773268 0.0214898 1.63539e-20)
(-0.0890534 0.0206371 -2.08386e-20)
(-0.100342 0.0195576 -3.6159e-20)
(-0.111046 0.0183103 -7.10159e-21)
(-0.121038 0.0169254 -1.10916e-20)
(-0.130193 0.0154103 -2.54849e-20)
(-0.138373 0.0137606 3.01385e-20)
(-0.145423 0.011978 -2.88278e-20)
(-0.151161 0.0100996 3.72115e-21)
(-0.155476 0.00827726 9.34318e-20)
(-0.158264 0.00679044 -6.60642e-20)
(-0.158663 0.00586679 5.65755e-20)
(-0.00139317 0.00570513 -1.62994e-20)
(-0.00549356 0.0143489 3.08614e-20)
(-0.0123733 0.0208012 -4.46867e-20)
(-0.0210388 0.0254173 2.09116e-20)
(-0.0309481 0.0284739 -1.14878e-19)
(-0.0417028 0.0302308 -7.11744e-20)
(-0.0529148 0.0309415 4.52587e-20)
(-0.0642474 0.0308388 1.11122e-19)
(-0.0754226 0.0301267 -4.6173e-20)
(-0.0862139 0.0289728 -3.20091e-20)
(-0.0964361 0.0275038 -4.61702e-20)
(-0.105933 0.0258035 9.49503e-20)
(-0.114563 0.0239153 1.18386e-19)
(-0.122186 0.0218486 -9.40132e-20)
(-0.128645 0.0195922 -7.69457e-20)
(-0.133762 0.0171368 2.88632e-20)
(-0.137304 0.0145056 -6.43338e-20)
(-0.139086 0.0118715 -3.11103e-21)
(-0.139121 0.00969651 1.08744e-19)
(-0.135155 0.00785042 3.64647e-20)
(-0.0018379 0.00715845 6.45735e-20)
(-0.00649128 0.0180502 2.05786e-20)
(-0.0135504 0.0262242 7.12461e-20)
(-0.0221135 0.0321018 -2.17541e-20)
(-0.031684 0.036016 1.12072e-19)
(-0.041891 0.0382857 6.85099e-20)
(-0.0523681 0.0392253 -8.31114e-20)
(-0.0627922 0.0391276 -1.07903e-19)
(-0.0728907 0.0382508 9.99298e-20)
(-0.0824348 0.0368092 -2.84482e-20)
(-0.0912304 0.0349662 4.26201e-20)
(-0.0991063 0.0328314 -1.69833e-19)
(-0.105902 0.0304629 5.99774e-20)
(-0.111451 0.0278738 2.2378e-20)
(-0.115572 0.0250461 1.27536e-20)
(-0.118058 0.0219562 4.77845e-20)
(-0.118619 0.0185965 1.25728e-19)
(-0.116904 0.0151073 3.299e-21)
(-0.113462 0.0122784 -3.82875e-20)
(-0.103382 0.00902329 3.80344e-20)
(-0.00236335 0.00845716 4.46958e-20)
(-0.00767678 0.0213851 2.22553e-20)
(-0.0149562 0.0311434 -1.16009e-19)
(-0.0234011 0.0381958 -6.96856e-20)
(-0.0325642 0.0429175 -2.76379e-20)
(-0.0421044 0.0456754 9.30132e-20)
(-0.0516794 0.0468369 1.11336e-19)
(-0.0609806 0.0467476 -1.37854e-20)
(-0.069741 0.0457159 -2.67351e-20)
(-0.0777278 0.0440001 -2.34803e-20)
(-0.0847339 0.0417996 -7.63771e-20)
(-0.0905672 0.0392504 1.75054e-19)
(-0.0950388 0.0364273 -9.84284e-22)
(-0.0979496 0.0333501 -6.92944e-20)
(-0.0990761 0.0299961 -5.99063e-21)
(-0.0981786 0.0263273 1.42294e-20)
(-0.0949235 0.0222953 4.49209e-20)
(-0.0885602 0.0179098 -1.66894e-19)
(-0.0810483 0.0145384 7.66399e-20)
(-0.0627813 0.00946799 -6.50941e-20)
(-0.00295167 0.00958217 -7.46311e-20)
(-0.00901305 0.0243038 4.34624e-20)
(-0.0165502 0.035483 5.21979e-20)
(-0.0248659 0.0436028 4.51322e-20)
(-0.0335615 0.0490657 9.8239e-20)
(-0.0423258 0.0522753 1.43828e-20)
(-0.0508403 0.0536426 -1.41458e-20)
(-0.0588114 0.0535595 4.32586e-20)
(-0.0659762 0.0523792 -6.5338e-20)
(-0.0720949 0.0504009 -6.6057e-21)
(-0.0769426 0.0478581 3.23309e-20)
(-0.0802986 0.044914 -1.48677e-19)
(-0.0819354 0.0416625 -4.97784e-20)
(-0.081607 0.0381337 4.67722e-20)
(-0.0790296 0.0343049 -1.13356e-19)
(-0.0739116 0.0301276 1.26971e-19)
(-0.0659557 0.0255247 1.57943e-20)
(-0.0535203 0.0202766 -1.91326e-20)
(-0.0412911 0.0163505 -2.09095e-19)
(-0.0127074 0.00988332 1.22521e-19)
(-0.00358456 0.0105224 -2.95282e-20)
(-0.0104612 0.0267727 -3.22736e-20)
(-0.0182888 0.0391871 -1.53819e-19)
(-0.0264671 0.0482462 -6.88275e-20)
(-0.0346423 0.0543658 -2.36251e-19)
(-0.0425294 0.0579756 -2.0124e-20)
(-0.0498323 0.0595213 -1.19333e-19)
(-0.0562703 0.0594335 -8.60502e-20)
(-0.0615821 0.0581048 1.91394e-19)
(-0.0655168 0.0558713 3.28168e-20)
(-0.067825 0.0529989 8.30407e-20)
(-0.0682474 0.0496777 1.05473e-19)
(-0.0665044 0.0460223 -3.61438e-20)
(-0.0622861 0.0420781 -1.21365e-19)
(-0.0552251 0.0378295 1.10536e-19)
(-0.0449281 0.0332245 1.05364e-19)
(-0.0312992 0.0281821 -1.06612e-19)
(-0.0112251 0.0224247 1.50583e-19)
(0.00695415 0.0175276 2.36267e-19)
(0.0476464 0.0102095 6.61675e-20)
(-0.00424455 0.0112746 7.8494e-20)
(-0.0119828 0.0287755 9.56611e-20)
(-0.0201265 0.042221 4.71046e-20)
(-0.0281597 0.052071 1.18358e-19)
(-0.0357647 0.0587432 5.49813e-20)
(-0.0426775 0.0626843 1.47198e-19)
(-0.0486202 0.0643664 1.28708e-19)
(-0.0533214 0.0642521 -5.14849e-20)
(-0.0565167 0.0627674 -8.37062e-20)
(-0.0579379 0.0602809 1.51134e-19)
(-0.0573021 0.0570883 -9.62868e-20)
(-0.054299 0.0534059 7.14423e-20)
(-0.0485792 0.0493706 9.79846e-20)
(-0.0397482 0.0450476 1.0953e-19)
(-0.0273318 0.0404372 -3.24182e-19)
(-0.0107488 0.0355025 -1.55229e-19)
(0.00978081 0.0301476 -4.24429e-20)
(0.0391962 0.0241628 1.811e-19)
(0.0641505 0.0185649 -3.96829e-19)
(0.121477 0.0104776 -1.50698e-19)
(-0.00491615 0.0118435 1.16663e-19)
(-0.0135416 0.0303122 -1.42214e-19)
(-0.0220174 0.0445704 -1.50488e-19)
(-0.0298934 0.0550439 -1.5733e-19)
(-0.0368765 0.0621447 -9.83707e-20)
(-0.0427157 0.0663297 -2.36525e-20)
(-0.0471449 0.0680905 -1.63064e-19)
(-0.049896 0.0679151 2.04954e-19)
(-0.0506944 0.0662578 5.99195e-20)
(-0.0492458 0.0635152 5.92651e-20)
(-0.0452213 0.0600101 -2.42149e-19)
(-0.0382432 0.0559836 3.76632e-20)
(-0.0278709 0.0515966 -3.04187e-20)
(-0.0135982 0.0469375 -1.04794e-20)
(0.00517775 0.042032 -1.22201e-19)
(0.0293208 0.0368779 1.6055e-19)
(0.0580049 0.0313151 -3.54093e-20)
(0.0993848 0.0253397 -4.0573e-19)
(0.131071 0.0197523 5.74883e-20)
(0.210713 0.0115062 2.82017e-19)
(-0.0055867 0.0122402 8.32461e-20)
(-0.0151048 0.0313977 -2.72345e-20)
(-0.0239157 0.0462401 1.57927e-19)
(-0.0316121 0.0571534 7.9705e-20)
(-0.0379116 0.0645399 1.15236e-19)
(-0.0425663 0.0688624 1.08265e-20)
(-0.0453132 0.0706279 2.21568e-19)
(-0.0458785 0.0703446 -2.01274e-19)
(-0.0439675 0.0684902 -9.25838e-20)
(-0.0392462 0.0654855 -3.7945e-20)
(-0.0313232 0.0616775 2.41046e-19)
(-0.0197322 0.0573318 -4.2786e-20)
(-0.00391559 0.0526351 3.70065e-20)
(0.0167758 0.0477036 1.53867e-19)
(0.0430836 0.0425931 1.48862e-19)
(0.0763092 0.0373821 -2.61983e-19)
(0.114446 0.0316831 -1.46844e-19)
(0.170818 0.0264144 7.96353e-20)
(0.208994 0.0205695 2.55091e-19)
(0.316687 0.014132 -3.38375e-20)
(-0.00624686 0.0124808 -1.10207e-19)
(-0.016644 0.0320586 -6.1805e-20)
(-0.0257754 0.0472519 -8.63706e-20)
(-0.0332516 0.0584079 -8.42301e-20)
(-0.0387856 0.0659204 9.67777e-20)
(-0.0421209 0.0702574 -1.88787e-19)
(-0.0429865 0.0719394 1.87235e-19)
(-0.0410907 0.0714912 1.2942e-20)
(-0.0361036 0.0694104 -1.62262e-19)
(-0.0276338 0.0661392 -3.73923e-20)
(-0.015205 0.0620477 -1.5324e-19)
(0.00176425 0.0574269 6.99876e-20)
(0.0239787 0.0524929 -4.87463e-20)
(0.0522628 0.0473962 -2.96838e-19)
(0.0874844 0.0422237 1.40015e-20)
(0.131546 0.0372439 9.42523e-20)
(0.180605 0.0313817 2.08957e-19)
(0.254809 0.0280096 3.67581e-19)
(0.299435 0.0210713 6.28618e-20)
(0.439255 0.0188262 -3.96419e-19)
(-0.00689065 0.0125851 -1.52528e-19)
(-0.0181342 0.0323301 -2.21344e-20)
(-0.0275481 0.0476405 3.08416e-19)
(-0.0347356 0.0588332 -1.39604e-19)
(-0.0393899 0.0662996 7.17612e-21)
(-0.0412316 0.0705154 -1.3644e-19)
(-0.039968 0.0720159 -1.3192e-19)
(-0.0352735 0.0713405 2.14934e-20)
(-0.0267629 0.0690053 7.09923e-20)
(-0.0139632 0.0654736 2.65627e-19)
(0.0037153 0.0611396 -8.48288e-20)
(0.0269999 0.0563232 -3.66685e-19)
(0.0567709 0.0512764 2.62698e-19)
(0.0940542 0.0461956 2.29545e-19)
(0.1398 0.041187 1.50715e-19)
(0.196562 0.0368968 3.81434e-19)
(0.258287 0.0308844 -1.24807e-19)
(0.351943 0.030733 -5.77241e-19)
(0.403997 0.0221599 9.36559e-20)
(0.575564 0.0258707 1.09612e-19)
(-0.00751486 0.0125738 -7.93938e-20)
(-0.0195525 0.0322516 1.05925e-19)
(-0.0291805 0.0474495 -1.07442e-19)
(-0.0359717 0.0584695 1.71547e-19)
(-0.0395841 0.0657104 -1.98686e-19)
(-0.0397016 0.069665 1.85175e-19)
(-0.03599 0.0708822 3.70673e-20)
(-0.0280704 0.0699198 -2.01518e-19)
(-0.0154764 0.0673138 1.69934e-19)
(0.00237705 0.0635504 -1.85237e-19)
(0.0262255 0.0590523 2.31671e-19)
(0.0569725 0.0541761 1.25724e-19)
(0.0956905 0.0492203 1.01968e-19)
(0.143601 0.0444427 -1.56384e-19)
(0.201659 0.0399424 -2.59571e-20)
(0.272819 0.0369329 -2.01642e-19)
(0.349173 0.031156 1.41356e-19)
(0.461412 0.0349844 6.36155e-21)
(0.523375 0.0253947 -2.49758e-19)
(0.71927 0.035545 1.08052e-19)
(-0.00811804 0.012467 1.79182e-20)
(-0.0208752 0.0318629 6.79395e-20)
(-0.0306104 0.0467271 1.49312e-20)
(-0.0368469 0.0573679 5.71463e-20)
(-0.0391903 0.0642065 1.3709e-19)
(-0.0372741 0.0677608 1.29492e-19)
(-0.0307019 0.0685994 9.2562e-20)
(-0.0190128 0.0673049 1.16845e-19)
(-0.00162962 0.0644368 -2.37728e-19)
(0.0221786 0.0605099 -3.49889e-20)
(0.053325 0.0559844 -3.81851e-19)
(0.0929078 0.0512649 -1.20441e-19)
(0.142176 0.0467092 -1.38175e-19)
(0.202471 0.0426542 2.27325e-19)
(0.27462 0.0391689 -3.58166e-19)
(0.361286 0.0380136 6.94998e-20)
(0.453907 0.0335357 2.77307e-20)
(0.580707 0.0409862 3.56547e-19)
(0.655544 0.03224 -1.75781e-19)
(0.861029 0.0478845 1.3415e-19)
(-0.0086988 0.0122817 2.37988e-19)
(-0.0220746 0.0311997 8.6471e-20)
(-0.0317617 0.0455219 1.58694e-19)
(-0.0372193 0.0555875 1.44996e-19)
(-0.0379871 0.0618568 2.47189e-20)
(-0.0336278 0.0648834 -3.14594e-19)
(-0.0236608 0.0652691 -2.32778e-19)
(-0.00751193 0.0636261 -2.12185e-19)
(0.015541 0.0605463 2.01122e-19)
(0.0464069 0.0565836 1.22035e-19)
(0.0861952 0.052248 4.35538e-19)
(0.136185 0.0480061 -3.58168e-19)
(0.197724 0.0442864 1.34059e-19)
(0.272075 0.0415084 -2.56458e-19)
(0.359702 0.0397289 1.91921e-19)
(0.461943 0.0408386 -6.88742e-20)
(0.570902 0.0392155 9.30063e-20)
(0.705708 0.0490028 -3.27645e-19)
(0.794218 0.0432666 2.72287e-19)
(0.990447 0.0621748 1.18709e-19)
(-0.00925399 0.0120303 -3.29198e-19)
(-0.0231139 0.0302905 1.35765e-19)
(-0.0325389 0.0438787 -2.15816e-19)
(-0.0369145 0.0531897 -2.04478e-19)
(-0.0357012 0.0587425 7.48442e-20)
(-0.0283708 0.0611417 3.76496e-19)
(-0.0143309 0.0610336 -2.75997e-19)
(0.00713765 0.0590715 3.51147e-20)
(0.0369339 0.0558918 -7.95065e-20)
(0.076164 0.0521017 -7.8487e-20)
(0.126121 0.0482756 2.04449e-19)
(0.188189 0.0449534 4.52603e-19)
(0.263631 0.042636 -1.68711e-20)
(0.353277 0.0417935 3.88014e-20)
(0.456789 0.0425214 -1.52766e-20)
(0.573221 0.0461548 -2.57978e-19)
(0.695637 0.0486633 2.51797e-19)
(0.83086 0.0592748 3.97586e-19)
(0.929194 0.0578619 1.14003e-19)
(1.09875 0.0768776 -2.18152e-19)
(-0.00977633 0.0117192 -8.54071e-20)
(-0.0239437 0.0291544 2.77748e-19)
(-0.0328222 0.0418351 -8.89574e-21)
(-0.0357206 0.0502369 1.97228e-19)
(-0.0320068 0.0549577 9.21742e-20)
(-0.0210406 0.0566693 8.94379e-20)
(-0.00208913 0.0560765 -1.11935e-19)
(0.0257403 0.0538883 1.92661e-19)
(0.0635433 0.0508016 3.36417e-20)
(0.112613 0.0474924 -1.17267e-19)
(0.174356 0.0446116 -6.84036e-20)
(0.250083 0.0427738 -3.09651e-19)
(0.340649 0.0425301 -3.12608e-19)
(0.445931 0.044316 7.35287e-20)
(0.564123 0.0482558 -2.6429e-20)
(0.691512 0.0545971 -1.04622e-19)
(0.821128 0.0614664 -3.4242e-19)
(0.949464 0.0716344 -4.11617e-19)
(1.04924 0.0745189 -4.77267e-19)
(1.18099 0.0902349 5.13123e-20)
(-0.0102518 0.0113484 1.74007e-20)
(-0.0244978 0.0277993 -2.51204e-19)
(-0.0324639 0.0394208 -2.38004e-19)
(-0.0333859 0.0467913 -1.59787e-19)
(-0.0265262 0.0506066 2.88455e-19)
(-0.011111 0.0516233 -6.24875e-19)
(0.0137573 0.0506208 1.28081e-19)
(0.0491636 0.0483812 -7.40102e-20)
(0.0963927 0.0456784 2.13406e-19)
(0.156862 0.0432707 2.64459e-20)
(0.23193 0.0418876 -3.31528e-19)
(0.322526 0.0421954 1.45688e-19)
(0.428603 0.0447319 4.59662e-20)
(0.548454 0.0497605 1.45251e-19)
(0.678098 0.0572658 -1.54592e-19)
(0.811137 0.0663218 2.73853e-19)
(0.939466 0.0765515 -1.16539e-19)
(1.05467 0.0853402 6.05747e-20)
(1.14589 0.0914703 -4.08894e-20)
(1.23676 0.100781 -1.58043e-19)
(-0.0106582 0.0109122 2.78015e-19)
(-0.0246879 0.0262234 -5.24869e-20)
(-0.0312858 0.0366579 -3.3492e-20)
(-0.0296191 0.0429143 1.92751e-19)
(-0.0188346 0.0458031 -9.86032e-20)
(0.00199307 0.0461835 5.64313e-19)
(0.0339422 0.0449273 2.65047e-20)
(0.0782844 0.0429069 1.75197e-19)
(0.136441 0.0409879 -2.96093e-19)
(0.209812 0.0400147 -2.27102e-19)
(0.299423 0.0407757 3.36439e-19)
(0.405365 0.0439258 -2.76989e-19)
(0.526071 0.0498664 2.24712e-19)
(0.657626 0.0585092 -4.03175e-20)
(0.793492 0.0694148 6.8774e-19)
(0.9252 0.0807515 -1.41602e-20)
(1.04371 0.0925099 2.35956e-19)
(1.14125 0.0994017 3.39592e-19)
(1.21577 0.10708 2.02308e-19)
(1.26946 0.10738 3.2061e-19)
(-0.0109647 0.0103998 1.34939e-19)
(-0.0244041 0.0244161 -3.03541e-19)
(-0.0290777 0.0335636 1.02702e-19)
(-0.024092 0.0386689 1.6836e-19)
(-0.00847046 0.0406721 1.42498e-19)
(0.0188747 0.0405527 -4.10783e-19)
(0.0591989 0.0392917 1.86014e-19)
(0.113917 0.0378668 8.53384e-20)
(0.184467 0.0372411 3.68745e-20)
(0.27198 0.0383297 1.53695e-19)
(0.376734 0.0419235 -9.03218e-20)
(0.497393 0.0485475 2.80484e-19)
(0.630242 0.0582815 -2.35685e-19)
(0.768789 0.0704876 -2.42259e-19)
(0.904226 0.0840791 -4.1733e-19)
(1.02718 0.0966861 -1.31687e-19)
(1.12939 0.108003 -2.83259e-19)
(1.20694 0.112962 -3.10847e-19)
(1.26059 0.11961 -2.78773e-19)
(1.28599 0.109446 -1.52989e-19)
(-0.0111294 0.00979664 2.06136e-19)
(-0.0235137 0.0223638 -5.33255e-20)
(-0.0256002 0.0301546 -1.42371e-19)
(-0.0164465 0.0341239 -4.62477e-19)
(0.00505001 0.0353531 -3.68864e-20)
(0.0401364 0.0349576 4.9285e-19)
(0.0902107 0.0340417 -1.11417e-19)
(0.156733 0.0336956 9.62979e-20)
(0.240942 0.0349692 2.30245e-19)
(0.343334 0.0387999 6.92142e-20)
(0.462893 0.0458734 -4.49809e-19)
(0.596241 0.0564071 -1.11692e-19)
(0.737082 0.0699374 -7.82934e-20)
(0.876516 0.0851279 2.23848e-19)
(1.00454 0.100238 6.44825e-19)
(1.11255 0.112722 -2.03184e-19)
(1.19507 0.122157 -1.32847e-19)
(1.25247 0.125134 3.41998e-19)
(1.28566 0.127601 1.85335e-19)
(1.30336 0.118619 7.97992e-20)
(-0.0111008 0.00908817 -2.21264e-19)
(-0.0218614 0.0200542 1.63486e-19)
(-0.0205884 0.0264535 -3.34666e-19)
(-0.00630384 0.0293603 3.7821e-20)
(0.0222144 0.0300051 2.35135e-19)
(0.066346 0.0296513 -5.00435e-19)
(0.127554 0.0295339 -5.26717e-19)
(0.207167 0.0308484 9.63005e-21)
(0.305909 0.034692 -3.15951e-19)
(0.423149 0.0419306 -2.2416e-19)
(0.555979 0.0529778 3.59038e-19)
(0.698493 0.0675232 5.73066e-19)
(0.841842 0.0843715 -2.25001e-19)
(0.975596 0.101484 -1.42588e-19)
(1.0902 0.116708 -3.59008e-19)
(1.17952 0.127736 2.53423e-20)
(1.24197 0.134578 -1.27205e-20)
(1.28084 0.134898 -1.29318e-20)
(1.3003 0.134832 3.66623e-20)
(1.30931 0.124622 4.71503e-19)
(-0.0108179 0.00826176 2.2213e-19)
(-0.0192734 0.0174826 2.461e-19)
(-0.0137582 0.0224962 3.25057e-19)
(0.00672356 0.0244791 1.29428e-19)
(0.0434915 0.0248136 -1.77731e-19)
(0.0979991 0.0249171 -1.24987e-19)
(0.171635 0.02615 -1.77963e-20)
(0.265334 0.0297822 1.8065e-19)
(0.378876 0.0368793 1.67498e-19)
(0.509936 0.0480849 1.08194e-19)
(0.653189 0.0633246 -1.32672e-20)
(0.800067 0.0815509 -2.74856e-19)
(0.939835 0.100774 2.22431e-19)
(1.06202 0.118462 -3.30582e-20)
(1.15921 0.132457 1.03149e-19)
(1.22885 0.141119 4.51016e-20)
(1.27295 0.145015 -3.4365e-20)
(1.29716 0.143007 8.84387e-20)
(1.3064 0.140617 -6.76315e-20)
(1.30923 0.129873 -4.68006e-19)
(-0.0102122 0.0073096 1.16267e-19)
(-0.0155609 0.014658 -4.43533e-19)
(-0.00481462 0.0183403 2.19015e-19)
(0.0230168 0.0196103 9.18104e-20)
(0.0693063 0.0199977 -2.70708e-19)
(0.135477 0.0210697 2.65452e-19)
(0.222633 0.0242882 1.50193e-19)
(0.330952 0.0309324 -3.61252e-19)
(0.458755 0.0419053 4.43415e-20)
(0.601477 0.0574243 -6.98135e-20)
(0.751095 0.0766993 1.65965e-19)
(0.896803 0.0978288 -1.26459e-19)
(1.02725 0.118167 -1.93499e-19)
(1.1336 0.135072 2.87154e-19)
(1.21178 0.146825 -1.402e-19)
(1.26291 0.152668 5.65544e-20)
(1.29177 0.153752 -1.33079e-19)
(1.30494 0.149746 1.07053e-21)
(1.3074 0.145663 -1.19249e-19)
(1.30675 0.134515 1.30088e-19)
(-0.00920886 0.0062311 -2.89022e-20)
(-0.0105257 0.0116092 -1.3206e-19)
(0.00653825 0.0140731 -1.4913e-19)
(0.0429332 0.0149202 8.6225e-20)
(0.100011 0.0158148 -2.53859e-20)
(0.179004 0.0184547 1.61762e-19)
(0.280438 0.0243507 1.15839e-19)
(0.403286 0.0346812 1.11425e-19)
(0.543869 0.0500017 3.67281e-20)
(0.694983 0.0698685 9.81973e-20)
(0.846076 0.0926041 1.66726e-19)
(0.985108 0.115509 3.69331e-20)
(1.1017 0.135616 -8.38651e-20)
(1.19 0.150619 6.36407e-20)
(1.24966 0.159543 2.09609e-19)
(1.28483 0.162532 -3.77874e-19)
(1.30183 0.161143 1.21336e-19)
(1.30723 0.155593 1.41165e-19)
(1.30541 0.150211 4.66807e-20)
(1.3023 0.138845 9.21284e-20)
(-0.00772931 0.00503493 -4.63888e-20)
(-0.00396646 0.00838933 2.88191e-19)
(0.0205852 0.00981718 1.01319e-19)
(0.0667868 0.010617 -3.11346e-19)
(0.135854 0.0125626 -8.38989e-20)
(0.228605 0.0174408 1.59478e-19)
(0.34461 0.0267212 7.81547e-20)
(0.481135 0.0413204 2.74562e-19)
(0.632031 0.0612169 -1.0397e-20)
(0.787385 0.0850915 1.33651e-20)
(0.934809 0.110343 -1.41262e-19)
(1.06245 0.133728 -2.22586e-19)
(1.16236 0.152399 -2.39431e-20)
(1.23234 0.164747 -1.40608e-19)
(1.27539 0.170656 1.17805e-19)
(1.29766 0.171018 5.72684e-19)
(1.30592 0.167589 2.23476e-19)
(1.30608 0.160881 -2.17901e-19)
(1.3016 0.154507 -1.07808e-19)
(1.29707 0.143023 4.38824e-20)
(-0.00569296 0.00374049 2.28884e-19)
(0.00431352 0.00507999 -3.51732e-19)
(0.0375861 0.00573502 -3.36516e-19)
(0.0948254 0.00695285 4.60048e-19)
(0.17695 0.0105747 1.38647e-19)
(0.284064 0.0184049 -8.6495e-20)
(0.414349 0.0317366 -2.51409e-19)
(0.562865 0.0510134 -3.14158e-19)
(0.720732 0.0753976 2.11537e-19)
(0.875697 0.102568 3.76943e-20)
(1.0147 0.12915 1.13326e-19)
(1.12757 0.151755 9.36571e-20)
(1.20973 0.168076 -5.20492e-21)
(1.26258 0.177393 -6.30651e-20)
(1.29165 0.180394 -1.27002e-19)
(1.304 0.178484 -3.42529e-19)
(1.30611 0.173428 -1.34321e-19)
(1.30285 0.165865 4.47782e-19)
(1.29678 0.15869 7.42483e-20)
(1.29129 0.147161 -1.09231e-19)
(-0.00301985 0.00237888 -2.39404e-19)
(0.0144985 0.00179264 2.48132e-19)
(0.0577606 0.00202952 5.53942e-21)
(0.127207 0.00422076 -1.04237e-19)
(0.223243 0.01021 -3.36758e-20)
(0.344901 0.0217097 -3.0038e-20)
(0.4885 0.0396532 -1.85147e-19)
(0.646513 0.0637678 2.25076e-19)
(0.80739 0.0922019 -3.75029e-19)
(0.957373 0.12166 1.09125e-21)
(1.08414 0.148314 -6.76835e-20)
(1.18037 0.169078 -3.36752e-20)
(1.24519 0.182472 7.74874e-20)
(1.283 0.188693 -1.71638e-19)
(1.30085 0.189061 -9.80468e-21)
(1.3059 0.185261 9.41635e-20)
(1.30379 0.178923 -2.30289e-19)
(1.29835 0.170711 -2.72525e-21)
(1.29134 0.162853 -2.06158e-22)
(1.28519 0.151297 1.92966e-19)
(0.000366671 0.000993385 3.50215e-20)
(0.026751 -0.00133098 6.86467e-20)
(0.0812715 -0.00105826 1.34873e-19)
(0.163977 0.00274641 -7.37431e-20)
(0.274486 0.0118349 -2.38856e-19)
(0.410356 0.027676 6.26751e-20)
(0.565606 0.0506163 1.41817e-19)
(0.729943 0.0794267 7.85831e-20)
(0.889619 0.111149 2.64602e-19)
(1.03056 0.141717 -7.2635e-20)
(1.14249 0.167275 -4.34641e-20)
(1.22163 0.185413 3.69795e-20)
(1.27054 0.195615 -1.05671e-19)
(1.29577 0.198884 -1.4609e-19)
(1.30498 0.196963 -9.49399e-20)
(1.3048 0.191617 7.77614e-20)
(1.29989 0.18426 1.9576e-19)
(1.29307 0.175521 -9.47181e-20)
(1.28549 0.167041 -1.46774e-19)
(1.27886 0.155461 2.16552e-20)
(0.00453688 -0.000360474 6.27238e-20)
(0.0412014 -0.00412054 1.43247e-20)
(0.108208 -0.00325487 -1.82233e-19)
(0.205043 0.00287545 2.41653e-19)
(0.330225 0.0158018 5.37899e-20)
(0.479408 0.0365533 -2.83928e-19)
(0.643991 0.0646395 1.08513e-19)
(0.81104 0.0976876 -1.42692e-19)
(0.965468 0.131692 7.01498e-21)
(1.09419 0.162165 2.34523e-20)
(1.18996 0.185654 6.76843e-20)
(1.25267 0.200672 7.69518e-21)
(1.28767 0.207655 2.96884e-19)
(1.30277 0.208234 1.16953e-19)
(1.30554 0.204369 -5.45954e-20)
(1.30172 0.197752 -6.38092e-20)
(1.29497 0.189557 3.67162e-20)
(1.28728 0.180353 3.65826e-20)
(1.27933 0.171279 -6.04601e-20)
(1.27233 0.159657 -6.86994e-20)
(0.00955103 -0.00161534 -7.36381e-20)
(0.0579385 -0.00638039 4.72407e-21)
(0.138569 -0.0042633 3.73048e-20)
(0.250166 0.00495678 -1.01893e-19)
(0.389791 0.0224241 1.9825e-19)
(0.550818 0.0484952 1.13317e-19)
(0.721886 0.0816018 -1.15604e-19)
(0.887901 0.118144 -7.6417e-20)
(1.03355 0.153288 6.90667e-20)
(1.14792 0.182554 -1.06886e-19)
(1.22734 0.203244 7.92361e-20)
(1.27502 0.214904 -1.72493e-21)
(1.29833 0.218804 2.35923e-21)
(1.30554 0.216998 -5.74946e-20)
(1.30361 0.21149 1.63245e-19)
(1.29731 0.203807 -1.30226e-20)
(1.28935 0.194886 6.81349e-20)
(1.28109 0.185233 -9.85861e-20)
(1.2729 0.175572 7.56371e-20)
(1.2656 0.163887 -2.88095e-20)
(0.0154555 -0.00269303 1.22129e-19)
(0.0769984 -0.00789477 1.47653e-19)
(0.172254 -0.0037745 1.09652e-19)
(0.298944 0.00932347 -1.59156e-20)
(0.452325 0.0319524 2.30488e-20)
(0.623199 0.0635446 1.94511e-21)
(0.797572 0.101263 2.50673e-19)
(0.958978 0.140339 -7.4275e-20)
(1.09308 0.175461 5.17795e-20)
(1.19201 0.202576 -2.61395e-19)
(1.25574 0.219983 3.80342e-20)
(1.29022 0.228241 1.12482e-19)
(1.304 0.229283 -5.11668e-20)
(1.30522 0.22539 1.03791e-19)
(1.29994 0.218481 -1.33511e-19)
(1.29195 0.209867 1.80168e-19)
(1.2832 0.200283 5.36453e-21)
(1.27457 0.190168 -5.82365e-20)
(1.26621 0.17992 2.63033e-21)
(1.25867 0.168142 8.84981e-20)
(0.0222789 -0.00350614 -2.31607e-19)
(0.0983566 -0.00843452 6.01147e-20)
(0.209047 -0.0014808 -2.27988e-20)
(0.350824 0.0162732 -1.69736e-19)
(0.516808 0.0445559 -6.20872e-20)
(0.695106 0.0816307 -1.20421e-19)
(0.869497 0.123296 -1.03815e-19)
(1.02316 0.163816 -1.1157e-19)
(1.14381 0.197825 1.13739e-19)
(1.22713 0.222052 5.56041e-20)
(1.27642 0.235905 -1.62048e-19)
(1.29967 0.240853 -3.95552e-20)
(1.30589 0.239298 -1.8697e-20)
(1.30264 0.233578 -7.79389e-20)
(1.29502 0.225443 -1.31564e-20)
(1.2859 0.215982 -3.14916e-20)
(1.27663 0.205759 -1.24401e-19)
(1.26774 0.195154 6.07441e-20)
(1.25927 0.184314 7.21067e-20)
(1.25154 0.172411 -1.78783e-20)
(0.0300283 -0.00396021 8.72452e-21)
(0.121921 -0.00776525 -1.08964e-19)
(0.248622 0.00290954 5.06471e-20)
(0.405106 0.0260499 -3.52374e-20)
(0.582114 0.0603096 4.3764e-20)
(0.76513 0.10258 1.98913e-19)
(0.936382 0.14732 -8.69774e-20)
(1.07977 0.18816 2.13852e-19)
(1.18592 0.220096 1.02041e-20)
(1.25415 0.240904 1.04296e-19)
(1.2906 0.251102 9.06845e-21)
(1.30454 0.252913 7.02349e-20)
(1.30491 0.249017 1.40073e-20)
(1.2984 0.241681 6.99684e-21)
(1.28915 0.232441 -9.9488e-20)
(1.27927 0.222172 1.72775e-20)
(1.26965 0.211311 8.86955e-20)
(1.2606 0.200178 4.52482e-21)
(1.25206 0.18874 -4.25259e-20)
(1.24419 0.176677 1.70873e-20)
(0.0386862 -0.00395669 2.9178e-20)
(0.147525 -0.00565682 8.96128e-20)
(0.29054 0.00965747 9.65493e-20)
(0.460978 0.0388285 -2.59811e-20)
(0.647071 0.0791902 1.26302e-19)
(0.831982 0.126134 -2.52904e-20)
(0.997258 0.172944 2.05135e-19)
(1.12854 0.213012 -2.5867e-19)
(1.21989 0.242085 -4.5415e-20)
(1.27406 0.259127 -4.51354e-20)
(1.2994 0.265694 -5.3879e-20)
(1.30581 0.264577 -1.27403e-20)
(1.30172 0.258569 1.76174e-20)
(1.29288 0.249776 -6.364e-20)
(1.28251 0.239501 6.61322e-20)
(1.27212 0.228437 -2.82138e-20)
(1.26229 0.216923 -2.18829e-20)
(1.25313 0.205222 -1.87952e-20)
(1.24457 0.193182 -1.13029e-20)
(1.2366 0.180925 -3.6748e-20)
(0.0482077 -0.00339641 1.38961e-19)
(0.174934 -0.00189337 -1.38862e-19)
(0.334263 0.0189791 1.66194e-20)
(0.517544 0.0547039 -1.72235e-20)
(0.710521 0.101081 -4.64197e-20)
(0.894559 0.151979 -9.47661e-20)
(1.05148 0.199783 -1.40404e-20)
(1.16952 0.238084 6.3111e-20)
(1.24637 0.263675 2.86402e-20)
(1.28782 0.276761 -3.44797e-20)
(1.30377 0.279802 3.86007e-20)
(1.30421 0.275974 -8.66327e-21)
(1.2968 0.268044 -7.43589e-20)
(1.28631 0.257902 1.07026e-19)
(1.2752 0.246629 2.92437e-20)
(1.2645 0.234762 -1.46729e-20)
(1.25454 0.222572 1.80952e-20)
(1.24533 0.210263 2.77098e-20)
(1.23679 0.197621 2.67558e-20)
(1.22875 0.185131 2.76387e-20)
(0.05852 -0.00218352 -1.45274e-19)
(0.203838 0.00371629 1.16967e-19)
(0.379169 0.0310337 5.12921e-20)
(0.573866 0.0736857 -1.05216e-19)
(0.771379 0.125783 -2.29989e-20)
(0.951975 0.179762 -8.71167e-20)
(1.0987 0.227484 3.47811e-20)
(1.20299 0.263149 -5.74e-20)
(1.26609 0.284804 4.33108e-21)
(1.29632 0.293866 9.02691e-21)
(1.30452 0.293533 1.6698e-20)
(1.30031 0.287196 -6.28361e-20)
(1.29048 0.277492 6.30993e-20)
(1.27886 0.266072 -4.46726e-20)
(1.26727 0.253811 -1.24798e-20)
(1.25638 0.241123 5.66853e-21)
(1.24637 0.228229 -1.23522e-20)
(1.23719 0.215277 -2.70454e-20)
(1.22871 0.202033 -1.36653e-21)
(1.22065 0.189275 -1.76068e-20)
(0.0695221 -0.000229695 -1.82843e-20)
(0.233868 0.011329 -5.53285e-20)
(0.424575 0.0459139 -1.8858e-20)
(0.629004 0.0956976 3.00777e-20)
(0.828678 0.153028 -1.90746e-20)
(1.00358 0.209119 1.95887e-20)
(1.13882 0.255731 4.53199e-20)
(1.22937 0.288031 3.98129e-20)
(1.2798 0.305444 3.12193e-20)
(1.30036 0.310504 -6.62216e-21)
(1.30226 0.306971 -1.76537e-20)
(1.29452 0.298301 2.06015e-20)
(1.28296 0.286934 -1.00711e-20)
(1.2706 0.274274 1.21867e-20)
(1.25873 0.261019 -7.33924e-21)
(1.24777 0.247487 1.50863e-20)
(1.23779 0.23386 -4.02628e-21)
(1.22868 0.220234 1.71933e-20)
(1.22031 0.206393 -3.52836e-21)
(1.21227 0.193329 2.81795e-21)
(0.0810864 0.00254171 -4.37456e-22)
(0.264601 0.0210584 -2.02504e-22)
(0.46976 0.0636398 -6.63782e-21)
(0.682054 0.120582 3.34439e-20)
(0.881598 0.182497 2.14948e-20)
(1.04893 0.239686 -1.64608e-20)
(1.17192 0.284244 -1.22923e-20)
(1.24918 0.312598 -3.7575e-21)
(1.2882 0.325586 -1.76151e-20)
(1.30057 0.326727 -1.09907e-21)
(1.29748 0.320171 6.47619e-22)
(1.28713 0.309317 -7.21347e-21)
(1.27438 0.296363 -4.55598e-21)
(1.26157 0.28248 -1.00407e-20)
(1.24958 0.268216 -1.02524e-20)
(1.23866 0.253815 -7.74909e-22)
(1.22877 0.239429 3.50994e-21)
(1.2198 0.225107 3.56324e-21)
(1.21158 0.210673 4.04726e-21)
(1.20361 0.197268 5.38236e-21)
(0.0930613 0.00619176 2.24169e-20)
(0.295573 0.0329682 -3.67207e-21)
(0.513995 0.0841561 -6.36817e-21)
(0.732181 0.148109 1.61203e-20)
(0.929476 0.213833 3.204e-20)
(1.08779 0.271106 -1.4118e-20)
(1.19824 0.312777 -1.13366e-20)
(1.26297 0.336741 -2.06597e-20)
(1.29192 0.345224 -1.79795e-20)
(1.29751 0.342571 3.45185e-21)
(1.29054 0.333161 -2.8354e-21)
(1.27832 0.320241 -1.06782e-21)
(1.26482 0.305752 -6.28064e-21)
(1.25179 0.290649 -9.57529e-21)
(1.23983 0.275356 -1.93989e-21)
(1.22902 0.260063 -7.74263e-22)
(1.2193 0.244897 -3.42635e-22)
(1.21053 0.229859 1.47664e-21)
(1.20253 0.214839 5.07498e-21)
(1.19469 0.201062 3.39962e-21)
(0.105275 0.0107626 -1.36999e-20)
(0.326297 0.0470675 -2.1917e-20)
(0.556562 0.107334 -2.91336e-20)
(0.778643 0.177983 3.88279e-20)
(0.971815 0.246657 3.6338e-20)
(1.12008 0.30304 5.73706e-23)
(1.21808 0.341112 1.30584e-20)
(1.27128 0.36037 3.5827e-20)
(1.29151 0.364346 3.78402e-20)
(1.29161 0.358048 2.3035e-20)
(1.28172 0.345937 -5.46882e-20)
(1.26822 0.331047 2.21252e-20)
(1.25432 0.315056 -8.67648e-21)
(1.24127 0.298728 2.06661e-20)
(1.22944 0.282389 -2.90377e-22)
(1.21884 0.266185 -3.02768e-21)
(1.20937 0.25022 1.59629e-21)
(1.20088 0.234455 1.11332e-20)
(1.19315 0.218853 -4.40927e-21)
(1.18551 0.204684 -1.09927e-21)
(0.117542 0.0162745 -4.54555e-20)
(0.356274 0.0633079 1.05648e-19)
(0.596786 0.132972 1.0218e-20)
(0.820808 0.209861 -1.32553e-19)
(1.00827 0.280577 -2.33477e-20)
(1.14585 0.335166 5.44692e-20)
(1.23183 0.369052 -1.23197e-19)
(1.27461 0.3834 -4.8176e-22)
(1.28746 0.382931 9.47803e-21)
(1.28321 0.373147 -2.69863e-21)
(1.27121 0.358474 2.86638e-20)
(1.25693 0.341689 -4.32534e-20)
(1.2429 0.324217 6.42337e-21)
(1.23 0.306658 -1.22395e-20)
(1.21843 0.289257 -8.16806e-21)
(1.20813 0.272131 8.02943e-21)
(1.19898 0.255355 -5.41938e-22)
(1.19083 0.238855 -1.7122e-20)
(1.18344 0.222674 8.78428e-22)
(1.17604 0.208104 -4.05605e-21)
(0.129664 0.0227245 3.41977e-20)
(0.385013 0.0815839 -6.05138e-20)
(0.634044 0.160809 -4.91346e-21)
(0.858161 0.243357 -1.13324e-19)
(1.03863 0.315197 -6.64311e-20)
(1.16526 0.367176 5.39369e-20)
(1.23988 0.396413 -6.10764e-20)
(1.27344 0.405746 6.54502e-21)
(1.28016 0.400941 4.52103e-20)
(1.27257 0.387833 -1.19463e-20)
(1.25915 0.370722 5.13427e-21)
(1.2445 0.352102 1.43838e-20)
(1.23058 0.333167 -4.04563e-20)
(1.21798 0.314372 4.66427e-20)
(1.20678 0.295903 3.88757e-20)