0.11487 	0.495143 	-1.25107e-18 	0.468269 	-0.0200259 	5.70454e-17
