/*--------------------------------*- C++ -*----------------------------------*\
  =========                 |
  \\      /  F ield         | OpenFOAM: The Open Source CFD Toolbox
   \\    /   O peration     | Website:  https://openfoam.org
    \\  /    A nd           | Version:  7
     \\/     M anipulation  |
\*---------------------------------------------------------------------------*/
FoamFile
{
    version     2.0;
    format      ascii;
    class       surfaceScalarField;
    location    "6.4";
    object      phi;
}
// * * * * * * * * * * * * * * * * * * * * * * * * * * * * * * * * * * * * * //

dimensions      [0 3 -1 0 0 0 0];

internalField   nonuniform List<scalar> 
615
(
0.000195032
-1.69395e-06
0.000195495
-1.66591e-06
0.00019595
-1.63843e-06
0.000196396
-1.6115e-06
0.000196835
-1.58509e-06
0.000197266
-1.55921e-06
0.000197689
-1.53382e-06
0.000198105
-1.50893e-06
0.000198514
-1.48451e-06
0.000198916
-1.46057e-06
0.000199311
-1.43707e-06
0.000199699
-1.41402e-06
0.00020008
-1.39141e-06
0.000200455
-1.36921e-06
0.000200824
-1.34744e-06
0.000201186
-1.32606e-06
0.000201542
-1.30508e-06
0.000201893
-1.28449e-06
0.000202237
-1.26427e-06
0.000202576
-1.24442e-06
0.000202909
-1.22493e-06
0.000203237
-1.20579e-06
0.000203559
-1.187e-06
0.000203876
-1.16855e-06
0.000204188
-1.15043e-06
0.000204495
-1.13263e-06
0.000204797
-1.11515e-06
0.000205094
-1.09797e-06
0.000205386
-1.0811e-06
0.000205674
-1.06453e-06
0.000205957
-1.04825e-06
0.000206235
-1.03225e-06
0.000206509
-1.01653e-06
0.000206779
-1.00109e-06
0.000207045
-9.8591e-07
0.000207306
-9.70996e-07
0.000207563
-9.5634e-07
0.000207816
-9.41937e-07
0.000208066
-9.27782e-07
0.000208311
-9.1387e-07
0.000208553
-9.00196e-07
0.000208791
-8.86758e-07
0.000209025
-8.7355e-07
0.000209255
-8.60568e-07
0.000209483
-8.47809e-07
0.000209706
-8.3527e-07
0.000209927
-8.22948e-07
0.000210144
-8.10838e-07
0.000210357
-7.98939e-07
0.000210568
-7.87249e-07
0.000210775
-7.75765e-07
0.000210979
-7.64486e-07
0.00021118
-7.53411e-07
0.000211379
-7.42539e-07
0.000211574
-7.31871e-07
0.000211767
-7.21408e-07
0.000211956
-7.1115e-07
-7.01101e-07
0.000224472
-2.57801e-06
0.000225063
-2.53173e-06
0.000225643
-2.48654e-06
0.00022621
-2.4424e-06
0.000226766
-2.39926e-06
0.000227311
-2.35711e-06
0.000227846
-2.3159e-06
0.000228369
-2.2756e-06
0.000228883
-2.23619e-06
0.000229387
-2.19764e-06
0.000229881
-2.15992e-06
0.000230365
-2.12301e-06
0.000230841
-2.08689e-06
0.000231307
-2.05152e-06
0.000231765
-2.0169e-06
0.000232214
-1.98299e-06
0.000232655
-1.94978e-06
0.000233088
-1.91726e-06
0.000233512
-1.88539e-06
0.000233929
-1.85417e-06
0.000234339
-1.82358e-06
0.000234741
-1.79359e-06
0.000235136
-1.7642e-06
0.000235524
-1.73539e-06
0.000235905
-1.70715e-06
0.00023628
-1.67946e-06
0.000236647
-1.6523e-06
0.000237009
-1.62567e-06
0.000237364
-1.59955e-06
0.000237713
-1.57393e-06
0.000238056
-1.5488e-06
0.000238393
-1.52414e-06
0.000238724
-1.49995e-06
0.00023905
-1.47621e-06
0.000239371
-1.45292e-06
0.000239685
-1.43005e-06
0.000239995
-1.40761e-06
0.0002403
-1.38559e-06
0.000240599
-1.36397e-06
0.000240894
-1.34274e-06
0.000241183
-1.3219e-06
0.000241468
-1.30144e-06
0.000241748
-1.28135e-06
0.000242024
-1.26162e-06
0.000242295
-1.24224e-06
0.000242562
-1.22321e-06
0.000242825
-1.20452e-06
0.000243083
-1.18617e-06
0.000243337
-1.16814e-06
0.000243588
-1.15043e-06
0.000243834
-1.13303e-06
0.000244076
-1.11594e-06
0.000244315
-1.09915e-06
0.00024455
-1.08266e-06
0.000244781
-1.06646e-06
0.000245009
-1.05055e-06
0.000245233
-1.03492e-06
0.000245453
-1.01957e-06
0.00024567
-1.00449e-06
0.000245884
-9.89693e-07
0.000246095
-9.75162e-07
0.000246303
-9.60899e-07
0.000246507
-9.46905e-07
0.000246708
-9.33178e-07
0.000246907
-9.1972e-07
0.000247102
-9.06532e-07
-8.93617e-07
0.000257811
-3.19751e-06
0.000258416
-3.13743e-06
0.000259009
-3.07886e-06
0.000259588
-3.02175e-06
0.000260155
-2.96605e-06
0.00026071
-2.9117e-06
0.000261252
-2.85866e-06
0.000261784
-2.80688e-06
0.000262304
-2.75633e-06
0.000262813
-2.70696e-06
0.000263312
-2.65872e-06
0.0002638
-2.6116e-06
0.000264279
-2.56554e-06
0.000264748
-2.52053e-06
0.000265208
-2.47651e-06
0.000265658
-2.43347e-06
0.0002661
-2.39138e-06
0.000266533
-2.35021e-06
0.000266957
-2.30992e-06
0.000267374
-2.2705e-06
0.000267782
-2.23192e-06
0.000268183
-2.19416e-06
0.000268576
-2.15719e-06
0.000268961
-2.121e-06
0.00026934
-2.08555e-06
0.000269711
-2.05083e-06
0.000270075
-2.01683e-06
0.000270433
-1.98351e-06
0.000270785
-1.95087e-06
0.00027113
-1.91889e-06
0.000271468
-1.88754e-06
0.000271801
-1.85682e-06
0.000272128
-1.8267e-06
0.000272449
-1.79718e-06
0.000272764
-1.76823e-06
0.000273074
-1.73985e-06
0.000273378
-1.71201e-06
0.000273677
-1.68471e-06
0.000273971
-1.65793e-06
0.00027426
-1.63166e-06
0.000274544
-1.60589e-06
0.000274823
-1.5806e-06
0.000275098
-1.55579e-06
0.000275368
-1.53144e-06
0.000275633
-1.50755e-06
0.000275894
-1.4841e-06
0.00027615
-1.46108e-06
0.000276403
-1.43849e-06
0.000276651
-1.41631e-06
0.000276895
-1.39454e-06
0.000277135
-1.37316e-06
0.000277371
-1.35218e-06
0.000277604
-1.33158e-06
0.000277832
-1.31135e-06
0.000278057
-1.29149e-06
0.000278279
-1.27199e-06
0.000278497
-1.25285e-06
0.000278711
-1.23406e-06
0.000278922
-1.21562e-06
0.00027913
-1.19751e-06
0.000279335
-1.17975e-06
0.000279536
-1.16232e-06
0.000279735
-1.14523e-06
0.00027993
-1.12847e-06
0.000280122
-1.11205e-06
0.000280312
-1.09597e-06
-1.08022e-06
0.000290078
-3.79853e-06
0.000290665
-3.7238e-06
0.000291237
-3.65109e-06
0.000291796
-3.58032e-06
0.000292341
-3.51141e-06
0.000292874
-3.44431e-06
0.000293394
-3.37893e-06
0.000293902
-3.31522e-06
0.000294399
-3.25312e-06
0.000294885
-3.19257e-06
0.000295359
-3.13352e-06
0.000295824
-3.07591e-06
0.000296278
-3.01969e-06
0.000296722
-2.96482e-06
0.000297157
-2.91126e-06
0.000297582
-2.85896e-06
0.000297999
-2.80788e-06
0.000298407
-2.75798e-06
0.000298806
-2.70923e-06
0.000299197
-2.66158e-06
0.00029958
-2.61501e-06
0.000299955
-2.56948e-06
0.000300323
-2.52496e-06
0.000300684
-2.48142e-06
0.000301037
-2.43884e-06
0.000301383
-2.39718e-06
0.000301723
-2.35641e-06
0.000302056
-2.31652e-06
0.000302383
-2.27747e-06
0.000302703
-2.23925e-06
0.000303017
-2.20183e-06
0.000303326
-2.16519e-06
0.000303628
-2.1293e-06
0.000303925
-2.09415e-06
0.000304217
-2.05972e-06
0.000304503
-2.02598e-06
0.000304784
-1.99293e-06
0.000305059
-1.96054e-06
0.00030533
-1.92879e-06
0.000305596
-1.89767e-06
0.000305858
-1.86717e-06
0.000306114
-1.83726e-06
0.000306366
-1.80793e-06
0.000306614
-1.77918e-06
0.000306858
-1.75097e-06
0.000307097
-1.72331e-06
0.000307332
-1.69618e-06
0.000307563
-1.66956e-06
0.00030779
-1.64345e-06
0.000308013
-1.61783e-06
0.000308233
-1.5927e-06
0.000308449
-1.56804e-06
0.000308661
-1.54384e-06
0.00030887
-1.52009e-06
0.000309075
-1.49679e-06
0.000309277
-1.47392e-06
0.000309476
-1.45148e-06
0.000309671
-1.42947e-06
0.000309863
-1.40787e-06
0.000310052
-1.38668e-06
0.000310239
-1.3659e-06
0.000310422
-1.34552e-06
0.000310602
-1.32554e-06
0.00031078
-1.30597e-06
0.000310954
-1.28679e-06
0.000311126
-1.26801e-06
-1.24964e-06
0.000320755
-4.34374e-06
0.000321286
-4.25436e-06
0.000321802
-4.16757e-06
0.000322305
-4.08325e-06
0.000322795
-4.0013e-06
0.000323273
-3.92164e-06
0.000323738
-3.84416e-06
0.000324191
-3.76879e-06
0.000324634
-3.69545e-06
0.000325065
-3.62405e-06
0.000325486
-3.55453e-06
0.000325897
-3.48682e-06
0.000326298
-3.42084e-06
0.00032669
-3.35655e-06
0.000327073
-3.29387e-06
0.000327446
-3.23276e-06
0.000327812
-3.17315e-06
0.000328169
-3.115e-06
0.000328518
0.000328859
0.000329193
0.000329519
0.000329839
0.000330152
0.000330458
0.000330757
0.000331051
0.000331338
0.000331619
0.000331895
0.000332165
0.00033243
0.00033269
0.000332944
0.000333194
0.000333439
0.000333678
0.000333914
0.000334145
0.000334371
0.000334594
0.000334812
0.000335026
0.000335236
0.000335443
0.000335646
0.000335845
0.00033604
0.000336232
0.000336421
0.000336606
0.000336789
0.000336968
0.000337143
0.000337316
0.000337486
0.000337653
0.000337818
0.000337979
0.000338138
0.000338294
0.000338448
0.000338599
0.000338748
0.000338895
0.000339039
0.00034919
0.000349629
0.000350054
0.000350466
0.000350867
0.000351256
0.000351634
0.000352002
0.00035236
0.000352708
0.000353046
0.000353376
0.000353697
0.000354009
0.000354314
0.000354611
0.0003549
)
;

boundaryField
{
    inlet
    {
        type            calculated;
        value           nonuniform 0();
    }
    outlet
    {
        type            calculated;
        value           nonuniform 0();
    }
    wall
    {
        type            calculated;
        value           nonuniform 0();
    }
    wedge1
    {
        type            wedge;
        value           nonuniform List<scalar> 
344
(
3.90628e-16
6.31999e-17
4.5876e-16
6.93721e-17
4.84879e-16
3.83686e-16
6.20016e-17
4.49841e-16
6.79284e-17
4.74514e-16
3.77127e-16
6.10483e-17
4.41345e-16
6.66915e-17
4.64604e-16
3.7062e-16
5.98239e-17
4.32957e-16
6.52453e-17
4.5495e-16
3.64137e-16
5.89e-17
4.24705e-16
6.40437e-17
4.45504e-16
3.5789e-16
5.77402e-17
4.16763e-16
6.26712e-17
4.36432e-16
3.51624e-16
5.68243e-17
4.08919e-16
6.15482e-17
4.27523e-16
3.45641e-16
5.56559e-17
4.01373e-16
6.02496e-17
4.18984e-16
3.39645e-16
5.47982e-17
3.93901e-16
5.91864e-17
4.1057e-16
4.45898e-17
3.33871e-16
5.36761e-17
3.86701e-16
5.79243e-17
4.02466e-16
4.36532e-17
3.28109e-16
5.28328e-17
3.79572e-16
5.68997e-17
3.94483e-16
4.29019e-17
3.22623e-16
5.17575e-17
3.72723e-16
5.57049e-17
3.86825e-16
4.23456e-17
3.17107e-16
5.09592e-17
3.65905e-16
5.47411e-17
3.79274e-16
4.16173e-17
3.11949e-16
4.99451e-17
3.5941e-16
5.36032e-17
3.72059e-16
4.05415e-17
3.06494e-16
4.898e-17
3.52899e-16
5.25938e-17
3.64858e-16
3.99095e-17
3.01239e-16
4.82834e-17
3.4665e-16
5.17491e-17
3.57958e-16
3.92786e-17
2.96302e-16
4.74027e-17
3.4053e-16
5.07735e-17
3.51221e-16
3.86946e-17
2.91435e-16
4.6553e-17
3.34547e-16
4.98268e-17
3.4466e-16
3.81233e-17
2.86677e-16
4.57506e-17
3.28684e-16
4.89166e-17
3.75954e-17
2.82007e-16
4.49963e-17
3.22959e-16
4.80357e-17
3.70644e-17
2.77435e-16
4.42047e-17
3.17352e-16
4.71623e-17
3.6515e-17
2.72918e-16
4.3453e-17
3.11866e-16
4.63029e-17
3.59793e-17
2.68505e-16
4.27459e-17
3.0649e-16
4.5476e-17
3.54954e-17
2.64198e-16
4.20355e-17
3.01241e-16
4.46466e-17
3.49854e-17
2.59964e-16
4.13233e-17
2.96122e-16
4.38584e-17
3.45154e-17
2.55839e-16
4.06744e-17
2.9111e-16
4.30897e-17
3.40077e-17
2.51703e-16
3.99732e-17
2.86124e-16
4.22759e-17
3.3601e-17
2.4785e-16
3.94762e-17
2.81421e-16
4.16661e-17
3.30503e-17
2.44005e-16
3.8728e-17
2.76793e-16
4.0848e-17
3.2647e-17
2.40043e-16
3.82413e-17
2.72099e-16
4.0262e-17
3.20372e-17
2.36253e-16
3.74676e-17
2.67635e-16
3.94387e-17
3.13115e-17
2.32352e-16
3.69401e-17
2.63116e-16
3.88544e-17
3.09004e-17
2.28891e-16
3.6285e-17
2.58938e-16
3.81308e-17
3.03596e-17
2.24989e-16
3.56533e-17
2.54489e-16
3.74447e-17
2.97218e-17
2.21485e-16
3.508e-17
2.50332e-16
3.67748e-17
2.92596e-17
2.1796e-16
3.44879e-17
2.46262e-16
3.61484e-17
2.86055e-17
2.14533e-16
3.38978e-17
2.42231e-16
3.5528e-17
2.81483e-17
2.11117e-16
3.33214e-17
2.38276e-16
3.4909e-17
2.75364e-17
2.07829e-16
3.27636e-17
2.34442e-16
3.43252e-17
2.70797e-17
2.04509e-16
3.21996e-17
2.30662e-16
3.37588e-17
2.64372e-17
2.0133e-16
3.16713e-17
2.26948e-16
3.31948e-17
2.59966e-17
1.98108e-16
3.11401e-17
2.23309e-16
3.26492e-17
2.54061e-17
1.95036e-16
3.06037e-17
2.19749e-16
3.2092e-17
2.50215e-17
1.91928e-16
3.00461e-17
2.1621e-16
3.15273e-17
2.43585e-17
1.8897e-16
2.95579e-17
2.12799e-16
3.10136e-17
2.40681e-17
1.86055e-16
2.89653e-17
2.09372e-16
3.0399e-17
2.3666e-17
1.82918e-16
2.84166e-17
2.05891e-16
2.98647e-17
2.30834e-17
1.80116e-16
2.79143e-17
2.02663e-16
2.93483e-17
2.26704e-17
1.77281e-16
2.74226e-17
1.99485e-16
2.88516e-17
2.21536e-17
1.74587e-16
2.6958e-17
1.96355e-16
2.83857e-17
2.18437e-17
1.71874e-16
2.64866e-17
1.93297e-16
2.79253e-17
2.13347e-17
1.69248e-16
2.60541e-17
1.90289e-16
2.74592e-17
2.09982e-17
1.66615e-16
2.56092e-17
1.87336e-16
2.70261e-17
2.05117e-17
1.64071e-16
2.51935e-17
1.84435e-16
2.65844e-17
2.01945e-17
1.61517e-16
2.47295e-17
1.8158e-16
2.61534e-17
1.97287e-17
1.59084e-16
2.43264e-17
1.78781e-16
2.57292e-17
1.94151e-17
1.56639e-16
2.39263e-17
1.76044e-16
2.53274e-17
1.89479e-17
1.54281e-16
2.35381e-17
1.73355e-16
2.49344e-17
1.86753e-17
1.51903e-16
2.31103e-17
1.70716e-16
2.45468e-17
1.82549e-17
1.49644e-16
2.27193e-17
1.68123e-16
2.41502e-17
1.80275e-17
1.47366e-16
2.23276e-17
1.65568e-16
2.37477e-17
1.76004e-17
1.45186e-16
2.19811e-17
1.63067e-16
2.33967e-17
1.73755e-17
1.42979e-16
2.16061e-17
1.60642e-16
2.30231e-17
1.69653e-17
1.40893e-16
2.1241e-17
1.58227e-16
2.26583e-17
1.67268e-17
1.3875e-16
2.08723e-17
1.55862e-16
2.23047e-17
1.63236e-17
1.36734e-16
2.0549e-17
1.53543e-16
2.19594e-17
1.60854e-17
1.34683e-16
2.01832e-17
1.51288e-16
2.15953e-17
)
;
    }
    wedge2
    {
        type            wedge;
        value           nonuniform List<scalar> 
344
(
3.86332e-16
6.00066e-17
4.56527e-16
6.80066e-17
4.8436e-16
3.79558e-16
5.89275e-17
4.4774e-16
6.66664e-17
4.74213e-16
3.7271e-16
5.76591e-17
4.38995e-16
6.51978e-17
4.64227e-16
3.66118e-16
5.67158e-17
4.30593e-16
6.4014e-17
4.54575e-16
3.59793e-16
5.55241e-17
4.22486e-16
6.26581e-17
4.45282e-16
3.53517e-16
5.46188e-17
4.14486e-16
6.15427e-17
4.36158e-16
3.47531e-16
5.35177e-17
4.06789e-16
6.02447e-17
4.2739e-16
3.41528e-16
5.27163e-17
3.99181e-16
5.91868e-17
4.18752e-16
3.35795e-16
5.16494e-17
3.91871e-16
5.79553e-17
4.10467e-16
3.99217e-17
3.3009e-16
5.08908e-17
3.84649e-16
5.69823e-17
4.02333e-16
3.94938e-17
3.24612e-16
4.98959e-17
3.77704e-16
5.58295e-17
3.9452e-16
3.889e-17
3.19094e-16
4.9174e-17
3.70816e-16
5.49025e-17
3.86808e-16
3.81174e-17
3.13832e-16
4.82153e-17
3.64221e-16
5.37979e-17
3.79398e-16
3.7525e-17
3.08436e-16
4.75108e-17
3.57618e-16
5.29187e-17
3.72046e-16
3.73397e-17
3.03552e-16
4.67859e-17
3.51337e-16
5.19556e-17
3.65062e-16
3.67176e-17
2.98681e-16
4.58468e-17
3.45086e-16
5.08865e-17
3.5814e-16
3.61181e-17
2.93691e-16
4.51181e-17
3.38991e-16
4.99897e-17
3.51409e-16
3.5495e-17
2.8883e-16
4.43928e-17
3.33037e-16
4.91086e-17
3.44842e-16
3.48814e-17
2.84053e-16
4.36533e-17
3.2723e-16
4.82344e-17
3.42466e-17
2.79375e-16
4.28982e-17
3.21544e-16
4.73733e-17
3.36366e-17
2.74784e-16
4.22119e-17
3.15993e-16
4.6545e-17
3.30657e-17
2.70316e-16
4.15163e-17
3.10565e-16
4.57422e-17
3.25017e-17
2.65918e-16
4.0806e-17
3.05264e-16
4.4945e-17
3.19059e-17
2.61585e-16
4.0128e-17
3.00068e-16
4.41875e-17
3.13559e-17
2.57344e-16
3.94798e-17
2.94965e-16
4.34245e-17
3.07852e-17
2.53156e-16
3.87958e-17
2.89972e-16
4.26767e-17
3.02707e-17
2.49136e-16
3.81909e-17
2.85164e-16
4.20077e-17
2.96736e-17
2.44983e-16
3.74077e-17
2.80277e-16
4.11674e-17
2.92386e-17
2.40979e-16
3.69017e-17
2.75516e-16
4.0567e-17
2.86738e-17
2.37236e-16
3.61583e-17
2.71018e-16
3.97654e-17
2.83192e-17
2.33467e-16
3.57261e-17
2.66478e-16
3.92312e-17
2.8124e-17
2.29948e-16
3.50714e-17
2.62177e-16
3.84869e-17
2.76174e-17
2.26128e-16
3.45673e-17
2.57713e-16
3.791e-17
2.72443e-17
2.22887e-16
3.40621e-17
2.537e-16
3.73231e-17
2.70088e-17
2.19374e-16
3.35204e-17
2.49561e-16
3.67468e-17
2.65888e-17
2.16011e-16
3.30188e-17
2.45499e-16
3.61528e-17
2.63999e-17
2.12675e-16
3.25358e-17
2.41561e-16
3.55781e-17
2.60052e-17
2.0945e-16
3.20597e-17
2.37704e-16
3.50267e-17
2.58031e-17
2.06217e-16
3.15845e-17
2.33879e-16
3.44638e-17
2.54361e-17
2.03133e-16
3.11353e-17
2.30149e-16
3.39068e-17
2.52935e-17
2.00024e-16
3.06691e-17
2.26499e-16
3.33699e-17
2.49393e-17
1.97069e-16
3.02243e-17
2.22917e-16
3.28369e-17
2.47709e-17
1.94074e-16
2.98025e-17
2.19394e-16
3.2337e-17
2.4387e-17
1.91223e-16
2.942e-17
2.15985e-16
3.18655e-17
2.43172e-17
1.88328e-16
2.8985e-17
2.12581e-16
3.13633e-17
2.38763e-17
1.85487e-16
2.86716e-17
2.09318e-16
3.0982e-17
2.35494e-17
1.82981e-16
2.83306e-17
2.06243e-16
3.05396e-17
2.34352e-17
1.80233e-16
2.79595e-17
2.03034e-16
3.00986e-17
2.31437e-17
1.77616e-16
2.75935e-17
1.99896e-16
2.96564e-17
2.29874e-17
1.74953e-16
2.72159e-17
1.96827e-16
2.92014e-17
2.26169e-17
1.72402e-16
2.68603e-17
1.93803e-16
2.87584e-17
2.24746e-17
1.69856e-16
2.64808e-17
1.9084e-16
2.83384e-17
2.21541e-17
1.67407e-16
2.6128e-17
1.87933e-16
2.79024e-17
2.20111e-17
1.64958e-16
2.57607e-17
1.85083e-16
2.74913e-17
2.1693e-17
1.62606e-16
2.54556e-17
1.82293e-16
2.70862e-17
2.15506e-17
1.60218e-16
2.51033e-17
1.79551e-16
2.66898e-17
2.12496e-17
1.57927e-16
2.47619e-17
1.76848e-16
2.62866e-17
2.11301e-17
1.55633e-16
2.44215e-17
1.742e-16
2.589e-17
2.08094e-17
1.53439e-16
2.41343e-17
1.716e-16
2.5503e-17
2.06626e-17
1.51208e-16
2.38232e-17
1.69053e-16
2.51397e-17
2.03171e-17
1.49077e-16
2.35256e-17
1.66563e-16
2.47971e-17
2.0197e-17
1.46928e-16
2.31957e-17
1.64116e-16
2.44176e-17
1.98697e-17
1.44885e-16
2.29071e-17
1.61688e-16
2.40749e-17
1.97518e-17
1.428e-16
2.26208e-17
1.59344e-16
2.37376e-17
1.94585e-17
1.40851e-16
2.2351e-17
1.57045e-16
2.34035e-17
1.9353e-17
1.38855e-16
2.20486e-17
1.54794e-16
2.30752e-17
1.90796e-17
1.36974e-16
2.18013e-17
1.52575e-16
2.27802e-17
)
;
    }
    axis
    {
        type            empty;
        value           nonuniform 0();
    }
    procBoundary7to1
    {
        type            processor;
        value           nonuniform List<scalar> 
68
(
1.22251e-06
1.20295e-06
1.18375e-06
1.1649e-06
1.1464e-06
1.12824e-06
1.11042e-06
1.09291e-06
1.07572e-06
1.05884e-06
1.04227e-06
1.02598e-06
1.00999e-06
9.94279e-07
9.78845e-07
9.63681e-07
9.48783e-07
9.34145e-07
9.19762e-07
9.05627e-07
8.91737e-07
8.78087e-07
8.64671e-07
8.51485e-07
8.38525e-07
8.25787e-07
8.13265e-07
8.00955e-07
7.88855e-07
7.76959e-07
7.65264e-07
7.53765e-07
7.4246e-07
7.31345e-07
7.20416e-07
7.0967e-07
6.99103e-07
6.88713e-07
6.78496e-07
6.68449e-07
6.58569e-07
6.48854e-07
6.39301e-07
6.29907e-07
6.2067e-07
6.11588e-07
6.02658e-07
5.9388e-07
5.8525e-07
5.76768e-07
5.68432e-07
5.60242e-07
5.52197e-07
5.44297e-07
5.36541e-07
5.28932e-07
5.21469e-07
5.14156e-07
1.97447e-06
1.94055e-06
1.90738e-06
1.87492e-06
1.84315e-06
1.81205e-06
1.7816e-06
1.75178e-06
-0.000194561
1.72257e-06
)
;
    }
    procBoundary7to6
    {
        type            processor;
        value           nonuniform List<scalar> 4(-0.000223869 -0.000257191 -0.000289477 -0.00032021);
    }
    procBoundary7to8
    {
        type            processor;
        value           nonuniform List<scalar> 5(0.000212143 0.000247294 0.000280498 0.000311296 0.000339181);
    }
    procBoundary7to12
    {
        type            processor;
        value           uniform -0.000348739;
    }
    procBoundary7to13
    {
        type            processor;
        value           nonuniform List<scalar> 
68
(
-3.05826e-06
-3.00288e-06
-2.94882e-06
-2.89603e-06
-2.84448e-06
-2.79411e-06
-2.74491e-06
-2.69682e-06
-2.64983e-06
-2.60388e-06
-2.55895e-06
-2.51502e-06
-2.47205e-06
-2.43001e-06
-2.38888e-06
-2.34862e-06
-2.30923e-06
-2.27066e-06
-2.2329e-06
-2.19593e-06
-2.15972e-06
-2.12426e-06
-2.08952e-06
-2.05549e-06
-2.02214e-06
-1.98946e-06
-1.95743e-06
-1.92604e-06
-1.89527e-06
-1.8651e-06
-1.83552e-06
-1.80652e-06
-1.77808e-06
-1.75019e-06
-1.72283e-06
-1.69601e-06
-1.6697e-06
-1.6439e-06
-1.61859e-06
-1.59377e-06
-1.56943e-06
-1.54557e-06
-1.52217e-06
-1.49924e-06
-1.47677e-06
-1.45476e-06
-1.43321e-06
-1.41211e-06
-1.39149e-06
-4.79541e-06
-4.69244e-06
-4.59263e-06
-4.49586e-06
-4.40197e-06
-4.31086e-06
-4.22241e-06
-4.13651e-06
-4.05305e-06
-3.97193e-06
-3.89307e-06
-3.81637e-06
-3.74176e-06
-3.66914e-06
-3.59846e-06
-3.52963e-06
-3.46259e-06
0.000355182
-3.39727e-06
)
;
    }
}


// ************************************************************************* //
