/*--------------------------------*- C++ -*----------------------------------*\
  =========                 |
  \\      /  F ield         | OpenFOAM: The Open Source CFD Toolbox
   \\    /   O peration     | Website:  https://openfoam.org
    \\  /    A nd           | Version:  7
     \\/     M anipulation  |
\*---------------------------------------------------------------------------*/
FoamFile
{
    version     2.0;
    format      ascii;
    class       volVectorField;
    location    "6.4";
    object      U;
}
// * * * * * * * * * * * * * * * * * * * * * * * * * * * * * * * * * * * * * //

dimensions      [0 1 -1 0 0 0 0];

internalField   nonuniform List<vector> 
344
(
(1.6402 -0.0124792 -4.84513e-15)
(1.64413 -0.0122764 -5.13461e-15)
(1.64799 -0.0120775 -5.03357e-15)
(1.65179 -0.0118824 -5.24547e-15)
(1.65551 -0.0116911 -4.15304e-15)
(1.65917 -0.0115033 -3.98332e-15)
(1.66277 -0.0113191 -3.93695e-15)
(1.6663 -0.0111383 -3.89202e-15)
(1.66978 -0.0109608 -3.96727e-15)
(1.67319 -0.0107867 -4.05172e-15)
(1.67654 -0.0106157 -4.16248e-15)
(1.67984 -0.0104479 -4.17462e-15)
(1.68308 -0.0102831 -4.13354e-15)
(1.68626 -0.0101213 -4.31653e-15)
(1.68939 -0.00996245 -4.3039e-15)
(1.69247 -0.00980644 -4.44689e-15)
(1.69549 -0.00965324 -4.57903e-15)
(1.69847 -0.00950277 -4.59545e-15)
(1.70139 -0.00935498 -4.90669e-15)
(1.70427 -0.00920981 -4.70367e-15)
(1.7071 -0.00906721 -4.83533e-15)
(1.70988 -0.00892713 -3.75675e-15)
(1.71262 -0.0087895 -4.0289e-15)
(1.71531 -0.00865429 -3.95607e-15)
(1.71796 -0.00852144 -2.92654e-15)
(1.72056 -0.0083909 -3.40676e-15)
(1.72312 -0.00826263 -2.4049e-15)
(1.72564 -0.00813658 -2.71337e-15)
(1.72812 -0.0080127 -1.79851e-15)
(1.73057 -0.00789097 -2.11551e-15)
(1.73297 -0.00777132 -1.05744e-15)
(1.73533 -0.00765372 -1.41221e-15)
(1.73766 -0.00753814 -3.89044e-16)
(1.73995 -0.00742452 -8.6458e-16)
(1.7422 -0.00731284 8.94022e-17)
(1.74442 -0.00720306 -1.04933e-16)
(1.7466 -0.00709514 -2.94508e-16)
(1.74875 -0.00698905 7.29563e-16)
(1.75086 -0.00688476 5.10785e-16)
(1.75295 -0.00678222 1.51272e-15)
(1.755 -0.00668142 9.9998e-16)
(1.75702 -0.00658232 1.66903e-15)
(1.759 -0.00648489 1.31578e-15)
(1.76096 -0.00638911 2.19179e-15)
(1.76289 -0.00629495 1.84247e-15)
(1.76479 -0.00620239 2.5953e-15)
(1.76665 -0.0061114 2.3572e-15)
(1.7685 -0.00602196 3.16215e-15)
(1.77031 -0.00593406 2.76594e-15)
(1.77209 -0.00584768 3.50102e-15)
(1.77385 -0.00576281 3.02107e-15)
(1.77558 -0.00567943 3.72242e-15)
(1.77729 -0.00559755 3.20292e-15)
(1.77897 -0.00551715 3.83089e-15)
(1.78063 -0.00543823 3.42707e-15)
(1.78226 -0.00536082 4.17106e-15)
(1.78387 -0.00528491 3.73428e-15)
(1.78546 -0.00521054 4.40969e-15)
(1.59714 -0.0165028 -5.275e-15)
(1.6014 -0.0162134 -5.06735e-15)
(1.60557 -0.0159306 -6.19554e-15)
(1.60965 -0.0156541 -4.88083e-15)
(1.61365 -0.0153837 -6.0758e-15)
(1.61758 -0.0151192 -4.81812e-15)
(1.62142 -0.0148603 -5.65679e-15)
(1.62519 -0.0146071 -4.34753e-15)
(1.62889 -0.0143591 -5.39169e-15)
(1.63251 -0.0141164 -4.01842e-15)
(1.63606 -0.0138787 -4.89859e-15)
(1.63955 -0.013646 -3.64053e-15)
(1.64297 -0.013418 -4.76173e-15)
(1.64632 -0.0131946 -3.67033e-15)
(1.64961 -0.0129758 -2.98726e-15)
(1.65284 -0.0127613 -3.15848e-15)
(1.65601 -0.0125511 -3.17022e-15)
(1.65913 -0.0123451 -3.28237e-15)
(1.66218 -0.0121431 -3.22771e-15)
(1.66518 -0.0119451 -3.3286e-15)
(1.66812 -0.011751 -3.24928e-15)
(1.67101 -0.0115605 -3.16593e-15)
(1.67385 -0.0113738 -3.21609e-15)
(1.67664 -0.0111906 -3.26103e-15)
(1.67938 -0.0110109 -3.25765e-15)
(1.68207 -0.0108347 -3.32192e-15)
(1.68472 -0.0106617 -3.25406e-15)
(1.68731 -0.010492 -4.20117e-15)
(1.68987 -0.0103255 -3.10604e-15)
(1.69237 -0.010162 -4.0625e-15)
(1.69484 -0.0100016 -2.77216e-15)
(1.69726 -0.0098442 -3.64661e-15)
(1.69964 -0.00968965 -2.70133e-15)
(1.70198 -0.00953792 -2.46241e-15)
(1.70429 -0.00938897 -2.58053e-15)
(1.70655 -0.00924271 -2.42006e-15)
(1.70877 -0.00909911 -2.3815e-15)
(1.71096 -0.00895809 -2.08784e-15)
(1.71311 -0.0088196 -2.02564e-15)
(1.71523 -0.00868359 -1.71675e-15)
(1.71731 -0.00855001 -1.58277e-15)
(1.71935 -0.0084188 -1.2771e-15)
(1.72137 -0.00828991 -1.19241e-15)
(1.72335 -0.00816331 -8.35924e-16)
(1.7253 -0.00803893 -8.72513e-16)
(1.72721 -0.00791674 -7.01752e-17)
(1.7291 -0.00779669 1.0121e-16)
(1.73095 -0.00767875 1.51068e-16)
(1.73278 -0.00756286 4.42485e-16)
(1.73458 -0.00744899 4.7418e-16)
(1.73635 -0.0073371 6.79354e-16)
(1.73809 -0.00722716 7.40732e-16)
(1.7398 -0.00711913 1.0064e-15)
(1.74149 -0.00701299 1.11121e-15)
(1.74315 -0.00690869 1.33913e-15)
(1.74478 -0.00680622 1.25562e-15)
(1.74639 -0.00670554 1.54516e-15)
(1.74797 -0.00660664 1.61711e-15)
(1.74953 -0.00650949 1.8381e-15)
(1.75107 -0.00641408 1.93359e-15)
(1.75258 -0.00632038 2.07907e-15)
(1.75407 -0.0062284 2.17435e-15)
(1.75554 -0.00613813 2.28051e-15)
(1.75698 -0.00604956 2.37811e-15)
(1.75841 -0.00596271 2.55899e-15)
(1.75981 -0.00587758 2.56116e-15)
(1.76119 -0.0057942 2.75895e-15)
(1.59 -0.0181709 -3.92807e-15)
(1.59378 -0.0178375 -3.73985e-15)
(1.59748 -0.0175121 -4.12449e-15)
(1.6011 -0.0171946 -3.74303e-15)
(1.60463 -0.0168846 -4.19168e-15)
(1.60809 -0.0165819 -3.75483e-15)
(1.61148 -0.0162862 -3.99106e-15)
(1.6148 -0.0159972 -3.65381e-15)
(1.61804 -0.0157149 -3.88998e-15)
(1.62122 -0.0154389 -3.40152e-15)
(1.62433 -0.0151691 -3.65863e-15)
(1.62738 -0.0149052 -3.16045e-15)
(1.63037 -0.0146472 -3.39671e-15)
(1.63329 -0.0143947 -2.98519e-15)
(1.63616 -0.0141477 -3.35345e-15)
(1.63897 -0.013906 -2.98129e-15)
(1.64172 -0.0136695 -2.82292e-15)
(1.64442 -0.0134379 -2.69414e-15)
(1.64707 -0.0132112 -2.60287e-15)
(1.64966 -0.0129892 -2.58419e-15)
(1.65221 -0.0127718 -2.42854e-15)
(1.65471 -0.0125588 -2.40573e-15)
(1.65716 -0.0123502 -2.35955e-15)
(1.65956 -0.0121459 -2.26235e-15)
(1.66192 -0.0119456 -2.29844e-15)
(1.66423 -0.0117494 -2.37531e-15)
(1.6665 -0.0115571 -2.11033e-15)
(1.66873 -0.0113685 -2.54764e-15)
(1.67092 -0.0111837 -2.22785e-15)
(1.67307 -0.0110026 -2.52159e-15)
(1.67518 -0.0108249 -2.06661e-15)
(1.67726 -0.0106507 -2.28207e-15)
(1.67929 -0.0104799 -2.10656e-15)
(1.68129 -0.0103123 -2.01527e-15)
(1.68326 -0.0101479 -1.95896e-15)
(1.68519 -0.00998666 -1.8808e-15)
(1.68708 -0.00982845 -1.69854e-15)
(1.68894 -0.00967323 -1.62938e-15)
(1.69077 -0.00952091 -1.40427e-15)
(1.69257 -0.00937143 -1.35206e-15)
(1.69434 -0.00922473 -1.28891e-15)
(1.69608 -0.00908074 -1.06395e-15)
(1.69779 -0.00893941 -1.02914e-15)
(1.69947 -0.00880066 -7.93652e-16)
(1.70112 -0.00866446 -7.33035e-16)
(1.70275 -0.00853073 -3.30402e-16)
(1.70434 -0.00839943 -1.26295e-16)
(1.70592 -0.00827051 8.85713e-17)
(1.70746 -0.00814391 2.20536e-16)
(1.70898 -0.0080196 3.80805e-16)
(1.71047 -0.00789752 4.13828e-16)
(1.71195 -0.00777763 4.79174e-16)
(1.71339 -0.00765989 5.36938e-16)
(1.71482 -0.00754427 6.78375e-16)
(1.71622 -0.00743071 8.44072e-16)
(1.71759 -0.0073192 9.13992e-16)
(1.71895 -0.0072097 9.50152e-16)
(1.72029 -0.00710218 1.10848e-15)
(1.7216 -0.00699661 1.29891e-15)
(1.72289 -0.00689298 1.32315e-15)
(1.72417 -0.00679126 1.37881e-15)
(1.72542 -0.00669145 1.5552e-15)
(1.72665 -0.00659353 1.62218e-15)
(1.72787 -0.0064975 1.66296e-15)
(1.72907 -0.00640337 1.74512e-15)
(1.73024 -0.00631116 1.82949e-15)
(1.7314 -0.00622087 1.94068e-15)
(1.57879 -0.0194426 -2.7654e-15)
(1.58203 -0.0190689 -2.64234e-15)
(1.58518 -0.0187049 -3.44088e-15)
(1.58826 -0.0183503 -2.42382e-15)
(1.59127 -0.0180048 -3.20862e-15)
(1.5942 -0.0176679 -2.32941e-15)
(1.59707 -0.0173394 -3.14877e-15)
(1.59987 -0.017019 -2.17183e-15)
(1.60261 -0.0167065 -2.99405e-15)
(1.60529 -0.0164014 -1.96593e-15)
(1.6079 -0.0161037 -2.82393e-15)
(1.61046 -0.015813 -1.77692e-15)
(1.61296 -0.0155292 -2.51878e-15)
(1.61541 -0.0152519 -1.70665e-15)
(1.6178 -0.014981 -1.86441e-15)
(1.62015 -0.0147163 -1.91761e-15)
(1.62244 -0.0144576 -1.96719e-15)
(1.62468 -0.0142047 -1.85809e-15)
(1.62688 -0.0139574 -1.77066e-15)
(1.62904 -0.0137156 -1.76062e-15)
(1.63114 -0.0134791 -1.63319e-15)
(1.63321 -0.0132478 -1.49382e-15)
(1.63523 -0.0130214 -1.46062e-15)
(1.63722 -0.0127999 -1.47152e-15)
(1.63916 -0.0125831 -1.43856e-15)
(1.64107 -0.0123709 -1.39431e-15)
(1.64294 -0.0121632 -1.12065e-15)
(1.64477 -0.0119598 -1.9104e-15)
(1.64656 -0.0117606 -9.96997e-16)
(1.64833 -0.0115655 -1.80961e-15)
(1.65005 -0.0113744 -9.02972e-16)
(1.65175 -0.0111872 -1.6933e-15)
(1.65341 -0.0110038 -9.90229e-16)
(1.65505 -0.010824 -9.24894e-16)
(1.65665 -0.0106479 -1.06084e-15)
(1.65822 -0.0104752 -9.8218e-16)
(1.65977 -0.0103059 -8.01688e-16)
(1.66128 -0.01014 -7.79737e-16)
(1.66277 -0.00997731 -6.41448e-16)
(1.66424 -0.00981778 -6.08517e-16)
(1.66567 -0.00966133 -5.01776e-16)
(1.66708 -0.00950789 -5.25514e-16)
(1.66847 -0.00935738 -4.44207e-16)
(1.66983 -0.00920974 -2.42198e-16)
(1.67117 -0.0090649 -2.56087e-16)
(1.67248 -0.00892279 4.57395e-16)
(1.67378 -0.00878335 3.90476e-16)
(1.67504 -0.00864652 4.57181e-16)
(1.67629 -0.00851225 4.98702e-16)
(1.67752 -0.00838047 5.23871e-16)
(1.67873 -0.00825114 5.63429e-16)
(1.67991 -0.0081242 6.57286e-16)
(1.68108 -0.00799961 6.97853e-16)
(1.68222 -0.00787732 8.10093e-16)
(1.68335 -0.00775729 9.04771e-16)
(1.68446 -0.00763948 9.32754e-16)
(1.68555 -0.00752384 9.42828e-16)
(1.68663 -0.00741036 9.84374e-16)
(1.68768 -0.00729899 1.03949e-15)
(1.68872 -0.00718972 1.14775e-15)
(1.68974 -0.00708251 1.25589e-15)
(1.69075 -0.00697736 1.17319e-15)
(1.69174 -0.00687425 1.27389e-15)
(1.69271 -0.00677319 1.36463e-15)
(1.69367 -0.00667416 1.48379e-15)
(1.69462 -0.00657719 1.44523e-15)
(1.69555 -0.00648229 1.62899e-15)
(1.56228 -0.0202633 -1.69132e-15)
(1.5649 -0.0198555 -1.62166e-15)
(1.56745 -0.0194591 -1.85266e-15)
(1.56994 -0.0190736 -1.55453e-15)
(1.57236 -0.0186986 -1.72657e-15)
(1.57471 -0.0183337 -1.42101e-15)
(1.57701 -0.0179786 -1.58345e-15)
(1.57925 -0.0176328 -1.33692e-15)
(1.58143 -0.017296 -1.53542e-15)
(1.58356 -0.0169679 -1.12186e-15)
(1.58564 -0.0166481 -1.28521e-15)
(1.58767 -0.0163364 -9.81025e-16)
(1.58965 -0.0160325 -1.17891e-15)
(1.59158 -0.0157361 -8.2278e-16)
(1.59346 -0.015447 -1.22844e-15)
(1.59531 -0.0151648 -1.07009e-15)
(1.59711 -0.0148895 -9.77464e-16)
(1.59887 -0.0146207 -9.04063e-16)
(1.60059 -0.0143582 -8.48123e-16)
(1.60227 -0.0141019 -8.80095e-16)
(1.60392 -0.0138515 -7.46103e-16)
(1.60553 -0.0136069 -7.66084e-16)
(1.6071 -0.0133678 -6.13832e-16)
(1.60864 -0.0131342 -5.87516e-16)
(1.61015 -0.0129057 -5.0656e-16)
(1.61163 -0.0126824 -5.02967e-16)
(1.61307 -0.012464 -3.57879e-16)
(1.61449 -0.0122504 -6.00207e-16)
(1.61587 -0.0120414 -3.79992e-16)
(1.61723 -0.0118369 -5.80556e-16)
(1.61856 -0.0116368 -2.59428e-16)
(1.61986 -0.011441 -4.78662e-16)
(1.62114 -0.0112493 -2.53385e-16)
(1.6224 -0.0110616 -1.02369e-16)
(1.62362 -0.0108779 -7.61785e-17)
(1.62483 -0.0106979 -1.45382e-17)
(1.62601 -0.0105216 1.04576e-16)
(1.62717 -0.010349 1.71397e-16)
(1.6283 -0.0101798 1.63684e-16)
(1.62942 -0.0100141 1.96933e-16)
(1.63051 -0.00985167 1.89113e-16)
(1.63159 -0.0096925 2.50162e-16)
(1.63264 -0.00953648 3.68803e-16)
(1.63368 -0.00938354 3.74057e-16)
(1.63469 -0.00923361 4.63816e-16)
(1.63569 -0.0090866 7.36705e-16)
(1.63667 -0.00894244 8.27512e-16)
(1.63763 -0.00880108 9.40854e-16)
(1.63857 -0.00866244 9.70499e-16)
(1.6395 -0.00852646 1.01179e-15)
(1.64041 -0.00839308 1.03327e-15)
(1.64131 -0.00826224 1.05323e-15)
(1.64219 -0.0081339 1.10565e-15)
(1.64305 -0.00800799 1.14365e-15)
(1.6439 -0.00788447 1.1543e-15)
(1.64474 -0.0077633 1.17324e-15)
(1.64556 -0.00764443 1.10421e-15)
(1.64637 -0.00752782 1.11741e-15)
(1.64716 -0.00741345 1.2137e-15)
(1.64794 -0.00730128 1.26432e-15)
(1.64871 -0.00719129 1.20239e-15)
(1.64947 -0.00708346 1.2762e-15)
(1.65021 -0.00697777 1.26397e-15)
(1.65094 -0.00687421 1.29645e-15)
(1.65166 -0.0067728 1.34411e-15)
(1.65237 -0.00667353 1.43682e-15)
(1.65307 -0.00657643 1.4973e-15)
(1.53911 -0.020591 -6.55432e-16)
(1.54107 -0.0201578 -3.47156e-16)
(1.54297 -0.0197376 -8.71638e-16)
(1.54482 -0.0193297 -6.81957e-17)
(1.54661 -0.0189337 -6.88387e-16)
(1.54835 -0.018549 1.38138e-16)
(1.55005 -0.0181752 -5.71978e-16)
(1.55169 -0.0178119 1.0635e-16)
(1.55329 -0.0174587 -5.43318e-16)
(1.55485 -0.0171151 2.72921e-16)
(1.55636 -0.0167808 -3.57116e-16)
(1.55783 -0.0164554 3.92348e-16)
(1.55927 -0.0161387 -2.84451e-16)
(1.56066 -0.0158302 4.07529e-16)
(1.56202 -0.0155297 2.84049e-16)
(1.56335 -0.015237 2.52492e-16)
(1.56464 -0.0149516 2.70184e-16)
(1.5659 -0.0146734 2.301e-16)
)
;

boundaryField
{
    inlet
    {
        type            uniformFixedValue;
        uniformValue    constant (1 0 0);
        value           nonuniform 0();
    }
    outlet
    {
        type            pressureInletOutletVelocity;
        value           nonuniform 0();
    }
    wall
    {
        type            fixedValue;
        value           nonuniform 0();
    }
    wedge1
    {
        type            wedge;
    }
    wedge2
    {
        type            wedge;
    }
    axis
    {
        type            empty;
    }
    procBoundary7to1
    {
        type            processor;
        value           nonuniform List<vector> 
68
(
(1.6452 -0.0105779 -6.77614e-15)
(1.64945 -0.0104114 -6.24252e-15)
(1.65363 -0.010248 -6.38755e-15)
(1.65773 -0.0100875 -5.89165e-15)
(1.66177 -0.00992981 -5.78e-15)
(1.66574 -0.00977493 -4.37205e-15)
(1.66964 -0.00962278 -4.69384e-15)
(1.67348 -0.0094733 -4.87543e-15)
(1.67725 -0.00932643 -5.14533e-15)
(1.68097 -0.00918212 -5.24881e-15)
(1.68462 -0.0090403 -5.46512e-15)
(1.68821 -0.00890093 -5.67041e-15)
(1.69175 -0.00876396 -6.05949e-15)
(1.69522 -0.00862934 -6.02e-15)
(1.69864 -0.00849701 -6.39815e-15)
(1.70201 -0.00836695 -6.62073e-15)
(1.70532 -0.0082391 -6.69605e-15)
(1.70858 -0.00811341 -6.64196e-15)
(1.71178 -0.00798986 -6.33968e-15)
(1.71494 -0.00786838 -6.33188e-15)
(1.71804 -0.00774896 -5.7436e-15)
(1.72109 -0.00763154 -5.89892e-15)
(1.7241 -0.0075161 -5.16752e-15)
(1.72706 -0.00740258 -5.26069e-15)
(1.72997 -0.00729096 -4.75132e-15)
(1.73284 -0.00718121 -4.41858e-15)
(1.73566 -0.00707328 -3.85886e-15)
(1.73844 -0.00696715 -3.32322e-15)
(1.74117 -0.00686277 -2.73051e-15)
(1.74387 -0.00676013 -2.50918e-15)
(1.74652 -0.00665918 -1.80625e-15)
(1.74913 -0.0065599 -1.41183e-15)
(1.7517 -0.00646226 -7.58484e-16)
(1.75423 -0.00636622 -4.85428e-16)
(1.75672 -0.00627177 -1.30195e-16)
(1.75917 -0.00617886 2.55607e-16)
(1.76158 -0.00608748 2.25075e-16)
(1.76396 -0.0059976 6.17158e-16)
(1.76631 -0.0059092 7.43857e-16)
(1.76861 -0.00582224 1.15678e-15)
(1.77088 -0.00573671 1.246e-15)
(1.77312 -0.00565259 1.62009e-15)
(1.77533 -0.00556984 1.64093e-15)
(1.7775 -0.00548845 2.19708e-15)
(1.77964 -0.00540841 2.22048e-15)
(1.78174 -0.00532969 2.73036e-15)
(1.78382 -0.00525227 2.79714e-15)
(1.78586 -0.00517615 3.24739e-15)
(1.78788 -0.0051013 3.395e-15)
(1.78986 -0.00502771 3.65251e-15)
(1.79182 -0.00495539 3.56087e-15)
(1.79374 -0.00488431 3.72233e-15)
(1.79564 -0.00481447 3.80823e-15)
(1.79751 -0.00474588 3.91002e-15)
(1.79936 -0.00467854 3.95048e-15)
(1.80118 -0.00461244 4.31643e-15)
(1.80297 -0.00454762 4.43346e-15)
(1.80473 -0.00448408 4.71135e-15)
(1.60133 -0.0144997 -6.96793e-15)
(1.60598 -0.0142562 -6.896e-15)
(1.61054 -0.0140178 -7.07251e-15)
(1.61502 -0.0137843 -6.79518e-15)
(1.61941 -0.0135556 -7.12893e-15)
(1.62372 -0.0133316 -5.81876e-15)
(1.62796 -0.0131121 -6.12127e-15)
(1.63211 -0.0128969 -5.92317e-15)
(1.63619 -0.012686 -6.11595e-15)
(1.63619 -0.012686 -6.11595e-15)
)
;
    }
    procBoundary7to6
    {
        type            processor;
        value           nonuniform List<vector> 4((1.5928 -0.0167989 -5.28419e-15) (1.58613 -0.0185127 -3.93625e-15) (1.57548 -0.0198264 -2.76748e-15) (1.55959 -0.020683 -1.68117e-15));
    }
    procBoundary7to8
    {
        type            processor;
        value           nonuniform List<vector> 5((1.78702 -0.00513772 3.96412e-15) (1.76255 -0.0057126 2.7866e-15) (1.73255 -0.00613255 2.10858e-15) (1.69646 -0.00638949 1.6366e-15) (1.65375 -0.00648152 1.54859e-15));
    }
    procBoundary7to12
    {
        type            processor;
        value           uniform (1.53709 -0.0210377 -6.16278e-16);
    }
    procBoundary7to13
    {
        type            processor;
        value           nonuniform List<vector> 
68
(
(1.56713 -0.0144021 2.49401e-16)
(1.56833 -0.0141375 1.88455e-16)
(1.5695 -0.0138793 2.64348e-16)
(1.57064 -0.0136274 2.62453e-16)
(1.57176 -0.0133815 2.93565e-16)
(1.57285 -0.0131415 3.43566e-16)
(1.57391 -0.012907 3.64905e-16)
(1.57495 -0.0126781 3.71292e-16)
(1.57597 -0.0124544 6.13907e-16)
(1.57696 -0.0122359 8.67715e-17)
(1.57794 -0.0120223 8.65471e-16)
(1.57889 -0.0118135 1.83358e-16)
(1.57981 -0.0116094 9.45849e-16)
(1.58072 -0.0114099 2.82114e-16)
(1.58161 -0.0112147 9.03187e-16)
(1.58248 -0.0110238 9.22887e-16)
(1.58334 -0.010837 9.79562e-16)
(1.58417 -0.0106542 9.51619e-16)
(1.58499 -0.0104754 9.45456e-16)
(1.58579 -0.0103003 9.80205e-16)
(1.58657 -0.0101289 9.51407e-16)
(1.58734 -0.00996112 9.63618e-16)
(1.5881 -0.00979682 1.02369e-15)
(1.58884 -0.0096359 1.07831e-15)
(1.58956 -0.00947829 1.07708e-15)
(1.59027 -0.00932388 1.13621e-15)
(1.59096 -0.00917261 1.09752e-15)
(1.59165 -0.00902439 1.64581e-15)
(1.59232 -0.00887914 1.56348e-15)
(1.59297 -0.00873678 1.54447e-15)
(1.59362 -0.00859725 1.57337e-15)
(1.59425 -0.00846047 1.53613e-15)
(1.59487 -0.00832639 1.48939e-15)
(1.59548 -0.00819494 1.54464e-15)
(1.59608 -0.00806606 1.46092e-15)
(1.59667 -0.00793969 1.52186e-15)
(1.59724 -0.00781579 1.49274e-15)
(1.59781 -0.0076943 1.50432e-15)
(1.59837 -0.00757517 1.46871e-15)
(1.59891 -0.00745838 1.39189e-15)
(1.59945 -0.00734387 1.37932e-15)
(1.59998 -0.00723162 1.35373e-15)
(1.6005 -0.0071216 1.36723e-15)
(1.60101 -0.00701379 1.40974e-15)
(1.60151 -0.00690817 1.36633e-15)
(1.602 -0.00680473 1.34229e-15)
(1.60248 -0.00670347 1.35247e-15)
(1.60296 -0.0066044 1.41005e-15)
(1.60343 -0.00650754 1.41568e-15)
(1.50788 -0.0204027 5.00779e-16)
(1.50915 -0.0199553 1.07596e-15)
(1.51039 -0.019522 9.45857e-16)
(1.51158 -0.0191023 1.02587e-15)
(1.51273 -0.0186955 9.14348e-16)
(1.51384 -0.0183011 1.06392e-15)
(1.51491 -0.0179185 9.62729e-16)
(1.51595 -0.0175473 1.04551e-15)
(1.51696 -0.0171869 9.79105e-16)
(1.51794 -0.0168368 1.11423e-15)
(1.51888 -0.0164968 1.05365e-15)
(1.51979 -0.0161664 1.25229e-15)
(1.52068 -0.0158451 1.10946e-15)
(1.52154 -0.0155328 1.2916e-15)
(1.52238 -0.0152289 1.18385e-15)
(1.52319 -0.0149331 1.18847e-15)
(1.52397 -0.0146453 1.21287e-15)
(1.56713 -0.0144021 2.49401e-16)
(1.52474 -0.014365 1.16624e-15)
)
;
    }
}


// ************************************************************************* //
