/*--------------------------------*- C++ -*----------------------------------*\
  =========                 |
  \\      /  F ield         | OpenFOAM: The Open Source CFD Toolbox
   \\    /   O peration     | Website:  https://openfoam.org
    \\  /    A nd           | Version:  7
     \\/     M anipulation  |
\*---------------------------------------------------------------------------*/
FoamFile
{
    version     2.0;
    format      ascii;
    class       surfaceScalarField;
    location    "28.000462";
    object      phi;
}
// * * * * * * * * * * * * * * * * * * * * * * * * * * * * * * * * * * * * * //

dimensions      [0 3 -1 0 0 0 0];

internalField   nonuniform List<scalar> 
46020
(
-3.86798e-06
3.8677e-06
2.7744e-10
-1.45386e-05
1.06699e-05
7.31569e-10
-3.16759e-05
1.71362e-05
1.11833e-09
-5.49257e-05
2.32483e-05
1.43233e-09
-8.39226e-05
2.89952e-05
1.67254e-09
-0.000118314
3.43893e-05
1.84267e-09
-0.00015778
3.94642e-05
1.94977e-09
-0.000202054
4.42723e-05
2.00176e-09
-0.000250934
4.8878e-05
2.00402e-09
-0.000304283
5.3347e-05
1.95568e-09
-0.000362016
5.77312e-05
1.84635e-09
-0.000424071
6.20525e-05
1.65358e-09
-0.00049036
6.6288e-05
1.34143e-09
-0.000560721
7.03602e-05
8.59551e-10
-0.000634865
7.41437e-05
1.42357e-10
-0.00071236
7.74961e-05
-8.90005e-10
-0.000792686
8.03285e-05
-2.33405e-09
-0.000875628
8.29457e-05
-4.29636e-09
-0.000961715
8.6094e-05
-6.89134e-09
8.98328e-05
-1.02638e-08
-0.00105154
-3.79513e-06
7.66284e-06
-1.42766e-05
2.11514e-05
-3.11191e-05
3.39787e-05
-5.39737e-05
4.61029e-05
-8.24742e-05
5.74958e-05
-0.000116261
6.81762e-05
-0.000155002
7.82049e-05
-0.000198409
8.76799e-05
-0.000246255
9.67235e-05
-0.000298368
0.00010546
-0.000354622
0.000113985
-0.000414907
0.000122337
-0.000479081
0.000130462
-0.000546915
0.000138195
-0.000618038
0.000145266
-0.000691901
0.00015136
-0.000767783
0.000156211
-0.000845126
0.000160288
-0.00092441
0.000165378
0.000169636
-0.00100421
-3.65282e-06
1.13157e-05
-1.37636e-05
3.12622e-05
-3.00276e-05
5.02427e-05
-5.21045e-05
6.81798e-05
-7.96263e-05
8.50176e-05
-0.000112219
0.000100769
-0.000149523
0.000115509
-0.000191212
0.000129369
-0.000237002
0.000142514
-0.000286656
0.000155113
-0.000339963
0.000167293
-0.000396718
0.000179092
-0.000456664
0.000190409
-0.000519441
0.000200972
-0.000584508
0.000210333
-0.000651099
0.00021795
-0.000718115
0.000223227
-0.000784257
0.000226431
-0.000850175
0.000231296
0.000229565
-0.000910103
-3.44764e-06
1.47633e-05
-1.30218e-05
4.08364e-05
-2.84447e-05
6.56655e-05
-4.93867e-05
8.91219e-05
-7.54745e-05
0.000111105
-0.000106311
0.000131606
-0.000141497
0.000150694
-0.000180643
0.000168515
-0.000223386
0.000185257
-0.000269382
0.00020111
-0.000318299
0.00021621
-0.000369777
0.00023057
-0.000423388
0.00024402
-0.000478565
0.000256149
-0.000534513
0.000266281
-0.000590149
0.000273587
-0.000643897
0.000276975
-0.000693177
0.00027571
-0.000739496
0.000277615
0.00026013
-0.000770061
-3.18904e-06
1.79523e-05
-1.20827e-05
4.97301e-05
-2.64327e-05
8.00155e-05
-4.59189e-05
0.000108608
-7.0157e-05
0.000135343
-9.87173e-05
0.000160166
-0.000131143
0.00018312
-0.000166965
0.000204337
-0.000205708
0.000224
-0.00024689
0.000242292
-0.000290003
0.000259323
-0.000334483
0.00027505
-0.000379657
0.000289193
-0.00042467
0.000301162
-0.000468379
0.000309989
-0.000509279
0.000314487
-0.000545334
0.000313029
-0.000571926
0.000302302
-0.000592474
0.000298163
0.000252476
-0.00058482
-2.88885e-06
2.08412e-05
-1.09858e-05
5.7827e-05
-2.40699e-05
9.30997e-05
-4.18252e-05
0.000126363
-6.3848e-05
0.000157366
-8.96637e-05
0.000185982
-0.000118743
0.000212199
-0.000150511
0.000236105
-0.000184354
0.000257843
-0.000219611
0.000277549
-0.000255552
0.000295264
-0.00029134
0.000310838
-0.000325979
0.000323833
-0.000358235
0.000333418
-0.000386494
0.000338248
-0.000408679
0.000336672
-0.000422476
0.000326826
-0.00042038
0.000300206
-0.000408149
0.000285931
0.000199033
-0.000354706
-2.56059e-06
2.34018e-05
-9.77628e-06
6.50427e-05
-2.14462e-05
0.00010477
-3.72486e-05
0.000142166
-5.67486e-05
0.000176866
-7.94123e-05
0.000208645
-0.000104618
0.000237405
-0.000131664
0.000263151
-0.000159766
0.000285945
-0.000188043
0.000305825
-0.000215487
0.000322708
-0.000240921
0.000336272
-0.00026293
0.000345842
-0.000279784
0.000350272
-0.000289267
0.000347731
-0.000288445
0.000335851
-0.000274956
0.000313338
-0.000238445
0.000263696
-0.000183417
0.000230903
9.71088e-05
-8.1493e-05
-2.21877e-06
2.56206e-05
-8.50287e-06
7.13268e-05
-1.86582e-05
0.000114925
-3.23428e-05
0.00015585
-4.90755e-05
0.000193599
-6.82452e-05
0.000227815
-8.91184e-05
0.000258278
-0.000110839
0.000284872
-0.000132419
0.000307525
-0.000152713
0.000326119
-0.000170377
0.000340372
-0.000183811
0.000349706
-0.000191078
0.000353109
-0.000189809
0.000349002
-0.00017706
0.000334982
-0.000148656
0.000307446
-0.000101218
0.0002659
-2.79341e-05
0.000190411
8.29216e-05
0.000120048
-6.69464e-05
0.000246977
-1.87797e-06
2.74985e-05
-7.21444e-06
7.66632e-05
-1.5803e-05
0.000123514
-2.72629e-05
0.00016731
-4.10467e-05
0.000207383
-5.64459e-05
0.000243214
-7.2591e-05
0.000274423
-8.84436e-05
0.000300724
-0.000102774
0.000321855
-0.000114122
0.000337467
-0.000120741
0.000346992
-0.000120519
0.000349483
-0.000110869
0.000343459
-8.86083e-05
0.000326741
-4.98615e-05
0.000296235
9.85443e-06
0.00024773
9.87061e-05
0.000177049
0.000223781
6.53364e-05
0.000385691
-4.18619e-05
-0.000312913
0.000631657
-1.55197e-06
2.90505e-05
-5.95694e-06
8.10682e-05
-1.2972e-05
0.000130529
-2.21538e-05
0.000176492
-3.28655e-05
0.000218094
-4.42761e-05
0.000254625
-5.5353e-05
0.0002855
-6.4841e-05
0.000310212
-7.12254e-05
0.000328239
-7.26752e-05
0.000338917
-6.69617e-05
0.000341278
-5.13517e-05
0.000333873
-2.24701e-05
0.000314578
2.38617e-05
0.00028041
9.28153e-05
0.000227282
0.000191195
0.000149351
0.000325307
4.29361e-05
0.000511042
-0.000120398
0.000739706
-0.000270526
-0.000650325
0.00107712
-1.25272e-06
3.03032e-05
-4.77e-06
8.45855e-05
-1.02432e-05
0.000136002
-1.71384e-05
0.000183387
-2.47016e-05
0.000225657
-3.19503e-05
0.000261874
-3.76551e-05
0.000291205
-4.03032e-05
0.00031286
-3.80428e-05
0.000325979
-2.86004e-05
0.000329475
-9.17131e-06
0.000321849
2.37245e-05
0.000300978
7.44199e-05
0.000263882
0.00014831
0.000206519
0.000252007
0.000123584
0.000394167
7.19122e-06
0.000583266
-0.000146163
0.000837544
-0.000374675
0.00114712
-0.000580106
-0.00109063
0.00158743
-9.89434e-07
3.12926e-05
-3.68346e-06
8.72795e-05
-7.6741e-06
0.000139992
-1.2305e-05
0.000188018
-1.66725e-05
0.000230025
-1.96073e-05
0.000264809
-1.96426e-05
0.00029124
-1.49568e-05
0.000308175
-3.29409e-06
0.000314316
1.81495e-05
0.000308031
5.28721e-05
0.000287126
0.00010525
0.0002486
0.000180762
0.000188371
0.000286243
0.000101038
0.000430012
-2.0184e-05
0.000622451
-0.000185248
0.000875527
-0.00039924
0.00120634
-0.000705485
0.00160931
-0.000983083
-0.00164149
0.00216017
-7.67662e-07
3.20603e-05
-2.71409e-06
8.92259e-05
-5.2948e-06
0.000142573
-7.69496e-06
0.000190418
-8.82369e-06
0.000231154
-7.28217e-06
0.000263267
-1.31516e-06
0.000285273
1.12712e-05
0.000295588
3.32238e-05
0.000292364
6.79878e-05
0.000273267
0.000119898
0.000235216
0.000194404
0.000174093
0.000298328
8.44466e-05
0.000440147
-4.07814e-05
0.000630094
-0.000210131
0.00087981
-0.000434964
0.00120545
-0.000724884
0.00161923
-0.00111926
0.00212376
-0.00148761
-0.00230024
0.00278251
-5.88471e-07
3.26488e-05
-1.86276e-06
9.05002e-05
-3.10168e-06
0.000143812
-3.29162e-06
0.000190608
-1.10918e-06
0.000228971
5.11865e-06
0.000257039
1.7505e-05
0.000272887
3.87005e-05
0.000274393
7.20462e-05
0.000259018
0.000121767
0.000223547
0.000193201
0.000163782
0.00029306
7.42339e-05
0.000429689
-5.21822e-05
0.00061329
-0.000224382
0.000856025
-0.000452866
0.00117007
-0.000749013
0.00157454
-0.00112935
0.00207434
-0.00161906
0.00268065
-0.00209392
-0.0030479
0.00342831
-4.47897e-07
3.30967e-05
-1.11237e-06
9.11647e-05
-1.05199e-06
0.000143752
9.87963e-07
0.000188568
6.60857e-06
0.000223351
1.7835e-05
0.000245813
3.72063e-05
0.000253516
6.79311e-05
0.000243668
0.000114078
0.000212871
0.000180807
0.000156817
0.000274639
6.99505e-05
0.000403712
-5.48385e-05
0.000577973
-0.000226444
0.000809199
-0.000455608
0.00111096
-0.000754631
0.00149525
-0.0011333
0.00197988
-0.00161398
0.00256226
-0.00220144
0.0032588
-0.00279046
-0.00384758
0.00405848
-3.36752e-07
3.34334e-05
-4.2597e-07
9.12539e-05
9.33609e-07
0.000142392
5.28885e-06
0.000184213
1.4588e-05
0.000214051
3.12659e-05
0.000229135
5.83902e-05
0.000226391
9.98486e-05
0.00020221
0.000160583
0.000152137
0.000246855
7.05448e-05
0.000366514
-4.97083e-05
0.000529193
-0.000217518
0.000746315
-0.000443566
0.00103069
-0.000739981
0.00139589
-0.00111984
0.00185275
-0.00159015
0.00241162
-0.00217285
0.0030633
-0.00285312
0.00382369
-0.00355085
-0.00465082
0.00462693
-2.40927e-07
3.36744e-05
2.48859e-07
9.07641e-05
2.97432e-06
0.000139667
9.83581e-06
0.000177351
2.31841e-05
0.000200703
4.59573e-05
0.000206362
8.18597e-05
0.000190489
0.000135592
0.000148477
0.000213118
7.46109e-05
0.000321938
-3.82746e-05
0.000471291
-0.000199061
0.000672175
-0.000418402
0.000936982
-0.000708372
0.00127846
-0.00108146
0.0017079
-0.00154928
0.00223291
-0.00211516
0.00285126
-0.00279121
0.00354791
-0.00354977
0.00433141
-0.00433435
-0.00540954
0.00509012
-1.42063e-07
3.38164e-05
9.76914e-07
8.96452e-05
5.22735e-06
0.000135416
1.49039e-05
0.000167675
3.28418e-05
0.000182765
6.25784e-05
0.000176625
0.000108573
0.000144494
0.000176474
8.05769e-05
0.00027339
-2.2305e-05
0.000408115
-0.000173
0.000591165
-0.000382112
0.000834447
-0.000661684
0.00115028
-0.00102421
0.00154958
-0.00148076
0.0020386
-0.00203829
0.00261837
-0.00269493
0.00327243
-0.00344527
0.00398118
-0.00425852
0.00473952
-0.0050927
-0.00608752
0.00541751
-1.61008e-08
3.38325e-05
1.84969e-06
8.77794e-05
7.87252e-06
0.000129393
2.08123e-05
0.000154735
4.40676e-05
0.00015951
8.18762e-05
0.000138817
0.00013957
8.68001e-05
0.000223851
-3.70437e-06
0.000343035
-0.000141488
0.000507113
-0.000337078
0.00072749
-0.000602488
0.00101608
-0.000950269
0.0013835
-0.00139163
0.00183641
-0.00193367
0.00237352
-0.00257539
0.00298586
-0.00330728
0.00364553
-0.00410495
0.00433042
-0.0049434
0.00501972
-0.005782
-0.00666705
0.00559925
1.60545e-07
3.3672e-05
2.95221e-06
8.49877e-05
1.11024e-05
0.000121243
2.79004e-05
0.000137937
5.73916e-05
0.000130019
0.000104612
9.15957e-05
0.000175863
1.55499e-05
0.000278959
-0.000106801
0.000423347
-0.000285876
0.000619907
-0.000533638
0.000880162
-0.000862743
0.00121462
-0.00128473
0.0016301
-0.00180711
0.00212646
-0.00243002
0.0026932
-0.00314214
0.00331038
-0.00392445
0.00394491
-0.00473948
0.00457375
-0.00557225
0.005164
-0.00637224
-0.00716059
0.00565754
4.11501e-07
3.32605e-05
4.37311e-06
8.10261e-05
1.51091e-05
0.000110507
3.65017e-05
0.000116545
7.33227e-05
9.31977e-05
0.000131489
3.34297e-05
0.000218322
-7.12831e-05
0.000342708
-0.000231187
0.000514983
-0.000458152
0.000746289
-0.000764944
0.00104709
-0.00116354
0.00142466
-0.0016623
0.00187977
-0.00226222
0.00240362
-0.00295387
0.00297659
-0.00371511
0.00357058
-0.00451845
0.0041546
-0.00532349
0.00470697
-0.00612463
0.00519762
-0.00686289
-0.00761642
0.00565345
7.6055e-07
3.24999e-05
6.1953e-06
7.55914e-05
2.00691e-05
9.66334e-05
4.69165e-05
8.96972e-05
9.23007e-05
4.78134e-05
0.000163068
-3.73376e-05
0.000267542
-0.000175757
0.000415499
-0.000379144
0.00061768
-0.000660333
0.000884526
-0.00103179
0.00122389
-0.0015029
0.00163782
-0.00207623
0.00211932
-0.00274372
0.00265069
-0.00348524
0.00320552
-0.00426994
0.00375352
-0.00506645
0.00427073
-0.00584069
0.0047392
-0.0065931
0.00516116
-0.00728485
-0.00800768
0.00555241
1.22719e-06
3.12727e-05
8.48976e-06
6.83288e-05
2.61311e-05
7.8992e-05
5.93865e-05
5.64418e-05
0.000114653
-7.45268e-06
0.000199701
-0.000122386
0.000323732
-0.000299788
0.000497051
-0.000552464
0.000730048
-0.00089333
0.00103118
-0.00133292
0.00140396
-0.00187568
0.00184355
-0.00251582
0.00233468
-0.00323485
0.00285266
-0.00400323
0.00336865
-0.00478593
0.00385644
-0.00555424
0.004301
-0.00628526
0.00469654
-0.00698864
0.00505476
-0.00764306
-0.00833725
0.00538433
1.82702e-06
2.94457e-05
1.13115e-05
5.88444e-05
3.34051e-05
5.68984e-05
7.40754e-05
1.57715e-05
0.000140556
-7.39337e-05
0.000241464
-0.000223293
0.000386621
-0.000444945
0.000586287
-0.00075213
0.000849476
-0.00115652
0.00118119
-0.00166464
0.00157902
-0.00227351
0.00203052
-0.00296732
0.00251336
-0.00371769
0.00299958
-0.00448945
0.00346297
-0.00524932
0.00388536
-0.00597663
0.00426202
-0.00666191
0.00459622
-0.00732284
0.00490386
-0.0079507
-0.00862875
0.00519536
2.57119e-06
2.68745e-05
1.46972e-05
4.67183e-05
4.19565e-05
2.96391e-05
9.10544e-05
-3.33263e-05
0.000170014
-0.000152893
0.000288122
-0.000341401
0.000455403
-0.000612226
0.000681285
-0.000978012
0.000972186
-0.00144742
0.00132821
-0.00202067
0.0017401
-0.0026854
0.00218838
-0.0034156
0.0026466
-0.0041759
0.00308794
-0.00493079
0.00349273
-0.00565411
0.00385232
-0.00633623
0.0041704
-0.00698
0.0044559
-0.00760833
0.00472595
-0.00822075
-0.00889074
0.00498793
3.46652e-06
2.3408e-05
1.86654e-05
3.15194e-05
5.18032e-05
-3.49869e-06
0.000110294
-9.18171e-05
0.000202836
-0.000245435
0.000339096
-0.000477661
0.000528716
-0.000801847
0.000779321
-0.00122862
0.00109346
-0.00176156
0.00146529
-0.0023925
0.00187875
-0.00309886
0.00230945
-0.0038463
0.00273055
-0.004597
0.00312018
-0.00532043
0.00346702
-0.00600095
0.00377096
-0.00664016
0.00404124
-0.00725028
0.00428917
-0.00785627
0.00453029
-0.00846187
-0.00912949
0.00476904
4.51592e-06
1.88921e-05
2.32159e-05
1.28194e-05
6.29135e-05
-4.31963e-05
0.000131659
-0.000160562
0.000238631
-0.000352407
0.00039346
-0.00063249
0.000604666
-0.00101305
0.000877002
-0.00150095
0.00120807
-0.00209263
0.00158569
-0.00277012
0.00198832
-0.00350149
0.00238967
-0.00424765
0.00276609
-0.00497342
0.00310289
-0.00565722
0.00339682
-0.00629488
0.00365403
-0.00689737
0.00388642
-0.00748266
0.00410522
-0.00807507
0.00432339
-0.00868004
-0.00934896
0.00454286
5.71873e-06
1.31733e-05
2.83307e-05
-9.79254e-06
7.52065e-05
-9.0072e-05
0.000154906
-0.000240262
0.000276804
-0.000474306
0.000449955
-0.000805641
0.000680904
-0.001244
0.000970508
-0.00179056
0.00131077
-0.00243289
0.00168376
-0.00314311
0.00206471
-0.00388244
0.00242868
-0.00461162
0.00275769
-0.00530243
0.00304465
-0.00594418
0.00329282
-0.00654306
0.00351202
-0.00711656
0.0037145
-0.00768515
0.00391014
-0.0082707
0.00410902
-0.00887893
-0.00955101
0.00431108
7.07085e-06
6.1025e-06
3.39732e-05
-3.66949e-05
8.85499e-05
-0.000144649
0.000179682
-0.000331394
0.000316565
-0.000611189
0.000507027
-0.000996103
0.000754755
-0.00149173
0.00105592
-0.00209172
0.00139693
-0.00277389
0.0017556
-0.00350178
0.00210666
-0.0042335
0.00242915
-0.00493411
0.00271183
-0.00558511
0.00295429
-0.00618664
0.00316423
-0.00675299
0.00335284
-0.00730517
0.00353136
-0.00786367
0.00370769
-0.00844704
0.00388937
-0.00906061
-0.00973672
0.00407507
8.56428e-06
-2.46178e-06
4.00878e-05
-6.82184e-05
0.000102759
-0.00020732
0.000205527
-0.000434161
0.00035694
-0.000762601
0.000562892
-0.00120206
0.000823412
-0.00175225
0.00112961
-0.00239792
0.00146304
-0.00310732
0.00179937
-0.00383811
0.00211539
-0.00454952
0.0023957
-0.00521441
0.00263561
-0.00582503
0.00283981
-0.00639084
0.00301831
-0.00693149
0.00318215
-0.00746902
0.00334079
-0.0080223
0.00350019
-0.00860644
0.00366579
-0.00922621
-0.0099065
0.00383557
1.01864e-05
-1.26482e-05
4.65976e-05
-0.00010463
0.000117596
-0.000278318
0.000231876
-0.000548441
0.000396805
-0.000927531
0.000615637
-0.00142089
0.00088416
-0.00202077
0.00118857
-0.00270233
0.00150698
-0.00342573
0.00181518
-0.00414631
0.00209394
-0.00482828
0.00233387
-0.00545435
0.00253584
-0.00602699
0.00270781
-0.00656281
0.0028605
-0.00708419
0.00300382
-0.00761233
0.00314523
-0.00816371
0.00328906
-0.00875027
0.00343911
-0.00937626
-0.0100605
0.00359311
1.19203e-05
-2.45685e-05
5.34036e-05
-0.000146113
0.000132768
-0.000357682
0.000258074
-0.000673748
0.00043494
-0.0011044
0.000663351
-0.0016493
0.000934611
-0.00229203
0.00123072
-0.00299844
0.00152813
-0.00372314
0.00180475
-0.00442293
0.00204637
-0.00506991
0.00224926
-0.00565723
0.0024184
-0.00619613
0.00256345
-0.00670787
0.00269469
-0.00721542
0.0028204
-0.00773804
0.00294624
-0.00828956
0.00307521
-0.00887924
0.00320993
-0.00951098
-0.0101987
0.00334815
1.37422e-05
-3.83107e-05
6.0384e-05
-0.000192755
0.000147935
-0.000445233
0.000283399
-0.000809212
0.000470086
-0.00129108
0.000704265
-0.00188348
0.00097291
-0.00256068
0.001255
-0.00328053
0.00152715
-0.00399529
0.00177083
-0.00466661
0.00197713
-0.00527621
0.00214701
-0.00582711
0.00228814
-0.00633726
0.00241061
-0.00683033
0.00252355
-0.00732836
0.00263358
-0.00784807
0.0027448
-0.00840078
0.00285925
-0.00899368
0.00297869
-0.00963043
-0.0103211
0.00310106
1.56227e-05
-5.39335e-05
6.73957e-05
-0.000244528
0.000162719
-0.000540557
0.000307097
-0.000953589
0.000501036
-0.00148502
0.000736889
-0.00211933
0.000997864
-0.00282165
0.00126134
-0.00354401
0.00150569
-0.00423964
0.00171676
-0.00487768
0.00189053
-0.00544998
0.00203153
-0.00596811
0.00214883
-0.00645456
0.00225206
-0.00693357
0.00234893
-0.00742523
0.00244448
-0.00794363
0.0025416
-0.0084979
0.00264165
-0.00909373
0.0027458
-0.00973458
-0.0104275
0.00285221
1.75265e-05
-7.146e-05
7.42779e-05
-0.000301279
0.000176718
-0.000642997
0.000328415
-0.00110529
0.00052671
-0.00168332
0.000760118
-0.00235274
0.00100898
-0.00307051
0.00125052
-0.00378555
0.00146605
-0.00445517
0.00164599
-0.00505761
0.00179047
-0.00559446
0.00190643
-0.00608407
0.00200333
-0.00655146
0.0020898
-0.00702005
0.00217207
-0.00750749
0.00225385
-0.00802541
0.00233714
-0.00858119
0.0024228
-0.00917939
0.0025116
-0.00982338
-0.0105178
0.00260194
1.94131e-05
-9.08731e-05
8.0858e-05
-0.000362724
0.000189524
-0.000751664
0.000346657
-0.00126242
0.000546227
-0.00188289
0.000773291
-0.0025798
0.0010064
-0.00330362
0.00122394
-0.00400309
0.00141084
-0.00464207
0.00156183
-0.0052086
0.00168031
-0.00571295
0.00177457
-0.00617833
0.00185374
-0.00663064
0.00192522
-0.00709153
0.00199384
-0.0075761
0.00206226
-0.00809384
0.00213181
-0.00865074
0.00220306
-0.00925063
0.00227645
-0.00989677
-0.010592
0.0023506
2.12387e-05
-0.000112112
8.69583e-05
-0.000428443
0.000200746
-0.000865451
0.000361214
-0.00142289
0.000558961
-0.00208063
0.000776199
-0.00279704
0.000990829
-0.00351825
0.00118339
-0.00419565
0.0013427
-0.00480138
0.00146727
-0.00533317
0.00156281
-0.00580849
0.00163814
-0.00625366
0.00170161
-0.00669411
0.00175931
-0.00714922
0.00181486
-0.00763165
0.00187013
-0.00814911
0.00192597
-0.00870657
0.00198274
-0.00930741
0.00204066
-0.00995468
-0.0106499
0.00209856
2.29572e-05
-0.000135069
9.2405e-05
-0.000497891
0.000210029
-0.000983075
0.000371608
-0.00158447
0.000564563
-0.00227359
0.000769043
-0.00300152
0.000963355
-0.00371256
0.00113086
-0.00436316
0.00126417
-0.00493469
0.00136488
-0.00543388
0.00144019
-0.00588381
0.00149881
-0.00631228
0.00154805
-0.00674335
0.00159276
-0.00719393
0.0016356
-0.00767449
0.00167781
-0.00819133
0.00171993
-0.00874869
0.00176218
-0.00934966
0.00180458
-0.00999708
-0.0106915
0.00184616
2.45227e-05
-0.000159592
9.70355e-05
-0.000570404
0.000217074
-0.00110311
0.00037751
-0.0017449
0.000562961
-0.00245904
0.000752367
-0.00319093
0.000925321
-0.00388551
0.00106835
-0.00450619
0.00117753
-0.00504386
0.00125682
-0.00551317
0.00131419
-0.00594118
0.00135781
-0.0063559
0.00139387
-0.00677941
0.00142612
-0.00722618
0.00145643
-0.0077048
0.00148563
-0.00822052
0.00151401
-0.00877707
0.00154169
-0.00937733
0.00156854
-0.0100239
-0.0107167
0.00159377
2.58912e-05
-0.000185483
0.000100707
-0.00064522
0.000221652
-0.00122406
0.000378751
-0.001902
0.000554332
-0.00263462
0.000726965
-0.00336356
0.000878189
-0.00403674
0.00099778
-0.00462578
0.00108479
-0.00513087
0.00114487
-0.00557325
0.00118617
-0.00598248
0.00121608
-0.00638581
0.00123968
-0.006803
0.00125978
-0.00724629
0.00127768
-0.0077227
0.00129386
-0.00823671
0.00130848
-0.00879169
0.00132156
-0.00939041
0.00133288
-0.0100353
-0.0107256
0.00134178
2.70227e-05
-0.000212506
0.000103303
-0.0007215
0.000223612
-0.00134437
0.000375318
-0.00205371
0.000539058
-0.00279836
0.000693794
-0.0035183
0.000823444
-0.00416639
0.000920894
-0.00472323
0.000987647
-0.00519763
0.00103042
-0.00561602
0.00105715
-0.00600921
0.0010743
-0.00640296
0.00108593
-0.00681463
0.00109409
-0.00725445
0.00109963
-0.00772823
0.0011028
-0.00823988
0.00110364
-0.00879253
0.00110211
-0.00938888
0.00109793
-0.0100311
-0.0107182
0.00109059
2.78825e-05
-0.000240388
0.000104735
-0.000798352
0.000222884
-0.00146252
0.000367339
-0.00219816
0.000517682
-0.0029487
0.000653899
-0.00365451
0.000762512
-0.004275
0.000839248
-0.00479997
0.000887517
-0.0052459
0.000914597
-0.0056431
0.000927926
-0.00602254
0.000933003
-0.00640803
0.000932993
-0.00681462
0.000929343
-0.0072508
0.000922548
-0.00772144
0.000912703
-0.00823003
0.000899748
-0.00877958
0.000883594
-0.00937273
0.000863988
-0.0100115
-0.0106947
0.000840402
2.84428e-05
-0.000268831
0.000104949
-0.000874858
0.000219477
-0.00157704
0.00035506
-0.00233375
0.000490849
-0.00308449
0.00060834
-0.003772
0.000696713
-0.00436337
0.000754182
-0.00485744
0.000785562
-0.00527728
0.000798283
-0.00565582
0.000799107
-0.00602336
0.000792604
-0.00640153
0.000781176
-0.0068032
0.000765789
-0.00723542
0.00074669
-0.00770234
0.000723843
-0.00820719
0.000697101
-0.00875283
0.000666308
-0.00934193
0.000631261
-0.00997643
-0.0106549
0.000591459
2.86833e-05
-0.000297514
0.000103924
-0.000950099
0.000213467
-0.00168659
0.000338818
-0.0024591
0.000459262
-0.00320494
0.000558149
-0.00387089
0.000627236
-0.00443246
0.000666836
-0.00489704
0.000682718
-0.00529316
0.000682162
-0.00565526
0.000671161
-0.00601236
0.000653432
-0.0063838
0.000630736
-0.0067805
0.000603674
-0.00720835
0.000572302
-0.00767097
0.000536479
-0.00817136
0.000495994
-0.00871235
0.000450623
-0.00929656
0.000399965
-0.00992577
-0.0105987
0.000343826
2.85916e-05
-0.000326106
0.000101669
-0.00102318
0.000204994
-0.00178991
0.000319015
-0.00257312
0.000423646
-0.00330957
0.000504294
-0.00395154
0.000555124
-0.00448329
0.000578158
-0.00492007
0.000579737
-0.00529474
0.000566772
-0.0056423
0.00054446
-0.00599005
0.000515758
-0.0063551
0.000481907
-0.00674665
0.000443226
-0.00716967
0.000399625
-0.00762737
0.000350866
-0.0081226
0.000296681
-0.00865816
0.000236937
-0.00923682
0.000170808
-0.00985964
-0.0105249
9.70184e-05
2.81633e-05
-0.000354269
9.82222e-05
-0.00109324
0.000194245
-0.00188594
0.000296092
-0.00267497
0.000384709
-0.00339818
0.000447659
-0.00401449
0.00048128
-0.00451691
0.000488932
-0.00492772
0.000477216
-0.00528302
0.000452533
-0.00561762
0.000419301
-0.00595682
0.000379816
-0.00631561
0.000334905
-0.00670174
0.00028466
-0.00711943
0.00022888
-0.00757159
0.000167256
-0.00806098
9.93417e-05
-0.00859025
2.48289e-05
-0.00916231
-5.52142e-05
-0.0097796
-0.0104344
-0.000145701
2.74017e-05
-0.000381671
9.36464e-05
-0.00115948
0.000181439
-0.00197373
0.000270502
-0.00276403
0.000343128
-0.00347081
0.000389031
-0.00406039
0.000406468
-0.00453435
0.000399797
-0.00492105
0.000375633
-0.00525886
0.000339779
-0.00558176
0.000295931
-0.00591297
0.000245812
-0.00626549
0.00018992
-0.00664585
0.000128168
-0.00705767
6.02007e-05
-0.00750362
-1.43042e-05
-0.00798647
-9.54904e-05
-0.00850906
-0.000183694
-0.0090741
-0.000280252
-0.00968304
-0.0103297
-0.000384958
2.63167e-05
-0.000407988
8.80237e-05
-0.00122119
0.000166819
-0.00205252
0.000242698
-0.00283991
0.000299528
-0.00352764
0.000329106
-0.00408997
0.000331333
-0.00453658
0.000311272
-0.00490099
0.000275364
-0.00522295
0.000228782
-0.00553518
0.000174549
-0.00585874
0.000113922
-0.00620487
4.70392e-05
-0.00657897
-2.61609e-05
-0.00698447
-0.000105905
-0.00742387
-0.000192871
-0.00789951
-0.000287518
-0.00841442
-0.000390041
-0.00897158
-0.000501573
-0.00957151
-0.0102097
-0.000621609
2.4924e-05
-0.000432912
8.14508e-05
-0.00127771
0.000150638
-0.00212171
0.000213118
-0.00290239
0.000254477
-0.003569
0.000268481
-0.00410397
0.000256409
-0.0045245
0.000223772
-0.00486835
0.000176709
-0.00517589
0.000119771
-0.00547824
5.52668e-05
-0.00579423
-1.5856e-05
-0.00613374
-9.32664e-05
-0.00650155
-0.000177612
-0.00690013
-0.000269364
-0.00733212
-0.000368917
-0.00779996
-0.000476794
-0.00830654
-0.000593468
-0.00885491
-0.000719624
-0.00944535
-0.0100742
-0.000855101
2.32442e-05
-0.000456156
7.40343e-05
-0.0013285
0.000133152
-0.00218083
0.000182171
-0.00295141
0.000208484
-0.00359531
0.000207671
-0.00410316
0.000182137
-0.00449897
0.000137638
-0.00482385
7.99012e-05
-0.00511815
1.27185e-05
-0.00541106
-6.15805e-05
-0.00571993
-0.000142726
-0.0060526
-0.000230966
-0.00641331
-0.000326551
-0.00680454
-0.000430056
-0.00722862
-0.000542013
-0.007688
-0.000662986
-0.00818557
-0.000793565
-0.00872433
-0.000934226
-0.00930469
-0.0099235
-0.00108495
2.1302e-05
-0.000477458
6.5887e-05
-0.00137309
0.000114609
-0.00222955
0.000150239
-0.00298704
0.000161998
-0.00360707
0.000147111
-0.00408827
0.000108883
-0.00446074
5.31265e-05
-0.0047681
-1.49289e-05
-0.00505009
-9.16179e-05
-0.00533437
-0.000175846
-0.00563571
-0.000267196
-0.00596125
-0.000365983
-0.00631453
-0.000472641
-0.00669788
-0.000587746
-0.00711351
-0.000711923
-0.00756382
-0.000845816
-0.00805167
-0.000990086
-0.00858006
-0.00114513
-0.00914964
-0.00975776
-0.00131086
1.91252e-05
-0.000496583
5.71242e-05
-0.00141109
9.52511e-05
-0.00226768
0.000117671
-0.00300946
0.000115408
-0.00360481
8.7165e-05
-0.00406003
3.69478e-05
-0.00441053
-2.95048e-05
-0.00470164
-0.000107255
-0.00497234
-0.000193645
-0.00524798
-0.00028756
-0.00554179
-0.000388929
-0.00585988
-0.000498128
-0.00620533
-0.000615689
-0.00658032
-0.000742228
-0.00698698
-0.000878431
-0.00742762
-0.00102503
-0.00790507
-0.00118278
-0.00842231
-0.00135204
-0.00898038
-0.00957729
-0.00153251
1.67452e-05
-0.000513328
4.78611e-05
-0.0014422
7.53072e-05
-0.00229512
8.47809e-05
-0.00301893
6.90555e-05
-0.00358908
2.81821e-05
-0.00401916
-3.34164e-05
-0.00434893
-0.000110033
-0.00462503
-0.000197366
-0.00488501
-0.000293123
-0.00515222
-0.000396557
-0.00543836
-0.000507774
-0.00574866
-0.000627235
-0.00608587
-0.000755526
-0.00645203
-0.000893311
-0.00684919
-0.00104133
-0.0072796
-0.00120039
-0.00774601
-0.00137139
-0.00825132
-0.00155467
-0.0087971
-0.00938235
-0.00174961
1.41978e-05
-0.000527526
3.82096e-05
-0.00146622
5.49939e-05
-0.00231191
5.18532e-05
-0.00301579
2.33397e-05
-0.00356057
-2.9674e-05
-0.00396614
-0.00010205
-0.00427655
-0.000188436
-0.00453864
-0.000285017
-0.00478843
-0.000389926
-0.00504731
-0.000502705
-0.00532558
-0.000623605
-0.00562776
-0.000753153
-0.00595632
-0.000891987
-0.0063132
-0.00104081
-0.00670036
-0.00120041
-0.00712
-0.00137169
-0.00757473
-0.00155567
-0.00806734
-0.00175276
-0.00860001
-0.00917325
-0.00196186
1.1534e-05
-0.00053906
2.82979e-05
-0.00148298
3.451e-05
-0.00231812
1.92487e-05
-0.00300053
-2.17563e-05
-0.00351957
-8.61999e-05
-0.0039017
-0.000168805
-0.00419395
-0.000264556
-0.00444289
-0.000370097
-0.00468289
-0.000483951
-0.00493346
-0.000605893
-0.00520364
-0.000736292
-0.00549736
-0.000875739
-0.00581687
-0.00102491
-0.00616403
-0.00118456
-0.00654072
-0.0013555
-0.00694906
-0.00153871
-0.00739152
-0.0017354
-0.00787065
-0.00194605
-0.00838936
-0.00895038
-0.00216892
8.80581e-06
-0.000547866
1.82333e-05
-0.00149241
1.40917e-05
-0.00231398
-1.30821e-05
-0.00297335
-6.60489e-05
-0.0034666
-0.00014122
-0.00382653
-0.000233546
-0.00410162
-0.000338287
-0.00433815
-0.000452519
-0.00456866
-0.000575104
-0.00481087
-0.000706014
-0.00507273
-0.000845716
-0.00535766
-0.000994855
-0.00566773
-0.00115415
-0.00600473
-0.00132438
-0.00637049
-0.00150639
-0.00676705
-0.00170125
-0.00719666
-0.00191034
-0.00766156
-0.00213424
-0.00816546
-0.00871413
-0.00237049
5.96549e-06
-0.000553831
8.05587e-06
-0.0014945
-6.16457e-06
-0.00229976
-4.52615e-05
-0.00293426
-0.000109196
-0.00340266
-0.000194577
-0.00374115
-0.000296163
-0.00400003
-0.000409544
-0.00422477
-0.000532202
-0.004446
-0.000663298
-0.00467978
-0.000802967
-0.00493306
-0.00095176
-0.00520887
-0.00111037
-0.00550912
-0.00127955
-0.00583554
-0.00146012
-0.00618992
-0.00165294
-0.00657424
-0.00185912
-0.00699048
-0.00208023
-0.00744045
-0.00231706
-0.00792863
-0.00846446
-0.00256673
2.99109e-06
-0.000556822
-2.02776e-06
-0.00148948
-2.68452e-05
-0.00227494
-7.65756e-05
-0.00288453
-0.000151082
-0.00332816
-0.000246152
-0.00364608
-0.000356564
-0.00388962
-0.000478251
-0.00410308
-0.000609073
-0.00431518
-0.00074845
-0.0045404
-0.000896655
-0.00478485
-0.00105431
-0.00505122
-0.00122215
-0.00534128
-0.00140098
-0.00565672
-0.00159162
-0.00599928
-0.00179498
-0.00637088
-0.00201222
-0.00677324
-0.00224493
-0.00720774
-0.00249431
-0.00767924
-0.00820133
-0.00275745
-3.78277e-07
-0.000556444
-1.25373e-05
-0.00147732
-4.68562e-05
-0.00224062
-0.000107031
-0.00282435
-0.000191587
-0.0032436
-0.000295848
-0.00354182
-0.000414673
-0.0037708
-0.000544345
-0.00397341
-0.000683066
-0.00417646
-0.000830482
-0.00439299
-0.000986984
-0.00462835
-0.00115325
-0.00488495
-0.00133007
-0.00516447
-0.00151827
-0.00546852
-0.00171872
-0.00579882
-0.0019324
-0.0061572
-0.00216051
-0.00654513
-0.00240452
-0.00696373
-0.00266502
-0.00741875
-0.00792605
-0.00294029
-3.14901e-06
-0.000553295
-2.26878e-05
-0.00145778
-6.636e-05
-0.00219695
-0.000136519
-0.00275419
-0.000230613
-0.00314951
-0.000343586
-0.00342885
-0.000470429
-0.00364395
-0.000607768
-0.00383607
-0.000754117
-0.00403011
-0.000909319
-0.00423779
-0.00107386
-0.00446381
-0.00124848
-0.00471033
-0.001434
-0.00497895
-0.00163128
-0.00527123
-0.00184126
-0.00558884
-0.002065
-0.00593346
-0.00230378
-0.00630635
-0.00255893
-0.00670858
-0.00283227
-0.0071454
-0.00764656
-0.00311177
-6.11738e-06
-0.000547178
-3.26119e-05
-0.00143129
-8.53041e-05
-0.00214426
-0.000164965
-0.00267453
-0.000268083
-0.00304639
-0.000389303
-0.00330763
-0.00052378
-0.00350948
-0.00066847
-0.00369138
-0.00082217
-0.00387641
-0.00098489
-0.00407507
-0.0011572
-0.00429149
-0.00133989
-0.00452764
-0.00153381
-0.00478503
-0.00173988
-0.00506516
-0.00195907