/*--------------------------------*- C++ -*----------------------------------*\
  =========                 |
  \\      /  F ield         | OpenFOAM: The Open Source CFD Toolbox
   \\    /   O peration     | Website:  https://openfoam.org
    \\  /    A nd           | Version:  7
     \\/     M anipulation  |
\*---------------------------------------------------------------------------*/
FoamFile
{
    version     2.0;
    format      ascii;
    class       volScalarField;
    location    "2.2";
    object      rho;
}
// * * * * * * * * * * * * * * * * * * * * * * * * * * * * * * * * * * * * * //

dimensions      [1 -3 0 0 0 0 0];

internalField   nonuniform List<scalar> 
12096
(
1.23142
1.23991
1.24619
1.24616
1.24513
1.24433
1.24356
1.2426
1.2413
1.2394
1.23631
1.22969
1.21491
1.19751
1.19185
1.19099
1.19039
1.18984
1.18933
1.18905
1.18956
1.19175
1.19396
1.19524
1.19611
1.19741
1.1977
1.19699
1.19616
1.19536
1.19438
1.19315
1.1917
1.1901
1.18819
1.18571
1.18273
1.17889
1.17279
1.16358
1.15714
1.15577
1.15518
1.1546
1.15406
1.15367
1.15341
1.15313
1.15283
1.15295
1.15336
1.15284
1.15231
1.15195
1.15166
1.15146
1.15137
1.15183
1.1518
1.15102
1.14967
1.14745
1.14161
1.12766
1.11157
1.10653
1.10581
1.1052
1.10434
1.10357
1.10308
1.10284
1.1031
1.10543
1.11263
1.12399
1.12884
1.12864
1.12783
1.12668
1.12502
1.12276
1.11965
1.11419
1.10224
1.08116
1.06606
1.06342
1.06294
1.06248
1.06206
1.06178
1.06163
1.06249
1.06624
1.0734
1.08367
1.09128
1.09197
1.09113
1.09033
1.08994
1.08955
1.0889
1.08798
1.08635
1.08236
1.07208
1.05418
1.04226
1.0401
1.03983
1.03942
1.03843
1.03766
1.03713
1.0367
1.03663
1.03903
1.04415
1.04555
1.04476
1.04407
1.04385
1.04405
1.04523
1.04596
1.04592
1.04545
1.04377
1.04008
1.03458
1.02806
1.02159
1.01581
1.01137
1.00806
1.00626
1.00554
1.00514
1.00485
1.00468
1.00471
1.00488
1.00471
1.00447
1.00526
1.00875
1.01112
1.01091
1.01032
1.00983
1.00934
1.00858
1.00656
1.00076
0.988935
0.978723
0.975813
0.974765
0.973896
0.973224
0.972625
0.97206
0.971702
0.972828
0.978387
0.983297
0.983681
0.98338
0.983448
0.983326
0.982796
0.982065
0.98066
0.976492
0.965722
0.952905
0.948789
0.948255
0.947896
0.947565
0.947362
0.947296
0.947329
0.947956
0.950467
0.955516
0.959367
0.959337
0.958518
0.957501
0.956447
0.95521
0.953721
0.95203
0.95001
0.947091
0.941935
0.933678
0.927831
0.926925
0.926764
0.926748
0.927434
0.928934
0.930128
0.93137
0.93324
0.933564
0.932745
0.931697
0.930602
0.929392
0.928192
0.927096
0.926038
0.924914
0.923635
0.92208
0.919949
0.916407
0.909671
0.899951
0.89453
0.893678
0.893369
0.89311
0.89294
0.892868
0.892968
0.893631
0.894942
0.897282
0.901456
0.905529
0.906121
0.905492
0.904562
0.903824
0.903318
0.902723
0.901902
0.900408
0.898455
0.894844
0.889039
0.879543
0.876416
0.880751
0.897128
1.00776
1.2329
1.24109
1.24748
1.24742
1.24636
1.24561
1.24494
1.24405
1.24282
1.2411
1.23826
1.23211
1.21868
1.20067
1.19288
1.1918
1.19126
1.19077
1.19035
1.19013
1.1906
1.19218
1.19384
1.19502
1.19596
1.19714
1.1979
1.19761
1.19685
1.19618
1.19546
1.19452
1.19319
1.19117
1.18879
1.1867
1.18461
1.18133
1.17431
1.16273
1.15601
1.15496
1.15446
1.15401
1.15378
1.15395
1.15444
1.15466
1.15453
1.15416
1.15341
1.15263
1.15221
1.15215
1.15181
1.15141
1.15131
1.15165
1.15167
1.15106
1.14999
1.14842
1.14477
1.13403
1.11603
1.10739
1.10633
1.10588
1.10527
1.10473
1.10442
1.10419
1.10402
1.10483
1.10906
1.11897
1.12845
1.12992
1.12923
1.12806
1.12674
1.12503
1.12246
1.11783
1.10768
1.0876
1.06847
1.06363
1.06298
1.06247
1.06203
1.06171
1.06149
1.0617
1.06391
1.06972
1.07945
1.08948
1.09233
1.09202
1.09159
1.09154
1.09137
1.09079
1.08986
1.08824
1.08458
1.07516
1.05757
1.04511
1.04241
1.04108
1.0393
1.0379
1.03728
1.03677
1.03635
1.03625
1.03808
1.04255
1.04463
1.04455
1.04431
1.04423
1.04441
1.04508
1.04552
1.04542
1.04509
1.04426
1.04156
1.03567
1.02826
1.02093
1.01468
1.01091
1.00924
1.00797
1.00694
1.00633
1.00587
1.00549
1.00517
1.00485
1.00448
1.00421
1.00453
1.00665
1.00986
1.01077
1.01042
1.00998
1.00956
1.00888
1.00734
1.00338
0.993971
0.981427
0.975445
0.973968
0.973111
0.97246
0.97191
0.971407
0.971074
0.971456
0.975951
0.982255
0.983247
0.982783
0.982558
0.982391
0.981914
0.981253
0.980129
0.977226
0.969176
0.956652
0.950976
0.950174
0.949754
0.949343
0.948997
0.948775
0.948658
0.948854
0.950104
0.95353
0.95804
0.959345
0.958789
0.957874
0.956918
0.955794
0.954488
0.952997
0.951119
0.948279
0.943142
0.934324
0.926914
0.925462
0.925289
0.925255
0.925841
0.927348
0.928687
0.930044
0.932176
0.932888
0.932161
0.931081
0.929953
0.928696
0.927448
0.926329
0.92528
0.924175
0.922895
0.921302
0.919148
0.915702
0.90918
0.899673
0.894482
0.893723
0.893421
0.893151
0.892962
0.892882
0.892996
0.89369
0.895035
0.897417
0.901591
0.906037
0.907071
0.906598
0.905712
0.904926
0.904323
0.90367
0.902878
0.901723
0.899873
0.896303
0.889267
0.879275
0.873917
0.873391
0.873355
0.882238
1.23554
1.24091
1.24556
1.24627
1.2452
1.24422
1.24347
1.24264
1.24149
1.23985
1.23723
1.23223
1.22155
1.20491
1.19562
1.19432
1.19381
1.1933
1.19285
1.1926
1.19269
1.19355
1.19479
1.19595
1.19696
1.19811
1.1989
1.19841
1.19768
1.19715
1.1966
1.19596
1.19502
1.1936
1.19203
1.19024
1.18766
1.1833
1.17498
1.16269
1.15679
1.15607
1.15558
1.1551
1.15488
1.15501
1.1556
1.15621
1.15589
1.15473
1.15372
1.15311
1.15314
1.15411
1.1539
1.15345
1.15314
1.15323
1.15329
1.15275
1.15181
1.15044
1.14726
1.13897
1.12355
1.11086
1.10741
1.10621
1.10517
1.10442
1.10408
1.10393
1.10386
1.10423
1.10711
1.11502
1.12676
1.13134
1.13091
1.12987
1.12865
1.1271
1.12487
1.121
1.11234
1.09352
1.07175
1.06424
1.06319
1.06258
1.062
1.0615
1.06115
1.06097
1.06179
1.06643
1.07619
1.08682
1.09239
1.09309
1.09278
1.09263
1.09246
1.09197
1.09127
1.09005
1.08702
1.07864
1.06157
1.04592
1.04191
1.04082
1.0394
1.0383
1.03772
1.03713
1.03656
1.0363
1.03763
1.042
1.04474
1.04497
1.0447
1.04455
1.04502
1.04578
1.04633
1.04636
1.04621
1.04571
1.04346
1.03801
1.02999
1.02124
1.01479
1.01164
1.00975
1.0086
1.00798
1.00747
1.00719
1.0068
1.00622
1.00569
1.00526
1.00487
1.00449
1.00484
1.00762
1.01047
1.01067
1.01025
1.00984
1.00936
1.00855
1.00616
0.998585
0.984796
0.976021
0.974107
0.973293
0.972602
0.972031
0.971504
0.971127
0.971164
0.973638
0.979944
0.982874
0.982645
0.982281
0.982049
0.981601
0.980972
0.979993
0.977956
0.972321
0.960597
0.951361
0.949536
0.949118
0.948742
0.948416
0.948234
0.948177
0.948266
0.949048
0.951841
0.956808
0.959342
0.959075
0.958191
0.957298
0.956326
0.955181
0.953885
0.952281
0.949745
0.944783
0.935562
0.927113
0.925243
0.925064
0.92503
0.925577
0.92709
0.928502
0.929843
0.93196
0.93292
0.932297
0.931207
0.930054
0.928773
0.927497
0.926364
0.925321
0.924234
0.922962
0.921338
0.919104
0.915722
0.909492
0.900216
0.895417
0.89477
0.894478
0.894218
0.894054
0.89399
0.894138
0.894927
0.896432
0.898979
0.903306
0.907939
0.909065
0.908576
0.907645
0.906849
0.906019
0.905213
0.904389
0.903385
0.901799
0.898372
0.890339
0.879178
0.873688
0.872638
0.872122
0.872517
1.23806
1.24252
1.24466
1.24594
1.24548
1.2443
1.24337
1.24245
1.24131
1.23973
1.23732
1.23328
1.22554
1.21124
1.19712
1.19297
1.19232
1.19177
1.19127
1.19098
1.1909
1.19125
1.19212
1.19335
1.1947
1.19569
1.19645
1.19764
1.19809
1.19749
1.19674
1.19614
1.19563
1.1952
1.19461
1.19349
1.1913
1.18706
1.17841
1.16436
1.15472
1.15332
1.15277
1.15217
1.15177
1.1517
1.15283
1.15582
1.15728
1.15673
1.15587
1.15544
1.15565
1.15518
1.15409
1.15296
1.1515
1.15001
1.14982
1.14956
1.14866
1.14742
1.14546
1.1408
1.12989
1.1161
1.10969
1.10711
1.10561
1.10492
1.10454
1.10434
1.10426
1.10437
1.10574
1.11098
1.12168
1.13043
1.13138
1.13059
1.12974
1.12871
1.12703
1.1238
1.11649
1.0994
1.07551
1.06495
1.06345
1.06272
1.06199
1.06135
1.06086
1.06051
1.06067
1.06385
1.07376
1.08666
1.09263
1.09346
1.09376
1.09396
1.09365
1.09318
1.09261
1.09157
1.08887
1.08158
1.0658
1.0474
1.04205
1.0412
1.04034
1.03965
1.03901
1.03835
1.03776
1.0374
1.0381
1.04193
1.04498
1.04532
1.0451
1.04485
1.04461
1.04453
1.04464
1.0447
1.04454
1.04409
1.04283
1.03954
1.0323
1.02209
1.01426
1.01151
1.01071
1.0102
1.00958
1.00869
1.00749
1.00635
1.00568
1.00509
1.00453
1.00403
1.00365
1.00377
1.00672
1.01134
1.01234
1.01199
1.0116
1.01119
1.0104
1.00809
1.00162
0.988658
0.978039
0.975404
0.974531
0.973727
0.973059
0.972441
0.971872
0.971489
0.972281
0.977217
0.982678
0.983235
0.982891
0.982715
0.982431
0.982013
0.981396
0.979942
0.975238
0.964127
0.95267
0.949725
0.949267
0.94892
0.94861
0.948416
0.948337
0.948343
0.948821
0.950945
0.955643
0.959659
0.959616
0.95884
0.958011
0.957043
0.955729
0.954178
0.95242
0.950049
0.945782
0.937569
0.928644
0.926066
0.925865
0.92582
0.926292
0.927773
0.929224
0.930536
0.932664
0.93411
0.933654
0.93255
0.931355
0.930066
0.928783
0.927644
0.926593
0.925487
0.924167
0.922436
0.919936
0.915824
0.908565
0.898783
0.894024
0.893404
0.893127
0.892892
0.892772
0.892777
0.893133
0.894127
0.89578
0.898452
0.902794
0.90726
0.908245
0.907688
0.906819
0.906227
0.905878
0.905502
0.904853
0.903917
0.902339
0.898773
0.890282
0.878325
0.872767
0.871731
0.871186
0.871125
1.24097
1.24255
1.24262
1.24323
1.24502
1.24465
1.24343
1.24231
1.2412
1.2398
1.23791
1.23515
1.22972
1.21767
1.2006
1.19328
1.19231
1.19175
1.19124
1.19093
1.19084
1.19096
1.1915
1.19248
1.19394
1.19538
1.19626
1.1973
1.19862
1.19852
1.19821
1.19833
1.19786
1.19696
1.19595
1.19482
1.19328
1.19032
1.18298
1.16798
1.15541
1.15268
1.15193
1.15118
1.15061
1.15022
1.15011
1.15128
1.15483
1.1586
1.16001
1.15943
1.1583
1.15692
1.15553
1.15404
1.15225
1.14999
1.14813
1.14789
1.14757
1.1466
1.14498
1.14161
1.1342
1.12148
1.11067
1.10721
1.10627
1.10566
1.10517
1.10487
1.1047
1.10453
1.10483
1.10825
1.11817
1.13
1.13263
1.13206
1.13131
1.13035
1.12876
1.12589
1.11971
1.10471
1.0802
1.06668
1.0645
1.06362
1.06284
1.06217
1.0616
1.06106
1.06083
1.06316
1.07174
1.08486
1.09287
1.09505
1.09542
1.09511
1.09465
1.09423
1.09365
1.09263
1.09016
1.08359
1.06874
1.05025
1.04171
1.03987
1.03901
1.03833
1.0377
1.03712
1.03671
1.03659
1.03801
1.04274
1.04602
1.04586
1.04537
1.0452
1.04505
1.04472
1.04444
1.04429
1.04414
1.0438
1.04268
1.03995
1.0338
1.02347
1.0147
1.01206
1.01133
1.01062
1.00987
1.00907
1.00804
1.00678
1.00575
1.00509
1.00452
1.00402
1.00364
1.00357
1.00533
1.00943
1.01105
1.01079
1.01041
1.01005
1.00944
1.00795
1.00354
0.992972
0.980024
0.974705
0.973548
0.972848
0.972212
0.971601
0.971074
0.97075
0.971046
0.974837
0.980562
0.981834
0.981406
0.981056
0.980876
0.980564
0.980121
0.979043
0.975654
0.966634
0.955223
0.95126
0.950695
0.950327
0.949974
0.949704
0.949559
0.949487
0.949612
0.950588
0.953691
0.958137
0.959568
0.959062
0.958195
0.957327
0.956298
0.955019
0.953487
0.951327
0.947209
0.938901
0.928505
0.924511
0.924207
0.92414
0.924481
0.925862
0.927406
0.928761
0.930948
0.9331
0.932876
0.931873
0.930671
0.929398
0.92809
0.926898
0.925803
0.924676
0.923381
0.921737
0.91941
0.915492
0.908243
0.898515
0.89366
0.893022
0.892759
0.89253
0.892406
0.892431
0.892975
0.894154
0.895875
0.898613
0.902973
0.907355
0.908262
0.907667
0.906856
0.90644
0.906277
0.905925
0.905266
0.904357
0.902755
0.898991
0.889937
0.877789
0.87246
0.871497
0.870946
0.87084
1.24033
1.24135
1.24135
1.24145
1.24321
1.24468
1.24394
1.24269
1.24174
1.24086
1.23966
1.23751
1.23311
1.22309
1.20566
1.19419
1.19229
1.19167
1.19109
1.1906
1.19026
1.19011
1.19037
1.19146
1.19312
1.1952
1.19717
1.19807
1.198
1.19822
1.19995
1.20061
1.2001
1.19956
1.19881
1.19765
1.19608
1.19342
1.18715
1.17327
1.15738
1.15142
1.15042
1.14981
1.14916
1.14844
1.14789
1.148
1.15131
1.15922
1.16247
1.16181
1.16069
1.15977
1.15868
1.15709
1.15463
1.15126
1.14811
1.14629
1.14663
1.14714
1.14656
1.14424
1.13796
1.12568
1.11217
1.10783
1.10709
1.10647
1.10587
1.10538
1.10499
1.10473
1.10484
1.1072
1.11509
1.12719
1.13314
1.13313
1.13258
1.13183
1.13052
1.12789
1.12221
1.10905
1.08539
1.06762
1.06363
1.06252
1.06161
1.0609
1.0603
1.05986
1.05978
1.06181
1.0691
1.08141
1.09261
1.09674
1.09675
1.09631
1.09603
1.09568
1.09507
1.09401
1.09166
1.08534
1.07065
1.05107
1.04136
1.0395
1.03876
1.03811
1.0375
1.03695
1.03656
1.03649
1.03833
1.04369
1.04709
1.04678
1.04623
1.04623
1.04623
1.04564
1.04494
1.04441
1.04408
1.04387
1.04363
1.0418
1.03518
1.02371
1.01585
1.01388
1.01298
1.01201
1.01108
1.01019
1.0091
1.00744
1.00588
1.00523
1.00471
1.00421
1.00381
1.00366
1.00511
1.00902
1.01089
1.01064
1.01023
1.00986
1.00935
1.00831
1.00533
0.996635
0.982634
0.97515
0.973582
0.972824
0.972193
0.971583
0.970995
0.970541
0.970425
0.97276
0.978884
0.981525
0.981285
0.980914
0.980707
0.980378
0.979962
0.97919
0.97679
0.969148
0.956632
0.95035
0.949467
0.949067
0.948688
0.94838
0.948222
0.948165
0.948239
0.949192
0.95233
0.957343
0.959722
0.959397
0.95853
0.95764
0.956727
0.955852
0.954824
0.952962
0.948912
0.940552
0.929284
0.924408
0.923999
0.923934
0.924216
0.925495
0.927065
0.928443
0.930591
0.933033
0.933013
0.932047
0.930844
0.929563
0.928219
0.926958
0.925804
0.924651
0.923346
0.921674
0.919322
0.915625
0.908751
0.89875
0.893558
0.892873
0.89261
0.892376
0.892238
0.892238
0.892826
0.894553
0.897065
0.900351
0.904762
0.90887
0.90966
0.90911
0.908421
0.908024
0.907614
0.907023
0.906313
0.905308
0.903437
0.899121
0.889621
0.877649
0.87301
0.872274
0.871674
0.871496
1.24139
1.24083
1.2404
1.24022
1.2411
1.24414
1.2445
1.24343
1.2427
1.24223
1.24149
1.23995
1.23655
1.22833
1.21124
1.1954
1.19164
1.19095
1.19032
1.1897
1.18921
1.18891
1.189
1.19052
1.19316
1.19581
1.19756
1.1982
1.19852
1.19877
1.19879
1.19908
1.20033
1.2011
1.20064
1.19977
1.1986
1.19649
1.19133
1.17862
1.16017
1.15095
1.14911
1.14831
1.14747
1.14678
1.14639
1.14647
1.14896
1.15614
1.16263
1.16274
1.16191
1.16135
1.16062
1.1596
1.15806
1.15531
1.15107
1.1464
1.14262
1.14236
1.14217
1.14074
1.13643
1.12759
1.11504
1.10912
1.10813
1.1074
1.1066
1.10592
1.10547
1.1052
1.10519
1.10672
1.11299
1.12519
1.13334
1.13388
1.13322
1.13236
1.13119
1.12898
1.12408
1.11244
1.0898
1.06926
1.06386
1.06274
1.06184
1.06095
1.06018
1.05957
1.05927
1.06068
1.06794
1.08095
1.09271
1.09707
1.09756
1.09745
1.09715
1.09674
1.09616
1.09515
1.09293
1.08707
1.07235
1.05116
1.04165
1.04019
1.03943
1.03868
1.03807
1.03756
1.03719
1.03717
1.03881
1.04391
1.04808
1.04805
1.04745
1.04733
1.04707
1.0463
1.04557
1.04503
1.04458
1.04399
1.04279
1.0404
1.03508
1.02409
1.01494
1.01295
1.01214
1.0112
1.01019
1.00913
1.00782
1.00647
1.00571
1.00517
1.00469
1.00429
1.00402
1.00407
1.00597
1.01001
1.0122
1.01203
1.01161
1.01126
1.01083
1.00991
1.00699
0.998929
0.985373
0.976675
0.974522
0.97349
0.972497
0.971678
0.971023
0.970451
0.970152
0.971437
0.977336
0.982105
0.982403
0.982152
0.981988
0.981673
0.981287
0.98064
0.978461
0.971435
0.958278
0.950386
0.949208
0.9488
0.94842
0.948068
0.947784
0.947583
0.947517
0.948226
0.951441
0.957633
0.961231
0.960999
0.959934
0.958757
0.957733
0.956549
0.954947
0.952676
0.948914
0.94174
0.931113
0.925275
0.924656
0.924589
0.924805
0.925945
0.927454
0.928835
0.930998
0.933874
0.934245
0.933351
0.932146
0.930852
0.929468
0.928132
0.92693
0.925768
0.924446
0.922696
0.920111
0.915839
0.908254
0.898284
0.893635
0.89306
0.892781
0.892521
0.892364
0.892359
0.892955
0.894648
0.897174
0.900362
0.904425
0.908041
0.908671
0.908221
0.907714
0.907288
0.90676
0.906153
0.905471
0.904482
0.902672
0.89865
0.889498
0.877221
0.872067
0.871349
0.870806
0.870544
1.23995
1.23939
1.23882
1.23857
1.23941
1.24247
1.24465
1.24408
1.24326
1.24281
1.24211
1.24102
1.23881
1.23241
1.21656
1.19749
1.1909
1.18986
1.18907
1.18831
1.18778
1.18742
1.18736
1.18903
1.19323
1.19713
1.19897
1.19942
1.19939
1.19911
1.19901
1.1999
1.20209
1.20273
1.20203
1.20112
1.20014
1.1986
1.19464
1.18332
1.16365
1.15143
1.1485
1.14704
1.14617
1.1458
1.14559
1.14555
1.14701
1.15285
1.1614
1.16385
1.16329
1.16296
1.16267
1.16201
1.16109
1.15932
1.15511
1.14831
1.14257
1.14
1.13984
1.139
1.13621
1.12903
1.11691
1.11055
1.10927
1.10843
1.1076
1.10688
1.10639
1.10608
1.10593
1.10693
1.11219
1.12355
1.13343
1.13469
1.13399
1.13302
1.13191
1.12992
1.12536
1.11449
1.09298
1.07124
1.06438
1.06313
1.06211
1.06096
1.06012
1.05951
1.05916
1.06027
1.06771
1.08264
1.09487
1.09866
1.09951
1.09986
1.09963
1.09903
1.09831
1.09717
1.09481
1.08888
1.07428
1.05211
1.03973
1.03777
1.0371
1.03651
1.03604
1.03564
1.0354
1.03568
1.03833
1.04502
1.05003
1.04988
1.04922
1.049
1.04845
1.04756
1.04676
1.04606
1.04528
1.04423
1.0427
1.04011
1.03406
1.02282
1.01447
1.01283
1.01218
1.01134
1.0103
1.0091
1.00768
1.00664
1.00597
1.00537
1.00491
1.00466
1.00454
1.00468
1.006
1.00869
1.01062
1.0106
1.0102
1.00981
1.00937
1.00855
1.00633
1.00009
0.987644
0.976928
0.974008
0.973122
0.972323
0.971621
0.970986
0.970395
0.97002
0.97062
0.975069
0.98021
0.981341
0.981192
0.981034
0.980808
0.980475
0.979936
0.978308
0.972856
0.961047
0.950949
0.948691
0.948263
0.947882
0.947503
0.947188
0.94698
0.946929
0.947661
0.95063
0.956395
0.960515
0.960437
0.959519
0.95857
0.957599
0.956457
0.955082
0.953166
0.949864
0.943365
0.932368
0.923973
0.922615
0.92254
0.922713
0.923758
0.925198
0.926495
0.92855
0.931896
0.933278
0.932609
0.931411
0.930176
0.928825
0.927452
0.926178
0.924978
0.923704
0.922109
0.919755
0.915681
0.908119
0.898601
0.894535
0.894011
0.89372
0.893449
0.893289
0.893282
0.893848
0.895463
0.897926
0.901034
0.904832
0.908091
0.908594
0.908134
0.907722
0.907289
0.906735
0.906158
0.905513
0.904585
0.902787
0.898716
0.889551
0.877146
0.871877
0.871129
0.870626
0.870394
1.23824
1.23755
1.23689
1.23664
1.23797
1.24243
1.24576
1.24548
1.24485
1.24453
1.24382
1.24258
1.24035
1.23487
1.22094
1.20033
1.19007
1.18841
1.18761
1.18691
1.18643
1.186
1.18577
1.18696
1.19212
1.19906
1.2013
1.20089
1.20026
1.19971
1.19942
1.20034
1.20345
1.20428
1.20372
1.20305
1.2023
1.20104
1.19773
1.18749
1.16691
1.15153
1.14828
1.14728
1.14615
1.14489
1.14401
1.14359
1.14413
1.14938
1.16036
1.16565
1.16534
1.16497
1.1646
1.16382
1.16294
1.1617
1.15904
1.15383
1.14647
1.13971
1.13624
1.13454
1.13204
1.12622
1.11665
1.11126
1.10991
1.10919
1.10857
1.108
1.10755
1.10724
1.10709
1.108
1.11253
1.12219
1.13256
1.13504
1.13432
1.1331
1.13191
1.13016
1.12617
1.11608
1.09539
1.07362
1.06551
1.0636
1.06233
1.06126
1.06055
1.05997
1.05961
1.06056
1.06741
1.08183
1.09337
1.09601
1.09633
1.0969
1.09798
1.09799
1.09739
1.09637
1.09448
1.08932
1.07561
1.05353
1.03975
1.03724
1.03664
1.03618
1.03575
1.03532
1.035
1.03519
1.03852
1.04663
1.05181
1.05166
1.05104
1.05078
1.05013
1.04929
1.04843
1.04747
1.04638
1.04508
1.04326
1.04003
1.033
1.0212
1.01455
1.01348
1.01298
1.01226
1.01105
1.00947
1.00846
1.00782
1.00713
1.00651
1.00611
1.00591
1.00583
1.00584
1.00672
1.0088
1.01041
1.01041
1.01004
1.00965
1.00918
1.00837
1.00643
1.00113
0.989459
0.977612
0.974034
0.973113
0.972347
0.971645
0.971032
0.970445
0.969972
0.970014
0.973346
0.979233
0.98119
0.981154
0.981024
0.980791
0.980408
0.979969
0.978934
0.974757
0.963654
0.951743
0.948433
0.947958
0.947584
0.947218
0.946921
0.946719
0.946668
0.947287
0.950055
0.955849
0.960337
0.960488
0.95973
0.958817
0.957863
0.956722
0.955358
0.953693
0.950943
0.94503
0.933817
0.923938
0.921931
0.921837
0.921982
0.923099
0.924608
0.92568
0.927334
0.93085
0.933112
0.932656
0.9315
0.930263
0.92892
0.927508
0.926176
0.924928
0.92363
0.922061
0.919815
0.915952
0.908528
0.898237
0.893304
0.892689
0.892403
0.892145
0.892003
0.892028
0.892666
0.894291
0.896848
0.900562
0.905365
0.908753
0.908982
0.908495
0.907806
0.906953
0.906113
0.90536
0.904519
0.903327
0.901345
0.897468
0.889328
0.878112
0.872884
0.872099
0.871732
0.871606
1.23675
1.23606
1.23553
1.23543
1.237
1.24235
1.24674
1.24688
1.24648
1.24621
1.24563
1.24455
1.2425
1.23754
1.2246
1.20301
1.19
1.18746
1.18656
1.18575
1.18501
1.18438
1.18413
1.18549
1.19136
1.19982
1.20263
1.20214
1.2015
1.20098
1.20064
1.20094
1.20272
1.20454
1.20454
1.20409
1.20351
1.20248
1.19943
1.19023
1.17165
1.15497
1.14896
1.14661
1.14457
1.14266
1.14166
1.14125
1.14149
1.14598
1.15848
1.16732
1.16831
1.16803
1.1674
1.16635
1.16501
1.1635
1.16163
1.1582
1.15112
1.14127
1.13346
1.13008
1.12767
1.12329
1.11625
1.11162
1.11065
1.11005
1.10951
1.10917
1.109
1.10883
1.10871
1.10938
1.11302
1.12168
1.13299
1.13674
1.1361
1.13469
1.13324
1.13123
1.12713
1.11724
1.0968
1.0751
1.06657
1.06416
1.06286
1.06199
1.06133
1.06077
1.0604
1.061
1.06693
1.08153
1.09349
1.09584
1.09584
1.0959
1.09704
1.09804
1.0977
1.09684
1.09507
1.09
1.07715
1.05603
1.04062
1.03778
1.03732
1.03689
1.03643
1.03602
1.0357
1.03563
1.03742
1.04393
1.05124
1.05255
1.05218
1.05187
1.05129
1.0507
1.05012
1.04931
1.04812
1.04659
1.04425
1.03992
1.03123
1.0186
1.01224
1.01116
1.01072
1.01039
1.00979
1.00859
1.00761
1.00694
1.00629
1.00572
1.00527
1.00498
1.00504
1.00644
1.00895
1.01087
1.0116
1.01146
1.0111
1.01075
1.01033
1.00964
1.00793
1.00285
0.991261
0.978793
0.974391
0.973309
0.97249
0.97173
0.97112
0.970535
0.969997
0.969812
0.972226
0.979129
0.98256
0.982608
0.982395
0.98215
0.981727
0.981243
0.980184
0.976509
0.96627
0.953402
0.949073
0.94849
0.948083
0.947696
0.947349
0.947087
0.946937
0.947493
0.950348
0.956327
0.961612
0.962174
0.961494
0.960491
0.959327
0.957824
0.956197
0.954321
0.951454
0.94596
0.935647
0.924801
0.921699
0.921548
0.921593
0.922331
0.923653
0.924673
0.92612
0.929853
0.933806
0.933836
0.932806
0.931554
0.930215
0.928759
0.92733
0.925996
0.924636
0.923023
0.920749
0.916805
0.909181
0.898499
0.893188
0.892498
0.892216
0.891969
0.891843
0.891887
0.89255
0.894117
0.89661
0.900758
0.906499
0.909483
0.909311
0.908584
0.907768
0.906836
0.905895
0.9051
0.904257
0.903072
0.901115
0.897383
0.889554
0.878037
0.872112
0.871305
0.871009
0.870857
1.23526
1.23459
1.2342
1.23462
1.2374
1.24289
1.24666
1.24686
1.24655
1.2465
1.24618
1.24531
1.24375
1.23967
1.22764
1.20552
1.19021
1.18668
1.18539
1.18424
1.18327
1.18267
1.18254
1.18459
1.19186
1.20091
1.20301
1.20229
1.20167
1.20154
1.20171
1.20241
1.20432
1.20562
1.20532
1.2047
1.20399
1.20277
1.19971
1.19183
1.17587
1.15757
1.14848
1.14548
1.14308
1.14117
1.14046
1.1401
1.14008
1.14275
1.15281
1.16616
1.17056
1.1705
1.16994
1.1693
1.16844
1.16722
1.16544
1.16215
1.15518
1.14386
1.13286
1.12632
1.12223
1.1181
1.11423
1.11265
1.11184
1.11117
1.11065
1.1104
1.11039
1.1104
1.11045
1.11147
1.11501
1.12219
1.13044
1.13426
1.13416
1.13335
1.13225
1.1306
1.12722
1.11829
1.09839
1.07596
1.06729
1.06534
1.06429
1.06334
1.06255
1.06196
1.06159
1.06202
1.06715
1.08038
1.09267
1.09558
1.09556
1.09542
1.09591
1.09673
1.09655
1.09584
1.09414
1.08962
1.07888
1.05931
1.04112
1.03603
1.03521
1.03462
1.0341
1.03378
1.03366
1.03388
1.03602
1.04248
1.05087
1.05338
1.05274
1.052
1.05163
1.05132
1.051
1.05054
1.04971
1.04832
1.04581
1.04049
1.02974
1.01628
1.01102
1.01029
1.00981
1.00948
1.00929
1.00864
1.00761
1.00686
1.0062
1.00571
1.00539
1.00512
1.00532
1.00754
1.01004
1.01033
1.00997
1.00954
1.00908
1.00855
1.00796
1.00712
1.00536
1.00069
0.990161
0.978498
0.974364
0.97332
0.972515
0.971813
0.971228
0.970687
0.970214
0.970004
0.971372
0.976725
0.981054
0.981521
0.981284
0.98121
0.981015
0.980591
0.979875
0.977385
0.969406
0.955764
0.947657
0.946332
0.945859
0.9454
0.944952
0.944602
0.944437
0.944909
0.947951
0.954749
0.960931
0.961695
0.961013
0.960015
0.959014
0.957959
0.956607
0.954801
0.95205
0.947026
0.937441
0.925649
0.921211
0.92093
0.920937
0.921494
0.922839
0.924188
0.925583
0.928289
0.932053
0.93286
0.931972
0.930746
0.929473
0.928062
0.926584
0.925181
0.923831
0.922302
0.920143
0.916533
0.909865
0.900091
0.894235
0.893349
0.893067
0.892825
0.892702
0.892733
0.893349
0.894942
0.897798
0.90282
0.908811
0.910727
0.910234
0.909334
0.908468
0.907429
0.90633
0.905445
0.904592
0.90343
0.901511
0.897897
0.890244
0.878565
0.872111
0.871222
0.870961
0.870796
1.23322
1.23267
1.23243
1.2336
1.23802
1.24481
1.24821
1.24814
1.24787
1.24801
1.24773
1.24684
1.24521
1.2409
1.22868
1.20646
1.19059
1.18622
1.18439
1.18287
1.18186
1.1813
1.18111
1.18343
1.19261
1.20283
1.20438
1.2035
1.20274
1.20239
1.20279
1.20526
1.20738
1.20749
1.207
1.20645
1.20579
1.20468
1.20195
1.19446
1.17868
1.15843
1.14807
1.14513
1.143
1.14101
1.14018
1.13981
1.13966
1.14062
1.14718
1.16152
1.17211
1.1734
1.1729
1.17235
1.17164
1.17048
1.16869
1.16558
1.15927
1.14784
1.13392
1.12264
1.11532
1.11144
1.11038
1.11028
1.11081
1.11165
1.11185
1.1117
1.1116
1.11161
1.11218
1.11409
1.11768
1.12348
1.13042
1.1334
1.13328
1.13292
1.13243
1.13127
1.1283
1.12019
1.10095
1.07704
1.06803
1.06661
1.06576
1.06489
1.06417
1.06363
1.06333
1.06384
1.06826
1.07888
1.09013
1.09415
1.09464
1.09483
1.09523
1.09587
1.09584
1.09541
1.09417
1.09061
1.08151
1.06279
1.04262
1.0362
1.03514
1.03441
1.03374
1.03326
1.03303
1.03301
1.0344
1.04051
1.05084
1.05436
1.05379
1.05305
1.05244
1.05183
1.05136
1.05092
1.0503
1.04928
1.04706
1.04113
1.02817
1.014
1.00938
1.00877
1.00833
1.00789
1.00774
1.00804
1.00766
1.00692
1.00622
1.00569
1.00542
1.00548
1.00718
1.01026
1.0106
1.01012
1.00974
1.00934
1.00884
1.00816
1.00729
1.0061
1.00392
0.999042
0.989301
0.978614
0.974633
0.973555
0.972763
0.9721
0.971516
0.970969
0.970498
0.970271
0.971307
0.975721
0.980475
0.981372
0.981084
0.980843
0.980767
0.980448
0.979979
0.978532
0.972454
0.958823
0.948147
0.945582
0.944983
0.944407
0.943886
0.943466
0.943198
0.9434
0.946213
0.953709
0.960756
0.961769
0.961119
0.960184
0.959326
0.958318
0.956983
0.955246
0.952717
0.948085
0.938794
0.926275
0.920868
0.9205
0.920589
0.921515
0.922887
0.923655
0.924393
0.926521
0.930839
0.932735
0.932038
0.930772
0.929493
0.928078
0.926558
0.925093
0.923715
0.922251
0.920331
0.917165
0.910937
0.900641
0.89323
0.891936
0.891655
0.891407
0.891249
0.891201
0.891631
0.893309
0.896606
0.902142
0.908096
0.909671
0.909142
0.908164
0.907126
0.905914
0.90467
0.90364
0.902717
0.901598
0.899876
0.896738
0.890224
0.879791
0.873396
0.872387
0.872127
0.871967
1.23078
1.23037
1.23053
1.23298
1.23963
1.24885
1.25202
1.2516
1.25127
1.25122
1.25068
1.24976
1.24805
1.24345
1.23098
1.2085
1.1907
1.18522
1.18315
1.1818
1.18101
1.18047
1.18029
1.1827
1.19278
1.2038
1.2056
1.20482
1.20418
1.20395
1.20487
1.20641
1.20629
1.20566
1.20502
1.20435
1.20363
1.20267
1.20065
1.195
1.18019
1.15923
1.14826
1.14556
1.14376
1.14179
1.14057
1.14006
1.1399
1.14019
1.14285
1.15294
1.16931
1.17627
1.17652
1.17602
1.17533
1.17412
1.17226
1.16929
1.16387
1.15344
1.13608
1.1177
1.10925
1.10752
1.10714
1.1073
1.1096
1.11303
1.11401
1.11359
1.11312
1.11293
1.11342
1.11573
1.12016
1.12693
1.13273
1.1332
1.13227
1.13098
1.12964
1.12809
1.12541
1.11896
1.10299
1.08042
1.06988
1.06785
1.06676
1.06591
1.06532
1.06494
1.0648
1.0657
1.06964
1.07729
1.08641
1.09179
1.09346
1.09448
1.09544
1.09542
1.09508
1.09431
1.09271
1.08945
1.08214
1.06604
1.04586
1.03747
1.03599
1.03513
1.03418
1.03343
1.0329
1.03267
1.03328
1.03778
1.04801
1.05491
1.05494
1.05421
1.05357
1.0531
1.05277
1.0523
1.05154
1.05033
1.04785
1.04103
1.02632
1.01225
1.008
1.00733
1.00698
1.00669
1.00661
1.00752
1.00804
1.00745
1.00685
1.00639
1.00602
1.0063
1.00915
1.01126
1.01079
1.01022
1.00996
1.00959
1.00906
1.00825
1.00704
1.00534
1.00253
0.997029
0.987612
0.979069
0.975941
0.974929
0.974147
0.973453
0.972827
0.972224
0.97167
0.971282
0.971797
0.97548
0.980229
0.981528
0.981229
0.980857
0.980673
0.980411
0.980043
0.979123
0.974798
0.962674
0.949556
0.944992
0.944119
0.94356
0.943063
0.942658
0.942402
0.942501
0.944867
0.952531
0.961433
0.963322
0.9628
0.961918
0.960897
0.959483
0.957745
0.955872
0.953352
0.948857
0.940073
0.927391
0.920585
0.919928
0.919947
0.920514
0.921787
0.922737
0.923499
0.925338
0.929813
0.933385
0.933033
0.931868
0.930644
0.929307
0.927747
0.926146
0.924694
0.923287
0.921536
0.918545
0.91248
0.901773
0.89337
0.891736
0.89146
0.891219
0.891043
0.890968
0.891222
0.892733
0.896156
0.90201
0.908051
0.909505
0.908996
0.908048
0.906945
0.905585
0.904214
0.903052
0.901984
0.900792
0.899152
0.896394
0.89089
0.881309
0.873364
0.871613
0.871328
0.871146
1.2284
1.22813
1.22913
1.23353
1.24325
1.25103
1.25149
1.25076
1.25037
1.25012
1.24949
1.24862
1.24692
1.24227
1.22979
1.20717
1.18917
1.184
1.18237
1.18145
1.18072
1.18014
1.1802
1.18412
1.19519
1.20522
1.20633
1.20562
1.20512
1.2054
1.20684
1.20683
1.20622
1.2057
1.20511
1.20428
1.20331
1.20196
1.19931
1.19296
1.17886
1.15979
1.14993
1.14716
1.14523
1.14327
1.14197
1.14125
1.14093
1.14087
1.14159
1.14629
1.16032
1.17585
1.17875
1.17836
1.17773
1.17691
1.1755
1.17293
1.16808
1.15808
1.13841
1.11512
1.10599
1.10451
1.10389
1.10355
1.10437
1.10947
1.11537
1.11625
1.11579
1.1154
1.1154
1.117
1.12216
1.12988
1.1335
1.13324
1.13216
1.13064
1.12876
1.12637
1.12287
1.11638
1.10304
1.08334
1.07231
1.07002
1.06897
1.06797
1.06721
1.06677
1.06668
1.06778
1.0712
1.07663
1.08317
1.08904
1.09257
1.09419
1.09478
1.09466
1.09425
1.09348
1.09197
1.08914
1.08306
1.06936
1.04932
1.03734
1.03452
1.03364
1.03293
1.03234
1.03189
1.03161
1.03194
1.03598
1.04607
1.05395
1.05452
1.05392
1.05365
1.054
1.05402
1.05346
1.05267
1.05143
1.04872
1.04126
1.02573
1.01133
1.00706
1.00619
1.00568
1.00528
1.00503
1.00504
1.00568
1.00652
1.00705
1.00714
1.00735
1.00932
1.01198
1.01182
1.01111
1.01083
1.01071
1.01031
1.00961
1.00844
1.00668
1.00423
1.0005
0.994204
0.985073
0.977924
0.975586
0.974643
0.973805
0.97299
0.972264
0.971632
0.971108
0.970861
0.971947
0.976332
0.981637
0.982955
0.982499
0.981973
0.981732
0.981513
0.981193
0.980371
0.976669
0.965949
0.951943
0.945687
0.94381
0.943073
0.942582
0.942118
0.941759
0.941641
0.943112
0.949794
0.959576
0.962743
0.962382
0.961503
0.96056
0.959512
0.9582
0.956489
0.95409
0.949924
0.941653
0.928555
0.920308
0.919303
0.919257
0.919579
0.920867
0.92228
0.923227
0.92455
0.927724
0.931497
0.931673
0.930612
0.929454
0.928292
0.926938
0.925417
0.923949
0.922566
0.920936
0.918361
0.913299
0.903778
0.894769
0.892617
0.892316
0.892063
0.891838
0.891701
0.89172
0.892614
0.895886
0.902001
0.90803
0.909529
0.909052
0.908114
0.90697
0.905539
0.904082
0.902841
0.901662
0.900377
0.898726
0.896262
0.891774
0.88299
0.874025
0.871648
0.871327
0.871122
1.22598
1.22584
1.22799
1.23594
1.24789
1.25226
1.25168
1.25086
1.25049
1.25008
1.2494
1.24852
1.24682
1.24211
1.22954
1.20635
1.18804
1.18325
1.18224
1.18153
1.18084
1.18028