/*--------------------------------*- C++ -*----------------------------------*\
  =========                 |
  \\      /  F ield         | OpenFOAM: The Open Source CFD Toolbox
   \\    /   O peration     | Website:  https://openfoam.org
    \\  /    A nd           | Version:  7
     \\/     M anipulation  |
\*---------------------------------------------------------------------------*/
FoamFile
{
    version     2.0;
    format      ascii;
    class       volScalarField;
    location    "50.999592";
    object      p;
}
// * * * * * * * * * * * * * * * * * * * * * * * * * * * * * * * * * * * * * //

dimensions      [0 2 -2 0 0 0 0];

internalField   nonuniform List<scalar> 
23200
(
-0.221012
-0.222789
-0.223865
-0.224708
-0.225444
-0.226097
-0.226703
-0.227291
-0.227872
-0.228442
-0.228992
-0.229498
-0.229936
-0.230272
-0.230468
-0.230484
-0.230278
-0.229834
-0.229121
-0.228047
-0.221283
-0.22303
-0.224089
-0.224918
-0.225643
-0.226285
-0.226883
-0.227464
-0.228038
-0.228603
-0.229148
-0.229652
-0.230087
-0.230421
-0.230616
-0.230629
-0.230416
-0.229959
-0.229232
-0.228033
-0.221819
-0.223506
-0.22453
-0.225333
-0.226035
-0.226658
-0.227238
-0.227804
-0.228365
-0.228919
-0.229454
-0.22995
-0.23038
-0.230711
-0.230903
-0.230912
-0.230685
-0.230199
-0.229464
-0.227987
-0.222605
-0.224206
-0.22518
-0.225943
-0.22661
-0.227203
-0.227757
-0.228298
-0.228838
-0.229374
-0.229895
-0.230379
-0.2308
-0.231124
-0.231311
-0.231315
-0.23107
-0.23053
-0.229834
-0.227865
-0.223622
-0.225113
-0.226022
-0.226734
-0.227354
-0.227905
-0.228422
-0.22893
-0.22944
-0.22995
-0.230448
-0.230915
-0.231322
-0.231636
-0.231813
-0.23181
-0.23155
-0.230908
-0.230373
-0.227593
-0.224844
-0.226207
-0.227038
-0.227686
-0.228248
-0.228746
-0.229214
-0.229678
-0.230147
-0.230621
-0.231088
-0.231528
-0.231914
-0.232212
-0.232375
-0.232362
-0.232102
-0.231262
-0.231128
-0.227056
-0.226246
-0.227466
-0.228207
-0.228781
-0.229273
-0.229705
-0.230111
-0.230516
-0.230932
-0.231358
-0.231782
-0.232185
-0.232541
-0.232815
-0.232957
-0.232922
-0.232708
-0.231486
-0.232144
-0.226146
-0.227798
-0.228866
-0.229509
-0.229997
-0.230406
-0.230758
-0.231088
-0.23142
-0.231767
-0.23213
-0.232497
-0.23285
-0.233163
-0.233404
-0.233513
-0.233422
-0.233352
-0.231507
-0.233336
-0.225104
-0.229472
-0.230385
-0.230922
-0.231314
-0.231628
-0.231885
-0.232122
-0.232364
-0.232625
-0.232907
-0.233201
-0.233488
-0.233743
-0.233935
-0.234001
-0.233793
-0.233949
-0.231567
-0.23404
-0.224239
-0.231246
-0.232003
-0.23243
-0.232716
-0.23292
-0.233066
-0.233191
-0.233323
-0.233478
-0.23366
-0.233861
-0.234064
-0.234244
-0.234369
-0.234382
-0.234126
-0.234259
-0.231496
-0.234741
-0.223037
-0.233099
-0.233706
-0.234018
-0.234188
-0.234267
-0.234284
-0.234277
-0.234278
-0.234305
-0.234365
-0.234453
-0.234552
-0.234636
-0.234675
-0.234612
-0.234253
-0.234457
-0.231071
-0.235401
-0.221545
-0.235018
-0.235484
-0.235676
-0.23572
-0.23566
-0.235529
-0.235368
-0.235214
-0.23509
-0.235005
-0.234957
-0.234931
-0.234899
-0.234831
-0.234676
-0.234153
-0.234496
-0.230303
-0.235829
-0.219917
-0.237
-0.237333
-0.237404
-0.237309
-0.237093
-0.236793
-0.236456
-0.236123
-0.235824
-0.235571
-0.235365
-0.235192
-0.235023
-0.234826
-0.234564
-0.233835
-0.234299
-0.22928
-0.235758
-0.218404
-0.239049
-0.239259
-0.239203
-0.238958
-0.238569
-0.238078
-0.237542
-0.237006
-0.236507
-0.236063
-0.235677
-0.235337
-0.235013
-0.234664
-0.234274
-0.233318
-0.233782
-0.228142
-0.234866
-0.217218
-0.241181
-0.241275
-0.241086
-0.240678
-0.240095
-0.239393
-0.238633
-0.237871
-0.237149
-0.236492
-0.235907
-0.235381
-0.234883
-0.234359
-0.233806
-0.232628
-0.232861
-0.227008
-0.232901
-0.216312
-0.243423
-0.243404
-0.243071
-0.242483
-0.241689
-0.240753
-0.239747
-0.238736
-0.237771
-0.236881
-0.236078
-0.235349
-0.234657
-0.233936
-0.233167
-0.231774
-0.231488
-0.22587
-0.229863
-0.215309
-0.245809
-0.245673
-0.245184
-0.244399
-0.243373
-0.242181
-0.240908
-0.239628
-0.2384
-0.237262
-0.236224
-0.235273
-0.234364
-0.233414
-0.232362
-0.230731
-0.229668
-0.224541
-0.226015
-0.213723
-0.248384
-0.248117
-0.24746
-0.246457
-0.245176
-0.243707
-0.242147
-0.24058
-0.239074
-0.237672
-0.236384
-0.235191
-0.234033
-0.232806
-0.23139
-0.229434
-0.227438
-0.222743
-0.221635
-0.211279
-0.251201
-0.250783
-0.249935
-0.248691
-0.247133
-0.245367
-0.243501
-0.241633
-0.239836
-0.238155
-0.2366
-0.235137
-0.233684
-0.23211
-0.230237
-0.22781
-0.224829
-0.220254
-0.216772
-0.208046
-0.254318
-0.253717
-0.252652
-0.251142
-0.249284
-0.247201
-0.245015
-0.242831
-0.24073
-0.238757
-0.23691
-0.235136
-0.233322
-0.231308
-0.228865
-0.225804
-0.221857
-0.216999
-0.211409
-0.204313
-0.257792
-0.25697
-0.255656
-0.253853
-0.251672
-0.249254
-0.246732
-0.244221
-0.241803
-0.239516
-0.237342
-0.235199
-0.232938
-0.230365
-0.22723
-0.223388
-0.21853
-0.213043
-0.206016
-0.199973
-0.261686
-0.260592
-0.258994
-0.256869
-0.254341
-0.251569
-0.248698
-0.245847
-0.243096
-0.240466
-0.237914
-0.235321
-0.232502
-0.22924
-0.225291
-0.220567
-0.214829
-0.208518
-0.20101
-0.194244
-0.266057
-0.264633
-0.262712
-0.260235
-0.257336
-0.254193
-0.250959
-0.247753
-0.244642
-0.241626
-0.238623
-0.235477
-0.231971
-0.227888
-0.223023
-0.217363
-0.210759
-0.203726
-0.195705
-0.188358
-0.27096
-0.269142
-0.266857
-0.263996
-0.260702
-0.257169
-0.253557
-0.249974
-0.246468
-0.243001
-0.239452
-0.235625
-0.231295
-0.226271
-0.220419
-0.213808
-0.2064
-0.198696
-0.190269
-0.18256
-0.276443
-0.274162
-0.271471
-0.268195
-0.264482
-0.260542
-0.25653
-0.25254
-0.248582
-0.244578
-0.24036
-0.235712
-0.230422
-0.224359
-0.217485
-0.209948
-0.201799
-0.193516
-0.184738
-0.176732
-0.282547
-0.279733
-0.276592
-0.272873
-0.268718
-0.264349
-0.259911
-0.255465
-0.250979
-0.246322
-0.241293
-0.235674
-0.229303
-0.222135
-0.214239
-0.205825
-0.197007
-0.188216
-0.179124
-0.170902
-0.289304
-0.285886
-0.282258
-0.278066
-0.273446
-0.268625
-0.263721
-0.258752
-0.253631
-0.24818
-0.242179
-0.235445
-0.227896
-0.219593
-0.210701
-0.201472
-0.192053
-0.18281
-0.173443
-0.165016
-0.296736
-0.292647
-0.288494
-0.283806
-0.278698
-0.273391
-0.267965
-0.26238
-0.256488
-0.250076
-0.242939
-0.234959
-0.226167
-0.216731
-0.206891
-0.196911
-0.186948
-0.177295
-0.167678
-0.159061
-0.304853
-0.300029
-0.295322
-0.290116
-0.284494
-0.278657
-0.27263
-0.266302
-0.259474
-0.25192
-0.243485
-0.234158
-0.224092
-0.21355
-0.202817
-0.192148
-0.18169
-0.171659
-0.161815
-0.153012
-0.313647
-0.308034
-0.302748
-0.297006
-0.290839
-0.284409
-0.277673
-0.270446
-0.262491
-0.253607
-0.243731
-0.232988
-0.22165
-0.210047
-0.198482
-0.187178
-0.176262
-0.165881
-0.15583
-0.146846
-0.323093
-0.316647
-0.310765
-0.304468
-0.297714
-0.290608
-0.283022
-0.274708
-0.265419
-0.255024
-0.243596
-0.231404
-0.218821
-0.206214
-0.193873
-0.181984
-0.170644
-0.159938
-0.1497
-0.140544
-0.333142
-0.325831
-0.319343
-0.312471
-0.305074
-0.297179
-0.288572
-0.278956
-0.268121
-0.256059
-0.243004
-0.229364
-0.215583
-0.202034
-0.188972
-0.176541
-0.164809
-0.153803
-0.143401
-0.134083
-0.343719
-0.335526
-0.328427
-0.320955
-0.312839
-0.304014
-0.294181
-0.283035
-0.270455
-0.256602
-0.241886
-0.226829
-0.21191
-0.19748
-0.183752
-0.170821
-0.158727
-0.147449
-0.136906
-0.127443
-0.354719
-0.345643
-0.337934
-0.329827
-0.320893
-0.310963
-0.299678
-0.286773
-0.272276
-0.256552
-0.240178
-0.223757
-0.207768
-0.192522
-0.178178
-0.164791
-0.152367
-0.14085
-0.130193
-0.120602
-0.366001
-0.356059
-0.347743
-0.338954
-0.329077
-0.317841
-0.304866
-0.289987
-0.273441
-0.255812
-0.237819
-0.220104
-0.203121
-0.187122
-0.172216
-0.158416
-0.145698
-0.133979
-0.123238
-0.113543
-0.377394
-0.36662
-0.3577
-0.348165
-0.337194
-0.324432
-0.309529
-0.292495
-0.273817
-0.254293
-0.234747
-0.215823
-0.197924
-0.18124
-0.165826
-0.151661
-0.13869
-0.126811
-0.116017
-0.106247
-0.388687
-0.377134
-0.367609
-0.357247
-0.345011
-0.330493
-0.313444
-0.294118
-0.273279
-0.251911
-0.230901
-0.210863
-0.192132
-0.174833
-0.158971
-0.144492
-0.131314
-0.119321
-0.108509
-0.0986971
-0.399638
-0.387376
-0.377241
-0.365953
-0.352265
-0.335765
-0.316389
-0.294688
-0.271709
-0.248586
-0.226222
-0.205172
-0.185697
-0.167857
-0.151613
-0.136877
-0.123544
-0.111486
-0.100694
-0.0908781
-0.409976
-0.397086
-0.38633
-0.374003
-0.35867
-0.339985
-0.318146
-0.294049
-0.269001
-0.24424
-0.220646
-0.198697
-0.178572
-0.160272
-0.143715
-0.128786
-0.115355
-0.103288
-0.092556
-0.0827809
-0.419401
-0.405978
-0.394583
-0.381094
-0.363929
-0.342889
-0.318512
-0.292056
-0.265055
-0.2388
-0.214114
-0.191384
-0.17071
-0.152037
-0.135244
-0.120191
-0.106727
-0.094707
-0.0840826
-0.0744056
-0.427598
-0.413744
-0.401685
-0.386907
-0.367743
-0.344228
-0.317302
-0.288583
-0.259782
-0.232198
-0.206568
-0.183185
-0.16207
-0.143117
-0.126171
-0.111069
-0.097638
-0.0857283
-0.0752662
-0.0657573
-0.434236
-0.420062
-0.407309
-0.39112
-0.369822
-0.34377
-0.31435
-0.283515
-0.253102
-0.22437
-0.197956
-0.174053
-0.152612
-0.133479
-0.116471
-0.101398
-0.0880724
-0.0763357
-0.0660955
-0.0568304
-0.438984
-0.424602
-0.411126
-0.39342
-0.369894
-0.341309
-0.309513
-0.276756
-0.244943
-0.215259
-0.188228
-0.163948
-0.142303
-0.123098
-0.106122
-0.0911649
-0.0780168
-0.066517
-0.0565555
-0.0475907
-0.441518
-0.427039
-0.412812
-0.393506
-0.367713
-0.336664
-0.302671
-0.268224
-0.235245
-0.204817
-0.177346
-0.152837
-0.131117
-0.111954
-0.0951111
-0.0803562
-0.0674618
-0.0562692
-0.0466435
-0.0379631
-0.441527
-0.427062
-0.412064
-0.391109
-0.363065
-0.329688
-0.293727
-0.257855
-0.223961
-0.193006
-0.165277
-0.140695
-0.119035
-0.100031
-0.0834247
-0.0689632
-0.0564033
-0.045597
-0.036388
-0.0278913
-0.438726
-0.424383
-0.408605
-0.385989
-0.355774
-0.320266
-0.28261
-0.245603
-0.211056
-0.179798
-0.151999
-0.127505
-0.106042
-0.0873197
-0.0710572
-0.0569817
-0.0448512
-0.0345095
-0.0257936
-0.0174904
-0.432862
-0.418745
-0.402197
-0.377952
-0.345703
-0.308315
-0.269275
-0.231439
-0.196511
-0.165177
-0.1375
-0.113257
-0.0921331
-0.0738191
-0.0580187
-0.0444214
-0.0328317
-0.0230441
-0.0147431
-0.00692456
-0.423724
-0.40993
-0.392641
-0.366845
-0.332757
-0.293788
-0.2537
-0.215355
-0.18032
-0.149137
-0.121773
-0.0979465
-0.0773235
-0.0595464
-0.0443383
-0.0313285
-0.0203317
-0.0111668
-0.00332923
0.00386672
-0.411143
-0.397766
-0.37979
-0.352565
-0.316885
-0.276668
-0.235889
-0.197358
-0.162488
-0.131684
-0.104835
-0.0815949
-0.0616541
-0.0445424
-0.0300038
-0.0176894
-0.00738043
0.00110976
0.00839942
0.0149072
-0.395003
-0.382132
-0.363547
-0.335058
-0.298076
-0.256975
-0.21587
-0.177474
-0.143036
-0.112851
-0.0867419
-0.0642755
-0.0451027
-0.028802
-0.015053
-0.00352902
0.00600197
0.0137565
0.0204181
0.026189
-0.375241
-0.362959
-0.343869
-0.31432
-0.276361
-0.23476
-0.193695
-0.155749
-0.122016
-0.0927256
-0.0675051
-0.0459756
-0.0277287
-0.0123605
0.000481715
0.0111199
0.0197885
0.0267415
0.0327056
0.0376874
-0.351849
-0.340234
-0.320767
-0.290395
-0.251815
-0.210104
-0.16944
-0.132263
-0.0995361
-0.0712986
-0.0471785
-0.026748
-0.0095773
0.0047368
0.0165616
0.0262193
0.0339452
0.0400307
0.0452329
0.0493689
-0.324875
-0.313999
-0.294308
-0.263384
-0.224557
-0.183111
-0.143203
-0.107116
-0.075627
-0.0486658
-0.0258285
-0.00665537
0.00929727
0.0224381
0.0331406
0.0417267
0.048433
0.0535871
0.0579638
0.0611934
-0.294424
-0.284349
-0.264616
-0.23344
-0.19472
-0.153883
-0.115109
-0.0804027
-0.0503913
-0.0249145
-0.00353436
0.0142299
0.0288317
0.0406851
0.0501661
0.0575936
0.063208
0.0673712
0.0708606
0.0731192
-0.260649
-0.251435
-0.231868
-0.200738
-0.162396
-0.122614
-0.0853065
-0.0522521
-0.0239439
-0.000145139
0.0196134
0.0358262
0.0489534
0.0594124
0.0675786
0.0737657
0.078222
0.081344
0.0838897
0.085112
-0.223738
-0.215465
-0.19628
-0.165364
-0.12782
-0.0895233
-0.0539626
-0.0228097
0.0035861
0.025529
0.0435134
0.058043
0.0695816
0.0785477
0.0853123
0.090183
0.0934241
0.0954669
0.0970148
0.0971284
-0.183877
-0.17673
-0.157999
-0.12751
-0.091364
-0.0547982
-0.0212607
0.00776276
0.0320566
0.0519824
0.0680541
0.080781
0.0906282
0.0980124
0.103296
0.106783
0.108764
0.109698
0.110161
0.109026
-0.141299
-0.13555
-0.117114
-0.0877744
-0.0532056
-0.018663
0.0125998
0.0392905
0.0613136
0.0790786
0.0931144
0.103933
0.111998
0.117722
0.121456
0.123505
0.124201
0.123983
0.123166
0.120465
-0.0963391
-0.0920988
-0.0743414
-0.046311
-0.0136078
0.0186405
0.0474067
0.0715867
0.0911917
0.106671
0.118565
0.127384
0.13359
0.137587
0.139715
0.140292
0.139694
0.138247
0.135819
0.131172
-0.0497071
-0.0466006
-0.0299135
-0.00342066
0.0271439
0.0568576
0.0829359
0.104454
0.121516
0.134606
0.144268
0.151014
0.155297
0.157512
0.157993
0.157082
0.155175
0.152378
0.14808
0.141788
-0.00151684
0.000409221
0.015843
0.0405616
0.068747
0.0957217
0.118953
0.137684
0.152105
0.162721
0.170083
0.174695
0.177007
0.1774
0.176207
0.173794
0.170529
0.166238
0.160064
0.154323
0.0478439
0.0485109
0.0625552
0.0852867
0.110888
0.134956
0.155214
0.171065
0.182767
0.190849
0.195859
0.198298
0.198605
0.197152
0.194272
0.190337
0.185642
0.17983
0.172316
0.166808
0.0979414
0.0972997
0.109831
0.130395
0.153245
0.174279
0.191472
0.204376
0.213311
0.218819
0.221447
0.221689
0.219973
0.216664
0.212095
0.206626
0.200475
0.193231
0.184662
0.178784
0.148341
0.14636
0.157271
0.175522
0.195493
0.213403
0.227474
0.237395
0.243537
0.246455
0.246692
0.244731
0.240993
0.235833
0.22958
0.222575
0.214975
0.206396
0.196883
0.190329
0.198603
0.19527
0.204472
0.2203
0.237306
0.25204
0.262966
0.269897
0.27325
0.273585
0.27144
0.26729
0.261545
0.254552
0.246633
0.238104
0.229086
0.219245
0.208806
0.201408
0.248292
0.243604
0.251036
0.264367
0.278361
0.289907
0.297698
0.301661
0.302251
0.300032
0.295536
0.289229
0.281509
0.272715
0.263159
0.253136
0.242741
0.231696
0.22034
0.212015
0.296972
0.290944
0.296565
0.307363
0.318339
0.32672
0.331419
0.332465
0.330346
0.325626
0.318829
0.310414
0.300767
0.290218
0.279068
0.267591
0.255868
0.243669
0.231408
0.222114
0.344218
0.336876
0.340676
0.348939
0.356929
0.362206
0.363887
0.362096
0.357343
0.350196
0.341171
0.330713
0.319202
0.306957
0.294269
0.28139
0.268394
0.255096
0.24195
0.231668
0.389616
0.380999
0.382993
0.388759
0.393833
0.396099
0.394868
0.390344
0.38306
0.373581
0.362416
0.35
0.336704
0.322836
0.308675
0.294458
0.280251
0.265911
0.251909
0.240639
0.43277
0.422931
0.42316
0.426498
0.428763
0.428146
0.424136
0.41701
0.407318
0.395623
0.382426
0.368153
0.353163
0.337758
0.322203
0.30672
0.291372
0.276054
0.261235
0.24899
0.473303
0.462306
0.460837
0.461852
0.461447
0.458105
0.451478
0.441904
0.42995
0.416174
0.40107
0.385055
0.368479
0.351634
0.334774
0.318107
0.301695
0.285469
0.269878
0.256687
0.51086
0.498782
0.495707
0.494535
0.491632
0.485752
0.476693
0.464849
0.450798
0.435095
0.418225
0.400597
0.382554
0.364379
0.346313
0.328553
0.311163
0.294104
0.277794
0.263697
0.545114
0.532044
0.527478
0.524283
0.519083
0.510878
0.499597
0.485681
0.469716
0.452255
0.433776
0.414681
0.395302
0.375915
0.356753
0.337999
0.319722
0.301912
0.284941
0.269992
0.575767
0.561804
0.555883
0.550858
0.543587
0.533294
0.520021
0.504249
0.486572
0.467539
0.447621
0.427212
0.40664
0.386171
0.36603
0.346389
0.327322
0.308846
0.291281
0.275548
0.602553
0.587804
0.580685
0.574045
0.564955
0.552832
0.537815
0.520421
0.501248
0.480841
0.459666
0.438111
0.416497
0.395084
0.374089
0.353674
0.333922
0.314868
0.296781
0.280343
0.625239
0.609822
0.601677
0.593658
0.58302
0.569343
0.552849
0.53408
0.51364
0.492069
0.46983
0.447305
0.424809
0.402599
0.38088
0.359811
0.339481
0.319943
0.301411
0.28436
0.643627
0.627667
0.618684
0.609541
0.597643
0.582704
0.565011
0.545128
0.52366
0.501146
0.478045
0.454734
0.431524
0.408667
0.386364
0.364766
0.343968
0.324041
0.305146
0.287587
0.65756
0.641187
0.631564
0.621565
0.60871
0.592814
0.574212
0.553484
0.531237
0.50801
0.484255
0.460349
0.436599
0.413252
0.390506
0.368507
0.347357
0.327136
0.307966
0.290014
0.666916
0.650265
0.640211
0.629635
0.616136
0.599597
0.580384
0.559089
0.536319
0.512612
0.488419
0.464113
0.44
0.416325
0.393281
0.371014
0.349628
0.32921
0.309854
0.291635
0.671614
0.654823
0.644552
0.633686
0.619863
0.603001
0.583482
0.561901
0.538869
0.514921
0.490507
0.466001
0.441706
0.417866
0.394673
0.372271
0.350766
0.33025
0.310801
0.292446
0.671614
0.654823
0.644552
0.633686
0.619863
0.603001
0.583481
0.561901
0.538869
0.514921
0.490507
0.466001
0.441706
0.417866
0.394673
0.372271
0.350766
0.33025
0.310801
0.292446
0.666915
0.650264
0.64021
0.629634
0.616135
0.599596
0.580384
0.559088
0.536319
0.512611
0.488418
0.464113
0.44
0.416325
0.393281
0.371014
0.349627
0.329209
0.309854
0.291635
0.657559
0.641186
0.631563
0.621564
0.608709
0.592813
0.574211
0.553483
0.531237
0.508009
0.484254
0.460348
0.436598
0.413252
0.390505
0.368507
0.347357
0.327135
0.307965
0.290014
0.643626
0.627665
0.618682
0.609539
0.597641
0.582703
0.56501
0.545127
0.523659
0.501145
0.478044
0.454733
0.431524
0.408666
0.386363
0.364765
0.343968
0.32404
0.305145
0.287587
0.625236
0.60982
0.601675
0.593656
0.583018
0.569341
0.552847
0.534079
0.513638
0.492068
0.469828
0.447304
0.424808
0.402598
0.380879
0.359811
0.33948
0.319942
0.30141
0.28436
0.60255
0.587801
0.580682
0.574042
0.564952
0.552829
0.537813
0.520419
0.501246
0.480839
0.459664
0.438109
0.416495
0.395083
0.374087
0.353673
0.33392
0.314867
0.29678
0.280342
0.575764
0.5618
0.55588
0.550855
0.543584
0.533292
0.520018
0.504247
0.48657
0.467537
0.447619
0.427211
0.406638
0.38617
0.366028
0.346387
0.327321
0.308845
0.29128
0.275547
0.54511
0.53204
0.527474
0.52428
0.51908
0.510875
0.499594
0.485678
0.469714
0.452253
0.433774
0.414679
0.3953
0.375913
0.356751
0.337997
0.31972
0.30191
0.284939
0.269991
0.510855
0.498778
0.495703
0.494531
0.491628
0.485749
0.47669
0.464846
0.450795
0.435092
0.418222
0.400595
0.382552
0.364377
0.346312
0.328551
0.311161
0.294103
0.277793
0.263695
0.473298
0.462301
0.460832
0.461847
0.461443
0.458101
0.451474
0.441901
0.429947
0.416171
0.401067
0.385052
0.368476
0.351631
0.334772
0.318105
0.301693
0.285467
0.269877
0.256685
0.432765
0.422926
0.423154
0.426493
0.428758
0.428142
0.424132
0.417006
0.407315
0.39562
0.382423
0.36815
0.353161
0.337755
0.322201
0.306718
0.29137
0.276052
0.261233
0.248988
0.38961
0.380994
0.382987
0.388753
0.393828
0.396095
0.394864
0.39034
0.383056
0.373578
0.362412
0.349997
0.336701
0.322833
0.308672
0.294455
0.280248
0.265908
0.251907
0.240637
0.344211
0.336869
0.34067
0.348934
0.356924
0.362201
0.363883
0.362092
0.35734
0.350193
0.341167
0.33071
0.319199
0.306955
0.294266
0.281388
0.268392
0.255093
0.241947
0.231666
0.296965
0.290937
0.296559
0.307357
0.318333
0.326715
0.331414
0.332461
0.330342
0.325622
0.318826
0.31041
0.300763
0.290215
0.279065
0.267588
0.255865
0.243667
0.231405
0.222112
0.248285
0.243597
0.251029
0.264361
0.278355
0.289901
0.297693
0.301656
0.302247
0.300028
0.295532
0.289225
0.281506
0.272712
0.263156
0.253133
0.242739
0.231693
0.220338
0.212012
0.198596
0.195262
0.204465
0.220294
0.2373
0.252035
0.262961
0.269892
0.273245
0.273581
0.271436
0.267286
0.261542
0.254549
0.24663
0.238101
0.229083
0.219242
0.208804
0.201405
0.148333
0.146352
0.157263
0.175515
0.195486
0.213397
0.227468
0.237389
0.243533
0.246451
0.246688
0.244727
0.24099
0.23583
0.229577
0.222571
0.214972
0.206393
0.196881
0.190326
0.0979333
0.0972917
0.109823
0.130388
0.153238
0.174273
0.191466
0.204371
0.213306
0.218814
0.221442
0.221685
0.219969
0.216661
0.212091
0.206623
0.200472
0.193228
0.184659
0.178781
0.0478355
0.0485026
0.0625472
0.0852792
0.110881
0.13495
0.155208
0.171059
0.182762
0.190844
0.195855
0.198294
0.198601
0.197148
0.194268
0.190333
0.185638
0.179826
0.172313
0.166805
-0.00152553
0.000400646
0.0158347
0.0405538
0.0687397
0.0957149
0.118946
0.137679
0.152099
0.162716
0.170078
0.174691
0.177003
0.177396
0.176203
0.17379
0.170525
0.166235
0.160061
0.154319
-0.049716
-0.0466095
-0.029922
-0.00342871
0.0271364
0.0568506
0.0829295
0.104448
0.121511
0.134601
0.144264
0.151009
0.155293
0.157508
0.157989
0.157078
0.155171
0.152374
0.148076
0.141784
-0.0963482
-0.0921078
-0.0743501
-0.0463193
-0.0136156
0.0186333
0.0474001
0.0715805
0.0911859
0.106666
0.11856
0.127379
0.133586
0.137582
0.13971
0.140288
0.13969
0.138244
0.135815
0.131169
-0.141308
-0.135559
-0.117123
-0.0877828
-0.0532135
-0.0186704
0.0125929
0.0392841
0.0613076
0.079073
0.0931091
0.103928
0.111994
0.117718
0.121452
0.1235
0.124197
0.123979
0.123162
0.120461
-0.183886
-0.17674
-0.158008
-0.127519
-0.091372
-0.0548057
-0.0212677
0.00775624
0.0320505
0.0519767
0.0680487
0.0807759
0.0906233
0.0980078
0.103292
0.106778
0.10876
0.109694
0.110157
0.109022
-0.223747
-0.215475
-0.196289
-0.165373
-0.127828
-0.089531
-0.0539698
-0.0228163
0.00357985
0.0255231
0.0435079
0.0580377
0.0695765
0.0785429
0.0853077
0.0901786
0.0934197
0.0954627
0.0970108
0.0971244
-0.260658
-0.251444
-0.231877
-0.200747
-0.162405
-0.122622
-0.0853137
-0.0522589
-0.0239502
-0.000151142
0.0196077
0.0358208
0.0489482
0.0594075
0.0675738
0.0737611
0.0782176
0.0813397
0.0838855
0.0851078
-0.294433
-0.284359
-0.264625
-0.233449
-0.194729
-0.15389
-0.115116
-0.0804096
-0.0503978
-0.0249206
-0.00354016
0.0142243
0.0288264
0.04068
0.0501612
0.0575888
0.0632033
0.0673667
0.0708562
0.0731149
-0.324885
-0.314009
-0.294318
-0.263393
-0.224565
-0.183118
-0.14321
-0.107122
-0.0756336
-0.048672
-0.0258344
-0.00666101
0.00929185
0.0224329
0.0331356
0.0417218
0.0484282
0.0535824
0.0579593
0.0611889
-0.351858
-0.340244
-0.320776
-0.290404
-0.251823
-0.210112
-0.169448
-0.13227
-0.0995428
-0.0713049
-0.0471845
-0.0267538
-0.00958283
0.00473146
0.0165564
0.0262143
0.0339403
0.0400259
0.0452282
0.0493643
-0.37525
-0.362968
-0.343878
-0.314329
-0.276369
-0.234768
-0.193702
-0.155756
-0.122022
-0.092732
-0.0675112
-0.0459815
-0.0277343
-0.012366
0.000476396
0.0111147
0.0197834
0.0267365
0.0327008
0.0376826
-0.395012
-0.382141
-0.363556
-0.335067
-0.298084
-0.256983
-0.215877
-0.177481
-0.143043
-0.112857
-0.0867481
-0.0642814
-0.0451084
-0.0288076
-0.0150585
-0.00353435
0.00599675
0.0137514
0.0204131
0.0261841
-0.411152
-0.397775
-0.379799
-0.352573
-0.316893
-0.276676
-0.235897
-0.197365
-0.162495
-0.131691
-0.104841
-0.081601
-0.06166
-0.0445481
-0.0300094
-0.0176949
-0.00738581
0.00110445
0.00839421
0.0149021
-0.423733
-0.409939
-0.39265
-0.366853
-0.332765
-0.293796
-0.253708
-0.215362
-0.180327
-0.149144
-0.121779
-0.0979526
-0.0773295
-0.0595522
-0.044344
-0.0313341
-0.0203373
-0.0111722
-0.00333463
0.00386143
-0.432871
-0.418754
-0.402205
-0.37796
-0.345711
-0.308323
-0.269283
-0.231446
-0.196518
-0.165184
-0.137506
-0.113263
-0.0921391
-0.073825
-0.0580246
-0.0444272
-0.0328374
-0.0230498
-0.0147487
-0.00693005
-0.438734
-0.424392
-0.408614
-0.385998
-0.355782
-0.320274
-0.282618
-0.24561
-0.211063
-0.179805
-0.152006
-0.127512
-0.106048
-0.0873257
-0.0710632
-0.0569876
-0.0448571
-0.0345154
-0.0257994
-0.0174961
-0.441535
-0.427071
-0.412072
-0.391117
-0.363073
-0.329696
-0.293734
-0.257862
-0.223968
-0.193012
-0.165283
-0.140701
-0.119041
-0.100037
-0.0834308
-0.0689693
-0.0564094
-0.045603
-0.036394
-0.0278972
-0.441526
-0.427047
-0.41282
-0.393514
-0.36772
-0.336671
-0.302678
-0.268231
-0.235252
-0.204824
-0.177352
-0.152843
-0.131123
-0.11196
-0.0951174
-0.0803625
-0.067468
-0.0562754
-0.0466498
-0.0379692
-0.438992
-0.424609
-0.411133
-0.393427
-0.369901
-0.341316
-0.30952
-0.276763
-0.244949
-0.215265
-0.188235
-0.163954
-0.142309
-0.123105
-0.106129
-0.0911714
-0.0780233
-0.0665235
-0.0565619
-0.0475972
-0.434243
-0.420069
-0.407316
-0.391128
-0.369829
-0.343777
-0.314357
-0.283522
-0.253108
-0.224376
-0.197962
-0.174059
-0.152618
-0.133486
-0.116477
-0.101405
-0.0880791
-0.0763424
-0.0661023
-0.0568371
-0.427605
-0.413751
-0.401692
-0.386914
-0.367749
-0.344235
-0.317309
-0.288589
-0.259789
-0.232204
-0.206575
-0.183191
-0.162076
-0.143123
-0.126178
-0.111075
-0.0976449
-0.0857353
-0.0752732
-0.0657643
-0.419408
-0.405985
-0.394589
-0.3811
-0.363935
-0.342895
-0.318519
-0.292063
-0.265061
-0.238806
-0.21412
-0.191391
-0.170717
-0.152044
-0.135251
-0.120198
-0.106734
-0.0947143
-0.08409
-0.074413
-0.409982
-0.397092
-0.386336
-0.37401
-0.358676
-0.339991
-0.318152
-0.294055
-0.269007
-0.244246
-0.220652
-0.198703
-0.178578
-0.160279
-0.143722
-0.128793
-0.115363
-0.103295
-0.0925637
-0.0827887
-0.399644
-0.387381
-0.377246
-0.365959
-0.352271
-0.335771
-0.316395
-0.294694
-0.271715
-0.248592
-0.226228
-0.205179
-0.185703
-0.167864
-0.15162
-0.136884
-0.123552
-0.111494
-0.100703
-0.0908862
-0.388692
-0.37714
-0.367615
-0.357253
-0.345017
-0.330498
-0.31345
-0.294124
-0.273285
-0.251917
-0.230908
-0.21087
-0.192138
-0.17484
-0.158979
-0.1445
-0.131322
-0.119329
-0.108518
-0.0987057
-0.377399
-0.366625
-0.357705
-0.34817
-0.337199
-0.324437
-0.309534
-0.2925
-0.273823
-0.254299
-0.234753
-0.21583
-0.197931
-0.181247
-0.165834
-0.151669
-0.138698
-0.12682
-0.116026
-0.106256
-0.366007
-0.356064
-0.347748
-0.338959
-0.329082
-0.317846
-0.304871
-0.289992
-0.273447
-0.255818
-0.237825
-0.220111
-0.203128
-0.18713
-0.172224
-0.158424
-0.145706
-0.133989
-0.123247
-0.113553
-0.354724
-0.345647
-0.337939
-0.329832
-0.320897
-0.310967
-0.299683
-0.286777
-0.272281
-0.256557
-0.240184
-0.223763
-0.207775
-0.19253
-0.178186
-0.1648
-0.152376
-0.14086
-0.130203
-0.120613
-0.343724
-0.33553
-0.328432
-0.32096
-0.312843
-0.304018
-0.294186
-0.28304
-0.27046
-0.256607
-0.241892
-0.226835
-0.211917
-0.197488
-0.18376
-0.170831
-0.158737
-0.14746
-0.136917
-0.127454
-0.333146
-0.325835
-0.319347
-0.312475
-0.305078
-0.297183
-0.288576
-0.278961
-0.268126
-0.256064
-0.24301
-0.22937
-0.21559
-0.202042
-0.188981
-0.176551
-0.164819
-0.153814
-0.143412
-0.134095
-0.323097
-0.316651
-0.310769
-0.304471
-0.297717
-0.290612
-0.283026
-0.274712
-0.265423
-0.255029
-0.243602
-0.23141
-0.218828
-0.206222
-0.193882
-0.181994
-0.170655
-0.159949
-0.149713
-0.140557
-0.31365
-0.308038
-0.302752
-0.297009
-0.290842
-0.284413
-0.277676
-0.27045
-0.262495
-0.253611
-0.243737
-0.232994
-0.221657
-0.210056
-0.198491
-0.187188
-0.176274
-0.165893
-0.155843
-0.14686
-0.304856
-0.300032
-0.295325
-0.290119
-0.284498
-0.27866
-0.272633
-0.266305
-0.259478
-0.251925
-0.24349
-0.234164
-0.224099
-0.213558
-0.202827
-0.192159
-0.181702
-0.171672
-0.161829
-0.153027
-0.29674
-0.29265
-0.288497
-0.283809
-0.278701
-0.273394
-0.267968
-0.262382
-0.256491
-0.25008
-0.242943
-0.234965
-0.226174
-0.216739
-0.206901
-0.196922
-0.186961
-0.177309
-0.167694
-0.159078
-0.289307
-0.285889
-0.282261
-0.278069
-0.273449
-0.268627
-0.263724
-0.258755
-0.253634
-0.248183
-0.242183
-0.23545
-0.227902
-0.219601
-0.210712
-0.201484
-0.192067
-0.182825
-0.173459
-0.165034
-0.28255
-0.279736
-0.276595
-0.272876
-0.26872
-0.264352
-0.259914
-0.255468
-0.250981
-0.246325
-0.241296
-0.235679
-0.229309
-0.222143
-0.214249
-0.205837
-0.197022
-0.188233
-0.179142
-0.170921
-0.276446
-0.274165
-0.271473
-0.268198
-0.264484
-0.260544
-0.256533
-0.252542
-0.248584
-0.24458
-0.240363
-0.235716
-0.230428
-0.224367
-0.217496
-0.209961
-0.201815
-0.193534
-0.184758
-0.176753
-0.270963
-0.269145
-0.26686
-0.263999
-0.260704
-0.257172
-0.253559
-0.249976
-0.24647
-0.243004
-0.239455
-0.235629
-0.231301
-0.226279
-0.22043
-0.213822
-0.206417
-0.198716
-0.190291
-0.182584
-0.26606
-0.264636
-0.262715
-0.260238
-0.257338
-0.254195
-0.250961
-0.247754
-0.244644
-0.241628
-0.238626
-0.235481
-0.231977
-0.227897
-0.223034
-0.217378
-0.210777
-0.203747
-0.19573
-0.188385
-0.261689
-0.260594
-0.258997
-0.256871
-0.254343
-0.251571
-0.2487
-0.245849
-0.243097
-0.240468
-0.237916
-0.235325
-0.232507
-0.229249
-0.225303
-0.220582
-0.214849
-0.208541
-0.201036
-0.194274
-0.257795
-0.256973
-0.255659
-0.253855
-0.251674
-0.249256
-0.246733
-0.244222
-0.241804
-0.239518
-0.237344
-0.235203
-0.232944
-0.230373
-0.227242
-0.223404
-0.218551
-0.213068
-0.206045
-0.200006
-0.254321
-0.25372
-0.252655
-0.251144
-0.249286
-0.247203
-0.245016
-0.242832
-0.240732
-0.238758
-0.236912
-0.235139
-0.233328
-0.231316
-0.228877
-0.225821
-0.221879
-0.217026
-0.211441
-0.204351
-0.251205
-0.250787
-0.249939
-0.248694
-0.247135
-0.245369
-0.243503
-0.241635
-0.239837
-0.238157
-0.236603
-0.23514
-0.233689
-0.232119
-0.230249
-0.227828
-0.224851
-0.220283
-0.216807
-0.208088
-0.248388
-0.248121
-0.247464
-0.24646
-0.245178
-0.24371
-0.242149
-0.240582
-0.239076
-0.237674
-0.236387
-0.235195
-0.234039
-0.232815
-0.231403
-0.229451
-0.227462
-0.222773
-0.221672
-0.211324
-0.245813
-0.245677
-0.245188
-0.244403
-0.243376
-0.242184
-0.24091
-0.23963
-0.238402
-0.237264
-0.236227
-0.235278
-0.234371
-0.233423
-0.232375
-0.230749
-0.229693
-0.224573
-0.226054
-0.213772
-0.243428
-0.243408
-0.243075
-0.242486
-0.241692
-0.240756
-0.23975
-0.238739
-0.237773
-0.236884
-0.236082
-0.235353
-0.234664
-0.233945
-0.23318
-0.231793
-0.231514
-0.225903
-0.229904
-0.215361
-0.241187
-0.24128
-0.241091
-0.240682
-0.240099
-0.239397
-0.238637
-0.237874
-0.237152
-0.236496
-0.235911
-0.235386
-0.23489
-0.23437
-0.23382
-0.232647
-0.232888
-0.227043
-0.232943
-0.216366
-0.239055
-0.239264
-0.239208
-0.238963
-0.238573
-0.238082
-0.237545
-0.23701
-0.23651
-0.236067
-0.235682
-0.235343
-0.235021
-0.234675
-0.234289
-0.233338
-0.233809
-0.228177
-0.23491
-0.217274
-0.237006
-0.237339
-0.237409
-0.237314
-0.237097
-0.236797
-0.23646
-0.236127
-0.235828
-0.235575
-0.23537
-0.235198
-0.235032
-0.234838
-0.23458
-0.233856
-0.234327
-0.229316
-0.235803
-0.218461
-0.235024
-0.235489
-0.235682
-0.235725
-0.235664
-0.235533
-0.235372
-0.235218
-0.235094
-0.23501
-0.234963
-0.234938
-0.234908
-0.234843
-0.234692
-0.234175
-0.234525
-0.230339
-0.235874
-0.219974
-0.233105
-0.233712
-0.234023
-0.234193
-0.234272
-0.234289
-0.234282
-0.234282
-0.23431
-0.23437
-0.234459
-0.23456
-0.234646
-0.234688
-0.234629
-0.234274
-0.234485
-0.231107
-0.235446
-0.221602
-0.231252
-0.232009
-0.232435
-0.232721
-0.232924
-0.233071
-0.233195
-0.233328
-0.233483
-0.233665
-0.233868
-0.234072
-0.234254
-0.234382
-0.234399
-0.234147
-0.234287
-0.231532
-0.234786
-0.223093
-0.229479
-0.23039
-0.230928