/*--------------------------------*- C++ -*----------------------------------*\
  =========                 |
  \\      /  F ield         | OpenFOAM: The Open Source CFD Toolbox
   \\    /   O peration     | Website:  https://openfoam.org
    \\  /    A nd           | Version:  7
     \\/     M anipulation  |
\*---------------------------------------------------------------------------*/
FoamFile
{
    version     2.0;
    format      ascii;
    class       volVectorField;
    location    "1";
    object      U;
}
// * * * * * * * * * * * * * * * * * * * * * * * * * * * * * * * * * * * * * //

dimensions      [0 1 -1 0 0 0 0];

internalField   nonuniform List<vector> 
344
(
(1.04385 -4.79908e-05 -4.055e-14)
(1.04399 -4.16015e-05 -5.07958e-14)
(1.0441 -3.59921e-05 -5.1651e-14)
(1.0442 -3.10839e-05 -6.35903e-14)
(1.04428 -2.68017e-05 -6.1403e-14)
(1.04436 -2.30759e-05 -5.54886e-14)
(1.04442 -1.9842e-05 -5.50902e-14)
(1.04447 -1.70411e-05 -5.68395e-14)
(1.04452 -1.46199e-05 -6.0339e-14)
(1.04456 -1.25306e-05 -6.89277e-14)
(1.04459 -1.07303e-05 -6.64048e-14)
(1.04462 -9.18131e-06 -6.80113e-14)
(1.04465 -7.85003e-06 -3.78268e-14)
(1.04467 -6.70705e-06 -4.81814e-14)
(1.04469 -5.7266e-06 -4.05048e-14)
(1.0447 -4.88614e-06 -4.67468e-14)
(1.04472 -4.16606e-06 -3.35186e-14)
(1.04473 -3.54936e-06 -5.46769e-14)
(1.04474 -3.0213e-06 -4.2385e-14)
(1.04474 -2.56914e-06 -4.42383e-14)
(1.04475 -2.18185e-06 -4.6623e-14)
(1.04476 -1.84988e-06 -4.6851e-14)
(1.04476 -1.56498e-06 -5.59821e-14)
(1.04477 -1.32011e-06 -5.06576e-14)
(1.04477 -1.10919e-06 -6.17387e-14)
(1.04477 -9.26912e-07 -4.24528e-14)
(1.04478 -7.68641e-07 -4.20894e-14)
(1.04478 -6.30348e-07 -5.00639e-14)
(1.04478 -5.0855e-07 -4.34373e-14)
(1.04478 -4.00197e-07 -5.25698e-14)
(1.04478 -3.02508e-07 -3.36665e-14)
(1.04478 -2.13081e-07 -4.58024e-14)
(1.04478 -1.29629e-07 -3.75681e-14)
(1.04478 -5.00408e-08 -4.6313e-14)
(1.04478 2.76537e-08 -4.45973e-14)
(1.04478 1.0555e-07 -4.78047e-14)
(1.04478 1.85595e-07 -4.6426e-14)
(1.04478 2.69833e-07 -5.29956e-14)
(1.04478 3.60397e-07 -2.91996e-14)
(1.04478 4.59609e-07 -3.02536e-14)
(1.04478 5.69966e-07 -4.10017e-14)
(1.04478 6.94508e-07 -3.82637e-14)
(1.04477 8.36574e-07 -4.46746e-14)
(1.04477 1.00005e-06 -4.37031e-14)
(1.04477 1.18968e-06 -4.98292e-14)
(1.04476 1.41068e-06 -4.57979e-14)
(1.04476 1.66976e-06 -3.12147e-14)
(1.04475 1.97441e-06 -4.24555e-14)
(1.04475 2.33454e-06 -3.45471e-14)
(1.04474 2.76068e-06 -4.29571e-14)
(1.04473 3.26808e-06 -4.29519e-14)
(1.04472 3.87171e-06 -4.18566e-14)
(1.04471 4.59397e-06 -3.88767e-14)
(1.04469 5.46115e-06 -2.85592e-14)
(1.04468 6.49443e-06 -2.99136e-14)
(1.04465 7.7673e-06 -3.26717e-14)
(1.04463 9.22965e-06 -3.90009e-14)
(1.0446 1.11809e-05 -2.94035e-14)
(1.04457 1.3134e-05 -3.81018e-14)
(1.04451 1.64092e-05 -3.07592e-14)
(1.04449 1.84983e-05 -2.91002e-14)
(1.04437 2.49141e-05 -2.99652e-14)
(1.04439 2.50639e-05 -3.68038e-14)
(1.04413 4.00927e-05 -2.08223e-14)
(1.04429 3.04223e-05 -2.86854e-14)
(1.04371 7.0292e-05 -3.51349e-14)
(1.04425 2.58529e-05 -3.90912e-14)
(1.04386 -0.000111645 -2.24741e-13)
(1.04399 -9.67694e-05 -2.07843e-13)
(1.04411 -8.37119e-05 -2.06178e-13)
(1.0442 -7.22884e-05 -2.04134e-13)
(1.04429 -6.23241e-05 -2.14113e-13)
(1.04436 -5.36556e-05 -1.99475e-13)
(1.04442 -4.61327e-05 -2.03911e-13)
(1.04448 -3.96178e-05 -2.14322e-13)
(1.04452 -3.39869e-05 -2.08726e-13)
(1.04456 -2.91282e-05 -2.10009e-13)
(1.0446 -2.49421e-05 -2.00228e-13)
(1.04462 -2.13405e-05 -2.22361e-13)
(1.04465 -1.82455e-05 -1.96575e-13)
(1.04467 -1.55885e-05 -2.15488e-13)
(1.04469 -1.33093e-05 -1.88891e-13)
(1.0447 -1.13556e-05 -2.05178e-13)
(1.04472 -9.68194e-06 -1.90489e-13)
(1.04473 -8.24867e-06 -2.13734e-13)
(1.04474 -7.02141e-06 -1.86657e-13)
(1.04475 -5.9705e-06 -2.00132e-13)
(1.04475 -5.07038e-06 -1.97237e-13)
(1.04476 -4.29892e-06 -2.11041e-13)
(1.04476 -3.63697e-06 -1.96501e-13)
(1.04477 -3.06807e-06 -2.14685e-13)
(1.04477 -2.57797e-06 -2.02539e-13)
(1.04477 -2.15432e-06 -2.14873e-13)
(1.04478 -1.78649e-06 -1.87778e-13)
(1.04478 -1.46519e-06 -1.96359e-13)
(1.04478 -1.18224e-06 -1.99266e-13)
(1.04478 -9.305e-07 -2.06303e-13)
(1.04478 -7.03621e-07 -1.84652e-13)
(1.04478 -4.95903e-07 -1.93737e-13)
(1.04478 -3.02039e-07 -1.85728e-13)
(1.04478 -1.17091e-07 -1.96422e-13)
(1.04478 6.35363e-08 -1.85398e-13)
(1.04478 2.4444e-07 -1.91165e-13)
(1.04478 4.30204e-07 -1.75858e-13)
(1.04478 6.25615e-07 -1.90611e-13)
(1.04478 8.35652e-07 -1.59052e-13)
(1.04478 1.06565e-06 -1.89786e-13)
(1.04478 1.32154e-06 -1.60341e-13)
(1.04478 1.61021e-06 -2.00374e-13)
(1.04477 1.93955e-06 -1.59381e-13)
(1.04477 2.31844e-06 -2.02699e-13)
(1.04477 2.75785e-06 -1.56548e-13)
(1.04476 3.2698e-06 -2.08308e-13)
(1.04476 3.86991e-06 -1.47358e-13)
(1.04475 4.57525e-06 -1.98439e-13)
(1.04475 5.40912e-06 -1.3596e-13)
(1.04474 6.3953e-06 -1.83902e-13)
(1.04473 7.56968e-06 -1.27922e-13)
(1.04472 8.96587e-06 -1.76346e-13)
(1.04471 1.06375e-05 -1.31449e-13)
(1.04469 1.2641e-05 -1.72648e-13)
(1.04468 1.50337e-05 -1.32299e-13)
(1.04466 1.79694e-05 -1.57667e-13)
(1.04463 2.13611e-05 -1.45548e-13)
(1.0446 2.5849e-05 -1.48891e-13)
(1.04457 3.03971e-05 -1.41688e-13)
(1.04451 3.79043e-05 -1.41689e-13)
(1.04449 4.28267e-05 -1.3588e-13)
(1.04437 5.74961e-05 -1.3661e-13)
(1.0444 5.80651e-05 -1.341e-13)
(1.04414 9.24774e-05 -1.33046e-13)
(1.04431 7.04993e-05 -1.40597e-13)
(1.04371 0.000162278 -1.35725e-13)
(1.0443 5.9603e-05 -1.52902e-13)
(1.04388 -0.000180254 -3.45754e-14)
(1.04401 -0.000156176 -4.34602e-14)
(1.04412 -0.000135054 -3.11554e-14)
(1.04422 -0.000116586 -3.3689e-14)
(1.0443 -0.000100485 -2.90734e-14)
(1.04437 -8.64846e-05 -3.52978e-14)
(1.04443 -7.43399e-05 -2.71529e-14)
(1.04448 -6.38269e-05 -3.11363e-14)
(1.04453 -5.47437e-05 -2.48086e-14)
(1.04457 -4.69088e-05 -2.80486e-14)
(1.0446 -4.01607e-05 -2.49721e-14)
(1.04463 -3.43564e-05 -3.43046e-14)
(1.04465 -2.93697e-05 -2.57648e-14)
(1.04467 -2.50895e-05 -3.59494e-14)
(1.04469 -2.14188e-05 -2.92915e-14)
(1.04471 -1.8273e-05 -3.39026e-14)
(1.04472 -1.55784e-05 -2.80143e-14)
(1.04473 -1.32712e-05 -3.28627e-14)
(1.04474 -1.12958e-05 -2.3926e-14)
(1.04475 -9.60454e-06 -2.59829e-14)
(1.04475 -8.15606e-06 -2.9797e-14)
(1.04476 -6.91475e-06 -2.73325e-14)
(1.04476 -5.84976e-06 -2.7756e-14)
(1.04477 -4.93453e-06 -2.81265e-14)
(1.04477 -4.14606e-06 -3.05289e-14)
(1.04477 -3.46452e-06 -2.77862e-14)
(1.04478 -2.87279e-06 -2.53964e-14)
(1.04478 -2.35594e-06 -2.60592e-14)
(1.04478 -1.90084e-06 -2.74806e-14)
(1.04478 -1.49591e-06 -3.00169e-14)
(1.04478 -1.13094e-06 -2.58804e-14)
(1.04478 -7.96768e-07 -2.7017e-14)
(1.04478 -4.84818e-07 -2.58266e-14)
(1.04478 -1.87277e-07 -2.69514e-14)
(1.04478 1.03397e-07 -2.29877e-14)
(1.04478 3.94397e-07 -2.60489e-14)
(1.04478 6.93144e-07 -2.255e-14)
(1.04478 1.00741e-06 -2.43561e-14)
(1.04478 1.34505e-06 -2.06592e-14)
(1.04478 1.71477e-06 -2.16163e-14)
(1.04478 2.12612e-06 -2.42841e-14)
(1.04478 2.59009e-06 -2.24761e-14)
(1.04477 3.11923e-06 -2.50509e-14)
(1.04477 3.72786e-06 -2.3267e-14)
(1.04477 4.43341e-06 -2.67104e-14)
(1.04477 5.2552e-06 -2.93109e-14)
(1.04476 6.21832e-06 -3.16456e-14)
(1.04476 7.34959e-06 -2.6216e-14)
(1.04475 8.68717e-06 -2.51552e-14)
(1.04474 1.02668e-05 -1.95202e-14)
(1.04473 1.21504e-05 -1.97631e-14)
(1.04472 1.43817e-05 -1.64532e-14)
(1.04471 1.70663e-05 -1.29412e-14)
(1.0447 2.0255e-05 -1.53181e-14)
(1.04468 2.4114e-05 -9.10927e-15)
(1.04466 2.87463e-05 -7.94391e-15)
(1.04464 3.42787e-05 -1.55384e-14)
(1.0446 4.12425e-05 -1.28896e-14)
(1.04458 4.88755e-05 -1.50665e-14)
(1.04452 6.02078e-05 -1.26529e-14)
(1.0445 6.92001e-05 -1.21911e-14)
(1.04438 9.06883e-05 -1.25833e-14)
(1.04442 9.48057e-05 -1.05783e-14)
(1.04415 0.000144523 -9.68924e-15)
(1.04435 0.000117702 -1.13746e-14)
(1.0437 0.000251507 -1.24063e-14)
(1.0444 0.000106488 -1.52693e-14)
(1.04391 -0.000247273 -8.57389e-14)
(1.04404 -0.000214111 -1.15652e-13)
(1.04415 -0.000185049 -8.04632e-14)
(1.04424 -0.000159661 -1.01481e-13)
(1.04432 -0.000137545 -8.12163e-14)
(1.04439 -0.00011833 -9.89939e-14)
(1.04445 -0.000101673 -8.18306e-14)
(1.0445 -8.72627e-05 -9.32023e-14)
(1.04454 -7.48197e-05 -8.38073e-14)
(1.04458 -6.40926e-05 -8.26968e-14)
(1.04461 -5.48581e-05 -8.53621e-14)
(1.04463 -4.69184e-05 -7.81458e-14)
(1.04466 -4.00997e-05 -8.44778e-14)
(1.04468 -3.42492e-05 -7.23955e-14)
(1.04469 -2.92334e-05 -8.42431e-14)
(1.04471 -2.4936e-05 -6.99154e-14)
(1.04472 -2.12559e-05 -8.79741e-14)
(1.04473 -1.81054e-05 -7.28173e-14)
(1.04474 -1.54088e-05 -8.72015e-14)
(1.04475 -1.31004e-05 -6.67871e-14)
(1.04475 -1.11238e-05 -8.35654e-14)
(1.04476 -9.42999e-06 -6.53492e-14)
(1.04476 -7.97688e-06 -8.39848e-14)
(1.04477 -6.7282e-06 -6.27935e-14)
(1.04477 -5.65258e-06 -8.43861e-14)
(1.04477 -4.7229e-06 -6.44136e-14)
(1.04478 -3.91575e-06 -8.38042e-14)
(1.04478 -3.2108e-06 -5.92828e-14)
(1.04478 -2.59014e-06 -7.75405e-14)
(1.04478 -2.03789e-06 -6.37077e-14)
(1.04478 -1.54016e-06 -7.16849e-14)
(1.04478 -1.0843e-06 -5.91061e-14)
(1.04478 -6.58732e-07 -6.3917e-14)
(1.04478 -2.52757e-07 -6.0497e-14)
(1.04478 1.43752e-07 -5.89759e-14)
(1.04478 5.40781e-07 -5.45169e-14)
(1.04478 9.48327e-07 -4.99968e-14)
(1.04478 1.37693e-06 -4.64169e-14)
(1.04478 1.83733e-06 -4.26082e-14)
(1.04478 2.34135e-06 -3.66144e-14)
(1.04478 2.90214e-06 -3.34789e-14)
(1.04478 3.53432e-06 -3.38064e-14)
(1.04478 4.25512e-06 -3.4891e-14)
(1.04477 5.08393e-06 -3.37018e-14)
(1.04477 6.04419e-06 -2.68339e-14)
(1.04477 7.16202e-06 -3.06432e-14)
(1.04476 8.47168e-06 -2.64027e-14)
(1.04476 1.00081e-05 -1.42972e-14)
(1.04475 1.18259e-05 -1.15535e-14)
(1.04474 1.39667e-05 -4.01086e-15)
(1.04474 1.65268e-05 1.33482e-15)
(1.04473 1.95402e-05 1.04541e-14)
(1.04472 2.31971e-05 1.38464e-14)
(1.0447 2.74717e-05 1.7579e-14)
(1.04469 3.27695e-05 1.91012e-14)
(1.04467 3.88805e-05 2.49298e-14)
(1.04465 4.66341e-05 2.55195e-14)
(1.04461 5.55164e-05 3.09902e-14)
(1.04459 6.67589e-05 3.14682e-14)
(1.04453 8.03582e-05 3.67942e-14)
(1.04452 9.54481e-05 3.85558e-14)
(1.0444 0.000119304 4.22346e-14)
(1.04445 0.000133521 3.97645e-14)
(1.04416 0.000186193 4.45681e-14)
(1.04441 0.000173319 4.51071e-14)
(1.0437 0.000316974 4.82881e-14)
(1.04453 0.000177969 5.01515e-14)
(1.04395 -0.000311123 -1.20135e-14)
(1.04407 -0.000269176 -1.36868e-14)
(1.04418 -0.000232463 -1.10084e-14)
(1.04427 -0.000200429 -1.18814e-14)
(1.04434 -0.000172556 -1.01736e-14)
(1.04441 -0.000148362 -1.17101e-14)
(1.04446 -0.00012741 -7.51124e-15)
(1.04451 -0.000109299 -1.07897e-14)
(1.04455 -9.36732e-05 -7.25234e-15)
(1.04459 -8.02115e-05 -1.06504e-14)
(1.04462 -6.86302e-05 -8.64725e-15)
(1.04464 -5.86787e-05 -1.11249e-14)
(1.04467 -5.01366e-05 -7.17589e-15)
(1.04468 -4.28108e-05 -1.10026e-14)
(1.0447 -3.65328e-05 -6.26471e-15)
(1.04471 -3.11559e-05 -6.78782e-15)
(1.04473 -2.6553e-05 -7.05962e-15)
(1.04474 -2.26138e-05 -6.8042e-15)
(1.04474 -1.92428e-05 -6.39927e-15)
(1.04475 -1.63578e-05 -6.21871e-15)
(1.04476 -1.38879e-05 -7.07129e-15)
(1.04476 -1.17718e-05 -7.35147e-15)
(1.04477 -9.95673e-06 -3.83022e-15)
(1.04477 -8.39722e-06 -2.90129e-15)
(1.04477 -7.05396e-06 -3.61834e-15)
(1.04478 -5.89309e-06 -3.12704e-15)
(1.04478 -4.88532e-06 -5.84526e-15)
(1.04478 -4.0051e-06 -4.0531e-15)
(1.04478 -3.23003e-06 -6.7429e-15)
(1.04478 -2.54038e-06 -6.88149e-15)
(1.04478 -1.91875e-06 -7.74663e-15)
(1.04478 -1.34944e-06 -5.13177e-15)
(1.04478 -8.17972e-07 -3.12685e-15)
(1.04478 -3.11022e-07 -2.81774e-15)
(1.04478 1.84178e-07 -2.50816e-15)
(1.04478 6.80022e-07 -2.04104e-15)
(1.04478 1.18906e-06 -7.53651e-16)
(1.04478 1.72416e-06 3.70868e-16)
(1.04478 2.29889e-06 -2.63993e-16)
(1.04478 2.9279e-06 -1.06057e-15)
(1.04478 3.62761e-06 -1.92109e-15)
(1.04478 4.41611e-06 -1.28566e-15)
(1.04478 5.31469e-06 -3.33441e-15)
(1.04477 6.34716e-06 -3.48552e-15)
(1.04477 7.54289e-06 -2.27731e-15)
(1.04477 8.93344e-06 -4.86608e-15)
(1.04476 1.05625e-05 -5.45065e-15)
(1.04476 1.24703e-05 -3.2185e-15)
(1.04475 1.4729e-05 -2.69224e-15)
(1.04475 1.738e-05 -2.3243e-15)
(1.04474 2.05613e-05 1.8618e-15)
(1.04473 2.4274e-05 1.77277e-15)
(1.04472 2.88324e-05 3.73027e-15)
(1.04471 3.40442e-05 1.27932e-15)
(1.04469 4.07201e-05 1.90676e-16)
(1.04467 4.79967e-05 8.82358e-16)
(1.04466 5.80425e-05 1.4573e-15)
(1.04462 6.80639e-05 -3.95909e-16)
(1.0446 8.35757e-05 2.42162e-15)
(1.04455 9.72649e-05 4.66292e-15)
(1.04454 0.000121206 5.77543e-15)
(1.04442 0.000141106 4.84695e-15)
(1.04448 0.000174713 4.44164e-15)
(1.04419 0.000212366 3.35534e-15)
(1.04448 0.000241033 4.39566e-15)
(1.04371 0.000346397 5.82247e-15)
(1.04467 0.00028675 8.09162e-15)
(1.044 -0.000370633 -9.31273e-15)
(1.04412 -0.000320331 -1.90125e-15)
(1.04421 -0.000276376 -4.54393e-15)
(1.0443 -0.000238081 6.38449e-17)
(1.04437 -0.000204807 -5.9727e-15)
(1.04443 -0.000175963 8.18298e-16)
(1.04448 -0.000151012 -6.6713e-16)
(1.04453 -0.000129469 6.82531e-16)
(1.04457 -0.000110899 1.06117e-15)
)
;

boundaryField
{
    inlet
    {
        type            uniformFixedValue;
        uniformValue    constant (1 0 0);
        value           nonuniform 0();
    }
    outlet
    {
        type            pressureInletOutletVelocity;
        value           nonuniform 0();
    }
    wall
    {
        type            fixedValue;
        value           nonuniform 0();
    }
    wedge1
    {
        type            wedge;
    }
    wedge2
    {
        type            wedge;
    }
    axis
    {
        type            empty;
    }
    procBoundary1to0
    {
        type            processor;
        value           nonuniform List<vector> 5((1.0437 -5.52418e-05 -3.80404e-14) (1.04371 -0.000128531 -1.93428e-13) (1.04374 -0.000207602 -3.57205e-14) (1.04377 -0.000284977 -1.09548e-13) (1.04382 -0.000358881 -1.24475e-14));
    }
    procBoundary1to2
    {
        type            processor;
        value           nonuniform List<vector> 5((1.04292 0.000135708 -4.15198e-14) (1.0429 0.000314228 -1.40675e-13) (1.04284 0.000485836 -2.12435e-14) (1.04277 0.000605203 4.8798e-14) (1.04271 0.000643739 6.74073e-15));
    }
    procBoundary1to6
    {
        type            processor;
        value           uniform (1.04387 -0.000428006 -6.60739e-15);
    }
    procBoundary1to7
    {
        type            processor;
        value           nonuniform List<vector> 
68
(
(1.0446 -9.49151e-05 1.74211e-15)
(1.04463 -8.11751e-05 2.02527e-15)
(1.04465 -6.93773e-05 4.57638e-16)
(1.04467 -5.92568e-05 2.87987e-15)
(1.04469 -5.05824e-05 2.0687e-15)
(1.04471 -4.31524e-05 4.48925e-15)
(1.04472 -3.6792e-05 1.32315e-15)
(1.04473 -3.13493e-05 5.13057e-15)
(1.04474 -2.66931e-05 3.6987e-15)
(1.04475 -2.27099e-05 6.02666e-15)
(1.04475 -1.93019e-05 3.21755e-15)
(1.04476 -1.63849e-05 8.67576e-16)
(1.04476 -1.38862e-05 1.04714e-15)
(1.04477 -1.17434e-05 6.44026e-15)
(1.04477 -9.90261e-06 3.9987e-15)
(1.04477 -8.31739e-06 4.99653e-15)
(1.04478 -6.94758e-06 4.92355e-15)
(1.04478 -5.75848e-06 6.45061e-15)
(1.04478 -4.71978e-06 2.72905e-15)
(1.04478 -3.80508e-06 5.21647e-15)
(1.04478 -2.99121e-06 8.24518e-16)
(1.04478 -2.25753e-06 4.5353e-15)
(1.04478 -1.58552e-06 2.69062e-15)
(1.04478 -9.58218e-07 8.82358e-15)
(1.04479 -3.59875e-07 4.36517e-15)
(1.04479 2.2467e-07 1.02595e-14)
(1.04478 8.1e-07 4.32697e-15)
(1.04478 1.41086e-06 1.0449e-14)
(1.04478 2.04237e-06 3.93709e-15)
(1.04478 2.72049e-06 1.44487e-14)
(1.04478 3.46245e-06 5.34026e-15)
(1.04478 4.28738e-06 1.48135e-14)
(1.04478 5.21682e-06 3.80359e-15)
(1.04478 6.27526e-06 1.7758e-14)
(1.04478 7.49041e-06 5.42219e-15)
(1.04477 8.89667e-06 2.16941e-14)
(1.04477 1.05303e-05 4.4582e-15)
(1.04477 1.24435e-05 1.84102e-14)
(1.04476 1.468e-05 4.90771e-15)
(1.04476 1.73297e-05 1.9389e-14)
(1.04475 2.04262e-05 8.01565e-15)
(1.04474 2.41581e-05 2.2897e-14)
(1.04473 2.84667e-05 1.09961e-14)
(1.04473 3.38347e-05 2.43566e-14)
(1.04471 3.98017e-05 1.4445e-14)
(1.0447 4.77696e-05 2.05298e-14)
(1.04468 5.58324e-05 1.4906e-14)
(1.04467 6.82386e-05 2.00994e-14)
(1.04464 7.84434e-05 1.57764e-14)
(1.04462 9.90337e-05 2.22215e-14)
(1.04457 0.000110062 2.17536e-14)
(1.04457 0.00014642 2.44647e-14)
(1.04445 0.00015406 2.51508e-14)
(1.04452 0.000219623 2.38144e-14)
(1.04423 0.000217593 2.49456e-14)
(1.04454 0.00032679 2.32568e-14)
(1.04376 0.000324764 2.73005e-14)
(1.0448 0.000452819 2.1623e-14)
(1.04406 -0.000424761 -7.52472e-15)
(1.04417 -0.000366655 7.36803e-15)
(1.04426 -0.00031598 -7.22626e-15)
(1.04434 -0.000271911 4.85134e-15)
(1.0444 -0.000233684 -4.65057e-15)
(1.04446 -0.000200598 1.40687e-15)
(1.04451 -0.000172018 -2.81084e-16)
(1.04455 -0.000147373 2.15505e-17)
(1.0446 -9.49151e-05 1.74211e-15)
(1.04459 -0.000126154 -2.44834e-16)
)
;
    }
}


// ************************************************************************* //
