/*--------------------------------*- C++ -*----------------------------------*\
  =========                 |
  \\      /  F ield         | OpenFOAM: The Open Source CFD Toolbox
   \\    /   O peration     | Website:  https://openfoam.org
    \\  /    A nd           | Version:  7
     \\/     M anipulation  |
\*---------------------------------------------------------------------------*/
FoamFile
{
    version     2.0;
    format      ascii;
    class       surfaceScalarField;
    location    "19";
    object      phi;
}
// * * * * * * * * * * * * * * * * * * * * * * * * * * * * * * * * * * * * * //

dimensions      [0 3 -1 0 0 0 0];

internalField   nonuniform List<scalar> 
814
(
0.0250334
8.84849e-05
0.024951
8.24181e-05
0.0248748
7.61843e-05
0.024805
6.97929e-05
0.0247417
6.3253e-05
0.0246852
5.65749e-05
0.0246354
4.97683e-05
0.0245925
4.28439e-05
0.0245567
3.58117e-05
0.024528
2.8683e-05
0.0245066
2.14682e-05
1.41789e-05
0.0241715
0.000173943
0.0240919
0.000161967
0.0240184
0.000149666
0.0239512
0.000137058
0.0238903
0.000124163
0.0238358
0.000110999
0.023788
9.75858e-05
0.0237469
8.39441e-05
0.0237126
7.00944e-05
0.0236853
5.60577e-05
0.0236649
4.18555e-05
2.75093e-05
0.0233512
0.000256409
0.0232745
0.000238679
0.0232037
0.000220473
0.023139
0.000201819
0.0230804
0.000182744
0.0230281
0.000163277
0.0229822
0.000143447
0.0229429
0.000123283
0.0229102
0.000102817
0.0228842
8.2078e-05
0.0228649
6.1099e-05
3.99112e-05
0.0225692
0.00033592
0.0224953
0.000312579
0.0224272
0.000288621
0.0223649
0.000264079
0.0223087
0.00023899
0.0222585
0.000213391
0.0222147
0.000187321
0.0221771
0.000160818
0.022146
0.000133922
0.0221214
0.000106675
0.0221034
7.91153e-05
5.12869e-05
0.0218225
0.0217514
0.000383698
0.0216859
0.000354131
0.0216261
0.000323851
0.0215722
0.000292905
0.0215242
0.000261336
0.0214824
0.000229193
0.0214467
0.000196523
0.0214172
0.000163375
0.0213941
0.000129799
0.0213774
9.58443e-05
6.15631e-05
0.0210401
0.000452066
0.0209772
0.000417026
0.0209199
0.000381151
0.0208683
0.000344494
0.0208226
0.000307109
0.0207827
0.000269051
0.0207489
0.000230376
0.0207211
0.000191141
0.0206995
0.000151406
0.0206841
0.00011123
7.06721e-05
0.0203592
0.000517709
0.0202989
0.000477326
0.020244
0.00043599
0.0201948
0.000393762
0.0201512
0.000350705
0.0201134
0.00030688
0.0200814
0.000262353
0.0200553
0.00021719
0.0200353
0.000171456
0.0200213
0.000125222
7.85543e-05
0.0197064
0.00058065
0.0196487
0.000535045
0.0195963
0.000488377
0.0195494
0.000440712
0.019508
0.000392119
0.0194722
0.00034267
0.0194421
0.000292437
0.0194178
0.000241493
0.0193993
0.000189914
0.0193868
0.000137775
8.51554e-05
0.0190799
0.000640901
0.0190248
0.000590193
0.0189749
0.000538315
0.0189302
0.000485339
0.018891
0.000431342
0.0188573
0.000376404
0.0188291
0.000320603
0.0188066
0.000264021
0.0187897
0.00020674
0.0187787
0.000148846
9.04229e-05
0.0184779
0.000698469
0.0184253
0.000642772
0.0183778
0.0005858
0.0183355
0.000527635
0.0182985
0.000468361
0.0182668
0.000408063
0.0182406
0.000346827
0.0182199
0.000284742
0.0182047
0.000221899
0.0181952
0.000158389
9.4306e-05
0.0178986
0.000753348
0.0178486
0.00069277
0.0178036
0.00063082
0.0177636
0.000567584
0.0177288
0.000503154
0.0176993
0.000437621
0.017675
0.000371078
0.0176561
0.000303622
0.0176427
0.00023535
0.0176347
0.00016636
9.67527e-05
0.0173405
0.000805521
0.0172931
0.00074017
0.0172506
0.000673352
0.017213
0.000605161
0.0171804
0.000535693
0.017153
0.000465046
0.0171308
0.000393322
0.0171138
0.000320621
0.0171021
0.000247048
0.0170957
0.000172709
9.77112e-05
0.0168022
0.000854957
0.0167574
0.000784938
0.0167174
0.000713363
0.0166822
0.000640329
0.016652
0.00056594
0.0166267
0.0004903
0.0166065
0.000413515
0.0165915
0.000335694
0.0165816
0.000256946
0.0165769
0.000177385
9.71253e-05
0.0162823
0.000901611
0.0162402
0.00082703
0.0162027
0.000750806
0.01617
0.000673043
0.0161421
0.000593848
0.0161191
0.000513332
0.016101
0.000431607
0.0160879
0.000348788
0.0160798
0.00026499
0.0160769
0.000180334
9.49379e-05
0.0157795
0.000945421
0.0157401
0.000866387
0.0157053
0.000785625
0.0156751
0.000703245
0.0156496
0.000619361
0.0156288
0.000534087
0.0156129
0.000447542
0.0156018
0.000359846
0.0155957
0.00027112
0.0155946
0.00018149
9.10823e-05
0.0152927
0.000986314
0.0152561
0.000902935
0.015224
0.000817748
0.0151964
0.000730866
0.0151733
0.00064241
0.0151549
0.000552498
0.0151412
0.000461254
0.0151322
0.000368804
0.0151281
0.000275276
0.0151288
0.000180799
8.55068e-05
0.0148207
0.00102419
0.0147871
0.000936585
0.0147577
0.000847088
0.0147328
0.000755823
0.0147123
0.000662914
0.0146963
0.000568485
0.0146849
0.000472665
0.0146781
0.000375584
0.014676
0.000277376
0.0146786
0.000178175
7.81224e-05
0.0143626
0.00105895
0.0143319
0.000967232
0.0143055
0.000873546
0.0142833
0.00077802
0.0142654
0.000680781
0.0142519
0.00058196
0.0142429
0.000481688
0.0142384
0.000380103
0.0142384
0.000277342
0.0142431
0.000173545
6.88587e-05
0.0139173
0.00109047
0.0138898
0.000994757
0.0138664
0.000897007
0.013847
0.000797346
0.0138319
0.000695906
0.013821
0.000592821
0.0138145
0.000488229
0.0138123
0.000382268
0.0138146
0.000275084
0.0138213
0.00016682
5.76319e-05
0.0134841
0.00111859
0.0134599
0.00101902
0.0134395
0.000917341
0.0134232
0.00081368
0.0134109
0.000708173
0.0134028
0.000600958
0.0133989
0.000492178
0.0133991
0.000381977
0.0134037
0.000270503
0.0134126
0.000157907
4.43554e-05
0.0130622
0.00114315
0.0130413
0.00103987
0.0130242
0.000934403
0.013011
0.000826882
0.0130018
0.000717449
0.0129965
0.000606246
0.0129952
0.000493419
0.0129981
0.000379117
0.0130051
0.000263491
0.0130163
0.0001467
2.8953e-05
0.0126507
0.00116397
0.0126334
0.00105713
0.0126198
0.000948028
0.0126099
0.000836799
0.0126037
0.000723589
0.0126014
0.000608545
0.012603
0.000491817
0.0126086
0.000373558
0.0126182
0.000253925
0.0126318
0.000133077
1.13567e-05
0.012249
0.00118086
0.0122355
0.00107062
0.0122255
0.000958042
0.0122191
0.000843266
0.0122162
0.000726441
0.012217
0.000607717
0.0122216
0.000487247
0.01223
0.000365189
0.0122422
0.000241705
0.0122583
0.000116962
-8.79008e-06
0.0118567
0.00119358
0.0118472
0.00108012
0.011841
0.000964242
0.0118382
0.000846092
0.0118388
0.000725822
0.0118429
0.000603585
0.0118506
0.00047954
0.011862
0.000353849
0.011877
0.000226676
0.0118957
9.82029e-05
-3.14343e-05
0.0114731
0.00120188
0.0114678
0.00108539
0.0114656
0.000966408
0.0114667
0.000845071
0.0114709
0.000721539
0.0114786
0.00059597
0.0114896
0.000468527
0.011504
0.000339374
0.011522
0.000208684
0.0115436
7.66557e-05
-5.66407e-05
0.0110978
0.0012055
0.011097
0.00108619
0.0110991
0.000964298
0.0111042
0.000839975
0.0111123
0.000713379
0.0111236
0.000584673
0.0111381
0.000454022
0.0111559
0.000321596
0.011177
0.000187574
0.0112015
5.22213e-05
-8.46212e-05
0.0107303
0.00120412
0.0107343
0.00108221
0.0107409
0.000957643
0.0107503
0.000830551
0.0107626
0.000701104
0.0107778
0.000569468
0.010796
0.000435811
0.0108173
0.000300311
0.0108417
0.000163152
0.0108691
2.48399e-05
-0.000115515
0.0103702
0.00119741
0.0103793
0.00107316
0.0103908
0.000946149
0.0104048
0.00081653
0.0104214
0.000684469
0.0104408
0.000550136
0.0104629
0.000413702
0.0104878
0.000275348
0.0105157
0.000135275
0.0105464
-5.89868e-06
-0.000149465
0.0100171
0.00118498
0.0100316
0.00105866
0.0100483
0.000929477
0.0100672
0.000797594
0.0100885
0.000663179
0.0101123
0.000526408
0.0101385
0.00038746
0.0101673
0.000246529
0.0101987
0.000103865
0.0102333
-4.04914e-05
-0.000186507
0.00967045
0.00116641
0.0096908
0.0010383
0.00971304
0.00090724
0.00973726
0.000773375
0.00976355
0.000636885
0.00979201
0.00049795
0.00982271
0.000356761
0.00985571
0.000213527
0.00989089
6.86857e-05
0.00992894
-7.85332e-05
-0.00022694
0.00932943
0.00114119
0.00935611
0.00101162
0.00938435
0.000878996
0.00941427
0.000743458
0.00944596
0.000605194
0.00947952
0.000464392
0.00951503
0.000321247
0.00955259
0.000175973
0.00959135
2.99184e-05
0.00963317
-0.000120349
-0.000270828
0.00899315
0.00110877
0.00902669
0.000978089
0.00906144
0.000844247
0.0090975
0.000707394
0.00913497
0.000567726
0.00917391
0.000425449
0.00921438
0.000280778
0.00925634
0.000134015
0.00930049
-1.42295e-05
0.00934607
-0.000165932
-0.000318101
0.00866048
0.00106845
0.00870154
0.000937034
0.00874344
0.000802345
0.00878629
0.000664547
0.00883015
0.000523865
0.00887506
0.000380534
0.008921
0.000234838
0.00896758
8.74376e-05
0.00901655
-6.32005e-05
0.00906611
-0.000215489
-0.000368676
0.00833001
0.00101948
0.00837933
0.000887709
0.00842912
0.000752564
0.00847944
0.000614225
0.00853036
0.000472946
0.00858192
0.000328967
0.00863424
0.000182527
0.00868448
3.71929e-05
0.00873819
-0.000116908
0.00879177
-0.000269073
-0.000422303
0.00800018
0.000960989
0.0080586
0.00082929
0.00811702
0.000694149
0.00817542
0.000555826
0.00823371
0.000414652
0.00829169
0.000270983
0.00834882
0.000125397
0.00840831
-2.22933e-05
0.00846566
-0.000174261
0.00852227
-0.000325685
-0.000477756
0.00766935
0.000892106
0.0077378
0.000760835
0.00780582
0.000626126
0.00787329
0.000488356
0.00794005
0.000347897
0.00800592
0.000205109
0.0080671
6.42163e-05
0.00813181
-8.69985e-05
0.00819322
-0.000235677
0.00825215
-0.000384615
-0.000533697
0.00733505
0.000812104
0.00741431
0.000681571
0.00749259
0.000547853
0.00756939
0.000411551
0.00764403
0.000273259
0.0077154
0.000133737
0.00778709
-7.47437e-06
0.0078546
-0.000154504
0.00791814
-0.000299214
0.00797704
-0.000443519
-0.000587268
0.00699391
0.0070851
0.00717477
0.00726202
0.00734553
0.00018975
0.00741875
6.05139e-05
0.0074974
-8.61211e-05
0.0075675
-0.000224609
0.00763105
-0.00036276
0.00768723
-0.000499708
-0.000635163
0.00702526
0.00711665
0.00719392
0.007263
0.0073225
-0.000422264
0.00737164
-0.000548844
-0.000672956
0.006975
0.00701348
)
;

boundaryField
{
    inlet
    {
        type            calculated;
        value           nonuniform 0();
    }
    outlet
    {
        type            calculated;
        value           nonuniform 0();
    }
    cylinder
    {
        type            calculated;
        value           nonuniform 0();
    }
    top
    {
        type            symmetryPlane;
        value           nonuniform 0();
    }
    bottom
    {
        type            symmetryPlane;
        value           uniform 0;
    }
    defaultFaces
    {
        type            empty;
        value           nonuniform 0();
    }
    procBoundary1to0
    {
        type            processor;
        value           nonuniform List<scalar> 
31
(
-0.0251219
-0.0242569
-0.0234337
-0.0226487
-0.0218991
0.000412511
-0.0211085
-0.0204248
-0.0197694
-0.0191402
-0.0185354
-0.0179535
-0.0173927
-0.0168516
-0.0163289
-0.0158233
-0.0153336
-0.0148586
-0.0143973
-0.0139489
-0.0135123
-0.0130867
-0.0126715
-0.0122659
-0.0118694
-0.0114814
-0.0111014
-0.0107289
-0.0103635
-0.0100047
-0.00965187
)
;
    }
    procBoundary1to2
    {
        type            processor;
        value           nonuniform List<scalar> 
33
(
0.0244924
0.0236515
0.0228525
0.022092
0.0213671
0.020675
0.0200134
0.0193802
0.0187734
0.0181913
0.0176323
0.0170948
0.0165775
0.0160791
0.0155984
0.0151344
0.014686
0.0142523
0.0138326
0.0134259
0.0130317
0.0126494
0.0122785
0.0119184
0.0115688
0.0112294
0.0109
0.0105804
0.0102704
0.00996937
0.00967706
0.00939334
0.00911668
)
;
    }
    procBoundary1to6
    {
        type            processor;
        value           nonuniform List<scalar> 8(-0.00930422 -0.00896073 -0.00862017 -0.00828103 -0.00794169 -0.00760046 -0.00725505 -0.00690182);
    }
    procBoundary1to7
    {
        type            processor;
        value           nonuniform List<scalar> 
13
(
-0.000474155
-0.000587323
-0.000697021
0.000720016
0.000590377
0.000458186
0.000324301
-0.00694213
0.000106618
-3.08766e-05
-0.000163392
-0.000293688
-0.00692311
)
;
    }
    procBoundary1to8
    {
        type            processor;
        value           nonuniform List<scalar> 7(0.0088454 0.00857773 0.0083081 0.00803061 0.00773513 0.00740943 0.00703754);
    }
}


// ************************************************************************* //
