/*--------------------------------*- C++ -*----------------------------------*\
  =========                 |
  \\      /  F ield         | OpenFOAM: The Open Source CFD Toolbox
   \\    /   O peration     | Website:  https://openfoam.org
    \\  /    A nd           | Version:  7
     \\/     M anipulation  |
\*---------------------------------------------------------------------------*/
FoamFile
{
    version     2.0;
    format      ascii;
    class       volScalarField;
    location    "1.6";
    object      p;
}
// * * * * * * * * * * * * * * * * * * * * * * * * * * * * * * * * * * * * * //

dimensions      [0 2 -2 0 0 0 0];

internalField   nonuniform List<scalar> 
346
(
0.385149
0.392123
0.398498
0.404211
0.409214
0.413469
0.416949
0.419641
0.421545
0.42267
0.423035
0.176305
0.183379
0.190097
0.196448
0.202423
0.208012
0.213205
0.217995
0.222376
0.226344
0.229898
0.233037
0.235766
0.238092
0.240024
0.241577
0.242768
0.243619
0.244153
0.244401
0.244394
0.244169
0.243767
0.24323
0.242604
0.241939
0.241286
0.240698
0.240229
0.239935
0.23987
0.24009
0.240646
0.24159
0.242967
0.244822
0.247191
0.250106
0.253591
0.257662
0.262326
0.267581
0.273415
0.279805
0.286716
0.294104
0.301915
0.310082
0.318533
0.327185
0.33595
0.344735
0.353444
0.36198
0.370246
0.378152
0.385608
0.392536
0.398864
0.404532
0.40949
0.413702
0.417142
0.419798
0.421669
0.422765
0.423105
0.176623
0.183684
0.190388
0.196725
0.202684
0.208255
0.21343
0.218201
0.222562
0.22651
0.230043
0.233162
0.235871
0.238178
0.240092
0.241627
0.242802
0.243638
0.244159
0.244397
0.244382
0.244152
0.243747
0.243211
0.242589
0.241932
0.24129
0.240716
0.240266
0.239993
0.239954
0.240202
0.24079
0.241768
0.243182
0.245075
0.247485
0.250441
0.253967
0.258079
0.262783
0.268076
0.273946
0.280368
0.287307
0.294719
0.302547
0.310728
0.319185
0.327838
0.336597
0.345371
0.354062
0.362575
0.370814
0.378688
0.38611
0.393
0.399289
0.404917
0.409835
0.414008
0.41741
0.420031
0.421868
0.422934
0.423247
0.176977
0.184027
0.190719
0.197042
0.202985
0.208541
0.213698
0.218451
0.222794
0.226722
0.230235
0.233334
0.236022
0.238308
0.240202
0.241718
0.242874
0.243693
0.244198
0.244421
0.244395
0.244155
0.243743
0.243202
0.242578
0.241922
0.241285
0.240719
0.24028
0.240023
0.240002
0.240272
0.240886
0.241892
0.243338
0.245265
0.24771
0.250704
0.25427
0.258421
0.263165
0.268498
0.274405
0.280862
0.287835
0.295276
0.30313
0.311331
0.319805
0.328468
0.337233
0.346006
0.354691
0.363192
0.371415
0.379267
0.386663
0.393524
0.399781
0.405375
0.410259
0.414395
0.417762
0.420348
0.422152
0.423185
0.423468
0.1774
0.18444
0.19112
0.19743
0.20336
0.208899
0.21404
0.218775
0.223098
0.227006
0.230497
0.233573
0.236239
0.238502
0.240372
0.241865
0.242999
0.243795
0.24428
0.244483
0.244438
0.244182
0.243756
0.243203
0.242571
0.241908
0.241268
0.240703
0.240269
0.240019
0.24001
0.240296
0.240929
0.241959
0.243432
0.24539
0.247869
0.2509
0.254504
0.258697
0.263484
0.26886
0.27481
0.28131
0.288324
0.295805
0.303696
0.31193
0.320432
0.329119
0.337902
0.346688
0.35538
0.363883
0.3721
0.379942
0.387322
0.394163
0.400395
0.40596
0.410811
0.414913
0.418244
0.420792
0.422559
0.423556
0.423803
0.177907
0.184937
0.191606
0.197904
0.203819
0.209343
0.214466
0.219182
0.223485
0.22737
0.230838
0.23389
0.23653
0.238766
0.240609
0.242075
0.243181
0.243949
0.244407
0.244584
0.244514
0.244235
0.243787
0.243215
0.242566
0.24189
0.241239
0.240667
0.240229
0.23998
0.239977
0.240272
0.240919
0.241968
0.243465
0.245451
0.247963
0.25103
0.254675
0.258912
0.263745
0.26917
0.275171
0.281723
0.288788
0.296319
0.304259
0.312539
0.321084
0.329809
0.338625
0.347438
0.356152
0.364669
0.372894
0.380736
0.38811
0.394937
0.40115
0.40669
0.411511
0.41558
0.418873
0.421381
0.423106
0.424061
0.424265
)
;

boundaryField
{
    inlet
    {
        type            zeroGradient;
    }
    outlet
    {
        type            fixedValue;
        value           nonuniform 0();
    }
    wall
    {
        type            zeroGradient;
    }
    wedge1
    {
        type            wedge;
    }
    wedge2
    {
        type            wedge;
    }
    axis
    {
        type            empty;
    }
    procBoundary46to40
    {
        type            processor;
        value           nonuniform List<scalar> 
68
(
0.384734
0.391762
0.39819
0.403956
0.409008
0.413308
0.41683
0.41956
0.421497
0.422649
0.423038
0.176017
0.183105
0.189838
0.196207
0.202199
0.207807
0.213019
0.21783
0.222232
0.226221
0.229795
0.232954
0.235703
0.238048
0.239998
0.241566
0.242772
0.243634
0.244178
0.244432
0.244429
0.244206
0.243801
0.243257
0.242622
0.241944
0.241273
0.240664
0.240171
0.239848
0.239752
0.239936
0.240455
0.241358
0.242694
0.244505
0.246829
0.2497
0.253141
0.257169
0.261793
0.267011
0.272811
0.279172
0.286059
0.293429
0.301228
0.30939
0.317843
0.326503
0.335284
0.344091
0.352828
0.361397
0.369702
0.377649
0.377649
)
;
    }
    procBoundary46to41
    {
        type            processor;
        value           uniform 0.42267;
    }
    procBoundary46to45
    {
        type            processor;
        value           nonuniform List<scalar> 5(0.168886 0.169215 0.169579 0.170011 0.170526);
    }
    procBoundary46to47
    {
        type            processor;
        value           nonuniform List<scalar> 5(0.422718 0.422836 0.423029 0.423329 0.423749);
    }
}


// ************************************************************************* //
