/*--------------------------------*- C++ -*----------------------------------*\
  =========                 |
  \\      /  F ield         | OpenFOAM: The Open Source CFD Toolbox
   \\    /   O peration     | Website:  https://openfoam.org
    \\  /    A nd           | Version:  7
     \\/     M anipulation  |
\*---------------------------------------------------------------------------*/
FoamFile
{
    version     2.0;
    format      ascii;
    class       volVectorField;
    location    "22";
    object      U;
}
// * * * * * * * * * * * * * * * * * * * * * * * * * * * * * * * * * * * * * //

dimensions      [0 1 -1 0 0 0 0];

internalField   nonuniform List<vector> 
433
(
(-1.90021 2.98406 2.7129e-17)
(-0.710784 2.08423 2.71025e-17)
(0.437472 0.276901 2.66923e-17)
(0.323035 0.583204 -1.15537e-17)
(-1.24094 3.07235 -9.00977e-18)
(-3.78867 5.97211 5.69687e-17)
(-4.64583 7.20667 -4.76775e-17)
(-3.49136 6.4053 2.44287e-17)
(-1.1663 4.4344 2.36295e-17)
(1.25151 1.94925 -8.92572e-17)
(2.87297 -0.250964 2.82894e-17)
(1.28694 -1.18192 -1.57492e-17)
(0.57494 -0.779326 -1.86516e-17)
(-1.87361 1.21151 1.62777e-17)
(-2.58503 2.95142 1.90281e-17)
(-1.62608 4.08157 -2.56069e-17)
(-0.48315 5.02169 -2.31478e-18)
(0.319013 5.62179 3.54746e-18)
(0.659469 5.72471 2.36636e-18)
(0.484935 5.41729 1.56745e-18)
(-0.122275 4.87014 -6.86193e-19)
(-0.907132 4.20122 8.83348e-19)
(-1.56399 3.45852 -1.13926e-18)
(-1.88218 2.68268 8.27021e-19)
(-0.931026 -0.298018 1.93619e-17)
(-1.28527 -1.26774 -4.6878e-17)
(-0.170575 -3.0328 7.31939e-17)
(1.95381 -4.64013 2.43902e-18)
(3.91325 -5.3592 -1.50846e-17)
(4.7072 -5.03827 -1.37126e-17)
(4.15339 -3.63363 2.77995e-17)
(2.60934 -1.57946 -5.00649e-17)
(0.653881 0.489344 1.22284e-17)
(-1.14376 2.03496 -1.14571e-17)
(-2.35739 2.79354 -1.32309e-17)
(-2.80405 2.82069 5.6901e-18)
(-2.58177 2.37605 -7.72056e-18)
(-1.98007 1.74464 6.8361e-18)
(-1.30089 1.13248 -4.35099e-18)
(-0.735889 0.643885 2.03859e-17)
(-0.348129 0.305877 -7.02883e-18)
(-2.46846 1.37361 1.59883e-18)
(-2.88079 1.41697 -2.98048e-18)
(0.0490213 -0.89859 -2.00871e-18)
(3.11206 -3.67738 -9.06816e-19)
(5.03818 -6.02656 7.9707e-18)
(6.21253 -7.86733 -1.87907e-19)
(6.4305 -8.7125 -3.98109e-18)
(5.39146 -8.15275 4.34645e-19)
(3.29571 -6.35185 -1.11514e-17)
(0.951865 -4.04059 1.61237e-17)
(-0.770326 -1.99882 -2.80948e-18)
(-1.51511 -0.622412 1.18096e-18)
(-1.47371 0.100218 6.08881e-20)
(-1.04986 0.367853 1.63893e-18)
(-0.568487 0.383675 -9.41303e-20)
(-0.191249 0.293866 -1.04139e-18)
(0.0447311 0.1837 -1.43406e-18)
(0.162729 0.0925441 -2.12488e-18)
(0.203198 0.0320536 4.48032e-18)
(0.202637 -0.00167742 -2.50953e-18)
(0.186131 -0.0183973 2.15819e-18)
(-0.961257 1.32138 2.73278e-17)
(-2.07947 2.98843 -4.72329e-17)
(-2.5718 3.68186 5.98424e-17)
(-2.31101 3.10825 -1.22594e-17)
(-1.1336 1.30912 -6.31965e-18)
(0.950702 -1.1365 -2.78078e-17)
(3.06082 -3.57072 2.84167e-17)
(4.19349 -5.17265 2.65027e-17)
(3.97035 -5.48365 -2.5584e-17)
(2.84403 -4.7101 2.12364e-17)
(1.54962 -3.43681 -4.98809e-17)
(0.546139 -2.1786 1.38492e-17)
(-0.0648944 -1.20117 5.82402e-18)
(-0.353099 -0.56167 2.768e-18)
(-0.418093 -0.201443 1.41871e-17)
(-0.352695 -0.0291977 -1.09233e-17)
(-0.23507 0.0343142 2.78969e-18)
(-0.117495 0.0464509 1.02561e-17)
(-0.0255689 0.039522 -2.06339e-18)
(0.0363864 0.0276237 -4.47866e-18)
(0.0756093 0.016066 -3.1436e-19)
(0.101462 0.00577405 -3.00725e-18)
(0.121657 -0.00302197 2.22893e-18)
(0.140814 -0.0104913 -1.7955e-19)
(1.1026 -0.108286 8.83205e-18)
(-0.61537 1.57455 -3.66539e-17)
(-4.30449 4.25202 2.64843e-17)
(-5.82732 6.06365 -8.63981e-18)
(-4.82362 6.54753 2.2702e-17)
(-2.71784 6.2456 -2.81501e-17)
(-0.516759 5.31381 2.12766e-17)
(1.09101 4.06589 -2.0343e-18)
(1.73127 2.9206 -3.05131e-17)
(1.47019 2.10863 2.4162e-17)
(0.685641 1.61437 2.02096e-18)
(-0.194137 1.30039 -6.86538e-18)
(-0.859378 1.04259 -1.77806e-17)
(-1.17422 0.790305 1.37437e-17)
(-1.168 0.551876 -6.27666e-18)
(-0.964974 0.352733 -1.02527e-19)
(-0.697532 0.206735 1.81547e-18)
(-0.4517 0.111641 -3.59748e-18)
(-0.26104 0.0556563 2.91752e-18)
(-0.126411 0.0238912 1.02538e-18)
(-0.0347648 0.00455918 -1.58691e-18)
(0.0292265 -0.00831265 -5.833e-19)
(0.0776175 -0.0173415 -3.22027e-19)
(0.970342 -1.08616 -1.99477e-17)
(0.790136 -1.76824 1.96488e-17)
(-0.40227 -1.69108 -2.12496e-17)
(-0.270063 -1.17043 -9.61949e-18)
(0.75384 -0.220317 5.859e-18)
(1.23873 1.16511 -1.05655e-17)
(0.953409 2.69642 2.31818e-17)
(0.167227 3.94283 -2.27663e-17)
(-0.858628 4.65235 2.59681e-17)
(-1.90685 4.77901 1.22532e-17)
(-2.73591 4.40277 6.28551e-18)
(-3.13184 3.67777 -3.80661e-18)
(-3.02307 2.79836 -7.18667e-18)
(-2.52478 1.94179 -4.11012e-18)
(-1.85849 1.22413 3.70378e-18)
(-1.2244 0.690887 -2.5177e-18)
(-0.730304 0.334929 -1.06635e-18)
(-0.39503 0.120497 4.92373e-19)
(-0.186863 0.00437899 -1.65664e-19)
(-0.0620585 -0.0509435 1.86779e-18)
(0.0150032 -0.0718745 -2.23418e-18)
(0.0676279 -0.075684 -1.21705e-18)
(-2.12772 0.203801 7.38532e-18)
(-2.55053 -0.523691 1.16118e-17)
(0.270913 -2.56148 -3.83208e-18)
(3.92891 -4.59694 -6.56476e-17)
(6.72229 -5.8995 5.27838e-17)
(8.121 -6.45996 -2.40562e-17)
(7.78717 -5.99737 2.352e-17)
(5.84785 -4.58659 1.96623e-17)
(2.97948 -2.69342 -3.70595e-17)
(0.140381 -0.913579 -5.19365e-19)
(-1.87761 0.331391 4.44347e-19)
(-2.76325 0.949189 1.41093e-17)
(-2.69146 1.08334 -2.16712e-17)
(-2.08333 0.940392 1.43089e-17)
(-1.34197 0.686344 -1.23642e-18)
(-0.712149 0.427311 9.9457e-19)
(-0.276064 0.219294 -4.01494e-18)
(-0.0196304 0.0756891 1.31067e-18)
(0.108642 -0.0125258 9.89624e-20)
(0.162914 -0.0586317 7.9126e-19)
(0.183358 -0.077201 -6.28018e-19)
(-2.28131 1.1463 5.27066e-18)
(-2.70929 1.68924 2.08089e-17)
(-0.222869 0.709847 8.1046e-19)
(2.37072 -0.981639 1.08412e-17)
(4.25654 -2.96323 -2.32421e-17)
(5.90291 -4.92457 -1.71225e-17)
(6.84398 -6.37715 -3.01765e-18)
(6.4311 -6.79416 2.9537e-17)
(4.65328 -6.06919 -2.45701e-17)
(2.31712 -4.6166 1.53381e-17)
(0.380853 -3.02377 4.12771e-19)
(-0.704272 -1.69944 3.35459e-18)
(-1.03296 -0.784399 5.42968e-19)
(-0.91782 -0.246381 -1.11662e-17)
(-0.635496 0.0157428 6.47147e-18)
(-0.348656 0.104689 -2.3242e-18)
(-0.123834 0.103683 -5.27655e-18)
(0.0283544 0.0707577 5.1736e-18)
(0.119805 0.035272 -1.07152e-18)
(0.169538 0.00636269 -1.69306e-18)
(-0.235434 0.85636 -4.01813e-18)
(-2.15556 2.62842 1.96823e-17)
(-4.56334 4.18024 -3.25534e-17)
(-5.19879 4.66756 -2.12873e-17)
(-3.75138 3.93805 1.90939e-17)
(-1.01449 2.55364 8.5703e-18)
(1.84015 0.845708 -1.99292e-17)
(3.71098 -0.666704 4.44225e-17)
(4.11275 -1.5562 -2.70219e-17)
(3.35217 -1.75682 1.59191e-17)
(2.08805 -1.4918 -1.53681e-17)
(0.861925 -1.05588 -9.09246e-18)
(-0.0448089 -0.656441 1.37482e-17)
(-0.555112 -0.374735 -1.82741e-17)
(-0.719527 -0.204529 2.25511e-17)
(-0.652728 -0.110635 -2.04252e-17)
(-0.479584 -0.0612549 4.32348e-18)
(-0.290139 -0.035621 6.467e-18)
(-0.12903 -0.0229175 -2.30596e-18)
(1.89451 -0.51989 -1.22328e-20)
(1.14059 -0.0693887 -1.96115e-18)
(-2.13928 1.34515 1.0785e-18)
(-3.72139 2.99282 -2.33811e-21)
(-3.38272 4.44091 8.53379e-19)
(-2.60637 5.63034 -1.70737e-19)
(-1.90283 6.26216 -1.36985e-19)
(-1.45978 6.2355 -2.26865e-19)
(-1.43119 5.68858 6.70426e-19)
(-1.79535 4.83433 -3.2891e-18)
(-2.32343 3.85897 4.33299e-18)
(-2.72509 2.88869 -6.89163e-18)
(-2.79726 2.01094 3.82846e-18)
(-2.51328 1.28713 1.06391e-18)
(-1.99878 0.746695 -3.30453e-18)
(-1.42425 0.385459 1.98116e-18)
(-0.91605 0.168983 -1.8351e-18)
(-0.528694 0.0500904 3.6497e-18)
(0.23176 -0.834229 1.92665e-17)
(0.872898 -2.00436 -3.46896e-17)
(2.16374 -3.1133 2.86547e-17)
(4.22068 -3.53994 -3.36419e-17)
(5.87609 -3.07191 3.41879e-17)
(5.97086 -1.97405 -2.84976e-17)
(4.47187 -0.451763 1.97759e-17)
(2.0196 1.07983 9.84849e-18)
(-0.62309 2.23908 -3.09766e-17)
(-2.82535 2.81839 1.67781e-17)
(-4.16777 2.81495 8.1076e-18)
(-4.51734 2.40592 -3.91537e-18)
(-4.04734 1.82593 2.27714e-19)
(-3.11994 1.25704 3.63961e-18)
(-2.10458 0.787646 -5.59849e-18)
(-1.244 0.435619 1.41084e-18)
(-0.626821 0.193008 6.688e-19)
(-0.236269 0.0427269 1.15145e-19)
(-2.60282 0.196423 -1.55784e-18)
(-2.62277 -0.248141 -1.78313e-17)
(1.47561 -1.68519 1.44725e-17)
(5.91331 -3.32432 -2.51333e-18)
(8.80573 -4.70621 2.54278e-18)
(10.1739 -5.71522 -9.54505e-18)
(9.72052 -6.01478 2.12185e-18)
(7.43425 -5.47618 4.73192e-19)
(4.01908 -4.32116 -4.59106e-19)
(0.672706 -2.96965 -1.01214e-18)
(-1.62167 -1.77826 9.40711e-19)
(-2.57422 -0.901008 -4.74756e-18)
(-2.49152 -0.333069 -1.50057e-18)
(-1.88325 -0.0140724 1.24021e-18)
(-1.16656 0.125001 -3.01902e-19)
(-0.568433 0.151277 2.81762e-19)
(-0.157805 0.122346 -4.06697e-19)
(-1.62333 0.860653 2.77887e-18)
(-2.38846 1.78747 3.94455e-18)
(-1.37896 1.91773 1.32684e-19)
(0.227501 1.15676 -7.40346e-19)
(2.11937 -0.338556 3.45038e-19)
(4.29031 -2.04055 2.91073e-18)
(5.90169 -3.56245 -6.79291e-18)
(6.11438 -4.46576 1.9927e-17)
(4.88844 -4.54848 -1.60405e-17)
(2.98633 -3.96168 9.07898e-18)
(1.25785 -3.04409 -1.00132e-17)
(0.113644 -2.10901 6.82783e-18)
(-0.453244 -1.34306 -2.71609e-18)
(-0.616647 -0.80517 3.04306e-18)
(-0.553534 -0.465525 -1.75303e-18)
(-0.391802 -0.267349 -2.84699e-19)
(-0.210882 -0.160136 3.45784e-18)
(0.936942 0.490912 -7.12212e-18)
(-0.851112 1.70781 -1.96536e-18)
(-4.52483 3.05534 1.11744e-17)
(-6.24043 4.14312 -1.86212e-17)
(-5.53826 4.67581 7.08949e-18)
(-3.64068 4.79391 7.44052e-18)
(-1.47861 4.39087 -7.28662e-18)
(0.172704 3.6121 -6.34176e-19)
(0.874578 2.73039 4.92105e-19)
(0.697462 1.94148 2.13577e-18)
(0.0343295 1.30222 9.55243e-19)
(-0.688393 0.790743 4.22863e-19)
(-1.18272 0.383749 -3.82953e-18)
(-1.33998 0.0829559 2.8725e-18)
(-1.20979 -0.105842 -8.82333e-19)
(-0.920424 -0.195254 -1.80241e-18)
(-0.597638 -0.213445 9.77378e-19)
(2.24707 -0.564435 2.77559e-18)
(2.98225 -1.01265 -6.60378e-19)
(1.52726 -0.985068 3.54139e-19)
(0.920672 -0.0717221 -8.3943e-19)
(0.978356 1.47898 5.68695e-18)
(0.391988 3.17162 -1.84503e-18)
(-0.839497 4.56853 -4.03596e-18)
(-2.3045 5.36633 2.41254e-18)
(-3.69572 5.47065 5.09895e-19)
(-4.79436 4.96901 -9.54375e-19)
(-5.39491 4.0667 4.00667e-19)
(-5.36555 3.01056 1.95449e-19)
(-4.74012 2.01811 6.75239e-20)
(-3.72806 1.22118 -7.67038e-19)
(-2.61502 0.655338 -5.1179e-20)
(-1.63227 0.292861 1.44258e-19)
(-0.89021 0.0833473 1.18894e-20)
(-0.876531 -0.687865 1.5037e-18)
(0.0411676 -1.70633 -5.77921e-18)
(3.5086 -2.72446 1.59848e-18)
(7.51147 -3.24288 -1.28643e-19)
(10.1584 -3.15202 2.29254e-18)
(10.6122 -2.77708 -1.62241e-18)
(8.75476 -2.112 3.50687e-18)
(5.26892 -1.30004 -3.58331e-18)
(1.26936 -0.561133 3.29579e-18)
(-2.14939 -0.0512297 -2.70099e-18)
(-4.27174 0.202029 1.68174e-18)
(-4.9396 0.283483 -2.3808e-19)
(-4.47422 0.29205 -1.17392e-18)
(-3.4109 0.278018 4.18306e-19)
(-2.23245 0.245393 -5.03451e-19)
(-1.23476 0.192514 5.25976e-19)
(-2.54186 0.0390385 3.96364e-19)
(-2.37057 0.056128 -1.23847e-18)
(1.76216 -0.255221 3.32242e-19)
(5.96054 -1.0906 4.17073e-19)
(8.60999 -2.32926 4.15046e-19)
(9.96264 -3.61914 -1.98403e-19)
(9.71469 -4.614 5.81397e-19)
(7.7319 -5.0446 -4.13849e-19)
(4.60898 -4.85483 3.76671e-19)
(1.47298 -4.18744 -4.3436e-19)
(-0.750814 -3.26475 4.68996e-19)
(-1.79128 -2.29316 2.5419e-19)
(-1.90831 -1.42984 -2.91136e-19)
(-1.52965 -0.766123 1.7507e-19)
(-1.00113 -0.324579 -4.40444e-19)
(-0.518535 -0.0746227 6.41524e-19)
(-0.792585 0.739424 5.4385e-18)
(-2.0886 1.80753 -1.23984e-18)
(-2.93523 2.46204 5.44152e-19)
(-2.56844 2.45494 -2.98053e-18)
(-0.960086 1.78804 1.1543e-17)
(1.35288 0.891855 -1.14315e-17)
(3.43196 -0.13713 -1.73627e-18)
(4.42822 -1.08464 5.69458e-18)
(4.13803 -1.71958 2.14234e-18)
(3.01572 -1.94761 -3.2798e-18)
(1.69302 -1.84083 1.33315e-18)
(0.594875 -1.5535 2.58011e-19)
(-0.121109 -1.22469 1.55612e-19)
(-0.468331 -0.928614 -3.12599e-18)
(-0.535519 -0.683381 -7.32361e-19)
(-0.433267 -0.484707 1.70349e-18)
(-0.260549 -0.328466 -7.0893e-20)
(2.16235 0.48208 2.88268e-18)
(1.53025 1.07987 5.31677e-19)
(-2.13238 1.56115 -4.49454e-18)
(-4.53684 2.54285 8.5264e-18)
(-5.07466 3.73186 -3.13742e-18)
(-4.9235 4.78505 -3.89392e-18)
(-4.49873 5.3263 4.13948e-18)
(-4.03834 5.25293 3.35772e-20)
(-3.73779 4.65376 -5.42474e-18)
(-3.62981 3.71923 4.37626e-18)
(-3.58746 2.65903 -3.46616e-19)
(-3.44344 1.65194 6.15288e-19)
(-3.08827 0.826043 2.28059e-18)
(-2.52809 0.24742 -1.99583e-18)
(-1.86607 -0.0862061 5.8144e-19)
(-1.22903 -0.227518 1.52241e-18)
(-0.703109 -0.250237 -5.30758e-19)
(1.97146 -0.412153 2.50467e-18)
(3.85719 -1.02652 5.03257e-18)
(4.66656 -1.51168 -1.37091e-19)
(5.68089 -1.00741 1.03906e-18)
(6.14742 0.288389 -2.01734e-18)
(4.97154 1.63113 1.31958e-18)
(2.38403 2.69001 -5.02636e-18)
(-0.772419 3.26356 1.56585e-17)
(-3.68541 3.29213 -1.47844e-17)
(-5.78426 2.86079 7.55841e-18)
(-6.76649 2.15904 -9.17787e-18)
(-6.63215 1.4204 4.7779e-18)
(-5.65402 0.819071 -1.13824e-18)
(-4.25526 0.420213 1.77825e-18)
(-2.83842 0.192805 -9.61376e-19)
(-1.66084 0.0714181 3.04004e-19)
(-0.813033 0.00571901 6.6926e-19)
(-1.65125 -0.820663 3.18517e-18)
(-0.693737 -1.46015 3.62263e-17)
(3.96894 -1.53857 -3.02293e-17)
(8.91286 -1.43377 3.93903e-18)
(11.8911 -1.40168 -3.479e-18)
(12.5083 -1.65569 1.64192e-17)
(10.6764 -2.02904 -3.42438e-18)
(7.01818 -2.37296 -3.3358e-19)
(2.71773 -2.58296 -1.1648e-18)
(-0.984337 -2.58758 -8.64781e-20)
(-3.30747 -2.36474 -2.88627e-18)
(-4.13214 -1.93942 7.3378e-18)
(-3.83009 -1.39949 2.85158e-18)
(-2.94 -0.866784 -3.14489e-18)
(-1.91845 -0.44199 1.29065e-18)
(-1.03947 -0.16254 -7.36767e-19)
(-0.404069 -0.0103821 -1.17572e-19)
(-2.16178 -0.0961156 1.09342e-17)
(-2.15766 0.314876 -2.29419e-17)
(1.02443 0.934994 1.74652e-17)
(4.34532 0.810511 -2.10831e-17)
(6.6252 -0.146453 1.99458e-17)
(8.03525 -1.40778 -1.61171e-17)
(8.23975 -2.6678 9.50592e-18)
(7.02608 -3.64289 4.5748e-18)
(4.79413 -4.13342 -1.81679e-17)
(2.39201 -4.07842 1.99346e-17)
(0.537341 -3.57103 -1.41576e-17)
(-0.517658 -2.80765 8.12868e-18)
(-0.896046 -2.00162 7.72615e-20)
(-0.854735 -1.30425 3.32247e-18)
(-0.623132 -0.779798 -7.7461e-18)
(-0.349222 -0.427609 7.85244e-19)
(-0.106206 -0.212958 2.36546e-18)
(0.082052 -0.0912657 7.63685e-19)
(0.017135 0.798948 1.87891e-17)
(-1.51186 1.68503 -2.76936e-17)
(-3.76957 2.10818 1.99233e-17)
(-4.64141 2.38252 3.1728e-18)
(-3.83093 2.42123 3.43465e-17)
(-2.13342 2.35481 -1.46993e-17)
(-0.300302 2.00821 -1.99937e-17)
(0.989252 1.38854 7.3819e-18)
(1.42368 0.651159 -2.76342e-18)
(1.14329 -0.0292243 1.15616e-17)
(0.519273 -0.543675 -2.1582e-17)
(-0.0958371 -0.866461 3.23925e-17)
(-0.499198 -1.01212 -2.49254e-17)
(-0.640401 -1.0086 -1.90172e-18)
(-0.574259 -0.896329 1.83233e-17)
(-0.396834 -0.72534 -8.60138e-18)
(2.85469 0.830711 5.55323e-19)
(3.59055 1.29088 1.42061e-19)
(0.972851 1.04322 -2.10461e-18)
(-1.33446 1.59789 -4.75269e-19)
)
;

boundaryField
{
    inlet
    {
        type            uniformFixedValue;
        uniformValue    constant (1 0 0);
        value           nonuniform 0();
    }
    outlet
    {
        type            pressureInletOutletVelocity;
        value           nonuniform 0();
    }
    cylinder
    {
        type            fixedValue;
        value           uniform (0 0 0);
    }
    top
    {
        type            symmetryPlane;
    }
    bottom
    {
        type            symmetryPlane;
    }
    defaultFaces
    {
        type            empty;
    }
    procBoundary20to14
    {
        type            processor;
        value           uniform (-1.46488 1.84669 2.42861e-17);
    }
    procBoundary20to25
    {
        type            processor;
        value           nonuniform List<vector> 
20
(
(-0.192329 -0.54163 6.36662e-18)
(-0.00768455 -0.377139 -1.28539e-17)
(-2.73401 2.74419 -1.19833e-18)
(-4.11335 3.80107 -1.57099e-18)
(-5.40933 4.36177 3.88484e-23)
(-6.36217 4.30163 -2.33842e-18)
(-6.83343 3.68221 1.92189e-18)
(-6.80044 2.69995 -2.92526e-18)
(-6.30433 1.61751 2.16026e-18)
(-5.42542 0.671002 1.28409e-18)
(-4.29996 0.00458875 -2.92049e-18)
(-3.10825 -0.358644 3.54504e-18)
(-2.02553 -0.481065 -4.5329e-18)
(-0.192329 -0.54163 6.36662e-18)
(-1.16335 -0.45694 5.83189e-18)
(1.40652 -0.298554 9.81833e-18)
(3.83316 -0.559717 3.97908e-17)
(6.35093 -0.59256 1.34664e-18)
(-2.73401 2.74419 -1.19833e-18)
(8.58759 0.123233 2.25171e-17)
)
;
    }
    procBoundary20to26
    {
        type            processor;
        value           nonuniform List<vector> 
28
(
(0.11806 -0.0240486 2.73622e-18)
(0.11806 -0.0240486 2.73622e-18)
(0.109088 -0.0724677 -1.98464e-18)
(0.109088 -0.0724677 -1.98464e-18)
(0.193349 -0.081043 3.39927e-19)
(0.193349 -0.081043 3.39927e-19)
(0.19631 -0.014742 1.82813e-19)
(0.19631 -0.014742 1.82813e-19)
(-0.00777936 -0.0181698 1.28795e-18)
(-0.00777936 -0.0181698 1.28795e-18)
(-0.259636 -0.00960956 2.38935e-18)
(-0.259636 -0.00960956 2.38935e-18)
(-0.0113201 -0.0384838 -5.90153e-20)
(0.0848699 0.075436 -1.27649e-19)
(0.0848699 0.075436 -1.27649e-19)
(-0.0527634 -0.103715 -6.91869e-19)
(-0.317354 -0.190838 -7.36171e-19)
(-0.390918 -0.0262623 -1.29173e-19)
(-0.52264 0.1295 9.76106e-20)
(-0.52264 0.1295 9.76106e-20)
(-0.155551 0.040328 -4.26809e-21)
(-0.155551 0.040328 -4.26809e-21)
(-0.0833083 -0.212033 3.07873e-19)
(-0.314869 -0.216411 1.05898e-18)
(-0.267313 -0.028734 3.35747e-19)
(1.39591e-05 0.0520899 3.53424e-19)
(1.39591e-05 0.0520899 3.53424e-19)
(0.218599 -0.0268633 -5.85422e-19)
)
;
    }
    procBoundary20to27
    {
        type            processor;
        value           nonuniform List<vector> 
29
(
(-3.0042 1.23418 -1.41256e-17)
(-0.866717 -1.69032 -8.61033e-18)
(1.86545 -5.01057 -6.85376e-18)
(1.28015 -2.03402 3.06988e-17)
(1.28015 -2.03402 3.06988e-17)
(2.36479 -4.63919 3.9287e-17)
(3.30589 -6.88012 -2.53321e-17)
(3.47622 -7.88911 -5.87013e-18)
(3.30136 -1.54736 -1.82022e-17)
(3.30136 -1.54736 -1.82022e-17)
(2.74613 -1.8497 9.01843e-18)
(1.71971 -1.48874 1.77418e-17)
(0.673992 -0.892214 1.02768e-17)
(-0.127627 -0.359364 -2.95136e-17)
(-1.82913 1.93526 1.13237e-18)
(-1.82913 1.93526 1.13237e-18)
(-1.52299 1.28728 -2.6384e-19)
(-1.12563 0.787202 -3.99328e-19)
(-0.757383 0.444238 7.89013e-19)
(-0.119797 0.0999202 5.16512e-18)
(-0.119797 0.0999202 5.16512e-18)
(-0.00308469 -0.00939601 -5.62281e-19)
(0.0489219 -0.0566191 9.75365e-19)
(0.0701579 -0.0688223 -9.54322e-19)
(0.168713 -0.0258024 2.44428e-18)
(0.168713 -0.0258024 2.44428e-18)
(0.157645 -0.0285139 -1.16427e-18)
(0.154923 -0.0291967 1.29154e-18)
(0.161102 -0.0170111 2.70238e-18)
)
;
    }
}


// ************************************************************************* //
