/*--------------------------------*- C++ -*----------------------------------*\
  =========                 |
  \\      /  F ield         | OpenFOAM: The Open Source CFD Toolbox
   \\    /   O peration     | Website:  https://openfoam.org
    \\  /    A nd           | Version:  7
     \\/     M anipulation  |
\*---------------------------------------------------------------------------*/
FoamFile
{
    version     2.0;
    format      ascii;
    class       volVectorField;
    location    "8.8";
    object      U;
}
// * * * * * * * * * * * * * * * * * * * * * * * * * * * * * * * * * * * * * //

dimensions      [0 1 -1 0 0 0 0];

internalField   nonuniform List<vector> 
30686
(
(1 -9.5566e-06 3.54669e-16)
(1.00006 -2.86023e-05 -2.64166e-16)
(1.00017 -4.74573e-05 4.90095e-16)
(1.00034 -6.60972e-05 5.87839e-15)
(1.00057 -8.44858e-05 4.70731e-15)
(1.00086 -0.000102551 4.25272e-15)
(1.00119 -0.000120206 3.1471e-15)
(1.00158 -0.000137366 3.13817e-15)
(1.00203 -0.00015396 1.66504e-15)
(1.00252 -0.00016993 1.52645e-15)
(1.00306 -0.00018523 9.29784e-16)
(1.00364 -0.000199819 1.72056e-15)
(1.00427 -0.000213662 2.05528e-15)
(1.00494 -0.000226732 1.18453e-16)
(1.00565 -0.000239006 5.63786e-16)
(1.00639 -0.000250467 -6.03239e-16)
(1.00717 -0.000261106 2.33256e-15)
(1.00798 -0.000270922 5.97036e-16)
(1.00881 -0.000279917 1.20851e-15)
(1.00968 -0.000288102 6.05363e-16)
(1.01056 -0.00029549 1.6579e-15)
(1.01147 -0.000302102 -1.38118e-15)
(1.0124 -0.00030796 1.46856e-15)
(1.01334 -0.00031309 -6.17046e-16)
(1.0143 -0.000317523 1.70566e-15)
(1.01527 -0.000321291 -6.19385e-16)
(1.01625 -0.000324426 3.27764e-15)
(1.01724 -0.000326964 -1.8129e-15)
(1.01824 -0.000328942 3.97227e-15)
(1.01924 -0.000330395 3.08175e-15)
(1.02025 -0.000331359 3.66051e-15)
(1.02125 -0.000331872 2.93712e-15)
(1.02226 -0.000331968 2.67393e-15)
(1.02327 -0.000331682 2.38794e-15)
(1.02428 -0.000331047 2.29768e-15)
(1.02528 -0.000330097 1.80353e-15)
(1.02628 -0.000328861 2.9315e-15)
(1.02728 -0.000327369 1.55219e-15)
(1.02827 -0.000325649 2.02773e-15)
(1.02926 -0.000323727 1.98391e-15)
(1.03024 -0.000321628 1.72665e-15)
(1.03121 -0.000319373 1.78675e-15)
(1.03218 -0.000316985 1.59277e-15)
(1.03314 -0.000314483 2.34824e-15)
(1.03409 -0.000311885 7.90306e-16)
(1.03503 -0.000309208 1.90087e-15)
(1.03596 -0.000306466 1.56191e-15)
(1.03689 -0.000303673 1.34281e-15)
(1.03781 -0.000300842 6.03858e-16)
(1.03872 -0.000297984 1.49208e-15)
(1.03962 -0.000295109 4.05958e-16)
(1.04051 -0.000292226 2.45323e-15)
(1.04139 -0.000289342 -3.28593e-16)
(1.04227 -0.000286466 2.68609e-15)
(1.04313 -0.000283604 -3.31711e-16)
(1.04399 -0.00028076 3.15529e-15)
(1.04484 -0.00027794 -1.52624e-15)
(1.04568 -0.000275149 -1.49098e-15)
(1.04651 -0.000272388 -1.32254e-15)
(1.04733 -0.000269663 -1.46856e-15)
(1.04815 -0.000266974 -1.5836e-15)
(1.04895 -0.000264325 -2.03917e-15)
(1.04975 -0.000261717 -1.22337e-15)
(1.05054 -0.000259152 -1.92869e-15)
(1.05133 -0.00025663 -5.39908e-16)
(1.0521 -0.000254153 -1.31785e-15)
(1.05287 -0.000251721 -1.84728e-16)
(1.05363 -0.000249334 -1.42317e-15)
(1.05438 -0.000246994 -4.78137e-17)
(1.05513 -0.000244698 -2.54167e-16)
(1.05587 -0.000242449 6.89496e-16)
(1.0566 -0.000240245 5.62859e-17)
(1.05733 -0.000238085 6.1915e-16)
(1.05805 -0.00023597 -4.17572e-16)
(1.05876 -0.000233899 3.94724e-17)
(1.05947 -0.000231871 -1.60517e-15)
(1.06017 -0.000229886 9.21184e-16)
(1.06087 -0.000227943 -8.40402e-16)
(1.06155 -0.00022604 1.55863e-15)
(1.06224 -0.000224178 -1.39626e-15)
(1.06292 -0.000222356 1.71154e-15)
(1.06359 -0.000220572 -2.97964e-15)
(1.06426 -0.000218825 -2.99844e-15)
(1.06492 -0.000217116 -2.79324e-15)
(1.06557 -0.000215443 -2.08974e-15)
(1.06623 -0.000213804 -1.89151e-15)
(1.06687 -0.0002122 -2.01965e-15)
(1.06751 -0.00021063 -1.29707e-15)
(1.06815 -0.000209092 -8.09095e-16)
(1.06878 -0.000207585 -9.54294e-16)
(1.06941 -0.00020611 -4.41556e-16)
(1.07004 -0.000204664 -1.48206e-15)
(1.07066 -0.000203248 -7.71904e-16)
(1.07127 -0.00020186 -3.17429e-16)
(1.07188 -0.0002005 -2.16696e-16)
(1.07249 -0.000199167 -9.16898e-16)
(1.07309 -0.00019786 -3.78317e-16)
(1.07369 -0.000196578 -1.57657e-16)
(1.07428 -0.000195321 -1.39184e-16)
(1.07488 -0.000194089 6.22408e-17)
(1.07546 -0.00019288 -1.67848e-16)
(1.07605 -0.000191693 1.10289e-16)
(1.07663 -0.000190529 3.50855e-16)
(1.0772 -0.000189386 -3.168e-16)
(1.07778 -0.000188265 1.75128e-16)
(1.07835 -0.000187163 4.36153e-16)
(1.07891 -0.000186082 4.92348e-18)
(1.07948 -0.00018502 5.93369e-16)
(1.08004 -0.000183977 -5.56482e-17)
(1.08059 -0.000182952 4.26545e-16)
(1.08115 -0.000181945 1.02023e-16)
(1.0817 -0.000180955 2.73561e-16)
(1.08225 -0.000179982 6.8728e-16)
(1.08279 -0.000179026 1.06399e-15)
(1.08333 -0.000178086 6.27172e-16)
(1.08387 -0.000177161 -3.27016e-16)
(1.08441 -0.000176252 7.56163e-16)
(1.08494 -0.000175358 1.11911e-15)
(1.08548 -0.000174478 5.87763e-16)
(1.086 -0.000173613 7.8123e-16)
(1.08653 -0.000172761 6.0595e-16)
(1.08705 -0.000171923 4.60135e-16)
(1.08757 -0.000171099 1.03172e-15)
(1.08809 -0.000170287 4.19858e-16)
(1.08861 -0.000169488 3.35059e-16)
(1.08912 -0.000168702 6.57687e-16)
(1.08963 -0.000167927 3.76412e-16)
(1.09014 -0.000167165 3.1215e-16)
(1.09065 -0.000166414 1.25214e-15)
(1.09115 -0.000165675 8.98808e-16)
(1.09165 -0.000164948 1.16373e-15)
(1.09215 -0.000164231 9.94481e-16)
(1.09265 -0.000163526 1.12057e-15)
(1.09315 -0.000162831 1.01512e-15)
(1.09364 -0.000162146 1.04229e-15)
(1.09413 -0.000161473 1.63215e-15)
(1.09462 -0.000160809 1.40028e-15)
(1.09511 -0.000160156 1.03693e-15)
(1.09559 -0.000159513 1.18895e-15)
(1.09608 -0.00015888 7.7896e-16)
(1.09656 -0.000158257 1.75568e-15)
(1.09704 -0.000157644 1.3668e-15)
(1.09752 -0.00015704 1.37162e-15)
(1.09799 -0.000156446 1.41305e-15)
(1.09847 -0.000155862 1.47182e-15)
(1.09894 -0.000155288 1.96821e-15)
(1.09941 -0.000154723 1.92659e-15)
(1.09988 -0.000154168 1.49311e-15)
(1.10034 -0.000153623 1.30484e-15)
(1.10081 -0.000153088 9.27516e-16)
(1.10127 -0.000152562 1.09415e-15)
(1.10174 -0.000152046 1.84853e-15)
(1.1022 -0.00015154 1.98929e-15)
(1.10266 -0.000151044 1.94717e-15)
(1.10312 -0.000150558 1.26955e-15)
(1.10357 -0.000150083 1.82051e-15)
(1.10403 -0.000149618 1.17357e-15)
(1.10448 -0.000149163 1.87276e-15)
(1.10493 -0.00014872 1.71469e-15)
(1.10538 -0.000148287 1.73116e-15)
(1.10583 -0.000147866 1.52996e-15)
(1.10628 -0.000147456 1.81862e-15)
(1.10673 -0.000147059 1.85838e-15)
(1.10717 -0.000146673 2.30998e-15)
(1.10762 -0.0001463 1.82464e-15)
(1.10806 -0.00014594 2.63617e-15)
(1.10851 -0.000145594 2.44299e-15)
(1.10895 -0.000145261 1.95635e-15)
(1.10939 -0.000144943 2.69797e-15)
(1.10983 -0.000144639 1.95022e-15)
(1.11027 -0.000144351 2.37274e-15)
(1.1107 -0.000144079 1.97746e-15)
(1.11114 -0.000143824 2.10542e-15)
(1.11158 -0.000143586 1.78561e-15)
(1.11201 -0.000143367 2.63972e-15)
(1.11245 -0.000143167 1.94959e-15)
(1.11288 -0.000142986 2.51553e-15)
(1.11332 -0.000142827 2.30246e-15)
(1.11375 -0.000142689 2.25397e-15)
(1.11418 -0.000142575 2.7161e-15)
(1.11462 -0.000142485 2.36427e-15)
(1.11505 -0.00014242 2.63405e-15)
(1.11548 -0.000142383 2.72805e-15)
(1.11591 -0.000142373 2.45887e-15)
(1.11634 -0.000142393 2.22185e-15)
(1.11678 -0.000142445 2.59646e-15)
(1.11721 -0.000142529 2.81294e-15)
(1.11764 -0.000142649 3.62067e-15)
(1.11808 -0.000142806 2.51747e-15)
(1.11851 -0.000143001 2.61922e-15)
(1.11894 -0.000143238 2.15069e-15)
(1.11938 -0.000143519 3.44732e-15)
(1.11982 -0.000143846 1.91898e-15)
(1.12025 -0.000144222 3.42902e-15)
(1.12069 -0.000144649 1.87156e-15)
(1.12113 -0.000145132 3.03921e-15)
(1.12157 -0.000145673 1.32804e-15)
(1.12202 -0.000146275 2.91257e-15)
(1.12246 -0.000146943 1.65449e-15)
(1.12291 -0.00014768 3.57365e-15)
(1.12336 -0.00014849 1.98581e-15)
(1.12381 -0.000149379 3.30067e-15)
(1.12427 -0.00015035 1.73932e-15)
(1.12472 -0.000151409 3.29653e-15)
(1.12518 -0.000152561 1.20343e-15)
(1.12565 -0.000153812 2.89819e-15)
(1.12612 -0.000155168 1.29676e-15)
(1.12659 -0.000156636 2.78336e-15)
(1.12707 -0.000158222 1.47502e-15)
(1.12755 -0.000159933 2.6689e-15)
(1.12804 -0.000161778 1.73383e-15)
(1.12854 -0.000163764 2.23339e-15)
(1.12904 -0.000165901 1.34633e-15)
(1.12954 -0.000168197 2.17776e-15)
(1.13006 -0.000170662 1.0769e-15)
(1.13058 -0.000173308 2.3245e-15)
(1.13111 -0.000176144 1.76764e-15)
(1.13165 -0.000179183 1.54208e-15)
(1.1322 -0.000182437 1.59125e-15)
(1.13276 -0.00018592 9.60039e-16)
(1.13333 -0.000189645 2.13724e-15)
(1.13391 -0.000193628 7.35289e-16)
(1.1345 -0.000197883 1.86268e-15)
(1.13511 -0.000202428 8.61642e-16)
(1.13573 -0.000207281 1.99543e-15)
(1.13637 -0.00021246 5.39955e-16)
(1.13702 -0.000217984 1.76705e-15)
(1.13769 -0.000223875 -5.95373e-17)
(1.13838 -0.000230154 1.09614e-15)
(1.13909 -0.000236846 -9.23515e-17)
(1.13982 -0.000243973 5.49158e-16)
(1.14057 -0.000251563 -6.04641e-16)
(1.14135 -0.000259643 3.8598e-16)
(1.14215 -0.000268241 -5.79694e-16)
(1.14297 -0.000277387 5.22831e-16)
(1.14383 -0.000287114 -9.30674e-16)
(1.14472 -0.000297455 -2.18053e-17)
(1.14564 -0.000308444 -9.51559e-16)
(1.14659 -0.000320119 4.73415e-16)
(1.14758 -0.000332518 -3.94509e-16)
(1.14861 -0.000345681 1.27483e-16)
(1.14968 -0.000359651 -4.0235e-16)
(1.15079 -0.00037447 5.82294e-17)
(1.15195 -0.000390185 -8.40703e-16)
(1.15316 -0.000406842 -1.10742e-15)
(1.15442 -0.000424491 -6.10743e-16)
(1.15574 -0.000443183 -1.97905e-15)
(1.15711 -0.00046297 -7.35487e-16)
(1.15855 -0.000483905 -1.81194e-15)
(1.16005 -0.000506045 -8.1153e-16)
(1.16162 -0.000529444 -1.76278e-15)
(1.16326 -0.000554162 1.09968e-17)
(1.16499 -0.000580255 -1.92242e-15)
(1.16679 -0.000607783 -1.16143e-15)
(1.16867 -0.000636804 -1.55515e-15)
(1.17065 -0.000667377 -7.55109e-16)
(1.17273 -0.00069956 -1.76559e-15)
(1.1749 -0.000733408 -1.7144e-15)
(1.17718 -0.000768978 -2.09356e-15)
(1.17957 -0.00080632 -1.79386e-15)
(1.18207 -0.000845484 -1.95885e-15)
(1.1847 -0.000886514 -1.84166e-15)
(1.18745 -0.000929449 -2.25356e-15)
(1.19034 -0.000974322 -1.83177e-15)
(1.19337 -0.00102116 -2.0844e-15)
(1.19654 -0.00106998 -2.30913e-15)
(1.19986 -0.00112078 -1.99553e-15)
(1.20334 -0.00117358 -1.57418e-15)
(1.20698 -0.00122833 -1.11833e-15)
(1.2108 -0.00128503 -2.13616e-15)
(1.21478 -0.00134361 -1.16e-15)
(1.21895 -0.00140401 -2.22193e-15)
(1.2233 -0.00146615 -1.70489e-15)
(1.22785 -0.00152992 -3.18288e-15)
(1.23259 -0.0015952 -2.22757e-15)
(1.23753 -0.00166183 -3.01369e-15)
(1.24267 -0.00172963 -1.58885e-15)
(1.24802 -0.00179841 -2.19044e-15)
(1.25359 -0.00186792 -1.20914e-15)
(1.25936 -0.00193792 -2.73828e-15)
(1.26535 -0.00200812 -2.05283e-15)
(1.27155 -0.00207821 -2.17634e-15)
(1.27796 -0.00214784 -2.07444e-15)
(1.28458 -0.00221667 -2.5846e-15)
(1.29141 -0.00228429 -2.36093e-15)
(1.29844 -0.00235031 -2.92723e-15)
(1.30567 -0.00241431 -2.54288e-15)
(1.3131 -0.00247586 -2.34152e-15)
(1.3207 -0.00253451 -2.55564e-15)
(1.32848 -0.00258982 -2.60773e-15)
(1.33642 -0.00264136 -2.65483e-15)
(1.34451 -0.0026887 -2.56312e-15)
(1.35274 -0.00273142 -2.25802e-15)
(1.36109 -0.00276914 -2.38113e-15)
(1.36955 -0.00280149 -2.50835e-15)
(1.3781 -0.00282817 -2.28635e-15)
(1.38673 -0.00284888 -2.09838e-15)
(1.3954 -0.0028634 -2.07564e-15)
(1.40412 -0.00287156 -2.14764e-15)
(1.41284 -0.00287323 -2.1245e-15)
(1 -2.22724e-05 2.9021e-16)
(1.00006 -6.66939e-05 -6.16903e-16)
(1.00017 -0.000110766 1.0346e-15)
(1.00035 -0.000154354 -1.14604e-15)
(1.00057 -0.00019732 -1.48164e-15)
(1.00086 -0.000239496 -2.99476e-15)
(1.0012 -0.000280694 -2.47904e-15)
(1.00159 -0.000320734 -2.00847e-15)
(1.00203 -0.000359458 -2.19634e-15)
(1.00252 -0.000396731 -2.25876e-15)
(1.00306 -0.00043244 -1.3619e-15)
(1.00365 -0.000466488 -1.87095e-15)
(1.00428 -0.000498795 -5.07435e-16)
(1.00495 -0.000529292 -2.42955e-15)
(1.00566 -0.000557928 -4.06673e-16)
(1.0064 -0.000584666 -2.21109e-16)
(1.00718 -0.000609485 -2.01785e-16)
(1.00799 -0.000632379 4.8473e-16)
(1.00883 -0.000653359 1.93884e-15)
(1.00969 -0.000672445 -1.6372e-16)
(1.01058 -0.000689673 2.11693e-15)
(1.01149 -0.000705088 1.08251e-15)
(1.01242 -0.000718744 1.82968e-15)
(1.01336 -0.000730702 6.99804e-16)
(1.01432 -0.000741033 1.98011e-15)
(1.01529 -0.000749811 2.24906e-16)
(1.01627 -0.000757114 2.23782e-15)
(1.01726 -0.000763026 -1.54705e-16)
(1.01826 -0.000767628 2.90016e-15)
(1.01926 -0.000771008 1.87174e-15)
(1.02027 -0.000773249 2.61809e-15)
(1.02128 -0.000774436 1.17374e-15)
(1.02229 -0.000774651 2.83479e-15)
(1.0233 -0.000773976 8.75781e-16)
(1.0243 -0.000772489 2.98803e-15)
(1.02531 -0.000770265 1.9909e-15)
(1.02631 -0.000767376 2.846e-15)
(1.02731 -0.00076389 1.72688e-15)
(1.0283 -0.000759873 2.75292e-15)
(1.02928 -0.000755385 1.00939e-15)
(1.03026 -0.000750483 2.14699e-15)
(1.03124 -0.00074522 2.49869e-15)
(1.0322 -0.000739646 2.13181e-15)
(1.03316 -0.000733806 1.88386e-15)
(1.03412 -0.000727743 1.59004e-15)
(1.03506 -0.000721494 2.02305e-15)
(1.03599 -0.000715095 1.42379e-15)
(1.03692 -0.000708578 1.31632e-15)
(1.03784 -0.000701972 1.13637e-15)
(1.03875 -0.000695303 1.05652e-15)
(1.03965 -0.000688594 7.17918e-16)
(1.04054 -0.000681866 9.82538e-16)
(1.04142 -0.000675139 5.19084e-16)
(1.0423 -0.000668428 6.67414e-16)
(1.04316 -0.000661749 1.06666e-15)
(1.04402 -0.000655114 4.57105e-16)
(1.04487 -0.000648535 5.10789e-16)
(1.04571 -0.000642021 -1.34369e-16)
(1.04654 -0.00063558 -1.01016e-17)
(1.04736 -0.00062922 -5.05261e-16)
(1.04818 -0.000622947 -3.53357e-16)
(1.04898 -0.000616766 -1.12655e-15)
(1.04978 -0.000610681 -1.30639e-16)
(1.05057 -0.000604696 -1.10093e-15)
(1.05135 -0.000598812 -1.16273e-16)
(1.05213 -0.000593032 -1.4308e-15)
(1.0529 -0.000587358 -3.1178e-16)
(1.05366 -0.000581789 -1.81033e-15)
(1.05441 -0.000576327 1.69541e-16)
(1.05516 -0.000570972 -3.46248e-16)
(1.0559 -0.000565723 7.03808e-18)
(1.05663 -0.00056058 -5.45527e-16)
(1.05736 -0.000555541 -4.80678e-16)
(1.05808 -0.000550606 -6.90941e-16)
(1.05879 -0.000545774 -4.66863e-16)
(1.0595 -0.000541042 -6.41377e-16)
(1.0602 -0.00053641 -4.7959e-16)
(1.06089 -0.000531876 -5.67999e-16)
(1.06158 -0.000527437 -5.42155e-16)
(1.06227 -0.000523092 -6.19264e-16)
(1.06294 -0.000518839 -7.0073e-16)
(1.06362 -0.000514677 -5.72037e-16)
(1.06428 -0.000510602 -8.77932e-16)
(1.06494 -0.000506613 -7.63648e-16)
(1.0656 -0.000502709 -1.15468e-15)
(1.06625 -0.000498886 -7.17372e-16)
(1.0669 -0.000495143 -9.01153e-16)
(1.06754 -0.000491478 -5.76996e-16)
(1.06818 -0.000487889 -9.80594e-16)
(1.06881 -0.000484374 -3.40731e-16)
(1.06944 -0.000480931 -1.14013e-15)
(1.07006 -0.000477559 -3.87021e-16)
(1.07068 -0.000474254 -1.33888e-15)
(1.0713 -0.000471016 2.92723e-16)
(1.07191 -0.000467842 2.48243e-16)
(1.07251 -0.000464731 1.06392e-16)
(1.07312 -0.000461681 2.00899e-16)
(1.07372 -0.000458691 9.39428e-17)
(1.07431 -0.000455759 1.07918e-16)
(1.0749 -0.000452882 1.85026e-16)
(1.07549 -0.000450061 -7.49799e-17)
(1.07607 -0.000447292 1.60061e-16)
(1.07665 -0.000444576 -1.09072e-16)
(1.07723 -0.000441909 8.10526e-17)
(1.0778 -0.000439292 -2.22204e-16)
(1.07837 -0.000436722 7.68108e-16)
(1.07894 -0.000434199 -5.05e-16)
(1.0795 -0.000431721 1.08651e-15)
(1.08006 -0.000429286 -5.36786e-16)
(1.08062 -0.000426895 1.37253e-15)
(1.08118 -0.000424545 -2.728e-16)
(1.08173 -0.000422236 1.93535e-15)
(1.08227 -0.000419966 6.11971e-18)
(1.08282 -0.000417734 9.43241e-16)
(1.08336 -0.000415541 2.2378e-16)
(1.0839 -0.000413383 9.04594e-16)
(1.08444 -0.000411262 6.15192e-16)
(1.08497 -0.000409175 9.54855e-16)
(1.0855 -0.000407123 7.12445e-16)
(1.08603 -0.000405103 1.45043e-15)
(1.08656 -0.000403116 1.04358e-15)
(1.08708 -0.000401161 1.18969e-15)
(1.0876 -0.000399237 1.25927e-15)
(1.08812 -0.000397343 1.65202e-15)
(1.08863 -0.000395479 1.47615e-15)
(1.08915 -0.000393643 1.45322e-15)
(1.08966 -0.000391837 1.9931e-15)
(1.09017 -0.000390058 1.97877e-15)
(1.09067 -0.000388307 2.30894e-15)
(1.09118 -0.000386582 1.89303e-15)
(1.09168 -0.000384884 2.55731e-15)
(1.09218 -0.000383212 2.08667e-15)
(1.09268 -0.000381565 3.19292e-15)
(1.09317 -0.000379944 2.12907e-15)
(1.09367 -0.000378347 3.58508e-15)
(1.09416 -0.000376775 2.29706e-15)
(1.09465 -0.000375227 4.20325e-15)
(1.09513 -0.000373703 2.49709e-15)
(1.09562 -0.000372202 2.46812e-15)
(1.0961 -0.000370725 2.52901e-15)
(1.09658 -0.000369271 3.00711e-15)
(1.09706 -0.00036784 2.576e-15)
(1.09754 -0.000366432 3.37984e-15)
(1.09802 -0.000365046 3.07902e-15)
(1.09849 -0.000363684 3.58286e-15)
(1.09896 -0.000362343 3.81453e-15)
(1.09943 -0.000361026 4.01724e-15)
(1.0999 -0.00035973 3.79196e-15)
(1.10037 -0.000358458 3.80048e-15)
(1.10084 -0.000357208 3.97294e-15)
(1.1013 -0.000355981 3.82028e-15)
(1.10176 -0.000354777 4.38378e-15)
(1.10222 -0.000353596 4.00027e-15)
(1.10268 -0.000352439 4.21474e-15)
(1.10314 -0.000351305 3.95274e-15)
(1.1036 -0.000350196 4.78448e-15)
(1.10405 -0.00034911 4.24448e-15)
(1.10451 -0.00034805 5.39519e-15)
(1.10496 -0.000347015 4.17178e-15)
(1.10541 -0.000346005 5.57663e-15)
(1.10586 -0.000345022 4.21074e-15)
(1.10631 -0.000344066 5.88843e-15)
(1.10675 -0.000343138 4.15627e-15)
(1.1072 -0.000342238 4.81591e-15)
(1.10765 -0.000341367 4.57912e-15)
(1.10809 -0.000340527 5.16528e-15)
(1.10853 -0.000339718 4.77115e-15)
(1.10897 -0.000338941 5.19893e-15)
(1.10941 -0.000338197 4.9387e-15)
(1.10985 -0.000337489 5.4524e-15)
(1.11029 -0.000336816 5.19049e-15)
(1.11073 -0.000336181 5.64349e-15)
(1.11117 -0.000335585 5.30505e-15)
(1.1116 -0.00033503 5.56643e-15)
(1.11204 -0.000334518 5.48652e-15)
(1.11247 -0.000334049 5.60503e-15)
(1.11291 -0.000333628 5.77595e-15)
(1.11334 -0.000333255 5.84829e-15)
(1.11378 -0.000332934 6.15463e-15)
(1.11421 -0.000332666 5.89863e-15)
(1.11464 -0.000332455 5.87848e-15)
(1.11507 -0.000332303 5.88689e-15)
(1.11551 -0.000332214 6.16153e-15)
(1.11594 -0.00033219 5.77482e-15)
(1.11637 -0.000332236 6.42335e-15)
(1.1168 -0.000332355 6.13082e-15)
(1.11724 -0.000332552 6.81355e-15)
(1.11767 -0.000332829 6.13995e-15)
(1.1181 -0.000333193 5.32748e-15)
(1.11854 -0.000333648 6.18319e-15)
(1.11897 -0.000334199 5.17516e-15)
(1.11941 -0.000334852 6.73156e-15)
(1.11984 -0.000335613 5.11249e-15)
(1.12028 -0.000336488 7.24678e-15)
(1.12072 -0.000337484 5.17834e-15)
(1.12116 -0.000338607 7.48826e-15)
(1.1216 -0.000339866 4.61386e-15)
(1.12204 -0.000341269 7.74091e-15)
(1.12249 -0.000342824 3.83138e-15)
(1.12293 -0.000344541 8.71876e-15)
(1.12338 -0.000346429 3.26123e-15)
(1.12383 -0.000348499 8.03819e-15)
(1.12429 -0.000350762 1.30797e-15)
(1.12475 -0.000353229 7.90763e-15)
(1.12521 -0.000355913 1.99488e-15)
(1.12567 -0.000358828 7.19819e-15)
(1.12614 -0.000361988 1.48566e-15)
(1.12662 -0.000365407 6.95261e-15)
(1.12709 -0.000369102 2.32237e-15)
(1.12758 -0.00037309 6.20174e-15)
(1.12806 -0.000377388 3.34319e-16)
(1.12856 -0.000382017 5.89316e-15)
(1.12906 -0.000386996 1.07606e-15)
(1.12957 -0.000392346 4.97939e-15)
(1.13008 -0.000398092 3.60084e-16)
(1.1306 -0.000404256 4.43974e-15)
(1.13113 -0.000410866 1.51949e-15)
(1.13167 -0.000417949 3.10745e-15)
(1.13222 -0.000425533 -1.31421e-16)
(1.13278 -0.000433649 2.22527e-15)
(1.13335 -0.000442331 1.09451e-15)
(1.13393 -0.000451612 1.52591e-15)
(1.13452 -0.00046153 1.29246e-15)
(1.13513 -0.000472123 -1.42835e-16)
(1.13575 -0.000483433 3.31204e-15)
(1.13639 -0.000495502 -1.71269e-15)
(1.13704 -0.000508377 2.72495e-15)
(1.13771 -0.000522107 -3.97159e-15)
(1.1384 -0.000536743 2.34015e-15)
(1.13911 -0.000552338 -3.28893e-15)
(1.13983 -0.000568952 1.6111e-15)
(1.14059 -0.000586642 -3.95008e-15)
(1.14136 -0.000605475 1.4444e-15)
(1.14216 -0.000625515 -3.12093e-15)
(1.14299 -0.000646835 6.65065e-16)
(1.14384 -0.000669507 -4.9701e-15)
(1.14473 -0.00069361 6.2402e-16)
(1.14565 -0.000719226 -3.89347e-15)
(1.1466 -0.000746441 7.14885e-17)
(1.14759 -0.000775343 -4.22439e-15)
(1.14862 -0.000806027 -2.64493e-16)
(1.14969 -0.000838591 -3.079e-15)
(1.1508 -0.000873137 -1.3667e-15)
(1.15196 -0.000909771 -4.57231e-15)
(1.15316 -0.000948603 -2.13771e-15)
(1.15442 -0.000989749 -2.99553e-15)
(1.15574 -0.00103333 -3.02975e-15)
(1.15711 -0.00107946 -2.79566e-15)
(1.15855 -0.00112827 -3.83652e-15)
(1.16005 -0.00117988 -1.04411e-15)
(1.16162 -0.00123444 -5.56019e-15)
(1.16326 -0.00129207 -1.64015e-15)
(1.16498 -0.00135292 -7.10329e-15)
(1.16678 -0.00141711 -1.54271e-15)
(1.16866 -0.00148478 -6.13684e-15)
(1.17064 -0.00155607 -1.79088e-15)
(1.17271 -0.00163113 -6.45729e-15)
(1.17488 -0.00171007 -2.07128e-15)
(1.17716 -0.00179302 -5.51092e-15)
(1.17954 -0.00188012 -2.20744e-15)
(1.18205 -0.00197147 -6.84539e-15)
(1.18467 -0.00206718 -2.56623e-15)
(1.18742 -0.00216733 -5.8413e-15)
(1.19031 -0.00227202 -3.05418e-15)
(1.19333 -0.00238129 -5.98613e-15)
(1.1965 -0.00249519 -3.32745e-15)
(1.19982 -0.00261374 -4.69887e-15)
(1.2033 -0.00273693 -3.82791e-15)
(1.20694 -0.00286471 -5.50186e-15)
(1.21075 -0.00299702 -4.55612e-15)
(1.21473 -0.00313375 -5.08091e-15)
(1.2189 -0.00327475 -5.15953e-15)
(1.22325 -0.00341981 -4.90207e-15)
(1.22779 -0.00356869 -5.74626e-15)
(1.23253 -0.0037211 -4.18131e-15)
(1.23747 -0.00387668 -6.67604e-15)
(1.24261 -0.00403502 -4.55921e-15)
(1.24796 -0.00419564 -7.34433e-15)
(1.25352 -0.004358 -4.36652e-15)
(1.25929 -0.00452151 -7.0345e-15)
(1.26528 -0.00468551 -4.42584e-15)
(1.27148 -0.00484925 -6.85917e-15)
(1.27789 -0.00501195 -4.72434e-15)
(1.28452 -0.00517277 -6.68652e-15)
(1.29135 -0.0053308 -4.63892e-15)
(1.29838 -0.0054851 -7.188e-15)
(1.30562 -0.00563468 -4.69889e-15)
(1.31304 -0.00577854 -6.55547e-15)
(1.32065 -0.00591564 -4.90169e-15)
(1.32843 -0.00604494 -6.2088e-15)
(1.33638 -0.00616542 -4.81664e-15)
(1.34448 -0.00627608 -5.31399e-15)
(1.35271 -0.00637595 -4.92255e-15)
(1.36107 -0.00646413 -5.46314e-15)
(1.36954 -0.00653976 -4.84349e-15)
(1.3781 -0.00660211 -5.14436e-15)
(1.38673 -0.00665051 -4.8537e-15)
(1.39541 -0.00668443 -4.82752e-15)
(1.40413 -0.00670345 -4.83091e-15)
(1.41287 -0.0067073 -4.56603e-15)
(1 -3.63077e-05 -9.91647e-16)
(1.00006 -0.00010875 1.37219e-15)
(1.00017 -0.000180704 6.09601e-17)
(1.00035 -0.000251888 -3.70811e-17)
(1.00058 -0.000322025 4.82972e-17)
(1.00086 -0.000390832 2.74729e-17)
(1.0012 -0.000458017 -2.5096e-16)
(1.00159 -0.000523304 -9.6129e-17)
(1.00204 -0.000586444 -4.60751e-18)
(1.00253 -0.000647219 -2.42113e-16)
(1.00308 -0.00070544 -1.43705e-16)
(1.00366 -0.000760947 -2.15628e-16)
(1.00429 -0.000813605 -2.32221e-16)
(1.00497 -0.000863303 -4.02927e-16)
(1.00568 -0.000909957 -5.07266e-16)
(1.00643 -0.000953508 -1.0412e-16)
(1.00721 -0.000993924 -3.56274e-16)
(1.00802 -0.0010312 3.43895e-17)
(1.00886 -0.00106534 -3.75941e-16)
(1.00973 -0.0010964 2.47201e-16)
(1.01062 -0.00112442 -7.29481e-16)
(1.01153 -0.00114948 1.01859e-16)
(1.01246 -0.00117167 -1.24626e-15)
(1.0134 -0.00119109 2.46514e-16)
(1.01436 -0.00120786 -3.42293e-16)
(1.01534 -0.0012221 3.96444e-16)
(1.01632 -0.00123394 -7.38471e-16)
(1.01731 -0.00124351 3.35045e-17)
(1.01831 -0.00125094 -1.18174e-15)
(1.01932 -0.00125639 -8.49374e-16)
(1.02032 -0.00125998 -1.22245e-15)
(1.02133 -0.00126186 -9.07195e-16)
(1.02234 -0.00126215 -1.27692e-15)
(1.02335 -0.001261 -6.0022e-16)
(1.02436 -0.00125853 -1.86807e-15)
(1.02537 -0.00125486 -1.75086e-15)
(1.02637 -0.00125011 -1.88375e-15)
(1.02737 -0.00124439 -1.43802e-15)
(1.02836 -0.00123781 -2.20009e-15)
(1.02935 -0.00123047 -1.40524e-15)
(1.03033 -0.00122245 -2.41965e-15)
(1.0313 -0.00121385 -2.66907e-15)
(1.03227 -0.00120474 -2.48655e-15)
(1.03323 -0.0011952 -2.20301e-15)
(1.03418 -0.0011853 -2.37847e-15)
(1.03512 -0.00117511 -2.35408e-15)
(1.03606 -0.00116467 -2.33934e-15)
(1.03698 -0.00115404 -2.4723e-15)
(1.0379 -0.00114326 -2.45233e-15)
(1.03881 -0.00113239 -2.61631e-15)
(1.03971 -0.00112145 -2.52367e-15)
(1.0406 -0.00111048 -2.47494e-15)
(1.04149 -0.00109951 -2.67142e-15)
(1.04236 -0.00108858 -2.38171e-15)
(1.04323 -0.00107769 -2.24671e-15)
(1.04408 -0.00106688 -2.53743e-15)
(1.04493 -0.00105616 -2.51033e-15)
(1.04577 -0.00104555 -2.5985e-15)
(1.0466 -0.00103505 -2.83411e-15)
(1.04742 -0.00102469 -2.69611e-15)
(1.04824 -0.00101447 -2.86554e-15)
(1.04905 -0.0010044 -2.81795e-15)
(1.04984 -0.000994493 -2.46433e-15)
(1.05063 -0.000984743 -2.64505e-15)
(1.05142 -0.00097516 -2.50464e-15)
(1.05219 -0.000965747 -2.7908e-15)
(1.05296 -0.000956505 -2.54918e-15)
(1.05372 -0.000947436 -3.06273e-15)
(1.05447 -0.000938541 -2.51063e-15)
(1.05522 -0.00092982 -3.20875e-15)
(1.05596 -0.000921272 -2.36641e-15)
(1.05669 -0.000912896 -3.38971e-15)
(1.05742 -0.000904691 -1.9558e-15)
(1.05814 -0.000896655 -2.47617e-15)
(1.05885 -0.000888786 -1.68359e-15)
(1.05956 -0.000881081 -2.82584e-15)
(1.06026 -0.000873539 -1.03936e-15)
(1.06095 -0.000866155 -1.82037e-15)
(1.06164 -0.000858927 -9.26719e-16)
(1.06233 -0.000851852 -1.84252e-15)
(1.063 -0.000844928 -8.68166e-16)
(1.06368 -0.000838149 -8.31255e-16)
(1.06434 -0.000831515 -6.24649e-16)
(1.06501 -0.00082502 -7.93683e-16)
(1.06566 -0.000818662 -8.8319e-16)
(1.06631 -0.000812438 -1.07962e-15)
(1.06696 -0.000806344 -7.48693e-16)
(1.0676 -0.000800376 -1.18924e-15)
(1.06824 -0.000794532 -5.82558e-16)
(1.06887 -0.000788809 -1.33728e-15)
(1.0695 -0.000783203 -8.06811e-16)
(1.07012 -0.000777711 -1.33647e-15)
(1.07074 -0.00077233 -7.28225e-16)
(1.07136 -0.000767057 -1.39205e-15)
(1.07197 -0.00076189 -8.88075e-16)
(1.07257 -0.000756824 -1.53556e-15)
(1.07318 -0.000751859 -7.12741e-16)
(1.07378 -0.00074699 -1.19812e-15)
(1.07437 -0.000742215 6.05844e-16)
(1.07496 -0.000737531 -1.26208e-15)
(1.07555 -0.000732937 9.53121e-16)
(1.07613 -0.000728429 -9.81415e-16)
(1.07671 -0.000724006 1.14445e-15)
(1.07729 -0.000719664 3.87815e-18)
(1.07786 -0.000715402 1.29879e-15)
(1.07843 -0.000711218 8.2382e-16)
(1.079 -0.000707109 1.58364e-15)
(1.07956 -0.000703074 1.92128e-15)
(1.08012 -0.00069911 1.64261e-15)
(1.08068 -0.000695216 2.91643e-15)
(1.08123 -0.000691389 1.63841e-15)
(1.08179 -0.000687629 4.43449e-15)
(1.08233 -0.000683933 1.44609e-15)
(1.08288 -0.0006803 4.83391e-15)
(1.08342 -0.000676727 1.95395e-15)
(1.08396 -0.000673215 5.16694e-15)
(1.0845 -0.00066976 2.53057e-15)
(1.08503 -0.000666362 5.72966e-15)
(1.08556 -0.00066302 2.96453e-15)
(1.08609 -0.000659731 6.08998e-15)
(1.08662 -0.000656496 3.471e-15)
(1.08714 -0.000653312 6.27763e-15)
(1.08766 -0.000650178 3.83794e-15)
(1.08818 -0.000647094 6.50234e-15)
(1.08869 -0.000644058 4.36705e-15)
(1.08921 -0.00064107 6.86079e-15)
(1.08972 -0.000638128 4.8667e-15)
(1.09023 -0.000635231 6.97093e-15)
(1.09073 -0.000632379 5.52646e-15)
(1.09124 -0.000629571 7.02788e-15)
(1.09174 -0.000626806 6.07713e-15)
(1.09224 -0.000624083 7.14937e-15)
(1.09274 -0.000621401 7.12902e-15)
(1.09323 -0.000618761 7.30593e-15)
(1.09372 -0.000616161 7.85457e-15)
(1.09422 -0.0006136 7.27063e-15)
(1.09471 -0.000611079 8.92034e-15)
(1.09519 -0.000608597 6.80318e-15)
(1.09568 -0.000606154 8.77929e-15)
(1.09616 -0.000603748 7.2408e-15)
(1.09664 -0.00060138 9.76629e-15)
(1.09712 -0.000599049 7.18276e-15)
(1.0976 -0.000596756 9.68199e-15)
(1.09808 -0.000594499 7.64475e-15)
(1.09855 -0.00059228 9.88852e-15)
(1.09902 -0.000590097 8.06588e-15)
(1.09949 -0.000587951 9.78269e-15)
(1.09996 -0.000585841 8.36188e-15)
(1.10043 -0.000583769 1.0465e-14)
(1.10089 -0.000581733 8.50055e-15)
(1.10136 -0.000579735 1.03996e-14)
(1.10182 -0.000577774 8.88225e-15)
(1.10228 -0.00057585 1.01946e-14)
(1.10274 -0.000573965 9.22925e-15)
(1.1032 -0.000572118 9.85809e-15)
(1.10366 -0.000570311 9.8455e-15)
(1.10411 -0.000568543 1.07548e-14)
(1.10456 -0.000566815 1.03871e-14)
(1.10502 -0.000565129 1.04766e-14)
(1.10547 -0.000563484 1.07501e-14)
(1.10592 -0.000561882 1.00879e-14)
(1.10637 -0.000560325 1.1645e-14)
(1.10681 -0.000558812 9.42095e-15)
(1.10726 -0.000557345 1.12198e-14)
(1.1077 -0.000555927 9.59506e-15)
(1.10815 -0.000554557 1.22464e-14)
(1.10859 -0.000553239 9.91759e-15)
(1.10903 -0.000551972 1.22951e-14)
(1.10947 -0.000550761 9.96996e-15)
(1.10991 -0.000549605 1.20277e-14)
(1.11035 -0.000548509 9.94886e-15)
(1.11079 -0.000547473 1.18023e-14)
(1.11122 -0.000546501 1.05281e-14)
(1.11166 -0.000545595 1.24831e-14)
(1.1121 -0.000544759 1.0549e-14)
(1.11253 -0.000543995 1.24611e-14)
(1.11297 -0.000543306 1.06271e-14)
(1.1134 -0.000542697 1.22055e-14)
(1.11383 -0.000542171 1.09604e-14)
(1.11427 -0.000541733 1.18146e-14)
(1.1147 -0.000541387 1.1116e-14)
(1.11513 -0.000541137 1.24115e-14)
(1.11556 -0.000540988 1.14749e-14)
(1.11599 -0.000540947 1.18974e-14)
(1.11643 -0.000541018 1.16795e-14)
(1.11686 -0.000541209 1.15102e-14)
(1.11729 -0.000541525 1.22922e-14)
(1.11772 -0.000541973 1.10139e-14)
(1.11816 -0.000542561 1.1995e-14)
(1.11859 -0.000543298 1.13973e-14)
(1.11903 -0.00054419 1.2423e-14)
(1.11946 -0.000545249 1.13606e-14)
(1.1199 -0.000546482 1.22505e-14)
(1.12033 -0.000547901 1.1899e-14)
(1.12077 -0.000549516 1.19566e-14)
(1.12121 -0.000551339 1.22903e-14)
(1.12165 -0.000553383 1.15377e-14)
(1.1221 -0.00055566 1.23826e-14)
(1.12254 -0.000558185 1.17669e-14)
(1.12299 -0.000560972 1.25384e-14)
(1.12344 -0.000564038 1.12008e-14)
(1.12389 -0.000567399 1.21914e-14)
(1.12434 -0.000571074 1.07124e-14)
(1.1248 -0.000575081 1.15326e-14)
(1.12526 -0.000579442 1.01797e-14)
(1.12573 -0.000584177 1.09078e-14)
(1.1262 -0.000589309 9.69021e-15)
(1.12667 -0.000594864 1.03663e-14)
(1.12715 -0.000600867 9.15225e-15)
(1.12763 -0.000607346 9.74867e-15)
(1.12812 -0.000614329 8.63765e-15)
(1.12861 -0.00062185 8.96765e-15)
(1.12911 -0.000629939 8.19328e-15)
(1.12962 -0.000638633 8.33517e-15)
(1.13013 -0.000647969 7.64792e-15)
(1.13065 -0.000657986 7.61084e-15)
(1.13118 -0.000668727 7.40002e-15)
(1.13172 -0.000680237 6.9828e-15)
(1.13227 -0.000692561 6.8525e-15)
(1.13282 -0.000705751 5.84654e-15)
(1.13339 -0.00071986 6.42276e-15)
(1.13397 -0.000734944 5.45378e-15)
(1.13457 -0.000751062 6.18183e-15)
(1.13517 -0.000768278 4.8376e-15)
(1.13579 -0.000786659 5.75794e-15)
(1.13643 -0.000806275 4.45087e-15)
(1.13708 -0.000827201 5.48145e-15)
(1.13775 -0.000849517 4.10137e-15)
(1.13844 -0.000873305 4.74942e-15)
(1.13914 -0.000898655 3.43398e-15)
(1.13987 -0.000925658 4.41238e-15)
(1.14062 -0.000954414 3.24596e-15)
(1.14139 -0.000985026 3.95197e-15)
(1.14219 -0.0010176 2.90658e-15)
(1.14302 -0.00105226 3.32192e-15)
(1.14387 -0.00108911 2.54909e-15)
(1.14476 -0.0011283 2.9641e-15)
(1.14567 -0.00116994 2.37115e-15)
(1.14662 -0.00121418 2.57346e-15)
(1.14761 -0.00126117 2.28061e-15)