/*--------------------------------*- C++ -*----------------------------------*\
  =========                 |
  \\      /  F ield         | OpenFOAM: The Open Source CFD Toolbox
   \\    /   O peration     | Website:  https://openfoam.org
    \\  /    A nd           | Version:  7
     \\/     M anipulation  |
\*---------------------------------------------------------------------------*/
FoamFile
{
    version     2.0;
    format      ascii;
    class       volVectorField;
    location    "0.6";
    object      U;
}
// * * * * * * * * * * * * * * * * * * * * * * * * * * * * * * * * * * * * * //

dimensions      [0 1 -1 0 0 0 0];

internalField   nonuniform List<vector> 
344
(
(1.23714 -0.0742545 -4.30811e-15)
(1.25151 -0.0726845 -4.2938e-15)
(1.26533 -0.070939 -4.42914e-15)
(1.27858 -0.0690605 -4.56622e-15)
(1.29123 -0.0670856 -4.42191e-15)
(1.30328 -0.0650444 -4.42e-15)
(1.31473 -0.0629594 -4.46798e-15)
(1.32558 -0.0608455 -4.47105e-15)
(1.33581 -0.0587086 -4.4473e-15)
(1.34544 -0.0565462 -4.58482e-15)
(1.35446 -0.0543476 -4.39264e-15)
(1.36287 -0.0520954 -4.35101e-15)
(1.37066 -0.0497685 -4.26558e-15)
(1.37784 -0.0473446 -4.2444e-15)
(1.38438 -0.0448044 -4.41503e-15)
(1.39031 -0.042135 -4.30971e-15)
(1.39561 -0.0393332 -4.31061e-15)
(1.40028 -0.0364073 -4.26208e-15)
(1.40435 -0.0333786 -4.10381e-15)
(1.40784 -0.0302801 -4.02006e-15)
(1.41076 -0.0271547 -3.92543e-15)
(1.41316 -0.0240523 -3.7011e-15)
(1.41508 -0.0210254 -3.59897e-15)
(1.41657 -0.0181252 -3.34534e-15)
(1.41769 -0.0153978 -3.17872e-15)
(1.41848 -0.0128813 -3.00644e-15)
(1.419 -0.010603 -2.78246e-15)
(1.41931 -0.00857952 -2.56485e-15)
(1.41944 -0.00681607 -2.47989e-15)
(1.41945 -0.00530795 -2.23066e-15)
(1.41936 -0.00404221 -2.1617e-15)
(1.41921 -0.00299963 -1.90565e-15)
(1.41903 -0.00215697 -1.78294e-15)
(1.41882 -0.00148895 -1.48104e-15)
(1.41861 -0.000969915 -1.32659e-15)
(1.41841 -0.000575249 -1.21595e-15)
(1.41821 -0.000282247 -1.09546e-15)
(1.41803 -7.07344e-05 -7.30886e-16)
(1.41787 7.67184e-05 -6.58528e-16)
(1.41772 0.000174804 -5.32931e-16)
(1.41759 0.000235638 -5.48258e-16)
(1.41748 0.00026893 -4.16377e-16)
(1.41739 0.000282359 -2.78401e-16)
(1.4173 0.000281888 -1.07134e-16)
(1.41723 0.000272059 1.06234e-16)
(1.41717 0.000256273 1.67087e-16)
(1.41712 0.000237028 3.04457e-16)
(1.41707 0.000216121 2.80827e-16)
(1.41704 0.000194814 3.10033e-16)
(1.00028 -0.00579951 6.48829e-17)
(1.00283 -0.0174573 -2.68347e-16)
(1.00829 -0.0287994 -7.10287e-16)
(1.01647 -0.0394671 -1.44593e-15)
(1.02699 -0.0492043 -1.75131e-15)
(1.0395 -0.0578465 -2.21309e-15)
(1.05365 -0.0653056 -2.38872e-15)
(1.0691 -0.0715589 -3.17621e-15)
(1.08552 -0.0766357 -3.72573e-15)
(1.1026 -0.0806011 -3.39666e-15)
(1.12009 -0.0835422 -3.97259e-15)
(1.13773 -0.0855584 -3.84968e-15)
(1.15534 -0.086753 -3.76499e-15)
(1.17275 -0.0872287 -3.55244e-15)
(1.18982 -0.0870836 -4.26765e-15)
(1.20644 -0.0864097 -3.94123e-15)
(1.22252 -0.0852916 -3.7468e-15)
(1.238 -0.0838062 -4.2577e-15)
(1.25283 -0.0820226 -4.03482e-15)
(1.26699 -0.0800026 -3.75624e-15)
(1.28045 -0.0778004 -4.34238e-15)
(1.2932 -0.0754631 -4.08698e-15)
(1.30524 -0.0730306 -3.93075e-15)
(1.31658 -0.0705349 -3.83416e-15)
(1.32722 -0.0679999 -3.81888e-15)
(1.33717 -0.0654405 -3.79247e-15)
(1.34644 -0.062863 -3.80296e-15)
(1.35504 -0.0602644 -3.85263e-15)
(1.36297 -0.0576342 -3.55591e-15)
(1.37025 -0.0549555 -3.38268e-15)
(1.37687 -0.0522085 -3.32464e-15)
(1.38284 -0.049373 -3.32609e-15)
(1.38817 -0.0464332 -3.29761e-15)
(1.39286 -0.0433802 -3.27062e-15)
(1.39694 -0.0402157 -3.20316e-15)
(1.40041 -0.0369535 -3.12347e-15)
(1.40332 -0.0336201 -2.95016e-15)
(1.40568 -0.0302531 -2.82594e-15)
(1.40754 -0.0268994 -2.70668e-15)
(1.40895 -0.0236109 -2.45893e-15)
(1.40997 -0.0204408 -2.3325e-15)
(1.41064 -0.0174392 -2.19546e-15)
(1.41102 -0.0146494 -2.05772e-15)
(1.41117 -0.0121051 -1.78915e-15)
(1.41115 -0.00982883 -1.59398e-15)
(1.41099 -0.00783116 -1.2817e-15)
(1.41074 -0.00611154 -1.71522e-15)
(1.41043 -0.00465968 -1.3224e-15)
(1.41009 -0.00345755 -9.44978e-16)
(1.40974 -0.00248167 -7.03295e-16)
(1.4094 -0.00170536 -5.03208e-16)
(1.40908 -0.00110078 -2.84313e-16)
(1.40878 -0.00064053 7.07718e-19)
(1.40851 -0.000298931 1.83258e-16)
(1.40827 -5.2871e-05 3.1163e-16)
(1.40806 0.000117885 6.96254e-16)
(1.40788 0.00023054 7.39443e-16)
(1.40773 0.000299342 8.72199e-16)
(1.40759 0.000335781 9.40213e-16)
(1.40748 0.000348961 1.03879e-15)
(1.40738 0.000345961 1.10335e-15)
(1.4073 0.000332171 1.27312e-15)
(1.40724 0.000311616 1.3936e-15)
(1.40718 0.000287244 1.48502e-15)
(1.40713 0.000261161 1.58833e-15)
(1.4071 0.000234834 1.66475e-15)
(1.40706 0.000209249 1.63081e-15)
(1.00032 -0.00677727 3.2197e-17)
(1.00326 -0.0204229 -7.25711e-16)
(1.00957 -0.0336539 -1.50817e-15)
(1.019 -0.0460067 -2.18541e-15)
(1.03104 -0.0571711 -1.99255e-15)
(1.04526 -0.0669593 -2.66679e-15)
(1.06123 -0.0752826 -2.54902e-15)
(1.0785 -0.0821345 -2.58056e-15)
(1.09667 -0.0875697 -2.70124e-15)
(1.11538 -0.0916824 -2.63997e-15)
(1.1343 -0.0945905 -2.71049e-15)
(1.15317 -0.0964227 -3.41401e-15)
(1.17175 -0.0973107 -3.16845e-15)
(1.18987 -0.0973829 -2.94061e-15)
(1.20738 -0.0967611 -3.04528e-15)
(1.22418 -0.095558 -2.94364e-15)
(1.2402 -0.0938759 -2.83503e-15)
(1.25538 -0.0918068 -2.99396e-15)
(1.26971 -0.0894319 -2.98548e-15)
(1.28316 -0.0868224 -2.82095e-15)
(1.29575 -0.0840396 -3.05147e-15)
(1.30749 -0.0811353 -3.0527e-15)
(1.3184 -0.0781521 -3.00203e-15)
(1.32851 -0.0751234 -2.98674e-15)
(1.33783 -0.0720729 -3.01844e-15)
(1.3464 -0.069015 -2.97773e-15)
(1.35424 -0.0659545 -2.85979e-15)
(1.36137 -0.0628876 -2.80774e-15)
(1.3678 -0.0598029 -2.05495e-15)
(1.37356 -0.056684 -2.0547e-15)
(1.37867 -0.0535119 -2.06719e-15)
(1.38313 -0.0502695 -2.02407e-15)
(1.38697 -0.0469443 -2.05177e-15)
(1.3902 -0.0435324 -2.08191e-15)
(1.39286 -0.0400406 -1.92691e-15)
(1.39497 -0.0364883 -1.79251e-15)
(1.39658 -0.0329066 -1.58084e-15)
(1.39774 -0.0293371 -1.50264e-15)
(1.39849 -0.0258286 -1.3281e-15)
(1.39888 -0.0224333 -1.19832e-15)
(1.39899 -0.0192026 -1.12239e-15)
(1.39886 -0.016183 -8.98336e-16)
(1.39855 -0.0134125 -6.81607e-16)
(1.39812 -0.0109186 -5.27555e-16)
(1.3976 -0.00871658 -3.23149e-16)
(1.39704 -0.00681013 4.94665e-18)
(1.39646 -0.00519197 1.22163e-16)
(1.3959 -0.00384587 4.07122e-16)
(1.39536 -0.00274887 6.777e-16)
(1.39487 -0.00187367 8.43162e-16)
(1.39443 -0.00119086 1.03677e-15)
(1.39403 -0.000670915 1.18127e-15)
(1.39368 -0.000285496 1.38307e-15)
(1.39338 -8.92022e-06 1.63209e-15)
(1.39313 0.000181647 1.77904e-15)
(1.39291 0.000305795 2.07696e-15)
(1.39273 0.000379826 1.78718e-15)
(1.39258 0.000416966 2.04809e-15)
(1.39245 0.000427725 2.24853e-15)
(1.39234 0.000420279 2.37885e-15)
(1.39226 0.000400852 2.53234e-15)
(1.39219 0.000374079 2.5544e-15)
(1.39213 0.000343338 2.72785e-15)
(1.39208 0.000311025 2.8535e-15)
(1.39204 0.000278795 2.95596e-15)
(1.39201 0.000247739 3.02677e-15)
(1.39199 0.000218541 2.98948e-15)
(1.00037 -0.00795816 -1.93322e-17)
(1.00384 -0.024028 -3.62774e-16)
(1.0113 -0.0395305 -1.43663e-15)
(1.0224 -0.0538696 -1.80121e-15)
(1.03648 -0.0666721 -1.83847e-15)
(1.05295 -0.0777219 -2.09753e-15)
(1.07123 -0.0869333 -2.21619e-15)
(1.09077 -0.0943252 -2.13837e-15)
(1.11104 -0.0999892 -2.02934e-15)
(1.13158 -0.104062 -1.99058e-15)
(1.152 -0.106706 -1.87777e-15)
(1.172 -0.108095 -2.22801e-15)
(1.19132 -0.1084 -2.22624e-15)
(1.20978 -0.10779 -2.12007e-15)
(1.22725 -0.10642 -2.09888e-15)
(1.24365 -0.104432 -1.95069e-15)
(1.25896 -0.101951 -1.82917e-15)
(1.27314 -0.0990881 -2.32555e-15)
(1.28622 -0.0959393 -2.14967e-15)
(1.29823 -0.0925852 -1.85045e-15)
(1.30922 -0.0890938 -2.41397e-15)
(1.31922 -0.08552 -2.13602e-15)
(1.3283 -0.0819072 -1.88729e-15)
(1.33651 -0.0782878 -2.32878e-15)
(1.34389 -0.0746832 -2.03459e-15)
(1.35049 -0.0711044 -1.85867e-15)
(1.35636 -0.0675531 -1.69659e-15)
(1.36152 -0.0640224 -1.56254e-15)
(1.36602 -0.060499 -1.14071e-15)
(1.36988 -0.0569657 -8.29767e-16)
(1.37313 -0.0534046 -7.30144e-16)
(1.3758 -0.0498007 -6.57069e-16)
(1.37791 -0.0461453 -5.66951e-16)
(1.37949 -0.0424393 -5.41439e-16)
(1.3806 -0.0386945 -3.79936e-16)
(1.38126 -0.034935 -2.91689e-16)
(1.38153 -0.0311956 -2.34875e-16)
(1.38146 -0.0275199 -3.06407e-17)
(1.38111 -0.0239567 9.55079e-17)
(1.38055 -0.0205561 2.4696e-16)
(1.37981 -0.017365 4.28552e-16)
(1.37897 -0.0144238 5.87365e-16)
(1.37806 -0.0117629 7.98752e-16)
(1.37714 -0.00940156 1.01788e-15)
(1.37623 -0.00734698 1.17337e-15)
(1.37536 -0.00559497 1.36446e-15)
(1.37456 -0.00413148 2.11329e-15)
(1.37383 -0.0029347 2.10789e-15)
(1.37318 -0.00197748 2.31565e-15)
(1.37261 -0.00122965 2.46459e-15)
(1.37211 -0.000660217 2.55013e-15)
(1.37169 -0.000239053 2.76188e-15)
(1.37134 6.1672e-05 3.00026e-15)
(1.37104 0.000267014 3.15405e-15)
(1.3708 0.000398617 3.32793e-15)
(1.3706 0.000474597 3.57352e-15)
(1.37043 0.000509741 3.54232e-15)
(1.3703 0.00051585 3.56527e-15)
(1.37019 0.000502113 3.73381e-15)
(1.3701 0.000475523 3.90592e-15)
(1.37004 0.000441275 4.0791e-15)
(1.36998 0.000403135 4.12555e-15)
(1.36994 0.000363758 4.2131e-15)
(1.3699 0.00032495 4.32799e-15)
(1.36987 0.000287887 4.38287e-15)
(1.36985 0.00025328 4.36679e-15)
(1.36983 0.000221513 4.38549e-15)
(1.00043 -0.00940139 -6.67478e-18)
(1.00462 -0.0285252 -7.64017e-16)
(1.01371 -0.0468044 -1.51854e-15)
(1.02713 -0.0635197 -2.03899e-15)
(1.04397 -0.0782203 -1.71844e-15)
(1.06341 -0.0906441 -2.25672e-15)
(1.08465 -0.100712 -1.94556e-15)
(1.10691 -0.108485 -1.66149e-15)
(1.12952 -0.114111 -1.41828e-15)
(1.1519 -0.117798 -1.22557e-15)
(1.17358 -0.11978 -1.05613e-15)
(1.19423 -0.120302 -1.64129e-15)
(1.21361 -0.119603 -1.37113e-15)
(1.23159 -0.117907 -1.19298e-15)
(1.24808 -0.115419 -1.05624e-15)
(1.26307 -0.112317 -9.26351e-16)
(1.2766 -0.108756 -7.52806e-16)
(1.28872 -0.104866 -8.04786e-16)
(1.29952 -0.100758 -7.92094e-16)
(1.30908 -0.0965179 -6.77479e-16)
(1.3175 -0.0922167 -7.36387e-16)
(1.32487 -0.087908 -7.62038e-16)
(1.33129 -0.0836313 -5.95008e-16)
(1.33684 -0.0794133 -6.13748e-16)
(1.3416 -0.0752686 -4.61878e-16)
(1.34562 -0.0712016 -4.05245e-16)
(1.34898 -0.0672072 -1.89488e-16)
(1.35172 -0.0632731 -1.50561e-16)
(1.35389 -0.0593822 7.07733e-16)
(1.35552 -0.0555151 7.82221e-16)
(1.35666 -0.051654 8.6478e-16)
(1.35733 -0.0477855 8.79232e-16)
(1.35757 -0.0439045 1.08269e-15)
(1.35742 -0.0400158 1.13749e-15)
(1.35694 -0.0361354 1.30901e-15)
(1.35616 -0.0322908 1.37012e-15)
(1.35514 -0.0285187 1.46211e-15)
(1.35393 -0.0248624 1.59862e-15)
(1.3526 -0.0213682 1.74389e-15)
(1.3512 -0.0180812 1.8959e-15)
(1.34977 -0.0150415 2.07628e-15)
(1.34836 -0.012281 2.21017e-15)
(1.34701 -0.00982115 2.45059e-15)
(1.34574 -0.00767177 2.66722e-15)
(1.34458 -0.00583144 2.82227e-15)
(1.34354 -0.00428846 2.98905e-15)
(1.34262 -0.00302271 3.38398e-15)
(1.34182 -0.00200794 3.54632e-15)
(1.34114 -0.00121418 3.79612e-15)
(1.34057 -0.000609928 4.03451e-15)
(1.34009 -0.000164041 4.23193e-15)
(1.33969 0.000152775 4.39336e-15)
(1.33937 0.000366875 4.60659e-15)
(1.33912 0.000501514 4.79079e-15)
(1.33891 0.000576213 4.9813e-15)
(1.33875 0.000607007 5.2637e-15)
(1.33862 0.000606752 4.80171e-15)
(1.33852 0.000585482 5.07882e-15)
(1.33844 0.000550836 5.26332e-15)
(1.33838 0.000508478 5.45109e-15)
(1.33833 0.000462499 5.58959e-15)
(1.33829 0.000415762 5.65396e-15)
(1.33827 0.000370191 5.84803e-15)
(1.33825 0.000327017 5.89456e-15)
(1.33823 0.000286959 5.9376e-15)
(1.33822 0.000250379 5.97769e-15)
(1.33821 0.000217387 5.97015e-15)
(1.00048 -0.0111487 -1.88738e-18)
(1.00572 -0.0342649 -6.41205e-16)
(1.01725 -0.0560055 -1.04354e-15)
(1.03396 -0.0756283 -1.41293e-15)
(1.05459 -0.0925353 -9.92156e-16)
(1.07792 -0.106384 -1.35526e-15)
(1.10277 -0.11712 -9.81843e-16)
(1.12806 -0.124884 -7.42273e-16)
(1.15288 -0.129937 -5.95414e-16)
(1.17656 -0.132614 -3.33246e-16)
(1.19862 -0.133278 -1.25577e-16)
(1.21876 -0.132292 -5.96287e-16)
(1.23684 -0.129994 -3.18319e-16)
(1.25284 -0.12669 -5.31276e-17)
(1.26681 -0.122641 6.11886e-17)
(1.27885 -0.11807 1.66718e-16)
(1.28912 -0.113156 3.28708e-16)
(1.29777 -0.108044 3.16752e-16)
(1.30498 -0.102848 3.80696e-16)
(1.31089 -0.0976528 5.7795e-16)
(1.31568 -0.0925218 4.98935e-16)
(1.31947 -0.0874986 6.27381e-16)
(1.3224 -0.0826109 7.16517e-16)
(1.32458 -0.0778725 8.3885e-16)
(1.3261 -0.0732857 1.06667e-15)
(1.32704 -0.0688431 1.18459e-15)
(1.32748 -0.0645295 1.40967e-15)
)
;

boundaryField
{
    inlet
    {
        type            uniformFixedValue;
        uniformValue    constant (1 0 0);
        value           uniform (1 0 0);
    }
    outlet
    {
        type            pressureInletOutletVelocity;
        value           nonuniform 0();
    }
    wall
    {
        type            fixedValue;
        value           nonuniform 0();
    }
    wedge1
    {
        type            wedge;
    }
    wedge2
    {
        type            wedge;
    }
    axis
    {
        type            empty;
    }
    procBoundary12to6
    {
        type            processor;
        value           nonuniform List<vector> 
68
(
(1.22329 -0.0664507 -4.60251e-15)
(1.23761 -0.0652202 -4.60084e-15)
(1.25148 -0.0638282 -4.80677e-15)
(1.26488 -0.0623132 -4.8485e-15)
(1.27779 -0.0607089 -4.8036e-15)
(1.2902 -0.0590431 -4.87796e-15)
(1.30209 -0.057337 -4.99942e-15)
(1.31346 -0.0556046 -5.04346e-15)
(1.3243 -0.0538514 -5.07095e-15)
(1.3346 -0.0520746 -5.31743e-15)
(1.34437 -0.0502633 -4.56416e-15)
(1.35358 -0.0484 -4.72583e-15)
(1.36224 -0.0464625 -4.91205e-15)
(1.37033 -0.0444271 -5.06416e-15)
(1.37783 -0.0422722 -5.25741e-15)
(1.38474 -0.0399817 -5.22843e-15)
(1.39105 -0.0375481 -5.2894e-15)
(1.39674 -0.0349751 -5.13779e-15)
(1.40183 -0.0322787 -5.18405e-15)
(1.4063 -0.0294869 -5.23752e-15)
(1.41018 -0.0266381 -5.00563e-15)
(1.4135 -0.0237782 -4.92578e-15)
(1.41628 -0.0209573 -4.78501e-15)
(1.41856 -0.0182255 -4.59904e-15)
(1.42039 -0.0156296 -4.39435e-15)
(1.42182 -0.0132092 -4.14124e-15)
(1.42291 -0.0109951 -3.90235e-15)
(1.4237 -0.00900783 -3.79875e-15)
(1.42425 -0.00725722 -3.5116e-15)
(1.42461 -0.00574341 -3.35417e-15)
(1.42481 -0.00445808 -3.22405e-15)
(1.42489 -0.00338631 -3.08369e-15)
(1.4249 -0.00250858 -3.0224e-15)
(1.42484 -0.00180265 -2.78321e-15)
(1.42474 -0.00124527 -2.74771e-15)
(1.42463 -0.000813559 -2.49705e-15)
(1.4245 -0.000485989 -2.42291e-15)
(1.42436 -0.000243061 -1.99108e-15)
(1.42424 -6.76636e-05 -2.66843e-15)
(1.42411 5.48032e-05 -2.25719e-15)
(1.424 0.000136565 -2.05049e-15)
(1.4239 0.000187631 -1.85223e-15)
(1.42381 0.000215995 -1.72346e-15)
(1.42373 0.000227957 -1.54966e-15)
(1.42365 0.000228401 -1.38694e-15)
(1.42359 0.000221052 -1.19908e-15)
(1.42354 0.000208699 -1.05451e-15)
(1.42349 0.000193398 -1.09209e-15)
(1.42345 0.000176634 -1.02321e-15)
(1.00025 -0.00497312 7.00056e-18)
(1.0025 -0.0149594 -2.58695e-16)
(1.00732 -0.0247002 -7.45946e-16)
(1.01455 -0.0339155 -2.1186e-15)
(1.0239 -0.0423954 -2.19776e-15)
(1.03508 -0.0499971 -2.54596e-15)
(1.04781 -0.0566363 -2.77523e-15)
(1.06181 -0.0622807 -3.048e-15)
(1.0768 -0.0669418 -3.37725e-15)
(1.09252 -0.0706626 -3.4804e-15)
(1.10873 -0.0735077 -3.68356e-15)
(1.12525 -0.075554 -4.03835e-15)
(1.14188 -0.0768842 -4.05914e-15)
(1.15847 -0.0775819 -4.13859e-15)
(1.1749 -0.0777283 -4.27813e-15)
(1.19106 -0.0774002 -4.27165e-15)
(1.20686 -0.0766691 -4.226e-15)
(1.22224 -0.0756006 -4.33526e-15)
(1.22224 -0.0756006 -4.33526e-15)
)
;
    }
    procBoundary12to7
    {
        type            processor;
        value           uniform (1.417 0.000173964 2.28347e-16);
    }
    procBoundary12to13
    {
        type            processor;
        value           nonuniform List<vector> 4((1.40704 0.000185036 1.51684e-15) (1.39197 0.000191587 2.89604e-15) (1.36982 0.000192734 4.32398e-15) (1.33821 0.000187925 6.02891e-15));
    }
    procBoundary12to18
    {
        type            processor;
        value           nonuniform List<vector> 
68
(
(1.32747 -0.0603244 1.57058e-15)
(1.32706 -0.0562046 2.32377e-15)
(1.32629 -0.0521477 2.36528e-15)
(1.3252 -0.0481348 2.44108e-15)
(1.32383 -0.0441539 2.60776e-15)
(1.32221 -0.0402021 2.7227e-15)
(1.3204 -0.0362875 2.8932e-15)
(1.31843 -0.032429 3.02109e-15)
(1.31635 -0.0286552 3.20712e-15)
(1.31421 -0.0250027 3.30016e-15)
(1.31207 -0.0215118 3.43318e-15)
(1.30996 -0.0182238 3.56278e-15)
(1.30793 -0.0151764 3.81158e-15)
(1.30602 -0.0124009 3.97975e-15)
(1.30426 -0.00991919 4.08483e-15)
(1.30265 -0.00774296 4.26564e-15)
(1.30122 -0.00587288 4.39738e-15)
(1.29997 -0.00429955 4.62924e-15)
(1.2989 -0.00300498 4.87097e-15)
(1.29798 -0.00196461 4.99985e-15)
(1.29722 -0.00114962 5.18437e-15)
(1.29659 -0.000529101 5.40098e-15)
(1.29609 -7.20604e-05 5.6673e-15)
(1.29568 0.000251119 5.92809e-15)
(1.29536 0.000467486 6.14575e-15)
(1.29511 0.000600966 6.40401e-15)
(1.29491 0.000671817 6.56545e-15)
(1.29476 0.000696861 6.79093e-15)
(1.29465 0.000689643 7.07096e-15)
(1.29457 0.000660768 6.61612e-15)
(1.29451 0.000618325 6.84591e-15)
(1.29447 0.000568316 7.08479e-15)
(1.29444 0.000515061 7.2412e-15)
(1.29442 0.000461571 7.28288e-15)
(1.2944 0.000409852 7.43531e-15)
(1.2944 0.000361161 7.55847e-15)
(1.29439 0.000316215 7.61932e-15)
(1.29439 0.000275345 7.73919e-15)
(1.29439 0.000238616 7.74341e-15)
(1.29439 0.000205923 7.74662e-15)
(1.00047 -0.0127248 1.20563e-17)
(1.00683 -0.0393682 -1.51025e-16)
(1.02091 -0.064223 -7.3332e-17)
(1.0408 -0.0862902 -2.63048e-16)
(1.06489 -0.104781 -2.68697e-17)
(1.09148 -0.119337 -2.73525e-16)
(1.11896 -0.130002 2.78969e-17)
(1.14601 -0.137065 1.02348e-16)
(1.17162 -0.140965 1.35618e-16)
(1.19512 -0.142205 4.64727e-16)
(1.21611 -0.141296 5.39451e-16)
(1.23444 -0.138714 3.14962e-16)
(1.25013 -0.134882 5.41173e-16)
(1.26329 -0.130156 9.07128e-16)
(1.27413 -0.124831 6.29014e-16)
(1.28288 -0.11914 8.79674e-16)
(1.28977 -0.113265 1.19602e-15)
(1.29506 -0.107344 8.10461e-16)
(1.29895 -0.101478 1.13054e-15)
(1.30167 -0.0957375 1.48618e-15)
(1.30339 -0.0901706 1.12122e-15)
(1.30428 -0.0848056 1.42967e-15)
(1.30446 -0.0796556 1.68539e-15)
(1.30407 -0.074721 1.92878e-15)
(1.3032 -0.0699924 2.17925e-15)
(1.30192 -0.065452 2.41488e-15)
(1.32747 -0.0603244 1.57058e-15)
(1.30031 -0.0610763 2.642e-15)
)
;
    }
}


// ************************************************************************* //
