/*--------------------------------*- C++ -*----------------------------------*\
  =========                 |
  \\      /  F ield         | OpenFOAM: The Open Source CFD Toolbox
   \\    /   O peration     | Website:  https://openfoam.org
    \\  /    A nd           | Version:  7
     \\/     M anipulation  |
\*---------------------------------------------------------------------------*/
FoamFile
{
    version     2.0;
    format      ascii;
    class       volVectorField;
    location    "7.2";
    object      U;
}
// * * * * * * * * * * * * * * * * * * * * * * * * * * * * * * * * * * * * * //

dimensions      [0 1 -1 0 0 0 0];

internalField   nonuniform List<vector> 
344
(
(1.06578 0.0291129 -2.85582e-16)
(1.06686 0.0286357 -2.72956e-16)
(1.06795 0.0281684 -2.62111e-16)
(1.06903 0.0277109 -2.52547e-16)
(1.07012 0.0272628 -2.46124e-16)
(1.0712 0.026824 -2.08925e-16)
(1.07229 0.0263943 -2.02824e-16)
(1.07337 0.0259734 -1.93518e-16)
(1.07446 0.0255611 -1.821e-16)
(1.07554 0.0251573 -1.72839e-16)
(1.07662 0.0247617 -1.62394e-16)
(1.07771 0.0243742 -1.52057e-16)
(1.07878 0.0239946 -1.47605e-16)
(1.07986 0.0236226 -1.39356e-16)
(1.08094 0.0232582 -1.00611e-16)
(1.08201 0.0229011 -9.77167e-17)
(1.08308 0.0225512 -8.92127e-17)
(1.08414 0.0222082 -8.35983e-17)
(1.08521 0.0218721 -4.5229e-17)
(1.08626 0.0215427 -4.2596e-17)
(1.08732 0.0212198 -3.94841e-17)
(1.08837 0.0209032 -3.6666e-17)
(1.08942 0.0205928 2.40336e-19)
(1.09046 0.0202885 -1.38309e-18)
(1.0915 0.0199901 1.77895e-18)
(1.09254 0.0196975 6.65148e-18)
(1.09357 0.0194105 1.37546e-17)
(1.09459 0.019129 2.19236e-17)
(1.09562 0.0188529 2.89199e-17)
(1.09663 0.0185821 2.92392e-17)
(1.09764 0.0183163 6.387e-17)
(1.09865 0.0180556 6.43925e-17)
(1.09965 0.0177998 6.94161e-17)
(1.10064 0.0175487 7.77946e-17)
(1.10163 0.0173023 8.52807e-17)
(1.10262 0.0170604 8.85806e-17)
(1.1036 0.016823 9.25323e-17)
(1.10457 0.0165899 9.83301e-17)
(1.10553 0.016361 1.00933e-16)
(1.1065 0.0161363 1.36164e-16)
(1.10745 0.0159156 1.35926e-16)
(1.1084 0.0156988 1.41058e-16)
(1.10934 0.015486 1.42079e-16)
(1.11028 0.0152768 1.70772e-16)
(1.11121 0.0150714 1.66678e-16)
(0.916847 0.0404623 -6.57193e-16)
(0.918826 0.0397275 -6.3665e-16)
(0.920794 0.0390072 -6.24551e-16)
(0.922752 0.0383013 -6.02785e-16)
(0.924699 0.0376096 -5.87348e-16)
(0.926636 0.036932 -5.72756e-16)
(0.928562 0.0362682 -5.51969e-16)
(0.930477 0.0356181 -5.40828e-16)
(0.932382 0.0349815 -5.20656e-16)
(0.934276 0.0343581 -5.12101e-16)
(0.936158 0.0337478 -4.92775e-16)
(0.93803 0.0331503 -4.83751e-16)
(0.93989 0.0325654 -4.61031e-16)
(0.941739 0.0319928 -4.4641e-16)
(0.943576 0.0314324 -4.2692e-16)
(0.945401 0.0308839 -4.21971e-16)
(0.947215 0.0303471 -3.98052e-16)
(0.949017 0.0298217 -3.83849e-16)
(0.950807 0.0293075 -3.63469e-16)
(0.952585 0.0288042 -3.56247e-16)
(0.954351 0.0283117 -3.3595e-16)
(0.956105 0.0278296 -3.26885e-16)
(0.957847 0.0273579 -3.07908e-16)
(0.959576 0.0268962 -3.0173e-16)
(0.961293 0.0264443 -2.8476e-16)
(0.962997 0.026002 -2.80291e-16)
(0.964689 0.0255691 -2.6731e-16)
(0.966368 0.0251454 -2.61047e-16)
(0.968035 0.0247306 -2.44007e-16)
(0.969689 0.0243246 -2.29761e-16)
(0.971331 0.0239272 -2.20462e-16)
(0.97296 0.0235381 -2.02129e-16)
(0.974576 0.0231572 -1.99142e-16)
(0.976179 0.0227842 -1.83859e-16)
(0.97777 0.022419 -1.76661e-16)
(0.979348 0.0220614 -1.63673e-16)
(0.980914 0.0217113 -1.61175e-16)
(0.982467 0.0213683 -1.41776e-16)
(0.984007 0.0210325 -1.33613e-16)
(0.985535 0.0207035 -1.16359e-16)
(0.98705 0.0203813 -1.15504e-16)
(0.988552 0.0200656 -9.62597e-17)
(0.990042 0.0197564 -8.4892e-17)
(0.99152 0.0194534 -7.11254e-17)
(0.992985 0.0191565 -7.04388e-17)
(0.994437 0.0188656 -5.13661e-17)
(0.995878 0.0185804 -4.30869e-17)
(0.997305 0.018301 -3.25822e-17)
(0.998721 0.0180271 -3.08487e-17)
(1.00012 0.0177586 -1.67351e-17)
(1.00152 0.0174954 -1.37682e-17)
(1.00289 0.0172374 -3.99347e-18)
(1.00426 0.0169843 -6.24231e-18)
(1.00562 0.0167362 1.22223e-17)
(1.00696 0.0164928 1.70084e-17)
(1.00829 0.0162542 2.8386e-17)
(1.00961 0.01602 3.92466e-17)
(1.01092 0.0157904 4.23562e-17)
(1.01221 0.015565 5.425e-17)
(1.0135 0.0153439 5.31755e-17)
(1.01477 0.015127 6.3798e-17)
(1.01603 0.0149141 6.25068e-17)
(1.01728 0.0147051 8.00823e-17)
(1.01852 0.0145 8.81619e-17)
(1.01975 0.0142986 9.62842e-17)
(1.02096 0.0141009 9.80082e-17)
(1.02217 0.0139067 1.12251e-16)
(1.02336 0.0137161 1.17034e-16)
(0.853758 0.0388371 -6.4671e-16)
(0.856255 0.0381234 -6.3249e-16)
(0.858731 0.0374238 -6.16353e-16)
(0.861184 0.0367383 -5.96883e-16)
(0.863616 0.0360666 -5.80977e-16)
(0.866025 0.0354087 -5.66218e-16)
(0.868414 0.0347644 -5.5248e-16)
(0.870781 0.0341335 -5.36182e-16)
(0.873126 0.0335157 -5.2406e-16)
(0.87545 0.032911 -5.08491e-16)
(0.877754 0.032319 -4.97413e-16)
(0.880036 0.0317395 -4.81205e-16)
(0.882298 0.0311724 -4.61985e-16)
(0.884539 0.0306174 -4.48453e-16)
(0.88676 0.0300743 -4.3798e-16)
(0.88896 0.0295428 -4.22093e-16)
(0.89114 0.0290228 -4.03697e-16)
(0.893299 0.0285139 -3.89291e-16)
(0.895438 0.028016 -3.78632e-16)
(0.897558 0.0275288 -3.62005e-16)
(0.899657 0.0270521 -3.46077e-16)
(0.901737 0.0265857 -3.35578e-16)
(0.903797 0.0261294 -3.25315e-16)
(0.905838 0.0256828 -3.08425e-16)
(0.907859 0.0252459 -3.03889e-16)
(0.90986 0.0248184 -2.88121e-16)
(0.911843 0.0244 -2.83249e-16)
(0.913806 0.0239906 -2.70089e-16)
(0.915751 0.02359 -2.56702e-16)
(0.917677 0.0231979 -2.42311e-16)
(0.919584 0.0228142 -2.33214e-16)
(0.921473 0.0224387 -2.25424e-16)
(0.923343 0.0220711 -2.10785e-16)
(0.925195 0.0217113 -2.03979e-16)
(0.927028 0.0213591 -1.87971e-16)
(0.928844 0.0210143 -1.86409e-16)
(0.930642 0.0206767 -1.73599e-16)
(0.932423 0.0203462 -1.5805e-16)
(0.934185 0.0200226 -1.4787e-16)
(0.935931 0.0197057 -1.42653e-16)
(0.937659 0.0193954 -1.29023e-16)
(0.939369 0.0190914 -1.16683e-16)
(0.941063 0.0187937 -1.05748e-16)
(0.94274 0.0185022 -9.96721e-17)
(0.944401 0.0182165 -8.81858e-17)
(0.946045 0.0179367 -7.2644e-17)
(0.947672 0.0176625 -6.22464e-17)
(0.949283 0.0173939 -6.25208e-17)
(0.950878 0.0171306 -5.17735e-17)
(0.952457 0.0168726 -4.43243e-17)
(0.954021 0.0166198 -3.22261e-17)
(0.955568 0.0163719 -3.2063e-17)
(0.9571 0.0161289 -2.41693e-17)
(0.958617 0.0158907 -1.10083e-17)
(0.960119 0.0156571 -2.85855e-18)
(0.961605 0.0154281 5.88564e-18)
(0.963077 0.0152035 1.12885e-17)
(0.964533 0.0149832 2.12163e-17)
(0.965975 0.0147672 2.233e-17)
(0.967403 0.0145552 3.38478e-17)
(0.968816 0.0143473 3.45264e-17)
(0.970215 0.0141432 4.33007e-17)
(0.9716 0.013943 5.64063e-17)
(0.972971 0.0137465 6.2169e-17)
(0.974328 0.0135537 6.29903e-17)
(0.975671 0.0133644 7.42369e-17)
(0.977001 0.0131786 8.49633e-17)
(0.978318 0.0129962 9.08401e-17)
(0.795499 0.0363979 -6.17491e-16)
(0.798447 0.0357223 -6.03991e-16)
(0.801362 0.0350603 -5.87685e-16)
(0.804243 0.0344119 -5.71819e-16)
(0.807093 0.0337768 -5.57856e-16)
(0.80991 0.0331549 -5.4137e-16)
(0.812696 0.0325461 -5.28333e-16)
(0.81545 0.03195 -5.14407e-16)
(0.818174 0.0313666 -5.01833e-16)
(0.820867 0.0307956 -4.88528e-16)
(0.82353 0.0302369 -4.76191e-16)
(0.826163 0.0296901 -4.59297e-16)
(0.828767 0.0291551 -4.48818e-16)
(0.831341 0.0286317 -4.35056e-16)
(0.833887 0.0281196 -4.22375e-16)
(0.836404 0.0276187 -4.06851e-16)
(0.838893 0.0271286 -3.89924e-16)
(0.841354 0.0266492 -3.78466e-16)
(0.843788 0.0261802 -3.64754e-16)
(0.846194 0.0257214 -3.53025e-16)
(0.848573 0.0252726 -3.41263e-16)
(0.850925 0.0248336 -3.26878e-16)
(0.853251 0.0244041 -3.15015e-16)
(0.855551 0.023984 -3.05221e-16)
(0.857825 0.023573 -2.93566e-16)
(0.860074 0.023171 -2.84867e-16)
(0.862298 0.0227776 -2.75799e-16)
(0.864496 0.0223927 -2.6395e-16)
(0.86667 0.0220162 -2.53233e-16)
(0.868819 0.0216478 -2.41901e-16)
(0.870945 0.0212872 -2.29637e-16)
(0.873046 0.0209345 -2.1863e-16)
(0.875124 0.0205892 -2.09684e-16)
(0.877179 0.0202514 -1.99446e-16)
(0.879211 0.0199207 -1.90344e-16)
(0.88122 0.0195971 -1.81762e-16)
(0.883207 0.0192802 -1.72044e-16)
(0.885171 0.0189701 -1.62846e-16)
(0.887114 0.0186665 -1.50589e-16)
(0.889035 0.0183692 -1.40632e-16)
(0.890934 0.0180782 -1.31453e-16)
(0.892812 0.0177932 -1.23195e-16)
(0.89467 0.0175141 -1.11795e-16)
(0.896507 0.0172407 -1.01662e-16)
(0.898323 0.016973 -9.18501e-17)
(0.900119 0.0167107 -8.05474e-17)
(0.901896 0.0164538 -7.50052e-17)
(0.903652 0.0162021 -6.81564e-17)
(0.90539 0.0159555 -5.96313e-17)
(0.907108 0.0157138 -4.86672e-17)
(0.908807 0.015477 -4.30754e-17)
(0.910487 0.0152449 -3.96874e-17)
(0.912149 0.0150174 -3.29457e-17)
(0.913793 0.0147944 -2.14577e-17)
(0.915419 0.0145758 -1.11806e-17)
(0.917026 0.0143614 -3.88675e-18)
(0.918616 0.0141513 4.06657e-18)
(0.920189 0.0139451 7.65366e-18)
(0.921745 0.013743 1.62942e-17)
(0.923283 0.0135447 2.00395e-17)
(0.924805 0.0133502 2.55655e-17)
(0.92631 0.0131594 3.42403e-17)
(0.927799 0.0129722 4.08624e-17)
(0.929271 0.0127885 4.47819e-17)
(0.930728 0.0126082 5.22932e-17)
(0.932169 0.0124312 6.16679e-17)
(0.933594 0.0122575 6.81433e-17)
(0.736673 0.0345627 -6.00339e-16)
(0.740054 0.0339141 -5.89377e-16)
(0.743392 0.0332787 -5.77258e-16)
(0.746686 0.0326564 -5.60627e-16)
(0.749938 0.0320469 -5.46245e-16)
(0.753149 0.0314503 -5.28904e-16)
(0.756318 0.0308662 -5.18556e-16)
(0.759446 0.0302945 -5.02676e-16)
(0.762534 0.029735 -4.92462e-16)
(0.765583 0.0291876 -4.76928e-16)
(0.768593 0.0286519 -4.69105e-16)
(0.771565 0.0281279 -4.57426e-16)
(0.774499 0.0276153 -4.44976e-16)
(0.777395 0.0271138 -4.27939e-16)
(0.780255 0.0266233 -4.1695e-16)
(0.783079 0.0261436 -4.05869e-16)
(0.785866 0.0256743 -3.90522e-16)
(0.788619 0.0252154 -3.75198e-16)
(0.791337 0.0247666 -3.65853e-16)
(0.794021 0.0243276 -3.56889e-16)
(0.796671 0.0238983 -3.43999e-16)
(0.799288 0.0234784 -3.27268e-16)
(0.801872 0.0230678 -3.18858e-16)
(0.804423 0.0226662 -3.04902e-16)
(0.806943 0.0222734 -2.96427e-16)
(0.809431 0.0218892 -2.84599e-16)
(0.811889 0.0215134 -2.8057e-16)
(0.814316 0.0211459 -2.72161e-16)
(0.816712 0.0207863 -2.60534e-16)
(0.819079 0.0204346 -2.4844e-16)
(0.821417 0.0200905 -2.31103e-16)
(0.823726 0.0197539 -2.25534e-16)
(0.826007 0.0194246 -2.14154e-16)
(0.828259 0.0191023 -2.06395e-16)
(0.830484 0.018787 -1.95535e-16)
(0.832682 0.0184785 -1.90713e-16)
(0.834853 0.0181765 -1.82163e-16)
(0.836997 0.017881 -1.72429e-16)
(0.839116 0.0175917 -1.57796e-16)
(0.841208 0.0173086 -1.51358e-16)
(0.843275 0.0170314 -1.46548e-16)
(0.845318 0.0167601 -1.37099e-16)
(0.847335 0.0164945 -1.23232e-16)
(0.849329 0.0162343 -1.15426e-16)
(0.851298 0.0159796 -1.10921e-16)
(0.853244 0.0157302 -9.69577e-17)
(0.855166 0.0154859 -8.4641e-17)
(0.857066 0.0152465 -8.34106e-17)
(0.858943 0.0150121 -7.10351e-17)
(0.860798 0.0147825 -6.3871e-17)
(0.86263 0.0145575 -5.3775e-17)
(0.864441 0.014337 -5.29222e-17)
(0.866231 0.0141209 -5.0489e-17)
(0.868 0.0139092 -3.9209e-17)
(0.869748 0.0137016 -2.80296e-17)
(0.871475 0.0134982 -1.62524e-17)
(0.873182 0.0132987 -1.27629e-17)
(0.874869 0.0131032 -3.74712e-18)
(0.876537 0.0129115 -6.58104e-19)
(0.878185 0.0127234 7.85409e-18)
(0.879814 0.012539 1.05808e-17)
(0.881424 0.0123581 1.52419e-17)
(0.883016 0.0121807 1.95247e-17)
(0.884589 0.0120066 2.86464e-17)
(0.886145 0.0118358 3.30167e-17)
(0.887682 0.0116682 3.838e-17)
(0.889202 0.0115038 4.75659e-17)
(0.679873 0.0326324 -5.88631e-16)
(0.683646 0.0320136 -5.73022e-16)
(0.687366 0.0314075 -5.63915e-16)
(0.691032 0.0308139 -5.47216e-16)
(0.694647 0.0302327 -5.32222e-16)
(0.698211 0.0296638 -5.23864e-16)
(0.701725 0.0291069 -5.06919e-16)
(0.705189 0.028562 -4.98803e-16)
(0.708605 0.0280288 -4.83021e-16)
(0.711973 0.0275072 -4.7478e-16)
(0.715294 0.0269969 -4.59156e-16)
(0.718569 0.0264977 -4.54032e-16)
(0.721798 0.0260095 -4.38818e-16)
(0.724982 0.0255321 -4.31141e-16)
(0.728123 0.0250652 -4.11974e-16)
(0.73122 0.0246086 -4.04545e-16)
(0.734274 0.0241621 -3.87042e-16)
(0.737286 0.0237255 -3.82765e-16)
(0.740258 0.0232986 -3.66366e-16)
(0.743188 0.0228811 -3.60688e-16)
(0.746079 0.022473 -3.44045e-16)
(0.74893 0.0220739 -3.36478e-16)
(0.751742 0.0216836 -3.19444e-16)
(0.754517 0.0213021 -3.15375e-16)
(0.757254 0.0209289 -2.98925e-16)
(0.759954 0.0205641 -2.97474e-16)
(0.762618 0.0202073 -2.82498e-16)
(0.765246 0.0198583 -2.79129e-16)
(0.767839 0.0195171 -2.66103e-16)
)
;

boundaryField
{
    inlet
    {
        type            uniformFixedValue;
        uniformValue    constant (1 0 0);
        value           nonuniform 0();
    }
    outlet
    {
        type            pressureInletOutletVelocity;
        value           nonuniform 0();
    }
    wall
    {
        type            fixedValue;
        value           nonuniform 0();
    }
    wedge1
    {
        type            wedge;
    }
    wedge2
    {
        type            wedge;
    }
    axis
    {
        type            empty;
    }
    procBoundary22to16
    {
        type            processor;
        value           nonuniform List<vector> 
69
(
(1.23272 0.0317116 -2.40375e-16)
(1.2327 0.0312147 -2.31247e-16)
(1.2327 0.0307278 -2.19331e-16)
(1.23272 0.0302505 -2.12658e-16)
(1.23276 0.0297827 -2.03369e-16)
(1.23282 0.0293242 -1.6056e-16)
(1.2329 0.0288748 -1.55119e-16)
(1.23301 0.0284342 -1.41153e-16)
(1.23313 0.0280023 -1.29622e-16)
(1.23327 0.0275789 -1.14397e-16)
(1.23342 0.0271638 -1.10961e-16)
(1.2336 0.0267567 -9.95098e-17)
(1.23379 0.0263576 -9.5563e-17)
(1.23399 0.0259663 -9.11557e-17)
(1.23421 0.0255825 -4.63299e-17)
(1.23444 0.0252061 -3.97242e-17)
(1.23469 0.0248369 -3.35291e-17)
(1.23494 0.0244748 -2.13636e-17)
(1.23521 0.0241196 1.44311e-17)
(1.2355 0.0237712 2.20253e-17)
(1.23579 0.0234293 2.17742e-17)
(1.23609 0.0230939 2.37998e-17)
(1.23641 0.0227647 6.44139e-17)
(1.23673 0.0224418 6.24993e-17)
(1.23706 0.0221248 6.96229e-17)
(1.2374 0.0218137 7.57666e-17)
(1.23775 0.0215083 7.92255e-17)
(1.23811 0.0212085 8.95625e-17)
(1.23847 0.0209142 9.2913e-17)
(1.23884 0.0206253 9.47641e-17)
(1.23922 0.0203415 1.35182e-16)
(1.2396 0.0200629 1.39205e-16)
(1.23999 0.0197893 1.44186e-16)
(1.24039 0.0195206 1.52193e-16)
(1.24079 0.0192566 1.59233e-16)
(1.24119 0.0189973 1.60303e-16)
(1.2416 0.0187425 1.67516e-16)
(1.24202 0.0184922 1.6836e-16)
(1.24244 0.0182462 1.71551e-16)
(1.24286 0.0180044 2.07522e-16)
(1.24328 0.0177669 2.10697e-16)
(1.24371 0.0175334 2.19964e-16)
(1.24415 0.0173038 2.21057e-16)
(1.24458 0.0170781 2.5067e-16)
(1.24502 0.0168562 2.46757e-16)
(1.04238 0.0433574 -6.73492e-16)
(1.04329 0.0425886 -6.55265e-16)
(1.04422 0.0418347 -6.37594e-16)
(1.04516 0.0410958 -6.04041e-16)
(1.04611 0.0403715 -5.92757e-16)
(1.04707 0.0396617 -5.79708e-16)
(1.04805 0.0389662 -5.61629e-16)
(1.04903 0.0382848 -5.45565e-16)
(1.05003 0.0376173 -5.30264e-16)
(1.05103 0.0369635 -5.15699e-16)
(1.05204 0.0363231 -4.98005e-16)
(1.05307 0.0356959 -4.85808e-16)
(1.0541 0.0350817 -4.47141e-16)
(1.05513 0.0344802 -4.35946e-16)
(1.05618 0.0338912 -4.25534e-16)
(1.05723 0.0333144 -4.16668e-16)
(1.05828 0.0327497 -3.74903e-16)
(1.05934 0.0321967 -3.68231e-16)
(1.06041 0.0316553 -3.56521e-16)
(1.06147 0.0311251 -3.44631e-16)
(1.06255 0.0306061 -3.08395e-16)
(1.06362 0.0300978 -3.04252e-16)
(1.0647 0.0296002 -2.93721e-16)
(1.0647 0.0296002 -2.93721e-16)
)
;
    }
    procBoundary22to17
    {
        type            processor;
        value           uniform (1.11214 0.0148695 1.6996e-16);
    }
    procBoundary22to21
    {
        type            processor;
        value           nonuniform List<vector> 5((0.914858 0.0412117 -6.72456e-16) (0.851238 0.0395652 -6.65409e-16) (0.792518 0.0370873 -6.32848e-16) (0.792518 0.0370873 -6.32848e-16) (0.733247 0.0352246 -6.15959e-16));
    }
    procBoundary22to23
    {
        type            processor;
        value           nonuniform List<vector> 4((1.02455 0.0135289 1.26962e-16) (0.979621 0.0128171 9.32049e-17) (0.935004 0.012087 7.4687e-17) (0.890704 0.0113423 5.70521e-17));
    }
    procBoundary22to27
    {
        type            processor;
        value           uniform (0.676045 0.0332639 -5.98061e-16);
    }
    procBoundary22to28
    {
        type            processor;
        value           nonuniform List<vector> 
68
(
(0.770398 0.0191834 -2.5095e-16)
(0.772923 0.018857 -2.45185e-16)
(0.775414 0.0185377 -2.30522e-16)
(0.777872 0.0182254 -2.28633e-16)
(0.780298 0.0179199 -2.12156e-16)
(0.782692 0.0176211 -2.11144e-16)
(0.785055 0.0173287 -1.97009e-16)
(0.787386 0.0170426 -1.9194e-16)
(0.789688 0.0167627 -1.79675e-16)
(0.791959 0.0164888 -1.77114e-16)
(0.794202 0.0162207 -1.6124e-16)
(0.796415 0.0159583 -1.60491e-16)
(0.798599 0.0157016 -1.47446e-16)
(0.800756 0.0154502 -1.45071e-16)
(0.802885 0.0152041 -1.27119e-16)
(0.804987 0.0149632 -1.25351e-16)
(0.807063 0.0147274 -1.10208e-16)
(0.809112 0.0144964 -1.07571e-16)
(0.811135 0.0142702 -9.6779e-17)
(0.813132 0.0140487 -9.40048e-17)
(0.815105 0.0138317 -7.8622e-17)
(0.817052 0.0136192 -7.91724e-17)
(0.818976 0.013411 -6.7143e-17)
(0.820875 0.013207 -6.66326e-17)
(0.822751 0.0130071 -5.4062e-17)
(0.824604 0.0128112 -4.12132e-17)
(0.826434 0.0126192 -4.19765e-17)
(0.828241 0.0124311 -2.84255e-17)
(0.830026 0.0122466 -2.88874e-17)
(0.83179 0.0120658 -1.57455e-17)
(0.833531 0.0118885 -1.5947e-17)
(0.835252 0.0117147 -4.14019e-18)
(0.836952 0.0115442 -4.56262e-18)
(0.838631 0.011377 3.21719e-18)
(0.84029 0.011213 2.58948e-18)
(0.841928 0.0110521 1.57083e-17)
(0.843548 0.0108943 1.65564e-17)
(0.845148 0.0107394 2.87098e-17)
(0.625182 0.0306223 -5.68467e-16)
(0.629302 0.0300358 -5.54412e-16)
(0.633359 0.0294614 -5.50492e-16)
(0.637355 0.028899 -5.31147e-16)
(0.64129 0.0283483 -5.16177e-16)
(0.645166 0.0278094 -5.08413e-16)
(0.648983 0.027282 -4.92743e-16)
(0.652743 0.026766 -4.84429e-16)
(0.656446 0.0262611 -4.6951e-16)
(0.660095 0.0257673 -4.60463e-16)
(0.663688 0.0252843 -4.46175e-16)
(0.667229 0.024812 -4.48208e-16)
(0.670716 0.0243501 -4.29209e-16)
(0.674152 0.0238985 -4.19685e-16)
(0.677538 0.0234569 -4.0325e-16)
(0.680873 0.0230251 -4.0463e-16)
(0.68416 0.022603 -3.83029e-16)
(0.687398 0.0221904 -3.75986e-16)
(0.690589 0.021787 -3.62401e-16)
(0.693734 0.0213926 -3.62301e-16)
(0.696833 0.021007 -3.41894e-16)
(0.699888 0.0206301 -3.32617e-16)
(0.702898 0.0202617 -3.16267e-16)
(0.705865 0.0199015 -3.124e-16)
(0.70879 0.0195493 -2.97763e-16)
(0.711672 0.019205 -2.96937e-16)
(0.714514 0.0188684 -2.83442e-16)
(0.717315 0.0185393 -2.86333e-16)
(0.770398 0.0191834 -2.5095e-16)
(0.720077 0.0182175 -2.69547e-16)
)
;
    }
}


// ************************************************************************* //
