/*--------------------------------*- C++ -*----------------------------------*\
  =========                 |
  \\      /  F ield         | OpenFOAM: The Open Source CFD Toolbox
   \\    /   O peration     | Website:  https://openfoam.org
    \\  /    A nd           | Version:  7
     \\/     M anipulation  |
\*---------------------------------------------------------------------------*/
FoamFile
{
    version     2.0;
    format      ascii;
    class       volVectorField;
    location    "18";
    object      U;
}
// * * * * * * * * * * * * * * * * * * * * * * * * * * * * * * * * * * * * * //

dimensions      [0 1 -1 0 0 0 0];

internalField   nonuniform List<vector> 
433
(
(1.00196 -0.0782752 1.08878e-19)
(1.03493 -0.0849995 -2.45428e-20)
(0.997346 -0.0658412 5.98492e-20)
(1.0617 -0.00222447 -4.319e-22)
(1.06238 -0.00221728 9.08341e-23)
(1.06304 -0.0022099 6.85027e-23)
(1.06371 -0.00220227 1.06246e-22)
(1.06437 -0.00219434 8.13889e-23)
(1.06502 -0.00218605 -4.93779e-23)
(1.06567 -0.0021773 -5.53599e-23)
(1.06631 -0.00216789 -9.59789e-23)
(1.06695 -0.00215748 1.02887e-22)
(1.06758 -0.00214536 -1.81432e-23)
(1.0682 -0.00213003 -2.82847e-23)
(1.06243 -0.00659832 -5.19881e-22)
(1.06311 -0.00657508 -6.5206e-23)
(1.06379 -0.00655179 1.70514e-22)
(1.06446 -0.00652836 1.32755e-22)
(1.06513 -0.00650471 -1.04616e-22)
(1.0658 -0.00648067 4.50312e-23)
(1.06646 -0.00645597 -2.24064e-23)
(1.06711 -0.00643006 -7.36988e-24)
(1.06775 -0.00640185 -3.41323e-23)
(1.06839 -0.00636898 -2.71701e-23)
(1.06903 -0.00632643 -4.34932e-23)
(1.06377 -0.0108927 1.28399e-22)
(1.06448 -0.0108541 1.4527e-22)
(1.06518 -0.0108156 -3.03804e-22)
(1.06588 -0.010777 1.9162e-22)
(1.06657 -0.0107381 -5.54166e-23)
(1.06726 -0.0106988 9.07207e-23)
(1.06794 -0.0106584 -7.57377e-23)
(1.06862 -0.0106162 4.99166e-23)
(1.06929 -0.0105702 -9.08911e-23)
(1.06995 -0.0105163 6.00509e-23)
(1.07061 -0.0104462 3.0614e-23)
(1.0657 -0.0151425 -2.02776e-22)
(1.06644 -0.0150878 3.43975e-22)
(1.06717 -0.0150333 -3.23626e-22)
(1.0679 -0.0149788 2.3582e-22)
(1.06863 -0.0149241 -2.28526e-23)
(1.06935 -0.0148689 -7.1101e-24)
(1.07007 -0.0148126 -8.99336e-23)
(1.07078 -0.0147538 1.33279e-22)
(1.07149 -0.0146897 4.65273e-23)
(1.07219 -0.0146148 -6.19257e-23)
(1.07288 -0.0145165 4.40624e-23)
(1.06816 -0.0193844 -1.13213e-23)
(1.06894 -0.0193129 -4.01945e-23)
(1.06972 -0.0192418 6.04479e-24)
(1.0705 -0.0191708 8.2887e-23)
(1.07127 -0.0190999 -9.94573e-23)
(1.07204 -0.0190284 1.02874e-22)
(1.0728 -0.0189557 -1.24391e-22)
(1.07356 -0.0188799 1.66475e-24)
(1.07431 -0.0187974 -8.84824e-23)
(1.07506 -0.0187006 7.84647e-23)
(1.0758 -0.0185732 -5.22405e-23)
(1.07112 -0.0236477 3.66254e-23)
(1.07196 -0.0235582 3.05569e-23)
(1.07279 -0.0234694 1.18926e-23)
(1.07362 -0.023381 1.46222e-22)
(1.07445 -0.0232927 -7.71795e-23)
(1.07527 -0.0232041 7.46716e-25)
(1.07609 -0.0231141 -6.98265e-23)
(1.0769 -0.0230205 5.91036e-23)
(1.07772 -0.0229187 1.48209e-23)
(1.07852 -0.022799 -1.90912e-23)
(1.07933 -0.0226406 3.20128e-23)
(1.07456 -0.027958 -1.95163e-22)
(1.07546 -0.0278492 1.61759e-22)
(1.07635 -0.0277413 -1.96215e-22)
(1.07724 -0.0276341 -1.32189e-22)
(1.07814 -0.0275274 -6.1527e-23)
(1.07903 -0.0274204 -4.68312e-23)
(1.07991 -0.027312 3.22039e-23)
(1.0808 -0.0271994 2.68638e-23)
(1.08168 -0.027077 -6.24806e-24)
(1.08256 -0.0269329 3.59472e-23)
(1.08343 -0.0267413 4.89346e-24)
(1.07844 -0.0323379 1.26659e-22)
(1.07941 -0.032208 -1.78209e-22)
(1.08038 -0.0320793 2.10664e-22)
(1.08135 -0.0319517 -5.2123e-23)
(1.08231 -0.0318248 5.14079e-23)
(1.08328 -0.0316979 -5.20005e-23)
(1.08424 -0.0315695 1.54508e-23)
(1.0852 -0.0314364 -1.09879e-23)
(1.08617 -0.0312918 -3.77928e-23)
(1.08713 -0.0311212 -1.15028e-22)
(1.08809 -0.0308933 -8.82721e-23)
(1.08276 -0.036807 -3.70365e-24)
(1.0838 -0.0366538 9.18196e-24)
(1.08485 -0.0365022 3.94451e-23)
(1.0859 -0.0363521 2.6322e-23)
(1.08695 -0.0362031 -8.5765e-25)
(1.088 -0.0360543 -2.68547e-24)
(1.08906 -0.035904 5.29291e-23)
(1.09011 -0.0357484 4.91233e-23)
(1.09116 -0.0355794 9.18793e-23)
(1.09222 -0.0353798 2.57814e-22)
(1.09327 -0.0351121 2.55531e-25)
(1.08747 -0.0413829 2.29206e-23)
(1.08861 -0.0412038 -4.1002e-23)
(1.08975 -0.0410268 -3.53655e-23)
(1.09089 -0.0408516 8.42606e-24)
(1.09204 -0.040678 3.62143e-23)
(1.09318 -0.0405048 -7.57982e-23)
(1.09433 -0.0403302 3.41227e-23)
(1.09548 -0.0401496 -1.74991e-22)
(1.09664 -0.0399537 -1.45047e-22)
(1.0978 -0.039722 -1.31646e-23)
(1.09896 -0.03941 1.55332e-22)
(1.09257 -0.046081 -1.84172e-24)
(1.09381 -0.045873 -1.47024e-24)
(1.09505 -0.0456676 -2.34242e-23)
(1.09629 -0.0454644 -1.45496e-23)
(1.09754 -0.0452631 -8.44446e-23)
(1.0988 -0.0450626 -1.50581e-23)
(1.10006 -0.0448606 -1.15056e-22)
(1.10132 -0.0446521 -2.71145e-22)
(1.10258 -0.044426 -9.77432e-24)
(1.10386 -0.0441585 -2.54462e-22)
(1.10514 -0.0437971 -9.27721e-23)
(1.09805 -0.0509155 1.36502e-23)
(1.09939 -0.050675 8.96205e-23)
(1.10074 -0.0504375 -1.69066e-22)
(1.1021 -0.0502027 -2.71413e-22)
(1.10346 -0.0499701 2.63302e-22)
(1.10483 -0.0497386 -2.7971e-23)
(1.10621 -0.0495057 -1.88415e-23)
(1.10759 -0.0492655 -9.94987e-23)
(1.10897 -0.0490054 3.73088e-22)
(1.11037 -0.0486975 5.4032e-22)
(1.11178 -0.0482806 5.40358e-22)
(1.10387 -0.0558989 -8.14059e-23)
(1.10533 -0.0556217 1.16865e-22)
(1.1068 -0.0553478 -1.59971e-22)
(1.10828 -0.0550771 6.51497e-22)
(1.10977 -0.054809 -3.65072e-24)
(1.11127 -0.0545422 -1.04126e-23)
(1.11277 -0.054274 -2.52213e-22)
(1.11428 -0.0539977 8.86945e-22)
(1.1158 -0.0536988 -8.66726e-22)
(1.11734 -0.0533452 3.81347e-22)
(1.11888 -0.0528656 -7.21235e-22)
(1.11003 -0.0610426 9.36932e-23)
(1.11162 -0.0607237 8.56585e-24)
(1.11322 -0.0604085 4.50038e-22)
(1.11484 -0.0600968 9.53564e-23)
(1.11646 -0.059788 -4.63374e-23)
(1.11809 -0.0594808 -2.30145e-22)
(1.11973 -0.059172 -7.10672e-23)
(1.12138 -0.0588543 -5.90456e-22)
(1.12304 -0.058511 -3.09415e-22)
(1.12473 -0.0581054 -4.28394e-22)
(1.12643 -0.0575547 8.15505e-22)
(1.11652 -0.0663569 2.02984e-22)
(1.11825 -0.0659905 -6.86478e-22)
(1.11999 -0.0656281 -7.76369e-22)
(1.12174 -0.0652694 -4.4753e-22)
(1.12351 -0.064914 6.88413e-22)
(1.12529 -0.0645602 4.40187e-22)
(1.12708 -0.0642046 8.95148e-25)
(1.12888 -0.063839 8.81161e-22)
(1.1307 -0.0634447 6.95317e-22)
(1.13253 -0.0629794 -4.26879e-22)
(1.13439 -0.0623481 -7.96646e-22)
(1.12332 -0.0718512 -4.09877e-22)
(1.12519 -0.0714305 7.8191e-22)
(1.12708 -0.071014 9.20019e-22)
(1.12899 -0.0706014 4.46811e-22)
(1.13091 -0.0701921 -1.30462e-21)
(1.13285 -0.0697845 -7.05301e-22)
(1.1348 -0.0693747 4.23733e-22)
(1.13676 -0.0689536 -8.60452e-22)
(1.13874 -0.0685001 -3.27245e-22)
(1.14074 -0.0679664 -2.43493e-23)
(1.14278 -0.067243 -5.38896e-22)
(1.13041 -0.0775337 8.02955e-23)
(1.13245 -0.0770511 1.03014e-22)
(1.1345 -0.0765725 -1.26705e-21)
(1.13657 -0.0760977 -8.55041e-22)
(1.13866 -0.0756262 -1.32909e-22)
(1.14076 -0.0751561 1.56362e-21)
(1.14288 -0.0746832 5.26676e-22)
(1.14502 -0.0741974 -1.58066e-22)
(1.14717 -0.0736752 -2.82196e-22)
(1.14934 -0.0730624 -3.10855e-21)
(1.15156 -0.0722339 1.98125e-22)
(1.1378 -0.0834123 -8.25389e-22)
(1.14001 -0.0828585 -2.90044e-22)
(1.14223 -0.0823085 7.94282e-22)
(1.14448 -0.081762 8.54006e-22)
(1.14674 -0.0812182 1.44046e-21)
(1.14902 -0.0806754 -1.05968e-21)
(1.15132 -0.0801289 8.06933e-22)
(1.15364 -0.0795675 -2.85756e-22)
(1.15597 -0.0789651 -1.42678e-21)
(1.15833 -0.0782604 2.3072e-21)
(1.16074 -0.0773112 1.76992e-21)
(1.14547 -0.0894936 1.64545e-21)
(1.14786 -0.0888581 -2.91221e-22)
(1.15027 -0.0882258 8.69154e-22)
(1.1527 -0.0875963 -1.13229e-21)
(1.15515 -0.0869688 -1.82391e-21)
(1.15762 -0.0863411 1.45234e-22)
(1.16011 -0.0857083 7.38251e-22)
(1.16262 -0.085058 3.94608e-21)
(1.16514 -0.0843611 2.46531e-21)
(1.16769 -0.0835491 1.47748e-21)
(1.1703 -0.0824606 4.01023e-21)
(1.15342 -0.0957836 -9.10329e-22)
(1.156 -0.0950544 1.28149e-21)
(1.15861 -0.0943272 -1.51352e-21)
(1.16124 -0.0936014 -7.34434e-22)
(1.16389 -0.0928762 -1.9514e-22)
(1.16656 -0.0921491 -2.14594e-21)
(1.16924 -0.0914145 -3.70151e-21)
(1.17195 -0.0906588 -7.13726e-21)
(1.17467 -0.0898498 -1.93942e-21)
(1.17742 -0.088911 5.14972e-21)
(1.18023 -0.0876605 -6.63504e-21)
(1.16164 -0.102288 -8.33305e-22)
(1.16444 -0.10145 4.88323e-22)
(1.16725 -0.100613 1.28766e-23)
(1.17009 -0.0997757 1.72889e-21)
(1.17295 -0.0989361 1.24089e-21)
(1.17582 -0.0980916 3.41126e-21)
(1.17872 -0.0972359 -3.15866e-21)
(1.18163 -0.0963538 6.35014e-21)
(1.18455 -0.0954097 -4.22359e-22)
(1.1875 -0.0943191 -1.12075e-20)
(1.19052 -0.0928782 -2.02161e-21)
(1.17015 -0.109009 1.67335e-21)
(1.17316 -0.108047 2.89797e-21)
(1.1762 -0.107083 -2.00269e-21)
(1.17925 -0.106114 -2.08275e-21)
(1.18233 -0.10514 4.8849e-22)
(1.18542 -0.104155 -7.28488e-21)
(1.18853 -0.103154 6.31469e-21)
(1.19165 -0.102117 -5.54969e-21)
(1.19478 -0.101008 -2.22661e-21)
(1.19792 -0.0997313 2.31223e-21)
(1.20113 -0.0980633 -2.47295e-21)
(1.17893 -0.115949 -1.73514e-21)
(1.18218 -0.114843 -2.20939e-21)
(1.18545 -0.11373 4.02119e-21)
(1.18873 -0.112607 5.56328e-21)
(1.19203 -0.111471 -4.83612e-21)
(1.19534 -0.110317 4.56815e-21)
(1.19866 -0.109136 -5.76171e-21)
(1.20198 -0.107908 -4.46979e-21)
(1.2053 -0.10659 3.37848e-21)
(1.20861 -0.105082 8.39295e-21)
(1.21197 -0.103138 1.65298e-20)
(1.188 -0.123106 -1.02984e-21)
(1.19149 -0.121831 1.66189e-21)
(1.19499 -0.120541 -2.95188e-21)
(1.19851 -0.119233 -8.47176e-21)
(1.20203 -0.117901 3.92797e-21)
(1.20556 -0.116538 -2.89609e-21)
(1.20907 -0.115132 -4.2124e-21)
(1.21257 -0.113659 1.11244e-20)
(1.21604 -0.112073 -5.35851e-21)
(1.21946 -0.110267 -1.48043e-21)
(1.2229 -0.107981 -2.15946e-20)
(1.19735 -0.130465 -7.96666e-22)
(1.20108 -0.12899 -4.5367e-21)
(1.20482 -0.127489 1.18012e-21)
(1.20856 -0.125955 3.21068e-21)
(1.21229 -0.124379 3.14216e-21)
(1.216 -0.122752 5.83821e-21)
(1.21967 -0.121055 1.8155e-20)
(1.22329 -0.119263 -2.63389e-21)
(1.22684 -0.117325 1.49955e-20)
(1.23027 -0.115129 -1.3565e-21)
(1.23365 -0.112413 1.78331e-20)
(1.20696 -0.138002 3.32145e-21)
(1.21093 -0.136284 2.82612e-21)
(1.21489 -0.134522 1.59755e-21)
(1.21883 -0.132704 -1.1177e-20)
(1.22272 -0.130819 -8.15576e-21)
(1.22655 -0.128848 -2.51207e-21)
(1.2303 -0.12677 -1.9177e-20)
(1.23393 -0.124554 -7.93132e-21)
(1.23741 -0.122147 -7.71057e-21)
(1.24069 -0.119437 -8.95823e-22)
(1.24377 -0.116179 -1.36581e-21)
(1.21679 -0.145663 -5.40402e-22)
(1.22097 -0.143642 -2.83188e-21)
(1.22511 -0.14155 -3.26284e-21)
(1.22917 -0.139368 1.84711e-20)
(1.23314 -0.137078 2.89853e-21)
(1.23698 -0.134655 -1.01212e-20)
(1.24065 -0.13207 2.46518e-20)
(1.24411 -0.129288 2.04129e-21)
(1.24731 -0.126255 8.16442e-21)
(1.25013 -0.122871 -2.00132e-20)
(1.25255 -0.118932 -1.80423e-21)
(1.22675 -0.153352 -4.77728e-21)
(1.23107 -0.150945 2.98308e-23)
(1.23528 -0.148423 1.50558e-21)
(1.23935 -0.145764 -5.13612e-21)
(1.24324 -0.142937 4.96394e-21)
(1.24688 -0.139912 1.72085e-20)
(1.25023 -0.136653 -1.45701e-20)
(1.25323 -0.133122 -1.3342e-20)
(1.25579 -0.129268 -9.82705e-21)
(1.25776 -0.125017 3.25709e-20)
(1.25897 -0.120241 -7.29484e-21)
(1.23666 -0.160911 5.25647e-22)
(1.24099 -0.157996 8.00188e-21)
(1.24512 -0.154907 -2.38282e-24)
(1.24898 -0.151613 8.54384e-21)
(1.25252 -0.148074 -3.05168e-21)
(1.25566 -0.144254 1.09997e-20)
(1.25831 -0.140111 -5.2705e-21)
(1.2604 -0.135608 2.66117e-21)
(1.26184 -0.13071 1.1768e-20)
(1.26235 -0.12538 -2.46747e-20)
(1.26165 -0.119615 6.83942e-21)
(1.24622 -0.168091 -5.95801e-21)
(1.25034 -0.1645 2.75034e-21)
(1.2541 -0.160658 -1.57607e-20)
(1.25743 -0.156523 -1.65375e-20)
(1.26023 -0.152051 1.06479e-20)
(1.2624 -0.1472 -1.42028e-20)
(1.26383 -0.14193 -1.00364e-20)
(1.26441 -0.136213 3.90172e-20)
(1.26405 -0.13004 1.37295e-20)
(1.26237 -0.123435 -9.27905e-21)
(1.25886 -0.116569 -5.60135e-21)
(1.25493 -0.174526 2.72149e-21)
(1.25849 -0.170039 -7.71602e-21)
(1.26149 -0.165206 2.0542e-20)
(1.26379 -0.159979 -3.38292e-21)
(1.2653 -0.154315 -1.99173e-21)
(1.26587 -0.148173 2.25552e-20)
(1.26537 -0.141526 3.77171e-20)
(1.26369 -0.134366 -9.73897e-21)
(1.26072 -0.126724 -5.29257e-20)
(1.25598 -0.118707 2.4529e-20)
(1.24866 -0.110705 3.09781e-20)
(1.26203 -0.179715 6.62661e-21)
(1.26454 -0.174062 -7.91916e-21)
(1.26619 -0.167958 -9.70751e-21)
(1.26683 -0.161361 -2.25554e-21)
(1.26632 -0.154235 -1.50765e-20)
(1.26451 -0.146554 -2.58768e-20)
(1.26124 -0.138313 -5.59952e-21)
(1.2564 -0.129541 1.25071e-20)
(1.24993 -0.120324 2.44357e-20)
(1.24118 -0.110871 -2.70735e-20)
(1.22903 -0.101821 -2.01244e-20)
(1.26645 -0.183027 5.35877e-22)
(1.26724 -0.175903 5.41335e-21)
(1.2668 -0.168236 2.4963e-20)
(1.26497 -0.159997 4.82602e-21)
(1.26158 -0.151171 1.87632e-20)
(1.25648 -0.141763 -2.51058e-21)
(1.24951 -0.131803 -3.86416e-20)
(1.24059 -0.121371 9.42895e-21)
(1.22971 -0.110619 2.48395e-20)
(1.21606 -0.0998667 3.66657e-20)
(1.19817 -0.0900056 -3.84596e-20)
(1.26678 -0.183738 -1.05201e-20)
(1.26503 -0.174843 1.18383e-20)
(1.26162 -0.165348 -4.85853e-21)
(1.25639 -0.155253 5.27822e-21)
(1.24918 -0.14458 8.88468e-21)
(1.23985 -0.133376 1.69378e-20)
(1.22827 -0.121724 3.54296e-20)
(1.2144 -0.109761 -4.8751e-20)
(1.19831 -0.0977073 -5.32677e-21)
(1.17905 -0.085981 -1.52799e-20)
(1.15477 -0.0756894 7.62825e-20)
(1.26129 -0.181106 2.48837e-20)
(1.25607 -0.170198 -4.09489e-20)
(1.24875 -0.1587 1.63491e-20)
(1.23917 -0.146656 2.35053e-20)
(1.22722 -0.134139 -5.95833e-20)
(1.21279 -0.121253 -7.86379e-21)
(1.1958 -0.10814 -7.80007e-21)
(1.17631 -0.0949922 -2.0495e-20)
(1.15447 -0.0820842 -3.32394e-20)
(1.12916 -0.0698906 4.12165e-21)
(1.09823 -0.0596438 -1.25735e-20)
(1.24807 -0.174445 2.41144e-20)
(1.23842 -0.161394 1.18049e-20)
(1.22626 -0.147863 -6.32968e-20)
(1.21148 -0.133953 -1.84632e-20)
(1.19401 -0.1198 1.32608e-20)
(1.17381 -0.105572 -3.26767e-20)
(1.15089 -0.091468 3.30619e-20)
(1.12541 -0.0777261 4.96222e-20)
(1.09763 -0.0646315 3.51458e-20)
(1.06624 -0.0526296 1.89497e-20)
(1.02881 -0.0429151 -7.70573e-20)
(1.22524 -0.163305 -4.21398e-20)
(1.21031 -0.148144 3.23708e-20)
(1.19253 -0.132729 -1.26544e-20)
(1.17185 -0.117233 -7.52025e-21)
(1.14831 -0.101859 2.0258e-20)
(1.12195 -0.0868432 -1.00283e-20)
(1.09289 -0.0724376 -5.58433e-20)
(1.0614 -0.0588999 1.57081e-20)
(1.02788 -0.046468 -8.38849e-20)
(0.990808 -0.0354206 -1.84859e-20)
(0.947494 -0.0266553 5.22264e-20)
(1.19135 -0.147856 3.33423e-20)
(1.17052 -0.130864 1.04699e-20)
(1.14663 -0.113974 6.23743e-20)
(1.11974 -0.097424 1.77716e-20)
(1.08995 -0.0814875 -4.27335e-21)
(1.05742 -0.0664567 4.38102e-20)
(1.02237 -0.0526217 4.61877e-20)
(0.985185 -0.0402289 -3.66956e-20)
(0.946392 -0.0293948 9.6039e-20)
(0.904266 -0.0200304 3.12729e-21)
(1.16876 -0.146293 2.37608e-20)
(1.14488 -0.127587 8.40733e-21)
(1.1178 -0.109216 -8.92896e-21)
(1.08764 -0.0914545 -3.19985e-20)
(1.05455 -0.0746087 3.23509e-20)
(1.01874 -0.059011 -4.3135e-21)
(0.980502 -0.0450043 -9.54562e-21)
(0.94012 -0.0329072 -5.88855e-20)
(1.11511 -0.120847 -1.07036e-20)
(1.08463 -0.1004 -5.97657e-20)
(1.05092 -0.0808463 -2.85541e-20)
(1.0142 -0.0625304 2.87968e-20)
(0.974761 -0.0458239 -6.57503e-20)
)
;

boundaryField
{
    inlet
    {
        type            uniformFixedValue;
        uniformValue    constant (1 0 0);
        value           nonuniform 0();
    }
    outlet
    {
        type            pressureInletOutletVelocity;
        value           nonuniform 0();
    }
    cylinder
    {
        type            fixedValue;
        value           nonuniform 0();
    }
    top
    {
        type            symmetryPlane;
    }
    bottom
    {
        type            symmetryPlane;
    }
    defaultFaces
    {
        type            empty;
    }
    procBoundary3to2
    {
        type            processor;
        value           nonuniform List<vector> 
33
(
(1.06103 -0.0022315 -1.09548e-22)
(1.06174 -0.00662155 -6.81676e-22)
(1.06306 -0.0109313 -9.22794e-23)
(1.06495 -0.0151975 1.30044e-22)
(1.06737 -0.0194565 -1.36953e-22)
(1.07028 -0.023738 2.14727e-22)
(1.07366 -0.0280679 -3.64083e-22)
(1.07748 -0.0324693 7.62383e-23)
(1.08171 -0.0369621 -1.40278e-22)
(1.08634 -0.0415642 6.98119e-23)
(1.09135 -0.0462917 5.80155e-23)
(1.09671 -0.051159 -2.11025e-23)
(1.10242 -0.0561796 -3.22228e-23)
(1.10846 -0.0613653 -5.65913e-24)
(1.11481 -0.0667273 1.73579e-22)
(1.12146 -0.0722759 -8.52428e-22)
(1.1284 -0.0780205 8.86775e-22)
(1.13561 -0.0839698 5.15893e-22)
(1.1431 -0.0901322 -7.73294e-22)
(1.15086 -0.096515 7.3298e-22)
(1.15888 -0.103125 -2.35869e-21)
(1.16716 -0.109969 1.49233e-21)
(1.17571 -0.11705 -1.88895e-22)
(1.18453 -0.124368 8.984e-22)
(1.19362 -0.131919 3.78254e-22)
(1.20298 -0.139684 -1.4763e-21)
(1.21258 -0.147624 2.76652e-21)
(1.22235 -0.155666 1.32992e-21)
(1.23217 -0.163683 1.24589e-21)
(1.24182 -0.171469 -5.55983e-21)
(1.25089 -0.178711 -1.05675e-20)
(1.25879 -0.184965 2.08249e-20)
(1.26459 -0.189646 -8.64657e-21)
)
;
    }
    procBoundary3to4
    {
        type            processor;
        value           nonuniform List<vector> 
24
(
(1.06924 -0.00209344 0)
(1.07008 -0.0062197 0)
(1.07169 -0.0102681 0)
(1.07401 -0.0142654 0)
(1.077 -0.0182455 0)
(1.0806 -0.0222316 0)
(1.0848 -0.0262446 0)
(1.08956 -0.0303014 0)
(1.09486 -0.0344159 0)
(1.10068 -0.038599 0)
(1.10701 -0.0428591 0)
(1.11381 -0.0472018 0)
(1.12109 -0.0516304 0)
(1.12882 -0.0561454 0)
(1.13699 -0.0607446 0)
(1.14558 -0.0654228 0)
(1.15459 -0.0701715 0)
(1.16401 -0.0749781 0)
(1.17382 -0.0798243 0)
(1.184 -0.0846841 0)
(1.19454 -0.0895196 0)
(1.20538 -0.0942742 0)
(1.2164 -0.098863 0)
(1.22744 -0.10316 0)
)
;
    }
    procBoundary3to8
    {
        type            processor;
        value           nonuniform List<vector> 
11
(
(1.03852 -0.0982486 2.86836e-20)
(1.06944 -0.105443 4.76688e-20)
(1.06944 -0.105443 4.76688e-20)
(1.26705 -0.192048 -4.55683e-21)
(1.26459 -0.191403 7.68233e-21)
(1.25534 -0.18694 1.69924e-20)
(1.23741 -0.178076 -3.75197e-20)
(1.20912 -0.164745 3.75188e-20)
(1.20912 -0.164745 3.75188e-20)
(1.18941 -0.165093 1.92236e-20)
(1.14223 -0.141868 -2.66125e-20)
)
;
    }
    procBoundary3to9
    {
        type            processor;
        value           nonuniform List<vector> 
16
(
(0.967238 -0.0710615 6.18447e-20)
(0.962493 -0.0597908 -1.02426e-20)
(0.962493 -0.0597908 -1.02426e-20)
(0.956963 -0.0483103 1.86169e-20)
(0.956963 -0.0483103 1.86169e-20)
(0.914102 -0.032762 9.49661e-20)
(0.855839 -0.0123265 2.42118e-20)
(0.898087 -0.0229485 4.70158e-20)
(0.855067 -0.0151222 3.03151e-20)
(0.855839 -0.0123265 2.42118e-20)
(0.809146 -0.00876939 -4.53797e-20)
(0.93292 -0.0311157 1.36386e-20)
(0.889051 -0.0188014 -2.58716e-20)
(0.898087 -0.0229485 4.70158e-20)
(0.843525 -0.00925553 -2.37929e-21)
(0.93292 -0.0311157 1.36386e-20)
)
;
    }
    procBoundary3to10
    {
        type            processor;
        value           nonuniform List<vector> 
13
(
(1.23813 -0.106983 0)
(1.24794 -0.110078 0)
(1.25604 -0.112115 0)
(1.26126 -0.112698 0)
(1.26207 -0.111391 0)
(1.25664 -0.107786 0)
(1.24295 -0.101581 0)
(1.21903 -0.0926647 0)
(1.18324 -0.0811838 0)
(1.1345 -0.0675673 0)
(1.07253 -0.0524873 0)
(0.997894 -0.0367573 0)
(0.911909 -0.0211708 0)
)
;
    }
}


// ************************************************************************* //
