/*--------------------------------*- C++ -*----------------------------------*\
  =========                 |
  \\      /  F ield         | OpenFOAM: The Open Source CFD Toolbox
   \\    /   O peration     | Website:  https://openfoam.org
    \\  /    A nd           | Version:  7
     \\/     M anipulation  |
\*---------------------------------------------------------------------------*/
FoamFile
{
    version     2.0;
    format      ascii;
    class       volVectorField;
    location    "11";
    object      U;
}
// * * * * * * * * * * * * * * * * * * * * * * * * * * * * * * * * * * * * * //

dimensions      [0 1 -1 0 0 0 0];

internalField   nonuniform List<vector> 
433
(
(0.823239 -0.0252895 6.13848e-18)
(0.868661 -0.0328363 -1.32677e-18)
(0.823518 -0.0195779 3.41274e-18)
(1.06816 -0.0023064 3.07117e-19)
(1.06886 -0.00229488 -6.10669e-20)
(1.06956 -0.00228323 -5.12553e-20)
(1.07025 -0.0022714 -9.19265e-20)
(1.07093 -0.00225935 -8.16038e-20)
(1.07161 -0.00224701 3.9465e-20)
(1.07228 -0.00223428 5.13408e-20)
(1.07294 -0.00222097 1.10047e-19)
(1.0736 -0.00220674 -1.31685e-19)
(1.07425 -0.0021905 1.95284e-20)
(1.07488 -0.00216982 4.19942e-20)
(1.06902 -0.00685134 3.74984e-19)
(1.06973 -0.00681547 5.94931e-20)
(1.07044 -0.00677956 -1.32204e-19)
(1.07114 -0.00674353 -1.17094e-19)
(1.07183 -0.00670726 9.54215e-20)
(1.07252 -0.0066706 -4.8299e-20)
(1.0732 -0.00663325 1.90705e-20)
(1.07388 -0.00659464 3.23609e-21)
(1.07455 -0.00655366 4.24896e-20)
(1.07521 -0.00650673 4.18413e-20)
(1.07584 -0.00644611 7.65545e-20)
(1.07061 -0.0113143 -1.01982e-19)
(1.07135 -0.0112549 -1.3112e-19)
(1.07208 -0.0111956 2.56413e-19)
(1.0728 -0.0111361 -1.77382e-19)
(1.07352 -0.0110765 5.37785e-20)
(1.07424 -0.0110162 -1.02466e-19)
(1.07495 -0.010955 8.64795e-20)
(1.07565 -0.0108917 -6.59941e-20)
(1.07634 -0.0108246 1.37e-19)
(1.07703 -0.0107475 -9.04904e-20)
(1.07769 -0.0106471 -5.48313e-20)
(1.07289 -0.0157333 1.74496e-19)
(1.07366 -0.0156495 -2.96943e-19)
(1.07443 -0.015566 3.01238e-19)
(1.07519 -0.0154825 -2.35177e-19)
(1.07595 -0.0153989 2.21596e-20)
(1.0767 -0.0153149 1.11757e-21)
(1.07745 -0.0152296 1.19697e-19)
(1.07819 -0.0151417 -2.12433e-19)
(1.07892 -0.0150486 -9.06766e-20)
(1.07965 -0.0149414 1.46135e-19)
(1.08035 -0.0148009 -1.05941e-19)
(1.0758 -0.0201474 1.07838e-20)
(1.07662 -0.0200386 3.59612e-20)
(1.07744 -0.0199303 -9.65457e-21)
(1.07825 -0.0198223 -1.04476e-19)
(1.07905 -0.0197144 1.17688e-19)
(1.07985 -0.0196061 -1.51157e-19)
(1.08065 -0.0194965 2.08564e-19)
(1.08144 -0.0193838 -7.52747e-21)
(1.08223 -0.0192643 1.84075e-19)
(1.08301 -0.0191265 -2.0284e-19)
(1.08377 -0.0189446 2.11512e-19)
(1.07932 -0.0245878 -3.90729e-20)
(1.08019 -0.0244526 -3.07414e-20)
(1.08106 -0.0243183 -2.63966e-20)
(1.08193 -0.0241847 -2.13394e-19)
(1.0828 -0.0240514 1.00744e-19)
(1.08366 -0.0239179 -7.07377e-21)
(1.08452 -0.0237831 1.73723e-19)
(1.08537 -0.0236447 -1.37688e-19)
(1.08622 -0.0234981 -3.07523e-20)
(1.08707 -0.0233286 1.04671e-19)
(1.0879 -0.0231034 -1.71997e-19)
(1.0834 -0.0290814 2.32867e-19)
(1.08434 -0.0289183 -2.2293e-19)
(1.08528 -0.0287564 2.80561e-19)
(1.08621 -0.0285957 2.08599e-19)
(1.08715 -0.0284356 1.05889e-19)
(1.08808 -0.0282757 1.0958e-19)
(1.08901 -0.0281145 -6.65298e-20)
(1.08994 -0.0279492 -1.83757e-19)
(1.09087 -0.0277742 3.17099e-19)
(1.09179 -0.0275714 1.8673e-19)
(1.09271 -0.0273001 4.3346e-20)
(1.08801 -0.0336518 -1.94564e-19)
(1.08903 -0.0334586 3.30499e-19)
(1.09004 -0.0332672 -4.12432e-19)
(1.09106 -0.0330773 1.39714e-19)
(1.09207 -0.0328887 -1.76219e-19)
(1.09309 -0.0327004 2.69561e-19)
(1.0941 -0.0325111 -3.41915e-20)
(1.09512 -0.0323173 2.06e-19)
(1.09613 -0.032112 -4.55642e-19)
(1.09714 -0.0318738 -5.79948e-19)
(1.09816 -0.0315528 -2.47333e-19)
(1.09313 -0.0383192 -1.2618e-20)
(1.09423 -0.0380933 -2.96892e-20)
(1.09534 -0.0378698 -1.42746e-19)
(1.09644 -0.0376484 -1.52882e-19)
(1.09755 -0.0374288 -2.15781e-20)
(1.09866 -0.0372101 -5.11066e-20)
(1.09977 -0.0369904 1.05339e-19)
(1.10088 -0.0367658 7.16768e-20)
(1.10199 -0.036528 3.18368e-19)
(1.1031 -0.0362514 5.96957e-19)
(1.10422 -0.0358765 7.99806e-20)
(1.09874 -0.0431013 -1.14393e-19)
(1.09994 -0.0428398 1.06659e-19)
(1.10113 -0.0425812 3.46652e-19)
(1.10234 -0.0423254 4.70787e-20)
(1.10355 -0.0420719 7.06554e-20)
(1.10476 -0.0418198 -1.28638e-19)
(1.10597 -0.0415669 -4.74177e-20)
(1.10719 -0.0413087 -3.61523e-19)
(1.10841 -0.0410354 -2.27884e-19)
(1.10964 -0.0407171 -1.10627e-19)
(1.11088 -0.0402831 1.95412e-19)
(1.10481 -0.048014 -5.23147e-20)
(1.10611 -0.0477131 7.14743e-20)
(1.10742 -0.0474159 -1.30908e-19)
(1.10873 -0.0471221 -3.61751e-21)
(1.11005 -0.0468312 -2.51031e-19)
(1.11137 -0.0465422 1.0218e-19)
(1.11271 -0.0462527 -2.2247e-19)
(1.11404 -0.0459575 -2.51332e-19)
(1.11538 -0.045645 3.81407e-20)
(1.11673 -0.0452807 -2.52713e-19)
(1.11811 -0.0447815 -1.025e-19)
(1.11132 -0.0530712 1.60819e-20)
(1.11274 -0.0527267 2.28135e-19)
(1.11416 -0.0523865 -3.45312e-19)
(1.11559 -0.0520505 -3.6337e-19)
(1.11703 -0.051718 3.69765e-19)
(1.11848 -0.0513879 3.92365e-21)
(1.11994 -0.0510576 3.71305e-20)
(1.12141 -0.050721 1.28355e-20)
(1.12288 -0.0503648 2.87425e-19)
(1.12437 -0.0499496 4.11818e-19)
(1.12589 -0.0493779 3.34153e-19)
(1.11826 -0.0582851 -2.22726e-19)
(1.11979 -0.057892 1.20348e-19)
(1.12134 -0.0575039 -1.36806e-19)
(1.12291 -0.0571205 7.92543e-19)
(1.12448 -0.0567414 -1.66201e-20)
(1.12606 -0.0563653 -1.50199e-20)
(1.12766 -0.0559891 -1.30651e-19)
(1.12927 -0.055606 6.64152e-19)
(1.13088 -0.0552008 -5.88366e-19)
(1.13251 -0.0547284 1.73146e-19)
(1.1342 -0.0540759 -4.36992e-19)
(1.12559 -0.0636666 9.67026e-20)
(1.12727 -0.0632191 -5.29887e-20)
(1.12895 -0.0627772 4.0916e-19)
(1.13065 -0.0623407 -1.52109e-20)
(1.13237 -0.061909 -5.36623e-20)
(1.1341 -0.0614807 -1.36788e-19)
(1.13584 -0.0610526 2.56112e-20)
(1.1376 -0.0606169 -3.63138e-19)
(1.13937 -0.0601562 -1.12476e-19)
(1.14115 -0.0596195 -2.66927e-19)
(1.14301 -0.0588765 3.66892e-19)
(1.13332 -0.0692251 1.29201e-19)
(1.13513 -0.0687165 -5.43621e-19)
(1.13696 -0.068214 -6.02905e-19)
(1.13881 -0.0677175 -3.36116e-19)
(1.14068 -0.0672262 3.76871e-19)
(1.14257 -0.0667389 2.64031e-19)
(1.14447 -0.0662516 6.65065e-20)
(1.14639 -0.0657559 4.0388e-19)
(1.14832 -0.065232 3.40875e-19)
(1.15027 -0.0646225 -1.90947e-19)
(1.15232 -0.0637778 -3.3061e-19)
(1.1414 -0.0749691 -3.53937e-19)
(1.14337 -0.0743916 5.71615e-19)
(1.14536 -0.0738207 5.50985e-19)
(1.14737 -0.0732561 2.19223e-19)
(1.14941 -0.0726972 -6.74907e-19)
(1.15146 -0.0721424 -3.21364e-19)
(1.15353 -0.0715875 2.14376e-19)
(1.15562 -0.0710231 -3.60191e-19)
(1.15772 -0.0704269 -1.09118e-19)
(1.15985 -0.0697345 -4.62918e-21)
(1.16209 -0.0687752 -1.62046e-19)
(1.14984 -0.0809057 2.74613e-20)
(1.15197 -0.0802505 6.00927e-20)
(1.15413 -0.0796021 -6.45523e-19)
(1.15632 -0.0789603 -4.06469e-19)
(1.15852 -0.0783243 -2.43078e-20)
(1.16075 -0.0776922 6.12932e-19)
(1.163 -0.0770598 1.91785e-19)
(1.16527 -0.0764162 -3.99756e-20)
(1.16755 -0.0757367 -6.92069e-20)
(1.16986 -0.0749495 -8.81187e-19)
(1.17232 -0.0738603 7.96995e-20)
(1.15861 -0.087041 -4.16365e-19)
(1.16092 -0.0862981 -1.34389e-19)
(1.16326 -0.0855619 3.57295e-19)
(1.16562 -0.0848322 3.5127e-19)
(1.16801 -0.0841079 5.03663e-19)
(1.17043 -0.0833872 -3.90403e-19)
(1.17287 -0.0826652 2.37249e-19)
(1.17533 -0.08193 -7.11179e-20)
(1.1778 -0.081154 -3.61708e-19)
(1.1803 -0.0802573 7.02783e-19)
(1.18298 -0.0790204 4.40637e-19)
(1.1677 -0.0933806 6.88388e-19)
(1.1702 -0.0925384 -9.43844e-20)
(1.17273 -0.0917025 2.92487e-19)
(1.17529 -0.0908724 -3.69692e-19)
(1.17787 -0.0900469 -5.94475e-19)
(1.18048 -0.0892239 3.47744e-20)
(1.18312 -0.0883978 1.72229e-19)
(1.18578 -0.0875557 9.92078e-19)
(1.18846 -0.0866666 6.31922e-19)
(1.19116 -0.0856423 3.70125e-19)
(1.19406 -0.0842362 8.19409e-19)
(1.1771 -0.0999284 -3.82877e-19)
(1.1798 -0.0989739 4.47294e-19)
(1.18253 -0.0980245 -4.90068e-19)
(1.18529 -0.0970794 -1.70615e-19)
(1.18808 -0.0961373 -1.18029e-20)
(1.1909 -0.0951953 -5.37607e-19)
(1.19375 -0.0942473 -9.07841e-19)
(1.19661 -0.0932788 -1.67976e-18)
(1.19949 -0.0922553 -4.3228e-19)
(1.20239 -0.0910801 1.02069e-18)
(1.20553 -0.0894779 -1.39862e-18)
(1.1868 -0.106687 -2.86429e-19)
(1.18971 -0.105605 1.18336e-19)
(1.19265 -0.104526 1.26641e-20)
(1.19563 -0.103449 4.69331e-19)
(1.19863 -0.102371 3.26129e-19)
(1.20167 -0.101289 8.2593e-19)
(1.20473 -0.100196 -6.06306e-19)
(1.2078 -0.0990754 1.34018e-18)
(1.21088 -0.0978889 -6.11196e-20)
(1.21398 -0.0965312 -2.11291e-18)
(1.21734 -0.094698 -3.2608e-19)
(1.19679 -0.113657 4.61669e-19)
(1.19992 -0.112429 7.24955e-19)
(1.20309 -0.111201 -4.73976e-19)
(1.20628 -0.109969 -4.73629e-19)
(1.20951 -0.108732 1.00939e-19)
(1.21276 -0.107483 -1.46483e-18)
(1.21603 -0.106214 1.30133e-18)
(1.21931 -0.104906 -1.04301e-18)
(1.22258 -0.103516 -3.45242e-19)
(1.22585 -0.101932 4.65255e-19)
(1.2294 -0.0998212 -3.29475e-19)
(1.20706 -0.120832 -4.59713e-19)
(1.21042 -0.119437 -5.67362e-19)
(1.21381 -0.118034 8.96468e-19)
(1.21723 -0.116621 1.16702e-18)
(1.22067 -0.115192 -9.27245e-19)
(1.22413 -0.113739 9.5506e-19)
(1.2276 -0.11225 -9.89415e-19)
(1.23106 -0.110704 -6.77923e-19)
(1.23449 -0.109054 5.84794e-19)
(1.23787 -0.10718 1.27042e-18)
(1.24155 -0.104728 2.40222e-18)
(1.21759 -0.128198 -2.14178e-19)
(1.22118 -0.126606 3.37708e-19)
(1.22479 -0.124997 -6.30168e-19)
(1.22843 -0.123364 -1.61058e-18)
(1.23207 -0.121697 7.44009e-19)
(1.23571 -0.119987 -4.30828e-19)
(1.23933 -0.118217 -5.61219e-19)
(1.24292 -0.116361 1.73562e-18)
(1.24642 -0.114368 -7.34885e-19)
(1.24982 -0.112113 -2.65769e-19)
(1.25348 -0.109234 -2.88837e-18)
(1.22833 -0.135723 -1.28314e-19)
(1.23214 -0.133895 -8.68077e-19)
(1.23596 -0.132033 2.26467e-19)
(1.23977 -0.130124 5.98685e-19)
(1.24357 -0.128157 4.90777e-19)
(1.24732 -0.126113 9.37257e-19)
(1.25101 -0.123972 2.68494e-18)
(1.2546 -0.121702 -3.91743e-19)
(1.25804 -0.119249 1.97435e-18)
(1.26127 -0.11649 -2.09454e-19)
(1.26468 -0.11307 2.18351e-18)
(1.23922 -0.143342 6.35081e-19)
(1.24321 -0.141222 5.25125e-19)
(1.24717 -0.13904 2.64822e-19)
(1.25109 -0.136778 -1.67088e-18)
(1.25494 -0.134416 -1.20614e-18)
(1.25868 -0.13193 -3.52831e-19)
(1.26227 -0.129291 -2.56739e-18)
(1.26568 -0.126464 -9.72154e-19)
(1.2688 -0.123393 -9.85105e-19)
(1.27156 -0.119964 -1.24894e-19)
(1.27433 -0.115862 -2.17381e-19)
(1.2501 -0.150944 -1.00588e-19)
(1.25418 -0.148448 -4.41665e-19)
(1.25819 -0.145848 -4.90694e-19)
(1.26207 -0.143118 2.72215e-18)
(1.26579 -0.140229 4.44092e-19)
(1.26929 -0.13715 -1.23606e-18)
(1.27252 -0.133843 3.00515e-18)
(1.27541 -0.130271 3.04003e-19)
(1.27785 -0.126381 8.55579e-19)
(1.27968 -0.122082 -2.02302e-18)
(1.28125 -0.117137 -2.28246e-19)
(1.26072 -0.158339 -7.21127e-19)
(1.26474 -0.155345 3.51204e-20)
(1.26859 -0.152187 2.25843e-19)
(1.27219 -0.14883 -7.07112e-19)
(1.27549 -0.145235 6.1791e-19)
(1.27841 -0.141363 2.08772e-18)
(1.28086 -0.137172 -1.72405e-18)
(1.28275 -0.132625 -1.31201e-18)
(1.28394 -0.127682 -1.03666e-18)
(1.2842 -0.122293 3.14856e-18)
(1.2838 -0.116351 -6.74042e-19)
(1.27065 -0.165229 1.26771e-19)
(1.27435 -0.161567 1.08662e-18)
(1.27772 -0.15766 7.16559e-21)
(1.28066 -0.153464 1.01293e-18)
(1.2831 -0.148933 -3.7052e-19)
(1.28491 -0.144024 1.1201e-18)
(1.28597 -0.138697 -5.35681e-19)
(1.28619 -0.132924 4.08669e-19)
(1.2854 -0.12669 1.05102e-18)
(1.28328 -0.120009 -2.19012e-18)
(1.27993 -0.112958 5.73174e-19)
(1.2792 -0.171181 -7.38098e-19)
(1.28218 -0.166624 2.80895e-19)
(1.28459 -0.161722 -1.81287e-18)
(1.28633 -0.156427 -1.84958e-18)
(1.28726 -0.150692 1.07939e-18)
(1.28725 -0.144479 -1.4971e-18)
(1.28616 -0.137758 -8.8477e-19)
(1.28385 -0.130523 3.51323e-18)
(1.28018 -0.122804 1.04327e-18)
(1.27469 -0.114698 -6.49431e-19)
(1.26731 -0.106524 -4.3604e-19)
(1.28537 -0.175601 4.05407e-19)
(1.28704 -0.169869 -9.44619e-19)
(1.28784 -0.163685 2.30248e-18)
(1.28762 -0.157005 -2.53964e-19)
(1.28624 -0.149791 -2.92763e-19)
(1.28352 -0.142022 2.02234e-18)
(1.27932 -0.133693 3.30414e-18)
(1.27351 -0.124838 -9.2486e-19)
(1.26595 -0.115544 -4.17348e-18)
(1.25605 -0.106019 1.86727e-18)
(1.24357 -0.0968544 2.10032e-18)
(1.28774 -0.177747 8.03697e-19)
(1.28733 -0.170532 -8.25482e-19)
(1.28567 -0.16277 -1.02083e-18)
(1.28258 -0.154434 -1.05892e-19)
(1.27791 -0.145512 -1.42014e-18)
(1.27148 -0.136013 -2.31196e-18)
(1.26314 -0.125976 -5.76809e-19)
(1.25281 -0.115488 8.51464e-19)
(1.24037 -0.104708 1.8573e-18)
(1.22512 -0.0939602 -1.79722e-18)
(1.20663 -0.0841222 -1.4036e-18)
(1.28448 -0.176772 6.37535e-20)
(1.28105 -0.167779 5.96986e-19)
(1.27593 -0.158191 2.33166e-18)
(1.26895 -0.148012 5.40329e-19)
(1.25995 -0.137271 1.55917e-18)
(1.24878 -0.126024 -1.88197e-19)
(1.23533 -0.114366 -2.91868e-18)
(1.21957 -0.102446 5.11459e-19)
(1.20146 -0.0904966 1.61709e-18)
(1.18014 -0.0789512 2.34199e-18)
(1.15509 -0.0689331 -2.24755e-18)
(1.27339 -0.171823 -1.01234e-18)
(1.26588 -0.160845 1.10538e-18)
(1.25626 -0.149304 -5.53319e-19)
(1.24436 -0.137254 5.15846e-19)
(1.23008 -0.124777 5.93016e-19)
(1.2133 -0.111989 1.25083e-18)
(1.19397 -0.0990437 2.52066e-18)
(1.17216 -0.0861505 -3.30548e-18)
(1.1479 -0.073599 -4.29458e-19)
(1.1202 -0.0618919 -9.21134e-19)
(1.08857 -0.0523119 4.17654e-18)
(1.25207 -0.16219 2.33461e-18)
(1.23947 -0.14918 -3.56578e-18)
(1.22438 -0.135758 1.22163e-18)
(1.20671 -0.12204 1.8484e-18)
(1.1864 -0.10817 -4.4178e-18)
(1.16344 -0.094322 -5.82021e-19)
(1.13784 -0.0807019 -5.50048e-19)
(1.1098 -0.0675563 -1.18989e-18)
(1.0794 -0.0551901 -1.95213e-18)
(1.04551 -0.0441025 2.214e-19)
(1.00781 -0.0356017 -7.92079e-19)
(1.21824 -0.147427 1.99533e-18)
(1.19968 -0.132564 1.12132e-18)
(1.1784 -0.117587 -4.99016e-18)
(1.15439 -0.10268 -1.38004e-18)
(1.12771 -0.0880464 1.02658e-18)
(1.09844 -0.0739092 -2.09548e-18)
(1.0667 -0.0605003 1.9661e-18)
(1.03276 -0.0480588 2.91466e-18)
(0.996768 -0.0368306 1.90906e-18)
(0.957405 -0.0271965 9.20434e-19)
(0.914692 -0.0203203 -3.6752e-18)
(1.17005 -0.127521 -3.59538e-18)
(1.14499 -0.111229 2.57031e-18)
(1.11716 -0.0952748 -7.93462e-19)
(1.08668 -0.0799043 -4.81333e-19)
(1.05371 -0.065377 1.36281e-18)
(1.01848 -0.0519466 -4.93545e-19)
(0.981199 -0.0398391 -3.28152e-18)
(0.942238 -0.0292265 7.8274e-19)
(0.901732 -0.0201921 -4.24061e-18)
(0.858146 -0.0128295 -9.21571e-19)
(0.811903 -0.00794963 2.3787e-18)
(1.10669 -0.103325 2.5531e-18)
(1.07504 -0.0862951 7.19668e-19)
(1.04078 -0.070174 4.38886e-18)
(1.00416 -0.0552621 1.18956e-18)
(0.965464 -0.0418579 -2.60572e-19)
(0.925037 -0.0302307 2.60499e-18)
(0.883207 -0.0205765 2.50351e-18)
(0.84043 -0.0129533 -1.92267e-18)
(0.796806 -0.00717892 4.67305e-18)
(0.750571 -0.0028213 1.18752e-19)
(1.06315 -0.0930441 1.90915e-18)
(1.02787 -0.0748886 5.39022e-19)
(0.990032 -0.0579873 -6.634e-19)
(0.949947 -0.0426673 -2.15472e-18)
(0.907969 -0.0292552 2.00241e-18)
(0.8645 -0.0180622 -2.4566e-19)
(0.819966 -0.0093552 -5.27977e-19)
(0.774788 -0.0032995 -3.08901e-18)
(0.976577 -0.0590666 -7.94212e-19)
(0.935205 -0.0409068 -4.26585e-18)
(0.891679 -0.0247114 -1.8831e-18)
(0.846401 -0.0108185 1.80553e-18)
(0.799799 0.000461084 -3.91296e-18)
)
;

boundaryField
{
    inlet
    {
        type            uniformFixedValue;
        uniformValue    constant (1 0 0);
        value           nonuniform 0();
    }
    outlet
    {
        type            pressureInletOutletVelocity;
        value           nonuniform 0();
    }
    cylinder
    {
        type            fixedValue;
        value           nonuniform 0();
    }
    top
    {
        type            symmetryPlane;
    }
    bottom
    {
        type            symmetryPlane;
    }
    defaultFaces
    {
        type            empty;
    }
    procBoundary3to2
    {
        type            processor;
        value           nonuniform List<vector> 
33
(
(1.06746 -0.00231781 7.95931e-20)
(1.0683 -0.00688722 4.70589e-19)
(1.06987 -0.0113738 6.82428e-20)
(1.07211 -0.0158174 -1.01311e-19)
(1.07498 -0.0202568 1.12644e-19)
(1.07844 -0.024724 -1.9413e-19)
(1.08246 -0.029246 3.90401e-19)
(1.087 -0.033847 -9.56793e-20)
(1.09204 -0.0385475 2.42128e-19)
(1.09755 -0.043366 -8.89603e-20)
(1.10352 -0.0483187 -2.20275e-19)
(1.10992 -0.0534201 -1.32455e-19)
(1.11673 -0.0586833 -3.51848e-20)
(1.12394 -0.0641198 -8.0266e-22)
(1.13152 -0.06974 1.98818e-19)
(1.13945 -0.0755532 -7.02157e-19)
(1.14773 -0.0815677 6.26825e-19)
(1.15632 -0.0877908 2.17164e-19)
(1.16523 -0.0942293 -4.25813e-19)
(1.17443 -0.100889 2.42741e-19)
(1.18392 -0.107773 -8.24255e-19)
(1.19369 -0.114886 4.7346e-19)
(1.20373 -0.122224 -4.07263e-20)
(1.21402 -0.129778 2.32248e-19)
(1.22454 -0.137525 8.63275e-20)
(1.23522 -0.145415 -2.85245e-19)
(1.24596 -0.153358 5.13538e-19)
(1.25656 -0.161199 2.07698e-19)
(1.26668 -0.168685 1.61504e-19)
(1.27577 -0.17544 -8.12423e-19)
(1.28297 -0.18093 -1.34969e-18)
(1.28707 -0.184457 2.53387e-18)
(1.28641 -0.185183 -1.04333e-18)
)
;
    }
    procBoundary3to4
    {
        type            processor;
        value           nonuniform List<vector> 
24
(
(1.07599 -0.00212416 0)
(1.07698 -0.00631103 0)
(1.07889 -0.0104217 0)
(1.08163 -0.0144833 0)
(1.08515 -0.0185311 0)
(1.08941 -0.0225886 0)
(1.09438 -0.0266771 0)
(1.10001 -0.0308131 0)
(1.10629 -0.0350102 0)
(1.11319 -0.0392784 0)
(1.12068 -0.0436248 0)
(1.12875 -0.048054 0)
(1.13738 -0.0525674 0)
(1.14655 -0.0571637 0)
(1.15624 -0.0618386 0)
(1.16643 -0.0665846 0)
(1.1771 -0.0713904 0)
(1.18824 -0.0762397 0)
(1.19983 -0.0811088 0)
(1.21182 -0.085963 0)
(1.22416 -0.0907492 0)
(1.23673 -0.0953857 0)
(1.24932 -0.0997472 0)
(1.26155 -0.103647 0)
)
;
    }
    procBoundary3to8
    {
        type            processor;
        value           nonuniform List<vector> 
11
(
(0.867909 -0.0394163 1.61103e-18)
(0.912149 -0.0483455 2.98089e-18)
(0.912149 -0.0483455 2.98089e-18)
(1.27894 -0.182211 -4.43636e-19)
(1.2623 -0.174705 7.9626e-19)
(1.23411 -0.162026 1.54509e-18)
(1.19227 -0.143925 -3.31022e-18)
(1.13553 -0.120977 3.11859e-18)
(1.13553 -0.120977 3.11859e-18)
(1.09565 -0.112137 1.5824e-18)
(1.01544 -0.0788374 -2.12238e-18)
)
;
    }
    procBoundary3to9
    {
        type            processor;
        value           nonuniform List<vector> 
16
(
(0.775159 -0.016352 3.37307e-18)
(0.777216 -0.0135548 -5.51655e-19)
(0.777216 -0.0135548 -5.51655e-19)
(0.77715 -0.00882955 1.06558e-18)
(0.77715 -0.00882955 1.06558e-18)
(0.729964 -0.000807897 4.64563e-18)
(0.702449 -8.27422e-06 1.00463e-18)
(0.729525 0.000139917 2.2693e-18)
(0.684332 0.00138738 1.41799e-18)
(0.702449 -8.27422e-06 1.00463e-18)
(0.637342 0.00161911 -1.86113e-18)
(0.752312 0.00884642 7.13656e-19)
(0.704373 0.014099 -1.34313e-18)
(0.729525 0.000139917 2.2693e-18)
(0.65639 0.0160593 -1.95349e-19)
(0.752312 0.00884642 7.13656e-19)
)
;
    }
    procBoundary3to10
    {
        type            processor;
        value           nonuniform List<vector> 
13
(
(1.27279 -0.10682 0)
(1.28209 -0.108911 0)
(1.28809 -0.109486 0)
(1.28898 -0.108065 0)
(1.28257 -0.104199 0)
(1.26646 -0.0975621 0)
(1.2383 -0.0880722 0)
(1.19621 -0.0759778 0)
(1.13908 -0.0618977 0)
(1.06691 -0.0467821 0)
(0.980827 -0.0318001 0)
(0.883055 -0.0182038 0)
(0.776531 -0.00719039 0)
)
;
    }
}


// ************************************************************************* //
