/*--------------------------------*- C++ -*----------------------------------*\
  =========                 |
  \\      /  F ield         | OpenFOAM: The Open Source CFD Toolbox
   \\    /   O peration     | Website:  https://openfoam.org
    \\  /    A nd           | Version:  7
     \\/     M anipulation  |
\*---------------------------------------------------------------------------*/
FoamFile
{
    version     2.0;
    format      ascii;
    class       surfaceScalarField;
    location    "4.2";
    object      phi;
}
// * * * * * * * * * * * * * * * * * * * * * * * * * * * * * * * * * * * * * //

dimensions      [0 3 -1 0 0 0 0];

internalField   nonuniform List<scalar> 
615
(
0.000195032
-1.69395e-06
0.000195495
-1.66591e-06
0.00019595
-1.63843e-06
0.000196396
-1.6115e-06
0.000196835
-1.58509e-06
0.000197266
-1.55921e-06
0.000197689
-1.53382e-06
0.000198105
-1.50893e-06
0.000198514
-1.48451e-06
0.000198916
-1.46057e-06
0.000199311
-1.43707e-06
0.000199699
-1.41402e-06
0.00020008
-1.39141e-06
0.000200455
-1.36922e-06
0.000200824
-1.34744e-06
0.000201186
-1.32606e-06
0.000201542
-1.30508e-06
0.000201893
-1.28449e-06
0.000202237
-1.26427e-06
0.000202576
-1.24442e-06
0.000202909
-1.22493e-06
0.000203237
-1.20579e-06
0.000203559
-1.187e-06
0.000203876
-1.16855e-06
0.000204188
-1.15043e-06
0.000204495
-1.13263e-06
0.000204797
-1.11515e-06
0.000205094
-1.09797e-06
0.000205386
-1.0811e-06
0.000205674
-1.06453e-06
0.000205957
-1.04825e-06
0.000206235
-1.03225e-06
0.000206509
-1.01653e-06
0.000206779
-1.00109e-06
0.000207045
-9.8591e-07
0.000207306
-9.70996e-07
0.000207563
-9.5634e-07
0.000207816
-9.41937e-07
0.000208066
-9.27782e-07
0.000208311
-9.13869e-07
0.000208553
-9.00196e-07
0.000208791
-8.86758e-07
0.000209025
-8.7355e-07
0.000209255
-8.60568e-07
0.000209483
-8.47809e-07
0.000209706
-8.3527e-07
0.000209927
-8.22947e-07
0.000210144
-8.10838e-07
0.000210357
-7.98939e-07
0.000210568
-7.87249e-07
0.000210775
-7.75765e-07
0.000210979
-7.64486e-07
0.00021118
-7.53411e-07
0.000211379
-7.42539e-07
0.000211574
-7.31871e-07
0.000211767
-7.21408e-07
0.000211956
-7.1115e-07
-7.01101e-07
0.000224472
-2.57801e-06
0.000225063
-2.53173e-06
0.000225643
-2.48654e-06
0.00022621
-2.4424e-06
0.000226766
-2.39926e-06
0.000227311
-2.35711e-06
0.000227846
-2.3159e-06
0.000228369
-2.2756e-06
0.000228883
-2.23619e-06
0.000229387
-2.19764e-06
0.000229881
-2.15992e-06
0.000230365
-2.12301e-06
0.000230841
-2.08689e-06
0.000231307
-2.05152e-06
0.000231765
-2.0169e-06
0.000232214
-1.98299e-06
0.000232655
-1.94978e-06
0.000233088
-1.91726e-06
0.000233512
-1.88539e-06
0.000233929
-1.85417e-06
0.000234339
-1.82358e-06
0.000234741
-1.79359e-06
0.000235136
-1.7642e-06
0.000235524
-1.73539e-06
0.000235905
-1.70715e-06
0.00023628
-1.67946e-06
0.000236647
-1.6523e-06
0.000237009
-1.62567e-06
0.000237364
-1.59955e-06
0.000237713
-1.57393e-06
0.000238056
-1.5488e-06
0.000238393
-1.52414e-06
0.000238724
-1.49995e-06
0.00023905
-1.47621e-06
0.000239371
-1.45292e-06
0.000239685
-1.43005e-06
0.000239995
-1.40761e-06
0.0002403
-1.38559e-06
0.000240599
-1.36397e-06
0.000240894
-1.34274e-06
0.000241183
-1.3219e-06
0.000241468
-1.30144e-06
0.000241748
-1.28135e-06
0.000242024
-1.26162e-06
0.000242295
-1.24224e-06
0.000242562
-1.22321e-06
0.000242825
-1.20452e-06
0.000243083
-1.18617e-06
0.000243337
-1.16814e-06
0.000243588
-1.15043e-06
0.000243834
-1.13303e-06
0.000244076
-1.11594e-06
0.000244315
-1.09915e-06
0.00024455
-1.08266e-06
0.000244781
-1.06646e-06
0.000245009
-1.05055e-06
0.000245233
-1.03492e-06
0.000245453
-1.01957e-06
0.00024567
-1.00449e-06
0.000245884
-9.89693e-07
0.000246095
-9.75162e-07
0.000246303
-9.60899e-07
0.000246507
-9.46905e-07
0.000246708
-9.33178e-07
0.000246907
-9.19719e-07
0.000247102
-9.06532e-07
-8.93617e-07
0.000257811
-3.19751e-06
0.000258416
-3.13743e-06
0.000259009
-3.07886e-06
0.000259588
-3.02175e-06
0.000260155
-2.96605e-06
0.00026071
-2.9117e-06
0.000261252
-2.85866e-06
0.000261784
-2.80688e-06
0.000262304
-2.75633e-06
0.000262813
-2.70696e-06
0.000263312
-2.65872e-06
0.0002638
-2.6116e-06
0.000264279
-2.56554e-06
0.000264748
-2.52053e-06
0.000265208
-2.47651e-06
0.000265658
-2.43347e-06
0.0002661
-2.39138e-06
0.000266533
-2.35021e-06
0.000266957
-2.30992e-06
0.000267374
-2.2705e-06
0.000267782
-2.23192e-06
0.000268183
-2.19416e-06
0.000268576
-2.15719e-06
0.000268961
-2.121e-06
0.00026934
-2.08555e-06
0.000269711
-2.05083e-06
0.000270075
-2.01683e-06
0.000270433
-1.98351e-06
0.000270785
-1.95087e-06
0.00027113
-1.91889e-06
0.000271468
-1.88754e-06
0.000271801
-1.85682e-06
0.000272128
-1.8267e-06
0.000272449
-1.79718e-06
0.000272764
-1.76823e-06
0.000273074
-1.73985e-06
0.000273378
-1.71201e-06
0.000273677
-1.68471e-06
0.000273971
-1.65793e-06
0.00027426
-1.63166e-06
0.000274544
-1.60589e-06
0.000274823
-1.5806e-06
0.000275098
-1.55579e-06
0.000275368
-1.53144e-06
0.000275633
-1.50755e-06
0.000275894
-1.4841e-06
0.00027615
-1.46108e-06
0.000276403
-1.43849e-06
0.000276651
-1.41631e-06
0.000276895
-1.39454e-06
0.000277135
-1.37316e-06
0.000277371
-1.35218e-06
0.000277604
-1.33158e-06
0.000277832
-1.31135e-06
0.000278057
-1.29149e-06
0.000278279
-1.27199e-06
0.000278497
-1.25285e-06
0.000278711
-1.23406e-06
0.000278922
-1.21562e-06
0.00027913
-1.19751e-06
0.000279335
-1.17975e-06
0.000279536
-1.16232e-06
0.000279735
-1.14523e-06
0.00027993
-1.12847e-06
0.000280122
-1.11205e-06
0.000280312
-1.09597e-06
-1.08022e-06
0.000290078
-3.79853e-06
0.000290665
-3.7238e-06
0.000291237
-3.65109e-06
0.000291796
-3.58032e-06
0.000292341
-3.51141e-06
0.000292874
-3.44431e-06
0.000293394
-3.37893e-06
0.000293902
-3.31522e-06
0.000294399
-3.25312e-06
0.000294885
-3.19257e-06
0.000295359
-3.13352e-06
0.000295824
-3.07591e-06
0.000296278
-3.01969e-06
0.000296722
-2.96483e-06
0.000297157
-2.91126e-06
0.000297582
-2.85896e-06
0.000297999
-2.80788e-06
0.000298407
-2.75798e-06
0.000298806
-2.70923e-06
0.000299197
-2.66158e-06
0.00029958
-2.61501e-06
0.000299955
-2.56948e-06
0.000300323
-2.52496e-06
0.000300684
-2.48142e-06
0.000301037
-2.43884e-06
0.000301383
-2.39718e-06
0.000301723
-2.35641e-06
0.000302056
-2.31652e-06
0.000302383
-2.27747e-06
0.000302703
-2.23925e-06
0.000303017
-2.20183e-06
0.000303326
-2.16519e-06
0.000303628
-2.1293e-06
0.000303925
-2.09415e-06
0.000304217
-2.05972e-06
0.000304503
-2.02598e-06
0.000304784
-1.99293e-06
0.000305059
-1.96054e-06
0.00030533
-1.92879e-06
0.000305596
-1.89767e-06
0.000305858
-1.86717e-06
0.000306114
-1.83726e-06
0.000306366
-1.80793e-06
0.000306614
-1.77918e-06
0.000306858
-1.75097e-06
0.000307097
-1.72331e-06
0.000307332
-1.69618e-06
0.000307563
-1.66956e-06
0.00030779
-1.64345e-06
0.000308013
-1.61783e-06
0.000308233
-1.5927e-06
0.000308449
-1.56804e-06
0.000308661
-1.54384e-06
0.00030887
-1.52009e-06
0.000309075
-1.49679e-06
0.000309277
-1.47392e-06
0.000309476
-1.45148e-06
0.000309671
-1.42947e-06
0.000309863
-1.40787e-06
0.000310052
-1.38668e-06
0.000310239
-1.3659e-06
0.000310422
-1.34552e-06
0.000310602
-1.32554e-06
0.00031078
-1.30597e-06
0.000310954
-1.28679e-06
0.000311126
-1.26801e-06
-1.24964e-06
0.000320755
-4.34374e-06
0.000321286
-4.25436e-06
0.000321802
-4.16757e-06
0.000322305
-4.08325e-06
0.000322795
-4.0013e-06
0.000323273
-3.92164e-06
0.000323738
-3.84416e-06
0.000324191
-3.76879e-06
0.000324634
-3.69545e-06
0.000325065
-3.62405e-06
0.000325486
-3.55453e-06
0.000325897
-3.48682e-06
0.000326298
-3.42084e-06
0.00032669
-3.35655e-06
0.000327073
-3.29387e-06
0.000327446
-3.23276e-06
0.000327812
-3.17315e-06
0.000328169
-3.115e-06
0.000328518
0.000328859
0.000329193
0.000329519
0.000329839
0.000330152
0.000330458
0.000330757
0.000331051
0.000331338
0.000331619
0.000331895
0.000332165
0.00033243
0.00033269
0.000332944
0.000333194
0.000333439
0.000333678
0.000333914
0.000334145
0.000334371
0.000334594
0.000334812
0.000335026
0.000335236
0.000335443
0.000335646
0.000335845
0.00033604
0.000336232
0.000336421
0.000336606
0.000336789
0.000336968
0.000337143
0.000337316
0.000337486
0.000337653
0.000337818
0.000337979
0.000338138
0.000338294
0.000338448
0.000338599
0.000338748
0.000338895
0.000339039
0.00034919
0.000349629
0.000350054
0.000350466
0.000350867
0.000351256
0.000351634
0.000352002
0.00035236
0.000352708
0.000353046
0.000353376
0.000353697
0.000354009
0.000354314
0.000354611
0.0003549
)
;

boundaryField
{
    inlet
    {
        type            calculated;
        value           nonuniform 0();
    }
    outlet
    {
        type            calculated;
        value           nonuniform 0();
    }
    wall
    {
        type            calculated;
        value           nonuniform 0();
    }
    wedge1
    {
        type            wedge;
        value           nonuniform List<scalar> 
344
(
3.90642e-16
6.32049e-17
4.58754e-16
6.9351e-17
4.84847e-16
3.83707e-16
6.20049e-17
4.49832e-16
6.7903e-17
4.74485e-16
3.77136e-16
6.10612e-17
4.41332e-16
6.66596e-17
4.64589e-16
3.70609e-16
5.98258e-17
4.32942e-16
6.52057e-17
4.54934e-16
3.641e-16
5.88851e-17
4.24681e-16
6.40113e-17
4.45484e-16
3.57817e-16
5.76947e-17
4.16743e-16
6.26466e-17
4.36408e-16
3.51551e-16
5.67997e-17
4.08899e-16
6.15278e-17
4.27506e-16
3.45603e-16
5.56338e-17
4.01341e-16
6.02191e-17
4.18949e-16
3.39633e-16
5.47868e-17
3.93877e-16
5.91534e-17
4.10541e-16
4.45662e-17
3.33878e-16
5.3675e-17
3.86692e-16
5.79146e-17
4.02457e-16
4.36675e-17
3.28096e-16
5.28385e-17
3.79577e-16
5.69072e-17
3.9449e-16
4.29141e-17
3.22643e-16
5.17699e-17
3.72732e-16
5.57221e-17
3.86846e-16
4.23428e-17
3.1714e-16
5.09857e-17
3.6594e-16
5.47708e-17
3.79294e-16
4.16312e-17
3.11959e-16
4.99678e-17
3.59461e-16
5.36426e-17
3.7208e-16
4.05412e-17
3.06495e-16
4.90114e-17
3.52941e-16
5.26375e-17
3.64884e-16
3.99039e-17
3.01246e-16
4.83164e-17
3.46701e-16
5.18076e-17
3.57998e-16
3.92947e-17
2.96306e-16
4.74266e-17
3.4056e-16
5.08139e-17
3.51263e-16
3.87024e-17
2.91448e-16
4.65729e-17
3.34554e-16
4.9849e-17
3.44685e-16
3.81314e-17
2.86684e-16
4.57641e-17
3.28687e-16
4.89241e-17
3.75922e-17
2.82001e-16
4.49824e-17
3.22947e-16
4.80293e-17
3.70525e-17
2.77414e-16
4.42002e-17
3.17339e-16
4.71392e-17
3.65044e-17
2.72925e-16
4.34458e-17
3.11845e-16
4.62777e-17
3.59721e-17
2.68513e-16
4.27308e-17
3.06476e-16
4.54453e-17
3.54638e-17
2.64183e-16
4.20205e-17
3.0123e-16
4.46163e-17
3.49636e-17
2.5994e-16
4.13092e-17
2.96078e-16
4.38048e-17
3.44715e-17
2.55802e-16
4.06295e-17
2.91069e-16
4.3042e-17
3.39558e-17
2.51651e-16
3.99249e-17
2.86088e-16
4.22429e-17
3.35441e-17
2.47779e-16
3.94361e-17
2.81389e-16
4.16257e-17
3.29872e-17
2.4393e-16
3.86765e-17
2.76739e-16
4.0797e-17
3.26041e-17
2.39989e-16
3.81897e-17
2.72066e-16
4.01991e-17
3.2005e-17
2.36228e-16
3.74629e-17
2.67622e-16
3.94086e-17
3.12983e-17
2.3233e-16
3.69417e-17
2.63094e-16
3.88101e-17
3.09123e-17
2.28895e-16
3.62733e-17
2.589e-16
3.80868e-17
3.03993e-17
2.24998e-16
3.56543e-17
2.54475e-16
3.74118e-17
2.9701e-17
2.21484e-16
3.50452e-17
2.5031e-16
3.67629e-17
2.92092e-17
2.17923e-16
3.44441e-17
2.46224e-16
3.61416e-17
2.85581e-17
2.14501e-16
3.38642e-17
2.42228e-16
3.55297e-17
2.81133e-17
2.11091e-16
3.32919e-17
2.38298e-16
3.49384e-17
2.74972e-17
2.07809e-16
3.27468e-17
2.34435e-16
3.43419e-17
2.70488e-17
2.04482e-16
3.22004e-17
2.30652e-16
3.37642e-17
2.64193e-17
2.01295e-16
3.16603e-17
2.26957e-16
3.3192e-17
2.59988e-17
1.9808e-16
3.11063e-17
2.23299e-16
3.26304e-17
2.54144e-17
1.95004e-16
3.05643e-17
2.19716e-16
3.20778e-17
2.5013e-17
1.91904e-16
3.00228e-17
2.1619e-16
3.15416e-17
2.43575e-17
1.8896e-16
2.95464e-17
2.12802e-16
3.10456e-17
2.40119e-17
1.86012e-16
2.89538e-17
2.09393e-16
3.04303e-17
2.36037e-17
1.82861e-16
2.84031e-17
2.05913e-16
2.98852e-17
2.30422e-17
1.80093e-16
2.79089e-17
2.02686e-16
2.93841e-17
2.26897e-17
1.77287e-16
2.74366e-17
1.99513e-16
2.89059e-17
2.217e-17
1.746e-16
2.69916e-17
1.96399e-16
2.84266e-17
2.18507e-17
1.71881e-16
2.65289e-17
1.93334e-16
2.79514e-17
2.13493e-17
1.69267e-16
2.60778e-17
1.90311e-16
2.74942e-17
2.10145e-17
1.66634e-16
2.56227e-17
1.87338e-16
2.7033e-17
2.053e-17
1.64108e-16
2.51796e-17
1.84421e-16
2.65841e-17
2.02058e-17
1.61537e-16
2.47413e-17
1.81569e-16
2.61485e-17
1.97419e-17
1.59107e-16
2.43327e-17
1.78773e-16
2.5728e-17
1.94524e-17
1.56649e-16
2.3924e-17
1.76048e-16
2.53198e-17
1.89933e-17
1.54305e-16
2.35283e-17
1.73354e-16
2.49264e-17
1.87113e-17
1.51931e-16
2.3123e-17
1.70707e-16
2.45241e-17
1.82604e-17
1.4965e-16
2.27337e-17
1.68112e-16
2.41355e-17
1.8002e-17
1.47343e-16
2.23354e-17
1.65569e-16
2.37543e-17
1.75789e-17
1.45175e-16
2.1959e-17
1.6307e-16
2.33758e-17
1.7345e-17
1.42973e-16
2.15935e-17
1.60609e-16
2.30094e-17
1.6925e-17
1.4088e-16
2.12425e-17
1.58212e-16
2.265e-17
1.66926e-17
1.38744e-16
2.08764e-17
1.55858e-16
2.22886e-17
1.63075e-17
1.36735e-16
2.05354e-17
1.53547e-16
2.19447e-17
1.61003e-17
1.34691e-16
2.01887e-17
1.51287e-16
2.16127e-17
)
;
    }
    wedge2
    {
        type            wedge;
        value           nonuniform List<scalar> 
344
(
3.86318e-16
6.00016e-17
4.56533e-16
6.80281e-17
4.84392e-16
3.79538e-16
5.89239e-17
4.47749e-16
6.66917e-17
4.74242e-16
3.72702e-16
5.76461e-17
4.39008e-16
6.52296e-17
4.64242e-16
3.66129e-16
5.67138e-17
4.30608e-16
6.40537e-17
4.54592e-16
3.59831e-16
5.5539e-17
4.22511e-16
6.26906e-17
4.45302e-16
3.53589e-16
5.46642e-17
4.14506e-16
6.15672e-17
4.36182e-16
3.47604e-16
5.35422e-17
4.06809e-16
6.02651e-17
4.27408e-16
3.41566e-16
5.27384e-17
3.99212e-16
5.92172e-17
4.18787e-16
3.35807e-16
5.16607e-17
3.91895e-16
5.79882e-17
4.10496e-16
3.9947e-17
3.30081e-16
5.08919e-17
3.84659e-16
5.69921e-17
4.02342e-16
3.94795e-17
3.24625e-16
4.98903e-17
3.77699e-16
5.58223e-17
3.94513e-16
3.88777e-17
3.19074e-16
4.91618e-17
3.70807e-16
5.48852e-17
3.86786e-16
3.81203e-17
3.138e-16
4.81888e-17
3.64186e-16
5.37679e-17
3.79378e-16
3.751e-17
3.08426e-16
4.74881e-17
3.57566e-16
5.28792e-17
3.72026e-16
3.73401e-17
3.03551e-16
4.67532e-17
3.51295e-16
5.19107e-17
3.65036e-16
3.67234e-17
2.98674e-16
4.58138e-17
3.45036e-16
5.0828e-17
3.58101e-16
3.61022e-17
2.93687e-16
4.50942e-17
3.38962e-16
4.9949e-17
3.51367e-16
3.54872e-17
2.88817e-16
4.43728e-17
3.3303e-16
4.90863e-17
3.44817e-16
3.48736e-17
2.84046e-16
4.36398e-17
3.27227e-16
4.8227e-17
3.42501e-17
2.79382e-16
4.29124e-17
3.21556e-16
4.73794e-17
3.36483e-17
2.74805e-16
4.22165e-17
3.16006e-16
4.6568e-17
3.30763e-17
2.70309e-16
4.15237e-17
3.10586e-16
4.57675e-17
3.2509e-17
2.6591e-16
4.0821e-17
3.05279e-16
4.49758e-17
3.19377e-17
2.616e-16
4.01429e-17
3.00079e-16
4.42177e-17
3.13778e-17
2.57368e-16
3.94937e-17
2.95009e-16
4.34782e-17
3.08289e-17
2.53193e-16
3.88406e-17
2.90013e-16
4.27244e-17
3.03226e-17
2.49188e-16
3.82392e-17
2.85201e-16
4.20407e-17
2.97308e-17
2.45054e-16
3.74478e-17
2.80309e-16
4.12079e-17
2.93017e-17
2.41053e-16
3.69529e-17
2.75571e-16
4.06181e-17
2.87166e-17
2.3729e-16
3.62099e-17
2.7105e-16
3.98286e-17
2.83511e-17
2.33491e-16
3.57309e-17
2.66491e-16
3.92614e-17
2.81373e-17
2.2997e-16
3.50698e-17
2.62199e-16
3.85312e-17
2.76055e-17
2.26124e-16
3.45791e-17
2.57752e-16
3.79542e-17
2.72032e-17
2.22878e-16
3.40611e-17
2.53714e-16
3.73559e-17
2.70298e-17
2.19376e-16
3.35551e-17
2.49582e-16
3.67586e-17
2.66389e-17
2.16048e-16
3.30626e-17
2.45537e-16
3.61598e-17
2.64474e-17
2.12707e-16
3.25695e-17
2.41564e-16
3.55764e-17
2.60412e-17
2.09475e-16
3.20892e-17
2.37682e-16
3.49972e-17
2.58424e-17
2.06237e-16
3.16015e-17
2.33886e-16
3.44471e-17
2.54675e-17
2.03161e-16
3.11345e-17
2.30159e-16
3.39013e-17
2.53117e-17
2.00058e-16
3.068e-17
2.26491e-16
3.33728e-17
2.49382e-17
1.97097e-16
3.02579e-17
2.22927e-16
3.28558e-17
2.47627e-17
1.94106e-16
2.9842e-17
2.19427e-16
3.2351e-17
2.43962e-17
1.91248e-16
2.94431e-17
2.16005e-16
3.18513e-17
2.43184e-17
1.88338e-16
2.89965e-17
2.12578e-16
3.13312e-17
2.39324e-17
1.8553e-16
2.86831e-17
2.09298e-16
3.09506e-17
2.36118e-17
1.83038e-16
2.8344e-17
2.06221e-16
3.05192e-17
2.34765e-17
1.80257e-16
2.79648e-17
2.03011e-16
3.00628e-17
2.31243e-17
1.7761e-16
2.75795e-17
1.99868e-16
2.96021e-17
2.29711e-17
1.74939e-16
2.71823e-17
1.96783e-16
2.91604e-17
2.26094e-17
1.72395e-16
2.68181e-17
1.93765e-16
2.87323e-17
2.24602e-17
1.69837e-16
2.64571e-17
1.90818e-16
2.83035e-17
2.21375e-17
1.67389e-16
2.61148e-17
1.87931e-16
2.78955e-17
2.19928e-17
1.64921e-16
2.57748e-17
1.85097e-16
2.74918e-17
2.16815e-17
1.62586e-16
2.54439e-17
1.82303e-16
2.7091e-17
2.15375e-17
1.60196e-16
2.50971e-17
1.79558e-16
2.6691e-17
2.12128e-17
1.57917e-16
2.47642e-17
1.76845e-16
2.62942e-17
2.10847e-17
1.55608e-16
2.44315e-17
1.74201e-16
2.58979e-17
2.07734e-17
1.53412e-16
2.41217e-17
1.7161e-16
2.55257e-17
2.06572e-17
1.51203e-16
2.38088e-17
1.69063e-16
2.51544e-17
2.03428e-17
1.491e-16
2.35179e-17
1.66563e-16
2.47904e-17
2.02185e-17
1.46939e-16
2.3218e-17
1.64114e-16
2.44385e-17
1.98997e-17
1.44891e-16
2.29196e-17
1.61721e-16
2.40885e-17
1.97921e-17
1.42813e-16
2.26194e-17
1.59359e-16
2.37459e-17
1.94927e-17
1.40857e-16
2.23471e-17
1.57049e-16
2.34196e-17
1.93691e-17
1.38854e-16
2.20622e-17
1.54791e-16
2.309e-17
1.90651e-17
1.36966e-16
2.17958e-17
1.52576e-16
2.27627e-17
)
;
    }
    axis
    {
        type            empty;
        value           nonuniform 0();
    }
    procBoundary7to1
    {
        type            processor;
        value           nonuniform List<scalar> 
68
(
1.22251e-06
1.20295e-06
1.18375e-06
1.1649e-06
1.1464e-06
1.12824e-06
1.11042e-06
1.09291e-06
1.07572e-06
1.05884e-06
1.04227e-06
1.02598e-06
1.00999e-06
9.94279e-07
9.78845e-07
9.63682e-07
9.48783e-07
9.34145e-07
9.19762e-07
9.05627e-07
8.91737e-07
8.78087e-07
8.64671e-07
8.51485e-07
8.38525e-07
8.25787e-07
8.13265e-07
8.00955e-07
7.88855e-07
7.76959e-07
7.65264e-07
7.53765e-07
7.4246e-07
7.31345e-07
7.20416e-07
7.0967e-07
6.99103e-07
6.88713e-07
6.78496e-07
6.68449e-07
6.58569e-07
6.48854e-07
6.39301e-07
6.29907e-07
6.2067e-07
6.11588e-07
6.02658e-07
5.9388e-07
5.8525e-07
5.76768e-07
5.68432e-07
5.60242e-07
5.52197e-07
5.44297e-07
5.36541e-07
5.28931e-07
5.21469e-07
5.14156e-07
1.97447e-06
1.94055e-06
1.90738e-06
1.87492e-06
1.84315e-06
1.81205e-06
1.7816e-06
1.75178e-06
-0.000194561
1.72257e-06
)
;
    }
    procBoundary7to6
    {
        type            processor;
        value           nonuniform List<scalar> 4(-0.000223869 -0.000257191 -0.000289477 -0.00032021);
    }
    procBoundary7to8
    {
        type            processor;
        value           nonuniform List<scalar> 5(0.000212143 0.000247294 0.000280498 0.000311296 0.000339181);
    }
    procBoundary7to12
    {
        type            processor;
        value           uniform -0.000348739;
    }
    procBoundary7to13
    {
        type            processor;
        value           nonuniform List<scalar> 
68
(
-3.05826e-06
-3.00288e-06
-2.94882e-06
-2.89603e-06
-2.84448e-06
-2.79412e-06
-2.74491e-06
-2.69683e-06
-2.64983e-06
-2.60388e-06
-2.55896e-06
-2.51502e-06
-2.47205e-06
-2.43001e-06
-2.38888e-06
-2.34862e-06
-2.30923e-06
-2.27066e-06
-2.2329e-06
-2.19593e-06
-2.15972e-06
-2.12426e-06
-2.08952e-06
-2.05549e-06
-2.02214e-06
-1.98946e-06
-1.95743e-06
-1.92604e-06
-1.89527e-06
-1.8651e-06
-1.83552e-06
-1.80652e-06
-1.77808e-06
-1.75019e-06
-1.72283e-06
-1.69601e-06
-1.6697e-06
-1.64389e-06
-1.61859e-06
-1.59377e-06
-1.56943e-06
-1.54557e-06
-1.52217e-06
-1.49924e-06
-1.47677e-06
-1.45476e-06
-1.43321e-06
-1.41211e-06
-1.39149e-06
-4.79541e-06
-4.69244e-06
-4.59263e-06
-4.49586e-06
-4.40197e-06
-4.31086e-06
-4.22241e-06
-4.13651e-06
-4.05305e-06
-3.97193e-06
-3.89307e-06
-3.81637e-06
-3.74176e-06
-3.66914e-06
-3.59846e-06
-3.52963e-06
-3.46259e-06
0.000355182
-3.39727e-06
)
;
    }
}


// ************************************************************************* //
