0.228072 	0.456831 	-2.0895e-18 	1.04527
0.230412 	0.461517 	-1.77843e-18 	1.04454
0.233163 	0.467027 	-1.07757e-18 	1.04417
0.237751 	0.476218 	-9.40578e-19 	1.04389
0.240091 	0.480904 	-2.35173e-18 	1.04326
0.242521 	0.485771 	-2.6337e-18 	1.04315
0.247199 	0.495143 	-1.58264e-18 	1.04312
