/*--------------------------------*- C++ -*----------------------------------*\
  =========                 |
  \\      /  F ield         | OpenFOAM: The Open Source CFD Toolbox
   \\    /   O peration     | Website:  https://openfoam.org
    \\  /    A nd           | Version:  7
     \\/     M anipulation  |
\*---------------------------------------------------------------------------*/
FoamFile
{
    version     2.0;
    format      ascii;
    class       volVectorField;
    location    "21";
    object      U;
}
// * * * * * * * * * * * * * * * * * * * * * * * * * * * * * * * * * * * * * //

dimensions      [0 1 -1 0 0 0 0];

internalField   nonuniform List<vector> 
433
(
(0.000534511 0.024679 -1.05851e-18)
(0.000770272 0.0266445 -1.31636e-18)
(0.00200608 0.0276968 2.21718e-19)
(0.00407486 0.0281034 -5.72526e-19)
(0.0142198 0.0238752 -1.83189e-19)
(0.0104869 0.0258038 -2.46343e-19)
(0.00765043 0.0270121 1.10514e-18)
(0.00611562 0.0277173 7.02863e-19)
(0.0058802 0.0280736 -8.04744e-19)
(0.00681481 0.0281401 1.55382e-18)
(0.00882601 0.0279634 1.16543e-18)
(0.0118461 0.0275753 -1.50626e-18)
(0.0158186 0.0269864 -3.82829e-19)
(-0.129376 0.102716 6.51714e-19)
(-0.0748227 0.0712966 -3.44226e-18)
(-0.0420448 0.0547497 -1.53848e-18)
(-0.022875 0.0453745 1.09687e-18)
(-0.0117371 0.0392789 -1.52089e-18)
(-0.0049888 0.0350147 2.00757e-18)
(-0.000328791 0.0320496 4.5157e-19)
(0.00349172 0.0300221 -1.21933e-18)
(0.00711819 0.0286132 4.91358e-19)
(0.0109423 0.0275771 -1.05109e-18)
(0.0152297 0.026726 -1.00401e-18)
(0.0201667 0.0259064 1.11967e-18)
(0.0258831 0.0250148 1.15591e-18)
(0.0324782 0.0240025 -5.22666e-18)
(-0.729119 1.41519 -6.30474e-18)
(-0.475664 0.80028 5.63068e-18)
(-0.291511 0.418252 -2.34995e-18)
(-0.174667 0.204086 7.86426e-19)
(-0.106705 0.0951763 6.41299e-19)
(-0.0681298 0.0453421 1.37885e-18)
(-0.0451552 0.0253691 -3.00337e-20)
(-0.0299088 0.0189401 -2.24524e-18)
(-0.0184027 0.0180427 9.02183e-19)
(-0.00906538 0.0190322 2.09839e-18)
(-0.00128887 0.0204105 -1.91786e-18)
(0.00544215 0.0216105 -3.26217e-19)
(0.011628 0.0224647 8.58591e-19)
(0.0176767 0.0229369 7.37528e-19)
(0.023932 0.0230284 -2.0648e-18)
(0.0306741 0.0227513 3.87843e-18)
(0.038127 0.0221316 -2.13833e-18)
(0.0464645 0.0212088 2.01001e-18)
(0.055821 0.0200389 -5.36851e-18)
(-2.20486 3.58882 -4.13149e-17)
(-1.63586 2.75668 2.29126e-17)
(-1.01929 1.85153 -7.18956e-18)
(-0.527547 1.09386 -2.64404e-19)
(-0.208292 0.559347 8.36836e-18)
(-0.036523 0.232154 6.68175e-19)
(0.036545 0.0588917 -3.21725e-19)
(0.0556714 -0.0166364 -3.28111e-19)
(0.0508792 -0.0388245 5.91551e-19)
(0.0392527 -0.0363304 3.99365e-19)
(0.0287434 -0.0249666 -2.21697e-18)
(0.0219936 -0.0123797 2.58763e-18)
(0.0191939 -0.00152617 -8.16514e-19)
(0.0195127 0.00674334 3.05382e-19)
(0.0219189 0.0124771 -6.61306e-19)
(0.0258365 0.0161756 -4.37395e-20)
(0.0310167 0.0183638 -1.48975e-18)
(0.0373528 0.0194416 -2.40626e-19)
(0.0448228 0.0196984 5.7782e-19)
(0.0534496 0.0193412 1.35182e-18)
(0.0632803 0.0185207 -5.48131e-18)
(0.0743721 0.0173516 2.5013e-18)
(0.0867881 0.0159346 -1.39272e-19)
(-0.274016 -7.15235 -1.18609e-18)
(-1.73018 -4.13084 2.52797e-19)
(-2.50628 -1.60641 -1.53577e-18)
(-2.50841 -0.0409921 1.18598e-18)
(-1.99764 0.656354 -1.8242e-19)
(-1.32115 0.797597 4.5341e-18)
(-0.719313 0.670397 -1.43511e-18)
(-0.289636 0.462909 -3.59292e-18)
(-0.0324632 0.271735 6.26172e-18)
(0.0946855 0.133802 1.53354e-18)
(0.139679 0.0516707 -5.38156e-19)
(0.140277 0.0121043 -4.48185e-18)
(0.121497 -0.00119932 1.05136e-18)
(0.0977981 -0.00122279 1.27157e-18)
(0.0764606 0.00370919 -2.25452e-18)
(0.0602361 0.00927624 1.322e-18)
(0.0494244 0.01368 -6.48138e-19)
(0.0434164 0.0165663 1.6508e-18)
(0.0415139 0.0182519 -1.1083e-18)
(0.042941 0.0190811 2.88729e-19)
(0.0470273 0.0192864 -4.58945e-20)
(0.0533125 0.0190378 -3.24513e-19)
(0.0614905 0.0184498 -9.96913e-20)
(0.0713683 0.0175965 -2.15861e-18)
(0.0828338 0.016522 2.69404e-18)
(0.0958353 0.0152533 -7.36077e-19)
(0.110368 0.0138097 2.40674e-18)
(0.126451 0.0122019 -4.0487e-18)
(-0.967577 4.48061 4.62655e-17)
(-0.371188 2.57185 -4.56371e-18)
(0.769409 -0.278135 1.21506e-17)
(1.77671 -3.1188 -1.03543e-17)
(2.07866 -4.92125 5.31643e-18)
(1.61293 -5.2239 -2.15817e-17)
(0.770581 -4.36048 2.71684e-17)
(-0.0123268 -3.01382 3.75241e-18)
(-0.529191 -1.73263 1.2052e-17)
(-0.773262 -0.776322 1.35151e-17)
(-0.81128 -0.187436 -5.73481e-17)
(-0.712863 0.103144 2.17812e-17)
(-0.543658 0.199557 -5.51511e-18)
(-0.362735 0.196088 5.40379e-18)
(-0.209086 0.157991 -6.30742e-18)
(-0.0980455 0.119102 1.55501e-18)
(-0.0282491 0.0904049 2.79354e-19)
(0.0100802 0.0716557 -2.47824e-18)
(0.0282207 0.0592871 3.02276e-18)
(0.0353132 0.050112 1.04405e-19)
(0.037792 0.042571 1.05043e-18)
(0.0394092 0.036246 -3.31428e-18)
(0.0418565 0.0310577 1.09036e-18)
(0.0457185 0.026835 -1.08398e-18)
(0.051288 0.0234843 -1.66828e-18)
(0.0586266 0.0208713 3.05085e-18)
(0.0676948 0.0188265 -4.35816e-18)
(0.0784375 0.0171934 3.50119e-18)
(0.090802 0.0158343 -2.85074e-18)
(0.104753 0.0146393 5.4285e-18)
(0.120277 0.0135225 2.53817e-19)
(0.137383 0.0124102 -1.83632e-18)
(0.156089 0.0112106 -1.16666e-18)
(0.176385 0.0097582 -3.89145e-18)
(0.198775 0.00827727 2.76896e-18)
(1.3091 -1.02607 1.70975e-18)
(0.704282 0.467878 -3.86319e-18)
(-1.60453 3.96036 -1.20024e-17)
(-2.33001 6.35588 -9.06768e-18)
(-1.39019 7.07595 1.14914e-17)
(0.036965 6.98559 -6.58851e-18)
(1.23686 6.3406 1.0547e-17)
(1.86184 5.41855 -2.04288e-17)
(1.80205 4.55169 1.71465e-17)
(1.19378 3.90152 -8.57968e-18)
(0.335624 3.42843 1.71296e-17)
(-0.468387 2.99697 -1.89058e-17)
(-1.00468 2.51175 2.43568e-17)
(-1.20267 1.96449 -1.16311e-17)
(-1.12435 1.41961 2.60923e-18)
(-0.895861 0.952869 4.97898e-18)
(-0.635153 0.603956 -4.98175e-18)
(-0.413595 0.370321 5.13633e-18)
(-0.253372 0.227114 -3.88033e-18)
(-0.148054 0.144697 -6.75717e-19)
(-0.0819877 0.0986136 -2.35362e-19)
(-0.0405778 0.072069 -1.10804e-18)
(-0.0137283 0.0552764 5.16465e-19)
(0.00500214 0.0435433 -2.33912e-18)
(0.0196284 0.0349179 1.72131e-18)
(0.0323791 0.0283889 -5.94126e-19)
(0.0444212 0.0234317 1.45165e-18)
(0.0564609 0.0197226 -1.2263e-18)
(0.0689881 0.0169957 1.81511e-18)
(0.0823504 0.015023 3.01753e-18)
(0.0968049 0.0136162 6.45756e-19)
(0.11254 0.0126345 2.6538e-18)
(0.129696 0.011982 -3.03541e-18)
(0.148378 0.0115977 1.41994e-18)
(0.16866 0.0114388 4.00444e-18)
(0.190583 0.0114451 1.7248e-18)
(0.214087 0.0114829 -6.2746e-18)
(0.239528 0.0119467 -1.66777e-18)
(0.265097 0.012585 8.29406e-18)
(0.368407 -1.34561 -4.04322e-18)
(0.342489 -2.56102 5.38518e-18)
(0.0574258 -3.18703 3.95412e-17)
(0.925682 -3.61478 2.80845e-17)
(2.32976 -3.41745 -4.01989e-17)
(3.01757 -2.1559 -4.10439e-17)
(2.7797 -0.0620058 8.42734e-18)
(1.85107 2.22031 1.11677e-17)
(0.553581 4.12175 4.18922e-17)
(-0.781477 5.29547 -1.2921e-17)
(-1.83747 5.61132 -2.74743e-17)
(-2.37987 5.16221 3.38662e-17)
(-2.37179 4.21688 -1.21339e-17)
(-1.97071 3.09553 -6.25595e-18)
(-1.41639 2.05745 -1.3751e-18)
(-0.904075 1.2406 -3.91532e-18)
(-0.524488 0.676153 5.08396e-18)
(-0.283464 0.329684 -2.02145e-18)
(-0.147546 0.139865 7.91991e-20)
(-0.077183 0.0475506 4.89691e-19)
(-0.0412639 0.0089661 -1.58529e-19)
(-0.020304 -0.00326946 2.13915e-18)
(-0.0043574 -0.00421115 -3.11304e-18)
(0.0103035 -0.00134794 -2.62107e-18)
(0.0247363 0.00182771 6.20772e-18)
(0.039241 0.00419546 -4.89808e-18)
(0.0539829 0.00568626 1.58457e-18)
(0.0691185 0.0065297 9.00957e-19)
(0.0848466 0.00695796 -6.30443e-19)
(0.101412 0.00716884 2.48128e-18)
(0.11907 0.00732023 1.00703e-19)
(0.138058 0.0075405 -3.77955e-18)
(0.158593 0.00793786 9.71341e-19)
(0.180878 0.00861265 3.64089e-19)
(0.205126 0.00966639 2.86873e-18)
(0.231606 0.011211 8.16363e-19)
(0.260717 0.0133993 -7.39243e-18)
(0.293131 0.0164878 4.26198e-18)
(0.331106 0.0222674 1.41329e-18)
(0.375091 0.0232113 -3.50201e-18)
(-2.01919 1.16771 1.88737e-17)
(-2.39767 0.565499 -1.48562e-17)
(0.0695662 -2.76839 -9.28185e-18)
(3.042 -6.41006 -7.36178e-18)
(5.08547 -8.94845 1.32287e-18)
(5.9287 -10.2044 3.23651e-17)
(5.41881 -9.76218 -2.65797e-17)
(3.67428 -7.6737 -5.05664e-18)
(1.24701 -4.63239 1.33666e-17)
(-1.03809 -1.64587 -2.26724e-17)
(-2.51403 0.503203 1.67433e-17)
(-2.97045 1.58408 4.60552e-18)
(-2.63375 1.80934 -3.88287e-17)
(-1.91417 1.54604 1.08894e-17)
(-1.16718 1.10534 4.05669e-18)
(-0.584176 0.680633 2.33952e-19)
(-0.209168 0.358933 3.22309e-18)
(-0.00816207 0.152437 -2.61119e-18)
(0.0764597 0.0380151 1.30515e-18)
(0.096982 -0.0152584 2.78837e-19)
(0.0897752 -0.0334711 -6.25549e-19)
(0.0759522 -0.0342613 2.15953e-18)
(0.0655057 -0.0279361 -1.31764e-18)
(0.061481 -0.0201919 3.54688e-18)
(0.0633933 -0.0135574 -3.65364e-18)
(0.0700842 -0.00859439 1.84043e-18)
(0.0804423 -0.00511126 1.1247e-18)
(0.09365 -0.00273629 -5.53575e-18)
(0.10917 -0.0011284 2.10975e-18)
(0.126724 9.17058e-06 -1.58196e-18)
(0.14621 0.000918279 1.96622e-18)
(0.167638 0.00178871 1.68883e-18)
(0.191094 0.00276976 -4.99787e-18)
(0.216726 0.00397793 3.20447e-18)
(0.244744 0.00549644 -2.40197e-18)
(0.275463 0.00737334 -2.05768e-18)
(0.309366 0.00961056 6.17879e-19)
(0.347128 0.0120037 -1.73374e-18)
(0.389819 0.0150493 -1.83618e-18)
(0.435992 0.0131062 5.72568e-18)
(2.48524 -3.50587 2.97884e-17)
(3.25092 -6.03953 3.89354e-17)
(3.51923 -7.88215 -2.52415e-17)
(2.87302 -8.27535 -6.03334e-18)
(1.43517 -7.13108 1.80318e-17)
(-0.136364 -5.12281 -1.50476e-17)
(-1.21247 -3.09557 -3.94535e-18)
(-1.60652 -1.54787 -2.45212e-17)
(-1.49657 -0.579489 2.21297e-17)
(-1.15341 -0.0775887 8.56414e-18)
(-0.774084 0.121429 -2.14598e-17)
(-0.45578 0.156752 1.67304e-17)
(-0.227011 0.122564 5.23102e-18)
(-0.0805803 0.0738162 8.88396e-19)
(0.00318699 0.0353367 -1.87612e-18)
(0.0452373 0.0124501 -3.02273e-18)
(0.0630826 0.00168149 -4.04501e-18)
(0.0694041 -0.00237685 2.497e-18)
(0.0720489 -0.00378203 -4.64553e-18)
(0.0754578 -0.00438321 3.15751e-18)
(0.081552 -0.0046366 1.90997e-18)
(0.0906451 -0.00488162 -1.98828e-18)
(0.102627 -0.00510804 -8.44423e-19)
(0.117274 -0.0052391 1.67875e-18)
(0.134382 -0.00520928 -1.2069e-18)
(0.15381 -0.00497701 -2.17972e-18)
(0.17549 -0.00451566 1.9223e-18)
(0.199421 -0.00380319 -3.95533e-18)
(0.225657 -0.00282104 2.62202e-18)
(0.254306 -0.00156032 -7.56561e-19)
(0.285526 -3.66217e-05 3.17883e-18)
(0.319547 0.00169792 -5.55323e-18)
(0.356692 0.00353123 8.86336e-18)
(0.397315 0.00510731 -4.13129e-18)
(0.441647 0.00664246 -3.1619e-18)
(0.48739 0.0038652 4.17992e-18)
(2.67949 -0.995968 -1.8375e-17)
(1.99027 -1.18234 9.14697e-18)
(0.998247 -0.849207 1.76753e-17)
(0.0749257 -0.370475 1.01334e-17)
(-0.574845 0.0106857 -2.91216e-17)
(-0.891474 0.212693 1.30882e-17)
(-0.923037 0.261989 6.17733e-18)
(-0.777766 0.224653 1.64508e-18)
(-0.568178 0.159937 -1.28149e-17)
(-0.369847 0.102672 -9.26509e-20)
(-0.215294 0.0636509 2.39381e-18)
(-0.107841 0.0402024 2.34318e-18)
(-0.0378591 0.0259687 -2.51927e-18)
(0.00696062 0.0162992 2.35522e-18)
(0.0372691 0.00913299 -4.28278e-18)
(0.0601515 0.00360749 6.33533e-18)
(0.0797377 -0.000847659 -8.25906e-19)
(0.0982562 -0.00442452 -1.58127e-19)
(0.116996 -0.00709719 -1.40013e-18)
(0.136698 -0.0088933 2.1036e-19)
(0.157809 -0.00991703 5.61492e-18)
(0.180627 -0.0102919 -5.51109e-18)
(0.205371 -0.010132 2.78759e-18)
(0.232212 -0.00952888 2.07154e-18)
(0.261296 -0.00855307 -2.11115e-18)
(0.292759 -0.00726678 4.63265e-18)
(0.326734 -0.0057432 -5.93791e-18)
(0.363363 -0.00407862 -2.43014e-18)
(0.402811 -0.00241182 5.02496e-18)
(0.445189 -0.00107257 6.19648e-19)
(0.490317 0.00022474 -5.72936e-18)
(0.535694 -0.00197839 8.15503e-19)
(-2.21836 2.50813 2.69893e-18)
(-1.74006 1.64856 -2.6051e-19)
(-1.2223 0.995348 -1.66558e-18)
(-0.783357 0.553492 9.52413e-19)
(-0.464932 0.283048 -1.66857e-18)
(-0.25738 0.13029 -5.12105e-19)
(-0.129931 0.0500159 -5.3541e-20)
(-0.0517837 0.0113217 3.39616e-18)
(-0.00122961 -0.00549185 -3.40579e-19)
(0.0346127 -0.0123671 -9.49991e-19)
(0.0630205 -0.015279 -3.41362e-18)
(0.0879626 -0.0166793 -2.19545e-18)
(0.111466 -0.0174347 -1.4367e-18)
(0.134667 -0.0178068 3.15361e-18)
(0.1583 -0.017874 1.72304e-18)
(0.182898 -0.017657 -3.48542e-19)
(0.208874 -0.0171618 4.97119e-19)
(0.236551 -0.0163906 -1.34959e-19)
(0.266175 -0.0153455 -3.77951e-18)
(0.297931 -0.0140346 -3.46185e-18)
(0.331954 -0.0124809 -1.33047e-18)
(0.368339 -0.0107339 4.24454e-18)
(0.407154 -0.00887031 -5.53286e-19)
(0.448445 -0.00700212 4.50739e-18)
(0.492187 -0.00538897 4.32044e-18)
(0.538004 -0.00368371 1.10011e-18)
(0.583521 -0.00484721 -7.79382e-19)
(-0.165584 0.184797 5.21198e-18)
(-0.0136451 0.0400929 -5.45873e-19)
(0.0547043 -0.0276226 9.40493e-19)
(0.0820578 -0.0517503 -9.41754e-19)
(0.0937034 -0.0550821 -1.90973e-18)
(0.102281 -0.0504823 3.50535e-19)
(0.112939 -0.0440141 -2.20489e-18)
(0.127074 -0.0381148 2.06249e-18)
(0.144589 -0.0334387 3.20659e-18)
(0.165002 -0.0299523 -8.55427e-19)
(0.187914 -0.0273674 -4.01705e-18)
(0.213101 -0.0253618 2.26248e-18)
(0.240475 -0.0236601 -2.16448e-18)
(0.270028 -0.0220502 4.62059e-18)
(0.301786 -0.0203817 8.45612e-21)
(0.33578 -0.018561 3.04418e-18)
(0.372026 -0.0165465 6.16656e-19)
(0.41052 -0.0143453 6.31968e-18)
(0.451231 -0.0120009 -9.45601e-18)
(0.494106 -0.00959226 -1.63298e-18)
(0.539031 -0.00731816 -1.51788e-18)
(0.585511 -0.00481726 8.19399e-19)
(0.631325 -0.00470401 2.11277e-18)
(0.167695 -0.0209079 2.45448e-18)
(0.160572 -0.0254142 -1.1633e-18)
(0.160154 -0.027294 1.28219e-18)
(0.166784 -0.0280734 3.09891e-18)
(0.179622 -0.0283694 -4.8848e-18)
(0.197553 -0.0283688 3.10103e-18)
(0.219632 -0.0280865 -3.73653e-18)
(0.245168 -0.0274872 -3.58174e-18)
(0.273696 -0.0265332 3.1766e-18)
(0.304913 -0.0251979 8.24741e-19)
(0.338619 -0.0234706 -4.11886e-18)
(0.374672 -0.0213573 2.42751e-18)
(0.412959 -0.0188834 -1.52834e-18)
(0.453367 -0.0160965 -8.54411e-19)
(0.495777 -0.0130577 1.97336e-18)
(0.54005 -0.00984774 -3.69166e-19)
(0.586011 -0.00663693 -1.25801e-18)
(0.633073 -0.0030885 4.24727e-18)
(0.67915 -0.00154427 -4.0462e-20)
(0.167862 -0.0197842 2.66833e-18)
(0.19093 -0.0237136 -2.03949e-20)
(0.21611 -0.0265812 -5.89413e-18)
(0.243549 -0.0283062 5.2908e-18)
(0.273268 -0.0289247 3.05244e-18)
(0.30524 -0.0285414 -3.249e-18)
(0.339422 -0.0272853 5.9757e-18)
(0.375755 -0.0252823 -3.89417e-18)
(0.414168 -0.0226443 -1.31617e-18)
(0.454566 -0.0194707 -1.86011e-19)
(0.496828 -0.0158545 5.58593e-18)
(0.540802 -0.0118801 -3.91805e-18)
(0.58631 -0.00763815 5.58511e-19)
(0.633138 -0.00328314 1.7251e-18)
(0.680633 0.00148264 -3.40165e-19)
(0.726826 0.0045546 -1.00011e-18)
(0.301487 -0.0336325 4.42826e-18)
(0.337384 -0.0319281 -3.35456e-18)
(0.374795 -0.0294539 3.02998e-18)
(0.413849 -0.0262982 -6.60752e-18)
(0.454589 -0.0225392 3.09754e-18)
(0.496981 -0.0182486 9.26308e-19)
(0.540925 -0.0134974 3.85734e-19)
(0.586262 -0.00835238 1.10695e-18)
(0.632786 -0.00289424 -1.47634e-18)
(0.680258 0.0027455 -2.36004e-18)
(0.727969 0.00882719 -6.49963e-19)
(0.49631 -0.0204845 -4.21838e-18)
(0.540288 -0.0148376 1.367e-18)
(0.58558 -0.0087795 -3.42185e-18)
(0.631984 -0.00233639 1.71565e-18)
(0.679245 0.00442998 -7.70314e-19)
(0.72709 0.0114132 5.82253e-18)
(0.725333 0.0143337 1.97673e-18)
(0.773263 0.0226364 -3.2396e-18)
(0.702664 -0.00679793 1.10006e-18)
(0.654743 -0.00980336 1.77028e-19)
(0.607278 -0.00972377 -3.90736e-18)
(0.560728 -0.00680267 8.98514e-19)
(0.514154 -0.00223613 1.78194e-18)
(0.465309 0.00249319 -1.0458e-18)
(0.679605 0.00357666 -1.48014e-18)
(0.632079 0.002003 -2.65644e-18)
(0.581672 -0.000316302 -5.14624e-19)
(0.692882 0.00448401 9.92024e-20)
)
;

boundaryField
{
    inlet
    {
        type            uniformFixedValue;
        uniformValue    constant (1 0 0);
        value           nonuniform 0();
    }
    outlet
    {
        type            pressureInletOutletVelocity;
        value           nonuniform 0();
    }
    cylinder
    {
        type            fixedValue;
        value           uniform (0 0 0);
    }
    top
    {
        type            symmetryPlane;
    }
    bottom
    {
        type            symmetryPlane;
    }
    defaultFaces
    {
        type            empty;
    }
    procBoundary27to14
    {
        type            processor;
        value           uniform (-1.39722 1.74988 2.33903e-17);
    }
    procBoundary27to20
    {
        type            processor;
        value           nonuniform List<vector> 
29
(
(-1.51466 2.54912 2.63139e-17)
(0.114069 1.2037 2.59189e-17)
(1.59074 -0.995243 2.59532e-17)
(1.59074 -0.995243 2.59532e-17)
(-2.34953 5.89733 2.51791e-17)
(-0.397464 4.11524 2.42393e-17)
(1.49842 1.916 -9.16617e-17)
(2.60503 0.0413671 2.90001e-17)
(2.60503 0.0413671 2.90001e-17)
(-0.129717 6.50114 1.69284e-18)
(-0.955801 6.12659 -1.03557e-18)
(-1.78425 5.4387 8.81706e-19)
(-2.34129 4.52914 -1.27702e-18)
(-2.47468 3.50753 1.78255e-18)
(-2.47468 3.50753 1.78255e-18)
(-2.56687 2.21747 6.88564e-18)
(-1.68377 1.47206 -4.34961e-18)
(-0.957429 0.870822 2.05925e-17)
(-0.459825 0.448152 -7.1061e-18)
(-0.459825 0.448152 -7.1061e-18)
(0.0812659 0.118764 -2.19944e-18)
(0.161261 0.0498659 4.7168e-18)
(0.182595 0.0101208 -2.56389e-18)
(0.178202 -0.0107703 2.19049e-18)
(0.178202 -0.0107703 2.19049e-18)
(0.101622 -0.00507544 -3.00776e-18)
(0.125188 -0.0101445 2.21513e-18)
(0.146388 -0.0150998 -1.83403e-19)
(0.146388 -0.0150998 -1.83403e-19)
)
;
    }
    procBoundary27to21
    {
        type            processor;
        value           nonuniform List<vector> 
37
(
(-0.00852808 0.0264527 -4.69967e-19)
(-0.00667738 0.0277217 4.39165e-19)
(-0.00491419 0.0284498 -8.47697e-19)
(0.0197102 -0.00151557 1.21219e-19)
(0.0102348 0.00895088 -6.22124e-19)
(0.00458559 0.0164155 -1.51119e-19)
(0.00162945 0.0214401 1.18779e-19)
(0.00162945 0.0214401 1.18779e-19)
(-0.003843 0.0296338 2.02738e-18)
(0.0136705 0.0200829 -5.27598e-18)
(0.0186874 0.0190032 2.79101e-18)
(0.0176478 0.0212366 -1.43874e-18)
(0.0176478 0.0212366 -1.43874e-18)
(-0.667912 0.622669 -9.72407e-18)
(-0.501598 0.418199 -5.75552e-18)
(-0.341333 0.262187 4.3162e-18)
(-0.215716 0.161151 -5.09391e-19)
(-0.215716 0.161151 -5.09391e-19)
(-1.20794 4.56286 -5.86504e-18)
(-1.22472 3.39324 8.53319e-18)
(-1.01275 2.29493 -1.13877e-17)
(-1.01275 2.29493 -1.13877e-17)
(0.601887 -1.30697 -3.16865e-17)
(-0.986114 1.62694 -1.20519e-19)
(-2.06533 3.41703 1.89338e-17)
(-2.4412 3.96408 -8.06321e-18)
(-2.4412 3.96408 -8.06321e-18)
(2.11183 -4.51589 6.94464e-18)
(2.84998 -7.44913 4.75719e-18)
(2.99954 -9.6612 -5.00488e-18)
(2.52416 -10.5627 -4.14142e-18)
(1.3442 -9.63771 -1.64805e-19)
(1.3442 -9.63771 -1.64805e-19)
(-0.0788337 1.23648 2.23683e-17)
(-0.480513 3.2979 1.90867e-17)
(-0.960394 4.69413 9.43047e-18)
(-0.960394 4.69413 9.43047e-18)
)
;
    }
    procBoundary27to22
    {
        type            processor;
        value           nonuniform List<vector> 
11
(
(-0.00304029 0.0287702 -2.07242e-19)
(0.00691962 0.0280527 6.29091e-19)
(0.00691962 0.0280527 6.29091e-19)
(0.0207203 0.0262162 -7.98824e-19)
(0.0207203 0.0262162 -7.98824e-19)
(0.0400312 0.0228695 -6.85084e-18)
(0.0400312 0.0228695 -6.85084e-18)
(0.0663015 0.0187022 -2.87533e-18)
(0.0663015 0.0187022 -2.87533e-18)
(0.100582 0.0143695 5.87881e-19)
(0.100582 0.0143695 5.87881e-19)
)
;
    }
    procBoundary27to26
    {
        type            processor;
        value           nonuniform List<vector> 
17
(
(0.166625 -0.0312611 3.13916e-18)
(0.200047 -0.0332905 -1.87023e-18)
(0.233227 -0.0343728 2.32546e-18)
(0.26688 -0.0344743 -1.75933e-18)
(0.26688 -0.0344743 -1.75933e-18)
(0.335493 -0.0393513 -2.29168e-18)
(0.373404 -0.0350674 -2.45242e-18)
(0.412821 -0.0305547 3.33456e-18)
(0.453794 -0.0257145 -1.9978e-18)
(0.453794 -0.0257145 -1.9978e-18)
(0.539012 -0.0155413 7.52719e-18)
(0.58416 -0.00871592 -1.88958e-18)
(0.630461 -0.00143163 -2.10898e-18)
(0.677626 0.00627689 3.11989e-19)
(0.677626 0.00627689 3.11989e-19)
(0.770613 0.0267013 -7.0085e-19)
(0.818358 0.0362574 2.52851e-18)
)
;
    }
    procBoundary27to28
    {
        type            processor;
        value           nonuniform List<vector> 10((0.144093 0.010417 1.8624e-18) (0.144093 0.010417 1.8624e-18) (0.163746 0.00880759 -5.04913e-18) (0.222536 0.007312 -3.55698e-19) (0.222536 0.007312 -3.55698e-19) (0.295408 0.0120204 5.37051e-18) (0.295408 0.0120204 5.37051e-18) (0.431869 -0.00845973 0) (0.54186 -0.00375973 0) (0.65386 0.00263706 0));
    }
    procBoundary27to33
    {
        type            processor;
        value           nonuniform List<vector> 
16
(
(0.750538 -0.000687565 1.31584e-18)
(0.774051 0.013464 -1.23078e-18)
(0.797976 0.00839543 -6.16082e-19)
(0.774051 0.013464 -1.23078e-18)
(0.774752 0.0188366 -4.62613e-18)
(0.774752 0.0188366 -4.62613e-18)
(0.820593 0.0313599 -4.79912e-18)
(0.750538 -0.000687565 1.31584e-18)
(0.816138 0.0172752 1.17365e-19)
(0.770687 0.0103944 -4.18299e-19)
(0.725116 0.00597242 -2.36158e-18)
(0.725116 0.00597242 -2.36158e-18)
(0.789812 0.0136409 1.62225e-18)
(0.742914 0.00838261 -5.78987e-19)
(0.742914 0.00838261 -5.78987e-19)
(0.800997 0.0146056 1.44965e-18)
)
;
    }
}


// ************************************************************************* //
