/*--------------------------------*- C++ -*----------------------------------*\
  =========                 |
  \\      /  F ield         | OpenFOAM: The Open Source CFD Toolbox
   \\    /   O peration     | Website:  https://openfoam.org
    \\  /    A nd           | Version:  7
     \\/     M anipulation  |
\*---------------------------------------------------------------------------*/
FoamFile
{
    version     2.0;
    format      ascii;
    class       volVectorField;
    location    "1";
    object      U;
}
// * * * * * * * * * * * * * * * * * * * * * * * * * * * * * * * * * * * * * //

dimensions      [0 1 -1 0 0 0 0];

internalField   nonuniform List<vector> 
120340
(
(1 -2.13051e-06 2.93793e-16)
(1.00001 -6.36577e-06 2.57725e-16)
(1.00004 -1.05713e-05 -5.92736e-17)
(1.00008 -1.47681e-05 1.9247e-16)
(1.00013 -1.89582e-05 -2.64392e-17)
(1.00019 -2.31305e-05 -4.36762e-16)
(1.00027 -2.72749e-05 -1.04609e-17)
(1.00035 -3.13855e-05 -4.90394e-16)
(1.00045 -3.54596e-05 -8.53775e-16)
(1.00057 -3.94946e-05 -1.1623e-15)
(1.00069 -4.34872e-05 -3.62914e-16)
(1.00083 -4.74333e-05 -6.15889e-16)
(1.00097 -5.13289e-05 -4.83107e-17)
(1.00113 -5.51701e-05 -1.41221e-15)
(1.00131 -5.89533e-05 1.59444e-15)
(1.00149 -6.26752e-05 2.47237e-15)
(1.00168 -6.63326e-05 -1.95072e-16)
(1.00189 -6.99223e-05 2.8345e-15)
(1.0021 -7.34416e-05 3.46271e-15)
(1.00233 -7.68877e-05 7.35495e-16)
(1.00256 -8.0258e-05 4.14073e-15)
(1.00281 -8.35503e-05 3.49984e-15)
(1.00306 -8.67623e-05 2.27583e-15)
(1.00333 -8.9892e-05 2.09618e-15)
(1.0036 -9.29378e-05 1.63285e-15)
(1.00389 -9.58979e-05 1.68125e-15)
(1.00418 -9.8771e-05 8.16319e-16)
(1.00448 -0.000101556 8.84815e-16)
(1.00479 -0.000104251 6.84118e-16)
(1.00511 -0.000106857 8.89835e-16)
(1.00543 -0.000109372 3.35452e-17)
(1.00576 -0.000111795 3.61095e-17)
(1.0061 -0.000114126 -5.31205e-16)
(1.00645 -0.000116366 4.93285e-17)
(1.0068 -0.000118514 -7.63268e-16)
(1.00716 -0.00012057 -8.9455e-17)
(1.00752 -0.000122534 -2.7122e-16)
(1.00789 -0.000124408 -2.88155e-17)
(1.00827 -0.000126191 -7.38935e-16)
(1.00865 -0.000127884 1.12376e-16)
(1.00904 -0.000129488 -6.51242e-16)
(1.00943 -0.000131003 -4.26449e-16)
(1.00982 -0.000132432 -1.40962e-15)
(1.01022 -0.000133774 -1.42534e-16)
(1.01063 -0.000135032 -2.02977e-15)
(1.01103 -0.000136205 6.22713e-16)
(1.01144 -0.000137297 -3.29392e-15)
(1.01186 -0.000138307 -2.64725e-15)
(1.01227 -0.000139239 -2.07693e-15)
(1.01269 -0.000140092 -2.06738e-15)
(1.01311 -0.000140869 -1.57502e-15)
(1.01354 -0.000141571 -1.56077e-15)
(1.01396 -0.0001422 -1.38236e-15)
(1.01439 -0.000142758 -1.72073e-15)
(1.01482 -0.000143246 -1.40888e-15)
(1.01525 -0.000143667 -1.05468e-15)
(1.01568 -0.000144021 -1.46917e-15)
(1.01612 -0.000144311 -1.0478e-15)
(1.01655 -0.000144539 -1.00035e-15)
(1.01698 -0.000144706 -9.16039e-16)
(1.01742 -0.000144813 -1.00831e-15)
(1.01785 -0.000144864 -1.35305e-15)
(1.01829 -0.000144859 -1.05787e-15)
(1.01872 -0.000144801 -7.82647e-16)
(1.01916 -0.000144691 -6.03993e-16)
(1.01959 -0.00014453 -1.03366e-15)
(1.02002 -0.000144322 -1.02934e-15)
(1.02046 -0.000144066 -1.22492e-15)
(1.02089 -0.000143766 -1.03575e-15)
(1.02132 -0.000143422 -1.69161e-15)
(1.02175 -0.000143037 -8.25141e-16)
(1.02218 -0.000142612 -1.12655e-15)
(1.02261 -0.000142148 -7.69763e-16)
(1.02303 -0.000141647 -9.76328e-16)
(1.02346 -0.000141111 -7.89797e-16)
(1.02388 -0.000140541 -8.06175e-16)
(1.0243 -0.000139939 -5.34171e-16)
(1.02472 -0.000139306 -9.0139e-16)
(1.02514 -0.000138643 -5.51631e-16)
(1.02555 -0.000137952 -1.14172e-15)
(1.02596 -0.000137235 -7.26062e-16)
(1.02637 -0.000136492 -5.44651e-16)
(1.02678 -0.000135725 -7.28004e-16)
(1.02719 -0.000134935 -5.09361e-16)
(1.02759 -0.000134124 -9.85921e-16)
(1.02799 -0.000133292 -4.9361e-16)
(1.02839 -0.000132441 -5.82876e-16)
(1.02879 -0.000131573 -5.34278e-16)
(1.02918 -0.000130687 -3.18751e-16)
(1.02957 -0.000129786 1.20071e-16)
(1.02996 -0.00012887 -4.83e-16)
(1.03035 -0.00012794 -6.86986e-16)
(1.03073 -0.000126998 -3.67062e-16)
(1.03111 -0.000126044 -6.68071e-16)
(1.03149 -0.00012508 -9.62795e-16)
(1.03186 -0.000124106 -9.51193e-16)
(1.03223 -0.000123123 -6.55075e-16)
(1.0326 -0.000122133 -7.66513e-16)
(1.03296 -0.000121136 -4.40356e-16)
(1.03333 -0.000120133 -8.70564e-16)
(1.03369 -0.000119124 -4.24155e-16)
(1.03404 -0.000118112 -5.42565e-16)
(1.03439 -0.000117095 -2.72031e-16)
(1.03474 -0.000116076 -1.72125e-16)
(1.03509 -0.000115055 1.30435e-17)
(1.03544 -0.000114033 2.62956e-16)
(1.03578 -0.000113011 1.48045e-16)
(1.03611 -0.000111988 -1.08472e-17)
(1.03645 -0.000110967 2.04278e-16)
(1.03678 -0.000109947 6.40027e-16)
(1.03711 -0.00010893 3.65938e-16)
(1.03743 -0.000107915 1.22099e-15)
(1.03776 -0.000106904 9.59845e-17)
(1.03808 -0.000105897 8.16968e-16)
(1.03839 -0.000104895 2.07063e-16)
(1.0387 -0.000103898 7.17798e-16)
(1.03902 -0.000102907 5.31855e-16)
(1.03932 -0.000101923 1.07085e-15)
(1.03963 -0.000100945 1.44074e-16)
(1.03993 -9.9975e-05 1.01165e-15)
(1.04023 -9.90129e-05 5.83529e-16)
(1.04052 -9.80593e-05 1.5823e-15)
(1.04082 -9.71147e-05 1.01262e-15)
(1.04111 -9.61795e-05 1.498e-15)
(1.04139 -9.52542e-05 8.21333e-16)
(1.04168 -9.43392e-05 1.38311e-15)
(1.04196 -9.3435e-05 1.09452e-15)
(1.04224 -9.25419e-05 1.61034e-15)
(1.04251 -9.16604e-05 1.05334e-15)
(1.04279 -9.07909e-05 1.11173e-15)
(1.04306 -8.99337e-05 1.30293e-15)
(1.04333 -8.90893e-05 1.51653e-15)
(1.04359 -8.8258e-05 1.08446e-15)
(1.04386 -8.74402e-05 1.43675e-15)
(1.04412 -8.66362e-05 1.27236e-15)
(1.04438 -8.58464e-05 1.29021e-15)
(1.04463 -8.50712e-05 1.92773e-15)
(1.04489 -8.4311e-05 1.44057e-15)
(1.04514 -8.3566e-05 1.964e-15)
(1.04539 -8.28367e-05 1.46482e-15)
(1.04564 -8.21234e-05 1.83331e-15)
(1.04588 -8.14265e-05 1.51702e-15)
(1.04613 -8.07465e-05 2.03755e-15)
(1.04637 -8.00836e-05 1.29145e-15)
(1.04661 -7.94383e-05 2.07926e-15)
(1.04684 -7.88111e-05 1.58996e-15)
(1.04708 -7.82023e-05 2.05989e-15)
(1.04731 -7.76125e-05 1.46974e-15)
(1.04755 -7.70422e-05 1.81184e-15)
(1.04778 -7.64918e-05 1.5356e-15)
(1.04801 -7.5962e-05 2.32989e-15)
(1.04823 -7.54534e-05 2.00878e-15)
(1.04846 -7.49667e-05 1.86096e-15)
(1.04868 -7.45025e-05 2.36687e-15)
(1.04891 -7.40616e-05 2.38021e-15)
(1.04913 -7.36448e-05 2.31203e-15)
(1.04935 -7.32529e-05 2.48031e-15)
(1.04957 -7.28867e-05 2.18449e-15)
(1.04978 -7.25475e-05 2.2308e-15)
(1.05 -7.22362e-05 2.31547e-15)
(1.05022 -7.19543e-05 2.42613e-15)
(1.05043 -7.17031e-05 2.20215e-15)
(1.05065 -7.1484e-05 2.37327e-15)
(1.05086 -7.12986e-05 1.89618e-15)
(1.05108 -7.11482e-05 2.21581e-15)
(1.05129 -7.10345e-05 2.58828e-15)
(1.0515 -7.09591e-05 2.00148e-15)
(1.05172 -7.09239e-05 2.11503e-15)
(1.05193 -7.09313e-05 1.7861e-15)
(1.05214 -7.09839e-05 2.41276e-15)
(1.05235 -7.10852e-05 2.46132e-15)
(1.05257 -7.12386e-05 2.62494e-15)
(1.05278 -7.14482e-05 2.28223e-15)
(1.053 -7.17179e-05 2.53696e-15)
(1.05321 -7.20511e-05 2.31796e-15)
(1.05343 -7.24513e-05 2.43915e-15)
(1.05365 -7.29209e-05 1.9956e-15)
(1.05387 -7.34626e-05 2.64283e-15)
(1.05409 -7.40792e-05 2.12488e-15)
(1.05431 -7.47744e-05 2.17911e-15)
(1.05454 -7.5554e-05 2.70397e-15)
(1.05477 -7.64267e-05 2.53819e-15)
(1.055 -7.74048e-05 2.48912e-15)
(1.05523 -7.85046e-05 2.36452e-15)
(1.05547 -7.97463e-05 2.45676e-15)
(1.05571 -8.11535e-05 2.45663e-15)
(1.05595 -8.27515e-05 2.39902e-15)
(1.05621 -8.45656e-05 2.34079e-15)
(1.05646 -8.66186e-05 2.46844e-15)
(1.05673 -8.89284e-05 1.97593e-15)
(1.057 -9.15058e-05 2.3961e-15)
(1.05727 -9.43515e-05 2.36054e-15)
(1.05756 -9.74555e-05 2.43017e-15)
(1.05786 -0.000100796 3.05934e-15)
(1.05817 -0.000104338 2.69671e-15)
(1.05849 -0.000108037 2.42972e-15)
(1.05882 -0.000111838 2.31219e-15)
(1.05916 -0.000115678 2.63485e-15)
(1.05951 -0.000119492 2.16756e-15)
(1.05987 -0.000123212 3.77495e-15)
(1.06025 -0.00012677 8.02261e-16)
(1.06063 -0.000130105 5.29883e-15)
(1.06103 -0.00013316 3.30796e-15)
(1.06143 -0.000135888 5.00963e-15)
(1.06185 -0.000138251 1.60734e-15)
(1.06226 -0.000140221 5.75074e-15)
(1.06269 -0.000141783 4.02752e-15)
(1.06311 -0.000142928 4.99142e-15)
(1.06355 -0.000143659 1.91737e-15)
(1.06398 -0.000143988 5.41263e-15)
(1.06441 -0.000143932 3.79985e-15)
(1.06484 -0.000143514 5.03716e-15)
(1.06527 -0.000142762 1.68213e-15)
(1.0657 -0.000141705 5.60917e-15)
(1.06612 -0.000140375 3.47016e-15)
(1.06654 -0.000138803 4.72675e-15)
(1.06695 -0.00013702 1.98101e-15)
(1.06736 -0.000135056 5.19296e-15)
(1.06776 -0.000132939 3.57165e-15)
(1.06816 -0.000130694 4.44268e-15)
(1.06855 -0.000128345 2.31121e-15)
(1.06893 -0.000125913 4.71427e-15)
(1.06931 -0.000123416 4.62408e-15)
(1.06967 -0.00012087 2.47491e-15)
(1.07003 -0.000118289 3.76592e-15)
(1.07038 -0.000115685 6.43799e-16)
(1.07072 -0.000113068 4.87859e-15)
(1.07106 -0.000110447 3.14745e-15)
(1.07139 -0.00010783 4.47678e-15)
(1.07171 -0.000105222 1.51735e-15)
(1.07202 -0.000102628 5.45159e-15)
(1.07232 -0.000100053 3.43607e-15)
(1.07262 -9.7501e-05 4.41882e-15)
(1.07291 -9.49747e-05 1.00284e-15)
(1.07319 -9.24769e-05 4.79424e-15)
(1.07346 -9.00097e-05 2.79879e-15)
(1.07373 -8.75753e-05 3.87265e-15)
(1.07399 -8.51753e-05 1.1598e-15)
(1.07424 -8.28111e-05 4.53508e-15)
(1.07449 -8.04841e-05 3.31208e-15)
(1.07472 -7.81953e-05 4.02424e-15)
(1.07496 -7.59458e-05 1.29548e-15)
(1.07518 -7.37363e-05 4.80612e-15)
(1.0754 -7.15676e-05 3.0509e-15)
(1.07561 -6.94403e-05 3.69643e-15)
(1.07581 -6.73549e-05 1.79088e-15)
(1.07601 -6.53117e-05 3.61292e-15)
(1.07621 -6.33113e-05 4.07965e-15)
(1.07639 -6.13537e-05 2.28148e-15)
(1.07658 -5.94392e-05 3.24845e-15)
(1.07675 -5.75678e-05 4.83433e-16)
(1.07692 -5.57396e-05 4.41765e-15)
(1.07709 -5.39546e-05 2.37261e-15)
(1.07724 -5.22126e-05 3.66621e-15)
(1.0774 -5.05134e-05 8.09856e-16)
(1.07755 -4.88569e-05 4.78448e-15)
(1.07769 -4.72427e-05 2.75926e-15)
(1.07783 -4.56706e-05 3.80716e-15)
(1.07797 -4.41401e-05 9.04276e-16)
(1.0781 -4.26509e-05 4.75772e-15)
(1.07822 -4.12024e-05 3.40584e-15)
(1.07834 -3.97942e-05 3.90724e-15)
(1.07846 -3.84258e-05 7.57753e-16)
(1.07857 -3.70965e-05 4.82995e-15)
(1.07868 -3.58058e-05 2.41603e-15)
(1.07879 -3.45531e-05 4.29214e-15)
(1.07889 -3.33377e-05 4.93312e-16)
(1.07899 -3.2159e-05 5.4581e-15)
(1.07908 -3.10163e-05 2.07782e-15)
(1.07918 -2.99089e-05 5.92557e-15)
(1.07926 -2.8836e-05 3.44337e-15)
(1.07935 -2.7797e-05 4.85361e-15)
(1.07943 -2.67912e-05 5.05585e-15)
(1.07951 -2.58177e-05 2.99529e-15)
(1.07958 -2.4876e-05 4.55228e-15)
(1.07966 -2.39651e-05 8.93093e-16)
(1.07973 -2.30845e-05 5.67298e-15)
(1.0798 -2.22332e-05 1.27509e-15)
(1.07986 -2.14107e-05 6.42396e-15)
(1.07993 -2.06162e-05 2.80876e-15)
(1.07999 -1.98489e-05 5.75731e-15)
(1.08004 -1.91081e-05 3.81113e-15)
(1.0801 -1.83931e-05 4.63626e-15)
(1.08015 -1.77031e-05 1.94571e-15)
(1.08021 -1.70376e-05 5.41411e-15)
(1.08026 -1.63957e-05 2.68385e-15)
(1.08031 -1.57768e-05 4.38556e-15)
(1.08035 -1.51802e-05 1.09273e-15)
(1.0804 -1.46053e-05 5.33633e-15)
(1.08044 -1.40514e-05 2.83867e-15)
(1.08048 -1.35179e-05 4.36851e-15)
(1.08052 -1.30041e-05 9.96669e-16)
(1.08056 -1.25095e-05 5.49618e-15)
(1.0806 -1.20334e-05 1.70452e-15)
(1.08063 -1.15752e-05 5.51841e-15)
(1.08066 -1.11344e-05 3.28568e-15)
(1.0807 -1.07105e-05 4.9686e-15)
(1.08073 -1.03028e-05 5.41067e-15)
(1.08076 -9.91088e-06 3.36891e-15)
(1.08079 -9.53428e-06 4.15893e-15)
(1.08082 -9.17235e-06 6.19236e-16)
(1.08084 -8.82457e-06 5.5261e-15)
(1.08087 -8.49062e-06 1.82871e-15)
(1.08089 -8.17004e-06 5.92978e-15)
(1.08092 -7.8623e-06 2.95733e-15)
(1.08094 -7.56699e-06 6.31294e-15)
(1.08096 -7.2837e-06 3.69635e-15)
(1.08099 -7.01201e-06 5.22438e-15)
(1.08101 -6.75154e-06 1.84041e-15)
(1.08103 -6.50191e-06 5.43493e-15)
(1.08105 -6.26275e-06 3.24557e-15)
(1.08106 -6.0337e-06 4.69388e-15)
(1.08108 -5.81441e-06 1.01654e-15)
(1.0811 -5.60456e-06 5.16752e-15)
(1.08112 -5.40384e-06 2.71392e-15)
(1.08113 -5.21193e-06 4.45577e-15)
(1.08115 -5.02854e-06 5.83051e-16)
(1.08116 -4.85337e-06 5.77721e-15)
(1.08118 -4.68617e-06 2.12168e-15)
(1.08119 -4.52666e-06 5.76791e-15)
(1.0812 -4.37458e-06 3.71171e-15)
(1.08122 -4.2297e-06 5.02038e-15)
(1.08123 -4.09178e-06 5.12478e-15)
(1.08124 -3.96059e-06 2.83269e-15)
(1.08125 -3.83592e-06 4.57981e-15)
(1.08126 -3.71757e-06 8.25802e-16)
(1.08127 -3.60534e-06 5.71854e-15)
(1.08128 -3.49904e-06 1.73271e-15)
(1.0813 -3.39849e-06 5.78034e-15)
(1.08131 -3.30353e-06 2.63352e-15)
(1.08131 -3.21398e-06 5.9271e-15)
(1.08132 -3.1297e-06 3.86282e-15)
(1.08133 -3.05053e-06 4.75724e-15)
(1.08134 -2.97634e-06 1.32615e-15)
(1.08135 -2.90699e-06 4.77807e-15)
(1.08136 -2.84235e-06 3.56521e-15)
(1.08137 -2.78232e-06 4.39747e-15)
(1.08138 -2.72677e-06 1.3377e-15)
(1.08139 -2.6756e-06 5.18831e-15)
(1.08139 -2.62872e-06 3.04646e-15)
(1.0814 -2.58603e-06 4.28687e-15)
(1.08141 -2.54745e-06 4.79752e-16)
(1.08142 -2.5129e-06 5.27152e-15)
(1.08142 -2.4823e-06 1.44919e-15)
(1.08143 -2.45559e-06 5.26783e-15)
(1.08144 -2.43271e-06 2.71019e-15)
(1.08145 -2.41359e-06 4.56249e-15)
(1.08145 -2.3982e-06 4.67917e-15)
(1.08146 -2.38648e-06 3.24409e-15)
(1.08147 -2.37839e-06 3.90129e-15)
(1.08147 -2.37391e-06 3.31599e-16)
(1.08148 -2.373e-06 5.24158e-15)
(1.08149 -2.37565e-06 1.14354e-15)
(1.0815 -2.38183e-06 6.12991e-15)
(1.0815 -2.39154e-06 2.48878e-15)
(1.08151 -2.40475e-06 5.48761e-15)
(1.08152 -2.42148e-06 3.3409e-15)
(1.08152 -2.44172e-06 4.1129e-15)
(1.08153 -2.46548e-06 1.16463e-15)
(1.08154 -2.49277e-06 4.81017e-15)
(1.08155 -2.52362e-06 3.16562e-15)
(1.08155 -2.55805e-06 4.00019e-15)
(1.08156 -2.59608e-06 8.01625e-16)
(1.08157 -2.63774e-06 4.36541e-15)
(1.08158 -2.68308e-06 2.306e-15)
(1.08159 -2.73214e-06 4.01682e-15)
(1.08159 -2.78496e-06 2.33037e-16)
(1.0816 -2.8416e-06 4.66062e-15)
(1.08161 -2.90213e-06 1.5068e-15)
(1.08162 -2.96659e-06 5.11254e-15)
(1.08163 -3.03507e-06 2.95506e-15)
(1.08164 -3.10764e-06 4.62099e-15)
(1.08165 -3.18437e-06 4.96384e-15)
(1.08166 -3.26533e-06 2.59028e-15)
(1.08167 -3.35066e-06 3.99991e-15)
(1.08168 -3.44052e-06 4.6128e-16)
(1.08169 -3.53486e-06 5.15092e-15)
(1.0817 -3.63374e-06 1.64855e-15)
(1.08171 -3.73746e-06 5.87859e-15)
(1.08172 -3.84613e-06 2.38466e-15)
(1.08173 -3.9598e-06 4.93723e-15)
(1.08175 -4.07861e-06 3.68525e-15)
(1.08176 -4.20271e-06 4.84354e-15)
(1.08177 -4.33226e-06 8.29007e-16)
(1.08178 -4.46739e-06 4.74571e-15)
(1.0818 -4.60829e-06 2.66529e-15)
(1.08181 -4.75512e-06 3.53897e-15)
(1.08183 -4.90806e-06 5.65367e-16)
(1.08184 -5.06728e-06 4.59055e-15)
(1.08186 -5.23298e-06 1.85457e-15)
(1.08187 -5.40537e-06 3.80499e-15)
(1.08189 -5.58464e-06 4.49017e-16)
(1.08191 -5.77103e-06 4.80547e-15)
(1.08192 -5.96474e-06 1.2183e-15)
(1.08194 -6.16602e-06 5.30426e-15)
(1.08196 -6.37511e-06 2.46725e-15)
(1.08198 -6.59226e-06 4.18522e-15)
(1.082 -6.81774e-06 4.02232e-15)
(1.08202 -7.05182e-06 2.91952e-15)
(1.08204 -7.29479e-06 2.34016e-15)
(1.08206 -7.54695e-06 1.52439e-15)
(1.08209 -7.8086e-06 2.72884e-15)
(1.08211 -8.08006e-06 -1.07706e-16)
(1.08214 -8.36167e-06 -1.58107e-15)
(1.08216 -8.65375e-06 7.87474e-16)
(1.08219 -8.95667e-06 -9.96419e-16)
(1.08221 -9.27079e-06 2.0556e-15)
(1.08224 -9.59649e-06 1.59413e-15)
(1.08227 -9.93417e-06 7.41707e-16)
(1.0823 -1.02842e-05 5.54036e-16)
(1.08233 -1.06471e-05 9.54505e-16)
(1.08237 -1.10233e-05 1.44554e-18)
(1.0824 -1.14131e-05 1.35702e-15)
(1.08244 -1.18171e-05 -1.16273e-15)
(1.08247 -1.22358e-05 1.69293e-15)
(1.08251 -1.26697e-05 1.80063e-15)
(1.08255 -1.31193e-05 4.93916e-16)
(1.08259 -1.35851e-05 1.66263e-15)
(1.08263 -1.40677e-05 -4.08151e-16)
(1.08267 -1.45677e-05 -1.56424e-15)
(1.08272 -1.50856e-05 -3.60138e-16)
(1.08276 -1.56222e-05 -1.87205e-15)
(1.08281 -1.6178e-05 1.00455e-15)
(1.08286 -1.67537e-05 5.70983e-16)
(1.08291 -1.735e-05 8.4364e-16)
(1.08296 -1.79676e-05 -1.31916e-17)
(1.08302 -1.86072e-05 5.12621e-16)
(1.08308 -1.92697e-05 -1.09331e-15)
(1.08313 -1.99557e-05 -1.60857e-15)
(1.08319 -2.06661e-05 -2.12323e-16)
(1.08326 -2.14017e-05 -2.54266e-15)
(1.08332 -2.21635e-05 1.27891e-15)
(1.08339 -2.29522e-05 5.09638e-16)
(1.08346 -2.37689e-05 4.46411e-16)
(1.08353 -2.46144e-05 4.22701e-16)
(1.08361 -2.54899e-05 1.98118e-16)
(1.08369 -2.63962e-05 -9.21662e-16)
(1.08377 -2.73344e-05 4.51358e-16)
(1.08385 -2.83057e-05 -1.27276e-15)
(1.08394 -2.93112e-05 1.63761e-15)
(1.08403 -3.0352e-05 1.45772e-15)
(1.08412 -3.14293e-05 9.69457e-17)
(1.08421 -3.25444e-05 1.54214e-15)
(1.08431 -3.36985e-05 -1.18436e-15)
(1.08442 -3.4893e-05 -2.14548e-15)
(1.08452 -3.61293e-05 -1.07596e-16)
(1.08463 -3.74087e-05 -2.17373e-15)
(1.08475 -3.87327e-05 1.23859e-15)
(1.08487 -4.01027e-05 1.78881e-16)
(1.08499 -4.15204e-05 8.2034e-16)
(1.08512 -4.29874e-05 2.63458e-16)
(1.08525 -4.45052e-05 1.29545e-15)
(1.08538 -4.60755e-05 -1.50266e-15)
(1.08552 -4.77001e-05 -2.00356e-15)
(1.08567 -4.93809e-05 -4.78893e-16)
(1.08582 -5.11196e-05 -2.55676e-15)
(1.08598 -5.29182e-05 1.1145e-15)
(1.08614 -5.47786e-05 6.31179e-16)
(1.0863 -5.67029e-05 2.17002e-16)
(1.08648 -5.86932e-05 1.32247e-16)
(1.08666 -6.07515e-05 4.03745e-16)
(1.08684 -6.28802e-05 -3.49026e-16)
(1.08703 -6.50815e-05 3.3764e-16)
(1.08723 -6.73577e-05 -1.46172e-15)
(1.08744 -6.97112e-05 1.69166e-15)
(1.08765 -7.21446e-05 2.16854e-15)
(1.08787 -7.46604e-05 5.52834e-17)
(1.0881 -7.72612e-05 1.2646e-15)
(1.08833 -7.99497e-05 -1.18294e-15)
(1.08858 -8.27286e-05 -1.84537e-15)
(1.08883 -8.56009e-05 2.22978e-17)
(1.08909 -8.85693e-05 -2.20713e-15)
(1.08936 -9.16371e-05 1.10118e-15)
(1.08964 -9.48071e-05 6.79444e-16)
(1.08993 -9.80826e-05 -1.03189e-17)
(1.09023 -0.000101467 -2.05841e-16)
(1.09054 -0.000104963 9.91324e-16)
(1.09086 -0.000108575 -1.42712e-15)
(1.09119 -0.000112306 -2.33152e-15)
(1.09153 -0.000116159 -3.59301e-16)
(1.09189 -0.000120138 -2.37154e-15)
(1.09225 -0.000124247 5.84807e-16)
(1.09263 -0.00012849 7.71677e-16)
(1.09303 -0.000132871 9.63006e-16)
(1.09343 -0.000137394 5.64323e-17)
(1.09385 -0.000142062 9.39708e-16)
(1.09428 -0.00014688 -2.51583e-16)
(1.09473 -0.000151852 6.51446e-16)
(1.09519 -0.000156983 -1.24861e-15)
(1.09567 -0.000162277 1.19509e-15)
(1.09617 -0.000167739 1.26598e-15)
(1.09668 -0.000173373 -3.26652e-16)
(1.09721 -0.000179184 1.22491e-15)
(1.09775 -0.000185176 -1.10572e-15)
(1.09832 -0.000191355 -1.44719e-15)
(1.0989 -0.000197725 -4.37568e-16)
(1.09951 -0.000204292 -2.18437e-15)
(1.10013 -0.00021106 9.35141e-16)
(1.10077 -0.000218035 4.59723e-16)
(1.10144 -0.000225221 9.89176e-16)
(1.10212 -0.000232625 -4.16739e-16)
(1.10283 -0.000240251 7.25705e-16)
(1.10356 -0.000248105 -1.76492e-15)
(1.10432 -0.000256192 -2.11156e-15)
(1.1051 -0.000264517 -8.51972e-16)
(1.10591 -0.000273087 -2.09913e-15)
(1.10674 -0.000281906 3.98103e-16)
(1.1076 -0.00029098 7.00052e-16)
(1.10849 -0.000300314 6.92961e-16)
(1.1094 -0.000309915 -2.0004e-16)
(1.11035 -0.000319787 5.40642e-16)
(1.11132 -0.000329935 -6.78078e-16)
(1.11233 -0.000340366 4.72889e-16)
(1.11336 -0.000351085 -1.21229e-15)
(1.11443 -0.000362097 1.16721e-15)
(1.11553 -0.000373407 1.14046e-15)
(1.11667 -0.00038502 2.60953e-16)
(1.11785 -0.000396941 9.35915e-16)
(1.11905 -0.000409175 -9.13674e-16)
(1.1203 -0.000421728 -1.3919e-15)
(1.12158 -0.000434602 -4.35193e-16)
(1.12291 -0.000447804 -2.1953e-15)
(1.12427 -0.000461336 8.82712e-16)
(1.12568 -0.000475203 8.92774e-16)
(1.12712 -0.000489408 3.34665e-16)
(1.12861 -0.000503956 2.01557e-16)
(1.13015 -0.000518848 8.37566e-16)
(1.13173 -0.000534087 -1.14112e-15)
(1.13335 -0.000549677 -1.88785e-15)
(1.13502 -0.000565618 -6.54297e-16)
(1.13675 -0.000581913 -1.60841e-15)
(1.13852 -0.000598562 1.8462e-16)
(1.14034 -0.000615567 -5.85222e-18)
(1.14221 -0.000632926 1.38491e-16)
(1.14413 -0.00065064 -1.44218e-16)
(1.14611 -0.000668707 5.0304e-16)
(1.14815 -0.000687126 -3.56367e-16)
(1.15024 -0.000705895 1.86165e-17)
(1.15238 -0.000725009 -1.00166e-15)
(1.15459 -0.000744466 8.37908e-16)
(1.15685 -0.00076426 1.10394e-15)
(1.15917 -0.000784386 -1.81381e-16)
(1.16156 -0.000804838 9.56454e-16)
(1.164 -0.000825608 -1.27418e-15)
(1.16651 -0.000846689 -1.3277e-15)
(1.16908 -0.00086807 -1.02504e-15)
(1.17172 -0.000889742 -1.02658e-15)
(1.17442 -0.000911693 -7.4462e-16)
(1.17719 -0.000933911 -8.44499e-16)
(1.18003 -0.000956383 -4.32575e-16)
(1.18293 -0.000979094 -1.08148e-15)
(1.1859 -0.00100203 -2.40789e-17)
(1.18894 -0.00102517 -1.63431e-15)
(1.19205 -0.00104849 -1.81973e-15)
(1.19523 -0.00107199 -5.50328e-16)
(1.19849 -0.00109563 -1.76486e-15)
(1.20181 -0.00111939 1.69472e-16)
(1.2052 -0.00114326 -1.48199e-16)
(1.20867 -0.0011672 -1.27331e-16)
(1.21221 -0.00119119 -3.59583e-16)
(1.21582 -0.00121521 -3.10406e-16)
(1.2195 -0.00123921 -6.27831e-16)
(1.22325 -0.00126318 -2.97526e-17)
(1.22708 -0.00128709 -9.91108e-16)
(1.23098 -0.00131089 3.60447e-16)
(1.23495 -0.00133456 2.62095e-16)
(1.23899 -0.00135805 -3.97271e-16)
(1.2431 -0.00138135 2.61707e-16)
(1.24728 -0.00140439 -9.49726e-16)
(1.25152 -0.00142716 -9.07631e-16)
(1.25584 -0.00144961 -7.99478e-16)
(1.26022 -0.0014717 -9.14215e-16)
(1.26467 -0.00149338 -7.96595e-16)
(1.26919 -0.00151462 -7.61319e-16)
(1.27376 -0.00153538 -4.23571e-16)
(1.2784 -0.00155561 -6.20159e-16)
(1.2831 -0.00157527 -2.67984e-16)
(1.28786 -0.00159432 -1.05668e-15)
(1.29267 -0.00161271 -1.27098e-15)
(1.29753 -0.00163041 -7.46571e-16)
(1.30245 -0.00164736 -1.16181e-15)
(1.30742 -0.00166353 -3.92768e-16)
(1.31244 -0.00167888 -4.17143e-16)
(1.3175 -0.00169336 -4.80877e-16)
(1.3226 -0.00170693 -6.16925e-16)
(1.32774 -0.00171956 -4.65171e-16)
(1.33292 -0.0017312 -6.25469e-16)
(1.33813 -0.00174182 -4.75952e-16)
(1.34338 -0.00175139 -7.18373e-16)
(1.34864 -0.00175987 -4.12366e-16)
(1.35394 -0.00176723 -4.10008e-16)
(1.35925 -0.00177344 -5.72812e-16)
(1.36458 -0.00177847 -4.38358e-16)
(1.36993 -0.00178229 -6.56334e-16)
(1.37528 -0.0017849 -6.54679e-16)
(1.38064 -0.00178625 -6.56046e-16)
(1.386 -0.00178634 -6.65215e-16)
(1.39136 -0.00178516 -6.80347e-16)
(1.39672 -0.00178268 -6.6765e-16)
(1.40206 -0.0017789 -6.83185e-16)
(1 -4.94761e-06 7.39386e-17)
(1.00001 -1.48159e-05 -2.52517e-16)
(1.00004 -2.46438e-05 6.06081e-16)
(1.00008 -3.44455e-05 -6.44971e-16)
(1.00013 -4.42194e-05 -8.891e-16)
(1.00019 -5.39487e-05 -2.40191e-15)
(1.00027 -6.36156e-05 -1.88764e-15)
(1.00035 -7.32076e-05 -1.7143e-15)
(1.00045 -8.27163e-05 -1.49049e-15)
(1.00057 -9.21339e-05 -1.42565e-15)
(1.00069 -0.000101452 -1.36052e-15)
(1.00083 -0.000110661 -1.60439e-15)
(1.00098 -0.000119753 -9.68495e-16)
(1.00114 -0.000128718 -1.69506e-15)
(1.00131 -0.000137547 -5.35682e-16)
(1.00149 -0.000146233 2.69586e-17)
(1.00168 -0.000154768 -9.12266e-16)
(1.00189 -0.000163146 3.20108e-16)
(1.0021 -0.000171359 7.42617e-16)
(1.00233 -0.000179402 1.7452e-17)
(1.00256 -0.000187267 8.12747e-16)
(1.00281 -0.000194951 1.47549e-15)
(1.00307 -0.000202447 -5.36497e-17)
(1.00333 -0.000209751 1.61501e-15)
(1.00361 -0.000216859 9.32279e-16)
(1.00389 -0.000223767 1.33605e-15)
(1.00418 -0.000230472 2.25381e-16)
(1.00448 -0.000236971 1.21075e-15)
(1.00479 -0.000243262 -6.39482e-16)
(1.00511 -0.000249342 -4.67598e-16)
(1.00543 -0.00025521 -9.20034e-16)
(1.00576 -0.000260866 -1.89947e-16)
(1.0061 -0.000266307 -1.50378e-15)
(1.00645 -0.000271533 -3.1948e-16)
(1.0068 -0.000276546 -1.97149e-15)
(1.00716 -0.000281344 -1.68942e-15)
(1.00753 -0.000285928 -2.11098e-15)
(1.0079 -0.0002903 -1.49112e-15)
(1.00827 -0.00029446 -2.28966e-15)
(1.00865 -0.000298411 -9.90209e-16)
(1.00904 -0.000302154 -2.51363e-15)
(1.00943 -0.000305691 -2.47943e-15)
(1.00983 -0.000309024 -2.64766e-15)
(1.01023 -0.000312157 -2.12294e-15)
(1.01063 -0.000315091 -2.15702e-15)
(1.01104 -0.00031783 -2.27838e-15)
(1.01145 -0.000320377 -2.24648e-15)
(1.01186 -0.000322735 -2.61636e-15)
(1.01228 -0.000324908 -2.51807e-15)
(1.0127 -0.000326899 -2.62332e-15)
(1.01312 -0.000328712 -2.55417e-15)
(1.01354 -0.000330351 -2.76732e-15)
(1.01397 -0.000331819 -2.5649e-15)
(1.0144 -0.00033312 -2.60589e-15)
(1.01483 -0.00033426 -2.54554e-15)
(1.01526 -0.000335241 -2.46695e-15)
(1.01569 -0.000336067 -2.47851e-15)
(1.01612 -0.000336744 -2.37529e-15)
(1.01656 -0.000337275 -2.44072e-15)
(1.01699 -0.000337664 -2.59598e-15)
(1.01742 -0.000337915 -2.47403e-15)
(1.01786 -0.000338033 -2.5388e-15)
(1.01829 -0.000338022 -2.55787e-15)
(1.01873 -0.000337885 -2.68255e-15)
(1.01916 -0.000337628 -2.4684e-15)
(1.0196 -0.000337254 -2.86782e-15)
(1.02003 -0.000336767 -2.50286e-15)
(1.02046 -0.000336171 -3.00286e-15)
(1.0209 -0.00033547 -2.21424e-15)
(1.02133 -0.000334667 -3.27725e-15)
(1.02176 -0.000333768 -2.05368e-15)
(1.02218 -0.000332775 -3.54418e-15)
(1.02261 -0.000331693 -1.56366e-15)
(1.02304 -0.000330524 -2.24262e-15)
(1.02346 -0.000329273 -1.27504e-15)
(1.02389 -0.000327943 -2.83059e-15)
(1.02431 -0.000326538 -8.82254e-16)
(1.02473 -0.00032506 -1.693e-15)
(1.02514 -0.000323513 -1.06849e-15)
(1.02556 -0.000321901 -1.91932e-15)
(1.02597 -0.000320227 -6.37439e-16)
(1.02638 -0.000318493 -6.95018e-16)
(1.02679 -0.000316704 -9.21451e-16)
(1.0272 -0.000314861 -1.18614e-15)
(1.0276 -0.000312967 -1.42707e-15)
(1.028 -0.000311027 -1.41583e-15)
(1.0284 -0.000309041 -1.45151e-15)
(1.0288 -0.000307014 -1.32937e-15)
(1.02919 -0.000304947 -1.47862e-15)
(1.02958 -0.000302844 -1.46154e-15)
(1.02997 -0.000300706 -1.6473e-15)
(1.03035 -0.000298537 -1.68138e-15)
(1.03074 -0.000296338 -1.95515e-15)
(1.03112 -0.000294112 -1.5863e-15)
(1.03149 -0.000291862 -2.03148e-15)
(1.03187 -0.000289589 -1.60773e-15)
(1.03224 -0.000287296 -1.98958e-15)
(1.03261 -0.000284985 -1.4132e-15)
(1.03297 -0.000282658 -4.42467e-16)
(1.03333 -0.000280317 -2.09378e-15)
(1.03369 -0.000277964 3.86977e-17)
(1.03405 -0.000275601 -1.48187e-15)
(1.0344 -0.000273229 7.11012e-16)
(1.03475 -0.000270851 -1.14683e-15)
(1.0351 -0.000268469 7.7968e-16)
(1.03544 -0.000266084 -4.3199e-16)
(1.03578 -0.000263698 1.29339e-15)
(1.03612 -0.000261312 1.17832e-16)
(1.03645 -0.000258928 1.38662e-15)
(1.03679 -0.000256548 8.08485e-16)
(1.03711 -0.000254174 1.02984e-15)
(1.03744 -0.000251806 1.999e-15)
(1.03776 -0.000249447 -7.02096e-18)
(1.03808 -0.000247097 2.47599e-15)
(1.0384 -0.000244758 4.79491e-16)
(1.03871 -0.000242432 2.92172e-15)
(1.03902 -0.00024012 8.25509e-16)
(1.03933 -0.000237822 2.96909e-15)
(1.03963 -0.000235541 8.89716e-16)
(1.03993 -0.000233277 3.17059e-15)
(1.04023 -0.000231032 1.37566e-15)
(1.04053 -0.000228807 3.51616e-15)
(1.04082 -0.000226603 1.73213e-15)
(1.04111 -0.00022442 3.69138e-15)
(1.0414 -0.000222261 1.59024e-15)
(1.04168 -0.000220126 3.70249e-15)
(1.04197 -0.000218016 1.99508e-15)
(1.04224 -0.000215932 3.98487e-15)
(1.04252 -0.000213875 2.0645e-15)
(1.04279 -0.000211846 3.99786e-15)
(1.04307 -0.000209845 2.54335e-15)
(1.04333 -0.000207875 3.95493e-15)
(1.0436 -0.000205935 2.81326e-15)
(1.04386 -0.000204027 4.08292e-15)
(1.04413 -0.00020215 3.23984e-15)
(1.04438 -0.000200307 3.67163e-15)
(1.04464 -0.000198499 4.02241e-15)
(1.04489 -0.000196724 2.69913e-15)
(1.04515 -0.000194986 3.77351e-15)
(1.0454 -0.000193284 3.39014e-15)
(1.04564 -0.00019162 5.23475e-15)
(1.04589 -0.000189994 3.41532e-15)
(1.04613 -0.000188407 5.24902e-15)
(1.04637 -0.00018686 3.53529e-15)
(1.04661 -0.000185354 5.03965e-15)
(1.04685 -0.00018389 3.48118e-15)
(1.04709 -0.00018247 4.6078e-15)
(1.04732 -0.000181093 4.09686e-15)
(1.04755 -0.000179762 5.94747e-15)
(1.04778 -0.000178478 3.69123e-15)
(1.04801 -0.000177242 5.63552e-15)
(1.04824 -0.000176055 3.93827e-15)
(1.04846 -0.000174919 5.50255e-15)
(1.04869 -0.000173836 4.23829e-15)
(1.04891 -0.000172807 5.05982e-15)
(1.04913 -0.000171834 4.82519e-15)
(1.04935 -0.00017092 6.29399e-15)
(1.04957 -0.000170065 4.65266e-15)
(1.04979 -0.000169274 5.76093e-15)
(1.05001 -0.000168547 4.70894e-15)
(1.05022 -0.000167889 5.31556e-15)
(1.05044 -0.000167303 5.49894e-15)
(1.05065 -0.000166792 4.17999e-15)
(1.05087 -0.000166359 5.37291e-15)
(1.05108 -0.000166008 4.64724e-15)
(1.0513 -0.000165742 6.43343e-15)
(1.05151 -0.000165566 4.4736e-15)
(1.05172 -0.000165484 6.19224e-15)
(1.05193 -0.000165501 4.51499e-15)
(1.05215 -0.000165624 6.01479e-15)
(1.05236 -0.00016586 4.84444e-15)
(1.05257 -0.000166217 5.70527e-15)
(1.05279 -0.000166706 5.14103e-15)
(1.053 -0.000167335 6.66043e-15)
(1.05322 -0.000168113 4.76018e-15)
(1.05343 -0.000169046 6.54932e-15)
(1.05365 -0.000170142 4.81683e-15)
(1.05387 -0.000171405 6.33648e-15)
(1.05409 -0.000172844 4.99933e-15)
(1.05432 -0.000174466 5.98477e-15)
(1.05454 -0.000176285 5.47383e-15)
(1.05477 -0.000178321 6.71889e-15)
(1.055 -0.000180603 5.32414e-15)
(1.05523 -0.000183169 6.31847e-15)
(1.05547 -0.000186066 5.63873e-15)
(1.05571 -0.000189349 5.90789e-15)
(1.05596 -0.000193077 6.24338e-15)
(1.05621 -0.00019731 4.6449e-15)
(1.05647 -0.0002021 5.7295e-15)
(1.05673 -0.00020749 5.30024e-15)
(1.057 -0.000213503 6.77866e-15)
(1.05728 -0.000220143 5.08712e-15)
(1.05757 -0.000227386 6.73545e-15)
(1.05786 -0.00023518 5.26605e-15)
(1.05817 -0.000243446 6.29051e-15)
(1.05849 -0.000252077 5.55181e-15)
(1.05882 -0.000260946 5.33725e-15)
(1.05916 -0.000269908 6.10111e-15)
(1.05951 -0.000278809 6.05228e-15)
(1.05988 -0.000287489 6.84683e-15)
(1.06025 -0.000295793 4.6394e-15)
(1.06064 -0.000303575 6.42965e-15)
(1.06103 -0.000310704 5.19306e-15)
(1.06144 -0.00031707 5.93393e-15)
(1.06185 -0.000322584 4.05022e-15)
(1.06227 -0.000327183 5.86121e-15)
(1.06269 -0.000330826 4.43126e-15)
(1.06312 -0.000333499 5.51186e-15)
(1.06355 -0.000335206 3.54946e-15)
(1.06398 -0.000335974 5.06839e-15)
(1.06441 -0.000335843 4.04539e-15)
(1.06484 -0.000334869 4.73017e-15)
(1.06527 -0.000333113 3.18409e-15)
(1.0657 -0.000330647 4.88175e-15)
(1.06613 -0.000327542 3.7449e-15)
(1.06654 -0.000323874 4.53332e-15)
(1.06696 -0.000319713 2.97822e-15)
(1.06737 -0.00031513 4.13607e-15)
(1.06777 -0.00031019 3.62151e-15)
(1.06816 -0.000304952 4.00246e-15)
(1.06855 -0.00029947 2.91687e-15)
(1.06893 -0.000293794 3.55511e-15)
(1.06931 -0.000287967 3.96479e-15)
(1.06968 -0.000282025 2.73216e-15)
(1.07003 -0.000276002 3.6442e-15)
(1.07039 -0.000269926 1.92704e-15)
(1.07073 -0.000263819 3.78837e-15)
(1.07106 -0.000257703 2.55972e-15)
(1.07139 -0.000251595 3.7796e-15)
(1.07171 -0.000245508 2.06487e-15)
(1.07202 -0.000239455 3.89446e-15)
(1.07233 -0.000233447 2.76107e-15)
(1.07262 -0.000227491 3.71962e-15)
(1.07291 -0.000221596 1.80785e-15)
(1.07319 -0.000215767 3.54537e-15)
(1.07347 -0.00021001 2.64065e-15)
(1.07373 -0.000204329 3.53208e-15)
(1.07399 -0.000198729 1.85225e-15)