/*--------------------------------*- C++ -*----------------------------------*\
  =========                 |
  \\      /  F ield         | OpenFOAM: The Open Source CFD Toolbox
   \\    /   O peration     | Website:  https://openfoam.org
    \\  /    A nd           | Version:  7
     \\/     M anipulation  |
\*---------------------------------------------------------------------------*/
FoamFile
{
    version     2.0;
    format      ascii;
    class       volScalarField;
    location    "163";
    object      p;
}
// * * * * * * * * * * * * * * * * * * * * * * * * * * * * * * * * * * * * * //

dimensions      [0 2 -2 0 0 0 0];

internalField   nonuniform List<scalar> 
12400
(
-0.374813
-0.376414
-0.377321
-0.377956
-0.378699
-0.379823
-0.381564
-0.384096
-0.387543
-0.392012
-0.397619
-0.404485
-0.412709
-0.422307
-0.433108
-0.444613
-0.455793
-0.464959
-0.469783
-0.466757
-0.369789
-0.371978
-0.373206
-0.374027
-0.374865
-0.375967
-0.377543
-0.37973
-0.382603
-0.38621
-0.390588
-0.395765
-0.401734
-0.408407
-0.415533
-0.422595
-0.428686
-0.432401
-0.431694
-0.42443
-0.365042
-0.367765
-0.369286
-0.370275
-0.371192
-0.372261
-0.373658
-0.375482
-0.377757
-0.380468
-0.383568
-0.386986
-0.390598
-0.394199
-0.397447
-0.399794
-0.400428
-0.398209
-0.391413
-0.37893
-0.360742
-0.363931
-0.36571
-0.366849
-0.367836
-0.368865
-0.370082
-0.371542
-0.37322
-0.375034
-0.376853
-0.378501
-0.379738
-0.380239
-0.37956
-0.377111
-0.372153
-0.363801
-0.350648
-0.332105
-0.357044
-0.360619
-0.362616
-0.363887
-0.364935
-0.365926
-0.366968
-0.368079
-0.369181
-0.370125
-0.370698
-0.370622
-0.369543
-0.367018
-0.362507
-0.355376
-0.344934
-0.330552
-0.311212
-0.286064
-0.354083
-0.357953
-0.360124
-0.361506
-0.362608
-0.363564
-0.364446
-0.365232
-0.365793
-0.365916
-0.365311
-0.363601
-0.360327
-0.354938
-0.346811
-0.335279
-0.319686
-0.299652
-0.274812
-0.242906
-0.351962
-0.35603
-0.358327
-0.359799
-0.360947
-0.361873
-0.362613
-0.363104
-0.363171
-0.36254
-0.360845
-0.357625
-0.352322
-0.344294
-0.332851
-0.317326
-0.297102
-0.271973
-0.242802
-0.204485
-0.350751
-0.354917
-0.357291
-0.358828
-0.360012
-0.360913
-0.36153
-0.361761
-0.361387
-0.360078
-0.357401
-0.352814
-0.345679
-0.335278
-0.320872
-0.301829
-0.27763
-0.248016
-0.216001
-0.171608
-0.350485
-0.354647
-0.357045
-0.358621
-0.35983
-0.360708
-0.361221
-0.36123
-0.360471
-0.358567
-0.355021
-0.349226
-0.340473
-0.327986
-0.310996
-0.288938
-0.261504
-0.227968
-0.194773
-0.143952
-0.35116
-0.355219
-0.357589
-0.359175
-0.360394
-0.361249
-0.361675
-0.361495
-0.360408
-0.357991
-0.353696
-0.346855
-0.336702
-0.322426
-0.303246
-0.27868
-0.248822
-0.211774
-0.178928
-0.123133
-0.352741
-0.3566
-0.358888
-0.360452
-0.361661
-0.36249
-0.362839
-0.362501
-0.361139
-0.358288
-0.353356
-0.345624
-0.334285
-0.318511
-0.297542
-0.270961
-0.239517
-0.199532
-0.167015
-0.110757
-0.355157
-0.358727
-0.360882
-0.362386
-0.363562
-0.364354
-0.364631
-0.364155
-0.362559
-0.359341
-0.35387
-0.345388
-0.333058
-0.316055
-0.293681
-0.265526
-0.232904
-0.191622
-0.159392
-0.104506
-0.358315
-0.361517
-0.363484
-0.36489
-0.366001
-0.366735
-0.366933
-0.366329
-0.364524
-0.360988
-0.355053
-0.345933
-0.332775
-0.314771
-0.291309
-0.262075
-0.228756
-0.187157
-0.15545
-0.103579
-0.3621
-0.364866
-0.366596
-0.367859
-0.368865
-0.36951
-0.369609
-0.368867
-0.366861
-0.363028
-0.356676
-0.346994
-0.333127
-0.314302
-0.290033
-0.260116
-0.226567
-0.185612
-0.15421
-0.106922
-0.36639
-0.368667
-0.37011
-0.371182
-0.372034
-0.372546
-0.372509
-0.371602
-0.369376
-0.365244
-0.358488
-0.348283
-0.333788
-0.314285
-0.289433
-0.259204
-0.225737
-0.186338
-0.154988
-0.112973
-0.371063
-0.372813
-0.373923
-0.374749
-0.375391
-0.375712
-0.375486
-0.374368
-0.371884
-0.367425
-0.360248
-0.349529
-0.334452
-0.314384
-0.289135
-0.258925
-0.225798
-0.188508
-0.15731
-0.120268
-0.376009
-0.377208
-0.377944
-0.378467
-0.378832
-0.378897
-0.378413
-0.377023
-0.374225
-0.369388
-0.361755
-0.350507
-0.334875
-0.31433
-0.288845
-0.258917
-0.226385
-0.191338
-0.160645
-0.127685
-0.381139
-0.381777
-0.382099
-0.382261
-0.382278
-0.382011
-0.381196
-0.379458
-0.376278
-0.371002
-0.362865
-0.351062
-0.334885
-0.313938
-0.288356
-0.258891
-0.227178
-0.194222
-0.164357
-0.134418
-0.386389
-0.386467
-0.386341
-0.386086
-0.385686
-0.385004
-0.383779
-0.381616
-0.37798
-0.372199
-0.363501
-0.351107
-0.33439
-0.313095
-0.287526
-0.258634
-0.22789
-0.196779
-0.167876
-0.140112
-0.391734
-0.391257
-0.390656
-0.389928
-0.389042
-0.387872
-0.386157
-0.383493
-0.379327
-0.37297
-0.363648
-0.35062
-0.333352
-0.311748
-0.286268
-0.258001
-0.228294
-0.198786
-0.170841
-0.144994
-0.397178
-0.396156
-0.395053
-0.393805
-0.392373
-0.390646
-0.388371
-0.385133
-0.380362
-0.373354
-0.363337
-0.349617
-0.331777
-0.309879
-0.284532
-0.2569
-0.228236
-0.20012
-0.173207
-0.148982
-0.402761
-0.401199
-0.399571
-0.397765
-0.395735
-0.393396
-0.390497
-0.386617
-0.381165
-0.37342
-0.362621
-0.348141
-0.329692
-0.307501
-0.282302
-0.255289
-0.227616
-0.200695
-0.175018
-0.151941
-0.408549
-0.406444
-0.404272
-0.401876
-0.399211
-0.396213
-0.392636
-0.388046
-0.381829
-0.373246
-0.361562
-0.346238
-0.327136
-0.304642
-0.279593
-0.253163
-0.226397
-0.200542
-0.175913
-0.153719
-0.414626
-0.411964
-0.409229
-0.40622
-0.402892
-0.399199
-0.394895
-0.389522
-0.382439
-0.372899
-0.360211
-0.343951
-0.32415
-0.301343
-0.276435
-0.250545
-0.224598
-0.199664
-0.175923
-0.154488
-0.421084
-0.417837
-0.414521
-0.410884
-0.406874
-0.402455
-0.397369
-0.391128
-0.383059
-0.372422
-0.358599
-0.341316
-0.320778
-0.29765
-0.272872
-0.247471
-0.222252
-0.198113
-0.175125
-0.154326
-0.428009
-0.424139
-0.420225
-0.41595
-0.411241
-0.406065
-0.400133
-0.392917
-0.38372
-0.37183
-0.356742
-0.338357
-0.317057
-0.293609
-0.268944
-0.24398
-0.2194
-0.195942
-0.173599
-0.153361
-0.435475
-0.430936
-0.426405
-0.421483
-0.416061
-0.410086
-0.403226
-0.394905
-0.384415
-0.37111
-0.354635
-0.335089
-0.313019
-0.289256
-0.264685
-0.240102
-0.216077
-0.193202
-0.171423
-0.151673
-0.443532
-0.438275
-0.433109
-0.427532
-0.421374
-0.414543
-0.406648
-0.397066
-0.385102
-0.370221
-0.352257
-0.331517
-0.308686
-0.284615
-0.260116
-0.235859
-0.212311
-0.189932
-0.168651
-0.149335
-0.452205
-0.446178
-0.440361
-0.434117
-0.42719
-0.419425
-0.41036
-0.399336
-0.385711
-0.369105
-0.349579
-0.327638
-0.304067
-0.279696
-0.255244
-0.23126
-0.208117
-0.186164
-0.165329
-0.146398
-0.461482
-0.454642
-0.448161
-0.441233
-0.433486
-0.424681
-0.414282
-0.401616
-0.386143
-0.367691
-0.346562
-0.323439
-0.299157
-0.274494
-0.250064
-0.226302
-0.203504
-0.181919
-0.161489
-0.142904
-0.471321
-0.463635
-0.456477
-0.448841
-0.440202
-0.430223
-0.418296
-0.403778
-0.386286
-0.365899
-0.343162
-0.318893
-0.293935
-0.268988
-0.244557
-0.220976
-0.19847
-0.177209
-0.157153
-0.138882
-0.481641
-0.47309
-0.465248
-0.456868
-0.447242
-0.435921
-0.422253
-0.405672
-0.386017
-0.363648
-0.339329
-0.313966
-0.288372
-0.263149
-0.238697
-0.215263
-0.19301
-0.17204
-0.152337
-0.134358
-0.492328
-0.48291
-0.474377
-0.465204
-0.454468
-0.441611
-0.425973
-0.407136
-0.385212
-0.360853
-0.335006
-0.308614
-0.282424
-0.256937
-0.232452
-0.209142
-0.187114
-0.166414
-0.14705
-0.129347
-0.503229
-0.492959
-0.48373
-0.473698
-0.461703
-0.447095
-0.429259
-0.407998
-0.383746
-0.357431
-0.330132
-0.302783
-0.276043
-0.250307
-0.225787
-0.202588
-0.180768
-0.16033
-0.141298
-0.123864
-0.514156
-0.503067
-0.493136
-0.482162
-0.468736
-0.452146
-0.431899
-0.40809
-0.381499
-0.353297
-0.32464
-0.296414
-0.269173
-0.243212
-0.218662
-0.195573
-0.173956
-0.153782
-0.135083
-0.117919
-0.524884
-0.513027
-0.502385
-0.490366
-0.475317
-0.456517
-0.433676
-0.407245
-0.378354
-0.348366
-0.318461
-0.289442
-0.261757
-0.235603
-0.21104
-0.18807
-0.166664
-0.146765
-0.128406
-0.111518
-0.535157
-0.522597
-0.511228
-0.498046
-0.481174
-0.45995
-0.434375
-0.405308
-0.374201
-0.342554
-0.311521
-0.281804
-0.253736
-0.22743
-0.202884
-0.180054
-0.158875
-0.139272
-0.121265
-0.104668
-0.544686
-0.531502
-0.519385
-0.504911
-0.486016
-0.462183
-0.433793
-0.402132
-0.368934
-0.335778
-0.30375
-0.273432
-0.245054
-0.218646
-0.194156
-0.171498
-0.150575
-0.131296
-0.11366
-0.0973748
-0.55316
-0.53944
-0.52655
-0.510645
-0.489541
-0.462961
-0.431737
-0.39758
-0.362456
-0.327958
-0.295074
-0.264264
-0.235655
-0.20921
-0.184825
-0.162381
-0.14175
-0.122831
-0.10559
-0.0896463
-0.560251
-0.546091
-0.532395
-0.514923
-0.491452
-0.462044
-0.428031
-0.391531
-0.354673
-0.319016
-0.285426
-0.254239
-0.225491
-0.199079
-0.174861
-0.152683
-0.132391
-0.113873
-0.0970571
-0.081496
-0.565618
-0.551119
-0.536584
-0.51742
-0.491464
-0.459208
-0.42252
-0.383874
-0.345501
-0.308882
-0.274744
-0.243305
-0.214516
-0.188222
-0.164239
-0.142387
-0.122487
-0.104419
-0.0880639
-0.0729379
-0.568923
-0.554187
-0.538779
-0.517819
-0.489309
-0.454258
-0.415066
-0.374513
-0.334865
-0.297489
-0.26297
-0.231412
-0.202693
-0.176608
-0.152941
-0.131482
-0.112034
-0.0944636
-0.0786092
-0.0639689
-0.569832
-0.554962
-0.538655
-0.515822
-0.48475
-0.447022
-0.405557
-0.363368
-0.322701
-0.284783
-0.250057
-0.218523
-0.189992
-0.164216
-0.14095
-0.119959
-0.101026
-0.084011
-0.0686982
-0.0545517
-0.568032
-0.553129
-0.535906
-0.511163
-0.477581
-0.437363
-0.3939
-0.350373
-0.308956
-0.27072
-0.235967
-0.204607
-0.176389
-0.15103
-0.128258
-0.107813
-0.0894631
-0.0730693
-0.0583539
-0.0446638
-0.563235
-0.548396
-0.530255
-0.50361
-0.467635
-0.425172
-0.380029
-0.335482
-0.293592
-0.255266
-0.220673
-0.189642
-0.16187
-0.137041
-0.11486
-0.0950488
-0.0773567
-0.0616506
-0.0475823
-0.0344481
-0.555187
-0.540508
-0.521467
-0.492973
-0.454785
-0.410374
-0.363898
-0.318663
-0.276585
-0.238401
-0.204157
-0.173613
-0.146426
-0.122252
-0.100764
-0.0816837
-0.0647351
-0.0497818
-0.0363527
-0.0239192
-0.543676
-0.529249
-0.509348
-0.479109
-0.438945
-0.392927
-0.345489
-0.299905
-0.257925
-0.220117
-0.186415
-0.156525
-0.130064
-0.106684
-0.0859982
-0.0677228
-0.051602
-0.0374576
-0.0247252
-0.0130629
-0.528536
-0.51445
-0.493756
-0.461923
-0.42007
-0.372821
-0.324806
-0.279216
-0.237614
-0.200411
-0.167465
-0.138405
-0.112826
-0.0903352
-0.0705625
-0.0531911
-0.0379761
-0.0247002
-0.0127293
-0.00189014
-0.509654
-0.495995
-0.4746
-0.44137
-0.398159
-0.350079
-0.30188
-0.256622
-0.215675
-0.17931
-0.147351
-0.119274
-0.0947091
-0.0732397
-0.0544854
-0.0381142
-0.0238834
-0.0115388
-0.000389403
0.00957404
-0.486971
-0.473823
-0.451844
-0.417454
-0.373248
-0.324755
-0.276764
-0.232172
-0.192166
-0.156902
-0.126062
-0.0991573
-0.0757536
-0.0554317
-0.037802
-0.0225247
-0.0093554
0.00199526
0.012267
0.0212988
-0.460483
-0.447925
-0.425507
-0.390229
-0.34542
-0.296935
-0.249535
-0.205939
-0.167154
-0.133196
-0.103678
-0.078103
-0.0560051
-0.0369541
-0.0205538
-0.00646095
0.00557088
0.0158667
0.0252057
0.0332493
-0.430244
-0.418353
-0.395661
-0.359799
-0.314797
-0.266725
-0.220289
-0.178012
-0.140704
-0.108268
-0.0802613
-0.0561734
-0.035519
-0.0178579
-0.0027886
0.0100323
0.0208538
0.0300356
0.0383857
0.0453853
-0.396362
-0.385207
-0.362436
-0.326327
-0.281519
-0.234234
-0.189154
-0.148497
-0.112911
-0.082204
-0.0558899
-0.0334403
-0.0143601
0.00179827
0.0154395
0.0269051
0.0364471
0.0444575
0.0517598
0.0576604
-0.358991
-0.348647
-0.326019
-0.289991
-0.245684
-0.199667
-0.156277
-0.117521
-0.08389
-0.0551071
-0.0306527
-0.0099848
0.00739806
0.0219479
0.03407
0.0441021
0.0523009
0.0590863
0.0652812
0.0700269
-0.31832
-0.308897
-0.286636
-0.250883
-0.207564
-0.163215
-0.121825
-0.0852299
-0.0537683
-0.0270907
-0.00465109
0.014102
0.0296737
0.0425175
0.0530361
0.0615624
0.0683614
0.0738775
0.0789099
0.082446
-0.274572
-0.266229
-0.244456
-0.20925
-0.167469
-0.125085
-0.0859846
-0.0517862
-0.0226885
0.00171881
0.0220027
0.0387201
0.0523775
0.063427
0.072265
0.0792196
0.0845722
0.0887862
0.0926028
0.0948755
-0.227988
-0.220968
-0.199602
-0.165639
-0.125614
-0.0855054
-0.0489563
-0.0173656
0.00919409
0.0311841
0.0491865
0.0637611
0.0754132
0.0845903
0.091679
0.0970057
0.100878
0.103762
0.10627
0.107171
-0.178889
-0.173331
-0.152773
-0.120223
-0.0822678
-0.0447214
-0.010955
0.0178432
0.0417129
0.0611575
0.0767696
0.0891091
0.0986781
0.105916
0.111198
0.114857
0.117235
0.118742
0.119728
0.118952
-0.128008
-0.12356
-0.10418
-0.0733122
-0.0377215
-0.00299121
0.0277924
0.0536403
0.0746913
0.0914826
0.104614
0.114642
0.122064
0.127309
0.130741
0.132713
0.133598
0.133643
0.132753
0.129903
-0.07547
-0.0721795
-0.0541686
-0.0252485
0.00771651
0.0394141
0.067048
0.0898161
0.107944
0.121996
0.132573
0.140231
0.145456
0.148667
0.150224
0.150507
0.14989
0.148338
0.145319
0.140897
-0.0216578
-0.0196235
-0.00312785
0.0236112
0.0537265
0.0822133
0.106565
0.126153
0.141279
0.152526
0.160499
0.165743
0.168738
0.16989
0.16956
0.16815
0.16598
0.162687
0.157606
0.154371
0.0329818
0.0336927
0.048538
0.0728981
0.0999806
0.125118
0.14609
0.162428
0.174498
0.1829
0.188235
0.191042
0.191789
0.190872
0.188656
0.185541
0.181746
0.176741
0.170327
0.167495
0.0879994
0.0873435
0.100418
0.122237
0.146146
0.167837
0.185365
0.198413
0.207401
0.21294
0.215626
0.215989
0.214487
0.211508
0.207416
0.202589
0.197159
0.190592
0.183147
0.179833
0.142944
0.140894
0.152099
0.171252
0.191889
0.210074
0.224133
0.233881
0.239786
0.242466
0.242512
0.240444
0.23671
0.231688
0.225737
0.219207
0.21217
0.204174
0.195767
0.191558
0.197362
0.193907
0.203167
0.219567
0.236876
0.251537
0.262132
0.2686
0.271449
0.271299
0.268736
0.264269
0.258334
0.251303
0.243523
0.235314
0.226721
0.217384
0.20799
0.202697
0.250804
0.245946
0.253214
0.266813
0.280779
0.291935
0.299108
0.302346
0.302189
0.299262
0.29414
0.287324
0.279238
0.270244
0.260678
0.250833
0.240743
0.230127
0.219727
0.213266
0.302827
0.296584
0.301838
0.312626
0.323276
0.330985
0.334809
0.334895
0.331811
0.326181
0.318572
0.309473
0.299301
0.288405
0.277108
0.265682
0.254157
0.242317
0.230911
0.223248
0.352999
0.345401
0.348649
0.356655
0.364054
0.368411
0.368991
0.36603
0.360121
0.351884
0.341879
0.330585
0.318406
0.305683
0.292725
0.279783
0.26689
0.253882
0.241487
0.232617
0.400904
0.391994
0.393273
0.398561
0.402814
0.403945
0.401417
0.395543
0.386934
0.37621
0.363919
0.350531
0.336441
0.321979
0.30744
0.293058
0.278871
0.264757
0.251406
0.241344
0.446141
0.435978
0.43535
0.438022
0.43927
0.437336
0.431863
0.423234
0.412074
0.399
0.384551
0.36919
0.353298
0.337198
0.32117
0.305435
0.290034
0.274885
0.26062
0.249398
0.488334
0.476989
0.474544
0.474734
0.473151
0.468343
0.460116
0.448914
0.435374
0.420107
0.403647
0.386445
0.368876
0.351251
0.333838
0.316844
0.300318
0.284209
0.269086
0.256751
0.52713
0.514685
0.510538
0.508415
0.504205
0.496743
0.485979
0.472407
0.456676
0.439392
0.421083
0.40219
0.383079
0.364054
0.345369
0.32722
0.309664
0.29268
0.276761
0.263377
0.562203
0.548755
0.543043
0.538803
0.532202
0.52233
0.509267
0.493551
0.475837
0.456729
0.436747
0.416324
0.395821
0.37553
0.355696
0.336505
0.318021
0.300249
0.283605
0.269251
0.59326
0.578914
0.571797
0.565663
0.556932
0.54492
0.529817
0.512199
0.492727
0.472002
0.450537
0.428759
0.407021
0.38561
0.364759
0.344645
0.325342
0.306876
0.289585
0.274353
0.620038
0.604909
0.596567
0.588785
0.578208
0.564345
0.54748
0.528219
0.507229
0.485108
0.462362
0.439414
0.416611
0.394231
0.372502
0.351592
0.331584
0.312521
0.294668
0.278664
0.642308
0.62652
0.617148
0.607988
0.595869
0.580462
0.562128
0.541499
0.519243
0.495957
0.472143
0.44822
0.424528
0.401341
0.37888
0.357305
0.33671
0.317151
0.298825
0.282169
0.659878
0.643563
0.633373
0.623118
0.609778
0.59315
0.573655
0.551942
0.528684
0.504475
0.479815
0.455118
0.430721
0.406894
0.383852
0.361751
0.34069
0.320737
0.302039
0.284867
0.672594
0.65589
0.645102
0.634053
0.619827
0.602313
0.581972
0.559471
0.535484
0.510602
0.485324
0.460062
0.435149
0.410855
0.387387
0.364901
0.343499
0.323262
0.304299
0.286768
0.68034
0.663389
0.652234
0.6407
0.625933
0.607876
0.587017
0.564029
0.539591
0.514292
0.48863
0.463016
0.437782
0.413195
0.389461
0.366734
0.345119
0.324704
0.30558
0.287802
0.683041
0.665988
0.654702
0.642999
0.628043
0.609792
0.588745
0.565579
0.540972
0.515516
0.489708
0.463958
0.438599
0.413898
0.39006
0.367237
0.345538
0.325046
0.30584
0.287962
0.680659
0.66365
0.652472
0.640922
0.626131
0.60804
0.587138
0.564103
0.539613
0.51426
0.488545
0.462877
0.437593
0.412956
0.389176
0.366406
0.34475
0.324289
0.305098
0.287258
0.6732
0.656381
0.64555
0.634472
0.6202
0.60262
0.582198
0.559603
0.535514
0.510527
0.485144
0.459777
0.434763
0.410372
0.386812
0.364241
0.34276
0.322441
0.303384
0.285743
0.660709
0.644223
0.633974
0.623683
0.610282
0.593563
0.57395
0.552102
0.528698
0.504336
0.479521
0.45467
0.430125
0.406156
0.382979
0.360753
0.339574
0.319508
0.300696
0.283418
0.643269
0.627258
0.61782
0.608625
0.596438
0.580921
0.562443
0.541643
0.519201
0.495719
0.471706
0.447585
0.4237
0.400329
0.377693
0.355957
0.335208
0.315501
0.297038
0.280264
0.621006
0.605606
0.597197
0.589394
0.578754
0.564774
0.547746
0.528288
0.50708
0.484726
0.461744
0.43856
0.415525
0.392923
0.370983
0.349877
0.329682
0.31044
0.292423
0.276287
0.594083
0.579423
0.572251
0.566122
0.557347
0.545223
0.529951
0.51212
0.492407
0.471423
0.449691
0.427645
0.405643
0.383976
0.362883
0.342543
0.323026
0.304352
0.286874
0.271497
0.562701
0.548902
0.543158
0.538967
0.532358
0.522396
0.509171
0.493239
0.475273
0.455889
0.435618
0.414903
0.39411
0.373537
0.353436
0.333994
0.31527
0.297266
0.280416
0.265908
0.527095
0.51427
0.51013
0.508118
0.503956
0.496442
0.48554
0.471763
0.455781
0.438217
0.419608
0.400408
0.38099
0.361663
0.342691
0.324272
0.306456
0.289218
0.273078
0.259538
0.487538
0.47579
0.473406
0.473792
0.472333
0.467533
0.459209
0.447829
0.434054
0.418514
0.401755
0.384242
0.366357
0.34842
0.330706
0.313428
0.296627
0.280248
0.264892
0.252405
0.444332
0.433752
0.433256
0.43623
0.437703
0.435859
0.43035
0.421588
0.410226
0.3969
0.382166
0.366499
0.350293
0.333879
0.317545
0.301519
0.285834
0.2704
0.255896
0.244533
0.397812
0.388478
0.389979
0.3957
0.400306
0.401632
0.399149
0.393207
0.384445
0.373505
0.360957
0.347283
0.33289
0.31812
0.303278
0.288605
0.274129
0.259724
0.246131
0.235946
0.348338
0.340318
0.343896
0.352492
0.360398
0.36508
0.365811
0.362867
0.356871
0.348474
0.338252
0.326704
0.314245
0.301231
0.28798
0.274753
0.261574
0.248272
0.235639
0.226673
0.296297
0.289643
0.295352
0.306915
0.318254
0.326448
0.330553
0.33076
0.327677
0.321956
0.314187
0.304879
0.294462
0.283301
0.271733
0.260035
0.248231
0.2361
0.224466
0.216742
0.242096
0.236847
0.244715
0.2593
0.274168
0.285995
0.293604
0.297091
0.297041
0.294112
0.288903
0.281936
0.273652
0.26443
0.254621
0.244526
0.234168
0.223269
0.212661
0.206184
0.186163
0.182343
0.192366
0.209991
0.228446
0.243992
0.255205
0.262073
0.265155
0.26511
0.262548
0.258003
0.25193
0.244718
0.236734
0.228305
0.219459
0.209846
0.200275
0.195027
0.128938
0.126558
0.138705
0.159347
0.181405
0.200721
0.215605
0.225928
0.232214
0.235122
0.235274
0.233216
0.229414
0.22427
0.218164
0.211453
0.204179
0.195905
0.187363
0.183295
0.0708745
0.0699308
0.0841412
0.10774
0.133375
0.156472
0.175061
0.188881
0.198417
0.204327
0.207239
0.207713
0.206228
0.203194
0.199005
0.19405
0.188407
0.181537
0.173999
0.171004
0.0124323
0.0129057
0.0290928
0.0555458
0.0846901
0.11154
0.133833
0.151165
0.163971
0.172905
0.178602
0.181635
0.182495
0.181602
0.179353
0.176176
0.172213
0.166841
0.160283
0.158138
-0.0459245
-0.0440694
-0.0260172
0.00314982
0.0356908
0.0662248
0.0921855
0.113011
0.129081
0.141038
0.149525
0.155124
0.15834
0.159602
0.15931
0.15791
0.155652
0.151924
0.146435
0.144679
-0.103732
-0.10055
-0.0807643
-0.0490624
-0.0132814
0.0208264
0.0503831
0.0746548
0.0939539
0.108908
0.120167
0.12832
0.133887
0.137307
0.138976
0.139342
0.13877
0.136848
0.132783
0.130478
-0.160526
-0.156099
-0.134725
-0.100706
-0.061886
-0.0243563
0.00868832
0.0363266
0.0587933
0.0766971
0.0906883
0.101366
0.109259
0.114823
0.11845
0.120563
0.121591
0.121496
0.119665
0.116055
-0.21585
-0.210287
-0.187479
-0.151402
-0.109787
-0.0690283
-0.0326402
-0.00174552
0.0238007
0.0445813
0.0612454
0.0743975
0.0845777
0.0922538
0.0978243
0.101678
0.104241
0.105796
0.106242
0.104375
-0.26934
-0.262651
-0.238621
-0.200784
-0.156657
-0.112902
-0.0733503
-0.0393395
-0.0108281
0.0127338
0.0319904
0.0475502
0.0599606
0.0697022
0.0771854
0.0827766
0.0868621
0.0899109
0.0923391
0.0927481
-0.32084
-0.312694
-0.287802
-0.248502
-0.202179
-0.155699
-0.113198
-0.0762411
-0.0449042
-0.0186788
0.0030704
0.0209534
0.0355224
0.0472683
0.0566158
0.063924
0.0695367
0.0739869
0.0780002
0.0802041
-0.369553
-0.360012
-0.334924
-0.29424
-0.246054
-0.197155
-0.151951
-0.112246
-0.078247
-0.0494973
-0.0253744
-0.00526945
0.0113722
0.025048
0.0361956
0.0451765
0.0523026
0.058106
0.063461
0.0670992
-0.415177
-0.404533
-0.379001
-0.337857
-0.288003
-0.237015
-0.189387
-0.147159
-0.110686
-0.0795713
-0.0532115
-0.0310018
-0.0123874
0.00313217
0.0160032
0.0265939
0.0351974
0.042323
0.0489144
0.0538584
-0.457457
-0.445896
-0.420035
-0.378675
-0.327807
-0.275041
-0.225299
-0.1808
-0.142062
-0.108761
-0.0803172
-0.0561346
-0.0356605
-0.0183945
-0.00388553
0.00824154
0.0182703
0.0266827
0.0344509
0.0406367
-0.496147
-0.483793
-0.457857
-0.416471
-0.365127
-0.311016
-0.259492
-0.213001
-0.172229
-0.136936
-0.106578
-0.0805673
-0.0583584
-0.0394532
-0.0233996
-0.00981677
0.00157447
0.0112247
0.0201088
0.0274728
-0.531043
-0.517979
-0.492215
-0.451165
-0.39966
-0.344745
-0.291791
-0.24361
-0.201054
-0.163982
-0.131889
-0.104209
-0.0804003
-0.0599721
-0.0424746
-0.0275227
-0.0148397
-0.0040108
0.00592239
0.014401
-0.561979
-0.548273
-0.522898
-0.482563
-0.431317
-0.375995
-0.322043
-0.272493
-0.22842
-0.189793
-0.156162
-0.126978
-0.101714
-0.079887
-0.0610527
-0.0448243
-0.0309264
-0.0189826
-0.00806608
0.00146585
-0.588833
-0.574557
-0.549757
-0.510481
-0.459949
-0.404657
-0.350108
-0.299538
-0.254226
-0.214281
-0.179314
-0.148804
-0.122236
-0.0991411
-0.0790832
-0.0616758
-0.046644
-0.0336511
-0.0218136
-0.0112895
-0.611538
-0.596767
-0.572702
-0.534794
-0.485416
-0.430616
-0.375885
-0.324655
-0.278398
-0.237369
-0.20128
-0.169629
-0.141911
-0.117687
-0.0965222
-0.0780368
-0.0619559
-0.0479815
-0.0352837
-0.023829
-0.630084
-0.614897
-0.591699
-0.555432
-0.507618
-0.453774
-0.39929
-0.347761
-0.300873
-0.259026
-0.221997
-0.189403
-0.160692
-0.135484
-0.113332
-0.0938737
-0.0768305
-0.0619458
-0.0484481
-0.0361233
-0.644522
-0.628999
-0.60677
-0.572373
-0.526505
-0.474066
-0.420261
-0.368804
-0.321592
-0.279193
-0.241478
-0.208079
-0.178545
-0.152504
-0.129483
-0.10916
-0.091241
-0.0755216
-0.0612858
-0.0481478
-0.654959
-0.639183
-0.617997
-0.585651
-0.542062
-0.491457
-0.438759
-0.38775
-0.340525
-0.29783
-0.259651
-0.225665
-0.195483
-0.168709
-0.144952
-0.123877
-0.105166
-0.0886909
-0.0737808
-0.0598821
-0.661561
-0.645617
-0.625514
-0.595347
-0.554323
-0.505944
-0.454772
-0.404588
-0.357663
-0.31493
-0.276503
-0.242132
-0.211463
-0.184119
-0.159745
-0.138004
-0.118595
-0.101438
-0.0859161
-0.0713176
-0.664543
-0.648519
-0.629515
-0.601597
-0.563359
-0.517559
-0.46831
-0.419322
-0.373014
-0.330503
-0.292044
-0.257473
-0.226478
-0.198713
-0.173846
-0.151558
-0.131567
-0.113726
-0.097658
-0.0824744
-0.66417
-0.648157
-0.63024
-0.604587
-0.569289
-0.526367
-0.479409
-0.431978
-0.386599
-0.344569
-0.306294
-0.271703
-0.240539
-0.212491
-0.18725
-0.164522
-0.14403
-0.125606
-0.108983
-0.0934082
-0.660744
-0.644838
-0.627979
-0.604552
-0.572275
-0.532465
-0.488129
-0.442597
-0.398452
-0.357159
-0.319278
-0.284846
-0.253667
-0.225469
-0.199969
-0.176898
-0.15599
-0.137077
-0.119957
-0.103963
-0.654603
-0.638902
-0.623055
-0.601768
-0.572518
-0.535985
-0.494552
-0.451238
-0.408623
-0.368316
-0.331036
-0.296935
-0.26589
-0.237671
-0.212026
-0.188706
-0.167467
-0.148144
-0.13058
-0.11415
-0.646106
-0.630712
-0.615822
-0.596548
-0.570262
-0.53709
-0.498784
-0.457976
-0.417171
-0.378092
-0.341614
-0.308012
-0.277244
-0.249129
-0.223446
-0.199972
-0.178482
-0.158813
-0.140855
-0.124023
-0.635626
-0.620641
-0.606652
-0.589235
-0.565782
-0.535975
-0.500953
-0.462898
-0.424166
-0.386549
-0.351067
-0.318126
-0.287773
-0.25988
-0.234263
-0.210723
-0.189057
-0.169106
-0.150798
-0.133618
-0.623543
-0.609066
-0.595923
-0.580187
-0.559381
-0.532865
-0.501209
-0.466106
-0.429684
-0.393753
-0.359456
-0.327333
-0.297525
-0.26997
-0.244516
-0.220995
-0.199224
-0.179048
-0.160431
-0.142951
-0.610226
-0.596354
-0.584008
-0.569772
-0.551385
-0.528007
-0.499722
-0.467711
-0.433809
-0.399774
-0.366847
-0.335693
-0.306559
-0.279447
-0.254251
-0.230828
-0.209019
-0.188675
-0.169781
-0.152037
-0.596034
-0.582855
-0.571267
-0.558351
-0.542129
-0.521672
-0.49668
-0.467839
-0.436628
-0.404685
-0.373305
-0.34327
-0.314932
-0.288369
-0.263519
-0.240269
-0.218485
-0.198024
-0.178882
-0.1609
-0.581299
-0.568892
-0.558032
-0.546271
-0.531946
-0.514143
-0.492289
-0.466623
-0.438229
-0.408555
-0.378895
-0.350128
-0.322709
-0.296797
-0.272379
-0.249372
-0.22767
-0.20714
-0.187773
-0.16957
-0.566323
-0.554756
-0.544603
-0.533851
-0.52116
-0.505709
-0.486769
-0.464209
-0.438704
-0.41145
-0.383679
-0.35633
-0.329954
-0.304793
-0.28089
-0.258196
-0.236629
-0.216075
-0.196501
-0.178087
-0.551374
-0.540698
-0.531242
-0.521376
-0.510072
-0.496656
-0.480351
-0.460751
-0.438149
-0.413434
-0.387711
-0.361932
-0.336729
-0.312425
-0.289122
-0.266807
-0.245424
-0.224883
-0.205116
-0.186495
-0.536678
-0.526931
-0.518167
-0.509088
-0.498949
-0.487254
-0.473266
-0.456414
-0.436661
-0.414564
-0.391035
-0.366984
-0.343094
-0.319758
-0.297143
-0.275274
-0.254123
-0.23363
-0.213679
-0.194844
-0.522423
-0.513626
-0.505553
-0.497183
-0.488022
-0.477751
-0.465744
-0.451369
-0.434341
-0.414893
-0.393687
-0.371526
-0.3491
-0.326858
-0.305027
-0.283676
-0.262802
-0.242389
-0.222254
-0.203192
-0.508756
-0.500915
-0.49353
-0.485814
-0.477472
-0.468359
-0.457998
-0.44579
-0.431299
-0.414473
-0.395691
-0.375584
-0.354789
-0.333785
-0.312849
-0.292095
-0.271545
-0.251239
-0.230918
-0.211603
-0.495786
-0.488894
-0.482193
-0.475085
-0.467436
-0.45925
-0.450222
-0.43985
-0.427651
-0.413359
-0.397066
-0.37917
-0.360192
-0.340593
-0.320683
-0.300619
-0.280446
-0.260274
-0.239755
-0.220153
-0.483594
-0.477629
-0.471599
-0.465063
-0.458007
-0.450557
-0.442576
-0.433713
-0.423521
-0.411611
-0.397822
-0.38228
-0.365321
-0.347324
-0.328599
-0.309339
-0.289608
-0.269598
-0.248862
-0.228927
-0.472235
-0.467163
-0.461783
-0.455783
-0.449239
-0.442368
-0.435191
-0.427529
-0.41904
-0.409306
-0.397977
-0.384904
-0.37017
-0.354005
-0.336661
-0.318352
-0.299144
-0.279329
-0.258354
-0.238019
-0.461753
-0.457526
-0.45276
-0.447257
-0.441155
-0.434739
-0.428166
-0.421429
-0.414341
-0.406536
-0.397561
-0.387024
-0.374717
-0.360641
-0.34492
-0.327748
-0.309175
-0.289603
-0.268355
-0.247547
-0.452185
-0.448738
-0.444541
-0.439487
-0.433765
-0.427704
-0.421573
-0.41553
-0.409559
-0.403413
-0.396628
-0.388634
-0.378929
-0.367216
-0.353406
-0.337613
-0.319829
-0.300574
-0.27903
-0.257622
-0.443569
-0.44082
-0.437132
-0.432475
-0.427074
-0.421289
-0.415475
-0.409936
-0.404832
-0.400074
-0.395264
-0.389747
-0.382765
-0.373689
-0.36212
-0.348011
-0.331235
-0.312411
-0.290548
-0.26845
-0.435945
-0.433795
-0.430545
-0.426228
-0.421095
-0.415521
-0.409932
-0.404754
-0.400306
-0.396675
-0.393595
-0.390414
-0.3862
-0.38
-0.371028
-0.35898
-0.3435
-0.325319
-0.303155
-0.280118
-0.429349
-0.427683
-0.424794
-0.420761
-0.415848
-0.41044
-0.405016
-0.400094
-0.396137
-0.393401
-0.391787
-0.390734
-0.389239
-0.386081
-0.380056
-0.370501
-0.35672
-0.339446
-0.317131
-0.29326
-0.423802
-0.422497
-0.419887
-0.416089
-0.411361
-0.406095
-0.400804
-0.396079
-0.392492
-0.390457
-0.390051
-0.390865
-0.391933
-0.391876
-0.389094
-0.382499
-0.370889
-0.35505
-0.33275
-0.307777
-0.419316
-0.418223
-0.41582
-0.412215
-0.407656
-0.40253
-0.397374
-0.392826
-0.389543
-0.388062
-0.388628
-0.39102
-0.3944
-0.397363
-0.398012
-0.394813
-0.38597
-0.371944
-0.351267
-0.325606
-0.415853
-0.414832
-0.412565
-0.409125
-0.404733
-0.399771
-0.394783
-0.390438
-0.387444
-0.386427
-0.387775
-0.391456
-0.396828
-0.402586
-0.406699
-0.407209
-0.401836
-0.390097
-0.372341
-0.345119
-0.413337
-0.412262
-0.410069
-0.406774
-0.402564
-0.397808
-0.39305
-0.388971
-0.386303
-0.385726
-0.387728
-0.392447
-0.399461
-0.407666
-0.415095
-0.419429
-0.418135
-0.409135
-0.39417
-0.366026
-0.411656
-0.410413
-0.408246
-0.405088
-0.401084
-0.396591
-0.392147
-0.388425
-0.386161
-0.386057
-0.388659
-0.394231
-0.402564
-0.412802
-0.423218
-0.431262
-0.434375
-0.42864
-0.416363
-0.38831
-0.410655
-0.409168
-0.406988
-0.403965
-0.400198
-0.396032
-0.391992
-0.388735
-0.386983
-0.387428
-0.390642
-0.396967
-0.406367
-0.418229
-0.431174
-0.442608
-0.450131
-0.448219
-0.439053
-0.412
-0.410163
-0.408384
-0.406172
-0.403288
-0.399788
-0.396012
-0.392465
-0.389783
-0.388656
-0.389751
-0.393634
-0.400686
-0.410994
-0.424152
-0.439138
-0.4535
-0.465143
-0.46744
-0.462091
-0.436917
-0.409995
-0.407912
-0.405664
-0.402929
-0.399729
-0.396397
-0.393422
-0.39141
-0.391012
-0.392857
-0.397484
-0.405288
-0.416431
-0.430663
-0.447272
-0.464051
-0.479313
-0.485855
-0.484962
-0.462525
-0.409967
-0.407603
-0.405332
-0.402763
-0.399891
-0.397045
-0.394702
-0.393431
-0.39384
-0.396512
-0.401952
-0.41055
-0.422512
-0.437696
-0.45563
-0.474361
-0.492652
-0.503105
-0.507014
-0.488002
-0.409904
-0.407314
-0.405048
-0.402666
-0.400144
-0.397816
-0.396138
-0.395647
-0.396904
-0.400443
-0.406735
-0.416156
-0.428943
-0.445024
-0.464094
-0.484419
-0.505178
-0.518972
-0.527638
-0.512416
-0.40965
-0.406912
-0.404693
-0.402521
-0.400367
-0.398567
-0.397562
-0.397853
-0.399956
-0.404356
-0.411494
-0.421735
-0.435336
-0.452285
-0.472372
-0.494046
-0.516801
-0.533327
-0.546313
-0.5349
-0.409066
-0.406277
-0.404155
-0.402217
-0.400439
-0.399161
-0.398809
-0.399847
-0.402747
-0.407954
-0.415882
-0.426892
-0.441258
-0.459025
-0.480039
-0.502882
-0.527245
-0.546004
-0.562557
-0.554735
-0.408038
-0.405306
-0.403335
-0.401654
-0.400251
-0.39947