/*--------------------------------*- C++ -*----------------------------------*\
  =========                 |
  \\      /  F ield         | OpenFOAM: The Open Source CFD Toolbox
   \\    /   O peration     | Website:  https://openfoam.org
    \\  /    A nd           | Version:  7
     \\/     M anipulation  |
\*---------------------------------------------------------------------------*/
FoamFile
{
    version     2.0;
    format      ascii;
    class       surfaceScalarField;
    location    "163";
    object      phi;
}
// * * * * * * * * * * * * * * * * * * * * * * * * * * * * * * * * * * * * * //

dimensions      [0 3 -1 0 0 0 0];

internalField   nonuniform List<scalar> 
24510
(
-3.53422e-06
-8.98416e-05
9.33758e-05
-1.43443e-05
-0.000253113
0.000263923
-3.32422e-05
-0.000409085
0.000427983
-6.08207e-05
-0.000553495
0.000581073
-9.72657e-05
-0.000683751
0.000720196
-0.000142305
-0.000800082
0.000845122
-0.000195275
-0.000905534
0.000958503
-0.000255253
-0.0010051
0.00106508
-0.000321207
-0.00110413
0.00117008
-0.000392036
-0.00120643
0.00127726
-0.000466486
-0.00131256
0.00138701
-0.000542881
-0.00141854
0.00149494
-0.000618736
-0.00151486
0.00159072
-0.000690292
-0.00158549
0.00165705
-0.000752072
-0.0016068
0.00166858
-0.000796611
-0.00154651
0.00159105
-0.000814286
-0.00136351
0.00138119
-0.000792992
-0.0010105
0.000989203
-0.00072155
-0.00044122
0.000369779
0.00039026
-0.000530303
-0.000581507
-5.0197e-06
-8.48219e-05
-1.95127e-05
-0.00023862
-4.37798e-05
-0.000384818
-7.79578e-05
-0.000519317
-0.000121878
-0.000639831
-0.000175066
-0.000746894
-0.000236841
-0.000843759
-0.000306457
-0.000935484
-0.000383215
-0.00102737
-0.000466482
-0.00112316
-0.000555546
-0.0012235
-0.000649321
-0.00132477
-0.000745921
-0.00141826
-0.000842123
-0.00148929
-0.000932791
-0.00151613
-0.00101035
-0.00146895
-0.00106441
-0.00130945
-0.00108182
-0.000993091
-0.00104857
-0.000474468
0.000288402
-0.00094671
-6.38347e-06
-7.84384e-05
-2.42019e-05
-0.000220801
-5.32276e-05
-0.000355792
-9.313e-05
-0.000479414
-0.000143378
-0.000589583
-0.000203282
-0.000686989
-0.000272111
-0.000774931
-0.000349219
-0.000858375
-0.000434136
-0.00094245
-0.000526534
-0.00103076
-0.000626056
-0.00112398
-0.000732003
-0.00121882
-0.000842901
-0.00130736
-0.000955951
-0.00137624
-0.00106638
-0.0014057
-0.00116677
-0.00136856
-0.00124644
-0.00122978
-0.00129201
-0.000947528
-0.00128758
-0.000478893
0.000214073
-0.00121325
-7.57813e-06
-7.08603e-05
-2.8265e-05
-0.000200114
-6.13181e-05
-0.000322739
-0.000105952
-0.000434781
-0.000161277
-0.000534258
-0.000226378
-0.000621888
-0.00030043
-0.000700879
-0.000382809
-0.000775996
-0.000473138
-0.000852121
-0.000571218
-0.000932683
-0.000676821
-0.00101837
-0.000789382
-0.00110626
-0.000907571
-0.00118917
-0.00102877
-0.00125504
-0.00114844
-0.00128603
-0.00125934
-0.00125767
-0.00135076
-0.00113836
-0.00140931
-0.000888979
-0.00141909
-0.000469112
0.000148841
-0.00135386
-8.56496e-06
-6.22953e-05
-3.15847e-05
-0.000177094
-6.78444e-05
-0.000286479
-0.000116134
-0.000386492
-0.000175224
-0.000475167
-0.000243963
-0.000553149
-0.00032139
-0.000623452
-0.000406815
-0.000690572
-0.000499823
-0.000759113
-0.000600159
-0.000832346
-0.000707501
-0.000911031
-0.000821134
-0.000992628
-0.000939555
-0.00107075
-0.00105999
-0.00113461
-0.00117779
-0.00116823
-0.0012857
-0.00114976
-0.00137287
-0.00105119
-0.00142543
-0.000836417
-0.00142931
-0.000465235
6.76856e-05
-0.00134815
-9.31459e-06
-5.29807e-05
-3.40747e-05
-0.000152334
-7.26578e-05
-0.000247896
-0.000123477
-0.000335673
-0.000184988
-0.000413656
-0.000255799
-0.000482337
-0.000334771
-0.00054448
-0.000421067
-0.000604275
-0.000514112
-0.000666069
-0.000613431
-0.000733027
-0.000718395
-0.000806067
-0.000827884
-0.000883139
-0.000939906
-0.000958729
-0.00105115
-0.00102336
-0.00115643
-0.00106295
-0.0012481
-0.0010581
-0.00131478
-0.000984501
-0.00134088
-0.000810317
-0.0013163
-0.000489815
-5.75088e-05
-0.00119111
-9.80716e-06
-4.31736e-05
-3.56778e-05
-0.000126464
-7.56634e-05
-0.000207911
-0.000127859
-0.000283477
-0.000190436
-0.000351079
-0.000261762
-0.000411012
-0.000340482
-0.00046576
-0.00042554
-0.000519217
-0.000516094
-0.000575514
-0.000611316
-0.000637805
-0.000710098
-0.000707285
-0.000810708
-0.000782529
-0.000910408
-0.000859029
-0.00100504
-0.000928735
-0.00108849
-0.000979492
-0.00115226
-0.000994327
-0.00118429
-0.000952473
-0.00116574
-0.000828866
-0.00109177
-0.000563787
-0.000252693
-0.000896583
-1.00321e-05
-3.31415e-05
-3.63648e-05
-0.000100131
-7.68145e-05
-0.000167461
-0.000129222
-0.00023107
-0.00019151
-0.000288791
-0.000261803
-0.000340719
-0.000338498
-0.000389065
-0.000420254
-0.000437461
-0.000505871
-0.000489897
-0.000594055
-0.000549621
-0.000683095
-0.000618245
-0.000770497
-0.000695127
-0.000852607
-0.000776919
-0.000924214
-0.000857128
-0.000978059
-0.000925646
-0.00100445
-0.000967932
-0.000990772
-0.000966155
-0.000914127
-0.000905511
-0.000775041
-0.000702873
-0.000533799
-0.000493934
-9.98766e-06
-2.31539e-05
-3.61325e-05
-7.39861e-05
-7.61089e-05
-0.000127485
-0.000127568
-0.000179611
-0.000188215
-0.000228144
-0.000255928
-0.000273006
-0.00032882
-0.000316173
-0.000405202
-0.000361079
-0.000483432
-0.000411667
-0.00056165
-0.000471404
-0.00063743
-0.000542464
-0.000707408
-0.00062515
-0.000766899
-0.000717428
-0.000809549
-0.000814478
-0.000826883
-0.000908313
-0.000807861
-0.000986953
-0.000739687
-0.00103433
-0.000595703
-0.0010495
-0.000376913
-0.000921663
-0.000884816
-2.58967e-05
-9.68127e-06
-1.34726e-05
-3.50037e-05
-4.86637e-05
-7.3587e-05
-8.89012e-05
-0.000122952
-0.000130246
-0.000180609
-0.000170487
-0.000244183
-0.000209431
-0.000311461
-0.000248895
-0.000380334
-0.000292206
-0.000448622
-0.000343378
-0.000513789
-0.000406237
-0.000572578
-0.000483675
-0.000620631
-0.000577097
-0.000652127
-0.000685931
-0.000659488
-0.000807118
-0.000633056
-0.000934744
-0.000560324
-0.00105969
-0.000428815
-0.00116584
-0.000213914
-0.0012644
0.000104003
-0.00123958
-0.00135221
0.000571398
-9.12926e-06
-4.34333e-06
-3.30272e-05
-2.47658e-05
-6.93342e-05
-5.25942e-05
-0.000115486
-8.4094e-05
-0.000168817
-0.000117156
-0.000226678
-0.00015157
-0.000286475
-0.000189099
-0.000345592
-0.000233088
-0.000401203
-0.000287768
-0.000449956
-0.000357483
-0.000487613
-0.000446019
-0.000508667
-0.000556043
-0.000506018
-0.00068858
-0.000470756
-0.00084238
-0.000392114
-0.00101339
-0.00025617
-0.00119563
-4.47384e-05
-0.00137727
0.000246682
-0.00155582
0.000643987
-0.00163688
-0.00193941
0.00123119
-8.35727e-06
4.01394e-06
-3.02791e-05
-2.84389e-06
-6.34829e-05
-1.93905e-05
-0.000105352
-4.22247e-05
-0.000153046
-6.94623e-05
-0.00020361
-0.000101006
-0.000254002
-0.000138706
-0.000301006
-0.000186084
-0.000341008
-0.000247765
-0.000369689
-0.000328803
-0.000381647
-0.000434061
-0.000370054
-0.000567636
-0.000326396
-0.000732238
-0.000240358
-0.000928418
-9.99425e-05
-0.0011538
0.000107771
-0.00140334
0.000399194
-0.00166869
0.000791279
-0.0019479
0.00128432
-0.00212992
-0.00262532
0.00197023
-7.39958e-06
1.14135e-05
-2.68631e-05
1.66196e-05
-5.6216e-05
9.96243e-06
-9.2804e-05
-5.63671e-06
-0.000133598
-2.86684e-05
-0.0001753
-5.93047e-05
-0.000214345
-9.96611e-05
-0.000246802
-0.000153627
-0.000268139
-0.000226428
-0.000272905
-0.000324037
-0.000254376
-0.00045259
-0.000204275
-0.000617737
-0.00011264
-0.000823873
3.2097e-05
-0.00107316
0.000242389
-0.00136409
0.000531031
-0.00169198
0.000912063
-0.00204972
0.0013986
-0.00243444
0.00199296
-0.00272428
-0.00338517
0.00275281
-6.29864e-06
1.77122e-05
-2.29068e-05
3.32278e-05
-4.77648e-05
3.48204e-05
-7.81735e-05
2.4772e-05
-0.000110889
4.04662e-06
-0.000142223
-2.79702e-05
-0.000168009
-7.38747e-05
-0.000183502
-0.000138135
-0.000183123
-0.000226807
-0.000160168
-0.000346992
-0.00010651
-0.000506249
-1.24424e-05
-0.000711804
0.000133195
-0.000969511
0.000342529
-0.00128249
0.000627866
-0.00164943
0.000999549
-0.00206367
0.00146827
-0.00251845
0.00203822
-0.00300439
0.00271769
-0.00340375
-0.00417916
0.00351168
-5.10329e-06
2.28154e-05
-1.85602e-05
4.66846e-05
-3.84014e-05
5.46617e-05
-6.18554e-05
4.82259e-05
-8.54423e-05
2.76335e-05
-0.000105007
-8.40511e-06
-0.000115725
-6.31567e-05
-0.000111949
-0.000141911
-8.69673e-05
-0.000251789
-3.27856e-05
-0.000401173
6.00832e-05
-0.000599117
0.000202506
-0.000854226
0.000406245
-0.00117325
0.000682943
-0.00155919
0.00104282
-0.0020093
0.00149222
-0.00251307
0.00203451
-0.00306073
0.00266485
-0.00363474
0.0033953
-0.00413419
-0.00495767
0.00417381
-3.8653e-06
2.66807e-05
-1.39836e-05
5.6803e-05
-2.84253e-05
6.91033e-05
-4.43044e-05
6.41051e-05
-5.78448e-05
4.11739e-05
-6.43983e-05
-1.85162e-06
-5.83964e-05
-6.91586e-05
-3.3259e-05
-0.000167049
1.889e-05
-0.000303938
0.000107305
-0.000489588
0.000242548
-0.00073436
0.000436111
-0.00104779
0.000699345
-0.00143648
0.0010418
-0.00190164
0.00146929
-0.0024368
0.00198239
-0.00302618
0.00257446
-0.0036528
0.00323267
-0.00429294
0.00396948
-0.00487101
-0.00568317
0.00469499
-2.63478e-06
2.93155e-05
-9.33487e-06
6.35031e-05
-1.81341e-05
7.79025e-05
-2.59706e-05
7.19416e-05
-2.87175e-05
4.39207e-05
-2.11925e-05
-9.3766e-06
2.92822e-06
-9.32793e-05
5.13167e-05
-0.000215437
0.000132836
-0.000385457
0.000257781
-0.000614533
0.000437399
-0.000913979
0.000682916
-0.00129331
0.00100383
-0.0017574
0.00140568
-0.00230348
0.00188767
-0.00291879
0.00244281
-0.00358133
0.00305492
-0.00426491
0.00370579
-0.00494381
0.00440375
-0.00556897
-0.00632589
0.00504647
-1.45521e-06
3.07707e-05
-4.75302e-06
6.68009e-05
-7.79426e-06
8.09438e-05
-7.26763e-06
7.1415e-05
1.35444e-06
3.52987e-05
2.38929e-05
-3.19151e-05
6.74664e-05
-0.000136853
0.000140582
-0.000288552
0.00025318
-0.000498055
0.00041622
-0.000777573
0.00064088
-0.00113864
0.000936904
-0.00158933
0.0013102
-0.0021307
0.00176029
-0.00275357
0.00227841
-0.0034369
0.0028494
-0.00415232
0.00345067
-0.00486618
0.00406334
-0.00555648
0.00468975
-0.00619537
-0.00688016
0.00524402
-3.58435e-07
3.11292e-05
-3.40144e-07
6.67826e-05
2.39208e-06
7.82116e-05
1.14927e-05
6.23143e-05
3.19735e-05
1.48179e-05
7.02673e-05
-7.02089e-05
0.000134315
-0.0002009
0.000233505
-0.000387743
0.000378462
-0.000643012
0.000580289
-0.0009794
0.000849098
-0.00140745
0.00119163
-0.00193186
0.00160836
-0.00254743
0.00209126
-0.00323648
0.00262362
-0.00396926
0.00318378
-0.00471248
0.00374773
-0.00543013
0.00430085
-0.0061096
0.00484079
-0.00673531
-0.00735039
0.00531102
6.40214e-07
3.0489e-05
3.84383e-06
6.3579e-05
1.23133e-05
6.97421e-05
3.01291e-05
4.44985e-05
6.28495e-05
-1.79024e-05
0.000117596
-0.000124956
0.000203074
-0.000286379
0.000329384
-0.000514052
0.000507446
-0.000821074
0.000747705
-0.00121966
0.00105791
-0.00171765
0.00144009
-0.00231405
0.00188776
-0.0029951
0.002385
-0.00373372
0.00290893
-0.00449319
0.00343529
-0.00523883
0.00394403
-0.00593887
0.00442754
-0.00659311
0.00488204
-0.00718981
-0.0077622
0.00529384
1.54292e-06
2.8946e-05
7.80836e-06
5.73136e-05
2.19711e-05
5.55793e-05
4.86385e-05
1.78311e-05
9.39859e-05
-6.32498e-05
0.000165839
-0.000196808
0.000273592
-0.000394132
0.000427776
-0.000668237
0.000639007
-0.0010323
0.000915995
-0.00149665
0.0012626
-0.00206425
0.0016746
-0.00272605
0.00213789
-0.00345839
0.00262997
-0.0042258
0.00312527
-0.00498849
0.00360179
-0.00571535
0.00404739
-0.00638448
0.00446165
-0.00700737
0.00484466
-0.00757282
-0.00814384
0.0052263
2.3718e-06
2.65742e-05
1.16131e-05
4.80723e-05
3.14778e-05
3.57145e-05
6.71877e-05
-1.78788e-05
0.000125592
-0.000121654
0.000215204
-0.00028642
0.000345944
-0.000524872
0.000528337
-0.000850629
0.000771843
-0.00127581
0.00108213
-0.00180693
0.00145764
-0.00243977
0.00188699
-0.0031554
0.00234923
-0.00392062
0.00281823
-0.00469481
0.00327003
-0.00544028
0.00368888
-0.0061342
0.00407169
-0.00676729
0.00442356
-0.00735924
0.00475861
-0.00790786
-0.00848812
0.00510289
3.16373e-06
2.34105e-05
1.53699e-05
3.58661e-05
4.10392e-05
1.00453e-05
8.60792e-05
-6.29188e-05
0.000158041
-0.000193617
0.000266045
-0.000394424
0.000420248
-0.000679074
0.00063053
-0.00106091
0.000904117
-0.0015494
0.00124222
-0.00214503
0.00163676
-0.00283431
0.00206938
-0.00358803
0.0025146
-0.00436583
0.00294657
-0.00512678
0.00334667
-0.00584038
0.00370741
-0.00649495
0.00403337
-0.00709324
0.00433511
-0.00766098
0.00462946
-0.00820221
-0.00878837
0.0049297
3.96597e-06
1.94445e-05
1.92225e-05
2.06096e-05
5.09174e-05
-2.16497e-05
0.000105687
-0.000117688
0.00019176
-0.00027969
0.000318689
-0.000521353
0.000496414
-0.0008568
0.000733327
-0.00129782
0.00103318
-0.00184925
0.00139152
-0.00250337
0.00179347
-0.00323626
0.00221529
-0.00400984
0.00263028
-0.00478082
0.00301662
-0.00551312
0.00336319
-0.00618694
0.00367044
-0.0068022
0.00394859
-0.00737139
0.00421055
-0.00792294
0.00447201
-0.00846368
-0.00905978
0.00474343
4.82884e-06
1.46157e-05
2.33226e-05
2.11589e-06
6.13829e-05
-5.971e-05
0.000126372
-0.000182678
0.000227099
-0.000380416
0.000373245
-0.000667499
0.000573909
-0.00105746
0.000834973
-0.00155889
0.00115554
-0.00216982
0.00152483
-0.00287266
0.00192202
-0.00363345
0.00232066
-0.00440848
0.00269641
-0.00515657
0.00303392
-0.00585063
0.00332985
-0.00648288
0.00359096
-0.00706331
0.0038304
-0.00761084
0.00406111
-0.00815365
0.00429712
-0.00869968
-0.00930657
0.00454391
5.79817e-06
8.81752e-06
2.78057e-05
-1.98916e-05
7.26626e-05
-0.000104567
0.000148397
-0.000258412
0.000264201
-0.00049622
0.000429444
-0.000832742
0.00065159
-0.00127961
0.000932951
-0.00184025
0.0012671
-0.00250397
0.00163715
-0.0032427
0.00201825
-0.00401455
0.00238444
-0.00477468
0.00271644
-0.00548857
0.00300628
-0.00614047
0.00325728
-0.00673388
0.00348016
-0.00728619
0.0036888
-0.00781948
0.00389483
-0.00835968
0.00410954
-0.00891439
-0.00953237
0.00433534
6.90934e-06
1.90817e-06
3.27694e-05
-4.57516e-05
8.48975e-05
-0.000156695
0.000171854
-0.000345369
0.000302911
-0.000627277
0.00048654
-0.00101637
0.000727688
-0.00152076
0.00102416
-0.00213672
0.0013637
-0.00284351
0.00172448
-0.00360348
0.00208026
-0.00437033
0.00240838
-0.0051028
0.00269607
-0.00577627
0.00294226
-0.00638666
0.00315505
-0.00694666
0.00334694
-0.00747808
0.00353097
-0.00800351
0.00371672
-0.00854544
0.00391297
-0.00911064
-0.00973934
0.00411995
8.18296e-06
-6.27478e-06
3.82602e-05
-7.58289e-05
9.81144e-05
-0.000216549
0.000196626
-0.00044388
0.000342731
-0.000773382
0.000543314
-0.00121695
0.000799928
-0.00177737
0.00110527
-0.00244206
0.00144171
-0.00317996
0.00178441
-0.00394617
0.00210843
-0.00469434
0.00239632
-0.0053907
0.00264205
-0.00602199
0.00285001
-0.00659463
0.00303111
-0.00712776
0.00319794
-0.00764491
0.00336179
-0.00816737
0.00353015
-0.00871379
0.00370952
-0.00929002
-0.00992855
0.00389874
9.62386e-06
-1.58986e-05
4.42684e-05
-0.000110473
0.000112217
-0.000284498
0.000222379
-0.000554042
0.000382842
-0.000933845
0.000598164
-0.00143228
0.000865778
-0.00204499
0.00117317
-0.00274945
0.00149855
-0.00350534
0.00181632
-0.00426394
0.00210505
-0.00498307
0.00235336
-0.00563901
0.00256112
-0.00622975
0.00273656
-0.00677007
0.00289162
-0.00728281
0.00303788
-0.00779117
0.00318456
-0.00831405
0.00333721
-0.00886644
0.00350058
-0.00945338
-0.0101007
0.00367273
1.12222e-05
-2.71208e-05
5.07307e-05
-0.000149982
0.000126996
-0.000360764
0.000248587
-0.000675633
0.000422167
-0.00110742
0.000649264
-0.00165937
0.000922754
-0.00231848
0.0012254
-0.0030521
0.00153292
-0.00381286
0.0018212
-0.00455222
0.00207368
-0.00523555
0.00228492
-0.00585025
0.00245945
-0.00640428
0.00260762
-0.00691824
0.00274115
-0.00741635
0.00287003
-0.00792005
0.00300143
-0.00844545
0.00313933
-0.00900434
0.00328713
-0.00960118
-0.0102561
0.00344256
1.29559e-05
-4.00767e-05
5.75392e-05
-0.000194565
0.000142145
-0.000445369
0.000274578
-0.000808066
0.000459477
-0.00129232
0.000694762
-0.00189466
0.000968707
-0.00259242
0.00126037
-0.00334375
0.00154487
-0.00409737
0.00180131
-0.00480866
0.00201852
-0.00545276
0.00219625
-0.00602799
0.00234223
-0.00655026
0.00246759
-0.00704359
0.00258299
-0.00753176
0.00269662
-0.00803368
0.00281385
-0.00856268
0.00293748
-0.00912797
0.00306989
-0.00973359
-0.0103951
0.00320881
1.47936e-05
-5.48703e-05
6.45514e-05
-0.000244323
0.00015729
-0.000538108
0.000299587
-0.000950363
0.000493493
-0.00148623
0.000732963
-0.00213413
0.00100205
-0.0028615
0.00127746
-0.00361917
0.00153555
-0.00435545
0.00175964
-0.00503275
0.00194385
-0.00563697
0.00209201
-0.00617615
0.00221369
-0.00667194
0.00231976
-0.00714967
0.00241945
-0.00763144
0.00251917
-0.0081334
0.00262285
-0.00866636
0.0027324
-0.00923752
0.0028495
-0.00985069
-0.0105175
0.00297199
1.66975e-05
-7.15678e-05
7.16009e-05
-0.000299226
0.000172014
-0.000638521
0.000322819
-0.00110117
0.000523007
-0.00168642
0.000762487
-0.00237361
0.00102185
-0.00312086
0.001277
-0.00387433
0.00150688
-0.00458532
0.00169953
-0.0052254
0.00185369
-0.00579113
0.00197611
-0.00629856
0.00207706
-0.00677289
0.00216654
-0.00723915
0.00225213
-0.00771704
0.00233874
-0.00822
0.00242915
-0.00875677
0.00252467
-0.00933304
0.00262646
-0.00995248
-0.0106237
0.00273257
1.8625e-05
-9.01928e-05
7.85069e-05
-0.000359108
0.000185884
-0.000745898
0.0003435
-0.00125878
0.000546965
-0.00188988
0.000782366
-0.00260901
0.00102787
-0.00336637
0.00126003
-0.00410648
0.00146127
-0.00478657
0.00162431
-0.00538844
0.00175162
-0.00591844
0.00185174
-0.00639868
0.00193483
-0.00685599
0.00200962
-0.00731394
0.00208217
-0.00778958
0.00215609
-0.00829393
0.00223334
-0.00883401
0.00231481
-0.00941451
0.00240126
-0.0100389
-0.0107134
0.00249101
2.05308e-05
-0.000110724
8.50821e-05
-0.000423659
0.000198475
-0.000859291
0.000360929
-0.00142124
0.000564545
-0.0020935
0.000792091
-0.00283655
0.00102049
-0.00359477
0.00122808
-0.00431408
0.00140131
-0.00495979
0.00153707
-0.00552419
0.00164063
-0.00602201
0.00172138
-0.00647943
0.00178882
-0.00692342
0.00185025
-0.00737538
0.00191038
-0.00784971
0.00197182
-0.00835537
0.00203591
-0.0088981
0.00210326
-0.00948186
0.00217436
-0.01011
-0.0107868
0.00224773
2.23675e-05
-0.000133091
9.11407e-05
-0.000492433
0.000209387
-0.000977538
0.000374518
-0.00158637
0.000575197
-0.00229418
0.000791596
-0.00305295
0.00100054
-0.00380371
0.00118303
-0.00449658
0.00132956
-0.00510632
0.00144056
-0.00563519
0.00152319
-0.00610464
0.00158697
-0.00654321
0.00164036
-0.00697681
0.00168932
-0.00742434
0.00173739
-0.00789778
0.00178641
-0.00840439
0.0018373
-0.00894899
0.00189046
-0.00953502
0.00194617
-0.0101657
-0.0108438
0.00200315
2.40877e-05
-0.000157179
9.65058e-05
-0.000564851
0.000218272
-0.0010993
0.000383821
-0.00175192
0.000578654
-0.00248901
0.000781203
-0.0032555
0.0009692
-0.00399171
0.00112684
-0.00465422
0.0012484
-0.00522788
0.00133712
-0.00572391
0.00140126
-0.00616878
0.00144994
-0.00659188
0.00149044
-0.00701731
0.00152749
-0.00746139
0.00156367
-0.00793396
0.00160027
-0.008441
0.00163789
-0.00898661
0.0016768
-0.00957393
0.00171711
-0.010206
-0.0108844
0.0017577
2.56449e-05
-0.000182824
0.000101016
-0.000640222
0.000224842
-0.00122313
0.000388548
-0.00191562
0.000574924
-0.00267539
0.000761545
-0.00344212
0.000927859
-0.00415802
0.00106145
-0.00478781
0.00115997
-0.00532639
0.00122871
-0.00579265
0.0012764
-0.00621647
0.00131139
-0.00662688
0.0013398
-0.00704572
0.00136526
-0.00748685
0.00138962
-0.00795832
0.00141376
-0.00846513
0.00143805
-0.0090109
0.00146267
-0.00959855
0.00148757
-0.0102309
-0.0109086
0.00151178
2.69957e-05
-0.000209819
0.000104532
-0.000717759
0.000228884
-0.00134748
0.000388574
-0.00207531
0.00056425
-0.00285106
0.000733471
-0.00361135
0.000877974
-0.00430252
0.000988692
-0.00489853
0.0010661
-0.0054038
0.00111691
-0.00584346
0.00114978
-0.00624934
0.00117215
-0.00664925
0.001189
-0.00706257
0.00120305
-0.0075009
0.00121561
-0.00797088
0.00122723
-0.00847676
0.00123815
-0.00902182
0.00124844
-0.00960884
0.00125793
-0.0102404
-0.0109164
0.00126579
2.81007e-05
-0.00023792
0.000106944
-0.000796602
0.000230268
-0.0014708
0.000383927
-0.00222897
0.000547067
-0.0030142
0.000697968
-0.00376225
0.000820993
-0.00442555
0.000910208
-0.00498775
0.000968357
-0.00546195
0.00100298
-0.00587808
0.00102233
-0.00626869
0.00103284
-0.00665976
0.00103846
-0.00706819
0.00104121
-0.00750365
0.00104194
-0.00797162
0.00104101
-0.00847582
0.00103851
-0.00901932
0.00103446
-0.00960479
0.00102858
-0.0102346
-0.010908
0.00102013
2.89267e-05
-0.000266847
0.000108169
-0.000875844
0.000228942
-0.00159158
0.000374769
-0.0023748
0.000523952
-0.00316339
0.00065608
-0.00389437
0.000758291
-0.00452776
0.000827453
-0.00505691
0.000868034
-0.00550253
0.000887928
-0.00589798
0.000894749
-0.00627551
0.000893934
-0.00665894
0.000888555
-0.00706282
0.000880033
-0.00749512
0.00086892
-0.0079605
0.000855386
-0.00846229
0.000839448
-0.00900338
0.000821053
-0.0095864
0.000799895
-0.0102134
-0.0108833
0.000775222
2.94472e-05
-0.000296294
0.000108162
-0.000954559
0.000224933
-0.00170835
0.000361374
-0.00251124
0.000495567
-0.00329758
0.000608853
-0.00400766
0.000691129
-0.00461004
0.000741673
-0.00510745
0.000766184
-0.00552704
0.000772543
-0.00590434
0.000767594
-0.00627056
0.000755828
-0.00664718
0.000739574
-0.00704656
0.000719801
-0.00747535
0.000696819
-0.00793752
0.000670671
-0.00843614
0.00064129
-0.008974
0.000608549
-0.00955366
0.000572157
-0.010177
-0.0108426
0.000531416
2.96434e-05
-0.000325937
0.000106906
-0.00103182
0.000218334
-0.00181978
0.000344099
-0.00263701
0.000462623
-0.0034161
0.000557292
-0.00410233
0.000620631
-0.00467337
0.000653921
-0.00514074
0.000663658
-0.00553678
0.000657443
-0.00589812
0.000641287
-0.0062544
0.000618828
-0.00662472
0.000591782
-0.00701952
0.000560765
-0.00744433
0.000525906
-0.00790266
0.000487144
-0.00839738
0.000444347
-0.0089312
0.000397318
-0.00950663
0.000345603
-0.0101253
-0.0107859
0.000288905
2.95044e-05
-0.000355442
0.000104419
-0.00110674
0.000209296
-0.00192465
0.000323355
-0.00275107
0.000425836
-0.00351858
0.000502331
-0.00417882
0.00054778
-0.00471882
0.000565073
-0.00515804
0.000561139
-0.00553284
0.000543112
-0.0058801
0.000516169
-0.00622746
0.000483196
-0.00659175
0.000445414
-0.00698173
0.000403167
-0.00740208
0.000356441
-0.00785594
0.000305079
-0.00834601
0.000248899
-0.00887502
0.000187764
-0.00944549
0.000120866
-0.0100584
-0.0107119
4.6915e-05
2.90271e-05
-0.000384469
0.000100742
-0.00117845
0.000198014
-0.00202193
0.000299586
-0.00285264
0.000385903
-0.0036049
0.000444814
-0.00423774
0.000473422
-0.00474743
0.000475849
-0.00516046
0.00045917
-0.00551616
0.000429932
-0.00585086
0.000392517
-0.00619004
0.000349162
-0.00654839
0.00030069
-0.00693326
0.000247232
-0.00734863
0.000188672
-0.00779738
0.000124731
-0.00828207
5.51262e-05
-0.00880542
-2.04094e-05
-0.00936996
-0.000101591
-0.00997721
-0.0106227
-0.000190849
2.82157e-05
-0.000412684
9.59421e-05
-0.00124618
0.000184713
-0.0021107
0.000273246
-0.00294117
0.000343482
-0.00367514
0.000385495
-0.00427975
0.000398272
-0.00476021
0.000386838
-0.00514903
0.000358184
-0.00548751
0.000318208
-0.00581088
0.000270564
-0.0061424
0.000216925
-0.00649475
0.000157816
-0.00687415
9.31445e-05
-0.00728396
2.27026e-05
-0.00772694
-5.36547e-05
-0.00820571
-0.000136317
-0.00872276
-0.000225482
-0.00928079
-0.000322309
-0.00988039
-0.0105184
-0.000426606
2.7081e-05
-0.000439766
9.01044e-05
-0.0013092
0.000169637
-0.00219023
0.000244783
-0.00301632
0.000299177
-0.00372953
0.00032503
-0.0043056
0.000322928
-0.00475811
0.000298512
-0.00512461
0.000258526
-0.00544752
0.000208197
-0.00576055
0.000150508
-0.00608471
8.66418e-05
-0.00643089
1.68329e-05
-0.00680434
-5.88497e-05
-0.00720827
-0.00014085
-0.00764493
-0.000229619
-0.00811695
-0.000325418
-0.00862696
-0.000428621
-0.00917759
-0.000540007
-0.009769
-0.0103986
-0.000659734
2.56393e-05
-0.000465405
8.33269e-05
-0.00136689
0.000153039
-0.00225994
0.000214622
-0.0030779
0.000253536
-0.00376845
0.000263986
-0.00431605
0.000247888
-0.00474201
0.000211255
-0.00508798
0.000160464
-0.00539673
0.000100117
-0.00570021
3.24453e-05
-0.00601704
-4.15005e-05
-0.00635694
-0.000121651
-0.00672419
-0.000208419
-0.00712151
-0.000302108
-0.00755125
-0.000403162
-0.00801589
-0.000511974
-0.00851815
-0.000629002
-0.00906056
-0.000754812
-0.00964319
-0.0102637
-0.000889802
2.39116e-05
-0.000489316
7.57166e-05
-0.00141869
0.000135172
-0.0023194
0.000183164
-0.00312589
0.000207045
-0.00379233
0.000202847
-0.00431185
0.000173564
-0.00471273
0.000125382
-0.0050398
6.42e-05
-0.00533555
-6.14947e-06
-0.00562986
-8.33101e-05
-0.00593988
-0.000167194
-0.00627306
-0.000257843
-0.00663354
-0.000355563
-0.00702379
-0.000460784
-0.00744602
-0.000573994
-0.00790268
-0.000695673
-0.00839647
-0.000826321
-0.00892991
-0.000966429
-0.00950308
-0.0101137
-0.00111643
2.19227e-05
-0.000511239
6.73859e-05
-0.00146416
0.000116279
-0.00236829
0.000150778
-0.00316039
0.000160131
-0.00380168
0.000142019
-0.00429374
0.000100291
-0.004671
4.11355e-05
-0.00498064
-3.0014e-05
-0.0052644
-0.000109667
-0.0055502
-0.000196654
-0.00585289
-0.000290497
-0.00617921
-0.000391489
-0.00653255
-0.000500044
-0.00691523
-0.000616655
-0.00732941
-0.000741872
-0.00777746
-0.000876252
-0.00826209
-0.00102034
-0.00878582
-0.00117458
-0.00934884
-0.00994891
-0.00133932
1.97009e-05
-0.00053094
5.8449e-05
-0.0015029
9.65968e-05
-0.00240644
0.000117799
-0.00318159
0.000113164
-0.00379704
8.1843e-05
-0.00426242
2.83428e-05
-0.0046175
-4.12629e-05
-0.00491104
-0.000122001
-0.00518366
-0.0002111
-0.0054611
-0.000307544
-0.00575645
-0.000411206
-0.00607555
-0.00052242
-0.00642134
-0.000641675
-0.00679598
-0.000769525
-0.00720156
-0.000906577
-0.00764041
-0.00105346
-0.0081152
-0.00121081
-0.00862848
-0.00137898
-0.00918067
-0.00976972
-0.00155818
1.72777e-05
-0.000548218
4.90203e-05
-0.00153465
7.63471e-05
-0.00243376
8.45281e-05
-0.00318977
6.64618e-05
-0.00377898
2.26421e-05
-0.0042186
-4.2049e-05
-0.00455281
-0.000121651
-0.00483144
-0.000211755
-0.00509356
-0.00031006
-0.0053628
-0.000415839
-0.00565067
-0.000529176
-0.00596221
-0.000650479
-0.00630004
-0.000780285
-0.00666617
-0.000919201
-0.00706265
-0.00106789
-0.00749172
-0.00122708
-0.00795602
-0.00139745
-0.0084581
-0.00157936
-0.00899876
-0.00957635
-0.00177272
1.46903e-05
-0.000562908
3.92135e-05
-0.00155917
5.57405e-05
-0.00245029
5.1234e-05
-0.00318527
2.04066e-05
-0.00374815
-3.54251e-05
-0.00416277
-0.000110732
-0.0044775
-0.000199934
-0.00474224
-0.000299127
-0.00499436
-0.000406441
-0.00525549
-0.000521418
-0.00553569
-0.000644284
-0.00583935
-0.000775519
-0.0061688
-0.000915708
-0.00652598
-0.0010655
-0.00691285
-0.00122562
-0.0073316
-0.00139686
-0.00778478
-0.00158004
-0.00827493
-0.00177544
-0.00880336
-0.00936913
-0.00198266
1.19861e-05
-0.000574894
2.91456e-05
-0.00157633
3.49681e-05
-0.00245611
1.82673e-05
-0.00316857
-2.50251e-05
-0.00370486
-9.21527e-05
-0.00409564
-0.000177562
-0.00439209
-0.000275993
-0.00464381
-0.000384018
-0.00488634
-0.000500154
-0.00513935
-0.00062417
-0.00541168
-0.000756404
-0.00570711
-0.0008974
-0.0060278
-0.00104779
-0.0063756
-0.00120826
-0.00675238
-0.00137957
-0.00716028
-0.00156261
-0.00760174
-0.00175833
-0.00807921
-0.001967
-0.00859469
-0.0091484
-0.00218773
9.17733e-06
-0.000584071
1.89202e-05
-0.00158607
1.42471e-05
-0.00245144
-1.44176e-05
-0.0031399
-6.95705e-05
-0.0036497
-0.000147391
-0.00401782
-0.000242422
-0.00429706
-0.000349734
-0.00453649
-0.000466346
-0.00476973
-0.000591113
-0.00501458
-0.000723994
-0.0052788
-0.000865419
-0.00556569
-0.00101599
-0.00587724
-0.00117637
-0.00621521
-0.00134729
-0.00658146
-0.00152956
-0.00697802
-0.00172414
-0.00740716
-0.00193213
-0.00787121
-0.00215381
-0.00837302
-0.0089146
-0.00238761
6.28953e-06
-0.000590361
8.58037e-06
-0.00158836
-6.24142e-06
-0.00243662
-4.68468e-05
-0.0030993
-0.000113023
-0.00358353
-0.000200999
-0.00392984
-0.000305211
-0.00419285
-0.000421079
-0.00442062
-0.000546038
-0.00464477
-0.000679236
-0.00488138
-0.000820792
-0.00513724
-0.000971215
-0.00541526
-0.00113115
-0.0057173
-0.00130131
-0.00604505
-0.00148245
-0.00640031
-0.00167541
-0.00678506
-0.00188123
-0.00720134
-0.00210121
-0.00765124
-0.00233561
-0.00813862
-0.00866822
-0.00258199
3.29972e-06
-0.000593661
-1.65969e-06
-0.0015834
-2.71918e-05
-0.00241109
-7.84847e-05
-0.003048
-0.00015524
-0.00350677
-0.000252869
-0.00383222
-0.000365847
-0.00407987
-0.000489962
-0.00429651
-0.000623025
-0.0045117
-0.000764446
-0.00473996
-0.000914472
-0.00498722
-0.00107368
-0.00525605
-0.00124277
-0.00554821
-0.00142247
-0.00586535
-0.00161359
-0.0062092
-0.00181697
-0.00658167
-0.00203372
-0.00698459
-0.00226528
-0.00741968
-0.00251208
-0.00789183
-0.00840923
-0.00277107
-1.65963e-07
-0.000593495
-1.23845e-05
-0.00157119
-4.7462e-05
-0.00237601
-0.000109281
-0.00298618
-0.000196108
-0.00341995
-0.000302908
-0.00372542
-0.000424263
-0.00395851
-0.000556322
-0.00416445
-0.000697248
-0.00437078
-0.000846668
-0.00459054
-0.00100494
-0.00482894
-0.00117271
-0.00508828
-0.00135071
-0.00537022
-0.00153971
-0.00567634
-0.00174055
-0.00600837
-0.0019541
-0.00636812
-0.00218152
-0.00675718
-0.00242424
-0.00717695
-0.00268305
-0.00763302
-0.00813727
-0.00295501
-2.97394e-06
-0.000590521
-2.26717e-05
-0.00155149
-6.72465e-05
-0.00233143
-0.000139134
-0.0029143
-0.000235535
-0.00332354
-0.000351045
-0.00360991
-0.000480402
-0.00382916
-0.000620111
-0.00402474
-0.000768647
-0.00422224
-0.000925832
-0.00443336
-0.00109212
-0.00466265
-0.00126821
-0.0049122
-0.00145486
-0.00518357
-0.0016529
-0.00547831
-0.00186318
-0.00579808
-0.00208669
-0.00614461
-0.00232461
-0.00651926
-0.00257831
-0.00692325
-0.00284799
-0.00736334
-0.0078541
-0.00313115
-5.98032e-06
-0.00058454
-3.27534e-05
-0.00152471
-8.64883e-05
-0.0022777
-0.000167974
-0.00283281
-0.000273449
-0.00321807
-0.000397223
-0.00348613
-0.000534219
-0.00369216
-0.00068128
-0.00387768
-0.00083717
-0.00406635
-0.00100187
-0.00426866
-0.00117592
-0.0044886
-0.00136006
-0.00472806
-0.00155509
-0.00498854
-0.00176187
-0.00527152
-0.00198133
-0.00557862
-0.00221454
-0.00591141
-0.00246276
-0.00627104
-0.00272729
-0.00665872
-0.00301017
-0.00708046
-0.00757002
-0.00329425
-8.99683e-06
-0.000575544
-4.26135e-05
-0.0014911
-0.000105125
-0.00221519
-0.000195732
-0.0027422
-0.00030979
-0.00310401
-0.000441395
-0.00335453
-0.000585673