/*--------------------------------*- C++ -*----------------------------------*\
  =========                 |
  \\      /  F ield         | OpenFOAM: The Open Source CFD Toolbox
   \\    /   O peration     | Website:  https://openfoam.org
    \\  /    A nd           | Version:  7
     \\/     M anipulation  |
\*---------------------------------------------------------------------------*/
FoamFile
{
    version     2.0;
    format      ascii;
    class       surfaceScalarField;
    location    "24";
    object      phi;
}
// * * * * * * * * * * * * * * * * * * * * * * * * * * * * * * * * * * * * * //

dimensions      [0 3 -1 0 0 0 0];

internalField   nonuniform List<scalar> 
818
(
-0.00335564
0.000596193
0.000464529
0.00672474
-0.000152656
0.00680089
-1.43163e-05
0.00687014
0.000127604
0.00693263
0.00026872
0.00698753
0.000409628
0.000549758
0.00675666
-0.000645023
0.00683792
-0.000508625
0.00691675
-0.000369692
0.00699273
-0.000228632
0.0070646
-8.61869e-05
0.0071339
5.82982e-05
0.00719771
0.000204916
0.00725609
0.000351247
0.000497502
0.00689147
-0.000983689
0.00696576
-0.000852815
0.00703929
-0.00071855
0.00711181
-0.000581152
0.00718305
-0.000440928
0.0072526
-0.000298185
0.00731967
-0.00015326
0.0073861
-8.12702e-06
0.00744865
0.000142366
0.00750792
0.000291981
0.000442183
0.00719832
-0.00104787
0.00726232
-0.000916817
0.0073261
-0.000782332
0.00738958
-0.000644635
0.00745265
-0.000503997
0.00751516
-0.000360693
0.00757694
-0.000215038
0.00763638
-6.75735e-05
0.00769618
8.25696e-05
0.00775396
0.000234203
0.00038657
0.00750841
-0.00110223
0.00756291
-0.000971313
0.00761757
-0.000836992
0.0076724
-0.000699466
0.00772738
-0.000558975
0.00778244
-0.000415757
0.00783747
-0.000270066
0.00789211
-0.000122217
0.00794738
2.73075e-05
0.00800184
0.000179743
0.000332808
0.0078215
-0.00114765
0.00786736
-0.00101717
0.00791372
-0.000883351
0.00796064
-0.000746386
0.00800816
-0.000606493
0.00805629
-0.00046389
0.00810503
-0.000318804
0.00815429
-0.000171483
0.00820425
-2.26557e-05
0.00825479
0.00012921
0.000281968
0.00813779
-0.00118496
0.00817585
-0.00105522
0.00821473
-0.000922231
0.00825452
-0.000786174
0.00829528
-0.00064726
0.00833709
-0.000505695
0.00837998
-0.000361694
0.00842398
-0.000215487
0.00846875
-6.74277e-05
0.00851517
8.27963e-05
0.000234571
0.00845782
-0.0012149
0.0084888
-0.0010862
0.00852091
-0.000954346
0.00855425
-0.000819512
0.00858889
-0.000681904
0.00862492
-0.000541719
0.00866239
-0.000399161
0.00870134
-0.000254443
0.00874175
-0.000107832
0.00878406
4.04856e-05
0.000190806
0.00878233
-0.0012381
0.00880685
-0.00111073
0.00883279
-0.000980293
0.00886026
-0.000846976
0.00888932
-0.000710969
0.00892007
-0.000572464
0.00895256
-0.000431652
0.00898685
-0.00028873
0.00902291
-0.000143899
0.00906178
1.61742e-06
0.00015069
0.00911213
-0.00125507
0.00913071
-0.00112931
0.009151
-0.00100058
0.0091731
-0.00086907
0.00919708
-0.000734957
0.00922305
-0.000598433
0.00925109
-0.000459688
0.00928128
-0.000318918
0.00931371
-0.000176336
0.00934762
-3.22901e-05
0.00011367
0.00944793
-0.00126628
0.00946101
-0.00114239
0.00947605
-0.00101563
0.00949315
-0.000886172
0.0095124
-0.000754206
0.00953388
-0.000619912
0.00955766
-0.000483473
0.00958382
-0.000345078
0.00961241
-0.000204926
0.00964338
-6.32585e-05
7.99459e-05
0.00979036
-0.0012721
0.0097983
-0.00115032
0.00980845
-0.00102577
0.00982089
-0.000898619
0.00983573
-0.000769038
0.00985302
-0.000637208
0.00987286
-0.000503307
0.0098953
-0.00036752
0.00992041
-0.000230035
0.00994821
-9.10632e-05
4.92608e-05
0.01014
-0.00127288
0.0101431
-0.00115345
0.0101486
-0.00103133
0.0101567
-0.000906704
0.0101674
-0.000779728
0.0101808
-0.000650579
0.0101969
-0.000519432
0.0102159
-0.000386465
0.0102377
-0.00025186
0.0102624
-0.000115815
2.14153e-05
0.0104972
-0.00126892
0.0104958
-0.00115205
0.010497
-0.00103258
0.010501
-0.000910682
0.0105078
-0.000786516
0.0105175
-0.00066025
0.0105301
-0.000532054
0.0105457
-0.000402101
0.0105644
-0.000270569
0.0105862
-0.000137637
-3.79726e-06
0.0108625
-0.00126049
0.0108568
-0.00114638
0.010854
-0.00102976
0.0108541
-0.00091079
0.0108572
-0.000789627
0.0108634
-0.000666437
0.0108727
-0.000541384
0.0108852
-0.000414638
0.010901
-0.000286372
0.0109202
-0.000156766
-2.60535e-05
0.0112362
-0.00124783
0.0112265
-0.00113668
0.0112198
-0.00102309
0.0112163
-0.000907226
0.0112159
-0.000789245
0.0112187
-0.000669304
0.0112249
-0.000547565
0.0112345
-0.000424192
0.0112475
-0.000299354
0.0112639
-0.000173223
-4.59924e-05
0.0116189
-0.00123118
0.0116053
-0.00112314
0.011595
-0.00101276
0.011588
-0.000900177
0.0115843
-0.000785545
0.011584
-0.00066902
0.0115872
-0.000550758
0.0115939
-0.000430919
0.0116042
-0.000309668
0.0116181
-0.00018717
-6.36039e-05
0.0120109
-0.00121072
0.0119937
-0.00110597
0.0119799
-0.000998954
0.0119696
-0.000889809
0.0119627
-0.000778685
0.0119594
-0.000665732
0.0119598
-0.000551102
0.0119638
-0.000434952
0.0119716
-0.000317439
0.0119831
-0.000198726
-7.89808e-05
0.0124129
-0.00118664
0.0123922
-0.00108533
0.0123751
-0.00098183
0.0123616
-0.000876275
0.0123517
-0.000768809
0.0123456
-0.000659578
0.0123432
-0.000548728
0.0123446
-0.000436412
0.01235
-0.000322784
0.0123593
-0.000207999
-9.2221e-05
0.0128253
-0.00115909
0.0128014
-0.00106137
0.0127811
-0.000961533
0.0127645
-0.000859712
0.0127518
-0.000756047
0.0127429
-0.000650679
0.0127379
-0.000543752
0.0127369
-0.000435411
0.0127399
-0.000325807
0.012747
-0.00021509
-0.000103417
0.0132489
-0.00112823
0.0132218
-0.00103423
0.0131985
-0.000938193
0.013179
-0.000840243
0.0131635
-0.000740516
0.0131519
-0.000639149
0.0131445
-0.000536281
0.0131411
-0.000432052
0.0131419
-0.000326607
0.0131469
-0.000220094
-0.00011266
0.0136843
-0.00109418
0.0136542
-0.00100404
0.0136279
-0.000911927
0.0136056
-0.00081798
0.0135874
-0.000722323
0.0135734
-0.00062509
0.0135635
-0.000526412
0.0135579
-0.000426429
0.0135566
-0.000325277
0.0135596
-0.0002231
-0.000120041
0.0141323
-0.00105706
0.0140992
-0.000970891
0.0140701
-0.000882837
0.0140451
-0.000793019
0.0140244
-0.00070156
0.0140079
-0.000608588
0.0139957
-0.000514231
0.0139879
-0.000418621
0.0139845
-0.000321891
0.0139856
-0.000224179
-0.000125622
0.0145937
-0.00101696
0.0145577
-0.00093489
0.0145259
-0.000851013
0.0144983
-0.000765447
0.014475
-0.00067831
0.0144562
-0.000589725
0.0144418
-0.000499815
0.0144319
-0.000408705
0.0144265
-0.000316526
0.0144257
-0.000223407
-0.000129481
0.0150693
-0.000973971
0.0150306
-0.000896113
0.0149961
-0.000816532
0.014966
-0.000735338
0.0149403
-0.000652645
0.0149191
-0.000568571
0.0149026
-0.000483232
0.0148906
-0.00039675
0.0148833
-0.000309248
0.0148808
-0.00022085
-0.000131682
0.0155602
-0.000928159
0.0155187
-0.000854628
0.0154816
-0.000779458
0.0154491
-0.000702755
0.015421
-0.000624628
0.0153977
-0.000545186
0.015379
-0.000464544
0.015365
-0.000382815
0.0153559
-0.000300116
0.0153516
-0.000216567
-0.000132287
0.0160673
-0.000879579
0.0160232
-0.000810487
0.0159835
-0.000739844
0.0159485
-0.00066775
0.0159182
-0.000594309
0.0158927
-0.000519624
0.0158719
-0.000443802
0.0158561
-0.000366953
0.0158451
-0.000289186
0.0158392
-0.000210614
-0.000131351
0.0165917
-0.000828274
0.016545
-0.000763733
0.0165029
-0.000697732
0.0164655
-0.000630366
0.0164329
-0.000561731
0.0164052
-0.000491926
0.0163825
-0.000421051
0.0163647
-0.000349209
0.016352
-0.000276503
0.0163445
-0.000203039
-0.000128925
0.0171347
-0.000774272
0.0170854
-0.000714394
0.0170408
-0.000653152
0.017001
-0.000590633
0.0169662
-0.000526928
0.0169364
-0.000462128
0.0169117
-0.000396328
0.0168921
-0.000329623
0.0168777
-0.00026211
0.0168686
-0.000193888
-0.000125058
0.0176974
-0.000717587
0.0176455
-0.000662488
0.0175985
-0.000606123
0.0175564
-0.000548573
0.0175194
-0.000489923
0.0174875
-0.000430257
0.0174609
-0.000369663
0.0174395
-0.000308228
0.0174234
-0.000246044
0.0174127
-0.000183202
-0.000119794
0.0182812
-0.000658226
0.0182267
-0.000608022
0.0181773
-0.000556655
0.0181329
-0.0005042
0.0180937
-0.000450734
0.0180598
-0.000396334
0.0180312
-0.000341081
0.018008
-0.000285055
0.0179903
-0.00022834
0.0179781
-0.000171018
-0.000113177
0.0188875
-0.000596181
0.0188305
-0.000550993
0.0187786
-0.00050475
0.0187319
-0.000457519
0.0186905
-0.00040937
0.0186546
-0.000360373
0.0186241
-0.0003106
0.0185992
-0.000260126
0.0185799
-0.000209024
0.0185662
-0.000157372
-0.000105246
0.0195179
-0.000531437
0.0194583
-0.000491391
0.019404
-0.000450402
0.019355
-0.00040853
0.0193114
-0.000365836
0.0192734
-0.000322385
0.0192411
-0.000278239
0.0192144
-0.000233465
0.0191935
-0.000188129
0.0191785
-0.0001423
-9.60461e-05
0.020174
-0.000463968
0.0201118
-0.000429196
0.020055
-0.000393597
0.0200037
-0.000357224
0.019958
-0.000320131
0.019918
-0.000282373
0.0198837
-0.000244007
0.0198554
-0.000205089
0.0198329
-0.000165678
0.0198164
-0.000125833
-8.5615e-05
0.0208576
-0.000393746
0.0207927
-0.000364383
0.0207335
-0.000334316
0.0206798
-0.00030359
0.020632
-0.000272249
0.0205899
-0.000240342
0.0205538
-0.000207915
0.0205238
-0.000175017
0.0204998
-0.000141698
0.020482
-0.000108008
-7.39973e-05
0.0215706
-0.000320733
0.0215031
-0.000296924
0.0214413
-0.000272539
0.0213853
-0.000247614
0.0213353
-0.000222185
0.0212912
-0.000196292
0.0212533
-0.000169973
0.0212215
-0.000143268
0.0211961
-0.000116216
0.0211769
-8.88599e-05
-6.12401e-05
0.0223151
-0.000244892
0.022245
-0.000226788
0.0221807
-0.000208242
0.0221223
-0.00018928
0.0220701
-0.000169933
0.022024
-0.000150227
0.0219842
-0.000130194
0.0219508
-0.000109864
0.0219239
-8.92663e-05
0.0219035
-6.84337e-05
-4.73972e-05
0.0230936
-0.000166181
0.0230207
-0.000153942
0.0229539
-0.0001414
0.0228932
-0.000128574
0.0228387
-0.000115485
0.0227906
-0.00010215
0.022749
-8.85911e-05
0.022714
-7.48281e-05
0.0226856
-6.0882e-05
0.022664
-4.67744e-05
-3.25264e-05
0.0239085
-8.4565e-05
0.0238329
-7.83586e-05
0.0237635
-7.19969e-05
0.0237004
-6.54893e-05
0.0236438
-5.88458e-05
0.0235937
-5.20763e-05
0.0235503
-4.51913e-05
0.0235137
-3.82008e-05
0.0234839
-3.1116e-05
0.0234611
-2.39475e-05
-1.67064e-05
0.0247631
0.0246847
0.0246127
0.0245472
0.0244884
0.0244363
0.0243911
0.0243529
0.0243218
0.0242978
)
;

boundaryField
{
    inlet
    {
        type            calculated;
        value           nonuniform 0();
    }
    outlet
    {
        type            calculated;
        value           nonuniform 0();
    }
    cylinder
    {
        type            calculated;
        value           nonuniform 0();
    }
    top
    {
        type            symmetryPlane;
        value           uniform 0;
    }
    bottom
    {
        type            symmetryPlane;
        value           nonuniform 0();
    }
    defaultFaces
    {
        type            empty;
        value           nonuniform 0();
    }
    procBoundary31to24
    {
        type            processor;
        value           nonuniform List<scalar> 8(-0.00681659 -0.00713413 -0.00745405 -0.00777609 -0.00810048 -0.00842787 -0.00875913 -0.00909515);
    }
    procBoundary31to25
    {
        type            processor;
        value           nonuniform List<scalar> 
14
(
-0.00059466
-0.000471073
-0.00334909
-0.000331208
-0.000196855
-6.18354e-05
7.24353e-05
0.000561763
0.000427367
-0.00664452
0.000290857
0.00090881
-0.0066734
0.000778528
)
;
    }
    procBoundary31to26
    {
        type            processor;
        value           nonuniform List<scalar> 8(0.0033541 0.00703397 0.00730834 0.00756323 0.00780957 0.0080556 0.00830563 0.00856256);
    }
    procBoundary31to30
    {
        type            processor;
        value           nonuniform List<scalar> 
30
(
-0.00943673
-0.00978454
-0.0101392
-0.0105011
-0.0108709
-0.0112489
-0.0116355
-0.0120314
-0.012437
-0.0128529
-0.0132798
-0.0137184
-0.0141695
-0.0146338
-0.0151123
-0.015606
-0.0161159
-0.016643
-0.0171887
-0.0177541
-0.0183406
-0.0189496
-0.0195827
-0.0202415
-0.0209278
-0.0216436
-0.0223909
-0.0231723
-0.0239901
-0.0248476
)
;
    }
    procBoundary31to32
    {
        type            processor;
        value           nonuniform List<scalar> 
33
(
0.00882782
0.0091019
0.00938464
0.0096771
0.0099789
0.0102903
0.0106115
0.0109424
0.0112839
0.0116358
0.0119985
0.0123725
0.0127582
0.0131561
0.0135669
0.0139912
0.0144296
0.014883
0.0153522
0.0158382
0.016342
0.0168647
0.0174075
0.0179715
0.0185583
0.0191693
0.019806
0.0204703
0.0211642
0.0218896
0.0226491
0.0234453
0.0242811
)
;
    }
}


// ************************************************************************* //
