/*--------------------------------*- C++ -*----------------------------------*\
  =========                 |
  \\      /  F ield         | OpenFOAM: The Open Source CFD Toolbox
   \\    /   O peration     | Website:  https://openfoam.org
    \\  /    A nd           | Version:  7
     \\/     M anipulation  |
\*---------------------------------------------------------------------------*/
FoamFile
{
    version     2.0;
    format      ascii;
    class       volVectorField;
    location    "24";
    object      U;
}
// * * * * * * * * * * * * * * * * * * * * * * * * * * * * * * * * * * * * * //

dimensions      [0 1 -1 0 0 0 0];

internalField   nonuniform List<vector> 
435
(
(1.21044 0.372581 2.99922e-21)
(1.201 0.387424 -3.64265e-20)
(1.14958 0.415783 1.29084e-22)
(1.16599 0.40818 -1.0732e-21)
(1.18115 0.399216 1.01544e-20)
(1.19479 0.389021 -5.23534e-21)
(1.20681 0.377603 1.5465e-20)
(1.21709 0.364982 -3.11918e-22)
(1.10374 0.401026 3.70128e-22)
(1.12122 0.398099 4.61659e-22)
(1.13807 0.394147 4.98249e-21)
(1.15418 0.389181 1.03196e-20)
(1.1694 0.383208 4.31386e-21)
(1.18376 0.376163 -7.39011e-21)
(1.1971 0.368166 -5.00602e-21)
(1.20918 0.359215 -2.44665e-22)
(1.21993 0.349306 -7.60015e-21)
(1.07805 0.378746 4.24843e-21)
(1.09438 0.377477 4.62283e-22)
(1.11035 0.375459 -1.05061e-22)
(1.12591 0.372696 -4.31144e-21)
(1.14101 0.369191 -1.53725e-21)
(1.15558 0.364949 -6.97857e-21)
(1.1695 0.35998 -1.02906e-20)
(1.18283 0.354305 1.20325e-21)
(1.19549 0.347826 -1.09428e-21)
(1.20724 0.340625 1.50446e-21)
(1.21802 0.332716 -6.86897e-21)
(1.08767 0.355052 -1.19635e-21)
(1.10199 0.353443 1.17608e-21)
(1.11601 0.351287 -9.74034e-24)
(1.12971 0.348593 3.81792e-21)
(1.14308 0.34537 1.44153e-21)
(1.15609 0.341626 7.36435e-21)
(1.16867 0.337372 9.69065e-21)
(1.18069 0.332626 -6.82515e-21)
(1.19222 0.327308 8.46563e-21)
(1.20328 0.321474 -6.96127e-21)
(1.21367 0.315127 2.65297e-22)
(1.09568 0.333048 -3.83906e-21)
(1.10824 0.331196 8.46614e-22)
(1.12054 0.328938 -8.20066e-23)
(1.13259 0.326288 7.17565e-22)
(1.14437 0.323257 -6.20309e-21)
(1.15588 0.319851 -5.08437e-21)
(1.16707 0.316075 -4.25945e-21)
(1.17791 0.311937 9.46828e-21)
(1.18842 0.30748 2.79176e-22)
(1.19858 0.302653 -3.44906e-22)
(1.20828 0.297453 -2.05784e-21)
(1.10216 0.312501 -7.19294e-22)
(1.11318 0.310517 -3.83141e-21)
(1.124 0.30823 2.50594e-22)
(1.13461 0.305654 -1.00467e-21)
(1.14501 0.3028 4.27496e-21)
(1.15519 0.29968 -4.03743e-21)
(1.16515 0.296302 -1.66152e-21)
(1.17486 0.292678 -3.75706e-21)
(1.18431 0.288822 -1.329e-21)
(1.19353 0.284694 3.00615e-21)
(1.20246 0.280312 1.07078e-22)
(1.10722 0.293221 1.80378e-21)
(1.11693 0.291192 4.53742e-22)
(1.12646 0.288937 2.18564e-22)
(1.13583 0.286466 -6.51723e-23)
(1.14504 0.283792 -1.11638e-21)
(1.15408 0.280922 1.80379e-21)
(1.16295 0.277867 2.23118e-21)
(1.17164 0.274633 -5.66789e-22)
(1.18013 0.271228 -3.39078e-22)
(1.18844 0.267647 9.66425e-22)
(1.19659 0.263895 -1.22214e-22)
(1.11102 0.275084 -3.08476e-22)
(1.11959 0.273074 1.40437e-21)
(1.12803 0.270895 2.99757e-22)
(1.13633 0.268556 -7.65933e-22)
(1.1445 0.266066 -3.54466e-22)
(1.15254 0.26343 4.3842e-24)
(1.16046 0.260657 1.55129e-21)
(1.16824 0.257751 2.31664e-21)
(1.17589 0.254717 2.489e-21)
(1.18341 0.251567 -2.90124e-21)
(1.19082 0.248312 2.57288e-21)
(1.11373 0.258003 -3.61194e-21)
(1.12132 0.256055 -1.35359e-21)
(1.1288 0.253982 1.73095e-22)
(1.13617 0.251791 1.11048e-22)
(1.14345 0.249487 5.86167e-22)
(1.15063 0.247078 -4.30369e-22)
(1.15771 0.244568 -3.6412e-21)
(1.16469 0.241964 -6.79435e-22)
(1.17157 0.239272 -2.53092e-22)
(1.17839 0.2365 -1.46872e-21)
(1.18515 0.233622 1.08644e-21)
(1.11551 0.24191 3.05436e-21)
(1.12224 0.24005 -3.80972e-22)
(1.12889 0.238098 4.48051e-23)
(1.13546 0.236058 2.50612e-22)
(1.14196 0.233936 3.27349e-22)
(1.14839 0.231736 5.98615e-22)
(1.15475 0.229462 1.76503e-21)
(1.16105 0.227119 -2.21859e-21)
(1.16728 0.224712 -2.46895e-21)
(1.17342 0.222244 3.78167e-21)
(1.17949 0.219693 -1.05499e-21)
(1.11649 0.226745 -2.38603e-21)
(1.12247 0.224986 1.13357e-21)
(1.12839 0.22316 -1.19758e-21)
(1.13426 0.22127 -2.56569e-22)
(1.14007 0.219319 -1.65284e-22)
(1.14584 0.217309 -3.51089e-22)
(1.15155 0.215244 7.43652e-22)
(1.15722 0.213124 -4.36185e-22)
(1.16285 0.210951 -3.6075e-22)
(1.16843 0.208727 -3.57005e-21)
(1.17397 0.206472 -6.69356e-23)
(1.11678 0.212448 1.80796e-21)
(1.1221 0.210798 -4.6613e-22)
(1.12738 0.209099 -1.12355e-21)
(1.13262 0.207354 -5.20352e-24)
(1.13783 0.205565 -9.02421e-23)
(1.14301 0.203733 -1.71419e-23)
(1.14816 0.201861 -2.12404e-22)
(1.15327 0.199949 -7.04398e-23)
(1.15837 0.198 6.61304e-22)
(1.16343 0.196016 2.25418e-21)
(1.16848 0.194001 -1.87173e-22)
(1.11645 0.198964 3.52115e-21)
(1.12119 0.197424 8.14199e-22)
(1.12591 0.19585 1.14892e-21)
(1.1306 0.194243 1.27467e-22)
(1.13528 0.192605 7.01067e-23)
(1.13994 0.190935 1.32982e-22)
(1.14458 0.189237 -1.43529e-22)
(1.1492 0.18751 -2.49924e-22)
(1.15382 0.185757 -4.88316e-22)
(1.15842 0.183977 -6.98858e-22)
(1.16302 0.182172 3.62265e-22)
(1.11558 0.186235 -2.53501e-21)
(1.11981 0.184805 6.4783e-22)
(1.12403 0.183352 2.79839e-21)
(1.12824 0.181875 -3.30876e-22)
(1.13244 0.180377 -1.13013e-22)
(1.13664 0.178858 8.73503e-23)
(1.14083 0.177318 -1.43407e-22)
(1.14501 0.175758 5.96808e-22)
(1.1492 0.17418 7.40337e-22)
(1.15338 0.172584 4.1906e-22)
(1.15757 0.170971 2.61587e-22)
(1.11422 0.174208 -4.82102e-22)
(1.11801 0.172886 -1.73873e-21)
(1.12178 0.171547 -1.75239e-21)
(1.12556 0.170193 2.0323e-22)
(1.12935 0.168825 3.01959e-22)
(1.13313 0.167442 1.3852e-22)
(1.13692 0.166045 6.94637e-23)
(1.14072 0.164635 -7.89368e-23)
(1.14452 0.163212 -7.75224e-22)
(1.14833 0.161777 -2.51874e-22)
(1.15214 0.16033 -7.45756e-23)
(1.11242 0.162833 1.65849e-21)
(1.11581 0.161614 7.65445e-22)
(1.1192 0.160384 8.39135e-22)
(1.1226 0.159145 2.36087e-22)
(1.12601 0.157896 -5.75243e-22)
(1.12943 0.156639 -1.16505e-23)
(1.13286 0.155372 1.55452e-23)
(1.1363 0.154096 1.28063e-22)
(1.13976 0.152811 1.82146e-22)
(1.14322 0.151517 -2.91269e-22)
(1.1467 0.150215 5.93601e-23)
(1.11023 0.152064 -6.55382e-22)
(1.11327 0.150943 1.28663e-21)
(1.11632 0.149817 -2.18751e-21)
(1.11938 0.148686 -4.90193e-22)
(1.12246 0.147549 4.73261e-23)
(1.12556 0.146407 -1.43661e-22)
(1.12866 0.145259 1.03671e-22)
(1.13179 0.144107 6.63988e-23)
(1.13493 0.142949 -4.33783e-23)
(1.1381 0.141787 -2.76229e-23)
(1.14127 0.14062 -3.4922e-22)
(1.1077 0.141859 2.30438e-21)
(1.11043 0.140833 -1.87741e-22)
(1.11317 0.139804 1.7409e-21)
(1.11594 0.138773 1.08576e-21)
(1.11872 0.13774 -6.24645e-22)
(1.12153 0.136705 -5.44721e-22)
(1.12435 0.135667 4.57432e-24)
(1.12719 0.134627 2.22206e-24)
(1.13006 0.133584 -1.04573e-23)
(1.13294 0.13254 -3.93375e-23)
(1.13585 0.131493 1.59039e-23)
(1.10486 0.132181 -3.22119e-21)
(1.10732 0.131244 -1.19146e-21)
(1.1098 0.130308 -7.7176e-22)
(1.1123 0.129371 -6.09234e-22)
(1.11482 0.128434 5.66387e-22)
(1.11737 0.127497 3.68324e-22)
(1.11993 0.126559 3.66559e-22)
(1.12253 0.125622 -1.3289e-22)
(1.12514 0.124684 -6.1337e-23)
(1.12777 0.123746 8.583e-24)
(1.13043 0.122808 -8.39512e-24)
(1.10176 0.122995 1.56496e-21)
(1.10398 0.122143 6.71975e-22)
(1.10623 0.121292 8.71737e-22)
(1.10849 0.120443 6.14484e-23)
(1.11079 0.119596 1.47574e-22)
(1.1131 0.11875 -1.67442e-22)
(1.11544 0.117905 -7.30854e-22)
(1.11781 0.117061 2.16139e-22)
(1.12019 0.116219 -2.20638e-22)
(1.12261 0.115378 -2.58254e-23)
(1.12504 0.114538 1.90791e-23)
(1.09845 0.11427 -1.68084e-21)
(1.10046 0.113497 -1.51554e-24)
(1.1025 0.112727 -3.03049e-22)
(1.10456 0.11196 2.91222e-22)
(1.10665 0.111195 4.19275e-22)
(1.10876 0.110433 -5.61619e-22)
(1.11089 0.109673 2.08613e-22)
(1.11305 0.108916 -3.97198e-22)
(1.11524 0.108161 3.4493e-22)
(1.11745 0.107408 -1.80915e-23)
(1.11968 0.106658 1.11787e-23)
(1.09496 0.105975 -1.17684e-22)
(1.09679 0.105277 -1.35096e-21)
(1.09864 0.104583 -7.36736e-22)
(1.10052 0.103892 -8.57802e-22)
(1.10243 0.103204 -1.25101e-22)
(1.10436 0.102519 3.95391e-22)
(1.10632 0.101837 -5.92154e-22)
(1.1083 0.101158 4.85584e-22)
(1.1103 0.100482 -2.76617e-22)
(1.11233 0.0998098 1.43427e-22)
(1.11438 0.0991401 -4.6901e-23)
(1.09134 0.0980837 -8.34975e-22)
(1.09301 0.097456 -2.0337e-22)
(1.09471 0.0968319 -4.99997e-22)
(1.09643 0.0962113 7.15158e-22)
(1.09817 0.0955943 -2.25729e-22)
(1.09994 0.0949806 4.64084e-22)
(1.10173 0.0943705 2.28656e-22)
(1.10355 0.0937637 3.51555e-22)
(1.10539 0.0931604 -1.64885e-22)
(1.10726 0.0925604 3.00635e-22)
(1.10915 0.0919638 -5.8075e-23)
(1.08763 0.0905703 1.81114e-21)
(1.08916 0.090008 1.30508e-21)
(1.09072 0.0894492 3.04501e-22)
(1.0923 0.0888941 -1.36382e-21)
(1.0939 0.0883426 1.17678e-22)
(1.09553 0.0877947 2.33746e-22)
(1.09718 0.0872504 9.96014e-22)
(1.09885 0.0867097 -2.25151e-22)
(1.10054 0.0861726 1.79469e-22)
(1.10226 0.0856391 -4.64216e-22)
(1.104 0.0851093 7.5609e-25)
(1.08388 0.0834103 -7.59044e-22)
(1.08528 0.0829087 -1.7685e-21)
(1.08671 0.0824105 5.17925e-22)
(1.08817 0.0819159 1.25379e-21)
(1.08965 0.0814249 1.22766e-21)
(1.09115 0.0809374 -4.97508e-22)
(1.09267 0.0804534 -1.19461e-21)
(1.09421 0.0799731 2.75404e-22)
(1.09578 0.0794964 -3.07937e-22)
(1.09736 0.0790234 6.16767e-22)
(1.09897 0.078554 -6.40324e-23)
(1.08011 0.0765803 9.48087e-22)
(1.08141 0.0761349 9.97337e-22)
(1.08273 0.0756928 -8.77885e-22)
(1.08408 0.075254 -1.44814e-21)
(1.08544 0.0748186 -1.18383e-21)
(1.08683 0.0743865 4.84008e-22)
(1.08824 0.0739579 3.55024e-22)
(1.08966 0.0735327 1.1134e-22)
(1.09111 0.0731111 -5.76591e-23)
(1.09258 0.072693 -5.09806e-23)
(1.09407 0.0722785 1.52417e-23)
(1.07636 0.0700575 -7.83854e-22)
(1.07757 0.0696641 -1.45149e-22)
(1.0788 0.0692736 -6.93925e-23)
(1.08005 0.0688862 1.03104e-21)
(1.08132 0.0685018 -1.33131e-22)
(1.0826 0.0681206 3.16236e-22)
(1.08391 0.0677425 -9.24373e-24)
(1.08524 0.0673677 1.53246e-23)
(1.08658 0.0669962 2.73897e-23)
(1.08794 0.0666281 -5.32547e-23)
(1.08932 0.0662633 1.96333e-22)
(1.07268 0.0638199 -3.95176e-22)
(1.07381 0.0634743 -6.57762e-23)
(1.07495 0.0631314 2.19341e-21)
(1.07612 0.062791 -3.54395e-22)
(1.0773 0.0624534 2.71756e-22)
(1.0785 0.0621187 2.63277e-22)
(1.07972 0.0617868 -8.32036e-23)
(1.08095 0.0614579 -4.26711e-22)
(1.0822 0.061132 1.09419e-22)
(1.08346 0.0608092 -2.59869e-22)
(1.08475 0.0604896 -1.70929e-22)
(1.06909 0.0578456 1.26514e-21)
(1.07015 0.0575439 1.11895e-21)
(1.07123 0.0572444 -1.04965e-21)
(1.07232 0.0569472 -3.96085e-22)
(1.07342 0.0566524 5.59271e-23)
(1.07454 0.05636 1.19217e-22)
(1.07568 0.0560702 -3.08421e-22)
(1.07683 0.0557831 -2.25537e-22)
(1.078 0.0554987 2.00423e-22)
(1.07918 0.0552171 -1.27557e-22)
(1.08037 0.0549383 5.02035e-22)
(1.06564 0.0521126 4.38071e-22)
(1.06663 0.0518511 -8.07165e-22)
(1.06765 0.0515913 -1.56168e-23)
(1.06867 0.0513335 1.73222e-22)
(1.06971 0.0510777 1.93396e-22)
(1.07076 0.050824 8.74378e-23)
(1.07183 0.0505725 -5.50376e-22)
(1.07291 0.0503234 -3.64676e-22)
(1.074 0.0500767 -1.31735e-22)
(1.0751 0.0498324 1.39101e-22)
(1.07622 0.0495907 -3.22038e-22)
(1.06234 0.0465987 -5.4597e-22)
(1.06329 0.0463737 2.24296e-22)
(1.06424 0.0461501 1.59801e-22)
(1.06521 0.0459281 5.02913e-22)
(1.06619 0.0457078 2.97552e-22)
(1.06718 0.0454893 -6.17512e-22)
(1.06819 0.0452727 -2.37759e-22)
(1.0692 0.0450581 1.05051e-21)
(1.07023 0.0448455 -7.0872e-23)
(1.07126 0.0446351 -8.1092e-24)
(1.07231 0.0444269 7.49991e-23)
(1.05924 0.041281 -4.86958e-22)
(1.06014 0.0410893 -7.51001e-23)
(1.06104 0.0408986 -4.84855e-22)
(1.06196 0.0407093 -4.23748e-22)
(1.06289 0.0405213 -8.74523e-23)
(1.06383 0.0403348 2.29798e-22)
(1.06478 0.0401498 6.47339e-22)
(1.06574 0.0399666 -2.80438e-22)
(1.0667 0.0397851 5.6264e-22)
(1.06768 0.0396055 -5.41052e-22)
(1.06866 0.0394279 -3.03694e-22)
(1.05635 0.0361353 4.69075e-22)
(1.05721 0.0359738 -6.06854e-22)
(1.05808 0.0358131 4.5183e-22)
(1.05896 0.0356533 -1.31738e-21)
(1.05984 0.0354946 5.21459e-22)
(1.06073 0.0353371 -4.2092e-22)
(1.06163 0.035181 -2.72372e-22)
(1.06254 0.0350262 -5.0404e-22)
(1.06346 0.0348729 -3.07584e-22)
(1.06438 0.0347213 5.07569e-24)
(1.06531 0.0345712 -5.42259e-23)
(1.05372 0.0311361 -1.60429e-22)
(1.05455 0.0310019 3.60649e-22)
(1.05538 0.0308683 6.9361e-22)
(1.05622 0.0307354 9.00403e-22)
(1.05706 0.0306034 -7.08275e-22)
(1.05792 0.0304723 4.17517e-22)
(1.05877 0.0303422 1.12941e-21)
(1.05964 0.0302133 -2.80349e-22)
(1.06051 0.0300856 -5.23732e-23)
(1.06139 0.0299592 -2.14221e-22)
(1.06227 0.0298341 3.29641e-22)
(1.05137 0.0262561 1.76876e-22)
(1.05216 0.0261468 3.61963e-22)
(1.05296 0.0260379 -7.29142e-22)
(1.05377 0.0259295 -8.27525e-23)
(1.05459 0.0258217 -1.00629e-22)
(1.05541 0.0257147 -3.588e-22)
(1.05623 0.0256085 -5.71035e-22)
(1.05706 0.0255033 3.45868e-22)
(1.05789 0.025399 5.43539e-22)
(1.05872 0.0252958 -4.83206e-22)
(1.05956 0.0251937 6.29597e-23)
(1.04932 0.0214645 -1.35863e-22)
(1.05009 0.0213779 4.2531e-22)
(1.05087 0.0212915 -3.75311e-22)
(1.05165 0.0212055 -3.41961e-23)
(1.05244 0.0211199 1.16307e-22)
(1.05323 0.021035 -6.13319e-23)
(1.05402 0.0209506 3.45795e-22)
(1.05482 0.0208671 2.21424e-22)
(1.05562 0.0207843 1.62195e-22)
(1.05642 0.0207024 -1.07064e-22)
(1.05722 0.0206214 3.22081e-23)
(1.04761 0.0167284 1.46727e-22)
(1.04837 0.0166626 7.31388e-23)
(1.04913 0.016597 -8.29857e-22)
(1.04989 0.0165317 8.09223e-22)
(1.05065 0.0164668 -9.84548e-22)
(1.05142 0.0164023 7.93822e-22)
(1.05219 0.0163382 -3.19256e-22)
(1.05296 0.0162748 -2.19829e-22)
(1.05373 0.016212 2.94495e-22)
(1.0545 0.0161498 -3.05628e-22)
(1.05528 0.0160883 2.68091e-23)
(1.04628 0.0120076 2.83719e-22)
(1.04702 0.0119613 1.93043e-22)
(1.04776 0.011915 -6.35227e-22)
(1.04851 0.011869 1.11083e-21)
(1.04925 0.0118233 -4.60767e-22)
(1.05 0.0117779 -5.64412e-22)
(1.05075 0.0117329 2.1676e-22)
(1.0515 0.0116883 -1.75588e-22)
(1.05225 0.0116442 -8.46991e-23)
(1.053 0.0116006 4.01231e-22)
(1.05376 0.0115576 -4.43352e-22)
(1.04535 0.00726182 3.49708e-22)
(1.04608 0.00723429 3.48788e-22)
(1.04682 0.00720686 -4.23838e-22)
(1.04755 0.00717958 -4.52434e-22)
(1.04829 0.00715248 2.70254e-22)
(1.04902 0.00712561 -3.33086e-22)
(1.04976 0.00709898 1.51166e-21)
(1.05049 0.00707262 -5.02147e-22)
(1.05123 0.00704655 -1.05377e-22)
(1.05197 0.0070208 -3.96405e-22)
(1.0527 0.00699537 7.10869e-22)
(1.04488 0.00243129 1.04685e-21)
(1.04561 0.00242134 -3.13218e-22)
(1.04634 0.00241158 -3.34625e-22)
(1.04706 0.00240202 -1.74877e-22)
(1.04779 0.0023927 -2.48143e-22)
(1.04852 0.00238363 6.77828e-24)
(1.04925 0.00237483 2.67261e-22)
(1.04997 0.00236629 -4.63024e-23)
(1.0507 0.00235801 1.19572e-22)
(1.05143 0.00235 3.07398e-22)
(1.05215 0.00234224 -2.14602e-22)
)
;

boundaryField
{
    inlet
    {
        type            uniformFixedValue;
        uniformValue    constant (1 0 0);
        value           nonuniform 0();
    }
    outlet
    {
        type            pressureInletOutletVelocity;
        value           nonuniform 0();
    }
    cylinder
    {
        type            fixedValue;
        value           nonuniform 0();
    }
    top
    {
        type            symmetryPlane;
    }
    bottom
    {
        type            symmetryPlane;
    }
    defaultFaces
    {
        type            empty;
    }
    procBoundary31to24
    {
        type            processor;
        value           nonuniform List<vector> 8((1.06142 0.379258 9.03573e-21) (1.07311 0.356096 -9.92333e-21) (1.08291 0.334477 5.73593e-21) (1.09094 0.314167 -1.29619e-21) (1.09734 0.29501 5.94593e-21) (1.10231 0.276915 -6.54544e-21) (1.10603 0.259818 -1.13555e-21) (1.10869 0.243673 7.00662e-21));
    }
    procBoundary31to25
    {
        type            processor;
        value           nonuniform List<vector> 
14
(
(1.2042 0.374886 -4.57252e-20)
(1.19557 0.390947 -6.42568e-21)
(1.18949 0.400961 -2.11382e-20)
(1.18949 0.400961 -2.11382e-20)
(1.17606 0.413125 -1.96289e-20)
(1.16084 0.423859 1.50637e-20)
(1.144 0.433151 -1.48634e-20)
(1.09423 0.430359 5.7775e-22)
(1.11363 0.426884 -2.47034e-21)
(1.13212 0.422011 -5.22685e-22)
(1.13212 0.422011 -5.22685e-22)
(1.06718 0.403794 -1.02743e-21)
(1.0857 0.402923 -2.98981e-22)
(1.0857 0.402923 -2.98981e-22)
)
;
    }
    procBoundary31to26
    {
        type            processor;
        value           nonuniform List<vector> 8((1.21763 0.356498 -3.61054e-21) (1.22546 0.351199 1.10728e-20) (1.22922 0.338452 -3.24445e-21) (1.22774 0.324087 3.42795e-21) (1.22332 0.308247 -3.93007e-21) (1.21749 0.291875 4.90468e-21) (1.21107 0.275676 -3.10292e-21) (1.20453 0.259969 1.09879e-21));
    }
    procBoundary31to30
    {
        type            processor;
        value           nonuniform List<vector> 
30
(
(1.11044 0.228432 3.80654e-21)
(1.11141 0.214047 -1.10371e-21)
(1.11168 0.200467 -3.65068e-21)
(1.11133 0.18764 6.39853e-21)
(1.11043 0.175515 -5.57108e-21)
(1.10904 0.164042 5.96618e-21)
(1.10721 0.153179 -1.2019e-21)
(1.10498 0.142883 -2.30656e-21)
(1.10242 0.133118 3.20931e-21)
(1.09956 0.123849 -1.43811e-21)
(1.09646 0.115045 -2.33773e-21)
(1.09315 0.106676 4.53866e-22)
(1.08969 0.098715 6.57399e-22)
(1.08613 0.0911363 5.49283e-22)
(1.08249 0.0839154 6.48896e-22)
(1.07883 0.0770288 2.29181e-22)
(1.07517 0.0704538 1.29741e-22)
(1.07157 0.064168 -3.94465e-22)
(1.06805 0.0581494 1.2772e-22)
(1.06466 0.0523759 -7.72833e-22)
(1.06141 0.046825 -1.87362e-22)
(1.05835 0.0414737 3.75506e-22)
(1.05551 0.0362976 -1.28879e-22)
(1.0529 0.0312708 -2.42324e-22)
(1.05058 0.0263657 6.61194e-22)
(1.04855 0.0215513 8.02798e-22)
(1.04686 0.0167942 4.66243e-22)
(1.04554 0.012054 3.36219e-22)
(1.04462 0.00728941 6.73914e-23)
(1.04415 0.00244139 1.92223e-22)
)
;
    }
    procBoundary31to32
    {
        type            processor;
        value           nonuniform List<vector> 
33
(
(1.19808 0.244934 -3.38659e-22)
(1.19177 0.230657 1.11699e-21)
(1.18553 0.21708 -1.5257e-21)
(1.17948 0.204173 -3.82516e-24)
(1.17351 0.191954 1.56209e-21)
(1.16761 0.180346 2.24636e-22)
(1.16177 0.169337 4.36319e-22)
(1.15595 0.158867 -3.51627e-22)
(1.1502 0.148908 -1.80528e-22)
(1.14447 0.139448 -3.09689e-22)
(1.13878 0.130444 1.37803e-22)
(1.13312 0.121869 4.86591e-23)
(1.1275 0.113699 -6.69548e-23)
(1.12194 0.10591 -3.14039e-24)
(1.11646 0.0984735 -4.0391e-23)
(1.11106 0.0913706 -3.70275e-23)
(1.10577 0.0845831 2.57171e-23)
(1.1006 0.0780883 7.10774e-23)
(1.09557 0.0718676 -1.89531e-23)
(1.09071 0.065902 8.46514e-24)
(1.08604 0.0601732 7.67886e-23)
(1.08158 0.0546625 8.65569e-23)
(1.07734 0.0493517 -1.86998e-22)
(1.07336 0.0442211 2.16641e-22)
(1.06965 0.0392522 -2.10744e-22)
(1.06624 0.0344229 -6.69479e-24)
(1.06315 0.0297105 7.76122e-23)
(1.0604 0.0250929 1.15685e-22)
(1.05803 0.0205413 -9.84011e-23)
(1.05605 0.0160276 4.26858e-23)
(1.05451 0.0115151 -2.29824e-22)
(1.05343 0.00697027 3.89362e-22)
(1.05287 0.00233473 -1.77105e-22)
)
;
    }
}


// ************************************************************************* //
