/*--------------------------------*- C++ -*----------------------------------*\
  =========                 |
  \\      /  F ield         | OpenFOAM: The Open Source CFD Toolbox
   \\    /   O peration     | Website:  https://openfoam.org
    \\  /    A nd           | Version:  7
     \\/     M anipulation  |
\*---------------------------------------------------------------------------*/
FoamFile
{
    version     2.0;
    format      ascii;
    class       volScalarField;
    location    "95.000318";
    object      p;
}
// * * * * * * * * * * * * * * * * * * * * * * * * * * * * * * * * * * * * * //

dimensions      [0 2 -2 0 0 0 0];

internalField   nonuniform List<scalar> 
5800
(
-0.260085
-0.257104
-0.253565
-0.249653
-0.245522
-0.0159111
-0.0164397
-0.0169666
-0.017491
-0.0180119
-0.0185285
-0.0190398
-0.0195449
-0.0200427
-0.0205322
-0.0210122
-0.0214815
-0.021939
-0.0223833
-0.0228131
-0.023227
-0.0236238
-0.0240019
-0.0243599
-0.0246963
-0.0250095
-0.0252981
-0.0255605
-0.025795
-0.0260002
-0.0261744
-0.026316
-0.0264235
-0.0264954
-0.02653
-0.0265259
-0.0264815
-0.0263956
-0.0262667
-0.0260935
-0.0258748
-0.0256094
-0.0252964
-0.0249347
-0.0245236
-0.0240622
-0.0235503
-0.0229872
-0.0223732
-0.0217076
-0.0209916
-0.0202244
-0.0194082
-0.018542
-0.0176293
-0.0166686
-0.0156647
-0.0146154
-0.0135272
-0.0123966
-0.0112317
-0.0100275
-0.00879381
-0.00752307
-0.00622756
-0.00489568
-0.00354353
-0.00215197
-0.000743222
-0.0159976
-0.0165275
-0.0170557
-0.0175812
-0.0181033
-0.018621
-0.0191334
-0.0196394
-0.0201381
-0.0206284
-0.021109
-0.0215789
-0.0220368
-0.0224814
-0.0229114
-0.0233254
-0.0237221
-0.0241
-0.0244576
-0.0247935
-0.0251061
-0.025394
-0.0256554
-0.0258889
-0.0260929
-0.0262657
-0.0264059
-0.0265118
-0.0265819
-0.0266147
-0.0266086
-0.0265623
-0.0264741
-0.0263429
-0.0261673
-0.0259462
-0.0256782
-0.0253626
-0.024998
-0.0245841
-0.0241197
-0.0236049
-0.0230386
-0.0224215
-0.0217527
-0.0210334
-0.0202628
-0.0194434
-0.0185737
-0.0176578
-0.0166936
-0.0156866
-0.0146341
-0.0135431
-0.0124095
-0.0112423
-0.0100356
-0.00880012
-0.00752739
-0.00623079
-0.00489741
-0.00354487
-0.00215216
-0.000743575
-0.0161632
-0.0166962
-0.0172272
-0.0177555
-0.0182801
-0.0188001
-0.0193147
-0.0198228
-0.0203233
-0.0208151
-0.0212971
-0.0217681
-0.0222269
-0.0226722
-0.0231025
-0.0235167
-0.0239133
-0.0242908
-0.0246477
-0.0249826
-0.025294
-0.0255803
-0.02584
-0.0260714
-0.0262731
-0.0264433
-0.0265807
-0.0266835
-0.0267502
-0.0267794
-0.0267695
-0.0267191
-0.0266267
-0.0264911
-0.0263109
-0.0260849
-0.0258119
-0.025491
-0.0251211
-0.0247016
-0.0242316
-0.0237109
-0.0231386
-0.0225153
-0.0218402
-0.0211145
-0.0203375
-0.0195115
-0.0186353
-0.0177128
-0.0167422
-0.015729
-0.0146704
-0.0135736
-0.0124346
-0.0112625
-0.0100512
-0.0088119
-0.00753582
-0.00623653
-0.00490095
-0.00354684
-0.00215284
-0.000743616
-0.016407
-0.0169443
-0.0174795
-0.0180116
-0.0185398
-0.0190632
-0.0195808
-0.0200917
-0.0205948
-0.0210889
-0.0215728
-0.0220454
-0.0225054
-0.0229515
-0.0233824
-0.0237967
-0.024193
-0.0245698
-0.0249257
-0.0252592
-0.0255687
-0.0258527
-0.0261097
-0.0263381
-0.0265363
-0.0267027
-0.0268358
-0.026934
-0.0269958
-0.0270198
-0.0270043
-0.0269479
-0.0268493
-0.0267072
-0.0265201
-0.0262871
-0.0260068
-0.0256783
-0.0253005
-0.024873
-0.0243946
-0.0238653
-0.0232843
-0.022652
-0.0219677
-0.0212327
-0.0204461
-0.0196106
-0.0187248
-0.0177928
-0.0168128
-0.0157903
-0.0147228
-0.0136176
-0.0124707
-0.0112912
-0.0100735
-0.00882845
-0.0075476
-0.00624431
-0.00490574
-0.00354925
-0.0021537
-0.000743382
-0.016725
-0.0172679
-0.0178084
-0.0183455
-0.0188784
-0.0194062
-0.0199279
-0.0204424
-0.0209488
-0.0214457
-0.0219321
-0.0224068
-0.0228683
-0.0233155
-0.023747
-0.0241614
-0.0245573
-0.0249331
-0.0252876
-0.0256191
-0.0259261
-0.026207
-0.0264605
-0.0266847
-0.0268783
-0.0270397
-0.0271672
-0.0272594
-0.0273148
-0.0273317
-0.0273089
-0.0272448
-0.0271381
-0.0269875
-0.0267916
-0.0265493
-0.0262595
-0.0259211
-0.0255332
-0.0250951
-0.0246059
-0.0240655
-0.023473
-0.0228291
-0.0221328
-0.0213857
-0.0205868
-0.0197388
-0.0188405
-0.017896
-0.0169036
-0.0158691
-0.01479
-0.0136737
-0.0125165
-0.0113275
-0.0101014
-0.00884885
-0.0075619
-0.00625347
-0.00491119
-0.00355173
-0.00215445
-0.000742833
-0.0171151
-0.017665
-0.018212
-0.0187552
-0.0192938
-0.0198268
-0.0203534
-0.0208724
-0.0213826
-0.021883
-0.0223723
-0.0228493
-0.0233127
-0.0237611
-0.0241931
-0.0246075
-0.0250027
-0.0253773
-0.0257298
-0.0260587
-0.0263625
-0.0266397
-0.0268886
-0.0271077
-0.0272956
-0.0274506
-0.0275712
-0.027656
-0.0277033
-0.0277118
-0.0276799
-0.0276063
-0.0274896
-0.0273286
-0.0271219
-0.0268684
-0.0265669
-0.0262165
-0.0258161
-0.0253653
-0.0248629
-0.0243089
-0.0237025
-0.0230443
-0.0223334
-0.0215714
-0.0207574
-0.0198941
-0.0189805
-0.0180207
-0.0170132
-0.0159639
-0.0148705
-0.0137406
-0.0125707
-0.0113701
-0.0101336
-0.00887204
-0.00757776
-0.00626317
-0.00491664
-0.00355375
-0.00215475
-0.000741864
-0.0175759
-0.0181338
-0.0186884
-0.0192387
-0.0197839
-0.020323
-0.0208552
-0.0213793
-0.0218941
-0.0223984
-0.0228909
-0.0233705
-0.0238358
-0.0242854
-0.0247181
-0.0251322
-0.0255265
-0.0258994
-0.0262494
-0.0265751
-0.0268749
-0.0271473
-0.0273908
-0.0276038
-0.0277847
-0.0279321
-0.0280445
-0.0281203
-0.0281581
-0.0281564
-0.0281139
-0.028029
-0.0279006
-0.0277273
-0.0275079
-0.0272412
-0.026926
-0.0265615
-0.0261466
-0.0256808
-0.0251629
-0.0245932
-0.0239704
-0.0232955
-0.0225675
-0.021788
-0.0209562
-0.0200749
-0.0191432
-0.0181653
-0.0171399
-0.0160731
-0.0149628
-0.0138168
-0.0126319
-0.0114176
-0.0101691
-0.00889684
-0.00759414
-0.00627249
-0.00492133
-0.00355475
-0.00215426
-0.000740337
-0.0181059
-0.018673
-0.0192362
-0.0197946
-0.0203472
-0.0208932
-0.0214317
-0.0219615
-0.0224812
-0.0229898
-0.0234859
-0.0239683
-0.0244356
-0.0248865
-0.0253194
-0.0257331
-0.0261261
-0.0264968
-0.0268437
-0.0271655
-0.0274605
-0.0277272
-0.0279642
-0.0281698
-0.0283426
-0.0284811
-0.0285838
-0.0286492
-0.028676
-0.0286626
-0.0286077
-0.0285099
-0.028368
-0.0281807
-0.0279467
-0.0276649
-0.0273342
-0.0269536
-0.0265222
-0.0260393
-0.0255039
-0.024916
-0.0242747
-0.0235807
-0.0228331
-0.0220336
-0.0211814
-0.0202795
-0.0193269
-0.0183283
-0.0172823
-0.0161953
-0.0150655
-0.0139009
-0.0126988
-0.0114686
-0.0102063
-0.00892197
-0.00760987
-0.00628039
-0.00492439
-0.00355404
-0.00215256
-0.000738091
-0.0187045
-0.0192818
-0.0198546
-0.0204218
-0.0209826
-0.0215363
-0.0220817
-0.0226176
-0.0231427
-0.0236559
-0.0241558
-0.024641
-0.0251103
-0.0255622
-0.0259953
-0.0264081
-0.0267993
-0.0271672
-0.0275104
-0.0278274
-0.0281166
-0.0283767
-0.028606
-0.0288031
-0.0289665
-0.0290947
-0.0291863
-0.0292399
-0.029254
-0.0292273
-0.0291585
-0.0290461
-0.028889
-0.0286859
-0.0284355
-0.0281369
-0.0277888
-0.0273903
-0.0269404
-0.0264385
-0.0258835
-0.0252755
-0.0246134
-0.0238981
-0.0231285
-0.0223067
-0.0214315
-0.0205064
-0.0195303
-0.0185081
-0.0174388
-0.0163289
-0.015177
-0.0139913
-0.0127698
-0.0115216
-0.0102439
-0.00894606
-0.00762367
-0.00628572
-0.00492489
-0.00355089
-0.00214919
-0.000734938
-0.0193712
-0.0199597
-0.020543
-0.0211198
-0.0216896
-0.0222514
-0.0228042
-0.0233466
-0.0238775
-0.0243955
-0.0248992
-0.0253873
-0.0258584
-0.0263112
-0.026744
-0.0271555
-0.0275442
-0.0279086
-0.0282472
-0.0285586
-0.0288411
-0.0290934
-0.0293139
-0.0295011
-0.0296538
-0.0297703
-0.0298493
-0.0298895
-0.0298894
-0.0298478
-0.0297634
-0.0296349
-0.0294608
-0.0292403
-0.0289719
-0.0286547
-0.0282874
-0.0278693
-0.027399
-0.0268763
-0.0262998
-0.0256696
-0.0249847
-0.0242459
-0.0234522
-0.0226056
-0.0217051
-0.0207541
-0.0197518
-0.0187035
-0.017608
-0.0164725
-0.0152959
-0.0140866
-0.0128433
-0.0115752
-0.0102804
-0.00896764
-0.00763418
-0.00628724
-0.00492177
-0.0035445
-0.00214364
-0.000730672
-0.0201059
-0.0207065
-0.021301
-0.0218882
-0.0224675
-0.023038
-0.0235987
-0.024148
-0.0246849
-0.0252077
-0.0257153
-0.0262061
-0.0266789
-0.027132
-0.0275641
-0.0279737
-0.0283593
-0.0287194
-0.0290525
-0.0293571
-0.0296318
-0.0298751
-0.0300854
-0.0302615
-0.030402
-0.0305053
-0.0305702
-0.0305954
-0.0305796
-0.0305215
-0.0304197
-0.0302733
-0.0300808
-0.0298412
-0.0295532
-0.0292158
-0.0288277
-0.0283882
-0.0278961
-0.0273507
-0.026751
-0.0260968
-0.0253872
-0.0246228
-0.0238027
-0.022929
-0.0220007
-0.0210213
-0.0199903
-0.0189129
-0.0177887
-0.0166248
-0.0154207
-0.0141853
-0.0129179
-0.0116277
-0.0103142
-0.00898515
-0.00763993
-0.00628362
-0.00491392
-0.00353395
-0.00213535
-0.000725063
-0.0209088
-0.0215223
-0.0221288
-0.0227271
-0.0233164
-0.0238961
-0.0244649
-0.0250214
-0.0255643
-0.026092
-0.0266033
-0.0270966
-0.0275706
-0.0280238
-0.0284546
-0.0288615
-0.0292432
-0.029598
-0.0299245
-0.0302213
-0.0304869
-0.0307198
-0.0309186
-0.0310821
-0.0312088
-0.0312974
-0.0313466
-0.0313552
-0.0313219
-0.0312456
-0.0311251
-0.0309591
-0.0307466
-0.0304863
-0.0301771
-0.0298179
-0.0294076
-0.0289452
-0.0284296
-0.02786
-0.0272353
-0.0265554
-0.0258192
-0.0250273
-0.0241788
-0.0232757
-0.0223172
-0.0213069
-0.0202444
-0.0191353
-0.0179794
-0.0167843
-0.0155501
-0.0142858
-0.012992
-0.0116775
-0.0103436
-0.00899694
-0.00763938
-0.00627341
-0.00490012
-0.00351829
-0.00212371
-0.000717856
-0.0217803
-0.0224076
-0.0230267
-0.0236365
-0.0242364
-0.0248256
-0.0254028
-0.0259666
-0.0265155
-0.027048
-0.0275628
-0.0280583
-0.028533
-0.0289855
-0.0294143
-0.0298178
-0.0301945
-0.030543
-0.0308618
-0.0311494
-0.0314045
-0.0316256
-0.0318114
-0.0319606
-0.0320719
-0.0321441
-0.032176
-0.0321663
-0.032114
-0.0320179
-0.0318768
-0.0316898
-0.0314556
-0.0311732
-0.0308413
-0.030459
-0.030025
-0.0295383
-0.0289977
-0.0284025
-0.0277513
-0.0270441
-0.0262795
-0.0254583
-0.0245793
-0.0236447
-0.0226536
-0.0216099
-0.0205132
-0.0193695
-0.0181791
-0.0169498
-0.0156825
-0.0143866
-0.0130638
-0.0117228
-0.0103669
-0.00900127
-0.00763084
-0.00625506
-0.00487906
-0.00349645
-0.00210804
-0.000708771
-0.022721
-0.0233628
-0.0239952
-0.0246171
-0.0252279
-0.0258268
-0.0264126
-0.0269837
-0.0275385
-0.0280756
-0.0285935
-0.0290907
-0.0295655
-0.0300167
-0.0304425
-0.0308415
-0.0312122
-0.0315531
-0.0318628
-0.0321398
-0.0323829
-0.0325907
-0.0327618
-0.0328951
-0.0329893
-0.0330434
-0.0330561
-0.0330265
-0.0329534
-0.0328358
-0.0326726
-0.0324629
-0.0322056
-0.0318996
-0.0315437
-0.0311369
-0.0306778
-0.0301656
-0.0295988
-0.0289766
-0.0282977
-0.0275616
-0.0267671
-0.0259148
-0.0250034
-0.0240351
-0.0230091
-0.0219294
-0.0207958
-0.0196146
-0.0183865
-0.01712
-0.0158167
-0.0144862
-0.0131319
-0.011762
-0.0103822
-0.00899631
-0.00761257
-0.00622692
-0.00484932
-0.00346728
-0.00208764
-0.000697499
-0.0237319
-0.0243888
-0.0250351
-0.0256694
-0.0262914
-0.0269003
-0.0274947
-0.028073
-0.0286336
-0.0291749
-0.0296954
-0.0301935
-0.0306678
-0.0311166
-0.0315385
-0.0319318
-0.0322952
-0.0326272
-0.0329263
-0.0331912
-0.0334206
-0.0336132
-0.0337679
-0.0338834
-0.0339588
-0.0339928
-0.0339846
-0.0339332
-0.0338376
-0.0336968
-0.03351
-0.0332761
-0.0329942
-0.0326633
-0.032282
-0.0318495
-0.0313643
-0.0308254
-0.0302313
-0.029581
-0.028873
-0.0281069
-0.027281
-0.0263959
-0.0254503
-0.0244463
-0.0233829
-0.0222647
-0.0210913
-0.0198697
-0.0186009
-0.0172938
-0.0159514
-0.0145832
-0.0131945
-0.0117932
-0.0103878
-0.00898013
-0.0075827
-0.00618722
-0.00480938
-0.00342955
-0.0020617
-0.000683698
-0.0248141
-0.0254867
-0.0261472
-0.0267943
-0.0274277
-0.0280466
-0.0286496
-0.0292349
-0.0298009
-0.0303459
-0.0308684
-0.0313668
-0.0318395
-0.032285
-0.0327017
-0.0330881
-0.0334428
-0.0337642
-0.0340511
-0.0343021
-0.034516
-0.0346916
-0.0348279
-0.0349237
-0.0349781
-0.0349903
-0.0349592
-0.0348841
-0.0347642
-0.0345986
-0.0343864
-0.0341269
-0.0338191
-0.0334619
-0.0330542
-0.0325949
-0.0320826
-0.0315161
-0.0308937
-0.0302144
-0.0294763
-0.028679
-0.0278204
-0.0269011
-0.0259194
-0.0248776
-0.0237747
-0.0226153
-0.0213993
-0.020134
-0.0188212
-0.0174702
-0.0160852
-0.014676
-0.0132501
-0.0118147
-0.0103817
-0.00895073
-0.00753927
-0.00613407
-0.00475762
-0.0033819
-0.00202938
-0.000666992
-0.0259687
-0.0266576
-0.0273328
-0.0279929
-0.0286378
-0.0292667
-0.029878
-0.03047
-0.0310409
-0.0315891
-0.0321128
-0.0326105
-0.0330807
-0.0335216
-0.0339318
-0.0343097
-0.0346539
-0.0349631
-0.0352359
-0.0354711
-0.0356675
-0.035824
-0.0359398
-0.0360138
-0.0360453
-0.0360334
-0.0359775
-0.0358768
-0.0357308
-0.0355386
-0.0352996
-0.035013
-0.0346779
-0.0342933
-0.0338581
-0.0333712
-0.0328309
-0.0322361
-0.0315847
-0.0308757
-0.0301067
-0.0292771
-0.0283847
-0.0274298
-0.0264105
-0.025329
-0.0241842
-0.0229808
-0.0217192
-0.0204071
-0.0190467
-0.0176482
-0.016217
-0.0147632
-0.0132969
-0.0118245
-0.0103619
-0.008906
-0.0074802
-0.00606546
-0.0046923
-0.00332291
-0.00198976
-0.000646975
-0.0271973
-0.0279029
-0.0285931
-0.0292664
-0.0299228
-0.0305615
-0.0311809
-0.0317791
-0.0323544
-0.0329048
-0.0334289
-0.0339248
-0.0343911
-0.034826
-0.0352282
-0.0355959
-0.035928
-0.0362229
-0.0364796
-0.0366968
-0.0368735
-0.0370088
-0.0371018
-0.0371518
-0.037158
-0.03712
-0.0370371
-0.0369089
-0.0367348
-0.0365143
-0.0362468
-0.0359318
-0.0355682
-0.0351553
-0.0346917
-0.0341764
-0.0336076
-0.0329839
-0.0323031
-0.0315638
-0.0307633
-0.0299009
-0.0289736
-0.0279819
-0.0269234
-0.0258002
-0.0246112
-0.0233612
-0.022051
-0.0206884
-0.0192769
-0.0178269
-0.0163456
-0.0148435
-0.0133333
-0.0118208
-0.0103263
-0.00884374
-0.00740331
-0.00597928
-0.00461157
-0.003251
-0.00194185
-0.000623204
-0.0285014
-0.0292242
-0.0299295
-0.030616
-0.0312838
-0.0319321
-0.0325592
-0.0331631
-0.0337419
-0.0342938
-0.034817
-0.0353099
-0.0357709
-0.0361983
-0.0365906
-0.0369463
-0.0372641
-0.0375427
-0.037781
-0.0379779
-0.0381326
-0.0382441
-0.0383119
-0.0383354
-0.0383141
-0.0382475
-0.0381355
-0.0379776
-0.0377736
-0.0375231
-0.0372257
-0.0368808
-0.0364877
-0.0360455
-0.0355529
-0.0350087
-0.034411
-0.0337582
-0.0330477
-0.0322779
-0.0314456
-0.0305497
-0.029587
-0.0285574
-0.0274582
-0.0262915
-0.0250559
-0.0237566
-0.0223944
-0.0209779
-0.0195113
-0.0180056
-0.0164702
-0.0149155
-0.0133577
-0.0118016
-0.0102728
-0.00876167
-0.00730631
-0.00587327
-0.00451345
-0.00316451
-0.00188457
-0.000595198
-0.0298828
-0.030623
-0.0313435
-0.0320433
-0.0327223
-0.0333798
-0.034014
-0.0346229
-0.0352043
-0.0357565
-0.0362776
-0.0367661
-0.0372201
-0.0376381
-0.0380187
-0.0383602
-0.0386616
-0.0389215
-0.039139
-0.039313
-0.039443
-0.0395282
-0.0395682
-0.0395625
-0.0395111
-0.0394136
-0.0392701
-0.0390805
-0.0388446
-0.0385624
-0.0382335
-0.0378576
-0.0374339
-0.0369617
-0.0364396
-0.0358662
-0.0352395
-0.0345576
-0.0338175
-0.0330172
-0.0321531
-0.0312236
-0.0302248
-0.0291564
-0.0280152
-0.0268032
-0.0255188
-0.0241672
-0.0227498
-0.0212754
-0.0197495
-0.0181838
-0.0165896
-0.0149778
-0.0133685
-0.011765
-0.0101993
-0.00865742
-0.00718682
-0.00574503
-0.00439584
-0.00306165
-0.00181678
-0.000562432
-0.0313432
-0.0321011
-0.032837
-0.0335498
-0.0342397
-0.0349059
-0.0355465
-0.0361595
-0.0367425
-0.0372937
-0.0378113
-0.0382936
-0.0387389
-0.0391456
-0.0395122
-0.0398373
-0.0401197
-0.0403583
-0.0405522
-0.0407007
-0.0408031
-0.0408591
-0.0408684
-0.0408309
-0.0407466
-0.0406157
-0.0404383
-0.0402147
-0.0399449
-0.0396292
-0.0392674
-0.0388593
-0.0384043
-0.0379015
-0.0373496
-0.0367471
-0.0360916
-0.0353809
-0.0346116
-0.0337812
-0.0328855
-0.0319224
-0.0308873
-0.0297795
-0.0285951
-0.0273361
-0.0260004
-0.0245937
-0.0231174
-0.0215811
-0.0199915
-0.0183608
-0.0167031
-0.0150294
-0.013364
-0.011709
-0.0101034
-0.00852853
-0.00704233
-0.00559207
-0.00425652
-0.0029405
-0.00173723
-0.000524327
-0.0328848
-0.0336605
-0.0344117
-0.0351373
-0.0358375
-0.0365118
-0.0371581
-0.0377741
-0.0383574
-0.0389063
-0.0394187
-0.039893
-0.0403275
-0.0407206
-0.0410708
-0.0413768
-0.0416376
-0.041852
-0.0420195
-0.0421393
-0.0422112
-0.0422349
-0.0422105
-0.0421381
-0.0420182
-0.041851
-0.0416372
-0.0413773
-0.0410716
-0.0407207
-0.0403246
-0.0398833
-0.0393962
-0.0388625
-0.0382808
-0.0376494
-0.0369656
-0.0362268
-0.0354291
-0.0345694
-0.0336428
-0.0326464
-0.031575
-0.0304273
-0.0291988
-0.027891
-0.0265018
-0.0250369
-0.023498
-0.0218955
-0.0202372
-0.0185365
-0.0168099
-0.0150689
-0.0133427
-0.0116318
-0.00998312
-0.00837247
-0.00687026
-0.00541175
-0.00409315
-0.002799
-0.00164461
-0.000480233
-0.0345097
-0.0353033
-0.0360695
-0.0368075
-0.0375176
-0.0381992
-0.0388501
-0.0394679
-0.0400502
-0.040595
-0.0411004
-0.0415647
-0.0419861
-0.0423631
-0.0426943
-0.0429784
-0.0432145
-0.0434017
-0.0435395
-0.0436274
-0.0436654
-0.0436535
-0.0435921
-0.0434817
-0.043323
-0.0431167
-0.0428639
-0.0425652
-0.0422216
-0.0418338
-0.041402
-0.0409265
-0.0404069
-0.0398422
-0.039231
-0.0385713
-0.0378601
-0.0370943
-0.0362694
-0.0353815
-0.0344249
-0.033396
-0.0322887
-0.0311008
-0.0298273
-0.0284692
-0.0270241
-0.0254977
-0.0238924
-0.022219
-0.020487
-0.0187105
-0.0169094
-0.0150953
-0.0133031
-0.0115312
-0.00983601
-0.00818666
-0.00666793
-0.0052013
-0.00390326
-0.00263501
-0.00153747
-0.000429431
-0.03622
-0.0370314
-0.0378125
-0.0385623
-0.0392816
-0.0399696
-0.040624
-0.0412422
-0.0418219
-0.0423608
-0.0428571
-0.043309
-0.0437149
-0.0440731
-0.0443824
-0.0446415
-0.0448497
-0.0450063
-0.0451109
-0.0451633
-0.0451638
-0.0451128
-0.0450109
-0.044859
-0.0446582
-0.0444098
-0.0441151
-0.0437753
-0.0433917
-0.0429652
-0.0424966
-0.0419861
-0.0414336
-0.0408381
-0.0401979
-0.0395109
-0.0387736
-0.0379823
-0.0371317
-0.0362172
-0.0352321
-0.0341719
-0.0330292
-0.0318013
-0.0304821
-0.0290722
-0.0275688
-0.0259777
-0.0243018
-0.0225525
-0.0207413
-0.018883
-0.0170012
-0.0151076
-0.0132438
-0.0114054
-0.0096598
-0.00796843
-0.00643259
-0.00495783
-0.0036843
-0.00244622
-0.00141423
-0.00037122
-0.038018
-0.0388472
-0.0396427
-0.0404038
-0.0411314
-0.0418247
-0.0424813
-0.0430984
-0.0436736
-0.0442046
-0.0446895
-0.0451266
-0.0455141
-0.0458505
-0.0461347
-0.0463655
-0.0465423
-0.0466646
-0.0467322
-0.0467453
-0.0467044
-0.0466103
-0.0464641
-0.0462671
-0.0460209
-0.0457271
-0.0453876
-0.0450041
-0.0445783
-0.0441115
-0.0436048
-0.0430588
-0.0424733
-0.0418474
-0.0411792
-0.0404663
-0.0397045
-0.0388897
-0.0380156
-0.0370767
-0.036065
-0.0349749
-0.033798
-0.0325304
-0.0311649
-0.0297018
-0.0281376
-0.0264785
-0.0247275
-0.0228972
-0.0210007
-0.019054
-0.0170849
-0.015105
-0.0131632
-0.0112525
-0.00945223
-0.00771509
-0.00616139
-0.00467839
-0.00343358
-0.00223016
-0.0012732
-0.000304663
-0.0399062
-0.0407529
-0.0415623
-0.0423339
-0.0430689
-0.0437662
-0.0444236
-0.0450379
-0.0456065
-0.0461274
-0.0465984
-0.0470178
-0.047384
-0.0476955
-0.047951
-0.0481499
-0.0482914
-0.0483753
-0.0484019
-0.0483715
-0.0482851
-0.0481438
-0.0479493
-0.0477033
-0.0474078
-0.0470653
-0.0466779
-0.0462481
-0.0457778
-0.0452692
-0.0447233
-0.0441413
-0.0435229
-0.0428673
-0.0421724
-0.0414354
-0.0406514
-0.0398157
-0.0389207
-0.0379599
-0.036924
-0.0358062
-0.0345964
-0.0332898
-0.0318778
-0.0303602
-0.0287328
-0.0270019
-0.0251713
-0.0232542
-0.0212661
-0.019224
-0.0171603
-0.0150866
-0.0130603
-0.0110706
-0.00921101
-0.00742391
-0.00585147
-0.00435989
-0.00314828
-0.00198414
-0.00111277
-0.000229118
-0.0418871
-0.0427509
-0.0435737
-0.0443549
-0.045096
-0.0457961
-0.0464524
-0.047062
-0.047622
-0.0481302
-0.0485846
-0.0489833
-0.0493249
-0.0496078
-0.049831
-0.0499938
-0.0500959
-0.0501373
-0.0501184
-0.0500401
-0.0499036
-0.0497107
-0.0494634
-0.0491642
-0.0488156
-0.0484207
-0.0479823
-0.0475033
-0.0469865
-0.0464343
-0.0458484
-0.04523
-0.0445791
-0.0438949
-0.043175
-0.0424162
-0.0416128
-0.0407592
-0.0398466
-0.0388673
-0.0378102
-0.0366672
-0.0354264
-0.0340817
-0.0326232
-0.0310498
-0.0293567
-0.0275504
-0.0256352
-0.0236252
-0.0215386
-0.0193934
-0.0172274
-0.0150519
-0.0129337
-0.0108579
-0.00893392
-0.00709215
-0.00549993
-0.00399917
-0.00282544
-0.00170542
-0.000932412
-0.00014378
-0.0439632
-0.0448437
-0.045679
-0.0464688
-0.0472148
-0.047916
-0.0485696
-0.0491723
-0.0497212
-0.050214
-0.0506487
-0.0510236
-0.0513369
-0.0515875
-0.0517743
-0.0518968
-0.051955
-0.0519491
-0.05188
-0.0517489
-0.0515576
-0.0513082
-0.0510036
-0.0506466
-0.0502408
-0.0497896
-0.0492967
-0.0487658
-0.0482002
-0.0476028
-0.0469759
-0.0463211
-0.0456385
-0.0449272
-0.0441845
-0.0434066
-0.0425873
-0.0417195
-0.0407932
-0.0397992
-0.0387246
-0.0375594
-0.03629
-0.0349086
-0.0334038
-0.0317734
-0.0300121
-0.0281264
-0.0261213
-0.0240121
-0.0218196
-0.0195631
-0.0172864
-0.0150003
-0.0127823
-0.0106128
-0.00861875
-0.0067171
-0.00510387
-0.00359295
-0.00246205
-0.00139099
-0.000728217
-4.7497e-05
-0.0461372
-0.0470338
-0.0478807
-0.0486779
-0.0494274
-0.050128
-0.0507768
-0.0513702
-0.0519054
-0.0523799
-0.0527917
-0.0531391
-0.0534204
-0.0536344
-0.0537805
-0.0538581
-0.0538676
-0.0538095
-0.053685
-0.0534959
-0.0532445
-0.0529336
-0.0525665
-0.0521472
-0.0516795
-0.051168
-0.0506172
-0.0500313
-0.0494145
-0.0487705
-0.0481019
-0.0474108
-0.0466974
-0.0459609
-0.0451981
-0.0444046
-0.0435732
-0.0426956
-0.0417603
-0.0407563
-0.0396684
-0.0384849
-0.0371897
-0.0357734
-0.0342226
-0.0325344
-0.0307022
-0.028733
-0.0266324
-0.0244169
-0.0221106
-0.019734
-0.0173375
-0.0149315
-0.0126052
-0.0103335
-0.00826341
-0.00629607
-0.00466036
-0.00313798
-0.0020553
-0.00103793
-0.000499028
6.08615e-05
-0.0484116
-0.0493236
-0.0501811
-0.0509845
-0.0517357
-0.0524339
-0.0530757
-0.0536574
-0.0541759
-0.054629
-0.0550144
-0.0553304
-0.0555755
-0.0557487
-0.0558492
-0.055877
-0.0558325
-0.0557168
-0.0555314
-0.0552788
-0.0549617
-0.0545838
-0.054149
-0.0536621
-0.0531279
-0.0525518
-0.0519392
-0.0512953
-0.050625
-0.0499327
-0.0492219
-0.0484948
-0.0477521
-0.0469926
-0.0462128
-0.0454078
-0.044569
-0.043687
-0.042748
-0.0417393
-0.0406432
-0.0394457
-0.0381282
-0.0366792
-0.0350832
-0.0333361
-0.0314305
-0.0293734
-0.0271713
-0.0248421
-0.0224134
-0.0199073
-0.0173813
-0.0148454
-0.0124017
-0.0100186
-0.00786589
-0.00582647
-0.00416653
-0.00263084
-0.0016021
-0.000643856
-0.000243084
0.000182407
-0.0507892
-0.0517159
-0.0525828
-0.0533907
-0.0541421
-0.0548357
-0.0554681
-0.0560353
-0.0565341
-0.0569622
-0.0573175
-0.057598
-0.0578026
-0.05793
-0.05798
-0.0579526
-0.0578486
-0.0576696
-0.0574175
-0.0570953
-0.0567066
-0.0562557
-0.0557475
-0.0551875
-0.0545818
-0.0539365
-0.0532581
-0.0525529
-0.0518267
-0.0510848
-0.0503313
-0.0495689
-0.0487985
-0.0480188
-0.0472259
-0.046414
-0.0455733
-0.0446927
-0.0437565
-0.0427493
-0.0416508
-0.0404445
-0.0391087
-0.0376297
-0.0359894
-0.0341827
-0.0322008
-0.0300511
-0.0277412
-0.0252904
-0.0227302
-0.0200845
-0.0174186
-0.0147419
-0.012171
-0.00966679
-0.00742433
-0.00530579
-0.0036196
-0.00206818
-0.00109901
-0.00020513
4.13164e-05
0.000318317
-0.0532728
-0.0542131
-0.055088
-0.055899
-0.0566485
-0.0573354
-0.0579557
-0.0585054
-0.0589813
-0.0593808
-0.0597018
-0.0599426
-0.0601018
-0.0601785
-0.0601725
-0.0600842
-0.0599148
-0.0596662
-0.0593411
-0.058943
-0.0584763
-0.0579461
-0.0573583
-0.0567195
-0.0560367
-0.0553174
-0.0545691
-0.0537992
-0.0530147
-0.0522217
-0.0514251
-0.0506286
-0.0498323
-0.0490357
-0.048234
-0.0474208
-0.0465845
-0.0457123
-0.0447858
-0.0437874
-0.0426933
-0.0414841
-0.0401346
-0.0386287
-0.0369455
-0.0350784
-0.0330175
-0.0307703
-0.0283457
-0.0257648
-0.0230632
-0.020267
-0.0174501
-0.0146212
-0.0119127
-0.00927693
-0.00693702
-0.00473166
-0.00301685
-0.0014468
-0.00054313
0.000281688
0.000356476
0.000469973
-0.055865
-0.0568178
-0.0576994
-0.0585116
-0.0592572
-0.0599348
-0.0605403
-0.0610695
-0.0615188
-0.0618858
-0.0621683
-0.0623646
-0.0624734
-0.0624939
-0.0624262
-0.062271
-0.0620298
-0.0617051
-0.0613003
-0.0608194
-0.0602679
-0.0596516
-0.0589777
-0.0582539
-0.0574883
-0.0566898
-0.0558671
-0.055029
-0.0541836
-0.0533381
-0.0524983
-0.0516682
-0.0508488
-0.0500392
-0.0492341
-0.0484257
-0.047601
-0.046745
-0.0458366
-0.0448549
-0.0437729
-0.0425675
-0.0412098
-0.0396807
-0.0379561
-0.036028
-0.0338851
-0.0315353
-0.0289886
-0.0262685
-0.0234151
-0.0204569
-0.0174772
-0.0144839
-0.0116265
-0.00884806
-0.00640241
-0.0041019
-0.00235575
-0.000763492
6.85153e-05
0.000819939
0.000704688
0.000638862
-0.0585686
-0.0595327
-0.0604194
-0.0612309
-0.0619703
-0.062636
-0.0632238
-0.063729
-0.064148
-0.0644784
-0.0647178
-0.0648646
-0.0649176
-0.0648762
-0.0647407
-0.0645121
-0.0641924
-0.0637846
-0.0632928
-0.062722
-0.0620782
-0.0613688
-0.0606018
-0.0597862
-0.0589317
-0.0580484
-0.0571466
-0.0562366
-0.0553276
-0.0544283
-0.0535452
-0.052683
-0.0518433
-0.0510253
-0.0502225
-0.0494261
-0.0486211
-0.0477902
-0.0469091
-0.0459536
-0.0448922
-0.0436983
-0.0423384
-0.0407904
-0.0390264
-0.0370368
-0.0348087
-0.0323507
-0.0296742
-0.026805
-0.0237887
-0.0206561
-0.0175011
-0.0143304
-0.0113124
-0.00837947
-0.0058192
-0.00341453
-0.00163388
-1.52602e-05
0.000738977
0.00141298
0.00108804
0.000826581
-0.0613862
-0.0623603
-0.0632503
-0.064059
-0.0647898
-0.065441
-0.0660078
-0.0664854
-0.0668703
-0.0671596
-0.0673511
-0.0674432
-0.0674348
-0.0673254
-0.0671156
-0.0668067
-0.0664013
-0.0659031
-0.0653166
-0.064648
-0.0639043
-0.0630939
-0.0622263
-0.0613119
-0.0603619
-0.059388
-0.0584022
-0.0574162
-0.056441
-0.0554864
-0.0545601
-0.0536678
-0.0528113
-0.0519898
-0.0511959
-0.0504194
-0.0496433
-0.0488476
-0.0480042
-0.0470851
-0.0460541
-0.0448803
-0.0435253
-0.0419631
-0.040162
-0.0381104
-0.0357939
-0.0332217
-0.0304069
-0.0273783
-0.0241872
-0.0208672
-0.0175235
-0.0141617
-0.0109705
-0.00787071
-0.00518628
-0.00266788
-0.000849001
0.000800576
0.00147116
0.00206419
0.00150867
0.00103485
-0.0643206
-0.0653031
-0.0661945
-0.0669982
-0.0677179
-0.0683516
-0.0688941
-0.0693405
-0.0696869
-0.0699306
-0.0700692
-0.0701011
-0.0700252
-0.0698414
-0.0695504
-0.0691541
-0.0686554
-0.0680587
-0.0673695
-0.0665948
-0.0657429
-0.0648234
-0.0638472
-0.0628264
-0.0617739
-0.0607032
-0.059628
-0.0585618
-0.0575175
-0.0565063
-0.0555372
-0.0546167
-0.0537473
-0.052928
-0.0521504
-0.0514028
-0.0506659
-0.0499165
-0.0491224
-0.0482514
-0.0472619
-0.0461178
-0.0447754
-0.0432044
-0.0413688
-0.0392549
-0.0368465
-0.0341538
-0.0311918
-0.0279925
-0.0246137
-0.0210925
-0.017546
-0.0139789
-0.0106014
-0.00732161
-0.00450286
-0.00186056
9.10428e-07
0.00168659
0.00226766
0.00277663
0.00196864
0.00126555
-0.0673742
-0.0683636
-0.0692544
-0.0700508
-0.0707566
-0.0713697
-0.0718845
-0.0722958
-0.0725994
-0.0727925
-0.0728729
-0.0728388
-0.0726892
-0.0724242
-0.0720448
-0.0715534
-0.0709534
-0.0702498
-0.0694493
-0.0685597
-0.0675907
-0.0665534
-0.0654601
-0.0643249
-0.0631623
-0.0619881
-0.0608178
-0.0596672
-0.0585507
-0.0574816
-0.0564702
-0.0555241
-0.0546466
-0.0538352
-0.0530821
-0.0523735
-0.0516872
-0.0509965
-0.0502649
-0.0494549
-0.0485189
-0.0474154
-0.0460943
-0.0445206
-0.0426534
-0.0404768
-0.0379729
-0.0351527
-0.0320338
-0.028652
-0.0250721
-0.0213349
-0.0175709
-0.0137833
-0.0102056
-0.00673231
-0.00376842
-0.000991574
0.000917633
0.00264493
0.00312463
0.00355326
0.0024701
0.00152067
-0.0705497
-0.0715441
-0.0724322
-0.0732188
-0.073908
-0.0744973
-0.0749808
-0.0753527
-0.075609
-0.0757466
-0.0757632
-0.075657
-0.0754272
-0.0750739
-0.0745986
-0.0740039
-0.0732941
-0.0724749
-0.0715538
-0.0705401
-0.0694446
-0.0682801
-0.0670607
-0.0658024
-0.0645218
-0.0632369
-0.0619656
-0.0607257
-0.059534
-0.0584056
-0.0573525
-0.0563834
-0.0555019
-0.0547061
-0.0539869
-0.0533284
-0.0527054
-0.0520874
-0.0514326
-0.0506979
-0.0498291
-0.0487782
-0.047488
-0.0459183
-0.0440229
-0.0417833
-0.0391798
-0.0362247
-0.0329386
-0.0293613
-0.025566
-0.0215973
-0.0176003
-0.0135765
-0.00978434
-0.00610327
-0.00298279
-6.03186e-05
0.00190269
0.00367809
0.00405717
0.00439791
0.00301528
0.00180235
-0.0738493
-0.074847
-0.0757301
-0.0765043
-0.0771739
-0.0777362
-0.0781845
-0.078513
-0.0787172
-0.0787941
-0.0787411
-0.0785565
-0.0782396
-0.0777906
-0.0772114
-0.076505
-0.0756764
-0.0747322
-0.073681
-0.0725332
-0.0713013
-0.0699996
-0.0686445
-0.0672538
-0.0658468
-0.0644436
-0.0630648
-0.0617307
-0.0604604
-0.0592712
-0.0581771
-0.0571881
-0.056308
-0.0555357
-0.0548606
-0.0542645
-0.0537188
-0.0531889
-0.0526268
-0.0519834
-0.0511967
-0.0502115
-0.048963
-0.0474047
-0.0454848
-0.0431818
-0.0404744
-0.0373764
-0.0339119
-0.0301255
-0.0260997
-0.021883
-0.0176367
-0.0133603
-0.00933875
-0.00543527
-0.00214618
0.000933367
0.00295726
0.00478721
0.00506194
0.00531326
0.00360642
0.00211281
-0.0772754
-0.0782744
-0.0791501
-0.0799092
-0.0805564
-0.0810881
-0.0814974
-0.081778
-0.0819254
-0.0819361
-0.0818076
-0.0815382
-0.081127
-0.0805746
-0.0798831
-0.0790561
-0.0780994
-0.0770203
-0.0758287
-0.0745364
-0.0731574
-0.0717081
-0.070207
-0.0686742
-0.0671315
-0.065602
-0.0641088
-0.0626751
-0.0613227
-0.0600714
-0.0589371
-0.0579314
-0.057059
-0.056319
-0.0556987
-0.0551786
-0.0547257
-0.0543006
-0.053849
-0.0533144
-0.0526262
-0.0517215
-0.0505263
-0.0489876
-0.0470472
-0.0446804
-0.0418644
-0.0386147
-0.03496
-0.0309497
-0.0266772
-0.0221952
-0.017683
-0.0131367
-0.00887052
-0.00472946
-0.00125921
0.00198918
0.00408215
0.00597301
0.00614123
0.00630152
0.00424587
0.00245427
-0.0808301
-0.0818282
-0.0826942
-0.0834356
-0.0840571
-0.0845548
-0.0849212
-0.0851495
-0.085235
-0.085174
-0.0849639
-0.0846028
-0.08409
-0.0834261
-0.0826136
-0.0816568
-0.080562
-0.0793378
-0.077995
-0.076547
-0.0750098
-0.0734018
-0.0717437
-0.0700583
-0.0683704
-0.0667057
-0.0650908
-0.0635518
-0.0621135
-0.0607985
-0.059625
-0.0586065
-0.0577484
-0.0570495
-0.0564965
-0.0560673
-0.0557242
-0.0554226
-0.0551007
-0.0546942
-0.0541228
-0.0533144
-0.0521855
-0.0506753
-0.0487187
-0.0462876
-0.0433579
-0.039947
-0.0360891
-0.0318392
-0.0273032
-0.0225375
-0.017742
-0.0129079
-0.00838162
-0.00398731
-0.000322969
0.00310629
0.00527774
0.00723564
0.00729734
0.00736442
0.00493611
0.00282889
-0.0855105
-0.0863641
-0.087085
-0.0876778
-0.0881379
-0.0884574
-0.0886289
-0.0886475
-0.0885092
-0.0882112
-0.0877514
-0.0871293
-0.0863456
-0.0854032
-0.0843068
-0.0830636
-0.0816832
-0.0801779
-0.0785627
-0.0768554
-0.0750767
-0.07325
-0.071401
-0.0695574
-0.0677485
-0.0660039
-0.0643536
-0.0628254
-0.0614451
-0.0602334
-0.059206