/*--------------------------------*- C++ -*----------------------------------*\
  =========                 |
  \\      /  F ield         | OpenFOAM: The Open Source CFD Toolbox
   \\    /   O peration     | Website:  https://openfoam.org
    \\  /    A nd           | Version:  7
     \\/     M anipulation  |
\*---------------------------------------------------------------------------*/
FoamFile
{
    version     2.0;
    format      ascii;
    class       volScalarField;
    location    "21";
    object      p;
}
// * * * * * * * * * * * * * * * * * * * * * * * * * * * * * * * * * * * * * //

dimensions      [0 2 -2 0 0 0 0];

internalField   nonuniform List<scalar> 
433
(
-12.0344
-11.729
-11.5117
-11.3417
-11.1943
-10.855
-11.4381
-11.7182
-11.8095
-11.7881
-11.7018
-11.5792
-11.4365
-11.2822
-11.1205
-10.5538
-11.5344
-12.0655
-12.3093
-12.3759
-12.3366
-12.2359
-12.1003
-11.9447
-11.7772
-11.6018
-11.4207
-11.2346
-11.044
-10.8493
-16.3384
-15.2063
-14.4256
-13.8888
-13.5119
-13.2332
-13.0101
-12.815
-12.6313
-12.4497
-12.2654
-12.0764
-11.8821
-11.6825
-11.4779
-11.2689
-11.0558
-10.839
-10.6195
-10.4076
-23.7368
-20.0514
-17.6144
-16.0379
-15.0297
-14.3804
-13.9468
-13.6352
-13.3879
-13.1708
-12.9652
-12.7613
-12.5547
-12.3437
-12.1278
-11.9073
-11.6826
-11.4541
-11.2221
-10.9872
-10.7588
-14.642
-14.712
-14.7621
-14.7635
-14.7102
-14.6083
-14.4679
-14.2994
-14.1115
-13.9102
-13.6998
-13.4827
-13.2604
-13.0335
-12.8024
-12.5676
-12.3292
-12.0874
-11.8426
-11.5948
-11.3442
-11.099
-1.67462
-6.84497
-10.2611
-12.4021
-13.6565
-14.3196
-14.6042
-14.6562
-14.5711
-14.4088
-14.2044
-13.9778
-13.7394
-13.4944
-13.2451
-12.9923
-12.7366
-12.4782
-12.2173
-11.9537
-11.6874
-11.4255
-9.35401
-11.9717
-13.6447
-14.6551
-15.214
-15.4701
-15.5295
-15.4648
-15.3231
-15.1346
-14.9177
-14.6834
-14.438
-14.1849
-13.9261
-13.6627
-13.3953
-13.1245
-12.8507
-12.5744
-12.2955
-12.0136
-11.7352
-36.1869
-29.8083
-25.2119
-21.9864
-19.7789
-18.2913
-17.2931
-16.6122
-16.1264
-15.7534
-15.4405
-15.1563
-14.883
-14.6116
-14.3377
-14.0598
-13.7778
-13.492
-13.203
-12.9115
-12.6173
-12.3201
-12.0255
-33.9872
-28.2488
-24.2482
-21.5113
-19.6692
-18.4362
-17.6008
-17.0137
-16.5741
-16.2168
-15.902
-15.6063
-15.3171
-15.028
-14.7361
-14.4405
-14.1412
-13.8385
-13.5332
-13.2259
-12.9163
-12.6037
-12.2933
-6.47449
-10.3066
-13.0002
-14.7955
-15.908
-16.525
-16.7975
-16.8406
-16.7372
-16.5439
-16.2975
-16.0205
-15.7262
-15.4219
-15.1114
-14.7968
-14.4791
-14.1591
-13.8372
-13.514
-13.189
-12.8614
-12.5356
11.3449
1.40988
-5.58508
-10.3377
-13.4302
-15.3326
-16.4129
-16.9458
-17.1269
-17.0901
-16.9232
-16.6814
-16.3978
-16.0913
-15.7723
-15.4462
-15.1157
-14.7822
-14.4465
-14.1094
-13.7713
-13.4317
-13.0896
-12.7492
-23.9415
-22.8205
-21.7943
-20.8945
-20.1301
-19.493
-18.9616
-18.5101
-18.1139
-17.7524
-17.4102
-17.0769
-16.7457
-16.413
-16.077
-15.7371
-15.3935
-15.0467
-14.6973
-14.3463
-13.9944
-13.6409
-13.2851
-12.931
-42.9404
-35.0839
-29.4498
-25.5214
-22.8349
-21.0204
-19.7935
-18.9449
-18.3282
-17.8458
-17.4361
-17.0622
-16.7033
-16.3487
-15.9934
-15.6353
-15.2743
-14.911
-14.5461
-14.1806
-13.8139
-13.4449
-13.0781
-27.6185
-24.8516
-22.9129
-21.5514
-20.5812
-19.8659
-19.3094
-18.8473
-18.4381
-18.0561
-17.6863
-17.3205
-16.9543
-16.5857
-16.2142
-15.8399
-15.4632
-15.0849
-14.7058
-14.3269
-13.9473
-13.5659
-13.1875
-1.78914
-8.01949
-12.3307
-15.1676
-16.9182
-17.9005
-18.3605
-18.4791
-18.3831
-18.1576
-17.8571
-17.5143
-17.1485
-16.7702
-16.385
-15.996
-15.6048
-15.2127
-14.8204
-14.4291
-14.0375
-13.6447
-13.2561
-6.79748
-11.6167
-14.8023
-16.8081
-17.9798
-18.5804
-18.8022
-18.7796
-18.6039
-18.3349
-18.0102
-17.6529
-17.2763
-16.8881
-16.493
-16.0935
-15.6914
-28.9349
-25.9415
-23.749
-22.1667
-21.0257
-20.1877
-19.547
-12.229
-12.0375
-11.819
-11.5761
-11.3116
-11.0284
-10.729
-10.4161
-10.0925
-11.5446
-11.3863
-11.2039
-10.9997
-10.776
-10.5352
-10.2797
-10.0117
-9.73371
-10.9004
-10.7706
-10.62
-10.4506
-10.264
-10.0623
-9.84746
-9.62159
-9.38678
-10.3057
-10.1991
-10.0751
-9.93493
-9.7801
-9.61223
-9.433
-9.24418
-9.04761
-9.76228
-9.67451
-9.57221
-9.45641
-9.32829
-9.18914
-9.04034
-8.88334
-8.7197
-9.26589
-9.19317
-9.10855
-9.01281
-8.90685
-8.79168
-8.6684
-8.53818
-8.40225
-8.60137
-8.51363
-8.41826
-8.31612
-8.20812
-8.0952
-12.6703
-12.6138
-12.5197
-12.3906
-11.8956
-11.8541
-11.7805
-11.6767
-11.1813
-11.1495
-11.0912
-11.0077
-10.5345
-10.5086
-10.4614
-10.3934
-9.95254
-9.93019
-9.89077
-9.83461
-9.42712
-9.40694
-9.3732
-9.32606
-8.95025
)
;

boundaryField
{
    inlet
    {
        type            zeroGradient;
    }
    outlet
    {
        type            fixedValue;
        value           nonuniform 0();
    }
    cylinder
    {
        type            zeroGradient;
    }
    top
    {
        type            symmetryPlane;
    }
    bottom
    {
        type            symmetryPlane;
    }
    defaultFaces
    {
        type            empty;
    }
    procBoundary26to20
    {
        type            processor;
        value           nonuniform List<scalar> 
28
(
-12.0075
-12.4932
-12.4932
-9.80543
-9.80543
-8.89409
-8.89409
-17.9538
-17.9538
-29.1654
-29.1654
-14.624
5.8185
5.8185
-5.45448
-44.8061
-42.0753
-1.26643
-1.26643
24.9052
-24.9803
-53.6314
-53.6314
-31.5686
6.85251
0.253063
-32.9381
-32.9381
)
;
    }
    procBoundary26to25
    {
        type            processor;
        value           nonuniform List<scalar> 
23
(
-15.2882
-14.8849
-14.4829
-14.0808
-13.6781
-19.0266
-18.5739
-18.1555
-17.7514
-17.3508
-16.9485
-16.5429
-16.1338
-15.2882
-15.7223
-34.3738
-29.2922
-25.768
-23.3671
-21.7358
-20.6116
-19.0266
-19.8062
)
;
    }
    procBoundary26to27
    {
        type            processor;
        value           nonuniform List<scalar> 
17
(
-11.4371
-11.081
-10.8469
-10.6769
-11.0554
-11.0554
-10.9174
-10.7765
-10.631
-10.9533
-10.9533
-10.7815
-10.6053
-10.425
-10.6507
-10.6507
-10.4485
)
;
    }
    procBoundary26to31
    {
        type            processor;
        value           nonuniform List<scalar> 8(-13.2812 -12.687 -11.9038 -11.186 -10.5387 -9.95766 -9.43372 -8.95819);
    }
    procBoundary26to32
    {
        type            processor;
        value           nonuniform List<scalar> 
15
(
-8.81161
-8.75098
-8.68071
-8.68071
-8.21922
-8.14637
-8.06723
-7.98245
-7.89272
-7.79874
-8.93159
-8.90219
-8.86212
-8.93159
-8.51505
)
;
    }
    procBoundary26to33
    {
        type            processor;
        value           nonuniform List<scalar> 9(-10.2438 -10.0483 -9.76058 -9.44807 -9.14519 -8.84519 -8.55099 -8.26188 -7.97834);
    }
}


// ************************************************************************* //
