/*--------------------------------*- C++ -*----------------------------------*\
  =========                 |
  \\      /  F ield         | OpenFOAM: The Open Source CFD Toolbox
   \\    /   O peration     | Website:  https://openfoam.org
    \\  /    A nd           | Version:  7
     \\/     M anipulation  |
\*---------------------------------------------------------------------------*/
FoamFile
{
    version     2.0;
    format      ascii;
    class       surfaceScalarField;
    location    "88.999386";
    object      phi;
}
// * * * * * * * * * * * * * * * * * * * * * * * * * * * * * * * * * * * * * //

dimensions      [0 3 -1 0 0 0 0];

internalField   nonuniform List<scalar> 
11413
(
-0.000357554
1.49174e-05
-0.000418735
9.44453e-06
-0.000484032
1.71905e-06
-0.000553266
-8.7943e-06
-0.000626123
-2.2669e-05
-0.000702146
-4.04136e-05
-0.000780772
-6.23249e-05
-0.000861728
-8.80124e-05
-0.000116177
-3.77556e-06
7.41557e-06
-1.42056e-05
1.97457e-05
-3.09694e-05
3.06852e-05
-5.37219e-05
4.02209e-05
-8.21012e-05
4.838e-05
-0.000115752
5.52332e-05
-0.000154345
6.08612e-05
-0.0001976
6.53184e-05
-0.000245294
6.8595e-05
-0.000297269
7.05845e-05
-0.000353412
7.10604e-05
-0.00041363
6.96628e-05
-0.000477805
6.58942e-05
-0.00054573
5.91301e-05
-0.000617055
4.86566e-05
-0.000691252
3.37834e-05
-0.0007676
1.40229e-05
-0.00084552
-1.00922e-05
-3.62758e-05
-3.66386e-06
1.10794e-05
-1.3805e-05
2.98869e-05
-3.01199e-05
4.7e-05
-5.22707e-05
6.23717e-05
-7.98931e-05
7.60024e-05
-0.000112619
8.7959e-05
-0.000150098
9.83404e-05
-0.000192018
0.000107238
-0.000238117
0.000114694
-0.000288187
0.000120654
-0.000342059
0.000124933
-0.000399577
0.00012718
-0.000460547
0.000126865
-0.000524677
0.00012326
-0.000591501
0.000115481
-0.000660325
0.000102607
-0.000730107
8.38049e-05
-0.000799612
5.94125e-05
3.35342e-05
-3.48737e-06
1.45668e-05
-1.3169e-05
3.95685e-05
-2.8766e-05
6.2597e-05
-4.99503e-05
8.3556e-05
-7.63524e-05
0.000102404
-0.000107584
0.00011919
-0.000143258
0.000134015
-0.000183011
0.000146992
-0.000226514
0.000158196
-0.000273472
0.000167613
-0.000323618
0.000175078
-0.000376677
0.00018024
-0.000432322
0.00018251
-0.000490103
0.000181041
-0.000549356
0.000174734
-0.000609133
0.000162384
-0.000667974
0.000142646
-0.000723486
0.000114925
8.7113e-05
-3.25385e-06
1.78207e-05
-1.23233e-05
4.8638e-05
-2.69581e-05
7.72317e-05
-4.68394e-05
0.000103437
-7.15881e-05
0.000127153
-0.000100785
0.000148388
-0.000133993
0.000167223
-0.000170774
0.000183772
-0.0002107
0.000198122
-0.000253355
0.000210268
-0.000298322
0.000220045
-0.000345149
0.000227067
-0.000393302
0.000230664
-0.000442092
0.000229831
-0.000490558
0.0002232
-0.000537402
0.000209228
-0.000580755
0.000185998
-0.000616368
0.000150537
0.000118342
-2.97361e-06
2.07943e-05
-1.13021e-05
5.69665e-05
-2.47632e-05
9.06929e-05
-4.30436e-05
0.000121718
-6.57465e-05
0.000149856
-9.24111e-05
0.000175052
-0.000122531
0.000197343
-0.000155571
0.000216811
-0.000190972
0.000233524
-0.000228157
0.000247452
-0.000266502
0.00025839
-0.00030531
0.000265875
-0.000343755
0.000269109
-0.000380803
0.000266878
-0.000415076
0.000257473
-0.000444775
0.000238928
-0.000467773
0.000208996
-0.000477125
0.000159889
-0.000478884
0.000120101
5.58851e-06
-2.65892e-06
2.34532e-05
-1.01462e-05
6.44538e-05
-2.2262e-05
0.000102809
-3.86897e-05
0.000138146
-5.90044e-05
0.000170171
-8.26886e-05
0.000198736
-0.000109148
0.000223802
-0.000137724
0.000245387
-0.000167695
0.000263495
-0.00019827
0.000278028
-0.000228565
0.000288685
-0.000257556
0.000294866
-0.00028402
0.000295572
-0.000306451
0.00028931
-0.000322898
0.00027392
-0.000330782
0.000246811
-0.000327921
0.000206135
-0.000304367
0.000136336
-0.000267169
8.29035e-05
-8.0949e-05
-2.32341e-06
2.57766e-05
-8.90094e-06
7.10313e-05
-1.95437e-05
0.000113451
-3.39191e-05
0.000152521
-5.1559e-05
0.000187811
-7.18717e-05
0.000219049
-9.41533e-05
0.000246084
-0.000117593
0.000268827
-0.00014127
0.000287171
-0.000164131
0.000300889
-0.000184961
0.000309514
-0.000202318
0.000312223
-0.000214464
0.000307719
-0.000219264
0.00029411
-0.000214031
0.000268687
-0.00019497
0.00022775
-0.000159283
0.000170448
-9.77642e-05
7.48168e-05
-1.18669e-06
-1.3674e-05
-0.000217525
-1.98121e-06
2.77578e-05
-7.61344e-06
7.66635e-05
-1.67015e-05
0.000122539
-2.88789e-05
0.000164698
-4.36153e-05
0.000202547
-6.02239e-05
0.000235658
-7.78663e-05
0.000263727
-9.55487e-05
0.00028651
-0.000112107
0.000303729
-0.000126172
0.000314954
-0.000136119
0.000319462
-0.000139991
0.000316095
-0.000135393
0.000303121
-0.000119367
0.000278084
-8.83253e-05
0.000237645
-3.76677e-05
0.000177093
4.00559e-05
9.27246e-05
0.000148642
-3.3769e-05
0.00029507
-0.000160102
-0.000440574
-1.64612e-06
2.94039e-05
-6.32952e-06
8.13469e-05
-1.38257e-05
0.000130036
-2.37116e-05
0.000174584
-3.53715e-05
0.000214207
-4.79985e-05
0.000248285
-6.05903e-05
0.000276318
-7.19338e-05
0.000297853
-8.05739e-05
0.000312369
-8.4762e-05
0.000319142
-8.23792e-05
0.000317079
-7.0832e-05
0.000304548
-4.69194e-05
0.000279208
-6.67384e-06
0.000237838
5.48858e-05
0.000176085
0.00014395
8.80288e-05
0.000267235
-3.05609e-05
0.000438432
-0.000204966
0.000651238
-0.000372908
-0.000755817
0.000966482
-1.33065e-06
3.07346e-05
-5.09045e-06
8.51067e-05
-1.09974e-05
0.000135943
-1.85442e-05
0.000182131
-2.70021e-05
0.000222665
-3.54142e-05
0.000256697
-4.25797e-05
0.000283484
-4.70232e-05
0.000302296
-4.69428e-05
0.000312289
-4.01343e-05
0.000312334
-2.38847e-05
0.000300829
5.16734e-06
0.000275496
5.12143e-05
0.000233161
0.000119473
0.000169579
0.000216321
7.92375e-05
0.0003501
-4.57507e-05
0.000529106
-0.000209566
0.00077016
-0.00044602
0.00106476
-0.000667504
-0.00117501
0.00148394
-1.04506e-06
3.17796e-05
-3.92953e-06
8.79912e-05
-8.28068e-06
0.000140294
-1.34752e-05
0.000187326
-1.86386e-05
0.000227828
-2.26283e-05
0.000260687
-2.40035e-05
0.000284859
-2.09734e-05
0.000299266
-1.13213e-05
0.000302637
7.70325e-06
0.000293309
3.9528e-05
0.000269005
8.84363e-05
0.000226588
0.000159786
0.000161811
0.000260259
6.9106e-05
0.000397965
-5.84678e-05
0.00058299
-0.000230776
0.000826985
-0.000453561
0.0011458
-0.000764833
0.00153471
-0.00105642
-0.00170547
0.00206518
-7.96432e-07
3.25761e-05
-2.86871e-06
9.00635e-05
-5.71613e-06
0.000143141
-8.563e-06
0.000190172
-1.0351e-05
0.000229616
-9.70961e-06
0.000260045
-4.90622e-06
0.000280056
6.22986e-06
0.00028813
2.64157e-05
0.000282451
5.90584e-05
0.000260667
0.000108439
0.000219624
0.000179932
0.000155094
0.000280258
6.14858e-05
0.000417744
-6.83803e-05
0.000602399
-0.000243122
0.000845565
-0.000473943
0.00116294
-0.000770932
0.00156561
-0.00116751
0.00205641
-0.00154722
-0.00234455
0.00269549
-5.87745e-07
3.31638e-05
-1.91549e-06
9.13912e-05
-3.31369e-06
0.000144539
-3.81376e-06
0.000190673
-2.12859e-06
0.000227931
3.38905e-06
0.000254527
1.4828e-05
0.000268617
3.48208e-05
0.000268137
6.66882e-05
0.000250584
0.000114626
0.000212729
0.000183927
0.000150323
0.000281237
5.77842e-05
0.000414793
-7.20701e-05
0.000594633
-0.00024822
0.000832648
-0.000481137
0.00114067
-0.000781964
0.00153722
-0.00116748
0.00202632
-0.00165661
0.00261854
-0.00213945
-0.00307338
0.00334737
-4.17222e-07
3.3581e-05
-1.06041e-06
9.20344e-05
-1.04638e-06
0.000144525
8.29952e-07
0.000188796
6.12991e-06
0.000222631
1.6849e-05
0.000243808
3.55059e-05
0.00024996
6.52915e-05
0.000238352
0.000110256
0.00020562
0.000175532
0.000147453
0.000267593
5.82619e-05
0.000394498
-6.91204e-05
0.000566065
-0.000243638
0.000793872
-0.000476026
0.00109116
-0.000778428
0.00146949
-0.00116029
0.00194608
-0.00164408
0.00251776
-0.00222828
0.00319962
-0.00282131
-0.00385572
0.00398196
-2.78019e-07
3.38591e-05
-2.73353e-07
9.20297e-05
1.14725e-06
0.000143105
5.48151e-06
0.000184462
1.46335e-05
0.000213479
3.10052e-05
0.000227437
5.76407e-05
0.000223324
9.84072e-05
0.000197585
0.000158223
0.000145804
0.000243313
6.23627e-05
0.000361464
-5.98887e-05
0.000522204
-0.000229861
0.000736791
-0.000458225
0.00101779
-0.000757022
0.00137842
-0.00113906
0.00182901
-0.00161087
0.00237944
-0.00219451
0.00302034
-0.00286918
0.00376603
-0.003567
-0.00464403
0.00455434
-1.58487e-07
3.40176e-05
4.83815e-07
9.13874e-05
3.37047e-06
0.000140218
1.03391e-05
0.000177493
2.3695e-05
0.000200123
4.63394e-05
0.000204792
8.19465e-05
0.000187717
0.000135188
0.000144344
0.000211991
6.90008e-05
0.0003198
-4.54458e-05
0.000467765
-0.000207854
0.000666749
-0.000428844
0.00092894
-0.000720416
0.00126681
-0.0010949
0.00169134
-0.00156359
0.00220967
-0.0021292
0.00281926
-0.0028041
0.00350543
-0.00355535
0.00427531
-0.00433688
-0.00539087
0.00502215
-4.18107e-08
3.40594e-05
1.28052e-06
9.00651e-05
5.76681e-06
0.000135732
1.56521e-05
0.000167608
3.37203e-05
0.000182055
6.34647e-05
0.000175048
0.000109305
0.000141877
0.000176845
7.6804e-05
0.000273138
-2.72929e-05
0.000406899
-0.000179207
0.000588527
-0.000389482
0.000829765
-0.000670082
0.00114272
-0.00103337
0.00153805
-0.00149022
0.00202176
-0.0020473
0.00259463
-0.00270208
0.00324007
-0.00344954
0.00393938
-0.00425466
0.00468627
-0.00508377
-0.0060595
0.0053549
9.54929e-08
3.39639e-05
2.19533e-06
8.79653e-05
8.50491e-06
0.000129422
2.17216e-05
0.000154391
4.51874e-05
0.000158589
8.30872e-05
0.000137148
0.0001407
8.42644e-05
0.000224667
-7.16329e-06
0.000343225
-0.000145851
0.000506263
-0.000342245
0.000725048
-0.000608267
0.00101132
-0.000956354
0.00137552
-0.00139757
0.00182412
-0.00193883
0.00235573
-0.0025789
0.00296141
-0.00330776
0.00361329
-0.00410141
0.00429048
-0.00493185
0.00497112
-0.00576441
-0.00663198
0.00554359
2.74487e-07
3.36894e-05
3.31293e-06
8.49268e-05
1.17724e-05
0.000120963
2.88778e-05
0.000137286
5.8612e-05
0.000128855
0.000105949
8.98113e-05
0.00017712
1.30928e-05
0.000279865
-0.000109908
0.00042353
-0.000289516
0.000618877
-0.000537592
0.000877288
-0.000866678
0.00120913
-0.0012882
0.00162111
-0.00180954
0.00211301
-0.00243073
0.00267445
-0.00314034
0.00328571
-0.00391902
0.00391387
-0.00472957
0.00453712
-0.00555511
0.00512136
-0.00634865
-0.00712045
0.00560983
5.21209e-07
3.31682e-05
4.72307e-06
8.07249e-05
1.57624e-05
0.000109923
3.74551e-05
0.000115593
7.45044e-05
9.18056e-05
0.000132754
3.15613e-05
0.000219446
-7.3599e-05
0.000343372
-0.000233833
0.000514758
-0.000460902
0.000744625
-0.000767459
0.00104332
-0.00116537
0.00141804
-0.00166292
0.00186954
-0.00226105
0.00238912
-0.00295031
0.00295738
-0.0037086
0.00354659
-0.00450824
0.00412595
-0.00530892
0.00467464
-0.00610381
0.0051613
-0.00683531
-0.00757557
0.00561642
8.5945e-07
3.23087e-05
6.51194e-06
7.50725e-05
2.0658e-05
9.57774e-05
4.77643e-05
8.84869e-05
9.33209e-05
4.62491e-05
0.000164092
-3.92103e-05
0.000268311
-0.000177818
0.000415651
-0.000381173
0.000616743
-0.000661995
0.000881927
-0.00103264
0.00121899
-0.00150243
0.00162998
-0.00207391
0.00210801
-0.00273908
0.00263562
-0.00347791
0.00318665
-0.00425964
0.00373115
-0.00505274
0.00424528
-0.00582306
0.00471147
-0.00656999
0.00513158
-0.00725542
-0.00796728
0.00552329
1.31063e-06
3.09981e-05
8.75599e-06
6.76271e-05
2.66186e-05
7.79147e-05
6.00656e-05
5.504e-05
0.000115416
-9.10148e-06
0.000200354
-0.000124148
0.000323984
-0.000301448
0.000496509
-0.000553697
0.000728222
-0.000893707
0.00102752
-0.00133194
0.00139791
-0.00187283
0.00183467
-0.00251067
0.00232273
-0.00322714
0.00283767
-0.00399285
0.00335089
-0.00477286
0.00383635
-0.0055382
0.00427905
-0.00626575
0.00467331
-0.00696424
0.00503071
-0.00761283
-0.00829726
0.00536069
1.89238e-06
2.91057e-05
1.15167e-05
5.80028e-05
3.37675e-05
5.56638e-05
7.45443e-05
1.42632e-05
0.000141002
-7.55591e-05
0.000241667
-0.000224813
0.000386265
-0.000446046
0.000584964
-0.000752397
0.000846712
-0.00115546
0.0011765
-0.00166173
0.00157202
-0.00226834
0.00202097
-0.00295963
0.00250131
-0.00370748
0.00298531
-0.00447685
0.00344687
-0.00523442
0.00386787
-0.0059592
0.00424346
-0.00664134
0.00457699
-0.00729778
0.00488427
-0.00792011
-0.00858934
0.00517635
2.61779e-06
2.64879e-05
1.48373e-05
4.57833e-05
4.21833e-05
2.83179e-05
9.12939e-05
-3.48474e-05
0.000170113
-0.000154378
0.00028784
-0.00034254
0.000454411
-0.000612616
0.000679182
-0.000977168
0.000968548
-0.00144482
0.00132267
-0.00201586
0.00173244
-0.00267811
0.00217863
-0.00340581
0.002635
-0.00416384
0.00307488
-0.00491673
0.00347858
-0.00563813
0.00383741
-0.00631802
0.00415491
-0.00695885
0.00444008
-0.00758295
0.00471007
-0.00819009
-0.00885205
0.00497278
3.49527e-06
2.29926e-05
1.87416e-05
3.0537e-05
5.18946e-05
-4.8351e-06
0.000110303
-9.32559e-05
0.000202589
-0.000246664
0.000338336
-0.000478287
0.000527115
-0.000801395
0.000776508
-0.00122656
0.0010891
-0.00175741
0.00145915
-0.00238591
0.00187082
-0.00308978
0.00229993
-0.00383493
0.0027198
-0.00458371
0.00310859
-0.00530552
0.00345488
-0.00598441
0.00375844
-0.00662158
0.00402843
-0.00722885
0.00427626
-0.00783078
0.00451753
-0.00843135
-0.00909169
0.00475716
4.52871e-06
1.84639e-05
2.32332e-05
1.18325e-05
6.28779e-05
-4.44798e-05
0.00013145
-0.000161828
0.000238057
-0.000353271
0.000392257
-0.000632487
0.000602521
-0.00101166
0.000873599
-0.00149764
0.00120317
-0.00208699
0.00157924
-0.00276198
0.00198047
-0.003491
0.00238074
-0.0042352
0.00275646
-0.00495943
0.00309286
-0.00564192
0.00338657
-0.00627812
0.00364363
-0.00687864
0.00387591
-0.00746113
0.00409478
-0.00804965
0.00431328
-0.00864986
-0.00931222
0.00453381
5.71784e-06
1.27461e-05
2.82956e-05
-1.07452e-05
7.50562e-05
-9.12405e-05
0.0001545
-0.000241272
0.000275937
-0.000474708
0.000448364
-0.000804915
0.000678306
-0.0012416
0.000966663
-0.001786
0.00130556
-0.00242589
0.00167729
-0.0031337
0.00205724
-0.00387095
0.00242057
-0.00459854
0.00274927
-0.00528813
0.00303612
-0.00592877
0.00328427
-0.00652628
0.00350345
-0.00709781
0.00370597
-0.00766364
0.00390181
-0.00824549
0.00410121
-0.00884926
-0.00951549
0.00430448
7.05842e-06
5.68768e-06
3.38925e-05
-3.75793e-05
8.82985e-05
-0.000145646
0.000179102
-0.000332075
0.000315442
-0.000611048
0.000505112
-0.000994585
0.000751809
-0.0014883
0.0010518
-0.00208599
0.00139164
-0.00276573
0.00174935
-0.00349141
0.00209978
-0.00422138
0.00242198
-0.00492074
0.00270462
-0.00557077
0.00294716
-0.0061713
0.00315718
-0.00673629
0.00334587
-0.0072865
0.00352452
-0.00784229
0.0037012
-0.00842217
0.00388356
-0.00903162
-0.00970254
0.0040706
8.54204e-06
-2.85436e-06
3.99675e-05
-6.90048e-05
0.000102419
-0.000208098
0.000204795
-0.000434451
0.000355601
-0.000761854
0.000560721
-0.0011997
0.00082023
-0.00174781
0.00112536
-0.00239112
0.00145786
-0.00309822
0.00179353
-0.00382709
0.00210924
-0.0045371
0.00238952
-0.00520101
0.00262956
-0.00581081
0.00283392
-0.00637567
0.00301257
-0.00691494
0.00317656
-0.0074505
0.00333543
-0.00800117
0.00349531
-0.00858205
0.00366173
-0.00919804
-0.00987375
0.00383294
1.01556e-05
-1.301e-05
4.64424e-05
-0.000105292
0.000117179
-0.000278835
0.000231015
-0.000548288
0.000395294
-0.000926132
0.000613282
-0.00141769
0.000880852
-0.00201538
0.00118436
-0.00269462
0.00150207
-0.00341593
0.00180989
-0.00413491
0.00208857
-0.00481578
0.00232864
-0.00544108
0.00253082
-0.006013
0.00270301
-0.00654785
0.00285589
-0.00706783
0.00299943
-0.00759403
0.00314118
-0.00814292
0.0032856
-0.00872647
0.00343658
-0.00934902
-0.0100293
0.00359209
1.18816e-05
-2.48916e-05
5.32173e-05
-0.000146627
0.000132283
-0.000357901
0.000257106
-0.000673111
0.000433296
-0.00110232
0.000660883
-0.00164528
0.000931285
-0.00228578
0.00122666
-0.00299
0.00152361
-0.00371288
0.00180006
-0.00441136
0.00204179
-0.0050575
0.00224491
-0.0056442
0.00241431
-0.0061824
0.00255961
-0.00669315
0.00269107
-0.00719929
0.00281706
-0.00772002
0.00294333
-0.00826919
0.00307299
-0.00885612
0.00320874
-0.00948477
-0.010169
0.0033485
1.36962e-05
-3.85878e-05
6.01695e-05
-0.000193101
0.000147393
-0.000445124
0.000282347
-0.000808065
0.000468353
-0.00128833
0.000701756
-0.00187868
0.000969662
-0.00255369
0.0012512
-0.00327154
0.00152309
-0.00398476
0.00176678
-0.00465506
0.00197329
-0.00526401
0.00214345
-0.00581436
0.00228487
-0.00632381
0.00240759
-0.00681588
0.0025208
-0.0073125
0.00263118
-0.0078304
0.00274291
-0.00838093
0.00285812
-0.00897133
0.00297866
-0.00960531
-0.0102929
0.00310258
1.55696e-05
-5.41574e-05
6.71559e-05
-0.000244687
0.000162129
-0.000540097
0.000305981
-0.000951917
0.000499257
-0.0014816
0.000734404
-0.00211383
0.000994775
-0.00281406
0.00125788
-0.00353464
0.00150213
-0.00422901
0.00171333
-0.00486626
0.00188737
-0.00543805
0.00202868
-0.00595567
0.00214627
-0.00644141
0.00224978
-0.00691939
0.00234695
-0.00740966
0.0024429
-0.00792636
0.00254061
-0.00847863
0.00264148
-0.0090722
0.00274677
-0.0097106
-0.0104009
0.00285472
1.74667e-05
-7.1624e-05
7.40161e-05
-0.000301236
0.000176089
-0.00064217
0.00032726
-0.00110309
0.000524926
-0.00167927
0.000757718
-0.00234662
0.00100611
-0.00306245
0.00124743
-0.00377597
0.001463
-0.00444458
0.00164315
-0.00504642
0.00178794
-0.00558284
0.00190421
-0.00607194
0.0020014
-0.0065386
0.00208817
-0.00700616
0.00217077
-0.00749227
0.00225302
-0.0080086
0.00233693
-0.00856255
0.00242347
-0.00915873
0.00251343
-0.00980056
-0.0104927
0.00260529
1.93472e-05
-9.09712e-05
8.05778e-05
-0.000362467
0.000188868
-0.000750461
0.000345486
-0.00125971
0.000544479
-0.00187826
0.000771026
-0.00257317
0.0010038
-0.00329522
0.00122125
-0.00399341
0.00140828
-0.0046316
0.00155953
-0.00519767
0.00167833
-0.00570163
0.0017729
-0.00616651
0.00185237
-0.00661807
0.00192416
-0.00707795
0.00199315
-0.00756126
0.00206208
-0.00807752
0.0021323
-0.00863277
0.00220444
-0.00923088
0.002279
-0.00987512
-0.0105684
0.00235464
2.11674e-05
-0.000112139
8.6664e-05
-0.000427964
0.000200075
-0.000863871
0.000360052
-0.00141968
0.000557285
-0.0020755
0.000774109
-0.00278999
0.000988527
-0.00350964
0.0011811
-0.00418599
0.00134061
-0.00479111
0.00146546
-0.00532253
0.00156132
-0.00579749
0.00163696
-0.00624214
0.00170073
-0.00668184
0.00175875
-0.00713597
0.00181471
-0.00761722
0.00187052
-0.00813333
0.00192706
-0.00868931
0.00198475
-0.00928856
0.00204382
-0.0099342
-0.0106277
0.00210317
2.28814e-05
-0.00013502
9.21013e-05
-0.000497183
0.000209355
-0.000981125
0.000370478
-0.00158081
0.000562989
-0.00226801
0.000767157
-0.00299416
0.000961361
-0.00370384
0.00112896
-0.00435359
0.00126251
-0.00492465
0.00136352
-0.00542354
0.00143914
-0.00587311
0.00149805
-0.00630106
0.0015476
-0.00673138
0.00159266
-0.00718103
0.00163593
-0.00766049
0.0016787
-0.00817611
0.00172154
-0.00873215
0.00176471
-0.00933172
0.00180825
-0.00997774
-0.0106707
0.00185122
2.44436e-05
-0.000159464
9.67276e-05
-0.000569467
0.00021641
-0.00110081
0.000376431
-0.00174083
0.000561514
-0.00245309
0.000750701
-0.00318335
0.000923633
-0.00387678
0.00106682
-0.00449678
0.00117626
-0.00503409
0.00125585
-0.00550313
0.00131352
-0.00593078
0.00135743
-0.00634497
0.0013938
-0.00676775
0.00142641
-0.00721365
0.00145718
-0.00769126
0.00148695
-0.00820588
0.00151606
-0.00876126
0.00154465
-0.00936031
0.00157262
-0.0100057
-0.0106973
0.00159918
2.58101e-05
-0.000185274
0.0001004
-0.000644057
0.000221009
-0.00122142
0.000377741
-0.00189756
0.000553027
-0.00262838
0.000725525
-0.00335585
0.000876798
-0.00402805
0.000996583
-0.00461656
0.00108386
-0.00512137
0.00114423
-0.0055635
0.00118583
-0.00597237
0.00121603
-0.00637517
0.00123994
-0.00679167
0.00126043
-0.00723413
0.00127879
-0.00770963
0.00129556
-0.00822265
0.00131091
-0.0087766
0.00132488
-0.00937428
0.00133728
-0.0100181
-0.0107075
0.00134745
2.69408e-05
-0.000212215
0.000103002
-0.000720118
0.000223001
-0.00134142
0.00037439
-0.00204895
0.000537908
-0.00279189
0.000692581
-0.00351052
0.000822334
-0.0041578
0.000920003
-0.00471423
0.00098703
-0.0051884
0.00103009
-0.00560655
0.0010571
-0.00599938
0.00107454
-0.00639261
0.00108649
-0.00680363
0.00109505
-0.00724269
0.00110106
-0.00771564
0.00110482
-0.00822641
0.00110638
-0.00877816
0.00110572
-0.00937362
0.00110257
-0.010015
-0.0107013
0.00109645
2.78011e-05
-0.000240016
0.000104444
-0.000796761
0.000222313
-0.00145928
0.000366503
-0.00219314
0.00051669
-0.00294208
0.000652905
-0.00364674
0.000761661
-0.00426656
0.000838631
-0.0047912
0.000887172
-0.00523694
0.000914527
-0.00563391
0.00092813
-0.00601299
0.000933497
-0.00639797
0.000933819
-0.00680395
0.000930565
-0.00723943
0.000924251
-0.00770932
0.000914993
-0.00821715
0.000902744
-0.00876591
0.000887433
-0.00935831
0.000868818
-0.00999635
-0.0106789
0.000846377
2.83631e-05
-0.000268379
0.000104674
-0.000873072
0.000218952
-0.00157356
0.000354323
-0.00232851
0.000490014
-0.00307777
0.000607554
-0.00376428
0.000696098
-0.0043551
0.000753809
-0.00484891
0.000785454
-0.00526859
0.000798441
-0.0056469
0.000799533
-0.00601408
0.000793322
-0.00639176
0.000782229
-0.00679286
0.000767243
-0.00722445
0.000748624
-0.00769071
0.000726355
-0.00819488
0.000700302
-0.00873986
0.000670322
-0.00932833
0.000636222
-0.00996224
-0.0106402
0.000597493
2.86064e-05
-0.000296985
0.000103667
-0.000948132
0.000212995
-0.00168289
0.000338182
-0.0024537
0.000458581
-0.00319817
0.000557556
-0.00386325
0.000626833
-0.00442438
0.000666677
-0.00488876
0.000682817
-0.00528473
0.000682519
-0.0056466
0.000671782
-0.00600334
0.000654345
-0.00637433
0.000631986
-0.0067705
0.000605325
-0.00719779
0.00057443
-0.00765981
0.000539172
-0.00815962
0.000499353
-0.00870004
0.000454759
-0.00928373
0.000405007
-0.00991249
-0.010585
0.000349888
2.85187e-05
-0.000325504
0.000101433
-0.00102105
0.000204578
-0.00178604
0.000318481
-0.0025676
0.00042311
-0.0033028
0.000503877
-0.00394402
0.000554911
-0.00447541
0.000578186
-0.00491203
0.000580015
-0.00528656
0.0005673
-0.00563388
0.00054525
-0.00598129
0.000516839
-0.00634591
0.000483326
-0.00673699
0.000445041
-0.0071595
0.000401911
-0.00761668
0.000353703
-0.00811141
0.00030016
-0.0086465
0.000241148
-0.00922472
0.000175859
-0.0098472
-0.0105123
0.000103122
2.80952e-05
-0.000353599
9.80097e-05
-0.00109096
0.000193885
-0.00188191
0.000295656
-0.00266937
0.00038431
-0.00339145
0.000447401
-0.00400711
0.000481233
-0.00450924
0.000489123
-0.00491992
0.000477649
-0.00527508
0.00045321
-0.00560944
0.000420237
-0.00594832
0.000381042
-0.00630672
0.000336466
-0.00669241
0.000286613
-0.00710965
0.00023129
-0.00756136
0.000170206
-0.00805033
0.000102908
-0.0085792
2.913e-05
-0.00915094
-5.01211e-05
-0.00976795
-0.0104226
-0.000139789
2.73391e-05
-0.000380938
9.34587e-05
-0.00115708
0.000181136
-0.00196959
0.000270161
-0.0027584
0.000342854
-0.00346415
0.000388916
-0.00405317
0.000406567
-0.00452689
0.000400128
-0.00491348
0.000376198
-0.00525115
0.000340583
-0.00557383
0.000296991
-0.00590473
0.00024716
-0.00625689
0.0001916
-0.00663685
0.000130235
-0.00704828
6.27104e-05
-0.00749383
-1.13055e-05
-0.00797631
-9.18927e-05
-0.00849861
-0.000179441
-0.0090634
-0.000275239
-0.00967215
-0.0103187
-0.00037913
2.62601e-05
-0.000407198
8.78614e-05
-0.00121868
0.000166572
-0.0020483
0.000242446
-0.00283427
0.000299368
-0.00352107
0.000329116
-0.00408292
0.000331558
-0.00452934
0.000311723
-0.00489365
0.000276043
-0.00521547
0.000229695
-0.00552748
0.000175715
-0.00585075
0.000115377
-0.00619655
4.88188e-05
-0.00657029
-2.40191e-05
-0.00697544
-0.000103331
-0.00741452
-0.000189797
-0.00788985
-0.000283898
-0.00840451
-0.000385801
-0.00896149
-0.000496637
-0.00956132
-0.0101995
-0.000615904
2.48737e-05
-0.000432072
8.1314e-05
-0.00127512
0.000150446
-0.00211743
0.000212947
-0.00289677
0.000254419
-0.00356254
0.000268602
-0.0040971
0.000256742
-0.00451748
0.000224327
-0.00486123
0.000177485
-0.00516863
0.000120775
-0.00547077
5.65222e-05
-0.0057865
-1.43313e-05
-0.0061257
-9.14171e-05
-0.00649321
-0.000175394
-0.00689147
-0.000266736
-0.00732318
-0.000365819
-0.00779076
-0.000473177
-0.00829715
-0.000589269
-0.0088454
-0.000714779
-0.00943581
-0.0100647
-0.000849545
2.32006e-05
-0.000455272
7.39227e-05
-0.00132584
0.00013301
-0.00217652
0.000182076
-0.00294584
0.000208516
-0.00358898
0.000207888
-0.00409647
0.000182563
-0.00449215
0.000138279
-0.00481695
8.07615e-05
-0.00511111
1.38103e-05
-0.00540382
-6.02536e-05
-0.00571243
-0.000141122
-0.00604483
-0.000229055
-0.00640527
-0.000324287
-0.00679624
-0.000427397
-0.00722007
-0.000538912
-0.00767925
-0.000659393
-0.00817667
-0.000789428
-0.00871537
-0.000929491
-0.00929575
-0.00991464
-0.00107956
2.1265e-05
-0.000476537
6.57996e-05
-0.00137038
0.000114514
-0.00222523
0.000150211
-0.00298153
0.00016211
-0.00360088
0.000147409
-0.00408177
0.000109388
-0.00445413
5.38398e-05
-0.0047614
-1.40093e-05
-0.00504326
-9.04766e-05
-0.00532735
-0.00017446
-0.00562845
-0.000265539
-0.00595375
-0.000364027
-0.00630678
-0.000470347
-0.00668991
-0.000585075
-0.00710534
-0.000708833
-0.00755549
-0.000842266
-0.00804324
-0.00098603
-0.0085716
-0.00114052
-0.00914125
-0.00974951
-0.00130565
1.90948e-05
-0.000495632
5.70598e-05
-0.00140834
9.51995e-05
-0.00226337
0.000117703
-0.00300404
0.000115589
-0.00359876
8.75335e-05
-0.00405372
3.75179e-05
-0.00440411
-2.87319e-05
-0.00469515
-0.000106274
-0.00496572
-0.00019245
-0.00524118
-0.000286127
-0.00553477
-0.000387233
-0.00585264
-0.000496142
-0.00619788
-0.000613379
-0.00657268
-0.000739559
-0.00697916
-0.000875368
-0.00741968
-0.00102154
-0.00789707
-0.00117881
-0.00841432
-0.00134757
-0.0089725
-0.00956958
-0.00152749
1.67211e-05
-0.000512353
4.78182e-05
-0.00143944
7.52948e-05
-0.00229085
8.48664e-05
-0.00301361
6.9296e-05
-0.00358319
2.86088e-05
-0.00401303
-3.27914e-05
-0.00434271
-0.00010921
-0.00461873
-0.000196341
-0.00487859
-0.000291886
-0.00514563
-0.000395088
-0.00543157
-0.000506052
-0.00574168
-0.000625231
-0.0060787
-0.000753212
-0.0064447
-0.000890657
-0.00684172
-0.0010383
-0.00727203
-0.00119697
-0.0077384
-0.00136753
-0.00824376
-0.00155035
-0.00878968
-0.00937514
-0.00174479
1.41797e-05
-0.000526533
3.81866e-05
-0.00146345
5.50167e-05
-0.00230768
5.1985e-05
-0.00301058
2.36285e-05
-0.00355484
-2.91961e-05
-0.00396021
-0.000101379
-0.00427053
-0.000187571
-0.00453254
-0.000283955
-0.00478221
-0.000388657
-0.00504093
-0.000501211
-0.00531902
-0.000621864
-0.00562103
-0.000751142
-0.00594942
-0.000889681
-0.00630616
-0.00103819
-0.00669321
-0.00119744
-0.00711278
-0.00136834
-0.0075675
-0.00155192
-0.00806018
-0.00174859
-0.00859301
-0.00916649
-0.00195724
1.1521e-05
-0.000538054
2.82928e-05
-0.00148022
3.45639e-05
-0.00231395
1.94179e-05
-0.00299543
-2.14191e-05
-0.003514
-8.56803e-05
-0.00389595
-0.000168097
-0.00418811
-0.000263659
-0.00443698
-0.000369008
-0.00467686
-0.000482658
-0.00492728
-0.000604381
-0.00519729
-0.000734542
-0.00549086
-0.00087373
-0.00581023
-0.00102262
-0.00615726
-0.00118197
-0.00653387
-0.00135258
-0.00694217
-0.00153545
-0.00738463
-0.00173178
-0.00786385
-0.00194204
-0.00838275
-0.00894402
-0.00216451
8.79829e-06
-0.000546852
1.82446e-05
-0.00148967
1.41714e-05
-0.00230988
-1.28707e-05
-0.00296839
-6.5676e-05
-0.0034612
-0.000140666
-0.00382095
-0.000232808
-0.00409597
-0.000337365
-0.00433242
-0.000451408
-0.00456281
-0.000573794
-0.00480489
-0.000704492
-0.0050666
-0.000843965
-0.00535139
-0.000992856
-0.00566134
-0.00115189
-0.00599823
-0.00132183
-0.00636392
-0.00150354
-0.00676046
-0.00169808
-0.00719009
-0.00190684
-0.00765509
-0.00213039
-0.00815919
-0.00870813
-0.00236628
5.96348e-06
-0.000552816
8.08225e-06
-0.00149178
-6.05413e-06
-0.00229574
-4.5022e-05
-0.00292942
-0.000108792
-0.00339743
-0.000193995
-0.00373575
-0.000295401
-0.00399457
-0.000408602
-0.00421922
-0.000531075
-0.00444034
-0.000661977
-0.00467399
-0.000801441
-0.00492713
-0.000950013
-0.00520282
-0.00110839
-0.00550297
-0.00127732
-0.0058293
-0.00145762
-0.00618363
-0.00165015
-0.00656793
-0.00185604
-0.0069842
-0.00207685
-0.00743429
-0.00231338
-0.00792266
-0.00845879
-0.00256272
2.99484e-06
-0.000555811
-1.98628e-06
-0.0014868
-2.67154e-05
-0.00227101
-7.63103e-05
-0.00287983
-0.000150653
-0.00332308
-0.000245547
-0.00364086
-0.000355783
-0.00388433
-0.000477294
-0.00409771
-0.000607936
-0.0043097
-0.000747124
-0.0045348
-0.00089513
-0.00477913
-0.00105257
-0.00504538
-0.00122019
-0.00533535
-0.00139877
-0.00565071
-0.00158917
-0.00599323
-0.00179227
-0.00636483
-0.00200923
-0.00676724
-0.00224167
-0.00720185
-0.00249078
-0.00767355
-0.00819593
-0.00275364
-3.71407e-07
-0.000555439
-1.24845e-05
-0.00147469
-4.67074e-05
-0.00223679
-0.000106743
-0.00281979
-0.000191136
-0.00323869
-0.000295225
-0.00353677
-0.000413877
-0.00376568
-0.000543377
-0.00396821
-0.000681922
-0.00417115
-0.000829154
-0.00438757
-0.000985463
-0.00462282
-0.00115153
-0.00487931
-0.00132813
-0.00515875
-0.00151611
-0.00546274
-0.00171633
-0.00579301
-0.00192976
-0.00615139
-0.00215762
-0.00653938
-0.00240138
-0.00695809
-0.00266164
-0.0074133
-0.00792088
-0.00293668
-3.13775e-06
-0.000552302
-2.2624e-05
-0.0014552
-6.61946e-05
-0.00219322
-0.000136212
-0.00274977
-0.000230145
-0.00314476
-0.000342948
-0.00342397
-0.000469623
-0.003639
-0.000606792
-0.00383104
-0.00075297
-0.00402498
-0.000907993
-0.00423255
-0.00107235
-0.00445846
-0.00124677
-0.00470489
-0.00143208
-0.00497344
-0.00162916
-0.00526566
-0.00183892
-0.00558325
-0.00206244
-0.00592788
-0.00230099
-0.00630082
-0.00255592
-0.00670317
-0.00282903
-0.00714018
-0.00764157
-0.00310834
-6.1027e-06
-0.000546199
-3.25384e-05
-0.00142877
-8.51244e-05
-0.00214063
-0.000164643
-0.00267025
-0.0002676
-0.0030418
-0.000388653
-0.00330291
-0.000522965
-0.00350469
-0.000667489
-0.00368652
-0.000821021
-0.00387144
-0.000983567
-0.00407
-0.0011557
-0.00428633
-0.0013382
-0.00452239
-0.00153193
-0.00477971
-0.00173779
-0.0050598
-0.00195679
-0.00536426
-0.00219005
-0.00569461
-0.00243884
-0.00605204
-0.0027033
-0.00643871
-0.00298172
-0.00686176
-0.00732427
-0.00329902
-9.05465e-06
-0.000537144
-4.22083e-05
-0.00139561
-0.000103428
-0.00207941
-0.000191959
-0.00258172
-0.000303436
-0.00293032
-0.000432288
-0.00317406
-0.000573861
-0.00336312
-0.000725421
-0.00353496
-0.00088602
-0.00371085
-0.00105581
-0.00390021
-0.00123543
-0.00410671
-0.00142571
-0.00433211
-0.00162754
-0.00457787
-0.00184189
-0.00484545
-0.00206978
-0.00513636
-0.00231238
-0.00545201
-0.00257059
-0.00579382
-0.0028446
-0.0061647
-0.00313717
-0.00656919
-0.00700192
-0.00345953
-1.19523e-05
-0.000525192
-5.15916e-05
-0.00135598
-0.000121044
-0.00200996
-0.000218096
-0.00248467