/*--------------------------------*- C++ -*----------------------------------*\
  =========                 |
  \\      /  F ield         | OpenFOAM: The Open Source CFD Toolbox
   \\    /   O peration     | Website:  https://openfoam.org
    \\  /    A nd           | Version:  7
     \\/     M anipulation  |
\*---------------------------------------------------------------------------*/
FoamFile
{
    version     2.0;
    format      ascii;
    class       surfaceScalarField;
    location    "116.999848";
    object      phi;
}
// * * * * * * * * * * * * * * * * * * * * * * * * * * * * * * * * * * * * * //

dimensions      [0 3 -1 0 0 0 0];

internalField   nonuniform List<scalar> 
11411
(
-5.36061e-06
5.6106e-06
-1.96934e-05
-2.8041e-06
-4.23018e-05
-2.96749e-05
-7.26752e-05
-7.31661e-05
-0.000110447
-0.000130691
-0.000155337
-0.000199787
-0.000207059
-0.000279048
-0.000265216
-0.000368964
-0.000329231
-0.000472321
-0.000593988
-4.17731e-05
-1.32653e-07
-0.000144097
-2.28371e-06
-0.00028942
-5.32334e-06
-0.000462798
-8.36648e-06
-0.000653809
-1.09174e-05
-0.000856721
-1.29329e-05
-0.00106934
-1.465e-05
-0.00129145
-1.63367e-05
-0.0015237
-1.81508e-05
-0.00176699
-2.0145e-05
-2.2323e-05
-4.18102e-05
4.16775e-05
-0.000144209
0.000100115
-0.000289621
0.000140088
-0.000463086
0.000165099
-0.000654178
0.000180174
-0.000857165
0.000190054
-0.00106985
0.000198037
-0.00129204
0.000205848
-0.00152435
0.000214163
-0.00176771
0.00022321
-0.00202312
0.00023309
-0.00229169
0.0002439
-0.00257461
0.000255739
-0.00287314
0.000268721
-0.00318863
0.00028297
-0.00352255
0.000298636
-0.00387644
0.000315893
-0.0042519
0.000334851
-0.00465045
0.000355489
0.000378152
-0.00507379
-4.16469e-05
8.33244e-05
-0.000143726
0.000202194
-0.000288769
0.000285132
-0.000461878
0.000338208
-0.000652637
0.000370933
-0.000855308
0.000392725
-0.00106768
0.000410412
-0.00128955
0.000427712
-0.00152153
0.000446146
-0.00176454
0.000466218
-0.00201959
0.000488142
-0.00228778
0.000512093
-0.0025703
0.000538257
-0.00286841
0.000566829
-0.00318346
0.000598023
-0.00351691
0.000632087
-0.00387032
0.000669298
-0.00424527
0.000709808
-0.00464329
0.000753509
0.000801067
-0.00506621
-4.1284e-05
0.000124608
-0.000142647
0.000303557
-0.000286868
0.000429353
-0.000459175
0.000510515
-0.000649189
0.000560947
-0.000851154
0.00059469
-0.00106283
0.000622089
-0.00128399
0.000648867
-0.00151524
0.000677397
-0.00175749
0.000708468
-0.00201175
0.000742405
-0.00227912
0.000779464
-0.00256078
0.000819915
-0.00285799
0.000864038
-0.0031721
0.000912132
-0.00350455
0.000964544
-0.00385691
0.00102166
-0.00423077
0.00108367
-0.00462767
0.00115041
0.00122276
-0.00504937
-4.07227e-05
0.000165331
-0.000140978
0.000403812
-0.000283919
0.000572294
-0.00045498
0.000681575
-0.000643836
0.000749803
-0.000844705
0.000795559
-0.0010553
0.000832687
-0.00127536
0.000868926
-0.00150548
0.000907519
-0.00174656
0.000949549
-0.00199961
0.000995454
-0.00226572
0.00104557
-0.00254606
0.00110025
-0.00284189
0.00115987
-0.00315456
0.0012248
-0.00348549
0.00129548
-0.00383626
0.00137242
-0.00420845
0.00145586
-0.00460362
0.00154559
0.00164266
-0.00502353
-3.99651e-05
0.000205296
-0.00013872
0.000502567
-0.000279928
0.000713502
-0.000449297
0.000850944
-0.000636582
0.000937088
-0.000835966
0.000994943
-0.0010451
0.00104182
-0.00126368
0.0010875
-0.00149228
0.00113612
-0.00173178
0.00118905
-0.00198319
0.00124687
-0.0022476
0.00130998
-0.00252616
0.00137882
-0.00282014
0.00145384
-0.00313086
0.00153552
-0.00345976
0.00162438
-0.00380837
0.00172103
-0.00417831
0.0018258
-0.00457115
0.00193843
0.0020601
-0.00498859
-3.9014e-05
0.00024431
-0.000135879
0.000599433
-0.0002749
0.000852523
-0.000442132
0.00101818
-0.000627433
0.00112239
-0.000824943
0.00119245
-0.00103224
0.00124912
-0.00124895
0.00130422
-0.00147563
0.0013628
-0.00171315
0.00142657
-0.00196251
0.00149622
-0.00222478
0.00157225
-0.00250111
0.00165515
-0.00279276
0.00174549
-0.00310103
0.0018438
-0.00342737
0.00195071
-0.00377328
0.00206695
-0.00414039
0.00219291
-0.00453029
0.00232833
0.0024744
-0.0049446
-3.78727e-05
0.000282183
-0.000132463
0.000694023
-0.000268842
0.000988902
-0.000433492
0.00118283
-0.000616394
0.00130529
-0.000811643
0.0013877
-0.00101672
0.0014542
-0.00123119
0.00151868
-0.00145556
0.00158717
-0.0016907
0.00166171
-0.00193758
0.00174311
-0.00219728
0.00183194
-0.00247093
0.00192881
-0.00275977
0.00203433
-0.00306512
0.00214914
-0.00338837
0.00227397
-0.00373104
0.00240961
-0.00409474
0.00255661
-0.00448109
0.00271468
0.00288491
-0.0048916
-3.65454e-05
0.000318728
-0.000128479
0.000785957
-0.000261765
0.00112219
-0.000423385
0.00134445
-0.000603474
0.00148538
-0.000796075
0.0015803
-0.00099856
0.00165668
-0.00121041
0.00173053
-0.00143209
0.00180885
-0.00166444
0.00189406
-0.00190844
0.00198711
-0.00216513
0.00208864
-0.00243566
0.00219934
-0.00272124
0.0023199
-0.00302316
0.00245106
-0.00334282
0.00259362
-0.0036817
0.0027485
-0.00404142
0.00291633
-0.00442359
0.00309685
0.00329098
-0.00482966
-3.50369e-05
0.000353765
-0.000123936
0.000874856
-0.000253678
0.00125193
-0.000411821
0.00150259
-0.000588681
0.00166224
-0.000778247
0.00176987
-0.000977767
0.0018562
-0.00118662
0.00193938
-0.00140522
0.00202745
-0.0016344
0.00212324
-0.00187511
0.00222781
-0.00212838
0.00234191
-0.00239535
0.0024663
-0.00267719
0.00260175
-0.00297521
0.00274908
-0.00329076
0.00290917
-0.00362532
0.00308306
-0.00398049
0.00327151
-0.0043579
0.00347425
0.00369195
-0.00475887
-3.3353e-05
0.000387118
-0.000118847
0.00096035
-0.000244594
0.00137768
-0.00039881
0.00165681
-0.000572025
0.00183545
-0.000758172
0.00195602
-0.000954357
0.00205239
-0.00115985
0.00214487
-0.001375
0.00224261
-0.00160062
0.00234886
-0.00183763
0.00246483
-0.00208707
0.00259135
-0.00235003
0.00272926
-0.0026277
0.00287942
-0.00292133
0.00304271
-0.00323227
0.00322011
-0.00356198
0.00341276
-0.00391205
0.00362158
-0.00428409
0.00384629
0.00408721
-0.00467935
-3.15001e-05
0.000418618
-0.000113223
0.00104207
-0.000234529
0.00149898
-0.000384367
0.00180664
-0.000553517
0.00200461
-0.000735859
0.00213836
-0.000928344
0.00224487
-0.00113011
0.00234663
-0.00134145
0.00245395
-0.00156312
0.00257053
-0.00179605
0.00269776
-0.00204124
0.00283654
-0.00229978
0.00298779
-0.00257281
0.00315245
-0.00286159
0.00333149
-0.00316744
0.00352596
-0.00349177
0.00373709
-0.00383618
0.00396599
-0.00420229
0.0042124
0.00447616
-0.00459124
-2.94854e-05
0.000448104
-0.000107079
0.00111967
-0.000223498
0.0016154
-0.000368506
0.00195165
-0.000533171
0.00216927
-0.000711324
0.00231651
-0.000899747
0.00243329
-0.00109743
0.00254432
-0.00130459
0.00266112
-0.00152195
0.00278789
-0.00175041
0.00292621
-0.00199095
0.00307708
-0.00224464
0.00324148
-0.00251261
0.00342043
-0.00279608
0.00361496
-0.00309633
0.00382621
-0.00341478
0.00405554
-0.00375299
0.0043042
-0.00411261
0.00457202
0.00485824
-0.00449469
-2.73171e-05
0.000475421
-0.000100433
0.00119278
-0.000211522
0.00172649
-0.000351244
0.00209137
-0.000511001
0.00232903
-0.000684581
0.00249009
-0.000868583
0.0026173
-0.00106184
0.00273757
-0.00126447
0.00286374
-0.00147715
0.00300057
-0.00170076
0.00314982
-0.00193626
0.00331258
-0.00218469
0.00348991
-0.00244717
0.0036829
-0.00272487
0.00389266
-0.00301906
0.0041204
-0.00333111
0.00436758
-0.0036626
0.00463569
-0.00401519
0.00492461
0.00523293
-0.00438987
-2.50043e-05
0.000500425
-9.33024e-05
0.00126108
-0.000198622
0.00183181
-0.000332601
0.00222535
-0.000487024
0.00248345
-0.000655645
0.00265871
-0.000834871
0.00279652
-0.00102335
0.00292606
-0.0012211
0.00306149
-0.00142875
0.00320822
-0.00164714
0.00336822
-0.00187723
0.00354267
-0.00212
0.00373269
-0.00237657
0.00393946
-0.00264807
0.00416417
-0.00293573
0.00440806
-0.00324088
0.00467273
-0.00356512
0.00495993
-0.00391017
0.00526966
0.00559973
-0.00427697
-2.25568e-05
0.000522982
-8.57092e-05
0.00132423
-0.000184823
0.00193092
-0.000312601
0.00235313
-0.000461258
0.00263211
-0.000624536
0.00282199
-0.000798634
0.00297062
-0.000982005
0.00310943
-0.00117454
0.00325403
-0.00137681
0.00341049
-0.00158963
0.00358104
-0.00181392
0.00376695
-0.00205066
0.00396943
-0.0023009
0.00418971
-0.00256578
0.00442905
-0.00284646
0.00468875
-0.00314421
0.00497048
-0.00346065
0.00527637
-0.00379767
0.00560668
0.00595825
-0.00415619
-1.99857e-05
0.000542967
-7.76769e-05
0.00138192
-0.000170155
0.0020234
-0.000291269
0.00247424
-0.000433725
0.00277456
-0.000591271
0.00297954
-0.000759894
0.00313924
-0.000937825
0.00328736
-0.00112482
0.00344102
-0.00132138
0.00360705
-0.00152828
0.00378794
-0.00174642
0.00398509
-0.00197675
0.00419975
-0.00222028
0.00443324
-0.00247812
0.00468689
-0.0027514
0.00496202
-0.00304127
0.00526035
-0.00334934
0.00558443
-0.00367783
0.00593518
0.00630814
-0.00402773
-1.73028e-05
0.00056027
-6.92324e-05
0.00143385
-0.000154649
0.00210882
-0.000268634
0.00258823
-0.000404449
0.00291038
-0.000555873
0.00313096
-0.000718675
0.00330205
-0.000890845
0.00345953
-0.00107198
0.00362216
-0.00126251
0.00379758
-0.00146316
0.0039886
-0.00167481
0.00419673
-0.00189835
0.0044233
-0.00213479
0.00466968
-0.0023852
0.00493729
-0.00265065
0.00522748
-0.00293216
0.00554186
-0.00323116
0.00588344
-0.00355052
0.00625453
0.0066494
-0.00389178
-1.4521e-05
0.000574791
-6.04056e-05
0.00147974
-0.000138344
0.00218676
-0.000244732
0.00269462
-0.000373458
0.0030391
-0.000518366
0.00327587
-0.000675002
0.00345868
-0.000841097
0.00362562
-0.00101607
0.00379713
-0.00120025
0.00398176
-0.00139434
0.00418269
-0.00159916
0.00440155
-0.00181559
0.00463973
-0.00204457
0.00489867
-0.00228716
0.00517988
-0.00254444
0.00548476
-0.00281731
0.00581474
-0.00310672
0.00617284
-0.00341605
0.00656387
0.00698227
-0.00374892
-1.16542e-05
0.000586445
-5.12302e-05
0.00151931
-0.00012128
0.00225681
-0.000219601
0.00279294
-0.000340783
0.00316029
-0.000478776
0.00341386
-0.000628904
0.00360881
-0.000788616
0.00378533
-0.000957131
0.00396565
-0.00113468
0.0041593
-0.00132189
0.00436991
-0.00151956
0.00459922
-0.00172854
0.00484871
-0.00194973
0.00511985
-0.0021841
0.00541426
-0.00243276
0.00573342
-0.00269654
0.00607851
-0.00297541
0.00645171
-0.00327217
0.00686063
0.00730869
-0.00359859
-8.7183e-06
0.000595164
-4.17433e-05
0.00155234
-0.000103505
0.00231857
-0.000193287
0.00288272
-0.000306463
0.00327346
-0.000437134
0.00354453
-0.000580411
0.00375209
-0.00073344
0.00393836
-0.000895215
0.00412742
-0.00106584
0.00432993
-0.00124589
0.00454996
-0.00143612
0.00478945
-0.00163733
0.00504992
-0.00185039
0.00533291
-0.00207623
0.00564009
-0.00231595
0.00597314
-0.00257075
0.00633331
-0.00284061
0.00672157
-0.00312323
0.00714326
0.00763051
-0.00344506
-5.73459e-06
0.000600898
-3.19853e-05
0.00157859
-8.50702e-05
0.00237165
-0.000165842
0.00296349
-0.00027054
0.00337816
-0.000393475
0.00366747
-0.000529556
0.00388817
-0.000675608
0.00408441
-0.000830369
0.00428218
-0.000993801
0.00449336
-0.00116641
0.00472257
-0.00134891
0.00497195
-0.00154207
0.00524308
-0.00174671
0.00553755
-0.0019637
0.00585708
-0.00219406
0.0062035
-0.00243904
0.00657829
-0.00269994
0.00698247
-0.00297847
0.00742179
0.00791196
-0.00325993
-2.75505e-06
0.000603653
-2.19915e-05
0.00159783
-6.60309e-05
0.00241569
-0.000137325
0.00303479
-0.000233064
0.0034739
-0.000347838
0.00378224
-0.000476375
0.00401671
-0.000615159
0.0042232
-0.000762646
0.00442967
-0.000918634
0.00464935
-0.00108355
0.00488749
-0.00125805
0.00514645
-0.00144287
0.0054279
-0.0016388
0.00573348
-0.00184664
0.00606493
-0.00206731
0.00642417
-0.00230197
0.00681295
-0.002552
0.0072325
-0.00281776
0.00768755
0.00819114
-0.00309693
8.2372e-09
0.000603645
-1.17633e-05
0.0016096
-4.64475e-05
0.00245038
-0.000107804
0.00309614
-0.000194095
0.00356019
-0.000300274
0.00388842
-0.000420911
0.00413734
-0.000552139
0.00435443
-0.000692102
0.00456963
-0.000840404
0.00479765
-0.00099738
0.00504446
-0.00116363
0.0053127
-0.00133985
0.00560412
-0.00152679
0.00592041
-0.00172521
0.00626335
-0.00193595
0.00663492
-0.00216009
0.00703708
-0.00239908
0.00747149
-0.00265388
0.00794235
0.00845882
-0.00292157
3.48529e-06
0.00060016
-1.06203e-06
0.00161415
-2.63581e-05
0.00247567
-7.73393e-05
0.00314712
-0.000153703
0.00363655
-0.000250838
0.00398556
-0.000363211
0.00424972
-0.000486596
0.00447781
-0.000618792
0.00470183
-0.000759184
0.00493804
-0.000907993
0.00519327
-0.00106576
0.00547047
-0.00123314
0.0057715
-0.00141083
0.0060981
-0.00159958
0.00645209
-0.00180017
0.00683551
-0.00201363
0.00725054
-0.00224137
0.00769924
-0.00248401
0.00818498
0.00871345
-0.00273864
6.45041e-06
0.000593709
8.93091e-06
0.00161166
-5.53728e-06
0.00249014
-4.60396e-05
0.00318763
-0.000111978
0.00370249
-0.000199601
0.00407318
-0.000303331
0.00435345
-0.000418582
0.00459306
-0.000542776
0.00482602
-0.000675046
0.00507031
-0.000815479
0.00533371
-0.000964551
0.00561954
-0.00112286
0.00592982
-0.00129108
0.00626632
-0.0014699
0.00663092
-0.0016601
0.00702571
-0.00186264
0.00745308
-0.00207876
0.00791535
-0.00230889
0.00841512
0.00895518
-0.00255061
9.30561e-06
0.000584404
1.91599e-05
0.00160181
1.46685e-05
0.00249463
-1.38824e-05
0.00321618
-6.90321e-05
0.00375764
-0.000146654
0.0041508
-0.00024134
0.00444813
-0.000348157
0.00469988
-0.000464118
0.00494199
-0.000588066
0.00519426
-0.000719931
0.00546557
-0.000860108
0.00575972
-0.00100915
0.00607886
-0.00116767
0.00642484
-0.00133635
0.00679959
-0.00151591
0.00720527
-0.00170723
0.00764439
-0.00191137
0.00811949
-0.00212869
0.00863244
0.00918401
-0.00235752
1.20687e-05
0.000572335
2.92738e-05
0.00158461
3.51159e-05
0.00248879
1.84144e-05
0.00323288
-2.49758e-05
0.00380103
-9.21015e-05
0.00421793
-0.00017732
0.00453335
-0.000275389
0.00479795
-0.000382888
0.00504948
-0.000498325
0.0053097
-0.000621444
0.00558869
-0.000752546
0.00589082
-0.000892126
0.00621844
-0.00104076
0.00657347
-0.00119907
0.00695791
-0.00136776
0.00737395
-0.00154759
0.00782423
-0.00173947
0.00831137
-0.00194369
0.00883666
0.00939951
-0.0021592
1.47339e-05
0.000557601
3.92435e-05
0.0015601
5.5652e-05
0.00247238
5.09359e-05
0.00323759
1.9937e-05
0.00383203
-3.60881e-05
0.00427395
-0.000111369
0.00460863
-0.000200355
0.00488693
-0.000299158
0.00514829
-0.000405904
0.00541644
-0.000520116
0.0057029
-0.000641981
0.00601269
-0.000771932
0.00634839
-0.000910492
0.00671203
-0.00105825
0.00710566
-0.00121583
0.00753154
-0.00138394
0.00799234
-0.00156331
0.00849075
-0.00175421
0.00902756
0.0096013
-0.00195599
1.73086e-05
0.000540293
4.89814e-05
0.00152842
7.60546e-05
0.00244531
8.38462e-05
0.0032298
6.53654e-05
0.00385051
2.12555e-05
0.00431806
-4.3602e-05
0.00467349
-0.000123149
0.00496648
-0.00021301
0.00523815
-0.000310892
0.00551432
-0.000416051
0.00580806
-0.000528535
0.00612517
-0.000648703
0.00646856
-0.000777028
0.00684036
-0.000914044
0.00724268
-0.00106032
0.00767782
-0.00121648
0.00814849
-0.00138312
0.00865738
-0.00156049
0.00920492
0.00978908
-0.00174827
1.97282e-05
0.000520564
5.8363e-05
0.00148979
9.61404e-05
0.00240753
0.00011678
0.00320916
0.000111524
0.00385577
7.9675e-05
0.00434991
2.58391e-05
0.00472733
-4.39018e-05
0.00503622
-0.000124545
0.00531879
-0.000213379
0.00560316
-0.000309357
0.00590404
-0.000412331
0.00622814
-0.000522582
0.00657881
-0.000640529
0.00695831
-0.000766646
0.00736879
-0.000901443
0.00781261
-0.00104544
0.00829249
-0.00119914
0.00881108
-0.0013628
0.00936859
0.00996261
-0.00153634
2.19541e-05
0.00049861
6.7275e-05
0.00144447
0.000115705
0.0023591
0.000149475
0.00317539
0.000157994
0.00384725
0.000139125
0.00436878
9.68361e-05
0.00476961
3.73408e-05
0.00509572
-3.39333e-05
0.00539006
-0.000113478
0.0056827
-0.000200155
0.00599072
-0.000293498
0.00632149
-0.000393717
0.00667903
-0.000501163
0.00706575
-0.000616241
0.00748387
-0.000739395
0.00793577
-0.000871056
0.00842415
-0.00101164
0.00895167
-0.00116145
0.0095184
0.0101217
-0.00132051
2.39552e-05
0.000474655
7.56085e-05
0.00139281
0.00013453
0.00230018
0.000181641
0.00312828
0.000204466
0.00382442
0.000199261
0.00437398
0.000169176
0.0047997
0.000120448
0.00514444
5.89375e-05
0.00545158
-1.15271e-05
0.00575317
-8.85883e-05
0.00606778
-0.000172186
0.00640508
-0.000262257
0.0067691
-0.000359107
0.0071626
-0.000463023
0.00758779
-0.000574403
0.00804715
-0.000693578
0.00854333
-0.000820901
0.00907899
-0.000956734
0.00965424
0.010266
-0.00110111
2.57036e-05
0.000448952
8.32525e-05
0.00133527
0.000152388
0.00223104
0.000212953
0.00306772
0.000250589
0.00378679
0.000259762
0.00436481
0.000242588
0.00481687
0.000205159
0.00518187
0.000153826
0.00550291
9.31174e-05
0.00581387
2.52342e-05
0.00613566
-4.86119e-05
0.00647893
-0.000128381
0.00684887
-0.000214562
0.00724878
-0.000307188
0.00768041
-0.0004067
0.00814666
-0.00051327
0.0086499
-0.000627188
0.00919291
-0.000748958
0.00977601
0.0103955
-0.000878446
2.71749e-05
0.000421777
9.00975e-05
0.00127234
0.000169043
0.0021521
0.000243058
0.0029937
0.000295957
0.00373389
0.000320246
0.00434052
0.000316763
0.00482036
0.000291266
0.00520737
0.000250485
0.00554369
0.000199588
0.00586477
0.000141512
0.00619374
7.73854e-05
0.00654306
7.45151e-06
0.0069188
-6.77724e-05
0.00732401
-0.000148971
0.00776161
-0.000236538
0.00823423
-0.000330405
0.00874376
-0.000430765
0.00929327
-0.000538404
0.00988365
0.01051
-0.000652881
2.83482e-05
0.000393428
9.60386e-05
0.00120465
0.00018425
0.00206389
0.000271574
0.00290638
0.000340108
0.00366535
0.000380258
0.00430037
0.000391319
0.0048093
0.000378481
0.00522021
0.000348744
0.00557343
0.000307938
0.00590558
0.000259644
0.00624203
0.00020552
0.00659718
0.000146142
0.00697818
8.13687e-05
0.00738878
1.11561e-05
0.00783183
-6.42063e-05
0.00830959
-0.000145313
0.00882487
-0.000232021
0.00937998
-0.000325324
0.00997695
0.0106095
-0.000424793
2.92068e-05
0.000364222
0.000100979
0.00113288
0.000197763
0.0019671
0.00029809
0.00280605
0.000382523
0.00358092
0.000439266
0.00424363
0.000465793
0.00478277
0.000466453
0.00521955
0.00044836
0.00559152
0.00041799
0.00593595
0.000379639
0.00628038
0.000335499
0.00664132
0.000286404
0.00702727
0.000232548
0.00744264
0.00017395
0.00789042
0.000110378
0.00837316
4.17949e-05
0.00889345
-3.17689e-05
0.00945354
-0.000109565
0.0100547
0.0106947
-0.000194811
2.97391e-05
0.000334483
0.000104833
0.00105779
0.000209344
0.00186259
0.000322176
0.00269322
0.000422628
0.00348047
0.000496654
0.0041696
0.00053963
0.00473979
0.000554747
0.00520443
0.000549021
0.00559725
0.000529521
0.00595545
0.000501317
0.00630859
0.000467219
0.00667542
0.000428444
0.00706605
0.000385396
0.00748568
0.000338165
0.00793766
0.000286737
0.00842459
0.00023111
0.00894908
0.000171371
0.00951328
0.000107283
0.0101188
0.0107651
3.68796e-05
2.99396e-05
0.000304543
0.000107532
0.000980194
0.000218768
0.00175136
0.000343391
0.0025686
0.000459795
0.00336406
0.000551714
0.00407768
0.000612167
0.00467934
0.000642826
0.00517377
0.000650337
0.00558973
0.000642258
0.00596352
0.000624473
0.00632637
0.000600514
0.00669938
0.000572069
0.00709449
0.00053979
0.00751796
0.000503919
0.00797353
0.000464547
0.00846396
0.000421729
0.0089919
0.00037553
0.00955948
0.000325796
0.0101686
0.010818
0.000272905
2.98099e-05
0.000274733
0.00010903
0.000900974
0.000225838
0.00163455
0.000361303
0.00243313
0.000493358
0.00323201
0.000603649
0.00396739
0.000682619
0.00460037
0.00073003
0.00512636
0.000751821
0.00556794
0.000755865
0.00595948
0.00074887
0.00633337
0.000735186
0.00671306
0.000717083
0.0071126
0.00069554
0.00753951
0.000670979
0.00799809
0.000643595
0.00849135
0.000613533
0.00902196
0.000580918
0.00959209
0.000545861
0.0102036
0.0108556
0.000508262
2.93588e-05
0.000245374
0.000109304
0.000821029
0.000230396
0.00151346
0.000375501
0.00228803
0.000522622
0.00308489
0.000651574
0.00383844
0.000750068
0.00450188
0.000815557
0.00506087
0.000852856
0.00553065
0.000869914
0.00594242
0.000874212
0.00632907
0.000871012
0.00671626
0.000863282
0.00712033
0.000852433
0.00755035
0.000839107
0.00801141
0.000823634
0.00850682
0.000806259
0.00903933
0.000787194
0.00961116
0.000766529
0.0102243
0.0108781
0.000744048
2.86027e-05
0.000216771
0.000108362
0.00074127
0.000232339
0.00138948
0.000385623
0.00213474
0.000546896
0.00292362
0.000694533
0.0036908
0.000813465
0.00438294
0.000898441
0.0049759
0.000952678
0.00547641
0.000983862
0.00591124
0.00100013
0.0063128
0.00100773
0.00670867
0.00101045
0.00711761
0.00101025
0.00755056
0.00100807
0.00801359
0.0010044
0.00851048
0.000999604
0.00904413
0.000993968
0.0096168
0.000987591
0.0102307
0.0108854
0.000980234
2.75656e-05
0.000189206
0.000106242
0.000662594
0.000231622
0.0012641
0.000391381
0.00197498
0.00056552
0.00274948
0.000731519
0.0035248
0.000871625
0.00424284
0.000977534
0.00486999
0.00105034
0.00540361
0.00109701
0.00586456
0.00112617
0.00628365
0.00114502
0.00668982
0.00115833
0.00710429
0.00116876
0.00754013
0.00117762
0.00800474
0.00118563
0.00850247
0.00119327
0.00903649
0.00120093
0.00960914
0.00120881
0.0102228
0.0108776
0.00121661
2.62783e-05
0.000162928
0.000103013
0.00058586
0.000228275
0.00113884
0.000392585
0.00181067
0.000577907
0.00256416
0.000761515
0.0033412
0.000923247
0.00408111
0.00105149
0.00474174
0.00114466
0.00531044
0.00120848
0.00580074
0.0012517
0.00624043
0.00128247
0.00665904
0.00130665
0.00708011
0.00132771
0.00751907
0.00134751
0.00798494
0.00136705
0.00848293
0.00138696
0.00901657
0.00140777
0.00958833
0.00142982
0.0102007
0.0108548
0.0014527
2.47772e-05
0.00013815
9.87761e-05
0.000511861
0.000222403
0.00101521
0.000389169
0.00164391
0.000583591
0.00236973
0.000783542
0.00314124
0.000966947
0.0038977
0.00111879
0.0045899
0.00123424
0.00519499
0.00131715
0.00571783
0.00137596
0.00618162
0.00141958
0.00661542
0.00145504
0.00704465
0.00148683
0.00748729
0.00151748
0.00795429
0.00154838
0.00845203
0.00158039
0.00898456
0.00161416
0.00955457
0.00165022
0.0101647
0.010817
0.00168804
2.31033e-05
0.000115047
9.36575e-05
0.000441307
0.00021419
0.000894677
0.000381209
0.00147689
0.000582275
0.00216867
0.00079673
0.00292679
0.00100131
0.00369312
0.0011777
0.0044135
0.00131739
0.0050553
0.00142162
0.0056136
0.0014979
0.00610534
0.00155566
0.00655765
0.00160307
0.00699724
0.0016458
0.00744456
0.00168725
0.00791284
0.00172934
0.00840994
0.00177324
0.00894066
0.00181974
0.00950806
0.00186963
0.0101148
0.0107644
0.00192222
2.13004e-05
9.37466e-05
8.78063e-05
0.000374801
0.00020389
0.000778593
0.000368937
0.00131184
0.000573879
0.00196373
0.000800391
0.00270028
0.00102496
0.00346855
0.0012264
0.00421207
0.00139215
0.00488954
0.00152014
0.00548562
0.00161621
0.00600927
0.0016898
0.00648405
0.00175015
0.0069369
0.00180423
0.00739048
0.00185651
0.00786056
0.00190964
0.00835681
0.00196518
0.00888512
0.00202417
0.00944908
0.00208764
0.0100513
0.0106972
0.00215479
1.94131e-05
7.43335e-05
8.13872e-05
0.000312827
0.000191824
0.000668157
0.000352737
0.00115093
0.000558573
0.00175789
0.00079411
0.00246474
0.00103669
0.00322597
0.00126297
0.00398579
0.00145632
0.00469619
0.00161061
0.00533133
0.00172917
0.00589072
0.00182079
0.00639243
0.00189549
0.0068622
0.0019616
0.00732437
0.0020249
0.00779726
0.00208894
0.00829276
0.00215589
0.00881817
0.00222707
0.0093779
0.00230387
0.00997452
0.0106157
0.00238533
1.74855e-05
5.68479e-05
7.4574e-05
0.000255738
0.000178358
0.000564373
0.000333135
0.00099615
0.000536803
0.00155422
0.000777825
0.00222372
0.00103556
0.00296823
0.00128559
0.00373577
0.00150749
0.00447429
0.00169056
0.00514826
0.00183464
0.00574664
0.00194703
0.00628004
0.00203801
0.00677122
0.00211724
0.00724514
0.00219195
0.00772255
0.00226689
0.00821782
0.00234502
0.00874004
0.00242807
0.00929485
0.00251788
0.00988471
0.0105203
0.00261336
1.55598e-05
4.12881e-05
6.7543e-05
0.000203755
0.000163893
0.000468022
0.000310775
0.000849268
0.000509284
0.00135571
0.000751887
0.00198111
0.00102106
0.00269905
0.00129264
0.00346419
0.00154318
0.00422375
0.00175715
0.00493429
0.00192997
0.00557382
0.00206639
0.00614362
0.00217624
0.00666136
0.00227019
0.0071512
0.00235706
0.00763568
0.00244305
0.00813183
0.00253217
0.00865092
0.00262677
0.00920025
0.00272925
0.00978222
0.0104111
0.00283842
1.36755e-05
2.76126e-05
6.04679e-05
0.000156963
0.000148847
0.000379644
0.000286392
0.000711723
0.000476977
0.00116513
0.000717102
0.00174099
0.000993232
0.00242292
0.00128295
0.00317447
0.00156101
0.0039457
0.00180727
0.00468802
0.00201199
0.0053691
0.00217617
0.00597944
0.00230817
0.00652937
0.00241912
0.00704024
0.00251939
0.00753541
0.00261686
0.00803437
0.0027169
0.00855087
0.00282273
0.00909442
0.00293751
0.00966744
0.0102886
0.00305999
1.18695e-05
1.57431e-05
5.35164e-05
0.000115316
0.000133638
0.000299523
0.000260772
0.000584588
0.00044104
0.000984861
0.000674711
0.00150732
0.000952762
0.00214487
0.00125598
0.00287125
0.00155896
0.00364272
0.00183776
0.00440922
0.00207708
0.00512978
0.002273
0.00578352
0.00243111
0.00637126
0.00256217
0.00690918
0.00267775
0.00741983
0.00278755
0.00792457
0.00289867
0.00843975
0.00301547
0.00897763
0.00314216
0.00954075
0.0101532
0.00327756
1.01765e-05
5.56662e-06
4.68471e-05
7.86452e-05
0.000118674
0.000227695
0.000234721
0.000468542
0.000402765
0.000816817
0.000626341
0.00128374
0.000901048
0.00187017
0.00121206
0.00256023
0.00153567
0.00331912
0.00184563
0.00409926
0.00212128
0.00485413
0.00235279
0.005552
0.00254157
0.00618248
0.00269672
0.00675404
0.00283039
0.00728616
0.00295402
0.00780094
0.00307675
0.00831702
0.00320442
0.00884995
0.00334266
0.00940251
0.0100053
0.00349056
8.62873e-06
-3.06211e-06
4.06079e-05
4.6666e-05
0.000104343
0.000163961
0.000209027
0.000363858
0.000363502
0.000662342
0.000573899
0.00107334
0.000840142
0.00160392
0.0011525
0.00224788
0.0014908
0.00298082
0.0018285
0.00376156
0.00214058
0.00454204
0.00241089
0.0052817
0.00263515
0.00595822
0.00281924
0.00656994
0.00297483
0.00713058
0.00311467
0.0076611
0.00325008
0.00818161
0.00338882
0.00871121
0.00353834
0.009253
0.0098453
0.00369835
7.25587e-06
-1.0318e-05
3.49311e-05
1.89908e-05
9.09901e-05
0.000107902
0.000184424
0.000270424
0.000324581
0.000522185
0.00051944
0.000878486
0.00077262
0.00135074
0.00107963
0.00194087
0.00142527
0.00263518
0.00178504
0.00340179
0.00213144
0.00419565
0.00244229
0.00497085
0.00270654
0.00569396
0.0029251
0.00635138
0.00310753
0.00694815
0.00326709
0.00750154
0.00341714
0.00803156
0.00356764
0.00856071
0.00372842
0.00909222
0.00967349
0.00390023
6.08293e-06
-1.64009e-05
2.99263e-05
-4.85251e-06
7.89095e-05
5.89184e-05
0.000161551
0.000187782
0.00028722
0.000396516
0.000465003
0.000700703
0.000701368
0.00111438
0.000996649
0.00164559
0.00134144
0.00229039
0.00171546
0.00302776
0.00209129
0.00381982
0.00244213
0.00462
0.00274979
0.00538631
0.00300847
0.0060927
0.0032237
0.00673291
0.0034078
0.00731744
0.00357559
0.00786377
0.00373935
0.00839696
0.00391171
0.00891985
0.00948988
0.00409533
5.12735e-06
-2.15282e-05
2.56697e-05
-2.53949e-05
6.83142e-05
1.62739e-05
0.000140904
0.000115192
0.00025244
0.00028498
0.00041244
0.000540703
0.000629302
0.000897515
0.000907354
0.00136754
0.00124301
0.00195473
0.00162185
0.00264893
0.00201929
0.00342238
0.00240646
0.00423283
0.00275872
0.00503405
0.00306246
0.00578896
0.00331705
0.00647832
0.00353184
0.00710265
0.00372192
0.00767369
0.00390156
0.00821732
0.00408683
0.00873459
0.00929449
0.00428221
4.39483e-06
-2.59231e-05
2.21924e-05
-4.31925e-05
5.93136e-05
-2.08472e-05
0.000122793
5.17125e-05
0.000220972
0.000186802
0.000363249
0.000398425
0.000559064
0.000701701
0.000815674
0.00111093
0.00113468
0.00163573
0.00150816
0.00227544
0.0019169
0.00301364
0.00233307
0.00381666
0.00272777
0.00463935
0.00307955
0.00543719
0.00337982
0.00617805
0.00363249
0.00684998
0.00385109
0.00745509
0.00405069
0.00801772
0.00425066
0.00853462
0.00908452
0.00446063
3.87598e-06
-2.97991e-05
1.94697e-05
-5.87863e-05
5.18932e-05
-5.32707e-05
0.0001073
-3.69437e-06
0.000193186
0.000100915
0.000318424
0.000273188
0.000492732
0.000527392
0.000725195
0.000878465
0.00102146
0.00133946
0.00137988
0.00191702
0.00178804
0.00260548
0.00222243
0.00338227
0.00265316
0.00420862
0.00305252
0.00503783
0.00340314
0.00582742
0.00370118
0.00655194
0.00395577
0.00720051
0.00418155
0.00779193
0.00440008
0.0083161
0.00886184
0.00462275
3.5446e-06
-3.33437e-05
1.74171e-05
-7.26588e-05
4.59077e-05
-8.17613e-05
9.4266e-05
-5.20527e-05
0.00016906
2.61214e-05
0.000278365
0.000163883
0.00043161
0.000374147
0.000638705
0.00067137
0.000908041
0.00107013
0.00124317
0.00158189
0.00163881
0.00220984
0.00207811
0.00294297
0.00253402
0.0037527
0.00297575
0.00459611
0.00337803
0.00542514
0.0037276
0.00620236
0.00402684
0.00690128
0.0042854
0.00753336
0.00452837
0.00807313
0.00861048
0.00477974
3.35844e-06
-3.67021e-05
1.58943e-05
-8.51947e-05
4.10875e-05
-0.000106954
8.33105e-05
-9.42757e-05
0.000148186
-3.87539e-05
0.000242869
6.91997e-05
0.00037612
0.000240896
0.000557892
0.000489597
0.000798063
0.000829957
0.00110393
0.00127602
0.00147651
0.00183726
0.00190662
0.00251286
0.00237328
0.00328604
0.00284681
0.00412258
0.00329686
0.00497509
0.00370105
0.00579817
0.00405185
0.00655048
0.00435594
0.00722927
0.00461644
0.00781264
0.00834762
0.00487929
3.26323e-06
-3.99653e-05
1.47197e-05
-9.66512e-05
3.70733e-05
-0.000129308
7.38751e-05
-0.000131078
0.00012985
-9.47292e-05
0.000211214
-1.21641e-05
0.000325857
0.000126254
0.000483246
0.000332208
0.000693723
0.00061948
0.000966822
0.00100292
0.00130832
0.00149577
0.00171628
0.0021049
0.00217758
0.00282474
0.00266765
0.00363251
0.00315536
0.00448738
0.00361185
0.00534168
0.00401805
0.00614428
0.00437515
0.00687218
0.00467586
0.00751192
0.00804895
0.00497453
3.1984e-06
-4.31637e-05
1.36903e-05
-0.000107143
3.34572e-05
-0.000149075
6.53058e-05
-0.000162926
0.000113152
-0.000142575
0.000182316
-8.13285e-05
0.000279775
2.87949e-05
0.000414206
0.000197777
0.000595689
0.000437997
0.000834705
0.000763906
0.00114007
0.0011904
0.0015156
0.00172937
0.00195613
0.0023842
0.00244484
0.0031438
0.00295426
0.00397797
0.00345368
0.00484225
0.00391439
0.00568357
0.00433109
0.00645548
0.00469363
0.00714938
0.00772599
0.00501659
3.10399e-06
-4.62677e-05
1.26053e-05
-0.000116644
2.98339e-05
-0.000166303
5.69414e-05
-0.000190034
9.71374e-05
-0.000182771
0.000154954
-0.000139145
0.000236478
-5.27291e-05
0.000349491
8.47637e-05
0.000503374
0.000284114
0.000708617
0.000558664
0.000975517