/*--------------------------------*- C++ -*----------------------------------*\
  =========                 |
  \\      /  F ield         | OpenFOAM: The Open Source CFD Toolbox
   \\    /   O peration     | Website:  https://openfoam.org
    \\  /    A nd           | Version:  7
     \\/     M anipulation  |
\*---------------------------------------------------------------------------*/
FoamFile
{
    version     2.0;
    format      ascii;
    class       surfaceScalarField;
    location    "5";
    object      phi;
}
// * * * * * * * * * * * * * * * * * * * * * * * * * * * * * * * * * * * * * //

dimensions      [0 3 -1 0 0 0 0];

internalField   nonuniform List<scalar> 
615
(
0.000195032
-1.69395e-06
0.000195495
-1.66591e-06
0.00019595
-1.63843e-06
0.000196396
-1.6115e-06
0.000196835
-1.58509e-06
0.000197266
-1.55921e-06
0.000197689
-1.53382e-06
0.000198105
-1.50893e-06
0.000198514
-1.48451e-06
0.000198916
-1.46057e-06
0.000199311
-1.43707e-06
0.000199699
-1.41402e-06
0.00020008
-1.39141e-06
0.000200455
-1.36921e-06
0.000200824
-1.34744e-06
0.000201186
-1.32606e-06
0.000201542
-1.30508e-06
0.000201893
-1.28449e-06
0.000202237
-1.26427e-06
0.000202576
-1.24442e-06
0.000202909
-1.22493e-06
0.000203237
-1.20579e-06
0.000203559
-1.187e-06
0.000203876
-1.16855e-06
0.000204188
-1.15043e-06
0.000204495
-1.13263e-06
0.000204797
-1.11515e-06
0.000205094
-1.09797e-06
0.000205386
-1.0811e-06
0.000205674
-1.06453e-06
0.000205957
-1.04825e-06
0.000206235
-1.03225e-06
0.000206509
-1.01653e-06
0.000206779
-1.00109e-06
0.000207045
-9.8591e-07
0.000207306
-9.70996e-07
0.000207563
-9.5634e-07
0.000207816
-9.41937e-07
0.000208066
-9.27782e-07
0.000208311
-9.1387e-07
0.000208553
-9.00196e-07
0.000208791
-8.86758e-07
0.000209025
-8.7355e-07
0.000209255
-8.60568e-07
0.000209483
-8.47809e-07
0.000209706
-8.3527e-07
0.000209927
-8.22948e-07
0.000210144
-8.10838e-07
0.000210357
-7.98939e-07
0.000210568
-7.87249e-07
0.000210775
-7.75765e-07
0.000210979
-7.64486e-07
0.00021118
-7.53411e-07
0.000211379
-7.42539e-07
0.000211574
-7.31871e-07
0.000211767
-7.21408e-07
0.000211956
-7.1115e-07
-7.01101e-07
0.000224472
-2.57801e-06
0.000225063
-2.53173e-06
0.000225643
-2.48654e-06
0.00022621
-2.4424e-06
0.000226766
-2.39926e-06
0.000227311
-2.35711e-06
0.000227846
-2.3159e-06
0.000228369
-2.2756e-06
0.000228883
-2.23619e-06
0.000229387
-2.19764e-06
0.000229881
-2.15992e-06
0.000230365
-2.12301e-06
0.000230841
-2.08689e-06
0.000231307
-2.05152e-06
0.000231765
-2.0169e-06
0.000232214
-1.98299e-06
0.000232655
-1.94978e-06
0.000233088
-1.91726e-06
0.000233512
-1.88539e-06
0.000233929
-1.85417e-06
0.000234339
-1.82358e-06
0.000234741
-1.79359e-06
0.000235136
-1.7642e-06
0.000235524
-1.73539e-06
0.000235905
-1.70715e-06
0.00023628
-1.67946e-06
0.000236647
-1.6523e-06
0.000237009
-1.62567e-06
0.000237364
-1.59955e-06
0.000237713
-1.57393e-06
0.000238056
-1.5488e-06
0.000238393
-1.52414e-06
0.000238724
-1.49995e-06
0.00023905
-1.47621e-06
0.000239371
-1.45292e-06
0.000239685
-1.43005e-06
0.000239995
-1.40761e-06
0.0002403
-1.38559e-06
0.000240599
-1.36397e-06
0.000240894
-1.34274e-06
0.000241183
-1.3219e-06
0.000241468
-1.30144e-06
0.000241748
-1.28135e-06
0.000242024
-1.26162e-06
0.000242295
-1.24224e-06
0.000242562
-1.22321e-06
0.000242825
-1.20452e-06
0.000243083
-1.18617e-06
0.000243337
-1.16814e-06
0.000243588
-1.15043e-06
0.000243834
-1.13303e-06
0.000244076
-1.11594e-06
0.000244315
-1.09915e-06
0.00024455
-1.08266e-06
0.000244781
-1.06646e-06
0.000245009
-1.05055e-06
0.000245233
-1.03492e-06
0.000245453
-1.01957e-06
0.00024567
-1.00449e-06
0.000245884
-9.89693e-07
0.000246095
-9.75162e-07
0.000246303
-9.60899e-07
0.000246507
-9.46905e-07
0.000246708
-9.33178e-07
0.000246907
-9.1972e-07
0.000247102
-9.06532e-07
-8.93617e-07
0.000257811
-3.19751e-06
0.000258416
-3.13743e-06
0.000259009
-3.07886e-06
0.000259588
-3.02175e-06
0.000260155
-2.96605e-06
0.00026071
-2.9117e-06
0.000261252
-2.85866e-06
0.000261784
-2.80688e-06
0.000262304
-2.75633e-06
0.000262813
-2.70696e-06
0.000263312
-2.65872e-06
0.0002638
-2.6116e-06
0.000264279
-2.56554e-06
0.000264748
-2.52053e-06
0.000265208
-2.47651e-06
0.000265658
-2.43347e-06
0.0002661
-2.39138e-06
0.000266533
-2.35021e-06
0.000266957
-2.30992e-06
0.000267374
-2.2705e-06
0.000267782
-2.23192e-06
0.000268183
-2.19416e-06
0.000268576
-2.15719e-06
0.000268961
-2.121e-06
0.00026934
-2.08555e-06
0.000269711
-2.05083e-06
0.000270075
-2.01683e-06
0.000270433
-1.98351e-06
0.000270785
-1.95087e-06
0.00027113
-1.91889e-06
0.000271468
-1.88754e-06
0.000271801
-1.85682e-06
0.000272128
-1.8267e-06
0.000272449
-1.79718e-06
0.000272764
-1.76823e-06
0.000273074
-1.73985e-06
0.000273378
-1.71201e-06
0.000273677
-1.68471e-06
0.000273971
-1.65793e-06
0.00027426
-1.63166e-06
0.000274544
-1.60589e-06
0.000274823
-1.5806e-06
0.000275098
-1.55579e-06
0.000275368
-1.53144e-06
0.000275633
-1.50755e-06
0.000275894
-1.4841e-06
0.00027615
-1.46108e-06
0.000276403
-1.43849e-06
0.000276651
-1.41631e-06
0.000276895
-1.39454e-06
0.000277135
-1.37316e-06
0.000277371
-1.35218e-06
0.000277604
-1.33158e-06
0.000277832
-1.31135e-06
0.000278057
-1.29149e-06
0.000278279
-1.27199e-06
0.000278497
-1.25285e-06
0.000278711
-1.23406e-06
0.000278922
-1.21562e-06
0.00027913
-1.19751e-06
0.000279335
-1.17975e-06
0.000279536
-1.16232e-06
0.000279735
-1.14523e-06
0.00027993
-1.12847e-06
0.000280122
-1.11205e-06
0.000280312
-1.09597e-06
-1.08022e-06
0.000290078
-3.79853e-06
0.000290665
-3.7238e-06
0.000291237
-3.65109e-06
0.000291796
-3.58032e-06
0.000292341
-3.51141e-06
0.000292874
-3.44431e-06
0.000293394
-3.37893e-06
0.000293902
-3.31522e-06
0.000294399
-3.25312e-06
0.000294885
-3.19257e-06
0.000295359
-3.13352e-06
0.000295824
-3.07591e-06
0.000296278
-3.01969e-06
0.000296722
-2.96482e-06
0.000297157
-2.91126e-06
0.000297582
-2.85896e-06
0.000297999
-2.80788e-06
0.000298407
-2.75798e-06
0.000298806
-2.70923e-06
0.000299197
-2.66158e-06
0.00029958
-2.61501e-06
0.000299955
-2.56948e-06
0.000300323
-2.52496e-06
0.000300684
-2.48142e-06
0.000301037
-2.43884e-06
0.000301383
-2.39718e-06
0.000301723
-2.35641e-06
0.000302056
-2.31652e-06
0.000302383
-2.27747e-06
0.000302703
-2.23925e-06
0.000303017
-2.20183e-06
0.000303326
-2.16519e-06
0.000303628
-2.1293e-06
0.000303925
-2.09415e-06
0.000304217
-2.05972e-06
0.000304503
-2.02598e-06
0.000304784
-1.99293e-06
0.000305059
-1.96054e-06
0.00030533
-1.92879e-06
0.000305596
-1.89767e-06
0.000305858
-1.86717e-06
0.000306114
-1.83726e-06
0.000306366
-1.80793e-06
0.000306614
-1.77918e-06
0.000306858
-1.75097e-06
0.000307097
-1.72331e-06
0.000307332
-1.69618e-06
0.000307563
-1.66956e-06
0.00030779
-1.64345e-06
0.000308013
-1.61783e-06
0.000308233
-1.5927e-06
0.000308449
-1.56804e-06
0.000308661
-1.54384e-06
0.00030887
-1.52009e-06
0.000309075
-1.49679e-06
0.000309277
-1.47392e-06
0.000309476
-1.45148e-06
0.000309671
-1.42947e-06
0.000309863
-1.40787e-06
0.000310052
-1.38668e-06
0.000310239
-1.3659e-06
0.000310422
-1.34552e-06
0.000310602
-1.32554e-06
0.00031078
-1.30597e-06
0.000310954
-1.28679e-06
0.000311126
-1.26801e-06
-1.24964e-06
0.000320755
-4.34374e-06
0.000321286
-4.25436e-06
0.000321802
-4.16757e-06
0.000322305
-4.08325e-06
0.000322795
-4.0013e-06
0.000323273
-3.92164e-06
0.000323738
-3.84416e-06
0.000324191
-3.76879e-06
0.000324634
-3.69545e-06
0.000325065
-3.62405e-06
0.000325486
-3.55453e-06
0.000325897
-3.48682e-06
0.000326298
-3.42084e-06
0.00032669
-3.35655e-06
0.000327073
-3.29387e-06
0.000327446
-3.23276e-06
0.000327812
-3.17315e-06
0.000328169
-3.115e-06
0.000328518
0.000328859
0.000329193
0.000329519
0.000329839
0.000330152
0.000330458
0.000330757
0.000331051
0.000331338
0.000331619
0.000331895
0.000332165
0.00033243
0.00033269
0.000332944
0.000333194
0.000333439
0.000333678
0.000333914
0.000334145
0.000334371
0.000334594
0.000334812
0.000335026
0.000335236
0.000335443
0.000335646
0.000335845
0.00033604
0.000336232
0.000336421
0.000336606
0.000336789
0.000336968
0.000337143
0.000337316
0.000337486
0.000337653
0.000337818
0.000337979
0.000338138
0.000338294
0.000338448
0.000338599
0.000338748
0.000338895
0.000339039
0.00034919
0.000349629
0.000350054
0.000350466
0.000350867
0.000351256
0.000351634
0.000352002
0.00035236
0.000352708
0.000353046
0.000353376
0.000353697
0.000354009
0.000354314
0.000354611
0.0003549
)
;

boundaryField
{
    inlet
    {
        type            calculated;
        value           nonuniform 0();
    }
    outlet
    {
        type            calculated;
        value           nonuniform 0();
    }
    wall
    {
        type            calculated;
        value           nonuniform 0();
    }
    wedge1
    {
        type            wedge;
        value           nonuniform List<scalar> 
344
(
3.90637e-16
6.32041e-17
4.58766e-16
6.93567e-17
4.84851e-16
3.83702e-16
6.199e-17
4.49826e-16
6.78936e-17
4.74478e-16
3.7714e-16
6.10441e-17
4.41318e-16
6.66515e-17
4.6458e-16
3.70628e-16
5.98436e-17
4.32943e-16
6.52154e-17
4.54926e-16
3.64135e-16
5.89108e-17
4.24701e-16
6.40182e-17
4.45487e-16
3.57849e-16
5.77124e-17
4.16741e-16
6.26445e-17
4.36413e-16
3.51571e-16
5.68006e-17
4.08896e-16
6.15162e-17
4.27513e-16
3.45618e-16
5.56436e-17
4.01346e-16
6.0213e-17
4.18951e-16
3.39639e-16
5.47915e-17
3.93879e-16
5.9152e-17
4.1053e-16
4.45594e-17
3.33872e-16
5.36608e-17
3.8668e-16
5.78984e-17
4.02444e-16
4.3632e-17
3.28084e-16
5.28194e-17
3.79549e-16
5.68893e-17
3.94476e-16
4.28858e-17
3.22616e-16
5.17436e-17
3.72703e-16
5.56918e-17
3.86823e-16
4.22944e-17
3.17082e-16
5.09444e-17
3.65891e-16
5.47333e-17
3.79254e-16
4.15742e-17
3.11899e-16
4.99218e-17
3.59409e-16
5.36002e-17
3.72049e-16
4.04979e-17
3.06453e-16
4.8974e-17
3.52899e-16
5.25863e-17
3.64856e-16
3.98445e-17
3.01193e-16
4.82704e-17
3.46661e-16
5.17606e-17
3.57961e-16
3.92431e-17
2.96251e-16
4.7385e-17
3.40531e-16
5.07773e-17
3.51233e-16
3.86617e-17
2.91411e-16
4.65485e-17
3.34536e-16
4.98309e-17
3.44671e-16
3.80969e-17
2.8665e-16
4.57434e-17
3.28671e-16
4.89087e-17
3.75518e-17
2.81977e-16
4.49454e-17
3.22931e-16
4.80046e-17
3.70184e-17
2.77384e-16
4.41857e-17
3.1732e-16
4.71322e-17
3.64901e-17
2.729e-16
4.34388e-17
3.11837e-16
4.62844e-17
3.59828e-17
2.68489e-16
4.27167e-17
3.06474e-16
4.5449e-17
3.54795e-17
2.64189e-16
4.20017e-17
3.01223e-16
4.46278e-17
3.49767e-17
2.59964e-16
4.13022e-17
2.96085e-16
4.38289e-17
3.45059e-17
2.5582e-16
4.06518e-17
2.91088e-16
4.30599e-17
3.39948e-17
2.5168e-16
3.99251e-17
2.86108e-16
4.22537e-17
3.35882e-17
2.47799e-16
3.94489e-17
2.81407e-16
4.16359e-17
3.30016e-17
2.43947e-16
3.87011e-17
2.76766e-16
4.0814e-17
3.26031e-17
2.3998e-16
3.82103e-17
2.72075e-16
4.0216e-17
3.20241e-17
2.36232e-16
3.74661e-17
2.67624e-16
3.94182e-17
3.13035e-17
2.32339e-16
3.69591e-17
2.63105e-16
3.8821e-17
3.08985e-17
2.2889e-16
3.628e-17
2.58903e-16
3.80944e-17
3.03975e-17
2.25001e-16
3.56483e-17
2.54472e-16
3.74171e-17
2.97397e-17
2.21498e-16
3.50488e-17
2.50322e-16
3.6767e-17
2.92578e-17
2.17958e-16
3.4461e-17
2.46234e-16
3.61379e-17
2.86055e-17
2.14558e-16
3.39013e-17
2.42236e-16
3.55281e-17
2.81509e-17
2.11129e-16
3.33352e-17
2.38308e-16
3.49374e-17
2.75232e-17
2.07831e-16
3.27844e-17
2.34457e-16
3.43472e-17
2.70687e-17
2.04523e-16
3.22238e-17
2.30685e-16
3.37688e-17
2.64641e-17
2.01328e-16
3.16825e-17
2.26974e-16
3.3204e-17
2.60214e-17
1.98108e-16
3.11377e-17
2.23325e-16
3.26518e-17
2.54198e-17
1.95016e-16
3.05975e-17
2.19754e-16
3.21081e-17
2.50184e-17
1.91914e-16
3.00504e-17
2.1622e-16
3.15473e-17
2.43629e-17
1.88968e-16
2.95851e-17
2.12824e-16
3.1046e-17
2.40395e-17
1.86031e-16
2.89707e-17
2.09421e-16
3.04476e-17
2.36072e-17
1.8288e-16
2.84239e-17
2.05934e-16
2.98972e-17
2.30479e-17
1.80097e-16
2.79236e-17
2.02703e-16
2.9386e-17
2.26902e-17
1.77299e-16
2.74421e-17
1.99529e-16
2.89026e-17
2.21745e-17
1.74616e-16
2.69972e-17
1.96403e-16
2.84195e-17
2.18394e-17
1.71901e-16
2.65471e-17
1.93327e-16
2.79528e-17
2.13359e-17
1.69286e-16
2.60928e-17
1.90323e-16
2.75014e-17
2.10137e-17
1.66628e-16
2.56408e-17
1.87366e-16
2.70561e-17
2.05331e-17
1.64106e-16
2.51985e-17
1.8445e-16
2.66085e-17
2.02196e-17
1.61557e-16
2.47556e-17
1.81589e-16
2.61692e-17
1.97188e-17
1.591e-16
2.43337e-17
1.78788e-16
2.57484e-17
1.94175e-17
1.56623e-16
2.38961e-17
1.76034e-16
2.53299e-17
1.89668e-17
1.54275e-16
2.34937e-17
1.73332e-16
2.49195e-17
1.86841e-17
1.5189e-16
2.30947e-17
1.70682e-16
2.451e-17
1.82437e-17
1.49614e-16
2.27008e-17
1.6809e-16
2.4114e-17
1.79861e-17
1.47331e-16
2.23171e-17
1.65549e-16
2.37371e-17
1.75654e-17
1.45167e-16
2.19566e-17
1.63054e-16
2.33617e-17
1.73224e-17
1.42955e-16
2.15744e-17
1.60588e-16
2.29892e-17
1.69052e-17
1.40844e-16
2.12104e-17
1.58188e-16
2.26404e-17
1.66851e-17
1.38715e-16
2.08602e-17
1.55843e-16
2.22923e-17
1.62841e-17
1.36712e-16
2.05337e-17
1.53549e-16
2.19485e-17
1.60801e-17
1.34685e-16
2.01767e-17
1.51286e-16
2.16032e-17
)
;
    }
    wedge2
    {
        type            wedge;
        value           nonuniform List<scalar> 
344
(
3.86324e-16
6.00024e-17
4.56521e-16
6.8022e-17
4.84389e-16
3.79543e-16
5.89389e-17
4.47756e-16
6.67012e-17
4.74249e-16
3.72698e-16
5.76633e-17
4.39022e-16
6.52375e-17
4.64251e-16
3.6611e-16
5.66961e-17
4.30607e-16
6.40437e-17
4.54599e-16
3.59795e-16
5.55136e-17
4.22491e-16
6.26838e-17
4.453e-16
3.53557e-16
5.46465e-17
4.14508e-16
6.15695e-17
4.36177e-16
3.47583e-16
5.35414e-17
4.06812e-16
6.02769e-17
4.27401e-16
3.41551e-16
5.27285e-17
3.99208e-16
5.92232e-17
4.18785e-16
3.358e-16
5.16561e-17
3.91892e-16
5.79897e-17
4.10507e-16
3.99513e-17
3.30088e-16
5.09063e-17
3.8467e-16
5.70083e-17
4.02355e-16
3.95149e-17
3.24637e-16
4.99094e-17
3.77727e-16
5.58399e-17
3.94527e-16
3.89061e-17
3.191e-16
4.91883e-17
3.70836e-16
5.49155e-17
3.86809e-16
3.81685e-17
3.13859e-16
4.82301e-17
3.64235e-16
5.38055e-17
3.79418e-16
3.75676e-17
3.08486e-16
4.75341e-17
3.57619e-16
5.29216e-17
3.72056e-16
3.73835e-17
3.03592e-16
4.67912e-17
3.51337e-16
5.19621e-17
3.65063e-16
3.67829e-17
2.98727e-16
4.58598e-17
3.45075e-16
5.0875e-17
3.58137e-16
3.61536e-17
2.93742e-16
4.51358e-17
3.38991e-16
4.99856e-17
3.51396e-16
3.55279e-17
2.88854e-16
4.43972e-17
3.33048e-16
4.91044e-17
3.44831e-16
3.49079e-17
2.84079e-16
4.36605e-17
3.27243e-16
4.82425e-17
3.42902e-17
2.79406e-16
4.2949e-17
3.21572e-16
4.74041e-17
3.36825e-17
2.74835e-16
4.22311e-17
3.16025e-16
4.6575e-17
3.30904e-17
2.70334e-16
4.15306e-17
3.10594e-16
4.57607e-17
3.24981e-17
2.65934e-16
4.08351e-17
3.05281e-16
4.4972e-17
3.19218e-17
2.61593e-16
4.01617e-17
3.00085e-16
4.42062e-17
3.13647e-17
2.57343e-16
3.95008e-17
2.95002e-16
4.34541e-17
3.07946e-17
2.53175e-16
3.88184e-17
2.89994e-16
4.27064e-17
3.02836e-17
2.4916e-16
3.8239e-17
2.85181e-16
4.20298e-17
2.96865e-17
2.45034e-16
3.74352e-17
2.80291e-16
4.11975e-17
2.92873e-17
2.41035e-16
3.69284e-17
2.75545e-16
4.06011e-17
2.87177e-17
2.37299e-16
3.61892e-17
2.71042e-16
3.98115e-17
2.83314e-17
2.33487e-16
3.57279e-17
2.66489e-16
3.92519e-17
2.8132e-17
2.29961e-16
3.50524e-17
2.62187e-16
3.85202e-17
2.76194e-17
2.26128e-16
3.45723e-17
2.57749e-16
3.79465e-17
2.72063e-17
2.22876e-16
3.40671e-17
2.53717e-16
3.73508e-17
2.69909e-17
2.19361e-16
3.35516e-17
2.4957e-16
3.67548e-17
2.65896e-17
2.16013e-16
3.30455e-17
2.45528e-16
3.61635e-17
2.63999e-17
2.1265e-16
3.25323e-17
2.41556e-16
3.55779e-17
2.60032e-17
2.09438e-16
3.20459e-17
2.37672e-16
3.49983e-17
2.58164e-17
2.06215e-16
3.15637e-17
2.33864e-16
3.44417e-17
2.54488e-17
2.03119e-16
3.11109e-17
2.30126e-16
3.38968e-17
2.52668e-17
2.00026e-16
3.06578e-17
2.26474e-16
3.3361e-17
2.49148e-17
1.97069e-16
3.02266e-17
2.22901e-16
3.28343e-17
2.47573e-17
1.94095e-16
2.98088e-17
2.19389e-16
3.23208e-17
2.43908e-17
1.91237e-16
2.94155e-17
2.15976e-16
3.18454e-17
2.4313e-17
1.8833e-16
2.89577e-17
2.12556e-16
3.13307e-17
2.3905e-17
1.8551e-16
2.86662e-17
2.0927e-16
3.09333e-17
2.36084e-17
1.83019e-16
2.83232e-17
2.06201e-16
3.05074e-17
2.34709e-17
1.80253e-16
2.79502e-17
2.02994e-16
3.00609e-17
2.31242e-17
1.77598e-16
2.75739e-17
1.99852e-16
2.96053e-17
2.29666e-17
1.74924e-16
2.71769e-17
1.9678e-16
2.91675e-17
2.26212e-17
1.72375e-16
2.67999e-17
1.93773e-16
2.87309e-17
2.24737e-17
1.69818e-16
2.6442e-17
1.90806e-16
2.82962e-17
2.2138e-17
1.67395e-16
2.60966e-17
1.87903e-16
2.78724e-17
2.19897e-17
1.64923e-16
2.57558e-17
1.85068e-16
2.74674e-17
2.16668e-17
1.62566e-16
2.54297e-17
1.82283e-16
2.70704e-17
2.15605e-17
1.60203e-16
2.50962e-17
1.79543e-16
2.66705e-17
2.12476e-17
1.57943e-16
2.47921e-17
1.76858e-16
2.62841e-17
2.11113e-17
1.55638e-16
2.44662e-17
1.74223e-16
2.59049e-17
2.08005e-17
1.53452e-16
2.415e-17
1.71635e-16
2.55397e-17
2.06738e-17
1.51239e-16
2.38417e-17
1.69086e-16
2.5176e-17
2.0359e-17
1.49113e-16
2.35362e-17
1.66583e-16
2.48077e-17
2.0232e-17
1.46947e-16
2.32203e-17
1.64129e-16
2.44525e-17
1.99224e-17
1.44909e-16
2.29387e-17
1.61742e-16
2.41088e-17
1.98119e-17
1.42849e-16
2.26515e-17
1.59384e-16
2.37555e-17
1.94996e-17
1.40887e-16
2.23633e-17
1.57064e-16
2.34159e-17
1.93924e-17
1.38877e-16
2.20639e-17
1.54788e-16
2.30861e-17
1.90848e-17
1.36972e-16
2.18078e-17
1.52576e-16
2.27723e-17
)
;
    }
    axis
    {
        type            empty;
        value           nonuniform 0();
    }
    procBoundary7to1
    {
        type            processor;
        value           nonuniform List<scalar> 
68
(
1.22251e-06
1.20295e-06
1.18375e-06
1.1649e-06
1.1464e-06
1.12824e-06
1.11042e-06
1.09291e-06
1.07572e-06
1.05884e-06
1.04227e-06
1.02598e-06
1.00999e-06
9.94279e-07
9.78845e-07
9.63681e-07
9.48783e-07
9.34145e-07
9.19761e-07
9.05627e-07
8.91737e-07
8.78087e-07
8.64671e-07
8.51485e-07
8.38525e-07
8.25787e-07
8.13265e-07
8.00955e-07
7.88855e-07
7.76959e-07
7.65264e-07
7.53765e-07
7.4246e-07
7.31345e-07
7.20416e-07
7.0967e-07
6.99103e-07
6.88713e-07
6.78496e-07
6.68449e-07
6.58569e-07
6.48854e-07
6.39301e-07
6.29907e-07
6.2067e-07
6.11588e-07
6.02658e-07
5.9388e-07
5.8525e-07
5.76768e-07
5.68432e-07
5.60242e-07
5.52197e-07
5.44297e-07
5.36541e-07
5.28932e-07
5.21469e-07
5.14156e-07
1.97447e-06
1.94055e-06
1.90738e-06
1.87492e-06
1.84315e-06
1.81205e-06
1.7816e-06
1.75178e-06
-0.000194561
1.72257e-06
)
;
    }
    procBoundary7to6
    {
        type            processor;
        value           nonuniform List<scalar> 4(-0.000223869 -0.000257191 -0.000289477 -0.00032021);
    }
    procBoundary7to8
    {
        type            processor;
        value           nonuniform List<scalar> 5(0.000212143 0.000247294 0.000280498 0.000311296 0.000339181);
    }
    procBoundary7to12
    {
        type            processor;
        value           uniform -0.000348739;
    }
    procBoundary7to13
    {
        type            processor;
        value           nonuniform List<scalar> 
68
(
-3.05826e-06
-3.00288e-06
-2.94882e-06
-2.89603e-06
-2.84448e-06
-2.79411e-06
-2.74491e-06
-2.69682e-06
-2.64983e-06
-2.60388e-06
-2.55895e-06
-2.51502e-06
-2.47205e-06
-2.43001e-06
-2.38888e-06
-2.34862e-06
-2.30923e-06
-2.27066e-06
-2.2329e-06
-2.19593e-06
-2.15972e-06
-2.12426e-06
-2.08952e-06
-2.05549e-06
-2.02214e-06
-1.98946e-06
-1.95743e-06
-1.92604e-06
-1.89527e-06
-1.8651e-06
-1.83552e-06
-1.80652e-06
-1.77808e-06
-1.75019e-06
-1.72283e-06
-1.69601e-06
-1.6697e-06
-1.6439e-06
-1.61859e-06
-1.59377e-06
-1.56943e-06
-1.54557e-06
-1.52217e-06
-1.49924e-06
-1.47677e-06
-1.45476e-06
-1.43321e-06
-1.41211e-06
-1.39149e-06
-4.79541e-06
-4.69244e-06
-4.59263e-06
-4.49586e-06
-4.40197e-06
-4.31086e-06
-4.22241e-06
-4.13651e-06
-4.05305e-06
-3.97193e-06
-3.89307e-06
-3.81637e-06
-3.74176e-06
-3.66914e-06
-3.59846e-06
-3.52963e-06
-3.46259e-06
0.000355182
-3.39727e-06
)
;
    }
}


// ************************************************************************* //
