/*--------------------------------*- C++ -*----------------------------------*\
  =========                 |
  \\      /  F ield         | OpenFOAM: The Open Source CFD Toolbox
   \\    /   O peration     | Website:  https://openfoam.org
    \\  /    A nd           | Version:  7
     \\/     M anipulation  |
\*---------------------------------------------------------------------------*/
FoamFile
{
    version     2.0;
    format      ascii;
    class       surfaceScalarField;
    location    "2";
    object      phi;
}
// * * * * * * * * * * * * * * * * * * * * * * * * * * * * * * * * * * * * * //

dimensions      [0 3 -1 0 0 0 0];

internalField   nonuniform List<scalar> 
613
(
1.97521e-05
-1.34862e-08
1.97649e-05
-1.28104e-08
1.97771e-05
-1.21429e-08
1.97886e-05
-1.14851e-08
1.97994e-05
-1.08385e-08
1.98096e-05
-1.02049e-08
1.98192e-05
-9.58602e-09
1.98282e-05
-8.9841e-09
1.98366e-05
-8.40143e-09
1.98444e-05
-7.84058e-09
1.98517e-05
-7.30438e-09
1.98585e-05
-6.79592e-09
1.98648e-05
-6.31856e-09
1.98707e-05
-5.87595e-09
1.98762e-05
-5.47202e-09
1.98813e-05
-5.11104e-09
1.98861e-05
-4.79763e-09
1.98906e-05
-4.53678e-09
1.9895e-05
-4.33398e-09
1.98992e-05
-4.19522e-09
1.99033e-05
-4.12718e-09
1.99074e-05
-4.13731e-09
1.99117e-05
-4.23404e-09
1.99161e-05
-4.427e-09
1.99208e-05
-4.72725e-09
1.9926e-05
-5.14762e-09
1.99317e-05
-5.70307e-09
1.99381e-05
-6.41113e-09
1.99454e-05
-7.29237e-09
1.99537e-05
-8.37102e-09
1.99634e-05
-9.67559e-09
1.99747e-05
-1.12396e-08
1.99878e-05
-1.31026e-08
2.00031e-05
-1.53108e-08
2.0021e-05
-1.79185e-08
2.0042e-05
-2.0989e-08
2.00666e-05
-2.45964e-08
2.00954e-05
-2.88262e-08
2.01292e-05
-3.37779e-08
2.01687e-05
-3.95658e-08
2.02151e-05
-4.63211e-08
2.02693e-05
-5.41934e-08
2.03326e-05
-6.33522e-08
2.04066e-05
-7.3988e-08
2.04929e-05
-8.63126e-08
2.05935e-05
-1.00559e-07
2.07105e-05
-1.1698e-07
2.08463e-05
-1.35842e-07
2.10037e-05
-1.57424e-07
2.11857e-05
-1.81999e-07
2.13955e-05
-2.09828e-07
2.16367e-05
-2.41133e-07
2.19128e-05
-2.76074e-07
2.22275e-05
-3.14708e-07
2.25844e-05
-3.56953e-07
2.29869e-05
-4.02534e-07
2.34379e-05
-4.50926e-07
2.39392e-05
-5.01307e-07
2.44917e-05
-5.52504e-07
2.50947e-05
-6.02979e-07
2.57455e-05
-6.50817e-07
2.64393e-05
-6.93809e-07
2.71688e-05
-7.29543e-07
2.79244e-05
-7.55611e-07
2.86943e-05
-7.69857e-07
-7.7064e-07
2.94649e-05
5.91595e-05
-5.30618e-08
5.91971e-05
-5.03879e-08
5.92327e-05
-4.77478e-08
5.92663e-05
-4.51472e-08
5.92981e-05
-4.25919e-08
5.9328e-05
-4.00888e-08
5.9356e-05
-3.76454e-08
5.93823e-05
-3.52699e-08
5.94069e-05
-3.29718e-08
5.94298e-05
-3.0761e-08
5.94512e-05
-2.86488e-08
5.9471e-05
-2.66474e-08
5.94895e-05
-2.477e-08
5.95066e-05
-2.30309e-08
5.95226e-05
-2.14457e-08
5.95375e-05
-2.00311e-08
5.95515e-05
-1.88053e-08
5.95648e-05
-1.77879e-08
5.95774e-05
-1.70005e-08
5.95897e-05
-1.64667e-08
5.96018e-05
-1.62128e-08
5.96139e-05
-1.62683e-08
5.96264e-05
-1.66663e-08
5.96394e-05
-1.74449e-08
5.96533e-05
-1.86479e-08
5.96685e-05
-2.03261e-08
5.96853e-05
-2.25387e-08
5.97043e-05
-2.53551e-08
5.97258e-05
-2.8857e-08
5.97506e-05
-3.31404e-08
5.97792e-05
-3.83183e-08
5.98125e-05
-4.45241e-08
5.98513e-05
-5.19142e-08
5.98967e-05
-6.06726e-08
5.99498e-05
-7.10147e-08
6.0012e-05
-8.31923e-08
6.00849e-05
-9.74989e-08
6.01703e-05
-1.14276e-07
6.02705e-05
-1.33918e-07
6.03878e-05
-1.5688e-07
6.05252e-05
-1.83685e-07
6.06859e-05
-2.14929e-07
6.08738e-05
-2.51289e-07
6.10934e-05
-2.93527e-07
6.13495e-05
-3.42489e-07
6.16481e-05
-3.99112e-07
6.19955e-05
-4.64409e-07
6.23992e-05
-5.39463e-07
6.28671e-05
-6.25393e-07
6.34084e-05
-7.23325e-07
6.40329e-05
-8.34326e-07
6.47511e-05
-9.59328e-07
6.55741e-05
-1.09902e-06
6.65131e-05
-1.25369e-06
6.75792e-05
-1.42309e-06
6.87829e-05
-1.60619e-06
7.01329e-05
-1.80097e-06
7.16358e-05
-2.00421e-06
7.32945e-05
-2.21124e-06
7.51075e-05
-2.41589e-06
7.7067e-05
-2.61038e-06
7.91589e-05
-2.78572e-06
8.13613e-05
-2.93195e-06
8.36448e-05
-3.03905e-06
8.5973e-05
-3.09803e-06
-3.1019e-06
8.83042e-05
9.82388e-05
-1.15847e-07
9.82984e-05
-1.09951e-07
9.83548e-05
-1.04133e-07
9.8408e-05
-9.84057e-08
9.84582e-05
-9.27825e-08
9.85054e-05
-8.72784e-08
9.85497e-05
-8.19102e-08
9.85911e-05
-7.66962e-08
9.86298e-05
-7.16568e-08
9.86658e-05
-6.68146e-08
9.86994e-05
-6.21939e-08
9.87306e-05
-5.78215e-08
9.87595e-05
-5.37264e-08
9.87864e-05
-4.99398e-08
9.88115e-05
-4.64957e-08
9.88349e-05
-4.34307e-08
9.88569e-05
-4.07842e-08
9.88777e-05
-3.85992e-08
9.88976e-05
-3.69229e-08
9.89169e-05
-3.58068e-08
9.8936e-05
-3.53086e-08
9.89552e-05
-3.54928e-08
9.8975e-05
-3.64325e-08
9.89958e-05
-3.82114e-08
9.90181e-05
-4.0926e-08
9.90424e-05
-4.46884e-08
9.90695e-05
-4.96297e-08
9.91001e-05
-5.59036e-08
9.91349e-05
-6.36906e-08
9.9175e-05
-7.32037e-08
9.92213e-05
-8.46937e-08
9.92753e-05
-9.84559e-08
9.93382e-05
-1.14838e-07
9.94118e-05
-1.34248e-07
9.94979e-05
-1.57164e-07
9.95989e-05
-1.84147e-07
9.97172e-05
-2.15849e-07
9.9856e-05
-2.53029e-07
0.000100019
-2.96566e-07
0.000100209
-3.47476e-07
0.000100432
-4.06925e-07
0.000100694
-4.76248e-07
0.000100999
-5.56959e-07
0.000101357
-6.50769e-07
0.000101774
-7.59587e-07
0.00010226
-8.85528e-07
0.000102827
-1.0309e-06
0.000103485
-1.19816e-06
0.00010425
-1.3899e-06
0.000105135
-1.60872e-06
0.000106158
-1.85716e-06
0.000107336
-2.13745e-06
0.000108689
-2.45136e-06
0.000110235
-2.79979e-06
0.000111994
-3.18245e-06
0.000113985
-3.59736e-06
0.000116225
-4.04027e-06
0.000118724
-4.50421e-06
0.000121492
-4.97879e-06
0.000124526
-5.45015e-06
0.000127816
-5.90036e-06
0.000131339
-6.30856e-06
0.000135058
-6.65107e-06
0.000138923
-6.90404e-06
0.000142871
-7.04542e-06
-7.05784e-06
0.000146827
0.000136748
-1.97245e-07
0.000136825
-1.87065e-07
0.000136898
-1.7703e-07
0.000136967
-1.6716e-07
0.000137032
-1.5748e-07
0.000137093
-1.48015e-07
0.000137149
-1.38796e-07
0.000137203
-1.29853e-07
0.000137252
-1.21222e-07
0.000137298
-1.12942e-07
0.000137341
-1.05054e-07
0.000137381
-9.76051e-08
0.000137418
-9.06437e-08
0.000137452
-8.42235e-08
0.000137484
-7.84022e-08
0.000137514
-7.32418e-08
0.000137542
-6.88098e-08
0.000137568
-6.51792e-08
0.000137594
-6.24302e-08
0.000137619
-6.06511e-08
0.000137643
-5.99404e-08
0.000137668
-6.04088e-08
0.000137694
-6.2182e-08
0.000137721
-6.54044e-08
0.000137751
-7.02427e-08
0.000137783
-7.6891e-08
0.000137819
-8.55764e-08
0.000137859
-9.65658e-08
0.000137906
-1.10173e-07
0.000137959
-1.26769e-07
0.000138022
-1.4679e-07
0.000138094
-1.7075e-07
0.000138178
-1.99255e-07
0.000138277
-2.33017e-07
0.000138393
-2.72872e-07
0.000138528
-3.19795e-07
0.000138687
-3.74929e-07
0.000138874
-4.39601e-07
0.000139093
-5.15351e-07
0.000139349
-6.03961e-07
0.00013965
-7.0748e-07
0.000140002
-8.28257e-07
0.000140414
-9.6897e-07
0.000140896
-1.13265e-06
0.000141459
-1.32268e-06
0.000142116
-1.54286e-06
0.000142883
-1.79732e-06
0.000143775
-2.09054e-06
0.000144812
-2.42723e-06
0.000146016
-2.81226e-06
0.000147409
-3.25038e-06
0.000149018
-3.746e-06
0.000150869
-4.30272e-06
0.000152992
-4.9228e-06
0.000155416
-5.60648e-06
0.00015817
-6.35104e-06
0.000161279
-7.1498e-06
0.000164766
-7.99114e-06
0.000168644
-8.857e-06
0.000172917
-9.72285e-06
0.000177573
-1.05558e-05
0.000182581
-1.13174e-05
0.000187893
-1.19622e-05
0.000193433
-1.24442e-05
0.000199107
-1.27194e-05
-1.2752e-05
0.000204801
0.000174419
0.000174508
0.000174592
0.000174671
0.000174745
0.000174815
0.00017488
0.00017494
0.000174997
0.000175049
0.000175098
0.000175143
0.000175184
0.000175223
0.000175259
0.000175293
0.000175324
0.000175354
0.000175383
0.000175412
0.00017544
0.000175469
0.000175499
0.000175531
0.000175566
0.000175604
0.000175647
0.000175696
0.000175752
0.000175816
0.000175892
0.000175979
0.000176082
0.000176201
0.000176342
0.000176507
0.0001767
0.000176927
0.000177193
0.000177505
0.000177871
0.0001783
0.000178803
0.000179391
0.00018008
0.000180884
0.000181824
0.00018292
0.000184196
0.000185681
0.000187404
0.0001894
0.000191706
0.00019436
0.000197405
0.000200881
0.000204829
0.000209282
0.000214268
0.000219798
0.000225864
0.000232436
0.000239448
0.000246803
0.000254365
3.02338e-05
-7.68904e-07
3.09742e-05
-7.40386e-07
-6.98633e-07
9.06298e-05
-3.09453e-06
9.28675e-05
-2.97805e-06
-2.80732e-06
0.000150772
-7.04019e-06
0.000154563
-6.76921e-06
0.000158127
-6.37057e-06
-5.87095e-06
0.000210479
0.000215923
0.000221017
)
;

boundaryField
{
    inlet
    {
        type            calculated;
        value           nonuniform 0();
    }
    outlet
    {
        type            calculated;
        value           nonuniform 0();
    }
    wall
    {
        type            calculated;
        value           nonuniform 0();
    }
    wedge1
    {
        type            wedge;
        value           nonuniform List<scalar> 
344
(
3.83341e-18
2.77996e-18
2.75387e-17
-5.85862e-18
-9.07871e-18
3.49903e-18
2.88351e-18
2.59709e-17
-5.66937e-18
-8.76464e-18
3.50394e-18
2.42245e-18
2.45752e-17
-5.60572e-18
-8.44792e-18
3.22357e-18
2.75493e-18
2.32101e-17
-5.40163e-18
-8.02598e-18
2.83441e-18
2.21936e-18
2.17698e-17
-4.93153e-18
-7.70954e-18
2.60246e-18
1.87804e-18
2.02962e-17
-4.86285e-18
-7.40333e-18
2.23211e-18
1.34358e-18
1.87515e-17
-4.78825e-18
-7.1807e-18
2.34407e-18
1.16105e-18
1.75676e-17
-4.66372e-18
-6.85768e-18
2.03355e-18
1.4412e-18
1.62149e-17
-4.55775e-18
-6.62626e-18
2.12711e-18
1.14127e-18
1.5072e-17
-4.44789e-18
-6.28966e-18
1.88866e-18
1.32932e-18
1.38038e-17
-4.37092e-18
-6.08074e-18
1.92446e-18
9.90609e-19
1.28201e-17
-4.24288e-18
-5.8051e-18
1.72262e-18
1.32439e-18
1.17271e-17
-4.12099e-18
-5.60733e-18
1.45034e-18
9.00152e-19
1.06458e-17
-4.04601e-18
-5.42103e-18
1.11135e-18
3.03846e-19
9.5469e-18
-4.00854e-18
-5.2912e-18
1.24442e-18
1.49065e-19
8.81058e-18
-3.96879e-18
-5.12248e-18
1.11559e-18
4.069e-19
7.97429e-18
-3.95694e-18
-5.06631e-18
1.19229e-18
2.75594e-19
7.52779e-18
-3.87648e-18
-4.90156e-18
9.75908e-19
5.109e-19
6.98572e-18
-3.84511e-18
-4.84236e-18
1.12298e-18
2.18003e-19
6.72651e-18
-3.77928e-18
-4.74669e-18
1.07387e-18
6.56508e-19
6.4482e-18
-3.77417e-18
-4.71603e-18
8.90598e-19
3.53038e-19
6.28573e-18
-3.79913e-18
-4.76073e-18
6.96094e-19
-1.48505e-19
6.17314e-18
-3.90706e-18
-4.90718e-18
1.00975e-18
-1.94817e-19
6.53338e-18
-4.01059e-18
-4.97568e-18
8.34931e-19
1.81965e-19
6.94335e-18
-4.13568e-18
-5.21135e-18
1.12936e-18
9.65465e-20
7.7748e-18
-4.24481e-18
-5.37629e-18
1.20602e-18
5.07815e-19
8.72583e-18
-4.37822e-18
-5.66959e-18
1.47885e-18
4.2127e-19
1.00716e-17
-4.65107e-18
-6.03132e-18
1.69187e-18
9.85575e-19
1.17779e-17
-4.85053e-18
-6.3593e-18
1.7513e-18
8.81984e-19
1.3763e-17
-4.80797e-18
-6.9033e-18
2.00818e-18
9.72479e-19
1.62249e-17
-5.21214e-18
-7.55378e-18
2.19642e-18
8.53916e-19
1.90289e-17
-5.74487e-18
-8.3863e-18
2.8635e-18
1.30215e-18
2.26408e-17
-6.28772e-18
-9.3384e-18
3.27669e-18
2.0288e-18
2.68068e-17
-6.9317e-18
-1.04979e-17
4.03693e-18
2.35674e-18
3.19192e-17
-7.61564e-18
-1.17615e-17
4.56391e-18
3.12516e-18
3.77556e-17
-8.49933e-18
-1.33657e-17
5.61479e-18
3.66644e-18
4.49262e-17
-9.43909e-18
-1.51571e-17
6.58395e-18
4.86944e-18
5.31621e-17
-1.05773e-17
-1.73128e-17
7.58796e-18
5.54425e-18
6.28226e-17
-1.19019e-17
-1.98535e-17
8.7734e-18
6.21966e-18
7.40237e-17
-1.35222e-17
-2.28704e-17
1.06598e-17
7.49374e-18
8.74245e-17
-1.5358e-17
-2.62864e-17
1.23374e-17
9.17525e-18
1.02937e-16
-1.74907e-17
-3.04155e-17
1.46402e-17
1.09693e-17
1.21186e-16
-1.99918e-17
-3.51284e-17
1.7069e-17
1.31455e-17
1.42277e-16
-2.29293e-17
-4.06998e-17
2.01589e-17
1.53598e-17
1.66893e-16
-2.62806e-17
-4.7118e-17
2.3391e-17
1.8277e-17
1.9537e-16
-3.02094e-17
-5.46402e-17
2.72054e-17
2.11534e-17
2.28262e-16
-3.47598e-17
-6.33652e-17
3.14544e-17
2.44203e-17
2.66055e-16
-4.00541e-17
-7.3529e-17
3.67764e-17
2.88153e-17
3.09612e-16
-4.61341e-17
-8.51393e-17
4.25859e-17
3.35679e-17
3.59182e-16
-5.31444e-17
-9.85598e-17
4.93967e-17
3.91715e-17
4.15739e-16
-6.10908e-17
-1.13819e-16
5.68218e-17
4.53444e-17
4.79528e-16
-7.00815e-17
-1.31221e-16
6.54275e-17
5.23357e-17
5.51098e-16
-8.03237e-17
-1.50875e-16
7.47988e-17
6.02084e-17
6.30718e-16
-9.1463e-17
-1.72788e-16
8.50745e-17
6.84866e-17
7.18234e-16
-1.03926e-16
-1.97233e-16
9.6236e-17
7.75839e-17
8.13397e-16
-1.17727e-16
-2.24062e-16
1.0807e-16
8.7207e-17
9.15304e-16
-1.32616e-16
-2.5318e-16
1.20836e-16
9.79461e-17
1.02289e-15
-1.48368e-16
-2.84167e-16
1.33738e-16
1.08714e-16
1.13368e-15
-1.64779e-16
-3.16566e-16
1.4681e-16
1.19656e-16
1.24518e-15
-1.81387e-16
-3.49556e-16
1.59327e-16
1.30209e-16
1.35368e-15
-1.97731e-16
-3.82234e-16
1.71159e-16
1.4014e-16
1.45532e-15
-2.13198e-16
-4.13291e-16
1.8143e-16
1.49205e-16
1.54581e-15
-2.27146e-16
-4.41463e-16
1.89892e-16
1.56667e-16
1.62196e-15
-2.39044e-16
-4.65635e-16
1.95997e-16
1.62396e-16
1.68433e-15
-2.48854e-16
-4.85856e-16
1.98748e-16
1.65366e-16
1.71381e-15
-2.53997e-16
-4.96295e-16
2.00805e-16
1.67618e-16
1.73184e-15
-2.57453e-16
1.95822e-16
1.63901e-16
1.685e-15
-2.51058e-16
1.86925e-16
1.56756e-16
1.60358e-15
-2.39191e-16
1.49367e-15
-2.23045e-16
)
;
    }
    wedge2
    {
        type            wedge;
        value           nonuniform List<scalar> 
344
(
3.10659e-18
2.93005e-18
2.95296e-17
-2.04969e-18
-5.46035e-18
3.09365e-18
2.54462e-18
2.82071e-17
-1.83336e-18
-5.01698e-18
2.74523e-18
2.71745e-18
2.67481e-17
-1.49716e-18
-4.58676e-18
2.68693e-18
2.10971e-18
2.52992e-17
-1.31048e-18
-4.27403e-18
2.7433e-18
2.36996e-18
2.39729e-17
-1.39018e-18
-3.86969e-18
2.64849e-18
2.44125e-18
2.27343e-17
-1.07999e-18
-3.47058e-18
2.69954e-18
2.71151e-18
2.16287e-17
-7.84337e-19
-3.00585e-18
2.27643e-18
2.63523e-18
2.02325e-17
-5.49185e-19
-2.66139e-18
2.28539e-18
2.10752e-18
1.90849e-17
-3.0682e-19
-2.24772e-18
1.901e-18
2.16611e-18
1.78174e-17
-8.1585e-20
-1.96452e-18
1.86087e-18
1.7482e-18
1.67765e-17
1.619e-19
-1.58162e-18
1.56009e-18
1.86806e-18
1.55646e-17
3.38001e-19
-1.29661e-18
1.51224e-18
1.32672e-18
1.45888e-17
5.02132e-19
-9.68207e-19
1.55192e-18
1.55796e-18
1.37428e-17
6.93073e-19
-6.66527e-19
1.67745e-18
1.97665e-18
1.30703e-17
8.99188e-19
-3.50329e-19
1.35182e-18
1.97556e-18
1.22089e-17
1.07856e-18
-1.19271e-19
1.31132e-18
1.57153e-18
1.16378e-17
1.25897e-18
1.73971e-19
1.0906e-18
1.58934e-18
1.08871e-17
1.34138e-18
3.03259e-19
1.19199e-18
1.2482e-18
1.04622e-17
1.44069e-18
4.77539e-19
9.59723e-19
1.47989e-18
1.00084e-17
1.46954e-18
5.49125e-19
9.59004e-19
9.84322e-19
9.85272e-18
1.52023e-18
6.13362e-19
1.12899e-18
1.27181e-18
9.88747e-18
1.55876e-18
6.73322e-19
1.35299e-18
1.79122e-18
1.02119e-17
1.63192e-18
7.4726e-19
1.11462e-18
1.91566e-18
1.04389e-17
1.651e-18
6.46704e-19
1.41404e-18
1.61144e-18
1.10345e-17
1.63263e-18
6.05981e-19
1.30477e-18
1.86912e-18
1.16763e-17
1.53486e-18
3.74503e-19
1.47324e-18
1.61888e-18
1.27241e-17
1.3906e-18
1.36809e-19
1.52114e-18
1.99501e-18
1.39712e-17
1.30301e-18
-1.84206e-19
1.70477e-18
1.70418e-18
1.55329e-17
1.08304e-18
-7.11299e-19
2.13827e-18
2.19586e-18
1.75867e-17
4.56872e-19
-1.21913e-18
2.48012e-18
2.57794e-18
2.00476e-17
1.87506e-19
-1.84628e-18
3.01283e-18
3.26583e-18
2.31844e-17
-8.64084e-20
-2.55072e-18
3.20475e-18
3.5834e-18
2.66892e-17
-5.10491e-19
-3.43637e-18
3.81571e-18
3.58173e-18
3.10027e-17
-1.00639e-18
-4.46348e-18
4.25944e-18
4.31149e-18
3.59511e-17
-1.6887e-18
-5.79218e-18
5.15753e-18
4.57578e-18
4.20133e-17
-2.4057e-18
-7.253e-18
5.78206e-18
5.49891e-18
4.88779e-17
-3.36202e-18
-9.0783e-18
6.78094e-18
5.73331e-18
5.71611e-17
-4.45443e-18
-1.11835e-17
8.08341e-18
6.89993e-18
6.69075e-17
-5.74914e-18
-1.36552e-17
9.60405e-18
8.38384e-18
7.84658e-17
-7.21177e-18
-1.65279e-17
1.08712e-17
9.74489e-18
9.17113e-17
-8.9795e-18
-2.0023e-17
1.28813e-17
1.09127e-17
1.07342e-16
-1.10786e-17
-2.39942e-17
1.48777e-17
1.26679e-17
1.25426e-16
-1.35268e-17
-2.87615e-17
1.74555e-17
1.44209e-17
1.46641e-16
-1.6365e-17
-3.4267e-17
2.0173e-17
1.69503e-17
1.71175e-16
-1.97478e-17
-4.07682e-17
2.36762e-17
1.94146e-17
1.99658e-16
-2.36552e-17
-4.82811e-17
2.76453e-17
2.28376e-17
2.32593e-16
-2.81944e-17
-5.70098e-17
3.23644e-17
2.68431e-17
2.70622e-16
-3.3416e-17
-6.7048e-17
3.73349e-17
3.08444e-17
3.14071e-16
-3.94558e-17
-7.87402e-17
4.32824e-17
3.56317e-17
3.63894e-16
-4.63549e-17
-9.20894e-17
4.98345e-17
4.09602e-17
4.20294e-16
-5.4292e-17
-1.07438e-16
5.74992e-17
4.7093e-17
4.84091e-16
-6.33305e-17
-1.24836e-16
6.58064e-17
5.39814e-17
5.55596e-16
-7.34117e-17
-1.44491e-16
7.52228e-17
6.15108e-17
6.35051e-16
-8.49902e-17
-1.66627e-16
8.56013e-17
7.02294e-17
7.22618e-16
-9.76766e-17
-1.9109e-16
9.68637e-17
7.96318e-17
8.17844e-16
-1.11388e-16
-2.17956e-16
1.09017e-16
8.98523e-17
9.20001e-16
-1.2618e-16
-2.46999e-16
1.21462e-16
1.00045e-16
1.02739e-15
-1.41919e-16
-2.78002e-16
1.34491e-16
1.10862e-16
1.13834e-15
-1.58245e-16
-3.10357e-16
1.4741e-16
1.21676e-16
1.24979e-15
-1.74846e-16
-3.43407e-16
1.60109e-16
1.32344e-16
1.35841e-15
-1.91167e-16
-3.76014e-16
1.71758e-16
1.42375e-16
1.46004e-15
-2.06655e-16
-4.07143e-16
1.82191e-16
1.5118e-16
1.55056e-15
-2.2068e-16
-4.35343e-16
1.90652e-16
1.5883e-16
1.62669e-15
-2.32729e-16
-4.5958e-16
1.9681e-16
1.65046e-16
1.68924e-15
-2.42591e-16
-4.79794e-16
1.99684e-16
1.68207e-16
1.71861e-15
-2.47734e-16
-4.90357e-16
2.01818e-16
1.70465e-16
1.73679e-15
-2.51036e-16
1.96667e-16
1.66359e-16
1.6901e-15
-2.44711e-16
1.87843e-16
1.59049e-16
1.60857e-15
-2.33139e-16
1.49859e-15
-2.1713e-16
)
;
    }
    axis
    {
        type            empty;
        value           nonuniform 0();
    }
    procBoundary2to1
    {
        type            processor;
        value           nonuniform List<scalar> 5(-1.97386e-05 -5.91199e-05 -9.8176e-05 -0.000136667 -0.000174325);
    }
    procBoundary2to3
    {
        type            processor;
        value           nonuniform List<scalar> 5(3.16729e-05 9.49762e-05 2.59301e-06 0.000161405 0.000225677);
    }
    procBoundary2to8
    {
        type            processor;
        value           nonuniform List<scalar> 
71
(
-2.91303e-07
-2.76005e-07
-2.60941e-07
-2.46144e-07
-2.3165e-07
-2.175e-07
-2.03738e-07
-1.90411e-07
-1.77573e-07
-1.65282e-07
-1.536e-07
-1.42595e-07
-1.3234e-07
-1.22915e-07
-1.14403e-07
-1.06897e-07
-1.00497e-07
-9.53093e-08
-9.14535e-08
-8.90603e-08
-8.82763e-08
-8.92668e-08
-9.222e-08
-9.73528e-08
-1.04916e-07
-1.15204e-07
-1.28558e-07
-1.45385e-07
-1.6616e-07
-1.91445e-07
-2.21905e-07
-2.58321e-07
-3.01617e-07
-3.52876e-07
-4.13371e-07
-4.84593e-07
-5.68285e-07
-6.66477e-07
-7.81528e-07
-9.1617e-07
-1.07356e-06
-1.25731e-06
-1.47157e-06
-1.72103e-06
-2.01102e-06
-2.34745e-06
-2.73687e-06
-3.18644e-06
-3.70379e-06
-4.29687e-06
-4.9737e-06
-5.74191e-06
-6.60816e-06
-7.57729e-06
-8.65118e-06
-9.82741e-06
-1.10974e-05
-1.24448e-05
-1.38425e-05
-1.52528e-05
-1.66224e-05
-1.78893e-05
-1.89739e-05
-1.97988e-05
-2.02822e-05
-2.03578e-05
0.000261971
-1.27183e-05
-1.22129e-05
-1.14651e-05
-1.05304e-05
)
;
    }
}


// ************************************************************************* //
