/*--------------------------------*- C++ -*----------------------------------*\
  =========                 |
  \\      /  F ield         | OpenFOAM: The Open Source CFD Toolbox
   \\    /   O peration     | Website:  https://openfoam.org
    \\  /    A nd           | Version:  7
     \\/     M anipulation  |
\*---------------------------------------------------------------------------*/
FoamFile
{
    version     2.0;
    format      ascii;
    class       surfaceScalarField;
    location    "131";
    object      phi;
}
// * * * * * * * * * * * * * * * * * * * * * * * * * * * * * * * * * * * * * //

dimensions      [0 3 -1 0 0 0 0];

internalField   nonuniform List<scalar> 
24510
(
-4.93819e-06
-5.39624e-05
5.89006e-05
-1.87435e-05
-0.000164709
0.000178514
-4.14494e-05
-0.000283083
0.000305789
-7.31559e-05
-0.000404927
0.000436634
-0.000113826
-0.000526705
0.000567375
-0.000163149
-0.000646955
0.000696279
-0.00022048
-0.000766994
0.000824324
-0.000284861
-0.000890803
0.000955184
-0.00035511
-0.00102403
0.00109428
-0.000429875
-0.00117237
0.00124713
-0.000507578
-0.00133983
0.00141754
-0.000586201
-0.00152735
0.00160598
-0.000662901
-0.00173152
0.00180822
-0.000733493
-0.00194327
0.00201386
-0.00079189
-0.00214603
0.00220443
-0.000829632
-0.00231326
0.00235101
-0.000835515
-0.00240586
0.00241175
-0.000795568
-0.00237187
0.00233192
-0.00069731
-0.00214945
0.0020512
-0.00166012
0.00148537
-0.000522568
-6.23148e-06
-4.77309e-05
-2.32983e-05
-0.000147642
-5.08513e-05
-0.00025553
-8.86461e-05
-0.000367133
-0.00013637
-0.00047898
-0.000193555
-0.00058977
-0.000259556
-0.000700993
-0.000333596
-0.000816762
-0.000414845
-0.000942781
-0.000502443
-0.00108477
-0.000595408
-0.00124687
-0.000692397
-0.00143036
-0.000791312
-0.0016326
-0.00088878
-0.0018458
-0.00097953
-0.00205528
-0.00105572
-0.00223707
-0.00110629
-0.00235529
-0.00111712
-0.00236104
-0.0010724
-0.00219418
-0.00177877
-0.000953743
-7.35364e-06
-4.03773e-05
-2.7224e-05
-0.000127771
-5.88884e-05
-0.000223866
-0.00010176
-0.000324261
-0.000155251
-0.00042549
-0.000218728
-0.000526294
-0.000291523
-0.000628198
-0.000372995
-0.000735291
-0.000462576
-0.000853199
-0.000559771
-0.000987575
-0.000664024
-0.00114262
-0.000774473
-0.00131991
-0.000889571
-0.00151751
-0.0010066
-0.00172877
-0.00112107
-0.00194081
-0.00122597
-0.00213217
-0.00131101
-0.00227025
-0.00136271
-0.00230934
-0.0013644
-0.00219249
-0.00184895
-0.00129422
-8.25087e-06
-3.21264e-05
-3.03499e-05
-0.000105672
-6.5241e-05
-0.000188974
-0.00011202
-0.000277482
-0.000169832
-0.000367677
-0.000237874
-0.000458252
-0.000315428
-0.000550644
-0.000401917
-0.000648801
-0.000496935
-0.000758181
-0.000600199
-0.000884311
-0.000711389
-0.00103143
-0.000829893
-0.00120141
-0.000954458
-0.00139294
-0.00108276
-0.00160047
-0.00121089
-0.00181268
-0.00133264
-0.00201042
-0.00143867
-0.00216422
-0.00151671
-0.0022313
-0.00155137
-0.00215783
-0.00188579
-0.00151454
-8.88072e-06
-2.32457e-05
-3.25435e-05
-8.20096e-05
-6.96639e-05
-0.000151854
-0.000119062
-0.000228084
-0.000179637
-0.000307102
-0.000250409
-0.00038748
-0.000330568
-0.000470484
-0.000419528
-0.000559842
-0.000516923
-0.000660785
-0.000622524
-0.00077871
-0.000736046
-0.000917904
-0.000856887
-0.00108057
-0.000983805
-0.00126602
-0.00111455
-0.00146972
-0.00124543
-0.0016818
-0.00137073
-0.00188512
-0.00148185
-0.0020531
-0.00156741
-0.00214574
-0.00161517
-0.00211007
-0.00191221
-0.00158875
-9.21439e-06
-1.40313e-05
-3.37155e-05
-5.75085e-05
-7.19942e-05
-0.000113575
-0.000122648
-0.00017743
-0.000184357
-0.000245393
-0.000255953
-0.000315885
-0.000336489
-0.000389949
-0.000425279
-0.000471051
-0.000521876
-0.000564189
-0.000625938
-0.000674648
-0.00073702
-0.000806822
-0.000854292
-0.000963297
-0.000976244
-0.00114407
-0.00110036
-0.0013456
-0.00122277
-0.00155939
-0.00133783
-0.00177007
-0.0014372
-0.00195372
-0.0015092
-0.00207374
-0.00154608
-0.00207319
-0.00195679
-0.00150149
-9.23841e-06
-4.79288e-06
-3.38243e-05
-3.29226e-05
-7.2157e-05
-7.52427e-05
-0.000122672
-0.000126915
-0.000183854
-0.000184211
-0.000254335
-0.000245404
-0.000332975
-0.000311308
-0.000418899
-0.000385127
-0.000511439
-0.000471648
-0.000609981
-0.000576106
-0.000713718
-0.000703085
-0.000821368
-0.000855647
-0.000930889
-0.00103455
-0.00103921
-0.00123729
-0.00114192
-0.00145668
-0.00123303
-0.00167896
-0.00130423
-0.00188252
-0.00134211
-0.00203587
-0.00134367
-0.00207163
-0.00204832
-0.00125214
-8.95566e-06
4.16278e-06
-3.2878e-05
-9.00019e-06
-7.01672e-05
-3.79535e-05
-0.000119157
-7.79258e-05
-0.000178159
-0.000125208
-0.00024559
-0.000177974
-0.000320057
-0.000236841
-0.000400391
-0.000304794
-0.000485567
-0.000386472
-0.000574525
-0.000487148
-0.000665897
-0.000611713
-0.00075772
-0.000763824
-0.000847168
-0.000945102
-0.00093034
-0.00115411
-0.00100203
-0.00138499
-0.00105559
-0.0016254
-0.00108281
-0.00185531
-0.00106808
-0.0020506
-0.00101265
-0.00212705
-0.0022091
-0.000851871
-8.3853e-06
1.25481e-05
-3.09339e-05
1.35484e-05
-6.61303e-05
-2.75708e-06
-0.000112258
-3.17977e-05
-0.000167479
-6.99879e-05
-0.000229966
-0.000115486
-0.000298014
-0.000168794
-0.00037005
-0.000232758
-0.000444549
-0.000311972
-0.000519824
-0.000411873
-0.000593737
-0.000537799
-0.00066341
-0.000694152
-0.000724976
-0.000883536
-0.000773446
-0.00110564
-0.000802606
-0.00135583
-0.00080489
-0.00162311
-0.000772423
-0.00188777
-0.000688134
-0.00213489
-0.000554775
-0.00226041
-0.00244453
-0.000319344
-7.56063e-06
2.01087e-05
-2.80958e-05
3.40836e-05
-6.02378e-05
2.93849e-05
-0.000102261
1.02254e-05
-0.000152187
-2.00619e-05
-0.000207925
-5.97475e-05
-0.000267384
-0.000109335
-0.000328486
-0.000171656
-0.000389056
-0.000251401
-0.0004466
-0.00035433
-0.000498003
-0.000486396
-0.00053924
-0.000652915
-0.000565163
-0.000857612
-0.000569466
-0.00110134
-0.000544779
-0.00138051
-0.00048237
-0.00168552
-0.000374673
-0.00199547
-0.000210496
-0.00229907
4.53941e-05
-0.0025163
-0.00275391
0.000354773
-6.52949e-06
2.66382e-05
-2.45092e-05
5.20633e-05
-5.27571e-05
5.76327e-05
-8.95691e-05
4.70374e-05
-0.000132821
2.31899e-05
-0.000180135
-1.24337e-05
-0.00022897
-6.04996e-05
-0.000276638
-0.000123989
-0.00032018
-0.000207859
-0.000356127
-0.000318382
-0.000380206
-0.000462318
-0.000387055
-0.000646065
-0.00037009
-0.000874578
-0.000321576
-0.00114985
-0.000233078
-0.00146901
-9.51005e-05
-0.0018235
0.000104841
-0.00219541
0.000360761
-0.00255499
0.000698589
-0.00285413
-0.00320774
0.00115242
-5.3498e-06
3.1988e-05
-2.03542e-05
6.70678e-05
-4.40261e-05
8.13046e-05
-7.46826e-05
7.76938e-05
-0.00011006
5.85671e-05
-0.000147452
2.49583e-05
-0.000183815
-2.41368e-05
-0.000215759
-9.20448e-05
-0.000239428
-0.000184189
-0.000250244
-0.000307566
-0.000242647
-0.000469915
-0.00020985
-0.000678862
-0.000143841
-0.000940587
-3.5592e-05
-0.0012581
0.000124279
-0.00162888
0.000343962
-0.00204318
0.000632675
-0.00248412
0.000995517
-0.00291783
0.00143113
-0.00328974
-0.00376888
0.00199226
-4.08554e-06
3.60735e-05
-1.58324e-05
7.88146e-05
-3.44235e-05
9.98957e-05
-5.81837e-05
0.000101454
-8.46867e-05
8.50701e-05
-0.000110879
5.1151e-05
-0.000133154
-1.86237e-06
-0.000147355
-7.78435e-05
-0.000148647
-0.000182897
-0.00013125
-0.000324964
-8.82874e-05
-0.000512877
-1.1598e-05
-0.000755552
0.000108075
-0.00106026
0.000280423
-0.00143045
0.000514586
-0.00186305
0.00081733
-0.00234592
0.0011953
-0.0028621
0.0016491
-0.00337162
0.00217485
-0.00381549
-0.00440068
0.00280666
-2.8022e-06
3.88757e-05
-1.11524e-05
8.71648e-05
-2.43481e-05
0.000113091
-4.06852e-05
0.000117791
-5.75465e-05
0.000101931
-7.14975e-05
6.5102e-05
-7.83348e-05
4.97492e-06
-7.30666e-05
-8.31117e-05
-4.98694e-05
-0.000206095
-1.73498e-06
-0.000373098
7.95632e-05
-0.000594175
0.000203288
-0.000879276
0.000379351
-0.00123632
0.000617295
-0.0016684
0.000924809
-0.00217056
0.00130517
-0.00272629
0.00175998
-0.00331691
0.00228394
-0.00389558
0.00287383
-0.00440539
-0.00505702
0.00353017
-1.56138e-06
4.04371e-05
-6.51424e-06
9.21177e-05
-1.41864e-05
0.000120764
-2.27877e-05
0.000126392
-2.94685e-05
0.000108612
-3.03754e-05
6.60088e-05
-2.06985e-05
-4.70195e-06
5.36451e-06
-0.000109175
5.49162e-05
-0.000255646
0.000135923
-0.000454105
0.000257683
-0.000715936
0.00043027
-0.00105186
0.000663529
-0.00146958
0.00096548
-0.00197035
0.00134044
-0.00254552
0.00178691
-0.00317275
0.00229843
-0.00382843
0.00286436
-0.00446151
0.00348314
-0.00502417
-0.00569464
0.00412077
-4.15764e-07
4.08529e-05
-2.09023e-06
9.37922e-05
-4.27724e-06
0.000122951
-5.02406e-06
0.000127139
-1.19498e-06
0.000104783
1.15242e-05
5.32897e-05
3.86292e-05
-3.1807e-05
8.68337e-05
-0.000157379
0.000164027
-0.00033284
0.000279439
-0.000569517
0.000443123
-0.000879619
0.00066522
-0.00127396
0.00095436
-0.00175872
0.00131543
-0.00233141
0.00174732
-0.00297741
0.00224239
-0.00366783
0.00278561
-0.00437165
0.00336227
-0.00503817
0.00397238
-0.00563428
-0.00628292
0.00456066
5.99528e-07
4.02533e-05
1.99099e-06
9.24007e-05
5.12261e-06
0.000119819
1.21996e-05
0.000120062
2.67175e-05
9.02653e-05
5.35014e-05
2.65058e-05
9.87358e-05
-7.70414e-05
0.000169993
-0.000228636
0.000276154
-0.000439002
0.000427218
-0.000720581
0.000633533
-0.00108593
0.000904379
-0.00154481
0.00124568
-0.00210003
0.00165738
-0.00274311
0.00213132
-0.00345135
0.00265299
-0.0041895
0.00320075
-0.00491942
0.0037591
-0.00559651
0.00432832
-0.00620351
-0.00680622
0.00485163
1.46142e-06
3.87919e-05
5.65949e-06
8.82026e-05
1.38678e-05
0.000111611
2.86485e-05
0.000105282
5.39383e-05
6.49755e-05
9.51384e-05
-1.46943e-05
0.000159166
-0.000141069
0.000254433
-0.000323902
0.000390634
-0.000575203
0.000578188
-0.000908135
0.00082695
-0.00133469
0.00114404
-0.0018619
0.00153095
-0.00248694
0.00198098
-0.00319314
0.00247843
-0.0039488
0.00300269
-0.00471375
0.00352953
-0.00544626
0.00404695
-0.00611392
0.00455416
-0.00671072
-0.007264
0.00501194
2.17434e-06
3.66176e-05
8.91285e-06
8.14641e-05
2.19444e-05
9.85791e-05
4.42975e-05
8.29285e-05
8.04448e-05
2.88281e-05
0.000136436
-7.06856e-05
0.000219945
-0.000224578
0.000340156
-0.000444113
0.000507305
-0.000742353
0.000731631
-0.00113246
0.00102139
-0.00162445
0.00137995
-0.00222045
0.00180266
-0.00290965
0.0022753
-0.00366578
0.00277569
-0.0044492
0.00327986
-0.00521792
0.00376599
-0.0059324
0.00422881
-0.00657674
0.0046673
-0.00714921
-0.00765288
0.00505618
2.76033e-06
3.38573e-05
1.18172e-05
7.24072e-05
2.94748e-05
8.09216e-05
5.93384e-05
5.30649e-05
0.000106516
-1.83492e-05
0.000177771
-0.000141941
0.000281531
-0.000328337
0.000427588
-0.000590171
0.000626272
-0.000941037
0.000886743
-0.00139293
0.00121424
-0.00195195
0.00160671
-0.00261292
0.00205224
-0.00335518
0.00252961
-0.00414315
0.00301292
-0.00493251
0.00347901
-0.005684
0.00391289
-0.00636628
0.00431585
-0.0069797
0.00468671
-0.00752008
-0.00801361
0.00504745
3.26067e-06
3.05966e-05
1.45007e-05
6.11672e-05
3.67037e-05
5.87186e-05
7.41556e-05
1.5613e-05
0.00013269
-7.68832e-05
0.000219827
-0.000229079
0.00034467
-0.00045318
0.000517318
-0.000762819
0.000747492
-0.00117121
0.00104208
-0.00168752
0.00140173
-0.0023116
0.00181763
-0.00302882
0.00227069
-0.00380824
0.0027349
-0.00460736
0.00318454
-0.00538215
0.00360139
-0.00610085
0.00397973
-0.00674461
0.00432677
-0.00732674
0.00464637
-0.00783968
-0.00834276
0.00497552
3.73033e-06
2.68663e-05
1.7137e-05
4.77606e-05
4.3965e-05
3.18906e-05
8.92686e-05
-2.96906e-05
0.00015967
-0.000147285
0.000263436
-0.000332844
0.000410154
-0.000599899
0.000609724
-0.000962388
0.000870292
-0.00143178
0.00119506
-0.00201229
0.00157869
-0.00269523
0.00200522
-0.00345535
0.00244991
-0.00425293
0.00288553
-0.00504298
0.00329045
-0.00578708
0.00365412
-0.00646452
0.00397947
-0.00706996
0.00427691
-0.00762418
0.00456561
-0.00812838
-0.00865184
0.00487469
4.23073e-06
2.26355e-05
1.99219e-05
3.20694e-05
5.16334e-05
1.79145e-07
0.000105247
-8.33045e-05
0.000188191
-0.000230228
0.000309371
-0.000454024
0.000478517
-0.000769045
0.000704588
-0.00118846
0.000992968
-0.00172016
0.0013418
-0.00236112
0.00173896
-0.00309239
0.00216225
-0.00387863
0.00258423
-0.00467491
0.00298023
-0.00543898
0.00333553
-0.00614238
0.00364786
-0.00677685
0.00392645
-0.00734854
0.00418562
-0.00788335
0.00444418
-0.00838695
-0.00892396
0.00471631
4.82166e-06
1.78139e-05
2.30442e-05
1.38469e-05
6.00705e-05
-3.68472e-05
0.000122613
-0.000145847
0.000218858
-0.000326473
0.000358125
-0.00059329
0.000549747
-0.000960668
0.000800795
-0.00143951
0.00111263
-0.00203199
0.00147733
-0.00272582
0.00187625
-0.00349132
0.00228313
-0.00428552
0.00267137
-0.00506315
0.00302193
-0.00578954
0.00332801
-0.00644846
0.00359442
-0.00704327
0.00383447
-0.00758859
0.0040631
-0.00811198
0.00429688
-0.00862073
-0.00917465
0.00454757
5.55479e-06
1.22591e-05
2.66678e-05
-7.26618e-06
6.95612e-05
-7.97405e-05
0.000141749
-0.000218035
0.000252017
-0.000436741
0.000409727
-0.000751
0.000623098
-0.00117404
0.000896237
-0.00171265
0.0012254
-0.00236115
0.0015963
-0.00309672
0.00198523
-0.00388024
0.00236487
-0.00466516
0.0027126
-0.00541088
0.00301663
-0.00609356
0.00327751
-0.00670934
0.00350506
-0.00727082
0.00371417
-0.0077977
0.00391874
-0.00831656
0.00413304
-0.00883502
-0.00940487
0.00436326
6.4662e-06
5.79288e-06
3.09001e-05
-3.17001e-05
8.02857e-05
-0.000129126
0.000162827
-0.000300576
0.000287653
-0.000561568
0.000463643
-0.00092699
0.000697043
-0.00140744
0.000987954
-0.00200356
0.00132688
-0.00270008
0.00169387
-0.00346372
0.00206246
-0.00424883
0.00240736
-0.00501007
0.00271202
-0.00571553
0.00297197
-0.00635351
0.00319351
-0.00693089
0.00338923
-0.00746653
0.00357373
-0.0079822
0.00375901
-0.00850184
0.00395631
-0.00903232
-0.00961761
0.00416905
7.57468e-06
-1.7818e-06
3.57894e-05
-5.99148e-05
9.22877e-05
-0.000185624
0.000185776
-0.000394065
0.000325358
-0.00070115
0.000518777
-0.00112041
0.000769394
-0.00165806
0.00107249
-0.00230665
0.00141287
-0.00304046
0.00176647
-0.00381732
0.0021068
-0.00458916
0.00241303
-0.0053163
0.00267542
-0.00597792
0.00289582
-0.00657392
0.00308433
-0.00711939
0.00325434
-0.00763654
0.00341902
-0.00814688
0.00358804
-0.00867086
0.00377015
-0.00921442
-0.00981401
0.00396655
8.88173e-06
-1.06635e-05
4.13222e-05
-9.23553e-05
0.000105476
-0.000249778
0.000210288
-0.000498877
0.000364361
-0.000855223
0.000573565
-0.00132961
0.000837546
-0.00192204
0.00114637
-0.00261548
0.00147993
-0.00337402
0.00181224
-0.00414963
0.00211927
-0.00489618
0.00238601
-0.00558303
0.00260921
-0.00620112
0.00279545
-0.00676016
0.00295672
-0.00728066
0.00310587
-0.00778569
0.00325402
-0.00829504
0.00340866
-0.0088255
0.00357636
-0.00938213
-0.00999458
0.00375694
1.0374e-05
-2.10376e-05
4.74299e-05
-0.000129411
0.000119638
-0.000321986
0.000235847
-0.000615086
0.000403597
-0.00102297
0.000626144
-0.00155216
0.000898794
-0.00219469
0.00120656
-0.00292324
0.00152588
-0.00369334
0.00183112
-0.00445487
0.00210254
-0.0051676
0.0023313
-0.0058118
0.00251959
-0.00638941
0.00267699
-0.00691756
0.00281588
-0.00741955
0.00294771
-0.00791752
0.00308146
-0.00842879
0.0032227
-0.00896674
0.00337633
-0.00953575
-0.0101596
0.00354135
1.2027e-05
-3.30645e-05
5.40002e-05
-0.000171384
0.000134468
-0.000402454
0.00026178
-0.000742398
0.000441814
-0.00120301
0.000674542
-0.00178489
0.000950648
-0.00247079
0.00125081
-0.0032234
0.00154986
-0.00399238
0.0018245
-0.00472952
0.00206028
-0.00540338
0.00225407
-0.00600559
0.00241206
-0.0065474
0.00254534
-0.00705084
0.00266562
-0.00753983
0.00278257
-0.00803447
0.00290316
-0.00854937
0.00303143
-0.00909502
0.00317102
-0.00967534
-0.0103091
0.00332051
1.38082e-05
-4.68727e-05
6.08897e-05
-0.000218466
0.000149591
-0.000491156
0.000287315
-0.000880121
0.00047768
-0.00139337
0.000716875
-0.00202408
0.00099109
-0.00274501
0.00127787
-0.00351018
0.00155229
-0.00426681
0.00179487
-0.00497209
0.00199659
-0.00560511
0.00215911
-0.00616811
0.00229121
-0.0066795
0.00240426
-0.00716389
0.00250868
-0.00764425
0.0026123
-0.00813809
0.00272036
-0.00865743
0.00283579
-0.00921044
0.00296124
-0.00980079
-0.010443
0.00309516
1.56803e-05
-6.2553e-05
6.79334e-05
-0.000270719
0.00016459
-0.000587813
0.000311635
-0.00102717
0.000509893
-0.00159163
0.000751513
-0.0022657
0.00101874
-0.00301224
0.00128745
-0.00377889
0.00153459
-0.00451395
0.00174525
-0.00518276
0.00191552
-0.00577537
0.00205062
-0.00630321
0.00216069
-0.00678957
0.00225653
-0.00725973
0.00234699
-0.0077347
0.00243819
-0.00822929
0.00253399
-0.00875323
0.00263648
-0.00931294
0.00274763
-0.00991194
-0.0105613
0.0028659
1.76023e-05
-8.01553e-05
7.49534e-05
-0.00032807
0.000179029
-0.000691888
0.000333932
-0.00118207
0.000537274
-0.00179497
0.000777203
-0.00250563
0.00103291
-0.00326795
0.0012801
-0.00402608
0.00149881
-0.00473265
0.00167891
-0.00536286
0.00182077
-0.00591723
0.00193207
-0.00641452
0.0020233
-0.0068808
0.00210417
-0.0073406
0.00218189
-0.00781243
0.00226114
-0.00830855
0.00234472
-0.0088368
0.00243412
-0.00940234
0.0025308
-0.0100086
-0.0106638
0.00263331
1.95307e-05
-9.9686e-05
8.1765e-05
-0.000390304
0.000192472
-0.000802595
0.000353449
-0.00134305
0.000558842
-0.00200036
0.000793139
-0.00273993
0.00103359
-0.0035084
0.00125706
-0.00424955
0.00144738
-0.00492298
0.00159897
-0.00551444
0.00171558
-0.00603383
0.00180627
-0.00650521
0.00188116
-0.0069557
0.00194862
-0.00740805
0.00201435
-0.00787816
0.00208185
-0.00837605
0.00215312
-0.00890807
0.00222925
-0.00947847
0.00231129
-0.0100907
-0.0107504
0.00239794
2.14204e-05
-0.000121106
8.81821e-05
-0.000457066
0.000204502
-0.000918915
0.000369523
-0.00150807
0.000573869
-0.00220471
0.000798968
-0.00296503
0.0010213
-0.00373072
0.00121994
-0.00444819
0.00138283
-0.00508587
0.00150833
-0.00563995
0.00160265
-0.00612815
0.0016754
-0.00657796
0.00173583
-0.00701613
0.00179092
-0.00746314
0.00184508
-0.00793232
0.00190086
-0.00843182
0.00195968
-0.00896689
0.00202234
-0.00954114
0.0020896
-0.0101579
-0.0108211
0.00216029
2.32246e-05
-0.000144331
9.40238e-05
-0.000527865
0.000214739
-0.00103963
0.000381616
-0.00167494
0.000581908
-0.002405
0.000794766
-0.00317789
0.000996996
-0.00393295
0.00117063
-0.00462182
0.00130758
-0.00522283
0.00140952
-0.00574188
0.00148419
-0.00620282
0.00154111
-0.00663488
0.00158846
-0.00706348
0.00163186
-0.00750653
0.00167463
-0.0079751
0.00171862
-0.00847581
0.00176482
-0.00901309
0.00181386
-0.00959017
0.00186621
-0.0102103
-0.0108758
0.00192087
2.48972e-05
-0.000169228
9.91199e-05
-0.000602088
0.000222858
-0.00116337
0.000389338
-0.00184142
0.000582792
-0.00259846
0.000780965
-0.00337606
0.00096193
-0.00411392
0.00111104
-0.00477093
0.00122389
-0.00533567
0.00130465
-0.00582264
0.00136192
-0.0062601
0.00140468
-0.00667764
0.0014399
-0.0070987
0.00147199
-0.00753863
0.00150343
-0.00800654
0.00153552
-0.00850789
0.00156897
-0.00904654
0.00160422
-0.00962543
0.00164157
-0.0102476
-0.0109144
0.00168014
2.63932e-05
-0.000195621
0.000103318
-0.000679013
0.000228598
-0.00128865
0.000392459
-0.00200529
0.00057661
-0.00278261
0.000758269
-0.00355772
0.000917489
-0.00427314
0.00104304
-0.00489649
0.00113371
-0.00542635
0.0011955
-0.00588442
0.00123723
-0.00630183
0.00126706
-0.00670747
0.00129077
-0.00712241
0.00131179
-0.00755964
0.00133187
-0.00802663
0.00135194
-0.00852796
0.00137249
-0.00906709
0.00139384
-0.00964678
0.00141612
-0.0102699
-0.0109368
0.00143856
2.7671e-05
-0.000223292
0.00010649
-0.000757831
0.000231776
-0.00141393
0.000390908
-0.00216442
0.000563673
-0.00295537
0.000727569
-0.00372161
0.000865109
-0.00441068
0.00096837
-0.00499975
0.00103877
-0.00549675
0.00108348
-0.00592914
0.00111115
-0.0063295
0.00112896
-0.00672528
0.00114159
-0.00713504
0.00115161
-0.00756966
0.00116028
-0.0080353
0.00116822
-0.0085359
0.00117576
-0.00907464
0.00118312
-0.00965414
0.00119027
-0.010277
-0.0109431
0.0011966
2.86935e-05
-0.000251986
0.000108534
-0.000837672
0.000232287
-0.00153769
0.000384757
-0.00231689
0.000544462
-0.00311508
0.000689863
-0.00386702
0.000806195
-0.00452701
0.00088857
-0.00508212
0.000940483
-0.00554866
0.000969748
-0.0059584
0.000984509
-0.00634426
0.000990928
-0.00673169
0.000992726
-0.00713684
0.000991786
-0.00756872
0.00098897
-0.00803248
0.000984678
-0.00853161
0.000979127
-0.00906909
0.000972435
-0.00964745
0.000964464
-0.0102691
-0.0109334
0.000954681
2.94298e-05
-0.000281416
0.000109382
-0.000917624
0.000230107
-0.00165841
0.000374207
-0.00246099
0.000519579
-0.00326045
0.000646185
-0.00399362
0.000742059
-0.00462288
0.000804993
-0.00514506
0.000840028
-0.0055837
0.000855188
-0.00597356
0.000857921
-0.00634699
0.000853401
-0.00672717
0.000844515
-0.00712796
0.000832602
-0.00755681
0.000818228
-0.00801811
0.000801629
-0.00851501
0.000782917
-0.00905037
0.000762132
-0.00962666
0.000739098
-0.010246
-0.0109075
0.000713247
2.98561e-05
-0.000311272
0.000108996
-0.000996764
0.000225285
-0.0017747
0.000359558
-0.00259526
0.000489698
-0.00339059
0.000597554
-0.00410148
0.000673897
-0.00469923
0.000718798
-0.00518996
0.000738367
-0.00560326
0.000740511
-0.00597571
0.000731878
-0.00633836
0.000716722
-0.00671202
0.000697231
-0.00710846
0.000674322
-0.0075339
0.000648332
-0.00799212
0.000619375
-0.00848605
0.000587455
-0.00901845
0.000552553
-0.00959176
0.000514508
-0.010208
-0.0108657
0.000472725
2.9956e-05
-0.000341228
0.000107372
-0.00107418
0.000217931
-0.00188526
0.00034118
-0.00271851
0.000455524
-0.00350493
0.000544937
-0.00419089
0.000602768
-0.00475706
0.000630954
-0.00521814
0.000636272
-0.00560858
0.000626271
-0.00596571
0.000606763
-0.00631885
0.000581175
-0.00668643
0.000551121
-0.00707841
0.000517195
-0.00749997
0.00047955
-0.00795447
0.000438207
-0.00844471
0.000393078
-0.00897332
0.000344081
-0.00954276
0.0002909
-0.0101548
-0.0108083
0.000233449
2.97211e-05
-0.000370949
0.000104533
-0.00114899
0.000208209
-0.00198894
0.000319494
-0.0028298
0.00041776
-0.0036032
0.000489228
-0.00426236
0.000529592
-0.00479742
0.00054227
-0.00523082
0.000534362
-0.00560067
0.000512906
-0.00594425
0.000482885
-0.00628883
0.000447003
-0.00665055
0.000406412
-0.00703782
0.000361456
-0.00745502
0.000312142
-0.00790516
0.000258387
-0.00839096
0.000200112
-0.00891505
0.000137075
-0.00947973
6.89846e-05
-0.0100867
-0.0107323
-6.94753e-06
2.91505e-05
-0.000400099
0.00010053
-0.00122037
0.000196322
-0.00208473
0.000294943
-0.00292842
0.000377082
-0.00368534
0.00043123
-0.0043165
0.000455159
-0.00482135
0.000453406
-0.00522907
0.000433133
-0.0055804
0.000400763
-0.00591188
0.000360496
-0.00624856
0.000314424
-0.00660448
0.000263317
-0.00698671
0.000207324
-0.00739903
0.000146365
-0.0078442
8.01358e-05
-0.00832473
8.41697e-06
-0.00884333
-6.83714e-05
-0.00940294
-0.000151258
-0.0100038
-0.0106428
-0.00024082
2.82502e-05
-0.00042835
9.54343e-05
-0.00128756
0.000182499
-0.00217179
0.000267974
-0.00301389
0.000334125
-0.00375149
0.000371655
-0.00435404
0.000380134
-0.00482983
0.000364902
-0.00521384
0.000332976
-0.00554847
0.00029012
-0.00586903
0.000239815
-0.00619826
0.000183623
-0.00654828
0.000122038
-0.00692513
5.49502e-05
-0.00733194
-1.77724e-05
-0.00777148
-9.61046e-05
-0.00824639
-0.000180509
-0.00875893
-0.000271403
-0.00931204
-0.000369304
-0.00990592
-0.0105379
-0.000474149
2.70326e-05
-0.000455382
8.9333e-05
-0.00134986
0.000166986
-0.00224944
0.000239023
-0.00308593
0.000289466
-0.00380193
0.000311121
-0.00437569
0.000305074
-0.00482378
0.000277195
-0.00518596
0.000234205
-0.00550548
0.000181199
-0.00581602
0.000121048
-0.00613811
5.4721e-05
-0.00648196
-1.74262e-05
-0.00685298
-9.52804e-05
-0.00725408
-0.00017936
-0.0076874
-0.000270091
-0.00815566
-0.000367562
-0.00866146
-0.000472252
-0.00920735
-0.000584661
-0.00979351
-0.0104175
-0.000705058
2.5515e-05
-0.000480897
8.23265e-05
-0.00140667
0.000150032
-0.00231715
0.000208505
-0.0031444
0.000243628
-0.00383706
0.000250161
-0.00438222
0.000230441
-0.00480406
0.00019064
-0.00514616
0.00013708
-0.00545192
7.41598e-05
-0.0057531
4.0264e-06
-0.00606797
-7.2001e-05
-0.00640593
-0.000154321
-0.00677066
-0.000243213
-0.00716519
-0.000338857
-0.00759175
-0.000441717
-0.0080528
-0.000552117
-0.00855106
-0.000670473
-0.009089
-0.000797261
-0.00966672
-0.0102819
-0.000932857
2.37193e-05
-0.000504616
7.45223e-05
-0.00145747
0.000131885
-0.00237451
0.000176806
-0.00318932
0.000197072
-0.00385732
0.000189227
-0.00437438
0.000156613
-0.00477145
0.000105522
-0.00509506
4.17822e-05
-0.00538819
-3.07718e-05
-0.00568054
-0.000110211
-0.00598853
-0.000196342
-0.0063198
-0.00028905
-0.00667795
-0.00038875
-0.00706549
-0.000495821
-0.00748468
-0.000610713
-0.00793791
-0.000733875
-0.00842789
-0.000865749
-0.00895712
-0.00100678
-0.00952569
-0.0101314
-0.00115735
2.16709e-05
-0.000526287
6.60323e-05
-0.00150183
0.000112785
-0.00242127
0.000144279
-0.00322082
0.000150204
-0.00386325
0.000128699
-0.00435287
8.38986e-05
-0.00472665
2.20497e-05
-0.00503322
-5.14559e-05
-0.00531468
-0.000133373
-0.00559863
-0.0002224
-0.00589951
-0.000318307
-0.00622389
-0.000421266
-0.00657499
-0.000531682
-0.00695508
-0.000650033
-0.00736633
-0.000776828
-0.00781112
-0.000912591
-0.00829213
-0.00105782
-0.00881189
-0.00121292
-0.00937059
-0.00996611
-0.00137818
1.93989e-05
-0.000545686
5.69702e-05
-0.0015394
9.29597e-05
-0.00245726
0.000111247
-0.0032391
0.000103372
-0.00385537
6.88936e-05
-0.0043184
1.25666e-05
-0.00467032
-5.95215e-05
-0.00496113
-0.00014251
-0.00523169
-0.000233706
-0.00550743
-0.000332128
-0.00580108
-0.000437722
-0.0061183
-0.0005508
-0.00646192
-0.000671815
-0.00683406
-0.000801302
-0.00723684
-0.000939835
-0.00767258
-0.00108801
-0.00814395
-0.00124642
-0.00865349
-0.00141539
-0.00920162
-0.00978643
-0.00159507
1.69358e-05
-0.000562622
4.7449e-05
-0.00156992
7.26284e-05
-0.00248243
7.80012e-05
-0.00324448
5.68765e-05
-0.00383425
1.01739e-05
-0.00427169
-5.71725e-05
-0.00460297
-0.000139104
-0.0048792
-0.000231317
-0.00513948
-0.000331598
-0.00540715
-0.000439271
-0.00569341
-0.000554439
-0.00600313
-0.000677504
-0.00633885
-0.000808974
-0.00670259
-0.000949434
-0.00709638
-0.00109952
-0.0075225
-0.0012599
-0.00798357
-0.00143127
-0.00848212
-0.00161392
-0.00901897
-0.00959262
-0.00180772
1.43215e-05
-0.000576943
3.75823e-05
-0.00159318
5.19941e-05
-0.00249685
4.47994e-05
-0.00323728
1.12e-05
-0.00380065
-4.74546e-05
-0.00421304
-0.000125206
-0.00452522
-0.000216578
-0.00478782
-0.000317755
-0.0050383
-0.000426942
-0.00529796
-0.000543722
-0.00557663
-0.000668328
-0.00587852
-0.000801231
-0.00620595
-0.000942994
-0.00656083
-0.00109424
-0.00694513
-0.00125567
-0.00736107
-0.00142804
-0.0078112
-0.00161213
-0.00829803
-0.00180823
-0.00882287
-0.009385
-0.00201585
1.15962e-05
-0.00058854
2.74807e-05
-0.00160906
3.12414e-05
-0.00250061
1.20802e-05
-0.00321812
-3.40674e-05
-0.0037545
-0.000103704
-0.0041434
-0.000191376
-0.00443755
-0.000291835
-0.00468737
-0.00040173
-0.00492841
-0.000519644
-0.00518005
-0.000645375
-0.0054509
-0.000779263
-0.00574463
-0.00092184
-0.00606337
-0.00107371
-0.00640895
-0.00123556
-0.00678329
-0.0014081
-0.00718853
-0.0015922
-0.0076271
-0.00178877
-0.00810145
-0.00199808
-0.00861357
-0.00916389
-0.00221918
8.76628e-06
-0.000597306
1.72407e-05
-0.00161754
1.06374e-05
-0.002494
-2.06682e-05
-0.00318682
-7.8273e-05
-0.00369689
-0.000158435
-0.00406324
-0.000255572
-0.00434041
-0.000364785
-0.00457815
-0.000483164
-0.00481003
-0.000609619
-0.00505359
-0.00074413
-0.00531639
-0.000887127
-0.00560164
-0.00103919
-0.0059113
-0.00120098
-0.00624716
-0.0013732
-0.00661107
-0.00155663
-0.0070051
-0.0017522
-0.00743154
-0.00196099
-0.00789266
-0.00218324
-0.00839132
-0.00892977
-0.00241737
5.85752e-06
-0.000603163
6.89029e-06
-0.00161857
-1.00363e-05
-0.00247708
-5.28473e-05
-0.003144
-0.000121364
-0.00362838
-0.000211524
-0.00397308
-0.0003177
-0.00423424
-0.000435354
-0.0044605
-0.000561984
-0.0046834
-0.000696785
-0.00491879
-0.00083989
-0.00517329
-0.000991805
-0.00544972
-0.00115316
-0.00574995
-0.00132465
-0.00607567
-0.00150702
-0.0064287
-0.00170107
-0.00681105
-0.00190782
-0.00722479
-0.00212854
-0.00767195
-0.00236346
-0.0081564
-0.00868313
-0.0026101
2.81606e-06
-0.000605979
-3.43853e-06
-0.00161231
-3.07758e-05
-0.00244974
-8.42545e-05
-0.00309053
-0.000163204
-0.00354943
-0.000262868
-0.00387342
-0.000377682
-0.00411942
-0.000503476
-0.0043347
-0.000638122
-0.00454875
-0.000781064
-0.00477585
-0.000932562
-0.00502179
-0.00109319
-0.0052891
-0.00126362
-0.00557952
-0.00144458
-0.0058947
-0.00163686
-0.00623643
-0.00184127
-0.00660663
-0.0020589
-0.00700716
-0.00229115
-0.00743969
-0.00253842
-0.00790913
-0.00842397
-0.00279758
-6.33344e-07
-0.000605346
-1.40569e-05
-0.00159889
-5.09292e-05
-0.00241287
-0.000114807
-0.00302665
-0.000203686
-0.00346055
-0.000312383
-0.00376472
-0.000435455
-0.00399635
-0.000569096
-0.00420106
-0.000711518
-0.00440633
-0.000862382
-0.00462499
-0.00102205
-0.00486212
-0.00119117
-0.00511999
-0.00137043
-0.00540025
-0.00156063
-0.00570451
-0.00176256
-0.0060345
-0.00197709
-0.0063921
-0.00220534
-0.00677891
-0.00244872
-0.00719631
-0.00270793
-0.00764992
-0.00815186
-0.00298004
-3.40242e-06
-0.000601944
-2.43029e-05
-0.00157799
-7.0588e-05
-0.00236658
-0.000144408
-0.00295283
-0.000242723
-0.00336223
-0.000360001
-0.00364744
-0.000490965
-0.00386539
-0.000632162
-0.00405987
-0.000782115
-0.00425638
-0.000940668
-0.00446643
-0.00110828
-0.0046945
-0.00128564
-0.00494263
-0.00147349
-0.00521239
-0.00167266
-0.00550534
-0.00188398
-0.00582318
-0.00210841
-0.00616767
-0.00234713
-0.00654018
-0.00260149
-0.00694196
-0.00287156
-0.00737985
-0.00786871
-0.00315472
-6.4185e-06
-0.000595525
-3.43389e-05
-0.00155007
-8.96939e-05
-0.00231123
-0.000172991
-0.00286953
-0.000280248
-0.00325498
-0.000405668
-0.00352202
-0.000544167
-0.00372689
-0.00069263
-0.00391141
-0.000849857
-0.00409915
-0.00101585
-0.00430044
-0.00119116
-0.0045192
-0.0013765
-0.0047573
-0.00157266
-0.00501622
-0.00178051
-0.0052975
-0.00200094
-0.00560275
-0.00223502
-0.00593359
-0.00248403
-0.00629118
-0.00274925
-0.00667673
-0.00303265
-0.00709646
-0.00758563
-0.00331572
-9.42851e-06
-0.000586097
-4.41447e-05
-0.00151535
-0.000108186
-0.00224719
-0.000200486
-0.00277723
-0.000316202
-0.00313926
-0.000449339
-0.00338888
-0.000595023
-0.0035812
-0.000750458
-0.00375597
-0.000914694
-0.00393491
-0.00108787
-0.00412726
-0.0012706
-0.00433647