/*--------------------------------*- C++ -*----------------------------------*\
  =========                 |
  \\      /  F ield         | OpenFOAM: The Open Source CFD Toolbox
   \\    /   O peration     | Website:  https://openfoam.org
    \\  /    A nd           | Version:  7
     \\/     M anipulation  |
\*---------------------------------------------------------------------------*/
FoamFile
{
    version     2.0;
    format      ascii;
    class       surfaceScalarField;
    location    "22";
    object      phi;
}
// * * * * * * * * * * * * * * * * * * * * * * * * * * * * * * * * * * * * * //

dimensions      [0 3 -1 0 0 0 0];

internalField   nonuniform List<scalar> 
815
(
0.000164713
0.000714569
0.000184267
0.000791327
0.000204701
0.000873241
0.000225885
0.000960425
0.000247658
0.00105296
0.000269837
0.00115089
0.00125424
0.000158477
0.000623471
0.000179147
0.0006939
0.000201062
0.000769412
0.000224134
0.000850169
0.000248252
0.000936307
0.000273275
0.00102794
0.000299034
0.00112514
0.000325333
0.00122794
0.000351946
0.00133637
0.000378619
0.00145037
0.000405074
0.00156986
0.000431013
0.00169473
0.000456121
0.00182481
0.000480072
0.00195989
0.000502541
0.00209973
0.000523205
0.00224407
0.00054176
0.00239262
0.00254507
0.000169506
0.000602396
0.000192119
0.000671287
0.000216227
0.000745303
0.000241765
0.000824631
0.000268642
0.000909431
0.000296737
0.000999842
0.000325903
0.00109597
0.00035596
0.00119789
0.000386699
0.00130563
0.000417881
0.00141919
0.000449236
0.00153851
0.000480472
0.0016635
0.000511272
0.00179401
0.000541305
0.00192985
0.000570232
0.0020708
0.000597712
0.00221659
0.000623414
0.00236692
0.000647024
0.00252145
0.00066826
0.00267986
0.000686875
0.00284177
0.000702674
0.0030068
0.000715518
0.00317455
0.00334452
0.00072534
0.000179166
0.000579774
0.000203545
0.000646907
0.000229662
0.000719186
0.000257473
0.00079682
0.000286909
0.000879995
0.000317873
0.000968877
0.000350241
0.0010636
0.000383855
0.00116427
0.000418524
0.00127096
0.000454026
0.00138369
0.000490106
0.00150243
0.000526479
0.00162712
0.000562834
0.00175765
0.000598839
0.00189385
0.000634143
0.0020355
0.000668392
0.00218234
0.000701229
0.00233408
0.000732312
0.00249037
0.00076132
0.00265085
0.000787965
0.00281512
0.000812004
0.00298277
0.000833252
0.00315331
0.00332618
0.000851597
0.000187404
0.000555782
0.000213362
0.000620949
0.000241286
0.000691262
0.000271158
0.000766948
0.000302933
0.00084822
0.00033654
0.000935269
0.000371878
0.00102826
0.000408815
0.00112734
0.000447182
0.00123259
0.000486778
0.00134409
0.000527367
0.00146184
0.000568676
0.00158581
0.000610405
0.00171592
0.000652222
0.00185203
0.000693775
0.00199395
0.000734697
0.00214142
0.000774614
0.00229416
0.000813154
0.00245183
0.000849963
0.00261404
0.00088471
0.00278038
0.000917106
0.00295037
0.000946917
0.0031235
0.00329912
0.000973978
0.000169013
0.000472462
0.000194189
0.000530606
0.000221524
0.000593615
0.000251041
0.000661745
0.000282747
0.000735243
0.000316622
0.000814345
0.000352623
0.000899269
0.000390675
0.000990211
0.000430672
0.00108734
0.000472473
0.00119079
0.000515901
0.00130066
0.000560741
0.001417
0.000606741
0.00153981
0.000653613
0.00166905
0.000701035
0.00180461
0.000748657
0.00194632
0.000796105
0.00209397
0.000842991
0.00224728
0.000888921
0.0024059
0.000933508
0.00256946
0.000976384
0.0027375
0.00101721
0.00290954
0.0010557
0.003085
0.00326318
0.00109164
0.000173339
0.000199507
0.000504438
0.00022801
0.000565112
0.000258895
0.000630859
0.000292195
0.000701944
0.000327915
0.000778624
0.000366041
0.000861143
0.000406526
0.000949726
0.000449295
0.00104457
0.000494234
0.00114585
0.000541196
0.0012537
0.000589992
0.0013682
0.000640394
0.00148941
0.000692132
0.00161731
0.0007449
0.00175184
0.000798354
0.00189287
0.000852123
0.0020402
0.00090581
0.00219359
0.000959003
0.00235271
0.00101129
0.00251717
0.00106226
0.00268653
0.00111154
0.00286026
0.00115878
0.00303776
0.00321826
0.0012037
0.000203362
0.000477475
0.000232819
0.000535656
0.000264841
0.000598837
0.000299483
0.000667301
0.000336781
0.000741326
0.000376747
0.000821177
0.000419367
0.000907107
0.000464594
0.000999345
0.000512349
0.0010981
0.000562515
0.00120353
0.000614933
0.00131579
0.000669404
0.00143494
0.000725684
0.00156103
0.000783486
0.00169404
0.000842482
0.00183387
0.000902306
0.00198038
0.000962562
0.00213333
0.00102283
0.00229244
0.00108267
0.00245733
0.00114164
0.00262755
0.00119933
0.00280258
0.00125532
0.00298177
0.0031643
0.00130929
0.000205779
0.000449913
0.000235974
0.000505461
0.000268895
0.000565916
0.000304623
0.000631573
0.000343222
0.000702727
0.000384732
0.000779667
0.00042917
0.000862668
0.000476524
0.000951991
0.000526747
0.00104787
0.000579757
0.00115052
0.000635431
0.00126011
0.0006936
0.00137677
0.000754051
0.00150058
0.000816525
0.00163157
0.000880714
0.00176968
0.000946268
0.00191483
0.00101279
0.00206681
0.00107987
0.00222537
0.00114704
0.00239016
0.00121384
0.00256075
0.00127982
0.0027366
0.0013445
0.00291708
0.00310131
0.00140749
0.000206802
0.000421949
0.000237517
0.000474746
0.0002711
0.000532333
0.000307654
0.000595018
0.000347271
0.000663111
0.00039002
0.000736918
0.00043595
0.000816738
0.000485083
0.000902859
0.000537408
0.000995548
0.00059288
0.00109505
0.000651411
0.00120158
0.000712871
0.00131531
0.000777083
0.00143637
0.000843817
0.00156483
0.000912797
0.0017007
0.000983691
0.00184393
0.00105612
0.00199438
0.00112967
0.00215182
0.00120388
0.00231595
0.00127826
0.00248636
0.00135232
0.00266255
0.00142555
0.00284385
0.00302939
0.00149747
0.000206489
0.000237512
0.000443723
0.00027152
0.000498325
0.000308642
0.000557897
0.000348992
0.00062276
0.000392672
0.000693238
0.000439762
0.000769649
0.000490316
0.000852304
0.000544362
0.000941502
0.000601892
0.00103752
0.000662859
0.00114061
0.000727174
0.001251
0.000794697
0.00136885
0.000865239
0.00149429
0.000938555
0.00162739
0.00101434
0.00176814
0.00109225
0.00191647
0.00117187
0.0020722
0.00125274
0.00223508
0.00133436
0.00240474
0.00141622
0.00258069
0.00149775
0.00276232
0.00294874
0.00157841
0.000236038
0.000270241
0.000464121
0.000307674
0.000520463
0.000348479
0.000581956
0.000392782
0.000648935
0.000440695
0.000721735
0.000492309
0.00080069
0.000547687
0.000886125
0.00060686
0.000978348
0.000669824
0.00107765
0.000736533
0.00118429
0.00080689
0.00129849
0.000880748
0.00142043
0.000957902
0.00155023
0.00103809
0.00168796
0.00112098
0.00183358
0.00120619
0.00198699
0.00129327
0.002148
0.00138172
0.00231629
0.00147099
0.00249142
0.00156049
0.00267282
0.00285962
0.0016496
0.000267365
0.000429945
0.000304862
0.000482966
0.000345846
0.000540973
0.00039047
0.00060431
0.000438876
0.000673329
0.000491188
0.000748379
0.000547505
0.000829807
0.000607901
0.000917953
0.000672413
0.00101314
0.000741039
0.00111566
0.00081373
0.0012258
0.000890385
0.00134378
0.000970843
0.00146978
0.00105488
0.00160392
0.00114222
0.00174625
0.00123248
0.00189673
0.00132525
0.00205523
0.00142002
0.00222151
0.00151624
0.0023952
0.00161329
0.00257578
0.00276243
0.00171048
0.000263007
0.000300331
0.000445641
0.000341229
0.000500075
0.000385881
0.000559659
0.000434456
0.000624754
0.00048711
0.000695724
0.00054398
0.000772937
0.000605179
0.000856754
0.000670786
0.000947531
0.000740846
0.0010456
0.000815359
0.00115129
0.000894272
0.00126486
0.000977476
0.00138657
0.00106479
0.0015166
0.00115598
0.00165506
0.00125071
0.001802
0.00134859
0.00195736
0.00144912
0.00212098
0.00155175
0.00229258
0.00165582
0.00247171
0.00265763
0.00176061
0.000294216
0.000334777
0.000459514
0.000379175
0.000515261
0.000427607
0.000576322
0.00048026
0.000643072
0.000537304
0.000715892
0.000598892
0.000795167
0.000665147
0.000881276
0.000736159
0.000974591
0.000811979
0.00107547
0.000892606
0.00118424
0.000977982
0.0013012
0.00106798
0.0014266
0.00116241
0.00156063
0.00126099
0.00170342
0.00136334
0.001855
0.00146901
0.00157744
0.00168795
0.000326641
0.00037052
0.000471382
0.000418512
0.00052833
0.000470833
0.000590751
0.000527687
0.000659038
0.000589264
0.00073359
0.00065573
0.00081481
0.000727222
0.000903099
0.000803841
0.000998849
0.000885639
0.00110244
0.000972615
0.00121422
0.0010647
0.00116175
0.00126353
0.00036008
0.000407351
0.000481059
0.000459027
0.000539075
0.000515344
0.000602721
0.000576527
0.000672407
0.000642784
0.000748553
0.000714299
0.000791222
0.000873663
0.000394294
0.000445029
0.000500478
0.000560902
0.00861133
-0.000435536
-0.000590239
0.00835703
-0.00048653
0.00840792
-0.000641126
0.00845837
-0.00079589
-0.00095035
0.00850797
0.00810877
-0.000539275
0.00816007
-0.000692426
0.00820943
-0.000845247
-0.000997167
0.00825625
0.00786301
-0.00059226
0.00791276
-0.000742175
0.0079586
-0.000891081
-0.00103831
0.00799974
0.00761441
-0.000642958
0.0076597
-0.000787471
0.00769875
-0.00093013
-0.00107019
0.00773062
0.00735417
-0.000688281
0.00739164
-0.000824942
0.00742029
-0.000958778
-0.00108898
0.00743908
0.00707155
0.00709821
0.0071134
0.00711606
0.00891027
-0.00136271
0.00895794
-0.00151357
0.00900336
-0.00166182
0.00904566
-0.00180672
0.00908387
-0.0019475
0.00911685
-0.0020833
-0.00221325
0.00855622
-0.00110398
0.0086025
-0.00125618
0.0086461
-0.00140631
0.00868618
-0.00155365
0.00872178
-0.00169742
0.00875182
-0.00183677
0.00877514
-0.00197081
0.00879046
-0.00209862
-0.00221924
0.00829983
-0.00114755
0.00833936
-0.00129571
0.00837393
-0.00144088
0.00840251
-0.00158224
0.00842399
-0.00171889
0.00843714
-0.00184992
0.00844068
-0.00197436
0.00843329
-0.00209123
-0.00219959
0.00803533
-0.00118314
0.00806438
-0.00132477
0.00808583
-0.00146234
0.00809854
-0.00159494
0.00810129
-0.00172164
0.00809281
-0.00184144
0.00807184
-0.00195339
0.00803713
-0.00205652
-0.00214995
0.00775431
-0.00120683
0.00776874
-0.00133919
0.00777277
-0.00146636
0.00776522
-0.00158739
0.00774489
-0.00170131
0.0077106
-0.00180715
0.00766123
-0.00190401
0.00759574
-0.00199103
0.00744693
-0.00121468
0.00744272
-0.00133498
0.00742531
-0.00144896
0.00739359
-0.00155567
0.00734649
-0.00165421
0.00728303
-0.00174369
0.00720235
-0.00182334
-0.00189247
0.00710509
0.00707939
0.00703793
0.00697972
0.00690392
0.00680984
0.00669698
)
;

boundaryField
{
    inlet
    {
        type            calculated;
        value           nonuniform 0();
    }
    outlet
    {
        type            calculated;
        value           nonuniform 0();
    }
    cylinder
    {
        type            calculated;
        value           nonuniform 0();
    }
    top
    {
        type            symmetryPlane;
        value           nonuniform 0();
    }
    bottom
    {
        type            symmetryPlane;
        value           nonuniform 0();
    }
    defaultFaces
    {
        type            empty;
        value           nonuniform 0();
    }
    procBoundary8to1
    {
        type            processor;
        value           nonuniform List<scalar> 7(-0.00856296 -0.00830604 -0.00805603 -0.00781003 -0.00756371 -0.00730884 -0.00703449);
    }
    procBoundary8to2
    {
        type            processor;
        value           nonuniform List<scalar> 
15
(
0.000387162
0.000541019
0.00866055
0.00074544
0.000900748
0.00131356
0.00146591
0.0016164
0.00176441
0.00190929
0.00205031
0.0021867
0.00105573
-0.00886111
0.0012099
)
;
    }
    procBoundary8to3
    {
        type            processor;
        value           nonuniform List<scalar> 
11
(
0.0023612
0.0025458
0.00179978
0.00914341
0.00879645
0.00841364
0.00798748
0.00751324
-0.00206746
0.00710379
0.00656512
)
;
    }
    procBoundary8to7
    {
        type            processor;
        value           nonuniform List<scalar> 
24
(
-0.000733135
-0.00081088
-0.000893676
-0.000981608
-0.00107473
-0.00117307
-0.00127661
0.000292207
-0.00136298
-0.00147704
-0.00159632
-0.00172067
-0.00184992
-0.00198384
-0.0021222
-0.00226473
-0.00241117
-0.00256123
0.000557927
-0.00270109
-0.00286038
-0.0030226
-0.0031874
-0.00335435
)
;
    }
    procBoundary8to9
    {
        type            processor;
        value           nonuniform List<scalar> 
17
(
0.00201531
0.00218415
0.00133451
0.00146358
0.00160164
0.00136972
0.00174882
0.000831584
0.000921926
0.00102
0.000961678
0.00112621
0.00048834
0.000547272
0.000611984
0.000626548
0.000682907
)
;
    }
    procBoundary8to14
    {
        type            processor;
        value           nonuniform List<scalar> 
28
(
-0.000146147
-0.000642833
-0.000139115
-0.000148431
-0.000156544
-0.000163412
-0.000495522
-0.000145953
-0.000149442
0.000448565
-0.000176399
-0.000178218
-0.000178838
-0.000178314
0.000393775
-0.000204914
0.0004126
-0.000233189
-0.000229069
0.000396008
-0.000257289
0.000408714
-0.000286654
0.000419526
-0.000316971
0.000428273
-0.000348008
0.000434772
)
;
    }
}


// ************************************************************************* //
