/*--------------------------------*- C++ -*----------------------------------*\
  =========                 |
  \\      /  F ield         | OpenFOAM: The Open Source CFD Toolbox
   \\    /   O peration     | Website:  https://openfoam.org
    \\  /    A nd           | Version:  7
     \\/     M anipulation  |
\*---------------------------------------------------------------------------*/
FoamFile
{
    version     2.0;
    format      ascii;
    class       volVectorField;
    location    "8";
    object      U;
}
// * * * * * * * * * * * * * * * * * * * * * * * * * * * * * * * * * * * * * //

dimensions      [0 1 -1 0 0 0 0];

internalField   nonuniform List<vector> 
344
(
(0.648251 -0.00467551 5.56748e-15)
(0.646117 -0.00452288 5.61488e-15)
(0.644052 -0.00437827 5.4984e-15)
(0.642052 -0.00424108 5.49592e-15)
(0.640115 -0.00411077 5.60816e-15)
(0.638237 -0.00398685 5.67315e-15)
(0.636415 -0.00386887 5.78493e-15)
(0.634647 -0.00375643 5.88371e-15)
(0.63293 -0.00364914 5.95018e-15)
(0.631262 -0.00354668 6.04475e-15)
(0.629641 -0.00344873 6.10549e-15)
(0.628064 -0.00335501 6.1855e-15)
(0.626529 -0.00326524 6.26208e-15)
(1.02032 -0.0933186 -2.60219e-17)
(1.10307 -0.186413 -1.69139e-17)
(1.16162 -0.226136 4.52513e-17)
(1.18901 -0.22591 2.51889e-16)
(1.18594 -0.207112 4.82339e-16)
(1.16361 -0.182402 6.25726e-16)
(1.13099 -0.157677 7.02518e-16)
(1.094 -0.135392 4.84108e-16)
(1.05628 -0.116212 5.56627e-16)
(1.01979 -0.100043 6.79707e-16)
(0.985507 -0.0865191 7.522e-16)
(0.953816 -0.0752212 1.00833e-15)
(0.924793 -0.0657598 1.08173e-15)
(0.898341 -0.0578026 1.19572e-15)
(0.874287 -0.0510759 1.10553e-15)
(0.852427 -0.0453584 1.22723e-15)
(0.83255 -0.0404721 1.35097e-15)
(0.814456 -0.036274 1.16849e-15)
(0.797958 -0.0326488 1.33547e-15)
(0.782887 -0.0295033 1.49525e-15)
(0.769091 -0.0267618 1.32692e-15)
(0.756435 -0.0243623 1.5247e-15)
(0.744799 -0.0222537 1.76792e-15)
(0.734076 -0.0203937 1.99684e-15)
(0.724173 -0.0187473 2.19764e-15)
(0.715006 -0.017285 2.38769e-15)
(0.706502 -0.0159821 2.57465e-15)
(0.698596 -0.0148176 2.67826e-15)
(0.691231 -0.0137738 2.37223e-15)
(0.684355 -0.0128356 2.56232e-15)
(0.677922 -0.01199 2.76829e-15)
(0.671892 -0.0112258 2.99749e-15)
(0.66623 -0.0105336 3.16079e-15)
(0.660902 -0.00990486 3.29787e-15)
(0.655879 -0.00933254 3.19654e-15)
(0.651137 -0.00881032 3.32994e-15)
(0.646652 -0.00833274 3.50746e-15)
(0.642402 -0.00789503 3.69864e-15)
(0.63837 -0.00749297 3.81191e-15)
(0.634538 -0.00712289 3.90861e-15)
(0.63089 -0.00678155 3.76734e-15)
(0.627414 -0.00646606 3.89732e-15)
(0.624097 -0.00617391 4.03917e-15)
(0.620927 -0.00590283 4.19562e-15)
(0.617894 -0.00565083 4.28819e-15)
(0.614988 -0.00541614 4.36739e-15)
(0.612202 -0.00519718 4.1276e-15)
(0.609527 -0.00499253 4.2717e-15)
(0.606956 -0.00480093 4.43289e-15)
(0.604483 -0.00462125 4.54909e-15)
(0.602101 -0.00445248 4.71894e-15)
(0.599806 -0.0042937 4.83492e-15)
(0.597592 -0.0041441 4.97245e-15)
(0.595455 -0.00400294 5.04592e-15)
(0.59339 -0.00386956 5.16019e-15)
(0.591393 -0.00374334 5.17702e-15)
(0.589461 -0.00362376 5.03148e-15)
(0.587591 -0.00351031 5.06981e-15)
(0.585779 -0.00340254 5.15346e-15)
(0.584022 -0.00330006 5.23634e-15)
(0.582318 -0.00320249 5.34294e-15)
(0.580665 -0.0031095 5.42208e-15)
(0.579059 -0.00302077 5.48545e-15)
(0.577499 -0.00293602 5.57359e-15)
(0.575982 -0.002855 5.63645e-15)
(0.574507 -0.00277748 5.71e-15)
(0.573072 -0.00270322 5.74619e-15)
(1.0282 -0.116457 -8.16075e-18)
(1.12458 -0.207781 -9.46813e-18)
(1.1723 -0.235818 1.39242e-16)
(1.18194 -0.223556 2.40676e-16)
(1.16038 -0.196596 4.15545e-16)
(1.12264 -0.167616 4.65663e-16)
(1.07857 -0.141299 6.33533e-16)
(1.03359 -0.118992 5.29812e-16)
(0.990557 -0.100604 5.3e-16)
(0.950708 -0.085587 6.74265e-16)
(0.914427 -0.0733264 6.96085e-16)
(0.881681 -0.0632733 9.0362e-16)
(0.852238 -0.0549777 1.0696e-15)
(0.825793 -0.0480829 1.18073e-15)
(0.802029 -0.0423103 1.00509e-15)
(0.780641 -0.0374426 1.20378e-15)
(0.76135 -0.03331 1.28807e-15)
(0.743908 -0.0297792 1.06794e-15)
(0.728096 -0.0267449 1.2881e-15)
(0.713722 -0.0241229 1.42591e-15)
(0.700621 -0.0218458 1.20358e-15)
(0.688646 -0.0198589 1.46615e-15)
(0.677671 -0.0181177 1.71397e-15)
(0.667587 -0.0165856 1.95193e-15)
(0.658295 -0.0152324 2.12892e-15)
(0.649713 -0.0140328 2.28933e-15)
(0.641767 -0.0129658 2.48289e-15)
(0.634393 -0.0120138 2.51852e-15)
(0.627532 -0.0111616 2.08015e-15)
(0.621135 -0.0103965 2.3435e-15)
(0.615157 -0.00970783 2.56176e-15)
(0.609559 -0.00908611 2.77938e-15)
(0.604307 -0.00852341 2.95582e-15)
(0.599369 -0.00801282 3.0506e-15)
(0.594718 -0.00754836 2.86357e-15)
(0.590328 -0.00712486 3.06876e-15)
(0.586178 -0.00673779 3.27484e-15)
(0.582248 -0.00638323 3.42201e-15)
(0.57852 -0.00605771 3.54185e-15)
(0.574979 -0.0057582 3.61779e-15)
(0.571609 -0.00548206 3.41885e-15)
(0.568398 -0.00522692 3.55683e-15)
(0.565335 -0.00499071 3.72433e-15)
(0.562408 -0.00477159 3.88896e-15)
(0.559608 -0.00456795 3.99267e-15)
(0.556926 -0.00437832 4.02202e-15)
(0.554354 -0.00420142 3.79966e-15)
(0.551885 -0.00403611 3.92354e-15)
(0.549512 -0.00388135 4.09188e-15)
(0.54723 -0.00373623 4.20351e-15)
(0.545033 -0.00359992 4.36075e-15)
(0.542915 -0.00347169 4.47263e-15)
(0.540872 -0.00335088 4.59105e-15)
(0.5389 -0.00323688 4.68664e-15)
(0.536995 -0.00312915 4.74178e-15)
(0.535152 -0.00302722 4.74713e-15)
(0.53337 -0.00293064 4.54578e-15)
(0.531644 -0.002839 4.62986e-15)
(0.529972 -0.00275196 4.7225e-15)
(0.528352 -0.00266918 4.80726e-15)
(0.526779 -0.00259036 4.94041e-15)
(0.525254 -0.00251524 5.01317e-15)
(0.523772 -0.00244355 5.06922e-15)
(0.522332 -0.00237508 5.14968e-15)
(0.520933 -0.00230962 5.19374e-15)
(0.519572 -0.00224697 5.26202e-15)
(0.518248 -0.00218697 5.28497e-15)
(1.03781 -0.145187 -1.60014e-18)
(1.14551 -0.227798 -1.40901e-17)
(1.1732 -0.239465 7.81873e-17)
(1.1594 -0.214198 2.59521e-16)
(1.11721 -0.180131 3.64872e-16)
(1.06435 -0.148488 3.35016e-16)
(1.01027 -0.122043 6.49437e-16)
(0.959119 -0.100835 5.3265e-16)
(0.912574 -0.084027 4.70855e-16)
(0.870968 -0.0706924 7.19278e-16)
(0.834063 -0.0600405 6.51212e-16)
(0.801407 -0.0514521 8.31098e-16)
(0.772496 -0.0444582 1.06586e-15)
(0.746848 -0.0387064 1.18658e-15)
(0.724028 -0.0339317 8.83154e-16)
(0.703658 -0.0299337 1.19723e-15)
(0.68541 -0.0265593 1.29707e-15)
(0.669005 -0.0236906 1.09893e-15)
(0.654206 -0.0212356 1.30305e-15)
(0.640809 -0.0191219 1.40194e-15)
(0.628642 -0.017292 1.20463e-15)
(0.617555 -0.0156998 1.47227e-15)
(0.607422 -0.0143078 1.69248e-15)
(0.598132 -0.0130857 1.93756e-15)
(0.589591 -0.0120083 2.05884e-15)
(0.581716 -0.0110548 2.2194e-15)
(0.574436 -0.0102081 2.38976e-15)
(0.567689 -0.00945366 2.38849e-15)
(0.561419 -0.00877918 1.85416e-15)
(0.555579 -0.00817439 2.21784e-15)
(0.550128 -0.00763047 2.40634e-15)
(0.545027 -0.00713993 2.59088e-15)
(0.540243 -0.00669631 2.77518e-15)
(0.535749 -0.00629407 2.82025e-15)
(0.531518 -0.00592843 2.51435e-15)
(0.527526 -0.00559522 2.84599e-15)
(0.523754 -0.00529084 3.04871e-15)
(0.520183 -0.00501215 3.19628e-15)
(0.516796 -0.0047564 3.29701e-15)
(0.51358 -0.00452117 3.32652e-15)
(0.51052 -0.00430435 2.97865e-15)
(0.507605 -0.00410407 3.28135e-15)
(0.504824 -0.0039187 3.45463e-15)
(0.502167 -0.00374678 3.62481e-15)
(0.499625 -0.00358701 3.68459e-15)
(0.497191 -0.00343827 3.69715e-15)
(0.494856 -0.00329952 3.41037e-15)
(0.492615 -0.00316987 3.60899e-15)
(0.490462 -0.00304849 3.75402e-15)
(0.488391 -0.00293469 3.87318e-15)
(0.486396 -0.00282779 4.03207e-15)
(0.484474 -0.00272723 4.1076e-15)
(0.48262 -0.00263248 4.22778e-15)
(0.48083 -0.00254307 4.2965e-15)
(0.4791 -0.00245858 4.3365e-15)
(0.477428 -0.00237863 4.33855e-15)
(0.47581 -0.00230286 4.00363e-15)
(0.474244 -0.00223098 4.21736e-15)
(0.472726 -0.0021627 4.33525e-15)
(0.471255 -0.00209775 4.41389e-15)
(0.469827 -0.0020359 4.54303e-15)
(0.468442 -0.00197695 4.60808e-15)
(0.467096 -0.00192069 4.64619e-15)
(0.465789 -0.00186695 4.71498e-15)
(0.464519 -0.00181557 4.77461e-15)
(0.463283 -0.00176639 4.81373e-15)
(0.462081 -0.00171929 4.85377e-15)
(1.04813 -0.179567 1.14881e-17)
(1.16124 -0.243639 -1.52188e-17)
(1.1577 -0.234537 5.69991e-17)
(1.11568 -0.196728 1.1948e-16)
(1.05258 -0.157736 1.82725e-16)
(0.986521 -0.125606 2.11667e-16)
(0.925048 -0.100679 5.36325e-16)
(0.870275 -0.0816738 4.83783e-16)
(0.822423 -0.0671419 4.32188e-16)
(0.780881 -0.0559101 6.14512e-16)
(0.744823 -0.0471113 6.02026e-16)
(0.713442 -0.0401221 7.76327e-16)
(0.686016 -0.0344962 9.47842e-16)
(0.661936 -0.029912 1.05775e-15)
(0.640689 -0.026135 8.98813e-16)
(0.621852 -0.0229917 1.06883e-15)
(0.605074 -0.0203523 1.17805e-15)
(0.590064 -0.0181181 1.06025e-15)
(0.576577 -0.0162131 1.17781e-15)
(0.564412 -0.0145781 1.22674e-15)
(0.553396 -0.0131666 1.15048e-15)
(0.543384 -0.0119413 1.31666e-15)
(0.534253 -0.0108725 1.49835e-15)
(0.525899 -0.00993582 1.77414e-15)
(0.518232 -0.00911148 1.86663e-15)
(0.511173 -0.0083831 1.98018e-15)
(0.504655 -0.00773713 2.09963e-15)
(0.498621 -0.00716222 2.10676e-15)
(0.493019 -0.00664885 1.70869e-15)
(0.487807 -0.00618897 1.93392e-15)
(0.482943 -0.00577576 2.13053e-15)
(0.478396 -0.00540339 2.28047e-15)
(0.474134 -0.00506688 2.41633e-15)
(0.470131 -0.00476196 2.49535e-15)
(0.466364 -0.00448494 2.27015e-15)
(0.462811 -0.00423263 2.50475e-15)
(0.459454 -0.00400225 2.67345e-15)
(0.456277 -0.00379139 2.81359e-15)
(0.453265 -0.00359795 2.90885e-15)
(0.450404 -0.00342009 2.92055e-15)
(0.447683 -0.00325619 2.68028e-15)
(0.445091 -0.00310482 2.87493e-15)
(0.442618 -0.00296475 3.03663e-15)
(0.440255 -0.00283485 3.18678e-15)
(0.437995 -0.00271415 3.23262e-15)
(0.43583 -0.00260179 3.22496e-15)
(0.433754 -0.00249698 2.95658e-15)
(0.431762 -0.00239904 3.13523e-15)
(0.429847 -0.00230736 3.25635e-15)
(0.428004 -0.00222139 3.39426e-15)
(0.426231 -0.00214065 3.55282e-15)
(0.424521 -0.00206468 3.61502e-15)
(0.422871 -0.0019931 3.72153e-15)
(0.421279 -0.00192555 3.78221e-15)
(0.419741 -0.00186171 3.81424e-15)
(0.418253 -0.00180129 3.81271e-15)
(0.416813 -0.00174404 3.54099e-15)
(0.415419 -0.00168971 3.67623e-15)
(0.414069 -0.00163809 3.79836e-15)
(0.412759 -0.001589 3.87314e-15)
(0.411489 -0.00154224 3.98219e-15)
(0.410256 -0.00149767 4.0258e-15)
(0.409058 -0.00145513 4.1079e-15)
(0.407895 -0.00141449 4.15527e-15)
(0.406764 -0.00137562 4.19588e-15)
(0.405664 -0.00133843 4.22596e-15)
(0.404593 -0.00130279 4.24841e-15)
(0.403552 -0.00126863 4.22558e-15)
(1.05612 -0.218412 2.09027e-18)
(1.16395 -0.251359 -2.0722e-17)
(1.11719 -0.218566 6.68354e-17)
(1.04463 -0.170722 2.11209e-16)
(0.963044 -0.130145 2.49794e-16)
(0.88765 -0.100073 3.28557e-16)
(0.822536 -0.0782902 4.97734e-16)
(0.767275 -0.0624317 4.20691e-16)
(0.720597 -0.0506906 4.17535e-16)
(0.681042 -0.0418235 5.66247e-16)
(0.647323 -0.0349947 5.5426e-16)
(0.618375 -0.0296401 7.46385e-16)
(0.593346 -0.0253731 8.52243e-16)
(0.571557 -0.0219237 9.65368e-16)
(0.552463 -0.0190999 8.73304e-16)
(0.535632 -0.0167622 9.72228e-16)
(0.520711 -0.0148079 1.06807e-15)
(0.507414 -0.0131597 9.85928e-16)
(0.495508 -0.0117589 1.06163e-15)
(0.484799 -0.0105599 1.11689e-15)
(0.475126 -0.00952718 1.09905e-15)
(0.466353 -0.00863265 1.17794e-15)
(0.458367 -0.00785375 1.35225e-15)
(0.451072 -0.00717229 1.69399e-15)
(0.444385 -0.00657344 1.69687e-15)
(0.438237 -0.006045 1.7607e-15)
(0.432566 -0.00557691 1.84682e-15)
(0.42732 -0.00516075 1.83178e-15)
(0.422454 -0.0047895 1.48957e-15)
(0.417928 -0.00445722 1.69537e-15)
(0.413709 -0.00415889 1.87149e-15)
(0.409764 -0.00389024 2.00151e-15)
(0.406069 -0.00364761 2.11473e-15)
(0.4026 -0.00342789 2.16893e-15)
(0.399336 -0.00322836 1.98733e-15)
(0.396258 -0.0030467 2.17386e-15)
(0.39335 -0.0028809 2.34104e-15)
(0.390599 -0.0027292 2.45869e-15)
(0.38799 -0.00259007 2.55379e-15)
(0.385512 -0.00246217 2.5362e-15)
(0.383156 -0.00234433 2.32744e-15)
(0.380911 -0.00223552 2.51426e-15)
(0.378769 -0.00213484 2.67469e-15)
(0.376722 -0.00204149 2.76196e-15)
(0.374765 -0.00195474 2.80878e-15)
(0.372889 -0.00187399 2.7914e-15)
(0.371091 -0.00179867 2.47875e-15)
(0.369365 -0.00172829 2.68888e-15)
(0.367705 -0.00166241 2.81694e-15)
(0.366109 -0.00160062 2.93775e-15)
(0.364572 -0.00154258 3.07534e-15)
(0.36309 -0.00148797 3.14165e-15)
(0.36166 -0.00143652 3.24288e-15)
(0.36028 -0.00138795 3.27714e-15)
(0.358946 -0.00134205 3.29624e-15)
(0.357656 -0.0012986 3.30363e-15)
(0.356408 -0.00125742 3.05261e-15)
(0.355199 -0.00121835 3.18528e-15)
(0.354028 -0.00118122 3.28974e-15)
(0.352892 -0.00114589 3.33955e-15)
(0.35179 -0.00111225 3.43905e-15)
(0.350721 -0.00108018 3.49495e-15)
)
;

boundaryField
{
    inlet
    {
        type            uniformFixedValue;
        uniformValue    constant (1 0 0);
        value           uniform (1 0 0);
    }
    outlet
    {
        type            pressureInletOutletVelocity;
        value           nonuniform 0();
    }
    wall
    {
        type            fixedValue;
        value           nonuniform 0();
    }
    wedge1
    {
        type            wedge;
    }
    wedge2
    {
        type            wedge;
    }
    axis
    {
        type            empty;
    }
    procBoundary36to30
    {
        type            processor;
        value           nonuniform List<vector> 
68
(
(0.701543 -0.00554231 6.03055e-15)
(0.699289 -0.00536133 6.08808e-15)
(0.697108 -0.00518984 5.94003e-15)
(0.694996 -0.00502716 5.9526e-15)
(0.69295 -0.00487263 6.04561e-15)
(0.690966 -0.00472567 6.1292e-15)
(0.689041 -0.00458577 6.22319e-15)
(0.687173 -0.00445243 6.3614e-15)
(0.685359 -0.00432521 6.43253e-15)
(0.683596 -0.00420371 6.5219e-15)
(0.681883 -0.00408756 6.5934e-15)
(0.680216 -0.00397642 6.69096e-15)
(0.678595 -0.00386998 6.79185e-15)
(1.01432 -0.075125 -1.56983e-17)
(1.08338 -0.165525 -7.17576e-18)
(1.14594 -0.212678 -4.24543e-17)
(1.18548 -0.222688 3.62312e-16)
(1.19777 -0.212167 6.5069e-16)
(1.18987 -0.192708 6.39389e-16)
(1.1691 -0.17073 7.60323e-16)
(1.14117 -0.149486 6.34154e-16)
(1.11005 -0.13031 5.95825e-16)
(1.07822 -0.113572 7.54288e-16)
(1.04713 -0.0991991 8.03884e-16)
(1.01754 -0.0869426 9.87407e-16)
(0.989845 -0.0765101 1.12263e-15)
(0.964158 -0.0676205 1.26e-15)
(0.94047 -0.0600249 1.14603e-15)
(0.918694 -0.0535114 1.28242e-15)
(0.898705 -0.0479035 1.42502e-15)
(0.880363 -0.0430552 1.21615e-15)
(0.863526 -0.0388461 1.41135e-15)
(0.848055 -0.0351772 1.60742e-15)
(0.833822 -0.0319666 1.41065e-15)
(0.820709 -0.0291466 1.62201e-15)
(0.808606 -0.0266609 1.88838e-15)
(0.797417 -0.0244623 2.11401e-15)
(0.787053 -0.0225114 2.33181e-15)
(0.777436 -0.0207749 2.52493e-15)
(0.768494 -0.0192245 2.73775e-15)
(0.760164 -0.0178365 2.86073e-15)
(0.75239 -0.0165904 2.61975e-15)
(0.745121 -0.0154687 2.79618e-15)
(0.738311 -0.0144564 3.00862e-15)
(0.731921 -0.0135405 3.24506e-15)
(0.725913 -0.0127099 3.40196e-15)
(0.720255 -0.0119549 3.55416e-15)
(0.714917 -0.0112669 3.51574e-15)
(0.709872 -0.0106387 3.60243e-15)
(0.705098 -0.0100638 3.79162e-15)
(0.700573 -0.00953657 3.99522e-15)
(0.696276 -0.00905201 4.13025e-15)
(0.692191 -0.00860576 4.2394e-15)
(0.688301 -0.00819397 4.12903e-15)
(0.684593 -0.00781323 4.24481e-15)
(0.681053 -0.00746052 4.34516e-15)
(0.677669 -0.00713316 4.53331e-15)
(0.674431 -0.00682876 4.63843e-15)
(0.671329 -0.00654521 4.73148e-15)
(0.668353 -0.00628061 4.58663e-15)
(0.665495 -0.00603326 4.66524e-15)
(0.662749 -0.00580165 4.79538e-15)
(0.660106 -0.00558443 4.93038e-15)
(0.657561 -0.00538038 5.08705e-15)
(0.655109 -0.0051884 5.24003e-15)
(0.652742 -0.0050075 5.3836e-15)
(0.650458 -0.00483681 5.47311e-15)
(0.650458 -0.00483681 5.47311e-15)
)
;
    }
    procBoundary36to31
    {
        type            processor;
        value           uniform (0.625036 -0.0031792 6.26439e-15);
    }
    procBoundary36to37
    {
        type            processor;
        value           nonuniform List<vector> 5((0.571675 -0.00263205 5.76525e-15) (0.516959 -0.00212944 5.29403e-15) (0.46091 -0.00167413 4.84064e-15) (0.46091 -0.00167413 4.84064e-15) (0.402537 -0.00123584 3.94622e-15));
    }
    procBoundary36to42
    {
        type            processor;
        value           nonuniform List<vector> 
69
(
(0.349682 -0.00104956 3.54782e-15)
(0.348673 -0.00102031 3.5793e-15)
(0.347691 -0.000992329 3.63355e-15)
(0.346737 -0.000965549 3.64226e-15)
(0.345808 -0.00093989 3.66904e-15)
(0.344904 -0.000915286 3.63696e-15)
(1.05494 -0.258423 6.01393e-18)
(1.14137 -0.245968 -1.9254e-17)
(1.04121 -0.18973 8.66583e-17)
(0.940323 -0.136882 2.9068e-16)
(0.84613 -0.0989634 3.28052e-16)
(0.767217 -0.0735087 2.78776e-16)
(0.70313 -0.0562117 4.66835e-16)
(0.650882 -0.0441342 3.50512e-16)
(0.607955 -0.0354425 3.56921e-16)
(0.572293 -0.0290081 5.43569e-16)
(0.542334 -0.0241245 4.67858e-16)
(0.516899 -0.0203369 5.90409e-16)
(0.495099 -0.017344 8.09066e-16)
(0.476251 -0.0149408 9.09707e-16)
(0.459828 -0.012984 6.38609e-16)
(0.445417 -0.0113714 8.94149e-16)
(0.432691 -0.0100282 9.60775e-16)
(0.421387 -0.00889893 7.46813e-16)
(0.411293 -0.00794172 9.34718e-16)
(0.402234 -0.00712436 1.0102e-15)
(0.394068 -0.0064218 8.35106e-16)
(0.386675 -0.00581433 1.02962e-15)
(0.379956 -0.00528622 1.22198e-15)
(0.373825 -0.00482484 1.46641e-15)
(0.368212 -0.0044199 1.5167e-15)
(0.363055 -0.00406299 1.56487e-15)
(0.358302 -0.00374715 1.63803e-15)
(0.353909 -0.00346663 1.57177e-15)
(0.349836 -0.00321658 1.19786e-15)
(0.34605 -0.00299295 1.46859e-15)
(0.342521 -0.0027923 1.62956e-15)
(0.339224 -0.00261173 1.74524e-15)
(0.336135 -0.00244873 1.84408e-15)
(0.333236 -0.00230119 1.90095e-15)
(0.330508 -0.00216726 1.66963e-15)
(0.327937 -0.00204538 1.87801e-15)
(0.325508 -0.00193417 2.02164e-15)
(0.323209 -0.00183244 2.13003e-15)
(0.321029 -0.00173916 2.1866e-15)
(0.318959 -0.00165343 2.18421e-15)
(0.31699 -0.00157445 1.94877e-15)
(0.315114 -0.00150153 2.18019e-15)
(0.313324 -0.00143406 2.30636e-15)
(0.311613 -0.0013715 2.3609e-15)
(0.309977 -0.00131338 2.41487e-15)
(0.30841 -0.00125927 2.37137e-15)
(0.306906 -0.00120879 2.08801e-15)
(0.305463 -0.00116163 2.28624e-15)
(0.304075 -0.00111747 2.3994e-15)
(0.30274 -0.00107606 2.51025e-15)
(0.301454 -0.00103715 2.62159e-15)
(0.300214 -0.00100054 2.67015e-15)
(0.299018 -0.000966041 2.76693e-15)
(0.297863 -0.000933475 2.80438e-15)
(0.296746 -0.00090269 2.84481e-15)
(0.295667 -0.000873549 2.80937e-15)
(0.294622 -0.000845926 2.52416e-15)
(0.29361 -0.000819708 2.70719e-15)
(0.292629 -0.000794792 2.80818e-15)
(0.291678 -0.000771085 2.83394e-15)
(0.290755 -0.000748504 2.9187e-15)
(0.349682 -0.00104956 3.54782e-15)
(0.28986 -0.00072697 2.97492e-15)
)
;
    }
}


// ************************************************************************* //
