/*--------------------------------*- C++ -*----------------------------------*\
  =========                 |
  \\      /  F ield         | OpenFOAM: The Open Source CFD Toolbox
   \\    /   O peration     | Website:  https://openfoam.org
    \\  /    A nd           | Version:  7
     \\/     M anipulation  |
\*---------------------------------------------------------------------------*/
FoamFile
{
    version     2.0;
    format      ascii;
    class       surfaceScalarField;
    location    "3.000466";
    object      phi;
}
// * * * * * * * * * * * * * * * * * * * * * * * * * * * * * * * * * * * * * //

dimensions      [0 3 -1 0 0 0 0];

internalField   nonuniform List<scalar> 
11438
(
0.00226598
0.000726592
0.0016559
5.63891e-05
0.00107563
-0.000525205
0.00052765
-0.000965106
-0.00120399
0.0160311
-5.99938e-07
0.0160315
-3.99533e-07
0.0160317
-1.90492e-07
0.0160317
2.73634e-08
0.0160314
2.53772e-07
0.0160309
4.8884e-07
0.0160302
7.32427e-07
0.0160292
9.84324e-07
0.016028
1.24426e-06
0.0160265
1.51185e-06
0.0160247
1.78656e-06
0.0160226
2.06775e-06
0.0160202
2.3547e-06
0.0160176
2.64662e-06
0.0160147
2.94267e-06
0.0160114
3.24196e-06
0.0160079
3.54356e-06
0.016004
3.8465e-06
0.0159999
4.14974e-06
0.0159954
4.45221e-06
0.0159907
4.7528e-06
0.0159856
5.05031e-06
0.0159803
5.3435e-06
0.0159746
5.63104e-06
0.0159687
5.91163e-06
0.0159625
6.18413e-06
0.0159561
6.44758e-06
0.0159494
6.70105e-06
0.0159425
6.94343e-06
0.0159353
7.17329e-06
0.0159279
7.3889e-06
0.0159203
7.58845e-06
0.0159125
7.77026e-06
0.0159046
7.93294e-06
0.0158965
8.07543e-06
0.0158883
8.19697e-06
0.01588
8.29697e-06
0.0158717
8.37497e-06
0.0158632
8.43061e-06
0.0158548
8.46359e-06
0.0158463
8.47378e-06
0.0158378
8.46114e-06
0.0158294
8.42586e-06
0.015821
8.36814e-06
0.0158127
8.28872e-06
0.0158046
8.18773e-06
0.0157965
8.06706e-06
0.0157886
7.92551e-06
0.0157808
7.76844e-06
0.0157732
7.58922e-06
0.0157658
7.4029e-06
0.0157586
7.1884e-06
0.0157516
6.98198e-06
0.0157449
6.73481e-06
0.0157384
6.51744e-06
0.0157321
6.24115e-06
0.0157261
6.02332e-06
0.0157204
5.71607e-06
0.0157149
5.51801e-06
0.0157097
5.16603e-06
0.0157047
5.01533e-06
0.0157001
4.60013e-06
0.0156956
4.53115e-06
4.01266e-06
0.0157136
-1.16291e-06
0.015714
-7.64342e-07
0.0157142
-3.47924e-07
0.0157141
8.48287e-08
0.0157138
5.34535e-07
0.0157133
1.00152e-06
0.0157126
1.48528e-06
0.0157116
1.98543e-06
0.0157103
2.50137e-06
0.0157088
3.03228e-06
0.015707
3.57715e-06
0.0157049
4.13478e-06
0.0157026
4.7038e-06
0.0156999
5.2827e-06
0.015697
5.86984e-06
0.0156938
6.46349e-06
0.0156903
7.06182e-06
0.0156865
7.66289e-06
0.0156823
8.26464e-06
0.0156779
8.86489e-06
0.0156732
9.4614e-06
0.0156682
1.00518e-05
0.0156629
1.06336e-05
0.0156574
1.12042e-05
0.0156515
1.17609e-05
0.0156454
1.23014e-05
0.015639
1.28232e-05
0.0156324
1.33244e-05
0.0156255
1.38025e-05
0.0156184
1.42549e-05
0.0156112
1.46786e-05
0.0156037
1.50703e-05
0.015596
1.5427e-05
0.0155882
1.57463e-05
0.0155803
1.6026e-05
0.0155722
1.62644e-05
0.015564
1.64603e-05
0.0155558
1.66125e-05
0.0155475
1.67203e-05
0.0155392
1.67831e-05
0.0155309
1.68006e-05
0.0155225
1.67729e-05
0.0155143
1.67003e-05
0.0155061
1.65833e-05
0.0154979
1.64233e-05
0.0154899
1.62207e-05
0.015482
1.59792e-05
0.0154742
1.56965e-05
0.0154666
1.53833e-05
0.0154591
1.50262e-05
0.0154519
1.46555e-05
0.0154449
1.42287e-05
0.015438
1.38188e-05
0.0154314
1.33274e-05
0.015425
1.28967e-05
0.0154189
1.23472e-05
0.015413
1.19172e-05
0.0154075
1.13051e-05
0.0154021
1.09169e-05
0.015397
1.02137e-05
0.0153921
9.9235e-06
0.0153876
9.09094e-06
0.0153832
8.96755e-06
7.9295e-06
0.0154038
-1.66994e-06
0.0154041
-1.07396e-06
0.0154042
-4.51954e-07
0.0154041
1.95103e-07
0.0154037
8.67722e-07
0.0154032
1.56567e-06
0.0154024
2.28834e-06
0.0154013
3.03507e-06
0.0154
3.80498e-06
0.0153985
4.59691e-06
0.0153966
5.40936e-06
0.0153945
6.2406e-06
0.0153921
7.08863e-06
0.0153895
7.95125e-06
0.0153865
8.82606e-06
0.0153833
9.7105e-06
0.0153797
1.06018e-05
0.0153759
1.14972e-05
0.0153718
1.23934e-05
0.0153673
1.32872e-05
0.0153626
1.41752e-05
0.0153576
1.50538e-05
0.0153523
1.59194e-05
0.0153468
1.6768e-05
0.0153409
1.75956e-05
0.0153348
1.83983e-05
0.0153285
1.91726e-05
0.0153219
1.99149e-05
0.0153151
2.06215e-05
0.015308
2.12886e-05
0.0153008
2.19122e-05
0.0152934
2.24879e-05
0.0152858
2.30117e-05
0.0152781
2.348e-05
0.0152702
2.38896e-05
0.0152622
2.42379e-05
0.0152542
2.45229e-05
0.015246
2.4743e-05
0.0152379
2.48968e-05
0.0152297
2.49837e-05
0.0152215
2.50031e-05
0.0152133
2.49552e-05
0.0152051
2.48407e-05
0.0151971
2.46602e-05
0.0151891
2.44161e-05
0.0151812
2.41089e-05
0.0151734
2.37443e-05
0.0151658
2.33186e-05
0.0151583
2.2848e-05
0.015151
2.23126e-05
0.0151439
2.17574e-05
0.0151371
2.11193e-05
0.0151304
2.05069e-05
0.0151239
1.97735e-05
0.0151177
1.91314e-05
0.0151117
1.83124e-05
0.015106
1.76727e-05
0.0151005
1.6761e-05
0.0150952
1.6185e-05
0.0150903
1.51382e-05
0.0150855
1.47092e-05
0.0150811
1.3471e-05
0.0150768
1.32899e-05
1.17484e-05
0.0151012
-2.10288e-06
0.0151015
-1.30838e-06
0.0151015
-4.79046e-07
0.0151013
3.82519e-07
0.0151009
1.27829e-06
0.0151002
2.2073e-06
0.0150994
3.16882e-06
0.0150982
4.16196e-06
0.0150969
5.18549e-06
0.0150952
6.23783e-06
0.0150933
7.317e-06
0.0150911
8.42071e-06
0.0150887
9.54632e-06
0.0150859
1.06909e-05
0.0150829
1.18513e-05
0.0150796
1.30242e-05
0.015076
1.42057e-05
0.0150721
1.53922e-05
0.0150679
1.65793e-05
0.0150634
1.77628e-05
0.0150587
1.8938e-05
0.0150536
2.01002e-05
0.0150483
2.12443e-05
0.0150427
2.23653e-05
0.0150368
2.34577e-05
0.0150307
2.45163e-05
0.0150244
2.55361e-05
0.0150178
2.6512e-05
0.0150109
2.74393e-05
0.0150039
2.8313e-05
0.0149967
2.91279e-05
0.0149893
2.98788e-05
0.0149818
3.05607e-05
0.0149741
3.11689e-05
0.0149663
3.16994e-05
0.0149584
3.21487e-05
0.0149504
3.2514e-05
0.0149423
3.27932e-05
0.0149342
3.29847e-05
0.0149261
3.30874e-05
0.014918
3.31009e-05
0.01491
3.30255e-05
0.0149019
3.28622e-05
0.014894
3.2612e-05
0.0148861
3.2278e-05
0.0148784
3.1861e-05
0.0148707
3.13688e-05
0.0148633
3.07965e-05
0.0148559
3.01654e-05
0.0148488
2.94496e-05
0.0148419
2.87083e-05
0.0148351
2.78585e-05
0.0148286
2.70432e-05
0.0148223
2.60692e-05
0.0148162
2.52165e-05
0.0148104
2.41309e-05
0.0148048
2.32831e-05
0.0147995
2.20769e-05
0.0147943
2.13148e-05
0.0147895
1.99318e-05
0.0147849
1.93652e-05
0.0147806
1.77313e-05
0.0147764
1.74923e-05
1.54609e-05
0.0148058
-2.44441e-06
0.0148059
-1.44926e-06
0.0148058
-4.10986e-07
0.0148055
6.67109e-07
0.014805
1.78789e-06
0.0148043
2.94973e-06
0.0148033
4.15168e-06
0.0148021
5.39258e-06
0.0148006
6.67084e-06
0.0147989
7.98446e-06
0.0147968
9.33095e-06
0.0147946
1.07074e-05
0.014792
1.21105e-05
0.0147891
1.35366e-05
0.014786
1.49817e-05
0.0147826
1.64415e-05
0.0147789
1.79115e-05
0.0147749
1.93866e-05
0.0147706
2.08617e-05
0.014766
2.23313e-05
0.0147612
2.37895e-05
0.0147561
2.52305e-05
0.0147507
2.66479e-05
0.014745
2.80353e-05
0.0147391
2.9386e-05
0.0147329
3.06932e-05
0.0147265
3.19507e-05
0.0147198
3.31522e-05
0.014713
3.42916e-05
0.0147059
3.53628e-05
0.0146987
3.63598e-05
0.0146913
3.72762e-05
0.0146838
3.8106e-05
0.0146761
3.88437e-05
0.0146683
3.94844e-05
0.0146604
4.00238e-05
0.0146525
4.04587e-05
0.0146445
4.07863e-05
0.0146365
4.10049e-05
0.0146284
4.11133e-05
0.0146204
4.11111e-05
0.0146124
4.09988e-05
0.0146045
4.07777e-05
0.0145967
4.04494e-05
0.014589
4.00179e-05
0.0145813
3.94842e-05
0.0145738
3.88581e-05
0.0145665
3.81339e-05
0.0145593
3.73378e-05
0.0145523
3.6438e-05
0.0145455
3.55077e-05
0.014539
3.44445e-05
0.0145326
3.34249e-05
0.0145264
3.22106e-05
0.0145205
3.11472e-05
0.0145148
2.97975e-05
0.0145094
2.87427e-05
0.0145042
2.72463e-05
0.0144992
2.62997e-05
0.0144946
2.45874e-05
0.01449
2.38845e-05
0.0144859
2.18648e-05
0.0144818
2.15682e-05
1.90604e-05
0.0145171
-2.67894e-06
0.0145172
-1.47982e-06
0.014517
-2.28993e-07
0.0145166
1.0688e-06
0.014516
2.4178e-06
0.0145151
3.81546e-06
0.014514
5.26064e-06
0.0145126
6.75188e-06
0.014511
8.28723e-06
0.0145091
9.86421e-06
0.014507
1.14798e-05
0.0145046
1.31303e-05
0.0145019
1.48119e-05
0.0144989
1.652e-05
0.0144956
1.82498e-05
0.0144921
1.9996e-05
0.0144882
2.17531e-05
0.0144841
2.35151e-05
0.0144797
2.52757e-05
0.014475
2.70282e-05
0.01447
2.87656e-05
0.0144647
3.04807e-05
0.0144592
3.2166e-05
0.0144535
3.38136e-05
0.0144474
3.54156e-05
0.0144412
3.69639e-05
0.0144347
3.84508e-05
0.0144279
3.98688e-05
0.014421
4.12109e-05
0.0144139
4.24697e-05
0.0144066
4.36382e-05
0.0143992
4.47091e-05
0.0143916
4.56754e-05
0.0143839
4.65307e-05
0.0143762
4.72693e-05
0.0143683
4.78865e-05
0.0143604
4.83784e-05
0.0143524
4.87421e-05
0.0143444
4.89755e-05
0.0143365
4.90775e-05
0.0143285
4.90478e-05
0.0143207
4.88873e-05
0.0143128
4.85978e-05
0.0143051
4.81813e-05
0.0142975
4.76429e-05
0.01429
4.69841e-05
0.0142826
4.62164e-05
0.0142754
4.53334e-05
0.0142684
4.43665e-05
0.0142616
4.32779e-05
0.0142549
4.21545e-05
0.0142485
4.08752e-05
0.0142423
3.96491e-05
0.0142363
3.81941e-05
0.0142305
3.69193e-05
0.014225
3.53072e-05
0.0142197
3.4046e-05
0.0142147
3.22636e-05
0.0142098
3.11339e-05
0.0142053
2.90991e-05
0.0142009
2.82611e-05
0.0141969
2.58656e-05
0.014193
2.55114e-05
2.25415e-05
0.0142352
-2.79125e-06
0.0142351
-1.38297e-06
0.0142348
8.31612e-08
0.0142342
1.60659e-06
0.0142335
3.18802e-06
0.0142324
4.8256e-06
0.0142312
6.51795e-06
0.0142297
8.26326e-06
0.0142279
1.00592e-05
0.0142259
1.19026e-05
0.0142236
1.379e-05
0.014221
1.57171e-05
0.0142181
1.7679e-05
0.014215
1.96705e-05
0.0142115
2.16857e-05
0.0142078
2.37184e-05
0.0142038
2.57621e-05
0.0141995
2.78096e-05
0.0141949
2.98536e-05
0.0141901
3.18861e-05
0.0141849
3.38989e-05
0.0141795
3.58835e-05
0.0141739
3.78312e-05
0.0141679
3.97327e-05
0.0141618
4.15787e-05
0.0141554
4.33599e-05
0.0141488
4.50672e-05
0.0141419
4.66921e-05
0.0141349
4.82263e-05
0.0141277
4.96617e-05
0.0141204
5.099e-05
0.0141129
5.2203e-05
0.0141053
5.32929e-05
0.0140975
5.42526e-05
0.0140897
5.50755e-05
0.0140819
5.57566e-05
0.014074
5.62914e-05
0.014066
5.6677e-05
0.0140581
5.69113e-05
0.0140502
5.69931e-05
0.0140423
5.69227e-05
0.0140345
5.67012e-05
0.0140267
5.63309e-05
0.0140191
5.58148e-05
0.0140116
5.51587e-05
0.0140042
5.43647e-05
0.013997
5.34465e-05
0.0139899
5.23968e-05
0.013983
5.12518e-05
0.0139763
4.99687e-05
0.0139699
4.86472e-05
0.0139636
4.71484e-05
0.0139575
4.57127e-05
0.0139517
4.4016e-05
0.0139461
4.25287e-05
0.0139407
4.06557e-05
0.0139356
3.91883e-05
0.0139307
3.71239e-05
0.0139261
3.5812e-05
0.0139217
3.34618e-05
0.0139175
3.24896e-05
0.0139136
2.97286e-05
0.0139098
2.93169e-05
2.58992e-05
0.0139596
-2.76685e-06
0.0139594
-1.14385e-06
0.0139589
5.43652e-07
0.0139583
2.29794e-06
0.0139573
4.11732e-06
0.0139561
6.00013e-06
0.0139547
7.94472e-06
0.013953
9.9489e-06
0.0139511
1.20098e-05
0.0139489
1.41239e-05
0.0139464
1.62868e-05
0.0139436
1.84936e-05
0.0139405
2.07385e-05
0.0139372
2.30154e-05
0.0139336
2.53175e-05
0.0139296
2.76374e-05
0.0139254
2.99676e-05
0.0139209
3.22997e-05
0.0139162
3.46253e-05
0.0139111
3.6935e-05
0.0139058
3.92195e-05
0.0139002
4.1469e-05
0.0138944
4.36733e-05
0.0138883
4.5822e-05
0.013882
4.79043e-05
0.0138754
4.99097e-05
0.0138686
5.18278e-05
0.0138617
5.3649e-05
0.0138546
5.53639e-05
0.0138472
5.69635e-05
0.0138398
5.84387e-05
0.0138322
5.97803e-05
0.0138245
6.09797e-05
0.0138168
6.20289e-05
0.0138089
6.29211e-05
0.013801
6.36505e-05
0.0137931
6.42128e-05
0.0137852
6.46048e-05
0.0137773
6.48244e-05
0.0137694
6.48709e-05
0.0137616
6.4745e-05
0.0137538
6.4448e-05
0.0137462
6.39835e-05
0.0137386
6.33547e-05
0.0137312
6.25689e-05
0.0137239
6.16287e-05
0.0137168
6.05497e-05
0.0137099
5.93243e-05
0.0137032
5.79935e-05
0.0136966
5.65092e-05
0.0136903
5.49839e-05
0.0136842
5.32616e-05
0.0136783
5.16128e-05
0.0136726
4.96729e-05
0.0136672
4.79713e-05
0.013662
4.58387e-05
0.013657
4.41651e-05
0.0136523
4.18225e-05
0.0136478
4.03296e-05
0.0136436
3.76706e-05
0.0136395
3.65653e-05
0.0136358
3.34493e-05
0.0136321
3.29801e-05
2.91297e-05
0.0136904
-2.59194e-06
0.01369
-7.46873e-07
0.0136893
1.16857e-06
0.0136885
3.1601e-06
0.0136874
5.22395e-06
0.013686
7.35834e-06
0.0136844
9.56125e-06
0.0136825
1.183e-05
0.0136804
1.41614e-05
0.0136779
1.65511e-05
0.0136752
1.8994e-05
0.0136722
2.14845e-05
0.013669
2.40159e-05
0.0136654
2.65809e-05
0.0136615
2.91717e-05
0.0136574
3.178e-05
0.013653
3.4397e-05
0.0136483
3.70131e-05
0.0136433
3.96185e-05
0.013638
4.22028e-05
0.0136325
4.47553e-05
0.0136267
4.72647e-05
0.0136206
4.97197e-05
0.0136143
5.21085e-05
0.0136078
5.44189e-05
0.0136011
5.6639e-05
0.0135942
5.87574e-05
0.013587
6.07633e-05
0.0135798
6.26465e-05
0.0135723
6.43971e-05
0.0135648
6.60049e-05
0.0135571
6.74602e-05
0.0135493
6.87535e-05
0.0135415
6.98762e-05
0.0135336
7.08211e-05
0.0135256
7.15821e-05
0.0135177
7.21548e-05
0.0135098
7.25361e-05
0.0135019
7.27243e-05
0.013494
7.2719e-05
0.0134862
7.25213e-05
0.0134785
7.21335e-05
0.013471
7.15597e-05
0.0134635
7.08043e-05
0.0134562
6.98756e-05
0.0134491
6.87771e-05
0.0134421
6.75265e-05
0.0134353
6.61156e-05
0.0134287
6.45903e-05
0.0134223
6.28975e-05
0.0134161
6.11622e-05
0.0134102
5.92119e-05
0.0134044
5.73459e-05
0.013399
5.51613e-05
0.0133937
5.32436e-05
0.0133887
5.08522e-05
0.0133839
4.89724e-05
0.0133793
4.63554e-05
0.013375
4.46823e-05
0.0133709
4.17217e-05
0.013367
4.04844e-05
0.0133634
3.70238e-05
0.0133599
3.64972e-05
3.22294e-05
0.0134271
-2.25236e-06
0.0134266
-1.78287e-07
0.0134258
1.97361e-06
0.0134247
4.20997e-06
0.0134234
6.5258e-06
0.0134219
8.91903e-06
0.01342
1.13872e-05
0.0134179
1.39273e-05
0.0134156
1.65353e-05
0.0134129
1.92064e-05
0.01341
2.19347e-05
0.0134067
2.47135e-05
0.0134032
2.75353e-05
0.0133994
3.03916e-05
0.0133953
3.32737e-05
0.0133909
3.61719e-05
0.0133862
3.90761e-05
0.0133813
4.19757e-05
0.013376
4.48594e-05
0.0133705
4.77156e-05
0.0133647
5.0532e-05
0.0133587
5.32962e-05
0.0133524
5.59955e-05
0.0133459
5.86166e-05
0.0133392
6.11461e-05
0.0133323
6.35708e-05
0.0133251
6.58781e-05
0.0133179
6.80563e-05
0.0133104
7.00942e-05
0.0133028
7.19811e-05
0.0132951
7.37063e-05
0.0132873
7.52591e-05
0.0132794
7.66294e-05
0.0132715
7.78082e-05
0.0132635
7.87879e-05
0.0132556
7.95623e-05
0.0132476
8.01271e-05
0.0132396
8.04795e-05
0.0132318
8.0618e-05
0.0132239
8.05431e-05
0.0132162
8.02563e-05
0.0132086
7.9761e-05
0.0132011
7.90621e-05
0.0131937
7.81651e-05
0.0131865
7.70795e-05
0.0131795
7.58099e-05
0.0131726
7.43759e-05
0.013166
7.27692e-05
0.0131595
7.10401e-05
0.0131533
6.91313e-05
0.0131473
6.71793e-05
0.0131415
6.49961e-05
0.0131359
6.29089e-05
0.0131306
6.04775e-05
0.0131255
5.83418e-05
0.0131207
5.56927e-05
0.013116
5.36065e-05
0.0131117
5.0719e-05
0.0131075
4.88666e-05
0.0131036
4.56116e-05
0.0130998
4.42432e-05
0.0130964
4.04491e-05
0.013093
3.98651e-05
3.51955e-05
0.0131698
-1.73395e-06
0.0131691
5.7475e-07
0.0131681
2.97484e-06
0.0131668
5.46433e-06
0.0131653
8.04041e-06
0.0131635
1.07006e-05
0.0131615
1.34419e-05
0.0131591
1.62608e-05
0.0131565
1.91525e-05
0.0131536
2.21115e-05
0.0131504
2.51311e-05
0.0131469
2.82035e-05
0.0131431
3.13201e-05
0.0131391
3.44716e-05
0.0131347
3.76476e-05
0.01313
4.08374e-05
0.0131251
4.40296e-05
0.0131198
4.72122e-05
0.0131143
5.03725e-05
0.0131085
5.34975e-05
0.0131025
5.65736e-05
0.0130962
5.9587e-05
0.0130897
6.25236e-05
0.0130829
6.53687e-05
0.013076
6.81076e-05
0.0130688
7.07258e-05
0.0130615
7.32097e-05
0.013054
7.55465e-05
0.0130464
7.77245e-05
0.0130386
7.9732e-05
0.0130308
8.15578e-05
0.0130228
8.31905e-05
0.0130148
8.46197e-05
0.0130068
8.58358e-05
0.0129988
8.6831e-05
0.0129907
8.75994e-05
0.0129827
8.81367e-05
0.0129748
8.84406e-05
0.0129669
8.85102e-05
0.0129591
8.83467e-05
0.0129514
8.79526e-05
0.0129438
8.7332e-05
0.0129364
8.64913e-05
0.0129291
8.54368e-05
0.012922
8.41797e-05
0.0129151
8.27254e-05
0.0129084
8.10958e-05
0.0129018
7.92824e-05
0.0128955
7.73401e-05
0.0128895
7.52073e-05
0.0128836
7.30318e-05
0.012878
7.06109e-05
0.0128726
6.82981e-05
0.0128675
6.56181e-05
0.0128625
6.32623e-05
0.0128579
6.03566e-05
0.0128534
5.80639e-05
0.0128492
5.491e-05
0.0128452
5.28794e-05
0.0128415
4.93373e-05
0.0128379
4.78389e-05
0.0128346
4.37224e-05
0.0128314
4.30811e-05
3.80257e-05
0.0129183
-1.02361e-06
0.0129173
1.53056e-06
0.0129161
4.18667e-06
0.0129146
6.93904e-06
0.0129129
9.78483e-06
0.0129109
1.27211e-05
0.0129085
1.57443e-05
0.012906
1.88501e-05
0.0129031
2.20334e-05
0.0128999
2.52875e-05
0.0128964
2.86048e-05
0.0128927
3.19767e-05
0.0128886
3.53932e-05
0.0128842
3.88437e-05
0.0128795
4.23166e-05
0.0128746
4.58e-05
0.0128693
4.92808e-05
0.0128638
5.27458e-05
0.012858
5.61809e-05
0.0128519
5.95715e-05
0.0128456
6.29026e-05
0.012839
6.6159e-05
0.0128322
6.93251e-05
0.0128252
7.23851e-05
0.012818
7.53229e-05
0.0128106
7.81226e-05
0.012803
8.07696e-05
0.0127953
8.32503e-05
0.0127875
8.55523e-05
0.0127796
8.76634e-05
0.0127715
8.95717e-05
0.0127635
9.12656e-05
0.0127554
9.27341e-05
0.0127472
9.39674e-05
0.0127391
9.49577e-05
0.012731
9.56993e-05
0.0127229
9.61883e-05
0.012715
9.6423e-05
0.0127071
9.64033e-05
0.0126993
9.61313e-05
0.0126916
9.56105e-05
0.0126841
9.48463e-05
0.0126768
9.38462e-05
0.0126696
9.26179e-05
0.0126626
9.1174e-05
0.0126558
8.95211e-05
0.0126492
8.76833e-05
0.0126428
8.56522e-05
0.0126367
8.34869e-05
0.0126308
8.1122e-05
0.0126251
7.87161e-05
0.0126196
7.60525e-05
0.0126144
7.35099e-05
0.0126095
7.05796e-05
0.0126047
6.80018e-05
0.0126002
6.48408e-05
0.012596
6.23416e-05
0.012592
5.89255e-05
0.0125881
5.67179e-05
0.0125846
5.28962e-05
0.0125811
5.12692e-05
0.012578
4.68417e-05
0.0125749
4.61431e-05
4.07181e-05
0.0126723
-1.09264e-07
0.0126711
2.70266e-06
0.0126697
5.62504e-06
0.012668
8.65077e-06
0.012666
1.17765e-05
0.0126637
1.49986e-05
0.0126611
1.83132e-05
0.0126582
2.1715e-05
0.0126551
2.51982e-05
0.0126516
2.87552e-05
0.0126478
3.23774e-05
0.0126438
3.60549e-05
0.0126394
3.97765e-05
0.0126347
4.35303e-05
0.0126297
4.73034e-05
0.0126244
5.10822e-05
0.0126189
5.48523e-05
0.012613
5.8599e-05
0.0126069
6.23065e-05
0.0126005
6.5959e-05
0.0125939
6.95398e-05
0.012587
7.30323e-05
0.0125799
7.64197e-05
0.0125726
7.96845e-05
0.0125651
8.28094e-05
0.0125574
8.57775e-05
0.0125496
8.8573e-05
0.0125417
9.11816e-05
0.0125337
9.35903e-05
0.0125255
9.57866e-05
0.0125174
9.77582e-05
0.0125091
9.94931e-05
0.0125009
0.00010098
0.0124926
0.000102209
0.0124844
0.000103173
0.0124763
0.000103866
0.0124682
0.000104284
0.0124602
0.000104428
0.0124523
0.000104298
0.0124445
0.000103896
0.0124369
0.000103229
0.0124294
0.000102302
0.0124222
0.000101124
0.0124151
9.97052e-05
0.0124082
9.80589e-05
0.0124015
9.61933e-05
0.0123951
9.41345e-05
0.0123888
9.18744e-05
0.0123828
8.94763e-05
0.0123771
8.68713e-05
0.0123716
8.42282e-05
0.0123663
8.13172e-05
0.0123613
7.85406e-05
0.0123565
7.53584e-05
0.012352
7.2557e-05
0.0123477
6.91421e-05
0.0123436
6.64367e-05
0.0123397
6.2763e-05
0.0123361
6.03797e-05
0.0123327
5.62863e-05
0.0123294
5.45321e-05
0.0123264
4.98052e-05
0.0123235
4.90496e-05
4.32715e-05
0.0124317
1.02145e-06
0.0124303
4.10623e-06
0.0124286
7.30595e-06
0.0124267
1.06161e-05
0.0124244
1.40327e-05
0.0124219
1.75514e-05
0.012419
2.11674e-05
0.0124159
2.4875e-05
0.0124124
2.86672e-05
0.0124086
3.25354e-05
0.0124045
3.647e-05
0.0124001
4.04596e-05
0.0123954
4.4492e-05
0.0123904
4.85535e-05
0.012385
5.26299e-05
0.0123794
5.67059e-05
0.0123735
6.07658e-05
0.0123673
6.47929e-05
0.0123609
6.87703e-05
0.0123541
7.26803e-05
0.0123472
7.65049e-05
0.01234
8.02259e-05
0.0123326
8.3825e-05
0.012325
8.72836e-05
0.0123172
9.0583e-05
0.0123093
9.3705e-05
0.0123012
9.66331e-05
0.012293
9.93522e-05
0.0122848
0.000101849
0.0122765
0.000104111
0.0122681
0.000106125
0.0122597
0.000107879
0.0122513
0.000109362
0.012243
0.000110564
0.0122347
0.000111478
0.0122264
0.000112099
0.0122183
0.000112425
0.0122103
0.000112455
0.0122024
0.000112192
0.0121946
0.000111639
0.012187
0.000110805
0.0121796
0.000109695
0.0121725
0.000108321
0.0121655
0.000106694
0.0121587
0.00010483
0.0121521
0.000102737
0.0121458
0.000100445
0.0121398
9.79443e-05
0.0121339
9.53038e-05
0.0121284
9.24508e-05
0.012123
8.95639e-05
0.0121179
8.64009e-05
0.0121131
8.33867e-05
0.0121085
7.99513e-05
0.0121041
7.69249e-05
0.0121
7.32579e-05
0.0120961
7.0347e-05
0.0120925
6.64203e-05
0.012089
6.3863e-05
0.0120857
5.95061e-05
0.0120827
5.76262e-05
0.0120798
5.26117e-05
0.0120771
5.17995e-05
4.56849e-05
0.0121965
2.38695e-06
0.0121948
5.75478e-06
0.0121929
9.24459e-06
0.0121907
1.28515e-05
0.0121881
1.65708e-05
0.0121853
2.03975e-05
0.0121821
2.4326e-05
0.0121786
2.83497e-05
0.0121749
3.24604e-05
0.0121707
3.66487e-05
0.0121663
4.09034e-05
0.0121616
4.52121e-05
0.0121565
4.95609e-05
0.0121511
5.39346e-05
0.0121454
5.83174e-05
0.0121394
6.26924e-05
0.0121332
6.7042e-05
0.0121266
7.13482e-05
0.0121198
7.55922e-05
0.0121127
7.97547e-05
0.0121054
8.38162e-05
0.0120979
8.7757e-05
0.0120901
9.15575e-05
0.0120822
9.51976e-05
0.0120741
9.86574e-05
0.0120659
0.000101918
0.0120576
0.000104961
0.0120492
0.000107772
0.0120407
0.000110337
0.0120322
0.000112643
0.0120236
0.000114677
0.0120151
0.000116428
0.0120065
0.000117884
0.0119981
0.000119035
0.0119897
0.000119875
0.0119814
0.0001204
0.0119732
0.000120608
0.0119651
0.000120501
0.0119572
0.000120082
0.0119495
0.000119356
0.011942
0.000118333
0.0119347
0.000117021
0.0119276
0.000115432
0.0119207
0.00011358
0.011914
0.000111481
0.0119076
0.000109147
0.0119015
0.000106608
0.0118955
0.000103857
0.0118899
0.000100964
0.0118845
9.78558e-05
0.0118793
9.47188e-05
0.0118744
9.12997e-05
0.0118698
8.80444e-05
0.0118654
8.43549e-05
0.0118612
8.11027e-05
0.0118573
7.71857e-05
0.0118535
7.40701e-05
0.0118501
6.98957e-05
0.0118468
6.71664e-05
0.0118437
6.25543e-05
0.0118408
6.05506e-05
0.0118381
5.52606e-05
0.0118355
5.43923e-05
4.7958e-05
0.0119664
4.00083e-06
0.0119645
7.66443e-06
0.0119623
1.14574e-05
0.0119598
1.53741e-05
0.0119569
1.94088e-05
0.0119538
2.35556e-05
0.0119503
2.78082e-05
0.0119465
3.21587e-05
0.0119423
3.65981e-05
0.0119379
4.11156e-05
0.0119331
4.56988e-05
0.011928
5.03336e-05
0.0119225
5.50046e-05
0.0119167
5.9695e-05
0.0119107
6.4387e-05
0.0119043
6.90623e-05
0.0118976
7.37014e-05
0.0118907
7.82845e-05
0.0118835
8.27911e-05
0.0118761
8.72002e-05
0.0118684
9.14908e-05
0.0118605
9.56418e-05
0.0118524
9.96319e-05
0.0118442
0.00010344
0.0118358
0.000107045
0.0118273
0.000110426
0.0118187
0.000113566
0.01181
0.000116449
0.0118013
0.00011906
0.0117925
0.000121387
0.0117838
0.000123419
0.0117751
0.000125141
0.0117664
0.000126545
0.0117578
0.00012762
0.0117494
0.000128361
0.011741
0.000128765
0.0117328
0.000128831
0.0117247
0.000128562
0.0117168
0.000127963
0.0117091
0.000127042
0.0117017
0.000125808
0.0116944
0.000124273
0.0116874
0.000122451
0.0116806
0.000120355
0.0116741
0.000118007
0.0116678
0.000115417
0.0116618
0.000112619
0.0116561
0.000109606
0.0116506
0.000106452
0.0116454
0.000103081
0.0116404
9.96885e-05
0.0116357
9.60095e-05
0.0116312
9.25102e-05
0.011627
8.85663e-05
0.011623
8.50876e-05
0.0116193
8.09232e-05
0.0116157
7.76045e-05
0.0116124
7.31878e-05
0.0116093
7.02888e-05
0.0116065
6.54301e-05
0.0116037
6.33048e-05
0.0116012
5.77516e-05
0.0115988
5.68277e-05
5.00907e-05
0.0117414
5.87642e-06
0.0117392
9.85033e-06
0.0117367
1.39608e-05
0.0117338
1.8201e-05
0.0117307
2.25645e-05
0.0117272
2.70445e-05
0.0117234
3.16333e-05
0.0117192
3.63222e-05
0.0117147
4.11008e-05
0.0117099
4.59571e-05
0.0117047
5.08771e-05
0.0116992
5.58451e-05
0.0116933
6.08441e-05
0.0116872
6.58554e-05
0.0116807
7.08594e-05
0.0116739
7.58358e-05
0.0116669
8.07635e-05
0.0116595
8.56206e-05
0.0116519
9.0385e-05
0.0116441
9.5034e-05
0.0116361
9.95448e-05
0.0116278
0.000103895
0.0116194
0.000108062
0.0116108
0.000112023
0.0116021
0.000115756
0.0115933
0.00011924
0.0115844
0.000122456
0.0115754
0.000125388
0.0115665
0.000128023
0.0115575
0.000130347
0.0115486
0.00013235
0.0115397
0.000134019
0.0115309
0.000135345
0.0115222
0.000136317
0.0115136
0.000136933
0.0115052
0.000137189
0.011497
0.000137086
0.0114889
0.000136631
0.011481
0.000135828
0.0114734
0.000134688
0.011466
0.000133222
0.0114588
0.000131443
0.0114519
0.000129368
0.0114452
0.000127013
0.0114388
0.000124399
0.0114327
0.00012154
0.0114268
0.000118471
0.0114213
0.000115185
0.011416
0.000111763
0.0114109
0.000108122
0.0114061
0.000104468
0.0114016
0.000100526
0.0113973
9.67807e-05
0.0113933
9.25824e-05
0.0113895
8.88774e-05
0.011386
8.44688e-05
0.0113826
8.09486e-05
0.0113795
7.62956e-05
0.0113766
7.32295e-05
0.0113739
6.81333e-05
0.0113713
6.58887e-05
0.011369
6.00848e-05
0.0113667
5.9106e-05
5.20834e-05
0.0115212
8.02908e-06
0.0115187
1.23287e-05
0.0115159
1.67716e-05
0.0115128
2.13502e-05
0.0115093
2.60567e-05
0.0115055
3.08832e-05
0.0115013
3.58211e-05
0.0114967
4.08603e-05
0.0114918
4.59891e-05
0.0114866
5.1194e-05
0.011481
5.64594e-05
0.0114751
6.17679e-05
0.0114688
6.71005e-05
0.0114623
7.24367e-05
0.0114554
7.77549e-05
0.0114482
8.30329e-05
0.0114407
8.82474e-05
0.0114329
9.33749e-05
0.0114249
9.83913e-05
0.0114167
0.000103272
0.0114082
0.000107993
0.0113996
0.00011253
0.0113908
0.000116859
0.0113819
0.000120957
0.0113728
0.0001248
0.0113637
0.000128366
0.0113545
0.000131636
0.0113453
0.000134594
0.0113361
0.000137227
0.0113269
0.000139523
0.0113178
0.000141471
0.0113088
0.00014306
0.0112998
0.000144279
0.011291
0.000145122
0.0112824
0.000145584
0.0112739
0.000145665
0.0112656
0.000145369
0.0112576
0.0001447
0.0112497
0.000143669
0.0112421
0.000142287
0.0112348
0.000140566
0.0112277
0.000138524
0.0112209
0.000136178
0.0112144
0.000133545
0.0112081
0.00013065
0.0112021
0.000127508
0.0111964
0.000124156
0.011191
0.000120589
0.0111859
0.000116889
0.0111811
0.000112973
0.0111765
0.000109054
0.0111722
0.000104846
0.0111681
0.000100853
0.0111643
9.64007e-05
0.0111607
9.24699e-05
0.0111573
8.78207e-05
0.0111542
8.41014e-05
0.0111513
7.92184e-05
0.0111485
7.59884e-05
0.011146
7.06639e-05
0.0111435
6.83026e-05
0.0111414
6.22606e-05
0.0111392
6.1228e-05
5.39368e-05
0.0113059
1.04749e-05
0.0113031
1.51162e-05
0.0113
1.99075e-05
0.0112965
2.48398e-05
0.0112926
2.99042e-05
0.0112884
3.50916e-05
0.0112838
4.0392e-05
0.0112789
4.57939e-05
0.0112736
5.12841e-05
0.011268
5.68476e-05
0.011262
6.2467e-05
0.0112556
6.8123e-05
0.0112489
7.37947e-05
0.0112419
7.94595e-05
0.0112345
8.50937e-05
0.0112269
9.06728e-05
0.011219
9.61718e-05
0.0112108
0.000101565
0.0112024
0.000106826
0.0111937
0.00011193
0.0111848
0.000116849
0.0111758
0.000121559
0.0111666
0.000126035
0.0111573
0.000130251
0.011148
0.000134183
0.0111385
0.000137809
0.011129
0.00014111
0.0111196
0.000144069
0.0111101
0.000146674
0.0111007
0.000148914
0.0110914
0.000150779
0.0110822
0.000152258
0.0110732
0.000153343
0.0110643
0.000154027
0.0110555
0.000154308
0.011047
0.000154186
0.0110387
0.000153668
0.0110306
0.000152761
0.0110228
0.000151476
0.0110153
0.000149828
0.011008
0.000147832
0.0110011
0.000145505
0.0109944
0.000142868
0.010988
0.000139942
0.0109819
0.000136751
0.0109761
0.000133314
0.0109705
0.000129668
0.0109653
0.000125811
0.0109604
0.000121826
0.0109557
0.00011763
0.0109513
0.000113441
0.0109472
0.000108966
0.0109434
0.000104723
0.0109397
0.000100019
0.0109363
9.58636e-05
0.0109332
9.09779e-05
0.0109302
8.70624e-05
0.0109275
8.19561e-05
0.0109249
7.85656e-05
0.0109226
7.30225e-05
0.0109203
7.05475e-05
0.0109183
6.42802e-05
0.0109163
6.31947e-05
5.56521e-05
0.0110952
1.32294e-05
0.0110921
1.82297e-05
0.0110886
2.33863e-05
0.0110848
2.86887e-05
0.0110806
3.41268e-05
0.011076
3.96899e-05
0.011071
4.53666e-05
0.0110656
5.1144e-05
0.0110599
5.70072e-05
0.0110538
6.29394e-05
0.0110474
6.89214e-05
0.0110406
7.4932e-05
0.0110334
8.09478e-05
0.0110259
8.69442e-05
0.0110181
9.28954e-05
0.01101
9.87746e-05
0.0110016
0.000104555
0.010993
0.000110208
0.0109841
0.000115706
0.010975
0.000121021
0.0109657
0.000126126
0.0109563
0.000130994
0.0109467
0.000135597
0.0109371
0.000139912
0.0109274
0.000143912
0.0109176
0.000147575
0.0109078
0.00015088
0.0108981
0.000153813
0.0108884
0.000156362
0.0108788
0.000158517
0.0108693
0.000160269
0.0108599
0.000161609
0.0108508
0.000162529
0.0108418
0.000163024
0.010833
0.000163094
0.0108244
0.000162742
0.0108161
0.000161975
0.0108081
0.000160802
0.0108003
0.000159239
0.0107928
0.000157301
0.0107857
0.000155007
0.0107788
0.000152376
0.0107722
0.000149431
0.010766
0.000146194
0.01076
0.000142694
0.0107544
0.000138949
0.0107491
0.000135
0.010744
0.000130843
0.0107393
0.000126568
0.0107348
0.000122086
0.0107306
0.000117624
0.0107267
0.000112882
0.0107231
0.000108389
0.0107197
0.000103435
0.0107165
9.90569e-05
0.0107135
9.39395e-05
0.0107107
8.98312e-05
0.0107082
8.45088e-05
0.0107058
8.09618e-05
0.0107036
7.52098e-05
0.0107015
7.26243e-05
0.0106997
6.61446e-05
0.0106978
6.50076e-05
5.72306e-05
0.0108891
1.63098e-05
0.0108857
2.16872e-05
0.0108818
2.72267e-05
0.0108776
3.29164e-05
0.010873
3.87445e-05
0.010868
4.46987e-05
0.0108626
5.07662e-05
0.0108568
5.69322e-05
0.0108506
6.31802e-05
0.0108441
6.94914e-05
0.0108371
7.58445e-05
0.0108298
8.22161e-05
0.0108222
8.85808e-05
0.0108142
9.49114e-05
0.010806
0.00010118
0.0107974
0.000107357
0.0107885
0.000113413
0.0107794
0.000119319
0.0107701
0.000125044
0.0107605
0.000130559
0.0107508
0.000135835
0.010741
0.000140843
0.010731
0.000145556
0.010721
0.000149947
0.0107109
0.00015399
0.0107008
0.000157663
0.0106907
0.000160946
0.0106807
0.000163824
0.0106708
0.000166286
0.010661
0.000168326
0.0106513
0.000169934
0.0106418
0.000171103
0.0106325
0.000171828
0.0106235
0.000172105
0.0106146
0.000171934
0.010606
0.000171321
0.0105977
0.000170276
0.0105897
0.000168812
0.010582
0.000166945
0.0105746
0.000164694
0.0105676
0.00016208
0.0105608
0.000159125
0.0105544
0.000155855
0.0105483
0.000152293
0.0105425
0.000148469
0.0105371
0.000144405
0.0105319
0.000140143
0.0105271
0.00013568
0.0105225
0.000131108
0.0105183
0.000126338
0.0105143
0.000121601
0.0105106
0.00011659
0.0105071
0.000111849
0.0105039
0.000106647
0.0105009
0.000102049
0.0104982
9.67052e-05
0.0104956
9.2408e-05
0.0104932
8.68771e-05
0.010491
8.31779e-05
0.010489
7.72272e-05
0.0104871
7.45347e-05
0.0104854
6.78557e-05
0.0104837
6.66685e-05
5.86742e-05
0.0106875
1.97331e-05
0.0106837
2.55069e-05
0.0106794
3.14481e-05
0.0106748
3.7543e-05
0.0106698
4.37782e-05
0.0106643