/*--------------------------------*- C++ -*----------------------------------*\
  =========                 |
  \\      /  F ield         | OpenFOAM: The Open Source CFD Toolbox
   \\    /   O peration     | Website:  https://openfoam.org
    \\  /    A nd           | Version:  7
     \\/     M anipulation  |
\*---------------------------------------------------------------------------*/
FoamFile
{
    version     2.0;
    format      ascii;
    class       volVectorField;
    location    "10";
    object      U;
}
// * * * * * * * * * * * * * * * * * * * * * * * * * * * * * * * * * * * * * //

dimensions      [0 1 -1 0 0 0 0];

internalField   nonuniform List<vector> 
344
(
(2.30863 0.0131049 5.13086e-16)
(2.30434 0.0130094 5.1576e-16)
(2.3001 0.0129141 5.22779e-16)
(2.29589 0.0128189 5.28594e-16)
(2.29172 0.012724 5.37577e-16)
(2.2876 0.0126292 5.36634e-16)
(2.28351 0.0125346 5.40709e-16)
(2.27945 0.0124402 5.34736e-16)
(2.27544 0.012346 5.36566e-16)
(2.27146 0.012252 5.30549e-16)
(2.26752 0.0121582 5.40077e-16)
(2.26361 0.0120646 5.46254e-16)
(2.25974 0.0119713 5.46528e-16)
(2.25591 0.0118782 5.50403e-16)
(2.25211 0.0117853 5.45465e-16)
(2.24835 0.0116927 5.52409e-16)
(2.24462 0.0116003 5.58084e-16)
(2.24093 0.0115082 5.48074e-16)
(2.23727 0.0114163 5.63467e-16)
(2.23365 0.0113247 5.74485e-16)
(2.23006 0.0112334 5.60577e-16)
(2.22651 0.0111423 5.65501e-16)
(2.22298 0.0110516 5.60755e-16)
(2.21949 0.0109611 5.74447e-16)
(2.21604 0.0108709 5.64423e-16)
(2.21262 0.0107811 5.51565e-16)
(2.20923 0.0106915 5.58056e-16)
(2.20587 0.0106023 5.61817e-16)
(2.20254 0.0105134 5.64813e-16)
(2.19925 0.0104248 5.67623e-16)
(2.19598 0.0103365 5.6652e-16)
(2.19275 0.0102486 5.6512e-16)
(2.18955 0.010161 5.56277e-16)
(2.18638 0.0100737 5.60811e-16)
(2.18324 0.00998682 5.59543e-16)
(2.18013 0.00990025 5.59777e-16)
(2.17706 0.00981403 5.58893e-16)
(2.17401 0.00972814 5.5508e-16)
(2.17099 0.00964259 5.57743e-16)
(2.168 0.00955737 5.57449e-16)
(2.16504 0.00947248 5.53253e-16)
(2.16211 0.00938791 5.47928e-16)
(2.1592 0.00930363 5.43906e-16)
(2.15633 0.00921964 5.47194e-16)
(2.15348 0.00913591 5.49003e-16)
(2.15067 0.0090524 5.39133e-16)
(2.14788 0.00896908 5.32475e-16)
(2.14512 0.00888589 5.26913e-16)
(2.14238 0.00880277 5.23173e-16)
(2.13968 0.00871964 5.14538e-16)
(2.137 0.00863639 5.07897e-16)
(2.13435 0.00855288 5.06649e-16)
(2.13173 0.00846899 5.04407e-16)
(2.12913 0.00838443 5.0241e-16)
(2.12657 0.00829914 4.97168e-16)
(2.12403 0.00821242 4.96476e-16)
(2.12152 0.0081248 4.81822e-16)
(2.11903 0.0080339 4.75736e-16)
(2.11659 0.00794339 4.71323e-16)
(2.11413 0.00784393 4.65445e-16)
(2.11184 0.00775283 4.61438e-16)
(2.10924 0.00763351 4.5269e-16)
(2.10746 0.00755594 4.48008e-16)
(2.10371 0.00739211 4.40032e-16)
(2.23792 0.0154647 5.88149e-16)
(2.2338 0.015344 5.57825e-16)
(2.22972 0.0152237 5.99659e-16)
(2.22569 0.015104 5.40705e-16)
(2.22169 0.0149847 5.78473e-16)
(2.21774 0.014866 5.82116e-16)
(2.21383 0.0147477 6.09253e-16)
(2.20996 0.01463 5.834e-16)
(2.20613 0.0145127 6.09933e-16)
(2.20234 0.014396 5.81457e-16)
(2.19859 0.0142797 5.9838e-16)
(2.19488 0.014164 5.85613e-16)
(2.1912 0.0140487 6.03826e-16)
(2.18757 0.013934 6.13709e-16)
(2.18397 0.0138197 6.32416e-16)
(2.18041 0.013706 6.4791e-16)
(2.17688 0.0135927 6.13553e-16)
(2.17339 0.01348 6.30603e-16)
(2.16994 0.0133678 6.05455e-16)
(2.16652 0.0132561 6.30563e-16)
(2.16314 0.0131449 6.15367e-16)
(2.1598 0.0130342 6.32711e-16)
(2.15648 0.0129241 6.45369e-16)
(2.15321 0.0128144 6.6966e-16)
(2.14996 0.0127053 6.11667e-16)
(2.14675 0.0125967 6.47164e-16)
(2.14357 0.0124887 6.22927e-16)
(2.14043 0.0123811 6.47027e-16)
(2.13731 0.0122741 5.97696e-16)
(2.13423 0.0121676 6.22125e-16)
(2.13118 0.0120617 6.29187e-16)
(2.12817 0.0119563 6.46375e-16)
(2.12518 0.0118514 6.25356e-16)
(2.12223 0.0117471 6.39913e-16)
(2.1193 0.0116433 6.20321e-16)
(2.11641 0.01154 6.36543e-16)
(2.11354 0.0114373 6.14875e-16)
(2.11071 0.0113351 6.30144e-16)
(2.1079 0.0112334 6.34817e-16)
(2.10512 0.0111323 6.37018e-16)
(2.10238 0.0110317 6.46256e-16)
(2.09966 0.0109316 6.23504e-16)
(2.09697 0.0108321 6.31532e-16)
(2.0943 0.010733 6.14278e-16)
(2.09167 0.0106344 6.26384e-16)
(2.08906 0.0105364 6.11656e-16)
(2.08648 0.0104387 6.15764e-16)
(2.08393 0.0103416 6.16505e-16)
(2.0814 0.0102448 6.2278e-16)
(2.0789 0.0101484 5.90524e-16)
(2.07642 0.0100523 5.96459e-16)
(2.07398 0.0099565 5.83264e-16)
(2.07155 0.00986088 5.88082e-16)
(2.06916 0.00976535 5.65404e-16)
(2.06679 0.00966981 5.69021e-16)
(2.06444 0.00957409 5.68863e-16)
(2.06212 0.00947803 5.71245e-16)
(2.05983 0.00938136 5.60372e-16)
(2.05756 0.00928394 5.55894e-16)
(2.05532 0.00918507 5.55029e-16)
(2.05311 0.00908513 5.42825e-16)
(2.05091 0.00898186 5.37451e-16)
(2.04876 0.00887853 5.32601e-16)
(2.04659 0.00876608 5.25323e-16)
(2.04457 0.00866143 5.19872e-16)
(2.04229 0.00852715 5.08372e-16)
(2.04071 0.00843683 5.02914e-16)
(2.03742 0.00825127 4.93611e-16)
(2.13767 0.0171535 5.84228e-16)
(2.13396 0.0170073 5.75299e-16)
(2.1303 0.016862 5.75416e-16)
(2.12667 0.0167177 5.92339e-16)
(2.12309 0.0165743 5.82201e-16)
(2.11955 0.0164319 5.78635e-16)
(2.11605 0.0162904 5.88338e-16)
(2.11259 0.0161497 5.75958e-16)
(2.10917 0.01601 5.87498e-16)
(2.10579 0.0158712 5.82506e-16)
(2.10246 0.0157333 5.82244e-16)
(2.09915 0.0155963 6.1429e-16)
(2.09589 0.0154601 6.0753e-16)
(2.09267 0.0153248 6.09844e-16)
(2.08948 0.0151904 6.1643e-16)
(2.08633 0.0150568 6.20287e-16)
(2.08321 0.0149241 6.15477e-16)
(2.08013 0.0147922 6.18408e-16)
(2.07709 0.0146612 6.16461e-16)
(2.07408 0.014531 6.14174e-16)
(2.0711 0.0144017 6.3976e-16)
(2.06816 0.0142732 6.4239e-16)
(2.06525 0.0141455 6.47651e-16)
(2.06237 0.0140186 6.57271e-16)
(2.05953 0.0138926 6.64524e-16)
(2.05672 0.0137674 6.59358e-16)
(2.05394 0.0136429 6.45288e-16)
(2.05119 0.0135193 6.49911e-16)
(2.04847 0.0133965 6.54498e-16)
(2.04579 0.0132745 6.44538e-16)
(2.04313 0.0131533 6.41823e-16)
(2.0405 0.0130329 6.43423e-16)
(2.0379 0.0129132 6.38232e-16)
(2.03534 0.0127944 6.42571e-16)
(2.0328 0.0126763 6.38187e-16)
(2.03028 0.012559 6.37506e-16)
(2.0278 0.0124425 6.52464e-16)
(2.02535 0.0123267 6.46733e-16)
(2.02292 0.0122117 6.46397e-16)
(2.02052 0.0120974 6.4261e-16)
(2.01814 0.0119839 6.48059e-16)
(2.01579 0.0118711 6.40063e-16)
(2.01347 0.011759 6.44213e-16)
(2.01118 0.0116476 6.36647e-16)
(2.0089 0.0115369 6.31246e-16)
(2.00666 0.0114269 6.43369e-16)
(2.00444 0.0113175 6.37645e-16)
(2.00224 0.0112088 6.34255e-16)
(2.00007 0.0111006 6.32881e-16)
(1.99793 0.010993 6.32957e-16)
(1.9958 0.0108858 6.2589e-16)
(1.9937 0.0107791 6.1435e-16)
(1.99163 0.0106727 6.10341e-16)
(1.98958 0.0105665 6.09954e-16)
(1.98755 0.0104605 6.0258e-16)
(1.98554 0.0103544 5.96412e-16)
(1.98356 0.010248 5.94431e-16)
(1.9816 0.0101412 5.88251e-16)
(1.97966 0.0100336 5.7962e-16)
(1.97774 0.00992462 5.78014e-16)
(1.97585 0.00981447 5.71625e-16)
(1.97398 0.00970106 5.65146e-16)
(1.97215 0.00958711 5.60313e-16)
(1.9703 0.00946421 5.54747e-16)
(1.96857 0.00934811 5.4966e-16)
(1.96665 0.00920205 5.42274e-16)
(1.96528 0.00910045 5.36464e-16)
(1.9625 0.00889696 5.27503e-16)
(2.02694 0.0184866 5.67027e-16)
(2.02372 0.0183157 5.48377e-16)
(2.02054 0.0181462 5.78721e-16)
(2.01741 0.0179782 5.4147e-16)
(2.01431 0.0178116 5.69132e-16)
(2.01126 0.0176465 5.8215e-16)
(2.00824 0.0174827 6.06335e-16)
(2.00527 0.0173203 5.76089e-16)
(2.00233 0.0171593 6.00767e-16)
(1.99943 0.0169996 5.79604e-16)
(1.99657 0.0168413 5.99637e-16)
(1.99375 0.0166843 5.93472e-16)
(1.99096 0.0165285 6.11416e-16)
(1.98821 0.0163741 6.23715e-16)
(1.98549 0.0162209 6.30412e-16)
(1.98281 0.016069 6.41724e-16)
(1.98016 0.0159184 6.17519e-16)
(1.97754 0.0157689 6.40679e-16)
(1.97496 0.0156207 6.2463e-16)
(1.97241 0.0154737 6.37253e-16)
(1.96989 0.0153279 6.25192e-16)
(1.96741 0.0151832 6.52981e-16)
(1.96495 0.0150397 6.5899e-16)
(1.96253 0.0148974 6.77715e-16)
(1.96013 0.0147562 6.32038e-16)
(1.95777 0.0146161 6.62007e-16)
(1.95543 0.0144772 6.49215e-16)
(1.95313 0.0143394 6.71687e-16)
(1.95085 0.0142026 6.31538e-16)
(1.9486 0.014067 6.50922e-16)
(1.94637 0.0139324 6.61548e-16)
(1.94418 0.0137989 6.69019e-16)
(1.94201 0.0136665 6.52341e-16)
(1.93986 0.0135351 6.63932e-16)
(1.93775 0.0134047 6.46819e-16)
(1.93566 0.0132754 6.57593e-16)
(1.93359 0.0131471 6.47107e-16)
(1.93155 0.0130198 6.55322e-16)
(1.92953 0.0128934 6.63135e-16)
(1.92754 0.0127681 6.64253e-16)
(1.92557 0.0126437 6.70553e-16)
(1.92363 0.0125202 6.55076e-16)
(1.92171 0.0123977 6.61032e-16)
(1.91981 0.0122761 6.47986e-16)
(1.91793 0.0121554 6.50775e-16)
(1.91608 0.0120355 6.45334e-16)
(1.91425 0.0119165 6.47174e-16)
(1.91244 0.0117983 6.49718e-16)
(1.91065 0.0116809 6.53954e-16)
(1.90888 0.0115642 6.29695e-16)
(1.90714 0.0114481 6.34859e-16)
(1.90541 0.0113326 6.23926e-16)
(1.90371 0.0112177 6.26999e-16)
(1.90202 0.0111031 6.09982e-16)
(1.90036 0.0109888 6.12855e-16)
(1.89872 0.0108745 6.11396e-16)
(1.89709 0.0107602 6.1028e-16)
(1.89549 0.0106455 6.00861e-16)
(1.8939 0.0105302 5.97505e-16)
(1.89234 0.0104136 5.95381e-16)
(1.89079 0.0102957 5.85603e-16)
(1.88926 0.0101748 5.8109e-16)
(1.88776 0.0100529 5.76481e-16)
(1.88626 0.00992254 5.71511e-16)
(1.88484 0.00979754 5.66486e-16)
(1.88328 0.00964347 5.56984e-16)
(1.88215 0.00953232 5.51837e-16)
(1.8799 0.00931568 5.43244e-16)
(1.90746 0.0194033 5.20972e-16)
(1.9048 0.01921 5.1107e-16)
(1.90219 0.0190188 5.2049e-16)
(1.89961 0.0188296 5.38085e-16)
(1.89706 0.0186423 5.33787e-16)
(1.89456 0.018457 5.29954e-16)
(1.89209 0.0182736 5.46007e-16)
(1.88966 0.018092 5.362e-16)
(1.88726 0.0179123 5.48283e-16)
(1.8849 0.0177344 5.454e-16)
(1.88257 0.0175583 5.43123e-16)
(1.88028 0.0173839 5.74017e-16)
(1.87802 0.0172113 5.69656e-16)
(1.87579 0.0170404 5.77923e-16)
(1.87359 0.0168712 5.79119e-16)
(1.87142 0.0167037 5.9288e-16)
(1.86929 0.0165377 5.8854e-16)
(1.86718 0.0163734 5.92803e-16)
(1.8651 0.0162107 5.92087e-16)
(1.86306 0.0160496 5.93892e-16)
(1.86104 0.01589 6.20036e-16)
(1.85905 0.0157319 6.16984e-16)
(1.85708 0.0155754 6.17112e-16)
(1.85515 0.0154203 6.25343e-16)
(1.85324 0.0152667 6.31369e-16)
(1.85135 0.0151146 6.33492e-16)
(1.84949 0.0149638 6.29414e-16)
(1.84766 0.0148145 6.34951e-16)
(1.84585 0.0146666 6.38041e-16)
(1.84407 0.0145201 6.3239e-16)
(1.84231 0.0143749 6.27758e-16)
(1.84057 0.014231 6.37087e-16)
(1.83886 0.0140885 6.2994e-16)
(1.83717 0.0139473 6.34194e-16)
(1.8355 0.0138073 6.24887e-16)
(1.83385 0.0136687 6.23716e-16)
(1.83223 0.0135312 6.36841e-16)
(1.83062 0.0133951 6.34138e-16)
(1.82904 0.0132601 6.3602e-16)
(1.82748 0.0131263 6.35866e-16)
(1.82594 0.0129937 6.40007e-16)
(1.82442 0.0128623 6.32663e-16)
(1.82292 0.012732 6.35175e-16)
(1.82144 0.0126028 6.29904e-16)
(1.81997 0.0124747 6.2699e-16)
(1.81853 0.0123477 6.35178e-16)
(1.8171 0.0122217 6.30245e-16)
(1.8157 0.0120966 6.28656e-16)
(1.81431 0.0119725 6.29254e-16)
(1.81294 0.0118493 6.28142e-16)
(1.81158 0.011727 6.22899e-16)
(1.81025 0.0116054 6.13981e-16)
(1.80893 0.0114844 6.10906e-16)
(1.80762 0.011364 6.10475e-16)
(1.80634 0.0112441 6.03306e-16)
(1.80507 0.0111244 5.98697e-16)
(1.80381 0.0110048 5.96018e-16)
(1.80258 0.0108849 5.93003e-16)
(1.80136 0.0107646 5.87314e-16)
(1.80015 0.0106432 5.82633e-16)
(1.79896 0.0105205 5.77533e-16)
(1.79779 0.0103951 5.73436e-16)
(1.79663 0.0102683 5.6957e-16)
(1.79548 0.0101338 5.65309e-16)
(1.79438 0.0100029 5.61276e-16)
(1.79319 0.00984501 5.55261e-16)
(1.79231 0.0097265 5.49928e-16)
(1.79059 0.00950218 5.42083e-16)
(1.78113 0.0198563 4.91682e-16)
(1.77909 0.019645 4.65414e-16)
(1.77708 0.0194362 4.9948e-16)
(1.77511 0.0192299 4.58735e-16)
(1.77317 0.019026 4.97563e-16)
(1.77126 0.0188246 5.00554e-16)
(1.76938 0.0186256 5.33174e-16)
(1.76754 0.0184289 5.03745e-16)
)
;

boundaryField
{
    inlet
    {
        type            uniformFixedValue;
        uniformValue    constant (1 0 0);
        value           nonuniform 0();
    }
    outlet
    {
        type            pressureInletOutletVelocity;
        value           nonuniform List<vector> 5((2.10371 0.00739211 4.40032e-16) (2.03742 0.00825127 4.93611e-16) (1.9625 0.00889696 5.27503e-16) (1.8799 0.00931568 5.43244e-16) (1.79059 0.00950218 5.42083e-16));
    }
    wall
    {
        type            fixedValue;
        value           nonuniform 0();
    }
    wedge1
    {
        type            wedge;
    }
    wedge2
    {
        type            wedge;
    }
    axis
    {
        type            empty;
    }
    procBoundary11to5
    {
        type            processor;
        value           nonuniform List<vector> 
69
(
(2.38264 0.0109986 4.43694e-16)
(2.3781 0.0109249 4.98179e-16)
(2.37359 0.0108511 4.65575e-16)
(2.36913 0.0107773 5.16142e-16)
(2.3647 0.0107035 4.84655e-16)
(2.3603 0.0106296 5.26225e-16)
(2.35594 0.0105556 5.08243e-16)
(2.35162 0.0104817 4.877e-16)
(2.34734 0.0104077 4.8414e-16)
(2.34308 0.0103337 4.57515e-16)
(2.33887 0.0102597 5.11058e-16)
(2.33469 0.0101858 4.7627e-16)
(2.33054 0.0101118 5.21982e-16)
(2.32643 0.0100379 4.92534e-16)
(2.32235 0.00996402 5.3249e-16)
(2.31831 0.00989019 5.06261e-16)
(2.3143 0.00981642 4.94891e-16)
(2.31032 0.00974271 4.70864e-16)
(2.30638 0.00966908 5.24418e-16)
(2.30248 0.00959553 5.1172e-16)
(2.2986 0.00952207 5.01315e-16)
(2.29476 0.00944871 4.77387e-16)
(2.29096 0.00937546 5.21224e-16)
(2.28718 0.00930233 5.11564e-16)
(2.28344 0.00922932 4.95467e-16)
(2.27973 0.00915645 4.80398e-16)
(2.27606 0.00908371 5.14202e-16)
(2.27241 0.00901112 4.99162e-16)
(2.2688 0.00893869 5.29512e-16)
(2.26522 0.00886642 5.02614e-16)
(2.26168 0.00879431 5.26287e-16)
(2.25816 0.00872238 5.13833e-16)
(2.25468 0.00865063 4.97564e-16)
(2.25122 0.00857906 4.92358e-16)
(2.2478 0.00850768 4.77932e-16)
(2.24441 0.0084365 4.9884e-16)
(2.24105 0.00836551 4.79131e-16)
(2.23772 0.00829471 5.02668e-16)
(2.23442 0.00822411 4.86167e-16)
(2.23115 0.00815371 4.97932e-16)
(2.22791 0.00808349 4.81744e-16)
(2.22471 0.00801346 4.76257e-16)
(2.22153 0.0079436 4.68353e-16)
(2.21838 0.0078739 4.85163e-16)
(2.21526 0.00780434 4.68979e-16)
(2.21217 0.00773489 4.62759e-16)
(2.20911 0.00766553 4.51287e-16)
(2.20608 0.0075962 4.62724e-16)
(2.20307 0.00752685 4.55774e-16)
(2.2001 0.00745741 4.4521e-16)
(2.19716 0.0073878 4.31209e-16)
(2.19424 0.00731789 4.42395e-16)
(2.19136 0.00724759 4.33143e-16)
(2.1885 0.00717663 4.3937e-16)
(2.18567 0.00710502 4.29609e-16)
(2.18288 0.00703206 4.28045e-16)
(2.18011 0.00695841 4.0968e-16)
(2.17737 0.00688167 4.02955e-16)
(2.17468 0.00680572 3.97519e-16)
(2.17196 0.00672131 3.91957e-16)
(2.16944 0.00664548 3.87217e-16)
(2.16656 0.00654351 3.81135e-16)
(2.16462 0.00648005 3.76533e-16)
(2.16046 0.00634058 3.69163e-16)
(2.32616 0.0134883 5.17285e-16)
(2.32171 0.0133922 5.07131e-16)
(2.31731 0.0132963 5.20261e-16)
(2.31295 0.0132005 5.1502e-16)
(2.31295 0.0132005 5.1502e-16)
)
;
    }
    procBoundary11to10
    {
        type            processor;
        value           nonuniform List<vector> 4((2.24208 0.015586 5.47187e-16) (2.14143 0.0173007 5.87352e-16) (2.03021 0.0186591 5.34459e-16) (1.91016 0.0195986 5.2422e-16));
    }
    procBoundary11to16
    {
        type            processor;
        value           nonuniform List<vector> 2((1.78321 0.0200703 4.50877e-16) (1.64991 0.0198185 4.42532e-16));
    }
    procBoundary11to17
    {
        type            processor;
        value           nonuniform List<vector> 
68
(
(1.76572 0.0182346 5.31757e-16)
(1.76394 0.0180424 5.07871e-16)
(1.76218 0.0178525 5.27596e-16)
(1.76045 0.0176648 5.21202e-16)
(1.75875 0.0174792 5.44633e-16)
(1.75708 0.0172958 5.63627e-16)
(1.75543 0.0171144 5.66174e-16)
(1.75381 0.016935 5.84946e-16)
(1.75222 0.0167577 5.60774e-16)
(1.75065 0.0165823 5.81792e-16)
(1.7491 0.0164089 5.63182e-16)
(1.74758 0.0162373 5.84451e-16)
(1.74609 0.0160677 5.7104e-16)
(1.74461 0.0158999 5.92685e-16)
(1.74316 0.015734 5.93253e-16)
(1.74174 0.0155698 6.09191e-16)
(1.74033 0.0154074 5.77544e-16)
(1.73895 0.0152467 6.12638e-16)
(1.73758 0.0150878 5.97799e-16)
(1.73624 0.0149305 6.17582e-16)
(1.73492 0.0147749 5.84493e-16)
(1.73362 0.0146209 6.02085e-16)
(1.73233 0.0144685 6.08356e-16)
(1.73107 0.0143177 6.23311e-16)
(1.72982 0.0141685 6.03074e-16)
(1.7286 0.0140208 6.17051e-16)
(1.72739 0.0138746 5.99255e-16)
(1.7262 0.01373 6.09694e-16)
(1.72503 0.0135867 5.99973e-16)
(1.72387 0.013445 6.1107e-16)
(1.72273 0.0133046 6.21407e-16)
(1.72161 0.0131656 6.22931e-16)
(1.7205 0.013028 6.28899e-16)
(1.71941 0.0128917 6.12074e-16)
(1.71834 0.0127568 6.20863e-16)
(1.71728 0.0126231 6.03836e-16)
(1.71623 0.0124907 6.09822e-16)
(1.7152 0.0123596 6.02705e-16)
(1.71419 0.0122296 6.09e-16)
(1.71319 0.0121007 6.08461e-16)
(1.7122 0.011973 6.12759e-16)
(1.71123 0.0118463 5.93076e-16)
(1.71027 0.0117205 6.01745e-16)
(1.70932 0.0115957 5.89189e-16)
(1.70839 0.0114718 5.93968e-16)
(1.70747 0.0113485 5.79164e-16)
(1.70656 0.0112258 5.83583e-16)
(1.70567 0.0111036 5.80315e-16)
(1.70478 0.0109816 5.81883e-16)
(1.70391 0.0108596 5.71986e-16)
(1.70305 0.0107373 5.69701e-16)
(1.70221 0.0106141 5.68269e-16)
(1.70137 0.0104898 5.60536e-16)
(1.70055 0.0103631 5.58762e-16)
(1.69974 0.0102348 5.55636e-16)
(1.69893 0.0100997 5.52127e-16)
(1.69816 0.00996647 5.48264e-16)
(1.69733 0.00980909 5.39764e-16)
(1.69671 0.0096859 5.34968e-16)
(1.69551 0.00945991 5.27598e-16)
(1.64852 0.0195948 4.02419e-16)
(1.64715 0.019374 4.37137e-16)
(1.64581 0.0191562 4.2829e-16)
(1.64449 0.0189413 4.61606e-16)
(1.6432 0.0187293 4.2862e-16)
(1.64194 0.01852 4.66862e-16)
(1.76572 0.0182346 5.31757e-16)
(1.6407 0.0183135 4.30743e-16)
)
;
    }
}


// ************************************************************************* //
