0.177249 	0.476399 	2.71871e-18 	0.30981
0.179496 	0.482439 	4.0281e-18 	0.307395
0.18124 	0.487125 	4.39376e-18 	0.304852
0.184223 	0.495143 	4.71181e-18 	0.303204
