/*--------------------------------*- C++ -*----------------------------------*\
  =========                 |
  \\      /  F ield         | OpenFOAM: The Open Source CFD Toolbox
   \\    /   O peration     | Website:  https://openfoam.org
    \\  /    A nd           | Version:  7
     \\/     M anipulation  |
\*---------------------------------------------------------------------------*/
FoamFile
{
    version     2.0;
    format      ascii;
    class       volScalarField;
    location    "33.000128";
    object      p;
}
// * * * * * * * * * * * * * * * * * * * * * * * * * * * * * * * * * * * * * //

dimensions      [0 2 -2 0 0 0 0];

internalField   nonuniform List<scalar> 
5800
(
-0.241145
-0.241663
-0.242113
-0.242462
-0.242671
-0.242698
-0.242502
-0.242064
-0.241353
-0.233359
-0.235119
-0.236185
-0.23702
-0.23775
-0.238398
-0.239003
-0.239591
-0.240173
-0.240748
-0.241304
-0.241819
-0.242267
-0.242614
-0.242822
-0.242848
-0.242644
-0.242194
-0.241471
-0.233901
-0.235601
-0.236632
-0.23744
-0.238147
-0.238775
-0.239362
-0.239934
-0.240504
-0.241068
-0.241615
-0.242123
-0.242566
-0.24291
-0.243115
-0.243138
-0.242921
-0.242443
-0.241713
-0.234696
-0.236308
-0.237288
-0.238056
-0.238728
-0.239326
-0.239886
-0.240435
-0.240983
-0.241529
-0.242061
-0.242558
-0.242993
-0.243331
-0.243531
-0.243549
-0.243315
-0.242782
-0.242096
-0.235724
-0.237225
-0.238139
-0.238855
-0.23948
-0.240036
-0.240558
-0.241073
-0.241592
-0.242112
-0.242621
-0.2431
-0.243521
-0.24385
-0.244042
-0.244053
-0.243805
-0.243168
-0.242653
-0.23696
-0.23833
-0.239165
-0.239816
-0.240382
-0.240885
-0.241358
-0.241828
-0.242306
-0.242789
-0.243268
-0.24372
-0.244121
-0.244433
-0.244611
-0.244613
-0.244368
-0.243527
-0.243429
-0.239278
-0.238375
-0.2396
-0.240345
-0.240921
-0.241416
-0.241852
-0.242263
-0.242674
-0.243098
-0.243533
-0.243968
-0.244384
-0.244753
-0.245042
-0.245199
-0.24518
-0.244984
-0.243751
-0.244468
-0.238352
-0.239942
-0.241013
-0.241658
-0.242147
-0.242558
-0.242914
-0.243247
-0.243585
-0.24394
-0.244311
-0.244689
-0.245054
-0.24538
-0.245635
-0.245759
-0.245686
-0.245633
-0.243762
-0.245665
-0.237344
-0.241631
-0.242544
-0.243083
-0.243475
-0.243789
-0.244049
-0.244288
-0.244535
-0.244802
-0.245092
-0.245396
-0.245694
-0.245962
-0.246168
-0.246248
-0.246064
-0.246217
-0.243838
-0.246365
-0.236467
-0.243419
-0.244176
-0.244602
-0.244887
-0.24509
-0.245237
-0.245364
-0.245499
-0.245659
-0.245848
-0.246058
-0.246271
-0.246462
-0.2466
-0.246625
-0.246384
-0.246534
-0.243756
-0.247071
-0.235259
-0.245285
-0.245891
-0.2462
-0.246368
-0.246446
-0.246463
-0.246456
-0.246458
-0.246489
-0.246554
-0.246649
-0.246756
-0.24685
-0.246901
-0.24685
-0.246499
-0.24673
-0.243312
-0.247725
-0.233765
-0.247218
-0.24768
-0.24787
-0.24791
-0.247847
-0.247713
-0.247551
-0.247397
-0.247274
-0.247193
-0.24715
-0.247131
-0.247107
-0.247049
-0.246906
-0.246388
-0.24676
-0.242525
-0.24813
-0.232143
-0.249212
-0.24954
-0.249607
-0.249508
-0.249287
-0.248983
-0.248643
-0.248308
-0.248008
-0.247756
-0.247554
-0.247386
-0.247224
-0.247035
-0.246784
-0.246056
-0.246546
-0.241489
-0.248014
-0.230646
-0.251273
-0.251478
-0.251416
-0.251166
-0.25077
-0.250273
-0.249731
-0.249192
-0.24869
-0.248245
-0.247861
-0.247524
-0.247206
-0.246862
-0.246481
-0.245524
-0.246005
-0.240342
-0.24705
-0.229474
-0.253417
-0.253505
-0.25331
-0.252894
-0.252303
-0.251593
-0.250826
-0.250058
-0.249331
-0.248671
-0.248085
-0.247561
-0.247066
-0.246547
-0.245999
-0.244818
-0.245053
-0.239198
-0.244999
-0.228553
-0.25567
-0.255645
-0.255305
-0.254708
-0.253905
-0.252959
-0.251943
-0.250924
-0.249951
-0.249057
-0.248252
-0.247522
-0.246832
-0.246112
-0.245344
-0.243946
-0.243642
-0.238035
-0.241877
-0.227486
-0.258069
-0.257926
-0.25743
-0.256635
-0.255596
-0.254393
-0.253108
-0.251817
-0.250581
-0.249436
-0.248394
-0.247442
-0.246532
-0.245579
-0.244521
-0.242877
-0.241779
-0.236656
-0.237958
-0.225792
-0.260659
-0.260385
-0.259719
-0.258703
-0.257409
-0.255926
-0.254352
-0.252773
-0.251257
-0.249846
-0.248553
-0.247356
-0.246193
-0.244959
-0.243528
-0.241546
-0.2395
-0.234779
-0.233511
-0.223209
-0.263493
-0.263066
-0.262208
-0.26095
-0.259377
-0.257596
-0.255714
-0.253832
-0.252023
-0.250333
-0.248769
-0.247299
-0.245836
-0.244247
-0.242347
-0.239878
-0.236829
-0.232192
-0.228568
-0.219816
-0.266628
-0.266018
-0.264941
-0.263416
-0.261542
-0.259441
-0.257238
-0.255038
-0.252924
-0.250939
-0.249081
-0.247295
-0.245465
-0.243424
-0.240939
-0.237818
-0.233785
-0.228829
-0.223104
-0.215907
-0.270125
-0.269291
-0.267964
-0.266144
-0.263945
-0.261508
-0.258967
-0.256439
-0.254007
-0.251706
-0.249517
-0.247356
-0.245068
-0.242455
-0.23926
-0.235338
-0.230374
-0.224767
-0.217599
-0.211379
-0.274044
-0.272937
-0.271324
-0.269181
-0.266633
-0.26384
-0.26095
-0.25808
-0.255312
-0.252665
-0.250093
-0.247473
-0.244614
-0.241296
-0.237268
-0.232444
-0.226585
-0.220139
-0.212474
-0.205538
-0.278445
-0.277005
-0.275067
-0.27257
-0.269649
-0.266484
-0.263229
-0.260003
-0.256873
-0.253835
-0.250805
-0.24762
-0.244059
-0.239902
-0.23494
-0.229164
-0.222425
-0.215247
-0.207065
-0.199551
-0.28338
-0.281544
-0.27924
-0.276357
-0.27304
-0.269484
-0.265849
-0.262245
-0.258715
-0.25522
-0.251633
-0.247754
-0.243352
-0.238236
-0.23227
-0.22553
-0.217978
-0.210123
-0.20153
-0.193658
-0.2889
-0.286598
-0.283885
-0.280586
-0.276848
-0.272884
-0.268848
-0.264832
-0.260846
-0.256804
-0.252537
-0.24782
-0.242442
-0.236269
-0.229268
-0.221591
-0.213292
-0.204855
-0.195909
-0.187741
-0.295044
-0.292205
-0.289041
-0.285296
-0.281115
-0.27672
-0.272256
-0.26778
-0.263258
-0.258554
-0.25346
-0.247756
-0.241278
-0.233986
-0.225952
-0.21739
-0.208419
-0.199472
-0.190212
-0.181828
-0.301844
-0.298397
-0.294743
-0.290525
-0.285878
-0.281028
-0.276094
-0.27109
-0.265924
-0.260412
-0.25433
-0.247493
-0.239822
-0.231382
-0.222344
-0.212963
-0.203389
-0.193987
-0.184454
-0.175866
-0.309322
-0.305201
-0.30102
-0.296304
-0.291167
-0.285829
-0.280368
-0.27474
-0.268791
-0.262303
-0.255067
-0.246968
-0.238041
-0.228457
-0.218465
-0.208331
-0.198211
-0.188399
-0.178617
-0.169838
-0.317487
-0.312628
-0.307891
-0.302656
-0.297002
-0.291131
-0.285062
-0.278682
-0.271783
-0.264135
-0.255584
-0.246122
-0.23591
-0.225214
-0.214326
-0.2035
-0.192884
-0.182694
-0.172686
-0.163721
-0.326331
-0.32068
-0.315363
-0.309589
-0.303388
-0.296919
-0.290134
-0.282841
-0.274799
-0.265803
-0.255795
-0.244904
-0.23341
-0.221649
-0.209926
-0.198464
-0.187391
-0.176851
-0.166637
-0.157493
-0.335829
-0.329342
-0.323427
-0.317096
-0.310305
-0.303153
-0.295508
-0.287113
-0.277718
-0.267194
-0.255619
-0.243268
-0.230523
-0.217755
-0.205255
-0.193207
-0.18171
-0.170845
-0.160447
-0.151131
-0.34593
-0.338575
-0.332053
-0.325145
-0.317706
-0.309758
-0.301078
-0.291364
-0.280405
-0.268196
-0.254981
-0.241175
-0.227228
-0.213515
-0.200293
-0.187704
-0.175815
-0.164651
-0.15409
-0.144614
-0.356558
-0.348319
-0.341185
-0.333675
-0.325511
-0.316621
-0.306701
-0.295439
-0.282716
-0.268701
-0.253814
-0.238585
-0.223497
-0.208902
-0.195013
-0.181925
-0.169674
-0.158241
-0.147541
-0.137921
-0.367606
-0.358483
-0.350738
-0.34259
-0.3336
-0.323593
-0.312203
-0.299162
-0.284506
-0.268607
-0.252055
-0.235457
-0.219298
-0.203886
-0.189382
-0.175838
-0.163258
-0.151588
-0.140777
-0.131031
-0.378934
-0.368944
-0.36059
-0.351756
-0.341814
-0.330486
-0.317387
-0.302354
-0.285633
-0.267819
-0.249641
-0.231747
-0.214592
-0.198429
-0.183363
-0.169407
-0.156535
-0.144665
-0.133772
-0.123926
-0.390366
-0.379545
-0.370585
-0.361
-0.349953
-0.337083
-0.322037
-0.304831
-0.285965
-0.266248
-0.246513
-0.227409
-0.209338
-0.19249
-0.176917
-0.162597
-0.149475
-0.137447
-0.126504
-0.116585
-0.401693
-0.390094
-0.380527
-0.370108
-0.357783
-0.343139
-0.325929
-0.306415
-0.285376
-0.26381
-0.242609
-0.222391
-0.203488
-0.186026
-0.170007
-0.155375
-0.142048
-0.129908
-0.118952
-0.108993
-0.41267
-0.400361
-0.390183
-0.37883
-0.365039
-0.348396
-0.32884
-0.306938
-0.283751
-0.260425
-0.237869
-0.21664
-0.196995
-0.178994
-0.162594
-0.147708
-0.134229
-0.122027
-0.111094
-0.101134
-0.423023
-0.410088
-0.399286
-0.386885
-0.371435
-0.352588
-0.330553
-0.306244
-0.280982
-0.256017
-0.232232
-0.210104
-0.189811
-0.171352
-0.154642
-0.139566
-0.125992
-0.113784
-0.102914
-0.0929993
-0.432453
-0.418987
-0.407542
-0.393969
-0.376671
-0.355453
-0.330866
-0.30419
-0.276971
-0.250512
-0.225636
-0.20273
-0.181891
-0.16306
-0.146118
-0.13092
-0.117316
-0.10516
-0.0944007
-0.0845882
-0.440641
-0.426748
-0.414635
-0.399761
-0.380449
-0.356741
-0.329594
-0.300648
-0.27163
-0.243842
-0.218025
-0.194468
-0.17319
-0.154083
-0.136991
-0.121748
-0.108181
-0.0961389
-0.0855461
-0.0759064
-0.447258
-0.433047
-0.420236
-0.403941
-0.382479
-0.356221
-0.326572
-0.295507
-0.264876
-0.235944
-0.209346
-0.185272
-0.163672
-0.144389
-0.127238
-0.112028
-0.0985704
-0.0867053
-0.0763387
-0.0669478
-0.451971
-0.437554
-0.424015
-0.406191
-0.382489
-0.353687
-0.321657
-0.288669
-0.256641
-0.22676
-0.199549
-0.175102
-0.153302
-0.133951
-0.116836
-0.101746
-0.0884706
-0.076847
-0.0667628
-0.0576761
-0.454455
-0.439945
-0.425649
-0.406215
-0.380234
-0.34896
-0.314729
-0.280054
-0.246864
-0.216244
-0.188596
-0.163925
-0.142055
-0.12275
-0.105772
-0.0908887
-0.0778722
-0.0665606
-0.0568158
-0.0480134
-0.4544
-0.439907
-0.424834
-0.403741
-0.3755
-0.341893
-0.305694
-0.269597
-0.235498
-0.204355
-0.176456
-0.151717
-0.129911
-0.11077
-0.094033
-0.0794476
-0.0667705
-0.0558495
-0.0465265
-0.0379072
-0.451521
-0.437152
-0.421295
-0.398533
-0.368113
-0.332372
-0.294482
-0.257254
-0.222508
-0.191069
-0.163105
-0.138459
-0.116856
-0.0980013
-0.0816137
-0.0674206
-0.0551743
-0.0447216
-0.0358975
-0.0274847
-0.445567
-0.431425
-0.414793
-0.390395
-0.357937
-0.320316
-0.281045
-0.242996
-0.207876
-0.176368
-0.148531
-0.124142
-0.102885
-0.0844449
-0.0685242
-0.0548186
-0.0431102
-0.0332196
-0.0248138
-0.0168936
-0.436324
-0.422508
-0.405131
-0.379176
-0.344877
-0.305677
-0.265365
-0.226814
-0.191595
-0.160246
-0.132729
-0.108764
-0.0880118
-0.0701184
-0.0547921
-0.0416772
-0.0305717
-0.0213069
-0.0133691
-0.00607624
-0.423627
-0.41023
-0.392163
-0.364775
-0.328884
-0.288442
-0.247446
-0.208718
-0.173672
-0.14271
-0.115717
-0.092348
-0.0722779
-0.0550561
-0.040408
-0.0279914
-0.017582
-0.00899611
-0.00161071
0.00499002
-0.407361
-0.394471
-0.375793
-0.34714
-0.309949
-0.268629
-0.227316
-0.188733
-0.154128
-0.12379
-0.0975513
-0.0749582
-0.0556661
-0.0392588
-0.0254076
-0.0137861
-0.00416129
0.00368405
0.0104369
0.0162966
-0.387464
-0.375164
-0.35598
-0.326267
-0.288103
-0.246292
-0.205029
-0.166906
-0.133018
-0.10358
-0.0782365
-0.0565889
-0.0382314
-0.0227618
-0.00982359
0.000906367
0.00966305
0.0167018
0.0227527
0.027819
-0.36393
-0.352297
-0.332736
-0.302202
-0.263424
-0.221512
-0.180661
-0.143318
-0.110443
-0.0820713
-0.057833
-0.0372925
-0.0200193
-0.00560992
0.00630476
0.0160485
0.023857
0.0300231
0.0353075
0.0395236
-0.336807
-0.325914
-0.30613
-0.275047
-0.23603
-0.194392
-0.154309
-0.118067
-0.086441
-0.0593559
-0.0364073
-0.0171321
-0.00108451
0.0121451
0.0229314
0.0315976
0.0383811
0.0436108
0.0480652
0.0513704
-0.306202
-0.296112
-0.276287
-0.244958
-0.206056
-0.165036
-0.126101
-0.0912517
-0.0611128
-0.0355219
-0.0140387
0.00381995
0.0185093
0.0304448
0.0400034
0.0475053
0.0531915
0.0574254
0.0609881
0.0633179
-0.27227
-0.263041
-0.243388
-0.212108
-0.173589
-0.133644
-0.0961861
-0.0629993
-0.0345741
-0.0106707
0.0091825
0.0254819
0.0386893
0.0492237
0.0574614
0.0637173
0.0682401
0.071428
0.0740424
0.0753315
-0.235199
-0.226915
-0.207645
-0.176579
-0.138881
-0.10043
-0.0647306
-0.0334566
-0.00695413
0.015084
0.0331546
0.047763
0.0593746
0.0684095
0.0752395
0.0801733
0.0834756
0.0855797
0.0871919
0.0873682
-0.195176
-0.188022
-0.169201
-0.138585
-0.10229
-0.0655823
-0.0319189
-0.00278565
0.0216047
0.0416164
0.0577658
0.0705637
0.0804769
0.0879233
0.0932666
0.0968106
0.0988485
0.0998384
0.100362
0.0992856
-0.152437
-0.146682
-0.128169
-0.098705
-0.063999
-0.0293273
0.00204911
0.0288385
0.0509479
0.0687897
0.0828948
0.0937767
0.101901
0.107681
0.111468
0.113569
0.114317
0.114151
0.11339
0.110743
-0.107326
-0.103072
-0.0852453
-0.0570997
-0.0242716
0.00809295
0.0369609
0.0612285
0.08091
0.0964575
0.108412
0.117287
0.123545
0.127591
0.129767
0.130391
0.129841
0.128442
0.126065
0.121468
-0.0605364
-0.0574229
-0.0406691
-0.0140712
0.0166061
0.0464235
0.0725917
0.0941864
0.111316
0.124465
0.13418
0.140974
0.145303
0.147561
0.148084
0.147215
0.145351
0.142598
0.138345
0.132098
-0.0121941
-0.0102649
0.00523111
0.0300449
0.0583309
0.0853972
0.108707
0.127505
0.141983
0.15265
0.160056
0.16471
0.167061
0.167492
0.166336
0.163959
0.160733
0.156481
0.150347
0.144648
0.0373133
0.0379811
0.052082
0.0748989
0.100589
0.124737
0.145063
0.16097
0.172721
0.180845
0.185893
0.188366
0.188705
0.187284
0.184436
0.180534
0.175873
0.170095
0.162616
0.157148
0.087552
0.086909
0.099491
0.120131
0.143058
0.16416
0.181411
0.194362
0.203336
0.208878
0.211537
0.211807
0.210118
0.206836
0.202293
0.196852
0.190731
0.183517
0.174979
0.16914
0.138086
0.136103
0.147058
0.165375
0.185413
0.20338
0.217498
0.227457
0.233631
0.236576
0.236836
0.234898
0.231181
0.226042
0.219811
0.212829
0.205255
0.196702
0.187217
0.180699
0.188478
0.185139
0.194381
0.210265
0.227327
0.242109
0.253072
0.260032
0.263409
0.263763
0.261635
0.257502
0.251772
0.244795
0.236894
0.228385
0.219389
0.20957
0.199156
0.191792
0.238288
0.233594
0.241058
0.254437
0.268477
0.280061
0.28788
0.291864
0.292471
0.290265
0.28578
0.279483
0.271774
0.262991
0.253449
0.243441
0.233065
0.222039
0.210706
0.202411
0.287082
0.281046
0.286695
0.297532
0.308544
0.316954
0.321673
0.322733
0.320623
0.315909
0.309119
0.300708
0.291066
0.280525
0.269384
0.257919
0.246211
0.234029
0.221788
0.212522
0.334435
0.327083
0.330905
0.3392
0.347218
0.352515
0.354208
0.352424
0.347674
0.340528
0.331502
0.321045
0.309535
0.297293
0.28461
0.27174
0.258756
0.245471
0.232343
0.222087
0.379933
0.371305
0.373315
0.379104
0.384198
0.386477
0.385251
0.380727
0.37344
0.363956
0.352786
0.340366
0.327066
0.313198
0.299039
0.284828
0.270629
0.256301
0.242315
0.231068
0.423178
0.413326
0.413566
0.416922
0.419199
0.418587
0.414576
0.407444
0.397743
0.386039
0.372831
0.35855
0.343554
0.328144
0.312588
0.297108
0.281766
0.266457
0.251652
0.239428
0.463794
0.452783
0.45132
0.452346
0.451947
0.448604
0.441969
0.432384
0.420416
0.406626
0.391508
0.375481
0.358895
0.342042
0.325179
0.308512
0.292104
0.275885
0.260306
0.247133
0.501426
0.489333
0.48626
0.485093
0.482189
0.476302
0.467231
0.455371
0.441301
0.42558
0.408692
0.391049
0.372993
0.354807
0.336736
0.318973
0.301584
0.284531
0.268231
0.25415
0.535747
0.52266
0.518093
0.514899
0.509692
0.501475
0.490176
0.476239
0.460253
0.44277
0.42427
0.405155
0.385761
0.366361
0.347191
0.328432
0.310154
0.292348
0.275386
0.260452
0.566459
0.552477
0.546553
0.541523
0.534241
0.523931
0.510636
0.49484
0.477138
0.458079
0.438137
0.417707
0.397116
0.376633
0.356481
0.336833
0.317765
0.299291
0.281733
0.266013
0.593295
0.578527
0.571401
0.564752
0.555647
0.543503
0.528462
0.51104
0.491838
0.471403
0.450202
0.428623
0.406989
0.385559
0.364551
0.344129
0.324373
0.305321
0.287239
0.270813
0.616022
0.600586
0.592432
0.584401
0.573745
0.560044
0.543521
0.524722
0.50425
0.48265
0.460382
0.437832
0.415314
0.393085
0.371353
0.350275
0.32994
0.310402
0.291874
0.274834
0.634444
0.618464
0.60947
0.600312
0.588393
0.573428
0.555704
0.535788
0.514287
0.491742
0.46861
0.445272
0.422039
0.399163
0.376844
0.355236
0.334433
0.314504
0.295614
0.278064
0.648402
0.632008
0.622373
0.612358
0.59948
0.583555
0.564921
0.544158
0.521877
0.498616
0.47483
0.450896
0.427121
0.403754
0.380992
0.358982
0.337826
0.317603
0.298436
0.280493
0.657775
0.641103
0.631036
0.620442
0.606919
0.590349
0.571103
0.549772
0.526967
0.503226
0.479
0.454666
0.430528
0.406832
0.383771
0.361492
0.340099
0.319679
0.300327
0.282116
0.456557
0.432237
0.408375
0.385165
0.362751
0.341239
0.320721
0.301275
0.282928
-0.243259
-0.242999
-0.242233
-0.240867
-0.24225
-0.238939
-0.240771
-0.239525
-0.236506
-0.238468
-0.237649
-0.23357
-0.235341
-0.234984
-0.234421
-0.230041
-0.231469
-0.231576
-0.231374
-0.225938
-0.227052
-0.227535
-0.227625
-0.227652
-0.221589
-0.222461
-0.223051
-0.223279
-0.223537
-0.223791
-0.21752
-0.218107
-0.218286
-0.218315
-0.218594
-0.218937
-0.211743
-0.213907
-0.214299
-0.214537
-0.21499
-0.21546
-0.215818
-0.206815
-0.209509
-0.209991
-0.210245
-0.210789
-0.211386
-0.211861
-0.201931
-0.204942
-0.205402
-0.205632
-0.206251
-0.206966
-0.207551
-0.197048
-0.20023
-0.2007
-0.200944
-0.20164
-0.202463
-0.203152
-0.192023
-0.195379
-0.195927
-0.196217
-0.196984
-0.197903
-0.198686
-0.186891
-0.190438
-0.191103
-0.191456
-0.192288
-0.19329
-0.194164
-0.18174
-0.185444
-0.186243
-0.186672
-0.187567
-0.188647
-0.189606
-0.176604
-0.180423
-0.181363
-0.181879
-0.182838
-0.183991
-0.18503
-0.171496
-0.175401
-0.17648
-0.17709
-0.178114
-0.179335
-0.180451
-0.166436
-0.170402
-0.171611
-0.172315
-0.173404
-0.17469
-0.175878
-0.161435
-0.16544
-0.166768
-0.167566
-0.168717
-0.170064
-0.17132
-0.156498
-0.160525
-0.161962
-0.162849
-0.16406
-0.165464
-0.166784
-0.151632
-0.155667
-0.157202
-0.158173
-0.159442
-0.160898
-0.162278
-0.146842
-0.150872
-0.152497
-0.153548
-0.154869
-0.156374
-0.157807
-0.142137
-0.146149
-0.147853
-0.148979
-0.150349
-0.151897
-0.153379
-0.137523
-0.141504
-0.143279
-0.144474
-0.145888
-0.147474
-0.149
-0.133005
-0.136946
-0.138782
-0.140039
-0.141493
-0.143111
-0.144675
-0.128589
-0.132478
-0.134366
-0.135679
-0.137168
-0.138813
-0.14041
-0.12428
-0.128108
-0.130037
-0.1314
-0.132917
-0.134585
-0.136209
-0.120078
-0.123839
-0.1258
-0.127205
-0.128746
-0.13043
-0.132077
-0.115987
-0.119673
-0.121657
-0.123098
-0.124658
-0.126354
-0.128017
-0.112006
-0.115614
-0.117612
-0.119081
-0.120655
-0.122358
-0.124033
-0.108137
-0.111661
-0.113666
-0.115158
-0.11674
-0.118446
-0.120127
-0.10438
-0.107816
-0.109822
-0.11133
-0.112916
-0.11462
-0.116303
-0.100734
-0.10408
-0.106079
-0.107598
-0.109184
-0.110882
-0.112564
-0.0972005
-0.100454
-0.10244
-0.103965
-0.105547
-0.107235
-0.10891
-0.0937782
-0.0969361
-0.0989055
-0.100431
-0.102005
-0.10368
-0.105345
-0.0904666
-0.0935277
-0.095475
-0.0969974
-0.0985601
-0.100218
-0.101869
-0.0872646
-0.090228
-0.0921488
-0.0936638
-0.095212
-0.0968499
-0.0984839
-0.0841711
-0.0870361
-0.0889267
-0.0904306
-0.0919614
-0.0935769
-0.0951908
-0.0811845
-0.0839511
-0.0858081
-0.0872975
-0.0888084
-0.090399
-0.0919902
-0.0783033
-0.0809716
-0.0827922
-0.0842641
-0.0857527
-0.0873163
-0.0888824
-0.0755255
-0.0780963
-0.079878
-0.0813298
-0.082794
-0.0843287
-0.0858676
-0.0728493
-0.0753236
-0.0770643
-0.0784935
-0.0799316
-0.0814359
-0.0829456
-0.0702725
-0.0726516
-0.0743498
-0.0757544
-0.0771648
-0.0786372
-0.0801163
-0.0677932
-0.0700786
-0.0717328
-0.0731111
-0.0744924
-0.0759319
-0.077379
-0.0654091
-0.0676025
-0.0692119
-0.0705622
-0.0719135
-0.0733191
-0.0747331
-0.063118
-0.0652214
-0.0667852
-0.0681065
-0.0694268
-0.0707977
-0.0721778
-0.0609177
-0.0629333
-0.0644511
-0.0657422
-0.0670309
-0.0683668
-0.0697122
-0.058806
-0.060736
-0.0622076
-0.0634678
-0.0647244
-0.0660249
-0.0673352
-0.0567807
-0.0586275
-0.0600528
-0.0612816
-0.0625058
-0.0637707
-0.0650457
-0.0548396
-0.0566057
-0.0579851
-0.059182
-0.0603736
-0.061603
-0.0628426
-0.0529806
-0.0546685
-0.0560023
-0.0571672
-0.0583263
-0.0595203
-0.0607244
-0.0512016
-0.0528139
-0.0541027
-0.0552356
-0.0563622
-0.0575212
-0.0586901
-0.0495006
-0.0510399
-0.0522845
-0.0533854
-0.0544799
-0.0556041
-0.0567382
-0.0478755
-0.0493446
-0.0505458
-0.051615
-0.0526778
-0.0537678
-0.0548674
-0.0463246
-0.0477261
-0.0488848
-0.0499228
-0.0509542
-0.0520107
-0.0530764
-0.044846
-0.0461827
-0.0472999
-0.0483071
-0.0493078
-0.0503315
-0.0513639
-0.0434379
-0.0447125
-0.0457895
-0.0467665
-0.0477372
-0.0487287
-0.0497287
-0.0420989
-0.043314
-0.044352
-0.0452994
-0.0462408
-0.0472012
-0.0481696
-0.0408272
-0.0419857
-0.0429859
-0.0439045
-0.0448175
-0.0457476
-0.0466853
-0.0396216
-0.040726
-0.0416899
-0.0425806
-0.043466
-0.0443669
-0.0452748
-0.0384806
-0.0395338
-0.0404627
-0.0413264
-0.0421852
-0.0430579
-0.0439371
-0.0374032
-0.0384077
-0.0393031
-0.0401408
-0.040974
-0.0418196
-0.0426713
-0.0363882
-0.0373467
-0.0382101
-0.0390229
-0.0398316
-0.0406513
-0.0414765
-0.0354347
-0.0363498
-0.0371829
-0.0379718
-0.0387571
-0.0395521
-0.0403521
-0.0345419
-0.0354164
-0.0362207
-0.0369868
-0.0377499
-0.0385215
-0.0392976
-0.0337093
-0.0345456
-0.0353228
-0.0360675
-0.0368095
-0.037559
-0.0383125
-0.0329363
-0.0337372
-0.0344889
-0.0352134
-0.0359357
-0.0366644
-0.0373966
-0.0322226
-0.0329908
-0.0337188
-0.0344244
-0.0351282
-0.0358375
-0.03655
-0.0315683
-0.0323064
-0.0330125
-0.0337005
-0.0343873
-0.0350786
-0.0357727
-0.0309735
-0.031684
-0.0323701
-0.033042
-0.0337131
-0.034388
-0.0350652
-0.0304384
-0.0311243
-0.0317921
-0.0324494
-0.0331063
-0.0337663
-0.0344283
-0.0299639
-0.0306278
-0.0312794
-0.0319236
-0.0325678
-0.0332145
-0.0338628
-0.0295508
-0.0301955
-0.0308329
-0.0314657
-0.0320987
-0.0327339
-0.0333702
-0.0292005
-0.029829
-0.0304543
-0.0310773
-0.0317008
-0.0323261
-0.0329523
-0.0289145
-0.0295297
-0.0301451
-0.0307601
-0.031376
-0.0319932
-0.0326111
-0.0286949
-0.0292998
-0.0299076
-0.0305166
-0.0311265
-0.0317375
-0.0323491
-0.0285459
-0.0291439
-0.0297465
-0.0303512
-0.0309571
-0.0315638
-0.032171
-0.0284638
-0.0290593
-0.0296601
-0.0302634
-0.0308677
-0.0314726
-0.0320779
-0.0788326
-0.0870104
-0.094964
-0.102694
-0.110209
-0.117519
-0.124637
-0.131576
-0.138353
-0.144981
-0.151477
-0.157857
-0.164133
-0.170315
-0.176411
-0.182424
-0.188321
-0.194253
-0.199767
-0.206703
-0.0758202
-0.0837408
-0.0914572
-0.0989752
-0.106303
-0.11345
-0.120428
-0.127247
-0.13392
-0.14046
-0.146879
-0.153188
-0.159397
-0.165516
-0.171539
-0.177515
-0.183314
-0.189416
-0.194775
-0.202206
-0.0729414
-0.080559
-0.0879892
-0.0952402
-0.10232
-0.109237
-0.116001
-0.122621
-0.129108
-0.135471
-0.14172
-0.147868
-0.153919
-0.159898
-0.165779
-0.171692
-0.177389
-0.183609
-0.188955
-0.196319
-0.0701777
-0.0775196
-0.0846939
-0.0917081
-0.0985696
-0.105286
-0.111866
-0.118318
-0.124651
-0.130876
-0.136999
-0.143037
-0.148989
-0.154902
-0.160717
-0.166641
-0.172302
-0.178552
-0.183955
-0.190955
-0.0675466
-0.0746311
-0.0815678
-0.0883631
-0.0950238
-0.101557
-0.107972
-0.114277
-0.120479
-0.126591
-0.132617
-0.138579
-0.144466
-0.150345
-0.156116
-0.162033
-0.167642
-0.173796
-0.179211
-0.185756
-0.065047
-0.0718821
-0.0785866
-0.0851661
-0.091627
-0.0979771
-0.104224
-0.110376
-0.116441
-0.122432
-0.128349
-0.134218
-0.140018
-0.145826
-0.15151
-0.157347
-0.162871
-0.168851
-0.174282
-0.180483
-0.0626685
-0.0692603
-0.0757364
-0.0821017
-0.0883623
-0.0945257
-0.100599
-0.106591
-0.112506
-0.118359
-0.124146
-0.129897
-0.135577
-0.141277
-0.146848
-0.152565
-0.158018
-0.16383
-0.169305
-0.175272
-0.060402
-0.0667574
-0.0730102
-0.079165
-0.0852272
-0.0912041
-0.0971015
-0.102928
-0.108688
-0.114394
-0.120041
-0.125661
-0.131213
-0.136792
-0.142256
-0.147853
-0.153256
-0.158914
-0.164402
-0.170167
-0.0582413
-0.0643677
-0.0704029
-0.0763516
-0.0822184
-0.0880104
-0.0937325
-0.0993936
-0.104996
-0.110553
-0.116058
-0.121544
-0.126969
-0.132425
-0.13779
-0.143261
-0.148604
-0.154101
-0.159544
-0.165131
-0.0561812
-0.0620855
-0.0679089
-0.0736558
-0.0793306
-0.0849398
-0.0904879
-0.0959834
-0.101427
-0.106835
-0.112196
-0.117545
-0.122844
-0.12817
-0.133429
-0.13876
-0.144017
-0.149354
-0.154721
-0.160162
-0.0542162
-0.0599053
-0.0655226
-0.0710723
-0.0765585
-0.0819872
-0.0873626
-0.0926929
-0.0979787
-0.103234
-0.108451
-0.113659
-0.118826
-0.124013
-0.129154
-0.134339
-0.139495
-0.144685
-0.149959
-0.155268
-0.0523412
-0.0578218
-0.0632387
-0.0685959
-0.073897
-0.079148
-0.0843524
-0.0895182
-0.0946457
-0.0997482
-0.104818
-0.10988
-0.114912
-0.119956
-0.124973
-0.130015
-0.13506
-0.140113
-0.145276
-0.150449
-0.0505515
-0.0558302
-0.0610524
-0.0662218
-0.0713417
-0.0764178
-0.0814534
-0.0864558
-0.0914256
-0.0963741
-0.101296
-0.106211
-0.111105
-0.116005
-0.120896
-0.125797
-0.130722
-0.135635
-0.140675
-0.145709
-0.0488423
-0.0539257
-0.058959
-0.0639454
-0.0688882
-0.0737926
-0.0786619
-0.0835025
-0.0883156
-0.0931106
-0.0978849
-0.102653
-0.107407
-0.112164
-0.116923
-0.121683
-0.126478
-0.131253
-0.136163
-0.141056
-0.0472094
-0.0521041
-0.0569542
-0.0617626
-0.0665324
-0.0712686
-0.0759744
-0.0806553
-0.0853132
-0.0899556
-0.0945824
-0.099203
-0.103817
-0.108431
-0.113054
-0.117672
-0.122334
-0.126969
-0.131747
-0.136496
-0.0456493
-0.0503615
-0.0550339
-0.0596691
-0.0642703
-0.0688419
-0.0733872
-0.0779109
-0.0824156
-0.0869069
-0.0913867
-0.095861
-0.100333
-0.104804
-0.109289
-0.113767
-0.118293
-0.12279
-0.12743
-0.132037
-0.0441578
-0.0486939
-0.0531941
-0.057661
-0.062098
-0.066509
-0.070897
-0.0752663
-0.0796198
-0.0839619
-0.0882958
-0.0926248
-0.0969551
-0.101284
-0.10563
-0.109969
-0.114357
-0.118715
-0.123217
-0.127681
-0.0427313
-0.0470977
-0.0514309
-0.0557346
-0.0600119
-0.0642662
-0.0685005
-0.0727184
-0.0769231
-0.0811182
-0.0853076
-0.089493
-0.0936822
-0.0978701
-0.102077
-0.106277
-0.110526
-0.114746
-0.119108
-0.123431
-0.0413677
-0.0455699
-0.0497413
-0.0538866
-0.0580087
-0.0621102
-0.0661942
-0.070264
-0.0743228
-0.0783734
-0.0824202
-0.086464
-0.0905131
-0.0945613
-0.0986294
-0.102691
-0.106802
-0.110884
-0.115105
-0.119289
-0.0400648
-0.0441078
-0.0481226
-0.0521141
-0.0560851
-0.0600379
-0.0639753
-0.0679002
-0.071816
-0.0757248
-0.0796314
-0.0835356
-0.0874462
-0.0913564
-0.0952867
-0.0992111
-0.103184
-0.10713
-0.111209
-0.115256
-0.0388184
-0.0427075
-0.0465711
-0.0504136
-0.0542379
-0.058046
-0.0618406
-0.0656241
-0.0694
-0.07317
-0.0769387
-0.0807059
-0.0844799
-0.088254
-0.0920481
-0.0958369
-0.0996729
-0.103483
-0.107422
-0.111331
-0.0376259
-0.0413665
-0.0450838
-0.0487822
-0.0524641
-0.0561315
-0.059787
-0.0634328
-0.067072
-0.0707063
-0.07434
-0.0779726
-0.0816123
-0.0852526
-0.0889122
-0.0925673
-0.0962674
-0.0999439
-0.103743
-0.107515
-0.0364852
-0.0400821
-0.0436581
-0.0472168
-0.0507607
-0.0542916
-0.0578119
-0.0613235
-0.0648294
-0.0683311
-0.0718327
-0.0753337
-0.0788417
-0.0823505
-0.0858778
-0.0894012
-0.0929672
-0.0965115
-0.100172
-0.103808
-0.0353935
-0.0388518
-0.0422911
-0.0457147
-0.0491249
-0.0525233
-0.0559122
-0.0592934
-0.0626696
-0.066042
-0.0694146
-0.0727868
-0.0761658
-0.0795458
-0.0829432
-0.0863372
-0.0897714
-0.0931852
-0.0967099
-0.100211
-0.0343485
-0.037673
-0.0409803
-0.0442732
-0.0475539
-0.0508241
-0.0540855
-0.0573399
-0.0605898
-0.0638363
-0.0670831
-0.0703297
-0.0735827
-0.0768367
-0.0801069
-0.083374
-0.0866789
-0.0899644
-0.0933554
-0.0967237
-0.0333479
-0.0365434
-0.0397232
-0.0428899
-0.0460454
-0.0491911
-0.0523289
-0.0554603
-0.0585875
-0.0617116
-0.064836
-0.0679601
-0.0710902
-0.0742211
-0.0773671
-0.08051
-0.0836882
-0.086848
-0.090108
-0.0933455
-0.0323896
-0.0354607
-0.0385175
-0.0415622
-0.0445966
-0.0476221
-0.0506401
-0.0536522
-0.0566603
-0.0596655
-0.0626708
-0.0656758
-0.068686
-0.071697
-0.0747218
-0.0777435
-0.0807981
-0.0838347
-0.0869666
-0.0900759
-0.0314718
-0.034423
-0.0373611
-0.040288
-0.0432054
-0.0461145
-0.0490166
-0.051913
-0.0548057
-0.0576955
-0.0605852
-0.0634743
-0.0663681
-0.0692623
-0.072169
-0.0750725
-0.0780066
-0.0809232
-0.0839298
-0.086914
-0.0305925
-0.0334283
-0.0362518
-0.0390651
-0.0418695
-0.044666
-0.047456
-0.0502405
-0.0530213
-0.0557992
-0.0585767
-0.0613535
-0.0641342
-0.0669149
-0.0697069
-0.0724953
-0.0753121
-0.0781116
-0.0809963
-0.0838584
-0.0297502
-0.0324746
-0.0351878
-0.0378914
-0.0405867
-0.0432745
-0.0459561
-0.0486324
-0.0513049
-0.0539745
-0.0566433
-0.059311
-0.061982
-0.0646525
-0.0673331
-0.0700098
-0.0727126
-0.0753984
-0.0781643
-0.0809079
-0.0289431
-0.0315603
-0.0341671
-0.036765
-0.039355
-0.0419379
-0.0445147
-0.0470864
-0.0496542
-0.0522189
-0.0547825
-0.0573447
-0.0599093
-0.0624731
-0.0650456
-0.067614
-0.0702061
-0.0727816
-0.0754322
-0.0780606
-0.0281698
-0.0306838
-0.033188
-0.035684
-0.0381725
-0.0406541
-0.0431298
-0.0456004
-0.0480671
-0.0505304
-0.0529922
-0.0554522
-0.057914
-0.0603744
-0.0628424
-0.0653057
-0.0677906
-0.0702592
-0.072798
-0.0753148
-0.0274288
-0.0298432
-0.0322488
-0.0346467
-0.0370373
-0.0394213
-0.0417994
-0.0441724
-0.0465414
-0.0489068
-0.0512703
-0.0536316
-0.0559939
-0.0583543
-0.0607211
-0.0630829
-0.0654641
-0.0678292
-0.0702596
-0.0726685
-0.0267188
-0.0290374
-0.0313481
-0.0336513
-0.0359477
-0.0382375
-0.0405216
-0.0428005
-0.0450752
-0.0473461
-0.0496147
-0.0518806
-0.0541468
-0.0564107
-0.0586796
-0.0609433
-0.0632243
-0.0654894
-0.0678152
-0.0701197
-0.0260379
-0.0282648
-0.0304842
-0.0326965
-0.034902
-0.0371011
-0.0392945
-0.0414827
-0.0436665
-0.0458463
-0.0480233
-0.0501972
-0.0523707
-0.0545413
-0.056716
-0.0588849
-0.0610691
-0.0632377
-0.0654624
-0.0676662
-0.0253834
-0.0275235
-0.0296556
-0.0317804
-0.0338985
-0.0360104
-0.0381165
-0.0402174
-0.0423136
-0.0444054
-0.0464941
-0.0485794
-0.0506635
-0.0527443
-0.0548279
-0.0569055
-0.0589964
-0.061072
-0.0631992
-0.065306
-0.0247558
-0.0268129
-0.0288612
-0.0309019
-0.0329359
-0.0349637
-0.0369859
-0.0390026
-0.0410145
-0.0430217
-0.0450254
-0.0470252
-0.0490233
-0.0510174
-0.0530135
-0.0550031
-0.0570041
-0.0589901
-0.0610234
-0.0630369
-0.0241572
-0.0261331
-0.0281003
-0.0300599
-0.032013
-0.03396
-0.0359012
-0.037837
-0.0397676
-0.0416934
-0.0436153
-0.0455328
-0.047448
-0.0493588
-0.0512705
-0.0531755
-0.0550901
-0.0569898
-0.0589329
-0.0608566
-0.0235857
-0.0254827
-0.0273716
-0.0292532
-0.0311284
-0.0329976
-0.034861
-0.0367189
-0.0385714
-0.0404189
-0.042262
-0.0441004
-0.0459359
-0.0477666
-0.0495972
-0.0514208
-0.0532523
-0.0550692
-0.0569254
-0.058763
-0.0230388
-0.0248599
-0.0266736
-0.0284804
-0.0302808
-0.0320752
-0.0338639
-0.0356468
-0.0374242
-0.0391964
-0.0409638
-0.0427262
-0.0444851
-0.0462388
-0.0479915
-0.0497369
-0.0514887
-0.053226
-0.054999
-0.0567538
-0.0225157
-0.0242641
-0.0260056