/*--------------------------------*- C++ -*----------------------------------*\
  =========                 |
  \\      /  F ield         | OpenFOAM: The Open Source CFD Toolbox
   \\    /   O peration     | Website:  https://openfoam.org
    \\  /    A nd           | Version:  7
     \\/     M anipulation  |
\*---------------------------------------------------------------------------*/
FoamFile
{
    version     2.0;
    format      ascii;
    class       volVectorField;
    location    "4";
    object      U;
}
// * * * * * * * * * * * * * * * * * * * * * * * * * * * * * * * * * * * * * //

dimensions      [0 1 -1 0 0 0 0];

internalField   nonuniform List<vector> 
344
(
(0.80422 -0.00158339 -1.83078e-15)
(0.803789 -0.00156543 -2.14183e-15)
(0.803363 -0.00154889 -2.03867e-15)
(0.802942 -0.00153392 -2.31133e-15)
(0.802526 -0.00152072 -2.18532e-15)
(0.802113 -0.00150952 -2.09417e-15)
(0.801703 -0.00150061 -2.05117e-15)
(0.801297 -0.0014943 -2.31516e-15)
(0.800892 -0.00149098 -2.24634e-15)
(0.80049 -0.00149111 -2.50524e-15)
(0.800087 -0.00149523 -2.40799e-15)
(0.799685 -0.00150398 -2.67524e-15)
(0.799281 -0.00151812 -2.56168e-15)
(0.798875 -0.00153853 -2.46074e-15)
(0.798464 -0.00156628 -2.40468e-15)
(0.798048 -0.0016026 -2.65985e-15)
(0.797623 -0.00164896 -2.5865e-15)
(0.797189 -0.0017071 -2.83498e-15)
(0.79674 -0.00177906 -2.71081e-15)
(0.796276 -0.00186727 -2.97356e-15)
(0.795791 -0.00197457 -2.78719e-15)
(0.795281 -0.00210436 -2.70861e-15)
(0.794742 -0.00226061 -2.60495e-15)
(0.794165 -0.00244804 -2.54976e-15)
(0.793545 -0.00267224 -2.81659e-15)
(0.792871 -0.00293982 -2.7333e-15)
(0.792135 -0.00325859 -2.98639e-15)
(0.791324 -0.00363783 -2.86436e-15)
(0.790423 -0.00408854 -3.11358e-15)
(0.789415 -0.00462378 -2.97631e-15)
(0.788281 -0.00525906 -2.85759e-15)
(0.786996 -0.00601285 -2.79975e-15)
(0.785532 -0.00690714 -3.05124e-15)
(0.783856 -0.00796816 -2.96404e-15)
(0.781927 -0.0092273 -3.19161e-15)
(0.779698 -0.0107221 -3.08055e-15)
(0.777112 -0.0124976 -3.31292e-15)
(0.774101 -0.0146081 -3.17342e-15)
(0.770584 -0.0171188 -3.06725e-15)
(0.766462 -0.020109 -2.98657e-15)
(0.761617 -0.0236744 -3.22352e-15)
(0.755904 -0.0279321 -3.11949e-15)
(0.749148 -0.0330247 -3.36225e-15)
(0.741131 -0.0391278 -3.24766e-15)
(0.731585 -0.0464577 -3.47543e-15)
(0.720173 -0.0552827 -3.25895e-15)
(0.706469 -0.0659372 -3.16022e-15)
(0.689929 -0.0788393 -3.07008e-15)
(0.669841 -0.0945137 -3.01657e-15)
(0.64528 -0.113613 -3.27247e-15)
(0.614973 -0.13693 -3.20194e-15)
(0.577256 -0.165332 -3.40991e-15)
(0.529528 -0.199515 -3.25443e-15)
(0.468676 -0.238899 -3.3561e-15)
(0.388182 -0.279247 -2.9108e-15)
(0.285903 -0.304974 -2.36937e-15)
(0.147636 -0.28261 -1.65031e-15)
(0.0338963 -0.140898 -8.18599e-16)
(0.762914 -0.00156773 -1.71501e-15)
(0.762443 -0.00154481 -1.67523e-15)
(0.761979 -0.0015226 -1.86748e-15)
(0.761522 -0.00150112 -1.76381e-15)
(0.761071 -0.00148043 -1.67137e-15)
(0.760627 -0.00146055 -1.63011e-15)
(0.760188 -0.00144156 -1.58105e-15)
(0.759756 -0.00142353 -1.79795e-15)
(0.759328 -0.00140653 -1.80065e-15)
(0.758907 -0.00139069 -2.01685e-15)
(0.75849 -0.00137611 -2.01061e-15)
(0.758077 -0.00136296 -2.17673e-15)
(0.757669 -0.0013514 -2.11768e-15)
(0.757265 -0.00134164 -2.03817e-15)
(0.756863 -0.00133395 -2.02399e-15)
(0.756465 -0.0013286 -2.20081e-15)
(0.756069 -0.00132596 -2.18363e-15)
(0.755673 -0.00132644 -2.37691e-15)
(0.755279 -0.00133052 -2.3434e-15)
(0.754884 -0.00133879 -2.52405e-15)
(0.754487 -0.00135193 -2.45351e-15)
(0.754087 -0.00137075 -2.38081e-15)
(0.753683 -0.0013962 -2.34252e-15)
(0.753273 -0.00142941 -2.5287e-15)
(0.752854 -0.0014717 -2.49504e-15)
(0.752425 -0.00152466 -2.67889e-15)
(0.751981 -0.00159012 -2.64395e-15)
(0.751521 -0.00167029 -2.79892e-15)
(0.75104 -0.00176774 -2.69633e-15)
(0.750534 -0.00188554 -2.60162e-15)
(0.749996 -0.0020273 -2.51689e-15)
(0.749421 -0.00219729 -2.47122e-15)
(0.748801 -0.00240057 -2.67388e-15)
(0.748127 -0.00264311 -2.62872e-15)
(0.747389 -0.002932 -2.81379e-15)
(0.746573 -0.00327563 -2.77683e-15)
(0.745667 -0.00368397 -2.93097e-15)
(0.744651 -0.00416882 -2.84506e-15)
(0.743506 -0.00474423 -2.75212e-15)
(0.742207 -0.0054269 -2.72131e-15)
(0.740725 -0.00623674 -2.89001e-15)
(0.739026 -0.00719748 -2.85278e-15)
(0.73707 -0.00833746 -3.01678e-15)
(0.734806 -0.00969062 -2.95937e-15)
(0.732179 -0.0112977 -3.11253e-15)
(0.729117 -0.0132075 -3.02854e-15)
(0.725538 -0.015479 -2.93738e-15)
(0.721342 -0.0181833 -2.88046e-15)
(0.716407 -0.0214067 -3.05382e-15)
(0.710586 -0.0252539 -3.00984e-15)
(0.703699 -0.0298524 -3.17736e-15)
(0.695526 -0.0353584 -3.12225e-15)
(0.685794 -0.0419637 -3.25443e-15)
(0.674162 -0.0499044 -3.12714e-15)
(0.6602 -0.0594729 -3.01198e-15)
(0.643363 -0.0710317 -2.92749e-15)
(0.622945 -0.0850302 -2.88754e-15)
(0.598037 -0.102018 -3.07163e-15)
(0.567414 -0.122645 -3.02844e-15)
(0.529504 -0.147569 -3.17574e-15)
(0.481937 -0.17719 -3.07496e-15)
(0.421996 -0.21053 -3.07117e-15)
(0.344283 -0.243127 -2.67932e-15)
(0.248091 -0.260507 -2.17142e-15)
(0.123686 -0.234896 -1.51007e-15)
(0.0263605 -0.110962 -6.77432e-16)
(0.716472 -0.00135809 -1.66198e-15)
(0.716022 -0.0013386 -1.8267e-15)
(0.715578 -0.00131975 -1.73138e-15)
(0.71514 -0.0013016 -1.62885e-15)
(0.714708 -0.00128418 -1.59012e-15)
(0.714282 -0.00126754 -1.57182e-15)
(0.713862 -0.00125175 -1.75655e-15)
(0.713447 -0.00123689 -1.76001e-15)
(0.713037 -0.00122305 -1.95525e-15)
(0.712632 -0.00121035 -1.95513e-15)
(0.712232 -0.0011989 -2.09723e-15)
(0.711835 -0.00118889 -2.02176e-15)
(0.711442 -0.00118049 -1.98524e-15)
(0.711052 -0.00117392 -1.96414e-15)
(0.710664 -0.00116946 -2.1325e-15)
(0.710278 -0.00116742 -2.11093e-15)
(0.709894 -0.00116816 -2.2942e-15)
(0.709509 -0.00117213 -2.27026e-15)
(0.709124 -0.00117985 -2.41851e-15)
(0.708737 -0.00119193 -2.33926e-15)
(0.708347 -0.0012091 -2.28801e-15)
(0.707952 -0.0012322 -2.26914e-15)
(0.707551 -0.00126225 -2.44445e-15)
(0.707141 -0.00130045 -2.40456e-15)
(0.70672 -0.00134819 -2.57076e-15)
(0.706285 -0.00140715 -2.54519e-15)
(0.705833 -0.00147927 -2.67683e-15)
(0.705359 -0.0015669 -2.576e-15)
(0.704859 -0.00167275 -2.47753e-15)
(0.704328 -0.00180008 -2.41286e-15)
(0.703759 -0.0019527 -2.38753e-15)
(0.703144 -0.00213516 -2.56747e-15)
(0.702475 -0.00235281 -2.53087e-15)
(0.70174 -0.00261199 -2.69728e-15)
(0.700928 -0.00292024 -2.67359e-15)
(0.700022 -0.00328647 -2.79459e-15)
(0.699007 -0.00372127 -2.70221e-15)
(0.69786 -0.00423721 -2.63886e-15)
(0.696558 -0.00484926 -2.61684e-15)
(0.695071 -0.00557524 -2.77295e-15)
(0.693364 -0.00643637 -2.72533e-15)
(0.691397 -0.00745802 -2.88488e-15)
(0.689119 -0.00867053 -2.84552e-15)
(0.686473 -0.0101102 -2.96298e-15)
(0.683388 -0.0118208 -2.86957e-15)
(0.679779 -0.0138547 -2.80651e-15)
(0.675547 -0.0162753 -2.77005e-15)
(0.670567 -0.0191591 -2.92739e-15)
(0.664692 -0.0225989 -2.88162e-15)
(0.657741 -0.0267072 -3.02513e-15)
(0.649493 -0.0316213 -2.98762e-15)
(0.639672 -0.0375089 -3.08482e-15)
(0.627941 -0.0445751 -2.97188e-15)
(0.613871 -0.0530721 -2.83707e-15)
(0.596924 -0.0633094 -2.77771e-15)
(0.576411 -0.0756668 -2.75601e-15)
(0.551456 -0.0906003 -2.91639e-15)
(0.520898 -0.108635 -2.86432e-15)
(0.483282 -0.130253 -2.99021e-15)
(0.436486 -0.155621 -2.89493e-15)
(0.378204 -0.1835 -2.84563e-15)
(0.304087 -0.209419 -2.45145e-15)
(0.214605 -0.220254 -1.99271e-15)
(0.103511 -0.193345 -1.38711e-15)
(0.0205028 -0.0863866 -6.12266e-16)
(0.669497 -0.00118023 -1.65152e-15)
(0.669063 -0.00116331 -1.80577e-15)
(0.668635 -0.00114697 -1.68385e-15)
(0.668213 -0.00113124 -1.56097e-15)
(0.667797 -0.00111614 -1.52952e-15)
(0.667387 -0.00110174 -1.53867e-15)
(0.666982 -0.00108808 -1.75343e-15)
(0.666582 -0.00107523 -1.70483e-15)
(0.666187 -0.00106329 -1.93526e-15)
(0.665797 -0.00105234 -1.88654e-15)
(0.665411 -0.00104251 -2.03374e-15)
(0.665028 -0.00103394 -1.91268e-15)
(0.664649 -0.00102679 -1.89787e-15)
(0.664273 -0.00102126 -1.91495e-15)
(0.663899 -0.0010176 -2.1218e-15)
(0.663526 -0.00101607 -2.01627e-15)
(0.663155 -0.001017 -2.24472e-15)
(0.662783 -0.00102079 -2.19121e-15)
(0.662411 -0.0010279 -2.3433e-15)
(0.662037 -0.00103887 -2.21266e-15)
(0.661659 -0.00105434 -2.18205e-15)
(0.661276 -0.00107506 -2.19018e-15)
(0.660887 -0.00110195 -2.39931e-15)
(0.660489 -0.00113604 -2.2981e-15)
(0.66008 -0.00117858 -2.5052e-15)
(0.659656 -0.00123106 -2.45428e-15)
(0.659215 -0.00129521 -2.58089e-15)
(0.658752 -0.00137309 -2.45233e-15)
(0.658264 -0.00146711 -2.34036e-15)
(0.657743 -0.00158016 -2.30088e-15)
(0.657184 -0.00171562 -2.29206e-15)
(0.65658 -0.00187751 -2.50747e-15)
(0.65592 -0.00207057 -2.40984e-15)
(0.655195 -0.00230043 -2.62052e-15)
(0.654392 -0.00257376 -2.55618e-15)
(0.653496 -0.00289844 -2.67838e-15)
(0.65249 -0.00328386 -2.5481e-15)
(0.651352 -0.00374115 -2.51085e-15)
(0.650058 -0.00428355 -2.51295e-15)
(0.648578 -0.00492681 -2.69682e-15)
(0.646879 -0.00568972 -2.59364e-15)
(0.644919 -0.0065947 -2.78863e-15)
(0.642647 -0.00766853 -2.72896e-15)
(0.640007 -0.0089433 -2.84052e-15)
(0.636927 -0.0104575 -2.71046e-15)
(0.633323 -0.0122572 -2.65632e-15)
(0.629094 -0.0143983 -2.65609e-15)
(0.624118 -0.0169476 -2.82661e-15)
(0.618248 -0.0199863 -2.73274e-15)
(0.611302 -0.0236124 -2.92031e-15)
(0.603061 -0.0279449 -2.85892e-15)
(0.593255 -0.0331282 -2.95442e-15)
(0.581549 -0.0393379 -2.80653e-15)
(0.567525 -0.0467882 -2.66804e-15)
(0.550659 -0.0557395 -2.61532e-15)
(0.530289 -0.0665079 -2.61795e-15)
(0.505583 -0.0794666 -2.80126e-15)
(0.475459 -0.0950322 -2.69311e-15)
(0.438591 -0.113547 -2.85266e-15)
(0.393116 -0.135002 -2.72745e-15)
(0.337128 -0.158011 -2.66773e-15)
(0.267237 -0.178264 -2.24078e-15)
(0.184844 -0.184102 -1.83288e-15)
(0.0863796 -0.157354 -1.27024e-15)
(0.0158996 -0.066238 -5.93877e-16)
(0.621523 -0.00101203 -1.62532e-15)
(0.621108 -0.000997558 -1.65793e-15)
(0.6207 -0.000983577 -1.59666e-15)
(0.620297 -0.000970118 -1.46909e-15)
(0.6199 -0.000957215 -1.47764e-15)
(0.619508 -0.000944909 -1.50617e-15)
(0.619122 -0.00093325 -1.64803e-15)
(0.61874 -0.0009223 -1.6007e-15)
(0.618363 -0.00091213 -1.81259e-15)
(0.61799 -0.000902827 -1.83249e-15)
(0.61762 -0.000894496 -1.87049e-15)
(0.617255 -0.000887259 -1.78704e-15)
(0.616892 -0.000881263 -1.8079e-15)
(0.616532 -0.000876682 -1.8447e-15)
(0.616175 -0.000873722 -1.97992e-15)
(0.615818 -0.000872626 -1.90242e-15)
(0.615463 -0.000873682 -2.09275e-15)
(0.615107 -0.000877231 -2.10812e-15)
(0.61475 -0.000883675 -2.14633e-15)
(0.614391 -0.000893489 -2.06562e-15)
(0.614028 -0.000907236 -2.08065e-15)
(0.613661 -0.000925577 -2.10351e-15)
(0.613286 -0.000949294 -2.24341e-15)
(0.612903 -0.000979312 -2.17196e-15)
(0.612508 -0.00101672 -2.33504e-15)
(0.6121 -0.00106281 -2.34594e-15)
(0.611673 -0.0011191 -2.36158e-15)
(0.611225 -0.00118738 -2.31494e-15)
(0.610751 -0.00126978 -2.18763e-15)
(0.610246 -0.00136881 -2.17777e-15)
(0.609702 -0.00148743 -2.18744e-15)
(0.609113 -0.00162915 -2.33488e-15)
(0.608469 -0.00179812 -2.26399e-15)
(0.60776 -0.00199925 -2.43132e-15)
(0.606974 -0.00223837 -2.44508e-15)
(0.606095 -0.00252238 -2.45677e-15)
(0.605106 -0.00285945 -2.37005e-15)
(0.603987 -0.00325933 -2.37236e-15)
(0.602714 -0.00373356 -2.38898e-15)
(0.601256 -0.00429589 -2.51467e-15)
(0.599581 -0.00496271 -2.42979e-15)
(0.597646 -0.00575354 -2.59815e-15)
(0.595403 -0.00669174 -2.5857e-15)
(0.592794 -0.00780519 -2.60799e-15)
(0.589749 -0.00912734 -2.52278e-15)
(0.586186 -0.0106983 -2.51744e-15)
(0.582004 -0.0125661 -2.52165e-15)
(0.577083 -0.0147889 -2.62979e-15)
(0.571277 -0.0174363 -2.55935e-15)
(0.564409 -0.0205924 -2.71275e-15)
(0.556265 -0.0243586 -2.70475e-15)
(0.546579 -0.0288576 -2.70863e-15)
(0.535027 -0.034237 -2.63067e-15)
(0.521206 -0.0406757 -2.48407e-15)
(0.504614 -0.048389 -2.45984e-15)
(0.484625 -0.0576362 -2.47116e-15)
(0.460458 -0.068718 -2.58895e-15)
(0.431122 -0.0819604 -2.50426e-15)
(0.395426 -0.0975956 -2.63246e-15)
(0.351761 -0.115493 -2.55227e-15)
(0.298602 -0.134216 -2.39602e-15)
(0.233412 -0.14974 -2.03327e-15)
(0.158299 -0.151894 -1.68929e-15)
(0.0717202 -0.126372 -1.17353e-15)
(0.0122392 -0.049779 -4.95159e-16)
(0.572557 -0.000854288 -1.59731e-15)
(0.572165 -0.000842093 -1.54012e-15)
(0.571779 -0.000830319 -1.52664e-15)
(0.571398 -0.000818988 -1.34639e-15)
(0.571023 -0.000808132 -1.41328e-15)
(0.570652 -0.000797785 -1.47299e-15)
(0.570287 -0.00078799 -1.57729e-15)
(0.569925 -0.000778801 -1.50494e-15)
(0.569568 -0.000770279 -1.7178e-15)
(0.569215 -0.000762499 -1.75694e-15)
(0.568866 -0.000755551 -1.69938e-15)
(0.56852 -0.000749541 -1.65843e-15)
(0.568177 -0.000744596 -1.73407e-15)
(0.567836 -0.000740864 -1.77915e-15)
(0.567497 -0.000738523 -1.89219e-15)
(0.567159 -0.000737783 -1.77393e-15)
(0.566822 -0.000738892 -1.98046e-15)
(0.566485 -0.000742143 -2.01987e-15)
(0.566146 -0.000747883 -1.97687e-15)
(0.565805 -0.00075652 -1.9025e-15)
(0.56546 -0.000768538 -1.9818e-15)
(0.56511 -0.000784506 -2.01229e-15)
(0.564754 -0.000805099 -2.11716e-15)
(0.564388 -0.000831112 -2.02615e-15)
(0.564011 -0.000863482 -2.20654e-15)
)
;

boundaryField
{
    inlet
    {
        type            uniformFixedValue;
        uniformValue    constant (1 0 0);
        value           nonuniform 0();
    }
    outlet
    {
        type            pressureInletOutletVelocity;
        value           nonuniform 0();
    }
    wall
    {
        type            fixedValue;
        value           uniform (0 0 0);
    }
    wedge1
    {
        type            wedge;
    }
    wedge2
    {
        type            wedge;
    }
    axis
    {
        type            empty;
    }
    procBoundary32to26
    {
        type            processor;
        value           nonuniform List<vector> 
67
(
(0.848117 -0.00176666 -1.87214e-15)
(0.84768 -0.0017465 -2.16312e-15)
(0.847248 -0.00172789 -2.03423e-15)
(0.846821 -0.00171102 -2.34058e-15)
(0.846399 -0.00169609 -2.25506e-15)
(0.845981 -0.00168336 -2.13782e-15)
(0.845566 -0.00167314 -2.06221e-15)
(0.845154 -0.00166578 -2.33367e-15)
(0.844745 -0.0016617 -2.28685e-15)
(0.844337 -0.00166141 -2.54123e-15)
(0.84393 -0.00166549 -2.42702e-15)
(0.843523 -0.00167465 -2.73422e-15)
(0.843116 -0.00168971 -2.63171e-15)
(0.842705 -0.00171165 -2.52153e-15)
(0.842291 -0.00174163 -2.44884e-15)
(0.841872 -0.00178099 -2.70296e-15)
(0.841444 -0.00183136 -2.64641e-15)
(0.841007 -0.00189463 -2.90106e-15)
(0.840558 -0.00197304 -2.76223e-15)
(0.840092 -0.00206923 -3.05923e-15)
(0.839607 -0.00218635 -2.84261e-15)
(0.839098 -0.00232807 -2.79923e-15)
(0.83856 -0.00249877 -2.68292e-15)
(0.837986 -0.00270362 -2.60981e-15)
(0.83737 -0.00294873 -2.87011e-15)
(0.836703 -0.00324132 -2.80335e-15)
(0.835974 -0.00358997 -3.05878e-15)
(0.835173 -0.00400482 -2.9206e-15)
(0.834285 -0.00449792 -3.20271e-15)
(0.833294 -0.00508356 -3.07691e-15)
(0.832179 -0.00577874 -2.95149e-15)
(0.830919 -0.00660367 -2.87847e-15)
(0.829484 -0.00758244 -3.11761e-15)
(0.827844 -0.0087438 -3.05254e-15)
(0.825959 -0.0101221 -3.27867e-15)
(0.823782 -0.0117586 -3.14639e-15)
(0.82126 -0.0137026 -3.4095e-15)
(0.818326 -0.0160137 -3.29205e-15)
(0.8149 -0.0187637 -3.17002e-15)
(0.810889 -0.0220396 -3.06582e-15)
(0.806177 -0.0259471 -3.31027e-15)
(0.800625 -0.0306151 -3.22938e-15)
(0.794061 -0.0362019 -3.4603e-15)
(0.786276 -0.0429022 -3.33796e-15)
(0.777009 -0.0509573 -3.59337e-15)
(0.765933 -0.0606682 -3.36457e-15)
(0.752632 -0.0724122 -3.29947e-15)
(0.736571 -0.0866654 -3.18923e-15)
(0.717046 -0.104032 -3.13956e-15)
(0.693134 -0.125275 -3.40376e-15)
(0.663536 -0.15135 -3.346e-15)
(0.626525 -0.18336 -3.56979e-15)
(0.579312 -0.222372 -3.4201e-15)
(0.518418 -0.268348 -3.57825e-15)
(0.43618 -0.317551 -3.15225e-15)
(0.328755 -0.353692 -2.57357e-15)
(0.176304 -0.337135 -1.81067e-15)
(0.0436939 -0.177387 -8.90016e-16)
(0.807885 -0.00176539 -1.78295e-15)
(0.807403 -0.00173954 -1.67594e-15)
(0.806929 -0.00171449 -1.9644e-15)
(0.806462 -0.00169027 -1.77602e-15)
(0.806001 -0.00166691 -1.72342e-15)
(0.805547 -0.00164447 -1.63852e-15)
(0.805099 -0.00162301 -1.595e-15)
(0.804657 -0.00160262 -1.89986e-15)
(0.804657 -0.00160262 -1.89986e-15)
)
;
    }
    procBoundary32to31
    {
        type            processor;
        value           nonuniform List<vector> 5((0.763392 -0.00159134 -1.49552e-15) (0.71693 -0.00137821 -1.68711e-15) (0.71693 -0.00137821 -1.68711e-15) (0.669937 -0.00119769 -1.69148e-15) (0.621943 -0.00102698 -1.59643e-15));
    }
    procBoundary32to37
    {
        type            processor;
        value           uniform (0.572955 -0.000866885 -1.55495e-15);
    }
    procBoundary32to38
    {
        type            processor;
        value           nonuniform List<vector> 
66
(
(0.563621 -0.000903319 -2.24091e-15)
(0.563212 -0.00095193 -2.16392e-15)
(0.562783 -0.00101086 -2.16539e-15)
(0.562328 -0.00108194 -2.00854e-15)
(0.561841 -0.00116733 -2.05506e-15)
(0.561318 -0.00126957 -2.08889e-15)
(0.560749 -0.00139168 -2.19651e-15)
(0.560127 -0.00153724 -2.09799e-15)
(0.55944 -0.00171047 -2.27645e-15)
(0.558678 -0.00191637 -2.32486e-15)
(0.557825 -0.00216089 -2.25905e-15)
(0.556864 -0.00245105 -2.17852e-15)
(0.555775 -0.00279521 -2.24323e-15)
(0.554534 -0.0032033 -2.27531e-15)
(0.553113 -0.00368713 -2.36104e-15)
(0.551478 -0.00426075 -2.26157e-15)
(0.549589 -0.00494092 -2.44518e-15)
(0.547398 -0.00574763 -2.45478e-15)
(0.544848 -0.00670476 -2.39739e-15)
(0.541871 -0.00784088 -2.31939e-15)
(0.538386 -0.00919019 -2.37848e-15)
(0.534296 -0.0107937 -2.39726e-15)
(0.529482 -0.0127006 -2.47373e-15)
(0.523805 -0.0149699 -2.36731e-15)
(0.517091 -0.0176724 -2.54006e-15)
(0.509133 -0.0208931 -2.54927e-15)
(0.499678 -0.024734 -2.48123e-15)
(0.488413 -0.0293171 -2.45051e-15)
(0.474955 -0.034789 -2.26505e-15)
(0.458833 -0.0413244 -2.30053e-15)
(0.439459 -0.0491322 -2.33285e-15)
(0.416116 -0.0584513 -2.41985e-15)
(0.387905 -0.0695332 -2.31036e-15)
(0.353774 -0.0825273 -2.45374e-15)
(0.312356 -0.0972278 -2.38708e-15)
(0.262472 -0.112228 -2.15178e-15)
(0.202328 -0.123872 -1.83434e-15)
(0.134546 -0.123443 -1.56346e-15)
(0.0590823 -0.0998959 -1.09002e-15)
(0.00929035 -0.0364225 -4.52545e-16)
(0.522606 -0.000707736 -1.57086e-15)
(0.52224 -0.000697654 -1.53863e-15)
(0.521879 -0.000687923 -1.47252e-15)
(0.521523 -0.000678563 -1.35485e-15)
(0.521172 -0.000669599 -1.38465e-15)
(0.520825 -0.000661061 -1.43415e-15)
(0.520483 -0.000652987 -1.53087e-15)
(0.520145 -0.00064542 -1.51729e-15)
(0.519811 -0.000638412 -1.66117e-15)
(0.519481 -0.000632029 -1.72445e-15)
(0.519154 -0.000626344 -1.69451e-15)
(0.51883 -0.000621449 -1.62974e-15)
(0.518508 -0.000617449 -1.67908e-15)
(0.518189 -0.000614471 -1.70141e-15)
(0.517871 -0.000612665 -1.81909e-15)
(0.517555 -0.000612208 -1.76971e-15)
(0.517239 -0.000613309 -1.91654e-15)
(0.516922 -0.000616217 -1.96e-15)
(0.516604 -0.000621223 -1.94211e-15)
(0.516283 -0.000628674 -1.87253e-15)
(0.515959 -0.000638977 -1.90109e-15)
(0.51563 -0.000652615 -1.93016e-15)
(0.515294 -0.000670155 -2.02146e-15)
(0.514949 -0.000692269 -1.98807e-15)
(0.563621 -0.000903319 -2.24091e-15)
(0.514594 -0.000719751 -2.11906e-15)
)
;
    }
}


// ************************************************************************* //
