/*--------------------------------*- C++ -*----------------------------------*\
  =========                 |
  \\      /  F ield         | OpenFOAM: The Open Source CFD Toolbox
   \\    /   O peration     | Website:  https://openfoam.org
    \\  /    A nd           | Version:  7
     \\/     M anipulation  |
\*---------------------------------------------------------------------------*/
FoamFile
{
    version     2.0;
    format      ascii;
    class       volVectorField;
    location    "9.8";
    object      U;
}
// * * * * * * * * * * * * * * * * * * * * * * * * * * * * * * * * * * * * * //

dimensions      [0 1 -1 0 0 0 0];

internalField   nonuniform List<vector> 
344
(
(1.94404 0.0346359 -4.70666e-17)
(1.93897 0.0342156 -7.88258e-18)
(1.93399 0.0338018 -3.76051e-17)
(1.92911 0.0333944 2.91241e-18)
(1.92433 0.0329934 1.81706e-17)
(1.91964 0.0325986 5.20776e-17)
(1.91505 0.0322099 2.95009e-17)
(1.91054 0.0318271 6.66555e-17)
(1.90612 0.0314502 4.53207e-17)
(1.90178 0.031079 7.63565e-17)
(1.89753 0.0307134 7.59868e-17)
(1.89336 0.0303533 1.0615e-16)
(1.88927 0.0299986 1.40906e-16)
(1.88526 0.0296492 1.46364e-16)
(1.88133 0.029305 1.81582e-16)
(1.87747 0.0289659 1.55323e-16)
(1.87368 0.0286317 1.91563e-16)
(1.86997 0.0283025 1.65789e-16)
(1.86632 0.027978 1.95855e-16)
(1.86275 0.0276583 1.83381e-16)
(1.85924 0.0273431 2.22308e-16)
(1.8558 0.0270325 2.30993e-16)
(1.85242 0.0267263 2.68885e-16)
(1.84911 0.0264244 2.18349e-16)
(1.84585 0.0261268 2.6919e-16)
(1.84266 0.0258333 2.48706e-16)
(1.83953 0.025544 2.92391e-16)
(1.83645 0.0252586 2.50662e-16)
(1.83343 0.0249772 2.91474e-16)
(1.83047 0.0246997 3.0834e-16)
(1.82756 0.024426 3.40754e-16)
(1.8247 0.0241559 3.0949e-16)
(1.8219 0.0238895 3.44467e-16)
(1.81914 0.0236267 3.18435e-16)
(1.81644 0.0233674 3.49939e-16)
(1.81378 0.0231115 3.39587e-16)
(1.81117 0.022859 3.67961e-16)
(1.80861 0.0226098 3.96274e-16)
(1.80609 0.0223638 4.02738e-16)
(1.80362 0.0221211 4.2955e-16)
(1.80119 0.0218814 3.96806e-16)
(1.7988 0.0216449 4.34536e-16)
(1.79646 0.0214113 4.07717e-16)
(1.79415 0.0211807 4.36919e-16)
(1.79189 0.020953 4.29477e-16)
(1.78966 0.0207282 4.59145e-16)
(1.78747 0.0205062 4.65567e-16)
(1.78532 0.0202869 4.96662e-16)
(1.78321 0.0200703 4.50959e-16)
(1.86158 0.0463141 -4.4011e-16)
(1.85555 0.0456611 -4.52058e-16)
(1.84965 0.0450192 -4.11741e-16)
(1.84388 0.0443883 -4.02891e-16)
(1.83824 0.0437682 -3.71373e-16)
(1.83273 0.0431588 -3.33173e-16)
(1.82734 0.0425599 -3.52722e-16)
(1.82207 0.0419713 -3.04004e-16)
(1.81692 0.0413928 -3.22331e-16)
(1.81189 0.0408243 -2.73623e-16)
(1.80697 0.0402656 -2.93393e-16)
(1.80216 0.0397165 -2.53291e-16)
(1.79745 0.0391769 -2.51081e-16)
(1.79286 0.0386465 -2.02553e-16)
(1.78836 0.0381252 -2.22946e-16)
(1.78397 0.0376129 -1.73494e-16)
(1.77968 0.0371094 -1.76519e-16)
(1.77548 0.0366144 -1.28867e-16)
(1.77138 0.0361279 -1.5932e-16)
(1.76736 0.0356496 -1.13432e-16)
(1.76344 0.0351795 -1.16759e-16)
(1.75961 0.0347173 -6.88081e-17)
(1.75586 0.0342629 -1.00568e-16)
(1.75219 0.0338161 -4.80433e-17)
(1.74861 0.0333768 -8.19338e-17)
(1.7451 0.0329449 -3.10499e-17)
(1.74168 0.0325201 -6.33882e-17)
(1.73833 0.0321024 -1.8664e-17)
(1.73505 0.0316917 -1.45526e-17)
(1.73185 0.0312876 2.08226e-17)
(1.72872 0.0308903 6.42935e-17)
(1.72565 0.0304994 2.55161e-17)
(1.72265 0.0301148 8.051e-17)
(1.71972 0.0297366 4.52821e-17)
(1.71686 0.0293644 1.00173e-16)
(1.71405 0.0289982 5.86822e-17)
(1.71131 0.0286379 1.07294e-16)
(1.70863 0.0282833 1.0864e-16)
(1.706 0.0279344 1.52e-16)
(1.70344 0.027591 1.18539e-16)
(1.70092 0.0272529 1.6899e-16)
(1.69847 0.0269202 1.61535e-16)
(1.69606 0.0265927 2.06376e-16)
(1.69371 0.0262703 1.67964e-16)
(1.69141 0.0259528 2.1405e-16)
(1.68915 0.0256402 2.04648e-16)
(1.68695 0.0253324 2.47465e-16)
(1.68479 0.0250293 2.12893e-16)
(1.68267 0.0247307 2.62286e-16)
(1.68061 0.0244367 2.21522e-16)
(1.67858 0.0241471 2.70518e-16)
(1.6766 0.0238617 2.33832e-16)
(1.67466 0.0235807 2.77883e-16)
(1.67276 0.0233037 2.74852e-16)
(1.6709 0.0230308 3.07382e-16)
(1.66908 0.022762 3.44367e-16)
(1.66729 0.022497 3.05554e-16)
(1.66554 0.0222358 3.54863e-16)
(1.66383 0.0219784 3.1382e-16)
(1.66216 0.0217246 3.66015e-16)
(1.66051 0.0214745 3.27958e-16)
(1.65891 0.0212279 3.6809e-16)
(1.65733 0.0209847 3.64148e-16)
(1.65579 0.020745 4.06046e-16)
(1.65427 0.0205085 3.73852e-16)
(1.65279 0.0202753 4.13809e-16)
(1.65134 0.0200454 4.05955e-16)
(1.64991 0.0198185 4.42887e-16)
(1.65772 0.0478579 -5.60072e-16)
(1.65324 0.0471318 -5.48041e-16)
(1.64888 0.0464187 -5.2713e-16)
(1.64462 0.0457184 -4.92337e-16)
(1.64047 0.0450308 -4.78023e-16)
(1.63644 0.0443556 -4.52641e-16)
(1.6325 0.0436927 -4.36824e-16)
(1.62867 0.0430419 -4.14953e-16)
(1.62494 0.0424029 -4.04068e-16)
(1.6213 0.0417755 -3.81162e-16)
(1.61776 0.0411596 -3.70942e-16)
(1.61431 0.040555 -3.58452e-16)
(1.61095 0.0399614 -3.20414e-16)
(1.60768 0.0393787 -2.99207e-16)
(1.6045 0.0388065 -2.89672e-16)
(1.6014 0.0382449 -2.73594e-16)
(1.59838 0.0376934 -2.3827e-16)
(1.59544 0.037152 -2.19063e-16)
(1.59258 0.0366204 -2.17851e-16)
(1.58979 0.0360985 -2.06884e-16)
(1.58708 0.0355861 -1.72371e-16)
(1.58444 0.0350829 -1.58324e-16)
(1.58187 0.0345888 -1.52066e-16)
(1.57937 0.0341036 -1.31729e-16)
(1.57693 0.0336271 -1.32082e-16)
(1.57456 0.0331592 -1.16707e-16)
(1.57225 0.0326996 -1.14947e-16)
(1.57 0.0322482 -1.06706e-16)
(1.56781 0.0318049 -6.4199e-17)
(1.56568 0.0313694 -5.03155e-17)
(1.56361 0.0309416 -2.85795e-17)
(1.56159 0.0305213 -2.01931e-17)
(1.55963 0.0301084 -3.33244e-18)
(1.55772 0.0297028 -4.09054e-18)
(1.55586 0.0293042 1.44759e-17)
(1.55405 0.0289125 1.37145e-17)
(1.55228 0.0285276 2.36794e-17)
(1.55057 0.0281494 6.18273e-17)
(1.54889 0.0277776 7.03985e-17)
(1.54727 0.0274122 7.4278e-17)
(1.54569 0.0270531 8.73779e-17)
(1.54414 0.0267 1.19699e-16)
(1.54264 0.0263529 1.33332e-16)
(1.54118 0.0260116 1.31797e-16)
(1.53976 0.025676 1.40882e-16)
(1.53838 0.025346 1.67893e-16)
(1.53703 0.0250215 1.80839e-16)
(1.53572 0.0247024 1.79614e-16)
(1.53445 0.0243885 1.92374e-16)
(1.5332 0.0240797 1.8308e-16)
(1.53199 0.023776 1.96633e-16)
(1.53082 0.0234772 1.94375e-16)
(1.52967 0.0231831 1.98516e-16)
(1.52856 0.0228938 2.41103e-16)
(1.52747 0.0226092 2.45919e-16)
(1.52641 0.022329 2.61231e-16)
(1.52538 0.0220533 2.67588e-16)
(1.52438 0.0217818 2.79615e-16)
(1.5234 0.0215147 2.77296e-16)
(1.52245 0.0212516 2.89906e-16)
(1.52153 0.0209927 2.88667e-16)
(1.52063 0.0207377 2.91049e-16)
(1.51975 0.0204866 3.25847e-16)
(1.5189 0.0202393 3.37535e-16)
(1.51807 0.0199958 3.38546e-16)
(1.51726 0.0197559 3.46218e-16)
(1.51647 0.0195196 3.70555e-16)
(1.5157 0.0192868 3.81694e-16)
(1.44928 0.0479147 -6.17295e-16)
(1.44657 0.0471418 -6.10943e-16)
(1.44393 0.0463832 -5.82639e-16)
(1.44139 0.0456389 -5.528e-16)
(1.43892 0.0449085 -5.27544e-16)
(1.43653 0.0441919 -5.0144e-16)
(1.43422 0.0434889 -4.79547e-16)
(1.43199 0.0427992 -4.54677e-16)
(1.42982 0.0421227 -4.56538e-16)
(1.42774 0.0414591 -4.27783e-16)
(1.42571 0.0408082 -4.26433e-16)
(1.42376 0.0401698 -4.02666e-16)
(1.42188 0.0395436 -3.70994e-16)
(1.42005 0.0389295 -3.41078e-16)
(1.41829 0.0383271 -3.24154e-16)
(1.4166 0.0377363 -3.02004e-16)
(1.41496 0.0371569 -2.98939e-16)
(1.41337 0.0365886 -2.63555e-16)
(1.41185 0.0360312 -2.69472e-16)
(1.41037 0.0354845 -2.47539e-16)
(1.40895 0.0349482 -2.35176e-16)
(1.40758 0.0344222 -2.03384e-16)
(1.40626 0.0339063 -1.83716e-16)
(1.40499 0.0334002 -1.59449e-16)
(1.40377 0.0329037 -1.69149e-16)
(1.40259 0.0324167 -1.46797e-16)
(1.40145 0.0319389 -1.52317e-16)
(1.40036 0.0314701 -1.34127e-16)
(1.39931 0.0310102 -1.03346e-16)
(1.3983 0.0305589 -8.24327e-17)
(1.39733 0.0301162 -6.19044e-17)
(1.39639 0.0296817 -4.90333e-17)
(1.39549 0.0292553 -3.00223e-17)
(1.39463 0.0288368 -4.5472e-17)
(1.39381 0.0284261 -2.24795e-17)
(1.39301 0.028023 -3.38321e-17)
(1.39225 0.0276274 -1.38332e-17)
(1.39152 0.027239 1.65363e-17)
(1.39082 0.0268577 3.73691e-17)
(1.39015 0.0264833 5.21368e-17)
(1.38951 0.0261157 6.78263e-17)
(1.38889 0.0257548 6.37791e-17)
(1.38831 0.0254004 9.8302e-17)
(1.38774 0.0250524 8.19465e-17)
(1.38721 0.0247105 1.07342e-16)
(1.3867 0.0243748 1.07542e-16)
(1.38621 0.024045 1.37948e-16)
(1.38574 0.023721 1.52255e-16)
(1.3853 0.0234027 1.67206e-16)
(1.38488 0.0230899 1.4799e-16)
(1.38448 0.0227826 1.67289e-16)
(1.38409 0.0224806 1.52109e-16)
(1.38373 0.0221838 1.69819e-16)
(1.38339 0.0218921 1.9673e-16)
(1.38306 0.0216054 2.16181e-16)
(1.38276 0.0213235 2.30461e-16)
(1.38247 0.0210464 2.3598e-16)
(1.38219 0.0207739 2.50283e-16)
(1.38193 0.020506 2.34338e-16)
(1.38169 0.0202426 2.53593e-16)
(1.38146 0.0199835 2.41749e-16)
(1.38125 0.0197286 2.52912e-16)
(1.38105 0.019478 2.81245e-16)
(1.38086 0.0192314 2.97834e-16)
(1.38069 0.0189887 3.07427e-16)
(1.38052 0.01875 3.17211e-16)
(1.38038 0.0185151 3.09504e-16)
(1.38024 0.018284 3.32972e-16)
(1.24229 0.0464004 -6.62513e-16)
(1.24141 0.0456125 -6.457e-16)
(1.24059 0.0448396 -6.28369e-16)
(1.23982 0.0440817 -5.90079e-16)
(1.23909 0.0433384 -5.75544e-16)
(1.23841 0.0426096 -5.54898e-16)
(1.23778 0.0418951 -5.35244e-16)
(1.23719 0.0411947 -5.16356e-16)
(1.23664 0.0405081 -5.013e-16)
(1.23614 0.0398351 -4.88987e-16)
(1.23567 0.0391755 -4.75504e-16)
(1.23524 0.0385291 -4.60566e-16)
(1.23486 0.0378956 -4.15588e-16)
(1.2345 0.0372748 -4.02116e-16)
(1.23419 0.0366664 -3.88664e-16)
(1.2339 0.0360702 -3.76822e-16)
(1.23365 0.0354859 -3.35869e-16)
(1.23343 0.0349134 -3.27433e-16)
(1.23324 0.0343524 -3.21846e-16)
(1.23309 0.0338026 -3.11083e-16)
(1.23295 0.0332639 -2.69962e-16)
(1.23285 0.032736 -2.61824e-16)
(1.23278 0.0322186 -2.48773e-16)
(1.23272 0.0317116 -2.40451e-16)
(1.2327 0.0312147 -2.3194e-16)
(1.2327 0.0307278 -2.18559e-16)
(1.23272 0.0302505 -2.11456e-16)
(1.23276 0.0297827 -2.06216e-16)
(1.23282 0.0293242 -1.62507e-16)
(1.2329 0.0288748 -1.53802e-16)
(1.23301 0.0284342 -1.43093e-16)
(1.23313 0.0280023 -1.35114e-16)
(1.23327 0.0275789 -1.19637e-16)
(1.23342 0.0271638 -1.13554e-16)
(1.2336 0.0267567 -1.02574e-16)
(1.23379 0.0263576 -9.57189e-17)
(1.23399 0.0259663 -9.20273e-17)
(1.23421 0.0255825 -4.79354e-17)
(1.23444 0.0252061 -3.86761e-17)
(1.23469 0.0248369 -3.13378e-17)
(1.23494 0.0244748 -2.15653e-17)
(1.23521 0.0241196 1.7506e-17)
(1.2355 0.0237712 2.00526e-17)
(1.23579 0.0234293 1.77679e-17)
(1.23609 0.0230939 2.61404e-17)
(1.23641 0.0227647 6.02134e-17)
(1.23673 0.0224418 5.79938e-17)
(1.23706 0.0221248 6.60713e-17)
(1.2374 0.0218137 7.13821e-17)
(1.23775 0.0215083 7.19413e-17)
(1.23811 0.0212085 8.16112e-17)
(1.23847 0.0209142 8.27343e-17)
(1.23884 0.0206253 8.80088e-17)
(1.23922 0.0203415 1.28492e-16)
(1.2396 0.0200629 1.32408e-16)
(1.23999 0.0197893 1.35565e-16)
(1.24039 0.0195206 1.46929e-16)
(1.24079 0.0192566 1.53119e-16)
(1.24119 0.0189973 1.55134e-16)
(1.2416 0.0187425 1.60621e-16)
(1.24202 0.0184922 1.63166e-16)
(1.24244 0.0182462 1.65345e-16)
(1.24286 0.0180044 2.04758e-16)
(1.24328 0.0177669 2.07086e-16)
(1.24371 0.0175334 2.09179e-16)
(1.24415 0.0173038 2.15397e-16)
(1.24458 0.0170781 2.46461e-16)
(1.24502 0.0168562 2.47399e-16)
(1.04238 0.0433574 -6.70046e-16)
(1.04329 0.0425886 -6.50944e-16)
(1.04422 0.0418347 -6.35732e-16)
(1.04516 0.0410958 -6.02171e-16)
(1.04611 0.0403715 -5.90599e-16)
(1.04707 0.0396617 -5.7065e-16)
(1.04805 0.0389662 -5.52418e-16)
(1.04903 0.0382848 -5.37659e-16)
(1.05003 0.0376173 -5.24797e-16)
(1.05103 0.0369635 -5.10759e-16)
(1.05204 0.0363231 -4.93835e-16)
(1.05307 0.0356959 -4.82239e-16)
(1.0541 0.0350817 -4.43922e-16)
(1.05513 0.0344802 -4.33379e-16)
(1.05618 0.0338912 -4.2306e-16)
(1.05723 0.0333144 -4.12122e-16)
(1.05828 0.0327497 -3.7046e-16)
(1.05934 0.0321967 -3.66851e-16)
(1.06041 0.0316553 -3.53377e-16)
(1.06147 0.0311251 -3.45459e-16)
(1.06255 0.0306061 -3.08562e-16)
(1.06362 0.0300978 -3.04106e-16)
(1.0647 0.0296002 -2.94116e-16)
)
;

boundaryField
{
    inlet
    {
        type            uniformFixedValue;
        uniformValue    constant (1 0 0);
        value           nonuniform 0();
    }
    outlet
    {
        type            pressureInletOutletVelocity;
        value           nonuniform 0();
    }
    wall
    {
        type            fixedValue;
        value           nonuniform 0();
    }
    wedge1
    {
        type            wedge;
    }
    wedge2
    {
        type            wedge;
    }
    axis
    {
        type            empty;
    }
    procBoundary16to10
    {
        type            processor;
        value           nonuniform List<vector> 
68
(
(2.10662 0.0322932 6.75928e-17)
(2.1007 0.0319393 7.67927e-17)
(2.09489 0.0315904 1.02354e-16)
(2.08918 0.0312464 9.93477e-17)
(2.08356 0.0309072 1.03128e-16)
(2.07804 0.0305728 1.16837e-16)
(2.07262 0.030243 1.1449e-16)
(2.06729 0.0299177 1.31185e-16)
(2.06205 0.029597 1.30817e-16)
(2.0569 0.0292806 1.3989e-16)
(2.05184 0.0289684 1.77315e-16)
(2.04686 0.0286605 1.78418e-16)
(2.04197 0.0283567 1.93076e-16)
(2.03716 0.028057 2.04541e-16)
(2.03243 0.0277612 2.25907e-16)
(2.02778 0.0274692 2.24779e-16)
(2.02321 0.0271811 2.4004e-16)
(2.01871 0.0268967 2.37856e-16)
(2.01429 0.026616 2.39185e-16)
(2.00994 0.0263389 2.70504e-16)
(2.00567 0.0260653 2.75664e-16)
(2.00146 0.0257951 2.79694e-16)
(1.99733 0.0255283 2.9905e-16)
(1.99326 0.0252649 3.23737e-16)
(1.98926 0.0250047 3.25868e-16)
(1.98532 0.0247477 3.16198e-16)
(1.98145 0.0244939 3.25639e-16)
(1.97764 0.0242431 3.46182e-16)
(1.97389 0.0239954 3.47508e-16)
(1.9702 0.0237506 3.50737e-16)
(1.96657 0.0235087 3.64867e-16)
(1.963 0.0232697 3.61215e-16)
(1.95949 0.0230335 3.71337e-16)
(1.95603 0.0228001 3.67941e-16)
(1.95262 0.0225694 3.70854e-16)
(1.94927 0.0223413 4.04777e-16)
(1.94598 0.0221159 4.04137e-16)
(1.94273 0.021893 4.15848e-16)
(1.93953 0.0216726 4.21189e-16)
(1.93639 0.0214547 4.4295e-16)
(1.93329 0.0212393 4.39002e-16)
(1.93024 0.0210262 4.54445e-16)
(1.92724 0.0208155 4.49387e-16)
(1.92428 0.0206071 4.55424e-16)
(1.92137 0.020401 4.8463e-16)
(1.91851 0.0201971 4.86159e-16)
(1.91568 0.0199955 4.90542e-16)
(1.9129 0.019796 5.03406e-16)
(1.91016 0.0195986 5.22618e-16)
(2.05504 0.0434803 -2.83522e-16)
(2.04777 0.0429185 -2.87157e-16)
(2.04064 0.0423657 -2.55839e-16)
(2.03365 0.0418217 -2.55032e-16)
(2.0268 0.0412865 -2.35007e-16)
(2.02009 0.0407599 -2.0846e-16)
(2.01351 0.0402418 -1.9861e-16)
(2.00706 0.039732 -1.682e-16)
(2.00074 0.0392305 -1.75991e-16)
(1.99455 0.038737 -1.42542e-16)
(1.98848 0.0382514 -1.51219e-16)
(1.98253 0.0377737 -1.24588e-16)
(1.97669 0.0373036 -1.28126e-16)
(1.97098 0.036841 -9.5387e-17)
(1.96537 0.0363857 -8.08562e-17)
(1.95988 0.0359378 -4.53278e-17)
(1.95449 0.0354969 -8.15057e-17)
(1.94922 0.035063 -3.48603e-17)
(1.94922 0.035063 -3.48603e-17)
)
;
    }
    procBoundary16to11
    {
        type            processor;
        value           uniform (1.78113 0.0198563 4.87108e-16);
    }
    procBoundary16to15
    {
        type            processor;
        value           nonuniform List<vector> 3((1.86776 0.0469784 -4.8192e-16) (1.66232 0.0485972 -5.84286e-16) (1.45209 0.0487022 -6.44271e-16));
    }
    procBoundary16to17
    {
        type            processor;
        value           nonuniform List<vector> 4((1.64852 0.0195948 4.05256e-16) (1.51495 0.0190575 3.69718e-16) (1.38011 0.0180565 3.18991e-16) (1.24546 0.0166381 2.44087e-16));
    }
    procBoundary16to21
    {
        type            processor;
        value           nonuniform List<vector> 2((1.24321 0.0472036 -6.8208e-16) (1.04148 0.0441414 -6.85188e-16));
    }
    procBoundary16to22
    {
        type            processor;
        value           nonuniform List<vector> 
69
(
(1.06578 0.0291129 -2.85669e-16)
(1.06686 0.0286357 -2.74153e-16)
(1.06795 0.0281684 -2.63819e-16)
(1.06903 0.0277109 -2.54415e-16)
(1.07012 0.0272628 -2.49452e-16)
(1.0712 0.026824 -2.08441e-16)
(1.07229 0.0263943 -2.05546e-16)
(1.07337 0.0259734 -1.95904e-16)
(1.07446 0.0255611 -1.85956e-16)
(1.07554 0.0251573 -1.79925e-16)
(1.07662 0.0247617 -1.68283e-16)
(1.07771 0.0243742 -1.57906e-16)
(1.07878 0.0239946 -1.47888e-16)
(1.07986 0.0236226 -1.39937e-16)
(1.08094 0.0232582 -1.01794e-16)
(1.08201 0.0229011 -1.01518e-16)
(1.08308 0.0225512 -9.18697e-17)
(1.08414 0.0222082 -8.85504e-17)
(1.08521 0.0218721 -4.83105e-17)
(1.08626 0.0215427 -4.71608e-17)
(1.08732 0.0212198 -4.11387e-17)
(1.08837 0.0209032 -3.70506e-17)
(1.08942 0.0205928 -6.46715e-18)
(1.09046 0.0202885 -8.12224e-18)
(1.0915 0.0199901 -2.12923e-19)
(1.09254 0.0196975 9.078e-19)
(1.09357 0.0194105 8.29079e-18)
(1.09459 0.019129 1.53517e-17)
(1.09562 0.0188529 2.18284e-17)
(1.09663 0.0185821 2.29614e-17)
(1.09764 0.0183163 5.76654e-17)
(1.09865 0.0180556 5.67267e-17)
(1.09965 0.0177998 6.48299e-17)
(1.10064 0.0175487 7.50298e-17)
(1.10163 0.0173023 8.05828e-17)
(1.10262 0.0170604 8.54023e-17)
(1.1036 0.016823 8.80707e-17)
(1.10457 0.0165899 9.25361e-17)
(1.10553 0.016361 9.66874e-17)
(1.1065 0.0161363 1.34409e-16)
(1.10745 0.0159156 1.32987e-16)
(1.1084 0.0156988 1.35027e-16)
(1.10934 0.015486 1.36331e-16)
(1.11028 0.0152768 1.65818e-16)
(1.11121 0.0150714 1.64696e-16)
(0.916847 0.0404623 -6.53403e-16)
(0.918826 0.0397275 -6.34105e-16)
(0.920794 0.0390072 -6.22204e-16)
(0.922752 0.0383013 -5.99916e-16)
(0.924699 0.0376096 -5.83351e-16)
(0.926636 0.036932 -5.66151e-16)
(0.928562 0.0362682 -5.45809e-16)
(0.930477 0.0356181 -5.3504e-16)
(0.932382 0.0349815 -5.1757e-16)
(0.934276 0.0343581 -5.07281e-16)
(0.936158 0.0337478 -4.89438e-16)
(0.93803 0.0331503 -4.80499e-16)
(0.93989 0.0325654 -4.56429e-16)
(0.941739 0.0319928 -4.44464e-16)
(0.943576 0.0314324 -4.28315e-16)
(0.945401 0.0308839 -4.19166e-16)
(0.947215 0.0303471 -3.95046e-16)
(0.949017 0.0298217 -3.82665e-16)
(0.950807 0.0293075 -3.64725e-16)
(0.952585 0.0288042 -3.596e-16)
(0.954351 0.0283117 -3.3847e-16)
(0.956105 0.0278296 -3.26446e-16)
(1.06578 0.0291129 -2.85669e-16)
(0.957847 0.0273579 -3.10176e-16)
)
;
    }
}


// ************************************************************************* //
