/*--------------------------------*- C++ -*----------------------------------*\
  =========                 |
  \\      /  F ield         | OpenFOAM: The Open Source CFD Toolbox
   \\    /   O peration     | Website:  https://openfoam.org
    \\  /    A nd           | Version:  7
     \\/     M anipulation  |
\*---------------------------------------------------------------------------*/
FoamFile
{
    version     2.0;
    format      ascii;
    class       volVectorField;
    location    "1";
    object      U;
}
// * * * * * * * * * * * * * * * * * * * * * * * * * * * * * * * * * * * * * //

dimensions      [0 1 -1 0 0 0 0];

internalField   nonuniform List<vector> 
344
(
(1.04479 -5.4475e-06 2.22839e-16)
(1.04479 -4.34435e-06 3.7244e-16)
(1.04479 -3.35923e-06 6.55347e-16)
(1.04479 -2.46731e-06 2.53914e-16)
(1.04479 -1.64552e-06 5.11149e-17)
(1.04479 -8.73684e-07 3.57327e-17)
(1.04479 -1.32068e-07 -2.29225e-16)
(1.04479 5.96922e-07 7.18059e-16)
(1.04479 1.33068e-06 1.98336e-16)
(1.04479 2.08696e-06 1.48356e-16)
(1.04479 2.88368e-06 -5.66673e-16)
(1.04479 3.73946e-06 9.04813e-19)
(1.04479 4.67375e-06 -3.29894e-16)
(1.04479 5.70766e-06 3.29777e-16)
(1.04479 6.8645e-06 2.51922e-17)
(1.04479 8.16936e-06 9.59508e-16)
(1.04479 9.65157e-06 5.67412e-16)
(1.04479 1.13415e-05 4.84456e-16)
(1.04479 1.32793e-05 3.6797e-16)
(1.04479 1.54979e-05 2.95192e-16)
(1.04479 1.80607e-05 2.80228e-16)
(1.04479 2.09864e-05 5.88977e-16)
(1.04479 2.44068e-05 4.53119e-16)
(1.04479 2.82432e-05 4.7237e-16)
(1.04479 3.2875e-05 -1.51493e-16)
(1.04479 3.77799e-05 5.13859e-16)
(1.0448 4.42827e-05 1.47771e-16)
(1.04479 5.00616e-05 3.84429e-16)
(1.0448 6.00377e-05 4.65219e-16)
(1.04479 6.50028e-05 1.02785e-15)
(1.04482 8.31736e-05 1.10188e-15)
(1.04478 8.02131e-05 3.35896e-16)
(1.04486 0.000121592 7.90524e-16)
(1.04473 8.5461e-05 6.19949e-16)
(1.04498 0.000197721 9.37509e-16)
(1.04459 4.65534e-05 5.44839e-17)
(1.04529 0.000375294 1.05599e-15)
(1.04417 -0.000137893 9.47558e-16)
(1.04607 0.000828172 6.43431e-16)
(1.04311 -0.000738856 1.19155e-15)
(1.0449 -0.000497793 6.64602e-15)
(1.04489 -0.000420343 9.67554e-15)
(1.04487 -0.00035521 6.41647e-15)
(1.04486 -0.000300384 9.48511e-15)
(1.04485 -0.000254188 7.30212e-15)
(1.04485 -0.000215226 9.80664e-15)
(1.04484 -0.000182335 8.77372e-15)
(1.04483 -0.000154544 8.89668e-15)
(1.04483 -0.000131043 9.05171e-15)
(1.04482 -0.000111156 9.20871e-15)
(1.04482 -9.43141e-05 9.71984e-15)
(1.04481 -8.0043e-05 7.68532e-15)
(1.04481 -6.79428e-05 9.77155e-15)
(1.04481 -5.76774e-05 7.87241e-15)
(1.04481 -4.89639e-05 1.03616e-14)
(1.0448 -4.15637e-05 8.25719e-15)
(1.0448 -3.5275e-05 9.58773e-15)
(1.0448 -2.99275e-05 8.44691e-15)
(1.0448 -2.53769e-05 9.60056e-15)
(1.0448 -2.1501e-05 7.61011e-15)
(1.0448 -1.81959e-05 8.58907e-15)
(1.0448 -1.53737e-05 7.86393e-15)
(1.0448 -1.29592e-05 9.1352e-15)
(1.0448 -1.08886e-05 7.88821e-15)
(1.0448 -9.1072e-06 8.53816e-15)
(1.0448 -7.56803e-06 7.33976e-15)
(1.04479 -6.23054e-06 7.22903e-15)
(1.04479 -5.06019e-06 6.83732e-15)
(1.04479 -4.02632e-06 7.56295e-15)
(1.04479 -3.10257e-06 7.07053e-15)
(1.04479 -2.26503e-06 7.46379e-15)
(1.04479 -1.49298e-06 7.75769e-15)
(1.04479 -7.66413e-07 6.62654e-15)
(1.04479 -6.76986e-08 8.15066e-15)
(1.04479 6.20501e-07 7.73319e-15)
(1.04479 1.31537e-06 7.79081e-15)
(1.04479 2.03311e-06 8.06393e-15)
(1.04479 2.78996e-06 7.134e-15)
(1.04479 3.60333e-06 8.72167e-15)
(1.04479 4.49179e-06 6.18726e-15)
(1.04479 5.47512e-06 8.70808e-15)
(1.04479 6.57531e-06 5.78133e-15)
(1.04479 7.81565e-06 1.04795e-14)
(1.04479 9.22376e-06 5.55075e-15)
(1.04479 1.08277e-05 1.03339e-14)
(1.04479 1.26646e-05 4.03189e-15)
(1.04479 1.47641e-05 9.90658e-15)
(1.04479 1.7186e-05 3.72846e-15)
(1.04479 1.99426e-05 9.30443e-15)
(1.0448 2.31626e-05 3.67045e-15)
(1.0448 2.67539e-05 8.917e-15)
(1.0448 3.10951e-05 2.90589e-15)
(1.0448 3.5638e-05 7.74928e-15)
(1.0448 4.17098e-05 3.15319e-15)
(1.0448 4.69507e-05 6.67437e-15)
(1.04481 5.62546e-05 3.1079e-15)
(1.0448 6.04552e-05 6.03956e-15)
(1.04482 7.74381e-05 3.30806e-15)
(1.04479 7.36336e-05 5.01658e-15)
(1.04486 0.000112355 3.94984e-15)
(1.04475 7.65131e-05 5.25143e-15)
(1.04497 0.00018112 4.00708e-15)
(1.04464 3.69604e-05 4.04757e-15)
(1.04524 0.000340603 3.73658e-15)
(1.04431 -0.000137526 3.79298e-15)
(1.04589 0.000743259 4.20639e-15)
(1.04346 -0.000691076 3.10795e-15)
(1.04493 -0.000482077 1.09356e-14)
(1.04491 -0.000406671 1.8105e-14)
(1.0449 -0.000343367 9.12242e-15)
(1.04488 -0.000290159 1.69856e-14)
(1.04487 -0.000245383 9.79509e-15)
(1.04486 -0.000207661 1.60781e-14)
(1.04485 -0.000175846 1.0168e-14)
(1.04484 -0.000148985 1.43825e-14)
(1.04483 -0.000126287 1.0745e-14)
(1.04483 -0.000107089 1.37511e-14)
(1.04482 -9.08403e-05 1.08806e-14)
(1.04482 -7.70774e-05 1.13504e-14)
(1.04482 -6.54124e-05 1.1366e-14)
(1.04481 -5.55195e-05 1.04099e-14)
(1.04481 -4.71246e-05 1.16421e-14)
(1.04481 -3.99966e-05 8.3187e-15)
(1.0448 -3.39405e-05 1.22878e-14)
(1.0448 -2.87916e-05 9.59007e-15)
(1.0448 -2.44106e-05 1.36691e-14)
(1.0448 -2.06796e-05 9.73486e-15)
(1.0448 -1.74983e-05 1.3404e-14)
(1.0448 -1.4782e-05 1.00973e-14)
(1.0448 -1.24583e-05 1.51351e-14)
(1.0448 -1.04653e-05 1.04978e-14)
(1.0448 -8.75071e-06 1.49371e-14)
(1.0448 -7.26901e-06 9.98806e-15)
(1.0448 -5.98119e-06 1.4663e-14)
(1.04479 -4.85399e-06 8.02812e-15)
(1.04479 -3.85789e-06 1.39183e-14)
(1.04479 -2.96748e-06 8.19597e-15)
(1.04479 -2.15973e-06 1.28221e-14)
(1.04479 -1.41469e-06 8.12887e-15)
(1.04479 -7.12886e-07 1.1218e-14)
(1.04479 -3.75582e-08 9.27284e-15)
(1.04479 6.28277e-07 9.72672e-15)
(1.04479 1.30148e-06 7.34088e-15)
(1.04479 1.99727e-06 8.21095e-15)
(1.04479 2.73127e-06 6.12528e-15)
(1.04479 3.52036e-06 7.18156e-15)
(1.04479 4.38253e-06 4.48392e-15)
(1.04479 5.33688e-06 5.37288e-15)
(1.04479 6.40458e-06 3.97359e-15)
(1.04479 7.60804e-06 5.74678e-15)
(1.04479 8.97388e-06 3.79101e-15)
(1.04479 1.05288e-05 3.30804e-15)
(1.04479 1.23087e-05 3.06485e-15)
(1.0448 1.43408e-05 3.34304e-15)
(1.0448 1.66843e-05 1.71242e-15)
(1.0448 1.93459e-05 1.99606e-15)
(1.0448 2.24564e-05 4.25385e-16)
(1.0448 2.59102e-05 9.79121e-16)
(1.0448 3.00983e-05 -8.70556e-16)
(1.0448 3.44342e-05 -7.10556e-16)
(1.0448 4.02957e-05 -1.52448e-15)
(1.0448 4.5208e-05 -1.95767e-15)
(1.04481 5.42365e-05 -2.31931e-15)
(1.0448 5.78826e-05 -3.0721e-15)
(1.04483 7.45368e-05 -2.96861e-15)
(1.0448 6.97518e-05 -4.10139e-15)
(1.04486 0.000108116 -2.57279e-15)
(1.04477 7.05785e-05 -3.54916e-15)
(1.04496 0.000174642 -3.16511e-15)
(1.04467 2.80556e-05 -4.41828e-15)
(1.0452 0.000329533 -4.3737e-15)
(1.04438 -0.000149586 -4.42948e-15)
(1.04579 0.000719072 -4.42237e-15)
(1.04364 -0.000698339 -4.46735e-15)
(1.04496 -0.000465107 9.7825e-15)
(1.04493 -0.000391968 1.07163e-14)
(1.04492 -0.000330673 1.02639e-14)
(1.0449 -0.000279231 1.07765e-14)
(1.04488 -0.000235997 1.14048e-14)
(1.04487 -0.000199613 1.11589e-14)
(1.04486 -0.000168955 1.1933e-14)
(1.04485 -0.000143091 1.03982e-14)
(1.04484 -0.00012125 1.2356e-14)
(1.04483 -0.000102789 1.08102e-14)
(1.04483 -8.71701e-05 1.25513e-14)
(1.04482 -7.39468e-05 9.30835e-15)
(1.04482 -6.27434e-05 1.21258e-14)
(1.04481 -5.32449e-05 9.6008e-15)
(1.04481 -4.51868e-05 1.16633e-14)
(1.04481 -3.83465e-05 8.71487e-15)
(1.04481 -3.25359e-05 1.12694e-14)
(1.0448 -2.75965e-05 9.15993e-15)
(1.0448 -2.33944e-05 1.17397e-14)
(1.0448 -1.98161e-05 8.81989e-15)
(1.0448 -1.67653e-05 1.04275e-14)
(1.0448 -1.41606e-05 8.88684e-15)
(1.0448 -1.19322e-05 1.17908e-14)
(1.0448 -1.0021e-05 9.3109e-15)
(1.0448 -8.3766e-06 1.07659e-14)
(1.0448 -6.95536e-06 8.7013e-15)
(1.0448 -5.71982e-06 9.77386e-15)
(1.0448 -4.63805e-06 8.64375e-15)
(1.04479 -3.68174e-06 1.03204e-14)
(1.04479 -2.82639e-06 8.76629e-15)
(1.04479 -2.05005e-06 1.0416e-14)
(1.04479 -1.33323e-06 8.51507e-15)
(1.04479 -6.57711e-07 9.99177e-15)
(1.04479 -6.4223e-09 8.76105e-15)
(1.04479 6.36064e-07 9.90518e-15)
(1.04479 1.28597e-06 8.09102e-15)
(1.04479 1.95817e-06 9.55485e-15)
(1.04479 2.66784e-06 7.86337e-15)
(1.04479 3.43115e-06 9.43949e-15)
(1.04479 4.26548e-06 6.84384e-15)
(1.04479 5.18913e-06 8.43243e-15)
(1.04479 6.22248e-06 7.14237e-15)
(1.04479 7.38704e-06 9.63662e-15)
(1.04479 8.70831e-06 7.32691e-15)
(1.0448 1.02118e-05 7.91813e-15)
(1.0448 1.19318e-05 6.84597e-15)
(1.0448 1.38937e-05 7.13366e-15)
(1.0448 1.61552e-05 6.26038e-15)
(1.0448 1.87188e-05 6.17783e-15)
(1.0448 2.1715e-05 4.97676e-15)
(1.0448 2.50294e-05 5.32629e-15)
(1.0448 2.90561e-05 3.83188e-15)
(1.0448 3.31894e-05 3.87437e-15)
(1.0448 3.88203e-05 3.58894e-15)
(1.0448 4.34335e-05 3.02951e-15)
(1.04481 5.21217e-05 2.92432e-15)
(1.04481 5.53334e-05 1.74425e-15)
(1.04483 7.14329e-05 2.19815e-15)
(1.0448 6.61039e-05 9.8543e-16)
(1.04486 0.000103326 2.76061e-15)
(1.04478 6.55893e-05 1.60688e-15)
(1.04495 0.000166441 2.29333e-15)
(1.04469 2.24347e-05 9.07954e-16)
(1.04517 0.000312848 1.16925e-15)
(1.04444 -0.0001511 9.2856e-16)
(1.04569 0.000679987 1.17531e-15)
(1.04381 -0.000679495 9.51148e-16)
(1.04498 -0.000446913 1.15968e-14)
(1.04496 -0.000376263 1.34597e-14)
(1.04493 -0.000317159 1.17735e-14)
(1.04491 -0.000267629 1.34028e-14)
(1.0449 -0.000226056 1.28066e-14)
(1.04488 -0.000191106 1.42789e-14)
(1.04487 -0.000161683 1.45358e-14)
(1.04486 -0.000136881 1.33076e-14)
(1.04485 -0.00011595 1.41917e-14)
(1.04484 -9.8268e-05 1.36045e-14)
(1.04483 -8.3316e-05 1.54478e-14)
(1.04483 -7.06621e-05 1.18754e-14)
(1.04482 -5.99449e-05 1.44903e-14)
(1.04482 -5.08613e-05 1.23285e-14)
(1.04481 -4.31573e-05 1.51332e-14)
(1.04481 -3.6619e-05 1.21138e-14)
(1.04481 -3.1066e-05 1.42653e-14)
(1.04481 -2.63464e-05 1.21178e-14)
(1.0448 -2.23318e-05 1.44256e-14)
(1.0448 -1.89135e-05 1.1342e-14)
(1.0448 -1.59993e-05 1.24416e-14)
(1.0448 -1.35112e-05 1.12588e-14)
(1.0448 -1.13827e-05 1.37965e-14)
(1.0448 -9.55705e-06 1.15066e-14)
(1.0448 -7.98605e-06 1.25476e-14)
(1.0448 -6.62802e-06 1.07757e-14)
(1.0448 -5.44717e-06 1.13657e-14)
(1.0448 -4.41291e-06 1.09977e-14)
(1.0448 -3.49817e-06 1.20596e-14)
(1.04479 -2.67955e-06 1.11055e-14)
(1.04479 -1.93601e-06 1.22066e-14)
(1.04479 -1.24879e-06 1.20077e-14)
(1.04479 -6.00489e-07 1.12285e-14)
(1.04479 2.49962e-08 1.23034e-14)
(1.04479 6.43031e-07 1.16547e-14)
(1.04479 1.26855e-06 1.14035e-14)
(1.04479 1.916e-06 1.176e-14)
(1.04479 2.60019e-06 1.09818e-14)
(1.04479 3.33654e-06 1.2045e-14)
(1.04479 4.14174e-06 9.72944e-15)
(1.04479 5.03324e-06 1.18754e-14)
(1.04479 6.03069e-06 9.76502e-15)
(1.04479 7.15469e-06 1.38905e-14)
(1.0448 8.42954e-06 9.4014e-15)
(1.0448 9.87949e-06 1.31547e-14)
(1.0448 1.15375e-05 7.70946e-15)
(1.0448 1.34269e-05 1.24009e-14)
(1.0448 1.56036e-05 7.41482e-15)
(1.0448 1.8067e-05 1.14316e-14)
(1.0448 2.09453e-05 5.88942e-15)
(1.0448 2.41189e-05 1.01931e-14)
(1.0448 2.79787e-05 4.74348e-15)
(1.0448 3.19124e-05 8.68754e-15)
(1.04481 3.73002e-05 4.93478e-15)
(1.04481 4.16334e-05 7.70847e-15)
(1.04481 4.99442e-05 4.45136e-15)
(1.04481 5.27945e-05 6.07207e-15)
(1.04483 6.82167e-05 3.82904e-15)
(1.04481 6.25872e-05 5.08447e-15)
(1.04486 9.82723e-05 4.46377e-15)
(1.04479 6.10785e-05 5.39361e-15)
(1.04495 0.000157556 4.21094e-15)
(1.04472 1.81386e-05 4.36391e-15)
(1.04514 0.000294533 3.51184e-15)
(1.04451 -0.000149178 3.86943e-15)
(1.0456 0.000635613 3.95073e-15)
(1.04398 -0.000650282 3.40509e-15)
(1.04501 -0.000427541 1.72537e-14)
(1.04498 -0.000359602 2.49882e-14)
(1.04495 -0.000302865 1.55876e-14)
(1.04493 -0.00025539 2.34089e-14)
(1.04491 -0.000215591 1.67546e-14)
(1.04489 -0.000182168 2.29901e-14)
(1.04488 -0.000154055 1.74308e-14)
(1.04487 -0.000130376 2.08425e-14)
(1.04486 -0.000110405 1.70641e-14)
(1.04485 -9.35427e-05 1.95871e-14)
(1.04484 -7.92907e-05 1.79167e-14)
(1.04483 -6.72341e-05 1.6935e-14)
(1.04483 -5.70262e-05 1.76556e-14)
(1.04482 -4.8377e-05 1.65078e-14)
(1.04482 -4.1043e-05 1.80197e-14)
(1.04481 -3.48201e-05 1.40194e-14)
(1.04481 -2.9536e-05 1.85285e-14)
(1.04481 -2.50455e-05 1.49943e-14)
(1.04481 -2.12264e-05 1.96601e-14)
(1.0448 -1.79748e-05 1.46467e-14)
(1.0448 -1.52029e-05 1.84938e-14)
(1.0448 -1.28363e-05 1.47451e-14)
(1.0448 -1.08117e-05 2.03972e-14)
(1.0448 -9.07505e-06 1.52013e-14)
(1.0448 -7.58041e-06 2.0017e-14)
(1.0448 -6.28815e-06 1.42553e-14)
(1.0448 -5.16425e-06 1.95362e-14)
(1.0448 -4.17941e-06 1.33736e-14)
(1.0448 -3.30792e-06 1.91999e-14)
(1.0448 -2.52755e-06 1.38984e-14)
(1.04479 -1.81814e-06 1.83621e-14)
(1.04479 -1.1617e-06 1.4008e-14)
(1.04479 -5.41816e-07 1.66543e-14)
(1.04479 5.6901e-08 1.43317e-14)
(1.04479 6.49272e-07 1.48643e-14)
(1.04479 1.2493e-06 1.20277e-14)
)
;

boundaryField
{
    inlet
    {
        type            uniformFixedValue;
        uniformValue    constant (1 0 0);
        value           nonuniform 0();
    }
    outlet
    {
        type            pressureInletOutletVelocity;
        value           nonuniform 0();
    }
    wall
    {
        type            fixedValue;
        value           nonuniform 0();
    }
    wedge1
    {
        type            wedge;
    }
    wedge2
    {
        type            wedge;
    }
    axis
    {
        type            empty;
    }
    procBoundary19to13
    {
        type            processor;
        value           nonuniform List<vector> 
68
(
(1.04479 -5.92526e-06 -7.99916e-16)
(1.04479 -4.73632e-06 -6.26442e-16)
(1.04479 -3.67545e-06 -1.24846e-16)
(1.04479 -2.71601e-06 -3.47015e-16)
(1.04479 -1.83317e-06 5.8537e-17)
(1.04479 -1.00495e-06 -1.09974e-15)
(1.04479 -2.1115e-07 -1.49154e-15)
(1.04479 5.68002e-07 -7.65009e-16)
(1.04479 1.35086e-06 -1.80676e-15)
(1.04479 2.15631e-06 -9.06866e-16)
(1.04479 3.00396e-06 -2.13677e-15)
(1.04479 3.91396e-06 -1.47446e-15)
(1.04479 4.90716e-06 -5.12331e-16)
(1.04479 6.00633e-06 6.76986e-17)
(1.04479 7.23668e-06 -2.07579e-16)
(1.04479 8.62563e-06 -8.1518e-17)
(1.04479 1.02052e-05 -6.39476e-16)
(1.04479 1.20092e-05 -1.15773e-15)
(1.04479 1.40807e-05 -7.56942e-16)
(1.04479 1.64597e-05 -4.46787e-16)
(1.04479 1.92116e-05 -7.89249e-16)
(1.04479 2.23698e-05 -7.15246e-16)
(1.04479 2.60604e-05 -3.04352e-16)
(1.04479 3.02469e-05 -9.96225e-16)
(1.04479 3.52611e-05 -1.47761e-15)
(1.04479 4.07244e-05 -1.2471e-15)
(1.04479 4.77387e-05 -5.76962e-16)
(1.04479 5.4494e-05 2.23198e-16)
(1.04479 6.50242e-05 -6.93865e-16)
(1.04478 7.19359e-05 -5.07827e-16)
(1.04481 9.02003e-05 -7.74046e-16)
(1.04476 9.1704e-05 -8.77323e-16)
(1.04486 0.000130836 -1.18624e-15)
(1.04468 0.000106008 -1.2839e-15)
(1.04501 0.000207854 -9.96243e-16)
(1.04447 8.62526e-05 -1.22026e-15)
(1.04543 0.00038079 -1.09644e-15)
(1.04384 -5.66908e-05 -1.12323e-15)
(1.04656 0.000813652 -5.72262e-16)
(1.04217 -0.0005702 -7.04458e-16)
(1.04484 -0.000525934 1.28106e-15)
(1.04484 -0.000444951 2.00459e-15)
(1.04483 -0.00037662 9.25429e-17)
(1.04483 -0.000318936 1.502e-15)
(1.04483 -0.000270213 1.0353e-15)
(1.04482 -0.000229032 1.90813e-15)
(1.04482 -0.000194205 1.35132e-15)
(1.04481 -0.000164732 1.47643e-15)
(1.04481 -0.000139776 1.27914e-15)
(1.04481 -0.000118632 1.61572e-15)
(1.04481 -0.000100709 9.51569e-16)
(1.04481 -8.55085e-05 1.07128e-15)
(1.0448 -7.26107e-05 1.3111e-15)
(1.0448 -6.16617e-05 1.62775e-15)
(1.0448 -5.23628e-05 7.35357e-16)
(1.0448 -4.44616e-05 8.21671e-16)
(1.0448 -3.77446e-05 1.37644e-15)
(1.0448 -3.20309e-05 1.23094e-15)
(1.0448 -2.71673e-05 8.94934e-16)
(1.0448 -2.30239e-05 5.84955e-16)
(1.0448 -1.94902e-05 9.68514e-16)
(1.0448 -1.64724e-05 7.89764e-16)
(1.04479 -1.38905e-05 9.33792e-16)
(1.04479 -1.16763e-05 7.94203e-16)
(1.04479 -9.77169e-06 1.3744e-15)
(1.04479 -8.12636e-06 6.53462e-16)
(1.04479 -6.69741e-06 9.35114e-17)
(1.04479 -6.69741e-06 9.35114e-17)
)
;
    }
    procBoundary19to18
    {
        type            processor;
        value           nonuniform List<vector> 4((1.04491 -0.000589962 9.69046e-15) (1.04495 -0.000571993 1.73881e-14) (1.04498 -0.000552501 1.07804e-14) (1.04501 -0.000531505 1.32775e-14));
    }
    procBoundary19to20
    {
        type            processor;
        value           nonuniform List<vector> 5((1.04793 0.00199049 8.8605e-16) (1.04742 0.00176705 5.60535e-15) (1.04714 0.00170237 -4.02414e-15) (1.04687 0.00160015 1.46997e-15) (1.04661 0.00148351 4.95217e-15));
    }
    procBoundary19to24
    {
        type            processor;
        value           uniform (1.04505 -0.000509058 2.41717e-14);
    }
    procBoundary19to25
    {
        type            processor;
        value           nonuniform List<vector> 
68
(
(1.04479 1.87095e-06 1.29031e-14)
(1.04479 2.52856e-06 1.03797e-14)
(1.04479 3.23683e-06 1.1566e-14)
(1.04479 4.01167e-06 8.38377e-15)
(1.04479 4.86966e-06 1.01871e-14)
(1.0448 5.82975e-06 8.21338e-15)
(1.0448 6.91157e-06 1.05483e-14)
(1.0448 8.13826e-06 7.75998e-15)
(1.0448 9.53274e-06 8.10241e-15)
(1.0448 1.11267e-05 6.29145e-15)
(1.0448 1.29415e-05 7.35006e-15)
(1.0448 1.5031e-05 5.14031e-15)
(1.0448 1.73921e-05 5.38463e-15)
(1.0448 2.01493e-05 2.72896e-15)
(1.0448 2.31811e-05 3.29093e-15)
(1.0448 2.68692e-05 3.63034e-16)
(1.0448 3.06067e-05 1.36953e-15)
(1.04481 3.57402e-05 2.1035e-16)
(1.04481 3.98128e-05 3.59576e-17)
(1.04482 4.77115e-05 -9.22172e-16)
(1.04481 5.0273e-05 -2.05678e-15)
(1.04483 6.49012e-05 -2.25488e-15)
(1.04481 5.92129e-05 -3.44477e-15)
(1.04486 9.2972e-05 -1.98805e-15)
(1.0448 5.70864e-05 -3.29485e-15)
(1.04494 0.000147944 -2.77677e-15)
(1.04474 1.54435e-05 -4.16923e-15)
(1.04511 0.000274075 -3.90691e-15)
(1.04457 -0.000143006 -4.68323e-15)
(1.04551 0.000585951 -4.05502e-15)
(1.04413 -0.000610823 -4.52424e-15)
(1.04504 -0.000407037 1.92978e-14)
(1.045 -0.000342025 2.63733e-14)
(1.04497 -0.000287828 1.63356e-14)
(1.04495 -0.000242545 2.51806e-14)
(1.04492 -0.00020463 1.77018e-14)
(1.0449 -0.000172822 2.53296e-14)
(1.04489 -0.000146092 1.9268e-14)
(1.04487 -0.000123593 2.30847e-14)
(1.04486 -0.000104629 1.83757e-14)
(1.04485 -8.86257e-05 2.18865e-14)
(1.04484 -7.51057e-05 2.0107e-14)
(1.04484 -6.36725e-05 1.91243e-14)
(1.04483 -5.39956e-05 1.97016e-14)
(1.04482 -4.57987e-05 1.88615e-14)
(1.04482 -3.88499e-05 2.11745e-14)
(1.04482 -3.29549e-05 1.71934e-14)
(1.04481 -2.795e-05 2.12072e-14)
(1.04481 -2.36976e-05 1.78348e-14)
(1.04481 -2.00813e-05 2.1703e-14)
(1.0448 -1.70026e-05 1.68563e-14)
(1.0448 -1.43783e-05 2.03268e-14)
(1.0448 -1.21376e-05 1.70439e-14)
(1.0448 -1.02207e-05 2.17714e-14)
(1.0448 -8.57631e-06 1.74252e-14)
(1.0448 -7.16082e-06 2.10889e-14)
(1.0448 -5.93675e-06 1.63641e-14)
(1.0448 -4.87184e-06 1.99747e-14)
(1.0448 -3.93822e-06 1.44816e-14)
(1.0448 -3.11159e-06 1.99151e-14)
(1.0448 -2.37082e-06 1.55779e-14)
(1.0448 -1.69677e-06 1.91674e-14)
(1.04479 -1.07228e-06 1.68008e-14)
(1.04479 -4.81857e-07 1.70201e-14)
(1.04479 8.91036e-08 1.74251e-14)
(1.04479 6.54738e-07 1.55074e-14)
(1.04479 1.87095e-06 1.29031e-14)
(1.04479 1.22827e-06 1.5368e-14)
)
;
    }
}


// ************************************************************************* //
