/*--------------------------------*- C++ -*----------------------------------*\
  =========                 |
  \\      /  F ield         | OpenFOAM: The Open Source CFD Toolbox
   \\    /   O peration     | Website:  https://openfoam.org
    \\  /    A nd           | Version:  7
     \\/     M anipulation  |
\*---------------------------------------------------------------------------*/
FoamFile
{
    version     2.0;
    format      ascii;
    class       volVectorField;
    location    "15";
    object      U;
}
// * * * * * * * * * * * * * * * * * * * * * * * * * * * * * * * * * * * * * //

dimensions      [0 1 -1 0 0 0 0];

internalField   nonuniform List<vector> 
433
(
(1.0786 -0.00228475 0)
(1.08015 -0.00221642 0)
(1.08174 -0.00214362 0)
(1.08333 -0.00206581 0)
(1.08491 -0.00198246 0)
(1.08648 -0.0018934 0)
(1.08803 -0.00179859 0)
(1.08956 -0.00169808 0)
(1.09104 -0.00159192 0)
(1.09248 -0.00148025 0)
(1.09385 -0.00136328 0)
(1.09516 -0.00124134 0)
(1.09638 -0.00111482 0)
(1.09751 -0.000984239 0)
(1.09853 -0.000850213 0)
(1.09944 -0.000713467 0)
(1.1002 -0.000574835 0)
(1.10083 -0.00043526 0)
(1.07961 -0.00679004 0)
(1.08117 -0.00658839 0)
(1.08278 -0.00637299 0)
(1.08438 -0.00614204 0)
(1.08598 -0.0058941 0)
(1.08757 -0.00562874 0)
(1.08913 -0.00534601 0)
(1.09067 -0.00504605 0)
(1.09216 -0.00472912 0)
(1.0936 -0.00439569 0)
(1.09499 -0.00404646 0)
(1.09629 -0.00368239 0)
(1.09752 -0.00330475 0)
(1.09865 -0.00291509 0)
(1.09966 -0.00251527 0)
(1.10056 -0.00210747 0)
(1.10131 -0.0016942 0)
(1.10192 -0.00127829 0)
(1.08155 -0.0112176 0)
(1.08315 -0.0108807 0)
(1.08478 -0.0105212 0)
(1.08641 -0.010136 0)
(1.08804 -0.00972256 0)
(1.08965 -0.00928029 0)
(1.09124 -0.00880929 0)
(1.0928 -0.00830984 0)
(1.09431 -0.00778241 0)
(1.09576 -0.00722781 0)
(1.09715 -0.00664724 0)
(1.09847 -0.00604236 0)
(1.09969 -0.00541531 0)
(1.10081 -0.0047687 0)
(1.10182 -0.00410567 0)
(1.10269 -0.00342989 0)
(1.10343 -0.00274556 0)
(1.10401 -0.00205738 0)
(1.08434 -0.0155989 0)
(1.08598 -0.0151241 0)
(1.08766 -0.0146177 0)
(1.08933 -0.0140751 0)
(1.091 -0.0134931 0)
(1.09265 -0.0128707 0)
(1.09427 -0.0122083 0)
(1.09586 -0.0115062 0)
(1.09739 -0.0107652 0)
(1.09886 -0.00998652 0)
(1.10027 -0.00917197 0)
(1.10159 -0.00832394 0)
(1.10281 -0.00744552 0)
(1.10392 -0.00654049 0)
(1.10491 -0.00561331 0)
(1.10576 -0.00466921 0)
(1.10646 -0.00371414 0)
(1.10701 -0.00275477 0)
(1.08793 -0.0199742 0)
(1.08963 -0.0193554 0)
(1.09136 -0.0186959 0)
(1.09308 -0.0179897 0)
(1.09481 -0.0172325 0)
(1.09651 -0.0164233 0)
(1.09817 -0.0155626 0)
(1.09979 -0.0146512 0)
(1.10135 -0.01369 0)
(1.10285 -0.0126808 0)
(1.10426 -0.0116261 0)
(1.10559 -0.0105291 0)
(1.10681 -0.00939398 0)
(1.10791 -0.00822578 0)
(1.10887 -0.0070304 0)
(1.10969 -0.0058147 0)
(1.11035 -0.00458651 0)
(1.11083 -0.00335452 0)
(1.09227 -0.0243711 0)
(1.09404 -0.0236002 0)
(1.09583 -0.0227792 0)
(1.09762 -0.0219006 0)
(1.0994 -0.0209592 0)
(1.10116 -0.019954 0)
(1.10287 -0.0188856 0)
(1.10453 -0.0177553 0)
(1.10613 -0.0165645 0)
(1.10765 -0.0153155 0)
(1.10908 -0.0140116 0)
(1.11041 -0.0126572 0)
(1.11162 -0.0112574 0)
(1.1127 -0.00981869 0)
(1.11364 -0.00834857 0)
(1.11441 -0.00685567 0)
(1.11501 -0.00534978 0)
(1.11543 -0.00384177 0)
(1.09731 -0.0288147 0)
(1.09917 -0.0278814 0)
(1.10103 -0.0268881 0)
(1.10289 -0.025826 0)
(1.10475 -0.0246888 0)
(1.10657 -0.0234756 0)
(1.10834 -0.0221876 0)
(1.11005 -0.0208263 0)
(1.11169 -0.0193938 0)
(1.11323 -0.0178932 0)
(1.11468 -0.0163287 0)
(1.11601 -0.0147058 0)
(1.1172 -0.013031 0)
(1.11826 -0.0113123 0)
(1.11915 -0.00955881 0)
(1.11987 -0.00778121 0)
(1.1204 -0.00599134 0)
(1.12073 -0.00420235 0)
(1.10304 -0.0333256 0)
(1.10499 -0.0322173 0)
(1.10692 -0.0310387 0)
(1.10887 -0.0297795 0)
(1.11081 -0.0284326 0)
(1.11271 -0.0269972 0)
(1.11454 -0.025475 0)
(1.1163 -0.0238683 0)
(1.11797 -0.0221798 0)
(1.11954 -0.0204135 0)
(1.121 -0.0185748 0)
(1.12232 -0.0166704 0)
(1.1235 -0.0147083 0)
(1.12452 -0.0126982 0)
(1.12536 -0.0106513 0)
(1.12601 -0.00858 0)
(1.12645 -0.00649854 0)
(1.12668 -0.00442247 0)
(1.10941 -0.0379205 0)
(1.11146 -0.0366224 0)
(1.11348 -0.0352432 0)
(1.11553 -0.0337712 0)
(1.11756 -0.0321983 0)
(1.11953 -0.0305242 0)
(1.12143 -0.0287512 0)
(1.12323 -0.0268823 0)
(1.12494 -0.0249214 0)
(1.12654 -0.0228734 0)
(1.128 -0.020745 0)
(1.12932 -0.0185443 0)
(1.13047 -0.0162812 0)
(1.13144 -0.0139671 0)
(1.13222 -0.0116152 0)
(1.13278 -0.00924027 0)
(1.13312 -0.00685873 0)
(1.13323 -0.0044887 0)
(1.1164 -0.0426129 0)
(1.11857 -0.041108 0)
(1.12068 -0.0395107 0)
(1.12282 -0.0378078 0)
(1.12495 -0.0359905 0)
(1.127 -0.0340588 0)
(1.12897 -0.0320162 0)
(1.13083 -0.0298665 0)
(1.13257 -0.0276148 0)
(1.13419 -0.0252673 0)
(1.13565 -0.0228321 0)
(1.13695 -0.0203192 0)
(1.13806 -0.0177401 0)
(1.13897 -0.0151083 0)
(1.13967 -0.0124392 0)
(1.14013 -0.00974986 0)
(1.14035 -0.00705924 0)
(1.14032 -0.00438804 0)
(1.12399 -0.0474132 0)
(1.12628 -0.0456821 0)
(1.12849 -0.0438468 0)
(1.13074 -0.0418926 0)
(1.13296 -0.03981 0)
(1.1351 -0.0375999 0)
(1.13713 -0.0352668 0)
(1.13904 -0.0328159 0)
(1.14082 -0.0302534 0)
(1.14244 -0.0275871 0)
(1.1439 -0.024827 0)
(1.14517 -0.0219846 0)
(1.14623 -0.0190737 0)
(1.14706 -0.01611 0)
(1.14766 -0.013111 0)
(1.14801 -0.0100963 0)
(1.14809 -0.00708739 0)
(1.14789 -0.00410775 0)
(1.13215 -0.0523285 0)
(1.13457 -0.0503494 0)
(1.13688 -0.0482538 0)
(1.13924 -0.0460255 0)
(1.14156 -0.0436547 0)
(1.14379 -0.0411431 0)
(1.14588 -0.0384968 0)
(1.14784 -0.0357225 0)
(1.14964 -0.0328278 0)
(1.15127 -0.0298224 0)
(1.1527 -0.0267181 0)
(1.15393 -0.0235286 0)
(1.15492 -0.0202697 0)
(1.15567 -0.0169595 0)
(1.15615 -0.0136178 0)
(1.15636 -0.0102667 0)
(1.15628 -0.00693051 0)
(1.15589 -0.00363522 0)
(1.14085 -0.057363 0)
(1.14341 -0.0551113 0)
(1.14583 -0.0527304 0)
(1.1483 -0.050203 0)
(1.15073 -0.0475186 0)
(1.15303 -0.0446806 0)
(1.15519 -0.0416967 0)
(1.15718 -0.0385753 0)
(1.159 -0.035326 0)
(1.16062 -0.0319603 0)
(1.16202 -0.0284921 0)
(1.16318 -0.0249374 0)
(1.16409 -0.0213144 0)
(1.16473 -0.0176432 0)
(1.16508 -0.0139463 0)
(1.16512 -0.0102484 0)
(1.16485 -0.00657611 0)
(1.16426 -0.00295843 0)
(1.15008 -0.0625173 0)
(1.15277 -0.0599658 0)
(1.15531 -0.0572721 0)
(1.15788 -0.0544178 0)
(1.16041 -0.0513925 0)
(1.1628 -0.0482012 0)
(1.16501 -0.0448537 0)
(1.16703 -0.0413605 0)
(1.16885 -0.0377332 0)
(1.17044 -0.0339855 0)
(1.17179 -0.0301336 0)
(1.17288 -0.0261958 0)
(1.17368 -0.0221925 0)
(1.17419 -0.0181465 0)
(1.17438 -0.0140825 0)
(1.17424 -0.0100277 0)
(1.17375 -0.00601145 0)
(1.17292 -0.00206541 0)
(1.1598 -0.067789 0)
(1.16264 -0.0649071 0)
(1.16528 -0.0618701 0)
(1.16797 -0.0586589 0)
(1.17059 -0.0552631 0)
(1.17305 -0.0516898 0)
(1.1753 -0.0479514 0)
(1.17733 -0.0440607 0)
(1.17914 -0.0400316 0)
(1.18069 -0.0358801 0)
(1.18197 -0.0316248 0)
(1.18295 -0.0272863 0)
(1.18363 -0.0228876 0)
(1.18397 -0.0184535 0)
(1.18398 -0.0140113 0)
(1.18362 -0.00959046 0)
(1.18289 -0.00522279 0)
(1.18179 -0.000942646 0)
(1.17 -0.0731715 0)
(1.17299 -0.0699253 0)
(1.17573 -0.0665117 0)
(1.17851 -0.0629107 0)
(1.18123 -0.0591127 0)
(1.18374 -0.0551272 0)
(1.18602 -0.0509695 0)
(1.18804 -0.046655 0)
(1.18981 -0.0422 0)
(1.1913 -0.037623 0)
(1.19248 -0.032945 0)
(1.19333 -0.0281891 0)
(1.19385 -0.0233804 0)
(1.19401 -0.0185459 0)
(1.19379 -0.0137152 0)
(1.19318 -0.00892 0)
(1.19218 -0.00419434 0)
(1.19077 0.000425099 0)
(1.18066 -0.0786538 0)
(1.18378 -0.0750056 0)
(1.18661 -0.0711786 0)
(1.18949 -0.0671525 0)
(1.19228 -0.0629183 0)
(1.19483 -0.0584888 0)
(1.1971 -0.0538825 0)
(1.1991 -0.0491174 0)
(1.2008 -0.0442124 0)
(1.20219 -0.0391886 0)
(1.20324 -0.0340694 0)
(1.20393 -0.0288799 0)
(1.20425 -0.0236475 0)
(1.20418 -0.0184014 0)
(1.2037 -0.0131728 0)
(1.2028 -0.00799567 0)
(1.20148 -0.00290629 0)
(1.19971 0.00205669 0)
(1.19174 -0.0842188 0)
(1.19499 -0.0801266 0)
(1.19789 -0.0758458 0)
(1.20085 -0.0713562 0)
(1.20368 -0.0666499 0)
(1.20624 -0.0617431 0)
(1.20849 -0.0566578 0)
(1.21042 -0.0514149 0)
(1.21202 -0.046036 0)
(1.21327 -0.0405445 0)
(1.21414 -0.0349659 0)
(1.21462 -0.0293277 0)
(1.2147 -0.0236589 0)
(1.21434 -0.0179906 0)
(1.21355 -0.0123558 0)
(1.21231 -0.00679008 0)
(1.2106 -0.00133175 0)
(1.20843 0.0039782 0)
(1.20322 -0.0898408 0)
(1.20658 -0.0852579 0)
(1.20953 -0.0804789 0)
(1.21253 -0.0754841 0)
(1.21538 -0.070267 0)
(1.21791 -0.0648479 0)
(1.22008 -0.0592524 0)
(1.22189 -0.0535043 0)
(1.22334 -0.0476274 0)
(1.22439 -0.0416475 0)
(1.22502 -0.0355922 0)
(1.22523 -0.0294908 0)
(1.22499 -0.0233739 0)
(1.22429 -0.0172741 0)
(1.22311 -0.0112259 0)
(1.22145 -0.00526642 0)
(1.21929 0.000564367 0)
(1.21663 0.00622325 0)
(1.21505 -0.0954815 0)
(1.21849 -0.0903551 0)
(1.22144 -0.0850288 0)
(1.22444 -0.0794832 0)
(1.22725 -0.073714 0)
(1.22969 -0.0677459 0)
(1.23172 -0.0616079 0)
(1.23335 -0.0553263 0)
(1.23456 -0.0489273 0)
(1.23533 -0.0424387 0)
(1.23565 -0.0358901 0)
(1.23549 -0.0293122 0)
(1.23485 -0.022737 0)
(1.23371 -0.0161984 0)
(1.23206 -0.00973212 0)
(1.22988 -0.00337668 0)
(1.22718 0.00282706 0)
(1.22395 0.00883369 0)
(1.22716 -0.101082 0)
(1.23062 -0.0953531 0)
(1.23352 -0.0894248 0)
(1.23644 -0.0832784 0)
(1.23913 -0.0769126 0)
(1.24139 -0.0703565 0)
(1.24318 -0.0636425 0)
(1.24452 -0.0567989 0)
(1.24539 -0.0498541 0)
(1.24577 -0.0428376 0)
(1.24565 -0.0357808 0)
(1.24502 -0.0287155 0)
(1.24385 -0.021675 0)
(1.24215 -0.014694 0)
(1.23991 -0.00780936 0)
(1.23711 -0.00106012 0)
(1.23375 0.00551125 0)
(1.22984 0.0118582 0)
(1.22537 0.01793 0)
(1.23943 -0.10655 0)
(1.24282 -0.100154 0)
(1.24555 -0.0935636 0)
(1.24828 -0.0867615 0)
(1.25074 -0.0797516 0)
(1.25269 -0.0725673 0)
(1.2541 -0.0652435 0)
(1.255 -0.0578102 0)
(1.25538 -0.0502975 0)
(1.25523 -0.0427369 0)
(1.25452 -0.0351609 0)
(1.25325 -0.0276026 0)
(1.25142 -0.020096 0)
(1.24901 -0.0126765 0)
(1.24603 -0.00538116 0)
(1.24248 0.00175063 0)
(1.23835 0.00867515 0)
(1.23365 0.0153457 0)
(1.22838 0.0217101 0)
(1.25161 -0.111747 0)
(1.25478 -0.104616 0)
(1.2572 -0.0972966 0)
(1.25958 -0.0897801 0)
(1.26162 -0.0820771 0)
(1.26307 -0.074225 0)
(1.26393 -0.0662598 0)
(1.2642 -0.0582128 0)
(1.26389 -0.0501156 0)
(1.263 -0.0420015 0)
(1.26151 -0.033904 0)
(1.25943 -0.025857 0)
(1.25675 -0.0178948 0)
(1.25347 -0.0100528 0)
(1.24961 -0.0023671 0)
(1.24516 0.00512161 0)
(1.24014 0.0123714 0)
(1.23455 0.0193354 0)
(1.2284 0.0259612 0)
(1.26329 -0.116468 0)
(1.26604 -0.108531 0)
(1.26794 -0.100416 0)
(1.26974 -0.0921261 0)
(1.27111 -0.0836838 0)
(1.27182 -0.0751299 0)
(1.27186 -0.0664993 0)
(1.27126 -0.0578239 0)
(1.27003 -0.0491372 0)
(1.26817 -0.0404737 0)
(1.26568 -0.0318676 0)
(1.26257 -0.0233529 0)
(1.25885 -0.0149635 0)
(1.25454 -0.00673377 0)
(1.24965 0.00130198 0)
(1.2442 0.00910446 0)
)
;

boundaryField
{
    inlet
    {
        type            uniformFixedValue;
        uniformValue    constant (1 0 0);
        value           nonuniform 0();
    }
    outlet
    {
        type            pressureInletOutletVelocity;
        value           nonuniform 0();
    }
    cylinder
    {
        type            fixedValue;
        value           nonuniform 0();
    }
    top
    {
        type            symmetryPlane;
    }
    bottom
    {
        type            symmetryPlane;
    }
    defaultFaces
    {
        type            empty;
    }
    procBoundary4to3
    {
        type            processor;
        value           nonuniform List<vector> 
24
(
(1.07741 -0.00232922 1.62217e-20)
(1.0784 -0.00692173 2.94994e-20)
(1.08029 -0.0114371 -2.11244e-20)
(1.083 -0.0159079 -4.06443e-20)
(1.08648 -0.0203762 8.07922e-20)
(1.09069 -0.024871 -6.55914e-20)
(1.09559 -0.0294192 1.63972e-20)
(1.10114 -0.0340426 -9.29416e-20)
(1.10731 -0.0387594 3.03377e-20)
(1.11408 -0.0435846 7.25913e-20)
(1.12141 -0.0485302 -3.7953e-20)
(1.1293 -0.053605 1.2141e-19)
(1.13771 -0.058815 -1.58652e-19)
(1.14661 -0.0641629 1.31176e-19)
(1.15599 -0.0696484 -1.1764e-19)
(1.16583 -0.0752674 -5.62816e-20)
(1.17609 -0.0810118 2.83096e-20)
(1.18677 -0.0868678 1.5042e-19)
(1.19783 -0.0928142 2.7361e-19)
(1.20924 -0.0988172 -4.68932e-19)
(1.22094 -0.104824 -1.05554e-19)
(1.23284 -0.110749 -1.03439e-19)
(1.24475 -0.116461 7.66287e-19)
(1.25634 -0.121756 -9.0983e-19)
)
;
    }
    procBoundary4to5
    {
        type            processor;
        value           nonuniform List<vector> 
21
(
(1.10129 -0.000295785 0)
(1.10237 -0.000862863 0)
(1.10443 -0.00137058 0)
(1.10737 -0.00179846 0)
(1.11113 -0.0021283 0)
(1.11565 -0.0023435 0)
(1.12085 -0.00242854 0)
(1.12668 -0.00236866 0)
(1.13309 -0.00214973 0)
(1.14001 -0.00175855 0)
(1.1474 -0.0011827 0)
(1.1552 -0.000409145 0)
(1.16333 0.000573776 0)
(1.17172 0.00177692 0)
(1.1803 0.00321366 0)
(1.18894 0.00489892 0)
(1.19751 0.0068511 0)
(1.20578 0.00909532 0)
(1.21347 0.0116635 0)
(1.22018 0.0145943 0)
(1.22018 0.0145943 0)
)
;
    }
    procBoundary4to10
    {
        type            processor;
        value           nonuniform List<vector> 
20
(
(1.23819 0.0166337 0)
(1.23164 0.0238444 0)
(1.22457 0.0306848 0)
(1.27382 -0.12042 0)
(1.27585 -0.111621 0)
(1.27693 -0.102647 0)
(1.27784 -0.0935312 0)
(1.27824 -0.0843151 0)
(1.2779 -0.0750396 0)
(1.27682 -0.0657359 0)
(1.27506 -0.0564363 0)
(1.27263 -0.0471757 0)
(1.26955 -0.0379894 0)
(1.26583 -0.0289114 0)
(1.26149 -0.0199746 0)
(1.25657 -0.011211 0)
(1.25108 -0.00265111 0)
(1.24506 0.00566925 0)
(1.23819 0.0166337 0)
(1.23851 0.0137192 0)
)
;
    }
    procBoundary4to11
    {
        type            processor;
        value           nonuniform List<vector> 3((1.22035 0.0236705 0) (1.22255 0.0277102 0) (1.22171 0.0321893 0));
    }
}


// ************************************************************************* //
