/*--------------------------------*- C++ -*----------------------------------*\
  =========                 |
  \\      /  F ield         | OpenFOAM: The Open Source CFD Toolbox
   \\    /   O peration     | Website:  https://openfoam.org
    \\  /    A nd           | Version:  7
     \\/     M anipulation  |
\*---------------------------------------------------------------------------*/
FoamFile
{
    version     2.0;
    format      ascii;
    class       volScalarField;
    location    "156";
    object      p;
}
// * * * * * * * * * * * * * * * * * * * * * * * * * * * * * * * * * * * * * //

dimensions      [0 2 -2 0 0 0 0];

internalField   nonuniform List<scalar> 
12400
(
-0.370596
-0.373401
-0.374999
-0.376041
-0.376874
-0.37759
-0.378275
-0.378977
-0.379699
-0.380404
-0.381029
-0.381505
-0.381786
-0.381888
-0.381954
-0.382315
-0.383591
-0.386767
-0.392822
-0.402317
-0.364294
-0.366845
-0.368229
-0.369022
-0.369528
-0.369826
-0.369996
-0.370091
-0.370125
-0.370086
-0.369957
-0.369746
-0.369522
-0.369471
-0.369956
-0.371575
-0.375205
-0.382023
-0.393142
-0.408553
-0.358621
-0.36086
-0.362005
-0.362544
-0.362732
-0.362633
-0.36232
-0.361849
-0.361247
-0.36053
-0.359723
-0.358905
-0.358252
-0.358092
-0.358983
-0.361725
-0.367395
-0.377231
-0.392561
-0.412241
-0.353525
-0.355418
-0.356309
-0.356596
-0.356478
-0.356004
-0.35524
-0.354243
-0.353055
-0.351716
-0.350298
-0.348941
-0.347913
-0.347659
-0.3489
-0.352566
-0.359904
-0.372037
-0.390668
-0.413183
-0.348941
-0.350474
-0.351111
-0.351151
-0.350743
-0.349917
-0.348728
-0.347239
-0.345504
-0.343592
-0.341613
-0.339766
-0.338399
-0.338026
-0.33954
-0.343869
-0.352482
-0.366167
-0.387282
-0.411238
-0.3448
-0.345982
-0.346372
-0.346179
-0.345495
-0.344336
-0.342745
-0.340788
-0.338536
-0.336083
-0.333577
-0.331269
-0.329588
-0.329019
-0.330671
-0.335489
-0.344972
-0.359423
-0.382306
-0.40656
-0.341028
-0.341895
-0.342058
-0.341646
-0.340703
-0.339225
-0.337248
-0.33484
-0.332087
-0.32911
-0.326094
-0.323327
-0.321276
-0.320575
-0.322217
-0.327232
-0.337289
-0.351822
-0.375826
-0.399517
-0.337569
-0.338173
-0.338138
-0.337525
-0.336337
-0.334553
-0.332199
-0.329347
-0.326098
-0.322603
-0.319079
-0.315857
-0.313436
-0.312515
-0.314072
-0.319052
-0.329451
-0.343553
-0.368175
-0.390683
-0.334383
-0.334789
-0.334589
-0.333795
-0.332376
-0.330296
-0.327567
-0.324273
-0.320529
-0.316514
-0.312481
-0.308799
-0.305998
-0.304804
-0.306213
-0.311001
-0.321582
-0.334938
-0.359864
-0.38074
-0.33145
-0.331732
-0.331404
-0.330448
-0.328809
-0.326437
-0.323342
-0.319605
-0.315365
-0.310829
-0.306286
-0.302143
-0.298957
-0.297468
-0.298704
-0.303224
-0.313886
-0.32639
-0.351423
-0.37044
-0.328774
-0.329005
-0.328586
-0.327486
-0.325638
-0.322981
-0.319523
-0.315349
-0.310618
-0.305568
-0.300525
-0.295933
-0.292381
-0.290611
-0.291684
-0.295954
-0.306621
-0.318353
-0.343186
-0.36037
-0.326386
-0.326635
-0.326156
-0.324927
-0.322878
-0.319943
-0.316131
-0.311534
-0.306331
-0.300791
-0.295279
-0.290276
-0.286401
-0.284402
-0.285359
-0.289472
-0.300048
-0.311243
-0.335187
-0.35077
-0.324342
-0.324662
-0.324147
-0.322798
-0.320558
-0.317355
-0.313206
-0.308213
-0.302575
-0.296592
-0.290667
-0.285318
-0.281198
-0.279059
-0.27997
-0.284052
-0.294385
-0.305265
-0.327288
-0.341305
-0.322723
-0.323145
-0.322606
-0.321144
-0.318721
-0.315263
-0.310806
-0.30546
-0.299444
-0.293089
-0.286835
-0.281236
-0.276973
-0.274799
-0.275734
-0.279867
-0.289725
-0.300291
-0.31937
-0.331288
-0.321624
-0.322153
-0.321589
-0.320016
-0.317422
-0.313722
-0.308999
-0.303358
-0.297042
-0.290408
-0.283931
-0.278196
-0.273899
-0.271786
-0.272767
-0.276908
-0.285982
-0.29585
-0.311365
-0.320458
-0.32115
-0.321761
-0.321157
-0.319471
-0.316728
-0.312785
-0.307858
-0.301993
-0.295467
-0.288662
-0.282076
-0.276317
-0.272077
-0.270061
-0.271018
-0.274959
-0.282847
-0.291358
-0.303148
-0.308761
-0.321402
-0.322042
-0.321369
-0.319553
-0.316635
-0.312564
-0.307451
-0.301434
-0.29479
-0.287918
-0.281329
-0.27563
-0.271481
-0.269513
-0.270255
-0.273636
-0.279851
-0.286368
-0.294509
-0.296556
-0.322468
-0.323058
-0.322276
-0.320316
-0.317241
-0.313042
-0.307809
-0.301712
-0.295035
-0.288183
-0.281663
-0.276056
-0.271958
-0.269884
-0.270109
-0.272483
-0.276536
-0.280639
-0.285176
-0.284125
-0.324412
-0.324855
-0.323914
-0.321786
-0.318557
-0.314241
-0.308932
-0.302811
-0.296164
-0.289386
-0.282958
-0.277412
-0.273242
-0.270819
-0.270172
-0.27109
-0.272638
-0.274104
-0.27487
-0.271616
-0.327268
-0.327458
-0.326296
-0.323969
-0.320574
-0.316144
-0.310782
-0.30467
-0.298083
-0.291391
-0.285027
-0.279443
-0.275009
-0.27194
-0.270078
-0.269171
-0.268125
-0.266886
-0.263697
-0.258676
-0.331041
-0.330869
-0.32942
-0.326851
-0.323263
-0.318708
-0.313294
-0.307196
-0.300665
-0.294027
-0.287645
-0.281867
-0.276931
-0.272912
-0.269553
-0.266602
-0.263092
-0.25926
-0.252891
-0.245768
-0.335711
-0.335075
-0.33327
-0.330409
-0.326586
-0.321878
-0.316391
-0.310285
-0.303773
-0.297116
-0.290585
-0.284414
-0.278719
-0.27348
-0.268433
-0.26339
-0.257633
-0.251427
-0.243072
-0.234305
-0.341249
-0.34005
-0.337824
-0.334612
-0.330507
-0.325603
-0.320006
-0.313846
-0.307283
-0.300493
-0.293643
-0.286851
-0.280146
-0.273477
-0.266657
-0.259612
-0.251862
-0.243742
-0.233851
-0.223838
-0.347613
-0.345778
-0.343064
-0.339443
-0.335002
-0.329854
-0.324094
-0.317812
-0.311096
-0.304021
-0.296643
-0.288989
-0.281053
-0.272823
-0.264245
-0.255366
-0.245922
-0.236241
-0.225191
-0.214418
-0.354779
-0.352242
-0.34898
-0.344898
-0.340068
-0.334623
-0.328637
-0.322142
-0.315134
-0.30758
-0.299439
-0.290687
-0.281347
-0.271504
-0.261256
-0.250756
-0.239887
-0.228959
-0.217032
-0.205629
-0.362731
-0.359435
-0.355579
-0.350989
-0.345724
-0.339927
-0.333636
-0.326806
-0.319328
-0.311064
-0.301909
-0.291847
-0.280989
-0.269553
-0.257771
-0.245864
-0.233809
-0.221866
-0.209245
-0.197364
-0.371462
-0.367361
-0.362873
-0.357741
-0.352001
-0.34579
-0.339095
-0.331772
-0.323604
-0.31437
-0.303953
-0.292411
-0.279986
-0.267028
-0.253864
-0.240745
-0.227697
-0.214919
-0.201752
-0.189464
-0.380973
-0.376028
-0.370882
-0.365182
-0.358928
-0.352232
-0.345003
-0.336989
-0.327873
-0.317397
-0.305495
-0.292354
-0.278367
-0.263987
-0.249594
-0.235431
-0.221544
-0.208068
-0.194457
-0.181832
-0.391262
-0.385438
-0.379618
-0.373334
-0.366524
-0.35925
-0.351324
-0.342379
-0.332031
-0.320045
-0.306475
-0.291674
-0.276171
-0.260484
-0.244998
-0.22993
-0.215327
-0.20126
-0.187291
-0.17438
-0.402312
-0.395583
-0.389082
-0.382199
-0.374779
-0.366808
-0.357979
-0.347829
-0.335956
-0.32222
-0.306852
-0.290381
-0.273435
-0.256552
-0.240093
-0.224236
-0.209013
-0.194444
-0.180183
-0.167032
-0.414086
-0.406434
-0.399249
-0.39175
-0.383649
-0.374825
-0.364851
-0.353198
-0.339516
-0.323835
-0.306597
-0.288484
-0.270181
-0.252209
-0.234881
-0.218328
-0.202566
-0.187569
-0.173077
-0.159726
-0.426514
-0.417931
-0.410067
-0.401925
-0.393046
-0.383177
-0.371782
-0.358322
-0.342578
-0.324812
-0.305681
-0.285986
-0.266419
-0.247455
-0.229346
-0.212179
-0.195949
-0.18059
-0.165918
-0.152406
-0.43949
-0.429983
-0.421446
-0.412621
-0.402835
-0.391692
-0.378579
-0.363019
-0.345008
-0.325078
-0.304079
-0.28288
-0.262143
-0.242276
-0.223467
-0.205758
-0.189121
-0.173463
-0.15866
-0.145023
-0.452869
-0.442459
-0.433254
-0.423687
-0.412834
-0.400159
-0.385024
-0.367104
-0.346682
-0.324564
-0.301758
-0.279147
-0.257335
-0.236648
-0.217211
-0.199028
-0.182044
-0.166148
-0.151259
-0.137533
-0.466463
-0.45519
-0.445319
-0.434928
-0.422817
-0.408331
-0.390883
-0.370394
-0.347479
-0.323205
-0.298679
-0.274758
-0.251962
-0.230537
-0.210545
-0.191953
-0.174682
-0.158607
-0.143678
-0.1299
-0.480046
-0.467965
-0.457425
-0.446106
-0.432519
-0.415937
-0.395918
-0.372711
-0.347287
-0.320931
-0.294795
-0.269673
-0.245989
-0.223905
-0.20343
-0.184496
-0.167
-0.150805
-0.135881
-0.122091
-0.493353
-0.480533
-0.469314
-0.45694
-0.441643
-0.422692
-0.399892
-0.373889
-0.346
-0.317673
-0.290055
-0.263845
-0.23937
-0.216712
-0.195829
-0.176622
-0.158963
-0.142711
-0.127836
-0.114075
-0.506084
-0.492608
-0.48069
-0.467115
-0.44987
-0.428308
-0.402581
-0.373774
-0.343517
-0.313361
-0.2844
-0.257225
-0.23206
-0.208915
-0.187704
-0.168296
-0.150543
-0.134297
-0.119516
-0.10583
-0.517911
-0.503873
-0.491227
-0.476294
-0.456872
-0.432502
-0.403774
-0.372224
-0.339744
-0.307925
-0.277773
-0.24976
-0.224012
-0.200475
-0.17902
-0.159489
-0.141711
-0.125539
-0.1109
-0.0973376
-0.528484
-0.513985
-0.500574
-0.484123
-0.462321
-0.435007
-0.40328
-0.36911
-0.334591
-0.301295
-0.270114
-0.241398
-0.215182
-0.191353
-0.169745
-0.150173
-0.132446
-0.116413
-0.101969
-0.0885891
-0.537442
-0.522587
-0.508368
-0.490246
-0.4659
-0.435578
-0.400928
-0.36432
-0.327976
-0.293406
-0.261367
-0.232091
-0.205528
-0.181515
-0.15985
-0.140323
-0.122725
-0.106901
-0.0927062
-0.0795761
-0.544419
-0.529313
-0.514244
-0.494314
-0.467316
-0.433996
-0.39657
-0.357752
-0.319825
-0.284195
-0.251479
-0.221794
-0.195015
-0.170931
-0.149311
-0.129921
-0.112533
-0.0969876
-0.0830958
-0.0702771
-0.549056
-0.533805
-0.517844
-0.496001
-0.466301
-0.430072
-0.390083
-0.349323
-0.310074
-0.273611
-0.240406
-0.210469
-0.183611
-0.159578
-0.138111
-0.11895
-0.101855
-0.0866627
-0.073131
-0.0606486
-0.551009
-0.535717
-0.518832
-0.495009
-0.462626
-0.423649
-0.381364
-0.338962
-0.29867
-0.261608
-0.228111
-0.198089
-0.171292
-0.147436
-0.126232
-0.107399
-0.0906826
-0.0759245
-0.0628256
-0.0506601
-0.549962
-0.534728
-0.516903
-0.491076
-0.456101
-0.414605
-0.370338
-0.326619
-0.285571
-0.248154
-0.214568
-0.184633
-0.158042
-0.134491
-0.113667
-0.0952603
-0.0790219
-0.0647749
-0.0521797
-0.040387
-0.545632
-0.530552
-0.511788
-0.483988
-0.446578
-0.402852
-0.356955
-0.312259
-0.270753
-0.233226
-0.199757
-0.170084
-0.143851
-0.12074
-0.10042
-0.0825376
-0.0668933
-0.0532395
-0.0411231
-0.0298981
-0.53778
-0.522945
-0.503268
-0.473577
-0.433954
-0.388337
-0.341187
-0.295869
-0.254204
-0.216813
-0.183663
-0.154427
-0.128735
-0.106193
-0.0865154
-0.0692742
-0.0542767
-0.0412903
-0.0297235
-0.0191522
-0.526214
-0.511712
-0.491174
-0.459726
-0.418169
-0.37104
-0.323036
-0.277452
-0.235927
-0.198919
-0.166297
-0.137672
-0.112723
-0.0908969
-0.0719364
-0.0554512
-0.0412006
-0.0289448
-0.0180062
-0.0081469
-0.510796
-0.496712
-0.475392
-0.442373
-0.399209
-0.350976
-0.302522
-0.257028
-0.215935
-0.179574
-0.147705
-0.119912
-0.0957813
-0.0748327
-0.0567218
-0.0410913
-0.0276828
-0.0162277
-0.00598839
0.0031019
-0.491444
-0.47786
-0.455867
-0.421505
-0.3771
-0.328191
-0.279697
-0.234638
-0.194267
-0.15884
-0.12792
-0.101121
-0.0779757
-0.058032
-0.0408989
-0.0262246
-0.0137481
-0.00316502
0.00631002
0.0145702
-0.468136
-0.455129
-0.432599
-0.397161
-0.351913
-0.302769
-0.254635
-0.210357
-0.171039
-0.136715
-0.106972
-0.0813441
-0.0593496
-0.0405391
-0.0245029
-0.010886
0.000572502
0.0102137
0.0188614
0.0262293
-0.440907
-0.428552
-0.405638
-0.369426
-0.323769
-0.274825
-0.227436
-0.184285
-0.146268
-0.113298
-0.0849254
-0.0606418
-0.039953
-0.0224037
-0.00757714
0.00488407
0.0152424
0.0238741
0.0316305
0.0380446
-0.409852
-0.398214
-0.375098
-0.338455
-0.292824
-0.244467
-0.198208
-0.156508
-0.120057
-0.0886694
-0.0618566
-0.0390835
-0.0198456
-0.00368183
0.00982788
0.02104
0.0302199
0.0377767
0.0445756
0.0499746
-0.375117
-0.364261
-0.341174
-0.304501
-0.259165
-0.211793
-0.167097
-0.127152
-0.0925187
-0.0629277
-0.0378546
-0.0167487
0.000902208
0.0155633
0.027655
0.0375302
0.0454595
0.0518803
0.0576552
0.0619771
-0.336883
-0.32691
-0.304134
-0.267784
-0.222764
-0.177089
-0.134275
-0.0963648
-0.0637817
-0.0361841
-0.0130193
0.00627366
0.0222116
0.0352614
0.0458405
0.0542971
0.060911
0.0661446
0.0708341
0.0740182
-0.295365
-0.286431
-0.264162
-0.227864
-0.184524
-0.140581
-0.0999288
-0.0643094
-0.0339877
-0.00856315
0.0125386
0.0298853
0.0439955
0.0553349
0.0643145
0.0712776
0.0765217
0.0805289
0.0840727
0.0860584
-0.25081
-0.243094
-0.221183
-0.185946
-0.144306
-0.102479
-0.0642634
-0.0311602
-0.00329066
0.019799
0.0386987
0.0539796
0.0661597
0.0757003
0.0830021
0.088407
0.0922414
0.0949869
0.0972846
0.0979544
-0.20351
-0.197207
-0.175938
-0.14206
-0.102395
-0.0630181
-0.0274927
0.00289389
0.0281436
0.0487557
0.0653313
0.0784422
0.0886034
0.0962683
0.101826
0.105624
0.108028
0.10946
0.11029
0.109334
-0.154042
-0.149033
-0.128766
-0.0964872
-0.0590981
-0.0224546
0.0101577
0.0376529
0.0601386
0.0781511
0.0922988
0.103152
0.111219
0.116944
0.120705
0.122872
0.123838
0.123863
0.12287
0.119906
-0.102809
-0.0989561
-0.0799801
-0.0495667
-0.0147311
0.0189388
0.0484496
0.0729066
0.0925088
0.107821
0.119457
0.127981
0.133895
0.13763
0.13956
0.140083
0.139593
0.138064
0.13499
0.130512
-0.0500898
-0.0474679
-0.0299575
-0.00165899
0.0303805
0.0608779
0.0871347
0.108437
0.125061
0.137597
0.146655
0.152796
0.156513
0.158223
0.158303
0.157172
0.155166
0.151928
0.146814
0.143432
0.00368329
0.00499762
0.0208964
0.0468639
0.0759042
0.103071
0.125958
0.144018
0.157598
0.167301
0.173739
0.177463
0.178954
0.178622
0.176844
0.17404
0.170441
0.16552
0.159087
0.156094
0.0580538
0.058009
0.0721659
0.0956222
0.121502
0.145221
0.164658
0.179421
0.189915
0.196756
0.20055
0.20184
0.201097
0.198719
0.195087
0.190596
0.185386
0.178926
0.171481
0.168054
0.112563
0.111126
0.123431
0.144233
0.166835
0.187029
0.202972
0.214414
0.221809
0.225781
0.22693
0.225789
0.222818
0.218407
0.21293
0.206752
0.199955
0.192086
0.183704
0.179435
0.166752
0.163906
0.174272
0.192316
0.211565
0.228197
0.240638
0.248765
0.253074
0.254194
0.252718
0.249169
0.243993
0.237575
0.230276
0.22243
0.21409
0.204895
0.195554
0.190246
0.220163
0.215905
0.224271
0.239491
0.255355
0.268431
0.277395
0.282244
0.283507
0.281816
0.277756
0.271838
0.264499
0.256113
0.247028
0.237551
0.227721
0.21726
0.206937
0.200496
0.272345
0.266685
0.27302
0.28539
0.297879
0.307439
0.312987
0.314623
0.312907
0.308469
0.301887
0.293661
0.284215
0.273914
0.263092
0.252033
0.240771
0.229094
0.217784
0.210167
0.322855
0.31582
0.32012
0.329652
0.338816
0.344939
0.347163
0.345681
0.341077
0.33398
0.324958
0.314501
0.303022
0.290875
0.278378
0.265796
0.253165
0.240324
0.228038
0.219234
0.371267
0.362896
0.365184
0.37193
0.377857
0.380659
0.379683
0.375204
0.367829
0.358182
0.346822
0.334229
0.320805
0.306893
0.292797
0.278764
0.264831
0.250885
0.237651
0.227667
0.41717
0.407516
0.407846
0.411893
0.41471
0.414338
0.410314
0.402988
0.39298
0.380913
0.367336
0.352719
0.337454
0.321872
0.306264
0.29086
0.275703
0.260717
0.246573
0.235437
0.460176
0.449305
0.447756
0.449226
0.449095
0.445729
0.438839
0.428837
0.416359
0.402022
0.386367
0.369854
0.352865
0.335721
0.318699
0.302014
0.285717
0.269764
0.254759
0.242515
0.49992
0.487912
0.484588
0.483637
0.480752
0.474601
0.465051
0.45257
0.437803
0.421365
0.403788
0.385521
0.36694
0.348353
0.330026
0.312161
0.294814
0.277974
0.262168
0.248874
0.536064
0.523009
0.518041
0.514854
0.50944
0.50074
0.48876
0.474017
0.457164
0.43881
0.419481
0.399618
0.379587
0.359688
0.340175
0.321238
0.302942
0.285299
0.268759
0.25449
0.568301
0.5543
0.54784
0.542631
0.53494
0.523952
0.509794
0.493025
0.474304
0.454236
0.433341
0.412051
0.390725
0.369655
0.349083
0.32919
0.31005
0.291695
0.274496
0.259342
0.596353
0.58152
0.57374
0.566748
0.557055
0.544061
0.527997
0.509455
0.489101
0.467535
0.445271
0.422735
0.400279
0.378187
0.356693
0.335968
0.316095
0.297123
0.279346
0.26341
0.619978
0.604435
0.595525
0.587011
0.575614
0.560915
0.543233
0.523188
0.501448
0.478612
0.455188
0.431597
0.408184
0.385229
0.362955
0.341527
0.321038
0.301548
0.283281
0.266678
0.638971
0.622846
0.613012
0.603255
0.59047
0.574384
0.555387
0.534119
0.511253
0.487386
0.46302
0.438573
0.414385
0.39073
0.367826
0.345832
0.324846
0.30494
0.286277
0.269133
0.653163
0.636591
0.62605
0.615346
0.601502
0.584361
0.564362
0.542164
0.518442
0.49379
0.468709
0.443612
0.418837
0.394653
0.371271
0.34885
0.327491
0.307274
0.288313
0.270765
0.662421
0.645544
0.634525
0.623179
0.60862
0.590763
0.570085
0.547257
0.522956
0.497774
0.472209
0.446674
0.421504
0.396964
0.373265
0.35056
0.328954
0.308531
0.289375
0.27157
0.666656
0.649618
0.638355
0.626683
0.611757
0.593533
0.572506
0.549354
0.524755
0.4993
0.473489
0.447732
0.422362
0.397645
0.373788
0.350945
0.329221
0.3087
0.289456
0.271547
0.665816
0.648763
0.637494
0.625815
0.610877
0.592638
0.571595
0.548428
0.523816
0.49835
0.472531
0.446769
0.421397
0.396682
0.372831
0.349996
0.328284
0.307774
0.288546
0.270676
0.659891
0.642968
0.631934
0.620568
0.605973
0.588071
0.567347
0.544474
0.520134
0.49492
0.469332
0.443783
0.418608
0.394074
0.370391
0.347712
0.32614
0.305749
0.286635
0.268952
0.648909
0.632262
0.621699
0.610964
0.597065
0.579851
0.559777
0.537508
0.513723
0.48902
0.463902
0.438783
0.414002
0.389829
0.366475
0.344099
0.322796
0.30263
0.283736
0.266388
0.632941
0.616713
0.606851
0.597059
0.584202
0.568022
0.548925
0.527562
0.504614
0.48068
0.456266
0.431792
0.407599
0.383962
0.361099
0.33917
0.318265
0.298434
0.279865
0.262999
0.612097
0.596424
0.587488
0.578939
0.567462
0.552653
0.534852
0.514694
0.492855
0.469941
0.446462
0.422842
0.399429
0.376502
0.354286
0.332947
0.312565
0.293177
0.275034
0.258787
0.586524
0.571539
0.56374
0.556723
0.546949
0.533836
0.517642
0.498976
0.478513
0.456863
0.434542
0.411981
0.389533
0.367484
0.346067
0.325456
0.305722
0.286881
0.269259
0.253757
0.55641
0.542237
0.535772
0.530558
0.522795
0.51169
0.497399
0.480502
0.46167
0.441519
0.420571
0.399265
0.377961
0.356952
0.336482
0.316734
0.297767
0.279574
0.262564
0.247921
0.521976
0.508732
0.503782
0.500621
0.495158
0.486354
0.474248
0.459383
0.442426
0.423996
0.404627
0.384764
0.364775
0.344961
0.325579
0.30682
0.288736
0.271292
0.254978
0.241296
0.48348
0.47127
0.467998
0.467117
0.46422
0.45799
0.448334
0.435747
0.420894
0.404398
0.3868
0.368556
0.350043
0.331573
0.313411
0.295764
0.278672
0.262072
0.246533
0.233899
0.441213
0.430132
0.428679
0.430279
0.430187
0.426783
0.419819
0.409741
0.397203
0.382836
0.367191
0.350732
0.333846
0.316856
0.300041
0.283619
0.267624
0.251958
0.237264
0.225754
0.395494
0.385627
0.386109
0.390361
0.393287
0.392933
0.388884
0.381524
0.371496
0.359439
0.345911
0.33139
0.316271
0.300888
0.285535
0.270444
0.255644
0.240997
0.227212
0.216884
0.346674
0.338091
0.340599
0.347645
0.353768
0.356663
0.355725
0.35127
0.343929
0.334343
0.323083
0.310637
0.297412
0.283752
0.269967
0.256306
0.24279
0.229242
0.216419
0.207317
0.295127
0.287886
0.292486
0.30243
0.311898
0.318209
0.320553
0.319168
0.314666
0.307695
0.298837
0.288588
0.27737
0.265539
0.253416
0.241272
0.229124
0.216747
0.204931
0.197083
0.241249
0.235394
0.242124
0.255038
0.26796
0.277823
0.283592
0.285415
0.283885
0.279653
0.27331
0.265367
0.256255
0.246342
0.235967
0.225418
0.214715
0.203572
0.192795
0.186212
0.185457
0.181018
0.189886
0.205803
0.222254
0.23577
0.245076
0.25022
0.25177
0.250378
0.246647
0.241099
0.234179
0.226263
0.217706
0.208822
0.199633
0.189785
0.180062
0.174733
0.128182
0.125175
0.136163
0.155077
0.175091
0.192324
0.205248
0.213799
0.218512
0.220042
0.219
0.21592
0.211258
0.205404
0.198724
0.191562
0.183953
0.175457
0.166786
0.162671
0.0698691
0.0682957
0.0813557
0.103223
0.126791
0.14777
0.164361
0.176375
0.184311
0.18882
0.190522
0.189964
0.187615
0.183873
0.179116
0.17372
0.167754
0.160679
0.153039
0.150042
0.0109701
0.0108172
0.025874
0.0506101
0.0776839
0.102398
0.122672
0.138176
0.149366
0.156888
0.16137
0.163371
0.163371
0.161778
0.158977
0.155376
0.151108
0.145549
0.138917
0.136824
-0.0480584
-0.0468191
-0.0298664
-0.00238363
0.0281036
0.0565033
0.0804388
0.0994317
0.113882
0.124428
0.131705
0.136281
0.138651
0.139231
0.138406
0.136606
0.134069
0.130177
0.124636
0.122981
-0.106759
-0.104173
-0.0854477
-0.0553789
-0.0216135
0.0103809
0.0379241
0.0603722
0.0780621
0.0916202
0.101685
0.108836
0.113579
0.116342
0.117506
0.117503
0.116683
0.114627
0.110527
0.108316
-0.164677
-0.160811
-0.140453
-0.107997
-0.0711317
-0.0356734
-0.00461263
0.0212272
0.0421098
0.0586435
0.0714694
0.0811745
0.0882768
0.0932172
0.0963759
0.0981584
0.0989732
0.0987771
0.0969364
0.0933367
-0.221355
-0.21631
-0.194472
-0.159863
-0.120118
-0.0813676
-0.0469149
-0.0177771
0.00622457
0.0256749
0.041214
0.0534354
0.0628664
0.0699623
0.0751083
0.0786768
0.0810719
0.0825677
0.0830513
0.0812469
-0.276383
-0.27023
-0.247107
-0.210613
-0.168248
-0.126416
-0.0887319
-0.0564199
-0.0293984
-0.00711349
0.0110713
0.0257531
0.0374669
0.0466807
0.0537917
0.0591506
0.0631241
0.0661675
0.0686841
0.0692147
-0.329607
-0.322026
-0.297995
-0.259898
-0.215205
-0.17054
-0.12982
-0.0944876
-0.0645707
-0.0395548
-0.0188117
-0.00174217
0.0121937
0.0234741
0.0325105
0.0396473
0.0452107
0.0497174
0.0538722
0.0562441
-0.380392
-0.371442
-0.346867
-0.307391
-0.260688
-0.213475
-0.169948
-0.131776
-0.099112
-0.0714897
-0.0482938
-0.0289258
-0.0128428
0.000439897
0.0113465
0.0202246
0.0273701
0.0332985
0.0388557
0.0427154
-0.428302
-0.418208
-0.393224
-0.352846
-0.304417
-0.254963
-0.208893
-0.168092
-0.132852
-0.102767
-0.0772416
-0.0556798
-0.0375385
-0.0223294
-0.00961963
0.000945051
0.00964334
0.0169688
0.0238317
0.0290608
-0.473066
-0.461999
-0.436592
-0.396003
-0.346149
-0.294759
-0.246451
-0.203256
-0.16563
-0.133246
-0.10553
-0.0818937
-0.0617954
-0.0447467
-0.0303097
-0.018123
-0.00791636
0.000777064
0.00889296
0.0154347
-0.514442
-0.502546
-0.476927
-0.436127
-0.385817
-0.332632
-0.282437
-0.237099
-0.1973
-0.162796
-0.133043
-0.107465
-0.0855227
-0.0667308
-0.0506498
-0.0369125
-0.0252523
-0.0152331
-0.00591898
0.00187827
-0.552217
-0.539594
-0.514023
-0.473324
-0.422582
-0.368616
-0.316688
-0.269467
-0.227728
-0.1913
-0.159677
-0.132299
-0.108637
-0.0882073
-0.0705727
-0.0553621
-0.0423107
-0.0310176
-0.0205651
-0.0115694
-0.586221
-0.572945
-0.547651
-0.507461
-0.456705
-0.402152
-0.349016
-0.300217
-0.256798
-0.218651
-0.185336
-0.156314
-0.131063
-0.109109
-0.0900174
-0.0734164
-0.0590418
-0.0465308
-0.0349981
-0.0248586
-0.616322
-0.602462
-0.57764
-0.538317
-0.488015
-0.43322
-0.379263
-0.329223
-0.284404
-0.244756
-0.209938
-0.179435
-0.152735
-0.129375
-0.10893
-0.0910259
-0.0753998
-0.0617282
-0.0491698
-0.0379415
-0.642435
-0.628067
-0.60388
-0.565733
-0.516324
-0.46174
-0.407352
-0.356444
-0.310425
-0.269536
-0.233415
-0.2016
-0.173597
-0.148955
-0.127262
-0.108146
-0.0913437
-0.0765704
-0.0630388
-0.0507772
-0.66453
-0.649734
-0.626323
-0.589625
-0.541519
-0.487604
-0.433192
-0.381748
-0.334867
-0.292933
-0.25571
-0.222756
-0.193602
-0.167801
-0.144976
-0.12474
-0.106837
-0.0910237
-0.076571
-0.0633307
-0.682634
-0.667493
-0.644972
-0.609964
-0.563538
-0.510733
-0.456713
-0.405081
-0.357642
-0.314929
-0.276801
-0.242861
-0.212717
-0.185877
-0.162042
-0.140773
-0.12185
-0.105059
-0.0897391
-0.0755711
-0.696831
-0.681428
-0.659884
-0.626762
-0.582359
-0.531087
-0.477874
-0.426413
-0.378713
-0.33547
-0.296653
-0.261929
-0.230903
-0.203153
-0.178435
-0.156217
-0.136357
-0.118651
-0.102523
-0.0874703
-0.707259
-0.691679
-0.671171
-0.640083
-0.598
-0.548655
-0.496659
-0.445733
-0.398067
-0.35454
-0.31524
-0.279907
-0.248178
-0.219682
-0.194095
-0.171053
-0.150343
-0.131774
-0.114902
-0.0990083
-0.714106
-0.698438
-0.678996
-0.650037
-0.610516
-0.563458
-0.513072
-0.46304
-0.415711
-0.372144
-0.332564
-0.296793
-0.264513
-0.235382
-0.209076
-0.185299
-0.163794
-0.144406
-0.12684
-0.110192
-0.717606
-0.70194
-0.683571
-0.656786
-0.620007
-0.575546
-0.52714
-0.478356
-0.431663
-0.388303
-0.348644
-0.312601
-0.279909
-0.250261
-0.223359
-0.198929
-0.176714
-0.156567
-0.138256
-0.121075
-0.718032
-0.702463
-0.685152
-0.660535
-0.626611
-0.585004
-0.538914
-0.491717
-0.445958
-0.403048
-0.363509
-0.327357
-0.294391
-0.264342
-0.236942
-0.211938
-0.189091
-0.168252
-0.149251
-0.131505
-0.71569
-0.700315
-0.684033
-0.661529
-0.630506
-0.591947
-0.548469
-0.50318
-0.458644
-0.416423
-0.377198
-0.341096
-0.307988
-0.277649
-0.249842
-0.22434
-0.200927
-0.179461
-0.15982
-0.141461
-0.710913
-0.695829
-0.680534
-0.660051
-0.631908
-0.596519
-0.5559
-0.512814
-0.469779
-0.428483
-0.38976
-0.353862
-0.320737
-0.290212
-0.262084
-0.236155
-0.212234
-0.19019
-0.169944
-0.150988
-0.704046
-0.68935
-0.674997
-0.65641
-0.631063
-0.598895
-0.561324
-0.520703
-0.479436
-0.439293
-0.401255
-0.365706
-0.332683
-0.302069
-0.273699
-0.247407
-0.223028
-0.200444
-0.179617
-0.160108
-0.695442
-0.68123
-0.667771
-0.650933
-0.628246
-0.599276
-0.564877
-0.526945
-0.487693
-0.448924
-0.411752
-0.376693
-0.343882
-0.313266
-0.284725
-0.258125
-0.233332
-0.210239
-0.18885
-0.168819
-0.68545
-0.671812
-0.659204
-0.643956
-0.623748
-0.597885
-0.566714
-0.531649
-0.494637
-0.457456
-0.421326
-0.386891
-0.354395
-0.323858
-0.295207
-0.268345
-0.243171
-0.219596
-0.197653
-0.177115
-0.674409
-0.66143
-0.649632
-0.635816
-0.617875
-0.594964
-0.567008
-0.534933
-0.500359
-0.464971
-0.430055
-0.396378
-0.364295
-0.333906
-0.305197
-0.27811
-0.25258
-0.22854
-0.206043
-0.184998
-0.662636
-0.65039
-0.639371
-0.626833
-0.610932
-0.590769
-0.565945
-0.536926
-0.504956
-0.471553
-0.438022
-0.405233
-0.373655
-0.34348
-0.314754
-0.287467
-0.261595
-0.237096
-0.214035
-0.192473
-0.650425
-0.638975
-0.628708
-0.617308
-0.603215
-0.58556
-0.563724
-0.537766
-0.508526
-0.477287
-0.445309
-0.413541
-0.38256
-0.352655
-0.323944
-0.296471
-0.270257
-0.245296
-0.221651
-0.19955
-0.638038
-0.627432
-0.617898
-0.60751
-0.595003
-0.579597
-0.560553
-0.537599
-0.511171
-0.482253
-0.451998
-0.421386
-0.391094
-0.361512
-0.332841
-0.305184
-0.278615
-0.253173
-0.228913
-0.206237
-0.625705
-0.615973
-0.607155
-0.597676
-0.586547
-0.573127
-0.556643
-0.536578
-0.512994
-0.486534
-0.458165
-0.428852
-0.399344
-0.370137
-0.341522
-0.313673
-0.286722
-0.260766
-0.235846
-0.212544
-0.613618
-0.604775
-0.596657
-0.587998
-0.578067
-0.566378
-0.552199
-0.534863
-0.514104
-0.490205
-0.463882
-0.436017
-0.407399
-0.37862
-0.350072
-0.322012
-0.294635
-0.268117
-0.242475
-0.218482
-0.601939
-0.59398
-0.586546
-0.578635
-0.569745
-0.559554
-0.547422
-0.532615
-0.514612
-0.493341
-0.469214
-0.442953
-0.415344
-0.387053
-0.358581
-0.33028
-0.30242
-0.275271
-0.248829
-0.224061
-0.590798
-0.583699
-0.576925
-0.569703
-0.561726
-0.552828
-0.542494
-0.529994
-0.514633
-0.496016
-0.474215
-0.449724
-0.423256
-0.395528
-0.367141
-0.338562
-0.310147
-0.282277
-0.254937
-0.229288
-0.580293
-0.574012
-0.56787
-0.561288
-0.554119
-0.546341
-0.537577
-0.527157
-0.514286
-0.498303
-0.478934
-0.456378
-0.431204
-0.40413
-0.375849
-0.34695
-0.317891
-0.289191
-0.260827
-0.234169
-0.570498
-0.564975
-0.559431
-0.553445
-0.547004
-0.540204
-0.532812
-0.524248
-0.513689
-0.500278
-0.48341
-0.46295
-0.439239
-0.412936
-0.384796
-0.355538
-0.325735
-0.296071
-0.26653
-0.238707
-0.561461
-0.556619
-0.551633
-0.546207
-0.540432
-0.534503
-0.528313
-0.521398
-0.51296
-0.502015
-0.487679
-0.469455
-0.447392
-0.422006
-0.394069
-0.364422
-0.333767
-0.302982
-0.272074
-0.242898
-0.5532
-0.548952
-0.544479
-0.539584
-0.534432
-0.529293
-0.524174
-0.518724
-0.51221
-0.503592
-0.491767
-0.475894
-0.455667
-0.431376
-0.403736
-0.373694
-0.342079
-0.309997
-0.277493
-0.246721
-0.545708
-0.541959
-0.537955
-0.533565
-0.52901
-0.52461
-0.52046
-0.516318
-0.511537
-0.505082
-0.4957
-0.482247
-0.464036
-0.441044
-0.413843
-0.383432
-0.350767
-0.317196
-0.282814
-0.25017
-0.538943
-0.535597
-0.532019
-0.52812
-0.524147
-0.520458
-0.517208
-0.514247
-0.511023
-0.506548
-0.499495
-0.48848
-0.472438
-0.450967
-0.424393
-0.393694
-0.359917
-0.324685
-0.288108
-0.253142
-0.532829
-0.529797
-0.526607
-0.523189
-0.5198
-0.516812
-0.51442
-0.512544
-0.510721
-0.508038
-0.503162
-0.494542
-0.480779
-0.461053
-0.435339
-0.404497
-0.369611
-0.332562
-0.293484
-0.255807
-0.527257
-0.524462
-0.521631
-0.518692
-0.515892
-0.513612
-0.512059
-0.511199
-0.510646
-0.509575
-0.506694
-0.500371
-0.488936
-0.471154
-0.446568
-0.415801
-0.37988
-0.341004
-0.299184
-0.257904
-0.522085
-0.51947
-0.516978
-0.51452
-0.512332
-0.510763
-0.510041
-0.51015
-0.510762
-0.511138
-0.510062
-0.505889
-0.496765
-0.481079
-0.457897
-0.427486
-0.390728
-0.349954
-0.306228
-0.261372
-0.517152
-0.514684
-0.512519
-0.510544
-0.50897
-0.508133
-0.508239
-0.509283
-0.510978
-0.512659
-0.5132
-0.510998
-0.504102
-0.490598
-0.469078
-0.439339
-0.402088
-0.359461
-0.314378
-0.265541
-0.512279
-0.509952
-0.508111
-0.506624
-0.50567
-0.505565
-0.50649
-0.508438
-0.511146
-0.514009
-0.515994
-0.515573
-0.510771
-0.499458
-0.479809
-0.451065
-0.413719
-0.369321
-0.322496
-0.269868
-0.507291
-0.505122
-0.503611
-0.502609
-0.502272
-0.502886
-0.504608
-0.507418
-0.511069
-0.515007
-0.51828
-0.519451
-0.516575
-0.507396
-0.489752
-0.462299
-0.425247
-0.379284
-0.330358
-0.273822
-0.502021
-0.500052
-0.498879
-0.498355
-0.498615
-0.499916
-0.502391
-0.506006
-0.510523
-0.51543
-0.519848
-0.522431
-0.521301
-0.514142
-0.498558
-0.472649
-0.436275
-0.389116
-0.338162
-0.27747
-0.496327
-0.494612
-0.493791
-0.493728
-0.49455
-0.496488
-0.499648
-0.503987
-0.509275
-0.515037
-0.520459
-0.524283
-0.52471
-0.519427
-0.505886
-0.481723
-0.446414
-0.398563
-0.34604
-0.281092
-0.490096
-0.488701
-0.488241
-0.488615
-0.489949
-0.492449
-0.496205
-0.501163
-0.507106
-0.513592
-0.519868
-0.524759
-0.526554
-0.522978
-0.511412
-0.489144
-0.45527
-0.407335
-0.353939
-0.2849
-0.483255
-0.482245
-0.482152
-0.482929
-0.48471
-0.487682
-0.49192
-0.497371
-0.503829
-0.510888
-0.517854
-0.523628
-0.52659
-0.524539
-0.514838
-0.494561
-0.462444
-0.415132
-0.361666
-0.289053
-0.475773
-0.475209
-0.475482
-0.476617
-0.478768
-0.482106
-0.486699
-0.492496
-0.49931
-0.50677
-0.51424
-0.520695
-0.52461
-0.52388
-0.515903
-0.497666
-0.467566
-0.42166
-0.368948
-0.293745
-0.467664
-0.467593
-0.468221
-0.469661
-0.472097
-0.475687
-0.480494
-0.486483
-0.493478
-0.50115
-0.508917
-0.515831
-0.520464
-0.52083
-0.514408
-0.498212
-0.470329
-0.426633
-0.375504
-0.299222
-0.458987
-0.459436
-0.460398
-0.462085
-0.464716
-0.46844
-0.473323
-0.479335
-0.486331
-0.494016
-0.501858
-0.508988
-0.514087
-0.515306
-0.510245
-0.496037
-0.470529
-0.429747
-0.381123
-0.305716