0.196868 	0.467027 	-1.99081e-18 	0.30214
0.199422 	0.473085 	-1.24496e-18 	0.299982
0.201397 	0.477771 	-8.97388e-19 	0.298163
0.204769 	0.485771 	-1.30994e-18 	0.296399
0.208372 	0.494318 	-1.27296e-18 	0.295019
0.210348 	0.499004 	-1.04187e-18 	0.293921
