/*--------------------------------*- C++ -*----------------------------------*\
  =========                 |
  \\      /  F ield         | OpenFOAM: The Open Source CFD Toolbox
   \\    /   O peration     | Website:  https://openfoam.org
    \\  /    A nd           | Version:  7
     \\/     M anipulation  |
\*---------------------------------------------------------------------------*/
FoamFile
{
    version     2.0;
    format      ascii;
    class       volVectorField;
    location    "2";
    object      U;
}
// * * * * * * * * * * * * * * * * * * * * * * * * * * * * * * * * * * * * * //

dimensions      [0 1 -1 0 0 0 0];

internalField   nonuniform List<vector> 
435
(
(1.16107 -0.0309043 0)
(1.15645 -0.0403483 0)
(1.15099 -0.0494766 0)
(1.14448 -0.0581274 0)
(1.13696 -0.0661348 0)
(1.12856 -0.0733437 0)
(1.11938 -0.0796087 0)
(1.10956 -0.0847968 0)
(1.09925 -0.0887959 0)
(1.08866 -0.0915236 0)
(1.07797 -0.092937 0)
(1.06741 -0.0930411 0)
(1.0572 -0.0918941 0)
(1.04751 -0.0896041 0)
(1.03853 -0.0863188 0)
(1.03037 -0.0822103 0)
(1.02311 -0.0774606 0)
(1.15575 -0.00894051 0)
(1.15342 -0.0176581 0)
(1.14994 -0.0262663 0)
(1.146 -0.0347202 0)
(1.14132 -0.0429313 0)
(1.13572 -0.0507627 0)
(1.12922 -0.0580712 0)
(1.12193 -0.0647215 0)
(1.11391 -0.070585 0)
(1.10529 -0.0755418 0)
(1.0962 -0.0794876 0)
(1.08678 -0.0823415 0)
(1.07721 -0.0840545 0)
(1.06768 -0.0846167 0)
(1.05836 -0.0840626 0)
(1.04944 -0.0824696 0)
(1.04107 -0.0799502 0)
(1.03336 -0.0766407 0)
(1.0264 -0.07269 0)
(1.14447 -0.00677981 0)
(1.14252 -0.0145183 0)
(1.13956 -0.0221852 0)
(1.1362 -0.0297417 0)
(1.13221 -0.0371147 0)
(1.1274 -0.0441884 0)
(1.1218 -0.0508404 0)
(1.11548 -0.0569531 0)
(1.1085 -0.0624134 0)
(1.10096 -0.067114 0)
(1.09295 -0.070959 0)
(1.08461 -0.0738706 0)
(1.07607 -0.0757966 0)
(1.0675 -0.0767166 0)
(1.05905 -0.076647 0)
(1.05087 -0.0756402 0)
(1.0431 -0.0737796 0)
(1.03586 -0.0711711 0)
(1.02924 -0.0679346 0)
(1.13406 -0.00491351 0)
(1.13243 -0.0117781 0)
(1.12993 -0.0185998 0)
(1.12708 -0.025346 0)
(1.12366 -0.0319558 0)
(1.11955 -0.0383324 0)
(1.11473 -0.0443713 0)
(1.10926 -0.049971 0)
(1.10321 -0.0550325 0)
(1.09662 -0.0594604 0)
(1.08959 -0.0631676 0)
(1.08222 -0.0660806 0)
(1.07463 -0.0681462 0)
(1.06695 -0.0693371 0)
(1.05931 -0.0696557 0)
(1.05185 -0.069135 0)
(1.04468 -0.0678346 0)
(1.03793 -0.0658349 0)
(1.03167 -0.0632304 0)
(1.12448 -0.0033071 0)
(1.12313 -0.00939271 0)
(1.12101 -0.0154572 0)
(1.11859 -0.021473 0)
(1.11569 -0.0273901 0)
(1.11217 -0.0331275 0)
(1.10803 -0.0385965 0)
(1.10332 -0.0437099 0)
(1.09807 -0.0483816 0)
(1.09234 -0.0525274 0)
(1.08618 -0.0560688 0)
(1.07969 -0.0589375 0)
(1.07296 -0.0610812 0)
(1.0661 -0.062468 0)
(1.05921 -0.0630906 0)
(1.05243 -0.0629666 0)
(1.04586 -0.0621367 0)
(1.03959 -0.0606598 0)
(1.0337 -0.0586091 0)
(1.11568 -0.00193235 0)
(1.11455 -0.00732401 0)
(1.11278 -0.0127107 0)
(1.11073 -0.0180693 0)
(1.10826 -0.0233586 0)
(1.10526 -0.0285114 0)
(1.10171 -0.0334525 0)
(1.09766 -0.0381075 0)
(1.09312 -0.0424019 0)
(1.08814 -0.0462618 0)
(1.08276 -0.0496171 0)
(1.07706 -0.0524053 0)
(1.07111 -0.054576 0)
(1.06499 -0.0560952 0)
(1.05882 -0.0569486 0)
(1.05268 -0.0571421 0)
(1.04667 -0.0567014 0)
(1.04088 -0.0556682 0)
(1.03538 -0.0540975 0)
(1.10759 -0.000765602 0)
(1.10666 -0.00553906 0)
(1.10517 -0.0103192 0)
(1.10345 -0.0150867 0)
(1.10136 -0.0198079 0)
(1.09881 -0.0244269 0)
(1.09578 -0.0288806 0)
(1.09229 -0.0331054 0)
(1.08838 -0.0370374 0)
(1.08406 -0.0406121 0)
(1.07938 -0.0437675 0)
(1.07438 -0.046447 0)
(1.06913 -0.048603 0)
(1.0637 -0.050201 0)
(1.05817 -0.051222 0)
(1.05263 -0.0516635 0)
(1.04716 -0.0515395 0)
(1.04183 -0.0508776 0)
(1.03673 -0.0497181 0)
(1.10016 0.00021387 0)
(1.09941 -0.00400876 0)
(1.09817 -0.00824621 0)
(1.09673 -0.0124823 0)
(1.09496 -0.0166896 0)
(1.0928 -0.020822 0)
(1.09022 -0.0248264 0)
(1.08723 -0.0286491 0)
(1.08386 -0.0322352 0)
(1.08013 -0.035529 0)
(1.07605 -0.0384759 0)
(1.07168 -0.0410252 0)
(1.06706 -0.0431329 0)
(1.06225 -0.044765 0)
(1.05732 -0.0458997 0)
(1.05234 -0.0465287 0)
(1.04738 -0.0466568 0)
(1.0425 -0.046301 0)
(1.03778 -0.0454892 0)
(1.09336 0.00102171 0)
(1.09276 -0.00270904 0)
(1.09174 -0.00646014 0)
(1.09053 -0.010218 0)
(1.08905 -0.0139605 0)
(1.08722 -0.0176493 0)
(1.08502 -0.0212403 0)
(1.08247 -0.024688 0)
(1.07958 -0.0279457 0)
(1.07635 -0.0309654 0)
(1.07282 -0.0336996 0)
(1.069 -0.036103 0)
(1.06495 -0.0381357 0)
(1.0607 -0.0397649 0)
(1.05631 -0.0409677 0)
(1.05184 -0.0417317 0)
(1.04736 -0.0420552 0)
(1.04291 -0.0419468 0)
(1.03856 -0.0414246 0)
(1.08714 0.0016726 0)
(1.08666 -0.00161823 0)
(1.08583 -0.00493274 0)
(1.08483 -0.0082599 0)
(1.08359 -0.0115815 0)
(1.08205 -0.0148661 0)
(1.08019 -0.0180769 0)
(1.07801 -0.0211756 0)
(1.07553 -0.0241226 0)
(1.07275 -0.0268769 0)
(1.06969 -0.0293973 0)
(1.06637 -0.0316439 0)
(1.06282 -0.0335807 0)
(1.05907 -0.0351769 0)
(1.05518 -0.0364095 0)
(1.05118 -0.0372636 0)
(1.04714 -0.0377329 0)
(1.04309 -0.0378196 0)
(1.0391 -0.0375343 0)
(1.08146 0.00218065 0)
(1.08109 -0.000716423 0)
(1.08042 -0.00363873 0)
(1.0796 -0.00657733 0)
(1.07857 -0.00951754 0)
(1.07727 -0.0124335 0)
(1.0757 -0.0152946 0)
(1.07385 -0.0180688 0)
(1.07173 -0.0207228 0)
(1.06935 -0.0232216 0)
(1.0667 -0.0255297 0)
(1.06381 -0.0276123 0)
(1.06071 -0.0294372 0)
(1.05741 -0.0309762 0)
(1.05396 -0.0322067 0)
(1.0504 -0.0331125 0)
(1.04676 -0.0336846 0)
(1.04309 -0.0339204 0)
(1.03944 -0.0338247 0)
(1.07629 0.00255632 0)
(1.07601 1.33907e-05 0)
(1.07548 -0.00255572 0)
(1.07481 -0.00514319 0)
(1.07396 -0.0077371 0)
(1.07288 -0.0103163 0)
(1.07156 -0.0128557 0)
(1.06999 -0.0153284 0)
(1.06819 -0.0177063 0)
(1.06614 -0.0199601 0)
(1.06385 -0.0220592 0)
(1.06135 -0.0239735 0)
(1.05864 -0.0256746 0)
(1.05574 -0.0271369 0)
(1.05269 -0.028339 0)
(1.04952 -0.0292644 0)
(1.04625 -0.0299021 0)
(1.04294 -0.0302466 0)
(1.03961 -0.0302982 0)
(1.07159 0.00280887 0)
(1.07139 0.00058514 0)
(1.07098 -0.00166443 0)
(1.07045 -0.00393335 0)
(1.06975 -0.00621192 0)
(1.06886 -0.00848294 0)
(1.06775 -0.0107256 0)
(1.06643 -0.0129178 0)
(1.06489 -0.015036 0)
(1.06314 -0.0170553 0)
(1.06117 -0.01895 0)
(1.059 -0.0206941 0)
(1.05663 -0.0222628 0)
(1.05409 -0.0236331 0)
(1.0514 -0.0247852 0)
(1.04858 -0.025703 0)
(1.04565 -0.0263746 0)
(1.04266 -0.0267927 0)
(1.03962 -0.0269543 0)
(1.06734 0.00294673 0)
(1.06722 0.00101178 0)
(1.06691 -0.000947489 0)
(1.06649 -0.00292613 0)
(1.06593 -0.00491643 0)
(1.06519 -0.00690435 0)
(1.06427 -0.00887282 0)
(1.06316 -0.0108035 0)
(1.06185 -0.012677 0)
(1.06035 -0.0144724 0)
(1.05866 -0.016168 0)
(1.05678 -0.0177416 0)
(1.05472 -0.0191716 0)
(1.05249 -0.020438 0)
(1.05011 -0.0215226 0)
(1.0476 -0.0224103 0)
(1.04499 -0.023089 0)
(1.04228 -0.0235501 0)
(1.03953 -0.023789 0)
(1.06353 0.00297841 0)
(1.06346 0.00130656 0)
(1.06324 -0.000388076 0)
(1.06292 -0.00210128 0)
(1.06247 -0.00382699 0)
(1.06187 -0.00555391 0)
(1.06111 -0.00726808 0)
(1.06018 -0.00895448 0)
(1.05907 -0.010597 0)
(1.05779 -0.0121784 0)
(1.05634 -0.0136804 0)
(1.05471 -0.0150843 0)
(1.05291 -0.0163716 0)
(1.05096 -0.0175248 0)
(1.04886 -0.0185279 0)
(1.04663 -0.0193667 0)
(1.04428 -0.0200296 0)
(1.04184 -0.0205077 0)
(1.03934 -0.0207952 0)
(1.06012 0.00291122 0)
(1.06011 0.00148048 0)
(1.05997 2.89609e-05 0)
(1.05973 -0.00144016 0)
(1.05938 -0.00292182 0)
(1.0589 -0.0044069 0)
(1.05827 -0.00588415 0)
(1.05749 -0.00734134 0)
(1.05655 -0.0087653 0)
(1.05546 -0.0101418 0)
(1.05421 -0.0114557 0)
(1.0528 -0.0126915 0)
(1.05123 -0.0138334 0)
(1.04951 -0.0148663 0)
(1.04766 -0.0157764 0)
(1.04567 -0.0165508 0)
(1.04357 -0.0171788 0)
(1.04136 -0.0176517 0)
(1.03908 -0.0179629 0)
(1.05713 0.00275189 0)
(1.05716 0.0015436 0)
(1.05708 0.00031679 0)
(1.05692 -0.000926026 0)
(1.05665 -0.00218081 0)
(1.05626 -0.00344029 0)
(1.05574 -0.00469544 0)
(1.05509 -0.00593644 0)
(1.0543 -0.00715261 0)
(1.05337 -0.00833238 0)
(1.05229 -0.00946339 0)
(1.05106 -0.0105327 0)
(1.04969 -0.0115274 0)
(1.04818 -0.0124347 0)
(1.04653 -0.0132425 0)
(1.04476 -0.0139398 0)
(1.04286 -0.0145169 0)
(1.04087 -0.0149655 0)
(1.03879 -0.0152792 0)
(1.05453 0.00250742 0)
(1.0546 0.00150617 0)
(1.05457 0.0004888 0)
(1.05447 -0.000542402 0)
(1.05427 -0.00158451 0)
(1.05396 -0.00263186 0)
(1.05354 -0.0036773 0)
(1.053 -0.00471302 0)
(1.05233 -0.00573052 0)
(1.05153 -0.00672054 0)
(1.05059 -0.00767312 0)
(1.04952 -0.00857783 0)
(1.04832 -0.00942404 0)
(1.04697 -0.0102012 0)
(1.0455 -0.0108994 0)
(1.04391 -0.011509 0)
(1.0422 -0.0120217 0)
(1.04038 -0.01243 0)
(1.03847 -0.012728 0)
(1.05232 0.00218525 0)
(1.05243 0.00137884 0)
(1.05244 0.000558976 0)
(1.05239 -0.000272604 0)
(1.05224 -0.00111361 0)
(1.052 -0.00195972 0)
(1.05166 -0.00280542 0)
(1.05121 -0.00364466 0)
(1.05063 -0.00447082 0)
(1.04994 -0.00527669 0)
(1.04913 -0.00605445 0)
(1.04819 -0.00679588 0)
(1.04712 -0.00749255 0)
(1.04592 -0.00813604 0)
(1.04459 -0.00871821 0)
(1.04315 -0.00923135 0)
(1.04159 -0.00966837 0)
(1.03993 -0.010023 0)
(1.03817 -0.0102899 0)
(1.05052 0.00179267 0)
(1.05065 0.00117186 0)
(1.0507 0.000540365 0)
(1.05068 -0.000100516 0)
(1.05058 -0.000749022 0)
(1.0504 -0.00140202 0)
(1.05011 -0.00205542 0)
(1.04973 -0.00270471 0)
(1.04924 -0.00334493 0)
(1.04863 -0.00397068 0)
(1.04791 -0.00457607 0)
(1.04707 -0.00515491 0)
(1.04611 -0.00570078 0)
(1.04503 -0.00620728 0)
(1.04382 -0.00666814 0)
(1.0425 -0.00707734 0)
(1.04107 -0.0074293 0)
(1.03952 -0.00771893 0)
(1.03788 -0.0079419 0)
(1.04913 0.001339 0)
(1.04928 0.000897467 0)
(1.04935 0.000448162 0)
(1.04937 -7.99015e-06 0)
(1.0493 -0.000469897 0)
(1.04915 -0.000935285 0)
(1.04892 -0.00140133 0)
(1.04859 -0.00186488 0)
(1.04815 -0.00232252 0)
(1.04761 -0.00277047 0)
(1.04697 -0.00320463 0)
(1.0462 -0.00362065 0)
(1.04532 -0.00401406 0)
(1.04433 -0.00438035 0)
(1.04321 -0.00471507 0)
(1.04198 -0.00501394 0)
(1.04064 -0.0052729 0)
(1.0392 -0.00548821 0)
(1.03765 -0.00565662 0)
(1.04817 0.000831175 0)
(1.04833 0.000565961 0)
(1.04842 0.000296003 0)
(1.04846 2.18546e-05 0)
(1.04841 -0.000255893 0)
(1.04829 -0.000535865 0)
(1.04809 -0.00081639 0)
(1.04779 -0.00109562 0)
(1.0474 -0.0013715 0)
(1.04691 -0.00164182 0)
(1.0463 -0.00190412 0)
(1.04559 -0.00215584 0)
(1.04477 -0.00239432 0)
(1.04383 -0.00261689 0)
(1.04278 -0.00282089 0)
(1.04162 -0.00300375 0)
(1.04034 -0.003163 0)
(1.03896 -0.00329634 0)
(1.03748 -0.00340171 0)
(1.04767 0.000285894 0)
(1.04783 0.000196399 0)
(1.04794 0.000105459 0)
(1.04798 1.32223e-05 0)
(1.04795 -8.00631e-05 0)
(1.04785 -0.000174039 0)
(1.04766 -0.000268171 0)
(1.04738 -0.000361852 0)
(1.04701 -0.000454415 0)
(1.04653 -0.000545123 0)
(1.04596 -0.000633174 0)
(1.04528 -0.00071772 0)
(1.04448 -0.000797886 0)
(1.04358 -0.000872788 0)
(1.04256 -0.000941552 0)
(1.04142 -0.00100332 0)
(1.04018 -0.00105726 0)
(1.03883 -0.00110258 0)
(1.03738 -0.0011386 0)
)
;

boundaryField
{
    inlet
    {
        type            uniformFixedValue;
        uniformValue    constant (1 0 0);
        value           nonuniform 0();
    }
    outlet
    {
        type            pressureInletOutletVelocity;
        value           nonuniform 0();
    }
    cylinder
    {
        type            fixedValue;
        value           nonuniform 0();
    }
    top
    {
        type            symmetryPlane;
    }
    bottom
    {
        type            symmetryPlane;
    }
    defaultFaces
    {
        type            empty;
    }
    procBoundary34to28
    {
        type            processor;
        value           nonuniform List<vector> 
20
(
(1.17293 -0.0361693 0)
(1.16752 -0.0467008 0)
(1.16116 -0.056827 0)
(1.15361 -0.0663585 0)
(1.14494 -0.075104 0)
(1.13529 -0.0828871 0)
(1.12481 -0.0895441 0)
(1.11366 -0.0949285 0)
(1.10202 -0.0989213 0)
(1.09014 -0.101441 0)
(1.07826 -0.102454 0)
(1.06662 -0.101986 0)
(1.05547 -0.100125 0)
(1.04501 -0.0970164 0)
(1.03543 -0.0928505 0)
(1.02686 -0.0878406 0)
(1.01935 -0.0822055 0)
(1.16794 -0.0114389 0)
(1.16517 -0.0212505 0)
(1.16517 -0.0212505 0)
)
;
    }
    procBoundary34to29
    {
        type            processor;
        value           nonuniform List<vector> 3((1.01679 -0.0722507 0) (1.02024 -0.068251 0) (1.02329 -0.064197 0));
    }
    procBoundary34to33
    {
        type            processor;
        value           nonuniform List<vector> 
22
(
(1.15457 -0.00293574 -2.00772e-21)
(1.14343 -0.00145581 -1.94739e-21)
(1.13316 -0.000194593 -5.12089e-21)
(1.12369 0.000874257 3.20022e-21)
(1.11499 0.00177141 1.30538e-21)
(1.10699 0.00251355 2.28874e-22)
(1.09964 0.0031148 -2.9152e-22)
(1.09291 0.00358578 -4.24406e-22)
(1.08674 0.00393608 3.58933e-22)
(1.08111 0.00417471 -2.49943e-22)
(1.07598 0.0043083 1.58188e-22)
(1.07131 0.00434261 2.22367e-23)
(1.06709 0.00428286 -1.04673e-22)
(1.0633 0.00413445 -6.1632e-23)
(1.05992 0.00390206 1.68829e-22)
(1.05693 0.00359006 -4.06657e-23)
(1.05434 0.0032032 2.37718e-22)
(1.05215 0.0027467 -2.05778e-22)
(1.05035 0.00222579 -3.59855e-23)
(1.04896 0.00164771 1.10389e-22)
(1.04801 0.00101706 -9.43362e-23)
(1.04751 0.000348955 9.40466e-23)
)
;
    }
    procBoundary34to35
    {
        type            processor;
        value           nonuniform List<vector> 
20
(
(1.02597 -0.0601251 0)
(1.02828 -0.0560681 0)
(1.03025 -0.052055 0)
(1.0319 -0.0481114 0)
(1.03326 -0.044259 0)
(1.03436 -0.0405156 0)
(1.03521 -0.0368955 0)
(1.03585 -0.0334091 0)
(1.0363 -0.0300635 0)
(1.03659 -0.0268621 0)
(1.03674 -0.0238052 0)
(1.03678 -0.0208897 0)
(1.03674 -0.0181091 0)
(1.03663 -0.0154541 0)
(1.03649 -0.0129116 0)
(1.03632 -0.0104653 0)
(1.03616 -0.00809481 0)
(1.03601 -0.00577549 0)
(1.0359 -0.00347746 0)
(1.03584 -0.00116472 0)
)
;
    }
}


// ************************************************************************* //
