/*--------------------------------*- C++ -*----------------------------------*\
  =========                 |
  \\      /  F ield         | OpenFOAM: The Open Source CFD Toolbox
   \\    /   O peration     | Website:  https://openfoam.org
    \\  /    A nd           | Version:  7
     \\/     M anipulation  |
\*---------------------------------------------------------------------------*/
FoamFile
{
    version     2.0;
    format      ascii;
    class       volScalarField;
    location    "2";
    object      p;
}
// * * * * * * * * * * * * * * * * * * * * * * * * * * * * * * * * * * * * * //

dimensions      [0 2 -2 0 0 0 0];

internalField   nonuniform List<scalar> 
344
(
-2.86352
-2.58135
-2.45243
-2.35575
-2.2152
-2.06703
-1.99702
-2.02324
-2.10102
-2.15317
-2.15069
-2.09696
-2.03603
-2.04045
-2.13843
-2.33605
-2.64455
-3.06714
-3.60621
-4.25352
-4.98104
-5.73964
-6.45236
-7.03677
-7.4274
-7.5927
-7.52299
-7.22643
-6.73616
-6.08036
-1.38813
-1.432
-1.52441
-1.68437
-1.89034
-2.03097
-2.11042
-2.22865
-2.27595
-2.13475
-1.94653
-1.82668
-1.8015
-1.80242
-1.77245
-1.71461
-1.68175
-1.68587
-1.74313
-1.94088
-2.31752
-2.7468
-3.21005
-3.75799
-4.31072
-4.79472
-5.25949
-5.58264
-5.75127
-5.7747
-5.59395
-5.27675
-4.80623
-4.25078
-3.6734
-3.15365
-2.75814
-2.53389
-2.48973
-2.45644
-2.31869
-2.13974
-2.0644
-2.10636
-2.20809
-2.27995
-2.28011
-2.21027
-2.11499
-2.08218
-2.14807
-2.31665
-2.59472
-2.98299
-3.48559
-4.09982
-4.79735
-5.52983
-6.22321
-6.79796
-7.19011
-7.36356
-7.30238
-7.01411
-6.5281
-5.87349
-1.36926
-1.4102
-1.49868
-1.65572
-1.87052
-2.01726
-2.09752
-2.2196
-2.28261
-2.15526
-1.96494
-1.83952
-1.8077
-1.79939
-1.76397
-1.70936
-1.67678
-1.68312
-1.74591
-1.94712
-2.31131
-2.70667
-3.13374
-3.65192
-4.1738
-4.63175
-5.07884
-5.38119
-5.53945
-5.5592
-5.37657
-5.06379
-4.59887
-4.05523
-3.49946
-3.00448
-2.64114
-2.46713
-2.51861
-2.54522
-2.40156
-2.18
-2.10491
-2.16058
-2.27759
-2.36059
-2.36395
-2.28731
-2.16854
-2.10679
-2.14431
-2.28736
-2.5388
-2.89666
-3.36657
-3.94993
-4.61903
-5.32662
-6.0003
-6.56274
-6.95203
-7.12843
-7.07119
-6.79048
-6.30989
-5.66036
-1.34807
-1.38679
-1.46992
-1.62175
-1.84294
-1.99561
-2.07562
-2.1969
-2.27058
-2.1597
-1.97778
-1.8559
-1.81759
-1.79558
-1.75719
-1.70636
-1.67405
-1.68296
-1.75396
-1.95924
-2.31072
-2.67134
-3.06572
-3.55988
-4.0549
-4.48904
-4.91917
-5.2033
-5.34975
-5.36273
-5.18179
-4.87015
-4.41003
-3.87266
-3.33176
-2.85586
-2.51523
-2.38676
-2.52688
-2.61612
-2.45108
-2.2137
-2.12884
-2.19108
-2.31083
-2.39328
-2.3977
-2.32113
-2.19508
-2.11451
-2.1287
-2.24872
-2.47532
-2.8065
-3.24954
-3.807
-4.45085
-5.13587
-5.79123
-6.34144
-6.72606
-6.90279
-6.84946
-6.57518
-6.10001
-5.45755
-1.32644
-1.36299
-1.43802
-1.5832
-1.8099
-1.96849
-2.04743
-2.16397
-2.24205
-2.14796
-1.98447
-1.87512
-1.83144
-1.79663
-1.75235
-1.70217
-1.67005
-1.68618
-1.76954
-1.97895
-2.31463
-2.64129
-3.0052
-3.48262
-3.9532
-4.3648
-4.78012
-5.04927
-5.18482
-5.19485
-5.01186
-4.69791
-4.24192
-3.70484
-3.17426
-2.71012
-2.38395
-2.28746
-2.50773
-2.67732
-2.49608
-2.24664
-2.15272
-2.21085
-2.31724
-2.38798
-2.38998
-2.32278
-2.19975
-2.11058
-2.10669
-2.20423
-2.40581
-2.71131
-3.13157
-3.66964
-4.29457
-4.96178
-5.60146
-6.14041
-6.51973
-6.69588
-6.64752
-6.37802
-5.90747
-5.27187
-1.30616
-1.33858
-1.40614
-1.54254
-1.77141
-1.93525
-2.01614
-2.125
-2.20035
-2.12336
-1.98522
-1.89584
-1.84971
-1.79977
-1.74702
-1.70147
-1.67145
-1.69315
-1.78832
-2.00277
-2.31994
-2.61566
-2.95542
-3.42173
-3.86816
-4.25796
-4.66144
-4.91994
-5.04621
-5.05298
-4.86893
-4.55038
-4.09632
-3.55509
-3.02752
-2.5707
-2.24912
-2.1685
-2.47749
-2.72218
-2.5398
-2.28024
-2.18461
-2.23266
-2.31263
-2.36642
-2.3624
-2.30766
-2.19456
-2.10231
)
;

boundaryField
{
    inlet
    {
        type            zeroGradient;
    }
    outlet
    {
        type            fixedValue;
        value           nonuniform 0();
    }
    wall
    {
        type            zeroGradient;
    }
    wedge1
    {
        type            wedge;
    }
    wedge2
    {
        type            wedge;
    }
    axis
    {
        type            empty;
    }
    procBoundary39to33
    {
        type            processor;
        value           nonuniform List<scalar> 
67
(
-2.95748
-2.6129
-2.40341
-2.24898
-2.09913
-1.96793
-1.90271
-1.91404
-1.96567
-1.99915
-1.99784
-1.96577
-1.94362
-1.98802
-2.11978
-2.34891
-2.69052
-3.14908
-3.72602
-4.40882
-5.16797
-5.95088
-6.67782
-7.26614
-7.65114
-7.80498
-7.7232
-7.41909
-6.92522
-6.26961
-1.4054
-1.45138
-1.54737
-1.7078
-1.9043
-2.03831
-2.11705
-2.22501
-2.25037
-2.0992
-1.92504
-1.81743
-1.79976
-1.8076
-1.7755
-1.71389
-1.68265
-1.68655
-1.74348
-1.94592
-2.33233
-2.79413
-3.29639
-3.87715
-4.46584
-4.97972
-5.46056
-5.80676
-5.98535
-6.00805
-5.83216
-5.50581
-5.02851
-4.4553
-3.85181
-3.30019
-3.30019
)
;
    }
    procBoundary39to34
    {
        type            processor;
        value           uniform -5.29493;
    }
    procBoundary39to40
    {
        type            processor;
        value           nonuniform List<scalar> 4(-5.08991 -4.88486 -4.69268 -4.51688);
    }
    procBoundary39to45
    {
        type            processor;
        value           nonuniform List<scalar> 
67
(
-2.08364
-2.15694
-2.33158
-2.61048
-3.01073
-3.53667
-4.151
-4.80677
-5.43465
-5.96356
-6.33686
-6.51074
-6.46177
-6.19891
-5.73338
-5.10519
-1.289
-1.31524
-1.37648
-1.50091
-1.72763
-1.89799
-1.98406
-2.08367
-2.15238
-2.09105
-1.98229
-1.91639
-1.86764
-1.80356
-1.74736
-1.70475
-1.67584
-1.70304
-1.8105
-2.02848
-2.32561
-2.59254
-2.91614
-3.37606
-3.79911
-4.16862
-4.56359
-4.81443
-4.93214
-4.93504
-4.75067
-4.42524
-3.97193
-3.423
-2.89313
-2.43952
-2.11834
-2.04217
-2.44306
-2.73232
-2.56919
-2.3214
-2.24108
-2.26551
-2.30226
-2.32625
-2.33283
-2.29817
-2.19488
-2.08364
-2.10073
)
;
    }
}


// ************************************************************************* //
