/*--------------------------------*- C++ -*----------------------------------*\
  =========                 |
  \\      /  F ield         | OpenFOAM: The Open Source CFD Toolbox
   \\    /   O peration     | Website:  https://openfoam.org
    \\  /    A nd           | Version:  7
     \\/     M anipulation  |
\*---------------------------------------------------------------------------*/
FoamFile
{
    version     2.0;
    format      ascii;
    class       surfaceScalarField;
    location    "7.6";
    object      phi;
}
// * * * * * * * * * * * * * * * * * * * * * * * * * * * * * * * * * * * * * //

dimensions      [0 3 -1 0 0 0 0];

internalField   nonuniform List<scalar> 
618
(
5.90358e-05
-4.27681e-07
5.88676e-05
-4.15772e-07
5.87039e-05
-4.04382e-07
5.85447e-05
-3.93478e-07
5.83898e-05
-3.8303e-07
-3.73011e-07
0.000191484
-0.000135658
0.000186104
-0.00011581
0.000170171
-8.35491e-05
0.000153224
-5.79843e-05
0.000138401
-4.0981e-05
0.000126159
-3.00362e-05
0.000116183
-2.27829e-05
0.000108021
-1.77937e-05
0.00010128
-1.42377e-05
9.56508e-05
-1.16226e-05
9.08983e-05
-9.64692e-06
8.68456e-05
-8.12e-06
8.33577e-05
-6.9167e-06
8.03312e-05
-5.95253e-06
7.76854e-05
-5.16882e-06
7.53567e-05
-4.52384e-06
7.32946e-05
-3.98726e-06
7.14584e-05
-3.53661e-06
6.98148e-05
-3.15494e-06
6.83367e-05
-2.82927e-06
6.70015e-05
-2.54953e-06
6.57905e-05
-2.30779e-06
6.46877e-05
-2.09774e-06
6.36799e-05
-1.91431e-06
6.27556e-05
-1.75339e-06
6.19052e-05
-1.61162e-06
6.11204e-05
-1.4862e-06
6.03938e-05
-1.37483e-06
5.97194e-05
-1.2756e-06
5.90917e-05
-1.18686e-06
5.85058e-05
-1.10727e-06
5.79578e-05
-1.03565e-06
5.7444e-05
-9.71017e-07
5.69611e-05
-9.12519e-07
5.65063e-05
-8.59428e-07
5.60772e-05
-8.11115e-07
5.56714e-05
-7.67036e-07
5.52871e-05
-7.2672e-07
5.49224e-05
-6.89754e-07
5.45758e-05
-6.5578e-07
5.42458e-05
-6.24485e-07
5.39312e-05
-5.95591e-07
5.36308e-05
-5.68857e-07
5.33436e-05
-5.44068e-07
5.30686e-05
-5.21037e-07
5.28051e-05
-4.99595e-07
5.25522e-05
-4.79595e-07
5.23092e-05
-4.60904e-07
5.20755e-05
-4.43404e-07
5.18506e-05
-4.26992e-07
5.16338e-05
-4.11573e-07
5.14248e-05
-3.97063e-07
5.1223e-05
-3.83387e-07
5.10281e-05
-3.70478e-07
5.08396e-05
-3.58275e-07
5.06573e-05
-3.46722e-07
5.04808e-05
-3.35771e-07
5.03098e-05
-3.25375e-07
5.0144e-05
-3.15496e-07
4.99832e-05
-3.06096e-07
4.98272e-05
-2.97141e-07
4.96756e-05
-2.88601e-07
4.95284e-05
-2.80448e-07
4.93853e-05
-2.72657e-07
4.92461e-05
-2.65204e-07
4.91107e-05
-2.58069e-07
4.89789e-05
-2.51231e-07
-2.44673e-07
0.000187783
-0.000149241
0.000171788
-9.98145e-05
0.000149584
-6.13457e-05
0.000130443
-3.88427e-05
0.000115498
-2.60356e-05
0.000103961
-1.85e-05
9.4952e-05
-1.37736e-05
8.77854e-05
-1.06271e-05
8.19796e-05
-8.43188e-06
7.71981e-05
-6.84104e-06
7.32031e-05
-5.65197e-06
6.98234e-05
-4.74028e-06
6.6933e-05
-4.02628e-06
6.44374e-05
-3.45699e-06
6.22647e-05
-2.99611e-06
6.03589e-05
-2.61808e-06
5.86761e-05
-2.30446e-06
5.71812e-05
-2.04169e-06
5.58459e-05
-1.8196e-06
5.46471e-05
-1.63044e-06
5.35658e-05
-1.46822e-06
5.25862e-05
-1.32822e-06
5.16952e-05
-1.20674e-06
5.08816e-05
-1.10077e-06
5.01362e-05
-1.0079e-06
4.94507e-05
-9.26148e-07
4.88184e-05
-8.53891e-07
4.82333e-05
-7.89779e-07
4.76904e-05
-7.32687e-07
4.71852e-05
-6.8167e-07
4.67139e-05
-6.35931e-07
4.6273e-05
-5.94795e-07
4.58597e-05
-5.57686e-07
4.54713e-05
-5.24113e-07
4.51055e-05
-4.93652e-07
4.47603e-05
-4.6594e-07
4.4434e-05
-4.40663e-07
4.41248e-05
-4.17547e-07
4.38314e-05
-3.96355e-07
4.35525e-05
-3.7688e-07
4.32869e-05
-3.58942e-07
4.30337e-05
-3.42381e-07
4.27919e-05
-3.27058e-07
4.25607e-05
-3.12851e-07
4.23393e-05
-2.99649e-07
4.21271e-05
-2.87358e-07
4.19234e-05
-2.75892e-07
4.17277e-05
-2.65176e-07
4.15394e-05
-2.55142e-07
4.13581e-05
-2.4573e-07
4.11835e-05
-2.36886e-07
4.1015e-05
-2.28563e-07
4.08523e-05
-2.20717e-07
4.06951e-05
-2.13309e-07
4.05431e-05
-2.06305e-07
4.03961e-05
-1.99674e-07
4.02537e-05
-1.93386e-07
4.01158e-05
-1.87418e-07
3.9982e-05
-1.81744e-07
3.98523e-05
-1.76344e-07
3.97263e-05
-1.712e-07
3.9604e-05
-1.66293e-07
3.94852e-05
-1.61607e-07
3.93696e-05
-1.57129e-07
3.92573e-05
-1.52845e-07
3.91479e-05
-1.48743e-07
3.90415e-05
-1.44811e-07
-1.41039e-07
0.000173854
-0.000146331
0.000145527
-7.14872e-05
0.000119589
-3.5408e-05
0.000100938
-2.01913e-05
8.77561e-05
-1.28537e-05
7.81409e-05
-8.88472e-06
7.08827e-05
-6.51533e-06
6.52334e-05
-4.97788e-06
6.07244e-05
-3.92283e-06
5.70503e-05
-3.16694e-06
5.40049e-05
-2.60659e-06
5.14443e-05
-2.17966e-06
4.9265e-05
-1.84695e-06
4.73907e-05
-1.58272e-06
4.57641e-05
-1.36951e-06
4.43411e-05
-1.1951e-06
4.30874e-05
-1.05075e-06
4.19758e-05
-9.30038e-07
4.09843e-05
-8.28196e-07
4.00955e-05
-7.41587e-07
3.92947e-05
-6.67412e-07
3.85699e-05
-6.0348e-07
3.79113e-05
-5.48061e-07
3.73103e-05
-4.99768e-07
3.67598e-05
-4.57482e-07
3.6254e-05
-4.2029e-07
3.57875e-05
-3.87442e-07
3.53561e-05
-3.58315e-07
3.49558e-05
-3.32393e-07
3.45834e-05
-3.09242e-07
3.42359e-05
-2.88496e-07
3.3911e-05
-2.69846e-07
3.36063e-05
-2.53028e-07
3.332e-05
-2.37816e-07
3.30504e-05
-2.24019e-07
3.27959e-05
-2.1147e-07
3.25553e-05
-2.00025e-07
3.23273e-05
-1.8956e-07
3.21109e-05
-1.79967e-07
3.19052e-05
-1.71152e-07
3.17093e-05
-1.63032e-07
3.15224e-05
-1.55536e-07
3.1344e-05
-1.48601e-07
3.11733e-05
-1.42169e-07
3.10098e-05
-1.36193e-07
3.08531e-05
-1.30628e-07
3.07026e-05
-1.25436e-07
3.0558e-05
-1.20583e-07
3.04189e-05
-1.16038e-07
3.0285e-05
-1.11774e-07
3.01559e-05
-1.07767e-07
3.00313e-05
-1.03995e-07
2.9911e-05
-1.00438e-07
2.97948e-05
-9.70799e-08
2.96824e-05
-9.39041e-08
2.95736e-05
-9.08965e-08
2.94683e-05
-8.80444e-08
2.93662e-05
-8.53362e-08
2.92672e-05
-8.27614e-08
2.91712e-05
-8.03105e-08
2.90779e-05
-7.7975e-08
2.89874e-05
-7.57469e-08
2.88994e-05
-7.36191e-08
2.88139e-05
-7.1585e-08
2.87307e-05
-6.96387e-08
2.86497e-05
-6.77746e-08
2.85709e-05
-6.59878e-08
-6.42735e-08
0.000141644
-0.000108646
0.000102929
-3.27721e-05
7.92141e-05
-1.16933e-05
6.4845e-05
-5.82219e-06
5.55254e-05
-3.5341e-06
4.90248e-05
-2.38413e-06
4.42373e-05
-1.72784e-06
4.0569e-05
-1.30957e-06
3.76723e-05
-1.02611e-06
3.53301e-05
-8.24828e-07
3.34002e-05
-6.76599e-07
3.17847e-05
-5.64253e-07
3.04149e-05
-4.77069e-07
2.92402e-05
-4.08071e-07
2.82233e-05
-3.52558e-07
2.73354e-05
-3.07261e-07
2.65545e-05
-2.69851e-07
2.58631e-05
-2.38628e-07
2.52473e-05
-2.1233e-07
2.46957e-05
-1.89998e-07
2.41992e-05
-1.70898e-07
2.37501e-05
-1.54457e-07
2.33423e-05
-1.4022e-07
2.29703e-05
-1.27826e-07
2.26299e-05
-1.16985e-07
2.2317e-05
-1.07457e-07
2.20286e-05
-9.90483e-08
2.17619e-05
-9.15978e-08
2.15145e-05
-8.49711e-08
2.12843e-05
-7.90561e-08
2.10696e-05
-7.37582e-08
2.08687e-05
-6.89975e-08
2.06804e-05
-6.4706e-08
2.05034e-05
-6.08258e-08
2.03367e-05
-5.73072e-08
2.01793e-05
-5.41075e-08
2.00305e-05
-5.11898e-08
1.98895e-05
-4.85223e-08
1.97556e-05
-4.60772e-08
1.96282e-05
-4.38304e-08
1.9507e-05
-4.17609e-08
1.93913e-05
-3.98502e-08
1.92808e-05
-3.8082e-08
1.9175e-05
-3.64423e-08
1.90738e-05
-3.49183e-08
1.89766e-05
-3.3499e-08
1.88834e-05
-3.21747e-08
1.87937e-05
-3.09364e-08
1.87075e-05
-2.97765e-08
1.86244e-05
-2.86881e-08
1.85443e-05
-2.7665e-08
1.8467e-05
-2.67017e-08
1.83923e-05
-2.57932e-08
1.83202e-05
-2.49351e-08
1.82504e-05
-2.41233e-08
1.81829e-05
-2.33544e-08
1.81175e-05
-2.2625e-08
1.80541e-05
-2.19323e-08
1.79926e-05
-2.12734e-08
1.79329e-05
-2.06462e-08
1.7875e-05
-2.00483e-08
1.78187e-05
-1.94777e-08
1.7764e-05
-1.89327e-08
1.77108e-05
-1.84116e-08
1.76591e-05
-1.79128e-08
1.76088e-05
-1.74351e-08
1.75598e-05
-1.6977e-08
-1.65374e-08
7.32478e-05
4.04757e-05
2.87824e-05
2.29602e-05
1.94261e-05
1.7042e-05
1.53141e-05
1.40046e-05
1.29785e-05
1.21536e-05
1.1477e-05
1.09128e-05
1.04357e-05
1.00276e-05
9.67508e-06
9.36782e-06
9.09797e-06
8.85934e-06
8.64701e-06
8.45701e-06
8.28611e-06
8.13166e-06
7.99144e-06
7.86361e-06
7.74663e-06
7.63917e-06
7.54012e-06
7.44852e-06
7.36355e-06
7.2845e-06
7.21074e-06
7.14174e-06
7.07703e-06
7.01621e-06
6.9589e-06
6.90479e-06
6.8536e-06
6.80508e-06
6.759e-06
6.71517e-06
6.67341e-06
6.63356e-06
6.59548e-06
6.55904e-06
6.52412e-06
6.49062e-06
6.45845e-06
6.42751e-06
6.39773e-06
6.36904e-06
6.34138e-06
6.31468e-06
6.28888e-06
6.26395e-06
6.23983e-06
6.21647e-06
6.19385e-06
6.17191e-06
6.15064e-06
6.12999e-06
6.10995e-06
6.09047e-06
6.07154e-06
6.05312e-06
6.03521e-06
6.01778e-06
6.0008e-06
)
;

boundaryField
{
    inlet
    {
        type            calculated;
        value           nonuniform List<scalar> 5(-0.000171636 -0.0001742 -0.000176765 -0.000179329 -0.000181894);
    }
    outlet
    {
        type            calculated;
        value           nonuniform 0();
    }
    wall
    {
        type            calculated;
        value           uniform 0;
    }
    wedge1
    {
        type            wedge;
        value           nonuniform List<scalar> 
346
(
5.8496e-15
6.55216e-15
2.02276e-14
5.49121e-15
-1.53575e-14
6.18625e-15
5.62081e-15
1.36543e-14
2.91002e-15
-6.24199e-15
4.86699e-15
3.83918e-15
7.79739e-15
1.30551e-15
-2.12147e-15
3.57445e-15
2.58445e-15
4.7393e-15
7.04517e-16
-9.89775e-16
2.60947e-15
1.78941e-15
3.11022e-15
4.41225e-16
-5.89117e-16
1.94838e-15
1.29381e-15
2.18324e-15
3.03977e-16
-3.9762e-16
1.49491e-15
9.73122e-16
1.61439e-15
2.23437e-16
-2.90607e-16
1.17638e-15
7.55879e-16
1.24054e-15
1.71521e-16
-2.22775e-16
9.46231e-16
6.0259e-16
9.81808e-16
1.35924e-16
-1.76752e-16
7.7537e-16
4.9063e-16
7.95335e-16
1.10382e-16
-1.43909e-16
6.45447e-16
4.0649e-16
6.56497e-16
9.13842e-17
-1.19549e-16
5.44507e-16
3.41688e-16
5.50342e-16
7.68489e-17
-1.00925e-16
4.64647e-16
2.90749e-16
4.67363e-16
6.54611e-17
-8.63353e-17
4.00465e-16
2.50032e-16
4.01311e-16
5.6377e-17
-7.46689e-17
3.48187e-16
2.17014e-16
3.47908e-16
4.902e-17
-6.51784e-17
3.05045e-16
1.89838e-16
3.04114e-16
4.2951e-17
-5.73637e-17
2.69096e-16
1.67267e-16
2.6781e-16
3.79129e-17
-5.08364e-17
2.38877e-16
1.4835e-16
2.37427e-16
3.36977e-17
-4.53241e-17
2.13218e-16
1.32297e-16
2.11705e-16
3.00906e-17
-4.06538e-17
1.91304e-16
1.18617e-16
1.8981e-16
2.70213e-17
-3.66426e-17
1.72483e-16
1.069e-16
1.71059e-16
2.44035e-17
-3.31696e-17
1.56166e-16
9.67286e-17
1.54823e-16
2.2101e-17
-3.01729e-17
1.41969e-16
8.78949e-17
1.40735e-16
2.01035e-17
-2.75519e-17
1.29552e-16
8.01789e-17
1.28443e-16
1.83624e-17
-2.52495e-17
1.18674e-16
7.3423e-17
1.17671e-16
1.68297e-17
-2.32232e-17
1.09073e-16
6.74657e-17
1.0818e-16
1.54787e-17
-2.14298e-17
1.0058e-16
6.22025e-17
9.97937e-17
1.4286e-17
-1.98349e-17
9.30453e-17
5.75361e-17
9.23518e-17
1.32278e-17
-1.84127e-17
8.63605e-17
5.34071e-17
8.57377e-17
1.22922e-17
-1.71373e-17
8.03242e-17
4.96631e-17
7.97931e-17
1.14387e-17
-1.5999e-17
7.49019e-17
4.63051e-17
7.44604e-17
1.06714e-17
-1.49736e-17
7.00275e-17
4.32868e-17
6.96615e-17
9.98028e-18
-1.40486e-17
6.56296e-17
4.05694e-17
6.53371e-17
9.36125e-18
-1.32093e-17
6.16577e-17
3.81125e-17
6.1422e-17
8.79788e-18
-1.24478e-17
5.80643e-17
3.58946e-17
5.78622e-17
8.28321e-18
-1.1759e-17
5.47682e-17
3.38532e-17
5.46319e-17
7.82223e-18
-1.11226e-17
5.17573e-17
3.19935e-17
5.16755e-17
7.39711e-18
-1.05434e-17
4.90067e-17
3.02923e-17
4.89688e-17
7.00532e-18
-1.00137e-17
4.64856e-17
2.87343e-17
4.64895e-17
6.64786e-18
-9.52529e-18
4.41782e-17
2.73104e-17
4.42124e-17
6.32036e-18
-9.07627e-18
4.20626e-17
2.6007e-17
4.21085e-17
6.01437e-18
-8.66446e-18
4.00891e-17
2.47824e-17
4.01739e-17
5.73826e-18
-8.2768e-18
3.82598e-17
2.3654e-17
3.83771e-17
5.47948e-18
-7.92044e-18
3.65627e-17
2.2605e-17
3.67069e-17
5.23664e-18
-7.59015e-18
3.49927e-17
2.16344e-17
3.51578e-17
5.01209e-18
-7.28219e-18
3.35394e-17
2.07373e-17
3.37186e-17
4.80418e-18
-6.99437e-18
3.22087e-17
1.99174e-17
3.23826e-17
4.61145e-18
-6.72564e-18
3.09183e-17
1.91181e-17
3.11189e-17
4.43094e-18
-6.47325e-18
2.97116e-17
1.83694e-17
2.99333e-17
4.25667e-18
-6.23752e-18
2.85804e-17
1.76672e-17
2.8819e-17
4.09226e-18
-6.01686e-18
2.75222e-17
1.70121e-17
2.77751e-17
3.93822e-18
-5.8091e-18
2.65313e-17
1.63991e-17
2.67945e-17
3.79705e-18
-5.61204e-18
2.55941e-17
1.58182e-17
2.58681e-17
3.66092e-18
-5.42657e-18
2.47071e-17
1.52685e-17
2.49912e-17
3.53143e-18
-5.25224e-18
2.38764e-17
1.47526e-17
2.41651e-17
3.40983e-18
-5.0862e-18
2.30961e-17
1.42692e-17
2.33858e-17
3.29739e-18
-4.92812e-18
2.23724e-17
1.38273e-17
2.26468e-17
3.19014e-18
-4.78041e-18
2.16588e-17
1.33808e-17
2.19485e-17
3.09146e-18
-4.63455e-18
2.09772e-17
1.296e-17
2.12789e-17
2.99455e-18
-4.49868e-18
2.03326e-17
1.25609e-17
2.06402e-17
2.90083e-18
-4.36953e-18
1.97194e-17
1.21797e-17
2.00312e-17
2.81133e-18
-4.24667e-18
1.9134e-17
1.18149e-17
1.9449e-17
2.72505e-18
-4.12971e-18
-1.87527e-16
1.85752e-17
1.14684e-17
1.88936e-17
2.64281e-18
-4.0176e-18
-1.82316e-16
1.80421e-17
1.11386e-17
1.83638e-17
2.5653e-18
-3.9098e-18
-1.77333e-16
1.75333e-17
1.08214e-17
1.78558e-17
2.4898e-18
-3.80784e-18
-1.72566e-16
1.70435e-17
1.05182e-17
1.7371e-17
2.4207e-18
-3.70788e-18
-1.67993e-16
1.65787e-17
1.02307e-17
1.69072e-17
2.35336e-18
-3.61305e-18
-1.636e-16
1.61407e-17
9.96111e-18
1.64675e-17
2.29101e-18
-3.52092e-18
)
;
    }
    wedge2
    {
        type            wedge;
        value           nonuniform List<scalar> 
346
(
5.8496e-15
6.55216e-15
2.02276e-14
5.49121e-15
-1.53575e-14
6.18626e-15
5.62081e-15
1.36543e-14
2.91002e-15
-6.242e-15
4.86702e-15
3.83919e-15
7.79742e-15
1.30554e-15
-2.12146e-15
3.5745e-15
2.58451e-15
4.73934e-15
7.04544e-16
-9.89764e-16
2.60956e-15
1.78949e-15
3.11027e-15
4.41256e-16
-5.89105e-16
1.94848e-15
1.29389e-15
2.18329e-15
3.0401e-16
-3.97607e-16
1.49503e-15
9.73224e-16
1.61446e-15
2.23474e-16
-2.90597e-16
1.17648e-15
7.55955e-16
1.2406e-15
1.71544e-16
-2.22776e-16
9.46322e-16
6.02663e-16
9.81863e-16
1.35958e-16
-1.76742e-16
7.755e-16
4.90736e-16
7.95406e-16
1.1042e-16
-1.43897e-16
6.45573e-16
4.06593e-16
6.56574e-16
9.14307e-17
-1.19534e-16
5.44673e-16
3.41814e-16
5.50431e-16
7.69019e-17
-1.00908e-16
4.64856e-16
2.9092e-16
4.67483e-16
6.55314e-17
-8.63117e-17
4.00695e-16
2.50216e-16
4.01437e-16
5.64502e-17
-7.46452e-17
3.48388e-16
2.17159e-16
3.48011e-16
4.90728e-17
-6.51662e-17
3.05276e-16
1.90025e-16
3.04244e-16
4.30266e-17
-5.73398e-17
2.69337e-16
1.67459e-16
2.67941e-16
3.79862e-17
-5.08147e-17
2.39085e-16
1.48496e-16
2.37507e-16
3.37324e-17
-4.53223e-17
2.13459e-16
1.32485e-16
2.11831e-16
3.01606e-17
-4.06318e-17
1.9156e-16
1.18819e-16
1.89946e-16
2.70975e-17
-3.66185e-17
1.72706e-16
1.07054e-16
1.71143e-16
2.4441e-17
-3.31656e-17
1.56433e-16
9.69389e-17
1.54964e-16
2.21796e-17
-3.01484e-17
1.42287e-16
8.8149e-17
1.40912e-16
2.0206e-17
-2.75191e-17
1.29932e-16
8.04772e-17
1.28647e-16
1.84748e-17
-2.52155e-17
1.19063e-16
7.37347e-17
1.17888e-16
1.69571e-17
-2.31827e-17
1.09489e-16
6.77999e-17
1.08416e-16
1.56172e-17
-2.13843e-17
1.0101e-16
6.25438e-17
1.00033e-16
1.44265e-17
-1.97889e-17
9.34652e-17
5.78698e-17
9.25866e-17
1.3366e-17
-1.8367e-17
8.67056e-17
5.36754e-17
8.59351e-17
1.24114e-17
-1.70984e-17
8.07151e-17
4.99773e-17
8.00186e-17
1.1573e-17
-1.59539e-17
7.53445e-17
4.66593e-17
7.47112e-17
1.08211e-17
-1.49244e-17
7.05037e-17
4.36704e-17
6.99348e-17
1.01438e-17
-1.39943e-17
6.61307e-17
4.09663e-17
6.56164e-17
9.5267e-18
-1.31543e-17
6.21621e-17
3.85162e-17
6.17075e-17
8.9702e-18
-1.23911e-17
5.8547e-17
3.62805e-17
5.81647e-17
8.46756e-18
-1.16921e-17
5.5282e-17
3.42688e-17
5.49298e-17
8.00194e-18
-1.10621e-17
5.23056e-17
3.24306e-17
5.19856e-17
7.5809e-18
-1.04827e-17
4.95792e-17
3.07492e-17
4.92934e-17
7.19804e-18
-9.94982e-18
4.70777e-17
2.92057e-17
4.68208e-17
6.84462e-18
-9.46153e-18
4.47687e-17
2.77789e-17
4.45449e-17
6.51819e-18
-9.01062e-18
4.26315e-17
2.64563e-17
4.24529e-17
6.22126e-18
-8.59142e-18
4.06784e-17
2.52562e-17
4.05121e-17
5.94023e-18
-8.21002e-18
3.88745e-17
2.4141e-17
3.87215e-17
5.68307e-18
-7.85314e-18
3.72029e-17
2.31096e-17
3.70639e-17
5.4471e-18
-7.52061e-18
3.5643e-17
2.21471e-17
3.55196e-17
5.22639e-18
-7.21136e-18
3.41825e-17
2.12445e-17
3.40775e-17
5.01942e-18
-6.92331e-18
3.27956e-17
2.03856e-17
3.27246e-17
4.82481e-18
-6.65374e-18
3.15463e-17
1.96159e-17
3.14743e-17
4.64304e-18
-6.40204e-18
3.03755e-17
1.88955e-17
3.03051e-17
4.47784e-18
-6.16485e-18
2.92771e-17
1.82198e-17
2.92097e-17
4.32359e-18
-5.9411e-18
2.82408e-17
1.75803e-17
2.81767e-17
4.17803e-18
-5.73052e-18
2.72609e-17
1.6975e-17
2.7202e-17
4.03702e-18
-5.53319e-18
2.63409e-17
1.64077e-17
2.62846e-17
3.90699e-18
-5.34624e-18
2.5475e-17
1.58733e-17
2.54202e-17
3.78503e-18
-5.16841e-18
2.46488e-17
1.53644e-17
2.45995e-17
3.66874e-18
-5.00096e-18
2.38606e-17
1.48776e-17
2.38191e-17
3.55582e-18
-4.84279e-18
2.30979e-17
1.43997e-17
2.30789e-17
3.44927e-18
-4.69022e-18
2.24005e-17
1.39732e-17
2.23725e-17
3.34487e-18
-4.5506e-18
2.17414e-17
1.35641e-17
2.17065e-17
3.24864e-18
-4.41473e-18
2.11105e-17
1.31736e-17
2.1074e-17
3.15845e-18
-4.28494e-18
2.05088e-17
1.28026e-17
2.04714e-17
3.07265e-18
-4.16077e-18
1.99357e-17
1.24499e-17
1.98977e-17
2.99164e-18
-4.04181e-18
-1.86543e-16
1.93886e-17
1.21115e-17
1.93493e-17
2.91408e-18
-3.9284e-18
-1.81322e-16
1.8865e-17
1.17868e-17
1.88238e-17
2.83878e-18
-3.82039e-18
-1.76328e-16
1.83633e-17
1.14778e-17
1.8322e-17
2.76803e-18
-3.71567e-18
-1.71546e-16
1.78855e-17
1.11815e-17
1.78396e-17
2.69702e-18
-3.61751e-18
-1.6697e-16
1.74233e-17
1.08945e-17
1.73763e-17
2.63003e-18
-3.52225e-18
-1.62589e-16
1.69722e-17
1.0613e-17
1.69265e-17
2.56348e-18
-3.43187e-18
)
;
    }
    axis
    {
        type            empty;
        value           nonuniform 0();
    }
    procBoundary42to36
    {
        type            processor;
        value           nonuniform List<scalar> 
69
(
6.00828e-07
5.84062e-07
5.68029e-07
5.52682e-07
5.37978e-07
5.2388e-07
0.00011581
0.00012119
9.94827e-05
7.49307e-05
5.58042e-05
4.22781e-05
3.27592e-05
2.59552e-05
2.09787e-05
1.7252e-05
1.43994e-05
1.21728e-05
1.04045e-05
8.97905e-06
7.81467e-06
6.85251e-06
6.04934e-06
5.37285e-06
4.79849e-06
4.30737e-06
3.88471e-06
3.51886e-06
3.20051e-06
2.92214e-06
2.67765e-06
2.462e-06
2.27106e-06
2.10136e-06
1.95003e-06
1.81462e-06
1.69309e-06
1.58367e-06
1.48487e-06
1.39541e-06
1.31419e-06
1.24026e-06
1.17278e-06
1.11105e-06
1.05444e-06
1.00241e-06
9.54471e-07
9.10208e-07
8.69251e-07
8.31275e-07
7.95991e-07
7.63142e-07
7.32503e-07
7.03872e-07
6.77069e-07
6.51933e-07
6.28321e-07
6.06104e-07
5.85166e-07
5.65405e-07
5.46727e-07
5.29047e-07
5.1229e-07
4.96386e-07
4.81274e-07
4.66897e-07
4.53203e-07
-5.9209e-05
4.40145e-07
)
;
    }
    procBoundary42to37
    {
        type            processor;
        value           uniform 5.82389e-05;
    }
    procBoundary42to43
    {
        type            processor;
        value           nonuniform List<scalar> 5(4.88505e-05 3.89379e-05 2.84941e-05 1.7512e-05 5.98426e-06);
    }
}


// ************************************************************************* //
