/*--------------------------------*- C++ -*----------------------------------*\
  =========                 |
  \\      /  F ield         | OpenFOAM: The Open Source CFD Toolbox
   \\    /   O peration     | Website:  https://openfoam.org
    \\  /    A nd           | Version:  7
     \\/     M anipulation  |
\*---------------------------------------------------------------------------*/
FoamFile
{
    version     2.0;
    format      ascii;
    class       volVectorField;
    location    "28.000462";
    object      U;
}
// * * * * * * * * * * * * * * * * * * * * * * * * * * * * * * * * * * * * * //

dimensions      [0 1 -1 0 0 0 0];

internalField   nonuniform List<vector> 
5800
(
(0.0155216 -0.00325366 -4.20783e-22)
(0.0216268 -0.00971478 -1.29242e-20)
(0.033812 -0.0160356 1.91608e-20)
(0.0520254 -0.0221171 6.15988e-21)
(0.0761844 -0.0278533 -1.6312e-20)
(0.022831 -0.00290284 2.39756e-21)
(0.0275355 -0.00273068 2.20126e-21)
(0.0320811 -0.00262815 -4.09932e-21)
(0.0366007 -0.00256507 1.94006e-21)
(0.0411349 -0.00252971 -1.12198e-21)
(0.0457214 -0.00251658 -3.81179e-22)
(0.050398 -0.00252061 2.17918e-21)
(0.0551955 -0.00253757 -3.14093e-21)
(0.0601385 -0.00256424 1.37031e-21)
(0.0652476 -0.00259806 1.25097e-21)
(0.0705401 -0.00263693 -2.56631e-21)
(0.07603 -0.0026791 -3.41674e-23)
(0.0817288 -0.00272309 2.05433e-21)
(0.0876453 -0.0027676 -1.61557e-22)
(0.0937864 -0.00281154 -8.33532e-22)
(0.100156 -0.00285396 7.27659e-22)
(0.106758 -0.00289406 -3.4135e-22)
(0.113592 -0.00293114 4.55687e-22)
(0.120658 -0.00296466 -3.35161e-22)
(0.127953 -0.00299416 -2.20166e-22)
(0.135472 -0.0030193 9.34395e-22)
(0.143212 -0.00303982 -2.80722e-22)
(0.151166 -0.00305556 -6.04942e-22)
(0.159327 -0.00306642 3.9349e-22)
(0.167687 -0.00307238 1.22251e-22)
(0.176237 -0.00307345 -4.65776e-22)
(0.184967 -0.00306972 5.29028e-22)
(0.193869 -0.00306129 -4.26959e-22)
(0.202932 -0.00304832 -2.86781e-22)
(0.212146 -0.00303098 8.23897e-22)
(0.221499 -0.00300947 -5.63743e-22)
(0.230981 -0.002984 -9.11588e-23)
(0.240581 -0.0029548 1.13962e-22)
(0.250288 -0.00292209 6.32397e-24)
(0.26009 -0.00288613 2.7253e-22)
(0.269978 -0.00284716 -3.50454e-22)
(0.279939 -0.00280543 2.9042e-22)
(0.289964 -0.00276117 -3.19001e-24)
(0.300041 -0.00271463 -1.70352e-23)
(0.31016 -0.00266606 -2.98092e-23)
(0.320312 -0.00261569 1.80122e-22)
(0.330486 -0.00256374 -7.19659e-24)
(0.340674 -0.00251043 -7.1191e-23)
(0.350865 -0.00245599 -3.14571e-23)
(0.361051 -0.00240061 1.74452e-23)
(0.371223 -0.00234449 -8.94828e-23)
(0.381374 -0.00228783 1.10589e-22)
(0.391496 -0.00223078 -2.79801e-23)
(0.401582 -0.00217354 5.68074e-23)
(0.411624 -0.00211625 -1.86083e-23)
(0.421616 -0.00205906 1.60823e-24)
(0.431552 -0.00200212 6.71386e-24)
(0.441427 -0.00194556 -3.03215e-23)
(0.451236 -0.00188949 3.33442e-23)
(0.460973 -0.00183403 -2.82708e-23)
(0.470635 -0.00177929 2.47281e-24)
(0.480218 -0.00172535 1.6575e-23)
(0.489719 -0.00167232 -7.39181e-25)
(0.499133 -0.00162026 -6.1073e-24)
(0.508463 -0.00156925 -3.03407e-24)
(0.517696 -0.00151936 -1.37572e-24)
(0.526855 -0.00147056 3.33961e-24)
(0.535881 -0.00142312 -2.5847e-24)
(0.544905 -0.00137637 -1.52091e-24)
(0.553634 -0.00133204 3.10124e-25)
(0.562703 -0.00128542 -3.00772e-25)
(0.570741 -0.00124783 -3.63146e-26)
(0.580647 -0.00119064 9.02682e-25)
(0.586349 -0.00117891 3.18226e-25)
(0.600303 -0.00106789 -9.45964e-25)
(0.0290634 -0.00866387 -9.23971e-22)
(0.0336606 -0.00815628 -1.57221e-21)
(0.0381129 -0.00785461 -1.45013e-21)
(0.0425718 -0.00766825 2.34655e-22)
(0.0470543 -0.00756384 -9.89164e-22)
(0.0515923 -0.00752552 8.08872e-21)
(0.0562237 -0.00753832 -5.86915e-21)
(0.0609783 -0.00758967 4.22008e-21)
(0.06588 -0.00766998 -3.22537e-21)
(0.0709486 -0.00777163 -2.10288e-21)
(0.0762007 -0.00788836 2.12526e-21)
(0.0816502 -0.00801491 2.04423e-21)
(0.0873079 -0.00814682 -4.55019e-21)
(0.0931825 -0.00828026 1.0414e-21)
(0.0992802 -0.0084119 -1.79382e-21)
(0.105605 -0.00853893 1.86947e-21)
(0.11216 -0.00865893 -4.30824e-22)
(0.118946 -0.00876986 3.30417e-21)
(0.12596 -0.00887008 -1.3843e-21)
(0.133201 -0.00895824 4.36878e-22)
(0.140664 -0.00903333 6.82795e-22)
(0.148346 -0.0090946 -2.17061e-21)
(0.156238 -0.00914155 2.66269e-22)
(0.164335 -0.0091739 -3.18309e-22)
(0.172628 -0.00919158 9.40215e-24)
(0.181108 -0.00919468 2.40487e-22)
(0.189768 -0.00918341 9.2625e-22)
(0.198596 -0.00915812 -3.27506e-22)
(0.207583 -0.00911926 -6.84211e-22)
(0.216719 -0.00906735 1.23791e-21)
(0.225993 -0.00900297 -2.04439e-21)
(0.235394 -0.00892677 5.14046e-22)
(0.244912 -0.00883942 1.6381e-21)
(0.254535 -0.00874162 -1.08512e-21)
(0.264254 -0.00863409 -4.15487e-22)
(0.274056 -0.00851757 6.18962e-22)
(0.283931 -0.00839278 -1.00333e-21)
(0.293869 -0.00826047 1.39773e-21)
(0.303859 -0.00812135 -5.83216e-22)
(0.313892 -0.00797614 -1.58689e-22)
(0.323956 -0.00782555 1.21533e-22)
(0.334044 -0.00767025 -2.2548e-24)
(0.344144 -0.0075109 5.62265e-23)
(0.354248 -0.00734814 -2.11245e-23)
(0.364348 -0.00718258 1.2654e-22)
(0.374436 -0.00701482 -7.60302e-23)
(0.384502 -0.00684541 1.29497e-22)
(0.39454 -0.00667488 -1.79579e-22)
(0.404542 -0.00650373 -4.0062e-23)
(0.414501 -0.00633245 -5.90497e-23)
(0.424412 -0.00616147 1.63656e-22)
(0.434268 -0.00599123 -1.88042e-22)
(0.444064 -0.0058221 -4.73332e-23)
(0.453795 -0.00565445 5.25086e-23)
(0.463456 -0.00548863 -9.68838e-24)
(0.473042 -0.00532494 -1.36935e-23)
(0.482551 -0.00516367 -6.09727e-24)
(0.491979 -0.00500508 5.9196e-24)
(0.501322 -0.00484942 -2.79955e-23)
(0.510581 -0.00469687 1.99379e-23)
(0.519745 -0.00454767 2.8833e-24)
(0.528837 -0.00440175 -8.48539e-25)
(0.537797 -0.00425986 5.91017e-24)
(0.546757 -0.00412006 -3.60003e-24)
(0.555423 -0.00398753 -1.18116e-25)
(0.564431 -0.0038481 -8.27541e-26)
(0.572411 -0.00373576 -5.12417e-25)
(0.582254 -0.00356472 1.43485e-24)
(0.587912 -0.00352976 9.17202e-25)
(0.601784 -0.00319826 8.18383e-24)
(0.0414946 -0.0142897 3.75788e-23)
(0.0458771 -0.0134728 4.78446e-21)
(0.0501414 -0.0129898 8.91402e-22)
(0.0544766 -0.012689 -9.28096e-21)
(0.0588536 -0.0125207 -5.56513e-21)
(0.0632926 -0.0124607 5.12686e-21)
(0.0678318 -0.0124846 1.1564e-20)
(0.0724993 -0.0125719 -6.40422e-21)
(0.0773169 -0.0127069 -2.3346e-21)
(0.0823032 -0.0128771 1.30872e-21)
(0.0874738 -0.0130721 2.80509e-21)
(0.0928414 -0.0132832 -3.80868e-21)
(0.0984163 -0.013503 4.12766e-21)
(0.104206 -0.013725 -3.56945e-21)
(0.110217 -0.0139438 6.81646e-21)
(0.116451 -0.0141548 -6.47676e-21)
(0.122912 -0.0143539 1.07427e-21)
(0.129599 -0.0145377 -8.30097e-21)
(0.13651 -0.0147037 3.1084e-21)
(0.143643 -0.0148495 -2.05734e-21)
(0.150994 -0.0149736 9.97759e-22)
(0.158557 -0.0150747 7.21837e-21)
(0.166326 -0.0151521 -3.81303e-21)
(0.174294 -0.0152053 1.23287e-21)
(0.182453 -0.0152342 -3.23354e-21)
(0.190796 -0.0152389 2.72403e-21)
(0.199312 -0.0152199 -3.58992e-21)
(0.207994 -0.0151778 1.53611e-21)
(0.21683 -0.0151132 -3.88156e-22)
(0.225811 -0.015027 1.09467e-21)
(0.234926 -0.0149203 1.02319e-21)
(0.244166 -0.014794 1.28808e-21)
(0.25352 -0.0146493 -1.12488e-21)
(0.262977 -0.0144873 2.02357e-22)
(0.272527 -0.0143093 -5.37259e-22)
(0.28216 -0.0141164 1.00147e-21)
(0.291864 -0.0139099 -5.46044e-22)
(0.30163 -0.0136909 2.34695e-22)
(0.311447 -0.0134606 -1.07024e-21)
(0.321307 -0.0132203 2.3877e-22)
(0.331198 -0.0129711 3.80723e-22)
(0.341112 -0.012714 -6.82698e-22)
(0.35104 -0.0124503 5.11128e-22)
(0.360973 -0.012181 5.38149e-22)
(0.370902 -0.011907 -3.56559e-22)
(0.38082 -0.0116293 -9.9324e-23)
(0.390717 -0.0113489 -2.92331e-22)
(0.400588 -0.0110667 6.53041e-23)
(0.410425 -0.0107834 8.84975e-23)
(0.420221 -0.0104999 1.80214e-22)
(0.429971 -0.0102169 -1.96543e-22)
(0.439668 -0.00993503 1.22506e-22)
(0.449307 -0.00965504 7.79083e-23)
(0.458883 -0.00937751 -8.19886e-23)
(0.468391 -0.00910297 5.24301e-24)
(0.477828 -0.00883196 6.04994e-23)
(0.487189 -0.00856494 -2.2039e-23)
(0.496473 -0.00830236 1.34527e-24)
(0.505674 -0.00804461 3.06478e-23)
(0.514794 -0.00779201 -5.67927e-25)
(0.523822 -0.00754496 3.09702e-23)
(0.53278 -0.00730332 -2.22218e-23)
(0.54161 -0.00706838 -6.39243e-24)
(0.550441 -0.00683687 1.31693e-23)
(0.558983 -0.00661748 -3.70235e-24)
(0.567868 -0.00638654 1.00963e-24)
(0.575734 -0.00620078 4.90313e-25)
(0.585453 -0.00591744 -5.97592e-24)
(0.591024 -0.00586 -2.34518e-24)
(0.604735 -0.00531259 -1.4126e-23)
(0.0600562 -0.0196854 2.35391e-23)
(0.0641172 -0.0186017 -1.8236e-20)
(0.0680956 -0.0179672 -3.84727e-21)
(0.07224 -0.0175673 1.9961e-20)
(0.0764533 -0.0173446 -1.40447e-20)
(0.0807391 -0.0172694 2.40173e-21)
(0.0851356 -0.0173089 8.23427e-21)
(0.0896688 -0.0174352 -6.86477e-21)
(0.0943573 -0.0176271 -6.30908e-21)
(0.0992176 -0.0178673 1.03791e-20)
(0.104263 -0.0181416 3.16741e-21)
(0.109506 -0.0184377 -3.81361e-21)
(0.114955 -0.0187453 -3.70583e-21)
(0.120616 -0.0190556 2.72041e-22)
(0.126494 -0.0193609 7.90844e-21)
(0.132591 -0.0196547 -4.02159e-21)
(0.138909 -0.0199315 -4.40434e-22)
(0.145447 -0.0201869 -4.05707e-21)
(0.152202 -0.020417 -2.17246e-22)
(0.159172 -0.0206189 1.60075e-21)
(0.166351 -0.0207905 3.71917e-21)
(0.173736 -0.0209301 -4.03969e-21)
(0.181319 -0.0210367 3.30504e-21)
(0.189094 -0.0211097 -1.85941e-21)
(0.197053 -0.0211491 -8.25526e-22)
(0.205188 -0.021155 -3.57411e-22)
(0.21349 -0.0211281 2.03599e-21)
(0.221951 -0.0210691 2.10534e-21)
(0.23056 -0.0209792 -4.04559e-21)
(0.23931 -0.0208594 -7.76456e-22)
(0.248189 -0.0207112 3.55794e-21)
(0.257189 -0.020536 -1.19117e-21)
(0.266298 -0.0203353 -2.01413e-21)
(0.275508 -0.0201108 8.68845e-22)
(0.284807 -0.0198641 -1.09363e-21)
(0.294187 -0.0195968 1.11001e-21)
(0.303637 -0.0193106 -5.98975e-22)
(0.313147 -0.0190072 2.23448e-21)
(0.322708 -0.0186883 2.23509e-22)
(0.332311 -0.0183554 -1.44022e-22)
(0.341945 -0.0180102 -6.73354e-22)
(0.351603 -0.0176542 -9.89253e-22)
(0.361275 -0.0172889 -2.22923e-22)
(0.370953 -0.0169158 1.05347e-21)
(0.380629 -0.0165363 1.13485e-22)
(0.390294 -0.0161516 -3.94415e-22)
(0.399943 -0.0157632 9.20123e-23)
(0.409566 -0.0153721 5.50661e-23)
(0.419159 -0.0149796 3.24579e-22)
(0.428713 -0.0145868 -1.77525e-22)
(0.438223 -0.0141946 -1.08324e-22)
(0.447685 -0.013804 1.88968e-23)
(0.457091 -0.013416 2.88971e-22)
(0.466438 -0.0130314 -1.55252e-22)
(0.475721 -0.0126509 -1.60943e-22)
(0.484936 -0.0122752 5.37061e-23)
(0.49408 -0.0119051 1.81731e-23)
(0.503149 -0.0115411 4.51978e-24)
(0.512141 -0.0111837 -8.1406e-23)
(0.521055 -0.0108335 3.80728e-23)
(0.529881 -0.010491 -8.26619e-24)
(0.538642 -0.010156 8.60686e-24)
(0.547279 -0.00983029 -1.50091e-23)
(0.555921 -0.00950926 -1.23306e-23)
(0.564279 -0.00920525 5.15369e-24)
(0.572983 -0.00888493 -8.51452e-25)
(0.580678 -0.00862792 -2.17119e-24)
(0.590214 -0.00823488 6.00091e-24)
(0.595657 -0.00815616 1.13353e-24)
(0.609128 -0.00740032 2.30324e-23)
(0.0846421 -0.0247482 1.92895e-20)
(0.088276 -0.0234559 -7.16316e-21)
(0.0918669 -0.022712 4.31135e-21)
(0.0957472 -0.022236 -2.95966e-20)
(0.0997332 -0.0219734 1.37616e-20)
(0.103807 -0.0218936 -1.76341e-20)
(0.108006 -0.0219563 1.95325e-20)
(0.112353 -0.0221271 -1.78198e-20)
(0.116864 -0.0223798 -4.12182e-21)
(0.121552 -0.0226929 3.50592e-20)
(0.126427 -0.0230483 -1.91646e-20)
(0.1315 -0.0234305 1.5756e-20)
(0.136777 -0.0238263 -3.58732e-21)
(0.142263 -0.0242244 -3.28434e-22)
(0.147961 -0.0246153 -9.20125e-21)
(0.153872 -0.0249906 -3.82318e-21)
(0.159997 -0.0253435 -1.72786e-21)
(0.166332 -0.0256684 4.45849e-21)
(0.172877 -0.0259606 -1.06076e-20)
(0.179626 -0.0262167 5.25398e-21)
(0.186576 -0.0264338 -2.7202e-21)
(0.193721 -0.0266102 1.42508e-21)
(0.201055 -0.0267445 2.76238e-21)
(0.20857 -0.0268362 5.17357e-21)
(0.216261 -0.0268852 -3.29454e-21)
(0.224118 -0.0268918 -2.6839e-21)
(0.232135 -0.0268569 2.09656e-21)
(0.240303 -0.0267815 3.21503e-22)
(0.248612 -0.0266668 2.00239e-21)
(0.257054 -0.0265145 -1.63739e-21)
(0.265621 -0.0263262 -2.02131e-21)
(0.274302 -0.0261039 3.19362e-21)
(0.283088 -0.0258493 -2.65591e-21)
(0.291971 -0.0255646 1.76486e-21)
(0.30094 -0.0252518 6.17893e-22)
(0.309987 -0.024913 -1.05325e-21)
(0.319101 -0.0245503 -5.94888e-22)
(0.328275 -0.0241658 7.73347e-22)
(0.337499 -0.0237617 -1.29642e-21)
(0.346763 -0.0233398 3.45066e-22)
(0.35606 -0.0229023 -4.18992e-22)
(0.365381 -0.0224512 1.51479e-22)
(0.374717 -0.0219882 -1.34016e-22)
(0.384061 -0.0215153 6.16679e-22)
(0.393405 -0.0210342 -5.73201e-22)
(0.402741 -0.0205466 3.68809e-22)
(0.412062 -0.0200542 -6.84584e-22)
(0.421362 -0.0195584 2.38673e-22)
(0.430634 -0.0190607 6.10113e-22)
(0.439872 -0.0185626 -4.67397e-22)
(0.44907 -0.0180652 -2.86883e-22)
(0.458222 -0.0175699 3.56764e-22)
(0.467324 -0.0170777 -2.53437e-22)
(0.476372 -0.0165898 1.26715e-22)
(0.48536 -0.016107 1.96745e-23)
(0.494285 -0.0156304 2.84885e-23)
(0.503144 -0.0151608 -1.48562e-22)
(0.511934 -0.0146989 4.76943e-23)
(0.520651 -0.0142454 -2.17901e-24)
(0.529296 -0.013801 5.53885e-23)
(0.537859 -0.0133663 -8.29981e-23)
(0.546361 -0.0129411 3.06537e-23)
(0.554745 -0.0125278 8.4926e-24)
(0.563141 -0.0121203 6.31185e-24)
(0.571259 -0.0117347 -6.41167e-25)
(0.579724 -0.011328 2.3035e-24)
(0.587198 -0.0110027 -9.86352e-25)
(0.596493 -0.0105035 4.86975e-24)
(0.601768 -0.0104051 -5.25248e-24)
(0.614925 -0.00945111 -5.69765e-23)
(0.115104 -0.0293656 -8.87208e-21)
(0.118207 -0.0279373 7.81038e-21)
(0.121305 -0.0271397 5.17575e-21)
(0.124842 -0.0266189 -3.41785e-20)
(0.128531 -0.0263376 3.48853e-20)
(0.132327 -0.0262691 -4.04028e-22)
(0.136268 -0.0263668 -2.28989e-20)
(0.140375 -0.0265908 1.40675e-20)
(0.144656 -0.0269107 4.01851e-21)
(0.149121 -0.0273014 4.08907e-21)
(0.153778 -0.0277411 -1.60946e-20)
(0.158633 -0.0282113 -1.36678e-20)
(0.16369 -0.0286961 4.94941e-21)
(0.168952 -0.029182 1.243e-20)
(0.17442 -0.0296575 -7.31697e-21)
(0.180094 -0.0301128 1.94368e-20)
(0.185971 -0.0305399 -2.08784e-20)
(0.19205 -0.0309321 2.23523e-20)
(0.198327 -0.0312842 -6.23948e-21)
(0.204797 -0.0315921 -1.50212e-20)
(0.211456 -0.0318527 1.26581e-20)
(0.218298 -0.0320639 -1.32277e-21)
(0.225317 -0.0322244 -1.98002e-21)
(0.232507 -0.0323337 5.4857e-21)
(0.239861 -0.0323916 -3.97313e-21)
(0.247372 -0.0323987 -8.76581e-21)
(0.255032 -0.0323561 7.0178e-21)
(0.262834 -0.0322648 -1.62335e-21)
(0.27077 -0.0321267 -1.38005e-21)
(0.278831 -0.0319435 2.69077e-21)
(0.287009 -0.0317172 5.03044e-21)
(0.295296 -0.0314502 -1.58549e-21)
(0.303683 -0.0311446 -8.8353e-21)
(0.312162 -0.0308029 6.45525e-21)
(0.320724 -0.0304276 -3.10761e-21)
(0.329361 -0.0300211 9.86871e-22)
(0.338063 -0.0295859 2.24869e-21)
(0.346823 -0.0291246 -8.76512e-22)
(0.355633 -0.0286397 -3.80016e-23)
(0.364483 -0.0281336 5.16172e-22)
(0.373366 -0.0276086 -1.57731e-21)
(0.382274 -0.0270672 -6.95242e-22)
(0.391199 -0.0265115 1.6804e-21)
(0.400134 -0.0259439 3.92959e-22)
(0.409072 -0.0253664 -1.04149e-21)
(0.418005 -0.024781 3.74828e-22)
(0.426926 -0.0241897 -2.69301e-22)
(0.435831 -0.0235943 -6.35206e-22)
(0.444711 -0.0229966 -4.88685e-23)
(0.453562 -0.0223982 7.14041e-22)
(0.462378 -0.0218007 3.02799e-22)
(0.471154 -0.0212056 2.97791e-22)
(0.479885 -0.0206141 -1.62639e-22)
(0.488567 -0.0200277 2.78997e-22)
(0.497196 -0.0194475 -3.60956e-22)
(0.505768 -0.0188746 1.80539e-22)
(0.514279 -0.01831 -1.5732e-22)
(0.522728 -0.0177547 8.87133e-24)
(0.53111 -0.0172094 9.41694e-23)
(0.539428 -0.016675 -8.18131e-23)
(0.547669 -0.0161523 4.21931e-23)
(0.555857 -0.0156409 -2.92462e-23)
(0.563933 -0.015144 -4.39092e-23)
(0.572027 -0.0146538 -1.48318e-23)
(0.579852 -0.0141905 2.0882e-24)
(0.588027 -0.013701 -2.91265e-25)
(0.595231 -0.0133112 -2.09567e-24)
(0.604232 -0.0127104 5.70806e-24)
(0.609303 -0.0125943 3.20468e-24)
(0.622076 -0.0114549 2.74965e-23)
(0.151245 -0.0334146 2.96988e-20)
(0.153718 -0.0319371 -2.22947e-20)
(0.156215 -0.0311545 3.63965e-20)
(0.159323 -0.0306302 -1.36564e-20)
(0.16264 -0.0303591 1.06247e-20)
(0.166088 -0.0303244 -2.73955e-20)
(0.169708 -0.0304743 4.38746e-21)
(0.173514 -0.0307646 -9.2632e-22)
(0.17751 -0.0311616 6.00662e-21)
(0.181698 -0.0316371 1.6017e-20)
(0.186084 -0.0321661 -1.29731e-20)
(0.19067 -0.0327275 8.84805e-21)
(0.195456 -0.0333029 5.05672e-21)
(0.200442 -0.0338769 1.75431e-21)
(0.205627 -0.0344363 -1.49538e-20)
(0.211008 -0.0349701 8.24739e-21)
(0.216583 -0.0354693 -1.19465e-20)
(0.222347 -0.0359265 1.48296e-21)
(0.228296 -0.0363361 -2.4658e-22)
(0.234425 -0.0366934 1.44182e-20)
(0.24073 -0.0369954 -1.2259e-20)
(0.247205 -0.0372398 -1.56913e-21)
(0.253844 -0.0374252 -2.62459e-21)
(0.260641 -0.0375511 1.17118e-20)
(0.26759 -0.0376177 -4.23003e-21)
(0.274685 -0.0376256 -3.87181e-21)
(0.281918 -0.0375759 -2.24568e-21)
(0.289283 -0.0374703 8.62593e-21)
(0.296773 -0.0373106 -3.12371e-21)
(0.30438 -0.0370989 -3.95602e-21)
(0.312097 -0.0368376 -3.12241e-21)
(0.319917 -0.0365292 8.71374e-21)
(0.327832 -0.0361764 -2.37408e-21)
(0.335834 -0.0357819 -8.08448e-22)
(0.343916 -0.0353485 -1.72734e-21)
(0.35207 -0.0348792 -1.34844e-21)
(0.360287 -0.0343767 1.3876e-21)
(0.368561 -0.033844 1.24605e-21)
(0.376884 -0.0332838 -1.33739e-21)
(0.385248 -0.0326991 -2.01141e-21)
(0.393646 -0.0320925 2.6258e-21)
(0.402071 -0.0314668 -4.023e-22)
(0.410515 -0.0308246 9.1075e-25)
(0.418972 -0.0301684 -5.23362e-22)
(0.427435 -0.0295006 8.51962e-22)
(0.435897 -0.0288236 -1.02874e-21)
(0.444353 -0.0281396 1.18962e-21)
(0.452795 -0.0274508 -3.48228e-23)
(0.461219 -0.0267592 -1.01722e-22)
(0.46962 -0.0260666 -3.0917e-22)
(0.477991 -0.025375 -3.64742e-22)
(0.486328 -0.024686 1.26888e-22)
(0.494627 -0.0240012 2.96026e-22)
(0.502883 -0.0233221 -6.65995e-22)
(0.511093 -0.02265 4.59541e-22)
(0.519254 -0.0219863 -2.42145e-22)
(0.527361 -0.0213322 8.89714e-23)
(0.535413 -0.0206887 4.95974e-23)
(0.543405 -0.0200568 -8.17509e-23)
(0.551341 -0.0194374 -1.61645e-23)
(0.559208 -0.0188316 4.64285e-23)
(0.56703 -0.0182389 -1.52481e-23)
(0.574747 -0.0176629 1.91849e-23)
(0.582491 -0.0170947 3.94557e-23)
(0.589975 -0.0165582 3.2141e-24)
(0.597812 -0.0159904 1.47368e-24)
(0.604702 -0.0155404 1.14268e-24)
(0.613361 -0.0148433 -4.04079e-24)
(0.618195 -0.0147117 -2.91416e-24)
(0.630519 -0.0134019 -1.71504e-24)
(0.192811 -0.0367655 1.57581e-20)
(0.194558 -0.035337 3.1971e-20)
(0.196349 -0.0346509 -3.74294e-20)
(0.198941 -0.0341746 -8.81632e-22)
(0.201807 -0.0339518 8.06845e-21)
(0.204833 -0.0339814 -7.12139e-21)
(0.208062 -0.0342076 -1.44041e-20)
(0.211506 -0.0345825 -1.60279e-21)
(0.215157 -0.0350705 3.45123e-20)
(0.219014 -0.035641 -1.35183e-21)
(0.223074 -0.0362666 -2.96951e-21)
(0.227336 -0.0369237 -5.20232e-21)
(0.231796 -0.0375922 4.56163e-21)
(0.236451 -0.0382551 -3.54207e-21)
(0.241296 -0.0388979 4.64188e-21)
(0.246327 -0.0395089 -1.25562e-20)
(0.251538 -0.0400783 -1.00367e-20)
(0.256926 -0.0405984 1.43836e-20)
(0.262484 -0.0410632 9.12757e-22)
(0.268209 -0.041468 -6.60916e-21)
(0.274094 -0.0418096 1.48106e-20)
(0.280135 -0.0420858 -2.36275e-21)
(0.286326 -0.0422953 -1.20051e-21)
(0.292662 -0.0424378 -1.21291e-20)
(0.299137 -0.0425134 9.74132e-22)
(0.305746 -0.0425231 1.00703e-20)
(0.312483 -0.0424682 -4.1013e-21)
(0.319341 -0.0423505 -6.27688e-21)
(0.326316 -0.0421721 4.06408e-21)
(0.3334 -0.0419354 -1.03316e-21)
(0.340587 -0.0416429 1.22891e-21)
(0.34787 -0.0412976 3.67463e-21)
(0.355243 -0.0409024 -9.92101e-22)
(0.3627 -0.0404604 -4.6319e-21)
(0.370233 -0.0399746 4.89522e-21)
(0.377835 -0.0394483 8.91317e-22)
(0.3855 -0.0388847 1.15749e-21)
(0.393221 -0.0382869 -5.78669e-22)
(0.400992 -0.0376582 -5.22244e-21)
(0.408804 -0.0370017 2.49235e-21)
(0.416652 -0.0363205 3.9799e-22)
(0.424529 -0.0356176 -1.3669e-22)
(0.432429 -0.0348959 4.74312e-22)
(0.440345 -0.0341582 1.50103e-22)
(0.448271 -0.0334074 -3.01549e-22)
(0.456202 -0.032646 1.47643e-22)
(0.464131 -0.0318765 2.24683e-22)
(0.472052 -0.0311014 -3.73672e-22)
(0.479962 -0.0303229 1.95252e-22)
(0.487854 -0.0295432 2.61859e-22)
(0.495724 -0.0287644 -3.07327e-22)
(0.503567 -0.0279883 -2.55909e-22)
(0.511379 -0.0272168 1.09622e-22)
(0.519156 -0.0264515 5.57908e-23)
(0.526895 -0.0256941 1.75607e-23)
(0.534592 -0.0249459 1.30127e-22)
(0.542244 -0.0242084 -5.0942e-23)
(0.549849 -0.0234828 -3.28348e-22)
(0.557404 -0.0227702 -5.16867e-23)
(0.56491 -0.0220716 -3.72025e-23)
(0.572356 -0.0213883 4.41207e-23)
(0.579766 -0.0207196 3.12361e-23)
(0.58708 -0.0200701 -4.52873e-23)
(0.594429 -0.0194289 -4.44486e-24)
(0.60153 -0.0188244 -1.17145e-23)
(0.608987 -0.0181834 -7.49161e-24)
(0.615524 -0.0176782 -1.48157e-24)
(0.623796 -0.016891 8.1973e-24)
(0.628366 -0.0167463 -9.77289e-25)
(0.640181 -0.0152831 9.61962e-24)
(0.239486 -0.0392838 -3.11972e-20)
(0.24042 -0.0380119 3.82417e-20)
(0.241403 -0.0375154 4.85346e-20)
(0.243392 -0.0371495 -5.58832e-20)
(0.245727 -0.0370232 -3.42848e-20)
(0.248257 -0.037157 2.47e-20)
(0.251028 -0.037491 2.26058e-20)
(0.254045 -0.0379749 3.1551e-20)
(0.257292 -0.0385725 -3.71778e-20)
(0.260758 -0.0392516 -2.7693e-22)
(0.264435 -0.0399832 -2.77281e-20)
(0.268316 -0.0407421 8.01427e-21)
(0.272392 -0.0415072 2.14055e-20)
(0.276656 -0.0422603 -1.66303e-21)
(0.281099 -0.0429866 -1.18616e-20)
(0.285717 -0.0436738 3.33519e-21)
(0.290502 -0.0443119 6.67596e-21)
(0.295447 -0.0448931 -1.13987e-20)
(0.300549 -0.0454114 2.40049e-20)
(0.305802 -0.0458622 -1.1151e-20)
(0.311199 -0.0462425 -5.94113e-21)
(0.316738 -0.0465501 1.36282e-20)
(0.322413 -0.0467839 -1.29654e-20)
(0.328219 -0.0469437 4.36557e-21)
(0.334152 -0.0470299 1.65566e-21)
(0.340207 -0.0470436 4.99029e-21)
(0.346379 -0.0469863 -3.83433e-21)
(0.352664 -0.04686 -5.59348e-21)
(0.359056 -0.0466669 1.58828e-21)
(0.365549 -0.0464098 -2.45327e-21)
(0.37214 -0.0460914 1.12091e-20)
(0.378822 -0.0457148 -4.40019e-21)
(0.385589 -0.0452833 -6.81753e-21)
(0.392436 -0.0448002 8.94718e-21)
(0.399357 -0.0442688 -5.41577e-21)
(0.406346 -0.0436926 -1.12126e-21)
(0.413397 -0.0430752 2.72567e-21)
(0.420505 -0.04242 -9.92424e-22)
(0.427663 -0.0417305 2.10535e-21)
(0.434864 -0.0410101 -8.38451e-22)
(0.442104 -0.0402622 1.56164e-21)
(0.449377 -0.0394901 -3.38653e-21)
(0.456676 -0.038697 2.19817e-21)
(0.463996 -0.0378861 1.20972e-21)
(0.471331 -0.0370604 -2.271e-21)
(0.478676 -0.0362226 -9.12239e-24)
(0.486026 -0.0353758 1.37102e-21)
(0.493376 -0.0345223 -1.68281e-21)
(0.500719 -0.0336649 1.80055e-21)
(0.508053 -0.0328059 -4.69182e-22)
(0.515373 -0.0319476 8.21469e-23)
(0.522674 -0.031092 -7.52281e-23)
(0.529952 -0.0302413 1.40408e-23)
(0.537203 -0.0293972 -2.89063e-22)
(0.544425 -0.0285615 3.43823e-22)
(0.551614 -0.0277359 1.14302e-22)
(0.558768 -0.0269219 5.05359e-23)
(0.565884 -0.0261209 -5.73636e-24)
(0.572958 -0.0253341 2.36218e-22)
(0.579994 -0.0245627 -1.57051e-22)
(0.586978 -0.0238081 1.26237e-22)
(0.593937 -0.0230695 -1.79378e-23)
(0.60081 -0.0223523 6.15445e-23)
(0.607726 -0.0216439 -1.21526e-23)
(0.614407 -0.0209771 -2.53847e-24)
(0.621448 -0.0202685 3.19908e-24)
(0.627599 -0.0197135 -1.13183e-24)
(0.635446 -0.0188432 -1.22799e-23)
(0.639727 -0.0186878 2.69957e-24)
(0.650982 -0.0170896 2.02508e-23)
(0.290923 -0.0398325 -4.78995e-21)
(0.29101 -0.0396301 -8.14492e-20)
(0.292315 -0.0394484 8.77933e-20)
(0.294044 -0.0394779 -4.42607e-20)
(0.296008 -0.0397655 -3.68513e-21)
(0.298256 -0.040247 3.45509e-20)
(0.300784 -0.0408706 -3.6818e-20)
(0.303567 -0.0416008 -5.28824e-21)
(0.306583 -0.0424053 2.68217e-20)
(0.309818 -0.0432545 -6.06027e-21)
(0.313257 -0.0441228 -2.73006e-20)
(0.316886 -0.0449887 4.68224e-20)
(0.320694 -0.0458342 -1.27778e-20)
(0.324671 -0.0466444 -1.98296e-20)
(0.328808 -0.0474073 2.24423e-20)
(0.333098 -0.0481132 2.4563e-21)
(0.337533 -0.0487545 -1.01228e-20)
(0.342108 -0.0493256 -1.14702e-20)
(0.346818 -0.0498221 -1.32719e-20)
(0.351659 -0.0502412 7.19009e-21)
(0.356626 -0.050581 4.79307e-21)
(0.361715 -0.0508407 7.86594e-21)
(0.366923 -0.0510201 -1.13268e-20)
(0.372246 -0.0511199 6.53179e-21)
(0.377681 -0.0511413 -9.67484e-22)
(0.383223 -0.0510859 -5.56361e-21)
(0.388869 -0.0509559 3.73248e-21)
(0.394615 -0.0507538 3.62915e-22)
(0.400456 -0.0504823 -7.58054e-21)
(0.406389 -0.0501445 2.39032e-21)
(0.412409 -0.0497437 4.66952e-21)
(0.418511 -0.0492833 -2.80711e-21)
(0.424691 -0.0487668 1.39479e-21)
(0.430943 -0.0481978 2.9713e-21)
(0.437263 -0.0475801 -4.68309e-21)
(0.443646 -0.0469174 2.26165e-21)
(0.450087 -0.0462134 2.45146e-21)
(0.456579 -0.0454719 -2.1432e-21)
(0.463119 -0.0446966 3.0794e-22)
(0.469701 -0.043891 -2.73859e-21)
(0.47632 -0.0430588 1.51003e-21)
(0.48297 -0.0422035 8.61012e-22)
(0.489646 -0.0413283 3.38216e-22)
(0.496344 -0.0404366 -1.38963e-21)
(0.503059 -0.0395315 -3.11509e-22)
(0.509785 -0.0386161 2.55596e-21)
(0.516518 -0.0376932 -2.26641e-22)
(0.523254 -0.0367655 -1.31448e-21)
(0.529988 -0.0358357 1.50713e-23)
(0.536716 -0.0349063 -2.1076e-22)
(0.543434 -0.0339795 1.96366e-22)
(0.550139 -0.0330576 9.87469e-23)
(0.556826 -0.0321427 1.8901e-22)
(0.563493 -0.0312366 -1.94069e-22)
(0.570138 -0.0303411 -1.67321e-23)
(0.576756 -0.0294581 -1.85408e-22)
(0.583347 -0.0285888 2.95278e-24)
(0.589906 -0.027735 -1.98739e-23)
(0.596437 -0.0268976 3.52903e-23)
(0.602928 -0.0260784 -7.26844e-23)
(0.609402 -0.0252765 -7.42547e-23)
(0.615802 -0.024498 2.18008e-23)
(0.622255 -0.0237286 -5.30396e-23)
(0.628485 -0.0230057 3.90826e-23)
(0.635079 -0.0222355 -2.11206e-24)
(0.640817 -0.0216365 -4.22254e-24)
(0.648207 -0.0206906 8.35933e-24)
(0.652181 -0.0205271 1.29243e-24)
(0.66283 -0.0188134 -1.24749e-23)
(0.345612 -0.0406727 -4.67615e-20)
(0.344734 -0.0408786 2.01416e-20)
(0.345288 -0.0409663 -1.38836e-20)
(0.346349 -0.0412222 -1.2365e-20)
(0.347688 -0.0417232 2.90505e-21)
(0.349355 -0.0423996 -1.78918e-21)
(0.351339 -0.0431991 5.58148e-21)
(0.3536 -0.0440889 2.99611e-20)
(0.356107 -0.045038 -4.68128e-20)
(0.358837 -0.0460178 3.45757e-20)
(0.361769 -0.0470039 1.01382e-20)
(0.364885 -0.0479756 -5.22424e-20)
(0.368168 -0.048916 4.8404e-20)
(0.371607 -0.0498114 -1.90353e-20)
(0.375192 -0.0506503 7.08809e-22)
(0.378913 -0.0514242 1.13646e-20)
(0.382764 -0.0521259 -1.80166e-20)
(0.38674 -0.0527504 7.9313e-21)
(0.390836 -0.0532939 -1.67085e-20)
(0.395048 -0.0537538 -6.1239e-21)
(0.399373 -0.0541285 2.4796e-20)
(0.403809 -0.0544174 -3.7619e-21)
(0.408352 -0.0546206 2.6674e-21)
(0.412999 -0.0547387 7.00741e-21)
(0.41775 -0.0547732 -1.62229e-21)
(0.422599 -0.0547259 -5.89353e-21)
(0.427546 -0.0545989 -7.41761e-21)
(0.432587 -0.054395 8.20726e-21)
(0.437719 -0.0541169 4.05321e-23)
(0.442939 -0.0537679 -4.8435e-21)
(0.448242 -0.0533513 1.70566e-21)
(0.453627 -0.0528708 4.98616e-21)
(0.459088 -0.05233 -9.7246e-21)
(0.464623 -0.0517328 2.34185e-21)
(0.470226 -0.0510831 3.11975e-21)
(0.475893 -0.0503847 9.16e-22)
(0.481621 -0.0496418 -3.7512e-21)
(0.487405 -0.0488582 1.41e-23)
(0.49324 -0.0480378 -4.80022e-22)
(0.499121 -0.0471845 3.49438e-21)
(0.505045 -0.0463021 -2.18312e-21)
(0.511006 -0.0453944 -1.53073e-22)
(0.517001 -0.0444648 1.46152e-21)
(0.523024 -0.043517 -1.81687e-23)
(0.529071 -0.0425543 -1.56425e-21)
(0.535137 -0.0415799 2.1702e-21)
(0.541219 -0.0405969 -3.33181e-22)
(0.547313 -0.0396082 -1.32785e-21)
(0.553413 -0.0386168 8.24068e-22)
(0.559517 -0.0376253 -3.19644e-22)
(0.565621 -0.0366361 -1.43138e-22)
(0.571721 -0.0356517 -1.17787e-22)
(0.577814 -0.0346743 2.83717e-22)
(0.583897 -0.0337061 -4.97875e-22)
(0.589967 -0.0327489 1.09302e-22)
(0.596022 -0.0318046 -6.3051e-23)
(0.60206 -0.0308748 2.21707e-22)
(0.608078 -0.0299614 1.31945e-22)
(0.614078 -0.0290653 -1.16798e-22)
(0.620047 -0.0281887 5.44164e-23)
(0.626012 -0.0273303 8.56843e-23)
(0.631914 -0.0264974 -4.84171e-23)
(0.637879 -0.0256735 3.20029e-23)
(0.643636 -0.024901 -2.00913e-24)
(0.649759 -0.0240757 3.0031e-24)
(0.655063 -0.0234389 -2.13971e-24)
(0.66197 -0.0224254 -9.54524e-24)
(0.665623 -0.0222561 -1.58141e-24)
(0.67563 -0.0204473 -6.34077e-24)
(0.403948 -0.0404176 2.66619e-20)
(0.40207 -0.0411546 -2.53088e-20)
(0.401831 -0.0416075 8.51035e-21)
(0.402184 -0.042171 2.15171e-20)
(0.402854 -0.0429533 -3.98859e-20)
(0.403896 -0.0438779 1.19098e-20)
(0.405287 -0.0448933 5.71426e-20)
(0.406973 -0.0459715 -1.83926e-20)
(0.408912 -0.0470854 -3.40442e-20)
(0.411074 -0.0482094 2.87969e-20)
(0.41343 -0.0493217 -8.70434e-21)
(0.415959 -0.0504046 2.22046e-20)
(0.418642 -0.0514433 -2.88058e-20)
(0.421467 -0.0524258 -3.15225e-20)
(0.424421 -0.0533427 5.16864e-20)
(0.427497 -0.0541862 -4.76613e-20)
(0.430688 -0.0549505 2.79709e-20)
(0.433989 -0.0556312 2.27478e-20)
(0.437397 -0.0562251 -4.38614e-20)
(0.44091 -0.0567299 3.3531e-20)
(0.444524 -0.0571445 -1.63126e-20)
(0.448239 -0.0574683 -1.25547e-20)
(0.452052 -0.0577015 3.04699e-21)
(0.455963 -0.0578451 2.47452e-20)
(0.459969 -0.0579004 -2.96327e-20)
(0.464069 -0.0578693 2.70388e-20)
(0.468261 -0.057754 6.16769e-21)
(0.472544 -0.0575573 -4.94506e-21)
(0.476916 -0.057282 -1.81427e-20)
(0.481373 -0.0569315 4.77255e-21)
(0.485914 -0.0565093 7.26496e-21)
(0.490536 -0.0560189 -7.12024e-21)
(0.495236 -0.0554644 5.15581e-21)
(0.50001 -0.0548496 -2.82432e-21)
(0.504857 -0.0541785 1.67965e-21)
(0.509771 -0.0534554 -1.65182e-21)
(0.514749 -0.0526844 9.95934e-22)
(0.519788 -0.0518695 3.02253e-22)
(0.524883 -0.0510149 -8.60542e-22)
(0.530032 -0.0501247 2.09749e-21)
(0.535229 -0.0492029 -2.61557e-21)
(0.540471 -0.0482534 -9.31885e-22)
(0.545753 -0.04728 3.14291e-22)
(0.551072 -0.0462865 2.96675e-23)
(0.556424 -0.0452763 -7.09257e-22)
(0.561804 -0.044253 2.16301e-21)
(0.567209 -0.0432199 -4.63696e-22)
(0.572634 -0.0421802 -7.3324e-22)
(0.578077 -0.0411367 -8.14481e-22)
(0.583533 -0.0400925 1.49735e-21)
(0.588999 -0.0390502 -5.8372e-23)
(0.594471 -0.0380123 7.05588e-22)
(0.599948 -0.0369813 -1.37057e-21)
(0.605425 -0.0359595 7.87821e-22)
(0.610901 -0.034949 1.13215e-22)
(0.616372 -0.0339517 -1.32173e-22)
(0.621837 -0.0329694 1.91972e-22)
(0.627293 -0.0320041 -2.67509e-22)
(0.632742 -0.031057 3.31917e-24)
(0.638173 -0.0301303 -9.60032e-24)
(0.643611 -0.0292227 -1.04807e-22)
(0.648996 -0.0283423 2.37515e-23)
(0.654456 -0.0274709 -1.86812e-23)
(0.659724 -0.0266556 1.43503e-23)
(0.665358 -0.0257819 -3.03108e-24)
(0.670213 -0.0251134 2.13297e-24)
(0.676619 -0.0240409 8.76657e-24)
(0.679942 -0.023868 -2.87735e-24)
(0.689279 -0.0219847 3.30886e-24)
(0.462449 -0.0403716 -2.98504e-20)
(0.461416 -0.0412943 3.05497e-20)
(0.461048 -0.0422552 -6.54922e-20)
(0.461034 -0.043392 9.63942e-21)
(0.461423 -0.0446199 2.58757e-20)
(0.462182 -0.0458911 -1.29687e-20)
(0.463241 -0.0471859 -7.48282e-21)