/*--------------------------------*- C++ -*----------------------------------*\
  =========                 |
  \\      /  F ield         | OpenFOAM: The Open Source CFD Toolbox
   \\    /   O peration     | Website:  https://openfoam.org
    \\  /    A nd           | Version:  7
     \\/     M anipulation  |
\*---------------------------------------------------------------------------*/
FoamFile
{
    version     2.0;
    format      ascii;
    class       surfaceScalarField;
    location    "2.5";
    object      phi;
}
// * * * * * * * * * * * * * * * * * * * * * * * * * * * * * * * * * * * * * //

dimensions      [0 3 -1 0 0 0 0];

internalField   nonuniform List<scalar> 
615
(
0.000265328
-0.000280102
0.000262356
-0.000304875
0.000262251
-0.000328047
0.000265876
-0.000347822
0.000274356
-0.000362528
0.000288663
-0.000370496
0.000308926
-0.000369803
0.000333719
-0.000358647
0.000360139
-0.000337036
0.000384711
-0.000308033
0.000404883
-0.000276474
0.000420462
-0.000246128
0.000433058
-0.000218112
0.000443927
-0.000191468
0.000453127
-0.000164492
0.000460493
-0.000135495
0.000466148
-0.000103499
0.000470049
-6.85269e-05
0.000471455
-3.07379e-05
0.000470277
8.96829e-06
0.000466594
5.04966e-05
0.000460894
9.2702e-05
0.00045342
0.000134532
0.000442623
0.0001757
0.000425613
0.000216764
0.000403168
0.00025724
0.000382089
0.000293528
0.000367488
0.000322022
0.000354292
0.000344557
0.000332803
0.000366419
0.000302592
0.000386863
0.000274799
0.00039663
0.00026033
0.000387095
0.000260593
0.000359505
0.000269804
0.00032213
0.000281766
0.000283421
0.000293115
0.000247411
0.000302849
0.000215809
0.000311018
0.000187945
0.000317938
0.000164019
0.000323874
0.00014258
0.000329034
0.000124395
0.000333517
0.000107489
0.000337437
9.36617e-05
0.000340805
7.98622e-05
0.000343732
6.95693e-05
0.000346169
5.76944e-05
0.000348282
5.0573e-05
0.000349934
3.94512e-05
0.000351403
3.55835e-05
2.38082e-05
8.08559e-05
-6.56089e-05
8.22773e-05
-7.41198e-05
8.44301e-05
-8.43616e-05
8.72111e-05
-9.50482e-05
9.03273e-05
-0.000105198
9.34298e-05
-0.000114452
9.62077e-05
-0.000122985
9.84461e-05
-0.000131286
0.000100021
-0.000139986
0.00010085
-0.000149679
0.000100865
-0.000160899
0.000100013
-0.000174133
9.82689e-05
-0.000189715
9.56499e-05
-0.000207843
9.22455e-05
-0.000228485
8.82478e-05
-0.000251368
8.39902e-05
-0.000275845
7.9946e-05
-0.000300831
7.66234e-05
-0.000324725
7.44097e-05
-0.000345608
7.35376e-05
-0.000361656
7.42756e-05
-0.000371234
7.71473e-05
-0.000372675
8.25819e-05
-0.000364082
9.0159e-05
-0.000344613
9.844e-05
-0.000316314
0.000105744
-0.000283778
0.00011113
-0.000251514
0.000114693
-0.000221676
0.000117086
-0.00019386
0.000118886
-0.000166292
0.000120366
-0.000136974
0.000121561
-0.000104694
0.000122329
-6.9295e-05
0.000122514
-3.09233e-05
0.000122125
9.35747e-06
0.000121246
5.13753e-05
0.000119919
9.40289e-05
0.000117825
0.000136626
0.000114286
0.000179239
0.000109178
0.000221873
0.000103864
0.000262553
0.000100037
0.000297355
9.71026e-05
0.000324956
9.22999e-05
0.00034936
8.44874e-05
0.000374232
7.64305e-05
0.000394919
7.23692e-05
0.000400692
7.39421e-05
0.000385522
7.94336e-05
0.000354014
8.61791e-05
0.000315384
9.25071e-05
0.000277093
9.78837e-05
0.000242035
0.000102349
0.000211343
0.000106084
0.00018421
0.000109261
0.000160843
0.00011199
0.000139851
0.000114363
0.000122022
0.00011642
0.000105432
0.000118219
9.18624e-05
0.000119764
7.83174e-05
0.000121113
6.82205e-05
0.000122238
5.6569e-05
0.000123223
4.95883e-05
0.000123996
3.86784e-05
0.00012469
3.48894e-05
2.33409e-05
8.13772e-05
-6.61376e-05
8.26311e-05
-7.53736e-05
8.47883e-05
-8.65188e-05
8.77017e-05
-9.79615e-05
9.10109e-05
-0.000108507
9.4305e-05
-0.000117747
9.7214e-05
-0.000125894
9.94872e-05
-0.000133559
0.000100991
-0.00014149
0.000101663
-0.000150351
0.000101458
-0.000160694
0.000100308
-0.000172984
9.81685e-05
-0.000187576
9.50318e-05
-0.000204706
9.09803e-05
-0.000224434
8.6166e-05
-0.000246553
8.08354e-05
-0.000270514
7.53641e-05
-0.00029536
7.0267e-05
-0.000319628
6.61316e-05
-0.000341473
6.34097e-05
-0.000358934
6.23046e-05
-0.000370128
6.3033e-05
-0.000373404
6.60353e-05
-0.000367084
7.1503e-05
-0.000350081
7.86772e-05
-0.000323488
8.59135e-05
-0.000291015
9.16978e-05
-0.000257298
9.54432e-05
-0.000225422
9.74422e-05
-0.000195859
9.8364e-05
-0.000167214
9.88339e-05
-0.000137444
9.91821e-05
-0.000105042
9.94042e-05
-6.95171e-05
9.94171e-05
-3.09361e-05
9.9145e-05
9.62955e-06
9.85493e-05
5.19711e-05
9.7375e-05
9.52033e-05
9.50964e-05
0.000138904
9.13757e-05
0.00018296
8.69268e-05
0.000226321
8.3416e-05
0.000266064
8.14293e-05
0.000299342
7.89866e-05
0.000327399
7.36456e-05
0.000354701
6.60975e-05
0.00038178
6.0384e-05
0.000400633
6.01783e-05
0.000400897
6.55758e-05
0.000380125
7.38496e-05
0.00034574
8.23323e-05
0.000306902
8.97645e-05
0.00026966
9.59338e-05
0.000235865
0.000101034
0.000206243
0.000105302
0.000179942
0.000108933
0.000157212
0.00011205
0.000136734
0.000114755
0.000119316
0.000117096
0.00010309
0.000119141
8.98171e-05
0.000120896
7.65632e-05
0.000122429
6.66877e-05
0.000123707
5.52903e-05
0.00012483
4.84655e-05
0.00012571
3.77982e-05
0.000126506
3.40933e-05
2.28051e-05
8.20126e-05
-6.61367e-05
8.29609e-05
-7.6322e-05
8.50635e-05
-8.86213e-05
8.81107e-05
-0.000101009
9.16417e-05
-0.000112038
9.5159e-05
-0.000121264
9.82321e-05
-0.000128968
0.000100563
-0.000135891
0.000101985
-0.000142911
0.000102444
-0.00015081
0.000101952
-0.000160202
0.000100502
-0.000171534
9.80472e-05
-0.00018512
9.45079e-05
-0.000201166
8.9874e-05
-0.0002198
8.42333e-05
-0.000240913
7.7827e-05
-0.000264108
7.10101e-05
-0.000288543
6.4231e-05
-0.000312849
5.79814e-05
-0.000335223
5.28123e-05
-0.000353765
4.92646e-05
-0.000366581
4.78033e-05
-0.000371942
4.88309e-05
-0.000368112
5.25076e-05
-0.000353758
5.83841e-05
-0.000329364
6.50904e-05
-0.000297721
7.09904e-05
-0.000263198
7.50587e-05
-0.00022949
7.7173e-05
-0.000197974
7.78101e-05
-0.000167851
7.76669e-05
-0.000137301
7.73037e-05
-0.000104679
7.69319e-05
-6.91453e-05
7.66147e-05
-3.0619e-05
7.61817e-05
1.00626e-05
7.54523e-05
5.27005e-05
7.40435e-05
9.6612e-05
7.1632e-05
0.000141316
6.8495e-05
0.000186097
6.57764e-05
0.00022904
6.44576e-05
0.000267383
6.36029e-05
0.000300196
6.07313e-05
0.000330271
5.47834e-05
0.000360649
4.836e-05
0.000388203
4.60252e-05
0.000402968
5.01635e-05
0.000396759
5.91411e-05
0.000371147
6.96171e-05
0.000335264
7.93252e-05
0.000297194
8.75301e-05
0.000261456
9.42988e-05
0.000229097
9.99204e-05
0.000200621
0.000104652
0.000175211
0.000108693
0.00015317
0.000112169
0.000133258
0.00011519
0.000116296
0.000117803
0.000100477
0.000120087
8.75333e-05
0.000122045
7.46051e-05
0.000123758
6.49746e-05
0.000125187
5.38611e-05
0.000126445
4.72077e-05
0.000127432
3.68114e-05
0.000128326
3.31993e-05
2.22016e-05
8.24557e-05
-6.55519e-05
8.31163e-05
-7.69826e-05
8.52288e-05
-9.07338e-05
8.84929e-05
-0.000104273
9.23145e-05
-0.00011586
9.60853e-05
-0.000125035
9.9332e-05
-0.000132214
0.000101756
-0.000138315
0.00010317
-0.000144325
0.000103488
-0.000151128
0.000102699
-0.000159413
0.000100841
-0.000169676
9.79408e-05
-0.00018222
9.39629e-05
-0.000197189
8.88593e-05
-0.000214696
8.25958e-05
-0.000234649
7.52846e-05
-0.000256796
6.72305e-05
-0.000280489
5.89545e-05
-0.000304573
5.10283e-05
-0.000327297
4.39165e-05
-0.000346653
3.79995e-05
-0.000360664
3.37769e-05
-0.00036772
3.19616e-05
-0.000366296
3.30796e-05
-0.000354876
3.7108e-05
4.29428e-05
4.8855e-05
5.33578e-05
5.58655e-05
5.65738e-05
5.61401e-05
5.52394e-05
5.4268e-05
5.34031e-05
5.25138e-05
5.14078e-05
4.98425e-05
4.78712e-05
4.61274e-05
4.54381e-05
4.5576e-05
4.46372e-05
4.08122e-05
3.49121e-05
3.09947e-05
3.31428e-05
4.17841e-05
5.38221e-05
6.59498e-05
7.65654e-05
8.54064e-05
9.27221e-05
9.88436e-05
0.000104027
0.000108473
0.000112305
0.000115637
0.000118521
0.000121042
0.000123203
0.000125095
0.000126674
0.000128066
0.000129159
0.00013015
8.29323e-05
8.31319e-05
8.51704e-05
8.86573e-05
9.28382e-05
9.69387e-05
0.000100394
0.000102901
0.000104306
0.000104535
0.000103552
0.000101384
9.80753e-05
9.36446e-05
8.80654e-05
8.12789e-05
7.32622e-05
6.41126e-05
5.41887e-05
4.41495e-05
3.47622e-05
2.66207e-05
2.01202e-05
1.57909e-05
)
;

boundaryField
{
    inlet
    {
        type            calculated;
        value           nonuniform 0();
    }
    outlet
    {
        type            calculated;
        value           nonuniform List<scalar> 5(0.000352384 0.000125157 0.000127042 0.000128929 0.000130821);
    }
    wall
    {
        type            calculated;
        value           nonuniform 0();
    }
    wedge1
    {
        type            wedge;
        value           nonuniform List<scalar> 
344
(
-2.83625e-15
-2.81842e-15
1.14211e-14
-2.71323e-15
-2.62535e-15
-3.19037e-15
-3.19639e-15
1.30885e-14
-3.15555e-15
-3.11392e-15
-3.60742e-15
-3.64041e-15
1.50506e-14
-3.67258e-15
-3.68231e-15
-4.03976e-15
-4.09199e-15
1.70103e-14
-4.17565e-15
-4.22131e-15
-4.45356e-15
-4.50937e-15
1.8763e-14
-4.60688e-15
-4.66314e-15
-4.83672e-15
-4.88101e-15
2.02556e-14
-4.95453e-15
-4.99697e-15
-5.19868e-15
-5.21828e-15
2.15416e-14
-5.23627e-15
-5.24918e-15
-5.55718e-15
-5.54499e-15
2.27418e-14
-5.48597e-15
-5.4601e-15
-5.93754e-15
-5.88924e-15
2.399e-14
-5.74035e-15
-5.67017e-15
-6.36134e-15
-6.27586e-15
2.5402e-14
-6.03207e-15
-5.91186e-15
-6.85018e-15
-6.72472e-15
2.70646e-14
-6.38593e-15
-6.21059e-15
-7.42166e-15
-7.25511e-15
2.90397e-14
-6.81804e-15
-6.5842e-15
-8.08674e-15
-7.87687e-15
3.13702e-14
-7.3359e-15
-7.04309e-15
-8.84768e-15
-8.59097e-15
3.40709e-14
-7.93524e-15
-7.58385e-15
-9.6947e-15
-9.37562e-15
3.708e-14
-8.59948e-15
-8.19137e-15
-1.05976e-14
-1.01832e-14
4.02221e-14
-9.29405e-15
-8.8295e-15
-1.151e-14
-1.09888e-14
4.34163e-14
-1.00203e-14
-9.50595e-15
-1.24022e-14
-1.18402e-14
4.68329e-14
-1.08175e-14
-1.02587e-14
-1.32501e-14
-1.26848e-14
5.02541e-14
-1.16286e-14
-1.1046e-14
-1.39749e-14
-1.34324e-14
5.3382e-14
-1.23734e-14
-1.1799e-14
-1.45112e-14
-1.39972e-14
5.5917e-14
-1.29808e-14
-1.24391e-14
-1.48002e-14
-1.43128e-14
5.75425e-14
-1.33914e-14
-1.28875e-14
-1.47679e-14
-1.43301e-14
5.79644e-14
-1.35538e-14
-1.3091e-14
-1.43315e-14
-1.39949e-14
5.69349e-14
-1.3406e-14
-1.301e-14
-1.34717e-14
-1.32668e-14
5.43241e-14
-1.28973e-14
-1.26039e-14
-1.22982e-14
-1.21919e-14
5.0253e-14
-1.20275e-14
-1.10012e-14
-1.09187e-14
4.52037e-14
-1.08766e-14
-9.74155e-15
-9.62438e-15
3.98382e-14
-9.59125e-15
-8.5795e-15
-8.41313e-15
3.46676e-14
-8.30911e-15
-7.48554e-15
-7.2893e-15
2.98358e-14
-7.09717e-15
-6.38822e-15
-6.19196e-15
2.51835e-14
-5.94159e-15
-5.21501e-15
-5.04791e-15
2.04273e-14
-4.78486e-15
-3.92925e-15
-3.80418e-15
1.53487e-14
-3.57313e-15
-2.53267e-15
-2.45108e-15
9.88168e-15
-2.28306e-15
-1.06371e-15
-1.0179e-15
4.11582e-15
-9.19208e-16
5.96021e-16
6.21481e-16
-2.49332e-15
6.7424e-16
2.46747e-15
2.47629e-15
-1.01361e-14
2.50323e-15
4.31373e-15
4.30637e-15
-1.76826e-14
4.33145e-15
6.13295e-15
6.12335e-15
-2.5249e-14
6.16936e-15
7.94165e-15
7.93499e-15
-3.28119e-14
7.97961e-15
9.75751e-15
9.71698e-15
-4.01089e-14
9.67136e-15
1.14971e-14
1.13563e-14
-4.66159e-14
1.11492e-14
1.29586e-14
1.27137e-14
-5.20237e-14
1.24274e-14
1.40509e-14
1.38163e-14
-5.67668e-14
1.36449e-14
1.49771e-14
1.48687e-14
-6.15137e-14
1.48695e-14
1.59477e-14
1.59296e-14
-6.59079e-14
1.58737e-14
1.67021e-14
1.6654e-14
-6.81726e-14
1.61928e-14
1.66291e-14
1.65152e-14
-6.64708e-14
1.55167e-14
1.57382e-14
1.5411e-14
-6.11208e-14
1.40882e-14
1.43279e-14
1.38574e-14
-5.45482e-14
1.25058e-14
1.26803e-14
1.21994e-14
-4.79349e-14
1.09841e-14
1.10796e-14
1.06485e-14
-4.18854e-14
9.61223e-15
9.63605e-15
9.26633e-15
-3.65118e-14
8.39335e-15
8.38752e-15
8.07155e-15
-3.18505e-14
7.33144e-15
7.29421e-15
7.02205e-15
-2.7736e-14
6.38965e-15
6.35903e-15
6.12205e-15
-2.41954e-14
5.57658e-15
5.5228e-15
5.31573e-15
-2.10151e-14
4.84443e-15
4.8153e-15
4.63317e-15
-1.83196e-14
4.22307e-15
4.15811e-15
3.99897e-15
-1.58129e-14
3.6446e-15
3.62263e-15
3.48254e-15
-1.37713e-14
3.1734e-15
3.08778e-15
2.96694e-15
-1.17328e-14
2.70275e-15
2.69186e-15
2.58568e-15
-1.02256e-14
2.35492e-15
2.23279e-15
2.14377e-15
-8.47898e-15
1.95181e-15
1.96274e-15
1.88411e-15
-7.45221e-15
1.71508e-15
1.5335e-15
1.47145e-15
-5.82141e-15
1.33901e-15
1.39494e-15
1.33833e-15
-5.29278e-15
1.21763e-15
9.48812e-16
9.09634e-16
-3.59357e-15
8.27283e-16
2.95558e-15
3.15661e-15
3.34701e-15
3.5038e-15
3.61384e-15
3.64639e-15
3.59096e-15
3.43659e-15
3.20233e-15
2.91848e-15
2.62387e-15
2.34369e-15
2.08054e-15
1.82226e-15
1.55302e-15
1.26541e-15
9.55216e-16
6.25211e-16
2.70228e-16
-1.3451e-16
-5.81906e-16
-1.01965e-15
-1.43719e-15
-1.83739e-15
-2.24863e-15
-2.68311e-15
-3.0904e-15
-3.38404e-15
-3.5555e-15
-3.69457e-15
-3.84735e-15
-3.94715e-15
-3.89088e-15
-3.64284e-15
-3.27082e-15
-2.86972e-15
-2.4932e-15
-2.16464e-15
-1.87811e-15
-1.63446e-15
-1.41781e-15
-1.23511e-15
-1.06581e-15
-9.27973e-16
-7.9044e-16
-6.88623e-16
-5.70674e-16
-5.01373e-16
-3.91295e-16
-3.56202e-16
-2.43256e-16
)
;
    }
    wedge2
    {
        type            wedge;
        value           nonuniform List<scalar> 
344
(
2.9477e-15
3.15008e-15
3.33585e-15
3.49518e-15
3.59852e-15
3.63326e-15
3.57408e-15
3.42132e-15
3.1858e-15
2.90257e-15
2.60785e-15
2.32682e-15
2.06333e-15
1.80483e-15
1.53767e-15
1.25011e-15
9.42649e-16
6.12176e-16
2.60077e-16
-1.46465e-16
-5.9258e-16
-1.03175e-15
-1.44774e-15
-1.8479e-15
-2.25738e-15
-2.69216e-15
-3.09922e-15
-3.39342e-15
-3.56574e-15
-3.70497e-15
-3.85754e-15
-3.9576e-15
-3.90003e-15
-3.64918e-15
-3.274e-15
-2.8709e-15
-2.49347e-15
-2.16456e-15
-1.87782e-15
-1.63411e-15
-1.41744e-15
-1.23472e-15
-1.06546e-15
-9.27625e-16
-7.90119e-16
-6.88319e-16
-5.70401e-16
-5.01117e-16
-3.91066e-16
-3.55981e-16
-2.43055e-16
-2.83545e-15
-2.81887e-15
1.14215e-14
-2.71362e-15
-2.62508e-15
-3.18989e-15
-3.1969e-15
1.30889e-14
-3.15585e-15
-3.11374e-15
-3.60642e-15
-3.64097e-15
1.50513e-14
-3.67296e-15
-3.68175e-15
-4.03901e-15
-4.09248e-15
1.70108e-14
-4.17613e-15
-4.22106e-15
-4.45225e-15
-4.50987e-15
1.87639e-14
-4.60744e-15
-4.66234e-15
-4.83584e-15
-4.88154e-15
2.02563e-14
-4.95494e-15
-4.9965e-15
-5.1972e-15
-5.21884e-15
2.15429e-14
-5.2367e-15
-5.24816e-15
-5.55631e-15
-5.54579e-15
2.27427e-14
-5.48642e-15
-5.4595e-15
-5.9359e-15
-5.89018e-15
2.39912e-14
-5.74087e-15
-5.66913e-15
-6.3601e-15
-6.27652e-15
2.54028e-14
-6.03275e-15
-5.9111e-15
-6.84874e-15
-6.72582e-15
2.70658e-14
-6.38673e-15
-6.20938e-15
-7.42061e-15
-7.25571e-15
2.90406e-14
-6.81876e-15
-6.58361e-15
-8.08534e-15
-7.87764e-15
3.13715e-14
-7.33652e-15
-7.0419e-15
-8.84702e-15
-8.59164e-15
3.40719e-14
-7.93545e-15
-7.58324e-15
-9.69357e-15
-9.37627e-15
3.70812e-14
-8.6002e-15
-8.19012e-15
-1.05967e-14
-1.01838e-14
4.02225e-14
-9.29458e-15
-8.82874e-15
-1.1509e-14
-1.09898e-14
4.34172e-14
-1.00215e-14
-9.50496e-15
-1.24015e-14
-1.18405e-14
4.68338e-14
-1.08184e-14
-1.02579e-14
-1.32493e-14
-1.26863e-14
5.02553e-14
-1.16292e-14
-1.10449e-14
-1.39745e-14
-1.34335e-14
5.33828e-14
-1.23744e-14
-1.17981e-14
-1.45111e-14
-1.39991e-14
5.59171e-14
-1.29822e-14
-1.24386e-14
-1.48007e-14
-1.43151e-14
5.75417e-14
-1.33932e-14
-1.28873e-14
-1.47695e-14
-1.43329e-14
5.7964e-14
-1.35556e-14
-1.30915e-14
-1.43328e-14
-1.39978e-14
5.69335e-14
-1.34084e-14
-1.30105e-14
-1.34738e-14
-1.32711e-14
5.43218e-14
-1.29005e-14
-1.26051e-14
-1.22997e-14
-1.21951e-14
5.02511e-14
-1.20299e-14
-1.10032e-14
-1.09224e-14
4.52019e-14
-1.08802e-14
-9.74353e-15
-9.62773e-15
3.98365e-14
-9.59312e-15
-8.58159e-15
-8.41673e-15
3.4666e-14
-8.312e-15
-7.48816e-15
-7.2921e-15
2.98327e-14
-7.09945e-15
-6.39047e-15
-6.19518e-15
2.51806e-14
-5.94407e-15
-5.21855e-15
-5.05033e-15
2.04236e-14
-4.78823e-15
-3.93235e-15
-3.80699e-15
1.53456e-14
-3.57594e-15
-2.53681e-15
-2.45366e-15
9.87869e-15
-2.28665e-15
-1.06751e-15
-1.02091e-15
4.11308e-15
-9.22206e-16
5.91945e-16
6.17767e-16
-2.49685e-15
6.70889e-16
2.464e-15
2.47293e-15
-1.01394e-14
2.50004e-15
4.31034e-15
4.30318e-15
-1.76859e-14
4.32826e-15
6.129e-15
6.11977e-15
-2.52521e-14
6.1657e-15
7.93816e-15
7.93163e-15
-3.28152e-14
7.97622e-15
9.75406e-15
9.71354e-15
-4.01121e-14
9.66781e-15
1.14939e-14
1.13531e-14
-4.66192e-14
1.11458e-14
1.29551e-14
1.27101e-14
-5.20271e-14
1.2424e-14
1.40476e-14
1.3813e-14
-5.67701e-14
1.36417e-14
1.49735e-14
1.48653e-14
-6.15171e-14
1.48661e-14
1.59441e-14
1.5926e-14
-6.59114e-14
1.58703e-14
1.66986e-14
1.66505e-14
-6.81758e-14
1.61898e-14
1.66259e-14
1.65123e-14
-6.64733e-14
1.55146e-14
1.57358e-14
1.5409e-14
-6.11224e-14
1.40871e-14
1.43265e-14
1.38564e-14
-5.45489e-14
1.25053e-14
1.26796e-14
1.21988e-14
-4.79352e-14
1.0984e-14
1.10794e-14
1.06483e-14
-4.18855e-14
9.61223e-15
9.63603e-15
9.26633e-15
-3.65118e-14
8.39342e-15
8.38762e-15
8.07165e-15
-3.18504e-14
7.33155e-15
7.29428e-15
7.02214e-15
-2.77359e-14
6.38974e-15
6.35913e-15
6.12215e-15
-2.41953e-14
5.57668e-15
5.52289e-15
5.31583e-15
-2.1015e-14
4.8445e-15
4.81539e-15
4.63325e-15
-1.83195e-14
4.22313e-15
4.1582e-15
3.99905e-15
-1.58128e-14
3.64466e-15
3.62271e-15
3.48262e-15
-1.37713e-14
3.17344e-15
3.08786e-15
2.96701e-15
-1.17327e-14
2.70279e-15
2.69193e-15
2.58574e-15
-1.02256e-14
2.35496e-15
2.23285e-15
2.14382e-15
-8.47893e-15
1.95184e-15
1.9628e-15
1.88416e-15
-7.45218e-15
1.7151e-15
1.53355e-15
1.47149e-15
-5.82138e-15
1.33902e-15
1.39499e-15
1.33837e-15
-5.29276e-15
1.21764e-15
9.48856e-16
9.09667e-16
-3.59355e-15
8.2729e-16
)
;
    }
    axis
    {
        type            empty;
        value           nonuniform 0();
    }
    procBoundary23to17
    {
        type            processor;
        value           nonuniform List<scalar> 
68
(
0.000285053
0.000307847
0.000328153
0.000344197
0.000354047
0.000356189
0.00034954
0.000333854
0.000310616
0.000283461
0.000256303
0.000230549
0.000205516
0.000180599
0.000155293
0.000128129
9.78435e-05
6.46257e-05
2.93327e-05
-7.79025e-06
-4.68139e-05
-8.70019e-05
-0.000127058
-0.000164903
-0.000199754
-0.000234795
-0.000272449
-0.00030742
-0.000331361
-0.000344931
-0.000356651
-0.000368837
-0.000372626
-0.000359768
-0.00033134
-0.000295383
-0.000258761
-0.000225543
-0.000196114
-0.000170939
-0.000148517
-0.000129554
-0.000111972
-9.75815e-05
-8.32302e-05
-7.24961e-05
-6.01315e-05
-5.26862e-05
-4.11029e-05
-3.70522e-05
-2.47894e-05
6.4745e-05
7.26983e-05
8.22088e-05
9.22672e-05
0.000102082
0.00011135
0.000120207
0.000129048
0.00013841
0.00014885
0.000160884
0.000174985
0.000191459
0.000210461
0.00023189
-0.000270279
0.000255365
)
;
    }
    procBoundary23to22
    {
        type            processor;
        value           nonuniform List<scalar> 4(-7.99919e-05 -8.08486e-05 -8.20135e-05 -8.30404e-05);
    }
    procBoundary23to28
    {
        type            processor;
        value           uniform -8.43228e-05;
    }
    procBoundary23to29
    {
        type            processor;
        value           nonuniform List<scalar> 
68
(
-0.000333393
-0.000303556
-0.00026911
-0.000233993
-0.000200481
-0.000168559
-0.000136867
-0.000103778
-6.81739e-05
-2.97541e-05
1.09518e-05
5.38065e-05
9.81774e-05
0.000143287
0.000187841
0.000229729
0.000267245
0.000301135
0.000334096
0.000366549
0.000392121
0.00040082
0.000388118
0.000359109
0.000323136
0.000286578
0.000252615
0.000221781
0.0001945
0.000170027
0.000148724
0.000129426
0.000112964
9.75934e-05
8.50123e-05
7.24442e-05
6.30823e-05
5.22822e-05
4.58157e-05
3.57187e-05
3.22076e-05
2.15314e-05
-6.41614e-05
-7.71823e-05
-9.27723e-05
-0.00010776
-0.00012004
-0.000129135
-0.00013567
-0.000140822
-0.00014573
-0.000151356
-0.000158431
-0.000167508
-0.000178911
-0.000192758
-0.000209117
-0.000227863
-0.00024878
-0.000271339
-0.000294649
-0.000317258
-0.000337266
-0.000352522
-0.000361219
-0.000361967
1.41858e-05
-0.000353271
)
;
    }
}


// ************************************************************************* //
