/*--------------------------------*- C++ -*----------------------------------*\
  =========                 |
  \\      /  F ield         | OpenFOAM: The Open Source CFD Toolbox
   \\    /   O peration     | Website:  https://openfoam.org
    \\  /    A nd           | Version:  7
     \\/     M anipulation  |
\*---------------------------------------------------------------------------*/
FoamFile
{
    version     2.0;
    format      ascii;
    class       volScalarField;
    location    "2.4";
    object      T;
}
// * * * * * * * * * * * * * * * * * * * * * * * * * * * * * * * * * * * * * //

dimensions      [0 0 0 1 0 0 0];

internalField   nonuniform List<scalar> 
4116
(
1.19512
1.19638
1.19906
1.19903
1.19813
1.19725
1.19649
1.1956
1.19377
1.18963
1.18248
1.1767
1.17507
1.17481
1.17471
1.17514
1.17505
1.17438
1.17361
1.17261
1.171
1.16922
1.16818
1.16744
1.1667
1.16621
1.16585
1.16552
1.16531
1.16553
1.16779
1.16941
1.16913
1.16873
1.16849
1.16816
1.16709
1.16301
1.15304
1.14355
1.1411
1.14028
1.13931
1.13817
1.13713
1.13641
1.13624
1.13686
1.13889
1.1397
1.13968
1.13997
1.14055
1.1407
1.14068
1.1406
1.14034
1.13985
1.13912
1.13795
1.13613
1.13376
1.13124
1.12903
1.12697
1.12432
1.12081
1.11729
1.11615
1.116
1.11588
1.11563
1.11531
1.11496
1.11478
1.1146
1.11425
1.11374
1.11299
1.11184
1.11112
1.11058
1.11009
1.10994
1.10958
1.1088
1.10803
1.10744
1.10689
1.10623
1.10495
1.10181
1.09657
1.09391
1.09367
1.09379
1.09517
1.10274
1.12914
1.19246
1.27192
1.35971
1.4167
1.46459
1.48203
1.47864
1.47931
1.48124
1.48404
1.48875
1.49277
1.49362
1.49323
1.4921
1.49068
1.48808
1.48415
1.48225
1.48045
1.4787
1.47735
1.47707
1.47723
1.47796
1.47943
1.48064
1.48081
1.48051
1.48029
1.47999
1.47931
1.47822
1.47718
1.47659
1.47564
1.47443
1.47345
1.47334
1.47335
1.47305
1.47202
1.46925
1.46488
1.46217
1.4619
1.46195
1.46271
1.19509
1.19526
1.19664
1.19753
1.19696
1.19602
1.19531
1.19463
1.19376
1.19164
1.18582
1.17829
1.17566
1.17485
1.17437
1.1741
1.17385
1.17328
1.1725
1.17152
1.1704
1.16943
1.16872
1.16806
1.1673
1.16673
1.16639
1.16611
1.16593
1.16623
1.16838
1.16959
1.16922
1.16898
1.16887
1.16868
1.16777
1.1637
1.15353
1.14403
1.14135
1.1404
1.13941
1.13829
1.13724
1.13652
1.13645
1.13787
1.13996
1.13998
1.14006
1.14044
1.141
1.14119
1.14118
1.14104
1.14065
1.13999
1.13906
1.13777
1.13598
1.13376
1.13171
1.13006
1.12835
1.12614
1.12284
1.1187
1.11718
1.11699
1.11689
1.11673
1.11641
1.11588
1.11496
1.1146
1.11455
1.11435
1.11394
1.11316
1.11258
1.11205
1.11162
1.11165
1.11157
1.11092
1.11019
1.10961
1.10904
1.10819
1.10643
1.10247
1.0967
1.09403
1.09385
1.09387
1.09407
1.09434
1.09501
1.10007
1.11833
1.1738
1.2499
1.34059
1.40288
1.45076
1.47791
1.47846
1.47459
1.47628
1.48107
1.48786
1.49338
1.49416
1.49304
1.48973
1.48542
1.4809
1.47799
1.47761
1.47747
1.47699
1.47635
1.47607
1.47603
1.47598
1.47623
1.47683
1.47721
1.47728
1.47699
1.4763
1.47547
1.47476
1.47431
1.47421
1.47451
1.47491
1.47491
1.47439
1.47189
1.46554
1.45956
1.45857
1.45862
1.45891
1.45986
1.19549
1.1951
1.19563
1.19735
1.19748
1.19662
1.19576
1.19505
1.19429
1.19294
1.18943
1.18241
1.1763
1.17427
1.17369
1.17346
1.17327
1.17287
1.17233
1.17171
1.171
1.17032
1.16967
1.16907
1.16839
1.16764
1.16716
1.16686
1.16671
1.1673
1.16954
1.17051
1.17013
1.17003
1.17001
1.16984
1.16894
1.16485
1.15501
1.14509
1.14157
1.14037
1.13933
1.1382
1.13721
1.1367
1.13733
1.14022
1.14142
1.1412
1.14135
1.14178
1.14223
1.14233
1.14229
1.14205
1.14151
1.14074
1.1397
1.13822
1.13623
1.13421
1.13255
1.13121
1.12986
1.12793
1.12416
1.11858
1.11613
1.11578
1.11557
1.11549
1.11538
1.11507
1.11444
1.11384
1.11364
1.11349
1.11326
1.11269
1.11214
1.11161
1.11124
1.11133
1.11135
1.11077
1.11005
1.10952
1.10901
1.10821
1.10643
1.10238
1.09699
1.09486
1.09469
1.09461
1.09445
1.09423
1.09393
1.09415
1.09488
1.09898
1.11303
1.15877
1.23296
1.32244
1.39051
1.43723
1.47141
1.47608
1.47373
1.47534
1.48077
1.48753
1.49188
1.49193
1.48978
1.48454
1.47855
1.47449
1.47402
1.47427
1.47438
1.4745
1.47447
1.47431
1.47406
1.47374
1.47374
1.4739
1.4749
1.47518
1.47454
1.47412
1.47459
1.47562
1.47571
1.47545
1.47513
1.47436
1.47109
1.46374
1.457
1.45576
1.45574
1.45575
1.45629
1.1952
1.19481
1.19533
1.19797
1.19884
1.19816
1.19733
1.19671
1.19611
1.19507
1.19234
1.18589
1.17726
1.17407
1.17352
1.1732
1.17292
1.17245
1.17222
1.17232
1.17223
1.17187
1.17142
1.17087
1.17002
1.16888
1.16817
1.16783
1.1677
1.16774
1.16866
1.16954
1.16931
1.16926
1.16926
1.16914
1.16842
1.16528
1.15656
1.14616
1.14214
1.14092
1.13988
1.1388
1.13794
1.13757
1.13817
1.14004
1.14039
1.14026
1.14042
1.14082
1.14127
1.14138
1.14133
1.14107
1.14053
1.13977
1.1388
1.13755
1.13616
1.13481
1.13371
1.13274
1.1316
1.12969
1.12575
1.12005
1.11668
1.11591
1.11557
1.11528
1.11512
1.11499
1.11469
1.11444
1.11422
1.114
1.11383
1.11342
1.1129
1.11239
1.11208
1.11221
1.1123
1.11178
1.11109
1.11059
1.11007
1.10922
1.10737
1.1028
1.09637
1.09407
1.09395
1.09389
1.09382
1.09377
1.09359
1.09361
1.09388
1.09431
1.09498
1.09792
1.109
1.14726
1.21861
1.3038
1.3784
1.42819
1.46472
1.47514
1.47361
1.47568
1.48086
1.4852
1.48718
1.48695
1.48393
1.47821
1.47262
1.47002
1.46993
1.47063
1.47223
1.47273
1.47256
1.47195
1.47192
1.47198
1.47187
1.47202
1.47341
1.47523
1.47648
1.47671
1.4762
1.47561
1.47477
1.47299
1.46927
1.46272
1.45631
1.45331
1.45289
1.45293
1.45309
1.19558
1.1952
1.1953
1.19689
1.19795
1.19738
1.19649
1.19585
1.19534
1.19465
1.19298
1.18817
1.17949
1.17446
1.17355
1.17313
1.17274
1.17225
1.17181
1.1715
1.17155
1.17133
1.17087
1.1704
1.16985
1.16945
1.1691
1.16879
1.16867
1.16859
1.16931
1.16977
1.16954
1.16953
1.16949
1.16929
1.16852
1.16554
1.1575
1.14755
1.14373
1.14264
1.14166
1.14063
1.1398
1.13942
1.13992
1.14113
1.14099
1.14093
1.14112
1.14148
1.14186
1.14195
1.14189
1.14163
1.1411
1.14033
1.13933
1.13809
1.13686
1.13594
1.13514
1.13426
1.13314
1.13135
1.1278
1.12168
1.11688
1.11584
1.11546
1.11512
1.11481
1.11466
1.11517
1.11569
1.1155
1.11525
1.11514
1.11513
1.11469
1.11415
1.11384
1.11397
1.1141
1.11358
1.11299
1.11258
1.11208
1.11112
1.10878
1.10349
1.09689
1.09479
1.09471
1.09471
1.09473
1.09474
1.09465
1.09458
1.09476
1.09514
1.09554
1.09619
1.09658
1.09817
1.10638
1.13723
1.20652
1.28671
1.36553
1.4174
1.45813
1.4772
1.47515
1.47483
1.47777
1.47962
1.48037
1.47984
1.47687
1.4722
1.4688
1.46794
1.46784
1.46845
1.47063
1.47148
1.47111
1.4705
1.47036
1.47043
1.47084
1.47299
1.47626
1.47722
1.47686
1.47608
1.47479
1.47232
1.4681
1.46215
1.45595
1.45245
1.4513
1.4509
1.45071
1.19615
1.19575
1.19572
1.19717
1.19869
1.19833
1.19746
1.19675
1.19618
1.19549
1.19399
1.1899
1.18127
1.17437
1.17308
1.17272
1.1724
1.1721
1.17192
1.17191
1.17223
1.17239
1.17192
1.17137
1.17085
1.17029
1.17006
1.17025
1.17077
1.17048
1.16992
1.1698
1.16975
1.16975
1.16972
1.1695
1.1687
1.16612
1.15903
1.1485
1.1435
1.14234
1.14136
1.14028
1.13945
1.13912
1.1396
1.14156
1.14204
1.14195
1.1422
1.14253
1.14287
1.14301
1.14296
1.14279
1.1424
1.14174
1.14084
1.13979
1.13882
1.13794
1.13702
1.136
1.1348
1.13305
1.12961
1.12317
1.11769
1.11645
1.11604
1.11559
1.11513
1.11474
1.11454
1.1147
1.11493
1.11476
1.11451
1.11453
1.11436
1.11386
1.11347
1.11354
1.11368
1.11321
1.11269
1.11234
1.11193
1.11121
1.10927
1.10409
1.09775
1.09599
1.09594
1.09595
1.09611
1.09629
1.09625
1.09614
1.09628
1.09656
1.09686
1.09683
1.09679
1.09672
1.09639
1.09717
1.10381
1.12716
1.1907
1.26677
1.34875
1.40864
1.45218
1.47477
1.47602
1.47074
1.47018
1.47135
1.47291
1.47323
1.4723
1.4701
1.4684
1.46758
1.46728
1.46729
1.46867
1.47032
1.47026
1.46998
1.47011
1.47146
1.47266
1.47405
1.47513
1.475
1.47401
1.47186
1.46769
1.46142
1.45551
1.45265
1.4512
1.45008
1.44947
1.19691
1.19649
1.19641
1.19782
1.20018
1.20011
1.19928
1.19861
1.19807
1.19744
1.19607
1.1921
1.1831
1.17464
1.17286
1.17258
1.17238
1.17223
1.17215
1.17236
1.17352
1.17428
1.17392
1.17344
1.17314
1.17239
1.17158
1.17111
1.17085
1.17065
1.17046
1.17035
1.17033
1.17025
1.17003
1.16959
1.16874
1.16659
1.16081
1.1507
1.14467
1.14336
1.14243
1.14127
1.14034
1.13999
1.14044
1.14123
1.14097
1.14098
1.14133
1.14171
1.14183
1.14202
1.14206
1.14202
1.14176
1.14115
1.14027
1.13927
1.13834
1.13752
1.1367
1.1358
1.1348
1.13335
1.13061
1.12559
1.11975
1.11724
1.11656
1.11599
1.11543
1.11506
1.11491
1.1149
1.11549
1.11583
1.11576
1.11574
1.11565
1.11518
1.11472
1.11475
1.11483
1.11435
1.11385
1.11346
1.11297
1.11216
1.1103
1.10537
1.09802
1.09527
1.09512
1.09513
1.09545
1.09586
1.09588
1.09593
1.09619
1.09657
1.09678
1.09675
1.09667
1.09655
1.09624
1.09556
1.09455
1.09491
1.10015
1.11805
1.17267
1.24878
1.33478
1.39978
1.4427
1.46873
1.47161
1.46438
1.46238
1.46389
1.46772
1.4717
1.47184
1.47053
1.46839
1.46647
1.46547
1.46554
1.4676
1.47038
1.47114
1.47172
1.47273
1.47279
1.47288
1.47306
1.47252
1.47099
1.4677
1.46193
1.45575
1.45092
1.44883
1.4484
1.448
1.19881
1.19826
1.19801
1.19858
1.19974
1.1995
1.19875
1.19827
1.19789
1.19744
1.1965
1.19377
1.18657
1.17664
1.17304
1.17269
1.17244
1.17221
1.17204
1.17193
1.17215
1.17336
1.17383
1.17335
1.17302
1.17294
1.17279
1.17252
1.17199
1.17141
1.17113
1.17096
1.17077
1.17044
1.16997
1.16948
1.16878
1.16731
1.16316
1.15461
1.14728
1.14534
1.14447
1.14327
1.14213
1.14162
1.14171
1.14193
1.14162
1.14168
1.14201
1.1426
1.14269
1.1428
1.14291
1.14286
1.14254
1.142
1.14133
1.14053
1.13962
1.13878
1.13795
1.13709
1.13615
1.13485
1.13237
1.12728
1.12068
1.11776
1.11701
1.11643
1.1159
1.11554
1.11532
1.1153
1.1162
1.11743
1.11764
1.1177
1.11771
1.1173
1.11677
1.11674
1.11661
1.1161
1.11571
1.11543
1.11506
1.11437
1.11265
1.10795
1.10035
1.09678
1.09641
1.09642
1.09681
1.0973
1.09734
1.0974
1.09777
1.0985
1.09863
1.09854
1.09822
1.09763
1.09685
1.09615
1.09533
1.09461
1.0931
1.09307
1.09684
1.11119
1.15789
1.23381
1.31987
1.38517
1.43022
1.46027
1.46408
1.45773
1.45784
1.46157
1.46805
1.47279
1.47261
1.47031
1.46681
1.46462
1.46414
1.4654
1.46958
1.47328
1.47371
1.47361
1.47297
1.47152
1.47007
1.46875
1.46695
1.46359
1.45834
1.45239
1.44773
1.44581
1.44519
1.20056
1.19986
1.19945
1.19991
1.20117
1.20096
1.2003
1.19988
1.19956
1.19921
1.19868
1.19679
1.19073
1.1801
1.17436
1.17374
1.17344
1.17318
1.17298
1.17284
1.17276
1.17349
1.1751
1.17509
1.17461
1.17453
1.1748
1.17425
1.1734
1.17277
1.17238
1.17208
1.17175
1.1713
1.17067
1.16988
1.16882
1.16712
1.16399
1.15797
1.15083
1.14795
1.14699
1.14585
1.14477
1.14436
1.14396
1.14307
1.14281
1.14293
1.14323
1.14369
1.14379
1.14364
1.14342
1.14337
1.14325
1.14308
1.14279
1.14244
1.14196
1.14133
1.14071
1.1401
1.13939
1.1382
1.13522
1.12855
1.12141
1.11889
1.11828
1.11777
1.11721
1.11672
1.11631
1.11599
1.11594
1.11649
1.11722
1.11782
1.11769
1.11709
1.11653
1.11648
1.11643
1.11598
1.11594
1.11601
1.11605
1.11592
1.11491
1.1112
1.10396
1.09935
1.09876
1.09879
1.09927
1.09967
1.09961
1.09962
1.0998
1.10034
1.10107
1.1011
1.10046
1.09918
1.09771
1.09718
1.09694
1.09556
1.09351
1.09289
1.09297
1.09331
1.09596
1.10736
1.14668
1.21645
1.29701
1.3677
1.41601
1.45283
1.45878
1.45551
1.45749
1.46306
1.46944
1.47239
1.47162
1.46818
1.46541
1.46507
1.46532
1.46797
1.47204
1.47352
1.47325
1.47236
1.47079
1.46848
1.46558
1.46314
1.4604
1.45556
1.44961
1.4455
1.44309
1.20365
1.20299
1.20264
1.20296
1.20336
1.20277
1.20211
1.20161
1.20113
1.20062
1.19999
1.19868
1.19456
1.18547
1.17741
1.17566
1.17524
1.17488
1.17458
1.17434
1.17423
1.17469
1.1763
1.17746
1.1772
1.17643
1.17576
1.17522
1.17463
1.17415
1.17377
1.17343
1.17307
1.17258
1.17183
1.17075
1.16939
1.16781
1.16564
1.16156
1.1552
1.14925
1.14671
1.14585
1.14534
1.14518
1.14518
1.14454
1.1443
1.1444
1.14461
1.14487
1.14506
1.14498
1.1449
1.14492
1.14488
1.14458
1.14395
1.14328
1.14285
1.14246
1.14206
1.14166
1.14116
1.14016
1.13737
1.13064
1.12333
1.12122
1.12063
1.12001
1.11931
1.11862
1.11804
1.11767
1.1176
1.11789
1.11895
1.12001
1.11968
1.11891
1.11838
1.11831
1.11845
1.11826
1.11827
1.1185
1.1188
1.11891
1.1186
1.11603
1.10931
1.10329
1.10211
1.1021
1.10227
1.10234
1.10227
1.10221
1.10216
1.10214
1.1027
1.10326
1.10298
1.10155
1.09951
1.09792
1.09698
1.09578
1.09439
1.0938
1.09383
1.09387
1.09399
1.09403
1.0957
1.10435
1.13379
1.19712
1.27479
1.35369
1.40534
1.44766
1.46003
1.45657
1.45832
1.4624
1.46793
1.47108
1.47099
1.46901
1.46676
1.46647
1.46673
1.46799
1.4711
1.47272
1.47178
1.46939
1.46656
1.46326
1.45967
1.45692
1.45252
1.44759
1.44369
1.20546
1.20502
1.20486
1.20547
1.20586
1.20524
1.20463
1.20419
1.20374
1.20331
1.20284
1.20195
1.19928
1.19192
1.18251
1.17874
1.17814
1.1778
1.17751
1.1773
1.17716
1.17708
1.17757
1.17948
1.18079
1.18018
1.17914
1.17838
1.17773
1.17711
1.17656
1.17606
1.17557
1.17503
1.17423
1.17298
1.17133
1.16959
1.16783
1.16509
1.15946
1.1528
1.14919
1.14842
1.14825
1.14816
1.14792
1.14723
1.14692
1.14701
1.14719
1.1475
1.14785
1.14791
1.14783
1.14755
1.14737
1.14721
1.14699
1.14677
1.14662
1.14643
1.14612
1.14575
1.14529
1.14427
1.14118
1.13406
1.12676
1.12461
1.124
1.12332
1.12249
1.12167
1.12102
1.12063
1.1204
1.12043
1.12108
1.12251
1.12257
1.12178
1.12127
1.12123
1.12133
1.12135
1.12149
1.1218
1.12203
1.12208
1.1218
1.11969
1.11358
1.10719
1.10557
1.10551
1.10547
1.10538
1.10527
1.10514
1.10485
1.10446
1.10442
1.10506
1.10527
1.10428
1.10189
1.09987
1.09885
1.09773
1.09641
1.09568
1.09555
1.09555
1.0957
1.09575
1.09579
1.09476
1.09285
1.0974
1.11937
1.1811
1.2596
1.34211
1.39873
1.44624
1.46135
1.45612
1.45671
1.46091
1.46838
1.47209
1.47203
1.47083
1.46767
1.46534
1.46559
1.46833
1.47205
1.47201
1.46962
1.46524
1.46029
1.45529
1.45263
1.45035
1.44582
1.20935
1.20897
1.20885
1.20941
1.20943
1.20881
1.20835
1.20798
1.2076
1.20719
1.20656
1.20541
1.20304
1.19778
1.18943
1.18368
1.18214
1.18163
1.18136
1.18118
1.18093
1.18059
1.18057
1.18213
1.18461
1.18467
1.18376
1.18292
1.18213
1.18139
1.18074
1.18014
1.17951
1.17877
1.1778
1.17642
1.17464
1.17277
1.1708
1.16841
1.16484
1.15919
1.15394
1.15235
1.15212
1.15196
1.15166
1.151
1.1508
1.15088
1.15116
1.15145
1.15175
1.15211
1.15216
1.15192
1.15175
1.15175
1.1517
1.1516
1.15153
1.15145
1.1512
1.15078
1.15023
1.14916
1.14596
1.13857
1.13125
1.12881
1.128
1.12721
1.12629
1.12538
1.12468
1.12422
1.12385
1.12378
1.1245
1.12624
1.12646
1.12556
1.12511
1.12511
1.1252
1.12534
1.12561
1.12597
1.1262
1.12631
1.12617
1.12449
1.11883
1.1117
1.10959
1.10945
1.10928
1.10906
1.10888
1.10861
1.10812
1.10737
1.10661
1.1065
1.10666
1.10654
1.10521
1.10371
1.10241
1.10085
1.09951
1.09859
1.09817
1.09814
1.09819
1.09825
1.09801
1.09659
1.09349
1.08824
1.08751
1.09249
1.11312
1.16959
1.24516
1.33054
1.39187
1.44441
1.45761
1.45334
1.4556
1.46242
1.47234
1.47447
1.47314
1.46928
1.46582
1.4654
1.46714
1.4719
1.47277
1.47028
1.46452
1.45689
1.45059
1.44926
1.44766
1.21467
1.21419
1.2141
1.21424
1.21383
1.21335
1.21304
1.21276
1.21246
1.21208
1.2115
1.21054
1.20886
1.20532
1.19783
1.19032
1.18763
1.18674
1.18636
1.18605
1.18568
1.18529
1.18513
1.18613
1.18902
1.19007
1.18936
1.18838
1.18748
1.18668
1.186
1.18535
1.18463
1.18378
1.18271
1.18121
1.17924
1.17711
1.17507
1.17285
1.16974
1.16514
1.16015
1.15758
1.15711
1.15693
1.1567
1.15622
1.15602
1.15608
1.15632
1.15659
1.15682
1.1572
1.1575
1.15743
1.15709
1.15702
1.157
1.15698
1.15701
1.15698
1.15671
1.15624
1.15558
1.15429
1.15064
1.14282
1.1358
1.13358
1.13272
1.13188
1.13094
1.13003
1.12926
1.12859
1.12803
1.12787
1.12864
1.1307
1.13101
1.13016
1.12974
1.12979
1.12987
1.13002
1.13029
1.1306
1.13072
1.13072
1.13054
1.12916
1.12428
1.11721
1.11457
1.1142
1.11392
1.11357
1.11309
1.11243
1.1115
1.11025
1.10888
1.10799
1.10792
1.10842
1.10889
1.10822
1.10633
1.10462
1.10348
1.10256
1.1019
1.10158
1.10143
1.10126
1.10076
1.09923
1.0958
1.09039
1.08756
1.08762
1.0884
1.09292
1.10945
1.1581
1.22937
1.31696
1.38559
1.44099
1.44884
1.45136
1.45798
1.46778
1.47494
1.47485
1.47122
1.46865
1.46856
1.46849
1.47066
1.47194
1.47001
1.46313
1.45357
1.4479
1.44595
1.22131
1.22081
1.22047
1.22008
1.2196
1.2192
1.21906
1.21898
1.21888
1.21873
1.21843
1.21776
1.21611
1.2121
1.20448
1.1969
1.19396
1.19296
1.19243
1.19204
1.19164
1.19125
1.19098
1.19143
1.19388
1.19602
1.19568
1.19466
1.19373
1.19294
1.19225
1.19157
1.1908
1.18984
1.1886
1.18685
1.18453
1.18214
1.18019
1.17841
1.17601
1.17209
1.16758
1.1645
1.16335
1.16319
1.16305
1.16273
1.1623
1.16225
1.16232
1.16248
1.16259
1.16288
1.16333
1.16362
1.16338
1.16306
1.16303
1.16309
1.16306
1.16276
1.16226
1.1616
1.1607
1.15906
1.1551
1.14735
1.14091
1.13909
1.13827
1.13733
1.1362
1.13507
1.13402
1.13314
1.13252
1.13235
1.13331
1.13578
1.13615
1.13537
1.13489
1.13489
1.1349
1.13493
1.13506
1.1353
1.13551
1.13561
1.13557
1.13461
1.1302
1.1228
1.11951
1.11889
1.11843
1.11782
1.11695
1.11585
1.11454
1.11302
1.11131
1.11014
1.10998
1.11019
1.11101
1.11102
1.10987
1.10851
1.1075
1.10661
1.10593
1.10552
1.10515
1.1046
1.10366
1.10195
1.09874
1.094
1.09049
1.08975
1.08976
1.08994
1.09051
1.0936
1.10644
1.1477
1.2148
1.30188
1.3729
1.4325
1.4458
1.45118
1.45853
1.46984
1.47665
1.477
1.47478
1.47196
1.47007
1.46981
1.46994
1.46789
1.46081
1.45229
1.44653
1.22913
1.22862
1.22819
1.22772
1.22716
1.22657
1.22655
1.22671
1.22686
1.22688
1.22681
1.22642
1.225
1.22093
1.21246
1.20418
1.20136
1.20044
1.19979
1.19921
1.19867
1.19816
1.19773
1.19775
1.19939
1.20222
1.20251
1.20158
1.20069
1.19995
1.19923
1.19847
1.19761
1.19657
1.19519
1.19318
1.19054
1.18809
1.18639
1.18498
1.18308
1.17966
1.1751
1.17189
1.17032
1.17005
1.16992
1.16967
1.16916
1.16889
1.16883
1.16882
1.1689
1.16919
1.16958
1.16996
1.17004
1.16971
1.1694
1.16925
1.16895
1.16838
1.16772
1.16702
1.16616
1.16453
1.16034
1.15231
1.14611
1.14432
1.14335
1.14224
1.141
1.13989
1.13905
1.13835
1.13783
1.13773
1.1386
1.14091
1.14138
1.14061
1.14003
1.13994
1.13993
1.13995
1.14011
1.14043
1.14082
1.14104
1.14099
1.13991
1.13522
1.12725
1.12359
1.12291
1.12239
1.12172
1.12079
1.11953
1.1179
1.11635
1.11468
1.11326
1.11272
1.11279
1.1135
1.11373
1.11304
1.1121
1.11143
1.11095
1.11062
1.11022
1.10953
1.10848
1.10715
1.10536
1.10227
1.09743
1.09375
1.09271
1.0924
1.09209
1.09152
1.09153
1.09183
1.09406
1.10351
1.13692
1.19925
1.28238
1.36161
1.42713
1.44054
1.44961
1.46403
1.47919
1.48147
1.4806
1.47642
1.47008
1.46759
1.46719
1.46548
1.46002
1.45142
1.2378
1.23741
1.23714
1.23683
1.2364
1.23564
1.23528
1.23543
1.23571
1.23584
1.23584
1.23564
1.23441
1.23019
1.22106
1.21252
1.20973
1.20864
1.20767
1.20681
1.20608
1.20545
1.2049
1.20476
1.20579
1.20871
1.20975
1.20901
1.20802
1.20729
1.20657
1.2058
1.20496
1.20391
1.20235
1.19997
1.19715
1.19491
1.19338
1.19208
1.19033
1.18706
1.1822
1.17906
1.17781
1.17743
1.17731
1.17711
1.17672
1.17635
1.17613
1.176
1.17598
1.17608
1.17619
1.17614
1.176
1.17603
1.17584
1.17545
1.17504
1.17431
1.17367
1.17308
1.17228
1.17041
1.16526
1.15615
1.15047
1.14904
1.14811
1.14711
1.1462
1.14548
1.14485
1.14431
1.14386
1.14355
1.14369
1.14509
1.14608
1.14542
1.14507
1.14511
1.14523
1.14543
1.14568
1.14596
1.14616
1.14618
1.14582
1.14417
1.13955
1.13179
1.1278
1.12716
1.12669
1.12598
1.12489
1.12381
1.12216
1.11962
1.11722
1.11559
1.11478
1.11483
1.11583
1.1168
1.11667
1.11635
1.11617
1.11604
1.11575
1.115
1.11372
1.11231
1.11087
1.10895
1.10555
1.10026
1.09654
1.09554
1.09511
1.0947
1.0942
1.09372
1.09362
1.09382
1.0943
1.09613
1.10338
1.12946
1.18713
1.27322
1.36051
1.41733
1.43777
1.45702
1.47811
1.48481
1.48438
1.47879
1.46847
1.46418
1.46402
1.46358
1.45885
1.24735
1.24714
1.247
1.24681
1.2465
1.24583
1.24524
1.24524
1.24545
1.24565
1.24569
1.24551
1.2442
1.2394
1.22916
1.22035
1.21775
1.21667
1.2157
1.21474
1.21387
1.21312
1.21248
1.21219
1.21269
1.21496
1.21663
1.21626
1.21534
1.21468
1.21416
1.2134
1.21251
1.21133
1.20933
1.20635
1.20364
1.20195
1.2007
1.19945
1.19773
1.19448
1.18953
1.18636
1.18548
1.18509
1.18479
1.1845
1.18412
1.18371
1.18336
1.18301
1.18264
1.18237
1.1822
1.18203
1.18195
1.18215
1.18226
1.18217
1.18146
1.18045
1.17966
1.17892
1.17778
1.17516
1.16887
1.15981
1.15545
1.15444
1.1537
1.15288
1.15197
1.15111
1.15028
1.14948
1.14884
1.14832
1.14818
1.14918
1.15096
1.15083
1.15054
1.15062
1.1508
1.15087
1.15097
1.15097
1.15081
1.15044
1.14976
1.1481
1.14396
1.13712
1.13255
1.13153
1.1309
1.12999
1.12861
1.12677
1.12463
1.12207
1.11981
1.11832
1.11756
1.11776
1.11957
1.12059
1.12052
1.12056
1.12056
1.12042
1.1199
1.11882
1.11741
1.11599
1.11445
1.11221
1.10841
1.10291
1.09931
1.09833
1.09787
1.09755
1.09728
1.09695
1.09662
1.09636
1.09632
1.09648
1.09668
1.09743
1.10321
1.12716
1.18436
1.26895
1.35587
1.4096
1.44151
1.46936
1.48361
1.48389
1.47761
1.46575
1.46206
1.46277
1.46277
1.25724
1.25718
1.25712
1.25702
1.25685
1.25657
1.25622
1.25592
1.25569
1.25551
1.25526
1.25462
1.25265
1.24704
1.2363
1.22831
1.22635
1.22538
1.2243
1.22315
1.22199
1.22082
1.21973
1.21889
1.21888
1.22081
1.22315
1.22336
1.22293
1.22227
1.22145
1.22052
1.21933
1.21763
1.21526
1.2128
1.21118
1.21004
1.20887
1.20754
1.20558
1.2016
1.19607
1.19305
1.19216
1.19165
1.19117
1.19061
1.19008
1.18972
1.18953
1.18939
1.18922
1.18911
1.18902
1.18892
1.18884
1.18865
1.18841
1.18799
1.18682
1.18566
1.18474
1.18375
1.18232
1.17942
1.17306
1.16485
1.16109
1.15992
1.15894
1.15786
1.15673
1.15561
1.15475
1.15416
1.15361
1.15318
1.15316
1.15431
1.15626
1.15629
1.15578
1.15571
1.15564
1.15549
1.1553
1.15506
1.15485
1.15464
1.15422
1.15299
1.14914
1.14152
1.13618
1.13478
1.13387
1.1326
1.13082
1.12858
1.12621
1.12397
1.12244
1.12169
1.12142
1.1216
1.12295
1.12383
1.12364
1.12367
1.12365
1.1234
1.12284
1.12205
1.12115
1.11999
1.11843
1.11595
1.11156
1.10552
1.10208
1.1013
1.10086
1.10046
1.10013
1.09971
1.09919
1.0989
1.09877
1.09859
1.09859
1.09884
1.09959
1.10128
1.10727
1.12827
1.17889
1.26133
1.34354
1.40235
1.44272
1.47491
1.47918
1.47455
1.46249
1.46054
1.46245
1.26704
1.26718
1.26735
1.26737
1.26734
1.26716
1.26671
1.26603
1.26528
1.26456
1.26375
1.2625
1.25991
1.25383
1.24364
1.23687
1.23485
1.2335
1.23194
1.2302
1.22852
1.22704
1.22585
1.22496
1.22489
1.2269
1.2302
1.23048
1.22966
1.22872
1.22771
1.22651
1.22507
1.22353
1.22207
1.22085
1.21979
1.21866
1.2172
1.21513
1.21203
1.20663
1.20051
1.19811
1.19746
1.19703
1.19666
1.19632
1.19601
1.19578
1.19576
1.1962
1.19658
1.1965
1.19605
1.19552
1.19467
1.19364
1.19261
1.19211
1.19119
1.19007
1.18924
1.18841
1.18715
1.18429
1.17757
1.16905
1.16529
1.164
1.16287
1.1617
1.16073
1.15995
1.15933
1.15899
1.15889
1.15877
1.15865
1.15892
1.16014
1.16042
1.15978
1.15949
1.15938
1.15917
1.15908
1.15915
1.15922
1.15919
1.15884
1.15726
1.15258
1.1442
1.13857
1.137
1.13584
1.13415
1.13194
1.12987
1.12823
1.12672
1.12508
1.12416
1.12398
1.12402
1.12479
1.12612
1.12606
1.12597
1.12598
1.12592
1.12564
1.12517
1.12467
1.12402
1.12274
1.12011
1.11477
1.10774
1.10446
1.10379
1.10332
1.1028
1.10233
1.10184
1.10137
1.1011
1.101
1.10098
1.10131
1.10226
1.10252
1.10257
1.10269
1.10328
1.10717
1.12367
1.16797
1.2449
1.3243
1.39121
1.44383
1.46938
1.46719
1.4585
1.45994
1.27706
1.27688
1.27691
1.27685
1.27653
1.27599
1.2754
1.27482
1.27413
1.27326
1.27207
1.27023
1.26674
1.25944
1.24926
1.24353
1.2414
1.23961
1.2377
1.23593
1.23435
1.23307
1.23236
1.23192
1.23183
1.23244
1.2346
1.23547
1.23476
1.23377
1.23291
1.23209
1.23127
1.23032
1.22923
1.22804
1.22682
1.22554
1.22389
1.22127
1.21672
1.2098
1.20431
1.20313
1.20279
1.20251
1.20227
1.20215
1.20213
1.20207
1.20194
1.202
1.20207
1.20181
1.20081
1.19977
1.19891
1.19793
1.1968
1.19604
1.19525
1.19429
1.19353
1.19269
1.19125
1.18778
1.18009
1.17158
1.16836
1.16727
1.16637
1.16553
1.16491
1.16447
1.16404
1.1635
1.16299
1.16255
1.16216
1.16207
1.16306
1.16388
1.16339
1.16298
1.16294
1.16304
1.16301
1.16303
1.163
1.16275
1.16195
1.16001
1.1555
1.14742
1.14127
1.13942
1.13812
1.13615
1.13362
1.13194
1.1306
1.12854
1.12694
1.12632
1.12605
1.12597
1.12634
1.12823
1.12905
1.12889
1.12893
1.12895
1.12865
1.12795
1.127
1.12595
1.12465
1.12216
1.11675
1.10942
1.10627
1.10562
1.10511
1.10461
1.10421
1.10383
1.10348
1.10323
1.10311
1.10341
1.10467
1.10506
1.10471
1.10438
1.10414
1.10377
1.10358
1.10378
1.10658
1.11915
1.15829
1.22813
1.31125
1.38576
1.43999
1.45014
1.45615
1.2856
1.28518
1.28473
1.28437
1.28388
1.28355
1.28333
1.28304
1.28248
1.28139
1.27956
1.27661
1.27129
1.26175
1.25185
1.24796
1.24632
1.24467
1.24295
1.24165
1.24052
1.23929
1.23818
1.23714
1.23618
1.23575
1.23664
1.23916
1.2398
1.23912
1.23843
1.2378
1.23701
1.23592
1.23467
1.23343
1.23222
1.23098
1.22945
1.22663
1.22085
1.21346
1.2095
1.20838
1.20793
1.20757
1.20726
1.20698
1.20665
1.20625
1.20583
1.20564
1.2055
1.20514
1.20449
1.20348
1.20256
1.20211
1.20144
1.20013
1.1989
1.19786
1.19679
1.19539
1.19323
1.18928
1.18198
1.17446
1.17181
1.17089
1.17009
1.1693
1.1685
1.16773
1.16693
1.16617
1.16554
1.16503
1.16472
1.16486
1.16644
1.16757
1.16717
1.16669
1.16646
1.16621
1.16596
1.16567
1.16531
1.16484
1.16408
1.16247
1.15842
1.15087
1.14444
1.1422
1.14073
1.13869
1.13598
1.13333
1.13158
1.12972
1.12857
1.12826
1.1281
1.12806
1.12858
1.13107
1.13227
1.13198
1.13186
1.13176
1.13128
1.13042
1.12935
1.12811
1.12649
1.12367
1.11794
1.11066
1.10789
1.10735
1.10692
1.10654
1.10617
1.10587
1.10565
1.10545
1.10525
1.10533
1.10634
1.10686
1.10644
1.10603
1.10577
1.10551
1.10497
1.10467
1.10477
1.1048
1.10658
1.11609
1.15045
1.21307
1.30019
1.36754
1.43102
1.29036
1.29199
1.2916
1.29111
1.29076
1.29052
1.29022
1.2897
1.28878
1.28723
1.28477
1.28073
1.27342
1.26222
1.2545
1.25222
1.25077
1.24919
1.24773
1.24615
1.24457
1.243
1.24165
1.24058
1.23988
1.23969
1.24029
1.24253
1.24434
1.24397
1.243
1.24205
1.24092
1.23993
1.23919
1.23827
1.23716
1.23591
1.23431
1.23118
1.22426
1.21675
1.21376
1.2126
1.21169
1.21098
1.21042
1.20984
1.20925
1.20889
1.20896
1.20894
1.20874
1.20803
1.20745
1.20731
1.20658
1.20517
1.20391
1.20266
1.20139
1.20005
1.19855
1.19682
1.19454
1.19078
1.18445
1.17777
1.17489
1.17369
1.17265
1.17164
1.17064
1.16963
1.16881
1.16815
1.16761
1.16723
1.16726
1.16797
1.16951
1.1703
1.16977
1.16901
1.16849
1.16807
1.16772
1.16741
1.16707
1.16666
1.16607
1.16489
1.16159
1.1539
1.14663
1.14397
1.14219
1.13975
1.13684
1.13437
1.13287
1.13152
1.13067
1.13057
1.13055
1.13057
1.13094
1.1329
1.1346
1.13443
1.13409
1.1338
1.13319
1.13217
1.13089
1.1294
1.12758
1.12473
1.11911
1.11206
1.10961
1.10922
1.1089
1.10851
1.10815
1.10783
1.10754
1.10723
1.10706
1.10728
1.10857
1.10883
1.10832
1.10782
1.10748
1.10707
1.10651
1.10602
1.10553
1.10487
1.10415
1.10343
1.10484
1.11259
1.1411
1.19404
1.32533
1.29224
1.29656
1.2974
1.29673
1.29613
1.29565
1.29513
1.29442
1.29331
1.29155
1.28871
1.28368
1.27444
1.26307
1.25751
1.25561
1.25396
1.25216
1.25042
1.24885
1.24755
1.24638
1.24514
1.24415
1.24392
1.24436
1.24465
1.24501
1.24612
1.24653
1.24575
1.24483
1.24416
1.24359
1.24313
1.24268
1.24194
1.2409
1.23879
1.23386
1.22489
1.21786
1.21575
1.21464
1.21364
1.21287
1.21224
1.21169
1.21124
1.21124
1.21196
1.21239
1.2121
1.21082
1.20954
1.20919
1.20866
1.20702
1.20551
1.20433
1.20322
1.20208
1.20077
1.19918
1.19692
1.19301
1.186
1.17903
1.17637
1.17522
1.17416
1.17319
1.17228
1.17139
1.17064
1.17016
1.1699
1.16966
1.16942
1.16944
1.17017
1.17138
1.17123
1.17048
1.16995
1.16968
1.16951
1.16929
1.16902
1.16865
1.16798
1.16648
1.16275
1.1551
1.14798
1.14522
1.14326
1.14066
1.13782
1.1357
1.13451
1.13303
1.1324
1.1324
1.13241
1.13246
1.13277
1.13409
1.13574
1.13623
1.13605
1.13572
1.13508
1.13397
1.13261
1.13108
1.12927
1.12645
1.12084
1.11365
1.11087
1.1104
1.11005
1.10973
1.10948
1.10928
1.10914
1.10902
1.10905
1.10966
1.11081
1.11075
1.11012
1.1095
1.10906
1.10855
1.10799
1.10746
1.10685
1.10601
1.10501
1.10383
1.10281
1.10156
1.10122
1.10506
1.16521
1.29403
1.29862
1.30121
1.30077
1.29995
1.29948
1.29898
1.29827
1.29718
1.29539
1.29227
1.28605
1.27469
1.26377
1.25969
1.25782
1.25593
1.25402
1.25228
1.2508
1.24973
1.24932
1.24905
1.2483
1.24764
1.24719
1.24672
1.24621
1.24628
1.24783
1.24828
1.24762
1.24702
1.24687
1.24656
1.24578
1.24481
1.24352
1.24091
1.23453
1.22426
1.2184
1.21696
1.21611
1.21533
1.21461
1.21403
1.21367
1.21362
1.21384
1.21411
1.21419
1.21396
1.21274
1.21131
1.21047
1.20991
1.20848
1.20695
1.20579
1.2049
1.20402
1.20305
1.20179
1.19961
1.19475
1.1862
1.17938
1.17731
1.17638
1.1755
1.17467
1.17401
1.17346
1.17286
1.17231
1.17176
1.17124
1.17083
1.17058
1.1708
1.17205
1.17257
1.17206
1.17154
1.1713
1.17109
1.17087
1.17061
1.17023
1.16954
1.168
1.16409
1.15617
1.14897
1.1461
1.144
1.14132
1.13872
1.13719
1.13581
1.1342
1.13378
1.13378
1.13382
1.13396
1.13423
1.13497
1.13609
1.13697
1.13764
1.13745
1.13668
1.13559
1.13428
1.13292
1.13136
1.12868
1.1229
1.11491
1.11158
1.11106
1.11077
1.11055
1.11037
1.11028
1.11029
1.11078
1.11153
1.11231
1.11278
1.11243
1.11163
1.11095
1.11042
1.10989
1.10938
1.10889
1.10834
1.10765
1.10658
1.10482
1.10256
1.10036
1.09909
1.09679
1.10066
1.29523
1.29932
1.30352
1.3039
1.30305
1.30242
1.30202
1.30135
1.30029
1.29862
1.29529
1.28733
1.27376
1.26401
1.26106
1.25928
1.25733
1.25536
1.2537
1.25248
1.25203
1.25166
1.25059
1.24962
1.24882
1.248
1.24728
1.24681
1.24713
1.24939
1.25062
1.25016
1.24955
1.24925
1.2486
1.24776
1.24684
1.24545
1.24228
1.23496
1.22463
1.21964
1.21859
1.21788
1.21718
1.21653
1.21598
1.21548
1.21513
1.21523
1.21548
1.21554
1.21523
1.2139
1.21251
1.21206
1.21139
1.20983
1.20832
1.20709
1.20591
1.20473
1.20348
1.20203
1.19979
1.19491
1.18636
1.18021
1.17856
1.17775
1.17694
1.17614
1.17543
1.17476
1.17411
1.1735
1.17291
1.17231
1.17177
1.17145
1.17172
1.17322
1.17388
1.17342
1.17288
1.17257
1.17234
1.17214
1.17192
1.17161
1.17101
1.16948
1.16535
1.15704
1.14968
1.14671
1.14446
1.14169
1.13919
1.13783
1.13671
1.13531
1.13482
1.1347
1.1347
1.13474
1.13483
1.13527
1.13677
1.1378
1.13766
1.13709
1.1364
1.13532
1.13405
1.1328
1.13137
1.12879
1.12313
1.11551
1.11219
1.11166
1.11141
1.11121
1.11101
1.11077
1.11058
1.11075
1.11147
1.11225
1.11255
1.11206
1.11117
1.11048
1.10991
1.10937
1.10889
1.10843
1.10794
1.10733
1.10636
1.10472
1.10231
1.10015
1.09866
1.09724
1.09467
1.29503
1.29926
1.3051
1.30646
1.30576
1.30497
1.30461
1.30397
1.30277
1.30068
1.29609
1.28612
1.27214
1.26471
1.26244
1.26071
1.25882
1.25693
1.25532
1.2544
1.25419
1.25333
1.25199
1.25097
1.25005
1.24917
1.24849
1.24814
1.24866
1.25128
1.25276
1.25228
1.25153
1.25102
1.25025
1.24941
1.24847
1.24703
1.24375
1.23616