/*--------------------------------*- C++ -*----------------------------------*\
  =========                 |
  \\      /  F ield         | OpenFOAM: The Open Source CFD Toolbox
   \\    /   O peration     | Website:  https://openfoam.org
    \\  /    A nd           | Version:  7
     \\/     M anipulation  |
\*---------------------------------------------------------------------------*/
FoamFile
{
    version     2.0;
    format      ascii;
    class       volVectorField;
    location    "0.2";
    object      U;
}
// * * * * * * * * * * * * * * * * * * * * * * * * * * * * * * * * * * * * * //

dimensions      [0 1 -1 0 0 0 0];

internalField   nonuniform List<vector> 
344
(
(0.392473 0.0168409 -4.22044e-16)
(0.390644 0.0168995 -4.0445e-16)
(0.40183 0.0192562 -3.54646e-16)
(0.408815 0.0311343 -3.53246e-16)
(1.22575 0.00017358 1.51956e-15)
(1.22576 0.000143114 1.45141e-15)
(1.22577 0.000117918 1.38144e-15)
(1.22578 9.70919e-05 1.3537e-15)
(1.22579 7.98829e-05 1.27539e-15)
(0.504526 0.0451143 -4.4428e-16)
(0.590948 -0.0654898 -4.67479e-16)
(0.743923 -0.117591 -4.2455e-16)
(0.901091 -0.117059 -4.26489e-16)
(1.04657 -0.0592234 -4.21203e-16)
(1.17166 0.0514266 -4.27602e-16)
(1.27058 0.203552 -4.12736e-16)
(1.33959 0.379011 -3.97323e-16)
(1.37758 0.555444 -3.66414e-16)
(1.38699 0.709577 -3.20082e-16)
(1.37352 0.822125 -1.20418e-16)
(1.34499 0.882159 8.42969e-18)
(1.30954 0.889005 1.81404e-16)
(1.27388 0.850889 4.03451e-16)
(1.24234 0.78119 9.28718e-16)
(1.21693 0.694156 1.21275e-15)
(1.19809 0.601762 1.45865e-15)
(1.18529 0.512355 1.60269e-15)
(1.17758 0.430757 1.94578e-15)
(1.17388 0.359091 1.9118e-15)
(1.17316 0.297719 1.84458e-15)
(1.17453 0.246023 1.78968e-15)
(1.17725 0.202932 1.66541e-15)
(1.18078 0.167246 1.8115e-15)
(1.18469 0.137801 1.65398e-15)
(1.1887 0.113556 1.52131e-15)
(1.19261 0.0936087 1.40045e-15)
(1.19631 0.0772015 1.55398e-15)
(1.19972 0.0637032 1.41817e-15)
(1.2028 0.0525933 1.35983e-15)
(1.20556 0.0434441 1.25666e-15)
(1.208 0.0359049 1.4127e-15)
(1.21014 0.0296881 1.29761e-15)
(1.212 0.0245585 1.21168e-15)
(1.21362 0.0203232 1.12448e-15)
(1.215 0.0168241 1.28835e-15)
(1.2162 0.0139315 1.19159e-15)
(1.21722 0.011539 1.14228e-15)
(1.21808 0.00955927 1.06981e-15)
(1.21883 0.00792028 1.23471e-15)
(1.21945 0.00656291 1.13962e-15)
(1.21999 0.00543839 1.0809e-15)
(1.22044 0.00450654 1.00436e-15)
(1.22082 0.00373418 1.17902e-15)
(1.22114 0.00309391 1.09578e-15)
(1.22142 0.00256308 1.01989e-15)
(1.22165 0.00212297 9.99411e-16)
(1.22184 0.00175806 9.27201e-16)
(1.222 0.00145552 1.10837e-15)
(1.22214 0.0012047 1.03989e-15)
(1.22226 0.000996783 1.00729e-15)
(1.22235 0.000824463 9.51008e-16)
(1.22244 0.000681671 1.11317e-15)
(1.2225 0.000563374 1.03844e-15)
(1.22256 0.000465395 1.02143e-15)
(1.22261 0.000384269 9.57367e-16)
(1.22265 0.000317119 1.1257e-15)
(1.22269 0.000261557 1.0517e-15)
(1.22271 0.000215603 9.81812e-16)
(1.22274 0.000177609 9.06685e-16)
(1.22276 0.000146213 1.05225e-15)
(1.22278 0.000120281 9.72547e-16)
(1.22279 9.88723e-05 9.35633e-16)
(1.2228 8.12104e-05 8.89927e-16)
(1.22281 6.66412e-05 8.39638e-16)
(0.183696 -0.0702317 -1.97206e-16)
(0.299393 -0.178583 -2.71698e-16)
(0.479051 -0.224541 -2.75081e-16)
(0.633317 -0.21483 -2.76111e-16)
(0.769951 -0.145259 -2.66958e-16)
(0.885375 -0.0226982 -2.76008e-16)
(0.978048 0.14072 -2.70779e-16)
(1.04701 0.326577 -2.5826e-16)
(1.09281 0.511922 -2.21897e-16)
(1.118 0.672986 -1.91149e-16)
(1.12714 0.790318 -4.95106e-17)
(1.12591 0.853261 9.71884e-17)
(1.11985 0.861743 3.14605e-16)
(1.11319 0.824661 4.97724e-16)
(1.1084 0.755905 8.80893e-16)
(1.10652 0.669985 1.16648e-15)
(1.10763 0.57894 1.4222e-15)
(1.11137 0.491078 1.45912e-15)
(1.11714 0.411155 1.61498e-15)
(1.12433 0.341226 1.58345e-15)
(1.13237 0.281601 1.5012e-15)
(1.14075 0.231616 1.48445e-15)
(1.1491 0.190163 1.32522e-15)
(1.15713 0.156014 1.32176e-15)
(1.16466 0.12799 1.22439e-15)
(1.17157 0.105036 1.16794e-15)
(1.17783 0.0862504 1.04066e-15)
(1.18341 0.0708753 1.05578e-15)
(1.18834 0.0582862 1.00984e-15)
(1.19265 0.0479708 9.99953e-16)
(1.19641 0.0395113 8.82569e-16)
(1.19965 0.0325674 9.02864e-16)
(1.20245 0.0268621 8.70894e-16)
(1.20484 0.0221701 8.66828e-16)
(1.20688 0.0183078 7.73577e-16)
(1.20862 0.0151258 8.20827e-16)
(1.2101 0.0125022 7.9647e-16)
(1.21136 0.0103373 8.18529e-16)
(1.21242 0.00854976 7.14646e-16)
(1.21332 0.0070729 7.85825e-16)
(1.21408 0.00585209 7.51159e-16)
(1.21471 0.00484248 7.58772e-16)
(1.21525 0.00400721 6.81691e-16)
(1.21571 0.00331598 7.28602e-16)
(1.21609 0.00274381 7.11321e-16)
(1.21641 0.0022701 6.79182e-16)
(1.21668 0.00187787 7.08996e-16)
(1.21691 0.00155309 6.29241e-16)
(1.2171 0.00128415 6.84766e-16)
(1.21726 0.00106148 6.69826e-16)
(1.21739 0.000877117 7.02386e-16)
(1.2175 0.000724505 6.38147e-16)
(1.2176 0.000598197 6.86346e-16)
(1.21768 0.000493683 6.91613e-16)
(1.21774 0.000407227 7.11331e-16)
(1.2178 0.000335731 6.39236e-16)
(1.21785 0.000276628 6.85977e-16)
(1.21789 0.000227787 6.72733e-16)
(1.21792 0.000187446 6.8462e-16)
(1.21795 0.000154139 6.14661e-16)
(1.21797 0.000126655 6.61313e-16)
(1.21799 0.000103987 6.36383e-16)
(1.218 8.53026e-05 6.40927e-16)
(1.21802 6.99126e-05 5.89856e-16)
(1.21803 5.72392e-05 5.9538e-16)
(0.0909006 -0.134535 -1.27767e-16)
(0.196822 -0.231988 -2.01164e-16)
(0.368582 -0.275095 -2.1833e-16)
(0.512438 -0.259722 -2.18364e-16)
(0.638936 -0.184529 -2.16553e-16)
(0.745386 -0.0570224 -2.14684e-16)
(0.831994 0.110486 -2.09386e-16)
(0.899 0.299891 -1.96066e-16)
(0.947541 0.488137 -1.72169e-16)
(0.980092 0.651362 -1.30458e-16)
(1.00049 0.770141 -9.83452e-18)
(1.01319 0.834004 1.45234e-16)
(1.02225 0.843169 3.07933e-16)
(1.03054 0.806807 5.36028e-16)
(1.03958 0.738963 8.66849e-16)
(1.04983 0.654166 1.13407e-15)
(1.06123 0.564387 1.27715e-15)
(1.07346 0.477853 1.3715e-15)
(1.08615 0.399254 1.44182e-15)
(1.0989 0.330605 1.41214e-15)
(1.11137 0.272191 1.33022e-15)
(1.1233 0.223333 1.20738e-15)
(1.13446 0.182916 1.1353e-15)
(1.14473 0.14971 1.08803e-15)
(1.15405 0.122534 1.0065e-15)
(1.16239 0.100337 8.92876e-16)
(1.16978 0.0822187 8.47099e-16)
(1.17627 0.0674294 8.32258e-16)
(1.18193 0.0553505 8.00564e-16)
(1.18683 0.0454768 7.1703e-16)
(1.19106 0.0373977 7.02245e-16)
(1.19468 0.0307799 6.93977e-16)
(1.19778 0.0253531 6.74377e-16)
(1.20042 0.0208981 5.94465e-16)
(1.20267 0.0172371 5.90351e-16)
(1.20457 0.0142255 6.04325e-16)
(1.20618 0.0117459 6.02421e-16)
(1.20754 0.00970248 5.50373e-16)
(1.20869 0.00801729 5.39654e-16)
(1.20966 0.00662656 5.7181e-16)
(1.21048 0.00547815 5.51413e-16)
(1.21116 0.00452934 5.12615e-16)
(1.21174 0.00374511 5.15457e-16)
(1.21223 0.00309668 5.326e-16)
(1.21263 0.00256038 5.30305e-16)
(1.21298 0.00211672 5.22406e-16)
(1.21326 0.00174967 4.75846e-16)
(1.2135 0.00144595 4.73932e-16)
(1.21371 0.00119465 4.96942e-16)
(1.21388 0.000986724 4.98939e-16)
(1.21402 0.0008147 4.55026e-16)
(1.21414 0.0006724 4.66275e-16)
(1.21424 0.000554712 5.1383e-16)
(1.21432 0.000457401 5.18404e-16)
(1.21439 0.000376963 4.7772e-16)
(1.21445 0.000310493 4.85973e-16)
(1.2145 0.000255586 5.08428e-16)
(1.21454 0.000210249 5.06054e-16)
(1.21457 0.000172832 4.57664e-16)
(1.2146 0.000141965 4.68793e-16)
(1.21463 0.000116516 4.86918e-16)
(1.21465 9.55463e-05 4.6784e-16)
(1.21466 7.82774e-05 4.28735e-16)
(1.21468 6.40671e-05 4.40418e-16)
(1.21469 5.23798e-05 3.83947e-16)
(0.0421507 -0.170359 -8.30464e-17)
(0.129603 -0.276385 -1.5603e-16)
(0.280047 -0.319726 -1.81193e-16)
(0.406862 -0.298915 -1.77154e-16)
(0.518703 -0.21879 -1.69479e-16)
(0.613135 -0.0875162 -1.64669e-16)
(0.691567 0.0827346 -1.58703e-16)
(0.75514 0.274018 -1.42468e-16)
(0.805402 0.463467 -1.12864e-16)
(0.844637 0.627353 -7.1183e-17)
(0.87584 0.746452 3.20103e-17)
(0.902135 0.810572 1.86299e-16)
(0.926051 0.820217 3.62238e-16)
(0.949074 0.784749 5.64547e-16)
(0.971718 0.718238 8.52774e-16)
(0.993923 0.635102 1.07901e-15)
(1.01544 0.547148 1.21725e-15)
(1.03602 0.462459 1.26819e-15)
(1.05547 0.385633 1.27071e-15)
(1.07364 0.318635 1.22063e-15)
(1.09043 0.261731 1.14349e-15)
(1.10577 0.214237 1.04112e-15)
(1.11963 0.175042 9.46323e-16)
(1.13203 0.142923 8.6451e-16)
(1.14303 0.116706 7.94103e-16)
(1.15271 0.09535 7.18785e-16)
(1.16115 0.0779661 6.66369e-16)
(1.16848 0.0638133 6.28893e-16)
(1.17481 0.0522836 6.02685e-16)
(1.18024 0.0428816 5.52547e-16)
(1.18488 0.0352059 5.29958e-16)
(1.18885 0.028932 5.01434e-16)
(1.19221 0.0237973 4.81788e-16)
(1.19507 0.0195899 4.50651e-16)
(1.19749 0.0161382 4.26791e-16)
(1.19953 0.0133033 4.14511e-16)
(1.20126 0.0109725 4.14915e-16)
(1.20271 0.00905434 4.09396e-16)
(1.20393 0.00747442 3.88277e-16)
(1.20496 0.00617208 3.77603e-16)
(1.20583 0.00509783 3.83709e-16)
(1.20655 0.0042112 3.63967e-16)
(1.20716 0.00347907 3.60343e-16)
(1.20767 0.00287428 3.61206e-16)
(1.2081 0.00237452 3.56642e-16)
(1.20846 0.00196144 3.58497e-16)
(1.20876 0.00161996 3.49058e-16)
(1.20902 0.00133764 3.34177e-16)
(1.20923 0.00110422 3.36876e-16)
(1.20941 0.000911247 3.42478e-16)
(1.20956 0.000751717 3.33235e-16)
(1.20968 0.000619855 3.38204e-16)
(1.20978 0.000510885 3.43467e-16)
(1.20987 0.000420856 3.61551e-16)
(1.20994 0.000346496 3.5528e-16)
(1.21 0.0002851 3.30356e-16)
(1.21006 0.000234428 3.40834e-16)
(1.2101 0.000192624 3.40657e-16)
(1.21013 0.000158153 3.24737e-16)
(1.21016 0.000129744 3.29888e-16)
(1.21019 0.000106345 3.23962e-16)
(1.21021 8.70829e-05 3.31154e-16)
(1.21023 7.1238e-05 3.13934e-16)
(1.21024 5.82135e-05 3.04565e-16)
(1.21025 4.75175e-05 2.83666e-16)
(1.21026 3.87347e-05 2.71704e-16)
(0.0173347 -0.187256 -5.92741e-17)
(0.0849967 -0.310951 -1.2602e-16)
(0.208357 -0.35639 -1.57854e-16)
(0.314078 -0.331352 -1.49735e-16)
(0.408192 -0.247413 -1.34156e-16)
(0.488569 -0.113643 -1.26087e-16)
(0.557414 0.0578214 -1.18891e-16)
(0.616537 0.249272 -9.63328e-17)
(0.667769 0.438188 -5.53371e-17)
(0.713099 0.601187 -1.52962e-17)
(0.754604 0.719429 7.2058e-17)
(0.79402 0.783111 2.23818e-16)
(0.832322 0.793023 4.2116e-16)
(0.869624 0.758622 5.89567e-16)
(0.905465 0.693862 8.08945e-16)
(0.939256 0.612915 1.009e-15)
(0.970573 0.527329 1.14996e-15)
(0.999227 0.444987 1.14614e-15)
(1.0252 0.370368 1.08526e-15)
(1.04858 0.305383 1.03641e-15)
(1.06948 0.250279 9.59633e-16)
(1.08806 0.204379 8.89962e-16)
(1.10446 0.166586 7.69555e-16)
(1.11886 0.13569 6.65177e-16)
(1.13142 0.110539 6.01541e-16)
(1.14232 0.0901056 5.71603e-16)
(1.15172 0.0735175 4.92782e-16)
(1.1598 0.0600484 4.31359e-16)
(1.16672 0.0491037 4.14724e-16)
(1.17262 0.0402006 4.13136e-16)
(1.17763 0.0329491 3.66793e-16)
(1.18188 0.0270347 3.04288e-16)
(1.18548 0.0222041 2.99762e-16)
(1.18852 0.0182533 3.07674e-16)
(1.19109 0.0150177 2.76511e-16)
(1.19325 0.0123647 2.49212e-16)
(1.19506 0.0101867 2.51376e-16)
(1.19659 0.00839675 2.77531e-16)
(1.19787 0.00692436 2.36737e-16)
(1.19895 0.00571214 2.13606e-16)
(1.19985 0.00471337 2.17117e-16)
(1.20061 0.00388993 2.44623e-16)
(1.20125 0.00321068 2.17726e-16)
(1.20178 0.00265011 1.95001e-16)
(1.20222 0.00218733 2.0928e-16)
(1.2026 0.00180517 2.17858e-16)
(1.20291 0.00148952 2.36426e-16)
(1.20317 0.00122879 2.0339e-16)
(1.20339 0.00101341 1.88469e-16)
(1.20357 0.000835499 2.05469e-16)
(1.20373 0.000688547 2.21963e-16)
(1.20385 0.000567186 2.08328e-16)
(1.20396 0.000466982 1.95653e-16)
(1.20405 0.000384268 2.13712e-16)
(1.20413 0.000316012 2.34164e-16)
(1.20419 0.000259708 2.08273e-16)
(1.20424 0.000213282 1.82919e-16)
(1.20428 0.00017502 1.97674e-16)
(1.20432 0.000143501 2.17892e-16)
(1.20435 0.000117553 2.00806e-16)
(1.20438 9.62041e-05 1.68839e-16)
(1.2044 7.86508e-05 1.83073e-16)
(1.20442 6.42289e-05 1.93842e-16)
(1.20443 5.23892e-05 1.72634e-16)
(1.20444 4.26818e-05 1.90336e-16)
(1.20445 3.47207e-05 1.61145e-16)
(0.00508184 -0.195064 -5.84299e-17)
(0.0542791 -0.335885 -1.09986e-16)
(0.149019 -0.38393 -1.45822e-16)
(0.231702 -0.356124 -1.30092e-16)
(0.306429 -0.269772 -1.19673e-16)
(0.37166 -0.134998 -9.73655e-17)
(0.430165 0.036002 -8.91797e-17)
(0.48426 0.225835 -5.64175e-17)
)
;

boundaryField
{
    inlet
    {
        type            uniformFixedValue;
        uniformValue    constant (1 0 0);
        value           nonuniform 0();
    }
    outlet
    {
        type            pressureInletOutletVelocity;
        value           nonuniform 0();
    }
    wall
    {
        type            fixedValue;
        value           uniform (0 0 0);
    }
    wedge1
    {
        type            wedge;
    }
    wedge2
    {
        type            wedge;
    }
    axis
    {
        type            empty;
    }
    procBoundary21to15
    {
        type            processor;
        value           nonuniform List<vector> 
70
(
(1.42232 -0.0435147 -1.33091e-15)
(1.3361 -0.00510539 -1.25553e-15)
(1.28787 0.0184462 -1.13701e-15)
(1.25748 0.047816 -1.07345e-15)
(1.22692 0.000197284 1.78717e-15)
(1.22693 0.000162921 1.91554e-15)
(1.22693 0.000134464 1.91002e-15)
(1.22694 0.000110909 1.9168e-15)
(1.22694 9.14209e-05 1.70548e-15)
(1.25265 0.0678208 -1.04505e-15)
(1.26775 0.0373464 -9.95351e-16)
(1.3411 0.0163397 -9.00987e-16)
(1.4465 0.0259801 -8.55215e-16)
(1.55837 0.076755 -8.16323e-16)
(1.66 0.170431 -7.8308e-16)
(1.73927 0.300022 -7.41183e-16)
(1.78757 0.451175 -6.79301e-16)
(1.80061 0.604388 -6.17645e-16)
(1.77934 0.738792 -5.10072e-16)
(1.72961 0.836752 -2.87544e-16)
(1.66077 0.887909 -1.13662e-16)
(1.5834 0.891031 7.4401e-17)
(1.50681 0.852993 3.48373e-16)
(1.4375 0.785557 8.00696e-16)
(1.37877 0.701561 1.16339e-15)
(1.3315 0.612033 1.44802e-15)
(1.29499 0.524832 1.72819e-15)
(1.26776 0.444629 2.12896e-15)
(1.24812 0.373584 2.18889e-15)
(1.23441 0.31219 2.21842e-15)
(1.2252 0.259988 2.22136e-15)
(1.21931 0.21606 2.15338e-15)
(1.2158 0.179336 2.33072e-15)
(1.21397 0.148757 2.20714e-15)
(1.21328 0.123355 2.03604e-15)
(1.21334 0.102282 1.92248e-15)
(1.21389 0.0848117 2.09882e-15)
(1.21471 0.070333 1.98703e-15)
(1.21567 0.0583347 1.92909e-15)
(1.21669 0.0483911 1.83951e-15)
(1.2177 0.0401494 1.97741e-15)
(1.21866 0.0333169 1.88459e-15)
(1.21955 0.0276514 1.75319e-15)
(1.22036 0.0229524 1.64458e-15)
(1.2211 0.0190542 1.81415e-15)
(1.22175 0.0158194 1.73092e-15)
(1.22232 0.0131347 1.6655e-15)
(1.22282 0.0109059 1.62324e-15)
(1.22325 0.00905541 1.75748e-15)
(1.22363 0.0075187 1.68933e-15)
(1.22396 0.00624242 1.57695e-15)
(1.22423 0.00518234 1.50989e-15)
(1.22447 0.00430178 1.67665e-15)
(1.22468 0.00357033 1.58496e-15)
(1.22485 0.00296274 1.55617e-15)
(1.225 0.00245805 1.53239e-15)
(1.22513 0.00203887 1.48247e-15)
(1.22524 0.00169074 1.65024e-15)
(1.22533 0.00140166 1.58784e-15)
(1.2254 0.00116165 1.50237e-15)
(1.22547 0.00096241 1.45514e-15)
(1.22553 0.000797059 1.62139e-15)
(1.22557 0.000659861 1.54995e-15)
(1.22561 0.000546054 1.50938e-15)
(1.22565 0.000451677 1.46022e-15)
(1.22567 0.000373437 1.612e-15)
(1.2257 0.000308598 1.54077e-15)
(1.22572 0.000254882 1.42787e-15)
(1.22574 0.0002104 1.34753e-15)
(1.22574 0.0002104 1.34753e-15)
)
;
    }
    procBoundary21to16
    {
        type            processor;
        value           nonuniform List<vector> 2((1.2258 6.5674e-05 1.23479e-15) (1.22282 5.46363e-05 7.99438e-16));
    }
    procBoundary21to20
    {
        type            processor;
        value           uniform (0.416707 0.00539002 -4.7699e-16);
    }
    procBoundary21to22
    {
        type            processor;
        value           nonuniform List<vector> 5((1.21804 4.68147e-05 5.33522e-16) (1.2147 4.27747e-05 3.94493e-16) (1.2147 4.27747e-05 3.94493e-16) (1.21027 3.15263e-05 2.59589e-16) (1.20446 2.81894e-05 1.71683e-16));
    }
    procBoundary21to27
    {
        type            processor;
        value           nonuniform List<vector> 
67
(
(0.535955 0.412461 -2.86354e-17)
(0.586872 0.573031 2.94578e-17)
(0.638121 0.689262 1.07351e-16)
(0.690035 0.751835 2.57201e-16)
(0.742059 0.761815 3.91724e-16)
(0.792977 0.728648 5.98225e-16)
(0.841398 0.666036 7.57823e-16)
(0.886229 0.587781 9.21008e-16)
(0.926878 0.505079 9.6362e-16)
(0.963206 0.425564 9.93448e-16)
(0.995367 0.353569 8.98922e-16)
(1.02366 0.290941 8.49824e-16)
(1.04843 0.237915 7.81654e-16)
(1.07003 0.193828 6.31152e-16)
(1.08878 0.157605 5.95513e-16)
(1.105 0.128065 4.68613e-16)
(1.11897 0.104078 4.20293e-16)
(1.13096 0.0846422 3.11295e-16)
(1.14122 0.0689065 3.27992e-16)
(1.14995 0.0561634 2.40244e-16)
(1.15738 0.0458354 2.43025e-16)
(1.16367 0.0374548 1.64911e-16)
(1.169 0.0306449 2.05291e-16)
(1.17349 0.025103 1.32544e-16)
(1.17728 0.020586 1.52724e-16)
(1.18046 0.0168988 8.17282e-17)
(1.18314 0.0138846 1.26599e-16)
(1.18539 0.0114171 7.44892e-17)
(1.18728 0.00939464 9.96533e-17)
(1.18886 0.00773495 5.89929e-17)
(1.19019 0.00637153 1.02584e-16)
(1.1913 0.00525046 5.58537e-17)
(1.19224 0.00432789 7.50075e-17)
(1.19302 0.00356814 2.98799e-17)
(1.19367 0.0029421 8.17132e-17)
(1.19421 0.00242599 3.87843e-17)
(1.19467 0.00200034 6.89473e-17)
(1.19505 0.00164918 8.78195e-17)
(1.19537 0.00135943 4.53176e-17)
(1.19564 0.00112031 9.27614e-17)
(1.19586 0.000922969 4.5967e-17)
(1.19605 0.000760109 7.95861e-17)
(1.19621 0.000625718 3.1433e-17)
(1.19634 0.000514837 8.09835e-17)
(1.19645 0.000423374 5.03766e-17)
(1.19654 0.000347949 8.54942e-17)
(1.19661 0.000285772 3.50154e-17)
(1.19668 0.000234536 8.83097e-17)
(1.19673 0.000192334 4.08713e-17)
(1.19677 0.000157592 6.98797e-17)
(1.19681 0.000129006 2.95069e-17)
(1.19684 0.000105501 8.21012e-17)
(1.19687 8.61859e-05 2.95561e-17)
(1.19689 7.03262e-05 6.48664e-17)
(1.19691 5.73144e-05 9.7285e-18)
(1.19692 4.66479e-05 5.44834e-17)
(1.19693 3.79176e-05 1.55134e-17)
(1.19694 3.07691e-05 5.19826e-17)
(-0.000802771 -0.197728 -4.92145e-17)
(0.0317947 -0.351816 -9.87729e-17)
(0.0985588 -0.402239 -1.41671e-16)
(0.157826 -0.372983 -1.15622e-16)
(0.212678 -0.28568 -1.0162e-16)
(0.262485 -0.151479 -7.53548e-17)
(0.310462 0.0173468 -6.9054e-17)
(0.535955 0.412461 -2.86354e-17)
(0.359331 0.203786 -2.42603e-17)
)
;
    }
}


// ************************************************************************* //
