0.228072 	0.456831 	-2.0895e-18 	1.09915 	-0.034988 	1.97542e-16
0.230412 	0.461517 	-1.77843e-18 	1.09942 	-0.0335348 	1.74154e-16
0.233163 	0.467027 	-1.07757e-18 	1.07786 	-0.0323553 	1.38104e-17
0.237751 	0.476218 	-9.40578e-19 	0.979214 	-0.0266222 	1.82173e-16
0.240091 	0.480904 	-2.35173e-18 	0.969776 	-0.024857 	1.78695e-16
0.242521 	0.485771 	-2.6337e-18 	0.697732 	-0.0110795 	2.05154e-16
0.247199 	0.495143 	-1.58264e-18 	0.235514 	0.00082964 	9.46526e-17
