/*--------------------------------*- C++ -*----------------------------------*\
  =========                 |
  \\      /  F ield         | OpenFOAM: The Open Source CFD Toolbox
   \\    /   O peration     | Website:  https://openfoam.org
    \\  /    A nd           | Version:  7
     \\/     M anipulation  |
\*---------------------------------------------------------------------------*/
FoamFile
{
    version     2.0;
    format      ascii;
    class       volVectorField;
    location    "8.8";
    object      U;
}
// * * * * * * * * * * * * * * * * * * * * * * * * * * * * * * * * * * * * * //

dimensions      [0 1 -1 0 0 0 0];

internalField   nonuniform List<vector> 
16528
(
(1.00014 -0.000244853 5.08374e-16)
(1.00145 -0.000722192 -7.96868e-16)
(1.00426 -0.00119827 2.0193e-15)
(1.00852 -0.00165953 3.04647e-15)
(1.0141 -0.00209531 9.19366e-16)
(1.02092 -0.00250064 9.16752e-16)
(1.02889 -0.00287138 7.91642e-17)
(1.03791 -0.00320403 1.23034e-15)
(1.04785 -0.00349646 2.1301e-15)
(1.0586 -0.00374796 -9.64908e-16)
(1.07003 -0.00395903 -6.93967e-16)
(1.08202 -0.00413113 -1.11522e-15)
(1.09447 -0.00426645 -2.34891e-15)
(1.10727 -0.00436774 -2.7632e-15)
(1.12031 -0.00443812 -3.08015e-15)
(1.13352 -0.00448088 -3.96239e-15)
(1.14681 -0.00449934 -4.68793e-15)
(1.16013 -0.0044968 -3.35962e-15)
(1.17341 -0.00447635 -4.42986e-15)
(1.1866 -0.00444093 -4.42676e-15)
(1.19967 -0.00439319 -3.21436e-15)
(1.21258 -0.00433554 -5.28201e-15)
(1.2253 -0.00427011 -5.42915e-15)
(1.23783 -0.00419876 -1.19925e-14)
(1.25013 -0.00412312 -6.78065e-15)
(1.2622 -0.00404455 -6.15524e-15)
(1.27404 -0.00396422 -5.9996e-15)
(1.28564 -0.00388309 -6.91992e-15)
(1.297 -0.00380194 -4.70901e-15)
(1.30811 -0.00372142 -4.40179e-15)
(1.31899 -0.00364203 -5.01711e-15)
(1.32964 -0.00356415 -5.35786e-15)
(1.34006 -0.00348807 -6.72154e-15)
(1.35026 -0.00341402 -6.18372e-15)
(1.36024 -0.00334211 -6.20868e-15)
(1.37001 -0.00327246 -4.89959e-15)
(1.37958 -0.00320508 -4.55268e-15)
(1.38895 -0.00313998 -5.56206e-15)
(1.39813 -0.00307714 -6.56008e-15)
(1.40713 -0.00301651 -6.26554e-15)
(1.41596 -0.00295803 -6.03309e-15)
(1.42461 -0.0029016 -5.51147e-15)
(1.4331 -0.00284716 -5.03854e-15)
(1.44143 -0.00279461 -5.02388e-15)
(1.44961 -0.00274384 -5.70056e-15)
(1.45764 -0.00269478 -5.49441e-15)
(1.46552 -0.00264732 -5.92842e-15)
(1.47327 -0.00260138 -5.50692e-15)
(1.48088 -0.00255686 -6.37948e-15)
(1.48837 -0.00251368 -6.61454e-15)
(1.49573 -0.00247176 -7.64064e-15)
(1.50296 -0.00243103 -5.90005e-15)
(1.51008 -0.00239141 -7.32812e-15)
(1.51708 -0.00235284 -5.65406e-15)
(1.52397 -0.00231525 -6.47449e-15)
(1.53075 -0.00227859 -6.8472e-15)
(1.53742 -0.0022428 -5.75247e-15)
(1.54398 -0.00220783 -4.81283e-15)
(1.55044 -0.00217365 -4.74975e-15)
(1.55681 -0.0021402 -5.39232e-15)
(1.56307 -0.00210745 -6.28747e-15)
(1.56924 -0.00207537 -5.76864e-15)
(1.57532 -0.00204392 -6.12337e-15)
(1.5813 -0.00201307 -6.21159e-15)
(1.58719 -0.0019828 -5.38968e-15)
(1.59299 -0.00195309 -6.31447e-15)
(1.59871 -0.00192391 -6.2455e-15)
(1.60434 -0.00189524 -5.7801e-15)
(1.60989 -0.00186706 -4.5076e-15)
(1.61535 -0.00183936 -3.88471e-15)
(1.62073 -0.00181213 -5.44386e-15)
(1.62603 -0.00178533 -5.15197e-15)
(1.63126 -0.00175898 -4.64039e-15)
(1.6364 -0.00173305 -4.51908e-15)
(1.64147 -0.00170752 -4.30823e-15)
(1.64647 -0.0016824 -5.39671e-15)
(1.65139 -0.00165767 -3.91345e-15)
(1.65624 -0.00163333 -4.07566e-15)
(1.66102 -0.00160936 -4.58164e-15)
(1.66573 -0.00158576 -4.832e-15)
(1.67036 -0.00156252 -3.95557e-15)
(1.67493 -0.00153963 -3.69705e-15)
(1.67944 -0.00151709 -3.2979e-15)
(1.68387 -0.00149489 -4.01272e-15)
(1.68824 -0.00147302 -3.72692e-15)
(1.69255 -0.00145148 -3.97374e-15)
(1.6968 -0.00143027 -4.23198e-15)
(1.70098 -0.00140938 -4.6765e-15)
(1.7051 -0.0013888 -6.16641e-15)
(1.70916 -0.00136853 -5.07404e-15)
(1.71316 -0.00134857 -5.43418e-15)
(1.7171 -0.00132891 -4.76597e-15)
(1.72099 -0.00130954 -5.80806e-15)
(1.72482 -0.00129046 -4.44569e-15)
(1.72859 -0.00127167 -3.88241e-15)
(1.73231 -0.00125316 -3.71076e-15)
(1.73597 -0.00123494 -4.20574e-15)
(1.73958 -0.00121698 -3.2005e-15)
(1.74314 -0.0011993 -3.46869e-15)
(1.74664 -0.00118188 -4.24373e-15)
(1.7501 -0.00116473 -4.33065e-15)
(1.7535 -0.00114784 -4.13038e-15)
(1.75686 -0.0011312 -3.65663e-15)
(1.76016 -0.00111481 -3.34645e-15)
(1.76342 -0.00109867 -2.88377e-15)
(1.76663 -0.00108278 -2.96377e-15)
(1.7698 -0.00106712 -2.09682e-15)
(1.77291 -0.00105171 -2.11745e-15)
(1.77599 -0.00103653 -2.65436e-15)
(1.77902 -0.00102158 -1.88893e-15)
(1.782 -0.00100685 -1.93729e-15)
(1.78494 -0.000992356 -1.2647e-15)
(1.78784 -0.000978079 -1.49474e-15)
(1.7907 -0.000964019 -1.15816e-15)
(1.79352 -0.000950175 -8.50685e-16)
(1.7963 -0.000936543 -4.51754e-16)
(1.79903 -0.00092312 -1.27697e-15)
(1.80173 -0.000909904 -8.67527e-16)
(1.80439 -0.000896892 -1.82443e-15)
(1.80701 -0.000884081 -4.64475e-16)
(1.80959 -0.00087147 -2.47825e-15)
(1.81214 -0.000859055 -1.36302e-15)
(1.81465 -0.000846835 -1.56836e-15)
(1.81712 -0.000834809 -1.91038e-15)
(1.81956 -0.000822974 -1.54623e-15)
(1.82197 -0.00081133 -1.15877e-15)
(1.82434 -0.000799875 -1.52055e-15)
(1.82668 -0.000788609 -8.46488e-16)
(1.82898 -0.000777531 -8.82648e-16)
(1.83125 -0.000766643 -6.27705e-16)
(1.83349 -0.000755944 -3.55417e-16)
(1.8357 -0.000745437 -4.36268e-16)
(1.83788 -0.000735124 -7.3501e-16)
(1.84003 -0.000725008 -9.81602e-16)
(1.84215 -0.000715094 -3.41672e-16)
(1.84424 -0.000705386 -7.01645e-16)
(1.8463 -0.000695893 -1.26829e-15)
(1.84833 -0.000686622 -7.5032e-16)
(1.85034 -0.000677585 -3.83714e-16)
(1.85232 -0.000668795 3.47553e-16)
(1.85427 -0.000660268 7.03073e-16)
(1.8562 -0.000652022 8.9197e-16)
(1.85811 -0.000644082 7.38003e-16)
(1.85999 -0.000636473 5.93373e-16)
(1.86186 -0.000629231 -2.70185e-16)
(1.8637 -0.000622392 -1.51328e-15)
(1.86552 -0.000616004 -1.05206e-15)
(1.86732 -0.000610123 -3.24156e-16)
(1.86911 -0.000604812 4.54914e-16)
(1.87088 -0.00060015 1.00743e-15)
(1.87264 -0.000596227 1.60256e-15)
(1.87439 -0.000593152 -5.21035e-16)
(1.87613 -0.000591052 2.77413e-16)
(1.87787 -0.000590076 -8.7025e-16)
(1.87961 -0.000590403 8.70442e-16)
(1.88134 -0.000592241 1.20048e-15)
(1.88309 -0.000595835 6.6683e-16)
(1.88485 -0.000601476 6.94237e-16)
(1.88663 -0.000609505 1.04567e-15)
(1.88844 -0.000620321 3.62579e-17)
(1.89028 -0.000634398 2.34628e-16)
(1.89217 -0.000652288 -5.66095e-16)
(1.89412 -0.000674643 -9.25068e-16)
(1.89614 -0.000702227 3.14919e-16)
(1.89826 -0.000735934 1.81767e-15)
(1.90048 -0.000776814 1.31466e-15)
(1.90283 -0.000826094 1.42133e-16)
(1.90534 -0.00088521 4.18923e-16)
(1.90804 -0.000955834 5.585e-16)
(1.91097 -0.00103992 8.56307e-16)
(1.91417 -0.00113972 6.39373e-16)
(1.91769 -0.00125788 -3.37864e-16)
(1.92158 -0.00139743 -3.38727e-16)
(1.92592 -0.00156187 3.20585e-16)
(1.93078 -0.00175521 2.88795e-16)
(1.93626 -0.00198204 8.32704e-16)
(1.94247 -0.00224753 4.06504e-16)
(1.94951 -0.00255753 1.43885e-15)
(1.95754 -0.00291856 -1.4001e-16)
(1.96672 -0.00333778 1.13516e-15)
(1.97722 -0.00382296 7.50374e-16)
(1.98926 -0.00438238 8.33987e-16)
(2.00306 -0.00502459 2.43443e-16)
(2.01889 -0.00575815 9.55675e-16)
(2.03702 -0.00659114 3.8787e-17)
(2.05776 -0.00753052 1.06586e-16)
(2.08144 -0.00858132 2.18154e-17)
(2.10838 -0.00974552 5.90922e-16)
(2.13893 -0.0110207 1.55997e-15)
(2.17341 -0.0123985 1.59582e-15)
(2.2121 -0.0138631 1.78793e-15)
(2.25523 -0.0153892 1.56123e-15)
(2.30294 -0.016941 8.85632e-16)
(2.35526 -0.0184713 5.36337e-16)
(2.41203 -0.0199213 1.22557e-15)
(2.47294 -0.0212236 7.20177e-16)
(2.53744 -0.0223043 5.61295e-16)
(2.60478 -0.0230899 7.35293e-16)
(2.67399 -0.0235151 1.15209e-15)
(2.74391 -0.0235303 1.2156e-15)
(1.00014 -0.000568189 -4.85989e-16)
(1.00147 -0.00169332 3.87122e-16)
(1.0043 -0.00280669 3.93806e-15)
(1.00858 -0.00388364 6.57675e-15)
(1.01421 -0.00490282 3.19219e-15)
(1.02108 -0.00585089 4.67372e-15)
(1.02911 -0.00671746 -2.16193e-15)
(1.03819 -0.00749446 1.91703e-15)
(1.04819 -0.0081771 1.55993e-15)
(1.059 -0.00876381 -3.10817e-15)
(1.07049 -0.00925581 -1.94739e-15)
(1.08255 -0.00965657 -1.71322e-15)
(1.09505 -0.00997132 -5.79026e-15)
(1.1079 -0.0102065 -7.67361e-15)
(1.12099 -0.0103696 -6.03749e-15)
(1.13424 -0.0104681 -8.87741e-15)
(1.14758 -0.01051 -1.085e-14)
(1.16093 -0.010503 -8.47227e-15)
(1.17425 -0.0104542 -1.08903e-14)
(1.18747 -0.0103706 -1.25218e-14)
(1.20056 -0.0102583 -9.72827e-15)
(1.2135 -0.010123 -1.16138e-14)
(1.22624 -0.00996964 -1.3135e-14)
(1.23878 -0.00980252 -1.11082e-14)
(1.2511 -0.00962543 -1.23344e-14)
(1.26319 -0.00944156 -1.28348e-14)
(1.27504 -0.00925361 -1.34041e-14)
(1.28665 -0.00906381 -1.47697e-14)
(1.29802 -0.008874 -9.8105e-15)
(1.30914 -0.00868565 -1.1559e-14)
(1.32003 -0.00849994 -1.21239e-14)
(1.33068 -0.00831775 -1.2889e-14)
(1.3411 -0.00813978 -1.345e-14)
(1.3513 -0.0079665 -1.42483e-14)
(1.36128 -0.00779824 -1.05208e-14)
(1.37105 -0.0076352 -1.22452e-14)
(1.38061 -0.00747747 -1.30374e-14)
(1.38998 -0.00732505 -1.36168e-14)
(1.39916 -0.00717789 -1.39449e-14)
(1.40815 -0.00703588 -1.46417e-14)
(1.41696 -0.00689885 -1.14742e-14)
(1.4256 -0.00676664 -1.27299e-14)
(1.43407 -0.00663904 -1.3464e-14)
(1.44239 -0.00651584 -1.35035e-14)
(1.45055 -0.00639683 -1.3612e-14)
(1.45856 -0.00628178 -1.37138e-14)
(1.46642 -0.00617049 -1.41037e-14)
(1.47415 -0.00606273 -1.40166e-14)
(1.48173 -0.00595831 -1.4335e-14)
(1.48919 -0.00585703 -1.46571e-14)
(1.49652 -0.00575869 -1.48085e-14)
(1.50373 -0.00566314 -1.45748e-14)
(1.51081 -0.0055702 -1.48156e-14)
(1.51778 -0.00547971 -1.46672e-14)
(1.52463 -0.00539154 -1.49194e-14)
(1.53137 -0.00530554 -1.51364e-14)
(1.538 -0.0052216 -1.10108e-14)
(1.54453 -0.0051396 -1.18427e-14)
(1.55095 -0.00505944 -1.22648e-14)
(1.55727 -0.00498102 -1.26511e-14)
(1.5635 -0.00490425 -1.35914e-14)
(1.56962 -0.00482905 -1.3547e-14)
(1.57565 -0.00475535 -1.39051e-14)
(1.58159 -0.00468308 -1.3562e-14)
(1.58743 -0.00461218 -1.34925e-14)
(1.59319 -0.00454258 -1.38966e-14)
(1.59886 -0.00447425 -1.40714e-14)
(1.60444 -0.00440713 -1.52602e-14)
(1.60993 -0.00434118 -8.37714e-15)
(1.61535 -0.00427636 -1.0488e-14)
(1.62068 -0.00421263 -1.15249e-14)
(1.62593 -0.00414996 -1.24349e-14)
(1.6311 -0.00408832 -9.16739e-15)
(1.6362 -0.00402768 -1.0453e-14)
(1.64121 -0.00396802 -1.09734e-14)
(1.64616 -0.00390931 -1.12534e-14)
(1.65102 -0.00385153 -8.74241e-15)
(1.65582 -0.00379465 -9.58392e-15)
(1.66054 -0.00373867 -1.03522e-14)
(1.6652 -0.00368355 -1.1337e-14)
(1.66978 -0.00362929 -8.75522e-15)
(1.6743 -0.00357586 -5.99402e-15)
(1.67875 -0.00352325 -7.83323e-15)
(1.68313 -0.00347145 -8.62727e-15)
(1.68745 -0.00342044 -9.51829e-15)
(1.6917 -0.00337021 -9.89634e-15)
(1.69589 -0.00332074 -1.04653e-14)
(1.70002 -0.00327203 -1.11595e-14)
(1.70409 -0.00322405 -1.11695e-14)
(1.70809 -0.00317681 -1.10374e-14)
(1.71204 -0.00313028 -1.13481e-14)
(1.71593 -0.00308446 -1.18199e-14)
(1.71976 -0.00303934 -1.31195e-14)
(1.72354 -0.0029949 -7.04442e-15)
(1.72726 -0.00295114 -8.62113e-15)
(1.73093 -0.00290804 -9.52752e-15)
(1.73454 -0.0028656 -1.05189e-14)
(1.7381 -0.0028238 -8.28699e-15)
(1.7416 -0.00278264 -8.88266e-15)
(1.74506 -0.00274211 -9.93307e-15)
(1.74846 -0.00270219 -7.25691e-15)
(1.75182 -0.00266288 -8.99261e-15)
(1.75512 -0.00262417 -6.52457e-15)
(1.75838 -0.00258605 -8.35568e-15)
(1.76159 -0.00254851 -5.54092e-15)
(1.76475 -0.00251155 -7.24759e-15)
(1.76787 -0.00247515 -4.9524e-15)
(1.77094 -0.0024393 -6.24041e-15)
(1.77396 -0.00240401 -3.85112e-15)
(1.77695 -0.00236925 -5.46751e-15)
(1.77989 -0.00233503 -3.32423e-15)
(1.78278 -0.00230133 -5.05859e-15)
(1.78564 -0.00226815 -3.14585e-15)
(1.78845 -0.00223548 -1.70024e-15)
(1.79122 -0.00220331 -3.4514e-15)
(1.79395 -0.00217163 -1.58595e-15)
(1.79665 -0.00214045 -4.09848e-15)
(1.7993 -0.00210975 -2.01393e-15)
(1.80192 -0.00207952 -4.15198e-15)
(1.8045 -0.00204976 -1.92984e-15)
(1.80704 -0.00202047 -3.82511e-15)
(1.80954 -0.00199164 -1.25631e-15)
(1.81201 -0.00196327 -3.76101e-15)
(1.81445 -0.00193534 -1.74018e-15)
(1.81685 -0.00190786 -3.17473e-15)
(1.81921 -0.00188082 -1.19632e-15)
(1.82154 -0.00185423 -2.89046e-15)
(1.82384 -0.00182808 -9.20359e-16)
(1.82611 -0.00180236 -2.3846e-15)
(1.82834 -0.00177709 -2.01453e-16)
(1.83054 -0.00175226 -2.4996e-15)
(1.83271 -0.00172787 -3.14667e-16)
(1.83486 -0.00170393 -2.53199e-15)
(1.83697 -0.00168046 -5.87994e-16)
(1.83905 -0.00165745 -2.59024e-15)
(1.84111 -0.00163492 -3.20409e-16)
(1.84313 -0.0016129 -2.24511e-15)
(1.84513 -0.00159139 -5.04502e-16)
(1.8471 -0.00157042 1.83314e-16)
(1.84905 -0.00155002 8.69535e-16)
(1.85097 -0.00153024 1.78331e-15)
(1.85287 -0.00151111 -3.13511e-16)
(1.85474 -0.00149269 1.02342e-15)
(1.85659 -0.00147504 -1.1131e-15)
(1.85842 -0.00145824 3.54459e-16)
(1.86023 -0.00144238 -1.27955e-15)
(1.86202 -0.00142757 -7.6597e-17)
(1.8638 -0.00141393 8.22643e-16)
(1.86555 -0.00140161 2.08898e-15)
(1.86729 -0.0013908 -5.3204e-17)
(1.86902 -0.00138171 1.50218e-15)
(1.87074 -0.00137458 -6.04927e-16)
(1.87245 -0.00136971 1.19274e-15)
(1.87416 -0.00136746 -3.88212e-16)
(1.87587 -0.00136822 6.79522e-16)
(1.87758 -0.00137249 1.5238e-15)
(1.87929 -0.00138084 2.45145e-15)
(1.88102 -0.00139393 2.90791e-16)
(1.88277 -0.00141256 2.01675e-15)
(1.88455 -0.00143766 -4.78818e-17)
(1.88636 -0.00147032 1.65166e-15)
(1.88822 -0.00151184 -2.56086e-16)
(1.89014 -0.00156371 5.74461e-16)
(1.89213 -0.00162771 1.54161e-15)
(1.89421 -0.00170592 2.14277e-15)
(1.8964 -0.00180078 3.11039e-15)
(1.89871 -0.00191512 4.25399e-16)
(1.90119 -0.0020523 2.33886e-15)
(1.90385 -0.00221618 1.2325e-16)
(1.90673 -0.0024113 1.75921e-15)
(1.90988 -0.00264293 -2.46836e-16)
(1.91335 -0.00291718 9.91502e-16)
(1.91719 -0.00324109 1.58369e-15)
(1.92147 -0.00362282 2.74773e-15)
(1.92627 -0.00407169 5.94847e-16)
(1.93168 -0.00459838 2.05355e-15)
(1.9378 -0.00521496 4.06772e-16)
(1.94476 -0.00593507 2.09722e-15)
(1.9527 -0.0067739 9.62324e-17)
(1.96177 -0.0077482 1.53074e-15)
(1.97215 -0.00887618 2.00136e-15)
(1.98406 -0.0101772 2.82921e-15)
(1.99773 -0.0116715 5.26891e-16)
(2.0134 -0.0133792 1.9762e-15)
(2.03137 -0.0153195 2.73272e-16)
(2.05195 -0.0175091 1.83836e-15)
(2.07545 -0.0199603 -6.13018e-17)
(2.10222 -0.0226784 1.30351e-15)
(2.13261 -0.0256585 1.70247e-15)
(2.16693 -0.0288822 2.87772e-15)
(2.2055 -0.0323128 3.18411e-15)
(2.24855 -0.0358925 1.62002e-15)
(2.29624 -0.0395373 2.68839e-15)
(2.3486 -0.0431371 1.35658e-15)
(2.40551 -0.0465535 2.56715e-15)
(2.46664 -0.0496266 1.61678e-15)
(2.53147 -0.0521807 2.28128e-15)
(2.59924 -0.0540405 2.47478e-15)
(2.66895 -0.0550491 2.98949e-15)
(2.73943 -0.0550873 2.54641e-15)
(1.00015 -0.000928354 -1.85973e-16)
(1.0015 -0.0027836 2.22186e-15)
(1.00437 -0.00461125 2.62895e-15)
(1.00873 -0.00637593 1.38079e-16)
(1.01445 -0.00804666 -2.15638e-15)
(1.02144 -0.00960001 -4.44958e-16)
(1.02959 -0.0110179 -1.31151e-15)
(1.0388 -0.0122873 -3.99506e-16)
(1.04895 -0.0134006 2.53191e-16)
(1.0599 -0.0143557 -1.2632e-15)
(1.07152 -0.0151549 -1.73171e-15)
(1.08371 -0.0158041 -2.03029e-15)
(1.09634 -0.0163123 -3.26976e-15)
(1.1093 -0.0166904 -4.75032e-15)
(1.12251 -0.0169505 -7.35267e-15)
(1.13586 -0.0171056 -7.52825e-15)
(1.14929 -0.0171686 -7.88442e-15)
(1.16272 -0.0171519 -9.97896e-15)
(1.17611 -0.0170678 -9.62676e-15)
(1.1894 -0.0169272 -1.03113e-14)
(1.20255 -0.0167403 -1.17615e-14)
(1.21554 -0.0165162 -1.10504e-14)
(1.22833 -0.016263 -1.12633e-14)
(1.24091 -0.0159878 -1.05448e-14)
(1.25327 -0.0156966 -1.0497e-14)
(1.26539 -0.0153945 -1.09595e-14)
(1.27726 -0.015086 -1.13758e-14)
(1.2889 -0.0147746 -1.23531e-14)
(1.30028 -0.0144632 -8.98498e-15)
(1.31142 -0.0141543 -9.74221e-15)
(1.32232 -0.0138497 -1.03788e-14)
(1.33298 -0.0135508 -1.10153e-14)
(1.3434 -0.0132588 -1.16139e-14)
(1.3536 -0.0129744 -1.23695e-14)
(1.36358 -0.0126982 -1.12581e-14)
(1.37334 -0.0124304 -1.12768e-14)
(1.38289 -0.0121712 -1.15118e-14)
(1.39224 -0.0119206 -1.17959e-14)
(1.40139 -0.0116785 -1.21049e-14)
(1.41036 -0.0114448 -1.24049e-14)
(1.41915 -0.0112192 -1.17473e-14)
(1.42775 -0.0110014 -1.19141e-14)
(1.43619 -0.0107911 -1.18849e-14)
(1.44447 -0.010588 -1.19738e-14)
(1.45258 -0.0103918 -1.19672e-14)
(1.46054 -0.0102019 -1.19659e-14)
(1.46835 -0.0100183 -1.24236e-14)
(1.47602 -0.0098404 -1.24818e-14)
(1.48355 -0.009668 -1.28676e-14)
(1.49094 -0.00950076 -1.27163e-14)
(1.4982 -0.00933837 -1.29958e-14)
(1.50534 -0.00918058 -1.30717e-14)
(1.51235 -0.00902709 -1.34018e-14)
(1.51924 -0.00887768 -1.31441e-14)
(1.52601 -0.00873211 -1.2874e-14)
(1.53267 -0.00859016 -1.34202e-14)
(1.53921 -0.00845164 -1.0015e-14)
(1.54565 -0.00831636 -1.07709e-14)
(1.55198 -0.00818415 -1.08904e-14)
(1.55821 -0.00805486 -1.12354e-14)
(1.56433 -0.00792835 -1.16828e-14)
(1.57036 -0.00780447 -1.17995e-14)
(1.57628 -0.00768312 -1.18195e-14)
(1.58212 -0.00756418 -1.18536e-14)
(1.58786 -0.00744754 -1.19724e-14)
(1.59351 -0.00733313 -1.20359e-14)
(1.59906 -0.00722084 -1.23472e-14)
(1.60454 -0.0071106 -1.27856e-14)
(1.60992 -0.00700235 -1.1573e-14)
(1.61522 -0.00689601 -1.0566e-14)
(1.62044 -0.00679152 -1.05351e-14)
(1.62557 -0.00668882 -9.85055e-15)
(1.63063 -0.00658788 -9.45272e-15)
(1.63561 -0.00648862 -8.66846e-15)
(1.64051 -0.00639102 -8.72875e-15)
(1.64533 -0.00629503 -8.3273e-15)
(1.65008 -0.00620061 -8.52036e-15)
(1.65476 -0.00610773 -7.83514e-15)
(1.65937 -0.00601634 -8.32471e-15)
(1.6639 -0.00592643 -7.5931e-15)
(1.66837 -0.00583795 -7.87766e-15)
(1.67276 -0.00575088 -5.10771e-15)
(1.67709 -0.00566519 -5.66623e-15)
(1.68136 -0.00558086 -6.1463e-15)
(1.68556 -0.00549785 -6.5863e-15)
(1.68969 -0.00541616 -7.27923e-15)
(1.69376 -0.00533574 -8.00144e-15)
(1.69777 -0.00525659 -8.41496e-15)
(1.70172 -0.00517867 -8.44374e-15)
(1.70561 -0.00510198 -8.80568e-15)
(1.70945 -0.00502648 -9.33307e-15)
(1.71322 -0.00495216 -9.70377e-15)
(1.71694 -0.004879 -1.01942e-14)
(1.7206 -0.00480698 -9.26443e-15)
(1.7242 -0.00473608 -8.25876e-15)
(1.72776 -0.00466629 -8.23138e-15)
(1.73125 -0.00459758 -7.85275e-15)
(1.7347 -0.00452995 -7.65632e-15)
(1.7381 -0.00446336 -6.77342e-15)
(1.74144 -0.00439782 -7.29621e-15)
(1.74473 -0.00433329 -6.86505e-15)
(1.74798 -0.00426977 -6.6048e-15)
(1.75118 -0.00420723 -5.74133e-15)
(1.75433 -0.00414567 -5.07103e-15)
(1.75743 -0.00408506 -4.24608e-15)
(1.76049 -0.0040254 -3.84706e-15)
(1.7635 -0.00396667 -2.98777e-15)
(1.76647 -0.00390885 -2.7011e-15)
(1.76939 -0.00385193 -2.24585e-15)
(1.77227 -0.0037959 -2.23925e-15)
(1.77511 -0.00374073 -1.41172e-15)
(1.77791 -0.00368643 -1.22558e-15)
(1.78066 -0.00363298 -1.22762e-15)
(1.78338 -0.00358036 -7.26995e-16)
(1.78605 -0.00352855 -5.3764e-16)
(1.78869 -0.00347756 8.37538e-17)
(1.79129 -0.00342737 6.17268e-17)
(1.79385 -0.00337797 6.75016e-16)
(1.79637 -0.00332934 5.33581e-16)
(1.79886 -0.00328147 8.58767e-16)
(1.80131 -0.00323437 5.72591e-16)
(1.80372 -0.00318801 1.0162e-15)
(1.8061 -0.00314239 1.06147e-15)
(1.80845 -0.0030975 1.56999e-15)
(1.81076 -0.00305334 1.52246e-15)
(1.81304 -0.0030099 1.65995e-15)
(1.81528 -0.00296718 1.84318e-15)
(1.8175 -0.00292517 2.23097e-15)
(1.81968 -0.00288387 1.91725e-15)
(1.82183 -0.00284329 2.32667e-15)
(1.82395 -0.00280342 2.08297e-15)
(1.82604 -0.00276427 2.30546e-15)
(1.82811 -0.00272586 2.22038e-15)
(1.83014 -0.00268818 2.69447e-15)
(1.83214 -0.00265126 2.58927e-15)
(1.83412 -0.00261512 2.66211e-15)
(1.83607 -0.00257979 2.95786e-15)
(1.838 -0.00254529 2.67457e-15)
(1.83989 -0.00251166 2.56531e-15)
(1.84177 -0.00247896 2.99628e-15)
(1.84362 -0.00244725 3.59118e-15)
(1.84544 -0.00241659 3.26429e-15)
(1.84725 -0.00238706 3.26927e-15)
(1.84903 -0.00235879 3.363e-15)
(1.85079 -0.00233187 3.63419e-15)
(1.85253 -0.00230647 3.79434e-15)
(1.85425 -0.00228275 4.06997e-15)
(1.85595 -0.00226091 3.74282e-15)
(1.85764 -0.00224121 4.31011e-15)
(1.85932 -0.00222393 4.04532e-15)
(1.86098 -0.0022094 4.55793e-15)
(1.86264 -0.00219803 4.36877e-15)
(1.86428 -0.0021903 4.69552e-15)
(1.86592 -0.00218677 4.26189e-15)
(1.86757 -0.00218808 4.3402e-15)
(1.86921 -0.00219503 4.30557e-15)
(1.87086 -0.00220853 4.72388e-15)
(1.87253 -0.00222966 4.61242e-15)
(1.87421 -0.00225968 4.96044e-15)
(1.87593 -0.0023001 4.97439e-15)
(1.87767 -0.00235268 5.18286e-15)
(1.87946 -0.00241947 4.93172e-15)
(1.88131 -0.00250291 4.59715e-15)
(1.88323 -0.00260585 4.82874e-15)
(1.88524 -0.00273163 4.86133e-15)
(1.88735 -0.00288417 5.15273e-15)
(1.88959 -0.00306805 5.06509e-15)
(1.89198 -0.00328864 5.20214e-15)
(1.89455 -0.0035522 4.78822e-15)
(1.89734 -0.00386602 5.1856e-15)
(1.90039 -0.00423859 4.91302e-15)
(1.90375 -0.00467976 5.08767e-15)
(1.90748 -0.00520095 4.97124e-15)
(1.91163 -0.00581528 5.35317e-15)
(1.91629 -0.00653788 5.04586e-15)
(1.92155 -0.00738602 5.44874e-15)
(1.9275 -0.00837931 5.11911e-15)
(1.93427 -0.0095399 5.60799e-15)
(1.942 -0.0108926 5.30485e-15)
(1.95084 -0.0124647 5.45633e-15)
(1.96097 -0.0142861 5.43394e-15)
(1.9726 -0.0163888 5.72275e-15)
(1.98596 -0.0188063 5.37082e-15)
(2.00131 -0.0215722 5.54194e-15)
(2.01893 -0.024719 5.20444e-15)
(2.03913 -0.0282756 5.37319e-15)
(2.06225 -0.0322642 5.15845e-15)
(2.08864 -0.0366959 5.09287e-15)
(2.11866 -0.0415658 5.07682e-15)
(2.15265 -0.0468469 5.2561e-15)
(2.19094 -0.0524831 5.70702e-15)
(2.23381 -0.0583824 5.82415e-15)
(2.28144 -0.0644096 5.87159e-15)
(2.3339 -0.0703845 5.69972e-15)
(2.3911 -0.0760773 5.70942e-15)
(2.45274 -0.0812207 5.8536e-15)
(2.51831 -0.0855158 5.81657e-15)
(2.58703 -0.0886624 5.61308e-15)
(2.65786 -0.0903879 5.90549e-15)
(2.72958 -0.0904821 5.65129e-15)
(1.00015 -0.00130711 -3.55452e-17)
(1.00154 -0.00392477 4.88722e-16)
(1.00449 -0.00649999 2.39062e-15)
(1.00897 -0.0089833 1.02652e-15)
(1.01484 -0.0113323 -2.42583e-15)
(1.022 -0.0135131 1.1893e-16)
(1.03035 -0.0154997 -2.795e-15)
(1.03977 -0.0172742 -3.65951e-16)
(1.05012 -0.0188264 -6.39977e-16)
(1.06129 -0.0201539 -2.81437e-15)
(1.07313 -0.0212607 -2.59995e-15)
(1.08552 -0.022156 -2.41778e-15)
(1.09835 -0.0228531 -4.53989e-15)
(1.11149 -0.0233678 -6.22921e-15)
(1.12486 -0.0237177 -5.64832e-15)
(1.13837 -0.0239213 -7.38957e-15)
(1.15194 -0.023997 -8.44269e-15)
(1.1655 -0.0239625 -8.00222e-15)
(1.179 -0.0238347 -9.33144e-15)
(1.19239 -0.0236292 -1.03095e-14)
(1.20563 -0.02336 -9.50579e-15)
(1.2187 -0.0230399 -1.07013e-14)
(1.23156 -0.02268 -1.15331e-14)
(1.24421 -0.0222901 -1.04435e-14)
(1.25662 -0.0218785 -1.13042e-14)
(1.26878 -0.0214522 -1.19776e-14)
(1.2807 -0.0210172 -1.23111e-14)
(1.29236 -0.0205785 -1.28507e-14)
(1.30377 -0.02014 -1.09063e-14)
(1.31493 -0.0197051 -1.1322e-14)
(1.32583 -0.0192762 -1.18275e-14)
(1.3365 -0.0188553 -1.20605e-14)
(1.34692 -0.0184439 -1.25598e-14)
(1.35711 -0.0180431 -1.29394e-14)
(1.36707 -0.0176536 -1.13398e-14)
(1.37681 -0.0172757 -1.18706e-14)
(1.38633 -0.0169098 -1.22755e-14)
(1.39565 -0.0165558 -1.26268e-14)
(1.40476 -0.0162136 -1.29733e-14)
(1.41368 -0.015883 -1.34203e-14)
(1.42241 -0.0155636 -1.16676e-14)
(1.43096 -0.0152552 -1.23564e-14)
(1.43933 -0.0149572 -1.27822e-14)
(1.44753 -0.0146692 -1.26065e-14)
(1.45556 -0.0143907 -1.27324e-14)
(1.46344 -0.0141213 -1.28936e-14)
(1.47116 -0.0138606 -1.31239e-14)
(1.47873 -0.013608 -1.32676e-14)
(1.48615 -0.0133631 -1.35736e-14)
(1.49344 -0.0131256 -1.33595e-14)
(1.50059 -0.0128949 -1.358e-14)
(1.5076 -0.0126708 -1.3741e-14)
(1.51449 -0.0124528 -1.3773e-14)
(1.52125 -0.0122407 -1.38526e-14)
(1.52788 -0.0120341 -1.36206e-14)
(1.5344 -0.0118327 -1.41332e-14)
(1.54081 -0.0116362 -1.17519e-14)
(1.5471 -0.0114444 -1.18512e-14)
(1.55328 -0.0112571 -1.20588e-14)
(1.55935 -0.0110741 -1.22804e-14)
(1.56532 -0.0108951 -1.25208e-14)
(1.57119 -0.0107199 -1.25969e-14)
(1.57695 -0.0105484 -1.26561e-14)
(1.58262 -0.0103805 -1.26633e-14)
(1.58819 -0.010216 -1.27963e-14)
(1.59367 -0.0100547 -1.29733e-14)
(1.59906 -0.00989652 -1.28721e-14)
(1.60436 -0.00974138 -1.32364e-14)
(1.60957 -0.00958917 -1.21881e-14)
(1.61469 -0.00943977 -9.4775e-15)
(1.61973 -0.00929311 -1.08547e-14)
(1.62469 -0.00914909 -8.3357e-15)
(1.62957 -0.00900764 -9.96013e-15)
(1.63436 -0.00886869 -7.43369e-15)
(1.63908 -0.00873216 -9.02287e-15)
(1.64373 -0.00859801 -6.63663e-15)
(1.64829 -0.00846616 -8.31332e-15)
(1.65279 -0.00833657 -6.06909e-15)
(1.65721 -0.00820917 -7.82258e-15)
(1.66156 -0.00808392 -5.67229e-15)
(1.66585 -0.00796077 -7.52517e-15)
(1.67006 -0.00783968 -6.29316e-15)
(1.67421 -0.00772061 -6.87537e-15)
(1.67829 -0.00760351 -7.49244e-15)
(1.68231 -0.00748834 -7.66032e-15)
(1.68627 -0.00737506 -8.15616e-15)
(1.69016 -0.00726365 -8.53207e-15)
(1.69399 -0.00715406 -8.81882e-15)
(1.69776 -0.00704626 -9.11436e-15)
(1.70147 -0.00694021 -9.41846e-15)
(1.70513 -0.0068359 -9.77406e-15)
(1.70873 -0.00673327 -9.91408e-15)
(1.71227 -0.00663231 -1.03925e-14)
(1.71576 -0.00653299 -9.44636e-15)
(1.71919 -0.00643527 -6.93059e-15)
(1.72257 -0.00633913 -8.42165e-15)
(1.7259 -0.00624454 -6.21642e-15)
(1.72918 -0.00615148 -7.70483e-15)
(1.7324 -0.00605991 -5.41374e-15)
(1.73558 -0.00596982 -7.03712e-15)
(1.73871 -0.00588117 -5.56828e-15)
(1.74179 -0.00579395 -4.32624e-15)
(1.74483 -0.00570812 -3.32619e-15)
(1.74782 -0.00562367 -2.55281e-15)
(1.75076 -0.00554057 -1.88338e-15)
(1.75366 -0.0054588 -1.43945e-15)
(1.75652 -0.00537834 -8.12949e-16)
(1.75933 -0.00529917 -3.10092e-17)
(1.7621 -0.00522126 3.72491e-16)
(1.76483 -0.00514459 9.38724e-16)
(1.76751 -0.00506914 1.13509e-15)
(1.77016 -0.0049949 1.77302e-15)
(1.77277 -0.00492185 6.8047e-16)
(1.77534 -0.00484996 1.43286e-15)
(1.77787 -0.00477921 1.87471e-15)
(1.78036 -0.0047096 2.32918e-15)
(1.78282 -0.0046411 2.73997e-15)
(1.78524 -0.00457369 3.12406e-15)
(1.78762 -0.00450736 3.37266e-15)
(1.78997 -0.0044421 3.6461e-15)
(1.79229 -0.00437789 3.98586e-15)
(1.79457 -0.00431472 4.02775e-15)
(1.79682 -0.00425257 4.17716e-15)
(1.79903 -0.00419144 4.555e-15)
(1.80121 -0.00413131 4.75437e-15)
(1.80336 -0.00407218 4.88399e-15)
(1.80548 -0.00401403 4.99446e-15)
(1.80757 -0.00395688 5.23623e-15)
(1.80963 -0.00390071 5.19554e-15)
(1.81166 -0.00384551 5.40148e-15)
(1.81366 -0.00379131 5.44285e-15)
(1.81563 -0.0037381 5.49995e-15)
(1.81758 -0.00368589 5.62338e-15)
(1.81949 -0.00363471 5.96529e-15)
(1.82138 -0.00358456 6.06245e-15)
(1.82325 -0.00353548 5.99243e-15)
(1.82508 -0.0034875 6.50083e-15)
(1.8269 -0.00344067 5.15508e-15)
(1.82868 -0.00339503 5.41631e-15)
(1.83045 -0.00335067 5.7064e-15)
(1.83219 -0.00330764 6.12925e-15)
(1.83391 -0.00326606 6.37847e-15)
(1.83561 -0.00322604 6.59355e-15)
(1.83728 -0.00318771 6.6181e-15)
(1.83894 -0.00315125 7.00639e-15)
(1.84058 -0.00311684 7.10872e-15)
(1.8422 -0.00308473 7.18039e-15)
(1.84381 -0.0030552 7.29039e-15)
(1.8454 -0.00302857 7.39158e-15)
(1.84697 -0.00300524 7.63047e-15)
(1.84854 -0.00298567 7.71293e-15)
(1.8501 -0.0029704 7.80286e-15)
(1.85165 -0.00296009 7.66353e-15)
(1.85319 -0.00295549 7.75128e-15)
(1.85474 -0.00295751 7.74505e-15)
(1.85629 -0.0029672 7.81761e-15)
(1.85785 -0.00298581 8.05912e-15)
(1.85942 -0.00301482 8.15363e-15)
(1.86101 -0.00305595 8.44682e-15)
(1.86262 -0.00311125 8.36496e-15)
(1.86427 -0.00318311 8.36731e-15)
(1.86596 -0.00327435 8.47837e-15)
(1.86771 -0.00338828 7.1033e-15)
(1.86952 -0.0035288 7.60458e-15)
(1.87142 -0.00370046 8.0787e-15)
(1.87342 -0.00390861 8.13188e-15)
(1.87554 -0.00415951 8.14034e-15)
(1.87781 -0.0044605 8.48738e-15)
(1.88025 -0.00482013 8.42963e-15)
(1.8829 -0.00524839 8.53321e-15)
(1.88581 -0.0057569 8.18031e-15)
(1.88901 -0.00635918 8.2906e-15)
(1.89256 -0.00707086 8.49673e-15)
(1.89652 -0.00791002 8.45028e-15)
(1.90097 -0.00889746 8.47303e-15)
(1.906 -0.010057 8.56359e-15)
(1.9117 -0.0114158 8.31555e-15)
(1.91819 -0.0130045 8.52374e-15)
(1.9256 -0.0148576 8.89886e-15)
(1.9341 -0.0170135 8.74527e-15)
(1.94385 -0.0195139 8.81207e-15)
(1.95506 -0.0224043 8.84416e-15)
(1.96796 -0.0257322 8.59565e-15)
(1.98281 -0.0295464 8.69657e-15)
(1.99989 -0.0338947 8.66672e-15)
(2.01952 -0.0388206 8.51474e-15)
(2.04205 -0.0443594 8.69776e-15)
(2.06785 -0.050532 7.70671e-15)
(2.09729 -0.0573382 7.90623e-15)
(2.13075 -0.0647477 7.96986e-15)
(2.1686 -0.0726891 8.25441e-15)
(2.21116 -0.0810412 8.42089e-15)
(2.25867 -0.0896189 8.55155e-15)
(2.31125 -0.0981719 8.34169e-15)
(2.36888 -0.106371 8.3303e-15)
(2.43129 -0.113832 8.39756e-15)
(2.49799 -0.120109 8.37304e-15)
(2.56819 -0.124755 8.16406e-15)
(2.6408 -0.12735 8.06232e-15)
(2.71449 -0.127563 7.77271e-15)
(1.00016 -0.00170623 9.75577e-17)
(1.00159 -0.00512507 -2.73476e-16)
(1.00466 -0.00848603 -1.27143e-15)
(1.0093 -0.0117228 -1.04945e-15)
(1.01537 -0.0147795 -1.60146e-15)
(1.02278 -0.0176111 -2.2341e-15)
(1.0314 -0.0201836 -2.80703e-15)
(1.04111 -0.0224739 -2.50939e-15)
(1.05176 -0.02447 -2.02999e-15)
(1.06323 -0.0261699 -2.42697e-15)
(1.07536 -0.0275803 -2.68768e-15)
(1.08803 -0.0287144 -2.98998e-15)
(1.10112 -0.0295907 -3.53168e-15)
(1.11452 -0.0302309 -4.30353e-15)
(1.12812 -0.0306587 -3.45728e-15)
(1.14184 -0.0308985 -4.51501e-15)
(1.1556 -0.0309746 -5.29577e-15)
(1.16933 -0.0309102 -6.00262e-15)
(1.18299 -0.0307273 -6.43667e-15)
(1.19652 -0.030446 -6.98908e-15)
(1.20988 -0.0300844 -7.50976e-15)
(1.22306 -0.0296587 -7.79973e-15)
(1.23601 -0.0291831 -7.9318e-15)
(1.24874 -0.0286699 -9.12743e-15)
(1.26121 -0.0281297 -8.75209e-15)
(1.27344 -0.0275714 -8.76838e-15)
(1.2854 -0.0270025 -8.78647e-15)
(1.29709 -0.0264292 -8.97841e-15)
(1.30852 -0.0258565 -8.81881e-15)
(1.31969 -0.0252885 -8.67595e-15)
(1.3306 -0.0247284 -8.67676e-15)
(1.34126 -0.0241787 -8.91589e-15)
(1.35166 -0.0236411 -8.96375e-15)
(1.36182 -0.0231171 -9.19127e-15)
(1.37175 -0.0226075 -8.77983e-15)
(1.38144 -0.0221129 -8.78264e-15)
(1.3909 -0.0216336 -8.91898e-15)
(1.40015 -0.0211695 -9.10557e-15)
(1.40919 -0.0207207 -9.15783e-15)
(1.41802 -0.0202867 -9.22613e-15)
(1.42665 -0.0198672 -9.05795e-15)
(1.43509 -0.0194618 -8.96263e-15)
(1.44335 -0.0190699 -9.32377e-15)
(1.45143 -0.018691 -9.20363e-15)
(1.45933 -0.0183245 -9.24953e-15)
(1.46707 -0.0179698 -9.17781e-15)
(1.47464 -0.0176265 -9.29524e-15)
(1.48206 -0.0172938 -9.38279e-15)
(1.48932 -0.0169713 -9.40805e-15)
(1.49644 -0.0166585 -9.73419e-15)
(1.50341 -0.0163547 -9.65152e-15)
(1.51024 -0.0160597 -9.71331e-15)
(1.51694 -0.0157729 -9.78263e-15)
(1.5235 -0.0154939 -9.85232e-15)
(1.52994 -0.0152222 -9.75482e-15)
(1.53626 -0.0149576 -1.00874e-14)
(1.54245 -0.0146997 -8.48577e-15)
(1.54853 -0.0144481 -8.67918e-15)
(1.5545 -0.0142026 -8.87288e-15)
(1.56035 -0.0139628 -8.94686e-15)