/*--------------------------------*- C++ -*----------------------------------*\
  =========                 |
  \\      /  F ield         | OpenFOAM: The Open Source CFD Toolbox
   \\    /   O peration     | Website:  https://openfoam.org
    \\  /    A nd           | Version:  7
     \\/     M anipulation  |
\*---------------------------------------------------------------------------*/
FoamFile
{
    version     2.0;
    format      ascii;
    class       volVectorField;
    location    "2";
    object      U;
}
// * * * * * * * * * * * * * * * * * * * * * * * * * * * * * * * * * * * * * //

dimensions      [0 1 -1 0 0 0 0];

internalField   nonuniform List<vector> 
433
(
(0.0340769 0.0123932 -2.56778e-21)
(0.0422845 0.0135041 6.74076e-21)
(0.0340769 -0.012393 2.56778e-21)
(0.0422844 -0.0135038 -6.74076e-21)
(0.051476 -0.0145575 2.1805e-21)
(0.0616642 -0.015549 8.0473e-21)
(0.0728554 -0.0164731 -3.76307e-21)
(0.0850492 -0.0173251 -1.42458e-21)
(0.0982376 -0.0181004 5.50819e-21)
(0.112405 -0.0187952 -1.31819e-20)
(0.127529 -0.0194059 4.10419e-21)
(0.143577 -0.0199298 7.2751e-21)
(0.16051 -0.0203646 -4.73579e-21)
(0.17828 -0.020709 -3.12199e-21)
(0.196832 -0.0209625 2.99599e-21)
(0.216105 -0.0211254 3.04083e-21)
(0.236029 -0.0211991 -5.36129e-21)
(0.25653 -0.0211858 3.82231e-21)
(0.27753 -0.0210888 1.18786e-21)
(0.298945 -0.020912 4.62684e-21)
(0.320692 -0.0206606 6.01465e-21)
(0.342683 -0.0203401 2.21321e-21)
(0.364834 -0.0199571 -6.20082e-21)
(0.387061 -0.0195184 -2.57478e-21)
(0.409282 -0.0190313 9.34784e-21)
(0.43142 -0.0185033 -5.32537e-21)
(0.453402 -0.0179419 -6.88366e-21)
(0.475163 -0.0173546 1.26019e-20)
(0.496643 -0.0167486 -4.24638e-21)
(0.517788 -0.0161306 -4.09994e-22)
(0.538552 -0.0155069 -2.57246e-22)
(0.558898 -0.0148823 4.89694e-21)
(0.578787 -0.0142614 -9.77653e-21)
(0.0359454 -0.0370808 3.43955e-21)
(0.044311 -0.0404059 -7.57125e-21)
(0.0536505 -0.0435605 1.90152e-20)
(0.0639759 -0.046529 2.44589e-21)
(0.0752928 -0.0492962 -1.59948e-20)
(0.0876003 -0.0518477 -5.44547e-21)
(0.10089 -0.0541703 -1.23389e-20)
(0.115146 -0.0562519 2.66656e-20)
(0.130345 -0.0580822 -3.56752e-21)
(0.146456 -0.0596527 -5.55207e-21)
(0.163438 -0.0609569 9.33043e-21)
(0.181244 -0.0619906 1.3233e-20)
(0.199819 -0.0627522 -6.25821e-21)
(0.219102 -0.0632429 1.18366e-20)
(0.239024 -0.0634664 -3.30204e-20)
(0.259512 -0.0634295 2.53479e-20)
(0.280487 -0.0631417 -1.89333e-20)
(0.301867 -0.0626153 -9.05759e-21)
(0.323569 -0.061865 5.50067e-21)
(0.345507 -0.0609079 3.00862e-21)
(0.367598 -0.0597633 2.69524e-21)
(0.389758 -0.0584516 7.97734e-21)
(0.411906 -0.0569948 -9.88261e-22)
(0.433967 -0.0554152 2.65169e-22)
(0.455869 -0.0537354 -1.29835e-20)
(0.477547 -0.0519777 2.90947e-20)
(0.498941 -0.0501635 -2.18946e-20)
(0.519999 -0.0483132 7.86662e-21)
(0.540677 -0.0464454 -2.28487e-21)
(0.56094 -0.0445746 -4.20787e-21)
(0.580734 -0.042715 2.54609e-20)
(0.0396632 -0.0614746 3.23219e-20)
(0.0483437 -0.0669917 -3.72758e-20)
(0.0579779 -0.0722272 -1.69191e-21)
(0.0685765 -0.077155 -5.32174e-21)
(0.0801439 -0.0817499 2.6286e-20)
(0.0926783 -0.085988 -1.95068e-20)
(0.10617 -0.0898474 -1.49387e-20)
(0.120603 -0.0933079 1.98164e-20)
(0.135953 -0.0963523 -1.61539e-20)
(0.152188 -0.0989662 1.82727e-20)
(0.169269 -0.101139 -6.7832e-21)
(0.187147 -0.102863 -1.56928e-20)
(0.205768 -0.104137 -2.66949e-20)
(0.225072 -0.104961 5.1378e-20)
(0.244991 -0.105341 -3.01357e-20)
(0.265452 -0.10529 1.55819e-20)
(0.286378 -0.104822 9.53447e-21)
(0.30769 -0.103957 -3.10917e-20)
(0.329304 -0.10272 3.28217e-20)
(0.351137 -0.101139 -2.4027e-20)
(0.373108 -0.099246 -1.20724e-20)
(0.395134 -0.0970749 -1.84971e-20)
(0.417139 -0.0946618 3.19703e-21)
(0.439046 -0.0920438 3.17856e-20)
(0.460788 -0.0892585 1.85389e-20)
(0.4823 -0.0863427 -1.74058e-20)
(0.503525 -0.083332 -1.41383e-20)
(0.524411 -0.0802604 -5.39314e-20)
(0.544918 -0.0771585 4.20468e-20)
(0.565014 -0.0740502 -7.46465e-20)
(0.58462 -0.0709619 6.69733e-20)
(0.0543415 -0.0930537 1.63611e-20)
(0.0644147 -0.100337 -8.38281e-20)
(0.0754205 -0.107194 7.1943e-20)
(0.0873616 -0.113592 -9.66036e-21)
(0.100234 -0.119495 -3.92385e-20)
(0.114029 -0.124873 1.11273e-20)
(0.128726 -0.1297 1.44493e-20)
(0.144302 -0.133949 5.13494e-20)
(0.160724 -0.137601 -5.62497e-20)
(0.177952 -0.140641 4.36356e-20)
(0.195939 -0.143059 1.19769e-20)
(0.214631 -0.14485 1.05889e-21)
(0.233968 -0.146016 -3.58926e-20)
(0.253884 -0.146566 2.79605e-20)
(0.274306 -0.146514 -3.61969e-20)
(0.295162 -0.145882 5.05324e-20)
(0.316372 -0.144698 -3.5525e-20)
(0.337856 -0.142995 4.78768e-20)
(0.359535 -0.140812 3.79005e-20)
(0.381328 -0.138192 -5.58351e-20)
(0.403158 -0.135184 9.99965e-20)
(0.424949 -0.131837 -8.28681e-20)
(0.44663 -0.128203 4.31862e-20)
(0.468134 -0.124333 -1.85562e-20)
(0.4894 -0.12028 -1.81534e-20)
(0.510372 -0.116092 7.01818e-21)
(0.531002 -0.111818 -7.00434e-20)
(0.551256 -0.107498 2.55497e-20)
(0.571104 -0.103167 9.11933e-20)
(0.590431 -0.098866 -8.3242e-20)
(0.0622429 -0.118389 6.86598e-20)
(0.072896 -0.127673 -5.21125e-20)
(0.08444 -0.13642 -4.05089e-20)
(0.0968754 -0.144584 4.789e-20)
(0.110196 -0.152122 -4.56526e-20)
(0.124391 -0.158996 7.65989e-20)
(0.139439 -0.165169 -1.70749e-20)
(0.155316 -0.17061 -1.13056e-20)
(0.171987 -0.175293 9.40245e-21)
(0.189413 -0.179198 -3.60652e-20)
(0.207547 -0.182312 4.7608e-20)
(0.226335 -0.184629 7.52372e-21)
(0.245718 -0.18615 3.40155e-20)
(0.265632 -0.186886 -8.50351e-20)
(0.286008 -0.186855 9.20054e-21)
(0.306772 -0.186083 3.41452e-20)
(0.327851 -0.184605 -1.03447e-19)
(0.349168 -0.182463 8.29463e-20)
(0.370645 -0.179707 -1.78767e-20)
(0.392206 -0.176393 -8.91803e-21)
(0.413778 -0.172578 1.92332e-20)
(0.435289 -0.168329 -4.86221e-21)
(0.456672 -0.163709 -1.6476e-20)
(0.477864 -0.158785 -2.47334e-21)
(0.498807 -0.153623 -6.14868e-20)
(0.519448 -0.148286 3.62237e-20)
(0.539742 -0.142834 4.71049e-20)
(0.559662 -0.13732 -2.41036e-20)
(0.579184 -0.131786 -2.00642e-20)
(0.598145 -0.126295 5.48416e-20)
(0.0833363 -0.154028 -3.1843e-20)
(0.0955454 -0.164611 -3.45438e-22)
(0.108592 -0.174496 2.47038e-20)
(0.122468 -0.183632 -6.03918e-20)
(0.137159 -0.191969 5.46437e-20)
(0.152644 -0.199465 -2.68998e-20)
(0.168895 -0.206081 -4.8094e-21)
(0.185877 -0.211785 -8.63385e-21)
(0.203552 -0.216553 -2.49647e-20)
(0.221871 -0.220367 1.05636e-19)
(0.240782 -0.22322 -6.34849e-20)
(0.260227 -0.225112 -7.31408e-20)
(0.280144 -0.226054 8.68375e-20)
(0.300466 -0.226069 -9.03395e-20)
(0.321124 -0.225187 1.1095e-19)
(0.342046 -0.223448 1.03833e-20)
(0.363159 -0.220905 -9.70811e-20)
(0.384391 -0.217614 6.38518e-20)
(0.405671 -0.213643 -1.44602e-20)
(0.426928 -0.209063 -8.09157e-20)
(0.448098 -0.20395 5.29058e-20)
(0.469116 -0.198384 -1.01052e-19)
(0.489925 -0.192444 3.09396e-20)
(0.510471 -0.18621 5.18217e-20)
(0.530706 -0.179758 1.25011e-20)
(0.550587 -0.173161 -1.93278e-20)
(0.570096 -0.166483 1.23125e-19)
(0.589218 -0.159773 2.17509e-20)
(0.607731 -0.153119 -2.28351e-20)
(0.108626 -0.191558 4.13471e-20)
(0.122397 -0.203109 -2.66772e-20)
(0.136932 -0.213794 7.21759e-22)
(0.152213 -0.223558 4.70334e-20)
(0.168217 -0.232347 -6.00557e-20)
(0.184915 -0.240118 -5.24556e-20)
(0.202271 -0.246831 9.87969e-20)
(0.220245 -0.252458 -2.53158e-20)
(0.238789 -0.256976 5.75613e-20)
(0.257852 -0.260376 -4.85803e-20)
(0.277378 -0.262657 -7.62233e-20)
(0.297306 -0.263832 1.59539e-19)
(0.317572 -0.263923 -6.17461e-20)
(0.33811 -0.262966 -4.27328e-20)
(0.358853 -0.261008 3.37299e-20)
(0.379733 -0.258105 -2.75624e-21)
(0.400682 -0.254326 -1.38969e-20)
(0.421634 -0.249745 2.55105e-20)
(0.442525 -0.244448 -7.49088e-21)
(0.463295 -0.238521 2.08108e-20)
(0.483887 -0.232056 -6.66309e-20)
(0.504248 -0.225147 6.0997e-20)
(0.52433 -0.217886 5.46315e-20)
(0.544088 -0.210362 -1.15754e-19)
(0.563484 -0.202661 1.0968e-19)
(0.582512 -0.194854 -9.66971e-20)
(0.601164 -0.186999 -2.73656e-20)
(0.619152 -0.179216 -5.87601e-20)
(0.123551 -0.217059 9.26547e-20)
(0.138154 -0.230212 1.49635e-20)
(0.153447 -0.242393 -1.46941e-19)
(0.169409 -0.253537 5.46189e-20)
(0.186013 -0.263586 -3.75038e-20)
(0.20323 -0.272487 5.59894e-20)
(0.221021 -0.280195 -5.25587e-20)
(0.239346 -0.286674 1.00694e-19)
(0.258157 -0.291901 -5.73458e-20)
(0.277404 -0.295862 -1.1858e-20)
(0.297031 -0.298554 2.2705e-20)
(0.316981 -0.299989 9.88993e-20)
(0.337192 -0.300193 -1.21221e-19)
(0.357603 -0.299203 1.68841e-20)
(0.37815 -0.297071 3.68328e-20)
(0.398772 -0.293859 -8.368e-20)
(0.419405 -0.289644 6.84918e-20)
(0.439989 -0.284511 1.18335e-19)
(0.460469 -0.278552 -9.96225e-21)
(0.480789 -0.271868 -2.11459e-19)
(0.500898 -0.264561 1.12171e-19)
(0.520752 -0.256738 -7.8715e-20)
(0.540307 -0.248503 -3.70201e-20)
(0.559524 -0.239957 1.46959e-19)
(0.57837 -0.231198 -8.0646e-20)
(0.596849 -0.222306 -1.33495e-20)
(0.614967 -0.213343 1.24898e-19)
(0.632363 -0.204471 -7.61563e-20)
(0.155708 -0.255609 5.12542e-20)
(0.171853 -0.269223 -9.15284e-20)
(0.188582 -0.281698 1.32353e-19)
(0.205866 -0.292966 9.25843e-21)
(0.223672 -0.302968 -1.0171e-19)
(0.24196 -0.311653 9.67775e-21)
(0.260688 -0.31898 5.10597e-20)
(0.279809 -0.324919 1.49396e-20)
(0.299273 -0.329454 -4.1268e-20)
(0.319026 -0.33258 7.18601e-20)
(0.339012 -0.334309 -5.19536e-20)
(0.359175 -0.334665 -4.7988e-20)
(0.379456 -0.333688 6.85793e-20)
(0.399796 -0.331434 -1.10816e-19)
(0.42014 -0.327971 -7.89368e-21)
(0.44043 -0.323381 -2.09734e-20)
(0.460615 -0.317758 2.60098e-19)
(0.480643 -0.311203 -9.30061e-20)
(0.500468 -0.303826 -4.2425e-23)
(0.520046 -0.295743 -6.828e-20)
(0.53934 -0.287069 -1.86769e-20)
(0.558313 -0.27792 -1.05384e-19)
(0.576931 -0.268411 -4.01482e-20)
(0.595167 -0.25865 7.94356e-20)
(0.613038 -0.248722 -1.53441e-20)
(0.630565 -0.238695 7.67484e-20)
(0.647308 -0.228777 -5.98066e-20)
(0.191971 -0.294097 5.92216e-20)
(0.20955 -0.307844 -5.90871e-20)
(0.227589 -0.320286 -4.73062e-20)
(0.246051 -0.331356 6.19683e-20)
(0.264896 -0.340998 -3.82869e-20)
(0.28408 -0.349164 3.4138e-20)
(0.303556 -0.355819 6.78655e-21)
(0.323273 -0.360943 -1.35538e-20)
(0.34318 -0.364529 7.13117e-21)
(0.363223 -0.366585 -1.35212e-21)
(0.383348 -0.367137 6.33472e-20)
(0.403502 -0.366225 2.01851e-20)
(0.423631 -0.363907 -2.04954e-19)
(0.443684 -0.360256 2.23265e-19)
(0.463612 -0.355359 -1.23682e-19)
(0.48337 -0.349316 -3.23308e-20)
(0.502915 -0.342238 1.64998e-20)
(0.522207 -0.334242 4.36048e-20)
(0.541213 -0.325455 -3.93043e-20)
(0.559901 -0.316002 1.56865e-19)
(0.578244 -0.306009 3.9586e-20)
(0.596213 -0.295603 6.98673e-20)
(0.613787 -0.284901 -5.59045e-20)
(0.630999 -0.273996 1.13363e-19)
(0.647885 -0.262953 -1.04158e-20)
(0.250975 -0.345362 -3.48153e-20)
(0.27016 -0.357464 8.04112e-20)
(0.289622 -0.368039 -1.55376e-19)
(0.309315 -0.377033 1.45807e-20)
(0.329192 -0.384407 6.09678e-20)
(0.349201 -0.390135 1.0725e-19)
(0.369293 -0.394206 -9.05691e-20)
(0.389417 -0.396627 -3.8634e-23)
(0.409521 -0.397421 -9.73482e-20)
(0.429556 -0.396629 1.46032e-19)
(0.449475 -0.394311 1.0709e-20)
(0.469232 -0.39054 -1.65808e-20)
(0.488786 -0.38541 -1.73494e-20)
(0.508098 -0.379026 1.4275e-20)
(0.527135 -0.371504 -9.97628e-20)
(0.545866 -0.362971 -9.8487e-21)
(0.564265 -0.353561 -8.32883e-20)
(0.58231 -0.343408 7.66183e-20)
(0.599982 -0.33265 -1.13464e-19)
(0.295774 -0.381121 8.6965e-20)
(0.315912 -0.392602 -5.54104e-20)
(0.336167 -0.402412 -5.05541e-20)
(0.356491 -0.410506 1.43267e-19)
(0.376834 -0.416851 -1.11306e-19)
(0.397147 -0.421435 -9.76547e-21)
(0.417379 -0.424259 5.64698e-21)
(0.437484 -0.425344 -4.53768e-20)
(0.457416 -0.424731 1.26358e-19)
(0.477133 -0.422478 -9.17908e-20)
(0.496596 -0.418663 3.8799e-20)
(0.51577 -0.41338 -3.34797e-20)
(0.534626 -0.406738 1.07122e-19)
(0.553139 -0.39886 -4.38769e-21)
(0.343522 -0.414534 3.40016e-20)
(0.364393 -0.425144 5.2743e-20)
(0.385214 -0.433956 -1.10412e-19)
(0.405934 -0.440932 4.87475e-20)
(0.426506 -0.446054 -4.75719e-20)
(0.44688 -0.449319 -1.11814e-20)
(0.467013 -0.450746 4.90712e-20)
(0.486863 -0.450373 6.67104e-21)
(0.506393 -0.448257 -8.3784e-21)
(0.525571 -0.444475 -7.36256e-20)
(0.393737 -0.445092 -1.01045e-19)
(0.415104 -0.454617 1.61643e-19)
(0.436249 -0.462235 -1.0059e-19)
(0.457121 -0.467921 6.94975e-20)
(0.477676 -0.471666 -2.93831e-20)
(0.999885 -0.0025565 1.16209e-20)
(0.992605 -0.00897999 4.3322e-21)
(0.977014 -0.017347 -1.68111e-22)
(0.999885 -0.0022852 -2.48676e-20)
(0.992585 -0.00805169 -4.24242e-21)
(0.976879 -0.0155318 8.88656e-21)
(0.954685 -0.0251809 -2.45693e-20)
(0.925609 -0.0371503 -6.09288e-21)
(0.891493 -0.0539886 2.056e-20)
(0.849661 -0.076499 8.1448e-21)
(0.804253 -0.107687 -1.6099e-20)
(0.748843 -0.151877 1.48656e-20)
(0.692131 -0.201057 1.09293e-20)
(0.999885 -0.00201454 3.48442e-21)
(0.99257 -0.00710985 1.48541e-20)
(0.976764 -0.0137122 -1.62086e-20)
(0.954417 -0.0222531 1.29941e-20)
(0.924944 -0.032842 9.92437e-21)
(0.890259 -0.0477457 -1.27159e-20)
(0.847327 -0.0677852 -1.66423e-20)
(0.799947 -0.0954251 -1.13842e-20)
(0.741913 -0.135113 2.22843e-20)
(0.6799 -0.179466 6.97624e-21)
(0.999885 -0.00174447 1.1544e-20)
(0.992558 -0.00616355 -7.00337e-21)
(0.976665 -0.0118894 1.12685e-20)
(0.954188 -0.019312 -3.21132e-21)
(0.92437 -0.0285108 -7.83389e-22)
(0.889184 -0.0414598 2.45261e-21)
(0.845309 -0.0589675 7.58128e-21)
(0.796162 -0.0830096 2.31757e-20)
(0.735861 -0.117925 -1.29187e-20)
(0.669141 -0.157125 -1.22911e-20)
(0.999885 -0.00147497 -6.20867e-21)
(0.992549 -0.00521656 -2.7836e-21)
(0.976582 -0.010064 3.92896e-21)
(0.953995 -0.0163594 1.43599e-21)
(0.923884 -0.0241595 2.82069e-21)
(0.888264 -0.035138 -1.12164e-21)
(0.843598 -0.0500573 -3.26779e-22)
(0.792905 -0.0704622 -2.68465e-21)
(0.730679 -0.100377 -1.1488e-20)
(0.659878 -0.134118 -1.41922e-20)
(0.999885 -0.00120599 2.77178e-22)
(0.992542 -0.00426903 -4.48532e-21)
(0.976514 -0.00823653 -5.91307e-21)
(0.953838 -0.0133975 3.4378e-21)
(0.923483 -0.0197909 -6.68487e-21)
(0.887499 -0.028787 1.16946e-20)
(0.842186 -0.0410674 -6.2986e-21)
(0.790182 -0.0578035 9.68768e-22)
(0.726363 -0.082528 1.17206e-20)
(0.652132 -0.110535 -2.50478e-20)
(0.999885 -0.000937484 -2.06104e-21)
(0.992537 -0.00332091 6.52071e-21)
(0.976461 -0.00640759 1.25776e-21)
(0.953714 -0.0104279 -5.09552e-21)
(0.923165 -0.0154081 4.06208e-22)
(0.886887 -0.0224129 -6.27732e-21)
(0.841065 -0.0320112 -1.48352e-21)
(0.787996 -0.0450534 8.60748e-21)
(0.722911 -0.0644361 -2.98282e-21)
(0.645916 -0.0864747 9.7984e-21)
(0.999885 -0.000669352 4.08395e-21)
(0.992533 -0.00237234 -2.92393e-21)
(0.976421 -0.00457756 -1.43644e-21)
(0.953621 -0.00745259 4.76075e-21)
(0.922929 -0.0110139 -3.50332e-21)
(0.886428 -0.0160213 3.03381e-21)
(0.840229 -0.0229028 4.5607e-21)
(0.786354 -0.0322321 -1.28141e-21)
(0.720323 -0.0461576 8.16251e-22)
(0.641243 -0.0620386 -9.96737e-21)
(0.999885 -0.000401496 -2.46273e-21)
(0.992531 -0.0014235 2.27723e-21)
(0.976394 -0.00274681 -2.64363e-22)
(0.95356 -0.00447316 -1.21524e-21)
(0.922771 -0.00661162 3.75155e-22)
(0.886122 -0.00961753 1.4289e-21)
(0.839675 -0.0137568 -5.77088e-21)
(0.785257 -0.0193597 -8.33305e-22)
(0.718597 -0.027747 2.62393e-21)
(0.638123 -0.0373319 1.72792e-21)
(0.999885 -0.00013381 1.63755e-21)
(0.99253 -0.000474507 -9.92341e-22)
(0.976381 -0.000915633 2.17523e-23)
(0.95353 -0.0014913 -9.53796e-22)
(0.922693 -0.0022044 7.90824e-22)
(0.885969 -0.00320661 9.88687e-23)
(0.839398 -0.00458812 1.21057e-22)
(0.784709 -0.00645664 1.58656e-21)
(0.717734 -0.00925771 4.45917e-22)
(0.636562 -0.0124621 -1.91691e-21)
)
;

boundaryField
{
    inlet
    {
        type            uniformFixedValue;
        uniformValue    constant (1 0 0);
        value           uniform (1 0 0);
    }
    outlet
    {
        type            pressureInletOutletVelocity;
        value           nonuniform 0();
    }
    cylinder
    {
        type            fixedValue;
        value           nonuniform 0();
    }
    top
    {
        type            symmetryPlane;
    }
    bottom
    {
        type            symmetryPlane;
    }
    defaultFaces
    {
        type            empty;
    }
    procBoundary12to6
    {
        type            processor;
        value           nonuniform List<vector> 
35
(
(0.663924 -0.252039 7.47149e-20)
(0.61726 -0.321421 6.65924e-20)
(0.634129 -0.30985 2.84104e-21)
(0.650637 -0.298031 -1.25524e-19)
(0.663924 -0.252039 7.47149e-20)
(0.666839 -0.286029 1.02188e-19)
(0.571286 -0.389879 9.77706e-20)
(0.589052 -0.379935 -1.99034e-19)
(0.606425 -0.369173 2.14779e-20)
(0.61726 -0.321421 6.65924e-20)
(0.623394 -0.357736 -4.25024e-20)
(0.544369 -0.439123 3.13866e-20)
(0.562765 -0.432314 -1.13849e-20)
(0.571286 -0.389879 9.77706e-20)
(0.580744 -0.424174 3.14037e-20)
(0.49787 -0.473486 -1.73343e-20)
(0.517665 -0.473414 -6.18914e-20)
(0.53703 -0.471506 -4.01233e-20)
(0.544369 -0.439123 3.13866e-20)
(0.555938 -0.467839 8.89702e-20)
(0.467513 -0.480639 2.95708e-20)
(0.488733 -0.48691 -4.16081e-20)
(0.49787 -0.473486 -1.73343e-20)
(0.509509 -0.491173 7.60065e-20)
(0.999884 -0.00282843 -7.32958e-21)
(0.992629 -0.00992233 1.27819e-20)
(0.977168 -0.0191572 3.43556e-21)
(0.954996 -0.0280932 -1.55881e-20)
(0.954996 -0.0280932 -1.55881e-20)
(0.926368 -0.0414327 -8.45965e-21)
(0.892889 -0.0601806 6.73094e-21)
(0.852322 -0.0850982 -8.14261e-21)
(0.809073 -0.119774 8.82232e-21)
(0.756661 -0.168156 8.636e-21)
(0.705805 -0.221825 -2.33459e-20)
)
;
    }
    procBoundary12to13
    {
        type            processor;
        value           nonuniform List<vector> 
26
(
(0.0268348 -0.0112305 1.7428e-21)
(0.0285357 -0.0336015 5.53413e-21)
(0.03192 -0.0557028 -3.94152e-22)
(0.0451921 -0.0853814 -2.93261e-20)
(0.0451921 -0.0853814 -2.93261e-20)
(0.0524747 -0.108613 8.54713e-21)
(0.0719674 -0.142801 -2.33389e-20)
(0.0719674 -0.142801 -2.33389e-20)
(0.0956301 -0.179201 1.12496e-19)
(0.0956301 -0.179201 1.12496e-19)
(0.109653 -0.203003 2.53751e-20)
(0.140171 -0.240927 7.84893e-20)
(0.140171 -0.240927 7.84893e-20)
(0.174884 -0.279119 1.17684e-20)
(0.174884 -0.279119 1.17684e-20)
(0.213603 -0.31684 -2.93783e-20)
(0.232109 -0.331796 -3.11061e-20)
(0.232109 -0.331796 -3.11061e-20)
(0.275802 -0.368029 1.00104e-19)
(0.275802 -0.368029 1.00104e-19)
(0.322652 -0.402178 2.27961e-20)
(0.322652 -0.402178 2.27961e-20)
(0.372199 -0.433701 1.30984e-21)
(0.372199 -0.433701 1.30984e-21)
(0.423933 -0.46214 -1.41987e-19)
(0.445897 -0.472372 8.71653e-20)
)
;
    }
    procBoundary12to18
    {
        type            processor;
        value           nonuniform List<vector> 
42
(
(0.0359454 0.0370811 -3.16305e-21)
(0.0443111 0.0404061 9.24635e-21)
(0.0514761 0.0145578 6.77377e-21)
(0.0514761 0.0145578 6.77377e-21)
(0.0616643 0.0155493 -6.8276e-21)
(0.0728555 0.0164734 3.48291e-21)
(0.0850492 0.0173253 9.55585e-22)
(0.0982377 0.0181007 -4.34257e-21)
(0.112405 0.0187954 1.10917e-20)
(0.127529 0.0194062 -2.68974e-21)
(0.143577 0.01993 -6.60527e-21)
(0.16051 0.0203648 6.06709e-21)
(0.17828 0.0207092 5.56763e-21)
(0.196832 0.0209626 -8.52126e-21)
(0.216105 0.0211256 -3.22306e-21)
(0.236029 0.0211992 9.41499e-21)
(0.25653 0.0211859 7.91554e-22)
(0.27753 0.0210889 2.52099e-21)
(0.298945 0.0209121 -2.17493e-21)
(0.320692 0.0206606 9.88985e-22)
(0.342683 0.0203402 6.68965e-21)
(0.364834 0.0199572 6.7751e-21)
(0.387061 0.0195184 -9.05654e-21)
(0.409282 0.0190313 -5.45351e-21)
(0.43142 0.0185033 6.72471e-21)
(0.453402 0.0179419 5.97088e-21)
(0.475163 0.0173547 -1.57287e-20)
(0.496643 0.0167486 -2.53113e-21)
(0.517788 0.0161306 4.43783e-21)
(0.538552 0.0155069 1.25065e-21)
(0.558898 0.0148824 2.31784e-21)
(0.578787 0.0142614 -5.47458e-21)
(0.999885 0.000133819 1.64252e-21)
(0.99253 0.000474538 -1.03797e-21)
(0.976381 0.000915676 5.68039e-23)
(0.95353 0.00149136 -7.89293e-22)
(0.922693 0.00220446 2.14201e-22)
(0.885969 0.00320668 3.65676e-22)
(0.839398 0.00458818 1.03073e-21)
(0.784709 0.00645671 9.17131e-22)
(0.717734 0.00925777 -5.77929e-22)
(0.636562 0.0124622 -5.03271e-22)
)
;
    }
    procBoundary12to19
    {
        type            processor;
        value           uniform (0.0268349 0.0112307 -2.70424e-21);
    }
}


// ************************************************************************* //
