/*--------------------------------*- C++ -*----------------------------------*\
  =========                 |
  \\      /  F ield         | OpenFOAM: The Open Source CFD Toolbox
   \\    /   O peration     | Website:  https://openfoam.org
    \\  /    A nd           | Version:  7
     \\/     M anipulation  |
\*---------------------------------------------------------------------------*/
FoamFile
{
    version     2.0;
    format      ascii;
    class       surfaceScalarField;
    location    "1.2";
    object      phi;
}
// * * * * * * * * * * * * * * * * * * * * * * * * * * * * * * * * * * * * * //

dimensions      [0 3 -1 0 0 0 0];

internalField   nonuniform List<scalar> 
60711
(
2.55637e-06
-7.31064e-11
2.55659e-06
-2.18219e-10
2.55695e-06
-3.6222e-10
2.55745e-06
-5.05025e-10
2.5581e-06
-6.4606e-10
2.55888e-06
-7.84454e-10
2.5598e-06
-9.19411e-10
2.56085e-06
-1.05031e-09
2.56203e-06
-1.17668e-09
2.56333e-06
-1.2981e-09
2.56474e-06
-1.41423e-09
2.56627e-06
-1.52472e-09
2.5679e-06
-1.6293e-09
2.56963e-06
-1.72772e-09
2.57145e-06
-1.81978e-09
2.57335e-06
-1.90536e-09
2.57533e-06
-1.98438e-09
2.57739e-06
-2.05681e-09
2.57951e-06
-2.12267e-09
2.5817e-06
-2.18202e-09
2.58393e-06
-2.23497e-09
2.58621e-06
-2.28167e-09
2.58854e-06
-2.32227e-09
2.59089e-06
-2.35698e-09
2.59328e-06
-2.38603e-09
2.59569e-06
-2.40964e-09
2.59812e-06
-2.42808e-09
2.60056e-06
-2.44161e-09
2.60301e-06
-2.4505e-09
2.60546e-06
-2.45503e-09
2.60792e-06
-2.45546e-09
2.61037e-06
-2.45209e-09
2.61282e-06
-2.44517e-09
2.61525e-06
-2.43498e-09
2.61767e-06
-2.42176e-09
2.62008e-06
-2.40577e-09
2.62247e-06
-2.38724e-09
2.62483e-06
-2.3664e-09
2.62718e-06
-2.34347e-09
2.62949e-06
-2.31864e-09
2.63179e-06
-2.2921e-09
2.63405e-06
-2.26405e-09
2.63629e-06
-2.23464e-09
2.63849e-06
-2.20404e-09
2.64066e-06
-2.17238e-09
2.6428e-06
-2.13981e-09
2.64491e-06
-2.10646e-09
2.64698e-06
-2.07243e-09
2.64902e-06
-2.03785e-09
2.65102e-06
-2.00281e-09
2.65299e-06
-1.9674e-09
2.65492e-06
-1.93173e-09
2.65682e-06
-1.89585e-09
2.65868e-06
-1.85987e-09
2.6605e-06
-1.82384e-09
2.66229e-06
-1.78784e-09
2.66404e-06
-1.75193e-09
2.66576e-06
-1.71616e-09
2.66744e-06
-1.68061e-09
2.66908e-06
-1.64531e-09
2.67069e-06
-1.61034e-09
2.67227e-06
-1.57573e-09
2.67381e-06
-1.54154e-09
2.67532e-06
-1.50782e-09
2.67679e-06
-1.47459e-09
2.67823e-06
-1.44191e-09
2.67964e-06
-1.40983e-09
2.68102e-06
-1.3784e-09
2.68237e-06
-1.34764e-09
2.68369e-06
-1.3176e-09
2.68498e-06
-1.28829e-09
2.68623e-06
-1.25975e-09
2.68747e-06
-1.23203e-09
2.68867e-06
-1.20517e-09
2.68985e-06
-1.1792e-09
2.69101e-06
-1.15416e-09
2.69214e-06
-1.13003e-09
2.69324e-06
-1.10684e-09
2.69433e-06
-1.08461e-09
2.69539e-06
-1.06337e-09
2.69643e-06
-1.04317e-09
2.69746e-06
-1.02407e-09
2.69846e-06
-1.00605e-09
2.69945e-06
-9.89125e-10
2.70043e-06
-9.73243e-10
2.70138e-06
-9.58389e-10
2.70233e-06
-9.44588e-10
2.70326e-06
-9.3191e-10
2.70418e-06
-9.2045e-10
2.70509e-06
-9.10289e-10
2.70599e-06
-9.0145e-10
2.70689e-06
-8.93882e-10
2.70777e-06
-8.87483e-10
2.70866e-06
-8.82157e-10
2.70953e-06
-8.77883e-10
2.71041e-06
-8.74764e-10
2.71128e-06
-8.73035e-10
2.71216e-06
-8.73008e-10
2.71303e-06
-8.74982e-10
2.71391e-06
-8.79138e-10
2.71479e-06
-8.85465e-10
2.71569e-06
-8.9376e-10
2.71659e-06
-9.03693e-10
2.71751e-06
-9.14948e-10
2.71843e-06
-9.27393e-10
2.71938e-06
-9.41229e-10
2.72033e-06
-9.57082e-10
2.72131e-06
-9.75987e-10
2.72231e-06
-9.99281e-10
2.72334e-06
-1.0284e-09
2.7244e-06
-1.06463e-09
2.72551e-06
-1.10886e-09
2.72667e-06
-1.16135e-09
2.72789e-06
-1.22164e-09
2.72918e-06
-1.28851e-09
2.73054e-06
-1.36004e-09
2.73198e-06
-1.43378e-09
2.73348e-06
-1.50698e-09
2.73506e-06
-1.57679e-09
2.7367e-06
-1.6405e-09
2.7384e-06
-1.69578e-09
2.74014e-06
-1.74073e-09
2.74191e-06
-1.77404e-09
2.74371e-06
-1.79499e-09
2.74551e-06
-1.80339e-09
2.74731e-06
-1.79957e-09
2.74909e-06
-1.78427e-09
2.75085e-06
-1.7585e-09
2.75257e-06
-1.72351e-09
2.75425e-06
-1.68063e-09
2.75589e-06
-1.63124e-09
2.75746e-06
-1.57667e-09
2.75898e-06
-1.51816e-09
2.76044e-06
-1.45685e-09
2.76183e-06
-1.39374e-09
2.76316e-06
-1.3297e-09
2.76443e-06
-1.26545e-09
2.76563e-06
-1.20162e-09
2.76677e-06
-1.13869e-09
2.76784e-06
-1.07706e-09
2.76886e-06
-1.01704e-09
2.76982e-06
-9.58856e-10
2.77072e-06
-9.02695e-10
2.77157e-06
-8.48679e-10
2.77237e-06
-7.96892e-10
2.77312e-06
-7.47387e-10
2.77382e-06
-7.00185e-10
2.77447e-06
-6.55289e-10
2.77508e-06
-6.1268e-10
2.77566e-06
-5.72327e-10
2.77619e-06
-5.34186e-10
2.77669e-06
-4.98203e-10
2.77715e-06
-4.64317e-10
2.77759e-06
-4.32461e-10
2.77799e-06
-4.02564e-10
2.77836e-06
-3.74551e-10
2.77871e-06
-3.48345e-10
2.77903e-06
-3.23867e-10
2.77934e-06
-3.01039e-10
2.77962e-06
-2.79784e-10
2.77988e-06
-2.60022e-10
2.78012e-06
-2.41679e-10
2.78034e-06
-2.2468e-10
2.78055e-06
-2.08953e-10
2.78075e-06
-1.94428e-10
2.78093e-06
-1.81039e-10
2.7811e-06
-1.68723e-10
2.78125e-06
-1.57418e-10
2.7814e-06
-1.47066e-10
2.78154e-06
-1.37614e-10
2.78167e-06
-1.29011e-10
2.78179e-06
-1.21207e-10
2.7819e-06
-1.14161e-10
2.78201e-06
-1.07829e-10
2.78211e-06
-1.02173e-10
2.78221e-06
-9.71592e-11
2.7823e-06
-9.27551e-11
2.78239e-06
-8.89317e-11
2.78248e-06
-8.5663e-11
2.78256e-06
-8.29258e-11
2.78264e-06
-8.06998e-11
2.78272e-06
-7.89672e-11
2.7828e-06
-7.77129e-11
2.78287e-06
-7.69244e-11
2.78295e-06
-7.65919e-11
2.78303e-06
-7.67078e-11
2.7831e-06
-7.72673e-11
2.78318e-06
-7.82676e-11
2.78326e-06
-7.97086e-11
2.78334e-06
-8.15927e-11
2.78343e-06
-8.39244e-11
2.78351e-06
-8.67108e-11
2.7836e-06
-8.99613e-11
2.7837e-06
-9.36876e-11
2.7838e-06
-9.79044e-11
2.7839e-06
-1.02628e-10
2.78401e-06
-1.07879e-10
2.78412e-06
-1.13678e-10
2.78424e-06
-1.2005e-10
2.78437e-06
-1.27024e-10
2.7845e-06
-1.3463e-10
2.78464e-06
-1.42902e-10
2.7848e-06
-1.51876e-10
2.78496e-06
-1.61593e-10
2.78513e-06
-1.72097e-10
2.78531e-06
-1.83435e-10
2.78551e-06
-1.95658e-10
2.78572e-06
-2.08823e-10
2.78594e-06
-2.22988e-10
2.78618e-06
-2.38218e-10
2.78643e-06
-2.54583e-10
2.78671e-06
-2.72155e-10
2.787e-06
-2.91016e-10
2.78731e-06
-3.11251e-10
2.78764e-06
-3.32949e-10
2.788e-06
-3.5621e-10
2.78838e-06
-3.81138e-10
2.78879e-06
-4.07843e-10
2.78922e-06
-4.36446e-10
2.78969e-06
-4.67073e-10
2.79019e-06
-4.9986e-10
2.79072e-06
-5.34951e-10
2.7913e-06
-5.725e-10
2.79191e-06
-6.1267e-10
2.79257e-06
-6.55635e-10
2.79327e-06
-7.01581e-10
2.79402e-06
-7.50705e-10
2.79482e-06
-8.03215e-10
2.79568e-06
-8.59333e-10
2.7966e-06
-9.19294e-10
2.79758e-06
-9.83348e-10
2.79863e-06
-1.05176e-09
2.79976e-06
-1.1248e-09
2.80096e-06
-1.20278e-09
2.80225e-06
-1.286e-09
2.80362e-06
-1.37479e-09
2.80509e-06
-1.46949e-09
2.80666e-06
-1.57049e-09
2.80834e-06
-1.67815e-09
2.81013e-06
-1.79288e-09
2.81205e-06
-1.91511e-09
2.81409e-06
-2.04527e-09
2.81628e-06
-2.18384e-09
2.81861e-06
-2.3313e-09
2.8211e-06
-2.48815e-09
2.82375e-06
-2.65492e-09
2.82658e-06
-2.83216e-09
2.82961e-06
-3.02042e-09
2.83283e-06
-3.2203e-09
2.83626e-06
-3.43239e-09
2.83992e-06
-3.65731e-09
2.84381e-06
-3.89569e-09
2.84796e-06
-4.14818e-09
2.85237e-06
-4.41543e-09
2.85707e-06
-4.69809e-09
2.86207e-06
-4.99683e-09
2.86738e-06
-5.3123e-09
2.87303e-06
-5.64515e-09
2.87902e-06
-5.99602e-09
2.88539e-06
-6.36554e-09
2.89214e-06
-6.75428e-09
2.89931e-06
-7.16282e-09
2.9069e-06
-7.59165e-09
2.91494e-06
-8.04124e-09
2.92345e-06
-8.51197e-09
2.93245e-06
-9.00416e-09
2.94197e-06
-9.51804e-09
2.95203e-06
-1.00537e-08
2.96264e-06
-1.06112e-08
2.97383e-06
-1.11904e-08
2.98562e-06
-1.1791e-08
2.99803e-06
-1.24125e-08
3.01109e-06
-1.30544e-08
3.0248e-06
-1.37158e-08
3.0392e-06
-1.43956e-08
3.05429e-06
-1.50927e-08
3.0701e-06
-1.58056e-08
3.08663e-06
-1.65324e-08
3.1039e-06
-1.72713e-08
3.12192e-06
-1.802e-08
3.1407e-06
-1.87759e-08
3.16023e-06
-1.95364e-08
3.18053e-06
-2.02984e-08
3.20159e-06
-2.10586e-08
3.2234e-06
-2.18137e-08
3.24596e-06
-2.256e-08
3.26926e-06
-2.32937e-08
3.29327e-06
-2.40108e-08
3.31797e-06
-2.47074e-08
3.34335e-06
-2.53795e-08
3.36938e-06
-2.6023e-08
3.39601e-06
-2.66339e-08
3.42322e-06
-2.72085e-08
3.45096e-06
-2.77431e-08
3.4792e-06
-2.82344e-08
3.50788e-06
-2.86791e-08
3.53695e-06
-2.90744e-08
3.56637e-06
-2.9418e-08
3.59608e-06
-2.97076e-08
-2.99415e-08
3.62602e-06
7.66911e-06
-2.9203e-10
7.66976e-06
-8.73416e-10
7.67085e-06
-1.4528e-09
7.67237e-06
-2.02573e-09
7.67432e-06
-2.59015e-09
7.67668e-06
-3.1436e-09
7.67944e-06
-3.6835e-09
7.6826e-06
-4.20747e-09
7.68613e-06
-4.71345e-09
7.69004e-06
-5.19969e-09
7.69429e-06
-5.66464e-09
7.69887e-06
-6.10697e-09
7.70376e-06
-6.52551e-09
7.70896e-06
-6.91931e-09
7.71442e-06
-7.28764e-09
7.72015e-06
-7.62997e-09
7.72611e-06
-7.94599e-09
7.73229e-06
-8.2356e-09
7.73867e-06
-8.49887e-09
7.74522e-06
-8.73609e-09
7.75193e-06
-8.94766e-09
7.75878e-06
-9.13416e-09
7.76576e-06
-9.29628e-09
7.77284e-06
-9.43481e-09
7.78e-06
-9.55065e-09
7.78724e-06
-9.64475e-09
7.79453e-06
-9.71814e-09
7.80186e-06
-9.77189e-09
7.80921e-06
-9.80708e-09
7.81658e-06
-9.82482e-09
7.82395e-06
-9.82622e-09
7.83131e-06
-9.81238e-09
7.83865e-06
-9.78438e-09
7.84596e-06
-9.74328e-09
7.85323e-06
-9.6901e-09
7.86045e-06
-9.62584e-09
7.86761e-06
-9.55144e-09
7.87472e-06
-9.46781e-09
7.88175e-06
-9.37581e-09
7.88871e-06
-9.27626e-09
7.89558e-06
-9.16991e-09
7.90238e-06
-9.05748e-09
7.90908e-06
-8.93965e-09
7.91569e-06
-8.81705e-09
7.92221e-06
-8.69027e-09
7.92863e-06
-8.55984e-09
7.93495e-06
-8.42627e-09
7.94117e-06
-8.29003e-09
7.94728e-06
-8.15157e-09
7.95329e-06
-8.01129e-09
7.95919e-06
-7.86957e-09
7.96499e-06
-7.72675e-09
7.97068e-06
-7.58317e-09
7.97626e-06
-7.43913e-09
7.98173e-06
-7.29492e-09
7.98709e-06
-7.15083e-09
7.99235e-06
-7.00711e-09
7.99749e-06
-6.86398e-09
8.00253e-06
-6.72167e-09
8.00747e-06
-6.58043e-09
8.0123e-06
-6.44046e-09
8.01703e-06
-6.30197e-09
8.02165e-06
-6.16516e-09
8.02617e-06
-6.03018e-09
8.03059e-06
-5.89722e-09
8.03492e-06
-5.76645e-09
8.03915e-06
-5.63808e-09
8.04328e-06
-5.51228e-09
8.04732e-06
-5.38921e-09
8.05127e-06
-5.26897e-09
8.05514e-06
-5.15168e-09
8.05891e-06
-5.03749e-09
8.06261e-06
-4.92656e-09
8.06622e-06
-4.81907e-09
8.06976e-06
-4.71518e-09
8.07322e-06
-4.61495e-09
8.07661e-06
-4.51843e-09
8.07993e-06
-4.42565e-09
8.08318e-06
-4.33668e-09
8.08637e-06
-4.2517e-09
8.0895e-06
-4.1709e-09
8.09257e-06
-4.09444e-09
8.09558e-06
-4.02238e-09
8.09855e-06
-3.95465e-09
8.10147e-06
-3.89112e-09
8.10434e-06
-3.8317e-09
8.10717e-06
-3.7765e-09
8.10996e-06
-3.72578e-09
8.11272e-06
-3.67994e-09
8.11545e-06
-3.6393e-09
8.11816e-06
-3.60395e-09
8.12084e-06
-3.57368e-09
8.1235e-06
-3.54809e-09
8.12614e-06
-3.5268e-09
8.12877e-06
-3.50971e-09
8.1314e-06
-3.49724e-09
8.13401e-06
-3.49032e-09
8.13663e-06
-3.49021e-09
8.13925e-06
-3.49809e-09
8.14189e-06
-3.5147e-09
8.14454e-06
-3.53999e-09
8.14722e-06
-3.57316e-09
8.14993e-06
-3.61288e-09
8.15267e-06
-3.65788e-09
8.15545e-06
-3.70763e-09
8.15828e-06
-3.76294e-09
8.16115e-06
-3.82629e-09
8.16407e-06
-3.90184e-09
8.16707e-06
-3.99493e-09
8.17015e-06
-4.11132e-09
8.17334e-06
-4.25615e-09
8.17667e-06
-4.43297e-09
8.18015e-06
-4.64288e-09
8.18381e-06
-4.88403e-09
8.18767e-06
-5.15152e-09
8.19175e-06
-5.43769e-09
8.19605e-06
-5.73276e-09
8.20057e-06
-6.02568e-09
8.2053e-06
-6.30506e-09
8.21022e-06
-6.5601e-09
8.2153e-06
-6.78137e-09
8.22052e-06
-6.96134e-09
8.22584e-06
-7.09473e-09
8.23123e-06
-7.17862e-09
8.23664e-06
-7.2123e-09
8.24203e-06
-7.19706e-09
8.24738e-06
-7.13582e-09
8.25266e-06
-7.03271e-09
8.25783e-06
-6.89267e-09
8.26287e-06
-6.72105e-09
8.26776e-06
-6.52335e-09
8.27249e-06
-6.30491e-09
8.27704e-06
-6.07071e-09
8.28141e-06
-5.8253e-09
8.28559e-06
-5.5727e-09
8.28957e-06
-5.31637e-09
8.29337e-06
-5.05927e-09
8.29697e-06
-4.8038e-09
8.30038e-06
-4.55197e-09
8.30361e-06
-4.30535e-09
8.30666e-06
-4.06517e-09
8.30953e-06
-3.83239e-09
8.31224e-06
-3.6077e-09
8.31478e-06
-3.39161e-09
8.31717e-06
-3.18447e-09
8.31941e-06
-2.98646e-09
8.32151e-06
-2.79768e-09
8.32347e-06
-2.61814e-09
8.3253e-06
-2.44776e-09
8.32702e-06
-2.28641e-09
8.32862e-06
-2.13392e-09
8.33011e-06
-1.99007e-09
8.3315e-06
-1.85462e-09
8.33279e-06
-1.72729e-09
8.334e-06
-1.6078e-09
8.33512e-06
-1.49585e-09
8.33616e-06
-1.39112e-09
8.33713e-06
-1.29332e-09
8.33803e-06
-1.20211e-09
8.33887e-06
-1.11719e-09
8.33965e-06
-1.03824e-09
8.34037e-06
-9.64961e-10
8.34105e-06
-8.97057e-10
8.34167e-06
-8.34239e-10
8.34225e-06
-7.76227e-10
8.34279e-06
-7.22755e-10
8.3433e-06
-6.73567e-10
8.34377e-06
-6.28421e-10
8.34421e-06
-5.87085e-10
8.34462e-06
-5.49343e-10
8.34501e-06
-5.1499e-10
8.34537e-06
-4.83835e-10
8.34571e-06
-4.557e-10
8.34604e-06
-4.30421e-10
8.34634e-06
-4.07844e-10
8.34663e-06
-3.87829e-10
8.34691e-06
-3.70249e-10
8.34718e-06
-3.54988e-10
8.34743e-06
-3.41943e-10
8.34768e-06
-3.3102e-10
8.34792e-06
-3.22137e-10
8.34816e-06
-3.15225e-10
8.34839e-06
-3.10223e-10
8.34862e-06
-3.0708e-10
8.34885e-06
-3.05758e-10
8.34908e-06
-3.06226e-10
8.34931e-06
-3.08466e-10
8.34954e-06
-3.12465e-10
8.34978e-06
-3.18224e-10
8.35003e-06
-3.25752e-10
8.35028e-06
-3.35067e-10
8.35054e-06
-3.46198e-10
8.35081e-06
-3.59181e-10
8.35109e-06
-3.74065e-10
8.35138e-06
-3.90906e-10
8.35169e-06
-4.09773e-10
8.35201e-06
-4.30741e-10
8.35235e-06
-4.53901e-10
8.35271e-06
-4.79352e-10
8.35309e-06
-5.07203e-10
8.35349e-06
-5.37578e-10
8.35392e-06
-5.70611e-10
8.35437e-06
-6.0645e-10
8.35486e-06
-6.45255e-10
8.35537e-06
-6.87202e-10
8.35592e-06
-7.3248e-10
8.35651e-06
-7.81294e-10
8.35713e-06
-8.33866e-10
8.3578e-06
-8.90435e-10
8.35851e-06
-9.51257e-10
8.35928e-06
-1.01661e-09
8.36009e-06
-1.08679e-09
8.36096e-06
-1.16211e-09
8.36189e-06
-1.24291e-09
8.36289e-06
-1.32957e-09
8.36396e-06
-1.42246e-09
8.3651e-06
-1.52202e-09
8.36632e-06
-1.62867e-09
8.36762e-06
-1.7429e-09
8.36902e-06
-1.86521e-09
8.37052e-06
-1.99616e-09
8.37212e-06
-2.1363e-09
8.37383e-06
-2.28626e-09
8.37567e-06
-2.4467e-09
8.37763e-06
-2.61829e-09
8.37973e-06
-2.8018e-09
8.38198e-06
-2.998e-09
8.38438e-06
-3.20772e-09
8.38695e-06
-3.43186e-09
8.38971e-06
-3.67135e-09
8.39265e-06
-3.92719e-09
8.3958e-06
-4.20043e-09
8.39917e-06
-4.4922e-09
8.40277e-06
-4.80366e-09
8.40662e-06
-5.13607e-09
8.41073e-06
-5.49073e-09
8.41513e-06
-5.86905e-09
8.41984e-06
-6.27247e-09
8.42486e-06
-6.70255e-09
8.43023e-06
-7.16087e-09
8.43596e-06
-7.64916e-09
8.44209e-06
-8.16917e-09
8.44862e-06
-8.72277e-09
8.45561e-06
-9.31189e-09
8.46306e-06
-9.93855e-09
8.47101e-06
-1.06049e-08
8.47949e-06
-1.1313e-08
8.48853e-06
-1.20653e-08
8.49817e-06
-1.28639e-08
8.50845e-06
-1.37114e-08
8.51941e-06
-1.46103e-08
8.53107e-06
-1.55629e-08
8.5435e-06
-1.6572e-08
8.55672e-06
-1.764e-08
8.57079e-06
-1.87698e-08
8.58576e-06
-1.99638e-08
8.60167e-06
-2.12248e-08
8.61858e-06
-2.25554e-08
8.63655e-06
-2.39581e-08
8.65562e-06
-2.54353e-08
8.67585e-06
-2.69896e-08
8.69731e-06
-2.86231e-08
8.72006e-06
-3.03379e-08
8.74415e-06
-3.21358e-08
8.76966e-06
-3.40184e-08
8.79664e-06
-3.59869e-08
8.82517e-06
-3.80424e-08
8.8553e-06
-4.01853e-08
8.8871e-06
-4.24157e-08
8.92064e-06
-4.4733e-08
8.95599e-06
-4.71361e-08
8.9932e-06
-4.96233e-08
9.03234e-06
-5.21922e-08
9.07346e-06
-5.48395e-08
9.11663e-06
-5.7561e-08
9.16189e-06
-6.03518e-08
9.20929e-06
-6.3206e-08
9.25887e-06
-6.61167e-08
9.31068e-06
-6.90758e-08
9.36473e-06
-7.20744e-08
9.42106e-06
-7.51024e-08
9.47967e-06
-7.81489e-08
9.54057e-06
-8.12018e-08
9.60376e-06
-8.42481e-08
9.66922e-06
-8.7274e-08
9.73693e-06
-9.02647e-08
9.80684e-06
-9.32052e-08
9.87891e-06
-9.60796e-08
9.95307e-06
-9.88719e-08
1.00293e-05
-1.01566e-07
1.01074e-05
-1.04145e-07
1.01873e-05
-1.06594e-07
1.0269e-05
-1.08898e-07
1.03523e-05
-1.11041e-07
1.04371e-05
-1.1301e-07
1.05232e-05
-1.14792e-07
1.06105e-05
-1.16376e-07
1.06989e-05
-1.17752e-07
1.07881e-05
-1.18912e-07
-1.19849e-07
1.0878e-05
1.27818e-05
-6.58614e-10
1.27829e-05
-1.97033e-09
1.27848e-05
-3.2781e-09
1.27873e-05
-4.57131e-09
1.27906e-05
-5.84449e-09
1.27945e-05
-7.09233e-09
1.27991e-05
-8.30944e-09
1.28044e-05
-9.49068e-09
1.28103e-05
-1.06314e-08
1.28169e-05
-1.17275e-08
1.2824e-05
-1.27755e-08
1.28316e-05
-1.37722e-08
1.28398e-05
-1.47151e-08
1.28485e-05
-1.56021e-08
1.28577e-05
-1.64314e-08
1.28672e-05
-1.72019e-08
1.28772e-05
-1.7913e-08
1.28875e-05
-1.85645e-08
1.28982e-05
-1.91564e-08
1.29091e-05
-1.96896e-08
1.29204e-05
-2.01648e-08
1.29318e-05
-2.05835e-08
1.29435e-05
-2.09471e-08
1.29553e-05
-2.12576e-08
1.29672e-05
-2.15169e-08
1.29793e-05
-2.17273e-08
1.29915e-05
-2.1891e-08
1.30037e-05
-2.20105e-08
1.3016e-05
-2.20882e-08
1.30283e-05
-2.21266e-08
1.30406e-05
-2.21283e-08
1.30529e-05
-2.20957e-08
1.30652e-05
-2.20313e-08
1.30774e-05
-2.19374e-08
1.30895e-05
-2.18165e-08
1.31015e-05
-2.16706e-08
1.31135e-05
-2.1502e-08
1.31253e-05
-2.13127e-08
1.3137e-05
-2.11046e-08
1.31487e-05
-2.08796e-08
1.31601e-05
-2.06393e-08
1.31714e-05
-2.03855e-08
1.31826e-05
-2.01195e-08
1.31937e-05
-1.98429e-08
1.32045e-05
-1.95569e-08
1.32152e-05
-1.92627e-08
1.32258e-05
-1.89615e-08
1.32361e-05
-1.86544e-08
1.32463e-05
-1.83423e-08
1.32563e-05
-1.80262e-08
1.32662e-05
-1.77068e-08
1.32758e-05
-1.7385e-08
1.32853e-05
-1.70615e-08
1.32946e-05
-1.6737e-08
1.33037e-05
-1.64121e-08
1.33127e-05
-1.60876e-08
1.33214e-05
-1.57638e-08
1.333e-05
-1.54415e-08
1.33384e-05
-1.5121e-08
1.33466e-05
-1.48028e-08
1.33547e-05
-1.44876e-08
1.33625e-05
-1.41757e-08
1.33702e-05
-1.38676e-08
1.33778e-05
-1.35636e-08
1.33851e-05
-1.32642e-08
1.33923e-05
-1.29697e-08
1.33994e-05
-1.26806e-08
1.34063e-05
-1.23974e-08
1.3413e-05
-1.21202e-08
1.34196e-05
-1.18494e-08
1.3426e-05
-1.15853e-08
1.34323e-05
-1.13282e-08
1.34385e-05
-1.10784e-08
1.34445e-05
-1.08364e-08
1.34504e-05
-1.06025e-08
1.34561e-05
-1.03768e-08
1.34618e-05
-1.01595e-08
1.34673e-05
-9.95059e-09
1.34727e-05
-9.75031e-09
1.3478e-05
-9.55899e-09
1.34832e-05
-9.37709e-09
1.34883e-05
-9.20499e-09
1.34933e-05
-9.0428e-09
1.34983e-05
-8.89036e-09
1.35031e-05
-8.74737e-09
1.35079e-05
-8.61367e-09
1.35126e-05
-8.48944e-09
1.35173e-05
-8.37533e-09
1.35219e-05
-8.27219e-09
1.35264e-05
-8.18076e-09
1.35309e-05
-8.10123e-09
1.35354e-05
-8.03316e-09
1.35398e-05
-7.97563e-09
1.35442e-05
-7.92775e-09
1.35486e-05
-7.88933e-09
1.35529e-05
-7.86129e-09
1.35573e-05
-7.84572e-09
1.35617e-05
-7.84544e-09
1.3566e-05
-7.86313e-09
1.35704e-05
-7.90045e-09
1.35748e-05
-7.95731e-09
1.35793e-05
-8.03187e-09
1.35838e-05
-8.12117e-09
1.35884e-05
-8.22235e-09
1.3593e-05
-8.33419e-09
1.35977e-05
-8.45847e-09
1.36024e-05
-8.6008e-09
1.36073e-05
-8.77049e-09
1.36123e-05
-8.97959e-09
1.36174e-05
-9.24108e-09
1.36227e-05
-9.56656e-09
1.36283e-05
-9.96407e-09
1.36341e-05
-1.04361e-08
1.36402e-05
-1.09786e-08
1.36466e-05
-1.15805e-08
1.36534e-05
-1.22246e-08
1.36605e-05
-1.28889e-08
1.36681e-05
-1.35485e-08
1.36759e-05
-1.41778e-08
1.36841e-05
-1.47523e-08
1.36926e-05
-1.52509e-08
1.37013e-05
-1.56565e-08
1.37101e-05
-1.59572e-08
1.37191e-05
-1.61464e-08
1.37281e-05
-1.62225e-08
1.37371e-05
-1.61883e-08
1.3746e-05
-1.60505e-08
1.37548e-05
-1.58184e-08
1.37634e-05
-1.55029e-08
1.37718e-05
-1.51164e-08
1.378e-05
-1.4671e-08
1.37878e-05
-1.41789e-08
1.37954e-05
-1.36513e-08
1.38027e-05
-1.30984e-08
1.38097e-05
-1.25294e-08
1.38163e-05
-1.1952e-08
1.38226e-05
-1.13729e-08
1.38286e-05
-1.07976e-08
1.38343e-05
-1.02305e-08
1.38396e-05
-9.67519e-09
1.38447e-05
-9.13447e-09
1.38495e-05
-8.61046e-09
1.3854e-05
-8.10475e-09
1.38582e-05
-7.61847e-09
1.38622e-05
-7.15238e-09
1.38659e-05
-6.70691e-09
1.38694e-05
-6.28228e-09
1.38727e-05
-5.87848e-09
1.38757e-05
-5.49535e-09
1.38785e-05
-5.1326e-09
1.38812e-05
-4.7898e-09
1.38837e-05
-4.46648e-09
1.3886e-05
-4.16208e-09
1.38881e-05
-3.87598e-09
1.38901e-05
-3.60752e-09
1.3892e-05
-3.35604e-09
1.38937e-05
-3.12083e-09
1.38953e-05
-2.90118e-09
1.38968e-05
-2.69638e-09
1.38982e-05
-2.50572e-09
1.38995e-05
-2.32849e-09
1.39007e-05
-2.16401e-09
1.39018e-05
-2.01161e-09
1.39029e-05
-1.87064e-09
1.39038e-05
-1.74047e-09
1.39047e-05
-1.62049e-09
1.39056e-05
-1.51014e-09
1.39063e-05
-1.40887e-09
1.39071e-05
-1.31615e-09
1.39077e-05
-1.2315e-09
1.39084e-05
-1.15446e-09
1.3909e-05
-1.0846e-09
1.39096e-05
-1.02152e-09
1.39101e-05
-9.6484e-10
1.39106e-05
-9.14226e-10
1.39111e-05
-8.69362e-10
1.39115e-05
-8.29961e-10
1.3912e-05
-7.95762e-10
1.39124e-05
-7.66532e-10
1.39128e-05
-7.42062e-10
1.39132e-05
-7.2217e-10
1.39136e-05
-7.06696e-10
1.3914e-05
-6.95506e-10
1.39144e-05
-6.88487e-10
1.39147e-05
-6.85551e-10
1.39151e-05
-6.8663e-10
1.39155e-05
-6.91681e-10
1.39159e-05
-7.00679e-10
1.39163e-05
-7.13624e-10
1.39167e-05
-7.30536e-10
1.39171e-05
-7.51457e-10
1.39175e-05
-7.76448e-10
1.3918e-05
-8.05595e-10
1.39185e-05
-8.39005e-10
1.39189e-05
-8.76806e-10
1.39195e-05
-9.19149e-10
1.392e-05
-9.66207e-10
1.39206e-05
-1.01818e-09
1.39211e-05
-1.0753e-09
1.39218e-05
-1.13779e-09
1.39224e-05
-1.20595e-09
1.39232e-05
-1.28008e-09
1.39239e-05
-1.3605e-09
1.39247e-05
-1.44757e-09
1.39256e-05
-1.5417e-09
1.39265e-05
-1.64329e-09
1.39275e-05
-1.75283e-09
1.39285e-05
-1.87079e-09
1.39296e-05
-1.99772e-09
1.39308e-05
-2.1342e-09
1.3932e-05
-2.28083e-09
1.39334e-05
-2.4383e-09
1.39348e-05
-2.60732e-09
1.39364e-05
-2.78864e-09
1.3938e-05
-2.98308e-09
1.39398e-05
-3.19153e-09
1.39417e-05
-3.41492e-09
1.39437e-05
-3.65424e-09
1.39459e-05
-3.91057e-09
1.39482e-05
-4.18505e-09
1.39507e-05
-4.47889e-09
1.39534e-05
-4.79338e-09
1.39562e-05
-5.12991e-09
1.39592e-05
-5.48994e-09
1.39625e-05
-5.87504e-09
1.3966e-05
-6.28686e-09
1.39697e-05
-6.72718e-09
1.39737e-05
-7.19786e-09
1.3978e-05
-7.7009e-09
1.39825e-05
-8.23841e-09
1.39874e-05
-8.81262e-09
1.39926e-05
-9.42591e-09
1.39982e-05
-1.00808e-08
1.40042e-05
-1.07799e-08
1.40106e-05
-1.1526e-08
1.40174e-05
-1.23221e-08
1.40247e-05
-1.31714e-08
1.40325e-05
-1.4077e-08
1.40409e-05
-1.50425e-08
1.40498e-05
-1.60714e-08
1.40593e-05
-1.71677e-08
1.40695e-05
-1.83352e-08
1.40803e-05
-1.95782e-08
1.40919e-05
-2.0901e-08
1.41043e-05
-2.23081e-08
1.41175e-05
-2.38044e-08
1.41316e-05
-2.53947e-08
1.41466e-05
-2.70841e-08
1.41626e-05
-2.88778e-08
1.41797e-05
-3.07814e-08
1.41979e-05
-3.28003e-08
1.42172e-05
-3.49403e-08
1.42379e-05
-3.72072e-08
1.42598e-05
-3.96068e-08
1.42832e-05
-4.21452e-08
1.43081e-05
-4.48282e-08
1.43345e-05
-4.7662e-08
1.43626e-05
-5.06523e-08
1.43925e-05
-5.3805e-08
1.44242e-05
-5.71257e-08
1.44578e-05
-6.06198e-08
1.44935e-05
-6.42925e-08
1.45313e-05
-6.81483e-08
1.45713e-05
-7.21915e-08
1.46137e-05
-7.64257e-08
1.46586e-05
-8.08539e-08
1.4706e-05
-8.54782e-08
1.47561e-05
-9.02998e-08
1.4809e-05
-9.53189e-08
1.48648e-05
-1.00534e-07
1.49237e-05
-1.05944e-07
1.49856e-05
-1.11544e-07
1.50507e-05
-1.17328e-07
1.51192e-05
-1.23291e-07
1.5191e-05
-1.29421e-07
1.52664e-05
-1.35709e-07
1.53453e-05
-1.4214e-07
1.54279e-05
-1.487e-07
1.55142e-05
-1.55371e-07
1.56043e-05
-1.62131e-07
1.56981e-05
-1.6896e-07
1.57958e-05
-1.75831e-07
1.58973e-05
-1.82718e-07
1.60027e-05
-1.89591e-07
1.61118e-05
-1.9642e-07
1.62247e-05
-2.0317e-07
1.63413e-05
-2.09807e-07
1.64615e-05
-2.16297e-07
1.65852e-05
-2.22601e-07
1.67124e-05
-2.28684e-07
1.68427e-05
-2.34509e-07
1.69762e-05
-2.4004e-07
1.71125e-05
-2.45242e-07
1.72516e-05
-2.50082e-07
1.73931e-05
-2.54529e-07
1.75368e-05
-2.58553e-07
1.76826e-05
-2.62131e-07
1.78301e-05
-2.65238e-07
1.7979e-05
-2.67856e-07
-2.69971e-07
1.81292e-05
1.78946e-05
-1.17531e-09
1.78961e-05
-3.5161e-09
1.78987e-05
-5.84982e-09
1.79023e-05
-8.15773e-09
1.79069e-05
-1.04295e-08
1.79124e-05
-1.26555e-08
1.7919e-05
-1.48261e-08
1.79264e-05
-1.69324e-08
1.79347e-05
-1.89662e-08
1.79439e-05
-2.09202e-08
1.79539e-05
-2.27878e-08
1.79647e-05
-2.45637e-08
1.79763e-05
-2.6243e-08
1.79885e-05
-2.78221e-08
1.80013e-05
-2.92981e-08
1.80148e-05
-3.06688e-08
1.80288e-05
-3.19332e-08
1.80434e-05
-3.30909e-08
1.80583e-05
-3.41423e-08
1.80737e-05
-3.50886e-08
1.80895e-05
-3.59315e-08
1.81056e-05
-3.66734e-08
1.8122e-05
-3.73172e-08
1.81386e-05
-3.78661e-08
1.81554e-05
-3.83238e-08
1.81724e-05
-3.86943e-08
1.81894e-05
-3.89817e-08
1.82066e-05
-3.91904e-08
1.82239e-05
-3.93248e-08
1.82411e-05
-3.93893e-08
1.82584e-05
-3.93886e-08
1.82756e-05
-3.9327e-08
1.82928e-05
-3.92089e-08
1.83099e-05
-3.90386e-08
1.83269e-05
-3.88201e-08
1.83438e-05
-3.85576e-08
1.83605e-05
-3.82548e-08
1.83771e-05
-3.79153e-08
1.83936e-05
-3.75426e-08
1.84098e-05
-3.714e-08
1.84259e-05
-3.67104e-08
1.84418e-05
-3.62567e-08
1.84574e-05
-3.57818e-08
1.84729e-05
-3.52879e-08
1.84881e-05
-3.47776e-08
1.85031e-05
-3.42529e-08
1.85179e-05
-3.37158e-08
1.85324e-05
-3.31683e-08
1.85466e-05
-3.2612e-08
1.85607e-05
-3.20486e-08
1.85744e-05
-3.14796e-08
1.8588e-05
-3.09063e-08
1.86012e-05
-3.03301e-08
1.86142e-05
-2.97521e-08
1.8627e-05
-2.91736e-08
1.86395e-05
-2.85957e-08
1.86518e-05
-2.80192e-08
1.86638e-05
-2.74452e-08
1.86755e-05
-2.68746e-08
1.8687e-05
-2.63083e-08
1.86983e-05
-2.57471e-08
1.87093e-05
-2.51919e-08
1.87201e-05
-2.46434e-08
1.87306e-05
-2.41024e-08
1.87409e-05
-2.35694e-08
1.8751e-05
-2.30452e-08
1.87608e-05
-2.25306e-08
1.87705e-05
-2.20264e-08
1.87799e-05
-2.15331e-08
1.87891e-05
-2.10512e-08
1.87981e-05
-2.05811e-08
1.88069e-05
-2.01235e-08
1.88155e-05
-1.96789e-08
1.88239e-05
-1.92482e-08
1.88321e-05
-1.88319e-08
1.88402e-05
-1.84303e-08
1.88481e-05
-1.80436e-08
1.88558e-05
-1.76719e-08
1.88633e-05
-1.73155e-08
1.88708e-05
-1.69751e-08
1.8878e-05
-1.66515e-08
1.88852e-05
-1.63454e-08
1.88922e-05
-1.60569e-08
1.88991e-05
-1.57858e-08
1.89059e-05
-1.55315e-08
1.89125e-05
-1.52937e-08
1.89191e-05
-1.50728e-08
1.89256e-05
-1.487e-08
1.8932e-05
-1.46866e-08
1.89384e-05
-1.45241e-08
1.89447e-05
-1.43827e-08
1.89509e-05
-1.42618e-08
1.89571e-05
-1.41596e-08
1.89632e-05
-1.40746e-08
1.89693e-05
-1.40064e-08
1.89754e-05
-1.39566e-08
1.89815e-05
-1.39289e-08
1.89876e-05
-1.39283e-08
1.89937e-05
-1.39597e-08
1.89998e-05
-1.40259e-08
1.9006e-05
-1.41268e-08
1.90122e-05
-1.42592e-08
1.90185e-05
-1.44179e-08
1.90249e-05
-1.45975e-08
1.90314e-05
-1.47961e-08
1.90379e-05
-1.50166e-08
1.90446e-05
-1.52691e-08
1.90514e-05
-1.557e-08
1.90583e-05
-1.59409e-08
1.90655e-05
-1.64047e-08
1.90729e-05
-1.69824e-08
1.90806e-05
-1.76882e-08
1.90887e-05
-1.85268e-08
1.90972e-05
-1.94909e-08
1.91062e-05
-2.05611e-08
1.91157e-05
-2.17067e-08
1.91257e-05
-2.28887e-08
1.91362e-05
-2.40626e-08
1.91472e-05
-2.51829e-08
1.91587e-05
-2.62061e-08
1.91705e-05
-2.70943e-08
1.91827e-05
-2.7817e-08
1.91951e-05
-2.83531e-08
1.92076e-05
-2.86906e-08
1.92202e-05
-2.88267e-08
1.92328e-05
-2.87664e-08
1.92453e-05
-2.85214e-08
1.92576e-05
-2.81082e-08
1.92696e-05
-2.75466e-08
1.92814e-05
-2.68582e-08
1.92928e-05
-2.60651e-08
1.93038e-05
-2.51886e-08
1.93144e-05
-2.4249e-08
1.93245e-05
-2.32644e-08
1.93342e-05
-2.22512e-08
1.93435e-05
-2.12231e-08
1.93523e-05
-2.01921e-08
1.93607e-05
-1.91679e-08
1.93686e-05
-1.81585e-08
1.93761e-05
-1.71703e-08
1.93832e-05
-1.62082e-08
1.93899e-05
-1.5276e-08
1.93961e-05
-1.43765e-08
1.9402e-05
-1.35118e-08
1.94076e-05
-1.26832e-08
1.94128e-05
-1.18914e-08
1.94176e-05
-1.11368e-08
1.94221e-05
-1.04194e-08
1.94264e-05
-9.73884e-09
1.94304e-05
-9.09463e-09
1.9434e-05
-8.486e-09
1.94375e-05
-7.91208e-09
1.94407e-05
-7.37185e-09
1.94437e-05
-6.86421e-09
1.94465e-05
-6.38799e-09
1.94491e-05
-5.94195e-09
1.94515e-05
-5.52486e-09
1.94537e-05
-5.13544e-09
1.94558e-05
-4.7724e-09
1.94577e-05
-4.43449e-09
1.94595e-05
-4.12045e-09
1.94612e-05
-3.82904e-09
1.94627e-05
-3.55908e-09
1.94641e-05
-3.3094e-09
1.94655e-05
-3.07888e-09
1.94667e-05
-2.86646e-09
1.94679e-05
-2.6711e-09
1.9469e-05
-2.49183e-09
1.947e-05
-2.32773e-09
1.94709e-05
-2.17793e-09
1.94718e-05
-2.04161e-09
1.94727e-05
-1.91801e-09
1.94734e-05
-1.80642e-09
1.94742e-05
-1.70617e-09
1.94749e-05
-1.61666e-09
1.94755e-05
-1.53733e-09
1.94762e-05
-1.46767e-09
1.94768e-05
-1.40723e-09
1.94774e-05
-1.35557e-09
1.9478e-05
-1.31235e-09
1.94785e-05
-1.27722e-09
1.94791e-05
-1.24991e-09
1.94796e-05
-1.23018e-09
1.94801e-05
-1.21784e-09
1.94806e-05
-1.21272e-09
1.94812e-05
-1.2147e-09
1.94817e-05
-1.22372e-09
1.94822e-05
-1.23971e-09
1.94828e-05
-1.2627e-09
1.94834e-05
-1.2927e-09
1.94839e-05
-1.3298e-09
1.94845e-05
-1.3741e-09
1.94852e-05
-1.42575e-09
1.94858e-05
-1.48495e-09
1.94865e-05
-1.55193e-09
1.94872e-05
-1.62694e-09
1.94879e-05
-1.7103e-09
1.94887e-05
-1.80236e-09
1.94895e-05
-1.90352e-09
1.94904e-05
-2.01422e-09
1.94913e-05
-2.13494e-09
1.94923e-05
-2.26622e-09
1.94934e-05
-2.40864e-09
1.94945e-05
-2.56285e-09
1.94957e-05
-2.72954e-09
1.94969e-05
-2.90946e-09
1.94983e-05
-3.10343e-09
1.94997e-05
-3.31234e-09
1.95013e-05
-3.53712e-09
1.95029e-05
-3.77881e-09
1.95047e-05
-4.0385e-09
1.95066e-05
-4.31737e-09
1.95086e-05
-4.61669e-09
1.95107e-05
-4.9378e-09
1.9513e-05
-5.28216e-09
1.95155e-05
-5.65133e-09
1.95181e-05
-6.04695e-09
1.95209e-05
-6.47081e-09
1.95239e-05
-6.9248e-09
1.95272e-05
-7.41093e-09
1.95306e-05
-7.93135e-09
1.95343e-05
-8.48838e-09
1.95383e-05
-9.08444e-09
1.95425e-05
-9.72214e-09
1.9547e-05
-1.04043e-08
1.95519e-05
-1.11337e-08
1.95571e-05
-1.19137e-08
1.95626e-05
-1.27475e-08
1.95685e-05
-1.36386e-08
1.95749e-05
-1.45908e-08
1.95817e-05
-1.5608e-08
1.9589e-05
-1.66945e-08
1.95967e-05
-1.78548e-08
1.96051e-05
-1.90934e-08
1.96139e-05
-2.04154e-08
1.96234e-05
-2.18261e-08
1.96336e-05
-2.33309e-08
1.96445e-05
-2.49357e-08
1.96561e-05
-2.66466e-08
1.96685e-05
-2.84701e-08
1.96817e-05
-3.0413e-08
1.96959e-05
-3.24823e-08
1.9711e-05
-3.46854e-08
1.97271e-05
-3.70302e-08
1.97443e-05
-3.95247e-08
1.97627e-05
-4.21774e-08
1.97823e-05
-4.49969e-08
1.98032e-05
-4.79923e-08
1.98255e-05
-5.11731e-08
1.98493e-05
-5.45488e-08
1.98746e-05
-5.81295e-08
1.99016e-05
-6.19252e-08
1.99303e-05
-6.59463e-08
1.99609e-05
-7.02033e-08
1.99935e-05
-7.4707e-08
2.00281e-05
-7.94679e-08
2.00649e-05
-8.44968e-08
2.01041e-05
-8.98043e-08
2.01457e-05
-9.54007e-08
2.01899e-05
-1.01296e-07
2.02367e-05
-1.075e-07
2.02865e-05
-1.14022e-07
2.03392e-05
-1.20871e-07
2.03951e-05
-1.28053e-07
2.04542e-05
-1.35577e-07
2.05168e-05
-1.43446e-07
2.0583e-05
-1.51665e-07
2.06529e-05
-1.60237e-07
2.07268e-05
-1.69161e-07
2.08047e-05
-1.78437e-07
2.08868e-05
-1.8806e-07
2.09733e-05
-1.98024e-07
2.10643e-05
-2.08319e-07
2.11599e-05
-2.18932e-07
2.12603e-05
-2.29848e-07
2.13657e-05
-2.41047e-07
2.1476e-05
-2.52504e-07
2.15915e-05
-2.64194e-07
2.17122e-05
-2.76083e-07
2.18382e-05
-2.88136e-07
2.19696e-05
-3.00314e-07
2.21063e-05
-3.12571e-07
2.22485e-05