/*--------------------------------*- C++ -*----------------------------------*\
  =========                 |
  \\      /  F ield         | OpenFOAM: The Open Source CFD Toolbox
   \\    /   O peration     | Website:  https://openfoam.org
    \\  /    A nd           | Version:  7
     \\/     M anipulation  |
\*---------------------------------------------------------------------------*/
FoamFile
{
    version     2.0;
    format      ascii;
    class       volScalarField;
    location    "1";
    object      p;
}
// * * * * * * * * * * * * * * * * * * * * * * * * * * * * * * * * * * * * * //

dimensions      [0 2 -2 0 0 0 0];

internalField   nonuniform List<scalar> 
344
(
3.17606
3.17555
3.17504
3.17454
3.17403
3.17353
3.17303
3.17253
3.17204
3.17154
3.17105
3.17055
3.17006
3.16957
3.16908
3.16859
3.16809
3.1676
3.16711
3.16662
3.16613
3.16564
3.23595
3.2349
3.23293
3.23015
3.22682
3.22322
3.2196
3.21609
3.21273
3.20953
3.2065
3.20367
3.20111
3.19885
3.19692
3.19527
3.19388
3.1927
3.19167
3.19073
3.18987
3.18907
3.1883
3.18757
3.18688
3.18625
3.18564
3.18504
3.18446
3.18392
3.18341
3.18292
3.18243
3.18195
3.18148
3.18101
3.18054
3.18007
3.17959
3.1791
3.17861
3.17811
3.17759
3.17708
3.17656
3.17605
3.17554
3.17503
3.17453
3.17402
3.17352
3.17302
3.17253
3.17203
3.17153
3.17104
3.17055
3.17006
3.16956
3.16907
3.16858
3.16809
3.1676
3.16711
3.16662
3.16613
3.16564
3.2375
3.23634
3.23415
3.2311
3.22749
3.22366
3.21987
3.21623
3.21275
3.20943
3.20628
3.20337
3.20075
3.19846
3.19652
3.1949
3.19354
3.19239
3.19139
3.19049
3.18965
3.18887
3.18812
3.1874
3.18673
3.18611
3.18551
3.18493
3.18436
3.18383
3.18333
3.18285
3.18237
3.1819
3.18144
3.18098
3.18051
3.18005
3.17957
3.17909
3.1786
3.1781
3.17759
3.17707
3.17656
3.17604
3.17553
3.17502
3.17452
3.17401
3.17351
3.17302
3.17252
3.17202
3.17153
3.17103
3.17054
3.17005
3.16956
3.16907
3.16858
3.16809
3.1676
3.16711
3.16662
3.16613
3.16563
3.2392
3.23788
3.23544
3.23207
3.22816
3.2241
3.22014
3.21636
3.21275
3.2093
3.20603
3.20302
3.20034
3.19803
3.1961
3.1945
3.19318
3.19207
3.19111
3.19024
3.18943
3.18866
3.18793
3.18724
3.18658
3.18597
3.18539
3.18481
3.18426
3.18374
3.18325
3.18277
3.18231
3.18185
3.1814
3.18095
3.18049
3.18003
3.17956
3.17908
3.17859
3.17809
3.17758
3.17707
3.17655
3.17604
3.17552
3.17501
3.17451
3.17401
3.1735
3.17301
3.17251
3.17201
3.17152
3.17103
3.17054
3.17005
3.16956
3.16907
3.16858
3.16809
3.1676
3.16711
3.16661
3.16612
3.16563
3.24104
3.23954
3.2368
3.23306
3.22882
3.22452
3.22039
3.21647
3.21273
3.20914
3.20574
3.20263
3.1999
3.19756
3.19564
3.19408
3.1928
3.19173
3.19081
3.18998
3.18919
3.18845
3.18774
3.18707
3.18643
3.18583
3.18526
3.18469
3.18415
3.18364
3.18316
3.1827
3.18225
3.1818
3.18136
3.18091
3.18046
3.18001
3.17954
3.17907
3.17858
3.17808
3.17758
3.17706
3.17655
3.17603
3.17552
3.17501
3.1745
3.174
3.1735
3.173
3.1725
3.17201
3.17151
3.17102
3.17053
3.17004
3.16955
3.16906
3.16857
3.16808
3.16759
3.1671
3.16661
3.16612
3.16563
3.24306
3.24134
3.23822
3.23405
3.22946
3.22493
3.22065
3.21659
3.21269
3.20895
3.20541
3.2022
3.1994
3.19706
3.19516
3.19363
3.1924
3.19139
3.19051
3.18971
3.18896
3.18824
3.18755
3.18689
3.18627
3.18569
3.18513
3.18458
3.18404
3.18354
3.18308
3.18263
3.18219
3.18176
3.18132
3.18089
3.18044
3.17999
3.17953
3.17906
3.17858
3.17808
3.17757
3.17706
3.17654
3.17602
3.17551
3.175
3.17449
3.17399
3.17348
3.17299
3.17249
3.172
)
;

boundaryField
{
    inlet
    {
        type            zeroGradient;
    }
    outlet
    {
        type            fixedValue;
        value           nonuniform 0();
    }
    wall
    {
        type            zeroGradient;
    }
    wedge1
    {
        type            wedge;
    }
    wedge2
    {
        type            wedge;
    }
    axis
    {
        type            empty;
    }
    procBoundary30to24
    {
        type            processor;
        value           nonuniform List<scalar> 
68
(
3.17607
3.17556
3.17505
3.17454
3.17404
3.17354
3.17304
3.17254
3.17205
3.17155
3.17105
3.17056
3.17007
3.16957
3.16908
3.16859
3.1681
3.1676
3.16711
3.16662
3.16613
3.16564
3.2345
3.23356
3.23177
3.22923
3.22614
3.22277
3.21932
3.21595
3.21271
3.20961
3.20668
3.20394
3.20144
3.19922
3.19729
3.19563
3.19421
3.193
3.19193
3.19097
3.19009
3.18926
3.18848
3.18773
3.18703
3.18638
3.18576
3.18515
3.18457
3.18401
3.18349
3.18299
3.18249
3.182
3.18152
3.18104
3.18057
3.18009
3.17961
3.17912
3.17862
3.17811
3.1776
3.17709
3.17657
3.17657
)
;
    }
    procBoundary30to25
    {
        type            processor;
        value           uniform 3.16514;
    }
    procBoundary30to31
    {
        type            processor;
        value           nonuniform List<scalar> 4(3.16514 3.16514 3.16514 3.16514);
    }
    procBoundary30to36
    {
        type            processor;
        value           nonuniform List<scalar> 
68
(
3.1715
3.17101
3.17052
3.17004
3.16955
3.16906
3.16857
3.16808
3.16759
3.1671
3.16661
3.16612
3.16563
3.2453
3.24328
3.23969
3.23503
3.23008
3.22533
3.2209
3.21669
3.21263
3.20871
3.20503
3.20171
3.19886
3.19651
3.19464
3.19316
3.19198
3.19103
3.1902
3.18943
3.18872
3.18803
3.18736
3.18672
3.18612
3.18555
3.18499
3.18445
3.18393
3.18345
3.18299
3.18255
3.18213
3.18171
3.18128
3.18086
3.18042
3.17997
3.17952
3.17905
3.17857
3.17808
3.17757
3.17706
3.17654
3.17602
3.1755
3.17499
3.17448
3.17398
3.17347
3.17298
3.17248
3.1715
3.17199
)
;
    }
}


// ************************************************************************* //
