/*--------------------------------*- C++ -*----------------------------------*\
  =========                 |
  \\      /  F ield         | OpenFOAM: The Open Source CFD Toolbox
   \\    /   O peration     | Website:  https://openfoam.org
    \\  /    A nd           | Version:  7
     \\/     M anipulation  |
\*---------------------------------------------------------------------------*/
FoamFile
{
    version     2.0;
    format      ascii;
    class       volScalarField;
    location    "2";
    object      p;
}
// * * * * * * * * * * * * * * * * * * * * * * * * * * * * * * * * * * * * * //

dimensions      [0 2 -2 0 0 0 0];

internalField   nonuniform List<scalar> 
433
(
-0.352517
-0.353797
-0.355029
-0.356129
-0.357172
-0.358176
-0.359128
-0.360021
-0.360845
-0.361596
-0.362267
-0.362849
-0.363335
-0.363717
-0.363988
-0.364138
-0.364159
-0.364042
-0.363779
-0.363358
-0.36277
-0.362004
-0.36105
-0.359896
-0.358531
-0.353878
-0.355128
-0.35633
-0.357403
-0.35842
-0.359397
-0.360322
-0.361188
-0.361986
-0.362711
-0.363355
-0.363912
-0.364373
-0.36473
-0.364976
-0.365103
-0.365101
-0.364962
-0.364677
-0.364235
-0.363627
-0.362843
-0.361871
-0.3607
-0.359318
-0.356581
-0.357772
-0.358916
-0.359935
-0.360899
-0.361822
-0.362695
-0.363507
-0.364253
-0.364926
-0.365519
-0.366025
-0.366435
-0.366744
-0.366942
-0.367022
-0.366974
-0.366791
-0.366462
-0.365979
-0.365331
-0.364509
-0.3635
-0.362295
-0.360882
-0.360589
-0.361694
-0.362752
-0.363692
-0.364577
-0.365422
-0.366216
-0.36695
-0.367619
-0.368215
-0.368731
-0.369162
-0.369499
-0.369734
-0.369861
-0.369871
-0.369755
-0.369505
-0.369112
-0.368567
-0.367859
-0.366979
-0.365916
-0.36466
-0.363198
-0.361518
-0.365849
-0.366841
-0.367789
-0.368625
-0.369409
-0.370151
-0.370843
-0.371475
-0.372043
-0.372538
-0.372955
-0.373287
-0.373526
-0.373666
-0.373699
-0.373616
-0.37341
-0.373072
-0.372594
-0.371966
-0.371179
-0.370223
-0.369087
-0.367761
-0.366234
-0.364493
-0.372295
-0.373151
-0.373965
-0.374677
-0.375337
-0.375955
-0.376522
-0.377031
-0.377474
-0.377847
-0.378142
-0.378353
-0.378474
-0.378496
-0.378412
-0.378216
-0.377899
-0.377452
-0.376868
-0.376137
-0.375251
-0.3742
-0.372973
-0.37156
-0.36995
-0.368132
-0.379849
-0.380549
-0.381208
-0.381776
-0.382294
-0.382768
-0.383191
-0.383555
-0.383855
-0.384085
-0.384237
-0.384307
-0.384288
-0.384171
-0.383952
-0.383621
-0.383172
-0.382597
-0.381888
-0.381035
-0.38003
-0.378865
-0.377528
-0.37601
-0.374301
-0.372388
-0.37026
-0.388427
-0.388954
-0.389441
-0.389849
-0.390207
-0.39052
-0.390781
-0.390983
-0.391121
-0.391188
-0.39118
-0.39109
-0.390911
-0.390637
-0.390262
-0.389778
-0.389179
-0.388456
-0.387602
-0.386609
-0.385467
-0.384169
-0.382705
-0.381065
-0.379237
-0.377212
-0.374978
-0.397944
-0.398282
-0.398582
-0.398815
-0.398999
-0.399136
-0.399219
-0.399243
-0.399202
-0.399092
-0.398905
-0.398638
-0.398283
-0.397834
-0.397286
-0.396631
-0.395863
-0.394975
-0.393959
-0.392807
-0.391511
-0.390063
-0.388454
-0.386674
-0.384712
-0.382558
-0.3802
-0.377627
-0.408311
-0.408449
-0.408549
-0.408595
-0.408592
-0.40854
-0.408432
-0.408264
-0.408031
-0.407727
-0.407348
-0.406888
-0.406341
-0.405702
-0.404964
-0.404122
-0.40317
-0.402099
-0.400905
-0.399578
-0.398112
-0.396498
-0.394727
-0.39279
-0.390677
-0.388377
-0.385879
-0.383171
-0.380241
-0.419443
-0.41937
-0.419261
-0.419109
-0.418909
-0.418656
-0.418346
-0.417975
-0.417536
-0.417027
-0.416442
-0.415776
-0.415024
-0.41418
-0.413239
-0.412196
-0.411043
-0.409777
-0.408389
-0.406872
-0.40522
-0.403425
-0.401478
-0.399369
-0.39709
-0.394628
-0.391974
-0.389115
-0.386037
-0.431257
-0.430966
-0.430638
-0.430281
-0.429875
-0.429413
-0.428891
-0.428305
-0.427652
-0.426926
-0.426124
-0.42524
-0.42427
-0.42321
-0.422053
-0.420796
-0.419432
-0.417955
-0.416361
-0.414642
-0.412791
-0.410801
-0.408664
-0.406371
-0.403912
-0.401276
-0.398451
-0.395425
-0.392184
-0.388715
-0.443676
-0.443159
-0.442606
-0.442037
-0.441418
-0.440738
-0.439996
-0.439188
-0.438311
-0.43736
-0.436331
-0.43522
-0.434023
-0.432735
-0.431353
-0.42987
-0.428283
-0.426587
-0.424775
-0.422842
-0.420782
-0.418587
-0.41625
-0.413761
-0.411111
-0.408289
-0.405283
-0.456624
-0.455877
-0.455093
-0.454306
-0.453468
-0.452565
-0.451596
-0.450559
-0.449451
-0.448267
-0.447003
-0.445657
-0.444225
-0.442702
-0.441084
-0.439368
-0.43755
-0.435625
-0.433587
-0.431433
-0.429155
-0.426747
-0.424202
-0.470031
-0.469048
-0.468029
-0.467019
-0.465958
-0.464827
-0.463626
-0.462355
-0.46101
-0.459587
-0.458083
-0.456496
-0.454822
-0.453057
-0.451199
-0.449244
-0.447189
-0.445029
-0.44276
-0.483826
-0.482604
-0.481346
-0.480111
-0.478823
-0.47746
-0.476024
-0.474514
-0.472928
-0.471263
-0.469515
-0.467683
-0.465763
-0.463754
-0.461651
-0.497939
-0.496476
-0.494976
-0.493513
-0.491996
-0.490399
-0.488726
-0.486976
-0.485148
-0.483239
-0.481246
-0.479167
-0.512298
-0.510593
-0.508852
-0.50716
-0.505414
-0.503583
-0.501672
-0.499682
-0.526825
-0.52488
-0.522898
-0.352517
-0.353797
-0.355028
)
;

boundaryField
{
    inlet
    {
        type            zeroGradient;
    }
    outlet
    {
        type            fixedValue;
        value           nonuniform 0();
    }
    cylinder
    {
        type            zeroGradient;
    }
    top
    {
        type            symmetryPlane;
    }
    bottom
    {
        type            symmetryPlane;
    }
    defaultFaces
    {
        type            empty;
    }
    procBoundary21to15
    {
        type            processor;
        value           nonuniform List<scalar> 
26
(
-0.356128
-0.357172
-0.358176
-0.359128
-0.36002
-0.360845
-0.361596
-0.362267
-0.362849
-0.363335
-0.363717
-0.363988
-0.364138
-0.364159
-0.364042
-0.363779
-0.363358
-0.36277
-0.362004
-0.36105
-0.359896
-0.358531
-0.353878
-0.355128
-0.35633
-0.356128
)
;
    }
    procBoundary21to16
    {
        type            processor;
        value           uniform -0.356941;
    }
    procBoundary21to22
    {
        type            processor;
        value           nonuniform List<scalar> 
16
(
-0.357714
-0.359247
-0.359247
-0.35961
-0.362528
-0.366093
-0.366093
-0.367906
-0.372523
-0.372523
-0.374828
-0.374828
-0.377078
-0.38273
-0.38273
-0.385003
)
;
    }
    procBoundary21to27
    {
        type            processor;
        value           nonuniform List<scalar> 
37
(
-0.402078
-0.39866
-0.395013
-0.42151
-0.418661
-0.415645
-0.402078
-0.412448
-0.440377
-0.437876
-0.435249
-0.42151
-0.432489
-0.459453
-0.457156
-0.454757
-0.440377
-0.452252
-0.476999
-0.474742
-0.459453
-0.472392
-0.497611
-0.495457
-0.493217
-0.476999
-0.49089
-0.52098
-0.519005
-0.516942
-0.514794
-0.497611
-0.512565
-0.541441
-0.539258
-0.52098
-0.537039
)
;
    }
}


// ************************************************************************* //
