/*--------------------------------*- C++ -*----------------------------------*\
  =========                 |
  \\      /  F ield         | OpenFOAM: The Open Source CFD Toolbox
   \\    /   O peration     | Website:  https://openfoam.org
    \\  /    A nd           | Version:  7
     \\/     M anipulation  |
\*---------------------------------------------------------------------------*/
FoamFile
{
    version     2.0;
    format      ascii;
    class       surfaceScalarField;
    location    "20";
    object      phi;
}
// * * * * * * * * * * * * * * * * * * * * * * * * * * * * * * * * * * * * * //

dimensions      [0 3 -1 0 0 0 0];

internalField   nonuniform List<scalar> 
809
(
0.0012136
0.00131032
-9.67241e-05
-0.000288388
0.00189098
-0.00198771
0.00465518
-0.00305259
0.00655932
-0.00241352
-0.0016541
-0.000711512
-0.00127619
-0.000935313
-0.00282879
0.00027672
-0.00362555
0.00227839
-0.00365577
0.00391933
-0.00268097
-0.000735601
-0.00175982
0.000483624
-0.00399592
-0.000592683
-0.00482348
-0.00279799
-0.00442877
-0.00405048
-0.00367144
-0.0034383
-0.00296066
-0.00144638
-0.002342
0.00092851
0.00269155
-0.000437671
0.000921295
-0.00143821
0.000407858
-0.00279813
-0.00143807
-0.00399814
-0.00285047
-0.0044225
-0.00301394
-0.00373777
-0.00213111
-0.00207975
-0.000729506
-3.10654e-05
0.000642865
0.00171267
0.00174026
0.00249131
0.00182036
-0.000899067
0.0037961
-0.00156788
0.00396689
-0.00160886
0.0027512
-0.00163478
0.00137783
-0.00164057
0.000554207
-0.00130749
0.00039556
-0.00057086
0.00060569
0.000432736
0.000784548
0.0015614
0.000714215
0.00256164
0.000490155
0.00310006
0.00303143
0.00116259
-0.00206166
0.00298951
-0.0033948
0.00432812
-0.00294746
0.00486132
-0.00216799
0.00465004
-0.00142928
0.00378892
-0.000446369
0.00246438
0.000753681
0.000939738
0.00195738
-0.000396723
0.00289786
-0.00119978
0.0033647
-0.00137368
0.00327396
-0.00107098
0.00272872
-0.00055428
0.00193319
0.00113006
-0.00128662
-0.000775038
-0.00256899
-0.00211243
-0.0024368
-0.00307966
-0.00146288
-0.0031419
-0.000781591
-0.00211058
-0.000897767
-0.000330193
-0.00163931
0.00149522
-0.00246157
0.00277964
-0.00286249
0.00329879
-0.0026695
0.00317171
-0.00204381
0.00264827
-0.00124994
0.00193485
-0.000555198
0.00123844
-7.64716e-05
0.00065133
0.000191935
0.000215194
-7.39815e-05
-0.00149777
0.000722736
-0.00347158
-0.000138623
-0.00424078
-0.00231046
-0.00384219
-0.0035405
-0.00293383
-0.00301893
-0.00185543
-0.0014086
-0.00070062
0.000340413
0.000479656
0.00159936
0.00147574
0.0023027
0.00209692
0.00255053
0.00227871
0.00246648
0.0020478
0.00216576
0.0016121
0.00167414
0.00116331
0.00110012
0.000812184
0.000566325
0.000585737
0.000152466
0.000460333
-0.000124138
-0.000292974
7.27469e-05
0.000649989
-0.000103403
3.75262e-05
-0.000670791
-0.00174307
-0.00115178
-0.00305951
-0.000924282
-0.00324643
0.00017382
-0.0025067
0.00178646
-0.00127222
0.00330793
7.7889e-05
0.00425401
0.00135662
0.00442685
0.00237769
0.00391224
0.00298108
0.00305321
0.00302479
0.00216383
0.00256353
0.00144426
0.00181968
0.00096216
0.00104842
0.000692113
0.000422514
0.000568611
-6.36132e-07
0.000523131
-0.000247494
0.000505777
-0.000380803
0.000489022
-0.000459625
-0.000524081
0.00186122
-0.00121123
0.00404064
-0.00214189
0.00447277
-0.00217521
0.00351952
-0.00210625
0.00230339
-0.0020303
0.00141343
-0.00161675
0.000937368
-0.000796158
0.000670481
0.000344776
0.000408599
0.0016185
0.000125644
0.00266065
-6.65667e-05
0.00317329
-9.62163e-05
0.00305444
1.89411e-05
0.00244837
0.000201029
0.0016376
0.000372705
0.000876745
0.000492977
0.000302242
0.000556583
-6.42426e-05
0.000577452
-0.000268363
0.000565312
-0.000368663
0.000528216
-0.000422529
0.000477696
-0.000473561
0.000421546
-0.000537389
-0.000616009
0.000784897
-0.00199613
0.00200367
-0.00336066
0.00274918
-0.00292072
0.00274172
-0.00209878
0.00209043
-0.00137901
0.000967867
-0.000494184
-0.000388136
0.000559845
-0.00165688
0.00161352
-0.00247285
0.00243447
-0.002655
0.00284279
-0.00225325
0.00277155
-0.00150405
0.00230524
-0.000702265
0.00164659
-6.08414e-05
0.000996173
0.000340868
0.000475035
0.000529979
0.000113132
0.000570494
-0.000104758
0.000527835
-0.000225703
0.000459339
-0.000300167
0.000390604
-0.000353794
0.000329321
-0.000412279
0.000277117
-0.000485185
0.000231068
-0.000569959
0.000187707
-0.000663851
-0.000764418
-0.00138609
-0.000610042
-0.00298283
-0.00176392
-0.00332724
-0.00257631
-0.00285251
-0.00257351
-0.00253127
-0.00170025
-0.00269593
-0.000329527
-0.00315406
0.00101798
-0.00349421
0.00195367
-0.0034213
0.00236156
-0.00290112
0.00232262
-0.00210172
0.00197214
-0.00128386
0.00148738
-0.000626589
0.000989315
-0.00018828
0.000557863
5.42927e-05
0.000232463
0.000153647
1.37779e-05
0.000170958
-0.000122069
0.000153005
-0.000207751
0.000124962
-0.000272124
0.000104274
-0.000333106
9.20183e-05
-0.000400023
8.25776e-05
-0.000475744
7.21167e-05
-0.000559498
5.77918e-05
-0.000649526
-0.001273
0.000662962
-0.00289964
-0.000137288
-0.00331108
-0.00216487
-0.00260586
-0.00327873
-0.00153131
-0.00277479
-0.000466596
-0.00139424
0.000474061
7.73198e-05
0.0012101
0.00121764
0.00162291
0.00194874
0.001687
0.00225853
0.00141259
0.00224656
0.000962595
0.00193738
0.000515746
0.00143616
0.000184698
0.000888912
1.55408e-07
0.000417006
-6.6215e-05
8.01484e-05
-6.20056e-05
-0.000126278
-2.84625e-05
-0.000241293
8.79518e-06
-0.000309381
3.82243e-05
-0.000362535
5.59323e-05
-0.000417732
6.15307e-05
-0.000481342
5.59953e-05
0.000129319
0.000533643
0.000244587
-0.000252557
0.000229364
-0.00214965
0.000366145
-0.00341551
0.00101459
-0.00342324
0.00209647
-0.00247612
0.00321765
-0.00104386
0.00393154
0.000503743
0.00402235
0.00185794
0.0034792
0.00280168
0.00258148
0.00314428
0.00163526
0.0028836
0.000857885
0.00221354
0.000339222
0.00140757
6.7017e-05
0.000689211
-2.34391e-05
0.000170604
-1.02135e-05
-0.000139504
4.3093e-05
-0.0002946
9.60336e-05
-0.000362322
0.000130488
-0.00039699
0.000142347
-0.00042959
0.00167313
-0.00113949
0.00357641
-0.00215583
0.00379967
-0.00237291
0.0027489
-0.00236474
0.00150116
-0.0021755
0.000552852
-0.00152781
-4.83415e-05
-0.00044267
-0.000435418
0.00089082
-0.000755714
0.00217823
-0.000931663
0.00297762
-0.000903868
0.00311648
-0.000691586
0.00267131
-0.000388914
0.00191087
-0.000100165
0.00111883
0.000112329
0.000476718
0.00023716
4.57728e-05
0.000296069
-0.000198412
0.00031151
-0.000310041
0.000297742
-0.000348555
0.00026406
0.000832351
-0.00197184
0.00188617
-0.00320965
0.00214316
-0.0026299
0.00146104
-0.00168262
0.00016854
-0.000883004
-0.00134316
-1.61188e-05
-0.00270276
0.000916937
-0.0035724
0.00176046
-0.00372387
0.0023297
-0.0032052
0.00245896
-0.00225504
0.00216632
-0.00120498
0.00162126
-0.000325713
0.0010316
0.000253497
0.000539615
0.000537085
0.00019313
0.000607012
-2.4154e-05
0.000544685
-0.000136085
0.000429289
-0.000194644
-0.00143112
-0.000540719
-0.00313525
-0.00150552
-0.0037004
-0.00206474
-0.00353022
-0.00185281
-0.00340981
-0.00100341
-0.00352111
9.51824e-05
-0.00366515
0.00106098
-0.00358017
0.00167547
-0.00311743
0.00186696
-0.00236314
0.00170467
-0.00153482
0.001338
-0.000823523
0.00090996
-0.000319029
0.000527105
-2.23524e-05
0.000242939
0.000108923
6.18543e-05
0.000125865
-4.10965e-05
8.8565e-05
-9.87847e-05
-0.00133343
0.000792707
-0.00288948
5.05262e-05
-0.00303421
-0.00192001
-0.00195681
-0.0029302
-0.000512491
-0.00244773
0.000821994
-0.0012393
0.00179653
8.64427e-05
0.0022808
0.0011912
0.00227789
0.00186987
0.00187733
0.00210523
0.00127174
0.0019436
0.000664887
0.00151681
0.000191877
0.00100012
-0.000100195
0.000535011
-0.000232458
0.000194117
-0.00025889
0.0004581
0.000334607
0.00109249
-0.000583864
0.00155943
-0.00238696
0.00205808
-0.00342885
0.00277118
-0.00316084
0.00344881
-0.00191693
0.00372461
-0.000189359
0.00340706
0.00150876
0.00258014
0.00269678
0.00157547
0.0031099
0.000708933
0.00281013
0.000118101
0.00210764
-0.000203358
0.00132157
-0.000317834
0.000649486
0.00158061
-0.001246
0.00318186
-0.00218512
0.00296279
-0.00216788
0.00135271
-0.00181877
-0.000597806
-0.00121032
-0.00239015
-0.000124584
-0.00383343
0.00125392
-0.00486646
0.00254179
-0.00533066
0.00316098
-0.00507625
0.00285549
-0.00419089
0.00192478
-0.00297951
0.000896265
-0.00179209
0.000134151
0.000385328
-0.00163133
0.000576792
-0.00237659
-0.000174734
-0.00141636
-0.00194358
-4.99237e-05
-0.0042911
0.0011372
-0.00656173
0.00214604
-0.00813729
0.00282948
-0.00856568
0.00297018
-0.0078262
0.00242151
-0.00625308
0.00128236
-0.00432318
-5.12273e-06
-0.0024727
-0.000954213
-0.00171029
7.89679e-05
-0.00394231
-0.00014457
-0.00507372
-0.000284944
-0.00532637
0.000202724
-0.00524752
0.00105835
-0.00481667
0.00171519
-0.00390152
0.00191433
-0.00256531
0.00163398
-0.00108312
0.000939321
0.000149455
4.97832e-05
0.000904866
-0.000760533
-0.00127282
-0.00105417
0.00113313
-0.0020154
0.000816667
-0.00146561
-0.00083474
0.000418398
-0.00168128
0.00289736
-0.00142061
0.00529298
-0.000680429
0.00702295
0.000184352
0.00779574
0.000861193
0.0075471
0.00118796
0.00648394
0.00111294
0.00498004
0.000743366
0.00118922
-5.60866e-05
0.00293725
-0.000931357
0.0042452
-0.00214269
0.00520455
-0.00264063
0.00590382
-0.00211988
0.00603757
-0.000814178
0.00540781
0.000814109
0.0041314
0.0021376
0.00263481
0.00268455
0.00132593
0.00242182
0.00149881
-0.0015549
0.00298104
-0.00241359
0.00256937
-0.00173102
0.000524401
-0.000595658
-0.00220822
0.000612736
-0.00497352
0.00195113
-0.00728227
0.00312286
-0.00871146
0.00356678
-0.008973
0.00294609
0.00155267
-0.000301408
-0.00125349
-0.00112296
-0.00159204
-0.00258198
-0.000271999
-0.00468988
0.00151224
-0.00709153
0.00301439
-0.00913863
0.00399823
-0.0101778
0.00416206
-0.00996985
0.00335881
-0.00874012
0.00171636
-0.00188657
0.000633083
-0.00443024
0.000951624
-0.0056665
0.000964265
-0.00562725
0.00147299
-0.00482772
0.00221486
-0.00338425
0.00255475
-0.00149598
0.00227378
0.000431133
0.0014317
0.000203958
-0.000651495
0.00128458
-0.000973919
0.00127405
0.000149752
-0.000159406
0.00257851
-0.000955763
0.00560272
-0.000809356
0.00843292
-0.00027545
0.0103822
0.000324549
0.0111101
0.000703743
0.000757862
0.00153114
-0.000246563
0.00381562
-0.00101043
0.00547746
-0.00182125
0.00650868
0.00703212
0.00683613
0.00586386
0.00434165
0.00138452
0.00276889
)
;

boundaryField
{
    inlet
    {
        type            calculated;
        value           nonuniform 0();
    }
    outlet
    {
        type            calculated;
        value           nonuniform 0();
    }
    cylinder
    {
        type            calculated;
        value           uniform 0;
    }
    top
    {
        type            symmetryPlane;
        value           nonuniform 0();
    }
    bottom
    {
        type            symmetryPlane;
        value           nonuniform 0();
    }
    defaultFaces
    {
        type            empty;
        value           nonuniform 0();
    }
    procBoundary19to12
    {
        type            processor;
        value           uniform 0.00271937;
    }
    procBoundary19to13
    {
        type            processor;
        value           nonuniform List<scalar> 10(-0.00198698 -0.00133279 -7.94599e-05 0.00129682 0.00222594 0.00238015 -0.00163108 -0.00239481 0.00232943 -0.00138178);
    }
    procBoundary19to18
    {
        type            processor;
        value           nonuniform List<scalar> 
25
(
-0.000363308
-0.000385299
0.000314588
-0.000233854
3.42126e-05
-0.000140291
-1.46643e-05
-0.000232111
-0.000125564
-0.000298292
0.000174576
-0.000855992
-0.000286609
-0.000985716
-0.00135283
0.00122347
0.0034233
0.000283924
0.000374246
0.00169505
-0.00810385
-0.00689869
-0.000288758
0.00194354
0.0105562
)
;
    }
    procBoundary19to24
    {
        type            processor;
        value           nonuniform List<scalar> 8(3.76558e-05 -0.000744284 -0.000553963 4.07332e-05 -0.000634264 0.000134395 -0.000473391 0.000219769);
    }
    procBoundary19to25
    {
        type            processor;
        value           nonuniform List<scalar> 
38
(
-7.30307e-05
-0.00114056
-0.000841591
0.0024403
0.000509384
0.000816102
0.00739731
0.00104003
0.000214597
0.00444033
-0.00154717
-0.00338306
-0.00165049
-0.003484
-0.00353914
0.0027605
-0.002876
-0.00283771
0.000296436
-0.00244988
-0.00162982
-5.45195e-05
-0.000483601
-4.20007e-05
0.000307918
0.000249541
0.000354264
0.000399043
0.000398156
0.00047638
0.000550521
0.000462583
0.000593538
0.00067431
0.000363246
0.000707211
0.000807735
0.000144391
)
;
    }
}


// ************************************************************************* //
