/*--------------------------------*- C++ -*----------------------------------*\
  =========                 |
  \\      /  F ield         | OpenFOAM: The Open Source CFD Toolbox
   \\    /   O peration     | Website:  https://openfoam.org
    \\  /    A nd           | Version:  7
     \\/     M anipulation  |
\*---------------------------------------------------------------------------*/
FoamFile
{
    version     2.0;
    format      ascii;
    class       surfaceScalarField;
    location    "2.5";
    object      phi;
}
// * * * * * * * * * * * * * * * * * * * * * * * * * * * * * * * * * * * * * //

dimensions      [0 3 -1 0 0 0 0];

internalField   nonuniform List<scalar> 
615
(
0.000152936
-2.53355e-06
0.000153024
-2.4449e-06
0.000153108
-2.40785e-06
0.000153192
-2.29669e-06
0.000153271
-2.2855e-06
0.000153352
-2.12053e-06
0.000153423
-2.17349e-06
0.000153501
-1.92784e-06
0.00015356
-2.10645e-06
0.000153641
-1.69721e-06
0.000153686
-2.07637e-06
0.000153774
-1.38825e-06
0.000153795
-2.12322e-06
0.000153898
-1.01404e-06
0.000153886
-2.29146e-06
0.00015402
-5.36867e-07
0.000153962
-2.55233e-06
0.000154137
5.28193e-08
0.000154017
-2.91641e-06
0.000154247
6.60525e-07
0.000154058
-3.32937e-06
1.22365e-06
0.00014608
-9.61931e-07
0.000146331
-2.80407e-06
0.000146714
-4.45797e-06
0.000147176
-5.8085e-06
0.000147668
-6.79711e-06
0.000148163
-7.47195e-06
0.000148655
-7.91271e-06
0.000149145
-8.18599e-06
0.00014963
-8.32169e-06
0.000150098
-8.31873e-06
0.000150535
-8.17714e-06
0.000150929
-7.91225e-06
0.000151277
-7.55766e-06
0.000151581
-7.1541e-06
0.000151846
-6.73849e-06
0.000152077
-6.33835e-06
0.000152282
-5.97134e-06
0.000152467
-5.64701e-06
0.000152638
-5.36716e-06
0.000152798
-5.12695e-06
0.00015295
-4.91929e-06
0.000153096
-4.73898e-06
0.000153238
-4.58242e-06
0.000153378
-4.44495e-06
0.000153515
-4.32063e-06
0.000153651
-4.20535e-06
0.000153783
-4.09845e-06
0.000153914
-4.00005e-06
0.000154043
-3.90799e-06
0.000154171
-3.81874e-06
0.000154297
-3.73094e-06
0.000154419
-3.6464e-06
0.000154539
-3.56657e-06
0.000154658
-3.48993e-06
0.000154776
-3.41318e-06
0.000154891
-3.33637e-06
0.000155002
-3.26111e-06
0.000155112
-3.18954e-06
0.00015522
-3.11819e-06
0.000155327
-3.04747e-06
0.000155431
-2.97352e-06
0.000155532
-2.9048e-06
0.000155631
-2.83195e-06
0.000155727
-2.7679e-06
0.000155823
-2.68724e-06
0.000155915
-2.62598e-06
0.000156006
-2.53532e-06
0.000156091
-2.49335e-06
0.000156177
-2.38285e-06
0.000156258
-2.36565e-06
0.000156342
-2.20444e-06
0.000156413
-2.24487e-06
0.000156494
-2.00878e-06
0.000156553
-2.16579e-06
0.000156637
-1.78085e-06
0.000156681
-2.12093e-06
0.000156773
-1.47995e-06
0.000156793
-2.14287e-06
0.0001569
-1.12106e-06
0.000156885
-2.27686e-06
0.000157022
-6.73935e-07
0.000156962
-2.49203e-06
0.00015714
-1.2567e-07
0.00015702
-2.79559e-06
0.000157249
4.31393e-07
0.000157064
-3.14439e-06
9.40244e-07
0.000148658
-1.0643e-06
0.000148945
-3.09119e-06
0.000149378
-4.89079e-06
0.000149886
-6.3161e-06
0.000150413
-7.32468e-06
0.000150938
-7.99698e-06
0.00015146
-8.43429e-06
0.000151982
-8.7083e-06
0.0001525
-8.83934e-06
0.000152996
-8.81545e-06
0.000153455
-8.63605e-06
0.000153866
-8.3225e-06
0.000154224
-7.91658e-06
0.000154535
-7.46459e-06
0.000154803
-7.0067e-06
0.000155036
-6.57152e-06
0.000155242
-6.17675e-06
0.000155426
-5.83159e-06
0.000155596
-5.53703e-06
0.000155756
-5.28663e-06
0.000155908
-5.07162e-06
0.000156055
-4.88583e-06
0.000156198
-4.72552e-06
0.000156339
-4.58578e-06
0.000156478
-4.45978e-06
0.000156615
-4.3425e-06
0.00015675
-4.23326e-06
0.000156883
-4.13296e-06
0.000157015
-4.03964e-06
0.000157145
-3.94896e-06
0.000157273
-3.85875e-06
0.000157398
-3.77131e-06
0.00015752
-3.68926e-06
0.000157642
-3.6113e-06
0.000157762
-3.5331e-06
0.000157879
-3.45374e-06
0.000157993
-3.37532e-06
0.000158105
-3.30125e-06
0.000158215
-3.22855e-06
0.000158324
-3.15648e-06
0.000158431
-3.08029e-06
0.000158534
-3.0082e-06
0.000158635
-2.93276e-06
0.000158734
-2.86653e-06
0.000158832
-2.78508e-06
0.000158926
-2.7206e-06
0.000159019
-2.62813e-06
0.000159106
-2.58064e-06
0.000159195
-2.47104e-06
0.000159276
-2.44716e-06
0.000159362
-2.29082e-06
0.000159435
-2.31755e-06
0.000159519
-2.09243e-06
0.000159578
-2.22536e-06
0.000159665
-1.86718e-06
0.000159709
-2.16492e-06
0.000159804
-1.5753e-06
0.000159823
-2.16144e-06
0.000159933
-1.2319e-06
0.000159917
-2.26002e-06
0.000160057
-8.14027e-07
0.000159995
-2.43006e-06
0.000160175
-3.06064e-07
0.000160055
-2.67585e-06
0.000160282
2.04471e-07
0.000160103
-2.96465e-06
6.65949e-07
0.000151239
-1.18363e-06
0.000151571
-3.4228e-06
0.000152062
-5.38138e-06
0.000152618
-6.87233e-06
0.000153182
-7.88893e-06
0.000153738
-8.55266e-06
0.000154291
-8.98791e-06
0.00015485
-9.26741e-06
0.000155404
-9.39283e-06
0.000155931
-9.34246e-06
0.000156412
-9.11755e-06
0.000156839
-8.74858e-06
0.000157208
-8.28617e-06
0.000157525
-7.78164e-06
0.000157797
-7.27816e-06
0.000158031
-6.80561e-06
0.000158236
-6.38183e-06
0.00015842
-6.01543e-06
0.000158589
-5.70614e-06
0.000158748
-5.44574e-06
0.0001589
-5.22385e-06
0.000159047
-5.03321e-06
0.000159192
-4.86963e-06
0.000159334
-4.72794e-06
0.000159475
-4.60058e-06
0.000159614
-4.48166e-06
0.000159751
-4.3704e-06
0.000159886
-4.26831e-06
0.00016002
-4.17371e-06
0.000160153
-4.0816e-06
0.000160283
-3.9891e-06
0.000160411
-3.89888e-06
0.000160536
-3.81457e-06
0.00016066
-3.73519e-06
0.000160782
-3.65551e-06
0.000160902
-3.57367e-06
0.000161019
-3.49214e-06
0.000161133
-3.41546e-06
0.000161246
-3.34131e-06
0.000161358
-3.26787e-06
0.000161467
-3.18954e-06
0.000161573
-3.11407e-06
0.000161676
-3.03596e-06
0.000161777
-2.96731e-06
0.000161877
-2.88513e-06
0.000161974
-2.81743e-06
0.000162069
-2.7234e-06
0.000162158
-2.66992e-06
0.000162248
-2.56136e-06
0.000162331
-2.53011e-06
0.00016242
-2.37954e-06
0.000162494
-2.39162e-06
0.00016258
-2.17876e-06
0.000162641
-2.2854e-06
0.000162729
-1.95598e-06
0.000162773
-2.20848e-06
0.000162871
-1.67385e-06
0.000162889
-2.17934e-06
0.000163004
-1.34611e-06
0.000162985
-2.24143e-06
0.000163127
-9.56352e-07
0.000163064
-2.36682e-06
0.000163246
-4.87565e-07
0.000163127
-2.55777e-06
0.000163352
-1.97061e-08
0.000163177
-2.79038e-06
4.01284e-07
0.000153825
-1.32459e-06
0.000154214
-3.81082e-06
0.000154771
-5.93842e-06
0.000155377
-7.47907e-06
0.000155978
-8.48951e-06
0.000156565
-9.13963e-06
0.000157155
-9.57795e-06
0.000157756
-9.86852e-06
0.000158349
-9.98552e-06
0.000158907
-9.90105e-06
0.000159412
-9.62194e-06
0.000159854
-9.19073e-06
0.000160234
-8.66651e-06
0.000160558
-8.10504e-06
0.000160832
-7.55229e-06
0.000161066
-7.03985e-06
0.00016127
-6.5859e-06
0.000161453
-6.19808e-06
0.000161621
-5.87415e-06
0.000161779
-5.60404e-06
0.000161931
-5.37582e-06
0.000162079
-5.18108e-06
0.000162224
-5.01488e-06
0.000162368
-4.87159e-06
0.00016251
-4.74312e-06
0.000162652
-4.62297e-06
0.000162791
-4.51012e-06
0.000162929
-4.4064e-06
0.000163066
-4.31039e-06
0.000163201
-4.21674e-06
0.000163334
-4.12212e-06
0.000163465
-4.02936e-06
0.000163593
-3.94282e-06
0.000163719
-3.86176e-06
0.000163844
-3.78041e-06
0.000163967
-3.69617e-06
0.000164086
-3.61173e-06
0.000164203
-3.53246e-06
0.000164319
-3.45664e-06
0.000164433
-3.38161e-06
0.000164544
-3.30118e-06
0.000164653
-3.22248e-06
0.000164758
-3.14171e-06
0.000164861
-3.07037e-06
0.000164964
-2.98731e-06
0.000165062
-2.91629e-06
0.00016516
-2.82098e-06
0.000165251
-2.76126e-06
0.000165344
-2.65375e-06
0.000165428
-2.61443e-06
0.000165519
-2.47016e-06
0.000165594
-2.46695e-06
0.000165683
-2.26737e-06
0.000165743
-2.34605e-06
0.000165834
0.000165877
0.000165978
0.000165995
0.000166112
0.000166092
0.000166235
0.000166171
0.000166352
0.000166236
0.000166456
0.000166287
0.000156418
0.000156879
0.000157511
0.000158169
0.000158804
0.000159423
0.000160057
0.000160706
0.000161341
0.000161932
0.000162459
0.000162918
0.00016331
0.000163639
0.000163915
0.000164149
0.000164351
0.000164532
0.000164699
0.000164856
0.000165008
0.000165156
0.000165303
0.000165448
0.000165592
0.000165736
0.000165879
0.00016602
0.000166159
0.000166297
0.000166433
0.000166566
0.000166698
0.000166827
0.000166954
0.000167079
0.000167201
0.000167321
0.000167439
0.000167555
0.000167668
0.000167779
0.000167887
0.000167992
0.000168096
0.000168196
0.000168295
0.000168388
0.000168481
0.000168566
0.000168657
0.000168733
0.000168822
)
;

boundaryField
{
    inlet
    {
        type            calculated;
        value           nonuniform List<scalar> 5(-0.000145991 -0.000148556 -0.00015112 -0.000153685 -0.000156249);
    }
    outlet
    {
        type            calculated;
        value           nonuniform 0();
    }
    wall
    {
        type            calculated;
        value           nonuniform 0();
    }
    wedge1
    {
        type            wedge;
        value           nonuniform List<scalar> 
344
(
1.21182e-16
3.5896e-17
4.01593e-17
-3.8233e-16
1.81436e-16
4.32336e-16
1.48344e-16
1.61992e-16
-1.25684e-15
6.14969e-16
7.20552e-16
2.5162e-16
2.72483e-16
-2.03662e-15
9.91657e-16
9.64782e-16
3.37222e-16
3.61563e-16
-2.64558e-15
1.27257e-15
1.15412e-15
4.01939e-16
4.26845e-16
-3.0752e-15
1.46381e-15
1.2916e-15
4.47942e-16
4.72188e-16
-3.36839e-15
1.59229e-15
1.38705e-15
4.79669e-16
5.0354e-16
-3.56977e-15
1.68267e-15
1.45155e-15
5.0135e-16
5.24905e-16
-3.71092e-15
1.74792e-15
1.49509e-15
5.17133e-16
5.42031e-16
-3.84375e-15
1.81648e-15
1.53787e-15
5.31944e-16
5.55124e-16
-3.88812e-15
1.82687e-15
1.52912e-15
5.27734e-16
5.48679e-16
-3.82082e-15
1.78766e-15
1.49242e-15
5.13363e-16
5.31337e-16
-3.68056e-15
1.714e-15
1.43517e-15
4.91996e-16
5.07098e-16
-3.49219e-15
1.619e-15
1.36532e-15
4.66282e-16
4.78352e-16
-3.28034e-15
1.51416e-15
1.2902e-15
4.3928e-16
4.49135e-16
-3.06503e-15
1.40943e-15
1.21583e-15
4.12852e-16
4.20606e-16
-2.86109e-15
1.31123e-15
1.14615e-15
3.88243e-16
3.94656e-16
-2.6768e-15
1.22379e-15
1.08357e-15
3.66372e-16
3.71535e-16
-2.51695e-15
1.14854e-15
1.02883e-15
3.47521e-16
3.52125e-16
-2.38122e-15
1.08554e-15
9.81354e-16
3.31123e-16
3.3507e-16
-2.26737e-15
1.0329e-15
9.40079e-16
3.17075e-16
3.20946e-16
-2.17025e-15
9.88685e-16
9.04223e-16
3.04971e-16
3.08421e-16
-2.08746e-15
9.51067e-16
8.72981e-16
2.94337e-16
2.97959e-16
-2.01662e-15
9.19238e-16
8.45597e-16
2.85195e-16
2.88543e-16
-1.95594e-15
8.91851e-16
8.20847e-16
2.76999e-16
2.8051e-16
-1.90161e-15
8.67668e-16
7.982e-16
2.69411e-16
2.72754e-16
-1.8515e-15
8.45209e-16
7.77191e-16
2.62347e-16
2.65882e-16
-1.8047e-15
8.24318e-16
7.58137e-16
2.56026e-16
2.59313e-16
-1.76216e-15
8.05197e-16
7.40047e-16
2.49973e-16
2.53508e-16
-1.72283e-15
7.87551e-16
7.22988e-16
2.44376e-16
2.47771e-16
-1.68466e-15
7.70406e-16
7.05899e-16
2.38524e-16
2.42078e-16
-1.64644e-15
7.53087e-16
6.90064e-16
2.33296e-16
2.3654e-16
-1.60898e-15
7.36201e-16
6.74459e-16
2.27906e-16
2.31361e-16
-1.57424e-15
7.20376e-16
6.6013e-16
2.23313e-16
2.26485e-16
-1.54148e-15
7.05658e-16
6.45051e-16
2.18075e-16
2.21495e-16
-1.5089e-15
6.90778e-16
6.30914e-16
2.13508e-16
2.16678e-16
-1.47503e-15
6.75479e-16
6.16282e-16
2.08305e-16
2.11601e-16
-1.44147e-15
6.60032e-16
6.03168e-16
2.04098e-16
2.07054e-16
-1.40974e-15
6.45672e-16
5.89169e-16
1.99209e-16
2.02422e-16
-1.37955e-15
6.31841e-16
5.76096e-16
1.95046e-16
1.97989e-16
-1.34944e-15
6.18297e-16
5.61792e-16
1.90041e-16
1.93156e-16
-1.3175e-15
6.03697e-16
5.49257e-16
1.85925e-16
1.88772e-16
-1.28631e-15
5.89397e-16
5.35309e-16
1.81046e-16
1.83986e-16
-1.25438e-15
5.74767e-16
5.23491e-16
1.77228e-16
1.79886e-16
-1.22616e-15
5.61789e-16
5.07965e-16
1.71936e-16
1.74862e-16
-1.19305e-15
5.46924e-16
1.61334e-16
4.96748e-16
1.68233e-16
1.70796e-16
-1.16509e-15
5.33974e-16
1.55515e-16
4.79524e-16
1.62396e-16
1.65104e-16
-1.12711e-15
5.16973e-16
1.53548e-16
4.72143e-16
1.59699e-16
1.6215e-16
-1.10429e-15
5.05779e-16
1.4615e-16
4.50918e-16
1.52786e-16
1.55431e-16
-1.06103e-15
4.86835e-16
1.45783e-16
4.48294e-16
1.51614e-16
1.53816e-16
-1.04675e-15
4.79045e-16
1.34843e-16
4.17159e-16
1.41676e-16
1.44385e-16
-9.87694e-16
4.54084e-16
1.388e-16
4.26058e-16
1.43814e-16
1.45611e-16
-9.89255e-16
4.5198e-16
1.22505e-16
3.80185e-16
1.29462e-16
1.32195e-16
-9.06632e-16
4.17904e-16
1.34795e-16
4.12034e-16
1.38488e-16
1.39563e-16
-9.43404e-16
4.29087e-16
1.0754e-16
3.36507e-16
1.15416e-16
1.18526e-16
-8.1746e-16
1.33182e-16
4.04617e-16
1.3514e-16
1.35311e-16
-9.08568e-16
8.72849e-17
2.78339e-16
9.69879e-17
1.00908e-16
-7.05975e-16
1.36861e-16
4.10647e-16
1.35511e-16
1.34255e-16
-8.90824e-16
6.26313e-17
2.08407e-16
7.51649e-17
8.03807e-17
-5.77061e-16
1.48307e-16
4.3848e-16
1.42362e-16
1.38854e-16
-9.06892e-16
3.08672e-17
1.20266e-16
4.83084e-17
5.56674e-17
-4.25382e-16
1.65914e-16
4.82298e-16
1.53743e-16
1.47382e-16
-9.46199e-16
-8.52378e-18
1.16671e-17
1.5506e-17
2.57866e-17
-2.4399e-16
1.9025e-16
5.43517e-16
1.69885e-16
1.5993e-16
-1.00939e-15
-4.90464e-17
-9.76292e-17
-1.74643e-17
-4.07858e-18
-6.33279e-17
2.17654e-16
6.13081e-16
1.88584e-16
1.7494e-16
-1.08847e-15
-8.68325e-17
-1.97654e-16
-4.70794e-17
-3.05954e-17
9.64223e-17
)
;
    }
    wedge2
    {
        type            wedge;
        value           nonuniform List<scalar> 
344
(
1.21273e-16
3.59018e-17
4.00984e-17
-3.82297e-16
1.8125e-16
4.32211e-16
1.48326e-16
1.62051e-16
-1.25692e-15
6.1517e-16
7.20674e-16
2.51632e-16
2.72403e-16
-2.03656e-15
9.91485e-16
9.64649e-16
3.37231e-16
3.61649e-16
-2.64545e-15
1.27252e-15
1.15428e-15
4.01969e-16
4.26979e-16
-3.07514e-15
1.46382e-15
1.29148e-15
4.4793e-16
4.72522e-16
-3.36824e-15
1.59247e-15
1.38698e-15
4.79722e-16
5.03606e-16
-3.56974e-15
1.68269e-15
1.45144e-15
5.01457e-16
5.2548e-16
-3.71076e-15
1.74815e-15
1.49508e-15
5.17045e-16
5.42115e-16
-3.84367e-15
1.81652e-15
1.53776e-15
5.32014e-16
5.5565e-16
-3.88792e-15
1.82706e-15
1.52907e-15
5.27669e-16
5.48935e-16
-3.82073e-15
1.78775e-15
1.49235e-15
5.13467e-16
5.3195e-16
-3.68034e-15
1.71421e-15
1.43515e-15
4.9197e-16
5.07292e-16
-3.49209e-15
1.61908e-15
1.36528e-15
4.66504e-16
4.79247e-16
-3.28004e-15
1.51441e-15
1.29024e-15
4.39395e-16
4.49558e-16
-3.06494e-15
1.40954e-15
1.2158e-15
4.12861e-16
4.2127e-16
-2.86076e-15
1.3115e-15
1.14615e-15
3.88364e-16
3.95167e-16
-2.67668e-15
1.22392e-15
1.0836e-15
3.66523e-16
3.72454e-16
-2.51657e-15
1.1488e-15
1.02887e-15
3.47479e-16
3.52549e-16
-2.3813e-15
1.0857e-15
9.81414e-16
3.31286e-16
3.3612e-16
-2.26699e-15
1.03316e-15
9.4019e-16
3.17181e-16
3.21536e-16
-2.17028e-15
9.88822e-16
9.04284e-16
3.04912e-16
3.09343e-16
-2.08731e-15
9.51277e-16
8.73135e-16
2.94495e-16
2.98588e-16
-2.01669e-15
9.19327e-16
8.45702e-16
2.85292e-16
2.89651e-16
-1.95571e-15
8.92108e-16
8.21054e-16
2.77027e-16
2.81283e-16
-1.90161e-15
8.67806e-16
7.98274e-16
2.69449e-16
2.73892e-16
-1.85128e-15
8.45392e-16
7.77499e-16
2.62531e-16
2.66749e-16
-1.80467e-15
8.24461e-16
7.58222e-16
2.56079e-16
2.60541e-16
-1.76196e-15
8.05324e-16
7.40487e-16
2.50273e-16
2.54544e-16
-1.72272e-15
7.87691e-16
7.23019e-16
2.44418e-16
2.4886e-16
-1.68463e-15
7.70547e-16
7.06465e-16
2.38993e-16
2.43186e-16
-1.64627e-15
7.53287e-16
6.90089e-16
2.33357e-16
2.37701e-16
-1.60898e-15
7.36288e-16
6.75211e-16
2.28539e-16
2.32576e-16
-1.57404e-15
7.20521e-16
6.60168e-16
2.23398e-16
2.27722e-16
-1.54146e-15
7.05698e-16
6.45937e-16
2.18899e-16
2.22966e-16
-1.50855e-15
6.90971e-16
6.30993e-16
2.1367e-16
2.17847e-16
-1.47493e-15
6.75579e-16
6.17285e-16
2.09257e-16
2.13085e-16
-1.44109e-15
6.60241e-16
6.03383e-16
2.04365e-16
2.08374e-16
-1.40959e-15
6.45731e-16
5.90266e-16
2.00261e-16
2.03997e-16
-1.37909e-15
6.32075e-16
5.76499e-16
1.95514e-16
1.99512e-16
-1.34916e-15
6.18449e-16
5.62964e-16
1.9118e-16
1.949e-16
-1.31698e-15
6.0395e-16
5.49868e-16
1.86549e-16
1.90272e-16
-1.28592e-15
5.8962e-16
5.36494e-16
1.82234e-16
1.85699e-16
-1.25381e-15
5.75023e-16
5.24248e-16
1.77973e-16
1.81583e-16
-1.22567e-15
5.62079e-16
5.09256e-16
1.7324e-16
1.76668e-16
-1.19238e-15
5.47233e-16
1.64057e-16
4.97719e-16
1.69153e-16
1.72687e-16
-1.1645e-15
5.34319e-16
1.58684e-16
4.80877e-16
1.63685e-16
1.6706e-16
-1.12641e-15
5.17302e-16
1.56155e-16
4.73182e-16
1.60838e-16
1.6387e-16
-1.10368e-15
5.06142e-16
1.49347e-16
4.52358e-16
1.542e-16
1.57388e-16
-1.06031e-15
4.87161e-16
1.48556e-16
4.49451e-16
1.52793e-16
1.55627e-16
-1.04613e-15
4.79407e-16
1.38294e-16
4.18717e-16
1.43174e-16
1.46473e-16
-9.86913e-16
4.54391e-16
1.41706e-16
4.27308e-16
1.4508e-16
1.47515e-16
-9.88552e-16
4.52437e-16
1.26206e-16
3.81889e-16
1.31057e-16
1.34434e-16
-9.05762e-16
4.18243e-16
1.37706e-16
4.13295e-16
1.39731e-16
1.41434e-16
-9.42742e-16
4.29548e-16
1.11488e-16
3.38349e-16
1.17105e-16
1.20891e-16
-8.16557e-16
1.36118e-16
4.05917e-16
1.36364e-16
1.37157e-16
-9.07921e-16
9.17542e-17
2.80461e-16
9.88718e-17
1.03597e-16
-7.04891e-16
1.39522e-16
4.11924e-16
1.36719e-16
1.35848e-16
-8.9021e-16
6.74989e-17
2.10785e-16
7.7214e-17
8.32477e-17
-5.75866e-16
1.50919e-16
4.39767e-16
1.43545e-16
1.40372e-16
-9.06301e-16
3.617e-17
1.22873e-16
5.052e-17
5.87787e-17
-4.24038e-16
1.68378e-16
4.83522e-16
1.54874e-16
1.488e-16
-9.45687e-16
-2.70649e-18
1.46024e-17
1.79176e-17
2.91648e-17
-2.42541e-16
1.92772e-16
5.44863e-16
1.71102e-16
1.61362e-16
-1.00881e-15
-4.28126e-17
-9.44647e-17
-1.49196e-17
-4.6349e-19
-6.17172e-17
2.20103e-16
6.14424e-16
1.89842e-16
1.76301e-16
-1.08786e-15
-8.0344e-17
-1.94365e-16
-4.44879e-17
-2.6883e-17
9.80337e-17
)
;
    }
    axis
    {
        type            empty;
        value           nonuniform 0();
    }
    procBoundary30to24
    {
        type            processor;
        value           nonuniform List<scalar> 
68
(
2.44326e-06
2.35677e-06
2.32398e-06
2.21248e-06
2.20667e-06
2.0391e-06
2.10325e-06
1.84957e-06
2.04711e-06
1.61641e-06
2.03105e-06
1.30045e-06
2.10205e-06
9.11153e-07
2.30326e-06
4.03562e-07
2.6103e-06
-2.28565e-07
3.03723e-06
-8.90997e-07
3.51856e-06
-1.51502e-06
8.73117e-07
2.55283e-06
4.07482e-06
5.34637e-06
6.30584e-06
6.97711e-06
7.42077e-06
7.69581e-06
7.83654e-06
7.8506e-06
7.7404e-06
7.51777e-06
7.20939e-06
6.85033e-06
6.474e-06
6.10675e-06
5.76622e-06
5.46212e-06
5.19686e-06
4.96701e-06
4.76708e-06
4.59269e-06
4.44028e-06
4.30541e-06
4.18309e-06
4.07013e-06
3.96576e-06
3.86934e-06
3.77859e-06
3.6909e-06
3.60559e-06
3.52393e-06
3.44624e-06
3.37091e-06
3.29572e-06
3.22151e-06
3.1493e-06
3.08008e-06
3.01006e-06
2.94082e-06
2.86922e-06
2.80374e-06
2.7333e-06
2.67126e-06
-0.000152846
2.59161e-06
)
;
    }
    procBoundary30to25
    {
        type            processor;
        value           uniform 0.000154349;
    }
    procBoundary30to31
    {
        type            processor;
        value           nonuniform List<scalar> 4(0.000157347 0.000160377 0.000163442 0.000166541);
    }
    procBoundary30to36
    {
        type            processor;
        value           nonuniform List<scalar> 
68
(
-2.04662e-06
-2.25161e-06
-1.77455e-06
-2.19676e-06
-1.46259e-06
-2.22153e-06
-1.09949e-06
-2.30255e-06
-6.68713e-07
-2.4415e-06
-2.40185e-07
-2.62108e-06
1.46732e-07
-1.49378e-06
-4.27177e-06
-6.57014e-06
-8.13672e-06
-9.12502e-06
-9.75865e-06
-1.02121e-05
-1.05173e-05
-1.06204e-05
-1.0492e-05
-1.01496e-05
-9.64951e-06
-9.05789e-06
-8.43448e-06
-7.82839e-06
-7.27346e-06
-6.78835e-06
-6.37911e-06
-6.04079e-06
-5.7613e-06
-5.5274e-06
-5.32947e-06
-5.16144e-06
-5.01693e-06
-4.88756e-06
-4.76658e-06
-4.65265e-06
-4.54751e-06
-4.44988e-06
-4.35446e-06
-4.25784e-06
-4.16292e-06
-4.07423e-06
-3.99111e-06
-3.90767e-06
-3.82106e-06
-3.73406e-06
-3.6523e-06
-3.57444e-06
-3.49734e-06
-3.41473e-06
-3.33304e-06
-3.24974e-06
-3.17537e-06
-3.09098e-06
-3.01642e-06
-2.92001e-06
-2.85403e-06
-2.74738e-06
-2.69932e-06
-2.56129e-06
-2.54255e-06
-2.35669e-06
0.000168883
-2.40665e-06
)
;
    }
}


// ************************************************************************* //
