/*--------------------------------*- C++ -*----------------------------------*\
  =========                 |
  \\      /  F ield         | OpenFOAM: The Open Source CFD Toolbox
   \\    /   O peration     | Website:  https://openfoam.org
    \\  /    A nd           | Version:  7
     \\/     M anipulation  |
\*---------------------------------------------------------------------------*/
FoamFile
{
    version     2.0;
    format      ascii;
    class       volScalarField;
    location    "2";
    object      p;
}
// * * * * * * * * * * * * * * * * * * * * * * * * * * * * * * * * * * * * * //

dimensions      [0 2 -2 0 0 0 0];

internalField   nonuniform List<scalar> 
344
(
-0.0103811
0.0339264
0.0661629
0.0907154
0.107684
0.116613
0.118486
0.115264
0.10891
0.100936
0.092358
0.0838047
0.0756393
0.0680523
0.0611268
0.0548811
0.0492963
0.0443323
0.0399387
0.0360611
0.032645
0.029638
0.0269912
0.0246601
0.0226041
0.0207872
0.0191774
0.0177468
0.0164705
0.0153272
0.0142982
0.0133674
0.0125207
0.0117463
0.0110336
0.0103738
0.00975929
0.00918342
0.00864059
0.00812599
0.00763548
0.00716555
0.00671316
0.00627573
0.00585106
0.00543724
0.00503266
0.00463593
0.00424586
0.00386142
0.00348175
0.00310608
0.00273375
0.00236419
0.0019969
0.00163144
0.00126742
0.000904478
0.000542324
0.000180676
-1.73075
-1.32083
-0.937565
-0.617266
-0.382693
-0.225747
-0.12428
-0.0579959
-0.0120518
0.0222368
0.0482595
0.0666786
0.0779001
0.0830188
0.0835706
0.0810614
0.0767119
0.0714067
0.0657413
0.0600928
0.0546858
0.0496428
0.0450206
0.0408343
0.0370744
0.0337168
0.03073
0.0280793
0.0257295
0.0236468
0.0217993
0.0201578
0.018696
0.0173904
0.0162199
0.0151662
0.0142133
0.013347
0.0125553
0.0118275
0.0111546
0.0105286
0.00994293
0.00939163
0.00886976
0.00837305
0.00789781
0.00744093
0.0069997
0.00657183
0.00615535
0.00574858
0.00535007
0.00495859
0.00457309
0.00419265
0.00381651
0.00344398
0.00307449
0.00270754
0.0023427
0.00197958
0.00161785
0.0012572
0.00089738
0.000538153
0.000179309
-1.78465
-1.36503
-0.980261
-0.666391
-0.439175
-0.285691
-0.183596
-0.113703
-0.0631696
-0.0249914
0.00395712
0.025037
0.0392767
0.0478829
0.0521769
0.0533955
0.0525638
0.0504617
0.0476479
0.0445031
0.0412761
0.0381218
0.0351307
0.0323507
0.0298014
0.0274849
0.0253928
0.0235103
0.0218198
0.0203024
0.0189395
0.0177131
0.0166067
0.0156052
0.0146949
0.0138638
0.0131011
0.0123975
0.0117447
0.0111356
0.0105641
0.0100247
0.00951297
0.00902481
0.00855684
0.00810614
0.0076702
0.00724685
0.00683427
0.00643087
0.00603529
0.00564637
0.00526314
0.00488474
0.00451043
0.00413961
0.00377172
0.00340632
0.003043
0.00268142
0.00232128
0.00196232
0.0016043
0.00124702
0.000890307
0.000533997
0.000177948
-1.82506
-1.39419
-1.01379
-0.714933
-0.499764
-0.35034
-0.246069
-0.17112
-0.115303
-0.0727462
-0.0402448
-0.0159031
0.00169923
0.0138558
0.0217799
0.02655
0.0290622
0.0300191
0.0299469
0.029225
0.028119
0.0268096
0.0254166
0.0240167
0.0226569
0.021364
0.0201517
0.0190246
0.0179822
0.0170205
0.0161337
0.015315
0.0145577
0.0138548
0.0131999
0.0125872
0.0120112
0.011467
0.0109505
0.0104578
0.00998564
0.00953115
0.00909184
0.00866554
0.00825038
0.00784477
0.00744731
0.00705683
0.0066723
0.00629285
0.00591774
0.00554632
0.00517804
0.00481244
0.0044491
0.00408769
0.00372789
0.00336947
0.00301219
0.00265586
0.00230033
0.00194543
0.00159105
0.00123707
0.00088339
0.000529933
0.000176616
-1.82406
-1.39655
-1.03751
-0.761211
-0.558835
-0.412559
-0.305813
-0.226304
-0.16581
-0.11912
-0.0829622
-0.0551646
-0.0341113
-0.0184677
-0.00708313
0.00102434
0.00666682
0.0104924
0.0130021
0.014573
0.0154835
0.015935
0.0160718
0.0159961
0.0157794
0.0154713
0.0151059
0.0147064
0.0142883
0.0138619
0.0134338
0.0130079
0.0125866
0.0121713
0.0117623
0.0113597
0.0109633
0.0105726
0.0101871
0.00980634
0.00942976
0.00905688
0.00868722
0.00832038
0.00795599
0.0075937
0.00723322
0.00687431
0.00651674
0.00616031
0.00580486
0.00545024
0.00509633
0.00474303
0.00439022
0.00403785
0.00368583
0.0033341
0.00298262
0.00263134
0.00228022
0.00192923
0.00157834
0.00122752
0.000876759
0.000526037
0.000175342
-1.79211
-1.38676
-1.05665
-0.802301
-0.611199
-0.468143
-0.360134
-0.277449
-0.213258
-0.16291
-0.123245
-0.0920352
-0.0676103
-0.0486364
-0.0340089
-0.0228076
)
;

boundaryField
{
    inlet
    {
        type            zeroGradient;
    }
    outlet
    {
        type            fixedValue;
        value           uniform 0;
    }
    wall
    {
        type            zeroGradient;
    }
    wedge1
    {
        type            wedge;
    }
    wedge2
    {
        type            wedge;
    }
    axis
    {
        type            empty;
    }
    procBoundary17to11
    {
        type            processor;
        value           nonuniform List<scalar> 
68
(
0.0238789
0.0706109
0.103798
0.128952
0.146167
0.153961
0.153107
0.146243
0.136063
0.124492
0.1127
0.101338
0.0907393
0.08105
0.0723092
0.0644962
0.0575584
0.051427
0.0460268
0.041282
0.0371194
0.0334706
0.0302724
0.0274679
0.0250058
0.0228409
0.020933
0.019247
0.0177523
0.0164221
0.0152332
0.0141658
0.0132024
0.0123281
0.0115302
0.0107976
0.0101209
0.00949194
0.00890377
0.00835045
0.00782689
0.00732872
0.00685221
0.00639418
0.00595189
0.00552301
0.00510554
0.00469777
0.00429822
0.00390563
0.00351893
0.00313717
0.00275955
0.00238535
0.00201396
0.00164483
0.00127748
0.000911468
0.000546432
0.000182022
-1.63736
-1.25266
-0.886989
-0.571719
-0.33656
-0.179013
-0.0767275
-0.0767275
)
;
    }
    procBoundary17to16
    {
        type            processor;
        value           nonuniform List<scalar> 4(-2.14966 -2.21755 -2.27185 -2.28691);
    }
    procBoundary17to22
    {
        type            processor;
        value           uniform -2.25175;
    }
    procBoundary17to23
    {
        type            processor;
        value           nonuniform List<scalar> 
68
(
-0.0142755
-0.0078014
-0.00290187
0.000798902
0.00358914
0.00568764
0.00725944
0.0084286
0.0092883
0.00990863
0.0103425
0.0106299
0.0108015
0.0108808
0.0108858
0.0108309
0.0107271
0.0105833
0.0104064
0.0102022
0.00997529
0.00972937
0.00946755
0.00919237
0.00890593
0.00860998
0.008306
0.00799522
0.00767866
0.0073572
0.00703158
0.00670241
0.00637024
0.0060355
0.00569857
0.00535978
0.00501941
0.00467768
0.0043348
0.00399093
0.00364624
0.00330082
0.00295481
0.00260828
0.00226132
0.00191401
0.0015664
0.00121855
0.000870525
0.00052237
0.000174135
-1.75364
-1.37176
-1.06358
-0.824083
-0.640789
-0.500622
-0.392657
-0.3086
-0.242446
-0.189947
-0.1481
-0.114724
-0.0881666
-0.0671111
-0.0504804
-0.0142755
-0.0373842
)
;
    }
}


// ************************************************************************* //
