/*--------------------------------*- C++ -*----------------------------------*\
  =========                 |
  \\      /  F ield         | OpenFOAM: The Open Source CFD Toolbox
   \\    /   O peration     | Website:  https://openfoam.org
    \\  /    A nd           | Version:  7
     \\/     M anipulation  |
\*---------------------------------------------------------------------------*/
FoamFile
{
    version     2.0;
    format      ascii;
    class       surfaceScalarField;
    location    "12";
    object      phi;
}
// * * * * * * * * * * * * * * * * * * * * * * * * * * * * * * * * * * * * * //

dimensions      [0 3 -1 0 0 0 0];

internalField   nonuniform List<scalar> 
817
(
-0.00205745
0.00159057
0.00147899
-0.00199137
-0.00218964
0.00161118
0.00149709
0.00162557
0.00571525
0.00184436
0.00548244
0.00184399
0.00523798
0.00183503
0.00498434
0.00181841
0.00179508
0.006459
0.00203607
0.00625038
0.00205262
0.00602661
0.0020588
0.00578972
0.0020553
0.00554186
0.00204294
0.0052852
0.00202257
0.00502171
0.00199502
0.00196094
0.00716088
0.00219546
0.00698235
0.00223115
0.00678576
0.00225539
0.00657251
0.00226855
0.00634429
0.00227116
0.00610296
0.0022639
0.00585049
0.0022475
0.00558879
0.00222264
0.00531931
0.00218825
0.00213878
0.00781149
0.00231814
0.00766883
0.00237381
0.00750653
0.00241769
0.00732532
0.00244976
0.00712627
0.0024702
0.00691081
0.00247936
0.00668058
0.00247773
0.00643731
0.00246592
0.00618221
0.00244334
0.00591474
0.00240626
0.00236624
0.00840381
0.00240211
0.00830044
0.00247718
0.00817733
0.0025408
0.00803448
0.00259262
0.00787225
0.00263243
0.00769139
0.00266022
0.00749292
0.00267619
0.00727807
0.00268077
0.00704772
0.00267369
0.00680158
0.00265239
0.0026282
0.0089331
0.00244849
0.00886918
0.00254109
0.00878682
0.00262317
0.00868536
0.00269408
0.00856447
0.00275332
0.00842415
0.00280055
0.00826471
0.00283564
0.0080867
0.00285877
0.00789063
0.00286977
0.00767629
0.00286673
0.00285985
0.00940123
0.00246095
0.00937407
0.00256826
0.0093309
0.00266634
0.0092706
0.00275438
0.00919224
0.00283168
0.00909516
0.00289763
0.00897896
0.00295183
0.00884355
0.00299418
0.0086889
0.00302442
0.00851464
0.00304099
0.00305242
0.00981535
0.00244482
0.0098201
0.00256351
0.00981201
0.00267442
0.00978967
0.00277672
0.00975179
0.00286956
0.00969721
0.00295221
0.00962498
0.00302406
0.0095344
0.00308476
0.00942494
0.00313389
0.00929589
0.00317003
0.00319986
0.0101856
0.0024062
0.0102163
0.00253286
0.0102375
0.00265319
0.0102479
0.00276637
0.0102459
0.00287157
0.0102301
0.00296797
0.0101993
0.00305488
0.0101523
0.00313177
0.0100881
0.00319805
0.0100057
0.0032524
0.00329961
0.0105236
0.002351
0.0105739
0.00248254
0.0106181
0.00260902
0.0106547
0.00272971
0.0106825
0.00284383
0.0106998
0.00295063
0.0107053
0.00304936
0.0106977
0.00313941
0.0106757
0.0032201
0.0106379
0.00329016
0.00335268
0.0108402
0.00228442
0.0109045
0.00241823
0.0109655
0.00254802
0.011022
0.00267317
0.0110729
0.002793
0.0111166
0.00290683
0.011152
0.00301398
0.0111776
0.00311381
0.0111921
0.00320562
0.0111941
0.00328821
0.00336322
0.011145
0.00221057
0.0112186
0.00234464
0.0112911
0.00247547
0.0113617
0.00260255
0.0114294
0.00272532
0.011493
0.0028432
0.0115514
0.0029556
0.0116033
0.00306192
0.0116475
0.00316148
0.0116825
0.00325317
0.00333753
0.0114456
0.0021325
0.0115249
0.00226536
0.0116048
0.00239553
0.0116848
0.00252259
0.011764
0.00264611
0.0118416
0.00276559
0.0119166
0.00288056
0.0119881
0.00299047
0.0120549
0.00309471
0.0121157
0.00319228
0.0032829
0.0117477
0.00205229
0.0118301
0.00218292
0.0119144
0.00231122
0.0120002
0.00243687
0.0120868
0.0025595
0.0121736
0.00267873
0.01226
0.00279416
0.0123452
0.00290533
0.0124282
0.0030117
0.0125081
0.00311237
0.0032065
0.0120552
0.00197127
0.0121392
0.00209898
0.0122258
0.00222461
0.0123148
0.00234787
0.0124058
0.00246848
0.0124984
0.00258613
0.0125921
0.00270048
0.0126863
0.00281115
0.0127803
0.00291767
0.0128734
0.00301924
0.00311469
0.0123709
0.00189023
0.0124553
0.00201456
0.0125429
0.00213697
0.0126336
0.00225721
0.012727
0.00237503
0.012823
0.00249019
0.0129211
0.0026024
0.0130209
0.00271133
0.013122
0.00281657
0.0132238
0.00291742
0.00301254
0.0126964
0.00180958
0.0127807
0.00193024
0.0128686
0.00204907
0.0129599
0.00216586
0.0130546
0.0022804
0.0131523
0.00239247
0.0132529
0.00250182
0.013356
0.00260818
0.0134614
0.00271117
0.0135687
0.00281018
0.0029038
0.0130329
0.00172953
0.0131168
0.0018463
0.0132046
0.00196131
0.0132961
0.00207437
0.0133912
0.0021853
0.0134898
0.00229389
0.0135917
0.00239993
0.0136967
0.00250317
0.0138046
0.00260327
0.0139151
0.00269969
0.00279103
0.0133812
0.00165015
0.0134646
0.00176286
0.0135521
0.00187387
0.0136434
0.00198301
0.0137386
0.0020901
0.0138376
0.00219496
0.0139401
0.00229738
0.0140461
0.00239715
0.0141555
0.00249396
0.0142678
0.0025873
0.00267587
0.013742
0.00157144
0.0138249
0.00167996
0.0139119
0.00178683
0.014003
0.00189189
0.0140982
0.00199498
0.0141972
0.00209593
0.0143
0.00219454
0.0144066
0.00229061
0.0145167
0.00238385
0.0146302
0.00247382
0.00255929
0.0141158
0.00149335
0.0141982
0.00159756
0.0142848
0.00170018
0.0143757
0.00180104
0.0144706
0.00190001
0.0145697
0.0019969
0.0146727
0.00209155
0.0147795
0.00218376
0.0148901
0.00227326
0.0150042
0.00235967
0.00244182
0.0145032
0.00141584
0.0145851
0.00151563
0.0146714
0.00161388
0.014762
0.00171044
0.0148568
0.00180517
0.0149558
0.0018979
0.0150589
0.00198848
0.015166
0.00207671
0.0152769
0.00216235
0.0153915
0.00224504
0.00232375
0.0149048
0.00133884
0.0149863
0.00143411
0.0150723
0.00152789
0.0151627
0.00162005
0.0152575
0.00171044
0.0153564
0.00179891
0.0154596
0.00188531
0.0155668
0.00196947
0.015678
0.00205115
0.015793
0.00213003
0.00220517
0.0153214
0.00126229
0.0154026
0.00135292
0.0154884
0.00144214
0.0155786
0.0015298
0.0156733
0.00161576
0.0157723
0.00169989
0.0158756
0.00178203
0.0159831
0.00186202
0.0160945
0.00193966
0.0162099
0.00201463
0.00208611
0.0157539
0.0011861
0.0158348
0.00127201
0.0159204
0.00135656
0.0160105
0.00143963
0.0161052
0.00152107
0.0162043
0.00160076
0.0163078
0.00167856
0.0164155
0.00175431
0.0165274
0.00182782
0.0166432
0.00189882
0.00196656
0.016203
0.00111019
0.0162837
0.00119127
0.0163692
0.00127107
0.0164594
0.00134945
0.0165542
0.00142629
0.0166535
0.00150146
0.0167572
0.00157483
0.0168653
0.00164627
0.0169775
0.00171558
0.0170938
0.00178252
0.00184644
0.0166699
0.00103447
0.0167505
0.00111063
0.016836
0.00118557
0.0169263
0.00125917
0.0170213
0.00133131
0.0171209
0.00140188
0.0172249
0.00147075
0.0173334
0.00153779
0.0174462
0.00160282
0.017563
0.00166565
0.00172568
0.0171556
0.000958847
0.0172363
0.00102998
0.0173219
0.00109996
0.0174124
0.00116869
0.0175077
0.00123604
0.0176076
0.00130192
0.0177122
0.0013662
0.0178212
0.00142876
0.0179346
0.00148945
0.0180522
0.00154808
0.00160413
0.0176615
0.000883199
0.0177423
0.000949197
0.0178281
0.00101412
0.017919
0.00107787
0.0180147
0.00114035
0.0181151
0.00120144
0.0182203
0.00126104
0.01833
0.00131905
0.0184441
0.00137531
0.0185625
0.00142967
0.00148168
0.0181888
0.0008074
0.0182699
0.000868153
0.0183561
0.000927912
0.0184474
0.000986584
0.0185437
0.00104408
0.0186448
0.00110029
0.0187507
0.00115513
0.0188613
0.00120849
0.0189763
0.00126025
0.0190958
0.00131025
0.00135813
0.0187391
0.000731311
0.0188206
0.000786699
0.0189073
0.000841178
0.0189992
0.000894663
0.0190962
0.000947065
0.0191982
0.0009983
0.0193051
0.00104828
0.0194167
0.0010969
0.0195328
0.00114407
0.0196535
0.00118963
0.00123329
0.0193139
0.000654772
0.019396
0.000704671
0.0194834
0.000753748
0.0195761
0.000801926
0.0196741
0.000849128
0.0197771
0.000895273
0.0198851
0.000940284
0.0199979
0.000984074
0.0201154
0.00102654
0.0202375
0.00106758
0.00110692
0.0199151
0.000577608
0.0199978
0.000621883
0.0200862
0.000665427
0.0201799
0.000708173
0.020279
0.000750049
0.0203833
0.000790988
0.0204926
0.000830917
0.020607
0.000869762
0.0207261
0.000907436
0.0208498
0.000943843
0.00097876
0.0205444
0.000499624
0.0206282
0.000538128
0.0207176
0.000575998
0.0208126
0.000613173
0.0209131
0.000649591
0.0210189
0.000685192
0.0211299
0.000719915
0.0212459
0.000753695
0.0213669
0.000786457
0.0214926
0.00081812
0.000848504
0.0212042
0.000420599
0.0212892
0.000453177
0.0213799
0.000485217
0.0214764
0.00051667
0.0215785
0.000547483
0.0216861
0.000577605
0.0217991
0.000606985
0.0219172
0.000635567
0.0220404
0.000663288
0.0221684
0.000690083
0.000715807
0.0218967
0.000340288
0.0219831
0.000366766
0.0220756
0.00039281
0.0221738
0.000418376
0.0222779
0.000443423
0.0223876
0.000467909
0.0225028
0.000491793
0.0226233
0.000515029
0.0227491
0.000537567
0.0228798
0.000559355
0.000580281
0.0226247
0.000258414
0.0227129
0.000278605
0.0228072
0.000298466
0.0229076
0.000317964
0.023014
0.000337068
0.0231262
0.000355745
0.023244
0.000373964
0.0233673
0.00039169
0.023496
0.000408885
0.0236298
0.000425511
0.000441485
0.0233911
0.000174661
0.0234814
0.000188358
0.023578
0.000201832
0.0236809
0.000215062
0.02379
0.000228025
0.023905
0.0002407
0.0240259
0.000253065
0.0241525
0.000265097
0.0242846
0.000276771
0.0244221
0.00028806
0.000298911
0.0241996
8.86692e-05
0.0242923
9.56452e-05
0.0243916
0.000102508
0.0244974
0.000109248
0.0246096
0.000115852
0.024728
0.00012231
0.0248524
0.000128611
0.0249828
0.000134743
0.0251189
0.000140694
0.0252605
0.000146449
0.000151984
0.0250538
0.0251494
0.0252519
0.0253612
0.025477
0.0255993
0.025728
0.0258627
0.0260034
0.0261498
)
;

boundaryField
{
    inlet
    {
        type            calculated;
        value           nonuniform 0();
    }
    outlet
    {
        type            calculated;
        value           nonuniform 0();
    }
    cylinder
    {
        type            calculated;
        value           nonuniform 0();
    }
    top
    {
        type            symmetryPlane;
        value           uniform 0;
    }
    bottom
    {
        type            symmetryPlane;
        value           nonuniform 0();
    }
    defaultFaces
    {
        type            empty;
        value           nonuniform 0();
    }
    procBoundary33to26
    {
        type            processor;
        value           nonuniform List<scalar> 9(-0.00211534 -0.00231812 -0.00593404 -0.00665071 -0.00732028 -0.00793417 -0.00848778 -0.00897948 -0.00941369);
    }
    procBoundary33to27
    {
        type            processor;
        value           nonuniform List<scalar> 
16
(
-0.00153468
0.00192241
-0.00156477
-0.00145553
0.00186436
-0.00135198
-0.00137312
0.00472394
-0.0017659
-0.00173154
-0.00169238
0.00475315
-0.00191877
-0.00186077
0.0050413
-0.00208453
)
;
    }
    procBoundary33to28
    {
        type            processor;
        value           nonuniform List<scalar> 
15
(
0.00563302
0.00653962
0.00744464
0.00832208
0.00914844
0.00990599
0.0105848
0.0111835
0.0117082
0.0121704
0.0125845
0.0129653
0.0133259
0.0136774
0.0140278
)
;
    }
    procBoundary33to32
    {
        type            processor;
        value           nonuniform List<scalar> 
33
(
-0.00979922
-0.010147
-0.0104684
-0.0107736
-0.0110711
-0.0113675
-0.0116675
-0.0119742
-0.0122898
-0.0126157
-0.0129528
-0.0133018
-0.0136633
-0.0140377
-0.0144257
-0.0148278
-0.0152449
-0.0156777
-0.0161271
-0.0165942
-0.01708
-0.0175859
-0.018113
-0.018663
-0.0192374
-0.0198379
-0.0204664
-0.0211252
-0.0218164
-0.0225428
-0.0233074
-0.0241136
-0.0249651
)
;
    }
    procBoundary33to34
    {
        type            processor;
        value           nonuniform List<scalar> 
22
(
0.014383
0.0147468
0.0151217
0.0155096
0.0159116
0.016329
0.0167627
0.0172139
0.0176838
0.0181737
0.018685
0.0192193
0.0197783
0.0203638
0.020978
0.0216229
0.0223011
0.0230153
0.0237686
0.0245646
0.0254074
0.0263018
)
;
    }
}


// ************************************************************************* //
