/*--------------------------------*- C++ -*----------------------------------*\
  =========                 |
  \\      /  F ield         | OpenFOAM: The Open Source CFD Toolbox
   \\    /   O peration     | Website:  https://openfoam.org
    \\  /    A nd           | Version:  7
     \\/     M anipulation  |
\*---------------------------------------------------------------------------*/
FoamFile
{
    version     2.0;
    format      ascii;
    class       volVectorField;
    location    "8";
    object      U;
}
// * * * * * * * * * * * * * * * * * * * * * * * * * * * * * * * * * * * * * //

dimensions      [0 1 -1 0 0 0 0];

internalField   nonuniform List<vector> 
433
(
(0.149574 0.020661 4.01967e-19)
(0.168403 0.0220044 1.10655e-19)
(0.143432 0.0151937 -2.27472e-18)
(0.16247 0.0147183 2.64354e-18)
(0.18399 0.0154772 -5.11526e-19)
(0.206073 0.0169993 1.11276e-18)
(0.175997 0.0114938 -1.38095e-18)
(0.197844 0.0107007 3.72697e-18)
(0.222784 0.0111086 -1.11831e-18)
(0.248783 0.0125682 3.44953e-19)
(0.266532 0.00912525 2.6382e-19)
(0.29755 0.0100863 -1.54763e-18)
(0.352784 0.0136145 -4.04932e-18)
(0.151294 0.0226683 1.15494e-19)
(0.166083 0.0088537 2.70059e-19)
(0.188946 0.000512983 -1.80166e-19)
(0.207902 -0.00910479 2.80116e-19)
(0.225797 -0.0185562 -4.68486e-19)
(0.188326 0.0171479 2.3593e-19)
(0.205614 0.00369241 5.8674e-19)
(0.229702 -0.00416934 -1.53679e-19)
(0.249303 -0.0130405 -4.17769e-19)
(0.266933 -0.0218153 1.95197e-19)
(0.282805 -0.0325892 -7.76595e-20)
(0.297808 -0.0433676 1.95104e-19)
(0.312068 -0.0547085 -3.96154e-20)
(0.325704 -0.0664797 -4.73422e-20)
(0.338807 -0.0785454 -3.01946e-19)
(0.351382 -0.0906757 3.11879e-20)
(0.363419 -0.102609 2.1807e-19)
(0.37488 -0.11403 -3.62726e-20)
(0.385739 -0.124595 -3.36103e-20)
(0.395989 -0.133942 7.43829e-20)
(0.405665 -0.141708 -3.66826e-20)
(0.41485 -0.147547 2.10797e-20)
(0.42369 -0.151151 -5.44724e-20)
(0.23016 0.0111827 -1.18598e-18)
(0.250172 -0.00177764 3.34494e-19)
(0.274473 -0.00850684 4.75998e-19)
(0.293824 -0.0163091 -1.88743e-19)
(0.310711 -0.0251694 -1.37185e-19)
(0.325685 -0.0350885 -2.42165e-19)
(0.339891 -0.0454341 1.4939e-19)
(0.353287 -0.0564654 -8.32965e-20)
(0.366025 -0.0680051 6.42922e-20)
(0.378182 -0.0798964 1.46198e-20)
(0.389766 -0.0919028 -8.52897e-20)
(0.400764 -0.103756 -7.55984e-20)
(0.411142 -0.115138 1.98228e-19)
(0.420879 -0.125706 -1.01622e-19)
(0.42997 -0.135098 1.01869e-19)
(0.438455 -0.142953 -9.44808e-21)
(0.446418 -0.148926 -2.70042e-20)
(0.454006 -0.152708 1.70581e-20)
(0.277652 0.00401695 2.13844e-18)
(0.300306 -0.00695731 -6.82935e-19)
(0.323685 -0.0121562 -3.91638e-19)
(0.341399 -0.0187385 -5.43733e-19)
(0.356725 -0.0278251 3.19104e-19)
(0.370493 -0.0370905 3.12719e-19)
(0.383462 -0.0470585 1.10007e-19)
(0.395682 -0.0577837 -6.73667e-19)
(0.407269 -0.069091 1.02101e-19)
(0.418277 -0.0808078 2.50342e-19)
(0.428703 -0.0926926 6.9793e-20)
(0.438529 -0.104471 8.34086e-21)
(0.447718 -0.115825 -2.10666e-19)
(0.456249 -0.12641 7.96151e-20)
(0.464122 -0.135865 3.1524e-20)
(0.471375 -0.143828 1.55353e-19)
(0.478095 -0.149955 -1.55346e-19)
(0.484425 -0.153935 -4.17425e-21)
(0.332138 -0.00142909 -2.2888e-19)
(0.356882 -0.00911742 1.45577e-19)
(0.37719 -0.0131301 -2.50273e-19)
(0.391894 -0.0196409 8.45507e-19)
(0.40485 -0.0288155 -3.60726e-19)
(0.416945 -0.0378206 6.13921e-19)
(0.428307 -0.0475683 -3.87565e-19)
(0.439048 -0.0580933 -1.58707e-19)
(0.449241 -0.0692494 5.32008e-20)
(0.4589 -0.0808615 -7.69571e-20)
(0.468006 -0.0926891 -6.44821e-20)
(0.476528 -0.104456 2.52512e-19)
(0.484425 -0.115844 -1.71972e-19)
(0.491674 -0.126507 9.35196e-20)
(0.498272 -0.136085 -9.01382e-20)
(0.504258 -0.144213 -6.45441e-20)
(0.509716 -0.150547 7.13412e-20)
(0.514786 -0.154772 4.95349e-20)
(0.398277 -0.00684621 5.30196e-19)
(0.420978 -0.0111461 -2.31937e-19)
(0.435261 -0.0142351 -7.30929e-19)
(0.445291 -0.0211859 4.32814e-19)
(0.455197 -0.0296166 2.91988e-19)
(0.465134 -0.0381685 3.67044e-20)
(0.474516 -0.0476398 3.55833e-19)
(0.483456 -0.0579681 -5.23644e-19)
(0.491982 -0.0689892 2.15068e-19)
(0.500066 -0.0805147 -1.90383e-19)
(0.507666 -0.092302 2.78131e-19)
(0.514733 -0.104072 -9.63333e-20)
(0.52122 -0.115507 1.8204e-19)
(0.527094 -0.12626 -8.58833e-20)
(0.532352 -0.13597 -3.18675e-20)
(0.537027 -0.144273 3.11849e-20)
(0.541198 -0.150821 -1.22738e-19)
(0.545 -0.155298 1.8284e-19)
(0.487427 -0.0188994 0)
(0.502964 -0.0233866 0)
(0.508035 -0.0241838 0)
(0.511743 -0.0289631 0)
(0.517925 -0.0349492 0)
(0.524918 -0.0422503 0)
(0.531795 -0.0507628 0)
(0.538527 -0.0603163 0)
(0.545051 -0.0706951 0)
(0.551279 -0.0816787 0)
(0.557128 -0.0930133 0)
(0.562526 -0.104414 0)
(0.56741 -0.115561 0)
(0.571737 -0.126109 0)
(0.575495 -0.135697 0)
(0.578709 -0.143965 0)
(0.58145 -0.150563 0)
(0.583841 -0.155175 0)
(0.586061 -0.157536 0)
(0.59948 -0.0125781 0)
(0.610431 -0.0220514 0)
(0.608953 -0.0272506 0)
(0.605847 -0.0325885 0)
(0.606383 -0.0388282 0)
(0.608697 -0.0461941 0)
(0.611644 -0.0546317 0)
(0.614964 -0.0640257 0)
(0.618451 -0.0741847 0)
(0.621908 -0.0848942 0)
(0.625185 -0.0959101 0)
(0.628161 -0.106958 0)
(0.630741 -0.117732 0)
(0.632861 -0.127902 0)
(0.63449 -0.137128 0)
(0.635638 -0.145065 0)
(0.636364 -0.151386 0)
(0.636774 -0.155796 0)
(0.637034 -0.158045 0)
(0.712313 -0.0034533 0)
(0.717634 -0.0145538 0)
(0.71202 -0.0230812 0)
(0.703836 -0.0305903 0)
(0.699278 -0.0383754 0)
(0.697017 -0.0467132 0)
(0.695898 -0.0557099 0)
(0.695579 -0.065391 0)
(0.695778 -0.0756564 0)
(0.696225 -0.0863413 0)
(0.696709 -0.0972372 0)
(0.697063 -0.108097 0)
(0.69716 -0.118638 0)
(0.696909 -0.128555 0)
(0.696259 -0.137526 0)
(0.695204 -0.145231 0)
(0.693786 -0.151363 0)
(0.692099 -0.155645 0)
(0.690294 -0.157847 0)
(0.822695 0.00681465 0)
(0.822748 -0.00476064 0)
(0.814229 -0.0154844 0)
(0.802442 -0.0250406 0)
(0.793728 -0.0344918 0)
(0.787421 -0.0441005 0)
(0.782485 -0.0539879 0)
(0.778593 -0.0642527 0)
(0.77547 -0.0748732 0)
(0.772823 -0.0857413 0)
(0.770408 -0.0966923 0)
(0.76803 -0.107515 0)
(0.765534 -0.117959 0)
(0.762807 -0.127744 0)
(0.759782 -0.136576 0)
(0.756437 -0.144156 0)
(0.752799 -0.1502 0)
(0.74895 -0.154451 0)
(0.745024 -0.156696 0)
(0.927439 0.0191507 0)
(0.922953 0.0070146 0)
(0.912342 -0.00547374 0)
(0.89827 -0.0168594 0)
(0.886524 -0.0279063 0)
(0.876987 -0.03887 0)
(0.868803 -0.0498288 0)
(0.861708 -0.0608845 0)
(0.85549 -0.0720593 0)
(0.84988 -0.0832898 0)
(0.844636 -0.0944521 0)
(0.839556 -0.105372 0)
(0.834476 -0.115834 0)
(0.829272 -0.125587 0)
(0.823865 -0.134367 0)
(0.818221 -0.1419 0)
(0.812359 -0.147925 0)
(0.806347 -0.152207 0)
(0.80031 -0.154553 0)
(1.02323 0.0331193 0)
(1.01531 0.0202162 0)
(1.00333 0.00627616 0)
(0.988137 -0.00671695 0)
(0.974507 -0.0192113 0)
(0.962703 -0.0314742 0)
(0.952062 -0.0435436 0)
(0.942387 -0.0554873 0)
(0.933543 -0.0673383 0)
(0.925322 -0.0790597 0)
(0.917513 -0.0905578 0)
(0.909931 -0.101691 0)
(0.902422 -0.112274 0)
(0.894865 -0.12209 0)
(0.887179 -0.1309 0)
(0.879328 -0.13846 0)
(0.871325 -0.144534 0)
(0.863233 -0.148907 0)
(0.855165 -0.151407 0)
(1.10704 0.0478894 0)
(1.09708 0.0341064 0)
(1.08451 0.0190231 0)
(1.06921 0.00469502 0)
(1.05481 -0.00903152 0)
(1.04175 -0.0224265 0)
(1.02955 -0.0355176 0)
(1.01808 -0.0483303 0)
(1.00727 -0.060885 0)
(0.996975 -0.0731541 0)
(0.987046 -0.0850614 0)
(0.977331 -0.0964878 0)
(0.967701 -0.107275 0)
(0.958051 -0.117232 0)
(0.948313 -0.126151 0)
(0.938456 -0.133811 0)
(0.928494 -0.140001 0)
(0.918489 -0.144529 0)
(0.908551 -0.147242 0)
(1.17661 0.062411 0)
(1.16609 0.0478108 0)
(1.15376 0.0319108 0)
(1.13925 0.0166024 0)
(1.12508 0.00192946 0)
(1.11173 -0.0123568 0)
(1.09889 -0.0262843 0)
(1.08647 -0.0398458 0)
(1.07444 -0.0530389 0)
(1.06275 -0.0658326 0)
(1.05129 -0.0781571 0)
(1.03995 -0.0899064 0)
(1.02864 -0.100941 0)
(1.01729 -0.111093 0)
(1.00584 -0.120175 0)
(0.994289 -0.127993 0)
(0.98265 -0.134358 0)
(0.970992 -0.139099 0)
(0.959424 -0.142079 0)
(1.23083 0.0756515 0)
(1.22103 0.0604665 0)
(1.20973 0.044138 0)
(1.19675 0.0282423 0)
(1.18366 0.0129561 0)
(1.17088 -0.00193176 0)
(1.15824 -0.0164464 0)
(1.14568 -0.0305607 0)
(1.13323 -0.0442494 0)
(1.12086 -0.0574713 0)
(1.10852 -0.0701553 0)
(1.09616 -0.0822007 0)
(1.08371 -0.0934793 0)
(1.07115 -0.103839 0)
(1.05844 -0.113112 0)
(1.04559 -0.121123 0)
(1.03264 -0.127702 0)
(1.01967 -0.132697 0)
(1.00678 -0.135987 0)
(1.26981 0.0867674 0)
(1.26166 0.071344 0)
(1.25202 0.0549929 0)
(1.24109 0.0389255 0)
(1.22971 0.0233827 0)
(1.21819 0.00821488 0)
(1.20645 -0.00660431 0)
(1.19448 -0.0210261 0)
(1.18231 -0.0350125 0)
(1.16996 -0.0485091 0)
(1.15742 -0.0614388 0)
(1.14465 -0.0737011 0)
(1.13166 -0.0851735 0)
(1.11842 -0.0957143 0)
(1.10495 -0.105169 0)
(1.09127 -0.113377 0)
(1.07744 -0.120185 0)
(1.06356 -0.125456 0)
(1.04973 -0.12908 0)
(1.2948 0.0952268 0)
(1.2888 0.0799506 0)
(1.28117 0.0639563 0)
(1.27257 0.0481128 0)
(1.2633 0.0326689 0)
(1.2535 0.0175424 0)
(1.24317 0.0027146 0)
(1.23235 -0.0117554 0)
(1.22105 -0.0258151 0)
(1.20932 -0.0393979 0)
(1.19716 -0.0524203 0)
(1.18459 -0.0647795 0)
(1.17161 -0.0763552 0)
(1.15825 -0.087012 0)
(1.14454 -0.0966042 0)
(1.13052 -0.104984 0)
(1.11628 -0.112008 0)
(1.10191 -0.11755 0)
(1.08754 -0.121513 0)
(1.30781 0.100851 0)
(1.30407 0.0860782 0)
(1.29857 0.0707542 0)
(1.29232 0.0554681 0)
(1.28527 0.04044 0)
(1.27743 0.0256458 0)
(1.26882 0.011087 0)
(1.25949 -0.00318285 0)
(1.24948 -0.0170867 0)
(1.23882 -0.0305545 0)
(1.22754 -0.0434972 0)
(1.21565 -0.0558089 0)
(1.20319 -0.06737 0)
(1.1902 -0.0780487 0)
(1.17673 -0.0877061 0)
(1.16284 -0.0962016 0)
(1.14863 -0.103402 0)
(1.13421 -0.109188 0)
(1.11971 -0.113469 0)
(1.31128 0.103776 0)
(1.30962 0.0897854 0)
(1.30612 0.0753571 0)
(1.30204 0.0608742 0)
(1.29712 0.0465125 0)
(1.29124 0.0322901 0)
(1.28444 0.0182292 0)
(1.27678 0.00438688 0)
(1.26828 -0.00915426 0)
(1.25898 -0.0223179 0)
(1.24889 -0.0350101 0)
(1.23805 -0.047124 0)
(1.22649 -0.0585403 0)
(1.21427 -0.0691307 0)
(1.20145 -0.0787611 0)
(1.1881 -0.087297 0)
(1.17433 -0.0946112 0)
(1.16024 -0.100592 0)
(1.146 -0.10515 0)
(1.30768 0.104358 0)
(1.30773 0.0913325 0)
(1.30595 0.0779336 0)
(1.30373 0.0644074 0)
(1.30068 0.0508841 0)
(1.2966 0.0374089 0)
(1.29154 0.0240214 0)
(1.28553 0.0107844 0)
(1.2786 -0.00222784 0)
(1.27076 -0.0149247 0)
(1.26204 -0.0272142 0)
(1.25246 -0.03899 0)
(1.24206 -0.050135 0)
(1.2309 -0.0605241 0)
(1.21902 -0.0700278 0)
(1.20653 -0.0785171 0)
(1.19352 -0.0858699 0)
(1.1801 -0.0919783 0)
(1.16642 -0.0967575 0)
(1.29922 0.103065 0)
(1.30057 0.0910947 0)
(1.30016 0.0787791 0)
(1.29941 0.0662813 0)
(1.29789 0.0536932 0)
(1.29536 0.0410737 0)
(1.29182 0.028475 0)
(1.28733 0.0159611 0)
(1.28188 0.00360632 0)
(1.27549 -0.00849937 0)
(1.26816 -0.0202651 0)
(1.25992 -0.0315861 0)
(1.2508 -0.0423489 0)
(1.24084 -0.0524331 0)
(1.23011 -0.0617144 0)
(1.21868 -0.070069 0)
(1.20665 -0.0773797 0)
(1.19414 -0.0835423 0)
(1.18128 -0.0884739 0)
(1.2877 0.10038 0)
(1.28995 0.0894797 0)
(1.29055 0.0782417 0)
(1.2909 0.0667817 0)
(1.29056 0.0551637 0)
(1.28926 0.0434507 0)
(1.287 0.0317022 0)
(1.2838 0.0199822 0)
(1.27967 0.00836462 0)
(1.2746 -0.00306917 0)
(1.26859 -0.0142247 0)
(1.26166 -0.0250035 0)
(1.25382 -0.0352972 0)
(1.24511 -0.044991 0)
(1.23559 -0.0539666 0)
(1.22533 -0.0621062 0)
(1.21442 -0.0692974 0)
(1.20296 -0.0754401 0)
(1.19108 -0.0804528 0)
(1.27447 0.0967319 0)
(1.27727 0.0868662 0)
(1.27858 0.0766619 0)
(1.27969 0.0662087 0)
(1.28021 0.0555514 0)
(1.27985 0.0447518 0)
(1.27859 0.0338719 0)
(1.27645 0.0229745 0)
(1.27342 0.0121299 0)
(1.2695 0.00141609 0)
(1.26466 -0.00907778 0)
(1.25892 -0.0192576 0)
(1.25229 -0.0290218 0)
(1.24479 -0.038262 0)
(1.23648 -0.0468667 0)
(1.2274 -0.0547244 0)
(1.21765 -0.0617287 0)
(1.2073 -0.0677831 0)
(1.19649 -0.0728085 0)
(1.26045 0.0924646 0)
(1.26355 0.0835705 0)
)
;

boundaryField
{
    inlet
    {
        type            uniformFixedValue;
        uniformValue    constant (1 0 0);
        value           nonuniform 0();
    }
    outlet
    {
        type            pressureInletOutletVelocity;
        value           nonuniform 0();
    }
    cylinder
    {
        type            fixedValue;
        value           nonuniform 0();
    }
    top
    {
        type            symmetryPlane;
    }
    bottom
    {
        type            symmetryPlane;
    }
    defaultFaces
    {
        type            empty;
    }
    procBoundary28to22
    {
        type            processor;
        value           nonuniform List<vector> 
26
(
(0.118964 0.026026 2.08061e-18)
(0.134947 0.0270069 -8.23416e-19)
(0.134947 0.0270069 -8.23416e-19)
(0.114637 0.0199996 6.05968e-19)
(0.131076 0.0197808 5.22323e-19)
(0.131076 0.0197808 5.22323e-19)
(0.125645 0.016176 -4.2557e-19)
(0.118524 0.0273607 3.65688e-20)
(0.130979 0.0137251 -6.63284e-19)
(0.151984 0.00510273 -2.17799e-20)
(0.169871 -0.00523351 -7.42155e-20)
(0.187317 -0.0155872 2.57558e-19)
(0.242115 -0.0296706 -1.61363e-19)
(0.242115 -0.0296706 -1.61363e-19)
(0.25743 -0.0408595 -9.36713e-20)
(0.272243 -0.0524938 1.37356e-19)
(0.286529 -0.0644855 -7.35825e-21)
(0.300375 -0.0767209 5.73399e-20)
(0.313774 -0.0889741 -1.7066e-20)
(0.326713 -0.100992 -2.49527e-19)
(0.339146 -0.11246 2.14268e-19)
(0.35104 -0.123034 -5.30827e-20)
(0.362384 -0.13235 -3.77964e-20)
(0.373205 -0.140044 1.31045e-20)
(0.383584 -0.145767 -3.72429e-20)
(0.393664 -0.149211 7.88833e-20)
)
;
    }
    procBoundary28to23
    {
        type            processor;
        value           nonuniform List<vector> 3((0.432394 -0.152264 -5.29998e-20) (0.461427 -0.154043 -1.93539e-20) (0.49057 -0.15551 -6.94538e-20));
    }
    procBoundary28to27
    {
        type            processor;
        value           nonuniform List<vector> 10((0.155659 0.0125904 3.00337e-18) (0.212804 0.00965856 2.92326e-18) (0.23764 0.00887122 -2.07514e-18) (0.23764 0.00887122 -2.07514e-18) (0.31759 0.0120238 -6.26541e-18) (0.31759 0.0120238 -6.26541e-18) (0.430696 0.0133411 2.63857e-18) (0.531868 0.00465315 7.80226e-19) (0.644653 -0.000151758 3.83116e-19) (0.756054 0.00299798 -7.22538e-20));
    }
    procBoundary28to29
    {
        type            processor;
        value           nonuniform List<vector> 
20
(
(0.519667 -0.156628 -1.62092e-20)
(0.548624 -0.157439 5.57804e-20)
(0.548624 -0.157439 5.57804e-20)
(0.588351 -0.157443 0)
(0.637367 -0.15795 0)
(0.688577 -0.157803 0)
(0.741214 -0.156785 0)
(0.794425 -0.154826 0)
(0.847288 -0.151913 0)
(0.898837 -0.148034 0)
(0.9481 -0.143208 0)
(0.994142 -0.137494 0)
(1.03612 -0.130992 0)
(1.07334 -0.123835 0)
(1.1053 -0.11619 0)
(1.13174 -0.108235 0)
(1.15264 -0.100154 0)
(1.16823 -0.0921207 0)
(1.17893 -0.0842809 0)
(1.18533 -0.0767494 0)
)
;
    }
    procBoundary28to33
    {
        type            processor;
        value           nonuniform List<vector> 
15
(
(0.864759 0.0124019 -1.09108e-18)
(0.966286 0.025175 2.64611e-18)
(1.05762 0.0402069 5.67966e-19)
(1.13609 0.0562478 -2.97504e-18)
(1.19985 0.0719255 1.65384e-18)
(1.24825 0.0859972 1.0382e-18)
(1.28182 0.0975229 -1.4918e-18)
(1.30209 0.105971 3.03123e-19)
(1.31129 0.11123 -4.18774e-19)
(1.31189 0.113541 5.41984e-19)
(1.30629 0.113366 1.79942e-19)
(1.29656 0.111262 2.04787e-19)
(1.28432 0.107776 -1.65643e-18)
(1.27075 0.103371 2.20003e-18)
(1.25665 0.0984104 -1.82725e-18)
)
;
    }
    procBoundary28to34
    {
        type            processor;
        value           nonuniform List<vector> 
20
(
(1.26531 0.0743354 0)
(1.26694 0.0648353 0)
(1.26804 0.0551022 0)
(1.26836 0.0451938 0)
(1.26785 0.0351712 0)
(1.26654 0.0250948 0)
(1.26441 0.0150307 0)
(1.26143 0.00505344 0)
(1.2576 -0.00475672 0)
(1.2529 -0.0143085 0)
(1.24735 -0.0235076 0)
(1.24097 -0.0322532 0)
(1.23378 -0.040441 0)
(1.22584 -0.0479665 0)
(1.21721 -0.0547292 0)
(1.20797 -0.0606374 0)
(1.19823 -0.0656144 0)
(1.24623 0.0878334 0)
(1.26531 0.0743354 0)
(1.24946 0.0798356 0)
)
;
    }
}


// ************************************************************************* //
