/*--------------------------------*- C++ -*----------------------------------*\
  =========                 |
  \\      /  F ield         | OpenFOAM: The Open Source CFD Toolbox
   \\    /   O peration     | Website:  https://openfoam.org
    \\  /    A nd           | Version:  7
     \\/     M anipulation  |
\*---------------------------------------------------------------------------*/
FoamFile
{
    version     2.0;
    format      ascii;
    class       surfaceScalarField;
    location    "14";
    object      phi;
}
// * * * * * * * * * * * * * * * * * * * * * * * * * * * * * * * * * * * * * //

dimensions      [0 3 -1 0 0 0 0];

internalField   nonuniform List<scalar> 
815
(
-6.19386e-05
0.000201684
-8.21075e-05
0.000305227
-9.27589e-05
0.000406365
-9.43251e-05
0.000505061
-8.78811e-05
0.000603905
-7.43746e-05
0.00070608
0.000814185
-0.000376255
0.000118317
-0.000368395
0.000193824
-0.000339343
0.000276174
-0.000296925
0.000363947
-0.000247499
0.000455636
-0.000195368
0.000551774
-0.000143053
0.000653765
-9.1752e-05
0.000762884
-4.1829e-05
0.00087996
6.78626e-06
0.0010054
5.43211e-05
0.00113932
0.000101003
0.00128162
0.000146951
0.00143207
0.000192169
0.00159037
0.000236537
0.00175613
0.000279836
0.00192889
0.000321763
0.00210811
0.00229318
-0.000562334
9.61422e-05
-0.000507566
0.000139056
-0.000431862
0.000200471
-0.000353338
0.000285423
-0.000277532
0.00037983
-0.00020612
0.000480362
-0.000139425
0.00058707
-7.71354e-05
0.000700594
-1.86103e-05
0.000821435
3.69478e-05
0.000949846
9.03422e-05
0.00108593
0.000142257
0.0012297
0.000193202
0.00138113
0.000243488
0.00154009
0.000293219
0.0017064
0.000342318
0.00187979
0.000390566
0.00205987
0.000437638
0.00224611
0.000483138
0.0024379
0.000526641
0.00263451
0.000567734
0.00283511
0.000605909
0.00303751
0.00323886
0.000640631
-0.000174705
6.68646e-05
-0.000133614
9.79657e-05
-9.61057e-05
0.000162962
-6.60298e-05
0.000255348
-4.02208e-05
0.000354021
-1.52844e-05
0.000455425
1.14111e-05
0.000560375
4.14182e-05
0.000670587
7.53882e-05
0.000787465
0.000113369
0.000911864
0.000155167
0.00104413
0.000200247
0.00118462
0.000248094
0.00133328
0.000298152
0.00149003
0.000349849
0.00165471
0.000402604
0.00182704
0.00045583
0.00200664
0.000508941
0.002193
0.000561347
0.0023855
0.000612472
0.00258338
0.000661774
0.00278581
0.000708625
0.00299066
0.00319514
0.000752348
0.000234638
3.47547e-05
0.000234121
9.84828e-05
0.000207929
0.000189154
0.000178534
0.000284743
0.000153597
0.000378958
0.00013719
0.000471832
0.000131234
0.00056633
0.000136225
0.000665596
0.000151744
0.000771946
0.000176824
0.000886784
0.000210046
0.00101091
0.000250269
0.0011444
0.000296209
0.00128734
0.000346676
0.00143956
0.000400621
0.00160076
0.0004571
0.00177056
0.000515261
0.00194848
0.000574315
0.00213395
0.000633525
0.00232629
0.000692191
0.00252472
0.000749662
0.00272834
0.000805204
0.00293512
0.00314233
0.000858015
0.000217131
6.89333e-05
0.000178438
7.3447e-05
0.000144589
0.000132332
0.00011266
0.000221083
9.25572e-05
0.000304846
8.50824e-05
0.000386433
8.86903e-05
0.000468224
0.000101765
0.000553256
0.000123088
0.000644273
0.000151756
0.000743278
0.000187046
0.000851493
0.000228418
0.000969537
0.000275154
0.00109766
0.000326636
0.00123586
0.000382228
0.00138397
0.00044128
0.00154171
0.000503131
0.00170871
0.000567112
0.0018845
0.000632543
0.00206852
0.000698733
0.0022601
0.000764988
0.00245846
0.000830629
0.0026627
0.000894869
0.00287088
0.00308038
0.00095682
-0.000307327
-0.000294473
6.05933e-05
-0.000274835
0.000112693
-0.00022994
0.000176188
-0.00017545
0.000250356
-0.000117036
0.000328019
-5.79091e-05
0.000409097
4.02268e-07
0.000494944
5.74823e-05
0.000587192
0.000113691
0.00068707
0.000169787
0.000795397
0.000226602
0.000912722
0.000284921
0.00103934
0.000345338
0.00117544
0.000408212
0.0013211
0.000473661
0.00147626
0.000541588
0.00164078
0.000611711
0.00181437
0.000683605
0.00199662
0.000756731
0.00218697
0.00083047
0.00238472
0.000904163
0.00258901
0.000977004
0.00279804
0.00300933
0.00104805
-0.000338577
4.66231e-05
-0.0002899
6.40171e-05
-0.000232962
0.000119249
-0.000165892
0.000183286
-0.000101408
0.000263535
-4.0528e-05
0.000348218
1.75464e-05
0.00043687
7.40282e-05
0.000530711
0.000130082
0.000631015
0.000186692
0.000738788
0.000244766
0.000854649
0.000305036
0.000979073
0.000368036
0.00111244
0.000434087
0.00125504
0.000503307
0.00140704
0.000575613
0.00156848
0.000650753
0.00173924
0.000728325
0.00191905
0.000807808
0.00210749
0.000888585
0.00230395
0.000969976
0.00250762
0.00105114
0.00271687
0.00292939
0.00113109
-4.81032e-05
9.36804e-06
-4.3298e-06
2.02436e-05
3.91937e-05
7.57254e-05
6.57394e-05
0.00015674
8.6937e-05
0.000242337
0.000107456
0.000327699
0.000130714
0.000413611
0.000158899
0.000502526
0.00019326
0.000596654
0.000234207
0.000697841
0.000281731
0.000807124
0.000335575
0.00092523
0.000395353
0.00105267
0.000460628
0.00118977
0.000530934
0.00133674
0.000605778
0.00149363
0.000684631
0.00166038
0.000766918
0.00183676
0.000852009
0.0020224
0.000939217
0.00221674
0.0010278
0.00241903
0.00111688
0.00262779
0.00284088
0.0012054
0.000269891
-3.55377e-06
0.000262981
2.71537e-05
0.000235616
0.00010309
0.000207671
0.000184685
0.00018825
0.000261758
0.000180068
0.000335881
0.00018361
0.00041007
0.000198475
0.00048766
0.000223798
0.000571332
0.000258913
0.000662726
0.000302943
0.000763094
0.000355038
0.000873135
0.00041444
0.000993264
0.000480469
0.00112374
0.000552506
0.0012647
0.00062997
0.00141617
0.000712281
0.00157807
0.000798843
0.0017502
0.000889016
0.00193222
0.000982102
0.00212366
0.00107735
0.00232378
0.00117384
0.0025313
0.00274423
0.00127049
2.93879e-05
2.60982e-05
3.04434e-05
2.76302e-05
0.000101558
3.80032e-05
0.000174312
5.72856e-05
0.000242475
8.37706e-05
0.000309396
0.000116389
0.000377451
0.000154421
0.000449629
0.000197542
0.00052821
0.000245659
0.000614609
0.00029895
0.000709803
0.000357614
0.000814471
0.000421795
0.000929082
0.000491557
0.00105398
0.00056686
0.0011894
0.000647549
0.00133548
0.000733357
0.00149226
0.000823898
0.00165966
0.000918672
0.00183745
0.00101707
0.00202526
0.00111838
0.00222248
0.00122171
0.00242796
0.00263999
0.00132595
-0.000184788
-0.000155737
7.25072e-05
-0.000107013
0.000125589
-5.20476e-05
0.00018751
5.02449e-06
0.000252324
6.21311e-05
0.000320344
0.000118952
0.000392808
0.000176064
0.000471097
0.000234352
0.000556321
0.000294846
0.000649309
0.000358565
0.000750752
0.000426384
0.000861264
0.000498969
0.000981392
0.000576757
0.00111161
0.000659958
0.00125228
0.000748569
0.00140365
0.000842398
0.00156583
0.000941081
0.00173877
0.0010441
0.00192224
0.00115079
0.00211579
0.00126029
0.00231846
0.00252877
0.0013715
4.35546e-05
5.60926e-05
6.46004e-05
0.000104543
8.76485e-05
0.000164462
0.000113139
0.000226833
0.000142559
0.000290924
0.000176836
0.000358532
0.000216604
0.00043133
0.000262245
0.00051068
0.000313988
0.000597566
0.000371996
0.000692744
0.000436395
0.000796865
0.000507265
0.000910522
0.000584629
0.00103424
0.000668431
0.00116848
0.000758516
0.00131357
0.000854622
0.00146973
0.000956362
0.00163703
0.00106322
0.00181539
0.00117455
0.00200446
0.0012895
0.00220351
0.00241129
0.00140699
0.000201134
0.000202902
0.000102775
0.000200765
0.0001666
0.000201318
0.00022628
0.000208342
0.0002839
0.000224001
0.000342873
0.000249072
0.000406258
0.000283657
0.000476096
0.000327492
0.00055373
0.00038016
0.000640076
0.000441221
0.000735805
0.00051028
0.000841462
0.000587001
0.000957522
0.000671085
0.00108439
0.000762239
0.00122241
0.000860133
0.00137183
0.000964367
0.00153279
0.00107444
0.00170531
0.00118974
0.00188916
0.00130944
0.00208381
0.00228824
0.00143248
0.000146653
0.000141604
0.000171649
0.000147387
0.000220496
0.000163344
0.000267943
0.000188417
0.0003178
0.000221873
0.000372802
0.000263216
0.000434753
0.000312136
0.000504811
0.000368458
0.000583755
0.000432096
0.000672166
0.000503018
0.00077054
0.000581211
0.000879329
0.000666647
0.000998955
0.000759257
0.0011298
0.000858889
0.0012722
0.00096529
0.00142639
0.00107808
0.00119671
0.00132047
-8.10671e-05
-2.00638e-05
0.000159493
4.04316e-05
0.000207448
9.99937e-05
0.000258238
0.000159188
0.000313607
0.000219055
0.000374886
0.000280832
0.000443034
0.000345765
0.000518821
0.000414987
0.000602944
0.000489455
0.000696072
0.000569929
0.000798856
0.000656962
0.000750909
0.000851932
-2.80628e-05
3.32529e-05
0.000146132
9.30411e-05
0.00019845
0.000152041
0.000254607
0.000211436
0.000315491
0.000272563
0.000381907
0.000336748
0.000405203
0.000478965
0.000157423
0.000179574
0.000209075
0.00024625
0.00886013
-0.000484469
-0.000641913
0.00858617
-0.000528677
0.00862886
-0.000684602
0.00866942
-0.000839924
-0.000993993
0.00870713
0.00830756
-0.0005701
0.00834552
-0.000722557
0.00837915
-0.000873555
-0.00102233
0.00840749
0.00801577
-0.000605868
0.00804556
-0.000752344
0.00806832
-0.000896316
-0.00103693
0.00808291
0.00770018
-0.000632186
0.00771766
-0.000769822
0.00772514
-0.0009038
-0.00103321
0.00772143
0.00734785
-0.000644853
0.00734886
-0.000770831
0.00733699
-0.00089193
-0.00100726
0.00731104
0.00695023
0.00693175
0.00689784
0.00684739
0.00911008
-0.00141763
0.0091423
-0.00156585
0.00916921
-0.00170991
0.00918957
-0.00184891
0.00920202
-0.00198188
0.00920512
-0.00210785
-0.00222584
0.00874113
-0.00114609
0.00877044
-0.00129542
0.00879396
-0.00144115
0.00881047
-0.00158236
0.00881866
-0.00171811
0.00881715
-0.00184739
0.00880449
-0.00196923
0.00877926
-0.00208262
-0.00218663
0.00842946
-0.00116806
0.00844389
-0.00130985
0.00844951
-0.00144678
0.00844501
-0.00157786
0.00842901
-0.0017021
0.00840013
-0.00181852
0.00835703
-0.00192613
0.00829845
-0.00202404
-0.00211144
0.00808814
-0.00117328
0.00808272
-0.00130444
0.00806538
-0.00142943
0.00803481
-0.00154729
0.00798975
-0.00165705
0.00792902
-0.00175778
0.00785154
-0.00184865
0.00775641
-0.00192891
-0.00199799
0.00770528
-0.00115714
0.00767549
-0.00127465
0.00763088
-0.00138482
0.00757037
-0.00148678
0.00749298
-0.00157965
0.00739788
-0.00166269
0.00728445
-0.00173521
0.00715228
-0.00179675
0.00726987
-0.00111597
0.00721244
-0.00121722
0.00713786
-0.00131024
0.00704539
-0.00139431
0.0069345
-0.00146876
0.00680485
-0.00153304
0.00665638
-0.00158675
-0.00162967
0.00677947
0.00669334
0.00658849
0.00646467
0.00632187
0.00616033
0.00598057
)
;

boundaryField
{
    inlet
    {
        type            calculated;
        value           nonuniform 0();
    }
    outlet
    {
        type            calculated;
        value           nonuniform 0();
    }
    cylinder
    {
        type            calculated;
        value           nonuniform 0();
    }
    top
    {
        type            symmetryPlane;
        value           nonuniform 0();
    }
    bottom
    {
        type            symmetryPlane;
        value           nonuniform 0();
    }
    defaultFaces
    {
        type            empty;
        value           nonuniform 0();
    }
    procBoundary8to1
    {
        type            processor;
        value           nonuniform List<scalar> 7(-0.00881557 -0.00854196 -0.00826614 -0.00798 -0.00767386 -0.00733518 -0.00695446);
    }
    procBoundary8to2
    {
        type            processor;
        value           nonuniform List<scalar> 
15
(
0.000439904
0.0005973
0.00890475
0.00079936
0.000956283
0.00138125
0.00153363
0.001683
0.00182855
0.00196943
0.00210475
0.00223356
0.00111209
-0.0090737
0.00126611
)
;
    }
    procBoundary8to3
    {
        type            processor;
        value           nonuniform List<scalar> 
11
(
0.00196006
0.00216037
0.00144833
0.0091974
0.00874005
0.00822326
0.00764296
0.0070013
-0.001847
0.0064893
0.00578339
)
;
    }
    procBoundary8to7
    {
        type            processor;
        value           nonuniform List<scalar> 
24
(
-0.000175431
-0.000285058
-0.000395714
-0.000503495
-0.000610349
-0.000719587
-0.000833897
-5.46629e-05
-0.000929883
-0.00105402
-0.00118686
-0.0013283
-0.00147802
-0.00163559
-0.0018005
-0.00197219
-0.00215004
-0.00233338
0.000361964
-0.0024834
-0.00267801
-0.00287621
-0.00307569
-0.00327358
)
;
    }
    procBoundary8to9
    {
        type            processor;
        value           nonuniform List<scalar> 
17
(
0.00159253
0.00177052
0.000911922
0.00103586
0.00117118
0.00096
0.00131833
0.000454637
0.00053449
0.00062231
0.000558875
0.000718945
0.000176299
0.000225106
0.000278316
0.000291176
0.00033698
)
;
    }
    procBoundary8to14
    {
        type            processor;
        value           nonuniform List<scalar> 
28
(
3.56849e-05
-9.83162e-05
0.000356254
0.000584508
0.000203983
-0.000202528
-6.36958e-05
-0.000222368
0.0003256
5.06606e-05
0.000352547
8.53584e-05
-0.000256968
-1.821e-05
-1.47324e-05
0.000191789
2.34431e-05
-2.71402e-05
-0.000182672
3.763e-05
-0.000161132
0.000117253
0.000140307
0.00011241
9.07651e-05
9.67898e-05
-0.000141739
0.000130448
)
;
    }
}


// ************************************************************************* //
