/*--------------------------------*- C++ -*----------------------------------*\
  =========                 |
  \\      /  F ield         | OpenFOAM: The Open Source CFD Toolbox
   \\    /   O peration     | Website:  https://openfoam.org
    \\  /    A nd           | Version:  7
     \\/     M anipulation  |
\*---------------------------------------------------------------------------*/
FoamFile
{
    version     2.0;
    format      ascii;
    class       surfaceScalarField;
    location    "95";
    object      phi;
}
// * * * * * * * * * * * * * * * * * * * * * * * * * * * * * * * * * * * * * //

dimensions      [0 3 -1 0 0 0 0];

internalField   nonuniform List<scalar> 
29690
(
-1.08291e-07
-2.66352e-07
3.74643e-07
-4.39325e-07
-6.71641e-07
1.00267e-06
-1.0095e-06
-9.45597e-07
1.51577e-06
-1.83558e-06
-1.05841e-06
1.88449e-06
-2.93448e-06
-9.77386e-07
2.07629e-06
-4.32306e-06
-6.66949e-07
2.05553e-06
-6.01897e-06
-8.90165e-08
1.78493e-06
-8.03938e-06
7.96218e-07
1.22419e-06
-1.04024e-05
2.03102e-06
3.32012e-07
-1.31255e-05
3.65888e-06
-9.35767e-07
-1.62252e-05
5.72523e-06
-2.62554e-06
-1.97175e-05
8.27589e-06
-4.78358e-06
-2.36173e-05
1.13564e-05
-7.4566e-06
-2.79391e-05
1.50109e-05
-1.06892e-05
-3.26965e-05
1.92819e-05
-1.45244e-05
-3.79027e-05
2.42094e-05
-1.90032e-05
-4.35696e-05
2.98307e-05
-2.41638e-05
-4.97078e-05
3.61801e-05
-3.00419e-05
-5.63267e-05
4.32891e-05
-3.66701e-05
-6.3434e-05
5.11865e-05
-4.40792e-05
-7.10356e-05
5.98996e-05
-5.2298e-05
-7.91352e-05
6.94552e-05
-6.13556e-05
-8.77347e-05
7.98818e-05
-7.12823e-05
-9.68336e-05
9.12115e-05
-8.21126e-05
-0.00010643
0.000103483
-9.38871e-05
-0.000116519
0.000116744
-0.000106655
-0.000127097
0.000131055
-0.000120477
-0.00013816
0.000146492
-0.000135429
-0.000149707
0.000163151
-0.000151604
-0.000161741
0.000181152
-0.000169118
-0.000174275
0.000200639
-0.000188105
-0.000187335
0.000221785
-0.000208726
-0.000200961
0.000244796
-0.00023117
-0.000215217
0.000269919
-0.000255663
-0.000230194
0.000297447
-0.00028247
-0.000246008
0.000327733
-0.000311919
-0.000262806
0.000361207
-0.000344409
-0.000280759
0.000398391
-0.000380438
-0.000300056
0.000439925
-0.000420628
0.00048665
-0.000465797
-0.00032091
-1.00875e-07
-1.65477e-07
-4.09392e-07
-3.63124e-07
-9.40711e-07
-4.14278e-07
-1.71021e-06
-2.88903e-07
-2.73341e-06
4.58107e-08
-4.02582e-06
6.25462e-07
-5.60296e-06
1.48812e-06
-7.48075e-06
2.67401e-06
-9.67481e-06
4.22509e-06
-1.22009e-05
6.18497e-06
-1.50739e-05
8.59823e-06
-1.83079e-05
1.15099e-05
-2.19162e-05
1.49647e-05
-2.59111e-05
1.90059e-05
-3.03044e-05
2.36751e-05
-3.51065e-05
2.90115e-05
-4.03271e-05
3.50513e-05
-4.59744e-05
4.18274e-05
-5.2055e-05
4.93697e-05
-5.85738e-05
5.77052e-05
-6.55335e-05
6.68593e-05
-7.29347e-05
7.68564e-05
-8.07752e-05
8.77224e-05
-8.90504e-05
9.94867e-05
-9.77526e-05
0.000112185
-0.000106872
0.000125863
-0.000116396
0.000140579
-0.000126313
0.000156409
-0.00013661
0.000173448
-0.000147277
0.000191819
-0.000158309
0.000211671
-0.000169709
0.000233186
-0.000181495
0.000256582
-0.000193699
0.000282123
-0.000206373
0.000310121
-0.000219591
0.000340952
-0.000233452
0.000375068
-0.000248072
0.000413011
-0.000263581
0.000455435
0.000503199
-0.00028013
-9.30166e-08
-7.24607e-08
-3.77406e-07
-7.8734e-08
-8.67034e-07
7.53503e-08
-1.57591e-06
4.19974e-07
-2.5181e-06
9.87998e-07
-3.70762e-06
1.81499e-06
-5.15845e-06
2.93894e-06
-6.88439e-06
4.39995e-06
-8.89918e-06
6.23988e-06
-1.12161e-05
8.50191e-06
-1.3848e-05
1.12301e-05
-1.68068e-05
1.44687e-05
-2.01035e-05
1.82614e-05
-2.37485e-05
2.26508e-05
-2.77508e-05
2.76775e-05
-3.21185e-05
3.33792e-05
-3.68583e-05
3.9791e-05
-4.19752e-05
4.69443e-05
-4.74728e-05
5.48672e-05
-5.33523e-05
6.35847e-05
-5.96127e-05
7.31196e-05
-6.625e-05
8.34937e-05
-7.32574e-05
9.47297e-05
-8.06243e-05
0.000106854
-8.83366e-05
0.000119898
-9.63763e-05
0.000133903
-0.000104722
0.000148925
-0.000113349
0.000165036
-0.000122231
0.00018233
-0.000131341
0.000200929
-0.000140653
0.000220982
-0.000150144
0.000242677
-0.000159801
0.000266239
-0.000169621
0.000291942
-0.000179612
0.000320112
-0.000189803
0.000351143
-0.000200238
0.000385503
-0.000210977
0.00042375
-0.000222089
0.000466547
0.000514771
-0.000233661
-8.49348e-08
1.24742e-08
-3.44511e-07
1.80842e-07
-7.91226e-07
5.22066e-07
-1.43764e-06
1.06638e-06
-2.29626e-06
1.84662e-06
-3.37948e-06
2.89821e-06
-4.69949e-06
4.25895e-06
-6.26821e-06
5.96867e-06
-8.09716e-06
8.06883e-06
-1.01974e-05
1.06021e-05
-1.25793e-05
1.3612e-05
-1.52524e-05
1.71418e-05
-1.82254e-05
2.12344e-05
-2.15058e-05
2.59313e-05
-2.51e-05
3.12717e-05
-2.9013e-05
3.72922e-05
-3.32482e-05
4.40262e-05
-3.78073e-05
5.15034e-05
-4.26898e-05
5.97497e-05
-4.78928e-05
6.87878e-05
-5.34106e-05
7.86375e-05
-5.92342e-05
8.93173e-05
-6.53505e-05
0.000100846
-7.17424e-05
0.000113245
-7.83877e-05
0.000126543
-8.5259e-05
0.000140774
-9.23236e-05
0.00015599
-9.95431e-05
0.000172256
-0.000106874
0.000189661
-0.00011427
0.000208324
-0.000121679
0.000228392
-0.000129052
0.00025005
-0.00013634
0.000273527
-0.000143498
0.0002991
-0.000150492
0.000327106
-0.000157296
0.000357947
-0.0001639
0.000392107
-0.000170307
0.000430157
-0.000176524
0.000472764
0.000520819
-0.000182572
-7.68881e-08
8.93623e-08
-3.117e-07
4.15653e-07
-7.15515e-07
9.25881e-07
-1.29938e-06
1.65024e-06
-2.07419e-06
2.62143e-06
-3.05062e-06
3.87465e-06
-4.23901e-06
5.44734e-06
-5.64925e-06
7.37891e-06
-7.29071e-06
9.71029e-06
-9.17208e-06
1.24835e-05
-1.13013e-05
1.57412e-05
-1.36852e-05
1.95258e-05
-1.63298e-05
2.3879e-05
-1.92396e-05
2.88411e-05
-2.24179e-05
3.44499e-05
-2.58662e-05
4.07406e-05
-2.95844e-05
4.77444e-05
-3.35701e-05
5.54891e-05
-3.78185e-05
6.39981e-05
-4.2322e-05
7.32912e-05
-4.70693e-05
8.33848e-05
-5.20456e-05
9.42935e-05
-5.7231e-05
0.000106031
-6.26004e-05
0.000118615
-6.81227e-05
0.000132065
-7.37597e-05
0.000146412
-7.94659e-05
0.000161696
-8.51877e-05
0.000177977
-9.0863e-05
0.000195337
-9.64221e-05
0.000213883
-0.000101788
0.000233758
-0.000106878
0.00025514
-0.000111606
0.000278255
-0.000115886
0.00030338
-0.000119631
0.000330852
-0.000122766
0.000361082
-0.000125223
0.000394564
-0.000126952
0.000431887
-0.000127905
0.000473717
0.000520928
-0.000128014
-6.90906e-08
1.58453e-07
-2.79866e-07
6.26429e-07
-6.41973e-07
1.28799e-06
-1.16492e-06
2.17319e-06
-1.85796e-06
3.31447e-06
-2.73e-06
4.74669e-06
-3.78946e-06
6.50681e-06
-5.0442e-06
8.63365e-06
-6.50134e-06
1.11674e-05
-8.16718e-06
1.41494e-05
-1.0047e-05
1.7621e-05
-1.21451e-05
2.16238e-05
-1.44642e-05
2.61981e-05
-1.70058e-05
3.13827e-05
-1.97697e-05
3.72138e-05
-2.27538e-05
4.37246e-05
-2.59538e-05
5.09444e-05
-2.93629e-05
5.88983e-05
-3.29716e-05
6.76068e-05
-3.67668e-05
7.70864e-05
-4.07315e-05
8.73495e-05
-4.48441e-05
9.84061e-05
-4.90772e-05
0.000110265
-5.33972e-05
0.000122935
-5.77628e-05
0.000136431
-6.21242e-05
0.000150773
-6.64219e-05
0.000165994
-7.05858e-05
0.000182141
-7.45339e-05
0.000199285
-7.81723e-05
0.000217522
-8.13957e-05
0.000236981
-8.40871e-05
0.000257832
-8.61206e-05
0.000280289
-8.73636e-05
0.000304622
-8.76808e-05
0.000331169
-8.69408e-05
0.000360341
-8.5023e-05
0.000392646
-8.18333e-05
0.000428697
-7.73112e-05
0.000469195
0.000514838
-7.12209e-05
-6.17537e-08
2.20207e-07
-2.49867e-07
8.14542e-07
-5.72573e-07
1.61069e-06
-1.03785e-06
2.63846e-06
-1.65332e-06
3.92994e-06
-2.4261e-06
5.51947e-06
-3.3627e-06
7.44341e-06
-4.46887e-06
9.73982e-06
-5.74949e-06
1.2448e-05
-7.20838e-06
1.56083e-05
-8.8482e-06
1.92608e-05
-1.06702e-05
2.34458e-05
-1.26742e-05
2.82021e-05
-1.48582e-05
3.35667e-05
-1.72184e-05
3.9574e-05
-1.97485e-05
4.62548e-05
-2.244e-05
5.36359e-05
-2.52815e-05
6.17397e-05
-2.82579e-05
7.05833e-05
-3.13507e-05
8.01792e-05
-3.45364e-05
9.05353e-05
-3.77862e-05
0.000101656
-4.10648e-05
0.000113543
-4.43292e-05
0.000126199
-4.75275e-05
0.000139629
-5.05974e-05
0.000153843
-5.34649e-05
0.000168861
-5.60421e-05
0.000184718
-5.82265e-05
0.000201469
-5.98994e-05
0.000219194
-6.09251e-05
0.000238007
-6.11515e-05
0.000258058
-6.04107e-05
0.000279548
-5.85222e-05
0.000302734
-5.52978e-05
0.000327945
-5.05503e-05
0.000355594
-4.41044e-05
0.0003862
-3.5816e-05
0.000420409
-2.56307e-05
0.000459009
0.000503165
-1.39578e-05
-5.50763e-08
2.75283e-07
-2.22506e-07
9.81972e-07
-5.09155e-07
1.89734e-06
-9.21517e-07
3.05083e-06
-1.4656e-06
4.47402e-06
-2.14676e-06
6.20063e-06
-2.96961e-06
8.26626e-06
-3.9378e-06
1.0708e-05
-5.05392e-06
1.35642e-05
-6.3193e-06
1.68736e-05
-7.73388e-06
2.06754e-05
-9.29596e-06
2.50079e-05
-1.10021e-05
2.99082e-05
-1.28467e-05
3.54114e-05
-1.48222e-05
4.15494e-05
-1.69181e-05
4.83507e-05
-1.91214e-05
5.58392e-05
-2.14153e-05
6.40337e-05
-2.37798e-05
7.29477e-05
-2.61898e-05
8.25892e-05
-2.86153e-05
9.29608e-05
-3.102e-05
0.000104061
-3.33602e-05
0.000115883
-3.55833e-05
0.000128422
-3.76265e-05
0.000141672
-3.94145e-05
0.000155631
-4.08582e-05
0.000170305
-4.1852e-05
0.000185712
-4.22722e-05
0.00020189
-4.19745e-05
0.000218897
-4.07928e-05
0.000236825
-3.85383e-05
0.000255804
-3.50001e-05
0.00027601
-2.99474e-05
0.000297681
-2.31348e-05
0.000321132
-1.4313e-05
0.000346772
-3.24532e-06
0.000375133
1.02791e-05
0.000406884
2.63785e-05
0.00044291
0.000484355
4.51877e-05
-4.92359e-08
3.24519e-07
-1.98494e-07
1.13123e-06
-4.53346e-07
2.1522e-06
-8.18866e-07
3.41635e-06
-1.2995e-06
4.95465e-06
-1.89891e-06
6.80004e-06
-2.6198e-06
8.98715e-06
-3.46378e-06
1.1552e-05
-4.43115e-06
1.45315e-05
-5.52076e-06
1.79632e-05
-6.72977e-06
2.18844e-05
-8.0535e-06
2.63316e-05
-9.48515e-06
3.13399e-05
-1.10156e-05
3.69419e-05
-1.26332e-05
4.3167e-05
-1.43232e-05
5.00407e-05
-1.60677e-05
5.75837e-05
-1.7845e-05
6.5811e-05
-1.96291e-05
7.47318e-05
-2.13888e-05
8.43489e-05
-2.30872e-05
9.46592e-05
-2.46803e-05
0.000105654
-2.61156e-05
0.000117319
-2.73311e-05
0.000129638
-2.82527e-05
0.000142594
-2.87924e-05
0.000156171
-2.88461e-05
0.000170358
-2.82905e-05
0.000185157
-2.69807e-05
0.00020058
-2.47471e-05
0.000216663
-2.13929e-05
0.000233471
-1.66925e-05
0.000251103
-1.03911e-05
0.000269708
-2.2062e-06
0.000289496
8.16703e-06
0.000310759
2.10448e-05
0.000333895
3.67352e-05
0.000359442
5.54996e-05
0.00038812
7.75246e-05
0.000420885
0.000459002
0.000102878
-4.438e-08
3.68899e-07
-1.78425e-07
1.26527e-06
-4.06504e-07
2.38027e-06
-7.32354e-07
3.7422e-06
-1.15894e-06
5.38124e-06
-1.68828e-06
7.32938e-06
-2.32126e-06
9.62013e-06
-3.05746e-06
1.22882e-05
-3.89495e-06
1.5369e-05
-4.83009e-06
1.88984e-05
-5.85732e-06
2.29117e-05
-6.9689e-06
2.74432e-05
-8.15471e-06
3.25257e-05
-9.40199e-06
3.81891e-05
-1.0695e-05
4.446e-05
-1.20147e-05
5.13604e-05
-1.33382e-05
5.89072e-05
-1.46387e-05
6.71115e-05
-1.58842e-05
7.59773e-05
-1.70374e-05
8.55021e-05
-1.80542e-05
9.5676e-05
-1.8883e-05
0.000106482
-1.94628e-05
0.000117899
-1.97217e-05
0.000129897
-1.95749e-05
0.000142447
-1.89221e-05
0.000155518
-1.76443e-05
0.000169081
-1.56014e-05
0.000183114
-1.26281e-05
0.000197606
-8.52986e-06
0.000212565
-3.08011e-06
0.000228021
3.98298e-06
0.00024404
1.29582e-05
0.000260733
2.418e-05
0.000278274
3.80136e-05
0.000296925
5.48424e-05
0.000317066
7.50428e-05
0.000339242
9.89404e-05
0.000364222
0.000126745
0.00039308
0.000427307
0.00015844
-4.06212e-08
4.0952e-07
-1.62751e-07
1.3874e-06
-3.69662e-07
2.58719e-06
-6.63852e-07
4.03639e-06
-1.0469e-06
5.76428e-06
-1.51926e-06
7.80173e-06
-2.08007e-06
1.01809e-05
-2.72696e-06
1.29351e-05
-3.45582e-06
1.60979e-05
-4.26057e-06
1.97031e-05
-5.13292e-06
2.3784e-05
-6.06215e-06
2.83725e-05
-7.03482e-06
3.34984e-05
-8.03448e-06
3.91888e-05
-9.04137e-06
4.54669e-05
-1.0032e-05
5.2351e-05
-1.09788e-05
5.98541e-05
-1.18495e-05
6.79821e-05
-1.26064e-05
7.67342e-05
-1.32059e-05
8.61015e-05
-1.35969e-05
9.6067e-05
-1.37202e-05
0.000106606
-1.35065e-05
0.000117685
-1.28747e-05
0.000129265
-1.17295e-05
0.000141302
-9.95848e-06
0.000153747
-7.42936e-06
0.000166552
-3.98567e-06
0.00017967
5.57302e-07
0.000193063
6.41694e-06
0.000206705
1.38488e-05
0.000220589
2.31499e-05
0.000234739
3.46615e-05
0.000249221
4.87697e-05
0.000264166
6.59004e-05
0.000279794
8.65056e-05
0.000296461
0.000111033
0.000314714
0.000139871
0.000335385
0.000173247
0.000359705
0.000389483
0.000211071
-3.80319e-08
4.47552e-07
-1.51764e-07
1.50114e-06
-3.43486e-07
2.77891e-06
-6.1457e-07
4.30747e-06
-9.65305e-07
6.11502e-06
-1.39468e-06
8.23111e-06
-1.90019e-06
1.06864e-05
-2.47756e-06
1.35125e-05
-3.12058e-06
1.67409e-05
-3.82079e-06
2.04033e-05
-4.56727e-06
2.45305e-05
-5.3463e-06
2.91515e-05
-6.14115e-06
3.42932e-05
-6.93176e-06
3.99794e-05
-7.69439e-06
4.62295e-05
-8.40123e-06
5.30579e-05
-9.01984e-06
6.04727e-05
-9.51269e-06
6.8475e-05
-9.8365e-06
7.7058e-05
-9.94129e-06
8.62063e-05
-9.76952e-06
9.58953e-05
-9.25447e-06
0.000106091
-8.31898e-06
0.000116749
-6.87317e-06
0.000127819
-4.81185e-06
0.00013924
-2.01179e-06
0.000150947
1.67248e-06
0.000162867
6.4122e-06
0.00017493
1.24096e-05
0.000187066
1.99043e-05
0.000199211
2.91778e-05
0.000211316
4.05601e-05
0.000223357
5.44335e-05
0.000235348
7.12341e-05
0.000247366
9.1449e-05
0.00025958
0.000115601
0.000272308
0.000144214
0.0002861
0.000177744
0.000301855
0.000216446
0.000321003
0.000345783
0.000260146
-3.66406e-08
4.84192e-07
-1.45581e-07
1.61008e-06
-3.2825e-07
2.96158e-06
-5.85012e-07
4.56423e-06
-9.14972e-07
6.44498e-06
-1.31576e-06
8.6319e-06
-1.78327e-06
1.1154e-05
-2.31145e-06
1.40406e-05
-2.89205e-06
1.73215e-05
-3.51433e-06
2.10256e-05
-4.16478e-06
2.51809e-05
-4.82673e-06
2.98134e-05
-5.48021e-06
3.49467e-05
-6.10158e-06
4.06008e-05
-6.6633e-06
4.67912e-05
-7.13315e-06
5.35277e-05
-7.47409e-06
6.08136e-05
-7.64339e-06
6.86443e-05
-7.59223e-06
7.70069e-05
-7.26483e-06
8.58789e-05
-6.59713e-06
9.52276e-05
-5.51564e-06
0.000105009
-3.93556e-06
0.000115169
-1.75868e-06
0.000125642
1.1292e-06
0.000136353
4.86192e-06
0.000147214
9.5965e-06
0.000158133
1.55179e-05
0.000169009
2.28448e-05
0.000179739
3.18353e-05
0.00019022
4.27951e-05
0.000200356
5.6084e-05
0.000210068
7.21218e-05
0.00021931
9.13936e-05
0.000228094
0.000114447
0.000236526
0.000141879
0.000244876
0.000174297
0.000253682
0.000212236
0.000263916
0.000255989
0.000277251
0.00029647
0.000305301
-3.64317e-08
5.20624e-07
-1.44144e-07
1.71779e-06
-3.2383e-07
3.14126e-06
-5.74961e-07
4.81536e-06
-8.95568e-07
6.76559e-06
-1.282e-06
9.01833e-06
-1.72863e-06
1.16006e-05
-2.22768e-06
1.45397e-05
-2.76894e-06
1.78628e-05
-3.33954e-06
2.15962e-05
-3.9233e-06
2.57647e-05
-4.50078e-06
3.03909e-05
-5.04865e-06
3.54946e-05
-5.53992e-06
4.1092e-05
-5.94306e-06
4.71944e-05
-6.22199e-06
5.38067e-05
-6.33495e-06
6.09266e-05
-6.23434e-06
6.85437e-05
-5.86613e-06
7.66387e-05
-5.16879e-06
8.51816e-05
-4.07219e-06
9.4131e-05
-2.49609e-06
0.000103433
-3.48315e-07
0.000113021
2.47724e-06
0.000122817
6.10363e-06
0.000132726
1.06741e-05
0.000142643
1.63562e-05
0.000152451
2.33471e-05
0.000162018
3.18791e-05
0.000171207
4.22275e-05
0.000179872
5.47182e-05
0.000187865
6.9737e-05
0.000195049
8.77388e-05
0.000201308
0.000109254
0.000206578
0.000134892
0.000210889
0.000165325
0.000214443
0.000201253
0.000217754
0.000243305
0.000221864
0.000291834
0.000228721
0.000241793
0.000346511
-3.73457e-08
5.5797e-07
-1.47235e-07
1.82768e-06
-3.29744e-07
3.32377e-06
-5.83577e-07
5.0692e-06
-9.05822e-07
7.08783e-06
-1.2915e-06
9.404e-06
-1.73356e-06
1.20427e-05
-2.22241e-06
1.50285e-05
-2.74604e-06
1.83864e-05
-3.28911e-06
2.21393e-05
-3.83331e-06
2.63089e-05
-4.3561e-06
3.09137e-05
-4.83116e-06
3.59696e-05
-5.22815e-06
4.1489e-05
-5.51188e-06
4.74781e-05
-5.64238e-06
5.39372e-05
-5.57358e-06
6.08578e-05
-5.25331e-06
6.82234e-05
-4.62215e-06
7.60075e-05
-3.61283e-06
8.41723e-05
-2.149e-06
9.26671e-05
-1.43693e-07
0.000101428
2.50236e-06
0.000110375
5.90305e-06
0.000119416
1.01895e-05
0.00012844
1.55135e-05
0.000137319
2.20524e-05
0.000145912
3.00136e-05
0.000154057
3.96417e-05
0.000161579
5.1226e-05
0.000168287
6.51101e-05
0.000173981
8.17028e-05
0.000178456
0.00010149
0.000181522
0.000125044
0.000183024
0.000153033
0.0001829
0.000186209
0.000181268
0.000225371
0.000178592
0.000271262
0.000175973
0.000324323
0.00017566
0.00018195
0.000384167
-3.93336e-08
5.97304e-07
-1.54693e-07
1.94304e-06
-3.45573e-07
3.51465e-06
-6.09978e-07
5.3336e-06
-9.43728e-07
7.42158e-06
-1.34084e-06
9.80112e-06
-1.79239e-06
1.24942e-05
-2.2871e-06
1.55232e-05
-2.81087e-06
1.89102e-05
-3.34631e-06
2.26747e-05
-3.87288e-06
2.68354e-05
-4.3657e-06
3.14065e-05
-4.79605e-06
3.64e-05
-5.13007e-06
4.1823e-05
-5.32921e-06
4.76772e-05
-5.34904e-06
5.3957e-05
-5.13931e-06
6.0648e-05
-4.64284e-06
6.77269e-05
-3.79482e-06
7.51595e-05
-2.5221e-06
8.28995e-05
-7.41866e-07
9.08869e-05
1.63955e-06
9.90463e-05
4.7285e-06
0.000107286
8.64632e-06
0.000115498
1.3532e-05
0.000123554
1.95459e-05
0.000131306
2.68738e-05
0.000138584
3.57331e-05
0.000145198
4.63789e-05
0.000150933
5.91134e-05
0.000155553
7.42951e-05
0.000158799
9.23525e-05
0.000160399
0.000113798
0.000160076
0.000139244
0.000157578
0.000169413
0.000152732
0.000205135
0.000145546
0.000247317
0.000136409
0.000296833
0.000126456
0.000354248
0.000118246
0.000117046
0.000419151
-4.25858e-08
6.39889e-07
-1.66425e-07
2.06688e-06
-3.70046e-07
3.71827e-06
-6.50295e-07
5.61385e-06
-1.00205e-06
7.77334e-06
-1.41803e-06
1.02171e-05
-1.88826e-06
1.29644e-05
-2.40021e-06
1.60352e-05
-2.9379e-06
1.94479e-05
-3.48233e-06
2.32192e-05
-4.01032e-06
2.73634e-05
-4.49503e-06
3.18913e-05
-4.90468e-06
3.68096e-05
-5.20217e-06
4.21205e-05
-5.34496e-06
4.782e-05
-5.28419e-06
5.38962e-05
-4.96478e-06
6.03286e-05
-4.32437e-06
6.70865e-05
-3.29271e-06
7.41278e-05
-1.79047e-06
8.13973e-05
2.7166e-07
8.88248e-05
2.99427e-06
9.63237e-05
6.49113e-06
0.00010379
1.08914e-05
0.000111098
1.63424e-05
0.000118103
2.30131e-05
0.000124635
3.10985e-05
0.000130498
4.08257e-05
0.000135471
5.24604e-05
0.000139298
6.63165e-05
0.000141697
8.27664e-05
0.000142349
0.000102256
0.000140909
0.000125322
0.00013701
0.000152608
0.000130291
0.000184887
0.000120453
0.000223065
0.000107368
0.000268158
9.1317e-05
0.000321187
7.34273e-05
0.000382879
5.65537e-05
4.70667e-05
0.000452858
-4.59551e-08
6.85844e-07
-1.79092e-07
2.20001e-06
-3.97197e-07
3.93638e-06
-6.96197e-07
5.91285e-06
-1.0703e-06
8.14744e-06
-1.51104e-06
1.06578e-05
-2.00787e-06
1.34613e-05
-2.54683e-06
1.65742e-05
-3.1104e-06
2.00114e-05
-3.6773e-06
2.37861e-05
-4.22193e-06
2.79081e-05
-4.71435e-06
3.23837e-05
-5.11954e-06
3.72148e-05
-5.39703e-06
4.2398e-05
-5.5001e-06
4.79231e-05
-5.37565e-06
5.37718e-05
-4.96359e-06
5.99166e-05
-4.19619e-06
6.63191e-05
-2.99712e-06
7.29288e-05
-1.28059e-06
7.96808e-05
1.04976e-06
8.64944e-05
4.10225e-06
9.32712e-05
7.99896e-06
9.98929e-05
1.28779e-05
0.000106219
1.88959e-05
0.000112085
2.62319e-05
0.000117299
3.50917e-05
0.000121639
4.57132e-05
0.000124849
5.83742e-05
0.000126637
7.3401e-05
0.00012667
9.11803e-05
0.00012457
0.000112174
0.000119915
0.000136939
0.000112245
0.000166148
0.000101083
0.000200614
8.59865e-05
0.000241309
6.66726e-05
0.000289355
4.32716e-05
0.000345929
1.68531e-05
0.000411959
-9.47593e-06
-2.81517e-05
0.000487177
-4.944e-08
7.35284e-07
-1.92576e-07
2.34315e-06
-4.2683e-07
4.17063e-06
-7.47623e-07
6.23364e-06
-1.14812e-06
8.54793e-06
-1.61899e-06
1.11287e-05
-2.14808e-06
1.39904e-05
-2.71981e-06
1.71459e-05
-3.3149e-06
2.06065e-05
-3.90979e-06
2.4381e-05
-4.47644e-06
2.84747e-05
-4.9819e-06
3.28891e-05
-5.38783e-06
3.76208e-05
-5.64988e-06
4.26601e-05
-5.71721e-06
4.79904e-05
-5.53199e-06
5.35866e-05
-5.02879e-06
5.94134e-05
-4.13383e-06
6.54242e-05
-2.76414e-06
7.15591e-05
-8.26585e-07
7.77432e-05
1.78334e-06
8.38845e-05
5.18293e-06
8.98716e-05
9.50408e-06
9.55718e-05
1.48955e-05
0.000100828
2.15256e-05
0.000105455
2.95859e-05
0.000109239
3.92953e-05
0.000111929
5.09062e-05
0.000113238
6.47108e-05
0.000112833
8.10512e-05
0.00011033
0.00010033
0.000105291
0.000123027
9.72186e-05
0.000149716
8.5556e-05
0.000181093
6.97054e-05
0.000218004
4.90757e-05
0.000261472
2.32045e-05
0.000312708
-7.96429e-06
0.000373042
-4.34806e-05
0.000443628
-8.00626e-05
-0.000108923
0.0005244
-5.32036e-08
7.88488e-07
-2.06963e-07
2.49691e-06
-4.58159e-07
4.42183e-06
-8.0153e-07
6.57702e-06
-1.22924e-06
8.97564e-06
-1.73071e-06
1.16302e-05
-2.29217e-06
1.45518e-05
-2.89635e-06
1.77501e-05
-3.52188e-06
2.12321e-05
-4.14295e-06
2.5002e-05
-4.7288e-06
2.90606e-05
-5.24334e-06
3.34037e-05
-5.64456e-06
3.8022e-05
-5.88399e-06
4.28995e-05
-5.90615e-06
4.80126e-05
-5.6479e-06
5.33283e-05
-5.0378e-06
5.88033e-05
-3.99525e-06
6.43816e-05
-2.42964e-06
6.99935e-05
-2.39207e-07
7.55528e-05
2.69018e-06
8.09551e-05
6.48661e-06
8.60752e-05
1.1294e-05
9.07644e-05
1.72744e-05
9.48473e-05
2.46108e-05
9.81185e-05
3.35109e-05
0.000100339
4.42111e-05
0.000101229
5.69825e-05
0.000100467
7.21371e-05
9.7678e-05
9.00373e-05
9.24296e-05
0.000111107
8.42219e-05
0.000135844
7.24811e-05
0.000164844
5.65564e-05
0.000198819
3.57298e-05
0.000238637
9.25803e-06
0.000285352
-2.3511e-05
0.000340238
-6.28497e-05
0.00040475
-0.000107992
0.000480278
-0.000155591
-0.000195692
0.000567046
-5.67125e-08
8.452e-07
-2.20218e-07
2.66041e-06
-4.86866e-07
4.68848e-06
-8.50709e-07
6.94086e-06
-1.30278e-06
9.42771e-06
-1.83106e-06
1.21585e-05
-2.42012e-06
1.51409e-05
-3.0506e-06
1.83805e-05
-3.69896e-06
2.18804e-05
-4.33679e-06
2.56399e-05
-4.93035e-06
2.96541e-05
-5.43999e-06
3.39133e-05
-5.81969e-06
3.84017e-05
-6.01634e-06
4.30962e-05
-5.96918e-06
4.79654e-05
-5.609e-06
5.29681e-05
-4.85745e-06
5.80517e-05
-3.62602e-06
6.31502e-05
-1.81509e-06
6.81825e-05
6.87315e-07
7.30504e-05
4.00695e-06
7.76355e-05
8.28507e-06
8.17971e-05
1.36804e-05
8.5369e-05
2.03718e-05
8.81559e-05
2.8561e-05
8.99293e-05
3.84764e-05
9.04232e-05
5.03773e-05
8.93281e-05
6.45595e-05
8.62846e-05
8.13618e-05
8.08758e-05
0.000101174
7.26178e-05
0.000124446
6.09498e-05
0.000151703
4.52241e-05
0.00018356
2.46991e-05
0.000220747
-1.45722e-06
0.000264138
-3.41334e-05
0.000314796
-7.41687e-05
0.000374015
-0.000122068
0.000443328
-0.000177305
0.000524331
-0.000236594
-0.000288983
0.000617622
-5.961e-08
9.0481e-07
-2.30856e-07
2.83166e-06
-5.0956e-07
4.96718e-06
-8.88662e-07
7.31996e-06
-1.3584e-06
9.89745e-06
-1.9052e-06
1.27053e-05
-2.51177e-06
1.57475e-05
-3.15653e-06
1.90253e-05
-3.81326e-06
2.25371e-05
-4.4505e-06
2.62771e-05
-5.03107e-06
3.02347e-05
-5.51136e-06
3.43936e-05
-5.84074e-06
3.8731e-05
-5.96083e-06
4.32163e-05
-5.80476e-06
4.78093e-05
-5.29634e-06
5.24597e-05
-4.34912e-06
5.71045e-05
-2.86534e-06
6.16664e-05
-7.34708e-07
6.60519e-05
2.16698e-06
7.01487e-05
5.9795e-06
7.38229e-05
1.08601e-05
7.69165e-05
1.69859e-05
7.92432e-05
2.45564e-05
8.05854e-05
3.37969e-05
8.06888e-05
4.49621e-05
7.9258e-05
5.83406e-05
7.59495e-05
7.42602e-05
7.0365e-05
9.30939e-05
6.20421e-05
0.000115267
5.04447e-05
0.000141265
3.49513e-05
0.000171646
1.48433e-05
0.000207051
-1.07053e-05
0.000248222
-4.26281e-05
0.00029603
-8.1942e-05
0.000351517
-0.000129656
0.000415948
-0.000186499
0.000490859
-0.000252216
0.000577981
-0.000323716
-0.000389327
0.000678325
-6.17601e-08
9.6657e-07
-2.38301e-07
3.0082e-06
-5.24213e-07
5.25309e-06
-9.11348e-07
7.7071e-06
-1.38863e-06
1.03747e-05
-1.9411e-06
1.32577e-05
-2.54964e-06
1.6356e-05
-3.19023e-06
1.96659e-05
-3.83356e-06
2.31805e-05
-4.44463e-06
2.68882e-05
-4.98216e-06
3.07722e-05
-5.39791e-06
3.48094e-05
-5.636e-06
3.89691e-05
-5.63196e-06
4.32122e-05
-5.31189e-06
4.74893e-05
-4.59142e-06
5.17393e-05
-3.37468e-06
5.58877e-05
-1.55299e-06
5.98447e-05
9.9654e-07
6.35024e-05
4.41266e-06
6.67326e-05
8.8519e-06
6.93837e-05
1.44908e-05
7.12775e-05
2.15286e-05
7.22054e-05
3.01901e-05
7.19239e-05
4.07292e-05
7.01497e-05
5.3433e-05
6.65542e-05
6.86262e-05
6.07563e-05
8.66763e-05
5.23149e-05
0.000107999
4.07196e-05
0.000133063
2.53802e-05
0.0001624
5.61488e-06
0.000196605
-1.93619e-05
0.00023635
-5.04503e-05
0.00028239
-8.86682e-05
0.000335582
-0.000135134
0.000396915
-0.000190988
0.000467568
-0.000257153
0.00054899
-0.000333638
0.000642926
-0.000417652
-0.00049717
0.000750769
-6.27614e-08
1.02933e-06
-2.41174e-07
3.18661e-06
-5.28394e-07
5.54031e-06
-9.1488e-07
8.09358e-06
-1.38747e-06
1.08473e-05
-1.9295e-06
1.37998e-05
-2.51959e-06
1.69461e-05
-3.13113e-06
2.02774e-05
-3.73181e-06
2.37811e-05
-4.28267e-06
2.7439e-05
-4.73769e-06
3.12272e-05
-5.04337e-06
3.5115e-05
-5.13749e-06
3.90633e-05
-4.94855e-06
4.30233e-05
-4.39448e-06
4.69352e-05
-3.38146e-06
5.07262e-05
-1.80259e-06
5.43089e-05
4.63525e-07
5.75786e-05
3.55453e-06
6.04114e-05
7.62626e-06
6.26608e-05
1.2855e-05
6.4155e-05
1.944e-05
6.46925e-05
2.76066e-05
6.40388e-05
3.76095e-05
6.1921e-05
4.97366e-05
5.80226e-05
6.43134e-05
5.19774e-05
8.17073e-05
4.33624e-05
0.000102332
3.16897e-05
0.000126655
1.63972e-05
0.000155196
-3.16109e-06
0.000188537
-2.77264e-05
0.000227321
-5.81457e-05
0.000272252
-9.53809e-05
0.000324096
-0.000140512
0.000383683
-0.000194721
0.000451924
-0.00025923
0.000529856
-0.000335084
0.000618732
-0.000422514
0.000720152
-0.000519072
-0.000612771
0.000835753
-6.22573e-08
1.09159e-06
-2.38034e-07
3.36239e-06
-5.19103e-07
5.82138e-06
-8.93959e-07
8.46844e-06
-1.3474e-06
1.13008e-05
-1.86007e-06
1.43124e-05
-2.4077e-06
1.74937e-05
-2.96084e-06
2.08306e-05
-3.4834e-06
2.43037e-05
-3.93245e-06
2.78881e-05
-4.25692e-06
3.15517e-05
-4.39715e-06
3.52553e-05
-4.28385e-06
3.895e-05
-3.83723e-06
4.25767e-05
-2.96566e-06
4.60636e-05
-1.56442e-06
4.9325e-05
4.8607e-07
5.22584e-05
3.3219e-06
5.47428e-05
7.09775e-06
5.66355e-05
1.19891e-05
5.77694e-05
1.81951e-05
5.7949e-05
2.59412e-05
5.69465e-05
3.54827e-05
5.44973e-05
4.71086e-05
5.0295e-05
6.11459e-05
4.39854e-05
7.79634e-05
3.51598e-05
9.79772e-05
2.33487e-05
0.000121654
8.01269e-06
0.000149517
-1.14651e-05
0.000182144
-3.57882e-05
0.000220172
-6.57552e-05
0.000264294
-0.000102268
0.000315248
-0.000146334
0.000373806
-0.00019907
0.000440764
-0.000261679
0.000516926
-0.000335393
0.000603134
-0.000421292
0.000700346
-0.000519726
0.000809821
-0.000628548
-0.000736102
0.000933153
-6.00455e-08
1.15163e-06
-2.27941e-07
3.53028e-06
-4.93763e-07
6.0872e-06
-8.44022e-07
8.8187e-06
-1.26109e-06
1.17178e-05
-1.72262e-06
1.4774e-05
-2.201e-06
1.79721e-05
-2.66271e-06
2.12923e-05
-3.06747e-06
2.47085e-05
-3.36747e-06
2.81881e-05
-3.50621e-06
3.16904e-05
-3.41732e-06
3.51664e-05
-3.0237e-06
3.85563e-05
-2.23601e-06
4.1789e-05
-9.51845e-07
4.47795e-05
9.46209e-07
4.74269e-05
3.59212e-06
4.96125e-05
7.13867e-06
5.11962e-05
1.17599e-05
5.20143e-05
1.76535e-05
5.18758e-05
2.50443e-05
5.05582e-05
3.41872e-05
4.78036e-05
4.53711e-05
4.33134e-05
5.89233e-05
3.67428e-05
7.52135e-05
2.76952e-05
9.46586e-05
1.57148e-05
0.000117727
2.80309e-07
0.000144942
-1.92026e-05
0.000176886
-4.34089e-05
0.000214197
-7.30996e-05
0.00025757
-0.000109128
0.000307744
-0.000152441
0.000365488
-0.000204079
0.000431579
-0.000265161
0.000506761
-0.000336861
0.000591717
-0.000420349
0.000687047
-0.000516622
0.000793324
-0.000626004
0.000911273
-0.000746496
-0.000866741
0.00104191
-5.59576e-08
1.20759e-06
-2.10224e-07
3.68455e-06
-4.5086e-07
6.32784e-06
-7.62012e-07
9.12985e-06
-1.1233e-06
1.20791e-05
-1.50916e-06
1.51598e-05
-1.88819e-06
1.83511e-05
-2.22231e-06
2.16264e-05
-2.46629e-06
2.49524e-05
-2.56631e-06
2.82881e-05
-2.45946e-06
3.15836e-05
-2.07183e-06
3.47788e-05
-1.31756e-06
3.78021e-05
-9.70524e-08
4.05685e-05
1.70428e-06
4.29781e-05
4.21787e-06
4.49133e-05
7.59399e-06
4.62364e-05
1.20041e-05
4.67861e-05
1.76438e-05
4.63747e-05
2.47355e-05
4.47841e-05
3.35322e-05
4.17616e-05
4.43209e-05
3.70148e-05
5.74273e-05
3.0207e-05
7.32195e-05
2.09507e-05
9.2113e-05
8.8017e-06
0.000114575
-6.74721e-06
0.000141128
-2.6273e-05
0.000172354
-5.04285e-05
0.000208893
-7.99476e-05
0.000251442
-0.000115648
0.000300748
-0.000158434
0.000357594
-0.000209287
0.000422774
-0.000269259
0.000497056
-0.000339443
0.000581126
-0.000420932
0.000675522
-0.000514745
0.000780575
-0.000621674
0.000896422
-0.000741851
0.00102309
-0.000873159
-0.00100385
0.00116019
-4.98911e-08
1.25748e-06
-1.84466e-07
3.81913e-06
-3.89427e-07
6.5328e-06
-6.46185e-07
9.38661e-06
-9.31183e-07
1.23641e-05
-1.21521e-06
1.54438e-05
-1.46261e-06
1.85985e-05
-1.63047e-06
2.17943e-05
-1.66762e-06
2.49896e-05
-1.51375e-06
2.81342e-05
-1.09812e-06
3.1168e-05
-3.38266e-07
3.40189e-05
8.61596e-07
3.66022e-05
2.61226e-06
3.88178e-05
5.04161e-06
4.05488e-05
8.29641e-06
4.16585e-05
1.25449e-05
4.19879e-05
1.7979e-05
4.13519e-05
2.48179e-05
3.95358e-05
3.33107e-05
3.62913e-05
4.37407e-05
3.13315e-05
5.64295e-05
2.43261e-05
7.17408e-05
1.48956e-05
9.00857e-05
2.60582e-06
0.000111926
-1.3039e-05
0.000137781
-3.26015e-05
0.000168225
-5.6717e-05
0.000203894
-8.60983e-05
0.000245485
-0.000121538
0.000293746
-0.000163909
0.000349468
-0.000214157
0.00041347
-0.000273289
0.000486557
-0.000342346
0.00056948
-0.000422366
0.000662857
-0.000514309
0.000767075
-0.000618963
0.000882172
-0.000736771
0.0010078
-0.000867475
0.00114318
-0.00100854
-0.00114649
0.00128581
-4.18283e-08
1.29931e-06
-1.50566e-07
3.92786e-06
-3.09184e-07
6.69142e-06
-4.95949e-07
9.57337e-06
-6.83692e-07
1.25519e-05
-8.39036e-07
1.55992e-05
-9.21554e-07
1.8681e-05
-8.82817e-07
2.17555e-05
-6.65346e-07
2.47721e-05
-2.01421e-07
2.76703e-05
5.8824e-07
3.03783e-05
1.79577e-06
3.28114e-05
3.52814e-06
3.48698e-05
5.90873e-06
3.64372e-05
9.07982e-06
3.73777e-05
1.32049e-05
3.75335e-05
1.84712e-05
3.67216e-05
2.50929e-05
3.47302e-05
3.33141e-05
3.13147e-05
4.34122e-05
2.61932e-05
5.57025e-05
1.90412e-05
7.05419e-05
9.48666e-06
8.83335e-05
-2.89593e-06
0.000109531
-1.85916e-05
0.000134642
-3.81504e-05
0.000164233
-6.21926e-05
0.000198929
-9.14129e-05
0.000239415
-0.000126584
0.000286431
-0.000168554
0.000340767
-0.000218245
0.000403247
-0.000276637
0.000474705
-0.000344746
0.000555946
-0.000423587
0.000647696
-0.000514116
0.000750522
-0.000617134
0.000864709
-0.00073315
0.000990083
-0.000862145
0.00112576
-0.00100315
0.00126967
-0.00115245
-0.00129353
0.00141671
-3.181e-08
1.33112e-06
-1.08661e-07
4.00472e-06
-2.104e-07
6.79316e-06
-3.11714e-07
9.67469e-06
-3.81346e-07
1.26215e-05
-3.81241e-07
1.55991e-05
-2.65618e-07
1.85654e-05
2.00883e-08
2.14698e-05
5.4039e-07
2.42518e-05
1.37106e-06
2.68396e-05
2.6006e-06
2.91488e-05
4.33192e-06
3.10801e-05
6.68403e-06
3.25177e-05
9.79432e-06
3.33269e-05
1.38208e-05
3.33512e-05
1.89448e-05