/*--------------------------------*- C++ -*----------------------------------*\
  =========                 |
  \\      /  F ield         | OpenFOAM: The Open Source CFD Toolbox
   \\    /   O peration     | Website:  https://openfoam.org
    \\  /    A nd           | Version:  7
     \\/     M anipulation  |
\*---------------------------------------------------------------------------*/
FoamFile
{
    version     2.0;
    format      ascii;
    class       volVectorField;
    location    "8";
    object      U;
}
// * * * * * * * * * * * * * * * * * * * * * * * * * * * * * * * * * * * * * //

dimensions      [0 1 -1 0 0 0 0];

internalField   nonuniform List<vector> 
344
(
(2.6665 0.0194952 4.62973e-16)
(2.65899 0.019372 4.54191e-16)
(2.65154 0.0192503 4.50285e-16)
(2.64417 0.0191301 4.41725e-16)
(2.63686 0.0190114 4.27904e-16)
(2.62962 0.0188939 4.33631e-16)
(2.62244 0.0187778 4.39864e-16)
(2.61533 0.0186628 4.23282e-16)
(2.60829 0.018549 4.19569e-16)
(2.60131 0.0184363 4.23239e-16)
(2.59439 0.0183246 4.29131e-16)
(2.58754 0.0182138 4.25471e-16)
(2.58074 0.018104 4.17426e-16)
(2.57401 0.017995 4.06424e-16)
(2.56734 0.0178869 4.10355e-16)
(2.56073 0.0177794 4.10909e-16)
(2.55418 0.0176727 4.10079e-16)
(2.54769 0.0175667 4.15631e-16)
(2.54126 0.0174613 4.21831e-16)
(2.53488 0.0173564 4.19437e-16)
(2.52856 0.0172521 4.11454e-16)
(2.5223 0.0171484 4.10191e-16)
(2.5161 0.0170451 4.15253e-16)
(2.50995 0.0169422 4.24452e-16)
(2.50385 0.0168398 4.28189e-16)
(2.49781 0.0167377 4.34609e-16)
(2.49183 0.016636 4.2619e-16)
(2.48589 0.0165347 4.31722e-16)
(2.48002 0.0164336 4.32036e-16)
(2.47419 0.0163329 4.26857e-16)
(2.46842 0.0162324 4.30192e-16)
(2.46269 0.0161322 4.48764e-16)
(2.45702 0.0160323 4.41881e-16)
(2.4514 0.0159325 4.40267e-16)
(2.44583 0.015833 4.33284e-16)
(2.44031 0.0157337 4.43195e-16)
(2.43484 0.0156345 4.42212e-16)
(2.42942 0.0155355 4.23154e-16)
(2.42404 0.0154367 4.35273e-16)
(2.41872 0.0153381 4.47362e-16)
(2.41344 0.0152396 4.52906e-16)
(2.40821 0.0151412 4.62284e-16)
(2.40303 0.015043 4.6493e-16)
(2.39789 0.0149449 4.81296e-16)
(2.3928 0.0148469 4.75017e-16)
(2.38775 0.0147491 4.76238e-16)
(2.38275 0.0146514 4.75798e-16)
(2.3778 0.0145538 4.84978e-16)
(2.37289 0.0144563 4.93413e-16)
(2.36802 0.0143589 4.95207e-16)
(2.3632 0.0142617 5.0797e-16)
(2.35842 0.0141646 5.15086e-16)
(2.35368 0.0140676 5.21104e-16)
(2.34899 0.0139707 5.1792e-16)
(2.34434 0.013874 5.09783e-16)
(2.33973 0.0137774 5.2222e-16)
(2.33517 0.0136809 5.40151e-16)
(2.33064 0.0135845 5.23458e-16)
(2.64404 0.0254037 4.50729e-16)
(2.63551 0.0252039 4.17848e-16)
(2.62707 0.0250068 4.23539e-16)
(2.61872 0.0248124 4.04108e-16)
(2.61048 0.0246207 4.14648e-16)
(2.60232 0.0244315 4.22055e-16)
(2.59425 0.0242448 4.22169e-16)
(2.58628 0.0240606 4.39226e-16)
(2.57839 0.0238787 3.99072e-16)
(2.5706 0.0236991 4.22284e-16)
(2.56289 0.0235217 3.87387e-16)
(2.55526 0.0233464 4.06054e-16)
(2.54772 0.0231733 3.82214e-16)
(2.54027 0.0230021 4.02915e-16)
(2.5329 0.0228329 4.03109e-16)
(2.52561 0.0226655 4.42704e-16)
(2.5184 0.0225 3.62286e-16)
(2.51127 0.0223361 4.05275e-16)
(2.50422 0.022174 3.83552e-16)
(2.49725 0.0220135 4.23932e-16)
(2.49036 0.0218545 3.61677e-16)
(2.48354 0.0216971 3.88198e-16)
(2.4768 0.0215411 4.04923e-16)
(2.47013 0.0213865 4.33813e-16)
(2.46353 0.0212332 3.91274e-16)
(2.45701 0.0210813 4.32256e-16)
(2.45056 0.0209306 3.92584e-16)
(2.44417 0.0207811 4.25482e-16)
(2.43786 0.0206327 4.00123e-16)
(2.43162 0.0204855 4.12863e-16)
(2.42544 0.0203393 4.4208e-16)
(2.41934 0.0201942 4.46852e-16)
(2.41329 0.0200501 4.74779e-16)
(2.40732 0.019907 4.29668e-16)
(2.4014 0.0197648 4.66671e-16)
(2.39556 0.0196235 4.27208e-16)
(2.38977 0.0194831 4.64433e-16)
(2.38405 0.0193436 4.35663e-16)
(2.37839 0.0192048 4.57499e-16)
(2.37279 0.0190669 4.66013e-16)
(2.36724 0.0189298 5.14571e-16)
(2.36176 0.0187934 4.31211e-16)
(2.35634 0.0186577 4.78665e-16)
(2.35098 0.0185228 4.40834e-16)
(2.34567 0.0183885 4.89263e-16)
(2.34042 0.018255 4.26077e-16)
(2.33522 0.0181221 4.63379e-16)
(2.33008 0.0179898 4.79423e-16)
(2.32499 0.0178582 5.21353e-16)
(2.31996 0.0177272 4.86902e-16)
(2.31498 0.0175968 5.18665e-16)
(2.31006 0.017467 4.91022e-16)
(2.30518 0.0173378 5.24922e-16)
(2.30036 0.0172091 5.03477e-16)
(2.29559 0.0170811 5.26326e-16)
(2.29087 0.0169536 5.43377e-16)
(2.2862 0.0168266 5.49204e-16)
(2.28157 0.0167002 5.77306e-16)
(2.277 0.0165743 5.39694e-16)
(2.27247 0.0164489 5.86568e-16)
(2.26799 0.0163241 5.58806e-16)
(2.26356 0.0161998 5.80721e-16)
(2.25917 0.016076 5.59919e-16)
(2.25483 0.0159527 5.85729e-16)
(2.25054 0.01583 5.91548e-16)
(2.24628 0.0157077 6.30391e-16)
(2.24208 0.015586 5.51775e-16)
(2.52905 0.0302926 2.5654e-16)
(2.52034 0.0300178 2.44502e-16)
(2.51175 0.0297466 2.4615e-16)
(2.50327 0.0294791 2.64467e-16)
(2.4949 0.029215 2.54136e-16)
(2.48665 0.0289544 2.56286e-16)
(2.4785 0.0286973 2.55777e-16)
(2.47047 0.0284435 2.68871e-16)
(2.46254 0.0281929 2.57764e-16)
(2.45472 0.0279456 2.61916e-16)
(2.447 0.0277014 2.58994e-16)
(2.43938 0.0274603 2.56336e-16)
(2.43186 0.0272222 2.83158e-16)
(2.42445 0.0269869 2.81535e-16)
(2.41713 0.0267546 2.78513e-16)
(2.4099 0.026525 2.9353e-16)
(2.40278 0.0262981 3.12512e-16)
(2.39574 0.0260739 3.11508e-16)
(2.3888 0.0258522 2.97941e-16)
(2.38195 0.025633 3.01471e-16)
(2.37519 0.0254163 3.19065e-16)
(2.36852 0.025202 3.112e-16)
(2.36193 0.0249899 3.0141e-16)
(2.35543 0.0247802 3.17636e-16)
(2.34901 0.0245726 3.05069e-16)
(2.34268 0.0243671 3.24145e-16)
(2.33643 0.0241638 3.19843e-16)
(2.33026 0.0239625 3.15034e-16)
(2.32417 0.0237632 3.46583e-16)
(2.31816 0.0235658 3.44408e-16)
(2.31222 0.0233703 3.52185e-16)
(2.30636 0.0231766 3.56438e-16)
(2.30058 0.0229847 3.76154e-16)
(2.29487 0.0227946 3.68374e-16)
(2.28923 0.0226062 3.83725e-16)
(2.28366 0.0224195 3.73068e-16)
(2.27817 0.0222344 3.69914e-16)
(2.27274 0.0220509 4.16223e-16)
(2.26738 0.0218689 4.09047e-16)
(2.26209 0.0216885 4.1095e-16)
(2.25687 0.0215096 4.28496e-16)
(2.25171 0.0213321 4.48667e-16)
(2.24662 0.0211561 4.46564e-16)
(2.24158 0.0209815 4.29564e-16)
(2.23662 0.0208082 4.28644e-16)
(2.23171 0.0206363 4.57805e-16)
(2.22686 0.0204657 4.36455e-16)
(2.22208 0.0202965 4.44289e-16)
(2.21735 0.0201285 4.595e-16)
(2.21268 0.0199617 4.57771e-16)
(2.20807 0.0197962 4.66901e-16)
(2.20351 0.0196319 4.63696e-16)
(2.19901 0.0194688 4.65987e-16)
(2.19457 0.0193068 5.02534e-16)
(2.19018 0.019146 5.02449e-16)
(2.18584 0.0189864 5.03205e-16)
(2.18156 0.0188278 4.9872e-16)
(2.17732 0.0186704 5.2405e-16)
(2.17314 0.018514 5.26347e-16)
(2.16901 0.0183587 5.40453e-16)
(2.16492 0.0182045 5.30307e-16)
(2.16089 0.0180513 5.33413e-16)
(2.1569 0.0178992 5.6797e-16)
(2.15297 0.0177481 5.64518e-16)
(2.14907 0.0175979 5.68136e-16)
(2.14523 0.0174488 5.76566e-16)
(2.14143 0.0173007 5.93839e-16)
(2.39181 0.0351359 6.8993e-17)
(2.38321 0.0347719 5.68237e-17)
(2.37474 0.034413 8.23239e-17)
(2.3664 0.034059 7.14814e-17)
(2.3582 0.03371 9.1837e-17)
(2.35012 0.0333657 1.03795e-16)
(2.34216 0.0330262 1.14778e-16)
(2.33433 0.0326914 1.36426e-16)
(2.32662 0.0323612 1.10185e-16)
(2.31902 0.0320356 1.36741e-16)
(2.31155 0.0317143 1.24286e-16)
(2.30419 0.0313974 1.45749e-16)
(2.29694 0.0310848 1.37967e-16)
(2.2898 0.0307764 1.62039e-16)
(2.28278 0.0304721 1.71463e-16)
(2.27586 0.0301717 2.09744e-16)
(2.26904 0.0298754 1.58355e-16)
(2.26233 0.0295828 2.02542e-16)
(2.25573 0.0292941 1.83353e-16)
(2.24922 0.029009 2.20012e-16)
(2.24281 0.0287276 1.78506e-16)
(2.2365 0.0284497 2.12622e-16)
(2.23028 0.0281752 2.30973e-16)
(2.22416 0.0279042 2.57316e-16)
(2.21813 0.0276364 2.31958e-16)
(2.21218 0.0273719 2.65852e-16)
(2.20633 0.0271106 2.42126e-16)
(2.20057 0.0268524 2.66908e-16)
(2.19489 0.0265972 2.60935e-16)
(2.1893 0.026345 2.8444e-16)
(2.18378 0.0260957 2.99978e-16)
(2.17835 0.0258493 3.14319e-16)
(2.173 0.0256057 3.43741e-16)
(2.16773 0.0253648 3.12248e-16)
(2.16254 0.0251266 3.48032e-16)
(2.15742 0.024891 3.26787e-16)
(2.15238 0.024658 3.4589e-16)
(2.14741 0.0244276 3.35797e-16)
(2.14251 0.0241996 3.69141e-16)
(2.13769 0.023974 3.80386e-16)
(2.13293 0.0237509 4.10823e-16)
(2.12824 0.02353 3.63171e-16)
(2.12362 0.0233115 4.01919e-16)
(2.11907 0.0230952 3.82535e-16)
(2.11458 0.0228811 4.25667e-16)
(2.11015 0.0226692 3.7592e-16)
(2.10579 0.0224594 4.06673e-16)
(2.10149 0.0222517 4.25561e-16)
(2.09725 0.0220461 4.55358e-16)
(2.09307 0.0218425 4.30837e-16)
(2.08894 0.0216408 4.67093e-16)
(2.08488 0.0214411 4.3792e-16)
(2.08087 0.0212434 4.6791e-16)
(2.07692 0.0210475 4.48742e-16)
(2.07302 0.0208534 4.75492e-16)
(2.06918 0.0206612 4.93383e-16)
(2.06539 0.0204708 5.10891e-16)
(2.06165 0.0202821 5.3631e-16)
(2.05796 0.0200952 5.11877e-16)
(2.05433 0.0199099 5.43644e-16)
(2.05074 0.0197264 5.16509e-16)
(2.0472 0.0195445 5.37549e-16)
(2.04371 0.0193643 5.25294e-16)
(2.04026 0.0191856 5.53372e-16)
(2.03687 0.0190086 5.66533e-16)
(2.03351 0.018833 5.99868e-16)
(2.03021 0.0186591 5.40575e-16)
(2.23305 0.039643 -1.41111e-16)
(2.22491 0.0391808 -1.34333e-16)
(2.21692 0.0387254 -1.25693e-16)
(2.20907 0.0382767 -9.60229e-17)
(2.20136 0.0378348 -9.11722e-17)
(2.19379 0.0373995 -7.82579e-17)
(2.18635 0.0369706 -6.78496e-17)
(2.17904 0.0365482 -4.8638e-17)
(2.17186 0.036132 -4.87323e-17)
(2.1648 0.0357221 -2.86008e-17)
(2.15787 0.0353182 -2.18115e-17)
(2.15106 0.0349203 -1.82703e-17)
(2.14437 0.0345283 1.20644e-17)
(2.1378 0.034142 1.70685e-17)
(2.13134 0.0337614 2.19515e-17)
(2.125 0.0333863 3.93902e-17)
(2.11876 0.0330166 6.05628e-17)
(2.11264 0.0326523 6.91375e-17)
(2.10662 0.0322932 6.47337e-17)
(2.1007 0.0319393 7.5984e-17)
(2.09489 0.0315904 9.72829e-17)
(2.08918 0.0312464 9.80029e-17)
(2.08356 0.0309072 1.05106e-16)
(2.07804 0.0305728 1.1816e-16)
(2.07262 0.030243 1.18343e-16)
(2.06729 0.0299177 1.44609e-16)
(2.06205 0.029597 1.44188e-16)
(2.0569 0.0292806 1.43606e-16)
(2.05184 0.0289684 1.81859e-16)
(2.04686 0.0286605 1.8189e-16)
(2.04197 0.0283567 1.92265e-16)
(2.03716 0.028057 2.02058e-16)
(2.03243 0.0277612 2.2433e-16)
(2.02778 0.0274692 2.24842e-16)
(2.02321 0.0271811 2.36998e-16)
(2.01871 0.0268967 2.4066e-16)
(2.01429 0.026616 2.40869e-16)
(2.00994 0.0263389 2.7699e-16)
(2.00567 0.0260653 2.81271e-16)
(2.00146 0.0257951 2.85285e-16)
(1.99733 0.0255283 2.99577e-16)
(1.99326 0.0252649 3.2561e-16)
(1.98926 0.0250047 3.27139e-16)
(1.98532 0.0247477 3.21295e-16)
(1.98145 0.0244939 3.32683e-16)
(1.97764 0.0242431 3.53008e-16)
(1.97389 0.0239954 3.5191e-16)
(1.9702 0.0237506 3.53408e-16)
(1.96657 0.0235087 3.70779e-16)
(1.963 0.0232697 3.65876e-16)
(1.95949 0.0230335 3.79584e-16)
(1.95603 0.0228001 3.7957e-16)
(1.95262 0.0225694 3.83585e-16)
(1.94927 0.0223413 4.1905e-16)
(1.94598 0.0221159 4.18303e-16)
(1.94273 0.021893 4.25838e-16)
(1.93953 0.0216726 4.32045e-16)
(1.93639 0.0214547 4.56756e-16)
(1.93329 0.0212393 4.54261e-16)
(1.93024 0.0210262 4.69067e-16)
(1.92724 0.0208155 4.67709e-16)
(1.92428 0.0206071 4.65363e-16)
(1.92137 0.020401 4.92078e-16)
(1.91851 0.0201971 4.96184e-16)
(1.91568 0.0199955 4.99495e-16)
(1.9129 0.019796 5.12853e-16)
(1.91016 0.0195986 5.33656e-16)
(2.05504 0.0434803 -3.00036e-16)
(2.04777 0.0429185 -3.02703e-16)
(2.04064 0.0423657 -2.77675e-16)
(2.03365 0.0418217 -2.68996e-16)
(2.0268 0.0412865 -2.43232e-16)
(2.02009 0.0407599 -2.14013e-16)
(2.01351 0.0402418 -1.99098e-16)
(2.00706 0.039732 -1.66521e-16)
(2.00074 0.0392305 -1.81716e-16)
(1.99455 0.038737 -1.45608e-16)
(1.98848 0.0382514 -1.53341e-16)
(1.98253 0.0377737 -1.23036e-16)
(1.97669 0.0373036 -1.30868e-16)
(1.97098 0.036841 -9.32774e-17)
(1.96537 0.0363857 -8.34754e-17)
(1.95988 0.0359378 -4.46233e-17)
(1.95449 0.0354969 -8.39203e-17)
(1.94922 0.035063 -3.81292e-17)
)
;

boundaryField
{
    inlet
    {
        type            uniformFixedValue;
        uniformValue    constant (1 0 0);
        value           nonuniform 0();
    }
    outlet
    {
        type            pressureInletOutletVelocity;
        value           nonuniform 0();
    }
    wall
    {
        type            fixedValue;
        value           nonuniform 0();
    }
    wedge1
    {
        type            wedge;
    }
    wedge2
    {
        type            wedge;
    }
    axis
    {
        type            empty;
    }
    procBoundary10to4
    {
        type            processor;
        value           nonuniform List<vector> 
68
(
(2.74315 0.0154707 4.92877e-16)
(2.73594 0.0153888 5.2688e-16)
(2.72879 0.0153081 4.93979e-16)
(2.72169 0.0152285 4.76585e-16)
(2.71464 0.01515 4.40319e-16)
(2.70764 0.0150725 4.81946e-16)
(2.70069 0.0149959 4.63912e-16)
(2.69379 0.0149201 4.54162e-16)
(2.68694 0.014845 4.13939e-16)
(2.68014 0.0147707 4.68278e-16)
(2.6734 0.0146971 4.40444e-16)
(2.6667 0.014624 4.48152e-16)
(2.66004 0.0145515 4.04463e-16)
(2.65344 0.0144795 4.58919e-16)
(2.64688 0.0144079 4.15157e-16)
(2.64037 0.0143367 4.72427e-16)
(2.63391 0.0142658 4.26012e-16)
(2.62749 0.0141953 4.68527e-16)
(2.62112 0.014125 4.45925e-16)
(2.6148 0.014055 4.24788e-16)
(2.60852 0.0139851 4.22606e-16)
(2.60229 0.0139154 3.88086e-16)
(2.5961 0.0138458 4.51652e-16)
(2.58995 0.0137763 4.01175e-16)
(2.58385 0.0137069 4.66941e-16)
(2.5778 0.0136376 4.22549e-16)
(2.57179 0.0135682 4.75532e-16)
(2.56582 0.0134989 4.43908e-16)
(2.55989 0.0134295 4.30602e-16)
(2.55401 0.0133601 3.87659e-16)
(2.54817 0.0132907 4.46322e-16)
(2.54237 0.0132211 4.29134e-16)
(2.53661 0.0131515 4.32661e-16)
(2.5309 0.0130818 3.93927e-16)
(2.52523 0.013012 4.49357e-16)
(2.5196 0.0129421 4.3625e-16)
(2.51401 0.012872 4.32225e-16)
(2.50846 0.0128018 3.86958e-16)
(2.50296 0.0127314 4.58083e-16)
(2.49749 0.012661 4.19684e-16)
(2.49207 0.0125903 4.73862e-16)
(2.48668 0.0125195 4.37952e-16)
(2.48134 0.0124486 4.88618e-16)
(2.47603 0.0123775 4.62179e-16)
(2.47077 0.0123062 4.44492e-16)
(2.46555 0.0122347 4.40871e-16)
(2.46036 0.0121631 4.09616e-16)
(2.45522 0.0120914 4.69738e-16)
(2.45011 0.0120195 4.42128e-16)
(2.44504 0.0119474 5.02257e-16)
(2.44001 0.0118752 4.6861e-16)
(2.43502 0.0118028 5.19205e-16)
(2.43007 0.0117303 4.87548e-16)
(2.42516 0.0116577 4.79343e-16)
(2.42028 0.0115849 4.43261e-16)
(2.41545 0.011512 5.05901e-16)
(2.41065 0.011439 4.91137e-16)
(2.40588 0.0113658 4.77217e-16)
(2.73736 0.020687 5.4397e-16)
(2.72919 0.0205463 5.26952e-16)
(2.72109 0.0204078 5.21297e-16)
(2.71308 0.0202716 5.00683e-16)
(2.70513 0.0201374 4.98578e-16)
(2.69726 0.0200052 4.86153e-16)
(2.68946 0.019875 4.80492e-16)
(2.68174 0.0197466 4.71015e-16)
(2.67409 0.0196201 4.72841e-16)
(2.67409 0.0196201 4.72841e-16)
)
;
    }
    procBoundary10to5
    {
        type            processor;
        value           uniform (2.32616 0.0134883 5.1768e-16);
    }
    procBoundary10to9
    {
        type            processor;
        value           nonuniform List<vector> 3((2.65267 0.0256063 4.40955e-16) (2.53788 0.0305711 2.53725e-16) (2.40055 0.0355049 5.35084e-17));
    }
    procBoundary10to11
    {
        type            processor;
        value           nonuniform List<vector> 4((2.23792 0.0154647 5.96875e-16) (2.13767 0.0171535 5.87449e-16) (2.02694 0.0184866 5.77528e-16) (1.90746 0.0194033 5.33151e-16));
    }
    procBoundary10to15
    {
        type            processor;
        value           nonuniform List<vector> 2((2.24133 0.0401122 -1.53721e-16) (2.06246 0.0440512 -3.32135e-16));
    }
    procBoundary10to16
    {
        type            processor;
        value           nonuniform List<vector> 
68
(
(1.94404 0.0346359 -4.91291e-17)
(1.93897 0.0342156 -4.78984e-18)
(1.93399 0.0338018 -3.71738e-17)
(1.92911 0.0333944 3.27577e-18)
(1.92433 0.0329934 1.95555e-17)
(1.91964 0.0325986 5.31399e-17)
(1.91505 0.0322099 3.2824e-17)
(1.91054 0.0318271 7.39611e-17)
(1.90612 0.0314502 5.25011e-17)
(1.90178 0.031079 8.77604e-17)
(1.89753 0.0307134 8.00203e-17)
(1.89336 0.0303533 1.07541e-16)
(1.88927 0.0299986 1.38279e-16)
(1.88526 0.0296492 1.50977e-16)
(1.88133 0.029305 1.88131e-16)
(1.87747 0.0289659 1.60169e-16)
(1.87368 0.0286317 1.94011e-16)
(1.86997 0.0283025 1.68372e-16)
(1.86632 0.027978 1.99679e-16)
(1.86275 0.0276583 1.86944e-16)
(1.85924 0.0273431 2.25736e-16)
(1.8558 0.0270325 2.37922e-16)
(1.85242 0.0267263 2.68457e-16)
(1.84911 0.0264244 2.22493e-16)
(1.84585 0.0261268 2.699e-16)
(1.84266 0.0258333 2.51859e-16)
(1.83953 0.025544 2.94902e-16)
(1.83645 0.0252586 2.52073e-16)
(1.83343 0.0249772 2.994e-16)
(1.83047 0.0246997 3.10675e-16)
(1.82756 0.024426 3.46567e-16)
(1.8247 0.0241559 3.19675e-16)
(1.8219 0.0238895 3.52113e-16)
(1.81914 0.0236267 3.29389e-16)
(1.81644 0.0233674 3.57e-16)
(1.81378 0.0231115 3.50943e-16)
(1.81117 0.022859 3.81429e-16)
(1.80861 0.0226098 4.1259e-16)
(1.80609 0.0223638 4.18233e-16)
(1.80362 0.0221211 4.42593e-16)
(1.80119 0.0218814 4.15202e-16)
(1.7988 0.0216449 4.39452e-16)
(1.79646 0.0214113 4.17025e-16)
(1.79415 0.0211807 4.44819e-16)
(1.79189 0.020953 4.28733e-16)
(1.78966 0.0207282 4.6574e-16)
(1.78747 0.0205062 4.72687e-16)
(1.78532 0.0202869 5.00039e-16)
(1.78321 0.0200703 4.50509e-16)
(1.86158 0.0463141 -4.54382e-16)
(1.85555 0.0456611 -4.6195e-16)
(1.84965 0.0450192 -4.25219e-16)
(1.84388 0.0443883 -4.11222e-16)
(1.83824 0.0437682 -3.82139e-16)
(1.83273 0.0431588 -3.40461e-16)
(1.82734 0.0425599 -3.58299e-16)
(1.82207 0.0419713 -3.06866e-16)
(1.81692 0.0413928 -3.25749e-16)
(1.81189 0.0408243 -2.75431e-16)
(1.80697 0.0402656 -2.9524e-16)
(1.80216 0.0397165 -2.55533e-16)
(1.79745 0.0391769 -2.4762e-16)
(1.79286 0.0386465 -2.005e-16)
(1.78836 0.0381252 -2.23162e-16)
(1.78397 0.0376129 -1.77611e-16)
(1.77968 0.0371094 -1.78959e-16)
(1.94404 0.0346359 -4.91291e-17)
(1.77548 0.0366144 -1.2987e-16)
)
;
    }
}


// ************************************************************************* //
