/*--------------------------------*- C++ -*----------------------------------*\
  =========                 |
  \\      /  F ield         | OpenFOAM: The Open Source CFD Toolbox
   \\    /   O peration     | Website:  https://openfoam.org
    \\  /    A nd           | Version:  7
     \\/     M anipulation  |
\*---------------------------------------------------------------------------*/
FoamFile
{
    version     2.0;
    format      ascii;
    class       volScalarField;
    location    "2.1";
    object      T;
}
// * * * * * * * * * * * * * * * * * * * * * * * * * * * * * * * * * * * * * //

dimensions      [0 0 0 1 0 0 0];

internalField   nonuniform List<scalar> 
84
(
1.18719
1.17729
1.1719
1.16863
1.16434
1.15802
1.15072
1.14248
1.13348
1.12471
1.11615
1.10694
1.09711
1.08671
1.07552
1.06732
1.06257
1.06044
1.05902
1.0576
1.05346
1.18564
1.17904
1.17492
1.17055
1.16481
1.15761
1.1493
1.14053
1.13205
1.12429
1.11625
1.10691
1.09638
1.08476
1.0733
1.06476
1.0604
1.05838
1.05672
1.05458
1.04973
1.1967
1.19189
1.18687
1.18068
1.17296
1.16409
1.15547
1.14821
1.14191
1.13539
1.12739
1.117
1.10405
1.08953
1.07718
1.07018
1.06705
1.06479
1.06272
1.06018
1.05304
1.18728
1.18251
1.17753
1.17137
1.1633
1.15398
1.14569
1.13926
1.13385
1.12791
1.12008
1.10969
1.0958
1.07928
1.06627
1.06106
1.05875
1.05669
1.05464
1.05193
1.04434
)
;

boundaryField
{
    inlet
    {
        type            fixedValue;
        value           nonuniform 0();
    }
    outlet
    {
        type            inletOutlet;
        inletValue      uniform 1;
        value           nonuniform List<scalar> 4(1.05327 1.04951 1.05265 1.04384);
    }
    bottom
    {
        type            symmetryPlane;
    }
    top
    {
        type            symmetryPlane;
    }
    obstacle
    {
        type            zeroGradient;
    }
    defaultFaces
    {
        type            empty;
    }
    procBoundary47to41
    {
        type            processor;
        value           nonuniform List<scalar> 
21
(
1.19833
1.18178
1.16902
1.16521
1.16403
1.16223
1.15757
1.14997
1.13923
1.12848
1.11961
1.1115
1.10407
1.09724
1.08755
1.0775
1.07019
1.06546
1.0642
1.06623
1.09267
)
;
    }
    procBoundary47to46
    {
        type            processor;
        value           nonuniform List<scalar> 4(1.19882 1.19573 1.20319 1.19321);
    }
}


// ************************************************************************* //
