/*--------------------------------*- C++ -*----------------------------------*\
  =========                 |
  \\      /  F ield         | OpenFOAM: The Open Source CFD Toolbox
   \\    /   O peration     | Website:  https://openfoam.org
    \\  /    A nd           | Version:  7
     \\/     M anipulation  |
\*---------------------------------------------------------------------------*/
FoamFile
{
    version     2.0;
    format      ascii;
    class       volVectorField;
    location    "4";
    object      U;
}
// * * * * * * * * * * * * * * * * * * * * * * * * * * * * * * * * * * * * * //

dimensions      [0 1 -1 0 0 0 0];

internalField   nonuniform List<vector> 
344
(
(1.31548 -0.137341 -2.05706e-15)
(1.31738 -0.163764 -2.10802e-15)
(1.32051 -0.195905 -2.13703e-15)
(1.32554 -0.235243 -2.29139e-15)
(1.33356 -0.283737 -2.43148e-15)
(1.3464 -0.344076 -2.62993e-15)
(1.36738 -0.419801 -2.79677e-15)
(1.4017 -0.516253 -3.04723e-15)
(1.46253 -0.637996 -3.27072e-15)
(1.55916 -0.798785 -3.51272e-15)
(1.74039 -0.95721 -3.63373e-15)
(1.9674 -1.22712 -3.33631e-15)
(1.23301 -0.00418909 2.46449e-16)
(1.23265 -0.00412748 1.74078e-16)
(1.23229 -0.00406761 -3.96212e-17)
(1.23194 -0.00400954 -1.17516e-16)
(1.23159 -0.00395334 -1.43711e-16)
(1.23125 -0.00389912 -1.86184e-16)
(1.23092 -0.003847 -1.73793e-16)
(1.23058 -0.00379712 -3.06686e-16)
(1.23025 -0.00374968 -3.1756e-16)
(1.22993 -0.00370489 -4.36793e-16)
(1.22961 -0.00366302 -4.75657e-16)
(1.22929 -0.00362439 -5.96346e-16)
(1.22898 -0.00358936 -6.29873e-16)
(1.22867 -0.0035584 -6.79733e-16)
(1.22837 -0.00353204 -7.1013e-16)
(1.22807 -0.00351091 -7.78517e-16)
(1.22777 -0.00349576 -8.0917e-16)
(1.22747 -0.00348749 -9.56148e-16)
(1.22718 -0.00348715 -1.00038e-15)
(1.22689 -0.00349597 -1.1195e-15)
(1.2266 -0.00351544 -1.18385e-15)
(1.22631 -0.00354728 -1.18597e-15)
(1.22602 -0.00359356 -1.15853e-15)
(1.22573 -0.00365668 -1.23768e-15)
(1.22544 -0.00373952 -1.22916e-15)
(1.22515 -0.00384544 -1.34823e-15)
(1.22486 -0.00397842 -1.39602e-15)
(1.22456 -0.00414319 -1.54083e-15)
(1.22426 -0.00434527 -1.58634e-15)
(1.22395 -0.00459125 -1.5944e-15)
(1.22363 -0.00488887 -1.5558e-15)
(1.2233 -0.00524727 -1.48682e-15)
(1.22295 -0.00567729 -1.56461e-15)
(1.22259 -0.00619173 -1.59103e-15)
(1.22221 -0.00680572 -1.6518e-15)
(1.2218 -0.00753719 -1.65604e-15)
(1.22136 -0.00840737 -1.7517e-15)
(1.22089 -0.00944144 -1.80134e-15)
(1.22038 -0.0106693 -1.81776e-15)
(1.21982 -0.0121263 -1.8013e-15)
(1.2192 -0.0138549 -1.85134e-15)
(1.21851 -0.0159051 -1.86557e-15)
(1.21775 -0.0183372 -1.95131e-15)
(1.21689 -0.0212227 -1.96566e-15)
(1.21592 -0.0246477 -2.06792e-15)
(1.21483 -0.0287156 -2.09619e-15)
(1.2136 -0.0335511 -2.09675e-15)
(1.2122 -0.039305 -2.08327e-15)
(1.21061 -0.0461608 -2.16669e-15)
(1.20881 -0.0543428 -2.18472e-15)
(1.20677 -0.064127 -2.28491e-15)
(1.20448 -0.0758555 -2.30615e-15)
(1.20191 -0.0899559 -2.45993e-15)
(1.19905 -0.106969 -2.51473e-15)
(1.1959 -0.127586 -2.5447e-15)
(1.19252 -0.152708 -2.54119e-15)
(1.18899 -0.183524 -2.55817e-15)
(1.18551 -0.221656 -2.73524e-15)
(1.18246 -0.269348 -2.82061e-15)
(1.18058 -0.329909 -3.04019e-15)
(1.18134 -0.408198 -3.16359e-15)
(1.18783 -0.512512 -3.4208e-15)
(1.20776 -0.654915 -3.62039e-15)
(1.25375 -0.862185 -3.70014e-15)
(1.37807 -1.13658 -3.45792e-15)
(1.4568 -1.49771 -2.4619e-15)
(2.1081 -0.737675 -2.79445e-15)
(1.91126 -0.419474 -2.47975e-15)
(1.6901 -0.227949 -2.14936e-15)
(1.5262 -0.112745 -1.89743e-15)
(1.25969 -0.588682 -1.38133e-15)
(0.718918 -0.189819 -1.00481e-15)
(0.53166 -0.0498818 -7.56204e-16)
(0.467667 -0.00353352 -6.33649e-16)
(1.16607 -0.00375191 -1.97511e-16)
(1.16566 -0.00369672 -1.45137e-16)
(1.16525 -0.0036431 -4.64213e-16)
(1.16485 -0.00359112 -5.1928e-16)
(1.16445 -0.00354084 -4.34307e-16)
(1.16406 -0.00349236 -4.17211e-16)
(1.16368 -0.0034458 -4.18992e-16)
(1.1633 -0.00340129 -6.89354e-16)
(1.16292 -0.003359 -6.01063e-16)
(1.16255 -0.00331914 -8.66987e-16)
(1.16219 -0.00328195 -7.74439e-16)
(1.16183 -0.00324773 -1.03869e-15)
(1.16147 -0.00321682 -9.80883e-16)
(1.16112 -0.00318964 -9.51183e-16)
(1.16077 -0.00316669 -9.45894e-16)
(1.16043 -0.00314856 -1.20175e-15)
(1.16009 -0.00313593 -1.12018e-15)
(1.15975 -0.00312963 -1.37172e-15)
(1.15941 -0.00313064 -1.27682e-15)
(1.15908 -0.00314011 -1.53499e-15)
(1.15874 -0.00315938 -1.47155e-15)
(1.15841 -0.00319008 -1.45857e-15)
(1.15807 -0.00323409 -1.41756e-15)
(1.15774 -0.00329366 -1.64864e-15)
(1.1574 -0.00337143 -1.54711e-15)
(1.15706 -0.00347051 -1.78824e-15)
(1.15671 -0.0035946 -1.70731e-15)
(1.15636 -0.00374805 -1.94363e-15)
(1.15599 -0.00393599 -1.94254e-15)
(1.15562 -0.00416449 -1.86774e-15)
(1.15523 -0.00444073 -1.82167e-15)
(1.15483 -0.00477318 -1.73807e-15)
(1.1544 -0.00517187 -1.94848e-15)
(1.15395 -0.00564863 -1.85759e-15)
(1.15347 -0.00621752 -2.05504e-15)
(1.15295 -0.00689513 -1.96024e-15)
(1.15239 -0.00770116 -2.16371e-15)
(1.15177 -0.00865897 -2.09177e-15)
(1.1511 -0.00979629 -2.08207e-15)
(1.15035 -0.0111461 -2.03703e-15)
(1.14951 -0.0127476 -2.24218e-15)
(1.14857 -0.0146477 -2.14644e-15)
(1.14751 -0.0169022 -2.3596e-15)
(1.14631 -0.019578 -2.26386e-15)
(1.14494 -0.0227555 -2.47428e-15)
(1.14337 -0.0265313 -2.40158e-15)
(1.14157 -0.0310222 -2.35209e-15)
(1.1395 -0.0363697 -2.32127e-15)
(1.13711 -0.0427464 -2.54001e-15)
(1.13435 -0.0503636 -2.46202e-15)
(1.13116 -0.0594819 -2.66856e-15)
(1.12746 -0.0704255 -2.58667e-15)
(1.12318 -0.0836005 -2.83201e-15)
(1.11821 -0.0995227 -2.85245e-15)
(1.11246 -0.118854 -2.7822e-15)
(1.1058 -0.142461 -2.77699e-15)
(1.09809 -0.171494 -2.76371e-15)
(1.08918 -0.207529 -3.04174e-15)
(1.0789 -0.252767 -3.03164e-15)
(1.06707 -0.310471 -3.33785e-15)
(1.05329 -0.385474 -3.36465e-15)
(1.03728 -0.485976 -3.69786e-15)
(1.01618 -0.623798 -3.72085e-15)
(0.983831 -0.820572 -3.5917e-15)
(0.889108 -1.05502 -3.00442e-15)
(0.541975 -1.06018 -1.52316e-15)
(1.13046 -0.00352505 -4.79683e-16)
(1.13003 -0.00347319 -4.85717e-16)
(1.1296 -0.00342282 -7.67595e-16)
(1.12917 -0.003374 -7.30547e-16)
(1.12875 -0.0033268 -7.65246e-16)
(1.12834 -0.0032813 -7.41992e-16)
(1.12794 -0.00323762 -7.19521e-16)
(1.12754 -0.00319589 -9.47187e-16)
(1.12714 -0.00315627 -9.38944e-16)
(1.12675 -0.00311896 -1.14567e-15)
(1.12637 -0.00308418 -1.11085e-15)
(1.12599 -0.00305223 -1.32398e-15)
(1.12561 -0.00302344 -1.33585e-15)
(1.12524 -0.0029982 -1.29966e-15)
(1.12487 -0.00297699 -1.2435e-15)
(1.12451 -0.00296036 -1.44825e-15)
(1.12415 -0.00294899 -1.44119e-15)
(1.12379 -0.00294366 -1.63481e-15)
(1.12343 -0.0029453 -1.60029e-15)
(1.12308 -0.00295501 -1.80265e-15)
(1.12272 -0.00297408 -1.79884e-15)
(1.12237 -0.00300406 -1.77266e-15)
(1.12201 -0.00304676 -1.73236e-15)
(1.12166 -0.00310431 -1.90744e-15)
(1.1213 -0.00317925 -1.85817e-15)
(1.12093 -0.00327455 -2.05783e-15)
(1.12056 -0.00339374 -2.02954e-15)
(1.12018 -0.00354098 -2.22095e-15)
(1.11979 -0.00372119 -2.15333e-15)
(1.11939 -0.00394016 -2.17161e-15)
(1.11897 -0.00420476 -2.11081e-15)
(1.11853 -0.00452309 -2.0386e-15)
(1.11807 -0.00490473 -2.19221e-15)
(1.11758 -0.00536103 -2.16659e-15)
(1.11705 -0.00590541 -2.31577e-15)
(1.11647 -0.00655378 -2.26982e-15)
(1.11585 -0.00732497 -2.42456e-15)
(1.11517 -0.00824135 -2.41494e-15)
(1.11441 -0.00932949 -2.38077e-15)
(1.11357 -0.010621 -2.32921e-15)
(1.11263 -0.0121534 -2.49335e-15)
(1.11157 -0.0139717 -2.45113e-15)
(1.11037 -0.0161293 -2.61345e-15)
(1.109 -0.0186907 -2.56236e-15)
(1.10743 -0.0217328 -2.72637e-15)
(1.10563 -0.0253485 -2.70903e-15)
(1.10355 -0.02965 -2.66146e-15)
(1.10115 -0.0347736 -2.60706e-15)
(1.09838 -0.0408852 -2.78072e-15)
(1.09515 -0.0481885 -2.76326e-15)
(1.09139 -0.0569347 -2.91896e-15)
(1.087 -0.0674364 -2.88435e-15)
(1.08188 -0.0800862 -3.071e-15)
(1.07588 -0.095382 -3.01498e-15)
(1.06885 -0.113965 -3.04008e-15)
(1.06058 -0.136671 -3.02831e-15)
(1.05081 -0.164615 -3.00664e-15)
(1.03925 -0.19932 -3.22592e-15)
(1.02542 -0.242909 -3.26831e-15)
(1.00874 -0.298502 -3.52463e-15)
(0.987957 -0.370675 -3.57521e-15)
(0.961354 -0.46688 -3.85091e-15)
(0.92213 -0.596938 -3.86104e-15)
(0.858838 -0.773567 -3.62509e-15)
(0.698524 -0.952339 -2.89607e-15)
(0.345263 -0.847852 -1.35052e-15)
(1.0938 -0.00329732 -6.49499e-16)
(1.09334 -0.00324882 -6.49372e-16)
(1.09289 -0.00320172 -9.30588e-16)
(1.09245 -0.00315608 -9.24013e-16)
(1.09202 -0.00311197 -9.12332e-16)
(1.09159 -0.00306947 -8.68924e-16)
(1.09116 -0.00302868 -8.50759e-16)
(1.09075 -0.00298973 -1.06385e-15)
(1.09034 -0.00295278 -1.06367e-15)
(1.08993 -0.00291802 -1.29707e-15)
(1.08953 -0.00288566 -1.26398e-15)
(1.08913 -0.00285597 -1.48553e-15)
(1.08874 -0.00282928 -1.48347e-15)
(1.08835 -0.00280596 -1.43874e-15)
(1.08797 -0.00278646 -1.36478e-15)
(1.08759 -0.00277131 -1.58006e-15)
(1.08721 -0.00276116 -1.5586e-15)
(1.08684 -0.00275674 -1.7633e-15)
(1.08646 -0.00275895 -1.73242e-15)
(1.08609 -0.00276882 -1.94735e-15)
(1.08572 -0.0027876 -1.93001e-15)
(1.08535 -0.00281676 -1.89449e-15)
(1.08498 -0.002858 -1.84349e-15)
(1.0846 -0.00291337 -2.01749e-15)
(1.08422 -0.00298529 -1.98799e-15)
(1.08384 -0.00307658 -2.18825e-15)
(1.08345 -0.0031906 -2.1498e-15)
(1.08305 -0.00333131 -2.34693e-15)
(1.08263 -0.00350339 -2.31882e-15)
(1.0822 -0.00371238 -2.28315e-15)
(1.08176 -0.00396479 -2.21855e-15)
(1.08129 -0.00426835 -2.13449e-15)
(1.08079 -0.00463219 -2.30969e-15)
(1.08026 -0.00506711 -2.27525e-15)
(1.07968 -0.00558591 -2.44325e-15)
(1.07906 -0.00620373 -2.38781e-15)
(1.07839 -0.00693854 -2.56349e-15)
(1.07764 -0.00781167 -2.53307e-15)
(1.07681 -0.00884843 -2.49702e-15)
(1.07589 -0.010079 -2.43666e-15)
(1.07485 -0.0115391 -2.5997e-15)
(1.07368 -0.0132718 -2.5612e-15)
(1.07234 -0.0153281 -2.72962e-15)
(1.07081 -0.0177694 -2.67754e-15)
(1.06906 -0.0206693 -2.84584e-15)
(1.06704 -0.0241166 -2.82304e-15)
(1.06471 -0.0282186 -2.7586e-15)
(1.06201 -0.0331055 -2.69895e-15)
(1.05886 -0.0389363 -2.86867e-15)
(1.05519 -0.0459059 -2.86254e-15)
(1.0509 -0.0542548 -3.03609e-15)
(1.04587 -0.0642825 -2.98127e-15)
(1.03996 -0.0763649 -3.16997e-15)
(1.03299 -0.0909791 -3.14841e-15)
(1.02475 -0.108738 -3.12843e-15)
(1.01497 -0.130442 -3.08388e-15)
(1.00328 -0.157154 -3.05465e-15)
(0.989222 -0.190319 -3.27361e-15)
(0.9721 -0.231939 -3.31393e-15)
(0.950952 -0.284913 -3.56109e-15)
(0.923857 -0.35339 -3.59533e-15)
(0.888034 -0.443688 -3.85944e-15)
(0.834256 -0.562943 -3.80296e-15)
(0.749149 -0.714377 -3.45631e-15)
(0.558102 -0.839699 -2.64336e-15)
(0.239234 -0.669325 -1.17468e-15)
(1.05608 -0.00306964 -8.733e-16)
(1.05561 -0.0030245 -7.91581e-16)
(1.05515 -0.00298067 -1.14066e-15)
(1.05469 -0.00293821 -1.12018e-15)
(1.05424 -0.00289719 -1.04555e-15)
(1.0538 -0.00285768 -1.00344e-15)
(1.05336 -0.00281978 -9.49979e-16)
(1.05293 -0.00278362 -1.26273e-15)
(1.05251 -0.00274933 -1.19644e-15)
(1.05209 -0.00271711 -1.48336e-15)
(1.05167 -0.00268715 -1.38707e-15)
(1.05126 -0.00265971 -1.66291e-15)
(1.05086 -0.00263509 -1.6367e-15)
(1.05046 -0.00261367 -1.55871e-15)
(1.05006 -0.00259585 -1.46696e-15)
(1.04967 -0.00258214 -1.75888e-15)
(1.04928 -0.00257316 -1.68537e-15)
(1.04889 -0.0025696 -1.93359e-15)
(1.0485 -0.00257231 -1.83871e-15)
(1.04812 -0.00258227 -2.1219e-15)
(1.04773 -0.00260067 -2.07669e-15)
(1.04735 -0.00262888 -2.01446e-15)
(1.04696 -0.00266854 -1.93978e-15)
(1.04657 -0.00272158 -2.17011e-15)
(1.04618 -0.00279029 -2.1152e-15)
(1.04577 -0.00287735 -2.37089e-15)
(1.04537 -0.00298594 -2.25866e-15)
(1.04495 -0.00311982 -2.52761e-15)
(1.04451 -0.00328343 -2.48476e-15)
(1.04406 -0.003482 -2.39429e-15)
(1.04359 -0.00372172 -2.30939e-15)
(1.04309 -0.00400992 -2.22131e-15)
(1.04256 -0.00435526 -2.45143e-15)
(1.042 -0.00476797 -2.37641e-15)
(1.04139 -0.0052602 -2.60108e-15)
(1.04072 -0.00584631 -2.48159e-15)
(1.04 -0.00654334 -2.72e-15)
(1.03919 -0.00737154 -2.65415e-15)
(1.0383 -0.00835494 -2.58927e-15)
(1.0373 -0.00952213 -2.51255e-15)
(1.03617 -0.0109072 -2.73734e-15)
(1.03489 -0.0125508 -2.66339e-15)
(1.03343 -0.0145015 -2.89038e-15)
(1.03176 -0.0168177 -2.75805e-15)
(1.02984 -0.0195693 -3.01145e-15)
(1.02763 -0.0228407 -2.9385e-15)
(1.02505 -0.0267339 -2.85413e-15)
(1.02206 -0.0313729 -2.77737e-15)
(1.01858 -0.0369087 -2.996e-15)
(1.0145 -0.0435266 -2.94751e-15)
(1.00971 -0.0514557 -3.1716e-15)
(1.00408 -0.0609804 -3.05217e-15)
(0.997441 -0.0724579 -3.3142e-15)
(0.989573 -0.0863409 -3.26289e-15)
(0.980215 -0.10321 -3.1789e-15)
(0.969029 -0.123823 -3.12265e-15)
(0.955565 -0.149177 -3.09094e-15)
(0.939223 -0.180624 -3.34652e-15)
(0.919105 -0.220015 -3.34855e-15)
(0.893952 -0.26997 -3.63999e-15)
)
;

boundaryField
{
    inlet
    {
        type            uniformFixedValue;
        uniformValue    constant (1 0 0);
        value           nonuniform 0();
    }
    outlet
    {
        type            pressureInletOutletVelocity;
        value           nonuniform 0();
    }
    wall
    {
        type            fixedValue;
        value           uniform (0 0 0);
    }
    wedge1
    {
        type            wedge;
    }
    wedge2
    {
        type            wedge;
    }
    axis
    {
        type            empty;
    }
    procBoundary20to14
    {
        type            processor;
        value           nonuniform List<vector> 
71
(
(1.42856 -0.143445 -1.43334e-15)
(1.43575 -0.170195 -1.53133e-15)
(1.44539 -0.202355 -1.54931e-15)
(1.45848 -0.241125 -1.96817e-15)
(1.47656 -0.287964 -1.95767e-15)
(1.50189 -0.344669 -2.37205e-15)
(1.5383 -0.413099 -2.38096e-15)
(1.59055 -0.495661 -2.76761e-15)
(1.66921 -0.590578 -2.93569e-15)
(1.77955 -0.70617 -3.14458e-15)
(1.94289 -0.784972 -3.33195e-15)
(2.17034 -0.955369 -3.53266e-15)
(1.32438 -0.00481316 5.05349e-16)
(1.32412 -0.0047425 4.54574e-16)
(1.32387 -0.00467379 2.68302e-16)
(1.32363 -0.00460709 2.67069e-16)
(1.32338 -0.00454249 2.6695e-16)
(1.32314 -0.00448011 1.93944e-16)
(1.32291 -0.00442007 2.18992e-16)
(1.32267 -0.00436254 1.10316e-16)
(1.32244 -0.00430772 6.85424e-17)
(1.32222 -0.00425584 -3.23503e-17)
(1.32199 -0.00420721 -9.67505e-17)
(1.32177 -0.00416217 -1.90383e-16)
(1.32155 -0.00412112 -2.43541e-16)
(1.32134 -0.00408458 -3.11118e-16)
(1.32113 -0.00405311 -3.02349e-16)
(1.32092 -0.00402742 -4.16318e-16)
(1.32071 -0.00400832 -4.17855e-16)
(1.3205 -0.00399681 -5.54474e-16)
(1.3203 -0.00399402 -5.88851e-16)
(1.3201 -0.00400132 -7.35446e-16)
(1.3199 -0.00402032 -7.66909e-16)
(1.31971 -0.00405294 -8.07076e-16)
(1.31951 -0.0041014 -7.49072e-16)
(1.31932 -0.00416838 -8.45724e-16)
(1.31913 -0.00425699 -8.61137e-16)
(1.31894 -0.00437094 -9.70447e-16)
(1.31875 -0.00451458 -1.00385e-15)
(1.31856 -0.00469307 -1.14842e-15)
(1.31837 -0.00491249 -1.08017e-15)
(1.31818 -0.00518002 -1.11322e-15)
(1.31799 -0.00550412 -1.0871e-15)
(1.3178 -0.00589481 -1.02812e-15)
(1.31761 -0.00636391 -1.12442e-15)
(1.31741 -0.00692539 -1.12947e-15)
(1.31721 -0.00759578 -1.21243e-15)
(1.31701 -0.0083946 -1.2092e-15)
(1.3168 -0.00934499 -1.28729e-15)
(1.31658 -0.0104743 -1.35246e-15)
(1.31636 -0.0118151 -1.38362e-15)
(1.31613 -0.0134057 -1.34791e-15)
(1.31589 -0.0152919 -1.42748e-15)
(1.31565 -0.0175281 -1.433e-15)
(1.31539 -0.020179 -1.55691e-15)
(1.31512 -0.0233217 -1.55647e-15)
(1.31485 -0.0270484 -1.64503e-15)
(1.31457 -0.0314697 -1.67819e-15)
(1.31429 -0.0367182 -1.69265e-15)
(1.31403 -0.0429537 -1.67846e-15)
(1.31379 -0.0503696 -1.72775e-15)
(1.3136 -0.0592008 -1.75979e-15)
(1.31349 -0.069734 -1.85993e-15)
(1.31353 -0.0823215 -1.89155e-15)
(1.31378 -0.0973991 -2.01153e-15)
(1.31437 -0.115511 -2.05575e-15)
(1.31437 -0.115511 -2.05575e-15)
(2.40667 -0.779914 -3.3847e-15)
(2.44924 -0.571783 -3.22069e-15)
(2.37614 -0.403299 -2.96913e-15)
(2.27534 -0.27357 -2.77756e-15)
)
;
    }
    procBoundary20to15
    {
        type            processor;
        value           uniform (1.41308 -0.0495451 -1.85518e-15);
    }
    procBoundary20to19
    {
        type            processor;
        value           nonuniform List<vector> 5((1.23338 -0.00425238 4.07339e-16) (1.16649 -0.00380864 9.5144e-17) (1.1309 -0.00357836 -2.51506e-16) (1.09426 -0.00334719 -4.18368e-16) (1.05656 -0.00311606 -5.79366e-16));
    }
    procBoundary20to21
    {
        type            processor;
        value           uniform (0.439379 0.00881808 -6.62562e-16);
    }
    procBoundary20to26
    {
        type            processor;
        value           nonuniform List<vector> 
67
(
(0.861344 -0.334122 -3.59825e-15)
(0.817795 -0.417519 -3.90013e-15)
(0.75286 -0.524598 -3.73442e-15)
(0.653279 -0.650937 -3.29947e-15)
(0.452148 -0.733631 -2.45069e-15)
(0.17319 -0.533271 -1.09867e-15)
(1.01731 -0.00284313 -1.1683e-15)
(1.01683 -0.00280134 -1.12693e-15)
(1.01636 -0.00276077 -1.43091e-15)
(1.01589 -0.00272149 -1.31389e-15)
(1.01543 -0.00268354 -1.35167e-15)
(1.01498 -0.002647 -1.26865e-15)
(1.01453 -0.00261198 -1.20359e-15)
(1.01409 -0.00257857 -1.47263e-15)
(1.01366 -0.00254693 -1.50042e-15)
(1.01323 -0.00251721 -1.72595e-15)
(1.0128 -0.00248963 -1.67286e-15)
(1.01238 -0.00246441 -1.9267e-15)
(1.01197 -0.00244184 -1.93906e-15)
(1.01156 -0.00242227 -1.83082e-15)
(1.01115 -0.00240608 -1.76474e-15)
(1.01075 -0.00239378 -1.96672e-15)
(1.01035 -0.0023859 -1.96647e-15)
(1.00995 -0.00238314 -2.16912e-15)
(1.00955 -0.00238628 -2.10449e-15)
(1.00916 -0.00239625 -2.38166e-15)
(1.00876 -0.00241416 -2.36799e-15)
(1.00837 -0.00244132 -2.28401e-15)
(1.00797 -0.00247927 -2.19083e-15)
(1.00757 -0.00252984 -2.38398e-15)
(1.00716 -0.00259516 -2.38841e-15)
(1.00674 -0.00267779 -2.59382e-15)
(1.00632 -0.00278072 -2.52096e-15)
(1.00588 -0.00290749 -2.77482e-15)
(1.00543 -0.0030623 -2.63412e-15)
(1.00496 -0.00325007 -2.64913e-15)
(1.00447 -0.00347666 -2.54698e-15)
(1.00395 -0.00374896 -2.45208e-15)
(1.0034 -0.00407516 -2.65052e-15)
(1.0028 -0.00446492 -2.62995e-15)
(1.00216 -0.00492968 -2.81761e-15)
(1.00146 -0.00548303 -2.72383e-15)
(1.00068 -0.00614104 -2.95376e-15)
(0.999829 -0.00692283 -2.9272e-15)
(0.998877 -0.00785108 -2.82365e-15)
(0.997807 -0.00895281 -2.73649e-15)
(0.996598 -0.0102602 -2.92477e-15)
(0.995225 -0.0118117 -2.90826e-15)
(0.993656 -0.0136532 -3.09592e-15)
(0.991856 -0.0158397 -2.99795e-15)
(0.989781 -0.0184375 -3.22662e-15)
(0.987379 -0.0215263 -3.1879e-15)
(0.98459 -0.0252026 -3.09639e-15)
(0.98134 -0.0295833 -2.99499e-15)
(0.977542 -0.0348113 -3.17219e-15)
(0.973088 -0.0410618 -3.17186e-15)
(0.967851 -0.0485507 -3.35417e-15)
(0.961672 -0.0575466 -3.25932e-15)
(0.954358 -0.0683859 -3.50984e-15)
(0.945666 -0.0814943 -3.36894e-15)
(0.935288 -0.0974164 -3.38358e-15)
(0.922828 -0.116858 -3.30565e-15)
(0.907755 -0.140749 -3.25292e-15)
(0.889359 -0.170328 -3.46824e-15)
(0.866581 -0.207278 -3.52639e-15)
(0.861344 -0.334122 -3.59825e-15)
(0.837938 -0.253906 -3.74617e-15)
)
;
    }
}


// ************************************************************************* //
