/*--------------------------------*- C++ -*----------------------------------*\
  =========                 |
  \\      /  F ield         | OpenFOAM: The Open Source CFD Toolbox
   \\    /   O peration     | Website:  https://openfoam.org
    \\  /    A nd           | Version:  7
     \\/     M anipulation  |
\*---------------------------------------------------------------------------*/
FoamFile
{
    version     2.0;
    format      ascii;
    class       surfaceScalarField;
    location    "18";
    object      phi;
}
// * * * * * * * * * * * * * * * * * * * * * * * * * * * * * * * * * * * * * //

dimensions      [0 3 -1 0 0 0 0];

internalField   nonuniform List<scalar> 
825
(
-0.00127293
0.00998124
-0.0017339
-0.00997211
0.00999193
-0.00162861
0.0100039
-0.0015187
0.0100175
-0.00140548
-0.00128818
0.0103677
-0.00173525
-0.0103663
0.0103708
-0.00163173
0.0103756
-0.00152346
0.0103821
-0.00141206
-0.00129678
0.0107585
-0.0017294
-0.0107644
0.0107546
-0.00162785
0.0107527
-0.00152151
0.0107529
-0.00141222
-0.00129923
0.0111545
-0.00171683
-0.0111671
0.0111441
-0.00161747
0.011136
-0.00151335
0.0111302
-0.00140642
-0.00129597
0.0115563
-0.00169802
-0.0115751
0.0115399
-0.00160105
0.011526
-0.00149942
0.0115146
-0.00139509
-0.00128741
0.0119646
-0.00167339
-0.0119892
0.0119425
-0.00157902
0.0119232
-0.0014801
0.0119067
-0.00137859
-0.0012739
0.01238
-0.00164333
-0.01241
0.0123527
-0.00155173
0.0123283
-0.00145574
0.012307
-0.00135726
-0.00125574
0.0128032
-0.00160817
-0.0128383
0.0127709
-0.00151953
0.0127419
-0.00142666
0.012716
-0.00133139
-0.00123323
0.0132349
-0.00156824
-0.0132748
0.0131981
-0.00148271
0.0131646
-0.00139314
0.0131344
-0.00130125
-0.0012066
0.013676
-0.00152381
-0.0137204
0.0136348
-0.00144155
0.0135971
-0.00135543
0.0135629
-0.00126708
-0.00117608
0.0141272
-0.00147514
-0.0141759
0.0140819
-0.00139627
0.0140403
-0.00131376
0.0140023
-0.00122907
-0.00114187
0.0145896
-0.00142243
-0.0146423
0.0145404
-0.00134709
0.0144949
-0.0012683
0.0144533
-0.00118742
-0.00110413
0.015064
-0.00136589
-0.0151206
0.0150111
-0.00129419
0.014962
-0.00121924
0.0149169
-0.00114227
-0.00106303
0.0155516
-0.00130566
-0.0156118
0.0154951
-0.00123772
0.0154426
-0.00116672
0.0153941
-0.00109378
-0.00101869
0.0160534
-0.00124189
-0.0161172
0.0159935
-0.0011778
0.0159376
-0.00111085
0.0158859
-0.00104205
-0.000971215
0.0165708
-0.00117469
-0.016638
0.0165075
-0.00111454
0.0164484
-0.00105174
0.0163935
-0.000987181
-0.0009207
0.0171049
-0.00110413
-0.0171754
0.0170383
-0.00104802
0.0169761
-0.000989465
0.0169181
-0.000929239
-0.000867214
0.0176571
-0.00103028
-0.0177309
0.0175874
-0.000978305
0.017522
-0.000924078
0.017461
-0.000868283
-0.000810813
0.0182289
-0.000953172
-0.018306
0.018156
-0.000905425
0.0180876
-0.000855618
0.0180236
-0.000804349
-0.000751533
0.0188219
-0.000872832
-0.0189022
0.0187458
-0.0008294
0.0186743
-0.000784104
0.0186074
-0.000737458
-0.000689396
0.0194376
-0.000789257
-0.0195212
0.0193584
-0.000750233
0.0192839
-0.00070954
0.019214
-0.000667617
-0.000624411
0.0200778
-0.000702429
-0.0201647
0.0199955
-0.000667909
0.0199179
-0.000631914
0.0198451
-0.000594816
-0.000556575
0.0207445
-0.00061232
-0.0208346
0.020659
-0.000582401
0.0205782
-0.000551205
0.0205025
-0.000519039
-0.000485875
0.0214395
-0.000518886
-0.0215329
0.0213508
-0.000493672
0.0212669
-0.000467379
0.0211882
-0.000440258
-0.000412287
0.0221651
-0.000422078
-0.0222619
0.0220731
-0.000401675
0.0219861
-0.000380395
0.0219043
-0.000358437
-0.000335785
0.0229237
-0.000321839
-0.023024
0.0228284
-0.000306359
0.0227382
-0.00029021
0.0226533
-0.000273538
-0.000256335
0.023718
-0.000218113
-0.0238217
0.0236193
-0.000207672
0.0235258
-0.000196776
0.0234378
-0.000185523
-0.000173906
0.0245507
-0.000110843
-0.024658
0.0244486
-0.000105563
0.0243519
-0.00010005
0.0242607
-9.43535e-05
-8.84708e-05
0.0254255
-0.0255363
0.0253199
0.0252199
0.0251255
0.00895995
0.00184083
0.00893772
0.00275326
0.0089396
0.00345003
0.00898457
0.0039921
0.00908272
0.00433144
0.00924364
0.00448453
0.0094536
0.00444838
0.0097012
0.00420325
0.00395538
0.00931702
0.000680732
0.00929724
0.00186061
0.00928823
0.00276226
0.0093064
0.00343186
0.00936956
0.00392894
0.00948377
0.00421723
0.00965514
0.00431317
0.0098685
0.00423502
0.0101091
0.00396267
0.00369811
0.00965797
0.000690559
0.00964676
0.00187182
0.00965105
0.00275796
0.00968513
0.00339779
0.00976509
0.00384898
0.00989351
0.00408881
0.0100728
0.00413385
0.0102875
0.00402032
0.0105206
0.00372963
0.0034543
0.0100113
0.000696923
0.0100088
0.00187426
0.0100263
0.00274048
0.0100757
0.00334837
0.010171
0.00375373
0.0103117
0.00394809
0.0104968
0.00394879
0.010711
0.00380608
0.0109362
0.0035044
0.00322346
0.0103773
0.000699737
0.0103837
0.00186782
0.0104141
0.00271009
0.0104782
0.00328434
0.0105871
0.00364477
0.0107382
0.00379699
0.0109271
0.00375988
0.0111394
0.00359383
0.0113566
0.00328715
0.00300498
0.0107565
0.000698951
0.0107718
0.0018525
0.0108147
0.00266721
0.0108925
0.0032066
0.0110135
0.00352373
0.0111731
0.00363741
0.0113642
0.00356878
0.0115732
0.00338479
0.0117824
0.00307795
0.00279818
0.0111493
0.000694562
0.0111734
0.00182838
0.0112282
0.0026124
0.0113187
0.00311618
0.0114502
0.00339222
0.0116164
0.00347116
0.0118083
0.00337692
0.0120131
0.00317996
0.0122142
0.00287683
0.00260239
0.0115562
0.00068661
0.0115889
0.00179565
0.0116549
0.00254637
0.0117569
0.00301421
0.0118973
0.00325184
0.0120685
0.00329995
0.0122599
0.00318553
0.0124598
0.00298006
0.0126529
0.00268372
0.00241694
0.0119775
0.000675173
0.0120185
0.00175463
0.012095
0.00246989
0.0122073
0.00290192
0.012355
0.00310412
0.0125296
0.00312535
0.0127195
0.00299567
0.0129139
0.00278564
0.0130991
0.00249852
0.00224124
0.0124139
0.000660369
0.0124628
0.00170568
0.0125489
0.00238384
0.0126702
0.00278058
0.0128238
0.00295052
0.0130004
0.00294877
0.0131878
0.00280822
0.0133764
0.00259709
0.0135538
0.00232108
0.00207468
0.0128658
0.000642351
0.0129221
0.0016493
0.0130168
0.00228914
0.0131459
0.00265148
0.0133041
0.00279241
0.0134813
0.00277148
0.0136656
0.00262392
0.0138481
0.00241466
0.0140179
0.00215121
0.00191673
0.0133337
0.000621299
0.013397
0.00158604
0.0134993
0.00218677
0.0136349
0.00251591
0.0137963
0.00263106
0.0139732
0.00259457
0.0141537
0.00244337
0.0143299
0.00223848
0.0144924
0.00198869
0.00176687
0.0138182
0.00059742
0.0138878
0.0015165
0.0139968
0.00207771
0.0141376
0.0023751
0.0143011
0.00246765
0.0144767
0.00241895
0.014653
0.00226704
0.0148229
0.00206861
0.0149783
0.00183325
0.00162461
0.01432
0.00057094
0.0143951
0.00144135
0.0145099
0.00196296
0.0146548
0.00223025
0.0148192
0.00230321
0.0149927
0.00224542
0.0151645
0.00209529
0.0153281
0.00190503
0.0154767
0.00168463
0.00148949
0.0148396
0.000542098
0.0149197
0.00136127
0.0150391
0.00184347
0.0151869
0.00208245
0.0153515
0.00213867
0.0155223
0.00207459
0.0156893
0.00192834
0.0158467
0.00174762
0.0159888
0.00154252
0.00136106
0.0153776
0.000511139
0.015462
0.00127694
0.0155853
0.00172017
0.015735
0.0019327
0.0158989
0.00197482
0.0160665
0.00190695
0.0162285
0.00176634
0.0163799
0.00159625
0.0165158
0.0014066
0.00123887
0.0159348
0.000478313
0.0160227
0.00118903
0.016149
0.00159392
0.0162998
0.00178187
0.0164623
0.0018123
0.0166264
0.00174285
0.0167834
0.00160934
0.016929
0.0014507
0.017059
0.00127653
0.00112249
0.0165119
0.000443859
0.0166027
0.00109817
0.0167311
0.00146549
0.0168823
0.00163072
0.017043
0.00165165
0.0172033
0.00158252
0.0173554
0.00145727
0.0174954
0.00131071
0.0176199
0.00115194
0.00101149
0.0171095
0.000408007
0.0172027
0.00100495
0.0173327
0.00133556
0.0174835
0.00147985
0.017642
0.00149321
0.0177984
0.00142603
0.0179457
0.00130999
0.0180805
0.00117596
0.0182
0.00103245
0.000905421
0.0177285
0.000370965
0.0178236
0.000909871
0.0179545
0.00120469
0.0181046
0.00132971
0.0182606
0.00133723
0.0184132
0.00127338
0.0185559
0.00116729
0.0186858
0.0010461
0.0188006
0.000917624
0.000803839
0.0183697
0.000332915
0.0184662
0.000813365
0.0185976
0.00107329
0.0187467
0.00118061
0.0189001
0.00118377
0.0190491
0.0011244
0.0191876
0.00102884
0.019313
0.00092068
0.0194236
0.000807021
0.000706274
0.0190339
0.000294003
0.0191315
0.000715751
0.0192631
0.000941671
0.0194111
0.00103267
0.0195621
0.00103275
0.0197077
0.000978809
0.0198423
0.000894222
0.0199637
0.000799228
0.0200706
0.000700141
0.000612234
0.019722
0.000254337
0.0198205
0.000617232
0.0199522
0.000809937
0.0200991
0.000885846
0.0202479
0.000883938
0.0203905
0.000836204
0.0205218
0.000762932
0.0206398
0.000681178
0.0207435
0.000596436
0.000521184
0.0204349
0.000213977
0.0205342
0.000517879
0.0206661
0.000678044
0.0208121
0.0007399
0.0209591
0.00073691
0.0210993
0.000696027
0.0212279
0.000634345
0.0213432
0.000565885
0.0214443
0.000495294
0.000432553
0.0211735
0.000172929
0.0212738
0.00041762
0.0214061
0.000545749
0.0215516
0.000594397
0.0216974
0.000591071
0.0218359
0.00055757
0.0219625
0.000507711
0.0220758
0.000452607
0.0221751
0.000396028
0.000345696
0.021939
0.000131142
0.0220404
0.000316223
0.0221735
0.000412606
0.0223192
0.000448684
0.0224647
0.000445619
0.0226023
0.000419946
0.0227279
0.000382135
0.02284
0.000340481
0.0229382
0.000297854
0.00025991
0.0227322
8.85004e-05
0.0228351
0.000213286
0.0229698
0.00027794
0.0231166
0.000301864
0.0232627
0.000299525
0.0234006
0.000282069
0.0235262
0.00025655
0.0236381
0.000228502
0.0237361
0.000199862
0.000174348
0.0235543
4.48137e-05
0.0236593
0.000108231
0.0237964
0.000140829
0.0239455
0.000152777
0.0240935
0.000151499
0.024233
0.000142613
0.0243599
0.000129674
0.0244729
0.000115476
0.0245718
0.000100997
8.81215e-05
0.0244061
0.0245144
0.0246552
0.024808
0.0249595
0.0251021
0.0252317
0.0253472
0.0254482
)
;

boundaryField
{
    inlet
    {
        type            calculated;
        value           nonuniform List<scalar> 
28
(
-0.00933018
-0.00966779
-0.0100176
-0.0103801
-0.0107557
-0.0111449
-0.0115482
-0.0119661
-0.0123991
-0.0128477
-0.0133126
-0.0137944
-0.0142935
-0.0148107
-0.0153467
-0.015902
-0.0164774
-0.0170736
-0.0176915
-0.0183316
-0.018995
-0.0196823
-0.0203945
-0.0211325
-0.0218972
-0.0226895
-0.0235106
-0.0243613
)
;
    }
    outlet
    {
        type            calculated;
        value           nonuniform 0();
    }
    cylinder
    {
        type            calculated;
        value           nonuniform 0();
    }
    top
    {
        type            symmetryPlane;
        value           uniform 0;
    }
    bottom
    {
        type            symmetryPlane;
        value           nonuniform 0();
    }
    defaultFaces
    {
        type            empty;
        value           nonuniform 0();
    }
    procBoundary30to24
    {
        type            processor;
        value           nonuniform List<scalar> 
17
(
0.00125043
0.00172477
0.00161792
0.0015067
-0.0096581
0.00139195
-0.00181275
-0.00273103
-0.00345191
-0.00403707
-0.00442959
-0.00464546
-0.00465834
-0.00445085
-0.00422628
-0.00898803
-0.000667577
)
;
    }
    procBoundary30to31
    {
        type            processor;
        value           nonuniform List<scalar> 
30
(
0.00968059
0.0100327
0.0103907
0.0107553
0.0111269
0.0115061
0.0118932
0.0122888
0.0126935
0.0131078
0.0135324
0.013968
0.0144156
0.0148758
0.0153498
0.0158384
0.016343
0.0168646
0.0174046
0.0179644
0.0185453
0.019149
0.0197772
0.0204318
0.0211146
0.0218278
0.0225739
0.0233554
0.0241753
0.0250371
)
;
    }
}


// ************************************************************************* //
