/*--------------------------------*- C++ -*----------------------------------*\
  =========                 |
  \\      /  F ield         | OpenFOAM: The Open Source CFD Toolbox
   \\    /   O peration     | Website:  https://openfoam.org
    \\  /    A nd           | Version:  7
     \\/     M anipulation  |
\*---------------------------------------------------------------------------*/
FoamFile
{
    version     2.0;
    format      ascii;
    class       volScalarField;
    location    "46.999526";
    object      p;
}
// * * * * * * * * * * * * * * * * * * * * * * * * * * * * * * * * * * * * * //

dimensions      [0 2 -2 0 0 0 0];

internalField   nonuniform List<scalar> 
23200
(
-0.287773
-0.291963
-0.294413
-0.295765
-0.296325
-0.296063
-0.294989
-0.293127
-0.290495
-0.287105
-0.282972
-0.278113
-0.272552
-0.266324
-0.259482
-0.252098
-0.244273
-0.236169
-0.227927
-0.219385
-0.288597
-0.292694
-0.295076
-0.296368
-0.296874
-0.296563
-0.295445
-0.293544
-0.290876
-0.287455
-0.283293
-0.278407
-0.272819
-0.266565
-0.259693
-0.252275
-0.244407
-0.236263
-0.227964
-0.219202
-0.290236
-0.29415
-0.296394
-0.297569
-0.297967
-0.297557
-0.296351
-0.294371
-0.291633
-0.288148
-0.283928
-0.278988
-0.273349
-0.267041
-0.260111
-0.252624
-0.244672
-0.236446
-0.228037
-0.218833
-0.292674
-0.296315
-0.298355
-0.299356
-0.299592
-0.299036
-0.297698
-0.295599
-0.292755
-0.289174
-0.284868
-0.279847
-0.274131
-0.267743
-0.260727
-0.253139
-0.245062
-0.236715
-0.228147
-0.21828
-0.295886
-0.299171
-0.300942
-0.301713
-0.301734
-0.300984
-0.29947
-0.297214
-0.294227
-0.290519
-0.286097
-0.28097
-0.27515
-0.268658
-0.261528
-0.253808
-0.245569
-0.237061
-0.228293
-0.217542
-0.299844
-0.302692
-0.304131
-0.304618
-0.304374
-0.303381
-0.301649
-0.299195
-0.296032
-0.292164
-0.287597
-0.282336
-0.276388
-0.269767
-0.262498
-0.254617
-0.246181
-0.237476
-0.228478
-0.216622
-0.30451
-0.306846
-0.307896
-0.308045
-0.307486
-0.306205
-0.304212
-0.301523
-0.298146
-0.294087
-0.289347
-0.283926
-0.277826
-0.271051
-0.263619
-0.255552
-0.246886
-0.237949
-0.2287
-0.215524
-0.309845
-0.3116
-0.312205
-0.311968
-0.311046
-0.309432
-0.307136
-0.304172
-0.300548
-0.296266
-0.291323
-0.285716
-0.279439
-0.27249
-0.264872
-0.256595
-0.247673
-0.238471
-0.22896
-0.214257
-0.315806
-0.316918
-0.317027
-0.316356
-0.315025
-0.313034
-0.310394
-0.307118
-0.303212
-0.298675
-0.293502
-0.287683
-0.281206
-0.27406
-0.266237
-0.25773
-0.248527
-0.23903
-0.229258
-0.212833
-0.322349
-0.322761
-0.322327
-0.321178
-0.319395
-0.316985
-0.313962
-0.310337
-0.306114
-0.301291
-0.295859
-0.289804
-0.283105
-0.275741
-0.267694
-0.25894
-0.249438
-0.239618
-0.229593
-0.211271
-0.32943
-0.329093
-0.328071
-0.326404
-0.324127
-0.321259
-0.317814
-0.313804
-0.309232
-0.304094
-0.298375
-0.292058
-0.285115
-0.277515
-0.269226
-0.260211
-0.250394
-0.240224
-0.229961
-0.209598
-0.337006
-0.335874
-0.334228
-0.332003
-0.329194
-0.325829
-0.321927
-0.317499
-0.312546
-0.307062
-0.301031
-0.294428
-0.287219
-0.279364
-0.270818
-0.261528
-0.251386
-0.240843
-0.230355
-0.207847
-0.345035
-0.343069
-0.340763
-0.337945
-0.334568
-0.330672
-0.32628
-0.3214
-0.316036
-0.310179
-0.30381
-0.296898
-0.289404
-0.281276
-0.272458
-0.262881
-0.252405
-0.241469
-0.23076
-0.206059
-0.353479
-0.350645
-0.347645
-0.344204
-0.340227
-0.335768
-0.330853
-0.325493
-0.31969
-0.313433
-0.306701
-0.299459
-0.291659
-0.28324
-0.274135
-0.264261
-0.253445
-0.2421
-0.231157
-0.204282
-0.362301
-0.358567
-0.354847
-0.350754
-0.346148
-0.341096
-0.33563
-0.329763
-0.323495
-0.316815
-0.309698
-0.302103
-0.293977
-0.285251
-0.275844
-0.265662
-0.254502
-0.242738
-0.23152
-0.20258
-0.371467
-0.366807
-0.362341
-0.35757
-0.352309
-0.346639
-0.340599
-0.3342
-0.327444
-0.320318
-0.312793
-0.304826
-0.296355
-0.287303
-0.277581
-0.26708
-0.255572
-0.243392
-0.231823
-0.201052
-0.380947
-0.375335
-0.370101
-0.364631
-0.358693
-0.352384
-0.345747
-0.338795
-0.331531
-0.323938
-0.315987
-0.307626
-0.29879
-0.289394
-0.279341
-0.268509
-0.256654
-0.244072
-0.231981
-0.199727
-0.390709
-0.384122
-0.3781
-0.371914
-0.36528
-0.358314
-0.351064
-0.343543
-0.335751
-0.327674
-0.319275
-0.310501
-0.301279
-0.291519
-0.28112
-0.269951
-0.257764
-0.244802
-0.231776
-0.198396
-0.400723
-0.39314
-0.386315
-0.379397
-0.372055
-0.364418
-0.35654
-0.348435
-0.340101
-0.331522
-0.322657
-0.313447
-0.303816
-0.293671
-0.282911
-0.271408
-0.258954
-0.245712
-0.231286
-0.19773
-0.410957
-0.402359
-0.394717
-0.387057
-0.378996
-0.370679
-0.362165
-0.353464
-0.344575
-0.335477
-0.326125
-0.316456
-0.306388
-0.295832
-0.284691
-0.272864
-0.26024
-0.246969
-0.231876
-0.204767
-0.421378
-0.411746
-0.403277
-0.394869
-0.386084
-0.377082
-0.367924
-0.358619
-0.349163
-0.33953
-0.329669
-0.319512
-0.308975
-0.297969
-0.286412
-0.27424
-0.26146
-0.248308
-0.23478
-0.226678
-0.431946
-0.421265
-0.411963
-0.402803
-0.393293
-0.383605
-0.3738
-0.363886
-0.353851
-0.343664
-0.333269
-0.32259
-0.311543
-0.300039
-0.288009
-0.275422
-0.262362
-0.249089
-0.235601
-0.231123
-0.442615
-0.430874
-0.420735
-0.410826
-0.400595
-0.390222
-0.379772
-0.369242
-0.358616
-0.347856
-0.336897
-0.325658
-0.314049
-0.301987
-0.289413
-0.276315
-0.262815
-0.249139
-0.23503
-0.230155
-0.453332
-0.440523
-0.429549
-0.418898
-0.407953
-0.396902
-0.385807
-0.374658
-0.363429
-0.352072
-0.340515
-0.328669
-0.316442
-0.303753
-0.290551
-0.276843
-0.26276
-0.248489
-0.233679
-0.227222
-0.464035
-0.450154
-0.438352
-0.426971
-0.415323
-0.403605
-0.391869
-0.380095
-0.368248
-0.356267
-0.344071
-0.331565
-0.318655
-0.305264
-0.291352
-0.276937
-0.262152
-0.247149
-0.231586
-0.223118
-0.47465
-0.459701
-0.447084
-0.434989
-0.422654
-0.410279
-0.397908
-0.385505
-0.373021
-0.360384
-0.347503
-0.334279
-0.320616
-0.306445
-0.291739
-0.276531
-0.260955
-0.245137
-0.228797
-0.218308
-0.485091
-0.469086
-0.455673
-0.442885
-0.429884
-0.416867
-0.403864
-0.390824
-0.377681
-0.364352
-0.350735
-0.336728
-0.32224
-0.307214
-0.291639
-0.275566
-0.259139
-0.242472
-0.225378
-0.213067
-0.495263
-0.478222
-0.464037
-0.450583
-0.43694
-0.423296
-0.409667
-0.395979
-0.382152
-0.368088
-0.35368
-0.338824
-0.323439
-0.307485
-0.290975
-0.273987
-0.256677
-0.239167
-0.221372
-0.207513
-0.505055
-0.487007
-0.472084
-0.457997
-0.443738
-0.429485
-0.415231
-0.400884
-0.386342
-0.371498
-0.356239
-0.340467
-0.324116
-0.307171
-0.289675
-0.27174
-0.253545
-0.235228
-0.216803
-0.201676
-0.514346
-0.495331
-0.47971
-0.465027
-0.450183
-0.435338
-0.420462
-0.405439
-0.39015
-0.374476
-0.358306
-0.341553
-0.324173
-0.306185
-0.287671
-0.26878
-0.24972
-0.230653
-0.21168
-0.195542
-0.523
-0.503073
-0.486802
-0.471565
-0.456167
-0.440748
-0.425252
-0.409533
-0.39346
-0.376906
-0.359766
-0.341971
-0.323511
-0.304444
-0.284898
-0.265062
-0.245178
-0.225433
-0.206001
-0.189079
-0.530874
-0.510098
-0.493234
-0.47749
-0.461574
-0.445599
-0.42948
-0.413045
-0.39615
-0.378666
-0.3605
-0.341612
-0.322033
-0.301868
-0.281294
-0.260548
-0.239899
-0.219562
-0.199759
-0.182247
-0.537811
-0.516265
-0.498871
-0.482671
-0.466275
-0.449762
-0.433017
-0.415844
-0.398088
-0.379626
-0.360386
-0.340366
-0.319644
-0.298381
-0.276808
-0.255203
-0.233866
-0.213028
-0.192947
-0.175007
-0.543648
-0.521421
-0.503569
-0.48697
-0.470132
-0.4531
-0.435725
-0.417792
-0.399138
-0.379656
-0.359304
-0.338126
-0.316257
-0.293918
-0.271392
-0.249
-0.227061
-0.205822
-0.185554
-0.167328
-0.548214
-0.525411
-0.507179
-0.49024
-0.473001
-0.455467
-0.437459
-0.418744
-0.399161
-0.378625
-0.357135
-0.334791
-0.311792
-0.288418
-0.265007
-0.241913
-0.219474
-0.197935
-0.177572
-0.159182
-0.551335
-0.528069
-0.509544
-0.492327
-0.474728
-0.456712
-0.438069
-0.418554
-0.398017
-0.376405
-0.353768
-0.330269
-0.306175
-0.28183
-0.25762
-0.233927
-0.211093
-0.189363
-0.168995
-0.150549
-0.552833
-0.529231
-0.510502
-0.493074
-0.47516
-0.456681
-0.437403
-0.417077
-0.39557
-0.372873
-0.349096
-0.324475
-0.299345
-0.274114
-0.249207
-0.225027
-0.201914
-0.1801
-0.159817
-0.141414
-0.552531
-0.528729
-0.509894
-0.492322
-0.474138
-0.45522
-0.435312
-0.414168
-0.391688
-0.367914
-0.343026
-0.317336
-0.291252
-0.265236
-0.23975
-0.215206
-0.191933
-0.170146
-0.150038
-0.13177
-0.550255
-0.526399
-0.507558
-0.489913
-0.471507
-0.452175
-0.431648
-0.409692
-0.386249
-0.361423
-0.335473
-0.308791
-0.281853
-0.255174
-0.229238
-0.204462
-0.181152
-0.159501
-0.139657
-0.121612
-0.545838
-0.52208
-0.503337
-0.485692
-0.467113
-0.447398
-0.42627
-0.403519
-0.379139
-0.353308
-0.326368
-0.298791
-0.271121
-0.243913
-0.21767
-0.192797
-0.169575
-0.148171
-0.128678
-0.11094
-0.53912
-0.515618
-0.497081
-0.47951
-0.460811
-0.440749
-0.419047
-0.395531
-0.370259
-0.34349
-0.315654
-0.287302
-0.259038
-0.231449
-0.205046
-0.180217
-0.15721
-0.136161
-0.117107
-0.0997594
-0.529953
-0.506871
-0.488649
-0.471227
-0.452465
-0.432098
-0.40986
-0.385627
-0.359526
-0.331908
-0.303291
-0.274301
-0.245596
-0.217786
-0.191378
-0.166735
-0.144069
-0.123484
-0.104954
-0.0880771
-0.518206
-0.495709
-0.477911
-0.460715
-0.441951
-0.421328
-0.398606
-0.373717
-0.346873
-0.318515
-0.289252
-0.25978
-0.2308
-0.202936
-0.176682
-0.152368
-0.130168
-0.110151
-0.0922321
-0.0759101
-0.503761
-0.482018
-0.464753
-0.447863
-0.42916
-0.408341
-0.385199
-0.359734
-0.332249
-0.303282
-0.273526
-0.243743
-0.214665
-0.18692
-0.160979
-0.137137
-0.115525
-0.0961808
-0.0789589
-0.063276
-0.486526
-0.4657
-0.449079
-0.432573
-0.414002
-0.393056
-0.36957
-0.343628
-0.315626
-0.286198
-0.256121
-0.226209
-0.197218
-0.169767
-0.144299
-0.121069
-0.100165
-0.0815933
-0.0651502
-0.0501489
-0.466426
-0.446683
-0.430812
-0.414772
-0.396407
-0.375411
-0.351676
-0.325371
-0.296993
-0.267272
-0.237058
-0.207209
-0.178493
-0.151513
-0.126678
-0.104196
-0.0841157
-0.0664148
-0.0508323
-0.0364729
-0.443415
-0.424913
-0.409898
-0.394406
-0.376328
-0.355372
-0.331493
-0.304957
-0.276362
-0.246528
-0.216372
-0.186786
-0.158536
-0.132204
-0.108156
-0.0865557
-0.0674109
-0.0506697
-0.0360319
-0.0225176
-0.417471
-0.400364
-0.386308
-0.371447
-0.353741
-0.332923
-0.309021
-0.282401
-0.253763
-0.22401
-0.194116
-0.164995
-0.137404
-0.111892
-0.0887809
-0.0681896
-0.0500917
-0.0344128
-0.0207358
-0.00819921
-0.388602
-0.373037
-0.360037
-0.345892
-0.328651
-0.308079
-0.284287
-0.257744
-0.229247
-0.199779
-0.170356
-0.141903
-0.115161
-0.0906363
-0.0686082
-0.0491495
-0.032197
-0.0176589
-0.00502721
0.00648315
-0.356845
-0.342959
-0.331111
-0.317765
-0.301085
-0.280877
-0.257339
-0.231045
-0.202886
-0.173911
-0.145171
-0.11759
-0.0918789
-0.0685057
-0.0476979
-0.029486
-0.0137757
-0.00045429
0.0110597
0.0214928
-0.322266
-0.310188
-0.299582
-0.28712
-0.271101
-0.251382
-0.228253
-0.20239
-0.17477
-0.146501
-0.118654
-0.0921418
-0.0676421
-0.0455734
-0.0261164
-0.00925902
0.0051199
0.0171528
0.0274867
0.0367884
-0.284962
-0.27481
-0.265531
-0.254036
-0.238783
-0.219685
-0.197125
-0.171882
-0.145007
-0.117657
-0.0909089
-0.0656586
-0.0425397
-0.0219212
-0.00393632
0.0114664
0.0244321
0.0351109
0.0442089
0.0523254
-0.245062
-0.236942
-0.229068
-0.218623
-0.204243
-0.185902
-0.164079
-0.139647
-0.113721
-0.0874993
-0.0620537
-0.0382475
-0.0166694
0.00236307
0.0187636
0.0326201
0.0440982
0.0533645
0.0611763
0.0680546
-0.202725
-0.196728
-0.190332
-0.181019
-0.16762
-0.150175
-0.129257
-0.105823
-0.0810581
-0.0561664
-0.0322137
-0.0100243
0.00986385
0.0271855
0.0418995
0.0541267
0.0640507
0.0718535
0.0783336
0.0839201
-0.158138
-0.15434
-0.149489
-0.141387
-0.129078
-0.112664
-0.0928215
-0.0705811
-0.0471705
-0.023804
-0.00152502
0.0188873
0.036949
0.0524468
0.0653822
0.0759061
0.0842171
0.0905132
0.0956199
0.099859
-0.111506
-0.109981
-0.106734
-0.0999154
-0.0887992
-0.0735636
-0.0549598
-0.0340946
-0.0122278
0.00943004
0.0298678
0.048357
0.0644694
0.0780426
0.0891185
0.097874
0.104521
0.109275
0.112972
0.115801
-0.0630216
-0.0639191
-0.0622844
-0.056819
-0.0470005
-0.0330749
-0.0158707
0.00344393
0.023589
0.0433687
0.0618131
0.0782486
0.0923034
0.103865
0.113011
0.119942
0.124882
0.128075
0.13033
0.131647
-0.0130834
-0.0163134
-0.0163789
-0.0123359
-0.00391166
0.00857674
0.0242292
0.0418292
0.0600886
0.0778372
0.094153
0.108421
0.120325
0.129801
0.13696
0.14202
0.145221
0.146857
0.147633
0.147198
0.0381141
0.0325082
0.030713
0.0332782
0.0402185
0.0511499
0.0651098
0.0808453
0.0970717
0.112654
0.126725
0.138729
0.148407
0.155737
0.160863
0.164014
0.165457
0.165546
0.164712
0.162214
0.0902616
0.0822562
0.0787116
0.0797499
0.0851247
0.0943901
0.10653
0.120267
0.134332
0.147632
0.159361
0.169023
0.176416
0.181558
0.184617
0.185832
0.185508
0.184007
0.181198
0.176647
0.14303
0.132626
0.12732
0.12679
0.130528
0.138031
0.14824
0.159864
0.171658
0.182582
0.191891
0.199155
0.20422
0.207146
0.208121
0.207394
0.205304
0.202126
0.196872
0.190741
0.196084
0.183298
0.176228
0.174098
0.17614
0.181799
0.189982
0.199397
0.208834
0.21731
0.224145
0.228971
0.231686
0.232383
0.231272
0.228615
0.22477
0.219976
0.213202
0.206628
0.249076
0.23394
0.225114
0.221363
0.221662
0.225412
0.231495
0.238628
0.245643
0.251621
0.255949
0.258319
0.258678
0.25715
0.253964
0.249393
0.243799
0.237388
0.229284
0.222009
0.301654
0.284213
0.273648
0.268268
0.266792
0.268585
0.272515
0.277316
0.281869
0.285322
0.287131
0.287047
0.285061
0.281327
0.276089
0.26963
0.262306
0.254294
0.244873
0.236662
0.35346
0.333774
0.321499
0.314492
0.311226
0.311034
0.312779
0.315219
0.317295
0.318221
0.317521
0.315004
0.310702
0.304797
0.297544
0.289232
0.280208
0.270632
0.259911
0.250605
0.404139
0.382279
0.368335
0.359716
0.354659
0.352473
0.352023
0.352102
0.351708
0.350127
0.346951
0.342042
0.335472
0.327444
0.318225
0.308106
0.297425
0.286329
0.274335
0.26386
0.453337
0.429386
0.413823
0.403622
0.396791
0.392623
0.389992
0.38773
0.384899
0.380857
0.375258
0.368018
0.359242
0.349155
0.338033
0.326166
0.31388
0.301315
0.288085
0.27642
0.500704
0.474759
0.457638
0.445897
0.437327
0.43121
0.426435
0.421878
0.416668
0.41023
0.402283
0.39279
0.38189
0.369823
0.356872
0.343327
0.3295
0.315527
0.301105
0.288259
0.545904
0.518072
0.499466
0.486239
0.475982
0.467968
0.46111
0.454329
0.446819
0.438075
0.427875
0.416226
0.403297
0.389343
0.37465
0.35951
0.344216
0.328905
0.313348
0.299346
0.588609
0.559009
0.539
0.524357
0.512481
0.502644
0.493785
0.484872
0.475166
0.464226
0.451887
0.438197
0.42335
0.407615
0.391282
0.374636
0.357962
0.341392
0.324764
0.309653
0.628511
0.597269
0.57595
0.559972
0.546563
0.534997
0.52424
0.513312
0.501534
0.48853
0.474184
0.458583
0.441944
0.424546
0.406683
0.388636
0.370675
0.352934
0.335309
0.319148
0.665318
0.632571
0.610043
0.592824
0.577984
0.564801
0.552273
0.539465
0.525761
0.51084
0.494636
0.47727
0.458978
0.440049
0.420778
0.401441
0.382296
0.36348
0.344939
0.327799
0.698758
0.664653
0.641026
0.622671
0.606516
0.591848
0.577691
0.563161
0.547694
0.531024
0.513128
0.494156
0.474362
0.454044
0.433495
0.412988
0.392771
0.372983
0.353612
0.335575
0.728585
0.693274
0.668667
0.649293
0.631955
0.615947
0.600325
0.584245
0.567196
0.548961
0.529551
0.509146
0.488013
0.466456
0.44477
0.423222
0.402051
0.381399
0.361292
0.342449
0.754577
0.718219
0.692758
0.672491
0.654114
0.63693
0.62002
0.602581
0.584147
0.564541
0.543811
0.522155
0.499856
0.47722
0.454545
0.432092
0.410091
0.388688
0.367942
0.348394
0.776541
0.739303
0.71312
0.692094
0.672832
0.654647
0.636641
0.618048
0.598438
0.577672
0.555824
0.533111
0.509826
0.48628
0.462769
0.439553
0.416853
0.394818
0.373532
0.353385
0.794313
0.756364
0.729597
0.707955
0.687974
0.668973
0.650077
0.630545
0.609981
0.588274
0.565519
0.541951
0.517869
0.493587
0.469401
0.445568
0.422302
0.399757
0.378037
0.357404
0.80776
0.769274
0.742065
0.719957
0.699429
0.679808
0.660235
0.63999
0.618703
0.596282
0.572842
0.548625
0.52394
0.499102
0.474406
0.450106
0.426413
0.403483
0.381435
0.360432
0.816782
0.777936
0.75043
0.728008
0.707112
0.687074
0.667045
0.646322
0.624548
0.601648
0.577747
0.553096
0.528006
0.502795
0.477757
0.453145
0.429165
0.405977
0.383709
0.362459
0.821309
0.782284
0.754629
0.732048
0.710967
0.69072
0.670462
0.649498
0.62748
0.604339
0.580207
0.555338
0.530045
0.504647
0.479437
0.454668
0.430545
0.407228
0.384849
0.363474
0.821309
0.782284
0.754629
0.732048
0.710967
0.69072
0.670462
0.649498
0.62748
0.604339
0.580207
0.555338
0.530045
0.504647
0.479437
0.454668
0.430545
0.407228
0.384849
0.363474
0.816782
0.777936
0.75043
0.728008
0.707112
0.687074
0.667045
0.646322
0.624548
0.601648
0.577747
0.553096
0.528006
0.502795
0.477757
0.453145
0.429165
0.405977
0.383709
0.362459
0.80776
0.769274
0.742065
0.719957
0.699429
0.679808
0.660235
0.63999
0.618703
0.596282
0.572842
0.548625
0.52394
0.499102
0.474406
0.450106
0.426413
0.403483
0.381435
0.360432
0.794313
0.756364
0.729597
0.707955
0.687974
0.668973
0.650077
0.630545
0.609981
0.588274
0.565519
0.541951
0.517869
0.493587
0.469401
0.445568
0.422302
0.399757
0.378037
0.357404
0.776541
0.739303
0.71312
0.692094
0.672832
0.654647
0.636641
0.618048
0.598438
0.577672
0.555824
0.533111
0.509826
0.48628
0.462769
0.439553
0.416853
0.394818
0.373532
0.353385
0.754577
0.718219
0.692758
0.672491
0.654114
0.63693
0.62002
0.602581
0.584147
0.564541
0.543811
0.522155
0.499856
0.47722
0.454545
0.432092
0.410091
0.388688
0.367942
0.348394
0.728585
0.693274
0.668667
0.649293
0.631955
0.615947
0.600325
0.584245
0.567196
0.548961
0.529551
0.509146
0.488013
0.466456
0.44477
0.423222
0.402051
0.381399
0.361292
0.342449
0.698758
0.664653
0.641026
0.622671
0.606516
0.591848
0.577691
0.563161
0.547694
0.531024
0.513128
0.494156
0.474362
0.454044
0.433495
0.412988
0.392771
0.372983
0.353612
0.335575
0.665318
0.632571
0.610043
0.592824
0.577984
0.564801
0.552273
0.539465
0.525761
0.51084
0.494636
0.47727
0.458978
0.440049
0.420778
0.401441
0.382296
0.36348
0.344939
0.327799
0.628511
0.597269
0.57595
0.559972
0.546563
0.534997
0.52424
0.513312
0.501534
0.48853
0.474184
0.458583
0.441944
0.424546
0.406683
0.388636
0.370675
0.352934
0.335309
0.319148
0.588609
0.559009
0.539
0.524357
0.512481
0.502644
0.493785
0.484872
0.475166
0.464226
0.451887
0.438197
0.42335
0.407615
0.391282
0.374636
0.357962
0.341392
0.324764
0.309653
0.545904
0.518072
0.499466
0.486239
0.475982
0.467968
0.46111
0.454329
0.446819
0.438075
0.427875
0.416226
0.403297
0.389343
0.37465
0.35951
0.344216
0.328905
0.313348
0.299346
0.500704
0.474759
0.457638
0.445897
0.437327
0.43121
0.426435
0.421878
0.416668
0.41023
0.402283
0.39279
0.38189
0.369823
0.356872
0.343327
0.3295
0.315527
0.301105
0.288259
0.453337
0.429386
0.413823
0.403622
0.396791
0.392623
0.389992
0.38773
0.384899
0.380857
0.375258
0.368018
0.359242
0.349155
0.338033
0.326166
0.31388
0.301315
0.288085
0.27642
0.404139
0.382279
0.368335
0.359716
0.354659
0.352473
0.352023
0.352102
0.351708
0.350127
0.346951
0.342042
0.335472
0.327444
0.318225
0.308106
0.297425
0.286329
0.274335
0.26386
0.35346
0.333774
0.321499
0.314492
0.311226
0.311034
0.312779
0.315219
0.317295
0.318221
0.317521
0.315004
0.310702
0.304797
0.297544
0.289232
0.280208
0.270632
0.259911
0.250605
0.301654
0.284213
0.273648
0.268268
0.266792
0.268585
0.272515
0.277316
0.281869
0.285322
0.287131
0.287047
0.285061
0.281327
0.276089
0.26963
0.262306
0.254294
0.244873
0.236662
0.249076
0.23394
0.225114
0.221363
0.221662
0.225412
0.231495
0.238628
0.245643
0.251621
0.255949
0.258319
0.258678
0.25715
0.253964
0.249393
0.243799
0.237388
0.229284
0.222009
0.196084
0.183298
0.176228
0.174098
0.17614
0.181799
0.189982
0.199397
0.208834
0.21731
0.224145
0.228971
0.231686
0.232383
0.231272
0.228615
0.22477
0.219976
0.213202
0.206628
0.14303
0.132626
0.12732
0.12679
0.130528
0.138031
0.14824
0.159864
0.171658
0.182582
0.191891
0.199155
0.20422
0.207146
0.208121
0.207394
0.205304
0.202126
0.196872
0.190741
0.0902616
0.0822561
0.0787116
0.0797499
0.0851247
0.0943901
0.10653
0.120267
0.134332
0.147632
0.159361
0.169023
0.176416
0.181558
0.184617
0.185832
0.185508
0.184007
0.181198
0.176647
0.0381141
0.0325082
0.030713
0.0332782
0.0402185
0.0511499
0.0651098
0.0808453
0.0970717
0.112654
0.126725
0.138729
0.148407
0.155737
0.160863
0.164014
0.165457
0.165546
0.164712
0.162214
-0.0130834
-0.0163134
-0.0163789
-0.0123359
-0.00391167
0.00857674
0.0242292
0.0418292
0.0600886
0.0778372
0.094153
0.108421
0.120325
0.129801
0.13696
0.14202
0.145221
0.146857
0.147633
0.147198
-0.0630216
-0.0639191
-0.0622844
-0.056819
-0.0470005
-0.0330749
-0.0158707
0.00344393
0.023589
0.0433687
0.0618131
0.0782486
0.0923034
0.103865
0.113011
0.119942
0.124882
0.128075
0.13033
0.131647
-0.111506
-0.109981
-0.106734
-0.0999154
-0.0887992
-0.0735636
-0.0549598
-0.0340946
-0.0122278
0.00943004
0.0298678
0.048357
0.0644694
0.0780426
0.0891185
0.097874
0.104521
0.109275
0.112972
0.115801
-0.158138
-0.15434
-0.149489
-0.141387
-0.129078
-0.112664
-0.0928215
-0.0705811
-0.0471705
-0.023804
-0.00152502
0.0188873
0.036949
0.0524468
0.0653822
0.0759061
0.0842171
0.0905132
0.0956199
0.099859
-0.202725
-0.196728
-0.190332
-0.181019
-0.16762
-0.150175
-0.129257
-0.105823
-0.0810581
-0.0561664
-0.0322137
-0.0100243
0.00986384
0.0271855
0.0418995
0.0541267
0.0640507
0.0718535
0.0783336
0.0839201
-0.245062
-0.236942
-0.229068
-0.218623
-0.204243
-0.185902
-0.164079
-0.139647
-0.113721
-0.0874993
-0.0620537
-0.0382475
-0.0166694
0.00236306
0.0187636
0.0326201
0.0440982
0.0533645
0.0611763
0.0680546
-0.284962
-0.27481
-0.265531
-0.254036
-0.238783
-0.219685
-0.197125
-0.171882
-0.145007
-0.117657
-0.0909089
-0.0656586
-0.0425397
-0.0219212
-0.00393632
0.0114664
0.0244321
0.0351109
0.0442089
0.0523254
-0.322266
-0.310188
-0.299582
-0.28712
-0.271101
-0.251382
-0.228253
-0.20239
-0.17477
-0.146501
-0.118654
-0.0921418
-0.0676421
-0.0455734
-0.0261164
-0.00925903
0.00511989
0.0171528
0.0274867
0.0367884
-0.356845
-0.342959
-0.331111
-0.317765
-0.301085
-0.280877
-0.257339
-0.231045
-0.202886
-0.173911
-0.145171
-0.11759
-0.0918789
-0.0685057
-0.047698
-0.029486
-0.0137757
-0.000454298
0.0110597
0.0214927
-0.388602
-0.373037
-0.360037
-0.345892
-0.328651
-0.308079
-0.284287
-0.257744
-0.229247
-0.199779
-0.170356
-0.141903
-0.115161
-0.0906363
-0.0686082
-0.0491495
-0.032197
-0.0176589
-0.00502722
0.00648314
-0.417471
-0.400364
-0.386308
-0.371447
-0.353741
-0.332923
-0.309022
-0.282401
-0.253763
-0.22401
-0.194116
-0.164995
-0.137404
-0.111892
-0.088781
-0.0681896
-0.0500917
-0.0344128
-0.0207358
-0.00819922
-0.443415
-0.424913
-0.409898
-0.394406
-0.376328
-0.355372
-0.331493
-0.304957
-0.276362
-0.246528
-0.216372
-0.186786
-0.158536
-0.132204
-0.108156
-0.0865557
-0.0674109
-0.0506697
-0.0360319
-0.0225176
-0.466426
-0.446683
-0.430812
-0.414772
-0.396407
-0.375411
-0.351676
-0.325371
-0.296993
-0.267272
-0.237058
-0.207209
-0.178493
-0.151513
-0.126678
-0.104196
-0.0841157
-0.0664149
-0.0508323
-0.0364729
-0.486526
-0.4657
-0.449079
-0.432573
-0.414002
-0.393056
-0.36957
-0.343628
-0.315626
-0.286198
-0.256121
-0.226209
-0.197218
-0.169767
-0.144299
-0.121069
-0.100165
-0.0815933
-0.0651503
-0.0501489
-0.503761
-0.482018
-0.464753
-0.447863
-0.42916
-0.408341
-0.385199
-0.359734
-0.332249
-0.303282
-0.273526
-0.243743
-0.214665
-0.18692
-0.160979
-0.137137
-0.115525
-0.0961808
-0.0789589
-0.063276
-0.518206
-0.495709
-0.477911
-0.460715
-0.441951
-0.421328
-0.398606
-0.373717
-0.346873
-0.318515
-0.289252
-0.25978
-0.2308
-0.202936
-0.176682
-0.152368
-0.130168
-0.110151
-0.0922321
-0.0759101
-0.529953
-0.506871
-0.488649
-0.471227
-0.452465
-0.432098
-0.40986
-0.385627
-0.359526
-0.331908
-0.303291
-0.274301
-0.245596
-0.217786
-0.191378
-0.166735
-0.144069
-0.123484
-0.104954
-0.0880771
-0.53912
-0.515618
-0.497081
-0.47951
-0.460811
-0.440749
-0.419047
-0.395531
-0.370259
-0.34349
-0.315654
-0.287302
-0.259038
-0.231449
-0.205046
-0.180217
-0.15721
-0.136161
-0.117107
-0.0997594
-0.545838
-0.52208
-0.503337
-0.485692
-0.467113
-0.447398
-0.42627
-0.403519
-0.379139
-0.353308
-0.326368
-0.298791
-0.271121
-0.243913
-0.21767
-0.192797
-0.169575
-0.148171
-0.128678
-0.11094
-0.550255
-0.526399
-0.507558
-0.489913
-0.471507
-0.452175
-0.431648
-0.409692
-0.386249
-0.361423
-0.335473
-0.308791
-0.281853
-0.255174
-0.229238
-0.204462
-0.181152
-0.159501
-0.139657
-0.121612
-0.552531
-0.528729
-0.509894
-0.492322
-0.474138
-0.45522
-0.435312
-0.414168
-0.391688
-0.367914
-0.343026
-0.317336
-0.291252
-0.265236
-0.23975
-0.215206
-0.191933
-0.170146
-0.150038
-0.13177
-0.552833
-0.529231
-0.510502
-0.493074
-0.47516
-0.456681
-0.437403
-0.417077
-0.39557
-0.372873
-0.349096
-0.324475
-0.299345
-0.274114
-0.249207
-0.225027
-0.201914
-0.1801
-0.159817
-0.141414
-0.551335
-0.528069
-0.509544
-0.492327
-0.474728
-0.456712
-0.438069
-0.418554
-0.398017
-0.376405
-0.353768
-0.330269
-0.306175
-0.28183
-0.25762
-0.233927
-0.211093
-0.189363
-0.168995
-0.150549
-0.548214
-0.525411
-0.507179
-0.49024
-0.473001
-0.455467
-0.437459
-0.418744
-0.399161
-0.378625
-0.357135
-0.334791
-0.311792
-0.288418
-0.265007
-0.241913
-0.219474
-0.197935
-0.177572
-0.159182
-0.543648
-0.521421
-0.503569
-0.48697
-0.470132
-0.4531
-0.435725
-0.417792
-0.399138
-0.379656
-0.359304
-0.338126
-0.316257
-0.293918
-0.271392
-0.249
-0.227061
-0.205822
-0.185554
-0.167328
-0.537811
-0.516265
-0.498871
-0.482671
-0.466275
-0.449762
-0.433017
-0.415844
-0.398088
-0.379626
-0.360386
-0.340366
-0.319644
-0.298381
-0.276808
-0.255203
-0.233866
-0.213028
-0.192947
-0.175007
-0.530874
-0.510098
-0.493234
-0.47749
-0.461574
-0.445599
-0.42948
-0.413045
-0.39615
-0.378666
-0.3605
-0.341612
-0.322033
-0.301868
-0.281294
-0.260548
-0.239899
-0.219562
-0.199759
-0.182247
-0.523
-0.503073
-0.486802
-0.471565
-0.456167
-0.440748
-0.425252
-0.409533
-0.39346
-0.376906
-0.359766
-0.341971
-0.323512
-0.304444
-0.284898
-0.265062
-0.245178
-0.225433
-0.206001
-0.189079
-0.514346
-0.495331
-0.47971
-0.465027
-0.450183
-0.435338
-0.420462
-0.405439
-0.39015
-0.374476
-0.358306
-0.341553
-0.324173
-0.306185
-0.287671
-0.26878
-0.24972
-0.230653
-0.21168
-0.195542
-0.505055
-0.487007
-0.472084
-0.457997
-0.443738
-0.429485
-0.415231
-0.400884
-0.386342
-0.371498
-0.356239
-0.340467
-0.324116
-0.307171
-0.289675
-0.27174
-0.253545
-0.235228
-0.216803
-0.201676
-0.495263
-0.478222
-0.464037
-0.450583
-0.43694
-0.423296
-0.409667
-0.395979
-0.382152
-0.368088
-0.35368
-0.338824
-0.323439
-0.307485
-0.290975
-0.273987
-0.256677
-0.239167
-0.221372
-0.207513
-0.485091
-0.469086
-0.455673
-0.442885
-0.429884
-0.416867
-0.403864
-0.390824
-0.377681
-0.364352
-0.350735
-0.336728
-0.32224
-0.307214
-0.291639
-0.275566
-0.259139
-0.242472
-0.225378
-0.213067
-0.47465
-0.459701
-0.447084
-0.434989
-0.422654
-0.410279
-0.397908
-0.385505
-0.373021
-0.360384
-0.347503
-0.334279
-0.320616
-0.306445
-0.291739
-0.276531
-0.260955
-0.245137
-0.228797
-0.218308
-0.464035
-0.450154
-0.438352
-0.426971
-0.415323
-0.403605
-0.391869
-0.380095
-0.368248
-0.356267
-0.344071
-0.331565
-0.318655
-0.305264
-0.291352
-0.276937
-0.262152
-0.247149
-0.231586
-0.223118
-0.453332
-0.440523
-0.429549
-0.418898
-0.407953
-0.396902
-0.385807
-0.374658
-0.363429
-0.352072
-0.340515
-0.328669
-0.316442
-0.303753
-0.290551
-0.276843
-0.26276
-0.248489
-0.233679
-0.227222
-0.442615
-0.430874
-0.420735
-0.410826
-0.400595
-0.390222
-0.379772
-0.369242
-0.358616
-0.347856
-0.336897
-0.325658
-0.314049
-0.301987
-0.289413
-0.276315
-0.262815
-0.249139
-0.23503
-0.230155
-0.431946
-0.421265
-0.411963
-0.402803
-0.393293
-0.383605
-0.3738
-0.363886
-0.353851
-0.343664
-0.333269
-0.32259
-0.311543
-0.300039
-0.288009
-0.275422
-0.262362
-0.249089
-0.235601
-0.231123
-0.421378
-0.411746
-0.403277
-0.394869
-0.386084
-0.377082
-0.367924
-0.358619
-0.349163
-0.33953
-0.329669
-0.319512
-0.308975
-0.297969
-0.286412
-0.27424
-0.26146
-0.248308
-0.23478
-0.226678
-0.410957
-0.402359
-0.394717
-0.387057
-0.378996
-0.370679
-0.362165
-0.353464
-0.344575
-0.335477
-0.326125
-0.316456
-0.306388
-0.295832
-0.284691
-0.272864
-0.26024
-0.246969
-0.231876
-0.204767
-0.400723
-0.39314
-0.386315
-0.379397
-0.372055
-0.364418
-0.35654
-0.348435
-0.340101
-0.331522
-0.322657
-0.313447
-0.303816
-0.293671
-0.282911
-0.271408
-0.258954
-0.245712
-0.231286
-0.19773
-0.390709
-0.384122
-0.3781
-0.371914
-0.36528
-0.358314
-0.351064
-0.343543
-0.335751
-0.327674
-0.319275
-0.310501
-0.301279
-0.291519
-0.28112
-0.269951
-0.257764
-0.244802
-0.231776
-0.198396
-0.380947
-0.375335
-0.370101
-0.364631
-0.358693
-0.352384
-0.345747
-0.338795
-0.331531
-0.323938
-0.315987
-0.307626
-0.29879
-0.289394
-0.279341
-0.268509
-0.256654
-0.244072
-0.231981
-0.199727
-0.371467
-0.366807
-0.362341
-0.35757
-0.352309
-0.346639
-0.340599
-0.3342
-0.327444
-0.320318
-0.312793
-0.304826
-0.296355
-0.287303
-0.277581
-0.26708
-0.255572
-0.243392
-0.231823
-0.201052
-0.362301
-0.358567
-0.354847
-0.350754
-0.346148
-0.341096
-0.33563
-0.329763
-0.323495
-0.316815
-0.309698
-0.302103
-0.293977
-0.285251
-0.275844
-0.265663
-0.254502
-0.242738
-0.23152
-0.20258
-0.353479
-0.350645
-0.347645
-0.344204
-0.340227
-0.335768
-0.330853
-0.325493
-0.31969
-0.313433
-0.306701
-0.299459
-0.291659
-0.28324
-0.274135
-0.264262
-0.253445
-0.2421
-0.231157
-0.204282
-0.345035
-0.343069
-0.340763
-0.337945
-0.334568
-0.330672
-0.32628
-0.3214
-0.316036
-0.310179
-0.30381
-0.296898
-0.289404
-0.281276
-0.272458
-0.262881
-0.252405
-0.241469
-0.23076
-0.206059
-0.337006
-0.335874
-0.334228
-0.332003
-0.329194
-0.325829
-0.321927
-0.317499
-0.312546
-0.307062
-0.301031
-0.294428
-0.287219
-0.279364
-0.270818
-0.261528
-0.251386
-0.240843
-0.230355
-0.207847
-0.32943
-0.329093
-0.328071
-0.326404
-0.324127
-0.321259
-0.317814
-0.313804
-0.309232
-0.304094
-0.298375
-0.292058
-0.285115
-0.277515
-0.269226
-0.260211
-0.250394
-0.240224
-0.229961
-0.209598
-0.322349
-0.322761
-0.322327
-0.321178
-0.319395
-0.316985
-0.313962
-0.310337
-0.306114
-0.301291
-0.295859
-0.289804
-0.283105
-0.275741
-0.267694
-0.25894
-0.249438
-0.239618
-0.229593
-0.211271
-0.315806
-0.316918
-0.317027
-0.316356
-0.315025
-0.313034
-0.310394
-0.307118
-0.303212
-0.298675
-0.293502
-0.287683
-0.281206
-0.27406