/*--------------------------------*- C++ -*----------------------------------*\
  =========                 |
  \\      /  F ield         | OpenFOAM: The Open Source CFD Toolbox
   \\    /   O peration     | Website:  https://openfoam.org
    \\  /    A nd           | Version:  7
     \\/     M anipulation  |
\*---------------------------------------------------------------------------*/
FoamFile
{
    version     2.0;
    format      ascii;
    class       volScalarField;
    location    "53.000458";
    object      p;
}
// * * * * * * * * * * * * * * * * * * * * * * * * * * * * * * * * * * * * * //

dimensions      [0 2 -2 0 0 0 0];

internalField   nonuniform List<scalar> 
5800
(
-0.282964
-0.278105
-0.272543
-0.266316
-0.259473
-0.25209
-0.244264
-0.236161
-0.227919
-0.288588
-0.292685
-0.295067
-0.296359
-0.296865
-0.296554
-0.295436
-0.293535
-0.290867
-0.287446
-0.283284
-0.278398
-0.272811
-0.266556
-0.259685
-0.252266
-0.244399
-0.236254
-0.227955
-0.290227
-0.294141
-0.296385
-0.29756
-0.297958
-0.297548
-0.296342
-0.294362
-0.291624
-0.288139
-0.283919
-0.278979
-0.273341
-0.267033
-0.260103
-0.252616
-0.244664
-0.236438
-0.228028
-0.292665
-0.296306
-0.298346
-0.299348
-0.299583
-0.299027
-0.297689
-0.295591
-0.292746
-0.289165
-0.284859
-0.279839
-0.274122
-0.267735
-0.260718
-0.253131
-0.245054
-0.236706
-0.228138
-0.295877
-0.299162
-0.300933
-0.301704
-0.301726
-0.300975
-0.299461
-0.297205
-0.294218
-0.29051
-0.286088
-0.280961
-0.275141
-0.268649
-0.261519
-0.253799
-0.245561
-0.237053
-0.228285
-0.299835
-0.302683
-0.304122
-0.304609
-0.304365
-0.303372
-0.30164
-0.299186
-0.296023
-0.292155
-0.287588
-0.282328
-0.27638
-0.269758
-0.262489
-0.254608
-0.246173
-0.237467
-0.228469
-0.216613
-0.304501
-0.306837
-0.307887
-0.308036
-0.307477
-0.306196
-0.304203
-0.301514
-0.298137
-0.294078
-0.289338
-0.283917
-0.277817
-0.271043
-0.263611
-0.255543
-0.246878
-0.237941
-0.228691
-0.215516
-0.309836
-0.311591
-0.312196
-0.311959
-0.311037
-0.309423
-0.307127
-0.304163
-0.300539
-0.296257
-0.291314
-0.285707
-0.27943
-0.272481
-0.264863
-0.256586
-0.247664
-0.238463
-0.228952
-0.214249
-0.315797
-0.316909
-0.317018
-0.316347
-0.315016
-0.313025
-0.310385
-0.307109
-0.303203
-0.298666
-0.293493
-0.287674
-0.281198
-0.274051
-0.266228
-0.257721
-0.248519
-0.239022
-0.22925
-0.212825
-0.32234
-0.322752
-0.322318
-0.321169
-0.319386
-0.316976
-0.313953
-0.310328
-0.306105
-0.301283
-0.295851
-0.289795
-0.283096
-0.275732
-0.267685
-0.258931
-0.249429
-0.239609
-0.229585
-0.211263
-0.329421
-0.329084
-0.328062
-0.326395
-0.324118
-0.32125
-0.317805
-0.313795
-0.309223
-0.304085
-0.298366
-0.292049
-0.285106
-0.277506
-0.269218
-0.260202
-0.250385
-0.240216
-0.229953
-0.20959
-0.336997
-0.335865
-0.334219
-0.331994
-0.329185
-0.32582
-0.321918
-0.31749
-0.312537
-0.307053
-0.301022
-0.294419
-0.287211
-0.279355
-0.27081
-0.261519
-0.251377
-0.240835
-0.230346
-0.207839
-0.345026
-0.34306
-0.340753
-0.337936
-0.334559
-0.330663
-0.326271
-0.321391
-0.316027
-0.31017
-0.303801
-0.296889
-0.289395
-0.281267
-0.272449
-0.262873
-0.252396
-0.241461
-0.230752
-0.206051
-0.35347
-0.350635
-0.347636
-0.344195
-0.340218
-0.335759
-0.330844
-0.325484
-0.319681
-0.313424
-0.306692
-0.29945
-0.29165
-0.283231
-0.274127
-0.264253
-0.253436
-0.242091
-0.231148
-0.204273
-0.362292
-0.358558
-0.354838
-0.350745
-0.346138
-0.341087
-0.335621
-0.329754
-0.323486
-0.316806
-0.309689
-0.302094
-0.293968
-0.285242
-0.275836
-0.265654
-0.254493
-0.242729
-0.231511
-0.202572
-0.371458
-0.366798
-0.362332
-0.357561
-0.3523
-0.34663
-0.34059
-0.334191
-0.327435
-0.320309
-0.312784
-0.304817
-0.296346
-0.287294
-0.277572
-0.267071
-0.255563
-0.243383
-0.231815
-0.201043
-0.380937
-0.375325
-0.370091
-0.364622
-0.358683
-0.352374
-0.345738
-0.338786
-0.331521
-0.323929
-0.315978
-0.307617
-0.298781
-0.289385
-0.279332
-0.2685
-0.256646
-0.244063
-0.231972
-0.199718
-0.390699
-0.384112
-0.378091
-0.371904
-0.365271
-0.358305
-0.351055
-0.343533
-0.335742
-0.327665
-0.319266
-0.310492
-0.30127
-0.29151
-0.281111
-0.269942
-0.257756
-0.244793
-0.231767
-0.198388
-0.400713
-0.39313
-0.386305
-0.379387
-0.372045
-0.364409
-0.356531
-0.348425
-0.340092
-0.331513
-0.322648
-0.313438
-0.303807
-0.293662
-0.282902
-0.271399
-0.258945
-0.245703
-0.231278
-0.197721
-0.410948
-0.402349
-0.394707
-0.387048
-0.378987
-0.37067
-0.362155
-0.353454
-0.344566
-0.335468
-0.326116
-0.316447
-0.306379
-0.295823
-0.284682
-0.272855
-0.260231
-0.24696
-0.231868
-0.204758
-0.421369
-0.411737
-0.403268
-0.394859
-0.386075
-0.377072
-0.367914
-0.35861
-0.349154
-0.33952
-0.32966
-0.319502
-0.308966
-0.29796
-0.286403
-0.274231
-0.261451
-0.248299
-0.234771
-0.22667
-0.431936
-0.421256
-0.411953
-0.402794
-0.393284
-0.383595
-0.373791
-0.363876
-0.353842
-0.343655
-0.33326
-0.322581
-0.311534
-0.30003
-0.288
-0.275413
-0.262354
-0.24908
-0.235592
-0.231115
-0.442605
-0.430865
-0.420725
-0.410817
-0.400585
-0.390213
-0.379762
-0.369232
-0.358607
-0.347847
-0.336888
-0.325649
-0.31404
-0.301978
-0.289404
-0.276306
-0.262807
-0.249131
-0.235021
-0.230146
-0.453323
-0.440513
-0.429539
-0.418889
-0.407943
-0.396893
-0.385798
-0.374649
-0.36342
-0.352063
-0.340506
-0.32866
-0.316433
-0.303743
-0.290542
-0.276834
-0.262751
-0.24848
-0.23367
-0.227214
-0.464025
-0.450145
-0.438343
-0.426962
-0.415314
-0.403595
-0.39186
-0.380086
-0.368239
-0.356258
-0.344062
-0.331556
-0.318646
-0.305255
-0.291343
-0.276928
-0.262143
-0.24714
-0.231578
-0.22311
-0.47464
-0.459692
-0.447074
-0.434979
-0.422645
-0.41027
-0.397898
-0.385495
-0.373011
-0.360375
-0.347494
-0.334269
-0.320607
-0.306436
-0.291731
-0.276523
-0.260946
-0.245128
-0.228789
-0.2183
-0.485082
-0.469077
-0.455663
-0.442875
-0.429875
-0.416857
-0.403855
-0.390814
-0.377672
-0.364343
-0.350726
-0.336719
-0.322231
-0.307205
-0.29163
-0.275558
-0.25913
-0.242463
-0.22537
-0.213059
-0.495253
-0.478212
-0.464027
-0.450573
-0.436931
-0.423287
-0.409657
-0.395969
-0.382143
-0.368079
-0.353671
-0.338815
-0.32343
-0.307476
-0.290966
-0.273978
-0.256668
-0.239159
-0.221364
-0.207505
-0.505046
-0.486997
-0.472074
-0.457987
-0.443728
-0.429475
-0.415222
-0.400874
-0.386333
-0.371489
-0.35623
-0.340458
-0.324107
-0.307162
-0.289667
-0.271732
-0.253537
-0.23522
-0.216795
-0.201668
-0.514336
-0.495322
-0.479701
-0.465017
-0.450173
-0.435328
-0.420453
-0.405429
-0.39014
-0.374467
-0.358297
-0.341543
-0.324164
-0.306176
-0.287663
-0.268771
-0.249711
-0.230644
-0.211672
-0.195534
-0.52299
-0.503063
-0.486792
-0.471555
-0.456158
-0.440739
-0.425242
-0.409524
-0.39345
-0.376897
-0.359757
-0.341962
-0.323502
-0.304435
-0.284889
-0.265054
-0.245169
-0.225425
-0.205992
-0.189071
-0.530864
-0.510088
-0.493224
-0.47748
-0.461565
-0.44559
-0.42947
-0.413036
-0.39614
-0.378656
-0.360491
-0.341603
-0.322024
-0.301859
-0.281286
-0.260539
-0.239891
-0.219554
-0.199751
-0.182239
-0.537801
-0.516255
-0.498861
-0.482662
-0.466266
-0.449753
-0.433007
-0.415835
-0.398078
-0.379616
-0.360377
-0.340357
-0.319635
-0.298373
-0.276799
-0.255195
-0.233857
-0.21302
-0.192939
-0.174999
-0.543638
-0.521412
-0.50356
-0.486961
-0.470123
-0.45309
-0.435715
-0.417782
-0.399129
-0.379647
-0.359295
-0.338117
-0.316249
-0.293909
-0.271383
-0.248991
-0.227053
-0.205813
-0.185546
-0.16732
-0.548204
-0.525401
-0.50717
-0.49023
-0.472991
-0.455457
-0.437449
-0.418734
-0.399152
-0.378616
-0.357126
-0.334782
-0.311783
-0.288409
-0.264998
-0.241905
-0.219465
-0.197927
-0.177564
-0.159174
-0.551325
-0.52806
-0.509534
-0.492317
-0.474719
-0.456702
-0.438059
-0.418545
-0.398008
-0.376396
-0.353759
-0.33026
-0.306166
-0.281821
-0.257611
-0.233919
-0.211085
-0.189355
-0.168987
-0.150541
-0.552823
-0.529221
-0.510493
-0.493064
-0.47515
-0.456672
-0.437394
-0.417067
-0.395561
-0.372864
-0.349087
-0.324466
-0.299337
-0.274105
-0.249198
-0.225019
-0.201906
-0.180092
-0.159809
-0.141406
-0.552521
-0.52872
-0.509884
-0.492313
-0.474129
-0.455211
-0.435303
-0.414159
-0.391679
-0.367904
-0.343017
-0.317327
-0.291243
-0.265227
-0.239741
-0.215198
-0.191925
-0.170138
-0.15003
-0.131762
-0.550246
-0.526389
-0.507548
-0.489904
-0.471497
-0.452166
-0.431639
-0.409683
-0.386239
-0.361414
-0.335464
-0.308782
-0.281845
-0.255165
-0.22923
-0.204454
-0.181144
-0.159493
-0.139649
-0.121604
-0.545829
-0.52207
-0.503328
-0.485682
-0.467103
-0.447389
-0.42626
-0.40351
-0.379129
-0.353299
-0.326359
-0.298782
-0.271113
-0.243905
-0.217661
-0.192788
-0.169567
-0.148163
-0.12867
-0.110933
-0.53911
-0.515609
-0.497072
-0.4795
-0.460802
-0.44074
-0.419037
-0.395522
-0.37025
-0.343481
-0.315646
-0.287293
-0.259029
-0.231441
-0.205038
-0.180209
-0.157202
-0.136153
-0.117099
-0.0997516
-0.529944
-0.506862
-0.48864
-0.471217
-0.452456
-0.432088
-0.409851
-0.385617
-0.359517
-0.331899
-0.303282
-0.274292
-0.245587
-0.217778
-0.19137
-0.166727
-0.144061
-0.123476
-0.104946
-0.0880694
-0.518196
-0.4957
-0.477902
-0.460706
-0.441941
-0.421319
-0.398597
-0.373708
-0.346864
-0.318506
-0.289243
-0.259771
-0.230791
-0.202928
-0.176673
-0.15236
-0.13016
-0.110143
-0.0922244
-0.0759024
-0.503752
-0.482008
-0.464744
-0.447853
-0.42915
-0.408332
-0.38519
-0.359725
-0.33224
-0.303273
-0.273518
-0.243735
-0.214657
-0.186912
-0.160971
-0.137129
-0.115517
-0.0961729
-0.0789512
-0.0632684
-0.486517
-0.465691
-0.44907
-0.432564
-0.413993
-0.393047
-0.369561
-0.343619
-0.315617
-0.28619
-0.256113
-0.226201
-0.197209
-0.169759
-0.144291
-0.121061
-0.100157
-0.0815855
-0.0651426
-0.0501413
-0.466417
-0.446674
-0.430803
-0.414763
-0.396398
-0.375402
-0.351667
-0.325362
-0.296984
-0.267264
-0.237049
-0.207201
-0.178484
-0.151505
-0.12667
-0.104188
-0.0841079
-0.0664071
-0.0508247
-0.0364653
-0.443406
-0.424904
-0.409889
-0.394397
-0.376319
-0.355363
-0.331484
-0.304948
-0.276353
-0.24652
-0.216364
-0.186777
-0.158528
-0.132196
-0.108148
-0.0865478
-0.0674031
-0.050662
-0.0360243
-0.0225101
-0.417462
-0.400355
-0.386299
-0.371438
-0.353733
-0.332914
-0.309013
-0.282393
-0.253754
-0.224002
-0.194108
-0.164987
-0.137396
-0.111884
-0.088773
-0.0681818
-0.0500839
-0.0344051
-0.0207282
-0.00819169
-0.388593
-0.373028
-0.360028
-0.345883
-0.328642
-0.30807
-0.284278
-0.257735
-0.229239
-0.199771
-0.170348
-0.141895
-0.115152
-0.0906284
-0.0686003
-0.0491417
-0.0321893
-0.0176512
-0.00501964
0.00649064
-0.356836
-0.34295
-0.331102
-0.317756
-0.301076
-0.280868
-0.257331
-0.231037
-0.202878
-0.173903
-0.145163
-0.117581
-0.0918709
-0.0684978
-0.0476901
-0.0294782
-0.013768
-0.000446677
0.0110672
0.0215002
-0.322257
-0.310179
-0.299573
-0.287111
-0.271092
-0.251373
-0.228244
-0.202381
-0.174762
-0.146493
-0.118646
-0.0921338
-0.0676342
-0.0455655
-0.0261086
-0.00925131
0.00512754
0.0171604
0.0274942
0.0367958
-0.284954
-0.274802
-0.265522
-0.254027
-0.238775
-0.219676
-0.197117
-0.171873
-0.144999
-0.117649
-0.0909009
-0.0656507
-0.0425318
-0.0219134
-0.00392857
0.0114741
0.0244397
0.0351184
0.0442164
0.0523328
-0.245054
-0.236934
-0.229059
-0.218615
-0.204235
-0.185894
-0.164071
-0.139639
-0.113713
-0.0874912
-0.0620457
-0.0382396
-0.0166616
0.00237083
0.0187713
0.0326277
0.0441058
0.053372
0.0611838
0.068062
-0.202716
-0.19672
-0.190323
-0.18101
-0.167612
-0.150167
-0.129248
-0.105815
-0.08105
-0.0561584
-0.0322057
-0.0100164
0.00987163
0.0271933
0.0419072
0.0541343
0.0640583
0.071861
0.0783411
0.0839275
-0.158129
-0.154331
-0.149481
-0.141379
-0.12907
-0.112656
-0.0928134
-0.070573
-0.0471625
-0.023796
-0.00151715
0.0188951
0.0369568
0.0524545
0.0653898
0.0759137
0.0842246
0.0905207
0.0956273
0.0998663
-0.111498
-0.109973
-0.106726
-0.0999072
-0.088791
-0.0735554
-0.0549517
-0.0340866
-0.0122198
0.00943791
0.0298756
0.0483648
0.0644771
0.0780502
0.0891261
0.0978815
0.104528
0.109283
0.112979
0.115809
-0.0630136
-0.063911
-0.0622763
-0.0568109
-0.0469924
-0.0330668
-0.0158627
0.00345186
0.0235968
0.0433765
0.0618208
0.0782563
0.092311
0.103872
0.113019
0.11995
0.124889
0.128083
0.130338
0.131654
-0.0130754
-0.0163054
-0.0163709
-0.0123279
-0.00390367
0.0085847
0.0242371
0.0418371
0.0600964
0.0778449
0.0941607
0.108428
0.120333
0.129809
0.136968
0.142027
0.145228
0.146864
0.14764
0.147205
0.038122
0.0325161
0.0307209
0.0332861
0.0402264
0.0511578
0.0651177
0.0808531
0.0970795
0.112662
0.126732
0.138736
0.148414
0.155745
0.160871
0.164021
0.165465
0.165554
0.164719
0.162221
0.0902694
0.082264
0.0787195
0.0797578
0.0851325
0.0943979
0.106538
0.120275
0.13434
0.14764
0.159368
0.169031
0.176423
0.181566
0.184625
0.18584
0.185516
0.184014
0.181205
0.176654
0.143038
0.132634
0.127328
0.126798
0.130536
0.138039
0.148248
0.159871
0.171665
0.18259
0.191899
0.199162
0.204228
0.207154
0.208128
0.207402
0.205311
0.202133
0.196879
0.190748
0.196091
0.183306
0.176236
0.174106
0.176147
0.181806
0.18999
0.199405
0.208841
0.217317
0.224152
0.228978
0.231693
0.232391
0.231279
0.228622
0.224777
0.219983
0.213209
0.206635
0.249083
0.233948
0.225121
0.221371
0.221669
0.225419
0.231503
0.238636
0.245651
0.251628
0.255956
0.258326
0.258685
0.257158
0.253971
0.2494
0.243806
0.237395
0.229291
0.222017
0.301661
0.284221
0.273656
0.268275
0.266799
0.268593
0.272523
0.277323
0.281876
0.285329
0.287138
0.287054
0.285068
0.281335
0.276097
0.269637
0.262313
0.254301
0.24488
0.236669
0.353468
0.333782
0.321507
0.3145
0.311233
0.311041
0.312786
0.315227
0.317302
0.318228
0.317528
0.315011
0.31071
0.304805
0.297551
0.289239
0.280215
0.27064
0.259918
0.250612
0.404147
0.382286
0.368342
0.359724
0.354666
0.35248
0.352031
0.352109
0.351715
0.350134
0.346958
0.342049
0.335479
0.327451
0.318232
0.308114
0.297432
0.286336
0.274342
0.263867
0.453344
0.429393
0.41383
0.403629
0.396798
0.39263
0.39
0.387737
0.384907
0.380864
0.375265
0.368025
0.359249
0.349163
0.33804
0.326173
0.313887
0.301322
0.288092
0.276427
0.500711
0.474766
0.457646
0.445904
0.437335
0.431217
0.426442
0.421886
0.416675
0.410237
0.40229
0.392797
0.381897
0.36983
0.356879
0.343335
0.329507
0.315534
0.301113
0.288266
0.545911
0.518079
0.499473
0.486247
0.475989
0.467975
0.461117
0.454336
0.446826
0.438082
0.427882
0.416233
0.403304
0.38935
0.374658
0.359517
0.344223
0.328912
0.313355
0.299354
0.588617
0.559016
0.539007
0.524364
0.512488
0.502651
0.493792
0.484879
0.475173
0.464234
0.451894
0.438204
0.423357
0.407622
0.391289
0.374644
0.357969
0.341399
0.324771
0.30966
0.628518
0.597276
0.575957
0.559979
0.54657
0.535004
0.524248
0.513319
0.501542
0.488537
0.474191
0.45859
0.441951
0.424553
0.40669
0.388643
0.370682
0.352941
0.335316
0.319155
0.665325
0.632578
0.61005
0.592831
0.577991
0.564809
0.55228
0.539472
0.525768
0.510847
0.494644
0.477277
0.458985
0.440057
0.420785
0.401448
0.382303
0.363487
0.344946
0.327806
0.698765
0.66466
0.641033
0.622678
0.606523
0.591855
0.577699
0.563168
0.547701
0.531031
0.513135
0.494163
0.47437
0.454051
0.433502
0.412995
0.392778
0.37299
0.35362
0.335582
0.728592
0.69328
0.668674
0.6493
0.631962
0.615954
0.600332
0.584252
0.567203
0.548968
0.529558
0.509153
0.48802
0.466463
0.444777
0.42323
0.402058
0.381406
0.361299
0.342456
0.754584
0.718226
0.692765
0.672498
0.654121
0.636937
0.620027
0.602588
0.584154
0.564548
0.543818
0.522162
0.499863
0.477228
0.454552
0.432099
0.410098
0.388696
0.367949
0.348401
0.776548
0.739309
0.713127
0.692101
0.672839
0.654654
0.636648
0.618055
0.598445
0.577679
0.555831
0.533118
0.509833
0.486288
0.462776
0.43956
0.41686
0.394825
0.373539
0.353392
0.79432
0.756371
0.729604
0.707962
0.687981
0.66898
0.650084
0.630552
0.609988
0.588281
0.565527
0.541958
0.517876
0.493594
0.469408
0.445575
0.422309
0.399765
0.378044
0.357411
0.807767
0.769281
0.742072
0.719963
0.699436
0.679815
0.660242
0.639997
0.61871
0.596289
0.572849
0.548633
0.523947
0.499109
0.474413
0.450113
0.42642
0.40349
0.381442
0.36044
0.816788
0.777943
0.750437
0.728014
0.707119
0.687081
0.667052
0.646329
0.624555
0.601655
0.577754
0.553103
0.528013
0.502802
0.477764
0.453152
0.429173
0.405985
0.383716
0.362466
0.555345
0.530052
0.504654
0.479444
0.454675
0.430552
0.407235
0.384856
0.363481
-0.227331
-0.229676
-0.231968
-0.234106
-0.231299
-0.23598
-0.233483
-0.224382
-0.237468
-0.235268
-0.225839
-0.238445
-0.236473
-0.226864
-0.220383
-0.238795
-0.236903
-0.227302
-0.220943
-0.2385
-0.236334
-0.227054
-0.220992
-0.215691
-0.235508
-0.233851
-0.225914
-0.220412
-0.215337
-0.210042
-0.234993
-0.229772
-0.221783
-0.216647
-0.211881
-0.207128
-0.206695
-0.216971
-0.21964
-0.216186
-0.211358
-0.206808
-0.20217
-0.201728
-0.209074
-0.212599
-0.209609
-0.206332
-0.202617
-0.198507
-0.199413
-0.203642
-0.206559
-0.204284
-0.201296
-0.19799
-0.194288
-0.196719
-0.198956
-0.201192
-0.199261
-0.196523
-0.193536
-0.190169
-0.193719
-0.194518
-0.196027
-0.194253
-0.191755
-0.18904
-0.185968
-0.190239
-0.190113
-0.190939
-0.189245
-0.186941
-0.184448
-0.181634
-0.186255
-0.185606
-0.185851
-0.184211
-0.182074
-0.179771
-0.177186
-0.181822
-0.180919
-0.180705
-0.17912
-0.177143
-0.175013
-0.172637
-0.176987
-0.176021
-0.175465
-0.173951
-0.172135
-0.170174
-0.167994
-0.171803
-0.170912
-0.170119
-0.168695
-0.167048
-0.165256
-0.163266
-0.166328
-0.165607
-0.164668
-0.163355
-0.161884
-0.160266
-0.158461
-0.160625
-0.160133
-0.159123
-0.15794
-0.156653
-0.155212
-0.153591
-0.15475
-0.154522
-0.153503
-0.152464
-0.151365
-0.150105
-0.148669
-0.14876
-0.148809
-0.147832
-0.146946
-0.146038
-0.14496
-0.143707
-0.142706
-0.143031
-0.142134
-0.141407
-0.140688
-0.139794
-0.138721
-0.136634
-0.137225
-0.136436
-0.135869
-0.135335
-0.134621
-0.133726
-0.130587
-0.131424
-0.130762
-0.130354
-0.129999
-0.12946
-0.128738
-0.124601
-0.125659
-0.125137
-0.124884
-0.124697
-0.124327
-0.123772
-0.118706
-0.11996
-0.119583
-0.119477
-0.119449
-0.119238
-0.118843
-0.112929
-0.11435
-0.114119
-0.114152
-0.11427
-0.11421
-0.113965
-0.10729
-0.108851
-0.108761
-0.108924
-0.109175
-0.109255
-0.109151
-0.101805
-0.103479
-0.103524
-0.103805
-0.104178
-0.104385
-0.104413
-0.0964842
-0.098247
-0.0984183
-0.0988069
-0.0992885
-0.0996121
-0.099761
-0.0913365
-0.0931661
-0.0934531
-0.0939379
-0.0945157
-0.094944
-0.0952032
-0.086366
-0.088243
-0.0886345
-0.0892045
-0.0898667
-0.0903884
-0.0907473
-0.0815746
-0.0834821
-0.0839667
-0.0846115
-0.0853468
-0.085951
-0.0863995
-0.0769622
-0.0788859
-0.0794523
-0.0801618
-0.08096
-0.0816364
-0.0821645
-0.072527
-0.0744548
-0.0750924
-0.0758573
-0.0767088
-0.0774476
-0.0780461
-0.0682664
-0.0701882
-0.0708869
-0.0716986
-0.0725947
-0.0733871
-0.0740471
-0.0641768
-0.0660842
-0.0668349
-0.0676855
-0.0686182
-0.069456
-0.0701694
-0.0602542
-0.0621403
-0.0629345
-0.0638172
-0.0647794
-0.065655
-0.066414
-0.0564943
-0.0583534
-0.0591837
-0.060092
-0.0610773
-0.0619839
-0.0627817
-0.0528927
-0.0547202
-0.0555798
-0.0565081
-0.0575108
-0.0584422
-0.0592723
-0.049445
-0.0512371
-0.05212
-0.0530633
-0.0540783
-0.055029
-0.0558855
-0.0461468
-0.0479004
-0.0488013
-0.0497551
-0.0507779
-0.0517428
-0.0526205
-0.0429938
-0.0447063
-0.0456204
-0.0465809
-0.0476075
-0.0485821
-0.0494761
-0.0399816
-0.0416511
-0.0425742
-0.0435378
-0.0445646
-0.045545
-0.0464511
-0.037106
-0.0387309
-0.0396594
-0.040623
-0.041647
-0.0426295
-0.0435438
-0.0343629
-0.035942
-0.0368726
-0.0378335
-0.0388519
-0.0398335
-0.0407525
-0.0317481
-0.0332807
-0.0342104
-0.0351664
-0.0361768
-0.0371547
-0.0380753
-0.0292577
-0.0307431
-0.0316696
-0.0326184
-0.0336188
-0.0345906
-0.0355101
-0.0268876
-0.0283257
-0.0292466
-0.0301866
-0.0311753
-0.0321388
-0.0330547
-0.024634
-0.0260248
-0.0269383
-0.0278679
-0.0288433
-0.0297968
-0.030707
-0.0224931
-0.0238368
-0.0247412
-0.0256592
-0.0266201
-0.0275619
-0.0284646
-0.020461
-0.0217582
-0.0226521
-0.0235574
-0.0245028
-0.0254317
-0.0263253
-0.0185342
-0.0197856
-0.0206678
-0.0215596
-0.0224885
-0.0234035
-0.0242866
-0.0167092
-0.0179155
-0.0187851
-0.0196626
-0.0205746
-0.0214747
-0.0223463
-0.0149825
-0.0161447
-0.017001
-0.0178636
-0.0187583
-0.0196428
-0.0205019
-0.0133508
-0.0144701
-0.0153124
-0.0161598
-0.0170368
-0.0179052
-0.0187511
-0.0118109
-0.0128886
-0.0137164
-0.0145484
-0.0154075
-0.0162596
-0.0170917
-0.0103598
-0.0113972
-0.0122103
-0.0130268
-0.013868
-0.0147035
-0.0155215
-0.0089946
-0.00999311
-0.0107913
-0.0115923
-0.0124157
-0.0132347
-0.0140382
-0.00771254
-0.00867369
-0.00945697
-0.0102425
-0.0110484
-0.0118509
-0.0126399
-0.00651102
-0.0074364
-0.00820485
-0.00897517
-0.00976388
-0.01055
-0.0113245
-0.00538762
-0.00627889
-0.0070327
-0.0077881
-0.00856002
-0.00933009
-0.0100903
-0.00434009
-0.00519896
-0.00593842
-0.00667929
-0.00743493
-0.00818937
-0.00893546
-0.00336638
-0.0041946
-0.00492011
-0.00564692
-0.00638686
-0.00712616
-0.00785851
-0.00246463
-0.00326401
-0.00397604
-0.00468934
-0.00541425
-0.006139
-0.00685805
-0.00163319
-0.00240559
-0.0031047
-0.00380511
-0.00451573
-0.00522659
-0.00593288
-0.000870674
-0.00161799
-0.00230482
-0.00299303
-0.00369016
-0.00438788
-0.00508204
-0.000175913
-0.000900085
-0.00157535
-0.00225213
-0.00293665
-0.00362205
-0.00430478
0.000451965
-0.000251052
-0.000915556
-0.00158173
-0.00225458
-0.00292855
-0.00360065
0.00101353
0.000329633
-0.000324981
-0.000981434
-0.00164363
-0.00230715
-0.00296947
0.00150903
0.000842154
0.00019648
-0.000451218
-0.00110384
-0.00175793
-0.00241143
0.00193831
0.00128631
0.000648544
8.57062e-06
-0.000635617
-0.0012814
-0.0019271
0.00230084
0.00166148
0.00103052
0.000397168
-0.000239804
-0.000878463
-0.00151747
0.00259548
0.00196645
0.00134111
0.000713217
8.21796e-05
-0.000550617
-0.00118409
0.00282103
0.0021999
0.00157886
0.000955121
0.000328613
-0.000299699
-0.000928941
0.00297404
0.00235843
0.00174046
0.00111967
0.00049634
-0.000128836
-0.000755123
0.00305479
0.00244141
0.00182458
0.00120499
0.00058305
-4.06963e-05
-0.0006656
-0.099987
-0.109899
-0.119331
-0.128272
-0.136714
-0.144649
-0.152069
-0.158971
-0.165354
-0.171226
-0.176601
-0.181509
-0.185998
-0.190139
-0.194034
-0.197831
-0.201741
-0.206014
-0.211255
-0.227231
-0.09417
-0.103675
-0.112739
-0.121354
-0.129512
-0.137208
-0.14444
-0.151207
-0.157516
-0.163383
-0.168836
-0.173922
-0.178715
-0.183325
-0.187913
-0.192713
-0.198091
-0.20451
-0.211939
-0.233989
-0.088665
-0.0977937
-0.106534
-0.114881
-0.122832
-0.130386
-0.137546
-0.144319
-0.150717
-0.156763
-0.162489
-0.167948
-0.173212
-0.178383
-0.183604
-0.189066
-0.19506
-0.201925
-0.208626
-0.230302
-0.0834351
-0.092211
-0.100645
-0.108736
-0.116483
-0.123888
-0.130955
-0.137694
-0.144119
-0.150252
-0.156124
-0.16178
-0.167281
-0.17271
-0.178178
-0.183824
-0.189861
-0.196603
-0.202574
-0.223119
-0.0784656
-0.0868999
-0.0950325
-0.102863
-0.110393
-0.117625
-0.124565
-0.131221
-0.137609
-0.143748
-0.149666
-0.155404
-0.161015
-0.16657
-0.172165
-0.177921
-0.184023
-0.190829
-0.196702
-0.215845
-0.0737436
-0.0818465
-0.089683
-0.0972538
-0.104561
-0.111609
-0.118403
-0.124954
-0.131275
-0.137385
-0.143311
-0.149089
-0.15477
-0.160417
-0.166118
-0.171983
-0.178169
-0.185035
-0.190907
-0.208301
-0.0692547
-0.0770375
-0.0845852
-0.0918994
-0.0989831
-0.105841
-0.11248
-0.118909
-0.125143
-0.1312
-0.137104
-0.14289
-0.148601
-0.154295
-0.160051
-0.165961
-0.17215
-0.178947
-0.184799
-0.200441
-0.0649844
-0.0724586
-0.0797252
-0.0867867
-0.0936466
-0.10031
-0.106784
-0.113078
-0.119206
-0.125184
-0.131035
-0.13679
-0.142487
-0.148177
-0.153927
-0.159815
-0.165941
-0.1726
-0.178458
-0.192476
-0.0609191
-0.0680959
-0.0750893
-0.0819022
-0.0885387
-0.0950041
-0.101305
-0.107452
-0.113456
-0.119333
-0.125103
-0.130795
-0.136441
-0.142085
-0.147785
-0.153608
-0.159639
-0.166129
-0.171988
-0.184511
-0.0570464
-0.0639364
-0.0706643
-0.0772333
-0.0836476
-0.0899126
-0.0960351
-0.102024
-0.10789
-0.113649
-0.119317
-0.124919
-0.130485
-0.136053
-0.141671
-0.147399
-0.153307
-0.159603
-0.165427
-0.176588
-0.0533545
-0.059968
-0.0664381
-0.0727681
-0.0789623
-0.085026
-0.0909656
-0.0967893
-0.102508
-0.108133
-0.113682
-0.119175
-0.124639
-0.130105
-0.135615
-0.141221
-0.146982
-0.153062
-0.158814
-0.168753
-0.0498329
-0.0561798
-0.0623996
-0.0684959
-0.0744726
-0.080335
-0.0860891
-0.0917424
-0.0973041
-0.102786
-0.108202
-0.11357
-0.118913
-0.124257
-0.12964
-0.135103
-0.140697
-0.146553
-0.152197
-0.161048
-0.0464719
-0.0525615
-0.0585386
-0.0644064
-0.0701689
-0.075831
-0.0813982
-0.0868773
-0.0922767
-0.0976064
-0.102879
-0.108109
-0.113317
-0.118526
-0.123765
-0.12907
-0.134487
-0.140112
-0.145619
-0.153506
-0.0432623
-0.0491039
-0.0548455
-0.0604905
-0.0660425
-0.0715059
-0.0768859
-0.0821887
-0.0874215
-0.0925932
-0.0977144
-0.102798
-0.107861
-0.112922
-0.118007
-0.123146
-0.128375
-0.13377
-0.139114
-0.146156
-0.040196
-0.0457984
-0.0513119
-0.0567397
-0.0620851
-0.0673523
-0.0725459
-0.0776714
-0.0827351
-0.0877447
-0.0927093
-0.0976401
-0.102551
-0.107457
-0.112381
-0.117346
-0.122384
-0.127552
-0.132715
-0.139019
-0.0372655
-0.0426374
-0.04793
-0.0531463
-0.0582896
-0.0633635
-0.0683722
-0.0733204
-0.0782138
-0.083059
-0.0878636
-0.0926371
-0.0973907
-0.102138
-0.106896
-0.111685
-0.116531
-0.121476
-0.126446
-0.132113
-0.0344642
-0.0396137
-0.0446925
-0.0497033
-0.0546491
-0.0595331
-0.0643591
-0.0691312
-0.0738543
-0.078534
-0.0831769
-0.0877907
-0.0923848
-0.0969702
-0.101561
-0.106173
-0.110827
-0.115559
-0.120328
-0.125447
-0.0317855
-0.0367209
-0.041593
-0.0464043
-0.0511574
-0.0558554
-0.0605014
-0.0650993
-0.0696531
-0.0741676
-0.0786482
-0.0831016
-0.0875351
-0.091958
-0.0963812
-0.100818
-0.105285
-0.109809
-0.114376
-0.119028
-0.0292239
-0.0339531
-0.0386254
-0.0432431
-0.0478088
-0.0523249
-0.0567944
-0.0612205
-0.0656067
-0.0699571
-0.0742763
-0.0785695
-0.082843
-0.087104
-0.0913614
-0.0956256
-0.099909
-0.104236
-0.108602
-0.112858
-0.0267737
-0.0313045
-0.035784
-0.0402144
-0.0445978
-0.0489366
-0.0532333
-0.0574907
-0.0617119
-0.0659001
-0.0700593
-0.0741939
-0.0783087
-0.0824097
-0.0865039
-0.0905993
-0.0947053
-0.098844
-0.103014
-0.106935
-0.02443
-0.02877
-0.0330636
-0.0373128
-0.0415195
-0.0456858
-0.0498138
-0.0539061
-0.0579652
-0.0619939
-0.0659955
-0.0699735
-0.073932
-0.0778757
-0.0818099
-0.085741
-0.0896757
-0.0936348
-0.0976142
-0.101254
-0.022189
-0.0263451
-0.0304595
-0.0345336
-0.0385691
-0.0425678
-0.0465316
-0.0504627
-0.0543632
-0.0582356
-0.0620825
-0.0659069
-0.0697119
-0.0735014
-0.0772796
-0.0810512
-0.0848212
-0.0886092
-0.092406
-0.0958079
-0.0200452
-0.0240251
-0.027967
-0.0318721
-0.035742
-0.0395782
-0.0433825
-0.0471566
-0.0509025
-0.0546221
-0.0583177
-0.0619918
-0.0656468
-0.0692859
-0.0729122
-0.0765295
-0.0801411
-0.0837661
-0.0873885
-0.0905883
-0.0179957
-0.0218062
-0.0255819
-0.0293241
-0.033034
-0.036713
-0.0403625
-0.0439842
-0.0475795
-0.0511504
-0.0546985
-0.0582259
-0.0617347
-0.0652273
-0.0687063
-0.0721743
-0.0756339
-0.0791033
-0.0825598
-0.0855863
-0.0160364
-0.0196843
-0.0233002
-0.0268854
-0.0304409
-0.0339679
-0.0374677
-0.0409415
-0.0443908
-0.047817
-0.0512217
-0.0546065
-0.0579731
-0.0613234
-0.0646596
-0.0679835
-0.0712971
-0.0746179
-0.0779166
-0.0807926
-0.0141637
-0.0176554
-0.0211179
-0.024552
-0.0279588
-0.0313391
-0.0346941
-0.0380249
-0.0413327
-0.0446187
-0.0478841
-0.0511305
-0.0543591
-0.0575716
-0.0607695
-0.0639544
-0.0671278
-0.0703063
-0.073455
-0.076198
-0.012374
-0.0157161
-0.0190312
-0.0223201
-0.0255836
-0.0288225
-0.0320379
-0.0352305
-0.0384015
-0.0415518
-0.0446824
-0.0477947
-0.0508897
-0.0539687
-0.0570331
-0.0600839
-0.0631224
-0.0661646
-0.0691704
-0.071794
-0.0106642
-0.0138628
-0.0170365
-0.0201859
-0.0233117
-0.0264145
-0.0294953
-0.0325546
-0.0355935
-0.0386126
-0.0416131
-0.0445957
-0.0475615
-0.0505115
-0.0534469
-0.0563684
-0.0592773
-0.0621885
-0.0650583
-0.0675725
-0.0090312
-0.0120924
-0.0151304
-0.0181459
-0.0211394
-0.0241114
-0.0270625
-0.0299935
-0.032905
-0.0357977
-0.0386724
-0.0415298
-0.0443709
-0.0471964
-0.0500074
-0.0528043
-0.0555885
-0.0583739
-0.0611137
-0.0635263
-0.00747206
-0.0104016
-0.0133098
-0.0161968
-0.0190632
-0.0219095
-0.024736
-0.0275435
-0.0303323
-0.0331032
-0.0358566
-0.0385934
-0.0413142
-0.0440197
-0.0467107
-0.0493876
-0.0520519
-0.0547162
-0.0573318
-0.0596487
-0.00598402
-0.00878766
-0.0115713
-0.0143352
-0.0170798
-0.0198053
-0.0225122
-0.0252008
-0.0278717
-0.0305253
-0.0331622
-0.0357828
-0.0383877
-0.0409776
-0.0435531
-0.0461145
-0.0486633
-0.0512112
-0.053708
-0.0559337
-0.00456444
-0.0072476
-0.00991206
-0.012558
-0.0151857
-0.0177955
-0.0203875
-0.0229621
-0.0255196
-0.0280606
-0.0305852
-0.0330941
-0.0355875
-0.0380662
-0.0405306
-0.0429809
-0.0454186
-0.0478544
-0.0502376
-0.0523758
-0.00321081
-0.00577873
-0.00832915
-0.0108622
-0.013378
-0.0158767
-0.0183585
-0.0208237
-0.0232724
-0.0257051
-0.028122
-0.0305235
-0.0329099
-0.0352816
-0.0376392
-0.0399827
-0.0423137
-0.0446418
-0.0469161
-0.0489701
-0.00192072
-0.00437846
-0.00681979
-0.00924472
-0.0116533
-0.0140457
-0.0164219
-0.0187822
-0.0211266
-0.0234555
-0.0257689
-0.0280673
-0.0303509
-0.03262
-0.034875
-0.0371159
-0.0393444
-0.0415689
-0.043739
-0.0457119
-0.000691836
-0.00304427
-0.00538129
-0.00770281
-0.0100088
-0.0122994
-0.0145745
-0.0168342
-0.0190787
-0.021308
-0.0235223
-0.0257218
-0.0279068
-0.0300774
-0.0322339
-0.0343764
-0.0365065
-0.0386317
-0.0407022
-0.0425966
0.000478058
-0.00177375
-0.00401106
-0.00623372
-0.00844163
-0.0106347
-0.012813
-0.0149765
-0.0171252
-0.0192592
-0.0213785
-0.0234833
-0.0255738
-0.02765
-0.0297122
-0.0317603
-0.0337961
-0.035826
-0.0378013
-0.0396199
0.00159108
-0.000564565
-0.00270663
-0.0048348
-0.00694891
-0.00904887
-0.0111346
-0.013206
-0.0152631
-0.0173058
-0.0193342
-0.0213483
-0.0233482
-0.025334
-0.0273059
-0.0292637
-0.0312092
-0.0331477
-0.0350322
-0.0367777
0.00264943
0.000585561
-0.00146556
-0.00350348
-0.00552798
-0.0075389
-0.0095361
-0.0115195
-0.0134889
-0.0154444
-0.0173858
-0.0193131
-0.0212265
-0.0231258
-0.0250113
-0.0268827
-0.0287418
-0.0305929
-0.0323908
-0.0340658
0.00365547
0.00167887
-0.000285496
-0.00223727
-0.0041762
-0.00610209
-0.00801474
-0.00991398
-0.0117997
-0.0136717
-0.01553
-0.0173744
-0.019205
-0.0210218
-0.0228246
-0.0246135
-0.0263899
-0.0281576
-0.0298731
-0.0314803
0.00461067
0.00271716
0.000835623
-0.00103388
-0.00289112
-0.00473582
-0.00656773
-0.00838664
-0.0101924
-0.0119847
-0.0137636