/*--------------------------------*- C++ -*----------------------------------*\
  =========                 |
  \\      /  F ield         | OpenFOAM: The Open Source CFD Toolbox
   \\    /   O peration     | Website:  https://openfoam.org
    \\  /    A nd           | Version:  7
     \\/     M anipulation  |
\*---------------------------------------------------------------------------*/
FoamFile
{
    version     2.0;
    format      ascii;
    class       volVectorField;
    location    "30.999262";
    object      U;
}
// * * * * * * * * * * * * * * * * * * * * * * * * * * * * * * * * * * * * * //

dimensions      [0 1 -1 0 0 0 0];

internalField   nonuniform List<vector> 
5800
(
(-0.0999132 0.00411822 -7.30112e-21)
(-0.111378 0.00388916 7.7768e-22)
(-0.122308 0.00363347 -2.45719e-21)
(-0.132599 0.00335251 4.43037e-21)
(-0.142142 0.00304526 -5.71986e-21)
(-0.150822 0.00271192 -6.12009e-21)
(-0.158516 0.00235896 -1.77231e-21)
(-0.165186 0.00201575 9.68856e-21)
(-0.170862 0.00173012 -8.2739e-21)
(-0.000735451 0.00247884 -1.92947e-21)
(-0.00395899 0.00623819 -5.53715e-21)
(-0.0103417 0.00905355 4.72648e-21)
(-0.0187387 0.0110826 1.11224e-20)
(-0.0286288 0.0124413 1.91181e-21)
(-0.039599 0.0132412 3.36093e-22)
(-0.0512473 0.0135909 -3.83481e-21)
(-0.0632328 0.0135908 2.06347e-21)
(-0.07528 0.0133287 -1.1918e-20)
(-0.0871702 0.0128776 7.45073e-21)
(-0.0987327 0.0122922 2.70913e-20)
(-0.109832 0.0116091 -4.54688e-21)
(-0.120355 0.0108467 6.70963e-21)
(-0.130191 0.0100093 -4.07521e-21)
(-0.13923 0.00909331 1.06181e-20)
(-0.147348 0.00809827 -1.27281e-21)
(-0.154405 0.00703995 5.89971e-21)
(-0.160341 0.00600175 -3.61186e-20)
(-0.165209 0.00514492 3.59582e-21)
(-0.000968366 0.00406863 1.05044e-20)
(-0.00447941 0.0102509 1.04718e-20)
(-0.0109568 0.0148919 -2.33825e-21)
(-0.0193088 0.0182438 -5.12271e-21)
(-0.0290379 0.0204937 -1.99789e-21)
(-0.0397471 0.0218224 7.09639e-21)
(-0.0510471 0.0224075 1.04534e-20)
(-0.0626053 0.0224132 -2.3113e-20)
(-0.0741506 0.0219847 6.62801e-21)
(-0.0854651 0.0212422 -8.35766e-21)
(-0.096376 0.0202773 -1.43496e-20)
(-0.106743 0.019151 -2.79076e-21)
(-0.116447 0.0178948 -4.32438e-21)
(-0.125371 0.0165158 -9.866e-21)
(-0.133393 0.0150071 1.15955e-20)
(-0.140377 0.0133647 -1.10281e-20)
(-0.146154 0.0116035 1.41693e-21)
(-0.150603 0.00984289 3.54586e-20)
(-0.1539 0.00842191 -2.50186e-20)
(-0.00130653 0.00556758 -7.77747e-21)
(-0.00523745 0.0140512 1.3915e-20)
(-0.0118555 0.020442 -1.97935e-20)
(-0.0201436 0.0250719 9.09804e-21)
(-0.0296374 0.0281898 -4.91555e-20)
(-0.039962 0.0300392 -2.99875e-20)
(-0.0507461 0.0308611 1.87999e-20)
(-0.0616688 0.0308802 4.55676e-20)
(-0.0724649 0.030296 -1.87027e-20)
(-0.0829176 0.0292752 -1.28286e-20)
(-0.0928501 0.0279455 -1.83167e-20)
(-0.102115 0.0263929 3.73247e-20)
(-0.110583 0.0246632 4.61591e-20)
(-0.118124 0.0227671 -3.63872e-20)
(-0.124599 0.0206928 -2.95962e-20)
(-0.129861 0.0184298 1.10481e-20)
(-0.133697 0.0159793 -2.44995e-20)
(-0.135849 0.0134513 -1.17146e-21)
(-0.136907 0.0115071 4.12055e-20)
(-0.00173743 0.00694551 3.07653e-20)
(-0.00620766 0.0175669 9.27427e-21)
(-0.0130104 0.0256031 3.15211e-20)
(-0.0212196 0.0314473 -9.45096e-21)
(-0.0304104 0.0353987 4.79307e-20)
(-0.0402344 0.0377546 2.88603e-20)
(-0.050342 0.0388126 -3.4518e-20)
(-0.0604267 0.0388526 -4.42316e-20)
(-0.0702305 0.0381254 4.04772e-20)
(-0.0795366 0.0368421 -1.13902e-20)
(-0.0881626 0.035166 1.68958e-20)
(-0.0959502 0.0332089 -6.67371e-20)
(-0.102753 0.0310319 2.33727e-20)
(-0.108424 0.028651 8.67017e-21)
(-0.1128 0.0260492 4.90384e-21)
(-0.115711 0.0232077 1.82758e-20)
(-0.116928 0.0201055 4.78918e-20)
(-0.115853 0.016749 1.26091e-21)
(-0.114124 0.0143858 -1.44999e-20)
(-0.00224578 0.00817794 2.12701e-20)
(-0.0073587 0.0207373 1.00129e-20)
(-0.0143876 0.0302882 -5.13209e-20)
(-0.0225071 0.0372639 -3.02583e-20)
(-0.0313347 0.0420009 -1.18195e-20)
(-0.0405507 0.0448405 3.91461e-20)
(-0.0498294 0.0461288 4.62021e-20)
(-0.0588803 0.0461952 -5.6444e-21)
(-0.0674525 0.0453373 -1.08257e-20)
(-0.0753284 0.0438082 -9.39216e-21)
(-0.0823167 0.0418058 -3.02788e-20)
(-0.0882429 0.0394683 6.8776e-20)
(-0.0929386 0.0368741 -3.85012e-22)
(-0.0962296 0.0340465 -2.6807e-20)
(-0.0979136 0.0309649 -2.31448e-21)
(-0.0977914 0.0276018 5.43585e-21)
(-0.0956852 0.0239252 1.71191e-20)
(-0.0902568 0.019681 -6.33647e-20)
(-0.0852834 0.017039 2.90514e-20)
(-0.0688206 0.0110245 -7.59891e-21)
(-0.00281467 0.0092471 -3.54828e-20)
(-0.00865533 0.0235158 1.95657e-20)
(-0.0159481 0.0344269 2.30539e-20)
(-0.0239706 0.0424318 1.9616e-20)
(-0.0323821 0.0478914 4.1958e-20)
(-0.0408914 0.0511804 6.04188e-21)
(-0.049197 0.0526853 -5.89155e-21)
(-0.0570243 0.0527783 1.77157e-20)
(-0.0641289 0.0517991 -2.64315e-20)
(-0.07029 0.0500395 -2.63427e-21)
(-0.0753036 0.0477308 1.28059e-20)
(-0.0789723 0.0450377 -5.83839e-20)
(-0.0810965 0.0420575 -1.93853e-20)
(-0.0814649 0.0388247 1.80944e-20)
(-0.0798196 0.0353171 -4.35783e-20)
(-0.0758882 0.031499 4.85431e-20)
(-0.0697348 0.0273669 6.01678e-21)
(-0.0586032 0.022296 -7.21767e-21)
(-0.0498135 0.0192944 -7.93408e-20)
(-0.0239386 0.0116789 4.64227e-20)
(-0.00342673 0.0101425 -1.40065e-20)
(-0.0100605 0.0258709 -1.45352e-20)
(-0.0176499 0.0379667 -6.7918e-20)
(-0.0255703 0.0468792 -2.98494e-20)
(-0.0335188 0.0529813 -1.00833e-19)
(-0.0412296 0.0566717 -8.46342e-21)
(-0.0484241 0.0583687 -4.94631e-20)
(-0.0548419 0.0584805 -3.52121e-20)
(-0.0602429 0.0573839 7.74036e-20)
(-0.0643999 0.0554059 1.31299e-20)
(-0.0670903 0.052809 3.28755e-20)
(-0.0680859 0.0497841 4.14046e-20)
(-0.0671441 0.0464493 -1.4062e-20)
(-0.0640033 0.0428536 -4.69238e-20)
(-0.0583355 0.0389797 4.24627e-20)
(-0.0496986 0.03479 4.02672e-20)
(-0.0386616 0.0302902 -4.0608e-20)
(-0.0204603 0.0248503 5.71049e-20)
(-0.00670698 0.0207612 8.97789e-20)
(0.0301538 0.0125883 2.50764e-20)
(-0.0040653 0.010861 3.72775e-20)
(-0.0115375 0.0277869 4.2971e-20)
(-0.0194491 0.0408745 2.07896e-20)
(-0.0272621 0.0505542 5.13101e-20)
(-0.0347033 0.0572006 2.34743e-20)
(-0.0415276 0.0612281 6.18313e-20)
(-0.0474752 0.0630792 5.33354e-20)
(-0.0522969 0.0631919 -2.10538e-20)
(-0.0557531 0.0619747 -3.38309e-20)
(-0.0576048 0.0597856 6.04215e-20)
(-0.0576034 0.0569159 -3.81328e-20)
(-0.0554791 0.053582 2.80299e-20)
(-0.0509311 0.0499244 3.81505e-20)
(-0.0436299 0.04601 4.23545e-20)
(-0.03317 0.0418394 -1.24566e-19)
(-0.0188444 0.0374264 -5.93687e-20)
(-0.00173798 0.0325025 -1.62001e-20)
(0.0248026 0.0272114 6.87285e-20)
(0.0446831 0.0220083 -1.50777e-19)
(0.0958226 0.0136224 -5.70197e-20)
(-0.00471551 0.0114064 5.52993e-20)
(-0.0130515 0.0292633 -6.38707e-20)
(-0.0213018 0.0431364 -6.62914e-20)
(-0.0289976 0.0534251 -6.8128e-20)
(-0.0358852 0.0604991 -4.19048e-20)
(-0.0417327 0.0647818 -9.92955e-21)
(-0.0462935 0.0667342 -6.74996e-20)
(-0.0493244 0.0668182 8.37611e-20)
(-0.0505802 0.0654689 2.42045e-20)
(-0.0498023 0.063071 2.36646e-20)
(-0.0467056 0.0599421 -9.58294e-20)
(-0.0409649 0.0563233 1.47686e-20)
(-0.0322029 0.0523783 -1.18447e-20)
(-0.0199941 0.0481964 -4.04025e-21)
(-0.00382724 0.0438059 -4.69452e-20)
(0.0172352 0.0392766 6.13761e-20)
(0.0416546 0.0340219 -1.34836e-20)
(0.0787401 0.0291491 -1.53902e-19)
(0.104932 0.0235966 2.18523e-20)
(0.175221 0.0151187 1.06819e-19)
(-0.00536508 0.0117887 3.93773e-20)
(-0.0145713 0.0303128 -1.22143e-20)
(-0.0231644 0.044756 6.95782e-20)
(-0.0307234 0.0554803 3.45052e-20)
(-0.0370017 0.0628473 4.90564e-20)
(-0.0417719 0.0672861 4.53226e-21)
(-0.0447926 0.0692718 9.17054e-20)
(-0.0458185 0.0692855 -8.22466e-20)
(-0.0445903 0.0677847 -3.73946e-20)
(-0.0408186 0.0651774 -1.51752e-20)
(-0.0341675 0.0618046 9.53837e-20)
(-0.0242384 0.0579312 -1.67858e-20)
(-0.0105545 0.0537459 1.44084e-20)
(0.0074321 0.0493639 5.94802e-20)
(0.0303558 0.0448397 5.72019e-20)
(0.0595125 0.0403135 -1.00165e-19)
(0.0924282 0.0349454 -5.59614e-20)
(0.142718 0.0309283 3.0202e-20)
(0.175292 0.0250783 9.70467e-20)
(0.269898 0.0180492 -1.27419e-20)
(-0.00600488 0.0120228 -5.21442e-20)
(-0.0160694 0.0309599 -2.7671e-20)
(-0.024993 0.0457526 -3.7922e-20)
(-0.0323789 0.0567267 -3.63937e-20)
(-0.0379743 0.0642365 4.11297e-20)
(-0.0415453 0.0687164 -7.91427e-20)
(-0.0428458 0.0706537 7.74385e-20)
(-0.041618 0.0705459 5.27187e-21)
(-0.0375756 0.0688694 -6.54993e-20)
(-0.0303831 0.0660529 -1.49324e-20)
(-0.0196346 0.0624595 -6.06237e-20)
(-0.00483493 0.0583785 2.74419e-20)
(0.0146182 0.0540258 -1.89724e-20)
(0.0394256 0.0495488 -1.14758e-19)
(0.0703382 0.0450301 5.36836e-21)
(0.109165 0.0407697 3.60555e-20)
(0.151971 0.035296 7.96462e-20)
(0.21804 0.0331509 1.396e-19)
(0.257195 0.026335 2.38631e-20)
(0.38048 0.0230946 -1.49914e-19)
(-0.00662893 0.0121266 -7.20453e-20)
(-0.017522 0.0312366 -9.84584e-21)
(-0.0267424 0.046158 1.35495e-19)
(-0.0338938 0.0571877 -6.02305e-20)
(-0.038703 0.0646782 3.02708e-21)
(-0.0409178 0.0690724 -5.71298e-20)
(-0.0402752 0.0708699 -5.45012e-20)
(-0.0364904 0.0705838 8.74032e-21)
(-0.0292333 0.068708 2.8645e-20)
(-0.0181013 0.0656911 1.06071e-19)
(-0.00259381 0.061919 -3.3553e-20)
(0.0179081 0.0577078 -1.43821e-19)
(0.0441597 0.0533064 1.02247e-19)
(0.0770418 0.0489032 8.87621e-20)
(0.117395 0.0446034 5.79416e-20)
(0.167603 0.0410313 1.45981e-19)
(0.221977 0.0354351 -4.76477e-20)
(0.305622 0.0364567 -2.19616e-19)
(0.352185 0.0279393 3.56672e-20)
(0.505598 0.0306768 4.15878e-20)
(-0.00723396 0.0121196 -3.74378e-20)
(-0.0189075 0.0311797 4.74121e-20)
(-0.0283633 0.0460126 -4.71616e-20)
(-0.0351833 0.0569002 7.40264e-20)
(-0.0390603 0.0642031 -8.43606e-20)
(-0.0397109 0.0683786 7.75222e-20)
(-0.0368394 0.0699417 1.53436e-20)
(-0.0301163 0.0694223 -8.22086e-20)
(-0.0191452 0.0673333 6.85359e-20)
(-0.00343007 0.0641446 -7.39526e-20)
(0.0176534 0.0602687 9.16381e-20)
(0.0448769 0.0560544 4.93031e-20)
(0.0791684 0.0517926 3.96945e-20)
(0.121596 0.0477254 -6.04827e-20)
(0.173041 0.0439614 -9.97147e-21)
(0.236284 0.0416345 -7.71742e-20)
(0.304155 0.0361833 5.39428e-20)
(0.40537 0.0413175 2.47577e-21)
(0.461306 0.0312247 -9.52621e-20)
(0.640863 0.0410462 4.10264e-20)
(-0.0078185 0.0120205 8.44606e-21)
(-0.0202039 0.0308263 3.03893e-20)
(-0.0297986 0.0453612 6.55089e-21)
(-0.036144 0.0559117 2.46054e-20)
(-0.0388851 0.0628599 5.82103e-20)
(-0.0376933 0.0666856 5.4164e-20)
(-0.0322225 0.0679248 3.81789e-20)
(-0.0220751 0.0671296 4.76263e-20)
(-0.00676142 0.0648353 -9.58618e-20)
(0.0143383 0.0615386 -1.39519e-20)
(0.0420024 0.0576853 -1.51042e-19)
(0.0771769 0.0536673 -4.72569e-20)
(0.12096 0.0498284 -5.38327e-20)
(0.174563 0.0464792 8.79643e-20)
(0.238819 0.0437082 -1.37881e-19)
(0.316376 0.0432018 2.66344e-20)
(0.399548 0.0387788 1.04782e-20)
(0.515709 0.0479318 1.36037e-19)
(0.58374 0.0378031 -6.71933e-20)
(0.778571 0.054196 5.07399e-20)
(-0.00838143 0.0118455 1.11902e-19)
(-0.0213861 0.0302101 3.85877e-20)
(-0.0309793 0.0442497 6.94519e-20)
(-0.0366473 0.0542778 6.2371e-20)
(-0.0379757 0.0607126 1.04935e-20)
(-0.0345745 0.0640684 -1.31423e-19)
(-0.0260254 0.0649122 -9.6034e-20)
(-0.0118366 0.0638246 -8.647e-20)
(0.00860579 0.0613706 8.10847e-20)
(0.0360758 0.0580829 4.86978e-20)
(0.0715275 0.0544517 1.72281e-19)
(0.116081 0.0509241 -1.40554e-19)
(0.170956 0.0479078 5.22095e-20)
(0.237366 0.0457882 -9.93142e-20)
(0.315928 0.0446343 7.39209e-20)
(0.408305 0.0463876 -2.63572e-20)
(0.507503 0.0444976 3.5505e-20)
(0.633463 0.0564106 -1.25255e-19)
(0.715259 0.0486866 1.04309e-19)
(0.908937 0.0695573 4.47567e-20)
(-0.0089203 0.0116067 -1.5464e-19)
(-0.0224209 0.0293588 6.04263e-20)
(-0.0318191 0.0427218 -9.43985e-20)
(-0.0365355 0.0520569 -8.79678e-20)
(-0.0360849 0.0578378 3.16631e-20)
(-0.0299986 0.060628 1.57204e-19)
(-0.0177624 0.0610359 -1.13746e-19)
(0.00123912 0.0596806 1.43101e-20)
(0.0277737 0.0571686 -3.20497e-20)
(0.0627921 0.0540802 -3.1351e-20)
(0.107424 0.050964 8.08745e-20)
(0.162914 0.0483334 1.77668e-19)
(0.230475 0.046663 -6.55713e-21)
(0.311052 0.0463941 1.50062e-20)
(0.404708 0.0476117 -5.90565e-21)
(0.511241 0.0518877 -9.92427e-20)
(0.624815 0.0540437 9.65508e-20)
(0.753965 0.0669371 1.52348e-19)
(0.847729 0.0636929 4.40074e-20)
(1.02245 0.0857971 -8.29278e-20)
(-0.00942929 0.0113107 -3.99959e-20)
(-0.0232644 0.0282923 1.23386e-19)
(-0.0322091 0.0408142 -3.93966e-21)
(-0.035616 0.0493082 8.47575e-20)
(-0.0329162 0.0543243 3.89838e-20)
(-0.0235441 0.0564895 3.72544e-20)
(-0.00686473 0.0564669 -4.60492e-20)
(0.0178886 0.0549275 7.84663e-20)
(0.0516596 0.052533 1.36016e-20)
(0.095576 0.0499269 -4.67887e-20)
(0.150897 0.0477271 -2.70722e-20)
(0.218868 0.0465169 -1.21541e-19)
(0.300443 0.0468228 -1.21898e-19)
(0.395878 0.049077 2.8495e-20)
(0.504131 0.0533923 -1.01702e-20)
(0.622583 0.0603662 -4.03637e-20)
(0.745726 0.0672044 -1.31622e-19)
(0.871289 0.0795408 -1.58084e-19)
(0.970673 0.0815315 -1.83978e-19)
(1.1123 0.101091 1.91425e-20)
(-0.00989651 0.0109588 8.25894e-21)
(-0.0238574 0.0270195 -1.11491e-19)
(-0.0320153 0.0385556 -1.03742e-19)
(-0.0336588 0.0460917 -6.84988e-20)
(-0.0281237 0.0502712 1.21798e-19)
(-0.0147285 0.0518011 -2.60379e-19)
(0.00730584 0.0514142 5.27625e-20)
(0.0389173 0.0498493 -3.00587e-20)
(0.0812264 0.0478398 8.59279e-20)
(0.135499 0.0461041 1.05604e-20)
(0.203006 0.0453338 -1.31105e-19)
(0.284752 0.0461666 5.72343e-20)
(0.381041 0.0491316 1.79514e-20)
(0.490894 0.0545354 5.64287e-20)
(0.611486 0.0624046 -5.98901e-20)
(0.737709 0.0721541 1.05631e-19)
(0.862998 0.0829851 -4.50979e-20)
(0.978911 0.0937841 2.29457e-20)
(1.07444 0.100371 -1.61215e-20)
(1.1759 0.113626 -6.17241e-20)
(-0.0103025 0.0105456 1.29984e-19)
(-0.0241206 0.0255396 -2.32533e-20)
(-0.031075 0.0359694 -1.45488e-20)
(-0.0303967 0.0424673 8.24979e-20)
(-0.0213162 0.0457871 -4.16638e-20)
(-0.00301958 0.0467328 2.34891e-19)
(0.0254329 0.0461234 1.09382e-20)
(0.0651528 0.0447821 7.13161e-20)
(0.117404 0.0435271 -1.19164e-19)
(0.183483 0.0431573 -9.05657e-20)
(0.264457 0.0444256 1.33085e-19)
(0.360718 0.047974 -1.08822e-19)
(0.471388 0.0542336 8.76666e-20)
(0.593663 0.0632247 -1.57491e-20)
(0.722423 0.0746377 2.66519e-19)
(0.850422 0.0869091 -5.40858e-21)
(0.969592 0.0999748 9.11577e-20)
(1.07103 0.108853 1.31373e-19)
(1.15314 0.118249 7.83418e-20)
(1.21496 0.121828 1.23453e-19)
(-0.010619 0.0100617 6.28904e-20)
(-0.0239536 0.0238445 -1.34196e-19)
(-0.0291955 0.0330735 4.45547e-20)
(-0.0255264 0.0384957 7.18593e-20)
(-0.0120651 0.040991 5.99647e-20)
(0.0121469 0.0414766 -1.70781e-19)
(0.0482115 0.0408739 7.63762e-20)
(0.0973854 0.0401045 3.46721e-20)
(0.160986 0.040078 1.48364e-20)
(0.240148 0.0416652 6.12708e-20)
(0.335394 0.0456347 -3.58034e-20)
(0.446007 0.0525359 1.101e-19)
(0.569337 0.0625417 -9.21265e-20)
(0.700292 0.0751972 -9.43967e-20)
(0.831449 0.0896068 -1.62086e-19)
(0.954215 0.103574 -5.08395e-20)
(1.06023 0.116775 -1.1e-19)
(1.14399 0.123841 -1.21116e-19)
(1.20602 0.132911 -1.09093e-19)
(1.23587 0.124523 -6.02107e-20)
(-0.0108085 0.00949413 9.57924e-20)
(-0.0232343 0.0219221 -2.34313e-20)
(-0.0261551 0.0298847 -6.17156e-20)
(-0.0187148 0.0342431 -1.9741e-19)
(8.32736e-05 0.0360152 -1.56049e-20)
(0.0313424 0.0362468 2.04572e-19)
(0.0763036 0.0359752 -4.5787e-20)
(0.136295 0.0362279 3.9045e-20)
(0.21252 0.0380003 9.25141e-20)
(0.305652 0.0421962 2.75931e-20)
(0.41521 0.0495116 -1.77889e-19)
(0.538798 0.0602499 -4.39301e-20)
(0.671507 0.0741212 -3.06962e-20)
(0.805878 0.0900249 8.71796e-20)
(0.932865 0.106396 2.51082e-19)
(1.04385 0.120722 -7.92134e-20)
(1.13229 0.13239 -5.20756e-20)
(1.19682 0.137612 1.33523e-19)
(1.23697 0.142284 7.25122e-20)
(1.25917 0.134422 3.02983e-20)
(-0.0108237 0.0088291 -1.02732e-19)
(-0.0218194 0.0197609 7.20073e-20)
(-0.0217071 0.0264247 -1.44672e-19)
(-0.0096063 0.029786 1.61425e-20)
(0.0155912 0.0310098 9.87401e-20)
(0.0551152 0.0312826 -2.07398e-19)
(0.110287 0.0317648 -2.1574e-19)
(0.182367 0.0335862 3.89323e-21)
(0.272189 0.037797 -1.26799e-19)
(0.37955 0.0452563 -8.92266e-20)
(0.502426 0.0564451 1.41956e-19)
(0.636235 0.0712202 2.25415e-19)
(0.773632 0.0886293 -8.8176e-20)
(0.905314 0.106861 -5.56943e-20)
(1.02193 0.12383 -1.40037e-19)
(1.11646 0.137074 9.60876e-21)
(1.18572 0.146275 -5.1932e-21)
(1.23126 0.148741 -4.91776e-21)
(1.25631 0.150404 1.49199e-20)
(1.26878 0.141271 1.85765e-19)
(-0.0106084 0.00805425 1.02793e-19)
(-0.0195468 0.0173556 1.07942e-19)
(-0.015585 0.0227266 1.40426e-19)
(0.00216596 0.0252187 5.5131e-20)
(0.0349096 0.0261487 -7.44748e-20)
(0.0839567 0.0268502 -5.15662e-20)
(0.150599 0.0286039 -7.13173e-21)
(0.235815 0.0326178 7.3062e-20)
(0.339708 0.0399312 6.71597e-20)
(0.460703 0.0512306 4.31318e-20)
(0.594706 0.0665884 -5.12819e-21)
(0.734676 0.0852042 -1.08098e-19)
(0.871184 0.105351 8.71378e-20)
(0.994234 0.124626 -1.30781e-20)
(1.09577 0.14077 4.0527e-20)
(1.17173 0.151826 1.75942e-20)
(1.22244 0.157995 -1.39985e-20)
(1.25227 0.157847 3.46688e-20)
(1.26566 0.156836 -2.67214e-20)
(1.27072 0.146926 -1.86012e-19)
(-0.0100984 0.00716143 5.34867e-20)
(-0.0162395 0.0147133 -1.94309e-19)
(-0.00750986 0.0188428 9.41207e-20)
(0.0169669 0.0206612 3.89513e-20)
(0.058455 0.021636 -1.13231e-19)
(0.118263 0.0232455 1.09794e-19)
(0.197482 0.0268713 6.14854e-20)
(0.296505 0.0337455 -1.45971e-19)
(0.414257 0.0447856 1.77264e-20)
(0.547271 0.0603256 -2.77964e-20)
(0.689021 0.0798102 6.56226e-20)
(0.830166 0.10163 -4.97005e-20)
(0.960138 0.123337 -7.61987e-20)
(1.06976 0.142257 1.1263e-19)
(1.15365 0.156395 -5.54269e-20)
(1.21123 0.164604 2.21793e-20)
(1.24586 0.167721 -5.33757e-20)
(1.2634 0.16526 3.0335e-22)
(1.26873 0.162221 -4.77231e-20)
(1.26953 0.151776 5.1435e-20)
(-0.00922355 0.00614902 -1.34685e-20)
(-0.0117101 0.0118584 -5.75106e-20)
(0.00280077 0.0148521 -6.4193e-20)
(0.0351439 0.0162666 3.6422e-20)
(0.086584 0.0177112 -1.06075e-20)
(0.158297 0.0207932 6.67039e-20)
(0.250926 0.0269514 4.72379e-20)
(0.363895 0.0373485 4.50388e-20)
(0.494455 0.0526184 1.47199e-20)
(0.636813 0.0725245 3.90922e-20)
(0.781986 0.0956937 6.61251e-20)
(0.919027 0.119692 1.48661e-20)
(1.0376 0.14161 -3.30401e-20)
(1.13079 0.158923 2.49753e-20)
(1.19661 0.17028 8.25963e-20)
(1.23768 0.175452 -1.49974e-19)
(1.25936 0.175795 4.805e-20)
(1.26796 0.171486 5.69742e-20)
(1.26808 0.166924 1.88098e-20)
(1.26584 0.156175 3.72751e-20)
(-0.00790938 0.0050239 -2.13402e-20)
(-0.00576704 0.00883801 1.25533e-19)
(0.0156216 0.010866 4.33688e-20)
(0.0570082 0.0122267 -1.31262e-19)
(0.119564 0.0146515 -3.50056e-20)
(0.204144 0.0198418 6.56425e-20)
(0.310624 0.0292166 3.17435e-20)
(0.437008 0.0437288 1.10533e-19)
(0.57841 0.063522 -4.12011e-21)
(0.726512 0.0875713 5.30801e-21)
(0.870298 0.113596 -5.57923e-20)
(0.998391 0.138512 -8.8015e-20)
(1.10213 0.159345 -9.67393e-21)
(1.17779 0.174133 -5.53737e-20)
(1.22676 0.182364 4.67742e-20)
(1.25403 0.184644 2.284e-19)
(1.2659 0.182647 8.94537e-20)
(1.26833 0.176939 -8.81275e-20)
(1.26511 0.171238 -4.41749e-20)
(1.26111 0.160329 1.80941e-20)
(-0.0060792 0.00380295 1.04655e-19)
(0.00177888 0.00572549 -1.52617e-19)
(0.031207 0.0070329 -1.43674e-19)
(0.082815 0.00877461 1.93599e-19)
(0.157545 0.0127692 5.75447e-20)
(0.255678 0.0207508 -3.53679e-20)
(0.375939 0.0340012 -1.02137e-19)
(0.514449 0.0530759 -1.26419e-19)
(0.663855 0.0773982 8.43144e-20)
(0.813479 0.104998 1.48907e-20)
(0.951176 0.13276 4.47853e-20)
(1.06652 0.157291 3.69848e-20)
(1.15365 0.175988 -2.35203e-21)
(1.21229 0.18772 -2.50208e-20)
(1.24662 0.192828 -5.05004e-20)
(1.263 0.192551 -1.37448e-19)
(1.26778 0.188671 -5.46718e-20)
(1.2661 0.181934 1.82429e-19)
(1.26088 0.175352 3.04342e-20)
(1.25571 0.164396 -4.54548e-20)
(-0.00365636 0.00251412 -1.09153e-19)
(0.0111068 0.00262237 1.07353e-19)
(0.0497775 0.00353963 2.54767e-21)
(0.112741 0.00618281 -4.38477e-20)
(0.200526 0.0124029 -1.41423e-20)
(0.31253 0.0238719 -1.22721e-20)
(0.445899 0.0415716 -7.49603e-20)
(0.594471 0.0654355 9.02932e-20)
(0.748354 0.0939593 -1.49671e-19)
(0.895102 0.124194 3.97763e-22)
(1.02267 0.15244 -2.66662e-20)
(1.12282 0.175423 -1.30294e-20)
(1.19309 0.191265 3.0947e-20)
(1.23633 0.199758 -6.87644e-20)
(1.25862 0.201974 -4.0046e-21)
(1.2668 0.199544 3.82058e-20)
(1.26664 0.194184 -9.42895e-20)
(1.2623 0.186687 -4.46456e-22)
(1.25587 0.179391 4.3129e-22)
(1.24996 0.16843 8.05438e-20)
(-0.000566823 0.00119694 1.58612e-20)
(0.0223772 -0.000341003 2.95798e-20)
(0.0715033 0.000609815 5.72744e-20)
(0.146861 0.00475691 -3.07532e-20)
(0.248334 0.0139027 -9.85905e-20)
(0.374071 0.0295231 2.54128e-20)
(0.519224 0.0520949 5.72847e-20)
(0.6751 0.0806961 3.1318e-20)
(0.829549 0.112764 1.05363e-19)
(0.969323 0.144502 -2.88619e-20)
(1.08375 0.172009 -1.72244e-20)
(1.16768 0.192538 1.47863e-20)
(1.22201 0.205134 -4.20961e-20)
(1.25205 0.210465 -5.87118e-20)
(1.26487 0.210134 -3.8707e-20)
(1.26707 0.205938 3.17094e-20)
(1.26358 0.199419 8.00862e-20)
(1.25755 0.191337 -3.89686e-20)
(1.2504 0.183421 -6.16142e-20)
(1.24397 0.172472 9.73711e-21)
(0.0032583 -9.74957e-05 2.82951e-20)
(0.0357228 -0.00300666 6.20127e-21)
(0.0964897 -0.00150088 -7.70811e-20)
(0.18513 0.00482434 1.00789e-19)
(0.300601 0.0176105 2.22286e-20)
(0.439418 0.0379618 -1.15483e-19)
(0.594395 0.0656168 4.37585e-20)
(0.75431 0.0985968 -5.71568e-20)
(0.905398 0.133281 2.90341e-21)
(1.03479 0.165311 9.30447e-21)
(1.13428 0.191015 2.67693e-20)
(1.20212 0.208476 3.13747e-21)
(1.24218 0.217713 1.1898e-19)
(1.26138 0.220118 4.73486e-20)
(1.267 0.217611 -2.2251e-20)
(1.26498 0.211978 -2.60914e-20)
(1.25928 0.204533 1.51355e-20)
(1.2522 0.195963 1.56874e-20)
(1.24461 0.187477 -2.63986e-20)
(1.23779 0.176531 -2.95243e-20)
(0.00787912 -0.00130633 -3.32059e-20)
(0.051239 -0.00519147 2.06776e-21)
(0.124761 -0.00251234 1.57758e-20)
(0.227363 0.00671941 -4.24886e-20)
(0.356759 0.0238365 8.12712e-20)
(0.507465 0.0493595 4.60254e-20)
(0.669758 0.0820523 -4.64315e-20)
(0.830197 0.118761 -3.05362e-20)
(0.974342 0.154958 2.74901e-20)
(1.09088 0.18612 -4.24782e-20)
(1.17475 0.209187 3.15928e-20)
(1.22753 0.223242 -6.22931e-22)
(1.25535 0.229207 1.0711e-21)
(1.26594 0.228996 -2.35257e-20)
(1.26626 0.224655 6.67446e-20)
(1.26132 0.217841 -5.6066e-21)
(1.25418 0.209623 2.87472e-20)
(1.24642 0.200608 -4.17315e-20)
(1.23855 0.191571 3.23042e-20)
(1.23145 0.180608 -1.32825e-20)
(0.0133432 -0.00235625 5.49002e-20)
(0.0689737 -0.00669221 6.30208e-20)
(0.156247 -0.00213057 4.60618e-20)
(0.273226 0.0107657 -6.54228e-21)
(0.416051 0.032837 9.41123e-21)
(0.57694 0.0637841 8.52774e-22)
(0.743649 0.101195 1.00786e-19)
(0.901135 0.140742 -2.96895e-20)
(1.03538 0.177289 2.07074e-20)
(1.13757 0.206565 -1.04171e-19)
(1.20608 0.226412 1.51639e-20)
(1.24536 0.236948 4.55256e-20)
(1.26305 0.239848 -2.0453e-20)
(1.26701 0.237346 4.22259e-20)
(1.26349 0.231457 -5.53106e-20)
(1.25658 0.22364 7.52789e-20)
(1.2485 0.214742 2.46237e-21)
(1.24031 0.205286 -2.55039e-20)
(1.23227 0.195704 9.81406e-22)
(1.22495 0.184696 3.93727e-20)
(0.0196823 -0.00316477 -1.03978e-19)
(0.0889192 -0.00729136 2.54946e-20)
(0.190776 -5.99501e-05 -9.57731e-21)
(0.322235 0.0172572 -7.0142e-20)
(0.477557 0.0447941 -2.54819e-20)
(0.646479 0.0811937 -4.86378e-20)
(0.814518 0.122741 -4.15794e-20)
(0.965882 0.164081 -4.45488e-20)
(1.08804 0.199851 4.53037e-20)
(1.17533 0.226418 2.22877e-20)
(1.22942 0.242693 -6.50062e-20)
(1.25702 0.249762 -1.61667e-20)
(1.26655 0.249862 -7.63173e-21)
(1.26552 0.245364 -3.18369e-20)
(1.2593 0.238148 -5.49357e-21)
(1.25105 0.229445 -1.33453e-20)
(1.24237 0.219912 -5.38094e-20)
(1.2339 0.209998 2.64726e-20)
(1.22575 0.199868 3.29826e-20)
(1.21826 0.188781 -8.05163e-21)
(0.0269085 -0.0036421 3.87655e-21)
(0.111005 -0.00676457 -4.62883e-20)
(0.228066 0.00398304 2.12106e-20)
(0.373768 0.0264409 -1.45652e-20)
(0.540233 0.0598019 1.78101e-20)
(0.71472 0.101442 8.0382e-20)
(0.88103 0.146326 -3.47071e-20)
(1.02361 0.188342 8.54833e-20)
(1.13232 0.222322 4.19158e-21)
(1.20489 0.245568 4.18556e-20)
(1.24594 0.258111 3.68036e-21)
(1.26372 0.261867 2.86346e-20)
(1.26685 0.259445 5.98131e-21)
(1.26216 0.253201 2.89837e-21)
(1.25405 0.244813 -4.19382e-20)
(1.24492 0.23529 7.46024e-21)
(1.23584 0.225138 3.87518e-20)
(1.22721 0.214733 1.63691e-21)
(1.219 0.204049 -1.96497e-20)
(1.21138 0.192847 8.04471e-21)
(0.0350109 -0.00369387 1.29972e-20)
(0.135091 -0.00488945 3.79205e-20)
(0.267729 0.0102557 4.03169e-20)
(0.427082 0.0385006 -1.0733e-20)
(0.602974 0.0778604 5.13692e-20)
(0.780382 0.124296 -1.0162e-20)
(0.942129 0.171557 8.2214e-20)
(1.07389 0.213144 -1.03318e-19)
(1.16853 0.244477 -1.82796e-20)
(1.22716 0.263987 -1.80515e-20)
(1.25676 0.272782 -2.164e-20)
(1.26651 0.273438 -5.16674e-21)
(1.26472 0.268751 7.32487e-21)
(1.25736 0.260954 -2.70153e-20)
(1.24797 0.251498 2.79303e-20)
(1.23826 0.241185 -1.21842e-20)
(1.22895 0.230406 -9.58529e-21)
(1.22022 0.219474 -8.75626e-21)
(1.212 0.208232 -5.52548e-21)
(1.2043 0.196874 -1.82495e-20)
(0.0439534 -0.00322435 6.18345e-20)
(0.16097 -0.00145517 -5.86728e-20)
(0.309278 0.0189755 6.90232e-21)
(0.481344 0.0535458 -7.10702e-21)
(0.66466 0.0988771 -1.87594e-20)
(0.842331 0.149455 -3.81479e-20)
(0.997063 0.198045 -5.69577e-21)
(1.11662 0.238173 2.52672e-20)
(1.19723 0.266174 1.14966e-20)
(1.24306 0.281703 -1.39896e-20)
(1.26287 0.286836 1.56251e-20)
(1.26617 0.284621 -3.3658e-21)
(1.26068 0.277892 -3.09574e-20)
(1.25145 0.268685 4.529e-20)
(1.24119 0.258218 1.2578e-20)
(1.23112 0.24712 -6.84577e-21)
(1.22168 0.235696 8.33731e-21)
(1.21292 0.224199 1.31401e-20)
(1.20473 0.212395 1.31799e-20)
(1.197 0.200841 1.41591e-20)
(0.0536728 -0.00214016 -6.45869e-20)
(0.188365 0.00372776 4.93062e-20)
(0.352141 0.0303079 2.12966e-20)
(0.535668 0.0716046 -4.30723e-20)
(0.724225 0.122675 -9.26142e-21)
(0.89963 0.17658 -3.5108e-20)
(1.04537 0.225426 1.39154e-20)
(1.15197 0.263178 -2.29159e-20)
(1.21908 0.287335 1.71486e-21)
(1.25348 0.298776 3.63709e-21)
(1.2651 0.300394 6.87172e-21)
(1.26334 0.295532 -2.59817e-20)
(1.25513 0.286939 2.66026e-20)
(1.24459 0.276419 -1.89403e-20)
(1.23378 0.264969 -5.23097e-21)
(1.22351 0.253075 2.56399e-21)
(1.21403 0.24098 -5.77842e-21)
(1.20529 0.228883 -1.34856e-20)
(1.19719 0.216515 -6.1048e-22)
(1.18945 0.204722 -9.56672e-21)
(0.064079 -0.000354288 -8.10542e-21)
(0.216938 0.0108179 -2.33011e-20)
(0.39568 0.0443562 -7.82692e-21)
(0.589148 0.0926216 1.23268e-20)
(0.780691 0.149007 -7.76092e-21)
(0.951558 0.205307 7.81279e-21)
(1.08685 0.253369 1.81583e-20)
(1.18029 0.287968 1.59987e-20)
(1.23477 0.307923 1.25995e-20)
(1.2592 0.315273 -2.78066e-21)
(1.26412 0.313556 -7.29378e-21)
(1.25848 0.306249 8.59953e-21)
(1.24831 0.295931 -4.22899e-21)
(1.23691 0.284157 5.31842e-21)
(1.22578 0.271729 -3.2803e-21)
(1.21543 0.25902 7.00428e-21)
(1.20598 0.246227 -1.9169e-21)
(1.19734 0.2335 8.41613e-21)
(1.18936 0.220568 -2.06055e-21)
(1.18167 0.20849 1.37788e-21)
(0.0750558 0.00220985 -1.94343e-22)
(0.246296 0.019934 -9.37577e-23)
(0.439214 0.0611553 -2.76234e-21)
(0.640903 0.116461 1.36741e-20)
(0.833214 0.177569 8.70171e-21)
(0.997604 0.235274 -6.64078e-21)
(1.1215 0.281582 -4.95747e-21)
(1.20202 0.312397 -1.50213e-21)
(1.245 0.327926 -7.08294e-21)
(1.26091 0.331257 -4.21157e-22)
(1.26046 0.326394 3.0001e-22)
(1.25192 0.316816 -3.01092e-21)
(1.24039 0.304873 -1.93471e-21)
(1.22846 0.291879 -4.38798e-21)
(1.21718 0.278465 -4.68511e-21)
(1.20686 0.264918 -4.08761e-22)
(1.19752 0.251401 1.74344e-21)
(1.18904 0.238018 1.90871e-21)
(1.18123 0.224522 2.24879e-21)
(1.17364 0.212118 3.24373e-21)
(0.0864632 0.0056146 9.93177e-21)
(0.276004 0.0311484 -1.53485e-21)
(0.482043 0.0806678 -2.62433e-21)
(0.690104 0.142915 6.5979e-21)
(0.881095 0.208019 1.29937e-20)
(1.03745 0.266121 -5.68355e-21)
(1.14947 0.309809 -4.55332e-21)
(1.21767 0.336349 -8.36792e-21)
(1.25041 0.347343 -7.38386e-21)
(1.2592 0.346775 1.39205e-21)
(1.25454 0.338953 -1.22131e-21)
(1.24388 0.327247 -4.95104e-22)
(1.23147 0.31375 -2.79888e-21)
(1.21927 0.299548 -4.44354e-21)
(1.20799 0.285135 -9.66242e-22)
(1.1978 0.270727 -3.47427e-22)
(1.18864 0.256462 -1.40679e-22)
(1.18037 0.242405 8.76377e-22)
(1.1728 0.228344 3.38953e-21)
(1.16538 0.215576 2.75844e-21)
(0.0981407 0.00990457 -6.07331e-21)
(0.3056 0.0444812 -9.21888e-21)
(0.52347 0.102784 -1.20708e-20)
(0.736001 0.171708 1.58945e-20)
(0.923788 0.239984 1.4818e-20)
(1.07097 0.297506 1.09089e-22)
(1.17104 0.337823 5.31859e-21)
(1.22776 0.359733 1.45495e-20)
(1.25156 0.36617 1.55064e-20)
(1.25451 0.361855 9.68902e-21)
(1.24664 0.351247 -2.3246e-20)
(1.23452 0.337527 9.50533e-21)
(1.2216 0.322524 -4.07096e-21)
(1.20935 0.307119 9.5596e-21)
(1.1982 0.291689 -1.88183e-22)
(1.18822 0.276401 -1.54855e-21)
(1.17932 0.261369 8.54422e-22)
(1.17134 0.246624 7.64681e-21)
(1.16406 0.23199 -3.13953e-21)
(1.15688 0.218835 -3.52623e-22)
(0.109912 0.0151039 -2.01606e-20)
(0.334606 0.0598976 4.44245e-20)
(0.562832 0.127324 4.21813e-21)
(0.777946 0.202515 -5.43477e-20)
(0.960901 0.273081 -9.55937e-21)
(1.09813 0.329103 2.21533e-20)
(1.18652 0.365425 -4.99936e-20)
(1.23279 0.382465 -3.04811e-22)
(1.24894 0.384394 3.98192e-21)
(1.24722 0.3765 -1.09523e-21)
(1.237 0.363262 1.22113e-20)
(1.22395 0.347623 -1.92254e-20)
(1.21084 0.331146 2.89933e-21)
(1.1987 0.314536 -6.3788e-21)
(1.18781 0.298076 -4.75038e-21)
(1.17813 0.281892 4.58702e-21)
(1.16956 0.26608 -4.31289e-22)
(1.16193 0.250636 -1.19193e-20)
(1.15501 0.235419 4.91867e-22)
(1.14814 0.221862 -5.25903e-21)
(0.12159 0.0212141 1.51467e-20)
(0.362545 0.0773071 -2.54669e-20)
(0.599511 0.154047 -2.00866e-21)
(0.8154 0.234966 -4.66423e-20)
(0.99218 0.306919 -2.72823e-20)
(1.11905 0.360602 2.18856e-20)
(1.1963 0.392429 -2.48983e-20)
(1.23323 0.404467 2.68672e-21)
(1.24297 0.401989 1.89244e-20)
(1.23763 0.39069 -5.14088e-21)
(1.22578 0.374963 2.01184e-21)
(1.21224 0.357479 6.05033e-21)
(1.19918 0.339553 -1.93167e-20)
(1.18733 0.321736 2.39094e-20)
(1.17679 0.304235 2.16435e-20)
(1.1675 0.287149 -5.11316e-21)
(1.15934 0.270553 -7.13236e-21)
(1.15213 0.254404 7.92413e-21)
(1.14564 0.238595 4.34644e-21)
(1.13909 0.224618 9.81993e-21)
(0.132982 0.028213 -5.90598e-20)
(0.388956 0.0965652 2.55292e-20)
(0.632953 0.182653 -1.80498e-20)
(0.847936 0.268663 4.84605e-20)
(1.01749 0.341105 5.03994e-21)
(1.13392 0.391712 4.52821e-20)
(1.20076 0.418665 2.72656e-20)
(1.22951 0.425655 -2.98104e-20)
(1.23401 0.41891 -4.07431e-20)
(1.22596 0.404382 -2.17608e-20)
(1.21309 0.386293 -1.12296e-20)
(1.19943 0.367028 1.44281e-20)
(1.18665 0.347673 -4.82781e-21)