/*--------------------------------*- C++ -*----------------------------------*\
  =========                 |
  \\      /  F ield         | OpenFOAM: The Open Source CFD Toolbox
   \\    /   O peration     | Website:  https://openfoam.org
    \\  /    A nd           | Version:  7
     \\/     M anipulation  |
\*---------------------------------------------------------------------------*/
FoamFile
{
    version     2.0;
    format      ascii;
    class       volScalarField;
    location    "3.1";
    object      T;
}
// * * * * * * * * * * * * * * * * * * * * * * * * * * * * * * * * * * * * * //

dimensions      [0 0 0 1 0 0 0];

internalField   nonuniform List<scalar> 
197568
(
1
1
1
1
1
1
1
1
1
1
1
1
1
1
1
1
1
1
1
1
1
1
1
1
1
1
1
1
1
1
1
1
1
1
1
1
1
1
1
1
1
1
1
1
1
1
1
1
1
1
1
1
1
1
1
1
1
1
1
1
1
1
1
1
1
1
1
1
1
1
1
1
1
1
1
1
1
1
1
1
1
1
1
1
1
1
2.04179
2.68417
2.69191
2.69128
2.69178
2.69244
2.69365
2.69539
2.69767
2.70081
2.70494
2.70976
2.71504
2.72023
2.72434
2.72682
2.72785
2.72796
2.72797
2.72829
2.72905
2.73027
2.73217
2.73517
2.73907
2.74315
2.74704
2.75011
2.75223
2.75355
2.75421
2.75454
2.75484
2.7554
2.75694
2.75993
2.76381
2.76746
2.76985
2.77059
2.77035
2.77
2.77063
2.77262
2.77554
2.77825
2.77999
2.78072
2.78105
2.78172
2.78312
2.78519
2.78742
2.78924
2.79032
2.79076
2.79098
2.79151
2.7927
2.79445
2.79624
2.79752
2.79801
2.7979
2.79775
2.79808
2.79898
2.79984
2.80012
2.80006
2.80012
2.80075
2.80232
2.80451
2.80658
2.80815
2.80939
2.81058
2.81177
2.81288
2.81366
2.81375
1
1
1
1
1
1
1
1
1
1
1
1
1
1
1
1
1
1
1
1
1
1
1
1
1
1
1
1
1
1
1
1
1
1
1
1
1
1
1
1
1
1
1
1
1
1
1
1
1
1
1
1
1
1
1
1
1
1
1
1
1
1
1
1
1
1
1
1
1
1
1
1
1
1
1
1
1
1
1
1
1
1
1
1
1
1
2.03843
2.68125
2.69262
2.69181
2.69239
2.693
2.69405
2.6956
2.6977
2.70063
2.70462
2.70947
2.71489
2.72023
2.72445
2.727
2.72795
2.728
2.72803
2.72831
2.72903
2.73022
2.7321
2.73507
2.73896
2.74308
2.74705
2.75019
2.75234
2.75365
2.75425
2.75451
2.75476
2.75536
2.75696
2.76
2.76389
2.76749
2.7698
2.77048
2.77027
2.77
2.77067
2.77269
2.77559
2.77825
2.77994
2.78065
2.78099
2.78167
2.78307
2.78512
2.78736
2.7892
2.79032
2.79076
2.79096
2.79146
2.79261
2.79436
2.79618
2.7975
2.79802
2.79791
2.79776
2.79805
2.7989
2.79972
2.79999
2.79994
2.80004
2.80071
2.80231
2.8045
2.80654
2.80807
2.80931
2.8105
2.8117
2.81281
2.8136
2.81368
1
1
1
1
1
1
1
1
1
1
1
1
1
1
1
1
1
1
1
1
1
1
1
1
1
1
1
1
1
1
1
1
1
1
1
1
1
1
1
1
1
1
1
1
1
1
1
1
1
1
1
1
1
1
1
1
1
1
1
1
1
1
1
1
1
1
1
1
1
1
1
1
1
1
1
1
1
1
1
1
1
1
1
1
1
1
2.03077
2.6772
2.69333
2.69248
2.69313
2.69385
2.6948
2.69609
2.69787
2.70043
2.70411
2.70886
2.71436
2.71987
2.72431
2.72706
2.72816
2.72823
2.72825
2.7285
2.72914
2.73027
2.73204
2.73485
2.73861
2.7427
2.74681
2.7501
2.75233
2.75366
2.75419
2.7543
2.75445
2.75505
2.75678
2.75997
2.76392
2.76747
2.76962
2.77016
2.76995
2.76979
2.77057
2.7727
2.77559
2.77817
2.77979
2.78048
2.78085
2.78156
2.78297
2.78502
2.78724
2.78909
2.79023
2.7907
2.79091
2.79139
2.7925
2.79422
2.79604
2.7974
2.79796
2.79789
2.79775
2.79802
2.7988
2.79956
2.7998
2.79975
2.79988
2.80061
2.80226
2.80446
2.80647
2.80797
2.8092
2.81039
2.8116
2.81271
2.81352
2.81359
1
1
1
1
1
1
1
1
1
1
1
1
1
1
1
1
1
1
1
1
1
1
1
1
1
1
1
1
1
1
1
1
1
1
1
1
1
1
1
1
1
1
1
1
1
1
1
1
1
1
1
1
1
1
1
1
1
1
1
1
1
1
1
1
1
1
1
1
1
1
1
1
1
1
1
1
1
1
1
1
1
1
1
1
1
1
2.01908
2.67132
2.69399
2.69312
2.69399
2.6949
2.69587
2.69692
2.69829
2.70035
2.70354
2.70805
2.71353
2.71917
2.72391
2.727
2.72836
2.72855
2.72859
2.72884
2.72941
2.73039
2.73198
2.73453
2.73811
2.74221
2.7465
2.75004
2.75241
2.7537
2.75407
2.75402
2.75407
2.75472
2.75662
2.76
2.76398
2.76738
2.76932
2.76974
2.76956
2.76957
2.77054
2.77279
2.7756
2.77802
2.77952
2.78021
2.78065
2.78145
2.78291
2.78494
2.7871
2.78891
2.79004
2.79055
2.7908
2.79129
2.7924
2.79409
2.79588
2.79723
2.79781
2.79781
2.79771
2.79796
2.79866
2.79933
2.79953
2.7995
2.79967
2.80046
2.80218
2.80438
2.80633
2.8078
2.80903
2.81023
2.81145
2.81256
2.81337
2.81345
1
1
1
1
1
1
1
1
1
1
1
1
1
1
1
1
1
1
1
1
1
1
1
1
1
1
1
1
1
1
1
1
1
1
1
1
1
1
1
1
1
1
1
1
1
1
1
1
1
1
1
1
1
1
1
1
1
1
1
1
1
1
1
1
1
1
1
1
1
1
1
1
1
1
1
1
1
1
1
1
1
1
1
1
1
1
2.00408
2.66456
2.69433
2.69354
2.69466
2.69575
2.69684
2.69776
2.6988
2.70041
2.70311
2.70725
2.71255
2.71822
2.72321
2.72669
2.7284
2.72886
2.729
2.7293
2.72983
2.73064
2.73196
2.73418
2.7375
2.7416
2.74607
2.74992
2.75249
2.75373
2.75387
2.75365
2.75361
2.75436
2.7565
2.76007
2.76401
2.76716
2.76886
2.76919
2.76908
2.76933
2.77059
2.77292
2.77558
2.77775
2.77909
2.77978
2.78036
2.78132
2.78288
2.78487
2.78693
2.78863
2.78972
2.79027
2.79061
2.79119
2.79233
2.79399
2.79569
2.79697
2.79756
2.79763
2.79761
2.79788
2.7985
2.79906
2.79922
2.7992
2.79941
2.80029
2.80207
2.80425
2.80612
2.80756
2.8088
2.81003
2.81127
2.81239
2.8132
2.81326
1
1
1
1
1
1
1
1
1
1
1
1
1
1
1
1
1
1
1
1
1
1
1
1
1
1
1
1
1
1
1
1
1
1
1
1
1
1
1
1
1
1
1
1
1
1
1
1
1
1
1
1
1
1
1
1
1
1
1
1
1
1
1
1
1
1
1
1
1
1
1
1
1
1
1
1
1
1
1
1
1
1
1
1
1
1
1.98556
2.65825
2.69415
2.69366
2.69518
2.6965
2.69773
2.69859
2.69936
2.70058
2.70286
2.70656
2.71156
2.71712
2.72225
2.72607
2.72821
2.72903
2.72936
2.72977
2.7303
2.73093
2.73194
2.73379
2.73685
2.74096
2.74559
2.74975
2.75251
2.75369
2.75361
2.75318
2.75312
2.75405
2.75649
2.76019
2.76397
2.76679
2.76821
2.7685
2.76857
2.76916
2.77073
2.77307
2.77548
2.77735
2.7785
2.77921
2.77998
2.78117
2.78285
2.78482
2.78673
2.78826
2.78927
2.78986
2.79033
2.79107
2.7923
2.79391
2.79547
2.79661
2.79719
2.79735
2.79745
2.79778
2.79833
2.79876
2.79886
2.79886
2.79914
2.80013
2.80195
2.80405
2.80584
2.80725
2.80852
2.80979
2.81107
2.81219
2.81297
2.81301
1
1
1
1
1
1
1
1
1
1
1
1
1
1
1
1
1
1
1
1
1
1
1
1
1
1
1
1
1
1
1
1
1
1
1
1
1
1
1
1
1
1
1
1
1
1
1
1
1
1
1
1
1
1
1
1
1
1
1
1
1
1
1
1
1
1
1
1
1
1
1
1
1
1
1
1
1
1
1
1
1
1
1
1
1
1
1.96291
2.65288
2.69386
2.69362
2.69543
2.69695
2.69837
2.69927
2.69989
2.70079
2.70266
2.70595
2.71055
2.71592
2.72111
2.72524
2.72783
2.72903
2.72961
2.73013
2.73067
2.73115
2.73186
2.73338
2.73625
2.74038
2.74515
2.74952
2.75241
2.75349
2.75325
2.75267
2.75268
2.7539
2.75661
2.76031
2.76381
2.76623
2.76739
2.76769
2.76806
2.76907
2.7709
2.77317
2.77529
2.77683
2.77779
2.77855
2.77952
2.78096
2.78279
2.78473
2.78648
2.78782
2.78873
2.78936
2.78999
2.79093
2.79227
2.79383
2.79522
2.79618
2.79671
2.79696
2.79721
2.79763
2.79812
2.79842
2.79846
2.79848
2.79885
2.79995
2.80177
2.80377
2.80546
2.80686
2.80817
2.80951
2.81085
2.81198
2.81272
2.81274
1
1
1
1
1
1
1
1
1
1
1
1
1
1
1
1
1
1
1
1
1
1
1
1
1
1
1
1
1
1
1
1
1
1
1
1
1
1
1
1
1
1
1
1
1
1
1
1
1
1
1
1
1
1
1
1
1
1
1
1
1
1
1
1
1
1
1
1
1
1
1
1
1
1
1
1
1
1
1
1
1
1
1
1
1
1
1.93525
2.6484
2.69364
2.69388
2.69572
2.69731
2.69886
2.69979
2.70031
2.70095
2.70244
2.70528
2.70957
2.71467
2.71985
2.72426
2.72728
2.7289
2.72971
2.73031
2.73083
2.73122
2.73173
2.73304
2.73582
2.73998
2.74477
2.74918
2.75207
2.75302
2.7527
2.75215
2.75236
2.75392
2.75681
2.76034
2.76345
2.76549
2.76648
2.76691
2.76765
2.76905
2.77104
2.77316
2.77497
2.77622
2.77705
2.77786
2.77903
2.78069
2.78264
2.78455
2.78615
2.78732
2.78813
2.7888
2.7896
2.79074
2.7922
2.79368
2.79488
2.79568
2.79616
2.7965
2.79691
2.79743
2.79787
2.79804
2.79802
2.79808
2.79857
2.79978
2.80157
2.80343
2.80501
2.80638
2.80775
2.80919
2.81059
2.81174
2.81243
2.81242
1
1
1
1
1
1
1
1
1
1
1
1
1
1
1
1
1
1
1
1
1
1
1
1
1
1
1
1
1
1
1
1
1
1
1
1
1
1
1
1
1
1
1
1
1
1
1
1
1
1
1
1
1
1
1
1
1
1
1
1
1
1
1
1
1
1
1
1
1
1
1
1
1
1
1
1
1
1
1
1
1
1
1
1
1
1
1.90025
2.64331
2.69287
2.6936
2.69553
2.69724
2.69899
2.70009
2.70061
2.70107
2.70217
2.70457
2.70848
2.71346
2.7186
2.72326
2.7267
2.72868
2.72967
2.7303
2.73075
2.7311
2.73155
2.73285
2.73564
2.73975
2.74439
2.74862
2.75141
2.75224
2.75197
2.75172
2.75226
2.7541
2.75694
2.76015
2.76282
2.76458
2.76556
2.76625
2.76739
2.76907
2.77106
2.77296
2.77448
2.77553
2.77632
2.77722
2.77856
2.78036
2.78236
2.78422
2.78569
2.78675
2.78751
2.78824
2.78919
2.7905
2.79203
2.79344
2.79447
2.79514
2.79559
2.79603
2.79659
2.79718
2.79755
2.79762
2.79754
2.79764
2.79827
2.79958
2.80132
2.80303
2.80449
2.80584
2.80727
2.8088
2.81028
2.81146
2.8121
2.81208
1
1
1
1
1
1
1
1
1
1
1
1
1
1
1
1
1
1
1
1
1
1
1
1
1
1
1
1
1
1
1
1
1
1
1
1
1
1
1
1
1
1
1
1
1
1
1
1
1
1
1
1
1
1
1
1
1
1
1
1
1
1
1
1
1
1
1
1
1
1
1
1
1
1
1
1
1
1
1
1
1
1
1
1
1
1
1.86169
2.63604
2.69113
2.69298
2.6953
2.69731
2.69912
2.70024
2.70073
2.70102
2.70181
2.70377
2.7073
2.71213
2.71741
2.72229
2.72607
2.72831
2.72942
2.73002
2.73042
2.73079
2.7314
2.73284
2.73566
2.73958
2.74388
2.74779
2.75038
2.7512
2.75122
2.75147
2.75236
2.75427
2.75687
2.75964
2.76194
2.76359
2.76473
2.76579
2.76726
2.76902
2.77087
2.7725
2.7738
2.77477
2.77561
2.77666
2.77814
2.78
2.78197
2.78374
2.78512
2.78611
2.78689
2.78771
2.7888
2.79021
2.79175
2.79305
2.79394
2.79453
2.79501
2.79556
2.79624
2.79684
2.79713
2.79711
2.79701
2.79718
2.79794
2.79933
2.801
2.80257
2.80392
2.80525
2.80673
2.80834
2.80991
2.81113
2.81175
2.81173
1
1
1
1
1
1
1
1
1
1
1
1
1
1
1
1
1
1
1
1
1
1
1
1
1
1
1
1
1
1
1
1
1
1
1
1
1
1
1
1
1
1
1
1
1
1
1
1
1
1
1
1
1
1
1
1
1
1
1
1
1
1
1
1
1
1
1
1
1
1
1
1
1
1
1
1
1
1
1
1
1
1
1
1
1
1
1.81905
2.62641
2.68888
2.69217
2.69506
2.69723
2.69909
2.70031
2.7008
2.70096
2.70144
2.70296
2.70607
2.71076
2.71617
2.72129
2.72526
2.72764
2.72877
2.72937
2.72981
2.73038
2.73128
2.73294
2.73572
2.73935
2.74316
2.74662
2.74903
2.75004
2.75058
2.75135
2.75248
2.75428
2.75652
2.7588
2.76082
2.76255
2.76404
2.7655
2.76717
2.76887
2.77049
2.77186
2.77299
2.77396
2.77495
2.77618
2.77779
2.77963
2.78148
2.78309
2.78437
2.78537
2.78624
2.7872
2.78842
2.78989
2.79135
2.79251
2.7933
2.79388
2.79443
2.79512
2.79588
2.79643
2.79661
2.79652
2.79642
2.79668
2.79759
2.79904
2.80063
2.80206
2.80333
2.80466
2.80616
2.80782
2.80947
2.81073
2.81135
2.81136
1
1
1
1
1
1
1
1
1
1
1
1
1
1
1
1
1
1
1
1
1
1
1
1
1
1
1
1
1
1
1
1
1
1
1
1
1
1
1
1
1
1
1
1
1
1
1
1
1
1
1
1
1
1
1
1
1
1
1
1
1
1
1
1
1
1
1
1
1
1
1
1
1
1
1
1
1
1
1
1
1
1
1
1
1
1
1.77088
2.61515
2.68573
2.69078
2.69448
2.69699
2.69889
2.70018
2.70072
2.70076
2.701
2.70214
2.7049
2.70943
2.71496
2.72023
2.72423
2.72659
2.72771
2.7284
2.72906
2.72994
2.73121
2.73305
2.73572
2.73891
2.74216
2.74517
2.74753
2.74893
2.75005
2.75125
2.75252
2.75414
2.75592
2.75777
2.75968
2.76164
2.76353
2.76531
2.76704
2.76858
2.7699
2.771
2.77203
2.77307
2.77426
2.77572
2.77744
2.77923
2.7809
2.78232
2.7835
2.78453
2.78554
2.78669
2.78804
2.7895
2.79082
2.79182
2.79255
2.79317
2.79386
2.79467
2.79548
2.79596
2.79603
2.79589
2.79581
2.79619
2.79723
2.79869
2.80018
2.80147
2.80269
2.80403
2.80556
2.80724
2.80893
2.81024
2.8109
2.81095
1
1
1
1
1
1
1
1
1
1
1
1
1
1
1
1
1
1
1
1
1
1
1
1
1
1
1
1
1
1
1
1
1
1
1
1
1
1
1
1
1
1
1
1
1
1
1
1
1
1
1
1
1
1
1
1
1
1
1
1
1
1
1
1
1
1
1
1
1
1
1
1
1
1
1
1
1
1
1
1
1
1
1
1
1
1
1.71879
2.60199
2.68238
2.68922
2.6938
2.69652
2.6985
2.69979
2.70041
2.70048
2.70062
2.7015
2.70393
2.7082
2.7137
2.71901
2.72293
2.7252
2.72641
2.7273
2.72829
2.72951
2.73108
2.73304
2.73548
2.73817
2.74095
2.74368
2.74612
2.74797
2.74956
2.75103
2.75231
2.75366
2.75506
2.75667
2.75865
2.76087
2.76307
2.76503
2.76675
2.76811
2.76917
2.77006
2.771
2.77212
2.77352
2.77522
2.77706
2.77881
2.78028
2.78148
2.78254
2.7836
2.78479
2.78617
2.78766
2.78906
2.7902
2.79104
2.79173
2.79245
2.79329
2.79424
2.79503
2.79539
2.79535
2.79516
2.79516
2.79567
2.79682
2.79825
2.7996
2.80079
2.80199
2.80338
2.80493
2.80662
2.80834
2.80969
2.8104
2.81052
1
1
1
1
1
1
1
1
1
1
1
1
1
1
1
1
1
1
1
1
1
1
1
1
1
1
1
1
1
1
1
1
1
1
1
1
1
1
1
1
1
1
1
1
1
1
1
1
1
1
1
1
1
1
1
1
1
1
1
1
1
1
1
1
1
1
1
1
1
1
1
1
1
1
1
1
1
1
1
1
1
1
1
1
1
1
1.66175
2.58745
2.67905
2.68716
2.69275
2.69584
2.69797
2.69929
2.70001
2.70023
2.70039
2.70111
2.70322
2.70715
2.71243
2.71767
2.72149
2.72374
2.72513
2.72628
2.72754
2.72902
2.7308
2.73281
2.73496
2.73729
2.7398
2.74239
2.74494
2.74711
2.74897
2.75055
2.75175
2.75291
2.75415
2.75574
2.75784
2.76022
2.76256
2.76458
2.76624
2.76746
2.76835
2.76911
2.77
2.77118
2.77274
2.77465
2.77661
2.77832
2.77961
2.78059
2.78152
2.78262
2.784
2.78562
2.78723
2.78854
2.78946
2.79013
2.79082
2.79167
2.79271
2.79377
2.79449
2.7947
2.79457
2.79438
2.79449
2.79519
2.79642
2.79775
2.79893
2.80003
2.80125
2.80269
2.80429
2.80597
2.80769
2.80906
2.80983
2.81001
1
1
1
1
1
1
1
1
1
1
1
1
1
1
1
1
1
1
1
1
1
1
1
1
1
1
1
1
1
1
1
1
1
1
1
1
1
1
1
1
1
1
1
1
1
1
1
1
1
1
1
1
1
1
1
1
1
1
1
1
1
1
1
1
1
1
1
1
1
1
1
1
1
1
1
1
1
1
1
1
1
1
1
1
1
1
1.59649
2.56966
2.67724
2.68475
2.69092
2.69476
2.69732
2.69879
2.69966
2.70004
2.70029
2.70093
2.70276
2.70631
2.71122
2.71628
2.72003
2.72236
2.72394
2.72527
2.72669
2.7283
2.7302
2.73224
2.73426
2.73647
2.73888
2.74137
2.74389
2.74618
2.74814
2.74973
2.75091
2.75206
2.75338
2.75506
2.75724
2.75962
2.76193
2.76391
2.7655
2.76665
2.76749
2.7682
2.76906
2.77028
2.77197
2.77402
2.77606
2.77771
2.77882
2.77962
2.78047
2.78164
2.78324
2.78508
2.78675
2.78792
2.78861
2.78915
2.78986
2.79087
2.79213
2.79327
2.79386
2.79389
2.79368
2.79355
2.79384
2.79475
2.796
2.79717
2.79814
2.79917
2.80043
2.80197
2.80362
2.8053
2.807
2.80837
2.80919
2.80943
1
1
1
1
1
1
1
1
1
1
1
1
1
1
1
1
1
1
1
1
1
1
1
1
1
1
1
1
1
1
1
1
1
1
1
1
1
1
1
1
1
1
1
1
1
1
1
1
1
1
1
1
1
1
1
1
1
1
1
1
1
1
1
1
1
1
1
1
1
1
1
1
1
1
1
1
1
1
1
1
1
1
1
1
1
1
1.52263
2.54776
2.67763
2.68281
2.6888
2.69329
2.69645
2.69828
2.69937
2.69992
2.70026
2.70088
2.70246
2.70558
2.71006
2.71486
2.71862
2.72109
2.72278
2.72419
2.72563
2.72729
2.72927
2.73143
2.73356
2.73584
2.73817
2.74049
2.74283
2.74506
2.74698
2.74861
2.74992
2.75123
2.75273
2.75451
2.75666
2.75892
2.76112
2.763
2.76454
2.76568
2.76652
2.76723
2.76812
2.76941
2.77122
2.77335
2.77539
2.77695
2.77791
2.7786
2.77944
2.78073
2.78254
2.78452
2.78615
2.78713
2.78761
2.78805
2.78883
2.79007
2.79154
2.79268
2.7931
2.79296
2.79268
2.79267
2.79323
2.79435
2.79556
2.79649
2.79723
2.79821
2.79955
2.80121
2.80293
2.8046
2.80625
2.8076
2.80847
2.8088
1
1
1
1
1
1
1
1
1
1
1
1
1
1
1
1
1
1
1
1
1
1
1
1
1
1
1
1
1
1
1
1
1
1
1
1
1
1
1
1
1
1
1
1
1
1
1
1
1
1
1
1
1
1
1
1
1
1
1
1
1
1
1
1
1
1
1
1
1
1
1
1
1
1
1
1
1
1
1
1
1
1
1
1
1
1
1.44391
2.52262
2.67935
2.68177
2.68694
2.69157
2.69517
2.69755
2.69906
2.69991
2.70037
2.70092
2.7022
2.70488
2.70891
2.71345
2.71725
2.71988
2.72164
2.72302
2.7244
2.72603
2.72811
2.73053
2.73293
2.73533
2.73756
2.7396
2.74164
2.74371
2.74558
2.74734
2.74892
2.75046
2.75213
2.75393
2.75599
2.75812
2.76021
2.76202
2.76352
2.76463
2.76546
2.76622
2.76721
2.76866
2.77057
2.77269
2.77459
2.77595
2.77679
2.77745
2.77839
2.7799
2.78191
2.78394
2.78543
2.78615
2.78644
2.78687
2.7878
2.7893
2.79095
2.79202
2.79219
2.79188
2.79162
2.79178
2.79265
2.79398
2.79507
2.79569
2.79623
2.79716
2.79863
2.80042
2.80221
2.80385
2.80543
2.80675
2.80767
2.80811
1
1
1
1
1
1
1
1
1
1
1
1
1
1
1
1
1
1
1
1
1
1
1
1
1
1
1
1
1
1
1
1
1
1
1
1
1
1
1
1
1
1
1
1
1
1
1
1
1
1
1
1
1
1
1
1
1
1
1
1
1
1
1
1
1
1
1
1
1
1
1
1
1
1
1
1
1
1
1
1
1
1
1
1
1
1
1.36726
2.49446
2.68066
2.6815
2.68549
2.68965
2.69352
2.69646
2.69852
2.69971
2.70023
2.70074
2.70188
2.70421
2.70783
2.71212
2.71595
2.71875
2.72053
2.72179
2.72305
2.72469
2.72692
2.72961
2.7323
2.73479
2.73686
2.73861
2.74036
2.74226
2.74416
2.74616
2.74804
2.74973
2.75144
2.75315
2.75509
2.75713
2.75919
2.76099
2.76243
2.76345
2.76424
2.76507
2.76626
2.76795
2.76999
2.77201
2.77367
2.77478
2.77549
2.77622
2.77739
2.77919
2.78136
2.78333
2.78456
2.78498
2.78516
2.78565
2.78681
2.78857
2.7903
2.79121
2.79111
2.79068
2.79051
2.7909
2.7921
2.79357
2.79448
2.79478
2.79514
2.79607
2.79769
2.79962
2.80144
2.80302
2.80452
2.80579
2.80679
2.80736
1
1
1
1
1
1
1
1
1
1
1
1
1
1
1
1
1
1
1
1
1
1
1
1
1
1
1
1
1
1
1
1
1
1
1
1
1
1
1
1
1
1
1
1
1
1
1
1
1
1
1
1
1
1
1
1
1
1
1
1
1
1
1
1
1
1
1
1
1
1
1
1
1
1
1
1
1
1
1
1
1
1
1
1
1
1
1.28942
2.4595
2.68131
2.6816
2.68469
2.68791
2.69157
2.69489
2.69754
2.69922
2.69998
2.70059
2.70166
2.70373
2.70697
2.71091
2.71464
2.71747
2.71925
2.7205
2.7218
2.72354
2.72592
2.72877
2.73161
2.73404
2.73591
2.73743
2.73898
2.74086
2.74292
2.74516
2.74721
2.7489
2.75053
2.7521
2.75398
2.75606
2.75818
2.76
2.76134
2.76222
2.76294
2.76386
2.76533
2.76731
2.76942
2.77125
2.77256
2.77338
2.77402
2.77493
2.77646
2.77858
2.78081
2.78256
2.78344
2.78361
2.78376
2.78443
2.78588
2.78788
2.78955
2.7902
2.7899
2.7894
2.78938
2.79009
2.79159
2.79306
2.79373
2.79375
2.79399
2.79495
2.79675
2.79878
2.8006
2.8021
2.8035
2.80475
2.80586
2.80656
1
1
1
1
1
1
1
1
1
1
1
1
1
1
1
1
1
1
1
1
1
1
1
1
1
1
1
1
1
1
1
1
1
1
1
1
1
1
1
1
1
1
1
1
1
1
1
1
1
1
1
1
1
1
1
1
1
1
1
1
1
1
1
1
1
1
1
1
1
1
1
1
1
1
1
1
1
1
1
1
1
1
1
1
1
1
1.20606
2.41375
2.68058
2.68139
2.68382
2.68632
2.68957
2.69303
2.69619
2.69845
2.69966
2.70057
2.70169
2.70348
2.70623
2.70971
2.7132
2.71601
2.71788
2.71933
2.72085
2.72273
2.72513
2.72792
2.73067
2.73292
2.73462
2.73608
2.73766
2.73967
2.74193
2.74429
2.74633
2.74791
2.74941
2.75089
2.75279
2.75498
2.75716
2.75894
2.76013
2.76085
2.76154
2.76265
2.76445
2.76667
2.76879
2.77036
2.77131
2.77186
2.77249
2.77367
2.77563
2.77803
2.78021
2.78162
2.78211
2.78211
2.78232
2.78325
2.78504
2.78718
2.78865
2.78899
2.78855
2.78808
2.78825
2.78934
2.79105
2.79237
2.79277
2.79263
2.79281
2.79386
2.79579
2.7979
2.79967
2.80108
2.80238
2.80365
2.80489
2.80568
1
1
1
1
1
1
1
1
1
1
1
1
1
1
1
1
1
1
1
1
1
1
1
1
1
1
1
1
1
1
1
1
1
1
1
1
1
1
1
1
1
1
1
1
1
1
1
1
1
1
1
1
1
1
1
1
1
1
1
1
1
1
1
1
1
1
1
1
1
1
1
1
1
1
1
1
1
1
1
1
1
1
1
1
1
1
1.11934
2.36362
2.68007
2.68142
2.68305
2.68523
2.68815
2.6915
2.69488
2.69758
2.69929
2.70053
2.70175
2.70338
2.70572
2.70868
2.71181
2.71454
2.71663
2.71843
2.72022
2.72218
2.72445
2.72699
2.72947
2.7315
2.73317
2.73479
2.73655
2.7387
2.74105
2.74335
2.74527
2.74672
2.74815
2.74965
2.75164
2.7539
2.75606
2.75773
2.75877
2.75941
2.76019
2.76155
2.76364
2.76598
2.76799
2.76927
2.76988
2.77025
2.77096
2.77251
2.77489
2.77744
2.77944
2.78042
2.78054
2.78049
2.78085
2.78214
2.78426
2.78639
2.78757
2.7876
2.78711
2.78675
2.78719
2.78864
2.79043
2.79148
2.79161
2.79139
2.7916
2.79278
2.79481
2.79693
2.79862
2.79994
2.80118
2.80251
2.80387
2.80472
1
1
1
1
1
1
1
1
1
1
1
1
1
1
1
1
1
1
1
1
1
1
1
1
1
1
1
1
1
1
1
1
1
1
1
1
1
1
1
1
1
1
1
1
1
1
1
1
1
1
1
1
1
1
1
1
1
1
1
1
1
1
1
1
1
1
1
1
1
1
1
1
1
1
1
1
1
1
1
1
1
1
1
1
1
1
1.03271
2.31593
2.67993
2.68124
2.68263
2.68494
2.68777
2.69106
2.69442
2.6972
2.69918
2.7007
2.70208
2.70364
2.70561
2.70801
2.71071
2.71332
2.71564
2.71779
2.71981
2.72176
2.72379
2.72596
2.72812
2.72998
2.73178
2.73369
2.73567
2.73786
2.74013
2.74222
2.74396
2.74539
2.74689
2.74853
2.75061
2.75281
2.7548
2.7563
2.75725
2.75797
2.75898
2.76062
2.76285
2.76514
2.76692
2.76792
2.76832
2.76865
2.76955
2.77152
2.77421
2.77678
2.77844
2.77898
2.77886
2.7788
2.77942
2.78114
2.7835
2.78546
2.78629
2.78606
2.78558
2.78545
2.78623
2.78795
2.78961
2.79036
2.79029
2.79004
2.79036
2.79172
2.7938
2.79586
2.79745
2.79871
2.79994
2.80134
2.8028
2.80366
1
1
1
1
1
1
1
1
1
1
1
1
1
1
1
1
1
1
1
1
1
1
1
1
1
1
1
1
1
1
1
1
1
1
1
1
1
1
1
1
1
1
1
1
1
1
1
1
1
1
1
1
1
1
1
1
1
1
1
1
1
1
1
1
1
1
1
1
1
1
1
1
1
1
1
1
1
1
1
1
1
1
1
1
1
1
1.00085
2.26052
2.67929
2.68168
2.68322
2.68562
2.68827
2.69129
2.69432
2.69693
2.699
2.70063
2.70203
2.70352
2.70528
2.70742
2.70993
2.71252
2.71504
2.71742
2.71953
2.72138
2.7231
2.72488
2.72676
2.72862
2.73066
2.73286
2.73498
2.73706
2.73909
2.74088
2.74249
2.74404
2.74575
2.7476
2.74966
2.75164
2.75333
2.75465
2.75562
2.75661
2.75796
2.75983
2.76202
2.76408
2.76556
2.76633
2.76667
2.76712
2.76836
2.77069
2.7735
2.7759
2.77715
2.7773
2.77708
2.77711
2.7781
2.78023
2.78269
2.78432
2.78475
2.78443
2.78402
2.7842
2.7854
2.7872
2.78855
2.789
2.78882
2.78864
2.78915
2.79066
2.79271
2.79465
2.79614
2.7974
2.79869
2.80015
2.80166
2.80247
1
1
1
1
1
1
1
1
1
1
1
1
1
1
1
1
1
1
1
1
1
1
1
1
1
1
1
1
1
1
1
1
1
1
1
1
1
1
1
1
1
1
1
1
1
1
1
1
1
1
1
1
1
1
1
1
1
1
1
1
1
1
1
1
1
1
1
1
1
1
1
1
1
1
1
1
1
1
1
1
1
1
1
1
1
1
1
2.18843
2.67547
2.68177
2.68374
2.68656
2.68928
2.69208
2.69479
2.69719
2.6992
2.70081
2.70218
2.70356
2.70518
2.70723
2.70968
2.71232
2.71497
2.71741
2.71944
2.72105
2.72243
2.72391
2.72563
2.72756
2.72982
2.73219
2.73431
2.73619
2.73793
2.73944
2.74103
2.74283
2.74479
2.74677
2.74867
2.75032
2.75167
2.75287
2.75402
2.75541
2.75712
2.75909
2.76107
2.76275
2.76389
2.76454
2.76499
2.76575
2.7674
2.76996
2.7727
2.77474
2.77559
2.77549
2.77525
2.77551
2.77694
2.77935
2.78169
2.78294
2.78303
2.78272
2.7825
2.78309
2.78463
2.78628
2.78723
2.78741
2.78723
2.78721
2.78797
2.78959
2.79151
2.79327
2.7947
2.79604
2.79744
2.79895
2.80043
2.80113
1
1
1
1
1
1
1
1
1
1
1
1
1
1
1
1
1
1
1
1
1
1
1
1
1
1
1
1
1
1
1
1
1
1
1
1
1
1
1
1
1
1
1
1
1
1
1
1
1
1
1
1
1
1
1
1
1
1
1
1
1
1
1
1
1
1
1
1
1
1
1
1
1
1
1
1
1
1
1
1
1
1
1
1
1
1
1
2.10129
2.66521
2.68074
2.68363
2.68696
2.68987
2.6926
2.69508
2.69724
2.6991
2.70066
2.70204
2.70346
2.70515
2.70727
2.70977
2.71246
2.71508
2.71738
2.71919
2.7206
2.72184
2.72321
2.72489
2.72689
2.72923
2.7316
2.7336
2.73525
2.73674
2.73809
2.73978
2.74183
2.74393
2.74589
2.74754
2.74883
2.74991
2.75111
2.75257
2.7544
2.75638
2.75828
2.75991
2.76115
2.76199
2.76263
2.76335
2.76456
2.76661
2.7692
2.77168
2.77327
2.77375
2.7736
2.77346
2.77407
2.77592
2.77841
2.78042
2.78127
2.7812
2.78096
2.78109
2.78215
2.78381
2.78512
2.78564
2.78567
2.78557
2.7858
2.78682
2.78844
2.79016
2.79172
2.79313
2.79464
2.79619
2.79772
2.79912
2.79964
1
1
1
1
1
1
1
1
1
1
1
1
1
1
1
1
1
1
1
1
1
1
1
1
1
1
1
1
1
1
1
1
1
1
1
1
1
1
1
1
1
1
1
1
1
1
1
1
1
1
1
1
1
1
1
1
1
1
1
1
1
1
1
1
1
1
1
1
1
1
1
1
1
1
1
1
1
1
1
1
1
1
1
1
1
1
1
2.00124
2.6473
2.67672
2.68205
2.68649
2.68986
2.6927
2.69506
2.69701
2.69858
2.69997
2.70141
2.70307
2.70502
2.70731
2.70989
2.71259
2.71514
2.71728
2.71895
2.72033
2.72162
2.72301
2.72467
2.72662
2.72882
2.73093
2.73269
2.73418
2.73562
2.73705
2.73889
2.74104
2.74308
2.74486
2.74619
2.74719
2.74817
2.74953
2.75137
2.75354
2.7556
2.7573
2.75851
2.75932
2.75996
2.76071
2.76183
2.76356
2.76586
2.76831
2.77037
2.77153
2.77176
2.77165
2.77177
2.77283
2.77495
2.77727
2.77883
2.77935
2.7793
2.77926
2.77984
2.78128
2.78282
2.78366
2.78384
2.78382
2.78388
2.78445
2.78569
2.78719
2.78863
2.79
2.79144
2.79319
2.79493
2.79645
2.7977
2.798
1
1
1
1
1
1
1
1
1
1
1
1
1
1
1
1
1
1
1
1
1
1
1
1
1
1
1
1
1
1
1
1
1
1
1
1
1
1
1
1
1
1
1
1
1
1
1
1
1
1
1
1
1
1
1
1
1
1
1
1
1
1
1
1
1
1
1
1
1
1
1
1
1
1
1
1
1
1
1
1
1
1
1
1
1
1
1
1.89147
2.62423
2.67007
2.67865
2.68464
2.68868
2.6917
2.69396
2.69571
2.69713
2.69851
2.70013
2.70213
2.70446
2.70702
2.70969
2.71237
2.71486
2.71694
2.71867
2.7202
2.72164
2.72308
2.72469
2.72647
2.7283
2.73002
2.73162
2.73316
2.73481
2.73648
2.73843
2.74049
2.74223
2.74366
2.74465
2.74549
2.74658
2.74825
2.75042
2.75272
2.75469
2.75607
2.75687
2.75735
2.75792
2.7589
2.7605
2.76265
2.76503
2.76719
2.76875
2.76951
2.76967
2.76974
2.77027
2.77176
2.77388
2.77582
2.77694
2.77729
2.77737
2.77771
2.77877
2.78036
2.78155
2.78192
2.78189
2.7819
2.7822
2.78316
2.78453
2.78579
2.78693
2.78812
2.78966
2.79171
2.79365
2.79512
2.79617
2.79622
1
1
1
1
1
1
1
1
1
1
1
1
1
1
1
1
1
1
1
1
1
1
1
1
1
1
1
1
1
1
1
1
1
1
1
1
1
1
1
1
1
1
1
1
1
1
1
1
1
1
1
1
1
1
1
1
1
1
1
1
1
1
1
1
1
1
1
1
1
1
1
1
1
1
1
1
1
1
1
1
1
1
1
1
1
1
1
1.76934
2.59779
2.66396
2.67404
2.6813
2.6859
2.68906
2.69131
2.69306
2.69455
2.6961
2.69799
2.70033
2.70303
2.70587
2.70872
2.71149
2.71405
2.71626
2.71819
2.71997
2.72158
2.72306
2.72453
2.72603
2.72748
2.72895
2.73061
2.73244
2.73441
2.73632
2.73825
2.74
2.74128
2.74228
2.74302
2.74389
2.74529
2.7473
2.74962
2.75185
2.75356
2.75459
2.75506
2.75537
2.756
2.75731
2.75933
2.76172
2.764
2.76576
2.76684
2.76731
2.76755
2.76795
2.76898
2.77071
2.7726
2.77403
2.7748
2.77515
2.7755
2.77633
2.77776
2.77922
2.77997
2.77997
2.77983
2.77995
2.78055
2.78189
2.78327
2.78422
2.78507
2.78611
2.78779
2.79016
2.79232
2.7937
2.79451
2.79432
1
1
1
1
1
1
1
1
1
1
1
1
1
1
1
1
1
1
1
1
1
1
1
1
1
1
1
1
1
1
1
1
1
1
1
1
1
1
1
1
1
1
1
1
1
1
1
1
1
1
1
1
1
1
1
1
1
1
1
1
1
1
1
1
1
1
1
1
1
1
1
1
1
1
1
1
1
1
1
1
1
1
1
1
1
1
1
1.63688
2.56686
2.662
2.66988
2.6764
2.68096
2.68446
2.68712
2.68925
2.69111
2.69296
2.69509
2.69767
2.70058
2.70361
2.70662
2.70953
2.71229
2.71488
2.71723
2.71933
2.72115
2.72264
2.72393
2.7252
2.72644
2.72787
2.72979
2.73197
2.73421
2.73627
2.73801
2.73931
2.74014
2.74082
2.74151
2.74261
2.74438
2.74658
2.74884
2.75082
2.7522
2.75291
2.75318
2.75348
2.75432
2.75598
2.75827
2.76066
2.76267
2.76401
2.76469
2.76504
2.76549
2.76636
2.7678
2.76952
2.771
2.77195
2.77252
2.77301
2.77378
2.7751
2.77666
2.77777
2.77807
2.77786
2.77772
2.778
2.77895
2.78057
2.78186
2.78248
2.78305
2.78399
2.78585
2.78853
2.7909
2.79219
2.79273
2.7923
1
1
1
1
1
1
1
1
1
1
1
1
1
1
1
1
1
1
1
1
1
1
1
1
1
1
1
1
1
1
1
1
1
1
1
1
1
1
1
1
1
1
1
1
1
1
1
1
1
1
1
1
1
1
1
1
1
1
1
1
1
1
1
1
1
1
1
1
1
1
1
1
1
1
1
1
1
1
1
1
1
1
1
1
1
1
1
1.49343
2.52454
2.66263
2.66654
2.67159
2.67536
2.67879
2.68174
2.68433
2.68669
2.689
2.69144
2.69418
2.69719
2.70032
2.70343
2.70646
2.70947
2.71245
2.71531
2.71788
2.71999
2.7216
2.72287
2.72408
2.72532
2.72686
2.72901
2.73145
2.73383
2.73587
2.73736
2.73828
2.73886
2.73948
2.74034
2.74176
2.74376
2.74595
2.74799
2.74961
2.75064
2.75111
2.75134
2.75182
2.75297
2.75488
2.75719
2.75938
2.76101
2.76195
2.7624
2.7628
2.7636
2.76493
2.76657
2.76806
2.76905
2.76964
2.77019
2.77098
2.77225
2.77387
2.77529
2.77598
2.77593
2.77565
2.77558
2.77609
2.7774
2.77913
2.78023
2.78058
2.78092
2.78179
2.78386
2.7868
2.78935
2.79054
2.79081
2.79019
1
1
1
1
1
1
1
1
1
1
1
1
1
1
1
1
1
1
1
1
1
1
1
1
1
1
1
1
1
1
1
1
1
1
1
1
1
1
1
1
1
1
1
1
1
1
1
1
1
1
1
1
1
1
1
1
1
1
1
1
1
1
1
1
1
1
1
1
1
1
1
1
1
1
1
1
1
1
1
1
1
1
1
1
1
1
1
1.33591
2.46532
2.66608
2.66446
2.66735
2.67046
2.67382
2.67699
2.67992
2.68265
2.68525
2.68788
2.69064
2.69347
2.69636
2.69932
2.70247
2.70576
2.70909
2.71236
2.71538
2.71792
2.71983
2.72126
2.72255
2.72392
2.72563
2.72792
2.73048
2.7329
2.7349
2.73626
2.73703
2.73764
2.73842
2.73957
2.74124
2.74329
2.74532
2.74699
2.74818
2.74887
2.74926
2.74966
2.75048
2.75193
2.75388
2.75598
2.7578
2.75903
2.75968
2.76007
2.7607
2.7619
2.76354
2.76513
2.76624
2.76679
2.76721
2.76793
2.76914
2.77082
2.7725
2.77357
2.77386
2.77364
2.77337
2.77345
2.77425
2.77583
2.77748
2.77834
2.77851
2.77867
2.77955
2.78182
2.78496
2.78761
2.78874
2.78876
2.788
1
1
1
1
1
1
1
1
1
1
1
1
1
1
1
1
1
1
1
1
1
1
1
1
1
1
1
1
1
1
1
1
1
1
1
1
1
1
1
1
1
1
1
1
1
1
1
1
1
1
1
1
1
1
1
1
1
1
1
1
1
1
1
1
1
1
1
1
1
1
1
1
1
1
1
1
1
1
1
1
1
1
1
1
1
1
1
1.17406
2.39626
2.66878
2.66557
2.66629
2.66836
2.67105
2.67407
2.67711
2.68001
2.68271
2.68525
2.68772
2.69012
2.69261
2.6953
2.69823
2.70146
2.70497
2.7086
2.71203
2.71499
2.71728
2.719
2.72046
2.722
2.72384
2.7262
2.72879
2.73127
2.73339
2.73488
2.7358
2.73663
2.73769
2.73908
2.74083
2.74272
2.74436
2.74556
2.74635
2.74692
2.7475
2.74831
2.74951
2.75107
2.75284
2.75454
2.75591
2.75681
2.75733
2.75786
2.75882
2.76034
2.76202
2.76335
2.76405
2.76433
2.76478
2.7658
2.76746
2.76935
2.77083
2.7715
2.77147
2.77124
2.77109
2.77137
2.77246
2.77414
2.77559
2.77619
2.77627
2.77634
2.77729
2.77973
2.78298
2.78566
2.78673
2.78656
2.78575
1
1
1
1
1
1
1
1
1
1
1
1
1
1
1
1
1
1
1
1
1
1
1
1
1
1
1
1
1
1
1
1
1
1
1
1
1
1
1
1
1
1
1
1
1
1
1
1
1
1
1
1
1
1
1
1
1
1
1
1
1
1
1
1
1
1
1
1
1
1
1
1
1
1
1
1
1
1
1
1
1
1
1
1
1
1
1
1.04804
2.33839
2.67102
2.66753
2.66798
2.6695
2.6718
2.67448
2.67716
2.67959
2.68177
2.68385
2.68586
2.68788
2.68995
2.69218
2.69462
2.6975
2.70087
2.70459
2.70828
2.71153
2.71416
2.71618
2.71785
2.71949
2.72138
2.7237
2.7263
2.72892
2.73132
2.73321
2.73453
2.73573
2.73705
2.73855
2.74016
2.74164
2.74277
2.7436
2.74429
2.74508
2.74613
2.74741
2.74883
2.75028
2.75164
2.75281
2.75374
2.75444
2.75506
2.75589
2.75717
2.75878
2.76025
2.76118
2.76157
2.7618
2.76245
2.76386
2.76583
2.76769
2.76881
2.76909
2.76894
2.76875
2.7688
2.76938
2.77066
2.77226
2.77342
2.77382
2.77384
2.77393
2.77502
2.77757
2.78083
2.78347
2.78449
2.7842
2.78345
1
1
1
1
1
1
1
1
1
1
1
1
1
1
1
1
1
1
1
1
1
1
1
1
1
1
1
1
1
1
1
1
1
1
1
1
1
1
1
1
1
1
1
1
1
1
1
1
1
1
1
1
1
1
1
1
1
1
1
1
1
1
1
1
1
1
1
1
1
1
1
1
1
1
1
1
1
1
1
1
1
1
1
1
1
1
1
1.00125
2.259
2.67339
2.67197
2.67197
2.67248
2.67358
2.67538
2.67762
2.68004
2.68234
2.68442
2.68624
2.68779
2.68915
2.69054
2.69233
2.69468
2.69761
2.701
2.70455
2.70789
2.71073
2.71301
2.71484
2.71652
2.71835
2.72055
2.72312
2.72589
2.72868
2.73113
2.73304
2.7347
2.73622
2.73764
2.73891
2.73991
2.74066
2.74139
2.74235
2.74366
2.74526
2.74687
2.74826
2.74932
2.75007
2.75069
2.75134
2.75211
2.75304
2.75422
2.75563
2.75704
2.75813
2.7587
2.75894
2.7593
2.76029
2.76203
2.76406
2.7657
2.76645
2.76644
2.76628
2.76623
2.76653
2.76741
2.76878
2.77014
2.77098
2.77123
2.77124
2.77145
2.77274
2.77534
2.77849
2.78101
2.782
2.78166
2.7811
1
1
1
1
1
1
1
1
1
1
1
1
1
1
1
1
1
1
1
1
1
1
1
1
1
1
1
1
1
1
1
1
1
1
1
1
1
1
1
1
1
1
1
1
1
1
1
1
1
1
1
1
1
1
1
1
1
1
1
1
1
1
1
1
1
1
1
1
1
1
1
1
1
1
1
1
1
1
1
1
1
1
1
1
1
1
1
1
2.15756
2.67383
2.67448
2.67546
2.67681
2.67778
2.67886
2.68018
2.68174
2.68331
2.6849
2.68652
2.68807
2.68946
2.69078
2.69217
2.69377
2.69586
2.6985
2.70155
2.70466
2.70747
2.70981
2.71172
2.71336
2.71504
2.71703
2.7195
2.72237
2.72551
2.72857
2.73117
2.73332
2.73493
2.73614
2.737
2.73761
2.7382
2.73915
2.74066
2.74262
2.74466
2.74634
2.74738
2.74782
2.74798
2.74827
2.74896
2.75006
2.75139
2.75276
2.75402
2.75501
2.75565
2.756
2.75631
2.75697
2.7583
2.76019
2.76205
2.76333
2.76379
2.76367
2.76354
2.76367
2.76428
2.76542
2.76674
2.76776
2.76827
2.76843
2.76846
2.7689
2.77041
2.77299
2.77593
2.77826
2.77924
2.77898
2.77869
1
1
1
1
1
1
1
1
1
1
1
1
1
1
1
1
1
1
1
1
1
1
1
1
1
1
1
1
1
1
1
1
1
1
1
1
1
1
1
1
1
1
1
1
1
1
1
1
1
1
1
1
1
1
1
1
1
1
1
1
1
1
1
1
1
1
1
1
1
1
1
1
1
1
1
1
1
1
1
1
1
1
1
1
1
1
1
1
2.02852
2.65549
2.67488
2.67612
2.67783
2.67932
2.68079
2.68227
2.68374
2.68511
2.68646
2.68779
2.689
2.69007
2.69114
2.69236
2.69387
2.69564
2.69766
2.69998
2.70248
2.70493
2.70711
2.70891
2.71039
2.71185
2.71356
2.7158
2.71864
2.72199
2.72554
2.72877
2.73137
2.73301
2.73398
2.73451
2.73489
2.73554
2.73696
2.73917
2.74171
2.74396
2.74538
2.74586
2.74578
2.74563
2.74592
2.74693
2.74845
2.75003
2.75131
2.75216
2.75263
2.75291
2.75324
2.75382
2.75484
2.75638
2.75816
2.75971
2.76063
2.7609
2.76079
2.76074
2.76109
2.762
2.76332
2.76448
2.76512
2.76536
2.76542