/*--------------------------------*- C++ -*----------------------------------*\
  =========                 |
  \\      /  F ield         | OpenFOAM: The Open Source CFD Toolbox
   \\    /   O peration     | Website:  https://openfoam.org
    \\  /    A nd           | Version:  7
     \\/     M anipulation  |
\*---------------------------------------------------------------------------*/
FoamFile
{
    version     2.0;
    format      ascii;
    class       volVectorField;
    location    "10";
    object      U;
}
// * * * * * * * * * * * * * * * * * * * * * * * * * * * * * * * * * * * * * //

dimensions      [0 1 -1 0 0 0 0];

internalField   nonuniform List<vector> 
433
(
(1.04816 0.381964 1.61267e-18)
(1.08387 0.392484 -4.00087e-18)
(1.11583 0.401373 2.00264e-19)
(1.1439 0.408356 -9.93409e-19)
(1.16802 0.41354 5.21841e-18)
(0.614785 0.26508 1.60932e-18)
(0.669284 0.281987 -2.53063e-19)
(0.723599 0.298887 7.77451e-19)
(0.777035 0.315793 5.22945e-19)
(0.828979 0.332544 1.08992e-18)
(0.878886 0.348885 9.65894e-19)
(0.926287 0.364525 -3.08553e-18)
(0.970788 0.379168 -1.09721e-18)
(1.01207 0.392538 -2.33045e-18)
(1.04988 0.404393 1.54417e-18)
(1.08402 0.414532 1.82496e-18)
(1.11436 0.422838 8.5096e-19)
(1.14079 0.429048 -3.33922e-18)
(1.16328 0.433328 1.00505e-18)
(0.486477 -0.00663294 1.47432e-18)
(0.371887 0.0682464 -1.14336e-18)
(0.314923 0.118351 1.8134e-19)
(0.306404 0.154192 -8.41104e-19)
(0.331167 0.181874 1.05567e-18)
(0.375447 0.205217 1.3995e-18)
(0.42977 0.225822 -8.88843e-19)
(0.488506 0.244627 1.29431e-18)
(0.548572 0.262602 8.84487e-19)
(0.608391 0.280396 1.55803e-20)
(0.667133 0.298257 1.78731e-18)
(0.724257 0.316243 -1.42952e-18)
(0.779332 0.334247 -1.8583e-19)
(0.831982 0.352006 4.45352e-19)
(0.881874 0.369183 2.67959e-19)
(0.928713 0.385431 -2.23397e-18)
(0.972247 0.400423 -1.1611e-18)
(1.01227 0.413873 2.57776e-18)
(1.04864 0.425545 -3.60687e-18)
(1.08124 0.435257 -8.13637e-19)
(1.11 0.442923 4.19289e-18)
(1.13487 0.448304 2.22431e-18)
(1.15586 0.451631 -2.8553e-18)
(1.1731 0.453163 3.20298e-18)
(-8.48271 -6.37531 -5.88297e-18)
(-8.79749 -7.63784 -4.52506e-19)
(-7.24037 -7.87358 -7.26785e-18)
(-4.19841 -6.99157 1.57571e-17)
(-0.652966 -5.33802 -9.01409e-18)
(2.23577 -3.49578 3.94368e-18)
(3.77738 -1.92191 -3.66067e-18)
(3.99096 -0.798434 -1.81763e-18)
(3.34743 -0.10674 4.04625e-18)
(2.3869 0.25167 -7.7784e-18)
(1.48669 0.385054 8.41547e-18)
(0.818816 0.391883 -7.75021e-18)
(0.408715 0.345699 1.22205e-18)
(0.208772 0.290689 1.88341e-18)
(0.150574 0.248958 -1.78229e-18)
(0.173665 0.225548 4.06313e-18)
(0.235767 0.217237 -1.28851e-18)
(0.31212 0.220217 -2.91615e-18)
(0.390456 0.230983 2.47514e-18)
(0.465729 0.246639 -5.05567e-19)
(0.536592 0.265213 -1.81767e-18)
(0.603176 0.285436 -2.19793e-18)
(0.665938 0.306435 8.77777e-19)
(0.725224 0.32757 -1.21708e-18)
(0.781205 0.348343 1.75505e-18)
(0.833901 0.36833 2.40568e-18)
(0.883236 0.387165 -1.05165e-18)
(0.929094 0.404528 3.43161e-18)
(0.971357 0.420147 -4.87684e-18)
(1.00993 0.433801 3.46556e-18)
(1.04473 0.44532 -3.25274e-18)
(1.07574 0.454583 2.80759e-18)
(1.10293 0.461565 -8.23173e-19)
(1.12632 0.46606 6.58987e-19)
(1.14594 0.468383 -5.98887e-18)
(1.16185 0.468941 3.69731e-18)
(-0.094807 -0.828373 1.07966e-17)
(-1.35366 -2.3929 4.38599e-17)
(-3.75025 -4.22856 1.60838e-18)
(-6.54433 -5.46515 2.58639e-17)
(-8.29511 -5.51054 -4.86343e-17)
(-7.95732 -4.49428 -3.64789e-17)
(-5.59627 -2.59315 -9.01855e-18)
(-2.0409 -0.333251 8.25602e-17)
(1.60308 1.68101 -3.04673e-17)
(4.38471 3.00301 3.00475e-18)
(5.78399 3.49282 -2.65009e-18)
(5.81306 3.31079 5.48167e-18)
(4.88858 2.75042 -1.36163e-19)
(3.5673 2.07511 -2.30278e-17)
(2.30152 1.44981 1.54548e-17)
(1.33226 0.951194 -5.31415e-18)
(0.712209 0.598079 -9.42912e-18)
(0.38357 0.375033 2.26987e-18)
(0.253511 0.251467 7.5549e-18)
(0.238505 0.196649 -4.29211e-18)
(0.280348 0.183417 3.84327e-18)
(0.345303 0.191551 -6.12564e-18)
(0.416314 0.21022 4.43517e-18)
(0.486186 0.233978 -1.30653e-18)
(0.552752 0.259842 1.97341e-18)
(0.615796 0.286262 -1.98609e-18)
(0.675591 0.312366 4.5855e-18)
(0.732352 0.337594 -1.17272e-18)
(0.786115 0.361544 8.56721e-19)
(0.83678 0.383894 -1.11688e-17)
(0.884185 0.40438 5.50989e-18)
(0.928161 0.422781 -1.36021e-18)
(0.968569 0.438918 3.07176e-18)
(1.00531 0.452654 -1.69399e-18)
(1.03835 0.463898 4.59115e-20)
(1.06767 0.472602 1.97833e-18)
(1.09328 0.478799 -1.46421e-18)
(1.11526 0.482315 2.93334e-18)
(1.13356 0.483565 -1.85292e-18)
(1.14823 0.483174 -3.30172e-18)
(-3.59359 -1.74744 -2.61635e-17)
(-1.693 -0.746056 5.14482e-18)
(-0.560713 0.820606 3.17047e-17)
(-0.405711 2.55507 -2.64362e-17)
(0.0378977 4.43872 1.14614e-17)
(0.956996 6.08855 -1.01672e-17)
(2.10754 7.1377 -7.06413e-18)
(3.21706 7.41871 1.26988e-17)
(4.0565 6.9732 -3.83008e-19)
(4.44803 5.99103 -2.03931e-18)
(4.31632 4.72691 -8.90437e-18)
(3.73179 3.43455 1.17566e-17)
(2.89315 2.30349 -8.52764e-18)
(2.03446 1.43238 -1.29312e-18)
(1.32643 0.834757 -2.9076e-18)
(0.835612 0.470461 8.71827e-18)
(0.547398 0.275014 -2.78644e-18)
(0.409614 0.185765 -2.92121e-18)
(0.366896 0.158095 2.47692e-18)
(0.377729 0.163893 -4.90441e-19)
(0.415726 0.185071 5.64164e-19)
(0.465897 0.21209 -3.60616e-18)
(0.520709 0.241042 3.43999e-18)
(0.576731 0.27026 3.74563e-18)
(0.632425 0.299 -7.26347e-18)
(0.686985 0.326846 7.35791e-18)
(0.739835 0.353457 -8.27568e-18)
(0.79048 0.37851 6.96625e-18)
(0.838487 0.401691 -2.92068e-18)
(0.883496 0.422723 6.35474e-18)
(0.925239 0.441371 -6.12685e-18)
(0.963534 0.45746 7.25201e-18)
(0.998284 0.470872 2.0097e-19)
(1.02946 0.481547 -6.93225e-18)
(1.05706 0.48948 1.23135e-18)
(1.08114 0.494756 2.80042e-18)
(1.10176 0.497237 -3.58752e-18)
(1.11888 0.497387 -1.52697e-18)
(1.1325 0.495858 4.17229e-18)
(2.03185 3.96338 -8.33984e-18)
(3.20669 5.25402 -1.06372e-17)
(2.81235 5.30506 5.85299e-18)
(1.63545 4.69506 -1.01464e-17)
(0.404297 3.67867 2.88117e-17)
(-0.376575 2.60962 7.33274e-18)
(-0.525367 1.76722 2.65392e-17)
(-0.179074 1.21932 -2.28927e-17)
(0.379014 0.878893 6.18638e-18)
(0.886011 0.627424 -5.52001e-18)
(1.1833 0.405271 -2.15539e-17)
(1.23587 0.21051 1.71378e-17)
(1.10449 0.0668139 -6.16892e-18)
(0.89085 -0.0122847 -2.95756e-18)
(0.68326 -0.0332852 -1.11269e-18)
(0.529052 -0.0127217 1.78915e-19)
(0.438795 0.0302829 -5.06617e-19)
(0.403561 0.0799287 1.60653e-18)
(0.408039 0.128119 -3.42096e-18)
(0.437138 0.172628 -1.32884e-18)
(0.480014 0.212983 4.22572e-18)
(0.529997 0.249514 7.13129e-20)
(0.583091 0.283061 -1.92737e-18)
(0.636929 0.314325 5.93454e-18)
(0.690043 0.343697 -3.63442e-18)
(0.741462 0.371272 8.36778e-18)
(0.790513 0.396926 -5.20694e-18)
(0.836726 0.420429 -3.59504e-18)
(0.879785 0.441523 3.39983e-18)
(0.919495 0.459984 -2.23633e-18)
(0.955757 0.475644 -1.10018e-18)
(0.988548 0.488407 1.35122e-18)
(1.0179 0.498246 8.84609e-19)
(1.04386 0.505195 5.00212e-18)
(1.06651 0.509387 -3.28554e-18)
(1.08596 0.510716 -1.94139e-18)
(1.10212 0.5097 1.92369e-18)
(1.11491 0.507061 -3.1812e-18)
(-2.82396 -3.14993 -2.87024e-17)
(-3.24275 -5.16655 3.66764e-17)
(-2.93567 -6.40658 -2.70472e-17)
(-1.84035 -6.49046 3.52006e-18)
(-0.384774 -5.55117 2.91985e-17)
(0.820995 -4.10689 4.05698e-19)
(1.4476 -2.67272 -2.09962e-17)
(1.54607 -1.53724 5.70311e-18)
(1.34086 -0.772516 1.15813e-17)
(1.0345 -0.326398 -9.89228e-18)
(0.743825 -0.100267 4.28216e-18)
(0.519033 -0.000442564 5.09801e-19)
(0.371934 0.0409939 3.26132e-19)
(0.29575 0.065218 -1.94092e-20)
(0.275923 0.0898987 6.54902e-19)
(0.295852 0.118872 1.5301e-18)
(0.339301 0.151829 -1.81381e-19)
(0.39449 0.187413 -1.78602e-18)
(0.454494 0.223722 4.29811e-19)
(0.515419 0.259503 1.31743e-18)
(0.575199 0.294106 2.21639e-18)
(0.632753 0.32717 -4.51355e-18)
(0.687489 0.358421 2.87578e-18)
(0.739064 0.387585 -4.95658e-18)
(0.787272 0.414376 1.79113e-19)
(0.832 0.438523 -2.56932e-18)
(0.873204 0.459795 5.90136e-18)
(0.910894 0.478024 -8.52662e-18)
(0.945123 0.493115 2.25994e-18)
(0.975975 0.505043 3.15548e-18)
(1.00356 0.513853 6.14606e-19)
(1.02799 0.519641 -1.53279e-18)
(1.04935 0.522604 -2.51785e-19)
(1.0678 0.522668 -2.13683e-18)
(1.08321 0.520404 4.79973e-18)
(1.09538 0.516663 -5.02825e-20)
(-4.26002 -8.90728 -8.19348e-18)
(-0.549586 -6.6413 1.17505e-17)
(2.83059 -3.9443 -1.30102e-17)
(4.91401 -1.61332 1.50428e-17)
(5.42648 -0.0608328 -2.85485e-17)
(4.73805 0.718252 6.40697e-18)
(3.48586 0.943973 3.48423e-18)
(2.2148 0.859377 3.22633e-18)
(1.22384 0.651943 8.01138e-18)
(0.588458 0.441314 -9.45455e-18)
(0.256909 0.282776 -7.59184e-19)
(0.135818 0.187175 8.46092e-18)
(0.137489 0.144774 7.11861e-19)
(0.197827 0.13995 -5.20293e-18)
(0.278791 0.158273 -2.24751e-18)
(0.362114 0.188739 -2.90895e-18)
(0.440306 0.22489 2.68538e-18)
(0.51146 0.262991 -1.15146e-18)
(0.575934 0.300908 3.89158e-18)
(0.634676 0.337374 -2.08105e-18)
(0.688553 0.371588 -7.34582e-18)
(0.738171 0.403014 5.53306e-18)
(0.783907 0.431295 1.41344e-18)
(0.82599 0.456201 -6.49544e-18)
(0.864572 0.477601 2.35034e-18)
(0.899777 0.49545 -3.54171e-19)
(0.931726 0.509774 1.56039e-18)
(0.96055 0.520659 -2.65109e-18)
(0.986387 0.52824 -7.3753e-18)
(1.00938 0.532694 7.45302e-18)
(1.02962 0.534292 2.08838e-18)
(1.04729 0.532993 8.59308e-18)
(1.06218 0.529415 1.4666e-19)
(1.07396 0.52458 -6.23686e-18)
(3.29932 3.69215 2.58033e-17)
(5.54536 5.11183 -5.6236e-17)
(6.25454 5.30813 1.7709e-17)
(5.67209 4.61892 1.4792e-18)
(4.37892 3.52614 1.01695e-17)
(2.9626 2.4185 7.10988e-18)
(1.79901 1.50736 -2.55274e-18)
(1.01477 0.859766 -1.40747e-17)
(0.572452 0.457339 1.1283e-18)
(0.372123 0.241617 -5.32152e-18)
(0.315339 0.150222 1.39206e-17)
(0.331008 0.132718 -3.81661e-18)
(0.378284 0.152686 5.66145e-18)
(0.435834 0.188964 -3.31775e-19)
(0.493933 0.231186 -4.35422e-18)
(0.5493 0.274276 1.79078e-18)
(0.601344 0.315859 2.99909e-18)
(0.650292 0.354794 -8.16813e-18)
(0.696414 0.390492 8.08634e-18)
(0.739834 0.422616 -2.62482e-18)
(0.780545 0.450971 -2.32378e-18)
(0.818487 0.47546 2.30644e-18)
(0.853606 0.496064 9.46715e-18)
(0.885889 0.512827 -6.57776e-18)
(0.915369 0.525853 1.59134e-18)
(0.942127 0.535296 -5.59746e-19)
(0.966279 0.541353 2.0685e-18)
(0.98796 0.544255 3.40847e-18)
(1.00726 0.544331 -7.42303e-18)
(1.02438 0.541565 -6.59379e-18)
(1.03903 0.536616 4.90844e-18)
(1.05069 0.530711 4.21713e-18)
(4.43265 6.37738 -1.34675e-18)
(4.1569 4.87483 -2.26288e-18)
(3.45464 3.37864 -2.40714e-20)
(2.59223 2.12573 -2.61806e-18)
(1.80243 1.2193 4.13325e-18)
(1.20707 0.646524 -1.17637e-17)
(0.823078 0.331644 1.77972e-18)
(0.60876 0.187451 2.32604e-18)
(0.507846 0.144028 3.89273e-18)
(0.475273 0.153305 2.68581e-18)
(0.480439 0.186264 -4.74334e-18)
(0.504855 0.227481 -2.43502e-18)
(0.538577 0.270112 1.90338e-18)
(0.576648 0.311331 -2.90086e-18)
(0.616542 0.350112 -5.17164e-19)
(0.656824 0.38605 6.19507e-18)
(0.696543 0.418895 -3.77818e-18)
(0.734998 0.44842 1.47799e-18)
(0.771675 0.474423 -2.63806e-19)
(0.806217 0.496751 -1.74788e-19)
(0.838408 0.515321 6.21936e-19)
(0.868152 0.530129 -7.57006e-18)
(0.895448 0.541248 4.80631e-19)
(0.920369 0.548818 -4.81538e-19)
(0.943038 0.553042 6.22251e-18)
(0.96361 0.554169 -1.3267e-17)
(0.982188 0.552565 7.25602e-18)
(0.999014 0.548231 4.41277e-19)
(1.01374 0.541849 -2.11288e-19)
(1.02561 0.534918 -6.61914e-19)
(1.40815 0.724385 5.83312e-18)
(1.31166 0.454819 1.17e-18)
(1.09566 0.23989 -2.17949e-17)
(0.864351 0.10937 -4.9061e-18)
(0.678295 0.0592409 4.46668e-18)
(0.556396 0.0658281 3.54016e-18)
(0.49246 0.102822 -3.9759e-19)
(0.47115 0.151904 -8.52243e-21)
(0.477096 0.203797 5.08746e-18)
(0.499289 0.253786 -6.60272e-19)
(0.530833 0.299863 1.28918e-19)
(0.567383 0.341794 -3.07379e-18)
(0.606185 0.379859 2.7786e-20)
(0.645427 0.414343 -4.15488e-18)
(0.683897 0.445362 3.66718e-18)
(0.720809 0.472884 2.43187e-18)
(0.755681 0.496805 5.62964e-19)
(0.78826 0.51702 -9.8187e-21)
(0.81845 0.533475 -3.42779e-18)
(0.846265 0.54618 5.27114e-18)
(0.871793 0.555219 8.3362e-18)
(0.895175 0.560747 -1.82046e-17)
(0.916592 0.562982 1.02273e-17)
(0.936256 0.562194 -4.27919e-18)
(0.954318 0.558794 -6.63519e-18)
(0.971104 0.552803 6.86525e-18)
(0.149593 0.149438 -3.10385e-19)
(0.0653658 0.122199 1.47095e-18)
(0.0643874 0.1084 1.29674e-18)
(0.113367 0.119965 -1.42981e-18)
(0.186454 0.151725 -1.06262e-18)
(0.266719 0.193137 1.89326e-18)
(0.343932 0.237193 -2.5954e-18)
(0.413474 0.28145 5.09978e-18)
(0.475014 0.324356 -9.79824e-18)
(0.529745 0.364843 7.10077e-18)
(0.578891 0.402355 -2.58212e-18)
(0.623404 0.436515 2.50977e-18)
(0.663957 0.467032 -1.95331e-18)
(0.701023 0.493686 -1.73463e-18)
(0.73496 0.516344 2.02099e-18)
(0.766055 0.53496 -6.61442e-18)
(0.794557 0.549571 1.54784e-18)
(0.820689 0.560283 6.47312e-18)
(0.844663 0.567258 -6.16072e-18)
(0.866693 0.570709 8.96907e-18)
(0.887017 0.570895 -1.0155e-17)
(0.905905 0.568116 -7.85702e-18)
(-0.0274716 0.149397 8.10239e-18)
(0.0107949 0.109127 -7.07432e-18)
(0.108244 0.124925 1.29379e-17)
(0.217153 0.169429 -5.83068e-18)
(0.315541 0.224523 -5.98613e-18)
(0.398141 0.279942 3.38023e-18)
(0.46612 0.331545 7.05059e-19)
(0.522427 0.378176 -3.32108e-18)
(0.570152 0.419568 4.92073e-18)
(0.611713 0.45575 -3.81804e-18)
(0.648767 0.486835 -1.32183e-18)
(0.682365 0.512977 3.86904e-18)
(0.713154 0.534367 5.92803e-18)
(0.741533 0.551229 -3.80368e-18)
(0.767756 0.563812 -3.00796e-18)
(0.792004 0.572375 -2.42278e-18)
(0.814434 0.577179 3.849e-18)
(0.835207 0.578493 -1.64766e-18)
(0.319988 0.238442 1.43213e-17)
(0.361558 0.258574 -1.74822e-19)
(0.411002 0.298679 -6.29386e-18)
(0.457964 0.343377 4.12266e-18)
(0.499592 0.386395 4.27515e-19)
(0.536495 0.425518 1.09042e-18)
(0.570067 0.460147 -6.12652e-18)
(0.601421 0.490233 2.63784e-18)
(0.631185 0.515871 3.74027e-18)
(0.659608 0.537188 -1.02221e-17)
(0.686726 0.554335 4.26004e-18)
(0.712486 0.567479 -4.19353e-18)
(0.736816 0.576809 8.29688e-18)
(0.759663 0.58252 1.75509e-18)
(0.443341 0.418768 6.50905e-18)
(0.474655 0.45138 -5.07594e-18)
(0.505629 0.479955 -3.50641e-18)
(0.536042 0.504686 8.5843e-18)
(0.565891 0.525994 -7.7822e-18)
(0.595042 0.544133 3.25845e-18)
(0.623293 0.559212 1.91108e-18)
(0.650412 0.571232 -5.09593e-18)
(0.676212 0.58019 3.7807e-18)
(0.700568 0.586095 1.37193e-18)
(0.437285 0.492217 -5.45715e-18)
(0.475984 0.517562 5.73714e-18)
(0.512317 0.537982 -4.31964e-18)
(0.546387 0.554463 3.411e-18)
(0.578246 0.567526 -5.91153e-18)
(0.607934 0.577458 1.71052e-18)
(0.463204 0.52945 1.98901e-18)
(0.501298 0.548419 -4.15669e-18)
(1.04148 0.520867 1.62507e-18)
(1.0657 0.517864 -7.1856e-19)
(1.08873 0.512988 -5.04865e-18)
(1.11041 0.506375 2.24153e-18)
(1.13062 0.498134 1.65057e-19)
(1.06596 0.488395 -5.56135e-19)
(1.08751 0.486184 -3.35882e-19)
)
;

boundaryField
{
    inlet
    {
        type            uniformFixedValue;
        uniformValue    constant (1 0 0);
        value           nonuniform 0();
    }
    outlet
    {
        type            pressureInletOutletVelocity;
        value           nonuniform 0();
    }
    cylinder
    {
        type            fixedValue;
        value           uniform (0 0 0);
    }
    top
    {
        type            symmetryPlane;
    }
    bottom
    {
        type            symmetryPlane;
    }
    defaultFaces
    {
        type            empty;
    }
    procBoundary25to19
    {
        type            processor;
        value           nonuniform List<vector> 
38
(
(-2.62613 -1.27627 -3.639e-18)
(-2.62613 -1.27627 -3.639e-18)
(-0.333025 1.84756 2.08639e-17)
(-0.333025 1.84756 2.08639e-17)
(-0.279055 0.946323 -3.38008e-17)
(-1.93478 -0.921766 -3.19216e-17)
(-1.93478 -0.921766 -3.19216e-17)
(-8.08112 -9.4153 -7.52221e-18)
(-7.08192 -9.94805 -1.03989e-17)
(-7.08192 -9.94805 -1.03989e-17)
(-3.87784 -2.06081 3.34173e-17)
(-0.146422 1.11455 8.27878e-19)
(-0.146422 1.11455 8.27878e-19)
(3.20001 8.11551 -2.38892e-18)
(4.10802 7.56275 1.73501e-18)
(4.10802 7.56275 1.73501e-18)
(0.850343 1.17326 5.6877e-18)
(1.27273 0.986295 -1.50711e-18)
(1.27273 0.986295 -1.50711e-18)
(0.667277 0.0577113 2.45594e-19)
(0.346013 0.153033 -4.16288e-18)
(0.346013 0.153033 -4.16288e-18)
(0.407965 0.537166 -3.17599e-17)
(0.0698224 0.281569 2.03826e-17)
(0.0698224 0.281569 2.03826e-17)
(0.400888 0.394927 -9.27488e-18)
(0.313219 0.268043 2.36404e-17)
(0.313219 0.268043 2.36404e-17)
(0.394357 0.336899 -8.59516e-19)
(0.391235 0.35111 3.85214e-18)
(0.413366 0.383452 -6.24013e-18)
(0.413366 0.383452 -6.24013e-18)
(0.352626 0.419567 -1.2504e-19)
(0.396123 0.460273 -1.34891e-19)
(0.396123 0.460273 -1.34891e-19)
(0.370813 0.473972 2.9175e-19)
(0.420259 0.505088 -6.79865e-18)
(0.420259 0.505088 -6.79865e-18)
)
;
    }
    procBoundary25to20
    {
        type            processor;
        value           nonuniform List<vector> 
20
(
(0.786608 0.0744239 5.10402e-19)
(0.574918 0.0694455 -2.11182e-19)
(-1.78728 -0.604142 2.88063e-17)
(-3.27962 -2.49625 -1.25551e-17)
(-4.1448 -4.07283 -1.56075e-17)
(-3.88944 -4.87911 5.86406e-18)
(-2.68604 -4.77946 -2.05286e-18)
(-1.19043 -4.01666 8.8498e-18)
(0.0166017 -2.9804 -1.51675e-17)
(0.72258 -1.98813 2.18243e-17)
(0.993155 -1.20539 -1.57946e-17)
(0.985585 -0.666588 -9.02321e-19)
(0.839352 -0.329057 8.88172e-18)
(0.65257 -0.127168 -4.03535e-18)
(0.65257 -0.127168 -4.03535e-18)
(2.4289 0.54561 -4.72012e-19)
(2.16642 0.0467518 2.88919e-18)
(-2.09195 -2.03651 -7.18937e-18)
(-6.29301 -4.44541 -4.17236e-18)
(-6.29301 -4.44541 -4.17236e-18)
)
;
    }
    procBoundary25to24
    {
        type            processor;
        value           nonuniform List<vector> 
24
(
(0.986231 0.544923 2.72325e-18)
(0.99873 0.537038 -4.66104e-19)
(0.923578 0.56283 -1.6492e-18)
(0.986231 0.544923 2.72325e-18)
(0.940512 0.555086 -4.69862e-18)
(0.854527 0.576598 2.80353e-18)
(0.923578 0.56283 -1.6492e-18)
(0.872681 0.571795 -1.19521e-17)
(0.781012 0.58481 1.9852e-18)
(0.854527 0.576598 2.80353e-18)
(0.800902 0.58388 6.87267e-18)
(0.781012 0.58481 1.9852e-18)
(0.723401 0.588992 2.92514e-18)
(0.635549 0.58439 -4.13204e-19)
(0.723401 0.588992 2.92514e-18)
(0.66119 0.588416 1.19916e-18)
(0.535597 0.562809 -9.04578e-18)
(0.635549 0.58439 -4.13204e-19)
(0.566858 0.573189 1.1094e-17)
(0.438449 0.521847 -3.63954e-18)
(0.535597 0.562809 -9.04578e-18)
(0.471398 0.540751 -7.07146e-19)
(1.01631 0.521821 4.43126e-19)
(1.04395 0.489179 -4.33251e-18)
)
;
    }
    procBoundary25to26
    {
        type            processor;
        value           nonuniform List<vector> 
23
(
(1.04337 0.358531 -1.72195e-18)
(1.08064 0.369293 8.69316e-19)
(1.11425 0.378653 -1.57515e-18)
(1.14403 0.386319 2.15305e-18)
(1.16987 0.392339 -1.9143e-18)
(0.60566 0.242827 -1.26509e-18)
(0.661039 0.260108 -2.50805e-19)
(0.715804 0.277261 -2.9898e-18)
(0.769591 0.294181 6.48318e-19)
(0.821974 0.31074 1.0524e-18)
(0.872509 0.326787 -2.09182e-20)
(0.920764 0.342139 1.53276e-18)
(0.966346 0.356593 6.39713e-19)
(1.00891 0.369937 -2.42821e-18)
(1.00891 0.369937 -2.42821e-18)
(0.452169 0.0946382 7.86952e-20)
(0.400048 0.128496 4.40932e-19)
(0.396047 0.160019 -1.04564e-19)
(0.420719 0.187006 -1.00795e-18)
(0.460863 0.209916 2.30528e-18)
(0.508922 0.229817 -2.88435e-18)
(0.56093 0.247888 -2.31264e-20)
(0.56093 0.247888 -2.31264e-20)
)
;
    }
    procBoundary25to31
    {
        type            processor;
        value           nonuniform List<vector> 
14
(
(1.18832 0.417065 -5.06584e-19)
(1.18197 0.435864 5.04935e-18)
(1.18197 0.435864 5.04935e-18)
(1.19422 0.450044 9.30374e-19)
(1.18114 0.464262 -2.23526e-18)
(1.16608 0.477107 2.43809e-19)
(1.14924 0.488359 4.72569e-20)
(1.10841 0.482577 -3.45412e-18)
(1.1285 0.477624 -6.73871e-19)
(1.14924 0.488359 4.72569e-20)
(1.14762 0.47137 -2.79735e-18)
(1.08428 0.459021 2.66959e-18)
(1.10841 0.482577 -3.45412e-18)
(1.10347 0.456938 5.08773e-19)
)
;
    }
}


// ************************************************************************* //
