/*--------------------------------*- C++ -*----------------------------------*\
  =========                 |
  \\      /  F ield         | OpenFOAM: The Open Source CFD Toolbox
   \\    /   O peration     | Website:  https://openfoam.org
    \\  /    A nd           | Version:  7
     \\/     M anipulation  |
\*---------------------------------------------------------------------------*/
FoamFile
{
    version     2.0;
    format      ascii;
    class       volScalarField;
    location    "1";
    object      p;
}
// * * * * * * * * * * * * * * * * * * * * * * * * * * * * * * * * * * * * * //

dimensions      [0 2 -2 0 0 0 0];

internalField   nonuniform List<scalar> 
344
(
5.21149
5.19912
5.18606
5.17242
5.15833
5.14388
5.12917
5.11428
5.09928
5.08423
5.06919
5.05421
5.03933
5.02456
5.00995
4.99551
4.98126
4.96721
4.95336
4.93973
4.9263
4.9131
4.9001
4.88732
4.87474
4.86236
4.85018
4.83819
4.82638
4.81476
4.8033
4.79202
4.78089
4.76992
4.75911
4.74843
4.7379
4.72751
4.71725
4.70711
4.6971
4.68722
4.67745
4.66779
4.65825
4.64882
4.63949
4.63027
4.62115
4.61213
4.6032
4.59437
4.58562
4.57697
4.5684
4.55991
4.5515
4.54316
5.2758
5.2751
5.27265
5.26839
5.26251
5.25516
5.24643
5.23647
5.22542
5.21343
5.20063
5.18717
5.17316
5.15873
5.14397
5.12899
5.11387
5.09867
5.08346
5.06828
5.05319
5.03822
5.0234
5.00874
4.99427
4.98001
4.96595
4.95211
4.93849
4.92509
4.91191
4.89894
4.88619
4.87365
4.86131
4.84916
4.83721
4.82544
4.81385
4.80243
4.79118
4.78009
4.76916
4.75837
4.74773
4.73723
4.72686
4.71662
4.70651
4.69653
4.68666
4.67691
4.66728
4.65776
4.64835
4.63904
4.62983
4.62073
4.61173
4.60282
4.59401
4.58528
4.57664
4.56809
4.55962
4.55123
4.54291
5.28149
5.28074
5.27812
5.27357
5.26731
5.2595
5.25027
5.23978
5.22818
5.21565
5.20234
5.18839
5.17393
5.1591
5.14399
5.1287
5.1133
5.09787
5.08247
5.06715
5.05194
5.03687
5.02198
5.00728
4.99278
4.97851
4.96445
4.95062
4.93703
4.92365
4.91051
4.89758
4.88487
4.87237
4.86008
4.84798
4.83607
4.82435
4.8128
4.80143
4.79022
4.77917
4.76827
4.75752
4.74691
4.73644
4.72611
4.7159
4.70582
4.69586
4.68603
4.6763
4.66669
4.6572
4.6478
4.63852
4.62934
4.62026
4.61127
4.60239
4.59359
4.58489
4.57628
4.56775
4.5593
4.55093
4.54263
5.28823
5.28742
5.28459
5.27968
5.27294
5.26456
5.2547
5.24355
5.2313
5.21812
5.20419
5.18967
5.1747
5.1594
5.14388
5.12823
5.11253
5.09685
5.08124
5.06575
5.05041
5.03525
5.02029
5.00555
4.99103
4.97675
4.9627
4.9489
4.93533
4.922
4.90889
4.89602
4.88336
4.87091
4.85867
4.84663
4.83477
4.8231
4.81161
4.80029
4.78913
4.77812
4.76727
4.75657
4.746
4.73557
4.72527
4.7151
4.70505
4.69513
4.68532
4.67562
4.66604
4.65657
4.64721
4.63795
4.62879
4.61973
4.61077
4.60191
4.59314
4.58446
4.57587
4.56737
4.55895
4.5506
4.54233
5.29615
5.29527
5.29216
5.28679
5.27945
5.27036
5.25974
5.2478
5.23474
5.2208
5.20615
5.19096
5.17539
5.15956
5.14358
5.12753
5.1115
5.09555
5.07972
5.06405
5.04858
5.03332
5.0183
5.00352
4.98899
4.97471
4.96069
4.94692
4.93339
4.92011
4.90707
4.89425
4.88165
4.86927
4.8571
4.84512
4.83333
4.82173
4.81029
4.79903
4.78793
4.77698
4.76618
4.75552
4.745
4.73461
4.72435
4.71422
4.70421
4.69432
4.68455
4.67489
4.66534
4.65589
4.64656
4.63733
4.6282
4.61917
4.61023
4.6014
4.59266
4.58401
4.57544
4.56697
4.55857
4.55026
4.54201
5.3054
5.30442
5.30097
5.29502
5.28692
5.27696
5.26539
5.25248
5.23848
5.22363
5.20814
5.19219
5.17593
5.15951
5.14301
5.12654
5.11015
5.09391
)
;

boundaryField
{
    inlet
    {
        type            zeroGradient;
    }
    outlet
    {
        type            fixedValue;
        value           nonuniform 0();
    }
    wall
    {
        type            zeroGradient;
    }
    wedge1
    {
        type            wedge;
    }
    wedge2
    {
        type            wedge;
    }
    axis
    {
        type            empty;
    }
    procBoundary6to0
    {
        type            processor;
        value           nonuniform List<scalar> 
68
(
5.20985
5.19782
5.18509
5.17176
5.15795
5.14375
5.12927
5.11457
5.09974
5.08483
5.06991
5.05502
5.04021
5.0255
5.01093
4.99652
4.98228
4.96824
4.95439
4.94074
4.9273
4.91408
4.90106
4.88825
4.87564
4.86323
4.85102
4.839
4.82717
4.81551
4.80403
4.79271
4.78156
4.77057
4.75972
4.74903
4.73847
4.72806
4.71777
4.70762
4.69759
4.68768
4.6779
4.66823
4.65867
4.64922
4.63988
4.63064
4.6215
4.61246
4.60352
4.59467
4.58592
4.57725
4.56866
4.56015
4.55173
4.54337
5.27107
5.27041
5.26809
5.26406
5.25849
5.2515
5.24318
5.23365
5.22304
5.22304
)
;
    }
    procBoundary6to1
    {
        type            processor;
        value           uniform 4.5349;
    }
    procBoundary6to7
    {
        type            processor;
        value           nonuniform List<scalar> 4(4.53467 4.53441 4.53413 4.53384);
    }
    procBoundary6to12
    {
        type            processor;
        value           nonuniform List<scalar> 
68
(
5.07785
5.06201
5.04641
5.03107
5.01599
5.00118
4.98665
4.9724
4.95841
4.94469
4.93122
4.91801
4.90503
4.89229
4.87978
4.86747
4.85537
4.84347
4.83176
4.82023
4.80887
4.79767
4.78663
4.77574
4.765
4.7544
4.74393
4.73359
4.72338
4.71329
4.70332
4.69347
4.68373
4.67411
4.66459
4.65518
4.64587
4.63667
4.62757
4.61857
4.60967
4.60087
4.59215
4.58353
4.575
4.56655
4.55819
4.5499
4.54169
5.31618
5.31508
5.31118
5.30448
5.29542
5.28437
5.27165
5.25757
5.24244
5.22652
5.21006
5.19324
5.17623
5.15914
5.1421
5.12516
5.1084
5.07785
5.09186
)
;
    }
}


// ************************************************************************* //
