/*--------------------------------*- C++ -*----------------------------------*\
  =========                 |
  \\      /  F ield         | OpenFOAM: The Open Source CFD Toolbox
   \\    /   O peration     | Website:  https://openfoam.org
    \\  /    A nd           | Version:  7
     \\/     M anipulation  |
\*---------------------------------------------------------------------------*/
FoamFile
{
    version     2.0;
    format      ascii;
    class       volScalarField;
    location    "3.4";
    object      p;
}
// * * * * * * * * * * * * * * * * * * * * * * * * * * * * * * * * * * * * * //

dimensions      [0 2 -2 0 0 0 0];

internalField   nonuniform List<scalar> 
30686
(
0.413418
0.413361
0.413248
0.413079
0.412853
0.412571
0.412235
0.411845
0.411403
0.410912
0.410373
0.409788
0.409159
0.408489
0.407779
0.407033
0.406252
0.405439
0.404597
0.403728
0.402834
0.401917
0.400981
0.400027
0.399057
0.398074
0.39708
0.396075
0.395063
0.394044
0.393021
0.391994
0.390966
0.389937
0.388908
0.387881
0.386856
0.385835
0.384817
0.383805
0.382797
0.381796
0.380801
0.379813
0.378832
0.377858
0.376892
0.375934
0.374984
0.374042
0.373108
0.372182
0.371265
0.370357
0.369457
0.368565
0.367681
0.366805
0.365938
0.365079
0.364228
0.363384
0.362549
0.361721
0.3609
0.360087
0.359281
0.358483
0.357691
0.356907
0.356129
0.355358
0.354593
0.353835
0.353083
0.352337
0.351597
0.350863
0.350135
0.349413
0.348696
0.347984
0.347278
0.346577
0.345882
0.345191
0.344505
0.343824
0.343148
0.342476
0.341809
0.341147
0.340489
0.339835
0.339185
0.33854
0.337899
0.337261
0.336628
0.335998
0.335373
0.334751
0.334133
0.333518
0.332907
0.3323
0.331696
0.331095
0.330498
0.329904
0.329313
0.328726
0.328142
0.327561
0.326983
0.326408
0.325837
0.325268
0.324702
0.324139
0.323579
0.323022
0.322468
0.321917
0.321368
0.320823
0.32028
0.319739
0.319202
0.318667
0.318135
0.317605
0.317078
0.316554
0.316032
0.315513
0.314996
0.314482
0.313971
0.313462
0.312955
0.312451
0.31195
0.31145
0.310954
0.310459
0.309968
0.309478
0.308991
0.308506
0.308024
0.307544
0.307066
0.306591
0.306117
0.305647
0.305178
0.304712
0.304247
0.303785
0.303326
0.302868
0.302412
0.301959
0.301507
0.301058
0.300611
0.300165
0.299722
0.29928
0.298841
0.298403
0.297966
0.297532
0.297099
0.296668
0.296238
0.29581
0.295383
0.294958
0.294533
0.29411
0.293688
0.293267
0.292846
0.292427
0.292008
0.291589
0.291171
0.290753
0.290335
0.289917
0.289499
0.28908
0.288661
0.288241
0.287819
0.287397
0.286973
0.286547
0.286119
0.285688
0.285255
0.284819
0.284379
0.283936
0.283489
0.283037
0.28258
0.282118
0.281649
0.281175
0.280693
0.280204
0.279706
0.2792
0.278684
0.278157
0.27762
0.277071
0.276508
0.275932
0.275342
0.274735
0.274112
0.27347
0.272809
0.272127
0.271423
0.270696
0.269943
0.269164
0.268355
0.267516
0.266645
0.265738
0.264795
0.263812
0.262788
0.261718
0.260602
0.259435
0.258214
0.256936
0.255598
0.254196
0.252725
0.251182
0.249563
0.247862
0.246075
0.244197
0.242222
0.240145
0.237959
0.23566
0.233239
0.230692
0.228009
0.225185
0.222211
0.21908
0.215784
0.212313
0.208661
0.204817
0.200772
0.196518
0.192045
0.187343
0.182403
0.177216
0.171772
0.166061
0.160075
0.153805
0.147242
0.140379
0.133209
0.125724
0.117919
0.10979
0.101332
0.0925442
0.0834249
0.0739749
0.0641963
0.0540933
0.0436718
0.0329395
0.0219064
0.0105845
-0.00101203
-0.0128671
-0.0249624
-0.0372776
-0.0497906
-0.0624775
-0.0753126
-0.0882692
0.413443
0.413386
0.413273
0.413104
0.412877
0.412595
0.412258
0.411867
0.411425
0.410933
0.410393
0.409807
0.409177
0.408505
0.407795
0.407047
0.406265
0.405452
0.404608
0.403738
0.402843
0.401926
0.400988
0.400033
0.399063
0.398079
0.397083
0.396078
0.395065
0.394046
0.393022
0.391995
0.390966
0.389936
0.388907
0.387879
0.386854
0.385832
0.384815
0.383802
0.382794
0.381793
0.380797
0.379809
0.378828
0.377854
0.376888
0.37593
0.374979
0.374037
0.373104
0.372178
0.371261
0.370353
0.369452
0.36856
0.367677
0.366801
0.365934
0.365075
0.364224
0.36338
0.362545
0.361717
0.360897
0.360084
0.359278
0.358479
0.357688
0.356903
0.356126
0.355354
0.35459
0.353832
0.35308
0.352334
0.351594
0.35086
0.350132
0.34941
0.348693
0.347982
0.347276
0.346575
0.345879
0.345188
0.344503
0.343822
0.343146
0.342474
0.341807
0.341145
0.340487
0.339833
0.339183
0.338538
0.337897
0.337259
0.336626
0.335997
0.335371
0.334749
0.334131
0.333516
0.332905
0.332298
0.331694
0.331093
0.330496
0.329902
0.329312
0.328724
0.32814
0.327559
0.326982
0.326407
0.325835
0.325266
0.324701
0.324138
0.323578
0.323021
0.322467
0.321916
0.321367
0.320821
0.320278
0.319738
0.319201
0.318666
0.318133
0.317604
0.317077
0.316553
0.316031
0.315512
0.314995
0.314481
0.31397
0.313461
0.312954
0.31245
0.311948
0.311449
0.310953
0.310458
0.309966
0.309477
0.30899
0.308505
0.308023
0.307543
0.307065
0.306589
0.306116
0.305645
0.305177
0.30471
0.304246
0.303784
0.303324
0.302867
0.302411
0.301958
0.301506
0.301057
0.30061
0.300164
0.299721
0.299279
0.29884
0.298402
0.297966
0.297531
0.297098
0.296667
0.296238
0.295809
0.295383
0.294957
0.294533
0.29411
0.293688
0.293266
0.292846
0.292427
0.292008
0.291589
0.291171
0.290753
0.290335
0.289917
0.289499
0.289081
0.288661
0.288241
0.28782
0.287397
0.286973
0.286548
0.28612
0.285689
0.285256
0.28482
0.284381
0.283938
0.283491
0.283039
0.282582
0.28212
0.281652
0.281178
0.280696
0.280207
0.27971
0.279204
0.278688
0.278162
0.277625
0.277076
0.276514
0.275939
0.275349
0.274742
0.274119
0.273478
0.272818
0.272137
0.271434
0.270707
0.269955
0.269176
0.268368
0.26753
0.266659
0.265754
0.264812
0.26383
0.262807
0.261739
0.260623
0.259457
0.258238
0.256962
0.255625
0.254225
0.252756
0.251215
0.249597
0.247898
0.246113
0.244237
0.242265
0.24019
0.238007
0.23571
0.233292
0.230747
0.228067
0.225246
0.222275
0.219148
0.215854
0.212387
0.208738
0.204897
0.200856
0.196605
0.192135
0.187436
0.1825
0.177315
0.171874
0.166166
0.160183
0.153915
0.147354
0.140493
0.133323
0.125839
0.118034
0.109904
0.101446
0.0926563
0.0835347
0.0740815
0.0642991
0.0541914
0.0437644
0.0330258
0.0219856
0.0106558
-0.000949459
-0.012814
-0.0249194
-0.0372454
-0.0497697
-0.0624683
-0.0753156
-0.0882846
0.413498
0.413441
0.413328
0.413157
0.41293
0.412647
0.412308
0.411916
0.411472
0.410978
0.410436
0.409848
0.409216
0.408542
0.407829
0.407079
0.406295
0.405479
0.404633
0.40376
0.402863
0.401943
0.401004
0.400047
0.399074
0.398088
0.397091
0.396084
0.39507
0.394049
0.393023
0.391995
0.390965
0.389934
0.388904
0.387875
0.386849
0.385827
0.384809
0.383795
0.382787
0.381785
0.38079
0.379801
0.378819
0.377845
0.376879
0.375921
0.37497
0.374028
0.373095
0.372169
0.371252
0.370344
0.369443
0.368552
0.367668
0.366793
0.365925
0.365066
0.364215
0.363372
0.362537
0.361709
0.360889
0.360076
0.35927
0.358472
0.357681
0.356896
0.356119
0.355348
0.354583
0.353825
0.353073
0.352328
0.351588
0.350854
0.350126
0.349404
0.348687
0.347976
0.34727
0.346569
0.345874
0.345183
0.344498
0.343817
0.343141
0.342469
0.341802
0.34114
0.340482
0.339828
0.339179
0.338534
0.337892
0.337255
0.336622
0.335992
0.335367
0.334745
0.334127
0.333512
0.332902
0.332294
0.33169
0.33109
0.330493
0.329899
0.329308
0.328721
0.328137
0.327556
0.326978
0.326403
0.325832
0.325263
0.324697
0.324135
0.323575
0.323018
0.322464
0.321912
0.321364
0.320818
0.320275
0.319735
0.319198
0.318663
0.318131
0.317601
0.317074
0.31655
0.316028
0.315509
0.314992
0.314478
0.313967
0.313458
0.312951
0.312447
0.311946
0.311447
0.31095
0.310456
0.309964
0.309474
0.308987
0.308503
0.30802
0.30754
0.307062
0.306587
0.306114
0.305643
0.305174
0.304708
0.304244
0.303782
0.303322
0.302865
0.302409
0.301956
0.301504
0.301055
0.300608
0.300162
0.299719
0.299277
0.298838
0.2984
0.297964
0.297529
0.297097
0.296666
0.296236
0.295808
0.295381
0.294956
0.294531
0.294108
0.293686
0.293265
0.292845
0.292426
0.292007
0.291589
0.291171
0.290753
0.290335
0.289918
0.2895
0.289081
0.288662
0.288242
0.287821
0.287399
0.286975
0.286549
0.286122
0.285692
0.285259
0.284823
0.284384
0.283942
0.283495
0.283044
0.282587
0.282126
0.281658
0.281184
0.280703
0.280215
0.279718
0.279213
0.278698
0.278173
0.277636
0.277088
0.276527
0.275953
0.275363
0.274758
0.274136
0.273497
0.272837
0.272158
0.271456
0.27073
0.26998
0.269203
0.268397
0.267561
0.266692
0.265789
0.264849
0.263869
0.262848
0.261783
0.26067
0.259507
0.258291
0.257018
0.255685
0.254288
0.252823
0.251286
0.249672
0.247978
0.246197
0.244326
0.242358
0.240289
0.238111
0.23582
0.233408
0.230869
0.228196
0.225381
0.222417
0.219296
0.216009
0.212549
0.208907
0.205073
0.20104
0.196796
0.192333
0.187642
0.182712
0.177534
0.172099
0.166397
0.160419
0.154156
0.1476
0.140742
0.133575
0.126092
0.118288
0.110157
0.101697
0.0929034
0.0837766
0.0743166
0.0645258
0.0544078
0.0439687
0.0332163
0.0221604
0.0108131
-0.000811389
-0.0126968
-0.0248246
-0.0371744
-0.0497237
-0.0624483
-0.0753223
-0.0883186
0.413582
0.413525
0.413411
0.413239
0.413011
0.412726
0.412385
0.411991
0.411544
0.411047
0.410502
0.409911
0.409275
0.408598
0.407881
0.407128
0.40634
0.40552
0.404671
0.403794
0.402893
0.40197
0.401028
0.400067
0.399092
0.398103
0.397103
0.396093
0.395076
0.394053
0.393026
0.391995
0.390963
0.389931
0.388899
0.38787
0.386842
0.385819
0.3848
0.383785
0.382777
0.381774
0.380778
0.379789
0.378807
0.377832
0.376866
0.375907
0.374957
0.374015
0.373081
0.372155
0.371238
0.37033
0.36943
0.368538
0.367654
0.366779
0.365912
0.365053
0.364202
0.363359
0.362524
0.361697
0.360877
0.360064
0.359259
0.35846
0.357669
0.356885
0.356108
0.355337
0.354573
0.353815
0.353063
0.352318
0.351578
0.350845
0.350117
0.349395
0.348678
0.347967
0.347261
0.346561
0.345865
0.345175
0.34449
0.343809
0.343133
0.342462
0.341795
0.341133
0.340475
0.339821
0.339172
0.338527
0.337886
0.337249
0.336615
0.335986
0.335361
0.334739
0.334121
0.333507
0.332896
0.332288
0.331685
0.331084
0.330487
0.329893
0.329303
0.328716
0.328132
0.327551
0.326973
0.326398
0.325827
0.325258
0.324693
0.32413
0.32357
0.323013
0.322459
0.321908
0.321359
0.320814
0.320271
0.319731
0.319193
0.318658
0.318126
0.317597
0.31707
0.316546
0.316024
0.315505
0.314988
0.314474
0.313963
0.313454
0.312947
0.312443
0.311942
0.311443
0.310946
0.310452
0.30996
0.309471
0.308983
0.308499
0.308016
0.307536
0.307059
0.306583
0.30611
0.305639
0.305171
0.304705
0.30424
0.303779
0.303319
0.302861
0.302406
0.301952
0.301501
0.301052
0.300605
0.300159
0.299716
0.299274
0.298835
0.298397
0.297961
0.297527
0.297094
0.296663
0.296234
0.295806
0.295379
0.294954
0.29453
0.294107
0.293685
0.293264
0.292844
0.292425
0.292006
0.291588
0.29117
0.290753
0.290335
0.289918
0.2895
0.289082
0.288663
0.288243
0.287823
0.287401
0.286977
0.286552
0.286125
0.285695
0.285263
0.284828
0.28439
0.283947
0.283501
0.283051
0.282595
0.282134
0.281667
0.281194
0.280714
0.280227
0.279731
0.279226
0.278713
0.278188
0.277653
0.277106
0.276547
0.275974
0.275386
0.274782
0.274162
0.273524
0.272867
0.272189
0.271489
0.270766
0.270018
0.269244
0.26844
0.267607
0.266741
0.265841
0.264904
0.263929
0.262911
0.26185
0.260741
0.259583
0.258371
0.257103
0.255775
0.254384
0.252924
0.251393
0.249786
0.248098
0.246325
0.244461
0.242501
0.240439
0.23827
0.235987
0.233584
0.231054
0.22839
0.225585
0.222631
0.219521
0.216245
0.212796
0.209164
0.205342
0.201319
0.197086
0.192635
0.187954
0.183035
0.177868
0.172442
0.166749
0.16078
0.154524
0.147974
0.141121
0.133958
0.126478
0.118674
0.110543
0.102079
0.0932801
0.0841455
0.0746753
0.0648716
0.0547381
0.0442807
0.0335071
0.0224273
0.0110533
-0.000600493
-0.0125177
-0.0246798
-0.0370659
-0.0496533
-0.0624177
-0.0753327
-0.0883707
0.413695
0.413637
0.413522
0.413349
0.413119
0.412832
0.412488
0.412091
0.41164
0.41114
0.41059
0.409995
0.409355
0.408673
0.407951
0.407193
0.4064
0.405575
0.404721
0.40384
0.402934
0.402007
0.401059
0.400095
0.399115
0.398122
0.397119
0.396106
0.395085
0.394059
0.393029
0.391996
0.390962
0.389927
0.388893
0.387862
0.386833
0.385808
0.384787
0.383772
0.382762
0.381759
0.380762
0.379772
0.37879
0.377815
0.376848
0.375889
0.374938
0.373996
0.373062
0.372137
0.37122
0.370311
0.369411
0.36852
0.367636
0.366761
0.365895
0.365036
0.364185
0.363342
0.362507
0.36168
0.36086
0.360048
0.359243
0.358445
0.357654
0.35687
0.356093
0.355323
0.354559
0.353801
0.35305
0.352305
0.351565
0.350832
0.350105
0.349383
0.348666
0.347956
0.34725
0.34655
0.345854
0.345164
0.344479
0.343799
0.343123
0.342452
0.341785
0.341123
0.340465
0.339812
0.339163
0.338518
0.337877
0.33724
0.336607
0.335978
0.335352
0.334731
0.334113
0.333499
0.332888
0.332281
0.331677
0.331077
0.33048
0.329886
0.329296
0.328709
0.328125
0.327544
0.326966
0.326392
0.32582
0.325252
0.324686
0.324123
0.323564
0.323007
0.322453
0.321902
0.321353
0.320808
0.320265
0.319725
0.319187
0.318653
0.31812
0.317591
0.317064
0.31654
0.316018
0.315499
0.314983
0.314469
0.313957
0.313448
0.312942
0.312438
0.311936
0.311437
0.310941
0.310447
0.309955
0.309465
0.308978
0.308494
0.308011
0.307531
0.307054
0.306578
0.306105
0.305635
0.305166
0.3047
0.304236
0.303774
0.303314
0.302857
0.302401
0.301948
0.301497
0.301048
0.3006
0.300155
0.299712
0.299271
0.298831
0.298393
0.297957
0.297523
0.297091
0.29666
0.29623
0.295803
0.295376
0.294951
0.294527
0.294104
0.293683
0.293262
0.292842
0.292423
0.292005
0.291587
0.29117
0.290752
0.290335
0.289918
0.289501
0.289083
0.288664
0.288245
0.287825
0.287404
0.286981
0.286556
0.286129
0.2857
0.285269
0.284834
0.284397
0.283955
0.28351
0.28306
0.282605
0.282145
0.281679
0.281207
0.280728
0.280242
0.279748
0.279245
0.278732
0.278209
0.277676
0.277131
0.276573
0.276002
0.275416
0.274815
0.274197
0.273561
0.272906
0.272231
0.271534
0.270814
0.270069
0.269298
0.268499
0.267669
0.266807
0.265911
0.264979
0.264008
0.262996
0.26194
0.260837
0.259684
0.258479
0.257217
0.255896
0.254512
0.25306
0.251537
0.249938
0.248259
0.246495
0.244641
0.242691
0.24064
0.238482
0.23621
0.233819
0.231302
0.228651
0.225859
0.222919
0.219822
0.21656
0.213126
0.209509
0.205701
0.201693
0.197476
0.193039
0.188373
0.183468
0.178314
0.172902
0.167222
0.161263
0.155018
0.148477
0.141631
0.134473
0.126997
0.119194
0.111061
0.102593
0.093787
0.0846421
0.0751583
0.0653373
0.055183
0.044701
0.033899
0.0227871
0.0113773
-0.000316012
-0.0122762
-0.0244843
-0.0369194
-0.0495584
-0.0623763
-0.0753466
-0.088441
0.413837
0.413779
0.413663
0.413488
0.413255
0.412965
0.412618
0.412216
0.411762
0.411256
0.410701
0.4101
0.409454
0.408766
0.408039
0.407274
0.406475
0.405644
0.404784
0.403896
0.402985
0.402051
0.401099
0.400129
0.399144
0.398146
0.397138
0.396121
0.395096
0.394066
0.393033
0.391996
0.390959
0.389922
0.388886
0.387852
0.386821
0.385794
0.384772
0.383755
0.382744
0.381739
0.380742
0.379751
0.378768
0.377793
0.376825
0.375866
0.374915
0.373973
0.373039
0.372114
0.371197
0.370288
0.369388
0.368497
0.367614
0.366739
0.365872
0.365014
0.364164
0.363321
0.362487
0.36166
0.36084
0.360028
0.359223
0.358426
0.357635
0.356852
0.356075
0.355305
0.354541
0.353784
0.353033
0.352288
0.351549
0.350816
0.350089
0.349368
0.348652
0.347941
0.347236
0.346536
0.345841
0.345151
0.344466
0.343786
0.34311
0.342439
0.341773
0.341111
0.340454
0.3398
0.339151
0.338507
0.337866
0.337229
0.336596
0.335967
0.335342
0.334721
0.334103
0.333489
0.332878
0.332271
0.331668
0.331067
0.330471
0.329877
0.329287
0.3287
0.328116
0.327535
0.326958
0.326383
0.325812
0.325243
0.324678
0.324115
0.323556
0.322999
0.322445
0.321894
0.321346
0.3208
0.320257
0.319717
0.31918
0.318645
0.318113
0.317584
0.317057
0.316533
0.316011
0.315492
0.314976
0.314462
0.313951
0.313442
0.312935
0.312431
0.31193
0.311431
0.310934
0.31044
0.309948
0.309459
0.308972
0.308487
0.308005
0.307525
0.307048
0.306572
0.306099
0.305629
0.30516
0.304694
0.30423
0.303768
0.303308
0.302851
0.302396
0.301942
0.301491
0.301042
0.300595
0.30015
0.299707
0.299266
0.298826
0.298389
0.297953
0.297519
0.297086
0.296656
0.296226
0.295799
0.295372
0.294948
0.294524
0.294101
0.29368
0.29326
0.29284
0.292421
0.292003
0.291586
0.291169
0.290752
0.290335
0.289918
0.289501
0.289084
0.288666
0.288247
0.287828
0.287407
0.286985
0.286561
0.286135
0.285706
0.285276
0.284842
0.284405
0.283965
0.28352
0.283071
0.282618
0.282159
0.281695
0.281224
0.280746
0.280261
0.279769
0.279267
0.278756
0.278236
0.277704
0.277161
0.276606
0.276037
0.275453
0.274855
0.27424
0.273607
0.272955
0.272284
0.27159
0.270874
0.270133
0.269366
0.268571
0.267746
0.266889
0.265999
0.265072
0.264107
0.263101
0.262051
0.260956
0.25981
0.258613
0.25736
0.256047
0.254672
0.25323
0.251717
0.250129
0.248461
0.246708
0.244866
0.242929
0.240891
0.238747
0.23649
0.234114
0.231612
0.228977
0.226201
0.223278
0.220199
0.216955
0.213538
0.20994
0.206151
0.202162
0.197963
0.193545
0.188898
0.184011
0.178875
0.173479
0.167814
0.161871
0.155638
0.149108
0.142272
0.135121
0.127649
0.119848
0.111713
0.10324
0.0944258
0.0852682
0.0757673
0.0659249
0.0557446
0.0452317
0.0343942
0.0232418
0.0117868
4.37122e-05
-0.0119706
-0.0242369
-0.036734
-0.0494381
-0.0623239
-0.0753641
-0.0885299
0.414009
0.41395
0.413832
0.413656
0.41342
0.413126
0.412774
0.412368
0.411908
0.411396
0.410835
0.410227
0.409574
0.408879
0.408144
0.407372
0.406565
0.405727
0.404859
0.403964
0.403046
0.402105
0.401146
0.400169
0.399178
0.398175
0.397161
0.396138
0.395109
0.394074
0.393036
0.391996
0.390955
0.389915
0.388876
0.387839
0.386806
0.385777
0.384753
0.383734
0.382722
0.381716
0.380717
0.379726
0.378742
0.377766
0.376798
0.375839
0.374888
0.373945
0.373011
0.372085
0.371169
0.37026
0.369361
0.368469
0.367586
0.366712
0.365846
0.364988
0.364138
0.363296
0.362461
0.361635
0.360816
0.360004
0.3592
0.358403
0.357613
0.35683
0.356053
0.355284
0.35452
0.353763
0.353013
0.352268
0.35153
0.350797
0.350071
0.349349
0.348634
0.347923
0.347219
0.346519
0.345824
0.345135
0.34445
0.34377
0.343095
0.342424
0.341758
0.341097
0.340439
0.339786
0.339138
0.338493
0.337853
0.337216
0.336583
0.335955
0.33533
0.334708
0.334091
0.333477
0.332867
0.33226
0.331656
0.331056
0.33046
0.329866
0.329276
0.328689
0.328106
0.327525
0.326948
0.326373
0.325802
0.325234
0.324668
0.324106
0.323546
0.32299
0.322436
0.321885
0.321336
0.320791
0.320248
0.319708
0.319171
0.318636
0.318104
0.317575
0.317048
0.316524
0.316003
0.315484
0.314967
0.314454
0.313942
0.313433
0.312927
0.312423
0.311922
0.311423
0.310926
0.310432
0.30994
0.309451
0.308964
0.30848
0.307997
0.307518
0.30704
0.306565
0.306092
0.305621
0.305153
0.304687
0.304223
0.303761
0.303302
0.302844
0.302389
0.301936
0.301485
0.301036
0.300589
0.300144
0.299701
0.29926
0.29882
0.298383
0.297947
0.297513
0.297081
0.296651
0.296222
0.295794
0.295368
0.294943
0.29452
0.294098
0.293677
0.293257
0.292837
0.292419
0.292001
0.291584
0.291167
0.290751
0.290335
0.289919
0.289502
0.289085
0.288668
0.28825
0.287831
0.287411
0.286989
0.286566
0.286141
0.285714
0.285284
0.284851
0.284415
0.283976
0.283533
0.283085
0.282633
0.282176
0.281713
0.281243
0.280768
0.280285
0.279794
0.279294
0.278786
0.278267
0.277738
0.277197
0.276644
0.276078
0.275498
0.274903
0.274291
0.273662
0.273014
0.272346
0.271657
0.270945
0.270209
0.269447
0.268658
0.267838
0.266988
0.266103
0.265183
0.264226
0.263227
0.262185
0.261098
0.259961
0.258773
0.25753
0.256228
0.254863
0.253433
0.251932
0.250356
0.248702
0.246963
0.245135
0.243214
0.241192
0.239064
0.236824
0.234466
0.231983
0.229367
0.226612
0.223709
0.220651
0.217428
0.214034
0.210458
0.206692
0.202726
0.19855
0.194154
0.189529
0.184664
0.179549
0.174174
0.168528
0.162602
0.156386
0.14987
0.143045
0.135904
0.128437
0.120639
0.112502
0.104024
0.095199
0.0860263
0.0765053
0.0666373
0.0564256
0.0458757
0.0349952
0.023794
0.0122844
0.000480981
-0.011599
-0.023936
-0.0365083
-0.0492916
-0.06226
-0.0753853
-0.088638
0.414211
0.414151
0.414032
0.413852
0.413613
0.413315
0.412958
0.412546
0.412079
0.411561
0.410992
0.410376
0.409715
0.409011
0.408268
0.407486
0.406671
0.405823
0.404946
0.404043
0.403116
0.402167
0.4012
0.400216
0.399218
0.398207
0.397187
0.396158
0.395123
0.394083
0.39304
0.391996
0.39095
0.389906
0.388864
0.387824
0.386788
0.385756
0.38473
0.38371
0.382696
0.381688
0.380688
0.379696
0.378711
0.377734
0.376766
0.375806
0.374855
0.373912
0.372978
0.372053
0.371136
0.370228
0.369328
0.368437
0.367555
0.36668
0.365815
0.364957
0.364107
0.363266
0.362432
0.361606
0.360787
0.359976
0.359172
0.358376
0.357586
0.356804
0.356028
0.355259
0.354496
0.353739
0.352989
0.352245
0.351507
0.350775
0.350049
0.349328
0.348613
0.347903
0.347198
0.346499
0.345805
0.345116
0.344431
0.343752
0.343077
0.342407
0.341741
0.34108
0.340423
0.33977
0.339122
0.338477
0.337837
0.337201
0.336568
0.33594
0.335315
0.334694
0.334077
0.333463
0.332853
0.332246
0.331643
0.331043
0.330447
0.329854
0.329264
0.328677
0.328093
0.327513
0.326936
0.326361
0.32579
0.325222
0.324657
0.324094
0.323535
0.322979
0.322425
0.321874
0.321326
0.32078
0.320238
0.319698
0.319161
0.318626
0.318094
0.317565
0.317038
0.316514
0.315993
0.315474
0.314958
0.314444
0.313933
0.313424
0.312918
0.312414
0.311912
0.311414
0.310917
0.310423
0.309931
0.309442
0.308955
0.308471
0.307989
0.307509
0.307031
0.306556
0.306083
0.305613
0.305144
0.304678
0.304214
0.303753
0.303293
0.302836
0.302381
0.301928
0.301477
0.301028
0.300581
0.300136
0.299694
0.299253
0.298813
0.298376
0.297941
0.297507
0.297075
0.296645
0.296216
0.295789
0.295363
0.294939
0.294515
0.294094
0.293673
0.293253
0.292834
0.292416
0.291999
0.291582
0.291166
0.29075
0.290335
0.289919
0.289503
0.289087
0.28867
0.288253
0.287835
0.287415
0.286995
0.286573
0.286148
0.285722
0.285293
0.284862
0.284427
0.283989
0.283547
0.283101
0.282651
0.282195
0.281734
0.281266
0.280792
0.280311
0.279823
0.279325
0.278819
0.278303
0.277777
0.277239
0.27669
0.276127
0.27555
0.274958
0.27435
0.273725
0.273082
0.272419
0.271735
0.271028
0.270298
0.269542
0.268758
0.267945
0.267102
0.266225
0.265313
0.264363
0.263373
0.262341
0.261263
0.260137
0.25896
0.257728
0.256438
0.255086
0.253669
0.252182
0.250621
0.248982
0.24726
0.245449
0.243545
0.241542
0.239433
0.237214
0.234877
0.232415
0.229822
0.22709
0.224211
0.221178
0.217981
0.214612
0.211063
0.207323
0.203383
0.199234
0.194865
0.190267
0.185428
0.180338
0.174987
0.169365
0.16346
0.157263
0.150764
0.143953
0.136822
0.129363
0.121568
0.113431
0.104946
0.0961098
0.08692
0.0773756
0.0674779
0.0572298
0.0466366
0.0357058
0.0244472
0.0128732
0.000998706
-0.0111588
-0.0235794
-0.0362407
-0.0491178
-0.062184
-0.0754102
-0.0887659
0.414444
0.414383
0.414261
0.414079
0.413836
0.413532
0.41317
0.412751
0.412277
0.41175
0.411173
0.410547
0.409876
0.409163
0.408409
0.407617
0.406791
0.405933
0.405046
0.404133
0.403196
0.402238
0.401261
0.400269
0.399262
0.398244
0.397216
0.39618
0.395138
0.394093
0.393044
0.391994
0.390944
0.389896
0.388849
0.387806
0.386767
0.385733
0.384704
0.383681
0.382665
0.381656
0.380655
0.379661
0.378675
0.377698
0.376729
0.375769
0.374817
0.373874
0.37294
0.372015
0.371098
0.37019
0.369291
0.3684
0.367518
0.366644
0.365779
0.364922
0.364073
0.363232
0.362398
0.361573
0.360755
0.359944
0.359141
0.358345
0.357556
0.356774
0.355999
0.35523
0.354468
0.353712
0.352962
0.352219
0.351482
0.35075
0.350024
0.349304
0.348589
0.34788
0.347176
0.346477
0.345783
0.345094
0.34441
0.343731
0.343057
0.342387
0.341721
0.34106
0.340404
0.339751
0.339103
0.338459
0.337819
0.337183
0.336551
0.335923
0.335299
0.334678
0.334061
0.333447
0.332837
0.332231
0.331628
0.331028
0.330432
0.329839
0.329249
0.328663
0.328079
0.327499
0.326922
0.326348
0.325777
0.325209
0.324644
0.324082
0.323522
0.322966
0.322412
0.321862
0.321314
0.320768
0.320226
0.319686
0.319149
0.318614
0.318083
0.317554
0.317027
0.316503
0.315982
0.315463
0.314947
0.314433
0.313922
0.313413
0.312907
0.312403
0.311902
0.311403
0.310907
0.310413
0.309921
0.309432
0.308945
0.308461
0.307978
0.307499
0.307021
0.306546
0.306073
0.305603
0.305135
0.304669
0.304205
0.303743
0.303284
0.302827
0.302372
0.301919
0.301468
0.301019
0.300573
0.300128
0.299685
0.299245
0.298806
0.298369
0.297933
0.2975
0.297068
0.296638
0.29621
0.295783
0.295357
0.294933
0.29451
0.294089
0.293668
0.293249
0.292831
0.292413
0.291996
0.29158
0.291164
0.290749
0.290334
0.289919
0.289504
0.289089
0.288673
0.288256
0.287839
0.287421
0.287001
0.28658
0.286157
0.285731
0.285304
0.284874
0.284441
0.284004
0.283564
0.283119
0.282671
0.282217
0.281757
0.281292
0.28082
0.280342
0.279855
0.279361
0.278858
0.278345
0.277821
0.277287
0.276741
0.276182
0.275609
0.275021
0.274418
0.273798
0.273159
0.272502
0.271823
0.271123
0.270398
0.269649
0.268872
0.268067
0.267231
0.266363
0.26546
0.264519
0.263539
0.262518
0.261451
0.260337
0.259171
0.257952
0.256676
0.255339
0.253937
0.252466
0.250922
0.249301
0.247597
0.245806
0.243922
0.24194
0.239854
0.237658
0.235345
0.232908
0.230341
0.227635
0.224784
0.221779
0.218611
0.215272
0.211753
0.208044
0.204136
0.200018
0.19568
0.191112
0.186303
0.181243
0.17592
0.170324
0.164444
0.15827
0.151791
0.144998
0.13788
0.13043
0.122639
0.114502
0.10601
0.0971619
0.087953
0.0783825
0.068451
0.0581614
0.0475186
0.03653
0.0252053
0.0135571
0.00160043
-0.0106469
-0.0231644
-0.035929
-0.0489152
-0.0620951
-0.0754388
-0.0889145
0.414709
0.414646
0.414522
0.414336
0.414088
0.413779
0.41341
0.412983
0.4125
0.411964
0.411377
0.410741
0.410059
0.409333
0.408568
0.407765
0.406927
0.406057
0.405158
0.404234
0.403285
0.402317
0.40133
0.400327
0.399311
0.398284
0.397247
0.396204
0.395155
0.394102
0.393047
0.391991
0.390936
0.389883
0.388832
0.387785
0.386742
0.385705
0.384673
0.383648
0.38263
0.38162
0.380617
0.379622
0.378635
0.377657
0.376687
0.375727
0.374775
0.373831
0.372897
0.371972
0.371055
0.370148
0.369249
0.368358
0.367477
0.366604
0.365739
0.364882
0.364034
0.363193
0.36236
0.361535
0.360718
0.359908
0.359106
0.35831
0.357522
0.356741
0.355966
0.355198
0.354436
0.353681
0.352932
0.352189
0.351452
0.350721
0.349996
0.349276
0.348562
0.347853
0.34715
0.346451
0.345758
0.34507
0.344386
0.343708
0.343034
0.342364
0.341699
0.341039
0.340382
0.339731
0.339083
0.338439
0.3378
0.337164
0.336532
0.335904
0.33528
0.33466
0.334043
0.33343
0.33282
0.332214
0.331611
0.331011
0.330415
0.329823
0.329233
0.328647
0.328064
0.327484
0.326907
0.326333
0.325762
0.325194
0.324629
0.324067
0.323508
0.322952
0.322398
0.321848
0.3213
0.320755
0.320212
0.319673
0.319136
0.318601
0.31807
0.317541
0.317014
0.31649
0.315969
0.31545
0.314934
0.31442
0.313909
0.313401
0.312895
0.312391
0.31189
0.311391
0.310895
0.310401
0.309909
0.30942
0.308933
0.308449
0.307967
0.307487
0.30701
0.306535
0.306062
0.305592
0.305124
0.304658
0.304194
0.303733
0.303274
0.302817
0.302362
0.301909
0.301458
0.30101
0.300563
0.300119
0.299676
0.299235
0.298797
0.29836
0.297925
0.297492
0.29706
0.29663
0.296202
0.295776
0.29535
0.294927
0.294504
0.294083
0.293663
0.293244
0.292826
0.292409
0.291993
0.291578
0.291163
0.290748
0.290334
0.289919
0.289505
0.28909
0.288675
0.28826
0.287844
0.287426
0.287008
0.286588
0.286166
0.285742
0.285316
0.284887
0.284456
0.284021
0.283582
0.28314
0.282693
0.282241
0.281784
0.281321
0.280852
0.280376
0.279892
0.279401
0.2789
0.278391
0.277871
0.27734
0.276798
0.276243
0.275675
0.275092
0.274494
0.273879
0.273246
0.272594
0.271922
0.271228
0.270511
0.269768
0.269
0.268203
0.267376
0.266517
0.265624
0.264694
0.263725
0.262715
0.261661
0.26056
0.259408
0.258204
0.256943
0.255622
0.254237
0.252784
0.251259
0.249658
0.247975
0.246206
0.244345
0.242387
0.240325
0.238155
0.235869
0.233461
0.230923
0.228248
0.225428
0.222454
0.21932
0.216015
0.21253
0.208856
0.204982
0.2009
0.196597
0.192065
0.18729
0.182264
0.176974
0.171409
0.165558
0.15941
0.152955
0.146181
0.13908
0.131641
0.123856
0.115719
0.107222
0.0983599
0.0891302
0.0795308
0.0695618
0.0592257
0.048527
0.037473
0.0260734
0.0143407
0.00229037
-0.0100595
-0.0226879
-0.0355709
-0.0486821
-0.0619926
-0.0754711
-0.0890847
0.415006
0.414942
0.414815
0.414625
0.414372
0.414056
0.413679
0.413243
0.412751
0.412203
0.411605
0.410957
0.410262
0.409524
0.408745
0.407928
0.407077
0.406194
0.405282
0.404345
0.403384
0.402403
0.401404
0.400391
0.399364
0.398327
0.397281
0.396228
0.395171
0.394111
0.393049
0.391987
0.390926
0.389867
0.388812
0.38776
0.386714
0.385673
0.384639
0.383611
0.382591
0.381578
0.380574
0.379577
0.37859
0.377611
0.37664
0.375679
0.374727
0.373784
0.372849
0.371924
0.371008
0.3701
0.369202
0.368312
0.367431
0.366558
0.365694
0.364838
0.36399
0.36315
0.362318
0.361494
0.360677
0.359868
0.359067
0.358272
0.357484
0.356704
0.35593
0.355162
0.354401
0.353647
0.352899
0.352156
0.35142
0.35069
0.349965
0.349246
0.348532
0.347824
0.347121
0.346423
0.345731
0.345043
0.34436
0.343682
0.343008
0.342339
0.341675
0.341015
0.340359
0.339707
0.33906
0.338417
0.337777
0.337142
0.336511
0.335883
0.335259
0.334639
0.334023
0.33341
0.3328
0.332194
0.331592
0.330993
0.330397
0.329805
0.329215
0.328629
0.328046
0.327466
0.32689
0.326316
0.325745
0.325178
0.324613
0.324051
0.323492
0.322936
0.322383
0.321832
0.321284
0.320739
0.320197
0.319658
0.319121
0.318587
0.318055
0.317526
0.317
0.316476
0.315955
0.315436
0.31492
0.314407
0.313896
0.313387
0.312881
0.312377
0.311876
0.311378
0.310881
0.310388
0.309896
0.309407
0.308921
0.308436
0.307954
0.307475
0.306998
0.306523
0.30605
0.30558
0.305112
0.304646
0.304182
0.303721
0.303262
0.302805
0.30235
0.301898
0.301447
0.300999
0.300552
0.300108
0.299666
0.299225
0.298787
0.29835
0.297916
0.297483
0.297051
0.296622
0.296194
0.295768
0.295343
0.29492
0.294498
0.294077
0.293657
0.293239
0.292822
0.292405
0.29199
0.291575
0.29116
0.290746
0.290333
0.289919
0.289506
0.289092
0.288678
0.288264
0.287849
0.287432
0.287015
0.286596
0.286176
0.285753
0.285329
0.284902
0.284472
0.284039
0.283602
0.283162
0.282717
0.282267
0.281813
0.281352
0.280886
0.280413
0.279932
0.279444
0.278947
0.278441
0.277926
0.277399
0.276861
0.276311
0.275747
0.27517
0.274577
0.273967
0.273341
0.272696
0.27203
0.271344
0.270634
0.2699
0.269141
0.268353
0.267536
0.266687
0.265805
0.264887
0.26393
0.262933
0.261892
0.260806
0.25967
0.258482
0.257238
0.255935
0.254569
0.253136
0.251632
0.250052
0.248392
0.246647
0.244812
0.24288
0.240847
0.238706
0.23645
0.234073
0.231567
0.228926
0.226141
0.223203
0.220106
0.216838
0.213392