/*--------------------------------*- C++ -*----------------------------------*\
  =========                 |
  \\      /  F ield         | OpenFOAM: The Open Source CFD Toolbox
   \\    /   O peration     | Website:  https://openfoam.org
    \\  /    A nd           | Version:  7
     \\/     M anipulation  |
\*---------------------------------------------------------------------------*/
FoamFile
{
    version     2.0;
    format      ascii;
    class       volVectorField;
    location    "4";
    object      U;
}
// * * * * * * * * * * * * * * * * * * * * * * * * * * * * * * * * * * * * * //

dimensions      [0 1 -1 0 0 0 0];

internalField   nonuniform List<vector> 
433
(
(0.387989 0.441558 1.10145e-19)
(0.409111 0.451276 -1.48988e-19)
(0.430034 0.459132 1.05142e-19)
(0.45071 0.465097 -2.13704e-20)
(0.471096 0.469164 2.67441e-20)
(0.491152 0.471341 -1.12612e-20)
(0.338799 0.411214 -3.40075e-20)
(0.359428 0.421952 -6.45537e-20)
(0.380024 0.430932 1.24086e-19)
(0.400539 0.438117 -3.30283e-20)
(0.420927 0.443486 6.53437e-21)
(0.441142 0.447035 -3.21677e-20)
(0.461141 0.448779 -1.02256e-19)
(0.480885 0.448752 -4.78969e-20)
(0.500337 0.447008 -2.79788e-20)
(0.519467 0.443621 1.20931e-19)
(0.291955 0.378078 -8.38638e-20)
(0.311863 0.389632 5.37187e-20)
(0.331899 0.399552 2.06969e-20)
(0.352018 0.407792 -1.94332e-19)
(0.372171 0.414319 1.13299e-19)
(0.392313 0.419118 -8.92933e-21)
(0.412394 0.422191 8.84579e-20)
(0.432371 0.423555 9.06466e-20)
(0.452198 0.423247 -4.10817e-20)
(0.471836 0.421324 6.7902e-20)
(0.491247 0.417858 -9.4865e-20)
(0.510396 0.412939 2.12628e-20)
(0.529255 0.406673 -6.10499e-20)
(0.547797 0.399178 -4.50499e-21)
(0.566002 0.390582 5.29858e-20)
(0.229294 0.329073 -4.55288e-20)
(0.247941 0.342636 4.59383e-20)
(0.266913 0.354768 -1.13355e-19)
(0.286168 0.365404 1.44984e-19)
(0.305663 0.374492 1.45883e-20)
(0.325352 0.381991 -9.52517e-21)
(0.345187 0.387876 -1.13153e-19)
(0.36512 0.392135 1.05271e-19)
(0.385103 0.394772 -2.25392e-20)
(0.405085 0.395809 3.14616e-20)
(0.425019 0.395285 -1.96353e-19)
(0.444859 0.393255 6.6654e-20)
(0.464561 0.389792 5.22939e-20)
(0.484084 0.384983 1.50236e-20)
(0.503391 0.37893 -1.16191e-19)
(0.522447 0.371746 6.7124e-20)
(0.541224 0.363554 -5.46102e-20)
(0.559693 0.354482 -2.6712e-20)
(0.577833 0.344664 5.27625e-20)
(0.595624 0.33423 4.41929e-20)
(0.1898 0.291744 -4.22456e-20)
(0.207185 0.30546 4.54067e-20)
(0.225031 0.317897 5.60045e-20)
(0.243303 0.32899 -6.10739e-20)
(0.261962 0.338682 3.97144e-20)
(0.280967 0.346927 -2.98576e-20)
(0.300273 0.353689 -3.38972e-20)
(0.319831 0.358948 -1.23002e-20)
(0.339591 0.362695 4.59006e-21)
(0.359502 0.364938 -1.40774e-20)
(0.379512 0.3657 -4.88843e-20)
(0.399568 0.365021 3.05716e-20)
(0.41962 0.362954 1.81259e-19)
(0.439617 0.359571 -2.26277e-19)
(0.459511 0.354954 7.15379e-20)
(0.479257 0.349201 7.13927e-20)
(0.498814 0.342419 4.5001e-20)
(0.518142 0.334723 -1.97101e-20)
(0.537207 0.326233 -2.89704e-20)
(0.555978 0.317074 -1.77789e-20)
(0.574426 0.307368 1.2233e-19)
(0.592522 0.297238 -8.91465e-20)
(0.610246 0.286801 1.32861e-19)
(0.627625 0.276145 -3.37723e-20)
(0.644693 0.265337 -5.20785e-20)
(0.15407 0.253625 -7.19257e-20)
(0.170047 0.267189 7.50449e-20)
(0.186605 0.279634 -1.18612e-19)
(0.203719 0.290895 9.99903e-21)
(0.221355 0.300914 1.08275e-19)
(0.239477 0.30964 -4.04366e-21)
(0.258044 0.317032 -6.64058e-20)
(0.277011 0.323062 -1.66611e-20)
(0.296329 0.32771 5.96541e-20)
(0.315947 0.330974 -7.40595e-20)
(0.335811 0.332862 4.21019e-20)
(0.355865 0.333399 1.99141e-20)
(0.376054 0.332622 -1.03108e-19)
(0.39632 0.330585 9.1629e-20)
(0.416607 0.327353 2.47991e-20)
(0.436861 0.323006 1.29809e-19)
(0.45703 0.317633 -2.36212e-19)
(0.477064 0.311336 1.24954e-19)
(0.496917 0.304219 -1.11373e-20)
(0.516546 0.296395 -2.6176e-20)
(0.535912 0.287977 -5.24858e-20)
(0.55498 0.279079 2.51137e-20)
(0.573713 0.269812 6.89605e-20)
(0.592086 0.260282 -1.4322e-19)
(0.610113 0.250573 -6.51537e-20)
(0.62781 0.240752 2.10731e-20)
(0.644745 0.231023 1.42205e-19)
(0.122344 0.215428 -7.93114e-20)
(0.136804 0.22852 2.1307e-20)
(0.15195 0.240656 1.38315e-19)
(0.167763 0.251773 -6.36005e-20)
(0.184217 0.261814 3.17324e-21)
(0.201283 0.270727 -1.67808e-20)
(0.218926 0.278468 5.51839e-20)
(0.237106 0.285001 -9.56709e-20)
(0.255778 0.290303 7.77938e-20)
(0.274891 0.294358 1.81545e-20)
(0.294394 0.297166 -1.20869e-20)
(0.31423 0.298737 -1.10348e-19)
(0.33434 0.299093 1.95336e-19)
(0.354664 0.298273 -4.2138e-20)
(0.375139 0.296325 -4.26274e-20)
(0.395705 0.293311 -1.21726e-21)
(0.416301 0.289303 -6.89729e-20)
(0.436868 0.284385 -6.05123e-20)
(0.457349 0.278647 -2.8866e-20)
(0.477692 0.272186 1.94221e-19)
(0.497845 0.265103 -9.44296e-20)
(0.517763 0.2575 1.35447e-19)
(0.537403 0.249481 4.08263e-21)
(0.556726 0.241144 -1.80142e-19)
(0.575698 0.232585 1.28283e-19)
(0.594323 0.223883 7.24956e-20)
(0.612601 0.215098 -1.40438e-19)
(0.630179 0.206389 -6.37507e-21)
(0.107641 0.190191 -5.59897e-20)
(0.121288 0.201689 1.05042e-20)
(0.135695 0.212335 6.3859e-22)
(0.150845 0.222074 -4.17215e-20)
(0.166716 0.230855 4.63201e-20)
(0.18328 0.238634 2.63864e-20)
(0.200504 0.245373 -8.91042e-20)
(0.218347 0.251043 4.80871e-20)
(0.236765 0.255622 -6.28384e-20)
(0.255707 0.259101 3.98963e-20)
(0.275118 0.261478 6.39158e-20)
(0.294941 0.262765 -1.31485e-19)
(0.315112 0.262984 -1.00823e-20)
(0.335568 0.262169 6.04471e-20)
(0.356242 0.260365 -2.09062e-20)
(0.377068 0.257628 6.87636e-20)
(0.39798 0.254023 -9.31097e-21)
(0.418913 0.249625 -1.09226e-19)
(0.439803 0.244513 8.28458e-20)
(0.460591 0.238775 -3.60981e-20)
(0.481221 0.2325 1.58794e-19)
(0.50164 0.225779 -1.57757e-19)
(0.5218 0.2187 4.80021e-20)
(0.541656 0.211354 -1.38501e-20)
(0.561171 0.203822 -1.37957e-19)
(0.580335 0.196177 5.05916e-20)
(0.599139 0.188473 7.2284e-20)
(0.617301 0.180829 -6.51859e-20)
(0.082635 0.152963 4.15263e-20)
(0.0947419 0.16349 -2.42332e-21)
(0.107681 0.17333 -3.78552e-20)
(0.121446 0.182432 6.53818e-20)
(0.136021 0.190748 -7.06898e-20)
(0.151388 0.198236 5.54368e-20)
(0.16752 0.204857 -6.46939e-21)
(0.184383 0.210581 -2.2202e-20)
(0.201939 0.215383 3.23977e-20)
(0.220143 0.219246 -1.22242e-19)
(0.238943 0.222162 5.67484e-20)
(0.258283 0.224132 6.04363e-20)
(0.278103 0.225166 -7.27174e-20)
(0.298336 0.225285 1.36181e-19)
(0.318917 0.224519 -8.88419e-20)
(0.339773 0.222908 -3.69403e-21)
(0.360835 0.220501 6.0979e-20)
(0.38203 0.217354 -8.15236e-20)
(0.403289 0.213533 2.23943e-20)
(0.424544 0.209107 6.60581e-20)
(0.445728 0.20415 -1.19129e-19)
(0.46678 0.198741 1.41459e-20)
(0.487642 0.192957 -4.90178e-21)
(0.508261 0.186875 3.17997e-20)
(0.528587 0.180571 7.32027e-20)
(0.54858 0.174115 -2.18603e-20)
(0.568219 0.167571 -1.35535e-19)
(0.587486 0.160986 6.91207e-20)
(0.606165 0.154448 5.04652e-20)
(0.0617569 0.117594 -7.72955e-20)
(0.0723269 0.126826 3.94767e-20)
(0.0837823 0.135527 3.82147e-20)
(0.0961238 0.143654 -2.70655e-20)
(0.109346 0.151165 3.90618e-20)
(0.123438 0.158021 -6.31703e-20)
(0.138382 0.164186 1.43698e-20)
(0.154151 0.169631 2.89335e-20)
(0.170714 0.174328 -2.79049e-21)
(0.188033 0.17826 1.69205e-22)
(0.206061 0.181412 -4.39253e-20)
(0.224747 0.183779 1.81567e-20)
(0.244033 0.185361 -3.39896e-20)
(0.263856 0.18617 4.96473e-20)
(0.284148 0.186221 -2.11947e-20)
(0.30484 0.185542 -5.31984e-20)
(0.325856 0.184165 8.7302e-20)
(0.347123 0.182133 -1.07395e-19)
(0.368564 0.179492 -1.66782e-20)
(0.390105 0.176297 1.73758e-20)
(0.411673 0.172607 -7.08703e-21)
(0.433196 0.168482 2.52839e-21)
(0.45461 0.163989 6.97482e-20)
(0.475851 0.15919 1.08807e-20)
(0.496862 0.15415 2.65978e-20)
(0.51759 0.148932 -2.77682e-20)
(0.537989 0.143594 -4.12363e-20)
(0.558033 0.138188 -2.47939e-20)
(0.577695 0.132755 -4.31961e-20)
(0.596816 0.127357 -3.34311e-20)
(0.0539468 0.0924502 -8.69866e-21)
(0.0639476 0.099693 8.64874e-20)
(0.0748754 0.106516 -7.2874e-20)
(0.0867334 0.112885 1.56871e-20)
(0.0995183 0.118766 4.33443e-20)
(0.11322 0.12413 -1.34359e-21)
(0.127823 0.12895 -8.68995e-21)
(0.143301 0.133201 -5.69988e-20)
(0.159625 0.136864 8.54332e-20)
(0.176754 0.139923 -2.15426e-20)
(0.194643 0.14237 -2.01921e-20)
(0.21324 0.144198 -3.70274e-20)
(0.232486 0.145411 2.27271e-20)
(0.252316 0.146015 -3.63045e-20)
(0.27266 0.146027 6.02018e-20)
(0.293446 0.145465 -5.91776e-20)
(0.314596 0.144358 8.12712e-20)
(0.336033 0.142738 8.86487e-21)
(0.357677 0.140642 8.17201e-21)
(0.379449 0.138115 7.20891e-20)
(0.401274 0.135201 -1.26027e-19)
(0.423076 0.13195 1.17238e-19)
(0.444785 0.128413 -7.19301e-20)
(0.466335 0.124639 5.95292e-21)
(0.487666 0.12068 2.6441e-20)
(0.508721 0.116584 -6.49495e-20)
(0.529453 0.112397 6.7162e-20)
(0.549826 0.10816 3.71106e-21)
(0.56981 0.103907 -1.65782e-20)
(0.589292 0.0996768 5.1946e-20)
(0.0393936 0.0610838 -3.31254e-20)
(0.0480154 0.0665689 3.53182e-20)
(0.0575851 0.0717759 2.30733e-21)
(0.0681136 0.076679 1.16842e-20)
(0.0796059 0.0812536 -3.57331e-20)
(0.0920602 0.0854762 2.36258e-20)
(0.105468 0.0893251 -6.82304e-22)
(0.119814 0.0927807 -2.18125e-20)
(0.135073 0.0958261 1.9793e-20)
(0.151217 0.0984471 -3.85768e-20)
(0.168204 0.100633 1.98255e-21)
(0.185991 0.102377 1.92936e-20)
(0.204523 0.103677 3.52395e-20)
(0.223741 0.104533 2.50526e-20)
(0.243578 0.104952 -7.6448e-21)
(0.263964 0.104944 -4.30456e-20)
(0.284824 0.104526 2.16662e-21)
(0.306078 0.103715 2.94041e-21)
(0.327645 0.102536 -5.63284e-20)
(0.349445 0.101018 3.89394e-21)
(0.371395 0.0991892 -1.93389e-20)
(0.393416 0.0970847 3.75598e-20)
(0.41543 0.0947395 -9.05392e-21)
(0.437365 0.0921898 -3.06313e-20)
(0.459151 0.0894722 3.52732e-20)
(0.480725 0.086623 -1.08975e-20)
(0.502029 0.0836769 9.52525e-21)
(0.523014 0.0806672 4.28687e-20)
(0.543638 0.077624 -7.46956e-20)
(0.563865 0.0745706 -1.61978e-20)
(0.583623 0.0715327 -8.38672e-21)
(0.0357138 0.0368496 -3.18349e-21)
(0.0440259 0.0401556 9.31009e-21)
(0.0533062 0.0432932 -2.08484e-20)
(0.0635667 0.046247 -4.1937e-21)
(0.0748137 0.049002 1.15181e-20)
(0.0870464 0.0515442 9.21276e-21)
(0.100257 0.0538604 1.47611e-20)
(0.114431 0.055939 -2.82428e-20)
(0.129545 0.0577697 4.4666e-21)
(0.145568 0.0593442 1.58875e-20)
(0.162462 0.0606561 -1.25038e-20)
(0.18018 0.0617014 -1.81198e-20)
(0.19867 0.0624784 1.78306e-20)
(0.21787 0.0629881 -2.10698e-20)
(0.237714 0.0632343 2.77068e-20)
(0.258129 0.0632235 -2.15793e-20)
(0.279039 0.062965 -1.03775e-21)
(0.300363 0.0624707 2.41596e-20)
(0.32202 0.0617551 -8.85488e-21)
(0.343925 0.0608348 -2.56454e-21)
(0.365995 0.0597286 7.91002e-21)
(0.388148 0.0584566 -1.12355e-20)
(0.410306 0.0570401 7.24846e-21)
(0.432393 0.0555012 3.32237e-21)
(0.454338 0.0538618 -8.40835e-21)
(0.476076 0.0521437 -1.87131e-20)
(0.497549 0.050368 3.86667e-20)
(0.518703 0.0485546 5.34876e-21)
(0.539496 0.0467218 1.54489e-21)
(0.559888 0.0448837 1.28763e-20)
(0.579831 0.0430542 -8.40548e-21)
(0.0511555 0.0144692 6.82011e-21)
(0.0612815 0.0154558 -6.87543e-21)
(0.0724054 0.0163758 3.50723e-21)
(0.084527 0.0172247 9.62379e-22)
(0.0976391 0.0179979 -4.37519e-21)
(0.111727 0.0186916 1.11758e-20)
(0.126767 0.0193025 -2.70966e-21)
(0.14273 0.0198276 -6.65753e-21)
(0.159578 0.0202649 6.11608e-21)
(0.177262 0.0206132 5.61462e-21)
(0.195731 0.0208717 -8.59302e-21)
(0.214922 0.0210409 -3.25137e-21)
(0.234769 0.0211221 9.49939e-21)
(0.255199 0.0211175 7.99874e-22)
(0.276135 0.0210301 2.54572e-21)
(0.297495 0.020864 -2.19542e-21)
(0.319197 0.020624 9.98708e-22)
(0.341155 0.0203158 6.75826e-21)
(0.363286 0.0199455 6.84789e-21)
(0.385506 0.01952 -9.15466e-21)
(0.407736 0.0190463 -5.51602e-21)
(0.4299 0.0185317 6.80227e-21)
(0.451925 0.0179838 6.04395e-21)
(0.473746 0.0174097 -1.59221e-20)
(0.495303 0.0168164 -2.56539e-21)
(0.516543 0.0162107 4.49436e-21)
(0.53742 0.0155986 1.26666e-21)
(0.557895 0.0149849 2.34945e-21)
(0.577931 0.014374 -5.55175e-21)
(0.999845 0.000157966 1.63935e-21)
(0.991204 0.000491118 -1.03789e-21)
(0.975362 0.000883515 5.69186e-23)
(0.95354 0.00142216 -7.93682e-22)
(0.924195 0.00213908 2.16042e-22)
(0.888081 0.00318022 3.69616e-22)
(0.841693 0.00461294 1.04599e-21)
(0.7863 0.00654444 9.31352e-22)
(0.718465 0.00937036 -5.86914e-22)
(0.63624 0.0126005 -5.10464e-22)
(0.999845 0.000473928 -2.47795e-21)
(0.991205 0.00147317 2.26923e-21)
(0.975376 0.00265027 1.84079e-22)
(0.953571 0.00426574 -2.15317e-21)
(0.924272 0.00641597 1.37093e-21)
(0.888229 0.00953885 -1.95052e-21)
(0.841962 0.0138322 -1.05413e-21)
(0.786832 0.019624 2.2425e-21)
(0.719308 0.0280863 -2.9249e-21)
(0.637761 0.0377486 1.24617e-21)
(0.999844 0.00079 4.13028e-21)
(0.991208 0.00245472 -3.09375e-21)
(0.975405 0.00441631 -5.47963e-22)
(0.953634 0.00710725 4.87664e-21)
(0.924426 0.0106893 -2.13996e-21)
(0.888525 0.0158923 -1.27482e-21)
(0.842502 0.0230323 5.2912e-21)
(0.787895 0.0326763 -9.03923e-21)
(0.720994 0.0467281 2.05527e-21)
(0.640799 0.0627391 8.3984e-21)
(0.999843 0.00110625 -1.9336e-21)
(0.991212 0.00343542 6.75972e-21)
(0.975449 0.00618115 1.18435e-21)
(0.953729 0.0099453 -6.41627e-21)
(0.924658 0.0149568 1.71508e-21)
(0.888969 0.022237 -2.34862e-21)
(0.843315 0.0322004 3.37352e-22)
(0.789487 0.0456831 -1.69166e-21)
(0.723523 0.0652455 -5.56951e-21)
(0.645349 0.087468 -4.16867e-21)
(0.999841 0.00142273 1.48361e-22)
(0.991218 0.00441492 -4.38749e-21)
(0.975508 0.00794423 -4.69954e-21)
(0.953857 0.0127784 2.81058e-21)
(0.924969 0.0192162 -5.34321e-21)
(0.889561 0.0285689 3.17702e-21)
(0.844407 0.0413242 4.69636e-21)
(0.791606 0.0586264 -7.83087e-21)
(0.726896 0.0835872 6.05375e-21)
(0.651401 0.111834 2.16505e-20)
(0.999839 0.00173949 -6.27687e-21)
(0.991226 0.0053929 -2.81134e-21)
(0.975582 0.00970498 5.91956e-21)
(0.954018 0.0156051 1.72401e-21)
(0.925362 0.0234654 -1.71154e-21)
(0.890303 0.0348837 -5.14319e-21)
(0.845782 0.0503917 -4.51315e-21)
(0.794249 0.0714883 -1.32029e-20)
(0.731113 0.1017 -5.42739e-21)
(0.658943 0.135738 2.5494e-20)
(0.999837 0.00205654 1.12593e-20)
(0.991236 0.00636893 -6.76803e-21)
(0.975673 0.0114627 1.21011e-20)
(0.954215 0.0184238 -4.03252e-21)
(0.925838 0.0277021 2.25886e-21)
(0.891194 0.0411767 5.12103e-22)
(0.847448 0.0593916 8.92512e-21)
(0.797412 0.0842507 -2.73006e-21)
(0.736177 0.11953 5.5471e-21)
(0.667959 0.159085 -1.69991e-20)
(0.999835 0.0023739 3.5256e-21)
(0.991249 0.00734162 1.32171e-20)
(0.97578 0.0132168 -1.28076e-20)
(0.954449 0.0212329 1.47284e-20)
(0.9264 0.0319245 8.70085e-21)
(0.892238 0.0474426 -1.78285e-20)
(0.849414 0.0683131 -1.28727e-21)
(0.801089 0.0968951 -3.41368e-21)
(0.742094 0.13702 -3.59023e-21)
(0.67843 0.181789 1.25118e-20)
(0.999832 0.00269155 -2.39574e-20)
(0.991266 0.0083083 -5.54869e-21)
(0.975905 0.0149662 1.03013e-20)
(0.954722 0.0240306 1.72602e-21)
(0.927051 0.0361303 -2.92861e-21)
(0.893438 0.0536755 5.98883e-21)
(0.851689 0.0771465 8.9004e-21)
(0.805277 0.109402 1.88042e-20)
(0.74887 0.154112 -2.13337e-20)
(0.690334 0.203767 -1.31044e-20)
(0.999829 0.00300946 1.68835e-20)
(0.991286 0.00927323 -4.15579e-21)
(0.976049 0.0167102 -1.30712e-20)
(0.955038 0.0268151 -2.13904e-20)
)
;

boundaryField
{
    inlet
    {
        type            uniformFixedValue;
        uniformValue    constant (1 0 0);
        value           uniform (1 0 0);
    }
    outlet
    {
        type            pressureInletOutletVelocity;
        value           nonuniform 0();
    }
    cylinder
    {
        type            fixedValue;
        value           nonuniform 0();
    }
    top
    {
        type            symmetryPlane;
    }
    bottom
    {
        type            symmetryPlane;
    }
    defaultFaces
    {
        type            empty;
    }
    procBoundary18to12
    {
        type            processor;
        value           nonuniform List<vector> 
42
(
(0.033864 0.0123166 -2.58504e-21)
(0.0420206 0.0134211 6.78591e-21)
(0.0420206 0.0134211 6.78591e-21)
(0.0511554 -0.014469 2.1951e-21)
(0.0612815 -0.0154555 8.10369e-21)
(0.0724054 -0.0163756 -3.78939e-21)
(0.084527 -0.0172244 -1.4348e-21)
(0.097639 -0.0179976 5.54951e-21)
(0.111727 -0.0186914 -1.32819e-20)
(0.126767 -0.0193022 4.13512e-21)
(0.14273 -0.0198273 7.33268e-21)
(0.159578 -0.0202647 -4.77395e-21)
(0.177262 -0.0206129 -3.14861e-21)
(0.195731 -0.0208714 3.02061e-21)
(0.214922 -0.0210407 3.06755e-21)
(0.234769 -0.0211219 -5.40933e-21)
(0.255199 -0.0211172 3.8565e-21)
(0.276135 -0.0210298 1.19825e-21)
(0.297495 -0.0208638 4.67121e-21)
(0.319197 -0.0206238 6.07511e-21)
(0.341155 -0.0203155 2.23648e-21)
(0.363286 -0.0199453 -6.26752e-21)
(0.385506 -0.0195197 -2.60528e-21)
(0.407736 -0.019046 9.45233e-21)
(0.4299 -0.0185315 -5.38665e-21)
(0.451925 -0.0179836 -6.96767e-21)
(0.473746 -0.0174095 1.27567e-20)
(0.495303 -0.0168162 -4.29827e-21)
(0.516543 -0.0162105 -4.1387e-22)
(0.53742 -0.0155984 -2.5991e-22)
(0.557895 -0.0149847 4.96551e-21)
(0.577931 -0.0143738 -9.913e-21)
(0.999845 -0.00015796 1.63438e-21)
(0.991204 -0.000491093 -9.9221e-22)
(0.975362 -0.000883469 2.18484e-23)
(0.95354 -0.0014221 -9.5942e-22)
(0.924195 -0.00213899 7.98362e-22)
(0.888081 -0.00318011 1.00475e-22)
(0.841693 -0.00461281 1.22908e-22)
(0.7863 -0.00654429 1.61083e-21)
(0.718465 -0.0093702 4.52752e-22)
(0.63624 -0.0126003 -1.94537e-21)
)
;
    }
    procBoundary18to19
    {
        type            processor;
        value           nonuniform List<vector> 
25
(
(0.417308 0.458257 1.69203e-19)
(0.439006 0.468708 -7.17564e-20)
(0.366715 0.43002 2.37995e-21)
(0.366715 0.43002 2.37995e-21)
(0.318184 0.398772 -1.71366e-20)
(0.318184 0.398772 -1.71366e-20)
(0.252708 0.350313 7.14429e-20)
(0.272223 0.364948 -1.10422e-19)
(0.272223 0.364948 -1.10422e-19)
(0.211008 0.314149 3.21019e-20)
(0.211008 0.314149 3.21019e-20)
(0.172907 0.276822 -2.3249e-20)
(0.172907 0.276822 -2.3249e-20)
(0.138698 0.239013 -8.59014e-20)
(0.138698 0.239013 -8.59014e-20)
(0.108584 0.20145 -3.09339e-20)
(0.0947634 0.177901 -1.17147e-19)
(0.0947634 0.177901 -1.17147e-19)
(0.0713626 0.141801 1.65752e-20)
(0.0713626 0.141801 1.65752e-20)
(0.0520655 0.107877 -6.23772e-22)
(0.0448638 0.0848233 3.08136e-20)
(0.0448638 0.0848233 3.08136e-20)
(0.031703 0.0553469 1.27954e-21)
(0.0283519 0.0333911 -5.34407e-21)
)
;
    }
    procBoundary18to24
    {
        type            processor;
        value           nonuniform List<vector> 
35
(
(0.460384 0.477244 -3.0432e-20)
(0.481395 0.483831 1.53889e-20)
(0.501996 0.488454 -3.35331e-20)
(0.522147 0.491117 1.547e-19)
(0.51084 0.47166 3.14379e-20)
(0.51084 0.47166 3.14379e-20)
(0.530131 0.470172 -4.27144e-23)
(0.548999 0.466948 -9.49738e-20)
(0.538247 0.438681 2.12221e-20)
(0.538247 0.438681 2.12221e-20)
(0.556657 0.432295 -2.93217e-20)
(0.57468 0.424586 4.85435e-20)
(0.592303 0.415685 2.40661e-21)
(0.583853 0.38102 2.10992e-20)
(0.583853 0.38102 2.10992e-20)
(0.601336 0.370633 -7.4604e-20)
(0.618441 0.359561 9.96619e-21)
(0.613043 0.323315 8.98407e-21)
(0.613043 0.323315 8.98407e-21)
(0.630076 0.312042 -2.09099e-20)
(0.646766 0.300504 1.40107e-19)
(0.663164 0.288768 -4.85915e-20)
(0.660936 0.254639 -1.16159e-19)
(0.660936 0.254639 -1.16159e-19)
(0.927794 0.0403176 -8.17674e-21)
(0.894798 0.0598691 -4.34505e-21)
(0.854284 0.0858827 6.19556e-21)
(0.80997 0.121751 -3.69496e-21)
(0.756516 0.170747 -2.17642e-20)
(0.70364 0.224948 1.41606e-20)
(0.999826 0.00332753 -1.96273e-21)
(0.991312 0.010242 2.33563e-21)
(0.976214 0.0184478 -6.59581e-21)
(0.927794 0.0403176 -8.17674e-21)
(0.955398 0.0295846 -1.74174e-20)
)
;
    }
}


// ************************************************************************* //
