/*--------------------------------*- C++ -*----------------------------------*\
  =========                 |
  \\      /  F ield         | OpenFOAM: The Open Source CFD Toolbox
   \\    /   O peration     | Website:  https://openfoam.org
    \\  /    A nd           | Version:  7
     \\/     M anipulation  |
\*---------------------------------------------------------------------------*/
FoamFile
{
    version     2.0;
    format      ascii;
    class       volVectorField;
    location    "4";
    object      U;
}
// * * * * * * * * * * * * * * * * * * * * * * * * * * * * * * * * * * * * * //

dimensions      [0 1 -1 0 0 0 0];

internalField   nonuniform List<vector> 
433
(
(0.0452504 0.00517255 -6.80874e-20)
(0.0527867 0.0029627 -8.32152e-20)
(0.0610062 0.000680273 1.28211e-20)
(0.0699372 -0.00163631 -3.32124e-20)
(0.0316483 0.00919045 -8.74251e-21)
(0.0379024 0.00741258 -1.29208e-20)
(0.0447942 0.00547805 6.77394e-20)
(0.0523553 0.00340197 4.40972e-20)
(0.0606174 0.00120303 -4.81101e-20)
(0.0696121 -0.00109569 9.29644e-20)
(0.0793704 -0.00346538 6.6687e-20)
(0.0899225 -0.00586966 -8.47323e-20)
(0.101297 -0.00826203 -1.96772e-20)
(0.020082 0.0108261 3.72704e-20)
(0.0250519 0.00964397 -1.13787e-19)
(0.0306073 0.00828249 -6.87965e-20)
(0.0367801 0.00674768 5.41293e-20)
(0.0436025 0.00504738 -8.94841e-20)
(0.0511068 0.00319147 1.13031e-19)
(0.0593254 0.00119203 2.79968e-20)
(0.0682908 -0.000936376 -7.10505e-20)
(0.0780354 -0.00317618 2.75455e-20)
(0.0885911 -0.00550618 -5.96283e-20)
(0.0999896 -0.00790043 -5.5977e-20)
(0.112262 -0.0103266 6.17066e-20)
(0.125437 -0.012743 6.15846e-20)
(0.139543 -0.0150951 -2.69442e-19)
(0.0110281 0.0100517 1.39204e-19)
(0.014743 0.00943755 -1.37876e-19)
(0.0189863 0.00864919 1.51175e-19)
(0.02379 0.00768768 3.72154e-20)
(0.0291866 0.00655547 -1.09721e-19)
(0.035209 0.0052565 1.5555e-19)
(0.0418905 0.00379629 -3.70337e-20)
(0.0492645 0.00218195 -1.69577e-19)
(0.0573645 0.000422335 5.92237e-20)
(0.0662239 -0.00147192 1.25341e-19)
(0.0758759 -0.00348829 -1.11532e-19)
(0.0863532 -0.00561225 -1.86032e-20)
(0.097688 -0.00782697 4.56446e-20)
(0.109912 -0.010113 3.81479e-20)
(0.123055 -0.0124476 -1.06512e-19)
(0.137149 -0.0148034 1.95618e-19)
(0.152221 -0.0171465 -1.04584e-19)
(0.1683 -0.0194325 9.8458e-20)
(0.185411 -0.0215994 -2.5423e-19)
(0.0072651 0.00735495 1.52838e-19)
(0.0102628 0.00702917 -8.79477e-20)
(0.0137571 0.00654713 5.85433e-20)
(0.0177803 0.0059077 3.23695e-20)
(0.0223656 0.0051109 -8.85807e-20)
(0.0275466 0.00415801 -1.90708e-20)
(0.0333577 0.00305168 -6.33591e-21)
(0.0398336 0.00179599 5.01661e-20)
(0.0470092 0.000396543 7.30809e-20)
(0.0549197 -0.0011395 -2.42937e-20)
(0.0636 -0.00280334 -1.75164e-19)
(0.073085 -0.00458451 1.77089e-19)
(0.0834091 -0.00647084 -5.15335e-20)
(0.0946059 -0.00844849 1.75725e-20)
(0.106708 -0.0105019 -3.67964e-20)
(0.119747 -0.0126139 -3.31013e-21)
(0.133753 -0.0147656 -7.42099e-20)
(0.148754 -0.0169363 -1.2002e-20)
(0.164778 -0.019103 2.71941e-20)
(0.181851 -0.0212399 6.47546e-20)
(0.199995 -0.0233153 -2.49494e-19)
(0.219239 -0.0252871 1.13125e-19)
(0.239606 -0.0270927 -5.97223e-21)
(0.00259991 0.00436138 6.12176e-20)
(0.00447074 0.00433382 -4.07496e-20)
(0.00676878 0.00417554 -8.55013e-20)
(0.00952532 0.00388322 9.34926e-20)
(0.0127727 0.00345436 -2.63789e-20)
(0.0165442 0.00288738 6.96947e-20)
(0.0208739 0.00218172 -5.01859e-20)
(0.0257967 0.00133794 -1.48176e-19)
(0.0313483 0.000357818 2.06626e-19)
(0.0375647 -0.000755532 6.45703e-20)
(0.0444827 -0.00199758 -3.31719e-21)
(0.0521392 -0.00336228 -2.10443e-19)
(0.0605713 -0.00484199 4.90349e-20)
(0.0698161 -0.00642741 5.67633e-20)
(0.0799102 -0.0081075 -1.1837e-19)
(0.09089 -0.00986946 7.07883e-20)
(0.102791 -0.0116987 -3.35936e-20)
(0.115647 -0.013579 8.47793e-20)
(0.129491 -0.0154923 -5.5399e-20)
(0.144354 -0.0174191 1.41215e-20)
(0.160264 -0.0193389 -2.1646e-21)
(0.177246 -0.0212299 -1.47149e-20)
(0.195324 -0.0230705 -2.63219e-21)
(0.214516 -0.0248389 -9.43206e-20)
(0.234842 -0.026514 1.16309e-19)
(0.256318 -0.0280736 -2.93389e-20)
(0.278966 -0.0294902 9.97227e-20)
(0.3028 -0.030732 -1.63288e-19)
(-0.000199095 0.00138166 4.08852e-20)
(0.000383703 0.00157195 -5.53551e-21)
(0.0012936 0.0016634 1.12957e-20)
(0.00255913 0.00165177 -1.31568e-20)
(0.00420969 0.00153298 4.22429e-21)
(0.00627574 0.00130331 -3.6866e-20)
(0.00878892 0.000959654 4.36133e-20)
(0.011782 0.000499575 1.05885e-20)
(0.0152888 -7.85774e-05 4.1032e-20)
(0.0193442 -0.000775583 6.18965e-20)
(0.023984 -0.00159125 -2.3182e-19)
(0.0292448 -0.00252431 1.0014e-19)
(0.0351642 -0.0035723 -3.72601e-20)
(0.0417801 -0.0047315 6.45385e-20)
(0.0491312 -0.00599676 -6.38144e-20)
(0.0572566 -0.00736143 2.91388e-20)
(0.0661955 -0.00881728 1.79309e-20)
(0.0759872 -0.0103543 -6.70804e-20)
(0.0866707 -0.0119608 1.05611e-19)
(0.0982848 -0.0136231 1.12463e-20)
(0.110867 -0.0153255 5.70131e-20)
(0.124455 -0.0170504 -1.4894e-19)
(0.139084 -0.0187779 5.09825e-20)
(0.154786 -0.0204863 -5.01035e-20)
(0.171593 -0.0221518 -7.52886e-20)
(0.189531 -0.023749 1.37034e-19)
(0.208626 -0.025251 -1.90424e-19)
(0.228895 -0.0266307 1.52308e-19)
(0.250353 -0.0278622 -1.1954e-19)
(0.273007 -0.0289225 2.23377e-19)
(0.296864 -0.0297943 1.0385e-20)
(0.321926 -0.0304702 -7.26278e-20)
(0.348189 -0.0309709 -4.33773e-20)
(0.375634 -0.0313576 -1.42937e-19)
(0.404463 -0.0315079 1.01473e-19)
(-4.31829e-05 7.65665e-05 3.94022e-21)
(9.04158e-05 0.000109853 -2.41843e-22)
(0.000519544 7.3628e-05 -3.36389e-20)
(0.00126587 -4.03011e-05 -3.63987e-20)
(0.00235231 -0.000240378 4.03148e-20)
(0.00380763 -0.000530437 -1.44923e-20)
(0.00566267 -0.000913102 5.99655e-20)
(0.00794916 -0.00139085 -8.64782e-20)
(0.0106999 -0.00196575 6.47147e-20)
(0.013949 -0.00263921 -5.45249e-20)
(0.0177315 -0.0034119 7.56589e-20)
(0.0220838 -0.00428365 -1.16066e-19)
(0.0270432 -0.00525338 1.99476e-19)
(0.0326479 -0.00631897 -1.19367e-19)
(0.0389371 -0.0074772 4.5651e-20)
(0.0459507 -0.00872359 6.64996e-20)
(0.053729 -0.0100523 -1.17095e-19)
(0.0623132 -0.0114562 1.7112e-19)
(0.0717446 -0.0129264 -1.23631e-19)
(0.0820646 -0.0144523 -3.48155e-20)
(0.0933148 -0.0160216 -1.23251e-20)
(0.105536 -0.0176202 -5.00663e-20)
(0.11877 -0.0192316 2.52163e-20)
(0.133055 -0.0208374 -1.0837e-19)
(0.148431 -0.0224166 7.80031e-20)
(0.164934 -0.0239457 -2.69128e-20)
(0.1826 -0.0253985 6.43227e-20)
(0.201462 -0.026746 -5.32045e-20)
(0.221547 -0.027956 7.8306e-20)
(0.242883 -0.028993 1.27389e-19)
(0.26549 -0.0298184 2.60801e-20)
(0.289384 -0.0303909 1.05327e-19)
(0.314573 -0.0306671 -1.20162e-19)
(0.341062 -0.0306029 5.3925e-20)
(0.368847 -0.03016 1.4992e-19)
(0.39791 -0.0293312 6.35594e-20)
(0.428199 -0.0281644 -2.23713e-19)
(0.459829 -0.0265772 -5.51109e-20)
(0.49371 -0.0239565 2.74997e-19)
(0.000186645 -0.000144806 4.51323e-21)
(0.000799547 -0.000546232 -7.2405e-21)
(0.00174538 -0.00100913 -4.26702e-20)
(0.00304742 -0.00154101 -3.12992e-20)
(0.00473022 -0.00214961 4.42421e-20)
(0.00682463 -0.00283721 5.29671e-20)
(0.0093637 -0.00360467 -1.07911e-20)
(0.0123814 -0.00445271 -1.18288e-20)
(0.0159128 -0.00538161 -9.15914e-20)
(0.0199942 -0.00639095 2.6428e-20)
(0.024663 -0.00747949 8.37284e-20)
(0.0299579 -0.00864512 -1.35234e-19)
(0.0359184 -0.00988479 2.84433e-20)
(0.0425852 -0.0111944 2.78776e-20)
(0.0499995 -0.0125686 -1.03538e-20)
(0.0582035 -0.014001 5.98638e-20)
(0.0672399 -0.0154837 -6.71244e-20)
(0.0771517 -0.0170073 4.88962e-20)
(0.0879825 -0.0185609 -2.25043e-20)
(0.0997756 -0.0201319 1.38212e-19)
(0.112575 -0.021706 -1.27384e-19)
(0.126422 -0.0232666 1.37272e-19)
(0.141362 -0.0247953 -1.93211e-19)
(0.157434 -0.0262713 -1.27424e-19)
(0.17468 -0.0276712 2.9102e-19)
(0.193139 -0.0289692 -2.19109e-19)
(0.212848 -0.0301359 6.83272e-20)
(0.233845 -0.0311389 3.70237e-20)
(0.256163 -0.0319414 -2.67001e-20)
(0.279836 -0.0325021 9.86794e-20)
(0.304897 -0.032774 3.61148e-21)
(0.331381 -0.032703 -1.45946e-19)
(0.359329 -0.0322262 3.50005e-20)
(0.388799 -0.0312692 1.2759e-20)
(0.419879 -0.0297472 1.03661e-19)
(0.452723 -0.0275701 2.85267e-20)
(0.487637 -0.0246252 -2.58641e-19)
(0.525324 -0.0207163 1.47613e-19)
(0.567295 -0.016096 5.24245e-20)
(0.616367 -0.014337 -1.16181e-19)
(0.000463807 -0.000374671 -2.96184e-20)
(0.00165004 -0.00122616 1.79728e-20)
(0.00320748 -0.00212927 1.83857e-20)
(0.00516096 -0.00309071 1.51171e-20)
(0.0075366 -0.00411741 -2.60261e-22)
(0.0103672 -0.00520997 -5.6037e-20)
(0.013688 -0.00636735 4.30527e-20)
(0.0175348 -0.00758837 1.03523e-20)
(0.0219449 -0.0088714 -3.01991e-20)
(0.0269567 -0.010214 6.43712e-20)
(0.0326097 -0.0116131 -6.59948e-20)
(0.0389445 -0.0130643 -3.97099e-20)
(0.0460028 -0.0145628 2.40196e-19)
(0.0538272 -0.0161022 -3.38235e-20)
(0.062461 -0.0176752 -2.43085e-20)
(0.0719481 -0.0192734 -1.7564e-20)
(0.0823331 -0.0208869 -1.04444e-19)
(0.0936607 -0.0225044 2.21796e-19)
(0.105976 -0.0241131 -9.54953e-20)
(0.119324 -0.0256987 2.05346e-20)
(0.133749 -0.027245 -5.47215e-20)
(0.149296 -0.0287342 1.25951e-19)
(0.166007 -0.0301464 -7.17959e-20)
(0.183926 -0.0314599 1.68257e-19)
(0.203095 -0.0326506 -1.64708e-19)
(0.223553 -0.033692 7.78871e-20)
(0.245339 -0.0345555 4.53207e-20)
(0.268492 -0.0352092 -2.21483e-19)
(0.29305 -0.0356189 8.10252e-20)
(0.319049 -0.0357469 -6.12332e-20)
(0.346532 -0.0355526 7.47712e-20)
(0.375547 -0.0349928 6.14098e-20)
(0.406154 -0.0340224 -1.80939e-19)
(0.438439 -0.0325987 1.14435e-19)
(0.472533 -0.0306914 -8.36717e-20)
(0.508641 -0.0282981 -7.09598e-20)
(0.547125 -0.0254514 2.24943e-20)
(0.588557 -0.0223258 -5.83963e-20)
(0.633492 -0.0199999 -6.39687e-20)
(0.682392 -0.0212735 1.88682e-19)
(0.0107854 -0.00610153 4.23843e-20)
(0.0144516 -0.00759694 7.64961e-20)
(0.0186534 -0.00913976 -4.72332e-20)
(0.0234287 -0.0107268 -1.48528e-20)
(0.0288166 -0.0123544 5.47714e-20)
(0.0348571 -0.0140181 -5.11655e-20)
(0.0415916 -0.0157127 -1.28692e-20)
(0.0490627 -0.0174318 -1.28866e-19)
(0.0573135 -0.0191683 1.12957e-19)
(0.0663882 -0.0209139 5.04539e-20)
(0.0763317 -0.0226593 -2.05683e-19)
(0.0871893 -0.0243941 1.79229e-19)
(0.0990067 -0.0261063 7.75182e-20)
(0.11183 -0.0277831 3.97353e-20)
(0.125704 -0.0294101 -9.93352e-21)
(0.140676 -0.0309713 -5.54785e-20)
(0.156789 -0.0324497 -1.20673e-19)
(0.174089 -0.0338265 8.32957e-20)
(0.192617 -0.0350814 -1.74715e-19)
(0.212417 -0.0361927 1.21448e-19)
(0.233528 -0.0371371 7.50503e-20)
(0.255988 -0.0378898 -7.71401e-20)
(0.279836 -0.0384249 -3.21939e-20)
(0.305105 -0.0387151 6.39539e-20)
(0.33183 -0.0387324 -4.49931e-20)
(0.360046 -0.0384489 -8.10358e-20)
(0.389787 -0.0378377 6.95606e-20)
(0.421095 -0.0368756 -1.39508e-19)
(0.454019 -0.0355464 9.13115e-20)
(0.488623 -0.0338487 -2.42752e-20)
(0.524998 -0.0318107 1.06921e-19)
(0.563272 -0.0295056 -1.82604e-19)
(0.603647 -0.027062 2.90207e-19)
(0.646356 -0.0247881 -1.3158e-19)
(0.691247 -0.0237702 -1.05416e-19)
(0.737778 -0.0256529 1.31404e-19)
(0.0365381 -0.0157437 -3.40165e-20)
(0.0437047 -0.017706 1.77994e-20)
(0.0516165 -0.0196707 4.74628e-20)
(0.0603174 -0.0216295 3.77798e-20)
(0.0698519 -0.023573 -1.00593e-19)
(0.0802653 -0.0254909 5.31609e-20)
(0.0916034 -0.0273718 5.06772e-20)
(0.103912 -0.0292035 3.95791e-20)
(0.117238 -0.0309724 -1.2494e-19)
(0.131626 -0.0326638 3.57258e-21)
(0.147123 -0.034262 4.55341e-20)
(0.163774 -0.0357501 5.49092e-20)
(0.181622 -0.0371102 -6.70662e-20)
(0.20071 -0.0383231 7.27069e-20)
(0.221079 -0.0393689 -1.43884e-19)
(0.242767 -0.0402266 2.26844e-19)
(0.265811 -0.0408748 -2.86255e-20)
(0.290245 -0.0412915 -5.08289e-21)
(0.316098 -0.0414548 -5.08239e-20)
(0.343399 -0.0413433 7.42519e-21)
(0.372171 -0.040937 2.00773e-19)
(0.402436 -0.0402188 -1.93742e-19)
(0.434211 -0.0391761 9.57307e-20)
(0.467515 -0.037804 7.05288e-20)
(0.502365 -0.0361098 -7.04237e-20)
(0.538779 -0.0341212 1.53494e-19)
(0.576776 -0.0318979 -1.91015e-19)
(0.616379 -0.029542 -7.67597e-20)
(0.657625 -0.0271976 1.58679e-19)
(0.700494 -0.02515 2.02408e-20)
(0.744538 -0.0242903 -1.776e-19)
(0.789036 -0.0255889 2.19894e-20)
(0.0954404 -0.029687 -2.02103e-19)
(0.108251 -0.0316561 -4.59445e-20)
(0.122084 -0.0335344 2.62545e-19)
(0.136984 -0.0353069 3.95383e-21)
(0.152998 -0.0369575 -1.57078e-19)
(0.170169 -0.0384692 6.18283e-21)
(0.18854 -0.0398244 5.13107e-21)
(0.208154 -0.0410046 1.53882e-19)
(0.229049 -0.0419908 -2.42989e-20)
(0.251261 -0.0427636 -3.89686e-20)
(0.274825 -0.0433035 -1.32278e-19)
(0.29977 -0.0435911 -8.13189e-20)
(0.326121 -0.0436079 -5.11842e-20)
(0.353899 -0.0433364 1.12761e-19)
(0.383118 -0.0427611 5.93196e-20)
(0.413788 -0.0418698 -1.319e-20)
(0.445911 -0.040655 1.68148e-20)
(0.479481 -0.0391157 -3.73941e-21)
(0.514485 -0.037261 -1.21517e-19)
(0.5509 -0.0351135 -1.106e-19)
(0.588693 -0.0327161 -4.13544e-20)
(0.627815 -0.0301403 1.31783e-19)
(0.668199 -0.0274897 -1.74958e-20)
(0.709767 -0.0248907 1.35327e-19)
(0.752357 -0.0225739 1.26961e-19)
(0.795426 -0.0212696 3.4617e-20)
(0.838325 -0.0215794 -2.29016e-20)
(0.175873 -0.0404724 -1.62382e-19)
(0.194757 -0.0418297 -2.51172e-20)
(0.214878 -0.042982 2.35116e-19)
(0.236273 -0.0439104 -1.27264e-19)
(0.258976 -0.0445964 -9.58836e-20)
(0.283019 -0.0450216 2.13277e-20)
(0.308426 -0.0451678 -8.29069e-20)
(0.335219 -0.0450185 7.89084e-20)
(0.363413 -0.0445583 1.14407e-19)
(0.393014 -0.0437741 -3.0429e-20)
(0.424022 -0.0426561 -1.34885e-19)
(0.456428 -0.0411987 7.40152e-20)
(0.49021 -0.0394022 -6.92086e-20)
(0.525337 -0.0372749 1.46267e-19)
(0.561762 -0.034835 8.91063e-22)
(0.599423 -0.0321144 9.29626e-20)
(0.638239 -0.0291627 1.79998e-20)
(0.678104 -0.026053 1.88583e-19)
(0.718885 -0.0228806 -2.77349e-19)
(0.760424 -0.0197489 -4.81482e-20)
(0.802486 -0.0168433 -4.50689e-20)
(0.844507 -0.0147863 2.20573e-20)
(0.885924 -0.0139595 5.85717e-20)
(0.290344 -0.0459172 9.50501e-20)
(0.316186 -0.0459123 -4.57688e-20)
(0.343388 -0.0455818 4.50632e-20)
(0.371961 -0.0449116 1.03538e-19)
(0.401905 -0.0438898 -1.6248e-19)
(0.433213 -0.0425078 1.01424e-19)
(0.465867 -0.0407609 -1.19846e-19)
(0.499837 -0.0386494 -1.12586e-19)
(0.535078 -0.0361804 9.93962e-20)
(0.57153 -0.033369 2.54049e-20)
(0.609115 -0.0302406 -1.24421e-19)
(0.647734 -0.0268327 7.00461e-20)
(0.687265 -0.0231984 -4.48206e-20)
(0.727556 -0.0194091 -2.36436e-20)
(0.768424 -0.0155513 5.48574e-20)
(0.80966 -0.0117109 -1.0416e-20)
(0.850983 -0.00804426 -3.6448e-20)
(0.891838 -0.00509894 1.12728e-19)
(0.931724 -0.00310911 -1.6408e-21)
(0.409775 -0.0430568 8.28865e-20)
(0.441363 -0.0413883 6.8403e-22)
(0.474248 -0.0393239 -1.8406e-19)
(0.508394 -0.036864 1.64214e-19)
(0.543748 -0.0340149 9.35699e-20)
(0.580243 -0.0307897 -9.7374e-20)
(0.61779 -0.0272099 1.76157e-19)
(0.656283 -0.023307 -1.12388e-19)
(0.695589 -0.0191233 -3.84342e-20)
(0.735551 -0.0147147 -5.87439e-21)
(0.77598 -0.0101521 1.53154e-19)
(0.816658 -0.00551613 -1.05087e-19)
(0.857337 -0.000882868 1.34556e-20)
(0.89771 0.00360802 4.36983e-20)
(0.937238 0.00746564 -9.94411e-21)
(0.975465 0.0105635 -2.60403e-20)
(0.587867 -0.0271536 1.2932e-19)
(0.625404 -0.0231049 -9.67445e-20)
(0.663816 -0.0186934 8.54323e-20)
(0.702966 -0.0139567 -1.82347e-19)
(0.742694 -0.00894275 8.35688e-20)
(0.782814 -0.00371136 2.40248e-20)
(0.823108 0.0016654 9.40418e-21)
(0.863328 0.00710853 2.87917e-20)
(0.903203 0.0125454 -3.80711e-20)
(0.942406 0.0178448 -5.86161e-20)
(0.980422 0.022563 -1.58047e-20)
(0.78872 0.00367554 -1.11027e-19)
(0.82873 0.00973625 3.47419e-20)
(0.868621 0.0159195 -8.5826e-20)
(0.908125 0.0221449 4.27153e-20)
(0.946952 0.0283387 -1.94477e-20)
(0.984767 0.0343729 1.38489e-19)
(0.988267 0.0462358 4.54229e-20)
(1.02448 0.0528886 -7.3598e-20)
(0.953307 -0.00587061 2.64299e-20)
(0.909128 -0.0156681 2.98887e-21)
(0.86355 -0.0221752 -1.02905e-19)
(0.817483 -0.0251306 2.57801e-20)
(0.770054 -0.0248755 5.26365e-20)
(0.716243 -0.0253137 -3.36416e-20)
(0.923569 -0.0128833 -3.90333e-20)
(0.879076 -0.0192383 -7.74314e-20)
(0.82735 -0.0258702 -1.53606e-20)
(0.927133 -0.0196756 3.73118e-21)
)
;

boundaryField
{
    inlet
    {
        type            uniformFixedValue;
        uniformValue    constant (1 0 0);
        value           nonuniform 0();
    }
    outlet
    {
        type            pressureInletOutletVelocity;
        value           nonuniform 0();
    }
    cylinder
    {
        type            fixedValue;
        value           uniform (0 0 0);
    }
    top
    {
        type            symmetryPlane;
    }
    bottom
    {
        type            symmetryPlane;
    }
    defaultFaces
    {
        type            empty;
    }
    procBoundary27to14
    {
        type            processor;
        value           uniform (0.000790146 -0.000608318 3.26179e-20);
    }
    procBoundary27to20
    {
        type            processor;
        value           nonuniform List<vector> 
29
(
(0.00264722 -0.0019159 3.15204e-20)
(0.00491436 -0.00326339 4.26847e-20)
(0.00761793 -0.00465662 4.82765e-20)
(0.00761793 -0.00465662 4.82765e-20)
(0.0144852 -0.00805574 3.14829e-20)
(0.0190875 -0.00994172 3.502e-20)
(0.0242706 -0.0118553 -1.37501e-19)
(0.0300741 -0.0137913 4.02232e-20)
(0.0300741 -0.0137913 4.02232e-20)
(0.0451092 -0.0189467 -6.40259e-20)
(0.053497 -0.0211741 7.90493e-20)
(0.0626793 -0.023373 -3.44955e-21)
(0.0727003 -0.0255325 1.48356e-20)
(0.0836055 -0.0276414 -1.06432e-19)
(0.0836055 -0.0276414 -1.06432e-19)
(0.111877 -0.0333516 -1.89087e-20)
(0.126232 -0.0353508 4.52585e-20)
(0.141653 -0.0372152 -2.36111e-19)
(0.158186 -0.0389282 6.9191e-20)
(0.158186 -0.0389282 6.9191e-20)
(0.200159 -0.0430192 -8.88158e-20)
(0.220783 -0.0441451 2.0758e-19)
(0.242667 -0.0450158 -9.25613e-20)
(0.265845 -0.0456127 8.22048e-20)
(0.265845 -0.0456127 8.22048e-20)
(0.32298 -0.0457489 -7.87399e-20)
(0.350576 -0.0452273 6.95582e-20)
(0.379508 -0.0443338 -3.72393e-21)
(0.379508 -0.0443338 -3.72393e-21)
)
;
    }
    procBoundary27to21
    {
        type            processor;
        value           nonuniform List<vector> 
37
(
(0.0317519 0.00860562 -3.42197e-20)
(0.0379304 0.00652566 3.00244e-20)
(0.0447115 0.00437399 -5.54862e-20)
(0.0213383 0.0127587 9.8615e-21)
(0.0264419 0.0110899 -4.73396e-20)
(0.0321083 0.0092582 -7.92729e-21)
(0.0383677 0.0072792 8.58356e-21)
(0.0383677 0.0072792 8.58356e-21)
(0.0123871 0.0145289 6.78244e-20)
(0.0164003 0.0134751 -1.8042e-19)
(0.0209281 0.0122302 1.12098e-19)
(0.0260006 0.0107995 -7.56018e-20)
(0.0260006 0.0107995 -7.56018e-20)
(0.00543822 0.0136976 -6.64475e-20)
(0.00837443 0.0132608 -7.31629e-20)
(0.0117739 0.0126364 5.23998e-20)
(0.0156664 0.0118245 -2.57719e-20)
(0.0156664 0.0118245 -2.57719e-20)
(0.00274433 0.0108572 4.58409e-20)
(0.00505895 0.0107595 -1.08289e-19)
(0.00781028 0.0104918 1.36958e-19)
(0.00781028 0.0104918 1.36958e-19)
(-0.000377452 0.00715346 5.51788e-20)
(0.000940359 0.00742156 8.85626e-21)
(0.00263405 0.00754756 -3.46993e-20)
(0.00473242 0.0075267 2.92659e-20)
(0.00473242 0.0075267 2.92659e-20)
(-0.00136702 0.00269902 3.77135e-20)
(-0.00120008 0.00325392 4.14891e-20)
(-0.000746472 0.00370317 5.68244e-21)
(1.98814e-05 0.00404113 -1.2616e-19)
(0.00112602 0.00426226 7.09218e-20)
(0.00112602 0.00426226 7.09218e-20)
(-0.000228079 0.000285173 1.88839e-20)
(-0.000484345 0.000729358 1.74667e-20)
(-0.000481348 0.00109778 8.99898e-21)
(-0.000481348 0.00109778 8.99898e-21)
)
;
    }
    procBoundary27to22
    {
        type            processor;
        value           nonuniform List<vector> 
11
(
(0.0521214 0.00218925 -1.38869e-20)
(0.0796053 -0.00393844 3.75918e-20)
(0.0796053 -0.00393844 3.75918e-20)
(0.113517 -0.0105819 -4.3045e-20)
(0.113517 -0.0105819 -4.3045e-20)
(0.154603 -0.0173077 -3.46339e-19)
(0.154603 -0.0173077 -3.46339e-19)
(0.203578 -0.023557 -1.32616e-19)
(0.203578 -0.023557 -1.32616e-19)
(0.261107 -0.0286405 2.50634e-20)
(0.261107 -0.0286405 2.50634e-20)
)
;
    }
    procBoundary27to26
    {
        type            processor;
        value           nonuniform List<vector> 
17
(
(0.448416 -0.0392792 9.82658e-20)
(0.481526 -0.0368832 -5.70368e-20)
(0.515845 -0.0340586 7.02088e-20)
(0.551316 -0.0308114 -5.31158e-20)
(0.551316 -0.0308114 -5.31158e-20)
(0.631872 -0.0179845 -6.48672e-20)
(0.670234 -0.0130664 -6.81063e-20)
(0.709273 -0.0077856 9.04487e-20)
(0.74883 -0.00218678 -5.37787e-20)
(0.74883 -0.00218678 -5.37787e-20)
(0.833313 0.0186395 1.8921e-19)
(0.872952 0.0254974 -4.60822e-20)
(0.912181 0.0324379 -5.27038e-20)
(0.950719 0.0393766 7.12198e-21)
(0.950719 0.0393766 7.12198e-21)
(1.02684 0.065961 -1.58449e-20)
(1.06128 0.0730856 5.47923e-20)
)
;
    }
    procBoundary27to28
    {
        type            processor;
        value           nonuniform List<vector> 10((0.327819 -0.0317453 7.0663e-20) (0.327819 -0.0317453 7.0663e-20) (0.354195 -0.0322342 -1.92312e-19) (0.435629 -0.0304962 -1.30464e-20) (0.435629 -0.0304962 -1.30464e-20) (0.529817 -0.0216556 1.67575e-19) (0.529817 -0.0216556 1.67575e-19) (0.675745 -0.0459525 0) (0.787985 -0.0366702 0) (0.892123 -0.0269131 0));
    }
    procBoundary27to33
    {
        type            processor;
        value           nonuniform List<vector> 
16
(
(0.995599 0.00683583 2.96428e-20)
(1.01683 0.0266546 -2.73076e-20)
(1.03564 0.0220194 -1.09022e-20)
(1.01683 0.0266546 -2.73076e-20)
(1.02108 0.0398462 -1.0831e-19)
(1.02108 0.0398462 -1.0831e-19)
(1.05891 0.0589728 -1.05621e-19)
(0.995599 0.00683583 2.96428e-20)
(1.04343 0.0177601 2.81527e-21)
(1.00511 0.0052851 -9.09656e-21)
(0.964929 -0.00494033 -6.01989e-20)
(0.964929 -0.00494033 -6.01989e-20)
(1.0136 -0.00164168 3.85914e-20)
(0.973653 -0.011386 -1.60156e-20)
(0.973653 -0.011386 -1.60156e-20)
(1.01682 -0.00882466 3.78233e-20)
)
;
    }
}


// ************************************************************************* //
