/*--------------------------------*- C++ -*----------------------------------*\
  =========                 |
  \\      /  F ield         | OpenFOAM: The Open Source CFD Toolbox
   \\    /   O peration     | Website:  https://openfoam.org
    \\  /    A nd           | Version:  7
     \\/     M anipulation  |
\*---------------------------------------------------------------------------*/
FoamFile
{
    version     2.0;
    format      ascii;
    class       volVectorField;
    location    "3";
    object      U;
}
// * * * * * * * * * * * * * * * * * * * * * * * * * * * * * * * * * * * * * //

dimensions      [0 1 -1 0 0 0 0];

internalField   nonuniform List<vector> 
435
(
(1.26729 0.198189 -7.28723e-20)
(1.273 0.189447 -2.12277e-19)
(1.27812 0.180291 4.62976e-19)
(1.25614 0.186314 4.0102e-20)
(1.26189 0.178832 1.66657e-19)
(1.26727 0.171042 1.74049e-19)
(1.27224 0.162925 4.94787e-20)
(1.2767 0.154456 3.43221e-19)
(1.28057 0.145615 -4.24528e-19)
(1.28376 0.136378 -7.91878e-19)
(1.28616 0.126723 -7.28453e-19)
(1.28764 0.11663 -9.52735e-19)
(1.24445 0.174488 4.53468e-20)
(1.24997 0.167979 7.97984e-20)
(1.25528 0.161243 -5.55833e-19)
(1.26034 0.154264 -1.70207e-19)
(1.2651 0.147022 -2.48079e-19)
(1.26952 0.139495 2.96779e-19)
(1.27351 0.131659 6.94998e-19)
(1.27701 0.12349 -1.28891e-20)
(1.27992 0.114959 1.37634e-18)
(1.23274 0.16304 -5.70262e-20)
(1.23789 0.157293 -7.80311e-20)
(1.24293 0.151378 1.78301e-19)
(1.24783 0.145283 3.50816e-19)
(1.25257 0.138992 2.71985e-19)
(1.25711 0.132488 -9.76771e-19)
(1.26141 0.125751 -4.97703e-20)
(1.26542 0.118757 5.078e-19)
(1.26908 0.111482 -4.45656e-19)
(1.22132 0.152136 -7.8056e-21)
(1.22604 0.147006 -1.75978e-19)
(1.23071 0.141749 -8.33441e-20)
(1.23531 0.136354 -4.58147e-20)
(1.23982 0.130812 1.53872e-20)
(1.24424 0.12511 1.03423e-18)
(1.24853 0.119234 5.32545e-20)
(1.25267 0.113164 1.03569e-19)
(1.2566 0.106882 -2.07628e-19)
(1.2103 0.141865 4.75145e-21)
(1.21458 0.137248 -1.83904e-20)
(1.21884 0.132529 2.06838e-19)
(1.22308 0.127704 -3.67009e-19)
(1.22728 0.122766 -3.34982e-19)
(1.23144 0.117706 -6.57369e-19)
(1.23554 0.112514 -3.37066e-19)
(1.23956 0.107177 5.64453e-20)
(1.24348 0.101681 2.13664e-19)
(1.19971 0.13224 2.74188e-21)
(1.20358 0.12806 -2.0658e-20)
(1.20745 0.123799 -2.48537e-19)
(1.21131 0.119453 -1.06201e-19)
(1.21516 0.115017 2.23485e-19)
(1.21899 0.110486 2.52124e-19)
(1.22281 0.105852 3.6634e-19)
(1.2266 0.101109 1.60821e-19)
(1.23034 0.0962448 4.38959e-20)
(1.18959 0.123236 -1.14611e-20)
(1.19307 0.119443 1.3354e-19)
(1.19656 0.115582 3.43407e-20)
(1.20005 0.11165 -1.90481e-19)
(1.20355 0.107645 -7.33175e-21)
(1.20705 0.103562 -4.15714e-19)
(1.21055 0.0993987 -6.5147e-19)
(1.21405 0.0951489 -2.28643e-19)
(1.21753 0.0908065 1.34573e-19)
(1.17992 0.114848 -8.69336e-22)
(1.18305 0.111397 1.17519e-19)
(1.18619 0.107887 3.53548e-20)
(1.18934 0.104318 1.78182e-19)
(1.1925 0.100688 1.09906e-19)
(1.19567 0.096994 -2.41249e-21)
(1.19885 0.0932344 5.95714e-19)
(1.20204 0.0894059 1.81811e-19)
(1.20523 0.0855044 -1.23272e-19)
(1.17065 0.107035 2.76821e-20)
(1.17346 0.103888 -1.19334e-19)
(1.17629 0.100691 6.61092e-20)
(1.17913 0.0974448 1.04606e-19)
(1.18198 0.0941468 -2.02579e-19)
(1.18484 0.0907961 2.66065e-19)
(1.18772 0.0873909 -3.05808e-19)
(1.19061 0.0839295 -5.48643e-20)
(1.19352 0.0804095 -1.46021e-20)
(1.16179 0.099744 -3.64331e-20)
(1.16432 0.0968742 -1.11166e-20)
(1.16686 0.0939619 -5.98918e-21)
(1.16942 0.0910064 1.97434e-19)
(1.17199 0.088007 1.78164e-19)
(1.17457 0.0849629 4.27002e-21)
(1.17717 0.0818732 2.29393e-19)
(1.17979 0.0787369 5.21034e-21)
(1.18241 0.0755525 9.17886e-20)
(1.1533 0.0929394 3.82585e-20)
(1.15558 0.0903213 1.14026e-19)
(1.15787 0.0876665 -1.38996e-19)
(1.16018 0.0849745 -1.3138e-19)
(1.16249 0.0822448 4.89516e-20)
(1.16482 0.0794771 -5.80393e-20)
(1.16717 0.0766707 2.97825e-19)
(1.16953 0.0738252 2.75955e-20)
(1.1719 0.0709399 -2.88227e-19)
(1.14519 0.0865752 1.39287e-20)
(1.14724 0.0841882 -5.15783e-20)
(1.14931 0.081769 5.64887e-20)
(1.15138 0.0793173 9.77735e-20)
(1.15347 0.076833 -1.34746e-19)
(1.15558 0.0743159 2.7461e-19)
(1.15769 0.0717658 -2.05797e-19)
(1.15982 0.0691824 -3.02905e-19)
(1.16197 0.0665657 1.73565e-19)
(1.13742 0.0806222 1.92475e-20)
(1.13927 0.0784456 -5.51667e-20)
(1.14114 0.0762407 5.86773e-20)
(1.14302 0.0740076 -1.96577e-19)
(1.1449 0.0717462 8.19933e-20)
(1.1468 0.0694566 -3.73628e-21)
(1.14872 0.0671386 -2.08122e-19)
(1.15064 0.0647924 1.06469e-19)
(1.15258 0.0624179 -4.44885e-19)
(1.12999 0.0750371 -6.86917e-20)
(1.13167 0.0730536 3.92975e-20)
(1.13336 0.0710454 3.23712e-21)
(1.13506 0.0690124 1.62496e-19)
(1.13676 0.0669548 3.18294e-20)
(1.13848 0.0648727 -4.65688e-20)
(1.14021 0.0627662 2.95484e-19)
(1.14195 0.0606355 -2.67964e-19)
(1.1437 0.0584808 6.24402e-20)
(1.12289 0.0697837 1.49139e-20)
(1.12441 0.0679781 -7.32164e-21)
(1.12594 0.0661507 -1.2126e-19)
(1.12748 0.0643016 -6.26351e-20)
(1.12903 0.0624309 -1.41909e-19)
(1.13059 0.0605388 -7.81203e-20)
(1.13216 0.0586255 -8.90049e-20)
(1.13373 0.0566914 2.34022e-19)
(1.13531 0.0547367 -1.56513e-19)
(1.11611 0.0648305 -2.09936e-21)
(1.1175 0.063189 7.20307e-20)
(1.11889 0.0615281 -5.66191e-20)
(1.12029 0.059848 -3.03915e-20)
(1.1217 0.0581489 1.50645e-19)
(1.12312 0.0564311 1.19405e-19)
(1.12454 0.0546949 2.03293e-19)
(1.12596 0.0529406 2.16128e-20)
(1.1274 0.0511685 2.2564e-19)
(1.10965 0.0601478 7.1913e-21)
(1.11092 0.0586575 -1.18519e-20)
(1.11219 0.0571499 1.03571e-19)
(1.11347 0.0556254 2.54471e-20)
(1.11475 0.0540842 1.03279e-19)
(1.11604 0.0525265 -3.34769e-19)
(1.11733 0.0509529 1.54225e-19)
(1.11863 0.0493634 -2.79723e-19)
(1.11993 0.0477587 5.04253e-19)
(1.10351 0.0556997 -1.26592e-20)
(1.10467 0.05435 -3.2781e-20)
(1.10584 0.0529849 4.52975e-21)
(1.10701 0.0516046 5.49043e-20)
(1.10818 0.0502096 1.07278e-19)
(1.10936 0.0488001 6.77333e-20)
(1.11054 0.0473765 9.24501e-20)
(1.11172 0.0459391 -1.43656e-19)
(1.1129 0.0444884 -2.72132e-19)
(1.09769 0.0514663 -1.31445e-20)
(1.09876 0.0502463 4.18719e-20)
(1.09983 0.0490127 1.20285e-20)
(1.10091 0.0477657 -1.45998e-20)
(1.10198 0.0465056 -1.28572e-19)
(1.10306 0.0452328 9.18006e-20)
(1.10413 0.0439476 -9.29181e-20)
(1.10521 0.0426503 2.56199e-19)
(1.10629 0.0413414 5.80056e-20)
(1.09218 0.0474144 1.07122e-20)
(1.09317 0.0463155 -1.91407e-20)
(1.09416 0.0452045 -2.75279e-21)
(1.09515 0.0440815 1.12598e-20)
(1.09614 0.042947 -1.60071e-20)
(1.09713 0.0418012 8.54044e-20)
(1.09812 0.0406445 -4.4926e-20)
(1.09911 0.0394772 7.32263e-20)
(1.10009 0.0382996 -5.83126e-20)
(1.087 0.0435199 -7.91104e-21)
(1.08792 0.0425344 4.087e-21)
(1.08883 0.0415379 2.94107e-20)
(1.08975 0.0405308 -8.5187e-20)
(1.09067 0.0395134 -1.33034e-19)
(1.09158 0.0384859 -1.51881e-19)
(1.09249 0.0374487 1.51961e-20)
(1.09339 0.0364022 -1.25283e-19)
(1.0943 0.0353466 2.29685e-19)
(1.08214 0.0397655 3.1234e-21)
(1.08299 0.0388852 7.77018e-21)
(1.08385 0.0379951 -3.5543e-20)
(1.0847 0.0370957 4.51541e-20)
(1.08555 0.0361871 2.98313e-20)
(1.08639 0.0352696 1.03346e-19)
(1.08723 0.0343436 1.22346e-20)
(1.08807 0.0334093 1.62181e-20)
(1.0889 0.032467 -1.25e-19)
(1.07761 0.0361251 -2.75462e-20)
(1.07841 0.0353434 5.30876e-20)
(1.07921 0.0345531 -8.91247e-22)
(1.08 0.0337544 -1.41033e-20)
(1.08079 0.0329477 -1.00747e-19)
(1.08158 0.0321331 1.80607e-20)
(1.08236 0.0313109 -2.78171e-19)
(1.08313 0.0304815 -1.26903e-20)
(1.0839 0.0296451 5.90599e-20)
(1.07341 0.0325797 6.33852e-21)
(1.07416 0.0318904 -3.01523e-20)
(1.07491 0.0311935 6.0627e-20)
(1.07566 0.0304893 -3.47087e-20)
(1.0764 0.029778 1.55627e-19)
(1.07713 0.0290598 -6.6328e-20)
(1.07786 0.0283349 9.9468e-20)
(1.07858 0.0276036 1.234e-19)
(1.07929 0.0268661 -1.77056e-20)
(1.06955 0.0291092 -4.01044e-21)
(1.07026 0.0285069 -6.05836e-21)
(1.07097 0.0278979 -8.55949e-21)
(1.07167 0.0272825 -9.25033e-20)
(1.07237 0.0266609 -4.7006e-20)
(1.07306 0.0260332 7.02968e-20)
(1.07374 0.0253997 -1.07124e-20)
(1.07441 0.0247605 -2.43406e-20)
(1.07507 0.0241159 1.84195e-19)
(1.06604 0.0256952 1.29739e-20)
(1.06672 0.0251749 -1.83739e-21)
(1.06739 0.0246488 7.78855e-20)
(1.06806 0.0241172 -6.82127e-20)
(1.06872 0.0235801 1.382e-19)
(1.06936 0.0230378 -3.90588e-20)
(1.07 0.0224904 -2.49774e-20)
(1.07064 0.021938 -5.88623e-20)
(1.07126 0.0213809 -2.69056e-19)
(1.0629 0.0223191 -1.91977e-21)
(1.06355 0.0218764 8.14066e-21)
(1.06419 0.0214289 7.97049e-21)
(1.06482 0.0209766 -2.93766e-20)
(1.06544 0.0205196 -4.86439e-20)
(1.06606 0.0200581 1.09878e-19)
(1.06666 0.0195922 -5.01514e-20)
(1.06726 0.0191221 1.18421e-19)
(1.06785 0.0186478 1.72651e-20)
(1.06013 0.0189629 -3.58453e-21)
(1.06075 0.0185942 -6.7955e-21)
(1.06136 0.0182214 -2.79841e-21)
(1.06197 0.0178445 -3.85979e-21)
(1.06257 0.0174638 -1.14034e-19)
(1.06315 0.0170792 1.52187e-19)
(1.06373 0.0166909 -1.47006e-19)
(1.06429 0.0162989 -1.30256e-20)
(1.06485 0.0159034 -3.381e-21)
(1.05775 0.0156081 -9.53379e-21)
(1.05835 0.0153102 7.16399e-20)
(1.05894 0.0150089 -5.76337e-20)
(1.05952 0.0147043 5.84476e-21)
(1.0601 0.0143965 -2.3169e-20)
(1.06066 0.0140856 7.7774e-20)
(1.06121 0.0137716 4.44127e-20)
(1.06175 0.0134546 -2.97302e-20)
(1.06228 0.0131345 2.97679e-20)
(1.05578 0.0122365 9.33902e-21)
(1.05636 0.0120068 -1.41833e-20)
(1.05694 0.0117744 3.34596e-22)
(1.0575 0.0115395 9.02688e-21)
(1.05805 0.0113021 -1.29474e-20)
(1.0586 0.0110622 6.77579e-20)
(1.05913 0.0108199 -4.98544e-20)
(1.05965 0.0105751 -3.05391e-22)
(1.06016 0.0103279 -5.09636e-20)
(1.05425 0.0088259 -1.93233e-21)
(1.05482 0.00866265 1.53408e-20)
(1.05537 0.00849755 -2.64775e-20)
(1.05592 0.00833063 -4.34489e-20)
(1.05646 0.00816189 1.40171e-19)
(1.05699 0.00799134 -9.46959e-20)
(1.05751 0.007819 -4.03432e-20)
(1.05801 0.00764487 1.82643e-20)
(1.05851 0.00746895 -1.94423e-20)
(1.05318 0.00535785 1.52709e-20)
(1.05374 0.00525965 -7.16255e-21)
(1.05429 0.00516032 -5.00826e-21)
(1.05483 0.00505987 1.07968e-19)
(1.05535 0.0049583 -1.81425e-19)
(1.05587 0.00485561 8.84718e-20)
(1.05638 0.00475181 4.64729e-20)
(1.05687 0.00464691 1.24827e-19)
(1.05735 0.00454088 -3.24443e-19)
(1.05261 0.00179978 -1.06554e-20)
(1.05316 0.00176686 7.23054e-21)
(1.0537 0.00173358 -2.70966e-20)
(1.05424 0.00169994 9.008e-21)
(1.05476 0.00166595 4.93401e-20)
(1.05527 0.0016316 -7.37598e-20)
(1.05577 0.0015969 -2.62389e-20)
(1.05626 0.00156186 6.62722e-21)
(1.05674 0.00152647 -7.20876e-20)
(1.24738 0.22212 -5.05665e-19)
(1.25441 0.214507 1.95701e-19)
(1.26107 0.206536 1.00579e-19)
(1.2305 0.213506 -7.79158e-20)
(1.23723 0.207089 -1.57567e-19)
(1.24376 0.200427 -2.05015e-19)
(1.25008 0.193506 -1.89394e-20)
(1.2209 0.198532 1.94224e-19)
(1.22696 0.192797 5.87816e-19)
(1.23292 0.186887 -5.63605e-20)
(1.23876 0.180787 -6.02814e-20)
(1.21126 0.184533 -3.45718e-19)
(1.21676 0.179368 -2.2861e-19)
(1.22217 0.17407 9.43115e-20)
(1.2275 0.168629 3.94598e-20)
(1.202 0.17147 -4.46559e-20)
(1.2069 0.166808 1.595e-19)
(1.21175 0.162032 2.12886e-19)
(1.21655 0.157143 4.54028e-21)
(1.19297 0.159405 4.10217e-19)
(1.19733 0.155154 -1.79526e-19)
(1.20167 0.150815 -1.27297e-20)
(1.20599 0.146386 -1.99044e-20)
(1.18418 0.148202 8.81316e-20)
(1.18807 0.144321 3.06925e-19)
(1.19196 0.140367 -1.15061e-20)
(1.19584 0.136341 1.46376e-20)
(1.17568 0.137754 2.04524e-19)
(1.17914 0.134218 -5.63572e-20)
(1.18262 0.130622 -1.27035e-19)
(1.1861 0.126962 2.03815e-20)
(1.16745 0.128087 -1.16895e-19)
(1.17057 0.12486 -1.03745e-19)
(1.17369 0.12158 -1.25039e-19)
(1.1768 0.118243 -4.72363e-21)
(1.1595 0.119147 -8.20758e-20)
(1.16228 0.11619 -1.24204e-19)
(1.16506 0.113185 1.5658e-19)
(1.16785 0.110133 -3.74492e-20)
(1.15178 0.110814 -2.42402e-19)
(1.15427 0.108107 -2.88462e-20)
(1.15677 0.105359 -4.80546e-20)
(1.15927 0.102572 1.94566e-20)
(1.14432 0.103054 1.21814e-19)
(1.14654 0.100579 1.19733e-19)
(1.14878 0.0980673 5.46819e-20)
(1.15104 0.0955211 -2.95467e-20)
(1.13709 0.0958058 1.31596e-19)
(1.1391 0.0935449 -1.46622e-21)
(1.14111 0.0912533 5.6484e-21)
(1.14315 0.0889302 -7.16775e-22)
(1.13011 0.0890476 -4.26545e-20)
(1.13192 0.0869831 -5.89976e-20)
(1.13374 0.084891 3.98567e-20)
(1.13557 0.0827707 -5.24637e-21)
(1.12337 0.0827228 -1.32095e-19)
(1.12501 0.0808386 -5.22049e-20)
(1.12666 0.0789297 -2.64755e-21)
(1.12832 0.0769958 4.17699e-20)
(1.11688 0.0767854 1.17718e-19)
(1.11837 0.0750678 8.02645e-20)
(1.11986 0.0733284 1.95164e-20)
(1.12137 0.0715671 -3.24421e-20)
(1.11063 0.0712001 4.66947e-20)
(1.11199 0.069637 6.81242e-21)
(1.11335 0.0680545 -2.05814e-20)
(1.11473 0.0664524 -1.37807e-20)
(1.10464 0.0659324 -2.44873e-20)
(1.10588 0.0645131 -7.53953e-20)
(1.10713 0.0630758 -2.5668e-20)
(1.10839 0.0616207 -3.28662e-21)
(1.0989 0.0609408 -5.27189e-20)
(1.10005 0.0596541 1.1352e-20)
(1.1012 0.0583518 1.25381e-20)
(1.10235 0.0570337 1.31635e-20)
(1.09343 0.0562039 1.81656e-20)
(1.09449 0.055042 -5.38941e-20)
(1.09556 0.0538646 2.01751e-20)
(1.09662 0.0526725 -1.10403e-20)
(1.08825 0.0516823 -6.75131e-21)
(1.08922 0.0506357 6.15922e-20)
(1.09021 0.0495749 -1.7231e-20)
(1.09119 0.048501 4.57473e-21)
(1.08333 0.0473482 -4.42353e-20)
(1.08424 0.0464081 -3.25438e-21)
(1.08516 0.0454569 7.68936e-20)
(1.08608 0.0444942 -9.70083e-21)
(1.0787 0.0431848 -4.38837e-20)
(1.07956 0.0423457 2.74508e-20)
(1.08042 0.041496 4.03589e-21)
(1.08128 0.0406359 -9.162e-21)
(1.07437 0.0391614 7.42528e-20)
(1.07518 0.0384164 -1.41954e-20)
(1.07599 0.0376618 -2.99281e-20)
(1.0768 0.036898 -3.46116e-21)
(1.07035 0.0352566 -8.94527e-20)
(1.07112 0.0345998 4.90302e-20)
(1.07188 0.0339346 1.29272e-20)
(1.07265 0.0332611 -1.03219e-20)
(1.06664 0.0314484 7.59277e-20)
(1.06738 0.0308745 4.99959e-20)
(1.06811 0.0302932 -2.41684e-21)
(1.06883 0.0297047 -8.56776e-21)
(1.06327 0.0277157 -2.07597e-22)
(1.06397 0.02722 2.41062e-20)
(1.06467 0.0267179 -1.64922e-20)
(1.06536 0.0262096 4.18766e-21)
(1.06024 0.0240378 -2.62864e-20)
(1.06091 0.0236162 -2.76607e-20)
(1.06158 0.0231891 2.85864e-20)
(1.06224 0.0227567 9.66104e-21)
(1.05756 0.0203947 -3.63803e-20)
(1.05822 0.0200434 6.24515e-20)
(1.05886 0.0196877 -1.44383e-21)
(1.0595 0.0193274 -7.41061e-21)
(1.05527 0.0167652 3.09384e-20)
(1.0559 0.0164813 -7.71561e-20)
(1.05652 0.0161938 4.36218e-20)
(1.05714 0.0159027 -7.77064e-21)
(1.05336 0.0131287 -1.30416e-20)
(1.05398 0.0129098 1.18862e-20)
(1.05459 0.0126881 -1.58811e-20)
(1.05519 0.0124637 1.23219e-20)
(1.05188 0.00945998 6.74195e-20)
(1.05249 0.00930436 -3.26616e-20)
(1.05308 0.00914678 2.5127e-20)
(1.05367 0.00898728 -1.55165e-21)
(1.05086 0.00573904 -1.12181e-19)
(1.05145 0.00564552 -9.5866e-21)
(1.05204 0.0055508 -1.02967e-20)
(1.05261 0.0054549 1.73222e-20)
(1.05031 0.00192767 5.1473e-20)
(1.0509 0.00189627 -2.60318e-20)
(1.05148 0.00186449 7.80794e-21)
(1.05205 0.00183232 -1.10961e-20)
)
;

boundaryField
{
    inlet
    {
        type            uniformFixedValue;
        uniformValue    constant (1 0 0);
        value           nonuniform 0();
    }
    outlet
    {
        type            pressureInletOutletVelocity;
        value           nonuniform 0();
    }
    cylinder
    {
        type            fixedValue;
        value           nonuniform 0();
    }
    top
    {
        type            symmetryPlane;
    }
    bottom
    {
        type            symmetryPlane;
    }
    defaultFaces
    {
        type            empty;
    }
    procBoundary32to26
    {
        type            processor;
        value           nonuniform List<vector> 
15
(
(1.27694 0.209587 -9.6822e-20)
(1.28219 0.199207 -7.59808e-20)
(1.28651 0.188288 5.36439e-19)
(1.28255 0.1707 -1.495e-19)
(1.28255 0.1707 -1.495e-19)
(1.28619 0.160657 9.42555e-20)
(1.28891 0.150144 -2.90206e-19)
(1.29058 0.13915 7.70314e-20)
(1.29107 0.127665 1.63438e-19)
(1.29024 0.11569 -7.19254e-19)
(1.25679 0.237632 -5.81636e-19)
(1.26414 0.228782 1.00416e-19)
(1.27089 0.21944 9.11577e-20)
(1.24005 0.229388 1.68883e-19)
(1.24005 0.229388 1.68883e-19)
)
;
    }
    procBoundary32to31
    {
        type            processor;
        value           nonuniform List<vector> 
33
(
(1.22359 0.219681 4.6727e-19)
(1.21473 0.204107 2.58729e-19)
(1.2057 0.18958 -2.36951e-19)
(1.19706 0.176015 -1.93211e-20)
(1.18857 0.163562 -6.67985e-20)
(1.18028 0.152004 1.40075e-19)
(1.17223 0.141234 1.50407e-19)
(1.16435 0.13127 -8.51923e-21)
(1.15673 0.122056 8.34445e-20)
(1.1493 0.113477 -2.94021e-19)
(1.14211 0.105491 2.90331e-20)
(1.1351 0.0980374 -1.4486e-20)
(1.12832 0.0910864 -1.63444e-19)
(1.12175 0.084583 3.99304e-20)
(1.1154 0.0784812 9.88153e-20)
(1.10928 0.0727434 7.61508e-20)
(1.1034 0.0673337 -7.13243e-21)
(1.09777 0.0622111 4.84916e-20)
(1.09238 0.0573511 2.06419e-22)
(1.08727 0.0527155 -9.86855e-20)
(1.08241 0.0482761 7.68551e-20)
(1.07784 0.0440131 -2.11795e-19)
(1.07356 0.0398968 1.27587e-19)
(1.06958 0.0359048 -2.65973e-20)
(1.06591 0.0320147 1.07859e-19)
(1.06256 0.0282048 1.77308e-20)
(1.05956 0.0244539 -1.02975e-19)
(1.05691 0.0207413 -1.813e-20)
(1.05463 0.0170453 -9.92773e-21)
(1.05274 0.0133448 -7.43527e-21)
(1.05127 0.00961363 1.26519e-19)
(1.05025 0.00583135 -2.01661e-19)
(1.04972 0.00195866 6.02688e-20)
)
;
    }
    procBoundary32to33
    {
        type            processor;
        value           nonuniform List<vector> 
33
(
(1.28808 0.106084 -4.25051e-20)
(1.28213 0.106043 3.8235e-19)
(1.2723 0.103899 2.29602e-19)
(1.26029 0.100363 -3.81662e-19)
(1.24728 0.0960073 3.05521e-19)
(1.23403 0.0912482 -4.80532e-19)
(1.221 0.0863636 -1.49318e-19)
(1.20843 0.0815253 3.4037e-19)
(1.19644 0.0768281 -3.85994e-20)
(1.18506 0.0723187 -1.39074e-19)
(1.17429 0.068014 -4.06395e-19)
(1.16413 0.0639152 2.38591e-19)
(1.15452 0.0600151 -1.72143e-19)
(1.14546 0.0563021 -2.97659e-19)
(1.1369 0.0527616 5.60326e-19)
(1.12884 0.049379 -3.57939e-19)
(1.12123 0.0461389 1.80607e-19)
(1.11408 0.0430246 -1.41865e-19)
(1.10737 0.0400212 1.27305e-19)
(1.10107 0.0371122 9.64137e-20)
(1.09519 0.0342823 1.31406e-19)
(1.08972 0.0315172 -2.31553e-21)
(1.08466 0.0288019 1.57176e-19)
(1.07999 0.0261226 -4.83052e-20)
(1.07573 0.023466 2.31133e-19)
(1.07187 0.0208191 -3.12958e-19)
(1.06842 0.0181694 1.07338e-19)
(1.06539 0.0155044 -1.55128e-19)
(1.0628 0.0128116 5.62572e-20)
(1.06066 0.0100784 -1.61079e-19)
(1.05899 0.00729122 8.87442e-20)
(1.05783 0.00443375 -2.52099e-19)
(1.0572 0.00149075 -2.46068e-19)
)
;
    }
}


// ************************************************************************* //
