/*--------------------------------*- C++ -*----------------------------------*\
  =========                 |
  \\      /  F ield         | OpenFOAM: The Open Source CFD Toolbox
   \\    /   O peration     | Website:  https://openfoam.org
    \\  /    A nd           | Version:  7
     \\/     M anipulation  |
\*---------------------------------------------------------------------------*/
FoamFile
{
    version     2.0;
    format      ascii;
    class       volVectorField;
    location    "0.2";
    object      U;
}
// * * * * * * * * * * * * * * * * * * * * * * * * * * * * * * * * * * * * * //

dimensions      [0 1 -1 0 0 0 0];

internalField   nonuniform List<vector> 
344
(
(0.926438 -1.47073e-06 -3.30573e-15)
(0.926438 -1.70465e-06 -3.26902e-15)
(0.926437 -1.98054e-06 -3.38874e-15)
(0.926436 -2.30475e-06 -3.09319e-15)
(0.926435 -2.68393e-06 -3.30373e-15)
(0.926434 -3.12282e-06 -3.28847e-15)
(0.926433 -3.64205e-06 -3.40964e-15)
(0.926432 -4.25465e-06 -3.12783e-15)
(0.92643 -4.9635e-06 -3.3538e-15)
(0.926429 -5.78813e-06 -3.35597e-15)
(0.926426 -6.74925e-06 -3.4584e-15)
(0.926424 -7.87032e-06 -3.1968e-15)
(0.926421 -9.17768e-06 -3.41914e-15)
(0.926418 -1.0704e-05 -3.42441e-15)
(0.926414 -1.24815e-05 -3.51306e-15)
(0.926409 -1.45728e-05 -3.22817e-15)
(0.926404 -1.6976e-05 -3.3968e-15)
(0.868681 7.83106e-07 5.4096e-15)
(0.868681 6.3215e-07 5.40979e-15)
(0.868681 5.3488e-07 4.79428e-15)
(0.868681 4.70122e-07 4.49698e-15)
(0.868681 4.15637e-07 4.08103e-15)
(0.868681 3.66614e-07 3.92213e-15)
(0.868681 3.21901e-07 3.32346e-15)
(0.868681 2.81715e-07 2.94268e-15)
(0.868681 2.46008e-07 2.50531e-15)
(0.868681 2.14775e-07 2.31386e-15)
(0.868681 1.87479e-07 1.76851e-15)
(0.868681 1.63712e-07 1.56188e-15)
(0.868681 1.42887e-07 1.33258e-15)
(0.868681 1.24505e-07 1.45095e-15)
(0.868681 1.08119e-07 1.32348e-15)
(0.868681 9.34009e-08 1.55875e-15)
(0.868681 8.01665e-08 1.85594e-15)
(0.868682 6.82477e-08 2.19432e-15)
(0.868682 5.74382e-08 2.52085e-15)
(0.868682 4.75764e-08 2.8688e-15)
(0.868682 3.85227e-08 3.24072e-15)
(0.868682 3.01405e-08 3.60078e-15)
(0.868682 2.23133e-08 3.96948e-15)
(0.868682 1.48949e-08 4.33725e-15)
(0.868682 7.74498e-09 4.65925e-15)
(0.868682 7.30862e-10 4.93891e-15)
(0.868682 -6.30808e-09 5.04202e-15)
(0.868682 -1.35425e-08 4.55577e-15)
(0.868682 -2.11385e-08 4.31499e-15)
(0.868682 -2.9224e-08 3.98232e-15)
(0.868682 -3.79876e-08 3.81094e-15)
(0.868681 -4.76649e-08 3.24754e-15)
(0.868681 -5.85004e-08 2.93251e-15)
(0.868681 -7.06739e-08 2.54847e-15)
(0.868681 -8.46025e-08 1.77304e-15)
(0.868681 -1.0052e-07 1.13072e-15)
(0.868681 -1.19014e-07 4.87322e-16)
(0.868681 -1.4069e-07 1.7223e-16)
(0.868681 -1.65761e-07 -4.16602e-16)
(0.868681 -1.94773e-07 -8.53567e-16)
(0.868681 -2.28332e-07 -1.37372e-15)
(0.868681 -2.67189e-07 -1.58186e-15)
(0.868681 -3.12204e-07 -2.08046e-15)
(0.868681 -3.643e-07 -2.38731e-15)
(0.868681 -4.24101e-07 -2.79263e-15)
(0.86868 -4.93595e-07 -2.83918e-15)
(0.86868 -5.76724e-07 -2.76847e-15)
(0.86868 -6.75403e-07 -2.97696e-15)
(0.86868 -7.90952e-07 -3.06087e-15)
(0.868679 -9.25236e-07 -3.22805e-15)
(0.868679 -1.08831e-06 -3.01748e-15)
(0.868678 -1.27045e-06 -3.17091e-15)
(0.868678 -1.47076e-06 -3.15899e-15)
(0.868677 -1.70974e-06 -3.23981e-15)
(0.868676 -1.99086e-06 -3.06235e-15)
(0.868676 -2.31886e-06 -3.16959e-15)
(0.868675 -2.6978e-06 -3.17148e-15)
(0.868673 -3.14739e-06 -3.26544e-15)
(0.868672 -3.67757e-06 -3.09048e-15)
(0.868671 -4.28913e-06 -3.21919e-15)
(0.868669 -5.00055e-06 -3.22543e-15)
(0.868667 -5.83005e-06 -3.32793e-15)
(0.868664 -6.79786e-06 -3.16638e-15)
(0.868661 -7.92661e-06 -3.28225e-15)
(0.868658 -9.2446e-06 -3.28685e-15)
(0.868654 -1.07792e-05 -3.36411e-15)
(0.868649 -1.25833e-05 -3.18121e-15)
(0.868643 -1.46612e-05 -3.27824e-15)
(0.8038 7.25231e-07 4.99842e-15)
(0.8038 5.95343e-07 4.99065e-15)
(0.803801 5.00424e-07 4.26284e-15)
(0.803801 4.3605e-07 4.02251e-15)
(0.803801 3.82926e-07 3.52638e-15)
(0.803801 3.35885e-07 3.50792e-15)
(0.803801 2.93724e-07 2.87514e-15)
(0.803801 2.56201e-07 2.57931e-15)
(0.803801 2.23176e-07 2.0775e-15)
(0.803801 1.94407e-07 2.04472e-15)
(0.803801 1.69384e-07 1.49851e-15)
(0.803801 1.4757e-07 1.34357e-15)
(0.803801 1.28528e-07 1.05131e-15)
(0.803801 1.11735e-07 1.29102e-15)
(0.803801 9.68476e-08 1.12158e-15)
(0.803801 8.3542e-08 1.45659e-15)
(0.803801 7.16413e-08 1.78576e-15)
(0.803801 6.09861e-08 2.11058e-15)
(0.803801 5.1331e-08 2.41135e-15)
(0.803801 4.25457e-08 2.7498e-15)
(0.803801 3.45028e-08 3.08102e-15)
(0.803801 2.70912e-08 3.41939e-15)
(0.803801 2.02102e-08 3.73534e-15)
(0.803801 1.36987e-08 4.06857e-15)
(0.803801 7.45534e-09 4.35736e-15)
(0.803801 1.36914e-09 4.56136e-15)
(0.803801 -4.70535e-09 4.68509e-15)
(0.803801 -1.09055e-08 4.06276e-15)
(0.803801 -1.74096e-08 3.87546e-15)
(0.803801 -2.43096e-08 3.43843e-15)
(0.803801 -3.17727e-08 3.40561e-15)
(0.803801 -4.00057e-08 2.81428e-15)
(0.803801 -4.92234e-08 2.5513e-15)
(0.803801 -5.95609e-08 2.06788e-15)
(0.803801 -7.13752e-08 1.33056e-15)
(0.803801 -8.48689e-08 7.71501e-16)
(0.803801 -1.00528e-07 1.57388e-16)
(0.803801 -1.18853e-07 -1.42805e-16)
(0.803801 -1.4006e-07 -6.73633e-16)
(0.803801 -1.64603e-07 -1.05013e-15)
(0.803801 -1.92969e-07 -1.53337e-15)
(0.803801 -2.25782e-07 -1.72956e-15)
(0.803801 -2.63755e-07 -2.16143e-15)
(0.803801 -3.07713e-07 -2.43003e-15)
(0.8038 -3.58209e-07 -2.76848e-15)
(0.8038 -4.16973e-07 -2.72303e-15)
(0.8038 -4.87258e-07 -2.70557e-15)
(0.8038 -5.70608e-07 -2.92334e-15)
(0.8038 -6.68264e-07 -2.97706e-15)
(0.803799 -7.81586e-07 -3.12974e-15)
(0.803799 -9.18231e-07 -2.98639e-15)
(0.803798 -1.06987e-06 -3.08977e-15)
(0.803798 -1.23874e-06 -3.06355e-15)
(0.803797 -1.44234e-06 -3.15538e-15)
(0.803796 -1.68116e-06 -3.01435e-15)
(0.803796 -1.95896e-06 -3.09476e-15)
(0.803795 -2.28118e-06 -3.06701e-15)
(0.803793 -2.66235e-06 -3.18074e-15)
(0.803792 -3.10883e-06 -3.05632e-15)
(0.80379 -3.62375e-06 -3.1459e-15)
(0.803789 -4.22329e-06 -3.12814e-15)
(0.803786 -4.92294e-06 -3.24348e-15)
(0.803784 -5.73955e-06 -3.11134e-15)
(0.803781 -6.69209e-06 -3.1943e-15)
(0.803778 -7.80439e-06 -3.17369e-15)
(0.803774 -9.09948e-06 -3.26766e-15)
(0.803769 -1.06199e-05 -3.10732e-15)
(0.803764 -1.23752e-05 -3.18163e-15)
(0.731746 6.43625e-07 4.61956e-15)
(0.731746 5.48935e-07 4.36771e-15)
(0.731746 4.58757e-07 3.63897e-15)
(0.731746 3.93499e-07 3.55633e-15)
(0.731746 3.4186e-07 2.9322e-15)
(0.731746 2.978e-07 3.16651e-15)
(0.731746 2.59287e-07 2.36719e-15)
(0.731746 2.25478e-07 2.24508e-15)
(0.731746 1.95956e-07 1.60897e-15)
(0.731747 1.70337e-07 1.84205e-15)
(0.731747 1.48133e-07 1.14527e-15)
(0.731747 1.28829e-07 1.1679e-15)
(0.731747 1.12003e-07 7.39596e-16)
(0.731747 9.72094e-08 1.2281e-15)
(0.731747 8.41231e-08 8.92286e-16)
(0.731747 7.24705e-08 1.43991e-15)
(0.731747 6.20814e-08 1.78501e-15)
(0.731747 5.28055e-08 2.09004e-15)
(0.731747 4.44375e-08 2.38205e-15)
(0.731747 3.68519e-08 2.67639e-15)
(0.731747 2.99483e-08 2.97896e-15)
(0.731747 2.3591e-08 3.26889e-15)
(0.731747 1.77066e-08 3.54667e-15)
(0.731747 1.2166e-08 3.86996e-15)
(0.731747 6.88621e-09 4.09707e-15)
(0.731747 1.76664e-09 4.25389e-15)
(0.731747 -3.33912e-09 4.11085e-15)
(0.731747 -8.52435e-09 3.48262e-15)
(0.731747 -1.3943e-08 3.44003e-15)
(0.731747 -1.96717e-08 2.87414e-15)
(0.731747 -2.58719e-08 3.07515e-15)
(0.731747 -3.26791e-08 2.32052e-15)
(0.731747 -4.02833e-08 2.21232e-15)
(0.731747 -4.88108e-08 1.57737e-15)
(0.731747 -5.85413e-08 8.31957e-16)
(0.731747 -6.96547e-08 3.84283e-16)
(0.731747 -8.25451e-08 -2.22964e-16)
(0.731747 -9.76141e-08 -4.52428e-16)
(0.731747 -1.15054e-07 -9.45831e-16)
(0.731747 -1.35222e-07 -1.25276e-15)
(0.731746 -1.58522e-07 -1.71507e-15)
(0.731746 -1.8545e-07 -1.86249e-15)
(0.731746 -2.16608e-07 -2.28284e-15)
(0.731746 -2.52668e-07 -2.46042e-15)
(0.731746 -2.94137e-07 -2.80689e-15)
(0.731746 -3.42446e-07 -2.57145e-15)
(0.731746 -4.00191e-07 -2.65178e-15)
(0.731745 -4.68597e-07 -2.89878e-15)
(0.731745 -5.48724e-07 -2.90971e-15)
(0.731745 -6.4148e-07 -3.08945e-15)
(0.731744 -7.51653e-07 -2.93868e-15)
(0.731744 -8.73993e-07 -3.06723e-15)
(0.731743 -1.01356e-06 -2.98335e-15)
(0.731743 -1.18271e-06 -3.12774e-15)
(0.731742 -1.38004e-06 -2.95691e-15)
(0.731741 -1.60934e-06 -3.07034e-15)
(0.73174 -1.87776e-06 -3.00088e-15)
(0.731739 -2.19245e-06 -3.14865e-15)
(0.731738 -2.55588e-06 -2.99056e-15)
(0.731736 -2.97609e-06 -3.1157e-15)
(0.731734 -3.46683e-06 -3.0563e-15)
(0.731732 -4.04023e-06 -3.18884e-15)
(0.73173 -4.70984e-06 -3.0538e-15)
(0.731727 -5.49103e-06 -3.16078e-15)
(0.731724 -6.40324e-06 -3.07581e-15)
(0.73172 -7.46535e-06 -3.21265e-15)
(0.731715 -8.71056e-06 -3.04269e-15)
(0.73171 -1.01504e-05 -3.13728e-15)
(0.652622 4.92545e-07 3.75903e-15)
(0.652622 4.08609e-07 3.16864e-15)
(0.652622 3.43083e-07 2.85303e-15)
(0.652622 2.9363e-07 2.52163e-15)
(0.652622 2.53637e-07 2.67306e-15)
(0.652622 2.19798e-07 2.05756e-15)
(0.652622 1.90583e-07 1.70858e-15)
(0.652623 1.65274e-07 1.35774e-15)
(0.652623 1.43399e-07 1.51733e-15)
(0.652623 1.24505e-07 1.00296e-15)
(0.652623 1.08106e-07 8.13393e-16)
(0.652623 9.38367e-08 6.47936e-16)
(0.652623 8.13187e-08 1.04839e-15)
(0.652623 7.02757e-08 8.71599e-16)
(0.652623 6.047e-08 1.27508e-15)
(0.652623 5.17421e-08 1.57416e-15)
(0.652623 4.39893e-08 1.86814e-15)
(0.652623 3.70054e-08 2.12626e-15)
(0.652623 3.06959e-08 2.38705e-15)
(0.652623 2.49993e-08 2.65944e-15)
(0.652623 1.97381e-08 2.89438e-15)
(0.652623 1.49038e-08 3.15672e-15)
(0.652623 1.03591e-08 3.42607e-15)
(0.652623 6.05884e-09 3.61172e-15)
(0.652623 1.90668e-09 3.72094e-15)
(0.652623 -2.22876e-09 3.558e-15)
(0.652623 -6.39892e-09 3.03031e-15)
(0.652623 -1.07631e-08 2.77446e-15)
(0.652623 -1.53491e-08 2.46492e-15)
(0.652623 -2.03215e-08 2.59387e-15)
(0.652623 -2.57383e-08 2.00967e-15)
(0.652623 -3.1794e-08 1.69149e-15)
(0.652623 -3.85667e-08 1.31374e-15)
(0.652623 -4.62958e-08 5.32104e-16)
(0.652623 -5.51101e-08 2.3036e-16)
(0.652623 -6.53415e-08 -4.05517e-16)
(0.652623 -7.72874e-08 -5.09483e-16)
(0.652623 -9.11284e-08 -1.06069e-15)
(0.652623 -1.07106e-07 -1.1925e-15)
(0.652623 -1.25562e-07 -1.72751e-15)
(0.652622 -1.4686e-07 -1.72656e-15)
(0.652622 -1.71517e-07 -2.21055e-15)
(0.652622 -2.00034e-07 -2.25568e-15)
(0.652622 -2.3288e-07 -2.65292e-15)
(0.652622 -2.7116e-07 -2.36891e-15)
(0.652622 -3.16895e-07 -2.34896e-15)
(0.652622 -3.7101e-07 -2.70087e-15)
(0.652621 -4.34343e-07 -2.59504e-15)
(0.652621 -5.07465e-07 -2.85813e-15)
(0.652621 -5.92515e-07 -2.6159e-15)
(0.65262 -6.88212e-07 -2.83226e-15)
(0.65262 -8.00118e-07 -2.66327e-15)
(0.652619 -9.35123e-07 -2.89043e-15)
(0.652618 -1.09236e-06 -2.6342e-15)
(0.652617 -1.27533e-06 -2.85651e-15)
(0.652617 -1.49281e-06 -2.68895e-15)
(0.652615 -1.74333e-06 -2.93856e-15)
(0.652614 -2.02637e-06 -2.68316e-15)
(0.652613 -2.35622e-06 -2.87871e-15)
(0.652611 -2.74332e-06 -2.73019e-15)
(0.652609 -3.19627e-06 -2.95386e-15)
(0.652607 -3.72549e-06 -2.71979e-15)
(0.652604 -4.343e-06 -2.92287e-15)
(0.652601 -5.06409e-06 -2.73422e-15)
(0.652597 -5.90364e-06 -2.94616e-15)
(0.652593 -6.88671e-06 -2.70395e-15)
(0.652587 -8.02394e-06 -2.89541e-15)
(0.566702 4.21012e-07 3.17797e-15)
(0.566702 3.4758e-07 2.61626e-15)
(0.566702 2.84859e-07 2.43823e-15)
(0.566702 2.39674e-07 2.08796e-15)
(0.566702 2.05122e-07 2.30539e-15)
(0.566703 1.76865e-07 1.69419e-15)
(0.566703 1.52931e-07 1.46091e-15)
(0.566703 1.32347e-07 1.10976e-15)
(0.566703 1.14664e-07 1.31896e-15)
(0.566703 9.94087e-08 8.06539e-16)
(0.566703 8.62104e-08 7.22821e-16)
(0.566703 7.47124e-08 5.47335e-16)
(0.566703 6.46386e-08 9.92689e-16)
(0.566703 5.57682e-08 8.30772e-16)
(0.566703 4.79387e-08 1.16993e-15)
(0.566703 4.10029e-08 1.44211e-15)
(0.566703 3.4848e-08 1.68931e-15)
(0.566703 2.93163e-08 1.90592e-15)
(0.566703 2.432e-08 2.14414e-15)
(0.566703 1.98185e-08 2.37593e-15)
(0.566703 1.56869e-08 2.589e-15)
(0.566703 1.19139e-08 2.8077e-15)
(0.566703 8.37832e-09 3.0239e-15)
(0.566703 5.03797e-09 3.17909e-15)
(0.566703 1.82089e-09 3.23368e-15)
(0.566703 -1.36382e-09 3.01398e-15)
(0.566703 -4.56374e-09 2.51082e-15)
(0.566703 -7.89291e-09 2.36935e-15)
(0.566703 -1.13872e-08 2.05125e-15)
(0.566703 -1.51749e-08 2.23351e-15)
(0.566703 -1.9291e-08 1.67074e-15)
(0.566703 -2.38816e-08 1.45356e-15)
(0.566703 -2.90164e-08 1.08532e-15)
(0.566703 -3.48639e-08 3.82484e-16)
(0.566703 -4.15361e-08 9.45077e-17)
(0.566703 -4.92691e-08 -4.23179e-16)
(0.566703 -5.82811e-08 -5.15779e-16)
(0.566703 -6.87248e-08 -9.7033e-16)
(0.566703 -8.07774e-08 -1.10944e-15)
(0.566703 -9.47032e-08 -1.51718e-15)
(0.566703 -1.10765e-07 -1.54554e-15)
(0.566703 -1.29348e-07 -1.93281e-15)
(0.566703 -1.50835e-07 -1.99953e-15)
(0.566702 -1.75599e-07 -2.30948e-15)
(0.566702 -2.04476e-07 -2.07134e-15)
(0.566702 -2.38952e-07 -2.00787e-15)
(0.566702 -2.7972e-07 -2.31775e-15)
(0.566702 -3.27389e-07 -2.26845e-15)
(0.566701 -3.82306e-07 -2.45445e-15)
(0.566701 -4.45438e-07 -2.27654e-15)
(0.566701 -5.16944e-07 -2.43571e-15)
(0.5667 -6.0183e-07 -2.30949e-15)
(0.5667 -7.04221e-07 -2.49407e-15)
(0.566699 -8.23553e-07 -2.26986e-15)
(0.566698 -9.629e-07 -2.46622e-15)
(0.566697 -1.13209e-06 -2.34388e-15)
)
;

boundaryField
{
    inlet
    {
        type            uniformFixedValue;
        uniformValue    constant (1 0 0);
        value           nonuniform 0();
    }
    outlet
    {
        type            pressureInletOutletVelocity;
        value           nonuniform 0();
    }
    wall
    {
        type            fixedValue;
        value           nonuniform 0();
    }
    wedge1
    {
        type            wedge;
    }
    wedge2
    {
        type            wedge;
    }
    axis
    {
        type            empty;
    }
    procBoundary37to31
    {
        type            processor;
        value           nonuniform List<vector> 
69
(
(0.977275 -1.66576e-06 -3.50649e-15)
(0.977275 -1.93665e-06 -3.41965e-15)
(0.977274 -2.25073e-06 -3.57263e-15)
(0.977273 -2.61892e-06 -3.31837e-15)
(0.977272 -3.04975e-06 -3.51307e-15)
(0.977271 -3.54972e-06 -3.44514e-15)
(0.97727 -4.13922e-06 -3.59325e-15)
(0.977269 -4.8336e-06 -3.37335e-15)
(0.977267 -5.63932e-06 -3.56865e-15)
(0.977266 -6.57711e-06 -3.50851e-15)
(0.977264 -7.67002e-06 -3.65678e-15)
(0.977261 -8.94458e-06 -3.45414e-15)
(0.977258 -1.04309e-05 -3.62546e-15)
(0.977255 -1.21658e-05 -3.5597e-15)
(0.977251 -1.41865e-05 -3.73586e-15)
(0.977247 -1.65635e-05 -3.48554e-15)
(0.977241 -1.9296e-05 -3.62158e-15)
(0.926441 8.13568e-07 5.89906e-15)
(0.926441 6.56775e-07 5.85238e-15)
(0.926441 5.59901e-07 5.21747e-15)
(0.926441 4.9414e-07 4.94854e-15)
(0.926441 4.39001e-07 4.61984e-15)
(0.926441 3.89011e-07 4.41107e-15)
(0.926441 3.4293e-07 3.73593e-15)
(0.926441 3.01115e-07 3.35292e-15)
(0.926441 2.63749e-07 2.93204e-15)
(0.926441 2.30834e-07 2.65331e-15)
(0.926441 2.02024e-07 2.04397e-15)
(0.926441 1.7687e-07 1.80821e-15)
(0.926441 1.54723e-07 1.62205e-15)
(0.926441 1.35126e-07 1.65736e-15)
(0.926441 1.17578e-07 1.52662e-15)
(0.926441 1.01776e-07 1.73362e-15)
(0.926441 8.7473e-08 2.01341e-15)
(0.926441 7.44616e-08 2.34714e-15)
(0.926441 6.26387e-08 2.69712e-15)
(0.926441 5.18161e-08 3.08152e-15)
(0.926441 4.187e-08 3.46034e-15)
(0.926441 3.26394e-08 3.86544e-15)
(0.926441 2.39692e-08 4.26842e-15)
(0.926441 1.57285e-08 4.6776e-15)
(0.926441 7.73728e-09 5.02498e-15)
(0.926441 -1.57573e-10 5.33429e-15)
(0.926441 -8.15457e-09 5.42102e-15)
(0.926441 -1.64201e-08 4.94966e-15)
(0.926441 -2.50939e-08 4.74652e-15)
(0.926441 -3.43669e-08 4.48803e-15)
(0.926441 -4.44566e-08 4.27174e-15)
(0.926441 -5.55654e-08 3.65804e-15)
(0.926441 -6.79915e-08 3.3244e-15)
(0.926441 -8.20053e-08 3.02185e-15)
(0.926441 -9.80471e-08 2.11748e-15)
(0.926441 -1.16383e-07 1.44981e-15)
(0.926441 -1.37735e-07 7.42251e-16)
(0.926441 -1.62834e-07 5.06964e-16)
(0.926441 -1.91819e-07 -2.39494e-16)
(0.926441 -2.25326e-07 -7.1069e-16)
(0.926441 -2.64141e-07 -1.28964e-15)
(0.926441 -3.09124e-07 -1.40587e-15)
(0.926441 -3.61316e-07 -2.05247e-15)
(0.92644 -4.21689e-07 -2.39235e-15)
(0.92644 -4.91028e-07 -2.83602e-15)
(0.92644 -5.71447e-07 -2.96695e-15)
(0.92644 -6.67508e-07 -2.77381e-15)
(0.92644 -7.81639e-07 -3.10051e-15)
(0.926439 -9.15101e-07 -3.17543e-15)
(0.926439 -1.07029e-06 -3.36271e-15)
(0.926439 -1.25842e-06 -3.066e-15)
(0.926439 -1.25842e-06 -3.066e-15)
)
;
    }
    procBoundary37to32
    {
        type            processor;
        value           uniform (0.926397 -1.97626e-05 -3.39012e-15);
    }
    procBoundary37to36
    {
        type            processor;
        value           nonuniform List<vector> 5((0.868681 8.7966e-07 5.3383e-15) (0.8038 8.13153e-07 4.92308e-15) (0.731745 7.15437e-07 4.58008e-15) (0.652622 5.4479e-07 4.01772e-15) (0.652622 5.4479e-07 4.01772e-15));
    }
    procBoundary37to38
    {
        type            processor;
        value           nonuniform List<vector> 4((0.868637 -1.70668e-05 -3.2429e-15) (0.803757 -1.44062e-05 -3.12825e-15) (0.731704 -1.18157e-05 -3.04541e-15) (0.652581 -9.33805e-06 -2.70504e-15));
    }
    procBoundary37to42
    {
        type            processor;
        value           uniform (0.566702 4.35723e-07 3.45975e-15);
    }
    procBoundary37to43
    {
        type            processor;
        value           nonuniform List<vector> 
68
(
(0.566696 -1.3211e-06 -2.53011e-15)
(0.566695 -1.52912e-06 -2.31369e-15)
(0.566694 -1.77599e-06 -2.47685e-15)
(0.566692 -2.06679e-06 -2.3652e-15)
(0.56669 -2.40748e-06 -2.53882e-15)
(0.566688 -2.80575e-06 -2.33437e-15)
(0.566685 -3.27043e-06 -2.50669e-15)
(0.566682 -3.81313e-06 -2.38005e-15)
(0.566679 -4.44494e-06 -2.55234e-15)
(0.566675 -5.18425e-06 -2.34021e-15)
(0.56667 -6.03801e-06 -2.50842e-15)
(0.47443 3.32782e-07 2.59852e-15)
(0.47443 2.74775e-07 2.00618e-15)
(0.47443 2.20016e-07 2.03461e-15)
(0.474431 1.82085e-07 1.62821e-15)
(0.474431 1.54413e-07 2.0419e-15)
(0.474431 1.32533e-07 1.28223e-15)
(0.474431 1.14308e-07 1.24148e-15)
(0.474431 9.87678e-08 8.29176e-16)
(0.474431 8.54483e-08 1.26226e-15)
(0.474431 7.39541e-08 5.78898e-16)
(0.474431 6.40587e-08 6.59085e-16)
(0.474431 5.54372e-08 3.92344e-16)
(0.474431 4.78989e-08 1.02216e-15)
(0.474431 4.12718e-08 7.49886e-16)
(0.474431 3.54421e-08 1.12821e-15)
(0.474431 3.03163e-08 1.34678e-15)
(0.474431 2.57382e-08 1.53683e-15)
(0.474431 2.1653e-08 1.73605e-15)
(0.474432 1.79784e-08 1.92243e-15)
(0.474432 1.4637e-08 2.12275e-15)
(0.474432 1.16355e-08 2.30307e-15)
(0.474432 8.87093e-09 2.47582e-15)
(0.474432 6.31476e-09 2.65456e-15)
(0.474432 3.88146e-09 2.76947e-15)
(0.474432 1.55053e-09 2.77869e-15)
(0.474432 -7.2761e-10 2.46062e-15)
(0.474432 -3.03155e-09 1.91344e-15)
(0.474432 -5.37381e-09 1.97225e-15)
(0.474432 -7.86517e-09 1.594e-15)
(0.474432 -1.05246e-08 1.97973e-15)
(0.474432 -1.34682e-08 1.28376e-15)
(0.474432 -1.67189e-08 1.26274e-15)
(0.474431 -2.03724e-08 8.60137e-16)
(0.474431 -2.45115e-08 1.70473e-16)
(0.474431 -2.92455e-08 -2.51308e-17)
(0.474431 -3.46964e-08 -4.85681e-16)
(0.474431 -4.10417e-08 -4.74853e-16)
(0.474431 -4.83608e-08 -9.48048e-16)
(0.474431 -5.68539e-08 -1.0072e-15)
(0.474431 -6.66517e-08 -1.39975e-15)
(0.474431 -7.79953e-08 -1.32402e-15)
(0.474431 -9.10703e-08 -1.72022e-15)
(0.474431 -1.06198e-07 -1.72127e-15)
(0.474431 -1.23605e-07 -2.04129e-15)
(0.474431 -1.43937e-07 -1.73412e-15)
(0.47443 -1.68171e-07 -1.66211e-15)
(0.47443 -1.96845e-07 -2.00903e-15)
(0.47443 -2.30349e-07 -1.93116e-15)
(0.47443 -2.68882e-07 -2.12779e-15)
(0.474429 -3.12827e-07 -1.89647e-15)
(0.474429 -3.62764e-07 -2.11203e-15)
(0.474429 -4.22718e-07 -1.95701e-15)
(0.474428 -4.95119e-07 -2.14091e-15)
(0.474428 -5.79635e-07 -1.88573e-15)
(0.474427 -6.78824e-07 -2.12696e-15)
(0.566696 -1.3211e-06 -2.53011e-15)
(0.474426 -8.00505e-07 -1.98521e-15)
)
;
    }
}


// ************************************************************************* //
