/*--------------------------------*- C++ -*----------------------------------*\
  =========                 |
  \\      /  F ield         | OpenFOAM: The Open Source CFD Toolbox
   \\    /   O peration     | Website:  https://openfoam.org
    \\  /    A nd           | Version:  7
     \\/     M anipulation  |
\*---------------------------------------------------------------------------*/
FoamFile
{
    version     2.0;
    format      ascii;
    class       volVectorField;
    location    "7.4";
    object      U;
}
// * * * * * * * * * * * * * * * * * * * * * * * * * * * * * * * * * * * * * //

dimensions      [0 1 -1 0 0 0 0];

internalField   nonuniform List<vector> 
344
(
(1.06578 0.0291129 -2.84979e-16)
(1.06686 0.0286357 -2.77958e-16)
(1.06795 0.0281684 -2.69643e-16)
(1.06903 0.0277109 -2.55283e-16)
(1.07012 0.0272628 -2.48581e-16)
(1.0712 0.026824 -2.07085e-16)
(1.07229 0.0263943 -2.03443e-16)
(1.07337 0.0259734 -1.94708e-16)
(1.07446 0.0255611 -1.86256e-16)
(1.07554 0.0251573 -1.72096e-16)
(1.07662 0.0247617 -1.60909e-16)
(1.07771 0.0243742 -1.56764e-16)
(1.07878 0.0239946 -1.46641e-16)
(1.07986 0.0236226 -1.41019e-16)
(1.08094 0.0232582 -1.0205e-16)
(1.08201 0.0229011 -9.7509e-17)
(1.08308 0.0225512 -8.80054e-17)
(1.08414 0.0222082 -8.422e-17)
(1.08521 0.0218721 -4.66582e-17)
(1.08626 0.0215427 -4.44365e-17)
(1.08732 0.0212198 -3.59894e-17)
(1.08837 0.0209032 -3.50497e-17)
(1.08942 0.0205928 -5.36689e-19)
(1.09046 0.0202885 -3.9944e-18)
(1.0915 0.0199901 2.50076e-18)
(1.09254 0.0196975 5.79058e-18)
(1.09357 0.0194105 9.91916e-18)
(1.09459 0.019129 1.82257e-17)
(1.09562 0.0188529 2.37057e-17)
(1.09663 0.0185821 2.72176e-17)
(1.09764 0.0183163 6.28548e-17)
(1.09865 0.0180556 5.94673e-17)
(1.09965 0.0177998 6.36463e-17)
(1.10064 0.0175487 7.3196e-17)
(1.10163 0.0173023 8.04637e-17)
(1.10262 0.0170604 8.66442e-17)
(1.1036 0.016823 8.91477e-17)
(1.10457 0.0165899 9.66526e-17)
(1.10553 0.016361 9.839e-17)
(1.1065 0.0161363 1.31447e-16)
(1.10745 0.0159156 1.3126e-16)
(1.1084 0.0156988 1.37756e-16)
(1.10934 0.015486 1.38836e-16)
(1.11028 0.0152768 1.70999e-16)
(1.11121 0.0150714 1.70995e-16)
(0.916847 0.0404623 -6.6022e-16)
(0.918826 0.0397275 -6.40051e-16)
(0.920794 0.0390072 -6.28571e-16)
(0.922752 0.0383013 -6.058e-16)
(0.924699 0.0376096 -5.91327e-16)
(0.926636 0.036932 -5.74915e-16)
(0.928562 0.0362682 -5.5474e-16)
(0.930477 0.0356181 -5.43775e-16)
(0.932382 0.0349815 -5.23888e-16)
(0.934276 0.0343581 -5.13081e-16)
(0.936158 0.0337478 -4.9324e-16)
(0.93803 0.0331503 -4.85884e-16)
(0.93989 0.0325654 -4.62183e-16)
(0.941739 0.0319928 -4.48328e-16)
(0.943576 0.0314324 -4.2818e-16)
(0.945401 0.0308839 -4.23318e-16)
(0.947215 0.0303471 -3.95853e-16)
(0.949017 0.0298217 -3.85569e-16)
(0.950807 0.0293075 -3.66771e-16)
(0.952585 0.0288042 -3.60285e-16)
(0.954351 0.0283117 -3.38491e-16)
(0.956105 0.0278296 -3.25484e-16)
(0.957847 0.0273579 -3.08708e-16)
(0.959576 0.0268962 -3.0239e-16)
(0.961293 0.0264443 -2.89396e-16)
(0.962997 0.026002 -2.85693e-16)
(0.964689 0.0255691 -2.64056e-16)
(0.966368 0.0251454 -2.62294e-16)
(0.968035 0.0247306 -2.44429e-16)
(0.969689 0.0243246 -2.33701e-16)
(0.971331 0.0239272 -2.22871e-16)
(0.97296 0.0235381 -2.05195e-16)
(0.974576 0.0231572 -1.96625e-16)
(0.976179 0.0227842 -1.82555e-16)
(0.97777 0.022419 -1.82899e-16)
(0.979348 0.0220614 -1.66032e-16)
(0.980914 0.0217113 -1.64747e-16)
(0.982467 0.0213683 -1.43152e-16)
(0.984007 0.0210325 -1.33087e-16)
(0.985535 0.0207035 -1.17528e-16)
(0.98705 0.0203813 -1.15208e-16)
(0.988552 0.0200656 -9.41535e-17)
(0.990042 0.0197564 -8.54886e-17)
(0.99152 0.0194534 -7.15997e-17)
(0.992985 0.0191565 -7.15316e-17)
(0.994437 0.0188656 -5.47825e-17)
(0.995878 0.0185804 -4.78763e-17)
(0.997305 0.018301 -3.45219e-17)
(0.998721 0.0180271 -3.40673e-17)
(1.00012 0.0177586 -1.81145e-17)
(1.00152 0.0174954 -1.69617e-17)
(1.00289 0.0172374 -5.74544e-18)
(1.00426 0.0169843 -5.8468e-18)
(1.00562 0.0167362 7.40749e-18)
(1.00696 0.0164928 1.49311e-17)
(1.00829 0.0162542 2.2956e-17)
(1.00961 0.01602 3.61898e-17)
(1.01092 0.0157904 3.82059e-17)
(1.01221 0.015565 5.1258e-17)
(1.0135 0.0153439 5.02908e-17)
(1.01477 0.015127 6.15092e-17)
(1.01603 0.0149141 6.07215e-17)
(1.01728 0.0147051 7.52551e-17)
(1.01852 0.0145 8.26935e-17)
(1.01975 0.0142986 9.43338e-17)
(1.02096 0.0141009 9.50708e-17)
(1.02217 0.0139067 1.1139e-16)
(1.02336 0.0137161 1.17845e-16)
(0.853758 0.0388371 -6.49543e-16)
(0.856255 0.0381234 -6.36153e-16)
(0.858731 0.0374238 -6.18302e-16)
(0.861184 0.0367383 -6.00492e-16)
(0.863616 0.0360666 -5.84287e-16)
(0.866025 0.0354087 -5.68884e-16)
(0.868414 0.0347644 -5.56715e-16)
(0.870781 0.0341335 -5.38539e-16)
(0.873126 0.0335157 -5.26033e-16)
(0.87545 0.032911 -5.08749e-16)
(0.877754 0.032319 -4.97214e-16)
(0.880036 0.0317395 -4.83265e-16)
(0.882298 0.0311724 -4.64093e-16)
(0.884539 0.0306174 -4.49131e-16)
(0.88676 0.0300743 -4.38543e-16)
(0.88896 0.0295428 -4.23618e-16)
(0.89114 0.0290228 -4.03693e-16)
(0.893299 0.0285139 -3.91222e-16)
(0.895438 0.028016 -3.82242e-16)
(0.897558 0.0275288 -3.66034e-16)
(0.899657 0.0270521 -3.48841e-16)
(0.901737 0.0265857 -3.33461e-16)
(0.903797 0.0261294 -3.26221e-16)
(0.905838 0.0256828 -3.11498e-16)
(0.907859 0.0252459 -3.04783e-16)
(0.90986 0.0248184 -2.93324e-16)
(0.911843 0.0244 -2.81367e-16)
(0.913806 0.0239906 -2.70076e-16)
(0.915751 0.02359 -2.55766e-16)
(0.917677 0.0231979 -2.46081e-16)
(0.919584 0.0228142 -2.32254e-16)
(0.921473 0.0224387 -2.26283e-16)
(0.923343 0.0220711 -2.08324e-16)
(0.925195 0.0217113 -2.03343e-16)
(0.927028 0.0213591 -1.93493e-16)
(0.928844 0.0210143 -1.86807e-16)
(0.930642 0.0206767 -1.76997e-16)
(0.932423 0.0203462 -1.6129e-16)
(0.934185 0.0200226 -1.48656e-16)
(0.935931 0.0197057 -1.42951e-16)
(0.937659 0.0193954 -1.32533e-16)
(0.939369 0.0190914 -1.16211e-16)
(0.941063 0.0187937 -1.03029e-16)
(0.94274 0.0185022 -9.97907e-17)
(0.944401 0.0182165 -9.14597e-17)
(0.946045 0.0179367 -7.76162e-17)
(0.947672 0.0176625 -6.74546e-17)
(0.949283 0.0173939 -6.46228e-17)
(0.950878 0.0171306 -5.36841e-17)
(0.952457 0.0168726 -4.6896e-17)
(0.954021 0.0166198 -3.43075e-17)
(0.955568 0.0163719 -3.2535e-17)
(0.9571 0.0161289 -2.40948e-17)
(0.958617 0.0158907 -1.54127e-17)
(0.960119 0.0156571 -6.32886e-18)
(0.961605 0.0154281 1.8456e-18)
(0.963077 0.0152035 7.5489e-18)
(0.964533 0.0149832 1.5976e-17)
(0.965975 0.0147672 2.0169e-17)
(0.967403 0.0145552 2.94173e-17)
(0.968816 0.0143473 3.09203e-17)
(0.970215 0.0141432 3.95448e-17)
(0.9716 0.013943 4.99231e-17)
(0.972971 0.0137465 5.92648e-17)
(0.974328 0.0135537 6.11501e-17)
(0.975671 0.0133644 7.10415e-17)
(0.977001 0.0131786 8.37515e-17)
(0.978318 0.0129962 9.36497e-17)
(0.795499 0.0363979 -6.21002e-16)
(0.798447 0.0357223 -6.06057e-16)
(0.801362 0.0350603 -5.90574e-16)
(0.804243 0.0344119 -5.74349e-16)
(0.807093 0.0337768 -5.59683e-16)
(0.80991 0.0331549 -5.45533e-16)
(0.812696 0.0325461 -5.30676e-16)
(0.81545 0.03195 -5.16058e-16)
(0.818174 0.0313666 -5.02227e-16)
(0.820867 0.0307956 -4.88676e-16)
(0.82353 0.0302369 -4.78022e-16)
(0.826163 0.0296901 -4.62139e-16)
(0.828767 0.0291551 -4.47409e-16)
(0.831341 0.0286317 -4.32476e-16)
(0.833887 0.0281196 -4.20555e-16)
(0.836404 0.0276187 -4.05847e-16)
(0.838893 0.0271286 -3.94235e-16)
(0.841354 0.0266492 -3.79895e-16)
(0.843788 0.0261802 -3.67423e-16)
(0.846194 0.0257214 -3.56984e-16)
(0.848573 0.0252726 -3.39439e-16)
(0.850925 0.0248336 -3.28661e-16)
(0.853251 0.0244041 -3.18151e-16)
(0.855551 0.023984 -3.06015e-16)
(0.857825 0.023573 -2.94841e-16)
(0.860074 0.023171 -2.83827e-16)
(0.862298 0.0227776 -2.7322e-16)
(0.864496 0.0223927 -2.67072e-16)
(0.86667 0.0220162 -2.5474e-16)
(0.868819 0.0216478 -2.43237e-16)
(0.870945 0.0212872 -2.29874e-16)
(0.873046 0.0209345 -2.17668e-16)
(0.875124 0.0205892 -2.09491e-16)
(0.877179 0.0202514 -2.00373e-16)
(0.879211 0.0199207 -1.94142e-16)
(0.88122 0.0195971 -1.87169e-16)
(0.883207 0.0192802 -1.75302e-16)
(0.885171 0.0189701 -1.61982e-16)
(0.887114 0.0186665 -1.52335e-16)
(0.889035 0.0183692 -1.44058e-16)
(0.890934 0.0180782 -1.33953e-16)
(0.892812 0.0177932 -1.18567e-16)
(0.89467 0.0175141 -1.12113e-16)
(0.896507 0.0172407 -1.06772e-16)
(0.898323 0.016973 -9.66004e-17)
(0.900119 0.0167107 -8.68184e-17)
(0.901896 0.0164538 -7.8164e-17)
(0.903652 0.0162021 -6.94385e-17)
(0.90539 0.0159555 -5.93879e-17)
(0.907108 0.0157138 -5.06019e-17)
(0.908807 0.015477 -4.67661e-17)
(0.910487 0.0152449 -3.94835e-17)
(0.912149 0.0150174 -3.58432e-17)
(0.913793 0.0147944 -2.48132e-17)
(0.915419 0.0145758 -1.56529e-17)
(0.917026 0.0143614 -7.91746e-18)
(0.918616 0.0141513 -1.38409e-19)
(0.920189 0.0139451 6.37732e-18)
(0.921745 0.013743 1.1812e-17)
(0.923283 0.0135447 1.67912e-17)
(0.924805 0.0133502 2.31946e-17)
(0.92631 0.0131594 3.02282e-17)
(0.927799 0.0129722 3.87528e-17)
(0.929271 0.0127885 4.52575e-17)
(0.930728 0.0126082 5.14709e-17)
(0.932169 0.0124312 5.97547e-17)
(0.933594 0.0122575 7.05422e-17)
(0.736673 0.0345627 -6.02714e-16)
(0.740054 0.0339141 -5.91859e-16)
(0.743392 0.0332787 -5.79605e-16)
(0.746686 0.0326564 -5.62093e-16)
(0.749938 0.0320469 -5.48355e-16)
(0.753149 0.0314503 -5.32037e-16)
(0.756318 0.0308662 -5.20725e-16)
(0.759446 0.0302945 -5.04601e-16)
(0.762534 0.029735 -4.9292e-16)
(0.765583 0.0291876 -4.77934e-16)
(0.768593 0.0286519 -4.70127e-16)
(0.771565 0.0281279 -4.59305e-16)
(0.774499 0.0276153 -4.4373e-16)
(0.777395 0.0271138 -4.27682e-16)
(0.780255 0.0266233 -4.17137e-16)
(0.783079 0.0261436 -4.07167e-16)
(0.785866 0.0256743 -3.95645e-16)
(0.788619 0.0252154 -3.7848e-16)
(0.791337 0.0247666 -3.68204e-16)
(0.794021 0.0243276 -3.59405e-16)
(0.796671 0.0238983 -3.43742e-16)
(0.799288 0.0234784 -3.28841e-16)
(0.801872 0.0230678 -3.20927e-16)
(0.804423 0.0226662 -3.06087e-16)
(0.806943 0.0222734 -2.98609e-16)
(0.809431 0.0218892 -2.83676e-16)
(0.811889 0.0215134 -2.78074e-16)
(0.814316 0.0211459 -2.73551e-16)
(0.816712 0.0207863 -2.60321e-16)
(0.81908 0.0204346 -2.49667e-16)
(0.821417 0.0200905 -2.32463e-16)
(0.823726 0.0197539 -2.25527e-16)
(0.826007 0.0194246 -2.13665e-16)
(0.828259 0.0191023 -2.0856e-16)
(0.830484 0.018787 -1.96846e-16)
(0.832682 0.0184785 -1.92658e-16)
(0.834853 0.0181765 -1.87212e-16)
(0.836997 0.017881 -1.7228e-16)
(0.839116 0.0175917 -1.5973e-16)
(0.841208 0.0173086 -1.54465e-16)
(0.843275 0.0170314 -1.46585e-16)
(0.845318 0.0167601 -1.32479e-16)
(0.847335 0.0164945 -1.21319e-16)
(0.849329 0.0162343 -1.17921e-16)
(0.851298 0.0159796 -1.13606e-16)
(0.853244 0.0157302 -1.0222e-16)
(0.855166 0.0154859 -8.97062e-17)
(0.857066 0.0152465 -8.41214e-17)
(0.858943 0.0150121 -7.12295e-17)
(0.860798 0.0147825 -6.56023e-17)
(0.86263 0.0145575 -5.65271e-17)
(0.864441 0.014337 -5.57323e-17)
(0.866231 0.0141209 -5.30293e-17)
(0.868 0.0139092 -3.96192e-17)
(0.869748 0.0137016 -3.17258e-17)
(0.871475 0.0134982 -1.9747e-17)
(0.873182 0.0132987 -1.689e-17)
(0.874869 0.0131032 -6.9239e-18)
(0.876537 0.0129115 -4.40297e-18)
(0.878185 0.0127234 4.9436e-18)
(0.879814 0.012539 6.90348e-18)
(0.881424 0.0123581 1.06873e-17)
(0.883016 0.0121807 2.01335e-17)
(0.884589 0.0120066 2.89219e-17)
(0.886145 0.0118358 3.15324e-17)
(0.887682 0.0116682 3.74978e-17)
(0.889202 0.0115038 4.91903e-17)
(0.679873 0.0326324 -5.90778e-16)
(0.683646 0.0320136 -5.75479e-16)
(0.687366 0.0314075 -5.66565e-16)
(0.691032 0.0308139 -5.48647e-16)
(0.694647 0.0302327 -5.33634e-16)
(0.698211 0.0296638 -5.25115e-16)
(0.701725 0.0291069 -5.08317e-16)
(0.705189 0.028562 -5.00095e-16)
(0.708605 0.0280288 -4.82656e-16)
(0.711973 0.0275072 -4.74982e-16)
(0.715294 0.0269969 -4.60991e-16)
(0.718569 0.0264977 -4.55055e-16)
(0.721798 0.0260095 -4.38561e-16)
(0.724982 0.0255321 -4.30139e-16)
(0.728123 0.0250652 -4.13021e-16)
(0.73122 0.0246086 -4.06083e-16)
(0.734274 0.0241621 -3.92654e-16)
(0.737286 0.0237255 -3.83794e-16)
(0.740258 0.0232986 -3.65944e-16)
(0.743188 0.0228811 -3.62269e-16)
(0.746079 0.022473 -3.45426e-16)
(0.74893 0.0220739 -3.38943e-16)
(0.751742 0.0216836 -3.21568e-16)
(0.754517 0.0213021 -3.17116e-16)
(0.757254 0.0209289 -3.01534e-16)
(0.759954 0.0205641 -2.97134e-16)
(0.762618 0.0202073 -2.80753e-16)
(0.765246 0.0198583 -2.78772e-16)
(0.767839 0.0195171 -2.64667e-16)
)
;

boundaryField
{
    inlet
    {
        type            uniformFixedValue;
        uniformValue    constant (1 0 0);
        value           nonuniform 0();
    }
    outlet
    {
        type            pressureInletOutletVelocity;
        value           nonuniform 0();
    }
    wall
    {
        type            fixedValue;
        value           nonuniform 0();
    }
    wedge1
    {
        type            wedge;
    }
    wedge2
    {
        type            wedge;
    }
    axis
    {
        type            empty;
    }
    procBoundary22to16
    {
        type            processor;
        value           nonuniform List<vector> 
69
(
(1.23272 0.0317116 -2.45333e-16)
(1.2327 0.0312147 -2.40604e-16)
(1.2327 0.0307278 -2.26417e-16)
(1.23272 0.0302505 -2.1331e-16)
(1.23276 0.0297827 -2.04941e-16)
(1.23282 0.0293242 -1.57549e-16)
(1.2329 0.0288748 -1.49346e-16)
(1.23301 0.0284342 -1.40968e-16)
(1.23313 0.0280023 -1.29257e-16)
(1.23327 0.0275789 -1.17852e-16)
(1.23342 0.0271638 -1.0846e-16)
(1.2336 0.0267567 -9.96224e-17)
(1.23379 0.0263576 -9.53246e-17)
(1.23399 0.0259663 -8.77088e-17)
(1.23421 0.0255825 -4.32546e-17)
(1.23444 0.0252061 -3.5587e-17)
(1.23469 0.0248369 -2.5557e-17)
(1.23494 0.0244748 -1.79136e-17)
(1.23521 0.0241196 1.952e-17)
(1.2355 0.0237712 2.37854e-17)
(1.23579 0.0234293 2.2447e-17)
(1.23609 0.0230939 2.76232e-17)
(1.23641 0.0227647 6.21128e-17)
(1.23673 0.0224418 6.08517e-17)
(1.23706 0.0221248 6.93804e-17)
(1.2374 0.0218137 7.8355e-17)
(1.23775 0.0215083 7.8263e-17)
(1.23811 0.0212085 8.43557e-17)
(1.23847 0.0209142 8.75931e-17)
(1.23884 0.0206253 8.7922e-17)
(1.23922 0.0203415 1.29604e-16)
(1.2396 0.0200629 1.34962e-16)
(1.23999 0.0197893 1.4013e-16)
(1.24039 0.0195206 1.48074e-16)
(1.24079 0.0192566 1.55291e-16)
(1.24119 0.0189973 1.55728e-16)
(1.2416 0.0187425 1.63073e-16)
(1.24202 0.0184922 1.66222e-16)
(1.24244 0.0182462 1.65908e-16)
(1.24286 0.0180044 2.05534e-16)
(1.24328 0.0177669 2.07771e-16)
(1.24371 0.0175334 2.16498e-16)
(1.24415 0.0173038 2.20753e-16)
(1.24458 0.0170781 2.49496e-16)
(1.24502 0.0168562 2.51862e-16)
(1.04238 0.0433574 -6.75166e-16)
(1.04329 0.0425886 -6.57136e-16)
(1.04422 0.0418347 -6.4238e-16)
(1.04516 0.0410958 -6.08482e-16)
(1.04611 0.0403715 -5.97246e-16)
(1.04707 0.0396617 -5.83625e-16)
(1.04805 0.0389662 -5.64614e-16)
(1.04903 0.0382848 -5.50082e-16)
(1.05003 0.0376173 -5.33067e-16)
(1.05103 0.0369635 -5.18137e-16)
(1.05204 0.0363231 -5.01944e-16)
(1.05307 0.0356959 -4.90184e-16)
(1.0541 0.0350817 -4.49689e-16)
(1.05513 0.0344802 -4.38873e-16)
(1.05618 0.0338912 -4.25477e-16)
(1.05723 0.0333144 -4.16986e-16)
(1.05828 0.0327497 -3.73841e-16)
(1.05934 0.0321967 -3.6703e-16)
(1.06041 0.0316553 -3.55192e-16)
(1.06147 0.0311251 -3.49075e-16)
(1.06255 0.0306061 -3.13433e-16)
(1.06362 0.0300978 -3.04475e-16)
(1.0647 0.0296001 -2.98391e-16)
(1.0647 0.0296001 -2.98391e-16)
)
;
    }
    procBoundary22to17
    {
        type            processor;
        value           uniform (1.11214 0.0148695 1.72341e-16);
    }
    procBoundary22to21
    {
        type            processor;
        value           nonuniform List<vector> 5((0.914858 0.0412117 -6.72977e-16) (0.851238 0.0395652 -6.67236e-16) (0.792518 0.0370873 -6.35864e-16) (0.792518 0.0370873 -6.35864e-16) (0.733247 0.0352246 -6.18903e-16));
    }
    procBoundary22to23
    {
        type            processor;
        value           nonuniform List<vector> 4((1.02455 0.0135289 1.27617e-16) (0.979621 0.0128171 9.46937e-17) (0.935004 0.012087 7.49807e-17) (0.890704 0.0113423 5.77031e-17));
    }
    procBoundary22to27
    {
        type            processor;
        value           uniform (0.676045 0.0332639 -6.01254e-16);
    }
    procBoundary22to28
    {
        type            processor;
        value           nonuniform List<vector> 
68
(
(0.770398 0.0191834 -2.53053e-16)
(0.772923 0.018857 -2.46107e-16)
(0.775414 0.0185377 -2.29984e-16)
(0.777872 0.0182254 -2.2708e-16)
(0.780298 0.0179199 -2.13478e-16)
(0.782692 0.0176211 -2.10835e-16)
(0.785055 0.0173287 -1.98207e-16)
(0.787386 0.0170426 -1.96539e-16)
(0.789688 0.0167627 -1.80139e-16)
(0.791959 0.0164888 -1.77582e-16)
(0.794202 0.0162207 -1.65027e-16)
(0.796415 0.0159583 -1.60846e-16)
(0.798599 0.0157016 -1.45042e-16)
(0.800756 0.0154502 -1.42609e-16)
(0.802885 0.0152041 -1.28697e-16)
(0.804987 0.0149632 -1.28896e-16)
(0.807063 0.0147274 -1.16264e-16)
(0.809112 0.0144964 -1.13034e-16)
(0.811135 0.0142702 -9.79281e-17)
(0.813132 0.0140487 -9.37495e-17)
(0.815105 0.0138317 -7.78857e-17)
(0.817052 0.0136192 -8.03463e-17)
(0.818976 0.013411 -6.99339e-17)
(0.820875 0.013207 -6.82012e-17)
(0.822751 0.0130071 -5.38221e-17)
(0.824604 0.0128112 -4.48548e-17)
(0.826434 0.0126192 -4.39108e-17)
(0.828241 0.0124311 -3.17848e-17)
(0.830026 0.0122466 -3.05342e-17)
(0.83179 0.0120658 -2.01159e-17)
(0.833531 0.0118885 -2.02839e-17)
(0.835252 0.0117147 -8.2825e-18)
(0.836952 0.0115442 -7.91034e-18)
(0.838631 0.011377 2.57791e-18)
(0.84029 0.011213 4.3058e-18)
(0.841928 0.0110521 1.45793e-17)
(0.843548 0.0108943 1.7686e-17)
(0.845148 0.0107394 2.79397e-17)
(0.625182 0.0306223 -5.70336e-16)
(0.629302 0.0300358 -5.57844e-16)
(0.633359 0.0294614 -5.526e-16)
(0.637355 0.028899 -5.33388e-16)
(0.64129 0.0283483 -5.17578e-16)
(0.645166 0.0278094 -5.08335e-16)
(0.648983 0.027282 -4.94357e-16)
(0.652743 0.026766 -4.8571e-16)
(0.656447 0.0262611 -4.70014e-16)
(0.660095 0.0257673 -4.62045e-16)
(0.663688 0.0252843 -4.4957e-16)
(0.667229 0.024812 -4.49596e-16)
(0.670716 0.0243501 -4.28925e-16)
(0.674152 0.0238985 -4.21409e-16)
(0.677538 0.0234569 -4.04181e-16)
(0.680873 0.0230251 -4.05151e-16)
(0.68416 0.022603 -3.87514e-16)
(0.687398 0.0221904 -3.77784e-16)
(0.690589 0.021787 -3.61534e-16)
(0.693734 0.0213926 -3.65572e-16)
(0.696833 0.021007 -3.44329e-16)
(0.699888 0.0206301 -3.37122e-16)
(0.702898 0.0202617 -3.2085e-16)
(0.705865 0.0199015 -3.14891e-16)
(0.70879 0.0195493 -3.00239e-16)
(0.711672 0.019205 -2.9493e-16)
(0.714514 0.0188684 -2.81347e-16)
(0.717315 0.0185393 -2.85029e-16)
(0.770398 0.0191834 -2.53053e-16)
(0.720077 0.0182175 -2.67432e-16)
)
;
    }
}


// ************************************************************************* //
