/*--------------------------------*- C++ -*----------------------------------*\
  =========                 |
  \\      /  F ield         | OpenFOAM: The Open Source CFD Toolbox
   \\    /   O peration     | Website:  https://openfoam.org
    \\  /    A nd           | Version:  7
     \\/     M anipulation  |
\*---------------------------------------------------------------------------*/
FoamFile
{
    version     2.0;
    format      ascii;
    class       volVectorField;
    location    "4.999666";
    object      U;
}
// * * * * * * * * * * * * * * * * * * * * * * * * * * * * * * * * * * * * * //

dimensions      [0 1 -1 0 0 0 0];

internalField   nonuniform List<vector> 
5800
(
(-0.000399966 0.000484028 -1.98755e-21)
(-0.00216636 0.00118051 -7.71701e-21)
(-0.00565624 0.00165697 1.4497e-21)
(-0.0101655 0.00194594 5.67201e-21)
(-0.0152545 0.00207207 2.47974e-21)
(-0.0205812 0.0020573 -6.18841e-21)
(-0.0258094 0.00192211 -2.00281e-21)
(-0.030629 0.0016848 -8.10999e-22)
(-0.0347611 0.00136126 -7.4297e-21)
(-0.0379533 0.000964952 -1.42047e-21)
(0.00283502 0.00364858 -4.74258e-21)
(0.0166133 0.00948664 -1.71101e-20)
(0.0454414 0.0140288 3.24011e-21)
(0.084746 0.0173781 1.16887e-20)
(0.131753 0.0196339 4.87263e-21)
(0.184291 0.0209165 -1.19396e-20)
(0.240175 0.0213739 -3.71945e-21)
(0.297454 0.0211686 -1.52452e-21)
(0.354525 0.0204658 -7.89428e-21)
(0.410144 0.0194213 -7.20779e-21)
(0.463427 0.018172 -9.24617e-21)
(0.00283502 -0.00364857 4.74258e-21)
(0.0166133 -0.00948663 1.71101e-20)
(0.0454414 -0.0140288 -3.24011e-21)
(0.084746 -0.0173781 -1.16887e-20)
(0.131753 -0.0196338 -4.87263e-21)
(0.184291 -0.0209164 1.19396e-20)
(0.240175 -0.0213738 3.71945e-21)
(0.297454 -0.0211686 1.52452e-21)
(0.354525 -0.0204657 1.32215e-20)
(0.410144 -0.0194213 2.39568e-21)
(0.463427 -0.0181719 9.24617e-21)
(0.513815 -0.0168284 -1.37088e-21)
(0.561018 -0.0154723 4.52091e-21)
(0.604944 -0.0141581 -7.74821e-21)
(0.645638 -0.012917 9.44037e-21)
(0.683223 -0.0117638 9.73929e-21)
(0.717865 -0.0107022 2.74851e-21)
(0.749748 -0.00973079 -1.40681e-20)
(0.779052 -0.00884391 1.13959e-20)
(0.805951 -0.00802977 -1.65179e-21)
(0.00339805 -0.0109125 -6.99522e-21)
(0.018052 -0.0283779 -1.11688e-20)
(0.0475187 -0.0419716 -3.51652e-21)
(0.0872619 -0.0520004 -1.01591e-20)
(0.134536 -0.0587596 2.24688e-21)
(0.187198 -0.0626079 -1.52226e-20)
(0.243091 -0.0639866 -5.67826e-21)
(0.300295 -0.0633811 -1.24978e-20)
(0.357229 -0.0612845 7.02815e-21)
(0.412675 -0.0581633 -1.69539e-20)
(0.465766 -0.0544269 -5.28259e-20)
(0.515957 -0.0504067 8.5569e-21)
(0.562967 -0.0463477 -1.20869e-20)
(0.60671 -0.0424128 7.25031e-21)
(0.647233 -0.0386964 -1.74784e-20)
(0.684662 -0.0352425 1.82426e-21)
(0.719161 -0.032063 -9.15006e-21)
(0.750912 -0.0291532 5.23417e-20)
(0.780101 -0.0264962 -5.12716e-21)
(0.806887 -0.0240574 6.50664e-21)
(0.0045172 -0.0180773 -2.13815e-20)
(0.0209128 -0.047024 -2.22545e-20)
(0.0516506 -0.0695714 5.14224e-21)
(0.0922677 -0.0862224 1.11613e-20)
(0.140076 -0.0974608 4.71486e-21)
(0.192986 -0.103876 -1.48012e-20)
(0.2489 -0.106196 -2.17042e-20)
(0.305954 -0.10522 4.69625e-20)
(0.362619 -0.101766 -1.31587e-20)
(0.417721 -0.0966043 1.73226e-20)
(0.47043 -0.0904155 2.77321e-20)
(0.520229 -0.0837499 4.83944e-21)
(0.566854 -0.0770154 8.05152e-21)
(0.610232 -0.0704835 1.76664e-20)
(0.650416 -0.0643121 -1.84839e-20)
(0.687532 -0.0585752 1.76819e-20)
(0.721745 -0.0532931 -2.10485e-21)
(0.753236 -0.0484581 -5.11484e-20)
(0.782194 -0.044042 3.42211e-20)
(0.808754 -0.0399894 -2.79708e-20)
(0.00617877 -0.0250781 1.65612e-20)
(0.0251624 -0.0652645 -2.75355e-20)
(0.0577917 -0.0966034 4.19187e-20)
(0.0997117 -0.119781 -1.88844e-20)
(0.148318 -0.135459 1.01397e-19)
(0.201602 -0.144443 6.07591e-20)
(0.257553 -0.147735 -3.80591e-20)
(0.314388 -0.14644 -9.17377e-20)
(0.370656 -0.141687 3.67226e-20)
(0.425249 -0.134546 2.53719e-20)
(0.477391 -0.125962 3.45543e-20)
(0.526606 -0.116703 -6.86956e-20)
(0.572658 -0.107338 -8.11196e-20)
(0.615493 -0.0982487 6.19734e-20)
(0.655171 -0.0896562 4.87383e-20)
(0.691821 -0.0816654 -1.68476e-20)
(0.725607 -0.0743061 3.6871e-20)
(0.756708 -0.0675681 2.25048e-21)
(0.785324 -0.061411 -5.56396e-20)
(0.811548 -0.0557625 -1.75623e-20)
(0.00836239 -0.0318518 -6.11939e-20)
(0.0307518 -0.0829432 -1.83076e-20)
(0.0658745 -0.122848 -6.30122e-20)
(0.109517 -0.15242 1.82335e-20)
(0.159184 -0.17248 -9.62123e-20)
(0.212971 -0.184036 -5.80336e-20)
(0.268977 -0.188344 6.92383e-20)
(0.325532 -0.186799 8.72729e-20)
(0.381283 -0.180828 -7.92822e-20)
(0.435209 -0.171792 2.11898e-20)
(0.486606 -0.160893 -3.04358e-20)
(0.535051 -0.149113 1.19634e-19)
(0.580348 -0.137182 -3.85994e-20)
(0.622465 -0.125589 -1.39125e-20)
(0.661473 -0.114622 -8.09771e-21)
(0.697509 -0.104418 -2.84501e-20)
(0.730729 -0.0950173 -7.02718e-20)
(0.761316 -0.0864069 -1.45233e-21)
(0.789477 -0.0785339 1.9793e-20)
(0.815258 -0.0713141 -1.87497e-20)
(0.0110413 -0.0383381 -4.01136e-20)
(0.0376159 -0.0999099 -1.77661e-20)
(0.0758102 -0.148095 1.02179e-19)
(0.121582 -0.183892 5.65505e-20)
(0.172567 -0.20826 2.35042e-20)
(0.226988 -0.222389 -7.43749e-20)
(0.283079 -0.227768 -8.7452e-20)
(0.339301 -0.226061 1.05781e-20)
(0.394425 -0.218976 2.10127e-20)
(0.447537 -0.208151 1.62251e-20)
(0.498019 -0.19504 5.43503e-20)
(0.545517 -0.180831 -1.2198e-19)
(0.589883 -0.166413 1.74276e-21)
(0.631112 -0.152387 4.39434e-20)
(0.669294 -0.139107 2.76467e-21)
(0.704567 -0.126742 -8.85535e-21)
(0.737089 -0.115344 -2.3162e-20)
(0.767038 -0.1049 8.68017e-20)
(0.794638 -0.0953431 -3.77493e-20)
(0.819873 -0.0865827 3.09225e-20)
(0.0141827 -0.0444801 6.37396e-20)
(0.0456752 -0.116022 -3.68315e-20)
(0.0874893 -0.172143 -4.2164e-20)
(0.135781 -0.213958 -3.93452e-20)
(0.188338 -0.242545 -7.82765e-20)
(0.243527 -0.259247 -1.02971e-20)
(0.29974 -0.265762 1.39433e-20)
(0.355589 -0.263996 -3.25913e-20)
(0.409989 -0.255922 4.77323e-20)
(0.462149 -0.243438 3.94673e-21)
(0.511559 -0.228237 -2.12758e-20)
(0.557943 -0.21171 9.88611e-20)
(0.601209 -0.194905 2.98015e-20)
(0.641389 -0.17853 -2.95664e-20)
(0.678592 -0.163009 6.66769e-20)
(0.712964 -0.148545 -7.13232e-20)
(0.744659 -0.135205 -7.70958e-21)
(0.773853 -0.122975 9.06111e-21)
(0.800786 -0.111773 1.02104e-19)
(0.825377 -0.101508 -5.74395e-20)
(0.0177481 -0.0502244 2.29034e-20)
(0.0548361 -0.131147 2.80678e-20)
(0.100783 -0.194801 1.22131e-19)
(0.151968 -0.242396 5.23436e-20)
(0.206344 -0.275094 1.78763e-19)
(0.26244 -0.294367 1.50446e-20)
(0.31882 -0.30209 8.65368e-20)
(0.374269 -0.300386 6.16509e-20)
(0.427862 -0.291467 -1.35506e-19)
(0.478951 -0.277473 -2.22676e-20)
(0.527144 -0.260325 -5.27992e-20)
(0.572257 -0.241611 -6.71319e-20)
(0.614266 -0.222533 2.22762e-20)
(0.653244 -0.203909 7.14095e-20)
(0.689324 -0.186231 -6.36216e-20)
(0.72266 -0.169742 -5.67538e-20)
(0.753405 -0.154523 5.62821e-20)
(0.78173 -0.140562 -7.59979e-20)
(0.807898 -0.127759 -1.10274e-19)
(0.831754 -0.116031 -2.99119e-20)
(0.0216938 -0.0555227 -6.36013e-20)
(0.0649921 -0.145162 -6.9798e-20)
(0.115545 -0.215896 -3.63817e-20)
(0.169972 -0.268996 -8.74871e-20)
(0.226408 -0.305681 -4.33034e-20)
(0.283553 -0.327519 -1.03139e-19)
(0.340159 -0.336529 -9.10483e-20)
(0.395197 -0.335021 3.48705e-20)
(0.447918 -0.325419 5.53698e-20)
(0.497831 -0.310085 -9.87924e-20)
(0.544677 -0.291153 6.33691e-20)
(0.588378 -0.2704 -4.32255e-20)
(0.628983 -0.249178 -5.91513e-20)
(0.666616 -0.228417 -6.31811e-20)
(0.701436 -0.20868 1.80057e-19)
(0.73361 -0.19025 8.13242e-20)
(0.763288 -0.173225 1.99041e-20)
(0.790639 -0.157596 -8.63938e-20)
(0.815946 -0.143243 1.82857e-19)
(0.838983 -0.130097 6.84865e-20)
(0.0259714 -0.0603314 -8.51829e-20)
(0.0760251 -0.157955 1.03432e-19)
(0.131611 -0.235268 1.01794e-19)
(0.189607 -0.293566 1.06377e-19)
(0.248334 -0.334097 6.39807e-20)
(0.306674 -0.358488 1.5429e-20)
(0.363575 -0.36887 1.05045e-19)
(0.418208 -0.367704 -1.30094e-19)
(0.47001 -0.357596 -3.73899e-20)
(0.518663 -0.341109 -3.20264e-20)
(0.56405 -0.320574 1.45664e-19)
(0.606211 -0.297947 -2.05418e-20)
(0.64528 -0.274728 1.79973e-20)
(0.681435 -0.251956 3.69933e-21)
(0.714869 -0.230269 6.37017e-20)
(0.745762 -0.209991 -8.09592e-20)
(0.774265 -0.191241 1.63909e-20)
(0.800542 -0.174013 1.89545e-19)
(0.824901 -0.158167 -2.76278e-20)
(0.847042 -0.14365 -1.23669e-19)
(0.0305285 -0.0646128 -5.25824e-20)
(0.0878065 -0.16943 1.78587e-20)
(0.148804 -0.252775 -1.08014e-19)
(0.210666 -0.315934 -5.19349e-20)
(0.271906 -0.360151 -7.05215e-20)
(0.331591 -0.387079 -6.16168e-21)
(0.38887 -0.398919 -1.41022e-19)
(0.443122 -0.398249 1.26727e-19)
(0.49398 -0.387828 5.69386e-20)
(0.541307 -0.370392 2.49462e-20)
(0.585144 -0.348452 -1.41166e-19)
(0.625655 -0.324133 2.58005e-20)
(0.663068 -0.299076 -1.86182e-20)
(0.697626 -0.274433 -8.14204e-20)
(0.729557 -0.250915 -7.72912e-20)
(0.759061 -0.228891 1.28395e-19)
(0.786288 -0.208505 6.54673e-20)
(0.811399 -0.189755 -3.86714e-20)
(0.834729 -0.172478 -1.08019e-19)
(0.855909 -0.156642 1.63162e-20)
(0.0353093 -0.0683349 7.05209e-20)
(0.100199 -0.179503 3.44477e-20)
(0.166933 -0.268292 4.32928e-20)
(0.232927 -0.335948 4.61139e-20)
(0.296892 -0.383674 -4.96206e-20)
(0.358073 -0.413113 1.08931e-19)
(0.415828 -0.4265 -1.09213e-19)
(0.469741 -0.426489 -4.31182e-21)
(0.519652 -0.415958 9.07021e-20)
(0.565612 -0.397791 1.93762e-20)
(0.607827 -0.37466 8.36262e-20)
(0.646596 -0.348843 -3.55935e-20)
(0.68225 -0.322123 2.27557e-20)
(0.715104 -0.295759 1.49259e-19)
(0.745429 -0.27054 -9.15228e-21)
(0.773444 -0.246884 -4.53802e-20)
(0.799304 -0.224957 -9.7131e-20)
(0.823165 -0.20477 -1.60968e-19)
(0.845394 -0.186129 -2.49531e-20)
(0.865558 -0.169026 1.64158e-19)
(0.0402552 -0.0714725 8.6126e-20)
(0.113058 -0.188106 5.01541e-21)
(0.185795 -0.281719 -1.65058e-19)
(0.256156 -0.353479 6.6426e-20)
(0.323041 -0.404519 4.5916e-22)
(0.385875 -0.436433 6.84833e-20)
(0.444214 -0.451452 6.50433e-20)
(0.497854 -0.452268 -5.70042e-21)
(0.546838 -0.441842 -3.83277e-20)
(0.591413 -0.423175 -1.36399e-19)
(0.631956 -0.399078 4.25701e-20)
(0.668912 -0.371975 1.80003e-19)
(0.702723 -0.343778 -1.29078e-19)
(0.73378 -0.315855 -1.08665e-19)
(0.762405 -0.289075 -6.92902e-20)
(0.788843 -0.263905 -1.67866e-19)
(0.813254 -0.240544 4.98379e-20)
(0.835792 -0.219009 2.41615e-19)
(0.856855 -0.199078 -3.6544e-20)
(0.875959 -0.180761 -4.64969e-20)
(0.0453059 -0.0740067 3.76177e-20)
(0.126234 -0.195186 -5.99998e-20)
(0.20518 -0.292972 5.37614e-20)
(0.280107 -0.368421 -8.261e-20)
(0.350094 -0.42256 8.91235e-20)
(0.414736 -0.456905 -8.87751e-20)
(0.473783 -0.473637 -2.12987e-20)
(0.527233 -0.47545 9.76322e-20)
(0.575336 -0.465348 -7.60419e-20)
(0.618533 -0.446422 8.67013e-20)
(0.65738 -0.421599 -1.04983e-19)
(0.692473 -0.393431 -6.24202e-20)
(0.724373 -0.363955 -4.43303e-20)
(0.753557 -0.334646 7.08616e-20)
(0.780403 -0.306454 1.49997e-20)
(0.805187 -0.2799 9.03473e-20)
(0.828077 -0.255216 -6.16752e-20)
(0.849225 -0.232432 -4.71028e-21)
(0.869067 -0.21129 9.52906e-20)
(0.887082 -0.191815 -4.38275e-20)
(0.0503995 -0.0759256 -9.8904e-21)
(0.139572 -0.200707 -3.82237e-20)
(0.224871 -0.301992 -8.03908e-21)
(0.304524 -0.380691 -2.01187e-20)
(0.377778 -0.4377 -6.01445e-20)
(0.444384 -0.474416 -5.1259e-20)
(0.504274 -0.492937 -3.42349e-20)
(0.557641 -0.495915 -4.87236e-20)
(0.604933 -0.486363 1.02097e-19)
(0.646786 -0.467426 1.06644e-20)
(0.683938 -0.442126 1.64647e-19)
(0.717141 -0.413126 5.22878e-20)
(0.747082 -0.38258 5.81451e-20)
(0.774334 -0.352067 -9.41921e-20)
(0.799335 -0.32262 1.46343e-19)
(0.822397 -0.294819 -2.61874e-20)
(0.843706 -0.26893 -1.64056e-20)
(0.863407 -0.245002 -1.34232e-19)
(0.881979 -0.222737 6.2797e-20)
(0.898889 -0.202163 -5.12404e-20)
(0.0554738 -0.0772243 -8.42107e-20)
(0.152917 -0.204651 -3.53196e-20)
(0.244648 -0.308741 -5.32174e-20)
(0.329146 -0.390235 -4.3458e-20)
(0.405813 -0.449863 -9.44489e-21)
(0.474538 -0.488879 1.06944e-19)
(0.535418 -0.509255 9.03674e-20)
(0.588827 -0.513562 7.62377e-20)
(0.635405 -0.504786 -7.94868e-20)
(0.675976 -0.486094 -4.65834e-20)
(0.711461 -0.460573 -1.70631e-19)
(0.74277 -0.430983 1.35764e-19)
(0.770727 -0.399585 -5.34001e-20)
(0.796002 -0.368059 9.86987e-20)
(0.819106 -0.337523 -7.4904e-20)
(0.840394 -0.308617 2.80221e-20)
(0.860066 -0.28165 -3.7968e-20)
(0.878271 -0.256689 1.19542e-19)
(0.895533 -0.2334 -9.50291e-20)
(0.911335 -0.211797 -4.19708e-20)
(0.0604673 -0.0779049 1.01584e-19)
(0.166113 -0.207014 -4.14127e-20)
(0.264287 -0.313206 6.49666e-20)
(0.353708 -0.397021 6.09434e-20)
(0.433913 -0.459005 -2.00431e-20)
(0.504907 -0.500231 -1.14824e-19)
(0.566934 -0.522517 7.92617e-20)
(0.620533 -0.528312 -1.66e-20)
(0.666519 -0.520535 2.49577e-20)
(0.705898 -0.502344 3.20068e-20)
(0.739769 -0.476864 -6.48818e-20)
(0.769208 -0.446934 -1.59253e-19)
(0.795175 -0.41491 7.15263e-21)
(0.818451 -0.382569 -1.69068e-20)
(0.839621 -0.351116 4.89468e-21)
(0.859089 -0.321256 8.69066e-20)
(0.877083 -0.293342 -8.48831e-20)
(0.893748 -0.267471 -1.32302e-19)
(0.909656 -0.24327 -3.4708e-20)
(0.924365 -0.220715 7.05556e-20)
(0.0653191 -0.0779762 1.50877e-20)
(0.179005 -0.207811 -5.94346e-20)
(0.283568 -0.315396 6.92676e-21)
(0.377945 -0.401047 -5.04285e-20)
(0.461788 -0.465103 -1.60167e-20)
(0.535197 -0.508436 -1.01372e-20)
(0.598538 -0.532671 1.69098e-20)
(0.652492 -0.540102 -5.6822e-20)
(0.698032 -0.533544 -1.36254e-20)
(0.736338 -0.51611 3.83083e-20)
(0.768679 -0.490939 2.69862e-20)
(0.796297 -0.460924 9.7315e-20)
(0.820292 -0.428505 9.87589e-20)
(0.841563 -0.395555 -2.63046e-20)
(0.860778 -0.363362 6.71461e-21)
(0.878396 -0.332702 2.82318e-20)
(0.894677 -0.303977 1.10219e-19)
(0.90976 -0.277324 1.3099e-19)
(0.924264 -0.252339 1.48485e-19)
(0.937918 -0.228921 -1.98239e-20)
(0.0699708 -0.077454 -1.02264e-20)
(0.191443 -0.207073 4.71401e-20)
(0.302273 -0.315342 4.12189e-20)
(0.401594 -0.402335 2.2602e-20)
(0.48915 -0.468166 -4.18075e-20)
(0.565112 -0.513483 1.16347e-19)
(0.629939 -0.539691 -3.24972e-20)
(0.684431 -0.548892 7.28765e-21)
(0.729698 -0.543765 -4.59802e-20)
(0.767076 -0.527343 -4.43241e-21)
(0.798001 -0.502746 8.27818e-20)
(0.823872 -0.472904 -4.45822e-20)
(0.845939 -0.440328 -1.72066e-20)
(0.86522 -0.406978 -4.13165e-20)
(0.882475 -0.374227 3.91807e-20)
(0.898226 -0.342923 -8.24002e-20)
(0.912769 -0.313524 3.18696e-20)
(0.926235 -0.286209 -2.22276e-20)
(0.939234 -0.26055 8.5303e-21)
(0.951864 -0.236419 4.18207e-20)
(0.0743662 -0.0763604 -3.69022e-20)
(0.203282 -0.204848 6.46544e-21)
(0.32019 -0.313101 -1.87917e-21)
(0.424397 -0.400935 -2.05187e-20)
(0.515714 -0.468229 1.63031e-20)
(0.594354 -0.515389 -6.98782e-20)
(0.660844 -0.543573 -6.52797e-21)
(0.716071 -0.554665 -3.71322e-20)
(0.761261 -0.551168 5.64736e-20)
(0.797887 -0.536004 4.31582e-20)
(0.827536 -0.512247 -7.75504e-20)
(0.851766 -0.482839 5.98956e-20)
(0.871974 -0.450347 -5.21986e-20)
(0.889303 -0.416809 1.33989e-20)
(0.904613 -0.383683 -1.76972e-19)
(0.918496 -0.351891 7.04296e-21)
(0.931298 -0.321943 -6.30908e-20)
(0.943141 -0.294039 -9.33924e-20)
(0.954477 -0.267754 -5.6902e-20)
(0.965878 -0.243133 -9.34027e-20)
(0.0784531 -0.0747238 -4.67731e-21)
(0.214385 -0.201198 1.6351e-20)
(0.337116 -0.308748 -4.06294e-21)
(0.446102 -0.396922 -2.59997e-21)
(0.541198 -0.465353 -3.50047e-21)
(0.62263 -0.514195 3.16033e-20)
(0.69096 -0.54434 -1.19049e-20)
(0.747134 -0.557423 -1.04872e-20)
(0.792465 -0.555741 -6.58556e-21)
(0.82854 -0.542073 -2.56323e-20)
(0.857085 -0.519417 2.0055e-20)
(0.879807 -0.490703 -5.57814e-20)
(0.898249 -0.458536 4.9972e-20)
(0.913689 -0.425027 5.10489e-20)
(0.927093 -0.391713 9.53368e-20)
(0.939135 -0.35959 3.38007e-20)
(0.950244 -0.329211 6.87411e-20)
(0.960645 -0.300782 7.70418e-20)
(0.970708 -0.274093 7.03862e-20)
(0.98207 -0.249681 3.51769e-20)
(0.0821828 -0.0725784 6.58552e-21)
(0.224623 -0.196201 -3.72683e-21)
(0.352859 -0.302381 2.41627e-22)
(0.466471 -0.390394 -2.9047e-22)
(0.565331 -0.459627 4.16937e-21)
(0.64965 -0.509972 -6.78267e-21)
(0.719996 -0.542038 1.19726e-20)
(0.777339 -0.55719 -1.31156e-21)
(0.823048 -0.557491 -1.54413e-20)
(0.858801 -0.545544 -5.44558e-21)
(0.886442 -0.524243 5.38951e-20)
(0.907818 -0.49648 1.22908e-20)
(0.924617 -0.464882 8.82641e-21)
(0.938253 -0.43162 -3.88242e-20)
(0.94981 -0.398309 -1.23141e-19)
(0.960058 -0.366021 3.90709e-20)
(0.969519 -0.33537 2.63867e-20)
(0.978551 -0.306607 -7.80578e-20)
(0.98745 -0.279824 -4.50387e-20)
(0.997312 -0.255708 -2.39378e-20)
(0.0855125 -0.0699637 -9.33999e-21)
(0.233878 -0.189948 8.70334e-21)
(0.367241 -0.294119 -2.73495e-20)
(0.485278 -0.381478 -2.33964e-21)
(0.587852 -0.451166 1.15881e-20)
(0.675137 -0.502813 -1.5282e-20)
(0.747667 -0.536738 -1.11192e-20)
(0.806407 -0.554012 1.11439e-21)
(0.852749 -0.556442 1.02935e-20)
(0.888432 -0.546427 1.15718e-20)
(0.915398 -0.526724 -3.06201e-20)
(0.935619 -0.500165 -5.99668e-20)
(0.950924 -0.469379 2.15327e-20)
(0.962866 -0.436584 2.18082e-20)
(0.972655 -0.403471 6.17358e-20)
(0.981162 -0.371193 -1.01568e-20)
(0.989003 -0.340434 -2.25237e-22)
(0.996631 -0.311515 2.46803e-21)
(1.00426 -0.28474 -5.97821e-21)
(1.01219 -0.260834 -1.03418e-19)
(0.088406 -0.0669239 2.43013e-20)
(0.242045 -0.182542 3.31727e-20)
(0.380099 -0.284097 3.29702e-20)
(0.502313 -0.370317 1.05544e-20)
(0.608518 -0.440108 -1.6436e-20)
(0.69882 -0.49284 -2.05289e-20)
(0.773695 -0.528533 -1.27529e-20)
(0.834063 -0.547958 9.31648e-21)
(0.881307 -0.55264 1.96062e-21)
(0.917194 -0.544747 -6.25716e-21)
(0.94374 -0.526873 4.72873e-21)
(0.963026 -0.501763 2.35321e-20)
(0.977014 -0.472027 -2.22842e-20)
(0.987396 -0.439921 2.88505e-22)
(0.99551 -0.407202 -1.38859e-20)
(1.00234 -0.375107 -9.24303e-21)
(1.00858 -0.344398 4.04674e-21)
(1.01474 -0.315462 -1.48997e-20)
(1.02095 -0.28873 1.6298e-20)
(1.02698 -0.264922 9.14444e-20)
(0.0908294 -0.0635025 2.38122e-20)
(0.249036 -0.174096 -6.72371e-20)
(0.391288 -0.272469 4.13351e-20)
(0.517384 -0.357081 1.45727e-20)
(0.627098 -0.426617 -3.92354e-20)
(0.720447 -0.480198 2.40914e-20)
(0.797811 -0.517544 8.17109e-21)
(0.860038 -0.539118 -3.389e-20)
(0.908462 -0.546146 5.04743e-21)
(0.944846 -0.540543 -5.26711e-21)
(0.971253 -0.524714 8.10003e-21)
(0.989853 -0.501288 3.11572e-21)
(1.00273 -0.472838 8.63894e-21)
(1.01171 -0.441639 -1.80762e-20)
(1.01826 -0.40951 1.11578e-20)
(1.02348 -0.377769 -2.871e-21)
(1.02815 -0.347258 1.28559e-20)
(1.0328 -0.318429 -3.73798e-22)
(1.03748 -0.291786 1.86426e-20)
(1.04168 -0.268051 -2.78529e-20)
(0.0927522 -0.0597564 -6.94418e-22)
(0.254773 -0.164739 -3.2171e-20)
(0.400685 -0.2594 -2.58012e-20)
(0.530321 -0.341955 1.92572e-20)
(0.643386 -0.410879 -4.44585e-21)
(0.73978 -0.465053 2.39664e-20)
(0.81976 -0.50391 1.56774e-20)
(0.88407 -0.527603 9.53383e-21)
(0.933958 -0.537043 4.06322e-21)
(0.97115 -0.533873 6.15011e-21)
(0.997722 -0.520283 1.37807e-20)
(1.01591 -0.498765 -1.4532e-21)
(1.0279 -0.471828 4.88464e-22)
(1.03566 -0.441751 5.81807e-21)
(1.04078 -0.410406 -1.32884e-20)
(1.04448 -0.379186 2.46384e-20)
(1.04761 -0.349016 -1.9252e-20)
(1.05073 -0.320409 -1.57e-20)
(1.05385 -0.293914 -8.85404e-21)
(1.0563 -0.270262 -1.44602e-20)
(0.0941596 -0.0557395 -8.87751e-21)
(0.25919 -0.154599 6.76403e-20)
(0.408186 -0.245072 2.58177e-20)
(0.54098 -0.325142 -7.5739e-20)
(0.657195 -0.393097 -1.69485e-20)
(0.756598 -0.447594 3.1573e-20)
(0.839305 -0.487797 1.72105e-20)
(0.905908 -0.513544 5.04092e-20)
(0.957546 -0.525428 -2.74973e-21)
(0.995867 -0.524806 4.70885e-21)
(1.02293 -0.51363 -9.77823e-21)
(1.04101 -0.494227 -1.05411e-20)
(1.05238 -0.469021 -1.10592e-21)
(1.05911 -0.440277 3.5471e-21)
(1.06296 -0.409906 6.95219e-23)
(1.06524 -0.379372 -2.10524e-20)
(1.06689 -0.34968 -1.49487e-20)
(1.06849 -0.321403 1.68894e-20)
(1.07004 -0.295124 8.61261e-21)
(1.07083 -0.271592 -4.07488e-21)
(0.0950391 -0.0515059 6.19115e-20)
(0.262246 -0.143814 -9.61383e-20)
(0.413708 -0.229674 -9.29783e-20)
(0.54924 -0.30686 1.23061e-19)
(0.668366 -0.373492 3.8205e-20)
(0.770708 -0.428034 -2.42487e-20)
(0.85622 -0.469391 -5.48125e-20)
(0.925316 -0.497091 -6.47462e-20)
(0.978983 -0.51142 4.40944e-20)
(1.01876 -0.513429 1.07013e-20)
(1.04666 -0.504816 1.88376e-20)
(1.06495 -0.487716 1.39646e-20)
(1.07598 -0.464447 -5.15754e-21)
(1.08193 -0.437238 -2.60722e-21)
(1.08468 -0.408028 1.14715e-21)
(1.08566 -0.378342 6.74674e-21)
(1.08589 -0.349261 5.50592e-21)
(1.08601 -0.321422 -1.99059e-20)
(1.08604 -0.295432 -6.03389e-21)
(1.08526 -0.272074 8.42042e-21)
(0.0953847 -0.0471118 -7.05567e-20)
(0.263915 -0.132525 7.43615e-20)
(0.417196 -0.213405 -2.71749e-21)
(0.555007 -0.287338 -2.91687e-20)
(0.676768 -0.352305 -5.5305e-21)
(0.781943 -0.406601 -9.52085e-21)
(0.870302 -0.44889 -5.08969e-20)
(0.942066 -0.478415 5.47992e-20)
(0.998037 -0.495153 -8.21329e-20)
(1.03961 -0.499844 3.41084e-21)
(1.06869 -0.493912 -8.54539e-21)
(1.08753 -0.479284 -3.6974e-21)
(1.09854 -0.458143 4.1939e-21)
(1.10397 -0.432665 -1.80913e-20)
(1.10581 -0.404796 1.43729e-21)
(1.10564 -0.376116 3.26136e-21)
(1.10456 -0.347776 -7.97531e-21)
(1.10325 -0.320479 4.50519e-21)
(1.10181 -0.294857 1.87395e-21)
(1.09956 -0.271739 -1.23599e-20)
(0.0951976 -0.042614 1.14096e-20)
(0.264188 -0.120876 2.28442e-20)
(0.418616 -0.196468 4.36708e-20)
(0.558215 -0.266814 -2.56391e-20)
(0.682296 -0.329784 -7.63661e-20)
(0.790159 -0.383535 2.16674e-20)
(0.881376 -0.426516 3.98906e-20)
(0.955956 -0.457706 2.61027e-20)
(1.01449 -0.476779 6.69167e-20)
(1.05817 -0.484166 -1.69739e-20)
(1.0888 -0.481004 -7.98467e-21)
(1.10857 -0.468991 8.4573e-21)
(1.11988 -0.450153 -2.20121e-20)
(1.12507 -0.426588 -2.51923e-20)
(1.12624 -0.400236 -1.08715e-20)
(1.12508 -0.372716 9.45533e-21)
(1.12281 -0.345247 4.08228e-21)
(1.12017 -0.318596 -1.22707e-21)
(1.11733 -0.293425 -2.4441e-22)
(1.1137 -0.270614 1.70195e-21)
(0.0944862 -0.0380685 2.26513e-20)
(0.263071 -0.109009 4.41495e-21)
(0.417961 -0.179067 -6.38222e-20)
(0.55883 -0.245531 8.37546e-20)
(0.684877 -0.306191 1.72206e-20)
(0.795241 -0.359094 -9.58446e-20)
(0.88929 -0.402508 3.40328e-20)
(0.9668 -0.435169 -4.15429e-20)
(1.02812 -0.456467 1.49071e-21)
(1.07425 -0.466525 7.39531e-21)
(1.1068 -0.466189 1.79816e-20)
(1.12787 -0.456907 4.17644e-21)
(1.13984 -0.440526 5.33571e-20)
(1.14511 -0.419046 1.43142e-20)
(1.14586 -0.394378 -1.17772e-20)
(1.1439 -0.368169 -6.20862e-21)
(1.14057 -0.341697 9.60973e-22)
(1.1367 -0.315798 4.38047e-21)
(1.13256 -0.291162 -5.83669e-21)
(1.12765 -0.268727 -5.18244e-22)
(0.0932653 -0.0335297 -2.63198e-20)
(0.260592 -0.0970667 1.47329e-21)
(0.415249 -0.161407 1.30582e-20)
(0.556844 -0.223736 -3.61704e-20)
(0.684471 -0.281792 7.28459e-20)
(0.797109 -0.333545 3.95295e-20)
(0.893919 -0.377114 -4.16528e-20)
(0.974437 -0.411026 -2.6031e-20)
(1.03875 -0.434401 2.22337e-20)
(1.08762 -0.447067 -3.03527e-20)
(1.12245 -0.449574 2.49305e-20)
(1.14522 -0.443109 9.45988e-22)
(1.15823 -0.429319 1.57986e-21)
(1.16391 -0.41008 -1.38635e-20)
(1.16452 -0.387254 3.26149e-20)
(1.162 -0.362502 -3.73041e-21)
(1.15778 -0.337154 8.65478e-21)
(1.15281 -0.31211 -9.8208e-21)
(1.14747 -0.288094 4.41569e-21)
(1.14136 -0.266104 -4.65263e-21)
(0.0915561 -0.0290498 4.52089e-20)
(0.256791 -0.0851843 5.61977e-20)
(0.410521 -0.143688 4.22674e-20)
(0.552284 -0.201673 -6.23854e-21)
(0.681072 -0.256856 9.5162e-21)
(0.795714 -0.307161 6.53906e-22)
(0.895169 -0.350598 9.08883e-20)
(0.978729 -0.38551 -2.67727e-20)
(1.04621 -0.410779 1.68787e-20)
(1.0981 -0.42595 -8.768e-20)
(1.13557 -0.43128 1.52834e-20)
(1.16042 -0.427685 3.49263e-20)
(1.17487 -0.416594 -1.26085e-20)
(1.18133 -0.399735 2.76009e-20)
(1.18212 -0.378901 -2.8307e-20)
(1.17927 -0.355747 3.86817e-20)
(1.17435 -0.331645 2.69248e-21)
(1.16843 -0.307561 -1.08304e-20)
(1.16201 -0.284251 -4.52543e-22)
(1.15481 -0.262773 8.18963e-21)
(0.0893857 -0.0246778 -8.69703e-20)
(0.251726 -0.0734932 2.38902e-20)
(0.403844 -0.126107 -8.49021e-21)
(0.545204 -0.179585 -6.64132e-20)
(0.674705 -0.231653 -2.3427e-20)
(0.791042 -0.280224 -4.72752e-20)
(0.89298 -0.323229 -3.9704e-20)
(0.979568 -0.358868 -4.27872e-20)
(1.05034 -0.385813 4.12912e-20)
(1.1055 -0.403347 1.78337e-20)
(1.14596 -0.41144 -5.59046e-20)
(1.17329 -0.410733 -9.71209e-21)
(1.18958 -0.402419 -4.847e-21)
(1.1972 -0.388059 -2.27576e-20)
(1.1985 -0.369354 -3.21497e-21)
(1.19561 -0.347934 -6.7057e-21)
(1.19022 -0.325201 -3.06415e-20)
(1.18352 -0.302181 1.08977e-20)
(1.17615 -0.27966 1.52751e-20)
(1.16796 -0.258764 -3.3837e-21)
(0.0867865 -0.0204591 3.43326e-21)
(0.24547 -0.0621163 -4.27934e-20)
(0.395306 -0.108848 1.99581e-20)
(0.535687 -0.157705 -1.38456e-20)
(0.665432 -0.206449 1.74531e-20)
(0.783115 -0.253011 7.86195e-20)
(0.887325 -0.295283 -3.56972e-20)
(0.976876 -0.331358 8.5645e-20)
(1.05103 -0.359729 3.94771e-21)
(1.10967 -0.379444 4.05194e-20)
(1.15342 -0.390199 4.30038e-21)
(1.18361 -0.392358 2.76169e-20)
(1.20216 -0.38687 5.52251e-21)
(1.21135 -0.375107 1.32551e-21)
(1.21353 -0.358653 -3.45788e-20)
(1.21091 -0.339095 5.83454e-21)
(1.2053 -0.317848 2.59857e-20)
(1.198 -0.295996 9.76883e-22)
(1.18982 -0.274349 -9.27296e-21)
(1.1808 -0.254111 3.93495e-21)
(0.0837956 -0.016435 1.13753e-20)
(0.23811 -0.051167 3.56608e-20)
(0.385019 -0.0920869 3.85137e-20)
(0.523845 -0.136258 -1.02184e-20)
(0.653344 -0.181502 5.12882e-20)
(0.77199 -0.225801 -1.02295e-20)
(0.878213 -0.267041 8.44419e-20)
(0.970607 -0.303243 -1.06417e-19)
(1.04816 -0.332763 -1.95397e-20)
(1.11045 -0.354438 -1.85164e-20)
(1.15778 -0.367712 -2.15428e-20)
(1.19121 -0.372678 -3.6734e-21)
(1.21243 -0.370031 9.56932e-21)
(1.22361 -0.360935 -2.80066e-20)
(1.22707 -0.346839 2.35204e-20)
(1.22505 -0.329262 -1.03534e-20)
(1.21949 -0.309614 -6.39382e-21)
(1.21182 -0.289026 -7.61247e-21)
(1.20299 -0.268361 -5.21278e-21)
(1.19326 -0.248815 -1.23579e-20)
(0.0804542 -0.0126417 5.39052e-20)
(0.229742 -0.0407479 -5.53637e-20)
(0.37311 -0.0759849 6.69727e-21)
(0.509816 -0.115454 -6.82196e-21)
(0.638567 -0.157062 -1.89697e-20)
(0.757759 -0.198865 -3.92517e-20)
(0.865689 -0.238779 -5.46833e-21)
(0.960751 -0.274793 2.70127e-20)
(1.04167 -0.305158 1.1612e-20)
(1.10772 -0.32854 -1.58782e-20)
(1.15888 -0.34415 1.77597e-20)
(1.19589 -0.351821 -1.89163e-21)
(1.2202 -0.351991 -3.36455e-20)
(1.23379 -0.345607 4.79611e-20)
(1.23894 -0.333954 1.3305e-20)
(1.2379 -0.318465 -7.00631e-21)
(1.23269 -0.300528 8.73262e-21)
(1.2249 -0.281305 1.11184e-20)
(1.21561 -0.261714 1.04202e-20)
(1.20528 -0.242913 1.04611e-20)
(0.0768067 -0.00911045 -5.63086e-20)
(0.220475 -0.0309495 4.66656e-20)
(0.359728 -0.0606874 2.06052e-20)
(0.493762 -0.0954885 -4.27648e-20)
(0.621255 -0.133363 -9.50289e-21)
(0.74055 -0.172466 -3.68238e-20)
(0.849836 -0.210773 1.51137e-20)
(0.947333 -0.246278 -2.56853e-20)
(1.03153 -0.277168 1.52558e-21)
(1.10139 -0.301969 3.9433e-21)
(1.15657 -0.319692 8.93951e-21)
(1.19747 -0.329925 -3.06931e-20)
(1.22526 -0.332852 3.18882e-20)
(1.24171 -0.329189 -2.22558e-20)
(1.24898 -0.320044 -5.16717e-21)
(1.24931 -0.306738 2.14102e-21)
(1.24481 -0.290614 -6.28356e-21)
(1.23716 -0.272856 -1.54734e-20)
(1.22762 -0.254421 -4.2863e-22)
(1.21681 -0.236428 -9.21523e-21)
(0.0728997 -0.00586689 -7.0802e-21)
(0.210425 -0.021849 -2.2027e-20)
(0.345032 -0.0463225 -7.57984e-21)
(0.475867 -0.0765367 1.22486e-20)
(0.601593 -0.110622 -8.06739e-21)
(0.720525 -0.146852 8.25996e-21)
(0.830774 -0.18329 2.00113e-20)
(0.930418 -0.217968 1.83656e-20)
(1.01773 -0.249047 1.5146e-20)
(1.09139 -0.274955 -3.69172e-21)
(1.15073 -0.29453 -8.83731e-21)
(1.19579 -0.30714 1.11545e-20)
(1.22743 -0.312722 -5.19168e-21)
(1.24717 -0.311757 7.37003e-21)
(1.257 -0.305158 -3.71904e-21)
(1.25913 -0.294111 9.09333e-21)
(1.25569 -0.279896 -2.65562e-21)
(1.24851 -0.263696 9.30381e-21)
(1.23895 -0.246501 -2.68825e-21)
(1.22782 -0.229384 7.7101e-22)
(0.0687816 -0.00293109 -1.42022e-22)
(0.199714 -0.0135097 -6.24081e-23)
(0.329197 -0.0329994 -2.65769e-21)
(0.456332 -0.0587539 1.3587e-20)
(0.579788 -0.0890364 8.9312e-21)
(0.697877 -0.122256 -7.1322e-21)
(0.80866 -0.156585 -5.58781e-21)
(0.910109 -0.190129 -1.68924e-21)
(1.00031 -0.221057 -8.6073e-21)
(1.07769 -0.247734 -5.2049e-22)
(1.14125 -0.268868 4.6573e-22)
(1.19069 -0.283629 -4.15628e-21)
(1.22652 -0.291723 -2.65546e-21)
(1.24996 -0.293393 -6.16104e-21)
(1.26281 -0.289348 -6.76792e-21)
(1.26719 -0.280618 -5.63104e-22)
(1.26522 -0.268394 2.52962e-21)
(1.25882 -0.253844 2.64843e-21)
(1.24952 -0.237973 2.89796e-21)
(1.23827 -0.221796 4.19692e-21)
(0.0645016 -0.000317393 8.52352e-21)
(0.188468 -0.00598076 -1.45555e-21)
(0.312404 -0.0208077 -2.5115e-21)
(0.435375 -0.0422728 6.53442e-21)
(0.556072 -0.0687819 1.34614e-20)
(0.672827 -0.0988899 -6.17095e-21)
(0.783685 -0.130902 -5.23544e-21)
(0.886546 -0.163018 -1.03647e-20)
(0.979348 -0.193453 -9.94682e-21)
(1.06029 -0.22055 1.87499e-21)
(1.12807 -0.242919 -1.86402e-21)
(1.18204 -0.259566 -8.98634e-22)
(1.22234 -0.269984 -4.64423e-21)
(1.24988 -0.274189 -7.6935e-21)
(1.26621 -0.272672 -1.8974e-21)
(1.27328 -0.266292 -6.3171e-22)
(1.27322 -0.25613 -1.49423e-22)
(1.26798 -0.243312 1.70919e-21)
(1.25923 -0.22885 6.28315e-21)
(1.24808 -0.213676 5.19134e-21)
(0.0601086 0.00196552 -5.17665e-21)
(0.176816 0.00070325 -8.47483e-21)
(0.29484 -0.0098162 -1.1493e-20)
(0.413224 -0.027202 1.57151e-20)
(0.530693 -0.0500088 1.56125e-20)
(0.645624 -0.0769453 3.76198e-22)
(0.756076 -0.106462 6.4068e-21)
(0.85991 -0.13688 1.84644e-20)
(0.95496 -0.16649 2.1114e-20)
(1.03923 -0.193647 1.46143e-20)
(1.11115 -0.216904 -3.69747e-20)
(1.16973 -0.235137 1.56872e-20)
(1.21473 -0.247652 -7.75192e-21)
(1.24673 -0.254248 1.71066e-20)
(1.26696 -0.255196 -1.04513e-21)
(1.27721 -0.251173 -2.82813e-21)
(1.27951 -0.243122 1.83776e-21)
(1.27585 -0.232111 1.74503e-20)
(1.26798 -0.219139 -6.20959e-21)
(1.25717 -0.205031 4.14053e-22)
(0.0556508 0.00391445 -1.70744e-20)
(0.164885 0.00652203 4.10154e-20)
(0.276697 -7.30033e-05 3.9985e-21)
(0.390116 -0.0136254 -5.39639e-20)
(0.503917 -0.0328413 -1.02101e-20)
(0.616541 -0.0565869 2.49959e-20)
(0.726088 -0.0834691 -6.01462e-20)
(0.83042 -0.111947 -7.40902e-22)
(0.927304 -0.140413 6.18881e-21)
(1.0146 -0.167271 -1.33342e-21)
(1.09049 -0.191051 1.964e-20)
(1.15367 -0.210539 -3.54422e-20)
(1.20354 -0.224884 5.80645e-21)
(1.24029 -0.233683 -1.43618e-20)
(1.26485 -0.236997 -1.20179e-20)
(1.27875 -0.235302 1.12124e-20)
(1.28389 -0.229393 -1.31315e-21)
(1.28224 -0.220249 -2.74584e-20)
(1.27564 -0.208845 8.24049e-22)
(1.26545 -0.195861 -1.36645e-20)