0.197 	0.46734 	-3.54284e-19 	1.06701 	-0.0222856 	7.35961e-16
0.199027 	0.472148 	-1.16316e-19 	1.07054 	-0.0227528 	-2.14478e-15
0.20008 	0.474647 	2.95137e-19 	1.07035 	-0.0132202 	2.46384e-15
0.201214 	0.477336 	1.68817e-19 	1.05743 	-0.012804 	3.44144e-15
0.203321 	0.482335 	-1.84791e-19 	1.00951 	-0.0115187 	2.38897e-15
0.205428 	0.487333 	2.81617e-19 	0.88319 	-0.00858769 	3.82242e-15
0.207535 	0.492331 	1.16027e-18 	0.622612 	-0.00344932 	2.24542e-15
0.209642 	0.49733 	2.05088e-18 	0.21943 	0.000100933 	4.55007e-16
