0.156341 	0.482335 	5.68942e-19 	1.03537 	-0.0217761 	-4.26707e-16
0.157961 	0.487333 	1.34445e-18 	0.932174 	-0.0181105 	-2.32911e-15
0.159581 	0.492331 	1.51624e-18 	0.685218 	-0.0100634 	-8.9611e-16
0.161201 	0.49733 	5.41057e-19 	0.2487 	-0.0010917 	1.26072e-16
