0.0500078 	0.499751 	2.64667e-18 	0.512527 	-0.0138226 	-1.6029e-16
