0.166074 	0.477336 	1.91965e-18 	1.06661 	-0.0228305 	-3.69412e-15
0.167813 	0.482335 	9.63337e-19 	1.03537 	-0.0217761 	-4.26707e-16
0.169552 	0.487333 	3.86307e-19 	0.932174 	-0.0181105 	-2.32911e-15
0.171291 	0.492331 	2.13776e-19 	0.685218 	-0.0100634 	-8.9611e-16
0.17303 	0.49733 	-1.07188e-18 	0.2487 	-0.0010917 	1.26072e-16
