0.145026 	0.482335 	-4.39734e-18 	1.05494 	-0.0324283 	-5.32279e-15
0.146528 	0.487333 	-4.58178e-18 	0.991582 	-0.0301348 	6.30305e-16
0.148031 	0.492331 	-4.09677e-18 	0.789085 	-0.0217203 	6.24982e-16
0.149391 	0.496855 	-3.89285e-18 	0.328253 	-0.00538151 	2.27539e-16
0.150143 	0.499354 	-3.61458e-18 	0.2487 	-0.0010917 	1.26072e-16
