0.12409 	0.487333 	2.69093e-18 	0.991582 	-0.0301348 	6.30305e-16
0.125363 	0.492331 	1.46392e-18 	0.789085 	-0.0217203 	6.24982e-16
0.126636 	0.49733 	1.81622e-18 	0.328253 	-0.00538151 	2.27539e-16
