0.114218 	0.492331 	-9.50284e-19 	8.01088
0.115377 	0.49733 	-8.10914e-19 	8.01042
