0.135243 	0.487333 	8.85092e-19 	8.01168
0.13663 	0.492331 	1.16939e-18 	8.01088
0.138017 	0.49733 	6.25619e-19 	8.01042
