/*--------------------------------*- C++ -*----------------------------------*\
  =========                 |
  \\      /  F ield         | OpenFOAM: The Open Source CFD Toolbox
   \\    /   O peration     | Website:  https://openfoam.org
    \\  /    A nd           | Version:  7
     \\/     M anipulation  |
\*---------------------------------------------------------------------------*/
FoamFile
{
    version     2.0;
    format      ascii;
    class       surfaceScalarField;
    location    "9.2";
    object      phi;
}
// * * * * * * * * * * * * * * * * * * * * * * * * * * * * * * * * * * * * * //

dimensions      [0 3 -1 0 0 0 0];

internalField   nonuniform List<scalar> 
614
(
0.00027393
1.7889e-06
0.000273424
1.77527e-06
0.000272922
1.76169e-06
0.000272425
1.74814e-06
0.000271932
1.73464e-06
0.000271444
1.72119e-06
0.000270961
1.70777e-06
0.000270481
1.6944e-06
0.000270007
1.68108e-06
0.000269536
1.66779e-06
0.00026907
1.65456e-06
0.000268609
1.64137e-06
0.000268151
1.62822e-06
0.000267698
1.61512e-06
0.000267249
1.60207e-06
0.000266805
1.58907e-06
0.000266364
1.57611e-06
0.000265928
1.56321e-06
0.000265495
1.55035e-06
0.000265067
1.53754e-06
0.000264643
1.52478e-06
0.000264222
1.51208e-06
0.000263806
1.49942e-06
0.000263394
1.48682e-06
0.000262985
1.47427e-06
0.000262581
1.46177e-06
0.00026218
1.44933e-06
0.000261783
1.43694e-06
0.00026139
1.4246e-06
0.000261001
1.41232e-06
0.000260615
1.40009e-06
0.000260233
1.38792e-06
0.000259855
1.37581e-06
0.00025948
1.36374e-06
0.000259109
1.35174e-06
0.000258742
1.33979e-06
0.000258378
1.32789e-06
0.000258017
1.31605e-06
0.000257661
1.30427e-06
0.000257307
1.29253e-06
0.000256957
1.28085e-06
0.000256611
1.26922e-06
0.000256268
1.25764e-06
0.000255928
1.24611e-06
0.000255592
1.23461e-06
0.000255259
1.22315e-06
0.000254929
1.21173e-06
0.000254603
1.20033e-06
0.00025428
1.18895e-06
0.00025396
1.17757e-06
0.000253644
1.16618e-06
0.000253331
1.15477e-06
0.000253021
1.14331e-06
0.000252715
1.13176e-06
0.000252411
1.12012e-06
0.000252112
1.1083e-06
0.000251815
1.09635e-06
0.000251522
1.08398e-06
0.000251233
1.07163e-06
0.000250947
1.05813e-06
0.000250665
1.04566e-06
0.000250387
1.02949e-06
0.000250113
1.01882e-06
9.96569e-07
0.000313823
2.42506e-06
0.000313247
2.40523e-06
0.000312678
2.38551e-06
0.000312115
2.3659e-06
0.000311557
2.3464e-06
0.000311006
2.327e-06
0.00031046
2.3077e-06
0.000309919
2.28851e-06
0.000309384
2.26942e-06
0.000308855
2.25044e-06
0.000308331
2.23156e-06
0.000307813
2.21278e-06
0.0003073
2.1941e-06
0.000306792
2.17552e-06
0.00030629
2.15705e-06
0.000305792
2.13868e-06
0.0003053
2.1204e-06
0.000304813
2.10223e-06
0.000304331
2.08416e-06
0.000303854
2.06619e-06
0.000303382
2.04831e-06
0.000302914
2.03054e-06
0.000302452
2.01287e-06
0.000301994
1.9953e-06
0.000301541
1.97782e-06
0.000301093
1.96045e-06
0.000300649
1.94317e-06
0.00030021
1.92599e-06
0.000299775
1.90891e-06
0.000299345
1.89193e-06
0.000298919
1.87505e-06
0.000298498
1.85827e-06
0.000298081
1.84158e-06
0.000297668
1.82499e-06
0.00029726
1.8085e-06
0.000296856
1.79211e-06
0.000296456
1.77581e-06
0.00029606
1.75961e-06
0.000295668
1.7435e-06
0.00029528
1.72749e-06
0.000294897
1.71158e-06
0.000294517
1.69575e-06
0.000294141
1.68002e-06
0.000293769
1.66438e-06
0.000293401
1.64882e-06
0.000293037
1.63335e-06
0.000292677
1.61796e-06
0.00029232
1.60266e-06
0.000291968
1.58742e-06
0.000291618
1.57225e-06
0.000291273
1.55714e-06
0.000290931
1.54208e-06
0.000290593
1.52706e-06
0.000290259
1.51207e-06
0.000289928
1.49708e-06
0.000289601
1.48207e-06
0.000289277
1.46702e-06
0.000288957
1.45189e-06
0.00028864
1.43664e-06
0.000288327
1.42118e-06
0.000288018
1.40556e-06
0.000287713
1.38944e-06
0.000287411
1.37328e-06
0.000287113
1.35577e-06
0.00028682
1.33936e-06
0.000286531
1.31849e-06
0.000286245
1.30425e-06
1.27531e-06
0.000345902
3.02965e-06
0.000345304
3.00271e-06
0.000344714
2.97598e-06
0.00034413
2.94945e-06
0.000343553
2.92313e-06
0.000342983
2.897e-06
0.00034242
2.87107e-06
0.000341863
2.84533e-06
0.000341313
2.81979e-06
0.000340769
2.79443e-06
0.000340231
2.76926e-06
0.0003397
2.74428e-06
0.000339174
2.71949e-06
0.000338655
2.69487e-06
0.000338141
2.67044e-06
0.000337634
2.64619e-06
0.000337132
2.62211e-06
0.000336636
2.59821e-06
0.000336146
2.57449e-06
0.000335661
2.55094e-06
0.000335182
2.52756e-06
0.000334708
2.50435e-06
0.00033424
2.48131e-06
0.000333777
2.45843e-06
0.000333319
2.43573e-06
0.000332866
2.41319e-06
0.000332418
2.39081e-06
0.000331976
2.36859e-06
0.000331538
2.34654e-06
0.000331105
2.32464e-06
0.000330677
2.30291e-06
0.000330254
2.28133e-06
0.000329836
2.25991e-06
0.000329422
2.23864e-06
0.000329013
2.21753e-06
0.000328609
2.19656e-06
0.000328209
2.17575e-06
0.000327813
2.15509e-06
0.000327422
2.13458e-06
0.000327036
2.11422e-06
0.000326653
2.09399e-06
0.000326275
2.07391e-06
0.000325901
2.05397e-06
0.000325531
2.03417e-06
0.000325166
2.0145e-06
0.000324804
1.99496e-06
0.000324446
1.97555e-06
0.000324093
1.95626e-06
0.000323743
1.93708e-06
0.000323397
1.91801e-06
0.000323056
1.89904e-06
0.000322718
1.88015e-06
0.000322383
1.86133e-06
0.000322053
1.84256e-06
0.000321726
1.82383e-06
0.000321403
1.8051e-06
0.000321084
1.78634e-06
0.000320768
1.7675e-06
0.000320456
1.74854e-06
0.000320148
1.72936e-06
0.000319844
1.70997e-06
0.000319543
1.69005e-06
0.000319246
1.66999e-06
0.000318954
1.64845e-06
0.000318665
1.62795e-06
0.000318381
1.60241e-06
0.000318101
1.58435e-06
1.54862e-06
0.000371742
3.62472e-06
0.000371155
3.58991e-06
0.000370576
3.55543e-06
0.000370004
3.52128e-06
0.00036944
3.48745e-06
0.000368883
3.45394e-06
0.000368333
3.42075e-06
0.00036779
3.38787e-06
0.000367255
3.35529e-06
0.000366726
3.32302e-06
0.000366205
3.29104e-06
0.000365689
3.25936e-06
0.000365181
3.22796e-06
0.000364679
3.19686e-06
0.000364183
3.16603e-06
0.000363694
3.13548e-06
0.000363211
3.10521e-06
0.000362734
3.07521e-06
0.000362263
3.04548e-06
0.000361798
3.01601e-06
0.000361339
2.98681e-06
0.000360885
2.95786e-06
0.000360437
2.92917e-06
0.000359995
2.90073e-06
0.000359558
2.87253e-06
0.000359127
2.84459e-06
0.000358701
2.81689e-06
0.00035828
2.78943e-06
0.000357864
2.7622e-06
0.000357454
2.73522e-06
0.000357048
2.70846e-06
0.000356648
2.68194e-06
0.000356252
2.65564e-06
0.000355861
2.62956e-06
0.000355475
2.60371e-06
0.000355093
2.57808e-06
0.000354716
2.55266e-06
0.000354344
2.52746e-06
0.000353976
2.50246e-06
0.000353613
2.47768e-06
0.000353253
2.4531e-06
0.000352899
2.42872e-06
0.000352548
2.40454e-06
0.000352202
2.38055e-06
0.000351859
2.35675e-06
0.000351521
2.33313e-06
0.000351187
2.30969e-06
0.000350857
2.28642e-06
0.000350531
2.26332e-06
0.000350208
2.24037e-06
0.00034989
2.21756e-06
0.000349575
2.19488e-06
0.000349264
2.17231e-06
0.000348957
2.14983e-06
0.000348653
2.12742e-06
0.000348353
2.10504e-06
0.000348057
2.08265e-06
0.000347764
2.06021e-06
0.000347475
2.03766e-06
0.00034719
2.01488e-06
0.000346908
1.99187e-06
0.00034663
1.96829e-06
0.000346355
1.94449e-06
0.000346084
1.91913e-06
0.000345818
1.89465e-06
0.000345555
1.86477e-06
0.000345297
1.84283e-06
1.80062e-06
0.000391024
4.17415e-06
0.000390483
4.13115e-06
0.00038995
4.08865e-06
0.000389425
4.04662e-06
0.000388907
4.00506e-06
0.000388397
3.96397e-06
0.000387894
3.92333e-06
0.000387399
3.88313e-06
0.000386911
0.00038643
0.000385956
0.000385489
0.000385028
0.000384574
0.000384126
0.000383685
0.00038325
0.000382821
0.000382398
0.000381981
0.000381569
0.000381164
0.000380763
0.000380369
0.00037998
0.000379596
0.000379217
0.000378844
0.000378475
0.000378112
0.000377753
0.000377399
0.00037705
0.000376705
0.000376365
0.00037603
0.000375699
0.000375372
0.00037505
0.000374731
0.000374417
0.000374107
0.000373801
0.000373499
0.000373201
0.000372907
0.000372616
0.00037233
0.000372047
0.000371767
0.000371491
0.000371219
0.00037095
0.000370684
0.000370422
0.000370163
0.000369908
0.000369656
0.000369407
0.000369161
0.000368918
0.000368679
0.000368443
0.000368211
0.000367982
0.000367757
0.000367535
0.000403612
0.000403153
0.000402701
0.000402257
0.000401821
0.000401392
0.00040097
)
;

boundaryField
{
    inlet
    {
        type            calculated;
        value           nonuniform 0();
    }
    outlet
    {
        type            calculated;
        value           nonuniform List<scalar> 5(0.000249844 0.000285966 0.000317828 0.000345045 0.000367319);
    }
    wall
    {
        type            calculated;
        value           nonuniform 0();
    }
    wedge1
    {
        type            wedge;
        value           nonuniform List<scalar> 
344
(
-3.62128e-16
-5.80195e-17
-4.32745e-16
-6.55565e-17
-4.64633e-16
-3.5929e-16
-5.75174e-17
-4.28735e-16
-6.48994e-17
-4.59682e-16
-3.56463e-16
-5.70279e-17
-4.24757e-16
-6.42552e-17
-4.54788e-16
-3.53659e-16
-5.65321e-17
-4.20821e-16
-6.36112e-17
-4.49959e-16
-4.43534e-17
-3.5083e-16
-5.60595e-17
-4.16895e-16
-6.29899e-17
-4.45171e-16
-4.40338e-17
-3.48044e-16
-5.55743e-17
-4.13023e-16
-6.23617e-17
-4.40454e-16
-4.37108e-17
-3.45276e-16
-5.51007e-17
-4.09189e-16
-6.17473e-17
-4.358e-16
-4.33902e-17
-3.42514e-16
-5.46215e-17
-4.05382e-16
-6.11335e-17
-4.3119e-16
-4.30708e-17
-3.39752e-16
-5.41536e-17
-4.01601e-16
-6.05308e-17
-4.27526e-17
-3.37014e-16
-5.3681e-17
-3.9786e-16
-5.99282e-17
-4.24336e-17
-3.34277e-16
-5.32139e-17
-3.94141e-16
-5.9334e-17
-4.21086e-17
-3.31567e-16
-5.27474e-17
-3.90465e-16
-5.87437e-17
-4.17922e-17
-3.28853e-16
-5.23009e-17
-3.86808e-16
-5.81711e-17
-4.14748e-17
-3.26167e-16
-5.18457e-17
-3.83193e-16
-5.75977e-17
-4.11614e-17
-3.23487e-16
-5.1393e-17
-3.79606e-16
-5.70296e-17
-4.08437e-17
-3.20826e-16
-5.09461e-17
-3.76053e-16
-5.64701e-17
-4.05315e-17
-3.18172e-16
-5.04945e-17
-3.72524e-16
-5.59104e-17
-4.02172e-17
-3.15523e-16
-5.00529e-17
-3.69018e-16
-5.53591e-17
-3.99067e-17
-3.12894e-16
-4.9609e-17
-3.65548e-16
-5.48089e-17
-3.95958e-17
-3.10269e-16
-4.91679e-17
-3.62097e-16
-5.42651e-17
-3.92818e-17
-3.07668e-16
-4.87283e-17
-3.58688e-16
-5.3724e-17
-3.89699e-17
-3.05068e-16
-4.83071e-17
-3.55294e-16
-5.3201e-17
-3.86614e-17
-3.02489e-16
-4.78776e-17
-3.51937e-16
-5.26723e-17
-3.83557e-17
-2.99931e-16
-4.745e-17
-3.48612e-16
-5.21536e-17
-3.80446e-17
-2.97377e-16
-4.70186e-17
-3.4531e-16
-5.16304e-17
-3.77358e-17
-2.94817e-16
-4.66076e-17
-3.42018e-16
-5.1125e-17
-3.743e-17
-2.92291e-16
-4.61816e-17
-3.38768e-16
-5.06145e-17
-3.71247e-17
-2.89769e-16
-4.57647e-17
-3.3554e-16
-5.01129e-17
-3.68169e-17
-2.87269e-16
-4.53424e-17
-3.32345e-16
-4.9609e-17
-3.65129e-17
-2.84757e-16
-4.49386e-17
-3.29158e-16
-4.91217e-17
-3.62137e-17
-2.82282e-16
-4.45294e-17
-3.26011e-16
-4.86316e-17
-3.59132e-17
-2.79821e-16
-4.41266e-17
-3.22892e-16
-4.81507e-17
-3.56135e-17
-2.77368e-16
-4.37205e-17
-3.19795e-16
-4.76686e-17
-3.53163e-17
-2.74921e-16
-4.33228e-17
-3.16718e-16
-4.71947e-17
-3.50187e-17
-2.72495e-16
-4.29227e-17
-3.13669e-16
-4.67214e-17
-3.4723e-17
-2.70074e-16
-4.25262e-17
-3.10639e-16
-4.62537e-17
-3.4427e-17
-2.67676e-16
-4.21313e-17
-3.07641e-16
-4.57886e-17
-3.41339e-17
-2.65279e-16
-4.1749e-17
-3.04658e-16
-4.53359e-17
-3.38383e-17
-2.62903e-16
-4.13611e-17
-3.01706e-16
-4.48815e-17
-3.35477e-17
-2.60538e-16
-4.09751e-17
-2.98775e-16
-4.44315e-17
-3.32579e-17
-2.58188e-16
-4.05947e-17
-2.9587e-16
-4.3987e-17
-3.29674e-17
-2.55849e-16
-4.02129e-17
-2.92983e-16
-4.35428e-17
-3.26787e-17
-2.53516e-16
-3.9836e-17
-2.90115e-16
-4.3105e-17
-3.23918e-17
-2.51201e-16
-3.94586e-17
-2.87273e-16
-4.26685e-17
-3.21064e-17
-2.48894e-16
-3.90853e-17
-2.84448e-16
-4.22357e-17
-3.18205e-17
-2.46605e-16
-3.8712e-17
-2.8165e-16
-4.18061e-17
-3.15367e-17
-2.4432e-16
-3.83493e-17
-2.78867e-16
-4.13868e-17
-3.12542e-17
-2.42052e-16
-3.79821e-17
-2.76107e-16
-4.09654e-17
-3.09731e-17
-2.39796e-16
-3.76184e-17
-2.73366e-16
-4.05482e-17
-3.06894e-17
-2.37548e-16
-3.72523e-17
-2.70644e-16
-4.0131e-17
-3.04076e-17
-2.35299e-16
-3.68964e-17
-2.67931e-16
-3.97227e-17
-3.01272e-17
-2.33069e-16
-3.65354e-17
-2.6524e-16
-3.93117e-17
-2.98481e-17
-2.30841e-16
-3.61767e-17
-2.62559e-16
-3.89042e-17
-2.95675e-17
-2.28621e-16
-3.58164e-17
-2.59894e-16
-3.84969e-17
-2.92869e-17
-2.26395e-16
-3.54625e-17
-2.5723e-16
-3.80959e-17
-2.90075e-17
-2.24177e-16
-3.51052e-17
-2.54579e-16
-3.76935e-17
-2.87267e-17
-2.21956e-16
-3.47493e-17
-2.51931e-16
-3.7293e-17
-2.84444e-17
-2.19727e-16
-3.43914e-17
-2.49278e-16
-3.68912e-17
-2.81611e-17
-2.17482e-16
-3.40331e-17
-2.46617e-16
-3.64896e-17
-2.78759e-17
-2.15218e-16
-3.36719e-17
-2.43939e-16
-3.60866e-17
-2.75849e-17
-2.12934e-16
-3.3307e-17
-2.4124e-16
-3.56796e-17
-2.72843e-17
-2.10591e-16
-3.29352e-17
-2.38488e-16
-3.52671e-17
-2.69872e-17
-2.08245e-16
-3.25612e-17
-2.35718e-16
-3.4851e-17
-2.66679e-17
-2.05742e-16
-3.21656e-17
-2.32803e-16
-3.44167e-17
-2.63657e-17
-2.03349e-16
-3.17829e-17
-2.29958e-16
-3.39883e-17
-2.59993e-17
-2.00471e-16
-3.13309e-17
-2.26634e-16
-3.34965e-17
-2.57085e-17
-1.9818e-16
-3.09607e-17
-2.23883e-16
-3.30763e-17
-2.51874e-17
-1.94105e-16
-3.03196e-17
-2.1918e-16
-3.23811e-17
)
;
    }
    wedge2
    {
        type            wedge;
        value           nonuniform List<scalar> 
344
(
-3.61682e-16
-5.7543e-17
-4.32308e-16
-6.51285e-17
-4.64257e-16
-3.58837e-16
-5.70549e-17
-4.28288e-16
-6.44797e-17
-4.59297e-16
-3.56007e-16
-5.65618e-17
-4.24307e-16
-6.38322e-17
-4.544e-16
-3.53178e-16
-5.60808e-17
-4.20353e-16
-6.3198e-17
-4.49557e-16
-4.39344e-17
-3.50398e-16
-5.55839e-17
-4.16458e-16
-6.25545e-17
-4.44788e-16
-4.36071e-17
-3.476e-16
-5.51054e-17
-4.12576e-16
-6.19309e-17
-4.40064e-16
-4.32846e-17
-3.4481e-16
-5.46218e-17
-4.08724e-16
-6.13068e-17
-4.35389e-16
-4.29609e-17
-3.42038e-16
-5.41503e-17
-4.0491e-16
-6.0695e-17
-4.3078e-16
-4.26373e-17
-3.39289e-16
-5.36738e-17
-4.01136e-16
-6.00842e-17
-4.2314e-17
-3.36542e-16
-5.32077e-17
-3.97385e-16
-5.94857e-17
-4.1993e-17
-3.33818e-16
-5.2743e-17
-3.93677e-16
-5.88914e-17
-4.16792e-17
-3.31092e-16
-5.22833e-17
-3.89987e-16
-5.83051e-17
-4.13583e-17
-3.28394e-16
-5.18101e-17
-3.86341e-16
-5.77129e-17
-4.10401e-17
-3.25693e-16
-5.13515e-17
-3.82714e-16
-5.71332e-17
-4.07193e-17
-3.23011e-16
-5.08962e-17
-3.7912e-16
-5.65595e-17
-4.04047e-17
-3.20334e-16
-5.04412e-17
-3.7555e-16
-5.59887e-17
-4.00858e-17
-3.17675e-16
-4.99968e-17
-3.72017e-16
-5.54291e-17
-3.9771e-17
-3.15036e-16
-4.95483e-17
-3.68518e-16
-5.48723e-17
-3.9454e-17
-3.12401e-16
-4.91077e-17
-3.65041e-16
-5.43252e-17
-3.91395e-17
-3.09787e-16
-4.86703e-17
-3.61603e-16
-5.37824e-17
-3.88292e-17
-3.07174e-16
-4.82371e-17
-3.58178e-16
-5.32473e-17
-3.85194e-17
-3.04585e-16
-4.77913e-17
-3.54795e-16
-5.27046e-17
-3.82076e-17
-3.02e-16
-4.73592e-17
-3.5143e-16
-5.21779e-17
-3.78948e-17
-2.99419e-16
-4.6931e-17
-3.48087e-16
-5.16514e-17
-3.75895e-17
-2.96859e-16
-4.65124e-17
-3.44776e-16
-5.1139e-17
-3.72842e-17
-2.9433e-16
-4.60788e-17
-3.41508e-16
-5.06188e-17
-3.69775e-17
-2.91793e-16
-4.56656e-17
-3.38252e-16
-5.01136e-17
-3.66727e-17
-2.89276e-16
-4.52491e-17
-3.35026e-16
-4.96089e-17
-3.63724e-17
-2.86764e-16
-4.48434e-17
-3.31818e-16
-4.9116e-17
-3.60703e-17
-2.84289e-16
-4.44246e-17
-3.28656e-16
-4.86157e-17
-3.57656e-17
-2.81802e-16
-4.40172e-17
-3.25503e-16
-4.81276e-17
-3.54644e-17
-2.79327e-16
-4.36082e-17
-3.22372e-16
-4.76394e-17
-3.51648e-17
-2.76869e-16
-4.3208e-17
-3.1927e-16
-4.71613e-17
-3.48649e-17
-2.74431e-16
-4.28047e-17
-3.16198e-16
-4.66839e-17
-3.45675e-17
-2.71998e-16
-4.24094e-17
-3.13146e-16
-4.62146e-17
-3.42707e-17
-2.69586e-16
-4.20154e-17
-3.10124e-16
-4.57485e-17
-3.39765e-17
-2.67176e-16
-4.16252e-17
-3.07118e-16
-4.52882e-17
-3.36817e-17
-2.64791e-16
-4.12278e-17
-3.04144e-16
-4.48239e-17
-3.33919e-17
-2.6241e-16
-4.0841e-17
-3.01186e-16
-4.43695e-17
-3.30994e-17
-2.60044e-16
-4.04576e-17
-2.98253e-16
-4.39188e-17
-3.28087e-17
-2.57688e-16
-4.00734e-17
-2.95341e-16
-4.34706e-17
-3.25208e-17
-2.55346e-16
-3.96959e-17
-2.92454e-16
-4.303e-17
-3.22337e-17
-2.53024e-16
-3.93185e-17
-2.89593e-16
-4.2591e-17
-3.19471e-17
-2.50708e-16
-3.8946e-17
-2.8675e-16
-4.21581e-17
-3.16614e-17
-2.48407e-16
-3.85746e-17
-2.83933e-16
-4.1729e-17
-3.13782e-17
-2.46113e-16
-3.82077e-17
-2.81129e-16
-4.13038e-17
-3.10953e-17
-2.43837e-16
-3.78348e-17
-2.78352e-16
-4.08756e-17
-3.08133e-17
-2.41568e-16
-3.74709e-17
-2.75591e-16
-4.04562e-17
-3.05318e-17
-2.39306e-16
-3.71074e-17
-2.72848e-16
-4.00393e-17
-3.02548e-17
-2.37057e-16
-3.67506e-17
-2.70122e-16
-3.96287e-17
-2.99777e-17
-2.34826e-16
-3.63872e-17
-2.67421e-16
-3.92152e-17
-2.97003e-17
-2.32593e-16
-3.60322e-17
-2.64729e-16
-3.88098e-17
-2.94228e-17
-2.3037e-16
-3.5678e-17
-2.62054e-16
-3.8406e-17
-2.91474e-17
-2.28149e-16
-3.53275e-17
-2.59388e-16
-3.80066e-17
-2.88721e-17
-2.2594e-16
-3.49724e-17
-2.56738e-16
-3.76047e-17
-2.85949e-17
-2.23723e-16
-3.46215e-17
-2.54088e-16
-3.72069e-17
-2.83179e-17
-2.21501e-16
-3.42691e-17
-2.51441e-16
-3.68091e-17
-2.80397e-17
-2.19273e-16
-3.39169e-17
-2.48792e-16
-3.64127e-17
-2.77592e-17
-2.17037e-16
-3.35627e-17
-2.46137e-16
-3.60149e-17
-2.7474e-17
-2.14774e-16
-3.32053e-17
-2.43462e-16
-3.56146e-17
-2.719e-17
-2.12495e-16
-3.28458e-17
-2.40767e-16
-3.52129e-17
-2.68997e-17
-2.10161e-16
-3.24778e-17
-2.38022e-16
-3.48037e-17
-2.66064e-17
-2.07818e-16
-3.21082e-17
-2.35254e-16
-3.43909e-17
-2.62924e-17
-2.0532e-16
-3.17171e-17
-2.32343e-16
-3.39594e-17
-2.59942e-17
-2.02931e-16
-3.13389e-17
-2.29501e-16
-3.35338e-17
-2.56326e-17
-2.00059e-16
-3.0893e-17
-2.26181e-16
-3.30467e-17
-2.53469e-17
-1.97774e-16
-3.05275e-17
-2.23436e-16
-3.26315e-17
-2.48317e-17
-1.93705e-16
-2.98935e-17
-2.1874e-16
-3.19421e-17
)
;
    }
    axis
    {
        type            empty;
        value           nonuniform 0();
    }
    procBoundary11to5
    {
        type            processor;
        value           nonuniform List<scalar> 
69
(
-1.27782e-06
-1.26886e-06
-1.25991e-06
-1.25097e-06
-1.24203e-06
-1.2331e-06
-1.22418e-06
-1.21526e-06
-1.20636e-06
-1.19746e-06
-1.18858e-06
-1.1797e-06
-1.17084e-06
-1.162e-06
-1.15317e-06
-1.14435e-06
-1.13555e-06
-1.12676e-06
-1.118e-06
-1.10925e-06
-1.10052e-06
-1.09181e-06
-1.08312e-06
-1.07445e-06
-1.06581e-06
-1.05718e-06
-1.04859e-06
-1.04001e-06
-1.03146e-06
-1.02294e-06
-1.01444e-06
-1.00597e-06
-9.97525e-07
-9.89109e-07
-9.8072e-07
-9.7236e-07
-9.64027e-07
-9.55723e-07
-9.47448e-07
-9.392e-07
-9.30979e-07
-9.22784e-07
-9.14614e-07
-9.06468e-07
-8.98342e-07
-8.90234e-07
-8.8214e-07
-8.74055e-07
-8.65972e-07
-8.57884e-07
-8.4978e-07
-8.41645e-07
-8.3347e-07
-8.25223e-07
-8.16904e-07
-8.08435e-07
-7.99883e-07
-7.90992e-07
-7.82164e-07
-7.7241e-07
-7.63562e-07
-7.51821e-07
-7.44356e-07
-7.28287e-07
-1.84381e-06
-1.83002e-06
-1.81627e-06
-0.000274441
-1.80256e-06
)
;
    }
    procBoundary11to10
    {
        type            processor;
        value           nonuniform List<scalar> 4(-0.000314404 -0.000346506 -0.000372337 -0.000391574);
    }
    procBoundary11to16
    {
        type            processor;
        value           nonuniform List<scalar> 2(-0.000404079 4.64112e-06);
    }
    procBoundary11to17
    {
        type            processor;
        value           nonuniform List<scalar> 
68
(
3.84338e-06
3.80405e-06
3.76515e-06
3.72668e-06
3.68861e-06
3.65095e-06
3.61369e-06
3.57682e-06
3.54033e-06
3.50423e-06
3.46851e-06
3.43315e-06
3.39816e-06
3.36352e-06
3.32924e-06
3.29531e-06
3.26172e-06
3.22847e-06
3.19556e-06
3.16297e-06
3.1307e-06
3.09876e-06
3.06713e-06
3.03581e-06
3.00479e-06
2.97408e-06
2.94367e-06
2.91354e-06
2.88371e-06
2.85416e-06
2.82489e-06
2.7959e-06
2.76717e-06
2.73872e-06
2.71052e-06
2.68257e-06
2.65488e-06
2.62743e-06
2.60021e-06
2.57322e-06
2.54644e-06
2.51987e-06
2.49349e-06
2.46729e-06
2.44125e-06
2.41535e-06
2.38955e-06
2.36383e-06
2.33814e-06
2.31242e-06
2.28661e-06
2.26059e-06
2.23433e-06
2.20752e-06
2.18037e-06
2.1517e-06
2.12361e-06
2.09005e-06
2.06437e-06
2.01646e-06
4.59024e-06
4.54002e-06
4.49043e-06
4.44147e-06
4.39313e-06
4.34539e-06
0.000400555
4.29825e-06
)
;
    }
}


// ************************************************************************* //
