/*--------------------------------*- C++ -*----------------------------------*\
  =========                 |
  \\      /  F ield         | OpenFOAM: The Open Source CFD Toolbox
   \\    /   O peration     | Website:  https://openfoam.org
    \\  /    A nd           | Version:  7
     \\/     M anipulation  |
\*---------------------------------------------------------------------------*/
FoamFile
{
    version     2.0;
    format      ascii;
    class       volVectorField;
    location    "15";
    object      U;
}
// * * * * * * * * * * * * * * * * * * * * * * * * * * * * * * * * * * * * * //

dimensions      [0 1 -1 0 0 0 0];

internalField   nonuniform List<vector> 
5600
(
(-0.00376376 0.00127806 -1.45891e-20)
(-0.0141182 0.00190602 -2.22195e-20)
(-0.0265885 0.00169208 1.14919e-21)
(-0.0346388 0.0010281 1.99078e-20)
(-0.0380343 0.000147445 1.02752e-21)
(-0.0359455 -0.000834752 1.5126e-20)
(-0.0286111 -0.00184469 -1.47227e-20)
(-0.0158273 -0.00282819 -1.92082e-21)
(0.000398165 -0.00360579 -2.99071e-20)
(0.0221324 -0.00428069 -8.69146e-21)
(-0.00391032 0.00380378 5.4529e-20)
(-0.0141236 0.00566311 -2.56003e-20)
(-0.0261328 0.00501669 8.71144e-20)
(-0.0335662 0.00302923 -2.25583e-20)
(-0.0362165 0.000398182 -1.3595e-20)
(-0.0332883 -0.00253336 1.78636e-21)
(-0.0250405 -0.0055453 3.21119e-21)
(-0.0112415 -0.00847362 2.18915e-20)
(0.00594977 -0.0107979 4.16722e-20)
(0.0291488 -0.0127803 7.68409e-21)
(-0.00419592 0.00623909 -1.68325e-20)
(-0.0141213 0.00925657 3.86815e-20)
(-0.0252079 0.00816397 -1.00467e-19)
(-0.0314091 0.00486643 -3.64174e-20)
(-0.0325722 0.000517677 1.13995e-19)
(-0.0279699 -0.00431833 -4.20379e-20)
(-0.0179009 -0.00928082 -8.3613e-20)
(-0.00208288 -0.01409 -2.03774e-20)
(0.0170261 -0.0179257 -3.68494e-20)
(0.0431386 -0.021091 2.83788e-20)
(-0.00460573 0.00852623 5.95333e-21)
(-0.014085 0.0125815 -6.70979e-20)
(-0.0237868 0.0110202 4.48068e-20)
(-0.0281435 0.00643487 2.24938e-20)
(-0.0270841 0.000422734 -2.14908e-19)
(-0.0199825 -0.00624364 1.68037e-20)
(-0.00719637 -0.0130763 1.42042e-19)
(0.0116253 -0.0196575 1.21773e-19)
(0.0335755 -0.0249367 9.91598e-20)
(0.0640111 -0.0290782 8.09733e-20)
(-0.00511797 0.0106112 -1.04596e-20)
(-0.013976 0.0155391 -2.02908e-20)
(-0.021829 0.0134784 8.70723e-20)
(-0.0237335 0.00763649 -1.3895e-20)
(-0.0197257 3.67146e-05 1.02546e-20)
(-0.00931575 -0.008356 5.83364e-20)
(0.00706525 -0.0169377 2.8581e-20)
(0.0298517 -0.0251544 -1.81324e-19)
(0.0555214 -0.0317798 -3.37961e-20)
(0.0916236 -0.0365996 -1.60759e-19)
(-0.00570439 0.012445 -6.27607e-21)
(-0.0137435 0.0180391 1.39383e-19)
(-0.0192811 0.0154409 -1.34039e-19)
(-0.0181307 0.00838268 2.69011e-20)
(-0.0104611 -0.000707736 -1.27844e-19)
(0.00404892 -0.0106925 2.10352e-19)
(0.0248705 -0.0208616 -5.9207e-20)
(0.0525448 -0.0305456 9.30967e-20)
(0.0827639 -0.0383987 -4.43225e-20)
(0.125777 -0.0435041 -9.22578e-20)
(-0.00633103 0.0139846 6.69108e-20)
(-0.0133253 0.0200016 -1.37242e-19)
(-0.0160766 0.0168219 1.77986e-20)
(-0.0112746 0.00859697 1.47569e-19)
(0.000755423 -0.00186599 1.20567e-19)
(0.020134 -0.0132795 -9.14576e-20)
(0.0462069 -0.0248449 1.39239e-19)
(0.0796378 -0.0357732 8.54734e-21)
(0.115173 -0.044724 1.53513e-19)
(0.166208 -0.0496295 6.27813e-20)
(-0.00695888 0.0151944 -1.43659e-19)
(-0.0126489 0.0213593 1.1009e-19)
(-0.012137 0.0175498 -4.01552e-20)
(-0.00309274 0.00821785 -4.17998e-20)
(0.0139793 -0.00347839 -9.46818e-20)
(0.0389662 -0.0161281 -1.89659e-19)
(0.0710593 -0.0288651 1.79211e-20)
(0.111047 -0.0407671 -1.70391e-20)
(0.152586 -0.0506719 -1.13863e-19)
(0.212574 -0.0548047 4.85662e-20)
(-0.00754483 0.0160461 7.90434e-20)
(-0.0116323 0.0220583 -2.71748e-19)
(-0.00737187 0.0175695 3.18723e-19)
(0.00649929 0.00720141 -6.88167e-20)
(0.0292751 -0.00556736 1.79372e-19)
(0.060576 -0.0192313 1.42866e-19)
(0.0994075 -0.0328799 -2.62016e-19)
(0.146668 -0.0454401 3.03829e-19)
(0.194808 -0.0561408 3.46194e-20)
(0.264446 -0.0588524 1.45378e-19)
(-0.00804225 0.0165192 1.52157e-19)
(-0.0101852 0.0220607 4.89972e-19)
(-0.00168038 0.0168442 -3.39803e-19)
(0.0175966 0.00552382 -5.5366e-22)
(0.0467161 -0.00813444 7.39722e-20)
(0.0849965 -0.0225611 1.2478e-19)
(0.131224 -0.0368262 1.12273e-19)
(0.186367 -0.0496843 -4.79986e-19)
(0.241606 -0.0610062 -1.69588e-19)
(0.321289 -0.0615936 4.98341e-21)
(-0.00840104 0.0166001 -2.31281e-19)
(-0.00821133 0.0213462 -1.7629e-19)
(0.00504762 0.0153574 2.28759e-19)
(0.0303037 0.00318374 1.82006e-19)
(0.0663819 -0.0111576 -1.52971e-19)
(0.11226 -0.0260662 1.81478e-19)
(0.16647 -0.0406176 -5.64019e-20)
(0.229979 -0.0533714 -5.42104e-20)
(0.292698 -0.0651174 -9.82815e-20)
(0.382457 -0.0628546 -1.45398e-20)
(-0.00856971 0.0162864 -3.44332e-20)
(-0.00560668 0.0199088 -4.99454e-19)
(0.0129295 0.013114 -1.14486e-19)
(0.0447325 0.000204365 -1.70892e-19)
(0.0883561 -0.0145889 8.73325e-20)
(0.142395 -0.0296695 -6.23467e-20)
(0.205088 -0.0441433 -2.52551e-19)
(0.277294 -0.0563553 2.12243e-19)
(0.347752 -0.0682946 2.39863e-19)
(0.447179 -0.0624762 -1.4323e-19)
(-0.00849758 0.0155842 3.63108e-20)
(-0.0022641 0.0177589 7.71989e-19)
(0.0220892 0.010142 -1.85436e-19)
(0.0609996 -0.00336497 2.85375e-19)
(0.112722 -0.0183525 9.81562e-20)
(0.175418 -0.0332673 1.81709e-19)
(0.246996 -0.0472679 -5.27696e-20)
(0.328052 -0.0584769 -1.4595e-19)
(0.406368 -0.070329 -1.48543e-19)
(0.514559 -0.0603239 1.92985e-19)
(-0.00813194 0.0145043 6.43354e-19)
(0.00192501 0.0149267 -7.73719e-19)
(0.0326533 0.00649248 -2.252e-19)
(0.0792224 -0.00744774 -2.65357e-21)
(0.139556 -0.0223442 1.29719e-19)
(0.21133 -0.0367289 -3.74514e-20)
(0.292076 -0.0498331 4.8708e-19)
(0.381933 -0.0595717 4.52522e-19)
(0.468069 -0.0709872 2.18053e-19)
(0.583575 -0.056304 1.64849e-19)
(-0.00742011 0.0130652 -7.62685e-20)
(0.00707019 0.0114594 1.28229e-19)
(0.0447486 0.00224044 5.94839e-19)
(0.0995146 -0.0119399 -1.06666e-19)
(0.168925 -0.026431 -5.51975e-19)
(0.250104 -0.0398983 -5.49758e-19)
(0.340162 -0.0516612 -1.64994e-20)
(0.438551 -0.0594798 -6.01877e-19)
(0.532297 -0.0700214 -2.09141e-19)
(0.653102 -0.0503895 -3.57641e-19)
(-0.00631026 0.0112926 -5.01155e-19)
(0.0132799 0.00742056 2.54447e-19)
(0.0584983 -0.00251611 -3.74094e-19)
(0.121981 -0.0167104 -3.00916e-19)
(0.200873 -0.0304526 6.86078e-19)
(0.291678 -0.0425963 4.11841e-20)
(0.39103 -0.0525613 -2.91799e-19)
(0.497449 -0.058057 1.08744e-19)
(0.598397 -0.0671838 1.28065e-19)
(0.721935 -0.0426464 1.34825e-19)
(-0.00475169 0.00921856 -9.7273e-20)
(0.020659 0.00288972 -1.84004e-19)
(0.0740182 -0.00765665 -1.38903e-19)
(0.14671 -0.0216026 7.83994e-20)
(0.235417 -0.0342245 -7.99065e-19)
(0.335945 -0.0446264 1.32451e-19)
(0.444388 -0.0523382 1.77004e-19)
(0.558099 -0.0551858 3.87409e-19)
(0.665614 -0.0622284 2.05414e-20)
(0.78879 -0.0332033 8.15362e-20)
(-0.0026953 0.00688067 1.85425e-19)
(0.029307 -0.00203821 1.87191e-19)
(0.0914125 -0.0130396 3.51713e-19)
(0.173771 -0.0264367 1.36044e-19)
(0.272537 -0.0375419 5.23733e-19)
(0.38274 -0.0457807 -1.919e-19)
(0.499868 -0.0508059 -2.21943e-19)
(0.619925 -0.0507861 -1.12226e-20)
(0.733093 -0.0548861 9.91641e-20)
(0.852279 -0.022184 -1.61566e-19)
(-9.40697e-05 0.00432186 2.19372e-19)
(0.0393152 -0.00725412 4.96044e-19)
(0.110769 -0.0185043 2.90483e-19)
(0.2032 -0.031013 -2.3125e-20)
(0.312166 -0.0401858 3.49873e-19)
(0.431836 -0.0458487 7.04019e-19)
(0.557022 -0.0478047 2.61593e-19)
(0.682326 -0.0448184 -2.53998e-19)
(0.799962 -0.0448892 -3.91206e-19)
(0.911257 -0.0102025 -1.62488e-19)
(0.00309635 0.00159001 1.89564e-19)
(0.0507645 -0.0126359 -5.45618e-19)
(0.132155 -0.0238734 -4.4722e-19)
(0.235002 -0.0351166 -1.96972e-19)
(0.354184 -0.0419294 -5.60472e-19)
(0.482934 -0.0446273 -1.76959e-19)
(0.61532 -0.0432153 -2.36031e-19)
(0.744679 -0.0372723 9.39095e-20)
(0.865418 -0.032296 1.05808e-20)
(0.96616 -0.000137811 -4.2583e-20)
(0.006917 -0.00126238 -2.72983e-19)
(0.0637227 -0.0180499 1.69514e-19)
(0.155613 -0.0289561 3.4353e-19)
(0.269138 -0.0385224 3.4841e-19)
(0.398411 -0.042546 5.25429e-19)
(0.53566 -0.0419286 1.78195e-19)
(0.674151 -0.0369587 -2.57123e-19)
(0.806236 -0.0281613 -9.51038e-20)
(0.928323 -0.0180826 5.03719e-19)
(1.0208 0.00393087 4.88187e-19)
(0.0114049 -0.00417843 -1.29406e-19)
(0.0782421 -0.0233525 -8.93817e-20)
(0.181153 -0.0335517 -7.93872e-19)
(0.305523 -0.041001 -5.56731e-20)
(0.444604 -0.041817 -1.00896e-18)
(0.58957 -0.0375883 -5.68824e-19)
(0.732851 -0.0289849 1.11622e-19)
(0.866093 -0.0175442 3.25461e-20)
(0.9865 -0.00392073 -2.98149e-19)
(1.07538 0.00781478 -3.34311e-19)
(0.0165921 -0.00709714 3.19061e-19)
(0.0943567 -0.0283916 -4.81685e-20)
(0.208754 -0.0374532 2.82675e-20)
(0.344021 -0.0423254 -1.63683e-19)
(0.492462 -0.0395405 9.09994e-19)
(0.644166 -0.0314738 1.47315e-19)
(0.790742 -0.0192745 -1.67193e-19)
(0.923445 -0.00542443 1.50885e-21)
(1.03954 0.0105306 -7.15362e-19)
(1.12366 0.0169779 2.98507e-19)
(0.022505 -0.00995366 -5.75919e-19)
(0.11208 -0.0330091 1.32254e-19)
(0.238357 -0.0404522 1.83656e-19)
(0.384445 -0.042278 -7.36927e-20)
(0.541623 -0.03554 2.26646e-19)
(0.698903 -0.0234942 5.02478e-19)
(0.847163 -0.00784876 1.19613e-19)
(0.977596 0.00812937 3.14729e-20)
(1.08742 0.0254352 4.92736e-19)
(1.16511 0.0294865 -4.79746e-19)
(0.0291628 -0.0126796 7.2933e-19)
(0.131402 -0.0370429 1.70671e-19)
(0.269865 -0.042343 6.09123e-19)
(0.426557 -0.0406573 -1.16175e-19)
(0.591676 -0.0296725 -6.8519e-19)
(0.753217 -0.0136067 -6.9666e-19)
(0.90149 0.00522131 3.1803e-19)
(1.02798 0.022954 2.41877e-19)
(1.1301 0.0407387 -2.97709e-20)
(1.20016 0.0435788 9.97818e-20)
(0.036577 -0.0152033 1.70136e-19)
(0.15229 -0.0403289 -6.70077e-19)
(0.30314 -0.0429279 -8.47164e-19)
(0.47007 -0.0372848 1.56984e-19)
(0.642168 -0.0218344 6.04355e-19)
(0.806535 -0.0018197 6.65213e-19)
(0.953155 0.0198172 -3.97323e-19)
(1.07417 0.0388346 1.54833e-19)
(1.16757 0.056338 1.90488e-19)
(1.22922 0.0583566 4.55531e-19)
(0.0447499 -0.0174509 -8.4031e-19)
(0.174681 -0.0427045 3.01768e-19)
(0.338003 -0.0420214 3.50255e-19)
(0.514651 -0.0320104 -4.65402e-20)
(0.69262 -0.011966 -5.03488e-19)
(0.858298 0.0118085 -5.80498e-19)
(1.00166 0.035781 1.76877e-20)
(1.11587 0.0555361 -4.63164e-19)
(1.19989 0.0721025 -2.82883e-19)
(1.25275 0.0732798 -7.61555e-20)
(0.0536737 -0.0193463 -6.33313e-20)
(0.198489 -0.0440104 -4.69459e-19)
(0.374238 -0.0394553 3.25037e-19)
(0.559929 -0.0247177 1.0308e-19)
(0.742536 -5.33953e-05 1.63691e-19)
(0.907981 0.0271742 -2.0213e-19)
(1.04661 0.0529249 5.29768e-19)
(1.15293 0.0728221 -1.51584e-19)
(1.22723 0.0878857 -1.03173e-19)
(1.27127 0.0880007 -1.97998e-20)
(0.0633295 -0.0208125 3.8645e-19)
(0.223597 -0.0440946 8.05369e-19)
(0.411591 -0.035083 -4.95987e-19)
(0.605505 -0.0153275 -2.4847e-19)
(0.791419 0.013872 -1.03532e-19)
(0.955109 0.0441349 6.79593e-19)
(1.08768 0.0710424 2.21291e-19)
(1.1853 0.0904672 1.78261e-19)
(1.24981 0.103544 3.22696e-20)
(1.28533 0.102305 -5.17065e-20)
(0.0736863 -0.021773 -4.39408e-19)
(0.24986 -0.0428149 3.73443e-19)
(0.449774 -0.0287833 6.98334e-19)
(0.650959 -0.00380002 2.15349e-19)
(0.83879 0.0297356 3.02573e-19)
(0.999265 0.062517 -3.5784e-19)
(1.12465 0.089919 -3.55582e-19)
(1.21303 0.108266 4.01831e-19)
(1.26794 0.118949 2.60693e-19)
(1.29545 0.11607 -6.6173e-20)
(0.0847006 -0.0221521 1.32704e-19)
(0.277106 -0.0400423 -4.31073e-19)
(0.488472 -0.0204639 -3.66781e-20)
(0.695858 0.00986384 3.00629e-20)
(0.884194 0.0474236 -1.32956e-19)
(1.04011 0.0821249 -1.36739e-19)
(1.1574 0.109341 -9.32807e-20)
(1.23627 0.126039 -2.17652e-19)
(1.28196 0.133995 -2.16848e-20)
(1.30214 0.129237 1.65993e-19)
(0.0963158 -0.0218774 2.99934e-19)
(0.30514 -0.035664 7.37276e-20)
(0.527347 -0.0100642 -4.68555e-19)
(0.739773 0.0256232 1.46081e-19)
(0.927216 0.0667887 1.26407e-19)
(1.07736 0.102749 1.27218e-19)
(1.18591 0.129103 2.58681e-19)
(1.25523 0.14363 -2.89189e-19)
(1.29224 0.148602 -1.43685e-20)
(1.30584 0.141785 -1.21116e-19)
(0.108462 -0.0208807 -1.73795e-19)
(0.333738 -0.0295869 -2.07853e-19)
(0.566044 0.00244252 3.47514e-19)
(0.782282 0.0433989 1.14881e-19)
(0.967489 0.0876556 -2.95419e-19)
(1.11084 0.124173 -3.58249e-20)
(1.21019 0.149014 -2.19911e-20)
(1.27015 0.160913 1.87208e-19)
(1.29915 0.16271 7.83325e-20)
(1.30696 0.153719 -3.65763e-20)
(0.121057 -0.0190998 -1.52679e-19)
(0.36266 -0.0217398 2.56669e-19)
(0.604201 0.0170484 -3.62986e-20)
(0.822985 0.0630758 -2.88315e-19)
(1.0047 0.109828 2.77174e-19)
(1.14041 0.146182 -1.72539e-19)
(1.23036 0.168899 -1.46911e-19)
(1.28132 0.177782 -1.13538e-20)
(1.30304 0.17628 -1.04862e-19)
(1.30588 0.165059 -1.45599e-20)
(0.134005 -0.0164802 4.69495e-20)
(0.391647 -0.0120763 2.69053e-20)
(0.641451 0.0337102 -4.81178e-20)
(0.861509 0.0845069 4.0956e-21)
(1.03859 0.133092 -5.28649e-21)
(1.16602 0.168565 -2.24397e-19)
(1.24657 0.188602 6.3176e-20)
(1.28902 0.194155 3.47751e-20)
(1.30425 0.189285 5.34811e-20)
(1.30289 0.175828 1.04101e-19)
(0.147199 -0.0129766 -1.56016e-19)
(0.420426 -0.000576929 -1.13232e-19)
(0.677433 0.05235 -1.51722e-19)
(0.897514 0.107517 2.29739e-19)
(1.06896 0.157229 1.02175e-20)
(1.18768 0.19112 1.91567e-19)
(1.25898 0.207984 1.33003e-20)
(1.29354 0.209966 -1.16061e-20)
(1.30309 0.201712 2.08521e-20)
(1.29826 0.186052 -2.13183e-20)
(0.160523 -0.00855486 1.81891e-19)
(0.448716 0.0127497 -1.82179e-20)
(0.711798 0.0728566 -7.47492e-20)
(0.9307 0.131908 -2.84023e-19)
(1.09566 0.18201 7.96338e-20)
(1.20542 0.213657 -5.70709e-21)
(1.26782 0.226925 -1.0448e-19)
(1.29518 0.225162 2.52088e-20)
(1.29984 0.213553 -7.15658e-20)
(1.29222 0.195752 1.63883e-20)
(0.173849 -0.00319306 -7.74534e-20)
(0.476233 0.0278655 -6.90052e-20)
(0.744214 0.0950874 3.46178e-20)
(0.960809 0.157462 3.49734e-20)
(1.11861 0.207209 -1.78479e-19)
(1.21934 0.235997 6.10438e-20)
(1.2733 0.245319 7.23202e-20)
(1.29421 0.239703 2.8998e-20)
(1.29475 0.224802 2.89381e-20)
(1.28496 0.204943 -2.37073e-20)
(0.187045 0.00311706 -4.06664e-21)
(0.50269 0.0447027 7.22833e-20)
(0.774374 0.118871 2.84704e-20)
(0.987629 0.183946 2.69654e-20)
(1.13775 0.232602 -8.24901e-22)
(1.22957 0.257977 8.03281e-21)
(1.27566 0.263075 1.61715e-20)
(1.29087 0.253554 1.5232e-20)
(1.28804 0.235456 -9.16454e-21)
(1.27663 0.213637 -1.1609e-21)
(0.199972 0.0103691 3.36054e-20)
(0.52781 0.0631641 -7.93785e-21)
(0.801996 0.144011 -6.70409e-22)
(1.01099 0.21112 -3.15086e-20)
(1.1531 0.257972 1.98839e-21)
(1.23626 0.279444 -2.04374e-20)
(1.27512 0.280111 -4.70233e-21)
(1.28541 0.266687 -2.09111e-20)
(1.2799 0.24551 -3.35142e-21)
(1.26737 0.221836 2.64518e-21)
(0.212488 0.0185412 2.80074e-20)
(0.551325 0.083124 -5.11122e-21)
(0.826834 0.170287 -1.5235e-21)
(1.03077 0.238733 -2.1497e-20)
(1.1647 0.283106 -3.64617e-21)
(1.23957 0.30026 -1.27497e-20)
(1.2719 0.296358 -8.74757e-21)
(1.27803 0.279075 -1.72129e-20)
(1.27049 0.254956 -1.0286e-22)
(1.25728 0.229537 1.1797e-21)
(0.22445 0.0275957 8.25681e-21)
(0.572982 0.104429 7.38526e-20)
(0.848673 0.197462 1.52213e-20)
(1.0469 0.266536 2.15521e-20)
(1.17261 0.307804 1.32723e-20)
(1.23969 0.320297 4.66038e-21)
(1.26623 0.311752 9.05278e-21)
(1.26894 0.290695 1.01764e-20)
(1.25996 0.263783 -3.63361e-21)
(1.24645 0.236732 -2.64779e-22)
(0.235719 0.0374788 -6.47016e-20)
(0.592546 0.126902 -5.9007e-20)
(0.867338 0.225283 1.0592e-20)
(1.05932 0.294275 4.18796e-20)
(1.17695 0.331874 -1.1762e-19)
(1.2368 0.339439 4.06117e-20)
(1.25831 0.326236 4.0528e-20)
(1.2583 0.301522 7.23444e-21)
(1.24843 0.271978 9.11861e-21)
(1.23498 0.243405 -2.02267e-22)
(0.246158 0.0481209 1.72634e-19)
(0.609806 0.150342 -3.59832e-20)
(0.88269 0.253486 -8.74937e-20)
(1.06805 0.321705 -1.65018e-19)
(1.17783 0.355133 5.16528e-20)
(1.2311 0.357579 -6.56554e-21)
(1.24834 0.339757 -7.37724e-20)
(1.24628 0.31153 4.9573e-21)
(1.236 0.27952 -1.04446e-20)
(1.22291 0.249538 1.18859e-21)
(0.255638 0.059437 -1.63234e-19)
(0.624578 0.174528 -1.30873e-19)
(0.89463 0.2818 -5.84021e-20)
(1.07311 0.34858 1.79037e-19)
(1.1754 0.377413 -1.86358e-20)
(1.22278 0.374619 9.26001e-20)
(1.2365 0.352267 -5.54852e-21)
(1.23302 0.320695 1.68692e-21)
(1.22277 0.286392 6.99135e-21)
(1.21029 0.255108 3.07292e-21)
(0.264036 0.0713279 5.12863e-20)
(0.636706 0.199223 7.97844e-20)
(0.903097 0.309951 -3.05076e-20)
(1.07458 0.374667 -6.36783e-20)
(1.16983 0.398554 -1.09396e-20)
(1.21205 0.390469 -7.90493e-20)
(1.22296 0.363719 1.3196e-20)
(1.21864 0.32899 6.04624e-21)
(1.20883 0.292575 2.37619e-21)
(1.19718 0.260091 -4.0417e-20)
(0.271245 0.0836806 -7.29112e-20)
(0.646065 0.224177 1.62997e-19)
(0.908067 0.337662 -4.40178e-21)
(1.07254 0.399738 -1.1245e-19)
(1.16129 0.418405 9.58389e-20)
(1.19908 0.405046 -5.40502e-20)
(1.20788 0.374069 -2.10338e-20)
(1.20325 0.336383 -1.10856e-20)
(1.19424 0.298045 2.41893e-20)
(1.18365 0.264451 5.24401e-21)
(0.277167 0.0963706 -9.93518e-20)
(0.652562 0.249129 -1.50783e-19)
(0.909553 0.36466 2.43777e-19)
(1.06713 0.423577 7.14477e-20)
(1.14997 0.436831 -1.30363e-19)
(1.18406 0.418274 1.3871e-20)
(1.19143 0.383276 1.021e-20)
(1.18698 0.342847 -3.22705e-20)
(1.17908 0.302768 -7.5006e-21)
(1.16976 0.268173 2.56288e-23)
(0.28172 0.109263 2.14477e-19)
(0.656138 0.273813 4.87646e-20)
(0.907602 0.390678 -3.09361e-19)
(1.05849 0.445981 7.92957e-20)
(1.13606 0.453705 5.63164e-20)
(1.16719 0.430084 3.16905e-20)
(1.17374 0.391299 6.84595e-21)
(1.16991 0.348354 2.3085e-20)
(1.16339 0.306714 3.59351e-20)
(1.15553 0.271224 5.79359e-20)
(0.284841 0.122214 7.94505e-20)
(0.656768 0.297959 -2.16519e-19)
(0.902295 0.415456 1.92908e-20)
(1.04678 0.466757 -2.28153e-20)
(1.11975 0.468909 -1.14208e-20)
(1.14865 0.440411 -5.5423e-21)
(1.15496 0.398101 7.74047e-21)
(1.15215 0.352874 5.26265e-20)
(1.14724 0.309857 5.27717e-20)
(1.14101 0.273571 -1.09383e-19)
(0.286479 0.135074 -2.21244e-19)
(0.654459 0.321298 1.53694e-19)
(0.893742 0.438745 3.43142e-19)
(1.0322 0.485728 5.47204e-20)
(1.10126 0.482339 3.19139e-20)
(1.1286 0.449198 3.05742e-20)
(1.13522 0.403644 8.38167e-20)
(1.13378 0.35638 -1.33251e-19)
(1.13069 0.31217 -1.75605e-19)
(1.12624 0.275185 1.0816e-19)
(0.286607 0.14769 2.23089e-19)
(0.649251 0.343567 2.64199e-19)
(0.882086 0.460311 -1.4499e-19)
(1.01494 0.502729 -6.37022e-20)
(1.08078 0.493901 -3.03818e-21)
(1.10723 0.456392 -6.34529e-20)
(1.11464 0.407896 -4.56787e-20)
(1.11488 0.358845 -6.1948e-20)
(1.11379 0.313625 -5.51094e-20)
(1.11125 0.276034 3.74747e-20)
(0.285215 0.159904 -3.79853e-20)
(0.64122 0.364508 -1.73425e-19)
(0.867496 0.479936 3.94661e-20)
(0.995198 0.517609 1.08595e-20)
(1.05853 0.503508 -1.05982e-20)
(1.08471 0.461946 -6.74343e-21)
(1.09336 0.410826 -1.95311e-19)
(1.09554 0.360243 1.00708e-19)
(1.09658 0.314199 2.73693e-20)
(1.09609 0.276089 5.94366e-20)
(0.282311 0.171562 -2.30038e-19)
(0.63047 0.383873 8.20156e-20)
(0.85015 0.49741 3.62224e-21)
(0.973216 0.530242 -6.77106e-23)
(1.03471 0.511086 8.29435e-20)
(1.0612 0.465821 1.50797e-19)
(1.07149 0.412408 -5.4897e-21)
(1.07585 0.360552 3.21185e-19)
(1.07913 0.31387 1.56632e-19)
(1.08079 0.275319 1.77289e-19)
(0.277922 0.182509 9.94878e-20)
(0.617134 0.401432 -1.54261e-19)
(0.830249 0.512541 -4.43328e-20)
(0.949231 0.540509 -1.20483e-20)
(1.00953 0.516576 -1.63182e-19)
(1.03688 0.467983 -2.33856e-19)
(1.04915 0.412618 2.33408e-19)
(1.05589 0.359756 -1.63671e-19)
(1.06147 0.312621 -2.28973e-19)
(1.06539 0.273692 -3.60613e-19)
(0.272091 0.19259 7.73254e-20)
(0.601373 0.416972 2.20026e-20)
(0.808031 0.525167 -1.25558e-20)
(0.923478 0.548305 2.46223e-20)
(0.983214 0.519925 2.67871e-19)
(1.01189 0.468404 3.27587e-19)
(1.02648 0.411438 -1.66829e-19)
(1.03574 0.357838 -2.26105e-19)
(1.04366 0.310437 1.1896e-19)
(1.04992 0.271174 -2.97536e-19)
(0.264887 0.201662 3.39637e-20)
(0.583366 0.430285 -2.93417e-20)
(0.783741 0.535144 -4.21179e-20)
(0.896199 0.553547 1.536e-20)
(0.955956 0.521093 -4.42788e-20)
(0.98641 0.467062 -2.35013e-19)
(1.00357 0.408853 -2.28068e-19)
(1.0155 0.354791 2.47541e-20)
(1.02574 0.307306 -5.72355e-19)
(1.03441 0.267729 5.2791e-19)
(0.256398 0.209597 -3.93964e-20)
(0.563315 0.441191 1.29941e-20)
(0.757634 0.542345 -9.43486e-20)
(0.867644 0.556167 9.66462e-20)
(0.927968 0.52005 -5.06333e-19)
(0.96059 0.463944 -1.56127e-19)
(0.980568 0.404853 1.62588e-19)
(0.995243 0.350607 -2.37567e-20)
(1.00778 0.303216 7.81868e-19)
(1.01894 0.26331 -3.20389e-19)
(0.246723 0.21627 8.42083e-20)
(0.541446 0.449535 -2.66274e-20)
(0.729976 0.546663 3.2619e-19)
(0.838065 0.556114 7.73152e-21)
(0.899453 0.516778 7.10411e-19)
(0.934586 0.459043 6.14706e-19)
(0.957573 0.399434 -1.98945e-19)
(0.97507 0.345288 9.75061e-20)
(0.989845 0.298159 2.32041e-19)
(1.00363 0.257901 3.39394e-19)
(0.235971 0.22157 1.57437e-19)
(0.518002 0.455183 -4.86803e-20)
(0.701042 0.548018 -2.26329e-19)
(0.807713 0.553356 -1.22726e-19)
(0.870614 0.511269 -4.51973e-19)
(0.908551 0.452359 -6.62026e-20)
(0.934705 0.392598 8.11321e-20)
(0.955072 0.338836 1.60377e-19)
(0.972114 0.292156 -7.03899e-19)
(0.988481 0.251656 -7.31018e-19)
(0.224271 0.225398 -1.11047e-19)
(0.493239 0.458026 4.27616e-19)
(0.671112 0.54635 2.56415e-19)
(0.77684 0.547874 2.95113e-19)
(0.84165 0.503528 5.06237e-19)
(0.882634 0.4439 1.52746e-19)
(0.912073 0.384352 3.50024e-19)
(0.935361 0.331252 -2.90705e-19)
(0.954875 0.285281 1.12521e-19)
(0.973354 0.244248 9.37455e-20)
(0.211761 0.227671 -7.13246e-20)
(0.467422 0.457981 -4.20234e-19)
(0.64047 0.541624 -2.12471e-19)
(0.745695 0.539671 -3.05756e-20)
(0.812757 0.49357 -3.19326e-19)
(0.85698 0.433682 -6.38456e-19)
(0.889785 0.374703 -4.21668e-19)
(0.916057 0.322513 5.37864e-19)
(0.93825 0.27757 3.85315e-19)
(0.959155 0.237582 1.27306e-19)
(0.19859 0.228322 -3.01497e-19)
(0.440826 0.454988 -5.73012e-20)
(0.609401 0.533828 -3.73716e-19)
(0.714525 0.528764 -2.07941e-19)
(0.784124 0.481422 -5.53348e-19)
(0.831731 0.42173 1.71319e-19)
(0.867944 0.363673 3.75853e-19)
(0.897205 0.312638 2.36377e-20)
(0.921995 0.268889 -3.68742e-19)
(0.944878 0.230262 5.05442e-19)
(0.184915 0.227302 1.19918e-19)
(0.413731 0.449018 6.40396e-20)
(0.578189 0.522971 9.62668e-20)
(0.683571 0.515186 -1.95567e-20)
(0.755939 0.467124 1.11954e-18)
(0.807025 0.408077 -9.12643e-20)
(0.846656 0.351286 -4.76453e-19)
(0.878884 0.301661 -4.93987e-19)
(0.906196 0.259284 -8.57745e-20)
(0.930919 0.222174 7.66806e-21)
(0.170899 0.224576 6.97928e-19)
(0.386417 0.440064 -4.23069e-19)
(0.547115 0.509087 6.74223e-19)
(0.653069 0.498989 3.30366e-19)
(0.72838 0.450725 -8.26484e-19)
(0.782999 0.392763 -1.9001e-19)
(0.826025 0.337573 3.92419e-19)
(0.861177 0.289605 -1.2185e-19)
(0.89095 0.248788 -5.68906e-20)
(0.917461 0.213301 -6.27115e-19)
(0.156708 0.220132 2.88036e-19)
(0.359168 0.42815 -1.1371e-19)
(0.516455 0.492232 -1.0043e-18)
(0.623248 0.480239 1.71292e-19)
(0.701624 0.432286 9.02233e-19)
(0.759783 0.375838 9.9391e-19)
(0.806152 0.32257 1.02122e-19)
(0.844166 0.276496 8.79146e-19)
(0.876327 0.237419 4.81727e-19)
(0.904585 0.203657 8.06653e-19)
(0.142511 0.213973 -9.50213e-19)
(0.332261 0.413322 1.17685e-18)
(0.486477 0.472482 3.35526e-19)
(0.594327 0.459019 -2.22751e-20)
(0.675836 0.411879 -1.87169e-19)
(0.737503 0.357358 1.36837e-19)
(0.787135 0.306321 -8.40328e-19)
(0.827926 0.262367 -8.28331e-19)
(0.862391 0.2252 -5.68667e-19)
(0.892351 0.193263 -1.36105e-19)
(0.128477 0.20612 -9.37266e-20)
(0.305969 0.395655 -1.34325e-18)
(0.457441 0.449935 3.42539e-19)
(0.566519 0.435425 -5.48034e-19)
(0.651177 0.389587 -2.21341e-19)
(0.716278 0.337388 -1.85198e-19)
(0.769065 0.288875 1.04515e-19)
(0.812528 0.247256 2.70788e-19)
(0.849201 0.21216 4.45147e-19)
(0.880811 0.182144 -5.95049e-19)
(0.114771 0.196615 3.80619e-20)
(0.280556 0.375248 9.96962e-19)
(0.429596 0.424711 9.39763e-20)
(0.540024 0.409571 3.16978e-19)
(0.627797 0.365503 -1.69336e-19)
(0.696221 0.316001 2.02436e-19)
(0.75203 0.270289 4.00868e-19)
(0.79804 0.231208 -4.21838e-19)
(0.836812 0.198334 -4.24439e-19)
(0.870008 0.170329 3.26093e-19)
(0.101555 0.185515 4.88461e-19)
(0.256277 0.352222 5.40389e-19)
(0.403178 0.396946 -6.15224e-19)
(0.515032 0.381581 -2.78025e-19)
(0.605839 0.339728 4.32385e-19)
(0.67744 0.293278 -6.18371e-19)
(0.736111 0.250627 1.683e-19)
(0.784526 0.214274 1.34761e-19)
(0.825272 0.183763 3.50685e-20)
(0.859981 0.157856 2.8739e-19)
(0.0889863 0.172895 -3.78957e-19)
(0.233372 0.326724 -1.11621e-18)
(0.37841 0.366796 9.19032e-19)
(0.491721 0.351595 -4.75641e-20)
(0.585436 0.312377 -2.24497e-19)
(0.660035 0.269308 -2.50781e-19)
(0.721384 0.22996 -1.91475e-19)
(0.772044 0.196511 9.72187e-19)
(0.814629 0.168493 5.49761e-19)
(0.85076 0.144768 1.99273e-21)
(0.0772118 0.158846 -1.00477e-19)
(0.212068 0.298921 6.04744e-19)
(0.355499 0.334435 -8.01368e-19)
(0.470253 0.319763 2.51689e-19)
(0.56671 0.28357 -4.35598e-19)
(0.644096 0.244187 -2.39508e-19)
(0.70792 0.208362 4.96652e-19)
(0.760649 0.177982 -5.99868e-19)
(0.804924 0.152577 -1.80224e-19)
(0.842376 0.131113 -3.05562e-19)
(0.06637 0.143474 3.63446e-19)
(0.192575 0.268997 -3.93171e-19)
(0.334634 0.300051 9.79693e-20)
(0.45078 0.286249 3.61932e-19)
(0.549774 0.253437 -4.77384e-20)
(0.62971 0.218015 6.41164e-19)
(0.695784 0.185917 -9.18486e-20)
(0.75039 0.158752 7.64429e-20)
(0.796196 0.136071 2.47776e-19)
(0.834854 0.116941 -8.32891e-20)
(0.0565883 0.1269 -1.97777e-19)
(0.175083 0.237159 4.1473e-19)
(0.315988 0.263847 -6.5461e-20)
(0.433438 0.251224 -5.14436e-19)
(0.534728 0.222115 -1.76379e-19)
(0.616951 0.190903 2.27375e-19)
(0.685034 0.162711 -3.36439e-19)
(0.741313 0.138893 -4.14061e-20)
(0.78848 0.119033 -3.12359e-19)
(0.828218 0.102306 -7.8533e-20)
(0.0479812 0.109257 1.58113e-19)
(0.159762 0.203628 -5.66258e-19)
(0.299715 0.226039 4.79678e-19)
(0.418345 0.214872 -1.00567e-19)
(0.521662 0.189749 3.08373e-19)
(0.605887 0.162963 -4.15399e-19)
(0.675722 0.138836 1.62055e-19)
(0.733456 0.118482 -2.11948e-19)
(0.781807 0.101529 1.02354e-19)
(0.82249 0.0872658 1.42514e-19)
(0.0406493 0.0906887 9.27733e-20)
(0.146762 0.168638 5.74013e-20)
(0.285946 0.186854 -1.71602e-19)
(0.405606 0.177381 -3.63313e-21)
(0.510654 0.156488 -2.79692e-20)
(0.596576 0.134315 -1.71931e-19)
(0.667892 0.114388 4.40027e-20)
(0.726855 0.0975967 3.6324e-19)
(0.776204 0.0836243 1.65134e-20)
(0.817688 0.0718784 5.0238e-19)
(0.0346785 0.0713504 -4.8528e-20)
(0.136207 0.132438 2.99875e-19)
(0.274795 0.146528 -2.0133e-19)
(0.395309 0.13895 -3.15173e-20)
(0.501769 0.122487 4.97162e-19)
(0.589068 0.105081 1.52044e-20)
(0.661582 0.0894657 -3.26931e-19)
(0.721539 0.0763196 -3.71042e-19)
(0.771694 0.0653885 -2.74121e-19)
(0.813827 0.0562048 -1.07802e-19)
(0.0301384 0.0514042 4.90336e-20)
(0.128201 0.0952853 -1.23063e-19)
(0.266351 0.105308 3.32289e-19)
(0.387523 0.0997807 7.06929e-20)
(0.495058 0.0879078 -3.481e-19)
(0.583402 0.0753883 1.09266e-19)
(0.656823 0.0641716 2.03503e-19)
(0.717531 0.0547352 1.02556e-19)
(0.768295 0.046893 1.33822e-19)
(0.810919 0.0403073 -1.28454e-19)
(0.0270819 0.0310194 -1.67596e-19)
(0.122821 0.0574472 4.22768e-20)
(0.260684 0.0634435 -2.13648e-19)
(0.382304 0.0600814 5.76218e-20)
(0.490562 0.0529119 -2.55593e-21)
(0.579608 0.0453655 4.08941e-20)
(0.653637 0.0386103 -2.92322e-20)
(0.714849 0.0329299 -3.65551e-20)
(0.766021 0.0282108 -1.43164e-19)
(0.808976 0.0242489 8.90711e-21)
(0.0255447 0.0103694 5.93021e-20)
(0.120118 0.0191952 6.22488e-20)
(0.257839 0.0211911 -1.10449e-21)
(0.379685 0.0200627 -5.9897e-20)
(0.488308 0.0176652 -1.65204e-21)
(0.577706 0.015144 -5.69841e-20)
(0.652041 0.012888 4.00301e-20)
(0.713505 0.0109914 2.43755e-20)
(0.764882 0.00941611 6.96175e-20)
(0.808002 0.00809372 2.24489e-20)
(0.0255447 -0.0103694 5.10655e-20)
(0.120118 -0.0191952 6.678e-20)
(0.257839 -0.0211911 -3.2679e-21)
(0.379685 -0.0200627 -5.52733e-20)
(0.488308 -0.0176652 -2.75509e-21)
(0.577706 -0.015144 -3.96911e-20)
(0.652041 -0.012888 3.78163e-20)
(0.713505 -0.0109915 4.89178e-21)
(0.764882 -0.00941612 7.63173e-20)
(0.808002 -0.00809374 2.28279e-20)
(0.0270819 -0.0310194 -1.87557e-19)
(0.122821 -0.0574472 7.56205e-20)
(0.260684 -0.0634435 -2.51858e-19)
(0.382304 -0.0600814 6.30444e-20)
(0.490562 -0.0529119 3.64192e-20)
(0.579608 -0.0453655 -4.50771e-21)
(0.653637 -0.0386103 -8.32474e-21)
(0.714849 -0.0329299 -5.58514e-20)
(0.766021 -0.0282108 -1.05918e-19)
(0.808976 -0.0242489 -2.00271e-20)
(0.0301384 -0.0514043 5.9987e-20)
(0.128201 -0.0952853 -1.13647e-19)
(0.266351 -0.105308 2.90041e-19)
(0.387523 -0.0997807 9.97902e-20)
(0.495058 -0.0879078 -3.01273e-19)
(0.583402 -0.0753883 1.07824e-19)
(0.656823 -0.0641716 2.11336e-19)
(0.717531 -0.0547352 5.15641e-20)
(0.768295 -0.046893 9.25273e-20)
(0.810919 -0.0403073 -7.48657e-20)
(0.0346785 -0.0713504 -1.92256e-20)
(0.136207 -0.132438 1.87435e-19)
(0.274795 -0.146528 -1.25814e-19)
(0.395309 -0.13895 -6.20097e-20)
(0.501769 -0.122487 5.63597e-19)
(0.589068 -0.105081 -4.47094e-20)
(0.661582 -0.0894657 -3.57717e-19)
(0.721539 -0.0763196 -3.03775e-19)
(0.771694 -0.0653885 -2.46237e-19)
(0.813827 -0.0562049 -2.1027e-19)
(0.0406493 -0.0906887 3.51313e-20)
(0.146762 -0.168638 4.66684e-20)
(0.285946 -0.186854 -2.32934e-19)
(0.405606 -0.177381 3.58098e-20)
(0.510654 -0.156488 -3.04399e-20)
(0.596576 -0.134315 -1.46377e-19)
(0.667892 -0.114388 -6.85043e-20)
(0.726855 -0.0975967 4.49638e-19)
(0.776204 -0.0836243 8.69805e-20)
(0.817688 -0.0718784 4.20377e-19)
(0.0479812 -0.109257 2.09619e-20)
(0.159762 -0.203628 -3.75498e-19)
(0.299715 -0.226039 3.58165e-19)
(0.418345 -0.214872 -6.9343e-20)
(0.521662 -0.189749 3.10522e-19)
(0.605887 -0.162963 -5.08162e-19)
(0.675722 -0.138836 1.45221e-19)
(0.733456 -0.118482 -2.26072e-19)
(0.781807 -0.101529 1.08077e-19)
(0.82249 -0.0872658 2.36076e-19)
(0.0565883 -0.1269 -1.94328e-19)
(0.175083 -0.237159 3.51902e-19)
(0.315988 -0.263847 -4.93968e-20)
(0.433438 -0.251224 -3.56051e-19)
(0.534728 -0.222115 -3.04983e-19)
(0.616951 -0.190903 2.29527e-19)
(0.685034 -0.162712 -3.24246e-19)
(0.741313 -0.138893 -1.75786e-20)
(0.78848 -0.119033 -3.5841e-19)
(0.828218 -0.102306 -1.61739e-19)
(0.06637 -0.143474 3.95107e-19)
(0.192575 -0.268997 -2.71911e-19)
(0.334634 -0.300051 9.14524e-20)
(0.45078 -0.286249 1.13655e-19)
(0.549774 -0.253437 2.11644e-19)
(0.62971 -0.218015 4.38074e-19)
(0.695784 -0.185917 -2.97789e-20)
(0.75039 -0.158752 4.22524e-20)
(0.796196 -0.136071 2.68576e-19)
(0.834854 -0.116941 -1.24548e-19)
(0.0772118 -0.158846 -2.14404e-19)
(0.212068 -0.298921 6.18187e-19)
(0.355499 -0.334435 -7.2638e-19)
(0.470253 -0.319763 1.61927e-19)