/*--------------------------------*- C++ -*----------------------------------*\
  =========                 |
  \\      /  F ield         | OpenFOAM: The Open Source CFD Toolbox
   \\    /   O peration     | Website:  https://openfoam.org
    \\  /    A nd           | Version:  7
     \\/     M anipulation  |
\*---------------------------------------------------------------------------*/
FoamFile
{
    version     2.0;
    format      ascii;
    class       volScalarField;
    location    "18";
    object      p;
}
// * * * * * * * * * * * * * * * * * * * * * * * * * * * * * * * * * * * * * //

dimensions      [0 2 -2 0 0 0 0];

internalField   nonuniform List<scalar> 
15600
(
-0.294928
-0.295764
-0.296576
-0.29731
-0.298018
-0.298708
-0.299376
-0.300016
-0.300623
-0.301195
-0.301728
-0.302218
-0.302661
-0.303054
-0.303391
-0.30367
-0.303886
-0.304035
-0.304113
-0.304117
-0.304042
-0.303885
-0.303643
-0.303312
-0.302889
-0.302371
-0.301756
-0.30104
-0.300222
-0.299301
-0.298275
-0.297144
-0.295906
-0.294563
-0.293114
-0.291563
-0.289907
-0.28814
-0.286263
-0.284399
-0.29567
-0.296491
-0.297288
-0.298009
-0.298702
-0.299379
-0.300032
-0.300657
-0.30125
-0.301807
-0.302324
-0.302799
-0.303227
-0.303603
-0.303924
-0.304187
-0.304386
-0.304519
-0.30458
-0.304567
-0.304475
-0.304302
-0.304042
-0.303694
-0.303253
-0.302718
-0.302084
-0.301351
-0.300516
-0.299577
-0.298533
-0.297385
-0.29613
-0.29477
-0.293306
-0.291741
-0.290073
-0.28829
-0.28639
-0.284548
-0.297147
-0.297939
-0.298707
-0.299401
-0.300066
-0.300715
-0.30134
-0.301935
-0.302499
-0.303026
-0.303513
-0.303957
-0.304353
-0.304698
-0.304987
-0.305217
-0.305384
-0.305483
-0.305512
-0.305465
-0.305339
-0.305131
-0.304837
-0.304454
-0.303978
-0.303407
-0.302738
-0.301969
-0.301098
-0.300124
-0.299045
-0.297862
-0.296573
-0.295181
-0.293685
-0.29209
-0.290397
-0.288583
-0.286635
-0.284837
-0.29935
-0.300099
-0.300825
-0.301477
-0.302102
-0.302709
-0.303291
-0.303843
-0.304362
-0.304845
-0.305287
-0.305685
-0.306034
-0.306332
-0.306573
-0.306755
-0.306873
-0.306922
-0.3069
-0.306803
-0.306626
-0.306366
-0.30602
-0.305584
-0.305056
-0.304432
-0.30371
-0.302887
-0.301963
-0.300935
-0.299802
-0.298566
-0.297226
-0.295782
-0.294238
-0.292599
-0.290867
-0.289005
-0.286983
-0.285248
-0.302266
-0.302958
-0.303627
-0.304226
-0.304797
-0.305349
-0.305874
-0.306369
-0.30683
-0.307254
-0.307636
-0.307973
-0.30826
-0.308495
-0.308673
-0.30879
-0.308843
-0.308826
-0.308738
-0.308572
-0.308327
-0.307999
-0.307583
-0.307077
-0.306478
-0.305783
-0.304989
-0.304094
-0.303097
-0.301997
-0.300792
-0.299484
-0.298073
-0.296561
-0.29495
-0.29325
-0.291464
-0.289538
-0.287412
-0.285743
-0.305875
-0.306498
-0.307098
-0.307631
-0.308136
-0.308619
-0.309076
-0.3095
-0.309889
-0.310239
-0.310547
-0.310808
-0.311019
-0.311176
-0.311274
-0.311311
-0.311282
-0.311184
-0.311012
-0.310762
-0.310432
-0.310017
-0.309514
-0.30892
-0.308232
-0.307447
-0.306563
-0.305577
-0.304488
-0.303296
-0.302
-0.3006
-0.299099
-0.297497
-0.2958
-0.29402
-0.292164
-0.290153
-0.287875
-0.286233
-0.310159
-0.310701
-0.311219
-0.311675
-0.312101
-0.312504
-0.312879
-0.313219
-0.313523
-0.313786
-0.314005
-0.314176
-0.314295
-0.314359
-0.314364
-0.314305
-0.314178
-0.313981
-0.313709
-0.313359
-0.312926
-0.312408
-0.3118
-0.3111
-0.310305
-0.309412
-0.308418
-0.307322
-0.306122
-0.304817
-0.303409
-0.301897
-0.300284
-0.298573
-0.296769
-0.294889
-0.292946
-0.29083
-0.288395
-0.286879
-0.315097
-0.315546
-0.31597
-0.316338
-0.316675
-0.316985
-0.317265
-0.317509
-0.317715
-0.317878
-0.317994
-0.318061
-0.318075
-0.318031
-0.317926
-0.317755
-0.317516
-0.317205
-0.316817
-0.316349
-0.315797
-0.315158
-0.314428
-0.313604
-0.312684
-0.311663
-0.310541
-0.309315
-0.307983
-0.306546
-0.305003
-0.303357
-0.30161
-0.299766
-0.297832
-0.295832
-0.293778
-0.291532
-0.288918
-0.28759
-0.320667
-0.321013
-0.321333
-0.321601
-0.321837
-0.322044
-0.322217
-0.322353
-0.322447
-0.322496
-0.322497
-0.322447
-0.32234
-0.322174
-0.321945
-0.321648
-0.321281
-0.320839
-0.320319
-0.319718
-0.31903
-0.318253
-0.317384
-0.316419
-0.315355
-0.314189
-0.312919
-0.311543
-0.31006
-0.308468
-0.306769
-0.304965
-0.303059
-0.301056
-0.298966
-0.296818
-0.29463
-0.292225
-0.289388
-0.288237
-0.326851
-0.327082
-0.327286
-0.327444
-0.327569
-0.32766
-0.327716
-0.32773
-0.327701
-0.327625
-0.327497
-0.327315
-0.327075
-0.326772
-0.326405
-0.325967
-0.325457
-0.32487
-0.324203
-0.323451
-0.322612
-0.321682
-0.320657
-0.319533
-0.318308
-0.316979
-0.315543
-0.313998
-0.312342
-0.310574
-0.308696
-0.306709
-0.304617
-0.302427
-0.300151
-0.297824
-0.295469
-0.292871
-0.289762
-0.288791
-0.333627
-0.333733
-0.333811
-0.333849
-0.333851
-0.333817
-0.333742
-0.333624
-0.33346
-0.333244
-0.332975
-0.332649
-0.332261
-0.331809
-0.331289
-0.330697
-0.330029
-0.329283
-0.328453
-0.327537
-0.326532
-0.325432
-0.324235
-0.322937
-0.321535
-0.320026
-0.318405
-0.316672
-0.314824
-0.312859
-0.310778
-0.308583
-0.306278
-0.303869
-0.301372
-0.298829
-0.29627
-0.293432
-0.289987
-0.2892
-0.340978
-0.340948
-0.340889
-0.340796
-0.340665
-0.340493
-0.340278
-0.340016
-0.339703
-0.339337
-0.338914
-0.33843
-0.337883
-0.337268
-0.336582
-0.335821
-0.334983
-0.334063
-0.333057
-0.331963
-0.330777
-0.329494
-0.328111
-0.326624
-0.32503
-0.323325
-0.321505
-0.319566
-0.317507
-0.315325
-0.313019
-0.310591
-0.308044
-0.305383
-0.302625
-0.299821
-0.297009
-0.293873
-0.290012
-0.2894
-0.348885
-0.348708
-0.3485
-0.348265
-0.34799
-0.34767
-0.347302
-0.346884
-0.346412
-0.345883
-0.345294
-0.344641
-0.343921
-0.343131
-0.342266
-0.341325
-0.340303
-0.339197
-0.338003
-0.336718
-0.335338
-0.333859
-0.332278
-0.33059
-0.328791
-0.326877
-0.324843
-0.322686
-0.320401
-0.317984
-0.315433
-0.312748
-0.30993
-0.306982
-0.30392
-0.300805
-0.297679
-0.294167
-0.289789
-0.289333
-0.357327
-0.356991
-0.356624
-0.356236
-0.355806
-0.355327
-0.354795
-0.354209
-0.353566
-0.352863
-0.352096
-0.351262
-0.350357
-0.34938
-0.348325
-0.347191
-0.345974
-0.344671
-0.343277
-0.34179
-0.340206
-0.338521
-0.336731
-0.334832
-0.332819
-0.330686
-0.32843
-0.326043
-0.323521
-0.320857
-0.318046
-0.315084
-0.311968
-0.308699
-0.305288
-0.3018
-0.298283
-0.294294
-0.289261
-0.288859
-0.36628
-0.365774
-0.365235
-0.364684
-0.364089
-0.363438
-0.362732
-0.361968
-0.361142
-0.360253
-0.359297
-0.358271
-0.357171
-0.355995
-0.35474
-0.353403
-0.351981
-0.35047
-0.348867
-0.347169
-0.345373
-0.343473
-0.341468
-0.33935
-0.337116
-0.334761
-0.332276
-0.329655
-0.326891
-0.323973
-0.320894
-0.317643
-0.314213
-0.310593
-0.306789
-0.302864
-0.298864
-0.294265
-0.288383
-0.287868
-0.375716
-0.375027
-0.374306
-0.37358
-0.372808
-0.371977
-0.371085
-0.370131
-0.369114
-0.368028
-0.366873
-0.365644
-0.364339
-0.362956
-0.361491
-0.359942
-0.358305
-0.356579
-0.354759
-0.352843
-0.350828
-0.348709
-0.346483
-0.344144
-0.341688
-0.339108
-0.336396
-0.333544
-0.33054
-0.327374
-0.324029
-0.320491
-0.316741
-0.312755
-0.308525
-0.3041
-0.299513
-0.294133
-0.287123
-0.286265
-0.385597
-0.384716
-0.3838
-0.38289
-0.381932
-0.380909
-0.379822
-0.37867
-0.37745
-0.376159
-0.374795
-0.373355
-0.371836
-0.370237
-0.368554
-0.366785
-0.364927
-0.362979
-0.360936
-0.358798
-0.35656
-0.354219
-0.351771
-0.349212
-0.346536
-0.343736
-0.340805
-0.337731
-0.334503
-0.331104
-0.327514
-0.32371
-0.31966
-0.315323
-0.310662
-0.305702
-0.30044
-0.294091
-0.28557
-0.283847
-0.395879
-0.394795
-0.393675
-0.392572
-0.391418
-0.390196
-0.388905
-0.387545
-0.386115
-0.384611
-0.38303
-0.381371
-0.379632
-0.377809
-0.375902
-0.373907
-0.371824
-0.369649
-0.36738
-0.365016
-0.362554
-0.359991
-0.357323
-0.354547
-0.351658
-0.348648
-0.345512
-0.342236
-0.338809
-0.335211
-0.331418
-0.327399
-0.323109
-0.318484
-0.31345
-0.307991
-0.302043
-0.294575
-0.283964
-0.280284
-0.406509
-0.405213
-0.40388
-0.402577
-0.401221
-0.399791
-0.398289
-0.396716
-0.395069
-0.393345
-0.391542
-0.389659
-0.387693
-0.385642
-0.383506
-0.381282
-0.378968
-0.376563
-0.374067
-0.371476
-0.36879
-0.366006
-0.363122
-0.360136
-0.357042
-0.353838
-0.350515
-0.347064
-0.343473
-0.339723
-0.33579
-0.331636
-0.327204
-0.322404
-0.317114
-0.311235
-0.30455
-0.295515
-0.281304
-0.272991
-0.417425
-0.41591
-0.414359
-0.412849
-0.411286
-0.409645
-0.407927
-0.406135
-0.404266
-0.402318
-0.400289
-0.398177
-0.395981
-0.3937
-0.391331
-0.388875
-0.386329
-0.383694
-0.380968
-0.378151
-0.375242
-0.37224
-0.369145
-0.365955
-0.362669
-0.359284
-0.355797
-0.352203
-0.348494
-0.344659
-0.340679
-0.336528
-0.332155
-0.327474
-0.322351
-0.316614
-0.309816
-0.299856
-0.282684
-0.268021
-0.428558
-0.426821
-0.425049
-0.42333
-0.421556
-0.419699
-0.417763
-0.41575
-0.413657
-0.411483
-0.409225
-0.406883
-0.404456
-0.401941
-0.39934
-0.39665
-0.393872
-0.391006
-0.388052
-0.385009
-0.381879
-0.378663
-0.37536
-0.371973
-0.368503
-0.36495
-0.361318
-0.357609
-0.353827
-0.349978
-0.34607
-0.342117
-0.338144
-0.33419
-0.330342
-0.326763
-0.32362
-0.321142
-0.321848
-0.333841
-0.439836
-0.437877
-0.435882
-0.433952
-0.431967
-0.429895
-0.42774
-0.425505
-0.423188
-0.420787
-0.418301
-0.415729
-0.41307
-0.410324
-0.40749
-0.404568
-0.401558
-0.398462
-0.39528
-0.392013
-0.388663
-0.385232
-0.381722
-0.378137
-0.37448
-0.370757
-0.366973
-0.363138
-0.359263
-0.355364
-0.351464
-0.347598
-0.343817
-0.340204
-0.336891
-0.334056
-0.331876
-0.331082
-0.334769
-0.343622
-0.451186
-0.449005
-0.446788
-0.444649
-0.442454
-0.440168
-0.437795
-0.43534
-0.4328
-0.430175
-0.427463
-0.424663
-0.421775
-0.418799
-0.415735
-0.412584
-0.409345
-0.406021
-0.402613
-0.399123
-0.395553
-0.391907
-0.388189
-0.384402
-0.380553
-0.376649
-0.3727
-0.368716
-0.364714
-0.360714
-0.356746
-0.352849
-0.349079
-0.345517
-0.342283
-0.339497
-0.337247
-0.336169
-0.338712
-0.342866
-0.462531
-0.460131
-0.457695
-0.45535
-0.452948
-0.450451
-0.447864
-0.445192
-0.442434
-0.439589
-0.436654
-0.433631
-0.430519
-0.427317
-0.424027
-0.42065
-0.417186
-0.413637
-0.410006
-0.406295
-0.402507
-0.398646
-0.394716
-0.390723
-0.386674
-0.382577
-0.378443
-0.374283
-0.370116
-0.365963
-0.361852
-0.357821
-0.353919
-0.350214
-0.346797
-0.343736
-0.34105
-0.33923
-0.340199
-0.341173
-0.473795
-0.471179
-0.468529
-0.465982
-0.463377
-0.460674
-0.457878
-0.454995
-0.452024
-0.448964
-0.445813
-0.442572
-0.439241
-0.43582
-0.432311
-0.428713
-0.425029
-0.421261
-0.417411
-0.413481
-0.409476
-0.4054
-0.401257
-0.397052
-0.392794
-0.38849
-0.38415
-0.379787
-0.375416
-0.371057
-0.366734
-0.362476
-0.358323
-0.354322
-0.350532
-0.34698
-0.34363
-0.340872
-0.340294
-0.338801
-0.484898
-0.482071
-0.479211
-0.476467
-0.473666
-0.470761
-0.467763
-0.464676
-0.461499
-0.458231
-0.454871
-0.45142
-0.447878
-0.444246
-0.440524
-0.436713
-0.432816
-0.428834
-0.42477
-0.420626
-0.416406
-0.412115
-0.407756
-0.403335
-0.398858
-0.394333
-0.389768
-0.385174
-0.380563
-0.375951
-0.371355
-0.366798
-0.362302
-0.3579
-0.353623
-0.349462
-0.345353
-0.341626
-0.339635
-0.33617
-0.495754
-0.492722
-0.489658
-0.486722
-0.483731
-0.480633
-0.477439
-0.474155
-0.47078
-0.467313
-0.463754
-0.460102
-0.456358
-0.452522
-0.448597
-0.444582
-0.440479
-0.43629
-0.432018
-0.427664
-0.423233
-0.418727
-0.41415
-0.409507
-0.404803
-0.400042
-0.395233
-0.390382
-0.385499
-0.380593
-0.375675
-0.370758
-0.365855
-0.36098
-0.356145
-0.35132
-0.346425
-0.341753
-0.338475
-0.333378
-0.50627
-0.503039
-0.499777
-0.496657
-0.493482
-0.490198
-0.486818
-0.483346
-0.479782
-0.476126
-0.472376
-0.468534
-0.464598
-0.46057
-0.45645
-0.45224
-0.44794
-0.443553
-0.439079
-0.434521
-0.429881
-0.425161
-0.420364
-0.415494
-0.410552
-0.405544
-0.400472
-0.395341
-0.390155
-0.38492
-0.379639
-0.374317
-0.368957
-0.36356
-0.358125
-0.35261
-0.34693
-0.34135
-0.336883
-0.330388
-0.516344
-0.51292
-0.509467
-0.50617
-0.502819
-0.499359
-0.495801
-0.492151
-0.488409
-0.484574
-0.480646
-0.476624
-0.472508
-0.468298
-0.463995
-0.4596
-0.455113
-0.450535
-0.445866
-0.441109
-0.436263
-0.43133
-0.426312
-0.421208
-0.416022
-0.410752
-0.4054
-0.399967
-0.394454
-0.388858
-0.38318
-0.377417
-0.371563
-0.365613
-0.359554
-0.353337
-0.346885
-0.340439
-0.334865
-0.327155
-0.52586
-0.52225
-0.518614
-0.515148
-0.511631
-0.508004
-0.504279
-0.500462
-0.496554
-0.492553
-0.488458
-0.484268
-0.479984
-0.475605
-0.471131
-0.466562
-0.461897
-0.457137
-0.452281
-0.447329
-0.442281
-0.437136
-0.431894
-0.426552
-0.421111
-0.415568
-0.409921
-0.404167
-0.398302
-0.392321
-0.386218
-0.379985
-0.373612
-0.367086
-0.36039
-0.353475
-0.34627
-0.338997
-0.332389
-0.323621
-0.534688
-0.530901
-0.527092
-0.523468
-0.519795
-0.516012
-0.512131
-0.508161
-0.504099
-0.499944
-0.495696
-0.491353
-0.486914
-0.482378
-0.477745
-0.473013
-0.468182
-0.463248
-0.458213
-0.453072
-0.447825
-0.442469
-0.437
-0.431416
-0.425713
-0.419885
-0.413928
-0.407834
-0.401598
-0.39521
-0.38866
-0.381936
-0.375025
-0.367911
-0.360575
-0.352969
-0.345035
-0.336976
-0.329404
-0.319714
-0.542688
-0.538734
-0.534764
-0.530992
-0.527175
-0.523249
-0.519227
-0.515116
-0.510915
-0.506622
-0.502235
-0.497753
-0.493173
-0.488495
-0.483716
-0.478834
-0.473846
-0.468749
-0.463541
-0.458217
-0.452774
-0.447207
-0.441511
-0.435679
-0.429705
-0.423583
-0.417302
-0.410855
-0.40423
-0.397417
-0.390402
-0.383172
-0.375712
-0.368004
-0.36003
-0.351749
-0.343113
-0.334309
-0.32584
-0.315354
-0.549704
-0.545597
-0.541478
-0.537571
-0.533625
-0.52957
-0.525422
-0.521187
-0.516863
-0.512447
-0.507938
-0.503332
-0.498628
-0.493822
-0.48891
-0.48389
-0.478757
-0.473507
-0.468134
-0.462633
-0.456998
-0.451221
-0.445295
-0.439211
-0.432961
-0.426533
-0.419918
-0.413104
-0.406077
-0.398825
-0.391333
-0.383587
-0.375571
-0.367271
-0.358668
-0.349731
-0.340424
-0.330918
-0.321621
-0.310452
-0.555571
-0.551326
-0.547074
-0.543049
-0.538989
-0.534823
-0.530565
-0.526223
-0.521793
-0.517273
-0.512659
-0.507947
-0.503134
-0.498215
-0.493187
-0.488042
-0.482776
-0.477382
-0.471853
-0.46618
-0.460356
-0.454371
-0.448214
-0.441875
-0.435342
-0.428602
-0.421643
-0.414451
-0.407011
-0.399311
-0.391334
-0.383067
-0.374497
-0.36561
-0.356395
-0.346826
-0.336883
-0.326719
-0.316662
-0.304914
-0.560117
-0.555751
-0.551385
-0.547259
-0.543103
-0.538844
-0.534496
-0.530066
-0.52555
-0.520944
-0.516244
-0.511444
-0.50654
-0.501526
-0.496395
-0.491141
-0.485754
-0.480227
-0.474549
-0.468712
-0.462703
-0.456511
-0.450123
-0.443526
-0.436705
-0.429648
-0.422338
-0.414761
-0.406902
-0.398747
-0.390283
-0.381496
-0.372377
-0.362917
-0.353109
-0.342939
-0.332398
-0.321624
-0.310876
-0.298647
-0.56316
-0.558695
-0.554235
-0.550028
-0.545796
-0.541466
-0.537049
-0.532552
-0.527971
-0.5233
-0.518534
-0.513666
-0.50869
-0.503598
-0.498381
-0.493031
-0.487536
-0.481887
-0.476071
-0.470075
-0.463887
-0.457491
-0.450872
-0.444016
-0.436906
-0.429526
-0.421861
-0.413896
-0.405615
-0.397006
-0.388056
-0.378757
-0.369102
-0.359087
-0.348714
-0.337976
-0.32688
-0.315547
-0.304177
-0.29156
-0.564518
-0.559976
-0.555446
-0.55118
-0.546896
-0.542516
-0.538053
-0.533513
-0.52889
-0.524176
-0.519366
-0.514451
-0.509422
-0.50427
-0.498985
-0.493554
-0.487966
-0.482206
-0.476261
-0.470115
-0.463752
-0.457156
-0.450309
-0.443195
-0.435795
-0.428093
-0.420072
-0.411719
-0.403018
-0.393958
-0.384532
-0.374734
-0.364561
-0.354018
-0.343111
-0.331847
-0.320243
-0.308405
-0.296485
-0.283567
-0.564009
-0.559415
-0.554841
-0.550541
-0.546229
-0.541824
-0.53734
-0.532781
-0.528139
-0.523407
-0.518575
-0.513635
-0.508574
-0.503382
-0.498046
-0.492551
-0.486883
-0.481026
-0.474963
-0.468675
-0.462145
-0.455354
-0.448283
-0.440913
-0.433226
-0.425204
-0.416832
-0.408094
-0.398981
-0.389482
-0.379594
-0.369315
-0.358651
-0.347611
-0.33621
-0.324466
-0.312406
-0.300123
-0.287723
-0.274591
-0.561451
-0.556835
-0.552244
-0.547937
-0.543622
-0.53922
-0.534741
-0.530188
-0.525554
-0.520828
-0.515999
-0.511055
-0.505985
-0.500773
-0.495405
-0.489863
-0.484131
-0.478189
-0.472019
-0.4656
-0.458912
-0.451934
-0.444645
-0.437025
-0.429057
-0.420722
-0.412005
-0.402895
-0.393381
-0.38346
-0.373131
-0.3624
-0.351276
-0.339778
-0.327929
-0.315757
-0.303299
-0.290632
-0.277827
-0.264564
-0.556672
-0.552064
-0.547487
-0.5432
-0.538911
-0.534539
-0.530092
-0.525574
-0.520974
-0.516279
-0.511477
-0.506555
-0.501497
-0.496286
-0.490905
-0.485334
-0.479554
-0.473543
-0.467279
-0.460741
-0.453904
-0.446749
-0.439251
-0.431392
-0.423152
-0.414515
-0.405467
-0.395999
-0.386105
-0.375785
-0.365044
-0.353893
-0.342351
-0.330441
-0.318195
-0.305653
-0.29286
-0.279875
-0.266741
-0.253429
-0.549509
-0.54494
-0.540409
-0.536172
-0.531937
-0.527624
-0.523239
-0.518783
-0.514244
-0.509608
-0.50486
-0.499983
-0.49496
-0.489772
-0.484398
-0.478817
-0.473006
-0.466942
-0.460599
-0.453954
-0.446983
-0.439662
-0.431968
-0.423882
-0.415385
-0.406462
-0.397102
-0.387299
-0.377051
-0.366362
-0.355244
-0.343716
-0.331801
-0.319532
-0.306949
-0.2941
-0.28104
-0.267807
-0.254422
-0.241144
-0.539812
-0.535316
-0.530863
-0.526706
-0.522557
-0.518332
-0.514039
-0.509674
-0.505224
-0.500673
-0.496004
-0.491197
-0.486234
-0.481091
-0.475746
-0.470174
-0.464351
-0.458249
-0.451844
-0.445109
-0.438018
-0.430548
-0.422674
-0.414379
-0.405644
-0.396457
-0.386809
-0.376699
-0.366129
-0.355109
-0.343658
-0.3318
-0.319567
-0.306999
-0.294144
-0.281057
-0.267801
-0.254396
-0.240837
-0.227673
-0.527448
-0.523058
-0.518718
-0.514673
-0.510639
-0.506533
-0.50236
-0.498116
-0.493784
-0.489346
-0.484782
-0.480071
-0.47519
-0.470115
-0.464821
-0.459279
-0.453463
-0.447344
-0.440895
-0.434088
-0.426895
-0.419294
-0.411261
-0.402778
-0.39383
-0.384405
-0.374501
-0.364119
-0.353267
-0.341962
-0.330227
-0.318095
-0.305605
-0.292804
-0.279745
-0.266495
-0.25312
-0.239619
-0.225968
-0.212998
-0.512302
-0.508055
-0.503862
-0.499959
-0.496071
-0.492115
-0.488093
-0.483998
-0.479812
-0.475514
-0.471082
-0.466492
-0.461719
-0.456735
-0.451513
-0.446023
-0.440235
-0.434119
-0.427647
-0.420788
-0.413516
-0.405807
-0.397639
-0.388995
-0.379863
-0.370235
-0.360111
-0.349498
-0.338411
-0.326872
-0.31491
-0.302567
-0.289887
-0.276923
-0.263737
-0.250401
-0.236986
-0.223471
-0.209808
-0.19711
-0.494285
-0.490215
-0.486202
-0.482474
-0.478762
-0.474986
-0.471144
-0.467227
-0.463215
-0.459085
-0.454811
-0.450367
-0.445726
-0.440857
-0.435731
-0.430315
-0.424578
-0.418488
-0.412014
-0.405128
-0.397801
-0.390011
-0.381737
-0.372964
-0.363682
-0.35389
-0.34359
-0.332795
-0.321525
-0.309809
-0.297685
-0.285197
-0.272399
-0.25935
-0.246115
-0.232775
-0.219403
-0.205954
-0.19236
-0.18001
-0.47333
-0.469471
-0.465673
-0.46215
-0.458644
-0.455077
-0.451445
-0.447734
-0.443924
-0.439987
-0.435897
-0.431625
-0.427141
-0.422411
-0.417404
-0.412086
-0.406424
-0.400383
-0.393934
-0.387046
-0.379693
-0.371852
-0.363505
-0.35464
-0.34525
-0.335337
-0.32491
-0.313987
-0.302594
-0.290765
-0.278546
-0.265987
-0.253148
-0.240092
-0.226891
-0.21363
-0.200385
-0.187087
-0.173643
-0.161714
-0.449398
-0.445785
-0.442234
-0.438945
-0.435675
-0.432346
-0.42895
-0.425474
-0.421892
-0.418175
-0.414294
-0.410219
-0.405915
-0.401349
-0.396486
-0.391291
-0.385728
-0.379763
-0.373366
-0.366506
-0.359159
-0.351302
-0.34292
-0.334003
-0.324551
-0.314567
-0.304068
-0.293076
-0.281623
-0.269751
-0.257509
-0.244956
-0.232156
-0.219176
-0.206092
-0.192995
-0.179961
-0.166901
-0.153692
-0.14225
-0.422481
-0.419144
-0.415873
-0.412847
-0.40984
-0.406776
-0.403644
-0.400428
-0.397099
-0.393627
-0.389981
-0.386126
-0.382028
-0.37765
-0.372955
-0.367908
-0.362471
-0.356611
-0.350296
-0.343496
-0.336189
-0.328354
-0.319979
-0.311057
-0.301592
-0.291593
-0.28108
-0.270083
-0.258639
-0.246796
-0.234609
-0.222142
-0.209462
-0.196641
-0.183758
-0.170906
-0.158166
-0.145426
-0.132525
-0.121575
-0.392597
-0.389569
-0.386606
-0.383871
-0.381153
-0.378379
-0.375536
-0.372604
-0.369553
-0.36635
-0.362962
-0.359352
-0.355483
-0.351318
-0.346817
-0.341944
-0.336662
-0.330936
-0.324735
-0.318031
-0.310802
-0.303031
-0.294708
-0.285832
-0.276408
-0.266453
-0.25599
-0.245056
-0.233694
-0.221955
-0.209902
-0.1976
-0.185123
-0.172545
-0.159945
-0.147417
-0.135046
-0.122699
-0.110117
-0.0995179
-0.3598
-0.357109
-0.354482
-0.352062
-0.349657
-0.347197
-0.344667
-0.342042
-0.339292
-0.336381
-0.333273
-0.329931
-0.326315
-0.322387
-0.318106
-0.313435
-0.308336
-0.302776
-0.296723
-0.290153
-0.283043
-0.275381
-0.26716
-0.258382
-0.249058
-0.239209
-0.228864
-0.218064
-0.206857
-0.195302
-0.183462
-0.17141
-0.15922
-0.146968
-0.134735
-0.122617
-0.110705
-0.0988451
-0.086641
-0.0766868
-0.324171
-0.321843
-0.319578
-0.317496
-0.315426
-0.313303
-0.311106
-0.30881
-0.306382
-0.303784
-0.300978
-0.297926
-0.294586
-0.290919
-0.286884
-0.282443
-0.277558
-0.272197
-0.266329
-0.259931
-0.252985
-0.24548
-0.237412
-0.228789
-0.219626
-0.209948
-0.19979
-0.189198
-0.178223
-0.166929
-0.155385
-0.143663
-0.131842
-0.119999
-0.108213
-0.0965851
-0.0851939
-0.0738405
-0.0622104
-0.0531432
-0.285825
-0.283884
-0.282003
-0.28028
-0.278565
-0.276797
-0.274953
-0.273006
-0.270918
-0.268653
-0.26617
-0.263429
-0.260388
-0.257006
-0.253244
-0.249061
-0.244421
-0.239293
-0.233648
-0.227465
-0.220728
-0.213429
-0.20557
-0.197161
-0.188222
-0.178783
-0.168884
-0.158572
-0.147908
-0.136955
-0.125785
-0.114475
-0.103102
-0.0917447
-0.0804825
-0.0694157
-0.0586195
-0.0478634
-0.0368166
-0.0285586
-0.244904
-0.243372
-0.241896
-0.240549
-0.239206
-0.237811
-0.236338
-0.234755
-0.233026
-0.231112
-0.22897
-0.226561
-0.223841
-0.220769
-0.217304
-0.213408
-0.209046
-0.204186
-0.198803
-0.192878
-0.186397
-0.179357
-0.171763
-0.163629
-0.15498
-0.145848
-0.136279
-0.126325
-0.116047
-0.105513
-0.0947966
-0.0839752
-0.0731274
-0.0623295
-0.0516603
-0.04122
-0.0310814
-0.020987
-0.0105603
-0.00308481
-0.201583
-0.200476
-0.199422
-0.198467
-0.197511
-0.196504
-0.195416
-0.194214
-0.19286
-0.191312
-0.189531
-0.187472
-0.185094
-0.182354
-0.179213
-0.175633
-0.171581
-0.167025
-0.161944
-0.156321
-0.150146
-0.143418
-0.136146
-0.128349
-0.120055
-0.111301
-0.102135
-0.0926129
-0.0827981
-0.0727603
-0.0625741
-0.0523169
-0.0420663
-0.0318966
-0.021884
-0.0121276
-0.00269864
0.0066877
0.0164665
0.0231795
-0.15606
-0.155395
-0.154777
-0.154227
-0.153671
-0.153063
-0.152373
-0.151565
-0.150599
-0.149434
-0.148028
-0.146338
-0.144321
-0.141937
-0.139145
-0.13591
-0.132199
-0.127984
-0.123246
-0.117969
-0.112148
-0.105786
-0.0988953
-0.0914977
-0.0836251
-0.0753186
-0.0666285
-0.0576131
-0.0483374
-0.0388721
-0.0292914
-0.0196715
-0.0100877
-0.000610989
0.00868682
0.0177093
0.0263874
0.035033
0.0441549
0.0501598
-0.10856
-0.108349
-0.10818
-0.108045
-0.107898
-0.107702
-0.10742
-0.107016
-0.10645
-0.105681
-0.104665
-0.10336
-0.101724
-0.0997164
-0.0972986
-0.094436
-0.0910982
-0.0872603
-0.082904
-0.0780184
-0.0726012
-0.0666586
-0.0602066
-0.0532706
-0.0458856
-0.0380958
-0.0299537
-0.0215191
-0.0128581
-0.00404085
0.00485955
0.0137694
0.0226171
0.0313369
0.0398635
0.0481055
0.0559972
0.0638801
0.0723632
0.0777746
-0.0593343
-0.0595868
-0.0598743
-0.0601632
-0.0604339
-0.0606553
-0.0607903
-0.0608001
-0.0606444
-0.0602813
-0.0596686
-0.058764
-0.0575261
-0.0559153
-0.0538949
-0.0514319
-0.0484983
-0.0450717
-0.0411369
-0.0366863
-0.0317206
-0.0262499
-0.0202933
-0.0138796
-0.00704674
0.000158634
0.00768214
0.0154628
0.0234346
0.031528
0.0396723
0.0477972
0.0558359
0.0637295
0.0714215
0.078829
0.0858924
0.0929893
0.100865
0.105817
-0.00865259
-0.00937567
-0.0101269
-0.0108447
-0.0115381
-0.0121833
-0.0127411
-0.0131713
-0.0134334
-0.0134863
-0.0132878
-0.0127967
-0.0119725
-0.0107773
-0.00917612
-0.00713814
-0.00463785
-0.00165585
0.00182008
0.00579428
0.0102625
0.0152114
0.0206185
0.0264519
0.032671
0.0392271
0.0460641
0.0531204
0.06033
0.0676247
0.0749361
0.0821978
0.0893486
0.0963375
0.103119
0.109627
0.115818
0.122104
0.129376
0.134068
0.0431934
0.0419955
0.0407767
0.039627
0.0385078
0.0374355
0.0364512
0.035596
0.0349101
0.0344342
0.0342093
0.0342757
0.0346723
0.0354353
0.0365975
0.0381873
0.0402273
0.0427341
0.0457165
0.0491757
0.053104
0.0574848
0.0622924
0.0674921
0.0730408
0.0788879
0.0849758
0.0912421
0.0976209
0.104045
0.110447
0.116764
0.122939
0.128926
0.134695
0.140209
0.145463
0.150838
0.157315
0.162464
0.0958944
0.0942201
0.0925328
0.0909503
0.0894047
0.0879044
0.0864919
0.0852094
0.0840963
0.0831922
0.0825371
0.0821698
0.0821274
0.082444
0.08315
0.084271
0.0858269
0.087831
0.090289
0.0931987
0.0965491
0.100321
0.104485
0.109004
0.113832
0.118918
0.124203
0.129622
0.135109
0.140595
0.146012
0.151295
0.156381
0.161214
0.165754
0.169983
0.173879
0.177452
0.181358
0.186573
0.149125
0.146976
0.144822
0.142808
0.140838
0.138911
0.137072
0.135362
0.13382
0.132485
0.131395
0.130588
0.130098
0.129956
0.130192
0.130827
0.131878
0.133356
0.135263
0.137594
0.140334
0.143462
0.146945
0.150745
0.154815
0.159099
0.163539
0.16807
0.172624
0.17713
0.181517
0.185711
0.189634
0.193197
0.196308
0.198895
0.200729
0.200678
0.197386
0.198742
0.202549
0.199928
0.197312
0.194872
0.192481
0.190131
0.187868
0.185733
0.183764
0.181998
0.180472
0.17922
0.178276
0.177668
0.177422
0.177558
0.178088
0.179021
0.180356
0.182084
0.184189
0.186645
0.18942
0.192472
0.195754
0.199211
0.202784
0.206409
0.210022
0.213554
0.216939
0.22011
0.222999
0.225535
0.22766
0.229366
0.230528
0.230283
0.228027
0.231451
0.255816
0.252732
0.249661
0.246801
0.243996
0.24123
0.238548
0.235993
0.233601
0.231407
0.229445
0.227748
0.226347
0.225268
0.224533
0.224159
0.224156
0.22453
0.225276
0.226383
0.227832
0.229596
0.231641
0.233924
0.236397
0.239007
0.241696
0.244402
0.247064
0.249618
0.252003
0.254159
0.256029
0.257555
0.2587
0.259472
0.25978
0.258965
0.256912
0.26055
0.308574
0.305037
0.30152
0.29825
0.295041
0.291867
0.288776
0.285808
0.282999
0.280381
0.277987
0.275847
0.273989
0.272437
0.271209
0.270319
0.269777
0.269581
0.269727
0.2702
0.27098
0.272038
0.273337
0.274837
0.276489
0.27824
0.280035
0.281816
0.283524
0.285102
0.286494
0.287648
0.288515
0.289052
0.289233
0.289078
0.288507
0.286962
0.284483
0.287309
0.360467
0.356489
0.35254
0.348872
0.34527
0.3417
0.338209
0.334839
0.331622
0.328588
0.325769
0.323191
0.320879
0.318855
0.317134
0.315728
0.314642
0.313872
0.313412
0.313245
0.313348
0.313691
0.314238
0.314947
0.31577
0.316658
0.317555
0.318409
0.319165
0.319769
0.320174
0.320333
0.320207
0.319761
0.31898
0.317889
0.31642
0.314086
0.310986
0.312726
0.411139
0.406736
0.402371
0.39832
0.394338
0.390386
0.386509
0.382749
0.379135
0.375696
0.37246
0.369452
0.366694
0.364204
0.361995
0.360075
0.358446
0.357103
0.356037
0.355228
0.354652
0.35428
0.354073
0.35399
0.353985
0.35401
0.354013
0.353944
0.353753
0.353392
0.352817
0.35199
0.350877
0.349451
0.347705
0.345663
0.343268
0.34009
0.33627
0.336821
0.460241
0.455433
0.45067
0.446251
0.441907
0.437588
0.433341
0.429205
0.425208
0.421378
0.417738
0.414311
0.411116
0.408169
0.405479
0.403052
0.400888
0.398978
0.39731
0.395865
0.394616
0.393533
0.392577
0.39171
0.390885
0.390055
0.389174
0.388194
0.387069
0.385755
0.384215
0.382416
0.380329
0.377933
0.375225
0.372231
0.3689
0.364857
0.360271
0.359585
0.507434
0.50224
0.497099
0.492332
0.487643
0.482976
0.478375
0.473881
0.469519
0.465312
0.461283
0.457451
0.453834
0.450443
0.447285
0.444363
0.441674
0.439208
0.43695
0.43488
0.43297
0.431188
0.429498
0.427859
0.426229
0.424563
0.422816
0.420943
0.418904
0.41666
0.414176
0.411426
0.408386
0.405039
0.401387
0.397454
0.393196
0.38829
0.382926
0.380989
0.552388
0.546831
0.541335
0.53624
0.531227
0.526231
0.521297
0.516464
0.511754
0.507189
0.502789
0.49857
0.494547
0.490729
0.487119
0.483719
0.480522
0.477516
0.474686
0.472008
0.469455
0.466994
0.46459
0.462202
0.459791
0.457312
0.454725
0.451989
0.449065
0.44592
0.442524
0.438854
0.434891
0.430623
0.426055
0.42121
0.41605
0.410303
0.404167
0.400993
0.594791
0.588896
0.583068
0.577668
0.572352
0.567048
0.561803
0.556651
0.551615
0.546713
0.541962
0.537377
0.532968
0.528743
0.524702
0.520844
0.517161
0.513638
0.510258
0.506996
0.503825
0.500713
0.497622
0.494516
0.491355
0.488097
0.484706
0.481142
0.477372
0.473365
0.469096
0.464547
0.459702
0.454554
0.449108
0.44339
0.437366
0.430814
0.423928
0.419553
0.634346
0.62814
0.622006
0.616323
0.610728
0.605141
0.599606
0.594159
0.58882
0.583603
0.578525
0.573596
0.568826
0.564217
0.55977
0.55548
0.551336
0.547324
0.543423
0.539608
0.535851
0.53212
0.528379
0.524592
0.52072
0.516726
0.512573
0.508226
0.503657
0.498836
0.493745
0.488365
0.482688
0.47671
0.470437
0.463894
0.457057
0.449746
0.442144
0.436622
0.670779
0.664288
0.657875
0.651935
0.646084
0.640238
0.634439
0.628722
0.623104
0.617598
0.612217
0.606971
0.601865
0.596901
0.592076
0.587383
0.58281
0.578341
0.573953
0.569622
0.565318
0.561009
0.55666
0.552237
0.547702
0.54302
0.538157
0.533082
0.527767
0.52219
0.516332
0.510182
0.503732
0.496981
0.489941
0.482632
0.47504
0.467024
0.458753
0.452153
0.703834
0.697087
0.690424
0.684252
0.678172
0.672092
0.666054
0.660093
0.654222
0.648454
0.642799
0.637264
0.631852
0.626563
0.621392
0.616331
0.611364
0.606475
0.60164
0.596834
0.592027
0.587187
0.58228
0.577273
0.572129
0.566816
0.561302
0.55556
0.549563
0.543293
0.536735
0.529879
0.522723
0.515268
0.507526
0.499518
0.491237
0.48258
0.473693
0.466101
0.73328
0.726307
0.719423
0.713047
0.706763
0.700476
0.694228
0.688049
0.681955
0.675953
0.670053
0.664259
0.658574
0.652994
0.647512
0.642119
0.636799
0.631532
0.626294
0.621061
0.615801
0.610483
0.605074
0.59954
0.593849
0.587969
0.58187
0.575528
0.568919
0.562027
0.554841
0.547354
0.539565
0.531478
0.523108
0.514475
0.505579
0.496349
0.486909
0.478422
0.758913
0.751745
0.744669
0.738116
0.731657
0.725191
0.718759
0.712393
0.706103
0.699898
0.693785
0.687765
0.68184
0.676006
0.670252
0.664569
0.658937
0.653339
0.647748
0.642139
0.636481
0.630743
0.624892
0.618897
0.612726
0.606348
0.599736
0.592868
0.585723
0.578287
0.570551
0.562511
0.554169
0.545531
0.536612
0.527433
0.518001
0.508271
0.498345
0.489071
0.780553
0.773221
0.765984
0.759283
0.752676
0.74606
0.739474
0.732949
0.726495
0.720119
0.713825
0.707615
0.701487
0.695436
0.689452
0.683522
0.677626
0.671745
0.665854