/*--------------------------------*- C++ -*----------------------------------*\
  =========                 |
  \\      /  F ield         | OpenFOAM: The Open Source CFD Toolbox
   \\    /   O peration     | Website:  https://openfoam.org
    \\  /    A nd           | Version:  7
     \\/     M anipulation  |
\*---------------------------------------------------------------------------*/
FoamFile
{
    version     2.0;
    format      ascii;
    class       surfaceScalarField;
    location    "24";
    object      phi;
}
// * * * * * * * * * * * * * * * * * * * * * * * * * * * * * * * * * * * * * //

dimensions      [0 3 -1 0 0 0 0];

internalField   nonuniform List<scalar> 
806
(
-0.000212178
0.000948513
0.00105079
-0.000210771
0.000742508
-0.000207252
0.000846134
-0.000211265
0.000952526
-0.000221637
0.00106116
-0.000237911
0.0011715
0.00128296
-0.000304928
0.000488366
-0.000263594
0.000600957
-0.000236077
0.00071499
-0.00021958
0.000829637
-0.000212103
0.000945049
-0.000212425
0.00106148
-0.000219921
0.00117899
-0.000234368
0.00129741
-0.000255769
0.0014164
0.0015356
-0.000272766
0.000313587
-0.000272234
0.00038018
-0.00025865
0.000474782
-0.000240115
0.000582422
-0.000221428
0.000696303
-0.000205559
0.000813768
-0.000194383
0.000933873
-0.000189083
0.00105618
-0.000190396
0.00118031
-0.000198785
0.00130579
-0.000214539
0.00143215
-0.000237862
0.00155893
0.00168575
0.000164705
0.000539833
4.54362e-05
0.000422758
-3.73711e-05
0.000396394
-9.01102e-05
0.000432919
-0.00011945
0.000504122
-0.0001325
0.000595472
-0.000135665
0.000699468
-0.000134112
0.000812215
-0.00013172
0.00093148
-0.000131263
0.00105573
-0.000134668
0.00118371
-0.000143247
0.00131437
-0.000157901
0.00144681
-0.000179267
0.00158029
-0.000207826
0.00171431
-0.00024398
0.00184854
0.00198288
-0.000364574
0.00111031
-1.50892e-05
0.000859966
0.000113347
0.000656978
0.000134307
0.000518873
0.000107505
0.00044956
6.5796e-05
0.000438103
2.92004e-05
0.000469515
2.20423e-06
0.000531118
-1.6087e-05
0.000613764
-2.81324e-05
0.000711513
-3.64791e-05
0.000820561
-4.33265e-05
0.000938327
-5.04996e-05
0.0010629
-5.9522e-05
0.00119274
-7.16803e-05
0.00132653
-8.80697e-05
0.00146319
-0.000109619
0.00160184
-0.000137112
0.0017418
-0.000171202
0.00188263
-0.000212426
0.00202411
-0.000261195
0.00216627
0.00230937
-0.00203574
0.00103985
-0.00159941
0.000930886
-0.0012273
0.000738199
-0.000901562
0.00053423
-0.000625358
0.000380774
-0.000407386
0.000300902
-0.000245973
0.000288147
-0.000131624
0.000323753
-5.53016e-05
0.000393193
-8.05132e-06
0.000483868
1.82734e-05
0.000587439
3.04554e-05
0.000699331
3.35883e-05
0.000817428
3.10204e-05
0.000940895
2.46079e-05
0.00106931
1.50612e-05
0.00120228
2.3352e-06
0.00133926
-1.40522e-05
0.00147958
-3.47846e-05
0.00162257
-6.05894e-05
0.00176761
-9.2138e-05
0.00191418
-0.000129986
0.00206195
-0.000174526
0.00221081
-0.000225941
0.00236079
-0.000284134
0.0025121
0.00266485
0.00572435
0.00301983
0.00369676
0.00303704
0.00207512
0.00266149
0.000951594
0.00205442
0.000287989
0.0014018
-2.70334e-05
0.000849253
-0.000123497
0.000477238
-0.000107649
0.000285053
-5.26286e-05
0.000233127
1.33818e-06
0.000269787
4.36628e-05
0.000350869
7.22347e-05
0.000455296
8.90893e-05
0.000570585
9.73166e-05
0.000691104
9.95429e-05
0.000815202
9.77495e-05
0.000942688
9.28828e-05
0.00107418
8.51948e-05
0.00120997
7.44935e-05
0.00134996
6.03215e-05
0.00149375
4.20932e-05
0.0016408
1.91986e-05
0.0017905
-8.92801e-06
0.0019423
-4.27505e-05
0.00209578
-8.2587e-05
0.00225064
-0.000128566
0.00240677
-0.000180587
0.00256412
-0.000238308
0.00272257
-0.00030124
0.00288137
0.00304068
-0.000368609
0.00887467
0.00109438
0.00830731
0.00310956
0.00700008
0.00432706
0.00542379
0.00461333
0.0039389
0.00414638
0.00272873
0.00326459
0.00182858
0.00230195
0.00119569
0.00148215
0.000771647
0.00090128
0.000501418
0.000555282
0.000341407
0.000393139
0.00025359
0.000357603
0.000206306
0.000398153
0.000181895
0.000479707
0.000170211
0.000582269
0.000165248
0.000696067
0.000163388
0.000817062
0.000161917
0.00094416
0.000159285
0.00107681
0.000154521
0.00121473
0.000146912
0.00135757
0.000135846
0.00150482
0.000120843
0.0016558
0.00010143
0.00180991
7.71812e-05
0.00196655
4.77453e-05
0.00212521
1.28776e-05
0.00228551
-2.75247e-05
0.00244717
-7.33951e-05
0.00260999
-0.000124511
0.00277369
-0.000180609
0.00293746
0.0031012
-0.000241125
-0.00621776
-0.00240269
-0.00474921
-0.000374165
-0.00326857
0.00162891
-0.00193045
0.00298894
-0.000815471
0.00349836
2.04528e-05
0.00331046
0.00055262
0.00273242
0.000803606
0.00205096
0.000846208
0.00143955
0.000775904
0.000971584
0.000658234
0.000672952
0.000537946
0.000513427
0.000443579
0.00045197
0.000373643
0.000468089
0.00032526
0.00052809
0.000293484
0.000614045
0.000273195
0.000716355
0.000260028
0.000830229
0.000250875
0.000953314
0.000243402
0.00108428
0.000235945
0.00122219
0.00022731
0.0013662
0.000216659
0.00151547
0.000203199
0.00166926
0.000186315
0.0018268
0.000165483
0.00198738
0.00014027
0.00215043
0.000110355
0.00231543
7.55498e-05
0.00248197
3.58168e-05
0.00264972
-8.73937e-06
0.00281824
-5.79731e-05
0.0029867
0.0031551
-0.000111873
-0.00973835
-0.00113232
-0.0116862
-0.00186295
-0.0121666
-0.00192227
-0.0112525
-0.00128832
-0.00931494
-0.000308611
-0.00691875
0.000592746
-0.00459554
0.00117515
-0.00268901
0.00140392
-0.00132194
0.00136535
-0.000446677
0.0011757
5.46076e-05
0.000938262
0.000302854
0.000723339
0.000410398
0.000565408
0.000443994
0.00047983
0.000437546
0.000458418
0.00041968
0.000485954
0.000400169
0.000547602
0.000382183
0.00063203
0.000366477
0.000732061
0.000352726
0.00084398
0.000340595
0.000965444
0.00032967
0.00109521
0.000319406
0.00123245
0.000309167
0.00137644
0.000298206
0.00152643
0.000285804
0.00168167
0.00027122
0.00184138
0.000253772
0.00200483
0.000232873
0.00217133
0.000208059
0.00234024
0.000179005
0.00251103
0.000145534
0.00268319
0.000107584
0.00285619
6.51107e-05
0.00302917
0.00320193
1.82813e-05
0.00509224
0.0011241
0.00394884
0.000989855
0.00236799
0.000448526
0.000601113
-9.60691e-05
-0.000953451
-0.000367707
-0.00194629
-0.000295479
-0.00231627
6.13634e-05
-0.00223518
0.000511657
-0.00193361
0.000873581
-0.00157207
0.00104238
-0.00121176
0.00100504
-0.000860364
0.00082431
-0.000532629
0.000610528
-0.000243871
0.00043458
-8.54367e-06
0.000330081
0.000164127
0.00030716
0.000278477
0.000344067
0.000349678
0.000414754
0.000389627
0.000507652
0.000408222
0.000613436
0.000413163
0.000727119
0.000410626
0.000846517
0.000404453
0.000971617
0.000396848
0.00110281
0.000388872
0.00124043
0.000380784
0.00138453
0.000372342
0.00153487
0.000363024
0.00169098
0.000352186
0.00185222
0.000339163
0.00201786
0.000323338
0.00218715
0.00030419
0.00235939
0.000281318
0.0025339
0.000254448
0.00271006
0.00022342
0.00288722
0.000188123
0.00306447
0.00324155
0.000148503
0.00113727
-0.00181843
0.00292307
-0.00138446
0.00542937
-0.00138219
0.00815974
-0.00174052
0.0103988
-0.00179051
0.0116362
-0.00133346
0.0116757
-0.000407208
0.010617
0.000763203
0.0088139
0.00186445
0.00669569
0.00262986
0.00465783
0.00291144
0.00298009
0.00272012
0.00177866
0.00220647
0.00102326
0.00157971
0.000618587
0.0010152
0.000445905
0.000607262
0.000391919
0.000384066
0.000390046
0.000309033
0.000406746
0.000327367
0.000423857
0.000397643
0.000435894
0.000495615
0.000442627
0.000606703
0.000445566
0.00072418
0.000446052
0.000846031
0.000445225
0.000972444
0.000443757
0.00110428
0.000441913
0.00124227
0.000439667
0.00138678
0.000436786
0.00153775
0.000432895
0.00169488
0.000427525
0.00185759
0.000420167
0.00202521
0.000410311
0.00219701
0.000397487
0.00237221
0.000381297
0.00255009
0.000361428
0.00272993
0.000337646
0.002911
0.000309797
0.00309232
0.00327335
0.000277994
-0.00201331
-0.00450117
-0.00527366
-0.00434124
-0.00238416
0.000148837
-0.0043235
0.00272391
-0.00390853
0.00476387
-0.00244716
0.00588008
-0.000353012
0.00597001
0.00177453
0.0052992
0.00330067
0.00428527
0.00392538
0.00326751
0.00373787
0.00241651
0.00305748
0.00176802
0.00222819
0.00129089
0.00149234
0.000947307
0.00095084
0.00071847
0.000612904
0.00058093
0.000446574
0.000508645
0.000399651
0.000472869
0.00043342
0.000458304
0.000510179
0.000455752
0.000609255
0.000459465
0.000720467
0.00046592
0.000839576
0.000473077
0.000965287
0.000479884
0.00109748
0.000485851
0.00123631
0.000490767
0.00138186
0.000494498
0.00153402
0.000496886
0.00169249
0.000497689
0.00185678
0.000496591
0.00202631
0.000493213
0.00220038
0.000487156
0.00237827
0.000478036
0.00255921
0.000465512
0.00274246
0.000449285
0.00292723
0.000428958
0.00311264
0.00329827
0.000404038
-0.00926648
-0.00951317
-0.00873088
-0.0072491
-0.00547165
-0.00369376
-0.00211124
-0.000854749
1.7075e-05
0.000521147
0.000748895
0.000807429
0.000892306
0.000773912
0.000646421
0.000704733
0.000515753
0.000641541
0.000462843
0.000592463
0.000482498
0.000559262
0.00054338
0.000539527
0.00062899
0.000529826
0.000730169
0.000526975
0.000842427
0.000528517
0.000963745
0.000532744
0.00109325
0.000538524
0.00123053
0.000545094
0.00137529
0.000551891
0.00152723
0.000558439
0.00168594
0.000564277
0.00185095
0.000568933
0.00202166
0.000571922
0.0021974
0.000572762
0.00237743
0.000570996
0.00256098
0.000566211
0.00274724
0.00055805
0.00293539
0.000546217
0.00312448
0.00331386
0.000530626
0.00026156
0.000428203
0.000515856
0.00055065
0.000563777
0.000567762
0.000568451
0.000568643
0.000569817
0.000572742
0.00096082
0.000577713
0.00108828
0.000584687
0.00122355
0.000593389
0.00136659
0.000603389
0.00151722
0.000614165
0.00167516
0.000625141
0.00183997
0.00063572
0.00201108
0.000645304
0.00218781
0.000653312
0.00236942
0.000659202
0.00255509
0.000662482
0.00274396
0.000662726
0.00293515
0.000659523
0.00312768
0.00332086
0.000584844
0.000597767
0.00061174
0.000626951
0.000643282
0.000660433
0.000677984
0.000695445
0.000712279
0.000727933
0.000741859
0.00254116
0.000753537
0.00273228
0.000762488
0.0029262
0.000768233
0.00312193
0.00331874
0.000818532
0.000838857
0.000856781
0.000871771
0.00649322
0.000490496
0.00660315
0.000359243
0.00671068
0.000225714
9.10985e-05
0.00611975
0.00623787
0.00635171
0.00646109
0.00656468
0.00666096
0.00674991
)
;

boundaryField
{
    inlet
    {
        type            calculated;
        value           nonuniform 0();
    }
    outlet
    {
        type            calculated;
        value           nonuniform 0();
    }
    cylinder
    {
        type            calculated;
        value           uniform 0;
    }
    top
    {
        type            symmetryPlane;
        value           nonuniform 0();
    }
    bottom
    {
        type            symmetryPlane;
        value           nonuniform 0();
    }
    defaultFaces
    {
        type            empty;
        value           nonuniform 0();
    }
    procBoundary7to1
    {
        type            processor;
        value           nonuniform List<scalar> 
13
(
0.000652528
0.000770353
0.000883341
-0.000602006
-0.000469165
-0.000333244
-0.000195078
0.00681466
4.49076e-05
0.000181717
0.000315086
0.000450423
0.00683012
)
;
    }
    procBoundary7to6
    {
        type            processor;
        value           nonuniform List<scalar> 
24
(
-0.000930716
-0.00103121
-0.000231759
-0.00115522
-0.00126079
-0.000260076
-0.001395
-0.00150714
-0.000284233
-0.00165468
-0.000268927
-0.00181238
-0.00193875
-0.000288109
-0.0021175
-0.00225281
-0.000317757
-0.00245391
-0.00260032
-0.000348669
-0.00281843
-0.00297331
-0.00638171
-0.00599786
)
;
    }
    procBoundary7to8
    {
        type            processor;
        value           nonuniform List<scalar> 
24
(
0.000428099
0.000428049
0.000469371
0.000539394
0.000628301
0.000729977
0.000841253
-0.000572312
0.000948287
0.00107536
0.00120958
0.00135138
0.00150089
0.00165801
0.00182242
0.00199362
0.00217098
0.00235377
-0.000796313
0.00251894
0.00271196
0.00290827
0.00310694
0.00330717
)
;
    }
    procBoundary7to13
    {
        type            processor;
        value           nonuniform List<scalar> 
38
(
-0.000755688
0.00019438
-0.000849654
-0.000546724
0.000223951
-0.000642291
-0.000286814
0.000363286
-0.000380713
-0.000396594
0.000245994
-0.000303489
-0.00183355
-0.00120945
-0.000307944
-0.000785414
-0.00155273
0.00108782
-0.00136722
-0.000829579
0.00254863
-0.00100946
-0.00166343
-0.0079146
-0.0025422
-0.00830562
0.00124937
0.00415055
0.00737109
0.0038108
-0.000738402
0.00672012
0.000153549
0.000912185
-0.00547794
-0.000401338
-0.000231022
0.00128399
)
;
    }
    procBoundary7to14
    {
        type            processor;
        value           nonuniform List<scalar> 
20
(
0.000729313
0.000669427
-0.000611969
-0.00231461
-0.00369761
0.00801804
-0.00307506
-0.00366185
-0.00322944
-0.0018348
-2.91533e-06
0.00152277
0.00234285
0.00248139
0.00218565
0.00172412
0.00126459
4.74109e-05
0.000583335
0.000479778
)
;
    }
}


// ************************************************************************* //
