/*--------------------------------*- C++ -*----------------------------------*\
  =========                 |
  \\      /  F ield         | OpenFOAM: The Open Source CFD Toolbox
   \\    /   O peration     | Website:  https://openfoam.org
    \\  /    A nd           | Version:  7
     \\/     M anipulation  |
\*---------------------------------------------------------------------------*/
FoamFile
{
    version     2.0;
    format      ascii;
    class       surfaceScalarField;
    location    "2.6";
    object      phi;
}
// * * * * * * * * * * * * * * * * * * * * * * * * * * * * * * * * * * * * * //

dimensions      [0 3 -1 0 0 0 0];

internalField   nonuniform List<scalar> 
613
(
1.99e-05
-2.26065e-08
1.99223e-05
-2.22797e-08
1.99443e-05
-2.19575e-08
1.99659e-05
-2.16401e-08
1.99872e-05
-2.13275e-08
2.00082e-05
-2.10202e-08
2.0029e-05
-2.07183e-08
2.00494e-05
-2.04223e-08
2.00695e-05
-2.01328e-08
2.00894e-05
-1.98505e-08
2.01089e-05
-1.95762e-08
2.01283e-05
-1.93111e-08
2.01473e-05
-1.90565e-08
2.01661e-05
-1.88139e-08
2.01847e-05
-1.85854e-08
2.02031e-05
-1.83733e-08
2.02213e-05
-1.81804e-08
2.02393e-05
-1.80101e-08
2.02571e-05
-1.78664e-08
2.02749e-05
-1.77541e-08
2.02926e-05
-1.76788e-08
2.03102e-05
-1.76473e-08
2.03279e-05
-1.76675e-08
2.03456e-05
-1.77488e-08
2.03635e-05
-1.79021e-08
2.03817e-05
-1.81406e-08
2.04002e-05
-1.84794e-08
2.04191e-05
-1.89367e-08
2.04386e-05
-1.95335e-08
2.04589e-05
-2.02947e-08
2.04802e-05
-2.12493e-08
2.05026e-05
-2.24313e-08
2.05265e-05
-2.38806e-08
2.05521e-05
-2.56437e-08
2.05799e-05
-2.77747e-08
2.06102e-05
-3.03368e-08
2.06436e-05
-3.34033e-08
2.06807e-05
-3.7059e-08
2.07221e-05
-4.14021e-08
2.07687e-05
-4.65455e-08
2.08213e-05
-5.26185e-08
2.0881e-05
-5.97689e-08
2.09492e-05
-6.81639e-08
2.10272e-05
-7.79916e-08
2.11167e-05
-8.94616e-08
2.12195e-05
-1.02805e-07
2.13377e-05
-1.18271e-07
2.14739e-05
-1.36128e-07
2.16305e-05
-1.5665e-07
2.18106e-05
-1.80114e-07
2.20174e-05
-2.06781e-07
2.22543e-05
-2.36877e-07
2.25249e-05
-2.70566e-07
2.28328e-05
-3.07916e-07
2.31816e-05
-3.48854e-07
2.35747e-05
-3.9312e-07
2.4015e-05
-4.40209e-07
2.45043e-05
-4.89322e-07
2.50436e-05
-5.39311e-07
2.56323e-05
-5.8867e-07
2.62678e-05
-6.35517e-07
2.69454e-05
-6.77677e-07
2.76582e-05
-7.12773e-07
2.83966e-05
-7.38424e-07
2.91491e-05
-7.52499e-07
-7.53367e-07
2.99025e-05
5.95993e-05
-8.92761e-08
5.9665e-05
-8.79825e-08
5.97297e-05
-8.67073e-08
5.97935e-05
-8.5451e-08
5.98564e-05
-8.42141e-08
5.99184e-05
-8.29977e-08
5.99795e-05
-8.1803e-08
6.00397e-05
-8.06318e-08
6.00991e-05
-7.94862e-08
6.01576e-05
-7.8369e-08
6.02153e-05
-7.72837e-08
6.02722e-05
-7.62347e-08
6.03284e-05
-7.52271e-08
6.03838e-05
-7.42674e-08
6.04386e-05
-7.33634e-08
6.04928e-05
-7.25243e-08
6.05463e-05
-7.17613e-08
6.05994e-05
-7.10878e-08
6.06521e-05
-7.05198e-08
6.07044e-05
-7.00761e-08
6.07565e-05
-6.97791e-08
6.08085e-05
-6.96556e-08
6.08606e-05
-6.97369e-08
6.09129e-05
-7.00601e-08
6.09656e-05
-7.0669e-08
6.10191e-05
-7.16152e-08
6.10736e-05
-7.29593e-08
6.11294e-05
-7.47727e-08
6.1187e-05
-7.71392e-08
6.12469e-05
-8.01572e-08
6.13096e-05
-8.39418e-08
6.13758e-05
-8.86283e-08
6.14463e-05
-9.43744e-08
6.1522e-05
-1.01365e-07
6.16041e-05
-1.09814e-07
6.16937e-05
-1.19974e-07
6.17924e-05
-1.32134e-07
6.1902e-05
-1.46633e-07
6.20245e-05
-1.6386e-07
6.21622e-05
-1.84264e-07
6.23179e-05
-2.08362e-07
6.24949e-05
-2.36741e-07
6.26968e-05
-2.70069e-07
6.29279e-05
-3.09097e-07
6.31931e-05
-3.54664e-07
6.3498e-05
-4.07697e-07
6.38489e-05
-4.69202e-07
6.4253e-05
-5.40253e-07
6.47184e-05
-6.21969e-07
6.52537e-05
-7.15476e-07
6.58688e-05
-8.21846e-07
6.65739e-05
-9.42025e-07
6.73801e-05
-1.07672e-06
6.82984e-05
-1.22627e-06
6.934e-05
-1.39044e-06
7.05152e-05
-1.56828e-06
7.18328e-05
-1.75784e-06
7.32995e-05
-1.956e-06
7.49184e-05
-2.15818e-06
7.6688e-05
-2.35834e-06
7.86014e-05
-2.54885e-06
8.06445e-05
-2.72084e-06
8.27962e-05
-2.86449e-06
8.50277e-05
-2.96992e-06
8.73035e-05
-3.02821e-06
-3.03246e-06
8.95825e-05
9.89574e-05
-1.96233e-07
9.90628e-05
-1.93378e-07
9.91666e-05
-1.90564e-07
9.9269e-05
-1.87791e-07
9.93698e-05
-1.85062e-07
9.94692e-05
-1.82378e-07
9.95671e-05
-1.79742e-07
9.96636e-05
-1.77159e-07
9.97588e-05
-1.74632e-07
9.98526e-05
-1.72167e-07
9.99451e-05
-1.69774e-07
0.000100036
-1.6746e-07
0.000100126
-1.65238e-07
0.000100215
-1.63122e-07
0.000100303
-1.61128e-07
0.00010039
-1.59279e-07
0.000100476
-1.57598e-07
0.000100561
-1.56114e-07
0.000100645
-1.54864e-07
0.000100729
-1.53889e-07
0.000100812
-1.53238e-07
0.000100895
-1.52971e-07
0.000100979
-1.53157e-07
0.000101063
-1.53879e-07
0.000101147
-1.55233e-07
0.000101233
-1.57333e-07
0.00010132
-1.60313e-07
0.00010141
-1.64333e-07
0.000101502
-1.69577e-07
0.000101598
-1.76262e-07
0.000101699
-1.84646e-07
0.000101806
-1.95026e-07
0.000101919
-2.07754e-07
0.000102041
-2.23237e-07
0.000102173
-2.41954e-07
0.000102317
-2.64461e-07
0.000102477
-2.91404e-07
0.000102654
-3.23534e-07
0.000102851
-3.61719e-07
0.000103074
-4.0696e-07
0.000103326
-4.60407e-07
0.000103613
-5.23374e-07
0.00010394
-5.97357e-07
0.000104315
-6.84042e-07
0.000104746
-7.8532e-07
0.000105241
-9.03281e-07
0.000105812
-1.04021e-06
0.000106471
-1.19856e-06
0.00010723
-1.38091e-06
0.000108104
-1.58986e-06
0.00010911
-1.82795e-06
0.000110266
-2.09747e-06
0.000111589
-2.40019e-06
0.0001131
-2.73711e-06
0.000114817
-3.10804e-06
0.00011676
-3.51111e-06
0.000118945
-3.94226e-06
0.000121383
-4.39471e-06
0.000124084
-4.85833e-06
0.000127045
-5.31951e-06
0.000130257
-5.76066e-06
0.000133697
-6.16124e-06
0.00013733
-6.4979e-06
0.000141107
-6.74707e-06
0.000144966
-6.88694e-06
-6.90029e-06
0.000148834
0.000137723
-3.37342e-07
0.000137862
-3.32406e-07
0.000137999
-3.27541e-07
0.000138134
-3.2275e-07
0.000138267
-3.18033e-07
0.000138398
-3.13395e-07
0.000138527
-3.08841e-07
0.000138654
-3.04377e-07
0.00013878
-3.00011e-07
0.000138903
-2.95754e-07
0.000139025
-2.91619e-07
0.000139145
-2.87624e-07
0.000139264
-2.83786e-07
0.000139381
-2.80133e-07
0.000139496
-2.76692e-07
0.000139611
-2.73501e-07
0.000139724
-2.70601e-07
0.000139835
-2.68044e-07
0.000139946
-2.65892e-07
0.000140057
-2.64217e-07
0.000140167
-2.63105e-07
0.000140276
-2.62659e-07
0.000140386
-2.62999e-07
0.000140497
-2.64268e-07
0.000140608
-2.66635e-07
0.000140721
-2.70297e-07
0.000140836
-2.75489e-07
0.000140954
-2.82484e-07
0.000141076
-2.91605e-07
0.000141203
-3.03231e-07
0.000141336
-3.17806e-07
0.000141477
-3.35851e-07
0.000141628
-3.57975e-07
0.000141789
-3.84891e-07
0.000141965
-4.17429e-07
0.000142157
-4.56562e-07
0.000142369
-5.03417e-07
0.000142605
-5.59305e-07
0.000142869
-6.25746e-07
0.000143166
-7.04494e-07
0.000143503
-7.97568e-07
0.000143887
-9.07282e-07
0.000144326
-1.03627e-06
0.00014483
-1.18753e-06
0.000145409
-1.36441e-06
0.000146076
-1.57065e-06
0.000146846
-1.81036e-06
0.000147736
-2.08798e-06
0.000148763
-2.40821e-06
0.000149949
-2.77591e-06
0.000151317
-3.19584e-06
0.000152892
-3.67247e-06
0.000154701
-4.20945e-06
0.000156773
-4.80919e-06
0.000159137
-5.47207e-06
0.000161822
-6.19561e-06
0.000164853
-6.97342e-06
0.000168252
-7.79423e-06
0.000172034
-8.64043e-06
0.000176203
-9.48801e-06
0.000180747
-1.03046e-05
0.000185638
-1.10525e-05
0.000190827
-1.16867e-05
0.000196242
-1.21619e-05
0.000201789
-1.24344e-05
-1.24689e-05
0.000207358
0.000175617
0.000175782
0.000175944
0.000176103
0.000176261
0.000176416
0.000176568
0.000176719
0.000176867
0.000177013
0.000177157
0.000177299
0.000177439
0.000177578
0.000177714
0.000177849
0.000177982
0.000178115
0.000178246
0.000178376
0.000178506
0.000178635
0.000178765
0.000178895
0.000179027
0.000179161
0.000179297
0.000179437
0.000179582
0.000179732
0.000179891
0.000180058
0.000180237
0.00018043
0.00018064
0.00018087
0.000181124
0.000181408
0.000181725
0.000182084
0.000182491
0.000182956
0.000183487
0.000184099
0.000184803
0.000185616
0.000186556
0.000187645
0.000188905
0.000190364
0.000192052
0.000194002
0.000196251
0.000198838
0.000201803
0.000205189
0.000209033
0.000213372
0.000218232
0.000223625
0.000229546
0.000235964
0.000242815
0.000250005
0.000257401
3.06542e-05
-7.5171e-07
3.1378e-05
-7.23794e-07
-6.82859e-07
9.18563e-05
-3.02544e-06
9.40439e-05
-2.91144e-06
-2.74407e-06
0.000152692
-6.8836e-06
0.000156399
-6.61846e-06
0.000159883
-6.22772e-06
-5.73756e-06
0.000212912
0.000218236
0.000223219
)
;

boundaryField
{
    inlet
    {
        type            calculated;
        value           nonuniform 0();
    }
    outlet
    {
        type            calculated;
        value           nonuniform 0();
    }
    wall
    {
        type            calculated;
        value           nonuniform 0();
    }
    wedge1
    {
        type            wedge;
        value           nonuniform List<scalar> 
344
(
6.12081e-18
4.62304e-18
4.69171e-17
-8.65666e-18
-1.43575e-17
5.81841e-18
4.79717e-18
4.61124e-17
-8.60617e-18
-1.42695e-17
5.94773e-18
4.47019e-18
4.54476e-17
-8.65815e-18
-1.41285e-17
5.82353e-18
4.88844e-18
4.47562e-17
-8.53139e-18
-1.38432e-17
5.5036e-18
4.35644e-18
4.4034e-17
-8.1013e-18
-1.37128e-17
5.3762e-18
4.07088e-18
4.32811e-17
-8.16064e-18
-1.35986e-17
5.077e-18
3.62921e-18
4.24155e-17
-8.21121e-18
-1.35525e-17
5.18644e-18
3.51604e-18
4.1898e-17
-8.20578e-18
-1.3389e-17
5.08039e-18
3.85433e-18
4.11408e-17
-8.21839e-18
-1.33376e-17
5.23604e-18
3.65665e-18
4.06162e-17
-8.13403e-18
-1.3171e-17
4.9604e-18
3.89178e-18
3.99221e-17
-8.1088e-18
-1.30756e-17
5.0543e-18
3.56755e-18
3.93963e-17
-8.06692e-18
-1.29496e-17
4.96614e-18
3.98536e-18
3.87799e-17
-8.03034e-18
-1.28553e-17
4.79505e-18
3.59767e-18
3.81961e-17
-7.96118e-18
-1.27309e-17
4.50193e-18
3.0804e-18
3.74661e-17
-7.94947e-18
-1.26932e-17
4.65111e-18
2.9672e-18
3.70577e-17
-7.93907e-18
-1.26011e-17
4.48917e-18
3.33406e-18
3.65288e-17
-7.97456e-18
-1.25641e-17
4.72659e-18
3.13424e-18
3.6202e-17
-7.93848e-18
-1.24321e-17
4.47725e-18
3.30445e-18
3.57062e-17
-7.90308e-18
-1.23897e-17
4.52849e-18
2.9947e-18
3.54537e-17
-7.85356e-18
-1.23029e-17
4.4203e-18
3.45488e-18
3.5219e-17
-7.85925e-18
-1.2268e-17
4.43503e-18
3.22095e-18
3.5057e-17
-7.85127e-18
-1.22648e-17
4.2283e-18
2.8163e-18
3.48083e-17
-7.88932e-18
-1.23375e-17
4.42315e-18
2.77358e-18
3.49579e-17
-7.88566e-18
-1.23547e-17
4.38149e-18
3.1354e-18
3.50394e-17
-7.97777e-18
-1.24423e-17
4.66196e-18
2.91075e-18
3.54947e-17
-8.03444e-18
-1.24977e-17
4.45372e-18
3.2581e-18
3.59383e-17
-8.10397e-18
-1.26686e-17
4.74834e-18
3.08987e-18
3.67128e-17
-8.33149e-18
-1.29119e-17
4.87355e-18
3.62611e-18
3.78319e-17
-8.42122e-18
-1.30282e-17
4.79734e-18
3.44554e-18
3.91571e-17
-8.25992e-18
-1.33456e-17
4.92189e-18
3.43948e-18
4.0801e-17
-8.60041e-18
-1.38129e-17
5.0339e-18
3.33049e-18
4.28127e-17
-8.97711e-18
-1.44495e-17
5.69035e-18
3.6415e-18
4.55649e-17
-9.39889e-18
-1.51424e-17
5.97995e-18
4.23206e-18
4.87117e-17
-9.9114e-18
-1.60408e-17
6.57794e-18
4.50974e-18
5.28323e-17
-1.04589e-17
-1.70232e-17
7.06534e-18
5.18419e-18
5.76423e-17
-1.11445e-17
-1.83242e-17
7.9432e-18
5.6405e-18
6.35999e-17
-1.19225e-17
-1.97942e-17
8.83161e-18
6.71712e-18
7.06429e-17
-1.28668e-17
-2.16124e-17
9.77344e-18
7.28471e-18
7.90013e-17
-1.40105e-17
-2.37868e-17
1.06857e-17
7.82667e-18
8.88588e-17
-1.54201e-17
-2.64376e-17
1.22542e-17
8.97098e-18
1.00776e-16
-1.70349e-17
-2.94789e-17
1.3844e-17
1.05112e-17
1.14772e-16
-1.89424e-17
-3.31508e-17
1.60059e-17
1.20665e-17
1.31415e-16
-2.11781e-17
-3.74011e-17
1.81351e-17
1.40469e-17
1.50737e-16
-2.38666e-17
-4.25095e-17
2.10096e-17
1.61679e-17
1.73568e-16
-2.70004e-17
-4.84501e-17
2.40544e-17
1.89029e-17
2.00105e-16
-3.06305e-17
-5.5478e-17
2.76099e-17
2.16196e-17
2.3094e-16
-3.49039e-17
-6.36753e-17
3.17062e-17
2.46395e-17
2.66546e-16
-3.99484e-17
-7.32621e-17
3.66687e-17
2.87009e-17
3.0782e-16
-4.56978e-17
-8.42795e-17
4.20646e-17
3.32581e-17
3.55059e-16
-5.23444e-17
-9.70554e-17
4.8695e-17
3.86453e-17
4.0917e-16
-5.99314e-17
-1.11653e-16
5.58162e-17
4.45439e-17
4.70323e-16
-6.85545e-17
-1.28339e-16
6.4174e-17
5.13424e-17
5.39247e-16
-7.83949e-17
-1.47257e-16
7.31506e-17
5.88743e-17
6.16064e-16
-8.91217e-17
-1.68385e-16
8.29709e-17
6.68204e-17
7.00773e-16
-1.0114e-16
-1.92024e-16
9.37899e-17
7.56813e-17
7.93078e-16
-1.14542e-16
-2.18061e-16
1.05275e-16
8.49375e-17
8.92099e-16
-1.29093e-16
-2.46421e-16
1.17783e-16
9.5382e-17
9.96819e-16
-1.44423e-16
-2.76588e-16
1.30345e-16
1.05892e-16
1.10491e-15
-1.60423e-16
-3.08239e-16
1.43116e-16
1.16619e-16
1.2139e-15
-1.76667e-16
-3.40505e-16
1.55417e-16
1.27027e-16
1.32011e-15
-1.92669e-16
-3.7251e-16
1.67029e-16
1.36766e-16
1.41973e-15
-2.07852e-16
-4.03013e-16
1.77133e-16
1.45608e-16
1.50849e-15
-2.21554e-16
-4.3069e-16
1.8542e-16
1.5293e-16
1.58321e-15
-2.3325e-16
-4.54451e-16
1.91444e-16
1.58616e-16
1.64469e-15
-2.42908e-16
-4.74367e-16
1.94265e-16
1.61672e-16
1.67484e-15
-2.48133e-16
-4.85008e-16
1.96332e-16
1.63977e-16
1.69312e-15
-2.51644e-16
1.91513e-16
1.60375e-16
1.64761e-15
-2.45485e-16
1.82835e-16
1.53369e-16
1.56802e-15
-2.33915e-16
1.46032e-15
-2.18114e-16
)
;
    }
    wedge2
    {
        type            wedge;
        value           nonuniform List<scalar> 
344
(
5.47563e-18
4.93433e-18
4.90592e-17
-4.75544e-18
-1.05699e-17
5.60978e-18
4.626e-18
4.84627e-17
-4.60914e-18
-1.02899e-17
5.31411e-18
4.81102e-18
4.77442e-17
-4.36344e-18
-1.00676e-17
5.2753e-18
4.26202e-18
4.70727e-17
-4.30235e-18
-9.99493e-18
5.43381e-18
4.66071e-18
4.64509e-17
-4.53976e-18
-9.77238e-18
5.40252e-18
4.81481e-18
4.58801e-17
-4.2949e-18
-9.53887e-18
5.54554e-18
5.1271e-18
4.54424e-17
-4.06146e-18
-9.24296e-18
5.28284e-18
5.11036e-18
4.468e-17
-3.88735e-18
-9.07046e-18
5.23869e-18
4.65035e-18
4.41811e-17
-3.69866e-18
-8.79207e-18
4.93612e-18
4.72365e-18
4.34762e-17
-3.61067e-18
-8.63599e-18
5.06868e-18
4.37181e-18
4.29705e-17
-3.46763e-18
-8.41666e-18
4.83578e-18
4.57906e-18
4.23299e-17
-3.34617e-18
-8.2366e-18
4.78998e-18
4.05066e-18
4.18176e-17
-3.2248e-18
-8.03475e-18
4.83252e-18
4.33085e-18
4.13165e-17
-3.14219e-18
-7.87474e-18
5.00358e-18
4.74567e-18
4.10119e-17
-3.0093e-18
-7.64118e-18
4.73988e-18
4.76462e-18
4.04455e-17
-2.88357e-18
-7.47749e-18
4.79618e-18
4.30601e-18
4.00684e-17
-2.72173e-18
-7.2771e-18
4.46321e-18
4.42831e-18
3.95716e-17
-2.64281e-18
-7.1932e-18
4.6296e-18
4.1822e-18
3.93401e-17
-2.57712e-18
-7.04478e-18
4.50915e-18
4.43903e-18
3.89797e-17
-2.54163e-18
-6.97072e-18
4.56605e-18
3.92392e-18
3.87373e-17
-2.46946e-18
-6.88017e-18
4.51936e-18
4.12669e-18
3.85825e-17
-2.43314e-18
-6.79957e-18
4.71782e-18
4.51786e-18
3.87049e-17
-2.37783e-18
-6.69299e-18
4.54486e-18
4.5888e-18
3.86554e-17
-2.39649e-18
-6.69979e-18
4.63797e-18
4.24403e-18
3.89422e-17
-2.35505e-18
-6.70601e-18
4.44941e-18
4.56027e-18
3.91738e-17
-2.39167e-18
-6.82662e-18
4.79512e-18
4.28912e-18
3.97948e-17
-2.46933e-18
-6.92907e-18
4.69276e-18
4.63834e-18
4.05332e-17
-2.4489e-18
-7.07431e-18
4.82991e-18
4.26194e-18
4.14583e-17
-2.60945e-18
-7.48273e-18
5.23326e-18
4.69887e-18
4.28064e-17
-3.16232e-18
-7.85121e-18
5.53012e-18
5.03214e-18
4.45807e-17
-3.28032e-18
-8.26045e-18
5.94776e-18
5.55045e-18
4.68678e-17
-3.4858e-18
-8.72569e-18
5.93911e-18
5.81956e-18
4.94548e-17
-3.77935e-18
-9.4006e-18
6.44364e-18
5.7803e-18
5.28743e-17
-4.14823e-18
-1.01843e-17
6.81214e-18
6.34989e-18
5.67666e-17
-4.6742e-18
-1.12548e-17
7.49267e-18
6.50671e-18
6.16702e-17
-5.28948e-18
-1.24439e-17
8.01848e-18
7.26697e-18
6.74244e-17
-6.08253e-18
-1.39787e-17
8.80239e-18
7.40821e-18
7.44359e-17
-7.02557e-18
-1.57715e-17
9.85609e-18
8.42529e-18
8.28732e-17
-8.13732e-18
-1.792e-17
1.13158e-17
9.76963e-18
9.30118e-17
-9.41834e-18
-2.04269e-17
1.25577e-17
1.09572e-17
1.04818e-16
-1.09988e-17
-2.35211e-17
1.4287e-17
1.19752e-17
1.18876e-16
-1.28859e-17
-2.71265e-17
1.60298e-17
1.36311e-17
1.35298e-16
-1.51334e-17
-3.14834e-17
1.84891e-17
1.52496e-17
1.54828e-16
-1.77321e-17
-3.65262e-17
2.09843e-17
1.75129e-17
1.77497e-16
-2.08092e-17
-4.25228e-17
2.42076e-17
1.97665e-17
2.04065e-16
-2.44608e-17
-4.94889e-17
2.79437e-17
2.29402e-17
2.34983e-16
-2.86954e-17
-5.76427e-17
3.22942e-17
2.67597e-17
2.70903e-16
-3.35448e-17
-6.70909e-17
3.70761e-17
3.06379e-17
3.12109e-16
-3.92609e-17
-7.81438e-17
4.28586e-17
3.51423e-17
3.5951e-16
-4.58361e-17
-9.08384e-17
4.89864e-17
4.01883e-17
4.13376e-16
-5.34109e-17
-1.05486e-16
5.63261e-17
4.60697e-17
4.74615e-16
-6.20635e-17
-1.22173e-16
6.4229e-17
5.26115e-17
5.43377e-16
-7.17637e-17
-1.41078e-16
7.3372e-17
5.99232e-17
6.20085e-16
-8.29476e-17
-1.62467e-16
8.35238e-17
6.84076e-17
7.04788e-16
-9.52538e-17
-1.86161e-16
9.44428e-17
7.74756e-17
7.97144e-16
-1.08532e-16
-2.12224e-16
1.06264e-16
8.74961e-17
8.96472e-16
-1.2283e-16
-2.40429e-16
1.18303e-16
9.74288e-17
1.00112e-15
-1.38175e-16
-2.70676e-16
1.31038e-16
1.07975e-16
1.10937e-15
-1.54126e-16
-3.02257e-16
1.43668e-16
1.18512e-16
1.21826e-15
-1.70352e-16
-3.34594e-16
1.56056e-16
1.28877e-16
1.32457e-15
-1.86346e-16
-3.66556e-16
1.67472e-16
1.38713e-16
1.42419e-15
-2.0153e-16
-3.97081e-16
1.77711e-16
1.47424e-16
1.51303e-15
-2.1531e-16
-4.248e-16
1.86085e-16
1.54968e-16
1.58775e-15
-2.27163e-16
-4.48628e-16
1.92201e-16
1.6109e-16
1.64928e-15
-2.36913e-16
-4.68529e-16
1.9508e-16
1.64264e-16
1.67933e-15
-2.42163e-16
-4.79317e-16
1.97255e-16
1.66528e-16
1.69779e-15
-2.45513e-16
1.92252e-16
1.62577e-16
1.65249e-15
-2.3938e-16
1.83627e-16
1.55486e-16
1.5728e-15
-2.28076e-16
1.46504e-15
-2.12395e-16
)
;
    }
    axis
    {
        type            empty;
        value           nonuniform 0();
    }
    procBoundary2to1
    {
        type            processor;
        value           nonuniform List<scalar> 5(-1.98774e-05 -5.95326e-05 -9.88504e-05 -0.000137582 -0.00017545);
    }
    procBoundary2to3
    {
        type            processor;
        value           nonuniform List<scalar> 5(3.20609e-05 9.61051e-05 2.5338e-06 0.000163087 0.000227774);
    }
    procBoundary2to8
    {
        type            processor;
        value           nonuniform List<scalar> 
71
(
-5.04437e-07
-4.97005e-07
-4.89681e-07
-4.82469e-07
-4.7537e-07
-4.6839e-07
-4.61537e-07
-4.54821e-07
-4.48252e-07
-4.41849e-07
-4.3563e-07
-4.29621e-07
-4.23851e-07
-4.18359e-07
-4.13189e-07
-4.08395e-07
-4.04042e-07
-4.00209e-07
-3.96987e-07
-3.94487e-07
-3.9284e-07
-3.922e-07
-3.92751e-07
-3.94708e-07
-3.98328e-07
-4.0391e-07
-4.11808e-07
-4.22439e-07
-4.36292e-07
-4.53941e-07
-4.76062e-07
-5.03443e-07
-5.37011e-07
-5.77849e-07
-6.27224e-07
-6.86613e-07
-7.57736e-07
-8.42598e-07
-9.4352e-07
-1.06319e-06
-1.20472e-06
-1.37166e-06
-1.56809e-06
-1.79865e-06
-2.06859e-06
-2.38375e-06
-2.75063e-06
-3.17633e-06
-3.66844e-06
-4.23491e-06
-4.88376e-06
-5.62267e-06
-6.45842e-06
-7.396e-06
-8.43756e-06
-9.58101e-06
-1.08182e-05
-1.21333e-05
-1.35e-05
-1.48815e-05
-1.62251e-05
-1.74701e-05
-1.85378e-05
-1.93518e-05
-1.98311e-05
-1.99101e-05
0.000264842
-1.24374e-05
-1.1943e-05
-1.12101e-05
-1.02931e-05
)
;
    }
}


// ************************************************************************* //
