/*--------------------------------*- C++ -*----------------------------------*\
  =========                 |
  \\      /  F ield         | OpenFOAM: The Open Source CFD Toolbox
   \\    /   O peration     | Website:  https://openfoam.org
    \\  /    A nd           | Version:  7
     \\/     M anipulation  |
\*---------------------------------------------------------------------------*/
FoamFile
{
    version     2.0;
    format      ascii;
    class       volVectorField;
    location    "30";
    object      U;
}
// * * * * * * * * * * * * * * * * * * * * * * * * * * * * * * * * * * * * * //

dimensions      [0 1 -1 0 0 0 0];

internalField   nonuniform List<vector> 
5600
(
(-0.00375812 0.00127615 -1.44973e-20)
(-0.0140973 0.00190315 -2.20829e-20)
(-0.0265483 0.00168928 1.14198e-21)
(-0.034584 0.00102595 1.97819e-20)
(-0.03797 0.000146325 1.0208e-21)
(-0.035879 -0.000834482 1.50245e-20)
(-0.0285506 -0.00184261 -1.46185e-20)
(-0.0157845 -0.00282375 -1.90656e-21)
(0.000412702 -0.00359866 -2.96762e-20)
(0.0220989 -0.00427047 -8.61968e-21)
(-0.00390454 0.00379813 5.41871e-20)
(-0.014103 0.0056546 -2.54434e-20)
(-0.0260938 0.00500839 8.6574e-20)
(-0.0335138 0.0030229 -2.24161e-20)
(-0.0361562 0.000394936 -1.35064e-20)
(-0.0332277 -0.00253243 1.77444e-21)
(-0.0249884 -0.00553893 3.18806e-21)
(-0.01121 -0.00846018 2.17295e-20)
(0.00594976 -0.0107764 4.13505e-20)
(0.0290958 -0.0127496 7.62162e-21)
(-0.00418987 0.00622988 -1.67261e-20)
(-0.0141011 0.00924273 3.84446e-20)
(-0.0251713 0.00815053 -9.98453e-20)
(-0.0313615 0.00485629 -3.6189e-20)
(-0.0325198 0.000512689 1.13258e-19)
(-0.027921 -0.00431638 -4.17531e-20)
(-0.0178652 -0.0092698 -8.30253e-20)
(-0.00207358 -0.0140673 -2.02269e-20)
(0.0169975 -0.0178895 -3.65685e-20)
(0.0430475 -0.0210398 2.81395e-20)
(-0.00459931 0.0085138 5.91728e-21)
(-0.0140656 0.0125628 -6.6692e-20)
(-0.0237537 0.0110022 4.45305e-20)
(-0.028103 0.00642154 2.23519e-20)
(-0.0270433 0.000416626 -2.13517e-19)
(-0.0199509 -0.00624004 1.66914e-20)
(-0.00718477 -0.01306 1.41046e-19)
(0.0116023 -0.0196251 1.20875e-19)
(0.0335056 -0.0248853 9.83982e-20)
(0.0638652 -0.0290063 8.02967e-20)
(-0.0051111 0.010596 -1.03942e-20)
(-0.0139577 0.0155164 -2.01725e-20)
(-0.0218005 0.0134567 8.65406e-20)
(-0.0237021 0.00762082 -1.38092e-20)
(-0.0197001 3.0328e-05 1.01865e-20)
(-0.00930652 -0.00834995 5.79465e-20)
(0.00704586 -0.0169154 2.83793e-20)
(0.0297873 -0.0251115 -1.79991e-19)
(0.0553989 -0.0317125 -3.35302e-20)
(0.0914085 -0.036507 -1.59402e-19)
(-0.00569706 0.0124274 -6.23786e-21)
(-0.0137267 0.0180132 1.38546e-19)
(-0.0192582 0.0154165 -1.3322e-19)
(-0.0181106 0.00836569 2.67339e-20)
(-0.0104538 -0.00071337 -1.27026e-19)
(0.00403128 -0.010683 2.08948e-19)
(0.0248141 -0.0208325 -5.88007e-20)
(0.0524313 -0.0304915 9.24053e-20)
(0.0825794 -0.0383146 -4.39877e-20)
(0.125482 -0.0433904 -9.14674e-20)
(-0.00632326 0.0139654 6.65115e-20)
(-0.0133103 0.0199736 -1.36427e-19)
(-0.0160605 0.0167959 1.76884e-20)
(-0.0112677 0.00857985 1.46663e-19)
(0.000741621 -0.00186968 1.19794e-19)
(0.0200856 -0.0132654 -9.08457e-20)
(0.0461084 -0.0248078 1.38272e-19)
(0.079469 -0.035707 8.4861e-21)
(0.114919 -0.0446223 1.52331e-19)
(0.165825 -0.0494946 6.22595e-20)
(-0.00695077 0.0151741 -1.42814e-19)
(-0.0126362 0.0213301 1.09443e-19)
(-0.0121285 0.0175234 -3.99149e-20)
(-0.00310054 0.00820189 -4.15386e-20)
(0.0139419 -0.00347886 -9.40855e-20)
(0.0388838 -0.0161082 -1.88404e-19)
(0.0709148 -0.0288189 1.7796e-20)
(0.110819 -0.040688 -1.69167e-20)
(0.152259 -0.0505516 -1.12991e-19)
(0.2121 -0.0546483 4.8156e-20)
(-0.0075365 0.0160253 7.85788e-20)
(-0.0116222 0.0220292 -2.70174e-19)
(-0.00737208 0.017544 3.16839e-19)
(0.00647521 0.00718798 -6.83952e-20)
(0.0292121 -0.00556323 1.78236e-19)
(0.060457 -0.0192043 1.4192e-19)
(0.099214 -0.0328235 -2.60208e-19)
(0.146377 -0.0453472 3.01593e-19)
(0.194405 -0.0560011 3.4357e-20)
(0.26388 -0.0586739 1.44094e-19)
(-0.00803392 0.0164987 1.51296e-19)
(-0.0101785 0.0220327 4.87161e-19)
(-0.00169018 0.0168209 -3.37805e-19)
(0.0175549 0.00551428 -5.51625e-22)
(0.0466258 -0.00812438 7.35137e-20)
(0.084839 -0.0225257 1.23968e-19)
(0.13098 -0.0367585 1.115e-19)
(0.186013 -0.0495768 -4.76456e-19)
(0.241127 -0.0608466 -1.68301e-19)
(0.320635 -0.0613926 4.92698e-21)
(-0.00839298 0.0165805 -2.29987e-19)
(-0.00820845 0.0213204 -1.75278e-19)
(0.00502734 0.0153377 2.27433e-19)
(0.0302432 0.00317942 1.80925e-19)
(0.066263 -0.0111403 -1.5202e-19)
(0.112063 -0.0260211 1.80305e-19)
(0.166174 -0.0405376 -5.60052e-20)
(0.229561 -0.0532489 -5.38075e-20)
(0.292146 -0.0649377 -9.75013e-20)
(0.381724 -0.0626307 -1.43629e-20)
(-0.00856224 0.0162682 -3.42581e-20)
(-0.00560832 0.0198863 -4.96681e-19)
(0.0128979 0.013099 -1.13823e-19)
(0.0446523 0.000206506 -1.69869e-19)
(0.0882075 -0.0145632 8.67953e-20)
(0.142157 -0.0296138 -6.19287e-20)
(0.204741 -0.0440502 -2.50825e-19)
(0.276815 -0.0562173 2.1069e-19)
(0.347131 -0.0680949 2.38028e-19)
(0.446378 -0.0622288 -1.41872e-19)
(-0.00849103 0.0155679 3.61019e-20)
(-0.00227097 0.0177406 7.6773e-19)
(0.0220453 0.0101328 -1.84391e-19)
(0.0608987 -0.00335527 2.83708e-19)
(0.112543 -0.0183174 9.7568e-20)
(0.17514 -0.0332001 1.80558e-19)
(0.2466 -0.0471612 -5.24257e-20)
(0.327517 -0.0583232 -1.44887e-19)
(0.405685 -0.0701102 -1.47454e-19)
(0.513702 -0.0600526 1.91105e-19)
(-0.00812665 0.0144903 6.40005e-19)
(0.00191219 0.0149134 -7.69531e-19)
(0.0325964 0.00649008 -2.23963e-19)
(0.0791 -0.00742957 -2.61856e-21)
(0.139347 -0.0222989 1.28943e-19)
(0.211013 -0.0366498 -3.71965e-20)
(0.291632 -0.0497124 4.83764e-19)
(0.381346 -0.0594023 4.49194e-19)
(0.467333 -0.0707504 2.16415e-19)
(0.582678 -0.0560087 1.6329e-19)
(-0.00741648 0.0130539 -7.58221e-20)
(0.00705065 0.0114518 1.27505e-19)
(0.0446778 0.00224553 5.91557e-19)
(0.0993701 -0.0119126 -1.0603e-19)
(0.168684 -0.0263749 -5.48642e-19)
(0.249748 -0.0398068 -5.46257e-19)
(0.339673 -0.0515266 -1.63988e-20)
(0.437918 -0.0592949 -5.97478e-19)
(0.531517 -0.0697682 -2.07554e-19)
(0.65218 -0.0500699 -3.54086e-19)
(-0.00630869 0.0112843 -4.98622e-19)
(0.0132528 0.00741908 2.53097e-19)
(0.0584126 -0.002503 -3.72053e-19)
(0.121814 -0.0166736 -2.99195e-19)
(0.200602 -0.0303856 6.81972e-19)
(0.291285 -0.0424926 4.09101e-20)
(0.390501 -0.0524131 -2.89833e-19)
(0.496777 -0.0578571 1.07951e-19)
(0.597585 -0.0669157 1.27038e-19)
(0.721005 -0.0423028 1.33344e-19)
(-0.0047526 0.00921337 -9.68168e-20)
(0.0206237 0.00289472 -1.83068e-19)
(0.073917 -0.00763523 -1.38168e-19)
(0.14652 -0.0215561 7.79632e-20)
(0.235116 -0.0341467 -7.94332e-19)
(0.335516 -0.0445107 1.316e-19)
(0.443823 -0.0521771 1.7581e-19)
(0.557397 -0.0549717 3.84591e-19)
(0.664782 -0.0619472 2.03806e-20)
(0.787867 -0.0328361 8.07855e-20)
(-0.00269909 0.00687869 1.84537e-19)
(0.0292626 -0.0020266 1.86235e-19)
(0.091295 -0.0130098 3.49846e-19)
(0.173557 -0.0263806 1.35298e-19)
(0.272206 -0.0374537 5.20645e-19)
(0.382279 -0.0456538 -1.90705e-19)
(0.499271 -0.0506328 -2.20466e-19)
(0.6192 -0.0505586 -1.11411e-20)
(0.732254 -0.0545928 9.84578e-20)
(0.851374 -0.021794 -1.59839e-19)
(-0.000101151 0.00432312 2.18354e-19)
(0.039261 -0.00723594 4.93574e-19)
(0.110635 -0.0184663 2.88993e-19)
(0.202963 -0.0309478 -2.29713e-20)
(0.311807 -0.0400879 3.47859e-19)
(0.431345 -0.0457116 6.99653e-19)
(0.5564 -0.0476208 2.59845e-19)
(0.681587 -0.0445786 -2.52176e-19)
(0.79913 -0.0445843 -3.88192e-19)
(0.910383 -0.00978947 -1.60979e-19)
(0.00308559 0.00159443 1.88738e-19)
(0.0506997 -0.0126114 -5.42924e-19)
(0.132003 -0.0238277 -4.44912e-19)
(0.234741 -0.035043 -1.95898e-19)
(0.353798 -0.0418228 -5.57243e-19)
(0.482417 -0.0444812 -1.75856e-19)
(0.614679 -0.0430219 -2.34475e-19)
(0.743937 -0.0370217 9.32394e-20)
(0.864606 -0.0319791 1.05339e-20)
(0.965329 0.000293869 -4.23567e-20)
(0.00690219 -0.00125492 -2.71722e-19)
(0.0636467 -0.0180194 1.68686e-19)
(0.155443 -0.0289033 3.41803e-19)
(0.268854 -0.0384412 3.46533e-19)
(0.397999 -0.0424319 5.2241e-19)
(0.53512 -0.0417749 1.77102e-19)
(0.673498 -0.0367572 -2.55441e-19)
(0.805498 -0.0279014 -9.44279e-20)
(0.927542 -0.0177541 4.99778e-19)
(1.02002 0.00435801 4.83848e-19)
(0.0113857 -0.00416813 -1.28834e-19)
(0.0781542 -0.0233165 -8.89716e-20)
(0.180964 -0.0334925 -7.89906e-19)
(0.305216 -0.0409133 -5.53481e-20)
(0.44417 -0.0416967 -1.00322e-18)
(0.589013 -0.0374284 -5.6536e-19)
(0.732192 -0.0287768 1.10872e-19)
(0.865369 -0.0172769 3.229e-20)
(0.985758 -0.00358274 -2.95844e-19)
(1.07466 0.00823899 -3.31481e-19)
(0.0165682 -0.00708424 3.17735e-19)
(0.0942565 -0.0283508 -4.79429e-20)
(0.208547 -0.0373887 2.81112e-20)
(0.343692 -0.0422326 -1.62797e-19)
(0.492007 -0.0394154 9.04867e-19)
(0.643595 -0.0313092 1.4642e-19)
(0.790084 -0.019061 -1.66109e-19)
(0.922741 -0.00515095 1.48845e-21)
(1.03884 0.0108761 -7.09729e-19)
(1.12301 0.017402 2.95986e-19)
(0.022476 -0.00993845 -5.73496e-19)
(0.111967 -0.0329642 1.31637e-19)
(0.238132 -0.0403834 1.82748e-19)
(0.384096 -0.0421813 -7.33121e-20)
(0.54115 -0.0354115 2.25392e-19)
(0.698324 -0.0233261 4.99447e-19)
(0.846511 -0.00763116 1.18818e-19)
(0.976918 0.00840776 3.12486e-20)
(1.08676 0.0257862 4.88842e-19)
(1.16453 0.0299118 -4.75725e-19)
(0.0291286 -0.0126624 7.26362e-19)
(0.131277 -0.0369947 1.69902e-19)
(0.269622 -0.0422711 6.06222e-19)
(0.426189 -0.0405582 -1.15591e-19)
(0.591188 -0.0295419 -6.81415e-19)
(0.752633 -0.0134363 -6.92506e-19)
(0.90085 0.005442 3.15954e-19)
(1.02733 0.0232363 2.40147e-19)
(1.1295 0.0410933 -2.9544e-20)
(1.19964 0.0440049 9.90002e-20)
(0.0365373 -0.0151846 1.69506e-19)
(0.152151 -0.0402784 -6.67111e-19)
(0.302879 -0.0428541 -8.43178e-19)
(0.469684 -0.0371845 1.56177e-19)
(0.641669 -0.0217031 6.01038e-19)
(0.805952 -0.0016482 6.61258e-19)
(0.952533 0.0200401 -3.94762e-19)
(1.07356 0.0391197 1.53718e-19)
(1.16702 0.0566945 1.88979e-19)
(1.22876 0.0587822 4.5161e-19)
(0.0447047 -0.0174309 -8.36991e-19)
(0.17453 -0.0426526 3.00419e-19)
(0.337726 -0.0419469 3.48612e-19)
(0.51425 -0.0319103 -4.63098e-20)
(0.692113 -0.0118351 -5.00743e-19)
(0.85772 0.0119803 -5.77042e-19)
(1.00106 0.0360052 1.75967e-20)
(1.1153 0.055823 -4.5985e-19)
(1.19939 0.0724592 -2.80581e-19)
(1.25234 0.0737033 -7.55367e-20)
(0.0536228 -0.0193255 -6.30953e-20)
(0.198325 -0.0439581 -4.6744e-19)
(0.373946 -0.0393815 3.23547e-19)
(0.559515 -0.0246191 1.02554e-19)
(0.742024 7.61331e-05 1.6279e-19)
(0.907412 0.0273455 -2.0093e-19)
(1.04603 0.0531498 5.26349e-19)
(1.15239 0.0731098 -1.50465e-19)
(1.22676 0.0882411 -1.02303e-19)
(1.27091 0.08842 -1.96497e-20)
(0.0632729 -0.0207914 3.84996e-19)
(0.22342 -0.0440429 8.0192e-19)
(0.411284 -0.0350109 -4.93747e-19)
(0.605081 -0.0152314 -2.47238e-19)
(0.790906 0.0139993 -1.0297e-19)
(0.954552 0.0443051 6.75591e-19)
(1.08713 0.0712673 2.1984e-19)
(1.1848 0.0907547 1.76978e-19)
(1.24939 0.103896 3.2012e-20)
(1.28501 0.102718 -5.12286e-20)
(0.073624 -0.0217518 -4.37766e-19)
(0.249671 -0.0427647 3.71882e-19)
(0.449454 -0.0287141 6.952e-19)
(0.650526 -0.00370742 2.14296e-19)
(0.838279 0.02986 3.0095e-19)
(0.998724 0.0626856 -3.55732e-19)
(1.12413 0.0901431 -3.53233e-19)
(1.21257 0.108552 3.98854e-19)
(1.26756 0.119297 2.58466e-19)
(1.29517 0.116475 -6.54903e-20)
(0.0846327 -0.0221315 1.32213e-19)
(0.276906 -0.0399945 -4.29259e-19)
(0.488141 -0.0203986 -3.64862e-20)
(0.69542 0.00995214 2.9925e-20)
(0.883689 0.0475446 -1.32243e-19)
(1.03958 0.0822915 -1.35924e-19)
(1.15691 0.109564 -9.26562e-20)
(1.23584 0.126322 -2.16008e-19)
(1.28161 0.134338 -2.15308e-20)
(1.30188 0.129632 1.64262e-19)
(0.0962425 -0.0218578 2.98859e-19)
(0.304929 -0.0356196 7.34366e-20)
(0.527006 -0.0100037 -4.66481e-19)
(0.739332 0.0257066 1.45375e-19)
(0.926719 0.0669058 1.25728e-19)
(1.07686 0.102913 1.26458e-19)
(1.18544 0.129324 2.56933e-19)
(1.25483 0.14391 -2.86895e-19)
(1.29193 0.148937 -1.42564e-20)
(1.30561 0.142168 -1.19824e-19)
(0.108384 -0.0208625 -1.73168e-19)
(0.333519 -0.0295466 -2.07005e-19)
(0.565697 0.00249751 3.45995e-19)
(0.781841 0.0434767 1.1433e-19)
(0.967002 0.0877685 -2.93844e-19)
(1.11036 0.124335 -3.56201e-20)
(1.20976 0.149232 -2.18622e-20)
(1.26979 0.161188 1.85746e-19)
(1.29886 0.163037 7.75308e-20)
(1.30676 0.15409 -3.60985e-20)
(0.120973 -0.0190833 -1.52136e-19)
(0.362432 -0.0217043 2.55627e-19)
(0.603848 0.0170972 -3.61394e-20)
(0.822547 0.0631478 -2.86918e-19)
(1.00422 0.109936 2.75698e-19)
(1.13995 0.14634 -1.71494e-19)
(1.22995 0.169113 -1.4589e-19)
(1.28098 0.178051 -1.12212e-20)
(1.30278 0.176597 -1.03837e-19)
(1.30569 0.165416 -1.43199e-20)
(0.133917 -0.0164658 4.67854e-20)
(0.391412 -0.0120464 2.68051e-20)
(0.641094 0.0337523 -4.78948e-20)
(0.861075 0.0845727 4.07933e-21)
(1.03813 0.133196 -5.28098e-21)
(1.16558 0.168719 -2.23006e-19)
(1.24618 0.188812 6.27042e-20)
(1.2887 0.194418 3.45059e-20)
(1.30401 0.189592 5.28999e-20)
(1.30271 0.176171 1.02761e-19)
(0.147107 -0.0129648 -1.55469e-19)
(0.420185 -0.000553045 -1.12775e-19)
(0.677074 0.0523851 -1.51063e-19)
(0.897086 0.107577 2.28636e-19)
(1.06851 0.157328 1.0163e-20)
(1.18726 0.19127 1.90378e-19)
(1.25862 0.208189 1.31789e-20)
(1.29325 0.210221 -1.14953e-20)
(1.30287 0.202008 2.05618e-20)
(1.2981 0.186379 -2.1033e-20)
(0.160427 -0.00854586 1.81261e-19)
(0.448471 0.0127671 -1.81392e-20)
(0.71144 0.0728845 -7.4427e-20)
(0.93028 0.131961 -2.82637e-19)
(1.09523 0.182104 7.91929e-20)
(1.20502 0.213802 -5.64949e-21)
(1.26748 0.227124 -1.03653e-19)
(1.29491 0.225408 2.49637e-20)
(1.29963 0.213837 -7.07144e-20)
(1.29207 0.196063 1.6104e-20)
(0.17375 -0.00318716 -7.71846e-20)
(0.475984 0.027876 -6.87286e-20)
(0.743858 0.0951079 3.44639e-20)
(0.960398 0.157509 3.47968e-20)
(1.11819 0.207298 -1.77471e-19)
(1.21896 0.236138 6.06484e-20)
(1.27298 0.245511 7.17527e-20)
(1.29395 0.23994 2.87002e-20)
(1.29456 0.225074 2.85285e-20)
(1.28482 0.20524 -2.32998e-20)
(0.186944 0.00311964 -4.05135e-21)
(0.50244 0.0447062 7.19922e-20)
(0.774021 0.118884 2.83451e-20)
(0.987229 0.183987 2.6826e-20)
(1.13736 0.232687 -8.1835e-22)
(1.22921 0.258112 7.97703e-21)
(1.27536 0.26326 1.60328e-20)
(1.29063 0.253781 1.50421e-20)
(1.28786 0.235715 -9.04479e-21)
(1.2765 0.213918 -1.13544e-21)
(0.199868 0.0103682 3.34867e-20)
(0.52756 0.0631605 -7.90644e-21)
(0.801649 0.144016 -6.68068e-22)
(1.0106 0.211154 -3.13482e-20)
(1.15273 0.258051 1.97749e-21)
(1.23592 0.279574 -2.02884e-20)
(1.27484 0.280289 -4.65878e-21)
(1.28518 0.266904 -2.06674e-20)
(1.27973 0.245756 -3.29566e-21)
(1.26724 0.222101 2.58686e-21)
(0.212383 0.0185367 2.79071e-20)
(0.551075 0.0831132 -5.08884e-21)
(0.826493 0.170285 -1.5159e-21)
(1.0304 0.238762 -2.13823e-20)
(1.16434 0.28318 -3.62444e-21)
(1.23925 0.300384 -1.26479e-20)
(1.27164 0.296528 -8.65782e-21)
(1.27782 0.279282 -1.69531e-20)
(1.27033 0.25519 -9.73998e-23)
(1.25716 0.229788 1.12113e-21)
(0.224345 0.0275875 8.22419e-21)
(0.572734 0.104412 7.35365e-20)
(0.84834 0.197454 1.51477e-20)
(1.04654 0.266559 2.14373e-20)
(1.17227 0.307873 1.31823e-20)
(1.23938 0.320415 4.62238e-21)
(1.26598 0.311914 8.94783e-21)
(1.26874 0.290891 1.00433e-20)
(1.2598 0.264004 -3.50408e-21)
(1.24634 0.236968 -2.55448e-22)
(0.235613 0.0374668 -6.44592e-20)
(0.592301 0.126878 -5.8753e-20)
(0.867014 0.225268 1.05421e-20)
(1.05898 0.294293 4.16438e-20)
(1.17662 0.331937 -1.16764e-19)
(1.23651 0.339551 4.02297e-20)
(1.25808 0.32639 3.99538e-20)
(1.25811 0.301707 7.08736e-21)
(1.24828 0.272186 8.84407e-21)
(1.23487 0.243627 3.65773e-23)
(0.246052 0.0481053 1.71963e-19)
(0.609566 0.150311 -3.58269e-20)
(0.882376 0.253465 -8.7055e-20)
(1.06772 0.321717 -1.64015e-19)
(1.17751 0.355192 5.12896e-20)
(1.23083 0.357684 -6.55014e-21)
(1.24811 0.339903 -7.27141e-20)
(1.2461 0.311706 4.81524e-21)
(1.23586 0.279717 -9.70629e-21)
(1.2228 0.249746 8.1302e-22)
(0.255533 0.0594178 -1.62597e-19)
(0.624343 0.174491 -1.3025e-19)
(0.894326 0.281774 -5.8079e-20)
(1.07279 0.348587 1.77899e-19)
(1.1751 0.377466 -1.84548e-20)
(1.22253 0.374718 9.14139e-20)
(1.23628 0.352404 -5.35572e-21)
(1.23284 0.32086 1.55324e-21)
(1.22264 0.286577 6.97361e-21)
(1.21019 0.255303 3.18805e-21)
(0.263933 0.0713052 5.10715e-20)
(0.636477 0.19918 7.94141e-20)
(0.902804 0.309919 -3.03139e-20)
(1.07427 0.374669 -6.32491e-20)
(1.16955 0.398601 -1.07312e-20)
(1.2118 0.390561 -7.80789e-20)
(1.22275 0.363847 1.29735e-20)
(1.21847 0.329144 5.27568e-21)
(1.2087 0.292748 2.30156e-21)
(1.19708 0.260273 -4.20255e-20)
(0.271143 0.0836547 -7.25869e-20)
(0.645843 0.224128 1.62158e-19)
(0.907786 0.337625 -4.29783e-21)
(1.07225 0.399735 -1.11555e-19)
(1.16103 0.418448 9.47972e-20)
(1.19884 0.405132 -5.30888e-20)
(1.20769 0.374189 -2.01167e-20)
(1.20309 0.336528 -1.10263e-20)
(1.19412 0.298207 2.53159e-20)
(1.18356 0.264621 5.76114e-21)
(0.277068 0.0963416 -9.88426e-20)
(0.652348 0.249075 -1.4996e-19)
(0.909283 0.364618 2.42224e-19)
(1.06686 0.42357 7.09273e-20)
(1.14972 0.436869 -1.28706e-19)
(1.18384 0.418354 1.38307e-20)
(1.19124 0.383388 1.04876e-20)
(1.18682 0.342982 -3.38123e-20)
(1.17896 0.302918 -8.08718e-21)
(1.16967 0.268332 2.22597e-22)
(0.281624 0.109231 2.13409e-19)
(0.655932 0.273755 4.84698e-20)
(0.907345 0.390632 -3.07069e-19)
(1.05823 0.44597 7.86243e-20)
(1.13582 0.453738 5.56239e-20)
(1.16698 0.430157 3.08552e-20)
(1.17357 0.391403 5.31453e-21)
(1.16977 0.348479 2.49006e-20)
(1.16327 0.306855 3.66673e-20)
(1.15544 0.271372 5.89671e-20)
(0.284747 0.12218 7.89556e-20)
(0.65657 0.297896 -2.15009e-19)
(0.90205 0.415407 1.93243e-20)
(1.04654 0.466743 -2.25637e-20)
(1.11953 0.468937 -1.09924e-20)
(1.14845 0.440478 -4.78593e-21)
(1.15479 0.398197 8.46025e-21)
(1.15201 0.352991 5.38818e-20)
(1.14713 0.309988 5.35244e-20)
(1.14093 0.273709 -1.10993e-19)
(0.286389 0.135038 -2.19834e-19)
(0.65427 0.321233 1.52686e-19)
(0.89351 0.438693 3.39886e-19)
(1.03197 0.48571 5.3749e-20)
(1.10104 0.482363 3.10208e-20)
(1.12841 0.449258 3.16478e-20)
(1.13506 0.403732 8.60778e-20)
(1.13365 0.356488 -1.35889e-19)
(1.13058 0.31229 -1.78282e-19)
(1.12616 0.275313 1.09645e-19)
(0.286521 0.147651 2.21435e-19)
(0.649072 0.343499 2.61682e-19)
(0.881866 0.460257 -1.43373e-19)
(1.01472 0.502708 -6.24317e-20)
(1.08058 0.49392 -2.75779e-21)
(1.10705 0.456446 -6.68715e-20)
(1.11449 0.407977 -4.72611e-20)
(1.11475 0.358944 -6.24974e-20)
(1.11368 0.313737 -5.56077e-20)
(1.11117 0.276153 3.78609e-20)
(0.285133 0.159864 -3.77786e-20)
(0.641051 0.364437 -1.71973e-19)
(0.867289 0.479879 3.8761e-20)
(0.99499 0.517586 1.06796e-20)
(1.05833 0.503524 -1.1573e-20)
(1.08454 0.461995 -6.45021e-21)
(1.09321 0.4109 -1.98223e-19)
(1.09542 0.360334 1.02289e-19)
(1.09648 0.314302 2.78415e-20)
(1.09601 0.276199 5.99546e-20)
(0.282233 0.17152 -2.26938e-19)
(0.63031 0.3838 8.02377e-20)
(0.849955 0.497351 2.76248e-21)
(0.97302 0.530216 -1.0609e-22)
(1.03453 0.511098 8.5358e-20)
(1.06104 0.465865 1.53178e-19)
(1.07135 0.412476 -5.09027e-21)
(1.07574 0.360636 3.24478e-19)
(1.07903 0.313965 1.58123e-19)
(1.08071 0.27542 1.78715e-19)
(0.277849 0.182466 9.88833e-20)
(0.616984 0.401359 -1.51139e-19)
(0.830065 0.512481 -4.13128e-20)
(0.949047 0.540481 -1.23895e-20)
(1.00936 0.516584 -1.66402e-19)
(1.03673 0.468022 -2.36998e-19)
(1.04902 0.41268 2.35913e-19)
(1.05578 0.359833 -1.65383e-19)
(1.06138 0.312709 -2.30895e-19)
(1.06532 0.273785 -3.63442e-19)
(0.272022 0.192547 7.51879e-20)
(0.601232 0.416898 2.06832e-20)
(0.807858 0.525106 -1.44138e-20)
(0.923304 0.548276 2.52365e-20)
(0.983054 0.519931 2.7132e-19)
(1.01175 0.468438 3.308e-19)
(1.02635 0.411493 -1.68253e-19)
(1.03563 0.357909 -2.27918e-19)
(1.04357 0.310518 1.1989e-19)
(1.04985 0.27126 -2.99498e-19)
(0.264822 0.201618 3.59137e-20)
(0.583235 0.430211 -3.00282e-20)
(0.78358 0.535083 -4.24969e-20)
(0.896037 0.553517 1.55066e-20)
(0.955805 0.521096 -4.51032e-20)
(0.986276 0.467092 -2.37221e-19)
(1.00346 0.408903 -2.29586e-19)
(1.01539 0.354855 2.50203e-20)
(1.02566 0.30738 -5.7608e-19)
(1.03434 0.267808 5.31478e-19)
(0.256338 0.209553 -4.11186e-20)
(0.563193 0.441117 1.38549e-20)
(0.757484 0.542284 -9.50753e-20)
(0.867492 0.556135 9.7536e-20)
(0.927826 0.52005 -5.10321e-19)
(0.960463 0.46397 -1.57169e-19)
(0.980455 0.404897 1.63868e-19)
(0.995146 0.350666 -2.38299e-20)
(1.00769 0.303284 7.86851e-19)
(1.01887 0.263382 -3.22343e-19)
(0.246667 0.216226 8.50804e-20)
(0.541333 0.449462 -2.67906e-20)
(0.729836 0.546602 3.29604e-19)
(0.837923 0.556082 7.58675e-21)
(0.89932 0.516776 7.15498e-19)
(0.934466 0.459065 6.18499e-19)
(0.957466 0.399474 -1.99977e-19)
(0.974977 0.34534 9.81362e-20)
(0.989765 0.298221 2.33209e-19)
(1.00357 0.257967 3.41332e-19)
(0.23592 0.221527 1.58425e-19)
(0.517898 0.455111 -4.89915e-20)
(0.700912 0.547957 -2.28335e-19)
(0.80758 0.553322 -1.23659e-19)
(0.870489 0.511265 -4.54761e-19)
(0.908437 0.452377 -6.68042e-20)
(0.934603 0.392634 8.1701e-20)
(0.954983 0.338883 1.61243e-19)
(0.972038 0.292212 -7.07719e-19)
(0.988419 0.251717 -7.34935e-19)
(0.224224 0.225356 -1.12124e-19)
(0.493142 0.457956 4.30622e-19)
(0.670992 0.546291 2.57882e-19)
(0.776716 0.547841 2.96713e-19)
(0.841533 0.503521 5.08815e-19)
(0.882526 0.443915 1.53311e-19)
(0.911976 0.384383 3.51759e-19)
(0.935276 0.331295 -2.92128e-19)
(0.954802 0.285332 1.13149e-19)
(0.973294 0.244303 9.43601e-20)
(0.211718 0.22763 -7.18022e-20)
(0.467334 0.457912 -4.22865e-19)
(0.640359 0.541566 -2.13767e-19)
(0.74558 0.539638 -3.08614e-20)
(0.812647 0.493562 -3.20911e-19)
(0.856878 0.433694 -6.41416e-19)
(0.889693 0.374731 -4.23563e-19)
(0.915975 0.322551 5.40309e-19)
(0.93818 0.277615 3.87114e-19)
(0.959095 0.237633 1.28024e-19)
(0.198551 0.228282 -3.02793e-19)
(0.440746 0.454922 -5.74852e-20)
(0.609298 0.533771 -3.75372e-19)
(0.714419 0.52873 -2.08922e-19)
(0.784021 0.481413 -5.55567e-19)
(0.831634 0.42174 1.72082e-19)
(0.867857 0.363697 3.77461e-19)
(0.897127 0.312673 2.36533e-20)
(0.921927 0.26893 -3.70418e-19)
(0.94482 0.230307 5.07767e-19)
(0.18488 0.227263 1.20468e-19)
(0.413657 0.448954 6.44182e-20)
(0.578095 0.522917 9.67741e-20)
(0.683472 0.515153 -1.96449e-20)
(0.755842 0.467114 1.12385e-18)
(0.806934 0.408085 -9.15822e-20)
(0.846573 0.351307 -4.78302e-19)
(0.878809 0.301691 -4.96004e-19)
(0.906131 0.259321 -8.61312e-20)
(0.930862 0.222215 7.66878e-21)
(0.170867 0.224539 7.00145e-19)
(0.386351 0.440003 -4.2452e-19)
(0.547028 0.509035 6.76599e-19)
(0.652977 0.498957 3.31476e-19)
(0.72829 0.450714 -8.29421e-19)
(0.782914 0.392769 -1.9063e-19)
(0.825946 0.337591 3.93884e-19)
(0.861106 0.289632 -1.22262e-19)
(0.890887 0.248821 -5.70892e-20)
(0.917406 0.213338 -6.29706e-19)
(0.15668 0.220096 2.88658e-19)
(0.359108 0.428091 -1.13888e-19)
(0.516375 0.492182 -1.00754e-18)
(0.623162 0.480208 1.71721e-19)
(0.701539 0.432275 9.0518e-19)
(0.759702 0.375842 9.9723e-19)
(0.806077 0.322586 1.02452e-19)
(0.844098 0.27652 8.82336e-19)
(0.876266 0.237449 4.83561e-19)
(0.904531 0.203691 8.09892e-19)
(0.142486 0.213939 -9.5282e-19)
(0.332207 0.413267 1.18041e-18)
(0.486404 0.472435 3.36609e-19)
(0.594248 0.458989 -2.24696e-20)
(0.675756 0.411868 -1.87822e-19)
(0.737426 0.35736 1.37151e-19)
(0.787064 0.306334 -8.4309e-19)
(0.82786 0.262388 -8.31245e-19)
(0.862332 0.225227 -5.70757e-19)
(0.892299 0.193294 -1.3668e-19)
(0.128455 0.206089 -9.39054e-20)
(0.30592 0.395604 -1.3469e-18)
(0.457375 0.449891 3.43481e-19)
(0.566445 0.435397 -5.49632e-19)
(0.651102 0.389575 -2.22008e-19)
(0.716205 0.337389 -1.85853e-19)
(0.768997 0.288886 1.0493e-19)
(0.812465 0.247274 2.71717e-19)
(0.849145 0.212184 4.4674e-19)
(0.880761 0.182171 -5.97253e-19)
(0.114752 0.196586 3.81875e-20)
(0.280512 0.3752 9.99555e-19)
(0.429535 0.424669 9.41778e-20)
(0.539956 0.409544 3.17776e-19)
(0.627727 0.365491 -1.69797e-19)
(0.696153 0.316001 2.02932e-19)
(0.751965 0.270298 4.0212e-19)
(0.79798 0.231224 -4.2318e-19)
(0.836757 0.198355 -4.25879e-19)
(0.86996 0.170353 3.27294e-19)
(0.101539 0.185488 4.89468e-19)
(0.256238 0.352178 5.41604e-19)
(0.403123 0.396908 -6.16697e-19)
(0.514969 0.381556 -2.78747e-19)
(0.605773 0.339717 4.33511e-19)
(0.677375 0.293278 -6.20134e-19)
(0.736049 0.250635 1.68784e-19)
(0.784469 0.214288 1.35212e-19)
(0.82522 0.183781 3.52002e-20)
(0.859934 0.157877 2.88387e-19)
(0.0889724 0.172871 -3.79712e-19)
(0.233338 0.326684 -1.11869e-18)
(0.378359 0.366761 9.21086e-19)
(0.491662 0.351572 -4.76774e-20)
(0.585374 0.312367 -2.25079e-19)
(0.659973 0.269307 -2.51465e-19)
(0.721324 0.229966 -1.92015e-19)
(0.771989 0.196524 9.75106e-19)
(0.814578 0.168509 5.51535e-19)
(0.850715 0.144787 1.99665e-21)
(0.0771999 0.158824 -1.00645e-19)
(0.212038 0.298884 6.0604e-19)
(0.355452 0.334404 -8.03112e-19)
(0.470198 0.319742 2.52252e-19)
(0.566651 0.28356 -4.36634e-19)
(0.644037 0.244185 -2.40109e-19)
(0.707863 0.208368 4.98012e-19)
(0.760596 0.177992 -6.01659e-19)
(0.804875 0.152591 -1.80803e-19)
(0.842332 0.131129 -3.06589e-19)
(0.06636 0.143455 3.6409e-19)
(0.192548 0.268965 -3.93956e-19)
(0.334591 0.300023 9.81764e-20)
(0.450729 0.28623 3.62701e-19)
(0.549718 0.253428 -4.78284e-20)
(0.629653 0.218014 6.42763e-19)
(0.69573 0.185922 -9.21128e-20)
(0.750339 0.15876 7.66599e-20)
(0.796149 0.136083 2.48528e-19)
(0.834812 0.116955 -8.3545e-20)
(0.0565799 0.126883 -1.98116e-19)
(0.175059 0.237131 4.1553e-19)
(0.315949 0.263822 -6.5583e-20)
(0.433389 0.251208 -5.15547e-19)
(0.534675 0.222107 -1.76762e-19)
(0.616897 0.190901 2.27907e-19)
(0.684982 0.162715 -3.3733e-19)
(0.741263 0.138901 -4.1531e-20)
(0.788434 0.119044 -3.13315e-19)
(0.828177 0.102318 -7.87644e-20)
(0.0479742 0.109242 1.58375e-19)
(0.15974 0.203604 -5.67306e-19)
(0.299678 0.226018 4.80595e-19)
(0.418299 0.214857 -1.00775e-19)
(0.521612 0.189742 3.09067e-19)
(0.605835 0.162962 -4.16402e-19)
(0.675671 0.138839 1.62471e-19)
(0.733408 0.118488 -2.12527e-19)
(0.781763 0.101537 1.02662e-19)
(0.82245 0.0872758 1.42983e-19)
(0.0406435 0.0906767 9.29163e-20)
(0.146742 0.168618 5.75157e-20)
(0.285912 0.186836 -1.71931e-19)
(0.405562 0.177369 -3.63672e-21)
(0.510605 0.156482 -2.80224e-20)
(0.596526 0.134314 -1.72334e-19)
(0.667842 0.11439 4.41126e-20)
(0.726808 0.0976015 3.64232e-19)
(0.776161 0.083631 1.65521e-20)
(0.817648 0.0718865 5.03958e-19)
(0.0346736 0.071341 -4.86086e-20)
(0.13619 0.132422 3.00408e-19)
(0.274762 0.146515 -2.017e-19)
(0.395266 0.13894 -3.15783e-20)
(0.501721 0.122483 4.98218e-19)
(0.589019 0.10508 1.52399e-20)
(0.661534 0.0894673 -3.27742e-19)
(0.721492 0.0763233 -3.72045e-19)
(0.771651 0.0653936 -2.74924e-19)
(0.813788 0.056211 -1.08143e-19)
(0.0301341 0.0513975 4.91074e-20)
(0.128185 0.0952744 -1.23275e-19)
(0.26632 0.105298 3.32891e-19)
(0.387483 0.0997741 7.08348e-20)
(0.495012 0.0879044 -3.48835e-19)
(0.583354 0.0753875 1.09515e-19)
(0.656775 0.0641727 2.04006e-19)
(0.717485 0.0547378 1.0283e-19)
(0.768253 0.0468966 1.34212e-19)
(0.810881 0.0403116 -1.28849e-19)
(0.0270781 0.0310153 -1.67848e-19)
(0.122805 0.0574406 4.23516e-20)
(0.260654 0.0634377 -2.14032e-19)
(0.382264 0.0600774 5.77345e-20)
(0.490517 0.0529098 -2.56171e-21)
(0.57956 0.045365 4.09861e-20)
(0.65359 0.0386109 -2.93027e-20)
(0.714803 0.0329314 -3.66516e-20)
(0.765979 0.0282129 -1.43575e-19)
(0.808938 0.0242515 8.93412e-21)
(0.0255411 0.010368 5.93916e-20)
(0.120102 0.019193 6.23562e-20)
(0.257809 0.0211891 -1.1062e-21)
(0.379645 0.0200614 -6.00126e-20)
(0.488263 0.0176645 -1.65539e-21)
(0.577659 0.0151438 -5.71135e-20)
(0.651994 0.0128882 4.01269e-20)
(0.71346 0.0109919 2.444e-20)
(0.76484 0.00941683 6.98173e-20)
(0.807965 0.0080946 2.25185e-20)
(0.0255411 -0.010368 5.11418e-20)
(0.120102 -0.019193 6.6894e-20)
(0.257809 -0.0211891 -3.274e-21)
(0.379645 -0.0200614 -5.53805e-20)
(0.488263 -0.0176645 -2.76092e-21)
(0.577659 -0.0151438 -3.97803e-20)
(0.651994 -0.0128882 3.79102e-20)
(0.71346 -0.0109919 4.90492e-21)
(0.76484 -0.00941683 7.65351e-20)
(0.807965 -0.0080946 2.28985e-20)
(0.0270781 -0.0310153 -1.87841e-19)
(0.122805 -0.0574406 7.57514e-20)
(0.260654 -0.0634377 -2.52312e-19)
(0.382264 -0.0600774 6.31651e-20)
(0.490517 -0.0529098 3.64959e-20)
(0.57956 -0.045365 -4.51815e-21)
(0.65359 -0.0386109 -8.34578e-21)
(0.714803 -0.0329314 -5.60007e-20)
(0.765979 -0.0282129 -1.06221e-19)
(0.808938 -0.0242515 -2.0088e-20)
(0.0301341 -0.0513975 6.00755e-20)
(0.128185 -0.0952744 -1.13845e-19)
(0.26632 -0.105298 2.90564e-19)
(0.387483 -0.0997741 9.9984e-20)
(0.495012 -0.0879044 -3.01908e-19)
(0.583354 -0.0753875 1.08075e-19)
(0.656775 -0.0641727 2.11863e-19)
(0.717485 -0.0547378 5.17024e-20)
(0.768253 -0.0468966 9.27899e-20)
(0.810881 -0.0403116 -7.51015e-20)
(0.0346736 -0.071341 -1.92553e-20)
(0.13619 -0.132422 1.87774e-19)
(0.274762 -0.146515 -1.26047e-19)
(0.395266 -0.13894 -6.21302e-20)
(0.501721 -0.122483 5.64798e-19)
(0.589019 -0.10508 -4.48078e-20)
(0.661534 -0.0894673 -3.5861e-19)
(0.721492 -0.0763233 -3.04598e-19)
(0.771651 -0.0653936 -2.46949e-19)
(0.813788 -0.056211 -2.1093e-19)
(0.0406435 -0.0906767 3.51858e-20)
(0.146742 -0.168618 4.67673e-20)
(0.285912 -0.186836 -2.33381e-19)
(0.405562 -0.177369 3.58824e-20)
(0.510605 -0.156482 -3.0499e-20)
(0.596526 -0.134314 -1.46718e-19)
(0.667842 -0.11439 -6.86849e-20)
(0.726808 -0.0976015 4.50857e-19)
(0.776161 -0.083631 8.72336e-20)
(0.817648 -0.0718865 4.21704e-19)
(0.0479742 -0.109242 2.09933e-20)
(0.15974 -0.203604 -3.76196e-19)
(0.299678 -0.226018 3.58852e-19)
(0.418299 -0.214857 -6.94847e-20)
(0.521612 -0.189742 3.11225e-19)
(0.605835 -0.162962 -5.0939e-19)
(0.675671 -0.138839 1.45581e-19)
(0.733408 -0.118488 -2.26704e-19)
(0.781763 -0.101537 1.08387e-19)
(0.82245 -0.0872758 2.3684e-19)
(0.0565799 -0.126883 -1.94659e-19)
(0.175059 -0.237131 3.52582e-19)
(0.315949 -0.263822 -4.94896e-20)
(0.433389 -0.251208 -3.56819e-19)
(0.534675 -0.222107 -3.05647e-19)
(0.616897 -0.190901 2.30063e-19)
(0.684982 -0.162715 -3.25104e-19)
(0.741263 -0.138901 -1.76324e-20)
(0.788434 -0.119044 -3.59503e-19)
(0.828177 -0.102318 -1.6225e-19)
(0.06636 -0.143455 3.95806e-19)
(0.192548 -0.268965 -2.72452e-19)
(0.334591 -0.300023 9.16549e-20)
(0.450729 -0.28623 1.13876e-19)
(0.549718 -0.253428 2.12156e-19)
(0.629653 -0.218014 4.39168e-19)
(0.69573 -0.185922 -2.98883e-20)
(0.750339 -0.15876 4.23633e-20)
(0.796149 -0.136083 2.69384e-19)
(0.834812 -0.116955 -1.24948e-19)
(0.0771999 -0.158824 -2.14788e-19)
(0.212038 -0.298884 6.19502e-19)
(0.355452 -0.334404 -7.27962e-19)
(0.470198 -0.319742 1.62284e-19)