/*--------------------------------*- C++ -*----------------------------------*\
  =========                 |
  \\      /  F ield         | OpenFOAM: The Open Source CFD Toolbox
   \\    /   O peration     | Website:  https://openfoam.org
    \\  /    A nd           | Version:  7
     \\/     M anipulation  |
\*---------------------------------------------------------------------------*/
FoamFile
{
    version     2.0;
    format      ascii;
    class       surfaceScalarField;
    location    "3";
    object      phi;
}
// * * * * * * * * * * * * * * * * * * * * * * * * * * * * * * * * * * * * * //

dimensions      [0 3 -1 0 0 0 0];

internalField   nonuniform List<scalar> 
817
(
-0.00218093
0.00140003
0.00127042
-0.0020941
-0.00230678
0.00139627
0.00126571
0.0013868
0.00586845
0.00159362
0.0056463
0.00161842
0.00541069
0.00163565
0.00516358
0.00164594
0.00165005
0.00661483
0.0017676
0.00642362
0.00180962
0.00621648
0.00184279
0.00599494
0.00186747
0.00576084
0.00188415
0.0055162
0.0018934
0.00526318
0.00189579
0.00189169
0.00730412
0.00190393
0.00714976
0.00196398
0.006978
0.00201455
0.0067898
0.00205567
0.00658644
0.00208752
0.00636948
0.00211036
0.00614067
0.00212459
0.00590175
0.00213061
0.00565387
0.00212763
0.00211332
0.00792015
0.00200083
0.00780572
0.00207841
0.00767374
0.00214654
0.00752448
0.00220493
0.00735853
0.00225346
0.00717678
0.00229211
0.00698034
0.00232104
0.00677035
0.0023406
0.00654757
0.0023504
0.00631173
0.00234916
0.00234953
0.00846056
0.00205923
0.00838629
0.00215267
0.00829557
0.00223726
0.00818802
0.00231248
0.00806354
0.00237795
0.00792225
0.00243339
0.00776455
0.00247874
0.00759098
0.00251417
0.00740194
0.00253944
0.00719731
0.0025538
0.00256853
0.00892716
0.00208298
0.00889011
0.00218972
0.00883877
0.0022886
0.00877226
0.00237899
0.00868991
0.00246031
0.00859121
0.00253209
0.00847592
0.00259404
0.00834398
0.00264611
0.0081954
0.00268803
0.00802993
0.00271926
0.00274926
0.00932847
0.00207779
0.00932344
0.00219475
0.00930699
0.00230505
0.00927797
0.00240801
0.00923532
0.00250296
0.0091781
0.00258931
0.00910554
0.00266659
0.00901709
0.00273455
0.00891231
0.00279281
0.00879066
0.00284091
0.00288626
0.00967725
0.00205015
0.00969783
0.00217417
0.00971013
0.00229275
0.00971294
0.0024052
0.00970503
0.00251087
0.00968523
0.00260911
0.00965245
0.00269937
0.00960578
0.00278123
0.00954438
0.0028542
0.00946743
0.00291786
0.00297763
0.00998767
0.0020064
0.0100273
0.00213458
0.0100616
0.0022584
0.0100896
0.00237725
0.0101099
0.0024905
0.0101215
0.00259754
0.0101231
0.00269779
0.0101135
0.00279076
0.0100918
0.0028759
0.0100569
0.00295278
0.00302505
0.0102733
0.00195198
0.0103259
0.00208193
0.0103759
0.00220838
0.0104224
0.00233081
0.0104642
0.0024487
0.0105002
0.00256148
0.0105294
0.00266862
0.0105506
0.0027696
0.0105626
0.00286388
0.0105643
0.00295103
0.00303323
0.0105456
0.00189117
0.0106065
0.00202105
0.0106668
0.00214806
0.0107258
0.0022718
0.0107827
0.00239181
0.0108366
0.00250764
0.0108864
0.00261881
0.0109311
0.00272484
0.0109698
0.00282521
0.0110013
0.00291954
0.00300887
0.0108137
0.00182705
0.0108793
0.00195553
0.0109457
0.00208159
0.0110126
0.0022049
0.0110793
0.0023251
0.0111452
0.00244181
0.0112094
0.00255463
0.011271
0.00266314
0.0113294
0.00276688
0.0113834
0.0028655
0.00295923
0.0110842
0.00176162
0.0111519
0.00188782
0.0112216
0.00201189
0.011293
0.00213356
0.0113655
0.00225254
0.0114388
0.00236852
0.0115123
0.00248117
0.0115853
0.00259015
0.0116571
0.00269504
0.0117271
0.00279553
0.00289133
0.0113615
0.00169609
0.0114299
0.00181945
0.0115009
0.00194085
0.0115744
0.00206007
0.0116501
0.00217688
0.0117276
0.00229102
0.0118065
0.00240221
0.0118865
0.00251018
0.011967
0.00261456
0.0120474
0.00271507
0.00281109
0.0116486
0.00163112
0.0117167
0.00175128
0.011788
0.00186958
0.0118622
0.00198585
0.0119392
0.00209987
0.0120188
0.00221143
0.0121007
0.00232031
0.0121846
0.00242626
0.0122702
0.00252897
0.0123571
0.00262816
0.0027231
0.0119472
0.00156699
0.0120148
0.00168371
0.0120857
0.00179866
0.0121599
0.00191165
0.0122373
0.0020225
0.0123177
0.00213104
0.0124009
0.00223706
0.0124869
0.00234033
0.0125752
0.0024406
0.0126658
0.00253761
0.00263056
0.0122588
0.00150377
0.0123256
0.00161691
0.0123959
0.00172832
0.0124697
0.00183783
0.012547
0.00194529
0.0126275
0.00205051
0.0127112
0.00215333
0.012798
0.00225354
0.0128877
0.0023509
0.0129801
0.00244517
0.00253556
0.012584
0.00144142
0.0126501
0.00155086
0.0127198
0.00165861
0.0127931
0.00176452
0.0128699
0.00186842
0.0129503
0.00197015
0.0130341
0.00206957
0.0131211
0.00216646
0.0132114
0.00226063
0.0133048
0.00235182
0.00243932
0.0129235
0.00137983
0.0129889
0.00148548
0.0130581
0.00158948
0.0131309
0.00169167
0.0132074
0.00179191
0.0132875
0.00189004
0.0133712
0.00198591
0.0134583
0.00207935
0.0135488
0.00217015
0.0136425
0.00225808
0.00234248
0.0132779
0.00131886
0.0133428
0.00142063
0.0134114
0.00152079
0.0134839
0.00161919
0.0135602
0.00171568
0.0136401
0.00181012
0.0137236
0.00190237
0.0138107
0.00199225
0.0139013
0.00207957
0.0139953
0.00216412
0.0022453
0.0136477
0.00125836
0.0137121
0.00135618
0.0137805
0.00145242
0.0138527
0.00154694
0.0139288
0.00163961
0.0140086
0.00173029
0.0140922
0.00181884
0.0141793
0.00190508
0.01427
0.00198886
0.0143642
0.00206994
0.00214783
0.0140333
0.00119819
0.0140975
0.00129196
0.0141658
0.0013842
0.0142379
0.00147478
0.014314
0.00156356
0.0143939
0.00165041
0.0144775
0.00173518
0.0145649
0.00181774
0.0146558
0.0018979
0.0147503
0.00197548
0.00205
0.0144355
0.0011382
0.0144996
0.00122783
0.0145678
0.00131599
0.0146401
0.00140255
0.0147163
0.00148736
0.0147964
0.00157031
0.0148803
0.00165126
0.014968
0.00173006
0.0150593
0.00180656
0.0151542
0.00188057
0.00195169
0.0148548
0.00107822
0.014919
0.00116364
0.0149874
0.00124764
0.0150598
0.00133008
0.0151363
0.00141086
0.0152168
0.00148983
0.0153012
0.00156688
0.0153894
0.00164188
0.0154813
0.00171466
0.0155768
0.00178506
0.00185272
0.015292
0.00101813
0.0153564
0.00109923
0.0154251
0.00117897
0.0154979
0.00125722
0.0155749
0.00133388
0.0156559
0.00140881
0.0157409
0.0014819
0.0158298
0.00155301
0.0159224
0.00162202
0.0160187
0.00168875
0.0017529
0.0157477
0.000957758
0.0158125
0.00103445
0.0158816
0.00110983
0.015955
0.00118381
0.0160327
0.00125625
0.0161144
0.00132706
0.0162002
0.00139611
0.0162899
0.00146328
0.0163835
0.00152845
0.0164808
0.00159145
0.00165203
0.0162228
0.000896969
0.0162882
0.000969136
0.0163579
0.00104007
0.0164321
0.00110967
0.0165105
0.00117782
0.0165931
0.00124441
0.0166799
0.00130934
0.0167707
0.00137249
0.0168654
0.00143375
0.0169639
0.00149296
0.00154991
0.0167183
0.000835615
0.0167843
0.00090315
0.0168548
0.000969527
0.0169298
0.00103464
0.0170093
0.00109839
0.017093
0.00116068
0.0171809
0.0012214
0.017273
0.00128046
0.017369
0.00133772
0.0174689
0.00139307
0.00144631
0.017235
0.000773551
0.0173018
0.000836334
0.0173733
0.000898036
0.0174493
0.000958558
0.0175299
0.00101781
0.0176149
0.00107569
0.0177042
0.00113211
0.0177977
0.00118696
0.0178953
0.00124016
0.0179968
0.00129156
0.00134102
0.0177739
0.00071063
0.0178417
0.000768536
0.0179143
0.000825439
0.0179916
0.00088125
0.0180736
0.000935882
0.01816
0.000989247
0.0182509
0.00104126
0.018346
0.00109182
0.0184453
0.00114085
0.0185487
0.00118822
0.0012338
0.0183363
0.000646707
0.0184053
0.000699598
0.0184791
0.000751572
0.0185578
0.000802545
0.0186413
0.000852437
0.0187294
0.000901167
0.018822
0.000948656
0.018919
0.00099482
0.0190202
0.00103958
0.0191256
0.00108282
0.00112443
0.0189234
0.000581632
0.0189936
0.000629367
0.0190689
0.00067627
0.0191492
0.000722268
0.0192344
0.000767288
0.0193243
0.000811257
0.0194188
0.000854101
0.0195179
0.000895747
0.0196214
0.000936119
0.019729
0.000975121
0.00101266
0.0195365
0.000515257
0.0196082
0.00055768
0.0196851
0.000599363
0.0197671
0.000640241
0.0198541
0.000680247
0.0199461
0.000719316
0.0200428
0.000757384
0.0201442
0.000794384
0.02025
0.000830251
0.0203603
0.000864898
0.000898249
0.0201771
0.000447424
0.0202504
0.000484372
0.020329
0.000520676
0.020413
0.000556276
0.0205021
0.000591117
0.0205963
0.00062514
0.0206954
0.000658289
0.0207993
0.000690506
0.0209078
0.000721735
0.0210208
0.0007519
0.000780939
0.0208468
0.000377972
0.0209219
0.000409272
0.0210025
0.000440025
0.0210886
0.000470182
0.02118
0.000499694
0.0212767
0.000528513
0.0213784
0.00055659
0.021485
0.000583877
0.0215964
0.000610325
0.0217124
0.000635871
0.000660465
0.0215475
0.000306733
0.0216245
0.000332197
0.0217074
0.000357218
0.0217958
0.000381753
0.0218897
0.000405763
0.021989
0.000429208
0.0220936
0.000452049
0.0222032
0.000474246
0.0223178
0.000495759
0.0224371
0.000516538
0.000536544
0.0222812
0.000233526
0.0223605
0.000252957
0.0224456
0.000272049
0.0225366
0.000290772
0.0226333
0.000309093
0.0227355
0.000326983
0.0228431
0.000344411
0.022956
0.000361348
0.023074
0.000377762
0.023197
0.000393615
0.000408877
0.0230503
0.000158152
0.0231319
0.000171339
0.0232197
0.000184295
0.0233134
0.000197001
0.0234131
0.000209434
0.0235185
0.000221574
0.0236295
0.0002334
0.023746
0.000244892
0.0238677
0.000256029
0.0239945
0.000266785
0.000277139
0.0238574
8.03974e-05
0.0239417
8.71132e-05
0.0240323
9.37119e-05
0.0241291
0.000100183
0.024232
0.000106514
0.0243409
0.000112696
0.0244556
0.000118718
0.0245759
0.000124569
0.0247017
0.000130238
0.0248327
0.000135713
0.000140982
0.0247056
0.0247927
0.0248864
0.0249866
0.0250931
0.0252058
0.0253245
0.0254491
0.0255793
0.0257151
)
;

boundaryField
{
    inlet
    {
        type            calculated;
        value           nonuniform 0();
    }
    outlet
    {
        type            calculated;
        value           nonuniform 0();
    }
    cylinder
    {
        type            calculated;
        value           nonuniform 0();
    }
    top
    {
        type            symmetryPlane;
        value           uniform 0;
    }
    bottom
    {
        type            symmetryPlane;
        value           nonuniform 0();
    }
    defaultFaces
    {
        type            empty;
        value           nonuniform 0();
    }
    procBoundary33to26
    {
        type            processor;
        value           nonuniform List<scalar> 9(-0.00221237 -0.00242786 -0.00607527 -0.00678881 -0.00744046 -0.00801704 -0.00851896 -0.00895091 -0.00932328);
    }
    procBoundary33to27
    {
        type            processor;
        value           nonuniform List<scalar> 
16
(
-0.00139347
0.00205095
-0.00139883
-0.00127005
0.00197176
-0.00114809
-0.00114744
0.00490699
-0.00164876
-0.00164277
-0.0016325
0.00500399
-0.00187975
-0.00185589
0.00539645
-0.00210064
)
;
    }
    procBoundary33to28
    {
        type            processor;
        value           nonuniform List<scalar> 
15
(
0.00606284
0.00697831
0.0078492
0.00865366
0.00937606
0.0100095
0.0105562
0.0110256
0.011433
0.011795
0.0121277
0.0124451
0.0127583
0.0130751
0.013401
)
;
    }
    procBoundary33to32
    {
        type            processor;
        value           nonuniform List<scalar> 
33
(
-0.00964962
-0.00994391
-0.0102188
-0.0104848
-0.0107496
-0.0110188
-0.011296
-0.0115836
-0.0118831
-0.0121956
-0.0125216
-0.0128619
-0.0132169
-0.0135872
-0.0139732
-0.0143755
-0.0147948
-0.0152319
-0.0156873
-0.0161621
-0.0166569
-0.0171729
-0.017711
-0.0182724
-0.0188583
-0.0194701
-0.0201092
-0.0207773
-0.0214762
-0.022208
-0.0229749
-0.0237797
-0.0246252
)
;
    }
    procBoundary33to34
    {
        type            processor;
        value           nonuniform List<scalar> 
22
(
0.0137394
0.0140924
0.0144617
0.0148481
0.0152525
0.0156758
0.0161185
0.0165817
0.017066
0.0175725
0.0181021
0.0186559
0.019235
0.0198408
0.0204747
0.0211381
0.0218329
0.022561
0.0233246
0.0241263
0.0249689
0.025856
)
;
    }
}


// ************************************************************************* //
