/*--------------------------------*- C++ -*----------------------------------*\
  =========                 |
  \\      /  F ield         | OpenFOAM: The Open Source CFD Toolbox
   \\    /   O peration     | Website:  https://openfoam.org
    \\  /    A nd           | Version:  7
     \\/     M anipulation  |
\*---------------------------------------------------------------------------*/
FoamFile
{
    version     2.0;
    format      ascii;
    class       volScalarField;
    location    "38.999394";
    object      p;
}
// * * * * * * * * * * * * * * * * * * * * * * * * * * * * * * * * * * * * * //

dimensions      [0 2 -2 0 0 0 0];

internalField   nonuniform List<scalar> 
23200
(
-0.226896
-0.22868
-0.22976
-0.230605
-0.231344
-0.231999
-0.232609
-0.233201
-0.233786
-0.234361
-0.234916
-0.235428
-0.235872
-0.236215
-0.236418
-0.23644
-0.236239
-0.235799
-0.235089
-0.234013
-0.227169
-0.228923
-0.229985
-0.230817
-0.231544
-0.23219
-0.232791
-0.233375
-0.233953
-0.234524
-0.235074
-0.235584
-0.236025
-0.236366
-0.236568
-0.236588
-0.236381
-0.235928
-0.235205
-0.234004
-0.227709
-0.229402
-0.230429
-0.231235
-0.231939
-0.232564
-0.233148
-0.233717
-0.234282
-0.234841
-0.235383
-0.235885
-0.236322
-0.23666
-0.236859
-0.236876
-0.236655
-0.236174
-0.235443
-0.233961
-0.228499
-0.230106
-0.231083
-0.231848
-0.232518
-0.233113
-0.23367
-0.234215
-0.234759
-0.2353
-0.235826
-0.236317
-0.236746
-0.237077
-0.237272
-0.237283
-0.237046
-0.236511
-0.235822
-0.233842
-0.229522
-0.231018
-0.231929
-0.232643
-0.233265
-0.233819
-0.234339
-0.23485
-0.235364
-0.235879
-0.236384
-0.236857
-0.237271
-0.237593
-0.237779
-0.237784
-0.237532
-0.236894
-0.236371
-0.233571
-0.230751
-0.232118
-0.23295
-0.2336
-0.234164
-0.234664
-0.235135
-0.235601
-0.236075
-0.236554
-0.237027
-0.237473
-0.237867
-0.238173
-0.238345
-0.23834
-0.23809
-0.237252
-0.237137
-0.23303
-0.23216
-0.233382
-0.234125
-0.234699
-0.235193
-0.235627
-0.236035
-0.236444
-0.236864
-0.237294
-0.237724
-0.238134
-0.238497
-0.23878
-0.23893
-0.238904
-0.238701
-0.237476
-0.238165
-0.232114
-0.233719
-0.234788
-0.235432
-0.235921
-0.236331
-0.236685
-0.237016
-0.237351
-0.237702
-0.238069
-0.238442
-0.238802
-0.239122
-0.23937
-0.239488
-0.239407
-0.239348
-0.237493
-0.23936
-0.23109
-0.235401
-0.236314
-0.236851
-0.237243
-0.237557
-0.237816
-0.238054
-0.238298
-0.238562
-0.238848
-0.239147
-0.239441
-0.239703
-0.239903
-0.239977
-0.23978
-0.239941
-0.237561
-0.240064
-0.23022
-0.237181
-0.237938
-0.238364
-0.23865
-0.238853
-0.239
-0.239126
-0.23926
-0.239417
-0.239603
-0.239809
-0.240017
-0.240203
-0.240336
-0.240356
-0.240108
-0.240253
-0.237485
-0.240767
-0.229014
-0.239041
-0.239647
-0.239957
-0.240126
-0.240205
-0.240222
-0.240215
-0.240216
-0.240245
-0.240308
-0.2404
-0.240504
-0.240593
-0.240639
-0.240583
-0.24023
-0.240449
-0.237051
-0.241424
-0.227521
-0.240966
-0.24143
-0.241621
-0.241663
-0.241601
-0.241469
-0.241308
-0.241154
-0.24103
-0.240948
-0.240903
-0.24088
-0.240853
-0.240791
-0.240643
-0.240125
-0.240484
-0.236273
-0.241841
-0.225896
-0.242954
-0.243285
-0.243353
-0.243257
-0.243038
-0.242736
-0.242397
-0.242064
-0.241764
-0.241512
-0.241308
-0.241138
-0.240974
-0.240781
-0.240526
-0.239799
-0.240279
-0.235244
-0.241748
-0.22439
-0.245009
-0.245216
-0.245158
-0.24491
-0.244517
-0.244024
-0.243484
-0.242947
-0.242446
-0.242002
-0.241617
-0.24128
-0.240959
-0.240614
-0.240229
-0.239275
-0.23975
-0.234101
-0.240821
-0.223211
-0.247147
-0.247238
-0.247046
-0.246633
-0.246047
-0.245341
-0.244577
-0.243812
-0.243088
-0.24243
-0.241844
-0.24132
-0.240824
-0.240304
-0.239754
-0.238576
-0.238813
-0.232962
-0.238813
-0.222298
-0.249394
-0.249372
-0.249036
-0.248443
-0.247644
-0.246703
-0.245693
-0.244678
-0.243709
-0.242817
-0.242013
-0.241284
-0.240594
-0.239874
-0.239107
-0.237714
-0.237422
-0.231811
-0.235734
-0.221263
-0.251786
-0.251646
-0.251154
-0.250364
-0.249332
-0.248134
-0.246855
-0.24557
-0.244338
-0.243196
-0.242157
-0.241206
-0.240297
-0.239347
-0.238293
-0.236658
-0.23558
-0.230458
-0.231851
-0.219624
-0.254368
-0.254098
-0.253436
-0.252427
-0.251139
-0.249664
-0.248096
-0.246524
-0.245013
-0.243606
-0.242317
-0.241122
-0.239962
-0.238733
-0.237311
-0.235344
-0.233326
-0.228621
-0.227438
-0.217112
-0.257193
-0.256771
-0.255918
-0.254667
-0.253102
-0.251328
-0.249455
-0.247581
-0.245776
-0.244091
-0.242533
-0.241066
-0.239609
-0.238029
-0.236144
-0.233699
-0.230687
-0.226084
-0.222535
-0.2138
-0.260319
-0.259714
-0.258643
-0.257125
-0.255259
-0.253168
-0.250973
-0.24878
-0.246674
-0.244695
-0.242843
-0.241064
-0.239243
-0.237216
-0.234755
-0.231666
-0.227679
-0.222776
-0.217122
-0.20998
-0.263804
-0.262976
-0.261656
-0.259844
-0.257655
-0.255227
-0.252696
-0.250176
-0.247752
-0.245458
-0.243277
-0.241126
-0.238853
-0.236261
-0.233098
-0.229219
-0.224311
-0.218768
-0.211674
-0.205547
-0.26771
-0.266609
-0.265004
-0.26287
-0.260332
-0.257551
-0.25467
-0.25181
-0.24905
-0.246412
-0.243851
-0.241245
-0.238408
-0.23512
-0.231133
-0.226362
-0.220567
-0.214192
-0.206609
-0.199762
-0.272096
-0.270664
-0.268735
-0.266248
-0.263338
-0.260184
-0.25694
-0.253724
-0.250604
-0.247578
-0.244562
-0.241397
-0.237865
-0.233747
-0.228836
-0.223121
-0.216453
-0.209351
-0.201253
-0.193826
-0.277014
-0.275187
-0.272893
-0.270022
-0.266716
-0.263172
-0.259549
-0.255955
-0.252437
-0.248957
-0.24539
-0.241539
-0.237174
-0.232106
-0.2262
-0.219527
-0.21205
-0.204275
-0.195768
-0.18798
-0.282515
-0.280224
-0.277522
-0.274235
-0.27051
-0.266558
-0.262534
-0.258531
-0.25456
-0.250538
-0.246296
-0.241615
-0.236283
-0.230167
-0.223233
-0.215629
-0.207408
-0.199051
-0.190192
-0.182108
-0.288638
-0.285812
-0.28266
-0.278929
-0.27476
-0.27038
-0.265929
-0.261468
-0.256965
-0.252285
-0.247224
-0.241564
-0.235143
-0.227915
-0.219952
-0.211468
-0.202576
-0.19371
-0.184537
-0.176237
-0.295417
-0.291985
-0.288344
-0.284139
-0.279506
-0.274671
-0.269752
-0.264766
-0.259623
-0.254142
-0.248103
-0.241319
-0.233712
-0.225343
-0.216381
-0.207079
-0.197585
-0.188265
-0.178818
-0.170313
-0.302871
-0.298766
-0.2946
-0.289898
-0.284776
-0.279454
-0.274011
-0.268405
-0.262485
-0.256037
-0.248852
-0.240815
-0.231957
-0.22245
-0.212537
-0.202482
-0.192444
-0.182714
-0.173017
-0.164322
-0.311011
-0.30617
-0.301449
-0.296228
-0.290591
-0.284737
-0.27869
-0.272337
-0.265474
-0.257875
-0.249384
-0.239992
-0.229855
-0.219239
-0.208431
-0.197686
-0.187151
-0.177044
-0.16712
-0.158239
-0.31983
-0.314198
-0.308897
-0.303139
-0.296956
-0.290507
-0.283747
-0.276488
-0.268491
-0.259553
-0.249613
-0.238798
-0.227385
-0.215706
-0.204064
-0.192684
-0.181692
-0.171234
-0.161104
-0.152042
-0.329301
-0.322835
-0.316937
-0.310623
-0.303851
-0.296723
-0.289109
-0.280755
-0.271415
-0.260957
-0.249458
-0.237189
-0.224528
-0.211843
-0.199425
-0.187459
-0.176043
-0.16526
-0.154944
-0.145711
-0.339376
-0.332043
-0.325538
-0.318649
-0.311231
-0.303311
-0.294668
-0.285005
-0.27411
-0.261976
-0.248844
-0.235123
-0.221262
-0.207633
-0.194494
-0.181986
-0.170178
-0.159096
-0.148616
-0.139222
-0.349978
-0.341762
-0.334646
-0.327155
-0.319016
-0.310159
-0.300284
-0.289082
-0.276433
-0.262501
-0.247702
-0.232561
-0.21756
-0.203051
-0.189244
-0.176238
-0.164067
-0.152714
-0.142095
-0.132555
-0.361001
-0.351902
-0.344175
-0.336048
-0.327087
-0.317119
-0.305784
-0.292813
-0.278238
-0.262429
-0.245969
-0.229462
-0.213391
-0.198065
-0.183643
-0.170179
-0.15768
-0.146089
-0.135357
-0.125691
-0.372305
-0.36234
-0.354005
-0.345194
-0.335286
-0.324005
-0.31097
-0.296016
-0.279385
-0.261666
-0.243583
-0.225782
-0.208715
-0.192637
-0.177653
-0.163777
-0.150984
-0.139192
-0.128377
-0.118609
-0.383717
-0.37292
-0.363981
-0.354421
-0.343414
-0.330599
-0.315627
-0.298509
-0.27974
-0.260122
-0.240484
-0.221473
-0.20349
-0.186726
-0.171236
-0.156995
-0.14395
-0.131999
-0.121133
-0.111291
-0.395026
-0.383451
-0.373906
-0.363516
-0.351237
-0.336658
-0.319531
-0.300113
-0.279177
-0.257713
-0.23661
-0.216485
-0.197669
-0.180291
-0.164353
-0.1498
-0.13655
-0.124485
-0.113603
-0.10372
-0.40599
-0.393706
-0.383549
-0.37223
-0.358492
-0.341923
-0.322459
-0.300661
-0.27758
-0.254359
-0.231901
-0.210765
-0.191206
-0.173288
-0.156968
-0.14216
-0.128755
-0.116628
-0.105767
-0.095881
-0.416336
-0.403424
-0.392645
-0.380283
-0.364892
-0.346129
-0.324195
-0.299994
-0.274842
-0.249982
-0.226295
-0.204259
-0.184053
-0.165675
-0.149044
-0.134043
-0.120543
-0.108407
-0.0976081
-0.0877651
-0.425763
-0.41232
-0.4009
-0.38737
-0.37014
-0.349014
-0.324535
-0.297972
-0.270865
-0.244511
-0.219732
-0.196917
-0.176162
-0.157413
-0.140547
-0.125424
-0.111891
-0.0998051
-0.0891151
-0.0793721
-0.433956
-0.420084
-0.407998
-0.393173
-0.373937
-0.350328
-0.323295
-0.294465
-0.265559
-0.237876
-0.212155
-0.188687
-0.167493
-0.148465
-0.131448
-0.116277
-0.10278
-0.0908057
-0.0802798
-0.0707072
-0.440584
-0.426392
-0.413611
-0.39737
-0.375992
-0.34984
-0.320309
-0.289362
-0.258843
-0.230013
-0.203509
-0.179524
-0.158005
-0.138799
-0.121721
-0.106582
-0.0931922
-0.0813929
-0.0710911
-0.0617645
-0.445315
-0.430916
-0.417409
-0.399646
-0.376034
-0.347344
-0.315434
-0.282564
-0.250647
-0.220867
-0.193749
-0.169387
-0.147666
-0.128391
-0.111347
-0.096325
-0.0831149
-0.0715548
-0.0615334
-0.0525091
-0.447825
-0.433331
-0.41907
-0.399702
-0.373817
-0.342659
-0.30855
-0.273992
-0.24091
-0.210389
-0.182832
-0.158244
-0.136451
-0.117218
-0.10031
-0.0854924
-0.0725386
-0.061288
-0.0516043
-0.0428642
-0.447803
-0.433324
-0.41829
-0.397268
-0.369128
-0.335639
-0.299562
-0.26358
-0.229586
-0.19854
-0.170728
-0.146069
-0.124338
-0.105267
-0.0885976
-0.0740758
-0.0614589
-0.0505968
-0.0413321
-0.0327757
-0.444964
-0.430609
-0.414792
-0.392105
-0.36179
-0.326168
-0.288399
-0.251284
-0.21664
-0.185294
-0.157415
-0.132847
-0.111315
-0.0925283
-0.0762049
-0.0620721
-0.0498851
-0.0394896
-0.0307206
-0.0223643
-0.439056
-0.424927
-0.408338
-0.384019
-0.351668
-0.314166
-0.275014
-0.237074
-0.202052
-0.170634
-0.142879
-0.118564
-0.0973757
-0.0790005
-0.0631415
-0.0494917
-0.0378435
-0.0280061
-0.0196538
-0.0117859
-0.429867
-0.416062
-0.398731
-0.372857
-0.338667
-0.299585
-0.259388
-0.220942
-0.185818
-0.154554
-0.127115
-0.103221
-0.0825353
-0.0647015
-0.0494357
-0.0363749
-0.0253248
-0.0161113
-0.00822485
-0.000981741
-0.41723
-0.403843
-0.385823
-0.358519
-0.322736
-0.282409
-0.241524
-0.202897
-0.167942
-0.13706
-0.110141
-0.0868383
-0.0668343
-0.049669
-0.035077
-0.0227128
-0.0123548
-0.00381794
0.00351839
0.0100715
-0.401029
-0.388148
-0.369518
-0.340949
-0.303865
-0.262658
-0.221451
-0.182964
-0.148445
-0.118185
-0.0920126
-0.0694845
-0.0502534
-0.0339008
-0.020102
-0.00853043
0.00104637
0.0088452
0.0155513
0.0213655
-0.381201
-0.36891
-0.349774
-0.320145
-0.282086
-0.240383
-0.199222
-0.161189
-0.12738
-0.0980183
-0.0727377
-0.0511507
-0.0328498
-0.0174321
-0.00454311
0.00613981
0.0148514
0.0218462
0.0278527
0.0328757
-0.357739
-0.346116
-0.326603
-0.296152
-0.257475
-0.215667
-0.174912
-0.137653
-0.104855
-0.0765514
-0.0523736
-0.0318895
-0.0146688
-0.000308149
0.0115605
0.0212602
0.0290264
0.0351512
0.0403935
0.0445686
-0.330694
-0.319809
-0.300073
-0.269071
-0.230151
-0.188612
-0.148618
-0.112456
-0.0808999
-0.0538782
-0.0309866
-0.0117637
0.00423526
0.0174194
0.0281628
0.036788
0.043532
0.048723
0.0531376
0.0564041
-0.300167
-0.290085
-0.270307
-0.239057
-0.200248
-0.159321
-0.120469
-0.0856927
-0.0556191
-0.0300866
-0.00865613
0.00915415
0.0237987
0.0356922
0.0452111
0.0526749
0.0583243
0.062522
0.0660472
0.0683406
-0.266315
-0.257094
-0.237486
-0.206283
-0.167854
-0.127992
-0.0906115
-0.0574925
-0.0291271
-0.00527729
0.0145275
0.0307825
0.0439489
0.0544447
0.0626458
0.0688665
0.0733553
0.0765094
0.0790887
0.0803436
-0.229327
-0.221048
-0.201822
-0.170833
-0.133214
-0.0948414
-0.0592132
-0.0280011
-0.00155324
0.0204362
0.0384627
0.0530308
0.064605
0.0736047
0.0804012
0.0853028
0.0885738
0.0906465
0.0922258
0.09237
-0.189387
-0.182237
-0.163461
-0.132911
-0.0966918
-0.0600567
-0.0264577
0.00261939
0.0269604
0.0469282
0.0630378
0.0757994
0.0856788
0.0930934
0.0984063
0.101921
0.10393
0.104891
0.105384
0.104278
-0.14673
-0.140978
-0.122505
-0.0931045
-0.0584688
-0.0238631
0.00745524
0.0341942
0.0562594
0.074062
0.0881316
0.0989811
0.107075
0.112826
0.116586
0.118661
0.119382
0.11919
0.1184
0.115725
-0.101697
-0.0974498
-0.0796586
-0.0515719
-0.0188077
0.0134974
0.0423133
0.0665362
0.0861786
0.101691
0.113615
0.122461
0.128693
0.132714
0.134865
0.135465
0.13489
0.133467
0.131063
0.126441
-0.054988
-0.051878
-0.0351583
-0.00861416
0.0220055
0.0517699
0.0778922
0.0994475
0.116543
0.129662
0.13935
0.146119
0.150424
0.152661
0.153162
0.152271
0.150386
0.14761
0.143334
0.137064
-0.0067235
-0.00479589
0.0106683
0.0354334
0.063668
0.0906874
0.113957
0.132721
0.14717
0.157811
0.165194
0.169827
0.172158
0.17257
0.171395
0.168999
0.165753
0.161482
0.155327
0.149607
0.0427088
0.0433762
0.0574481
0.0802214
0.105866
0.129974
0.150265
0.166143
0.177869
0.185972
0.191
0.193456
0.193779
0.192341
0.189477
0.185558
0.180879
0.175084
0.167587
0.162099
0.0928752
0.0922328
0.104789
0.12539
0.148277
0.169345
0.186566
0.199493
0.208447
0.213972
0.216616
0.216871
0.215169
0.211873
0.207317
0.201861
0.195725
0.188496
0.179941
0.174083
0.14334
0.141358
0.152291
0.170574
0.190578
0.208516
0.22261
0.23255
0.238708
0.241639
0.241887
0.239937
0.23621
0.23106
0.224817
0.217824
0.210237
0.201671
0.192172
0.185635
0.193666
0.19033
0.199552
0.215407
0.23244
0.247198
0.258142
0.265088
0.268452
0.268797
0.26666
0.262518
0.256781
0.249796
0.241885
0.233366
0.224359
0.214529
0.204102
0.19672
0.243414
0.238723
0.246171
0.259525
0.273542
0.285106
0.292911
0.296885
0.297483
0.295271
0.29078
0.284478
0.276763
0.267975
0.258426
0.24841
0.238024
0.226988
0.215644
0.207334
0.29215
0.286118
0.291753
0.30257
0.313563
0.321959
0.326667
0.327721
0.325606
0.320889
0.314095
0.305682
0.296038
0.285492
0.274347
0.262876
0.25116
0.23897
0.226719
0.217439
0.339448
0.332101
0.335912
0.344191
0.352195
0.357481
0.359169
0.357381
0.35263
0.345483
0.336457
0.326
0.31449
0.302246
0.28956
0.276686
0.263696
0.250404
0.237267
0.226998
0.384895
0.376273
0.378274
0.384052
0.389136
0.391408
0.39018
0.385656
0.37837
0.368889
0.357721
0.345304
0.332006
0.318138
0.303978
0.289764
0.275561
0.261226
0.247233
0.235974
0.428094
0.418248
0.418482
0.421829
0.4241
0.423486
0.419476
0.412346
0.40265
0.390951
0.377749
0.363472
0.348479
0.333072
0.317516
0.302035
0.28669
0.271376
0.256564
0.24433
0.468667
0.457663
0.456197
0.457218
0.456815
0.453473
0.446842
0.437263
0.425302
0.41152
0.396409
0.380388
0.363807
0.346958
0.330097
0.31343
0.29702
0.280797
0.265213
0.25203
0.506261
0.494175
0.491102
0.489932
0.487029
0.481145
0.47208
0.460229
0.446169
0.430457
0.413578
0.395943
0.377894
0.359713
0.341645
0.323884
0.306494
0.289438
0.273133
0.259044
0.540548
0.527469
0.522903
0.519708
0.514505
0.506294
0.495004
0.481078
0.465103
0.447632
0.429142
0.410038
0.390651
0.371258
0.352092
0.333336
0.315059
0.29725
0.280284
0.265342
0.57123
0.557257
0.551335
0.546307
0.539031
0.52873
0.515446
0.499663
0.481974
0.462928
0.442998
0.422579
0.401998
0.381522
0.361376
0.341731
0.322664
0.304189
0.286627
0.270901
0.59804
0.583282
0.57616
0.569515
0.560418
0.548285
0.533256
0.515848
0.496661
0.476241
0.455053
0.433486
0.411862
0.390442
0.36944
0.349021
0.329268
0.310215
0.29213
0.275698
0.620746
0.60532
0.597171
0.589146
0.578499
0.56481
0.548302
0.529519
0.509063
0.487478
0.465225
0.442688
0.420181
0.397962
0.376237
0.355163
0.334831
0.315293
0.296763
0.279717
0.639151
0.623181
0.614193
0.605042
0.593134
0.578183
0.560475
0.540576
0.519091
0.496563
0.473446
0.450122
0.426901
0.404035
0.381724
0.360121
0.339321
0.319393
0.3005
0.282946
0.653096
0.636713
0.627084
0.617077
0.604211
0.588301
0.569684
0.548939
0.526675
0.503431
0.479661
0.455742
0.43198
0.408623
0.385869
0.363865
0.342712
0.32249
0.303321
0.285374
0.66246
0.645799
0.635739
0.625154
0.611644
0.59509
0.575861
0.554548
0.531761
0.508037
0.483828
0.459509
0.435384
0.411698
0.388646
0.366374
0.344984
0.324565
0.305211
0.286996
0.667163
0.650362
0.640084
0.629209
0.615374
0.598497
0.578961
0.557363
0.534313
0.510348
0.485919
0.461399
0.437091
0.413241
0.390039
0.367631
0.346123
0.325606
0.306159
0.287808
0.667163
0.650362
0.640084
0.629209
0.615374
0.598497
0.578961
0.557363
0.534313
0.510348
0.485919
0.461399
0.437091
0.413241
0.390039
0.367632
0.346123
0.325606
0.306159
0.287808
0.662461
0.645799
0.635739
0.625154
0.611644
0.59509
0.575861
0.554548
0.531761
0.508037
0.483828
0.459509
0.435384
0.411698
0.388647
0.366374
0.344984
0.324565
0.305211
0.286996
0.653096
0.636713
0.627085
0.617077
0.604211
0.588301
0.569684
0.548939
0.526676
0.503432
0.479662
0.455742
0.43198
0.408623
0.385869
0.363865
0.342712
0.32249
0.303322
0.285374
0.639152
0.623182
0.614193
0.605043
0.593135
0.578183
0.560475
0.540576
0.519092
0.496563
0.473446
0.450123
0.426902
0.404035
0.381724
0.360121
0.339321
0.319393
0.3005
0.282946
0.620746
0.60532
0.597171
0.589146
0.578499
0.564811
0.548303
0.529519
0.509063
0.487478
0.465225
0.442688
0.420181
0.397962
0.376237
0.355164
0.334831
0.315293
0.296763
0.279718
0.59804
0.583282
0.57616
0.569516
0.560418
0.548285
0.533256
0.515849
0.496662
0.476241
0.455053
0.433487
0.411863
0.390442
0.36944
0.349022
0.329268
0.310215
0.292131
0.275698
0.57123
0.557258
0.551335
0.546308
0.539032
0.528731
0.515447
0.499663
0.481974
0.462929
0.442999
0.42258
0.401998
0.381522
0.361376
0.341732
0.322664
0.304189
0.286628
0.270901
0.540548
0.52747
0.522904
0.519709
0.514505
0.506295
0.495005
0.481079
0.465104
0.447632
0.429143
0.410038
0.390651
0.371258
0.352092
0.333336
0.315059
0.297251
0.280284
0.265343
0.506261
0.494176
0.491102
0.489933
0.487029
0.481146
0.472081
0.460229
0.446169
0.430457
0.413578
0.395944
0.377894
0.359714
0.341645
0.323884
0.306495
0.289439
0.273133
0.259044
0.468668
0.457664
0.456198
0.457218
0.456816
0.453474
0.446843
0.437264
0.425303
0.411521
0.396409
0.380388
0.363807
0.346959
0.330097
0.31343
0.29702
0.280798
0.265213
0.25203
0.428094
0.418249
0.418483
0.42183
0.424101
0.423487
0.419476
0.412347
0.402651
0.390952
0.377749
0.363472
0.348479
0.333072
0.317517
0.302035
0.28669
0.271377
0.256565
0.24433
0.384896
0.376274
0.378275
0.384053
0.389137
0.391409
0.390181
0.385656
0.378371
0.36889
0.357722
0.345304
0.332006
0.318138
0.303978
0.289764
0.275561
0.261227
0.247233
0.235974
0.339449
0.332102
0.335913
0.344192
0.352196
0.357482
0.35917
0.357381
0.35263
0.345484
0.336458
0.326001
0.31449
0.302247
0.289561
0.276687
0.263696
0.250405
0.237267
0.226999
0.292151
0.286119
0.291754
0.302571
0.313564
0.32196
0.326668
0.327722
0.325606
0.32089
0.314096
0.305683
0.296039
0.285493
0.274348
0.262877
0.251161
0.238971
0.226719
0.217439
0.243415
0.238725
0.246172
0.259526
0.273543
0.285107
0.292912
0.296886
0.297484
0.295272
0.290781
0.284479
0.276764
0.267976
0.258426
0.248411
0.238025
0.226989
0.215644
0.207334
0.193667
0.190331
0.199553
0.215409
0.232442
0.247199
0.258143
0.265089
0.268453
0.268798
0.266661
0.262519
0.256782
0.249797
0.241886
0.233367
0.22436
0.214529
0.204103
0.196721
0.143342
0.14136
0.152292
0.170576
0.190579
0.208517
0.222611
0.232551
0.238709
0.24164
0.241888
0.239938
0.23621
0.231061
0.224818
0.217824
0.210237
0.201671
0.192172
0.185635
0.0928768
0.0922345
0.104791
0.125392
0.148279
0.169347
0.186568
0.199495
0.208449
0.213973
0.216617
0.216872
0.21517
0.211874
0.207317
0.201862
0.195726
0.188496
0.179942
0.174083
0.0427105
0.0433779
0.0574498
0.080223
0.105867
0.129975
0.150266
0.166144
0.17787
0.185973
0.191001
0.193457
0.19378
0.192342
0.189478
0.185559
0.18088
0.175085
0.167588
0.1621
-0.00672167
-0.00479407
0.0106701
0.0354351
0.0636696
0.0906889
0.113958
0.132723
0.147171
0.157812
0.165195
0.169828
0.172159
0.172571
0.171396
0.169
0.165754
0.161483
0.155328
0.149607
-0.054986
-0.0518761
-0.0351565
-0.0086124
0.0220071
0.0517714
0.0778936
0.0994489
0.116544
0.129663
0.139351
0.14612
0.150425
0.152662
0.153163
0.152272
0.150387
0.147611
0.143335
0.137065
-0.101695
-0.0974478
-0.0796566
-0.0515701
-0.018806
0.013499
0.0423149
0.0665376
0.0861799
0.101693
0.113616
0.122462
0.128694
0.132715
0.134866
0.135466
0.134891
0.133468
0.131064
0.126442
-0.146728
-0.140976
-0.122503
-0.0931025
-0.0584669
-0.0238614
0.00745684
0.0341957
0.0562608
0.0740633
0.0881329
0.0989823
0.107076
0.112828
0.116587
0.118662
0.119383
0.119191
0.1184
0.115726
-0.189385
-0.182234
-0.163459
-0.132909
-0.0966899
-0.0600549
-0.026456
0.00262096
0.0269619
0.0469295
0.0630391
0.0758007
0.08568
0.0930946
0.0984074
0.101922
0.103931
0.104892
0.105385
0.104278
-0.229324
-0.221046
-0.20182
-0.170831
-0.133212
-0.0948395
-0.0592114
-0.0279995
-0.0015517
0.0204376
0.0384641
0.0530321
0.0646062
0.0736059
0.0804024
0.0853038
0.0885748
0.0906475
0.0922267
0.0923709
-0.266313
-0.257092
-0.237483
-0.20628
-0.167852
-0.12799
-0.0906097
-0.0574908
-0.0291255
-0.00527578
0.0145289
0.0307839
0.0439502
0.0544459
0.062647
0.0688676
0.0733563
0.0765104
0.0790896
0.0803445
-0.300164
-0.290083
-0.270305
-0.239054
-0.200246
-0.159319
-0.120467
-0.085691
-0.0556174
-0.030085
-0.00865465
0.00915556
0.0238001
0.0356935
0.0452123
0.052676
0.0583254
0.0625231
0.0660482
0.0683415
-0.330691
-0.319807
-0.30007
-0.269068
-0.230149
-0.188609
-0.148616
-0.112454
-0.0808982
-0.0538766
-0.0309851
-0.0117622
0.00423664
0.0174207
0.0281641
0.0367892
0.0435331
0.048724
0.0531386
0.0564051
-0.357737
-0.346114
-0.326601
-0.29615
-0.257473
-0.215665
-0.17491
-0.137652
-0.104853
-0.0765497
-0.052372
-0.0318879
-0.0146673
-0.00030679
0.0115618
0.0212614
0.0290275
0.0351523
0.0403945
0.0445696
-0.381198
-0.368907
-0.349772
-0.320143
-0.282084
-0.240381
-0.199219
-0.161187
-0.127378
-0.0980166
-0.0727361
-0.0511491
-0.0328483
-0.0174307
-0.00454178
0.00614108
0.0148526
0.0218474
0.0278538
0.0328767
-0.401026
-0.388145
-0.369515
-0.340946
-0.303862
-0.262656
-0.221449
-0.182962
-0.148443
-0.118183
-0.0920109
-0.0694829
-0.0502519
-0.0338993
-0.0201006
-0.00852912
0.00104761
0.00884637
0.0155524
0.0213666
-0.417227
-0.40384
-0.38582
-0.358516
-0.322733
-0.282407
-0.241522
-0.202895
-0.16794
-0.137059
-0.11014
-0.0868367
-0.0668327
-0.0496675
-0.0350756
-0.0227115
-0.0123535
-0.00381673
0.00351952
0.0100726
-0.429864
-0.41606
-0.398728
-0.372855
-0.338664
-0.299582
-0.259386
-0.22094
-0.185816
-0.154552
-0.127113
-0.10322
-0.0825336
-0.0647
-0.0494343
-0.0363735
-0.0253235
-0.01611
-0.00822368
-0.000980642
-0.439053
-0.424924
-0.408335
-0.384016
-0.351665
-0.314164
-0.275012
-0.237072
-0.20205
-0.170632
-0.142877
-0.118563
-0.097374
-0.0789989
-0.06314
-0.0494903
-0.0378422
-0.0280048
-0.0196526
-0.0117848
-0.444961
-0.430606
-0.414789
-0.392102
-0.361787
-0.326166
-0.288396
-0.251281
-0.216638
-0.185292
-0.157413
-0.132845
-0.111313
-0.0925267
-0.0762033
-0.0620706
-0.0498837
-0.0394882
-0.0307194
-0.0223631
-0.4478
-0.433321
-0.418287
-0.397265
-0.369125
-0.335636
-0.299559
-0.263578
-0.229584
-0.198538
-0.170726
-0.146068
-0.124336
-0.105266
-0.088596
-0.0740743
-0.0614575
-0.0505954
-0.0413308
-0.0327745
-0.447822
-0.433328
-0.419067
-0.399699
-0.373815
-0.342656
-0.308548
-0.273989
-0.240908
-0.210387
-0.18283
-0.158242
-0.136449
-0.117217
-0.100308
-0.0854908
-0.0725371
-0.0612866
-0.051603
-0.042863
-0.445312
-0.430913
-0.417406
-0.399643
-0.376032
-0.347341
-0.315431
-0.282562
-0.250644
-0.220865
-0.193746
-0.169385
-0.147664
-0.128389
-0.111345
-0.0963233
-0.0831133
-0.0715533
-0.061532
-0.0525078
-0.440581
-0.426389
-0.413608
-0.397367
-0.37599
-0.349838
-0.320306
-0.289359
-0.25884
-0.230011
-0.203507
-0.179522
-0.158003
-0.138797
-0.12172
-0.106581
-0.0931906
-0.0813914
-0.0710897
-0.0617632
-0.433953
-0.420081
-0.407995
-0.39317
-0.373934
-0.350326
-0.323293
-0.294463
-0.265556
-0.237873
-0.212153
-0.188685
-0.167491
-0.148463
-0.131446
-0.116275
-0.102778
-0.0908041
-0.0802784
-0.0707058
-0.42576
-0.412317
-0.400897
-0.387367
-0.370138
-0.349011
-0.324533
-0.29797
-0.270863
-0.244509
-0.21973
-0.196915
-0.17616
-0.157411
-0.140545
-0.125422
-0.11189
-0.0998036
-0.0891136
-0.0793707
-0.416333
-0.403421
-0.392642
-0.38028
-0.36489
-0.346126
-0.324192
-0.299992
-0.27484
-0.24998
-0.226293
-0.204257
-0.18405
-0.165673
-0.149042
-0.134041
-0.120542
-0.108405
-0.0976066
-0.0877637
-0.405987
-0.393703
-0.383546
-0.372227
-0.358489
-0.34192
-0.322456
-0.300658
-0.277578
-0.254356
-0.231899
-0.210762
-0.191204
-0.173286
-0.156966
-0.142158
-0.128754
-0.116626
-0.105765
-0.0958795
-0.395024
-0.383448
-0.373903
-0.363513
-0.351235
-0.336655
-0.319528
-0.300111
-0.279174
-0.25771
-0.236608
-0.216482
-0.197667
-0.180289
-0.164351
-0.149798
-0.136548
-0.124483
-0.113601
-0.103718
-0.383714
-0.372918
-0.363978
-0.354418
-0.343411
-0.330596
-0.315624
-0.298506
-0.279737
-0.26012
-0.240481
-0.22147
-0.203488
-0.186724
-0.171234
-0.156993
-0.143948
-0.131997
-0.121131
-0.111289
-0.372303
-0.362337
-0.354003
-0.345192
-0.335283
-0.324002
-0.310967
-0.296013
-0.279383
-0.261664
-0.243581
-0.225779
-0.208713
-0.192634
-0.17765
-0.163775
-0.150982
-0.13919
-0.128375
-0.118607
-0.360998
-0.351899
-0.344172
-0.336045
-0.327084
-0.317117
-0.305781
-0.29281
-0.278236
-0.262427
-0.245967
-0.22946
-0.213388
-0.198062
-0.18364
-0.170177
-0.157678
-0.146087
-0.135355
-0.125689
-0.349975
-0.341759
-0.334643
-0.327153
-0.319013
-0.310157
-0.300281
-0.289079
-0.27643
-0.262499
-0.2477
-0.232559
-0.217558
-0.203049
-0.189242
-0.176235
-0.164065
-0.152712
-0.142093
-0.132554
-0.339373
-0.33204
-0.325535
-0.318646
-0.311228
-0.303308
-0.294666
-0.285002
-0.274107
-0.261974
-0.248841
-0.235121
-0.221259
-0.207631
-0.194492
-0.181984
-0.170176
-0.159093
-0.148614
-0.13922
-0.329298
-0.322832
-0.316934
-0.310621
-0.303848
-0.296721
-0.289106
-0.280753
-0.271412
-0.260955
-0.249456
-0.237187
-0.224525
-0.211841
-0.199422
-0.187456
-0.176041
-0.165257
-0.154942
-0.145709
-0.319827
-0.314196
-0.308894
-0.303137
-0.296953
-0.290505
-0.283744
-0.276486
-0.268488
-0.25955
-0.24961
-0.238796
-0.227382
-0.215703
-0.204061
-0.192681
-0.181689
-0.171231
-0.161102
-0.15204
-0.311009
-0.306168
-0.301446
-0.296226
-0.290589
-0.284735
-0.278687
-0.272334
-0.265472
-0.257873
-0.249381
-0.239989
-0.229852
-0.219236
-0.208428
-0.197683
-0.187149
-0.177041
-0.167118
-0.158237
-0.302869
-0.298763
-0.294597
-0.289896
-0.284773
-0.279451
-0.274009
-0.268402
-0.262483
-0.256034
-0.248849
-0.240812
-0.231955
-0.222447
-0.212534
-0.202479
-0.192441
-0.182711
-0.173015
-0.16432
-0.295414
-0.291982
-0.288341
-0.284137
-0.279503
-0.274668
-0.26975
-0.264764
-0.259621
-0.25414
-0.2481
-0.241316
-0.233709
-0.22534
-0.216378
-0.207075
-0.197582
-0.188262
-0.178815
-0.170311
-0.288636
-0.285809
-0.282658
-0.278926
-0.274758
-0.270377
-0.265926
-0.261466
-0.256962
-0.252282
-0.247221
-0.241561
-0.23514
-0.227912
-0.219949
-0.211464
-0.202573
-0.193707
-0.184534
-0.176234
-0.282512
-0.280221
-0.277519
-0.274233
-0.270507
-0.266555
-0.262532
-0.258529
-0.254557
-0.250535
-0.246293
-0.241612
-0.23628
-0.230164
-0.223229
-0.215625
-0.207404
-0.199047
-0.190189
-0.182105
-0.277012
-0.275185
-0.272891
-0.270019
-0.266713
-0.26317
-0.259546
-0.255953
-0.252435
-0.248955
-0.245387
-0.241536
-0.237171
-0.232103
-0.226197
-0.219523
-0.212047
-0.204271
-0.195764
-0.187977
-0.272093
-0.270662
-0.268732
-0.266245
-0.263336
-0.260182
-0.256938
-0.253722
-0.250602
-0.247575
-0.244559
-0.241394
-0.237862
-0.233744
-0.228832
-0.223117
-0.216449
-0.209347
-0.201249
-0.193822
-0.267708
-0.266607
-0.265002
-0.262868
-0.26033
-0.257548
-0.254668
-0.251808
-0.249048
-0.24641
-0.243848
-0.241242
-0.238404
-0.235116
-0.231129
-0.226358
-0.220563
-0.214188
-0.206605
-0.199758
-0.263802
-0.262974
-0.261653
-0.259842
-0.257652
-0.255225
-0.252694
-0.250174
-0.247749
-0.245456
-0.243274
-0.241123
-0.238849
-0.236257
-0.233094
-0.229214
-0.224307
-0.218763
-0.211669
-0.205542
-0.260316
-0.259711
-0.25864
-0.257123
-0.255257
-0.253166
-0.25097
-0.248778
-0.246672
-0.244693
-0.24284
-0.24106
-0.23924
-0.237212
-0.23475
-0.231661
-0.227674
-0.222771
-0.217117
-0.209975
-0.257191
-0.256769
-0.255916
-0.254665
-0.253099
-0.251326
-0.249453
-0.247578
-0.245774
-0.244089
-0.24253
-0.241063
-0.239605
-0.238025
-0.236139
-0.233694
-0.230681
-0.226078
-0.222529
-0.213794
-0.254366
-0.254095
-0.253434
-0.252424
-0.251137
-0.249661
-0.248094
-0.246521
-0.24501
-0.243604
-0.242314
-0.241119
-0.239959
-0.238729
-0.237307
-0.235339
-0.23332
-0.228615
-0.227431
-0.217106
-0.251784
-0.251644
-0.251152
-0.250362
-0.249329
-0.248132
-0.246853
-0.245567
-0.244335
-0.243194
-0.242154
-0.241203
-0.240294
-0.239342
-0.238288
-0.236652
-0.235574
-0.230451
-0.231844
-0.219617
-0.249391
-0.249369
-0.249033
-0.24844
-0.247642
-0.246701
-0.24569
-0.244675
-0.243706
-0.242815
-0.24201
-0.241281
-0.24059
-0.23987
-0.239102
-0.237708
-0.237415
-0.231804
-0.235727
-0.221256
-0.247144
-0.247236
-0.247043
-0.246631
-0.246044
-0.245339
-0.244575
-0.24381
-0.243085
-0.242427
-0.241841
-0.241316
-0.24082
-0.240299
-0.239749
-0.238571
-0.238807
-0.232955
-0.238806
-0.222289
-0.245007
-0.245214
-0.245155
-0.244908
-0.244515
-0.244021
-0.243482
-0.242944
-0.242444
-0.241999
-0.241614
-0.241276
-0.240955
-0.240609
-0.240224
-0.239269
-0.239743
-0.234094
-0.240813
-0.223202
-0.242952
-0.243283
-0.243351
-0.243254
-0.243036
-0.242734
-0.242395
-0.242061
-0.241761
-0.241509
-0.241305
-0.241134
-0.24097
-0.240777
-0.240521
-0.239794
-0.240272
-0.235236
-0.24174
-0.224382
-0.240964
-0.241428
-0.241619
-0.241661
-0.241599
-0.241467
-0.241305
-0.241151
-0.241028
-0.240945
-0.2409
-0.240877
-0.240849
-0.240786
-0.240638
-0.240119
-0.240478
-0.236266
-0.241833
-0.225887
-0.239039
-0.239645
-0.239955
-0.240124
-0.240203
-0.24022
-0.240213
-0.240214
-0.240243
-0.240306
-0.240397
-0.2405
-0.240589
-0.240635
-0.240578
-0.240224
-0.240443
-0.237043
-0.241416
-0.227513
-0.237179
-0.237936
-0.238362
-0.238648
-0.238851
-0.238998
-0.239124
-0.239257
-0.239415
-0.2396
-0.239806
-0.240014
-0.240199
-0.240331
-0.240351
-0.240103
-0.240247
-0.237478
-0.240759
-0.229006
-0.235399
-0.236312
-0.236849