/*--------------------------------*- C++ -*----------------------------------*\
  =========                 |
  \\      /  F ield         | OpenFOAM: The Open Source CFD Toolbox
   \\    /   O peration     | Website:  https://openfoam.org
    \\  /    A nd           | Version:  7
     \\/     M anipulation  |
\*---------------------------------------------------------------------------*/
FoamFile
{
    version     2.0;
    format      ascii;
    class       volVectorField;
    location    "7";
    object      U;
}
// * * * * * * * * * * * * * * * * * * * * * * * * * * * * * * * * * * * * * //

dimensions      [0 1 -1 0 0 0 0];

internalField   nonuniform List<vector> 
433
(
(-3.21489 -1.1188 3.57311e-19)
(-0.65206 0.630099 -2.60721e-17)
(-1.64667 1.48272 2.51827e-17)
(1.09803 0.725894 -5.38456e-18)
(-0.923787 -0.288567 2.29796e-17)
(-5.47378 -2.87112 -1.47736e-17)
(-8.15394 -4.87493 -1.80023e-17)
(0.0183036 -0.678707 2.15677e-17)
(-2.00479 -2.83689 -4.44236e-17)
(-5.07944 -5.40544 5.03048e-17)
(-6.25103 -6.41026 -5.53445e-18)
(-4.69703 -5.2314 -1.08733e-17)
(-1.64112 -3.0436 -1.86507e-17)
(-2.79359 -2.21833 -3.28612e-17)
(-5.08155 -4.27123 9.53997e-17)
(-4.66123 -4.3217 -1.3891e-17)
(-3.29672 -3.29824 3.16745e-18)
(-1.62591 -1.73099 -6.8104e-17)
(0.794958 -0.121084 6.34174e-18)
(3.51866 1.20147 2.80725e-17)
(5.73098 1.98705 -2.11072e-19)
(-2.51406 -1.08068 7.29875e-18)
(-3.72112 -0.976801 -1.92468e-17)
(-2.35982 0.836696 3.37066e-17)
(-0.971501 2.18032 -1.6704e-18)
(-0.212231 2.60865 -7.92705e-18)
(0.722438 2.78989 -5.54335e-18)
(2.15529 2.99987 5.03605e-18)
(3.99092 3.29996 -1.77257e-17)
(5.80003 3.60135 -1.05654e-18)
(6.96948 3.73873 -2.9314e-19)
(-0.407368 0.610643 -4.13731e-17)
(-2.29774 0.435678 -5.35001e-17)
(-4.91428 -0.724329 3.70594e-17)
(-6.61451 -2.13411 6.43176e-17)
(-6.81177 -2.97523 -7.78167e-17)
(-5.82924 -2.77213 -1.70834e-17)
(-4.05722 -1.74593 1.84412e-17)
(-1.88352 -0.309744 9.08064e-18)
(0.356354 1.13514 3.9008e-17)
(2.27323 2.22469 -3.57204e-17)
(3.4532 2.71898 5.3443e-18)
(3.68466 2.59998 -1.88486e-18)
(1.19593 0.874616 1.3418e-18)
(-0.230867 -0.452744 3.51554e-18)
(-4.01667 -3.71122 -2.89521e-18)
(-6.10435 -5.62747 1.29453e-18)
(-5.55628 -5.09607 -2.32142e-18)
(-3.77623 -3.11178 -6.80403e-18)
(-1.96868 -0.784986 1.11872e-17)
(-0.681401 1.12104 -8.09797e-18)
(0.141475 2.34748 1.30253e-18)
(0.691248 2.89335 -3.60532e-19)
(1.00807 2.83404 -2.91249e-18)
(1.04871 2.31309 3.66872e-18)
(0.839575 1.56307 3.36672e-19)
(0.506353 0.827986 -3.77604e-18)
(-0.134455 -0.908061 3.07007e-17)
(-1.43802 -3.14099 -6.88082e-17)
(-3.17183 -5.45801 4.47914e-17)
(-3.67349 -6.04715 3.73324e-17)
(-2.58892 -4.54611 -8.01688e-17)
(-0.611442 -2.25385 6.30744e-17)
(1.14799 -0.174744 -3.73846e-17)
(2.01238 1.14349 -2.09071e-18)
(2.01578 1.69676 3.39097e-17)
(1.57776 1.73112 -2.14015e-17)
(1.06524 1.47249 -5.17193e-18)
(0.641785 1.06335 -3.02278e-17)
(0.33739 0.618015 3.20593e-17)
(0.141717 0.2381 1.35748e-17)
(0.0399971 -0.0140822 -3.02788e-17)
(0.0143805 -0.129864 1.94414e-17)
(-2.39516 -2.68701 -2.05965e-17)
(-3.98487 -4.82399 1.68648e-17)
(-2.86354 -4.20869 7.42127e-18)
(-1.11944 -2.673 7.37367e-18)
(0.358608 -1.06079 -6.11287e-18)
(2.1323 0.466775 -3.67635e-17)
(4.01014 1.76429 3.93593e-17)
(5.46374 2.61915 6.26086e-18)
(6.001 2.89648 -2.18689e-17)
(5.51638 2.66171 2.30712e-17)
(4.35427 2.13822 -2.40837e-17)
(3.02231 1.56385 -7.38836e-18)
(1.89281 1.08066 5.87778e-17)
(1.11012 0.729737 -2.33275e-17)
(0.652301 0.498227 -1.05952e-17)
(0.429106 0.359034 -2.64647e-18)
(0.347837 0.286629 -8.56524e-18)
(0.3399 0.258092 2.15005e-17)
(-2.31446 -1.56386 -1.50218e-18)
(-3.78643 -2.00699 -1.07573e-18)
(-3.02107 -0.477093 1.76524e-17)
(-1.8738 0.663258 1.66963e-17)
(-0.916269 0.984216 -2.05091e-17)
(0.328866 1.35487 -2.26081e-17)
(1.98392 2.0475 1.74847e-18)
(3.8184 2.98719 7.43164e-18)
(5.36979 3.88398 1.32395e-17)
(6.15278 4.39915 -2.3436e-18)
(5.94512 4.3254 -4.66132e-18)
(4.92936 3.72342 3.18172e-18)
(3.55963 2.85501 -2.54829e-18)
(2.27932 1.99676 6.87013e-19)
(1.32823 1.31691 -4.75315e-19)
(0.743051 0.858458 2.29449e-18)
(0.447044 0.587645 -1.55078e-18)
(0.331057 0.44702 -3.91131e-19)
(0.307651 0.383949 -7.79006e-19)
(0.326391 0.360785 2.71531e-18)
(0.360291 0.357482 -4.42907e-18)
(-0.620916 0.333318 -3.54017e-18)
(-2.83997 -0.706577 6.2059e-18)
(-5.56838 -2.86004 3.91905e-17)
(-6.99425 -4.53891 2.64431e-17)
(-6.65135 -4.8685 -4.15212e-17)
(-5.1863 -3.75901 1.34046e-17)
(-3.11198 -1.77667 -4.12717e-17)
(-0.865189 0.447558 5.53401e-17)
(1.17315 2.36301 -3.39489e-17)
(2.63705 3.55323 2.14166e-17)
(3.27451 3.84455 -3.19728e-17)
(3.11071 3.37027 4.20481e-17)
(2.43485 2.47994 -1.5296e-17)
(1.61348 1.54476 -8.03693e-18)
(0.915666 0.806749 -1.2747e-18)
(0.452599 0.347058 -5.04677e-18)
(0.211763 0.133842 5.50938e-18)
(0.128176 0.0837179 -5.18695e-18)
(0.137499 0.113155 3.27456e-18)
(0.189764 0.167863 2.07664e-19)
(0.253977 0.223537 9.49929e-19)
(0.316609 0.272609 -1.08648e-19)
(0.374032 0.314424 -2.52159e-20)
(0.958553 1.05597 1.18966e-18)
(-0.304361 -0.447316 -2.48679e-18)
(-3.50617 -4.12954 1.46727e-18)
(-5.27974 -5.93613 -9.08819e-19)
(-4.94291 -4.89888 5.71516e-19)
(-3.70112 -2.50521 -1.7717e-18)
(-2.41354 -0.0476084 3.26662e-18)
(-1.38283 1.79696 -3.22156e-18)
(-0.581888 2.8613 2.73028e-18)
(0.0225354 3.17879 -6.31778e-18)
(0.390616 2.86693 -1.35853e-18)
(0.504069 2.1416 6.03636e-18)
(0.424684 1.28192 -4.18591e-18)
(0.263948 0.529455 1.81324e-18)
(0.116675 0.0162403 -4.07164e-18)
(0.0315857 -0.241119 -1.26364e-19)
(0.0155409 -0.300889 1.31676e-18)
(0.0526491 -0.242629 -2.59596e-19)
(0.118208 -0.134482 2.12845e-19)
(0.191269 -0.0191898 1.32955e-19)
(0.261264 0.0828495 -2.12125e-18)
(0.324102 0.167353 2.51062e-18)
(0.379528 0.236555 1.99598e-18)
(0.428765 0.293825 1.91102e-19)
(0.473071 0.341998 -3.94583e-18)
(0.126004 -0.858011 3.20014e-17)
(-0.525256 -3.04528 -6.60463e-17)
(-1.5347 -5.31801 -3.15208e-17)
(-1.91861 -5.86333 4.34231e-17)
(-1.47237 -4.43642 4.14447e-17)
(-0.484874 -2.30056 4.20783e-19)
(0.390426 -0.360965 -7.61479e-17)
(0.798161 0.907064 3.9557e-17)
(0.786933 1.47456 3.26722e-17)
(0.585635 1.52404 -2.34258e-17)
(0.375936 1.25506 -3.04332e-17)
(0.228552 0.838226 3.41947e-17)
(0.148453 0.416584 -1.17628e-17)
(0.121552 0.0899128 1.02658e-17)
(0.132048 -0.102626 -3.3269e-17)
(0.167746 -0.174429 4.68621e-18)
(0.21744 -0.163477 2.44758e-17)
(0.270459 -0.107273 2.78705e-18)
(0.318079 -0.0319665 -6.44222e-19)
(0.358039 0.0464689 -1.11604e-17)
(0.391717 0.119889 1.74541e-18)
(0.42182 0.185388 2.91502e-18)
(0.45001 0.243188 -5.4603e-18)
(0.477128 0.29429 3.69959e-18)
(0.503724 0.339357 -1.71604e-18)
(-1.76215 -3.0449 -9.19843e-18)
(-2.65972 -5.22231 -4.5465e-18)
(-1.19795 -4.07345 4.39433e-17)
(0.652001 -2.01419 -3.60153e-17)
(2.00606 -0.157245 1.74769e-17)
(3.3478 1.55419 2.4114e-17)
(4.50563 2.99085 -7.57287e-17)
(5.1032 3.87268 3.03026e-17)
(4.90745 4.031 -1.05055e-17)
(4.04437 3.56758 3.77734e-17)
(2.90296 2.78494 -1.75086e-17)
(1.85799 1.98243 8.90309e-18)
(1.1012 1.3284 9.19652e-18)
(0.650917 0.862697 -2.35013e-17)
(0.434869 0.561541 7.77753e-18)
(0.361754 0.384737 1.48141e-18)
(0.360134 0.29264 -1.0857e-17)
(0.384599 0.252412 -1.97897e-18)
(0.412119 0.242649 1.16891e-18)
(0.434534 0.250535 2.1386e-18)
(0.451951 0.268383 2.58022e-18)
(0.466772 0.291753 -2.84053e-18)
(0.481026 0.31825 -4.85024e-18)
(0.496179 0.346164 4.92155e-18)
(-2.11988 -2.2029 -2.69363e-17)
(-3.73272 -3.36212 1.11515e-17)
(-3.29932 -2.13106 -1.6111e-17)
(-2.14182 -0.831152 3.34037e-17)
(-0.727592 0.0469977 -1.13201e-17)
(1.01072 1.30357 -1.29109e-17)
(2.89623 2.92766 -9.67856e-19)
(4.47582 4.48354 -1.70708e-17)
(5.29204 5.43816 1.27127e-17)
(5.1675 5.49333 -1.26021e-17)
(4.29906 4.75845 1.51896e-18)
(3.10697 3.61581 5.052e-18)
(1.98748 2.45771 -3.6427e-18)
(1.15429 1.52355 -2.27419e-18)
(0.643075 0.887815 2.46392e-19)
(0.389482 0.518075 -2.06118e-18)
(0.299154 0.338273 2.26762e-18)
(0.292138 0.272261 -7.29115e-19)
(0.319007 0.262719 2.75223e-19)
(0.353793 0.276729 -8.54142e-19)
(0.385736 0.298763 2.00466e-18)
(0.413111 0.322442 -2.79498e-20)
(-0.860524 -0.0878982 -2.93293e-17)
(-3.2773 -2.00397 2.38595e-17)
(-5.87502 -4.75565 -1.86719e-18)
(-7.03689 -6.04699 1.1049e-19)
(-6.4229 -5.26531 -7.26042e-17)
(-4.74216 -2.88439 4.39872e-17)
(-2.46655 0.170002 2.52553e-17)
(-0.170642 2.93682 -4.07576e-17)
(1.57138 4.65407 8.58613e-18)
(2.44393 5.03993 -5.26302e-18)
(2.50902 4.34489 -1.32011e-17)
(2.07734 3.09472 2.93748e-17)
(1.48303 1.79401 -3.38388e-17)
(0.953128 0.76605 9.19138e-18)
(0.58287 0.128867 -7.84065e-18)
(0.3718 -0.154355 1.15276e-17)
(0.278646 -0.197717 7.29522e-18)
(0.25809 -0.120909 -3.84916e-18)
(0.274185 -0.0080165 -1.52686e-19)
(0.304056 0.0981175 -1.94717e-18)
(0.336025 0.18403 7.9327e-19)
(0.835884 1.38144 -3.7585e-18)
(-0.0457525 0.230603 9.07085e-18)
(-2.51409 -3.10645 -4.10759e-18)
(-4.42278 -4.45982 1.98604e-18)
(-5.29016 -3.39904 -4.98799e-18)
(-5.63453 -1.55195 2.96977e-18)
(-5.49637 0.223134 1.5939e-18)
(-4.84202 1.57284 -2.77939e-18)
(-3.85844 2.26727 -7.7185e-18)
(-2.84265 2.21466 7.67166e-18)
(-1.99376 1.57958 9.40563e-20)
(-1.36222 0.701025 2.59827e-18)
(-0.905626 -0.0858747 4.23686e-20)
(-0.56416 -0.582971 -6.28529e-19)
(-0.299459 -0.756931 3.13115e-18)
(-0.0940533 -0.692846 -1.29684e-18)
(0.0602457 -0.508454 5.45109e-20)
(0.170764 -0.2981 -9.67341e-19)
(0.247302 -0.113281 -5.60695e-20)
(0.588913 -0.370139 -2.44103e-17)
(1.1725 -1.16796 2.50896e-17)
(1.68684 -1.60717 -8.09895e-17)
(1.98265 -0.81451 6.33021e-17)
(1.82283 0.638422 -9.26882e-18)
(1.18047 1.57134 2.83081e-17)
(0.0573861 1.65471 -3.22495e-17)
(-1.1825 1.12685 -1.79532e-17)
(-2.12746 0.355599 2.22398e-17)
(-2.57261 -0.412582 -1.30601e-17)
(-2.53039 -1.0244 -1.83917e-17)
(-2.14493 -1.36738 1.18206e-17)
(-1.59496 -1.39781 3.23775e-18)
(-1.0335 -1.17563 3.50701e-18)
(-0.550321 -0.82928 1.15322e-18)
(-0.179542 -0.482154 1.7186e-18)
(0.0779221 -0.204477 2.37358e-18)
(0.238447 -0.0108737 -1.12854e-18)
(-0.956055 -2.76541 -1.52096e-17)
(-0.866095 -3.75974 -4.2322e-19)
(1.18039 -0.99391 2.26517e-17)
(3.4303 2.35771 -1.20661e-17)
(5.04631 4.73542 2.78319e-17)
(6.1218 6.25793 5.51732e-18)
(6.35584 6.72882 -1.09009e-17)
(5.58579 5.98168 -2.32325e-18)
(4.06549 4.26351 -3.21833e-17)
(2.35044 2.23301 2.45253e-17)
(0.947626 0.576478 4.43294e-18)
(0.0766507 -0.356928 -6.88841e-18)
(-0.309719 -0.622251 -1.30592e-18)
(-0.370984 -0.486946 -9.95436e-18)
(-0.263246 -0.215144 2.83285e-18)
(-0.0989099 0.0347572 4.66657e-18)
(0.0580829 0.205136 -7.59407e-18)
(-1.47351 -2.06327 -1.97067e-17)
(-2.6726 -3.11977 -3.07568e-17)
(-2.36062 -1.95517 8.91251e-17)
(-1.12379 -0.380908 -5.97261e-17)
(0.732116 1.16389 4.62119e-17)
(2.82634 3.0785 -1.51275e-17)
(4.66657 4.81662 1.61877e-17)
(5.65146 5.58141 -2.71991e-17)
(5.51662 5.0587 1.81615e-17)
(4.52261 3.67767 -1.54288e-17)
(3.20035 2.16804 4.13935e-18)
(1.99393 1.01149 -5.18997e-19)
(1.11205 0.312057 -2.02458e-17)
(0.575751 -0.0274898 1.58341e-17)
(0.310345 -0.136011 -4.70901e-18)
(-0.570068 0.310816 1.00708e-17)
(-2.42211 -1.50715 -5.23475e-17)
(-4.59436 -4.55881 5.48125e-17)
(-5.76499 -5.76533 -7.10841e-17)
(-5.54996 -4.5992 5.58221e-17)
(-4.47194 -1.99533 -2.49938e-17)
(-2.83026 0.919738 2.15774e-17)
(-1.14504 3.10232 2.39096e-17)
(0.0930143 3.96804 -4.18424e-17)
(0.71887 3.61703 3.81176e-18)
(0.86476 2.55802 3.32916e-17)
(0.769055 1.32075 -4.09162e-17)
(0.622446 0.274157 1.44649e-17)
(0.517742 -0.402762 3.15576e-18)
(0.878299 2.10514 8.8678e-18)
(0.815631 2.12216 5.4616e-19)
(-0.532001 -0.399109 -3.98948e-19)
(-2.19628 -1.56444 6.0885e-18)
(-3.79756 -1.18314 -1.19452e-17)
(-5.2727 -0.670565 -6.46883e-18)
(-6.26167 -0.361994 6.53128e-18)
(-6.54956 -0.278106 1.05984e-18)
(-6.21015 -0.51034 -2.02103e-18)
(-5.44533 -1.06264 -1.06491e-18)
(-4.45845 -1.75229 1.16426e-18)
(-3.40042 -2.3096 3.26531e-18)
(-2.38553 -2.5191 -5.15993e-19)
(0.736772 -0.0205047 -3.53065e-18)
(1.9125 0.545631 1.90739e-17)
(3.19237 2.08467 -3.17089e-17)
(3.93556 4.39568 -2.10703e-17)
(3.74884 6.28642 1.87496e-17)
(2.80178 6.63916 5.83375e-18)
(1.23991 5.34733 3.38773e-17)
(-0.492846 2.99038 -1.04589e-17)
(-1.93673 0.320658 -2.54245e-17)
(-2.80488 -2.01914 -2.06449e-17)
(-3.03143 -3.58033 2.06585e-17)
(-2.75559 -4.16723 -7.71394e-18)
(-0.417317 -2.5916 -6.63116e-18)
(-0.0223355 -2.76541 2.16145e-17)
(1.72708 1.25657 -1.81249e-17)
(3.67991 5.59664 -6.35156e-19)
(5.21629 8.32017 4.0111e-19)
(6.25608 9.51396 1.68119e-17)
(6.48929 8.96848 -4.38804e-18)
(5.80396 6.71965 -1.77695e-18)
(4.45451 3.43432 -4.90016e-19)
(2.9123 0.223536 -5.88111e-18)
(1.58219 -1.98489 9.1689e-18)
(0.639395 -2.89087 -1.31404e-17)
(-0.976984 -1.91849 -2.60399e-17)
(-1.86622 -2.75957 2.94142e-17)
(-1.71496 -1.35414 -5.29315e-18)
(-0.648185 0.616676 -2.80221e-17)
(1.10286 2.54774 2.64457e-17)
(2.98773 4.48523 8.60531e-19)
(4.55902 5.72355 -8.32147e-18)
(5.37103 5.61779 -9.9174e-18)
(5.27567 4.25198 7.24754e-18)
(4.4949 2.37125 -1.63524e-18)
(3.41318 0.744757 -3.55921e-18)
(-0.49144 0.810643 -5.03924e-18)
(-1.82099 -0.502725 -1.7273e-17)
(-3.3478 -3.56963 -2.24672e-17)
(-4.34388 -5.03977 2.30842e-17)
(-4.45974 -4.28307 6.38861e-18)
(-4.02829 -2.31263 -2.04538e-17)
(-3.1405 -0.132883 4.59154e-18)
(-2.07909 1.41744 1.46807e-18)
(-1.14509 1.94559 3.66682e-18)
(-0.475091 1.59628 -5.44922e-19)
(0.558947 2.7698 6.78515e-19)
(0.693697 3.66208 6.01277e-18)
(0.0489111 1.41091 -5.85879e-18)
(-1.23049 0.00971504 5.40909e-18)
(-2.82382 -0.161541 -4.70759e-18)
(-4.42682 -0.417902 1.37945e-19)
(-5.65124 -0.996596 1.59837e-18)
(-6.25599 -1.78136 -2.56105e-18)
(-6.1989 -2.66051 9.73716e-19)
(-5.57936 -3.48863 8.3669e-19)
(0.74974 0.421707 -8.31396e-18)
(1.86421 1.70366 -2.96103e-18)
(2.90843 3.79522 1.56918e-17)
(3.28411 6.42535 -7.40237e-18)
(2.7971 8.34666 8.10061e-18)
(1.82719 8.43716 -1.99272e-17)
(0.530725 6.56276 3.74743e-18)
(-0.781642 3.36324 7.4898e-19)
(-1.80217 -0.212639 6.54673e-19)
(0.136128 -2.4852 5.29816e-19)
(0.631532 -2.39178 -2.65931e-18)
(1.63984 2.10271 -1.88893e-19)
(2.79079 6.9016 3.90654e-18)
(3.82036 9.83821 -1.10836e-18)
(4.6677 10.8987 -2.58174e-18)
(5.07089 9.88013 4.37897e-18)
(4.89498 6.97001 -2.32901e-18)
(4.22767 3.05811 -9.6158e-19)
(-0.524998 -2.13474 1.27556e-18)
(-1.11762 -2.9414 -4.72172e-18)
(-1.10769 -1.05519 1.32488e-18)
(-0.300094 1.42492 1.5081e-19)
(1.16882 3.64288 1.76796e-18)
(2.74066 5.59374 -1.18996e-18)
(4.08636 6.63243 2.67949e-18)
(4.8879 6.22208 -2.68657e-18)
(4.99477 4.55794 7.19851e-19)
(-0.661897 0.519121 -1.53005e-18)
(-1.72253 -0.968954 5.46666e-18)
(-2.55334 -3.93072 -1.4969e-18)
)
;

boundaryField
{
    inlet
    {
        type            uniformFixedValue;
        uniformValue    constant (1 0 0);
        value           nonuniform 0();
    }
    outlet
    {
        type            pressureInletOutletVelocity;
        value           nonuniform 0();
    }
    cylinder
    {
        type            fixedValue;
        value           uniform (0 0 0);
    }
    top
    {
        type            symmetryPlane;
    }
    bottom
    {
        type            symmetryPlane;
    }
    defaultFaces
    {
        type            empty;
    }
    procBoundary19to12
    {
        type            processor;
        value           uniform (4.49694 2.45368 4.90981e-19);
    }
    procBoundary19to13
    {
        type            processor;
        value           nonuniform List<vector> 10((-3.07796 -5.30444 4.0196e-18) (-3.10554 -4.49634 -2.10088e-18) (-2.86033 -2.50574 1.48551e-18) (-2.28898 -0.323867 -3.56583e-18) (-1.52324 1.21946 3.51552e-18) (-0.768526 1.75511 -8.51016e-19) (-0.0553618 2.77536 -3.98389e-19) (-0.183782 3.39439 1.44789e-18) (-3.07796 -5.30444 4.0196e-18) (-0.382964 0.667228 1.00389e-19));
    }
    procBoundary19to18
    {
        type            processor;
        value           nonuniform List<vector> 
25
(
(0.300363 0.0295621 2.05477e-18)
(0.339099 0.134328 -2.75457e-18)
(0.300363 0.0295621 2.05477e-18)
(0.328519 0.113945 -2.04439e-18)
(0.328519 0.113945 -2.04439e-18)
(0.183372 0.297418 -3.49779e-18)
(0.219366 -0.11428 3.87411e-18)
(0.183372 0.297418 -3.49779e-18)
(0.220721 -0.0323295 -1.58289e-18)
(0.219366 -0.11428 3.87411e-18)
(0.467814 -0.690796 6.91821e-18)
(0.467814 -0.690796 6.91821e-18)
(-1.50148 -2.32686 -1.43369e-18)
(-1.50148 -2.32686 -1.43369e-18)
(-2.20518 -3.8811 -1.72784e-17)
(-2.20518 -3.8811 -1.72784e-17)
(0.0706726 -2.76058 -6.4782e-18)
(2.35839 -0.277481 -9.15611e-18)
(2.35839 -0.277481 -9.15611e-18)
(-0.0500229 0.787962 2.1047e-17)
(-0.0500229 0.787962 2.1047e-17)
(-4.58702 -4.0627 -8.54727e-19)
(-2.35071 -3.26487 -9.77573e-18)
(-2.35071 -3.26487 -9.77573e-18)
(3.30012 -0.574101 -5.14947e-19)
)
;
    }
    procBoundary19to24
    {
        type            processor;
        value           nonuniform List<vector> 8((0.530013 0.37873 -1.94359e-18) (0.512873 0.374079 2.52294e-18) (0.437415 0.345907 1.12053e-18) (0.512873 0.374079 2.52294e-18) (0.460213 0.36883 7.83216e-21) (0.437415 0.345907 1.12053e-18) (0.366806 0.249822 -4.75591e-19) (0.366806 0.249822 -4.75591e-19));
    }
    procBoundary19to25
    {
        type            processor;
        value           nonuniform List<vector> 
38
(
(-2.27281 -1.52682 1.03693e-17)
(-4.84458 -1.34577 -1.20698e-18)
(-4.84458 -1.34577 -1.20698e-18)
(-2.74152 1.96196 -1.10808e-17)
(-2.74152 1.96196 -1.10808e-17)
(-3.81978 1.59935 -1.27391e-17)
(-7.78768 -5.15877 -1.50701e-17)
(-7.78768 -5.15877 -1.50701e-17)
(-5.68102 -4.00763 1.983e-17)
(1.18803 -0.876496 -1.42008e-17)
(1.18803 -0.876496 -1.42008e-17)
(2.68367 0.623441 1.6734e-17)
(6.74082 2.1868 2.55013e-17)
(6.74082 2.1868 2.55013e-17)
(6.40082 1.95584 -5.58259e-17)
(7.04674 3.55697 -1.80139e-18)
(7.04674 3.55697 -1.80139e-18)
(6.06088 3.03747 -1.63049e-18)
(3.13177 2.06356 6.68049e-18)
(3.13177 2.06356 6.68049e-18)
(2.20909 1.39375 1.99583e-18)
(0.193778 0.273477 -4.80724e-19)
(0.193778 0.273477 -4.80724e-19)
(-0.0106967 -0.0445691 1.19932e-18)
(0.0438228 -0.140366 7.66059e-18)
(0.0438228 -0.140366 7.66059e-18)
(0.106292 -0.088854 -6.71209e-18)
(0.360749 0.256134 1.29814e-17)
(0.360749 0.256134 1.29814e-17)
(0.38863 0.269629 -1.78641e-19)
(0.417561 0.290642 -5.24943e-18)
(0.397708 0.364356 4.63705e-18)
(0.397708 0.364356 4.63705e-18)
(0.435462 0.376962 -3.56677e-18)
(0.426271 0.350676 -3.3652e-18)
(0.426271 0.350676 -3.3652e-18)
(0.474103 0.383043 3.58223e-18)
(0.513393 0.382923 1.15717e-18)
)
;
    }
}


// ************************************************************************* //
