/*--------------------------------*- C++ -*----------------------------------*\
  =========                 |
  \\      /  F ield         | OpenFOAM: The Open Source CFD Toolbox
   \\    /   O peration     | Website:  https://openfoam.org
    \\  /    A nd           | Version:  7
     \\/     M anipulation  |
\*---------------------------------------------------------------------------*/
FoamFile
{
    version     2.0;
    format      ascii;
    class       surfaceScalarField;
    location    "6";
    object      phi;
}
// * * * * * * * * * * * * * * * * * * * * * * * * * * * * * * * * * * * * * //

dimensions      [0 3 -1 0 0 0 0];

internalField   nonuniform List<scalar> 
615
(
1.73518e-05
-6.03359e-08
1.74112e-05
-5.94352e-08
1.74697e-05
-5.85498e-08
1.75274e-05
-5.76793e-08
1.75842e-05
-5.68233e-08
1.76402e-05
-5.59812e-08
1.76954e-05
-5.51528e-08
1.77497e-05
-5.43376e-08
1.78033e-05
-5.35353e-08
1.7856e-05
-5.27457e-08
1.7908e-05
-5.19684e-08
1.79592e-05
-5.12032e-08
1.80096e-05
-5.04498e-08
1.80593e-05
-4.9708e-08
1.81083e-05
-4.89776e-08
1.81566e-05
-4.82584e-08
1.82041e-05
-4.75501e-08
1.8251e-05
-4.68526e-08
1.82971e-05
-4.61657e-08
1.83426e-05
-4.54892e-08
1.83874e-05
-4.4823e-08
1.84316e-05
-4.41668e-08
1.84751e-05
-4.35206e-08
1.8518e-05
-4.28842e-08
1.85603e-05
-4.22574e-08
1.86019e-05
-4.164e-08
1.86429e-05
-4.10321e-08
1.86834e-05
-4.04333e-08
1.87232e-05
-3.98436e-08
1.87625e-05
-3.92628e-08
1.88012e-05
-3.86908e-08
1.88393e-05
-3.81275e-08
1.88769e-05
-3.75728e-08
1.89139e-05
-3.70264e-08
1.89504e-05
-3.64884e-08
1.89863e-05
-3.59585e-08
1.90218e-05
-3.54367e-08
1.90567e-05
-3.49229e-08
1.90911e-05
-3.44168e-08
1.9125e-05
-3.39185e-08
1.91585e-05
-3.34278e-08
1.91914e-05
-3.29445e-08
1.92239e-05
-3.24687e-08
1.92559e-05
-3.20001e-08
1.92874e-05
-3.15386e-08
1.93185e-05
-3.10843e-08
1.93491e-05
-3.06369e-08
1.93793e-05
-3.01963e-08
1.94091e-05
-2.97626e-08
1.94384e-05
-2.93355e-08
1.94674e-05
-2.8915e-08
1.94959e-05
-2.8501e-08
1.95239e-05
-2.80935e-08
1.95516e-05
-2.76923e-08
1.95789e-05
-2.72974e-08
1.96058e-05
-2.69087e-08
1.96324e-05
-2.65262e-08
1.96585e-05
-2.61498e-08
1.96843e-05
-2.57794e-08
1.97097e-05
-2.54151e-08
1.97348e-05
-2.50568e-08
1.97595e-05
-2.47046e-08
1.97838e-05
-2.43583e-08
1.98079e-05
-2.40181e-08
1.98315e-05
-2.3684e-08
1.98549e-05
-2.33561e-08
-2.30345e-08
5.20576e-05
-2.39743e-07
5.22343e-05
-2.36119e-07
5.24083e-05
-2.32559e-07
5.25797e-05
-2.2906e-07
5.27485e-05
-2.25621e-07
5.29147e-05
-2.22239e-07
5.30785e-05
-2.18913e-07
5.32398e-05
-2.15641e-07
5.33987e-05
-2.12423e-07
5.35552e-05
-2.09257e-07
5.37094e-05
-2.06141e-07
5.38613e-05
-2.03075e-07
5.40109e-05
-2.00058e-07
5.41582e-05
-1.97088e-07
5.43034e-05
-1.94165e-07
5.44465e-05
-1.91288e-07
5.45874e-05
-1.88455e-07
5.47262e-05
-1.85667e-07
5.48629e-05
-1.82922e-07
5.49977e-05
-1.80219e-07
5.51304e-05
-1.77559e-07
5.52612e-05
-1.74939e-07
5.539e-05
-1.7236e-07
5.55169e-05
-1.69821e-07
5.5642e-05
-1.67321e-07
5.57652e-05
-1.64859e-07
5.58866e-05
-1.62436e-07
5.60062e-05
-1.60049e-07
5.61241e-05
-1.577e-07
5.62402e-05
-1.55387e-07
5.63546e-05
-1.53109e-07
5.64674e-05
-1.50867e-07
5.65785e-05
-1.48659e-07
5.66879e-05
-1.46485e-07
5.67958e-05
-1.44345e-07
5.69021e-05
-1.42238e-07
5.70068e-05
-1.40163e-07
5.711e-05
-1.3812e-07
5.72117e-05
-1.36109e-07
5.73119e-05
-1.34129e-07
5.74106e-05
-1.32179e-07
5.7508e-05
-1.30259e-07
5.76039e-05
-1.2837e-07
5.76984e-05
-1.26509e-07
5.77915e-05
-1.24677e-07
5.78833e-05
-1.22874e-07
5.79738e-05
-1.21098e-07
5.80629e-05
-1.1935e-07
5.81508e-05
-1.17629e-07
5.82374e-05
-1.15935e-07
5.83227e-05
-1.14268e-07
5.84069e-05
-1.12626e-07
5.84898e-05
-1.1101e-07
5.85715e-05
-1.0942e-07
5.86521e-05
-1.07855e-07
5.87315e-05
-1.06314e-07
5.88097e-05
-1.04798e-07
5.88869e-05
-1.03307e-07
5.8963e-05
-1.0184e-07
5.90379e-05
-1.00396e-07
5.91119e-05
-9.89773e-08
5.91847e-05
-9.75822e-08
5.92566e-05
-9.62111e-08
5.93274e-05
-9.48641e-08
5.93973e-05
-9.35414e-08
5.94662e-05
-9.22432e-08
-9.09701e-08
8.67649e-05
-5.3277e-07
8.70534e-05
-5.24542e-07
8.73373e-05
-5.16462e-07
8.76167e-05
-5.08527e-07
8.78918e-05
-5.00732e-07
8.81627e-05
-4.93074e-07
8.84293e-05
-4.85547e-07
8.86918e-05
-4.7815e-07
8.89503e-05
-4.70878e-07
8.92047e-05
-4.63728e-07
8.94553e-05
-4.56698e-07
8.9702e-05
-4.49785e-07
8.99449e-05
-4.42986e-07
9.01842e-05
-4.36298e-07
9.04197e-05
-4.2972e-07
9.06517e-05
-4.23249e-07
9.08801e-05
-4.16883e-07
9.1105e-05
-4.1062e-07
9.13266e-05
-4.04458e-07
9.15448e-05
-3.98395e-07
9.17596e-05
-3.9243e-07
9.19713e-05
-3.8656e-07
9.21797e-05
-3.80785e-07
9.2385e-05
-3.75101e-07
9.25871e-05
-3.69509e-07
9.27863e-05
-3.64005e-07
9.29824e-05
-3.58589e-07
9.31757e-05
-3.53259e-07
9.3366e-05
-3.48014e-07
9.35534e-05
-3.42852e-07
9.37381e-05
-3.37773e-07
9.392e-05
-3.32773e-07
9.40992e-05
-3.27853e-07
9.42757e-05
-3.23011e-07
9.44496e-05
-3.18246e-07
9.46209e-05
-3.13555e-07
9.47897e-05
-3.0894e-07
9.4956e-05
-3.04397e-07
9.51198e-05
-2.99925e-07
9.52812e-05
-2.95525e-07
9.54402e-05
-2.91194e-07
9.55969e-05
-2.86931e-07
9.57513e-05
-2.82736e-07
9.59034e-05
-2.78606e-07
9.60532e-05
-2.74542e-07
9.62009e-05
-2.70543e-07
9.63464e-05
-2.66606e-07
9.64898e-05
-2.62731e-07
9.66311e-05
-2.58918e-07
9.67703e-05
-2.55165e-07
9.69075e-05
-2.51472e-07
9.70427e-05
-2.47837e-07
9.7176e-05
-2.4426e-07
9.73073e-05
-2.40741e-07
9.74367e-05
-2.37277e-07
9.75643e-05
-2.3387e-07
9.769e-05
-2.30518e-07
9.78139e-05
-2.2722e-07
9.7936e-05
-2.23977e-07
9.80564e-05
-2.20787e-07
9.81751e-05
-2.17652e-07
9.82921e-05
-2.1457e-07
9.84074e-05
-2.11541e-07
9.85211e-05
-2.08567e-07
9.86332e-05
-2.05646e-07
9.87438e-05
-2.02781e-07
-1.99971e-07
0.000121451
-9.29863e-07
0.000121841
-9.1507e-07
0.000122225
-9.0056e-07
0.000122603
-8.86324e-07
0.000122975
-8.72354e-07
0.00012334
-8.58641e-07
0.0001237
-8.45179e-07
0.000124054
-8.3196e-07
0.000124402
-8.18978e-07
0.000124744
-8.06227e-07
0.000125081
-7.93701e-07
0.000125413
-7.81395e-07
0.000125739
-7.69303e-07
0.000126061
-7.57421e-07
0.000126377
-7.45744e-07
0.000126688
-7.34267e-07
0.000126994
-7.22986e-07
0.000127295
-7.11897e-07
0.000127592
-7.00997e-07
0.000127883
-6.9028e-07
0.000128171
-6.79745e-07
0.000128454
-6.69386e-07
0.000128732
-6.59201e-07
0.000129006
-6.49186e-07
0.000129276
-6.39338e-07
0.000129542
-6.29654e-07
0.000129803
-6.20131e-07
0.000130061
-6.10766e-07
0.000130314
-6.01555e-07
0.000130564
-5.92497e-07
0.00013081
-5.83588e-07
0.000131052
-5.74826e-07
0.00013129
-5.66208e-07
0.000131525
-5.57731e-07
0.000131756
-5.49393e-07
0.000131983
-5.41192e-07
0.000132208
-5.33125e-07
0.000132428
-5.25189e-07
0.000132646
-5.17383e-07
0.00013286
-5.09704e-07
0.000133071
-5.02149e-07
0.000133279
-4.94718e-07
0.000133483
-4.87407e-07
0.000133685
-4.80215e-07
0.000133884
-4.73139e-07
0.000134079
-4.66178e-07
0.000134272
-4.59329e-07
0.000134462
-4.52592e-07
0.000134649
-4.45964e-07
0.000134833
-4.39443e-07
0.000135015
-4.33027e-07
0.000135194
-4.26716e-07
0.00013537
-4.20508e-07
0.000135544
-4.144e-07
0.000135715
-4.08393e-07
0.000135883
-4.02484e-07
0.000136049
-3.96673e-07
0.000136213
-3.90959e-07
0.000136375
-3.8534e-07
0.000136534
-3.79816e-07
0.00013669
-3.74387e-07
0.000136845
-3.69052e-07
0.000136997
-3.63811e-07
0.000137147
-3.58665e-07
0.000137295
-3.53614e-07
0.000137441
-3.48658e-07
-3.43801e-07
0.000156054
-1.41686e-06
0.000156533
-1.39349e-06
0.000157003
-1.3706e-06
0.000157465
-1.34817e-06
0.000157918
-1.32619e-06
0.000158364
-1.30464e-06
0.000158803
-1.28351e-06
0.000159234
-1.26278e-06
0.000159657
-1.24246e-06
0.000160073
0.000160483
0.000160885
0.000161281
0.000161669
0.000162052
0.000162428
0.000162798
0.000163162
0.00016352
0.000163872
0.000164218
0.000164559
0.000164894
0.000165223
0.000165548
0.000165867
0.000166181
0.00016649
0.000166794
0.000167093
0.000167388
0.000167677
0.000167963
0.000168244
0.00016852
0.000168792
0.00016906
0.000169323
0.000169583
0.000169839
0.00017009
0.000170338
0.000170582
0.000170822
0.000171059
0.000171292
0.000171521
0.000171747
0.000171969
0.000172188
0.000172404
0.000172617
0.000172826
0.000173033
0.000173236
0.000173436
0.000173633
0.000173827
0.000174019
0.000174207
0.000174393
0.000174576
0.000174757
0.000174935
0.00017511
0.000175283
0.000190458
0.000191006
0.000191542
0.000192069
0.000192586
0.000193093
0.000193591
0.00019408
)
;

boundaryField
{
    inlet
    {
        type            calculated;
        value           nonuniform 0();
    }
    outlet
    {
        type            calculated;
        value           nonuniform 0();
    }
    wall
    {
        type            calculated;
        value           nonuniform 0();
    }
    wedge1
    {
        type            wedge;
        value           nonuniform List<scalar> 
344
(
1.80603e-17
1.77329e-17
1.35182e-16
-1.35152e-17
-3.0957e-17
5.19782e-17
1.71383e-17
1.73362e-17
1.32684e-16
-1.31202e-17
-3.04156e-17
5.11424e-17
1.68208e-17
1.55056e-17
1.30285e-16
-1.3395e-17
-3.0111e-17
5.03664e-17
1.67776e-17
1.57154e-17
1.28368e-16
-1.36119e-17
-2.95743e-17
4.94737e-17
1.67133e-17
1.5944e-17
1.2628e-16
-1.31949e-17
-2.9241e-17
4.87942e-17
1.62661e-17
1.57999e-17
1.24268e-16
-1.34371e-17
-2.87965e-17
4.78578e-17
1.6064e-17
1.47732e-17
1.22097e-16
-1.30276e-17
-2.85599e-17
4.68535e-17
1.5737e-17
1.48555e-17
1.20418e-16
-1.32517e-17
-2.80661e-17
4.60305e-17
1.57702e-17
1.4959e-17
1.18461e-16
-1.28392e-17
-2.77438e-17
4.54177e-17
1.52713e-17
1.48095e-17
1.16644e-16
-1.30697e-17
-2.73644e-17
1.51457e-17
1.38881e-17
1.14677e-16
-1.26023e-17
-2.70934e-17
1.49352e-17
1.38592e-17
1.13037e-16
-1.27475e-17
-2.65819e-17
1.48002e-17
1.39531e-17
1.11266e-16
-1.23075e-17
-2.63131e-17
1.44588e-17
1.40909e-17
1.09712e-16
-1.24934e-17
-2.57957e-17
1.37953e-17
1.28119e-17
1.07735e-16
-1.22649e-17
-2.55179e-17
1.36638e-17
1.21728e-17
1.05678e-16
-1.23269e-17
-2.54454e-17
1.3722e-17
1.24602e-17
1.04355e-16
-1.18719e-17
-2.48947e-17
1.35258e-17
1.26443e-17
1.03133e-16
-1.14564e-17
-2.43883e-17
1.35633e-17
1.2771e-17
1.01861e-16
-1.10634e-17
-2.38976e-17
1.35637e-17
1.282e-17
1.00627e-16
-1.07092e-17
-2.34265e-17
1.34839e-17
1.28259e-17
9.93433e-17
-1.03943e-17
-2.29458e-17
1.33318e-17
1.27785e-17
9.79992e-17
-1.00344e-17
-2.24562e-17
1.31818e-17
1.26584e-17
9.66912e-17
-9.74653e-18
-2.20037e-17
1.29816e-17
1.26245e-17
9.54618e-17
-9.49668e-18
-2.15695e-17
1.27529e-17
1.2547e-17
9.41007e-17
-9.25159e-18
-2.11603e-17
1.29646e-17
1.27879e-17
9.29092e-17
-8.86384e-18
-2.07028e-17
1.1947e-17
1.25564e-17
9.13016e-17
-8.50875e-18
-2.03248e-17
1.18388e-17
1.08549e-17
8.95976e-17
-8.8261e-18
-2.02051e-17
1.18433e-17
1.11237e-17
8.83635e-17
-9.10149e-18
-1.98486e-17
1.18945e-17
1.14566e-17
8.69641e-17
-8.75702e-18
-1.96473e-17
1.14322e-17
1.13702e-17
8.56807e-17
-9.01247e-18
-1.93517e-17
1.1229e-17
1.05732e-17
8.41785e-17
-8.62521e-18
-1.92274e-17
1.135e-17
1.09213e-17
8.31434e-17
-8.87885e-18
-1.88254e-17
1.09877e-17
1.07157e-17
8.17058e-17
-8.32057e-18
-1.8741e-17
1.07747e-17
1.01797e-17
8.03882e-17
-8.65622e-18
-1.85958e-17
1.05518e-17
1.01865e-17
7.88553e-17
-8.95935e-18
-1.85755e-17
1.05545e-17
9.66612e-18
7.7586e-17
-9.07011e-18
-1.84512e-17
1.00609e-17
9.57344e-18
7.61319e-17
-9.19404e-18
-1.83713e-17
1.0094e-17
9.0372e-18
7.49289e-17
-9.21996e-18
-1.81929e-17
9.62008e-18
9.06481e-18
7.35455e-17
-9.28372e-18
-1.81577e-17
9.58581e-18
8.58819e-18
7.24642e-17
-9.33635e-18
-1.79487e-17
9.33448e-18
8.59721e-18
7.11011e-17
-9.42222e-18
-1.79054e-17
9.25035e-18
8.02487e-18
6.99894e-17
-9.45419e-18
-1.77904e-17
8.80942e-18
8.14763e-18
6.8707e-17
-9.48513e-18
-1.77238e-17
8.99195e-18
7.59352e-18
6.75944e-17
-9.63165e-18
-1.75858e-17
8.62892e-18
7.96128e-18
6.6647e-17
-9.58028e-18
-1.73172e-17
8.30902e-18
7.20656e-18
6.5456e-17
-9.18552e-18
-1.72194e-17
8.45233e-18
7.00213e-18
6.4556e-17
-9.27191e-18
-1.7033e-17
8.14989e-18
7.21363e-18
6.33734e-17
-9.34734e-18
-1.69899e-17
8.30405e-18
6.83926e-18
6.24462e-17
-9.34037e-18
-1.68183e-17
7.87163e-18
7.00036e-18
6.13333e-17
-9.3706e-18
-1.67184e-17
7.96329e-18
6.5248e-18
6.0475e-17
-9.34878e-18
-1.65388e-17
7.56803e-18
6.67078e-18
5.94151e-17
-9.31518e-18
-1.64581e-17
7.67489e-18
6.25258e-18
5.86082e-17
-9.28496e-18
-1.62489e-17
7.36676e-18
6.32104e-18
5.75138e-17
-9.24745e-18
-1.61622e-17
7.47149e-18
6.00394e-18
5.67683e-17
-9.18902e-18
-1.5993e-17
7.17804e-18
6.15882e-18
5.58184e-17
-9.14903e-18
-1.58856e-17
7.17505e-18
5.74615e-18
5.51078e-17
-9.05097e-18
-1.56962e-17
6.79314e-18
5.96578e-18
5.41512e-17
-9.08978e-18
-1.56387e-17
7.01238e-18
5.47928e-18
5.33081e-17
-9.08963e-18
-1.55113e-17
6.69997e-18
5.55245e-18
5.23419e-17
-9.07169e-18
-1.54268e-17
6.78312e-18
5.30538e-18
5.17026e-17
-8.98081e-18
-1.52219e-17
6.48895e-18
5.50309e-18
5.07983e-17
-8.95116e-18
-1.51168e-17
6.54864e-18
5.11597e-18
5.01472e-17
-8.86323e-18
-1.49277e-17
6.31611e-18
5.22413e-18
4.93078e-17
-8.81304e-18
-1.48361e-17
6.36615e-18
4.94966e-18
4.86574e-17
-8.78873e-18
-1.46874e-17
6.13267e-18
5.01135e-18
4.77459e-17
-8.78526e-18
-1.46278e-17
)
;
    }
    wedge2
    {
        type            wedge;
        value           nonuniform List<scalar> 
344
(
1.29122e-17
7.88824e-18
1.24583e-16
-2.32712e-17
-3.86242e-17
4.63437e-17
1.33696e-17
7.90846e-18
1.23094e-16
-2.31107e-17
-3.80321e-17
4.55148e-17
1.32317e-17
9.35431e-18
1.21578e-16
-2.22476e-17
-3.72262e-17
4.46619e-17
1.28296e-17
8.77154e-18
1.19651e-16
-2.14674e-17
-3.66742e-17
4.39597e-17
1.24519e-17
8.17477e-18
1.17961e-16
-2.13399e-17
-3.59398e-17
4.30781e-17
1.24676e-17
7.98866e-18
1.16262e-16
-2.05574e-17
-3.53373e-17
4.2467e-17
1.2242e-17
8.63239e-18
1.14783e-16
-2.04401e-17
-3.4547e-17
4.19912e-17
1.21507e-17
8.20093e-18
1.12876e-16
-1.96971e-17
-3.40333e-17
4.13467e-17
1.17076e-17
7.75419e-18
1.11307e-16
-1.96e-17
-3.33668e-17
4.0521e-17
1.1799e-17
7.59097e-18
1.09656e-16
-1.88676e-17
-3.27759e-17
1.15266e-17
8.15685e-18
1.08212e-16
-1.88474e-17
-3.20943e-17
1.1344e-17
7.85806e-18
1.06499e-16
-1.82157e-17
-3.16714e-17
1.10921e-17
7.44012e-18
1.0497e-16
-1.8182e-17
-3.10214e-17
1.10533e-17
7.00974e-18
1.03278e-16
-1.75266e-17
-3.06382e-17
1.13414e-17
7.97728e-18
1.01998e-16
-1.73131e-17
-3.00109e-17
1.11019e-17
8.28708e-18
1.00976e-16
-1.67832e-17
-2.92337e-17
1.06805e-17
7.69826e-18
9.9207e-17
-1.6795e-17
-2.89305e-17
1.05177e-17
7.21568e-18
9.73865e-17
-1.67742e-17
-2.85981e-17
1.01281e-17
6.79728e-18
9.56644e-17
-1.6738e-17
-2.82647e-17
9.78029e-18
6.45889e-18
9.39517e-17
-1.66697e-17
-2.79261e-17
9.52002e-18
6.1693e-18
9.23359e-17
-1.65689e-17
-2.76113e-17
9.33479e-18
5.93657e-18
9.08265e-17
-1.6521e-17
-2.73192e-17
9.15187e-18
5.78153e-18
8.93257e-17
-1.64086e-17
-2.70036e-17
9.02567e-18
5.54215e-18
8.7791e-17
-1.62626e-17
-2.6683e-17
8.93231e-18
5.35586e-18
8.64305e-17
-1.61191e-17
-2.63503e-17
8.40296e-18
4.85005e-18
8.49447e-17
-1.61262e-17
-2.60785e-17
9.10973e-18
4.829e-18
8.39168e-17
-1.61168e-17
-2.57395e-17
8.91088e-18
6.27229e-18
8.30263e-17
-1.5419e-17
-2.51552e-17
8.6039e-18
5.75015e-18
8.1707e-17
-1.47793e-17
-2.48193e-17
8.25425e-18
5.17104e-18
8.05931e-17
-1.47664e-17
-2.43399e-17
8.42355e-18
5.02883e-18
7.94027e-17
-1.4158e-17
-2.39665e-17
8.33656e-18
5.57255e-18
7.84695e-17
-1.42004e-17
-2.34328e-17
7.93049e-18
4.98984e-18
7.71081e-17
-1.36054e-17
-2.31882e-17
8.01225e-18
4.97547e-18
7.61862e-17
-1.38294e-17
-2.26369e-17
7.94846e-18
5.2685e-18
7.51815e-17
-1.31633e-17
-2.21569e-17
7.90025e-18
5.04976e-18
7.44287e-17
-1.25369e-17
-2.15628e-17
7.6308e-18
5.33629e-18
7.34478e-17
-1.21071e-17
-2.10827e-17
7.86022e-18
5.22224e-18
7.26869e-17
-1.16694e-17
-2.05681e-17
7.56718e-18
5.5314e-18
7.17097e-17
-1.13343e-17
-2.01623e-17
7.78482e-18
5.30362e-18
7.0947e-17
-1.09662e-17
-1.96227e-17
7.56745e-18
5.56051e-18
6.99161e-17
-1.0615e-17
-1.92671e-17
7.5708e-18
5.35662e-18
6.91998e-17
-1.0235e-17
-1.87544e-17
7.41044e-18
5.71666e-18
6.82645e-17
-9.91349e-18
-1.83231e-17
7.61077e-18
5.40481e-18
6.75323e-17
-9.59687e-18
-1.7852e-17
7.19132e-18
5.75364e-18
6.66613e-17
-9.17074e-18
-1.74617e-17
7.32185e-18
5.20241e-18
6.56569e-17
-8.95371e-18
-1.72105e-17
7.41186e-18
5.76695e-18
6.49263e-17
-9.06946e-18
-1.6797e-17
7.04216e-18
5.7744e-18
6.39346e-17
-8.71668e-18
-1.64805e-17
7.12198e-18
5.38849e-18
6.32556e-17
-8.37824e-18
-1.60289e-17
6.74802e-18
5.57188e-18
6.23505e-17
-8.12657e-18
-1.57141e-17
6.96479e-18
5.24158e-18
6.16596e-17
-7.84195e-18
-1.53358e-17
6.6609e-18
5.53322e-18
6.07427e-17
-7.6139e-18
-1.50447e-17
6.84707e-18
5.22223e-18
6.00546e-17
-7.40076e-18
-1.46625e-17
6.53345e-18
5.46257e-18
5.9142e-17
-7.18923e-18
-1.44168e-17
6.63939e-18
5.2339e-18
5.85445e-17
-6.98798e-18
-1.40558e-17
6.33533e-18
5.37855e-18
5.76244e-17
-6.81235e-18
-1.37846e-17
6.43151e-18
5.06825e-18
5.69355e-17
-6.62189e-18
-1.34592e-17
6.24129e-18
5.31426e-18
5.60335e-17
-6.49238e-18
-1.32231e-17
6.4329e-18
4.94437e-18
5.54047e-17
-6.2305e-18
-1.28617e-17
6.02732e-18
5.27026e-18
5.46874e-17
-6.01116e-18
-1.2578e-17
6.15559e-18
5.05053e-18
5.41197e-17
-5.8136e-18
-1.22582e-17
5.8915e-18
5.14176e-18
5.32506e-17
-5.6922e-18
-1.20658e-17
6.00774e-18
4.80332e-18
5.26722e-17
-5.51342e-18
-1.17805e-17
5.77293e-18
5.0403e-18
5.18663e-17
-5.39683e-18
-1.15861e-17
5.83363e-18
4.79558e-18
5.12743e-17
-5.24591e-18
-1.13014e-17
5.6149e-18
4.92552e-18
5.05196e-17
-5.07259e-18
-1.10806e-17
5.68278e-18
4.73193e-18
5.00521e-17
-4.88286e-18
-1.0778e-17
)
;
    }
    axis
    {
        type            empty;
        value           nonuniform 0();
    }
    procBoundary1to0
    {
        type            processor;
        value           nonuniform List<scalar> 5(-1.72914e-05 -5.18782e-05 -8.64719e-05 -0.000121054 -0.000155567);
    }
    procBoundary1to2
    {
        type            processor;
        value           nonuniform List<scalar> 5(1.98779e-05 5.95341e-05 9.88528e-05 0.000137585 0.000175453);
    }
    procBoundary1to6
    {
        type            processor;
        value           uniform -0.000189901;
    }
    procBoundary1to7
    {
        type            processor;
        value           nonuniform List<scalar> 
68
(
-1.22251e-06
-1.20295e-06
-1.18375e-06
-1.1649e-06
-1.1464e-06
-1.12824e-06
-1.11042e-06
-1.09291e-06
-1.07572e-06
-1.05884e-06
-1.04227e-06
-1.02598e-06
-1.00999e-06
-9.94279e-07
-9.78845e-07
-9.63682e-07
-9.48783e-07
-9.34145e-07
-9.19762e-07
-9.05627e-07
-8.91737e-07
-8.78087e-07
-8.64671e-07
-8.51485e-07
-8.38525e-07
-8.25787e-07
-8.13265e-07
-8.00955e-07
-7.88855e-07
-7.76959e-07
-7.65264e-07
-7.53765e-07
-7.4246e-07
-7.31345e-07
-7.20416e-07
-7.0967e-07
-6.99103e-07
-6.88713e-07
-6.78496e-07
-6.68449e-07
-6.58569e-07
-6.48854e-07
-6.39301e-07
-6.29907e-07
-6.2067e-07
-6.11588e-07
-6.02658e-07
-5.9388e-07
-5.8525e-07
-5.76768e-07
-5.68432e-07
-5.60242e-07
-5.52197e-07
-5.44297e-07
-5.36541e-07
-5.28932e-07
-5.21469e-07
-5.14156e-07
-1.97447e-06
-1.94055e-06
-1.90738e-06
-1.87492e-06
-1.84315e-06
-1.81205e-06
-1.7816e-06
-1.75178e-06
0.000194561
-1.72257e-06
)
;
    }
}


// ************************************************************************* //
