/*--------------------------------*- C++ -*----------------------------------*\
  =========                 |
  \\      /  F ield         | OpenFOAM: The Open Source CFD Toolbox
   \\    /   O peration     | Website:  https://openfoam.org
    \\  /    A nd           | Version:  7
     \\/     M anipulation  |
\*---------------------------------------------------------------------------*/
FoamFile
{
    version     2.0;
    format      ascii;
    class       volScalarField;
    location    "14";
    object      p;
}
// * * * * * * * * * * * * * * * * * * * * * * * * * * * * * * * * * * * * * //

dimensions      [0 2 -2 0 0 0 0];

internalField   nonuniform List<scalar> 
433
(
-0.302121
-0.300663
-0.2991
-0.297434
-0.295654
-0.293765
-0.291888
-0.310337
-0.309698
-0.308959
-0.308117
-0.307171
-0.306119
-0.304962
-0.303699
-0.30233
-0.300856
-0.299279
-0.2976
-0.295805
-0.293892
-0.292038
-0.311029
-0.310354
-0.309579
-0.308702
-0.30772
-0.306634
-0.305442
-0.304144
-0.302742
-0.301236
-0.29963
-0.297926
-0.296099
-0.294139
-0.292329
-0.31133
-0.310501
-0.309569
-0.308534
-0.307394
-0.306149
-0.304799
-0.303346
-0.301791
-0.300141
-0.298398
-0.296524
-0.294489
-0.292741
-0.312613
-0.311712
-0.310708
-0.3096
-0.308387
-0.307071
-0.30565
-0.304128
-0.302507
-0.300796
-0.298999
-0.297061
-0.294921
-0.293241
-0.314193
-0.313201
-0.312105
-0.310905
-0.3096
-0.308191
-0.30668
-0.305069
-0.303361
-0.301569
-0.299702
-0.297678
-0.295385
-0.293727
-0.314952
-0.313745
-0.312432
-0.311015
-0.309494
-0.307871
-0.306149
-0.304334
-0.302443
-0.300489
-0.29836
-0.29591
-0.294387
-0.316953
-0.315613
-0.314168
-0.312616
-0.31096
-0.309203
-0.307348
-0.305403
-0.303391
-0.301325
-0.299066
-0.296437
-0.295102
-0.317698
-0.316097
-0.314389
-0.312575
-0.310658
-0.308644
-0.306543
-0.304383
-0.302182
-0.299764
-0.296912
-0.295754
-0.318212
-0.316323
-0.314326
-0.312224
-0.310022
-0.307734
-0.305394
-0.303027
-0.300415
-0.29729
-0.296313
-0.320506
-0.318414
-0.316208
-0.313892
-0.311471
-0.308961
-0.306405
-0.303833
-0.30098
-0.297519
-0.296726
-0.320665
-0.318226
-0.315666
-0.312993
-0.310222
-0.307405
-0.304579
-0.301427
-0.297548
-0.296931
-0.320393
-0.317562
-0.314601
-0.311526
-0.308396
-0.305256
-0.301728
-0.297332
-0.296881
-0.319611
-0.316328
-0.312902
-0.309399
-0.305865
-0.301859
-0.296804
-0.29638
-0.318234
-0.314415
-0.310475
-0.306459
-0.301845
-0.295945
-0.295431
-0.316162
-0.311721
-0.307117
-0.301718
-0.313336
-0.288387
-0.279518
-0.271156
-0.261345
-0.250895
-0.239797
-0.228232
-0.216349
-0.20429
-0.192183
-0.180141
-0.168259
-0.156618
-0.145284
-0.134312
-0.123745
-0.113615
-0.28889
-0.279732
-0.271403
-0.261551
-0.251081
-0.239968
-0.228388
-0.216495
-0.204426
-0.192311
-0.180261
-0.168371
-0.156723
-0.145382
-0.134403
-0.123829
-0.113693
-0.28989
-0.28015
-0.271888
-0.261959
-0.25145
-0.240304
-0.228698
-0.216783
-0.204696
-0.192565
-0.180499
-0.168595
-0.156933
-0.145578
-0.134585
-0.123998
-0.113848
-0.291377
-0.280641
-0.272591
-0.26256
-0.251994
-0.240801
-0.229157
-0.217211
-0.205097
-0.192942
-0.180854
-0.168929
-0.157245
-0.14587
-0.134857
-0.12425
-0.114081
-0.293409
-0.281676
-0.273543
-0.263339
-0.2527
-0.241447
-0.229755
-0.21777
-0.205623
-0.193437
-0.181321
-0.169369
-0.157658
-0.146256
-0.135217
-0.124584
-0.114389
-0.296001
-0.282371
-0.274689
-0.264272
-0.253551
-0.242232
-0.230482
-0.218452
-0.206266
-0.194046
-0.181897
-0.169912
-0.158169
-0.146735
-0.135663
-0.124998
-0.114772
-0.298817
-0.283587
-0.275928
-0.265387
-0.254534
-0.243138
-0.231326
-0.219247
-0.207019
-0.194761
-0.182575
-0.170553
-0.158773
-0.147302
-0.136193
-0.12549
-0.115228
-0.301887
-0.285034
-0.277315
-0.266617
-0.255627
-0.24415
-0.232272
-0.220143
-0.207872
-0.195574
-0.183349
-0.171287
-0.159467
-0.147954
-0.136803
-0.126058
-0.115754
-0.305351
-0.286521
-0.278819
-0.267942
-0.256809
-0.245249
-0.233306
-0.221128
-0.208815
-0.196477
-0.184212
-0.17211
-0.160246
-0.148688
-0.137491
-0.126699
-0.116349
-0.309173
-0.288087
-0.280404
-0.269342
-0.258058
-0.246417
-0.234413
-0.222189
-0.209837
-0.197461
-0.185158
-0.173013
-0.161105
-0.149499
-0.138253
-0.127411
-0.117009
-0.313301
-0.289722
-0.282034
-0.270788
-0.259352
-0.247634
-0.235575
-0.223312
-0.210927
-0.198518
-0.186177
-0.173991
-0.162038
-0.150383
-0.139085
-0.128189
-0.117732
-0.107744
-0.317695
-0.291437
-0.283675
-0.272252
-0.260669
-0.248882
-0.236778
-0.224486
-0.212074
-0.199637
-0.187263
-0.175038
-0.16304
-0.151335
-0.139983
-0.12903
-0.118516
-0.108469
-0.322358
-0.29326
-0.285295
-0.273707
-0.261988
-0.250144
-0.238008
-0.225696
-0.213268
-0.200809
-0.188408
-0.176147
-0.164105
-0.15235
-0.140943
-0.129931
-0.119357
-0.109249
-0.326388
-0.295135
-0.286862
-0.275124
-0.26329
-0.251404
-0.239251
-0.226933
-0.214499
-0.202028
-0.189604
-0.177311
-0.165228
-0.153424
-0.141961
-0.13089
-0.120252
-0.110079
-0.252648
-0.240494
-0.228185
-0.215757
-0.203282
-0.190844
-0.178524
-0.166403
-0.154551
-0.143033
-0.1319
-0.121197
-0.110958
)
;

boundaryField
{
    inlet
    {
        type            zeroGradient;
    }
    outlet
    {
        type            fixedValue;
        value           nonuniform 0();
    }
    cylinder
    {
        type            zeroGradient;
    }
    top
    {
        type            symmetryPlane;
    }
    bottom
    {
        type            symmetryPlane;
    }
    defaultFaces
    {
        type            empty;
    }
    procBoundary22to16
    {
        type            processor;
        value           nonuniform List<scalar> 
33
(
-0.309989
-0.309368
-0.308646
-0.307822
-0.306894
-0.30586
-0.30472
-0.303474
-0.303474
-0.302121
-0.300663
-0.2991
-0.297434
-0.295654
-0.293765
-0.291888
-0.288387
-0.279518
-0.271156
-0.261345
-0.250895
-0.239797
-0.228232
-0.216349
-0.20429
-0.192183
-0.180141
-0.168259
-0.156618
-0.145284
-0.134312
-0.123745
-0.113615
)
;
    }
    procBoundary22to21
    {
        type            processor;
        value           nonuniform List<scalar> 
16
(
-0.310878
-0.311605
-0.312058
-0.312058
-0.313413
-0.315084
-0.316056
-0.316056
-0.318187
-0.31919
-0.31919
-0.319989
-0.319989
-0.32248
-0.322982
-0.322982
)
;
    }
    procBoundary22to23
    {
        type            processor;
        value           nonuniform List<scalar> 
16
(
-0.103947
-0.104019
-0.104162
-0.104376
-0.104659
-0.105012
-0.105431
-0.105917
-0.106465
-0.107075
-0.107075
-0.0982444
-0.0989123
-0.0996303
-0.100397
-0.101208
)
;
    }
    procBoundary22to27
    {
        type            processor;
        value           nonuniform List<scalar> 
11
(
-0.32309
-0.32309
-0.32274
-0.32274
-0.321868
-0.321868
-0.320409
-0.320409
-0.318313
-0.318313
-0.31564
)
;
    }
    procBoundary22to28
    {
        type            processor;
        value           nonuniform List<scalar> 
26
(
-0.294685
-0.293822
-0.330444
-0.308056
-0.294685
-0.301686
-0.308056
-0.330444
-0.297106
-0.288343
-0.276474
-0.264556
-0.264556
-0.253857
-0.241723
-0.229436
-0.217026
-0.204558
-0.192112
-0.179772
-0.167617
-0.15572
-0.144147
-0.132953
-0.122185
-0.111877
)
;
    }
}


// ************************************************************************* //
