/*--------------------------------*- C++ -*----------------------------------*\
  =========                 |
  \\      /  F ield         | OpenFOAM: The Open Source CFD Toolbox
   \\    /   O peration     | Website:  https://openfoam.org
    \\  /    A nd           | Version:  7
     \\/     M anipulation  |
\*---------------------------------------------------------------------------*/
FoamFile
{
    version     2.0;
    format      ascii;
    class       volScalarField;
    location    "11.6";
    object      p;
}
// * * * * * * * * * * * * * * * * * * * * * * * * * * * * * * * * * * * * * //

dimensions      [0 2 -2 0 0 0 0];

internalField   nonuniform List<scalar> 
30686
(
0.571255
0.571199
0.571086
0.570917
0.570691
0.570409
0.570073
0.569683
0.569241
0.56875
0.568211
0.567626
0.566997
0.566326
0.565617
0.56487
0.564089
0.563277
0.562434
0.561565
0.560671
0.559755
0.558818
0.557864
0.556895
0.555911
0.554917
0.553912
0.5529
0.551881
0.550857
0.549831
0.548802
0.547773
0.546744
0.545717
0.544692
0.54367
0.542653
0.54164
0.540632
0.539631
0.538635
0.537647
0.536666
0.535692
0.534725
0.533767
0.532816
0.531874
0.53094
0.530014
0.529097
0.528188
0.527287
0.526395
0.525511
0.524635
0.523767
0.522907
0.522055
0.521211
0.520375
0.519546
0.518725
0.517911
0.517104
0.516305
0.515513
0.514727
0.513948
0.513176
0.51241
0.511651
0.510897
0.51015
0.509409
0.508674
0.507944
0.50722
0.506501
0.505788
0.50508
0.504377
0.50368
0.502987
0.502299
0.501615
0.500937
0.500263
0.499593
0.498928
0.498266
0.49761
0.496957
0.496308
0.495663
0.495022
0.494385
0.493751
0.493121
0.492495
0.491872
0.491253
0.490637
0.490024
0.489415
0.488809
0.488205
0.487605
0.487008
0.486414
0.485823
0.485235
0.48465
0.484067
0.483487
0.48291
0.482335
0.481763
0.481194
0.480627
0.480062
0.4795
0.478941
0.478383
0.477828
0.477276
0.476725
0.476177
0.475631
0.475087
0.474545
0.474005
0.473468
0.472932
0.472398
0.471867
0.471337
0.470809
0.470283
0.469759
0.469236
0.468715
0.468196
0.467679
0.467164
0.46665
0.466137
0.465627
0.465118
0.46461
0.464104
0.463599
0.463096
0.462594
0.462094
0.461595
0.461097
0.4606
0.460105
0.459611
0.459118
0.458626
0.458135
0.457645
0.457157
0.456669
0.456182
0.455696
0.455211
0.454726
0.454243
0.453759
0.453277
0.452795
0.452313
0.451832
0.451351
0.45087
0.45039
0.44991
0.449429
0.448949
0.448468
0.447987
0.447505
0.447023
0.446541
0.446057
0.445573
0.445088
0.444601
0.444113
0.443624
0.443132
0.442639
0.442144
0.441646
0.441146
0.440642
0.440136
0.439627
0.439113
0.438596
0.438075
0.437548
0.437017
0.43648
0.435938
0.435389
0.434833
0.43427
0.433699
0.43312
0.432532
0.431934
0.431326
0.430706
0.430075
0.429431
0.428773
0.428101
0.427414
0.42671
0.425988
0.425247
0.424487
0.423704
0.422899
0.42207
0.421214
0.420331
0.419419
0.418475
0.417497
0.416484
0.415434
0.414343
0.413209
0.412029
0.410802
0.409523
0.408189
0.406797
0.405344
0.403826
0.402238
0.400577
0.398838
0.397017
0.395108
0.393107
0.391008
0.388806
0.386494
0.384066
0.381517
0.378839
0.376026
0.373069
0.369963
0.366698
0.363267
0.359661
0.355873
0.351894
0.347714
0.343326
0.338719
0.333886
0.328816
0.323502
0.317934
0.312105
0.306005
0.299627
0.292963
0.286008
0.278756
0.2712
0.263338
0.255166
0.246682
0.237887
0.228782
0.219368
0.209652
0.199639
0.189337
0.178757
0.167912
0.156815
0.145483
0.133935
0.12219
0.110271
0.098202
0.0860081
0.0737161
0.571281
0.571224
0.571111
0.570941
0.570715
0.570433
0.570096
0.569705
0.569263
0.568771
0.56823
0.567644
0.567014
0.566343
0.565632
0.564885
0.564103
0.563289
0.562446
0.561575
0.56068
0.559763
0.558825
0.55787
0.5569
0.555916
0.55492
0.553915
0.552902
0.551882
0.550858
0.549831
0.548802
0.547772
0.546743
0.545715
0.54469
0.543668
0.54265
0.541637
0.540629
0.539627
0.538632
0.537643
0.536662
0.535688
0.534721
0.533763
0.532812
0.53187
0.530936
0.53001
0.529093
0.528184
0.527283
0.526391
0.525507
0.524631
0.523763
0.522903
0.522051
0.521207
0.520371
0.519542
0.518721
0.517907
0.517101
0.516302
0.515509
0.514724
0.513945
0.513173
0.512407
0.511648
0.510894
0.510147
0.509406
0.508671
0.507941
0.507217
0.506499
0.505786
0.505078
0.504375
0.503677
0.502984
0.502296
0.501613
0.500934
0.50026
0.499591
0.498925
0.498264
0.497608
0.496955
0.496306
0.495661
0.49502
0.494383
0.493749
0.49312
0.492493
0.491871
0.491251
0.490635
0.490023
0.489413
0.488807
0.488204
0.487604
0.487007
0.486413
0.485822
0.485234
0.484648
0.484065
0.483486
0.482908
0.482334
0.481762
0.481192
0.480625
0.480061
0.479499
0.478939
0.478382
0.477827
0.477274
0.476724
0.476176
0.47563
0.475086
0.474544
0.474004
0.473467
0.472931
0.472397
0.471866
0.471336
0.470808
0.470282
0.469758
0.469235
0.468714
0.468196
0.467678
0.467163
0.466649
0.466137
0.465626
0.465117
0.464609
0.464103
0.463598
0.463095
0.462593
0.462093
0.461594
0.461096
0.4606
0.460104
0.45961
0.459117
0.458625
0.458135
0.457645
0.457156
0.456668
0.456182
0.455696
0.45521
0.454726
0.454242
0.453759
0.453276
0.452794
0.452313
0.451832
0.451351
0.45087
0.45039
0.449909
0.449429
0.448949
0.448468
0.447987
0.447506
0.447024
0.446541
0.446058
0.445573
0.445088
0.444602
0.444114
0.443624
0.443133
0.44264
0.442145
0.441647
0.441147
0.440644
0.440138
0.439628
0.439115
0.438598
0.438076
0.43755
0.437019
0.436483
0.43594
0.435392
0.434836
0.434273
0.433703
0.433124
0.432536
0.431938
0.43133
0.430711
0.43008
0.429437
0.428779
0.428108
0.427421
0.426717
0.425996
0.425256
0.424496
0.423714
0.42291
0.422081
0.421226
0.420344
0.419432
0.418489
0.417512
0.4165
0.415451
0.414361
0.413228
0.41205
0.410823
0.409545
0.408213
0.406823
0.405371
0.403855
0.402269
0.40061
0.398873
0.397053
0.395146
0.393147
0.391051
0.388851
0.386541
0.384116
0.38157
0.378895
0.376084
0.37313
0.370027
0.366765
0.363337
0.359735
0.35595
0.351973
0.347797
0.343412
0.338808
0.333978
0.328911
0.323599
0.318034
0.312207
0.306109
0.299732
0.293071
0.286117
0.278864
0.271309
0.263446
0.255273
0.246788
0.23799
0.228882
0.219465
0.209744
0.199725
0.189417
0.17883
0.167977
0.156872
0.14553
0.133972
0.122217
0.110287
0.0982064
0.0860007
0.0736966
0.571336
0.571279
0.571165
0.570995
0.570768
0.570485
0.570146
0.569754
0.56931
0.568816
0.568274
0.567686
0.567053
0.56638
0.565667
0.564917
0.564132
0.563316
0.56247
0.561598
0.5607
0.559781
0.558841
0.557884
0.556911
0.555925
0.554928
0.553921
0.552906
0.551885
0.55086
0.549831
0.548801
0.54777
0.54674
0.545711
0.544685
0.543663
0.542644
0.54163
0.540622
0.53962
0.538624
0.537635
0.536653
0.535679
0.534713
0.533754
0.532803
0.531861
0.530927
0.530001
0.529084
0.528175
0.527274
0.526382
0.525498
0.524622
0.523754
0.522894
0.522043
0.521199
0.520363
0.519534
0.518713
0.5179
0.517093
0.516294
0.515502
0.514716
0.513938
0.513166
0.5124
0.511641
0.510888
0.510141
0.5094
0.508665
0.507935
0.507211
0.506493
0.50578
0.505072
0.504369
0.503672
0.502979
0.502291
0.501608
0.50093
0.500256
0.499586
0.498921
0.49826
0.497603
0.49695
0.496302
0.495657
0.495016
0.494379
0.493746
0.493116
0.49249
0.491867
0.491248
0.490632
0.490019
0.48941
0.488804
0.4882
0.487601
0.487004
0.48641
0.485819
0.48523
0.484645
0.484062
0.483483
0.482905
0.482331
0.481759
0.48119
0.480623
0.480058
0.479496
0.478937
0.478379
0.477825
0.477272
0.476722
0.476173
0.475627
0.475083
0.474542
0.474002
0.473464
0.472929
0.472395
0.471863
0.471334
0.470806
0.47028
0.469756
0.469233
0.468713
0.468194
0.467676
0.467161
0.466647
0.466135
0.465624
0.465115
0.464607
0.464101
0.463597
0.463094
0.462592
0.462091
0.461592
0.461095
0.460598
0.460103
0.459609
0.459116
0.458624
0.458133
0.457644
0.457155
0.456667
0.45618
0.455695
0.455209
0.454725
0.454241
0.453758
0.453276
0.452794
0.452312
0.451831
0.45135
0.45087
0.45039
0.449909
0.449429
0.448949
0.448468
0.447987
0.447506
0.447024
0.446542
0.446058
0.445574
0.445089
0.444603
0.444115
0.443626
0.443135
0.442642
0.442146
0.441649
0.441149
0.440646
0.44014
0.439631
0.439118
0.438602
0.438081
0.437555
0.437024
0.436488
0.435946
0.435398
0.434843
0.43428
0.43371
0.433132
0.432545
0.431948
0.43134
0.430722
0.430092
0.429449
0.428793
0.428122
0.427436
0.426733
0.426013
0.425274
0.424515
0.423735
0.422932
0.422105
0.421252
0.420371
0.419461
0.41852
0.417545
0.416535
0.415488
0.4144
0.41327
0.412094
0.410871
0.409596
0.408267
0.40688
0.405431
0.403918
0.402336
0.400681
0.398948
0.397133
0.395231
0.393236
0.391145
0.38895
0.386646
0.384226
0.381686
0.379016
0.376212
0.373265
0.370167
0.366912
0.363491
0.359895
0.356117
0.352148
0.347979
0.3436
0.339003
0.334179
0.329119
0.323813
0.318254
0.312431
0.306338
0.299965
0.293307
0.286355
0.279104
0.271549
0.263685
0.25551
0.247021
0.238218
0.229103
0.219677
0.209946
0.199915
0.189594
0.178992
0.168121
0.156997
0.145635
0.134055
0.122276
0.110322
0.098216
0.0859841
0.0736534
0.57142
0.571362
0.571248
0.571077
0.570849
0.570563
0.570223
0.569828
0.569382
0.568885
0.56834
0.567748
0.567113
0.566436
0.565719
0.564965
0.564177
0.563357
0.562508
0.561632
0.560731
0.559808
0.558865
0.557905
0.556929
0.55594
0.55494
0.55393
0.552913
0.55189
0.550862
0.549832
0.5488
0.547767
0.546736
0.545706
0.544678
0.543654
0.542635
0.54162
0.540612
0.539609
0.538612
0.537623
0.536641
0.535666
0.534699
0.533741
0.53279
0.531847
0.530913
0.529987
0.52907
0.528161
0.52726
0.526368
0.525484
0.524609
0.523741
0.522881
0.52203
0.521186
0.52035
0.519522
0.518701
0.517888
0.517082
0.516283
0.515491
0.514705
0.513927
0.513155
0.51239
0.511631
0.510878
0.510131
0.50939
0.508655
0.507926
0.507202
0.506484
0.505771
0.505064
0.504361
0.503664
0.502971
0.502283
0.5016
0.500922
0.500248
0.499579
0.498914
0.498253
0.497596
0.496944
0.496295
0.495651
0.49501
0.494373
0.493739
0.49311
0.492484
0.491861
0.491242
0.490626
0.490014
0.489404
0.488798
0.488195
0.487595
0.486999
0.486405
0.485814
0.485226
0.48464
0.484058
0.483478
0.482901
0.482327
0.481755
0.481185
0.480619
0.480054
0.479492
0.478933
0.478376
0.477821
0.477268
0.476718
0.47617
0.475624
0.47508
0.474538
0.473999
0.473461
0.472925
0.472392
0.47186
0.47133
0.470803
0.470277
0.469752
0.46923
0.46871
0.468191
0.467674
0.467158
0.466644
0.466132
0.465621
0.465112
0.464605
0.464099
0.463594
0.463091
0.462589
0.462089
0.46159
0.461092
0.460596
0.460101
0.459607
0.459114
0.458622
0.458131
0.457642
0.457153
0.456666
0.456179
0.455693
0.455208
0.454724
0.45424
0.453757
0.453275
0.452793
0.452311
0.45183
0.45135
0.450869
0.450389
0.449909
0.449429
0.448948
0.448468
0.447987
0.447506
0.447025
0.446542
0.446059
0.445575
0.44509
0.444604
0.444117
0.443628
0.443137
0.442644
0.442149
0.441652
0.441153
0.44065
0.440145
0.439636
0.439124
0.438607
0.438087
0.437562
0.437031
0.436496
0.435955
0.435407
0.434853
0.434291
0.433722
0.433144
0.432558
0.431962
0.431356
0.430739
0.43011
0.429468
0.428813
0.428144
0.427459
0.426758
0.42604
0.425303
0.424545
0.423767
0.422966
0.422141
0.421291
0.420412
0.419505
0.418567
0.417595
0.416588
0.415544
0.41446
0.413333
0.412162
0.410942
0.409672
0.408347
0.406965
0.405522
0.404015
0.402438
0.400789
0.399062
0.397254
0.395359
0.393371
0.391287
0.3891
0.386804
0.384393
0.381861
0.379201
0.376406
0.373468
0.370381
0.367136
0.363725
0.36014
0.356372
0.352413
0.348254
0.343886
0.3393
0.334486
0.329435
0.324139
0.318588
0.312773
0.306687
0.30032
0.293667
0.286718
0.279469
0.271914
0.264049
0.25587
0.247376
0.238565
0.22944
0.220001
0.210254
0.200206
0.189863
0.179238
0.168341
0.157188
0.145795
0.134181
0.122367
0.110376
0.0982308
0.0859589
0.0735874
0.571533
0.571475
0.57136
0.571187
0.570957
0.570669
0.570326
0.569928
0.569478
0.568977
0.568428
0.567832
0.567192
0.56651
0.565789
0.56503
0.564237
0.563412
0.562558
0.561677
0.560771
0.559844
0.558897
0.557932
0.556952
0.555959
0.554956
0.553943
0.552922
0.551896
0.550866
0.549832
0.548798
0.547763
0.546729
0.545698
0.544669
0.543644
0.542623
0.541607
0.540597
0.539593
0.538596
0.537606
0.536624
0.535649
0.534681
0.533722
0.532771
0.531829
0.530895
0.529969
0.529051
0.528143
0.527242
0.52635
0.525466
0.524591
0.523723
0.522864
0.522013
0.521169
0.520334
0.519506
0.518685
0.517872
0.517066
0.516267
0.515476
0.514691
0.513913
0.513141
0.512376
0.511617
0.510865
0.510118
0.509378
0.508643
0.507914
0.50719
0.506472
0.50576
0.505052
0.50435
0.503653
0.502961
0.502273
0.50159
0.500912
0.500238
0.499569
0.498904
0.498244
0.497587
0.496935
0.496287
0.495642
0.495001
0.494365
0.493731
0.493102
0.492476
0.491853
0.491234
0.490619
0.490006
0.489397
0.488791
0.488188
0.487589
0.486992
0.486398
0.485807
0.485219
0.484634
0.484052
0.483472
0.482895
0.482321
0.481749
0.48118
0.480613
0.480049
0.479487
0.478927
0.47837
0.477815
0.477263
0.476713
0.476165
0.475619
0.475075
0.474533
0.473994
0.473456
0.472921
0.472387
0.471856
0.471326
0.470798
0.470272
0.469748
0.469226
0.468705
0.468187
0.46767
0.467154
0.46664
0.466128
0.465618
0.465109
0.464601
0.464095
0.463591
0.463088
0.462586
0.462086
0.461587
0.461089
0.460593
0.460098
0.459604
0.459111
0.458619
0.458129
0.457639
0.457151
0.456663
0.456177
0.455691
0.455206
0.454722
0.454238
0.453755
0.453273
0.452791
0.45231
0.451829
0.451349
0.450868
0.450388
0.449908
0.449428
0.448948
0.448468
0.447988
0.447507
0.447025
0.446543
0.44606
0.445577
0.445092
0.444606
0.444119
0.44363
0.44314
0.442648
0.442153
0.441657
0.441158
0.440656
0.440151
0.439643
0.439131
0.438615
0.438095
0.437571
0.437041
0.436507
0.435966
0.435419
0.434866
0.434306
0.433738
0.433161
0.432576
0.431981
0.431376
0.430761
0.430133
0.429493
0.42884
0.428173
0.42749
0.426791
0.426075
0.42534
0.424586
0.42381
0.423012
0.42219
0.421342
0.420467
0.419564
0.418629
0.417662
0.416659
0.415619
0.41454
0.413418
0.412252
0.411038
0.409774
0.408455
0.40708
0.405644
0.404143
0.402574
0.400933
0.399215
0.397415
0.395529
0.393552
0.391478
0.389301
0.387016
0.384617
0.382096
0.379448
0.376666
0.373741
0.370667
0.367435
0.364038
0.360467
0.356713
0.352769
0.348624
0.34427
0.339697
0.334897
0.329859
0.324575
0.319036
0.313232
0.307155
0.300797
0.29415
0.287206
0.27996
0.272406
0.264539
0.256356
0.247854
0.239033
0.229893
0.220438
0.21067
0.200597
0.190227
0.17957
0.168638
0.157446
0.146011
0.134352
0.12249
0.110448
0.098251
0.0859251
0.0734985
0.571675
0.571617
0.5715
0.571326
0.571093
0.570803
0.570456
0.570054
0.569599
0.569094
0.568539
0.567938
0.567292
0.566604
0.565876
0.565112
0.564313
0.563481
0.562621
0.561734
0.560822
0.559889
0.558936
0.557966
0.556981
0.555983
0.554975
0.553958
0.552933
0.551903
0.550869
0.549833
0.548795
0.547758
0.546722
0.545688
0.544657
0.54363
0.542607
0.54159
0.540579
0.539574
0.538576
0.537585
0.536602
0.535627
0.534659
0.5337
0.532748
0.531806
0.530871
0.529946
0.529028
0.528119
0.527219
0.526327
0.525444
0.524568
0.523701
0.522842
0.521991
0.521148
0.520313
0.519485
0.518665
0.517852
0.517047
0.516248
0.515457
0.514672
0.513895
0.513123
0.512359
0.5116
0.510848
0.510102
0.509362
0.508627
0.507898
0.507175
0.506458
0.505745
0.505038
0.504336
0.503639
0.502947
0.50226
0.501578
0.5009
0.500226
0.499557
0.498893
0.498232
0.497576
0.496924
0.496276
0.495631
0.494991
0.494354
0.493721
0.493092
0.492466
0.491844
0.491225
0.49061
0.489997
0.489388
0.488783
0.48818
0.48758
0.486984
0.48639
0.485799
0.485211
0.484626
0.484044
0.483464
0.482888
0.482313
0.481742
0.481173
0.480606
0.480042
0.47948
0.478921
0.478364
0.477809
0.477257
0.476706
0.476158
0.475613
0.475069
0.474527
0.473988
0.473451
0.472915
0.472382
0.47185
0.471321
0.470793
0.470267
0.469743
0.469221
0.4687
0.468182
0.467665
0.467149
0.466636
0.466124
0.465613
0.465104
0.464597
0.464091
0.463587
0.463084
0.462582
0.462082
0.461583
0.461085
0.460589
0.460094
0.4596
0.459108
0.458616
0.458126
0.457636
0.457148
0.45666
0.456174
0.455688
0.455203
0.454719
0.454236
0.453753
0.453271
0.452789
0.452308
0.451828
0.451347
0.450867
0.450387
0.449908
0.449428
0.448948
0.448468
0.447988
0.447507
0.447026
0.446544
0.446062
0.445579
0.445094
0.444609
0.444122
0.443634
0.443144
0.442652
0.442158
0.441662
0.441164
0.440662
0.440158
0.439651
0.43914
0.438625
0.438106
0.437582
0.437054
0.43652
0.43598
0.435435
0.434883
0.434324
0.433757
0.433182
0.432598
0.432005
0.431402
0.430788
0.430163
0.429525
0.428874
0.428209
0.427529
0.426832
0.426119
0.425387
0.424636
0.423863
0.423069
0.422251
0.421407
0.420536
0.419637
0.418707
0.417745
0.416747
0.415713
0.41464
0.413525
0.412365
0.411158
0.409901
0.40859
0.407223
0.405795
0.404304
0.402745
0.401113
0.399406
0.397617
0.395743
0.393777
0.391716
0.389552
0.387281
0.384896
0.38239
0.379757
0.37699
0.374082
0.371024
0.36781
0.36443
0.360877
0.357141
0.353214
0.349087
0.344751
0.340196
0.335412
0.330391
0.325123
0.319598
0.313808
0.307743
0.301396
0.294757
0.28782
0.280578
0.273025
0.265156
0.256967
0.248456
0.239622
0.230466
0.220989
0.211196
0.201092
0.190687
0.17999
0.169013
0.157773
0.146285
0.134569
0.122646
0.11054
0.0982769
0.0858827
0.0733864
0.571847
0.571788
0.57167
0.571493
0.571258
0.570963
0.570612
0.570206
0.569746
0.569234
0.568673
0.568065
0.567412
0.566717
0.565982
0.56521
0.564403
0.563564
0.562696
0.561802
0.560883
0.559942
0.558983
0.558006
0.557015
0.556012
0.554998
0.553975
0.552946
0.551911
0.550873
0.549833
0.548792
0.547751
0.546712
0.545675
0.544642
0.543613
0.542588
0.54157
0.540557
0.539551
0.538552
0.53756
0.536576
0.5356
0.534632
0.533672
0.532721
0.531778
0.530843
0.529918
0.529
0.528092
0.527191
0.5263
0.525416
0.524541
0.523675
0.522816
0.521965
0.521123
0.520288
0.519461
0.518641
0.517828
0.517023
0.516225
0.515434
0.51465
0.513873
0.513102
0.512338
0.51158
0.510828
0.510082
0.509342
0.508608
0.50788
0.507157
0.50644
0.505728
0.505021
0.50432
0.503623
0.502931
0.502244
0.501562
0.500885
0.500212
0.499543
0.498878
0.498218
0.497562
0.49691
0.496263
0.495619
0.494978
0.494342
0.493709
0.49308
0.492454
0.491832
0.491214
0.490598
0.489986
0.489378
0.488772
0.488169
0.48757
0.486974
0.48638
0.48579
0.485202
0.484617
0.484035
0.483455
0.482879
0.482305
0.481733
0.481164
0.480597
0.480033
0.479472
0.478913
0.478356
0.477801
0.477249
0.476699
0.476151
0.475605
0.475062
0.47452
0.473981
0.473444
0.472908
0.472375
0.471844
0.471314
0.470786
0.470261
0.469737
0.469215
0.468694
0.468176
0.467659
0.467144
0.46663
0.466118
0.465608
0.465099
0.464592
0.464086
0.463581
0.463079
0.462577
0.462077
0.461578
0.461081
0.460585
0.46009
0.459596
0.459103
0.458612
0.458122
0.457632
0.457144
0.456657
0.45617
0.455685
0.4552
0.454716
0.454233
0.453751
0.453269
0.452787
0.452306
0.451826
0.451346
0.450866
0.450386
0.449907
0.449427
0.448948
0.448468
0.447988
0.447508
0.447027
0.446546
0.446064
0.445581
0.445097
0.444612
0.444126
0.443638
0.443149
0.442657
0.442164
0.441669
0.441171
0.44067
0.440167
0.43966
0.43915
0.438636
0.438118
0.437596
0.437068
0.436536
0.435998
0.435453
0.434903
0.434345
0.43378
0.433207
0.432625
0.432034
0.431433
0.430821
0.430198
0.429562
0.428914
0.428252
0.427575
0.426881
0.426171
0.425443
0.424695
0.423927
0.423137
0.422323
0.421484
0.420619
0.419725
0.4188
0.417844
0.416853
0.415826
0.414759
0.413651
0.4125
0.411301
0.410053
0.408752
0.407394
0.405977
0.404496
0.402949
0.401329
0.399634
0.397859
0.395998
0.394047
0.392001
0.389853
0.387598
0.38523
0.382742
0.380128
0.37738
0.374491
0.371453
0.368259
0.3649
0.361368
0.357654
0.353749
0.349644
0.345329
0.340795
0.336033
0.331032
0.325783
0.320276
0.314503
0.308453
0.302118
0.29549
0.288561
0.281324
0.273773
0.265902
0.257707
0.249186
0.240336
0.23116
0.221657
0.211833
0.201693
0.191245
0.1805
0.16947
0.15817
0.146618
0.134832
0.122836
0.110653
0.0983091
0.0858318
0.0732506
0.572049
0.571989
0.571869
0.57169
0.571451
0.571152
0.570796
0.570384
0.569917
0.569398
0.56883
0.568214
0.567553
0.566849
0.566105
0.565324
0.564508
0.563661
0.562784
0.561881
0.560953
0.560005
0.559037
0.558053
0.557055
0.556044
0.555024
0.553995
0.55296
0.55192
0.550877
0.549832
0.548787
0.547742
0.5467
0.54566
0.544624
0.543592
0.542566
0.541545
0.540531
0.539523
0.538523
0.53753
0.536545
0.535568
0.5346
0.53364
0.532688
0.531745
0.53081
0.529885
0.528968
0.528059
0.527159
0.526268
0.525385
0.52451
0.523644
0.522785
0.521935
0.521093
0.520259
0.519432
0.518612
0.517801
0.516996
0.516199
0.515408
0.514625
0.513848
0.513077
0.512314
0.511556
0.510805
0.510059
0.50932
0.508587
0.507859
0.507136
0.506419
0.505708
0.505002
0.5043
0.503604
0.502913
0.502226
0.501544
0.500867
0.500194
0.499526
0.498862
0.498202
0.497547
0.496895
0.496247
0.495604
0.494964
0.494328
0.493695
0.493066
0.492441
0.491819
0.491201
0.490585
0.489974
0.489365
0.48876
0.488157
0.487558
0.486962
0.486369
0.485778
0.485191
0.484606
0.484024
0.483445
0.482868
0.482294
0.481723
0.481154
0.480588
0.480024
0.479462
0.478903
0.478347
0.477792
0.47724
0.47669
0.476142
0.475597
0.475053
0.474512
0.473973
0.473436
0.4729
0.472367
0.471836
0.471306
0.470779
0.470253
0.46973
0.469208
0.468687
0.468169
0.467652
0.467137
0.466623
0.466112
0.465601
0.465093
0.464585
0.46408
0.463576
0.463073
0.462571
0.462071
0.461573
0.461075
0.460579
0.460085
0.459591
0.459099
0.458607
0.458117
0.457628
0.45714
0.456653
0.456166
0.455681
0.455197
0.454713
0.45423
0.453748
0.453266
0.452785
0.452304
0.451824
0.451344
0.450864
0.450385
0.449906
0.449427
0.448947
0.448468
0.447988
0.447509
0.447028
0.446547
0.446066
0.445583
0.4451
0.444616
0.44413
0.443643
0.443154
0.442663
0.442171
0.441676
0.441179
0.44068
0.440177
0.439671
0.439162
0.438649
0.438132
0.437611
0.437085
0.436554
0.436017
0.435475
0.434926
0.43437
0.433807
0.433235
0.432656
0.432067
0.431468
0.430859
0.430238
0.429606
0.428961
0.428302
0.427628
0.426938
0.426232
0.425508
0.424765
0.424001
0.423216
0.422407
0.421574
0.420714
0.419826
0.418909
0.417959
0.416976
0.415956
0.414898
0.413799
0.412656
0.411467
0.410229
0.408939
0.407593
0.406188
0.40472
0.403186
0.40158
0.3999
0.39814
0.396296
0.394362
0.392333
0.390204
0.387968
0.38562
0.383153
0.38056
0.377834
0.374968
0.371954
0.368784
0.365449
0.361942
0.358254
0.354374
0.350294
0.346005
0.341496
0.336758
0.331781
0.326555
0.32107
0.315317
0.309285
0.302966
0.296351
0.289432
0.282201
0.274652
0.26678
0.258578
0.250045
0.241178
0.231978
0.222446
0.212586
0.202403
0.191905
0.181104
0.170011
0.158641
0.147013
0.135146
0.123062
0.110788
0.0983481
0.0857723
0.0730906
0.572282
0.572221
0.572099
0.571917
0.571674
0.57137
0.571008
0.570589
0.570114
0.569588
0.56901
0.568385
0.567714
0.567
0.566246
0.565455
0.564629
0.563771
0.562884
0.56197
0.561033
0.560075
0.559099
0.558106
0.557099
0.556081
0.555053
0.554017
0.552975
0.551929
0.550881
0.549831
0.548781
0.547732
0.546685
0.545642
0.544603
0.543568
0.542539
0.541517
0.5405
0.539491
0.53849
0.537496
0.53651
0.535532
0.534563
0.533602
0.53265
0.531707
0.530773
0.529847
0.52893
0.528022
0.527122
0.526231
0.525348
0.524474
0.523608
0.52275
0.521901
0.521059
0.520225
0.519399
0.51858
0.517769
0.516965
0.516168
0.515378
0.514595
0.513819
0.513049
0.512286
0.511529
0.510778
0.510033
0.509295
0.508561
0.507834
0.507112
0.506396
0.505685
0.504979
0.504278
0.503582
0.502892
0.502205
0.501524
0.500847
0.500175
0.499507
0.498843
0.498184
0.497528
0.496877
0.49623
0.495586
0.494947
0.494311
0.493679
0.49305
0.492425
0.491804
0.491186
0.490571
0.489959
0.489351
0.488746
0.488144
0.487545
0.486949
0.486356
0.485765
0.485178
0.484594
0.484012
0.483433
0.482856
0.482283
0.481711
0.481143
0.480576
0.480013
0.479451
0.478893
0.478336
0.477782
0.47723
0.47668
0.476132
0.475587
0.475044
0.474502
0.473963
0.473426
0.472891
0.472358
0.471827
0.471298
0.47077
0.470245
0.469721
0.469199
0.468679
0.468161
0.467644
0.467129
0.466616
0.466104
0.465594
0.465085
0.464578
0.464073
0.463569
0.463066
0.462565
0.462065
0.461566
0.461069
0.460573
0.460079
0.459585
0.459093
0.458602
0.458112
0.457623
0.457135
0.456648
0.456162
0.455677
0.455192
0.454709
0.454226
0.453744
0.453263
0.452782
0.452301
0.451821
0.451342
0.450863
0.450383
0.449905
0.449426
0.448947
0.448468
0.447989
0.447509
0.44703
0.446549
0.446068
0.445586
0.445103
0.44462
0.444134
0.443648
0.44316
0.44267
0.442179
0.441685
0.441189
0.44069
0.440189
0.439684
0.439176
0.438664
0.438149
0.437629
0.437104
0.436575
0.43604
0.435499
0.434952
0.434398
0.433837
0.433268
0.432691
0.432104
0.431508
0.430902
0.430285
0.429656
0.429014
0.428358
0.427689
0.427003
0.426301
0.425582
0.424844
0.424085
0.423305
0.422503
0.421676
0.420823
0.419942
0.419032
0.41809
0.417115
0.416104
0.415056
0.413966
0.412834
0.411657
0.41043
0.409152
0.407819
0.406428
0.404974
0.403455
0.401866
0.400202
0.39846
0.396634
0.394719
0.392711
0.390603
0.388389
0.386064
0.38362
0.381052
0.378352
0.375512
0.372525
0.369383
0.366077
0.362598
0.358939
0.355089
0.351038
0.346779
0.342299
0.33759
0.33264
0.327441
0.321981
0.316251
0.310241
0.303941
0.297342
0.290435
0.283212
0.275667
0.267793
0.259584
0.251038
0.242152
0.232926
0.22336
0.213458
0.203226
0.192672
0.181805
0.170639
0.159189
0.147473
0.135511
0.123327
0.110945
0.0983947
0.0857043
0.0729055
0.572547
0.572484
0.57236
0.572174
0.571926
0.571617
0.571248
0.570821
0.570338
0.569802
0.569214
0.568578
0.567896
0.567171
0.566405
0.565602
0.564764
0.563894
0.562996
0.562071
0.561123
0.560154
0.559167
0.558164
0.557148
0.556121
0.555084
0.55404
0.552991
0.551939
0.550884
0.549828
0.548773
0.547719
0.546668
0.545621
0.544578
0.543541
0.542509
0.541484
0.540465
0.539455
0.538451
0.537456
0.536469
0.535491
0.534521
0.53356
0.532608
0.531664
0.53073
0.529804
0.528887
0.527979
0.52708
0.526189
0.525307
0.524433
0.523568
0.522711
0.521862
0.521021
0.520187
0.519362
0.518544
0.517733
0.51693
0.516134
0.515344
0.514562
0.513786
0.513017
0.512255
0.511498
0.510748
0.510004
0.509266
0.508533
0.507807
0.507085
0.506369
0.505659
0.504954
0.504253
0.503558
0.502868
0.502182
0.501501
0.500825
0.500153
0.499485
0.498822
0.498163
0.497508
0.496857
0.49621
0.495567
0.494928
0.494293
0.493661
0.493032
0.492408
0.491786
0.491169
0.490554
0.489943
0.489335
0.48873
0.488128
0.487529
0.486934
0.486341
0.485751
0.485164
0.484579
0.483998
0.483419
0.482843
0.482269
0.481698
0.48113
0.480564
0.48
0.479439
0.47888
0.478324
0.47777
0.477218
0.476669
0.476121
0.475576
0.475033
0.474492
0.473953
0.473416
0.472881
0.472348
0.471817
0.471288
0.470761
0.470235
0.469712
0.46919
0.46867
0.468152
0.467635
0.46712
0.466607
0.466096
0.465586
0.465077
0.46457
0.464065
0.463561
0.463058
0.462557
0.462058
0.461559
0.461062
0.460567
0.460072
0.459579
0.459087
0.458596
0.458106
0.457617
0.457129
0.456643
0.456157
0.455672
0.455188
0.454705
0.454222
0.45374
0.453259
0.452778
0.452298
0.451819
0.451339
0.45086
0.450382
0.449903
0.449425
0.448946
0.448468
0.447989
0.44751
0.447031
0.446551
0.446071
0.445589
0.445107
0.444624
0.44414
0.443654
0.443167
0.442678
0.442187
0.441694
0.441199
0.440702
0.440201
0.439698
0.439191
0.438681
0.438167
0.437649
0.437126
0.436598
0.436065
0.435526
0.434981
0.43443
0.433871
0.433304
0.43273
0.432146
0.431553
0.43095
0.430336
0.429711
0.429073
0.428422
0.427756
0.427076
0.426379
0.425664
0.424932
0.424179
0.423406
0.42261
0.42179
0.420944
0.420071
0.419169
0.418236
0.417271
0.41627
0.415232
0.414154
0.413033
0.411868
0.410655
0.409391
0.408072
0.406696
0.405259
0.403757
0.402186
0.400541
0.398818
0.397013
0.39512
0.393134
0.39105
0.388861
0.386562
0.384145
0.381604
0.378933
0.376123
0.373166
0.370055
0.366781
0.363336
0.359709
0.355893
0.351876
0.34765
0.343204
0.338528
0.33361
0.328442
0.323011
0.317309
0.311323
0.305045
0.298464
0.291572
0.28436
0.276819
0.268944
0.260729
0.252169
0.243262
0.234007
0.224404
0.214456
0.204169
0.19355
0.18261
0.171361
0.159818
0.148002
0.135931
0.123631
0.111128
0.0984498
0.0856277
0.0726945
0.572844
0.57278
0.572653
0.572463
0.57221
0.571894
0.571517
0.571081
0.570588
0.570041
0.569442
0.568794
0.5681
0.567361
0.566582
0.565766
0.564914
0.564031
0.56312
0.562182
0.561221
0.56024
0.559242
0.558228
0.557201
0.556164
0.555118
0.554065
0.553008
0.551948
0.550886
0.549823
0.548762
0.547703
0.546648
0.545596
0.54455
0.543509
0.542474
0.541446
0.540426
0.539413
0.538408
0.537412
0.536424
0.535445
0.534474
0.533513
0.53256
0.531617
0.530682
0.529756
0.52884
0.527932
0.527033
0.526143
0.525261
0.524388
0.523523
0.522667
0.521818
0.520978
0.520145
0.51932
0.518503
0.517693
0.516891
0.516095
0.515307
0.514525
0.51375
0.512982
0.51222
0.511464
0.510715
0.509971
0.509234
0.508502
0.507776
0.507055
0.50634
0.50563
0.504925
0.504226
0.503531
0.502841
0.502156
0.501476
0.5008
0.500128
0.499461
0.498799
0.49814
0.497485
0.496835
0.496189
0.495546
0.494907
0.494272
0.49364
0.493013
0.492388
0.491767
0.49115
0.490536
0.489925
0.489317
0.488712
0.488111
0.487512
0.486917
0.486324
0.485735
0.485148
0.484564
0.483983
0.483404
0.482828
0.482255
0.481684
0.481116
0.48055
0.479987
0.479426
0.478867
0.478311
0.477757
0.477205
0.476656
0.476109
0.475564
0.475021
0.47448
0.473941
0.473404
0.47287
0.472337
0.471806
0.471277
0.47075
0.470225
0.469701
0.46918
0.46866
0.468142
0.467625
0.467111
0.466598
0.466086
0.465576
0.465068
0.464561
0.464056
0.463552
0.46305
0.462549
0.46205
0.461552
0.461055
0.460559
0.460065
0.459572
0.45908
0.458589
0.458099
0.457611
0.457123
0.456637
0.456151
0.455666
0.455183
0.4547
0.454217
0.453736
0.453255
0.452775
0.452295
0.451815
0.451337
0.450858
0.45038
0.449902
0.449424
0.448946
0.448468
0.44799
0.447511
0.447032
0.446553
0.446073
0.445593
0.445111
0.444629
0.444145
0.44366
0.443174
0.442686
0.442197
0.441705
0.441211
0.440714
0.440215
0.439713
0.439208
0.438699
0.438187
0.43767
0.437149
0.436624
0.436092
0.435556
0.435013
0.434464
0.433908
0.433344
0.432773
0.432192
0.431603
0.431003
0.430393
0.429772
0.429138
0.428491
0.427831
0.427155
0.426464
0.425755
0.425029
0.424283
0.423516
0.422727
0.421915
0.421078
0.420214
0.419321
0.418398
0.417443
0.416453
0.415426
0.41436
0.413253
0.412101
0.410903
0.409654
0.408352
0.406993
0.405573
0.40409
0.402539
0.400915
0.399214
0.397432
0.395563
0.393603
0.391545
0.389383
0.387113
0.384726
0.382216
0.379577
0.3768
0.373877
0.370801
0.367564
0.364155
0.360566
0.356787
0.352808
0.34862
0.344212
0.339573
0.334692
0.329558
0.324161
0.31849
0.312534
0.306281
0.299722
0.292848
0.285648
0.278114
0.27024
0.262018
0.253444
0.244514
0.235227
0.225583
0.215584
0.205236
0.194545
0.183522
0.17218
0.160534
0.148604
0.136411
0.123979
0.111337
0.0985144
0.0855427