/*--------------------------------*- C++ -*----------------------------------*\
  =========                 |
  \\      /  F ield         | OpenFOAM: The Open Source CFD Toolbox
   \\    /   O peration     | Website:  https://openfoam.org
    \\  /    A nd           | Version:  7
     \\/     M anipulation  |
\*---------------------------------------------------------------------------*/
FoamFile
{
    version     2.0;
    format      ascii;
    class       surfaceScalarField;
    location    "5.8";
    object      phi;
}
// * * * * * * * * * * * * * * * * * * * * * * * * * * * * * * * * * * * * * //

dimensions      [0 3 -1 0 0 0 0];

internalField   nonuniform List<scalar> 
615
(
0.000107475
-0.000119662
0.000100561
-0.000149107
8.98974e-05
-0.00018635
7.13332e-05
-0.000228724
3.96128e-05
-0.000253151
-0.000177243
0.000132834
-1.02959e-06
0.000132772
-1.01446e-06
0.000132711
-9.99776e-07
0.00013265
-9.85556e-07
0.00013259
-9.71823e-07
0.000132532
-9.58604e-07
0.000132473
-9.45934e-07
0.000132416
-9.33855e-07
0.00013236
-9.22416e-07
0.000132304
-9.1168e-07
0.000132249
-9.0172e-07
0.000132194
-8.92622e-07
0.00013214
-8.84491e-07
0.000132087
-8.77452e-07
0.000132034
-8.71651e-07
0.000131982
-8.67262e-07
0.00013193
-8.64493e-07
0.000131878
-8.63589e-07
0.000131826
-8.64837e-07
0.000131775
-8.68582e-07
0.000131723
-8.75225e-07
0.000131671
-8.85246e-07
0.000131619
-8.99207e-07
0.000131566
-9.17775e-07
0.000131512
-9.41734e-07
0.000131457
-9.72013e-07
0.000131401
-1.00971e-06
0.000131343
-1.05611e-06
0.000131283
-1.11276e-06
0.00013122
-1.18145e-06
0.000131154
-1.26431e-06
0.000131084
-1.36389e-06
0.000131009
-1.48315e-06
0.000130928
-1.62563e-06
0.00013084
-1.79552e-06
0.000130744
-1.99778e-06
0.000130638
-2.23828e-06
0.00013052
-2.52401e-06
0.000130388
-2.86326e-06
0.000130239
-3.26592e-06
0.00013007
-3.74373e-06
0.000129878
-4.31074e-06
0.000129658
-4.98376e-06
0.000129405
-5.7829e-06
0.000129113
-6.73236e-06
0.000128774
-7.86128e-06
0.00012838
-9.20492e-06
0.000127919
-1.08061e-05
0.00012738
-1.27169e-05
0.000126747
-1.50014e-05
0.000126002
-1.77384e-05
0.000125121
-2.10258e-05
0.000124075
-2.49864e-05
0.00012283
-2.97751e-05
0.000121338
-3.55897e-05
0.00011954
-4.26863e-05
0.000117353
-5.14001e-05
0.000114664
-6.2177e-05
0.000111303
-7.56157e-05
0.000107001
-9.25266e-05
0.000101303
-0.000113964
9.33237e-05
-0.000141127
8.13541e-05
-0.00017438
6.19176e-05
-0.000209287
3.19932e-05
-0.000223226
-0.00014525
0.00013014
-9.64083e-07
0.000130076
-9.49923e-07
0.000130012
-9.36185e-07
0.00012995
-9.22886e-07
0.000129888
-9.10045e-07
0.000129827
-8.97691e-07
0.000129767
-8.85856e-07
0.000129708
-8.7458e-07
0.000129649
-8.63911e-07
0.000129591
-8.53908e-07
0.000129534
-8.4464e-07
0.000129478
-8.36192e-07
0.000129422
-8.28662e-07
0.000129367
-8.22169e-07
0.000129312
-8.16853e-07
0.000129257
-8.12881e-07
0.000129203
-8.1045e-07
0.00012915
-8.09794e-07
0.000129096
-8.11188e-07
0.000129042
-8.14959e-07
0.000128989
-8.21493e-07
0.000128935
-8.31244e-07
0.00012888
-8.4475e-07
0.000128825
-8.62647e-07
0.000128769
-8.85684e-07
0.000128712
-9.14746e-07
0.000128653
-9.50879e-07
0.000128592
-9.95318e-07
0.000128529
-1.04952e-06
0.000128463
-1.11521e-06
0.000128393
-1.19442e-06
0.000128318
-1.28957e-06
0.000128239
-1.4035e-06
0.000128153
-1.53958e-06
0.000128059
-1.7018e-06
0.000127956
-1.89491e-06
0.000127842
-2.12451e-06
0.000127716
-2.39726e-06
0.000127573
-2.72109e-06
0.000127413
-3.10542e-06
0.000127231
-3.56148e-06
0.000127023
-4.10269e-06
0.000126784
-4.74507e-06
0.000126509
-5.50784e-06
0.000126191
-6.41409e-06
0.000125821
-7.49166e-06
0.00012539
-8.77417e-06
0.000124887
-1.03024e-05
0.000124296
-1.21262e-05
0.000123601
-1.43064e-05
0.000122781
-1.69181e-05
0.000121809
-2.00543e-05
0.000120654
-2.38311e-05
0.000119274
-2.83951e-05
0.000117617
-3.39324e-05
0.000115613
-4.06824e-05
0.000113169
-4.89563e-05
0.000110155
-5.91627e-05
0.00010638
-7.18408e-05
0.000101548
-8.76948e-05
9.51728e-05
-0.000107588
8.63641e-05
-0.000132319
7.35296e-05
-0.000161546
5.39115e-05
-0.000189669
2.61581e-05
-0.000195473
-0.000119092
0.000127101
-8.96815e-07
0.000127035
-8.83653e-07
0.00012697
-8.70887e-07
0.000126905
-8.58531e-07
0.000126842
-8.46606e-07
0.000126779
-8.35138e-07
0.000126717
-8.24158e-07
0.000126657
-8.13703e-07
0.000126597
-8.0382e-07
0.000126537
-7.94563e-07
0.000126479
-7.86e-07
0.000126421
-7.7821e-07
0.000126363
-7.71286e-07
0.000126306
-7.65341e-07
0.00012625
-7.60509e-07
0.000126194
-7.56946e-07
0.000126138
-7.54841e-07
0.000126083
-7.54415e-07
0.000126028
-7.55929e-07
0.000125973
-7.59692e-07
0.000125917
-7.6607e-07
0.000125861
-7.75495e-07
0.000125805
-7.88476e-07
0.000125748
-8.05616e-07
0.00012569
-8.27624e-07
0.000125631
-8.5534e-07
0.000125569
-8.89756e-07
0.000125506
-9.3204e-07
0.00012544
-9.83577e-07
0.000125371
-1.046e-06
0.000125298
-1.12124e-06
0.00012522
-1.21158e-06
0.000125136
-1.31972e-06
0.000125045
-1.44886e-06
0.000124946
-1.60278e-06
0.000124837
-1.78598e-06
0.000124717
-2.00377e-06
0.000124582
-2.26247e-06
0.00012443
-2.5696e-06
0.000124259
-2.93409e-06
0.000124064
-3.36659e-06
0.000123841
-3.87983e-06
0.000123585
-4.48899e-06
0.00012329
-5.2123e-06
0.000122947
-6.07166e-06
0.000122549
-7.09341e-06
0.000122084
-8.30944e-06
0.00012154
-9.75835e-06
0.000120901
-1.14872e-05
0.000120148
-1.35535e-05
0.000119258
-1.60281e-05
0.000118203
-1.89985e-05
0.000116945
-2.25737e-05
0.000115441
-2.68906e-05
0.00011363
-3.21223e-05
0.000111438
-3.84901e-05
0.000108761
-4.62789e-05
0.000105455
-5.58574e-05
0.000101318
-6.7703e-05
9.60359e-05
-8.24131e-05
8.91153e-05
-0.000100668
7.96995e-05
-0.000122903
6.63693e-05
-0.000148216
4.70456e-05
-0.000170346
2.15846e-05
-0.000170012
-9.7507e-05
0.000123709
-8.28274e-07
0.000123641
-8.16129e-07
0.000123575
-8.04352e-07
0.000123509
-7.92957e-07
0.000123445
-7.81964e-07
0.000123381
-7.71396e-07
0.000123318
-7.61283e-07
0.000123256
-7.51661e-07
0.000123195
-7.42573e-07
0.000123134
-7.34072e-07
0.000123075
-7.26219e-07
0.000123015
-7.1909e-07
0.000122957
-7.12773e-07
0.000122899
-7.07374e-07
0.000122841
-7.03019e-07
0.000122784
-6.99856e-07
0.000122728
-6.98061e-07
0.000122671
-6.97843e-07
0.000122615
-6.99448e-07
0.000122558
-7.03167e-07
0.000122501
-7.09345e-07
0.000122444
-7.18387e-07
0.000122386
-7.30774e-07
0.000122328
-7.47071e-07
0.000122268
-7.67949e-07
0.000122207
-7.94197e-07
0.000122144
-8.26747e-07
0.000122079
-8.66702e-07
0.000122011
-9.15364e-07
0.000121939
-9.74269e-07
0.000121863
-1.04524e-06
0.000121782
-1.13042e-06
0.000121694
-1.23235e-06
0.000121599
-1.35405e-06
0.000121496
-1.49908e-06
0.000121381
-1.67166e-06
0.000121254
-1.8768e-06
0.000121112
-2.12046e-06
0.000120953
-2.4097e-06
0.000120771
-2.75295e-06
0.000120565
-3.16022e-06
0.000120329
-3.64348e-06
0.000120057
-4.21704e-06
0.000119743
-4.89805e-06
0.000119378
-5.70709e-06
0.000118953
-6.66894e-06
0.000118458
-7.81354e-06
0.000117876
-9.17715e-06
0.000117193
-1.08039e-05
0.000116387
-1.27476e-05
0.000115433
-1.50744e-05
0.000114301
-1.78659e-05
0.00011295
-2.12232e-05
0.000111333
-2.52731e-05
0.000109385
-3.01745e-05
0.000107024
-3.61294e-05
0.00010414
-4.33951e-05
0.000100583
-5.22995e-05
9.61375e-05
-6.32579e-05
9.04897e-05
-7.67653e-05
8.31535e-05
-9.33316e-05
7.3334e-05
-0.000113083
5.98129e-05
-0.000134694
4.11118e-05
-0.000151644
1.79351e-05
-0.000146835
-7.95719e-05
0.000119957
-7.58964e-07
0.000119889
-7.47847e-07
0.000119821
-7.3707e-07
0.000119755
-7.26645e-07
0.00011969
-7.16591e-07
0.000119625
-7.06931e-07
0.000119562
-6.97693e-07
0.000119499
-6.88908e-07
0.000119437
0.000119376
0.000119315
0.000119255
0.000119196
0.000119137
0.000119079
0.000119021
0.000118964
0.000118907
0.000118849
0.000118792
0.000118734
0.000118676
0.000118617
0.000118558
0.000118497
0.000118434
0.00011837
0.000118303
0.000118233
0.000118159
0.000118081
0.000117997
0.000117907
0.000117809
0.000117701
0.000117582
0.000117449
0.000117301
0.000117134
0.000116944
0.000116728
0.000116479
0.000116193
0.000115862
0.000115478
0.00011503
0.000114506
0.000113892
0.000113169
0.000112316
0.000111305
0.000110104
0.000108671
0.000106954
0.000104886
0.00010238
9.93202e-05
9.55515e-05
9.08583e-05
8.49298e-05
7.73032e-05
6.7263e-05
5.37999e-05
3.59463e-05
1.49789e-05
0.000115838
0.000115769
0.000115702
0.000115635
0.000115569
0.000115505
0.000115441
)
;

boundaryField
{
    inlet
    {
        type            calculated;
        value           nonuniform 0();
    }
    outlet
    {
        type            calculated;
        value           nonuniform 0();
    }
    wall
    {
        type            calculated;
        value           uniform 0;
    }
    wedge1
    {
        type            wedge;
        value           nonuniform List<scalar> 
344
(
-3.99775e-17
-3.67926e-17
9.20648e-17
-3.0585e-17
-1.45975e-16
4.60344e-17
-3.93945e-17
-3.62533e-17
9.07052e-17
-3.01422e-17
-1.43837e-16
4.53568e-17
-3.87776e-17
-3.56828e-17
8.94381e-17
-2.96582e-17
-1.41719e-16
4.47378e-17
-3.82241e-17
-3.51772e-17
8.81571e-17
-2.92454e-17
-1.39722e-16
4.40953e-17
-3.76907e-17
-3.4681e-17
8.69349e-17
-2.884e-17
-1.37785e-16
4.3475e-17
-3.71815e-17
-3.42192e-17
8.57449e-17
-2.84595e-17
-1.35927e-16
4.28829e-17
-3.66924e-17
-3.37724e-17
8.46043e-17
-2.80908e-17
-1.34147e-16
4.23206e-17
-3.61862e-17
-3.33108e-17
8.35567e-17
-2.77e-17
-1.32412e-16
4.18235e-17
-3.57362e-17
-3.28854e-17
8.25465e-17
-2.73506e-17
-1.30801e-16
-3.52826e-17
-3.24761e-17
8.16197e-17
-2.70052e-17
-1.29268e-16
-3.48993e-17
-3.21222e-17
8.0724e-17
-2.67192e-17
-1.27885e-16
-3.45001e-17
-3.17543e-17
7.99562e-17
-2.64085e-17
-1.26586e-16
-3.4179e-17
-3.14539e-17
7.92394e-17
-2.61676e-17
-1.25468e-16
-3.39086e-17
-3.12164e-17
7.86008e-17
-2.59814e-17
-1.24525e-16
-3.36855e-17
-3.10177e-17
7.80743e-17
-2.58263e-17
-1.23759e-16
-3.34748e-17
-3.08319e-17
7.77192e-17
-2.56721e-17
-1.23161e-16
-3.33571e-17
-3.07183e-17
7.74861e-17
-2.55894e-17
-1.22832e-16
-3.32795e-17
-3.06623e-17
7.74412e-17
-2.55487e-17
-1.22756e-16
-3.33246e-17
-3.07087e-17
7.75542e-17
-2.56075e-17
-1.23034e-16
-3.34188e-17
-3.08039e-17
7.79378e-17
-2.56953e-17
-1.23644e-16
-3.36608e-17
-3.10324e-17
7.85476e-17
-2.59129e-17
-1.24722e-16
-3.4042e-17
-3.14047e-17
7.94426e-17
-2.62526e-17
-1.26315e-16
-3.45723e-17
-3.1913e-17
8.06953e-17
-2.67077e-17
-1.2849e-16
-3.52355e-17
-3.25471e-17
8.24043e-17
-2.72627e-17
-1.31311e-16
-3.61327e-17
-3.33856e-17
8.45794e-17
-2.80042e-17
-1.34962e-16
-3.72415e-17
-3.4442e-17
8.7343e-17
-2.89249e-17
-1.39531e-16
-3.86714e-17
-3.5787e-17
9.07393e-17
-3.01071e-17
-1.4524e-16
-4.03842e-17
-3.74012e-17
9.4968e-17
-3.15096e-17
-1.52209e-16
-4.2529e-17
-3.94258e-17
1.00067e-16
-3.32823e-17
-1.60757e-16
-4.51294e-17
-4.1868e-17
1.06268e-16
-3.54154e-17
-1.71089e-16
-4.8272e-17
-4.48316e-17
1.13734e-16
-3.79966e-17
-1.83545e-16
-5.20481e-17
-4.8386e-17
1.22708e-16
-4.10866e-17
-1.9849e-16
-5.65316e-17
-5.26062e-17
1.33497e-16
-4.47466e-17
-2.16338e-16
-6.19241e-17
-5.76654e-17
1.4636e-16
-4.91434e-17
-2.37682e-16
-6.83268e-17
-6.36915e-17
1.61716e-16
-5.43683e-17
-2.63095e-16
-7.59962e-17
-7.08956e-17
1.79957e-16
-6.06246e-17
-2.93378e-16
-8.5068e-17
-7.94199e-17
2.01696e-16
-6.8014e-17
-3.29336e-16
-9.58929e-17
-8.95859e-17
2.27481e-16
-7.68379e-17
-3.72089e-16
-1.08754e-16
-1.01678e-16
2.5808e-16
-8.73302e-17
-4.22852e-16
-1.24019e-16
-1.16024e-16
2.94403e-16
-9.97739e-17
-4.83086e-16
-1.42091e-16
-1.33008e-16
3.37549e-16
-1.14497e-16
-5.54514e-16
-1.63573e-16
-1.53183e-16
3.88728e-16
-1.31994e-16
-6.39301e-16
-1.89042e-16
-1.77122e-16
4.4949e-16
-1.52745e-16
-7.39903e-16
-2.19325e-16
-2.05574e-16
5.21604e-16
-1.77421e-16
-8.59381e-16
-2.55257e-16
-2.39336e-16
6.07327e-16
-2.06686e-16
-1.00127e-15
-2.98021e-16
-2.79518e-16
7.09202e-16
-2.41528e-16
-1.16998e-15
-3.48922e-16
-3.27359e-16
8.30423e-16
-2.83006e-16
-1.37072e-15
-4.09568e-16
-3.84355e-16
9.7486e-16
-3.32408e-16
-1.60982e-15
-4.8189e-16
-4.52326e-16
1.14723e-15
-3.91304e-16
-1.89495e-15
-5.68373e-16
-5.33589e-16
1.35322e-15
-4.61701e-16
-2.23556e-15
-6.71936e-16
-6.30913e-16
1.5999e-15
-5.45962e-16
-2.64311e-15
-7.96342e-16
-7.47797e-16
1.89596e-15
-6.47094e-16
-3.13184e-15
-9.46136e-16
-8.88499e-16
2.25236e-15
-7.68696e-16
-3.71922e-15
-1.12726e-15
-1.05857e-15
2.68266e-15
-9.15476e-16
-4.42722e-15
-1.34714e-15
-1.26489e-15
3.20426e-15
-1.09317e-15
-5.28321e-15
-1.61545e-15
-1.51643e-15
3.83932e-15
-1.30919e-15
-6.32177e-15
-1.94488e-15
-1.82483e-15
4.61653e-15
-1.57296e-15
-7.58676e-15
-2.35234e-15
-2.20544e-15
5.57327e-15
-1.89659e-15
-9.13358e-15
-2.86075e-15
-2.67876e-15
6.75822e-15
-2.29566e-15
-1.10315e-14
-3.50141e-15
-3.27187e-15
8.23364e-15
-2.78906e-15
-1.33608e-14
-4.59664e-15
-4.31592e-15
-4.01894e-15
1.00726e-14
-3.39723e-15
-1.61979e-14
-5.73429e-15
-5.35448e-15
-4.95453e-15
1.23315e-14
-4.12894e-15
-1.95386e-14
-7.18852e-15
-6.64126e-15
-6.0749e-15
1.49393e-14
-4.94159e-15
-2.30987e-14
-8.88327e-15
-8.02831e-15
-7.18542e-15
1.72976e-14
-5.60496e-15
-2.56805e-14
-9.92347e-15
-8.63372e-15
-7.46088e-15
1.73831e-14
-5.46227e-15
-2.43096e-14
-6.98614e-15
-5.64672e-15
-4.572e-15
1.00413e-14
-2.98553e-15
-1.26148e-14
)
;
    }
    wedge2
    {
        type            wedge;
        value           nonuniform List<scalar> 
344
(
-4.02752e-17
-3.71393e-17
9.16607e-17
-3.1018e-17
-1.46443e-16
4.55581e-17
-3.96767e-17
-3.65909e-17
9.03193e-17
-3.0556e-17
-1.4429e-16
4.48933e-17
-3.91468e-17
-3.61057e-17
8.89654e-17
-3.01622e-17
-1.42247e-16
4.42106e-17
-3.85893e-17
-3.55889e-17
8.77089e-17
-2.97253e-17
-1.40218e-16
4.3594e-17
-3.80491e-17
-3.50975e-17
8.64809e-17
-2.93107e-17
-1.38269e-16
4.29999e-17
-3.75243e-17
-3.46085e-17
8.5313e-17
-2.89022e-17
-1.36391e-16
4.2425e-17
-3.70216e-17
-3.41439e-17
8.41944e-17
-2.85155e-17
-1.34597e-16
4.1871e-17
-3.65814e-17
-3.37362e-17
8.30889e-17
-2.8187e-17
-1.32929e-16
4.13065e-17
-3.61342e-17
-3.33382e-17
8.20613e-17
-2.7856e-17
-1.31326e-16
-3.57442e-17
-3.29742e-17
8.10764e-17
-2.7564e-17
-1.2985e-16
-3.53433e-17
-3.26102e-17
8.02e-17
-2.72599e-17
-1.28453e-16
-3.50243e-17
-3.23218e-17
7.93508e-17
-2.70333e-17
-1.27226e-16
-3.47009e-17
-3.20349e-17
7.86247e-17
-2.67963e-17
-1.26104e-16
-3.44101e-17
-3.17629e-17
7.80167e-17
-2.65713e-17
-1.25129e-16
-3.41663e-17
-3.15403e-17
7.75196e-17
-2.63912e-17
-1.24344e-16
-3.40176e-17
-3.14056e-17
7.71054e-17
-2.62969e-17
-1.23809e-16
-3.38992e-17
-3.13141e-17
7.68609e-17
-2.62307e-17
-1.23485e-16
-3.38824e-17
-3.12979e-17
7.67639e-17
-2.62369e-17
-1.23462e-16
-3.39065e-17
-3.13325e-17
7.68969e-17
-2.62761e-17
-1.23725e-16
-3.40711e-17
-3.14961e-17
7.7209e-17
-2.64397e-17
-1.24398e-16
-3.43082e-17
-3.17329e-17
7.78174e-17
-2.6652e-17
-1.25466e-16
-3.46624e-17
-3.20664e-17
7.87492e-17
-2.695e-17
-1.27024e-16
-3.51666e-17
-3.25445e-17
8.00335e-17
-2.73752e-17
-1.29173e-16
-3.58874e-17
-3.32246e-17
8.16918e-17
-2.79842e-17
-1.3205e-16
-3.67833e-17
-3.40842e-17
8.3856e-17
-2.87388e-17
-1.35703e-16
-3.7947e-17
-3.51759e-17
8.65712e-17
-2.97035e-17
-1.40322e-16
-3.9352e-17
-3.65069e-17
8.99908e-17
-3.08636e-17
-1.46014e-16
-4.11348e-17
-3.81886e-17
9.41487e-17
-3.23402e-17
-1.53044e-16
-4.32619e-17
-4.01889e-17
9.92831e-17
-3.40776e-17
-1.61551e-16
-4.58468e-17
-4.2629e-17
1.05487e-16
-3.61972e-17
-1.71868e-16
-4.89646e-17
-4.5557e-17
1.12985e-16
-3.87428e-17
-1.84296e-16
-5.27155e-17
-4.90835e-17
1.21987e-16
-4.18096e-17
-1.99221e-16
-5.72517e-17
-5.33459e-17
1.32728e-16
-4.55205e-17
-2.17124e-16
-6.26396e-17
-5.84225e-17
1.45583e-16
-4.99269e-17
-2.38469e-16
-6.90951e-17
-6.44836e-17
1.60893e-16
-5.51957e-17
-2.63932e-16
-7.67375e-17
-7.16709e-17
1.79157e-16
-6.14298e-17
-2.94195e-16
-8.58768e-17
-8.02613e-17
2.00828e-16
-6.88905e-17
-3.30213e-16
-9.66915e-17
-9.04303e-17
2.26615e-16
-7.77075e-17
-3.72954e-16
-1.09527e-16
-1.02484e-16
2.5725e-16
-8.81592e-17
-4.23683e-16
-1.24764e-16
-1.16799e-16
2.93606e-16
-1.00572e-16
-4.83891e-16
-1.4289e-16
-1.33827e-16
3.36706e-16
-1.15345e-16
-5.55372e-16
-1.64366e-16
-1.54016e-16
3.87877e-16
-1.3285e-16
-6.40156e-16
-1.89887e-16
-1.77988e-16
4.48598e-16
-1.53642e-16
-7.40805e-16
-2.20148e-16
-2.06427e-16
5.20732e-16
-1.78295e-16
-8.60264e-16
-2.56146e-16
-2.40256e-16
6.06385e-16
-2.07634e-16
-1.00221e-15
-2.98902e-16
-2.80439e-16
7.08264e-16
-2.42465e-16
-1.17091e-15
-3.49776e-16
-3.28241e-16
8.29525e-16
-2.83899e-16
-1.37161e-15
-4.10395e-16
-3.85206e-16
9.73993e-16
-3.33274e-16
-1.61069e-15
-4.8277e-16
-4.53219e-16
1.14632e-15
-3.92216e-16
-1.89587e-15
-5.69246e-16
-5.34495e-16
1.3523e-15
-4.62622e-16
-2.23647e-15
-6.72861e-16
-6.31855e-16
1.59894e-15
-5.46922e-16
-2.64407e-15
-7.97246e-16
-7.48723e-16
1.89502e-15
-6.48031e-16
-3.13277e-15
-9.47112e-16
-8.89497e-16
2.25135e-15
-7.69706e-16
-3.72022e-15
-1.12822e-15
-1.05954e-15
2.68168e-15
-9.16447e-16
-4.42818e-15
-1.34808e-15
-1.26585e-15
3.20329e-15
-1.09413e-15
-5.28414e-15
-1.61637e-15
-1.51736e-15
3.83839e-15
-1.31011e-15
-6.32267e-15
-1.94578e-15
-1.82574e-15
4.61562e-15
-1.57386e-15
-7.58764e-15
-2.3533e-15
-2.20641e-15
5.57231e-15
-1.89755e-15
-9.13452e-15
-2.86173e-15
-2.67975e-15
6.75724e-15
-2.29663e-15
-1.10325e-14
-3.50245e-15
-3.27291e-15
8.23261e-15
-2.79008e-15
-1.33618e-14
-4.59767e-15
-4.31695e-15
-4.01996e-15
1.00716e-14
-3.39822e-15
-1.61989e-14
-5.73539e-15
-5.35559e-15
-4.95562e-15
1.23304e-14
-4.12998e-15
-1.95396e-14
-7.18959e-15
-6.64231e-15
-6.07593e-15
1.49383e-14
-4.94254e-15
-2.30996e-14
-8.88421e-15
-8.02921e-15
-7.18628e-15
1.72968e-14
-5.60573e-15
-2.56812e-14
-9.92417e-15
-8.63438e-15
-7.46149e-15
1.73825e-14
-5.46281e-15
-2.43101e-14
-6.98645e-15
-5.64701e-15
-4.57226e-15
1.0041e-14
-2.98577e-15
-1.26151e-14
)
;
    }
    axis
    {
        type            empty;
        value           nonuniform 0();
    }
    procBoundary26to20
    {
        type            processor;
        value           nonuniform List<scalar> 
67
(
0.000124554
0.00015602
0.000197014
0.000247288
0.000284871
0.000216856
1.09287e-06
1.0768e-06
1.06121e-06
1.0461e-06
1.0315e-06
1.01745e-06
1.00397e-06
9.91108e-07
9.78922e-07
9.67473e-07
9.56836e-07
9.47103e-07
9.38383e-07
9.30804e-07
9.24519e-07
9.19711e-07
9.16595e-07
9.15427e-07
9.16506e-07
9.20191e-07
9.26901e-07
9.37135e-07
9.51479e-07
9.70629e-07
9.95401e-07
1.02676e-06
1.06586e-06
1.11404e-06
1.17289e-06
1.24429e-06
1.33048e-06
1.43408e-06
1.55819e-06
1.70651e-06
1.88339e-06
2.09399e-06
2.34444e-06
2.64201e-06
2.99533e-06
3.41469e-06
3.91233e-06
4.50286e-06
5.20377e-06
6.036e-06
7.02471e-06
8.20025e-06
9.59929e-06
1.12664e-05
1.32558e-05
1.56343e-05
1.84839e-05
2.1907e-05
2.60318e-05
3.10206e-05
3.70815e-05
4.44847e-05
5.35866e-05
6.48663e-05
7.89765e-05
-0.000112367
9.68283e-05
)
;
    }
    procBoundary26to25
    {
        type            processor;
        value           nonuniform List<scalar> 5(-0.000132898 -0.000130206 -0.000127168 -0.000123778 -0.000120026);
    }
    procBoundary26to31
    {
        type            processor;
        value           uniform -0.000115907;
    }
    procBoundary26to32
    {
        type            processor;
        value           nonuniform List<scalar> 
67
(
-6.8062e-07
-6.72875e-07
-6.65733e-07
-6.59263e-07
-6.53548e-07
-6.48688e-07
-6.448e-07
-6.42022e-07
-6.40518e-07
-6.40485e-07
-6.42151e-07
-6.4579e-07
-6.51721e-07
-6.60326e-07
-6.72051e-07
-6.87427e-07
-7.07078e-07
-7.31742e-07
-7.62291e-07
-7.99754e-07
-8.45346e-07
-9.00505e-07
-9.66927e-07
-1.04662e-06
-1.14197e-06
-1.25577e-06
-1.39136e-06
-1.55268e-06
-1.74442e-06
-1.97214e-06
-2.24243e-06
-2.56315e-06
-2.94368e-06
-3.39517e-06
-3.93098e-06
-4.56712e-06
-5.32277e-06
-6.22104e-06
-7.28979e-06
-8.56277e-06
-1.00809e-05
-1.18942e-05
-1.40638e-05
-1.66649e-05
-1.97904e-05
-2.35561e-05
-2.81064e-05
-3.36231e-05
-4.03354e-05
-4.85309e-05
-5.85647e-05
-7.08368e-05
-8.5705e-05
-0.000103043
-0.000121231
-0.000133791
-0.000125868
-6.4593e-05
-6.89405e-07
-6.79319e-07
-6.69543e-07
-6.6009e-07
-6.50977e-07
-6.42225e-07
-6.3386e-07
0.000115378
-6.25912e-07
)
;
    }
}


// ************************************************************************* //
