/*--------------------------------*- C++ -*----------------------------------*\
  =========                 |
  \\      /  F ield         | OpenFOAM: The Open Source CFD Toolbox
   \\    /   O peration     | Website:  https://openfoam.org
    \\  /    A nd           | Version:  7
     \\/     M anipulation  |
\*---------------------------------------------------------------------------*/
FoamFile
{
    version     2.0;
    format      ascii;
    class       surfaceScalarField;
    location    "150";
    object      phi;
}
// * * * * * * * * * * * * * * * * * * * * * * * * * * * * * * * * * * * * * //

dimensions      [0 3 -1 0 0 0 0];

internalField   nonuniform List<scalar> 
24510
(
-4.0726e-06
5.24754e-05
-4.84028e-05
-1.55099e-05
0.000163038
-0.000151601
-3.44372e-05
0.000284749
-0.000265822
-6.10807e-05
0.000413795
-0.000387152
-9.55557e-05
0.00054632
-0.000511845
-0.000137673
0.000679973
-0.000637855
-0.0001868
0.000814867
-0.000765739
-0.00024182
0.000953856
-0.000898836
-0.000301172
0.00110185
-0.0010425
-0.000362913
0.00126433
-0.00120258
-0.000424699
0.00144541
-0.00138363
-0.000483611
0.00164617
-0.00158726
-0.00053581
0.001863
-0.0018108
-0.000576076
0.002086
-0.00204573
-0.000597332
0.00229691
-0.00227565
-0.000590393
0.00246675
-0.00247369
-0.000544119
0.00255325
-0.00259952
-0.000444523
0.00249907
-0.00259866
-0.000283347
0.00224676
-0.00240794
0.00169812
-0.00194036
-4.11088e-05
-2.68889e-06
5.51643e-05
-1.05341e-05
0.000170883
-2.39418e-05
0.000298157
-4.33828e-05
0.000433236
-6.91727e-05
0.00057211
-0.000101234
0.000712034
-0.000138906
0.000852538
-0.000180852
0.000995802
-0.00022508
0.00114608
-0.000269011
0.00130826
-0.000309503
0.0014859
-0.000342729
0.0016794
-0.000363902
0.00188417
-0.000366928
0.00208902
-0.000344069
0.00227405
-0.000285966
0.00240865
-0.000182713
0.00245
-2.38845e-05
0.00234024
0.000201222
0.00202166
0.00139364
0.000505705
-1.31158e-06
5.64759e-05
-5.52211e-06
0.000175094
-1.3248e-05
0.000305882
-2.51391e-05
0.000445127
-4.16618e-05
0.000588633
-6.28246e-05
0.000733197
-8.79355e-05
0.000877649
-0.000115454
0.00102332
-0.000142973
0.0011736
-0.000167281
0.00133256
-0.000184424
0.00150305
-0.000189661
0.00168464
-0.000177273
0.00187179
-0.000140381
0.00205213
-7.08364e-05
0.0022045
4.06506e-05
0.00229716
0.00020335
0.0022873
0.000428014
0.00211557
0.00071076
0.00173891
0.00102961
0.00107479
-1.11041e-08
5.6487e-05
-7.06483e-07
0.000175789
-2.82949e-06
0.000308005
-7.12453e-06
0.000449422
-1.41383e-05
0.000595646
-2.39268e-05
0.000742986
-3.57643e-05
0.000889487
-4.79361e-05
0.00103549
-5.76671e-05
0.00118333
-6.11699e-05
0.00133607
-5.37312e-05
0.00149561
-2.97431e-05
0.00166065
1.7316e-05
0.00182473
9.50379e-05
0.00197441
0.000211897
0.00208764
0.000377075
0.00213198
0.0005975
0.00206687
0.000884029
0.00182905
0.00122543
0.00139751
0.000607066
0.00164797
1.1619e-06
5.53251e-05
3.69484e-06
0.000173256
6.84704e-06
0.000304853
9.88297e-06
0.000446386
1.22551e-05
0.000593274
1.39108e-05
0.00074133
1.56188e-05
0.000887779
1.92324e-05
0.00103188
2.7819e-05
0.00117475
4.56423e-05
0.00131824
7.80562e-05
0.00146319
0.000131394
0.00160731
0.000212907
0.00174321
0.000330648
0.00185667
0.000493122
0.00192517
0.000709273
0.00191583
0.000984047
0.0017921
0.00132847
0.00148462
0.00172473
0.00100125
0.00012606
0.00220574
2.14453e-06
5.31805e-05
7.48731e-06
0.000167914
1.53656e-05
0.000296975
2.51572e-05
0.000436595
3.64113e-05
0.00058202
4.91453e-05
0.000728596
6.41912e-05
0.000872733
8.35072e-05
0.00101256
0.000110365
0.00114789
0.000149373
0.00127924
0.000206365
0.0014062
0.000288227
0.00152545
0.000402696
0.00162874
0.00055812
0.00170124
0.000762805
0.00172048
0.0010253
0.00165334
0.00134906
0.00146834
0.00174485
0.00108883
0.00218983
0.000556267
-0.000414823
0.00273072
2.90129e-06
5.02792e-05
1.05125e-05
0.000160302
2.23643e-05
0.000285123
3.80516e-05
0.000420908
5.73173e-05
0.000562754
8.03236e-05
0.00070559
0.000108
0.000845056
0.000142389
0.000978175
0.000186878
0.0011034
0.000246277
0.00121984
0.000326708
0.00132577
0.000435384
0.00141677
0.000580305
0.00148382
0.000769894
0.00151165
0.00101213
0.00147825
0.00131484
0.00135063
0.00168133
0.00110186
0.00212133
0.000648828
0.00261183
6.57661e-05
-0.00101846
0.00321546
3.40354e-06
4.68757e-05
1.26536e-05
0.000151052
2.75654e-05
0.000270211
4.8044e-05
0.000400429
7.4118e-05
0.00053668
0.000106172
0.000673535
0.000145281
0.000805947
0.000193562
0.000929894
0.000254453
0.00104251
0.000332823
0.00114147
0.000434892
0.0012237
0.000567977
0.00128369
0.000740115
0.00131168
0.000959617
0.00129215
0.00123421
0.00120365
0.00157073
0.00101411
0.00197432
0.000698263
0.00245282
0.000170329
0.0029917
-0.000473113
-0.00169157
0.00366481
3.63612e-06
4.32396e-05
1.38412e-05
0.000140847
3.07902e-05
0.000253262
5.47733e-05
0.000376446
8.61834e-05
0.00050527
0.000125702
0.000634017
0.000174598
0.000757051
0.00023508
0.000869412
0.000310591
0.000966997
0.000405953
0.0010461
0.000527323
0.00110233
0.00068194
0.00112907
0.00087772
0.0011159
0.0011228
0.00104707
0.00142502
0.000901435
0.00179046
0.000648672
0.00222841
0.000260313
0.00274562
-0.000346884
0.00334327
-0.00107076
-0.00244146
0.00409316
3.59714e-06
3.96424e-05
1.40575e-05
0.000130387
3.19724e-05
0.000235348
5.8072e-05
0.000350346
9.31716e-05
0.000470171
0.00013831
0.000588879
0.000195006
0.000700354
0.000265588
0.00079883
0.000353494
0.000879091
0.000463452
0.000936147
0.000601467
0.000964318
0.000774621
0.000955916
0.000990725
0.000899799
0.00125793
0.000779869
0.00158493
0.000574438
0.00197826
0.000255335
0.00245377
-0.000215188
0.00301619
-0.000909313
0.00369135
-0.00174592
-0.00326716
0.00451705
3.29852e-06
3.63439e-05
1.33395e-05
0.000120346
3.1171e-05
0.000217516
5.79955e-05
0.000323522
9.50877e-05
0.000433078
0.000143889
0.000540078
0.000206219
0.000638024
0.000284577
0.000720472
0.000382436
0.000781232
0.000504456
0.000814127
0.000656534
0.00081224
0.00084571
0.00076674
0.00107998
0.000665525
0.00136814
0.000491715
0.00172075
0.000221825
0.00214717
-0.000171082
0.00266952
-0.000737543
0.00329169
-0.00153148
0.00405883
-0.00251307
-0.00414988
0.00494156
2.76707e-06
3.35769e-05
1.1784e-05
0.000111329
2.85813e-05
0.000200719
5.48479e-05
0.000297255
9.23361e-05
0.00039559
0.000142922
0.000489492
0.000208781
0.000572164
0.000292661
0.000636592
0.000398177
0.000675716
0.000530066
0.000682237
0.00069435
0.000647956
0.000898407
0.000562683
0.00115109
0.000412847
0.00146282
0.000179976
0.00184725
-0.000162599
0.00231827
-0.000642106
0.00290135
-0.00132062
0.00359797
-0.0022281
0.00445225
-0.00336735
-0.00505051
0.00535288
2.04614e-06
3.15307e-05
9.55134e-06
0.000103824
2.45435e-05
0.000185727
4.91998e-05
0.000272599
8.57586e-05
0.000359031
0.000136562
0.000438689
0.000204211
0.000504515
0.000291824
0.000548979
0.000403357
0.000564183
0.000543932
0.000541662
0.000720148
0.00047174
0.000940401
0.00034243
0.0012153
0.000137949
0.00155807
-0.000162794
0.00198562
-0.000590147
0.00251624
-0.00117273
0.00317119
-0.00197557
0.00394435
-0.00300126
0.00485183
-0.00427483
-0.00591765
0.00571896
1.19692e-06
3.03338e-05
6.86711e-06
9.81536e-05
1.95436e-05
0.00017305
4.18905e-05
0.000250252
7.66436e-05
0.000324278
0.000126657
0.000388676
0.000195061
0.000436111
0.00028554
0.0004585
0.000402703
0.000447021
0.000552523
0.000391841
0.000742836
0.000281427
0.000983868
0.000101398
0.0012888
-0.000166985
0.00167394
-0.000547932
0.00215794
-0.00107414
0.00275929
-0.00177408
0.0034847
-0.00270097
0.00431317
-0.00382974
0.00521655
-0.0051782
-0.00670406
0.00600296
2.97933e-07
3.00359e-05
4.0171e-06
9.44344e-05
1.41994e-05
0.000162868
3.40007e-05
0.000230451
6.66835e-05
0.000291595
0.000115692
0.000339667
0.000184847
0.000366956
0.000278669
0.000364679
0.000402837
0.000322852
0.000564755
0.000229923
0.000774171
7.20108e-05
0.00104374
-0.000168174
0.00138921
-0.000512454
0.00182859
-0.000987306
0.00237812
-0.00162367
0.00304875
-0.00244472
0.00382388
-0.0034761
0.00466414
-0.00467
0.0055025
-0.00601657
-0.00738129
0.00617973
-5.58699e-07
3.05946e-05
1.33091e-06
9.25448e-05
9.22288e-06
0.000154976
2.67825e-05
0.000212891
5.78581e-05
0.00026052
0.000106607
0.000290918
0.000177752
0.000295811
0.000276987
0.000265444
0.000411518
0.000188322
0.000590694
5.07477e-05
0.000826574
-0.000163869
0.00113409
-0.000475687
0.00153012
-0.00090849
0.00203082
-0.001488
0.00264403
-0.00223689
0.00336492
-0.00316561
0.00415171
-0.00426289
0.00495195
-0.00547024
0.00568159
-0.00674621
-0.00794433
0.00624464
-1.27547e-06
3.187e-05
-8.42121e-07
9.21114e-05
5.35529e-06
0.000148778
2.15403e-05
0.000196706
5.22348e-05
0.000229825
0.000102468
0.000240684
0.000178115
0.000220164
0.000286371
0.000157188
0.000436328
3.83643e-05
0.000639507
-0.000152431
0.000910016
-0.000434379
0.00126377
-0.000829437
0.00171579
-0.00136051
0.00227524
-0.00204746
0.00293595
-0.0028976
0.00367305
-0.0039027
0.00442713
-0.00501696
0.00514502
-0.00618813
0.00574893
-0.00735013
-0.00840673
0.00621133
-1.76303e-06
3.36331e-05
-2.19527e-06
9.25437e-05
3.27792e-06
0.000143305
1.94751e-05
0.000180509
5.17076e-05
0.000197593
0.000106052
0.00018634
0.00018976
0.000136457
0.000311759
3.51884e-05
0.000483128
-0.000133004
0.000717251
-0.000386555
0.00102916
-0.000746286
0.00143326
-0.00123354
0.00193871
-0.00186596
0.00254276
-0.00265151
0.00322276
-0.0035776
0.00393644
-0.00461638
0.00462087
-0.00570139
0.00523379
-0.00680105
0.00571825
-0.00783458
-0.00879077
0.00610229
-1.95085e-06
3.55839e-05
-2.47207e-06
9.30649e-05
3.52461e-06
0.000137309
2.15219e-05
0.000162512
5.77299e-05
0.000161385
0.000119419
0.000124651
0.000215356
4.05191e-05
0.000356226
-0.000105681
0.000554791
-0.000331569
0.000825365
-0.000657129
0.00118191
-0.00110283
0.00163412
-0.00168575
0.00218138
-0.00241321
0.00280645
-0.00327659
0.00347256
-0.00424371
0.00412898
-0.0052728
0.004723
-0.00629541
0.00522736
-0.00730542
0.0056111
-0.00821832
-0.00912011
0.00594045
-1.80005e-06
3.7384e-05
-1.5295e-06
9.27943e-05
6.40918e-06
0.00012937
2.82271e-05
0.000140694
7.11158e-05
0.000118496
0.000143618
5.21486e-05
0.000256005
-7.18678e-05
0.00042046
-0.000270136
0.000650691
-0.0005618
0.000960398
-0.000966835
0.00135995
-0.00150238
0.00185112
-0.00217692
0.00242119
-0.00298328
0.0030396
-0.003895
0.00366206
-0.00486617
0.00424045
-0.00585119
0.00474027
-0.00679522
0.0051461
-0.00771125
0.00544587
-0.0085181
-0.0094158
0.00574156
-1.30829e-06
3.86923e-05
6.57186e-07
9.08289e-05
1.19982e-05
0.000118029
3.96993e-05
0.000112993
9.19715e-05
6.6224e-05
0.000178605
-3.44854e-05
0.000311179
-0.000204442
0.000502822
-0.000461778
0.00076703
-0.000826009
0.00111494
-0.00131474
0.00155073
-0.00193817
0.00206604
-0.00269223
0.00263625
-0.00355349
0.0032223
-0.00448104
0.00378064
-0.00542451
0.00427424
-0.00634479
0.00468743
-0.00720841
0.00501565
-0.00803947
0.00527272
-0.00877517
-0.00961335
0.00547027
-5.11221e-07
3.92035e-05
3.98695e-06
8.63307e-05
2.01277e-05
0.000101888
5.56509e-05
7.74694e-05
0.000119772
2.10269e-06
0.000223392
-0.000138105
0.000379005
-0.000360055
0.000599852
-0.000682625
0.000897757
-0.00112391
0.00127921
-0.00169619
0.00174011
-0.00239908
0.00226151
-0.00321363
0.0028099
-0.00410188
0.00334443
-0.00501557
0.00382924
-0.00590931
0.00424192
-0.00675747
0.00458091
-0.0075474
0.00484923
-0.00830779
0.00508033
-0.00900627
-0.0097936
0.00526058
5.5739e-07
3.86461e-05
8.32687e-06
7.85612e-05
3.04796e-05
7.97354e-05
7.5514e-05
3.2435e-05
0.00015355
-7.59333e-05
0.000276342
-0.000260897
0.000456723
-0.000540436
0.000706984
-0.000932886
0.00103564
-0.00145257
0.00144266
-0.00210321
0.00191471
-0.00287113
0.00242385
-0.00372277
0.00293271
-0.00461074
0.00340495
-0.00548782
0.00381617
-0.00632053
0.00415768
-0.00709898
0.00443689
-0.00782662
0.00466502
-0.00853592
0.0048641
-0.00920535
-0.00996088
0.00503138
1.81791e-06
3.68282e-05
1.34729e-05
6.69062e-05
4.26569e-05
5.05514e-05
9.85829e-05
-2.3491e-05
0.000192123
-0.000169473
0.000335502
-0.000404276
0.000541153
-0.000746087
0.000819181
-0.00121091
0.00117318
-0.00180657
0.00159534
-0.00252537
0.0020636
-0.00333939
0.00254452
-0.00420369
0.00300225
-0.00506847
0.00340921
-0.00589478
0.00375295
-0.00666427
0.00403519
-0.00738121
0.00426879
-0.00806022
0.00446534
-0.00873247
0.00464601
-0.00938602
-0.0101227
0.00480788
3.22976e-06
3.35984e-05
1.92472e-05
5.08888e-05
5.62721e-05
1.35265e-05
0.00012415
-9.13692e-05
0.000234275
-0.000279598
0.000398851
-0.000568852
0.000629012
-0.000976248
0.000931364
-0.00151327
0.00130324
-0.00217845
0.00172876
-0.00295089
0.00217927
-0.0037899
0.00262017
-0.00464459
0.00302146
-0.00546977
0.00336594
-0.00623926
0.00365133
-0.00694966
0.00388614
-0.00761601
0.00408474
-0.00825882
0.00425869
-0.00890643
0.00442388
-0.00955121
-0.0102738
0.00457496
4.75367e-06
2.88448e-05
2.55086e-05
3.01339e-05
7.09986e-05
-3.19635e-05
0.000151582
-0.000171952
0.000278866
-0.000406882
0.000464418
-0.000754403
0.000717064
-0.00122889
0.00103865
-0.00183486
0.0014195
-0.00255929
0.00183659
-0.00336798
0.00225788
-0.00421119
0.00265176
-0.00503846
0.00299654
-0.00581455
0.00328482
-0.00652755
0.00352177
-0.0071866
0.00371926
-0.00781351
0.00389125
-0.0084308
0.0040472
-0.00906238
0.00419942
-0.00970343
-0.0104174
0.00434295
6.37028e-06
2.24745e-05
3.2163e-05
4.34113e-06
8.65838e-05
-8.63842e-05
0.000180331
-0.0002657
0.000324832
-0.000551382
0.000530284
-0.000959856
0.000802153
-0.00150076
0.00113655
-0.00216925
0.00151682
-0.00293956
0.00191491
-0.00376608
0.00229896
-0.00459523
0.00264328
-0.00538278
0.00293508
-0.00610636
0.00317497
-0.00676744
0.00337266
-0.00738429
0.00354097
-0.00798182
0.00369203
-0.00858186
0.0038333
-0.00920365
0.00397386
-0.00984399
-0.0105517
0.00410816
8.07482e-06
1.43997e-05
3.91531e-05
-2.67372e-05
0.00010283
-0.000150061
0.000209906
-0.000372777
0.000371136
-0.000712612
0.000594538
-0.00118326
0.000881236
-0.00178746
0.00122112
-0.00250914
0.00159157
-0.00331001
0.00196226
-0.00413677
0.0023046
-0.00493758
0.00260035
-0.00567853
0.00284479
-0.0063508
0.00304419
-0.00696683
0.0032104
-0.0075505
0.00335557
-0.00812699
0.00348957
-0.00871587
0.0036179
-0.00933197
0.00374714
-0.00997323
-0.0106769
0.00387234
9.86951e-06
4.53015e-06
4.64382e-05
-6.33058e-05
0.000119552
-0.000223175
0.000239807
-0.000493031
0.000416702
-0.000889507
0.000655243
-0.0014218
0.000951471
-0.00208369
0.00128923
-0.00284689
0.00164176
-0.00366254
0.00197929
-0.0044743
0.00227865
-0.00523694
0.00252918
-0.00592906
0.00273261
-0.00655423
0.00289868
-0.0071329
0.00303958
-0.00769141
0.00316591
-0.00825332
0.00328529
-0.00883525
0.00340163
-0.00944831
0.0035197
-0.0100913
-0.0107921
0.00363499
1.17559e-05
-7.22575e-06
5.39701e-05
-0.00010552
0.000136543
-0.000305748
0.000269475
-0.000625963
0.000460374
-0.00108041
0.00071047
-0.0016719
0.00101038
-0.0023836
0.00133877
-0.00317529
0.00166699
-0.00399077
0.00196825
-0.00477555
0.00222578
-0.00549447
0.00243571
-0.00613899
0.0026044
-0.00672292
0.00274317
-0.00727166
0.0028634
-0.00781164
0.0029738
-0.00836372
0.00308003
-0.00894148
0.00318478
-0.00955306
0.0032915
-0.010198
-0.010897
0.00339638
1.37287e-05
-2.09544e-05
6.16767e-05
-0.000153468
0.000153539
-0.000397611
0.000298268
-0.000770691
0.00050093
-0.00128307
0.000758401
-0.00192937
0.00105601
-0.00268121
0.00136873
-0.003488
0.00166825
-0.00429029
0.00193239
-0.0050397
0.00215087
-0.00571294
0.00232528
-0.0063134
0.00246485
-0.00686249
0.00258111
-0.00738792
0.002684
-0.00791453
0.00278036
-0.00846008
0.00287425
-0.00903537
0.00296751
-0.00964632
0.00306266
-0.0102932
-0.0109909
0.00315652
1.5772e-05
-3.67265e-05
6.94519e-05
-0.000207148
0.000170214
-0.000498373
0.000325467
-0.000925944
0.000537141
-0.00149474
0.00079746
-0.00218969
0.00108713
-0.00297087
0.00137915
-0.00378002
0.00164752
-0.00455866
0.00187545
-0.00526763
0.00205852
-0.00589601
0.00220235
-0.00645723
0.00231755
-0.00697769
0.00241494
-0.00748531
0.0025028
-0.00800239
0.00258629
-0.00854358
0.00266825
-0.00911733
0.00274995
-0.00972802
0.00283324
-0.0103765
-0.0110732
0.00291554
1.78591e-05
-5.45855e-05
7.71565e-05
-0.000266445
0.000186189
-0.000607406
0.000350318
-0.00109007
0.000567863
-0.00171229
0.000826444
-0.00244827
0.0011032
-0.00324763
0.00137097
-0.00404779
0.00160739
-0.00479508
0.00180121
-0.00546144
0.00195283
-0.00604764
0.00207052
-0.00657492
0.00216517
-0.00707234
0.00224637
-0.0075665
0.00232072
-0.00807674
0.00239203
-0.00861488
0.00246223
-0.00918753
0.00253221
-0.00979799
0.00260334
-0.0104476
-0.0111434
0.00267359
1.99531e-05
-7.45387e-05
8.46245e-05
-0.000331117
0.00020105
-0.000723832
0.000372077
-0.0012611
0.000592126
-0.00193234
0.000844609
-0.00270075
0.00110442
-0.00350745
0.00134579
-0.00428916
0.00155076
-0.00500005
0.0017132
-0.00562388
0.00183725
-0.0061717
0.00193261
-0.00667028
0.00200966
-0.00714939
0.00207655
-0.00763339
0.00213839
-0.00813858
0.00219788
-0.00867438
0.00225634
-0.00924599
0.0023144
-0.00985606
0.00237309
-0.0105063
-0.0112012
0.00243082
2.20106e-05
-9.65493e-05
9.16737e-05
-0.00040078
0.000214382
-0.00084654
0.000390074
-0.00143679
0.000609206
-0.00215147
0.000851689
-0.00294323
0.00109154
-0.0037473
0.00130558
-0.00450319
0.0014805
-0.00517497
0.00161459
-0.00575798
0.00171461
-0.00627172
0.00179074
-0.00674641
0.00185242
-0.00721106
0.00190629
-0.00768727
0.00195621
-0.0081885
0.00200406
-0.00872222
0.00205071
-0.00929264
0.00209665
-0.009902
0.00214264
-0.0105523
-0.011246
0.00218745
2.39835e-05
-0.000120533
9.81177e-05
-0.000474914
0.000225791
-0.000974213
0.000403754
-0.00161475
0.000618674
-0.00236639
0.000847868
-0.00317243
0.00106576
-0.00396519
0.00125251
-0.00468995
0.00139933
-0.00532179
0.00150808
-0.00586673
0.00158716
-0.00635079
0.00164653
-0.00680579
0.00169443
-0.00725896
0.00173614
-0.00772899
0.00177449
-0.00822684
0.00181075
-0.00875848
0.0018455
-0.00932739
0.00187913
-0.00993563
0.00191217
-0.0105853
-0.0112775
0.00194369
2.58225e-05
-0.000146355
0.000103777
-0.000552868
0.000234934
-0.00110537
0.000412717
-0.00179254
0.000620395
-0.00257407
0.000833704
-0.00338574
0.00102852
-0.00416001
0.00118877
-0.0048502
0.00130971
-0.00544273
0.00139593
-0.00595295
0.00145663
-0.00641149
0.00150114
-0.0068503
0.0015364
-0.00729422
0.00156651
-0.00775909
0.00159346
-0.00825379
0.00161812
-0.00878314
0.00164086
-0.00935013
0.00166199
-0.00995676
0.00168186
-0.0106052
-0.0112954
0.00169979
2.7479e-05
-0.000173834
0.000108488
-0.000633878
0.000241536
-0.00123842
0.000416731
-0.00196773
0.000614514
-0.00277185
0.000810037
-0.00358126
0.000981425
-0.00433139
0.00111642
-0.0049852
0.00121376
-0.00554007
0.00127995
-0.00601914
0.00132438
-0.00645592
0.00135545
-0.00688136
0.00137885
-0.00731762
0.00139768
-0.00777792
0.00141333
-0.00826944
0.00142634
-0.00879615
0.00143696
-0.00936075
0.00144542
-0.00996523
0.00145195
-0.0106117
-0.0112995
0.00145601
2.89082e-05
-0.000202742
0.000112114
-0.000717083
0.000245404
-0.00137171
0.000415737
-0.00213806
0.000601408
-0.00295752
0.00077789
-0.00375774
0.00092607
-0.00447957
0.00103734
-0.00509647
0.00111327
-0.005616
0.0011616
-0.00606746
0.00119142
-0.00648574
0.00121008
-0.00690003
0.00122215
-0.00732969
0.00122991
-0.00778568
0.00123427
-0.0082738
0.00123558
-0.00879746
0.00123397
-0.00935915
0.00122963
-0.00996089
0.00122265
-0.0106048
-0.0112894
0.00121263
3.00699e-05
-0.000232812
0.000114546
-0.000801559
0.00024643
-0.00150359
0.000409832
-0.00230147
0.00058163
-0.00312932
0.000738382
-0.00391449
0.000863996
-0.00460519
0.000953182
-0.00518565
0.00100974
-0.00567256
0.001042
-0.00609973
0.00105851
-0.00650225
0.00106552
-0.00690704
0.00106661
-0.00733078
0.00106339
-0.00778246
0.00105647
-0.00826687
0.00104601
-0.008787
0.00103209
-0.00934522
0.00101483
-0.00994363
0.000994232
-0.0105842
-0.0112652
0.000969935
3.09311e-05
-0.000263743
0.000115711
-0.000886339
0.000244593
-0.00163248
0.000399247
-0.00245612
0.000555858
-0.00328593
0.000692653
-0.00405129
0.000796626
-0.00470916
0.000865388
-0.00525441
0.00090436
-0.00571153
0.000922063
-0.00611743
0.000926246
-0.00650643
0.000922129
-0.00690292
0.000912446
-0.00732109
0.000898317
-0.00776833
0.000880085
-0.00824864
0.000857809
-0.00876472
0.000831494
-0.00931891
0.000801222
-0.00991336
0.000766937
-0.0105499
-0.0112265
0.000728246
3.1466e-05
-0.000295209
0.00011557
-0.000970443
0.000239951
-0.00175686
0.000384319
-0.00260049
0.000524839
-0.00342645
0.000641817
-0.00416827
0.000725238
-0.00479258
0.000775161
-0.00530434
0.000798117
-0.00573449
0.000802456
-0.00612177
0.000795055
-0.00649903
0.000780181
-0.00688805
0.000759871
-0.00730078
0.000734858
-0.00774332
0.000705299
-0.00821908
0.000671167
-0.00873059
0.000632396
-0.00928014
0.000589026
-0.00986999
0.000540979
-0.0105018
-0.0111734
0.000487885
3.16574e-05
-0.000326867
0.00011412
-0.00105291
0.000232629
-0.00187537
0.000365461
-0.00273332
0.000489344
-0.00355033
0.000586915
-0.00426584
0.000650952
-0.00485662
0.000683506
-0.00533689
0.00069178
-0.00574276
0.000683712
-0.0061137
0.000665281
-0.0064806
0.000639904
-0.00686267
0.000609058
-0.00726994
0.000573178
-0.00770744
0.000532281
-0.00817818
0.000486268
-0.00868458
0.00043502
-0.00922889
0.00037851
-0.00981348
0.000316453
-0.0104398
-0.0111061
0.000249138
3.14964e-05
-0.000358363
0.000111387
-0.0011328
0.000222807
-0.00198679
0.000343132
-0.00285364
0.000450136
-0.00365734
0.000528901
-0.0043446
0.000574733
-0.00490245
0.000591246
-0.00535341
0.00058596
-0.00573747
0.00056624
-0.00609398
0.000537189
-0.00645155
0.000501491
-0.00682697
0.00046017
-0.00722862
0.000413442
-0.00766071
0.000361209
-0.00812595
0.000303292
-0.00862666
0.000239574
-0.00916517
0.000169941
-0.00974385
9.40747e-05
-0.0103639
-0.0110216
9.65572e-06
3.09821e-05
-0.000389345
0.000107427
-0.00120924
0.000210708
-0.00209007
0.000317813
-0.00296075
0.00040794
-0.00374746
0.000468623
-0.00440529
0.000497397
-0.00493122
0.000499049
-0.00535506
0.000481136
-0.00571956
0.000450354
-0.0060632
0.000410991
-0.00641219
0.000365105
-0.00678109
0.000313362
-0.00717687
0.000255801
-0.00760315
0.000192261
-0.00806241
0.000122406
-0.00855681
4.60402e-05
-0.00908881
-3.67597e-05
-0.00966105
-0.000126279
-0.0102744
-0.0109246
-0.000223307
3.01213e-05
-0.000419467
0.000102317
-0.00128144
0.00019658
-0.00218433
0.000289986
-0.00305416
0.000363429
-0.00382091
0.000406827
-0.00444868
0.000419627
-0.00494402
0.000407453
-0.00534288
0.000377685
-0.00568979
0.000336305
-0.00602182
0.000286867
-0.00636275
0.000230892
-0.00672511
0.000168783
-0.00711476
0.000100373
-0.00753474
2.54125e-05
-0.00798745
-5.61391e-05
-0.00847526
-0.000144706
-0.00900024
-0.000240535
-0.00956522
-0.000344278
-0.0101706
-0.0108134
-0.000455514
2.89271e-05
-0.000448394
9.61513e-05
-0.00134866
0.000180686
-0.00226886
0.000260116
-0.00313359
0.000317217
-0.00387801
0.000344155
-0.00447562
0.000341987
-0.00494185
0.000316885
-0.00531778
0.000275899
-0.00564881
0.000224299
-0.00597022
0.000164966
-0.00630342
9.8962e-05
-0.00665911
2.64196e-05
-0.00704222
-5.26246e-05
-0.0074557
-0.000138604
-0.00790147
-0.000232017
-0.00838184
-0.000333018
-0.00889924
-0.000441979
-0.00945626
-0.000559391
-0.0100532
-0.0106876
-0.000685184
2.74182e-05
-0.000475812
8.90376e-05
-0.00141028
0.000163293
-0.00234312
0.000228644
-0.00319894
0.000269848
-0.00391921
0.000281155
-0.00448693
0.000264942
-0.00492564
0.000227686
-0.00528053
0.000176004
-0.00559712
0.000114514
-0.00590873
4.53436e-05
-0.00623425
-3.05686e-05
-0.00658319
-0.000113161
-0.00695963
-0.00020292
-0.00736594
-0.00030014
-0.00780425
-0.000405251
-0.00827673
-0.000518598
-0.00878589
-0.000640567
-0.00933429
-0.000771565
-0.00992223
-0.0105474
-0.000911733
2.56178e-05
-0.00050143
8.10903e-05
-0.00146575
0.000144665
-0.00240669
0.000195975
-0.00325025
0.000221802
-0.00394504
0.00021829
-0.00448342
0.000188872
-0.00489622
0.000140133
-0.00523179
7.81667e-05
-0.00553516
6.77041e-06
-0.00583733
-7.17362e-05
-0.00615574
-0.000157354
-0.00649758
-0.000250199
-0.00686679
-0.000350568
-0.00726557
-0.000458887
-0.00769593
-0.00057561
-0.00816001
-0.000701184
-0.00866032
-0.000836049
-0.00919942
-0.000980584
-0.00977769
-0.010393
-0.00113495
2.35527e-05
-0.000524982
7.24275e-05
-0.00151463
0.000125053
-0.00245932
0.000162479
-0.00328767
0.000173499
-0.00395606
0.000155946
-0.00446587
0.000114079
-0.00485436
5.44323e-05
-0.00517214
-1.74403e-05
-0.00546328
-9.79793e-05
-0.00575679
-0.000186166
-0.00606755
-0.000281563
-0.00640218
-0.000384494
-0.00676385
-0.000495369
-0.00715469
-0.000614664
-0.00757664
-0.00074289
-0.00803178
-0.000880565
-0.00852264
-0.0010282
-0.00905179
-0.00118616
-0.00961974
-0.0102247
-0.00135452
2.12527e-05
-0.000546235
6.31683e-05
-0.00155654
0.000104695
-0.00250085
0.000128489
-0.00331147
0.000125295
-0.00395286
9.44399e-05
-0.00443501
4.08095e-05
-0.00480072
-2.92257e-05
-0.00510211
-0.000110549
-0.00538196
-0.000200457
-0.00566689
-0.000297965
-0.00597005
-0.000402998
-0.00629715
-0.000515906
-0.00665095
-0.000637169
-0.00703343
-0.000767313
-0.00744649
-0.000906902
-0.00789219
-0.00105653
-0.00837302
-0.0012168
-0.00889152
-0.00138804
-0.0094485
-0.0100425
-0.0015702
1.87507e-05
-0.000564986
5.34306e-05
-0.00159122
8.38169e-05
-0.00253123
9.43054e-05
-0.00332196
7.74947e-05
-0.00393605
3.40605e-05
-0.00439158
-3.07275e-05
-0.00473594
-0.000110679
-0.00502215
-0.000201298
-0.00529134
-0.000300304
-0.00556788
-0.000407014
-0.00586334
-0.000521544
-0.00618262
-0.000644307
-0.00652818
-0.000775826
-0.00690191
-0.000916675
-0.00730564
-0.00106747
-0.0077414
-0.00122887
-0.00821161
-0.0014016
-0.00871879
-0.00158597
-0.00926413
-0.0098468
-0.00178169
1.60849e-05
-0.000581071
4.33294e-05
-0.00161847
6.26322e-05
-0.00255054
6.01835e-05
-0.00331951
3.04211e-05
-0.00390629
-2.50035e-05
-0.00433615
-0.000100393
-0.00466055
-0.00018989
-0.00493266
-0.000289521
-0.00519171
-0.000397436
-0.00545996
-0.000513214
-0.00574756
-0.000637101
-0.00605873
-0.000769576
-0.00639571
-0.000911203
-0.00676028
-0.0010626
-0.00715425
-0.00122441
-0.00757958
-0.0013974
-0.00803862
-0.0015824
-0.0085338
-0.00177971
-0.00906681
-0.00963776
-0.00198875
1.33067e-05
-0.000594377
3.29867e-05
-0.00163815
4.13264e-05
-0.00255887
2.63964e-05
-0.00330458
-1.57316e-05
-0.00386416
-8.25956e-05
-0.00426929
-0.000168078
-0.00457506
-0.000266751
-0.00483398
-0.000375141
-0.00508332
-0.000491784
-0.00534332
-0.000616476
-0.00562287
-0.000749569
-0.00592564
-0.000891598
-0.00625368
-0.00104317
-0.00660871
-0.00120493
-0.00699249
-0.00137758
-0.00740693
-0.00156194
-0.00785426
-0.00175898
-0.00833676
-0.00196903
-0.00885677
-0.0094157
-0.00219109
1.04408e-05
-0.000604818
2.25383e-05
-0.00165025
2.00234e-05
-0.00255636
-6.55728e-06
-0.003278
-6.10392e-05
-0.00380968
-0.000138609
-0.00419172
-0.000233686
-0.00447999
-0.00034119
-0.00472648
-0.000458097
-0.00496641
-0.00058328
-0.00521814
-0.000716718
-0.00548943
-0.000858849
-0.00578351
-0.00101026
-0.00610227
-0.00117159
-0.00644738
-0.00134352
-0.00682055
-0.0015268
-0.00722366
-0.00172231
-0.00765875
-0.00193117
-0.00812789
-0.00215373
-0.00863421
-0.00918104
-0.00238839
7.50427e-06
-0.000612322
1.20963e-05
-0.00165484
-2.67507e-08
-0.00254424
-3.97294e-05
-0.00323829
-0.00010519
-0.00374422
-0.000192914
-0.00410399
-0.000297138
-0.00437576
-0.000413144
-0.00461047
-0.000538331
-0.00484123
-0.000671859
-0.00508461
-0.000813861
-0.00534743
-0.000964845
-0.00563252
-0.00112544
-0.00594167
-0.00129634
-0.00627649
-0.00147824
-0.00663865
-0.00167191
-0.00702999
-0.00187832
-0.00745233
-0.00209876
-0.00790745
-0.00233358
-0.00839939
-0.00893426
-0.00258036
4.46368e-06
-0.000616786
1.53763e-06
-0.00165191
-2.21709e-05
-0.00252053
-7.19797e-05
-0.00318848
-0.000148031
-0.00366817
-0.000245404
-0.00400662
-0.000358359
-0.00426281
-0.00048256
-0.00448627
-0.000615789
-0.004708
-0.000757458
-0.00494294
-0.000907826
-0.00519706
-0.00106746
-0.00547288
-0.00123705
-0.00577209
-0.00141729
-0.00609625
-0.00160894
-0.00644701
-0.00181277
-0.00682615
-0.00202983
-0.00723528
-0.00226149
-0.00767579
-0.00250826
-0.00815262
-0.00867531
-0.00276721
1.00034e-06
-0.000617786
-9.36577e-06
-0.00164155
-4.27601e-05
-0.00248713
-0.000103292
-0.00312795
-0.000189445
-0.00358202
-0.000295988
-0.00390008
-0.000417291
-0.00414151
-0.000549392
-0.00435417
-0.000690423
-0.00456697
-0.000840018
-0.00479335
-0.000998539
-0.00503854
-0.00116662
-0.00530481
-0.00134496
-0.00559374
-0.00153433
-0.00590688
-0.00173549
-0.00624585
-0.00194927
-0.00661237
-0.00217674
-0.00700781
-0.00241927
-0.00743326
-0.00267762
-0.00789428
-0.00840376
-0.00294917
-2.05418e-06
-0.000615732
-1.99113e-05
-0.00162369
-6.28504e-05
-0.00244419
-0.000133586
-0.00305722
-0.000229361
-0.00348624
-0.000344612
-0.00378483
-0.00047389
-0.00401223
-0.000613598
-0.00421446
-0.000762188
-0.00441838
-0.000919478
-0.00463606
-0.00108592
-0.00487209
-0.0012622
-0.00512853
-0.00144907
-0.00540688
-0.00164731
-0.00570864
-0.00185774
-0.00603541
-0.00208129
-0.00638883
-0.00231907
-0.00677003
-0.00257235
-0.00717997
-0.00284126
-0.00762537
-0.00812152
-0.00312349
-5.04256e-06
-0.00061069
-3.01757e-05
-0.00159856
-8.23861e-05
-0.00239198
-0.000162817
-0.00297679
-0.000267712
-0.00338135
-0.000391226
-0.00366131
-0.000528119
-0.00387534
-0.000675144
-0.00406744
-0.000831038
-0.00426248
-0.000995782
-0.00447131
-0.00116991
-0.00469796
-0.00135414
-0.00494429
-0.00154927
-0.00521175
-0.00175611
-0.0055018
-0.00197555
-0.00581597
-0.00220862
-0.00615576
-0.00245653
-0.00652213
-0.00272046
-0.00691604
-0.00300248
-0.00734335
-0.00783954
-0.00328446
-8.10122e-06
-0.000602588
-4.01963e-05
-0.00156646
-0.000101297
-0.00233088
-0.000190932
-0.00288715
-0.000304448
-0.00326783
-0.000435794
-0.00352997
-0.000579948
-0.00373118
-0.000733997
-0.00391339
-0.000896932
-0.00409955
-0.00106887
-0.00429937
-0.00125043
-0.00451641
-0.00144234
-0.00475238
-0.00164545
-0.00500865
-0.00186061
-0.00528664
-0.00208877
-0.00558781
-0.00233105
-0.00591347
-0.00258855
-0.00626463
-0.00286084
-0.00664376
-0.00314526
-0.00705893
-0.00750918
-0.00347562
-1.11199e-05
-0.000591469
-4.99392e-05
-0.00152764
-0.000119526
-0.0022613
-0.000217874
-0.0027888
-0.000339527
-0.00314618
-0.000478283
-0.00339121
-0.00062935
-0.00358011
-0.000790126
-0.00375261