0.0716991 	0.499829 	-8.49849e-19 	0.264112 	-0.00142633 	5.51878e-19
