/*--------------------------------*- C++ -*----------------------------------*\
  =========                 |
  \\      /  F ield         | OpenFOAM: The Open Source CFD Toolbox
   \\    /   O peration     | Website:  https://openfoam.org
    \\  /    A nd           | Version:  7
     \\/     M anipulation  |
\*---------------------------------------------------------------------------*/
FoamFile
{
    version     2.0;
    format      ascii;
    class       surfaceScalarField;
    location    "3";
    object      phi;
}
// * * * * * * * * * * * * * * * * * * * * * * * * * * * * * * * * * * * * * //

dimensions      [0 3 -1 0 0 0 0];

internalField   nonuniform List<scalar> 
615
(
2.63676e-05
1.70486e-06
2.48308e-05
1.53679e-06
2.34557e-05
1.37511e-06
2.21623e-05
1.29337e-06
2.10134e-05
1.14895e-06
1.9979e-05
1.0344e-06
1.90559e-05
9.23044e-07
1.82439e-05
8.12048e-07
1.73759e-05
8.67922e-07
1.64151e-05
9.60876e-07
1.54365e-05
9.78558e-07
1.44331e-05
1.00342e-06
1.34543e-05
9.78798e-07
1.25275e-05
9.26756e-07
1.15984e-05
9.29114e-07
1.06825e-05
9.15923e-07
9.81154e-06
8.7096e-07
8.9635e-06
8.48036e-07
8.18433e-06
7.79171e-07
7.49651e-06
6.87822e-07
6.98141e-06
5.15101e-07
6.74371e-06
2.37695e-07
6.7926e-06
-4.88933e-08
7.04497e-06
-2.52362e-07
7.43034e-06
-3.85375e-07
8.05746e-06
-6.27118e-07
9.04578e-06
-9.88326e-07
1.04175e-05
-1.37167e-06
1.20578e-05
-1.6403e-06
1.38007e-05
-1.74294e-06
1.56026e-05
-1.80187e-06
1.75727e-05
-1.97013e-06
1.97054e-05
-2.13266e-06
2.18236e-05
-2.11827e-06
2.39073e-05
-2.08366e-06
2.61833e-05
-2.27596e-06
2.86117e-05
-2.42848e-06
3.08327e-05
-2.22097e-06
3.30003e-05
-2.16762e-06
3.53915e-05
-2.39112e-06
3.75819e-05
-2.19046e-06
3.95759e-05
-1.99395e-06
4.18756e-05
-2.29972e-06
4.40396e-05
-2.16399e-06
4.58312e-05
-1.79161e-06
4.78098e-05
-1.9786e-06
4.96848e-05
-1.87503e-06
5.13202e-05
-1.63535e-06
5.30342e-05
-1.71409e-06
5.4394e-05
-1.35975e-06
5.5668e-05
-1.27399e-06
5.70399e-05
-1.37192e-06
5.79136e-05
-8.73737e-07
5.88219e-05
-9.08246e-07
5.96787e-05
-8.56857e-07
6.00316e-05
-3.52875e-07
6.05506e-05
-5.18998e-07
6.07623e-05
-2.11659e-07
6.05922e-05
1.70117e-07
6.05953e-05
-3.15192e-09
6.00326e-05
5.62756e-07
5.93523e-05
6.803e-07
5.87293e-05
6.22946e-07
5.74027e-05
1.32656e-06
5.6255e-05
1.14779e-06
5.49358e-05
1.31914e-06
1.99294e-06
7.87557e-05
6.56991e-06
7.41677e-05
6.12481e-06
6.99025e-05
5.64031e-06
6.6104e-05
5.09182e-06
6.30986e-05
4.15439e-06
6.03073e-05
3.82564e-06
5.72223e-05
4.00805e-06
5.43547e-05
3.67966e-06
5.16828e-05
3.53989e-06
4.88925e-05
3.75118e-06
4.61115e-05
3.75951e-06
4.32868e-05
3.8281e-06
4.03206e-05
3.94505e-06
3.74694e-05
3.77794e-06
3.47987e-05
3.59978e-06
3.20476e-05
3.66709e-06
2.92256e-05
3.69293e-06
2.66796e-05
3.39403e-06
2.44417e-05
3.01707e-06
2.22221e-05
2.90744e-06
2.03561e-05
2.38109e-06
1.95304e-05
1.06343e-06
1.99347e-05
-4.53221e-07
2.0968e-05
-1.28569e-06
2.21676e-05
-1.58502e-06
2.37637e-05
-2.22319e-06
2.6326e-05
-3.55056e-06
3.02744e-05
-5.32016e-06
3.54871e-05
-6.85298e-06
4.12664e-05
-7.52226e-06
4.68996e-05
-7.43504e-06
5.23572e-05
-7.42767e-06
5.82168e-05
-7.99231e-06
6.47596e-05
-8.66109e-06
7.15486e-05
-8.87268e-06
7.82905e-05
-9.01786e-06
8.51737e-05
-9.31164e-06
9.20624e-05
-9.10965e-06
9.87912e-05
-8.89646e-06
0.000105577
-9.17694e-06
0.000112226
-8.83947e-06
0.000118593
-8.36074e-06
0.000125151
-8.85817e-06
0.000131537
-8.5495e-06
0.000137238
-7.49272e-06
0.000142991
-7.73187e-06
0.000148661
-7.54503e-06
0.000153719
-6.69293e-06
0.00015858
-6.57513e-06
0.000162899
-5.67866e-06
0.0001668
-5.17538e-06
0.000170636
-5.20806e-06
0.000173566
-3.80387e-06
0.000176218
-3.56034e-06
0.00017867
-3.30856e-06
0.000180056
-1.73874e-06
0.000181399
-1.86196e-06
0.000182093
-9.05789e-07
0.000181775
4.87781e-07
0.000181528
2.43942e-07
0.000180155
1.93654e-06
0.000178082
2.75325e-06
0.000175984
2.72045e-06
0.000172435
4.87613e-06
0.00016874
4.8419e-06
0.000164751
5.30834e-06
7.57893e-06
0.000130682
1.5532e-05
0.000122649
1.41577e-05
0.000115712
1.25767e-05
0.000109656
1.11487e-05
0.000103197
1.06132e-05
9.75172e-05
9.50513e-06
9.39239e-05
7.60139e-06
9.09182e-05
6.6853e-06
8.77784e-05
6.67969e-06
8.37379e-05
7.79171e-06
7.81088e-05
9.38859e-06
7.25435e-05
9.39338e-06
6.75633e-05
8.92529e-06
6.21443e-05
9.19693e-06
5.73137e-05
8.43041e-06
5.29669e-05
8.01383e-06
4.77173e-05
8.94258e-06
4.28722e-05
8.23914e-06
3.94526e-05
6.43662e-06
3.60771e-05
6.28301e-06
3.25059e-05
5.9523e-06
3.05855e-05
2.9838e-06
3.11558e-05
-1.02355e-06
3.32481e-05
-3.378e-06
3.5765e-05
-4.10186e-06
3.85444e-05
-5.00261e-06
4.23474e-05
-7.35355e-06
4.80838e-05
-1.10566e-05
5.6195e-05
-1.49642e-05
6.61159e-05
-1.74432e-05
7.62701e-05
-1.75893e-05
8.53871e-05
-1.65447e-05
9.42287e-05
-1.68338e-05
0.000104719
-1.91517e-05
0.000116913
-2.10668e-05
0.000128728
-2.08329e-05
0.00013949
-2.00735e-05
0.000150631
-2.02503e-05
0.000162388
-2.06538e-05
0.000173586
-2.03743e-05
0.000184351
-1.96047e-05
0.000195471
-1.94804e-05
0.000206354
-1.97414e-05
0.000216421
-1.86172e-05
0.000226465
-1.7536e-05
0.000236342
-1.7609e-05
0.00024535
-1.65534e-05
0.000254033
-1.53757e-05
0.000262126
-1.46681e-05
0.000269261
-1.28138e-05
0.000276209
-1.21236e-05
0.00028219
-1.11889e-05
0.000287158
-8.77175e-06
0.000292047
-8.44883e-06
0.000295648
-6.90963e-06
0.000298312
-4.40265e-06
0.000300766
-4.31665e-06
0.000301622
-1.76135e-06
0.000301635
4.74136e-07
0.000301157
7.22831e-07
0.00029873
4.36336e-06
0.000295778
5.70525e-06
0.000292166
6.33241e-06
0.000286497
1.05451e-05
0.000280408
1.09303e-05
0.000273774
1.19429e-05
1.61531e-05
0.000180233
2.63983e-05
0.000170352
2.40383e-05
0.000160637
2.22916e-05
0.000152235
1.95507e-05
0.000144862
1.79861e-05
0.000139084
1.52835e-05
0.000134691
1.19941e-05
0.000128041
1.33353e-05
0.000118816
1.59045e-05
0.000108852
1.77558e-05
9.88709e-05
1.93701e-05
9.18877e-05
1.63765e-05
8.73384e-05
1.34747e-05
8.21476e-05
1.43876e-05
7.70248e-05
1.35533e-05
7.18526e-05
1.3186e-05
6.52611e-05
1.55341e-05
5.85393e-05
1.4961e-05
5.31759e-05
1.18e-05
4.85186e-05
1.09403e-05
4.41918e-05
1.02791e-05
4.13496e-05
5.82596e-06
4.03632e-05
-3.71276e-08
4.10908e-05
-4.10559e-06
4.35785e-05
-6.58954e-06
4.80578e-05
-9.48195e-06
5.43591e-05
-1.36548e-05
6.22584e-05
-1.89559e-05
7.18749e-05
-2.45807e-05
8.35834e-05
-2.91517e-05
9.70757e-05
-3.10815e-05
0.000111065
-3.05337e-05
0.000124968
-3.07372e-05
0.000139912
-3.40956e-05
0.00015643
-3.75847e-05
0.000172834
-3.72374e-05
0.000188254
-3.5493e-05
0.000203973
-3.59692e-05
0.000220056
-3.67372e-05
0.000235754
-3.60723e-05
0.000251483
-3.53332e-05
0.00026687
-3.48681e-05
0.000281611
-3.44821e-05
0.000296404
-3.34098e-05
0.000310659
-3.1791e-05
0.000324243
-3.11935e-05
0.000337354
-2.96639e-05
0.000349209
-2.72307e-05
0.00036051
-2.59696e-05
0.000371227
-2.3531e-05
0.000380344
-2.124e-05
0.000388819
-1.96641e-05
0.000396452
-1.64044e-05
0.000402589
-1.45862e-05
0.00040806
-1.23801e-05
0.000412304
-8.64722e-06
0.000415023
-7.03565e-06
0.000416911
-3.64919e-06
0.000417196
1.88957e-07
0.000415772
2.14652e-06
0.000413469
6.66649e-06
0.000409101
1.00732e-05
0.000403288
1.21458e-05
0.000396969
1.68643e-05
0.000388176
1.97235e-05
0.000378175
2.19439e-05
2.61286e-05
0.000228373
4.30405e-05
0.000213493
3.89181e-05
0.000198746
3.70395e-05
0.000186321
3.19753e-05
0.000175581
2.87256e-05
0.000164478
2.63872e-05
0.000156888
1.95834e-05
0.000156073
1.41507e-05
0.000158307
1.36707e-05
0.000159875
0.000157924
0.00015017
0.000139289
0.000126271
0.000111985
9.89218e-05
8.65065e-05
7.50013e-05
6.55102e-05
5.8101e-05
5.32017e-05
4.93432e-05
4.4583e-05
4.0719e-05
4.08069e-05
4.54859e-05
5.36375e-05
6.41219e-05
7.63893e-05
9.0784e-05
0.000108094
0.000127852
0.000148049
0.000167888
0.000188584
0.000209779
0.000229763
0.000249809
0.000271231
0.000291958
0.000311735
0.000331726
0.000351097
0.000370265
0.000388877
0.000406189
0.000423367
0.000438832
0.00045311
0.000467374
0.000478669
0.000489503
0.000499935
0.00050698
0.000514625
0.000520337
0.000522961
0.000526571
0.000526302
0.00052405
0.000522339
0.000515434
0.000507886
0.000500241
0.000487467
0.0004755
0.000271878
0.000259393
0.000254341
0.000246431
0.000234148
0.000221471
0.000211111
0.00019938
)
;

boundaryField
{
    inlet
    {
        type            calculated;
        value           nonuniform 0();
    }
    outlet
    {
        type            calculated;
        value           nonuniform 0();
    }
    wall
    {
        type            calculated;
        value           nonuniform 0();
    }
    wedge1
    {
        type            wedge;
        value           nonuniform List<scalar> 
344
(
-2.55006e-16
-4.11245e-16
-2.55173e-15
6.49346e-16
7.65754e-16
-1.73956e-15
-2.26279e-16
-3.78253e-16
-2.52655e-15
5.6147e-16
7.42114e-16
-1.51637e-15
-2.19832e-16
-3.07487e-16
-2.49994e-15
4.71785e-16
7.21012e-16
-1.42466e-15
-1.14643e-16
-3.61138e-16
-1.62841e-15
4.86716e-16
4.77146e-16
-1.43468e-15
7.63803e-18
-3.59651e-16
-6.48324e-16
5.6723e-16
2.18998e-16
-1.57499e-15
-4.6303e-17
-3.09028e-16
-7.72014e-16
4.81695e-16
1.6454e-16
-1.5163e-15
-6.1699e-17
-2.36239e-16
-1.34746e-15
2.97191e-16
2.18053e-16
-1.0099e-15
-6.813e-17
-2.1813e-16
-1.20442e-15
2.59654e-16
3.55532e-16
-4.7576e-16
3.0262e-17
-2.69664e-16
-6.19356e-16
3.27993e-16
3.99912e-16
-3.82293e-16
1.16903e-16
-3.69226e-16
-1.39748e-16
4.51564e-16
3.11341e-16
1.31183e-16
-3.59776e-16
-1.93024e-16
5.3599e-16
2.7981e-16
4.19342e-17
-3.39917e-16
-5.75238e-16
4.7231e-16
2.1937e-16
3.45125e-17
-2.97277e-16
-9.49444e-16
3.98325e-16
1.70508e-16
-5.83e-17
-2.50489e-16
-1.19763e-15
3.90274e-16
2.67102e-16
-8.80949e-17
-2.17259e-16
-1.26496e-15
3.3746e-16
2.9978e-16
-8.99198e-17
-2.26786e-16
-1.28824e-15
3.08438e-16
3.22719e-16
-8.80275e-17
-1.92638e-16
-1.49788e-15
3.44292e-16
4.07129e-16
-1.39226e-16
-1.75074e-16
-1.44793e-15
3.06817e-16
4.3559e-16
-8.6789e-17
-1.56852e-16
-1.20438e-15
2.26209e-16
3.61529e-16
-7.61042e-17
-1.45898e-16
-1.22112e-15
2.09934e-16
3.34126e-16
-4.18101e-17
-8.65317e-17
-1.20468e-15
1.94559e-16
3.18164e-16
-1.98242e-17
-3.22525e-17
-5.53813e-16
9.20846e-17
1.96329e-16
9.40814e-17
3.31994e-17
4.00074e-16
-2.99557e-17
1.27752e-17
1.44377e-16
5.65573e-17
9.805e-16
-1.09483e-16
-1.29475e-16
2.14774e-16
8.81168e-17
1.04012e-15
-1.38108e-16
-2.47593e-16
2.19572e-16
1.29374e-16
1.22043e-15
-1.76031e-16
-3.8612e-16
3.36033e-16
2.14809e-16
1.85177e-15
-2.48824e-16
-5.53993e-16
3.74051e-16
2.9669e-16
2.94466e-15
-3.68239e-16
-7.34338e-16
5.01622e-16
3.63647e-16
3.97745e-15
-4.90343e-16
-9.26792e-16
5.11913e-16
3.72556e-16
4.54347e-15
-5.81965e-16
-1.1026e-15
5.94445e-16
3.76453e-16
4.442e-15
-5.94039e-16
-1.2177e-15
5.95821e-16
3.93564e-16
4.21351e-15
-5.62818e-16
-1.2378e-15
6.47349e-16
4.53508e-16
4.36461e-15
-5.72349e-16
-1.24834e-15
5.84152e-16
4.62467e-16
4.95098e-15
-6.62266e-16
-1.34722e-15
6.37078e-16
4.63127e-16
5.29637e-15
-7.38534e-16
-1.48018e-15
6.82727e-16
4.68163e-16
5.28428e-15
-7.25191e-16
-1.47954e-15
7.24991e-16
5.13571e-16
5.21327e-15
-6.92004e-16
-1.42375e-15
6.22589e-16
4.774e-16
5.27712e-15
-7.08573e-16
-1.43813e-15
6.82464e-16
4.80672e-16
5.32798e-15
-7.30409e-16
-1.46075e-15
7.33005e-16
5.09323e-16
5.29851e-15
-7.11082e-16
-1.42372e-15
6.56878e-16
4.8455e-16
5.04313e-15
-6.81572e-16
-1.42391e-15
5.71008e-16
4.15357e-16
4.94538e-15
-6.8514e-16
-1.41071e-15
7.04895e-16
4.90037e-16
5.12439e-15
-7.01228e-16
-1.37712e-15
6.64515e-16
4.83258e-16
4.99661e-15
-6.58536e-16
-1.34661e-15
5.85471e-16
4.07857e-16
4.56584e-15
-6.20495e-16
-1.28738e-15
5.88876e-16
4.10178e-16
4.47074e-15
-6.22978e-16
-1.25812e-15
5.63584e-16
4.11268e-16
4.37505e-15
-5.89613e-16
-1.23072e-15
5.33675e-16
3.65787e-16
4.14299e-15
-5.55659e-16
-1.11191e-15
5.70331e-16
3.8487e-16
3.93178e-15
-5.25581e-16
-1.06189e-15
4.29935e-16
3.03207e-16
3.439e-15
-4.57613e-16
-1.00009e-15
4.25984e-16
2.82522e-16
3.20981e-15
-4.43616e-16
-8.74158e-16
4.60152e-16
2.99388e-16
3.13974e-15
-3.95453e-16
-8.29015e-16
3.24075e-16
2.06378e-16
2.43412e-15
-3.19433e-16
-7.14386e-16
3.26151e-16
2.0113e-16
2.25438e-15
-3.10899e-16
-6.05066e-16
3.30138e-16
1.86718e-16
2.08759e-15
-2.3555e-16
-5.58862e-16
1.73119e-16
9.25659e-17
1.22299e-15
-1.68587e-16
-3.9488e-16
2.28943e-16
1.10904e-16
1.23719e-15
-1.53105e-16
-3.07467e-16
1.49217e-16
4.64329e-17
7.33803e-16
-4.50304e-17
-2.22789e-16
1.79324e-17
-1.74801e-17
-1.30105e-16
3.99306e-18
-2.13362e-17
8.49664e-17
-4.73231e-18
1.81088e-17
3.83398e-17
4.16406e-17
-4.7908e-17
-1.06264e-16
-7.73706e-16
1.40295e-16
1.62648e-16
-1.01659e-16
-1.26813e-16
-1.30958e-15
1.74244e-16
3.24273e-16
-7.06137e-17
-1.33154e-16
-1.11093e-15
2.3393e-16
3.74521e-16
-2.60608e-16
-2.44671e-16
-2.25762e-15
3.3374e-16
5.32345e-16
-1.99775e-16
-2.35566e-16
-2.35769e-15
3.50806e-16
6.85181e-16
-2.31789e-16
-2.78572e-16
-2.36884e-15
4.09231e-16
7.1988e-16
-4.82808e-16
-3.75496e-16
-3.75065e-15
5.01883e-16
8.35412e-16
)
;
    }
    wedge2
    {
        type            wedge;
        value           nonuniform List<scalar> 
344
(
-3.31563e-16
-4.97607e-16
-2.52247e-15
6.86043e-16
7.7274e-16
-1.72215e-15
-2.83611e-16
-4.43454e-16
-2.51649e-15
5.9562e-16
7.44146e-16
-1.50407e-15
-2.8572e-16
-3.94753e-16
-2.48485e-15
5.06764e-16
7.34405e-16
-1.40711e-15
-1.55501e-16
-4.20901e-16
-1.63563e-15
5.20765e-16
4.83977e-16
-1.4196e-15
-7.66727e-17
-4.36928e-16
-6.29266e-16
6.02709e-16
2.32678e-16
-1.55863e-15
-8.33556e-17
-3.59974e-16
-7.7051e-16
5.1474e-16
1.71895e-16
-1.50302e-15
-1.33782e-16
-3.1208e-16
-1.32551e-15
3.31475e-16
2.28394e-16
-9.93887e-16
-9.62403e-17
-2.7203e-16
-1.19807e-15
2.94162e-16
3.60219e-16
-4.58505e-16
-3.77828e-17
-3.42156e-16
-5.82655e-16
3.67858e-16
4.15689e-16
-3.64719e-16
7.77865e-17
-4.18447e-16
-1.19525e-16
4.87768e-16
3.20137e-16
4.60817e-17
-4.2591e-16
-1.54458e-16
5.69364e-16
2.96816e-16
1.76394e-17
-3.84156e-16
-5.64078e-16
5.01154e-16
2.33727e-16
-3.75837e-17
-3.62091e-16
-9.25687e-16
4.24617e-16
1.87464e-16
-8.03377e-17
-2.94e-16
-1.20206e-15
4.1347e-16
2.82375e-16
-1.41514e-16
-2.8006e-16
-1.24873e-15
3.63409e-16
3.24049e-16
-1.12321e-16
-2.7869e-16
-1.29662e-15
3.33196e-16
3.3996e-16
-1.49321e-16
-2.61812e-16
-1.47981e-15
3.72521e-16
4.35085e-16
-1.63507e-16
-2.28817e-16
-1.44571e-15
3.41807e-16
4.57075e-16
-1.63789e-16
-2.27856e-16
-1.16629e-15
2.58489e-16
3.79108e-16
-1.22336e-16
-1.99637e-16
-1.19788e-15
2.43685e-16
3.42402e-16
-1.39281e-16
-1.46606e-16
-1.13655e-15
2.24901e-16
3.29535e-16
-6.84893e-17
-5.87661e-17
-5.03076e-16
1.12548e-16
1.91958e-16
-2.6609e-17
-3.64167e-18
4.93405e-16
-3.96802e-17
7.3769e-18
6.25192e-17
4.95402e-17
1.03249e-15
-1.33473e-16
-1.48029e-16
6.25207e-17
7.82697e-17
1.13121e-15
-1.76848e-16
-2.63317e-16
1.56559e-16
1.52449e-16
1.27026e-15
-2.17211e-16
-4.10641e-16
2.03246e-16
2.37208e-16
1.93349e-15
-3.09297e-16
-5.74051e-16
3.48397e-16
3.32679e-16
2.96629e-15
-4.37076e-16
-7.54203e-16
3.62522e-16
3.87913e-16
4.02227e-15
-5.77705e-16
-9.3968e-16
4.30491e-16
4.12308e-16
4.53131e-15
-6.68847e-16
-1.11541e-15
4.17047e-16
4.11907e-16
4.46057e-15
-6.8575e-16
-1.22779e-15
5.17785e-16
4.58624e-16
4.18531e-15
-6.50189e-16
-1.25047e-15
5.13497e-16
4.98933e-16
4.36959e-15
-6.6145e-16
-1.25498e-15
5.29535e-16
5.22716e-16
4.91375e-15
-7.50396e-16
-1.3585e-15
4.88839e-16
4.95726e-16
5.28687e-15
-8.28223e-16
-1.48279e-15
5.94452e-16
5.32339e-16
5.22913e-15
-8.15592e-16
-1.48876e-15
5.91797e-16
5.53126e-16
5.182e-15
-7.79388e-16
-1.42414e-15
5.46505e-16
5.36322e-16
5.21726e-15
-7.95156e-16
-1.44718e-15
5.36541e-16
5.13025e-16
5.2917e-15
-8.16547e-16
-1.46186e-15
6.4727e-16
5.7427e-16
5.22868e-15
-7.97304e-16
-1.4316e-15
5.27151e-16
5.1941e-16
4.99425e-15
-7.63501e-16
-1.42626e-15
4.74641e-16
4.69919e-16
4.87617e-15
-7.69375e-16
-1.41951e-15
5.733e-16
5.29365e-16
5.06672e-15
-7.84008e-16
-1.37972e-15
5.70299e-16
5.40642e-16
4.91982e-15
-7.40715e-16
-1.35616e-15
4.50333e-16
4.42274e-16
4.50513e-15
-7.01122e-16
-1.29259e-15
4.90292e-16
4.68234e-16
4.39158e-15
-7.06015e-16
-1.26668e-15
4.38178e-16
4.48459e-16
4.30702e-15
-6.68644e-16
-1.23739e-15
4.28754e-16
4.16978e-16
4.06463e-15
-6.37945e-16
-1.12151e-15
4.47581e-16
4.27299e-16
3.85812e-15
-6.06115e-16
-1.06957e-15
3.29342e-16
3.52574e-16
3.35966e-15
-5.38275e-16
-1.01005e-15
3.03997e-16
3.23084e-16
3.13705e-15
-5.24565e-16
-8.83736e-16
3.63479e-16
3.50888e-16
3.05901e-15
-4.78001e-16
-8.38735e-16
2.02936e-16
2.48229e-16
2.35952e-15
-3.9892e-16
-7.25982e-16
2.24942e-16
2.50763e-16
2.17835e-15
-3.95248e-16
-6.14884e-16
2.25363e-16
2.33933e-16
2.01146e-15
-3.17297e-16
-5.71669e-16
7.18075e-17
1.36725e-16
1.15015e-15
-2.52349e-16
-4.05738e-16
1.31023e-16
1.6122e-16
1.1651e-15
-2.38242e-16
-3.20938e-16
5.32705e-17
9.23692e-17
6.62124e-16
-1.30911e-16
-2.36144e-16
-7.34972e-17
2.88062e-17
-1.82786e-16
-8.09763e-17
-3.61881e-17
-1.12498e-18
4.53006e-17
-3.16555e-17
-4.28599e-17
2.92527e-17
-1.34469e-16
-6.39799e-17
-8.22911e-16
6.47123e-17
1.47008e-16
-1.80242e-16
-8.01607e-17
-1.35393e-15
9.54898e-17
3.09488e-16
-1.49755e-16
-8.49447e-17
-1.15186e-15
1.5487e-16
3.56009e-16
-3.41174e-16
-2.04137e-16
-2.29203e-15
2.56626e-16
5.13446e-16
-2.65089e-16
-1.83729e-16
-2.38688e-15
2.72232e-16
6.64205e-16
-3.09085e-16
-2.37377e-16
-2.38918e-15
3.32283e-16
6.97335e-16
-5.53388e-16
-3.29909e-16
-3.76555e-15
4.28965e-16
8.08518e-16
)
;
    }
    axis
    {
        type            empty;
        value           nonuniform 0();
    }
    procBoundary4to3
    {
        type            processor;
        value           nonuniform List<scalar> 4(-2.80724e-05 -8.36207e-05 -0.000139644 -0.000191099);
    }
    procBoundary4to5
    {
        type            processor;
        value           nonuniform List<scalar> 5(5.29429e-05 0.000159165 0.0002652 0.000368199 0.00046324);
    }
    procBoundary4to9
    {
        type            processor;
        value           nonuniform List<scalar> 2(-0.000245016 -0.000293355);
    }
    procBoundary4to10
    {
        type            processor;
        value           nonuniform List<scalar> 
68
(
1.61881e-05
2.13211e-05
2.41298e-05
2.43559e-05
2.74059e-05
2.78389e-05
2.62493e-05
2.79494e-05
2.64662e-05
2.12911e-05
1.83495e-05
1.51784e-05
9.68443e-06
4.72312e-06
-2.41622e-07
-6.67743e-06
-1.4161e-05
-2.18064e-05
-2.94403e-05
-3.68481e-05
-4.35464e-05
-4.83913e-05
-5.02924e-05
-5.09337e-05
-5.39346e-05
-5.82811e-05
-5.84322e-05
-5.54764e-05
-5.60158e-05
-5.81588e-05
-5.67991e-05
-5.51105e-05
-5.48587e-05
-5.38534e-05
-5.25784e-05
-5.04024e-05
-4.8506e-05
-4.6842e-05
-4.26954e-05
-4.02479e-05
-3.77946e-05
-3.2535e-05
-3.04983e-05
-2.68366e-05
-2.16306e-05
-2.00252e-05
-1.43594e-05
-9.65904e-06
-7.26003e-06
4.57878e-07
4.39949e-06
8.37679e-06
1.69785e-05
1.96934e-05
2.45092e-05
3.24981e-05
3.39111e-05
3.83881e-05
6.45176e-05
5.1403e-05
4.20921e-05
3.98853e-05
4.10083e-05
3.90645e-05
2.99435e-05
2.58818e-05
0.000183923
2.91269e-05
)
;
    }
}


// ************************************************************************* //
