/*--------------------------------*- C++ -*----------------------------------*\
  =========                 |
  \\      /  F ield         | OpenFOAM: The Open Source CFD Toolbox
   \\    /   O peration     | Website:  https://openfoam.org
    \\  /    A nd           | Version:  7
     \\/     M anipulation  |
\*---------------------------------------------------------------------------*/
FoamFile
{
    version     2.0;
    format      ascii;
    class       volVectorField;
    location    "123.00078";
    object      U;
}
// * * * * * * * * * * * * * * * * * * * * * * * * * * * * * * * * * * * * * //

dimensions      [0 1 -1 0 0 0 0];

internalField   nonuniform List<vector> 
5800
(
(-0.193578 0.447604 -7.36539e-22)
(-0.14719 0.427666 -2.07657e-20)
(-0.0854026 0.403328 3.06413e-20)
(-0.0130742 0.375814 9.94556e-21)
(0.0663498 0.345729 -2.43313e-20)
(-0.170197 0.45944 4.20026e-21)
(-0.151582 0.461864 4.09924e-21)
(-0.129789 0.457538 -7.64048e-21)
(-0.104618 0.445683 3.73981e-21)
(-0.0761285 0.42556 -2.25116e-21)
(-0.044561 0.396905 -8.54596e-22)
(-0.0102095 0.359496 4.80372e-21)
(0.0265634 0.313484 -7.18616e-21)
(0.0651459 0.259189 3.15702e-21)
(0.104979 0.197222 3.12879e-21)
(0.145596 0.128354 -6.61887e-21)
(0.186593 0.0535376 -2.04169e-22)
(0.227579 -0.0262491 5.5119e-21)
(0.268293 -0.10966 -4.33073e-22)
(0.308613 -0.195017 -2.2677e-21)
(0.348377 -0.28013 1.97021e-21)
(0.387318 -0.362247 -8.8833e-22)
(0.424925 -0.438178 1.13221e-21)
(0.460395 -0.504656 -8.21028e-22)
(0.492704 -0.558916 -4.70789e-22)
(0.52079 -0.599275 1.85638e-21)
(0.543748 -0.625479 -6.08058e-22)
(0.560981 -0.638698 -1.03696e-21)
(0.572243 -0.641193 6.29282e-22)
(0.577547 -0.635874 1.65067e-22)
(0.5769 -0.626081 -6.58932e-22)
(0.569956 -0.615547 7.36993e-22)
(0.556117 -0.607799 -6.0071e-22)
(0.53558 -0.604186 -4.52552e-22)
(0.510848 -0.601325 1.32476e-21)
(0.487272 -0.590269 -9.9331e-22)
(0.471659 -0.559121 -2.55518e-22)
(0.469467 -0.498224 2.03405e-22)
(0.482587 -0.404536 -3.61526e-23)
(0.509369 -0.282229 8.73938e-22)
(0.546379 -0.140177 -1.26788e-21)
(0.589974 0.010553 1.08105e-21)
(0.636798 0.157998 -1.63581e-23)
(0.683573 0.289874 -6.13216e-23)
(0.726912 0.396088 -1.0617e-22)
(0.7638 0.471516 6.04593e-22)
(0.792417 0.517064 -4.92994e-23)
(0.812352 0.538404 -2.07546e-22)
(0.824133 0.5435 -7.71631e-23)
(0.828935 0.539472 4.43022e-23)
(0.828489 0.530921 -2.19021e-22)
(0.823955 0.521673 2.77863e-22)
(0.814238 0.517819 -7.53497e-23)
(0.797005 0.524383 1.90759e-22)
(0.771819 0.537181 -5.78888e-23)
(0.742873 0.53798 1.37553e-23)
(0.716952 0.502432 6.1764e-23)
(0.700471 0.413666 -2.6213e-22)
(0.696695 0.272337 3.84501e-22)
(0.706617 0.0970334 -3.73301e-22)
(0.728527 -0.0840454 3.49909e-23)
(0.757779 -0.23967 2.59609e-22)
(0.788508 -0.355799 -9.21313e-24)
(0.814198 -0.42472 -8.71684e-23)
(0.831279 -0.463559 -4.02159e-23)
(0.841916 -0.467587 -1.59944e-23)
(0.843087 -0.468907 3.57788e-23)
(0.838768 -0.458617 -2.46668e-23)
(0.815237 -0.476034 -1.45595e-23)
(0.7895 -0.477025 6.55243e-24)
(0.747774 -0.458719 -2.36953e-23)
(0.717896 -0.385636 1.32269e-23)
(0.6867 -0.245931 -1.30527e-23)
(0.662958 -0.0998851 7.20844e-24)
(0.660318 0.135583 2.16509e-24)
(-0.115808 0.436705 -1.49981e-21)
(-0.0930306 0.436236 -2.81901e-21)
(-0.0670429 0.429059 -2.82174e-21)
(-0.0378862 0.414574 3.34287e-22)
(-0.00566794 0.392226 -2.2345e-21)
(0.0292567 0.361701 1.78124e-20)
(0.0663492 0.322947 -1.31045e-20)
(0.105245 0.2761 1.03597e-20)
(0.145368 0.221491 -7.81848e-21)
(0.1862 0.159713 -5.51423e-21)
(0.227266 0.0914349 5.75941e-21)
(0.268148 0.0174659 5.86106e-21)
(0.308532 -0.0613295 -1.29472e-20)
(0.348243 -0.143662 2.98909e-21)
(0.387143 -0.227911 -5.15763e-21)
(0.425044 -0.311842 5.39779e-21)
(0.461611 -0.392544 -1.13962e-21)
(0.496226 -0.466595 8.6035e-21)
(0.527991 -0.530529 -3.74114e-21)
(0.555857 -0.581498 7.96773e-22)
(0.578841 -0.6179 1.14411e-21)
(0.596237 -0.6397 -4.33945e-21)
(0.60772 -0.64835 5.03301e-22)
(0.613332 -0.646366 -4.73921e-22)
(0.61337 -0.636777 6.26138e-23)
(0.608141 -0.622791 3.60427e-22)
(0.597566 -0.607853 1.25247e-21)
(0.58099 -0.595543 -4.3608e-22)
(0.557888 -0.588154 -9.52387e-22)
(0.529482 -0.584001 1.91624e-21)
(0.499992 -0.575616 -3.39168e-21)
(0.476058 -0.551214 7.61632e-22)
(0.46417 -0.499545 3.68327e-21)
(0.467812 -0.415191 -2.53876e-21)
(0.486595 -0.300515 -1.26262e-21)
(0.517671 -0.163737 1.97735e-21)
(0.557556 -0.0160154 -3.54681e-21)
(0.60277 0.130467 5.04215e-21)
(0.649799 0.26344 -2.13375e-21)
(0.695054 0.372641 -5.24924e-22)
(0.735211 0.452429 4.12652e-22)
(0.767978 0.502915 -2.29036e-24)
(0.792379 0.529056 1.4848e-22)
(0.808483 0.538328 -5.70765e-23)
(0.817319 0.537544 3.02502e-22)
(0.820593 0.531397 -1.82977e-22)
(0.81931 0.524405 3.53855e-22)
(0.81224 0.523371 -4.72739e-22)
(0.797343 0.533071 -1.27813e-22)
(0.774776 0.548063 -2.76702e-22)
(0.749114 0.548881 9.43305e-22)
(0.726897 0.510974 -1.31683e-21)
(0.713926 0.418186 -6.27903e-22)
(0.712926 0.272072 5.38552e-22)
(0.724569 0.0920799 -1.4841e-22)
(0.747065 -0.0926851 -2.18473e-22)
(0.775594 -0.249968 -1.01138e-22)
(0.804692 -0.365411 9.1255e-23)
(0.827958 -0.431824 -4.22645e-22)
(0.842257 -0.467872 2.72433e-22)
(0.849696 -0.469297 2.96473e-23)
(0.848165 -0.467981 -1.05868e-23)
(0.841552 -0.454085 5.8662e-23)
(0.816284 -0.468081 -3.43557e-23)
(0.788504 -0.466817 -2.63102e-24)
(0.745267 -0.447989 -3.85697e-24)
(0.714096 -0.376842 2.88248e-24)
(0.682908 -0.238117 -9.7464e-24)
(0.659029 -0.0965479 1.45641e-23)
(0.659293 0.135729 -1.13799e-23)
(-0.0470479 0.409337 7.45888e-23)
(-0.0211296 0.406735 8.94231e-21)
(0.00815836 0.397393 2.22406e-21)
(0.0403498 0.381007 -1.85635e-20)
(0.0751202 0.357235 -1.25377e-20)
(0.11209 0.325665 1.06737e-20)
(0.1508 0.286358 2.75546e-20)
(0.190788 0.23946 -1.53219e-20)
(0.231525 0.185296 -6.0805e-21)
(0.272515 0.124355 3.51064e-21)
(0.31332 0.0572021 8.10123e-21)
(0.353526 -0.0154864 -1.1033e-20)
(0.392905 -0.0928339 1.23908e-20)
(0.431317 -0.173736 -1.07192e-20)
(0.468578 -0.256603 2.04545e-20)
(0.504454 -0.339119 -1.94295e-20)
(0.538481 -0.418194 3.00168e-21)
(0.569887 -0.49018 -2.23866e-20)
(0.597652 -0.551436 8.95157e-21)
(0.620712 -0.599078 -4.01126e-21)
(0.638211 -0.63163 3.18222e-21)
(0.649692 -0.649295 1.44042e-20)
(0.655149 -0.653794 -7.03025e-21)
(0.654939 -0.647865 2.01559e-21)
(0.649615 -0.634646 -4.6754e-21)
(0.639724 -0.617219 3.87036e-21)
(0.625459 -0.598652 -4.66455e-21)
(0.606283 -0.582254 1.99435e-21)
(0.581229 -0.570857 -5.85577e-22)
(0.550351 -0.564396 1.37128e-21)
(0.516469 -0.557313 1.47028e-21)
(0.485515 -0.538681 2.31917e-21)
(0.464585 -0.496223 -1.97605e-21)
(0.458736 -0.422122 5.07435e-22)
(0.469095 -0.316482 -1.43741e-21)
(0.493622 -0.18639 2.93569e-21)
(0.529083 -0.042826 -1.63599e-21)
(0.571989 0.101801 7.87931e-22)
(0.618645 0.235235 -3.53567e-21)
(0.665229 0.347002 8.11444e-22)
(0.708134 0.43094 1.13533e-21)
(0.744623 0.486372 -1.85234e-21)
(0.773177 0.517494 1.3469e-21)
(0.793437 0.531189 1.25305e-21)
(0.806268 0.533884 -8.2801e-22)
(0.813283 0.530376 -2.15547e-22)
(0.815286 0.525868 -7.50191e-22)
(0.810958 0.527771 1.41761e-22)
(0.798608 0.540541 3.19491e-22)
(0.778953 0.557589 9.61341e-22)
(0.756842 0.558459 -9.37295e-22)
(0.738508 0.518534 1.09907e-21)
(0.72914 0.422286 1.13906e-21)
(0.730955 0.271963 -8.05833e-22)
(0.744297 0.0877478 8.60724e-23)
(0.767294 -0.100383 9.95496e-22)
(0.794933 -0.259171 -3.71117e-22)
(0.822144 -0.373924 3.68108e-23)
(0.842746 -0.437839 4.87741e-22)
(0.854105 -0.47114 2.77483e-24)
(0.858253 -0.470051 3.75515e-22)
(0.853942 -0.466314 -2.57155e-22)
(0.845083 -0.44896 -6.17658e-23)
(0.818196 -0.459579 1.16482e-22)
(0.788565 -0.456134 -3.24685e-23)
(0.743912 -0.436924 3.95882e-23)
(0.711516 -0.367992 3.59377e-23)
(0.680391 -0.230417 4.13571e-23)
(0.6565 -0.0936273 -6.06975e-23)
(0.659576 0.135423 1.59528e-23)
(0.0312612 0.378543 1.09067e-21)
(0.0598397 0.374424 -3.27025e-20)
(0.091268 0.363651 -8.18894e-21)
(0.125483 0.346108 4.04606e-20)
(0.161878 0.32153 -2.9668e-20)
(0.200014 0.289675 5.13321e-21)
(0.239467 0.250537 2.01698e-20)
(0.27977 0.20426 -1.69586e-20)
(0.320431 0.151128 -1.7254e-20)
(0.360989 0.0915276 2.88777e-20)
(0.401039 0.0258754 9.8005e-21)
(0.440297 -0.0450495 -1.10174e-20)
(0.478538 -0.120613 -1.13113e-20)
(0.515562 -0.199843 8.23659e-22)
(0.551197 -0.281112 2.44071e-20)
(0.585085 -0.361995 -1.25909e-20)
(0.616566 -0.439211 -1.60232e-21)
(0.644662 -0.508902 -1.14997e-20)
(0.668227 -0.567305 -2.4974e-22)
(0.686215 -0.611566 4.17282e-21)
(0.697955 -0.640382 8.00299e-21)
(0.703299 -0.654214 -8.30656e-21)
(0.702597 -0.655026 5.83131e-21)
(0.696532 -0.645736 -3.2497e-21)
(0.685897 -0.629547 -1.20642e-21)
(0.671419 -0.609424 -4.01286e-22)
(0.6535 -0.588055 2.57557e-21)
(0.631815 -0.568275 2.50872e-21)
(0.605232 -0.553005 -4.90725e-21)
(0.572889 -0.543469 -1.08015e-21)
(0.536127 -0.536249 4.77037e-21)
(0.499695 -0.522007 -1.62616e-21)
(0.470721 -0.488213 -3.57601e-21)
(0.455618 -0.424911 1.41375e-21)
(0.457247 -0.329573 -2.83619e-21)
(0.474669 -0.207603 2.55573e-21)
(0.505017 -0.0694468 -1.8422e-21)
(0.544894 0.0723563 6.59792e-21)
(0.590477 0.205545 6.13901e-22)
(0.637728 0.319389 -5.59459e-22)
(0.682792 0.407201 -1.90071e-21)
(0.722507 0.467523 -2.43086e-21)
(0.754847 0.503746 -3.85717e-22)
(0.779052 0.522061 2.38947e-21)
(0.795803 0.528445 2.54265e-22)
(0.80654 0.5278 -9.03525e-22)
(0.811837 0.525975 1.90774e-22)
(0.810333 0.530886 9.88037e-23)
(0.800719 0.546627 1.14414e-21)
(0.784226 0.565608 -7.15083e-22)
(0.765894 0.566614 -7.57509e-22)
(0.7516 0.525068 -1.39454e-22)
(0.74592 0.425962 3.13673e-21)
(0.750586 0.272043 -1.73942e-21)
(0.765633 0.084084 -2.52779e-21)
(0.789089 -0.107071 8.96044e-22)
(0.815694 -0.267193 3.46606e-22)
(0.840782 -0.381257 4.14906e-23)
(0.858495 -0.442713 -1.34343e-21)
(0.866768 -0.473336 5.27098e-22)
(0.867552 -0.469836 -1.36223e-22)
(0.860391 -0.463917 6.63358e-23)
(0.849329 -0.44329 -1.507e-22)
(0.820941 -0.450593 -1.03605e-22)
(0.789653 -0.44503 4.34011e-23)
(0.743681 -0.425546 -1.7716e-23)
(0.71011 -0.359104 -3.25575e-23)
(0.679093 -0.222854 -3.94002e-23)
(0.655285 -0.0911213 3.17669e-23)
(0.661066 0.134679 -1.43318e-23)
(0.114543 0.345791 3.36496e-20)
(0.145317 0.340321 -1.07779e-20)
(0.178139 0.328695 1.02517e-20)
(0.21354 0.310671 -5.91039e-20)
(0.250823 0.285996 2.90673e-20)
(0.289458 0.254487 -4.09341e-20)
(0.329032 0.216119 4.66523e-20)
(0.369112 0.171008 -4.61045e-20)
(0.409242 0.119381 -1.30942e-20)
(0.448961 0.0615366 9.93116e-20)
(0.488158 -0.00219997 -5.53569e-20)
(0.526491 -0.071104 4.85529e-20)
(0.563589 -0.144757 -1.03358e-20)
(0.599383 -0.222154 -7.79018e-22)
(0.633598 -0.301634 -2.90423e-20)
(0.665667 -0.380643 -1.18717e-20)
(0.694673 -0.455704 -4.97024e-21)
(0.719406 -0.522801 1.27988e-20)
(0.738613 -0.578124 -2.76289e-20)
(0.751329 -0.618928 1.4291e-20)
(0.757137 -0.644137 -4.96778e-21)
(0.756253 -0.654473 4.10078e-21)
(0.749401 -0.65212 5.68303e-21)
(0.737584 -0.640106 8.26603e-21)
(0.721824 -0.621628 -4.95611e-21)
(0.702972 -0.599529 -3.35256e-21)
(0.68155 -0.57616 2.69174e-21)
(0.657446 -0.553814 3.83535e-22)
(0.6296 -0.535138 2.23478e-21)
(0.596562 -0.522143 -1.8261e-21)
(0.558304 -0.513456 -2.47042e-21)
(0.518068 -0.501933 4.13083e-21)
(0.482382 -0.475706 -3.92569e-21)
(0.458572 -0.423247 2.9117e-21)
(0.451311 -0.33923 1.43641e-21)
(0.461126 -0.226788 -2.08874e-21)
(0.485696 -0.0953861 -1.41538e-21)
(0.521808 0.0425553 2.0552e-21)
(0.565594 0.17471 -3.41832e-21)
(0.612803 0.290059 8.82032e-22)
(0.659377 0.381397 -1.00007e-21)
(0.701768 0.446486 3.91306e-22)
(0.737479 0.487865 -2.70933e-22)
(0.765379 0.510941 1.27308e-21)
(0.78593 0.521194 -1.19349e-21)
(0.800329 0.523619 8.04617e-22)
(0.808902 0.524654 -1.76781e-21)
(0.810283 0.532604 4.0383e-22)
(0.803567 0.551195 2.13885e-21)
(0.790444 0.572002 -2.03164e-21)
(0.776079 0.573268 -2.04005e-21)
(0.765954 0.530537 2.75516e-21)
(0.764036 0.429214 -2.78933e-21)
(0.771601 0.272337 1.75304e-21)
(0.788377 0.0811554 5.26335e-22)
(0.812272 -0.112692 5.59526e-22)
(0.837742 -0.273963 -2.72365e-21)
(0.860503 -0.387338 9.07106e-22)
(0.87512 -0.446399 1.65392e-23)
(0.880176 -0.474439 8.16303e-22)
(0.877542 -0.468642 -1.05047e-21)
(0.867477 -0.460798 3.4947e-22)
(0.85425 -0.437116 7.06158e-23)
(0.824476 -0.441184 3.21478e-23)
(0.791725 -0.433562 -1.13568e-23)
(0.74454 -0.41388 1.33943e-23)
(0.709826 -0.350191 1.85652e-23)
(0.678953 -0.215441 -1.09782e-23)
(0.65529 -0.0890295 -1.46147e-23)
(0.663654 0.133511 1.22728e-23)
(0.19945 0.311758 -1.42231e-20)
(0.231765 0.305344 1.4172e-20)
(0.265422 0.293344 1.10451e-20)
(0.30133 0.275398 -6.85699e-20)
(0.338879 0.251202 7.37353e-20)
(0.377503 0.220574 1.1565e-21)
(0.416787 0.183466 -5.47566e-20)
(0.456345 0.139942 3.56472e-20)
(0.49578 0.0901609 1.18318e-20)
(0.534659 0.034343 1.29466e-20)
(0.572992 -0.0271925 -4.69088e-20)
(0.610493 -0.0939929 -4.25252e-20)
(0.646786 -0.165615 1.45216e-20)
(0.681706 -0.241027 3.90298e-20)
(0.714802 -0.318494 -2.29627e-20)
(0.745242 -0.395305 6.00609e-20)
(0.771811 -0.46782 -6.27803e-20)
(0.793085 -0.531936 6.36087e-20)
(0.807766 -0.583903 -1.86129e-20)
(0.815054 -0.621173 -3.6803e-20)
(0.814855 -0.642942 2.86199e-20)
(0.807777 -0.650185 -3.64086e-21)
(0.794924 -0.645248 -4.15256e-21)
(0.7776 -0.631186 7.79735e-21)
(0.757023 -0.611114 -6.47914e-21)
(0.734125 -0.587723 -1.10008e-20)
(0.709466 -0.563088 8.32016e-21)
(0.683077 -0.538997 -1.79775e-21)
(0.654109 -0.5176 -1.40125e-21)
(0.620893 -0.501185 2.73497e-21)
(0.582302 -0.49002 5.42538e-21)
(0.539933 -0.47944 -1.25004e-21)
(0.499148 -0.459172 -1.10021e-20)
(0.467544 -0.416994 8.90175e-21)
(0.451451 -0.344925 -5.036e-21)
(0.453191 -0.243307 1.66225e-21)
(0.471345 -0.120024 4.76496e-21)
(0.502993 0.012975 -1.81353e-21)
(0.544232 0.143148 -6.53704e-23)
(0.590656 0.259335 1.13462e-21)
(0.638051 0.353769 -3.40547e-21)
(0.682521 0.423421 -1.30091e-21)
(0.721148 0.469929 3.25911e-21)
(0.752456 0.497847 7.24774e-22)
(0.776644 0.512117 -1.97585e-21)
(0.794606 0.5178 8.03383e-22)
(0.806408 0.521843 -5.46315e-22)
(0.810712 0.532831 -1.84454e-21)
(0.807017 0.554137 -5.68246e-22)
(0.797426 0.576679 2.90935e-21)
(0.787171 0.578357 1.87769e-21)
(0.78132 0.534905 3.10866e-21)
(0.783229 0.432028 -1.05182e-21)
(0.793742 0.272866 4.56058e-21)
(0.812287 0.0789731 -5.67493e-21)
(0.836639 -0.117213 3.35599e-21)
(0.860914 -0.279427 -2.96887e-21)
(0.881183 -0.392104 2.07685e-22)
(0.892517 -0.448855 1.51809e-21)
(0.894245 -0.474433 -1.27315e-21)
(0.888162 -0.466468 4.97031e-22)
(0.875154 -0.456966 -3.56711e-22)
(0.859798 -0.430482 -3.63519e-22)
(0.828751 -0.431416 -8.7502e-23)
(0.794731 -0.421788 -1.54026e-23)
(0.746448 -0.401945 3.73658e-24)
(0.710611 -0.341262 2.16553e-23)
(0.679907 -0.208188 1.73967e-23)
(0.656415 -0.0873351 1.96536e-23)
(0.667233 0.131938 -8.20437e-24)
(0.283103 0.277086 4.68376e-20)
(0.316464 0.270257 -3.88106e-20)
(0.350536 0.258294 6.65368e-20)
(0.386468 0.24082 -2.51598e-20)
(0.42385 0.217512 2.35516e-20)
(0.462136 0.188159 -6.0914e-20)
(0.500922 0.152661 8.82512e-21)
(0.539869 0.111016 -3.71757e-21)
(0.578649 0.063259 1.50458e-20)
(0.61693 0.00935708 4.5538e-20)
(0.654746 -0.0496852 -3.71495e-20)
(0.691803 -0.114232 2.70786e-20)
(0.727673 -0.183699 1.62919e-20)
(0.762076 -0.256935 5.82188e-21)
(0.794282 -0.332072 -4.68228e-20)
(0.823144 -0.406243 2.50407e-20)
(0.847163 -0.475703 -3.58355e-20)
(0.864762 -0.536377 4.68002e-21)
(0.874701 -0.584694 -1.53835e-22)
(0.876431 -0.618392 3.41564e-20)
(0.870237 -0.636957 -2.83304e-20)
(0.857135 -0.641578 -2.68576e-21)
(0.838583 -0.634678 -3.71908e-21)
(0.81614 -0.619258 1.82157e-20)
(0.791168 -0.598282 -6.53022e-21)
(0.764642 -0.574248 -4.80382e-21)
(0.737102 -0.548997 -2.18836e-21)
(0.708634 -0.523911 8.62709e-21)
(0.67862 -0.500574 -3.11378e-21)
(0.645486 -0.481126 -3.56151e-21)
(0.607427 -0.466928 -2.86959e-21)
(0.564469 -0.455667 8.18612e-21)
(0.520371 -0.439387 -2.10263e-21)
(0.482275 -0.406266 -6.55397e-22)
(0.457721 -0.346235 -2.18343e-21)
(0.45104 -0.256508 -2.23691e-21)
(0.462164 -0.142692 2.19737e-21)
(0.488588 -0.0157959 2.3538e-21)
(0.526512 0.111322 -2.52691e-21)
(0.571431 0.227591 -3.72954e-21)
(0.618936 0.324597 4.93575e-21)
(0.664857 0.398516 -6.92232e-22)
(0.705915 0.450042 8.70313e-24)
(0.740306 0.48282 -8.45767e-22)
(0.767929 0.501215 1.48022e-21)
(0.789317 0.510325 -1.92521e-21)
(0.804273 0.517498 2.65792e-21)
(0.811508 0.531499 2.09207e-22)
(0.810918 0.555374 -3.39967e-23)
(0.804971 0.579568 -1.06303e-21)
(0.798927 0.581829 -2.14117e-21)
(0.797425 0.538134 1.03851e-21)
(0.803213 0.434386 3.92382e-21)
(0.816724 0.273617 -9.41051e-21)
(0.837099 0.0775285 7.67665e-21)
(0.861961 -0.120623 -4.4093e-21)
(0.885024 -0.283552 1.7023e-21)
(0.902674 -0.395509 8.17005e-22)
(0.910571 -0.450052 -1.43339e-21)
(0.908878 -0.473311 -1.95865e-22)
(0.899342 -0.463316 5.80438e-22)
(0.88337 -0.452432 -1.73003e-22)
(0.865921 -0.423426 1.67913e-22)
(0.833707 -0.421349 1.99805e-22)
(0.798613 -0.409767 -1.95389e-23)
(0.749359 -0.389762 -2.06795e-23)
(0.712406 -0.332321 -7.78378e-23)
(0.681889 -0.201098 1.83281e-23)
(0.658559 -0.086013 1.38072e-23)
(0.671693 0.129983 -5.05263e-24)
(0.363481 0.242125 2.38398e-20)
(0.397561 0.235465 5.46026e-20)
(0.431817 0.223932 -6.50241e-20)
(0.467541 0.207241 -2.70818e-21)
(0.504582 0.185103 1.59014e-20)
(0.542452 0.157274 -1.60067e-20)
(0.580778 0.123592 -3.55508e-20)
(0.619242 0.0839842 -7.05159e-21)
(0.65743 0.0383632 8.90218e-20)
(0.695795 -0.0131556 -2.17147e-21)
(0.733776 -0.0699043 -7.35327e-21)
(0.770595 -0.132313 -1.49701e-20)
(0.806375 -0.199504 1.40409e-20)
(0.840455 -0.270284 -1.07503e-20)
(0.871762 -0.34265 1.41526e-20)
(0.898835 -0.413615 -3.80101e-20)
(0.919956 -0.479436 -2.82966e-20)
(0.933515 -0.536197 4.10766e-20)
(0.938448 -0.580622 2.1529e-21)
(0.934541 -0.610789 -1.54364e-20)
(0.922485 -0.626463 3.16602e-20)
(0.903679 -0.62898 -6.53531e-21)
(0.87988 -0.620759 -3.54063e-21)
(0.852835 -0.604665 -1.85489e-20)
(0.82399 -0.583449 2.22583e-21)
(0.794321 -0.559377 1.19022e-20)
(0.764319 -0.534077 -4.69386e-21)
(0.73405 -0.508637 -5.68287e-21)
(0.703067 -0.484131 3.74688e-21)
(0.670072 -0.462272 -6.87921e-22)
(0.633048 -0.444936 9.59892e-22)
(0.590784 -0.431759 2.85531e-21)
(0.545197 -0.417399 -7.63346e-22)
(0.502266 -0.391511 -4.42159e-21)
(0.470038 -0.342918 4.93847e-21)
(0.454777 -0.265766 1.29064e-21)
(0.458281 -0.162755 1.94298e-21)
(0.478699 -0.0433595 -5.64959e-22)
(0.512511 0.0797082 -8.1583e-21)
(0.555216 0.195229 3.954e-21)
(0.602114 0.294194 6.73287e-22)
(0.648842 0.371986 -2.16006e-22)
(0.691823 0.42833 7.23155e-22)
(0.728942 0.465918 2.44821e-22)
(0.759758 0.488512 -5.11948e-22)
(0.7844 0.501194 2.38205e-22)
(0.802408 0.511593 5.00519e-22)
(0.81255 0.52856 -9.24604e-22)
(0.815104 0.554857 7.08616e-22)
(0.812863 0.580628 1.49276e-21)
(0.811085 0.583645 -1.63894e-21)
(0.813979 0.540186 -2.4969e-21)
(0.823683 0.43626 7.59423e-22)
(0.840232 0.274557 4.9771e-22)
(0.862529 0.0768297 9.88192e-23)
(0.887993 -0.122924 2.48478e-21)
(0.909868 -0.286322 -1.04599e-21)
(0.924815 -0.39752 -6.16108e-21)
(0.929152 -0.449967 -7.74146e-22)
(0.92397 -0.471076 -4.01446e-22)
(0.911002 -0.459198 6.04112e-22)
(0.892068 -0.447208 2.81991e-22)
(0.872559 -0.415985 -2.96418e-22)
(0.839282 -0.411042 -1.80728e-23)
(0.803302 -0.397558 7.65204e-24)
(0.753224 -0.377354 1.17665e-22)
(0.715155 -0.323365 -7.25805e-23)
(0.684834 -0.194164 8.36542e-23)
(0.66162 -0.0850366 -9.26207e-24)
(0.676928 0.127665 4.46558e-24)
(0.440782 0.207016 -4.83137e-20)
(0.475197 0.201036 5.91864e-20)
(0.509444 0.190283 8.67912e-20)
(0.544883 0.174634 -1.00281e-19)
(0.581589 0.153866 -7.09101e-20)
(0.619144 0.127698 4.83452e-20)
(0.657224 0.0959206 5.05259e-20)
(0.695564 0.0583811 7.89341e-20)
(0.733838 0.0147843 -9.1312e-20)
(0.772346 -0.0340009 -6.00704e-22)
(0.810484 -0.0886676 -7.84843e-20)
(0.847577 -0.148757 2.1007e-20)
(0.883391 -0.213387 6.26508e-20)
(0.916982 -0.281277 -4.89829e-21)
(0.946991 -0.350295 -3.52919e-20)
(0.971719 -0.417416 1.04123e-20)
(0.989356 -0.479015 1.94434e-20)
(0.998401 -0.531463 -2.99364e-20)
(0.998076 -0.571862 6.1016e-20)
(0.988553 -0.598648 -2.72998e-20)
(0.970913 -0.611827 -1.19242e-20)
(0.946878 -0.612805 2.59056e-20)
(0.918424 -0.603908 -2.20038e-20)
(0.887407 -0.587797 7.254e-21)
(0.855289 -0.566957 2.37488e-21)
(0.82301 -0.543397 5.38957e-21)
(0.790993 -0.518537 -4.21723e-21)
(0.759247 -0.493262 -4.75377e-21)
(0.727416 -0.46827 1.54197e-21)
(0.694515 -0.444746 -1.47201e-21)
(0.658682 -0.424559 7.3645e-21)
(0.617985 -0.408703 -2.83215e-21)
(0.572602 -0.394389 -4.54062e-21)
(0.526749 -0.373522 6.30331e-21)
(0.488118 -0.335024 -4.21401e-21)
(0.464456 -0.270553 -1.38223e-21)
(0.459751 -0.179472 2.6959e-21)
(0.473406 -0.0690668 -1.23977e-21)
(0.502344 0.0488514 2.53449e-21)
(0.542065 0.162688 -1.03923e-21)
(0.587632 0.262894 1.97088e-21)
(0.63452 0.344071 -4.11081e-21)
(0.678905 0.404943 2.64506e-21)
(0.718368 0.447224 1.48256e-21)
(0.752096 0.47405 -2.99993e-21)
(0.779789 0.490423 -2.66866e-22)
(0.800718 0.504122 2.45322e-21)
(0.813711 0.523993 -4.29892e-21)
(0.819403 0.552565 5.45207e-21)
(0.820878 0.57984 -1.56718e-21)
(0.823378 0.583782 7.53698e-22)
(0.830683 0.541025 -4.14254e-22)
(0.844319 0.437604 1.0328e-22)
(0.863953 0.275659 -4.62333e-21)
(0.888278 0.076845 5.59848e-21)
(0.914463 -0.124144 2.25551e-21)
(0.935222 -0.287743 9.84187e-22)
(0.947429 -0.39812 -9.60701e-23)
(0.94812 -0.448587 3.77146e-21)
(0.939406 -0.467736 -2.32593e-21)
(0.923054 -0.454134 1.53894e-21)
(0.901184 -0.441308 -1.69155e-22)
(0.87965 -0.408194 3.64657e-22)
(0.845408 -0.400552 -8.54539e-23)
(0.808727 -0.385222 3.20516e-23)
(0.757989 -0.364745 -5.80929e-23)
(0.718798 -0.314392 8.59232e-23)
(0.688678 -0.187377 -9.78767e-23)
(0.665498 -0.084369 -7.15826e-23)
(0.682833 0.12501 2.29582e-23)
(0.552733 0.167169 -2.65356e-21)
(0.586524 0.157358 -1.35501e-19)
(0.621447 0.142889 1.56783e-19)
(0.657712 0.123577 -8.15756e-20)
(0.694951 0.099104 -7.75696e-21)
(0.732842 0.0692443 7.72234e-20)
(0.770966 0.0337458 -8.33662e-20)
(0.809698 -0.00754608 -1.39883e-20)
(0.848709 -0.0539645 6.94207e-20)
(0.886809 -0.106284 -1.47863e-20)
(0.92385 -0.163735 -7.60899e-20)
(0.959214 -0.225366 1.33843e-19)
(0.991618 -0.289797 -3.63443e-20)
(1.01948 -0.354816 -5.73173e-20)
(1.04099 -0.417464 6.32179e-20)
(1.0544 -0.474358 4.63635e-21)
(1.05844 -0.522246 -2.89345e-20)
(1.05271 -0.558651 -2.92628e-20)
(1.03775 -0.582344 -2.8983e-20)
(1.01497 -0.593509 1.64754e-20)
(0.98634 -0.59354 9.14187e-21)
(0.953945 -0.584596 1.19272e-20)
(0.919671 -0.569072 -1.71162e-20)
(0.884934 -0.549157 8.07108e-21)
(0.850602 -0.526589 -1.63319e-21)
(0.817022 -0.502586 -5.38242e-21)
(0.784142 -0.47789 3.15993e-21)
(0.75163 -0.452961 9.7258e-23)
(0.718763 -0.428516 -4.60899e-21)
(0.684038 -0.406068 1.63597e-21)
(0.645327 -0.387281 2.45133e-21)
(0.601476 -0.371524 -1.42286e-21)
(0.554688 -0.353359 7.17813e-22)
(0.511398 -0.32296 1.81577e-21)
(0.480031 -0.270529 -3.05408e-21)
(0.466742 -0.192105 1.64413e-21)
(0.472829 -0.0920092 2.1747e-21)
(0.496058 0.019407 -1.94132e-21)
(0.531998 0.13044 2.84368e-22)
(0.575512 0.231063 -2.54117e-21)
(0.621919 0.315033 1.35782e-21)
(0.66718 0.380052 8.28114e-22)
(0.708577 0.426843 3.45281e-22)
(0.744904 0.457895 -1.49614e-21)
(0.775412 0.478049 -6.13994e-22)
(0.799103 0.4951 4.44076e-21)
(0.814858 0.517806 4.89331e-22)
(0.823641 0.548506 -3.23145e-21)
(0.828796 0.577212 1.39689e-22)
(0.835544 0.582233 -1.2578e-21)
(0.847242 0.540624 1.49158e-21)
(0.8648 0.438368 1.31952e-21)
(0.887563 0.27688 3.29963e-21)
(0.914041 0.0774595 -2.91501e-21)
(0.941113 -0.124344 -3.00717e-22)
(0.960862 -0.287841 -3.52648e-21)
(0.97033 -0.397307 1.61633e-22)
(0.967327 -0.445912 -2.69611e-22)
(0.955064 -0.463312 4.27188e-22)
(0.935405 -0.448151 -9.24617e-22)
(0.910649 -0.434749 -6.39387e-22)
(0.887131 -0.400086 9.64316e-23)
(0.852017 -0.389931 -1.75265e-23)
(0.814806 -0.372821 -1.55307e-22)
(0.763594 -0.351961 -7.48735e-24)
(0.723274 -0.305394 1.05289e-22)
(0.69336 -0.180721 1.09488e-22)
(0.670099 -0.0839699 -4.90302e-23)
(0.689311 0.122041 -1.57428e-23)
(0.636282 0.134582 -6.69968e-20)
(0.668695 0.125608 3.35006e-20)
(0.702393 0.112262 -2.21794e-20)
(0.737632 0.0943356 -2.27238e-20)
(0.774089 0.071493 5.04291e-21)
(0.81144 0.0434873 -4.38122e-21)
(0.849185 0.00978778 1.20322e-20)
(0.887648 -0.0287124 7.24319e-20)
(0.926225 -0.0728405 -1.15067e-19)
(0.963762 -0.122558 8.91873e-20)
(0.999924 -0.176922 2.89119e-20)
(1.03374 -0.235019 -1.42754e-19)
(1.06375 -0.295376 1.33981e-19)
(1.08827 -0.35579 -5.29031e-20)
(1.10553 -0.413478 1.61692e-21)
(1.11397 -0.465387 2.89368e-20)
(1.11267 -0.508694 -4.64777e-20)
(1.10158 -0.54133 1.8461e-20)
(1.08157 -0.562355 -3.60645e-20)
(1.0543 -0.572052 -9.22928e-21)
(1.02183 -0.571733 4.60687e-20)
(0.986308 -0.563327 -6.73902e-21)
(0.949544 -0.548922 3.24532e-21)
(0.912863 -0.530396 7.44256e-21)
(0.877034 -0.50922 -3.2613e-21)
(0.842328 -0.48642 -6.26024e-21)
(0.808643 -0.462625 -5.69707e-21)
(0.775649 -0.438176 5.5542e-21)
(0.742792 -0.413457 -3.43526e-22)
(0.708977 -0.389494 -2.43653e-21)
(0.672283 -0.368016 7.06274e-22)
(0.6308 -0.349868 1.75382e-21)
(0.584858 -0.332262 -3.43909e-21)
(0.538979 -0.307528 7.32398e-22)
(0.501217 -0.265687 1.25719e-21)
(0.479412 -0.200033 6.00352e-22)
(0.477187 -0.111409 -2.11321e-21)
(0.493742 -0.00783694 -8.90151e-23)
(0.525035 0.0990193 -3.95599e-22)
(0.56577 0.199095 2.25051e-21)
(0.611057 0.285157 -1.42696e-21)
(0.656658 0.353853 -1.22804e-22)
(0.699556 0.404903 1.04953e-21)
(0.738138 0.440134 1.66123e-22)
(0.771195 0.464127 -1.65211e-21)
(0.797463 0.484562 3.31671e-21)
(0.815861 0.510031 4.12686e-23)
(0.827648 0.542716 -3.53891e-21)
(0.836406 0.572776 3.08653e-21)
(0.847331 0.579012 -1.44568e-21)
(0.863369 0.538967 -1.1412e-21)
(0.884816 0.438502 -1.39513e-21)
(0.91073 0.278128 4.15592e-21)
(0.939525 0.0786751 -8.00135e-21)
(0.967693 -0.123571 1.97115e-21)
(0.98656 -0.286657 -1.14795e-21)
(0.993326 -0.395098 3.99526e-21)
(0.986622 -0.441951 1.90926e-21)
(0.970819 -0.457831 -1.63713e-21)
(0.947957 -0.441286 6.97431e-22)
(0.920395 -0.427553 6.96134e-22)
(0.894934 -0.39169 -1.94901e-22)
(0.859038 -0.379229 4.61788e-23)
(0.821458 -0.360419 2.14526e-23)
(0.76998 -0.339034 -4.68102e-23)
(0.728526 -0.296365 4.44571e-24)
(0.698823 -0.174177 -8.07033e-23)
(0.675335 -0.0837929 -1.22126e-23)
(0.696267 0.118784 -1.68827e-23)
(0.731651 0.104685 3.75557e-20)
(0.761316 0.0962059 -3.9815e-20)
(0.792536 0.0837217 1.23891e-20)
(0.825546 0.0669476 3.80244e-20)
(0.86004 0.0455596 -7.65208e-20)
(0.895425 0.0190904 2.1108e-20)
(0.932005 -0.0122791 1.23546e-19)
(0.969313 -0.0482798 -3.76866e-20)
(1.00589 -0.0899606 -8.00715e-20)
(1.04138 -0.136668 7.11349e-20)
(1.07512 -0.187499 -2.125e-20)
(1.10583 -0.241555 5.88099e-20)
(1.13198 -0.297328 -7.58066e-20)
(1.15189 -0.352724 -8.29009e-20)
(1.16397 -0.405219 1.34827e-19)
(1.16695 -0.452141 -1.20025e-19)
(1.16024 -0.491094 6.93877e-20)
(1.14412 -0.520376 5.00951e-20)
(1.11968 -0.539263 -9.30141e-20)
(1.08871 -0.548072 6.5437e-20)
(1.0533 -0.547969 -2.96687e-20)
(1.0155 -0.540614 -1.7988e-20)
(0.977033 -0.527771 6.69444e-21)
(0.939073 -0.511003 2.98444e-20)
(0.902277 -0.491531 -3.05982e-20)
(0.86685 -0.470206 2.4633e-20)
(0.832662 -0.447568 2.9282e-21)
(0.799384 -0.423902 -4.70628e-21)
(0.766566 -0.399411 -9.44357e-21)
(0.73345 -0.374679 2.46709e-21)
(0.698544 -0.35111 2.31991e-21)
(0.659757 -0.33026 -1.90017e-21)
(0.616011 -0.311531 1.13023e-21)
(0.569662 -0.289899 -5.92564e-22)
(0.527385 -0.25648 3.54635e-22)
(0.497764 -0.202897 -3.69114e-22)
(0.486807 -0.126533 3.22868e-22)
(0.495624 -0.0323739 1.62805e-22)
(0.521223 0.0689827 -3.64782e-22)
(0.558436 0.167425 8.28632e-22)
(0.60195 0.254756 -1.02273e-21)
(0.647342 0.326565 -4.15807e-22)
(0.691285 0.381559 5.97855e-23)
(0.731749 0.420873 -1.56639e-22)
(0.767062 0.448729 -9.71988e-22)
(0.795696 0.472564 2.3743e-21)
(0.816592 0.500719 -5.7033e-22)
(0.831263 0.535255 -1.87274e-21)
(0.843512 0.566587 -3.99844e-21)
(0.858512 0.57415 6.9645e-21)
(0.878799 0.53605 1.44442e-22)
(0.90407 0.437962 8.66762e-21)
(0.933185 0.279313 -1.77105e-20)
(0.964473 0.0803983 1.20213e-20)
(0.993941 -0.12191 2.15291e-21)
(1.01209 -0.284249 -2.42376e-21)
(1.01622 -0.39152 3.22418e-21)
(1.00585 -0.436728 -4.0921e-21)
(0.986543 -0.451332 1.36152e-22)
(0.960612 -0.433584 -2.04684e-22)
(0.930351 -0.419746 -8.09778e-22)
(0.902993 -0.383034 1.01812e-22)
(0.866401 -0.368491 1.59404e-23)
(0.828596 -0.348078 -1.29125e-22)
(0.777079 -0.325999 -2.09286e-23)
(0.734491 -0.287298 -5.21685e-23)
(0.705015 -0.167721 1.71641e-22)
(0.681126 -0.0837856 -1.107e-22)
(0.703616 0.115264 1.8423e-23)
(0.865439 0.0708624 -4.05978e-20)
(0.892758 0.0588449 5.21621e-20)
(0.922055 0.0429136 -1.0941e-19)
(0.952994 0.0227488 1.59656e-20)
(0.985313 -0.00206514 5.0394e-20)
(1.01889 -0.0309612 -2.51225e-20)
(1.05274 -0.0649947 -1.59996e-20)
(1.08583 -0.104063 2.21049e-20)
(1.11764 -0.147422 2.01259e-20)
(1.14726 -0.194394 -6.79499e-20)
(1.17328 -0.244075 -4.62338e-20)
(1.19422 -0.295002 1.12041e-19)
(1.20856 -0.345268 -1.03192e-19)
(1.21492 -0.392654 -1.01477e-20)
(1.21235 -0.434875 1.67367e-20)
(1.20054 -0.469924 7.11733e-20)
(1.18001 -0.496402 2.25325e-20)
(1.15198 -0.513737 -2.9283e-20)
(1.11825 -0.522222 -1.869e-20)
(1.08083 -0.522839 4.25959e-21)
(1.04165 -0.516957 4.94234e-21)
(1.00223 -0.506013 9.55107e-21)
(0.963607 -0.491273 4.17885e-21)
(0.92633 -0.473728 1.2154e-21)
(0.890541 -0.45408 -6.85609e-21)
(0.856109 -0.432794 -8.11487e-21)
(0.82273 -0.410135 -2.49832e-21)
(0.790016 -0.386234 9.4372e-21)
(0.757442 -0.361371 -1.96536e-21)
(0.72398 -0.336478 -5.86924e-21)
(0.687793 -0.313176 3.52321e-21)
(0.647031 -0.292316 -1.53358e-21)
(0.602071 -0.271476 3.714e-22)
(0.557517 -0.24385 1.22362e-22)
(0.521509 -0.200757 1.08805e-23)
(0.501833 -0.136766 1.96468e-22)
(0.502061 -0.0534297 -4.07368e-22)
(0.5209 0.0410494 4.01077e-22)
(0.553621 0.136562 -1.3409e-22)
(0.594631 0.224187 -2.61153e-23)
(0.639231 0.298439 4.57362e-22)
(0.683736 0.356992 -3.17497e-22)
(0.725679 0.40024 -6.43166e-22)
(0.76293 0.431944 1.28306e-21)
(0.7937 0.459174 -1.01325e-21)
(0.816925 0.489944 7.09599e-22)
(0.83434 0.526202 -3.28165e-21)
(0.849943 0.558719 3.33701e-21)