/*--------------------------------*- C++ -*----------------------------------*\
  =========                 |
  \\      /  F ield         | OpenFOAM: The Open Source CFD Toolbox
   \\    /   O peration     | Website:  https://openfoam.org
    \\  /    A nd           | Version:  7
     \\/     M anipulation  |
\*---------------------------------------------------------------------------*/
FoamFile
{
    version     2.0;
    format      ascii;
    class       volVectorField;
    location    "3.2";
    object      U;
}
// * * * * * * * * * * * * * * * * * * * * * * * * * * * * * * * * * * * * * //

dimensions      [0 1 -1 0 0 0 0];

internalField   nonuniform List<vector> 
120340
(
(1 -2.17079e-06 3.44238e-16)
(1.00001 -6.48746e-06 8.16859e-17)
(1.00004 -1.07753e-05 -2.31323e-16)
(1.00008 -1.50559e-05 3.6673e-16)
(1.00013 -1.93314e-05 -5.59743e-16)
(1.00019 -2.35908e-05 -3.76464e-16)
(1.00027 -2.78239e-05 -2.74223e-16)
(1.00036 -3.20249e-05 -3.41701e-16)
(1.00046 -3.61912e-05 -3.04306e-16)
(1.00058 -4.03203e-05 -1.15042e-16)
(1.0007 -4.44089e-05 -3.15511e-16)
(1.00084 -4.84532e-05 -9.90721e-16)
(1.00099 -5.24491e-05 1.49278e-16)
(1.00116 -5.63929e-05 -1.00446e-15)
(1.00133 -6.02811e-05 1.36406e-15)
(1.00152 -6.41103e-05 1.87389e-15)
(1.00172 -6.78774e-05 2.58062e-16)
(1.00193 -7.15796e-05 2.30141e-15)
(1.00215 -7.5214e-05 2.61905e-15)
(1.00238 -7.87779e-05 5.20044e-16)
(1.00262 -8.22689e-05 3.01351e-15)
(1.00287 -8.56848e-05 2.61716e-15)
(1.00313 -8.90235e-05 1.91666e-15)
(1.00341 -9.2283e-05 1.30937e-15)
(1.00369 -9.54618e-05 8.8006e-16)
(1.00398 -9.85582e-05 9.87231e-16)
(1.00428 -0.000101571 6.04781e-16)
(1.00459 -0.000104499 5.99223e-16)
(1.00491 -0.000107341 8.08289e-16)
(1.00523 -0.000110097 5.65348e-16)
(1.00557 -0.000112766 4.28962e-16)
(1.00591 -0.000115347 -9.29086e-17)
(1.00626 -0.00011784 5.11082e-16)
(1.00662 -0.000120246 1.37541e-16)
(1.00698 -0.000122564 -2.80754e-16)
(1.00735 -0.000124794 -2.50735e-17)
(1.00773 -0.000126937 -6.57143e-16)
(1.00811 -0.000128993 -3.69921e-16)
(1.0085 -0.000130963 -7.42037e-16)
(1.0089 -0.000132847 -4.76972e-16)
(1.0093 -0.000134647 -3.91539e-16)
(1.00971 -0.000136363 -4.71787e-16)
(1.01012 -0.000137997 -7.45905e-16)
(1.01054 -0.00013955 -6.26499e-17)
(1.01096 -0.000141022 -1.65803e-15)
(1.01138 -0.000142416 4.33555e-16)
(1.01181 -0.000143732 -2.91355e-15)
(1.01225 -0.000144973 -2.0759e-15)
(1.01268 -0.000146139 -2.07739e-15)
(1.01312 -0.000147232 -1.71461e-15)
(1.01357 -0.000148254 -1.42797e-15)
(1.01401 -0.000149207 -1.57154e-15)
(1.01446 -0.000150092 -1.1002e-15)
(1.01491 -0.000150911 -1.48485e-15)
(1.01537 -0.000151666 -7.01571e-16)
(1.01582 -0.000152358 -9.52969e-16)
(1.01628 -0.000152989 -6.71839e-16)
(1.01674 -0.000153562 -5.66337e-16)
(1.0172 -0.000154078 -9.00029e-16)
(1.01767 -0.000154538 -7.63628e-16)
(1.01813 -0.000154945 -8.07033e-16)
(1.0186 -0.0001553 -1.2584e-15)
(1.01906 -0.000155605 -7.37454e-16)
(1.01953 -0.000155862 -4.82959e-16)
(1.02 -0.000156073 -5.76801e-16)
(1.02047 -0.000156238 -1.20261e-15)
(1.02094 -0.000156361 -6.56539e-16)
(1.02141 -0.000156443 -1.08374e-15)
(1.02188 -0.000156485 -5.69208e-16)
(1.02235 -0.000156489 -5.45989e-16)
(1.02282 -0.000156456 -5.87496e-17)
(1.02328 -0.000156389 -7.19416e-16)
(1.02375 -0.000156288 -5.80745e-16)
(1.02422 -0.000156155 -1.83888e-16)
(1.02469 -0.000155992 5.39047e-17)
(1.02516 -0.000155799 -7.67938e-16)
(1.02563 -0.000155579 -5.37604e-16)
(1.02609 -0.000155333 -7.28502e-16)
(1.02656 -0.000155062 -3.60396e-16)
(1.02702 -0.000154767 -3.22367e-16)
(1.02749 -0.00015445 -2.1936e-16)
(1.02795 -0.000154111 -1.89627e-17)
(1.02841 -0.000153752 -1.42778e-16)
(1.02887 -0.000153375 -3.83521e-16)
(1.02933 -0.000152979 -7.448e-16)
(1.02979 -0.000152566 -2.96628e-16)
(1.03025 -0.000152138 -2.30212e-16)
(1.0307 -0.000151694 1.0875e-17)
(1.03116 -0.000151237 -4.47699e-16)
(1.03161 -0.000150767 -1.63025e-16)
(1.03206 -0.000150284 -5.97744e-16)
(1.03251 -0.00014979 -5.04796e-16)
(1.03296 -0.000149286 -5.76942e-16)
(1.03341 -0.000148772 -6.92237e-16)
(1.03386 -0.000148249 -4.39304e-16)
(1.0343 -0.000147717 -4.63847e-16)
(1.03474 -0.000147178 -6.16845e-16)
(1.03518 -0.000146632 -4.67839e-16)
(1.03562 -0.00014608 3.10254e-17)
(1.03606 -0.000145521 -2.51871e-16)
(1.0365 -0.000144958 -1.33958e-16)
(1.03693 -0.00014439 -8.85399e-17)
(1.03736 -0.000143818 -1.50547e-16)
(1.03779 -0.000143242 -1.23817e-16)
(1.03822 -0.000142663 2.12841e-16)
(1.03865 -0.000142082 -3.74048e-16)
(1.03908 -0.000141498 6.25771e-17)
(1.0395 -0.000140912 3.90372e-16)
(1.03992 -0.000140325 3.80762e-16)
(1.04034 -0.000139737 7.87033e-16)
(1.04076 -0.000139148 -3.74116e-17)
(1.04118 -0.000138559 5.51711e-16)
(1.04159 -0.000137969 4.01061e-16)
(1.04201 -0.00013738 5.11193e-16)
(1.04242 -0.000136791 5.56685e-16)
(1.04283 -0.000136203 9.54272e-16)
(1.04323 -0.000135615 1.61969e-16)
(1.04364 -0.000135029 1.43394e-15)
(1.04404 -0.000134445 5.71311e-16)
(1.04445 -0.000133862 1.2556e-15)
(1.04485 -0.000133281 6.06294e-16)
(1.04525 -0.000132701 1.1202e-15)
(1.04564 -0.000132124 7.42731e-16)
(1.04604 -0.00013155 9.00408e-16)
(1.04643 -0.000130978 8.58373e-16)
(1.04683 -0.000130408 1.40516e-15)
(1.04722 -0.000129841 1.2138e-15)
(1.04761 -0.000129277 1.41516e-15)
(1.04799 -0.000128716 8.05614e-16)
(1.04838 -0.000128158 8.68351e-16)
(1.04876 -0.000127603 1.12317e-15)
(1.04914 -0.000127052 1.29378e-15)
(1.04952 -0.000126503 8.98011e-16)
(1.0499 -0.000125959 1.00285e-15)
(1.05028 -0.000125417 1.09933e-15)
(1.05066 -0.000124879 1.27731e-15)
(1.05103 -0.000124345 1.92015e-15)
(1.0514 -0.000123814 1.45023e-15)
(1.05177 -0.000123287 1.40069e-15)
(1.05214 -0.000122763 1.05351e-15)
(1.05251 -0.000122244 7.51325e-16)
(1.05288 -0.000121728 1.05215e-15)
(1.05324 -0.000121215 1.92406e-15)
(1.0536 -0.000120707 1.14947e-15)
(1.05397 -0.000120202 1.90447e-15)
(1.05433 -0.000119701 1.22042e-15)
(1.05468 -0.000119204 1.47329e-15)
(1.05504 -0.000118711 1.11067e-15)
(1.0554 -0.000118221 1.90103e-15)
(1.05575 -0.000117736 1.65562e-15)
(1.0561 -0.000117254 1.32501e-15)
(1.05645 -0.000116776 1.98972e-15)
(1.0568 -0.000116301 1.54871e-15)
(1.05715 -0.000115831 2.00221e-15)
(1.0575 -0.000115364 1.84375e-15)
(1.05785 -0.0001149 1.45232e-15)
(1.05819 -0.000114441 2.15826e-15)
(1.05853 -0.000113985 2.06139e-15)
(1.05887 -0.000113533 1.91989e-15)
(1.05921 -0.000113084 1.81063e-15)
(1.05955 -0.000112639 1.53425e-15)
(1.05989 -0.000112198 2.36153e-15)
(1.06023 -0.00011176 1.53497e-15)
(1.06056 -0.000111326 1.35797e-15)
(1.06089 -0.000110895 1.51366e-15)
(1.06123 -0.000110467 1.50494e-15)
(1.06156 -0.000110043 1.40404e-15)
(1.06189 -0.000109622 1.83947e-15)
(1.06221 -0.000109205 1.92337e-15)
(1.06254 -0.000108791 1.78791e-15)
(1.06287 -0.00010838 1.83404e-15)
(1.06319 -0.000107972 1.6037e-15)
(1.06352 -0.000107568 1.69271e-15)
(1.06384 -0.000107166 2.1284e-15)
(1.06416 -0.000106768 1.97484e-15)
(1.06448 -0.000106373 2.28329e-15)
(1.0648 -0.000105981 1.98642e-15)
(1.06512 -0.000105592 1.70559e-15)
(1.06543 -0.000105206 1.74052e-15)
(1.06575 -0.000104822 2.14806e-15)
(1.06606 -0.000104442 1.3092e-15)
(1.06637 -0.000104064 2.04056e-15)
(1.06669 -0.000103689 1.40159e-15)
(1.067 -0.000103317 1.92018e-15)
(1.06731 -0.000102947 2.02047e-15)
(1.06761 -0.00010258 2.10827e-15)
(1.06792 -0.000102216 2.30882e-15)
(1.06823 -0.000101855 2.08514e-15)
(1.06853 -0.000101495 2.06286e-15)
(1.06884 -0.000101139 1.74378e-15)
(1.06914 -0.000100784 1.84411e-15)
(1.06944 -0.000100432 1.61528e-15)
(1.06974 -0.000100083 1.62532e-15)
(1.07004 -9.97355e-05 1.38666e-15)
(1.07034 -9.93905e-05 1.96133e-15)
(1.07064 -9.90477e-05 2.46867e-15)
(1.07094 -9.87071e-05 1.8597e-15)
(1.07123 -9.83687e-05 2.49963e-15)
(1.07153 -9.80323e-05 1.2875e-15)
(1.07182 -9.76979e-05 2.48123e-15)
(1.07211 -9.73656e-05 3.67354e-16)
(1.0724 -9.70353e-05 3.89557e-15)
(1.07269 -9.67069e-05 2.4475e-15)
(1.07298 -9.63804e-05 3.69063e-15)
(1.07327 -9.60557e-05 1.60188e-15)
(1.07356 -9.57328e-05 4.05018e-15)
(1.07385 -9.54117e-05 2.74832e-15)
(1.07413 -9.50924e-05 4.37857e-15)
(1.07442 -9.47747e-05 1.47019e-15)
(1.0747 -9.44587e-05 4.46329e-15)
(1.07499 -9.41443e-05 2.71685e-15)
(1.07527 -9.38315e-05 3.56687e-15)
(1.07555 -9.35202e-05 1.37658e-15)
(1.07583 -9.32104e-05 4.05853e-15)
(1.07611 -9.29021e-05 2.78088e-15)
(1.07639 -9.25952e-05 3.30603e-15)
(1.07666 -9.22897e-05 1.5337e-15)
(1.07694 -9.19855e-05 4.19916e-15)
(1.07722 -9.16827e-05 2.76185e-15)
(1.07749 -9.13811e-05 3.36696e-15)
(1.07776 -9.10808e-05 1.36544e-15)
(1.07804 -9.07817e-05 3.39963e-15)
(1.07831 -9.04837e-05 3.65405e-15)
(1.07858 -9.01869e-05 1.80645e-15)
(1.07885 -8.98912e-05 2.93711e-15)
(1.07912 -8.95965e-05 1.3088e-15)
(1.07939 -8.93029e-05 3.57316e-15)
(1.07966 -8.90103e-05 2.65353e-15)
(1.07992 -8.87187e-05 3.05741e-15)
(1.08019 -8.8428e-05 3.7277e-16)
(1.08045 -8.81382e-05 3.33678e-15)
(1.08072 -8.78492e-05 2.44456e-15)
(1.08098 -8.75611e-05 3.13158e-15)
(1.08124 -8.72738e-05 1.08466e-15)
(1.0815 -8.69873e-05 3.95946e-15)
(1.08177 -8.67015e-05 2.19195e-15)
(1.08203 -8.64164e-05 2.9762e-15)
(1.08228 -8.6132e-05 7.0115e-16)
(1.08254 -8.58483e-05 3.88295e-15)
(1.0828 -8.55652e-05 2.84455e-15)
(1.08306 -8.52826e-05 3.13736e-15)
(1.08331 -8.50007e-05 6.17278e-16)
(1.08357 -8.47192e-05 3.114e-15)
(1.08382 -8.44383e-05 2.24605e-15)
(1.08407 -8.41578e-05 2.60571e-15)
(1.08432 -8.38778e-05 1.12865e-15)
(1.08458 -8.35983e-05 2.88596e-15)
(1.08483 -8.33191e-05 3.63641e-15)
(1.08508 -8.30403e-05 1.82773e-15)
(1.08532 -8.27618e-05 2.36021e-15)
(1.08557 -8.24837e-05 -3.16618e-17)
(1.08582 -8.22059e-05 2.87349e-15)
(1.08607 -8.19283e-05 1.96235e-15)
(1.08631 -8.1651e-05 2.5598e-15)
(1.08656 -8.13739e-05 7.22945e-16)
(1.0868 -8.1097e-05 3.29597e-15)
(1.08704 -8.08203e-05 2.11175e-15)
(1.08729 -8.05437e-05 3.05771e-15)
(1.08753 -8.02673e-05 8.24949e-16)
(1.08777 -7.9991e-05 3.29325e-15)
(1.08801 -7.97148e-05 1.35032e-15)
(1.08825 -7.94386e-05 2.71132e-15)
(1.08848 -7.91625e-05 6.1991e-16)
(1.08872 -7.88865e-05 3.39234e-15)
(1.08896 -7.86105e-05 1.69136e-15)
(1.08919 -7.83344e-05 2.65795e-15)
(1.08943 -7.80584e-05 -1.96062e-16)
(1.08966 -7.77823e-05 3.46719e-15)
(1.08989 -7.75062e-05 8.63532e-16)
(1.09013 -7.723e-05 3.53967e-15)
(1.09036 -7.69537e-05 1.87267e-15)
(1.09059 -7.66773e-05 3.43725e-15)
(1.09082 -7.64008e-05 3.46491e-15)
(1.09105 -7.61242e-05 2.01719e-15)
(1.09127 -7.58474e-05 3.23129e-15)
(1.0915 -7.55706e-05 -4.26881e-17)
(1.09173 -7.52935e-05 3.57161e-15)
(1.09195 -7.50163e-05 9.60968e-16)
(1.09218 -7.47389e-05 4.19907e-15)
(1.0924 -7.44613e-05 1.17997e-15)
(1.09263 -7.41836e-05 4.046e-15)
(1.09285 -7.39056e-05 2.64397e-15)
(1.09307 -7.36274e-05 3.34878e-15)
(1.09329 -7.33491e-05 1.389e-15)
(1.09351 -7.30705e-05 3.62528e-15)
(1.09373 -7.27916e-05 1.57322e-15)
(1.09395 -7.25126e-05 2.97355e-15)
(1.09416 -7.22333e-05 6.58407e-16)
(1.09438 -7.19539e-05 3.62162e-15)
(1.0946 -7.16741e-05 1.69199e-15)
(1.09481 -7.13942e-05 3.43568e-15)
(1.09502 -7.1114e-05 2.4914e-16)
(1.09524 -7.08337e-05 3.32369e-15)
(1.09545 -7.05531e-05 1.22106e-15)
(1.09566 -7.02722e-05 3.75915e-15)
(1.09587 -6.99912e-05 2.05928e-15)
(1.09608 -6.971e-05 3.14554e-15)
(1.09629 -6.94286e-05 3.45035e-15)
(1.0965 -6.9147e-05 2.13759e-15)
(1.0967 -6.88652e-05 2.56419e-15)
(1.09691 -6.85833e-05 1.0117e-16)
(1.09712 -6.83012e-05 4.20145e-15)
(1.09732 -6.80191e-05 1.24934e-15)
(1.09752 -6.77367e-05 4.54052e-15)
(1.09773 -6.74543e-05 2.44601e-15)
(1.09793 -6.71718e-05 4.12728e-15)
(1.09813 -6.68892e-05 2.75815e-15)
(1.09833 -6.66065e-05 3.24494e-15)
(1.09853 -6.63239e-05 1.04187e-15)
(1.09873 -6.60412e-05 3.862e-15)
(1.09893 -6.57586e-05 2.15763e-15)
(1.09912 -6.5476e-05 2.99893e-15)
(1.09932 -6.51934e-05 3.37476e-16)
(1.09951 -6.4911e-05 2.8286e-15)
(1.09971 -6.46287e-05 1.50341e-15)
(1.0999 -6.43466e-05 2.86203e-15)
(1.1001 -6.40646e-05 5.53104e-16)
(1.10029 -6.37829e-05 3.29454e-15)
(1.10048 -6.35015e-05 8.54955e-16)
(1.10067 -6.32203e-05 3.91708e-15)
(1.10086 -6.29395e-05 1.65151e-15)
(1.10105 -6.26591e-05 3.45383e-15)
(1.10123 -6.23791e-05 2.75599e-15)
(1.10142 -6.20996e-05 1.64917e-15)
(1.10161 -6.18206e-05 3.1365e-15)
(1.10179 -6.15421e-05 2.7132e-16)
(1.10198 -6.12643e-05 3.70626e-15)
(1.10216 -6.09871e-05 8.04375e-16)
(1.10234 -6.07106e-05 4.11839e-15)
(1.10252 -6.0435e-05 1.24524e-15)
(1.1027 -6.01601e-05 4.06311e-15)
(1.10288 -5.98861e-05 2.28198e-15)
(1.10306 -5.96131e-05 2.96708e-15)
(1.10324 -5.93411e-05 7.75819e-16)
(1.10342 -5.90701e-05 3.25094e-15)
(1.1036 -5.88003e-05 2.10574e-15)
(1.10377 -5.85317e-05 2.55144e-15)
(1.10395 -5.82644e-05 9.43464e-16)
(1.10412 -5.79985e-05 3.08466e-15)
(1.1043 -5.77339e-05 1.59555e-15)
(1.10447 -5.74709e-05 3.07272e-15)
(1.10464 -5.72095e-05 5.9558e-16)
(1.10481 -5.69497e-05 3.69335e-15)
(1.10498 -5.66917e-05 1.09341e-15)
(1.10515 -5.64355e-05 3.45371e-15)
(1.10532 -5.61812e-05 1.98704e-15)
(1.10549 -5.5929e-05 3.34644e-15)
(1.10566 -5.56788e-05 3.20357e-15)
(1.10582 -5.54309e-05 1.72926e-15)
(1.10599 -5.51852e-05 2.86673e-15)
(1.10616 -5.4942e-05 2.33648e-16)
(1.10632 -5.47012e-05 3.46265e-15)
(1.10648 -5.44631e-05 8.42249e-16)
(1.10665 -5.42277e-05 3.85556e-15)
(1.10681 -5.39951e-05 1.23292e-15)
(1.10697 -5.37654e-05 3.52393e-15)
(1.10713 -5.35388e-05 2.36408e-15)
(1.10729 -5.33154e-05 3.01095e-15)
(1.10745 -5.30953e-05 1.10791e-15)
(1.10761 -5.28785e-05 3.27385e-15)
(1.10777 -5.26654e-05 1.91182e-15)
(1.10793 -5.24559e-05 2.5673e-15)
(1.10808 -5.22502e-05 6.78063e-16)
(1.10824 -5.20484e-05 3.17682e-15)
(1.1084 -5.18507e-05 1.82142e-15)
(1.10855 -5.16573e-05 2.72651e-15)
(1.10871 -5.14682e-05 1.1775e-16)
(1.10886 -5.12836e-05 3.34023e-15)
(1.10901 -5.11037e-05 9.6568e-16)
(1.10917 -5.09286e-05 3.3435e-15)
(1.10932 -5.07585e-05 1.97231e-15)
(1.10947 -5.05935e-05 2.95112e-15)
(1.10962 -5.04338e-05 2.95072e-15)
(1.10978 -5.02796e-05 1.54466e-15)
(1.10993 -5.0131e-05 2.98695e-15)
(1.11008 -4.99882e-05 2.5058e-16)
(1.11023 -4.98514e-05 3.38874e-15)
(1.11038 -4.97209e-05 7.22431e-16)
(1.11052 -4.95967e-05 3.71548e-15)
(1.11067 -4.9479e-05 1.30062e-15)
(1.11082 -4.93681e-05 3.66794e-15)
(1.11097 -4.92641e-05 2.45431e-15)
(1.11112 -4.91673e-05 2.96738e-15)
(1.11126 -4.90779e-05 8.21729e-16)
(1.11141 -4.89961e-05 3.08837e-15)
(1.11156 -4.89221e-05 1.70968e-15)
(1.11171 -4.88561e-05 2.75102e-15)
(1.11185 -4.87983e-05 6.05172e-16)
(1.112 -4.87491e-05 3.01855e-15)
(1.11214 -4.87086e-05 1.7241e-15)
(1.11229 -4.8677e-05 2.47269e-15)
(1.11244 -4.86547e-05 1.07559e-16)
(1.11258 -4.86419e-05 3.20146e-15)
(1.11273 -4.86389e-05 7.79194e-16)
(1.11287 -4.86458e-05 3.53439e-15)
(1.11302 -4.86631e-05 1.6689e-15)
(1.11317 -4.8691e-05 3.07885e-15)
(1.11331 -4.87298e-05 2.52641e-15)
(1.11346 -4.87797e-05 2.0041e-15)
(1.11361 -4.88412e-05 1.9586e-15)
(1.11375 -4.89144e-05 1.06292e-15)
(1.1139 -4.89998e-05 1.87398e-15)
(1.11405 -4.90976e-05 -1.50687e-16)
(1.11419 -4.92083e-05 -4.25965e-16)
(1.11434 -4.93321e-05 5.1921e-16)
(1.11449 -4.94694e-05 -8.35366e-16)
(1.11464 -4.96207e-05 1.61877e-15)
(1.11479 -4.97862e-05 1.10097e-15)
(1.11494 -4.99663e-05 9.46106e-16)
(1.11509 -5.01616e-05 6.08266e-16)
(1.11524 -5.03723e-05 7.8304e-16)
(1.11539 -5.05989e-05 -1.68998e-16)
(1.11554 -5.08418e-05 7.6187e-16)
(1.11569 -5.11016e-05 -3.30714e-16)
(1.11585 -5.13786e-05 1.36271e-15)
(1.116 -5.16733e-05 1.41883e-15)
(1.11616 -5.19863e-05 6.06095e-16)
(1.11632 -5.2318e-05 1.28881e-15)
(1.11647 -5.26689e-05 -5.09666e-16)
(1.11663 -5.30396e-05 -8.64014e-16)
(1.11679 -5.34307e-05 2.22659e-16)
(1.11695 -5.38427e-05 -1.19896e-15)
(1.11711 -5.42762e-05 1.11469e-15)
(1.11728 -5.47317e-05 8.67151e-16)
(1.11744 -5.521e-05 1.12653e-15)
(1.11761 -5.57117e-05 1.4008e-16)
(1.11778 -5.62373e-05 1.0708e-15)
(1.11795 -5.67877e-05 -6.33719e-16)
(1.11812 -5.73635e-05 -1.08514e-15)
(1.11829 -5.79654e-05 3.91029e-17)
(1.11847 -5.85942e-05 -1.21382e-15)
(1.11864 -5.92506e-05 1.01571e-15)
(1.11882 -5.99354e-05 7.46872e-16)
(1.119 -6.06495e-05 6.62064e-16)
(1.11919 -6.13936e-05 2.50317e-16)
(1.11937 -6.21688e-05 4.41588e-16)
(1.11956 -6.29757e-05 4.08431e-17)
(1.11975 -6.38154e-05 3.51958e-16)
(1.11994 -6.46888e-05 -6.84786e-16)
(1.12014 -6.55969e-05 1.1022e-15)
(1.12033 -6.65407e-05 9.38811e-16)
(1.12054 -6.75212e-05 3.17133e-16)
(1.12074 -6.85395e-05 1.16272e-15)
(1.12095 -6.95967e-05 -4.72483e-16)
(1.12116 -7.06939e-05 -1.00443e-15)
(1.12137 -7.18323e-05 1.26465e-16)
(1.12159 -7.30131e-05 -1.32503e-15)
(1.12181 -7.42376e-05 1.24008e-15)
(1.12203 -7.55069e-05 6.40947e-16)
(1.12226 -7.68225e-05 7.60461e-16)
(1.1225 -7.81857e-05 -1.41985e-16)
(1.12273 -7.95977e-05 7.27855e-16)
(1.12297 -8.10603e-05 -7.23952e-16)
(1.12322 -8.25747e-05 -1.3068e-15)
(1.12347 -8.41425e-05 1.14146e-16)
(1.12372 -8.57652e-05 -1.18507e-15)
(1.12398 -8.74444e-05 7.47289e-16)
(1.12425 -8.91819e-05 5.88287e-16)
(1.12452 -9.09792e-05 7.14291e-16)
(1.12479 -9.28382e-05 6.11526e-17)
(1.12508 -9.47606e-05 3.60763e-16)
(1.12536 -9.67484e-05 -1.10697e-16)
(1.12566 -9.88032e-05 5.61801e-16)
(1.12596 -0.000100927 -6.61275e-16)
(1.12626 -0.000103122 8.47764e-16)
(1.12657 -0.000105391 1.13823e-15)
(1.12689 -0.000107734 3.36617e-16)
(1.12722 -0.000110155 9.86459e-16)
(1.12755 -0.000112656 -7.97207e-16)
(1.1279 -0.000115238 -1.18484e-15)
(1.12825 -0.000117905 -8.59615e-17)
(1.1286 -0.000120659 -1.34351e-15)
(1.12897 -0.000123501 9.10169e-16)
(1.12935 -0.000126435 4.68557e-16)
(1.12973 -0.000129464 4.42863e-16)
(1.13012 -0.000132589 2.56288e-18)
(1.13052 -0.000135814 8.33884e-16)
(1.13094 -0.000139141 -5.341e-16)
(1.13136 -0.000142574 -1.17121e-15)
(1.13179 -0.000146114 -2.46691e-16)
(1.13224 -0.000149765 -1.46798e-15)
(1.13269 -0.000153531 8.92523e-16)
(1.13316 -0.000157414 4.90929e-16)
(1.13364 -0.000161417 3.33517e-16)
(1.13413 -0.000165543 -5.7273e-17)
(1.13463 -0.000169796 9.28478e-17)
(1.13515 -0.00017418 -5.32393e-16)
(1.13567 -0.000178697 2.92187e-16)
(1.13622 -0.000183351 -7.8858e-16)
(1.13677 -0.000188146 9.61406e-16)
(1.13735 -0.000193085 8.36252e-16)
(1.13793 -0.000198172 4.27138e-16)
(1.13854 -0.000203411 8.43449e-16)
(1.13915 -0.000208805 -7.46306e-16)
(1.13979 -0.000214358 -9.65854e-16)
(1.14044 -0.000220075 -1.60263e-16)
(1.14111 -0.000225959 -1.23698e-15)
(1.1418 -0.000232015 5.54259e-16)
(1.1425 -0.000238245 4.02988e-16)
(1.14323 -0.000244655 6.27784e-16)
(1.14397 -0.000251249 -8.89631e-17)
(1.14473 -0.00025803 6.87263e-16)
(1.14552 -0.000265004 -7.04211e-16)
(1.14632 -0.000272174 -1.02746e-15)
(1.14715 -0.000279544 -3.6033e-16)
(1.148 -0.000287119 -1.42024e-15)
(1.14887 -0.000294903 6.04067e-16)
(1.14977 -0.000302901 3.77127e-16)
(1.15069 -0.000311117 3.76465e-16)
(1.15164 -0.000319555 2.32154e-16)
(1.15261 -0.000328219 2.96176e-16)
(1.15361 -0.000337114 -1.96621e-16)
(1.15463 -0.000346244 3.10106e-16)
(1.15568 -0.000355613 -8.84253e-16)
(1.15676 -0.000365225 7.0023e-16)
(1.15788 -0.000375085 8.94325e-16)
(1.15902 -0.000385196 -7.70379e-17)
(1.16019 -0.000395563 8.95648e-16)
(1.16139 -0.000406188 -5.11585e-16)
(1.16262 -0.000417077 -1.08064e-15)
(1.16389 -0.000428232 -1.75124e-16)
(1.16519 -0.000439656 -1.09766e-15)
(1.16653 -0.000451354 5.37114e-16)
(1.1679 -0.000463328 3.6587e-16)
(1.16931 -0.00047558 3.82571e-16)
(1.17076 -0.000488115 -2.63602e-16)
(1.17224 -0.000500933 5.00928e-16)
(1.17376 -0.000514037 -7.63431e-16)
(1.17532 -0.00052743 -1.11841e-15)
(1.17693 -0.000541112 -2.17877e-16)
(1.17857 -0.000555084 -1.21272e-15)
(1.18026 -0.000569349 4.56881e-16)
(1.18199 -0.000583905 1.76274e-16)
(1.18376 -0.000598753 1.71436e-16)
(1.18558 -0.000613893 -1.18537e-16)
(1.18744 -0.000629324 -1.22565e-16)
(1.18936 -0.000645045 -2.99353e-16)
(1.19132 -0.000661053 8.07266e-18)
(1.19332 -0.000677347 -8.04203e-16)
(1.19538 -0.000693923 5.36361e-16)
(1.19749 -0.000710778 5.91982e-16)
(1.19964 -0.000727908 -1.53702e-16)
(1.20185 -0.000745307 6.99055e-16)
(1.20412 -0.00076297 -7.30095e-16)
(1.20643 -0.000780891 -7.34963e-16)
(1.2088 -0.000799062 -7.11886e-16)
(1.21123 -0.000817476 -4.96279e-16)
(1.21371 -0.000836125 -4.62414e-16)
(1.21625 -0.000854998 -4.71476e-16)
(1.21884 -0.000874085 -2.6182e-16)
(1.22149 -0.000893376 -7.17853e-16)
(1.2242 -0.000912857 4.82732e-17)
(1.22697 -0.000932516 -8.04407e-16)
(1.2298 -0.000952338 -1.02219e-15)
(1.23268 -0.000972309 -3.52334e-16)
(1.23563 -0.000992412 -1.08741e-15)
(1.23864 -0.00101263 -1.0687e-16)
(1.24171 -0.00103295 -2.00837e-16)
(1.24484 -0.00105334 -1.49782e-16)
(1.24803 -0.0010738 -2.95814e-16)
(1.25128 -0.00109429 -2.29515e-16)
(1.25459 -0.0011148 -3.75208e-16)
(1.25797 -0.0011353 -1.82507e-16)
(1.26141 -0.00115577 -6.1577e-16)
(1.26491 -0.00117619 8.90039e-17)
(1.26847 -0.00119652 2.25394e-16)
(1.27209 -0.00121675 -1.20897e-16)
(1.27577 -0.00123684 1.48517e-16)
(1.27951 -0.00125678 -4.58366e-16)
(1.28331 -0.00127652 -5.20665e-16)
(1.28717 -0.00129604 -5.17309e-16)
(1.29109 -0.00131531 -4.9874e-16)
(1.29506 -0.00133431 -4.35257e-16)
(1.2991 -0.00135299 -4.78939e-16)
(1.30318 -0.00137133 -3.87513e-16)
(1.30733 -0.0013893 -5.00651e-16)
(1.31152 -0.00140687 -3.55647e-16)
(1.31577 -0.001424 -5.82297e-16)
(1.32007 -0.00144067 -5.89373e-16)
(1.32442 -0.00145685 -5.16064e-16)
(1.32881 -0.00147249 -5.44214e-16)
(1.33325 -0.00148759 -4.65971e-16)
(1.33774 -0.00150209 -4.60898e-16)
(1.34227 -0.00151598 -4.86805e-16)
(1.34684 -0.00152924 -4.65045e-16)
(1.35145 -0.00154182 -5.06643e-16)
(1.35609 -0.00155371 -4.54417e-16)
(1.36077 -0.00156488 -5.56896e-16)
(1.36548 -0.0015753 -4.19203e-16)
(1.37023 -0.00158497 -5.94206e-16)
(1.375 -0.00159385 -6.57493e-16)
(1.37979 -0.00160192 -5.33023e-16)
(1.38461 -0.00160918 -6.64402e-16)
(1.38945 -0.0016156 -3.82316e-16)
(1.39431 -0.00162117 -3.47392e-16)
(1.39918 -0.00162588 -4.20012e-16)
(1.40407 -0.00162972 -4.4531e-16)
(1.40896 -0.00163269 -4.41411e-16)
(1.41387 -0.00163477 -5.25943e-16)
(1.41878 -0.00163597 -6.91703e-16)
(1 -5.04107e-06 1.47173e-16)
(1.00001 -1.50989e-05 -2.21787e-16)
(1.00004 -2.5119e-05 2.429e-16)
(1.00008 -3.51162e-05 -4.04115e-16)
(1.00013 -4.50894e-05 -1.00653e-15)
(1.00019 -5.50217e-05 -1.88286e-15)
(1.00027 -6.48955e-05 -1.77514e-15)
(1.00036 -7.46984e-05 -1.18253e-15)
(1.00046 -8.44222e-05 -1.22538e-15)
(1.00058 -9.40593e-05 -1.12988e-15)
(1.0007 -0.000103602 -9.63055e-16)
(1.00084 -0.00011304 -1.2065e-15)
(1.001 -0.000122366 -7.35797e-16)
(1.00116 -0.000131569 -1.24812e-15)
(1.00133 -0.000140644 -4.54399e-16)
(1.00152 -0.00014958 -1.01128e-16)
(1.00172 -0.000158372 -5.48572e-16)
(1.00193 -0.000167012 3.00473e-16)
(1.00215 -0.000175493 6.51905e-16)
(1.00238 -0.000183811 5.99461e-18)
(1.00262 -0.000191958 3.81628e-16)
(1.00287 -0.00019993 1.17591e-15)
(1.00314 -0.000207721 1.17632e-16)
(1.00341 -0.000215328 1.22242e-15)
(1.00369 -0.000222746 6.79315e-16)
(1.00398 -0.000229973 9.33819e-16)
(1.00428 -0.000237004 -5.37688e-17)
(1.00459 -0.000243837 8.86371e-16)
(1.00491 -0.00025047 -5.37363e-16)
(1.00524 -0.000256901 -2.96097e-16)
(1.00557 -0.000263129 -6.47208e-16)
(1.00591 -0.000269152 -4.43216e-16)
(1.00626 -0.000274971 -1.10602e-15)
(1.00662 -0.000280584 3.64078e-17)
(1.00698 -0.000285993 -1.27101e-15)
(1.00736 -0.000291197 -1.25549e-15)
(1.00773 -0.000296198 -1.54389e-15)
(1.00812 -0.000300996 -1.04152e-15)
(1.00851 -0.000305592 -1.69337e-15)
(1.0089 -0.00030999 -1.00838e-15)
(1.00931 -0.00031419 -2.12608e-15)
(1.00971 -0.000318195 -1.98673e-15)
(1.01012 -0.000322008 -2.15078e-15)
(1.01054 -0.000325631 -1.78013e-15)
(1.01096 -0.000329067 -1.95712e-15)
(1.01139 -0.000332319 -1.74225e-15)
(1.01182 -0.00033539 -1.90466e-15)
(1.01225 -0.000338285 -1.86214e-15)
(1.01269 -0.000341006 -1.82419e-15)
(1.01313 -0.000343557 -1.85293e-15)
(1.01357 -0.000345942 -2.11223e-15)
(1.01402 -0.000348165 -1.80635e-15)
(1.01447 -0.00035023 -1.81319e-15)
(1.01492 -0.000352141 -2.16402e-15)
(1.01537 -0.000353902 -1.79256e-15)
(1.01583 -0.000355517 -1.58841e-15)
(1.01629 -0.00035699 -1.55284e-15)
(1.01675 -0.000358326 -1.60712e-15)
(1.01721 -0.000359529 -1.64408e-15)
(1.01767 -0.000360603 -1.74705e-15)
(1.01814 -0.000361552 -1.70975e-15)
(1.0186 -0.000362381 -1.83282e-15)
(1.01907 -0.000363092 -1.78858e-15)
(1.01954 -0.000363692 -1.9309e-15)
(1.02 -0.000364183 -1.65564e-15)
(1.02047 -0.00036457 -2.01963e-15)
(1.02094 -0.000364857 -1.70131e-15)
(1.02141 -0.000365047 -2.00022e-15)
(1.02188 -0.000365144 -1.3116e-15)
(1.02235 -0.000365153 -2.06165e-15)
(1.02282 -0.000365077 -1.46781e-15)
(1.02329 -0.000364919 -2.47415e-15)
(1.02376 -0.000364684 -6.15866e-16)
(1.02423 -0.000364373 -1.22376e-15)
(1.0247 -0.000363992 -8.58697e-16)
(1.02517 -0.000363544 -2.05999e-15)
(1.02563 -0.00036303 -7.31736e-16)
(1.0261 -0.000362456 -1.17881e-15)
(1.02656 -0.000361823 -5.62754e-16)
(1.02703 -0.000361135 -1.40875e-15)
(1.02749 -0.000360394 -1.54469e-16)
(1.02796 -0.000359603 -1.772e-16)
(1.02842 -0.000358766 -4.90216e-16)
(1.02888 -0.000357884 -3.69628e-16)
(1.02934 -0.000356961 -6.91377e-16)
(1.0298 -0.000355998 -8.25644e-16)
(1.03026 -0.000354998 -1.03647e-15)
(1.03071 -0.000353963 -7.76788e-16)
(1.03117 -0.000352896 -1.10722e-15)
(1.03162 -0.000351798 -1.09257e-15)
(1.03207 -0.000350672 -1.31558e-15)
(1.03252 -0.00034952 -1.28215e-15)
(1.03297 -0.000348343 -1.5323e-15)
(1.03342 -0.000347143 -1.27997e-15)
(1.03386 -0.000345922 -1.49056e-15)
(1.03431 -0.000344682 -1.15283e-15)
(1.03475 -0.000343424 -1.51582e-15)
(1.03519 -0.000342149 -1.04229e-15)
(1.03563 -0.00034086 -3.45227e-16)
(1.03607 -0.000339558 -1.45426e-15)
(1.0365 -0.000338243 1.18476e-16)
(1.03694 -0.000336918 -1.1564e-15)
(1.03737 -0.000335583 5.03849e-16)
(1.0378 -0.000334239 -5.92218e-16)
(1.03823 -0.000332888 7.88536e-16)
(1.03866 -0.000331531 -1.78794e-16)
(1.03908 -0.000330169 1.05009e-15)
(1.03951 -0.000328802 3.6049e-16)
(1.03993 -0.000327432 1.25001e-15)
(1.04035 -0.00032606 7.86339e-16)
(1.04077 -0.000324685 9.62925e-16)
(1.04118 -0.00032331 1.60002e-15)
(1.0416 -0.000321934 2.26278e-16)
(1.04201 -0.000320559 1.79528e-15)
(1.04242 -0.000319185 2.61808e-16)
(1.04283 -0.000317812 2.16439e-15)
(1.04324 -0.000316442 7.77527e-16)
(1.04365 -0.000315074 2.4877e-15)
(1.04405 -0.00031371 7.32246e-16)
(1.04445 -0.00031235 2.46136e-15)
(1.04485 -0.000310994 1.01668e-15)
(1.04525 -0.000309642 2.56689e-15)
(1.04565 -0.000308296 1.30675e-15)
(1.04605 -0.000306955 2.83416e-15)
(1.04644 -0.00030562 1.3943e-15)
(1.04683 -0.000304291 2.8263e-15)
(1.04722 -0.000302968 1.51073e-15)
(1.04761 -0.000301652 3.06945e-15)
(1.048 -0.000300343 1.84628e-15)
(1.04839 -0.000299041 3.09229e-15)
(1.04877 -0.000297746 1.93041e-15)
(1.04915 -0.000296459 3.19768e-15)
(1.04953 -0.000295179 2.22871e-15)
(1.04991 -0.000293908 2.98989e-15)
(1.05029 -0.000292645 2.60396e-15)
(1.05066 -0.000291389 2.79012e-15)
(1.05104 -0.000290142 3.18028e-15)
(1.05141 -0.000288904 2.30255e-15)
(1.05178 -0.000287674 3.16236e-15)
(1.05215 -0.000286453 2.72429e-15)
(1.05252 -0.00028524 4.00786e-15)
(1.05288 -0.000284036 2.48711e-15)
(1.05325 -0.00028284 3.92285e-15)
(1.05361 -0.000281654 2.62755e-15)
(1.05397 -0.000280476 4.00956e-15)
(1.05433 -0.000279307 2.90553e-15)
(1.05469 -0.000278147 3.58374e-15)
(1.05505 -0.000276996 3.10043e-15)
(1.0554 -0.000275854 4.55691e-15)
(1.05576 -0.000274721 3.12872e-15)
(1.05611 -0.000273596 4.30547e-15)
(1.05646 -0.00027248 3.0184e-15)
(1.05681 -0.000271373 4.26949e-15)
(1.05716 -0.000270275 3.25322e-15)
(1.05751 -0.000269186 3.74459e-15)
(1.05785 -0.000268105 3.69383e-15)
(1.0582 -0.000267033 4.65668e-15)
(1.05854 -0.000265969 3.65512e-15)
(1.05888 -0.000264914 4.60951e-15)
(1.05922 -0.000263867 3.93078e-15)
(1.05956 -0.000262829 3.86123e-15)
(1.0599 -0.000261799 4.25278e-15)
(1.06023 -0.000260777 3.22268e-15)
(1.06057 -0.000259763 3.79609e-15)
(1.0609 -0.000258758 3.58997e-15)
(1.06123 -0.00025776 4.90703e-15)
(1.06156 -0.000256771 3.39196e-15)
(1.06189 -0.000255789 4.57711e-15)
(1.06222 -0.000254815 3.34468e-15)
(1.06255 -0.000253849 4.51727e-15)
(1.06287 -0.00025289 3.46169e-15)
(1.0632 -0.000251939 4.28418e-15)
(1.06352 -0.000250995 3.79053e-15)
(1.06384 -0.000250059 4.95999e-15)
(1.06417 -0.000249129 3.8492e-15)
(1.06449 -0.000248207 5.17653e-15)
(1.0648 -0.000247292 3.76937e-15)
(1.06512 -0.000246384 4.98999e-15)
(1.06544 -0.000245483 3.8437e-15)
(1.06575 -0.000244588 4.41931e-15)
(1.06607 -0.0002437 4.20708e-15)
(1.06638 -0.000242819 5.36265e-15)
(1.06669 -0.000241944 4.12739e-15)
(1.067 -0.000241076 4.9527e-15)
(1.06731 -0.000240214 4.16439e-15)
(1.06762 -0.000239358 4.63044e-15)
(1.06793 -0.000238508 4.89624e-15)
(1.06823 -0.000237664 3.87735e-15)
(1.06854 -0.000236826 4.28277e-15)
(1.06884 -0.000235993 3.9683e-15)
(1.06915 -0.000235166 5.2797e-15)
(1.06945 -0.000234345 3.99452e-15)
(1.06975 -0.00023353 5.0678e-15)
(1.07005 -0.000232719 3.94146e-15)
(1.07035 -0.000231914 4.88981e-15)
(1.07064 -0.000231114 4.25565e-15)
(1.07094 -0.00023032 4.23188e-15)
(1.07124 -0.00022953 4.88438e-15)
(1.07153 -0.000228745 4.45278e-15)
(1.07183 -0.000227965 4.86852e-15)
(1.07212 -0.00022719 3.58913e-15)
(1.07241 -0.000226419 4.95554e-15)
(1.0727 -0.000225652 4.1162e-15)
(1.07299 -0.000224891 4.49794e-15)
(1.07328 -0.000224133 3.3891e-15)
(1.07357 -0.00022338 4.38076e-15)
(1.07385 -0.00022263 3.56902e-15)
(1.07414 -0.000221885 4.32547e-15)
(1.07442 -0.000221144 2.88729e-15)
(1.07471 -0.000220407 4.13597e-15)
(1.07499 -0.000219673 3.21131e-15)
(1.07527 -0.000218943 4.02621e-15)
(1.07555 -0.000218217 2.73957e-15)
(1.07584 -0.000217494 3.82679e-15)
(1.07611 -0.000216774 3.39335e-15)
(1.07639 -0.000216058 3.69671e-15)
(1.07667 -0.000215345 2.57352e-15)
(1.07695 -0.000214636 3.43085e-15)
(1.07722 -0.000213929 2.80518e-15)
(1.0775 -0.000213225 3.08596e-15)
(1.07777 -0.000212525 2.47947e-15)
(1.07804 -0.000211827 3.07756e-15)
(1.07832 -0.000211132 3.30853e-15)
(1.07859 -0.000210439 2.40619e-15)
(1.07886 -0.000209749 2.85449e-15)
(1.07913 -0.000209061 2.02581e-15)
(1.07939 -0.000208376 3.05209e-15)
(1.07966 -0.000207694 2.35714e-15)
(1.07993 -0.000207013 3.02054e-15)
(1.08019 -0.000206335 1.7224e-15)
(1.08046 -0.000205659 3.04119e-15)
(1.08072 -0.000204984 2.21904e-15)
(1.08099 -0.000204312 2.81608e-15)
(1.08125 -0.000203642 1.60155e-15)
(1.08151 -0.000202973 3.00361e-15)
(1.08177 -0.000202306 2.09603e-15)
(1.08203 -0.000201641 2.65322e-15)
(1.08229 -0.000200978 1.56711e-15)