/*--------------------------------*- C++ -*----------------------------------*\
  =========                 |
  \\      /  F ield         | OpenFOAM: The Open Source CFD Toolbox
   \\    /   O peration     | Website:  https://openfoam.org
    \\  /    A nd           | Version:  7
     \\/     M anipulation  |
\*---------------------------------------------------------------------------*/
FoamFile
{
    version     2.0;
    format      ascii;
    class       volScalarField;
    location    "1.5";
    object      p;
}
// * * * * * * * * * * * * * * * * * * * * * * * * * * * * * * * * * * * * * //

dimensions      [0 2 -2 0 0 0 0];

internalField   nonuniform List<scalar> 
344
(
-5.06597
-5.13445
-5.14748
-5.10786
-5.00257
-4.84399
-4.6384
-4.37698
-4.0649
-3.71899
-3.34508
-2.93331
-2.49361
-2.0595
-1.64501
-1.24554
-0.887082
-0.593486
-0.354681
-0.163695
-0.0337636
0.0473893
0.112705
0.162002
0.180227
0.181254
0.179968
0.179813
0.18155
0.182664
0.183406
0.180012
0.17234
0.161796
0.149772
0.13732
0.125151
0.113705
0.103215
0.0937674
0.0853557
0.077924
0.0713909
0.0656659
0.060658
0.056281
0.0524553
0.049109
0.0461783
0.0436066
0.0413445
0.0393489
0.0375824
0.0360126
0.0346114
0.0333549
0.0322222
0.0311957
-2.50623
-2.91251
-3.31575
-3.70437
-4.07749
-4.41669
-4.69139
-4.91621
-5.11005
-5.2387
-5.30232
-5.32599
-5.27819
-5.16198
-5.00982
-4.80533
-4.53896
-4.22955
-3.8775
-3.48977
-3.08215
-2.6541
-2.204
-1.74606
-1.31437
-0.943649
-0.637314
-0.384848
-0.191773
-0.0644484
0.0249643
0.109865
0.16594
0.165039
0.140281
0.131809
0.144062
0.160291
0.169461
0.171482
0.167726
0.160212
0.150326
0.139221
0.127819
0.116746
0.10637
0.0968727
0.0883162
0.080688
0.0739356
0.0679869
0.0627624
0.0581823
0.0541702
0.0506556
0.0475745
0.0448698
0.0424907
0.0403928
0.0385371
0.0368899
0.0354218
0.0341074
0.0329248
0.0318552
0.0308825
-2.61629
-3.04088
-3.46242
-3.87914
-4.26531
-4.60056
-4.88652
-5.12393
-5.31152
-5.43775
-5.50171
-5.51617
-5.46942
-5.35843
-5.1957
-4.97689
-4.71433
-4.41154
-4.05455
-3.66488
-3.25618
-2.80988
-2.34357
-1.89052
-1.44808
-1.02943
-0.67719
-0.410271
-0.216325
-0.0803045
0.0134792
0.0827496
0.116036
0.10771
0.0937403
0.104129
0.131725
0.156336
0.168149
0.168653
0.161739
0.151464
0.140157
0.128841
0.11798
0.107811
0.0984596
0.0899738
0.082352
0.0755588
0.0695386
0.0642248
0.0595473
0.0554366
0.0518264
0.0486554
0.0458677
0.0434135
0.0412481
0.0393325
0.0376325
0.0361179
0.034763
0.0335452
0.032445
0.0314458
0.030533
-2.74405
-3.19189
-3.64535
-4.08316
-4.47515
-4.81937
-5.11803
-5.35891
-5.5437
-5.66468
-5.7251
-5.74124
-5.68597
-5.56823
-5.4119
-5.18655
-4.90168
-4.59138
-4.23905
-3.85209
-3.44672
-2.99776
-2.5203
-2.04688
-1.57068
-1.11445
-0.732948
-0.442907
-0.236343
-0.104417
-0.0234717
0.0362752
0.0755384
0.0917501
0.105289
0.129825
0.153145
0.16378
0.163796
0.157525
0.148173
0.137609
0.126922
0.116637
0.106985
0.098068
0.0899256
0.08256
0.0759481
0.070049
0.0648106
0.0601751
0.0560829
0.0524752
0.0492963
0.0464946
0.0440228
0.0418384
0.0399036
0.0381848
0.0366528
0.0352817
0.0340492
0.0329359
0.031925
0.0310018
0.030154
-2.89609
-3.37329
-3.85243
-4.30814
-4.7105
-5.06997
-5.38027
-5.6161
-5.79577
-5.91669
-5.96983
-5.97879
-5.92459
-5.7968
-5.63012
-5.40779
-5.12453
-4.79874
-4.42262
-4.02671
-3.63493
-3.19661
-2.7039
-2.20148
-1.7042
-1.22763
-0.812
-0.486896
-0.262732
-0.130241
-0.05068
0.0129927
0.0697003
0.11295
0.13874
0.15003
0.152011
0.14977
0.145148
0.138283
0.129858
0.120806
0.111801
0.103192
0.0951371
0.087703
0.0809112
0.074757
0.0692183
0.0642606
0.0598421
0.0559168
0.0524371
0.0493564
0.0466299
0.0442159
0.0420759
0.0401754
0.0384833
0.036972
0.0356172
0.0343975
0.0332943
0.0322913
0.0313746
0.030532
0.0297528
-3.04142
-3.5511
-4.05301
-4.52343
-4.94506
-5.32027
-5.63328
-5.86422
-6.04092
-6.16107
-6.21154
-6.21496
-6.15044
-6.02026
-5.85512
-5.61952
-5.3254
-5.00658
)
;

boundaryField
{
    inlet
    {
        type            zeroGradient;
    }
    outlet
    {
        type            fixedValue;
        value           nonuniform 0();
    }
    wall
    {
        type            zeroGradient;
    }
    wedge1
    {
        type            wedge;
    }
    wedge2
    {
        type            wedge;
    }
    axis
    {
        type            empty;
    }
    procBoundary10to4
    {
        type            processor;
        value           nonuniform List<scalar> 
68
(
-4.91484
-4.98501
-5.00146
-4.96036
-4.85932
-4.70536
-4.49414
-4.23259
-3.93602
-3.59061
-3.2006
-2.80039
-2.39144
-1.96416
-1.55122
-1.18273
-0.854621
-0.566841
-0.33264
-0.157613
-0.0307986
0.0572222
0.118095
0.152598
0.172915
0.218468
0.267985
0.263052
0.21452
0.189521
0.18724
0.1905
0.186579
0.175769
0.16191
0.147429
0.133515
0.120661
0.109038
0.0986681
0.0894973
0.0814337
0.0743705
0.0681986
0.0628126
0.0581151
0.0540172
0.0504396
0.0473121
0.044573
0.0421684
0.0400514
0.0381815
0.0365236
0.0350473
0.0337268
0.0325395
0.0314664
-2.4106
-2.79876
-3.18744
-3.56194
-3.91751
-4.24797
-4.52827
-4.74859
-4.93005
-4.93005
)
;
    }
    procBoundary10to5
    {
        type            processor;
        value           uniform 0.0302598;
    }
    procBoundary10to9
    {
        type            processor;
        value           nonuniform List<scalar> 3(-2.11558 -2.20234 -2.31195);
    }
    procBoundary10to11
    {
        type            processor;
        value           nonuniform List<scalar> 4(0.0299925 0.0296942 0.0293707 0.0290282);
    }
    procBoundary10to15
    {
        type            processor;
        value           nonuniform List<scalar> 2(-2.43398 -2.55546);
    }
    procBoundary10to16
    {
        type            processor;
        value           nonuniform List<scalar> 
68
(
-4.62658
-4.21557
-3.81588
-3.37609
-2.88668
-2.38181
-1.85957
-1.34072
-0.881051
-0.518446
-0.271011
-0.131792
-0.0548822
0.00641634
0.0641625
0.10269
0.118763
0.122957
0.123032
0.121523
0.118533
0.113953
0.108183
0.101791
0.0952282
0.088787
0.0826389
0.0768798
0.0715582
0.0666912
0.0622756
0.0582945
0.0547222
0.0515279
0.0486783
0.0461393
0.0438779
0.0418627
0.0400645
0.0384565
0.0370146
0.0357173
0.0345454
0.0334821
0.0325125
0.0316237
0.0308045
0.0300451
0.0293371
-3.17438
-3.71492
-4.24664
-4.73917
-5.18471
-5.56875
-5.87066
-6.10051
-6.27607
-6.3832
-6.43329
-6.44131
-6.37128
-6.2314
-6.05835
-5.82026
-5.51215
-4.62658
-5.16284
)
;
    }
}


// ************************************************************************* //
