0.1246 	0.489332 	1.58992e-18 	0.258302 	-0.00667295 	1.82154e-16
0.126381 	0.49633 	2.03847e-18 	0.0883201 	-0.00100782 	5.46864e-17
