0.115145 	0.49633 	-1.9292e-18 	0.0992297 	-0.00141349 	4.05924e-17
