0.226831 	0.454344 	4.53601e-19 	5.69976
0.230324 	0.461342 	5.04337e-19 	5.6974
0.233818 	0.468339 	3.09629e-18 	5.69498
0.237312 	0.475337 	2.68295e-18 	5.69246
0.239529 	0.479779 	2.43382e-18 	5.68982
0.241276 	0.483278 	2.16253e-18 	5.66995
0.244299 	0.489332 	1.92419e-18 	5.66738
0.247792 	0.49633 	2.08359e-18 	5.66442
