0.185737 	0.468339 	5.12063e-19 	5.74269
0.188513 	0.475337 	1.00207e-18 	5.73924
0.191288 	0.482335 	1.15649e-18 	5.73554
0.194063 	0.489332 	1.54415e-18 	5.73123
0.196838 	0.49633 	1.93914e-18 	5.72617
