/*--------------------------------*- C++ -*----------------------------------*\
  =========                 |
  \\      /  F ield         | OpenFOAM: The Open Source CFD Toolbox
   \\    /   O peration     | Website:  https://openfoam.org
    \\  /    A nd           | Version:  7
     \\/     M anipulation  |
\*---------------------------------------------------------------------------*/
FoamFile
{
    version     2.0;
    format      ascii;
    class       volScalarField;
    location    "107.000516";
    object      p;
}
// * * * * * * * * * * * * * * * * * * * * * * * * * * * * * * * * * * * * * //

dimensions      [0 2 -2 0 0 0 0];

internalField   nonuniform List<scalar> 
5800
(
-0.328674
-0.329846
-0.331021
-0.332128
-0.333064
-0.333677
-0.333754
-0.332991
-0.331126
-0.315253
-0.317334
-0.318513
-0.31937
-0.320087
-0.320718
-0.32132
-0.321923
-0.322527
-0.323109
-0.323628
-0.324026
-0.324222
-0.324114
-0.323572
-0.32243
-0.320503
-0.317504
-0.313283
-0.312156
-0.314362
-0.315593
-0.31646
-0.317146
-0.31769
-0.318138
-0.318506
-0.318777
-0.318909
-0.318838
-0.318479
-0.317724
-0.316441
-0.314476
-0.311648
-0.30773
-0.302693
-0.296333
-0.309433
-0.311724
-0.312986
-0.31385
-0.314495
-0.314948
-0.315242
-0.315378
-0.315325
-0.315021
-0.314381
-0.313296
-0.311633
-0.309236
-0.305932
-0.301538
-0.295855
-0.288841
-0.280666
-0.307118
-0.309455
-0.310728
-0.311576
-0.312172
-0.312531
-0.312672
-0.312583
-0.312217
-0.311497
-0.310316
-0.308545
-0.30603
-0.302595
-0.298051
-0.292226
-0.284948
-0.276112
-0.266573
-0.305232
-0.30758
-0.308845
-0.309665
-0.310205
-0.310467
-0.310458
-0.310152
-0.309488
-0.308374
-0.306686
-0.304275
-0.30097
-0.296583
-0.290913
-0.283808
-0.275141
-0.264592
-0.254264
-0.237405
-0.303792
-0.306118
-0.307357
-0.308137
-0.308613
-0.308775
-0.308618
-0.308104
-0.307159
-0.305676
-0.303518
-0.300518
-0.296491
-0.291246
-0.284567
-0.276326
-0.266523
-0.254312
-0.243874
-0.223315
-0.302802
-0.305077
-0.306273
-0.307002
-0.307406
-0.307465
-0.307163
-0.306451
-0.305242
-0.303417
-0.300827
-0.297291
-0.292609
-0.286607
-0.279043
-0.269797
-0.25916
-0.245282
-0.235442
-0.2123
-0.302262
-0.304461
-0.305598
-0.306264
-0.306587
-0.30654
-0.306095
-0.305193
-0.303737
-0.301599
-0.298619
-0.294605
-0.289329
-0.282684
-0.274359
-0.26421
-0.25311
-0.237543
-0.228275
-0.203422
-0.302166
-0.304265
-0.305329
-0.305919
-0.306153
-0.305995
-0.305409
-0.304325
-0.302641
-0.300218
-0.296889
-0.292465
-0.286759
-0.279478
-0.270515
-0.259513
-0.248247
-0.231407
-0.222716
-0.196235
-0.302507
-0.304484
-0.305459
-0.305961
-0.306095
-0.30582
-0.305092
-0.303836
-0.301939
-0.299259
-0.295622
-0.290832
-0.284682
-0.276952
-0.26751
-0.256012
-0.244262
-0.226598
-0.218907
-0.19086
-0.303272
-0.305106
-0.305976
-0.306375
-0.306399
-0.306
-0.30513
-0.303707
-0.301614
-0.298702
-0.294795
-0.289693
-0.283185
-0.275079
-0.265251
-0.25338
-0.241444
-0.223034
-0.216595
-0.187478
-0.304449
-0.306118
-0.306866
-0.307148
-0.307047
-0.306515
-0.305499
-0.303913
-0.301637
-0.298518
-0.294376
-0.28901
-0.282214
-0.273808
-0.263701
-0.251538
-0.239606
-0.220727
-0.215286
-0.18622
-0.306025
-0.307507
-0.308115
-0.308261
-0.308018
-0.307341
-0.306173
-0.304425
-0.301974
-0.298666
-0.294318
-0.288729
-0.281697
-0.273054
-0.262751
-0.2504
-0.238484
-0.219658
-0.21439
-0.186936
-0.307987
-0.309258
-0.309704
-0.309693
-0.309291
-0.308452
-0.307121
-0.305207
-0.302585
-0.299098
-0.294563
-0.288778
-0.281547
-0.272708
-0.262257
-0.249826
-0.237809
-0.219672
-0.213505
-0.189021
-0.310323
-0.311357
-0.311619
-0.311427
-0.31084
-0.30982
-0.30831
-0.306219
-0.303421
-0.299757
-0.295041
-0.289073
-0.281658
-0.272645
-0.262055
-0.24963
-0.237361
-0.220393
-0.21256
-0.191568
-0.313023
-0.313793
-0.313844
-0.313443
-0.312645
-0.311417
-0.309705
-0.30742
-0.304434
-0.300585
-0.295682
-0.289523
-0.281918
-0.27273
-0.261986
-0.249592
-0.236985
-0.221297
-0.211653
-0.193757
-0.316081
-0.316558
-0.316368
-0.315727
-0.314685
-0.313218
-0.311277
-0.308774
-0.305578
-0.301524
-0.296414
-0.290044
-0.282223
-0.272831
-0.261899
-0.249498
-0.236547
-0.221908
-0.210755
-0.195124
-0.319495
-0.31965
-0.319187
-0.31827
-0.316947
-0.315206
-0.313003
-0.31025
-0.306816
-0.302527
-0.29718
-0.290559
-0.282477
-0.272831
-0.261657
-0.249164
-0.235902
-0.221922
-0.209605
-0.195564
-0.323272
-0.323072
-0.322299
-0.321072
-0.319428
-0.317373
-0.31487
-0.311833
-0.308126
-0.303565
-0.297934
-0.29101
-0.282602
-0.272628
-0.261144
-0.248453
-0.234918
-0.221218
-0.207954
-0.195201
-0.327426
-0.326829
-0.325722
-0.32414
-0.322133
-0.319724
-0.316883
-0.313524
-0.309503
-0.304623
-0.298651
-0.29135
-0.282532
-0.27214
-0.260266
-0.24728
-0.233497
-0.219795
-0.205976
-0.19397
-0.331978
-0.330951
-0.329467
-0.327492
-0.325082
-0.32228
-0.319062
-0.31534
-0.310958
-0.305702
-0.299313
-0.291544
-0.282214
-0.271305
-0.258959
-0.245603
-0.231568
-0.217694
-0.203855
-0.191571
-0.33696
-0.335464
-0.333564
-0.331158
-0.328308
-0.325074
-0.321441
-0.317314
-0.312518
-0.306811
-0.299911
-0.29156
-0.281604
-0.270077
-0.25719
-0.24342
-0.229113
-0.215085
-0.201148
-0.188643
-0.342413
-0.340403
-0.338051
-0.335179
-0.331853
-0.328154
-0.324069
-0.319487
-0.31421
-0.307958
-0.300428
-0.291368
-0.280666
-0.268432
-0.254956
-0.240752
-0.226186
-0.211992
-0.197978
-0.185366
-0.348381
-0.345809
-0.342969
-0.3396
-0.335768
-0.331573
-0.326995
-0.321902
-0.316055
-0.309142
-0.300843
-0.290933
-0.279375
-0.266365
-0.252278
-0.237645
-0.222834
-0.208494
-0.19441
-0.18171
-0.354909
-0.351724
-0.348363
-0.344469
-0.340107
-0.335385
-0.330268
-0.324588
-0.318062
-0.310344
-0.30112
-0.290223
-0.277711
-0.263885
-0.249188
-0.234145
-0.219111
-0.204637
-0.190489
-0.177741
-0.36204
-0.358187
-0.354275
-0.349836
-0.344919
-0.339636
-0.333921
-0.327556
-0.320212
-0.311524
-0.301212
-0.2892
-0.275668
-0.261012
-0.245722
-0.230295
-0.215058
-0.200458
-0.18626
-0.173464
-0.369806
-0.365231
-0.360742
-0.355738
-0.350244
-0.344356
-0.337964
-0.33079
-0.322462
-0.312622
-0.301063
-0.287834
-0.273243
-0.257766
-0.241911
-0.226127
-0.2107
-0.195979
-0.18174
-0.168903
-0.378225
-0.372874
-0.367788
-0.362204
-0.356104
-0.349555
-0.342381
-0.334242
-0.32474
-0.313561
-0.300614
-0.286095
-0.270436
-0.254166
-0.237777
-0.221659
-0.206052
-0.191213
-0.176943
-0.164064
-0.387293
-0.381121
-0.37542
-0.369241
-0.362499
-0.35521
-0.347119
-0.33783
-0.326949
-0.314253
-0.299803
-0.283957
-0.267246
-0.250218
-0.233327
-0.216894
-0.201115
-0.186163
-0.171871
-0.158954
-0.396982
-0.389953
-0.383626
-0.376835
-0.3694
-0.361264
-0.352091
-0.341442
-0.328973
-0.314601
-0.298572
-0.281395
-0.263666
-0.245921
-0.228557
-0.211828
-0.195882
-0.180824
-0.166523
-0.153574
-0.407236
-0.399325
-0.392366
-0.38494
-0.376743
-0.367625
-0.357172
-0.344937
-0.330682
-0.31451
-0.296865
-0.278379
-0.25968
-0.24126
-0.223452
-0.206444
-0.190341
-0.175187
-0.160893
-0.147921
-0.417966
-0.409163
-0.401571
-0.393478
-0.384425
-0.37416
-0.362204
-0.348157
-0.331941
-0.313887
-0.294626
-0.274878
-0.255262
-0.236213
-0.217989
-0.200722
-0.184474
-0.169242
-0.154971
-0.141989
-0.429051
-0.419363
-0.411138
-0.402333
-0.392306
-0.380697
-0.367003
-0.350927
-0.332616
-0.312642
-0.291799
-0.270852
-0.250381
-0.230747
-0.21214
-0.194637
-0.178262
-0.162974
-0.148747
-0.135772
-0.440332
-0.429784
-0.420926
-0.411349
-0.400202
-0.387033
-0.371362
-0.353071
-0.332576
-0.310689
-0.288327
-0.266257
-0.244995
-0.224826
-0.205871
-0.18816
-0.171682
-0.156366
-0.142209
-0.129262
-0.451615
-0.44025
-0.430758
-0.420331
-0.407895
-0.392934
-0.375063
-0.354412
-0.331696
-0.307946
-0.28415
-0.261043
-0.23906
-0.218408
-0.199147
-0.181264
-0.164713
-0.149404
-0.135344
-0.122451
-0.46267
-0.450548
-0.440417
-0.429043
-0.415131
-0.398149
-0.377884
-0.354781
-0.329862
-0.304332
-0.279206
-0.255156
-0.232529
-0.211453
-0.191933
-0.173918
-0.157333
-0.14207
-0.128136
-0.11533
-0.473236
-0.460433
-0.44965
-0.437217
-0.421633
-0.402415
-0.379609
-0.35402
-0.326963
-0.299768
-0.273432
-0.248541
-0.22535
-0.203916
-0.184193
-0.166096
-0.149522
-0.134349
-0.120575
-0.10789
-0.483023
-0.469628
-0.458175
-0.444557
-0.427106
-0.405468
-0.38003
-0.351982
-0.322897
-0.294178
-0.266764
-0.241142
-0.217477
-0.195757
-0.175894
-0.157772
-0.141259
-0.126226
-0.112649
-0.10013
-0.491719
-0.47783
-0.465681
-0.450747
-0.431251
-0.407054
-0.378955
-0.348533
-0.317571
-0.287488
-0.25914
-0.232905
-0.208861
-0.186938
-0.167006
-0.148921
-0.132529
-0.11769
-0.104354
-0.0920581
-0.498995
-0.484719
-0.471843
-0.455465
-0.43377
-0.406932
-0.376211
-0.343554
-0.310897
-0.27963
-0.250501
-0.223778
-0.199461
-0.177423
-0.157501
-0.139524
-0.123315
-0.108727
-0.0956859
-0.083684
-0.504518
-0.489963
-0.476327
-0.458387
-0.434382
-0.404885
-0.371644
-0.33694
-0.302799
-0.270541
-0.240792
-0.213716
-0.189238
-0.167184
-0.147357
-0.129563
-0.113604
-0.0993258
-0.0866379
-0.0749987
-0.507952
-0.493231
-0.478803
-0.459204
-0.432827
-0.40072
-0.365125
-0.328601
-0.293208
-0.260164
-0.229966
-0.20268
-0.17816
-0.156195
-0.136556
-0.119026
-0.103388
-0.0894809
-0.0772004
-0.0659507
-0.508977
-0.4942
-0.478953
-0.457629
-0.428874
-0.394274
-0.356546
-0.318464
-0.282068
-0.248452
-0.217984
-0.190636
-0.166204
-0.144438
-0.125083
-0.107902
-0.0926585
-0.079196
-0.0673788
-0.0564528
-0.507289
-0.492565
-0.476483
-0.453405
-0.422329
-0.385416
-0.345821
-0.30647
-0.269335
-0.23537
-0.204817
-0.177562
-0.15335
-0.131898
-0.112929
-0.0961834
-0.0814099
-0.0684846
-0.0571918
-0.0465033
-0.502616
-0.488048
-0.471131
-0.446312
-0.413034
-0.374048
-0.332893
-0.29258
-0.254979
-0.220894
-0.190445
-0.163439
-0.139585
-0.118569
-0.100094
-0.0838801
-0.0696505
-0.0573642
-0.0465882
-0.0363658
-0.494719
-0.480409
-0.462676
-0.436176
-0.400874
-0.360104
-0.317725
-0.276772
-0.238982
-0.205009
-0.174856
-0.14826
-0.124906
-0.104462
-0.0865893
-0.0710187
-0.0574441
-0.0458055
-0.0355734
-0.0259966
-0.483406
-0.469449
-0.450942
-0.422867
-0.385774
-0.343552
-0.300307
-0.259044
-0.221342
-0.187706
-0.158032
-0.13205
-0.109338
-0.0896094
-0.0724482
-0.0575892
-0.0447629
-0.0338343
-0.0242054
-0.0153573
-0.468531
-0.455017
-0.435805
-0.406306
-0.367703
-0.324391
-0.280654
-0.239412
-0.202071
-0.168996
-0.139983
-0.114866
-0.092928
-0.0739978
-0.0576667
-0.0436229
-0.0316221
-0.0214718
-0.0125169
-0.00444781
-0.449999
-0.437014
-0.417192
-0.386461
-0.346668
-0.302655
-0.258805
-0.217908
-0.181206
-0.148947
-0.12087
-0.0966212
-0.0756599
-0.0576679
-0.0422735
-0.0291462
-0.0180482
-0.00874447
-0.000530087
0.00671158
-0.427773
-0.415398
-0.395085
-0.363351
-0.32272
-0.27841
-0.234822
-0.19459
-0.158823
-0.127605
-0.100618
-0.077435
-0.0575767
-0.0406567
-0.0263061
-0.0141914
-0.00407432
0.00431779
0.0117301
0.0180918
-0.401869
-0.39018
-0.36952
-0.337044
-0.295961
-0.251759
-0.208785
-0.169552
-0.134968
-0.105008
-0.0792936
-0.0573566
-0.0387329
-0.0230089
-0.00980772
0.0012029
0.0102626
0.0176805
0.024231
0.0296572
-0.372361
-0.361425
-0.34059
-0.307672
-0.266539
-0.222803
-0.18078
-0.142871
-0.109726
-0.0812357
-0.0569725
-0.0364465
-0.0191896
-0.00477779
0.00717259
0.0169916
0.0249208
0.0313044
0.0369338
0.0413664
-0.339376
-0.329253
-0.308449
-0.275427
-0.234579
-0.191575
-0.150995
-0.114674
-0.0832027
-0.0563809
-0.0337409
-0.0147767
0.000985601
0.0139754
0.0245795
0.0331241
0.0398544
0.0451481
0.0497978
0.0531766
-0.303086
-0.293843
-0.273305
-0.240452
-0.200032
-0.158475
-0.119558
-0.0850927
-0.0555167
-0.03055
-0.00969381
0.00756908
0.0217171
0.0331824
0.0423511
0.0495438
0.0550134
0.0591703
0.0627869
0.0650516
-0.263671
-0.255446
-0.235351
-0.202688
-0.163499
-0.1236
-0.086644
-0.0542802
-0.0268016
-0.00386155
0.015063
0.030497
0.0429214
0.0527683
0.0604192
0.0661886
0.0703447
0.0733305
0.0758633
0.0769479
-0.221345
-0.214349
-0.194619
-0.162777
-0.125113
-0.0871632
-0.0524421
-0.0224019
0.00279632
0.0235545
0.0404142
0.0539048
0.0645075
0.072652
0.0787107
0.0829937
0.085797
0.0875852
0.0889523
0.0887264
-0.176392
-0.170825
-0.151575
-0.12099
-0.0851075
-0.0493985
-0.017157
0.010363
0.0331186
0.0515578
0.0662352
0.0776821
0.086378
0.0927464
0.0971486
0.0998967
0.101326
0.101879
0.101892
0.100051
-0.129282
-0.125097
-0.106685
-0.0775675
-0.043758
-0.0105542
0.0189934
0.0438229
0.0639961
0.0799984
0.0923934
0.101712
0.108429
0.11296
0.115654
0.116838
0.116889
0.116134
0.114471
0.110648
-0.080488
-0.0774991
-0.0602415
-0.0328298
-0.0013593
0.0291081
0.0557798
0.0777759
0.0952502
0.108718
0.118749
0.12587
0.130551
0.133195
0.134146
0.133754
0.132415
0.130232
0.126634
0.121136
-0.0302643
-0.0285117
-0.0125937
0.0128797
0.041779
0.0693161
0.0929629
0.112011
0.126695
0.137553
0.145157
0.150028
0.15263
0.153353
0.15254
0.150562
0.147787
0.144036
0.138491
0.133492
0.0209872
0.0214417
0.0358763
0.0592047
0.0853375
0.109789
0.130296
0.146311
0.158138
0.166333
0.171466
0.174054
0.174549
0.173333
0.170747
0.167169
0.16289
0.157551
0.150607
0.145771
0.0728313
0.0719444
0.0847701
0.10578
0.12899
0.150239
0.167527
0.180454
0.189383
0.194884
0.197524
0.197812
0.19619
0.193031
0.188676
0.18349
0.177685
0.170852
0.1628
0.157529
0.124827
0.122572
0.133683
0.152237
0.172409
0.190379
0.204401
0.214214
0.22023
0.22303
0.223175
0.221166
0.217433
0.212341
0.206228
0.199436
0.192118
0.183895
0.17485
0.16884
0.176531
0.172895
0.182208
0.198205
0.215265
0.229917
0.240662
0.247365
0.250481
0.250595
0.248263
0.243977
0.238156
0.231156
0.223308
0.214929
0.206134
0.196597
0.18658
0.179668
0.227501
0.222485
0.229941
0.243319
0.257232
0.268566
0.276058
0.279684
0.279936
0.277402
0.272633
0.266108
0.258238
0.24937
0.239821
0.229889
0.219664
0.208876
0.197899
0.190007
0.277298
0.270917
0.276485
0.287216
0.29799
0.306044
0.310337
0.310949
0.3084
0.30328
0.296132
0.287426
0.277561
0.266876
0.255676
0.244236
0.232635
0.220653
0.20873
0.199818
0.325494
0.317777
0.321452
0.329548
0.337229
0.342076
0.343257
0.340944
0.335681
0.328059
0.318611
0.307798
0.296009
0.283572
0.270782
0.257893
0.244975
0.231857
0.219011
0.209066
0.371673
0.362662
0.364466
0.369976
0.374647
0.376394
0.374582
0.36946
0.361594
0.351574
0.339925
0.327097
0.313469
0.299359
0.285051
0.270782
0.256616
0.242423
0.228688
0.217713
0.415438
0.405187
0.40517
0.408176
0.409957
0.408746
0.404085
0.396296
0.385963
0.373669
0.359935
0.345199
0.329832
0.314143
0.298401
0.282829
0.26749
0.25229
0.237707
0.225723
0.45641
0.444986
0.443224
0.443843
0.442888
0.43889
0.431554
0.421264
0.408617
0.394196
0.378509
0.361989
0.344997
0.327832
0.310752
0.293965
0.277535
0.261403
0.246021
0.23306
0.494234
0.481718
0.478311
0.476692
0.473187
0.466601
0.456788
0.444186
0.429401
0.413013
0.395525
0.377359
0.358868
0.340342
0.32203
0.304125
0.286694
0.269709
0.253585
0.239694
0.528584
0.515065
0.510139
0.506458
0.500618
0.491672
0.479603
0.464896
0.448169
0.429994
0.410868
0.391207
0.371356
0.351596
0.332166
0.313247
0.294912
0.27716
0.260357
0.245597
0.559159
0.54474
0.53844
0.532904
0.524969
0.513912
0.49983
0.483247
0.464787
0.445019
0.424435
0.403443
0.38238
0.361522
0.341097
0.321278
0.302141
0.283712
0.2663
0.250745
0.585695
0.570488
0.562978
0.555815
0.54605
0.533154
0.51732
0.499105
0.479137
0.457985
0.436133
0.413984
0.391869
0.370058
0.348769
0.328167
0.308338
0.289325
0.271381
0.255116
0.607958
0.592082
0.583547
0.575006
0.563696
0.549249
0.531941
0.512352
0.491117
0.4688
0.445881
0.422759
0.399759
0.377146
0.355132
0.333874
0.313464
0.293963
0.27557
0.258694
0.625752
0.609335
0.59997
0.590319
0.577766
0.562075
0.543583
0.522892
0.500638
0.477386
0.453611
0.429707
0.405998
0.382742
0.360145
0.338361
0.317487
0.297597
0.278843
0.261468
0.638917
0.622093
0.612107
0.601628
0.588149
0.57153
0.552155
0.530643
0.507631
0.483681
0.459267
0.434781
0.410542
0.386807
0.363776
0.3416
0.320382
0.300204
0.281178
0.263428
0.647333
0.630239
0.619851
0.608835
0.594757
0.577538
0.557591
0.535545
0.51204
0.487637
0.462808
0.437943
0.41336
0.389312
0.366
0.34357
0.322128
0.301763
0.282563
0.264571
0.439168
0.414428
0.390239
0.366799
0.344254
0.322712
0.302263
0.282984
0.264886
-0.198863
-0.194478
-0.191869
-0.190788
-0.189058
-0.190938
-0.189552
-0.185506
-0.191919
-0.19055
-0.186578
-0.193131
-0.191499
-0.187756
-0.184921
-0.193895
-0.191986
-0.188622
-0.185973
-0.193931
-0.191856
-0.188935
-0.18649
-0.184823
-0.193399
-0.191219
-0.188637
-0.186319
-0.18461
-0.183575
-0.19261
-0.190457
-0.187956
-0.185551
-0.18375
-0.182585
-0.188596
-0.188055
-0.185863
-0.183703
-0.18212
-0.181066
-0.18051
-0.185342
-0.185165
-0.183057
-0.18105
-0.179706
-0.178878
-0.178487
-0.181598
-0.18177
-0.179788
-0.177944
-0.176842
-0.176257
-0.176053
-0.17746
-0.178082
-0.176308
-0.174641
-0.173752
-0.173375
-0.173324
-0.17309
-0.174156
-0.172631
-0.171142
-0.170437
-0.170233
-0.17031
-0.168535
-0.17
-0.168747
-0.16744
-0.166897
-0.166845
-0.167035
-0.16383
-0.165648
-0.164674
-0.163553
-0.163159
-0.163241
-0.16353
-0.15902
-0.161143
-0.160442
-0.159504
-0.159248
-0.159448
-0.159826
-0.154143
-0.156522
-0.156075
-0.155315
-0.155187
-0.155492
-0.155948
-0.149221
-0.151812
-0.151598
-0.151006
-0.150995
-0.151394
-0.15192
-0.144271
-0.147036
-0.147034
-0.146599
-0.146696
-0.147178
-0.147764
-0.139309
-0.142217
-0.142405
-0.142114
-0.142308
-0.142864
-0.143504
-0.134352
-0.137371
-0.13773
-0.137571
-0.137853
-0.138473
-0.13916
-0.129414
-0.132517
-0.133027
-0.13299
-0.13335
-0.134026
-0.134753
-0.124509
-0.127671
-0.128316
-0.128388
-0.128816
-0.12954
-0.130302
-0.119652
-0.122848
-0.123611
-0.123782
-0.124271
-0.125034
-0.125825
-0.114855
-0.118064
-0.118929
-0.119188
-0.119729
-0.120525
-0.121339
-0.110129
-0.113332
-0.114283
-0.11462
-0.115205
-0.116027
-0.11686
-0.105483
-0.108663
-0.109686
-0.110091
-0.110713
-0.111555
-0.112402
-0.100924
-0.104068
-0.105148
-0.105611
-0.106264
-0.107121
-0.107977
-0.0964584
-0.0995534
-0.100679
-0.101192
-0.101869
-0.102735
-0.103597
-0.0920915
-0.0951275
-0.0962873
-0.0968424
-0.0975384
-0.0984095
-0.0992732
-0.0878279
-0.0907963
-0.0919805
-0.0925702
-0.0932801
-0.0941521
-0.0950145
-0.0836718
-0.086565
-0.0877649
-0.0883828
-0.089102
-0.0899713
-0.0908296
-0.0796264
-0.0824384
-0.0836461
-0.0842863
-0.085011
-0.0858745
-0.0867259
-0.0756947
-0.0784203
-0.079629
-0.0802863
-0.0810129
-0.0818678
-0.0827101
-0.0718787
-0.074514
-0.0757175
-0.0763872
-0.0771128
-0.0779568
-0.0787878
-0.06818
-0.0707219
-0.071915
-0.072593
-0.0733149
-0.0741458
-0.0749639
-0.0645996
-0.0670461
-0.068224
-0.0689066
-0.0696225
-0.0704387
-0.0712423
-0.061138
-0.0634876
-0.0646466
-0.0653305
-0.0660383
-0.0668384
-0.0676263
-0.0577952
-0.0600474
-0.0611839
-0.0618663
-0.0625645
-0.0633473
-0.0641184
-0.0545706
-0.0567256
-0.0578369
-0.0585152
-0.0592023
-0.059967
-0.0607206
-0.0514636
-0.0535219
-0.0546058
-0.055278
-0.0559528
-0.0566987
-0.0574339
-0.048473
-0.0504358
-0.0514904
-0.0521546
-0.0528163
-0.0535428
-0.0542593
-0.0455974
-0.0474663
-0.0484902
-0.0491449
-0.0497926
-0.0504995
-0.051197
-0.0428351
-0.0446121
-0.0456043
-0.0462481
-0.0468815
-0.0475684
-0.0482467
-0.0401845
-0.0418717
-0.0428315
-0.0434634
-0.0440819
-0.044749
-0.0454079
-0.0376433
-0.0392433
-0.0401703
-0.0407895
-0.0413928
-0.0420401
-0.0426798
-0.0352095
-0.036725
-0.037619
-0.0382248
-0.0388129
-0.0394406
-0.0400612
-0.0328808
-0.0343147
-0.0351757
-0.0357677
-0.0363405
-0.0369488
-0.0375505
-0.0306549
-0.03201
-0.0328385
-0.0334163
-0.0339737
-0.0345631
-0.0351462
-0.0285293
-0.0298088
-0.0306051
-0.0311684
-0.0317108
-0.0322816
-0.0328465
-0.0265015
-0.0277086
-0.0284733
-0.0290221
-0.0295495
-0.0301022
-0.0306493
-0.0245692
-0.0257069
-0.0264407
-0.026975
-0.0274878
-0.0280229
-0.0285526
-0.0227296
-0.0238013
-0.024505
-0.0250248
-0.0255233
-0.0260414
-0.0265542
-0.0209805
-0.0219893
-0.0226637
-0.0231693
-0.0236538
-0.0241554
-0.0246519
-0.0193193
-0.0202683
-0.0209145
-0.021406
-0.021877
-0.0223626
-0.0228435
-0.0177437
-0.018636
-0.0192549
-0.0197327
-0.0201905
-0.0206609
-0.0211265
-0.0162511
-0.0170898
-0.0176826
-0.0181469
-0.018592
-0.0190477
-0.0194988
-0.0148393
-0.0156275
-0.0161952
-0.0166465
-0.0170793
-0.0175209
-0.017958
-0.0135061
-0.0142467
-0.0147904
-0.015229
-0.0156501
-0.0160783
-0.016502
-0.0122493
-0.0129451
-0.013466
-0.0138925
-0.0143022
-0.0147177
-0.0151286
-0.0110669
-0.0117207
-0.0122199
-0.0126346
-0.0130335
-0.0134369
-0.0138357
-0.00995673
-0.0105714
-0.01105
-0.0114535
-0.0118421
-0.012234
-0.0126213
-0.0089171
-0.00949523
-0.00995442
-0.0103472
-0.0107261
-0.0111071
-0.0114835
-0.00794624
-0.00849041
-0.00893135
-0.00931388
-0.00968353
-0.0100543
-0.0104205
-0.00704255
-0.00755527
-0.00797911
-0.00835197
-0.0087129
-0.00907407
-0.0094306
-0.0062046
-0.0066883
-0.00709618
-0.00745993
-0.00781268
-0.00816488
-0.0085124
-0.00543111
-0.00588816
-0.00628123
-0.00663644
-0.00698155
-0.0073254
-0.00766456
-0.004721
-0.0051537
-0.0055331
-0.00588036
-0.00621838
-0.00655453
-0.00688594
-0.00407339
-0.004484
-0.00485087
-0.00519079
-0.00552227
-0.00585135
-0.00617564
-0.00348764
-0.00387836
-0.00423385
-0.00456703
-0.00489255
-0.0052152
-0.00553302
-0.00296337
-0.00333636
-0.00368161
-0.00400871
-0.00432884
-0.0046457
-0.00495769
-0.00250048
-0.00285787
-0.00319406
-0.00351572
-0.00383107
-0.00414279
-0.00444962
-0.00209919
-0.00244311
-0.00277141
-0.00308832
-0.00339949
-0.00370676
-0.00400909
-0.00176016
-0.00209274
-0.00241435
-0.00272722
-0.00303486
-0.00333835
-0.00363687
-0.00148429
-0.00180768
-0.00212386
-0.00243347
-0.00273824
-0.00303868
-0.00333412
-0.00127321
-0.00158954
-0.00190155
-0.00220864
-0.00251123
-0.00280935
-0.00310244
-0.00112985
-0.00144145
-0.00175063
-0.002056
-0.00235708
-0.00265358
-0.00294503
-0.00105301
-0.00136275
-0.00167102
-0.00197594
-0.00227656
-0.00257249
-0.00286332
-0.0847218
-0.0924768
-0.0999699
-0.107195
-0.114151
-0.120845
-0.12728
-0.13346
-0.139391
-0.145073
-0.150508
-0.155693
-0.160623
-0.165284
-0.169659
-0.173724
-0.177419
-0.180824
-0.183544
-0.186946
-0.0808308
-0.0882943
-0.0955169
-0.102497
-0.109237
-0.11574
-0.12201
-0.12805
-0.133864
-0.139451
-0.144812
-0.149945
-0.154843
-0.159499
-0.163891
-0.168039
-0.171824
-0.175596
-0.178624
-0.183095
-0.0770954
-0.0842332
-0.0911503
-0.097848
-0.104329
-0.110598
-0.116657
-0.122511
-0.128162
-0.133613
-0.138864
-0.143917
-0.148768
-0.153429
-0.157868
-0.16218
-0.166172
-0.1704
-0.173836
-0.178596
-0.0734992
-0.0803408
-0.0869846
-0.0934321
-0.0996865
-0.105752
-0.111632
-0.117332
-0.122855
-0.128204
-0.133383
-0.138398
-0.143245
-0.147954
-0.152475
-0.15696
-0.161115
-0.165562
-0.169174
-0.173797
-0.070056
-0.0766218
-0.0830117
-0.0892274
-0.0952723
-0.101151
-0.106869
-0.11243
-0.117839
-0.123102
-0.12822
-0.133207
-0.138049
-0.142796
-0.14736
-0.151927
-0.156131
-0.160599
-0.164353
-0.168899
-0.0667625
-0.0730634
-0.0792074
-0.0851966
-0.0910349
-0.0967276
-0.10228
-0.107697
-0.112983
-0.118146
-0.123184
-0.128117
-0.132921
-0.137653
-0.142202
-0.146773
-0.151002
-0.155476
-0.159447
-0.163981
-0.0636072
-0.0696525
-0.0755574
-0.0813244
-0.086958
-0.0924635
-0.0978459
-0.103111
-0.108263
-0.11331
-0.118249
-0.123101
-0.127835
-0.132519
-0.137035
-0.141591
-0.145876
-0.150364
-0.154527
-0.159031
-0.0605814
-0.0663806
-0.072054
-0.0776047
-0.0830373
-0.0883574
-0.0935694
-0.0986801
-0.103692
-0.108615
-0.113443
-0.118202
-0.122858
-0.127482
-0.131968
-0.136502
-0.140835
-0.145299
-0.149572
-0.154046
-0.0576791
-0.0632413
-0.0686909
-0.0740315
-0.0792677
-0.0844052
-0.0894481
-0.0944035
-0.0992729
-0.104068
-0.108782
-0.113442
-0.118016
-0.122572
-0.12702
-0.131504
-0.135847
-0.140257
-0.14459
-0.14905
-0.0548942
-0.0602282
-0.0654613
-0.070598
-0.0756425
-0.0806004
-0.0854758
-0.0902759
-0.0950022
-0.0996669
-0.104263
-0.108818
-0.113303
-0.117775
-0.122166
-0.126576
-0.1309
-0.135251
-0.139613
-0.144056
-0.0522209
-0.0573353
-0.0623591
-0.0672976
-0.072155
-0.0769365
-0.0816461
-0.0862912
-0.0908733
-0.0954044
-0.0998789
-0.10432
-0.108706
-0.113081
-0.1174
-0.121726
-0.126013
-0.130304
-0.134661
-0.13907
-0.0496545
-0.0545572
-0.0593785
-0.0641246
-0.0687993
-0.0734076
-0.0779533
-0.0824439
-0.0868811
-0.0912758
-0.0956244
-0.0999459
-0.104226
-0.108496
-0.112733
-0.116969
-0.121202
-0.125422
-0.129743
-0.134101
-0.0471901
-0.0518887
-0.0565143
-0.0610735
-0.0655699
-0.0700082
-0.0743924
-0.0787293
-0.0830213
-0.0872779
-0.0914979
-0.0956957
-0.0998652
-0.104025
-0.108171
-0.112311
-0.11647
-0.120608
-0.124873
-0.129164
-0.0448219
-0.0493241
-0.0537609
-0.0581388
-0.0624614
-0.0667333
-0.0709584
-0.0751431
-0.0792902
-0.083408
-0.0874974
-0.0915691
-0.095623
-0.0996688
-0.103714
-0.107751
-0.111823
-0.115869
-0.120064
-0.124273
-0.0425456
-0.0468588
-0.0511132
-0.0553154
-0.0594689
-0.063578
-0.0676468
-0.071681
-0.0756841
-0.0796629
-0.0836205
-0.087564
-0.0914982
-0.0954256
-0.0993623
-0.10329
-0.107266
-0.111214
-0.115325
-0.119441
-0.0403573
-0.0444882
-0.0485665
-0.0525984
-0.0565874
-0.0605376
-0.0644531
-0.0683389
-0.0721992
-0.0760395
-0.0798643
-0.0836783
-0.0874893
-0.0912956
-0.0951184
-0.0989337
-0.102805
-0.106647
-0.110662
-0.114677
-0.0382527
-0.0422079
-0.0461163
-0.0499832
-0.0538125
-0.0576077
-0.061373
-0.0651128
-0.0688319
-0.0725345
-0.0762264
-0.0799101
-0.0835959
-0.0872789
-0.0909839
-0.0946826
-0.0984424
-0.102174
-0.106084
-0.109992
-0.0362277
-0.0400139
-0.0437582
-0.0474656
-0.0511397
-0.0547839
-0.0584023
-0.061999
-0.0655786
-0.0691449
-0.0727041
-0.0762576
-0.0798169
-0.0833754
-0.0869592
-0.0905383
-0.0941816
-0.0977985
-0.101595
-0.105391
-0.0342788
-0.0379022
-0.0414881
-0.0450413
-0.0485649
-0.0520623
-0.0555373
-0.0589936
-0.062436
-0.0658677
-0.0692952
-0.072719
-0.0761512
-0.0795841
-0.0830446
-0.0865019
-0.0900249
-0.0935235
-0.0972009
-0.10088
-0.0324024
-0.0358691
-0.0393024
-0.0427065
-0.0460843
-0.0494389
-0.052774
-0.0560931
-0.0594009
-0.0626999
-0.065997
-0.0692921
-0.0725972
-0.0759044
-0.0792403
-0.0825744
-0.0859742
-0.089352
-0.0929053
-0.0964628
-0.0305951
-0.033911
-0.0371973
-0.0404574
-0.0436941
-0.0469101
-0.050109
-0.0532941
-0.0564699
-0.0596387
-0.062807
-0.0659747
-0.0691534
-0.0723353
-0.0755461
-0.0787564
-0.0820311
-0.0852861
-0.0887119
-0.0921447
-0.0288539
-0.0320246
-0.0351693
-0.0382906
-0.0413907
-0.0444723
-0.0475388
-0.0505933
-0.0536401
-0.0566811
-0.0597228
-0.0627648
-0.0658183
-0.0688757
-0.0719617
-0.075048
-0.0781967
-0.0813278
-0.0846241
-0.0879292
-0.0271762
-0.0302075
-0.0332158
-0.0362029
-0.0391709
-0.0421222
-0.0450602
-0.0479876
-0.0509084
-0.0538245
-0.0567419
-0.0596602
-0.0625901
-0.0655244
-0.0684862
-0.0714491
-0.0744719
-0.0774786
-0.0806444
-0.08382
-0.0255566
-0.0284558
-0.0313333
-0.0341911
-0.0370314
-0.0398567
-0.0426701
-0.0454739
-0.0482719
-0.051066
-0.0538617
-0.0566588
-0.0594671
-0.06228
-0.0651191
-0.0679596
-0.070857
-0.0737396
-0.0767748
-0.07982
-0.0239918
-0.0267667
-0.0295189
-0.0322521
-0.0349692
-0.0376728
-0.0403653
-0.0430492
-0.0457279
-0.0484032
-0.0510801
-0.0537585
-0.0564475
-0.059141
-0.0618592
-0.0645789
-0.0673524
-0.0701117
-0.073017
-0.075932
-0.0224855
-0.0251393
-0.0277706
-0.0303836
-0.0329819
-0.0355677
-0.0381434
-0.040711
-0.0432737
-0.0458333
-0.0483944
-0.050957
-0.0535294
-0.056106
-0.0587055
-0.0613063
-0.0639576
-0.0665953
-0.0693719
-0.0721576
-0.0210369
-0.023572
-0.0260862
-0.0285835
-0.031067
-0.033539
-0.0360015
-0.0384565
-0.0409068
-0.043354
-0.0458025
-0.0482522
-0.0507108
-0.0531731
-0.0556566
-0.0581409
-0.0606723
-0.0631903
-0.0658401
-0.0684984
-0.0196404
-0.022061
-0.0244628
-0.0268487
-0.0292218
-0.031584
-0.0339372
-0.0362832
-0.0386246
-0.0409629
-0.0433021
-0.045642
-0.0479899
-0.0503409
-0.052711
-0.0550816
-0.0574956
-0.0598966
-0.0624219
-0.064955
-0.0182939
-0.0206048
-0.0228984
-0.0251773
-0.027444
-0.0297003
-0.031948
-0.0341887
-0.0364248
-0.0386576
-0.0408908
-0.0431243
-0.0453646
-0.0476073
-0.0498673
-0.052127
-0.0544267
-0.0567134
-0.059117
-0.0615277
-0.0169958
-0.0192014
-0.0213912
-0.0235671
-0.0257313
-0.0278856
-0.0300316
-0.0321707
-0.0343051
-0.036436
-0.0385666
-0.040697
-0.0428331
-0.0449708
-0.0471237
-0.0492758
-0.0514644
-0.05364
-0.0559249
-0.0582163
-0.0157443
-0.0178491
-0.019939
-0.0220159
-0.0240817
-0.0261379
-0.0281859
-0.030227
-0.0322632
-0.0342956
-0.0363272
-0.038358
-0.0403932
-0.0424293
-0.0444787
-0.0465264
-0.0486073
-0.0506751
-0.0528449
-0.0550204
-0.0145377
-0.0165459
-0.0185401
-0.020522
-0.0224931
-0.0244549
-0.0264086
-0.0283554
-0.030297
-0.0322346
-0.0341706
-0.0361051
-0.038043
-0.0399809
-0.0419302
-0.0438772
-0.0458538
-0.0478174
-0.0498757
-0.051939
-0.0133746
-0.0152903
-0.0171927
-0.0190834
-0.0209636
-0.0228347
-0.0246978
-0.0265538
-0.0284045
-0.0302506
-0.0320946
-0.0339365
-0.0357806
-0.0376238
-0.0394766
-0.0413263
-0.0432024
-0.0450655
-0.0470161
-0.0489711
-0.0122536
-0.0140808
-0.0158953
-0.0176984
-0.0194915
-0.0212755
-0.0230515
-0.0248204
-0.0265836
-0.0283419
-0.0300973
-0.03185
-0.0336038
-0.035356
-0.0371158
-0.0388719
-0.0406513
-0.0424176
-0.0442645
-0.0461151
-0.0111736
-0.0129159
-0.0146462
-0.0163655
-0.018075
-0.0197755
-0.0214679
-0.0231532
-0.0248323
-0.0265062
-0.0281767
-0.0298437
-0.0315107
-0.0331754
-0.034846
-0.0365122
-0.0381986
-0.039872
-0.0416192
-0.0433696
-0.0101332
-0.0117945
-0.0134441
-0.0150831
-0.0167125
-0.018333
-0.0199454
-0.0215503
-0.023149
-0.0247419
-0.0263308
-0.0279156
-0.0294994
-0.0310801
-0.0326651
-0.0342451
-0.0358425
-0.0374268
-0.0390784
-0.0407326
-0.00913146
-0.0107152
-0.0122877
-0.0138499
-0.0154025
-0.0169464
-0.018482
-0.0200101
-0.0215316
-0.023047
-0.0245577
-0.0260638
-0.0275679
-0.0290681
-0.0305712
-0.0320686
-0.0335808
-0.0350799
-0.0366401
-0.0382023
-0.00816734
-0.00967694
-0.0111757
-0.0126643
-0.0141437
-0.0156142
-0.0170764
-0.0185309
-0.0199785
-0.0214197
-0.0228556
-0.0242863
-0.0257143
-0.0271376
-0.0285623
-0.0299808
-0.0314115
-0.0328293
-0.0343023
-0.0357766
-0.00723988
-0.00867865
-0.0101069
-0.0115253
-0.0129345
-0.0143349
-0.0157269
-0.0171111
-0.0184881
-0.0198583
-0.0212228
-0.0225815
-0.0239366
-0.0252864
-0.0266364
-0.0279796
-0.0293327
-0.0306728
-0.0320626
-0.0334532
-0.00634817
-0.00771932
-0.00908023
-0.0104315
-0.0117737
-0.0131071
-0.0144321
-0.0157491
-0.0170587