/*--------------------------------*- C++ -*----------------------------------*\
  =========                 |
  \\      /  F ield         | OpenFOAM: The Open Source CFD Toolbox
   \\    /   O peration     | Website:  https://openfoam.org
    \\  /    A nd           | Version:  7
     \\/     M anipulation  |
\*---------------------------------------------------------------------------*/
FoamFile
{
    version     2.0;
    format      ascii;
    class       volScalarField;
    location    "5.6";
    object      p;
}
// * * * * * * * * * * * * * * * * * * * * * * * * * * * * * * * * * * * * * //

dimensions      [0 2 -2 0 0 0 0];

internalField   nonuniform List<scalar> 
344
(
4.5319
4.51907
4.50649
4.49415
4.48203
4.47012
4.45839
4.44685
4.43547
4.42425
4.41318
4.40225
4.39145
4.38077
4.37021
4.35976
4.34942
4.33918
4.32903
4.31898
4.30901
4.29912
4.28932
4.27959
4.26994
4.26035
4.25084
4.24139
4.232
4.22267
4.21341
4.2042
4.19504
4.18594
4.17689
4.16789
4.15894
4.15004
4.14118
4.13237
4.99846
4.99666
4.98683
4.97168
4.95272
4.9312
4.9082
4.88455
4.86083
4.83744
4.81464
4.79255
4.77127
4.7508
4.73115
4.71228
4.69414
4.6767
4.65989
4.64367
4.62799
4.6128
4.59807
4.58375
4.56981
4.55622
4.54295
4.52997
4.51726
4.5048
4.49257
4.48056
4.46874
4.45711
4.44565
4.43436
4.42321
4.41221
4.40134
4.3906
4.37998
4.36947
4.35907
4.34877
4.33857
4.32846
4.31844
4.30851
4.29865
4.28888
4.27917
4.26954
4.25998
4.25049
4.24105
4.23169
4.22238
4.21312
4.20393
4.19479
4.1857
4.17666
4.16767
4.15873
4.14984
4.14099
4.13218
5.00747
5.0057
4.99481
4.97839
4.95803
4.93512
4.91087
4.88615
4.86154
4.83745
4.8141
4.79161
4.77004
4.74938
4.72961
4.71067
4.69251
4.67508
4.65831
4.64214
4.62652
4.6114
4.59674
4.5825
4.56864
4.55512
4.54192
4.52901
4.51636
4.50397
4.4918
4.47984
4.46807
4.45649
4.44507
4.43382
4.42271
4.41175
4.40091
4.3902
4.37961
4.36912
4.35875
4.34847
4.33829
4.3282
4.31819
4.30827
4.29843
4.28867
4.27898
4.26936
4.25981
4.25032
4.2409
4.23154
4.22224
4.21299
4.2038
4.19467
4.18559
4.17655
4.16757
4.15863
4.14974
4.1409
4.1321
5.01724
5.01538
5.00334
4.98546
4.9635
4.93905
4.91343
4.88756
4.86203
4.83722
4.81333
4.79046
4.76862
4.74779
4.72793
4.70896
4.6908
4.6734
4.65668
4.64058
4.62504
4.61001
4.59543
4.58127
4.56749
4.55405
4.54092
4.52808
4.5155
4.50317
4.49106
4.47915
4.46744
4.4559
4.44453
4.43331
4.42224
4.41131
4.40051
4.38982
4.37926
4.3688
4.35844
4.34818
4.33802
4.32795
4.31796
4.30806
4.29823
4.28848
4.2788
4.26919
4.25965
4.25017
4.24076
4.2314
4.22211
4.21287
4.20369
4.19456
4.18548
4.17645
4.16748
4.15854
4.14966
4.14082
4.13202
5.02776
5.02576
5.01239
4.99282
4.96908
4.94296
4.91588
4.8888
4.86233
4.8368
4.81239
4.78915
4.76708
4.74611
4.72618
4.70719
4.68906
4.67171
4.65506
4.63903
4.62358
4.60863
4.59414
4.58007
4.56636
4.553
4.53995
4.52718
4.51467
4.5024
4.49034
4.47849
4.46682
4.45533
4.444
4.43283
4.42179
4.41089
4.40012
4.38946
4.37892
4.36848
4.35815
4.34791
4.33777
4.32771
4.31774
4.30785
4.29803
4.28829
4.27863
4.26903
4.25949
4.25003
4.24062
4.23127
4.22199
4.21276
4.20358
4.19445
4.18538
4.17636
4.16739
4.15846
4.14958
4.14074
4.13195
5.03914
5.03692
5.02202
5.0005
4.97477
4.94681
4.91818
4.88986
4.86242
4.83618
4.81127
4.7877
4.76542
4.74434
4.72436
4.70538
4.68729
4.67
4.65343
4.6375
4.62213
4.60728
4.59288
4.57889
4.56527
4.55199
4.53902
4.52632
4.51387
4.50166
4.48966
4.47786
4.46624
4.45479
4.4435
4.43236
)
;

boundaryField
{
    inlet
    {
        type            zeroGradient;
    }
    outlet
    {
        type            fixedValue;
        value           nonuniform 0();
    }
    wall
    {
        type            zeroGradient;
    }
    wedge1
    {
        type            wedge;
    }
    wedge2
    {
        type            wedge;
    }
    axis
    {
        type            empty;
    }
    procBoundary18to12
    {
        type            processor;
        value           nonuniform List<scalar> 
68
(
4.53486
4.52185
4.5091
4.49659
4.48432
4.47225
4.46039
4.44871
4.43721
4.42588
4.4147
4.40366
4.39277
4.382
4.37136
4.36084
4.35043
4.34012
4.32991
4.3198
4.30978
4.29985
4.29
4.28024
4.27054
4.26092
4.25138
4.2419
4.23248
4.22313
4.21384
4.20461
4.19543
4.18631
4.17724
4.16823
4.15926
4.15034
4.14147
4.13264
4.9824
4.98042
4.97248
4.9595
4.94288
4.9237
4.90285
4.88107
4.85893
4.83683
4.81506
4.79378
4.7731
4.75309
4.73374
4.71507
4.69704
4.67964
4.66282
4.64655
4.63078
4.61549
4.60064
4.5862
4.57213
4.55841
4.545
4.545
)
;
    }
    procBoundary18to13
    {
        type            processor;
        value           uniform 4.1236;
    }
    procBoundary18to19
    {
        type            processor;
        value           nonuniform List<scalar> 4(4.12342 4.12334 4.12327 4.12319);
    }
    procBoundary18to24
    {
        type            processor;
        value           nonuniform List<scalar> 
68
(
4.42136
4.41049
4.39975
4.38912
4.3786
4.36819
4.35787
4.34765
4.33753
4.32748
4.31753
4.30765
4.29785
4.28812
4.27846
4.26887
4.25935
4.24989
4.24049
4.23115
4.22187
4.21264
4.20347
4.19435
4.18529
4.17627
4.1673
4.15837
4.1495
4.14066
4.13187
5.0515
5.04896
5.03226
5.00849
4.98052
4.95057
4.92029
4.89068
4.86227
4.83535
4.80997
4.7861
4.76364
4.74248
4.72249
4.70354
4.68551
4.6683
4.65182
4.63598
4.62071
4.60596
4.59165
4.57775
4.56422
4.55102
4.53812
4.52549
4.5131
4.50095
4.48901
4.47725
4.46568
4.45428
4.44303
4.42136
4.43192
)
;
    }
}


// ************************************************************************* //
