/*--------------------------------*- C++ -*----------------------------------*\
  =========                 |
  \\      /  F ield         | OpenFOAM: The Open Source CFD Toolbox
   \\    /   O peration     | Website:  https://openfoam.org
    \\  /    A nd           | Version:  7
     \\/     M anipulation  |
\*---------------------------------------------------------------------------*/
FoamFile
{
    version     2.0;
    format      ascii;
    class       volScalarField;
    location    "3.6";
    object      T;
}
// * * * * * * * * * * * * * * * * * * * * * * * * * * * * * * * * * * * * * //

dimensions      [0 0 0 1 0 0 0];

internalField   nonuniform List<scalar> 
12096
(
1.87474
1.87425
1.87365
1.87315
1.87268
1.87243
1.8727
1.87418
1.87647
1.87707
1.87642
1.87554
1.8743
1.87169
1.86597
1.85886
1.85584
1.85529
1.85502
1.85487
1.85537
1.8572
1.85924
1.85969
1.85898
1.85788
1.8567
1.85548
1.85423
1.85288
1.8512
1.84904
1.84651
1.8437
1.84106
1.83962
1.83877
1.83815
1.83733
1.8361
1.83507
1.83393
1.83223
1.83093
1.82978
1.82852
1.82748
1.82711
1.82746
1.82872
1.8295
1.82915
1.82788
1.82599
1.82382
1.8219
1.82058
1.8203
1.82132
1.82216
1.8221
1.82117
1.82003
1.81877
1.81721
1.8154
1.81351
1.81136
1.80918
1.80725
1.80479
1.80153
1.79764
1.79331
1.78937
1.78615
1.78319
1.78012
1.77692
1.77352
1.7699
1.7661
1.76301
1.76067
1.7593
1.75828
1.75844
1.75842
1.75967
1.75915
1.75849
1.75059
1.75768
1.79618
1.87984
1.95104
2.00281
2.01823
2.02959
2.03082
2.03363
2.03732
2.03677
2.03623
2.03582
2.03514
2.03527
2.03452
2.03138
2.02543
2.01694
2.00493
1.98756
1.96877
1.95731
1.95282
1.95069
1.949
1.94726
1.94624
1.94681
1.95114
1.95824
1.96158
1.9616
1.96045
1.95688
1.94882
1.93486
1.9192
1.91258
1.91326
1.91652
1.92288
1.93282
1.94675
1.96251
1.97534
1.98598
1.99314
1.99767
1.99896
1.9966
1.98827
1.97723
1.97165
1.97136
1.97122
1.9714
1.97255
1.97585
1.98115
1.98678
1.98938
1.98899
1.98466
1.9778
1.97
1.96019
1.94721
1.93365
1.92552
1.9216
1.91867
1.91738
1.91751
1.91894
1.92407
1.92958
1.92921
1.92595
1.92079
1.91367
1.90266
1.88769
1.87607
1.87278
1.87217
1.87253
1.87561
1.88263
1.89264
1.89742
1.89815
1.89818
1.89752
1.89359
1.88514
1.87835
1.87764
1.87824
1.87982
1.88268
1.88661
1.89132
1.89803
1.90737
1.91634
1.92201
1.92726
1.9319
1.93442
1.93402
1.92939
1.92485
1.92598
1.92993
1.93333
1.93579
1.9382
1.94149
1.94648
1.9539
1.96119
1.96319
1.96158
1.95557
1.94709
1.93666
1.92357
1.90933
1.89914
1.89506
1.8945
1.89531
1.89585
1.89466
1.89194
1.88827
1.88363
1.87828
1.87361
1.87076
1.86966
1.87045
1.87221
1.87212
1.87036
1.86748
1.86349
1.85733
1.85061
1.84749
1.84653
1.84633
1.84732
1.85091
1.85639
1.86087
1.86221
1.86184
1.8596
1.8743
1.87375
1.87283
1.87186
1.87135
1.87108
1.87094
1.87155
1.87398
1.87658
1.87691
1.87645
1.87565
1.87361
1.86855
1.86081
1.85661
1.85617
1.85609
1.85609
1.85644
1.85732
1.85839
1.85888
1.85883
1.85801
1.85691
1.85571
1.8545
1.85332
1.85214
1.85091
1.84945
1.84733
1.84417
1.84086
1.83833
1.8363
1.83419
1.83266
1.83244
1.83339
1.8349
1.83501
1.83467
1.83451
1.83459
1.83487
1.83496
1.83429
1.83295
1.83113
1.82842
1.82503
1.82245
1.82098
1.82082
1.82236
1.82466
1.82637
1.82741
1.82753
1.82734
1.82702
1.82629
1.82473
1.82205
1.818
1.81343
1.80857
1.80318
1.79731
1.79284
1.79062
1.79025
1.79038
1.78884
1.78578
1.78274
1.77986
1.77702
1.77469
1.7733
1.77263
1.77272
1.77297
1.77424
1.7755
1.77731
1.77384
1.77876
1.81697
1.89684
1.98264
2.03163
2.05589
2.06258
2.06087
2.06481
2.06195
2.06092
2.06143
2.05969
2.05815
2.0587
2.0587
2.05684
2.05252
2.04523
2.03533
2.02271
2.00572
1.98879
1.9788
1.97479
1.97336
1.97215
1.97042
1.96879
1.96852
1.97067
1.97691
1.98207
1.98279
1.98267
1.98074
1.97372
1.95958
1.94372
1.93804
1.93928
1.94352
1.95086
1.96267
1.97848
1.99637
2.01342
2.02693
2.03577
2.0421
2.04391
2.04024
2.02854
2.01567
2.01014
2.00916
2.00761
2.00646
2.00798
2.01347
2.02059
2.02611
2.02756
2.02584
2.01943
2.01036
1.99934
1.98584
1.97054
1.95706
1.94897
1.94429
1.94195
1.94165
1.94217
1.94349
1.94784
1.95108
1.94982
1.94524
1.93875
1.93015
1.91754
1.90083
1.88747
1.88277
1.88133
1.88131
1.88413
1.89012
1.89977
1.90561
1.90741
1.90802
1.9082
1.90691
1.90233
1.89682
1.89609
1.89795
1.90149
1.90555
1.91064
1.91738
1.92523
1.9352
1.94655
1.95491
1.96226
1.96837
1.97118
1.97034
1.96519
1.96111
1.96244
1.96638
1.96979
1.97235
1.97446
1.97783
1.98449
1.99394
2.00136
2.00323
2.00092
1.99297
1.98118
1.96634
1.94911
1.93253
1.92116
1.91585
1.91518
1.91772
1.91983
1.91873
1.9148
1.9099
1.90346
1.895
1.88744
1.88306
1.88106
1.88197
1.8862
1.88823
1.88732
1.88456
1.88073
1.87495
1.86697
1.86152
1.86006
1.85954
1.85977
1.86215
1.86736
1.87266
1.87482
1.87434
1.87252
1.86845
1.8735
1.87307
1.87251
1.87177
1.87105
1.87071
1.87053
1.87062
1.87196
1.87501
1.87712
1.87697
1.87625
1.87456
1.87066
1.86398
1.8582
1.85674
1.85657
1.85647
1.85658
1.85675
1.85665
1.85669
1.85694
1.85707
1.85656
1.85549
1.85455
1.85389
1.85323
1.85241
1.8513
1.8494
1.84584
1.841
1.83656
1.83407
1.83281
1.83206
1.83195
1.83326
1.83668
1.83915
1.8403
1.84091
1.84081
1.83964
1.83795
1.83591
1.83315
1.82969
1.82636
1.82423
1.82315
1.82322
1.82422
1.82628
1.82846
1.83007
1.83124
1.8324
1.83306
1.83293
1.83189
1.82994
1.82629
1.81998
1.81207
1.80446
1.79837
1.79455
1.79217
1.79155
1.79307
1.79454
1.79343
1.79078
1.78824
1.78603
1.7841
1.78291
1.78227
1.78233
1.78295
1.78582
1.78862
1.79101
1.79401
1.82602
1.89719
1.99373
2.05056
2.0854
2.0829
2.0889
2.08663
2.08019
2.0816
2.08083
2.08024
2.08052
2.08064
2.08077
2.08019
2.07726
2.0718
2.06349
2.05291
2.03875
2.02169
2.00826
2.00214
2.00104
2.00137
2.00041
1.99766
1.99534
1.99486
1.99657
2.00245
2.00863
2.01022
2.0109
2.01032
2.00497
1.99207
1.97698
1.97141
1.97272
1.97759
1.9851
1.99839
2.01699
2.03731
2.05502
2.06828
2.07695
2.08354
2.08562
2.08151
2.06813
2.05311
2.04542
2.04228
2.03947
2.03857
2.04033
2.04562
2.05384
2.05968
2.06063
2.05828
2.05063
2.03979
2.02677
2.01039
1.99246
1.97815
1.96927
1.96434
1.9634
1.96445
1.96654
1.96904
1.97335
1.97429
1.97174
1.96574
1.95813
1.94792
1.93361
1.91525
1.90055
1.89486
1.89278
1.89249
1.89528
1.90147
1.91153
1.91758
1.91998
1.92148
1.92263
1.92285
1.9213
1.91774
1.91721
1.92019
1.9264
1.9334
1.94084
1.94976
1.95986
1.97075
1.98238
1.99201
2.00065
2.00775
2.0109
2.00985
2.00393
1.99904
1.99957
2.00242
2.00415
2.00512
2.007
2.0117
2.01919
2.02843
2.03578
2.03778
2.03557
2.02761
2.01522
1.99835
1.97803
1.95924
1.94611
1.9384
1.93553
1.93651
1.93996
1.94059
1.93781
1.93205
1.92476
1.91487
1.90444
1.8981
1.89484
1.89503
1.90011
1.90607
1.90668
1.90498
1.9019
1.89735
1.88954
1.88127
1.87844
1.87814
1.87812
1.87942
1.88334
1.88825
1.89074
1.89053
1.88882
1.88559
1.88002
1.873
1.87282
1.87241
1.87186
1.87116
1.87046
1.87019
1.87006
1.87039
1.87245
1.8758
1.87727
1.87688
1.87562
1.87286
1.86736
1.86059
1.85711
1.85627
1.85592
1.85554
1.85493
1.85437
1.85399
1.85401
1.85485
1.85574
1.85572
1.85512
1.85462
1.85411
1.85346
1.8525
1.85077
1.84745
1.842
1.83716
1.83448
1.83332
1.83268
1.83257
1.83362
1.83671
1.84149
1.84357
1.84347
1.84249
1.84112
1.83868
1.83476
1.8308
1.82843
1.82703
1.82631
1.82631
1.82704
1.82871
1.83072
1.83237
1.83354
1.83447
1.83514
1.83531
1.83482
1.83387
1.83191
1.82663
1.81605
1.80475
1.79913
1.79676
1.7949
1.79361
1.79381
1.79546
1.797
1.79701
1.79579
1.79377
1.79202
1.79062
1.79017
1.78977
1.79145
1.79403
1.79913
1.80261
1.825
1.89034
1.98936
2.06091
2.09822
2.0996
2.10531
2.10239
2.10122
2.0984
2.09505
2.09526
2.09642
2.09883
2.10129
2.10226
2.10119
2.09747
2.09067
2.08184
2.07041
2.05422
2.03726
2.02722
2.02536
2.02811
2.03203
2.03215
2.03002
2.02729
2.02651
2.02792
2.03341
2.04066
2.04402
2.04574
2.04597
2.04164
2.02942
2.01513
2.00958
2.0106
2.01506
2.02301
2.03707
2.0564
2.07696
2.09396
2.10593
2.11386
2.11918
2.11996
2.11493
2.10023
2.0834
2.07449
2.07096
2.06907
2.06874
2.06942
2.07289
2.07986
2.08482
2.08542
2.08255
2.07419
2.06322
2.04896
2.03034
2.01101
1.99664
1.98764
1.98358
1.98337
1.98516
1.98841
1.99296
1.99711
1.99706
1.99397
1.98723
1.97857
1.96681
1.95042
1.93034
1.91523
1.90911
1.90688
1.90678
1.90995
1.9169
1.92786
1.93427
1.93717
1.93983
1.94224
1.94383
1.94396
1.94293
1.94327
1.9476
1.95567
1.96473
1.97409
1.98485
1.99687
2.00898
2.021
2.03129
2.04008
2.04677
2.04903
2.04714
2.04015
2.03347
2.03205
2.03215
2.03168
2.03139
2.03414
2.04035
2.04824
2.0576
2.06318
2.0639
2.06114
2.053
2.04139
2.02575
2.00611
1.98727
1.97361
1.96461
1.96014
1.95944
1.96003
1.9598
1.95689
1.95135
1.94387
1.93421
1.92328
1.91554
1.91117
1.91067
1.91475
1.92337
1.92726
1.92711
1.92556
1.92306
1.91766
1.90857
1.90288
1.90231
1.90259
1.90365
1.90657
1.91047
1.91229
1.91177
1.90965
1.90576
1.90145
1.89727
1.87227
1.87271
1.87246
1.87217
1.87154
1.87049
1.8698
1.86964
1.86966
1.87072
1.8737
1.8761
1.87634
1.87602
1.87426
1.86939
1.86211
1.85718
1.85526
1.85421
1.85336
1.85275
1.85236
1.85199
1.85184
1.85256
1.8542
1.85532
1.8554
1.85501
1.85446
1.85381
1.85298
1.85156
1.84894
1.84479
1.83973
1.83617
1.83492
1.83449
1.83459
1.83567
1.83756
1.83999
1.84258
1.84323
1.84242
1.84051
1.83696
1.83329
1.83133
1.83024
1.82951
1.82932
1.83011
1.83192
1.83369
1.83462
1.83519
1.83597
1.83656
1.83667
1.83626
1.83542
1.83413
1.83078
1.8219
1.80947
1.80259
1.79999
1.79844
1.79719
1.79625
1.79619
1.79705
1.79877
1.79976
1.79967
1.79861
1.79774
1.797
1.79769
1.79884
1.80275
1.80534
1.8182
1.87518
1.96761
2.06358
2.10334
2.12431
2.12304
2.11993
2.1191
2.11661
2.11455
2.11197
2.11091
2.11206
2.1153
2.11873
2.11988
2.11969
2.11712
2.11022
2.10065
2.08725
2.06932
2.05407
2.04852
2.04959
2.05583
2.06307
2.0652
2.06445
2.06245
2.06192
2.06349
2.06904
2.07657
2.08118
2.08399
2.08457
2.08018
2.0676
2.05304
2.04724
2.04793
2.05163
2.06106
2.07655
2.09566
2.11373
2.12701
2.13607
2.14181
2.14361
2.14293
2.13649
2.12109
2.10523
2.09788
2.09527
2.09477
2.0948
2.09548
2.09746
2.10234
2.10513
2.10455
2.09972
2.09108
2.07958
2.06392
2.04499
2.02638
2.0137
2.00611
2.00387
2.00389
2.0056
2.00907
2.01493
2.01865
2.01867
2.0157
2.00892
1.99994
1.9873
1.96905
1.94721
1.93177
1.92569
1.9235
1.92368
1.92792
1.93712
1.94892
1.95635
1.96029
1.96384
1.96757
1.97063
1.97191
1.97216
1.97368
1.97952
1.98893
1.99924
2.00972
2.02132
2.03382
2.04582
2.05756
2.06773
2.07569
2.0818
2.083
2.07901
2.06933
2.06042
2.05683
2.05529
2.05422
2.05518
2.05786
2.06239
2.06976
2.07926
2.08365
2.08366
2.07959
2.07138
2.06011
2.0451
2.02769
2.01217
2.00088
1.993
1.98793
1.98558
1.98413
1.98171
1.97678
1.96964
1.96138
1.95163
1.94153
1.93417
1.92968
1.92912
1.93284
1.94225
1.94925
1.95078
1.95071
1.95025
1.94801
1.94152
1.9341
1.93228
1.9326
1.93364
1.93573
1.93844
1.93915
1.93825
1.93531
1.93015
1.92533
1.92262
1.92117
1.87137
1.87211
1.87227
1.87215
1.87185
1.87114
1.87015
1.86964
1.86958
1.87031
1.87229
1.87448
1.87515
1.87475
1.87328
1.86907
1.86216
1.85668
1.85439
1.85336
1.85257
1.85205
1.85178
1.85145
1.8512
1.85143
1.85241
1.85388
1.85489
1.85489
1.85441
1.85388
1.85317
1.85198
1.85004
1.84755
1.84435
1.84036
1.83782
1.8374
1.83749
1.83746
1.83773
1.83826
1.83939
1.84067
1.84021
1.83819
1.83611
1.83452
1.83337
1.8326
1.83245
1.83342
1.83539
1.83668
1.83675
1.8367
1.83706
1.83768
1.83783
1.83717
1.83619
1.83476
1.83177
1.82545
1.81627
1.80847
1.80413
1.80222
1.80095
1.79974
1.7988
1.79864
1.79917
1.80078
1.80236
1.80326
1.80342
1.80385
1.8052
1.80719
1.80961
1.81822
1.85731
1.94145
2.04767
2.10185
2.13705
2.13497
2.13775
2.13518
2.13127
2.13052
2.12975
2.12912
2.12976
2.13164
2.13299
2.134
2.13481
2.13495
2.13313
2.12701
2.11748
2.10271
2.08523
2.07454
2.07352
2.07733
2.08612
2.09428
2.0975
2.09754
2.09677
2.09659
2.0992
2.10555
2.11294
2.11813
2.12155
2.12154
2.11543
2.10086
2.08522
2.07968
2.08034
2.08553
2.09687
2.11148
2.12863
2.14399
2.15377
2.15954
2.16145
2.16118
2.15832
2.14813
2.13236
2.11966
2.11518
2.1142
2.11434
2.11514
2.11657
2.11964
2.12465
2.12554
2.12202
2.11464
2.10475
2.0909
2.07343
2.05449
2.03904
2.0295
2.02558
2.02516
2.02573
2.02749
2.03114
2.03735
2.04034
2.04028
2.03727
2.03084
2.02196
2.00895
1.98955
1.96703
1.95197
1.94597
1.94354
1.94382
1.94899
1.96019
1.97338
1.98287
1.98868
1.99378
1.99903
2.00302
2.00433
2.00444
2.00631
2.01323
2.02381
2.03484
2.0454
2.05622
2.06723
2.07779
2.08842
2.0979
2.10522
2.10884
2.10844
2.10252
2.08974
2.07911
2.07512
2.07363
2.07408
2.07581
2.07825
2.08171
2.08714
2.09431
2.09707
2.09656
2.09217
2.08417
2.07265
2.05803
2.04229
2.03061
2.02339
2.01882
2.01575
2.01293
2.00967
2.00548
1.99886
1.99082
1.98109
1.97002
1.96005
1.95335
1.94969
1.94995
1.95514
1.96533
1.97355
1.97674
1.97775
1.97845
1.97794
1.97406
1.96791
1.96587
1.96651
1.96802
1.96974
1.97067
1.97049
1.969
1.96478
1.95832
1.95266
1.94986
1.94914
1.9511
1.8709
1.87131
1.87196
1.8719
1.87168
1.8714
1.87093
1.87044
1.87029
1.87075
1.87194
1.87292
1.87319
1.87271
1.87109
1.86734
1.86141
1.85674
1.8546
1.85338
1.85244
1.85187
1.85156
1.85129
1.85109
1.85097
1.85119
1.852
1.853
1.85383
1.85403
1.85372
1.85326
1.85241
1.8515
1.85055
1.84885
1.84563
1.84162
1.83874
1.83749
1.83693
1.8361
1.83521
1.83483
1.83535
1.8367
1.83748
1.83709
1.83645
1.83608
1.83622
1.83724
1.83865
1.83898
1.83825
1.83766
1.8376
1.838
1.83817
1.8374
1.83612
1.83417
1.83093
1.82595
1.82022
1.81517
1.81047
1.80685
1.80483
1.80355
1.80239
1.80155
1.80134
1.80172
1.80317
1.80542
1.8074
1.80979
1.81132
1.8137
1.81839
1.84066
1.91729
2.01966
2.10289
2.13837
2.1494
2.15387
2.15043
2.14834
2.14603
2.14354
2.14267
2.14368
2.1464
2.14919
2.15051
2.15054
2.15017
2.14939
2.14656
2.14062
2.13091
2.11649
2.10268
2.09783
2.10008
2.10611
2.11608
2.12337
2.12569
2.1256
2.12534
2.12671
2.1315
2.13901
2.14623
2.15048
2.15183
2.15056
2.14232
2.12468
2.10905
2.10517
2.10672
2.11349
2.12388
2.13758
2.15396
2.16706
2.17344
2.17599
2.17582
2.17421
2.16829
2.15525
2.13836
2.12819
2.12604
2.12641
2.1281
2.13028
2.13296
2.1378
2.14302
2.1428
2.1381
2.12967
2.11657
2.09895
2.0787
2.06085
2.04998
2.04481
2.04458
2.0462
2.04857
2.05147
2.0563
2.06286
2.06478
2.06406
2.06019
2.05396
2.0451
2.03161
2.01162
1.98987
1.97626
1.97102
1.96917
1.97007
1.97592
1.988
2.00223
2.01301
2.02037
2.02688
2.03353
2.03822
2.0391
2.03841
2.03976
2.04688
2.05769
2.06817
2.07741
2.08597
2.09448
2.10396
2.11373
2.12238
2.12767
2.12856
2.12675
2.11772
2.10239
2.09202
2.08879
2.08827
2.08938
2.09177
2.09468
2.09859
2.10471
2.11068
2.11131
2.10835
2.1017
2.09281
2.08124
2.06706
2.05418
2.04632
2.04168
2.03946
2.03871
2.03713
2.03379
2.02842
2.0212
2.01259
2.00211
1.99061
1.9808
1.97463
1.97205
1.97404
1.98175
1.99344
2.00238
2.00601
2.00742
2.00858
2.00832
2.00501
1.99956
1.99833
1.99986
2.00237
2.00432
2.00465
2.00402
2.00125
1.99579
1.98849
1.98238
1.97941
1.97815
1.97875
1.98617
1.87028
1.87037
1.87081
1.87128
1.87133
1.87133
1.87145
1.87176
1.87206
1.87213
1.87199
1.87133
1.87079
1.86989
1.86791
1.86432
1.85967
1.85642
1.85494
1.85412
1.85333
1.8524
1.85156
1.85112
1.85084
1.85069
1.85063
1.85066
1.85105
1.85193
1.85277
1.85316
1.85342
1.85371
1.85378
1.85333
1.85209
1.84931
1.84437
1.83935
1.83613
1.83385
1.83191
1.83074
1.83028
1.83064
1.8331
1.83678
1.83871
1.8396
1.8406
1.84169
1.8419
1.84101
1.83989
1.83885
1.83792
1.83732
1.83702
1.83625
1.83462
1.83231
1.82941
1.82611
1.82294
1.81979
1.81628
1.8128
1.80972
1.80767
1.80638
1.80535
1.80485
1.8048
1.80534
1.80674
1.80942
1.81119
1.81485
1.81653
1.82978
1.88626
1.98033
2.09468
2.13672
2.15589
2.15833
2.16451
2.16534
2.16335
2.16003
2.15737
2.15652
2.15729
2.16157
2.16585
2.1665
2.16628
2.16526
2.16283
2.15867
2.15175
2.14099
2.1282
2.12034
2.11997
2.12441
2.13183
2.1424
2.14819
2.149
2.14862
2.14902
2.15258
2.15862
2.16695
2.17295
2.17484
2.17461
2.17096
2.15819
2.13875
2.12634
2.12492
2.12758
2.13358
2.14236
2.15493
2.16988
2.18109
2.1854
2.18632
2.18536
2.18265
2.17507
2.16068
2.14376
2.13614
2.13452
2.13465
2.1364
2.14029
2.14616
2.15393
2.15767
2.15609
2.15116
2.14191
2.1265
2.10531
2.08322
2.06917
2.06245
2.06079
2.06226
2.06603
2.07054
2.07595
2.08355
2.0913
2.09265
2.09117
2.08652
2.0795
2.06944
2.05456
2.03379
2.01394
2.00362
2.00029
1.99986
2.0021
2.00958
2.02209
2.03581
2.047
2.05506
2.062
2.06883
2.07248
2.07238
2.07032
2.07031
2.07549
2.08495
2.09392
2.10178
2.10969
2.11851
2.12674
2.13446
2.14172
2.14459
2.14417
2.1403
2.12786
2.11084
2.10051
2.0984
2.09857
2.10038
2.10348
2.10725
2.11241
2.11957
2.12469
2.12495
2.12152
2.11394
2.10342
2.08954
2.07529
2.06585
2.06106
2.05951
2.05951
2.05922
2.05724
2.05374
2.0486
2.04128
2.03207
2.02139
2.01078
2.0028
1.99834
1.99758
2.00181
2.0119
2.02541
2.03526
2.03907
2.04041
2.04089
2.03945
2.03425
2.02833
2.02727
2.02871
2.03208
2.03486
2.03548
2.03506
2.0326
2.0267
2.01881
2.01219
2.00862
2.00712
2.0069
2.01068
2.02319
1.86951
1.86954
1.86994
1.87065
1.87132
1.87192
1.87269
1.87339
1.87343
1.87318
1.87227
1.87054
1.86835
1.86625
1.86385
1.8609
1.85824
1.85628
1.85527
1.85465
1.85403
1.85327
1.85231
1.85134
1.85064
1.85028
1.8499
1.84957
1.84946
1.84999
1.85134
1.85264
1.8534
1.85388
1.85394
1.85334
1.85214
1.85008
1.84549
1.83884
1.83399
1.8317
1.83052
1.82978
1.82943
1.82965
1.8316
1.83645
1.84195
1.84421
1.84456
1.84403
1.84312
1.84194
1.84034
1.83856
1.83689
1.8352
1.83342
1.83196
1.83049
1.82879
1.82717
1.8255
1.82339
1.82088
1.81818
1.8153
1.81256
1.8108
1.80976
1.80922
1.80928
1.80994
1.8109
1.81161
1.81265
1.81425
1.82204
1.85547
1.94619
2.05902
2.13204
2.15915
2.17012
2.17943
2.17759
2.17603
2.17518
2.17407
2.17173
2.17074
2.17232
2.17695
2.17945
2.17954
2.17884
2.17671
2.17362
2.16857
2.16
2.14849
2.13821
2.13518
2.13703
2.14293
2.15221
2.16322
2.16821
2.16882
2.16908
2.17098
2.17431
2.17998
2.18794
2.19185
2.1921
2.19071
2.18335
2.16706
2.14773
2.13954
2.13998
2.14286
2.14727
2.15468
2.16605
2.18018
2.18994
2.19275
2.19273
2.19135
2.18809
2.18032
2.16632
2.15171
2.14557
2.14389
2.14345
2.14398
2.14743
2.15507
2.16437
2.16711
2.1662
2.16203
2.152
2.13463
2.11113
2.09167
2.08244
2.07881
2.07854
2.0803
2.08453
2.09055
2.09851
2.10916
2.11798
2.11967
2.11886
2.11446
2.10646
2.09463
2.07675
2.05402
2.03672
2.03075
2.03036
2.03228
2.03806
2.0469
2.05841
2.07168
2.08251
2.09019
2.09689
2.10232
2.10318
2.10024
2.09449
2.09301
2.09667
2.10374
2.11256
2.12226
2.1309
2.13815
2.14488
2.15242
2.15772
2.15826
2.1568
2.15047
2.13535
2.11638
2.10702
2.10543
2.10576
2.10772
2.11146
2.11652
2.12401
2.13248
2.13582
2.13553
2.13181
2.12437
2.11361
2.10018
2.08851
2.08182
2.07904
2.07794
2.07811
2.07824
2.07677
2.0732
2.06756
2.05959
2.049
2.03757
2.02879
2.02411
2.02256
2.02483
2.03223
2.04317
2.05723
2.06868
2.07374
2.07532
2.0756
2.07257
2.06384
2.05462
2.05209
2.05258
2.05581
2.05954
2.06076
2.06048
2.05879
2.05398
2.0463
2.03937
2.03523
2.03329
2.03338
2.03692
2.04498
2.05631
1.86883
1.8689
1.86933
1.87034
1.87184
1.87337
1.87429
1.87433
1.87422
1.87381
1.87259
1.87015
1.86649
1.86293
1.86005
1.85757
1.85617
1.85573
1.85553
1.85498
1.85443
1.8538
1.85286
1.85154
1.85024
1.84942
1.84898
1.84863
1.84848
1.84887
1.8502
1.85195
1.85297
1.85312
1.85287
1.85239
1.85164
1.84979
1.84607
1.84007
1.8342
1.83144
1.83031
1.82975
1.8294
1.82973
1.83175
1.83556
1.84039
1.84401
1.84479
1.8442
1.84331
1.84185
1.83908
1.83579
1.83332
1.8314
1.82992
1.82899
1.82871
1.8285
1.82743
1.8261
1.82453
1.82264
1.82042
1.81798
1.81584
1.81462
1.81426
1.81445
1.81486
1.81514
1.81444
1.81569
1.81654
1.83383
1.903
2.00695
2.11433
2.15992
2.18206
2.18446
2.18881
2.19383
2.19287
2.18888
2.18546
2.18376
2.18298
2.18361
2.1877
2.19002
2.18984
2.18837
2.1855
2.18122
2.17441
2.16517
2.1541
2.14739
2.14694
2.14964
2.15547
2.16533
2.17699
2.18297
2.18509
2.18652
2.18869
2.19216
2.19828
2.20399
2.20525
2.20462
2.20158
2.19097
2.17223
2.15482
2.15049
2.15128
2.15346
2.15701
2.16321
2.17349
2.18659
2.19531
2.19752
2.19728
2.19595
2.19216
2.18418
2.17159
2.16048
2.15586
2.15417
2.1534
2.15381
2.15715
2.16483
2.17206
2.17301
2.17217
2.16841
2.15852
2.14053
2.1186
2.10467
2.09908
2.0974
2.09729
2.09859
2.10266
2.10956
2.11915
2.13126
2.13983
2.14226
2.14204
2.13808
2.1305
2.11684
2.09475
2.07088
2.05854
2.05729
2.05914
2.0633
2.07029
2.08035
2.09343
2.10722
2.11646
2.12251
2.12656
2.1283
2.12683
2.11917
2.11016
2.10831
2.11128
2.11894
2.1292
2.13847
2.14673
2.15404
2.1607
2.16715
2.1703
2.1699
2.16736
2.15892
2.14133
2.12163
2.11408
2.11276
2.11282
2.11412
2.11751
2.12358
2.13309
2.14008
2.14232
2.14267
2.13973
2.13306
2.12371
2.11363
2.10648
2.1032
2.10113
2.10032
2.1003
2.0993
2.0966
2.09187
2.08499
2.07494
2.062
2.05019
2.04382
2.04198
2.04335
2.04942
2.05946
2.07192
2.0873
2.09923
2.10438
2.10595
2.10597
2.10193
2.09115
2.07855
2.07355
2.073
2.07486
2.07861
2.08012
2.07996
2.0784
2.07438
2.06786
2.06156
2.05837
2.05751
2.05869
2.06203
2.06834
2.07534
2.08022
1.86843
1.86872
1.86945
1.87099
1.87338
1.87469
1.87479
1.87469
1.8745
1.87397
1.8726
1.86984
1.86572
1.86091
1.85706
1.85479
1.85396
1.85385
1.85404
1.85421
1.85378
1.85326
1.85256
1.85138
1.8498
1.84878
1.84836
1.84806
1.84791
1.8484
1.84953
1.85064
1.85157
1.8518
1.85144
1.85082
1.84987
1.84823
1.84566
1.84203
1.83705
1.83278
1.83126
1.83083
1.8308
1.83182
1.83388
1.8359
1.83803
1.84101
1.84316
1.84302
1.84178
1.83921
1.8354
1.83236
1.83074
1.82976
1.82899
1.82826
1.82814
1.82846
1.82811
1.82718
1.82605
1.82462
1.82301
1.82158
1.82053
1.81994
1.81943
1.81889
1.81695
1.81761
1.81629
1.82378
1.86237
1.9589
2.0718
2.14512
2.17525
2.18294
2.1915
2.19337
2.19623
2.19949
2.19936
2.19692
2.19421
2.19382
2.19427
2.19567
2.19629
2.19611
2.1947
2.19163
2.18635
2.17867
2.16862
2.15945
2.15605
2.15664
2.15923
2.16414
2.17289
2.18413
2.19202
2.19604
2.19869
2.20134
2.20539
2.21142
2.21574
2.21625
2.21501
2.2094
2.19564
2.1756
2.1621
2.1596
2.1601
2.16147
2.16407
2.16937
2.17919
2.1916
2.19897
2.20027
2.1999
2.19818
2.19378
2.18541
2.17457
2.16757
2.1652
2.16461
2.16452
2.16576
2.16982
2.17652
2.18073
2.1805
2.17885
2.17357
2.16197
2.14393
2.12675
2.11852
2.11584
2.1153
2.1154
2.11691
2.12123
2.12876
2.13915
2.15062
2.15724
2.15958
2.1592
2.15567
2.14807
2.13335
2.11118
2.09168
2.08486
2.08518
2.088
2.0919
2.09792
2.10735
2.12095
2.13504
2.14305
2.14689
2.14839
2.14812
2.14162
2.12883
2.11981
2.11911
2.1225
2.13071
2.13995
2.14944
2.15847
2.16603
2.17282
2.17882
2.18051
2.17935
2.17587
2.16599
2.14689
2.1283
2.1223
2.12122
2.12098
2.12165
2.125
2.13172
2.14007
2.1439
2.14561
2.14572
2.14313
2.138
2.13174
2.12721
2.12567
2.12503
2.12421
2.12444
2.12478
2.12278
2.11774
2.11104
2.10155
2.08772
2.07172
2.06044
2.05694
2.05713
2.06074
2.06837
2.07941
2.09338
2.11112
2.12391
2.12879
2.12939
2.12837
2.12312
2.11041
2.09701
2.09231
2.09196
2.0937
2.09628
2.09682
2.09573
2.0933
2.08895
2.08285
2.07831
2.07704
2.0774
2.07958
2.08349
2.0898
2.09437
2.0962
2.09482
1.86857
1.86957
1.87075
1.87192
1.87309
1.87449
1.87454
1.87437
1.87415
1.87364
1.87248
1.86994
1.8655
1.85983
1.85463
1.85222
1.85156
1.85134
1.85161
1.85243
1.85264
1.85218
1.85169
1.85093
1.84968
1.84835
1.84789
1.84772
1.84774
1.84815
1.84864
1.84903
1.84946
1.84969
1.84942
1.84876
1.84782
1.84661
1.84508
1.84303
1.84039
1.83683
1.83402
1.83324
1.83348
1.83445
1.83488
1.83505
1.83531
1.83618
1.838
1.83871
1.83739
1.83525
1.83366
1.83236
1.83099
1.83003
1.82928
1.82861
1.82844
1.82878
1.82891
1.82864
1.82799
1.82737
1.82703
1.8267
1.82589
1.82462
1.8217
1.81983
1.81894
1.82024
1.84057
1.91857
2.02867
2.12264
2.15389
2.17593
2.188
2.19439
2.1984
2.2008
2.20309
2.20495
2.2048
2.2037
2.20238
2.20258
2.2028
2.20234
2.20066
2.19777
2.19337
2.18768
2.1806
2.17233
2.16637
2.16457
2.16517
2.16697
2.17048
2.1774
2.18769
2.19708
2.20257
2.20587
2.209
2.21343
2.21863
2.2223
2.22313
2.22172
2.21492
2.19934
2.17954
2.16923
2.16704
2.16713
2.16801
2.17005
2.17472
2.18368
2.195
2.20135
2.20242
2.20183
2.19959
2.19407
2.1847
2.17556
2.17179
2.17123
2.172
2.17385
2.1779
2.18442
2.19008
2.19088
2.18894
2.18547
2.17758
2.16343
2.14573
2.13385
2.12995
2.12941
2.1299
2.13131
2.13414
2.13948
2.14792
2.15867
2.16793
2.17159
2.17257
2.17154
2.16747
2.15865
2.14449
2.12763
2.11687
2.11356
2.11303
2.11412
2.11758
2.12276
2.13109
2.1436
2.1551
2.1602
2.16192
2.16227
2.15885
2.1479
2.13349
2.12588
2.12631
2.13079
2.13854
2.14719
2.15629
2.1653
2.17408
2.18244
2.18804
2.18843
2.18685
2.18286
2.17212
2.15237
2.13544
2.13061
2.12988
2.1297
2.13063
2.13468
2.14214
2.14855
2.14958
2.14939
2.14723
2.14349
2.13945
2.13727
2.13718
2.13927
2.14186
2.1442
2.147
2.14745
2.14437
2.13794
2.1288
2.11489
2.09688
2.07986
2.07183
2.07082
2.07245
2.07667
2.08345
2.09321
2.10686
2.12531
2.13849
2.14375
2.14453
2.14364
2.13719
2.12339
2.1113
2.10801
2.10861
2.11198
2.11452
2.114
2.11131
2.10701
2.10067
2.09404
2.09063
2.09011
2.09095
2.09387
2.09943
2.10537
2.10836
2.10881
2.10734
2.10125
1.8693
1.87045
1.87095
1.87124
1.87193
1.87335
1.87391
1.87369
1.8735
1.87309
1.87215
1.87019
1.86621
1.85951
1.85261
1.84988
1.8492
1.84874
1.84872
1.84946
1.85067
1.85074
1.85035
1.84999
1.84943
1.84854
1.84763
1.84727
1.8472
1.84725
1.84725
1.84722
1.84723
1.84734
1.84737
1.84709
1.84659
1.84581
1.84483
1.84407
1.84298
1.84126
1.83866
1.83601
1.83505
1.83457
1.83406
1.83318
1.83197
1.83104
1.83098
1.83215
1.83394
1.83415
1.83362
1.83295
1.83197
1.83084
1.83007
1.82948
1.82929
1.8296
1.83036
1.83113
1.8317
1.83216
1.83228
1.83148
1.8295
1.82473
1.82356
1.81918
1.82835
1.87809
1.97873
2.088
2.15382
2.18282
2.18909
2.19585
2.20047
2.20627
2.20889
2.20978
2.20979
2.20928
2.20851
2.20793
2.20758
2.20775
2.20721
2.20524
2.20105
2.1949
2.18822
2.18196
2.17647
2.17297
2.17203
2.17259
2.17403
2.17664
2.18167
2.18986
2.19888
2.20564
2.21032
2.21413
2.21776
2.22128
2.22445
2.22522
2.22384
2.21738
2.20321
2.18627
2.17682
2.17368
2.17325
2.17361
2.17518
2.17943
2.18787
2.19798
2.20293
2.2035
2.20254
2.1997
2.1933
2.18405
2.17728
2.17542
2.1754
2.17636
2.17946
2.1862
2.19478
2.19938
2.19953
2.19811
2.19325
2.1816
2.16374
2.14743
2.14061
2.13877
2.13882
2.14005
2.14304
2.14797
2.15542
2.16559
2.17611
2.18181
2.18307
2.183
2.18056
2.1738
2.1633
2.15049
2.14119
2.13867
2.13873
2.139
2.1398
2.1422
2.14637
2.15344
2.16367
2.17063
2.17238
2.17261
2.17011
2.16137
2.14715
2.13409
2.13079
2.13207
2.13736
2.14418
2.15188
2.16075
2.17071
2.18103
2.19019
2.19447
2.1941
2.19263
2.18831
2.17705
2.15734
2.14217
2.13823
2.13771
2.13777
2.13947
2.1449
2.15271
2.1565
2.15633
2.15464
2.15025
2.14419
2.14027
2.13983
2.14222
2.14747
2.15242
2.15793
2.1627
2.16339
2.16156
2.15623
2.1452
2.1269
2.10562
2.09176
2.0881
2.08817
2.08913
2.09184
2.09712
2.10569
2.11816
2.13445
2.14588
2.15061
2.15188
2.15033
2.14265
2.12948
2.12074
2.11954
2.1221
2.12695
2.13052
2.13023
2.12718
2.12144
2.11325
2.10625
2.10292
2.10191
2.10194
2.10382
2.10911
2.11403
2.11644
2.11673
2.11508
2.10938
2.09742
1.8685
1.86922
1.86963
1.86987
1.8704
1.87175
1.87291
1.87281
1.87266
1.87235
1.87168
1.8703
1.86694
1.8598
1.85129
1.8478
1.84703
1.84645
1.84611
1.8464
1.84773
1.84912
1.84902
1.84867
1.84849
1.8482
1.84772
1.84702
1.84655
1.84629
1.84609
1.84594
1.84586
1.84592
1.84612
1.84606
1.84585
1.84579
1.84624
1.84625
1.84594
1.84497
1.84251
1.83864
1.83522
1.83333
1.83171
1.82969
1.82756
1.82622
1.82576
1.82675
1.83031
1.83338
1.8336
1.83328
1.83283
1.83213
1.8314
1.83088
1.83081
1.83154
1.83348
1.83584
1.83704
1.83702
1.83614
1.83358
1.83024
1.82365
1.82354
1.84898
1.93304
2.04559
2.13715
2.16928
2.18776
2.19408
2.19661
2.20118
2.20601
2.20907
2.2104
2.21129
2.21148
2.21127
2.21075
2.21032
2.21027
2.20998
2.20883
2.20513
2.1981
2.19031
2.18461
2.18109
2.17887
2.17804
2.17838
2.1795
2.18162
2.18608
2.19371
2.20237
2.20838
2.21165
2.21429
2.21766
2.22143
2.22382
2.22385
2.22164
2.21491
2.20439
2.19382
2.18592
2.18106
2.17972
2.17977
2.18075
2.18393
2.19059
2.19919
2.2038
2.20421
2.20296
2.19949
2.19244
2.18408
2.17956
2.17845
2.17871
2.18001
2.18374
2.19138
2.20059
2.20465
2.20485
2.20373
2.19925
2.18707
2.16799
2.15398
2.14889
2.14728
2.14732
2.14798
2.15084
2.15711
2.16685
2.17867
2.18757
2.19049
2.19129
2.19046
2.18573
2.17612
2.16394
2.15466
2.15215
2.15314
2.1555
2.15817
2.16119
2.16532
2.1706
2.17655
2.18133
2.18251
2.1826
2.18071
2.17262
2.15792
2.14071
2.13152
2.13087
2.13406
2.14101
2.1483
2.15587
2.16493
2.17592
2.18773
2.19685
2.19943
2.19862
2.19691
2.19207
2.18018
2.16126
2.1483
2.1451
2.14469
2.14503
2.14747
2.15361
2.16047
2.16256
2.16196
2.15916
2.15335
2.14651
2.1434
2.1431
2.14504
2.15058
2.15915
2.16824
2.17216
2.17238
2.17138
2.1681
2.15821
2.13867
2.1169
2.1067
2.10485
2.1049
2.10559
2.10799
2.1126
2.12015
2.13147
2.14572
2.15404
2.15573
2.15565
2.15121
2.13981
2.12727
2.12318
2.12427
2.13037
2.13807
2.14368
2.1439
2.1414
2.13673
2.12923
2.12158
2.11746
2.11543
2.11457
2.11511
2.11807
2.12098
2.12174
2.12139
2.11855
2.1113
2.10139
2.09344
1.86685
1.86732
1.86779
1.86835
1.86915
1.87028
1.87141
1.87164
1.87155
1.87138
1.87097
1.86988
1.86718
1.86044
1.85088
1.84594
1.8449
1.8443
1.84377
1.84367
1.84448
1.84647
1.84771
1.84761
1.84743
1.84738
1.84725
1.84687
1.84627
1.8457
1.84539
1.84525
1.84515
1.84514
1.84543
1.8458
1.84604
1.8464
1.8467
1.84665
1.8461
1.84498
1.84282
1.8392
1.83469
1.83041
1.82714
1.82475
1.82331
1.82258
1.82227
1.82305
1.82639
1.83149
1.83376
1.8338
1.83367
1.83341
1.83301
1.83278
1.8333
1.83541
1.83857
1.83999
1.83941
1.83835
1.83638
1.8355
1.82758
1.83673
1.88989
1.99787
2.11195
2.15588
2.17993
2.18584
2.19449
2.19972
2.20204
2.20548
2.20938
2.21067
2.2108
2.21105
2.21104
2.21124
2.21165
2.21186
2.21124
2.21
2.20758
2.20213
2.1945
2.1888
2.18572
2.18419
2.18359
2.18356
2.18418
2.1858
2.18966
2.19722
2.20655
2.21225
2.21393
2.21478
2.21617
2.21855
2.22021
2.21951
2.21605
2.20983
2.20332
2.19868
2.19465
2.19019
2.18702
2.18639
2.18706
2.18947
2.19479
2.20116
2.20388
2.20393
2.20255
2.19857
2.19123
2.18401
2.18126
2.18084
2.18172
2.18377
2.18814
2.19576
2.20365
2.2069
2.20756
2.20695
2.20325
2.1928
2.1765
2.16378
2.15795
2.15592
2.15579
2.15625
2.15843
2.16437
2.17481
2.18649
2.19242
2.19413
2.19449
2.19258
2.18565
2.17381
2.16297
2.15858
2.1583
2.16128
2.16592
2.17132
2.17769
2.18518
2.19249
2.19677
2.19654
2.19409
2.19097
2.18354
2.16964
2.14989
2.13351
2.12883
2.12929
2.1331
2.13963
2.14718
2.15618
2.16726
2.18067
2.19439
2.20272
2.20378
2.20277
2.20061
2.19484
2.18171
2.16352
2.15304