/*--------------------------------*- C++ -*----------------------------------*\
  =========                 |
  \\      /  F ield         | OpenFOAM: The Open Source CFD Toolbox
   \\    /   O peration     | Website:  https://openfoam.org
    \\  /    A nd           | Version:  7
     \\/     M anipulation  |
\*---------------------------------------------------------------------------*/
FoamFile
{
    version     2.0;
    format      ascii;
    class       volVectorField;
    location    "3.6";
    object      U;
}
// * * * * * * * * * * * * * * * * * * * * * * * * * * * * * * * * * * * * * //

dimensions      [0 1 -1 0 0 0 0];

internalField   nonuniform List<vector> 
12096
(
(2.19544 0.505455 0)
(2.19628 0.506937 0)
(2.19694 0.507979 0)
(2.19798 0.50797 0)
(2.19925 0.507079 0)
(2.2006 0.506052 0)
(2.20278 0.504675 0)
(2.20689 0.501448 0)
(2.21249 0.498002 0)
(2.21562 0.496767 0)
(2.21684 0.497078 0)
(2.21797 0.498236 0)
(2.21814 0.500254 0)
(2.21595 0.503371 0)
(2.20851 0.507383 0)
(2.1981 0.510564 0)
(2.19457 0.511542 0)
(2.19517 0.511769 0)
(2.19602 0.512014 0)
(2.19694 0.512402 0)
(2.19923 0.512981 0)
(2.20364 0.513427 0)
(2.20865 0.513498 0)
(2.21149 0.513377 0)
(2.21277 0.513406 0)
(2.21426 0.513607 0)
(2.21562 0.513819 0)
(2.21692 0.513901 0)
(2.2181 0.513982 0)
(2.21889 0.514017 0)
(2.21886 0.513918 0)
(2.21783 0.514559 0)
(2.21602 0.516955 0)
(2.21378 0.520952 0)
(2.21152 0.524456 0)
(2.21192 0.526373 0)
(2.21308 0.526914 0)
(2.21525 0.526522 0)
(2.21713 0.524346 0)
(2.21901 0.519049 0)
(2.22221 0.513032 0)
(2.22383 0.507501 0)
(2.22454 0.504979 0)
(2.22556 0.505149 0)
(2.22635 0.506656 0)
(2.22683 0.509393 0)
(2.22755 0.512711 0)
(2.22899 0.516611 0)
(2.23111 0.522137 0)
(2.23434 0.528915 0)
(2.23802 0.534781 0)
(2.24101 0.538642 0)
(2.2432 0.540805 0)
(2.24533 0.540963 0)
(2.24736 0.538852 0)
(2.24999 0.535519 0)
(2.25359 0.532552 0)
(2.25829 0.530425 0)
(2.265 0.528109 0)
(2.2705 0.52678 0)
(2.27342 0.526877 0)
(2.27438 0.527138 0)
(2.276 0.52887 0)
(2.27703 0.531482 0)
(2.27745 0.53482 0)
(2.27732 0.539715 0)
(2.27677 0.545787 0)
(2.27582 0.550643 0)
(2.27668 0.552639 0)
(2.27865 0.552792 0)
(2.28041 0.550608 0)
(2.28157 0.54504 0)
(2.28259 0.536166 0)
(2.28369 0.526883 0)
(2.28542 0.52116 0)
(2.28795 0.51945 0)
(2.29064 0.519513 0)
(2.29329 0.51986 0)
(2.29566 0.520127 0)
(2.29787 0.519971 0)
(2.29995 0.519795 0)
(2.30205 0.520022 0)
(2.30571 0.521481 0)
(2.31118 0.52501 0)
(2.31837 0.530229 0)
(2.32722 0.537884 0)
(2.33864 0.544578 0)
(2.35031 0.557519 0)
(2.36293 0.563895 0)
(2.37175 0.573252 0)
(2.3745 0.57077 0)
(2.37549 0.566025 0)
(2.36256 0.539057 0)
(2.32857 0.463445 0)
(2.2633 0.325118 0)
(2.19964 0.174028 0)
(2.16243 0.0818408 0)
(2.11391 -0.0158907 0)
(2.09696 -0.0279833 0)
(2.0948 -0.0335938 0)
(2.09606 -0.0370627 0)
(2.10117 -0.0287803 0)
(2.11446 -0.0199927 0)
(2.12932 -0.00987439 0)
(2.14323 0.0014066 0)
(2.15439 0.0174425 0)
(2.16202 0.0322874 0)
(2.16739 0.0378218 0)
(2.17136 0.0360991 0)
(2.17162 0.0329518 0)
(2.17045 0.0301544 0)
(2.16579 0.0221009 0)
(2.15519 0.00531757 0)
(2.14244 -0.0131044 0)
(2.13805 -0.0210869 0)
(2.13831 -0.0209162 0)
(2.13975 -0.0143472 0)
(2.14139 -0.0039874 0)
(2.14334 0.00501281 0)
(2.14707 0.0117192 0)
(2.15401 0.0181813 0)
(2.16571 0.0267775 0)
(2.17972 0.0355792 0)
(2.18556 0.039667 0)
(2.18556 0.0398366 0)
(2.18475 0.0390584 0)
(2.18113 0.0357747 0)
(2.17236 0.0262502 0)
(2.15706 0.00728593 0)
(2.14001 -0.0164363 0)
(2.13356 -0.0310154 0)
(2.13543 -0.0358746 0)
(2.13869 -0.039197 0)
(2.14443 -0.0413506 0)
(2.15302 -0.0393745 0)
(2.16644 -0.0311218 0)
(2.18119 -0.0157777 0)
(2.19473 0.00178578 0)
(2.20335 0.014311 0)
(2.20656 0.0197493 0)
(2.20816 0.0224486 0)
(2.20482 0.0221014 0)
(2.19646 0.013777 0)
(2.18326 -0.00348236 0)
(2.16901 -0.0231735 0)
(2.16338 -0.0336424 0)
(2.1656 -0.0351339 0)
(2.16848 -0.035116 0)
(2.17408 -0.0339714 0)
(2.1823 -0.0280586 0)
(2.19431 -0.0152895 0)
(2.20968 0.00196262 0)
(2.22429 0.0200922 0)
(2.23518 0.0353297 0)
(2.24044 0.0446319 0)
(2.2411 0.0476363 0)
(2.24066 0.0478007 0)
(2.23893 0.0436419 0)
(2.2343 0.0324055 0)
(2.22499 0.0145732 0)
(2.21384 -0.00258675 0)
(2.20943 -0.0103284 0)
(2.20988 -0.0112669 0)
(2.21101 -0.00987173 0)
(2.21439 -0.00369893 0)
(2.22027 0.00579292 0)
(2.22793 0.0160251 0)
(2.23754 0.0293859 0)
(2.24787 0.0437798 0)
(2.25257 0.0499951 0)
(2.25106 0.0510963 0)
(2.24904 0.0503798 0)
(2.24477 0.0463811 0)
(2.2342 0.0342974 0)
(2.217 0.0154325 0)
(2.20458 0.00179767 0)
(2.20265 -0.00193038 0)
(2.20318 -0.00364407 0)
(2.20642 -0.00475643 0)
(2.21369 -0.00377074 0)
(2.22566 0.000249558 0)
(2.24196 0.005237 0)
(2.25124 0.0049096 0)
(2.25121 0.0016915 0)
(2.24967 -0.00202533 0)
(2.24731 -0.00667229 0)
(2.241 -0.0149272 0)
(2.2273 -0.0261059 0)
(2.21465 -0.0314469 0)
(2.21169 -0.0308177 0)
(2.21132 -0.0301774 0)
(2.21127 -0.030225 0)
(2.21212 -0.030532 0)
(2.21355 -0.0303864 0)
(2.21576 -0.0288662 0)
(2.22069 -0.0254389 0)
(2.22974 -0.019807 0)
(2.23803 -0.0161673 0)
(2.24142 -0.0164709 0)
(2.24461 -0.0181744 0)
(2.24595 -0.0206798 0)
(2.24455 -0.0261457 0)
(2.239 -0.0373618 0)
(2.22855 -0.0541064 0)
(2.21937 -0.0675268 0)
(2.21974 -0.0708473 0)
(2.22307 -0.0705656 0)
(2.22715 -0.0693354 0)
(2.23185 -0.0676925 0)
(2.23729 -0.0650192 0)
(2.24369 -0.0590707 0)
(2.25289 -0.0461593 0)
(2.26728 -0.0270338 0)
(2.2806 -0.00585057 0)
(2.2877 0.0103766 0)
(2.28895 0.0187857 0)
(2.28701 0.0229646 0)
(2.28348 0.023409 0)
(2.27848 0.0174394 0)
(2.27083 0.00397992 0)
(2.2614 -0.0139968 0)
(2.25618 -0.027091 0)
(2.25531 -0.0311293 0)
(2.25871 -0.0298123 0)
(2.26531 -0.0225697 0)
(2.26881 -0.0147701 0)
(2.26932 -0.00950755 0)
(2.26884 -0.00592914 0)
(2.26786 -0.00356328 0)
(2.26578 -0.00359503 0)
(2.26338 -0.00791428 0)
(2.26275 -0.0139178 0)
(2.26446 -0.0180856 0)
(2.26834 -0.0214064 0)
(2.27528 -0.0222206 0)
(2.28181 -0.0191806 0)
(2.28396 -0.0168322 0)
(2.28414 -0.0157598 0)
(2.2834 -0.0146086 0)
(2.28054 -0.0147165 0)
(2.27383 -0.0176647 0)
(2.26624 -0.022134 0)
(2.26434 -0.0242127 0)
(2.26493 -0.0247357 0)
(2.26648 -0.0253591 0)
(2.27034 -0.025555 0)
(2.27748 -0.0239017 0)
(2.28722 -0.0197195 0)
(2.29609 -0.01624 0)
(2.3001 -0.0153034 0)
(2.30246 -0.0170213 0)
(2.30452 -0.0217099 0)
(2.19601 0.505494 0)
(2.1972 0.506451 0)
(2.19785 0.507237 0)
(2.19825 0.507656 0)
(2.1991 0.507675 0)
(2.20011 0.507309 0)
(2.20145 0.506424 0)
(2.20413 0.50496 0)
(2.20925 0.502301 0)
(2.21505 0.500146 0)
(2.21741 0.500247 0)
(2.21848 0.501137 0)
(2.21927 0.502335 0)
(2.21807 0.503717 0)
(2.21184 0.506719 0)
(2.20082 0.511399 0)
(2.19558 0.514078 0)
(2.19616 0.514784 0)
(2.19702 0.515276 0)
(2.19815 0.516211 0)
(2.20021 0.517411 0)
(2.20308 0.517637 0)
(2.20636 0.516363 0)
(2.20918 0.514397 0)
(2.21148 0.513138 0)
(2.21281 0.512822 0)
(2.21425 0.512928 0)
(2.2157 0.512912 0)
(2.21681 0.512872 0)
(2.21761 0.513135 0)
(2.21818 0.513778 0)
(2.21849 0.515175 0)
(2.21826 0.51741 0)
(2.21695 0.520605 0)
(2.21434 0.52394 0)
(2.21137 0.526082 0)
(2.21018 0.52538 0)
(2.21018 0.522823 0)
(2.21055 0.519277 0)
(2.21167 0.51577 0)
(2.21372 0.513119 0)
(2.21723 0.5097 0)
(2.22185 0.50809 0)
(2.22495 0.509233 0)
(2.22654 0.511233 0)
(2.22795 0.514764 0)
(2.22944 0.519813 0)
(2.23106 0.525711 0)
(2.23321 0.530951 0)
(2.23551 0.53453 0)
(2.2374 0.536542 0)
(2.23913 0.537048 0)
(2.23989 0.535598 0)
(2.23988 0.532518 0)
(2.24138 0.53023 0)
(2.24374 0.529507 0)
(2.24767 0.529414 0)
(2.25439 0.529397 0)
(2.26133 0.529511 0)
(2.26671 0.530203 0)
(2.27049 0.530846 0)
(2.27322 0.531968 0)
(2.27525 0.533702 0)
(2.2768 0.53639 0)
(2.27718 0.540505 0)
(2.27676 0.545271 0)
(2.27545 0.549426 0)
(2.27297 0.552126 0)
(2.2706 0.551915 0)
(2.26911 0.548335 0)
(2.26797 0.541446 0)
(2.26704 0.53242 0)
(2.26771 0.524789 0)
(2.27015 0.52036 0)
(2.27538 0.517369 0)
(2.28144 0.51714 0)
(2.28394 0.517807 0)
(2.28586 0.518651 0)
(2.28727 0.519579 0)
(2.28873 0.520503 0)
(2.29014 0.521583 0)
(2.29292 0.523725 0)
(2.29791 0.526726 0)
(2.30461 0.53126 0)
(2.31281 0.536072 0)
(2.32181 0.54501 0)
(2.33286 0.551791 0)
(2.34348 0.563871 0)
(2.34896 0.565691 0)
(2.35076 0.563838 0)
(2.34113 0.543351 0)
(2.3051 0.474411 0)
(2.23458 0.331184 0)
(2.18078 0.197435 0)
(2.09527 0.0490907 0)
(2.07842 0.000839759 0)
(2.06266 -0.0259461 0)
(2.05615 -0.048576 0)
(2.0437 -0.0444496 0)
(2.05538 -0.0331481 0)
(2.07056 -0.0280902 0)
(2.08134 -0.0200602 0)
(2.09502 -0.00999907 0)
(2.10791 0.00370328 0)
(2.11707 0.0200052 0)
(2.1225 0.0306592 0)
(2.12747 0.0353152 0)
(2.13141 0.0353484 0)
(2.13307 0.0335968 0)
(2.13348 0.0272911 0)
(2.12998 0.0141087 0)
(2.12082 -0.00364428 0)
(2.11151 -0.0191358 0)
(2.11009 -0.0241317 0)
(2.11202 -0.0214698 0)
(2.1166 -0.0130494 0)
(2.11896 -0.00415132 0)
(2.11993 0.00322713 0)
(2.12235 0.00972818 0)
(2.12816 0.016877 0)
(2.13816 0.0253807 0)
(2.15152 0.034298 0)
(2.16037 0.0392588 0)
(2.16152 0.0395109 0)
(2.16132 0.0386531 0)
(2.15843 0.0357096 0)
(2.14972 0.0268221 0)
(2.13281 0.00863027 0)
(2.1135 -0.0132519 0)
(2.10569 -0.0258673 0)
(2.10709 -0.0300319 0)
(2.11026 -0.0324323 0)
(2.11582 -0.0338099 0)
(2.12579 -0.0301399 0)
(2.14017 -0.0193346 0)
(2.15627 -0.00534746 0)
(2.17016 0.00655206 0)
(2.1778 0.0134709 0)
(2.18034 0.0153894 0)
(2.18212 0.0161035 0)
(2.17833 0.0146033 0)
(2.16664 0.00669362 0)
(2.14807 -0.00913543 0)
(2.13122 -0.0256321 0)
(2.1262 -0.0339883 0)
(2.12859 -0.0363354 0)
(2.13065 -0.0378177 0)
(2.13461 -0.0376643 0)
(2.14383 -0.0301043 0)
(2.15976 -0.0149524 0)
(2.17936 0.00259257 0)
(2.19587 0.0192258 0)
(2.20681 0.0325574 0)
(2.21237 0.0407844 0)
(2.2131 0.0434702 0)
(2.21248 0.0437021 0)
(2.20945 0.0393051 0)
(2.20302 0.0274078 0)
(2.19386 0.00991782 0)
(2.18653 -0.00575401 0)
(2.18554 -0.0131599 0)
(2.18686 -0.0152028 0)
(2.19099 -0.0135129 0)
(2.19818 -0.00553626 0)
(2.20654 0.00490457 0)
(2.21522 0.0167931 0)
(2.22473 0.0318866 0)
(2.23461 0.0469688 0)
(2.23908 0.0537259 0)
(2.23733 0.0554716 0)
(2.23516 0.054711 0)
(2.23048 0.0501292 0)
(2.21954 0.0371385 0)
(2.202 0.0171419 0)
(2.18893 0.00208085 0)
(2.18676 -0.00231146 0)
(2.18742 -0.00388915 0)
(2.19111 -0.00427227 0)
(2.19858 -0.00229066 0)
(2.20904 0.00267598 0)
(2.22337 0.00993004 0)
(2.2341 0.0122639 0)
(2.235 0.00995617 0)
(2.23391 0.00667196 0)
(2.23202 0.0026535 0)
(2.22756 -0.00440519 0)
(2.21742 -0.0161337 0)
(2.20365 -0.0275274 0)
(2.19664 -0.0318542 0)
(2.19478 -0.0324113 0)
(2.19423 -0.0320469 0)
(2.19371 -0.0310999 0)
(2.19422 -0.0298594 0)
(2.19648 -0.0288336 0)
(2.19915 -0.0273027 0)
(2.20481 -0.0239286 0)
(2.21296 -0.0208697 0)
(2.21669 -0.0208581 0)
(2.22027 -0.0213785 0)
(2.22197 -0.0224783 0)
(2.21993 -0.02678 0)
(2.21265 -0.0374097 0)
(2.20057 -0.0532135 0)
(2.19133 -0.0647138 0)
(2.19156 -0.0670145 0)
(2.19441 -0.0666721 0)
(2.19853 -0.0665762 0)
(2.20387 -0.0671021 0)
(2.20904 -0.0664885 0)
(2.21599 -0.0612251 0)
(2.22842 -0.0479364 0)
(2.24607 -0.0292996 0)
(2.26045 -0.010191 0)
(2.26841 0.00435909 0)
(2.2704 0.0123782 0)
(2.26908 0.016513 0)
(2.26407 0.0183861 0)
(2.25518 0.0140985 0)
(2.24391 0.00358388 0)
(2.23403 -0.00847083 0)
(2.23022 -0.0156963 0)
(2.23019 -0.0189183 0)
(2.23598 -0.019666 0)
(2.24805 -0.0151978 0)
(2.25667 -0.00922517 0)
(2.25914 -0.00505378 0)
(2.25879 -0.00316796 0)
(2.25778 -0.00259888 0)
(2.25437 -0.00426714 0)
(2.24843 -0.0104586 0)
(2.24508 -0.0177153 0)
(2.24613 -0.0217565 0)
(2.24939 -0.0245828 0)
(2.25793 -0.0249916 0)
(2.27058 -0.0199967 0)
(2.2773 -0.0158423 0)
(2.27834 -0.014234 0)
(2.27805 -0.0131194 0)
(2.27582 -0.0120623 0)
(2.2696 -0.0132245 0)
(2.25957 -0.0175653 0)
(2.25385 -0.0210091 0)
(2.25416 -0.0217115 0)
(2.25516 -0.0218824 0)
(2.25725 -0.0218117 0)
(2.26239 -0.0203904 0)
(2.27143 -0.0172469 0)
(2.2811 -0.0137956 0)
(2.28656 -0.0140738 0)
(2.28786 -0.0148538 0)
(2.28946 -0.0174799 0)
(2.29047 -0.0254274 0)
(2.19552 0.505274 0)
(2.19688 0.506226 0)
(2.19782 0.507321 0)
(2.19837 0.508391 0)
(2.19898 0.509153 0)
(2.20017 0.509592 0)
(2.20137 0.50979 0)
(2.20306 0.509817 0)
(2.20666 0.508542 0)
(2.21275 0.505426 0)
(2.21762 0.503562 0)
(2.2187 0.50372 0)
(2.21968 0.504518 0)
(2.21914 0.505501 0)
(2.21442 0.507398 0)
(2.20466 0.511906 0)
(2.19647 0.516407 0)
(2.19579 0.518188 0)
(2.19686 0.518685 0)
(2.19812 0.51918 0)
(2.19986 0.519604 0)
(2.20181 0.519556 0)
(2.20371 0.518547 0)
(2.206 0.516607 0)
(2.20865 0.514013 0)
(2.2117 0.512243 0)
(2.21318 0.511502 0)
(2.21463 0.511701 0)
(2.21589 0.51212 0)
(2.21712 0.512856 0)
(2.21831 0.513919 0)
(2.21945 0.515245 0)
(2.22027 0.517083 0)
(2.2199 0.519284 0)
(2.217 0.521671 0)
(2.21172 0.523196 0)
(2.20738 0.522733 0)
(2.20589 0.521455 0)
(2.20622 0.520249 0)
(2.20717 0.519239 0)
(2.20872 0.518235 0)
(2.21253 0.51685 0)
(2.21953 0.515164 0)
(2.22554 0.515774 0)
(2.22836 0.51902 0)
(2.23052 0.523135 0)
(2.23221 0.526918 0)
(2.23314 0.529807 0)
(2.23399 0.532239 0)
(2.23492 0.533373 0)
(2.23503 0.532468 0)
(2.23441 0.530104 0)
(2.23445 0.527958 0)
(2.23596 0.527433 0)
(2.23793 0.528014 0)
(2.24198 0.529801 0)
(2.24739 0.53169 0)
(2.25381 0.533194 0)
(2.25987 0.534469 0)
(2.26459 0.535545 0)
(2.26862 0.536267 0)
(2.27227 0.537297 0)
(2.27457 0.539405 0)
(2.27578 0.542012 0)
(2.27685 0.544534 0)
(2.27719 0.547265 0)
(2.2749 0.549782 0)
(2.26875 0.549051 0)
(2.26118 0.543059 0)
(2.25615 0.534821 0)
(2.25437 0.528664 0)
(2.25532 0.525583 0)
(2.25735 0.524 0)
(2.26161 0.522237 0)
(2.2699 0.520722 0)
(2.27705 0.519543 0)
(2.27899 0.519256 0)
(2.28046 0.520139 0)
(2.28193 0.52187 0)
(2.28361 0.52374 0)
(2.28593 0.525763 0)
(2.28945 0.528803 0)
(2.29413 0.532789 0)
(2.30011 0.538443 0)
(2.3082 0.545001 0)
(2.3184 0.552105 0)
(2.32619 0.561052 0)
(2.33314 0.560945 0)
(2.32539 0.544446 0)
(2.29298 0.489383 0)
(2.23187 0.364317 0)
(2.15321 0.213694 0)
(2.06745 0.0577318 0)
(2.05198 0.0155152 0)
(2.02832 -0.0332002 0)
(2.01179 -0.0457697 0)
(2.00779 -0.0450979 0)
(2.01559 -0.0460842 0)
(2.01797 -0.0373551 0)
(2.03067 -0.0311438 0)
(2.04748 -0.0246877 0)
(2.05992 -0.0128717 0)
(2.06951 0.00168974 0)
(2.07723 0.0149231 0)
(2.08264 0.0253544 0)
(2.0874 0.0330804 0)
(2.09065 0.0349905 0)
(2.09205 0.0325438 0)
(2.0919 0.0227205 0)
(2.08737 0.00581626 0)
(2.07892 -0.013019 0)
(2.07461 -0.0257049 0)
(2.0755 -0.0278943 0)
(2.08121 -0.0212655 0)
(2.08907 -0.0105768 0)
(2.09187 -0.00108556 0)
(2.09208 0.00638857 0)
(2.09326 0.0116562 0)
(2.09717 0.0163964 0)
(2.1052 0.0226844 0)
(2.1176 0.0313179 0)
(2.12818 0.0378684 0)
(2.13066 0.0389292 0)
(2.13132 0.038479 0)
(2.12887 0.0356695 0)
(2.12037 0.0264407 0)
(2.10328 0.00794749 0)
(2.08326 -0.0129764 0)
(2.07424 -0.0240542 0)
(2.07443 -0.0272916 0)
(2.07726 -0.0289159 0)
(2.08094 -0.0295935 0)
(2.08951 -0.0254659 0)
(2.10489 -0.0133027 0)
(2.12233 0.00116386 0)
(2.1358 0.0125149 0)
(2.14346 0.0184402 0)
(2.14605 0.0197477 0)
(2.14804 0.0194099 0)
(2.14534 0.0158567 0)
(2.13432 0.00496431 0)
(2.11477 -0.0141534 0)
(2.09653 -0.032106 0)
(2.08991 -0.0402667 0)
(2.09082 -0.0421794 0)
(2.09274 -0.0419307 0)
(2.09668 -0.0371848 0)
(2.10578 -0.0260048 0)
(2.12237 -0.0110954 0)
(2.14379 0.0058749 0)
(2.16106 0.0217444 0)
(2.17181 0.0328476 0)
(2.17763 0.0387151 0)
(2.17872 0.0400933 0)
(2.17833 0.0389284 0)
(2.17464 0.0319356 0)
(2.16675 0.0176555 0)
(2.15733 0.00035731 0)
(2.1522 -0.0129126 0)
(2.15262 -0.0188036 0)
(2.15561 -0.0201069 0)
(2.16358 -0.0157305 0)
(2.17483 -0.00654392 0)
(2.18661 0.00448273 0)
(2.19737 0.0177005 0)
(2.20804 0.0340648 0)
(2.21704 0.048689 0)
(2.22042 0.0554299 0)
(2.21831 0.057762 0)
(2.21619 0.0572431 0)
(2.21069 0.0520881 0)
(2.19892 0.0376131 0)
(2.18124 0.0166516 0)
(2.16851 0.000951873 0)
(2.16636 -0.00389516 0)
(2.16719 -0.00552486 0)
(2.17138 -0.00507132 0)
(2.18004 -0.00142088 0)
(2.19134 0.00511079 0)
(2.20564 0.0142667 0)
(2.21592 0.0186071 0)
(2.21631 0.0179824 0)
(2.21525 0.015832 0)
(2.21318 0.0117571 0)
(2.20897 0.0049327 0)
(2.20072 -0.0056772 0)
(2.18805 -0.0177199 0)
(2.17844 -0.0253792 0)
(2.17448 -0.0286922 0)
(2.1732 -0.0308165 0)
(2.17227 -0.0328907 0)
(2.17159 -0.0341622 0)
(2.17302 -0.0333266 0)
(2.17563 -0.0312526 0)
(2.17927 -0.0273561 0)
(2.18479 -0.0228778 0)
(2.18809 -0.0216633 0)
(2.19135 -0.0219049 0)
(2.19276 -0.0234796 0)
(2.19013 -0.028442 0)
(2.18152 -0.0388271 0)
(2.16774 -0.0526472 0)
(2.15778 -0.0617002 0)
(2.15763 -0.063423 0)
(2.16039 -0.0635903 0)
(2.16303 -0.0654839 0)
(2.16672 -0.0683863 0)
(2.17259 -0.0675915 0)
(2.18233 -0.0592826 0)
(2.19686 -0.044654 0)
(2.21512 -0.0277247 0)
(2.23009 -0.0123257 0)
(2.23892 -0.00164352 0)
(2.24249 0.00360729 0)
(2.24279 0.00543977 0)
(2.24 0.00620718 0)
(2.23085 0.00223988 0)
(2.21709 -0.00652867 0)
(2.20586 -0.0146616 0)
(2.20144 -0.0181176 0)
(2.20115 -0.0181184 0)
(2.20568 -0.0136035 0)
(2.21831 -0.00583099 0)
(2.23216 -0.000407474 0)
(2.23945 0.000850268 0)
(2.24109 -0.000165552 0)
(2.24072 -0.00123256 0)
(2.23848 -0.00478344 0)
(2.23212 -0.0125326 0)
(2.22555 -0.021172 0)
(2.22523 -0.025458 0)
(2.22743 -0.0275005 0)
(2.23504 -0.0278967 0)
(2.25044 -0.0225019 0)
(2.26449 -0.0166594 0)
(2.26848 -0.0139089 0)
(2.26889 -0.0131033 0)
(2.2681 -0.0120943 0)
(2.2638 -0.0120974 0)
(2.2534 -0.0152725 0)
(2.24235 -0.0195801 0)
(2.24011 -0.0204675 0)
(2.24139 -0.0200439 0)
(2.24279 -0.0191916 0)
(2.24604 -0.0170368 0)
(2.25289 -0.0128436 0)
(2.2616 -0.00957772 0)
(2.26724 -0.00963211 0)
(2.26908 -0.0121633 0)
(2.27004 -0.0160876 0)
(2.27084 -0.0223953 0)
(2.27016 -0.0312918 0)
(2.19554 0.506109 0)
(2.19678 0.506754 0)
(2.19805 0.50772 0)
(2.19899 0.509133 0)
(2.19942 0.510666 0)
(2.19986 0.511551 0)
(2.20113 0.511903 0)
(2.20255 0.511815 0)
(2.20494 0.511576 0)
(2.20958 0.510253 0)
(2.21595 0.508091 0)
(2.21981 0.507398 0)
(2.22071 0.507704 0)
(2.22067 0.50886 0)
(2.21739 0.51086 0)
(2.20954 0.513984 0)
(2.19976 0.517833 0)
(2.19572 0.520191 0)
(2.19632 0.520653 0)
(2.19765 0.520547 0)
(2.19897 0.520053 0)
(2.20022 0.519102 0)
(2.20168 0.518193 0)
(2.20324 0.517236 0)
(2.20547 0.515781 0)
(2.20891 0.513905 0)
(2.21272 0.512699 0)
(2.21491 0.5127 0)
(2.21613 0.513245 0)
(2.21738 0.514006 0)
(2.21854 0.514699 0)
(2.21964 0.515298 0)
(2.22062 0.515994 0)
(2.22074 0.517236 0)
(2.21853 0.519483 0)
(2.21303 0.522138 0)
(2.20737 0.524236 0)
(2.20515 0.524883 0)
(2.20542 0.525097 0)
(2.20608 0.525404 0)
(2.20714 0.525852 0)
(2.21018 0.525805 0)
(2.21625 0.525044 0)
(2.2233 0.524815 0)
(2.22864 0.52558 0)
(2.23083 0.526797 0)
(2.23235 0.527939 0)
(2.23392 0.528994 0)
(2.23421 0.529494 0)
(2.23233 0.528077 0)
(2.23089 0.526055 0)
(2.23152 0.525669 0)
(2.23295 0.526253 0)
(2.23493 0.527637 0)
(2.23811 0.529735 0)
(2.24229 0.532238 0)
(2.24792 0.535106 0)
(2.25401 0.537673 0)
(2.25915 0.539441 0)
(2.26343 0.540496 0)
(2.26725 0.541336 0)
(2.2706 0.542085 0)
(2.27323 0.543103 0)
(2.27483 0.54406 0)
(2.27646 0.545044 0)
(2.27698 0.546181 0)
(2.27248 0.545392 0)
(2.26028 0.538705 0)
(2.24859 0.529336 0)
(2.24566 0.524669 0)
(2.24682 0.523327 0)
(2.2485 0.523187 0)
(2.25069 0.523602 0)
(2.25599 0.524607 0)
(2.2639 0.524017 0)
(2.2712 0.522579 0)
(2.27568 0.522257 0)
(2.27766 0.523211 0)
(2.27906 0.52478 0)
(2.28072 0.526927 0)
(2.2831 0.53029 0)
(2.28654 0.534299 0)
(2.29139 0.541225 0)
(2.2989 0.54549 0)
(2.30636 0.557163 0)
(2.31268 0.556502 0)
(2.31214 0.54868 0)
(2.28904 0.508772 0)
(2.23549 0.402937 0)
(2.13357 0.2303 0)
(2.07425 0.0966749 0)
(2.02495 0.0143522 0)
(1.98603 -0.0463039 0)
(1.97132 -0.0451582 0)
(1.97818 -0.0546753 0)
(1.97879 -0.0501737 0)
(1.98158 -0.0425618 0)
(1.99053 -0.038027 0)
(2.00148 -0.0302611 0)
(2.01479 -0.0248857 0)
(2.02686 -0.0154183 0)
(2.03573 -0.00267073 0)
(2.04082 0.00968927 0)
(2.04549 0.0213452 0)
(2.04955 0.0292505 0)
(2.05186 0.0300764 0)
(2.05344 0.0254721 0)
(2.05082 0.0134276 0)
(2.0427 -0.00461383 0)
(2.03381 -0.0225534 0)
(2.03234 -0.0306676 0)
(2.03621 -0.0297244 0)
(2.04715 -0.0191386 0)
(2.05791 -0.00655691 0)
(2.06082 0.00309256 0)
(2.06104 0.00886373 0)
(2.06188 0.0124165 0)
(2.06451 0.016308 0)
(2.07057 0.0223257 0)
(2.08094 0.0304274 0)
(2.09132 0.0365584 0)
(2.09469 0.037695 0)
(2.09577 0.0373037 0)
(2.09344 0.0347964 0)
(2.08457 0.025572 0)
(2.06694 0.00684985 0)
(2.0474 -0.0139416 0)
(2.03866 -0.0252989 0)
(2.03902 -0.0292754 0)
(2.04202 -0.0312031 0)
(2.04527 -0.0308032 0)
(2.0537 -0.0214521 0)
(2.06983 -0.00381751 0)
(2.08671 0.0120615 0)
(2.09876 0.0213495 0)
(2.10547 0.0246066 0)
(2.10824 0.0244236 0)
(2.11 0.0230403 0)
(2.10911 0.0181015 0)
(2.10099 0.00427476 0)
(2.08348 -0.0183768 0)
(2.06521 -0.0380649 0)
(2.05839 -0.0455394 0)
(2.05979 -0.0455046 0)
(2.06243 -0.0415038 0)
(2.06772 -0.0328747 0)
(2.07662 -0.0218667 0)
(2.08987 -0.00790606 0)
(2.10712 0.00886855 0)
(2.12314 0.024059 0)
(2.13379 0.0326008 0)
(2.13955 0.0359181 0)
(2.14072 0.035478 0)
(2.14056 0.0307128 0)
(2.13661 0.0195808 0)
(2.12797 0.00285715 0)
(2.11867 -0.013895 0)
(2.1153 -0.0241847 0)
(2.11732 -0.0267816 0)
(2.12251 -0.0243397 0)
(2.13276 -0.0162933 0)
(2.14631 -0.00589469 0)
(2.16021 0.00635899 0)
(2.17382 0.0207488 0)
(2.1863 0.0375849 0)
(2.19483 0.0494962 0)
(2.19703 0.0558177 0)
(2.19497 0.0581429 0)
(2.19268 0.0577321 0)
(2.18625 0.0520708 0)
(2.17287 0.0363377 0)
(2.15449 0.0140572 0)
(2.14264 -0.00164354 0)
(2.14096 -0.00623908 0)
(2.14232 -0.00792183 0)
(2.14759 -0.00747138 0)
(2.15742 -0.0026405 0)
(2.17048 0.00563761 0)
(2.1865 0.0176104 0)
(2.19637 0.0242276 0)
(2.19561 0.0251107 0)
(2.19421 0.0233053 0)
(2.1914 0.0191208 0)
(2.18646 0.0123546 0)
(2.17798 0.00202229 0)
(2.16616 -0.0103218 0)
(2.15573 -0.0198131 0)
(2.1504 -0.0247329 0)
(2.14846 -0.0274692 0)
(2.14713 -0.0298114 0)
(2.14577 -0.0313808 0)
(2.14651 -0.0308936 0)
(2.14884 -0.0296495 0)
(2.15151 -0.0270936 0)
(2.15515 -0.0240396 0)
(2.15743 -0.0226341 0)
(2.15958 -0.0219088 0)
(2.16037 -0.021581 0)
(2.1571 -0.0247222 0)
(2.14811 -0.0346283 0)
(2.13443 -0.0495748 0)
(2.12398 -0.0611446 0)
(2.12259 -0.0656722 0)
(2.12463 -0.0680516 0)
(2.12697 -0.0702492 0)
(2.12971 -0.0701782 0)
(2.13622 -0.0644995 0)
(2.14812 -0.053603 0)
(2.16495 -0.0402818 0)
(2.18351 -0.0244596 0)
(2.19641 -0.010308 0)
(2.20399 -0.00190639 0)
(2.2075 0.00124614 0)
(2.2077 0.00140553 0)
(2.20584 -0.00129793 0)
(2.19899 -0.0084958 0)
(2.18694 -0.0176555 0)
(2.17622 -0.0228073 0)
(2.17302 -0.0222298 0)
(2.17416 -0.0186719 0)
(2.17909 -0.0102138 0)
(2.19002 0.000282841 0)
(2.20195 0.00829268 0)
(2.21049 0.0104879 0)
(2.21411 0.00774539 0)
(2.21453 0.00369903 0)
(2.21327 -0.00248831 0)
(2.20932 -0.0128321 0)
(2.20322 -0.0235926 0)
(2.20193 -0.0290832 0)
(2.20358 -0.0306386 0)
(2.20978 -0.0302211 0)
(2.22425 -0.0233453 0)
(2.24275 -0.0148392 0)
(2.25162 -0.0107252 0)
(2.25322 -0.0104196 0)
(2.25345 -0.0105022 0)
(2.25196 -0.0110936 0)
(2.24483 -0.0139858 0)
(2.23135 -0.0192335 0)
(2.22335 -0.0213463 0)
(2.22362 -0.020282 0)
(2.22504 -0.0190445 0)
(2.22699 -0.0171222 0)
(2.23164 -0.0132199 0)
(2.23851 -0.00903672 0)
(2.24318 -0.00810057 0)
(2.24454 -0.00934278 0)
(2.24533 -0.0140792 0)
(2.24464 -0.0210601 0)
(2.24459 -0.0300391 0)
(2.24531 -0.0348418 0)
(2.1954 0.507242 0)
(2.19776 0.507585 0)
(2.19894 0.508264 0)
(2.20015 0.509689 0)
(2.20082 0.511631 0)
(2.201 0.51348 0)
(2.20177 0.514206 0)
(2.203 0.51447 0)
(2.20435 0.514641 0)
(2.20762 0.514808 0)
(2.21335 0.513944 0)
(2.21838 0.512623 0)
(2.21978 0.51253 0)
(2.22021 0.512917 0)
(2.21945 0.513771 0)
(2.21357 0.51565 0)
(2.20318 0.518142 0)
(2.19706 0.519568 0)
(2.1964 0.519575 0)
(2.19706 0.519183 0)
(2.19787 0.518573 0)
(2.19896 0.518101 0)
(2.20032 0.517978 0)
(2.20171 0.517894 0)
(2.2034 0.517698 0)
(2.20655 0.517177 0)
(2.21092 0.515806 0)
(2.21453 0.514781 0)
(2.21643 0.514944 0)
(2.21756 0.515451 0)
(2.21874 0.51581 0)
(2.21987 0.516061 0)
(2.22057 0.516219 0)
(2.22036 0.516244 0)
(2.21876 0.51673 0)
(2.21494 0.519336 0)
(2.20949 0.524121 0)
(2.20629 0.528039 0)
(2.20631 0.529668 0)
(2.20701 0.530622 0)
(2.20885 0.532398 0)
(2.2119 0.534085 0)
(2.2155 0.534335 0)
(2.22087 0.532333 0)
(2.22664 0.529026 0)
(2.22976 0.527098 0)
(2.23139 0.52665 0)
(2.23251 0.525716 0)
(2.23128 0.524032 0)
(2.22982 0.523604 0)
(2.23049 0.524825 0)
(2.23184 0.52634 0)
(2.23341 0.528028 0)
(2.23571 0.530108 0)
(2.23949 0.533256 0)
(2.2443 0.537157 0)
(2.24919 0.540431 0)
(2.25341 0.542226 0)
(2.2574 0.543104 0)
(2.26171 0.543767 0)
(2.26584 0.544311 0)
(2.26921 0.54452 0)
(2.27153 0.544286 0)
(2.27345 0.544067 0)
(2.27508 0.543637 0)
(2.27405 0.541584 0)
(2.26518 0.535414 0)
(2.25033 0.528172 0)
(2.24338 0.525814 0)
(2.24309 0.525614 0)
(2.24408 0.525804 0)
(2.24514 0.526117 0)
(2.24681 0.526403 0)
(2.2511 0.52662 0)
(2.25757 0.526384 0)
(2.2648 0.525876 0)
(2.2706 0.525695 0)
(2.27406 0.526636 0)
(2.27616 0.528609 0)
(2.27847 0.531115 0)
(2.28137 0.53705 0)
(2.28652 0.541358 0)
(2.29206 0.551626 0)
(2.29751 0.553579 0)
(2.30233 0.554218 0)
(2.28934 0.530733 0)
(2.2384 0.446819 0)
(2.14639 0.281552 0)
(2.08558 0.136173 0)
(2.0009 0.00593857 0)
(1.97983 -0.025401 0)
(1.9652 -0.0374636 0)
(1.95589 -0.0440951 0)
(1.95125 -0.0451709 0)
(1.95633 -0.0476904 0)
(1.96257 -0.0432432 0)
(1.9712 -0.035107 0)
(1.98013 -0.0289266 0)
(1.98988 -0.0217017 0)
(1.99876 -0.0120834 0)
(2.00392 -0.00379104 0)
(2.00896 0.00511882 0)
(2.01381 0.0147381 0)
(2.01743 0.0192444 0)
(2.01954 0.018586 0)
(2.01987 0.0125631 0)
(2.01403 -0.000756877 0)
(2.0021 -0.0188121 0)
(1.99254 -0.033107 0)
(1.99257 -0.0363955 0)
(1.99767 -0.0301677 0)
(2.01186 -0.016084 0)
(2.02495 -0.00275528 0)
(2.02905 0.00600249 0)
(2.02943 0.0106523 0)
(2.03003 0.0142862 0)
(2.03233 0.0178674 0)
(2.03708 0.0233837 0)
(2.04555 0.0309003 0)
(2.05444 0.0371425 0)
(2.05766 0.03919 0)
(2.0586 0.0396862 0)
(2.05585 0.0375947 0)
(2.04629 0.027014 0)
(2.02828 0.00558927 0)
(2.00923 -0.0174857 0)
(2.00153 -0.0304938 0)
(2.00318 -0.035096 0)
(2.006 -0.035862 0)
(2.01185 -0.0304439 0)
(2.02458 -0.0153236 0)
(2.04144 0.00310604 0)
(2.05557 0.0182883 0)
(2.06489 0.0272957 0)
(2.07061 0.0311568 0)
(2.07356 0.0316746 0)
(2.07465 0.0305351 0)
(2.07406 0.0229831 0)
(2.06733 0.00431434 0)
(2.05202 -0.021515 0)
(2.03629 -0.0411588 0)
(2.03223 -0.0470993 0)
(2.034 -0.0458748 0)
(2.03853 -0.0403218 0)
(2.04538 -0.0318654 0)
(2.05298 -0.0207103 0)
(2.06228 -0.00612586 0)
(2.07529 0.0111554 0)
(2.08859 0.0265094 0)
(2.09698 0.0337063 0)
(2.10033 0.0353576 0)
(2.10108 0.032329 0)
(2.09981 0.0227434 0)
(2.09496 0.00709938 0)
(2.08653 -0.0127479 0)
(2.07944 -0.0290905 0)
(2.07949 -0.0360362 0)
(2.08304 -0.0353259 0)
(2.09095 -0.0287243 0)
(2.10293 -0.0179761 0)
(2.11588 -0.00523033 0)
(2.12973 0.00914833 0)
(2.14536 0.0254741 0)
(2.15874 0.0414382 0)
(2.16669 0.050505 0)
(2.16844 0.0561029 0)
(2.16703 0.0575216 0)
(2.16494 0.0563808 0)
(2.15801 0.0493983 0)
(2.14318 0.0322077 0)
(2.12387 0.00996462 0)
(2.11265 -0.00459538 0)
(2.11139 -0.00862164 0)
(2.113 -0.0102264 0)
(2.11878 -0.00960231 0)
(2.1297 -0.00411268 0)
(2.14586 0.00582878 0)
(2.16291 0.0196931 0)
(2.17253 0.0276865 0)
(2.17171 0.0297652 0)
(2.17024 0.0291572 0)
(2.16698 0.0265258 0)
(2.16067 0.0202097 0)
(2.15069 0.00951193 0)
(2.13856 -0.00363175 0)
(2.12829 -0.0148725 0)
(2.12288 -0.0217558 0)
(2.12084 -0.0255667 0)
(2.11944 -0.0280474 0)
(2.11804 -0.0291588 0)
(2.11835 -0.0281997 0)
(2.12026 -0.0265846 0)
(2.12239 -0.0244946 0)
(2.12551 -0.02162 0)
(2.12775 -0.0187531 0)
(2.1286 -0.0172174 0)
(2.12908 -0.0169371 0)
(2.12594 -0.020483 0)
(2.11706 -0.0321506 0)
(2.10366 -0.0499752 0)
(2.0933 -0.0643325 0)
(2.09152 -0.0707934 0)
(2.0935 -0.0727696 0)
(2.096 -0.0719674 0)
(2.10112 -0.0666235 0)
(2.10936 -0.0577228 0)
(2.12109 -0.0474364 0)
(2.1362 -0.0347129 0)
(2.1528 -0.0189434 0)
(2.16438 -0.00714666 0)
(2.17049 -0.00139098 0)
(2.17256 1.3247e-05 0)
(2.17224 -0.00147201 0)
(2.16932 -0.00742781 0)
(2.16246 -0.0178031 0)
(2.15312 -0.0286979 0)
(2.14663 -0.0340064 0)
(2.14563 -0.033167 0)
(2.14679 -0.0271754 0)
(2.1519 -0.0164869 0)
(2.16153 -0.00364136 0)
(2.17094 0.00638772 0)
(2.17828 0.0113394 0)
(2.1812 0.0111852 0)
(2.18173 0.0078766 0)
(2.18091 -0.000898012 0)
(2.17813 -0.0129895 0)
(2.17473 -0.0248615 0)
(2.17477 -0.031426 0)
(2.17662 -0.033418 0)
(2.18259 -0.0322866 0)
(2.19594 -0.0235723 0)
(2.2147 -0.0126135 0)
(2.22701 -0.00634674 0)
(2.23042 -0.00625841 0)
(2.23098 -0.00695695 0)
(2.23096 -0.00861894 0)
(2.22758 -0.0124527 0)
(2.21733 -0.0193633 0)
(2.20566 -0.024246 0)
(2.20278 -0.02335 0)
(2.20384 -0.0209644 0)
(2.20536 -0.0179642 0)
(2.20829 -0.013708 0)
(2.21284 -0.0090571 0)
(2.21539 -0.00714543 0)
(2.21645 -0.00818737 0)
(2.21599 -0.0128328 0)
(2.21363 -0.0208509 0)
(2.21236 -0.0293068 0)
(2.21406 -0.0352729 0)
(2.21748 -0.0365668 0)
(2.19563 0.509561 0)
(2.19809 0.509467 0)
(2.19976 0.510032 0)
(2.20093 0.510879 0)
(2.20216 0.511919 0)
(2.20306 0.51356 0)
(2.20337 0.5161 0)
(2.2041 0.51808 0)
(2.2052 0.518852 0)
(2.20739 0.519607 0)
(2.21157 0.519264 0)
(2.21614 0.518003 0)
(2.21815 0.517068 0)
(2.2189 0.516632 0)
(2.21863 0.515966 0)
(2.21389 0.515797 0)
(2.20459 0.516656 0)
(2.19804 0.517471 0)
(2.1967 0.518033 0)
(2.19706 0.518486 0)
(2.19769 0.519003 0)
(2.19872 0.519364 0)
(2.20001 0.519678 0)
(2.20135 0.520002 0)
(2.20303 0.520471 0)
(2.20572 0.521051 0)
(2.20918 0.520539 0)
(2.21298 0.518921 0)
(2.21611 0.517427 0)
(2.2176 0.516718 0)
(2.21876 0.516769 0)
(2.2199 0.516976 0)
(2.2205 0.517034 0)
(2.22034 0.516968 0)
(2.21921 0.517212 0)
(2.21716 0.519 0)
(2.21376 0.523131 0)
(2.2094 0.529776 0)
(2.20721 0.535124 0)
(2.20755 0.536916 0)
(2.20886 0.538628 0)
(2.21098 0.539886 0)
(2.21365 0.539852 0)
(2.2173 0.538212 0)
(2.22184 0.533986 0)
(2.22629 0.527408 0)
(2.22811 0.523531 0)
(2.22912 0.521399 0)
(2.22955 0.521245 0)
(2.23029 0.522875 0)
(2.23134 0.525382 0)
(2.23282 0.527833 0)
(2.23511 0.530668 0)
(2.23877 0.535107 0)
(2.24317 0.540283 0)
(2.24691 0.543501 0)
(2.24965 0.544519 0)
(2.25236 0.544868 0)
(2.25624 0.545108 0)
(2.26089 0.545344 0)
(2.26469 0.545166 0)
(2.26693 0.544561 0)
(2.26911 0.543737 0)
(2.27083 0.542183 0)
(2.27085 0.538777 0)
(2.26635 0.532593 0)
(2.25638 0.526861 0)
(2.2473 0.525756 0)
(2.24365 0.526642 0)
(2.24351 0.527807 0)
(2.24414 0.528874 0)
(2.24491 0.529803 0)
(2.24611 0.530591 0)
(2.24877 0.531506 0)
(2.25343 0.53145 0)
(2.25968 0.5311 0)
(2.26596 0.531036 0)
(2.27096 0.5318 0)
(2.2748 0.534778 0)