/*--------------------------------*- C++ -*----------------------------------*\
  =========                 |
  \\      /  F ield         | OpenFOAM: The Open Source CFD Toolbox
   \\    /   O peration     | Website:  https://openfoam.org
    \\  /    A nd           | Version:  7
     \\/     M anipulation  |
\*---------------------------------------------------------------------------*/
FoamFile
{
    version     2.0;
    format      ascii;
    class       volScalarField;
    location    "17.999464";
    object      p;
}
// * * * * * * * * * * * * * * * * * * * * * * * * * * * * * * * * * * * * * //

dimensions      [0 2 -2 0 0 0 0];

internalField   nonuniform List<scalar> 
5800
(
-0.289289
-0.2844
-0.278803
-0.272535
-0.265646
-0.25821
-0.250328
-0.242161
-0.233854
-0.294991
-0.299101
-0.301488
-0.302782
-0.303285
-0.302968
-0.30184
-0.299926
-0.297241
-0.293799
-0.289611
-0.284695
-0.279073
-0.272778
-0.26586
-0.25839
-0.250465
-0.242258
-0.233892
-0.296638
-0.300563
-0.302811
-0.303988
-0.304382
-0.303967
-0.302751
-0.300757
-0.298002
-0.294496
-0.290251
-0.285281
-0.279607
-0.273259
-0.266283
-0.258745
-0.250735
-0.242447
-0.23397
-0.299086
-0.302738
-0.304781
-0.305782
-0.306015
-0.305452
-0.304104
-0.301992
-0.29913
-0.295528
-0.291196
-0.286146
-0.280395
-0.273968
-0.266906
-0.259267
-0.251133
-0.242723
-0.234088
-0.302313
-0.305606
-0.307379
-0.308149
-0.308166
-0.307408
-0.305884
-0.303614
-0.30061
-0.29688
-0.292433
-0.287277
-0.281423
-0.274891
-0.267717
-0.259946
-0.25165
-0.24308
-0.234245
-0.306288
-0.309141
-0.310581
-0.311065
-0.310816
-0.309815
-0.308072
-0.305604
-0.302423
-0.298534
-0.293943
-0.288653
-0.282672
-0.276012
-0.268698
-0.260767
-0.252275
-0.243508
-0.234442
-0.222496
-0.310974
-0.313312
-0.314361
-0.314507
-0.313941
-0.312651
-0.310646
-0.307942
-0.304548
-0.300468
-0.295703
-0.290254
-0.28412
-0.277308
-0.269833
-0.261716
-0.252995
-0.243996
-0.234679
-0.221408
-0.316331
-0.318086
-0.318688
-0.318445
-0.317515
-0.315891
-0.313582
-0.310603
-0.306961
-0.302658
-0.297691
-0.292056
-0.285747
-0.27876
-0.2711
-0.262774
-0.253797
-0.244534
-0.234956
-0.220152
-0.322316
-0.323424
-0.323528
-0.32285
-0.32151
-0.319508
-0.316854
-0.313562
-0.309638
-0.30508
-0.299882
-0.294036
-0.287527
-0.280345
-0.27248
-0.263926
-0.254669
-0.245111
-0.235273
-0.218742
-0.328884
-0.32929
-0.328848
-0.32769
-0.325897
-0.323474
-0.320436
-0.316795
-0.312554
-0.30771
-0.302253
-0.29617
-0.28944
-0.282041
-0.273954
-0.265153
-0.255598
-0.245716
-0.235627
-0.217197
-0.335992
-0.335645
-0.334614
-0.332935
-0.330646
-0.327764
-0.324304
-0.320277
-0.315686
-0.310526
-0.304783
-0.298439
-0.291466
-0.283831
-0.275503
-0.266442
-0.256573
-0.246342
-0.236016
-0.215542
-0.343595
-0.34245
-0.340792
-0.338554
-0.335731
-0.332351
-0.328433
-0.323986
-0.319014
-0.313508
-0.307453
-0.300823
-0.293585
-0.285696
-0.277111
-0.267777
-0.257583
-0.246981
-0.23643
-0.213813
-0.351652
-0.34967
-0.347349
-0.344517
-0.341125
-0.337212
-0.332802
-0.327903
-0.322519
-0.31664
-0.310247
-0.303309
-0.295785
-0.287623
-0.278768
-0.269148
-0.258621
-0.247626
-0.236855
-0.212048
-0.360123
-0.35727
-0.354255
-0.350797
-0.346803
-0.342325
-0.337392
-0.332012
-0.326188
-0.319909
-0.313154
-0.305885
-0.298055
-0.289604
-0.280462
-0.270545
-0.259679
-0.248274
-0.23727
-0.210296
-0.368973
-0.365218
-0.36148
-0.357368
-0.352743
-0.347672
-0.342187
-0.336299
-0.330009
-0.323307
-0.316165
-0.308544
-0.300389
-0.29163
-0.282186
-0.271962
-0.260752
-0.248929
-0.237649
-0.20862
-0.378167
-0.373483
-0.368997
-0.364206
-0.358925
-0.353234
-0.347173
-0.340753
-0.333974
-0.326825
-0.319277
-0.311283
-0.302782
-0.293697
-0.283938
-0.273394
-0.261837
-0.249597
-0.237966
-0.207118
-0.387674
-0.382036
-0.376779
-0.371289
-0.365329
-0.358998
-0.352339
-0.345366
-0.338078
-0.330462
-0.322486
-0.314098
-0.305232
-0.295803
-0.285712
-0.274837
-0.262932
-0.250288
-0.238132
-0.205815
-0.397463
-0.390847
-0.384803
-0.378593
-0.371937
-0.364948
-0.357675
-0.350131
-0.342316
-0.334214
-0.32579
-0.316988
-0.307736
-0.297942
-0.287504
-0.27629
-0.264052
-0.251028
-0.237936
-0.204487
-0.407503
-0.39989
-0.39304
-0.386098
-0.378732
-0.371071
-0.36317
-0.355041
-0.346683
-0.338079
-0.329188
-0.31995
-0.310287
-0.300107
-0.289306
-0.277756
-0.265248
-0.251944
-0.237453
-0.203866
-0.417764
-0.409133
-0.401465
-0.39378
-0.385695
-0.377353
-0.368814
-0.360088
-0.351175
-0.342051
-0.332672
-0.322973
-0.312873
-0.302279
-0.291094
-0.279217
-0.266536
-0.253199
-0.238035
-0.210879
-0.42821
-0.418545
-0.410048
-0.401614
-0.392803
-0.383775
-0.374592
-0.365262
-0.355781
-0.346121
-0.336231
-0.326043
-0.315471
-0.304425
-0.292822
-0.280596
-0.267752
-0.254528
-0.240914
-0.232697
-0.438802
-0.428087
-0.418756
-0.40957
-0.400033
-0.390318
-0.380488
-0.370547
-0.360486
-0.350272
-0.339847
-0.329135
-0.31805
-0.306503
-0.294422
-0.281776
-0.268648
-0.255295
-0.241715
-0.237107
-0.449495
-0.437718
-0.42755
-0.417614
-0.407355
-0.396956
-0.386479
-0.375922
-0.365269
-0.35448
-0.343489
-0.332215
-0.320565
-0.308456
-0.295826
-0.282664
-0.26909
-0.255328
-0.241122
-0.236112
-0.460235
-0.447389
-0.436385
-0.425707
-0.414733
-0.403656
-0.392534
-0.381357
-0.370099
-0.358712
-0.34712
-0.335235
-0.322964
-0.310223
-0.296961
-0.283183
-0.269019
-0.254657
-0.239747
-0.233153
-0.470958
-0.45704
-0.445208
-0.433799
-0.422123
-0.410377
-0.398614
-0.386811
-0.374934
-0.36292
-0.350688
-0.338139
-0.325181
-0.311733
-0.297755
-0.283264
-0.268393
-0.253294
-0.237626
-0.229024
-0.481593
-0.466606
-0.453959
-0.441835
-0.429473
-0.41707
-0.40467
-0.392237
-0.379721
-0.367049
-0.354129
-0.340858
-0.327141
-0.312909
-0.298131
-0.282842
-0.267174
-0.251255
-0.234808
-0.224188
-0.492052
-0.476009
-0.462564
-0.449748
-0.43672
-0.423674
-0.410642
-0.397571
-0.384394
-0.371027
-0.357367
-0.343309
-0.328763
-0.313669
-0.298016
-0.281857
-0.265333
-0.248562
-0.231359
-0.218922
-0.502239
-0.485159
-0.470944
-0.457462
-0.443791
-0.430119
-0.416459
-0.402739
-0.388876
-0.374771
-0.360315
-0.345404
-0.329955
-0.313927
-0.297334
-0.280254
-0.262844
-0.245228
-0.227322
-0.213341
-0.512044
-0.493958
-0.479005
-0.46489
-0.450603
-0.436321
-0.422036
-0.407654
-0.393074
-0.378186
-0.362875
-0.347042
-0.330621
-0.313597
-0.296013
-0.277982
-0.259683
-0.241257
-0.222721
-0.207477
-0.521345
-0.502293
-0.486642
-0.471932
-0.457059
-0.442185
-0.427277
-0.412217
-0.396887
-0.381165
-0.364938
-0.348119
-0.330664
-0.312591
-0.293984
-0.274992
-0.255826
-0.236649
-0.217565
-0.201316
-0.530006
-0.510042
-0.493742
-0.478478
-0.463053
-0.447604
-0.432074
-0.416317
-0.400198
-0.383592
-0.36639
-0.348524
-0.329984
-0.310827
-0.291183
-0.271244
-0.251252
-0.231397
-0.211854
-0.194824
-0.537883
-0.517072
-0.500179
-0.484409
-0.468466
-0.45246
-0.436305
-0.41983
-0.402886
-0.385345
-0.367112
-0.348148
-0.328483
-0.308223
-0.287549
-0.266697
-0.245939
-0.225492
-0.205581
-0.187963
-0.54482
-0.523239
-0.505818
-0.489594
-0.47317
-0.456625
-0.439843
-0.422627
-0.404818
-0.386294
-0.366983
-0.346881
-0.326069
-0.304707
-0.28303
-0.261318
-0.239872
-0.218925
-0.198737
-0.180696
-0.550652
-0.528393
-0.510515
-0.493892
-0.477026
-0.459961
-0.442547
-0.424567
-0.405857
-0.386309
-0.36588
-0.344616
-0.322653
-0.300212
-0.27758
-0.255079
-0.233033
-0.211686
-0.191314
-0.172989
-0.555209
-0.532375
-0.51412
-0.497157
-0.479889
-0.462322
-0.444273
-0.425508
-0.405865
-0.385259
-0.363688
-0.341253
-0.318155
-0.294677
-0.271158
-0.247957
-0.22541
-0.203767
-0.183302
-0.164816
-0.558317
-0.535023
-0.516474
-0.499234
-0.481608
-0.463557
-0.44487
-0.425303
-0.404702
-0.383015
-0.360292
-0.336699
-0.312503
-0.288053
-0.263735
-0.239935
-0.216995
-0.195162
-0.174696
-0.156156
-0.559797
-0.536169
-0.517419
-0.499968
-0.482026
-0.463511
-0.444188
-0.423805
-0.402231
-0.379454
-0.355588
-0.330869
-0.305637
-0.280298
-0.255284
-0.230998
-0.207782
-0.185868
-0.16549
-0.146996
-0.559472
-0.535647
-0.516792
-0.499198
-0.480986
-0.462031
-0.442075
-0.420872
-0.39832
-0.374463
-0.349482
-0.323692
-0.297504
-0.271381
-0.245789
-0.221141
-0.197768
-0.175883
-0.155683
-0.137327
-0.557169
-0.533291
-0.514432
-0.496767
-0.478331
-0.458961
-0.438384
-0.416366
-0.392848
-0.367936
-0.341891
-0.315107
-0.288065
-0.261279
-0.235239
-0.210361
-0.186954
-0.165209
-0.145276
-0.127145
-0.552719
-0.528942
-0.510184
-0.492518
-0.47391
-0.454155
-0.432975
-0.410159
-0.385701
-0.359781
-0.332745
-0.305065
-0.27729
-0.249977
-0.223631
-0.19866
-0.175344
-0.15385
-0.134272
-0.116451
-0.545963
-0.522446
-0.503895
-0.486304
-0.467576
-0.447472
-0.425716
-0.402133
-0.37678
-0.349921
-0.321987
-0.293532
-0.265163
-0.237472
-0.21097
-0.186045
-0.162948
-0.141813
-0.122677
-0.105248
-0.536754
-0.51366
-0.495425
-0.477984
-0.459192
-0.438783
-0.416489
-0.392186
-0.366003
-0.338293
-0.309577
-0.280485
-0.251677
-0.223768
-0.197263
-0.172529
-0.149776
-0.129108
-0.1105
-0.0935449
-0.524959
-0.502454
-0.484645
-0.467431
-0.448636
-0.427971
-0.405191
-0.38023
-0.353302
-0.324851
-0.29549
-0.265917
-0.236837
-0.208876
-0.182529
-0.158127
-0.135844
-0.115749
-0.0977574
-0.0813564
-0.510464
-0.488714
-0.471441
-0.454533
-0.435799
-0.414937
-0.391735
-0.366197
-0.338628
-0.309568
-0.279715
-0.249833
-0.220658
-0.192819
-0.166789
-0.142863
-0.121172
-0.101754
-0.0844637
-0.0686962
-0.493173
-0.472345
-0.455716
-0.439193
-0.420591
-0.3996
-0.376055
-0.350039
-0.321952
-0.292433
-0.26226
-0.232251
-0.203165
-0.175625
-0.150072
-0.126763
-0.105784
-0.0871432
-0.0706339
-0.0555383
-0.473014
-0.453271
-0.437394
-0.421338
-0.402943
-0.381902
-0.358106
-0.331726
-0.303264
-0.273453
-0.243145
-0.213203
-0.184396
-0.157331
-0.132415
-0.109858
-0.089707
-0.07194
-0.0562932
-0.0418414
-0.44994
-0.431441
-0.416422
-0.400915
-0.382806
-0.361804
-0.337865
-0.311255
-0.282577
-0.252654
-0.222407
-0.192731
-0.164396
-0.137982
-0.113857
-0.092186
-0.0729744
-0.0561664
-0.0414753
-0.0278838
-0.423931
-0.40683
-0.39277
-0.377895
-0.360159
-0.339295
-0.315333
-0.28864
-0.25992
-0.230081
-0.2001
-0.170892
-0.14322
-0.11763
-0.0944478
-0.0737893
-0.055629
-0.0398895
-0.0261573
-0.0135562
-0.394994
-0.379437
-0.366436
-0.352276
-0.335005
-0.314388
-0.290537
-0.263922
-0.235346
-0.205794
-0.176288
-0.147753
-0.120933
-0.0963367
-0.0742413
-0.0547198
-0.0377085
-0.0231146
-0.0104294
0.00113953
-0.363166
-0.349291
-0.337443
-0.324084
-0.307374
-0.287122
-0.263526
-0.237162
-0.208926
-0.179871
-0.151051
-0.123393
-0.0976094
-0.0741685
-0.053298
-0.0350275
-0.0192624
-0.00588928
0.00567531
0.0161632
-0.328514
-0.31645
-0.305845
-0.29337
-0.277323
-0.257561
-0.234374
-0.208444
-0.180751
-0.152406
-0.124483
-0.0978987
-0.0733313
-0.0511997
-0.0316844
-0.0147728
-0.000342906
0.0117379
0.0221194
0.0314727
-0.291137
-0.281001
-0.271724
-0.260217
-0.244937
-0.225797
-0.203182
-0.177873
-0.150929
-0.123506
-0.0966879
-0.0713703
-0.0481885
-0.0275119
-0.00947324
0.00597958
0.0189924
0.0297155
0.038858
0.0470232
-0.251163
-0.24306
-0.23519
-0.224734
-0.210328
-0.191946
-0.17007
-0.145577
-0.119584
-0.0932948
-0.0677834
-0.0439149
-0.022279
-0.00319308
0.0132569
0.0271593
0.0386808
0.0479879
0.0558412
0.0627654
-0.208751
-0.202773
-0.196382
-0.187059
-0.173635
-0.156152
-0.135182
-0.111691
-0.0868633
-0.0619088
-0.0378953
-0.0156487
0.00429242
0.0216629
0.0364219
0.0486912
0.0586549
0.0664951
0.0730136
0.0786436
-0.164089
-0.160311
-0.155467
-0.147356
-0.135023
-0.118573
-0.0986827
-0.0763877
-0.0529191
-0.0294945
-0.00715979
0.0133047
0.0314145
0.0469565
0.0599328
0.0704949
0.078842
0.0851723
0.0903146
0.0945946
-0.117384
-0.115879
-0.11264
-0.105814
-0.0946755
-0.0794054
-0.0607571
-0.0398412
-0.0179209
0.00379004
0.0242785
0.0428149
0.0589706
0.0725835
0.0836961
0.0924861
0.0991655
0.103951
0.10768
0.110549
-0.0688264
-0.0697445
-0.0681188
-0.062647
-0.0528084
-0.0388507
-0.0216054
-0.00224404
0.0179498
0.0377778
0.0562678
0.0727455
0.086839
0.0984355
0.107615
0.114577
0.119546
0.122768
0.125053
0.126405
-0.0188146
-0.0220682
-0.0221429
-0.0180946
-0.00965221
0.00286558
0.0185557
0.0361983
0.0545018
0.0722936
0.0886501
0.102955
0.114894
0.124401
0.131589
0.136676
0.139903
0.141565
0.142369
0.141967
0.032454
0.0268231
0.0250181
0.0275873
0.0345438
0.0455019
0.0594959
0.0752697
0.0915355
0.107156
0.121262
0.133299
0.143007
0.150365
0.155516
0.15869
0.160157
0.160269
0.159461
0.156995
0.0846705
0.0766393
0.0730841
0.0741252
0.0795141
0.0888033
0.100974
0.114745
0.128844
0.142178
0.153938
0.163628
0.171046
0.176212
0.179293
0.180529
0.180225
0.178744
0.175959
0.171437
0.137506
0.127076
0.121758
0.12123
0.12498
0.132504
0.142739
0.154393
0.166217
0.17717
0.186506
0.193793
0.19888
0.201825
0.202818
0.202109
0.200036
0.196876
0.191641
0.185531
0.190624
0.177812
0.170729
0.1686
0.170651
0.176328
0.184535
0.193975
0.203438
0.211937
0.218794
0.22364
0.226373
0.227086
0.225989
0.223347
0.219517
0.214739
0.20798
0.201423
0.243677
0.228515
0.219675
0.215924
0.21623
0.219995
0.226099
0.233253
0.240289
0.246287
0.250632
0.253018
0.25339
0.251875
0.248701
0.244142
0.23856
0.232162
0.224071
0.216811
0.296314
0.278847
0.268268
0.262885
0.261415
0.26322
0.267167
0.271984
0.276555
0.280023
0.281846
0.281773
0.279798
0.276074
0.270845
0.264395
0.25708
0.24908
0.239669
0.23147
0.348177
0.328463
0.316175
0.309164
0.305901
0.305718
0.307476
0.30993
0.312018
0.312956
0.312265
0.309757
0.305462
0.299563
0.292316
0.284011
0.274995
0.265428
0.254716
0.24542
0.398908
0.37702
0.363062
0.354439
0.349383
0.347204
0.346763
0.346851
0.346466
0.344894
0.341723
0.33682
0.330253
0.322229
0.313013
0.302899
0.292223
0.281135
0.269148
0.258682
0.448155
0.424177
0.408599
0.398392
0.391561
0.387397
0.384772
0.382516
0.379691
0.375653
0.370056
0.362818
0.354043
0.343958
0.332836
0.320972
0.308689
0.29613
0.282905
0.271248
0.495568
0.469596
0.45246
0.440712
0.43214
0.426024
0.421252
0.416699
0.41149
0.405053
0.397106
0.387612
0.37671
0.364641
0.351689
0.338145
0.32432
0.31035
0.295933
0.283093
0.540811
0.512952
0.49433
0.481095
0.470834
0.462819
0.455961
0.44918
0.441669
0.432923
0.422719
0.411067
0.398133
0.384176
0.369481
0.354339
0.339045
0.323736
0.308182
0.294186
0.583555
0.553928
0.533903
0.519251
0.507369
0.497529
0.488667
0.479752
0.470042
0.459097
0.446752
0.433056
0.418202
0.402461
0.386124
0.369475
0.3528
0.33623
0.319604
0.304498
0.623493
0.592224
0.570888
0.5549
0.541485
0.529913
0.519152
0.508218
0.496434
0.483422
0.469067
0.453457
0.43681
0.419405
0.401536
0.383484
0.36552
0.347778
0.330155
0.313997
0.660331
0.627558
0.605013
0.587783
0.572935
0.559746
0.54721
0.534394
0.520681
0.505751
0.489536
0.472159
0.453857
0.434919
0.41564
0.396297
0.377148
0.35833
0.339789
0.322652
0.6938
0.659668
0.636025
0.617658
0.601494
0.586817
0.572651
0.558111
0.542633
0.525951
0.508042
0.489058
0.469253
0.448923
0.428365
0.407852
0.38763
0.367838
0.348467
0.330432
0.723652
0.688314
0.66369
0.644304
0.626955
0.610938
0.595305
0.579213
0.562152
0.543902
0.524478
0.504059
0.482913
0.461344
0.439648
0.418092
0.396915
0.376259
0.35615
0.337309
0.749665
0.713282
0.687803
0.667523
0.649134
0.631939
0.615016
0.597564
0.579116
0.559495
0.538749
0.517078
0.494764
0.472116
0.449429
0.426967
0.40496
0.383552
0.362804
0.343256
0.771647
0.734383
0.708182
0.687144
0.667869
0.649671
0.631652
0.613044
0.593419
0.572636
0.550771
0.528041
0.504741
0.481182
0.457659
0.434433
0.411725
0.389685
0.368397
0.34825
0.789434
0.751458
0.724674
0.703019
0.683024
0.66401
0.645099
0.625551
0.604971
0.583246
0.560474
0.536888
0.512789
0.488493
0.464295
0.440451
0.417178
0.394627
0.372904
0.35227
0.802891
0.764379
0.737153
0.71503
0.694489
0.674854
0.655265
0.635004
0.613699
0.59126
0.567801
0.543567
0.518865
0.494012
0.469303
0.444992
0.421291
0.398355
0.376303
0.3553
0.811919
0.773048
0.745525
0.723088
0.702178
0.682126
0.662082
0.641341
0.619549
0.59663
0.57271
0.548041
0.522934
0.497707
0.472656
0.448032
0.424044
0.40085
0.378578
0.357327
0.550285
0.524974
0.49956
0.474337
0.449556
0.425425
0.402101
0.379719
0.358343
-0.2333
-0.235664
-0.237971
-0.240121
-0.237296
-0.242
-0.239489
-0.230346
-0.243487
-0.241277
-0.23181
-0.244459
-0.242485
-0.23284
-0.226318
-0.244801
-0.242917
-0.233282
-0.226879
-0.24431
-0.242266
-0.23299
-0.226904
-0.221582
-0.241705
-0.239927
-0.231864
-0.226321
-0.221218
-0.215891
-0.241
-0.235584
-0.227806
-0.222614
-0.217795
-0.212995
-0.212662
-0.222935
-0.225437
-0.221804
-0.217209
-0.212671
-0.208001
-0.207783
-0.215064
-0.218533
-0.215741
-0.212259
-0.208469
-0.204325
-0.205416
-0.20959
-0.212462
-0.210201
-0.207118
-0.203794
-0.200067
-0.202663
-0.204855
-0.207039
-0.205081
-0.202308
-0.199301
-0.195908
-0.199609
-0.200371
-0.201831
-0.200033
-0.197508
-0.194766
-0.191668
-0.196072
-0.195917
-0.196696
-0.194979
-0.19265
-0.190131
-0.187291
-0.192029
-0.191357
-0.191559
-0.189896
-0.187736
-0.185408
-0.182797
-0.187536
-0.186615
-0.186361
-0.184753
-0.182755
-0.180603
-0.178202
-0.18264
-0.181662
-0.181068
-0.179532
-0.177697
-0.175715
-0.173512
-0.177395
-0.176496
-0.175668
-0.174224
-0.172559
-0.170747
-0.168735
-0.17186
-0.171135
-0.170163
-0.168832
-0.167344
-0.165706
-0.163881
-0.166098
-0.165604
-0.164564
-0.163363
-0.162061
-0.160601
-0.158961
-0.160165
-0.159937
-0.158891
-0.157835
-0.156722
-0.155444
-0.153989
-0.15412
-0.15417
-0.153167
-0.152265
-0.151343
-0.15025
-0.148978
-0.148011
-0.148339
-0.147418
-0.146675
-0.145943
-0.145033
-0.143943
-0.141887
-0.14248
-0.141669
-0.141087
-0.14054
-0.139811
-0.138899
-0.13579
-0.136628
-0.135946
-0.135524
-0.135155
-0.134602
-0.133863
-0.129755
-0.130815
-0.130273
-0.130006
-0.129806
-0.129422
-0.12885
-0.123813
-0.125068
-0.124673
-0.124553
-0.124512
-0.124287
-0.123876
-0.117991
-0.119413
-0.119163
-0.119182
-0.119288
-0.119214
-0.118953
-0.112309
-0.113869
-0.113762
-0.11391
-0.114149
-0.114215
-0.114096
-0.106781
-0.108454
-0.108482
-0.108749
-0.109109
-0.109302
-0.109315
-0.10142
-0.103181
-0.103336
-0.10371
-0.104178
-0.104487
-0.104621
-0.0962328
-0.09806
-0.0983304
-0.0988006
-0.099365
-0.0997788
-0.100022
-0.0912239
-0.0930978
-0.0934729
-0.0940281
-0.0946766
-0.0951836
-0.0955267
-0.0863953
-0.088299
-0.0887672
-0.089397
-0.0901184
-0.0907078
-0.0911402
-0.0817465
-0.0836659
-0.084216
-0.0849103
-0.0856943
-0.0863556
-0.0868676
-0.077276
-0.0791988
-0.0798201
-0.0805696
-0.0814067
-0.0821303
-0.0827125
-0.0729809
-0.0748971
-0.0755796
-0.0763757
-0.0772571
-0.0780341
-0.0786777
-0.0688576
-0.070759
-0.0714933
-0.0723283
-0.0732461
-0.0740683
-0.074765
-0.0649021
-0.0667817
-0.0675596
-0.0684264
-0.0693735
-0.0702333
-0.0709756
-0.0611101
-0.0629623
-0.0637762
-0.0646686
-0.0656386
-0.0665292
-0.06731
-0.0574772
-0.0592973
-0.0601406
-0.0610528
-0.06204
-0.0629553
-0.0637683
-0.053999
-0.0557832
-0.0566498
-0.0575769
-0.0585762
-0.0595106
-0.0603499
-0.050671
-0.0524163
-0.0533008
-0.0542383
-0.0552453
-0.0561937
-0.0570541
-0.0474888
-0.0491927
-0.0500904
-0.0510345
-0.0520451
-0.0530031
-0.0538797
-0.0444483
-0.0461086
-0.0470154
-0.0479625
-0.0489732
-0.0499369
-0.0508255
-0.041545
-0.0431604
-0.0440725
-0.0450196
-0.0460273
-0.046993
-0.0478897
-0.0387749
-0.0403441
-0.0412584
-0.0422027
-0.0432047
-0.0441694
-0.0450706
-0.0361339
-0.0376561
-0.0385696
-0.0395088
-0.0405027
-0.0414636
-0.0423664
-0.0336178
-0.0350926
-0.0360027
-0.0369349
-0.0379187
-0.0388733
-0.0397749
-0.0312229
-0.03265
-0.0335545
-0.0344778
-0.0354497
-0.0363961
-0.0372939
-0.028945
-0.0303245
-0.0312216
-0.0321345
-0.0330931
-0.0340292
-0.0349214
-0.0267804
-0.0281126
-0.0290007
-0.0299019
-0.0308459
-0.0317703
-0.0326549
-0.0247255
-0.0260108
-0.0268884
-0.0277769
-0.0287053
-0.0296167
-0.0304921
-0.0227764
-0.0240156
-0.0248815
-0.0257564
-0.0266684
-0.0275659
-0.0284307
-0.0209298
-0.0221237
-0.022977
-0.0238376
-0.0247326
-0.0256151
-0.0264684
-0.0191822
-0.0203318
-0.0211717
-0.0220175
-0.022895
-0.0237619
-0.0246027
-0.0175302
-0.0186366
-0.0194626
-0.0202932
-0.021153
-0.0220038
-0.0228313
-0.0159708
-0.0170353
-0.0178468
-0.018662
-0.0195039
-0.0203384
-0.0211521
-0.0145008
-0.0155248
-0.0163216
-0.0171213
-0.0179453
-0.0187631
-0.0195627
-0.0131174
-0.0141023
-0.0148843
-0.0156684
-0.0164746
-0.0172759
-0.018061
-0.0118179
-0.0127652
-0.0135323
-0.014301
-0.0150897
-0.0158743
-0.0166449
-0.0105996
-0.011511
-0.0122632
-0.0130167
-0.0137882
-0.0145565
-0.0153126
-0.00946011
-0.0103372
-0.0110748
-0.0118134
-0.0125681
-0.0133204
-0.0140621
-0.00839727
-0.00924182
-0.00996512
-0.0106892
-0.0114276
-0.0121643
-0.0128919
-0.00740902
-0.00822278
-0.00893214
-0.00964218
-0.0103649
-0.0110864
-0.0118003
-0.00649352
-0.00727831
-0.0079742
-0.00867075
-0.00937844
-0.0100854
-0.010786
-0.00564915
-0.00640683
-0.00708982
-0.00777351
-0.00846691
-0.00915998
-0.00984783
-0.00487454
-0.00560701
-0.00627774
-0.00694926
-0.00762918
-0.00830912
-0.00898484
-0.00416855
-0.00487778
-0.00553697
-0.00619707
-0.00686439
-0.00753202
-0.00819632
-0.00353036
-0.00421833
-0.00486677
-0.00551629
-0.00617196
-0.00682816
-0.00748184
-0.00295941
-0.00362818
-0.00426675
-0.00490657
-0.0055516
-0.00619735
-0.00684127
-0.00245552
-0.00310719
-0.00373683
-0.00436792
-0.00500338
-0.00563971
-0.00627483
-0.00201886
-0.00265561
-0.00327735
-0.00390073
-0.00452777
-0.0051558
-0.00578312
-0.00165004
-0.00227409
-0.00288904
-0.00350581
-0.00412564
-0.00474656
-0.00536719
-0.00135024
-0.0019639
-0.00257324
-0.00318458
-0.00379848
-0.00441354
-0.00502866
-0.00112073
-0.00172646
-0.0023315
-0.00293869
-0.00354807
-0.00415865
-0.00476953
-0.00096498
-0.00156517
-0.00216715
-0.0027714
-0.00337761
-0.00398506
-0.00459299
-0.000882867
-0.0014808
-0.00208164
-0.00268469
-0.0032895
-0.00389552
-0.00450207
-0.105452
-0.115383
-0.124834
-0.133796
-0.142261
-0.150219
-0.157664
-0.164593
-0.171005
-0.176907
-0.182314
-0.187255
-0.191777
-0.195951
-0.19988
-0.203708
-0.207649
-0.211953
-0.21722
-0.233191
-0.0996053
-0.109127
-0.118209
-0.126842
-0.135021
-0.142739
-0.149994
-0.156786
-0.163122
-0.169017
-0.174499
-0.179615
-0.184439
-0.18908
-0.193698
-0.198528
-0.203934
-0.210381
-0.217836
-0.239882
-0.0940717
-0.103215
-0.111972
-0.120336
-0.128305
-0.135879
-0.143061
-0.149856
-0.156278
-0.162349
-0.168102
-0.173589
-0.178881
-0.184081
-0.18933
-0.194821
-0.200842
-0.207736
-0.214465
-0.236133
-0.0888136
-0.0976029
-0.106052
-0.114158
-0.121922
-0.129344
-0.136431
-0.143191
-0.149638
-0.155794
-0.16169
-0.167372
-0.172899
-0.178356
-0.183851
-0.189525
-0.195589
-0.202359
-0.208359
-0.228888
-0.0838163
-0.0922625
-0.100408
-0.108253
-0.115798
-0.123046
-0.130003
-0.136679
-0.143087
-0.149247
-0.155188
-0.16095
-0.166585
-0.172166
-0.177787
-0.18357
-0.189697
-0.196531
-0.202432
-0.221557
-0.0790669
-0.0871802
-0.0950281
-0.102611
-0.109932
-0.116995
-0.123805
-0.130373
-0.136712
-0.142842
-0.148789
-0.154589
-0.160292
-0.165963
-0.171689
-0.177579
-0.18379
-0.190682
-0.196582
-0.213959
-0.0745509
-0.0823428
-0.0899005
-0.0972257
-0.104321
-0.111192
-0.117846
-0.124291
-0.130541
-0.136616
-0.142539
-0.148344
-0.154077
-0.159793
-0.165572
-0.171505
-0.177718
-0.184539
-0.19042
-0.206044
-0.0702537
-0.0777358
-0.0850112
-0.0920823
-0.0989528
-0.105628
-0.112115
-0.118423
-0.124565
-0.130559
-0.136428
-0.142201
-0.147917
-0.153628
-0.159399
-0.165308
-0.171457
-0.178139
-0.184024
-0.198025
-0.0661618
-0.0733454
-0.0803463
-0.0871676
-0.0938134
-0.100289
-0.106601
-0.11276
-0.118777
-0.124669
-0.130455
-0.136163
-0.141827
-0.14749
-0.153209
-0.159052
-0.165104
-0.171616
-0.1775
-0.190007
-0.0622628
-0.0691585
-0.0758928
-0.082469
-0.0888913
-0.0951651
-0.101297
-0.107297
-0.113175
-0.118947
-0.124629
-0.130246
-0.135828
-0.141413
-0.147049
-0.152795
-0.158722
-0.165038
-0.170886
-0.182032
-0.0585449
-0.0651631
-0.0716385
-0.0779746
-0.0841756
-0.0902468
-0.0961949
-0.102028
-0.107757
-0.113394
-0.118955
-0.124462
-0.12994
-0.135421
-0.140948
-0.146571
-0.152349
-0.158448
-0.164222
-0.174147
-0.0549977
-0.0613483
-0.0675724
-0.0736735
-0.079656
-0.0855247
-0.0912861
-0.0969475
-0.102518
-0.10801
-0.113437
-0.118817
-0.124173
-0.129531
-0.134929
-0.140407
-0.146018
-0.15189
-0.157555
-0.166394
-0.0516114
-0.0577038
-0.0636841
-0.0695558
-0.0753229
-0.0809902
-0.0865635
-0.0920495
-0.0974567
-0.102795
-0.108077
-0.113318
-0.118538
-0.123759
-0.129011
-0.134331
-0.139762
-0.145402
-0.150928
-0.158806
-0.0483768
-0.0542202
-0.0599642
-0.065612
-0.0711676
-0.0766352
-0.0820202
-0.0873287
-0.0925681
-0.0977472
-0.102877
-0.10797
-0.113043
-0.118115
-0.123212
-0.128363
-0.133606
-0.139015
-0.144377
-0.15141
-0.0452858
-0.0508892
-0.0564041
-0.0618338
-0.0671819
-0.0724523
-0.0776498
-0.0827799
-0.087849
-0.0928649
-0.0978366
-0.102775
-0.107695
-0.112611
-0.117545
-0.122522
-0.127572
-0.132753
-0.137932
-0.144229
-0.0423309
-0.0477028
-0.0529961
-0.0582135
-0.0633584
-0.0684346
-0.0734462
-0.078398
-0.0832958
-0.0881461
-0.0929567
-0.097737
-0.102498
-0.107254
-0.112021
-0.116821
-0.121677
-0.126635
-0.131619
-0.13728
-0.0395053
-0.0446542
-0.0497328
-0.0547439
-0.0596905
-0.0645758
-0.0694038
-0.0741786
-0.078905
-0.0835889
-0.0882366
-0.0928562
-0.0974567
-0.10205
-0.106648
-0.11127
-0.115934
-0.120676
-0.125458
-0.130573
-0.0368027
-0.0417367
-0.0466079
-0.0514186
-0.0561717
-0.0608702
-0.0655174
-0.070117
-0.0746732
-0.0791908
-0.0836753
-0.0881333
-0.0925723
-0.0970015
-0.101432
-0.105877
-0.110352
-0.114886
-0.119465
-0.124114
-0.0342172
-0.0389444
-0.0436151
-0.0482316
-0.0527965
-0.0573124
-0.0617822
-0.0662091
-0.0705968
-0.0749494
-0.0792715
-0.0835684
-0.0878463
-0.0921126
-0.0963761
-0.100647
-0.104938
-0.109274
-0.11365
-0.117905
-0.0317436
-0.0362717
-0.040749
-0.0451774
-0.0495594
-0.0538972
-0.0581934
-0.0624508
-0.0666726
-0.0708622
-0.0750234
-0.0791607
-0.083279
-0.0873843
-0.0914835
-0.0955849
-0.0996975
-0.103844
-0.108022
-0.111944
-0.0293769
-0.0337135
-0.0380042
-0.0422508
-0.0464553
-0.0506198
-0.0547467
-0.0588382
-0.0628971
-0.0669264
-0.0709291
-0.074909
-0.07887
-0.082817
-0.0867554
-0.0906914
-0.0946319
-0.0985977
-0.102585
-0.106225
-0.0271127
-0.0312651
-0.0353759
-0.0394468
-0.0434795
-0.0474758
-0.0514377
-0.0553673
-0.0592669
-0.063139
-0.0669862
-0.0708116
-0.0746184
-0.0784103
-0.0821917
-0.0859674
-0.0897422
-0.093536
-0.0973394
-0.100743
-0.0249464
-0.0289219
-0.0328596
-0.036761
-0.0406274
-0.0444606
-0.0482623
-0.0520343
-0.0557785
-0.0594971
-0.0631923
-0.0668665
-0.0705224
-0.0741631
-0.0777918
-0.0814122
-0.0850278
-0.0886576
-0.0922857
-0.0954871
-0.0228744
-0.02668
-0.0304511
-0.0341889
-0.0378948
-0.0415701
-0.0452165
-0.0488353
-0.0524284
-0.0559975
-0.0595444
-0.0630712
-0.0665801
-0.0700735
-0.073554
-0.0770243
-0.080487
-0.0839604
-0.0874215
-0.0904498
-0.0208928
-0.0245353
-0.0281461
-0.0317265
-0.0352774
-0.0388002
-0.0422962
-0.0457666
-0.049213
-0.0526368
-0.0560396
-0.059423
-0.062789
-0.0661393
-0.0694762
-0.0728016
-0.0761174
-0.0794414
-0.0827437
-0.0856213
-0.018998
-0.0224839
-0.0259408
-0.0293696
-0.0327713
-0.0361469
-0.0394976
-0.0428244
-0.0461287
-0.0494116
-0.0526745
-0.0559189
-0.0591461
-0.0623578
-0.0655557
-0.0687412
-0.071916
-0.0750969
-0.0782482
-0.0809927
-0.0171864
-0.0205223
-0.0238313
-0.0271145
-0.0303725
-0.0336062
-0.0368167
-0.0400049
-0.0431717
-0.0463183
-0.0494459
-0.0525555
-0.0556484
-0.0587259
-0.0617895
-0.0648401
-0.0678793
-0.0709229
-0.0739306
-0.0765552
-0.015455
-0.018647
-0.0218142
-0.0249574
-0.0280773
-0.0311745
-0.0342498
-0.0373042
-0.0403384
-0.0433533
-0.04635
-0.0493293
-0.0522924
-0.0552403
-0.0581741
-0.0610947
-0.0640035
-0.0669153
-0.0697861
-0.0723009
-0.0138005
-0.0168547
-0.019886
-0.0228949
-0.025882
-0.0288479
-0.0317932
-0.0347187
-0.037625
-0.040513
-0.0433833
-0.0462369
-0.0490746
-0.0518973
-0.054706
-0.0575013
-0.0602846
-0.0630698
-0.0658098
-0.0682224
-0.0122202
-0.0151425
-0.0180434
-0.0209235
-0.0237832
-0.0266229
-0.0294432
-0.0322447
-0.0350279
-0.0377935
-0.0405421
-0.0432744
-0.0459912
-0.0486933
-0.0513814
-0.054056
-0.0567186
-0.059382
-0.061997
-0.0643132
-0.0107112
-0.0135072
-0.0162834
-0.01904
-0.0217774
-0.024496
-0.0271962
-0.0298785
-0.0325433
-0.0351911
-0.0378226
-0.0404382
-0.0430386
-0.0456244
-0.0481964
-0.0507548
-0.0533012
-0.0558474
-0.0583428
-0.0605673
-0.00927088
-0.0119461
-0.0146028
-0.0172411
-0.0198613
-0.0224638
-0.0250487
-0.0276165
-0.0301676
-0.0327022
-0.035221
-0.0377244
-0.0402128
-0.0426868
-0.0451471
-0.0475937
-0.0500284
-0.0524618
-0.0548428
-0.0569792
-0.00789679
-0.0104565
-0.0129988
-0.0155239
-0.0180319
-0.0205229
-0.0229973
-0.0254553
-0.0278971
-0.0303231
-0.0327337
-0.0351292
-0.03751
-0.0398766
-0.0422294
-0.0445686
-0.0468959
-0.0492209
-0.0514923
-0.0535439
-0.00658649
-0.00903575
-0.0114687
-0.0138854
-0.0162858
-0.0186702
-0.0210387
-0.0233913
-0.0257284
-0.0280502
-0.0303569
-0.0326488
-0.0349263
-0.0371897
-0.0394394
-0.0416755
-0.0438996
-0.0461204
-0.0482869
-0.0502567
-0.00533764
-0.00768133
-0.0100097
-0.0123227
-0.0146203
-0.0169025
-0.0191695
-0.0214213
-0.0236581
-0.0258799
-0.028087
-0.0302796
-0.032458
-0.0346224
-0.0367731
-0.0389102
-0.0410354
-0.0431561
-0.0452224
-0.0471132
-0.00414813
-0.00639086
-0.00861927
-0.0108331
-0.0130323
-0.0152169
-0.0173867
-0.019542
-0.0216826
-0.0238087
-0.0259204
-0.0280179
-0.0301013
-0.0321708
-0.0342267
-0.0362689
-0.0382993
-0.040324
-0.0422944
-0.0441089
-0.00301599
-0.00516205
-0.00729493
-0.00941404
-0.0115192
-0.0136103
-0.0156872
-0.0177501
-0.0197988
-0.0218333
-0.0238537
-0.0258601
-0.0278525
-0.0298312
-0.0317963
-0.0337477
-0.0356871
-0.03762
-0.0394989
-0.0412397
-0.0019376
-0.00399204
-0.00603397
-0.0080627
-0.010078
-0.0120799
-0.0140681
-0.0160426
-0.0180033
-0.0199502
-0.0218833
-0.0238026
-0.025708
-0.0275998
-0.029478
-0.0313425
-0.033195
-0.03504
-0.0368318
-0.0385015
-0.000912416
-0.00287996
-0.00483475
-0.00677698
-0.00870649
-0.010623
-0.0125264
-0.0144165
-0.0162932
-0.0181564
-0.020006
-0.021842
-0.0236643
-0.0254731
-0.0272682
-0.0290497
-0.0308191
-0.0325801
-0.0342889
-0.0358903
6.1967e-05
-0.00182234
-0.00369434
-0.00555424
-0.00740191
-0.00923706
-0.0110595
-0.012869
-0.0146654
-0.0164486
-0.0182185
-0.019975
-0.0217179
-0.0234474
-0.0251633
-0.0268655