/*--------------------------------*- C++ -*----------------------------------*\
  =========                 |
  \\      /  F ield         | OpenFOAM: The Open Source CFD Toolbox
   \\    /   O peration     | Website:  https://openfoam.org
    \\  /    A nd           | Version:  7
     \\/     M anipulation  |
\*---------------------------------------------------------------------------*/
FoamFile
{
    version     2.0;
    format      ascii;
    class       volScalarField;
    location    "55.999258";
    object      p;
}
// * * * * * * * * * * * * * * * * * * * * * * * * * * * * * * * * * * * * * //

dimensions      [0 2 -2 0 0 0 0];

internalField   nonuniform List<scalar> 
5800
(
-0.287763
-0.291952
-0.294403
-0.295754
-0.296314
-0.296052
-0.294978
-0.293117
-0.290485
-0.287095
0.821318
0.782292
0.754637
0.732057
0.710976
0.690728
0.670471
0.649506
0.627488
0.604348
0.580216
0.821318
0.782292
0.754637
0.732057
0.710976
0.690728
0.670471
0.649506
0.627488
0.604348
0.580216
0.555347
0.530054
0.504656
0.479446
0.454676
0.430554
0.407236
0.384857
0.363483
0.81679
0.777945
0.750439
0.728016
0.70712
0.687082
0.667054
0.64633
0.624557
0.601657
0.577756
0.553105
0.528015
0.502804
0.477766
0.453153
0.429174
0.405986
0.383718
0.362467
0.807769
0.769283
0.742074
0.719965
0.699437
0.679816
0.660243
0.639999
0.618712
0.596291
0.57285
0.548634
0.523949
0.499111
0.474415
0.450115
0.426422
0.403492
0.381443
0.360441
0.794322
0.756372
0.729605
0.707964
0.687983
0.668982
0.650086
0.630553
0.60999
0.588283
0.565528
0.54196
0.517877
0.493596
0.46941
0.445577
0.422311
0.399766
0.378046
0.357413
0.77655
0.739311
0.713128
0.692103
0.672841
0.654655
0.63665
0.618056
0.598447
0.577681
0.555832
0.533119
0.509835
0.486289
0.462778
0.439562
0.416861
0.394827
0.373541
0.353394
0.754586
0.718228
0.692767
0.6725
0.654122
0.636938
0.620028
0.602589
0.584155
0.56455
0.54382
0.522164
0.499864
0.477229
0.454553
0.432101
0.4101
0.388697
0.36795
0.348403
0.728593
0.693282
0.668675
0.649301
0.631963
0.615956
0.600334
0.584254
0.567205
0.548969
0.52956
0.509154
0.488022
0.466465
0.444778
0.423231
0.40206
0.381407
0.3613
0.342458
0.698767
0.664661
0.641034
0.62268
0.606525
0.591857
0.5777
0.563169
0.547702
0.531033
0.513137
0.494165
0.474371
0.454053
0.433504
0.412997
0.39278
0.372991
0.353621
0.335584
0.665326
0.63258
0.610052
0.592833
0.577993
0.56481
0.552281
0.539474
0.525769
0.510849
0.494645
0.477279
0.458987
0.440058
0.420787
0.401449
0.382305
0.363489
0.344948
0.327807
0.62852
0.597278
0.575958
0.559981
0.546572
0.535006
0.524249
0.513321
0.501543
0.488539
0.474192
0.458592
0.441952
0.424555
0.406692
0.388645
0.370683
0.352943
0.335318
0.319157
0.588618
0.559017
0.539008
0.524366
0.51249
0.502653
0.493793
0.484881
0.475175
0.464235
0.451896
0.438206
0.423359
0.407624
0.391291
0.374645
0.357971
0.341401
0.324773
0.309662
0.545912
0.518081
0.499475
0.486248
0.475991
0.467977
0.461119
0.454337
0.446827
0.438084
0.427883
0.416235
0.403305
0.389351
0.374659
0.359519
0.344225
0.328914
0.313357
0.299355
0.500713
0.474768
0.457647
0.445906
0.437336
0.431219
0.426444
0.421887
0.416677
0.410239
0.402292
0.392799
0.381899
0.369832
0.356881
0.343336
0.329509
0.315536
0.301114
0.288268
0.453345
0.429395
0.413832
0.403631
0.3968
0.392632
0.390001
0.387739
0.384908
0.380866
0.375267
0.368026
0.359251
0.349164
0.338041
0.326175
0.313889
0.301324
0.288094
0.276429
0.404148
0.382288
0.368344
0.359725
0.354668
0.352482
0.352032
0.352111
0.351717
0.350136
0.34696
0.342051
0.335481
0.327453
0.318234
0.308115
0.297433
0.286338
0.274344
0.263869
0.353469
0.333783
0.321509
0.314501
0.311235
0.311043
0.312788
0.315228
0.317304
0.31823
0.31753
0.315013
0.310711
0.304806
0.297553
0.289241
0.280217
0.270641
0.25992
0.250614
0.301663
0.284223
0.273657
0.268277
0.266801
0.268594
0.272525
0.277325
0.281878
0.285331
0.28714
0.287056
0.28507
0.281336
0.276098
0.269639
0.262315
0.254303
0.244882
0.236671
0.249085
0.23395
0.225123
0.221372
0.221671
0.225421
0.231505
0.238638
0.245653
0.25163
0.255958
0.258328
0.258687
0.257159
0.253973
0.249402
0.243808
0.237396
0.229293
0.222018
0.196093
0.183308
0.176238
0.174108
0.176149
0.181808
0.189992
0.199407
0.208843
0.217319
0.224154
0.22898
0.231695
0.232393
0.231281
0.228624
0.224779
0.219985
0.213211
0.206637
0.14304
0.132636
0.12733
0.1268
0.130538
0.138041
0.148249
0.159873
0.171667
0.182591
0.191901
0.199164
0.20423
0.207155
0.20813
0.207403
0.205313
0.202135
0.196881
0.19075
0.0902712
0.0822657
0.0787212
0.0797595
0.0851343
0.0943996
0.10654
0.120277
0.134341
0.147642
0.15937
0.169033
0.176425
0.181567
0.184626
0.185842
0.185517
0.184016
0.181207
0.176656
0.0381237
0.0325179
0.0307227
0.0332879
0.0402282
0.0511596
0.0651194
0.0808549
0.0970812
0.112663
0.126734
0.138738
0.148416
0.155747
0.160872
0.164023
0.165466
0.165555
0.164721
0.162223
-0.0130736
-0.0163036
-0.0163691
-0.0123261
-0.00390189
0.00858647
0.0242388
0.0418388
0.0600981
0.0778466
0.0941624
0.10843
0.120335
0.12981
0.13697
0.142029
0.14523
0.146866
0.147642
0.147206
-0.0630118
-0.0639092
-0.0622745
-0.0568091
-0.0469907
-0.033065
-0.0158609
0.00345362
0.0235986
0.0433783
0.0618226
0.078258
0.0923127
0.103874
0.11302
0.119951
0.124891
0.128085
0.130339
0.131656
-0.111496
-0.109971
-0.106724
-0.0999054
-0.0887892
-0.0735536
-0.0549499
-0.0340848
-0.0122181
0.00943965
0.0298773
0.0483665
0.0644788
0.0780519
0.0891277
0.0978832
0.10453
0.109285
0.112981
0.11581
-0.158127
-0.154329
-0.149479
-0.141377
-0.129068
-0.112654
-0.0928116
-0.0705712
-0.0471607
-0.0237943
-0.00151542
0.0188968
0.0369585
0.0524562
0.0653915
0.0759154
0.0842263
0.0905224
0.095629
0.099868
-0.202715
-0.196718
-0.190321
-0.181009
-0.16761
-0.150165
-0.129247
-0.105813
-0.0810482
-0.0561566
-0.032204
-0.0100147
0.00987334
0.027195
0.0419088
0.054136
0.0640599
0.0718627
0.0783427
0.0839292
-0.245052
-0.236932
-0.229057
-0.218613
-0.204233
-0.185892
-0.164069
-0.139637
-0.113711
-0.0874895
-0.0620439
-0.0382378
-0.0166599
0.00237254
0.018773
0.0326294
0.0441075
0.0533737
0.0611855
0.0680636
-0.284952
-0.2748
-0.26552
-0.254025
-0.238773
-0.219674
-0.197115
-0.171871
-0.144997
-0.117647
-0.0908991
-0.0656489
-0.0425301
-0.0219117
-0.00392688
0.0114757
0.0244414
0.0351201
0.0442181
0.0523344
-0.322255
-0.310177
-0.299571
-0.287109
-0.27109
-0.251371
-0.228242
-0.202379
-0.17476
-0.146491
-0.118644
-0.0921321
-0.0676324
-0.0455638
-0.0261069
-0.00924963
0.00512921
0.017162
0.0274959
0.0367974
-0.356834
-0.342948
-0.331101
-0.317754
-0.301074
-0.280866
-0.257329
-0.231035
-0.202876
-0.173901
-0.145161
-0.11758
-0.0918692
-0.0684961
-0.0476884
-0.0294765
-0.0137663
-0.000445021
0.0110689
0.0215019
-0.388592
-0.373026
-0.360027
-0.345881
-0.32864
-0.308068
-0.284277
-0.257733
-0.229237
-0.199769
-0.170346
-0.141893
-0.115151
-0.0906267
-0.0685986
-0.0491401
-0.0321876
-0.0176496
-0.005018
0.00649227
-0.41746
-0.400353
-0.386297
-0.371436
-0.353731
-0.332912
-0.309011
-0.282391
-0.253752
-0.224
-0.194106
-0.164985
-0.137394
-0.111882
-0.0887713
-0.0681801
-0.0500822
-0.0344034
-0.0207266
-0.00819006
-0.443404
-0.424902
-0.409887
-0.394395
-0.376317
-0.355361
-0.331482
-0.304946
-0.276351
-0.246518
-0.216362
-0.186776
-0.158526
-0.132194
-0.108146
-0.0865461
-0.0674014
-0.0506604
-0.0360226
-0.0225085
-0.466415
-0.446672
-0.430801
-0.414761
-0.396396
-0.375401
-0.351665
-0.32536
-0.296982
-0.267262
-0.237048
-0.207199
-0.178483
-0.151503
-0.126668
-0.104187
-0.0841062
-0.0664054
-0.050823
-0.0364637
-0.486515
-0.465689
-0.449068
-0.432562
-0.413991
-0.393045
-0.36956
-0.343617
-0.315615
-0.286188
-0.256111
-0.226199
-0.197207
-0.169757
-0.144289
-0.121059
-0.100155
-0.0815838
-0.0651409
-0.0501397
-0.50375
-0.482006
-0.464742
-0.447852
-0.429148
-0.40833
-0.385188
-0.359723
-0.332238
-0.303271
-0.273516
-0.243733
-0.214655
-0.18691
-0.160969
-0.137127
-0.115515
-0.0961713
-0.0789496
-0.0632668
-0.518194
-0.495698
-0.4779
-0.460704
-0.441939
-0.421317
-0.398595
-0.373706
-0.346862
-0.318504
-0.289241
-0.259769
-0.23079
-0.202926
-0.176672
-0.152358
-0.130158
-0.110142
-0.0922227
-0.0759008
-0.529942
-0.50686
-0.488638
-0.471215
-0.452454
-0.432086
-0.409849
-0.385616
-0.359515
-0.331897
-0.30328
-0.274291
-0.245585
-0.217776
-0.191368
-0.166725
-0.14406
-0.123474
-0.104944
-0.0880678
-0.539108
-0.515607
-0.49707
-0.479498
-0.4608
-0.440738
-0.419036
-0.39552
-0.370248
-0.34348
-0.315644
-0.287292
-0.259027
-0.231439
-0.205036
-0.180207
-0.157201
-0.136152
-0.117097
-0.09975
-0.545827
-0.522068
-0.503326
-0.48568
-0.467102
-0.447387
-0.426258
-0.403508
-0.379128
-0.353297
-0.326358
-0.298781
-0.271111
-0.243903
-0.217659
-0.192787
-0.169566
-0.148161
-0.128668
-0.110931
-0.550244
-0.526387
-0.507546
-0.489902
-0.471495
-0.452164
-0.431637
-0.409681
-0.386237
-0.361412
-0.335462
-0.30878
-0.281843
-0.255163
-0.229228
-0.204452
-0.181142
-0.159491
-0.139647
-0.121602
-0.552519
-0.528718
-0.509882
-0.492311
-0.474127
-0.455209
-0.435301
-0.414157
-0.391677
-0.367903
-0.343015
-0.317325
-0.291241
-0.265225
-0.239739
-0.215196
-0.191923
-0.170136
-0.150028
-0.13176
-0.552821
-0.529219
-0.510491
-0.493063
-0.475148
-0.45667
-0.437392
-0.417065
-0.395559
-0.372862
-0.349085
-0.324464
-0.299335
-0.274103
-0.249196
-0.225017
-0.201904
-0.18009
-0.159807
-0.141405
-0.551323
-0.528058
-0.509532
-0.492315
-0.474717
-0.4567
-0.438057
-0.418543
-0.398006
-0.376394
-0.353757
-0.330258
-0.306164
-0.28182
-0.257609
-0.233917
-0.211083
-0.189353
-0.168985
-0.150539
-0.548202
-0.525399
-0.507168
-0.490229
-0.472989
-0.455455
-0.437447
-0.418732
-0.39915
-0.378614
-0.357124
-0.334781
-0.311781
-0.288407
-0.264996
-0.241903
-0.219464
-0.197926
-0.177562
-0.159172
-0.543636
-0.52141
-0.503558
-0.486959
-0.470121
-0.453088
-0.435713
-0.41778
-0.399127
-0.379645
-0.359293
-0.338115
-0.316247
-0.293907
-0.271381
-0.248989
-0.227051
-0.205812
-0.185544
-0.167318
-0.537799
-0.516253
-0.498859
-0.48266
-0.466264
-0.449751
-0.433005
-0.415833
-0.398077
-0.379615
-0.360375
-0.340355
-0.319634
-0.298371
-0.276797
-0.255193
-0.233856
-0.213018
-0.192937
-0.174998
-0.530862
-0.510086
-0.493222
-0.477478
-0.461563
-0.445588
-0.429468
-0.413034
-0.396138
-0.378654
-0.360489
-0.341601
-0.322022
-0.301857
-0.281284
-0.260538
-0.239889
-0.219552
-0.199749
-0.182237
-0.522989
-0.503061
-0.48679
-0.471553
-0.456156
-0.440737
-0.42524
-0.409522
-0.393449
-0.376895
-0.359755
-0.34196
-0.323501
-0.304433
-0.284887
-0.265052
-0.245168
-0.225423
-0.205991
-0.189069
-0.514334
-0.49532
-0.479699
-0.465015
-0.450171
-0.435326
-0.420451
-0.405427
-0.390138
-0.374465
-0.358295
-0.341542
-0.324162
-0.306174
-0.287661
-0.26877
-0.249709
-0.230642
-0.21167
-0.195533
-0.505044
-0.486995
-0.472072
-0.457985
-0.443727
-0.429473
-0.41522
-0.400872
-0.386331
-0.371487
-0.356228
-0.340456
-0.324105
-0.30716
-0.289665
-0.27173
-0.253535
-0.235218
-0.216793
-0.201666
-0.495252
-0.47821
-0.464025
-0.450572
-0.436929
-0.423285
-0.409655
-0.395968
-0.382141
-0.368077
-0.353669
-0.338813
-0.323428
-0.307474
-0.290964
-0.273976
-0.256667
-0.239157
-0.221362
-0.207503
-0.48508
-0.469075
-0.455661
-0.442873
-0.429873
-0.416856
-0.403853
-0.390812
-0.37767
-0.364341
-0.350724
-0.336717
-0.32223
-0.307203
-0.291628
-0.275556
-0.259128
-0.242462
-0.225368
-0.213057
-0.474638
-0.45969
-0.447073
-0.434977
-0.422643
-0.410268
-0.397897
-0.385493
-0.373009
-0.360373
-0.347492
-0.334268
-0.320605
-0.306434
-0.291729
-0.276521
-0.260944
-0.245126
-0.228787
-0.218298
-0.464023
-0.450143
-0.438341
-0.42696
-0.415312
-0.403593
-0.391858
-0.380084
-0.368237
-0.356256
-0.34406
-0.331554
-0.318644
-0.305253
-0.291341
-0.276926
-0.262141
-0.247139
-0.231576
-0.223108
-0.453321
-0.440511
-0.429537
-0.418887
-0.407941
-0.396891
-0.385796
-0.374647
-0.363418
-0.352061
-0.340504
-0.328658
-0.316431
-0.303742
-0.290541
-0.276833
-0.262749
-0.248478
-0.233669
-0.227212
-0.442604
-0.430863
-0.420723
-0.410815
-0.400584
-0.390211
-0.37976
-0.369231
-0.358605
-0.347845
-0.336886
-0.325647
-0.314039
-0.301977
-0.289402
-0.276305
-0.262805
-0.249129
-0.235019
-0.230145
-0.431934
-0.421254
-0.411951
-0.402792
-0.393282
-0.383593
-0.373789
-0.363874
-0.35384
-0.343653
-0.333258
-0.32258
-0.311532
-0.300028
-0.287998
-0.275412
-0.262352
-0.249078
-0.235591
-0.231113
-0.421367
-0.411735
-0.403266
-0.394857
-0.386073
-0.377071
-0.367913
-0.358608
-0.349152
-0.339519
-0.329658
-0.319501
-0.308964
-0.297958
-0.286401
-0.27423
-0.261449
-0.248297
-0.234769
-0.226668
-0.410946
-0.402347
-0.394705
-0.387046
-0.378985
-0.370668
-0.362153
-0.353453
-0.344564
-0.335466
-0.326114
-0.316445
-0.306378
-0.295821
-0.28468
-0.272853
-0.26023
-0.246959
-0.231866
-0.204756
-0.400711
-0.393128
-0.386303
-0.379386
-0.372044
-0.364407
-0.356529
-0.348424
-0.34009
-0.331511
-0.322646
-0.313436
-0.303805
-0.293661
-0.2829
-0.271398
-0.258943
-0.245701
-0.231276
-0.19772
-0.390697
-0.38411
-0.378089
-0.371903
-0.365269
-0.358303
-0.351053
-0.343532
-0.33574
-0.327663
-0.319264
-0.31049
-0.301268
-0.291509
-0.281109
-0.26994
-0.257754
-0.244791
-0.231765
-0.198386
-0.380935
-0.375323
-0.370089
-0.36462
-0.358682
-0.352373
-0.345736
-0.338784
-0.33152
-0.323927
-0.315976
-0.307615
-0.298779
-0.289383
-0.27933
-0.268498
-0.256644
-0.244061
-0.231971
-0.199717
-0.371456
-0.366796
-0.36233
-0.357559
-0.352298
-0.346628
-0.340588
-0.334189
-0.327433
-0.320307
-0.312783
-0.304815
-0.296344
-0.287292
-0.27757
-0.267069
-0.255562
-0.243382
-0.231813
-0.201042
-0.36229
-0.358556
-0.354836
-0.350743
-0.346137
-0.341085
-0.33562
-0.329752
-0.323484
-0.316804
-0.309687
-0.302092
-0.293967
-0.28524
-0.275834
-0.265652
-0.254491
-0.242727
-0.231509
-0.20257
-0.353468
-0.350634
-0.347634
-0.344193
-0.340216
-0.335757
-0.330842
-0.325482
-0.319679
-0.313422
-0.306691
-0.299449
-0.291648
-0.28323
-0.274125
-0.264251
-0.253435
-0.24209
-0.231146
-0.204271
-0.345024
-0.343058
-0.340752
-0.337934
-0.334558
-0.330662
-0.326269
-0.321389
-0.316025
-0.310168
-0.303799
-0.296888
-0.289394
-0.281265
-0.272447
-0.262871
-0.252395
-0.241459
-0.23075
-0.206049
-0.336995
-0.335863
-0.334217
-0.331992
-0.329183
-0.325818
-0.321916
-0.317488
-0.312535
-0.307051
-0.30102
-0.294417
-0.287209
-0.279354
-0.270808
-0.261518
-0.251375
-0.240833
-0.230344
-0.207837
-0.329419
-0.329082
-0.328061
-0.326393
-0.324116
-0.321248
-0.317803
-0.313794
-0.309222
-0.304083
-0.298365
-0.292047
-0.285105
-0.277504
-0.269216
-0.2602
-0.250384
-0.240214
-0.229951
-0.209588
-0.322338
-0.322751
-0.322316
-0.321167
-0.319384
-0.316975
-0.313951
-0.310326
-0.306104
-0.301281
-0.295849
-0.289793
-0.283094
-0.275731
-0.267684
-0.25893
-0.249428
-0.239607
-0.229583
-0.211261
-0.315795
-0.316907
-0.317016
-0.316345
-0.315015
-0.313024
-0.310383
-0.307107
-0.303201
-0.298664
-0.293491
-0.287672
-0.281196
-0.274049
-0.266226
-0.257719
-0.248517
-0.23902
-0.229248
-0.212823
-0.309834
-0.311589
-0.312194
-0.311957
-0.311035
-0.309421
-0.307125
-0.304161
-0.300537
-0.296255
-0.291313
-0.285706
-0.279429
-0.272479
-0.264862
-0.256585
-0.247663
-0.238461
-0.22895
-0.214247
-0.304499
-0.306835
-0.307885
-0.308034
-0.307476
-0.306195
-0.304201
-0.301512
-0.298136
-0.294077
-0.289336
-0.283916
-0.277815
-0.271041
-0.263609
-0.255541
-0.246876
-0.237939
-0.22869
-0.215514
-0.299833
-0.302681
-0.304121
-0.304607
-0.304363
-0.30337
-0.301638
-0.299185
-0.296021
-0.292153
-0.287587
-0.282326
-0.276378
-0.269757
-0.262488
-0.254607
-0.246171
-0.237466
-0.228468
-0.216612
-0.295876
-0.299161
-0.300931
-0.301702
-0.301724
-0.300973
-0.299459
-0.297203
-0.294217
-0.290508
-0.286086
-0.280959
-0.275139
-0.268648
-0.261518
-0.253797
-0.245559
-0.237051
-0.228284
-0.292663
-0.296305
-0.298344
-0.299346
-0.299581
-0.299025
-0.297687
-0.295589
-0.292744
-0.289163
-0.284857
-0.279837
-0.27412
-0.267733
-0.260717
-0.253129
-0.245052
-0.236705
-0.228137
-0.290225
-0.294139
-0.296383
-0.297559
-0.297956
-0.297547
-0.296341
-0.294361
-0.291622
-0.288137
-0.283917
-0.278978
-0.273339
-0.267031
-0.260101
-0.252614
-0.244662
-0.236436
-0.228027
-0.288586
-0.292683
-0.295065
-0.296358
-0.296863
-0.296552
-0.295434
-0.293533
-0.290865
-0.287444
-0.283282
-0.278396
-0.272809
-0.266555
-0.259683
-0.252265
-0.244397
-0.236253
-0.227954
-0.287763
-0.291952
-0.294403
-0.295754
-0.296314
-0.296052
-0.294978
-0.293117
-0.290485
-0.287095
-0.282962
-0.278103
-0.272542
-0.266314
-0.259472
-0.252088
-0.244263
-0.23616
-0.227918
0.176917
0.181004
0.188598
0.197218
0.206363
0.213575
0.219068
0.218978
0.217164
0.203707
0.17845
0.182644
0.190548
0.19966
0.209553
0.217823
0.224747
0.226621
0.226923
0.217419
0.179879
0.184121
0.192215
0.20166
0.212117
0.221237
0.229389
0.233015
0.235314
0.22919
0.181276
0.185559
0.193859
0.20366
0.214713
0.224731
0.234148
0.239581
0.243901
0.240938
0.182614
0.186953
0.195466
0.205628
0.217272
0.228178
0.238814
0.246005
0.252245
0.25218
0.183884
0.188294
0.197003
0.20751
0.219712
0.231461
0.243237
0.252092
0.260149
0.262772
0.185085
0.189571
0.198463
0.209296
0.222023
0.234573
0.247416
0.257846
0.267634
0.272765
0.186214
0.190696
0.199843
0.210985
0.224204
0.237513
0.251357
0.263268
0.274701
0.282163
0.187271
0.191837
0.201137
0.212571
0.226251
0.240272
0.255048
0.268341
0.281324
0.290949
0.188251
0.192884
0.202339
0.214049
0.228154
0.24284
0.258477
0.273047
0.28748
0.299103
0.189152
0.19384
0.203447
0.215412
0.229907
0.245206
0.261633
0.277373
0.293147
0.306604
0.18997
0.194711
0.204456
0.216656
0.231504
0.247361
0.264507
0.281305
0.298305
0.313431
0.190704
0.195493
0.205363
0.217775
0.232939
0.249298
0.267088
0.284833
0.302938
0.319562
0.191351
0.196184
0.206166
0.218766
0.234207
0.251009
0.269367
0.287945
0.307028
0.324975
0.191909
0.19678
0.20687
0.219626
0.235303
0.252488
0.271336
0.290632
0.310562
0.329652
0.192376
0.197279
0.207386
0.220347
0.236223
0.253729
0.272989
0.292884
0.313526
0.333576
0.192752
0.197682
0.207887
0.220927
0.236964
0.254728
0.274319
0.294695
0.31591
0.336732
0.193035
0.197986
0.208241
0.221363
0.237521
0.255481
0.275321
0.296059
0.317705
0.33911
0.193224
0.198189
0.208477
0.221655
0.237895
0.255984
0.275991
0.29697
0.318906
0.340699
0.193319
0.198291
0.208596
0.221801
0.238082
0.256236
0.276326
0.297427
0.319507
0.341496
0.0532252
0.0519058
0.0496344
0.0469238
0.0441022
0.0413537
0.0387804
0.0364353
0.0343347
0.0324792
0.0533638
0.0520404
0.0497582
0.0470359
0.0442018
0.0414407
0.0388552
0.0364991
0.0343882
0.0325241
0.0536341
0.0523011
0.0499991
0.0472543
0.0443959
0.0416102
0.0390011
0.0366234
0.0344926
0.0326117
0.0540289
0.0526815
0.0503515
0.0475737
0.0446796
0.041858
0.0392144
0.0368052
0.0346453
0.0327397
0.0545419
0.0531759
0.0508099
0.0479893
0.0450489
0.0421806
0.0394922
0.0370418
0.034844
0.0329062
0.0551678
0.0537792
0.0513697
0.0484971
0.0455001
0.0425749
0.0398316
0.0373311
0.0350867
0.0331095
0.0559013
0.0544864
0.0520266
0.0490934
0.0460303
0.0430383
0.0402306
0.0376709
0.0353718
0.0333483
0.056738
0.0552935
0.0527769
0.0497751
0.0466367
0.0435686
0.0406871
0.0380598
0.0356976
0.0336211
0.0576736
0.0561965
0.0536174
0.0505394
0.0473169
0.0441637
0.0411996
0.0384961
0.036063
0.0339269
0.0587043
0.0571919
0.0545449
0.0513837
0.0480691
0.0448221
0.0417665
0.0389789
0.0364669
0.0342647
0.0598264
0.0582763
0.0555567
0.052306
0.0488914
0.0455424
0.0423869
0.0395071
0.0369085
0.0346338
0.0610365
0.0594467
0.0566503
0.0533043
0.0497824
0.0463235
0.0430597
0.04008
0.037387
0.0350336
0.0623313
0.0607002
0.0578234
0.0543768
0.0507409
0.0471644
0.0437845
0.040697
0.0379019
0.0354635
0.0637077
0.0620341
0.0590739
0.0555221
0.0517658
0.0480646
0.0445606
0.0413579
0.0384529
0.0359234
0.0651627
0.0634457
0.0603998
0.0567388
0.0528562
0.0490236
0.0453878
0.0420625
0.03904
0.0364131
0.0666933
0.0649325
0.0617993
0.0580257
0.0540117
0.0500411
0.0462662
0.0428108
0.039663
0.0369326
0.0682966
0.066492
0.0632705
0.0593818
0.0552315
0.0511169
0.0471956
0.043603
0.0403221
0.037482
0.0699698
0.0681216
0.0648118
0.060806
0.0565154
0.0522512
0.0481766
0.0444396
0.0410178
0.0380617
0.0717098
0.0698191
0.0664215
0.0622974
0.0578631
0.0534442
0.0492094
0.045321
0.0417505
0.038672
0.0735138
0.0715819
0.068098
0.0638553
0.0592745
0.0546963
0.0502948
0.0462481
0.042521
0.0393138
0.0753789
0.0734075
0.0698396
0.0654789
0.0607496
0.0560078
0.0514335
0.0472218
0.04333
0.0399877
0.077302
0.0752936
0.0716448
0.0671673
0.0622884
0.0573796
0.0526266
0.0482432
0.0441787
0.0406946
0.0792801
0.0772374
0.0735119
0.0689201
0.0638911
0.0588123
0.053875
0.0493134
0.0450683
0.0414357
0.0813102
0.0792365
0.0754393
0.0707363
0.0655579
0.0603069
0.0551801
0.0504341
0.0460002
0.0422123
0.0833891
0.0812883
0.0774253
0.0726154
0.0672892
0.0618642
0.0565434
0.0516068
0.046976
0.0430259
0.0855136
0.0833899
0.0794681
0.0745567
0.0690852
0.0634855
0.0579664
0.0528333
0.0479975
0.043878
0.0876804
0.0855387
0.081566
0.0765594
0.0709463
0.0651719
0.0594508
0.0541155
0.0490667
0.0447704
0.0898862
0.0877318
0.0837171
0.0786228
0.0728729
0.0669246
0.0609985
0.0554557
0.0501859
0.0457053
0.0921276
0.0899664
0.0859195
0.0807461
0.0748655
0.0687449
0.0626116
0.0568562
0.0513574
0.0466847
0.0944011
0.0922394
0.0881711
0.0829284
0.0769245
0.0706344
0.0642923
0.0583195
0.052584
0.0477111
0.0967033
0.0945478
0.0904699
0.0851687
0.0790502
0.0725944
0.0660428
0.0598482
0.0538684
0.048787
0.0990306
0.0968886
0.0928137
0.0874661
0.081243
0.0746263
0.0678656
0.0614452
0.0552137
0.0499153
0.10138
0.0992585
0.0952001
0.0898195
0.0835033
0.0767317
0.0697632
0.0631136
0.0566234
0.051099
0.103746
0.101654
0.0976268
0.0922275
0.0858313
0.0789121
0.0717383
0.0648563
0.0581009
0.0523413
0.106128
0.104073
0.100091
0.0946891
0.0882271
0.0811688
0.0737936
0.0666769
0.0596502
0.0536457
0.10852
0.106511
0.102591
0.0972026
0.0906909
0.0835035
0.075932
0.0685786
0.0612752
0.0550159
0.110919
0.108965
0.105123
0.0997665
0.0932225
0.0859174
0.0781564
0.0705652
0.0629802
0.0564558
0.113322
0.111432
0.107685
0.102379
0.0958219
0.0884119
0.0804698
0.0726403
0.06477
0.0579696
0.115724
0.113908
0.110274
0.105039
0.0984886
0.0909883
0.082875
0.0748078
0.0666492
0.0595617
0.118124
0.11639
0.112887
0.107743
0.101222
0.0936476
0.0853752
0.0770715
0.0686231
0.0612367
0.120516
0.118874
0.11552
0.11049
0.104022
0.0963909
0.0879733
0.0794355
0.0706969
0.0629995
0.122898
0.121358
0.118171
0.113277
0.106887
0.099219
0.0906721
0.0819038
0.0728763
0.0648553
0.125267
0.123837
0.120836
0.116102
0.109816
0.102132
0.0934746
0.0844805
0.0751672
0.0668095
0.127618
0.126309
0.123513
0.118962
0.112807
0.105132
0.0963834
0.0871697
0.0775756
0.0688676
0.12995
0.12877
0.126197
0.121855
0.11586
0.108217
0.0994011
0.0899756
0.0801079
0.0710358
0.132258
0.131217
0.128885
0.124777
0.118971
0.111389
0.10253
0.0929022
0.0827706
0.0733199
0.134541
0.133646
0.131574
0.127724
0.12214
0.114646
0.105772
0.0959536
0.0855703
0.0757265
0.136795
0.136056
0.134261
0.130695
0.125363
0.117988
0.10913
0.0991338
0.088514
0.078262
0.139018
0.138442
0.136941
0.133685
0.128637
0.121415
0.112604
0.102447
0.0916084
0.0809334
0.141207
0.140802
0.139612
0.136691
0.13196
0.124924
0.116197
0.105896
0.0948606
0.0837476
0.14336
0.143132
0.142269
0.139708
0.135327
0.128514
0.119908
0.109485
0.0982775
0.0867118
0.145474
0.145432
0.14491
0.142733
0.138736
0.132184
0.123737
0.113217
0.101866
0.0898333
0.147549
0.147696
0.147531
0.145762
0.142183
0.135929
0.127686
0.117095
0.105633
0.0931198
0.14958
0.149925
0.150128
0.148791
0.145662
0.139749
0.131752
0.121123
0.109585
0.0965787
0.151569
0.152114
0.152699
0.151816
0.14917
0.143639
0.135936
0.125302
0.113728
0.100218
0.153511
0.154262
0.15524
0.154832
0.152702
0.147595
0.140233
0.129635
0.118067
0.104045
0.155407
0.156366
0.157747
0.157835
0.156252
0.151613
0.144643
0.134123
0.122609
0.108068
0.157254
0.158426
0.160218
0.16082
0.159816
0.155689
0.149162
0.138767
0.127358
0.112295
0.159053
0.160439
0.162651
0.163784
0.163388
0.159817
0.153786
0.143569
0.132317
0.116733
0.160801
0.162404
0.165041
0.166722
0.166962
0.163991
0.15851
0.148529
0.13749
0.121391
0.162499
0.16432
0.167387
0.169631
0.170532
0.168207
0.163329
0.153647
0.142879
0.126276
0.164145
0.166184
0.169686
0.172505
0.174094
0.172457
0.168237
0.158921
0.148485
0.131396
0.16574
0.167997
0.171936
0.17534
0.17764
0.176735
0.173228
0.16435
0.154307
0.136757
0.167282
0.169757
0.174134
0.178134
0.181164
0.181033
0.178292
0.169932
0.160343
0.142364
0.168773
0.171464
0.176279
0.180881
0.184662
0.185345
0.183425
0.175671
0.166601
0.148236
0.170211
0.173117
0.17837
0.183582
0.188132
0.18967
0.188629
0.181576
0.173099
0.154415
0.171597
0.174716
0.180406
0.186231
0.191565
0.193994
0.19388
0.187622
0.17979
0.160842
0.172929
0.176254
0.182371
0.188803
0.194915
0.198242
0.199059
0.193641
0.186406
0.167083
0.174206
0.177725
0.184248
0.191263
0.198127
0.202337
0.204076
0.199541
0.192863
0.172942
0.175448
0.17918
0.186126
0.193763
0.201481
0.20677
0.209785
0.206675
0.201379
0.182117
0.031249
0.0305448
0.0298373
0.0291257
0.0284097
0.0276895
0.0269658
0.026239
0.0255095
0.0247777
0.0240441
0.0233091
0.022573
0.0218363
0.0210994
0.0203626
0.0196265
0.0188913
0.0181575
0.0174254
0.0312886
0.030584
0.0298761
0.029164
0.028447
0.0277255
0.027
0.0262711
0.025539
0.0248043
0.0240673
0.0233286
0.0225885
0.0218475
0.021106
0.0203645
0.0196234
0.0188831
0.0181441
0.0174068
0.0313635
0.0306539
0.0299415
0.0292247
0.0285028
0.0277761
0.0270451
0.0263103
0.0255723
0.0248314
0.024088
0.0233427
0.0225959
0.0218481
0.0210996
0.0203511
0.0196029
0.0188556
0.0181095
0.0173651
0.0314722
0.0307539
0.0300336
0.0293092
0.0285794
0.0278445
0.0271051
0.0263618
0.025615
0.0248651
0.0241127
0.0233581
0.0226019
0.0218446
0.0210867
0.0203285
0.0195707
0.0188137
0.0180579
0.0173039
0.031613
0.0308823
0.0301508
0.0294159
0.0286752
0.0279291
0.0271784
0.0264236
0.0256653
0.0249037
0.0241395
0.023373
0.0226049
0.0218356
0.0210656
0.0202954
0.0195255
0.0187565
0.0179887
0.0172228
0.0317843
0.0310376
0.030292
0.0295435
0.0287892
0.0280291
0.0272643
0.0264954
0.0257228
0.0249469
0.0241683
0.0233875
0.0226049
0.0218211
0.0210367
0.020252
0.0194677
0.0186843
0.0179023
0.0171221
0.0319849
0.0312188
0.030456
0.0296912
0.0289204
0.0281436
0.027362
0.0265763
0.0257869
0.0249941
0.0241987
0.023401
0.0226015
0.0218009
0.0209996
0.0201982
0.0193972
0.0185971
0.0177985
0.0170019
0.0322134
0.0314246
0.0306417
0.0298579
0.0290679
0.0282719
0.0274709
0.0266658
0.0258569
0.0250449
0.0242301
0.023413
0.0225943
0.0217745
0.0209541
0.0201336
0.0193136
0.0184946
0.0176773
0.0168621
0.0324689
0.031654
0.0308483
0.0300429
0.0292311
0.0284131
0.0275901
0.0267631
0.0259324
0.0250985
0.024262
0.0234232
0.0225829
0.0217415
0.0208997
0.0200578
0.0192166
0.0183766
0.0175383
0.0167022
0.0327504
0.0319062
0.0310749
0.0302453
0.0294092
0.0285666
0.0277191
0.0268677
0.0260127
0.0251545
0.0242938
0.023431
0.0225668
0.0217015
0.0208359
0.0199705
0.0191058
0.0182425
0.017381
0.016522
0.0330572
0.0321804
0.0313208
0.0304645
0.0296015
0.0287318
0.0278573
0.0269789
0.0260971
0.0252124
0.0243251
0.0234359
0.0225453
0.021654
0.0207624
0.0198711
0.0189807
0.0180918
0.017205
0.0163209
0.0333887
0.032476
0.0315853
0.0306998
0.0298074
0.0289081
0.028004
0.0270963
0.0261853
0.0252714
0.0243552
0.0234373
0.0225181
0.0215982
0.0206783
0.019759
0.0188407
0.0179241
0.0170097
0.0160982
0.0337445
0.0327926
0.0318682
0.0309509
0.0300266
0.029095
0.0281588
0.0272193
0.0262766
0.0253312
0.0243837
0.0234345
0.0224844
0.0215338
0.0205833
0.0196335
0.0186851
0.0177385
0.0167944
0.0158534
0.0341241
0.0331297
0.0321688
0.0312173
0.0302584
0.0292921
0.0283213
0.0273474
0.0263706
0.0253912
0.0244099
0.0234272
0.0224437
0.02146
0.0204766
0.0194941
0.0185132
0.0175344
0.0165583
0.0155855
0.0345274
0.0334871
0.0324871
0.0314988
0.0305027
0.029499
0.0284911
0.0274802
0.0264667
0.0254509
0.0244334
0.0234147
0.0223954
0.0213762
0.0203575
0.01934
0.0183243
0.017311
0.0163006
0.0152938
0.0349543
0.0338647
0.0328228
0.0317951
0.0307592
0.0297155
0.0286677
0.0276174
0.0265646
0.0255099
0.0244536
0.0233964
0.022339
0.0212818
0.0202254
0.0191705
0.0181177
0.0170675
0.0160206
0.0149774
0.0354051
0.0342626
0.0331759
0.0321061
0.0310278
0.0299413
0.028851
0.0277585
0.026664
0.0255676
0.0244701
0.0233719
0.0222737
0.0211761
0.0200797
0.0189849
0.0178925
0.0168031
0.0157172
0.0146354
0.0358798
0.034681
0.0335464
0.0324319
0.0313083
0.0301763
0.0290408
0.0279034
0.0267644
0.0256238
0.0244824
0.0233406
0.0221992
0.0210586
0.0199195
0.0187824
0.017648
0.0165168
0.0153896
0.0142667
0.036379
0.03512
0.0339347
0.0327726
0.0316009
0.0304204
0.0292369
0.0280519
0.0268655
0.0256781
0.02449
0.023302
0.0221147
0.0209285
0.0197442
0.0185622
0.0173833
0.0162079
0.0150367
0.0138703
0.0369031
0.0355802
0.034341
0.0331284
0.0319056
0.0306738
0.0294392
0.0282038
0.0269673
0.0257301
0.0244926
0.0232556
0.0220197
0.0207853
0.019553
0.0183236
0.0170974
0.0158752
0.0146576
0.0134451
0.037453
0.0360622
0.0347659
0.0334997
0.0322228
0.0309365
0.0296479
0.028359
0.0270695
0.0257796
0.0244899
0.023201
0.0219136
0.0206282
0.0193453
0.0180656
0.0167896
0.015518
0.0142513
0.01299
0.0380296
0.0365668
0.0352098
0.033887
0.0325527
0.0312088
0.029863
0.0285175
0.0271719
0.0258263
0.0244814
0.0231378
0.021796
0.0204567
0.0191204
0.0177876
0.016459
0.0151351
0.0138166
0.0125038
0.0386338
0.0370948
0.0356737
0.0342908
0.0328958
0.0314909
0.0300848
0.0286794
0.0272745
0.0258701
0.0244669
0.0230654
0.0216663
0.0202701
0.0188774
0.0174886
0.0161045
0.0147255
0.0133524
0.0119854
0.0392671
0.0376474
0.0361584
0.0347119
0.0332527
0.0317834
0.0303134
0.0288449
0.0273774
0.0259109
0.0244461
0.0229837
0.0215241
0.0200679
0.0186156
0.0171679
0.0157253
0.0142882
0.0128576
0.0114334
0.0399308
0.0382259
0.0366648
0.0351512
0.0336241
0.0320866
0.0305492
0.0290141
0.0274805
0.0259485
0.0244189
0.0228921
0.0213687
0.0198493
0.0183344
0.0168246
0.0153203
0.0138221
0.0123309
0.0108466
0.0406266
0.0388316
0.0371944
0.0356097
0.0340108
0.0324014
0.0307928
0.0291873
0.027584
0.025983
0.0243849
0.0227904
0.0211998
0.0196139
0.018033
0.0164578
0.0148887
0.0133261
0.0117713
0.0102237
0.0413563
0.0394662
0.0377483
0.0360884
0.0344137
0.0327283
0.0310446
0.0293648
0.0276881
0.0260143