/*--------------------------------*- C++ -*----------------------------------*\
  =========                 |
  \\      /  F ield         | OpenFOAM: The Open Source CFD Toolbox
   \\    /   O peration     | Website:  https://openfoam.org
    \\  /    A nd           | Version:  7
     \\/     M anipulation  |
\*---------------------------------------------------------------------------*/
FoamFile
{
    version     2.0;
    format      ascii;
    class       surfaceScalarField;
    location    "15.000664";
    object      phi;
}
// * * * * * * * * * * * * * * * * * * * * * * * * * * * * * * * * * * * * * //

dimensions      [0 3 -1 0 0 0 0];

internalField   nonuniform List<scalar> 
46020
(
-1.98396e-06
1.98396e-06
4.22684e-12
-7.2971e-06
5.31313e-06
1.14477e-11
-1.55584e-05
8.26123e-06
1.80706e-11
-2.63292e-05
1.07708e-05
2.41884e-11
-3.91039e-05
1.27747e-05
2.9714e-11
-5.33084e-05
1.42044e-05
3.46151e-11
-6.82945e-05
1.49861e-05
3.87814e-11
-8.33333e-05
1.50387e-05
4.18995e-11
-9.76047e-05
1.42714e-05
4.38434e-11
-0.000110185
1.25806e-05
4.41869e-11
-0.000120034
9.84882e-06
4.26825e-11
-0.000125978
5.94386e-06
3.9174e-11
-0.000126702
7.24259e-07
3.26171e-11
-0.000120756
-5.94625e-06
2.27496e-11
-0.00010659
-1.41663e-05
8.81938e-12
-8.26556e-05
-2.39343e-05
-1.01683e-11
-4.76215e-05
-3.50341e-05
-3.42477e-11
-7.70449e-07
-4.6851e-05
-6.47092e-11
5.76178e-05
-5.83882e-05
-1.01051e-10
-6.76843e-05
-1.43803e-10
0.000125302
-1.94497e-06
3.92893e-06
-7.14365e-06
1.05118e-05
-1.52098e-05
1.63273e-05
-2.56978e-05
2.12589e-05
-3.80936e-05
2.51705e-05
-5.1812e-05
2.79228e-05
-6.61922e-05
2.93663e-05
-8.04897e-05
2.93362e-05
-9.38663e-05
2.76479e-05
-0.000105377
2.40917e-05
-0.000113957
1.84285e-05
-0.000118403
1.03899e-05
-0.000117366
-3.12333e-07
-0.000109355
-1.39581e-05
-9.27655e-05
-3.07553e-05
-6.59838e-05
-5.07161e-05
-2.75888e-05
-7.34291e-05
2.32501e-05
-9.76899e-05
8.6324e-05
-0.000121462
-0.000140887
0.000159527
-1.86766e-06
5.79659e-06
-6.83912e-06
1.54833e-05
-1.45176e-05
2.40058e-05
-2.44438e-05
3.11851e-05
-3.6086e-05
3.68127e-05
-4.88377e-05
4.06745e-05
-6.20122e-05
4.25409e-05
-7.48343e-05
4.21584e-05
-8.64296e-05
3.92432e-05
-9.58111e-05
3.34732e-05
-0.000101864
2.44809e-05
-0.000103327
1.18535e-05
-9.87849e-05
-4.85453e-06
-8.66616e-05
-2.60814e-05
-6.52526e-05
-5.21643e-05
-3.28102e-05
-8.31585e-05
1.2258e-05
-0.000118497
7.09901e-05
-0.000156422
0.000143383
-0.000193855
-0.000225025
0.000227521
-1.75332e-06
7.54991e-06
-6.38817e-06
2.01181e-05
-1.34918e-05
3.11095e-05
-2.2584e-05
4.02772e-05
-3.31067e-05
4.73354e-05
-4.44214e-05
5.19893e-05
-5.58029e-05
5.39223e-05
-6.64298e-05
5.27853e-05
-7.53738e-05
4.81872e-05
-8.15849e-05
3.96842e-05
-8.38745e-05
2.67705e-05
-8.08971e-05
8.87613e-06
-7.11362e-05
-1.46155e-05
-5.28955e-05
-4.43221e-05
-2.43204e-05
-8.07394e-05
1.65287e-05
-0.000124008
7.14924e-05
-0.000173461
0.000141917
-0.000226847
0.000228096
-0.000280034
-0.000325314
0.000328385
-1.6038e-06
9.1537e-06
-5.79754e-06
2.43119e-05
-1.21468e-05
3.74587e-05
-2.01429e-05
4.82733e-05
-2.91929e-05
5.63854e-05
-3.86157e-05
6.1412e-05
-4.76346e-05
6.29412e-05
-5.53675e-05
6.05182e-05
-6.08145e-05
5.36342e-05
-6.28424e-05
4.17121e-05
-6.01666e-05
2.40948e-05
-5.13288e-05
3.83533e-08
-3.46838e-05
-3.12605e-05
-8.37825e-06
-7.06276e-05
2.96325e-05
-0.00011875
8.15319e-05
-0.000175907
0.00014948
-0.000241409
0.000235217
-0.000312584
0.000339418
-0.000384235
-0.000446673
0.000460777
-1.42144e-06
1.05751e-05
-5.0757e-06
2.79661e-05
-1.05004e-05
4.28835e-05
-1.71514e-05
5.49243e-05
-2.43919e-05
6.36258e-05
-3.14872e-05
6.85074e-05
-3.75971e-05
6.9051e-05
-4.1764e-05
6.46851e-05
-4.28997e-05
5.477e-05
-3.97685e-05
3.85809e-05
-3.09669e-05
1.52931e-05
-1.49034e-05
-1.60251e-05
1.02301e-05
-5.63941e-05
4.6469e-05
-0.000106867
9.60852e-05
-0.000168366
0.000161547
-0.000241368
0.000245385
-0.000325247
0.00034981
-0.000417009
0.00047596
-0.000510385
-0.000593623
0.000622909
-1.20897e-06
1.17841e-05
-4.2325e-06
3.09896e-05
-8.57401e-06
4.7225e-05
-1.3646e-05
5.99963e-05
-1.87588e-05
6.87387e-05
-2.31144e-05
7.2863e-05
-2.57964e-05
7.1733e-05
-2.57579e-05
6.46466e-05
-2.18062e-05
5.08183e-05
-1.25849e-05
2.93596e-05
3.44825e-06
-7.39988e-07
2.80438e-05
-4.06206e-05
6.31903e-05
-9.15405e-05
0.000111135
-0.000154811
0.0001744
-0.000231632
0.000255768
-0.000322736
0.000358177
-0.000427656
0.000484364
-0.000543195
0.000635994
-0.000662016
-0.00077018
0.000812552
-9.69332e-07
1.27534e-05
-3.27877e-06
3.32991e-05
-6.39066e-06
5.03369e-05
-9.66656e-06
6.32722e-05
-1.23552e-05
7.14273e-05
-1.35847e-05
7.40924e-05
-1.23512e-05
7.04994e-05
-7.50482e-06
5.98003e-05
2.26652e-06
4.1047e-05
1.84571e-05
1.3169e-05
4.27659e-05
-2.50488e-05
7.71227e-05
-7.49775e-05
0.000123716
-0.000138134
0.000185022
-0.000216118
0.000263832
-0.000310441
0.000363252
-0.000422156
0.000486641
-0.000551045
0.000637293
-0.000693848
0.000817457
-0.00084218
-0.000979755
0.00102703
-7.05607e-07
1.34591e-05
-2.22578e-06
3.48193e-05
-3.97479e-06
5.20859e-05
-5.25546e-06
6.45528e-05
-5.2462e-06
7.14181e-05
-2.99146e-06
7.18377e-05
2.61123e-06
6.48967e-05
1.28269e-05
4.95846e-05
2.91013e-05
2.47726e-05
5.30816e-05
-1.08114e-05
8.66402e-05
-5.86073e-05
0.000131901
-0.000120238
0.000191268
-0.000197501
0.000267457
-0.000292307
0.000363531
-0.000406515
0.000482916
-0.000541541
0.000629379
-0.000697508
0.000806768
-0.000871236
0.00101795
-0.00105336
-0.00122502
0.00126321
-4.20837e-07
1.38799e-05
-1.08483e-06
3.54833e-05
-1.35089e-06
5.23519e-05
-4.55469e-07
6.36574e-05
2.50169e-06
6.84609e-05
8.56922e-06
6.57702e-05
1.89586e-05
5.45074e-05
3.50614e-05
3.34818e-05
5.84693e-05
1.36473e-06
9.09953e-05
-4.33374e-05
0.000134698
-0.00010231
0.000191908
-0.000177448
0.000265253
-0.000270846
0.000357693
-0.000384747
0.00047255
-0.000521373
0.000613548
-0.000682538
0.000784817
-0.000868777
0.000990713
-0.00107713
0.00123472
-0.00129737
-0.00150779
0.00151749
-1.17938e-07
1.39978e-05
1.33392e-07
3.52319e-05
1.45704e-06
5.10283e-05
4.69108e-06
6.04234e-05
1.08226e-05
6.23294e-05
2.10016e-05
5.55911e-05
3.65579e-05
3.89511e-05
5.90197e-05
1.102e-05
9.01347e-05
-2.97503e-05
0.000131892
-8.50951e-05
0.000186547
-0.000156965
0.000256642
-0.000247543
0.000345033
-0.000359237
0.000454914
-0.000494627
0.000589847
-0.000656306
0.000753803
-0.000846495
0.000951202
-0.00106618
0.00118682
-0.00131275
0.00146472
-0.00157527
-0.0018289
0.00178583
2.00483e-07
1.37973e-05
1.41826e-06
3.40141e-05
4.42677e-06
4.80198e-05
1.01447e-05
5.47054e-05
1.96535e-05
5.28207e-05
3.42126e-05
4.1032e-05
5.52781e-05
1.78856e-05
8.4523e-05
-1.8225e-05
0.000123859
-6.90865e-05
0.000175459
-0.000136695
0.000241779
-0.000223285
0.000325575
-0.000331339
0.000429924
-0.000463586
0.000558236
-0.00062294
0.000714278
-0.000812348
0.000902202
-0.00103442
0.0011266
-0.00129058
0.00139252
-0.00157867
0.00170455
-0.0018873
-0.00218808
0.00206373
5.32123e-07
1.32652e-05
2.76167e-06
3.17846e-05
7.5383e-06
4.32432e-05
1.58688e-05
4.63749e-05
2.89355e-05
3.9754e-05
4.81139e-05
2.18536e-05
7.49929e-05
-8.99339e-06
0.000111396
-5.46285e-05
0.000159405
-0.000117095
0.000221378
-0.000198669
0.000299971
-0.000301878
0.000398149
-0.000429517
0.000519195
-0.000584631
0.000666707
-0.000770452
0.000844601
-0.000990242
0.00105712
-0.00124694
0.0013089
-0.00154235
0.00160505
-0.00187482
0.00195053
-0.00223278
-0.00258386
0.00234631
8.75174e-07
1.23901e-05
4.15577e-06
2.8504e-05
1.07741e-05
3.66248e-05
2.18308e-05
3.53182e-05
3.86149e-05
2.29699e-05
6.26233e-05
-2.15478e-06
9.55823e-05
-4.19524e-05
0.00013947
-9.8516e-05
0.000196537
-0.000174163
0.000269328
-0.000271459
0.00036069
-0.00039324
0.000473784
-0.00054261
0.000612071
-0.000722918
0.000779296
-0.000937677
0.00097946
-0.00119041
0.0012168
-0.00148428
0.00149579
-0.00182135
0.00182139
-0.00220042
0.00219872
-0.00261011
-0.00301348
0.00262834
1.22822e-06
1.11618e-05
5.59456e-06
2.41377e-05
1.41195e-05
2.80999e-05
2.80026e-05
2.14352e-05
4.86439e-05
2.32861e-06
7.76652e-05
-3.11761e-05
0.000116933
-8.12198e-05
0.000168579
-0.000150162
0.000235022
-0.000240606
0.000318982
-0.000355419
0.000423486
-0.000497745
0.000551864
-0.000670988
0.000707721
-0.000878775
0.000894893
-0.00112485
0.00111738
-0.00141289
0.00137929
-0.00174618
0.00168478
-0.00212685
0.00203833
-0.00255397
0.00244497
-0.00301675
-0.00347289
0.00290438
1.59033e-06
9.5715e-06
7.0735e-06
1.86545e-05
1.75627e-05
1.76107e-05
3.436e-05
4.63786e-06
5.89796e-05
-2.22909e-05
9.31698e-05
-6.53664e-05
0.000138936
-0.000126986
0.000198562
-0.000209787
0.000274624
-0.000316668
0.000370007
-0.000450801
0.000487891
-0.000615629
0.000631741
-0.000814838
0.000805255
-0.00105229
0.00101229
-0.00133189
0.00125676
-0.00165737
0.00154251
-0.00203193
0.00187319
-0.00245753
0.00225253
-0.0029333
0.00268506
-0.00344929
-0.00395672
0.0031689
1.96094e-06
7.61056e-06
8.58932e-06
1.20261e-05
2.10942e-05
5.10578e-06
4.08826e-05
-1.51505e-05
6.95838e-05
-5.09922e-05
0.000109072
-0.000104855
0.000161488
-0.000179402
0.000229259
-0.000277558
0.000315108
-0.000402517
0.000422056
-0.00055775
0.00055341
-0.000746983
0.000712719
-0.000974147
0.00090371
-0.00124328
0.00113018
-0.00155836
0.00139586
-0.00192304
0.00170419
-0.00234026
0.00205816
-0.00281151
0.00246049
-0.00333563
0.00291474
-0.00390353
-0.00445875
0.00341676
2.33987e-06
5.27069e-06
1.01398e-05
4.2262e-06
2.47064e-05
-9.46083e-06
4.75523e-05
-3.79965e-05
8.0421e-05
-8.38609e-05
0.000125309
-0.000149743
0.000184486
-0.000238579
0.000260508
-0.00035358
0.000356224
-0.000498234
0.000474766
-0.000676291
0.000619515
-0.000891732
0.00079405
-0.00114868
0.00100205
-0.00145128
0.00124715
-0.00180346
0.00153278
-0.00220867
0.00186191
-0.00266939
0.00223675
-0.00318634
0.0026588
-0.00375768
0.0031298
-0.00437454
-0.00497285
0.0036439
2.72713e-06
2.54356e-06
1.17233e-05
-4.76993e-06
2.83928e-05
-2.61303e-05
5.43525e-05
-6.39562e-05
9.14567e-05
-0.000120965
0.000141817
-0.000200104
0.000207821
-0.000304583
0.000292137
-0.000437896
0.000397711
-0.000603808
0.000527744
-0.000806324
0.000685639
-0.00104963
0.000874927
-0.00133797
0.00109914
-0.00167549
0.00136166
-0.00206598
0.00166551
-0.00251252
0.00201311
-0.00301698
0.00240597
-0.00357921
0.00284459
-0.0041963
0.00332748
-0.00485743
-0.00549145
0.00384609
3.12284e-06
-5.79272e-07
1.33384e-05
-1.49855e-05
3.21469e-05
-4.49389e-05
6.1266e-05
-9.30752e-05
0.000102654
-0.000162353
0.00015853
-0.000255979
0.00023138
-0.000377433
0.000323962
-0.000530478
0.000439284
-0.00071913
0.000580566
-0.000947605
0.000751167
-0.00122023
0.000954481
-0.00154128
0.00119379
-0.0019148
0.00147209
-0.00234428
0.00179186
-0.0028323
0.00215495
-0.00338007
0.00256243
-0.00398669
0.00301476
-0.00464862
0.00350859
-0.00535126
-0.0060182
0.00403533
3.52707e-06
-4.10634e-06
1.49836e-05
-2.64421e-05
3.59616e-05
-6.59169e-05
6.82736e-05
-0.000125387
0.000113974
-0.000208054
0.000175372
-0.000317377
0.000255036
-0.000457097
0.00035578
-0.000631222
0.000480632
-0.000843982
0.000632772
-0.00109975
0.000815437
-0.00140289
0.00103178
-0.00175763
0.00128472
-0.00216774
0.00157671
-0.00263626
0.00190956
-0.00316515
0.00228434
-0.00375485
0.00270157
-0.00440392
0.00316204
-0.00510909
0.00367445
-0.00586367
-0.00665438
0.00431063
3.93975e-06
-8.04609e-06
1.66563e-05
-3.91586e-05
3.98275e-05
-8.9088e-05
7.53521e-05
-0.000160912
0.000125368
-0.000258069
0.000192257
-0.000384267
0.000278644
-0.000543484
0.000387363
-0.000739941
0.000521412
-0.000978031
0.000683863
-0.0012622
0.000877743
-0.00159677
0.00110587
-0.00198575
0.00137064
-0.00243251
0.00167383
-0.00293945
0.00201639
-0.00350772
0.00239838
-0.00413684
0.00281912
-0.00482466
0.00327793
-0.00556789
0.0037775
-0.00636324
-0.00721374
0.00433686
4.36044e-06
-1.24065e-05
1.83529e-05
-5.31511e-05
4.37324e-05
-0.000114468
8.2473e-05
-0.000199652
0.00013678
-0.000312376
0.000209088
-0.000456575
0.000302043
-0.000636439
0.00041846
-0.000856358
0.000561248
-0.00112082
0.000733301
-0.00143425
0.000937341
-0.00180081
0.00117573
-0.00222414
0.00145024
-0.00270702
0.00176184
-0.00325105
0.00211045
-0.00385633
0.00249491
-0.0045213
0.00291306
-0.00524281
0.00336192
-0.00601676
0.00383828
-0.0068396
-0.00771888
0.00434342
4.78827e-06
-1.71948e-05
2.00679e-05
-6.84306e-05
4.76604e-05
-0.00014206
8.96009e-05
-0.000241593
0.000148143
-0.000370918
0.000225748
-0.000534179
0.000325048
-0.00073574
0.000448791
-0.000980101
0.000599734
-0.00127176
0.000780515
-0.00161503
0.000993461
-0.00201376
0.00124038
-0.00247106
0.0015223
-0.00298894
0.00183926
-0.00356801
0.00219012
-0.00420718
0.00257244
-0.00490363
0.00298261
-0.00565297
0.00341583
-0.00644999
0.003866
-0.00728977
-0.00817896
0.00432608
5.22186e-06
-2.24167e-05
2.17938e-05
-8.50026e-05
5.1591e-05
-0.000171857
9.66928e-05
-0.000286695
0.000159379
-0.000433604
0.000242105
-0.000616905
0.000347453
-0.000841087
0.000478047
-0.00111069
0.000636432
-0.00143015
0.000824907
-0.0018035
0.00104532
-0.00223417
0.00129882
-0.00272456
0.00158563
-0.00327575
0.0019048
-0.00388718
0.0022541
-0.00455648
0.00262992
-0.00527945
0.00302745
-0.0060505
0.00344071
-0.00686324
0.0038624
-0.00771146
-0.00859921
0.00428264
5.65917e-06
-2.80758e-05
2.35212e-05
-0.000102865
5.54992e-05
-0.000203835
0.000103697
-0.000334893
0.000170395
-0.000500303
0.000258011
-0.000704521
0.000369029
-0.000952106
0.000505899
-0.00124756
0.000670882
-0.00159513
0.000865865
-0.00199849
0.00109213
-0.00246044
0.00135011
-0.00298254
0.00163916
-0.00356479
0.00195734
-0.00420537
0.00230138
-0.00490052
0.0026667
-0.00564477
0.00304761
-0.00643141
0.00343754
-0.00725317
0.0038291
-0.00810302
-0.00898253
0.00421242
6.09754e-06
-3.41734e-05
2.52378e-05
-0.000122005
5.93546e-05
-0.000237952
0.000110554
-0.000386093
0.000181089
-0.000570837
0.0002733
-0.000796732
0.00038953
-0.00106834
0.000531995
-0.00139003
0.000702609
-0.00176574
0.000902775
-0.00219865
0.00113315
-0.00269081
0.00139338
-0.00324278
0.00168195
-0.00385336
0.00199597
-0.00451939
0.00233127
-0.00523582
0.00268251
-0.00599601
0.00304349
-0.00679239
0.00340758
-0.00761726
0.00376796
-0.0084634
-0.0093307
0.00411613
6.53367e-06
-4.0707e-05
2.69296e-05
-0.000142401
6.31224e-05
-0.000274145
0.000117197
-0.000440167
0.000191345
-0.000644985
0.000287794
-0.000893181
0.000408695
-0.00118924
0.000555973
-0.00153731
0.000731134
-0.00194091
0.000935038
-0.00240256
0.00116766
-0.00292343
0.00142786
-0.00350298
0.00171323
-0.00413873
0.00202006
-0.00482622
0.00234342
-0.00555918
0.00267747
-0.00633005
0.00301589
-0.00713081
0.00335237
-0.00795374
0.0036811
-0.00879213
-0.00964504
0.00399544
6.9636e-06
-4.76706e-05
2.85798e-05
-0.000164017
6.67633e-05
-0.000312328
0.00012355
-0.000496954
0.000201039
-0.000722474
0.000301302
-0.000993443
0.000426251
-0.00131419
0.000577467
-0.00168852
0.000755991
-0.00211943
0.000962089
-0.00260866
0.00119503
-0.00315636
0.00145287
-0.00376083
0.00173242
-0.00441828
0.00202921
-0.00512301
0.00233779
-0.00586775
0.00265208
-0.00664434
0.00296593
-0.00744467
0.00327372
-0.00826153
0.00357082
-0.00908923
-0.00992682
0.0038526
7.38285e-06
-5.50535e-05
3.01702e-05
-0.000186804
7.0234e-05
-0.000352392
0.000129534
-0.000556254
0.000210041
-0.000802982
0.00031363
-0.00109703
0.000441926
-0.00144248
0.000596118
-0.00184272
0.000776733
-0.00230004
0.000983413
-0.00281534
0.0012147
-0.00338765
0.00146792
-0.00401404
0.00173913
-0.00468949
0.0020233
-0.00540719
0.00231465
-0.00615911
0.00260714
-0.00693683
0.00289507
-0.00773259
0.00317368
-0.00854014
0.00343962
-0.00935518
-0.0101774
0.00369016
7.78642e-06
-6.28399e-05
3.16808e-05
-0.000210699
7.34886e-05
-0.0003942
0.000135064
-0.000617829
0.000218215
-0.000886133
0.00032458
-0.0012034
0.000455452
-0.00157336
0.000611582
-0.00199885
0.000792953
-0.00248142
0.000998561
-0.00302094
0.00122625
-0.00361534
0.00147264
-0.00426043
0.00173319
-0.00495004
0.00200247
-0.00567647
0.00227459
-0.00643122
0.00254376
-0.007206
0.00280495
-0.00799378
0.00305439
-0.00878958
0.00329001
-0.0095908
-0.0103981
0.00351072
8.16894e-06
-7.10088e-05
3.30904e-05
-0.00023562
7.64791e-05
-0.000437589
0.000140054
-0.000681404
0.000225427
-0.000971506
0.000333958
-0.00131193
0.000466571
-0.00170597
0.000623544
-0.00215582
0.000804291
-0.00266216
0.00100717
-0.00322382
0.00122935
-0.00383753
0.00146684
-0.00449793
0.00171465
-0.00519785
0.00196711
-0.00592893
0.00221842
-0.00668254
0.00246326
-0.00745085
0.0026974
-0.00822791
0.00291811
-0.0090103
0.00312449
-0.00979718
-0.0105904
0.00331681
8.52479e-06
-7.95336e-05
3.43773e-05
-0.000261473
7.91568e-05
-0.000482368
0.000144418
-0.000746665
0.000231543
-0.00105863
0.000341579
-0.00142196
0.000475046
-0.00183944
0.000631724
-0.0023125
0.000810448
-0.00284089
0.00100895
-0.00342232
0.00122381
-0.00405239
0.00145052
-0.00472463
0.00168375
-0.00543108
0.00191781
-0.00616298
0.00214716
-0.00691189
0.00236712
-0.0076708
0.0025743
-0.00843509
0.00276702
-0.00920302
0.00294542
-0.00997557
-0.0107558
0.00311082
8.84818e-06
-8.83818e-05
3.55192e-05
-0.000288144
8.14733e-05
-0.000528322
0.000148073
-0.000813265
0.000236437
-0.001147
0.000347271
-0.0015328
0.000480664
-0.00197283
0.000635884
-0.00246772
0.000811194
-0.0030162
0.00100375
-0.00361488
0.00120958
-0.00425822
0.00142381
-0.00493886
0.00164092
-0.0056482
0.00185535
-0.00637741
0.00206201
-0.00711855
0.0022569
-0.00786569
0.00243756
-0.00861575
0.00260326
-0.00936873
0.002755
-0.0101273
-0.0108957
0.00289489
9.13331e-06
-9.75151e-05
3.64946e-05
-0.000315505
8.33816e-05
-0.000575209
0.000150938
-0.000880821
0.000239993
-0.00123605
0.000350882
-0.00164369
0.000483247
-0.00210519
0.000635839
-0.00262031
0.000806374
-0.00318673
0.000991471
-0.00379997
0.00118673
-0.00445348
0.001387
-0.00513912
0.00158675
-0.00584795
0.00178067
-0.00657133
0.00196423
-0.00730211
0.00213421
-0.00803567
0.00228903
-0.00877057
0.00242881
-0.00950852
0.00255524
-0.0102537
-0.0110114
0.00267094
9.3745e-06
-0.00010689
3.72824e-05
-0.000343413
8.48371e-05
-0.000622764
0.000152939
-0.000948922
0.000242104
-0.00132522
0.00035228
-0.00175386
0.00048265
-0.00223556
0.000631459
-0.00276912
0.000795909
-0.00335118
0.000972154
-0.00397622
0.00115546
-0.00463679
0.00134052
-0.00532418
0.00152194
-0.00602936
0.00169478
-0.00674417
0.00185516
-0.00746248
0.00200064
-0.00818115
0.00213047
-0.0089004
0.0022455
-0.00962355
0.00234791
-0.0103561
-0.0111041
0.00244062
9.56628e-06
-0.000116456
3.7863e-05
-0.00037171
8.57991e-05
-0.0006707
0.000154011
-0.00101713
0.000242682
-0.00141389
0.00035136
-0.00186254
0.000478769
-0.00236297
0.00062267
-0.00291302
0.000779798
-0.00350831
0.00094592
-0.00414234
0.00111607
-0.00480694
0.00128492
-0.00549303
0.0014473
-0.00619175
0.00159879
-0.00689565
0.00173615
-0.00759985
0.00185774
-0.00830274
0.00196354
-0.0090062
0.00205498
-0.00971499
0.00213458
-0.0104357
-0.0111749
0.00220538
9.70352e-06
-0.000126159
3.82182e-05
-0.000400225
8.62312e-05
-0.000718713
0.000154097
-0.001085
0.000241654
-0.00150144
0.000348042
-0.00196893
0.000471541
-0.00248647
0.000609458
-0.00305094
0.000758115
-0.00365696
0.000912981
-0.00429721
0.00106896
-0.00496292
0.00122082
-0.00564489
0.00136373
-0.00633466
0.00149381
-0.00702573
0.00160853
-0.00771457
0.00170697
-0.00840118
0.00178974
-0.00908897
0.00185872
-0.00978398
0.00191663
-0.0104936
-0.0112247
0.00196645
9.78157e-06
-0.000135941
3.83321e-05
-0.000428775
8.61022e-05
-0.000766483
0.000153152
-0.00115205
0.000238965
-0.00158726
0.00034228
-0.00207224
0.000460948
-0.00260514
0.000591863
-0.00318185
0.000731005
-0.00379611
0.000873629
-0.00443983
0.00101461
-0.0051039
0.00114891
-0.00577919
0.00127213
-0.00645788
0.00138096
-0.00713456
0.00147357
-0.00780718
0.00154968
-0.00847729
0.00161043
-0.00914972
0.00165802
-0.00983156
0.00169521
-0.0105308
-0.0112544
0.00172488
9.79629e-06
-0.000145737
3.81911e-05
-0.00045717
8.5387e-05
-0.000813679
0.000151141
-0.0012178
0.000234581
-0.0016707
0.000334053
-0.00217172
0.000447011
-0.0027181
0.000569983
-0.00330482
0.000698677
-0.0039248
0.000828223
-0.00456938
0.000953566
-0.00522924
0.00106995
-0.00589558
0.00117345
-0.00656137
0.00126136
-0.00722247
0.00133249
-0.00787831
0.00138713
-0.00853193
0.00142684
-0.00918943
0.001454
-0.00985873
0.00147136
-0.0105482
-0.0112646
0.00148156
9.74418e-06
-0.000155481
3.77842e-05
-0.00048521
8.40668e-05
-0.000859962
0.000148042
-0.00128178
0.000228487
-0.00175114
0.000323374
-0.0022666
0.000429792
-0.00282451
0.000543963
-0.00341899
0.000661396
-0.00404223
0.000777182
-0.00468516
0.000886419
-0.00533848
0.000984706
-0.00599387
0.00106862
-0.00664528
0.00113605
-0.00728991
0.0011864
-0.00792866
0.00122045
-0.00856598
0.00124004
-0.00920903
0.00124767
-0.00986635
0.00124595
-0.0105465
-0.0112559
0.00123728
9.62242e-06
-0.000165104
3.71034e-05
-0.000512691
8.21297e-05
-0.000904988
0.000143845
-0.00134349
0.000220688
-0.00182798
0.000310282
-0.0023562
0.000409392
-0.00292363
0.000513995
-0.0035236
0.000619474
-0.00414771
0.000720963
-0.00478665
0.000813789
-0.0054313
0.000893952
-0.00607403
0.000958548
-0.00670988
0.00100605
-0.00733742
0.00103637
-0.00795897
0.00105066
-0.00858027
0.001051
-0.00920936
0.00103987
-0.00985523
0.00101974
-0.0105264
-0.0112289
0.000992699
9.42895e-06
-0.000174533
3.61436e-05
-0.000539406
7.95707e-05
-0.000948415
0.000138554
-0.00140248
0.00021121
-0.00190064
0.000294843
-0.00243983
0.000385946
-0.00301473
0.000480308
-0.00361796
0.000573263
-0.00424067
0.00066006
-0.00487345
0.000736315
-0.00550756
0.000798462
-0.00613618
0.000844122
-0.00675554
0.000872295
-0.00736559
0.000883332
-0.00797001
0.000878696
-0.00857564
0.000860566
-0.00919123
0.000831375
-0.00982603
0.000793379
-0.0104884
-0.0111839
0.000748403
9.16247e-06
-0.000183695
3.49029e-05
-0.000565146
7.63915e-05
-0.000989904
0.000132184
-0.00145827
0.000200097
-0.00196855
0.000277152
-0.00251689
0.000359618
-0.00309719
0.000443164
-0.0037015
0.000523143
-0.00432065
0.000594983
-0.00494529
0.000654636
-0.00556721
0.000698991
-0.00618053
0.000726173
-0.00678272
0.000735657
-0.00737507
0.000728163
-0.00796252
0.000705364
-0.00855284
0.000669477
-0.00915535
0.000622827
-0.00977938
0.000567457
-0.010433
-0.0111214
0.000504924
8.82249e-06
-0.000192518
3.33823e-05
-0.000589706
7.26011e-05
-0.00102912
0.000124762
-0.00151043
0.000187409
-0.0020312
0.000257322
-0.0025868
0.0003306
-0.00317047
0.000402854
-0.00377376
0.000469517
-0.00438731
0.000526255
-0.00500203
0.000569389
-0.00561034
0.000596266
-0.00620741
0.000605487
-0.00679194
0.000596943
-0.00736653
0.000571646
-0.00793722
0.0005314
-0.00851259
0.000478398
-0.00910234
0.000414816
-0.0097158
0.000342455
-0.0103606
-0.0110417
0.000262733
8.40934e-06
-0.000200927
3.1586e-05
-0.000612882
6.82148e-05
-0.00106575
0.000116327
-0.00155854
0.000173223
-0.0020881
0.000235489
-0.00264906
0.000299106
-0.00323409
0.000359684
-0.00383434
0.000412801
-0.00444043
0.0004544
-0.00504363
0.000481193
-0.00563714
0.000490979
-0.00621719
0.000482797
-0.00678376
0.000456891
-0.00734062
0.000414491
-0.00789482
0.000357462
-0.00845556
0.000287918
-0.0090328
0.000207903
-0.00963579
0.000118883
-0.0102716
-0.0109441
2.12958e-05
7.92412e-06
-0.000208851
2.95213e-05
-0.00063448
6.32543e-05
-0.00109948
0.000106927
-0.00160222
0.000157632
-0.0021388
0.000211804
-0.00270324
0.000265364
-0.00328765
0.000313979
-0.00388295
0.000353416
-0.00447986
0.000379933
-0.00507014
0.000390646
-0.00564785
0.000383784
-0.00621033
0.000358782
-0.00675876
0.000316174
-0.00729802
0.000257339
-0.00783598
0.000184141
-0.00838236
9.85589e-05
-0.00894722
2.34714e-06
-0.00953958
-0.000102724
-0.0101665
-0.0108305
-0.000216344
7.36872e-06
-0.00021622
2.7198e-05
-0.000654309
5.77471e-05
-0.00113003
9.66189e-05
-0.00164109
0.000140739
-0.00218292
0.000186434
-0.00274893
0.000229618
-0.00333083
0.000266068
-0.0039194
0.000291783
-0.00450558
0.00030336
-0.00508172
0.000298318
-0.00564281
0.000275295
-0.00618731
0.000234068
-0.00671753
0.000175406
-0.00723935
0.000100767
-0.00776135
1.19603e-05
-0.00829356
-8.9151e-05
-0.00884611
-0.000200904
-0.00942782
-0.000322212
-0.0100452
-0.0107005
-0.00045221
6.74577e-06
-0.000222966
2.46287e-05
-0.000672192
5.17259e-05
-0.00115713
8.54697e-05
-0.00167483
0.000122656
-0.00222011
0.000159555
-0.00278583
0.00019212
-0.0033634
0.000216285
-0.00394357
0.000228316
-0.00451761
0.000225167
-0.00507857
0.00020475
-0.00562239
0.000166079
-0.00614864
0.00010923
-0.00666068
3.51395e-05
-0.00716526
-5.4699e-05
-0.00767151
-0.000158569
-0.00818969
-0.00027481
-0.00872987
-0.000401964
-0.00930067
-0.000539008
-0.00990818
-0.0105542
-0.000685292
6.0586e-06
-0.000229024
2.18284e-05
-0.000687962
4.5228e-05
-0.00118053
7.35518e-05
-0.00170315
0.000103507
-0.00225006
0.000131351
-0.00281368
0.000153127
-0.00338517
0.000164963
-0.0039554
0.000163422
-0.00451607
0.000145819
-0.00506097
0.000110448
-0.00558702
5.66642e-05
-0.00609485
-1.52099e-05
-0.00658881
-0.000104116
-0.00707636
-0.000208583
-0.00756704
-0.000327035
-0.00807124
-0.000458007
-0.00859889
-0.000600249
-0.00915843
-0.00075283
-0.0097556
-0.0103918
-0.000915192
5.31115e-06
-0.000234335
1.88143e-05
-0.000701465
3.82951e-05
-0.00120001
6.09436e-05
-0.0017258
8.34187e-05
-0.00227254
0.000102012
-0.00283227
0.000112895
-0.00339606
0.000112429
-0.00395494
9.74909e-05
-0.00450113
6.57583e-05
-0.00502924
1.58872e-05
-0.00553715
-5.24644e-05
-0.0060265
-0.000138771
-0.0065025
-0.000241905
-0.00697322
-0.000360456
-0.00744849
-0.000493017
-0.00793867
-0.000638346
-0.00845356
-0.000795396
-0.00900138
-0.000963329
-0.00958767
-0.0102136
-0.00114157
4.50799e-06
-0.000238843
1.56053e-05
-0.000712562
3.09719e-05
-0.00121538
4.77282e-05
-0.00174256
6.25252e-05
-0.00228733
7.17297e-05
-0.00284147
7.16822e-05
-0.00339601
5.90021e-05
-0.00394226
3.08979e-05
-0.00447303
-1.45988e-05
-0.00498374
-7.84951e-05
-0.00547325
-0.000160863
-0.00594413
-0.000261021
-0.00640235
-0.000377811
-0.00685643
-0.000509919
-0.00731638
-0.000656131
-0.00779246
-0.00081545
-0.00829425
-0.000987043
-0.00882978
-0.00117016
-0.00940455
-0.0100196
-0.00136411
3.65421e-06
-0.000242498
1.22221e-05
-0.00072113
2.33061e-05
-0.00122646
3.39918e-05
-0.00175325
4.09616e-05
-0.0022943
4.06962e-05
-0.00284121
2.97402e-05
-0.00338505
4.99782e-06
-0.00391751
-3.60021e-05
-0.00443203
-9.48666e-05
-0.00492487
-0.000172293
-0.00539583
-0.000268127
-0.0058483
-0.000381565
-0.00628891
-0.000511457
-0.00672654
-0.000656608
-0.00717123
-0.000816018
-0.00763305
-0.000988954
-0.00812131
-0.00117482
-0.00864392
-0.00137296
-0.00920641
-0.00981009
-0.00158248
2.75542e-06
-0.000245253
8.68673e-06
-0.000727061
1.53475e-05
-0.00123312
1.98233e-05
-0.00175772
1.88646e-05
-0.00229335
9.10428e-06
-0.00283145
-1.26866e-05
-0.00336326
-4.93075e-05
-0.00388089
-0.000102875
-0.00437846
-0.00017468
-0.00485307
-0.000265135
-0.00530537
-0.000373886
-0.00573955
-0.000500049
-0.00616275
-0.000642502
-0.00658409
-0.000800192
-0.00701354
-0.000972343
-0.0074609
-0.0011585
-0.00793515
-0.00135836
-0.00844406
-0.00157139
-0.00899339
-0.00958509
-0.00179638
1.8182e-06
-0.000247071
5.02264e-06
-0.000730266
7.14747e-06
-0.00123525
5.31292e-06
-0.00175589
-3.62696e-06
-0.00228441
-2.28649e-05
-0.00281221
-5.53644e-05
-0.00333076
-0.000103614
-0.00383264
-0.000169404
-0.00431267
-0.000253706
-0.00476877
-0.000356679
-0.0052024
-0.000477807
-0.00561842
-0.00061615
-0.0060244
-0.00077064
-0.0064296
-0.00094037
-0.00684381
-0.00112479
-0.00727648
-0.00132375
-0.0077362
-0.00153726
-0.00823055
-0.00176505
-0.0087656
-0.00934466
-0.00200548
8.5707e-07
-0.000247928
1.25086e-06
-0.00073066
-1.24279e-06
-0.00123275
-9.4518e-06
-0.00174768
-2.63874e-05
-0.00226747
-5.5025e-05
-0.00278357
-9.80596e-05
-0.00328773
-0.000157661
-0.00377304
-0.000235294
-0.00423504
-0.000331634
-0.00467243
-0.000446614
-0.00508742
-0.000579587
-0.00548545
-0.000729581
-0.00587441
-0.000895597
-0.00626358
-0.00107687
-0.00666253
-0.00127308
-0.00708027
-0.00148435
-0.00752492
-0.00171113
-0.00800377
-0.00195352
-0.00852321
-0.00908874
-0.00220944
-1.68433e-07
-0.00024776
-2.6029e-06
-0.000728225
-9.76916e-06
-0.00122559
-2.43791e-05
-0.00173307
-4.92748e-05
-0.00224257
-8.71993e-05
-0.00274565
-0.000140557
-0.00323437
-0.000211198
-0.0037024
-0.000300272
-0.00414596
-0.000408181
-0.00456452
-0.000534658
-0.00496094
-0.000678953
-0.00534115
-0.000840084
-0.00571328
-0.00101713
-0.00608654
-0.00120946
-0.0064702
-0.00141695
-0.00687279
-0.00164001
-0.00730186
-0.00187953
-0.00776425
-0.00213631
-0.00826643
-0.00881707
-0.00240798
-1.16896e-06
-0.000246591
-6.50952e-06
-0.000722884
-1.83802e-05
-0.00121372
-3.93806e-05
-0.00171207
-7.21638e-05
-0.00220979
-0.000119219
-0.00269859
-0.000182651
-0.00317094
-0.00026399
-0.00362106
-0.000364084
-0.00404587
-0.000483085
-0.00444552
-0.000620553
-0.00482347
-0.000775657
-0.00518605
-0.000947427
-0.00554151
-0.00113502
-0.00589895
-0.00133794
-0.00626728
-0.0015562
-0.00665453
-0.00179044
-0.00706762
-0.00204207
-0.00751262
-0.00231288
-0.00799562
-0.0085292
-0.00260075
-2.20184e-06
-0.000244389
-1.04512e-05
-0.000714635
-2.70239e-05
-0.00119714
-5.43703e-05
-0.00168472
-9.49303e-05
-0.00216923
-0.000150923
-0.0026426
-0.000224146
-0.00309772
-0.000315818
-0.00352939
-0.000426497
-0.00393519
-0.000556108
-0.00431591
-0.000704064
-0.00467552
-0.000869476
-0.00502064
-0.0010514
-0.00535958
-0.00124908
-0.00570127
-0.00146212
-0.00605424
-0.00169065
-0.00642599
-0.00193545
-0.00682282
-0.0021983
-0.00724977
-0.00248226
-0.00771167
-0.00822451
-0.00278694
-3.24163e-06
-0.000241148
-1.44015e-05
-0.000703475
-3.5649e-05
-0.0011759
-6.92643e-05
-0.00165111
-0.000117455
-0.00212104
-0.000182157
-0.0025779
-0.000264861
-0.00301501
-0.000366477
-0.00342777
-0.000487295
-0.00381437
-0.000627031
-0.00417617
-0.000784977
-0.00451757
-0.000960208
-0.00484541
-0.00115182
-0.00516797
-0.00135913
-0.00549395
-0.00158187
-0.0058315
-0.00182022
-0.00618764
-0.00207496
-0.00656808
-0.00234784
-0.00697689
-0.00264302
-0.00741649
-0.00790014
-0.00296739
-4.28142e-06
-0.000236866
-1.83356e-05
-0.000689421
-4.42054e-05
-0.00115003
-8.39812e-05
-0.00161133
-0.000139623
-0.0020654
-0.000212777
-0.00250474
-0.000304624
-0.00292317
-0.00041578
-0.00331662
-0.000546279
-0.00368387
-0.000695655