/*--------------------------------*- C++ -*----------------------------------*\
  =========                 |
  \\      /  F ield         | OpenFOAM: The Open Source CFD Toolbox
   \\    /   O peration     | Website:  https://openfoam.org
    \\  /    A nd           | Version:  7
     \\/     M anipulation  |
\*---------------------------------------------------------------------------*/
FoamFile
{
    version     2.0;
    format      ascii;
    class       volVectorField;
    location    "4";
    object      U;
}
// * * * * * * * * * * * * * * * * * * * * * * * * * * * * * * * * * * * * * //

dimensions      [0 1 -1 0 0 0 0];

internalField   nonuniform List<vector> 
120340
(
(1 -2.17087e-06 1.59047e-16)
(1.00001 -6.48771e-06 -1.92938e-16)
(1.00004 -1.07757e-05 -6.42046e-17)
(1.00008 -1.50565e-05 -4.46265e-16)
(1.00013 -1.93321e-05 2.40303e-18)
(1.00019 -2.35918e-05 -2.80741e-16)
(1.00027 -2.7825e-05 -5.92174e-16)
(1.00036 -3.20262e-05 -3.93067e-16)
(1.00046 -3.61927e-05 -8.26632e-16)
(1.00058 -4.0322e-05 -3.93708e-16)
(1.0007 -4.44108e-05 -3.7133e-16)
(1.00084 -4.84553e-05 -1.02309e-15)
(1.00099 -5.24514e-05 3.28827e-16)
(1.00116 -5.63954e-05 -1.59522e-15)
(1.00133 -6.02838e-05 1.36038e-15)
(1.00152 -6.41132e-05 1.97732e-15)
(1.00172 -6.78806e-05 6.22963e-17)
(1.00193 -7.1583e-05 1.97162e-15)
(1.00215 -7.52176e-05 2.87127e-15)
(1.00238 -7.87817e-05 5.50361e-16)
(1.00262 -8.2273e-05 3.04054e-15)
(1.00287 -8.56892e-05 2.50396e-15)
(1.00313 -8.90281e-05 2.2223e-15)
(1.00341 -9.22879e-05 1.7222e-15)
(1.00369 -9.54669e-05 1.36354e-15)
(1.00398 -9.85637e-05 1.13266e-15)
(1.00428 -0.000101577 6.01436e-16)
(1.00459 -0.000104505 3.98215e-16)
(1.00491 -0.000107348 6.8205e-16)
(1.00523 -0.000110104 6.17239e-16)
(1.00557 -0.000112773 1.42437e-16)
(1.00591 -0.000115354 -6.55495e-17)
(1.00626 -0.000117848 -2.2942e-16)
(1.00662 -0.000120254 2.95839e-16)
(1.00698 -0.000122572 -2.81946e-16)
(1.00735 -0.000124803 -5.02739e-16)
(1.00773 -0.000126946 -4.35796e-16)
(1.00811 -0.000129002 -2.42984e-16)
(1.0085 -0.000130973 -6.33637e-16)
(1.0089 -0.000132857 -3.48764e-17)
(1.0093 -0.000134658 -6.9315e-16)
(1.00971 -0.000136375 -2.97454e-16)
(1.01012 -0.000138009 -3.50386e-16)
(1.01054 -0.000139562 3.29639e-16)
(1.01096 -0.000141035 -1.43589e-15)
(1.01138 -0.000142429 3.22998e-16)
(1.01181 -0.000143746 -3.22539e-15)
(1.01225 -0.000144987 -2.30525e-15)
(1.01268 -0.000146154 -1.46495e-15)
(1.01312 -0.000147248 -1.4138e-15)
(1.01357 -0.00014827 -1.4519e-15)
(1.01401 -0.000149224 -1.12339e-15)
(1.01446 -0.000150109 -3.24618e-16)
(1.01491 -0.000150929 -1.01887e-15)
(1.01537 -0.000151684 -1.10061e-15)
(1.01583 -0.000152377 -9.13556e-16)
(1.01628 -0.00015301 -3.13579e-16)
(1.01674 -0.000153583 -1.0556e-15)
(1.01721 -0.000154099 -5.87605e-16)
(1.01767 -0.00015456 -8.9425e-16)
(1.01813 -0.000154968 -7.56533e-16)
(1.0186 -0.000155324 -1.2026e-15)
(1.01907 -0.00015563 -5.71896e-16)
(1.01953 -0.000155888 -7.83861e-16)
(1.02 -0.000156099 -6.42231e-16)
(1.02047 -0.000156266 -2.44382e-16)
(1.02094 -0.00015639 -5.31779e-16)
(1.02141 -0.000156473 -6.97313e-16)
(1.02188 -0.000156516 -6.58075e-16)
(1.02235 -0.000156521 -7.33987e-16)
(1.02282 -0.000156489 -1.03024e-15)
(1.02329 -0.000156423 -6.58088e-16)
(1.02376 -0.000156323 -1.78478e-16)
(1.02423 -0.000156191 -3.89878e-16)
(1.02469 -0.000156029 -3.56357e-16)
(1.02516 -0.000155838 -8.81279e-16)
(1.02563 -0.00015562 -9.86575e-16)
(1.0261 -0.000155375 -7.90733e-16)
(1.02656 -0.000155105 -5.44504e-16)
(1.02703 -0.000154812 -1.01451e-15)
(1.02749 -0.000154496 -1.1392e-16)
(1.02795 -0.000154159 -5.0874e-16)
(1.02842 -0.000153802 -3.96984e-16)
(1.02888 -0.000153425 -4.31979e-16)
(1.02934 -0.000153031 -2.99576e-16)
(1.0298 -0.00015262 -5.20012e-16)
(1.03025 -0.000152194 -6.1055e-16)
(1.03071 -0.000151752 -3.87904e-16)
(1.03116 -0.000151297 -5.14422e-16)
(1.03162 -0.000150828 -7.13878e-16)
(1.03207 -0.000150348 -4.35461e-16)
(1.03252 -0.000149856 -5.95369e-16)
(1.03297 -0.000149354 -9.26417e-16)
(1.03342 -0.000148842 -4.23974e-16)
(1.03386 -0.000148321 -5.29947e-16)
(1.03431 -0.000147791 -8.75105e-16)
(1.03475 -0.000147254 -2.60623e-16)
(1.03519 -0.000146711 -1.03004e-15)
(1.03563 -0.000146161 -6.76847e-16)
(1.03607 -0.000145605 -6.92698e-16)
(1.0365 -0.000145044 -7.88781e-16)
(1.03694 -0.000144479 -4.73357e-16)
(1.03737 -0.00014391 -3.05188e-16)
(1.0378 -0.000143337 -6.08852e-16)
(1.03823 -0.000142761 2.48187e-17)
(1.03866 -0.000142182 -2.08768e-16)
(1.03909 -0.000141602 -1.07109e-16)
(1.03951 -0.000141019 -1.18743e-16)
(1.03993 -0.000140435 6.08676e-17)
(1.04035 -0.00013985 3.35755e-16)
(1.04077 -0.000139265 4.01641e-17)
(1.04119 -0.000138679 3.77905e-16)
(1.0416 -0.000138093 -1.79376e-16)
(1.04202 -0.000137507 2.05356e-16)
(1.04243 -0.000136922 -2.64627e-16)
(1.04284 -0.000136337 4.05358e-16)
(1.04325 -0.000135754 6.9955e-17)
(1.04365 -0.000135172 5.68028e-16)
(1.04406 -0.000134592 1.61818e-16)
(1.04446 -0.000134013 5.39426e-16)
(1.04486 -0.000133436 8.24037e-17)
(1.04526 -0.000132862 6.47562e-16)
(1.04566 -0.000132289 4.69722e-16)
(1.04606 -0.000131719 8.0458e-16)
(1.04645 -0.000131152 4.86328e-16)
(1.04684 -0.000130587 6.14799e-16)
(1.04723 -0.000130026 7.85041e-16)
(1.04762 -0.000129467 1.36643e-15)
(1.04801 -0.000128911 8.64905e-16)
(1.0484 -0.000128359 1.44547e-15)
(1.04878 -0.00012781 7.23753e-16)
(1.04917 -0.000127264 8.59006e-16)
(1.04955 -0.000126722 5.46244e-16)
(1.04993 -0.000126183 9.32508e-16)
(1.0503 -0.000125648 3.90987e-16)
(1.05068 -0.000125116 4.70798e-16)
(1.05105 -0.000124588 9.43957e-16)
(1.05143 -0.000124064 1.22942e-15)
(1.0518 -0.000123544 1.00164e-15)
(1.05217 -0.000123028 1.16972e-15)
(1.05254 -0.000122515 9.31266e-16)
(1.0529 -0.000122006 6.93855e-16)
(1.05327 -0.000121502 9.31307e-16)
(1.05363 -0.000121001 7.30435e-16)
(1.054 -0.000120504 1.11031e-15)
(1.05436 -0.000120012 1.17502e-15)
(1.05472 -0.000119523 1.08288e-15)
(1.05507 -0.000119038 8.70393e-16)
(1.05543 -0.000118557 1.55644e-15)
(1.05579 -0.000118081 1.15114e-15)
(1.05614 -0.000117608 1.6459e-15)
(1.05649 -0.000117139 1.57289e-15)
(1.05684 -0.000116674 1.64035e-15)
(1.05719 -0.000116213 1.01381e-15)
(1.05754 -0.000115757 1.26723e-15)
(1.05789 -0.000115304 1.45036e-15)
(1.05823 -0.000114855 1.85472e-15)
(1.05858 -0.00011441 8.9382e-16)
(1.05892 -0.000113968 1.6915e-15)
(1.05926 -0.000113531 1.81432e-15)
(1.0596 -0.000113098 1.793e-15)
(1.05994 -0.000112668 1.70488e-15)
(1.06028 -0.000112242 1.53697e-15)
(1.06061 -0.00011182 2.05873e-15)
(1.06095 -0.000111402 1.45161e-15)
(1.06128 -0.000110987 1.49114e-15)
(1.06161 -0.000110576 1.78445e-15)
(1.06195 -0.000110169 1.88812e-15)
(1.06228 -0.000109766 1.33313e-15)
(1.0626 -0.000109366 2.00734e-15)
(1.06293 -0.000108969 1.65867e-15)
(1.06326 -0.000108576 1.87788e-15)
(1.06358 -0.000108187 1.61149e-15)
(1.06391 -0.000107801 1.62554e-15)
(1.06423 -0.000107418 1.86883e-15)
(1.06455 -0.000107039 1.83886e-15)
(1.06487 -0.000106664 1.56031e-15)
(1.06519 -0.000106291 2.09123e-15)
(1.06551 -0.000105922 1.56885e-15)
(1.06583 -0.000105556 2.14533e-15)
(1.06614 -0.000105194 2.27385e-15)
(1.06646 -0.000104834 2.05793e-15)
(1.06677 -0.000104478 1.88655e-15)
(1.06709 -0.000104125 2.05751e-15)
(1.0674 -0.000103775 1.99416e-15)
(1.06771 -0.000103428 1.7426e-15)
(1.06802 -0.000103084 1.82833e-15)
(1.06833 -0.000102742 1.74595e-15)
(1.06864 -0.000102404 2.10004e-15)
(1.06894 -0.000102069 1.85083e-15)
(1.06925 -0.000101737 2.01572e-15)
(1.06955 -0.000101407 1.90351e-15)
(1.06986 -0.000101081 2.46839e-15)
(1.07016 -0.000100757 2.66669e-15)
(1.07046 -0.000100435 1.8278e-15)
(1.07076 -0.000100117 2.24551e-15)
(1.07106 -9.9801e-05 1.98004e-15)
(1.07136 -9.94878e-05 2.10158e-15)
(1.07166 -9.91771e-05 1.73279e-15)
(1.07196 -9.88691e-05 2.71348e-15)
(1.07225 -9.85635e-05 6.58985e-16)
(1.07255 -9.82604e-05 4.04518e-15)
(1.07284 -9.79599e-05 2.68544e-15)
(1.07314 -9.76617e-05 3.90375e-15)
(1.07343 -9.73659e-05 1.6049e-15)
(1.07372 -9.70725e-05 4.7035e-15)
(1.07401 -9.67814e-05 3.34638e-15)
(1.0743 -9.64926e-05 4.00256e-15)
(1.07459 -9.62061e-05 1.91726e-15)
(1.07488 -9.59219e-05 4.32064e-15)
(1.07517 -9.56398e-05 3.47473e-15)
(1.07545 -9.53599e-05 3.83793e-15)
(1.07574 -9.50822e-05 1.33958e-15)
(1.07602 -9.48066e-05 4.14383e-15)
(1.07631 -9.45331e-05 3.25868e-15)
(1.07659 -9.42616e-05 3.76986e-15)
(1.07687 -9.39922e-05 1.43634e-15)
(1.07716 -9.37247e-05 4.4696e-15)
(1.07744 -9.34593e-05 3.18087e-15)
(1.07772 -9.31957e-05 3.76134e-15)
(1.078 -9.29341e-05 1.95323e-15)
(1.07828 -9.26744e-05 3.21648e-15)
(1.07855 -9.24166e-05 3.66158e-15)
(1.07883 -9.21606e-05 2.17833e-15)
(1.07911 -9.19064e-05 2.89372e-15)
(1.07938 -9.1654e-05 9.71942e-16)
(1.07966 -9.14034e-05 3.91144e-15)
(1.07993 -9.11544e-05 2.46768e-15)
(1.0802 -9.09072e-05 3.66002e-15)
(1.08048 -9.06617e-05 1.34842e-15)
(1.08075 -9.04179e-05 3.7627e-15)
(1.08102 -9.01756e-05 2.35898e-15)
(1.08129 -8.9935e-05 3.57196e-15)
(1.08156 -8.9696e-05 1.42852e-15)
(1.08183 -8.94586e-05 3.62645e-15)
(1.0821 -8.92226e-05 2.52608e-15)
(1.08236 -8.89882e-05 3.4951e-15)
(1.08263 -8.87553e-05 1.12444e-15)
(1.0829 -8.85239e-05 3.83953e-15)
(1.08316 -8.82939e-05 2.62251e-15)
(1.08343 -8.80654e-05 2.88723e-15)
(1.08369 -8.78382e-05 1.51393e-15)
(1.08395 -8.76125e-05 3.95361e-15)
(1.08422 -8.73881e-05 2.50595e-15)
(1.08448 -8.71651e-05 3.06899e-15)
(1.08474 -8.69434e-05 1.32287e-15)
(1.085 -8.6723e-05 3.57741e-15)
(1.08526 -8.65038e-05 3.07872e-15)
(1.08552 -8.6286e-05 1.88319e-15)
(1.08578 -8.60694e-05 2.82033e-15)
(1.08603 -8.5854e-05 8.48812e-16)
(1.08629 -8.56399e-05 3.2455e-15)
(1.08655 -8.54269e-05 2.28483e-15)
(1.0868 -8.52151e-05 2.88517e-15)
(1.08706 -8.50044e-05 6.53037e-16)
(1.08731 -8.47949e-05 3.5375e-15)
(1.08757 -8.45865e-05 1.93525e-15)
(1.08782 -8.43793e-05 3.35737e-15)
(1.08808 -8.41731e-05 8.69558e-16)
(1.08833 -8.39679e-05 3.58704e-15)
(1.08858 -8.37639e-05 2.1869e-15)
(1.08883 -8.35608e-05 2.78184e-15)
(1.08908 -8.33588e-05 6.97423e-16)
(1.08933 -8.31578e-05 3.70939e-15)
(1.08958 -8.29578e-05 2.6465e-15)
(1.08983 -8.27588e-05 2.87304e-15)
(1.09008 -8.25607e-05 -2.3258e-17)
(1.09032 -8.23636e-05 4.02519e-15)
(1.09057 -8.21674e-05 1.45253e-15)
(1.09082 -8.19721e-05 4.02512e-15)
(1.09106 -8.17778e-05 2.46792e-15)
(1.09131 -8.15843e-05 3.77564e-15)
(1.09155 -8.13917e-05 4.14718e-15)
(1.0918 -8.12e-05 2.24311e-15)
(1.09204 -8.10091e-05 3.76631e-15)
(1.09228 -8.08191e-05 1.29682e-16)
(1.09253 -8.06299e-05 4.07091e-15)
(1.09277 -8.04416e-05 1.06671e-15)
(1.09301 -8.0254e-05 4.50057e-15)
(1.09325 -8.00672e-05 2.08922e-15)
(1.09349 -7.98813e-05 4.61395e-15)
(1.09373 -7.96961e-05 2.87521e-15)
(1.09397 -7.95116e-05 3.15068e-15)
(1.09421 -7.9328e-05 1.21142e-15)
(1.09444 -7.91451e-05 3.79952e-15)
(1.09468 -7.89629e-05 2.3959e-15)
(1.09492 -7.87814e-05 3.21411e-15)
(1.09515 -7.86007e-05 6.72389e-16)
(1.09539 -7.84207e-05 3.66671e-15)
(1.09562 -7.82414e-05 1.96223e-15)
(1.09586 -7.80628e-05 3.43473e-15)
(1.09609 -7.7885e-05 5.93455e-16)
(1.09633 -7.77078e-05 4.13923e-15)
(1.09656 -7.75312e-05 1.11327e-15)
(1.09679 -7.73554e-05 3.92893e-15)
(1.09702 -7.71802e-05 2.11554e-15)
(1.09725 -7.70057e-05 3.6676e-15)
(1.09749 -7.68319e-05 3.75321e-15)
(1.09772 -7.66587e-05 1.93758e-15)
(1.09795 -7.64862e-05 3.04137e-15)
(1.09818 -7.63144e-05 2.08667e-16)
(1.0984 -7.61432e-05 4.23952e-15)
(1.09863 -7.59727e-05 1.61603e-15)
(1.09886 -7.58028e-05 4.61343e-15)
(1.09909 -7.56335e-05 2.36556e-15)
(1.09931 -7.54649e-05 3.84385e-15)
(1.09954 -7.5297e-05 2.16554e-15)
(1.09977 -7.51297e-05 2.99577e-15)
(1.09999 -7.49631e-05 6.96553e-16)
(1.10022 -7.47971e-05 3.55868e-15)
(1.10044 -7.46318e-05 2.26409e-15)
(1.10066 -7.44672e-05 3.21893e-15)
(1.10089 -7.43032e-05 2.34123e-16)
(1.10111 -7.41399e-05 3.13e-15)
(1.10133 -7.39773e-05 1.93304e-15)
(1.10155 -7.38154e-05 2.91841e-15)
(1.10177 -7.36542e-05 1.01191e-16)
(1.102 -7.34936e-05 3.12507e-15)
(1.10222 -7.33338e-05 1.08096e-15)
(1.10244 -7.31747e-05 3.52408e-15)
(1.10266 -7.30163e-05 1.62653e-15)
(1.10287 -7.28587e-05 3.29794e-15)
(1.10309 -7.27019e-05 3.02048e-15)
(1.10331 -7.25458e-05 1.63103e-15)
(1.10353 -7.23904e-05 2.628e-15)
(1.10374 -7.22359e-05 1.44982e-16)
(1.10396 -7.20822e-05 3.436e-15)
(1.10418 -7.19293e-05 7.76211e-16)
(1.10439 -7.17773e-05 3.21598e-15)
(1.10461 -7.16262e-05 1.2158e-15)
(1.10482 -7.14759e-05 3.42943e-15)
(1.10504 -7.13266e-05 2.06852e-15)
(1.10525 -7.11781e-05 3.05612e-15)
(1.10546 -7.10307e-05 6.98293e-16)
(1.10568 -7.08842e-05 3.18728e-15)
(1.10589 -7.07387e-05 1.76169e-15)
(1.1061 -7.05943e-05 2.57256e-15)
(1.10631 -7.0451e-05 4.43514e-16)
(1.10653 -7.03087e-05 2.86364e-15)
(1.10674 -7.01676e-05 1.47029e-15)
(1.10695 -7.00277e-05 2.35636e-15)
(1.10716 -6.98889e-05 -1.88388e-16)
(1.10737 -6.97514e-05 3.3056e-15)
(1.10757 -6.96152e-05 8.00993e-16)
(1.10778 -6.94803e-05 3.41682e-15)
(1.10799 -6.93468e-05 1.74198e-15)
(1.1082 -6.92146e-05 2.81856e-15)
(1.10841 -6.90839e-05 2.85936e-15)
(1.10861 -6.89548e-05 1.31115e-15)
(1.10882 -6.88272e-05 2.72904e-15)
(1.10903 -6.87012e-05 -1.09257e-16)
(1.10923 -6.85768e-05 3.45431e-15)
(1.10944 -6.84542e-05 7.35231e-16)
(1.10964 -6.83334e-05 3.80154e-15)
(1.10985 -6.82143e-05 1.44729e-15)
(1.11005 -6.80973e-05 3.74391e-15)
(1.11026 -6.79821e-05 2.18004e-15)
(1.11046 -6.7869e-05 2.89294e-15)
(1.11067 -6.77581e-05 8.00443e-16)
(1.11087 -6.76493e-05 3.09557e-15)
(1.11107 -6.75428e-05 1.69989e-15)
(1.11127 -6.74386e-05 2.4729e-15)
(1.11148 -6.73369e-05 4.1637e-16)
(1.11168 -6.72377e-05 2.78503e-15)
(1.11188 -6.71411e-05 1.49773e-15)
(1.11208 -6.70472e-05 2.33332e-15)
(1.11228 -6.6956e-05 1.31829e-16)
(1.11248 -6.68678e-05 3.22906e-15)
(1.11268 -6.67826e-05 8.27095e-16)
(1.11288 -6.67005e-05 3.38221e-15)
(1.11308 -6.66217e-05 1.62488e-15)
(1.11328 -6.65462e-05 2.94903e-15)
(1.11348 -6.64741e-05 2.99954e-15)
(1.11368 -6.64056e-05 1.51665e-15)
(1.11388 -6.63408e-05 2.68588e-15)
(1.11408 -6.62799e-05 1.06286e-16)
(1.11428 -6.6223e-05 3.0243e-15)
(1.11448 -6.61702e-05 5.2992e-16)
(1.11468 -6.61216e-05 3.38738e-15)
(1.11488 -6.60775e-05 1.06738e-15)
(1.11507 -6.6038e-05 3.19674e-15)
(1.11527 -6.60032e-05 2.02784e-15)
(1.11547 -6.59733e-05 2.71375e-15)
(1.11567 -6.59485e-05 7.4013e-16)
(1.11587 -6.5929e-05 2.81852e-15)
(1.11606 -6.5915e-05 1.55579e-15)
(1.11626 -6.59066e-05 2.45053e-15)
(1.11646 -6.5904e-05 4.06966e-16)
(1.11666 -6.59075e-05 2.79704e-15)
(1.11685 -6.59173e-05 1.47046e-15)
(1.11705 -6.59336e-05 2.47088e-15)
(1.11725 -6.59566e-05 8.59394e-17)
(1.11745 -6.59865e-05 3.32515e-15)
(1.11765 -6.60236e-05 6.04437e-16)
(1.11784 -6.60682e-05 3.3105e-15)
(1.11804 -6.61204e-05 1.43326e-15)
(1.11824 -6.61807e-05 2.94065e-15)
(1.11844 -6.62492e-05 2.6975e-15)
(1.11864 -6.63262e-05 1.83157e-15)
(1.11884 -6.6412e-05 1.62846e-15)
(1.11904 -6.6507e-05 7.62053e-16)
(1.11924 -6.66113e-05 1.67274e-15)
(1.11944 -6.67255e-05 -7.5692e-17)
(1.11964 -6.68498e-05 -6.83103e-16)
(1.11984 -6.69844e-05 4.32864e-16)
(1.12004 -6.71299e-05 -9.6131e-16)
(1.12024 -6.72866e-05 1.14377e-15)
(1.12044 -6.74547e-05 9.02883e-16)
(1.12065 -6.76349e-05 8.37555e-16)
(1.12085 -6.78273e-05 5.74436e-16)
(1.12105 -6.80325e-05 6.10774e-16)
(1.12126 -6.82508e-05 2.3806e-17)
(1.12146 -6.84828e-05 8.44449e-16)
(1.12167 -6.87288e-05 -5.44908e-16)
(1.12188 -6.89894e-05 1.13195e-15)
(1.12208 -6.9265e-05 1.11877e-15)
(1.12229 -6.95561e-05 5.84314e-16)
(1.1225 -6.98632e-05 1.1488e-15)
(1.12271 -7.01869e-05 -3.41138e-16)
(1.12292 -7.05277e-05 -8.69719e-16)
(1.12313 -7.08862e-05 -6.48792e-17)
(1.12335 -7.1263e-05 -1.33547e-15)
(1.12356 -7.16586e-05 1.23754e-15)
(1.12378 -7.20736e-05 7.08533e-16)
(1.12399 -7.25088e-05 6.54376e-16)
(1.12421 -7.29647e-05 3.32891e-17)
(1.12443 -7.3442e-05 9.89216e-16)
(1.12465 -7.39415e-05 -7.83594e-16)
(1.12488 -7.44638e-05 -1.39517e-15)
(1.1251 -7.50097e-05 -2.23042e-16)
(1.12533 -7.558e-05 -1.63287e-15)
(1.12555 -7.61753e-05 6.42404e-16)
(1.12578 -7.67966e-05 2.21406e-16)
(1.12601 -7.74446e-05 3.0588e-16)
(1.12625 -7.81202e-05 9.89193e-17)
(1.12648 -7.88244e-05 6.10774e-16)
(1.12672 -7.95579e-05 -2.65667e-16)
(1.12696 -8.03217e-05 4.14951e-16)
(1.1272 -8.11169e-05 -1.09831e-15)
(1.12745 -8.19443e-05 1.0216e-15)
(1.12769 -8.28049e-05 8.92276e-16)
(1.12794 -8.36999e-05 1.58671e-16)
(1.1282 -8.46304e-05 9.36743e-16)
(1.12845 -8.55973e-05 -7.03579e-16)
(1.12871 -8.66019e-05 -1.25852e-15)
(1.12897 -8.76453e-05 -4.35598e-17)
(1.12924 -8.87288e-05 -1.29343e-15)
(1.1295 -8.98535e-05 7.40064e-16)
(1.12978 -9.10207e-05 2.4682e-16)
(1.13005 -9.22318e-05 4.38153e-16)
(1.13033 -9.34881e-05 -6.69145e-17)
(1.13061 -9.47911e-05 7.78092e-16)
(1.1309 -9.6142e-05 -7.12004e-16)
(1.13119 -9.75423e-05 -1.34002e-15)
(1.13148 -9.89937e-05 -1.04611e-16)
(1.13178 -0.000100498 -1.51487e-15)
(1.13209 -0.000102056 5.95994e-16)
(1.1324 -0.000103669 4.24194e-16)
(1.13271 -0.00010534 1.62907e-16)
(1.13303 -0.000107071 -5.28098e-17)
(1.13335 -0.000108862 4.04983e-16)
(1.13368 -0.000110716 -1.59071e-16)
(1.13402 -0.000112634 3.07799e-16)
(1.13436 -0.000114619 -9.11497e-16)
(1.1347 -0.000116672 8.20497e-16)
(1.13506 -0.000118796 7.27537e-16)
(1.13542 -0.000120992 1.49317e-16)
(1.13578 -0.000123263 6.96342e-16)
(1.13616 -0.000125611 -8.26688e-16)
(1.13654 -0.000128038 -8.93946e-16)
(1.13692 -0.000130546 -1.7967e-16)
(1.13732 -0.000133137 -1.45354e-15)
(1.13772 -0.000135815 5.52855e-16)
(1.13813 -0.000138581 2.47006e-16)
(1.13855 -0.000141438 3.59301e-16)
(1.13898 -0.000144389 -3.06733e-16)
(1.13942 -0.000147435 5.34274e-16)
(1.13987 -0.000150581 -1.03386e-15)
(1.14032 -0.000153828 -1.1502e-15)
(1.14079 -0.000157179 -1.42956e-16)
(1.14127 -0.000160638 -1.66668e-15)
(1.14176 -0.000164207 2.82023e-16)
(1.14225 -0.000167888 1.6377e-16)
(1.14276 -0.000171687 2.5185e-16)
(1.14328 -0.000175604 -2.86844e-17)
(1.14382 -0.000179644 1.61666e-16)
(1.14436 -0.000183809 -3.21787e-16)
(1.14492 -0.000188104 3.45769e-16)
(1.14549 -0.000192531 -8.69834e-16)
(1.14607 -0.000197093 7.72235e-16)
(1.14667 -0.000201795 6.92823e-16)
(1.14729 -0.00020664 -1.41735e-17)
(1.14791 -0.000211631 8.0947e-16)
(1.14856 -0.000216772 -7.83156e-16)
(1.14921 -0.000222067 -9.3101e-16)
(1.14989 -0.000227519 -1.29842e-16)
(1.15058 -0.000233133 -1.04191e-15)
(1.15129 -0.000238911 4.80405e-16)
(1.15201 -0.000244859 3.11397e-16)
(1.15276 -0.000250979 5.71575e-16)
(1.15352 -0.000257277 -3.29233e-16)
(1.1543 -0.000263755 3.80437e-16)
(1.1551 -0.000270418 -7.25314e-16)
(1.15592 -0.000277271 -1.51495e-15)
(1.15676 -0.000284316 -4.33303e-16)
(1.15763 -0.000291558 -1.18371e-15)
(1.15851 -0.000299002 2.8972e-16)
(1.15942 -0.000306651 8.18419e-17)
(1.16035 -0.00031451 4.30844e-17)
(1.16131 -0.000322582 -3.12231e-16)
(1.16229 -0.000330872 2.15467e-16)
(1.1633 -0.000339384 -6.71631e-16)
(1.16433 -0.000348121 -4.84211e-17)
(1.16538 -0.000357088 -6.70347e-16)
(1.16647 -0.000366289 2.74503e-16)
(1.16758 -0.000375727 5.05371e-16)
(1.16872 -0.000385407 4.23354e-17)
(1.16989 -0.000395331 6.1961e-16)
(1.1711 -0.000405504 -6.49123e-16)
(1.17233 -0.000415929 -1.15856e-15)
(1.17359 -0.000426609 -4.12295e-16)
(1.17489 -0.000437547 -1.45022e-15)
(1.17622 -0.000448747 2.98121e-16)
(1.17758 -0.000460212 1.47265e-17)
(1.17898 -0.000471943 4.648e-17)
(1.18041 -0.000483943 -5.63844e-16)
(1.18188 -0.000496215 1.28229e-16)
(1.18339 -0.00050876 -1.02503e-15)
(1.18494 -0.00052158 -1.33352e-15)
(1.18652 -0.000534676 -4.87574e-16)
(1.18814 -0.00054805 -1.32649e-15)
(1.18981 -0.000561702 4.3437e-16)
(1.19151 -0.000575631 -1.25818e-16)
(1.19326 -0.000589839 -1.65557e-16)
(1.19505 -0.000604324 -4.23962e-16)
(1.19689 -0.000619086 1.5162e-16)
(1.19877 -0.000634122 -4.26915e-16)
(1.20069 -0.000649431 -9.01874e-17)
(1.20267 -0.000665011 -5.56834e-16)
(1.20468 -0.000680857 2.04327e-16)
(1.20675 -0.000696967 4.10787e-16)
(1.20887 -0.000713336 -2.84176e-16)
(1.21103 -0.000729959 4.29879e-16)
(1.21325 -0.00074683 -8.88681e-16)
(1.21551 -0.000763943 -8.92084e-16)
(1.21783 -0.00078129 -7.96471e-16)
(1.2202 -0.000798864 -6.57512e-16)
(1.22262 -0.000816656 -4.9351e-16)
(1.2251 -0.000834656 -5.54246e-16)
(1.22763 -0.000852854 -5.44294e-16)
(1.23022 -0.000871238 -8.80075e-16)
(1.23286 -0.000889797 -3.08807e-16)
(1.23556 -0.000908517 -1.20447e-15)
(1.23831 -0.000927384 -1.25322e-15)
(1.24112 -0.000946383 -8.50681e-16)
(1.24399 -0.000965498 -1.31899e-15)
(1.24692 -0.000984713 -3.03087e-16)
(1.2499 -0.00100401 -4.53067e-16)
(1.25294 -0.00102337 -2.56827e-16)
(1.25604 -0.00104277 -5.12827e-16)
(1.2592 -0.00106219 -3.80725e-16)
(1.26242 -0.00108161 -6.1027e-16)
(1.26569 -0.00110101 -3.84078e-16)
(1.26902 -0.00112037 -6.97414e-16)
(1.27241 -0.00113965 -2.69617e-16)
(1.27586 -0.00115884 -1.4113e-16)
(1.27937 -0.0011779 -4.87495e-16)
(1.28293 -0.00119682 -1.622e-16)
(1.28655 -0.00121555 -6.67814e-16)
(1.29023 -0.00123409 -6.49714e-16)
(1.29396 -0.00125239 -6.05242e-16)
(1.29774 -0.00127042 -6.9038e-16)
(1.30158 -0.00128816 -6.3959e-16)
(1.30547 -0.00130558 -6.90807e-16)
(1.30942 -0.00132264 -5.93834e-16)
(1.31341 -0.00133932 -6.23848e-16)
(1.31745 -0.00135558 -5.14522e-16)
(1.32155 -0.0013714 -7.38462e-16)
(1.32569 -0.00138674 -7.46046e-16)
(1.32987 -0.00140156 -6.94625e-16)
(1.3341 -0.00141586 -7.23139e-16)
(1.33837 -0.00142958 -6.73698e-16)
(1.34268 -0.0014427 -6.4863e-16)
(1.34703 -0.0014552 -6.67787e-16)
(1.35141 -0.00146704 -6.47544e-16)
(1.35583 -0.00147821 -6.73909e-16)
(1.36028 -0.00148866 -6.19538e-16)
(1.36477 -0.00149839 -6.98874e-16)
(1.36928 -0.00150736 -6.10466e-16)
(1.37381 -0.00151555 -7.83179e-16)
(1.37837 -0.00152295 -8.75481e-16)
(1.38295 -0.00152953 -6.48347e-16)
(1.38755 -0.00153528 -8.85918e-16)
(1.39217 -0.00154017 -5.24839e-16)
(1.3968 -0.00154421 -5.43655e-16)
(1.40144 -0.00154737 -6.73124e-16)
(1.40608 -0.00154964 -4.23553e-16)
(1.41074 -0.00155103 -6.70785e-16)
(1.41539 -0.00155151 -5.58897e-16)
(1.42005 -0.0015511 -7.77126e-16)
(1 -5.04127e-06 8.78014e-17)
(1.00001 -1.50995e-05 -2.52413e-16)
(1.00004 -2.512e-05 3.05829e-16)
(1.00008 -3.51176e-05 -6.42046e-16)
(1.00013 -4.50912e-05 -7.49036e-16)
(1.00019 -5.50239e-05 -1.67853e-15)
(1.00027 -6.48981e-05 -1.43064e-15)
(1.00036 -7.47015e-05 -1.27322e-15)
(1.00046 -8.44257e-05 -1.2972e-15)
(1.00058 -9.40633e-05 -1.21835e-15)
(1.0007 -0.000103606 -1.04922e-15)
(1.00084 -0.000113045 -1.06017e-15)
(1.001 -0.000122371 -5.79882e-16)
(1.00116 -0.000131575 -1.20174e-15)
(1.00133 -0.00014065 -2.56921e-16)
(1.00152 -0.000149587 1.42917e-17)
(1.00172 -0.000158379 -6.12242e-16)
(1.00193 -0.00016702 1.36424e-16)
(1.00215 -0.000175502 5.79574e-16)
(1.00238 -0.00018382 -8.83641e-17)
(1.00262 -0.000191967 4.586e-16)
(1.00287 -0.00019994 9.92969e-16)
(1.00314 -0.000207732 2.48735e-16)
(1.00341 -0.00021534 1.36623e-15)
(1.00369 -0.000222758 7.25148e-16)
(1.00398 -0.000229985 1.05063e-15)
(1.00428 -0.000237017 4.494e-17)
(1.00459 -0.000243851 9.94942e-16)
(1.00491 -0.000250484 -4.39101e-16)
(1.00524 -0.000256916 -2.75045e-16)
(1.00557 -0.000263145 -8.27319e-16)
(1.00591 -0.000269169 -3.64356e-16)
(1.00626 -0.000274989 -9.29731e-16)
(1.00662 -0.000280603 -2.85895e-17)
(1.00698 -0.000286013 -1.5495e-15)
(1.00736 -0.000291218 -1.25917e-15)
(1.00773 -0.000296219 -1.54563e-15)
(1.00812 -0.000301018 -1.23328e-15)
(1.00851 -0.000305616 -1.5159e-15)
(1.0089 -0.000310014 -7.47133e-16)
(1.00931 -0.000314216 -1.86039e-15)
(1.00971 -0.000318222 -1.76061e-15)
(1.01012 -0.000322036 -1.85402e-15)
(1.01054 -0.00032566 -1.82705e-15)
(1.01096 -0.000329097 -1.90495e-15)
(1.01139 -0.00033235 -1.68602e-15)
(1.01182 -0.000335423 -2.06416e-15)
(1.01225 -0.000338318 -2.1091e-15)
(1.01269 -0.000341041 -1.85067e-15)
(1.01313 -0.000343593 -2.13933e-15)
(1.01357 -0.00034598 -1.95915e-15)
(1.01402 -0.000348204 -1.99593e-15)
(1.01447 -0.000350271 -1.6679e-15)
(1.01492 -0.000352183 -1.89657e-15)
(1.01537 -0.000353946 -1.91418e-15)
(1.01583 -0.000355562 -2.13877e-15)
(1.01629 -0.000357038 -1.98309e-15)
(1.01675 -0.000358375 -2.07143e-15)
(1.01721 -0.00035958 -1.93253e-15)
(1.01767 -0.000360656 -1.73816e-15)
(1.01814 -0.000361607 -1.74263e-15)
(1.0186 -0.000362437 -2.00679e-15)
(1.01907 -0.000363151 -1.8642e-15)
(1.01954 -0.000363753 -1.87863e-15)
(1.02001 -0.000364246 -1.84421e-15)
(1.02048 -0.000364635 -2.21404e-15)
(1.02094 -0.000364924 -1.91225e-15)
(1.02141 -0.000365116 -2.08912e-15)
(1.02188 -0.000365216 -1.83231e-15)
(1.02235 -0.000365228 -2.37778e-15)
(1.02282 -0.000365154 -1.66615e-15)
(1.02329 -0.000364999 -2.65557e-15)
(1.02376 -0.000364766 -1.05903e-15)
(1.02423 -0.000364459 -1.59359e-15)
(1.0247 -0.000364081 -9.33958e-16)
(1.02517 -0.000363635 -1.94718e-15)
(1.02564 -0.000363125 -7.17371e-16)
(1.0261 -0.000362553 -1.15917e-15)
(1.02657 -0.000361924 -8.48639e-16)
(1.02703 -0.000361239 -1.57745e-15)
(1.0275 -0.000360501 -4.89574e-16)
(1.02796 -0.000359715 -6.71223e-16)
(1.02842 -0.000358881 -8.66812e-16)
(1.02888 -0.000358003 -9.17817e-16)
(1.02934 -0.000357083 -1.12284e-15)
(1.0298 -0.000356124 -1.13604e-15)
(1.03026 -0.000355128 -1.3437e-15)
(1.03072 -0.000354098 -1.28682e-15)
(1.03117 -0.000353035 -1.49283e-15)
(1.03162 -0.000351942 -1.26706e-15)
(1.03208 -0.00035082 -1.6313e-15)
(1.03253 -0.000349672 -1.43186e-15)
(1.03298 -0.0003485 -1.81952e-15)
(1.03342 -0.000347305 -1.6751e-15)
(1.03387 -0.00034609 -1.99826e-15)
(1.03431 -0.000344855 -1.49514e-15)
(1.03476 -0.000343602 -1.88301e-15)
(1.0352 -0.000342333 -1.25192e-15)
(1.03564 -0.00034105 -5.51655e-16)
(1.03607 -0.000339753 -1.95677e-15)
(1.03651 -0.000338444 -4.07189e-16)
(1.03695 -0.000337125 -1.40545e-15)
(1.03738 -0.000335797 1.62239e-16)
(1.03781 -0.00033446 -9.54342e-16)
(1.03824 -0.000333116 4.54516e-16)
(1.03867 -0.000331766 -7.86668e-16)
(1.03909 -0.00033041 6.06457e-16)
(1.03952 -0.000329051 -3.62559e-16)
(1.03994 -0.000327689 8.86963e-16)
(1.04036 -0.000326324 1.00359e-16)
(1.04078 -0.000324957 3.83816e-16)
(1.04119 -0.00032359 8.14638e-16)
(1.04161 -0.000322222 -5.19236e-16)
(1.04202 -0.000320856 1.33275e-15)
(1.04244 -0.00031949 -2.62139e-16)
(1.04285 -0.000318127 1.38117e-15)
(1.04325 -0.000316766 -5.99243e-17)
(1.04366 -0.000315408 1.57101e-15)
(1.04407 -0.000314053 1.40687e-16)
(1.04447 -0.000312703 1.78033e-15)
(1.04487 -0.000311357 3.15113e-16)
(1.04527 -0.000310016 1.82632e-15)
(1.04567 -0.00030868 4.94612e-16)
(1.04606 -0.000307351 1.93601e-15)
(1.04646 -0.000306027 6.82946e-16)
(1.04685 -0.000304709 2.1632e-15)
(1.04724 -0.000303398 6.84293e-16)
(1.04763 -0.000302095 2.19768e-15)
(1.04802 -0.000300798 1.19675e-15)
(1.0484 -0.000299509 2.45792e-15)
(1.04879 -0.000298227 1.1195e-15)
(1.04917 -0.000296954 2.17484e-15)
(1.04955 -0.000295688 1.22369e-15)
(1.04993 -0.000294431 2.35678e-15)
(1.05031 -0.000293182 1.70137e-15)
(1.05069 -0.000291942 2.04435e-15)
(1.05106 -0.00029071 2.50242e-15)
(1.05143 -0.000289488 1.52904e-15)
(1.05181 -0.000288274 2.34512e-15)
(1.05218 -0.000287069 1.92912e-15)
(1.05254 -0.000285873 3.32782e-15)
(1.05291 -0.000284686 1.80793e-15)
(1.05328 -0.000283508 3.21513e-15)
(1.05364 -0.00028234 2.11197e-15)
(1.054 -0.000281181 3.32929e-15)
(1.05436 -0.000280031 2.11423e-15)
(1.05472 -0.000278891 3.05751e-15)
(1.05508 -0.000277759 2.4554e-15)
(1.05544 -0.000276638 3.90019e-15)
(1.05579 -0.000275525 2.51662e-15)
(1.05615 -0.000274422 3.77932e-15)
(1.0565 -0.000273328 2.40495e-15)
(1.05685 -0.000272244 3.79422e-15)
(1.0572 -0.000271168 2.58914e-15)
(1.05755 -0.000270102 3.35988e-15)
(1.05789 -0.000269045 3.26216e-15)
(1.05824 -0.000267998 4.28658e-15)
(1.05858 -0.000266959 3.16545e-15)
(1.05893 -0.00026593 4.08572e-15)
(1.05927 -0.000264909 3.2924e-15)
(1.05961 -0.000263898 3.77678e-15)
(1.05995 -0.000262896 3.93311e-15)
(1.06028 -0.000261902 2.98836e-15)
(1.06062 -0.000260917 3.72581e-15)
(1.06095 -0.000259941 3.17753e-15)
(1.06129 -0.000258974 4.44654e-15)
(1.06162 -0.000258015 3.37711e-15)
(1.06195 -0.000257065 4.45733e-15)
(1.06228 -0.000256123 3.23097e-15)
(1.06261 -0.00025519 4.51668e-15)
(1.06294 -0.000254265 3.36606e-15)
(1.06326 -0.000253348 4.07007e-15)
(1.06359 -0.000252439 3.62939e-15)
(1.06391 -0.000251539 4.70728e-15)
(1.06424 -0.000250646 3.6433e-15)
(1.06456 -0.000249762 5.05533e-15)
(1.06488 -0.000248885 3.67262e-15)
(1.0652 -0.000248016 4.86052e-15)
(1.06552 -0.000247155 3.91329e-15)
(1.06583 -0.000246301 4.37583e-15)
(1.06615 -0.000245455 4.46151e-15)
(1.06647 -0.000244616 5.24635e-15)
(1.06678 -0.000243785 4.21821e-15)
(1.06709 -0.000242961 5.16169e-15)
(1.06741 -0.000242144 4.11398e-15)
(1.06772 -0.000241334 4.51615e-15)
(1.06803 -0.000240531 4.5424e-15)
(1.06833 -0.000239735 3.88672e-15)
(1.06864 -0.000238946 4.67853e-15)
(1.06895 -0.000238164 3.99038e-15)
(1.06926 -0.000237389 5.10762e-15)
(1.06956 -0.00023662 3.91572e-15)
(1.06986 -0.000235857 5.1162e-15)
(1.07017 -0.000235102 4.16948e-15)
(1.07047 -0.000234352 4.69737e-15)
(1.07077 -0.000233609 4.26131e-15)
(1.07107 -0.000232872 4.42538e-15)
(1.07137 -0.000232141 4.81479e-15)
(1.07167 -0.000231416 4.88626e-15)
(1.07196 -0.000230697 5.54871e-15)
(1.07226 -0.000229984 3.95713e-15)
(1.07256 -0.000229277 5.08031e-15)
(1.07285 -0.000228576 4.20737e-15)
(1.07314 -0.00022788 4.84305e-15)
(1.07344 -0.00022719 3.9235e-15)
(1.07373 -0.000226505 5.01295e-15)
(1.07402 -0.000225826 4.01604e-15)
(1.07431 -0.000225152 4.72685e-15)
(1.0746 -0.000224484 3.41851e-15)
(1.07489 -0.00022382 4.58403e-15)
(1.07517 -0.000223162 3.84706e-15)
(1.07546 -0.000222509 4.45336e-15)
(1.07575 -0.000221861 3.19552e-15)
(1.07603 -0.000221218 4.21216e-15)
(1.07632 -0.00022058 3.54486e-15)
(1.0766 -0.000219946 3.96419e-15)
(1.07688 -0.000219317 2.93774e-15)
(1.07716 -0.000218693 4.04332e-15)
(1.07744 -0.000218074 3.56944e-15)
(1.07772 -0.000217459 4.02215e-15)
(1.078 -0.000216849 3.23243e-15)
(1.07828 -0.000216243 3.51603e-15)
(1.07856 -0.000215641 3.82268e-15)
(1.07884 -0.000215044 3.16292e-15)
(1.07911 -0.000214451 3.74309e-15)
(1.07939 -0.000213862 2.36128e-15)
(1.07966 -0.000213277 3.85902e-15)
(1.07994 -0.000212696 2.88138e-15)
(1.08021 -0.000212119 3.68175e-15)
(1.08048 -0.000211546 2.43495e-15)
(1.08075 -0.000210977 3.63076e-15)
(1.08102 -0.000210412 2.93661e-15)
(1.08129 -0.000209851 3.70495e-15)
(1.08156 -0.000209293 2.3796e-15)
(1.08183 -0.000208739 3.71272e-15)
(1.0821 -0.000208188 2.95558e-15)
(1.08237 -0.000207641 3.48741e-15)