/*--------------------------------*- C++ -*----------------------------------*\
  =========                 |
  \\      /  F ield         | OpenFOAM: The Open Source CFD Toolbox
   \\    /   O peration     | Website:  https://openfoam.org
    \\  /    A nd           | Version:  7
     \\/     M anipulation  |
\*---------------------------------------------------------------------------*/
FoamFile
{
    version     2.0;
    format      ascii;
    class       surfaceScalarField;
    location    "23";
    object      phi;
}
// * * * * * * * * * * * * * * * * * * * * * * * * * * * * * * * * * * * * * //

dimensions      [0 3 -1 0 0 0 0];

internalField   nonuniform List<scalar> 
810
(
0.00132421
-0.00163404
-0.00107745
0.00123414
-0.0011959
0.0012931
-0.00131926
0.00135178
-0.00144805
0.00140651
0.0014584
-0.00158224
-0.000608861
0.00108383
-0.000706423
0.00115042
-0.000808762
0.00121643
-0.000915954
0.00128171
-0.00102806
0.00134625
-0.00114512
0.00141016
-0.00126709
0.00147375
-0.00139449
0.0015339
0.00159117
-0.00152725
-0.000313682
0.000956328
-0.000392693
0.00102896
-0.000477303
0.00110151
-0.00056722
0.00117375
-0.00066226
0.00124546
-0.00076233
0.0013165
-0.000867398
0.00138678
-0.000977469
0.00145632
-0.00109255
0.00152524
-0.0012126
0.0015938
-0.00133815
0.00165945
0.00172211
-0.00146909
-2.29903e-06
0.000724557
-6.23025e-05
0.000800646
-0.000127443
0.000877084
-0.000197492
0.000953951
-0.000272282
0.00103112
-0.000351699
0.00110837
-0.000435683
0.0011855
-0.000524232
0.0012623
-0.000617394
0.00133862
-0.000715254
0.00141436
-0.000817919
0.00148944
-0.000925494
0.00156389
-0.00103807
0.00163782
-0.00115567
0.0017114
-0.00127887
0.00178265
0.00185081
-0.00140758
0.000204006
0.00016337
0.000611197
0.000111046
0.000700571
5.073e-05
0.000784873
-1.50927e-05
0.000866469
-8.49525e-05
0.000946944
-0.000158137
0.00102714
-0.000234419
0.0011074
-0.000313866
0.00118782
-0.000396707
0.00126834
-0.000483241
0.00134883
-0.000573785
0.00142917
-0.000668645
0.00150922
-0.000768095
0.00158889
-0.000872376
0.00166817
-0.000981681
0.00174713
-0.00109612
0.00182584
-0.00121633
0.00190286
0.00197674
-0.00134226
0.000136795
9.04818e-05
3.79324e-05
0.000837422
-1.96994e-05
0.000924101
-8.16457e-05
0.00100889
-0.000147478
0.00109297
-0.00021702
0.00117694
-0.000290276
0.00126108
-0.000367374
0.00134544
-0.000448515
0.00142997
-0.000533936
0.00151459
-0.000623886
0.00159917
-0.000718609
0.00168362
-0.000818337
0.0017679
-0.000923282
0.00185207
-0.0010336
0.00193616
-0.00114995
0.00201921
0.00209917
-0.00127238
-2.50579e-05
-6.35487e-05
0.000962592
-0.000108338
0.00105368
-0.00015927
0.0011439
-0.000216072
0.00123374
-0.000278463
0.00132347
-0.000346217
0.00141319
-0.00041919
0.00150295
-0.000497321
0.00159272
-0.000580623
0.00168247
-0.000669165
0.00177216
-0.000763061
0.0018618
-0.000862457
0.00195147
-0.000967511
0.00204122
-0.00107884
0.00213054
0.0022171
-0.00119677
-9.33854e-05
-0.000127686
-0.000168042
0.00118426
-0.000214657
0.00128036
-0.00026747
0.00137628
-0.000326308
0.00147203
-0.000390988
0.00156763
-0.000461365
0.0016631
-0.000537347
0.00175845
-0.000618901
0.00185371
-0.000706045
0.00194894
-0.000798822
0.00204425
-0.000897303
0.0021397
-0.00100196
0.00223519
0.00232906
-0.00111392
-0.000160785
-0.000203495
-0.000250855
0.00142364
-0.000303304
0.00152448
-0.000361099
0.00162542
-0.00042438
0.00172638
-0.000493207
0.00182728
-0.000567598
0.0019281
-0.000647527
0.00202887
-0.000732903
0.00212962
-0.000823395
0.00223019
-0.000919042
0.00233084
0.00243334
-0.00102331
-0.000236777
-0.000281529
-0.000331807
0.0016757
-0.000387775
0.00178235
-0.00044951
0.00188901
-0.000517006
0.0019956
-0.000590171
0.00210204
-0.000668833
0.00220828
-0.000752348
0.0023137
-0.00084298
0.00242147
0.00252278
-0.000932426
-0.000303584
-0.000352303
0.00183106
-0.000407941
0.00194465
-0.000470743
0.0020584
-0.000541201
0.00217249
-0.000620326
0.00228741
-0.000710681
0.00240406
-0.000814857
0.00252565
0.00265991
-0.000951987
-0.000313961
-0.000363745
-0.000421816
0.00211647
-0.000488697
0.00223937
-0.000565204
0.00236392
-0.000652378
0.00249123
-0.000749399
0.00262267
0.00276334
-0.000852831
-0.000365127
-0.000426453
-0.000496693
0.00243416
-0.000575744
0.00257028
-0.000662486
0.00270941
0.00285352
-0.000752662
-0.000417428
-0.000487701
-0.000564388
0.0027861
0.0029343
-0.000645172
-0.000459537
-0.000531747
0.00337881
-4.50354e-05
0.000201757
0.00319991
-0.000808419
0.000987322
0.00300013
-0.001486
0.00168578
0.00277791
-0.00216674
0.00238895
0.00252668
-0.0028836
0.00313483
0.00224595
-0.00368927
0.00397
0.0019324
-0.0045137
0.00482725
0.00160253
-0.00541686
0.00574673
0.00126446
-0.00614572
0.00648379
-0.00673689
0.00706892
0.00339817
9.23351e-05
0.003236
-0.000646246
0.00305046
-0.00130046
0.00284013
-0.00195641
0.00259877
-0.00264224
0.00232542
-0.00341592
0.00201737
-0.00420565
0.00168707
-0.00508656
0.00135286
-0.0058115
-0.00640734
0.00341674
0.00021113
0.00327074
-0.000500246
0.00309927
-0.00112899
0.00290108
-0.00175822
0.0026704
-0.00241155
0.00240572
-0.00315125
0.00210503
-0.00390497
0.00177665
-0.00475818
0.00144894
-0.00548379
-0.00607232
0.00343445
0.000312209
0.0033039
-0.000369691
0.00314586
-0.00097095
0.00295924
-0.00157159
0.00273878
-0.0021911
0.00248243
-0.0028949
0.00218901
-0.00361155
0.00186308
-0.00443224
0.00153623
-0.00515695
-0.00573286
0.00345132
0.000396424
0.0033355
-0.000253872
0.00319033
-0.000825778
0.00301483
-0.0013961
0.00280429
-0.00198056
0.00255607
-0.00264668
0.00226983
-0.00332531
0.00194662
-0.00410903
0.00161747
-0.0048278
-0.00538777
0.0034673
0.000464654
0.00336549
-0.000152054
0.00323258
-0.000692871
0.00306772
-0.00123124
0.00286674
-0.00177958
0.00262639
-0.00240633
0.00234706
-0.00304598
0.0020267
-0.00378867
0.00169374
-0.00449484
-0.00503629
0.00348237
0.000517814
0.00339379
-6.34685e-05
0.00327252
-0.000571598
0.00311778
-0.00107651
0.00292595
-0.00158774
0.00269319
-0.00217357
0.00242043
-0.00277321
0.00210304
-0.00347129
0.00176589
-0.00415769
-0.00467798
0.00349651
0.000556842
0.00342034
1.26928e-05
0.00331004
-0.000461296
0.00316488
-0.000931345
0.00298175
-0.00140461
0.00275624
-0.00194806
0.00248963
-0.0025066
0.00217535
-0.003157
0.00183424
-0.00381658
-0.00431284
0.00350966
0.000582713
0.0034451
7.72563e-05
0.00334507
-0.000361264
0.00320889
-0.000795167
0.00303395
-0.00122968
0.00281534
-0.00172945
0.00255444
-0.0022457
0.00224337
-0.00284593
0.00189883
-0.00347205
-0.00394125
0.00352182
0.003468
0.00337751
0.0032497
-0.000667356
0.00308242
-0.0010624
0.00287031
-0.00151734
0.00261466
-0.00199005
0.00230686
-0.00253812
0.00195957
-0.00312476
-0.00356393
0.00328721
0.00312703
0.002921
0.00267014
0.0023656
0.00201624
0.00866763
-0.0005251
0.00862869
-0.00168304
0.00859043
-0.0026115
0.00857251
-0.00335992
0.00859411
-0.00398947
0.00866887
-0.00443811
0.00880851
-0.00472192
0.00900193
-0.00479415
0.00924278
-0.00464434
-0.00446305
0.0095135
0.00836156
-0.000500219
0.00831526
-0.00163675
0.00826464
-0.00256089
0.00823055
-0.00332582
0.00823237
-0.00399128
0.00828819
-0.00449393
0.00841188
-0.00484562
0.00859677
-0.00497903
0.00884091
-0.00488848
-0.00474381
0.00912167
0.00806632
-0.000472973
0.00801317
-0.00158359
0.00795077
-0.00249849
0.00790071
-0.00327576
0.0078822
-0.00397277
0.00791769
-0.00452943
0.00802255
-0.00495047
0.00819657
-0.00515305
0.00844177
-0.00513369
-0.0050327
0.00873066
0.00778157
-0.000443615
0.0077221
-0.00152413
0.00764865
-0.00242504
0.00758302
-0.00321013
0.00754397
-0.00393371
0.00755787
-0.00454333
0.007641
-0.0050336
0.00780169
-0.00531374
0.00804459
-0.0053766
-0.00532687
0.00833877
0.00750695
-0.000412407
0.00744177
-0.00145895
0.00735813
-0.0023414
0.00727753
-0.00312953
0.00721805
-0.00387423
0.00720922
-0.0045345
0.00726791
-0.00509229
0.00741252
-0.00545835
0.00764834
-0.00561242
-0.0056226
0.00794407
0.00724212
-0.000379617
0.00717189
-0.00138872
0.00707903
-0.00224854
0.00698425
-0.00303475
0.0069048
-0.00379478
0.00687228
-0.00450198
0.00690411
-0.00512412
0.00702937
-0.00558361
0.00725175
-0.0058348
-0.00591545
0.0075446
0.00698676
-0.000345515
0.00691216
-0.00131412
0.00681116
-0.00214754
0.00670318
-0.00292677
0.00660455
-0.00369616
0.00654758
-0.004445
0.00655059
-0.00512714
0.00665246
-0.00568547
0.00685344
-0.00603578
-0.00620057
0.00713856
0.00674054
-0.000310379
0.00666231
-0.00123588
0.0065543
-0.00203953
0.0064343
-0.00280676
0.00631757
-0.00357943
0.0062357
-0.00436314
0.00620848
-0.00509991
0.00628205
-0.00575904
0.00645278
-0.00620652
-0.00647163
0.00672385
0.00650318
-0.000274493
0.00642207
-0.00115478
0.00630826
-0.00192571
0.00617757
-0.00267607
0.00604405
-0.0034459
0.00593723
-0.00425632
0.00587874
-0.00504142
0.00591822
-0.00579853
0.00605139
-0.00633969
-0.00671801
0.00629777
0.00627437
-0.000238157
0.00619118
-0.00107159
0.0060728
-0.00180732
0.00593288
-0.00253616
0.00578403
-0.00329705
0.00565251
-0.0041248
0.00556174
-0.00495065
0.00555974
-0.00579652
0.00565392
-0.00643387
-0.00692208
0.00585799
0.00605392
0.00596966
0.00584811
0.0057009
0.00553867
0.00538387
0.00526047
0.00521068
0.0052606
0.00540744
0.00952786
0.00171179
0.00159994
0.00914424
0.00168923
0.00916842
0.00157576
0.00919365
0.00146164
0.00922028
0.00134011
0.00121607
0.00876206
0.00165783
0.00879497
0.00154285
0.0088286
0.00142801
0.0088633
0.0013054
0.00118032
0.00837975
0.00161685
0.00842218
0.00150042
0.00846496
0.00138523
0.00850842
0.00126194
0.00113621
0.00799548
0.00156544
0.00804836
0.00144754
0.00810117
0.00133242
0.00815421
0.00120889
0.00108299
0.00760739
0.00150266
0.00767184
0.00138309
0.00773568
0.00126857
0.00779918
0.00114539
0.00101988
0.0072138
0.00142741
0.00729118
0.00130571
0.0073671
0.00119265
0.00744187
0.00107062
0.000946185
0.0068131
0.00133816
0.00690525
0.00121357
0.00699414
0.00110376
0.00708074
0.000984025
0.000861388
0.00640344
0.00123249
0.00651236
0.00110465
0.00661448
0.00100164
0.00671318
0.000885317
0.000764857
0.00598177
0.00110871
0.00611042
0.000976
0.00622531
0.000886752
0.00633682
0.000773807
0.000655339
0.00556416
0.00568733
0.00582142
0.00595005
)
;

boundaryField
{
    inlet
    {
        type            calculated;
        value           nonuniform List<scalar> 
21
(
-0.00353553
-0.00353553
-0.00353553
-0.00353553
-0.00353553
-0.00353553
-0.00353553
-0.00353553
-0.00353553
-0.00353553
-0.0086899
-0.00838644
-0.00809357
-0.00781093
-0.00753816
-0.00727491
-0.00702086
-0.00677568
-0.00653906
-0.00631071
-0.00609033
)
;
    }
    outlet
    {
        type            calculated;
        value           nonuniform 0();
    }
    cylinder
    {
        type            calculated;
        value           nonuniform 0();
    }
    top
    {
        type            symmetryPlane;
        value           nonuniform 0();
    }
    bottom
    {
        type            symmetryPlane;
        value           nonuniform 0();
    }
    defaultFaces
    {
        type            empty;
        value           nonuniform 0();
    }
    procBoundary6to0
    {
        type            processor;
        value           nonuniform List<scalar> 
16
(
0.000547377
0.00172198
0.00264976
0.00337784
0.00396786
0.00436335
0.00458228
0.00460072
0.00440349
0.00419233
-0.00172615
-0.00161606
0.00954398
-0.00148687
-0.00136674
-0.0012441
)
;
    }
    procBoundary6to1
    {
        type            processor;
        value           nonuniform List<scalar> 8(0.0092483 0.00889905 0.00855254 0.00820743 0.00786229 0.00751557 0.00716553 0.00680971);
    }
    procBoundary6to7
    {
        type            processor;
        value           nonuniform List<scalar> 
24
(
0.000991549
0.00108798
0.000122027
0.00122301
0.00132307
0.00019731
0.00146311
0.00156923
0.000261648
0.00171764
0.000272169
0.00187286
0.00199444
0.000312496
0.0021691
0.0023007
0.000354604
0.00249698
0.00264056
0.000391801
0.00285383
0.00300651
0.00644634
0.00607364
)
;
    }
    procBoundary6to12
    {
        type            processor;
        value           nonuniform List<scalar> 
35
(
-0.00118893
-0.00112064
-0.00117466
-0.00122841
0.00149876
-0.00127772
-0.00099097
-0.00105286
-0.00111409
0.000963958
-0.00117452
-0.000883304
-0.000949944
0.000515999
-0.0010169
-0.000669936
-0.000740643
-0.000811944
0.000240658
-0.000883901
-0.000490167
-0.000570561
-5.23227e-05
-0.000648247
0.000596443
0.000131077
-0.000270772
-0.0034073
-0.000547266
-0.000902217
-0.00131131
-0.00173919
-0.00223358
-0.0027754
-0.00318172
)
;
    }
    procBoundary6to13
    {
        type            processor;
        value           nonuniform List<scalar> 8(-0.000228129 0.000514289 -0.000175242 0.000649643 0.000746884 -7.27668e-06 0.000869756 6.4428e-05);
    }
}


// ************************************************************************* //
