/*--------------------------------*- C++ -*----------------------------------*\
  =========                 |
  \\      /  F ield         | OpenFOAM: The Open Source CFD Toolbox
   \\    /   O peration     | Website:  https://openfoam.org
    \\  /    A nd           | Version:  7
     \\/     M anipulation  |
\*---------------------------------------------------------------------------*/
FoamFile
{
    version     2.0;
    format      ascii;
    class       surfaceScalarField;
    location    "6";
    object      phi;
}
// * * * * * * * * * * * * * * * * * * * * * * * * * * * * * * * * * * * * * //

dimensions      [0 3 -1 0 0 0 0];

internalField   nonuniform List<scalar> 
613
(
3.27888e-05
-6.30291e-07
3.33603e-05
-5.71494e-07
3.38689e-05
-5.0862e-07
3.43135e-05
-4.44593e-07
-3.81732e-07
3.46953e-05
9.82898e-05
0.000100008
-2.28997e-06
0.000101535
-2.0349e-06
0.000102866
-1.77594e-06
-1.52234e-06
0.000104006
0.00016641
-5.17103e-06
0.000168958
-4.58228e-06
0.000171169
-3.98754e-06
-3.40769e-06
0.000173055
0.000232404
-9.23912e-06
0.000235976
-8.15403e-06
0.000239054
-7.06567e-06
-6.01111e-06
0.000241658
0.000297834
0.000302429
0.000306348
0.000309625
3.50126e-05
-3.17306e-07
3.52758e-05
-2.63176e-07
3.54895e-05
-2.13753e-07
3.56589e-05
-1.69395e-07
3.57891e-05
-1.30153e-07
3.58849e-05
-9.58366e-08
3.5951e-05
-6.60953e-08
3.59915e-05
-4.04921e-08
3.60101e-05
-1.85746e-08
3.601e-05
8.53845e-11
3.5994e-05
1.60095e-08
3.59645e-05
2.94631e-08
3.59237e-05
4.08192e-08
3.58733e-05
5.03797e-08
3.58149e-05
5.84053e-08
3.57498e-05
6.51174e-08
3.56791e-05
7.07047e-08
3.56037e-05
7.53284e-08
3.55246e-05
7.91262e-08
3.54424e-05
8.22156e-08
3.53577e-05
8.46973e-08
3.5271e-05
8.66574e-08
3.51829e-05
8.81701e-08
3.50936e-05
8.92993e-08
3.50035e-05
9.01001e-08
3.49129e-05
9.06204e-08
3.4822e-05
9.09017e-08
3.4731e-05
9.09801e-08
3.46401e-05
9.0887e-08
3.45494e-05
9.06496e-08
3.44591e-05
9.02919e-08
3.43693e-05
8.98347e-08
3.428e-05
8.92959e-08
3.41913e-05
8.86915e-08
3.41033e-05
8.80349e-08
3.40159e-05
8.73382e-08
3.39293e-05
8.66117e-08
3.38435e-05
8.58642e-08
3.37584e-05
8.51033e-08
3.3674e-05
8.43357e-08
3.35905e-05
8.3567e-08
3.35077e-05
8.28019e-08
3.34256e-05
8.20443e-08
3.33443e-05
8.12977e-08
3.32638e-05
8.05648e-08
3.31839e-05
7.98479e-08
3.31048e-05
7.91487e-08
3.30263e-05
7.84688e-08
3.29485e-05
7.7809e-08
3.28713e-05
7.71703e-08
3.27948e-05
7.65532e-08
3.27188e-05
7.59578e-08
3.26434e-05
7.53844e-08
3.25686e-05
7.48329e-08
3.24943e-05
7.43029e-08
3.24205e-05
7.37943e-08
3.23472e-05
7.33066e-08
3.22743e-05
7.28391e-08
3.22019e-05
7.23915e-08
3.213e-05
7.1963e-08
3.20584e-05
7.15529e-08
3.19873e-05
7.11605e-08
3.19165e-05
7.07851e-08
3.18461e-05
7.04258e-08
7.0082e-08
0.000104952
-1.26325e-06
0.000105735
-1.04584e-06
0.000106369
-8.47735e-07
0.00010687
-6.70303e-07
0.000107253
-5.13636e-07
0.000107534
-3.76849e-07
0.000107727
-2.58448e-07
0.000107843
-1.56617e-07
0.000107894
-6.95174e-08
0.000107889
4.59221e-09
0.000107838
6.78687e-08
0.000107746
1.21279e-07
0.00010762
1.66367e-07
0.000107466
2.04345e-07
0.000107288
2.36243e-07
0.000107091
2.62936e-07
0.000106876
2.85176e-07
0.000106648
3.03601e-07
0.000106408
3.18758e-07
0.000106159
3.31112e-07
0.000105903
3.4106e-07
0.000105641
3.48945e-07
0.000105374
3.55058e-07
0.000105103
3.59653e-07
0.000104831
3.62948e-07
0.000104556
3.65132e-07
0.000104281
3.66368e-07
0.000104005
3.66799e-07
0.000103729
3.66549e-07
0.000103454
3.65726e-07
0.00010318
3.64423e-07
0.000102907
3.62722e-07
0.000102636
3.60694e-07
0.000102366
3.58401e-07
0.000102098
3.55897e-07
0.000101832
3.53229e-07
0.000101568
3.50436e-07
0.000101307
3.47555e-07
0.000101047
3.44614e-07
0.00010079
3.4164e-07
0.000100535
3.38655e-07
0.000100282
3.35677e-07
0.000100031
3.32722e-07
9.97826e-05
3.29803e-07
9.95363e-05
3.26932e-07
9.9292e-05
3.24116e-07
9.90498e-05
3.21364e-07
9.88096e-05
3.18681e-07
9.85713e-05
3.16071e-07
9.8335e-05
3.13538e-07
9.81004e-05
3.11084e-07
9.78677e-05
3.08709e-07
9.76366e-05
3.06415e-07
9.74073e-05
3.04202e-07
9.71795e-05
3.02069e-07
9.69533e-05
3.00014e-07
9.67286e-05
2.98037e-07
9.65053e-05
2.96135e-07
9.62833e-05
2.94307e-07
9.60628e-05
2.9255e-07
9.58434e-05
2.90862e-07
9.56254e-05
2.89239e-07
9.54085e-05
2.8768e-07
9.51927e-05
2.86182e-07
2.84741e-07
0.00017461
-2.81857e-06
0.00017589
-2.32537e-06
0.00017692
-1.87768e-06
0.000177728
-1.47821e-06
0.000178341
-1.12673e-06
0.000178785
-8.20775e-07
0.000179083
-5.56586e-07
0.000179256
-3.29796e-07
0.000179322
-1.36121e-07
0.000179298
2.86519e-08
0.000179197
1.69146e-07
0.000179031
2.87736e-07
0.000178809
3.87871e-07
0.000178541
4.72277e-07
0.000178234
5.43242e-07
0.000177894
6.0271e-07
0.000177527
6.52344e-07
0.000177137
6.9356e-07
0.000176729
7.27562e-07
0.000176304
7.55378e-07
0.000175867
7.77884e-07
0.000175421
7.95831e-07
0.000174966
8.09864e-07
0.000174505
8.2054e-07
0.000174039
8.28338e-07
0.000173571
8.33672e-07
0.0001731
8.36903e-07
0.000172629
8.38343e-07
0.000172157
8.38263e-07
0.000171686
8.369e-07
0.000171216
8.34458e-07
0.000170748
8.31116e-07
0.000170281
8.27031e-07
0.000169817
8.22337e-07
0.000169356
8.17151e-07
0.000168898
8.11576e-07
0.000168442
8.057e-07
0.00016799
7.99599e-07
0.000167542
7.93339e-07
0.000167096
7.86976e-07
0.000166654
7.80558e-07
0.000166216
7.74128e-07
0.000165781
7.67718e-07
0.000165349
7.6136e-07
0.000164921
7.55076e-07
0.000164496
7.48888e-07
0.000164075
7.42812e-07
0.000163657
7.36861e-07
0.000163242
7.31045e-07
0.00016283
7.25372e-07
0.000162421
7.19847e-07
0.000162015
7.14475e-07
0.000161613
7.09258e-07
0.000161213
7.04197e-07
0.000160815
6.99291e-07
0.000160421
6.94538e-07
0.000160029
6.89937e-07
0.00015964
6.85484e-07
0.000159253
6.81176e-07
0.000158868
6.7701e-07
0.000158486
6.72979e-07
0.000158106
6.6908e-07
0.000157729
6.65308e-07
0.000157353
6.61657e-07
6.58122e-07
0.000243787
-4.94816e-06
0.000245523
-4.06123e-06
0.000246906
-3.26058e-06
0.000247978
-2.55003e-06
0.000248779
-1.92796e-06
0.000249347
-1.38876e-06
0.000249715
-9.24721e-07
0.000249913
-5.27412e-07
0.000249965
-1.88749e-07
0.000249894
9.95304e-08
0.000249719
3.44674e-07
0.000249455
5.5177e-07
0.000249116
7.26781e-07
0.000248714
8.74503e-07
0.000248258
9.98925e-07
0.000247757
1.10343e-06
0.000247219
1.19092e-06
0.000246649
1.26382e-06
0.000246052
1.32423e-06
0.000245433
1.37392e-06
0.000244797
1.41439e-06
0.000244146
1.44693e-06
0.000243483
1.47267e-06
0.000242811
1.49255e-06
0.000242132
1.5074e-06
0.000241448
1.51793e-06
0.00024076
1.52476e-06
0.00024007
1.52843e-06
0.000239378
1.5294e-06
0.000238687
1.52808e-06
0.000237997
1.52482e-06
0.000237308
1.51993e-06
0.000236621
1.51367e-06
0.000235938
1.50628e-06
0.000235257
1.49796e-06
0.000234579
1.48889e-06
0.000233906
1.47922e-06
0.000233236
1.46908e-06
0.000232571
1.45858e-06
0.00023191
1.44782e-06
0.000231254
1.4369e-06
0.000230602
1.42587e-06
0.000229955
1.41481e-06
0.000229313
1.40376e-06
0.000228675
1.39277e-06
0.000228042
1.38188e-06
0.000227414
1.37111e-06
0.00022679
1.3605e-06
0.000226171
1.35006e-06
0.000225557
1.33981e-06
0.000224947
1.32976e-06
0.000224341
1.31992e-06
0.00022374
1.3103e-06
0.000223144
1.3009e-06
0.000222551
1.29172e-06
0.000221963
1.28276e-06
0.000221379
1.27403e-06
0.000220799
1.26552e-06
0.000220223
1.25722e-06
0.000219651
1.24914e-06
0.000219082
1.24126e-06
0.000218518
1.23358e-06
0.000217957
0.0002174
0.000312273
0.000314402
0.000316072
0.000317341
0.000318268
0.000318901
0.000319284
0.000319455
0.000319446
0.000319284
0.000318993
0.000318592
0.000318098
0.000317524
0.000316884
0.000316186
0.00031544
0.000314653
0.000313832
0.000312982
0.000312109
0.000311216
0.000310306
0.000309384
0.000308452
0.000307512
0.000306566
0.000305616
0.000304664
0.000303712
0.000302759
0.000301808
0.000300859
0.000299913
0.00029897
0.000298032
0.000297098
0.00029617
0.000295246
0.000294329
0.000293417
0.000292512
0.000291613
0.00029072
0.000289834
0.000288954
0.000288081
0.000287214
0.000286355
0.000285502
0.000284655
0.000283816
0.000282982
0.000282156
0.000281336
0.000280522
0.000279715
0.000278914
0.00027812
0.000277331
0.000276549
)
;

boundaryField
{
    inlet
    {
        type            calculated;
        value           nonuniform 0();
    }
    outlet
    {
        type            calculated;
        value           nonuniform 0();
    }
    wall
    {
        type            calculated;
        value           nonuniform 0();
    }
    wedge1
    {
        type            wedge;
        value           nonuniform List<scalar> 
344
(
1.7075e-16
1.43207e-16
1.56544e-16
1.3141e-16
1.32996e-15
-1.98954e-16
-3.81172e-16
1.40879e-16
1.18318e-16
1.19031e-15
-1.78378e-16
-3.39403e-16
1.24511e-16
1.04598e-16
1.04604e-15
-1.57165e-16
-2.96822e-16
1.08188e-16
9.09175e-17
9.02995e-16
-1.36207e-16
-2.55137e-16
9.10195e-17
7.65197e-17
7.54708e-16
-1.14416e-16
-2.12415e-16
7.65904e-17
6.43416e-17
6.29666e-16
-9.61281e-17
-1.76681e-16
6.31248e-17
5.3131e-17
5.15236e-16
-7.93945e-17
-1.44276e-16
5.09685e-17
4.30206e-17
4.12131e-16
-6.43631e-17
-1.154e-16
4.01567e-17
3.39005e-17
3.20805e-16
-5.09983e-17
-8.99503e-17
3.07244e-17
2.58587e-17
2.40718e-16
-3.93024e-17
-6.78159e-17
2.23131e-17
1.88507e-17
1.71355e-16
-2.90687e-17
-4.86788e-17
1.50262e-17
1.28539e-17
1.11475e-16
-2.02593e-17
-3.22569e-17
8.79351e-18
7.59378e-18
6.02591e-17
-1.26769e-17
-1.81599e-17
3.55205e-18
3.01826e-18
1.64328e-17
-6.18437e-18
-6.11498e-18
-1.06777e-18
-8.3256e-19
-1.93913e-17
-5.78156e-19
4.07023e-18
-5.0304e-18
-4.00628e-18
-4.92764e-17
4.13522e-18
1.26405e-17
-8.33505e-18
-6.8114e-18
-7.48375e-17
8.18866e-18
2.00212e-17
-1.09613e-17
-9.24344e-18
-9.67593e-17
1.16341e-17
2.63443e-17
-1.32635e-17
-1.12283e-17
-1.1539e-16
1.45948e-17
3.17419e-17
-1.54386e-17
-1.28613e-17
-1.31249e-16
1.70977e-17
3.63211e-17
-1.70881e-17
-1.42224e-17
-1.4464e-16
1.92531e-17
4.02415e-17
-1.83513e-17
-1.55191e-17
-1.55971e-16
2.10511e-17
4.36044e-17
-1.94495e-17
-1.6504e-17
-1.65473e-16
2.25776e-17
4.64038e-17
-2.06167e-17
-1.7313e-17
-1.73349e-16
2.38625e-17
4.87777e-17
-2.12937e-17
-1.79263e-17
-1.79965e-16
2.4901e-17
5.07339e-17
-2.19076e-17
-1.84315e-17
-1.85348e-16
2.57827e-17
5.237e-17
-2.23362e-17
-1.89604e-17
-1.89679e-16
2.6494e-17
5.37625e-17
-2.26451e-17
-1.92881e-17
-1.93155e-16
2.7094e-17
5.48643e-17
-2.30794e-17
-1.94756e-17
-1.95815e-16
2.75374e-17
5.57279e-17
-2.32556e-17
-1.96123e-17
-1.97863e-16
2.79158e-17
5.64172e-17
-2.32862e-17
-1.9824e-17
-1.99289e-16
2.81818e-17
5.69805e-17
-2.3322e-17
-1.9874e-17
-2.00243e-16
2.83755e-17
5.73471e-17
-2.34654e-17
-1.9848e-17
-2.00633e-16
2.84822e-17
5.7573e-17
-2.33822e-17
-1.97868e-17
-2.00666e-16
2.85579e-17
5.76903e-17
-2.32649e-17
-1.98034e-17
-2.00327e-16
2.85636e-17
5.77501e-17
-2.3153e-17
-1.97204e-17
-1.99745e-16
2.85372e-17
5.77056e-17
-2.31204e-17
-1.95875e-17
-1.98898e-16
2.84664e-17
5.75742e-17
-2.29518e-17
-1.94368e-17
-1.9789e-16
2.83836e-17
5.73955e-17
-2.27415e-17
-1.93501e-17
-1.96705e-16
2.82618e-17
5.71939e-17
-2.25319e-17
-1.9204e-17
-1.95415e-16
2.81323e-17
5.69315e-17
-2.24347e-17
-1.90257e-17
-1.94013e-16
2.79752e-17
5.66256e-17
-2.22288e-17
-1.88335e-17
-1.92559e-16
2.78091e-17
5.63019e-17
-2.19953e-17
-1.8709e-17
-1.91039e-16
2.76307e-17
5.59709e-17
-2.17685e-17
-1.85336e-17
-1.89488e-16
2.74475e-17
5.56074e-17
-2.1628e-17
-1.83445e-17
-1.87906e-16
2.72526e-17
5.52256e-17
-2.14064e-17
-1.81659e-17
-1.86327e-16
2.70565e-17
5.48378e-17
-2.11872e-17
-1.8022e-17
-1.84737e-16
2.68555e-17
5.44554e-17
-2.09786e-17
-1.78488e-17
-1.83162e-16
2.66549e-17
5.40527e-17
-2.08202e-17
-1.76739e-17
-1.81587e-16
2.64549e-17
5.36507e-17
-2.06124e-17
-1.75043e-17
-1.8005e-16
2.62532e-17
5.32481e-17
-2.04221e-17
-1.73367e-17
-1.78534e-16
2.60565e-17
5.2848e-17
-2.02338e-17
-1.71875e-17
-1.77043e-16
2.58605e-17
5.24539e-17
-2.00474e-17
-1.70311e-17
-1.75589e-16
2.56673e-17
5.20597e-17
-1.98856e-17
-1.68808e-17
-1.74167e-16
2.54788e-17
5.16697e-17
-1.97124e-17
-1.67335e-17
-1.72784e-16
2.52919e-17
5.12848e-17
-1.95568e-17
-1.65925e-17
-1.7144e-16
2.51111e-17
5.09053e-17
-1.93987e-17
-1.64539e-17
-1.70136e-16
2.49313e-17
5.05308e-17
-1.92438e-17
-1.633e-17
-1.68875e-16
2.47593e-17
5.01657e-17
-1.90957e-17
-1.62048e-17
-1.67649e-16
2.45885e-17
4.98065e-17
-1.89719e-17
-1.60734e-17
-1.66465e-16
2.44229e-17
4.94483e-17
-1.8841e-17
-1.59548e-17
-1.65321e-16
2.42587e-17
4.91011e-17
-1.869e-17
-1.58531e-17
-1.64217e-16
2.41044e-17
4.87651e-17
-1.85669e-17
-1.57492e-17
-1.63145e-16
2.39499e-17
4.84337e-17
-1.8473e-17
-1.56289e-17
-1.62119e-16
2.38036e-17
4.81004e-17
-1.837e-17
-1.55279e-17
-1.6112e-16
2.36554e-17
4.77806e-17
-1.82271e-17
-1.54435e-17
-1.60165e-16
2.35188e-17
4.74737e-17
-1.81259e-17
-1.53598e-17
-1.59235e-16
2.33752e-17
-1.804e-17
-1.52555e-17
-1.58346e-16
2.32466e-17
-1.79338e-17
-1.51852e-17
-1.57475e-16
2.31119e-17
)
;
    }
    wedge2
    {
        type            wedge;
        value           nonuniform List<scalar> 
344
(
1.71548e-16
1.456e-16
1.57429e-16
1.3377e-16
1.33471e-15
-1.93228e-16
-3.75631e-16
1.41779e-16
1.20674e-16
1.19496e-15
-1.72839e-16
-3.34015e-16
1.25473e-16
1.07041e-16
1.05052e-15
-1.51815e-16
-2.91598e-16
1.09149e-16
9.33844e-17
9.07383e-16
-1.31022e-16
-2.50044e-16
9.20403e-17
7.90184e-17
7.58817e-16
-1.09524e-16
-2.07607e-16
7.74713e-17
6.68604e-17
6.33733e-16
-9.1381e-17
-1.72025e-16
6.42051e-17
5.56419e-17
5.19077e-16
-7.4826e-17
-1.39774e-16
5.21165e-17
4.53934e-17
4.15935e-16
-5.99083e-17
-1.10976e-16
4.12695e-17
3.63114e-17
3.24391e-16
-4.67214e-17
-8.57141e-17
3.1593e-17
2.82792e-17
2.44291e-16
-3.51434e-17
-6.37289e-17
2.33074e-17
2.12264e-17
1.74643e-16
-2.5147e-17
-4.47617e-17
1.61213e-17
1.5012e-17
1.14727e-16
-1.64766e-17
-2.84405e-17
9.87714e-18
9.72707e-18
6.32923e-17
-9.02862e-18
-1.45104e-17
4.41006e-18
5.23613e-18
1.94729e-17
-2.63015e-18
-2.61512e-18
-1.26067e-19
1.32212e-18
-1.67462e-17
2.7596e-18
7.36283e-18
-3.9292e-18
-2.11288e-18
-4.66555e-17
7.37727e-18
1.58893e-17
-7.23921e-18
-4.9438e-18
-7.23725e-17
1.12922e-17
2.31423e-17
-1.02239e-17
-7.3054e-18
-9.42978e-17
1.4645e-17
2.93315e-17
-1.26773e-17
-9.39116e-18
-1.13054e-16
1.74734e-17
3.46172e-17
-1.44883e-17
-1.12026e-17
-1.28974e-16
1.98879e-17
3.91424e-17
-1.61933e-17
-1.27472e-17
-1.42501e-16
2.18967e-17
4.29626e-17
-1.77311e-17
-1.38835e-17
-1.53878e-16
2.36122e-17
4.61603e-17
-1.89694e-17
-1.49309e-17
-1.6344e-16
2.50364e-17
4.89009e-17
-1.97041e-17
-1.58057e-17
-1.71472e-16
2.62156e-17
5.11822e-17
-2.05878e-17
-1.65754e-17
-1.78031e-16
2.72198e-17
5.31131e-17
-2.12302e-17
-1.71963e-17
-1.83458e-16
2.80159e-17
5.4697e-17
-2.17959e-17
-1.7563e-17
-1.87883e-16
2.86661e-17
5.59438e-17
-2.2263e-17
-1.79401e-17
-1.91388e-16
2.91534e-17
5.69764e-17
-2.23969e-17
-1.82908e-17
-1.94171e-16
2.95606e-17
5.7808e-17
-2.26299e-17
-1.85508e-17
-1.96236e-16
2.98276e-17
5.84328e-17
-2.28662e-17
-1.8608e-17
-1.9777e-16
3.003e-17
5.88507e-17
-2.29738e-17
-1.87224e-17
-1.98707e-16
3.01494e-17
5.91665e-17
-2.28731e-17
-1.88208e-17
-1.9922e-16
3.02199e-17
5.93599e-17
-2.29094e-17
-1.88752e-17
-1.99272e-16
3.02069e-17
5.9438e-17
-2.2906e-17
-1.87895e-17
-1.99019e-16
3.01673e-17
5.93852e-17
-2.28325e-17
-1.87472e-17
-1.98449e-16
3.00779e-17
5.92764e-17
-2.26355e-17
-1.87097e-17
-1.97681e-16
2.99646e-17
5.91197e-17
-2.25295e-17
-1.86516e-17
-1.96696e-16
2.98066e-17
5.88962e-17
-2.24318e-17
-1.85015e-17
-1.95581e-16
2.96408e-17
5.86017e-17
-2.23047e-17
-1.83854e-17
-1.94324e-16
2.94441e-17
5.82892e-17
-2.20495e-17
-1.82828e-17
-1.92987e-16
2.92443e-17
5.79559e-17
-2.18855e-17
-1.81791e-17
-1.91554e-16
2.90289e-17
5.75873e-17
-2.17384e-17
-1.79986e-17
-1.90078e-16
2.88068e-17
5.71846e-17
-2.1577e-17
-1.78613e-17
-1.88557e-16
2.85753e-17
5.67806e-17
-2.13278e-17
-1.77334e-17
-1.8702e-16
2.83456e-17
5.63701e-17
-2.11583e-17
-1.75933e-17
-1.85457e-16
2.81101e-17
5.59473e-17
-2.09881e-17
-1.74193e-17
-1.83902e-16
2.78763e-17
5.55062e-17
-2.0811e-17
-1.72765e-17
-1.82346e-16
2.76408e-17
5.50773e-17
-2.059e-17
-1.71391e-17
-1.80819e-16
2.74059e-17
5.46443e-17
-2.0425e-17
-1.70012e-17
-1.79296e-16
2.71756e-17
5.42121e-17
-2.02506e-17
-1.68672e-17
-1.77802e-16
2.69449e-17
5.37801e-17
-2.00833e-17
-1.67215e-17
-1.76342e-16
2.67189e-17
5.33484e-17
-1.99237e-17
-1.65904e-17
-1.74911e-16
2.64968e-17
5.2924e-17
-1.975e-17
-1.64611e-17
-1.73518e-16
2.6278e-17
5.25051e-17
-1.95983e-17
-1.63369e-17
-1.72159e-16
2.60655e-17
5.20918e-17
-1.94399e-17
-1.6215e-17
-1.70839e-16
2.58555e-17
5.16854e-17
-1.92951e-17
-1.60991e-17
-1.69556e-16
2.56536e-17
5.12867e-17
-1.91582e-17
-1.59774e-17
-1.6831e-16
2.54533e-17
5.08924e-17
-1.90256e-17
-1.58657e-17
-1.67106e-16
2.52611e-17
5.05066e-17
-1.88796e-17
-1.57689e-17
-1.65941e-16
2.50732e-17
5.01336e-17
-1.87514e-17
-1.56677e-17
-1.64815e-16
2.4893e-17
4.9765e-17
-1.86542e-17
-1.5558e-17
-1.63724e-16
2.47125e-17
4.93994e-17
-1.85393e-17
-1.54587e-17
-1.62677e-16
2.45418e-17
4.90439e-17
-1.84051e-17
-1.5384e-17
-1.61658e-16
2.43715e-17
4.8705e-17
-1.82891e-17
-1.52975e-17
-1.60682e-16
2.42121e-17
4.83671e-17
-1.82235e-17
-1.5202e-17
-1.5973e-16
2.40499e-17
4.80302e-17
-1.81246e-17
-1.51126e-17
-1.58821e-16
2.39029e-17
-1.8019e-17
-1.50513e-17
-1.57935e-16
2.37492e-17
-1.79418e-17
-1.49619e-17
-1.57091e-16
2.36092e-17
)
;
    }
    axis
    {
        type            empty;
        value           nonuniform 0();
    }
    procBoundary3to2
    {
        type            processor;
        value           nonuniform List<scalar> 5(-3.21585e-05 -9.63908e-05 -2.52929e-06 -0.000163529 -0.000228336);
    }
    procBoundary3to4
    {
        type            processor;
        value           nonuniform List<scalar> 4(3.1776e-05 9.49781e-05 0.00015698 0.000216846);
    }
    procBoundary3to8
    {
        type            processor;
        value           uniform -0.000292549;
    }
    procBoundary3to9
    {
        type            processor;
        value           nonuniform List<scalar> 
70
(
-1.45242e-05
-1.27488e-05
-1.09844e-05
-9.28833e-06
1.22609e-06
1.21879e-06
1.21167e-06
-7.5961e-06
-6.1902e-06
-4.93017e-06
-3.81992e-06
-2.85421e-06
-2.02156e-06
-1.30775e-06
-6.98542e-07
-1.80417e-07
2.61458e-07
6.35957e-07
9.52808e-07
1.22106e-06
1.44798e-06
1.63963e-06
1.80115e-06
1.9369e-06
2.05057e-06
2.14527e-06
2.22365e-06
2.28799e-06
2.34021e-06
2.38199e-06
2.41475e-06
2.43973e-06
2.458e-06
2.4705e-06
2.47802e-06
2.48127e-06
2.48087e-06
2.47734e-06
2.47116e-06
2.46272e-06
2.45239e-06
2.44047e-06
2.42723e-06
2.4129e-06
2.3977e-06
2.3818e-06
2.36535e-06
2.34849e-06
2.33134e-06
2.31399e-06
2.29653e-06
2.27903e-06
2.26155e-06
2.24416e-06
2.22688e-06
2.20977e-06
2.19285e-06
2.17614e-06
2.15966e-06
2.14344e-06
2.12747e-06
2.11178e-06
2.09637e-06
2.08123e-06
2.06637e-06
2.05179e-06
2.03749e-06
2.02346e-06
0.000275773
2.00969e-06
)
;
    }
}


// ************************************************************************* //
