/*--------------------------------*- C++ -*----------------------------------*\
  =========                 |
  \\      /  F ield         | OpenFOAM: The Open Source CFD Toolbox
   \\    /   O peration     | Website:  https://openfoam.org
    \\  /    A nd           | Version:  7
     \\/     M anipulation  |
\*---------------------------------------------------------------------------*/
FoamFile
{
    version     2.0;
    format      ascii;
    class       surfaceScalarField;
    location    "36.000594";
    object      phi;
}
// * * * * * * * * * * * * * * * * * * * * * * * * * * * * * * * * * * * * * //

dimensions      [0 3 -1 0 0 0 0];

internalField   nonuniform List<scalar> 
11438
(
0.000317805
0.000450465
0.000219659
0.000319641
0.000137442
0.000220029
6.60021e-05
0.000152908
0.000119131
0.0164981
-9.5464e-06
0.0165076
-9.5483e-06
0.0165172
-9.5391e-06
0.0165267
-9.51817e-06
0.0165362
-9.4849e-06
0.0165456
-9.43866e-06
0.016555
-9.37884e-06
0.0165643
-9.30484e-06
0.0165735
-9.21606e-06
0.0165826
-9.11193e-06
0.0165916
-8.99189e-06
0.0166005
-8.85541e-06
0.0166092
-8.70199e-06
0.0166177
-8.53117e-06
0.0166261
-8.34251e-06
0.0166342
-8.13564e-06
0.0166421
-7.91022e-06
0.0166498
-7.66599e-06
0.0166572
-7.40274e-06
0.0166643
-7.12031e-06
0.0166711
-6.81864e-06
0.0166776
-6.49774e-06
0.0166838
-6.1577e-06
0.0166896
-5.7987e-06
0.016695
-5.42101e-06
0.0167
-5.025e-06
0.0167046
-4.61113e-06
0.0167088
-4.17997e-06
0.0167125
-3.73219e-06
0.0167158
-3.26855e-06
0.0167186
-2.78993e-06
0.0167209
-2.2973e-06
0.0167227
-1.79171e-06
0.016724
-1.27433e-06
0.0167247
-7.46394e-07
0.0167249
-2.09229e-07
0.0167246
3.35774e-07
0.0167237
8.87162e-07
0.0167222
1.44343e-06
0.0167202
2.00304e-06
0.0167177
2.56442e-06
0.0167146
3.12599e-06
0.0167109
3.68618e-06
0.0167066
4.24343e-06
0.0167018
4.79623e-06
0.0166965
5.3431e-06
0.0166906
5.88266e-06
0.0166842
6.41358e-06
0.0166773
6.93464e-06
0.0166698
7.44474e-06
0.0166619
7.94289e-06
0.0166534
8.42823e-06
0.0166445
8.89999e-06
0.0166352
9.35767e-06
0.0166254
9.8005e-06
0.0166152
1.02288e-05
0.0166045
1.06404e-05
0.0165935
1.10398e-05
0.0165821
1.14147e-05
0.0165703
1.17926e-05
0.0165582
1.21082e-05
0.0165457
1.2498e-05
0.016533
1.26734e-05
1.31605e-05
0.0161735
-1.89321e-05
0.0161829
-1.89343e-05
0.0161923
-1.89144e-05
0.0162017
-1.88712e-05
0.016211
-1.88036e-05
0.0162202
-1.87102e-05
0.0162295
-1.85899e-05
0.0162386
-1.84414e-05
0.0162476
-1.82636e-05
0.0162566
-1.80554e-05
0.0162654
-1.78156e-05
0.0162741
-1.75433e-05
0.0162826
-1.72373e-05
0.016291
-1.68968e-05
0.0162992
-1.6521e-05
0.0163071
-1.61091e-05
0.0163149
-1.56604e-05
0.0163224
-1.51745e-05
0.0163297
-1.46509e-05
0.0163366
-1.40893e-05
0.0163433
-1.34896e-05
0.0163496
-1.28518e-05
0.0163557
-1.21762e-05
0.0163613
-1.1463e-05
0.0163666
-1.07129e-05
0.0163715
-9.92663e-06
0.016376
-9.10504e-06
0.0163801
-8.24929e-06
0.0163837
-7.36072e-06
0.0163869
-6.44087e-06
0.0163896
-5.49148e-06
0.0163918
-4.51446e-06
0.0163935
-3.51195e-06
0.0163947
-2.48623e-06
0.0163954
-1.43979e-06
0.0163956
-3.75237e-07
0.0163952
7.04655e-07
0.0163943
1.797e-06
0.0163929
2.89883e-06
0.0163909
4.00708e-06
0.0163883
5.11864e-06
0.0163852
6.23039e-06
0.0163815
7.33922e-06
0.0163773
8.44205e-06
0.0163726
9.53589e-06
0.0163673
1.06178e-05
0.0163615
1.16851e-05
0.0163552
1.27352e-05
0.0163484
1.37656e-05
0.016341
1.47741e-05
0.0163332
1.5759e-05
0.0163249
1.67183e-05
0.0163162
1.76508e-05
0.016307
1.85553e-05
0.0162974
1.94305e-05
0.0162873
2.02767e-05
0.0162769
2.10909e-05
0.016266
2.1878e-05
0.0162548
2.26247e-05
0.0162433
2.33591e-05
0.0162313
2.40162e-05
0.0162191
2.47251e-05
0.0162065
2.52418e-05
2.59605e-05
0.0158588
-2.81782e-05
0.015868
-2.81787e-05
0.0158772
-2.81461e-05
0.0158864
-2.80788e-05
0.0158956
-2.79748e-05
0.0159047
-2.78324e-05
0.0159138
-2.76498e-05
0.0159228
-2.74252e-05
0.0159317
-2.71569e-05
0.0159405
-2.68431e-05
0.0159491
-2.64823e-05
0.0159577
-2.6073e-05
0.015966
-2.56136e-05
0.0159742
-2.51028e-05
0.0159823
-2.45394e-05
0.0159901
-2.39223e-05
0.0159977
-2.32505e-05
0.016005
-2.25233e-05
0.0160121
-2.174e-05
0.0160189
-2.09003e-05
0.0160254
-2.00041e-05
0.0160316
-1.90514e-05
0.0160375
-1.80424e-05
0.016043
-1.69779e-05
0.0160481
-1.58586e-05
0.0160529
-1.46856e-05
0.0160573
-1.34604e-05
0.0160612
-1.21847e-05
0.0160647
-1.08605e-05
0.0160677
-9.49013e-06
0.0160703
-8.07615e-06
0.0160724
-6.62147e-06
0.0160741
-5.12928e-06
0.0160752
-3.603e-06
0.0160758
-2.04633e-06
0.0160759
-4.63184e-07
0.0160754
1.14231e-06
0.0160745
2.76587e-06
0.016073
4.40305e-06
0.0160709
6.04931e-06
0.0160683
7.70003e-06
0.0160652
9.35057e-06
0.0160616
1.09963e-05
0.0160574
1.26327e-05
0.0160526
1.42554e-05
0.0160474
1.58599e-05
0.0160416
1.74423e-05
0.0160354
1.89988e-05
0.0160286
2.05258e-05
0.0160214
2.20201e-05
0.0160137
2.34789e-05
0.0160055
2.48997e-05
0.0159968
2.62804e-05
0.0159878
2.76196e-05
0.0159783
2.89154e-05
0.0159684
3.01678e-05
0.0159581
3.13735e-05
0.0159475
3.25379e-05
0.0159364
3.36461e-05
0.0159251
3.47287e-05
0.0159134
3.57169e-05
0.0159014
3.67437e-05
0.015889
3.75622e-05
3.85533e-05
0.0155533
-3.73063e-05
0.0155624
-3.73021e-05
0.0155715
-3.72539e-05
0.0155806
-3.71594e-05
0.0155896
-3.70161e-05
0.0155986
-3.68216e-05
0.0156075
-3.65737e-05
0.0156164
-3.627e-05
0.0156251
-3.59081e-05
0.0156338
-3.5486e-05
0.0156423
-3.50014e-05
0.0156507
-3.44524e-05
0.0156589
-3.38371e-05
0.0156669
-3.31536e-05
0.0156748
-3.24005e-05
0.0156824
-3.15762e-05
0.0156899
-3.06795e-05
0.0156971
-2.97096e-05
0.015704
-2.86656e-05
0.0157106
-2.75471e-05
0.015717
-2.63539e-05
0.015723
-2.50861e-05
0.0157287
-2.37443e-05
0.0157341
-2.23292e-05
0.0157391
-2.0842e-05
0.0157437
-1.92842e-05
0.0157479
-1.76579e-05
0.0157516
-1.59651e-05
0.015755
-1.42088e-05
0.0157579
-1.2392e-05
0.0157603
-1.05182e-05
0.0157623
-8.59127e-06
0.0157638
-6.61541e-06
0.0157648
-4.59523e-06
0.0157653
-2.53564e-06
0.0157652
-4.41843e-07
0.0157647
1.68069e-06
0.0157636
3.82627e-06
0.0157621
5.98902e-06
0.0157599
8.16293e-06
0.0157573
1.03419e-05
0.0157541
1.25198e-05
0.0157504
1.46906e-05
0.0157462
1.68483e-05
0.0157415
1.8987e-05
0.0157363
2.11012e-05
0.0157305
2.31854e-05
0.0157243
2.52348e-05
0.0157176
2.72447e-05
0.0157104
2.9211e-05
0.0157027
3.11299e-05
0.0156946
3.29985e-05
0.0156861
3.48139e-05
0.0156771
3.65743e-05
0.0156678
3.82775e-05
0.015658
3.99235e-05
0.0156479
4.15086e-05
0.0156374
4.30386e-05
0.0156265
4.44974e-05
0.0156153
4.59179e-05
0.0156038
4.72274e-05
0.015592
4.85635e-05
0.0155799
4.96724e-05
5.0939e-05
0.0152566
-4.63368e-05
0.0152656
-4.63239e-05
0.0152746
-4.6256e-05
0.0152836
-4.61302e-05
0.0152925
-4.59433e-05
0.0153014
-4.56926e-05
0.0153102
-4.53752e-05
0.0153189
-4.4988e-05
0.0153275
-4.45284e-05
0.015336
-4.39937e-05
0.0153444
-4.33811e-05
0.0153527
-4.26883e-05
0.0153607
-4.1913e-05
0.0153686
-4.10529e-05
0.0153763
-4.01062e-05
0.0153838
-3.90711e-05
0.0153911
-3.79463e-05
0.0153981
-3.67305e-05
0.0154049
-3.54229e-05
0.0154113
-3.40231e-05
0.0154175
-3.25308e-05
0.0154234
-3.09463e-05
0.0154289
-2.92702e-05
0.0154341
-2.75038e-05
0.0154389
-2.56484e-05
0.0154433
-2.37061e-05
0.0154473
-2.16794e-05
0.0154509
-1.95711e-05
0.0154541
-1.73848e-05
0.0154568
-1.51244e-05
0.0154591
-1.27943e-05
0.0154609
-1.03993e-05
0.0154623
-7.94471e-06
0.0154631
-5.43635e-06
0.0154634
-2.88031e-06
0.0154633
-2.8308e-07
0.0154626
2.3485e-06
0.0154614
5.00738e-06
0.0154597
7.68625e-06
0.0154575
1.03777e-05
0.0154548
1.30741e-05
0.0154515
1.57679e-05
0.0154478
1.84517e-05
0.0154435
2.1118e-05
0.0154387
2.37597e-05
0.0154335
2.63699e-05
0.0154277
2.8942e-05
0.0154215
3.147e-05
0.0154148
3.39483e-05
0.0154076
3.63719e-05
0.0154
3.87363e-05
0.015392
4.10378e-05
0.0153835
4.32733e-05
0.0153746
4.54405e-05
0.0153654
4.7537e-05
0.0153557
4.95628e-05
0.0153457
5.15139e-05
0.0153354
5.33968e-05
0.0153247
5.51944e-05
0.0153137
5.6942e-05
0.0153023
5.85621e-05
0.0152907
6.02001e-05
0.0152788
6.15885e-05
6.31291e-05
0.0149684
-5.52881e-05
0.0149773
-5.52617e-05
0.0149862
-5.51691e-05
0.0149951
-5.50068e-05
0.0150039
-5.47712e-05
0.0150127
-5.44589e-05
0.0150214
-5.40665e-05
0.01503
-5.35904e-05
0.0150385
-5.30275e-05
0.0150469
-5.23746e-05
0.0150551
-5.16285e-05
0.0150632
-5.07863e-05
0.0150711
-4.98455e-05
0.0150789
-4.88034e-05
0.0150864
-4.76579e-05
0.0150938
-4.6407e-05
0.0151009
-4.5049e-05
0.0151077
-4.35827e-05
0.0151143
-4.20071e-05
0.0151206
-4.03219e-05
0.0151266
-3.85268e-05
0.0151323
-3.66222e-05
0.0151376
-3.46092e-05
0.0151426
-3.24891e-05
0.0151472
-3.02638e-05
0.0151514
-2.79358e-05
0.0151553
-2.55082e-05
0.0151587
-2.29846e-05
0.0151617
-2.03692e-05
0.0151642
-1.76668e-05
0.0151663
-1.48828e-05
0.0151679
-1.2023e-05
0.0151691
-9.09379e-06
0.0151697
-6.10217e-06
0.0151699
-3.05547e-06
0.0151696
3.85426e-08
0.0151688
3.17166e-06
0.0151674
6.33546e-06
0.0151656
9.52124e-06
0.0151633
1.27201e-05
0.0151604
1.59231e-05
0.0151571
1.91213e-05
0.0151532
2.23058e-05
0.0151489
2.54678e-05
0.015144
2.8599e-05
0.0151387
3.16911e-05
0.0151329
3.47366e-05
0.0151266
3.77283e-05
0.0151199
4.06597e-05
0.0151128
4.35251e-05
0.0151052
4.63193e-05
0.0150972
4.90382e-05
0.0150888
5.16781e-05
0.01508
5.42366e-05
0.0150708
5.67113e-05
0.0150613
5.91022e-05
0.0150514
6.14051e-05
0.0150412
6.36277e-05
0.0150306
6.57512e-05
0.0150197
6.78144e-05
0.0150086
6.9734e-05
0.0149971
7.16659e-05
0.0149854
7.33237e-05
7.51351e-05
0.0146882
-6.41764e-05
0.014697
-6.41308e-05
0.0147059
-6.40077e-05
0.0147147
-6.38028e-05
0.0147234
-6.35123e-05
0.0147321
-6.31321e-05
0.0147407
-6.26581e-05
0.0147492
-6.20866e-05
0.0147576
-6.14136e-05
0.0147658
-6.06357e-05
0.0147739
-5.97492e-05
0.0147819
-5.87509e-05
0.0147897
-5.76378e-05
0.0147973
-5.64069e-05
0.0148047
-5.50559e-05
0.0148119
-5.35826e-05
0.0148188
-5.19852e-05
0.0148255
-5.02623e-05
0.0148319
-4.8413e-05
0.014838
-4.64368e-05
0.0148438
-4.43338e-05
0.0148493
-4.21046e-05
0.0148544
-3.97504e-05
0.0148592
-3.7273e-05
0.0148636
-3.46748e-05
0.0148677
-3.19587e-05
0.0148713
-2.91285e-05
0.0148745
-2.61886e-05
0.0148773
-2.3144e-05
0.0148796
-2.00003e-05
0.0148815
-1.67639e-05
0.0148829
-1.34417e-05
0.0148838
-1.00412e-05
0.0148843
-6.57064e-06
0.0148843
-3.03851e-06
0.0148838
5.46066e-07
0.0148828
4.17357e-06
0.0148813
7.83419e-06
0.0148793
1.15178e-05
0.0148768
1.52142e-05
0.0148738
1.8913e-05
0.0148703
2.26038e-05
0.0148664
2.62764e-05
0.0148619
2.99209e-05
0.014857
3.35275e-05
0.0148516
3.7087e-05
0.0148457
4.05906e-05
0.0148394
4.40305e-05
0.0148327
4.73991e-05
0.0148255
5.069e-05
0.0148179
5.38976e-05
0.01481
5.70173e-05
0.0148016
6.00452e-05
0.0147928
6.29789e-05
0.0147837
6.58157e-05
0.0147743
6.85562e-05
0.0147645
7.1196e-05
0.0147544
7.3744e-05
0.014744
7.61802e-05
0.0147332
7.8547e-05
0.0147222
8.07545e-05
0.0147109
8.29718e-05
0.0146993
8.48899e-05
8.69675e-05
0.0144157
-7.30156e-05
0.0144245
-7.29444e-05
0.0144333
-7.27841e-05
0.014442
-7.25299e-05
0.0144507
-7.21773e-05
0.0144593
-7.17217e-05
0.0144678
-7.11588e-05
0.0144762
-7.04841e-05
0.0144844
-6.96933e-05
0.0144926
-6.87825e-05
0.0145006
-6.77476e-05
0.0145084
-6.65851e-05
0.0145161
-6.52916e-05
0.0145235
-6.38641e-05
0.0145308
-6.22997e-05
0.0145378
-6.05962e-05
0.0145446
-5.87518e-05
0.0145511
-5.67649e-05
0.0145573
-5.46347e-05
0.0145632
-5.23609e-05
0.0145688
-4.99437e-05
0.0145741
-4.7384e-05
0.014579
-4.46832e-05
0.0145836
-4.18437e-05
0.0145878
-3.88684e-05
0.0145916
-3.57608e-05
0.014595
-3.25254e-05
0.014598
-2.91673e-05
0.0146005
-2.56923e-05
0.0146026
-2.21072e-05
0.0146043
-1.84192e-05
0.0146055
-1.46363e-05
0.0146062
-1.07673e-05
0.0146064
-6.82154e-06
0.0146062
-2.80879e-06
0.0146055
1.26048e-06
0.0146043
5.37545e-06
0.0146026
9.52491e-06
0.0146004
1.36974e-05
0.0145978
1.78813e-05
0.0145946
2.20648e-05
0.014591
2.62363e-05
0.0145869
3.03844e-05
0.0145823
3.44976e-05
0.0145773
3.85653e-05
0.0145718
4.25771e-05
0.0145658
4.65233e-05
0.0145595
5.0395e-05
0.0145527
5.41842e-05
0.0145455
5.78837e-05
0.0145379
6.14876e-05
0.0145299
6.49909e-05
0.0145216
6.83896e-05
0.0145129
7.16813e-05
0.0145038
7.48636e-05
0.0144945
7.79374e-05
0.0144847
8.08985e-05
0.0144747
8.37571e-05
0.0144644
8.64918e-05
0.0144538
8.91499e-05
0.0144429
9.16337e-05
0.0144318
9.4127e-05
0.0144204
9.62967e-05
9.86356e-05
0.0141506
-8.18178e-05
0.0141594
-8.17139e-05
0.0141681
-8.15088e-05
0.0141768
-8.11975e-05
0.0141854
-8.07749e-05
0.0141939
-8.02358e-05
0.0142023
-7.95754e-05
0.0142106
-7.87888e-05
0.0142188
-7.78714e-05
0.0142268
-7.68187e-05
0.0142347
-7.56264e-05
0.0142424
-7.42906e-05
0.0142499
-7.28076e-05
0.0142572
-7.11741e-05
0.0142643
-6.93873e-05
0.0142712
-6.74448e-05
0.0142777
-6.53445e-05
0.0142841
-6.30851e-05
0.0142901
-6.06659e-05
0.0142958
-5.80866e-05
0.0143012
-5.53477e-05
0.0143063
-5.24505e-05
0.014311
-4.93968e-05
0.0143154
-4.61894e-05
0.0143193
-4.28319e-05
0.0143229
-3.93284e-05
0.014326
-3.56842e-05
0.0143288
-3.19052e-05
0.0143311
-2.79981e-05
0.014333
-2.39707e-05
0.0143344
-1.98313e-05
0.0143353
-1.5589e-05
0.0143358
-1.12538e-05
0.0143358
-6.83622e-06
0.0143354
-2.3474e-06
0.0143344
2.20092e-06
0.014333
6.79655e-06
0.0143311
1.14269e-05
0.0143287
1.60793e-05
0.0143259
2.07405e-05
0.0143225
2.53977e-05
0.0143187
3.00378e-05
0.0143145
3.46481e-05
0.0143097
3.92161e-05
0.0143046
4.37301e-05
0.014299
4.81786e-05
0.0142929
5.25511e-05
0.0142865
5.68379e-05
0.0142797
6.10304e-05
0.0142724
6.5121e-05
0.0142648
6.91033e-05
0.0142568
7.29723e-05
0.0142485
7.67239e-05
0.0142398
8.0356e-05
0.0142308
8.38663e-05
0.0142215
8.72565e-05
0.0142119
9.05226e-05
0.0142019
9.36765e-05
0.0141917
9.66953e-05
0.0141813
9.96316e-05
0.0141705
0.00010238
0.0141595
0.00010514
0.0141482
0.000107552
0.000110148
0.0138926
-9.05931e-05
0.0139013
-9.04486e-05
0.01391
-9.01906e-05
0.0139186
-8.98137e-05
0.0139272
-8.93121e-05
0.0139356
-8.86804e-05
0.013944
-8.79132e-05
0.0139522
-8.70051e-05
0.0139603
-8.59512e-05
0.0139682
-8.47467e-05
0.0139759
-8.33868e-05
0.0139835
-8.18675e-05
0.0139909
-8.01848e-05
0.0139981
-7.83352e-05
0.014005
-7.63159e-05
0.0140117
-7.41242e-05
0.0140181
-7.17583e-05
0.0140242
-6.92169e-05
0.01403
-6.64993e-05
0.0140356
-6.36056e-05
0.0140408
-6.05367e-05
0.0140456
-5.7294e-05
0.0140501
-5.38801e-05
0.0140542
-5.02983e-05
0.0140579
-4.65526e-05
0.0140612
-4.26481e-05
0.0140641
-3.85908e-05
0.0140666
-3.43875e-05
0.0140687
-3.00461e-05
0.0140703
-2.5575e-05
0.0140714
-2.09839e-05
0.0140721
-1.62831e-05
0.0140723
-1.14837e-05
0.0140721
-6.59746e-06
0.0140714
-1.63693e-06
0.0140702
3.38486e-06
0.0140686
8.45439e-06
0.0140664
1.35577e-05
0.0140638
1.86808e-05
0.0140608
2.38091e-05
0.0140572
2.89285e-05
0.0140532
3.40247e-05
0.0140488
3.90838e-05
0.0140439
4.40923e-05
0.0140386
4.90372e-05
0.0140329
5.39064e-05
0.0140268
5.86885e-05
0.0140202
6.33732e-05
0.0140133
6.79512e-05
0.014006
7.24147e-05
0.0139984
7.6757e-05
0.0139904
8.09731e-05
0.013982
8.50591e-05
0.0139734
8.90132e-05
0.0139644
9.28336e-05
0.0139551
9.65228e-05
0.0139456
0.000100077
0.0139357
0.00010351
0.0139256
0.000106798
0.0139153
0.00011
0.0139046
0.000113
0.0138938
0.000116017
0.0138827
0.000118664
0.00012151
0.0136414
-9.93502e-05
0.0136501
-9.91563e-05
0.0136588
-9.88365e-05
0.0136674
-9.83845e-05
0.0136758
-9.77943e-05
0.0136842
-9.70599e-05
0.0136925
-9.61756e-05
0.0137006
-9.51356e-05
0.0137086
-9.39344e-05
0.0137164
-9.25671e-05
0.0137241
-9.10286e-05
0.0137315
-8.93146e-05
0.0137387
-8.7421e-05
0.0137458
-8.53442e-05
0.0137525
-8.30811e-05
0.013759
-8.06294e-05
0.0137653
-7.7987e-05
0.0137712
-7.51531e-05
0.0137768
-7.2127e-05
0.0137821
-6.89092e-05
0.0137871
-6.55009e-05
0.0137917
-6.19041e-05
0.0137959
-5.81219e-05
0.0137998
-5.41582e-05
0.0138033
-5.00178e-05
0.0138063
-4.57066e-05
0.013809
-4.12314e-05
0.0138112
-3.66e-05
0.013813
-3.18213e-05
0.0138143
-2.69049e-05
0.0138152
-2.18616e-05
0.0138156
-1.67029e-05
0.0138155
-1.1441e-05
0.013815
-6.08927e-06
0.0138141
-6.61358e-07
0.0138126
4.82832e-06
0.0138107
1.03649e-05
0.0138083
1.59331e-05
0.0138055
2.15175e-05
0.0138022
2.71024e-05
0.0137984
3.26723e-05
0.0137943
3.82118e-05
0.0137896
4.37059e-05
0.0137846
4.914e-05
0.0137791
5.45003e-05
0.0137733
5.97736e-05
0.013767
6.49481e-05
0.0137604
7.00127e-05
0.0137534
7.49579e-05
0.013746
7.97755e-05
0.0137383
8.44589e-05
0.0137303
8.9003e-05
0.0137219
9.34044e-05
0.0137133
9.76617e-05
0.0137043
0.000101774
0.0136951
0.000105744
0.0136856
0.000109569
0.0136759
0.000113265
0.0136659
0.000116807
0.0136556
0.00012026
0.0136451
0.0001235
0.0136343
0.000126765
0.0136234
0.000129637
0.00013273
0.0133968
-0.000108096
0.0134055
-0.000107843
0.0134141
-0.000107452
0.0134227
-0.000106915
0.0134311
-0.000106225
0.0134394
-0.000105377
0.0134476
-0.000104365
0.0134557
-0.000103181
0.0134635
-0.000101821
0.0134712
-0.000100279
0.0134788
-9.85502e-05
0.0134861
-9.66294e-05
0.0134932
-9.45127e-05
0.0135
-9.21965e-05
0.0135066
-8.96777e-05
0.013513
-8.6954e-05
0.013519
-8.40237e-05
0.0135247
-8.08858e-05
0.0135301
-7.75402e-05
0.0135352
-7.39877e-05
0.0135399
-7.02301e-05
0.0135443
-6.62698e-05
0.0135483
-6.21106e-05
0.0135519
-5.7757e-05
0.0135551
-5.32148e-05
0.0135579
-4.84906e-05
0.0135602
-4.35923e-05
0.0135622
-3.85286e-05
0.0135637
-3.33095e-05
0.0135647
-2.79459e-05
0.0135653
-2.24496e-05
0.0135654
-1.68334e-05
0.0135651
-1.1111e-05
0.0135643
-5.29679e-06
0.013563
5.94111e-07
0.0135613
6.54596e-06
0.0135591
1.25425e-05
0.0135565
1.85673e-05
0.0135534
2.46034e-05
0.0135499
3.06341e-05
0.0135459
3.66425e-05
0.0135415
4.26122e-05
0.0135367
4.8527e-05
0.0135315
5.43714e-05
0.0135258
6.01308e-05
0.0135198
6.57913e-05
0.0135134
7.13404e-05
0.0135067
7.67666e-05
0.0134996
8.20602e-05
0.0134921
8.72127e-05
0.0134844
9.22177e-05
0.0134763
9.70703e-05
0.0134679
0.000101768
0.0134593
0.000106309
0.0134504
0.000110693
0.0134412
0.000114926
0.0134318
0.000119004
0.0134221
0.000122948
0.0134122
0.000126728
0.013402
0.000130418
0.0133916
0.000133885
0.013381
0.000137388
0.0133701
0.000140477
0.000143812
0.0131585
-0.000116835
0.0131672
-0.000116514
0.0131758
-0.00011604
0.0131843
-0.000115407
0.0131927
-0.000114607
0.0132009
-0.000113634
0.0132091
-0.000112481
0.013217
-0.000111142
0.0132248
-0.00010961
0.0132324
-0.000107881
0.0132398
-0.000105948
0.013247
-0.000103808
0.0132539
-0.000101455
0.0132606
-9.88866e-05
0.013267
-9.60993e-05
0.0132732
-9.30909e-05
0.013279
-8.986e-05
0.0132845
-8.64061e-05
0.0132897
-8.27294e-05
0.0132946
-7.8831e-05
0.013299
-7.47134e-05
0.0133032
-7.03796e-05
0.0133069
-6.58341e-05
0.0133102
-6.10823e-05
0.0133131
-5.61307e-05
0.0133156
-5.0987e-05
0.0133177
-4.566e-05
0.0133193
-4.01596e-05
0.0133205
-3.44969e-05
0.0133212
-2.8684e-05
0.0133215
-2.2734e-05
0.0133214
-1.66609e-05
0.0133207
-1.04797e-05
0.0133196
-4.20619e-06
0.0133181
2.14313e-06
0.0133161
8.55121e-06
0.0133136
1.50005e-05
0.0133107
2.14732e-05
0.0133074
2.79511e-05
0.0133036
3.44163e-05
0.0132994
4.08508e-05
0.0132948
4.7237e-05
0.0132897
5.35578e-05
0.0132843
5.97969e-05
0.0132785
6.59388e-05
0.0132723
7.1969e-05
0.0132658
7.78745e-05
0.0132589
8.36436e-05
0.0132517
8.92661e-05
0.0132442
9.4734e-05
0.0132363
0.000100041
0.0132282
0.000105182
0.0132198
0.000110155
0.0132112
0.00011496
0.0132023
0.000119598
0.0131931
0.000124075
0.0131838
0.000128388
0.0131741
0.000132561
0.0131643
0.000136564
0.0131543
0.000140478
0.013144
0.000144159
0.0131335
0.00014789
0.0131228
0.000151188
0.00015476
0.0129264
-0.000125573
0.012935
-0.000125172
0.0129436
-0.000124605
0.012952
-0.000123863
0.0129604
-0.000122941
0.0129686
-0.00012183
0.0129766
-0.000120524
0.0129845
-0.000119016
0.0129922
-0.000117299
0.0129997
-0.000115369
0.0130069
-0.000113219
0.013014
-0.000110845
0.0130207
-0.000108242
0.0130273
-0.000105408
0.0130335
-0.000102338
0.0130394
-9.90316e-05
0.0130451
-9.54871e-05
0.0130504
-9.17044e-05
0.0130553
-8.76842e-05
0.0130599
-8.34282e-05
0.0130642
-7.89394e-05
0.013068
-7.42217e-05
0.0130714
-6.92802e-05
0.0130745
-6.41214e-05
0.0130771
-5.87526e-05
0.0130793
-5.31825e-05
0.0130811
-4.74212e-05
0.0130824
-4.14796e-05
0.0130833
-3.537e-05
0.0130837
-2.91057e-05
0.0130836
-2.27012e-05
0.0130832
-1.61718e-05
0.0130822
-9.53394e-06
0.0130808
-2.80462e-06
0.0130789
3.99827e-06
0.0130766
1.08563e-05
0.0130739
1.77507e-05
0.0130707
2.46622e-05
0.0130671
3.15717e-05
0.013063
3.84597e-05
0.0130586
4.53074e-05
0.0130537
5.20961e-05
0.0130485
5.88078e-05
0.0130428
6.54254e-05
0.0130369
7.19326e-05
0.0130305
7.83147e-05
0.0130238
8.4558e-05
0.0130168
9.06506e-05
0.0130095
9.65825e-05
0.0130019
0.000102346
0.012994
0.000107934
0.0129858
0.000113343
0.0129774
0.000118572
0.0129688
0.000123621
0.0129599
0.000128492
0.0129507
0.000133194
0.0129414
0.000137725
0.0129319
0.00014211
0.0129221
0.00014632
0.0129121
0.000150444
0.012902
0.000154326
0.0128916
0.000158276
0.012881
0.000161773
0.00016558
0.0127
-0.000134311
0.0127087
-0.000133819
0.0127172
-0.000133146
0.0127256
-0.000132284
0.0127339
-0.000131226
0.012742
-0.000129964
0.01275
-0.000128491
0.0127578
-0.0001268
0.0127654
-0.000124884
0.0127728
-0.000122738
0.0127799
-0.000120357
0.0127868
-0.000117734
0.0127934
-0.000114867
0.0127997
-0.000111752
0.0128058
-0.000108386
0.0128115
-0.000104767
0.0128169
-0.000100895
0.012822
-9.67701e-05
0.0128267
-9.23935e-05
0.0128311
-8.77676e-05
0.012835
-8.28961e-05
0.0128386
-7.77837e-05
0.0128417
-7.24363e-05
0.0128445
-6.68614e-05
0.0128468
-6.10674e-05
0.0128487
-5.50642e-05
0.0128501
-4.88627e-05
0.0128511
-4.24754e-05
0.0128516
-3.59156e-05
0.0128517
-2.91981e-05
0.0128514
-2.23386e-05
0.0128506
-1.53539e-05
0.0128493
-8.26155e-06
0.0128476
-1.08017e-06
0.0128454
6.1711e-06
0.0128428
1.34725e-05
0.0128397
2.08039e-05
0.0128362
2.81449e-05
0.0128323
3.54749e-05
0.012828
4.27738e-05
0.0128233
5.00213e-05
0.0128182
5.71979e-05
0.0128127
6.42849e-05
0.0128069
7.12643e-05
0.0128007
7.81195e-05
0.0127942
8.4835e-05
0.0127873
9.1397e-05
0.0127802
9.77936e-05
0.0127728
0.000104015
0.0127651
0.000110053
0.0127571
0.000115901
0.0127489
0.000121558
0.0127404
0.000127022
0.0127318
0.000132295
0.0127229
0.00013738
0.0127138
0.000142288
0.0127045
0.000147017
0.012695
0.000151598
0.0126853
0.000155998
0.0126754
0.000160318
0.0126654
0.000164389
0.0126551
0.000168549
0.0126446
0.000172236
0.000176276
0.0124793
-0.000143052
0.012488
-0.000142455
0.0124965
-0.000141663
0.0125049
-0.000140668
0.0125131
-0.00013946
0.0125212
-0.000138032
0.0125291
-0.000136378
0.0125368
-0.000134489
0.0125442
-0.000132359
0.0125515
-0.000129983
0.0125585
-0.000127354
0.0125652
-0.000124468
0.0125717
-0.000121321
0.0125778
-0.00011791
0.0125837
-0.000114232
0.0125892
-0.000110286
0.0125944
-0.000106073
0.0125992
-0.000101592
0.0126036
-9.68456e-05
0.0126077
-9.18372e-05
0.0126114
-8.6571e-05
0.0126147
-8.10528e-05
0.0126175
-7.52895e-05
0.0126199
-6.92894e-05
0.0126219
-6.30622e-05
0.0126235
-5.66188e-05
0.0126246
-4.99716e-05
0.0126253
-4.31341e-05
0.0126255
-3.61211e-05
0.0126252
-2.89487e-05
0.0126245
-2.1634e-05
0.0126233
-1.41951e-05
0.0126217
-6.65108e-06
0.0126197
9.78204e-07
0.0126172
8.6722e-06
0.0126142
1.64098e-05
0.0126109
2.41697e-05
0.0126071
3.19302e-05
0.0126029
3.96696e-05
0.0125983
4.73666e-05
0.0125933
5.50001e-05
0.012588
6.25497e-05
0.0125823
6.99958e-05
0.0125762
7.732e-05
0.0125698
8.4505e-05
0.0125631
9.15352e-05
0.0125561
9.83965e-05
0.0125488
0.000105077
0.0125413
0.000111567
0.0125335
0.000117859
0.0125254
0.000123948
0.0125172
0.000129831
0.0125087
0.000135509
0.0125
0.000140986
0.0124911
0.000146265
0.012482
0.000151359
0.0124728
0.000156268
0.0124633
0.000161028
0.0124537
0.000165602
0.012444
0.000170104
0.012434
0.00017435
0.0124238
0.000178713
0.0124135
0.000182581
0.000186851
0.0122641
-0.000151793
0.0122728
-0.00015108
0.0122812
-0.000150155
0.0122896
-0.000149011
0.0122978
-0.000147639
0.0123058
-0.000146032
0.0123136
-0.00014418
0.0123212
-0.000142078
0.0123285
-0.000139718
0.0123356
-0.000137095
0.0123425
-0.000134203
0.012349
-0.000131037
0.0123553
-0.000127594
0.0123613
-0.000123871
0.0123669
-0.000119866
0.0123722
-0.000115579
0.0123771
-0.000111009
0.0123817
-0.000106157
0.0123859
-0.000101028
0.0123897
-9.56241e-05
0.0123931
-8.99513e-05
0.012396
-8.4016e-05
0.0123986
-7.78265e-05
0.0124007
-7.13921e-05
0.0124023
-6.47236e-05
0.0124035
-5.78334e-05
0.0124043
-5.07349e-05
0.0124046
-4.34431e-05
0.0124045
-3.59742e-05
0.0124039
-2.83457e-05
0.0124028
-2.05759e-05
0.0124013
-1.26845e-05
0.0123993
-4.69189e-06
0.0123969
3.38063e-06
0.0123941
1.15112e-05
0.0123908
1.96774e-05
0.0123871
2.78567e-05
0.012383
3.60261e-05
0.0123785
4.4163e-05
0.0123737
5.2245e-05
0.0123684
6.02501e-05
0.0123628
6.81571e-05
0.0123569
7.59459e-05
0.0123506
8.35973e-05
0.012344
9.10938e-05
0.0123371
9.84195e-05
0.0123299
0.00010556
0.0123225
0.000112505
0.0123148
0.000119243
0.0123069
0.000125768
0.0122988
0.000132075
0.0122905
0.000138164
0.0122819
0.000144036
0.0122732
0.000149695
0.0122644
0.000155148
0.0122553
0.000160409
0.0122461
0.00016548
0.0122367
0.000170401
0.0122272
0.000175134
0.0122175
0.000179805
0.0122076
0.000184213
0.0121976
0.00018877
0.0121873
0.00019281
0.000197311
0.0120542
-0.000160535
0.0120628
-0.00015969
0.0120713
-0.000158619
0.0120796
-0.000157312
0.0120877
-0.00015576
0.0120956
-0.000153956
0.0121033
-0.000151891
0.0121108
-0.000149559
0.012118
-0.000146952
0.012125
-0.000144066
0.0121317
-0.000140893
0.0121381
-0.000137431
0.0121442
-0.000133676
0.0121499
-0.000129625
0.0121553
-0.000125277
0.0121604
-0.000120632
0.0121651
-0.00011569
0.0121694
-0.000110454
0.0121733
-0.000104927
0.0121767
-9.91151e-05
0.0121798
-9.30233e-05
0.0121825
-8.66599e-05
0.0121847
-8.0034e-05
0.0121864
-7.31562e-05
0.0121877
-6.60387e-05
0.0121886
-5.8695e-05
0.012189
-5.11401e-05
0.012189
-4.33903e-05
0.0121885
-3.54631e-05
0.0121875
-2.73775e-05
0.0121861
-1.91533e-05
0.0121842
-1.08116e-05
0.0121819
-2.37415e-06
0.0121791
6.13637e-06
0.0121759
1.46967e-05
0.0121723
2.32833e-05
0.0121683
3.18723e-05
0.0121639
4.04396e-05
0.0121591
4.89616e-05
0.0121539
5.74149e-05
0.0121484
6.57767e-05
0.0121425
7.40252e-05
0.0121363
8.21395e-05
0.0121298
9.01002e-05
0.012123
9.78894e-05
0.012116
0.000105491
0.0121086
0.000112892
0.0121011
0.000120079
0.0120933
0.000127044
0.0120852
0.000133781
0.012077
0.000140287
0.0120686
0.00014656
0.0120601
0.000152604
0.0120513
0.000158426
0.0120425
0.000164033
0.0120334
0.000169442
0.0120242
0.000174656
0.0120149
0.000179722
0.0120055
0.000184596
0.0119958
0.000189424
0.0119861
0.000193981
0.0119761
0.000198726
0.011966
0.000202928
0.000207662
0.0118493
-0.000169275
0.0118579
-0.000168284
0.0118663
-0.000167049
0.0118746
-0.000165563
0.0118826
-0.000163815
0.0118905
-0.000161798
0.0118981
-0.000159503
0.0119054
-0.000156924
0.0119126
-0.000154053
0.0119194
-0.000150886
0.0119259
-0.000147416
0.0119321
-0.00014364
0.011938
-0.000139555
0.0119435
-0.00013516
0.0119487
-0.000130452
0.0119535
-0.000125433
0.0119579
-0.000120104
0.0119619
-0.000114468
0.0119655
-0.00010853
0.0119687
-0.000102296
0.0119715
-9.57735e-05
0.0119738
-8.89707e-05
0.0119756
-8.18984e-05
0.011977
-7.45685e-05
0.011978
-6.69944e-05
0.0119785
-5.91911e-05
0.0119785
-5.1175e-05
0.0119781
-4.29637e-05
0.0119772
-3.45765e-05
0.0119759
-2.60334e-05
0.0119741
-1.73561e-05
0.0119718
-8.56679e-06
0.0119691
3.11166e-07
0.011966
9.25383e-06
0.0119625
1.82366e-05
0.0119585
2.72347e-05
0.0119542
3.62231e-05
0.0119494
4.51766e-05
0.0119443
5.40707e-05
0.0119389
6.28811e-05
0.0119331
7.15842e-05
0.0119269
8.01576e-05
0.0119205
8.858e-05
0.0119138
9.68316e-05
0.0119068
0.000104894
0.0118995
0.000112753
0.011892
0.000120392
0.0118843
0.000127802
0.0118763
0.000134974
0.0118682
0.000141902
0.0118599
0.000148584
0.0118515
0.000155021
0.0118428
0.000161217
0.0118341
0.000167181
0.0118252
0.000172921
0.0118162
0.00017846
0.011807
0.0001838
0.0117978
0.000188993
0.0117884
0.000193994
0.0117788
0.000198965
0.0117692
0.000203659
0.0117593
0.000208585
0.0117493
0.00021294
0.00021791
0.0116493
-0.000178008
0.0116579
-0.000176854
0.0116663
-0.000175441
0.0116745
-0.000173759
0.0116825
-0.000171798
0.0116902
-0.00016955
0.0116977
-0.000167007
0.011705
-0.000164163
0.0117119
-0.00016101
0.0117186
-0.000157544
0.0117249
-0.000153758
0.0117309
-0.000149651
0.0117366
-0.000145219
0.0117419
-0.000140461
0.0117468
-0.000135377
0.0117513
-0.000129967
0.0117555
-0.000124236
0.0117592
-0.000118186
0.0117625
-0.000111823
0.0117653
-0.000105154
0.0117678
-9.81878e-05
0.0117697
-9.09347e-05
0.0117712
-8.34061e-05
0.0117723
-7.56156e-05
0.0117729
-6.75777e-05
0.011773
-5.93091e-05
0.0117726
-5.08274e-05
0.0117718
-4.2152e-05
0.0117705
-3.33034e-05
0.0117688
-2.43033e-05
0.0117666
-1.51746e-05
0.011764
-5.94119e-06
0.011761
3.3723e-06
0.0117575
1.27405e-05
0.0117536
2.21377e-05
0.0117493
3.15378e-05
0.0117446
4.09146e-05
0.0117395
5.02421e-05
0.0117341
5.94947e-05
0.0117283
6.86473e-05
0.0117222
7.76758e-05
0.0117158
8.65572e-05
0.0117091
9.52698e-05
0.0117022
0.000103794
0.011695
0.000112111
0.0116875
0.000120205
0.0116798
0.000128064
0.011672
0.000135676
0.0116639
0.000143033
0.0116557
0.000150131
0.0116473
0.000156968
0.0116388
0.000163548
0.0116301
0.000169875
0.0116213
0.000175962
0.0116124
0.000181817
0.0116034
0.000187466
0.0115943
0.000192913
0.0115851
0.000198219
0.0115757
0.000203331
0.0115663
0.000208434
0.0115567
0.000213251
0.0115469
0.000218354
0.011537
0.000222853
0.000228064
0.0114541
-0.000186729
0.0114626
-0.000185397
0.011471
-0.000183787
0.0114791
-0.000181891
0.011487
-0.000179699
0.0114946
-0.000177202
0.011502
-0.000174393
0.0115091
-0.000171265
0.0115159
-0.000167811
0.0115224
-0.000164027
0.0115286
-0.000159908
0.0115344
-0.00015545
0.0115398
-0.000150653
0.0115448
-0.000145515
0.0115495
-0.000140037
0.0115538
-0.000134221
0.0115576
-0.000128071
0.011561
-0.000121592
0.011564
-0.00011479
0.0115665
-0.000107673
0.0115686
-0.000100252
0.0115702
-9.25377e-05
0.0115713
-8.45436e-05
0.011572
-7.62843e-05
0.0115722
-6.77761e-05
0.0115719
-5.90368e-05
0.0115711
-5.0086e-05
0.0115699
-4.09442e-05
0.0115683
-3.16336e-05
0.0115661
-2.21774e-05
0.0115636
-1.26e-05
0.0115606
-2.92664e-06
0.0115571
6.81664e-06
0.0115532
1.66032e-05
0.011549
2.6406e-05
0.0115443
3.61979e-05
0.0115393
4.59515e-05