/*--------------------------------*- C++ -*----------------------------------*\
  =========                 |
  \\      /  F ield         | OpenFOAM: The Open Source CFD Toolbox
   \\    /   O peration     | Website:  https://openfoam.org
    \\  /    A nd           | Version:  7
     \\/     M anipulation  |
\*---------------------------------------------------------------------------*/
FoamFile
{
    version     2.0;
    format      ascii;
    class       surfaceScalarField;
    location    "3";
    object      phi;
}
// * * * * * * * * * * * * * * * * * * * * * * * * * * * * * * * * * * * * * //

dimensions      [0 3 -1 0 0 0 0];

internalField   nonuniform List<scalar> 
806
(
-6.84115e-05
0.000978179
0.00108175
9.39611e-05
0.000817849
5.18211e-05
0.000918556
8.9003e-06
0.0010211
-3.5375e-05
0.00112603
-8.16948e-05
0.00123338
0.00134288
0.000199588
0.000635523
0.000169249
0.000748114
0.000132024
0.000855074
9.10031e-05
0.000959577
4.78775e-05
0.00106423
3.28507e-06
0.00117062
-4.28421e-05
0.0012795
-9.09723e-05
0.00139101
-0.000141757
0.00150489
0.00162068
0.000131961
0.000395911
0.000123651
0.000523572
0.000112656
0.000646517
9.82877e-05
0.000762482
8.00622e-05
0.000873299
5.78186e-05
0.00098182
3.15796e-05
0.00109046
1.36533e-06
0.00120083
-3.28617e-05
0.00131373
-7.12422e-05
0.00142939
-0.000114017
0.00154767
-0.000161509
0.00166817
0.00179039
5.57929e-05
0.000265294
9.75335e-06
0.000320268
-1.27015e-05
0.000418366
-1.83581e-05
0.000529229
-1.42591e-05
0.000642418
-6.79971e-06
0.000755023
-8.26294e-07
0.000867326
5.56197e-07
0.000980437
-4.31449e-06
0.00109533
-1.60938e-05
0.00121261
-3.48722e-05
0.00133251
-6.04865e-05
0.001455
-9.27232e-05
0.0015799
-0.00013144
0.00170689
-0.000176623
0.00183558
-0.000228408
0.00196559
0.00209665
0.000544035
0.000772059
0.000458439
0.000525695
0.000336153
0.000406977
0.000218476
0.000382971
0.000130293
0.000408451
7.37533e-05
0.000474905
4.0276e-05
0.000562706
2.28377e-05
0.000659856
1.5053e-05
0.000762808
1.16893e-05
0.000870689
8.82267e-06
0.000983304
3.72138e-06
0.00110044
-5.3866e-06
0.00122172
-1.95761e-05
0.0013467
-3.9461e-05
0.00147489
-6.53896e-05
0.00160583
-9.75821e-05
0.00173908
-0.000136225
0.00187422
-0.000181523
0.00201089
-0.000233713
0.00214884
-0.000293041
0.00228795
0.00242835
0.000115125
0.00132907
0.000223178
0.00104854
0.000232674
0.000762563
0.000208576
0.000549794
0.000176225
0.000439328
0.000154008
0.000405189
0.0001279
0.000434559
0.000104284
0.000498522
8.57894e-05
0.0005812
7.14231e-05
0.000674222
5.99893e-05
0.000774242
5.0363e-05
0.000880316
4.14224e-05
0.000992245
3.20145e-05
0.00110984
2.09893e-05
0.00123275
7.26158e-06
0.00136042
-1.01325e-05
0.00149228
-3.20086e-05
0.00162771
-5.90366e-05
0.00176611
-9.17583e-05
0.00190694
-0.000130609
0.00204974
-0.000175926
0.00219415
-0.000227942
0.00233997
-0.00028673
0.00248714
-0.000352123
0.00263581
0.00278595
0.00184345
0.00282868
0.000709051
0.0026229
-4.82776e-05
0.0020864
-0.000443313
0.00144358
-0.000568861
0.000888111
-0.000534988
0.000515921
-0.000425046
0.000329386
-0.000302486
0.000282629
-0.000202774
0.000334847
-0.000125374
0.000421121
-6.85527e-05
0.000524379
-2.88752e-05
0.000634545
-2.35203e-06
0.000747718
1.4554e-05
0.00086341
2.44319e-05
0.000982367
2.88664e-05
0.00110541
2.86185e-05
0.00123299
2.38747e-05
0.00136517
1.44804e-05
0.00150168
1.13145e-07
0.00164207
-1.96032e-05
0.00178582
-4.50344e-05
0.00193237
-7.64989e-05
0.00208121
-0.000114241
0.0022319
-0.000158401
0.00238413
-0.000208971
0.00253771
-0.000265741
0.00269258
-0.000328249
0.00284846
-0.000395987
0.00300429
0.0031598
-0.000468034
0.00783879
0.00333089
0.00582371
0.00459024
0.0038097
0.00484269
0.00216637
0.00426623
0.00100856
0.00324422
0.00028648
0.00216565
-0.000107479
0.00128207
-0.000289212
0.000697654
-0.000346731
0.000386906
-0.000341661
0.000277558
-0.000295329
0.000288515
-0.00023566
0.000361452
-0.00017581
0.000464529
-0.00012164
0.000580374
-7.53929e-05
0.000701471
-3.75909e-05
0.000825608
-8.00323e-06
0.00095278
1.38655e-05
0.00108354
2.85298e-05
0.00121833
3.64189e-05
0.00135728
3.78383e-05
0.00150026
3.29727e-05
0.00164694
2.19036e-05
0.00179689
4.63541e-06
0.00194964
-1.88714e-05
0.00210471
-4.86608e-05
0.00226169
-8.47378e-05
0.0024202
-0.00012702
0.00257999
-0.000175293
0.00274085
-0.000229177
0.00290234
-0.000288322
0.00306344
0.00322366
-0.000352181
-0.00248703
0.000228051
-0.00164555
0.00248942
-0.000957333
0.00390203
-0.000396833
0.00428219
1.65885e-05
0.00385281
0.000247895
0.00301291
0.000291104
0.00212244
0.000216976
0.0013562
9.21668e-05
0.000822463
-3.01734e-05
0.000509246
-0.000118052
0.000365437
-0.000154703
0.000325166
-0.000157391
0.00036414
-0.000138306
0.000445444
-0.000106924
0.000548992
-7.06015e-05
0.000665149
-3.44932e-05
0.000789499
-1.82958e-06
0.000920116
2.5595e-05
0.00105612
4.69395e-05
0.00119698
6.19239e-05
0.00134229
7.05467e-05
0.00149164
7.29045e-05
0.00164458
6.90944e-05
0.0018007
5.91745e-05
0.00195956
4.3163e-05
0.00212072
2.10597e-05
0.00228379
-7.11835e-06
0.00244838
-4.12967e-05
0.00261417
-8.13082e-05
0.00278086
-0.000126879
0.00294791
-0.000177781
0.00311434
0.00327954
-0.000233658
-0.0126402
-0.0020558
-0.0132417
-0.00163294
-0.0123114
-0.000702224
-0.0102156
0.000393643
-0.00756582
0.00125223
-0.00496385
0.00168022
-0.00282411
0.00171306
-0.00131311
0.00150191
-0.000394674
0.00120401
6.42316e-05
0.000897292
0.000232949
0.000653745
0.000248447
0.000493748
0.000206531
0.000407353
0.000148708
0.000382989
0.000100583
0.000412265
6.98303e-05
0.000476197
5.54408e-05
0.000563381
5.36401e-05
0.00066695
6.02758e-05
0.000782864
7.1737e-05
0.000908654
8.51773e-05
0.00104268
9.84511e-05
0.00118371
0.000109976
0.00133077
0.000118595
0.00148302
0.000123457
0.00163972
0.000123933
0.00180023
0.000119549
0.00196394
0.00010995
0.00213032
9.48808e-05
0.00229886
7.41803e-05
0.00246908
4.77884e-05
0.00264056
1.57532e-05
0.0028129
-2.17755e-05
0.00298544
-6.47007e-05
0.00315726
0.00332785
-0.000113017
0.00253629
0.000483569
0.000297132
0.000396294
-0.00191789
0.000159223
-0.00359014
3.93096e-05
-0.00440379
0.000111427
-0.00435403
0.000343889
-0.00372648
0.000624676
-0.00288736
0.000841105
-0.00210656
0.000932258
-0.00149413
0.00088948
-0.00103807
0.000747953
-0.00070729
0.000566511
-0.000465987
0.000412443
-0.000285371
0.000313131
-0.000157554
0.000279537
-7.0682e-05
0.000296117
-1.03664e-05
0.000351949
3.14576e-05
0.000434373
6.07777e-05
0.000534062
8.23439e-05
0.000645383
9.97112e-05
0.000765496
0.000115146
0.00089322
0.000129744
0.00102808
0.000143697
0.00116976
0.000156612
0.00131786
0.000167789
0.00147184
0.000176432
0.00163108
0.000181769
0.00179489
0.000183126
0.00196259
0.000179953
0.0021335
0.000171831
0.00230698
0.000158467
0.00248244
0.000139693
0.00265934
0.000115453
0.00283714
8.58017e-05
0.00301509
5.08218e-05
0.00319224
0.00336808
1.05966e-05
0.00343026
-0.00274349
0.00569167
-0.00213548
0.00787096
-0.00169572
0.00976623
-0.00149898
0.0109319
-0.00100647
0.0110911
-0.000119852
0.0102327
0.000969779
0.00857647
0.00200016
0.00650877
0.00269237
0.00441145
0.00293843
0.00259524
0.00274847
0.001238
0.00224672
0.000370659
0.0016153
-8.20534e-05
0.00101922
-0.000258556
0.000588945
-0.000276041
0.000330616
-0.000216781
0.000220278
-0.000141491
0.000220827
-7.42092e-05
0.000284667
-1.79815e-05
0.000378146
2.76733e-05
0.000488406
6.51273e-05
0.000607929
9.69043e-05
0.00073372
0.000124926
0.000865199
0.000150327
0.00100268
0.000173571
0.00114651
0.000194576
0.00129685
0.000213079
0.00145334
0.000228612
0.00161554
0.000240664
0.00178284
0.000248747
0.0019545
0.00025243
0.00212981
0.00025135
0.00230806
0.00024523
0.00248856
0.000233881
0.00267069
0.000217212
0.0028538
0.000195222
0.00303708
0.000167945
0.00321952
0.00340078
0.000135239
-0.00160145
-0.00328577
-0.00310552
-0.00113673
0.00177189
0.00480163
-0.00403622
0.00720526
-0.00252348
0.00846484
-0.000289798
0.00846971
0.00199529
0.00745409
0.00370799
0.00588932
0.0045032
0.00423934
0.00439845
0.00280857
0.00367748
0.00171579
0.00270808
0.000946603
0.00178841
0.000456262
0.00107929
0.000167059
0.000619819
1.33132e-05
0.000374024
-4.87949e-05
0.000282935
-5.49341e-05
0.000290806
-3.26737e-05
0.000355885
3.44343e-06
0.000452289
4.52375e-05
0.000566135
8.80649e-05
0.000690892
0.000129344
0.000823919
0.000167712
0.000964309
0.000202512
0.00111171
0.00023358
0.00126578
0.000260699
0.00142622
0.000283804
0.00159244
0.000302804
0.00176384
0.000317547
0.00193976
0.000327842
0.00211952
0.000333476
0.00230243
0.000334244
0.0024878
0.000329981
0.00267495
0.00032058
0.00286321
0.00030601
0.00305165
0.000286397
0.00323913
0.00342458
0.000262603
-0.00814541
-0.00745066
-0.00618904
-0.0046789
-0.00320432
-0.00191912
-0.000905522
-0.000202931
0.000196553
0.000342519
0.00034446
0.000278703
0.000685576
0.000198572
0.000454155
0.000139284
0.000342223
0.00010974
0.000320349
0.000103472
0.000362154
0.000114589
0.000441172
0.000137309
0.000543416
0.0001668
0.000661402
0.000199465
0.000791254
0.000232847
0.000930928
0.000265395
0.00107917
0.000296126
0.00123505
0.000324509
0.00139783
0.000350128
0.00156682
0.00037264
0.00174133
0.000391724
0.00192068
0.000407056
0.00210419
0.00041831
0.00229117
0.000425175
0.00248093
0.000427367
0.00267276
0.000424659
0.00286591
0.000416839
0.00305947
0.000403498
0.00325248
0.00344443
0.000383646
0.000219198
0.000283967
0.000297776
0.000291302
0.000284196
0.000282398
0.000286966
0.000297319
0.000312613
0.000331648
0.000911893
0.000353412
0.0010574
0.000376916
0.00121155
0.000401194
0.00137356
0.000425341
0.00154267
0.000448515
0.00171815
0.000469946
0.00189924
0.000488943
0.00208519
0.000504889
0.00227523
0.000517246
0.00246857
0.000525558
0.00266445
0.000529442
0.00286203
0.000528594
0.00306032
0.000522817
0.00325825
0.0034551
0.000411722
0.000430283
0.000451398
0.000474538
0.000498903
0.000523592
0.00054771
0.000570419
0.000590961
0.000608668
0.000622963
0.00265015
0.000633361
0.00285163
0.000639464
0.00305422
0.000640948
0.00325677
0.00345856
0.00071804
0.000734932
0.000747942
0.000756659
0.00673405
0.000606568
0.00685319
0.000483982
0.00696836
0.000358362
0.0002301
0.00636946
0.00650126
0.00662597
0.00674305
0.00685389
0.00695648
0.00704226
)
;

boundaryField
{
    inlet
    {
        type            calculated;
        value           nonuniform 0();
    }
    outlet
    {
        type            calculated;
        value           nonuniform 0();
    }
    cylinder
    {
        type            calculated;
        value           uniform 0;
    }
    top
    {
        type            symmetryPlane;
        value           nonuniform 0();
    }
    bottom
    {
        type            symmetryPlane;
        value           nonuniform 0();
    }
    defaultFaces
    {
        type            empty;
        value           nonuniform 0();
    }
    procBoundary7to1
    {
        type            processor;
        value           nonuniform List<scalar> 
13
(
0.000512147
0.000637486
0.000760682
-0.000728941
-0.000603116
-0.000473539
-0.000340771
0.00707903
-0.000100247
3.26531e-05
0.000176825
0.000298606
0.0071273
)
;
    }
    procBoundary7to6
    {
        type            processor;
        value           nonuniform List<scalar> 
24
(
-0.000952747
-0.00105003
-0.000100135
-0.00118706
-0.00129383
-0.000130747
-0.00145411
-0.00156654
-0.000195894
-0.00173779
-0.000214115
-0.00191381
-0.00203797
-0.000287083
-0.00222862
-0.0023617
-0.000359691
-0.00257041
-0.00271448
-0.000423597
-0.00293655
-0.00308775
-0.00661168
-0.00623092
)
;
    }
    procBoundary7to8
    {
        type            processor;
        value           nonuniform List<scalar> 
24
(
0.000328415
0.000326823
0.000369261
0.000442969
0.000538848
0.000651049
0.00077596
-0.000395732
0.000895903
0.00103884
0.00119043
0.00135041
0.00151831
0.00169346
0.00187513
0.00206248
0.00225468
0.00245087
-0.000697735
0.00262985
0.00283474
0.00304121
0.00324805
0.00345454
)
;
    }
    procBoundary7to13
    {
        type            processor;
        value           nonuniform List<scalar> 
38
(
-0.000776157
4.29794e-05
-0.000876416
-0.000616782
-0.000135653
-0.000717774
-0.000390248
-0.000218329
-0.000515261
-0.000181173
-0.000137623
-0.000274229
-0.000811899
-0.0004401
-0.000139914
-0.000284691
-0.00164765
-0.000504195
-0.00115659
-0.00142095
0.000203453
-0.0014885
-0.00186165
-0.00325118
-0.00257516
-0.00930803
-0.00124327
0.00413125
0.00350224
0.00223439
0.00106763
0.0105648
0.00184286
0.000558176
-0.00408748
-0.000125926
-0.00124494
0.00184324
)
;
    }
    procBoundary7to14
    {
        type            processor;
        value           nonuniform List<scalar> 
20
(
-0.000241787
-0.00105917
-0.00231573
-0.00366451
-0.0044076
0.00808083
-0.00397164
-0.00321822
-0.00155142
0.00048514
0.00223342
0.003218
0.00338485
0.00297489
0.0023086
0.00164244
0.00107735
-5.1798e-05
0.000518176
0.000389386
)
;
    }
}


// ************************************************************************* //
