/*--------------------------------*- C++ -*----------------------------------*\
  =========                 |
  \\      /  F ield         | OpenFOAM: The Open Source CFD Toolbox
   \\    /   O peration     | Website:  https://openfoam.org
    \\  /    A nd           | Version:  7
     \\/     M anipulation  |
\*---------------------------------------------------------------------------*/
FoamFile
{
    version     2.0;
    format      ascii;
    class       volVectorField;
    location    "3";
    object      U;
}
// * * * * * * * * * * * * * * * * * * * * * * * * * * * * * * * * * * * * * //

dimensions      [0 1 -1 0 0 0 0];

internalField   nonuniform List<vector> 
433
(
(0.467564 -0.498587 -4.87954e-19)
(0.501486 -0.521545 1.95854e-18)
(0.381451 -0.456451 3.71825e-18)
(0.43349 -0.487924 -2.23675e-18)
(0.479322 -0.513342 8.2215e-19)
(0.52046 -0.534077 -2.02641e-18)
(0.557876 -0.550881 2.83958e-18)
(0.59219 -0.564146 -1.20708e-18)
(0.338552 -0.431821 -2.60638e-18)
(0.388906 -0.465992 3.3293e-18)
(0.435647 -0.492632 3.70244e-18)
(0.479177 -0.514157 -8.67753e-18)
(0.51997 -0.532237 6.73456e-18)
(0.558302 -0.54774 -2.14634e-18)
(0.594301 -0.560984 -1.17021e-18)
(0.628023 -0.571965 8.37097e-19)
(0.659492 -0.580532 -3.27197e-18)
(0.688725 -0.5865 -6.90577e-19)
(0.362001 -0.395011 -1.51171e-18)
(0.395129 -0.419017 2.31691e-18)
(0.432064 -0.445359 -3.59641e-18)
(0.46824 -0.469767 2.09059e-18)
(0.503144 -0.491536 -5.05235e-18)
(0.537237 -0.511024 5.09271e-18)
(0.570853 -0.528592 -2.45622e-18)
(0.603993 -0.544355 -1.42698e-18)
(0.636421 -0.55822 7.12011e-18)
(0.667831 -0.569968 -2.66584e-18)
(0.697914 -0.579349 1.94201e-18)
(0.726411 -0.586131 -2.4314e-18)
(0.753134 -0.590125 -2.52047e-18)
(0.241388 -0.254453 -1.71054e-17)
(0.281245 -0.25247 3.18229e-18)
(0.339959 -0.283495 4.48119e-18)
(0.398451 -0.325194 5.70023e-18)
(0.450346 -0.367307 -3.30638e-18)
(0.49516 -0.406331 6.24685e-18)
(0.534814 -0.441237 -4.24073e-18)
(0.571308 -0.471976 -2.46465e-18)
(0.60598 -0.498759 2.57724e-18)
(0.639493 -0.52181 1.05252e-18)
(0.672022 -0.541293 -2.08285e-18)
(0.703482 -0.557324 1.50404e-18)
(0.733672 -0.569977 2.67325e-18)
(0.762372 -0.5793 -2.27665e-18)
(0.789399 -0.585329 4.57174e-18)
(0.814638 -0.588108 -2.02746e-18)
(0.838069 -0.587709 3.38348e-18)
(-0.0530203 -0.266161 -1.07419e-17)
(-0.198567 -0.126706 -2.51796e-18)
(-0.17514 -0.0781578 7.9891e-18)
(-0.0669124 -0.0919256 -9.90297e-20)
(0.0680033 -0.139107 -2.31273e-18)
(0.195594 -0.198786 -2.39375e-18)
(0.303593 -0.258448 2.76583e-18)
(0.391531 -0.312912 -2.70305e-18)
(0.462973 -0.361037 5.18863e-18)
(0.52223 -0.403174 -7.74507e-18)
(0.572978 -0.43993 1.02179e-18)
(0.617856 -0.471822 1.82873e-19)
(0.658568 -0.499232 1.6876e-18)
(0.696133 -0.522439 -2.43719e-19)
(0.731113 -0.541654 -6.60125e-18)
(0.763792 -0.557047 6.4304e-18)
(0.794296 -0.568754 -3.18313e-18)
(0.822677 -0.576896 -2.30164e-18)
(0.848975 -0.581591 2.38264e-18)
(0.873258 -0.582981 -5.04758e-18)
(0.895664 -0.581249 6.65432e-18)
(0.916411 -0.57664 5.24695e-18)
(0.393489 -0.330069 -2.55855e-18)
(0.230375 -0.294343 1.57123e-19)
(0.106729 -0.213361 1.8673e-18)
(0.0500213 -0.154151 1.27218e-17)
(0.0586682 -0.136791 -2.74262e-18)
(0.112624 -0.155699 -9.26899e-19)
(0.189821 -0.195039 7.60995e-19)
(0.272873 -0.239928 1.35529e-19)
(0.351114 -0.284005 -3.71823e-18)
(0.421006 -0.325261 2.34591e-19)
(0.482983 -0.363074 1.09162e-18)
(0.538524 -0.397621 4.02602e-18)
(0.589019 -0.429197 2.55114e-18)
(0.63548 -0.457937 1.6221e-18)
(0.678559 -0.483814 -3.6747e-18)
(0.718663 -0.506703 -1.94188e-18)
(0.756038 -0.526459 4.4601e-19)
(0.790838 -0.542955 -5.47104e-19)
(0.823157 -0.556108 1.47307e-19)
(0.853059 -0.565884 4.1067e-18)
(0.880612 -0.572305 3.71048e-18)
(0.905902 -0.575454 1.33489e-18)
(0.929057 -0.575485 -4.51089e-18)
(0.950255 -0.572619 5.63277e-19)
(0.969644 -0.56723 -1.92933e-19)
(0.987545 -0.559318 -7.31347e-18)
(1.8863 -2.63643 8.7035e-18)
(2.19552 -2.08468 -4.3027e-18)
(2.09328 -1.48073 5.19659e-18)
(1.72718 -0.941196 -6.92462e-18)
(1.29482 -0.543967 6.01778e-18)
(0.932889 -0.305057 -1.62548e-17)
(0.688069 -0.19559 4.85861e-18)
(0.549944 -0.170659 2.34027e-18)
(0.488476 -0.188521 4.84727e-19)
(0.474612 -0.223499 -2.24985e-18)
(0.486935 -0.263617 1.61728e-18)
(0.512942 -0.303235 2.25589e-18)
(0.546316 -0.340267 -4.23747e-19)
(0.583726 -0.374472 2.45633e-18)
(0.623226 -0.406077 -2.33115e-18)
(0.663499 -0.435243 -3.56834e-18)
(0.703557 -0.461945 9.68556e-19)
(0.742654 -0.486013 4.38871e-18)
(0.780237 -0.507227 -2.45018e-18)
(0.815913 -0.525376 2.29925e-18)
(0.849417 -0.540302 -4.91963e-18)
(0.880586 -0.551912 -2.80432e-20)
(0.909341 -0.560188 -3.17639e-18)
(0.935676 -0.565185 -6.16214e-19)
(0.959647 -0.567032 -6.42369e-18)
(0.981366 -0.565924 9.5549e-18)
(1.00092 -0.562193 1.59731e-18)
(1.01852 -0.555796 1.47609e-18)
(1.03381 -0.546961 -1.26693e-18)
(1.0453 -0.538418 -4.2263e-19)
(4.69844 -7.54025 -8.64734e-18)
(5.87812 -7.15869 1.446e-17)
(6.06876 -6.06383 -5.45042e-18)
(5.37776 -4.6099 -6.94739e-20)
(4.18692 -3.1598 -4.53405e-18)
(2.93481 -1.96192 -4.19022e-18)
(1.91321 -1.11246 1.84349e-18)
(1.21667 -0.588596 8.47123e-18)
(0.807439 -0.308048 1.72834e-18)
(0.59924 -0.184495 2.97787e-18)
(0.511577 -0.151888 -7.05682e-18)
(0.488871 -0.16715 3.32231e-18)
(0.49901 -0.202905 -3.38016e-18)
(0.525121 -0.244934 6.75577e-19)
(0.558947 -0.287335 1.32954e-18)
(0.596773 -0.327734 -1.37069e-18)
(0.636773 -0.365305 -3.22062e-18)
(0.6778 -0.399764 5.11055e-18)
(0.718954 -0.430972 -3.23657e-18)
(0.759466 -0.458821 3.88932e-18)
(0.798694 -0.483219 3.69606e-18)
(0.836129 -0.5041 -3.32193e-18)
(0.871396 -0.521433 -8.45418e-19)
(0.904238 -0.535227 4.23642e-18)
(0.934505 -0.545534 -2.4204e-18)
(0.962134 -0.552454 1.54412e-18)
(0.987134 -0.556134 8.25498e-19)
(1.00957 -0.556769 -1.91785e-18)
(1.02949 -0.554662 3.68303e-19)
(1.04707 -0.549748 1.20858e-18)
(1.06195 -0.542318 -4.02647e-18)
(1.07298 -0.534676 4.34811e-20)
(1.28531 0.950975 -3.58695e-17)
(4.76551 -1.45229 2.72179e-17)
(6.54245 -2.80127 -2.07285e-17)
(6.58591 -3.12695 5.24148e-17)
(5.45329 -2.76805 -1.41884e-17)
(3.87529 -2.10328 -5.5976e-18)
(2.41509 -1.40891 -2.53292e-18)
(1.34285 -0.837313 -1.4384e-17)
(0.688793 -0.441645 1.03565e-17)
(0.362925 -0.208978 -2.91076e-18)
(0.248046 -0.0996417 -9.88092e-18)
(0.247646 -0.0729473 2.10066e-18)
(0.298201 -0.0935126 4.18498e-18)
(0.365976 -0.135235 2.87844e-19)
(0.435353 -0.184299 1.6886e-18)
(0.500669 -0.234029 -2.05184e-19)
(0.560949 -0.281364 4.47514e-20)
(0.616823 -0.325042 -7.52906e-19)
(0.669125 -0.364621 1.03784e-20)
(0.718419 -0.400012 5.90774e-18)
(0.764966 -0.431266 -5.33984e-18)
(0.808813 -0.458478 -3.07331e-18)
(0.8499 -0.481757 3.2534e-18)
(0.888131 -0.501212 -5.95076e-18)
(0.923424 -0.516955 3.85927e-18)
(0.955726 -0.529104 1.3273e-18)
(0.985026 -0.537796 1.99735e-19)
(1.01136 -0.543188 -5.386e-18)
(1.03478 -0.545469 3.75908e-18)
(1.05535 -0.544914 -4.93291e-19)
(1.07321 -0.541441 -1.55855e-18)
(1.08805 -0.535386 3.91576e-19)
(1.09898 -0.528724 9.67556e-19)
(-5.77585 9.23232 -2.80854e-18)
(-3.07212 8.60107 -6.66527e-18)
(-0.0278111 6.90795 2.11108e-18)
(2.36935 4.79103 5.82524e-18)
(3.54558 2.85414 -3.31132e-18)
(3.54284 1.4141 9.7225e-19)
(2.80916 0.51097 2.54429e-18)
(1.85114 0.0378344 4.07414e-18)
(1.01251 -0.150619 -3.89251e-18)
(0.43561 -0.184988 1.54644e-18)
(0.120542 -0.158796 2.38431e-19)
(0.00341837 -0.126507 -5.79361e-19)
(0.00941266 -0.111707 2.08621e-18)
(0.0792131 -0.117369 -1.9471e-18)
(0.174106 -0.137563 -9.44752e-19)
(0.272686 -0.167296 1.27088e-18)
(0.365418 -0.202493 4.8255e-19)
(0.44944 -0.240005 3.0398e-19)
(0.524956 -0.277747 -1.85784e-18)
(0.593163 -0.314439 -3.12587e-18)
(0.655323 -0.349271 2.63458e-18)
(0.712433 -0.381705 -3.59908e-18)
(0.765172 -0.411369 1.21909e-18)
(0.813961 -0.438003 -1.92237e-18)
(0.859045 -0.461432 3.25261e-18)
(0.900564 -0.481547 -2.90402e-18)
(0.938596 -0.498298 6.29931e-18)
(0.973196 -0.511685 -2.93798e-18)
(1.00442 -0.521756 -8.56619e-19)
(1.03233 -0.528601 -3.37925e-19)
(1.057 -0.532353 -1.0286e-18)
(1.0785 -0.533233 1.38507e-18)
(1.09695 -0.53114 2.15697e-18)
(1.1121 -0.526428 5.80498e-19)
(1.12328 -0.520797 2.14396e-18)
(-0.771795 -1.72374 5.1556e-17)
(-1.53082 -0.226601 -6.18132e-18)
(-2.18269 1.33082 1.44777e-17)
(-2.36742 2.5006 -2.92145e-17)
(-1.96224 2.98097 3.13815e-17)
(-1.19271 2.78769 -3.67087e-17)
(-0.404807 2.19284 -1.76926e-17)
(0.182643 1.50385 -1.08273e-17)
(0.52172 0.923128 5.05522e-18)
(0.65356 0.521346 1.12382e-17)
(0.641677 0.279407 6.51713e-18)
(0.551335 0.143961 -4.57299e-18)
(0.441475 0.0659566 3.02859e-18)
(0.352995 0.0120889 9.32959e-19)
(0.304448 -0.0339258 -1.27692e-18)
(0.296507 -0.0769434 6.14116e-19)
(0.320034 -0.118629 -1.50568e-18)
(0.363524 -0.159338 1.8809e-18)
(0.418043 -0.19834 1.14118e-18)
(0.477697 -0.235222 -2.35471e-18)
(0.538865 -0.270119 7.12232e-19)
(0.599488 -0.303251 3.65311e-18)
(0.658397 -0.334731 -2.79887e-18)
(0.714907 -0.364498 4.6658e-18)
(0.76859 -0.392343 -5.1542e-18)
(0.819161 -0.417978 3.90656e-18)
(0.866427 -0.44111 1.87743e-18)
(0.910259 -0.461482 -3.43543e-18)
(0.950571 -0.478901 -4.71049e-20)
(0.987321 -0.493246 3.08062e-18)
(1.0205 -0.504467 -1.25638e-18)
(1.05013 -0.512579 3.10842e-18)
(1.07626 -0.517654 -1.57105e-18)
(1.09893 -0.519863 7.08251e-19)
(1.11824 -0.519086 -5.21073e-18)
(1.134 -0.515678 3.30526e-18)
(1.14576 -0.511058 -1.2377e-19)
(-2.00075 -0.591981 -2.71174e-17)
(0.811071 -2.74665 4.36754e-18)
(2.59102 -4.67174 3.3981e-17)
(2.90293 -5.84876 -2.88617e-17)
(2.75023 -6.59445 1.2875e-17)
(2.56905 -6.82799 -1.3444e-17)
(2.49015 -6.54261 -1.09483e-17)
(2.52715 -5.82964 2.01023e-17)
(2.61781 -4.83694 9.51161e-19)
(2.65241 -3.7305 -1.00985e-18)
(2.53769 -2.65978 -8.18814e-18)
(2.24336 -1.73865 9.77193e-18)
(1.8209 -1.03338 -5.81912e-18)
(1.36862 -0.556446 5.36299e-19)
(0.977174 -0.274877 -3.78728e-19)
(0.69319 -0.135127 2.4079e-19)
(0.5185 -0.0862166 4.40942e-19)
(0.431621 -0.0873108 3.0399e-19)
(0.406258 -0.111088 -1.11173e-18)
(0.41924 -0.143521 7.22292e-19)
(0.45379 -0.178613 3.36166e-19)
(0.499811 -0.213658 -7.48591e-20)
(0.55168 -0.247637 4.23082e-19)
(0.606245 -0.28033 -3.26471e-18)
(0.661634 -0.311662 3.80899e-18)
(0.716601 -0.341491 -6.98509e-18)
(0.770233 -0.36957 8.55234e-18)
(0.821778 -0.395587 -1.27826e-18)
(0.870684 -0.419257 3.01652e-18)
(0.916535 -0.440316 -4.72767e-18)
(0.959027 -0.45856 5.76827e-18)
(0.99796 -0.473851 -6.87313e-18)
(1.03322 -0.486121 2.62293e-18)
(1.06475 -0.49536 -6.23399e-19)
(1.09256 -0.501613 -1.69343e-18)
(1.11666 -0.505016 8.32876e-19)
(1.13711 -0.505442 2.83882e-18)
(1.15372 -0.503263 2.42626e-18)
(1.16629 -0.499689 3.26641e-19)
(-2.19899 1.42279 -8.68974e-18)
(-3.99941 2.8477 -3.58657e-17)
(-4.12483 3.36872 -3.96386e-18)
(-4.49635 2.97045 -1.9139e-17)
(-4.69722 1.64705 4.23235e-17)
(-3.54806 -0.377267 3.19999e-17)
(-1.17794 -2.65466 8.22553e-18)
(1.66055 -4.59445 -6.32405e-17)
(4.15782 -5.75108 5.39495e-17)
(5.74925 -5.97194 -3.28536e-17)
(6.21613 -5.39247 2.24223e-18)
(5.69248 -4.33643 -3.46544e-18)
(4.5577 -3.15261 3.34268e-19)
(3.25265 -2.09379 1.82149e-17)
(2.10835 -1.27806 -9.90916e-18)
(1.27522 -0.720627 4.14539e-18)
(0.756911 -0.380507 7.00006e-18)
(0.482634 -0.197831 -6.85633e-18)
(0.367276 -0.11759 1.3607e-18)
(0.343213 -0.0986043 1.88074e-18)
(0.366974 -0.112255 -2.7489e-18)
(0.413354 -0.140982 3.93928e-18)
(0.469214 -0.175761 -4.85883e-19)
(0.52846 -0.212211 -1.39266e-18)
(0.588477 -0.248173 -6.35057e-19)
(0.64808 -0.28261 3.81817e-18)
(0.706557 -0.315008 -2.8764e-18)
(0.763341 -0.345003 -1.91192e-18)
(0.81789 -0.372397 -4.11855e-18)
(0.869687 -0.397115 7.58473e-18)
(0.91833 -0.419024 -2.98055e-18)
(0.9635 -0.438033 -6.61577e-19)
(1.00497 -0.454095 8.65935e-19)
(1.04258 -0.467188 -1.31253e-19)
(1.07626 -0.477319 2.80899e-18)
(1.10598 -0.484534 -2.43889e-18)
(1.13173 -0.488945 -3.37507e-20)
(1.15355 -0.490413 -2.40579e-18)
(1.17122 -0.489347 8.16308e-19)
(1.18457 -0.486864 -2.28105e-18)
(-9.65144 7.20897 -5.05143e-18)
(-6.81976 6.14669 1.61143e-17)
(-2.68565 4.30763 -3.50326e-17)
(1.39778 2.27842 2.14127e-17)
(4.28658 0.604799 -1.18462e-17)
(5.49953 -0.451722 1.2031e-17)
(5.2569 -0.928619 7.24877e-18)
(4.16536 -1.00711 -9.90634e-18)
(2.84205 -0.869467 1.30587e-17)
(1.69487 -0.649504 -1.69574e-17)
(0.888153 -0.434899 1.53795e-17)
(0.415703 -0.270621 -3.14569e-18)
(0.19603 -0.167114 -4.98585e-18)
(0.137047 -0.116472 1.77939e-18)
(0.164951 -0.104689 -3.35328e-18)
(0.232009 -0.116881 8.47226e-19)
(0.312567 -0.141472 2.45737e-18)
(0.394587 -0.172001 -2.50924e-18)
(0.473474 -0.20478 7.19576e-19)
(0.548096 -0.237745 -7.39226e-19)
(0.61859 -0.269772 -6.36961e-21)
(0.685281 -0.300209 -1.78432e-18)
(0.748376 -0.328656 1.199e-18)
(0.807948 -0.354884 9.79983e-19)
(0.863906 -0.37874 -1.41898e-18)
(0.916111 -0.400093 -9.18693e-20)
(0.964421 -0.418845 -1.97339e-18)
(1.00871 -0.43492 3.04283e-18)
(1.04889 -0.448264 -4.42326e-18)
(1.0849 -0.458852 3.5605e-18)
(1.11672 -0.466687 -1.06271e-18)
(1.14435 -0.471826 -9.18531e-19)
(1.16781 -0.474085 -2.4691e-18)
(1.18694 -0.473801 4.91476e-18)
(1.20146 -0.472271 2.21018e-19)
(0.21677 -0.13429 3.22696e-19)
(0.1248 -0.147169 -1.0464e-18)
(0.112799 -0.152513 1.09051e-18)
(0.151193 -0.159393 1.45648e-18)
(0.216312 -0.170636 -5.75077e-19)
(0.29288 -0.186772 -9.57803e-19)
(0.372601 -0.206525 1.37581e-19)
(0.4514 -0.228434 -1.41276e-18)
(0.527525 -0.251553 3.12234e-19)
(0.600483 -0.275195 2.00638e-18)
(0.670065 -0.298738 -1.83746e-18)
(0.736152 -0.32175 1.55826e-18)
(0.79866 -0.343848 -2.78679e-19)
(0.857458 -0.364671 -3.48722e-20)
(0.912402 -0.383898 -3.33364e-19)
(0.963346 -0.401255 2.20048e-18)
(1.01016 -0.416517 5.94034e-20)
(1.05276 -0.42951 1.08765e-18)
(1.09105 -0.44011 1.2096e-18)
(1.125 -0.448242 -5.3574e-19)
(1.15459 -0.453907 -2.24487e-18)
(1.17982 -0.456899 3.2196e-18)
(1.20059 -0.457469 -2.49825e-18)
(1.2168 -0.456471 -2.45784e-18)
(0.599742 -0.278255 -2.31712e-18)
(0.665846 -0.296544 7.45732e-19)
(0.730411 -0.314979 5.77366e-20)
(0.792731 -0.333326 -1.11191e-18)
(0.852253 -0.351192 -1.20787e-18)
(0.908524 -0.368183 -3.07307e-19)
(0.961182 -0.38393 1.5164e-18)
(1.00994 -0.398118 5.82823e-19)
(1.05458 -0.410487 1.04201e-19)
(1.09495 -0.420839 -1.98841e-18)
(1.13094 -0.429036 -5.49547e-19)
(1.16248 -0.435023 7.24359e-19)
(1.1895 -0.438576 -3.77483e-19)
(1.21191 -0.43987 -7.09233e-19)
(1.22971 -0.439471 -7.11844e-20)
(1.13461 -0.408885 -8.15198e-19)
(1.16806 -0.415045 -4.31488e-19)
(1.19691 -0.419005 8.09098e-19)
(1.22102 -0.420894 -1.6604e-18)
(1.24047 -0.421108 4.2764e-18)
(1.08125 -0.492815 -2.3222e-19)
(1.10496 -0.489971 -5.1021e-19)
(1.12817 -0.485538 2.1268e-18)
(1.1507 -0.47959 4.3983e-19)
(1.05458 -0.531058 -4.41745e-19)
(1.08187 -0.527584 1.20789e-18)
(1.10809 -0.522018 -5.05859e-19)
(1.13303 -0.514533 -2.21854e-19)
(1.1567 -0.505202 -1.24087e-19)
(1.17895 -0.494241 1.7307e-18)
(1.19879 -0.481845 4.73329e-19)
(1.21664 -0.468573 9.46974e-19)
)
;

boundaryField
{
    inlet
    {
        type            uniformFixedValue;
        uniformValue    constant (1 0 0);
        value           nonuniform 0();
    }
    outlet
    {
        type            pressureInletOutletVelocity;
        value           nonuniform 0();
    }
    cylinder
    {
        type            fixedValue;
        value           uniform (0 0 0);
    }
    top
    {
        type            symmetryPlane;
    }
    bottom
    {
        type            symmetryPlane;
    }
    defaultFaces
    {
        type            empty;
    }
    procBoundary7to1
    {
        type            processor;
        value           nonuniform List<vector> 
13
(
(1.23404 -0.453225 -5.06575e-19)
(1.24966 -0.436664 -1.77304e-18)
(1.26293 -0.418868 -4.50322e-20)
(1.10147 -0.458715 2.25607e-18)
(1.12231 -0.455746 -4.70924e-19)
(1.1428 -0.451694 9.18961e-19)
(1.16294 -0.446568 3.46028e-18)
(1.17236 -0.472197 -6.92499e-19)
(1.17236 -0.472197 -6.92499e-19)
(1.19321 -0.463367 -2.6873e-18)
(1.21385 -0.453094 -9.80669e-19)
(1.23261 -0.44218 1.14498e-18)
(1.23404 -0.453225 -5.06575e-19)
)
;
    }
    procBoundary7to6
    {
        type            processor;
        value           nonuniform List<vector> 
24
(
(0.452055 -0.506061 2.93334e-19)
(0.479912 -0.52242 1.56731e-18)
(0.533607 -0.53997 3.49413e-18)
(0.533607 -0.53997 3.49413e-18)
(0.564132 -0.554295 -4.11724e-18)
(0.623792 -0.574067 -2.2521e-18)
(0.623792 -0.574067 -2.2521e-18)
(0.652925 -0.580743 -7.6497e-19)
(0.715735 -0.589703 1.51512e-19)
(0.715735 -0.589703 1.51512e-19)
(0.777973 -0.591201 1.3076e-18)
(0.777973 -0.591201 1.3076e-18)
(0.800915 -0.589293 -3.65731e-18)
(0.859794 -0.584255 -1.87966e-18)
(0.859794 -0.584255 -1.87966e-18)
(0.880062 -0.577934 5.96146e-18)
(0.935722 -0.569565 3.55344e-18)
(0.935722 -0.569565 3.55344e-18)
(0.954075 -0.560071 -5.72901e-19)
(1.00361 -0.549042 -6.15712e-18)
(1.00361 -0.549042 -6.15712e-18)
(1.01603 -0.539699 7.78444e-19)
(1.05724 -0.494036 -2.60774e-18)
(1.02652 -0.532232 2.03558e-18)
)
;
    }
    procBoundary7to8
    {
        type            processor;
        value           nonuniform List<vector> 
24
(
(0.297051 -0.110592 1.58827e-20)
(0.282039 -0.149562 -6.93786e-19)
(0.303216 -0.17926 -9.32147e-20)
(0.347101 -0.203163 8.4922e-19)
(0.403762 -0.223617 -1.72956e-18)
(0.466988 -0.2421 1.39311e-18)
(0.533035 -0.260087 -1.64404e-19)
(0.533035 -0.260087 -1.64404e-19)
(0.598551 -0.270063 6.5516e-19)
(0.661961 -0.286554 -8.87563e-20)
(0.725003 -0.3032 2.27477e-18)
(0.786789 -0.319752 -6.93963e-19)
(0.846561 -0.335914 -9.85681e-19)
(0.903682 -0.351382 -3.15391e-19)
(0.957627 -0.365859 -3.76336e-19)
(1.00798 -0.379071 -1.17114e-18)
(1.05441 -0.390775 2.48587e-18)
(1.09668 -0.400766 -4.30213e-18)
(1.09668 -0.400766 -4.30213e-18)
(1.13593 -0.387636 -5.30941e-19)
(1.17126 -0.393868 1.41722e-18)
(1.20196 -0.398134 -1.03913e-18)
(1.22787 -0.40052 3.71038e-19)
(1.24906 -0.4013 -1.35464e-18)
)
;
    }
    procBoundary7to13
    {
        type            processor;
        value           nonuniform List<vector> 
38
(
(0.391755 -0.436028 -1.59246e-18)
(0.431329 -0.470429 4.91594e-18)
(0.431329 -0.470429 4.91594e-18)
(0.24881 -0.365187 1.51666e-18)
(0.32093 -0.416638 -7.47234e-19)
(0.32093 -0.416638 -7.47234e-19)
(0.233879 -0.335181 -1.14939e-18)
(0.285344 -0.387908 9.94295e-19)
(0.285344 -0.387908 9.94295e-19)
(0.385914 -0.419213 -5.33984e-18)
(0.347833 -0.38577 2.23709e-18)
(0.347833 -0.38577 2.23709e-18)
(0.906701 -0.865418 3.64705e-17)
(0.450671 -0.505927 -2.73815e-17)
(0.268655 -0.322851 -7.34284e-18)
(0.268655 -0.322851 -7.34284e-18)
(1.10704 -0.814736 1.88361e-17)
(0.357597 -0.505635 -8.1964e-18)
(0.357597 -0.505635 -8.1964e-18)
(0.619091 0.237345 -3.97767e-18)
(0.545097 -0.200238 1.98069e-18)
(0.545097 -0.200238 1.98069e-18)
(0.304675 -3.29603 -1.22446e-17)
(1.18927 -3.04495 1.03522e-17)
(1.18927 -3.04495 1.03522e-17)
(2.78122 -7.00038 2.09379e-19)
(2.78122 -7.00038 2.09379e-19)
(-6.90363 6.66525 2.95373e-17)
(-3.0702 3.94303 -2.92656e-17)
(-3.0702 3.94303 -2.92656e-17)
(-6.58339 6.49072 7.79201e-19)
(-7.1792 8.49641 -2.75196e-18)
(-7.1792 8.49641 -2.75196e-18)
(0.653558 -2.22129 -2.43228e-17)
(0.0403006 -2.48311 2.63875e-17)
(0.0403006 -2.48311 2.63875e-17)
(-2.12367 0.38608 -4.26949e-18)
(-2.12367 0.38608 -4.26949e-18)
)
;
    }
    procBoundary7to14
    {
        type            processor;
        value           nonuniform List<vector> 
20
(
(1.24483 0.255885 3.42923e-18)
(0.0784321 1.6012 -1.36931e-17)
(-4.08098 3.97489 2.63214e-17)
(-8.19703 6.10928 1.52974e-17)
(-10.1995 7.17408 -1.41234e-17)
(-10.1995 7.17408 -1.41234e-17)
(-6.26351 6.08428 5.09734e-18)
(-5.49328 7.07671 7.96911e-18)
(-3.60942 6.99174 -7.38318e-19)
(-1.24966 5.97155 -1.61521e-18)
(0.720311 4.4799 -2.98938e-18)
(1.79449 2.98038 4.48344e-18)
(2.01129 1.74971 -8.86258e-18)
(1.70599 0.878346 4.68821e-18)
(1.21752 0.338293 4.47116e-19)
(0.758622 0.0465355 -1.36895e-18)
(0.420497 -0.0868166 1.03529e-18)
(0.420497 -0.0868166 1.03529e-18)
(0.480156 -0.000984365 -8.60609e-19)
(0.36133 -0.0606847 -4.73225e-20)
)
;
    }
}


// ************************************************************************* //
