/*--------------------------------*- C++ -*----------------------------------*\
  =========                 |
  \\      /  F ield         | OpenFOAM: The Open Source CFD Toolbox
   \\    /   O peration     | Website:  https://openfoam.org
    \\  /    A nd           | Version:  7
     \\/     M anipulation  |
\*---------------------------------------------------------------------------*/
FoamFile
{
    version     2.0;
    format      ascii;
    class       volScalarField;
    location    "95.999918";
    object      p;
}
// * * * * * * * * * * * * * * * * * * * * * * * * * * * * * * * * * * * * * //

dimensions      [0 2 -2 0 0 0 0];

internalField   nonuniform List<scalar> 
5800
(
-0.235052
-0.236853
-0.23794
-0.238786
-0.239523
-0.240173
-0.240774
-0.241353
-0.241919
-0.242468
0.67593
0.659036
0.648697
0.637744
0.623803
0.606798
0.587124
0.565384
0.542196
0.518101
0.493555
0.675867
0.658977
0.648643
0.637698
0.623765
0.60677
0.587103
0.56537
0.542188
0.518098
0.493556
0.46894
0.444556
0.420649
0.397415
0.374997
0.353502
0.33302
0.313632
0.295362
0.671063
0.654318
0.644209
0.633565
0.619968
0.603307
0.583958
0.56252
0.539609
0.515767
0.491452
0.467041
0.442843
0.419105
0.396022
0.37374
0.352364
0.33198
0.312684
0.294548
0.661562
0.6451
0.635433
0.625379
0.612441
0.596438
0.577713
0.556855
0.534477
0.511125
0.487256
0.463252
0.439423
0.416018
0.393235
0.371225
0.350087
0.329901
0.31079
0.292923
0.647445
0.631402
0.622387
0.613205
0.601242
0.586215
0.568415
0.548415
0.52683
0.504203
0.480998
0.457598
0.434316
0.411407
0.389073
0.367467
0.346684
0.326794
0.30796
0.290487
0.628835
0.613342
0.605179
0.597141
0.586459
0.572713
0.556131
0.537263
0.51672
0.49505
0.47272
0.450116
0.427557
0.405302
0.383559
0.362488
0.342176
0.322679
0.30421
0.287248
0.605892
0.591074
0.583953
0.577316
0.568206
0.556036
0.540953
0.523479
0.504221
0.48373
0.462477
0.440855
0.419189
0.397741
0.376729
0.356318
0.33659
0.31758
0.299559
0.283215
0.578815
0.56479
0.558885
0.553887
0.546622
0.536309
0.522992
0.507162
0.48942
0.47032
0.450339
0.429878
0.409265
0.388771
0.368622
0.348992
0.329957
0.311529
0.294035
0.2784
0.547837
0.534714
0.530183
0.527042
0.521876
0.513679
0.50238
0.488429
0.47242
0.454912
0.436388
0.417254
0.397848
0.378448
0.359289
0.340555
0.322316
0.304561
0.287666
0.272821
0.513227
0.501105
0.498085
0.496996
0.494159
0.488316
0.479268
0.467415
0.453342
0.437612
0.420716
0.403068
0.385012
0.366836
0.348785
0.331055
0.313711
0.296714
0.280485
0.266499
0.475285
0.464253
0.462861
0.463988
0.463683
0.460412
0.453825
0.444269
0.432318
0.418539
0.403428
0.38741
0.370837
0.354006
0.337172
0.320546
0.304191
0.288034
0.272532
0.259459
0.434339
0.424473
0.424802
0.428285
0.430685
0.430173
0.426236
0.419157
0.409495
0.39782
0.384638
0.370381
0.355412
0.340036
0.324521
0.309091
0.293809
0.278569
0.263846
0.251728
0.390745
0.382111
0.384229
0.390173
0.39542
0.397827
0.396703
0.392257
0.385031
0.375597
0.36447
0.352092
0.338834
0.325011
0.310905
0.296754
0.282624
0.268372
0.254474
0.24334
0.344883
0.337532
0.341481
0.349958
0.35816
0.363616
0.36544
0.363759
0.359094
0.352019
0.343056
0.332657
0.321204
0.309022
0.296403
0.283605
0.270698
0.257498
0.244463
0.234327
0.29715
0.291123
0.296917
0.307965
0.319193
0.327794
0.332672
0.333864
0.331862
0.327243
0.320534
0.3122
0.302632
0.292163
0.2811
0.269717
0.258097
0.246007
0.233866
0.224727
0.247962
0.243284
0.250913
0.264532
0.27882
0.290628
0.298637
0.30278
0.303521
0.301432
0.29705
0.290848
0.283228
0.274534
0.265082
0.255169
0.244891
0.233965
0.222739
0.214578
0.197747
0.194432
0.203857
0.220011
0.237354
0.252393
0.263577
0.270725
0.274262
0.274756
0.272753
0.268733
0.263111
0.256237
0.248439
0.240037
0.23115
0.221442
0.211142
0.203917
0.146941
0.144988
0.156146
0.17476
0.195113
0.213372
0.227742
0.237918
0.244279
0.247388
0.247794
0.245989
0.242397
0.237377
0.231264
0.224401
0.216949
0.208517
0.199152
0.192779
0.0959859
0.0953796
0.108182
0.129147
0.152423
0.173851
0.191386
0.204584
0.213772
0.219503
0.22233
0.222753
0.221208
0.218061
0.21365
0.208341
0.202353
0.195271
0.186861
0.181173
0.0453209
0.0460315
0.0603697
0.0835396
0.109612
0.13412
0.154763
0.170947
0.182939
0.191276
0.196515
0.199162
0.199663
0.198393
0.195692
0.191934
0.187419
0.181785
0.174446
0.169133
-0.00461544
-0.00263731
0.0131113
0.0383047
0.0670064
0.0944667
0.118127
0.137231
0.151978
0.162883
0.170503
0.175351
0.177881
0.178481
0.177486
0.175267
0.172199
0.168105
0.162125
0.156585
-0.0533877
-0.0502179
-0.0331985
-0.00619568
0.0249295
0.0551752
0.0817267
0.103658
0.121083
0.134495
0.144447
0.151455
0.155982
0.158426
0.159125
0.158427
0.156733
0.154151
0.150072
0.143988
-0.100606
-0.0962862
-0.0781839
-0.0496098
-0.0163025
0.0165238
0.0458075
0.0704416
0.0904464
0.106282
0.118495
0.127605
0.13408
0.138328
0.140695
0.141504
0.141134
0.139918
0.137729
0.13331
-0.146132
-0.140313
-0.121514
-0.0915998
-0.0563848
-0.0212187
0.0106055
0.0377908
0.0602505
0.0784047
0.0927908
0.103928
0.112288
0.118286
0.12228
0.124579
0.125519
0.125545
0.124985
0.122532
-0.189285
-0.182062
-0.16294
-0.131861
-0.0950292
-0.0577957
-0.0236534
0.00590477
0.0306718
0.05102
0.0674724
0.0805457
0.090712
0.0983938
0.103959
0.107714
0.109956
0.111148
0.111883
0.111014
-0.229712
-0.221348
-0.201784
-0.170222
-0.13197
-0.0929631
-0.0567553
-0.0250282
0.00187677
0.0242748
0.0426698
0.0575731
0.0694557
0.0787421
0.0858087
0.0909673
0.0944854
0.0968022
0.0986367
0.0990314
-0.267169
-0.257854
-0.237905
-0.20613
-0.167017
-0.126494
-0.0884988
-0.0548318
-0.0259792
-0.0016932
0.018505
0.0351183
0.0486139
0.0594157
0.0679045
0.0743985
0.0791491
0.0825606
0.0854073
0.0869256
-0.301466
-0.291288
-0.271163
-0.239334
-0.199829
-0.158195
-0.118699
-0.0833429
-0.0527526
-0.0267572
-0.00490933
0.0132812
0.0282756
0.0404938
0.0503175
0.0580705
0.0639964
0.0684647
0.0722695
0.0748391
-0.332415
-0.321433
-0.301348
-0.26976
-0.230129
-0.187859
-0.147185
-0.110414
-0.0783133
-0.0508024
-0.0274712
-0.00784681
0.00852194
0.0220489
0.0331137
0.0420435
0.0490784
0.0545529
0.0592591
0.0628145
-0.359857
-0.348134
-0.328275
-0.297237
-0.257834
-0.215275
-0.173811
-0.135915
-0.102545
-0.0737259
-0.0490898
-0.0281837
-0.0105736
0.00414698
0.0163527
0.0263721
0.0344431
0.0408642
0.0464095
0.0508861
-0.383684
-0.37129
-0.351815
-0.321604
-0.282811
-0.240337
-0.198443
-0.159746
-0.125346
-0.0954378
-0.0696864
-0.0476563
-0.0289466
-0.0131535
8.75732e-05
0.0111045
0.0201345
0.0274379
0.0337584
0.0390948
-0.403843
-0.390856
-0.371897
-0.342756
-0.304936
-0.262945
-0.220984
-0.181808
-0.146672
-0.115849
-0.0891939
-0.0662008
-0.0465416
-0.029801
-0.0156354
-0.00371667
0.00619187
0.014311
0.0213414
0.0274803
-0.420337
-0.406841
-0.388504
-0.360644
-0.324131
-0.283012
-0.241357
-0.202021
-0.16643
-0.134974
-0.107537
-0.0837646
-0.0633123
-0.0457509
-0.0307764
-0.0180544
-0.00735067
0.00151757
0.0091874
0.0160756
-0.433228
-0.419309
-0.401676
-0.375268
-0.34036
-0.300484
-0.259506
-0.220336
-0.184558
-0.152705
-0.124727
-0.100345
-0.079209
-0.0609678
-0.045302
-0.0318772
-0.0204655
-0.0109107
-0.00268355
0.00490522
-0.442627
-0.42838
-0.411506
-0.386678
-0.353629
-0.315341
-0.2754
-0.236724
-0.201034
-0.169012
-0.140706
-0.115891
-0.0942432
-0.0754419
-0.0591796
-0.0451603
-0.0331332
-0.0229454
-0.0142487
-0.00602177
-0.4487
-0.434222
-0.418139
-0.394974
-0.363989
-0.327593
-0.289035
-0.251175
-0.215853
-0.183891
-0.155453
-0.130374
-0.108373
-0.0891493
-0.0724163
-0.0578985
-0.0453366
-0.0345754
-0.0254628
-0.0167253
-0.45166
-0.437053
-0.421771
-0.400304
-0.371528
-0.337287
-0.300429
-0.263699
-0.229018
-0.197348
-0.168969
-0.143793
-0.121584
-0.10207
-0.0849841
-0.0700689
-0.0570778
-0.0458495
-0.0362235
-0.0272621
-0.451757
-0.437129
-0.42264
-0.402864
-0.376383
-0.344501
-0.309625
-0.274322
-0.240549
-0.209398
-0.181269
-0.156158
-0.133882
-0.114202
-0.0968737
-0.0816589
-0.0683271
-0.0567072
-0.0466511
-0.0375199
-0.449278
-0.43474
-0.421022
-0.402889
-0.378727
-0.34935
-0.316694
-0.283087
-0.250479
-0.220067
-0.192373
-0.167485
-0.14528
-0.125555
-0.10809
-0.0926682
-0.0790763
-0.0671432
-0.056748
-0.0473409
-0.444535
-0.430199
-0.417224
-0.400651
-0.378771
-0.351977
-0.32173
-0.290059
-0.258854
-0.229393
-0.202313
-0.1778
-0.155797
-0.136142
-0.118643
-0.103105
-0.0893321
-0.0771588
-0.0664835
-0.0567718
-0.437856
-0.423834
-0.41157
-0.39645
-0.376763
-0.352562
-0.324849
-0.295317
-0.265734
-0.237423
-0.211128
-0.187134
-0.165458
-0.145983
-0.128549
-0.112982
-0.099105
-0.0867586
-0.0758601
-0.0658987
-0.429576
-0.415979
-0.404394
-0.390603
-0.372973
-0.351309
-0.326194
-0.298957
-0.271188
-0.244213
-0.218864
-0.195528
-0.174296
-0.155105
-0.137828
-0.122315
-0.108408
-0.095955
-0.0848959
-0.0747644
-0.420029
-0.406961
-0.396028
-0.383436
-0.367695
-0.34845
-0.32593
-0.301089
-0.275295
-0.249825
-0.225575
-0.203025
-0.182348
-0.163538
-0.146504
-0.131124
-0.117259
-0.104764
-0.0936039
-0.0833775
-0.409537
-0.397094
-0.386793
-0.375272
-0.361229
-0.344236
-0.32424
-0.301842
-0.278144
-0.254327
-0.231317
-0.209675
-0.189656
-0.171317
-0.154608
-0.139433
-0.125678
-0.113204
-0.101993
-0.0917336
-0.398404
-0.386671
-0.376989
-0.36642
-0.353879
-0.33893
-0.321327
-0.301356
-0.279833
-0.257792
-0.236149
-0.215529
-0.196266
-0.178481
-0.16217
-0.147269
-0.133686
-0.121292
-0.110076
-0.0998339
-0.386908
-0.375955
-0.366886
-0.357166
-0.345933
-0.332801
-0.317409
-0.299786
-0.280466
-0.260294
-0.240131
-0.220639
-0.202223
-0.185071
-0.169227
-0.154661
-0.141307
-0.129049
-0.11787
-0.10769
-0.375298
-0.36518
-0.356722
-0.347766
-0.337662
-0.32611
-0.312709
-0.297301
-0.280159
-0.261912
-0.243322
-0.225056
-0.207574
-0.191128
-0.175815
-0.161642
-0.148569
-0.1365
-0.125398
-0.115318
-0.363787
-0.354542
-0.346697
-0.338438
-0.329307
-0.319106
-0.307454
-0.294078
-0.279034
-0.262728
-0.245782
-0.228829
-0.212362
-0.196692
-0.181971
-0.168243
-0.1555
-0.143668
-0.132682
-0.12274
-0.352555
-0.344201
-0.336973
-0.329361
-0.32107
-0.312011
-0.301861
-0.290301
-0.277225
-0.262828
-0.247568
-0.232001
-0.216627
-0.201802
-0.187732
-0.1745
-0.162129
-0.15058
-0.139749
-0.129976
-0.341744
-0.334284
-0.327673
-0.320671
-0.313116
-0.305018
-0.296134
-0.286153
-0.27487
-0.262305
-0.248737
-0.234614
-0.220405
-0.206493
-0.19313
-0.180444
-0.168488
-0.157264
-0.146624
-0.13705
-0.331463
-0.324882
-0.318886
-0.312467
-0.305569
-0.298279
-0.290448
-0.281809
-0.272115
-0.261259
-0.249351
-0.236704
-0.223724
-0.210792
-0.198196
-0.186107
-0.174605
-0.163747
-0.153334
-0.143986
-0.32179
-0.316059
-0.310669
-0.304813
-0.298511
-0.291911
-0.284949
-0.277427
-0.269104
-0.259795
-0.249474
-0.238308
-0.226607
-0.214721
-0.202953
-0.191515
-0.18051
-0.170056
-0.159905
-0.15081
-0.312777
-0.307854
-0.303053
-0.297742
-0.291991
-0.28599
-0.279749
-0.273144
-0.265973
-0.258026
-0.249177
-0.239461
-0.22907
-0.218292
-0.207418
-0.196688
-0.186226
-0.176219
-0.166367
-0.157549
-0.304449
-0.300282
-0.296049
-0.291263
-0.286029
-0.28056
-0.274923
-0.269067
-0.262847
-0.256063
-0.24854
-0.240205
-0.231128
-0.221507
-0.211594
-0.20164
-0.191775
-0.182258
-0.172745
-0.164232
-0.296816
-0.293344
-0.289648
-0.285366
-0.280622
-0.275635
-0.270516
-0.265274
-0.259828
-0.254015
-0.24765
-0.240588
-0.232795
-0.224365
-0.215476
-0.206372
-0.197167
-0.188194
-0.179067
-0.170886
-0.289872
-0.28703
-0.283835
-0.280029
-0.275749
-0.271209
-0.266544
-0.261814
-0.256995
-0.251978
-0.246594
-0.240671
-0.234095
-0.226857
-0.219046
-0.210868
-0.202401
-0.19404
-0.185353
-0.177547
-0.283599
-0.281317
-0.278583
-0.275225
-0.271383
-0.26726
-0.263005
-0.258712
-0.254407
-0.250032
-0.24546
-0.240522
-0.235059
-0.228983
-0.222282
-0.215103
-0.207459
-0.199794
-0.191624
-0.184238
-0.277973
-0.276179
-0.273862
-0.270919
-0.267488
-0.263758
-0.259881
-0.255973
-0.252096
-0.248241
-0.244328
-0.240216
-0.235735
-0.230749
-0.225156
-0.219034
-0.212306
-0.20544
-0.197869
-0.191031
-0.27296
-0.271583
-0.269637
-0.267076
-0.26403
-0.26067
-0.257148
-0.253589
-0.250079
-0.24665
-0.243265
-0.239826
-0.236181
-0.232178
-0.22765
-0.222614
-0.216879
-0.210938
-0.20408
-0.197916
-0.268521
-0.267493
-0.265874
-0.263659
-0.260971
-0.257962
-0.254776
-0.251542
-0.24836
-0.245287
-0.242327
-0.239425
-0.236466
-0.233309
-0.229765
-0.225791
-0.221119
-0.216188
-0.210205
-0.205048
-0.264612
-0.263868
-0.262533
-0.260632
-0.258276
-0.255598
-0.252733
-0.249808
-0.246927
-0.244164
-0.241553
-0.239076
-0.236662
-0.234202
-0.23152
-0.228538
-0.224935
-0.221134
-0.216044
-0.212203
-0.261179
-0.260666
-0.259573
-0.257955
-0.255907
-0.253543
-0.250987
-0.248359
-0.245764
-0.243282
-0.240965
-0.238827
-0.236836
-0.234926
-0.232962
-0.230841
-0.228317
-0.225456
-0.222142
-0.218198
-0.258174
-0.257837
-0.256953
-0.255591
-0.253826
-0.251759
-0.249501
-0.247163
-0.244844
-0.242627
-0.240571
-0.238711
-0.237049
-0.235556
-0.234162
-0.232719
-0.23129
-0.22901
-0.228054
-0.22323
-0.255537
-0.255338
-0.25463
-0.253498
-0.251996
-0.25021
-0.24824
-0.246185
-0.244137
-0.242175
-0.240361
-0.238741
-0.23734
-0.236158
-0.235203
-0.234233
-0.23388
-0.231712
-0.233293
-0.227541
-0.253208
-0.253113
-0.252566
-0.251638
-0.250379
-0.248859
-0.247165
-0.245385
-0.243604
-0.241892
-0.240311
-0.23891
-0.237727
-0.236782
-0.236158
-0.235483
-0.23612
-0.233644
-0.237966
-0.230991
-0.251132
-0.251123
-0.250718
-0.249973
-0.248939
-0.247669
-0.246239
-0.244727
-0.243207
-0.241742
-0.240388
-0.239195
-0.238206
-0.237455
-0.237076
-0.236584
-0.238035
-0.235067
-0.242131
-0.233472
-0.249256
-0.249326
-0.249045
-0.248472
-0.247644
-0.246608
-0.245428
-0.244173
-0.242905
-0.241682
-0.240552
-0.239562
-0.238754
-0.238176
-0.237979
-0.237638
-0.239627
-0.236329
-0.24557
-0.235178
-0.247536
-0.247683
-0.247519
-0.247102
-0.246465
-0.245646
-0.244701
-0.243689
-0.242664
-0.241674
-0.240762
-0.23997
-0.239339
-0.238923
-0.238863
-0.238697
-0.240901
-0.237704
-0.24801
-0.236601
-0.245933
-0.246166
-0.246112
-0.24584
-0.24538
-0.244762
-0.244034
-0.243248
-0.242451
-0.241683
-0.24098
-0.240379
-0.23992
-0.239662
-0.239713
-0.239749
-0.241902
-0.239258
-0.249425
-0.238218
-0.244421
-0.244751
-0.244806
-0.244669
-0.24437
-0.243936
-0.243408
-0.242831
-0.242244
-0.241682
-0.241176
-0.240756
-0.240461
-0.240348
-0.240503
-0.240744
-0.242701
-0.240876
-0.250048
-0.240173
-0.242981
-0.243423
-0.243586
-0.243576
-0.243426
-0.243159
-0.242811
-0.242423
-0.242027
-0.241654
-0.241327
-0.241075
-0.240931
-0.240952
-0.241204
-0.241625
-0.243349
-0.242379
-0.250196
-0.24228
-0.241608
-0.242177
-0.242448
-0.242558
-0.242544
-0.242427
-0.242241
-0.242021
-0.241796
-0.24159
-0.241424
-0.241321
-0.241313
-0.241451
-0.241791
-0.242345
-0.243871
-0.243619
-0.250092
-0.24423
-0.240303
-0.241012
-0.241393
-0.241616
-0.241726
-0.241743
-0.2417
-0.241627
-0.241552
-0.241492
-0.241466
-0.241493
-0.241601
-0.241836
-0.242247
-0.24288
-0.244273
-0.244501
-0.249862
-0.245796
-0.239078
-0.239938
-0.240427
-0.240756
-0.240979
-0.241115
-0.241197
-0.241253
-0.241306
-0.241373
-0.241466
-0.241602
-0.241805
-0.242114
-0.242572
-0.243232
-0.244543
-0.245001
-0.249559
-0.246831
-0.237952
-0.238968
-0.239564
-0.239991
-0.240316
-0.240558
-0.240747
-0.240913
-0.241076
-0.241249
-0.241442
-0.241667
-0.241943
-0.242303
-0.242786
-0.243471
-0.244584
-0.245211
-0.249147
-0.247329
-0.236949
-0.238121
-0.238819
-0.239337
-0.239754
-0.240087
-0.240369
-0.240629
-0.240885
-0.241146
-0.24142
-0.241715
-0.242045
-0.242433
-0.242917
-0.243569
-0.244488
-0.245362
-0.248256
-0.247519
-0.236097
-0.23742
-0.238213
-0.238813
-0.23931
-0.239722
-0.240084
-0.240423
-0.240756
-0.241091
-0.24143
-0.241779
-0.242144
-0.242542
-0.243001
-0.243579
-0.244327
-0.245224
-0.247221
-0.235424
-0.236886
-0.237765
-0.238438
-0.239004
-0.239485
-0.239914
-0.24032
-0.240717
-0.241112
-0.241504
-0.241892
-0.242278
-0.242668
-0.243082
-0.243556
-0.244128
-0.244869
-0.246191
-0.23496
-0.236544
-0.237498
-0.238232
-0.238857
-0.239395
-0.239881
-0.240343
-0.240794
-0.241238
-0.241672
-0.242089
-0.242482
-0.242851
-0.243201
-0.24355
-0.243924
-0.244401
-0.24516
-0.23473
-0.236414
-0.237428
-0.238212
-0.238886
-0.239471
-0.240004
-0.240512
-0.241008
-0.241494
-0.241961
-0.242398
-0.242792
-0.243129
-0.243401
-0.243608
-0.243757
-0.243904
-0.244127
-0.234755
-0.236513
-0.237571
-0.238393
-0.239104
-0.239727
-0.240298
-0.240845
-0.241379
-0.241899
-0.242394
-0.242846
-0.243234
-0.243533
-0.243719
-0.243771
-0.243672
-0.243447
-0.243115
0.138623
0.141568
0.148758
0.15511
0.163425
0.168828
0.174088
0.173855
0.172738
0.162759
0.139819
0.142838
0.150282
0.156946
0.165823
0.172048
0.178536
0.179887
0.181055
0.1736
0.141011
0.144038
0.151742
0.158692
0.168153
0.175142
0.182838
0.185626
0.188831
0.1838
0.142154
0.145198
0.153173
0.160402
0.170433
0.178153
0.186995
0.191185
0.196232
0.193604
0.143252
0.146307
0.154551
0.162042
0.172618
0.181035
0.190954
0.196523
0.203244
0.202965
0.1443
0.147372
0.155874
0.163611
0.174706
0.183793
0.19471
0.201626
0.209876
0.211857
0.145297
0.148355
0.157143
0.165107
0.176691
0.186419
0.198254
0.206475
0.216128
0.220261
0.146241
0.149289
0.158324
0.166522
0.178564
0.188908
0.201577
0.21105
0.221996
0.228154
0.14713
0.150175
0.159507
0.167861
0.180318
0.19125
0.204673
0.215332
0.227469
0.235514
0.147962
0.150981
0.160442
0.169114
0.181948
0.193439
0.207538
0.219306
0.232537
0.242322
0.148731
0.151735
0.161475
0.170269
0.183447
0.195465
0.210166
0.222957
0.237187
0.248558
0.149436
0.152423
0.162339
0.171319
0.184809
0.197319
0.212552
0.226273
0.241405
0.254206
0.150072
0.153042
0.163142
0.17227
0.186032
0.198994
0.214693
0.229244
0.245181
0.25925
0.150638
0.153592
0.163846
0.173112
0.187112
0.20048
0.216582
0.231861
0.248504
0.263678
0.15113
0.15407
0.164459
0.173846
0.188045
0.20177
0.218215
0.234118
0.251364
0.267481
0.151546
0.154474
0.164975
0.174465
0.18883
0.202858
0.219587
0.236008
0.253757
0.270652
0.151885
0.154803
0.165394
0.174968
0.189464
0.203737
0.220693
0.237526
0.255675
0.273189
0.152145
0.155055
0.165713
0.175353
0.189946
0.204405
0.221529
0.23867
0.257117
0.275091
0.152325
0.15523
0.165934
0.175615
0.19027
0.204854
0.222091
0.239435
0.258078
0.276355
0.152424
0.155326
0.166048
0.175758
0.190446
0.205091
0.222383
0.239826
0.258567
0.276992
0.0364798
0.0352552
0.033244
0.030865
0.0283783
0.0259637
0.023706
0.0216539
0.0198158
0.0181907
0.0365988
0.0353707
0.0333501
0.0309613
0.0284634
0.0260386
0.0237705
0.0217092
0.019862
0.0182287
0.0368302
0.0355945
0.0335569
0.0311488
0.0286298
0.0261846
0.0238965
0.0218167
0.0199524
0.0183041
0.0371677
0.0359212
0.0338594
0.0314231
0.0288734
0.0263984
0.024081
0.0219742
0.0200849
0.0184149
0.037606
0.0363457
0.034253
0.0317803
0.0291908
0.0266769
0.0243214
0.0221795
0.0202578
0.0185594
0.0381403
0.0368636
0.0347335
0.0322168
0.0295789
0.0270176
0.0246155
0.0224308
0.0204694
0.0187363
0.0387662
0.0374708
0.0352974
0.0327295
0.0300351
0.0274183
0.0249617
0.0227266
0.0207185
0.0189445
0.0394795
0.0381635
0.0359413
0.0333156
0.0305572
0.0278773
0.0253583
0.0230657
0.021004
0.0191831
0.0402766
0.0389384
0.0366623
0.0339727
0.0311431
0.0283929
0.0258042
0.023447
0.0213251
0.0194514
0.0411538
0.0397923
0.0374576
0.0346987
0.0317913
0.028964
0.0262983
0.0238698
0.0216812
0.0197489
0.042108
0.0407225
0.0383248
0.0354916
0.0325002
0.0295894
0.0268399
0.0243334
0.0220717
0.0200752
0.0431361
0.0417263
0.0392617
0.0363497
0.0332686
0.0302683
0.0274283
0.0248375
0.0224964
0.0204301
0.044235
0.042801
0.0402659
0.0372714
0.0340955
0.0310001
0.0280632
0.0253818
0.0229551
0.0208135
0.0454019
0.0439444
0.0413357
0.0382555
0.03498
0.0317843
0.0287443
0.0259664
0.023448
0.0212255
0.046634
0.045154
0.042469
0.0393007
0.0359215
0.0326206
0.0294715
0.0265911
0.023975
0.0216664
0.0479287
0.0464277
0.043664
0.0404058
0.0369193
0.0335088
0.0302449
0.0272564
0.0245367
0.0221365
0.0492832
0.0477631
0.044919
0.04157
0.037973
0.0344488
0.0310647
0.0279626
0.0251334
0.0226362
0.0506949
0.0491581
0.0462321
0.0427923
0.0390823
0.0354409
0.0319313
0.0287101
0.0257657
0.0231664
0.0521613
0.0506105
0.0476018
0.0440718
0.0402468
0.0364851
0.032845
0.0294998
0.0264343
0.0237276
0.0536797
0.052118
0.0490263
0.0454079
0.0414665
0.0375817
0.0338065
0.0303323
0.0271402
0.0243208
0.0552475
0.0536782
0.050504
0.0467998
0.0427412
0.0387311
0.0348165
0.0312085
0.0278843
0.024947
0.0568621
0.055289
0.0520332
0.048247
0.0440708
0.0399338
0.0358757
0.0321296
0.0286677
0.0256074
0.0585208
0.0569479
0.0536122
0.0497487
0.0454554
0.0411903
0.0369851
0.0330966
0.0294918
0.0263033
0.060221
0.0586524
0.0552394
0.0513045
0.0468948
0.0425012
0.0381457
0.034111
0.0303578
0.0270361
0.0619599
0.0603999
0.0569131
0.0529136
0.048389
0.0438672
0.0393585
0.035174
0.0312673
0.0278072
0.0637349
0.062188
0.0586316
0.0545755
0.0499381
0.0452889
0.0406249
0.0362873
0.0322219
0.0286184
0.0655432
0.0640138
0.0603934
0.0562896
0.0515421
0.0467672
0.0419461
0.0374525
0.0332234
0.0294715
0.067382
0.0658746
0.0621968
0.058055
0.0532008
0.0483029
0.0433234
0.0386712
0.0342736
0.0303683
0.0692485
0.0677676
0.06404
0.0598711
0.0549142
0.0498969
0.0447585
0.0399454
0.0353745
0.0313109
0.0711399
0.0696899
0.0659215
0.061737
0.0566823
0.0515501
0.0462528
0.041277
0.0365282
0.0323014
0.0730532
0.0716386
0.0678394
0.0636516
0.0585049
0.0532636
0.047808
0.0426681
0.0377369
0.0333422
0.0749855
0.0736106
0.0697922
0.0656139
0.0603818
0.0550382
0.0494256
0.0441208
0.0390029
0.0344357
0.0769341
0.075603
0.0717781
0.0676227
0.0623128
0.0568751
0.0511075
0.0456372
0.0403289
0.0355844
0.0788958
0.0776126
0.0737954
0.0696766
0.0642979
0.0587752
0.0528553
0.0472197
0.0417172
0.036791
0.0808677
0.0796366
0.0758421
0.0717741
0.0663366
0.0607395
0.0546707
0.0488707
0.0431707
0.0380584
0.082847
0.0816719
0.0779165
0.0739134
0.0684287
0.0627689
0.0565555
0.0505926
0.0446921
0.0393896
0.0848306
0.0837153
0.0800165
0.0760928
0.0705739
0.0648644
0.0585115
0.052388
0.0462845
0.0407876
0.0868156
0.0857641
0.0821403
0.0783104
0.0727718
0.0670266
0.0605404
0.0542594
0.0479509
0.0422557
0.0887992
0.0878152
0.0842857
0.0805638
0.0750219
0.0692563
0.0626439
0.0562096
0.0496945
0.0437973
0.0907784
0.0898657
0.0864505
0.082851
0.0773239
0.0715539
0.0648236
0.0582412
0.0515187
0.045416
0.0927503
0.0919129
0.0886324
0.0851696
0.0796769
0.0739199
0.0670812
0.0603572
0.0534268
0.0471153
0.0947123
0.093954
0.0908291
0.0875169
0.0820804
0.0763545
0.0694183
0.0625602
0.0554225
0.0488992
0.0966616
0.0959863
0.0930382
0.0898904
0.0845336
0.0788575
0.0718365
0.0648532
0.0575093
0.0507716
0.0985954
0.0980071
0.0952569
0.0922873
0.0870354
0.0814287
0.0743372
0.067239
0.0596908
0.0527364
0.100511
0.100014
0.0974828
0.094705
0.0895847
0.0840677
0.0769219
0.0697206
0.061971
0.0547981
0.102407
0.102005
0.0997129
0.0971403
0.0921802
0.0867738
0.0795918
0.0723007
0.0643536
0.0569609
0.104279
0.103977
0.101944
0.0995906
0.0948205
0.0895458
0.0823482
0.0749822
0.0668425
0.0592294
0.106127
0.105928
0.104175
0.102053
0.0975037
0.0923825
0.0851923
0.0777679
0.0694415
0.0616082
0.107947
0.107856
0.1064
0.104523
0.100228
0.0952823
0.088125
0.0806602
0.0721547
0.064102
0.109738
0.109759
0.108619
0.107
0.102991
0.0982434
0.0911472
0.0836617
0.0749857
0.0667159
0.111498
0.111635
0.110827
0.109479
0.10579
0.101264
0.0942595
0.0867748
0.0779386
0.0694549
0.113225
0.113483
0.113021
0.111958
0.108623
0.10434
0.0974626
0.0900015
0.0810171
0.0723242
0.114917
0.115299
0.115199
0.114433
0.111486
0.107471
0.100757
0.0933436
0.0842251
0.0753294
0.116573
0.117084
0.117357
0.116901
0.114375
0.110653
0.104142
0.0968026
0.0875663
0.078476
0.118191
0.118835
0.119492
0.119359
0.117289
0.113882
0.107617
0.10038
0.0910445
0.08177
0.119771
0.120551
0.121602
0.121805
0.120221
0.117155
0.111183
0.104076
0.0946635
0.0852172
0.121311
0.12223
0.123684
0.124234
0.123169
0.120469
0.114839
0.107891
0.0984272
0.088824
0.122811
0.123872
0.125735
0.126645
0.126127
0.123818
0.118582
0.111824
0.10234
0.0925966
0.124269
0.125475
0.127752
0.129033
0.129092
0.1272
0.122412
0.115876
0.106406
0.0965416
0.125686
0.127038
0.129732
0.131397
0.132056
0.130609
0.126326
0.120045
0.11063
0.100666
0.127059
0.12856
0.131674
0.133732
0.135017
0.134041
0.130321
0.124328
0.115018
0.104974
0.12839
0.130041
0.133576
0.136037
0.137967
0.137491
0.134393
0.128723
0.119577
0.109474
0.129678
0.13148
0.135434
0.138308
0.140902
0.140953
0.138538
0.133228
0.124315
0.114168
0.130922
0.132876
0.137248
0.140543
0.143816
0.144424
0.142751
0.137839
0.129243
0.11906
0.132123
0.134228
0.139016
0.142738
0.146703
0.147897
0.147024
0.142553
0.134376
0.124163
0.133282
0.135537
0.140736
0.144893
0.149559
0.151369
0.151352
0.147369
0.139728
0.129488
0.134397
0.136803
0.142408
0.147006
0.15238
0.154838
0.155729
0.152284
0.145303
0.134997
0.135469
0.138024
0.144031
0.149074
0.155157
0.158291
0.160127
0.157275
0.151084
0.140506
0.136498
0.139197
0.145593
0.151074
0.157857
0.161679
0.164486
0.162301
0.157142
0.145895
0.137489
0.140312
0.147079
0.152973
0.160449
0.164975
0.168843
0.167475
0.163951
0.152199
0.0171157
0.0164969
0.0158722
0.0152441
0.0146134
0.0139798
0.0133434
0.0127046
0.012064
0.011422
0.0107791
0.0101356
0.00949216
0.00884902
0.00820662
0.00756539
0.00692571
0.00628805
0.00565288
0.00502084
0.0171492
0.0165293
0.0159032
0.0152743
0.0146428
0.0140084
0.0133709
0.0127307
0.0120882
0.0114441
0.0107987
0.0101525
0.00950594
0.00885944
0.00821343
0.00756835
0.00692463
0.00628264
0.00564271
0.0050051
0.0172165
0.0165926
0.0159616
0.0153278
0.0146917
0.0140525
0.01341
0.0127643
0.0121162
0.0114662
0.0108148
0.0101624
0.00950943
0.00885642
0.00820377
0.00755195
0.00690138
0.00625255
0.00560599
0.00496246
0.0173145
0.0166835
0.0160439
0.0154018
0.0147578
0.014111
0.0134607
0.012807
0.0121506
0.0114922
0.0108323
0.0101714
0.00950977
0.00884803
0.0081866
0.00752598
0.00686663
0.00620905
0.00555372
0.00490109
0.0174418
0.0168006
0.0161491
0.0154956
0.0148411
0.014184
0.0135232
0.0128588
0.0121916
0.0115222
0.0108512
0.0101792
0.0095064
0.00883344
0.00816075
0.00748881
0.00681808
0.00614911
0.00548256
0.00481897
0.0175974
0.016943
0.0162764
0.0156086
0.0149408
0.0142708
0.0135969
0.0129192
0.0122385
0.0115556
0.0108711
0.0101855
0.00949923
0.00881273
0.00812651
0.00744109
0.00675695
0.00607458
0.00539431
0.00471694
0.0177802
0.0171097
0.016425
0.01574
0.0150563
0.0143707
0.0136813
0.0129878
0.0122912
0.0115924
0.010892
0.0101905
0.00948841
0.0087861
0.0080841
0.00738294
0.00668311
0.00598511
0.00528943
0.00459654
0.0179895
0.0173002
0.0165942
0.0158892
0.015187
0.0144836
0.0137761
0.0130644
0.0123495
0.0116324
0.0109138
0.0101942
0.00947393
0.00875357
0.00803359
0.00731451
0.00659687
0.00588118
0.00516793
0.0044575
0.0182246
0.0175137
0.0167836
0.0160559
0.0153327
0.0146089
0.0138811
0.0131488
0.0124132
0.0116755
0.0109364
0.0101963
0.00945576
0.00871515
0.00797502
0.00723589
0.0064983
0.00576277
0.0050298
0.00429976
0.018485
0.0177498
0.0169926
0.0162396
0.015493
0.0147466
0.0139961
0.0132408
0.0124822
0.0117215
0.0109596
0.010197
0.00943388
0.00867084
0.00790839
0.00714706
0.00638741
0.00562994
0.00487518
0.00412346
0.0187704
0.0180083
0.0172211
0.0164401
0.0156678
0.0148965
0.0141209
0.0133403
0.0125563
0.0117705
0.0109836
0.0101961
0.00940824
0.0086206
0.00783367
0.00704802
0.00626418
0.00548269
0.00470405
0.00392859
0.0190807
0.0182889
0.0174689
0.0166573
0.0158569
0.0150584
0.0142554
0.0134472
0.0126356
0.0118223
0.0110081
0.0101935
0.00937879
0.00856437
0.00775082
0.0069387
0.00612857
0.00532094
0.00451634
0.00371505
0.0194159
0.0185917
0.0177359
0.0168912
0.0160604
0.0152324
0.0143998
0.0135616
0.01272
0.0118769
0.0110333
0.0101894
0.00934549
0.00850211
0.00765977
0.00681904
0.00598047
0.0051446
0.00431193
0.00348272
0.0197759
0.0189166
0.0180222
0.0171418
0.0162783
0.0154185
0.0145539
0.0136834
0.0128095
0.0119344
0.011059
0.0101835
0.00930831
0.00843376
0.00756045
0.00668894
0.00581978
0.00495352
0.00409066
0.00323141
0.0201612
0.019264
0.0183279
0.0174092
0.0165107
0.0156169
0.0147179
0.0138127
0.0129042
0.0119947
0.0110853
0.010176
0.00926722
0.00835929
0.00745278
0.00654829
0.00564638
0.00474756
0.00385235
0.0029609
0.0205719
0.0196341
0.0186534
0.0176938
0.0167579
0.0158277
0.014892
0.0139497
0.0130042
0.012058
0.0111122
0.0101669
0.00922223
0.00827865
0.00733671
0.00639701
0.00546012
0.00452654
0.00359678
0.00267094
0.0210087
0.0200274
0.0189991
0.0179958
0.0170201
0.0160513
0.0150765
0.0140947
0.0131097
0.0121245
0.0111399
0.0101562
0.00917336
0.00819182
0.00721216
0.00623499
0.00526086
0.00429028
0.00332375
0.00236128
0.0214723
0.0204445
0.0193653
0.0183158
0.0172979
0.016288
0.0152716
0.0142478
0.0132209
0.0121942
0.0111685
0.010144
0.00912063
0.00809879
0.00707909
0.00606213
0.00504846
0.00403859
0.00303299
0.00203162
0.0219632
0.0208861
0.0197528
0.0186542
0.0175917
0.0165383
0.0154777
0.0144094
0.0133381
0.0122673
0.0111982
0.0101305
0.00906412
0.00799959
0.00693746
0.00587834
0.00482277
0.00377126
0.00272428
0.00168166
0.0224825
0.0213529
0.0201622
0.0190116
0.017902
0.0168026
0.0156954
0.0145798
0.0134615
0.0123443
0.0112291
0.0101157
0.00900393
0.00789424
0.00678724
0.00568353
0.00458366
0.00348812
0.00239736
0.0013111
0.0230312
0.021846
0.0205943
0.0193888
0.0182296
0.0170816
0.0159251
0.0147597
0.0135917
0.0124253
0.0112615
0.0100999
0.00894016
0.0077828
0.00662843
0.00547765
0.004331
0.00318896
0.00205197
0.00091961
0.0236105
0.0223664
0.02105
0.0197866
0.0185751
0.017376
0.0161674
0.0149493
0.0137289
0.0125108
0.0112958
0.0100832
0.00887296
0.00766534
0.00646102
0.00526062
0.00406465
0.00287358
0.00168784
0.000506863
0.0242215
0.0229152
0.0215305
0.020206
0.0189395
0.0176865
0.016423
0.0151494
0.0138738
0.0126011
0.0113321
0.010066
0.0088025
0.00754196
0.00628506
0.0050324
0.00378449
0.00254179
0.00130473
7.25251e-05
0.0248657
0.0234937
0.0220367
0.0206479
0.0193236
0.018014
0.0166926
0.0153605
0.0140267
0.0126967
0.011371
0.0100485
0.00872899
0.00741277
0.00610056
0.00479294
0.00349041
0.00219341
0.000902353
-0.000383744
0.0255447
0.0241035
0.02257
0.0211134
0.0197284
0.0183593
0.016977
0.0155833
0.0141884
0.0127981
0.0114127
0.010031
0.00865264
0.00727792
0.00590758
0.00454221
0.00318229