/*--------------------------------*- C++ -*----------------------------------*\
  =========                 |
  \\      /  F ield         | OpenFOAM: The Open Source CFD Toolbox
   \\    /   O peration     | Website:  https://openfoam.org
    \\  /    A nd           | Version:  7
     \\/     M anipulation  |
\*---------------------------------------------------------------------------*/
FoamFile
{
    version     2.0;
    format      ascii;
    class       surfaceScalarField;
    location    "8";
    object      phi;
}
// * * * * * * * * * * * * * * * * * * * * * * * * * * * * * * * * * * * * * //

dimensions      [0 3 -1 0 0 0 0];

internalField   nonuniform List<scalar> 
614
(
9.0622e-05
-4.60513e-07
9.05425e-05
-4.52863e-07
9.04643e-05
-4.45383e-07
9.03874e-05
-4.38068e-07
9.03117e-05
-4.30916e-07
9.02373e-05
-4.23922e-07
9.01641e-05
-4.17083e-07
9.00921e-05
-4.10398e-07
9.00212e-05
-4.03863e-07
8.99514e-05
-3.97477e-07
8.98828e-05
-3.91239e-07
8.98152e-05
-3.85148e-07
8.97487e-05
-3.79203e-07
8.96832e-05
-3.73406e-07
8.96187e-05
-3.67758e-07
8.95551e-05
-3.62261e-07
-3.56919e-07
9.06818e-05
-1.08968e-06
9.04686e-05
-1.06143e-06
9.02608e-05
-1.03429e-06
9.00584e-05
-1.00822e-06
8.9861e-05
-9.83152e-07
8.96684e-05
-9.59028e-07
8.94806e-05
-9.35799e-07
8.92973e-05
-9.13417e-07
8.91183e-05
-8.91838e-07
8.89435e-05
-8.71021e-07
8.87727e-05
-8.50927e-07
8.86059e-05
-8.3152e-07
8.84428e-05
-8.12767e-07
8.82834e-05
-7.94637e-07
8.81275e-05
-7.77101e-07
8.79751e-05
-7.60129e-07
8.78259e-05
-7.43698e-07
8.76799e-05
-7.27782e-07
8.75371e-05
-7.12359e-07
8.73972e-05
-6.97407e-07
8.72603e-05
-6.82906e-07
8.71262e-05
-6.68837e-07
8.69948e-05
-6.55181e-07
8.68661e-05
-6.41922e-07
8.674e-05
-6.29044e-07
8.66164e-05
-6.1653e-07
8.64953e-05
-6.04367e-07
8.63765e-05
-5.92541e-07
8.62601e-05
-5.81039e-07
8.61459e-05
-5.69849e-07
8.60338e-05
-5.58958e-07
8.59239e-05
-5.48356e-07
8.58161e-05
-5.38032e-07
8.57103e-05
-5.27976e-07
8.56065e-05
-5.18178e-07
8.55046e-05
-5.08629e-07
8.54045e-05
-4.99321e-07
8.53063e-05
-4.90244e-07
8.52098e-05
-4.81392e-07
8.51151e-05
-4.72755e-07
8.50221e-05
-4.64329e-07
8.49307e-05
-4.56104e-07
8.4841e-05
-4.48075e-07
8.47528e-05
-4.40236e-07
8.46662e-05
-4.3258e-07
8.4581e-05
-4.25103e-07
8.44973e-05
-4.17797e-07
8.44151e-05
-4.10659e-07
8.43342e-05
-4.03682e-07
8.42548e-05
-3.96864e-07
8.41766e-05
-3.90199e-07
8.40998e-05
-3.83682e-07
8.40242e-05
-3.77311e-07
8.39499e-05
-3.71082e-07
8.38769e-05
-3.6499e-07
8.3805e-05
-3.59034e-07
8.37343e-05
-3.5321e-07
8.36647e-05
-3.47515e-07
8.35962e-05
-3.41948e-07
8.35289e-05
-3.36507e-07
8.34626e-05
-3.3119e-07
8.33974e-05
-3.25996e-07
8.33331e-05
-3.20924e-07
8.32699e-05
-3.15975e-07
8.32077e-05
-3.1115e-07
8.31463e-05
-3.06449e-07
8.3086e-05
-3.01875e-07
-2.9743e-07
8.33245e-05
-8.84436e-07
8.31246e-05
-8.61526e-07
8.29299e-05
-8.39528e-07
8.274e-05
-8.18389e-07
8.25549e-05
-7.9806e-07
8.23744e-05
-7.78497e-07
8.21983e-05
-7.59659e-07
8.20264e-05
-7.41507e-07
8.18585e-05
-7.24005e-07
8.16946e-05
-7.0712e-07
8.15345e-05
-6.90821e-07
8.13781e-05
-6.75079e-07
8.12252e-05
-6.59866e-07
8.10757e-05
-6.45158e-07
8.09295e-05
-6.30931e-07
8.07866e-05
-6.17162e-07
8.06467e-05
-6.0383e-07
8.05098e-05
-5.90916e-07
8.03759e-05
-5.78402e-07
8.02447e-05
-5.66269e-07
8.01163e-05
-5.54502e-07
7.99906e-05
-5.43085e-07
7.98674e-05
-5.32004e-07
7.97467e-05
-5.21244e-07
7.96285e-05
-5.10792e-07
7.95126e-05
-5.00637e-07
7.9399e-05
-4.90766e-07
7.92876e-05
-4.81168e-07
7.91784e-05
-4.71833e-07
7.90713e-05
-4.6275e-07
7.89662e-05
-4.53911e-07
7.88632e-05
-4.45306e-07
7.87621e-05
-4.36926e-07
7.86629e-05
-4.28763e-07
7.85655e-05
-4.2081e-07
7.84699e-05
-4.1306e-07
7.83761e-05
-4.05504e-07
7.8284e-05
-3.98136e-07
7.81936e-05
-3.9095e-07
7.81048e-05
-3.8394e-07
7.80175e-05
-3.77099e-07
7.79318e-05
-3.70423e-07
7.78477e-05
-3.63905e-07
7.7765e-05
-3.57542e-07
7.76837e-05
-3.51327e-07
7.76039e-05
-3.45256e-07
7.75254e-05
-3.39326e-07
7.74483e-05
-3.33531e-07
7.73725e-05
-3.27868e-07
7.72979e-05
-3.22332e-07
7.72247e-05
-3.16922e-07
7.71526e-05
-3.11632e-07
7.70818e-05
-3.0646e-07
7.70121e-05
-3.01402e-07
7.69435e-05
-2.96458e-07
7.68761e-05
-2.91622e-07
7.68098e-05
-2.86894e-07
7.67446e-05
-2.82272e-07
7.66804e-05
-2.77753e-07
7.66172e-05
-2.73336e-07
7.6555e-05
-2.6902e-07
7.64938e-05
-2.64805e-07
7.64336e-05
-2.60689e-07
7.63743e-05
-2.56673e-07
7.63159e-05
-2.52757e-07
7.62584e-05
-2.48943e-07
7.62018e-05
-2.45232e-07
-2.41627e-07
7.54693e-05
7.52849e-05
-6.77111e-07
7.51052e-05
-6.59845e-07
7.49301e-05
-6.43252e-07
7.47593e-05
-6.27294e-07
7.45928e-05
-6.11936e-07
7.44303e-05
-5.97145e-07
7.42716e-05
-5.82893e-07
7.41168e-05
-5.6915e-07
7.39656e-05
-5.5589e-07
7.38178e-05
-5.4309e-07
7.36735e-05
-5.30727e-07
7.35324e-05
-5.18779e-07
7.33945e-05
-5.07226e-07
7.32596e-05
-4.96051e-07
7.31277e-05
-4.85235e-07
7.29986e-05
-4.74762e-07
7.28723e-05
-4.64617e-07
7.27487e-05
-4.54785e-07
7.26277e-05
-4.45253e-07
7.25092e-05
-4.36008e-07
7.23931e-05
-4.27037e-07
7.22794e-05
-4.1833e-07
7.21681e-05
-4.09875e-07
7.20589e-05
-4.01662e-07
7.1952e-05
-3.93682e-07
7.18471e-05
-3.85925e-07
7.17444e-05
-3.78383e-07
7.16436e-05
-3.71046e-07
7.15447e-05
-3.63908e-07
7.14478e-05
-3.56961e-07
7.13527e-05
-3.50198e-07
7.12594e-05
-3.43612e-07
7.11678e-05
-3.37197e-07
7.10779e-05
-3.30946e-07
7.09897e-05
-3.24854e-07
7.09031e-05
-3.18915e-07
7.08181e-05
-3.13124e-07
7.07346e-05
-3.07475e-07
7.06527e-05
-3.01965e-07
7.05722e-05
-2.96588e-07
7.04931e-05
-2.9134e-07
7.04154e-05
-2.86217e-07
7.03391e-05
-2.81214e-07
7.02641e-05
-2.76329e-07
7.01904e-05
-2.71557e-07
7.01179e-05
-2.66895e-07
7.00467e-05
-2.62339e-07
6.99768e-05
-2.57887e-07
6.9908e-05
-2.53536e-07
6.98403e-05
-2.49282e-07
6.97738e-05
-2.45124e-07
6.97084e-05
-2.41058e-07
6.96441e-05
-2.37082e-07
6.95808e-05
-2.33195e-07
6.95186e-05
-2.29394e-07
6.94574e-05
-2.25677e-07
6.93972e-05
-2.22044e-07
6.93379e-05
-2.18491e-07
6.92796e-05
-2.1502e-07
6.92222e-05
-2.11627e-07
6.91657e-05
-2.08314e-07
6.91101e-05
-2.05079e-07
6.90553e-05
-2.01923e-07
6.90014e-05
-1.98846e-07
6.89483e-05
-1.9585e-07
6.8896e-05
-1.92935e-07
-1.90103e-07
6.69429e-05
-5.10351e-07
6.67804e-05
-4.97357e-07
6.6622e-05
-4.84869e-07
6.64676e-05
-4.72857e-07
6.63169e-05
-4.61297e-07
6.61699e-05
-4.50163e-07
6.60265e-05
-4.39432e-07
6.58864e-05
-4.29085e-07
6.57496e-05
-4.19101e-07
6.5616e-05
-4.09462e-07
6.54854e-05
-4.00152e-07
6.53578e-05
-3.91153e-07
6.5233e-05
-3.82452e-07
6.5111e-05
-3.74035e-07
6.49917e-05
-3.65888e-07
6.48749e-05
-3.57999e-07
6.47606e-05
-3.50356e-07
6.46488e-05
-3.42949e-07
6.45393e-05
-3.35768e-07
6.44321e-05
-3.28802e-07
6.43271e-05
-3.22043e-07
6.42243e-05
-3.15482e-07
6.41235e-05
-3.09111e-07
6.40248e-05
-3.02923e-07
6.3928e-05
-2.96909e-07
6.38331e-05
-2.91063e-07
6.37401e-05
-2.85379e-07
6.36489e-05
-2.7985e-07
6.35595e-05
-2.74471e-07
6.34718e-05
-2.69235e-07
6.33857e-05
-2.64138e-07
6.33013e-05
-2.59174e-07
6.32184e-05
-2.54338e-07
6.31371e-05
-2.49626e-07
6.30573e-05
-2.45034e-07
6.29789e-05
-2.40557e-07
6.2902e-05
-2.36192e-07
6.28264e-05
-2.31934e-07
6.27523e-05
-2.2778e-07
6.26794e-05
-2.23727e-07
6.26078e-05
-2.19771e-07
6.25375e-05
-2.15908e-07
6.24684e-05
-2.12137e-07
6.24006e-05
-2.08454e-07
6.23339e-05
-2.04856e-07
6.22683e-05
-2.01342e-07
6.22039e-05
-1.97907e-07
6.21405e-05
-1.94551e-07
6.20783e-05
-1.9127e-07
6.20171e-05
-1.88063e-07
6.19569e-05
-1.84928e-07
6.18977e-05
-1.81862e-07
6.18394e-05
-1.78865e-07
6.17822e-05
-1.75934e-07
6.17259e-05
-1.73068e-07
6.16704e-05
-1.70266e-07
6.16159e-05
6.15623e-05
6.15095e-05
6.14575e-05
6.14064e-05
6.13561e-05
6.13065e-05
6.12577e-05
6.12096e-05
6.11623e-05
5.80919e-05
5.79487e-05
5.78091e-05
5.7673e-05
5.75403e-05
5.74107e-05
5.72842e-05
5.71608e-05
5.70402e-05
5.69224e-05
5.68073e-05
5.66947e-05
5.65847e-05
5.64772e-05
5.63719e-05
5.6269e-05
5.61682e-05
5.60696e-05
5.5973e-05
5.58785e-05
5.57859e-05
5.56952e-05
5.56064e-05
5.55193e-05
5.54339e-05
5.53503e-05
5.52682e-05
5.51878e-05
5.51089e-05
5.50315e-05
5.49556e-05
5.48812e-05
5.48081e-05
5.47363e-05
5.46659e-05
5.45968e-05
5.45289e-05
5.44623e-05
5.43969e-05
5.43326e-05
5.42695e-05
5.42074e-05
5.41465e-05
5.40866e-05
5.40278e-05
5.39699e-05
5.39131e-05
5.38572e-05
5.38023e-05
5.37483e-05
5.36951e-05
5.36429e-05
5.35915e-05
5.3541e-05
5.34913e-05
)
;

boundaryField
{
    inlet
    {
        type            calculated;
        value           nonuniform 0();
    }
    outlet
    {
        type            calculated;
        value           nonuniform 0();
    }
    wall
    {
        type            calculated;
        value           nonuniform 0();
    }
    wedge1
    {
        type            wedge;
        value           nonuniform List<scalar> 
344
(
6.78407e-17
5.49101e-17
4.32154e-17
6.60802e-17
5.34965e-17
4.21086e-17
9.77726e-17
-1.59353e-16
6.44301e-17
5.21722e-17
4.10783e-17
9.53239e-17
-1.55258e-16
6.28135e-17
5.08622e-17
4.00557e-17
9.29293e-17
-1.51359e-16
6.12583e-17
4.96141e-17
3.90702e-17
9.06417e-17
-1.47601e-16
5.97419e-17
4.83762e-17
3.80937e-17
8.83935e-17
-1.44026e-16
5.83154e-17
4.723e-17
3.71937e-17
8.62875e-17
-1.40518e-16
5.69175e-17
4.6096e-17
3.63097e-17
8.4225e-17
-1.37172e-16
5.55727e-17
4.50165e-17
3.54558e-17
8.22522e-17
-1.33936e-16
5.42578e-17
4.39398e-17
3.46055e-17
8.03028e-17
-1.30855e-16
5.30253e-17
4.29515e-17
3.38299e-17
7.84861e-17
-1.27812e-16
5.18114e-17
4.19645e-17
3.30606e-17
7.6692e-17
-1.24911e-16
5.06421e-17
4.10266e-17
3.23171e-17
7.49772e-17
-1.22097e-16
4.9488e-17
4.00781e-17
3.15641e-17
7.32634e-17
-1.19429e-16
4.83919e-17
3.91963e-17
3.08663e-17
7.16547e-17
-1.16797e-16
4.73001e-17
3.82988e-17
3.01548e-17
7.00501e-17
-1.14291e-16
4.62404e-17
3.74342e-17
2.94684e-17
6.85066e-17
-1.11854e-16
4.52187e-17
3.66036e-17
2.88096e-17
6.70176e-17
-1.09491e-16
4.42243e-17
3.57936e-17
2.81698e-17
6.55738e-17
-1.07199e-16
4.32644e-17
3.50152e-17
2.75545e-17
6.41774e-17
-1.04974e-16
4.23325e-17
3.42571e-17
2.69555e-17
6.28212e-17
-1.02818e-16
4.14275e-17
3.35226e-17
2.63725e-17
6.15054e-17
-1.00726e-16
4.05532e-17
3.28122e-17
2.58119e-17
6.02302e-17
-9.86934e-17
3.97056e-17
3.21243e-17
2.5269e-17
5.89963e-17
-9.67149e-17
3.88812e-17
3.14558e-17
2.47406e-17
5.77963e-17
-9.47937e-17
3.80885e-17
3.08134e-17
2.42383e-17
5.66407e-17
-9.29159e-17
3.73403e-17
3.02198e-17
2.37732e-17
5.55488e-17
-9.10618e-17
3.66536e-17
2.96728e-17
2.33542e-17
5.4506e-17
-8.92442e-17
3.59547e-17
2.91044e-17
2.29167e-17
5.34545e-17
-8.75113e-17
3.52694e-17
2.856e-17
2.24837e-17
5.24433e-17
-8.58189e-17
3.45892e-17
2.79971e-17
2.20383e-17
5.14139e-17
-8.42137e-17
3.39582e-17
2.74975e-17
2.16482e-17
5.04759e-17
-8.25807e-17
3.33181e-17
2.69779e-17
2.12472e-17
4.95268e-17
-8.10267e-17
3.2708e-17
2.64985e-17
2.08711e-17
4.86316e-17
-7.94937e-17
3.21487e-17
2.60526e-17
2.05327e-17
4.77764e-17
-7.79729e-17
3.15959e-17
2.561e-17
2.0185e-17
4.69268e-17
-7.65183e-17
3.10603e-17
2.51819e-17
1.98586e-17
4.61055e-17
-7.50823e-17
3.05131e-17
2.47434e-17
1.9513e-17
4.52823e-17
-7.37167e-17
3.0002e-17
2.43334e-17
1.91981e-17
4.4499e-17
-7.23518e-17
2.94957e-17
2.39234e-17
1.88733e-17
4.37177e-17
-7.10486e-17
2.90048e-17
2.35296e-17
1.85701e-17
4.29702e-17
-6.97532e-17
2.8501e-17
2.3126e-17
1.82511e-17
4.22187e-17
-6.8519e-17
2.80347e-17
2.2749e-17
1.79603e-17
4.15017e-17
-6.72877e-17
2.75643e-17
2.2367e-17
1.76558e-17
4.0785e-17
-6.61112e-17
2.71117e-17
2.20052e-17
1.73766e-17
4.01008e-17
-6.49374e-17
2.66412e-17
2.16139e-17
1.7061e-17
3.93899e-17
-6.38372e-17
2.61846e-17
2.12519e-17
1.67773e-17
3.87248e-17
-6.27357e-17
2.5769e-17
2.09197e-17
1.65222e-17
3.80933e-17
-6.16347e-17
2.5353e-17
2.05821e-17
1.62545e-17
3.74585e-17
-6.05844e-17
2.49513e-17
2.02623e-17
1.60106e-17
3.68546e-17
-5.95333e-17
2.45366e-17
1.99284e-17
1.57449e-17
3.62401e-17
-5.85393e-17
8.79826e-17
2.4156e-17
1.96203e-17
1.55076e-17
3.56573e-17
-5.75378e-17
8.65415e-17
2.37762e-17
1.93111e-17
1.52601e-17
3.50744e-17
-5.65819e-17
8.5136e-17
2.34063e-17
1.90156e-17
1.5035e-17
3.45188e-17
-5.56259e-17
8.37378e-17
2.30208e-17
1.87046e-17
1.47871e-17
3.3952e-17
-5.47229e-17
8.23947e-17
2.26708e-17
1.84228e-17
1.45695e-17
3.34193e-17
-5.38071e-17
8.10746e-17
2.23198e-17
1.81375e-17
1.43397e-17
3.28848e-17
-5.29355e-17
7.97891e-17
2.19806e-17
1.7867e-17
1.41331e-17
3.23785e-17
7.85089e-17
2.16252e-17
1.7579e-17
1.39024e-17
3.18559e-17
7.72835e-17
2.1306e-17
1.7321e-17
1.37049e-17
3.13706e-17
7.60738e-17
2.09826e-17
1.70571e-17
1.34931e-17
3.08804e-17
7.49031e-17
2.06746e-17
1.68108e-17
1.3305e-17
3.04155e-17
7.37355e-17
2.03517e-17
1.65499e-17
1.30952e-17
2.99412e-17
7.26246e-17
2.00648e-17
1.63204e-17
1.29191e-17
2.95023e-17
7.15263e-17
1.97704e-17
1.60784e-17
1.27245e-17
2.90549e-17
7.04629e-17
1.94889e-17
1.58527e-17
1.25525e-17
2.86356e-17
6.94038e-17
1.91932e-17
1.56152e-17
1.23627e-17
2.82072e-17
6.83989e-17
1.89291e-17
1.54023e-17
1.21989e-17
2.781e-17
)
;
    }
    wedge2
    {
        type            wedge;
        value           nonuniform List<scalar> 
344
(
6.94574e-17
5.6394e-17
4.45485e-17
6.76524e-17
5.49203e-17
4.33817e-17
9.8877e-17
-1.58417e-16
6.58794e-17
5.34723e-17
4.22288e-17
9.63119e-17
-1.54427e-16
6.42071e-17
5.21185e-17
4.11533e-17
9.38882e-17
-1.50554e-16
6.25998e-17
5.08051e-17
4.01213e-17
9.15418e-17
-1.46837e-16
6.10734e-17
4.95783e-17
3.91564e-17
8.93303e-17
-1.43218e-16
5.95701e-17
4.83512e-17
3.81868e-17
8.71414e-17
-1.39796e-16
5.81452e-17
4.71985e-17
3.72694e-17
8.50651e-17
-1.36464e-16
5.67687e-17
4.60734e-17
3.63864e-17
8.30471e-17
-1.3326e-16
5.54585e-17
4.50233e-17
3.5561e-17
8.11461e-17
-1.30128e-16
5.41572e-17
4.39587e-17
3.4719e-17
7.92457e-17
-1.27172e-16
5.29242e-17
4.29631e-17
3.3926e-17
7.74495e-17
-1.24277e-16
5.17292e-17
4.19852e-17
3.31598e-17
7.56946e-17
-1.2149e-16
5.05975e-17
4.10815e-17
3.24533e-17
7.40536e-17
-1.18743e-16
4.94828e-17
4.01718e-17
3.17392e-17
7.24169e-17
-1.16135e-16
4.84351e-17
3.93356e-17
3.10842e-17
7.08805e-17
-1.1357e-16
4.74236e-17
3.85215e-17
3.04476e-17
6.93827e-17
-1.11096e-16
4.64391e-17
3.77262e-17
2.98248e-17
6.79255e-17
-1.08702e-16
4.54894e-17
3.69607e-17
2.92227e-17
6.65142e-17
-1.06384e-16
4.45648e-17
3.62117e-17
2.8634e-17
6.51423e-17
-1.04138e-16
4.3669e-17
3.54885e-17
2.80653e-17
6.38137e-17
-1.01958e-16
4.28007e-17
3.47858e-17
2.75154e-17
6.25244e-17
-9.98425e-17
4.19541e-17
3.41012e-17
2.69763e-17
6.12709e-17
-9.77911e-17
4.11307e-17
3.34346e-17
2.64514e-17
6.00493e-17
-9.58036e-17
4.03322e-17
3.27876e-17
2.59427e-17
5.88642e-17
-9.38721e-17
3.9548e-17
3.21518e-17
2.54372e-17
5.77023e-17
-9.20061e-17
3.87635e-17
3.1503e-17
2.49228e-17
5.65414e-17
-9.0221e-17
3.796e-17
3.08421e-17
2.43893e-17
5.53938e-17
-8.84998e-17
3.72097e-17
3.02356e-17
2.39004e-17
5.43147e-17
-8.67907e-17
3.64849e-17
2.96369e-17
2.34322e-17
5.32529e-17
-8.51339e-17
3.57928e-17
2.90873e-17
2.30004e-17
5.22649e-17
-8.34794e-17
3.5088e-17
2.85041e-17
2.25366e-17
5.12387e-17
-8.19389e-17
3.44274e-17
2.79691e-17
2.21061e-17
5.02752e-17
-8.04023e-17
3.37705e-17
2.74214e-17
2.16722e-17
4.93072e-17
-7.89247e-17
3.30954e-17
2.68665e-17
2.12214e-17
4.8347e-17
-7.75121e-17
3.24451e-17
2.63338e-17
2.08e-17
4.74274e-17
-7.61076e-17
3.1808e-17
2.58111e-17
2.03766e-17
4.65238e-17
-7.47563e-17
3.12117e-17
2.53225e-17
1.99912e-17
4.56652e-17
-7.34039e-17
3.06076e-17
2.48283e-17
1.9593e-17
4.48081e-17
-7.21177e-17
3.00259e-17
2.43563e-17
1.92222e-17
4.39891e-17
-7.08346e-17
2.94553e-17
2.38894e-17
1.88466e-17
4.31749e-17
-6.96061e-17
2.8923e-17
2.34529e-17
1.85031e-17
4.24023e-17
-6.83769e-17
2.8378e-17
2.30099e-17
1.81473e-17
4.16314e-17
-6.72034e-17
2.78608e-17
2.25912e-17
1.78202e-17
4.08953e-17
-6.60317e-17
2.73491e-17
2.21712e-17
1.74828e-17
4.01607e-17
-6.49122e-17
2.68776e-17
2.17988e-17
1.71961e-17
3.94856e-17
-6.37722e-17
2.64139e-17
2.14145e-17
1.68913e-17
3.87968e-17
-6.26852e-17
2.59304e-17
2.10177e-17
1.65714e-17
3.81052e-17
-6.16476e-17
2.54677e-17
2.06428e-17
1.62772e-17
3.74471e-17
-6.06079e-17
2.50105e-17
2.02663e-17
1.59718e-17
3.67872e-17
-5.96161e-17
2.45857e-17
1.99194e-17
1.57007e-17
3.61663e-17
-5.86131e-17
8.80077e-17
2.41455e-17
1.9562e-17
1.5413e-17
3.55414e-17
-5.76622e-17
8.65237e-17
2.37228e-17
1.92206e-17
1.51474e-17
3.49435e-17
-5.67092e-17
8.5069e-17
2.33079e-17
1.88798e-17
1.48707e-17
3.43445e-17
-5.57988e-17
8.36705e-17
2.29262e-17
1.85687e-17
1.46279e-17
3.37823e-17
-5.48767e-17
8.22787e-17
2.25259e-17
1.82423e-17
1.43657e-17
3.3211e-17
-5.40079e-17
8.09244e-17
2.21433e-17
1.79327e-17
1.41265e-17
3.26662e-17
-5.31346e-17
7.95952e-17
2.17651e-17
1.76217e-17
1.38744e-17
3.21171e-17
7.83189e-17
2.14193e-17
1.73411e-17
1.36568e-17
3.16081e-17
7.70454e-17
2.10531e-17
1.70434e-17
1.34159e-17
3.10851e-17
7.5813e-17
2.07066e-17
1.67642e-17
1.31995e-17
3.05901e-17
7.4598e-17
2.03602e-17
1.64801e-17
1.29694e-17
3.00927e-17
7.34358e-17
2.00441e-17
1.62231e-17
1.27708e-17
2.96275e-17
7.22729e-17
1.97075e-17
1.59473e-17
1.25484e-17
2.91499e-17
7.11536e-17
1.93938e-17
1.56965e-17
1.23545e-17
2.87037e-17
7.00561e-17
1.90829e-17
1.5442e-17
1.21481e-17
2.82526e-17
6.90119e-17
1.8802e-17
1.52124e-17
1.19697e-17
2.78344e-17
6.79723e-17
1.85058e-17
1.49714e-17
1.17758e-17
2.74093e-17
)
;
    }
    axis
    {
        type            empty;
        value           nonuniform 0();
    }
    procBoundary37to31
    {
        type            processor;
        value           nonuniform List<scalar> 
69
(
5.41365e-07
5.32369e-07
5.23572e-07
5.1497e-07
5.06558e-07
4.98333e-07
4.90291e-07
4.82428e-07
4.74742e-07
4.67231e-07
4.59893e-07
4.52727e-07
4.45734e-07
4.38913e-07
4.32266e-07
4.25798e-07
4.19514e-07
1.30859e-06
1.27462e-06
1.24201e-06
1.21068e-06
1.18055e-06
1.15156e-06
1.12365e-06
1.09675e-06
1.07083e-06
1.04581e-06
1.02167e-06
9.98358e-07
9.7583e-07
9.5405e-07
9.32983e-07
9.12597e-07
8.9286e-07
8.73742e-07
8.55217e-07
8.37258e-07
8.19841e-07
8.02943e-07
7.86542e-07
7.70617e-07
7.5515e-07
7.40122e-07
7.25515e-07
7.11313e-07
6.975e-07
6.84062e-07
6.70983e-07
6.58251e-07
6.45854e-07
6.33778e-07
6.22012e-07
6.10545e-07
5.99367e-07
5.88468e-07
5.77838e-07
5.67468e-07
5.57349e-07
5.47474e-07
5.37833e-07
5.2842e-07
5.19227e-07
5.10248e-07
5.01476e-07
4.92904e-07
4.84528e-07
4.76341e-07
-9.07028e-05
4.68337e-07
)
;
    }
    procBoundary37to32
    {
        type            processor;
        value           uniform 8.94925e-05;
    }
    procBoundary37to36
    {
        type            processor;
        value           nonuniform List<scalar> 5(-9.09007e-05 -8.35298e-05 -7.56587e-05 -6.95091e-07 -6.71096e-05);
    }
    procBoundary37to38
    {
        type            processor;
        value           nonuniform List<scalar> 4(8.30265e-05 7.6146e-05 6.88445e-05 6.11156e-05);
    }
    procBoundary37to42
    {
        type            processor;
        value           uniform -5.82389e-05;
    }
    procBoundary37to43
    {
        type            processor;
        value           nonuniform List<scalar> 
68
(
-1.67527e-07
-1.64849e-07
-1.62231e-07
-1.59674e-07
-1.57176e-07
-1.54738e-07
-1.52359e-07
-1.50041e-07
-1.47783e-07
-1.45586e-07
-1.43451e-07
-3.63395e-07
-3.54159e-07
-3.45282e-07
-3.36742e-07
-3.28523e-07
-3.20605e-07
-3.12975e-07
-3.05615e-07
-2.98514e-07
-2.91658e-07
-2.85035e-07
-2.78633e-07
-2.72443e-07
-2.66454e-07
-2.60657e-07
-2.55043e-07
-2.49604e-07
-2.44333e-07
-2.39222e-07
-2.34264e-07
-2.29453e-07
-2.24783e-07
-2.20248e-07
-2.15843e-07
-2.11561e-07
-2.074e-07
-2.03353e-07
-1.99416e-07
-1.95586e-07
-1.91858e-07
-1.88229e-07
-1.84694e-07
-1.81251e-07
-1.77896e-07
-1.74626e-07
-1.71438e-07
-1.68329e-07
-1.65297e-07
-1.62338e-07
-1.59451e-07
-1.56634e-07
-1.53883e-07
-1.51197e-07
-1.48574e-07
-1.46011e-07
-1.43508e-07
-1.41061e-07
-1.38671e-07
-1.36334e-07
-1.34049e-07
-1.31816e-07
-1.29633e-07
-1.27498e-07
-1.2541e-07
-1.23369e-07
5.34424e-05
-1.21373e-07
)
;
    }
}


// ************************************************************************* //
