/*--------------------------------*- C++ -*----------------------------------*\
  =========                 |
  \\      /  F ield         | OpenFOAM: The Open Source CFD Toolbox
   \\    /   O peration     | Website:  https://openfoam.org
    \\  /    A nd           | Version:  7
     \\/     M anipulation  |
\*---------------------------------------------------------------------------*/
FoamFile
{
    version     2.0;
    format      ascii;
    class       surfaceScalarField;
    location    "21";
    object      phi;
}
// * * * * * * * * * * * * * * * * * * * * * * * * * * * * * * * * * * * * * //

dimensions      [0 3 -1 0 0 0 0];

internalField   nonuniform List<scalar> 
823
(
0.000378476
0.000256746
0.000452685
0.000259684
0.000528032
0.000251556
0.000604226
0.000230017
0.00068101
0.000192738
0.000758122
0.000137831
0.000835295
6.39334e-05
0.000912255
-2.94953e-05
0.000988713
-0.000141883
0.00106438
-0.000271261
0.00113896
-0.00041398
0.0012122
-0.000564445
0.00128382
-0.00071503
0.000643411
0.00135381
-0.000855764
0.000785773
0.00142187
-0.000975078
0.000907019
0.00148858
-0.00105857
0.000991861
0.00155321
-0.00109323
0.0010286
0.0016177
-0.00106028
0.000995783
0.00167931
-0.000954281
0.000892674
0.00174336
-0.000748283
0.000684233
0.00180105
-0.000464954
0.000407271
0.0018654
-7.93313e-05
1.49741e-05
0.000490939
-0.000542613
0.000388243
0.000183629
0.000462763
0.000185164
0.000538416
0.000175903
0.000614879
0.000153554
0.000691882
0.000115735
0.000769138
6.0575e-05
0.000846354
-1.32828e-05
0.000923236
-0.000106377
0.000999472
-0.000218119
0.00107476
-0.000346548
0.00114877
-0.000487995
0.00122128
-0.000636947
0.00129197
-0.000785723
0.00136086
-0.000924655
0.00142766
-0.00104188
0.00149298
-0.00112389
0.00155612
-0.00115638
0.0016191
-0.00112325
0.00167922
-0.0010144
0.00174191
-0.000810976
0.00179844
-0.000521478
0.00186207
-0.000142967
0.000439456
0.000405274
0.000110548
0.000479747
0.000110691
0.000555359
0.000100291
0.000631748
7.71647e-05
0.000708638
3.88456e-05
0.000785712
-1.64996e-05
0.000862662
-9.02322e-05
0.00093917
-0.000182885
0.0010149
-0.000293854
0.00108955
-0.000421191
0.00116276
-0.00056121
0.0012343
-0.000708488
0.00130387
-0.000855294
0.00137149
-0.00099227
0.00143687
-0.00110726
0.00150067
-0.00118768
0.00156221
-0.00121792
0.00162357
-0.00118461
0.00168211
-0.00107294
0.00174336
-0.00087223
0.00179867
-0.000576786
0.00186153
-0.000205826
0.000388147
0.000429292
3.79268e-05
0.000503414
3.657e-05
0.000578605
2.50989e-05
0.000654597
1.17322e-06
0.000731042
-3.76e-05
0.000807618
-9.30752e-05
0.000883998
-0.000166613
0.000959845
-0.000258732
0.00103481
-0.000368819
0.00110856
-0.00049494
0.00118075
-0.000633398
0.00125112
-0.000778865
0.00131939
-0.000923562
0.00138557
-0.00105845
0.00144941
-0.00117109
0.00151156
-0.00124984
0.00157141
-0.00127777
0.00163106
-0.00124427
0.00168795
-0.00112983
0.0017477
-0.00093198
0.00180175
-0.000630832
0.00186378
-0.000267861
0.000336998
0.000460012
-3.39542e-05
0.0005334
-3.6818e-05
0.000607857
-4.93582e-05
0.000683105
-7.40752e-05
0.000758783
-0.000113278
0.000834557
-0.000168849
0.000910075
-0.00024213
0.000984984
-0.000333642
0.00105892
-0.000442757
0.00113154
-0.000567562
0.0012025
-0.000704349
0.00127152
-0.000847892
0.00133833
-0.000990368
0.00140295
-0.00112307
0.00146512
-0.00123326
0.00152554
-0.00131027
0.00158361
-0.00133584
0.0016415
-0.00130215
0.00169668
-0.00118501
0.00175489
-0.000990182
0.00180764
-0.000683584
0.00186881
-0.000329035
0.000285984
0.000496981
-0.000104777
0.000569266
-0.000109102
0.000642683
-0.000122775
0.000716873
-0.000148265
0.000791482
-0.000187887
0.000866158
-0.000243525
0.000940536
-0.000316509
0.00101425
-0.000407357
0.00108693
-0.000515433
0.00115821
-0.000638844
0.00122774
-0.000773876
0.00129525
-0.000915407
0.00136046
-0.00105558
0.0014234
-0.00118601
0.00148382
-0.00129369
0.00154245
-0.00136889
0.00159869
-0.00139208
0.00165478
-0.00135824
0.00170823
-0.00123846
0.00176485
-0.00104681
0.0018163
-0.000735028
0.00187659
-0.000389324
0.000235078
0.000539644
-0.000174195
0.00061055
-0.000180009
0.000682596
-0.000194821
0.000755429
-0.000221099
0.000828681
-0.000261139
0.000901987
-0.000316831
0.000974971
-0.000389493
0.00104726
-0.000479641
0.00111845
-0.000586632
0.00118821
-0.000708596
0.00125614
-0.000841814
0.00132201
-0.000981275
0.00138551
-0.00111907
0.00144669
-0.00124718
0.0015053
-0.0013523
0.0015621
-0.00142569
0.00161649
-0.00144648
0.00167076
-0.00141251
0.00172248
-0.00129018
0.00177753
-0.00110186
0.00182768
-0.000785174
0.00188707
-0.000448723
0.000184237
0.000587416
-0.000241905
0.000656647
-0.000249239
0.000727039
-0.000265213
0.000798238
-0.000292297
0.000869867
-0.000332769
0.000941554
-0.000388517
0.00101291
-0.000460852
0.00108356
-0.000550285
0.00115309
-0.000656167
0.00122115
-0.000776656
0.00128736
-0.000908027
0.00135148
-0.00104539
0.00141319
-0.00118079
0.00147255
-0.00130655
0.00152933
-0.00140908
0.00158428
-0.00148063
0.00163683
-0.00149904
0.0016893
-0.00146498
0.00173931
-0.00134019
0.00179281
-0.00115536
0.00184169
-0.00083405
0.00190021
-0.000507244
0.000133412
0.000639634
-0.000307634
0.000706915
-0.00031652
0.000775392
-0.000333691
0.000844705
-0.00036161
0.000914476
-0.000402539
0.000984322
-0.000458363
0.00105385
-0.000530382
0.00112267
-0.000619106
0.00119039
-0.000723879
0.00125662
-0.00084289
0.001321
-0.00097241
0.00138328
-0.00110766
0.00144315
-0.00124066
0.00150068
-0.00136408
0.00155562
-0.00146402
0.00160875
-0.00153376
0.00165951
-0.00154979
0.00171023
-0.0015157
0.00175859
-0.00138854
0.00181058
-0.00120736
0.00185825
-0.000881713
0.00191592
-0.000564921
8.25374e-05
0.000695563
0.000760653
-0.00038161
0.000826984
-0.000400022
0.000894193
-0.000428818
0.000961898
-0.000470245
0.00102971
-0.00052618
0.00109724
-0.000597912
0.00116409
-0.000685954
0.00122986
-0.000789642
0.00129416
-0.000907198
0.00135664
-0.00103489
0.00141704
-0.00116806
0.00147506
-0.00129868
0.00153076
-0.00141978
0.0015839
-0.00151717
0.00163526
-0.00158512
0.00168429
-0.00159882
0.00173335
-0.00156476
0.00178013
-0.00143533
0.00183071
-0.00125793
0.00187724
-0.000928245
0.00193414
-0.000621813
3.15335e-05
0.00081712
-0.000444302
0.000881107
-0.000464009
0.000946025
-0.000493736
0.00101149
-0.000535713
0.00107712
-0.00059181
0.00114252
-0.000663306
0.00120728
-0.000750712
0.001271
-0.000853363
0.00133331
-0.000969512
0.00139384
-0.00109542
0.00145235
-0.00122657
0.00150853
-0.00135486
0.00156245
-0.00147369
0.00161385
-0.00156857
0.00166354
-0.0016348
0.00171094
-0.00164623
0.00175844
-0.00161226
0.00180378
-0.00148067
0.00185305
-0.0013072
0.00189856
-0.000973755
0.00195475
-0.000678001
-1.96952e-05
0.000875539
-0.000504424
0.000937021
-0.000525491
0.0009995
-0.000556215
0.0010626
-0.000598809
0.00112592
-0.000655135
0.00118908
-0.000726461
0.00125166
-0.0008133
0.00131328
-0.000914983
0.00137357
-0.0010298
0.00143216
-0.00115401
0.00148879
-0.0012832
0.00154318
-0.00140924
0.00159539
-0.0015259
0.00164516
-0.00161835
0.00169329
-0.00168293
0.0017392
-0.00169214
0.00178529
-0.00165835
0.00182933
-0.0015247
0.00187743
-0.00135531
0.00192206
-0.00101838
0.00197766
-0.000733597
-7.12612e-05
0.000935117
-0.000561844
0.000993971
-0.000584346
0.0010539
-0.000616144
0.00111453
-0.000659437
0.00117547
-0.000716074
0.00123632
-0.000787314
0.00129669
-0.000873674
0.00135619
-0.000974481
0.00141445
-0.00108806
0.00147112
-0.00121067
0.00152594
-0.00133803
0.00157862
-0.00146193
0.00162923
-0.00157651
0.0016775
-0.00166662
0.00172422
-0.00172964
0.00176881
-0.00173673
0.00181367
-0.00170321
0.00185658
-0.00156762
0.00190369
-0.00140241
0.0019476
-0.0010623
0.00200274
-0.000788736
-0.000123295
0.000995045
-0.000616471
0.00105119
-0.000640492
0.0011085
-0.000673455
0.0011666
-0.000717538
0.00122511
-0.000774583
0.00128364
-0.000845839
0.00134179
-0.000931827
0.00139918
-0.00103187
0.00145546
-0.00114434
0.00151026
-0.00126547
0.00156336
-0.00139112
0.00161445
-0.00151301
0.0016636
-0.00162566
0.00171053
-0.00171356
0.00175602
-0.00177514
0.00179949
-0.00178019
0.00184332
-0.00174703
0.00188532
-0.00160962
0.00193163
-0.00144872
0.00197503
-0.0011057
0.00202987
-0.000843582
-0.000175947
0.00105452
-0.000668255
0.00110792
-0.000693891
0.00116258
-0.000728119
0.00121814
-0.000773098
0.00127422
-0.000830662
0.00133043
-0.00090205
0.0013864
-0.000987791
0.00144173
-0.00108721
0.0014961
-0.0011987
0.00154914
-0.00131851
0.00160063
-0.00144261
0.00165027
-0.00156265
0.00169813
-0.00167352
0.00174392
-0.00175934
0.0017884
-0.00181962
0.00183097
-0.00182276
0.001874
-0.00179007
0.00191533
-0.00165094
0.00196107
-0.00149447
0.00200417
-0.0011488
0.00205892
-0.000898326
-0.000229382
0.00111275
-0.000717192
0.00116341
-0.000744549
0.00121544
-0.000780151
0.00126848
-0.000826143
0.00132217
-0.000884347
0.00137612
-0.000955998
0.00142996
-0.00104163
0.00148332
-0.00114057
0.00153588
-0.00125126
0.00158729
-0.00136992
0.00163733
-0.00149265
0.0016857
-0.00161102
0.00173247
-0.00172029
0.00177733
-0.0018042
0.00182104
-0.00186333
0.00186296
-0.00186468
0.00190546
-0.00183257
0.00194638
-0.00169186
0.00199181
-0.0015399
0.00203488
-0.00119186
0.00208974
-0.000953188
-0.000283788
0.00116896
-0.000763324
0.00121692
-0.000792514
0.00126638
-0.000829609
0.00131697
-0.000876738
0.00136834
-0.000935716
0.00142012
-0.00100777
0.00147194
-0.00109346
0.00152346
-0.00119209
0.00157435
-0.00130215
0.00162428
-0.00141985
0.00167305
-0.00154142
0.00172035
-0.00165833
0.00176626
-0.00176619
0.00181044
-0.00184838
0.00185363
-0.00190653
0.00189519
-0.00190624
0.00193744
-0.00187482
0.00197825
-0.00173267
0.00202366
-0.00158531
0.00206696
-0.00123517
0.00212218
-0.00100841
-0.000339368
0.00122239
0.00126775
0.00131474
0.00136299
0.00141216
0.00146189
0.00151184
-0.00114341
0.00156166
-0.00124191
0.00161105
-0.00135155
0.0016597
-0.0014685
0.00170741
-0.00158913
0.00175387
-0.00170479
0.00179916
-0.00181148
0.00184292
-0.00189215
0.0018859
-0.0019495
0.00192739
-0.00194773
0.0019697
-0.00191714
0.00201071
-0.00177367
0.0020564
-0.001631
0.00210025
-0.00127901
0.0021561
-0.00106426
-0.000396343
0.00154906
0.00159739
0.0016455
0.0016931
0.00173999
0.00178587
0.00183082
0.00187447
0.00191753
0.00195928
0.00200199
0.00204353
0.00208983
0.00213454
0.00219132
0.00127953
0.00135043
0.00141958
0.00148753
0.00155351
0.0016194
0.0016824
0.00174772
0.00180649
0.00187151
)
;

boundaryField
{
    inlet
    {
        type            calculated;
        value           nonuniform 0();
    }
    outlet
    {
        type            calculated;
        value           nonuniform List<scalar> 
20
(
0.00191708
0.00191356
0.00191284
0.00191493
0.00191982
0.0019275
0.00193791
0.00195103
0.0019668
0.00198514
0.00200598
0.00202922
0.00205477
0.00208252
0.00211235
0.00214414
0.00217776
0.00221307
0.00224992
0.00192338
)
;
    }
    cylinder
    {
        type            calculated;
        value           nonuniform 0();
    }
    top
    {
        type            symmetryPlane;
        value           nonuniform 0();
    }
    bottom
    {
        type            symmetryPlane;
        value           nonuniform 0();
    }
    defaultFaces
    {
        type            empty;
        value           nonuniform 0();
    }
    procBoundary23to17
    {
        type            processor;
        value           nonuniform List<scalar> 
24
(
-0.000329545
-0.000333896
-0.000326904
-0.000306212
-0.000269524
-0.000214943
-0.000141107
-4.74653e-05
6.54225e-05
0.000195591
0.000339403
0.000491204
0.000571074
0.000714872
0.000837865
0.000923913
0.000962617
0.000929895
0.000829689
0.000618916
0.000348498
-5.00447e-05
-0.000594487
-0.00120719
)
;
    }
    procBoundary23to22
    {
        type            processor;
        value           nonuniform List<scalar> 
16
(
-0.000305676
-0.000315127
-0.000332194
-0.000356671
-0.000388131
-0.000426159
-0.000470226
-0.000519706
-0.000573905
-0.000632065
-0.000371132
-0.000754428
-0.000815417
-0.000877696
-0.000940418
-0.00100274
)
;
    }
    procBoundary23to28
    {
        type            processor;
        value           nonuniform List<scalar> 3(-0.00106381 -0.00112282 -0.00117898);
    }
    procBoundary23to29
    {
        type            processor;
        value           nonuniform List<scalar> 
23
(
-0.000806734
-0.00083788
-0.000876595
-0.000924993
-0.000984888
-0.00105751
-0.0015008
-0.00119167
-0.00129024
-0.00139966
-0.00151609
-0.00163601
-0.00175067
-0.00185643
-0.00193579
-0.00199257
-0.00198947
-0.00195984
-0.00181521
-0.0016773
-0.00132373
-0.00112103
-0.00045495
)
;
    }
}


// ************************************************************************* //
