/*--------------------------------*- C++ -*----------------------------------*\
  =========                 |
  \\      /  F ield         | OpenFOAM: The Open Source CFD Toolbox
   \\    /   O peration     | Website:  https://openfoam.org
    \\  /    A nd           | Version:  7
     \\/     M anipulation  |
\*---------------------------------------------------------------------------*/
FoamFile
{
    version     2.0;
    format      ascii;
    class       surfaceScalarField;
    location    "6";
    object      phi;
}
// * * * * * * * * * * * * * * * * * * * * * * * * * * * * * * * * * * * * * //

dimensions      [0 3 -1 0 0 0 0];

internalField   nonuniform List<scalar> 
823
(
0.000996215
-0.000130218
0.00113222
-0.000136003
0.00127339
-0.000141182
0.00141903
-0.000145634
0.00156826
-0.000149235
0.00172012
-0.000151868
0.00187354
-0.000153419
0.00202731
-0.000153779
0.00218014
-0.000152834
0.00233062
-0.000150479
0.00247719
-0.00014657
0.00261821
-0.000141023
0.00275186
-0.000133656
1.54553e-09
0.00287641
-0.000124545
4.34219e-10
0.00298993
-0.000113522
-3.71445e-10
0.00309113
-0.000101194
-1.00706e-09
0.00317843
-8.73049e-05
-1.37099e-09
0.00325199
-7.35613e-05
-1.41679e-09
0.00331075
-5.87567e-05
-1.21025e-09
0.00335744
-4.66871e-05
-7.33017e-10
0.0033902
-3.27578e-05
-3.25168e-10
0.00341582
-2.56255e-05
2.97028e-10
-1.21388e-05
3.95261e-10
0.00100441
-0.000259709
0.00113967
-0.000271258
0.00128009
-0.000281604
0.00142496
-0.000290502
0.00157343
-0.000297708
0.00172455
-0.000302986
0.00187724
-0.000306108
0.00203031
-0.000306858
0.00218249
-0.000305007
0.00233235
-0.000300345
0.00247837
-0.000292585
0.0026189
-0.000281555
0.00275214
-0.000266895
0.00287635
-0.000248752
0.00298961
-0.000226789
0.00309064
-0.000202216
0.00317785
-0.000174519
0.00325139
-0.000147106
0.0033102
-0.000117563
0.003357
-9.3481e-05
0.00338991
-6.5671e-05
0.00341573
-5.14432e-05
-2.45113e-05
0.00102061
-0.000387764
0.00115439
-0.000405036
0.00129331
-0.000420523
0.00143666
-0.000433859
0.00158363
-0.000444677
0.00173327
-0.000452625
0.00188452
-0.000457359
0.00203622
-0.000458559
0.0021871
-0.000455878
0.00233575
-0.000449004
0.00248067
-0.000437505
0.00262024
-0.000421121
0.00275266
-0.000399312
0.0028762
-0.000372292
0.00298896
-0.000339553
0.00308964
-0.000302899
0.00317668
-0.000261552
0.00325019
-0.000220619
0.0033091
-0.000176469
0.0033561
-0.000140488
0.00338933
-9.88952e-05
0.00341553
-7.76459e-05
-3.73519e-05
0.00104443
-0.000513692
0.00117602
-0.00053663
0.00131272
-0.000557224
0.00145385
-0.000574985
0.0015986
-0.000589428
0.00174606
-0.000600083
0.00189519
-0.000606492
0.00204486
-0.000608228
0.00219381
-0.000604831
0.00234069
-0.000595884
0.002484
-0.000580811
0.00262214
-0.000559265
0.00275335
-0.000530518
0.00287591
-0.000494854
0.00298794
-0.000451578
0.00308812
-0.000403087
0.0031749
-0.000348325
0.00324837
-0.00029409
0.00330743
-0.00023553
0.00335476
-0.000187819
0.00338845
-0.000132587
0.00341523
-0.000104427
-5.08946e-05
0.00107531
-0.00063684
0.00120405
-0.000665373
0.00133785
-0.000691029
0.00147607
-0.000713203
0.00161793
-0.000731289
0.00176255
-0.0007447
0.00190892
-0.000752866
0.00205595
-0.000755255
0.00220241
-0.00075129
0.00234698
-0.000740452
0.00248819
-0.000722022
0.00262448
-0.000695561
0.00275412
-0.000660156
0.00287542
-0.000616147
0.00298649
-0.000562649
0.00308604
-0.00050264
0.00317248
-0.000434769
0.00324591
-0.000367521
0.00330519
-0.000294806
0.00335296
-0.000235588
0.00338728
-0.000166907
0.00341483
-0.000131982
-6.53731e-05
0.00111253
-0.000756599
0.0012378
-0.000790642
0.00136809
-0.000821313
0.00150277
-0.000847888
0.00164112
-0.000869641
0.0017823
-0.000885872
0.00192533
-0.000895898
0.00206915
-0.000899081
0.00221259
-0.00089473
0.00235437
-0.000882224
0.00249304
-0.000860699
0.00262711
-0.000829627
0.00275485
-0.000787899
0.00287462
-0.000735913
0.00298455
-0.000672576
0.00308334
-0.000601436
0.0031694
-0.000520831
0.00324281
-0.000440922
0.00330237
-0.000354366
0.00335069
-0.000283913
0.0033858
-0.000202018
0.00341432
-0.000160505
-8.10211e-05
0.00115525
-0.000872412
0.00127649
-0.000911877
0.00140269
-0.000947513
0.00153328
-0.000978479
0.00166757
-0.00100393
0.00180476
-0.00102306
0.00194393
-0.00103507
0.00208406
-0.00103921
0.00222402
-0.00103469
0.00236257
-0.00102077
0.00249833
-0.000996458
0.00262982
-0.000961125
0.00275539
-0.000913467
0.00287341
-0.00085393
0.00298203
-0.000781199
0.00307998
-0.000699379
0.00316562
-0.000606479
0.00323902
-0.000514318
0.00329894
-0.000414288
0.00334795
-0.00033292
0.00338401
-0.000238083
0.0034137
-0.000190195
-9.80717e-05
0.00120251
-0.000983786
0.00131921
-0.00102858
0.00144083
-0.00106913
0.00156684
-0.00110449
0.00169659
-0.00113369
0.00182934
-0.0011558
0.0019642
-0.00116993
0.00210021
-0.00117523
0.00223629
-0.00117077
0.00237126
-0.00115573
0.00250377
-0.00112897
0.00263242
-0.00108977
0.00275558
-0.00103663
0.00287166
-0.000970014
0.00297885
-0.000888391
0.00307588
-0.000796401
0.0031611
-0.000691698
0.00323453
-0.00058775
0.0032949
-0.000474662
0.00334472
-0.000382739
0.00338191
-0.000275275
0.00341297
-0.000221252
-0.000116758
0.00125326
-0.00109029
0.001365
-0.00114033
0.00148163
-0.00118575
0.00160264
-0.0012255
0.00172746
-0.0012585
0.00185537
-0.00128372
0.00198556
-0.00130012
0.00211711
-0.00130678
0.00224899
-0.00130265
0.00238007
-0.00128682
0.00250909
-0.00125798
0.00263466
-0.00121535
0.00275523
-0.00115719
0.00286924
-0.00108403
0.00297491
-0.000994062
0.00307097
-0.000892462
0.00315577
-0.000776497
0.0032293
-0.000661274
0.00329022
-0.000535587
0.003341
-0.000433511
0.00337949
-0.000313764
0.00341211
-0.000253875
-0.000137311
0.0013064
0.00141285
-0.00124677
0.00152413
-0.00129704
0.00163983
-0.0013412
0.00175939
-0.00137807
0.00188217
-0.00140649
0.0020074
-0.00142536
0.00213423
-0.0014336
0.00226167
-0.00143009
0.00238865
-0.0014138
0.00251396
-0.0013833
0.0026363
-0.00133769
0.00275415
-0.00127503
0.002866
-0.00119588
0.0029701
-0.00109816
0.00306519
-0.000987553
0.00314961
-0.000860912
0.0032233
-0.000734965
0.00328489
-0.000597177
0.00333676
-0.000485382
0.00337673
-0.000353731
0.00341112
-0.000288269
-0.000159963
0.0014617
-0.00134765
0.00156739
-0.00140273
0.00167753
-0.00145133
0.00179161
-0.00149215
0.00190904
-0.00152393
0.00202911
-0.00154543
0.00215103
-0.00155551
0.00227386
-0.00155292
0.0023966
-0.00153654
0.0025181
-0.00150479
0.0026371
-0.00145669
0.00275215
-0.00139008
0.0028618
-0.00130554
0.00296432
-0.00120068
0.00305846
-0.0010817
0.00314255
-0.000944999
0.0032165
-0.000808916
0.00327888
-0.000659556
0.003332
-0.000538506
0.00337363
-0.000395355
0.00341
-0.000324638
-0.000184944
0.00151053
-0.00144276
0.00161045
-0.00150266
0.00171486
-0.00155574
0.00182332
-0.0016006
0.00193527
-0.00163588
0.00205008
-0.00166024
0.00216698
-0.00167242
0.00228512
-0.00167106
0.00240355
-0.00165497
0.00252117
-0.00162241
0.0026368
-0.00157232
0.00274903
-0.00150232
0.00285648
-0.00141299
0.00295745
-0.00130165
0.0030507
-0.00117495
0.00313455
-0.00102884
0.00320887
-0.000883236
0.00327217
-0.000722862
0.00332671
-0.000593045
0.00337018
-0.000438824
0.00340873
-0.000363188
-0.000212481
0.00155831
-0.00153201
0.00165238
-0.00159673
0.00175099
-0.00165435
0.00185376
-0.00170337
0.0019602
-0.00174232
0.0020697
-0.00176974
0.00218157
-0.00178429
0.00229501
-0.0017845
0.00240912
-0.00176908
0.00252288
-0.00173616
0.00263515
-0.0016846
0.00274461
-0.00161178
0.00284991
-0.00151829
0.00294939
-0.00140113
0.00304184
-0.0012674
0.00312555
-0.00111255
0.00320037
-0.000958055
0.00326475
-0.000787245
0.00332087
-0.000649169
0.00336638
-0.000484327
0.00340732
-0.000404127
-0.000242803
0.00160408
-0.00161538
0.00169229
-0.00168494
0.00178511
-0.00174718
0.00188222
-0.00180048
0.00198317
-0.00184327
0.00208741
-0.00187398
0.00219431
-0.00189118
0.0023031
-0.0018933
0.00241297
-0.00187895
0.00252293
-0.00184613
0.00263194
-0.0017936
0.00273871
-0.00171855
0.00284195
-0.00162154
0.00294005
-0.00149923
0.00303181
-0.00135916
0.00311551
-0.00119625
0.00319097
-0.00103352
0.00325659
-0.000852866
0.00331448
-0.000707055
0.00336221
-0.000532057
0.00340575
-0.000447663
-0.000276133
0.00164693
-0.00169289
0.00172935
-0.00176735
0.00181647
-0.0018343
0.00190801
-0.00189202
0.00200358
-0.00193884
0.00210269
-0.00197308
0.00220473
-0.00199322
0.00230901
-0.00199758
0.00241477
-0.0019847
0.00252107
-0.00195243
0.00262694
-0.00189947
0.00273115
-0.00182276
0.00283247
-0.00172286
0.00292933
-0.00159608
0.00302054
-0.00145037
0.00310439
-0.0012801
0.00318066
-0.00110979
0.00324769
-0.000919897
0.00330752
-0.000766886
0.00335767
-0.000582209
0.00340401
-0.000494004
-0.000312693
0.00168605
-0.00176469
0.00176281
-0.00184411
0.00184438
-0.00191587
0.00193053
-0.00197817
0.0020209
-0.00202921
0.00211504
-0.00206723
0.00221242
-0.0020906
0.00231239
-0.00209755
0.00241421
-0.00208652
0.00251705
-0.00205526
0.00261996
-0.00200238
0.00272178
-0.00192458
0.00282136
-0.00182244
0.00291714
-0.00169186
0.00300799
-0.00154122
0.00309215
-0.00136426
0.0031694
-0.00118704
0.00323802
-0.00098852
0.00329999
-0.000828849
0.00335276
-0.000634982
0.00340211
-0.000543359
-0.000352701
0.00172068
-0.00183096
0.00179199
-0.00191542
0.00186824
-0.00199212
0.00194922
-0.00205915
0.00203463
-0.00211462
0.00212406
-0.00215667
0.00221702
-0.00218356
0.00231291
-0.00219344
0.00241105
-0.00218466
0.00251064
-0.00215486
0.00261082
-0.00210256
0.00271048
-0.00202424
0.00280852
-0.00192048
0.00290343
-0.00178677
0.00299409
-0.00163188
0.00307876
-0.00144893
0.00315718
-0.00126545
0.00322758
-0.00105893
0.00329187
-0.000893138
0.00334746
-0.000690575
0.00340004
-0.000595936
-0.000396373
0.00175013
0.00181627
0.00188747
0.00196357
0.00204432
0.00212935
0.00221819
-0.00227241
0.0023103
-0.00228554
0.00240504
-0.00227941
0.00250167
-0.00225149
0.00259938
-0.00220027
0.00269712
-0.00212199
0.00279385
-0.00201721
0.00288811
-0.00188103
0.00297881
-0.00172257
0.00306419
-0.00153431
0.00314398
-0.00134524
0.00321636
-0.00113131
0.00328317
-0.000959949
0.00334179
-0.000749189
0.00339779
-0.000651938
-0.000443919
0.00221564
0.00230431
0.00239598
0.00248996
0.0025855
0.00268161
0.0027773
0.00287116
0.00296212
0.00304843
0.00312979
0.00320436
0.00327389
0.00333572
0.00339535
0.00275186
0.00287641
0.00298993
0.00309113
0.00317843
0.003252
0.00331075
0.00335744
0.0033902
0.00341582
)
;

boundaryField
{
    inlet
    {
        type            calculated;
        value           nonuniform 0();
    }
    outlet
    {
        type            calculated;
        value           nonuniform List<scalar> 
20
(
0.00342796
0.0034281
0.00342837
0.00342878
0.00342931
0.00342997
0.00343076
0.00343165
0.00343266
0.00343377
0.00343498
0.00343627
0.00343764
0.00343908
0.00344057
0.00344212
0.00344371
0.00344534
0.00344698
0.00342796
)
;
    }
    cylinder
    {
        type            calculated;
        value           nonuniform 0();
    }
    top
    {
        type            symmetryPlane;
        value           nonuniform 0();
    }
    bottom
    {
        type            symmetryPlane;
        value           nonuniform 0();
    }
    defaultFaces
    {
        type            empty;
        value           nonuniform 0();
    }
    procBoundary23to17
    {
        type            processor;
        value           nonuniform List<scalar> 
24
(
2.03781e-09
2.58221e-09
3.07624e-09
3.44337e-09
3.62834e-09
3.63455e-09
3.36163e-09
2.99564e-09
2.61108e-09
2.21833e-09
1.72962e-09
1.77243e-09
-0.000133654
-0.000124544
-0.000113523
-0.000101196
-8.73076e-05
-7.35641e-05
-5.87591e-05
-4.66885e-05
-3.27585e-05
-2.56249e-05
-1.2138e-05
-0.00261821
)
;
    }
    procBoundary23to22
    {
        type            processor;
        value           nonuniform List<scalar> 
16
(
-0.000865999
-0.00087492
-0.000892555
-0.000918499
-0.000952158
-0.000992773
-0.00103944
-0.00109113
-0.00114675
-0.00120512
-0.00119158
-0.00136083
-0.00141541
-0.00146906
-0.00152072
-0.00156942
)
;
    }
    procBoundary23to28
    {
        type            processor;
        value           nonuniform List<scalar> 3(-0.00161425 -0.00165441 -0.00168913);
    }
    procBoundary23to29
    {
        type            processor;
        value           nonuniform List<scalar> 
23
(
-0.00189196
-0.00198156
-0.00206332
-0.00213525
-0.00219537
-0.00224169
-0.00213057
-0.00235748
-0.00237421
-0.00237108
-0.00234547
-0.00229581
-0.0022181
-0.0021129
-0.00197488
-0.00181353
-0.00162063
-0.0014266
-0.00120588
-0.00102948
-0.000811022
-0.00071157
-0.000495545
)
;
    }
}


// ************************************************************************* //
