/*--------------------------------*- C++ -*----------------------------------*\
  =========                 |
  \\      /  F ield         | OpenFOAM: The Open Source CFD Toolbox
   \\    /   O peration     | Website:  https://openfoam.org
    \\  /    A nd           | Version:  7
     \\/     M anipulation  |
\*---------------------------------------------------------------------------*/
FoamFile
{
    version     2.0;
    format      ascii;
    class       surfaceScalarField;
    location    "6";
    object      phi;
}
// * * * * * * * * * * * * * * * * * * * * * * * * * * * * * * * * * * * * * //

dimensions      [0 3 -1 0 0 0 0];

internalField   nonuniform List<scalar> 
814
(
7.42704e-07
-1.66098e-06
1.74418e-06
-3.10774e-06
-4.87256e-06
1.95935e-07
-6.85309e-07
8.15833e-07
-2.28087e-06
1.91448e-06
-4.20639e-06
3.55206e-06
-6.51015e-06
5.79466e-06
-9.24645e-06
8.71472e-06
-1.2476e-05
1.23917e-05
-1.62666e-05
-2.06934e-05
2.13347e-07
-8.98656e-07
8.87608e-07
-2.95514e-06
2.08152e-06
-5.4003e-06
3.85948e-06
-8.28811e-06
6.29203e-06
-1.1679e-05
9.45638e-06
-1.56404e-05
1.34369e-05
-2.02471e-05
1.83259e-05
-2.55823e-05
2.4224e-05
-3.17381e-05
3.12409e-05
-3.88162e-05
3.94962e-05
-4.69289e-05
4.91201e-05
-5.62e-05
-6.67655e-05
2.30371e-07
-1.12903e-06
9.57719e-07
-3.68248e-06
2.24455e-06
-6.68713e-06
4.15926e-06
-1.02028e-05
6.77662e-06
-1.42964e-05
1.01783e-05
-1.9042e-05
1.44532e-05
-2.45221e-05
1.96986e-05
-3.08277e-05
2.60201e-05
-3.80595e-05
3.35325e-05
-4.63286e-05
4.23608e-05
-5.57571e-05
5.26403e-05
-6.64795e-05
6.45178e-05
-7.86431e-05
7.81525e-05
-9.24093e-05
9.37159e-05
-0.000107954
0.000111393
-0.00012547
-0.000145167
2.4698e-07
-1.37601e-06
1.02601e-06
-4.46152e-06
2.40316e-06
-8.06428e-06
4.45055e-06
-1.22502e-05
7.24687e-06
-1.70927e-05
1.08778e-05
-2.2673e-05
1.54368e-05
-2.9081e-05
2.10251e-05
-3.6416e-05
2.77528e-05
-4.47873e-05
3.57395e-05
-5.43153e-05
4.51144e-05
-6.51321e-05
5.60175e-05
-7.73826e-05
6.85998e-05
-9.12254e-05
8.30243e-05
-0.000106834
9.94662e-05
-0.000124396
0.000118114
-0.000144118
0.00013917
-0.000166223
0.000162849
-0.00019095
0.000189383
-0.000218562
0.000219015
-0.000249337
-0.000283578
2.63137e-07
-1.63914e-06
1.09232e-06
-5.2907e-06
2.55691e-06
-9.52887e-06
4.73249e-06
-1.44258e-05
7.70132e-06
-2.00615e-05
1.15528e-05
-2.65245e-05
1.6384e-05
-3.39123e-05
2.23003e-05
-4.23322e-05
2.94154e-05
-5.19025e-05
3.78528e-05
-6.27526e-05
4.77454e-05
-7.50247e-05
5.92367e-05
-8.88739e-05
7.24809e-05
-0.00010447
8.76439e-05
-0.000121997
0.000104903
-0.000141655
0.000124448
-0.000163664
0.000146482
-0.000188256
0.00017122
-0.000215688
0.000198889
-0.000246231
0.000229731
-0.000280178
0.000263996
-0.000317843
0.00030195
-0.000359559
0.000343864
-0.00040568
2.78788e-07
-1.91793e-06
1.15641e-06
-6.16832e-06
2.70523e-06
-1.10777e-05
5.00396e-06
-1.67245e-05
8.13806e-06
-2.31956e-05
1.22002e-05
-3.05866e-05
1.72908e-05
-3.90028e-05
2.35182e-05
-4.85597e-05
3.09998e-05
-5.93841e-05
3.98618e-05
-7.16147e-05
5.02402e-05
-8.5403e-05
6.22808e-05
-0.000100914
7.61402e-05
-0.000118329
9.19856e-05
-0.000137842
0.000109996
-0.000159665
0.00013036
-0.000184028
0.00015328
-0.000211176
0.000178968
-0.000241376
0.000207647
-0.00027491
0.000239552
-0.000312083
0.000274925
-0.000353217
0.000314018
-0.000398652
2.9385e-07
-2.21178e-06
1.21792e-06
-7.09239e-06
2.84727e-06
-1.2707e-05
5.26338e-06
-1.91406e-05
8.55449e-06
-2.64867e-05
1.28161e-05
-3.48482e-05
1.81512e-05
-4.4338e-05
2.46712e-05
-5.50797e-05
3.24956e-05
-6.72085e-05
4.17531e-05
-8.08721e-05
5.25815e-05
-9.62315e-05
6.51285e-05
-0.000113461
7.95514e-05
-0.000132752
9.6018e-05
-0.000154309
0.000114706
-0.000178354
0.000135804
-0.000205126
0.00015951
-0.000234882
0.000186032
-0.000267898
0.000215586
-0.000304465
0.000248399
-0.000344896
0.000284702
-0.000389519
3.08205e-07
-2.51999e-06
1.27636e-06
-8.06054e-06
2.98189e-06
-1.44126e-05
5.50863e-06
-2.16674e-05
8.94717e-06
-2.99253e-05
1.33953e-05
-3.92963e-05
1.89582e-05
-4.99009e-05
2.57492e-05
-6.18706e-05
3.38897e-05
-7.5349e-05
4.35097e-05
-9.04922e-05
5.47483e-05
-0.00010747
6.77535e-05
-0.000126467
8.26827e-05
-0.000147681
9.97025e-05
-0.000171328
0.000118989
-0.00019764
0.000140727
-0.000226864
0.00016511
-0.000259265
0.00019234
-0.000295127
0.000222625
-0.00033475
0.000256179
-0.00037845
3.21704e-07
-2.84169e-06
1.33112e-06
-9.06996e-06
3.10765e-06
-1.61891e-05
5.73706e-06
-2.42968e-05
9.31181e-06
-3.35e-05
1.39314e-05
-4.39159e-05
1.97026e-05
-5.56721e-05
2.674e-05
-6.89081e-05
3.51661e-05
-8.37751e-05
4.51115e-05
-0.000100438
5.67152e-05
-0.000119074
7.01248e-05
-0.000139876
8.54962e-05
-0.000163053
0.000102994
-0.000188826
0.00012279
-0.000217436
0.000145066
-0.000249139
0.000170007
-0.000284207
0.000197808
-0.000322928
0.000228667
-0.000365608
3.34165e-07
-3.17586e-06
1.38146e-06
-1.01173e-05
3.22285e-06
-1.80305e-05
5.94557e-06
-2.70195e-05
9.64342e-06
-3.71978e-05
1.4417e-05
-4.86895e-05
2.03741e-05
-6.16293e-05
2.76298e-05
-7.61638e-05
3.63068e-05
-9.2452e-05
4.65353e-05
-0.000110666
5.84535e-05
-0.000130992
7.22072e-05
-0.00015363
8.79497e-05
-0.000178795
0.000105842
-0.000206718
0.000126051
-0.000237646
0.000148752
-0.00027184
0.000174122
-0.000309577
0.000202346
-0.000351152
3.45386e-07
-3.52124e-06
1.42655e-06
-1.11984e-05
3.32559e-06
-1.99295e-05
6.13072e-06
-2.98246e-05
9.93649e-06
-4.10036e-05
1.48441e-05
-5.3597e-05
2.09614e-05
-6.77466e-05
2.84034e-05
-8.36057e-05
3.72919e-05
-0.000101341
4.77562e-05
-0.00012113
5.99322e-05
-0.000143168
7.39629e-05
-0.000167661
8.99979e-05
-0.00019483
0.000108193
-0.000224913
0.000128709
-0.000258162
0.000151712
-0.000294843
0.000177371
-0.000335237
-0.000379638
3.55151e-07
-3.87639e-06
1.46553e-06
-1.23088e-05
3.41388e-06
-2.18779e-05
6.28883e-06
-3.26996e-05
1.01852e-05
-4.48999e-05
1.52039e-05
-5.86158e-05
2.14524e-05
-7.39951e-05
2.90446e-05
-9.1198e-05
3.81009e-05
-0.000110397
4.87481e-05
-0.000131778
6.11191e-05
-0.000155539
7.53531e-05
-0.000181895
9.15943e-05
-0.000211071
0.000109992
-0.000243311
0.0001307
-0.00027887
0.000153874
-0.000318016
0.000179671
-0.000361034
3.63241e-07
-4.23963e-06
1.4975e-06
-1.34431e-05
3.48565e-06
-2.3866e-05
6.41623e-06
-3.56302e-05
1.03835e-05
-4.88673e-05
1.54878e-05
-6.372e-05
2.18351e-05
-8.03424e-05
2.95376e-05
-9.89004e-05
3.87131e-05
-0.000119572
4.94852e-05
-0.00014255
6.19827e-05
-0.000168037
7.63394e-05
-0.000196251
9.26935e-05
-0.000227425
0.000111186
-0.000261804
0.000131962
-0.000299645
0.000155165
-0.00034122
-0.00038681
3.69436e-07
-4.60907e-06
1.52158e-06
-1.45952e-05
3.53891e-06
-2.58834e-05
6.50927e-06
-3.86005e-05
1.05259e-05
-5.28839e-05
1.56874e-05
-6.88816e-05
2.2098e-05
-8.6753e-05
2.98669e-05
-0.000106669
3.91087e-05
-0.000128814
4.99427e-05
-0.000153384
6.24926e-05
-0.000180586
7.68857e-05
-0.000210644
9.32526e-05
-0.000243792
0.000111726
-0.000280277
0.000132438
-0.000320358
0.000155523
-0.000364305
-0.000412397
3.73529e-07
-4.9826e-06
1.53694e-06
-1.57586e-05
3.57177e-06
-2.79182e-05
6.56453e-06
-4.15933e-05
1.06067e-05
-5.69261e-05
1.57948e-05
-7.40696e-05
2.223e-05
-9.31881e-05
3.00181e-05
-0.000114458
3.92694e-05
-0.000138066
5.00979e-05
-0.000164212
6.26211e-05
-0.00019311
7.69589e-05
-0.000224982
9.32331e-05
-0.000260066
0.000111566
-0.00029861
0.000132079
-0.000340871
0.00015489
-0.000387116
-0.000437622
3.75331e-07
-5.35793e-06
1.54282e-06
-1.69261e-05
3.58248e-06
-2.99579e-05
6.57892e-06
-4.45897e-05
1.06212e-05
-6.09684e-05
1.58028e-05
-7.92512e-05
2.22214e-05
-9.96067e-05
2.99785e-05
-0.000122215
3.9179e-05
-0.000147266
4.99309e-05
-0.000174964
6.23443e-05
-0.000205523
7.65308e-05
-0.000239169
9.26023e-05
-0.000276138
0.00011067
-0.000316677
0.000130841
-0.000361042
0.000153221
-0.000409496
3.74676e-07
-5.73261e-06
1.53856e-06
-1.809e-05
3.56957e-06
-3.19889e-05
6.54976e-06
-4.75699e-05
1.05651e-05
-6.49838e-05
1.57055e-05
-8.43916e-05
2.20641e-05
-0.000105965
2.97373e-05
-0.000129888
3.8824e-05
-0.000156353
4.94251e-05
-0.000185565
6.16426e-05
-0.00021774
7.55785e-05
-0.000253105
9.1334e-05
-0.000291893
0.000109008
-0.000334351
0.000128694
-0.000380729
-0.000431284
3.71421e-07
-6.10403e-06
1.52359e-06
-1.92422e-05
3.53177e-06
-3.39971e-05
6.47483e-06
-5.0513e-05
1.04351e-05
-6.8944e-05
1.54979e-05
-8.94544e-05
2.17514e-05
-0.000112219
2.92861e-05
-0.000137422
3.81939e-05
-0.000165261
4.8568e-05
-0.000195939
6.05012e-05
-0.000229674
7.40853e-05
-0.000266689
8.94097e-05
-0.000307218
0.00010656
-0.000351501
0.000125616
-0.000399784
-0.000452317
3.65453e-07
-6.46948e-06
1.49748e-06
-2.03742e-05
3.4681e-06
-3.59677e-05
6.35242e-06
-5.33973e-05
1.02283e-05
-7.28199e-05
1.51762e-05
-9.44023e-05
2.12784e-05
-0.000118321
2.86187e-05
-0.000144763
3.72814e-05
-0.000173923
4.7351e-05
-0.000206009
5.89106e-05
-0.000241233
7.2041e-05
-0.000279819
8.68192e-05
-0.000321996
0.000103317
-0.000367999
0.000121598
-0.000418066
0.000141719
-0.000472437
-0.000531353
3.56696e-07
-6.82618e-06
1.45994e-06
-2.14774e-05
3.37794e-06
-3.78857e-05
6.18145e-06
-5.62008e-05
9.9434e-06
-7.65819e-05
1.47384e-05
-9.91973e-05
2.06425e-05
-0.000124225
2.77319e-05
-0.000151852
3.60829e-05
-0.000182274
4.57705e-05
-0.000215696
5.68674e-05
-0.00025233
6.94427e-05
-0.000292394
8.35605e-05
-0.000336114
9.92782e-05
-0.000383716
0.000116644
-0.000435432
0.000135697
-0.00049149
-0.000552117
3.45108e-07
-7.17128e-06
1.41082e-06
-2.25431e-05
3.261e-06
-3.97359e-05
5.96148e-06
-5.89013e-05
9.57964e-06
-8.02e-05
1.41838e-05
-0.000103802
1.98429e-05
-0.000129884
2.66254e-05
-0.000158635
3.45985e-05
-0.000190247
4.38273e-05
-0.000224925
5.43738e-05
-0.000262877
6.62947e-05
-0.000304315
7.96408e-05
-0.00034946
9.44547e-05
-0.00039853
0.000110769
-0.000451747
0.000128605
-0.000509326
-0.000571481
3.30687e-07
-7.50197e-06
1.35012e-06
-2.35626e-05
3.11733e-06
-4.15031e-05
5.6927e-06
-6.14766e-05
9.1375e-06
-8.36448e-05
1.35133e-05
-0.000108177
1.88813e-05
-0.000135252
2.53015e-05
-0.000165055
3.2832e-05
-0.000197778
4.15273e-05
-0.000233621
5.14379e-05
-0.000272787
6.26083e-05
-0.000315486
7.50754e-05
-0.000361927
8.88671e-05
-0.000412322
0.000104
-0.00046688
0.000120478
-0.000525804
-0.000589292
3.13459e-07
-7.81543e-06
1.278e-06
-2.45271e-05
2.94731e-06
-4.31724e-05
5.37588e-06
-6.39052e-05
8.61838e-06
-8.68873e-05
1.27291e-05
-0.000112288
1.77611e-05
-0.000140284
2.37656e-05
-0.000171059
3.07907e-05
-0.000204803
3.88805e-05
-0.00024171
4.80735e-05
-0.00028198
5.84016e-05
-0.000325814
6.98879e-05
-0.000373413
8.25457e-05
-0.00042498
9.63756e-05
-0.00048071
0.000111365
-0.000540793
0.000127483
2.935e-07
-8.10893e-06
1.19478e-06
-2.54284e-05
2.75176e-06
-4.47294e-05
5.01258e-06
-6.6166e-05
8.02485e-06
1.18351e-05
1.64881e-05
2.20256e-05
2.84858e-05
3.59016e-05
4.42998e-05
5.36993e-05
6.41097e-05
7.55293e-05
8.79437e-05
2.7091e-07
1.10083e-06
2.53155e-06
)
;

boundaryField
{
    inlet
    {
        type            calculated;
        value           nonuniform 0();
    }
    outlet
    {
        type            calculated;
        value           nonuniform 0();
    }
    cylinder
    {
        type            calculated;
        value           uniform 0;
    }
    top
    {
        type            symmetryPlane;
        value           nonuniform 0();
    }
    bottom
    {
        type            symmetryPlane;
        value           nonuniform 0();
    }
    defaultFaces
    {
        type            empty;
        value           nonuniform 0();
    }
    procBoundary20to14
    {
        type            processor;
        value           nonuniform List<scalar> 2(-1.78206e-07 4.89375e-07);
    }
    procBoundary20to25
    {
        type            processor;
        value           nonuniform List<scalar> 
20
(
-0.000605411
-0.000674729
-8.98996e-05
-0.000116098
-0.000144937
-0.000176597
-0.000211263
-0.000249126
-0.000290378
-0.000335213
-0.000383824
-0.000436399
-0.000493124
0.000101323
-0.000554173
-8.37984e-06
-2.62583e-05
-4.61601e-05
4.60442e-06
-6.82389e-05
)
;
    }
    procBoundary20to26
    {
        type            processor;
        value           nonuniform List<scalar> 
28
(
-0.000456578
0.000357088
-0.00044875
0.000324731
-0.000438681
0.000293221
-0.000426561
0.000262783
-0.000412567
0.000233608
-0.000396871
0.000205858
0.000208249
-0.000408217
0.000180941
0.00018111
0.000180116
0.000177907
-0.000462308
0.000150481
0.000146649
0.00050935
0.000163722
0.000156461
0.000147969
0.00013829
0.000657529
0.000144684
)
;
    }
    procBoundary20to27
    {
        type            processor;
        value           nonuniform List<scalar> 
29
(
1.09648e-06
2.10627e-06
3.37832e-06
3.23842e-06
7.00386e-06
9.55597e-06
1.25896e-05
1.61726e-05
1.69124e-05
2.584e-05
3.17992e-05
3.86736e-05
4.65761e-05
5.56316e-05
6.02541e-05
7.87747e-05
9.23909e-05
0.000107793
0.000125176
0.000131385
0.000167271
0.000192028
0.000219705
0.000250588
0.000252004
0.000321606
0.000363765
0.000410422
0.000390021
)
;
    }
}


// ************************************************************************* //
