/*--------------------------------*- C++ -*----------------------------------*\
  =========                 |
  \\      /  F ield         | OpenFOAM: The Open Source CFD Toolbox
   \\    /   O peration     | Website:  https://openfoam.org
    \\  /    A nd           | Version:  7
     \\/     M anipulation  |
\*---------------------------------------------------------------------------*/
FoamFile
{
    version     2.0;
    format      ascii;
    class       volScalarField;
    location    "4";
    object      p;
}
// * * * * * * * * * * * * * * * * * * * * * * * * * * * * * * * * * * * * * //

dimensions      [0 2 -2 0 0 0 0];

internalField   nonuniform List<scalar> 
433
(
-0.475725
-0.474236
-0.47271
-0.471222
-0.469679
-0.464182
-0.462914
-0.461609
-0.460329
-0.458997
-0.457589
-0.456108
-0.454553
-0.452923
-0.452955
-0.451901
-0.45081
-0.449735
-0.448607
-0.44741
-0.446143
-0.444807
-0.443399
-0.441915
-0.440353
-0.43871
-0.436984
-0.442098
-0.44125
-0.440367
-0.439488
-0.438559
-0.437566
-0.436508
-0.435384
-0.434191
-0.432925
-0.431585
-0.430167
-0.428668
-0.427086
-0.425417
-0.423659
-0.421809
-0.431658
-0.431007
-0.430323
-0.429633
-0.428896
-0.428099
-0.427241
-0.426322
-0.425337
-0.424284
-0.423158
-0.421958
-0.42068
-0.419321
-0.417877
-0.416346
-0.414724
-0.413009
-0.411195
-0.409281
-0.421676
-0.421214
-0.42072
-0.42021
-0.419655
-0.419046
-0.418381
-0.417657
-0.416872
-0.416022
-0.415104
-0.414113
-0.413048
-0.411904
-0.410678
-0.409366
-0.407966
-0.406473
-0.404885
-0.403196
-0.401403
-0.399502
-0.397489
-0.395358
-0.412188
-0.411905
-0.411591
-0.411252
-0.410872
-0.410441
-0.409959
-0.409423
-0.408828
-0.408172
-0.40745
-0.40666
-0.405798
-0.40486
-0.403843
-0.402742
-0.401555
-0.400276
-0.398904
-0.397433
-0.395859
-0.394179
-0.392387
-0.39048
-0.388452
-0.386297
-0.384012
-0.403226
-0.403113
-0.402969
-0.402793
-0.402577
-0.402316
-0.402007
-0.401648
-0.401234
-0.400761
-0.400227
-0.399627
-0.398957
-0.398215
-0.397395
-0.396495
-0.39551
-0.394436
-0.393269
-0.392006
-0.390642
-0.389172
-0.387594
-0.385901
-0.384089
-0.382155
-0.380093
-0.377899
-0.37557
-0.373101
-0.394821
-0.394868
-0.394885
-0.394863
-0.394802
-0.394701
-0.394555
-0.394362
-0.394118
-0.393818
-0.39346
-0.393038
-0.39255
-0.391991
-0.391358
-0.390646
-0.389851
-0.388969
-0.387997
-0.386929
-0.385762
-0.384492
-0.383114
-0.381624
-0.380017
-0.378291
-0.376439
-0.37446
-0.37235
-0.387004
-0.387202
-0.387371
-0.387492
-0.387577
-0.387625
-0.387633
-0.387596
-0.38751
-0.387371
-0.387177
-0.386922
-0.386602
-0.386214
-0.385754
-0.385217
-0.384599
-0.383896
-0.383104
-0.382218
-0.381235
-0.38015
-0.378958
-0.377656
-0.37624
-0.374705
-0.373049
-0.371267
-0.37981
-0.380149
-0.380459
-0.380715
-0.380935
-0.381122
-0.381271
-0.381378
-0.381439
-0.381449
-0.381406
-0.381304
-0.38114
-0.380909
-0.380608
-0.380232
-0.379776
-0.379237
-0.37861
-0.377891
-0.377076
-0.37616
-0.375139
-0.374009
-0.372766
-0.371406
-0.369926
-0.368323
-0.373276
-0.373745
-0.374185
-0.374564
-0.374909
-0.375223
-0.375502
-0.375741
-0.375935
-0.376081
-0.376175
-0.376213
-0.37619
-0.376102
-0.375945
-0.375714
-0.375405
-0.375014
-0.374536
-0.373968
-0.373303
-0.372539
-0.371671
-0.370696
-0.369608
-0.368405
-0.367082
-0.367438
-0.368026
-0.368585
-0.369076
-0.369533
-0.369962
-0.370358
-0.370715
-0.37103
-0.371297
-0.371515
-0.371677
-0.37178
-0.371819
-0.37179
-0.371688
-0.37151
-0.37125
-0.370904
-0.370468
-0.369937
-0.369308
-0.368575
-0.367734
-0.366783
-0.365716
-0.364531
-0.362338
-0.363031
-0.363696
-0.364286
-0.364842
-0.365373
-0.365872
-0.366333
-0.366753
-0.367128
-0.367453
-0.367724
-0.367936
-0.368086
-0.368169
-0.36818
-0.368114
-0.367968
-0.367737
-0.367415
-0.367
-0.366486
-0.365869
-0.365145
-0.36431
-0.36336
-0.358015
-0.358799
-0.359554
-0.360229
-0.360871
-0.361488
-0.362075
-0.362626
-0.363136
-0.363601
-0.364017
-0.364381
-0.364686
-0.36493
-0.365106
-0.365212
-0.365242
-0.365191
-0.365055
-0.36483
-0.364511
-0.364094
-0.363574
-0.362947
-0.362209
-0.361356
-0.354505
-0.355363
-0.356193
-0.356938
-0.35765
-0.358339
-0.358998
-0.359621
-0.360204
-0.360743
-0.361234
-0.361672
-0.362053
-0.362373
-0.362626
-0.362808
-0.362914
-0.36294
-0.362882
-0.362734
-0.362492
-0.362152
-0.36171
-0.36116
-0.3605
-0.35184
-0.352757
-0.353644
-0.354443
-0.355208
-0.355951
-0.356665
-0.357344
-0.357983
-0.358578
-0.359126
-0.359621
-0.360059
-0.360435
-0.360746
-0.360986
-0.36115
-0.361234
-0.361234
-0.361144
-0.360961
-0.360679
-0.360294
-0.359803
-0.3592
-0.350048
-0.351004
-0.35193
-0.352765
-0.353567
-0.354347
-0.355098
-0.355814
-0.356491
-0.357124
-0.357709
-0.358243
-0.358719
-0.359134
-0.359484
-0.359762
-0.359965
-0.360088
-0.360127
-0.360076
-0.359931
-0.359688
-0.359342
-0.358889
-0.358325
-0.351922
-0.352742
-0.35354
-0.35431
-0.355045
-0.355741
-0.356393
-0.356998
-0.35755
-0.358046
-0.358481
-0.358849
-0.359147
-0.35937
-0.359513
-0.359571
-0.359539
-0.359414
-0.35919
-0.358864
-0.35843
-0.357885
)
;

boundaryField
{
    inlet
    {
        type            zeroGradient;
    }
    outlet
    {
        type            fixedValue;
        value           nonuniform 0();
    }
    cylinder
    {
        type            zeroGradient;
    }
    top
    {
        type            symmetryPlane;
    }
    bottom
    {
        type            symmetryPlane;
    }
    defaultFaces
    {
        type            empty;
    }
    procBoundary15to9
    {
        type            processor;
        value           nonuniform List<scalar> 
37
(
-0.487519
-0.485806
-0.484055
-0.482355
-0.480598
-0.468055
-0.468055
-0.466355
-0.464577
-0.462721
-0.451214
-0.451214
-0.449425
-0.447552
-0.445594
-0.435172
-0.435172
-0.433272
-0.431281
-0.429197
-0.419863
-0.419863
-0.41782
-0.415675
-0.407262
-0.407262
-0.405134
-0.402892
-0.400532
-0.393103
-0.393103
-0.390721
-0.388203
-0.38159
-0.38159
-0.379026
-0.376317
)
;
    }
    procBoundary15to16
    {
        type            processor;
        value           nonuniform List<scalar> 
17
(
-0.370492
-0.370106
-0.370106
-0.369358
-0.369358
-0.366595
-0.365638
-0.365638
-0.363225
-0.362292
-0.362292
-0.360385
-0.359724
-0.359724
-0.358483
-0.357646
-0.357225
)
;
    }
    procBoundary15to21
    {
        type            processor;
        value           nonuniform List<scalar> 
26
(
-0.351922
-0.352742
-0.353541
-0.35431
-0.355045
-0.355741
-0.356393
-0.356998
-0.35755
-0.358046
-0.358481
-0.358849
-0.359147
-0.35937
-0.359513
-0.359571
-0.359539
-0.359414
-0.35919
-0.358863
-0.35843
-0.357885
-0.349147
-0.350123
-0.351068
-0.351068
)
;
    }
}


// ************************************************************************* //
