/*--------------------------------*- C++ -*----------------------------------*\
  =========                 |
  \\      /  F ield         | OpenFOAM: The Open Source CFD Toolbox
   \\    /   O peration     | Website:  https://openfoam.org
    \\  /    A nd           | Version:  7
     \\/     M anipulation  |
\*---------------------------------------------------------------------------*/
FoamFile
{
    version     2.0;
    format      ascii;
    class       volVectorField;
    location    "48.000792";
    object      U;
}
// * * * * * * * * * * * * * * * * * * * * * * * * * * * * * * * * * * * * * //

dimensions      [0 1 -1 0 0 0 0];

internalField   nonuniform List<vector> 
5800
(
(0.0154672 -0.00324945 -4.19499e-22)
(0.0215674 -0.00970217 -1.28849e-20)
(0.033743 -0.0160146 1.91021e-20)
(0.0519422 -0.0220878 6.1406e-21)
(0.0760831 -0.0278158 -1.62626e-20)
(0.0227665 -0.00289864 2.39014e-21)
(0.0274639 -0.00272645 2.19426e-21)
(0.0320021 -0.00262384 -4.08628e-21)
(0.036514 -0.00256066 1.9338e-21)
(0.0410402 -0.0025252 -1.1183e-21)
(0.0456183 -0.00251194 -3.79879e-22)
(0.0502861 -0.00251585 2.17178e-21)
(0.0550744 -0.00253268 -3.13012e-21)
(0.0600078 -0.00255922 1.36557e-21)
(0.0651068 -0.00259289 1.24649e-21)
(0.0703886 -0.00263162 -2.55698e-21)
(0.0758673 -0.00267364 -3.39281e-23)
(0.0815543 -0.00271747 2.04664e-21)
(0.0874585 -0.00276182 -1.6096e-22)
(0.0935866 -0.00280559 -8.30247e-22)
(0.0999431 -0.00284784 7.24764e-22)
(0.10653 -0.00288775 -3.39947e-22)
(0.113349 -0.00292465 4.53774e-22)
(0.120399 -0.00295798 -3.3374e-22)
(0.127677 -0.00298728 -2.19189e-22)
(0.13518 -0.00301222 9.30158e-22)
(0.142901 -0.00303253 -2.79488e-22)
(0.150836 -0.00304806 -6.02076e-22)
(0.158976 -0.00305871 3.91582e-22)
(0.167314 -0.00306444 1.21611e-22)
(0.175842 -0.0030653 -4.63371e-22)
(0.184549 -0.00306134 5.26212e-22)
(0.193426 -0.00305268 -4.24632e-22)
(0.202463 -0.00303948 -2.85108e-22)
(0.21165 -0.00302191 8.19085e-22)
(0.220974 -0.00300016 -5.6036e-22)
(0.230426 -0.00297445 -9.05411e-23)
(0.239995 -0.002945 1.13269e-22)
(0.249669 -0.00291206 6.31377e-24)
(0.259437 -0.00287585 2.70628e-22)
(0.269288 -0.00283662 -3.47898e-22)
(0.279212 -0.00279463 2.88265e-22)
(0.289197 -0.00275011 -3.16483e-24)
(0.299233 -0.00270331 -1.68918e-23)
(0.309309 -0.00265447 -2.95468e-23)
(0.319415 -0.00260381 1.785e-22)
(0.329542 -0.00255158 -7.16241e-24)
(0.33968 -0.00249798 -7.05029e-23)
(0.349819 -0.00244324 -3.11257e-23)
(0.359951 -0.00238755 1.72533e-23)
(0.370067 -0.00233111 -8.84566e-23)
(0.380158 -0.00227411 1.09274e-22)
(0.390218 -0.00221673 -2.76324e-23)
(0.400237 -0.00215913 5.60412e-23)
(0.410211 -0.00210147 -1.83598e-23)
(0.420131 -0.0020439 1.58073e-24)
(0.429992 -0.00198656 6.59814e-24)
(0.439788 -0.00192957 -2.98119e-23)
(0.449514 -0.00187307 3.27382e-23)
(0.459164 -0.00181715 -2.77309e-23)
(0.468734 -0.00176192 2.42463e-24)
(0.478221 -0.00170748 1.62031e-23)
(0.48762 -0.00165392 -7.25021e-25)
(0.496927 -0.00160129 -5.94593e-24)
(0.506144 -0.00154968 -2.94773e-24)
(0.515258 -0.00149916 -1.33298e-24)
(0.524291 -0.00144968 3.22555e-24)
(0.533185 -0.0014015 -2.48479e-24)
(0.542065 -0.00135396 -1.4564e-24)
(0.55065 -0.00130876 2.83423e-25)
(0.559549 -0.0012612 -2.48432e-25)
(0.567442 -0.00122243 -5.4542e-26)
(0.577117 -0.00116415 8.85648e-25)
(0.582717 -0.00115041 3.01651e-25)
(0.596279 -0.00103769 -9.18958e-25)
(0.0289937 -0.00865127 -9.21173e-22)
(0.0335838 -0.00814356 -1.5673e-21)
(0.0380287 -0.00784166 -1.44547e-21)
(0.0424799 -0.007655 2.33963e-22)
(0.0469543 -0.00755027 -9.85831e-22)
(0.0514839 -0.0075116 8.06168e-21)
(0.0561064 -0.00752403 -5.84943e-21)
(0.0608518 -0.007575 4.20545e-21)
(0.0657437 -0.0076549 -3.21424e-21)
(0.0708021 -0.00775613 -2.09539e-21)
(0.0760435 -0.00787242 2.11756e-21)
(0.0814817 -0.00799853 2.03654e-21)
(0.0871276 -0.00812997 -4.53311e-21)
(0.0929898 -0.00826291 1.03747e-21)
(0.0990745 -0.00839405 -1.78669e-21)
(0.105386 -0.00852056 1.86208e-21)
(0.111927 -0.00864001 -4.29012e-22)
(0.118697 -0.00875039 3.29024e-21)
(0.125695 -0.00885003 -1.37854e-21)
(0.132919 -0.00893761 4.34833e-22)
(0.140365 -0.00901209 6.79536e-22)
(0.148028 -0.00907274 -2.16068e-21)
(0.155901 -0.00911905 2.6503e-22)
(0.163977 -0.00915077 -3.16718e-22)
(0.172249 -0.00916779 9.42392e-24)
(0.180707 -0.00917022 2.39293e-22)
(0.189343 -0.00915827 9.21274e-22)
(0.198146 -0.0091323 -3.25809e-22)
(0.207108 -0.00909275 -6.80351e-22)
(0.216216 -0.00904013 1.2306e-21)
(0.225462 -0.00897505 -2.03204e-21)
(0.234833 -0.00889813 5.10998e-22)
(0.244319 -0.00881005 1.62742e-21)
(0.25391 -0.00871151 -1.07797e-21)
(0.263593 -0.00860323 -4.12548e-22)
(0.273359 -0.00848595 6.14488e-22)
(0.283197 -0.00836039 -9.95695e-22)
(0.293095 -0.00822729 1.38675e-21)
(0.303044 -0.00808737 -5.78546e-22)
(0.313034 -0.00794135 -1.5729e-22)
(0.323053 -0.00778992 1.20491e-22)
(0.333093 -0.00763376 -2.22249e-24)
(0.343144 -0.00747354 5.56649e-23)
(0.353197 -0.00730988 -2.09234e-23)
(0.363242 -0.00714339 1.2514e-22)
(0.373273 -0.00697467 -7.51955e-23)
(0.383279 -0.00680426 1.27888e-22)
(0.393255 -0.00663271 -1.77379e-22)
(0.403192 -0.0064605 -3.95337e-23)
(0.413083 -0.00628811 -5.81915e-23)
(0.422922 -0.00611598 1.61175e-22)
(0.432703 -0.00594453 -1.8507e-22)
(0.44242 -0.00577415 -4.64569e-23)
(0.452067 -0.00560519 5.16006e-23)
(0.461641 -0.005438 -9.50451e-24)
(0.471136 -0.00527287 -1.34073e-23)
(0.480548 -0.00511008 -5.96135e-24)
(0.489874 -0.0049499 5.76032e-24)
(0.49911 -0.00479254 -2.72672e-23)
(0.508257 -0.00463821 1.93808e-23)
(0.517303 -0.00448711 2.78124e-24)
(0.526268 -0.00433916 -8.24875e-25)
(0.535097 -0.00419509 5.6706e-24)
(0.543913 -0.00405292 -3.44704e-24)
(0.552436 -0.00391778 -1.07639e-25)
(0.561272 -0.00377552 -6.95805e-26)
(0.569108 -0.00365965 -4.95919e-25)
(0.57872 -0.00348534 1.40561e-24)
(0.584277 -0.00344438 8.6502e-25)
(0.597758 -0.00310778 7.94596e-24)
(0.0414147 -0.0142687 3.74583e-23)
(0.0457901 -0.0134516 4.76933e-21)
(0.050047 -0.0129682 8.88322e-22)
(0.0543744 -0.0126669 -9.25104e-21)
(0.0587431 -0.0124981 -5.54657e-21)
(0.0631737 -0.0124375 5.11013e-21)
(0.0677038 -0.0124607 1.15248e-20)
(0.0723619 -0.0125474 -6.38247e-21)
(0.0771697 -0.0126817 -2.32644e-21)
(0.0821457 -0.0128512 1.30409e-21)
(0.0873054 -0.0130455 2.79481e-21)
(0.0926617 -0.0132558 -3.7947e-21)
(0.0982246 -0.0134748 4.112e-21)
(0.104002 -0.0136961 -3.55588e-21)
(0.109999 -0.0139141 6.78946e-21)
(0.11622 -0.0141241 -6.45111e-21)
(0.122666 -0.0143223 1.0698e-21)
(0.129338 -0.0145053 -8.26592e-21)
(0.136233 -0.0146702 3.0956e-21)
(0.143349 -0.0148151 -2.04781e-21)
(0.150682 -0.0149382 9.93817e-22)
(0.158226 -0.0150383 7.18509e-21)
(0.165976 -0.0151146 -3.79509e-21)
(0.173924 -0.0151667 1.22687e-21)
(0.182062 -0.0151945 -3.21717e-21)
(0.190382 -0.0151982 2.71015e-21)
(0.198874 -0.0151781 -3.57057e-21)
(0.207531 -0.0151348 1.52812e-21)
(0.216341 -0.015069 -3.85611e-22)
(0.225294 -0.0149817 1.08857e-21)
(0.234381 -0.0148738 1.0171e-21)
(0.243591 -0.0147463 1.27987e-21)
(0.252914 -0.0146004 -1.11775e-21)
(0.262338 -0.0144372 2.00948e-22)
(0.271854 -0.0142579 -5.33483e-22)
(0.28145 -0.0140638 9.94169e-22)
(0.291117 -0.0138559 -5.42028e-22)
(0.300843 -0.0136356 2.32756e-22)
(0.310619 -0.0134041 -1.06147e-21)
(0.320436 -0.0131624 2.36846e-22)
(0.330282 -0.0129118 3.77317e-22)
(0.340149 -0.0126533 -6.76243e-22)
(0.350027 -0.0123881 5.06221e-22)
(0.359908 -0.0121173 5.32482e-22)
(0.369783 -0.0118417 -3.52881e-22)
(0.379644 -0.0115625 -9.82941e-23)
(0.389482 -0.0112804 -2.88814e-22)
(0.399291 -0.0109965 6.45554e-23)
(0.409063 -0.0107114 8.73036e-23)
(0.418791 -0.0104261 1.77536e-22)
(0.428469 -0.0101411 -1.93699e-22)
(0.438091 -0.00985731 1.20477e-22)
(0.447651 -0.00957524 7.64335e-23)
(0.457144 -0.00929552 -8.06035e-23)
(0.466565 -0.0090187 5.1475e-24)
(0.475911 -0.00874528 5.92437e-23)
(0.485176 -0.00847575 -2.15637e-23)
(0.494358 -0.00821051 1.3323e-24)
(0.503452 -0.00794995 2.98659e-23)
(0.51246 -0.00769437 -5.3553e-25)
(0.52137 -0.00744416 2.99822e-23)
(0.530202 -0.00719914 -2.14923e-23)
(0.538901 -0.00696058 -6.13331e-24)
(0.547589 -0.00672511 1.25813e-23)
(0.555988 -0.00650139 -3.46949e-24)
(0.564702 -0.00626574 8.56235e-25)
(0.572423 -0.0060741 3.66625e-25)
(0.581912 -0.00578533 -5.84395e-24)
(0.587382 -0.00571795 -2.1724e-24)
(0.600704 -0.00516203 -1.37141e-23)
(0.0599616 -0.019656 2.31364e-23)
(0.0640154 -0.018572 -1.81791e-20)
(0.0679864 -0.0179368 -3.83468e-21)
(0.0721227 -0.0175362 1.98966e-20)
(0.0763277 -0.0173127 -1.39989e-20)
(0.0806048 -0.0172367 2.39387e-21)
(0.0849922 -0.0172754 8.2063e-21)
(0.0895158 -0.0174008 -6.84138e-21)
(0.0941943 -0.0175917 -6.28684e-21)
(0.099044 -0.017831 1.03422e-20)
(0.104079 -0.0181042 3.15555e-21)
(0.10931 -0.0183993 -3.79988e-21)
(0.114747 -0.0187059 -3.69194e-21)
(0.120395 -0.019015 2.7107e-22)
(0.12626 -0.0193191 7.87716e-21)
(0.132343 -0.0196117 -4.00592e-21)
(0.138646 -0.0198873 -4.38872e-22)
(0.145168 -0.0201413 -4.04012e-21)
(0.151907 -0.0203701 -2.16138e-22)
(0.15886 -0.0205707 1.59385e-21)
(0.166022 -0.0207409 3.70228e-21)
(0.173388 -0.020879 -4.02114e-21)
(0.180951 -0.0209842 3.28927e-21)
(0.188705 -0.0210557 -1.85053e-21)
(0.196642 -0.0210936 -8.21374e-22)
(0.204754 -0.021098 -3.5545e-22)
(0.213033 -0.0210695 2.02513e-21)
(0.221469 -0.021009 2.09341e-21)
(0.230052 -0.0209174 -4.02287e-21)
(0.238774 -0.020796 -7.7163e-22)
(0.247625 -0.0206462 3.53646e-21)
(0.256595 -0.0204693 -1.18393e-21)
(0.265673 -0.020267 -2.00093e-21)
(0.274849 -0.0200407 8.63254e-22)
(0.284115 -0.0197923 -1.08571e-21)
(0.293458 -0.0195232 1.10224e-21)
(0.30287 -0.0192353 -5.94196e-22)
(0.312341 -0.0189301 2.21692e-21)
(0.321861 -0.0186093 2.21304e-22)
(0.331421 -0.0182745 -1.43129e-22)
(0.34101 -0.0179274 -6.6749e-22)
(0.350621 -0.0175694 -9.79819e-22)
(0.360243 -0.0172021 -2.20325e-22)
(0.36987 -0.0168269 1.0428e-21)
(0.379492 -0.0164452 1.12161e-22)
(0.389101 -0.0160583 -3.89906e-22)
(0.39869 -0.0156675 9.09987e-23)
(0.408252 -0.0152741 5.44444e-23)
(0.417779 -0.0148791 3.2023e-22)
(0.427265 -0.0144837 -1.75062e-22)
(0.436705 -0.0140888 -1.06637e-22)
(0.446091 -0.0136955 1.87177e-23)
(0.455419 -0.0133046 2.84012e-22)
(0.464683 -0.0129168 -1.52568e-22)
(0.47388 -0.0125331 -1.57817e-22)
(0.483004 -0.0121541 5.25983e-23)
(0.492052 -0.0117804 1.77115e-23)
(0.50102 -0.0114127 4.34409e-24)
(0.509905 -0.0110515 -7.93224e-23)
(0.518708 -0.0106971 3.69513e-23)
(0.527416 -0.0103502 -8.06638e-24)
(0.536051 -0.0100104 8.24406e-24)
(0.544557 -0.00967963 -1.44621e-23)
(0.553057 -0.00935309 -1.17575e-23)
(0.561273 -0.009043 4.85748e-24)
(0.569805 -0.00871611 -7.38963e-25)
(0.577358 -0.00845089 -1.97235e-24)
(0.586664 -0.00805027 5.89669e-24)
(0.592006 -0.00795776 1.03504e-24)
(0.60509 -0.00719002 2.23531e-23)
(0.0845287 -0.0247105 1.92296e-20)
(0.0881552 -0.0234175 -7.14164e-21)
(0.0917386 -0.0226728 4.29682e-21)
(0.0956108 -0.0221958 -2.95015e-20)
(0.0995883 -0.0219323 1.37168e-20)
(0.103653 -0.0218515 -1.75753e-20)
(0.107842 -0.021913 1.94668e-20)
(0.11218 -0.0220827 -1.77585e-20)
(0.116681 -0.0223342 -4.10656e-21)
(0.121358 -0.022646 3.49345e-20)
(0.126222 -0.0230001 -1.90958e-20)
(0.131283 -0.023381 1.56973e-20)
(0.136548 -0.0237754 -3.57487e-21)
(0.142021 -0.0241721 -3.28106e-22)
(0.147705 -0.0245614 -9.16576e-21)
(0.153602 -0.0249352 -3.80793e-21)
(0.159711 -0.0252865 -1.72063e-21)
(0.166032 -0.0256097 4.43986e-21)
(0.17256 -0.0259003 -1.05617e-20)
(0.179292 -0.0261546 5.23157e-21)
(0.186224 -0.02637 -2.70738e-21)
(0.193349 -0.0265445 1.41917e-21)
(0.200663 -0.026677 2.74972e-21)
(0.208158 -0.0267668 5.14829e-21)
(0.215827 -0.0268139 -3.2782e-21)
(0.223662 -0.0268186 -2.66982e-21)
(0.231654 -0.0267817 2.08568e-21)
(0.239797 -0.0267042 3.19834e-22)
(0.24808 -0.0265875 1.99094e-21)
(0.256495 -0.0264332 -1.62797e-21)
(0.265032 -0.0262428 -2.00892e-21)
(0.273683 -0.0260183 3.17364e-21)
(0.282438 -0.0257616 -2.63867e-21)
(0.291288 -0.0254747 1.7531e-21)
(0.300223 -0.0251597 6.13342e-22)
(0.309234 -0.0248187 -1.04584e-21)
(0.318311 -0.0244537 -5.90455e-22)
(0.327445 -0.024067 7.67145e-22)
(0.336628 -0.0236604 -1.28581e-21)
(0.34585 -0.0232362 3.42159e-22)
(0.355102 -0.0227962 -4.15218e-22)
(0.364375 -0.0223425 1.50104e-22)
(0.373663 -0.0218769 -1.32653e-22)
(0.382955 -0.0214013 6.10234e-22)
(0.392245 -0.0209174 -5.67055e-22)
(0.401525 -0.020427 3.64603e-22)
(0.410787 -0.0199316 -6.76171e-22)
(0.420026 -0.0194327 2.36002e-22)
(0.429233 -0.0189319 6.0195e-22)
(0.438403 -0.0184304 -4.60815e-22)
(0.44753 -0.0179296 -2.82402e-22)
(0.456608 -0.0174307 3.51114e-22)
(0.465632 -0.0169348 -2.49095e-22)
(0.474597 -0.0164429 1.24391e-22)
(0.483499 -0.0159561 1.9182e-23)
(0.492334 -0.0154752 2.78019e-23)
(0.501097 -0.015001 -1.45243e-22)
(0.509787 -0.0145343 4.66217e-23)
(0.518398 -0.0140758 -2.03685e-24)
(0.526932 -0.013626 5.37985e-23)
(0.535377 -0.0131857 -8.03775e-23)
(0.543754 -0.0127544 2.96217e-23)
(0.552008 -0.0123346 8.14309e-24)
(0.560261 -0.01192 5.98845e-24)
(0.568238 -0.0115266 -5.73823e-25)
(0.576533 -0.0111114 2.15547e-24)
(0.583865 -0.0107756 -1.133e-24)
(0.592931 -0.0102667 4.81564e-24)
(0.598106 -0.0101508 -4.9241e-24)
(0.61088 -0.00918154 -5.52693e-23)
(0.114968 -0.0293195 -8.84474e-21)
(0.118064 -0.0278904 7.78588e-21)
(0.121154 -0.0270916 5.15882e-21)
(0.124683 -0.0265697 -3.40685e-20)
(0.128363 -0.0262872 3.47717e-20)
(0.13215 -0.0262173 -4.03455e-22)
(0.136082 -0.0263136 -2.28219e-20)
(0.140179 -0.0265363 1.40194e-20)
(0.144449 -0.0268548 4.00407e-21)
(0.148903 -0.0272439 4.07387e-21)
(0.153549 -0.027682 -1.60367e-20)
(0.158391 -0.0281506 -1.36167e-20)
(0.163436 -0.0286337 4.93191e-21)
(0.168685 -0.0291179 1.23828e-20)
(0.174139 -0.0295915 -7.28805e-21)
(0.179798 -0.030045 1.93588e-20)
(0.18566 -0.0304701 -2.0793e-20)
(0.191723 -0.0308603 2.22586e-20)
(0.197983 -0.0312104 -6.21373e-21)
(0.204436 -0.0315162 -1.49552e-20)
(0.211076 -0.0317746 1.26013e-20)
(0.217899 -0.0319836 -1.3172e-21)
(0.224899 -0.0321419 -1.971e-21)
(0.232068 -0.0322489 5.45827e-21)
(0.2394 -0.0323045 -3.95397e-21)
(0.246888 -0.0323093 -8.72035e-21)
(0.254524 -0.0322642 6.98076e-21)
(0.2623 -0.0321706 -1.61457e-21)
(0.270209 -0.03203 -1.37214e-21)
(0.278243 -0.0318443 2.67497e-21)
(0.286392 -0.0316155 4.99916e-21)
(0.294649 -0.0313459 -1.57673e-21)
(0.303005 -0.0310378 -8.77791e-21)
(0.311451 -0.0306934 6.41206e-21)
(0.319979 -0.0303154 -3.08589e-21)
(0.32858 -0.0299062 9.79979e-22)
(0.337245 -0.0294683 2.23149e-21)
(0.345966 -0.0290042 -8.69977e-22)
(0.354734 -0.0285164 -3.79179e-23)
(0.363542 -0.0280074 5.11381e-22)
(0.37238 -0.0274794 -1.56331e-21)
(0.381241 -0.0269349 -6.88364e-22)
(0.390118 -0.0263761 1.664e-21)
(0.399001 -0.0258052 3.88593e-22)
(0.407885 -0.0252243 -1.0303e-21)
(0.416762 -0.0246354 3.70497e-22)
(0.425626 -0.0240405 -2.66204e-22)
(0.434469 -0.0234414 -6.27022e-22)
(0.443285 -0.0228398 -4.78728e-23)
(0.452069 -0.0222374 7.04076e-22)
(0.460814 -0.0216357 2.98202e-22)
(0.469516 -0.0210361 2.92756e-22)
(0.47817 -0.0204401 -1.60134e-22)
(0.48677 -0.0198489 2.73626e-22)
(0.495313 -0.0192637 -3.54079e-22)
(0.503795 -0.0186855 1.7673e-22)
(0.512211 -0.0181154 -1.53747e-22)
(0.52056 -0.0175542 8.7372e-24)
(0.528837 -0.0170028 9.16204e-23)
(0.537044 -0.0164619 -7.9536e-23)
(0.545168 -0.0159322 4.08022e-23)
(0.553231 -0.0154134 -2.83061e-23)
(0.561178 -0.0149085 -4.21797e-23)
(0.569131 -0.0144097 -1.41425e-23)
(0.576815 -0.0139368 1.94168e-24)
(0.584821 -0.0134371 -2.35105e-25)
(0.591883 -0.0130345 -1.81759e-24)
(0.600657 -0.0124219 5.59133e-24)
(0.605629 -0.0122847 3.00394e-24)
(0.618022 -0.0111266 2.66805e-23)
(0.151084 -0.0333602 2.96074e-20)
(0.153549 -0.0318815 -2.22253e-20)
(0.156039 -0.0310976 3.62818e-20)
(0.159139 -0.0305718 -1.36132e-20)
(0.162447 -0.0302993 1.05896e-20)
(0.165885 -0.030263 -2.7305e-20)
(0.169495 -0.0304113 4.37331e-21)
(0.173291 -0.0306999 -9.22605e-22)
(0.177276 -0.0310952 5.9861e-21)
(0.181454 -0.0315689 1.59599e-20)
(0.185828 -0.0320961 -1.29267e-20)
(0.190401 -0.0326555 8.81514e-21)
(0.195174 -0.033229 5.03687e-21)
(0.200147 -0.0338009 1.74647e-21)
(0.205318 -0.0343581 -1.48959e-20)
(0.210684 -0.0348897 8.21403e-21)
(0.216243 -0.0353867 -1.18979e-20)
(0.221991 -0.0358416 1.47704e-21)
(0.227923 -0.0362488 -2.45265e-22)
(0.234035 -0.0366037 1.43544e-20)
(0.240321 -0.0369031 -1.22044e-20)
(0.246776 -0.0371449 -1.56165e-21)
(0.253395 -0.0373277 -2.61158e-21)
(0.260171 -0.037451 1.16546e-20)
(0.267098 -0.0375149 -4.20941e-21)
(0.274169 -0.0375201 -3.85185e-21)
(0.281378 -0.0374677 -2.2333e-21)
(0.288718 -0.0373592 8.57839e-21)
(0.296181 -0.0371967 -3.10667e-21)
(0.303761 -0.0369821 -3.9329e-21)
(0.31145 -0.0367178 -3.10287e-21)
(0.319239 -0.0364065 8.65904e-21)
(0.327123 -0.0360506 -2.3594e-21)
(0.335092 -0.0356531 -8.03457e-22)
(0.34314 -0.0352166 -1.71541e-21)
(0.351258 -0.0347441 -1.33834e-21)
(0.359438 -0.0342384 1.37738e-21)
(0.367673 -0.0337023 1.2361e-21)
(0.375955 -0.0331388 -1.3265e-21)
(0.384277 -0.0325507 -1.99358e-21)
(0.39263 -0.0319406 2.60259e-21)
(0.401009 -0.0313112 -3.98532e-22)
(0.409404 -0.0306653 8.91636e-25)
(0.41781 -0.0300052 -5.17932e-22)
(0.42622 -0.0293335 8.42524e-22)
(0.434627 -0.0286524 -1.01694e-21)
(0.443024 -0.0279642 1.17515e-21)
(0.451406 -0.027271 -3.47502e-23)
(0.459766 -0.0265748 -1.00619e-22)
(0.468099 -0.0258775 -3.04952e-22)
(0.4764 -0.0251809 -3.59252e-22)
(0.484664 -0.0244867 1.24849e-22)
(0.492886 -0.0237965 2.9071e-22)
(0.501061 -0.0231117 -6.53785e-22)
(0.509186 -0.0224337 4.50551e-22)
(0.517257 -0.0217638 -2.37203e-22)
(0.52527 -0.0211031 8.68608e-23)
(0.533222 -0.0204527 4.82278e-23)
(0.54111 -0.0198136 -7.96425e-23)
(0.548936 -0.0191865 -1.5644e-23)
(0.556687 -0.0185725 4.49459e-23)
(0.564385 -0.0179709 -1.47346e-23)
(0.571974 -0.0173856 1.84585e-23)
(0.579577 -0.0168072 3.76361e-23)
(0.586921 -0.0162594 3.02797e-24)
(0.59459 -0.0156796 1.29903e-24)
(0.60134 -0.0152145 5.55265e-25)
(0.609773 -0.0145036 -3.87514e-24)
(0.614509 -0.0143475 -2.78372e-24)
(0.626457 -0.0130157 -1.64638e-24)
(0.192624 -0.036703 1.57096e-20)
(0.194363 -0.035273 3.18718e-20)
(0.196146 -0.0345851 -3.73127e-20)
(0.198729 -0.0341071 -8.7841e-22)
(0.201586 -0.0338825 8.04248e-21)
(0.204602 -0.0339104 -7.09771e-21)
(0.207822 -0.0341346 -1.43549e-20)
(0.211255 -0.0345076 -1.59602e-21)
(0.214895 -0.0349937 3.43926e-20)
(0.21874 -0.0355621 -1.3478e-21)
(0.222789 -0.0361856 -2.9594e-21)
(0.227038 -0.0368405 -5.18349e-21)
(0.231485 -0.0375067 4.54422e-21)
(0.236126 -0.0381672 -3.52886e-21)
(0.240957 -0.0388076 4.62328e-21)
(0.245972 -0.0394161 -1.25062e-20)
(0.251168 -0.0399829 -9.99483e-21)
(0.256539 -0.0405004 1.43241e-20)
(0.26208 -0.0409624 9.0873e-22)
(0.267787 -0.0413645 -6.57994e-21)
(0.273653 -0.0417032 1.47437e-20)
(0.279675 -0.0419765 -2.35289e-21)
(0.285845 -0.0421831 -1.1957e-21)
(0.29216 -0.0423225 -1.207e-20)
(0.298613 -0.0423951 9.70013e-22)
(0.305198 -0.0424017 1.00182e-20)
(0.311911 -0.0423437 -4.07996e-21)
(0.318744 -0.0422228 -6.24198e-21)
(0.325692 -0.0420411 4.04172e-21)
(0.332748 -0.0418011 -1.02661e-21)
(0.339906 -0.0415053 1.22198e-21)
(0.34716 -0.0411567 3.6516e-21)
(0.354501 -0.040758 -9.85888e-22)
(0.361925 -0.0403125 -4.60017e-21)
(0.369424 -0.0398231 4.86125e-21)
(0.376991 -0.0392932 8.84418e-22)
(0.384619 -0.0387259 1.14796e-21)
(0.392301 -0.0381244 -5.74977e-22)
(0.400031 -0.0374919 -5.17917e-21)
(0.407801 -0.0368314 2.47152e-21)
(0.415605 -0.0361462 3.94481e-22)
(0.423436 -0.0354391 -1.35351e-22)
(0.431287 -0.0347131 4.69661e-22)
(0.439153 -0.0339711 1.48479e-22)
(0.447027 -0.0332157 -2.98201e-22)
(0.454902 -0.0324496 1.46046e-22)
(0.462773 -0.0316752 2.21897e-22)
(0.470634 -0.0308951 -3.68935e-22)
(0.478481 -0.0301113 1.92561e-22)
(0.486306 -0.0293262 2.57888e-22)
(0.494107 -0.0285416 -3.02756e-22)
(0.501877 -0.0277596 -2.51621e-22)
(0.509612 -0.0269818 1.079e-22)
(0.517309 -0.0262101 5.48851e-23)
(0.524963 -0.0254458 1.73194e-23)
(0.532571 -0.0246905 1.27289e-22)
(0.54013 -0.0239454 -5.00511e-23)
(0.547636 -0.0232118 -3.20375e-22)
(0.555087 -0.0224909 -5.01976e-23)
(0.562484 -0.0217834 -3.59576e-23)
(0.569814 -0.0210906 4.27846e-23)
(0.577101 -0.0204118 3.00964e-23)
(0.584288 -0.0197515 -4.34389e-23)
(0.591497 -0.0190985 -4.21374e-24)
(0.598459 -0.0184811 -1.10515e-23)
(0.60575 -0.0178262 -6.69842e-24)
(0.612148 -0.0173037 -1.64778e-24)
(0.620196 -0.0165007 8.15971e-24)
(0.624669 -0.0163282 -1.01299e-24)
(0.636113 -0.0148397 9.33514e-24)
(0.239271 -0.0392132 -3.11026e-20)
(0.240197 -0.0379394 3.81255e-20)
(0.241172 -0.0374408 4.83815e-20)
(0.243152 -0.0370729 -5.57068e-20)
(0.245478 -0.0369446 -3.41727e-20)
(0.247998 -0.0370763 2.46203e-20)
(0.250759 -0.0374082 2.25303e-20)
(0.253765 -0.0378899 3.1442e-20)
(0.257001 -0.0384853 -3.70501e-20)
(0.260455 -0.0391621 -2.7603e-22)
(0.26412 -0.0398912 -2.76274e-20)
(0.267988 -0.0406477 7.98647e-21)
(0.272051 -0.0414102 2.13259e-20)
(0.2763 -0.0421607 -1.65687e-21)
(0.280729 -0.0428842 -1.18149e-20)
(0.285332 -0.0435686 3.32266e-21)
(0.2901 -0.0442038 6.64906e-21)
(0.29503 -0.044782 -1.13504e-20)
(0.300114 -0.0452973 2.39021e-20)
(0.305348 -0.045745 -1.11027e-20)
(0.310727 -0.0461221 -5.91402e-21)
(0.316246 -0.0464265 1.35652e-20)
(0.3219 -0.046657 -1.29039e-20)
(0.327684 -0.0468135 4.34481e-21)
(0.333595 -0.0468963 1.64752e-21)
(0.339626 -0.0469065 4.96415e-21)
(0.345774 -0.0468457 -3.81436e-21)
(0.352033 -0.0467158 -5.56242e-21)
(0.358399 -0.0465192 1.57993e-21)
(0.364865 -0.0462584 -2.4381e-21)
(0.371427 -0.0459363 1.1141e-20)
(0.378078 -0.0455559 -4.37342e-21)
(0.384814 -0.0451206 -6.77271e-21)
(0.391629 -0.0446335 8.88687e-21)
(0.398516 -0.0440982 -5.37798e-21)
(0.40547 -0.043518 -1.11243e-21)
(0.412484 -0.0428964 2.7054e-21)
(0.419553 -0.042237 -9.84304e-22)
(0.42667 -0.0415432 2.08806e-21)
(0.43383 -0.0408184 -8.31267e-22)
(0.441026 -0.040066 1.54733e-21)
(0.448253 -0.0392892 -3.3542e-21)
(0.455504 -0.0384913 2.17689e-21)
(0.462774 -0.0376755 1.19682e-21)
(0.470057 -0.0368446 -2.2461e-21)
(0.477348 -0.0360015 -8.38048e-24)
(0.48464 -0.0351492 1.35452e-21)
(0.491929 -0.03429 -1.66087e-21)
(0.499211 -0.0334267 1.77627e-21)
(0.506479 -0.0325615 -4.62708e-22)
(0.513729 -0.0316967 8.07567e-23)
(0.520958 -0.0308344 -7.40843e-23)
(0.52816 -0.0299766 1.38106e-23)
(0.535332 -0.0291252 -2.83501e-22)
(0.54247 -0.0282818 3.37135e-22)
(0.549571 -0.027448 1.1176e-22)
(0.556631 -0.0266255 4.92856e-23)
(0.563649 -0.0258154 -5.59671e-24)
(0.57062 -0.0250192 2.29692e-22)
(0.577547 -0.0242376 -1.52512e-22)
(0.584418 -0.0234723 1.22217e-22)
(0.591254 -0.0227223 -1.72798e-23)
(0.598001 -0.0219929 5.89874e-23)
(0.604778 -0.0212712 -1.1652e-23)
(0.611322 -0.0205898 -2.35705e-24)
(0.618197 -0.0198655 2.84509e-24)
(0.62421 -0.0192911 -8.07961e-25)
(0.631835 -0.018403 -1.2095e-23)
(0.636021 -0.0182168 2.39677e-24)
(0.64691 -0.01659 1.96058e-23)
(0.290673 -0.0397518 -4.77762e-21)
(0.290751 -0.0395469 -8.11964e-20)
(0.292047 -0.0393628 8.75154e-20)
(0.293767 -0.0393901 -4.41194e-20)
(0.295721 -0.0396754 -3.67295e-21)
(0.297958 -0.0401545 3.44347e-20)
(0.300476 -0.0407757 -3.66937e-20)
(0.303247 -0.0415034 -5.26944e-21)
(0.306252 -0.0423053 2.67268e-20)
(0.309474 -0.0431518 -6.03946e-21)
(0.312899 -0.0440173 -2.72003e-20)
(0.316515 -0.0448804 4.66467e-20)
(0.320309 -0.0457229 -1.27309e-20)
(0.324271 -0.0465301 -1.97528e-20)
(0.328393 -0.0472898 2.2352e-20)
(0.332666 -0.0479925 2.4444e-21)
(0.337084 -0.0486306 -1.00821e-20)
(0.341641 -0.0491983 -1.14217e-20)
(0.346333 -0.0496915 -1.3213e-20)
(0.351155 -0.0501071 7.15865e-21)
(0.356102 -0.0504434 4.77108e-21)
(0.36117 -0.0506994 7.82795e-21)
(0.366357 -0.0508752 -1.12721e-20)
(0.371657 -0.0509712 6.4988e-21)
(0.377068 -0.0509888 -9.63054e-22)
(0.382586 -0.0509296 -5.53402e-21)
(0.388207 -0.0507957 3.71205e-21)
(0.393926 -0.0505896 3.60569e-22)
(0.39974 -0.0503141 -7.53558e-21)
(0.405644 -0.0499723 2.37683e-21)
(0.411634 -0.0495673 4.64043e-21)
(0.417705 -0.0491027 -2.78872e-21)
(0.423852 -0.0485819 1.38555e-21)
(0.430071 -0.0480085 2.95003e-21)
(0.436356 -0.0473864 -4.649e-21)
(0.442702 -0.0467191 2.2446e-21)
(0.449104 -0.0460105 2.43141e-21)
(0.455557 -0.0452642 -2.1261e-21)
(0.462055 -0.044484 3.04964e-22)
(0.468594 -0.0436734 -2.71353e-21)
(0.475167 -0.042836 1.49623e-21)
(0.481769 -0.0419753 8.52416e-22)
(0.488396 -0.0410946 3.34385e-22)
(0.495043 -0.0401973 -1.37439e-21)
(0.501703 -0.0392863 -3.07423e-22)
(0.508372 -0.0383647 2.52453e-21)
(0.515046 -0.0374355 -2.24812e-22)
(0.521719 -0.0365012 -1.29712e-21)
(0.528388 -0.0355645 1.47886e-23)
(0.535048 -0.0346279 -2.07503e-22)
(0.541694 -0.0336936 1.93179e-22)
(0.548324 -0.0327639 9.69246e-23)
(0.554932 -0.0318407 1.85221e-22)
(0.561516 -0.0309259 -1.90381e-22)
(0.568073 -0.0300214 -1.64309e-23)
(0.5746 -0.0291288 -1.81135e-22)
(0.581093 -0.0282495 3.0107e-24)
(0.587551 -0.027385 -1.92746e-23)
(0.593974 -0.0265363 3.41643e-23)
(0.600351 -0.0257052 -7.04216e-23)
(0.606704 -0.0248905 -7.15747e-23)
(0.612979 -0.0240984 2.0883e-23)
(0.619294 -0.0233141 -5.03923e-23)
(0.625388 -0.022575 3.683e-23)
(0.631818 -0.0217873 -2.0339e-24)
(0.63742 -0.0211669 -3.80902e-24)
(0.64459 -0.0202012 8.27641e-24)
(0.64847 -0.020004 1.143e-24)
(0.658759 -0.0182587 -1.20672e-23)
(0.345335 -0.0405839 -4.66215e-20)
(0.344449 -0.0407871 2.00788e-20)
(0.344993 -0.0408721 -1.38407e-20)
(0.346045 -0.0411254 -1.23253e-20)
(0.347373 -0.0416238 2.89586e-21)
(0.34903 -0.0422976 -1.78294e-21)
(0.351003 -0.0430944 5.56276e-21)
(0.353252 -0.0439813 2.98567e-20)
(0.355747 -0.0449276 -4.66485e-20)
(0.358465 -0.0459045 3.44517e-20)
(0.361384 -0.0468875 1.00995e-20)
(0.364485 -0.0478561 -5.20473e-20)
(0.367755 -0.0487933 4.82195e-20)
(0.371179 -0.0496853 -1.89623e-20)
(0.374747 -0.0505209 7.05539e-22)
(0.378452 -0.0512912 1.13172e-20)
(0.382286 -0.0519894 -1.79422e-20)
(0.386244 -0.0526103 7.89718e-21)
(0.390322 -0.0531501 -1.6635e-20)
(0.394515 -0.0536062 -6.09456e-21)
(0.39882 -0.0539771 2.46824e-20)
(0.403234 -0.054262 -3.74453e-21)
(0.407756 -0.0544612 2.65399e-21)
(0.412381 -0.0545754 6.97121e-21)
(0.417108 -0.0546058 -1.61542e-21)
(0.421933 -0.0545543 -5.86307e-21)
(0.426855 -0.0544231 -7.37662e-21)
(0.431869 -0.0542148 8.16078e-21)
(0.436973 -0.0539324 3.95302e-23)
(0.442164 -0.0535789 -4.81439e-21)
(0.447439 -0.0531578 1.69501e-21)
(0.452792 -0.0526727 4.95294e-21)
(0.458221 -0.0521273 -9.65886e-21)
(0.463722 -0.0515253 2.32633e-21)
(0.46929 -0.0508707 3.09716e-21)
(0.474921 -0.0501675 9.08595e-22)
(0.480611 -0.0494194 -3.7215e-21)
(0.486355 -0.0486306 1.44548e-23)
(0.492149 -0.0478048 -4.75279e-22)
(0.497988 -0.0469461 3.46273e-21)
(0.503866 -0.046058 -2.16262e-21)
(0.509781 -0.0451444 -1.51222e-22)
(0.515726 -0.0442088 1.44622e-21)
(0.521698 -0.0432547 -1.84603e-23)
(0.527691 -0.0422855 -1.54617e-21)
(0.533701 -0.0413043 2.14339e-21)
(0.539724 -0.0403143 -3.29674e-22)
(0.545756 -0.0393184 -1.30979e-21)
(0.551792 -0.0383194 8.12173e-22)
(0.557828 -0.03732 -3.14874e-22)
(0.563861 -0.0363225 -1.4078e-22)
(0.569887 -0.0353294 -1.15674e-22)
(0.575901 -0.034343 2.78285e-22)
(0.581902 -0.0333652 -4.88012e-22)
(0.587886 -0.0323979 1.07025e-22)
(0.593849 -0.0314431 -6.14874e-23)
(0.599792 -0.0305023 2.1621e-22)
(0.605708 -0.029577 1.28152e-22)
(0.611601 -0.0286685 -1.13374e-22)
(0.617458 -0.0277787 5.2772e-23)
(0.623303 -0.0269062 8.25779e-23)
(0.629081 -0.0260582 -4.6366e-23)
(0.634909 -0.025218 3.05095e-23)
(0.640532 -0.0244276 -1.85199e-24)
(0.646492 -0.0235831 2.7633e-24)
(0.651661 -0.0229228 -2.06101e-24)
(0.658351 -0.0218877 -9.30077e-24)
(0.661911 -0.0216821 -1.52614e-24)
(0.671564 -0.0198385 -6.12921e-24)
(0.403646 -0.040321 2.65824e-20)
(0.40176 -0.041055 -2.52307e-20)
(0.401512 -0.0415048 8.48458e-21)
(0.401854 -0.0420655 2.14485e-20)
(0.402515 -0.042845 -3.97556e-20)
(0.403546 -0.0437666 1.18718e-20)
(0.404926 -0.044779 5.69488e-20)
(0.4066 -0.0458541 -1.83313e-20)
(0.408527 -0.0469649 -3.3925e-20)
(0.410676 -0.0480857 2.86937e-20)
(0.413018 -0.0491947 -8.67341e-21)
(0.415533 -0.0502742 2.21204e-20)
(0.418202 -0.0513094 -2.86971e-20)
(0.421011 -0.0522883 -3.13984e-20)
(0.42395 -0.0532015 5.14813e-20)
(0.427009 -0.0540413 -4.74668e-20)
(0.430183 -0.0548018 2.78558e-20)
(0.433467 -0.0554786 2.26494e-20)
(0.436857 -0.0560685 -4.36696e-20)
(0.44035 -0.0565693 3.33807e-20)
(0.443944 -0.0569797 -1.62381e-20)
(0.447638 -0.0572993 -1.2494e-20)
(0.45143 -0.0575283 3.03409e-21)
(0.455318 -0.0576675 2.46211e-20)
(0.4593 -0.0577184 -2.94793e-20)
(0.463376 -0.0576828 2.68954e-20)
(0.467543 -0.057563 6.13154e-21)
(0.4718 -0.0573617 -4.91949e-21)
(0.476144 -0.0570817 -1.80365e-20)
(0.480573 -0.0567265 4.74475e-21)
(0.485085 -0.0562993 7.21913e-21)
(0.489676 -0.0558041 -7.07394e-21)
(0.494344 -0.0552445 5.12102e-21)
(0.499086 -0.0546245 -2.80466e-21)
(0.503897 -0.0539482 1.66731e-21)
(0.508775 -0.0532197 -1.63922e-21)
(0.513716 -0.0524432 9.88164e-22)
(0.518715 -0.0516226 2.99561e-22)
(0.52377 -0.0507622 -8.53301e-22)
(0.528876 -0.0498661 2.07782e-21)
(0.534029 -0.0489381 -2.59131e-21)
(0.539224 -0.0479822 -9.22372e-22)
(0.544458 -0.0470023 3.11426e-22)
(0.549726 -0.0460019 2.98697e-23)
(0.555024 -0.0449847 -7.00176e-22)
(0.560349 -0.0439541 2.13685e-21)
(0.565695 -0.0429133 -4.57935e-22)
(0.57106 -0.0418656 -7.23135e-22)
(0.576439 -0.0408139 -8.01964e-22)
(0.581828 -0.039761 1.47463e-21)
(0.587223 -0.0387096 -5.76537e-23)
(0.592622 -0.0376623 6.92622e-22)
(0.598021 -0.0366213 -1.345e-21)
(0.603417 -0.0355891 7.72305e-22)
(0.608807 -0.0345675 1.10599e-22)
(0.614187 -0.0335587 -1.29182e-22)
(0.619558 -0.0325643 1.87045e-22)
(0.624913 -0.0315862 -2.60179e-22)
(0.630257 -0.0306254 3.30347e-24)
(0.635577 -0.0296843 -9.40907e-24)
(0.640895 -0.0287612 -1.01022e-22)
(0.646158 -0.0278644 2.2772e-23)
(0.651483 -0.0269751 -1.77682e-23)
(0.656617 -0.0261403 1.34795e-23)
(0.66209 -0.0252457 -2.92084e-24)
(0.666813 -0.0245517 1.93433e-24)
(0.673004 -0.0234557 8.71479e-24)
(0.676236 -0.0232441 -2.96907e-24)
(0.685225 -0.021323 3.23109e-24)
(0.462117 -0.0402642 -2.97622e-20)
(0.461074 -0.0411837 3.04524e-20)
(0.460697 -0.0421413 -6.5285e-20)
(0.460672 -0.043275 9.60897e-21)
(0.461051 -0.0444997 2.57899e-20)
(0.461799 -0.0457676 -1.29258e-20)
(0.462846 -0.0470591 -7.45718e-21)
(0.464143 -0.0483535 9.74617e-21)
(0.465653 -0.0496307 8.155e-21)