/*--------------------------------*- C++ -*----------------------------------*\
  =========                 |
  \\      /  F ield         | OpenFOAM: The Open Source CFD Toolbox
   \\    /   O peration     | Website:  https://openfoam.org
    \\  /    A nd           | Version:  7
     \\/     M anipulation  |
\*---------------------------------------------------------------------------*/
FoamFile
{
    version     2.0;
    format      ascii;
    class       volVectorField;
    location    "9.8";
    object      U;
}
// * * * * * * * * * * * * * * * * * * * * * * * * * * * * * * * * * * * * * //

dimensions      [0 1 -1 0 0 0 0];

internalField   nonuniform List<vector> 
344
(
(0.880763 0.00755353 1.42213e-16)
(0.881931 0.00745691 1.51785e-16)
(0.883085 0.00736182 1.4997e-16)
(0.884226 0.00726823 1.56094e-16)
(0.885355 0.00717611 1.57101e-16)
(0.88647 0.00708541 1.66272e-16)
(0.887574 0.00699611 1.65002e-16)
(0.888664 0.00690818 1.72531e-16)
(0.889743 0.00682159 1.71324e-16)
(0.890809 0.0067363 1.76006e-16)
(0.891864 0.00665229 1.74937e-16)
(0.892906 0.00656953 1.79554e-16)
(0.893938 0.006488 1.8607e-16)
(0.894957 0.00640765 1.85706e-16)
(0.895965 0.00632847 1.91664e-16)
(0.896962 0.00625044 1.90638e-16)
(0.897948 0.00617351 1.95339e-16)
(0.898923 0.00609767 1.94702e-16)
(0.899887 0.00602288 1.99143e-16)
(0.90084 0.00594914 1.9833e-16)
(0.901782 0.0058764 2.01459e-16)
(0.902714 0.00580464 2.01937e-16)
(0.903636 0.00573384 2.06593e-16)
(0.904547 0.00566399 2.06504e-16)
(0.905448 0.00559505 2.09781e-16)
(0.906339 0.00552701 2.10446e-16)
(0.90722 0.00545987 2.13748e-16)
(0.908092 0.00539362 2.13528e-16)
(0.908953 0.00532828 2.15593e-16)
(0.909804 0.00526387 2.16204e-16)
(0.910646 0.00520045 2.19003e-16)
(0.911477 0.00513812 2.19362e-16)
(0.912299 0.00507703 2.21642e-16)
(0.91311 0.00501736 2.23142e-16)
(0.913911 0.00495955 2.23292e-16)
(0.914702 0.00490361 2.24891e-16)
(0.915476 0.00485118 2.25867e-16)
(0.91625 0.00479983 2.26792e-16)
(0.916975 0.00475783 2.27289e-16)
(0.917767 0.00470506 2.2679e-16)
(0.918314 0.00468987 2.2742e-16)
(0.919402 0.0045817 2.27783e-16)
(0.803078 0.00982701 1.33515e-17)
(0.804702 0.00968749 2.20274e-17)
(0.806307 0.00955057 1.59522e-17)
(0.807891 0.0094162 2.9496e-17)
(0.809456 0.00928431 3.28707e-17)
(0.811002 0.00915484 4.13743e-17)
(0.81253 0.00902773 4.59141e-17)
(0.814038 0.00890293 5.42408e-17)
(0.815529 0.00878037 5.5307e-17)
(0.817002 0.00866001 6.38113e-17)
(0.818456 0.00854179 5.66682e-17)
(0.819894 0.00842567 6.88163e-17)
(0.821314 0.00831159 8.02339e-17)
(0.822717 0.0081995 8.10749e-17)
(0.824104 0.00808936 8.88711e-17)
(0.825474 0.00798112 8.88454e-17)
(0.826828 0.00787474 9.67019e-17)
(0.828165 0.00777017 9.7415e-17)
(0.829488 0.00766737 1.02631e-16)
(0.830794 0.00756631 9.7846e-17)
(0.832085 0.00746693 1.06885e-16)
(0.833361 0.00736921 1.08071e-16)
(0.834622 0.0072731 1.16068e-16)
(0.835869 0.00717857 1.12496e-16)
(0.837101 0.00708557 1.23176e-16)
(0.838318 0.00699409 1.24113e-16)
(0.839522 0.00690408 1.33116e-16)
(0.840711 0.0068155 1.2754e-16)
(0.841887 0.00672834 1.35792e-16)
(0.843049 0.00664255 1.38344e-16)
(0.844198 0.0065581 1.47147e-16)
(0.845333 0.00647497 1.46177e-16)
(0.846456 0.00639312 1.53838e-16)
(0.847565 0.00631253 1.54409e-16)
(0.848662 0.00623317 1.58371e-16)
(0.849747 0.006155 1.543e-16)
(0.850819 0.00607801 1.61589e-16)
(0.851878 0.00600217 1.67919e-16)
(0.852926 0.00592745 1.68106e-16)
(0.853962 0.00585382 1.74491e-16)
(0.854986 0.00578126 1.73719e-16)
(0.855998 0.00570974 1.77661e-16)
(0.856999 0.00563924 1.77884e-16)
(0.857988 0.00556974 1.81573e-16)
(0.858966 0.00550121 1.79054e-16)
(0.859933 0.00543362 1.8352e-16)
(0.86089 0.00536696 1.84907e-16)
(0.861835 0.0053012 1.89087e-16)
(0.862769 0.00523632 1.87376e-16)
(0.863693 0.0051723 1.92199e-16)
(0.864607 0.00510914 1.93177e-16)
(0.86551 0.00504683 1.96527e-16)
(0.866402 0.00498537 1.94825e-16)
(0.867285 0.00492477 1.9837e-16)
(0.868157 0.00486508 1.99178e-16)
(0.869019 0.00480637 2.0212e-16)
(0.86987 0.00474873 2.02926e-16)
(0.870712 0.00469236 2.05223e-16)
(0.871543 0.00463748 2.07161e-16)
(0.872363 0.00458456 2.07743e-16)
(0.873173 0.00453381 2.09362e-16)
(0.873967 0.00448665 2.10522e-16)
(0.874759 0.00444185 2.11643e-16)
(0.875502 0.00440544 2.12363e-16)
(0.876315 0.00436378 2.11995e-16)
(0.876875 0.00435121 2.12683e-16)
(0.877987 0.00426762 2.13213e-16)
(0.759752 0.00906534 -1.26049e-18)
(0.761424 0.00893567 1.01946e-17)
(0.763075 0.00880844 3.9287e-18)
(0.764705 0.00868359 1.54792e-17)
(0.766314 0.00856107 1.86506e-17)
(0.767903 0.00844081 2.88651e-17)
(0.769473 0.00832277 3.12313e-17)
(0.771023 0.00820689 3.85153e-17)
(0.772553 0.00809312 3.95625e-17)
(0.774065 0.0079814 4.82738e-17)
(0.775558 0.00787169 4.44407e-17)
(0.777032 0.00776394 5.47565e-17)
(0.778489 0.0076581 6.51302e-17)
(0.779927 0.00755413 6.60245e-17)
(0.781348 0.00745198 7.37082e-17)
(0.782752 0.00735161 7.30373e-17)
(0.784139 0.00725297 8.18748e-17)
(0.785509 0.00715604 8.11076e-17)
(0.786862 0.00706076 8.67782e-17)
(0.788199 0.0069671 8.36133e-17)
(0.78952 0.00687502 9.09861e-17)
(0.790825 0.00678448 9.12973e-17)
(0.792115 0.00669545 9.99135e-17)
(0.793389 0.0066079 9.77282e-17)
(0.794648 0.00652178 1.06594e-16)
(0.795892 0.00643708 1.06844e-16)
(0.797121 0.00635375 1.15963e-16)
(0.798336 0.00627176 1.11752e-16)
(0.799536 0.00619109 1.18941e-16)
(0.800722 0.0061117 1.20941e-16)
(0.801895 0.00603356 1.29671e-16)
(0.803053 0.00595666 1.29211e-16)
(0.804198 0.00588095 1.36307e-16)
(0.80533 0.00580641 1.3686e-16)
(0.806448 0.00573302 1.41119e-16)
(0.807554 0.00566075 1.39389e-16)
(0.808646 0.00558957 1.45024e-16)
(0.809726 0.00551946 1.50629e-16)
(0.810793 0.0054504 1.511e-16)
(0.811848 0.00538235 1.57602e-16)
(0.812891 0.00531531 1.5705e-16)
(0.813922 0.00524923 1.61411e-16)
(0.81494 0.00518411 1.61376e-16)
(0.815947 0.00511991 1.65494e-16)
(0.816943 0.00505661 1.63782e-16)
(0.817926 0.0049942 1.66997e-16)
(0.818899 0.00493265 1.68288e-16)
(0.81986 0.00487194 1.72778e-16)
(0.820811 0.00481206 1.71462e-16)
(0.82175 0.00475299 1.75701e-16)
(0.822678 0.00469471 1.76664e-16)
(0.823596 0.00463723 1.79982e-16)
(0.824503 0.00458056 1.79337e-16)
(0.8254 0.00452471 1.82468e-16)
(0.826286 0.00446974 1.83136e-16)
(0.827161 0.00441571 1.86443e-16)
(0.828026 0.00436275 1.87109e-16)
(0.828881 0.00431107 1.89661e-16)
(0.829726 0.00426093 1.91926e-16)
(0.830558 0.00421281 1.92554e-16)
(0.831382 0.00416717 1.94401e-16)
(0.832188 0.0041252 1.95821e-16)
(0.832994 0.0040868 1.96957e-16)
(0.833749 0.00405608 1.97841e-16)
(0.834575 0.0040252 1.97903e-16)
(0.835145 0.00401647 1.98432e-16)
(0.836274 0.00395636 1.99063e-16)
(0.716745 0.00830693 -1.66679e-17)
(0.71845 0.00818725 -1.9272e-18)
(0.720133 0.00806985 -8.69615e-18)
(0.721794 0.00795467 3.72629e-18)
(0.723434 0.00784164 3.2053e-18)
(0.725053 0.00773073 1.74789e-17)
(0.726651 0.00762188 1.6383e-17)
(0.728228 0.00751504 2.783e-17)
(0.729785 0.00741015 2.4467e-17)
(0.731323 0.00730718 3.679e-17)
(0.732841 0.00720607 3.07737e-17)
(0.73434 0.00710678 4.16188e-17)
(0.735821 0.00700927 5.28823e-17)
(0.737282 0.0069135 5.03352e-17)
(0.738726 0.00681941 6.15095e-17)
(0.740152 0.00672698 5.7663e-17)
(0.741559 0.00663617 6.86047e-17)
(0.74295 0.00654693 6.51703e-17)
(0.744323 0.00645922 7.36748e-17)
(0.74568 0.00637302 6.88949e-17)
(0.747019 0.00628829 7.74421e-17)
(0.748343 0.00620499 7.5071e-17)
(0.74965 0.00612308 8.58568e-17)
(0.750942 0.00604255 8.23354e-17)
(0.752217 0.00596335 9.18391e-17)
(0.753478 0.00588546 9.08407e-17)
(0.754723 0.00580884 1.00404e-16)
(0.755953 0.00573347 9.60616e-17)
(0.757168 0.00565931 1.03861e-16)
(0.758369 0.00558635 1.03853e-16)
(0.759555 0.00551455 1.13801e-16)
(0.760727 0.00544388 1.12777e-16)
(0.761886 0.00537433 1.21297e-16)
(0.76303 0.00530586 1.19241e-16)
(0.764161 0.00523845 1.26144e-16)
(0.765278 0.00517208 1.23179e-16)
(0.766383 0.00510672 1.29852e-16)
(0.767474 0.00504235 1.35727e-16)
(0.768552 0.00497895 1.33862e-16)
(0.769618 0.00491649 1.42453e-16)
(0.770671 0.00485496 1.39874e-16)
(0.771712 0.00479432 1.46588e-16)
(0.772741 0.00473457 1.45152e-16)
(0.773757 0.00467567 1.50557e-16)
(0.774762 0.0046176 1.48296e-16)
(0.775755 0.00456036 1.51596e-16)
(0.776736 0.00450391 1.51354e-16)
(0.777706 0.00444824 1.57728e-16)
(0.778664 0.00439334 1.56101e-16)
(0.779612 0.00433919 1.601e-16)
(0.780548 0.00428578 1.60009e-16)
(0.781473 0.00423312 1.65104e-16)
(0.782388 0.00418121 1.64229e-16)
(0.783292 0.00413008 1.67519e-16)
(0.784185 0.00407978 1.67424e-16)
(0.785067 0.0040304 1.71524e-16)
(0.785939 0.00398207 1.7181e-16)
(0.7868 0.00393501 1.74932e-16)
(0.787651 0.00388953 1.7727e-16)
(0.788491 0.00384613 1.7762e-16)
(0.789321 0.00380545 1.80138e-16)
(0.790134 0.00376855 1.81677e-16)
(0.790947 0.00373633 1.82887e-16)
(0.791709 0.00371134 1.83901e-16)
(0.792542 0.00369086 1.83564e-16)
(0.793118 0.00368698 1.84609e-16)
(0.794255 0.00364934 1.8534e-16)
(0.67405 0.00755623 -1.98311e-17)
(0.675773 0.00744662 -9.56375e-18)
(0.677474 0.00733912 -2.24424e-17)
(0.679152 0.00723366 -3.6874e-18)
(0.680807 0.0071302 -1.22352e-18)
(0.682442 0.00702868 1.01359e-17)
(0.684054 0.00692907 1.26856e-17)
(0.685646 0.00683131 2.03333e-17)
(0.687217 0.00673535 1.86543e-17)
(0.688768 0.00664116 2.64859e-17)
(0.690299 0.00654869 1.62677e-17)
(0.69181 0.00645789 3.11224e-17)
(0.693301 0.00636874 4.18579e-17)
(0.694774 0.00628118 4.3059e-17)
(0.696228 0.00619518 5.08182e-17)
(0.697664 0.00611071 5.11745e-17)
(0.699081 0.00602772 5.85529e-17)
(0.700481 0.00594618 5.89072e-17)
(0.701863 0.00586606 6.30491e-17)
(0.703228 0.00578732 5.25301e-17)
(0.704575 0.00570994 6.51784e-17)
(0.705906 0.00563387 6.73682e-17)
(0.707221 0.00555909 7.50352e-17)
(0.708519 0.00548557 6.62625e-17)
(0.709801 0.00541327 7.88455e-17)
(0.711067 0.00534218 8.20214e-17)
(0.712318 0.00527226 8.7395e-17)
(0.713554 0.00520349 7.95203e-17)
(0.714774 0.00513583 9.10736e-17)
(0.71598 0.00506928 9.34616e-17)
(0.71717 0.00500378 1.01382e-16)
(0.718347 0.00493934 1.03213e-16)
(0.719509 0.00487591 1.0856e-16)
(0.720657 0.00481349 1.09176e-16)
(0.721792 0.00475204 1.13616e-16)
(0.722913 0.00469154 1.06819e-16)
(0.72402 0.00463197 1.16425e-16)
(0.725114 0.00457331 1.22898e-16)
(0.726195 0.00451553 1.2301e-16)
(0.727263 0.00445863 1.28366e-16)
(0.728319 0.00440257 1.28852e-16)
(0.729361 0.00434734 1.33817e-16)
(0.730392 0.00429291 1.33837e-16)
(0.73141 0.00423927 1.37034e-16)
(0.732416 0.0041864 1.3237e-16)
(0.733411 0.00413428 1.37744e-16)
(0.734393 0.00408289 1.3985e-16)
(0.735364 0.00403222 1.43803e-16)
(0.736323 0.00398225 1.40569e-16)
(0.737272 0.00393298 1.46119e-16)
(0.738208 0.00388439 1.47482e-16)
(0.739134 0.00383649 1.51356e-16)
(0.740049 0.0037893 1.4899e-16)
(0.740953 0.00374283 1.53095e-16)
(0.741846 0.00369715 1.54821e-16)
(0.742729 0.00365235 1.57658e-16)
(0.743601 0.00360857 1.58753e-16)
(0.744463 0.00356604 1.61348e-16)
(0.745314 0.00352511 1.636e-16)
(0.746153 0.00348629 1.64503e-16)
(0.746984 0.00345041 1.66656e-16)
(0.747798 0.00341841 1.68134e-16)
(0.748611 0.00339209 1.69446e-16)
(0.749376 0.00337279 1.70508e-16)
(0.75021 0.00336224 1.70069e-16)
(0.750788 0.00336399 1.71263e-16)
(0.751926 0.00334785 1.72065e-16)
(0.631655 0.00681766 -2.15591e-17)
(0.633381 0.00671812 -1.48956e-17)
(0.635085 0.00662051 -2.79717e-17)
(0.636766 0.00652477 -1.01698e-17)
(0.638424 0.00643086 -4.90813e-18)
(0.640059 0.00633872 4.28387e-18)
(0.641673 0.00624833 7.08266e-18)
(0.643266 0.00615962 1.4762e-17)
(0.644838 0.00607257 1.48045e-17)
(0.646388 0.00598713 1.81692e-17)
(0.647919 0.00590327 8.90048e-18)
(0.649429 0.00582093 2.34566e-17)
(0.65092 0.0057401 3.36348e-17)
(0.652392 0.00566072 3.68193e-17)
(0.653844 0.00558277 4.26172e-17)
(0.655278 0.00550621 4.44646e-17)
(0.656693 0.005431 5.01543e-17)
(0.658091 0.00535712 5.15653e-17)
(0.65947 0.00528453 5.40924e-17)
(0.660832 0.00521321 4.29095e-17)
(0.662177 0.00514312 5.54559e-17)
(0.663504 0.00507423 6.03838e-17)
(0.664815 0.00500652 6.50592e-17)
(0.66611 0.00493996 5.70406e-17)
(0.667388 0.00487451 6.87363e-17)
(0.66865 0.00481016 7.27543e-17)
(0.669897 0.00474688 7.74413e-17)
(0.671128 0.00468465 6.97352e-17)
(0.672344 0.00462344 8.04514e-17)
(0.673545 0.00456322 8.44602e-17)
(0.674731 0.00450398 9.07243e-17)
(0.675902 0.00444569 9.29094e-17)
(0.677059 0.00438833 9.68368e-17)
(0.678202 0.00433188 9.91095e-17)
)
;

boundaryField
{
    inlet
    {
        type            uniformFixedValue;
        uniformValue    constant (1 0 0);
        value           nonuniform 0();
    }
    outlet
    {
        type            pressureInletOutletVelocity;
        value           nonuniform List<vector> 5((0.919402 0.0045817 2.27783e-16) (0.877987 0.00426762 2.13213e-16) (0.836274 0.00395636 1.99063e-16) (0.794255 0.00364934 1.8534e-16) (0.751926 0.00334785 1.72065e-16));
    }
    wall
    {
        type            fixedValue;
        value           nonuniform 0();
    }
    wedge1
    {
        type            wedge;
    }
    wedge2
    {
        type            wedge;
    }
    axis
    {
        type            empty;
    }
    procBoundary29to23
    {
        type            processor;
        value           nonuniform List<vector> 
68
(
(0.923231 0.0081124 1.70303e-16)
(0.924353 0.0080093 1.72062e-16)
(0.925462 0.00790781 1.73156e-16)
(0.926559 0.00780791 1.77112e-16)
(0.927644 0.00770955 1.83338e-16)
(0.928718 0.00761271 1.86702e-16)
(0.929779 0.00751735 1.90785e-16)
(0.930829 0.00742343 1.92867e-16)
(0.931867 0.00733092 1.96096e-16)
(0.932894 0.0072398 1.9558e-16)
(0.93391 0.00715003 1.96687e-16)
(0.934915 0.00706159 1.9979e-16)
(0.935908 0.00697443 2.05463e-16)
(0.936891 0.00688854 2.09213e-16)
(0.937863 0.00680389 2.10606e-16)
(0.938825 0.00672044 2.14402e-16)
(0.939776 0.00663816 2.14861e-16)
(0.940717 0.00655704 2.17563e-16)
(0.941647 0.00647704 2.17549e-16)
(0.942567 0.00639813 2.1814e-16)
(0.943478 0.00632029 2.20911e-16)
(0.944378 0.00624349 2.24093e-16)
(0.945268 0.00616771 2.25243e-16)
(0.946149 0.00609292 2.26011e-16)
(0.94702 0.0060191 2.28474e-16)
(0.947881 0.00594622 2.32035e-16)
(0.948733 0.00587429 2.31905e-16)
(0.949576 0.00580329 2.32604e-16)
(0.950409 0.00573322 2.33987e-16)
(0.951232 0.00566411 2.36243e-16)
(0.952047 0.00559601 2.36794e-16)
(0.952851 0.00552898 2.38579e-16)
(0.953647 0.00546318 2.38855e-16)
(0.954432 0.00539869 2.39758e-16)
(0.955207 0.00533598 2.40861e-16)
(0.955972 0.00527478 2.41168e-16)
(0.956722 0.00521704 2.4177e-16)
(0.95747 0.00515904 2.42477e-16)
(0.958171 0.00511162 2.42842e-16)
(0.958937 0.00504746 2.42345e-16)
(0.959468 0.00503121 2.42573e-16)
(0.960522 0.00489701 2.42778e-16)
(0.846728 0.0105875 2.95203e-17)
(0.84829 0.0104383 3.83477e-17)
(0.849834 0.010292 3.72449e-17)
(0.851359 0.0101483 4.66231e-17)
(0.852866 0.0100072 4.88053e-17)
(0.854355 0.00986873 5.96651e-17)
(0.855827 0.00973274 6.21564e-17)
(0.857281 0.00959919 7.17838e-17)
(0.858719 0.00946802 7.07026e-17)
(0.860139 0.00933918 8.11437e-17)
(0.861543 0.00921262 7.87328e-17)
(0.862931 0.00908827 8.72423e-17)
(0.864303 0.00896609 9.61859e-17)
(0.865658 0.00884603 9.70286e-17)
(0.866999 0.00872803 1.06393e-16)
(0.868323 0.00861205 1.05879e-16)
(0.869633 0.00849804 1.13499e-16)
(0.870927 0.00838596 1.13558e-16)
(0.872206 0.00827576 1.19994e-16)
(0.873471 0.00816739 1.18885e-16)
(0.874722 0.00806082 1.25516e-16)
(0.875958 0.00795601 1.25319e-16)
(0.87718 0.00785291 1.34673e-16)
(0.878388 0.00775149 1.34603e-16)
(0.879582 0.00765171 1.42032e-16)
(0.879582 0.00765171 1.42032e-16)
)
;
    }
    procBoundary29to28
    {
        type            processor;
        value           nonuniform List<vector> 4((0.801434 0.0099692 1.20288e-17) (0.758059 0.00919752 -1.75057e-18) (0.715018 0.00842894 -1.40686e-17) (0.672303 0.00766799 -2.20496e-17));
    }
    procBoundary29to34
    {
        type            processor;
        value           uniform (0.629904 0.00691916 -2.62543e-17);
    }
    procBoundary29to35
    {
        type            processor;
        value           nonuniform List<vector> 
68
(
(0.679331 0.00427631 1.01469e-16)
(0.680447 0.00422162 9.48133e-17)
(0.681548 0.00416777 1.03812e-16)
(0.682637 0.00411475 1.11209e-16)
(0.683712 0.00406254 1.12543e-16)
(0.684774 0.00401111 1.16254e-16)
(0.685824 0.00396046 1.18041e-16)
(0.68686 0.00391056 1.218e-16)
(0.687885 0.00386139 1.22513e-16)
(0.688897 0.00381294 1.24907e-16)
(0.689897 0.00376519 1.19974e-16)
(0.690885 0.00371813 1.25781e-16)
(0.691861 0.00367173 1.28529e-16)
(0.692826 0.00362598 1.31551e-16)
(0.693779 0.00358087 1.28152e-16)
(0.69472 0.0035364 1.33547e-16)
(0.695651 0.00349256 1.3562e-16)
(0.69657 0.00344935 1.38768e-16)
(0.697478 0.00340678 1.36349e-16)
(0.698376 0.0033649 1.404e-16)
(0.699262 0.00332375 1.42588e-16)
(0.700139 0.00328343 1.44848e-16)
(0.701004 0.00324409 1.46383e-16)
(0.701859 0.00320597 1.4868e-16)
(0.702704 0.00316946 1.50654e-16)
(0.703538 0.00313506 1.51943e-16)
(0.704362 0.00310376 1.5378e-16)
(0.705171 0.00307644 1.55177e-16)
(0.70598 0.0030557 1.56492e-16)
(0.706741 0.00304193 1.57497e-16)
(0.70757 0.00304078 1.57223e-16)
(0.708147 0.00304871 1.58397e-16)
(0.709278 0.00305309 1.59214e-16)
(0.589547 0.00609561 -2.25266e-17)
(0.591262 0.00600606 -1.89001e-17)
(0.592954 0.00591826 -2.48303e-17)
(0.594623 0.00583215 -1.37634e-17)
(0.596269 0.0057477 -6.91903e-18)
(0.597893 0.00566486 -6.25415e-19)
(0.599495 0.00558359 2.92766e-18)
(0.601075 0.00550386 8.09901e-18)
(0.602634 0.00542562 1.11134e-17)
(0.604172 0.00534884 1.2267e-17)
(0.60569 0.00527349 8.59742e-18)
(0.607187 0.00519952 1.8852e-17)
(0.608665 0.0051269 2.7661e-17)
(0.610123 0.00505561 3.09248e-17)
(0.611562 0.00498561 3.59746e-17)
(0.612982 0.00491686 3.79665e-17)
(0.614384 0.00484934 4.18779e-17)
(0.615768 0.00478302 4.43218e-17)
(0.617133 0.00471787 4.6806e-17)
(0.618481 0.00465386 4.07571e-17)
(0.619812 0.00459096 4.81222e-17)
(0.621126 0.00452915 5.4064e-17)
(0.622422 0.0044684 5.74177e-17)
(0.623703 0.00440869 5.36753e-17)
(0.624967 0.00434999 6.08345e-17)
(0.626215 0.00429228 6.52556e-17)
(0.627448 0.00423554 6.79897e-17)
(0.628664 0.00417974 6.55382e-17)
(0.629866 0.00412486 7.18942e-17)
(0.631053 0.00407089 7.60958e-17)
(0.632225 0.00401779 8.08204e-17)
(0.633382 0.00396555 8.38171e-17)
(0.634525 0.00391415 8.75536e-17)
(0.679331 0.00427631 1.01469e-16)
(0.635654 0.00386357 8.90487e-17)
)
;
    }
}


// ************************************************************************* //
