/*--------------------------------*- C++ -*----------------------------------*\
  =========                 |
  \\      /  F ield         | OpenFOAM: The Open Source CFD Toolbox
   \\    /   O peration     | Website:  https://openfoam.org
    \\  /    A nd           | Version:  7
     \\/     M anipulation  |
\*---------------------------------------------------------------------------*/
FoamFile
{
    version     2.0;
    format      ascii;
    class       volVectorField;
    location    "10";
    object      U;
}
// * * * * * * * * * * * * * * * * * * * * * * * * * * * * * * * * * * * * * //

dimensions      [0 1 -1 0 0 0 0];

internalField   nonuniform List<vector> 
433
(
(1.05063 -0.00215852 4.07436e-23)
(1.0513 -0.00214824 -2.4257e-23)
(1.05196 -0.00213808 4.47933e-24)
(1.05262 -0.00212802 -7.15022e-24)
(1.05121 -0.00644745 -8.2879e-23)
(1.05189 -0.00641394 -3.64809e-24)
(1.05256 -0.00638051 -3.7666e-24)
(1.05323 -0.00634716 9.94699e-24)
(1.0523 -0.0106595 3.71344e-23)
(1.053 -0.0106032 -2.00501e-23)
(1.05369 -0.010547 1.10591e-23)
(1.05438 -0.010491 -1.0993e-24)
(1.05388 -0.0148526 1.23609e-23)
(1.0546 -0.0147726 3.41907e-26)
(1.05532 -0.0146928 -7.80632e-24)
(1.05604 -0.0146133 5.22782e-24)
(1.0559 -0.0190607 -1.35471e-23)
(1.05665 -0.0189562 -3.46398e-23)
(1.0574 -0.0188519 3.83666e-23)
(1.05815 -0.0187479 -3.95981e-24)
(1.05833 -0.0233204 -2.64138e-23)
(1.05912 -0.0231898 1.52067e-25)
(1.05991 -0.0230596 -4.82335e-24)
(1.0607 -0.0229298 -1.07449e-24)
(1.06114 -0.0276607 2.13849e-23)
(1.06198 -0.0275024 7.35889e-24)
(1.06281 -0.0273445 3.48175e-24)
(1.06365 -0.0271872 5.6184e-25)
(1.06431 -0.032109 -1.45838e-24)
(1.06519 -0.0319208 2.48652e-23)
(1.06608 -0.0317333 -2.57734e-25)
(1.06698 -0.0315464 1.70669e-24)
(1.0678 -0.0366894 9.71529e-24)
(1.06875 -0.0364689 -2.03867e-24)
(1.0697 -0.0362493 -2.14218e-24)
(1.07065 -0.0360305 4.71524e-25)
(1.0716 -0.0414245 2.17602e-23)
(1.07262 -0.0411692 8.92476e-25)
(1.07364 -0.0409148 -9.77302e-25)
(1.07466 -0.0406613 -2.65518e-24)
(1.07569 -0.0463355 -7.14787e-24)
(1.07678 -0.0460421 -8.09312e-24)
(1.07787 -0.0457499 -1.13279e-23)
(1.07898 -0.0454588 1.23412e-23)
(1.08004 -0.0514419 -1.41097e-23)
(1.08121 -0.0511071 1.62182e-23)
(1.08239 -0.0507735 -9.75997e-24)
(1.08358 -0.0504414 -2.06338e-24)
(1.08463 -0.0567632 2.46358e-23)
(1.08589 -0.0563831 -1.0311e-23)
(1.08717 -0.0560045 2.80806e-23)
(1.08846 -0.0556274 6.25204e-24)
(1.08943 -0.0623184 8.44504e-23)
(1.0908 -0.0618888 1.32645e-23)
(1.09218 -0.0614608 -1.62831e-23)
(1.09358 -0.0610344 -1.28563e-23)
(1.09443 -0.0681259 2.92686e-23)
(1.09591 -0.067642 -4.28852e-24)
(1.09741 -0.0671599 -5.0744e-23)
(1.09893 -0.0666794 1.64646e-23)
(1.09961 -0.0742044 -5.58938e-23)
(1.10122 -0.0736611 -3.44755e-24)
(1.10284 -0.0731195 5.15494e-23)
(1.10449 -0.0725795 2.24529e-23)
(1.10494 -0.0805728 4.10103e-23)
(1.10669 -0.0799642 -1.75204e-22)
(1.10846 -0.0793572 2.51153e-23)
(1.11024 -0.0787517 -1.24327e-23)
(1.11041 -0.0872504 -5.7544e-23)
(1.11231 -0.0865702 9.04356e-23)
(1.11423 -0.0858912 -1.53599e-22)
(1.11617 -0.0852135 4.21945e-24)
(1.11599 -0.094257 -9.63046e-24)
(1.11806 -0.0934981 2.65138e-22)
(1.12015 -0.0927399 8.17014e-24)
(1.12226 -0.0919824 -4.58931e-23)
(1.12166 -0.101615 -4.98019e-22)
(1.12392 -0.100769 4.55291e-24)
(1.1262 -0.0999232 -1.20873e-22)
(1.1285 -0.0990772 2.07156e-22)
(1.12742 -0.109346 -2.16067e-22)
(1.12988 -0.108404 -1.68261e-22)
(1.13236 -0.107461 1.67784e-22)
(1.13487 -0.106517 -5.56676e-23)
(1.13324 -0.117469 6.0051e-22)
(1.13592 -0.116422 -1.99794e-22)
(1.13863 -0.115372 1.88651e-22)
(1.14136 -0.11432 -4.63722e-23)
(1.13911 -0.126012 4.45363e-22)
(1.14204 -0.124848 5.12711e-22)
(1.145 -0.12368 1.037e-22)
(1.14798 -0.122507 -1.64279e-22)
(1.14502 -0.135002 -3.57411e-22)
(1.14822 -0.133709 5.9283e-23)
(1.15145 -0.132409 -5.37702e-22)
(1.1547 -0.131101 1.65068e-22)
(1.15097 -0.144466 -3.99671e-22)
(1.15447 -0.143029 -2.91157e-22)
(1.158 -0.141582 6.04329e-22)
(1.16154 -0.140124 -1.49782e-22)
(1.15695 -0.15443 -1.03243e-21)
(1.16079 -0.152833 -2.14379e-22)
(1.16464 -0.151222 -5.9423e-22)
(1.1685 -0.149595 -1.10431e-23)
(1.16297 -0.164943 7.8956e-22)
(1.16717 -0.163161 -2.48707e-22)
(1.17138 -0.161361 -8.08593e-22)
(1.17559 -0.159542 5.8979e-23)
(1.16906 -0.176009 3.85394e-22)
(1.17366 -0.174023 1.48572e-21)
(1.17825 -0.172012 6.26763e-23)
(1.18284 -0.169976 -2.48314e-23)
(1.17519 -0.187668 2.29455e-21)
(1.18022 -0.185452 -1.34892e-21)
(1.18523 -0.1832 4.77433e-23)
(1.19023 -0.180914 -4.76695e-23)
(1.1814 -0.199974 3.96585e-22)
(1.18691 -0.197487 6.08944e-22)
(1.19237 -0.194953 1.32978e-21)
(1.19781 -0.192372 4.85092e-23)
(1.1877 -0.212959 -2.71109e-21)
(1.19372 -0.210152 -1.44403e-21)
(1.19968 -0.207283 7.28115e-22)
(1.20558 -0.204349 5.03822e-22)
(1.19414 -0.226654 2.01393e-21)
(1.20071 -0.223466 4.89376e-21)
(1.20719 -0.22019 -6.30655e-22)
(1.21356 -0.216821 -4.33059e-22)
(1.20071 -0.241079 -2.94473e-21)
(1.20787 -0.237425 -1.36087e-21)
(1.21487 -0.233643 -1.6588e-21)
(1.2217 -0.229723 -4.49483e-22)
(1.22269 -0.247567 -1.44467e-22)
(1.22992 -0.242921 5.47314e-23)
(1.05328 -0.00211803 -5.12582e-24)
(1.05393 -0.00210809 3.93041e-24)
(1.05458 -0.00209817 -6.34551e-24)
(1.05523 -0.00208823 5.53442e-24)
(1.05587 -0.00207826 5.55911e-24)
(1.0565 -0.00206821 -6.66879e-25)
(1.05714 -0.00205806 -1.97047e-23)
(1.05776 -0.00204777 2.95965e-23)
(1.05839 -0.0020373 2.64575e-23)
(1.0539 -0.00631387 7.5747e-24)
(1.05457 -0.00628063 -5.1636e-24)
(1.05523 -0.00624741 -3.07081e-24)
(1.05589 -0.00621419 1.06575e-23)
(1.05654 -0.00618094 -1.6026e-23)
(1.05719 -0.00614763 2.05258e-24)
(1.05783 -0.00611422 -3.57494e-24)
(1.05847 -0.00608067 -3.76334e-23)
(1.05911 -0.00604694 1.2111e-22)
(1.05507 -0.0104352 -6.42259e-25)
(1.05576 -0.0103794 7.37932e-24)
(1.05644 -0.0103238 -7.63381e-24)
(1.05712 -0.0102682 5.34318e-25)
(1.05779 -0.0102126 8.56766e-25)
(1.05846 -0.010157 4.79081e-24)
(1.05913 -0.0101013 -2.96323e-24)
(1.05979 -0.0100455 -1.30141e-23)
(1.06045 -0.00998946 2.35517e-23)
(1.05675 -0.0145339 3.80954e-24)
(1.05747 -0.0144547 -4.7543e-24)
(1.05818 -0.0143757 2.03201e-24)
(1.05888 -0.0142967 -3.95091e-25)
(1.05959 -0.0142178 5.32741e-24)
(1.06029 -0.014139 -1.54612e-23)
(1.06099 -0.01406 1.83997e-23)
(1.06168 -0.013981 -2.48996e-23)
(1.06237 -0.0139018 -4.12859e-23)
(1.0589 -0.0186442 -1.98942e-24)
(1.05965 -0.0185407 5.57023e-24)
(1.0604 -0.0184374 -5.66803e-24)
(1.06115 -0.0183343 -2.68228e-24)
(1.06189 -0.0182314 -2.75777e-24)
(1.06263 -0.0181286 -1.08817e-23)
(1.06337 -0.0180258 1.35701e-23)
(1.0641 -0.017923 1.99458e-23)
(1.06483 -0.0178201 5.25177e-23)
(1.06149 -0.0228003 -1.24784e-24)
(1.06229 -0.0226712 2.10229e-24)
(1.06308 -0.0225424 -5.65392e-24)
(1.06387 -0.0224139 -4.88928e-24)
(1.06466 -0.0222856 3.31467e-24)
(1.06544 -0.0221576 -5.59617e-23)
(1.06623 -0.0220297 8.39222e-23)
(1.06701 -0.0219019 6.46474e-23)
(1.0678 -0.0217742 -1.09046e-22)
(1.06449 -0.0270303 -4.85458e-25)
(1.06533 -0.0268739 -3.21163e-24)
(1.06618 -0.026718 1.07292e-24)
(1.06702 -0.0265625 7.50931e-24)
(1.06786 -0.0264074 1.38136e-23)
(1.06871 -0.0262526 -2.64018e-23)
(1.06955 -0.0260982 -6.78469e-24)
(1.07039 -0.025944 -6.35346e-23)
(1.07124 -0.02579 2.81702e-22)
(1.06787 -0.0313601 -1.81211e-24)
(1.06877 -0.0311745 3.82045e-24)
(1.06968 -0.0309894 -1.04708e-23)
(1.07058 -0.030805 5.63872e-23)
(1.07149 -0.0306212 2.98255e-23)
(1.0724 -0.0304378 1.17749e-23)
(1.0733 -0.030255 -8.39748e-23)
(1.07421 -0.0300727 -1.51885e-22)
(1.07512 -0.0298908 -8.09763e-23)
(1.07162 -0.0358125 2.30059e-24)
(1.07258 -0.0355953 3.17062e-24)
(1.07355 -0.035379 -2.54875e-23)
(1.07453 -0.0351634 2.43084e-23)
(1.0755 -0.0349485 -8.01933e-23)
(1.07648 -0.0347345 -1.65349e-22)
(1.07747 -0.0345211 1.81638e-22)
(1.07845 -0.0343085 -1.29955e-22)
(1.07944 -0.0340965 2.52054e-22)
(1.0757 -0.0404089 5.35521e-24)
(1.07674 -0.0401575 -3.18179e-23)
(1.07778 -0.0399071 1.49089e-23)
(1.07883 -0.0396577 1.44299e-22)
(1.07989 -0.0394093 3.33744e-23)
(1.08095 -0.0391619 -1.14161e-23)
(1.08202 -0.0389155 -1.25122e-23)
(1.08309 -0.03867 4.65447e-22)
(1.08417 -0.0384254 -7.53143e-23)
(1.08009 -0.0451689 3.55774e-24)
(1.08122 -0.0448802 5.48311e-23)
(1.08235 -0.0445927 -2.01832e-23)
(1.08348 -0.0443065 -1.3993e-24)
(1.08463 -0.0440215 -1.56641e-22)
(1.08578 -0.0437377 5.98546e-23)
(1.08694 -0.0434552 -6.92494e-23)
(1.08811 -0.0431739 -1.73686e-22)
(1.08928 -0.0428938 -2.92635e-22)
(1.08479 -0.0501106 7.74246e-24)
(1.086 -0.0497812 2.18578e-24)
(1.08723 -0.0494533 -3.52958e-23)
(1.08846 -0.0491268 2.12737e-23)
(1.0897 -0.0488018 3.16323e-22)
(1.09096 -0.0484782 -8.24592e-23)
(1.09222 -0.0481562 1.04217e-22)
(1.09349 -0.0478356 -1.48198e-22)
(1.09476 -0.0475166 -2.27608e-22)
(1.08976 -0.0552518 1.177e-23)
(1.09107 -0.0548779 -4.05414e-23)
(1.0924 -0.0545056 -3.37363e-24)
(1.09374 -0.0541349 -2.02184e-22)
(1.09509 -0.0537659 -1.37291e-22)
(1.09645 -0.0533986 -2.41949e-22)
(1.09783 -0.053033 7.18866e-23)
(1.09921 -0.0526691 -3.92958e-22)
(1.10061 -0.0523071 -8.57768e-23)
(1.09499 -0.0606097 -5.86044e-24)
(1.09642 -0.0601868 -3.92814e-23)
(1.09786 -0.0597656 -1.16862e-22)
(1.09931 -0.0593463 2.94619e-23)
(1.10078 -0.0589287 1.91492e-22)
(1.10226 -0.0585131 -1.18691e-22)
(1.10376 -0.0580993 7.80657e-24)
(1.10527 -0.0576876 -5.57187e-23)
(1.10679 -0.0572778 -7.08657e-24)
(1.10046 -0.0662007 2.03775e-23)
(1.10201 -0.0657239 -3.80694e-23)
(1.10357 -0.0652488 9.70279e-23)
(1.10515 -0.0647757 -7.61424e-23)
(1.10675 -0.0643044 -9.83974e-24)
(1.10836 -0.0638352 -1.30027e-22)
(1.10999 -0.063368 -1.28465e-22)
(1.11164 -0.062903 1.20335e-22)
(1.11329 -0.0624401 4.69924e-22)
(1.10615 -0.0720413 -2.59373e-23)
(1.10784 -0.0715049 -2.86546e-23)
(1.10954 -0.0709703 -2.95949e-23)
(1.11125 -0.0704376 1.22391e-22)
(1.11299 -0.0699068 -1.58515e-22)
(1.11475 -0.069378 1.08443e-21)
(1.11652 -0.0688513 -6.07895e-22)
(1.11831 -0.0683267 4.55692e-22)
(1.12011 -0.0678044 -1.88433e-21)
(1.11205 -0.0781479 5.1672e-24)
(1.11388 -0.0775456 5.77953e-23)
(1.11573 -0.076945 2.11033e-22)
(1.1176 -0.0763461 -1.07667e-22)
(1.11949 -0.075749 4.4424e-24)
(1.12139 -0.0751538 -1.06428e-21)
(1.12332 -0.0745606 3.08879e-22)
(1.12527 -0.0739694 -4.9656e-22)
(1.12723 -0.0733804 1.79815e-21)
(1.11814 -0.084537 3.58365e-23)
(1.12013 -0.0838618 5.91635e-23)
(1.12214 -0.0831879 2.2997e-25)
(1.12417 -0.0825154 8.1357e-23)
(1.12622 -0.0818444 5.15115e-22)
(1.1283 -0.081175 7.70864e-22)
(1.13039 -0.0805072 -4.52429e-22)
(1.13251 -0.0798411 7.59684e-22)
(1.13465 -0.0791769 8.1565e-22)
(1.1244 -0.0912255 1.00478e-22)
(1.12656 -0.0904693 -5.03392e-23)
(1.12875 -0.089714 -2.69877e-22)
(1.13096 -0.0889594 -1.50712e-22)
(1.13319 -0.0882058 -1.20682e-21)
(1.13544 -0.0874532 6.11952e-22)
(1.13772 -0.0867017 -1.15287e-21)
(1.14002 -0.0859514 1.65513e-21)
(1.14234 -0.0852023 -1.38003e-21)
(1.13083 -0.098231 -1.36052e-22)
(1.13318 -0.0973848 2.26226e-23)
(1.13555 -0.0965386 1.79716e-22)
(1.13795 -0.0956924 7.74363e-22)
(1.14038 -0.0948463 -1.98793e-22)
(1.14283 -0.0940003 -1.67447e-22)
(1.1453 -0.0931546 1.85718e-21)
(1.14779 -0.0923092 -1.61641e-21)
(1.15031 -0.0914641 1.0597e-21)
(1.1374 -0.105572 8.95265e-24)
(1.13996 -0.104625 -1.50078e-22)
(1.14254 -0.103677 2.46377e-22)
(1.14515 -0.102729 -7.96381e-22)
(1.14778 -0.101779 7.67406e-22)
(1.15044 -0.100828 -8.63599e-22)
(1.15312 -0.099876 -1.60849e-21)
(1.15583 -0.0989231 1.413e-21)
(1.15856 -0.0979693 -3.47532e-21)
(1.14412 -0.113264 -3.97958e-24)
(1.1469 -0.112206 -3.26623e-23)
(1.14971 -0.111145 2.77063e-23)
(1.15254 -0.110082 2.42883e-22)
(1.1554 -0.109016 8.25566e-23)
(1.15828 -0.107947 1.40106e-21)
(1.16119 -0.106875 -2.34806e-21)
(1.16413 -0.105801 -1.29257e-21)
(1.16708 -0.104723 2.12603e-21)
(1.15098 -0.121329 1.36206e-22)
(1.15401 -0.120147 4.02097e-22)
(1.15706 -0.118959 -6.18888e-22)
(1.16013 -0.117767 -6.61436e-22)
(1.16323 -0.11657 -1.74302e-22)
(1.16636 -0.115368 -2.00679e-22)
(1.16951 -0.114161 2.53105e-21)
(1.17268 -0.112949 -9.57368e-22)
(1.17588 -0.111731 -2.39352e-22)
(1.15797 -0.129786 -9.14365e-23)
(1.16126 -0.128464 -4.81691e-22)
(1.16458 -0.127135 1.1966e-22)
(1.16792 -0.125798 7.66454e-22)
(1.17128 -0.124454 1.87503e-21)
(1.17467 -0.123101 -5.4203e-23)
(1.17808 -0.121741 2.03061e-21)
(1.18151 -0.120371 -5.57222e-24)
(1.18497 -0.118992 1.1997e-21)
(1.1651 -0.138655 2.12627e-22)
(1.16868 -0.137177 -9.41044e-22)
(1.17229 -0.135687 7.52958e-22)
(1.17591 -0.134187 4.53133e-22)
(1.17955 -0.132676 -4.60024e-22)
(1.18321 -0.131152 1.72472e-21)
(1.1869 -0.129617 -2.34667e-21)
(1.1906 -0.128067 -1.45746e-21)
(1.19433 -0.126501 4.87688e-22)
(1.17238 -0.147954 4.50226e-23)
(1.17627 -0.146299 7.585e-22)
(1.18018 -0.144628 7.38899e-22)
(1.18411 -0.142943 1.14881e-21)
(1.18805 -0.141241 1.36722e-22)
(1.19201 -0.139522 7.66575e-22)
(1.19598 -0.137785 5.86146e-21)
(1.19997 -0.136025 2.27835e-21)
(1.20397 -0.134241 -1.82541e-21)
(1.17981 -0.157704 -1.21081e-22)
(1.18404 -0.155847 9.12745e-22)
(1.18828 -0.153969 4.8604e-22)
(1.19253 -0.152071 -1.29122e-21)
(1.19679 -0.15015 -1.12236e-21)
(1.20105 -0.148204 -2.31391e-21)
(1.20532 -0.146229 -5.2181e-21)
(1.20959 -0.144221 -5.26696e-21)
(1.21385 -0.142174 3.39241e-21)
(1.18742 -0.167913 -9.8121e-23)
(1.19201 -0.165825 1.6507e-22)
(1.1966 -0.163709 -2.41654e-21)
(1.20118 -0.161563 -3.90061e-22)
(1.20576 -0.159385 2.18996e-21)
(1.21034 -0.157169 2.74651e-21)
(1.21489 -0.154911 2.44848e-21)
(1.21943 -0.152601 2.66228e-21)
(1.22393 -0.15023 1.57437e-21)
(1.19521 -0.178592 1.67982e-22)
(1.20018 -0.176234 1.93848e-22)
(1.20513 -0.173838 1.52244e-21)
(1.21006 -0.171398 -3.70698e-21)
(1.21496 -0.168911 -2.87321e-21)
(1.21983 -0.166367 -8.40713e-21)
(1.22465 -0.163758 -3.3853e-21)
(1.22941 -0.16107 9.5828e-22)
(1.23408 -0.158286 1.42733e-21)
(1.20321 -0.189743 -2.35475e-23)
(1.20857 -0.187063 -1.87317e-21)
(1.21388 -0.184327 -1.4842e-21)
(1.21915 -0.181528 3.59771e-22)
(1.22434 -0.178657 2.03649e-22)
(1.22946 -0.1757 1.22033e-20)
(1.23448 -0.172643 1.63334e-21)
(1.23936 -0.169465 2.97795e-21)
(1.24407 -0.166141 -6.50374e-21)
(1.21141 -0.201347 -3.66874e-22)
(1.21716 -0.198271 -9.94578e-22)
(1.22282 -0.195112 2.3384e-21)
(1.22838 -0.191858 3.83222e-21)
(1.23381 -0.188495 2.68023e-21)
(1.23909 -0.185003 -1.22439e-20)
(1.24417 -0.181357 -1.66994e-21)
(1.249 -0.177531 1.12153e-20)
(1.25354 -0.173489 -1.20943e-20)
(1.21981 -0.213353 6.02429e-22)
(1.22592 -0.209774 4.82777e-22)
(1.23187 -0.206071 -6.50036e-21)
(1.23764 -0.202225 -3.18954e-21)
(1.24317 -0.198214 -2.88129e-21)
(1.24843 -0.19401 4.5403e-21)
(1.25335 -0.189581 1.16392e-20)
(1.25786 -0.184889 2.51214e-21)
(1.26186 -0.179894 2.36727e-20)
(1.22833 -0.225653 2.38801e-22)
(1.23473 -0.221418 2.32242e-21)
(1.24086 -0.216996 1.52181e-21)
(1.24666 -0.212361 4.82883e-21)
(1.25207 -0.207483 -6.0212e-21)
(1.25703 -0.202327 8.01934e-21)
(1.26143 -0.196853 -8.9932e-21)
(1.26518 -0.191017 -1.06245e-20)
(1.26815 -0.184775 -9.81773e-21)
(1.23682 -0.238053 -3.70681e-22)
(1.24334 -0.23294 4.98478e-22)
)
;

boundaryField
{
    inlet
    {
        type            uniformFixedValue;
        uniformValue    constant (1 0 0);
        value           nonuniform 0();
    }
    outlet
    {
        type            pressureInletOutletVelocity;
        value           nonuniform 0();
    }
    cylinder
    {
        type            fixedValue;
        value           nonuniform 0();
    }
    top
    {
        type            symmetryPlane;
    }
    bottom
    {
        type            symmetryPlane;
    }
    defaultFaces
    {
        type            empty;
    }
    procBoundary2to1
    {
        type            processor;
        value           nonuniform List<vector> 
33
(
(1.04996 -0.00216893 5.27925e-23)
(1.05053 -0.00648107 -1.86772e-22)
(1.05161 -0.010716 1.41438e-22)
(1.05316 -0.0149327 -3.90054e-23)
(1.05515 -0.0191655 5.05324e-24)
(1.05754 -0.0234513 -8.81652e-23)
(1.06031 -0.0278195 4.71424e-24)
(1.06343 -0.0322977 3.68579e-23)
(1.06686 -0.0369105 -2.53594e-23)
(1.0706 -0.0416808 3.72179e-23)
(1.07461 -0.04663 -1.2106e-23)
(1.07888 -0.051778 -6.2345e-24)
(1.08338 -0.0571449 3.6651e-23)
(1.08808 -0.0627497 1.35973e-23)
(1.09297 -0.0686115 9.01439e-23)
(1.09803 -0.0747494 -7.45444e-23)
(1.10322 -0.0811829 -1.02958e-22)
(1.10853 -0.0879319 7.18693e-23)
(1.11395 -0.0950169 -9.52912e-23)
(1.11944 -0.102461 -4.49107e-23)
(1.12498 -0.110286 -1.9466e-22)
(1.13057 -0.118513 3.51323e-22)
(1.13619 -0.127171 -1.38079e-22)
(1.14183 -0.136288 -6.36711e-22)
(1.14748 -0.145892 6.94797e-22)
(1.15313 -0.156013 -5.09477e-22)
(1.15879 -0.166704 -8.84763e-24)
(1.16445 -0.177968 5.6268e-22)
(1.17014 -0.189849 -6.42465e-23)
(1.17586 -0.202413 -1.0535e-22)
(1.18162 -0.215705 -1.95451e-21)
(1.18747 -0.229757 1.79012e-21)
(1.19339 -0.244607 3.20189e-21)
)
;
    }
    procBoundary2to3
    {
        type            processor;
        value           nonuniform List<vector> 
33
(
(1.05901 -0.00202663 9.29149e-23)
(1.05974 -0.00601299 1.19987e-22)
(1.0611 -0.00993316 -4.51965e-23)
(1.06306 -0.0138224 9.25658e-23)
(1.06556 -0.017717 6.51911e-24)
(1.06858 -0.0216464 -2.84573e-23)
(1.07208 -0.0256362 1.90508e-22)
(1.07604 -0.0297091 -1.92908e-22)
(1.08043 -0.0338851 -2.36939e-23)
(1.08524 -0.0381817 -1.60956e-22)
(1.09046 -0.042615 -8.48122e-23)
(1.09605 -0.047199 3.82518e-23)
(1.10201 -0.0519469 -4.2663e-22)
(1.10832 -0.0568702 2.3954e-22)
(1.11497 -0.0619795 3.9229e-22)
(1.12194 -0.0672845 -9.37685e-22)
(1.12922 -0.0727936 1.17772e-22)
(1.13681 -0.0785147 -1.42027e-21)
(1.14469 -0.0844547 2.6124e-21)
(1.15286 -0.0906196 -1.45106e-21)
(1.16132 -0.0970144 -1.22526e-21)
(1.17007 -0.103643 2.28512e-21)
(1.17911 -0.110506 -2.34538e-21)
(1.18844 -0.117601 -1.303e-21)
(1.19807 -0.124916 -9.52306e-22)
(1.20797 -0.132426 4.11768e-21)
(1.2181 -0.14008 -6.66677e-22)
(1.22838 -0.147785 -5.643e-21)
(1.23864 -0.155387 6.88191e-22)
(1.24857 -0.162644 -6.81015e-21)
(1.2577 -0.169196 3.21153e-21)
(1.26527 -0.174551 7.55329e-21)
(1.27022 -0.178082 6.10186e-22)
)
;
    }
    procBoundary2to8
    {
        type            processor;
        value           nonuniform List<vector> 
15
(
(1.20741 -0.256256 -1.08365e-21)
(1.21518 -0.252007 4.98302e-21)
(1.21518 -0.252007 4.98302e-21)
(1.23047 -0.261787 -1.69742e-21)
(1.23796 -0.256165 4.29204e-22)
(1.24942 -0.227553 -6.41335e-21)
(1.25497 -0.22186 1.32073e-21)
(1.25991 -0.215824 -1.07869e-20)
(1.26413 -0.209406 1.2337e-20)
(1.2675 -0.202562 3.60968e-21)
(1.26989 -0.19525 5.4062e-21)
(1.27116 -0.18743 -5.03445e-21)
(1.24492 -0.25022 -3.55162e-22)
(1.24942 -0.227553 -6.41335e-21)
(1.25129 -0.243924 1.75192e-21)
)
;
    }
}


// ************************************************************************* //
