/*--------------------------------*- C++ -*----------------------------------*\
  =========                 |
  \\      /  F ield         | OpenFOAM: The Open Source CFD Toolbox
   \\    /   O peration     | Website:  https://openfoam.org
    \\  /    A nd           | Version:  7
     \\/     M anipulation  |
\*---------------------------------------------------------------------------*/
FoamFile
{
    version     2.0;
    format      ascii;
    class       surfaceScalarField;
    location    "1";
    object      phi;
}
// * * * * * * * * * * * * * * * * * * * * * * * * * * * * * * * * * * * * * //

dimensions      [0 3 -1 0 0 0 0];

internalField   nonuniform List<scalar> 
612
(
0.000333629
-6.3232e-05
0.00037836
-0.000162543
0.000398576
-0.000131409
0.000448588
-0.000159118
0.000490084
-0.000162182
-0.000175031
0.00053094
0.000236827
-1.94503e-07
0.00023683
6.77646e-07
0.000236805
-5.0164e-07
0.000236819
1.20463e-06
0.000236761
-8.25591e-07
0.000236828
1.56641e-06
0.000236637
-3.67702e-07
0.000236911
4.11668e-07
0.000236253
3.0864e-06
0.000237196
-5.18878e-06
0.000235253
1.31198e-05
0.000237881
-1.85993e-05
0.000233438
3.16827e-05
0.00023891
-3.89428e-05
0.000231496
5.29213e-05
0.000239139
-5.55851e-05
0.000230899
6.15125e-05
0.000237299
-5.32825e-05
0.000231714
4.88903e-05
0.000235257
-3.55328e-05
0.000232076
3.28705e-05
0.000235785
-2.88805e-05
0.000231456
3.86994e-05
0.000237865
-4.51945e-05
0.000232207
5.61961e-05
0.000237665
-5.35658e-05
0.000233303
4.87594e-05
0.00023681
-3.30811e-05
0.000232782
2.43894e-05
0.000236029
-1.66642e-05
0.000236358
1.44661e-05
0.000230749
-1.11488e-05
0.000243378
7.67058e-07
0.00023167
3.30218e-06
0.00023965
-5.95279e-06
0.000239547
-1.32453e-05
0.000237947
2.8963e-05
0.000230945
-4.96596e-05
0.000241046
4.30922e-05
0.000229133
-4.24945e-05
0.000228684
2.65179e-05
0.000239105
-4.19289e-05
0.000225221
3.39046e-05
0.000235448
-5.46306e-05
0.000232253
2.70974e-05
0.000235512
-4.31073e-05
0.000238749
5.38772e-06
0.000234075
-4.41037e-05
0.000255867
9.0818e-07
0.000238443
-5.85457e-05
0.000257855
5.82736e-06
0.000265316
-8.38587e-05
0.000254363
7.55665e-06
0.000292772
-0.000103872
0.000276609
4.30736e-06
0.000299869
-0.000150345
0.00030995
1.46828e-05
0.000346933
-0.000192939
0.000336622
-1.50677e-06
0.000388317
-0.00020694
0.000383713
-5.86279e-05
0.000439418
-0.000218248
0.000441696
-0.000133688
0.000509849
-0.00022727
0.000548965
-0.000201298
-0.000223621
0.000597555
0.000259327
-4.3777e-08
0.000259561
4.44412e-07
0.000259194
-1.35259e-07
0.000259734
6.65062e-07
0.00025893
-2.16894e-08
0.00026002
4.76491e-07
0.000258478
1.1738e-06
0.000260375
-1.48453e-06
0.000257844
5.61677e-06
0.000260622
-7.96673e-06
0.000257103
1.6639e-05
0.000260664
-2.21608e-05
0.000256401
3.59465e-05
0.000260569
-4.31107e-05
0.000256197
5.72929e-05
0.000260196
-5.95842e-05
0.000256565
6.51435e-05
0.000259742
-5.64598e-05
0.000256778
5.18543e-05
0.000260134
-3.8889e-05
0.000256604
3.64012e-05
0.000261584
-3.38606e-05
0.000257839
4.24442e-05
0.000262709
-5.00641e-05
0.000261582
5.73231e-05
0.0002635
-5.54845e-05
0.000264292
4.79673e-05
0.000264538
-3.33267e-05
0.000267139
2.17881e-05
0.000264022
-1.35467e-05
0.000270442
8.04562e-06
0.000266859
-7.56503e-06
0.000264587
3.03879e-06
0.000273924
-6.0345e-06
0.000262459
5.51153e-06
0.000266574
-1.73597e-05
0.000273747
2.17893e-05
0.000258703
-3.46154e-05
0.000269361
3.24344e-05
0.000266014
-3.91479e-05
0.000261394
3.11381e-05
0.000264206
-4.47409e-05
0.000267758
3.03523e-05
0.000264169
-5.10408e-05
0.000272698
1.8568e-05
0.000273091
-4.35005e-05
0.000280145
-1.66646e-06
0.000280039
-4.39973e-05
0.000294655
-1.37076e-05
0.000287844
-5.17349e-05
0.000311593
-1.79217e-05
0.000305466
-7.77321e-05
0.000324599
-1.1576e-05
0.000334722
-0.000113995
0.000344773
-5.7437e-06
0.000350941
-0.000156513
0.000379029
-1.34057e-05
0.000394338
-0.000208248
0.000409747
-1.69154e-05
0.000452311
-0.000249505
0.000441535
-4.78526e-05
0.000508723
-0.000285435
0.00048344
-0.000108405
0.000564893
-0.000308723
0.000585079
-0.000221484
-0.000287523
0.000648981
0.000281855
2.02139e-07
0.000282254
4.60058e-08
0.000281653
4.65122e-07
0.00028255
-2.31662e-07
0.000281267
1.26148e-06
0.000283013
-1.26973e-06
0.000280679
3.50748e-06
0.000283516
-4.3214e-06
0.000280073
9.05992e-06
0.000283777
-1.16709e-05
0.00027996
2.04565e-05
0.000283561
-2.57618e-05
0.000280977
3.85299e-05
0.00028299
-4.51234e-05
0.00028313
5.71534e-05
0.000282436
-5.88903e-05
0.00028487
6.2709e-05
0.000283595
-5.51846e-05
0.000284279
5.11707e-05
0.000286668
-4.12782e-05
0.000284038
3.90313e-05
0.000287876
-3.76986e-05
0.000289718
4.06018e-05
0.000285146
-4.5492e-05
0.00029891
4.35588e-05
0.000285631
-4.22054e-05
0.000300916
3.2683e-05
0.000292579
-2.49898e-05
0.000297826
1.65404e-05
0.000300365
-1.60849e-05
0.000292564
1.58464e-05
0.000307601
-2.26023e-05
0.000290532
2.0108e-05
0.000304178
-1.96803e-05
0.000302372
7.31738e-06
0.000298578
-1.35657e-05
0.000308784
1.15825e-05
0.000306703
-3.25336e-05
0.000313193
2.59446e-05
0.000306961
-3.29165e-05
0.000327455
1.06446e-05
0.000313138
-3.04246e-05
0.000332839
1.06521e-05
0.000322541
-4.07429e-05
0.000339973
1.13558e-06
0.000337108
-4.06352e-05
0.00034052
-5.07848e-06
0.000349512
-5.299e-05
0.000357068
-2.12627e-05
0.000355566
-5.0233e-05
0.000372372
-3.4728e-05
0.000367216
-7.2576e-05
0.000398441
-4.28007e-05
0.000383047
-9.86014e-05
0.00042088
-4.35763e-05
0.000397523
-0.000133156
0.000442516
-5.83985e-05
0.000416659
-0.000182391
0.000466339
-6.65959e-05
0.000453982
-0.000237147
0.000473353
-6.72232e-05
0.000523892
-0.000335974
0.000499571
-8.4084e-05
0.000602062
-0.000411214
0.000586153
-0.000205576
-0.000405199
0.000703829
0.000304441
4.52023e-07
0.000304868
-3.8123e-07
0.000304247
1.08615e-06
0.000305225
-1.20902e-06
0.000303871
2.61492e-06
0.000305819
-3.21787e-06
0.000303311
6.01594e-06
0.000306575
-7.58506e-06
0.000302838
1.27968e-05
0.000307143
-1.59763e-05
0.00030324
2.43593e-05
0.000306919
-2.94406e-05
0.000305715
3.97346e-05
0.00030549
-4.48985e-05
0.000310176
5.24665e-05
0.00030399
-5.27038e-05
0.000313574
5.31255e-05
0.000305095
-4.67063e-05
0.000313625
4.26408e-05
0.000308662
-3.63151e-05
0.000314105
3.3588e-05
0.000309241
-3.28348e-05
0.000319655
3.01878e-05
0.000304863
-3.06991e-05
0.0003235
2.49215e-05
0.000304399
-2.31041e-05
0.000318379
1.87027e-05
0.000311526
-1.81367e-05
0.000311438
1.66284e-05
0.000316267
-2.09141e-05
0.000313573
1.85401e-05
0.000313247
-2.22762e-05
0.000322708
1.06469e-05
0.000313939
-1.09108e-05
0.000322293
-1.03727e-06
0.000323752
-1.5024e-05
0.000322305
1.30296e-05
0.000324374
-3.46035e-05
0.000336945
1.33736e-05
0.00032807
-2.40414e-05
0.000338626
8.91807e-08
0.000337552
-2.93513e-05
0.000347349
8.55954e-07
0.000336687
-3.00813e-05
0.000352622
-1.47994e-05
0.000347473
-3.54856e-05
0.000357354
-1.49595e-05
0.000349301
-4.49373e-05
0.000360954
-3.29158e-05
0.000365612
-5.4891e-05
0.000361799
-3.09155e-05
0.000367072
-7.78481e-05
0.000372413
-4.81419e-05
0.000370878
-9.70665e-05
0.000393633
0.000368717
0.000407444
0.000374335
0.000426377
0.00038686
0.000466002
0.000420231
0.000496761
0.00057562
0.000585611
0.000823421
0.000327073
0.000327411
0.00032696
0.000327747
0.000326747
0.000328365
0.000326512
0.000329294
0.000326729
0.00033026
0.000328595
0.000330489
0.000333569
0.000329406
0.00034067
0.000328348
0.000345204
0.00032968
0.000344977
0.000332607
0.000343198
0.000334167
0.000341421
0.0003346
0.000338574
0.000335839
0.000337494
0.00033591
0.000340898
0.000331839
0.000347359
0.000330083
0.000345099
0.000339258
0.000338942
0.00034002
0.000349808
0.000332428
0.000349636
0.000344866
0.000344895
0.000344316
0.000353552
0.000348893
0.000350038
0.000351675
0.000360264
0.000351985
0.000358737
0.000355091
0.000369071
0.000359231
0.000365672
0.000572744
-0.000166582
0.000615886
-0.000153637
0.000652648
-0.000139934
-0.000113677
0.000659609
-0.000228637
0.0007089
-0.000202928
0.000741479
-0.000172513
-0.000136051
0.000740423
-0.000320078
0.000807179
-0.000269685
0.000833809
-0.000199143
-0.000154253
0.000831133
-0.000447382
0.000896908
-0.00033546
0.000951097
-0.000253332
-0.000162377
0.000864411
0.000914543
0.000919851
)
;

boundaryField
{
    inlet
    {
        type            calculated;
        value           nonuniform 0();
    }
    outlet
    {
        type            calculated;
        value           nonuniform 0();
    }
    wall
    {
        type            calculated;
        value           nonuniform 0();
    }
    wedge1
    {
        type            wedge;
        value           nonuniform List<scalar> 
344
(
2.8863e-17
-3.91037e-17
-2.33872e-18
3.80869e-20
-4.07294e-17
-6.86967e-17
1.14942e-16
-1.39793e-17
7.83025e-18
5.3251e-17
6.66458e-17
-9.39146e-17
-1.01995e-17
-3.80231e-18
-1.04081e-16
-1.27174e-16
2.03971e-16
-7.19804e-18
1.48413e-17
1.46326e-16
1.10336e-16
-1.45867e-16
-5.31489e-17
-1.57e-17
-2.53369e-16
-1.7254e-16
2.51253e-16
5.80495e-17
3.17562e-17
3.58922e-16
7.89656e-17
-2.55292e-17
-2.11929e-16
-4.52106e-17
-5.68305e-16
-6.6377e-17
-9.16112e-18
3.0632e-16
7.3331e-17
7.88674e-16
-2.54184e-16
6.92051e-16
-6.64565e-16
-1.09805e-16
-1.15395e-15
5.05465e-16
-1.2102e-15
9.70532e-16
1.63336e-16
1.5387e-15
-1.24039e-15
2.70881e-15
-1.6697e-15
-2.34605e-16
-2.0731e-15
1.88913e-15
-4.04895e-15
2.28886e-15
3.2321e-16
2.57584e-15
-3.05771e-15
6.45692e-15
-3.34457e-15
-4.32643e-16
-3.19509e-15
3.97538e-15
-8.39309e-15
4.08913e-15
5.30023e-16
3.42151e-15
-5.0901e-15
1.0852e-14
-5.17306e-15
-6.61343e-16
-3.87269e-15
5.68242e-15
-1.19965e-14
5.25056e-15
6.55504e-16
3.38853e-15
-5.84424e-15
1.28237e-14
-5.84206e-15
-7.57352e-16
-3.52725e-15
5.44425e-15
-1.15969e-14
4.67918e-15
6.20565e-16
2.50307e-15
-4.58849e-15
1.04111e-14
-4.57005e-15
-6.5929e-16
-2.59831e-15
3.58915e-15
-7.90431e-15
3.30038e-15
4.98502e-16
1.77651e-15
-3.07891e-15
7.07573e-15
-3.30802e-15
-5.18419e-16
-2.09442e-15
2.88398e-15
-6.4801e-15
3.22979e-15
4.31866e-16
1.74125e-15
-3.73801e-15
8.12306e-15
-4.0025e-15
-4.54657e-16
-1.98307e-15
4.61082e-15
-9.79328e-15
4.6051e-15
3.83155e-16
1.75883e-15
-5.57879e-15
1.15785e-14
-5.33103e-15
-3.70702e-16
-1.65883e-15
5.62893e-15
-1.13401e-14
4.69241e-15
2.54218e-16
1.60923e-15
-4.8992e-15
9.90552e-15
-4.44656e-15
-2.29527e-16
-1.45323e-15
3.46673e-15
-7.08702e-15
2.57994e-15
1.66947e-16
1.621e-15
-2.42563e-15
5.09465e-15
-1.76522e-15
-1.83909e-16
-1.34348e-15
1.70533e-15
-3.55633e-15
6.02426e-16
2.75532e-16
1.2972e-15
-1.80951e-15
2.47803e-15
-4.33492e-16
-3.28007e-16
-6.26845e-16
1.55102e-15
-1.00101e-15
8.48424e-16
4.30525e-16
3.68894e-16
-9.47814e-16
-1.40011e-15
-1.22715e-15
-2.99265e-16
3.11672e-16
5.74745e-17
1.71337e-15
2.07429e-15
1.87335e-16
2.051e-16
5.80056e-16
-1.05874e-15
-1.50157e-15
2.95178e-17
-1.58289e-16
1.00516e-15
-3.57412e-15
1.65907e-15
7.60475e-17
1.65864e-15
-2.8166e-15
6.42292e-15
-1.08723e-15
-1.5115e-16
-1.14021e-15
5.45585e-15
-8.58585e-15
2.19906e-15
4.65862e-16
1.89586e-15
-5.36954e-15
7.79991e-15
-2.61496e-15
-2.67538e-16
-3.99028e-16
4.54811e-15
-6.82997e-15
3.75155e-15
2.31097e-16
1.81647e-15
-2.79997e-15
6.21807e-15
-2.85436e-15
9.93392e-17
-8.87856e-16
3.52468e-15
-9.74918e-15
3.06147e-15
2.28508e-16
2.78169e-15
-2.84171e-15
8.54234e-15
-1.80255e-15
-5.3537e-17
1.16849e-16
5.67756e-15
-1.09979e-14
3.33402e-15
4.13534e-16
1.61264e-15
-2.94285e-15
5.34013e-15
-1.41437e-15
1.39834e-16
1.22334e-15
4.74924e-15
-7.98578e-15
3.38794e-15
4.08033e-16
2.46994e-15
-1.00396e-15
4.0059e-16
2.97988e-16
6.35039e-17
1.70012e-15
4.84228e-15
-7.48352e-15
3.85799e-15
6.43746e-16
2.13626e-15
-1.43298e-15
-1.98299e-15
1.21605e-15
3.03812e-16
2.79279e-15
6.25516e-15
-1.05516e-14
3.98785e-15
5.51504e-16
4.15858e-15
-1.59645e-15
-3.40323e-16
2.76967e-15
3.86202e-16
1.92176e-15
8.51995e-15
-1.62048e-14
5.84173e-15
7.88069e-16
5.8216e-15
-1.54596e-15
6.12029e-16
1.88615e-15
6.88931e-16
2.44955e-15
1.00747e-14
-2.18562e-14
8.84041e-15
9.13456e-16
7.78614e-15
2.14567e-16
2.74284e-15
1.5825e-15
7.52559e-16
1.55035e-14
-3.05567e-14
1.18224e-14
1.24275e-15
-2.64863e-15
1.14749e-15
1.99966e-15
9.57299e-16
1.9299e-14
-3.98182e-14
1.59906e-14
1.80571e-15
1.03164e-16
-1.39396e-16
2.10946e-15
1.0198e-15
2.02612e-14
-4.52052e-14
2.03727e-14
2.41226e-15
1.00463e-15
6.93542e-15
-1.01569e-14
2.27944e-15
9.43554e-16
2.14526e-15
1.93529e-14
-5.13228e-14
2.71707e-14
3.59169e-15
1.97841e-15
1.45491e-14
-2.79172e-14
7.41275e-15
5.29078e-16
2.0141e-15
1.83603e-14
-5.21151e-14
3.37497e-14
5.29449e-15
2.33295e-15
1.94993e-14
-4.56883e-14
2.2743e-14
2.09467e-15
2.76797e-15
2.17215e-14
-4.90021e-14
2.95654e-14
6.74097e-15
2.63046e-15
2.1713e-14
-5.47058e-14
3.45447e-14
7.01751e-15
2.3407e-15
2.0597e-14
-5.23779e-14
2.94547e-14
4.46919e-15
2.24099e-15
1.85707e-14
-4.55276e-14
2.26266e-14
3.22121e-15
1.94222e-15
1.47954e-14
-3.34204e-14
2.02474e-14
1.15765e-15
)
;
    }
    wedge2
    {
        type            wedge;
        value           nonuniform List<scalar> 
344
(
2.89237e-17
-3.92582e-17
-3.65725e-18
-5.42013e-18
-4.12014e-17
-6.81926e-17
1.15046e-16
-1.51926e-17
-7.5787e-19
5.29416e-17
6.70375e-17
-9.42949e-17
-1.17896e-17
-1.03064e-17
-1.05285e-16
-1.26553e-16
2.04765e-16
-7.42706e-18
5.47487e-18
1.46045e-16
1.12259e-16
-1.44391e-16
-5.35035e-17
-2.19738e-17
-2.54561e-16
-1.71906e-16
2.52166e-16
5.76976e-17
2.39571e-17
3.59297e-16
8.08713e-17
-2.35352e-17
-2.10687e-16
-5.0864e-17
-5.70837e-16
-6.49055e-17
-7.89764e-18
3.04389e-16
6.62127e-17
7.91317e-16
-2.51057e-16
6.95722e-16
-6.61088e-16
-1.15695e-16
-1.1584e-15
5.0611e-16
-1.21052e-15
9.64192e-16
1.54361e-16
1.54351e-15
-1.23704e-15
2.7128e-15
-1.66283e-15
-2.41187e-16
-2.07978e-15
1.88899e-15
-4.05114e-15
2.27846e-15
3.12983e-16
2.58257e-15
-3.05553e-15
6.46035e-15
-3.33417e-15
-4.38282e-16
-3.2038e-15
3.97495e-15
-8.39699e-15
4.07532e-15
5.1996e-16
3.42885e-15
-5.08616e-15
1.08556e-14
-5.16133e-15
-6.62833e-16
-3.87905e-15
5.67808e-15
-1.20021e-14
5.23856e-15
6.45902e-16
3.39259e-15
-5.8386e-15
1.28263e-14
-5.83477e-15
-7.57528e-16
-3.52936e-15
5.43653e-15
-1.16019e-14
4.67227e-15
6.13384e-16
2.50376e-15
-4.5825e-15
1.04123e-14
-4.5684e-15
-6.62385e-16
-2.59953e-15
3.58092e-15
-7.90752e-15
3.29565e-15
4.92201e-16
1.77667e-15
-3.0746e-15
7.07591e-15
-3.30634e-15
-5.23415e-16
-2.09631e-15
2.87822e-15
-6.48192e-15
3.22473e-15
4.27941e-16
1.74201e-15
-3.73251e-15
8.1235e-15
-3.99891e-15
-4.58126e-16
-1.98351e-15
4.60317e-15
-9.79523e-15
4.59895e-15
3.80034e-16
1.75854e-15
-5.57055e-15
1.15797e-14
-5.3276e-15
-3.73024e-16
-1.65689e-15
5.6199e-15
-1.13416e-14
4.68688e-15
2.51716e-16
1.60782e-15
-4.89227e-15
9.90512e-15
-4.44446e-15
-2.32984e-16
-1.45026e-15
3.46039e-15
-7.08725e-15
2.5754e-15
1.67144e-16
1.61936e-15
-2.42346e-15
5.09381e-15
-1.76436e-15
-1.8995e-16
-1.34074e-15
1.70149e-15
-3.55721e-15
5.99463e-16
2.76319e-16
1.29386e-15
-1.80733e-15
2.47756e-15
-4.32278e-16
-3.33701e-16
-6.23739e-16
1.54531e-15
-1.00301e-15
8.45471e-16
4.3102e-16
3.65213e-16
-9.4291e-16
-1.39909e-15
-1.22563e-15
-3.04725e-16
3.14567e-16
5.17633e-17
1.71171e-15
2.07097e-15
1.88047e-16
2.01736e-16
5.836e-16
-1.05781e-15
-1.49877e-15
2.37322e-17
-1.53806e-16
9.9956e-16
-3.57399e-15
1.65547e-15
7.69419e-17
1.65405e-15
-2.81171e-15
6.42196e-15
-1.08307e-15
-1.57709e-16
-1.13572e-15
5.44641e-15
-8.58329e-15
2.19333e-15
4.6535e-16
1.89143e-15
-5.3628e-15
7.79867e-15
-2.61092e-15
-2.74768e-16
-3.95674e-16
4.53982e-15
-6.82911e-15
3.74673e-15
2.3058e-16
1.81094e-15
-2.79562e-15
6.21886e-15
-2.85073e-15
9.31838e-17
-8.83635e-16
3.51981e-15
-9.74997e-15
3.05735e-15
2.28887e-16
2.77488e-15
-2.83947e-15
8.5434e-15
-1.79861e-15
-6.03021e-17
1.20343e-16
5.67183e-15
-1.09976e-14
3.33053e-15
4.1398e-16
1.60744e-15
-2.93969e-15
5.34126e-15
-1.40986e-15
1.34694e-16
1.22668e-15
4.74308e-15
-7.98712e-15
3.38629e-15
4.0727e-16
2.46539e-15
-1.00163e-15
4.04424e-16
3.00978e-16
5.67401e-17
1.70298e-15
4.83619e-15
-7.48422e-15
3.85569e-15
6.42987e-16
2.13206e-15
-1.42815e-15
-1.98101e-15
1.21913e-15
2.97361e-16
2.79652e-15
6.24632e-15
-1.05507e-14
3.98615e-15
5.50591e-16
4.15396e-15
-1.59342e-15
-3.38594e-16
2.77217e-15
3.79707e-16
1.92596e-15
8.51803e-15
-1.62056e-14
5.83931e-15
7.88038e-16
5.81643e-15
-1.54498e-15
6.16757e-16
1.89033e-15
6.83657e-16
2.45399e-15
1.0071e-14
-2.18594e-14
8.83652e-15
9.12867e-16
7.78205e-15
2.16321e-16
2.75058e-15
1.5885e-15
7.47421e-16
1.54979e-14
-3.05583e-14
1.18172e-14
1.24073e-15
-2.64798e-15
1.15471e-15
2.00438e-15
9.52432e-16
1.92939e-14
-3.98192e-14
1.59861e-14
1.80289e-15
1.02615e-16
-1.3308e-16
2.11374e-15
1.01692e-15
2.02576e-14
-4.52057e-14
2.03674e-14
2.4082e-15
1.00623e-15
6.93223e-15
-1.01566e-14
2.28126e-15
9.42776e-16
2.14565e-15
1.93486e-14
-5.13207e-14
2.71676e-14
3.58639e-15
1.97744e-15
1.45469e-14
-2.79185e-14
7.4093e-15
5.25629e-16
2.0146e-15
1.83575e-14
-5.21163e-14
3.37462e-14
5.28596e-15
2.33247e-15
1.94985e-14
-4.56895e-14
2.27342e-14
2.08743e-15
2.76908e-15
2.17175e-14
-4.90066e-14
2.95596e-14
6.7319e-15
2.62991e-15
2.17087e-14
-5.4709e-14
3.45329e-14
7.00816e-15
2.34477e-15
2.05924e-14
-5.23862e-14
2.94447e-14
4.46184e-15
2.24195e-15
1.85625e-14
-4.55323e-14
2.26165e-14
3.21457e-15
1.9462e-15
1.47881e-14
-3.34293e-14
2.0235e-14
1.15056e-15
)
;
    }
    axis
    {
        type            empty;
        value           nonuniform 0();
    }
    procBoundary14to8
    {
        type            processor;
        value           nonuniform List<scalar> 
71
(
6.16971e-05
0.000117812
0.000111193
0.000109106
0.000120686
0.000134174
2.09288e-07
-6.80106e-07
5.25951e-07
-1.21783e-06
8.83183e-07
-1.63315e-06
5.58516e-07
-6.85772e-07
-2.42858e-06
4.246e-06
-1.11765e-05
1.59708e-05
-2.72392e-05
3.34709e-05
-4.55082e-05
4.79428e-05
-5.3273e-05
4.68831e-05
-4.33054e-05
3.19893e-05
-2.96893e-05
2.51718e-05
-3.43707e-05
3.87856e-05
-5.05383e-05
4.81083e-05
-4.43979e-05
2.95746e-05
-2.0362e-05
1.34172e-05
-1.47946e-05
1.67572e-05
-1.3396e-05
8.40661e-06
-2.02736e-06
1.33482e-05
-2.7363e-05
5.66617e-05
-5.31932e-05
5.44075e-05
-2.60694e-05
3.15086e-05
-2.00211e-05
4.44036e-05
-2.39022e-05
3.98478e-05
-8.62452e-06
4.8778e-05
-2.26999e-05
7.59691e-05
-2.52386e-05
7.63971e-05
3.39665e-06
6.54633e-05
1.18551e-05
0.000127085
-2.47636e-05
0.000155957
1.18175e-05
-0.000332094
0.000155246
0.000124779
0.000110495
0.000103173
8.87446e-05
)
;
    }
    procBoundary14to9
    {
        type            processor;
        value           uniform 0.00067758;
    }
    procBoundary14to13
    {
        type            processor;
        value           nonuniform List<scalar> 5(-0.000236842 -0.000259478 -0.000282101 -0.000304691 -0.000327251);
    }
    procBoundary14to15
    {
        type            processor;
        value           nonuniform List<scalar> 4(0.000763854 0.000852011 0.000959221 0.000893409);
    }
    procBoundary14to20
    {
        type            processor;
        value           nonuniform List<scalar> 
71
(
-6.63317e-05
-0.00010824
-9.71248e-05
-0.000149282
-0.000118638
-0.000197631
-0.000146366
-0.000290203
-0.000160613
-0.000490074
-0.000215566
-0.00064301
6.29912e-07
-7.19268e-07
1.53738e-06
-1.99566e-06
3.61497e-06
-4.83579e-06
7.8683e-06
-1.0367e-05
1.53623e-05
-1.9508e-05
2.60251e-05
-3.13348e-05
3.66546e-05
-4.07357e-05
4.12028e-05
-4.03817e-05
3.6269e-05
-3.11822e-05
2.73438e-05
-2.39454e-05
2.29975e-05
-2.38038e-05
2.29338e-05
-2.38785e-05
2.09483e-05
-2.03699e-05
1.70482e-05
-1.65528e-05
1.16399e-05
-1.18546e-05
3.01976e-06
-5.00029e-06
-4.36888e-06
-5.0691e-06
-7.21957e-07
-1.61022e-05
3.24179e-06
-1.72233e-05
-3.83403e-06
-1.92715e-05
5.94748e-08
-2.87723e-05
-8.37984e-06
-2.54221e-05
-1.5944e-05
-3.71231e-05
-2.35481e-05
-3.66586e-05
-3.96674e-05
-5.12459e-05
-4.48953e-05
-6.80084e-05
-5.45826e-05
0.000366719
-9.81136e-05
-0.000488372
-0.000385591
-0.000258641
-0.000135935
)
;
    }
}


// ************************************************************************* //
