/*--------------------------------*- C++ -*----------------------------------*\
  =========                 |
  \\      /  F ield         | OpenFOAM: The Open Source CFD Toolbox
   \\    /   O peration     | Website:  https://openfoam.org
    \\  /    A nd           | Version:  7
     \\/     M anipulation  |
\*---------------------------------------------------------------------------*/
FoamFile
{
    version     2.0;
    format      ascii;
    class       volScalarField;
    location    "0.9996";
    object      p;
}
// * * * * * * * * * * * * * * * * * * * * * * * * * * * * * * * * * * * * * //

dimensions      [0 2 -2 0 0 0 0];

internalField   nonuniform List<scalar> 
5800
(
-0.233408
-0.208237
-0.181012
-0.152561
-0.123938
-0.0963419
-0.0709858
-0.0489531
-0.0310597
-0.325567
-0.330045
-0.330903
-0.328902
-0.324343
-0.317032
-0.306815
-0.293567
-0.277198
-0.257711
-0.235249
-0.210151
-0.182988
-0.154579
-0.125965
-0.098337
-0.0729039
-0.0507509
-0.0327091
-0.329725
-0.333848
-0.334476
-0.332317
-0.327649
-0.320284
-0.310065
-0.296863
-0.280584
-0.261218
-0.238897
-0.213941
-0.186899
-0.158568
-0.12997
-0.102278
-0.0766909
-0.0543001
-0.0359663
-0.33589
-0.339492
-0.339779
-0.337385
-0.332555
-0.325107
-0.314881
-0.301745
-0.285594
-0.266404
-0.244285
-0.219531
-0.192661
-0.16444
-0.135858
-0.108067
-0.0822513
-0.05951
-0.0407495
-0.343982
-0.346906
-0.346748
-0.344045
-0.339001
-0.33144
-0.321199
-0.308144
-0.292152
-0.273182
-0.251316
-0.226814
-0.200156
-0.172066
-0.143494
-0.115565
-0.0894472
-0.0662502
-0.0469413
-0.353898
-0.355999
-0.355298
-0.352218
-0.346906
-0.3392
-0.328937
-0.315968
-0.300158
-0.281441
-0.259867
-0.235653
-0.209234
-0.181282
-0.152706
-0.124596
-0.098105
-0.0743563
-0.054393
-0.036539
-0.365514
-0.366665
-0.365334
-0.361808
-0.356181
-0.348296
-0.337995
-0.325112
-0.309496
-0.291053
-0.269794
-0.245889
-0.219717
-0.191898
-0.163293
-0.134955
-0.108023
-0.0836374
-0.0629312
-0.0437148
-0.378693
-0.378782
-0.376743
-0.372709
-0.366719
-0.358624
-0.348263
-0.335458
-0.320038
-0.301875
-0.280937
-0.257343
-0.231412
-0.203706
-0.175033
-0.146417
-0.118979
-0.0938838
-0.0723647
-0.0516663
-0.393287
-0.392221
-0.389403
-0.384814
-0.378412
-0.370071
-0.359625
-0.346882
-0.331646
-0.313755
-0.293129
-0.269828
-0.244112
-0.216481
-0.187695
-0.158744
-0.13074
-0.104875
-0.0824913
-0.06023
-0.40914
-0.406845
-0.403192
-0.397996
-0.391143
-0.38252
-0.37196
-0.359254
-0.34418
-0.326536
-0.306193
-0.283152
-0.257607
-0.229999
-0.201041
-0.171695
-0.143071
-0.116388
-0.0931045
-0.0692375
-0.426096
-0.422515
-0.41798
-0.412137
-0.404792
-0.395852
-0.385145
-0.372444
-0.357497
-0.340063
-0.319958
-0.297121
-0.271686
-0.244034
-0.214836
-0.185034
-0.155738
-0.128202
-0.103999
-0.0785193
-0.443997
-0.43909
-0.43364
-0.427114
-0.419243
-0.40995
-0.399059
-0.386323
-0.371459
-0.354181
-0.334251
-0.311549
-0.286145
-0.258368
-0.228854
-0.198532
-0.168519
-0.140108
-0.114977
-0.0879089
-0.46269
-0.456435
-0.450043
-0.442807
-0.43438
-0.4247
-0.413585
-0.400768
-0.38593
-0.368743
-0.348911
-0.326256
-0.30079
-0.272797
-0.242885
-0.211978
-0.181207
-0.151908
-0.125849
-0.0972445
-0.482027
-0.474414
-0.467067
-0.4591
-0.45009
-0.43999
-0.42861
-0.415659
-0.400784
-0.383608
-0.363783
-0.341073
-0.315439
-0.28713
-0.256733
-0.225178
-0.193614
-0.163425
-0.136436
-0.106373
-0.501868
-0.4929
-0.48459
-0.475879
-0.466265
-0.455713
-0.444026
-0.430884
-0.415898
-0.398644
-0.378723
-0.355844
-0.329928
-0.301194
-0.270224
-0.237961
-0.205575
-0.174502
-0.146581
-0.115162
-0.522079
-0.511769
-0.5025
-0.493038
-0.482802
-0.471769
-0.45973
-0.446335
-0.431158
-0.413728
-0.393596
-0.370426
-0.344104
-0.314835
-0.283206
-0.250177
-0.216946
-0.185006
-0.156143
-0.123499
-0.542532
-0.530903
-0.520684
-0.51047
-0.4996
-0.488059
-0.475622
-0.46191
-0.446455
-0.428743
-0.408278
-0.384687
-0.357833
-0.327918
-0.295546
-0.261701
-0.22761
-0.194824
-0.164959
-0.131207
-0.563106
-0.550188
-0.539037
-0.528075
-0.516562
-0.504488
-0.491608
-0.47751
-0.461687
-0.443579
-0.422653
-0.398506
-0.370993
-0.340326
-0.307136
-0.272435
-0.23748
-0.203856
-0.17275
-0.137974
-0.583686
-0.569515
-0.557453
-0.545753
-0.533594
-0.520963
-0.507594
-0.493039
-0.476752
-0.458131
-0.436611
-0.411774
-0.383478
-0.35196
-0.317889
-0.282311
-0.24652
-0.212041
-0.17927
-0.144085
-0.604159
-0.588775
-0.57583
-0.563407
-0.550599
-0.53739
-0.523487
-0.508402
-0.491551
-0.472297
-0.450051
-0.42439
-0.395192
-0.362734
-0.327734
-0.291285
-0.254724
-0.21944
-0.185187
-0.152201
-0.624412
-0.607862
-0.594064
-0.580936
-0.567483
-0.553675
-0.53919
-0.523502
-0.505986
-0.485977
-0.462873
-0.436259
-0.406049
-0.372575
-0.336614
-0.299311
-0.262051
-0.226136
-0.19197
-0.165786
-0.644334
-0.626665
-0.612052
-0.598241
-0.584147
-0.569721
-0.554608
-0.538239
-0.519957
-0.499072
-0.47498
-0.447293
-0.415973
-0.381418
-0.344475
-0.306343
-0.268435
-0.23199
-0.197599
-0.173267
-0.663808
-0.645074
-0.629685
-0.615217
-0.600488
-0.585426
-0.569637
-0.552512
-0.533361
-0.511482
-0.48628
-0.457408
-0.424892
-0.389209
-0.351277
-0.312344
-0.273837
-0.236943
-0.20231
-0.178052
-0.682716
-0.662974
-0.646852
-0.631755
-0.616399
-0.600683
-0.58417
-0.566213
-0.546093
-0.523105
-0.496679
-0.466524
-0.432743
-0.395901
-0.356987
-0.317291
-0.27824
-0.240964
-0.206153
-0.181372
-0.700933
-0.680244
-0.663436
-0.64774
-0.631767
-0.615379
-0.598096
-0.57923
-0.558044
-0.53384
-0.506088
-0.474565
-0.439468
-0.401452
-0.361579
-0.321171
-0.281638
-0.244048
-0.209111
-0.183643
-0.718328
-0.696759
-0.679315
-0.663053
-0.646473
-0.629395
-0.611294
-0.591446
-0.569101
-0.543583
-0.514414
-0.481458
-0.445012
-0.405828
-0.365034
-0.323976
-0.28403
-0.246202
-0.211201
-0.185057
-0.734765
-0.712386
-0.694359
-0.677565
-0.66039
-0.642606
-0.62364
-0.602739
-0.579151
-0.55223
-0.521571
-0.487135
-0.449328
-0.408999
-0.367338
-0.325701
-0.285423
-0.247438
-0.212444
-0.185709
-0.750099
-0.726987
-0.708433
-0.691144
-0.673386
-0.654878
-0.635005
-0.612984
-0.588074
-0.559677
-0.527471
-0.491528
-0.45237
-0.41094
-0.36848
-0.326347
-0.285822
-0.247765
-0.212853
-0.185638
-0.764178
-0.740416
-0.721396
-0.703649
-0.685321
-0.666076
-0.645252
-0.622051
-0.595753
-0.56582
-0.532031
-0.494576
-0.454097
-0.411627
-0.368451
-0.325913
-0.285232
-0.24719
-0.212436
-0.184854
-0.776845
-0.752523
-0.733101
-0.714936
-0.696052
-0.676055
-0.654243
-0.62981
-0.602068
-0.570558
-0.535169
-0.496221
-0.454472
-0.411042
-0.367244
-0.324399
-0.283656
-0.245718
-0.211196
-0.183358
-0.787941
-0.763154
-0.743397
-0.724854
-0.70543
-0.68467
-0.661837
-0.636128
-0.606902
-0.573792
-0.53681
-0.496408
-0.453463
-0.409167
-0.364854
-0.321807
-0.281098
-0.243353
-0.209134
-0.181141
-0.797298
-0.772149
-0.752127
-0.73325
-0.713304
-0.691773
-0.667894
-0.640877
-0.610142
-0.575428
-0.536881
-0.495089
-0.451039
-0.405988
-0.361275
-0.318136
-0.27756
-0.240094
-0.206247
-0.178199
-0.80475
-0.779349
-0.759135
-0.739969
-0.71952
-0.697216
-0.672272
-0.643927
-0.611676
-0.575378
-0.535317
-0.492219
-0.447176
-0.401493
-0.356503
-0.313386
-0.273042
-0.235942
-0.202535
-0.174523
-0.810132
-0.784592
-0.764264
-0.744856
-0.723927
-0.700851
-0.674835
-0.645156
-0.611402
-0.57356
-0.53206
-0.487762
-0.441851
-0.395672
-0.350536
-0.307557
-0.267546
-0.230898
-0.197996
-0.170109
-0.813277
-0.787721
-0.767359
-0.747757
-0.726375
-0.702537
-0.67545
-0.644447
-0.609222
-0.569899
-0.527058
-0.481685
-0.435049
-0.388519
-0.343373
-0.300651
-0.261072
-0.224962
-0.19263
-0.164954
-0.814027
-0.78858
-0.768265
-0.748522
-0.726717
-0.702134
-0.673992
-0.641693
-0.605049
-0.564332
-0.520267
-0.473963
-0.426759
-0.38003
-0.335013
-0.29267
-0.253625
-0.218136
-0.18644
-0.159058
-0.812228
-0.787021
-0.766838
-0.747008
-0.724817
-0.699513
-0.670345
-0.636796
-0.598808
-0.556803
-0.511654
-0.464579
-0.416972
-0.370206
-0.325462
-0.283618
-0.245207
-0.210424
-0.179429
-0.152423
-0.807735
-0.782903
-0.762939
-0.743078
-0.720542
-0.694555
-0.664403
-0.629668
-0.590431
-0.547268
-0.501193
-0.453522
-0.405689
-0.359051
-0.314724
-0.273501
-0.235824
-0.201833
-0.171602
-0.145056
-0.800416
-0.776096
-0.756439
-0.736608
-0.713775
-0.68715
-0.656073
-0.620237
-0.579868
-0.535697
-0.48887
-0.44079
-0.392916
-0.346573
-0.30281
-0.262329
-0.225487
-0.192369
-0.16297
-0.136963
-0.790153
-0.766482
-0.747222
-0.727484
-0.70441
-0.677205
-0.645278
-0.608444
-0.567079
-0.522068
-0.47468
-0.426388
-0.378662
-0.332787
-0.289733
-0.250115
-0.214208
-0.182046
-0.153543
-0.128159
-0.776841
-0.75396
-0.735186
-0.715608
-0.692355
-0.664641
-0.631956
-0.594245
-0.552041
-0.506376
-0.45863
-0.410331
-0.362948
-0.317711
-0.275512
-0.236877
-0.202002
-0.170877
-0.143338
-0.118654
-0.760396
-0.738443
-0.720248
-0.7009
-0.677538
-0.649398
-0.616061
-0.577614
-0.534746
-0.488627
-0.440736
-0.392643
-0.345797
-0.30137
-0.26017
-0.222635
-0.188889
-0.158884
-0.132377
-0.108445
-0.740753
-0.719866
-0.70234
-0.683296
-0.659903
-0.631432
-0.597567
-0.558543
-0.515199
-0.468841
-0.421028
-0.373355
-0.327244
-0.283796
-0.243734
-0.207415
-0.174893
-0.146091
-0.120692
-0.0975332
-0.71787
-0.698183
-0.681417
-0.662754
-0.639417
-0.610723
-0.576469
-0.537039
-0.493426
-0.447051
-0.399544
-0.352509
-0.307327
-0.265024
-0.226239
-0.191246
-0.16004
-0.132525
-0.108278
-0.0860684
-0.691727
-0.673371
-0.657456
-0.639253
-0.616067
-0.587269
-0.552778
-0.513132
-0.469465
-0.423305
-0.376335
-0.330156
-0.286094
-0.245098
-0.207723
-0.174168
-0.144374
-0.118216
-0.0951737
-0.0739902
-0.66233
-0.645431
-0.630455
-0.612797
-0.589863
-0.561091
-0.52653
-0.486867
-0.443371
-0.397664
-0.351465
-0.306355
-0.2636
-0.224066
-0.188237
-0.156221
-0.127924
-0.103196
-0.081424
-0.061325
-0.62971
-0.614389
-0.600439
-0.583412
-0.560838
-0.532233
-0.497779
-0.458309
-0.415217
-0.370203
-0.325005
-0.281175
-0.239909
-0.201994
-0.167822
-0.13745
-0.110734
-0.0875067
-0.0670647
-0.0481117
-0.593924
-0.580295
-0.567457
-0.551149
-0.52905
-0.500762
-0.4666
-0.427541
-0.385091
-0.341009
-0.297041
-0.254693
-0.215092
-0.178937
-0.146543
-0.117908
-0.092851
-0.071191
-0.0521352
-0.0343898
-0.555058
-0.543228
-0.531583
-0.516085
-0.494582
-0.466766
-0.43309
-0.394666
-0.353094
-0.310182
-0.267664
-0.226998
-0.189226
-0.154967
-0.124461
-0.0976518
-0.0743285
-0.0542968
-0.0366795
-0.0202009
-0.513224
-0.503291
-0.492919
-0.478322
-0.457538
-0.430358
-0.397368
-0.359799
-0.319343
-0.277832
-0.236983
-0.198184
-0.162398
-0.130162
-0.101646
-0.0767452
-0.0552231
-0.0368762
-0.0207453
-0.00558923
-0.468562
-0.460614
-0.451591
-0.437986
-0.41805
-0.391674
-0.359574
-0.323068
-0.283969
-0.244088
-0.20511
-0.168354
-0.1347
-0.104604
-0.0781725
-0.0552556
-0.0355968
-0.018985
-0.00438395
0.00939743
-0.421239
-0.415353
-0.40775
-0.395232
-0.376269
-0.350863
-0.319834
-0.28465
-0.24712
-0.209082
-0.172168
-0.13762
-0.106232
-0.0783846
-0.0541221
-0.0332566
-0.0155159
-0.000683305
0.0123492
0.0247079
-0.371449
-0.367685
-0.361576
-0.350236
-0.332363
-0.308094
-0.278353
-0.24469
-0.208949
-0.172959
-0.138289
-0.1061
-0.0771016
-0.0515982
-0.0295807
-0.0108264
0.00494841
0.017965
0.0293953
0.0402867
-0.319391
-0.31782
-0.313268
-0.303179
-0.286546
-0.263573
-0.235308
-0.203371
-0.169627
-0.135873
-0.103613
-0.0739196
-0.0474195
-0.0243461
-0.00463985
0.0119518
0.0257204
0.036892
0.0466913
0.056072
-0.265237
-0.266059
-0.26304
-0.254295
-0.23902
-0.217505
-0.1909
-0.160886
-0.12933
-0.0979876
-0.0682854
-0.0412101
-0.017304
0.00326588
0.0206046
0.0349903
0.0467198
0.0560251
0.0641681
0.0719938
-0.209438
-0.212509
-0.211142
-0.203825
-0.190021
-0.170116
-0.145347
-0.117437
-0.0882455
-0.0594716
-0.0324599
-0.00810789
0.0131229
0.0311276
0.0460528
0.0581975
0.0678622
0.0752877
0.0817525
0.0879737
-0.152154
-0.157516
-0.157844
-0.152023
-0.139799
-0.121647
-0.0988758
-0.0732388
-0.0465689
-0.0205016
0.003706
0.0252461
0.0437351
0.0591258
0.071602
0.081479
0.0890608
0.094608
0.0993823
0.103915
-0.0936852
-0.101369
-0.103421
-0.099161
-0.0886188
-0.0723514
-0.0517259
-0.0285107
-0.0045012
0.0187412
0.0400502
0.0587074
0.0744032
0.0871442
0.0971465
0.104737
0.110229
0.113931
0.11702
0.119663
-0.0343544
-0.0443696
-0.0481674
-0.045526
-0.0367575
-0.0224923
-0.0041436
0.0165195
0.037751
0.0580712
0.0764072
0.0921285
0.104996
0.115065
0.122578
0.12787
0.131278
0.133185
0.134529
0.135006
0.0255077
0.0131681
0.00760878
0.00858324
0.0154981
0.0276584
0.0436176
0.0616192
0.0799773
0.0972998
0.112609
0.12536
0.13538
0.142769
0.14779
0.150779
0.152109
0.152203
0.151393
0.149546
0.0855619
0.0709164
0.0635894
0.0628586
0.0678533
0.0778227
0.0912997
0.106552
0.121965
0.136237
0.148487
0.158252
0.165423
0.170138
0.172677
0.173378
0.172645
0.170817
0.167061
0.162599
0.145461
0.12854
0.119448
0.116985
0.120008
0.127718
0.138641
0.151081
0.163499
0.174691
0.18387
0.190654
0.194991
0.197054
0.197139
0.195587
0.192822
0.18914
0.183492
0.177988
0.204852
0.185698
0.174855
0.170644
0.171657
0.177061
0.185381
0.194968
0.204366
0.212471
0.218589
0.222415
0.22395
0.223398
0.221068
0.217305
0.212534
0.207007
0.199754
0.193245
0.263381
0.242047
0.229475
0.223513
0.222498
0.225565
0.231256
0.237974
0.244354
0.249389
0.252477
0.253386
0.252166
0.24905
0.244357
0.238435
0.231697
0.224357
0.215573
0.207961
0.320693
0.297244
0.282976
0.275273
0.272225
0.27295
0.276008
0.279867
0.283253
0.285257
0.285367
0.283419
0.279509
0.273894
0.266902
0.25888
0.250228
0.241132
0.230875
0.222064
0.376437
0.350948
0.335028
0.325607
0.320541
0.318936
0.319383
0.320417
0.320857
0.319892
0.317097
0.312371
0.30585
0.297815
0.288598
0.278547
0.268042
0.257255
0.245584
0.235524
0.430267
0.402823
0.385305
0.374203
0.367152
0.363253
0.361133
0.3594
0.356966
0.353118
0.34751
0.340101
0.331066
0.320702
0.309348
0.297346
0.285062
0.272653
0.259627
0.248309
0.481848
0.452544
0.433491
0.420758
0.411772
0.405635
0.401018
0.3966
0.391389
0.384763
0.376453
0.366474
0.355035
0.342448
0.329055
0.315193
0.301211
0.287257
0.272939
0.260376
0.530854
0.499795
0.47928
0.46498
0.454127
0.445831
0.438806
0.43181
0.423939
0.414662
0.403781
0.391361
0.377643
0.36295
0.347628
0.332007
0.316418
0.301005
0.285463
0.271686
0.576973
0.544273
0.52238
0.506589
0.493955
0.483597
0.474279
0.464832
0.454442
0.44266
0.429355
0.41464
0.39878
0.382112
0.36498
0.34771
0.330616
0.313836
0.297146
0.282204
0.619912
0.585691
0.562514
0.545322
0.531008
0.518706
0.507229
0.49548
0.482731
0.468609
0.453045
0.436194
0.418345
0.399842
0.381032
0.362231
0.343739
0.325695
0.307939
0.291896
0.659395
0.623783
0.599421
0.580931
0.565055
0.550946
0.537464
0.523584
0.508654
0.492373
0.47473
0.455916
0.43624
0.416055
0.395705
0.375503
0.35573
0.336528
0.317797
0.300727
0.695167
0.658299
0.632864
0.613187
0.595883
0.58012
0.564806
0.548982
0.532067
0.513828
0.494299
0.473707
0.452379
0.430673
0.408933
0.387463
0.366534
0.346287
0.326675
0.308665
0.726995
0.689016
0.662622
0.641884
0.623297
0.60605
0.589095
0.571531
0.552845
0.532857
0.51165
0.489478
0.466681
0.443625
0.42065
0.398056
0.3761
0.354928
0.334535
0.315682
0.754674
0.71573
0.688503
0.666835
0.647126
0.628579
0.610188
0.591104
0.570871
0.549362
0.526694
0.503147
0.479076
0.454847
0.430801
0.407232
0.384385
0.362411
0.341341
0.32175
0.778022
0.738267
0.710336
0.687881
0.667218
0.647568
0.627959
0.607588
0.586048
0.563253
0.539353
0.514647
0.489501
0.464284
0.439336
0.414946
0.39135
0.368702
0.347063
0.326845
0.796886
0.756478
0.727977
0.704883
0.683446
0.662901
0.642304
0.62089
0.598291
0.574456
0.54956
0.523919
0.497905
0.471891
0.446216
0.421163
0.396963
0.373771
0.351673
0.330946
0.811145
0.770243
0.741311
0.717733
0.695709
0.674484
0.653138
0.630934
0.607534
0.582911
0.557263
0.530914
0.504245
0.47763
0.451405
0.425852
0.401195
0.377593
0.355149
0.334037
0.820702
0.77947
0.75025
0.726346
0.703927
0.682246
0.660396
0.637662
0.613724
0.588574
0.56242
0.535598
0.50849
0.481471
0.454878
0.42899
0.404029
0.380152
0.357476
0.336105
0.537946
0.510617
0.483397
0.456619
0.430563
0.405448
0.381435
0.358643
0.337141
-0.0688444
-0.0789857
-0.0891912
-0.0992788
-0.0886308
-0.109079
-0.0978531
-0.0836049
-0.118449
-0.106706
-0.0919227
-0.127261
-0.115051
-0.0998979
-0.0879048
-0.13531
-0.122646
-0.107285
-0.0951338
-0.142678
-0.12959
-0.114199
-0.102049
-0.0911825
-0.150777
-0.137032
-0.121703
-0.109642
-0.098664
-0.0883399
-0.155982
-0.140142
-0.125431
-0.113753
-0.102986
-0.0929085
-0.139972
-0.130114
-0.11773
-0.106225
-0.0954858
-0.0855154
-0.0763725
-0.133601
-0.12495
-0.113967
-0.103395
-0.0934482
-0.0841048
-0.0754437
-0.129356
-0.120907
-0.110735
-0.10106
-0.0919067
-0.0832153
-0.0750792
-0.124918
-0.116882
-0.10732
-0.098377
-0.0898914
-0.0817723
-0.0741191
-0.120458
-0.1129
-0.10389
-0.0955938
-0.0877137
-0.0801264
-0.0729317
-0.115968
-0.108948
-0.100483
-0.0927855
-0.0854739
-0.0783944
-0.0716435
-0.111418
-0.104985
-0.0970679
-0.0899319
-0.0831566
-0.0765623
-0.0702406
-0.106838
-0.100999
-0.0936288
-0.087025
-0.0807573
-0.0746269
-0.0687194
-0.102256
-0.0969956
-0.090166
-0.0840689
-0.0782829
-0.0725964
-0.0670884
-0.0976923
-0.0929852
-0.0866843
-0.0810699
-0.0757413
-0.0704795
-0.0653566
-0.0931662
-0.0889803
-0.0831909
-0.0780354
-0.0731409
-0.0682849
-0.0635325
-0.0886931
-0.0849932
-0.0796939
-0.0749736
-0.0704905
-0.0660215
-0.0616249
-0.0842852
-0.0810353
-0.0762021
-0.0718933
-0.0677992
-0.0636985
-0.0596429
-0.0799523
-0.0771169
-0.0727242
-0.0688034
-0.0650762
-0.0613253
-0.0575954
-0.075702
-0.0732469
-0.0692685
-0.0657122
-0.0623306
-0.0589109
-0.0554917
-0.0715404
-0.0694332
-0.0658428
-0.0626282
-0.059571
-0.0564643
-0.0533405
-0.0674724
-0.0656824
-0.0624541
-0.0595592
-0.056806
-0.0539942
-0.0511505
-0.0635019
-0.0620003
-0.0591092
-0.0565123
-0.0540433
-0.0515088
-0.0489303
-0.0596319
-0.058392
-0.0558138
-0.0534945
-0.0512907
-0.0490163
-0.0466879
-0.0558649
-0.0548619
-0.0525736
-0.0505121
-0.048555
-0.046524
-0.0444311
-0.052203
-0.0514135
-0.0493932
-0.0475708
-0.0458429
-0.0440391
-0.0421673
-0.0486475
-0.0480501
-0.0462771
-0.0446759
-0.0431604
-0.0415682
-0.0399035
-0.0451997
-0.0447745
-0.0432292
-0.0418322
-0.0405132
-0.0391175
-0.0376464
-0.0418603
-0.0415888
-0.0402527
-0.0390441
-0.0379062
-0.0366928
-0.0354021
-0.0386298
-0.0384949
-0.0373507
-0.0363152
-0.0353441
-0.0342992
-0.0331763
-0.0355081
-0.0354941
-0.0345255
-0.0336489
-0.0328311
-0.0319416
-0.0309742
-0.032495
-0.0325875
-0.0317791
-0.0310482
-0.0303707
-0.0296243
-0.0288008
-0.0295899
-0.0297757
-0.0291133
-0.0285154
-0.0279662
-0.0273511
-0.0266604
-0.026792
-0.027059
-0.0265293
-0.0260525
-0.0256203
-0.0251254
-0.0245569
-0.0241
-0.0244373
-0.0240277
-0.0236612
-0.0233354
-0.0229502
-0.022494
-0.0215127
-0.0219102
-0.0216093
-0.0213427
-0.0211134
-0.0208281
-0.0204746
-0.0190283
-0.0194771
-0.0192742
-0.019098
-0.0189559
-0.0187614
-0.0185016
-0.0166451
-0.0171372
-0.0170222
-0.0169276
-0.0168641
-0.0167518
-0.0165774
-0.0143612
-0.0148892
-0.014853
-0.0148317
-0.014839
-0.0148008
-0.0147039
-0.0121744
-0.0127318
-0.012766
-0.0128105
-0.0128811
-0.0129096
-0.0128828
-0.0100824
-0.0106635
-0.0107603
-0.0108636
-0.0109908
-0.0110791
-0.0111155
-0.00808314
-0.00868276
-0.00883505
-0.00899063
-0.00916814
-0.00930992
-0.00940317
-0.0061741
-0.00678771
-0.00698899
-0.00719097
-0.00741305
-0.0076024
-0.00774656
-0.00435292
-0.00497651
-0.00522085
-0.0054638
-0.00572518
-0.00595669
-0.00614627
-0.00261715
-0.00324722
-0.00352921
-0.00380817
-0.00410404
-0.00437274
-0.00460267
-0.000964347
-0.00159784
-0.00191257
-0.00222301
-0.00254897
-0.0028503
-0.00311593
0.000607931
-2.63238e-05
-0.000369336
-0.000707142
-0.00105919
-0.001389
-0.00168605
0.00210213
0.0014694
0.00110213
0.000740703
0.000366204
1.17009e-05
-0.00031284
0.00352066
0.00289143
0.00250353
0.00212187
0.00172821
0.00135246
0.001004
0.00486592
0.00424184
0.00383658
0.00343774
0.0030279
0.00263402
0.00226491
0.00614026
0.00552273
0.00510303
0.00468977
0.00426642
0.00385723
0.00347042
0.00734598
0.00673615
0.00630462
0.00587943
0.00544496
0.005023
0.00462117
0.00848532
0.00788414
0.00744311
0.00700819
0.00656476
0.0061323
0.00571787
0.0095605
0.00896869
0.00852024
0.00807756
0.00762707
0.00718615
0.00676129
0.0105736
0.00999177
0.0095377
0.00908901
0.00863316
0.00818558
0.00775223
0.0115268
0.0109553
0.0104972
0.010044
0.0095843
0.00913166
0.00869154
0.0124219
0.011861
0.0114003
0.010944
0.0104817
0.0100254
0.00958009
0.0132609
0.0127108
0.0122487
0.0117905
0.0113267
0.010868
0.0104187
0.0140457
0.0135064
0.0130438
0.0125847
0.0121204
0.0116603
0.0112084
0.0147778
0.0142493
0.0137871
0.0133279
0.012864
0.0124034
0.0119498
0.0154591
0.014941
0.0144801
0.0140215
0.0135586
0.0130983
0.0126438
0.0160908
0.0155831
0.0151239
0.0146666
0.0142052
0.0137459
0.0132912
0.0166746
0.0161768
0.0157198
0.0152642
0.0148048
0.0143469
0.0138927
0.0172115
0.0167233
0.0162688
0.0158152
0.0153583
0.0149021
0.0144489
0.0177028
0.0172236
0.0167719
0.0163207
0.0158662
0.0154122
0.0149603
0.0181493
0.0176787
0.0172299
0.0167811
0.0163294
0.0158776
0.0154273
0.0185519
0.0180893
0.0176435
0.0171972
0.0167481
0.0162987
0.0158502
0.0189112
0.0184559
0.0180129
0.0175692
0.0171228
0.0166757
0.016229
0.0192276
0.0187789
0.0183386
0.0178973
0.0174535
0.0170087
0.0165638
0.0195011
0.0190582
0.0186206
0.0181815
0.01774
0.0172974
0.0168542
0.0197317
0.0192938
0.0188584
0.0184213
0.017982
0.0175413
0.0170997
0.0199188
0.019485
0.0190516
0.0186162
0.0181787
0.0177396
0.0172994
0.0200619
0.0196313
0.0191993
0.0187653
0.0183291
0.0178913
0.0174522
0.0201588
0.0197305
0.0192996
0.0188665
0.0184314
0.0179946
0.0175562
0.0202102
0.0197826
0.019352
0.0189192
0.0184844
0.0180479
0.0176099
-0.112914
-0.120432
-0.12726
-0.133385
-0.138796
-0.143484
-0.147445
-0.150674
-0.153172
-0.15494
-0.155985
-0.156317
-0.155954
-0.154919
-0.153248
-0.150992
-0.148228
-0.145074
-0.141373
-0.140415
-0.104903
-0.111948
-0.118351
-0.124099
-0.129184
-0.133599
-0.13734
-0.140406
-0.1428
-0.144527
-0.145597
-0.146028
-0.145845
-0.145084
-0.143798
-0.14207
-0.140025
-0.137911
-0.135552
-0.137438
-0.0973803
-0.104069
-0.110182
-0.115708
-0.120641
-0.124977
-0.128713
-0.13185
-0.134391
-0.136343
-0.137715
-0.138525
-0.138794
-0.138556
-0.137856
-0.13676
-0.135366
-0.133878
-0.131808
-0.133517
-0.0902755
-0.096625
-0.102455
-0.107759
-0.112531
-0.116768
-0.120467
-0.123628
-0.126255
-0.128352
-0.129926
-0.130992
-0.131565
-0.13167
-0.131341
-0.130623
-0.129576
-0.12836
-0.126352
-0.127738
-0.0835619
-0.0895833
-0.0951348
-0.10021
-0.104805
-0.108917
-0.112542
-0.115682
-0.118337
-0.120512
-0.122212
-0.123447
-0.12423
-0.124581
-0.124526
-0.124099
-0.123346
-0.122422
-0.120713
-0.121974
-0.0772182
-0.0829307
-0.0882176
-0.0930738
-0.0974955
-0.10148
-0.105026
-0.108132
-0.110801
-0.113035
-0.114838
-0.11622
-0.11719
-0.117765
-0.117967
-0.117824
-0.117375
-0.11676
-0.115396
-0.116468
-0.0712218
-0.0766451
-0.0816829
-0.086331
-0.0905866
-0.0944474
-0.0979123
-0.100981
-0.103654
-0.105934
-0.107826
-0.109335
-0.11047
-0.111245
-0.111677
-0.111789
-0.111609
-0.111253
-0.110191
-0.11108
-0.0655512
-0.0707027
-0.0755049
-0.0799548
-0.0840499
-0.0877886
-0.0911698
-0.0941932
-0.0968596
-0.0991708
-0.10113
-0.102743
-0.104016
-0.104959
-0.105586
-0.105914
-0.105963
-0.105828
-0.105047
-0.105825
-0.0601874
-0.0650822
-0.0696609
-0.0739213
-0.0778613
-0.0814792
-0.0847741
-0.0877458
-0.0903948
-0.0927227
-0.0947319
-0.0964264
-0.0978117
-0.0988954
-0.099688
-0.100202
-0.100453
-0.100518
-0.100004
-0.100727
-0.0551075
-0.0597617
-0.0641296
-0.0682095
-0.0719997
-0.0754987
-0.0787058
-0.0816207
-0.0842439
-0.0865764
-0.0886202
-0.0903784
-0.0918554
-0.0930569
-0.093991
-0.0946672
-0.0950981
-0.0953427
-0.0950704
-0.0957774
-0.0502948
-0.054723
-0.058892
-0.0628001
-0.0664459
-0.0698284
-0.0729467
-0.0758009
-0.0783911
-0.0807182
-0.0827838
-0.0845902
-0.0861408
-0.0874401
-0.0884942
-0.0893101
-0.089898
-0.090303
-0.0902453
-0.0909667
-0.0457337
-0.0499499
-0.0539307
-0.057675
-0.0611818
-0.0644501
-0.0674795
-0.0702698
-0.0728212
-0.0751343
-0.0772104
-0.0790513
-0.0806595
-0.0820386
-0.0831931
-0.0841283
-0.0848523
-0.0853995
-0.0855324
-0.0862889
-0.0414106
-0.045427
-0.0492297
-0.0528178
-0.0561906
-0.0593475
-0.0622879
-0.0650119
-0.0675195
-0.0698113
-0.0718882
-0.0737516
-0.0754034
-0.0768463
-0.0780839
-0.07912
-0.0799615
-0.0806341
-0.0809349
-0.0817385
-0.0373124
-0.0411403
-0.0447742
-0.0482133
-0.0514571
-0.0545051
-0.0573571
-0.0600129
-0.0624728
-0.064737
-0.0668062
-0.0686817
-0.0703647
-0.0718575
-0.0731628
-0.0742833
-0.075225
-0.0760072
-0.0764547
-0.0773108
-0.0334271
-0.037077
-0.0405505
-0.0438473
-0.0469668
-0.0499088
-0.0526731
-0.0552595
-0.0576682
-0.0598995
-0.061954
-0.0638324
-0.065536
-0.0670663
-0.0684255
-0.0696155
-0.0706418
-0.0715184
-0.0720932
-0.0730024
-0.0297432
-0.0332248
-0.0365462
-0.0397069
-0.0427068
-0.0455455
-0.048223
-0.0507391
-0.0530941
-0.0552881
-0.0573216
-0.0591952
-0.0609098
-0.0624667
-0.0638675
-0.0651137
-0.0662101
-0.0671672
-0.0678514
-0.0688111
-0.0262501
-0.0295726
-0.0327493
-0.03578
-0.0386646
-0.0414029
-0.0439947
-0.0464402
-0.0487393
-0.0508924
-0.0528996
-0.0547616
-0.056479
-0.0580529
-0.0594844
-0.0607748
-0.0619283
-0.0629527
-0.0637301
-0.0647353
-0.0229379
-0.0261097
-0.0291488
-0.0320553
-0.0348288
-0.0374695
-0.0399771
-0.0423517
-0.0445935
-0.0467025
-0.0486791
-0.0505236
-0.0522366
-0.053819
-0.0552716
-0.0565954
-0.0577944
-0.058874
-0.0597296
-0.0607744
-0.0197972
-0.0228262
-0.0257345
-0.0285221
-0.0311888
-0.0337346
-0.0361595
-0.0384635
-0.0406467
-0.0427093
-0.0446515
-0.0464735
-0.0481759
-0.0497594
-0.0512246
-0.0525723
-0.0538061
-0.05493
-0.0558502
-0.0569279
-0.0168191
-0.0197128
-0.0224967
-0.0251705
-0.0277344
-0.0301882
-0.032532
-0.0347659
-0.0368898
-0.038904
-0.0408087
-0.042604
-0.0442905
-0.0458685
-0.0473389
-0.0487019
-0.0499611
-0.0511193
-0.0520919
-0.0531958
-0.0139954
-0.0167609
-0.0194262
-0.0219913
-0.0244561
-0.0268208
-0.0290853
-0.0312496
-0.033314
-0.0352783
-0.0371429
-0.038908
-0.0405739
-0.042141
-0.0436098
-0.0449808
-0.046257
-0.0474404
-0.0484545
-0.0495781
-0.0113184
-0.0139621
-0.0165145
-0.0189755
-0.0213452
-0.0236235
-0.0258105
-0.0279062
-0.0299108
-0.0318243
-0.0336469
-0.0353787
-0.0370201
-0.0385714
-0.0400331
-0.0414054
-0.0426913
-0.0438919
-0.0449376
-0.0460748
-0.0087806
-0.0113088
-0.0137536
-0.0161151
-0.0183932
-0.0205879
-0.0226993
-0.0247275
-0.0266725
-0.0285344
-0.0303134
-0.0320095
-0.0336232
-0.0351546
-0.0366042
-0.0379722
-0.0392611
-0.0404718
-0.0415406
-0.0426857
-0.00637512
-0.00879361
-0.0111359
-0.0134021
-0.0155921
-0.0177061
-0.0197439
-0.0217057
-0.0235915
-0.0254014
-0.0271356
-0.0287942
-0.0303774
-0.0318855
-0.0333187
-0.0346774
-0.0359638
-0.0371783
-0.0382626
-0.0394105
-0.00409544
-0.00640967
-0.00865428
-0.0108293
-0.0129347
-0.0149705
-0.0169367
-0.0188334
-0.0206607
-0.0224186
-0.0241072
-0.0257267
-0.0272772
-0.028759
-0.0301724
-0.0315174
-0.0327964
-0.0340093
-0.0351023
-0.0362487
-0.00193538
-0.0041505
-0.00630194
-0.00838969
-0.0104137
-0.0123741
-0.0142708
-0.0161039
-0.0178733
-0.0195793
-0.0212218
-0.0228011
-0.0243172
-0.0257703
-0.0271607
-0.0284885
-0.0297559
-0.0309624
-0.0320585
-0.0331992
0.000110898
-0.00200998
-0.00407256
-0.00607681
-0.00802271
-0.00991026
-0.0117395
-0.0135103
-0.0152229
-0.0168773
-0.0184735
-0.0200117
-0.021492
-0.0229146
-0.0242795
-0.0255871
-0.0268392
-0.0280352
-0.0291294
-0.0302611
0.00204889
1.76592e-05
-0.00196013
-0.00388446
-0.00575529
-0.00757259
-0.00933636
-0.0110466
-0.0127034
-0.0143067
-0.0158566
-0.0173532
-0.0187967
-0.0201871
-0.0215246
-0.0228094
-0.0240432
-0.0252252
-0.0263133
-0.027433
0.0038838
0.00193789
4.09978e-05
-0.00180684
-0.00360556
-0.00535513
-0.00705553
-0.00870675
-0.0103088
-0.0118617
-0.0133656
-0.0148204
-0.0162263
-0.0175834
-0.0188918
-0.0201517
-0.0213647
-0.0225298
-0.023608
-0.0247132
0.00562055
0.00375587
0.00193619
0.000161573
-0.00156792
-0.00325222
-0.00489129
-0.00648511
-0.00803368
-0.00953701
-0.0109951
-0.0124081
-0.013776
-0.015099
-0.016377
-0.0176103
-0.0188005
-0.0199462
-0.0210116
-0.0220998
0.00726381
0.00547649
0.00373052
0.00202598
0.000362952
-0.00125847
-0.00283825
-0.00437632
-0.00587269
-0.00732734
-0.0087403
-0.0101116
-0.0114413
-0.0127295
-0.0139763
-0.0151817
-0.0163472
-0.0174716
-0.0185215
-0.019591
0.00881799
0.00710435
0.00542877
0.00379131
0.00219208
0.000631185
-0.000891292
-0.0023753
-0.0038208
-0.00522778
-0.00659624
-0.00792619
-0.00921769
-0.0104708
-0.0116856
-0.0128621
-0.0140017
-0.0151031
-0.0161354
-0.0171846
0.0102873
0.00864386
0.00703548
0.00546223
0.00392422
0.00242159
0.000954428
-0.000477189
-0.00187321
-0.00323359
-0.00455832
-0.0058474
-0.00710086
-0.00831875
-0.0095011
-0.010648
-0.0117607
-0.0128378
-0.0138508
-0.0148784
0.0116756
0.0100992
0.00855498
0.00704319
0.00556392
0.00411733
0.00270353
0.00132263
-2.53163e-05
-0.00134024
-0.00262211
-0.00387092
-0.00508667
-0.00626941
-0.00741913
-0.00853591
-0.00962092
-0.0106727
-0.011665
-0.0126699
0.0129868
0.0114742
0.00999137
0.0085384
0.00711547
0.00572276
0.00436041
0.00302854
0.00172724
0.000456583
-0.000783377
-0.00199261
-0.00317112
-0.00431891
-0.00543597
-0.00652239
-0.00757921
-0.00860495
-0.0095755
-0.0105568
0.0142246
0.0127728
0.0113486
0.00995189
0.00858296
0.00724202
0.00592923
0.00464473
0.00338863
0.00216101
0.000961955
-0.000208499
-0.00135033
-0.00246352
-0.00354807
-0.00460403
-0.00563237
-0.00663158
-0.00757952
-0.00853666
0.0153926
0.0139988
0.0126304
0.0112875
0.00997028
0.00867905
0.00741396
0.00617517
0.00496281
0.00377699
0.00261778
0.00148524
0.000379426
-0.000699654
-0.00175196
-0.00277755
-0.0037773
-0.0047497
-0.00567442
-0.00660696
0.0164949
0.0151558
0.0138404
0.0125487
0.011281
0.0100375
0.00881834
0.00762365
0.00645359
0.00530828
0.00418782
0.00309228
0.00202173
0.000976193
-4.42767e-05
-0.00103972
-0.00201093
-0.00295641
-0.00385754
-0.00476523
0.0175326
0.0162462
0.0149814
0.0137388
0.0125187
0.011321
0.0101459
0.00899375
0.00786456
0.00675849
0.00567565
0.00461614
0.00358004
0.00256739
0.00157826
0.000612613
-0.000330263
-0.00124887
-0.0021262
-0.00300894
0.0185083