/*--------------------------------*- C++ -*----------------------------------*\
  =========                 |
  \\      /  F ield         | OpenFOAM: The Open Source CFD Toolbox
   \\    /   O peration     | Website:  https://openfoam.org
    \\  /    A nd           | Version:  7
     \\/     M anipulation  |
\*---------------------------------------------------------------------------*/
FoamFile
{
    version     2.0;
    format      ascii;
    class       volScalarField;
    location    "14";
    object      p;
}
// * * * * * * * * * * * * * * * * * * * * * * * * * * * * * * * * * * * * * //

dimensions      [0 2 -2 0 0 0 0];

internalField   nonuniform List<scalar> 
435
(
-0.0997213
-0.101658
-0.103442
-0.10469
-0.105347
-0.105469
-0.105083
-0.104198
-0.102826
-0.10099
-0.0987183
-0.0960442
-0.093004
-0.0896377
-0.0859872
-0.0820975
-0.0780139
-0.0841844
-0.0878106
-0.0898529
-0.0919743
-0.0939725
-0.0954952
-0.0964821
-0.0969764
-0.0969997
-0.0965549
-0.095649
-0.0942983
-0.092525
-0.0903556
-0.0878204
-0.0849533
-0.0817919
-0.0783747
-0.074743
-0.0749614
-0.0785311
-0.0807018
-0.0829474
-0.0850956
-0.0868271
-0.0880783
-0.0888814
-0.089252
-0.0891886
-0.0886931
-0.0877758
-0.086453
-0.0847452
-0.0826768
-0.0802761
-0.077575
-0.0746069
-0.0714087
-0.0665213
-0.0699966
-0.0722444
-0.0745641
-0.0768094
-0.0786933
-0.0801509
-0.0812052
-0.0818662
-0.0821289
-0.0819907
-0.0814565
-0.0805372
-0.0792478
-0.0776072
-0.0756381
-0.0733667
-0.0708226
-0.0680369
-0.0588109
-0.0621663
-0.0644503
-0.0668039
-0.0691033
-0.071092
-0.0727059
-0.0739601
-0.0748602
-0.075398
-0.0755671
-0.0753681
-0.0748069
-0.0738934
-0.0726415
-0.0710687
-0.0691962
-0.0670486
-0.0646523
-0.0517784
-0.0549975
-0.0572861
-0.0596421
-0.0619611
-0.0640152
-0.0657425
-0.0671518
-0.068245
-0.0690114
-0.0694417
-0.0695328
-0.0692863
-0.0687077
-0.0678061
-0.0665943
-0.0650889
-0.0633094
-0.0612782
-0.0453744
-0.0484479
-0.0507172
-0.0530514
-0.0553627
-0.0574501
-0.0592546
-0.0607804
-0.0620261
-0.0629795
-0.0636291
-0.0639685
-0.0639959
-0.0637127
-0.0631242
-0.0622388
-0.0610686
-0.0596287
-0.0579371
-0.0395527
-0.0424764
-0.0447089
-0.0470031
-0.0492858
-0.0513808
-0.0532326
-0.0548419
-0.056205
-0.0573086
-0.0581395
-0.058689
-0.0589522
-0.0589275
-0.0586164
-0.0580236
-0.0571571
-0.0560279
-0.0546502
-0.0342707
-0.0370441
-0.0392274
-0.0414687
-0.0437071
-0.0457893
-0.0476641
-0.0493294
-0.0507797
-0.0520012
-0.0529797
-0.0537046
-0.0541688
-0.054368
-0.0543006
-0.053968
-0.0533745
-0.0525276
-0.0514375
-0.0294891
-0.0321147
-0.0342404
-0.0364198
-0.0386026
-0.0406565
-0.0425348
-0.0442333
-0.0457455
-0.0470571
-0.0481535
-0.049023
-0.0496565
-0.0500477
-0.0501924
-0.0500892
-0.0497393
-0.0491469
-0.0483186
-0.0251719
-0.0276543
-0.0297173
-0.0318292
-0.0339488
-0.0359629
-0.0378296
-0.039543
-0.0410958
-0.0424739
-0.0436626
-0.0446492
-0.0454237
-0.0459778
-0.0463054
-0.0464027
-0.0462683
-0.0459034
-0.0453116
-0.0212862
-0.0236318
-0.0256295
-0.027671
-0.0297229
-0.0316893
-0.0335327
-0.0352465
-0.0368227
-0.0382476
-0.0395065
-0.0405866
-0.0414767
-0.0421676
-0.0426514
-0.0429224
-0.0429771
-0.0428139
-0.042434
-0.0178026
-0.0200189
-0.0219507
-0.0239212
-0.0259034
-0.0278169
-0.0296289
-0.0313319
-0.0329177
-0.0343731
-0.0356837
-0.0368367
-0.0378205
-0.0386248
-0.0392406
-0.0396608
-0.0398798
-0.0398941
-0.0397024
-0.0146944
-0.01679
-0.018657
-0.0205576
-0.0224702
-0.0243283
-0.0261033
-0.0277874
-0.0293721
-0.0308448
-0.0321919
-0.0334005
-0.0344588
-0.035356
-0.0360822
-0.0366291
-0.0369896
-0.0371586
-0.0371326
-0.0119385
-0.0139225
-0.0157272
-0.0175606
-0.0194054
-0.0212075
-0.0229423
-0.0246019
-0.0261776
-0.0276575
-0.0290286
-0.0302784
-0.0313949
-0.032367
-0.0331845
-0.0338379
-0.0343192
-0.0346216
-0.0347401
-0.00951466
-0.011397
-0.0131429
-0.0149129
-0.0166932
-0.0184406
-0.0201342
-0.0217658
-0.023327
-0.0248065
-0.0261918
-0.0274708
-0.0286319
-0.0296637
-0.0305556
-0.0312975
-0.0318805
-0.0322969
-0.03254
-0.00740617
-0.00919717
-0.0108887
-0.0126003
-0.0143207
-0.0160163
-0.0176692
-0.0192715
-0.0208148
-0.0222882
-0.0236803
-0.0249792
-0.0261735
-0.027252
-0.0282037
-0.0290182
-0.0296859
-0.0301981
-0.0305473
-0.00559981
-0.00731037
-0.00895291
-0.0106118
-0.0122781
-0.0139258
-0.0155403
-0.0171136
-0.0186374
-0.0201015
-0.0214949
-0.0228064
-0.0240248
-0.025139
-0.0261379
-0.027011
-0.027748
-0.0283397
-0.0287777
-0.00408626
-0.00572778
-0.00732735
-0.0089402
-0.010559
-0.0121642
-0.0137438
-0.01529
-0.0167944
-0.0182474
-0.0196387
-0.0209575
-0.0221928
-0.0233336
-0.0243691
-0.0252883
-0.0260809
-0.0267371
-0.0272476
-0.00286097
-0.00444533
-0.00600875
-0.00758301
-0.0091618
-0.010731
-0.0122805
-0.0138026
-0.0152892
-0.0167311
-0.0181184
-0.0194406
-0.0206872
-0.0218474
-0.0229102
-0.0238647
-0.0247005
-0.0254072
-0.0259753
-0.00192313
-0.00346322
-0.00499819
-0.00654221
-0.00808963
-0.00963027
-0.0111556
-0.0126582
-0.0141299
-0.0155619
-0.0169447
-0.0182681
-0.0195219
-0.0206954
-0.0217777
-0.022758
-0.0236255
-0.0243699
-0.0249811
-0.00128217
-0.00279096
-0.00430569
-0.00582837
-0.00735366
-0.00887405
-0.0103822
-0.0118706
-0.0133313
-0.0147558
-0.0161347
-0.0174582
-0.0187161
-0.0198979
-0.0209928
-0.02199
-0.0228787
-0.0236483
-0.0242886
-0.000945508
-0.0024392
-0.00394383
-0.00545579
-0.0069699
-0.00847997
-0.00997921
-0.0114603
-0.0129153
-0.0143357
-0.0157124
-0.0170357
-0.0182955
-0.0194815
-0.0205827
-0.0215885
-0.0224879
-0.0232704
-0.0239256
)
;

boundaryField
{
    inlet
    {
        type            zeroGradient;
    }
    outlet
    {
        type            fixedValue;
        value           nonuniform 0();
    }
    cylinder
    {
        type            zeroGradient;
    }
    top
    {
        type            symmetryPlane;
    }
    bottom
    {
        type            symmetryPlane;
    }
    defaultFaces
    {
        type            empty;
    }
    procBoundary34to28
    {
        type            processor;
        value           nonuniform List<scalar> 
20
(
-0.11032
-0.111999
-0.113495
-0.114392
-0.114647
-0.114327
-0.113467
-0.112079
-0.110183
-0.107809
-0.104991
-0.10177
-0.098189
-0.0942918
-0.0901272
-0.0857449
-0.0811942
-0.0942412
-0.0978698
-0.0978698
)
;
    }
    procBoundary34to29
    {
        type            processor;
        value           nonuniform List<scalar> 3(-0.0737813 -0.0709382 -0.0680176);
    }
    procBoundary34to33
    {
        type            processor;
        value           nonuniform List<scalar> 
22
(
-0.0777316
-0.0690064
-0.0610509
-0.0538019
-0.0472034
-0.0412048
-0.0357603
-0.0308279
-0.0263692
-0.022349
-0.0187355
-0.0154996
-0.0126155
-0.0100606
-0.00781515
-0.00586294
-0.00419099
-0.00279011
-0.00165587
-0.000786698
-0.000192684
0.000123558
)
;
    }
    procBoundary34to35
    {
        type            processor;
        value           nonuniform List<scalar> 
20
(
-0.0650429
-0.0620364
-0.0590199
-0.0560144
-0.0530402
-0.050117
-0.0472639
-0.0444991
-0.0418405
-0.0393054
-0.0369102
-0.0346713
-0.032605
-0.0307272
-0.0290545
-0.0276044
-0.0263959
-0.0254499
-0.02479
-0.0244439
)
;
    }
}


// ************************************************************************* //
