/*--------------------------------*- C++ -*----------------------------------*\
  =========                 |
  \\      /  F ield         | OpenFOAM: The Open Source CFD Toolbox
   \\    /   O peration     | Website:  https://openfoam.org
    \\  /    A nd           | Version:  7
     \\/     M anipulation  |
\*---------------------------------------------------------------------------*/
FoamFile
{
    version     2.0;
    format      ascii;
    class       volScalarField;
    location    "2";
    object      p;
}
// * * * * * * * * * * * * * * * * * * * * * * * * * * * * * * * * * * * * * //

dimensions      [0 2 -2 0 0 0 0];

internalField   nonuniform List<scalar> 
344
(
0.187304
0.190465
0.193477
0.196344
0.199069
0.201654
0.204101
0.206411
0.208585
0.210621
0.212519
0.214276
0.215891
0.217359
0.218678
0.219842
0.220848
0.22169
0.222364
0.222864
0.223187
0.223326
0.223279
0.22304
0.222608
0.221979
0.221153
0.220129
0.218907
0.21749
0.215882
0.214086
0.212109
0.209958
0.207644
0.205176
0.202566
0.199829
0.19698
0.194035
0.191012
0.187931
0.184812
0.181675
0.178544
0.175441
0.17239
0.169416
0.166541
0.0983505
0.105297
0.111968
0.11837
0.124513
0.130403
0.136049
0.141459
0.14664
0.1516
0.156348
0.16089
0.165235
0.169391
0.173363
0.17716
0.180788
0.184252
0.187559
0.190713
0.193719
0.196581
0.199302
0.201884
0.204329
0.206638
0.208811
0.210848
0.212746
0.214505
0.21612
0.21759
0.218909
0.220074
0.22108
0.221922
0.222594
0.223092
0.223411
0.223546
0.223492
0.223246
0.222805
0.222166
0.221328
0.220291
0.219055
0.217623
0.215999
0.214186
0.212191
0.210023
0.207691
0.205205
0.202578
0.199825
0.19696
0.194
0.190965
0.187873
0.184744
0.181601
0.178466
0.175361
0.172312
0.169342
0.166476
0.163739
0.0987654
0.1057
0.112358
0.118749
0.124879
0.130757
0.136391
0.141788
0.146958
0.151907
0.156643
0.161176
0.165511
0.169657
0.173621
0.17741
0.18103
0.184488
0.187789
0.190938
0.19394
0.196798
0.199516
0.202096
0.204539
0.206846
0.209017
0.211052
0.212949
0.214706
0.21632
0.217787
0.219103
0.220264
0.221265
0.222101
0.222767
0.223257
0.223567
0.223692
0.223627
0.223369
0.222915
0.222262
0.22141
0.220358
0.219108
0.217661
0.216021
0.214193
0.212185
0.210004
0.20766
0.205164
0.202528
0.199768
0.196899
0.193938
0.190904
0.187815
0.184694
0.181561
0.17844
0.175354
0.172326
0.169382
0.166545
0.163841
0.0990872
0.106013
0.112663
0.119045
0.125167
0.131037
0.136663
0.142052
0.147214
0.152156
0.156886
0.161412
0.165742
0.169882
0.173842
0.177626
0.181242
0.184697
0.187995
0.191141
0.19414
0.196996
0.199711
0.202288
0.204729
0.207033
0.209201
0.211232
0.213125
0.214876
0.216484
0.217943
0.219251
0.220403
0.221394
0.222219
0.222872
0.223349
0.223644
0.223754
0.223673
0.223399
0.222928
0.222259
0.22139
0.220323
0.219057
0.217596
0.215944
0.214105
0.212088
0.2099
0.207552
0.205055
0.202422
0.199667
0.196807
0.193859
0.190841
0.187773
0.184677
0.181573
0.178485
0.175437
0.172452
0.169554
0.166768
0.164118
0.0993131
0.106234
0.11288
0.119257
0.125375
0.131241
0.136863
0.14225
0.147408
0.152348
0.157075
0.161599
0.165927
0.170067
0.174025
0.177809
0.181424
0.184878
0.188175
0.191321
0.194319
0.197173
0.199886
0.20246
0.204897
0.207197
0.209359
0.211384
0.213268
0.21501
0.216607
0.218054
0.219349
0.220486
0.221461
0.222268
0.222903
0.223361
0.223636
0.223726
0.223625
0.223331
0.222841
0.222153
0.221268
0.220184
0.218905
0.217432
0.215771
0.213927
0.211907
0.209721
0.207377
0.204889
0.202269
0.199533
0.196695
0.193774
0.190789
0.187758
0.184704
0.181648
0.178612
0.175621
0.172697
0.169865
0.167149
0.164574
0.0994577
0.106378
0.113022
0.119399
0.125517
0.131383
0.137005
0.142392
0.147552
0.152493
0.157223
0.161749
0.166079
0.170221
0.174182
0.177968
0.181585
0.185041
0.188339
0.191485
0.194483
0.197335
0.200046
)
;

boundaryField
{
    inlet
    {
        type            zeroGradient;
    }
    outlet
    {
        type            fixedValue;
        value           nonuniform 0();
    }
    wall
    {
        type            zeroGradient;
    }
    wedge1
    {
        type            wedge;
    }
    wedge2
    {
        type            wedge;
    }
    axis
    {
        type            empty;
    }
    procBoundary16to10
    {
        type            processor;
        value           nonuniform List<scalar> 
68
(
0.187027
0.190197
0.193217
0.19609
0.19882
0.201408
0.203858
0.206169
0.208342
0.210377
0.212273
0.214028
0.215639
0.217103
0.218417
0.219578
0.220579
0.221418
0.222089
0.222588
0.222909
0.223049
0.223003
0.222768
0.22234
0.221718
0.220901
0.219887
0.218678
0.217276
0.215683
0.213905
0.211947
0.209818
0.207525
0.20508
0.202495
0.199782
0.196958
0.194037
0.191039
0.187981
0.184884
0.181769
0.178658
0.175573
0.172538
0.169577
0.166713
0.0978512
0.104813
0.111499
0.117918
0.124076
0.129982
0.135644
0.141069
0.146265
0.15124
0.156002
0.160558
0.164917
0.169085
0.17307
0.176878
0.180515
0.183989
0.183989
)
;
    }
    procBoundary16to11
    {
        type            processor;
        value           uniform 0.163792;
    }
    procBoundary16to15
    {
        type            processor;
        value           nonuniform List<scalar> 3(0.0911208 0.0915478 0.0918779);
    }
    procBoundary16to17
    {
        type            processor;
        value           nonuniform List<scalar> 4(0.161154 0.161294 0.16163 0.162163);
    }
    procBoundary16to21
    {
        type            processor;
        value           nonuniform List<scalar> 2(0.0921085 0.0922544);
    }
    procBoundary16to22
    {
        type            processor;
        value           nonuniform List<scalar> 
69
(
0.202617
0.205048
0.207341
0.209496
0.21151
0.213383
0.215111
0.216693
0.218123
0.219399
0.220516
0.22147
0.222255
0.222866
0.2233
0.223552
0.223618
0.223494
0.223177
0.222666
0.221959
0.221056
0.219958
0.218667
0.217186
0.21552
0.213676
0.21166
0.209483
0.207153
0.204684
0.202089
0.199382
0.196579
0.193699
0.19076
0.187782
0.184786
0.181792
0.178825
0.175906
0.17306
0.17031
0.16768
0.165194
0.0995596
0.10648
0.113125
0.119503
0.125622
0.131489
0.137113
0.142503
0.147665
0.152608
0.157341
0.16187
0.166203
0.170348
0.174311
0.1781
0.18172
0.185177
0.188476
0.191623
0.19462
0.197472
0.202617
0.20018
)
;
    }
}


// ************************************************************************* //
