/*--------------------------------*- C++ -*----------------------------------*\
  =========                 |
  \\      /  F ield         | OpenFOAM: The Open Source CFD Toolbox
   \\    /   O peration     | Website:  https://openfoam.org
    \\  /    A nd           | Version:  7
     \\/     M anipulation  |
\*---------------------------------------------------------------------------*/
FoamFile
{
    version     2.0;
    format      ascii;
    class       volScalarField;
    location    "87.999786";
    object      p;
}
// * * * * * * * * * * * * * * * * * * * * * * * * * * * * * * * * * * * * * //

dimensions      [0 2 -2 0 0 0 0];

internalField   nonuniform List<scalar> 
23200
(
-0.219792
-0.221571
-0.222648
-0.223491
-0.224226
-0.224876
-0.225479
-0.226062
-0.226634
-0.227194
-0.227728
-0.228215
-0.228628
-0.228931
-0.229086
-0.22905
-0.22878
-0.228256
-0.227445
-0.226249
-0.219923
-0.221691
-0.222761
-0.223598
-0.224326
-0.22497
-0.225564
-0.226135
-0.226693
-0.227233
-0.227741
-0.228193
-0.228557
-0.228797
-0.228867
-0.228718
-0.228297
-0.227579
-0.226527
-0.224933
-0.220325
-0.222052
-0.223097
-0.223914
-0.224625
-0.225251
-0.225829
-0.226381
-0.226918
-0.227433
-0.227911
-0.228325
-0.228641
-0.228816
-0.228802
-0.228543
-0.227969
-0.227047
-0.225768
-0.223631
-0.220987
-0.222645
-0.22365
-0.224434
-0.225116
-0.225715
-0.226266
-0.226792
-0.227301
-0.227786
-0.22823
-0.228603
-0.228869
-0.228981
-0.228886
-0.228519
-0.227796
-0.226654
-0.225207
-0.222325
-0.221893
-0.223458
-0.224406
-0.225146
-0.225786
-0.226347
-0.226862
-0.227354
-0.227828
-0.228276
-0.22868
-0.229009
-0.229224
-0.229275
-0.2291
-0.228634
-0.227772
-0.226376
-0.224895
-0.22098
-0.223024
-0.224473
-0.225351
-0.226033
-0.226621
-0.227133
-0.227602
-0.228048
-0.228477
-0.228882
-0.22924
-0.229521
-0.229682
-0.229671
-0.229419
-0.22886
-0.227887
-0.226156
-0.224893
-0.219524
-0.224354
-0.22567
-0.226466
-0.227079
-0.227602
-0.228053
-0.228462
-0.228852
-0.229227
-0.229577
-0.229882
-0.230108
-0.230212
-0.230138
-0.22981
-0.22916
-0.228131
-0.225906
-0.2253
-0.217841
-0.225856
-0.227028
-0.227732
-0.228264
-0.228709
-0.229085
-0.229423
-0.229742
-0.230049
-0.230333
-0.230574
-0.230736
-0.230777
-0.230638
-0.230232
-0.229478
-0.228499
-0.225548
-0.226214
-0.215746
-0.227504
-0.228525
-0.229127
-0.229568
-0.229922
-0.230209
-0.230459
-0.230692
-0.230916
-0.23112
-0.231283
-0.231372
-0.231339
-0.231128
-0.230644
-0.229751
-0.22893
-0.2252
-0.226483
-0.214522
-0.229274
-0.230142
-0.230635
-0.230974
-0.231223
-0.231404
-0.231548
-0.231678
-0.231801
-0.231908
-0.231979
-0.231979
-0.231861
-0.231567
-0.231005
-0.229985
-0.229149
-0.225061
-0.226907
-0.213026
-0.231145
-0.231861
-0.232239
-0.232465
-0.232594
-0.232652
-0.232672
-0.232678
-0.23268
-0.232671
-0.232632
-0.232527
-0.232308
-0.231917
-0.231261
-0.230112
-0.229299
-0.224567
-0.227412
-0.21136
-0.233103
-0.233671
-0.23393
-0.23403
-0.234025
-0.233941
-0.233815
-0.233675
-0.233533
-0.233387
-0.233218
-0.23299
-0.232654
-0.232149
-0.231388
-0.230063
-0.229344
-0.2238
-0.227787
-0.209682
-0.23514
-0.235567
-0.235701
-0.235665
-0.235506
-0.23526
-0.234965
-0.234656
-0.234348
-0.234042
-0.233722
-0.233352
-0.23288
-0.232242
-0.231364
-0.229823
-0.229194
-0.222829
-0.227741
-0.208222
-0.237258
-0.237551
-0.237554
-0.237367
-0.237038
-0.236607
-0.23612
-0.235617
-0.235119
-0.234631
-0.234138
-0.233606
-0.232979
-0.232186
-0.231171
-0.229394
-0.228747
-0.221769
-0.226932
-0.207179
-0.239468
-0.239632
-0.239497
-0.239145
-0.238626
-0.237987
-0.237284
-0.236562
-0.235851
-0.235158
-0.234472
-0.233758
-0.232957
-0.231985
-0.230798
-0.22879
-0.227907
-0.220725
-0.225096
-0.206503
-0.241792
-0.241829
-0.241546
-0.24101
-0.240281
-0.239412
-0.238468
-0.237505
-0.236557
-0.235638
-0.234739
-0.233823
-0.232826
-0.23165
-0.23024
-0.228009
-0.226614
-0.219686
-0.222224
-0.205815
-0.244262
-0.244168
-0.24372
-0.242987
-0.242023
-0.2409
-0.239693
-0.238465
-0.23726
-0.236097
-0.234965
-0.233826
-0.232608
-0.231195
-0.229494
-0.227019
-0.224869
-0.218468
-0.218571
-0.204612
-0.246917
-0.246678
-0.246055
-0.245099
-0.243879
-0.242479
-0.240986
-0.239474
-0.237993
-0.236567
-0.235184
-0.233799
-0.232324
-0.230626
-0.228557
-0.225757
-0.222712
-0.2168
-0.214415
-0.202585
-0.249806
-0.249403
-0.248583
-0.247381
-0.245881
-0.244182
-0.242383
-0.240568
-0.238795
-0.237088
-0.235434
-0.233772
-0.231993
-0.22994
-0.227413
-0.224157
-0.220177
-0.214466
-0.209815
-0.19979
-0.252985
-0.252388
-0.251344
-0.249871
-0.248066
-0.246046
-0.243923
-0.241789
-0.239709
-0.237704
-0.235751
-0.233769
-0.23162
-0.229121
-0.226032
-0.222167
-0.217286
-0.21139
-0.204761
-0.196546
-0.256509
-0.255681
-0.254382
-0.252611
-0.250477
-0.248116
-0.245652
-0.243185
-0.240781
-0.238455
-0.236165
-0.233804
-0.231199
-0.22814
-0.224374
-0.219767
-0.214048
-0.207634
-0.199702
-0.192752
-0.260439
-0.259332
-0.257744
-0.255646
-0.253158
-0.250437
-0.247616
-0.244801
-0.242054
-0.239375
-0.236695
-0.233874
-0.230705
-0.226962
-0.222404
-0.216965
-0.210446
-0.203318
-0.195032
-0.18753
-0.264833
-0.263392
-0.261477
-0.25902
-0.256155
-0.253054
-0.249861
-0.246682
-0.243564
-0.240487
-0.237344
-0.233959
-0.2301
-0.225547
-0.220104
-0.213785
-0.206479
-0.198732
-0.190047
-0.182086
-0.269746
-0.26791
-0.265626
-0.262781
-0.259513
-0.256015
-0.252434
-0.248866
-0.24534
-0.241799
-0.238097
-0.234024
-0.229341
-0.223862
-0.21747
-0.210258
-0.202224
-0.193897
-0.184898
-0.176664
-0.275229
-0.272929
-0.270236
-0.266972
-0.263279
-0.259364
-0.255373
-0.251385
-0.247394
-0.243301
-0.238919
-0.234018
-0.228381
-0.221885
-0.214511
-0.20643
-0.197726
-0.188897
-0.179622
-0.171161
-0.281324
-0.278491
-0.275348
-0.271636
-0.267494
-0.263142
-0.258714
-0.254258
-0.249724
-0.244964
-0.239759
-0.233884
-0.227175
-0.219599
-0.211244
-0.202341
-0.193031
-0.183761
-0.174234
-0.165612
-0.288065
-0.28463
-0.280997
-0.27681
-0.272198
-0.267384
-0.262479
-0.257486
-0.252303
-0.246734
-0.24055
-0.233559
-0.225685
-0.217001
-0.207691
-0.198024
-0.188167
-0.178501
-0.168751
-0.159972
-0.295476
-0.291371
-0.287214
-0.282527
-0.277422
-0.272114
-0.266675
-0.261052
-0.255083
-0.248542
-0.241213
-0.23298
-0.223879
-0.21409
-0.20387
-0.193497
-0.183145
-0.173117
-0.16316
-0.154231
-0.303566
-0.298729
-0.294017
-0.28881
-0.283186
-0.27734
-0.271288
-0.264909
-0.25799
-0.250295
-0.241665
-0.23209
-0.221733
-0.210867
-0.19979
-0.188768
-0.177962
-0.167597
-0.15745
-0.148368
-0.31233
-0.306706
-0.301416
-0.29567
-0.289495
-0.283049
-0.276276
-0.268984
-0.260925
-0.251892
-0.24182
-0.230838
-0.219227
-0.207328
-0.19545
-0.18383
-0.172603
-0.161923
-0.1516
-0.142367
-0.321743
-0.315287
-0.309401
-0.303098
-0.296332
-0.2892
-0.281567
-0.273175
-0.263771
-0.253221
-0.241599
-0.229178
-0.216342
-0.203463
-0.19084
-0.178665
-0.167046
-0.156072
-0.145589
-0.136208
-0.331756
-0.324436
-0.317943
-0.311064
-0.303649
-0.29572
-0.287055
-0.27735
-0.266391
-0.25417
-0.240925
-0.22707
-0.213053
-0.199255
-0.185938
-0.17325
-0.161266
-0.150018
-0.139394
-0.129873
-0.342292
-0.334092
-0.326989
-0.319506
-0.311367
-0.302499
-0.292598
-0.281353
-0.268643
-0.254631
-0.239732
-0.224471
-0.209335
-0.194678
-0.180718
-0.167555
-0.155232
-0.143737
-0.132993
-0.123344
-0.353246
-0.344165
-0.336451
-0.328331
-0.319368
-0.309387
-0.298025
-0.285013
-0.270383
-0.254502
-0.237953
-0.221342
-0.205153
-0.189699
-0.175144
-0.161546
-0.148915
-0.137202
-0.126361
-0.116602
-0.364479
-0.354533
-0.346212
-0.337407
-0.327495
-0.3162
-0.303139
-0.288149
-0.271469
-0.253687
-0.235528
-0.217636
-0.200468
-0.184281
-0.169182
-0.15519
-0.142285
-0.130387
-0.119478
-0.10963
-0.375817
-0.365041
-0.356114
-0.34656
-0.335549
-0.322721
-0.307727
-0.290578
-0.271768
-0.252097
-0.232394
-0.213307
-0.195238
-0.178381
-0.162792
-0.148452
-0.135311
-0.123269
-0.112321
-0.102411
-0.38705
-0.375497
-0.365964
-0.35558
-0.343298
-0.328708
-0.311564
-0.292123
-0.271154
-0.249647
-0.228491
-0.208302
-0.189414
-0.171957
-0.155936
-0.141298
-0.127965
-0.115822
-0.10487
-0.0949284
-0.397937
-0.385675
-0.375531
-0.364218
-0.350479
-0.333903
-0.314429
-0.292615
-0.269511
-0.246257
-0.223757
-0.202568
-0.18295
-0.164966
-0.148576
-0.133696
-0.120221
-0.108026
-0.0971054
-0.0871696
-0.408204
-0.395316
-0.38455
-0.372194
-0.356806
-0.338042
-0.316106
-0.291898
-0.266732
-0.241849
-0.21813
-0.196053
-0.175797
-0.157366
-0.140676
-0.125615
-0.112055
-0.099862
-0.0890113
-0.079126
-0.417555
-0.404135
-0.392728
-0.379207
-0.361984
-0.340864
-0.316391
-0.28983
-0.262718
-0.23635
-0.211549
-0.188702
-0.16791
-0.149116
-0.132202
-0.117029
-0.103446
-0.0913116
-0.0805773
-0.0707982
-0.425671
-0.411823
-0.399751
-0.384938
-0.365714
-0.342119
-0.315101
-0.286282
-0.257379
-0.229691
-0.203957
-0.180467
-0.159244
-0.140181
-0.123126
-0.107913
-0.0943743
-0.0823593
-0.0717957
-0.0621922
-0.432226
-0.418058
-0.405292
-0.389066
-0.367706
-0.341577
-0.312069
-0.281141
-0.250635
-0.221809
-0.1953
-0.1713
-0.149761
-0.130529
-0.113421
-0.0982484
-0.0848235
-0.0729901
-0.0626562
-0.0533031
-0.436887
-0.422511
-0.409021
-0.391276
-0.36769
-0.33903
-0.307153
-0.274312
-0.242414
-0.212646
-0.185529
-0.161162
-0.139429
-0.120134
-0.103068
-0.0880189
-0.0747806
-0.0631921
-0.0531437
-0.0440972
-0.43933
-0.42486
-0.410617
-0.391272
-0.36542
-0.334302
-0.300234
-0.265711
-0.232657
-0.202154
-0.174606
-0.150019
-0.12822
-0.108976
-0.0920507
-0.0772129
-0.0642365
-0.0529627
-0.0432565
-0.0344993
-0.439247
-0.424791
-0.409777
-0.388783
-0.360684
-0.327243
-0.291215
-0.255276
-0.221316
-0.190295
-0.162498
-0.137847
-0.116116
-0.0970392
-0.0803584
-0.0658218
-0.0531873
-0.0423064
-0.0330229
-0.0244549
-0.436352
-0.422019
-0.406225
-0.383573
-0.353305
-0.31774
-0.280026
-0.24296
-0.208357
-0.177041
-0.149183
-0.124628
-0.103102
-0.0843145
-0.0679851
-0.0538422
-0.0416424
-0.0312322
-0.0224475
-0.0140823
-0.430394
-0.416287
-0.399724
-0.375444
-0.343148
-0.30571
-0.266621
-0.228736
-0.19376
-0.162376
-0.134648
-0.110351
-0.0891727
-0.0708014
-0.0549409
-0.0412849
-0.0296283
-0.0197792
-0.0114149
-0.00354005
-0.421161
-0.407379
-0.390075
-0.364247
-0.330119
-0.291107
-0.250979
-0.212593
-0.177519
-0.146295
-0.118887
-0.095015
-0.0743434
-0.0565175
-0.041254
-0.0281908
-0.0171354
-0.00791325
-1.79242e-05
0.00723029
-0.408487
-0.395122
-0.377133
-0.34988
-0.314166
-0.273915
-0.233103
-0.194541
-0.15964
-0.128803
-0.101918
-0.0786407
-0.0586544
-0.0415005
-0.0269141
-0.0145509
-0.00419013
0.00435264
0.0116951
0.0182516
-0.392256
-0.379397
-0.360802
-0.332289
-0.295279
-0.254153
-0.213024
-0.174605
-0.140144
-0.109931
-0.083796
-0.0612967
-0.0420866
-0.0257483
-0.0119579
-0.000390098
0.00918702
0.0169895
0.0236994
0.0295155
-0.372406
-0.360137
-0.341038
-0.31147
-0.273491
-0.231872
-0.190792
-0.152831
-0.119083
-0.0897702
-0.06453
-0.0429743
-0.024697
-0.0092962
0.00358193
0.0142589
0.0229687
0.0299651
0.0359734
0.0409969
-0.348929
-0.337328
-0.317855
-0.287469
-0.248876
-0.207156
-0.166484
-0.1293
-0.0965635
-0.068312
-0.0441766
-0.0237261
-0.00653109
0.00781065
0.0196663
0.0293581
0.0371208
0.0432456
0.0484879
0.0526624
-0.321875
-0.311013
-0.291319
-0.260386
-0.221553
-0.180105
-0.140197
-0.10411
-0.0726183
-0.0456501
-0.0228024
-0.00361472
0.0123568
0.0255204
0.0362493
0.0448649
0.0516039
0.0567934
0.0612066
0.0644714
-0.291348
-0.281287
-0.261554
-0.230376
-0.191657
-0.150823
-0.112058
-0.0773583
-0.0473499
-0.021872
-0.000486596
0.0172872
0.0319031
0.0437748
0.0532778
0.0607308
0.066374
0.070569
0.0740914
0.0763824
-0.257502
-0.248303
-0.228741
-0.197612
-0.159275
-0.119508
-0.0822148
-0.0491726
-0.020873
0.00292156
0.0226805
0.0388983
0.0520351
0.0625081
0.0706923
0.0769013
0.0813829
0.0845332
0.0871087
0.0883607
-0.220526
-0.212269
-0.193091
-0.162178
-0.124653
-0.0863754
-0.0508344
-0.0196991
0.00668311
0.0286171
0.0465975
0.0611278
0.0726719
0.0816481
0.0884271
0.0933162
0.0965793
0.0986473
0.100222
0.100363
-0.180605
-0.173477
-0.154749
-0.124279
-0.0881537
-0.0516126
-0.0181002
0.0109008
0.0351765
0.055089
0.0711526
0.0838763
0.0937254
0.101116
0.106411
0.109913
0.111913
0.112869
0.113356
0.112247
-0.137974
-0.132242
-0.113821
-0.0845001
-0.0499573
-0.0154446
0.0157882
0.042452
0.0644528
0.0822007
0.0962247
0.107037
0.1151
0.120828
0.124569
0.12663
0.127343
0.127144
0.126348
0.123672
-0.0929741
-0.0887433
-0.0710065
-0.042999
-0.0103269
0.0218866
0.0506186
0.0747678
0.0943469
0.109806
0.121684
0.130494
0.136696
0.140692
0.142825
0.143412
0.142828
0.141398
0.138989
0.134367
-0.0463011
-0.0432089
-0.0265427
-7.72526e-05
0.0304518
0.0601264
0.0861668
0.10765
0.124684
0.13775
0.147395
0.154127
0.158403
0.160616
0.161099
0.160196
0.1583
0.155517
0.151237
0.144969
0.00192199
0.0038309
0.0192427
0.0439301
0.0720761
0.0990082
0.122198
0.140893
0.155281
0.165872
0.173213
0.17781
0.180112
0.180501
0.179309
0.1769
0.173644
0.169366
0.16321
0.157492
0.0513076
0.0519562
0.0659767
0.088674
0.114232
0.138256
0.15847
0.174281
0.18595
0.194003
0.19899
0.201412
0.201707
0.200248
0.197366
0.193434
0.188746
0.182945
0.175449
0.169962
0.101423
0.100762
0.113268
0.133795
0.156599
0.177586
0.194733
0.207596
0.216495
0.221973
0.224577
0.2248
0.223071
0.219754
0.215181
0.209713
0.203568
0.196333
0.18778
0.181922
0.151832
0.149832
0.160716
0.178928
0.198851
0.216712
0.230736
0.240614
0.24672
0.249607
0.249817
0.247837
0.244084
0.238914
0.232656
0.22565
0.218055
0.209484
0.199987
0.193448
0.202098
0.198745
0.207919
0.223707
0.240664
0.255348
0.266226
0.273113
0.276428
0.27673
0.274558
0.270387
0.264626
0.257622
0.249697
0.241167
0.232152
0.222317
0.211893
0.204508
0.251783
0.247076
0.254478
0.267767
0.281712
0.293207
0.300949
0.304869
0.30542
0.303169
0.298645
0.292316
0.284579
0.275773
0.26621
0.256185
0.245791
0.234752
0.223409
0.215095
0.300452
0.294404
0.299996
0.310752
0.321678
0.330008
0.334659
0.335662
0.333503
0.32875
0.321926
0.313488
0.303823
0.293261
0.282104
0.270623
0.258901
0.246708
0.234458
0.225173
0.347681
0.340319
0.34409
0.352311
0.360252
0.365478
0.367112
0.365277
0.360486
0.353306
0.344252
0.333772
0.322243
0.309986
0.297288
0.284406
0.27141
0.258116
0.24498
0.234707
0.393056
0.384419
0.386384
0.392108
0.397134
0.399351
0.398073
0.393506
0.386185
0.376673
0.36548
0.353042
0.339727
0.325846
0.311676
0.297455
0.283247
0.268912
0.254919
0.243656
0.43618
0.426322
0.426521
0.429819
0.432037
0.431372
0.427317
0.42015
0.410421
0.398695
0.38547
0.371175
0.356167
0.340749
0.325185
0.309697
0.294349
0.279034
0.264224
0.251985
0.476676
0.465661
0.464164
0.46514
0.46469
0.461303
0.454632
0.445018
0.433029
0.419222
0.404092
0.388055
0.371462
0.354604
0.337735
0.321063
0.304651
0.288428
0.272845
0.259659
0.514192
0.502096
0.498994
0.497785
0.494839
0.488916
0.479816
0.467935
0.45385
0.438117
0.421222
0.403574
0.385514
0.367326
0.349252
0.331487
0.314096
0.297041
0.280738
0.266646
0.548399
0.535311
0.53072
0.527491
0.522251
0.514005
0.502685
0.488734
0.472738
0.455249
0.436746
0.417631
0.398236
0.378838
0.359668
0.340909
0.322632
0.304825
0.287861
0.272917
0.578999
0.565019
0.559076
0.554019
0.546711
0.536381
0.523072
0.507268
0.489562
0.470502
0.450562
0.430135
0.409548
0.389068
0.36892
0.349275
0.330208
0.311736
0.294177
0.278448
0.605727
0.590963
0.583823
0.577155
0.568031
0.555875
0.540826
0.523402
0.504202
0.483771
0.462576
0.441004
0.419377
0.397954
0.376952
0.356534
0.336782
0.317733
0.299652
0.283219
0.62835
0.61292
0.604757
0.596713
0.586045
0.572339
0.555816
0.537021
0.516556
0.494964
0.472707
0.450167
0.427659
0.40544
0.383716
0.362645
0.342315
0.322782
0.304256
0.287211
0.646672
0.6307
0.621701
0.612536
0.600614
0.58565
0.567932
0.548025
0.526536
0.504004
0.480887
0.457563
0.434343
0.411479
0.389171
0.367571
0.346775
0.326852
0.307965
0.290412
0.660533
0.644149
0.634514
0.624498
0.611623
0.595706
0.577084
0.556336
0.534072
0.510828
0.48706
0.463143
0.439385
0.416033
0.393283
0.371284
0.350136
0.32992
0.310757
0.292813
0.669814
0.653154
0.643091
0.632502
0.618988
0.602433
0.583204
0.561893
0.539109
0.51539
0.491185
0.466871
0.442752
0.419073
0.396028
0.373761
0.352378
0.331966
0.312619
0.294408
0.674434
0.657635
0.647358
0.636484
0.622652
0.605778
0.586248
0.564656
0.541613
0.517656
0.493234
0.468722
0.444423
0.420581
0.397388
0.374988
0.353487
0.332977
0.313537
0.295192
0.674351
0.657554
0.647281
0.636412
0.622585
0.605717
0.586192
0.564604
0.541565
0.517611
0.493193
0.468683
0.444387
0.420546
0.397355
0.374956
0.353457
0.332948
0.313509
0.295165
0.669568
0.652912
0.64286
0.632287
0.618789
0.60225
0.583036
0.561738
0.538966
0.515256
0.491061
0.466755
0.442643
0.41897
0.395929
0.373667
0.352288
0.331878
0.312532
0.294326
0.660124
0.643748
0.634131
0.62414
0.611292
0.595402
0.576804
0.556078
0.533833
0.510607
0.486854
0.46295
0.439203
0.415861
0.393119
0.371128
0.349986
0.329773
0.310614
0.292678
0.646101
0.63014
0.621166
0.612036
0.600152
0.585225
0.567541
0.547665
0.526203
0.503695
0.480598
0.457293
0.434089
0.411238
0.388942
0.367353
0.346565
0.326648
0.307765
0.290223
0.627619
0.612204
0.604072
0.596073
0.585454
0.571795
0.555316
0.536559
0.516129
0.494568
0.472337
0.449821
0.427334
0.405132
0.383423
0.362365
0.342045
0.322519
0.304
0.286968
0.604839
0.590093
0.582992
0.576377
0.567313
0.555213
0.540217
0.522841
0.503683
0.483289
0.462126
0.440583
0.41898
0.397579
0.376595
0.356193
0.336453
0.317413
0.29934
0.282922
0.577958
0.563998
0.5581
0.553106
0.545867
0.535604
0.522357
0.506609
0.488952
0.469936
0.450034
0.42964
0.409082
0.388627
0.3685
0.348873
0.329821
0.311359
0.293809
0.278098
0.547207
0.534143
0.529603
0.526446
0.521284
0.513116
0.501867
0.487979
0.472039
0.4546
0.436141
0.417063
0.397702
0.378331
0.359186
0.340448
0.322187
0.304393
0.287439
0.272513
0.512855
0.500785
0.49774
0.496611
0.493753
0.487917
0.478896
0.467086
0.453064
0.437387
0.42054
0.402935
0.384912
0.366755
0.348709
0.330967
0.313595
0.296554
0.280261
0.266188
0.475199
0.464212
0.462777
0.463841
0.463488
0.460196
0.453613
0.444078
0.432158
0.418413
0.403336
0.387346
0.370793
0.35397
0.337132
0.320485
0.304094
0.287887
0.272315
0.259149
0.434568
0.42474
0.425007
0.4284
0.430723
0.430162
0.426203
0.419121
0.409469
0.397809
0.384643
0.370398
0.355435
0.340054
0.324523
0.309063
0.293737
0.278439
0.26364
0.251423
0.391315
0.382711
0.384747
0.390573
0.395712
0.398041
0.396867
0.392392
0.385152
0.375713
0.364583
0.352199
0.338932
0.325092
0.310957
0.296765
0.282582
0.268264
0.254284
0.243042
0.345819
0.338491
0.342337
0.350666
0.358728
0.364073
0.365817
0.364081
0.359377
0.352274
0.343288
0.332866
0.321387
0.309173
0.296512
0.283661
0.270691
0.257417
0.244293
0.234041
0.298475
0.292463
0.298134
0.309003
0.320056
0.328513
0.33328
0.334387
0.332321
0.327649
0.320896
0.31252
0.302908
0.292392
0.281273
0.269826
0.258131
0.245958
0.23372
0.224457
0.249699
0.245028
0.252512
0.26592
0.279998
0.291625
0.29949
0.303519
0.304168
0.302002
0.297553
0.291288
0.283607
0.274849
0.265326
0.255335
0.24497
0.233952
0.222621
0.214328
0.199915
0.196599
0.205858
0.221767
0.238863
0.253685
0.264691
0.271693
0.275109
0.275501
0.273407
0.269303
0.2636
0.256645
0.248762
0.240267
0.231281
0.221469
0.211056
0.20369
0.149559
0.147598
0.158567
0.176904
0.196971
0.214974
0.229131
0.239128
0.245339
0.248318
0.248609
0.246698
0.243005
0.237886
0.231671
0.224701
0.217136
0.208589
0.199103
0.192581
0.0990693
0.098447
0.11104
0.131694
0.154645
0.175778
0.193063
0.206048
0.215055
0.220628
0.223315
0.223609
0.221941
0.218676
0.214147
0.208716
0.202602
0.195391
0.18685
0.181005
0.0488834
0.0495705
0.0636784
0.0865043
0.112212
0.136385
0.156739
0.172676
0.184456
0.192606
0.197678
0.200173
0.20053
0.199123
0.196286
0.192391
0.187734
0.181958
0.174475
0.168998
-0.000562622
0.00138381
0.0168833
0.0416997
0.0699962
0.0970806
0.120413
0.139236
0.153737
0.164427
0.171853
0.176524
0.178889
0.179331
0.178183
0.175811
0.172587
0.168334
0.162194
0.156483
-0.0488346
-0.0457079
-0.0289532
-0.00235964
0.0283202
0.0581485
0.0843329
0.105946
0.123094
0.13626
0.145991
0.152798
0.157137
0.159403
0.15993
0.159063
0.157198
0.154441
0.150181
0.143919
-0.0955441
-0.0912843
-0.0734578
-0.0453243
-0.0125021
0.0198652
0.048742
0.0730216
0.0927158
0.108275
0.12024
0.129124
0.135388
0.139438
0.141614
0.142237
0.141682
0.140277
0.13789
0.133278
-0.140579
-0.134808
-0.116304
-0.0868589
-0.0521679
-0.0175024
0.013875
0.0406693
0.0627849
0.0806328
0.0947429
0.105628
0.113754
0.119533
0.123318
0.125414
0.126154
0.125979
0.125205
0.122544
-0.183227
-0.176056
-0.157258
-0.126663
-0.0903916
-0.0536994
-0.0200435
0.00908699
0.0334767
0.0534881
0.0696367
0.0824328
0.0923426
0.099784
0.10512
0.108655
0.110682
0.11166
0.112169
0.111077
-0.223152
-0.214854
-0.195604
-0.164581
-0.12691
-0.0884837
-0.0528014
-0.0215383
0.0049562
0.0269874
0.045051
0.0596518
0.0712549
0.0802799
0.0870985
0.0920194
0.0953072
0.0973951
0.0989896
0.0991488
-0.260121
-0.250882
-0.231251
-0.200016
-0.161545
-0.121631
-0.0841989
-0.0510315
-0.0226221
0.00126713
0.0211069
0.0373927
0.050586
0.0611054
0.069327
0.0755656
0.08007
0.0832381
0.0858315
0.0871011
-0.293948
-0.283849
-0.264052
-0.232772
-0.193924
-0.152953
-0.114052
-0.0792309
-0.0491162
-0.023547
-0.00208401
0.0157548
0.0304241
0.0423391
0.0518766
0.0593568
0.0650204
0.0692307
0.0727688
0.0750765
-0.324446
-0.313545
-0.293792
-0.262765
-0.223811
-0.18223
-0.142194
-0.10599
-0.0743967
-0.0473416
-0.0244202
-0.00517132
0.0108499
0.0240532
0.0348133
0.0434528
0.0502094
0.0554115
0.0598378
0.0631179
-0.351458
-0.339819
-0.320292
-0.289821
-0.251115
-0.20927
-0.168477
-0.131182
-0.0983487
-0.070016
-0.0458111
-0.0253041
-0.00806401
0.00631324
0.0181961
0.0279081
0.0356851
0.0418194
0.0470718
0.0512597
-0.374882
-0.362576
-0.343429
-0.313784
-0.275701
-0.233968
-0.192774
-0.154709
-0.120869
-0.0914829
-0.0661775
-0.044571
-0.0262542
-0.0108227
0.00207805
0.0127709
0.0214911
0.0284935
0.0345085
0.0395433
-0.394669
-0.381774
-0.363135
-0.334554
-0.297452
-0.256221
-0.214987
-0.176472
-0.141928
-0.111646
-0.0854529
-0.0629094
-0.0436665
-0.0273027
-0.0134952
-0.00191638
0.00766665
0.015471
0.0221837
0.0280088
-0.410826
-0.397425
-0.379398
-0.352087
-0.316291
-0.275947
-0.235041
-0.196392
-0.161416
-0.130517
-0.103583
-0.0802666
-0.0602557
-0.0430817
-0.0284847
-0.0161159
-0.00575457
0.00278561
0.0101264
0.0166893
-0.423417
-0.409599
-0.392262
-0.366385
-0.332188
-0.293094
-0.252883
-0.214421
-0.179281
-0.148005
-0.120556
-0.0966541
-0.075963
-0.0581245
-0.0428583
-0.0297953
-0.0187456
-0.00953093
-0.00164249
0.00560939
-0.432558
-0.418416
-0.401824
-0.377504
-0.345151
-0.307645
-0.268484
-0.230534
-0.195503
-0.164077
-0.136317
-0.112
-0.0908098
-0.0724352
-0.0565785
-0.0429296
-0.0312865
-0.02145
-0.0130985
-0.00522323
-0.438416
-0.424048
-0.40823
-0.385546
-0.355234
-0.319614
-0.281842
-0.244723
-0.210076
-0.178728
-0.150849
-0.126283
-0.104755
-0.0859742
-0.0696572
-0.0555306
-0.0433499
-0.0329589
-0.0241935
-0.0158325
-0.441204
-0.426714
-0.411679
-0.390662
-0.36253
-0.329048
-0.292976
-0.256997
-0.223006
-0.191964
-0.164157
-0.139507
-0.117785
-0.0987244
-0.0820658
-0.0675548
-0.0549473
-0.044093
-0.0348345
-0.0262788
-0.441175
-0.426671
-0.41241
-0.39305
-0.367177
-0.336031
-0.301933
-0.267384
-0.234312
-0.203801
-0.176255
-0.151681
-0.129903
-0.110686
-0.0937943
-0.0789925
-0.0660526
-0.0548136
-0.045139
-0.0364024
-0.438616
-0.424207
-0.410701
-0.392947
-0.36935
-0.340676
-0.308783
-0.27593
-0.244029
-0.214266
-0.187165
-0.162823
-0.141124
-0.12187
-0.104849
-0.0898476
-0.0766565
-0.0651123
-0.0551033
-0.0460847
-0.433835
-0.419635
-0.406855
-0.390624
-0.369263
-0.343132
-0.313624
-0.282699
-0.252203
-0.223397
-0.196918
-0.172959
-0.151468
-0.132291
-0.115241
-0.100129
-0.0867636
-0.074985
-0.0646994
-0.0553812
-0.42716
-0.41328
-0.401196
-0.386381
-0.367163
-0.343579
-0.316574
-0.287773
-0.258896
-0.231243
-0.205554
-0.18212
-0.160961
-0.141968
-0.124987
-0.10985
-0.0963835
-0.0844354
-0.07393
-0.064369
-0.418922
-0.405472
-0.394053
-0.380533
-0.363323
-0.342223
-0.317776
-0.291248
-0.264177
-0.23786
-0.213121
-0.190347
-0.169635
-0.150929
-0.134107
-0.119025
-0.10553
-0.0934759
-0.0828113
-0.0730837
-0.409451
-0.396534
-0.385757
-0.373403
-0.358032
-0.339296
-0.317397
-0.293236
-0.268127
-0.243311
-0.219672
-0.197685
-0.17753
-0.159205
-0.142625
-0.127674
-0.11422
-0.102123
-0.091355
-0.0815318
-0.399065
-0.386776
-0.376621
-0.36531
-0.35159
-0.335049
-0.315622
-0.293868
-0.270835
-0.247666
-0.225264
-0.204185
-0.184688
-0.166832
-0.150573
-0.135823
-0.122474
-0.110393
-0.09957
-0.089709
-0.388063
-0.376485
-0.366941
-0.356558
-0.344296
-0.329744
-0.312655
-0.293284
-0.2724
-0.250995
-0.229956
-0.209898
-0.191154
-0.173849
-0.157983
-0.1435
-0.130314
-0.118305
-0.107468
-0.0976161
-0.376719
-0.365921
-0.356982
-0.347428
-0.336436
-0.323647
-0.308711
-0.291642
-0.27293
-0.253377
-0.233811
-0.214878
-0.196977
-0.180298
-0.164892
-0.150733
-0.137765
-0.12588
-0.115067
-0.105263
-0.365275
-0.355309
-0.346976
-0.338169
-0.328273
-0.317016
-0.304016
-0.28911
-0.272539
-0.254891
-0.236888
-0.219175
-0.202203
-0.186222
-0.171337
-0.157557
-0.144853
-0.13314
-0.122388
-0.112667
-0.353941
-0.344843
-0.337117
-0.328994
-0.320043
-0.310095
-0.298792
-0.285867
-0.271354
-0.25562
-0.239248
-0.222841
-0.206877
-0.191664
-0.177356
-0.164005
-0.15161
-0.140111
-0.129455
-0.119845
-0.342891
-0.334678
-0.327563
-0.320075
-0.311943
-0.303102
-0.293255
-0.282096
-0.269507
-0.255655
-0.240952
-0.225922
-0.211043
-0.196663
-0.182989
-0.170112
-0.158064
-0.14682
-0.13629
-0.126818
-0.332265
-0.324936
-0.318432
-0.311545
-0.304132
-0.296223
-0.287603
-0.277978
-0.267141
-0.255088
-0.242059
-0.228461
-0.214737
-0.201256
-0.18827
-0.175913
-0.164248
-0.153293
-0.142919
-0.133607
-0.322168
-0.315707
-0.30981
-0.303498
-0.296728
-0.289607
-0.282009
-0.273688
-0.264401
-0.254024
-0.242633
-0.230498
-0.217991
-0.205476
-0.193233
-0.181442
-0.170194
-0.159561
-0.149369
-0.140234
-0.312676
-0.307052
-0.301752
-0.295995
-0.28981
-0.283364
-0.276613
-0.26938
-0.26143
-0.252571
-0.242743
-0.232073
-0.220832
-0.209345
-0.197905
-0.186728
-0.175931
-0.16565
-0.155666
-0.146724
-0.303839
-0.299007
-0.294288
-0.289066
-0.283426
-0.277569
-0.271524
-0.265187
-0.258366
-0.250841
-0.242464
-0.233226
-0.22328
-0.21288
-0.202304
-0.191795
-0.181488
-0.171588
-0.161837
-0.153099
-0.295683
-0.291588
-0.287425
-0.282721
-0.277592
-0.272261
-0.266813
-0.261215
-0.255327
-0.248948
-0.241877
-0.234003
-0.225353
-0.216089
-0.206441
-0.19666
-0.186887
-0.177402
-0.167909
-0.159386
-0.288215
-0.284796
-0.281158
-0.276949
-0.272304
-0.267455
-0.262523
-0.257536
-0.252416
-0.246997
-0.24107
-0.234455
-0.227072
-0.218974
-0.210315
-0.201328
-0.192144
-0.183113
-0.173908
-0.16561
-0.281427
-0.278616
-0.275466
-0.271727
-0.267544
-0.263142
-0.25867
-0.254199
-0.249709
-0.245083
-0.240131
-0.234644
-0.228463
-0.221534
-0.213912
-0.205791
-0.197261
-0.188737
-0.179852
-0.1718
-0.275301
-0.273026
-0.270324
-0.267027
-0.263281
-0.259301
-0.255249
-0.251226
-0.247258
-0.243281
-0.239143
-0.234637
-0.229558
-0.223768
-0.217215
-0.210028
-0.202228
-0.194275
-0.185762
-0.177977
-0.269804
-0.267993
-0.265698
-0.262811
-0.259479
-0.255901
-0.25224
-0.248617
-0.245094
-0.24165
-0.23818
-0.234504
-0.230402
-0.225684
-0.220201
-0.214002
-0.207014
-0.199718
-0.191626
-0.184203
-0.264899
-0.263482
-0.261549
-0.259042
-0.2561
-0.252904
-0.249614
-0.246361
-0.243226
-0.240227
-0.237302
-0.23431
-0.231048
-0.227301
-0.222852
-0.21767
-0.211565
-0.205031
-0.197437
-0.190457
-0.260539
-0.25945
-0.257836
-0.255677
-0.253101
-0.250269
-0.247335
-0.24443
-0.241648
-0.23903
-0.236552
-0.234116
-0.231552
-0.228651
-0.225162
-0.220982
-0.21583
-0.210125
-0.203154
-0.196873
-0.256671
-0.255849
-0.254515
-0.252674
-0.250439
-0.247955
-0.245364
-0.242792
-0.240339
-0.238059
-0.235955
-0.233969
-0.23197
-0.229777
-0.22714
-0.223905
-0.219723
-0.214962
-0.208607
-0.203208
-0.253237
-0.25263
-0.25154
-0.249986
-0.24807
-0.245917
-0.243657
-0.241408
-0.239267
-0.237297
-0.235517
-0.233898
-0.23235
-0.230728
-0.228815
-0.226417
-0.223233
-0.219225
-0.214455
-0.208252
-0.250175
-0.249741
-0.248863
-0.24757
-0.24595
-0.244111
-0.242169
-0.240233
-0.238394
-0.236714
-0.235225
-0.233915
-0.232728
-0.231555
-0.230233
-0.228512
-0.226374
-0.222772
-0.220251
-0.212631
-0.247425
-0.24713
-0.246437
-0.245382
-0.244035
-0.242492
-0.240854
-0.239221
-0.237674
-0.236273
-0.235051
-0.23401
-0.233118
-0.232295
-0.231446
-0.230224
-0.22914
-0.225526
-0.225487
-0.216459
-0.244926
-0.244749
-0.244218
-0.243378
-0.242285
-0.241018
-0.23967
-0.238326
-0.23706
-0.235926
-0.234956
-0.234159
-0.233516
-0.23297
-0.232493
-0.231615
-0.231516
-0.227555
-0.230193
-0.219473
-0.242623
-0.24255
-0.242167
-0.241521
-0.24066
-0.239651
-0.238574
-0.237505
-0.236507
-0.235628
-0.234897
-0.234324
-0.2339
-0.233583
-0.233393
-0.232762
-0.233479
-0.229081
-0.234338
-0.221581
-0.240466
-0.240492
-0.240249
-0.239777
-0.23913
-0.238358
-0.237533
-0.23672
-0.235974
-0.235335
-0.234829
-0.234465
-0.234236
-0.234119
-0.234146
-0.23373
-0.234995
-0.230389
-0.237648
-0.22302
-0.238415
-0.238544
-0.238428
-0.238122
-0.237667
-0.237112
-0.236517
-0.235939
-0.235425
-0.235009
-0.234711
-0.234539
-0.234489
-0.234547
-0.234737
-0.234545
-0.236052
-0.231673
-0.239851
-0.224254
-0.236441
-0.236682
-0.236687
-0.236531
-0.236253
-0.235894
-0.235506
-0.23514
-0.234836
-0.234621
-0.234512
-0.234514
-0.234625
-0.234836
-0.235153
-0.235188
-0.236691
-0.232943
-0.240929
-0.225661
-0.234523
-0.234887
-0.235011
-0.234994
-0.234875
-0.23469
-0.234487
-0.234309
-0.234191
-0.234154
-0.234211
-0.234367
-0.234617
-0.234958
-0.235378
-0.235619
-0.236982
-0.234072
-0.241115
-0.227296
-0.232652
-0.233151
-0.233393
-0.233503
-0.233528
-0.233498
-0.233456
-0.233442
-0.233483
-0.2336
-0.2338
-0.234086
-0.234453
-0.234899
-0.235401
-0.235802
-0.236993
-0.234905
-0.240718
-0.22894
-0.23083
-0.231475
-0.231832
-0.23206
-0.232213
-0.232318
-0.232416
-0.232541
-0.232718
-0.232963
-0.233281
-0.233672
-0.234133
-0.234658
-0.235221
-0.235722
-0.236778
-0.235334
-0.239984
-0.230322
-0.229066
-0.229865
-0.230334
-0.230672