/*--------------------------------*- C++ -*----------------------------------*\
  =========                 |
  \\      /  F ield         | OpenFOAM: The Open Source CFD Toolbox
   \\    /   O peration     | Website:  https://openfoam.org
    \\  /    A nd           | Version:  7
     \\/     M anipulation  |
\*---------------------------------------------------------------------------*/
FoamFile
{
    version     2.0;
    format      ascii;
    class       volScalarField;
    location    "15";
    object      p;
}
// * * * * * * * * * * * * * * * * * * * * * * * * * * * * * * * * * * * * * //

dimensions      [0 2 -2 0 0 0 0];

internalField   nonuniform List<scalar> 
433
(
-1.7675
-1.76268
-1.75776
-1.75274
-1.74763
-1.74241
-1.7371
-1.7317
-1.7262
-1.72061
-1.71493
-1.70916
-1.77131
-1.76648
-1.76155
-1.75651
-1.75138
-1.74614
-1.7408
-1.73536
-1.72982
-1.72419
-1.71846
-1.71265
-1.77857
-1.77371
-1.76874
-1.76366
-1.75847
-1.75317
-1.74777
-1.74227
-1.73666
-1.73096
-1.72515
-1.71925
-1.789
-1.78408
-1.77905
-1.7739
-1.76864
-1.76326
-1.75777
-1.75218
-1.74647
-1.74066
-1.73475
-1.72874
-1.80246
-1.79746
-1.79233
-1.78709
-1.78173
-1.77625
-1.77065
-1.76493
-1.7591
-1.75316
-1.7471
-1.74095
-1.81372
-1.80849
-1.80313
-1.79764
-1.79202
-1.78628
-1.78042
-1.77443
-1.76833
-1.76211
-1.75578
-1.83282
-1.82745
-1.82194
-1.8163
-1.81053
-1.80462
-1.79858
-1.79242
-1.78612
-1.77971
-1.77317
-1.85473
-1.8492
-1.84352
-1.83771
-1.83175
-1.82564
-1.8194
-1.81302
-1.80651
-1.79986
-1.79308
-1.87947
-1.87375
-1.86788
-1.86186
-1.85568
-1.84936
-1.84288
-1.83626
-1.82949
-1.82257
-1.81552
-1.90709
-1.90116
-1.89506
-1.8888
-1.88238
-1.8758
-1.86905
-1.86215
-1.85509
-1.84787
-1.8405
-1.93766
-1.93149
-1.92514
-1.91862
-1.91192
-1.90504
-1.89799
-1.89077
-1.88337
-1.8758
-1.86807
-1.97131
-1.96486
-1.95822
-1.9514
-1.94438
-1.93718
-1.92978
-1.92219
-1.91442
-1.90646
-1.89831
-2.00815
-2.00139
-1.99443
-1.98727
-1.9799
-1.97232
-1.96454
-1.95654
-1.94834
-1.93993
-1.93131
-2.04836
-2.04126
-2.03394
-2.0264
-2.01863
-2.01063
-2.0024
-1.99394
-1.98525
-1.97633
-1.96718
-2.09213
-2.08464
-2.07691
-2.06894
-2.06073
-2.05226
-2.04353
-2.03455
-2.02531
-2.01581
-2.00606
-2.13967
-2.13175
-2.12357
-2.11512
-2.1064
-2.09739
-2.08811
-2.07853
-2.06867
-2.05852
-2.04809
-2.19125
-2.18284
-2.17414
-2.16515
-2.15585
-2.14624
-2.13631
-2.12605
-2.11547
-2.10456
-2.09333
-2.24713
-2.23817
-2.22889
-2.21929
-2.20934
-2.19904
-2.18838
-2.17735
-2.16596
-2.1542
-2.14208
-2.30765
-2.29806
-2.28812
-2.27782
-2.26713
-2.25604
-2.24455
-2.23265
-2.22033
-2.2076
-2.19445
-2.37316
-2.36285
-2.35215
-2.34104
-2.3295
-2.31752
-2.30507
-2.29217
-2.27879
-2.26494
-2.25062
-2.44405
-2.43292
-2.42135
-2.40931
-2.39679
-2.38377
-2.37022
-2.35616
-2.34156
-2.32643
-2.31077
-2.5208
-2.50871
-2.49611
-2.483
-2.46933
-2.4551
-2.44028
-2.42487
-2.40886
-2.39226
-2.37506
-2.6039
-2.59068
-2.57689
-2.5625
-2.54749
-2.53184
-2.51553
-2.49856
-2.48092
-2.46262
-2.44365
-2.69395
-2.67939
-2.66417
-2.64827
-2.63166
-2.61434
-2.59627
-2.57746
-2.5579
-2.53759
-2.51655
-2.79162
-2.77545
-2.75851
-2.7408
-2.72229
-2.70296
-2.68281
-2.66182
-2.63999
-2.61734
-2.59388
-2.89769
-2.87956
-2.86055
-2.84064
-2.81984
-2.79811
-2.77547
-2.7519
-2.72742
-2.70205
-2.6758
-3.01304
-2.99252
-2.97098
-2.9484
-2.9248
-2.90018
-2.87455
-2.84792
-2.8203
-2.79173
-2.76221
-3.13872
-3.11526
-3.09059
-3.06473
-3.03772
-3.00957
-2.98032
-2.95
-2.91866
-2.88632
-2.85293
-3.27596
-3.24885
-3.22031
-3.19038
-3.15915
-3.12667
-3.09301
-3.05822
-3.02238
-2.9856
-2.94768
-3.4262
-3.39454
-3.36116
-3.32618
-3.28974
-3.25195
-3.21289
-3.17266
-3.13133
-3.08898
-3.04598
-3.59115
-3.55377
-3.51433
-3.47305
-3.43017
-3.38586
-3.34031
-3.29365
-3.24598
-3.19728
-3.14784
-3.77282
-3.72824
-3.68119
-3.63204
-3.58115
-3.52884
-3.47533
-3.42083
-3.3655
-3.30897
-3.25199
-3.97359
-3.9199
-3.86326
-3.80426
-3.74345
-3.68124
-3.61798
-3.55402
-3.48978
-3.4235
-3.35752
-4.19626
-4.13107
-4.06243
-3.99121
-3.91814
-3.84371
-3.76827
-3.69198
-3.61454
-3.53868
-3.46263
-4.44418
-4.36463
-4.28118
-4.19503
-4.1071
-4.018
-3.92817
-3.83801
-3.74622
-3.65581
-3.56658
-4.72166
-4.6245
-4.52302
-4.41865
-4.31247
-4.20527
-4.09802
-3.99183
-3.87971
-3.77154
-3.66631
-5.0356
-4.91741
-4.79405
-4.66706
-4.53755
-4.40626
-4.27343
-4.13685
-4.00817
-3.88101
-3.75712
-5.39804
-5.25443
-5.10356
-4.94735
-4.78758
-4.62637
-4.46595
-4.2966
-4.13638
-3.98238
-3.83508
-5.0598
-4.85609
-4.65296
-4.44917
-4.25549
-4.07078
-3.89651
-4.36463
-4.1458
-3.94199
)
;

boundaryField
{
    inlet
    {
        type            zeroGradient;
    }
    outlet
    {
        type            fixedValue;
        value           nonuniform 0();
    }
    cylinder
    {
        type            zeroGradient;
    }
    top
    {
        type            symmetryPlane;
    }
    bottom
    {
        type            symmetryPlane;
    }
    defaultFaces
    {
        type            empty;
    }
    procBoundary1to0
    {
        type            processor;
        value           nonuniform List<scalar> 
31
(
-1.77222
-1.77604
-1.78332
-1.79381
-1.80734
-1.81883
-1.81883
-1.83805
-1.86012
-1.88504
-1.91286
-1.94367
-1.97758
-2.01472
-2.05526
-2.0994
-2.14736
-2.1994
-2.25581
-2.31693
-2.38311
-2.45479
-2.53244
-2.61662
-2.70794
-2.80713
-2.91503
-3.03262
-3.16105
-3.30169
-3.45616
)
;
    }
    procBoundary1to2
    {
        type            processor;
        value           nonuniform List<scalar> 
33
(
-1.70331
-1.70674
-1.71326
-1.72262
-1.73469
-1.74934
-1.76652
-1.78618
-1.80834
-1.83299
-1.86018
-1.89
-1.92251
-1.95782
-1.99606
-2.03738
-2.08177
-2.1296
-2.1809
-2.23585
-2.29459
-2.35727
-2.42399
-2.49479
-2.56966
-2.64871
-2.7318
-2.81865
-2.90892
-3.00209
-3.0977
-3.19463
-3.29166
)
;
    }
    procBoundary1to6
    {
        type            processor;
        value           nonuniform List<scalar> 8(-3.6264 -3.81472 -4.02391 -4.25726 -4.51869 -4.81293 -5.14689 -5.5325);
    }
    procBoundary1to7
    {
        type            processor;
        value           nonuniform List<scalar> 
13
(
-4.41615
-4.17391
-3.95125
-5.82373
-5.64708
-5.45884
-5.26221
-5.26221
-5.34995
-5.09035
-4.83017
-4.59475
-4.59475
)
;
    }
    procBoundary1to8
    {
        type            processor;
        value           nonuniform List<scalar> 7(-3.38691 -3.47877 -3.56396 -3.63784 -3.6955 -3.73399 -3.7548);
    }
}


// ************************************************************************* //
