/*--------------------------------*- C++ -*----------------------------------*\
  =========                 |
  \\      /  F ield         | OpenFOAM: The Open Source CFD Toolbox
   \\    /   O peration     | Website:  https://openfoam.org
    \\  /    A nd           | Version:  7
     \\/     M anipulation  |
\*---------------------------------------------------------------------------*/
FoamFile
{
    version     2.0;
    format      ascii;
    class       surfaceScalarField;
    location    "14";
    object      phi;
}
// * * * * * * * * * * * * * * * * * * * * * * * * * * * * * * * * * * * * * //

dimensions      [0 3 -1 0 0 0 0];

internalField   nonuniform List<scalar> 
812
(
2.72489e-07
7.93871e-06
1.10773e-06
2.48973e-05
2.54839e-06
4.37994e-05
4.63681e-06
6.47967e-05
8.80483e-05
2.94422e-07
7.64429e-06
1.19897e-06
2.39928e-05
2.76233e-06
4.2236e-05
5.0335e-06
6.25255e-05
8.0612e-06
8.50206e-05
1.18933e-05
0.000109888
1.65758e-05
0.000137303
2.21525e-05
0.000167445
2.86634e-05
0.000200504
3.61439e-05
0.000236671
4.46233e-05
0.000276145
5.41237e-05
0.000319126
6.4658e-05
0.000365814
7.62287e-05
0.000416411
8.88255e-05
0.000471115
0.000530116
3.13699e-07
7.33059e-06
1.27942e-06
2.30271e-05
2.95146e-06
4.0564e-05
5.38505e-06
6.00919e-05
8.63581e-06
8.17698e-05
1.27591e-05
0.000105765
1.78095e-05
0.000132252
2.38396e-05
0.000161415
3.08996e-05
0.000193444
3.90356e-05
0.000228535
4.8289e-05
0.000266892
5.86943e-05
0.00030872
7.02783e-05
0.00035423
8.30579e-05
0.000403632
9.70385e-05
0.000457134
0.000112212
0.000514943
0.000128554
0.000577256
3.30219e-07
7.00037e-06
1.34864e-06
2.20086e-05
3.11477e-06
3.87978e-05
5.6896e-06
5.75171e-05
9.13517e-06
7.83242e-05
1.3514e-05
0.000101386
1.88886e-05
0.000126878
2.53203e-05
0.000154983
3.28688e-05
0.000185895
4.1591e-05
0.000219813
5.15397e-05
0.000256943
6.27622e-05
0.000297498
7.52988e-05
0.000341694
8.91812e-05
0.000389749
0.000104431
0.000441885
0.000121055
0.000498318
0.000559262
3.43922e-07
6.65645e-06
1.40639e-06
2.09462e-05
3.25159e-06
3.69526e-05
5.94582e-06
5.48229e-05
9.55704e-06
7.4713e-05
1.41544e-05
9.67885e-05
1.98079e-05
0.000121224
2.6587e-05
0.000148204
3.45609e-05
0.000177921
4.37964e-05
0.000210578
5.43575e-05
0.000246382
6.63041e-05
0.000285551
7.96898e-05
0.000328308
9.45611e-05
0.000374878
0.000110955
0.000425491
0.000128897
0.000480376
0.00053976
3.54785e-07
6.30167e-06
1.45253e-06
1.98484e-05
3.36161e-06
3.50435e-05
6.15306e-06
5.20314e-05
9.90025e-06
7.09658e-05
1.46784e-05
9.20103e-05
2.05643e-05
0.000115338
2.76354e-05
0.000141133
3.59693e-05
0.000169588
4.56425e-05
0.000200904
5.673e-05
0.000235295
6.93033e-05
0.000272978
8.34296e-05
0.000314182
9.91696e-05
0.000359138
0.000116576
0.000408084
0.000135692
0.00046126
0.000518904
3.62822e-07
5.93884e-06
1.48711e-06
1.87241e-05
3.44487e-06
3.30858e-05
6.31133e-06
4.91649e-05
1.01646e-05
6.71125e-05
1.50856e-05
8.70894e-05
2.11571e-05
0.000109267
2.84637e-05
0.000133826
3.70911e-05
0.00016096
4.71251e-05
0.00019087
5.86505e-05
0.000223769
7.17505e-05
0.000259878
8.65048e-05
0.000299427
0.000102988
0.000342654
0.00012127
0.000389803
0.000141408
0.000441122
3.68086e-07
5.57076e-06
1.51031e-06
1.75819e-05
3.50176e-06
3.10943e-05
6.42124e-06
4.62455e-05
1.03511e-05
6.31827e-05
1.53769e-05
8.20636e-05
2.15872e-05
0.000103057
2.90731e-05
0.000126341
3.79274e-05
0.000152106
4.82443e-05
0.000180553
6.01184e-05
0.000211895
7.36433e-05
0.000246353
8.8911e-05
0.00028416
0.00010601
0.000325555
0.000125024
0.00037079
0.000420117
3.70663e-07
5.20009e-06
1.52247e-06
1.64301e-05
3.53301e-06
2.90838e-05
6.48406e-06
4.32944e-05
1.04615e-05
5.92052e-05
1.55551e-05
7.697e-05
2.18582e-05
9.67534e-05
2.94676e-05
0.000118731
3.84827e-05
0.000143091
4.90054e-05
0.000170031
6.11388e-05
0.000199762
7.49868e-05
0.000232505
9.06524e-05
0.000268494
0.000108237
0.000307971
0.000127838
0.000351188
0.000398406
3.70675e-07
4.82942e-06
1.52406e-06
1.52767e-05
3.53966e-06
2.70682e-05
6.50163e-06
4.03324e-05
1.04987e-05
5.52082e-05
1.56241e-05
7.18446e-05
2.19753e-05
9.04022e-05
2.9654e-05
0.000111053
3.87654e-05
0.000133979
4.9418e-05
0.000159378
6.1723e-05
0.000187457
7.5793e-05
0.000218435
9.17418e-05
0.000252545
0.000109683
0.00029003
0.000129727
0.000331144
0.000151982
0.000376151
0.000425324
3.68271e-07
4.46115e-06
1.51568e-06
1.41293e-05
3.52307e-06
2.50608e-05
6.47634e-06
3.73792e-05
1.04664e-05
5.12181e-05
1.55893e-05
6.67218e-05
2.19457e-05
8.40457e-05
2.96416e-05
0.000103357
3.87869e-05
0.000124834
4.94961e-05
0.000148669
6.18871e-05
0.000175066
7.60808e-05
0.000204241
9.22003e-05
0.000236426
0.00011037
0.000271861
0.000130713
0.000310801
0.000153352
0.000353512
0.00040027
3.63628e-07
4.09752e-06
1.49802e-06
1.29949e-05
3.48482e-06
2.3074e-05
6.41103e-06
3.4453e-05
1.03691e-05
4.726e-05
1.54571e-05
6.16338e-05
2.17783e-05
7.77244e-05
2.94419e-05
9.56932e-05
3.85618e-05
0.000115714
4.92575e-05
0.000137973
6.16525e-05
0.000162671
7.58751e-05
0.000190019
9.20564e-05
0.000220244
0.00011033
0.000253587
0.000130832
0.000290299
0.000153697
0.000330647
0.000374908
3.56944e-07
3.74058e-06
1.47189e-06
1.188e-05
3.42671e-06
2.11192e-05
6.30894e-06
3.15707e-05
1.02119e-05
4.3357e-05
1.5235e-05
5.66108e-05
2.14833e-05
7.1476e-05
2.90683e-05
8.81082e-05
3.81072e-05
0.000106675
4.87232e-05
0.000127357
6.10448e-05
0.000150349
7.5206e-05
0.000175858
9.13452e-05
0.000204105
0.000109605
0.000235327
0.00013013
0.000269774
0.000153069
0.000307709
0.000349409
3.48431e-07
3.39215e-06
1.43813e-06
1.07903e-05
3.3507e-06
1.92066e-05
6.17361e-06
2.87478e-05
1.00005e-05
3.95301e-05
1.49311e-05
5.16801e-05
2.1072e-05
6.53352e-05
2.85359e-05
8.06444e-05
3.74422e-05
9.77688e-05
4.7917e-05
0.000116883
6.00928e-05
0.000138173
7.41081e-05
0.000161842
9.01074e-05
0.000188106
0.00010824
0.000217194
0.000128661
0.000249353
0.000151527
0.000284843
0.000176997
0.000323939
0.000366929
3.38313e-07
3.05383e-06
1.39766e-06
9.73092e-06
3.25884e-06
1.73455e-05
6.00875e-06
2.59979e-05
9.74062e-06
3.57983e-05
1.45543e-05
4.68665e-05
2.05563e-05
5.93332e-05
2.78604e-05
7.33403e-05
3.65872e-05
8.9042e-05
4.68646e-05
0.000106605
5.88279e-05
0.00012621
7.26192e-05
0.000148051
8.83875e-05
0.000172338
0.000106288
0.000199293
0.000126483
0.000229158
0.000149138
0.000262188
0.000174425
0.000298652
0.000202515
0.000338838
0.000383046
3.26812e-07
2.72702e-06
1.35136e-06
8.70638e-06
3.15321e-06
1.55436e-05
5.81812e-06
2.3333e-05
9.4384e-06
3.2178e-05
1.41131e-05
4.21917e-05
1.99486e-05
5.34977e-05
2.70582e-05
6.62307e-05
3.55632e-05
8.0537e-05
4.55924e-05
9.65759e-05
5.72827e-05
0.00011452
7.07785e-05
0.000134555
8.62324e-05
0.000156884
0.000103804
0.000181722
0.000123661
0.000209301
0.000145978
0.000239872
0.000170933
0.000273697
0.000198711
0.00031106
0.000352257
3.14145e-07
2.41288e-06
1.30012e-06
7.7204e-06
3.03582e-06
1.38079e-05
5.6054e-06
2.07634e-05
9.09968e-06
2.86837e-05
1.36164e-05
3.7675e-05
1.92608e-05
4.78534e-05
2.61455e-05
5.9346e-05
3.43911e-05
7.22913e-05
4.41268e-05
8.68403e-05
5.54896e-05
0.000103157
6.86256e-05
0.000121419
8.36893e-05
0.00014182
0.000100844
0.000164567
0.000120261
0.000189884
0.000142119
0.000218013
0.000166607
0.00024921
0.000193918
0.000283749
0.00022425
0.000321924
0.000364043
3.00513e-07
2.11236e-06
1.24476e-06
6.77615e-06
2.90855e-06
1.21441e-05
5.37402e-06
1.82979e-05
8.72997e-06
2.53278e-05
1.30723e-05
3.33326e-05
1.85044e-05
4.24213e-05
2.51374e-05
5.2713e-05
3.30908e-05
6.43379e-05
4.24927e-05
7.74384e-05
5.34799e-05
9.21697e-05
6.61985e-05
0.000108701
8.08039e-05
0.000127215
9.74611e-05
0.00014791
0.000116344
0.000171001
0.000137638
0.00019672
0.000161533
0.000225314
0.000188233
0.00025705
0.000217945
0.000292212
0.000250884
0.000331103
0.000374043
2.86091e-07
1.82627e-06
1.18599e-06
5.87625e-06
2.77308e-06
1.0557e-05
5.12703e-06
1.5944e-05
8.33417e-06
2.21206e-05
1.2488e-05
2.91788e-05
1.76895e-05
3.72198e-05
2.40478e-05
4.63547e-05
3.16802e-05
5.67055e-05
4.07131e-05
6.84055e-05
5.12819e-05
8.16009e-05
6.3532e-05
9.64506e-05
7.76184e-05
0.000113128
9.37066e-05
0.000131822
0.000111972
0.000152735
0.000132602
0.00017609
0.000155792
0.000202124
0.000181749
0.000231093
0.000210689
0.000263272
0.000242838
0.000298954
0.000278428
0.000338453
0.000382099
2.71027e-07
1.55524e-06
1.12442e-06
5.02286e-06
2.6308e-06
9.05065e-06
4.86698e-06
1.37078e-05
7.91644e-06
1.90712e-05
1.18697e-05
2.52255e-05
1.6825e-05
3.22645e-05
2.28884e-05
4.02913e-05
3.01748e-05
4.94191e-05
3.88077e-05
5.97726e-05
4.89207e-05
7.1488e-05
6.06568e-05
8.47145e-05
7.417e-05
9.9615e-05
8.96247e-05
0.000116367
0.000107197
0.000135163
0.000127074
0.000156213
0.000149454
0.000179744
0.000174548
0.000205999
0.000202578
0.000235242
0.000233777
0.000267756
0.000268387
0.000303843
0.00030666
0.000343826
0.000388047
2.55429e-07
1.29982e-06
1.06051e-06
4.21778e-06
2.48278e-06
7.62838e-06
4.5959e-06
1.15947e-05
7.48005e-06
1.6187e-05
1.12224e-05
2.14831e-05
1.59178e-05
2.75692e-05
2.16689e-05
3.45402e-05
2.85871e-05
4.25009e-05
3.67929e-05
5.15668e-05
4.64165e-05
6.18644e-05
5.75982e-05
7.35327e-05
7.04895e-05
8.67237e-05
8.52528e-05
0.000101604
0.000102063
0.000118353
0.000121106
0.00013717
0.000142582
0.000158268
0.000166703
0.000181878
0.000193694
0.00020825
0.000223794
0.000237656
0.000257254
0.000294335
0.000335312
2.39373e-07
1.06044e-06
9.94567e-07
3.46258e-06
2.3298e-06
6.29314e-06
4.31523e-06
9.60928e-06
7.0274e-06
1.34748e-05
1.05498e-05
1.79608e-05
1.49732e-05
2.31457e-05
2.03965e-05
2.91169e-05
2.6927e-05
3.59704e-05
3.46813e-05
4.38125e-05
4.37856e-05
5.27601e-05
5.43765e-05
6.29417e-05
6.66019e-05
7.44983e-05
8.06211e-05
8.75844e-05
9.6606e-05
0.000102368
0.000114741
0.000119035
0.000135225
0.000158271
0.000184104
2.22905e-07
8.37537e-07
9.26812e-07
2.75868e-06
2.17237e-06
5.04759e-06
4.02597e-06
7.75568e-06
6.56021e-06
1.09406e-05
9.8544e-06
1.46666e-05
1.39951e-05
1.9005e-05
1.90767e-05
2.40353e-05
2.52019e-05
2.98452e-05
3.24827e-05
3.65317e-05
4.10406e-05
4.42022e-05
5.10077e-05
5.29747e-05
6.25271e-05
7.57539e-05
9.0856e-05
2.06055e-07
6.31482e-07
8.57387e-07
2.10734e-06
2.01087e-06
3.8941e-06
3.7289e-06
6.03766e-06
6.07982e-06
8.58967e-06
9.13848e-06
1.16079e-05
1.29867e-05
1.51568e-05
1.77141e-05
1.9308e-05
2.34182e-05
3.02056e-05
3.81926e-05
1.88851e-07
4.42631e-07
7.86441e-07
1.50975e-06
1.8457e-06
2.83484e-06
3.4248e-06
5.58762e-06
8.40425e-06
1.19515e-05
1.71348e-07
7.14215e-07
)
;

boundaryField
{
    inlet
    {
        type            calculated;
        value           nonuniform 0();
    }
    outlet
    {
        type            calculated;
        value           nonuniform 0();
    }
    cylinder
    {
        type            calculated;
        value           uniform 0;
    }
    top
    {
        type            symmetryPlane;
        value           nonuniform 0();
    }
    bottom
    {
        type            symmetryPlane;
        value           nonuniform 0();
    }
    defaultFaces
    {
        type            empty;
        value           nonuniform 0();
    }
    procBoundary14to7
    {
        type            processor;
        value           nonuniform List<scalar> 
20
(
-8.2112e-06
-2.57326e-05
-4.524e-05
-6.68851e-05
-9.08259e-05
7.41447e-06
-0.00011372
-0.000141985
-0.000173022
-0.000207015
-0.000244152
-0.000284625
-0.000328626
-0.000376349
-0.000427982
-0.000483712
-0.000543715
0.000102424
-0.000593598
-0.000661732
)
;
    }
    procBoundary14to8
    {
        type            processor;
        value           nonuniform List<scalar> 
28
(
0.000146023
0.000644263
0.000139049
0.000148399
0.000156547
0.000163453
0.00049686
0.000146028
0.000149549
-0.000449892
0.00017655
0.000178405
0.000179059
0.000178568
-0.000395165
0.000205234
-0.000414116
0.000233585
0.0002295
-0.000397601
0.000257808
-0.00041043
0.000287272
-0.000421369
0.000317698
-0.000430243
0.000348855
-0.00043687
)
;
    }
    procBoundary14to9
    {
        type            processor;
        value           nonuniform List<scalar> 
30
(
0.000270383
0.000306744
0.000347071
0.000380466
0.000391716
0.000137784
0.000158832
0.000182417
0.000212966
0.000208793
6.2979e-05
7.43575e-05
8.72664e-05
0.000108015
0.000101876
2.4141e-05
2.97443e-05
3.62152e-05
4.75057e-05
4.36616e-05
4.45855e-06
6.42685e-06
8.79128e-06
1.16095e-05
1.63135e-05
1.49459e-05
2.71283e-07
9.66888e-07
1.67745e-06
1.87161e-06
)
;
    }
    procBoundary14to20
    {
        type            processor;
        value           nonuniform List<scalar> 2(1.71348e-07 -4.4263e-07);
    }
    procBoundary14to27
    {
        type            processor;
        value           uniform 2.71282e-07;
    }
}


// ************************************************************************* //
