/*--------------------------------*- C++ -*----------------------------------*\
  =========                 |
  \\      /  F ield         | OpenFOAM: The Open Source CFD Toolbox
   \\    /   O peration     | Website:  https://openfoam.org
    \\  /    A nd           | Version:  7
     \\/     M anipulation  |
\*---------------------------------------------------------------------------*/
FoamFile
{
    version     2.0;
    format      ascii;
    class       volScalarField;
    location    "25";
    object      p;
}
// * * * * * * * * * * * * * * * * * * * * * * * * * * * * * * * * * * * * * //

dimensions      [0 2 -2 0 0 0 0];

internalField   nonuniform List<scalar> 
15000
(
-0.243121
-0.243359
-0.243591
-0.243804
-0.244013
-0.244222
-0.244429
-0.244632
-0.244832
-0.245027
-0.245218
-0.245405
-0.245587
-0.245763
-0.245935
-0.246101
-0.246263
-0.246419
-0.246571
-0.246718
-0.24686
-0.246999
-0.247134
-0.247266
-0.247395
-0.247521
-0.247645
-0.247768
-0.247891
-0.248013
-0.248137
-0.248264
-0.248395
-0.248534
-0.248681
-0.248844
-0.249031
-0.249222
-0.249351
-0.249723
-0.243191
-0.243429
-0.24366
-0.243872
-0.244081
-0.244289
-0.244495
-0.244697
-0.244896
-0.245091
-0.245281
-0.245467
-0.245647
-0.245823
-0.245994
-0.246159
-0.246319
-0.246474
-0.246625
-0.24677
-0.246912
-0.247049
-0.247183
-0.247313
-0.24744
-0.247564
-0.247687
-0.247808
-0.247928
-0.248048
-0.24817
-0.248294
-0.248423
-0.248559
-0.248704
-0.248864
-0.249049
-0.249239
-0.249366
-0.249737
-0.243331
-0.243566
-0.243796
-0.244007
-0.244214
-0.24442
-0.244625
-0.244826
-0.245023
-0.245216
-0.245405
-0.245588
-0.245767
-0.245941
-0.24611
-0.246273
-0.246431
-0.246584
-0.246731
-0.246874
-0.247013
-0.247147
-0.247278
-0.247404
-0.247528
-0.247649
-0.247767
-0.247884
-0.248
-0.248115
-0.248232
-0.248351
-0.248475
-0.248606
-0.248746
-0.248901
-0.249082
-0.249268
-0.24939
-0.249761
-0.243539
-0.243772
-0.243999
-0.244207
-0.244412
-0.244617
-0.244819
-0.245017
-0.245212
-0.245403
-0.245589
-0.24577
-0.245946
-0.246117
-0.246282
-0.246442
-0.246597
-0.246746
-0.24689
-0.247029
-0.247163
-0.247293
-0.247419
-0.24754
-0.247658
-0.247773
-0.247886
-0.247996
-0.248105
-0.248214
-0.248323
-0.248435
-0.24855
-0.248673
-0.248805
-0.248953
-0.249127
-0.249308
-0.249423
-0.249791
-0.243814
-0.244043
-0.244267
-0.244473
-0.244675
-0.244877
-0.245076
-0.245271
-0.245463
-0.24565
-0.245833
-0.246011
-0.246183
-0.24635
-0.246511
-0.246667
-0.246817
-0.246961
-0.2471
-0.247234
-0.247362
-0.247486
-0.247605
-0.247719
-0.24783
-0.247937
-0.248042
-0.248143
-0.248243
-0.248342
-0.248441
-0.248542
-0.248646
-0.248758
-0.248879
-0.249016
-0.249181
-0.249355
-0.24946
-0.249825
-0.244155
-0.244381
-0.244601
-0.244804
-0.245002
-0.2452
-0.245395
-0.245587
-0.245775
-0.245958
-0.246137
-0.24631
-0.246478
-0.24664
-0.246796
-0.246946
-0.24709
-0.247228
-0.247361
-0.247487
-0.247608
-0.247724
-0.247835
-0.247941
-0.248042
-0.248139
-0.248233
-0.248323
-0.248411
-0.248497
-0.248583
-0.24867
-0.24876
-0.248857
-0.248964
-0.249087
-0.24924
-0.249403
-0.249495
-0.249855
-0.244561
-0.244783
-0.244999
-0.245197
-0.245392
-0.245586
-0.245777
-0.245964
-0.246147
-0.246326
-0.246499
-0.246667
-0.246829
-0.246985
-0.247135
-0.247279
-0.247416
-0.247546
-0.247671
-0.247789
-0.247901
-0.248007
-0.248107
-0.248202
-0.248292
-0.248377
-0.248458
-0.248534
-0.248607
-0.248677
-0.248746
-0.248816
-0.248888
-0.248966
-0.249054
-0.24916
-0.249297
-0.249447
-0.249523
-0.249877
-0.245032
-0.245249
-0.24546
-0.245654
-0.245844
-0.246033
-0.246219
-0.246401
-0.246579
-0.246752
-0.246919
-0.247081
-0.247237
-0.247386
-0.247528
-0.247664
-0.247793
-0.247915
-0.248029
-0.248137
-0.248239
-0.248333
-0.248422
-0.248504
-0.248579
-0.24865
-0.248714
-0.248773
-0.248828
-0.248879
-0.248928
-0.248976
-0.249026
-0.249082
-0.249147
-0.24923
-0.249347
-0.249481
-0.249536
-0.249883
-0.245565
-0.245776
-0.245982
-0.246171
-0.246356
-0.24654
-0.246721
-0.246897
-0.247069
-0.247236
-0.247397
-0.247552
-0.2477
-0.247841
-0.247975
-0.248102
-0.248221
-0.248332
-0.248436
-0.248532
-0.248621
-0.248702
-0.248776
-0.248843
-0.248902
-0.248955
-0.249
-0.24904
-0.249073
-0.249101
-0.249126
-0.249148
-0.249171
-0.249198
-0.249235
-0.249291
-0.249383
-0.249495
-0.249526
-0.249862
-0.246159
-0.246366
-0.246566
-0.24675
-0.246929
-0.247107
-0.247282
-0.247452
-0.247618
-0.247777
-0.247931
-0.248078
-0.248217
-0.248349
-0.248474
-0.24859
-0.248698
-0.248798
-0.248889
-0.248972
-0.249046
-0.249112
-0.249169
-0.249218
-0.249259
-0.249291
-0.249315
-0.249331
-0.249339
-0.249341
-0.249336
-0.249328
-0.249318
-0.249312
-0.249315
-0.249337
-0.249398
-0.249484
-0.249484
-0.249804
-0.246815
-0.247015
-0.24721
-0.247388
-0.247562
-0.247734
-0.247902
-0.248065
-0.248223
-0.248375
-0.248521
-0.248659
-0.248789
-0.248911
-0.249025
-0.249129
-0.249225
-0.249311
-0.249388
-0.249455
-0.249513
-0.249562
-0.2496
-0.249629
-0.249648
-0.249657
-0.249656
-0.249646
-0.249625
-0.249595
-0.249557
-0.249513
-0.249465
-0.249419
-0.249381
-0.249362
-0.249385
-0.249437
-0.2494
-0.249699
-0.247531
-0.247725
-0.247914
-0.248086
-0.248254
-0.248419
-0.24858
-0.248736
-0.248886
-0.24903
-0.249166
-0.249294
-0.249414
-0.249525
-0.249627
-0.249718
-0.2498
-0.249871
-0.249932
-0.249983
-0.250022
-0.250051
-0.250069
-0.250075
-0.25007
-0.250053
-0.250024
-0.249982
-0.249929
-0.249864
-0.249787
-0.249701
-0.24961
-0.249517
-0.249429
-0.249361
-0.249337
-0.249348
-0.249267
-0.249532
-0.248307
-0.248495
-0.248678
-0.248844
-0.249005
-0.249163
-0.249317
-0.249465
-0.249607
-0.249741
-0.249867
-0.249985
-0.250093
-0.250191
-0.25028
-0.250357
-0.250423
-0.250478
-0.250522
-0.250553
-0.250572
-0.250579
-0.250574
-0.250555
-0.250523
-0.250477
-0.250417
-0.250341
-0.250251
-0.250146
-0.250025
-0.249892
-0.24975
-0.249602
-0.249457
-0.249329
-0.249247
-0.249208
-0.249074
-0.249279
-0.249144
-0.249326
-0.249502
-0.249661
-0.249816
-0.249967
-0.250112
-0.250252
-0.250384
-0.250508
-0.250624
-0.250729
-0.250825
-0.25091
-0.250984
-0.251045
-0.251095
-0.251132
-0.251156
-0.251166
-0.251164
-0.251147
-0.251116
-0.25107
-0.251008
-0.25093
-0.250835
-0.250723
-0.250592
-0.250442
-0.250273
-0.250086
-0.249885
-0.249675
-0.249463
-0.249264
-0.249112
-0.249012
-0.248817
-0.248878
-0.250042
-0.250218
-0.250387
-0.25054
-0.250687
-0.25083
-0.250967
-0.251097
-0.251219
-0.251332
-0.251436
-0.251529
-0.251611
-0.251681
-0.251739
-0.251783
-0.251814
-0.251831
-0.251834
-0.251823
-0.251796
-0.251753
-0.251694
-0.251619
-0.251525
-0.251413
-0.251281
-0.251128
-0.250952
-0.250753
-0.250531
-0.250285
-0.250019
-0.249737
-0.249448
-0.249167
-0.248932
-0.248761
-0.248513
-0.248319
-0.251004
-0.251173
-0.251335
-0.25148
-0.251619
-0.251754
-0.251882
-0.252002
-0.252113
-0.252214
-0.252305
-0.252384
-0.252451
-0.252505
-0.252545
-0.252571
-0.252582
-0.252578
-0.252558
-0.252522
-0.252469
-0.252399
-0.25231
-0.252203
-0.252075
-0.251926
-0.251755
-0.251558
-0.251335
-0.251084
-0.250803
-0.250492
-0.250154
-0.249792
-0.249415
-0.249041
-0.24871
-0.248439
-0.248074
-0.248045
-0.25203
-0.252192
-0.252346
-0.252484
-0.252615
-0.25274
-0.252858
-0.252967
-0.253066
-0.253155
-0.253232
-0.253296
-0.253347
-0.253383
-0.253404
-0.25341
-0.253399
-0.253372
-0.253327
-0.253265
-0.253184
-0.253084
-0.252964
-0.252823
-0.25266
-0.252472
-0.252258
-0.252016
-0.251742
-0.251435
-0.251093
-0.250712
-0.250295
-0.249845
-0.249369
-0.248888
-0.248445
-0.248054
-0.247555
-0.247567
-0.253124
-0.253278
-0.253424
-0.253554
-0.253675
-0.253791
-0.253898
-0.253995
-0.254081
-0.254156
-0.254218
-0.254265
-0.254298
-0.254315
-0.254316
-0.2543
-0.254266
-0.254213
-0.254142
-0.254052
-0.253942
-0.25381
-0.253657
-0.25348
-0.253279
-0.253051
-0.252793
-0.252504
-0.252178
-0.251813
-0.251405
-0.250951
-0.25045
-0.249904
-0.249318
-0.248714
-0.24814
-0.247607
-0.246947
-0.246905
-0.254288
-0.254434
-0.254571
-0.254692
-0.254804
-0.254908
-0.255003
-0.255088
-0.25516
-0.255219
-0.255264
-0.255294
-0.255307
-0.255303
-0.255282
-0.255242
-0.255183
-0.255104
-0.255004
-0.254884
-0.254742
-0.254578
-0.254389
-0.254176
-0.253935
-0.253665
-0.253363
-0.253024
-0.252645
-0.25222
-0.251745
-0.251214
-0.250625
-0.249976
-0.249271
-0.248529
-0.247801
-0.247099
-0.246243
-0.246091
-0.255526
-0.255662
-0.25579
-0.255901
-0.256002
-0.256095
-0.256177
-0.256247
-0.256304
-0.256346
-0.256373
-0.256383
-0.256375
-0.256349
-0.256304
-0.256238
-0.256151
-0.256044
-0.255914
-0.255762
-0.255586
-0.255387
-0.255162
-0.254909
-0.254628
-0.254315
-0.253967
-0.253579
-0.253145
-0.252661
-0.252118
-0.251509
-0.250829
-0.250072
-0.24924
-0.248346
-0.247443
-0.24654
-0.245442
-0.245122
-0.256841
-0.256968
-0.257085
-0.257185
-0.257275
-0.257354
-0.257422
-0.257477
-0.257517
-0.25754
-0.257547
-0.257536
-0.257505
-0.257454
-0.257382
-0.257289
-0.257173
-0.257034
-0.256872
-0.256686
-0.256475
-0.256238
-0.255974
-0.255682
-0.255359
-0.255002
-0.254607
-0.254169
-0.253681
-0.253137
-0.252527
-0.251841
-0.251069
-0.250202
-0.249236
-0.248178
-0.247079
-0.245943
-0.244548
-0.243984
-0.258238
-0.258354
-0.25846
-0.258548
-0.258625
-0.25869
-0.258742
-0.25878
-0.258801
-0.258805
-0.25879
-0.258755
-0.258699
-0.258621
-0.25852
-0.258396
-0.258249
-0.258076
-0.257879
-0.257656
-0.257407
-0.257131
-0.256827
-0.256493
-0.256127
-0.255724
-0.255282
-0.254794
-0.254253
-0.25365
-0.252974
-0.252212
-0.251349
-0.250373
-0.249269
-0.24804
-0.246726
-0.245325
-0.243572
-0.242667
-0.259722
-0.259826
-0.25992
-0.259995
-0.260057
-0.260106
-0.260141
-0.26016
-0.260161
-0.260142
-0.260103
-0.260042
-0.259959
-0.259852
-0.25972
-0.259563
-0.259381
-0.259172
-0.258937
-0.258675
-0.258385
-0.258068
-0.257721
-0.257342
-0.256931
-0.256482
-0.255992
-0.255454
-0.25486
-0.254199
-0.253459
-0.252623
-0.251674
-0.25059
-0.24935
-0.247943
-0.2464
-0.244704
-0.24253
-0.241161
-0.261299
-0.26139
-0.261469
-0.26153
-0.261576
-0.261609
-0.261625
-0.261622
-0.261601
-0.261558
-0.261492
-0.261403
-0.261289
-0.26115
-0.260984
-0.260791
-0.260571
-0.260323
-0.260047
-0.259742
-0.259409
-0.259047
-0.258654
-0.258229
-0.25777
-0.257273
-0.256734
-0.256145
-0.255498
-0.254781
-0.253979
-0.253073
-0.252041
-0.250855
-0.249483
-0.247899
-0.246119
-0.244104
-0.241444
-0.239461
-0.262974
-0.263051
-0.263115
-0.26316
-0.263189
-0.263202
-0.263197
-0.263172
-0.263125
-0.263055
-0.262961
-0.262841
-0.262694
-0.262519
-0.262316
-0.262084
-0.261822
-0.261531
-0.261211
-0.26086
-0.26048
-0.26007
-0.259628
-0.259153
-0.258644
-0.258097
-0.257506
-0.256865
-0.256164
-0.255392
-0.25453
-0.253559
-0.252449
-0.251168
-0.249672
-0.247918
-0.245899
-0.243551
-0.240351
-0.237579
-0.264755
-0.264816
-0.264864
-0.264891
-0.264902
-0.264894
-0.264865
-0.264815
-0.264741
-0.264642
-0.264515
-0.264361
-0.264178
-0.263964
-0.26372
-0.263445
-0.263138
-0.262801
-0.262432
-0.262032
-0.2616
-0.261138
-0.260643
-0.260115
-0.259552
-0.258951
-0.258306
-0.257612
-0.256857
-0.256029
-0.255111
-0.254077
-0.252897
-0.251531
-0.249924
-0.248016
-0.24577
-0.243094
-0.23933
-0.235589
-0.26665
-0.266694
-0.266724
-0.266732
-0.266721
-0.26669
-0.266637
-0.266559
-0.266455
-0.266323
-0.266161
-0.26597
-0.265746
-0.26549
-0.265202
-0.26488
-0.264524
-0.264135
-0.263714
-0.263259
-0.262773
-0.262253
-0.261702
-0.261116
-0.260496
-0.259837
-0.259136
-0.258385
-0.257575
-0.256692
-0.255718
-0.254628
-0.253387
-0.251951
-0.250254
-0.248217
-0.245775
-0.242802
-0.238494
-0.233617
-0.268669
-0.268694
-0.268703
-0.268691
-0.268657
-0.2686
-0.268519
-0.268411
-0.268273
-0.268106
-0.267906
-0.267673
-0.267406
-0.267104
-0.266767
-0.266394
-0.265985
-0.265541
-0.265062
-0.264549
-0.264002
-0.263422
-0.262808
-0.262161
-0.261479
-0.260759
-0.259997
-0.259187
-0.25832
-0.257383
-0.256357
-0.255217
-0.253929
-0.252445
-0.250692
-0.24857
-0.245981
-0.242742
-0.237817
-0.231504
-0.270821
-0.270826
-0.270813
-0.270777
-0.270718
-0.270633
-0.270521
-0.27038
-0.270206
-0.27
-0.269758
-0.269481
-0.269166
-0.268814
-0.268423
-0.267995
-0.267528
-0.267024
-0.266483
-0.265906
-0.265294
-0.264648
-0.263969
-0.263255
-0.262506
-0.261721
-0.260896
-0.260025
-0.2591
-0.258109
-0.257037
-0.255859
-0.254546
-0.253051
-0.251303
-0.249199
-0.246607
-0.243197
-0.237414
-0.229094
-0.273119
-0.273101
-0.273064
-0.273003
-0.272915
-0.2728
-0.272655
-0.272476
-0.272263
-0.272014
-0.271727
-0.271401
-0.271035
-0.270628
-0.27018
-0.269691
-0.269162
-0.268593
-0.267985
-0.26734
-0.266659
-0.265942
-0.265192
-0.264407
-0.263588
-0.262734
-0.261842
-0.260907
-0.259924
-0.258883
-0.257771
-0.256571
-0.255262
-0.253813
-0.252179
-0.250303
-0.248114
-0.245228
-0.239863
-0.232374
-0.275575
-0.275532
-0.275468
-0.275379
-0.275261
-0.275112
-0.27493
-0.274711
-0.274455
-0.27416
-0.273823
-0.273444
-0.273022
-0.272556
-0.272046
-0.271493
-0.270896
-0.270258
-0.269579
-0.268861
-0.268106
-0.267314
-0.266488
-0.265628
-0.264736
-0.263809
-0.262848
-0.261848
-0.260807
-0.259718
-0.258573
-0.257365
-0.256086
-0.254732
-0.25331
-0.251862
-0.250502
-0.249286
-0.249135
-0.260456
-0.278204
-0.278133
-0.278039
-0.277919
-0.277768
-0.277582
-0.277359
-0.277097
-0.276794
-0.276448
-0.276058
-0.275622
-0.275139
-0.27461
-0.274034
-0.273411
-0.272743
-0.272031
-0.271277
-0.270482
-0.269648
-0.268777
-0.267872
-0.266933
-0.265963
-0.264961
-0.263928
-0.262863
-0.261763
-0.260627
-0.259453
-0.258243
-0.257005
-0.255759
-0.254555
-0.253507
-0.252851
-0.252873
-0.254741
-0.267937
-0.281021
-0.280919
-0.280792
-0.280638
-0.280449
-0.280222
-0.279955
-0.279646
-0.279292
-0.278892
-0.278443
-0.277946
-0.277399
-0.276802
-0.276155
-0.275459
-0.274715
-0.273925
-0.273091
-0.272215
-0.271299
-0.270345
-0.269357
-0.268337
-0.267287
-0.266207
-0.265101
-0.263967
-0.262808
-0.261624
-0.260421
-0.259208
-0.258005
-0.256852
-0.255826
-0.255075
-0.254871
-0.255561
-0.257989
-0.269478
-0.284042
-0.283905
-0.283741
-0.283549
-0.283319
-0.283048
-0.282733
-0.282372
-0.281963
-0.281503
-0.280993
-0.28043
-0.279814
-0.279145
-0.278423
-0.27765
-0.276826
-0.275954
-0.275037
-0.274075
-0.273074
-0.272035
-0.270961
-0.269857
-0.268724
-0.267564
-0.266382
-0.265178
-0.263957
-0.262723
-0.261485
-0.260259
-0.259074
-0.257981
-0.257068
-0.256488
-0.256501
-0.257423
-0.259797
-0.269073
-0.287282
-0.287107
-0.286901
-0.286668
-0.286393
-0.286073
-0.285706
-0.285289
-0.28482
-0.284298
-0.28372
-0.283087
-0.282398
-0.281653
-0.280852
-0.279998
-0.27909
-0.278133
-0.277128
-0.276079
-0.27499
-0.273862
-0.272701
-0.271509
-0.270291
-0.26905
-0.267788
-0.266511
-0.265223
-0.263931
-0.262647
-0.261391
-0.260196
-0.259114
-0.258234
-0.257693
-0.257706
-0.258522
-0.260436
-0.267353
-0.290759
-0.29054
-0.290289
-0.290009
-0.289685
-0.289312
-0.288888
-0.28841
-0.287877
-0.287288
-0.286639
-0.285932
-0.285166
-0.28434
-0.283457
-0.282517
-0.281523
-0.280477
-0.279383
-0.278243
-0.277062
-0.275844
-0.274592
-0.273312
-0.272006
-0.270679
-0.269335
-0.267979
-0.266616
-0.265255
-0.263909
-0.262598
-0.261354
-0.260226
-0.259291
-0.258662
-0.258496
-0.258964
-0.260191
-0.264847
-0.294488
-0.29422
-0.293918
-0.293588
-0.29321
-0.292779
-0.292293
-0.291751
-0.291149
-0.290487
-0.289764
-0.288978
-0.28813
-0.287221
-0.286251
-0.285223
-0.284139
-0.283002
-0.281815
-0.280582
-0.279308
-0.277996
-0.276652
-0.275279
-0.273882
-0.272465
-0.271033
-0.269589
-0.268141
-0.266695
-0.265264
-0.263866
-0.262529
-0.261294
-0.26022
-0.259389
-0.258907
-0.258871
-0.259305
-0.261925
-0.298483
-0.298161
-0.297804
-0.297418
-0.296981
-0.296487
-0.295935
-0.295323
-0.294649
-0.29391
-0.293107
-0.292239
-0.291306
-0.290309
-0.28925
-0.28813
-0.286953
-0.285722
-0.28444
-0.283112
-0.281742
-0.280334
-0.278894
-0.277425
-0.275933
-0.27442
-0.27289
-0.271348
-0.269799
-0.268248
-0.266705
-0.265183
-0.263705
-0.2623
-0.261008
-0.259884
-0.258986
-0.258357
-0.257966
-0.258828
-0.302759
-0.302378
-0.301959
-0.301511
-0.301011
-0.30045
-0.299827
-0.29914
-0.298388
-0.297569
-0.296682
-0.295728
-0.294706
-0.293619
-0.292467
-0.291253
-0.28998
-0.288652
-0.287273
-0.285846
-0.284378
-0.282871
-0.281331
-0.279762
-0.278167
-0.276549
-0.274911
-0.273256
-0.271586
-0.269904
-0.268217
-0.266532
-0.264863
-0.263227
-0.26165
-0.260159
-0.25878
-0.257518
-0.256318
-0.255705
-0.307327
-0.30688
-0.306394
-0.30588
-0.305311
-0.304678
-0.303979
-0.303213
-0.302379
-0.301475
-0.300501
-0.299457
-0.298343
-0.297161
-0.295913
-0.294602
-0.293231
-0.291804
-0.290325
-0.288798
-0.287228
-0.285618
-0.283973
-0.282296
-0.28059
-0.278856
-0.277095
-0.275308
-0.273493
-0.271652
-0.269784
-0.267893
-0.265984
-0.264063
-0.262142
-0.260231
-0.258332
-0.256429
-0.254465
-0.252641
-0.312197
-0.311678
-0.311119
-0.310534
-0.309891
-0.30918
-0.3084
-0.307551
-0.306631
-0.305638
-0.304573
-0.303435
-0.302226
-0.300948
-0.299602
-0.298191
-0.29672
-0.295191
-0.293609
-0.291977
-0.290301
-0.288583
-0.286826
-0.285033
-0.283204
-0.281339
-0.279436
-0.277494
-0.275508
-0.273473
-0.271387
-0.269246
-0.267048
-0.264793
-0.262481
-0.260112
-0.257676
-0.255147
-0.252475
-0.249672
-0.317376
-0.316778
-0.31614
-0.315479
-0.314757
-0.313963
-0.313099
-0.312162
-0.311152
-0.310067
-0.308907
-0.307673
-0.306366
-0.304988
-0.303541
-0.302029
-0.300454
-0.29882
-0.297132
-0.295392
-0.293604
-0.29177
-0.289892
-0.287971
-0.286004
-0.28399
-0.281924
-0.279799
-0.277609
-0.275346
-0.273
-0.270565
-0.268034
-0.265402
-0.262663
-0.259811
-0.256834
-0.253708
-0.250392
-0.246802
-0.322866
-0.322185
-0.321461
-0.320719
-0.319913
-0.319033
-0.31808
-0.317051
-0.315947
-0.314767
-0.313509
-0.312176
-0.310769
-0.309289
-0.307738
-0.306121
-0.30444
-0.302698
-0.300899
-0.299045
-0.297138
-0.295179
-0.293169
-0.291104
-0.288982
-0.286797
-0.28454
-0.282203
-0.279774
-0.277243
-0.274596
-0.271825
-0.26892
-0.265874
-0.26268
-0.259333
-0.255823
-0.252132
-0.248234
-0.244009
-0.328669
-0.327897
-0.327084
-0.326255
-0.325362
-0.324391
-0.323344
-0.322221
-0.32102
-0.319741
-0.318383
-0.316949
-0.315438
-0.313854
-0.312198
-0.310473
-0.308682
-0.306827
-0.304911
-0.302936
-0.300901
-0.298806
-0.296647
-0.294422
-0.292122
-0.289739
-0.287262
-0.284678
-0.281973
-0.279133
-0.276146
-0.272998
-0.269683
-0.266193
-0.262525
-0.258678
-0.254647
-0.250428
-0.246003
-0.241259
-0.33478
-0.333913
-0.333004
-0.332084
-0.331099
-0.330034
-0.328891
-0.32767
-0.32637
-0.324989
-0.32353
-0.321991
-0.320376
-0.318685
-0.31692
-0.315084
-0.313179
-0.311206
-0.309166
-0.30706
-0.304885
-0.302638
-0.300315
-0.297906
-0.295403
-0.292792
-0.290061
-0.287193
-0.284172
-0.280984
-0.277615
-0.274055
-0.270298
-0.266341
-0.262188
-0.257842
-0.253308
-0.248594
-0.243692
-0.23851
-0.341191
-0.340223
-0.339214
-0.3382
-0.33712
-0.335957
-0.334715
-0.333394
-0.331992
-0.330509
-0.328945
-0.327301
-0.325578
-0.323777
-0.321901
-0.31995
-0.317925
-0.315827
-0.313655
-0.311406
-0.309077
-0.306661
-0.304149
-0.301532
-0.298795
-0.295924
-0.292901
-0.28971
-0.286333
-0.282757
-0.27897
-0.274964
-0.27074
-0.2663
-0.261655
-0.256817
-0.2518
-0.246621
-0.241284
-0.235723
-0.347889
-0.346815
-0.345702
-0.344591
-0.343412
-0.34215
-0.340807
-0.339383
-0.337878
-0.33629
-0.33462
-0.332869
-0.331037
-0.329125
-0.327133
-0.325062
-0.322911
-0.320679
-0.318362
-0.315957
-0.313455
-0.310848
-0.308124
-0.305268
-0.302265
-0.299096
-0.295743
-0.292189
-0.288417
-0.284415
-0.280175
-0.275697
-0.270985
-0.266052
-0.260915
-0.255594
-0.250114
-0.244498
-0.238761
-0.232858
-0.354854
-0.353672
-0.352451
-0.351239
-0.34996
-0.348597
-0.347151
-0.345624
-0.344014
-0.342321
-0.340544
-0.338684
-0.33674
-0.334713
-0.332601
-0.330404
-0.328118
-0.325741
-0.323267
-0.320687
-0.317992
-0.315169
-0.312203
-0.309076
-0.30577
-0.302266
-0.298543
-0.294585
-0.290379
-0.285917
-0.281196
-0.276223
-0.27101
-0.265578
-0.259953
-0.254162
-0.248238
-0.242211
-0.2361
-0.229883
-0.362063
-0.360768
-0.359437
-0.358123
-0.356743
-0.355276
-0.353727
-0.352096
-0.350382
-0.348582
-0.346698
-0.344727
-0.342669
-0.340522
-0.338285
-0.335954
-0.333524
-0.330988
-0.328339
-0.325565
-0.322653
-0.319585
-0.316345
-0.312912
-0.309265
-0.305384
-0.301251
-0.296851
-0.292176
-0.287223
-0.281997
-0.276512
-0.270791
-0.26486
-0.258755
-0.252509
-0.246161
-0.239744
-0.233284
-0.226768
-0.369485
-0.368075
-0.366632
-0.365215
-0.363732
-0.362163
-0.36051
-0.358776
-0.356956
-0.355051
-0.353057
-0.350974
-0.348798
-0.346528
-0.344158
-0.341683
-0.339096
-0.336387
-0.333544
-0.330552
-0.327394
-0.324051
-0.320501
-0.316723
-0.312696
-0.308399
-0.303817
-0.298939
-0.293764
-0.288294
-0.282545
-0.276538
-0.270305
-0.263881
-0.257306
-0.250622
-0.243868
-0.237083
-0.230293
-0.22349
-0.377082
-0.375555
-0.374
-0.372479
-0.370895
-0.369223
-0.367468
-0.36563
-0.363706
-0.361694
-0.35959
-0.357392
-0.355096
-0.352696
-0.350185
-0.347556
-0.344797
-0.341895
-0.338835
-0.335599
-0.332165
-0.328512
-0.324616
-0.320455
-0.316007
-0.311255
-0.306188
-0.3008
-0.295097
-0.289091
-0.282806
-0.276274
-0.269531
-0.262623
-0.255593
-0.248487
-0.241347
-0.234213
-0.227108
-0.22003
-0.384809
-0.383166
-0.381498
-0.379875
-0.37819
-0.376417
-0.374561
-0.372621
-0.370594
-0.368475
-0.36626
-0.363945
-0.361523
-0.358985
-0.356324
-0.353527
-0.350579
-0.347464
-0.344162
-0.340652
-0.33691
-0.33291
-0.32863
-0.324046
-0.319139
-0.313895
-0.30831
-0.302385
-0.296133
-0.289578
-0.282751
-0.275693
-0.268449
-0.261068
-0.2536
-0.246091
-0.238584
-0.231118
-0.223715
-0.216371
-0.392616
-0.390857
-0.389078
-0.387353
-0.38557
-0.383699
-0.381744
-0.379704
-0.377574
-0.375349
-0.373021
-0.370585
-0.368031
-0.365348
-0.362524
-0.359543
-0.356387
-0.353035
-0.349464
-0.345649
-0.341563
-0.337181
-0.332478
-0.327432
-0.32203
-0.316262
-0.31013
-0.303646
-0.296831
-0.289718
-0.282349
-0.274771
-0.267037
-0.2592
-0.251311
-0.243418
-0.235563
-0.227783
-0.220098
-0.212497
-0.400445
-0.398571
-0.396683
-0.394861
-0.392982
-0.391016
-0.388964
-0.386826
-0.384595
-0.382262
-0.37982
-0.377259
-0.374566
-0.371728
-0.368728
-0.365546
-0.36216
-0.358545
-0.354675
-0.350522
-0.346057
-0.341254
-0.336091
-0.330549
-0.324618
-0.318297
-0.311596
-0.304536
-0.29715
-0.289478
-0.281572
-0.273486
-0.265277
-0.257001
-0.248711
-0.240454
-0.232271
-0.224196
-0.216242
-0.208397
-0.408228
-0.406244
-0.40425
-0.402334
-0.400364
-0.398305
-0.396161
-0.393928
-0.391596
-0.389156
-0.386597
-0.383906
-0.381067
-0.378061
-0.374869
-0.371466
-0.367827
-0.363922
-0.359722
-0.355196
-0.350317
-0.345058
-0.339399
-0.333328
-0.32684
-0.319943
-0.312657
-0.305012
-0.297052
-0.288826
-0.280393
-0.271814
-0.263148
-0.254454
-0.245785
-0.237185
-0.228692
-0.22034
-0.212133
-0.204057
-0.415895
-0.413803
-0.411709
-0.409704
-0.407647
-0.405501
-0.403268
-0.400942
-0.398511
-0.395964
-0.393284
-0.390457
-0.387461
-0.384276
-0.380875
-0.37723
-0.373312
-0.369088
-0.364527
-0.359596
-0.354267
-0.348518
-0.342332
-0.335703
-0.328635
-0.321145
-0.313263
-0.305031
-0.296501
-0.287731
-0.278787
-0.269733
-0.260632
-0.251543
-0.242516
-0.233594
-0.224812
-0.216201
-0.207757
-0.199467
-0.423366
-0.421173
-0.418985
-0.416895
-0.414757
-0.412529
-0.410211
-0.407795
-0.405267
-0.40261
-0.399807
-0.396836
-0.393673
-0.390293
-0.386665
-0.382756
-0.378533
-0.373962
-0.369007
-0.363638
-0.357828
-0.351558
-0.344817
-0.337607
-0.329942
-0.321849
-0.313369
-0.304553
-0.295462
-0.286165
-0.276728
-0.267222
-0.25771
-0.248248
-0.238887
-0.229665
-0.220616
-0.211766
-0.203101
-0.194613
-0.430557
-0.42827
-0.425993
-0.423827
-0.421614
-0.41931
-0.416911
-0.414408
-0.411782
-0.409015
-0.406083
-0.402961
-0.39962
-0.396029
-0.392154
-0.387959
-0.383405
-0.378457
-0.373079
-0.367241
-0.360921
-0.354103
-0.346785
-0.338977
-0.330704
-0.322005
-0.312929
-0.30354
-0.293905
-0.284099
-0.274194
-0.264261
-0.254362
-0.244554
-0.234882
-0.225384
-0.216089
-0.20702
-0.198152
-0.189486
-0.437378
-0.435004
-0.432648
-0.430412
-0.428131
-0.425756
-0.423282
-0.420694
-0.417973
-0.415092
-0.412026
-0.408744
-0.405213
-0.401395
-0.397254
-0.392748
-0.387838
-0.382485
-0.376656
-0.370322
-0.363465
-0.356078
-0.348167
-0.339752
-0.330868
-0.321565
-0.311904
-0.301957
-0.291799
-0.281509
-0.271162
-0.260828
-0.25057
-0.240442
-0.230486
-0.220735
-0.211216
-0.201949
-0.192896
-0.184073
-0.443735
-0.441284
-0.438857
-0.436559
-0.434217
-0.431778
-0.429233
-0.426565
-0.423747
-0.420751
-0.417545
-0.414094
-0.410358
-0.406298
-0.40187
-0.397031
-0.391739
-0.385957
-0.379651
-0.372797
-0.365385
-0.357413
-0.348898
-0.339872
-0.33038
-0.320484
-0.310255
-0.299771
-0.289116
-0.278369
-0.267609
-0.256905
-0.246317
-0.235896
-0.225681
-0.215702
-0.205983
-0.19654
-0.187322
-0.178364
-0.44953
-0.447012
-0.444524
-0.442173
-0.439779
-0.437282
-0.434671
-0.431924
-0.429011
-0.425897
-0.422545
-0.418914
-0.414962
-0.410641
-0.405907
-0.400714
-0.395018
-0.388783
-0.381978
-0.374587
-0.366604
-0.358038
-0.348917
-0.339283
-0.329194
-0.318722
-0.307946
-0.296953
-0.285828
-0.274657
-0.263515
-0.252471
-0.241584
-0.230899
-0.220453
-0.210271
-0.200376
-0.190779
-0.181418
-0.172348
-0.454664
-0.452089
-0.449551
-0.447157
-0.444718
-0.442171
-0.439499
-0.436676
-0.433667
-0.430431
-0.426926
-0.423107
-0.418924
-0.414328
-0.40927
-0.403702
-0.397582
-0.390875
-0.383556
-0.375613
-0.367051
-0.357889
-0.348165
-0.337935
-0.327266
-0.31624
-0.304945
-0.293473
-0.281913
-0.27035
-0.258861
-0.24751
-0.236354
-0.225435
-0.214785
-0.204428
-0.194381
-0.184656
-0.175172
-0.166016
-0.459036
-0.456416
-0.453839
-0.451411
-0.448936
-0.446345
-0.443618
-0.440721
-0.437616
-0.434255
-0.430591
-0.426573
-0.422148
-0.417262
-0.411863
-0.405904
-0.399343
-0.39215
-0.384304
-0.375803
-0.366659
-0.356905
-0.346591
-0.335781
-0.324556
-0.313005
-0.301223
-0.289307
-0.277347
-0.265429
-0.253628
-0.242005
-0.230612
-0.21949
-0.208665
-0.198159
-0.187988
-0.178157
-0.168575
-0.159358
-0.462544
-0.459892
-0.457287
-0.454836
-0.452333
-0.449706
-0.446927
-0.443961
-0.440758
-0.43727
-0.433441
-0.429215
-0.424536
-0.419346
-0.413593
-0.407229
-0.400215
-0.392525
-0.384147
-0.375086
-0.365367
-0.355033
-0.344145
-0.33278
-0.321027
-0.308985
-0.296754
-0.284431
-0.272111
-0.259876
-0.247799
-0.235939
-0.224344
-0.213049
-0.20208
-0.191453
-0.181184
-0.171274
-0.161616
-0.152365
-0.465089
-0.462417
-0.459798
-0.457333
-0.454812
-0.452155
-0.44933
-0.446295
-0.442996
-0.439377
-0.435377
-0.430936
-0.425993
-0.420489
-0.41437
-0.407591
-0.400116
-0.391925
-0.383015
-0.373401
-0.363118
-0.352222
-0.340785
-0.328895
-0.31665
-0.304154
-0.291513
-0.278826
-0.266186
-0.253674
-0.24136
-0.229299
-0.217536
-0.206101
-0.195017
-0.184299
-0.17396
-0.163997
-0.154289
-0.145031
-0.466573
-0.463896
-0.461274
-0.458805
-0.456275
-0.453595
-0.45073
-0.447629
-0.444233
-0.44048
-0.436305
-0.431642
-0.426427
-0.420601
-0.414109
-0.406909
-0.39897
-0.39028
-0.380845
-0.370689
-0.359861
-0.348428
-0.336473
-0.324093
-0.311396
-0.298489
-0.285481
-0.272473
-0.259556
-0.246809
-0.234297
-0.222073
-0.210176
-0.198635
-0.187468
-0.176688
-0.166307
-0.156317
-0.146585
-0.137348
-0.466904
-0.464234
-0.461622
-0.459161
-0.456629
-0.453935
-0.451033
-0.447869
-0.444377
-0.440489
-0.436134
-0.431245
-0.425753
-0.419599
-0.412731
-0.405108
-0.396709
-0.387527
-0.377579
-0.366901
-0.355553
-0.343614
-0.331177
-0.318349
-0.305242
-0.291969
-0.278641
-0.265358
-0.252208
-0.239269
-0.2266
-0.214251
-0.202256
-0.190642
-0.179424
-0.168612
-0.158218
-0.148229
-0.138498
-0.12931
-0.465993
-0.463343
-0.460754
-0.458311
-0.455786
-0.453084
-0.450151
-0.446927
-0.44334
-0.439315
-0.43478
-0.429661
-0.42389
-0.417407
-0.410162
-0.402122
-0.393269
-0.383609
-0.373167
-0.361993
-0.350156
-0.337748
-0.32487
-0.311638
-0.298169
-0.28458
-0.27098
-0.257469
-0.244133
-0.231044
-0.21826
-0.205824
-0.193769
-0.182117
-0.170881
-0.160067
-0.149689
-0.139729
-0.130029
-0.120917
-0.463757
-0.461142
-0.458587
-0.456172
-0.453664
-0.45096
-0.448002
-0.444721
-0.44104
-0.43688
-0.432163
-0.426814
-0.420764
-0.413954
-0.406339
-0.397889
-0.388598
-0.378478
-0.367568
-0.355928
-0.34364
-0.330804
-0.317532
-0.303945
-0.290164
-0.276309
-0.262487
-0.248797
-0.235321
-0.222128
-0.20927
-0.196788
-0.18471
-0.173055
-0.161832
-0.151049
-0.140716
-0.130815
-0.121183
-0.112171
-0.460121
-0.457555
-0.455047
-0.452669
-0.450186
-0.447488
-0.444509
-0.441175
-0.437404
-0.43311
-0.428214
-0.422637
-0.416311
-0.40918
-0.401204
-0.392359
-0.382648
-0.372094
-0.360747
-0.348678
-0.33598
-0.322762
-0.309146
-0.295256
-0.281217
-0.267147
-0.253156
-0.239337
-0.22577
-0.212517
-0.199629
-0.187141
-0.175077
-0.163454
-0.152278
-0.141554
-0.131293
-0.121478
-0.11194
-0.103034
-0.455019
-0.452513
-0.450064
-0.447735
-0.445285
-0.442599
-0.439605
-0.436223
-0.432364
-0.427941
-0.422868
-0.417068
-0.410474
-0.403033
-0.394709
-0.385489
-0.375383
-0.364425
-0.352676
-0.34022
-0.327159
-0.313611
-0.299702
-0.285564
-0.271321
-0.257092
-0.242984
-0.229087
-0.215476
-0.202211
-0.189335
-0.176882
-0.164872
-0.153318
-0.142223
-0.131587
-0.121421
-0.111705
-0.102233
-0.0933285
-0.448392
-0.44596
-0.443582
-0.441309
-0.4389
-0.436234
-0.433231
-0.429806
-0.425865
-0.421316
-0.416073
-0.410059
-0.403207
-0.39547
-0.386817
-0.377245
-0.366773
-0.355447
-0.343338
-0.330541
-0.317167
-0.303341
-0.289197
-0.274866
-0.260476
-0.246143
-0.231971
-0.218048
-0.204442
-0.191211
-0.178393
-0.166017
-0.154101
-0.142654
-0.131676
-0.121164
-0.111127
-0.101529
-0.0920742
-0.0829497
-0.440191
-0.437846
-0.435549
-0.433342
-0.430982
-0.428342
-0.425337
-0.421875
-0.417857
-0.41319
-0.407786
-0.401567
-0.394472
-0.386457
-0.377499
-0.367604
-0.356801
-0.345146
-0.332722
-0.319633
-0.306
-0.291953
-0.27763
-0.263165
-0.248684
-0.234304
-0.220122
-0.206224
-0.192673
-0.179522
-0.166807
-0.154552
-0.142771
-0.131472
-0.12065
-0.110304
-0.10044
-0.0910011
-0.0816769
-0.0729324
-0.430379
-0.428132
-0.425927
-0.423795
-0.421492
-0.418886
-0.415885
-0.412392
-0.408305
-0.403528
-0.397973
-0.391564
-0.384243
-0.375972
-0.366737
-0.356551
-0.345454
-0.333515
-0.320825
-0.307497
-0.29366
-0.279451
-0.265008
-0.250467
-0.235954
-0.221582
-0.207445
-0.193623
-0.180177
-0.167154
-0.154586
-0.142495
-0.130892
-0.11978
-0.109156
-0.0990158
-0.0893641
-0.080127
-0.0710076
-0.0626618