/*--------------------------------*- C++ -*----------------------------------*\
  =========                 |
  \\      /  F ield         | OpenFOAM: The Open Source CFD Toolbox
   \\    /   O peration     | Website:  https://openfoam.org
    \\  /    A nd           | Version:  7
     \\/     M anipulation  |
\*---------------------------------------------------------------------------*/
FoamFile
{
    version     2.0;
    format      ascii;
    class       surfaceScalarField;
    location    "2";
    object      phi;
}
// * * * * * * * * * * * * * * * * * * * * * * * * * * * * * * * * * * * * * //

dimensions      [0 3 -1 0 0 0 0];

internalField   nonuniform List<scalar> 
615
(
0.000355455
-3.32681e-06
0.000355723
-3.26369e-06
0.000355985
-3.20193e-06
0.00035624
-3.14148e-06
0.000356489
-3.08224e-06
0.000356733
-3.02414e-06
0.00035697
-2.96711e-06
0.000357202
-2.91105e-06
0.000357428
-2.8559e-06
0.000357649
-2.80157e-06
0.000357865
-2.74799e-06
0.000358075
-2.69507e-06
0.00035828
-2.64273e-06
0.00035848
-2.59089e-06
0.000358676
-2.53948e-06
0.000358866
-2.48841e-06
0.000359052
-2.43762e-06
0.000359232
-2.38703e-06
0.000359408
-2.33656e-06
0.000359579
-2.28617e-06
0.000359745
-2.23578e-06
0.000359907
-2.18535e-06
0.000360063
-2.13481e-06
0.000360215
-2.08414e-06
0.000360362
-2.03328e-06
0.000360504
-1.98222e-06
0.000360641
-1.93093e-06
0.000360774
-1.8794e-06
0.000360902
-1.82763e-06
0.000361024
-1.77561e-06
0.000361142
-1.72337e-06
0.000361255
-1.67091e-06
0.000361364
-1.61826e-06
0.000361467
-1.56546e-06
0.000361565
-1.51255e-06
0.000361659
-1.45958e-06
0.000361748
-1.40659e-06
0.000361832
-1.35365e-06
0.000361912
-1.30082e-06
0.000361987
-1.24816e-06
0.000362058
-1.19574e-06
0.000362124
-1.14363e-06
0.000362185
-1.09192e-06
0.000362243
-1.04067e-06
0.000362296
-9.89965e-07
0.000362345
-9.39896e-07
0.000362391
-8.90546e-07
0.000362433
-8.42005e-07
-7.94367e-07
0.000374606
-5.11786e-06
0.000374917
-5.00346e-06
0.000375218
-4.89276e-06
0.000375509
-4.78559e-06
0.00037579
-4.6818e-06
0.000376061
-4.58121e-06
0.000376324
-4.4837e-06
0.000376578
-4.38912e-06
0.000376824
-4.29734e-06
0.000377062
-4.20823e-06
0.000377293
-4.12168e-06
0.000377517
-4.03758e-06
0.000377734
-3.9558e-06
0.000377944
-3.87626e-06
0.000378148
-3.79884e-06
0.000378346
-3.72346e-06
0.000378539
-3.65e-06
0.000378726
-3.57838e-06
0.000378908
-3.5085e-06
0.000379084
-3.44028e-06
0.000379256
-3.37362e-06
0.000379423
-3.30843e-06
0.000379585
-3.24462e-06
0.000379743
-3.1821e-06
0.000379897
-3.12078e-06
0.000380046
-3.06057e-06
0.000380192
-3.00137e-06
0.000380333
-2.9431e-06
0.000380471
-2.88567e-06
0.000380605
-2.82898e-06
0.000380735
-2.77294e-06
0.000380862
-2.71746e-06
0.000380985
-2.66246e-06
0.000381104
-2.60784e-06
0.00038122
-2.55353e-06
0.000381332
-2.49944e-06
0.000381441
-2.44551e-06
0.000381547
-2.39164e-06
0.000381649
-2.33779e-06
0.000381747
-2.28389e-06
0.000381842
-2.22989e-06
0.000381934
-2.17574e-06
0.000382022
-2.12141e-06
0.000382107
-2.06686e-06
0.000382188
-2.01208e-06
0.000382266
-1.95705e-06
0.00038234
-1.90178e-06
0.00038241
-1.84626e-06
0.000382478
-1.79052e-06
0.000382541
-1.73458e-06
0.000382601
-1.67847e-06
0.000382658
-1.62223e-06
0.000382712
-1.5659e-06
0.000382762
-1.50955e-06
0.000382808
-1.45324e-06
0.000382852
-1.39702e-06
0.000382892
-1.34097e-06
0.000382929
-1.28516e-06
0.000382963
-1.22966e-06
0.000382994
-1.17457e-06
0.000383022
-1.11996e-06
0.000383047
-1.06592e-06
0.000383069
-1.01254e-06
0.000383089
-9.5991e-07
0.000383107
-9.08126e-07
0.000383122
-8.57285e-07
-8.07491e-07
0.00039611
-5.28371e-06
0.000396268
-5.16135e-06
0.000396418
-5.04315e-06
0.000396562
-4.92892e-06
0.000396698
-4.81846e-06
0.000396829
-4.71159e-06
0.000396953
-4.60814e-06
0.000397072
-4.50795e-06
0.000397186
-4.41086e-06
0.000397294
-4.31674e-06
0.000397398
-4.22545e-06
0.000397497
-4.13686e-06
0.000397592
-4.05083e-06
0.000397683
-3.96726e-06
0.00039777
-3.88603e-06
0.000397854
-3.80702e-06
0.000397934
-3.73012e-06
0.000398011
-3.65524e-06
0.000398085
-3.58226e-06
0.000398155
-3.51108e-06
0.000398223
-3.44161e-06
0.000398289
-3.37374e-06
0.000398351
-3.30736e-06
0.000398412
-3.24238e-06
0.00039847
-3.17871e-06
0.000398525
-3.11623e-06
0.000398579
-3.05485e-06
0.00039863
-2.99446e-06
0.00039868
-2.93498e-06
0.000398727
-2.87629e-06
0.000398772
-2.81829e-06
0.000398816
-2.7609e-06
0.000398857
-2.70401e-06
0.000398897
-2.64753e-06
0.000398935
-2.59138e-06
0.000398971
-2.53546e-06
0.000399005
-2.47969e-06
0.000399037
-2.424e-06
0.000399068
-2.36832e-06
0.000399096
-2.31259e-06
0.000399123
-2.25676e-06
0.000399148
-2.20077e-06
0.000399172
-2.14459e-06
0.000399193
-2.08819e-06
0.000399212
-2.03156e-06
0.00039923
-1.97468e-06
0.000399246
-1.91756e-06
0.00039926
-1.86021e-06
0.000399272
-1.80265e-06
0.000399282
-1.7449e-06
0.000399291
-1.68701e-06
0.000399298
-1.62902e-06
0.000399303
-1.57099e-06
0.000399306
-1.51297e-06
0.000399308
-1.45504e-06
0.000399308
-1.39725e-06
0.000399307
-1.3397e-06
0.000399304
-1.28245e-06
0.0003993
-1.2256e-06
0.000399295
-1.16923e-06
0.000399288
-1.11342e-06
0.000399281
-1.05828e-06
0.000399272
-1.00389e-06
0.000399262
-9.50358e-07
0.000399252
-8.97779e-07
0.000399241
-8.46257e-07
-7.95897e-07
0.000412727
-5.27331e-06
0.000412713
-5.14737e-06
0.000412695
-5.02591e-06
0.000412675
-4.9087e-06
0.000412652
-4.79552e-06
0.000412627
-4.68618e-06
0.000412599
-4.58048e-06
0.000412569
-4.47824e-06
0.000412538
-4.37931e-06
0.000412505
-4.28352e-06
0.00041247
-4.19073e-06
0.000412434
-4.10078e-06
0.000412397
-4.01355e-06
0.000412358
-3.9289e-06
0.000412319
-3.84672e-06
0.000412279
-3.76687e-06
0.000412238
-3.68924e-06
0.000412196
-3.61372e-06
0.000412154
-3.54019e-06
0.000412112
-3.46855e-06
0.000412069
-3.39869e-06
0.000412026
-3.33049e-06
0.000411982
-3.26386e-06
0.000411938
-3.19868e-06
0.000411895
-3.13485e-06
0.000411851
-3.07226e-06
0.000411807
-3.01081e-06
0.000411762
-2.95039e-06
0.000411718
-2.89088e-06
0.000411674
-2.8322e-06
0.00041163
-2.77422e-06
0.000411586
-2.71686e-06
0.000411542
-2.66001e-06
0.000411498
-2.60357e-06
0.000411454
-2.54745e-06
0.00041141
-2.49157e-06
0.000411367
-2.43583e-06
0.000411323
-2.38017e-06
0.000411279
-2.32451e-06
0.000411235
-2.26879e-06
0.000411191
-2.21296e-06
0.000411148
-2.15697e-06
0.000411104
-2.1008e-06
0.00041106
-2.0444e-06
0.000411016
-1.98777e-06
0.000410972
-1.93091e-06
0.000410929
-1.87381e-06
0.000410885
-1.8165e-06
0.000410841
-1.75899e-06
0.000410798
-1.70133e-06
0.000410754
-1.64356e-06
0.000410711
-1.58572e-06
0.000410668
-1.52787e-06
0.000410625
-1.47008e-06
0.000410582
-1.41242e-06
0.00041054
-1.35496e-06
0.000410498
-1.29779e-06
0.000410457
-1.24099e-06
0.000410416
-1.18463e-06
0.000410375
-1.12883e-06
0.000410336
-1.07366e-06
0.000410296
-1.01922e-06
0.000410258
-9.65611e-07
0.000410221
-9.1293e-07
0.000410184
-8.61278e-07
0.000410149
-8.10758e-07
-7.61477e-07
0.000423428
-5.08017e-06
0.000423236
-4.95567e-06
0.000423046
-4.83575e-06
0.000422857
-4.72018e-06
0.000422671
-4.60873e-06
0.000422486
-4.50118e-06
0.000422302
-4.39735e-06
0.000422121
-4.29704e-06
0.000421942
-4.20007e-06
0.000421765
-4.10629e-06
0.00042159
-4.01554e-06
0.000421416
-3.92767e-06
0.000421245
-3.84254e-06
0.000421077
-3.76002e-06
0.00042091
-3.67997e-06
0.000420745
-3.60227e-06
0.000420583
-3.5268e-06
0.000420422
-3.45345e-06
0.000420264
-3.38211e-06
0.000420108
-3.31264e-06
0.000419955
-3.24496e-06
0.000419803
-3.17894e-06
0.000419654
-3.11449e-06
0.000419507
-3.05148e-06
0.000419362
-2.98981e-06
0.000419219
-2.92937e-06
0.000419078
-2.87005e-06
0.000418939
0.000418803
0.000418668
0.000418536
0.000418406
0.000418277
0.000418151
0.000418027
0.000417905
0.000417785
0.000417666
0.00041755
0.000417436
0.000417323
0.000417213
0.000417104
0.000416997
0.000416893
0.00041679
0.000416689
0.000416591
0.000416494
0.000416399
0.000416307
0.000416216
0.000416128
0.000416042
0.000415958
0.000415876
0.000415797
0.00041572
0.000415646
0.000415574
0.000415504
0.000415437
0.000415372
0.00041531
0.000415251
0.000415194
0.000427178
0.000426817
0.000426461
0.000426112
0.00042577
0.000425433
0.000425103
0.000424779
0.00042446
0.000424147
0.000423839
0.000423537
0.000423241
0.00042295
0.000422664
0.000422382
0.000422106
0.000421835
0.000421569
0.000421308
0.000421051
0.000420799
0.000420551
0.000420308
0.000420069
0.000419834
)
;

boundaryField
{
    inlet
    {
        type            calculated;
        value           nonuniform 0();
    }
    outlet
    {
        type            calculated;
        value           nonuniform 0();
    }
    wall
    {
        type            calculated;
        value           nonuniform 0();
    }
    wedge1
    {
        type            wedge;
        value           nonuniform List<scalar> 
344
(
-1.00717e-15
4.62815e-16
6.14963e-17
3.95666e-16
4.81271e-17
-9.85043e-16
4.52079e-16
5.99429e-17
3.85905e-16
4.68344e-17
-9.63601e-16
4.41757e-16
5.83483e-17
3.76526e-16
4.56379e-17
-9.42795e-16
4.31821e-16
5.69681e-17
3.67535e-16
4.44682e-17
-9.22556e-16
4.22207e-16
5.5725e-17
3.58869e-16
4.33909e-17
-9.03023e-16
4.12884e-16
5.43938e-17
3.50479e-16
4.22774e-17
-8.83993e-16
4.0386e-16
5.30986e-17
3.42372e-16
4.12598e-17
-8.65608e-16
3.9515e-16
5.18825e-17
3.34582e-16
4.02637e-17
-8.47664e-16
3.86695e-16
5.08061e-17
3.27042e-16
3.93452e-17
-8.30327e-16
3.78476e-16
4.96337e-17
3.19723e-16
3.83777e-17
-8.13395e-16
3.705e-16
4.84935e-17
3.12645e-16
3.75067e-17
-7.97015e-16
3.62788e-16
4.74337e-17
3.05827e-16
3.66421e-17
-7.80993e-16
3.55296e-16
4.6496e-17
2.99202e-16
3.58433e-17
-7.65484e-16
3.47966e-16
4.54428e-17
2.92728e-16
3.49735e-17
-7.50319e-16
3.40894e-16
4.45256e-17
2.86547e-16
3.42336e-17
-7.35563e-16
3.34082e-16
4.35922e-17
2.80572e-16
3.35469e-17
-7.21179e-16
3.27329e-16
4.2664e-17
2.74648e-16
3.27645e-17
-7.07158e-16
3.20753e-16
4.17501e-17
2.68895e-16
3.20025e-17
3.37581e-16
-6.93475e-16
3.14351e-16
4.08671e-17
2.633e-16
3.12652e-17
3.31222e-16
-6.80116e-16
3.08111e-16
4.00046e-17
2.57847e-16
3.05401e-17
3.24985e-16
-6.67059e-16
3.02008e-16
3.91466e-17
2.52528e-16
2.98342e-17
3.18874e-16
-6.54293e-16
2.96052e-16
3.83227e-17
2.47348e-16
2.91419e-17
3.12886e-16
-6.41796e-16
2.90226e-16
3.75129e-17
2.42279e-16
2.84637e-17
3.0702e-16
-6.29546e-16
2.84513e-16
3.67169e-17
2.37317e-16
2.77924e-17
3.01253e-16
-6.17534e-16
2.78912e-16
3.59292e-17
2.32462e-16
2.71443e-17
2.95601e-16
-6.05694e-16
2.73444e-16
3.51903e-17
2.27714e-16
2.65046e-17
2.8995e-16
-5.94135e-16
2.67971e-16
3.44171e-17
2.23013e-16
2.58911e-17
2.84509e-16
-5.82771e-16
2.62635e-16
3.35419e-17
2.18418e-16
2.79126e-16
-5.71531e-16
2.57422e-16
3.2849e-17
2.13933e-16
2.73699e-16
-5.60353e-16
2.52288e-16
3.22521e-17
2.0951e-16
2.6848e-16
-5.49386e-16
2.47199e-16
3.15317e-17
2.05132e-16
2.6317e-16
-5.3846e-16
2.42162e-16
3.0811e-17
2.00801e-16
2.58073e-16
-5.27687e-16
2.37193e-16
3.01423e-17
1.96544e-16
2.52769e-16
-5.16987e-16
2.32232e-16
2.95387e-17
1.92296e-16
2.4764e-16
-5.06332e-16
2.2734e-16
2.88589e-17
1.8811e-16
2.42529e-16
-4.95723e-16
2.22431e-16
2.82545e-17
1.83911e-16
2.37439e-16
-4.85141e-16
2.17577e-16
2.75804e-17
1.79761e-16
2.3236e-16
-4.74569e-16
2.12691e-16
2.69823e-17
1.75584e-16
2.27274e-16
-4.63994e-16
2.07854e-16
2.63027e-17
1.71452e-16
2.22174e-16
-4.5342e-16
2.02975e-16
2.57175e-17
1.67281e-16
2.17085e-16
-4.42818e-16
1.98125e-16
2.50476e-17
1.63144e-16
2.1198e-16
-4.32187e-16
1.93235e-16
2.44635e-17
1.58956e-16
2.06863e-16
-4.21505e-16
1.88366e-16
2.37928e-17
1.54801e-16
2.01717e-16
-4.10801e-16
1.83436e-16
2.32057e-17
1.5059e-16
1.9659e-16
-4.00009e-16
1.78542e-16
2.25471e-17
1.46401e-16
1.91324e-16
-3.89272e-16
1.73507e-16
2.19572e-17
1.42132e-16
1.85971e-16
-3.78534e-16
1.68481e-16
2.11455e-17
1.37846e-16
1.80753e-16
-3.6761e-16
1.63504e-16
2.04953e-17
1.33596e-16
1.75496e-16
-3.56645e-16
1.5848e-16
1.99213e-17
1.29303e-16
1.70202e-16
-3.45639e-16
1.53468e-16
1.92497e-17
1.25038e-16
1.6489e-16
-3.34615e-16
1.48405e-16
1.86514e-17
1.20723e-16
1.59581e-16
-3.23548e-16
1.43381e-16
1.79749e-17
1.16451e-16
1.54246e-16
-3.12453e-16
1.38325e-16
1.7379e-17
1.12135e-16
1.489e-16
-3.01346e-16
1.33299e-16
1.6702e-17
1.07863e-16
1.43557e-16
-2.90248e-16
1.28237e-16
1.61104e-17
1.03565e-16
1.38228e-16
-2.79163e-16
1.23215e-16
1.54294e-17
9.93249e-17
1.3289e-16
-2.68105e-16
1.18178e-16
1.48319e-17
9.50665e-17
1.27575e-16
-2.57079e-16
1.13205e-16
1.41618e-17
9.08688e-17
1.22271e-16
-2.46129e-16
1.08227e-16
1.35729e-17
8.66743e-17
1.16995e-16
-2.35237e-16
1.03309e-16
1.2912e-17
8.256e-17
1.11755e-16
-2.24438e-16
9.84186e-17
1.2343e-17
7.8467e-17
1.06555e-16
-2.13747e-16
9.36181e-17
1.17009e-17
7.44621e-17
1.01408e-16
-2.03164e-16
8.88365e-17
1.11454e-17
7.04895e-17
9.63205e-17
-1.92716e-16
8.41678e-17
1.05219e-17
6.66243e-17
9.1313e-17
-1.82438e-16
7.95346e-17
9.98601e-18
6.27942e-17
8.63811e-17
-1.72317e-16
7.50246e-17
9.37921e-18
5.90869e-17
8.15226e-17
-1.624e-16
7.05834e-17
8.86744e-18
5.54446e-17
)
;
    }
    wedge2
    {
        type            wedge;
        value           nonuniform List<scalar> 
344
(
-1.00675e-15
4.64241e-16
6.39582e-17
3.99297e-16
5.30062e-17
-9.84427e-16
4.53731e-16
6.25346e-17
3.89682e-16
5.17761e-17
-9.6283e-16
4.43517e-16
6.12621e-17
3.80394e-16
5.05452e-17
-9.41944e-16
4.33596e-16
5.98688e-17
3.71389e-16
4.93771e-17
-9.21778e-16
4.23998e-16
5.84385e-17
3.62694e-16
4.82023e-17
-9.02136e-16
4.14725e-16
5.71837e-17
3.54327e-16
4.71443e-17
-8.83164e-16
4.05739e-16
5.59773e-17
3.4625e-16
4.6067e-17
-8.6467e-16
3.96997e-16
5.47704e-17
3.384e-16
4.50408e-17
-8.46807e-16
3.88536e-16
5.35074e-17
3.30819e-16
4.4006e-17
-8.29364e-16
3.80347e-16
5.24106e-17
3.23509e-16
4.30859e-17
-8.12496e-16
3.72401e-16
5.13521e-17
3.16427e-16
4.21313e-17
-7.96015e-16
3.64655e-16
5.02771e-17
3.0953e-16
4.12297e-17
-7.80072e-16
3.57133e-16
4.91496e-17
3.02864e-16
4.03185e-17
-7.64473e-16
3.4987e-16
4.81951e-17
2.96451e-16
3.95319e-17
-7.49349e-16
3.4275e-16
4.71627e-17
2.90127e-16
3.86641e-17
-7.34596e-16
3.35756e-16
4.62012e-17
2.83964e-16
3.77951e-17
-7.20215e-16
3.29068e-16
4.52867e-17
2.78095e-16
3.70653e-17
-7.0618e-16
3.22549e-16
4.44076e-17
2.72383e-16
3.63587e-17
3.37726e-16
-6.92479e-16
3.16184e-16
4.35443e-17
2.66822e-16
3.56681e-17
3.31386e-16
-6.79093e-16
3.0997e-16
4.27052e-17
2.61413e-16
3.50038e-17
3.25195e-16
-6.66008e-16
3.03913e-16
4.19032e-17
2.56145e-16
3.43568e-17
3.19135e-16
-6.53202e-16
2.97986e-16
4.11066e-17
2.50998e-16
3.37302e-17
3.13193e-16
-6.40661e-16
2.92189e-16
4.03327e-17
2.45982e-16
3.31211e-17
3.07357e-16
-6.28372e-16
2.86522e-16
3.95792e-17
2.41084e-16
3.25347e-17
3.01631e-16
-6.16312e-16
2.80968e-16
3.88496e-17
2.36288e-16
3.19522e-17
2.95986e-16
-6.0451e-16
2.7549e-16
3.81003e-17
2.31577e-16
3.13866e-17
2.90521e-16
-5.92822e-16
2.70208e-16
3.74089e-17
2.26994e-16
3.08171e-17
2.85007e-16
-5.81302e-16
2.64962e-16
3.68509e-17
2.22464e-16
2.79586e-16
-5.69983e-16
2.59751e-16
3.61259e-17
2.17966e-16
2.74341e-16
-5.58894e-16
2.54602e-16
3.53307e-17
2.13532e-16
2.69006e-16
-5.47848e-16
2.49529e-16
3.4673e-17
2.09163e-16
2.63863e-16
-5.36984e-16
2.44509e-16
3.40301e-17
2.04841e-16
2.58592e-16
-5.26154e-16
2.39512e-16
3.33447e-17
2.00523e-16
2.53601e-16
-5.15406e-16
2.3458e-16
3.261e-17
1.96259e-16
2.48489e-16
-5.04735e-16
2.29637e-16
3.19536e-17
1.91982e-16
2.434e-16
-4.94108e-16
2.24753e-16
3.12337e-17
1.87754e-16
2.38318e-16
-4.83515e-16
2.19843e-16
3.05809e-17
1.83499e-16
2.33239e-16
-4.72946e-16
2.14981e-16
2.98608e-17
1.79282e-16
2.28169e-16
-4.62385e-16
2.10073e-16
2.92157e-17
1.7502e-16
2.23105e-16
-4.51808e-16
2.05199e-16
2.84817e-17
1.70788e-16
2.1801e-16
-4.4122e-16
2.00278e-16
2.78234e-17
1.66505e-16
2.12903e-16
-4.30606e-16
1.95373e-16
2.70822e-17
1.6225e-16
2.07774e-16
-4.19971e-16
1.90413e-16
2.64171e-17
1.57933e-16
2.02631e-16
-4.09275e-16
1.85477e-16
2.56691e-17
1.53639e-16
1.97422e-16
-3.98574e-16
1.80463e-16
2.49814e-17
1.49288e-16
1.92303e-16
-3.87721e-16
1.75548e-16
2.42221e-17
1.44984e-16
1.87223e-16
-3.76769e-16
1.7058e-16
2.3682e-17
1.40661e-16
1.81956e-16
-3.65906e-16
1.65521e-16
2.29694e-17
1.36272e-16
1.76679e-16
-3.54992e-16
1.60471e-16
2.21816e-17
1.31898e-16
1.71395e-16
-3.44034e-16
1.55374e-16
2.14818e-17
1.27474e-16
1.66087e-16
-3.33022e-16
1.503e-16
2.0711e-17
1.23086e-16
1.60742e-16
-3.21995e-16
1.45167e-16
2.00114e-17
1.18648e-16
1.55397e-16
-3.10955e-16
1.40054e-16
1.92355e-17
1.14256e-16
1.50046e-16
-2.99909e-16
1.3491e-16
1.85367e-17
1.09832e-16
1.44683e-16
-2.88855e-16
1.29811e-16
1.77599e-17
1.05458e-16
1.3931e-16
-2.77815e-16
1.24695e-16
1.7072e-17
1.0106e-16
1.33963e-16
-2.66802e-16
1.19628e-16
1.63111e-17
9.67273e-17
1.2862e-16
-2.55838e-16
1.14545e-16
1.56268e-17
9.2394e-17
1.23308e-16
-2.44909e-16
1.0953e-16
1.48751e-17
8.81309e-17
1.18024e-16
-2.34065e-16
1.04532e-16
1.42039e-17
8.38746e-17
1.12774e-16
-2.233e-16
9.95984e-17
1.34585e-17
7.96982e-17
1.0757e-16
-2.12634e-16
9.46839e-17
1.27997e-17
7.5549e-17
1.02415e-16
-2.02101e-16
8.9875e-17
1.20755e-17
7.14978e-17
9.73187e-17
-1.91709e-16
8.50946e-17
1.14381e-17
6.74841e-17
9.22774e-17
-1.81459e-16
8.04369e-17
1.07386e-17
6.35957e-17
8.7313e-17
-1.71402e-16
7.58323e-17
1.01342e-17
5.97601e-17
8.2446e-17
-1.61529e-16
7.13528e-17
9.46432e-18
5.60509e-17
)
;
    }
    axis
    {
        type            empty;
        value           nonuniform 0();
    }
    procBoundary13to7
    {
        type            processor;
        value           nonuniform List<scalar> 
68
(
3.05182e-06
2.99544e-06
2.94022e-06
2.8861e-06
2.83301e-06
2.78088e-06
2.72966e-06
2.67927e-06
2.62964e-06
2.58072e-06
2.53243e-06
2.4847e-06
2.43747e-06
2.39066e-06
2.34422e-06
2.29807e-06
2.25216e-06
2.20641e-06
2.16077e-06
2.11518e-06
2.06958e-06
2.02394e-06
1.9782e-06
1.93232e-06
1.88628e-06
1.84004e-06
1.79359e-06
1.74691e-06
1.69999e-06
1.65283e-06
1.60545e-06
1.55785e-06
1.51006e-06
1.46211e-06
1.41402e-06
1.36584e-06
1.31761e-06
1.26938e-06
1.22121e-06
1.17314e-06
1.12525e-06
1.07758e-06
1.03022e-06
9.83214e-07
9.36648e-07
8.90592e-07
8.45121e-07
8.00316e-07
7.56259e-07
4.79477e-06
4.69172e-06
4.59183e-06
4.49495e-06
4.40095e-06
4.30971e-06
4.2211e-06
4.13502e-06
4.05136e-06
3.97001e-06
3.89087e-06
3.81386e-06
3.73887e-06
3.66583e-06
3.59465e-06
3.52523e-06
3.45751e-06
-0.00035518
3.3914e-06
)
;
    }
    procBoundary13to12
    {
        type            processor;
        value           nonuniform List<scalar> 4(-0.000374282 -0.000395944 -0.000412737 -0.000423621);
    }
    procBoundary13to14
    {
        type            processor;
        value           nonuniform List<scalar> 5(0.000362471 0.000383135 0.000399229 0.000410114 0.00041514);
    }
    procBoundary13to18
    {
        type            processor;
        value           uniform -0.000427546;
    }
    procBoundary13to19
    {
        type            processor;
        value           nonuniform List<scalar> 
68
(
-2.81176e-06
-2.75436e-06
-2.69777e-06
-2.64188e-06
-2.58657e-06
-2.53177e-06
-2.47735e-06
-2.42324e-06
-2.36935e-06
-2.31559e-06
-2.26189e-06
-2.20818e-06
-2.15441e-06
-2.10052e-06
-2.04647e-06
-1.99222e-06
-1.93777e-06
-1.8831e-06
-1.8282e-06
-1.77309e-06
-1.71778e-06
-1.6623e-06
-1.6067e-06
-1.55101e-06
-1.49529e-06
-1.43959e-06
-1.38399e-06
-1.32856e-06
-1.27338e-06
-1.21851e-06
-1.16406e-06
-1.11009e-06
-1.05672e-06
-1.00402e-06
-9.52085e-07
-9.01019e-07
-8.50914e-07
-8.01868e-07
-7.53983e-07
-7.07359e-07
-4.71189e-06
-4.59398e-06
-4.48055e-06
-4.37135e-06
-4.26615e-06
-4.16474e-06
-4.06693e-06
-3.97253e-06
-3.88137e-06
-3.79328e-06
-3.70811e-06
-3.62572e-06
-3.54597e-06
-3.46873e-06
-3.39386e-06
-3.32126e-06
-3.2508e-06
-3.18236e-06
-3.11585e-06
-3.05114e-06
-2.98813e-06
-2.92671e-06
-2.86678e-06
-2.80823e-06
-2.75096e-06
-2.69485e-06
0.000419604
-2.63981e-06
)
;
    }
}


// ************************************************************************* //
