/*--------------------------------*- C++ -*----------------------------------*\
  =========                 |
  \\      /  F ield         | OpenFOAM: The Open Source CFD Toolbox
   \\    /   O peration     | Website:  https://openfoam.org
    \\  /    A nd           | Version:  7
     \\/     M anipulation  |
\*---------------------------------------------------------------------------*/
FoamFile
{
    version     2.0;
    format      ascii;
    class       volVectorField;
    location    "0.4";
    object      U;
}
// * * * * * * * * * * * * * * * * * * * * * * * * * * * * * * * * * * * * * //

dimensions      [0 1 -1 0 0 0 0];

internalField   nonuniform List<vector> 
4032
(
(3 -3.39758e-17 0)
(3 4.11553e-17 0)
(3 1.90079e-16 0)
(3 6.0174e-16 0)
(3 3.98925e-17 0)
(3 -6.01882e-16 0)
(3 -1.20644e-15 0)
(3 -1.6e-15 0)
(3 -1.31285e-15 0)
(3 -8.77724e-16 0)
(3 -2.94062e-16 0)
(3 -2.85825e-16 0)
(3 -2.496e-16 0)
(3 5.79838e-16 0)
(3 8.35869e-16 0)
(2.12847 0.0155094 0)
(0.71918 0.0289394 0)
(0.54762 0.0235297 0)
(0.48855 0.0320208 0)
(0.381606 0.0367281 0)
(0.289737 0.0421053 0)
(0.197692 0.0443208 0)
(0.114263 0.0431624 0)
(0.0409807 0.044713 0)
(3 2.8209e-17 0)
(3 -7.93939e-17 0)
(3 1.03294e-16 0)
(3 -1.56587e-16 0)
(3 -8.38598e-16 0)
(3 -1.89817e-15 0)
(3 -1.98336e-15 0)
(3 -1.70212e-15 0)
(3 -1.31508e-15 0)
(3 -1.24082e-15 0)
(3 -6.58793e-16 0)
(3 -1.43065e-16 0)
(3 4.64361e-17 0)
(3 4.33791e-16 0)
(3 1.10762e-15 0)
(2.16183 0.0738138 0)
(0.712533 0.117091 0)
(0.527678 0.0824922 0)
(0.461871 0.0890918 0)
(0.360304 0.108591 0)
(0.270121 0.126017 0)
(0.181882 0.132831 0)
(0.103602 0.130514 0)
(0.0367905 0.1354 0)
(3 -2.78883e-17 0)
(3 -1.9138e-16 0)
(3 -3.10803e-16 0)
(3 -6.74637e-16 0)
(3 -1.56299e-15 0)
(3 -2.15411e-15 0)
(3 -1.83884e-15 0)
(3 -1.14336e-15 0)
(3 -1.2931e-15 0)
(3 -1.06939e-15 0)
(3 -8.15225e-16 0)
(3 3.33219e-16 0)
(3 5.59027e-16 0)
(3 4.83491e-16 0)
(3 9.77702e-16 0)
(2.29979 0.139289 0)
(0.744722 0.2069 0)
(0.539399 0.144885 0)
(0.47369 0.156998 0)
(0.370882 0.186148 0)
(0.276159 0.213408 0)
(0.183894 0.220174 0)
(0.103338 0.212922 0)
(0.0356272 0.217913 0)
(3 -1.05778e-17 0)
(3 -2.55205e-16 0)
(3 -2.15575e-16 0)
(3 -3.094e-16 0)
(3 -2.89403e-16 0)
(3 -7.02609e-16 0)
(3 -7.81519e-16 0)
(3 -7.84956e-16 0)
(3 -4.52586e-16 0)
(3 2.09245e-16 0)
(3 7.22331e-16 0)
(3 8.26136e-16 0)
(3 3.75931e-16 0)
(3 7.187e-16 0)
(3 9.46335e-16 0)
(2.51994 0.189992 0)
(0.799997 0.293904 0)
(0.569585 0.205538 0)
(0.513816 0.221469 0)
(0.408327 0.267588 0)
(0.30277 0.308436 0)
(0.20157 0.313967 0)
(0.115075 0.299598 0)
(0.0383664 0.302479 0)
(3 1.13199e-16 0)
(3 1.79398e-16 0)
(3 2.89879e-16 0)
(3 1.95509e-16 0)
(3 9.69096e-17 0)
(3 3.13843e-16 0)
(3 9.69267e-17 0)
(3 9.6609e-17 0)
(3 5.13997e-16 0)
(3 8.8355e-16 0)
(3 -2.48777e-16 0)
(3 -6.14128e-16 0)
(3 -6.18601e-16 0)
(3 3.47298e-16 0)
(3 4.34168e-16 0)
(2.84711 0.147165 0)
(0.921101 0.345331 0)
(0.610751 0.254239 0)
(0.560683 0.293646 0)
(0.449954 0.362693 0)
(0.336509 0.412003 0)
(0.235955 0.411631 0)
(0.143073 0.390764 0)
(0.0528352 0.399129 0)
(3 -6.9852e-17 0)
(3 -8.61217e-17 0)
(3 -1.25045e-16 0)
(3 7.01394e-17 0)
(3 2.28642e-16 0)
(3 4.91702e-16 0)
(3 1.03929e-15 0)
(3 8.89884e-16 0)
(3 8.45361e-16 0)
(3 7.83093e-16 0)
(3 -6.6551e-16 0)
(3 -1.81545e-15 0)
(3 -1.30234e-15 0)
(3 -2.08457e-16 0)
(3 -1.67209e-16 0)
(3.01751 0.0165539 0)
(1.11365 0.375844 0)
(0.646721 0.315726 0)
(0.581524 0.383583 0)
(0.471645 0.468438 0)
(0.367016 0.516157 0)
(0.272467 0.519138 0)
(0.173539 0.504543 0)
(0.0571939 0.524352 0)
(3 -1.13086e-16 0)
(3 -2.96608e-16 0)
(3 -5.37491e-16 0)
(3 -9.93137e-17 0)
(3 9.38432e-17 0)
(3 6.87911e-17 0)
(3 2.23798e-16 0)
(3 -3.79308e-17 0)
(3 -3.99595e-16 0)
(3 -1.08872e-15 0)
(3 -9.41059e-16 0)
(3 -5.33741e-16 0)
(3 -5.07439e-16 0)
(3 -6.12538e-16 0)
(3 -4.83335e-17 0)
(3.00053 0.000133312 0)
(1.43889 0.414203 0)
(0.702939 0.39551 0)
(0.595487 0.478963 0)
(0.511264 0.562305 0)
(0.432871 0.604432 0)
(0.35848 0.618927 0)
(0.261003 0.621025 0)
(0.122315 0.680921 0)
(3 1.82948e-16 0)
(3 5.71756e-16 0)
(3 3.90708e-16 0)
(3 2.27067e-16 0)
(3 -2.41327e-18 0)
(3 -5.7972e-16 0)
(3 -1.44926e-15 0)
(3 -1.26034e-15 0)
(3 -1.58218e-15 0)
(3 -1.56346e-15 0)
(3 -1.16711e-15 0)
(3 -3.47561e-16 0)
(3 -5.59094e-16 0)
(3 -3.61095e-16 0)
(3 3.87563e-16 0)
(3 1.11161e-07 0)
(1.96098 0.426271 0)
(0.799231 0.494522 0)
(0.640925 0.578358 0)
(0.588269 0.629293 0)
(0.532045 0.66501 0)
(0.46593 0.711754 0)
(0.325646 0.804101 0)
(0.179438 0.99396 0)
(3 1.39772e-16 0)
(3 -5.12554e-17 0)
(3 1.14743e-16 0)
(3 -2.50746e-16 0)
(3 -3.85412e-16 0)
(3 -7.70354e-16 0)
(3 -8.44801e-16 0)
(3 -7.8209e-16 0)
(3 -1.00375e-15 0)
(3 -1.14062e-15 0)
(3 4.3795e-17 0)
(3 4.81466e-16 0)
(3 3.41342e-16 0)
(3 4.59586e-16 0)
(3 1.6175e-16 0)
(3 5.18927e-12 0)
(2.66746 0.288157 0)
(0.980109 0.580256 0)
(0.739299 0.640899 0)
(0.695412 0.667186 0)
(0.643933 0.71103 0)
(0.594756 0.814657 0)
(0.5715 1.00034 0)
(0.659691 1.30647 0)
(3 -3.04386e-16 0)
(3 -4.43313e-16 0)
(3 -7.80256e-16 0)
(3 -7.55264e-16 0)
(3 -7.98039e-16 0)
(3 -6.02297e-16 0)
(3 2.58583e-17 0)
(3 -8.38657e-17 0)
(3 -1.87577e-16 0)
(3 -6.84258e-16 0)
(3 -2.60212e-17 0)
(3 1.67058e-16 0)
(3 5.34952e-16 0)
(3 5.9471e-16 0)
(3 -1.72566e-16 0)
(3 -6.56409e-16 0)
(3.05909 0.0377371 0)
(1.25279 0.624253 0)
(0.811401 0.726822 0)
(0.767728 0.739615 0)
(0.731001 0.799519 0)
(0.734485 0.910548 0)
(0.817506 1.0722 0)
(1.08228 1.25939 0)
(3 -4.67213e-17 0)
(3 1.5046e-16 0)
(3 1.97677e-16 0)
(3 2.64262e-16 0)
(3 2.33934e-16 0)
(3 2.70545e-16 0)
(3 2.03232e-16 0)
(3 -1.6523e-16 0)
(3 4.66296e-17 0)
(3 1.71695e-17 0)
(3 -3.32146e-16 0)
(3 -2.58914e-16 0)
(3 2.3666e-16 0)
(3 2.53724e-16 0)
(3 -4.49359e-16 0)
(3 -6.28463e-16 0)
(3.00326 0.000285655 0)
(1.82049 0.642324 0)
(0.92786 0.80424 0)
(0.855383 0.798741 0)
(0.84714 0.833597 0)
(0.880293 0.929695 0)
(0.991654 1.04499 0)
(1.27527 1.17695 0)
(3 9.69761e-18 0)
(3 1.48128e-16 0)
(3 3.13944e-16 0)
(3 7.48695e-16 0)
(3 1.02836e-15 0)
(3 7.03353e-16 0)
(3 -6.6801e-17 0)
(3 -9.53926e-16 0)
(3 -7.74628e-16 0)
(3 -4.11889e-16 0)
(3 -7.68604e-16 0)
(3 -6.96865e-16 0)
(3 -6.29554e-16 0)
(3 -4.57114e-16 0)
(3 -2.9538e-16 0)
(3 1.64791e-16 0)
(3.00001 5.16037e-07 0)
(2.85027 0.287186 0)
(1.20933 0.827575 0)
(0.967751 0.852678 0)
(0.974132 0.869713 0)
(1.00485 0.951757 0)
(1.11449 1.04173 0)
(1.37346 1.12426 0)
(3 -1.65248e-16 0)
(3 -4.95255e-16 0)
(3 -6.54498e-16 0)
(3 -6.14256e-16 0)
(3 -2.05974e-16 0)
(3 3.05817e-17 0)
(3 -4.08488e-17 0)
(3 -3.89313e-16 0)
(3 -8.45634e-16 0)
(3 -1.10153e-15 0)
(3 -1.15115e-15 0)
(3 -1.86493e-15 0)
(3 -2.1864e-15 0)
(3 -1.36273e-15 0)
(3 -1.72531e-16 0)
(3 -9.02093e-17 0)
(3 -2.76675e-11 0)
(3.03662 0.014847 0)
(1.69489 0.808022 0)
(1.04726 0.946354 0)
(1.0682 0.941658 0)
(1.10841 0.970462 0)
(1.21616 1.01468 0)
(1.43271 1.05466 0)
(3 2.85717e-16 0)
(3 -2.35982e-16 0)
(3 -5.10726e-16 0)
(3 -6.94795e-16 0)
(3 -5.55601e-16 0)
(3 -3.76515e-16 0)
(3 -6.81852e-16 0)
(3 -1.07939e-16 0)
(3 -5.2866e-16 0)
(3 -7.31976e-16 0)
(3 -4.64326e-16 0)
(3 -7.97598e-16 0)
(3 -3.56975e-16 0)
(3 2.90885e-16 0)
(3 3.89698e-16 0)
(3 1.45018e-16 0)
(3 -9.57473e-15 0)
(3.00046 0.000153015 0)
(2.80331 0.376621 0)
(1.33118 0.946902 0)
(1.14707 0.986066 0)
(1.21461 0.999884 0)
(1.30373 1.02631 0)
(1.47414 1.03897 0)
(3 1.47641e-16 0)
(3 4.42244e-16 0)
(3 2.54827e-16 0)
(3 -2.1105e-16 0)
(3 -3.3817e-16 0)
(3 -6.87613e-16 0)
(3 -1.56561e-16 0)
(3 1.07148e-15 0)
(3 8.20279e-16 0)
(3 7.45967e-16 0)
(3 9.20075e-16 0)
(3 1.03232e-15 0)
(3 1.44078e-15 0)
(3 1.34651e-15 0)
(3 5.89592e-16 0)
(3 3.15138e-16 0)
(3 -1.40966e-14 0)
(3 7.98486e-08 0)
(3.03298 0.0207918 0)
(1.97382 0.836614 0)
(1.25927 1.04512 0)
(1.28784 1.03894 0)
(1.39554 1.02801 0)
(1.52092 1.02743 0)
(3 -1.32015e-16 0)
(3 2.93017e-18 0)
(3 8.12135e-16 0)
(3 3.4833e-16 0)
(3 -3.20962e-16 0)
(3 -1.41651e-16 0)
(3 7.77155e-16 0)
(3 5.68638e-16 0)
(3 1.82315e-15 0)
(3 1.92383e-15 0)
(3 1.25538e-15 0)
(3 1.39392e-15 0)
(3 8.79389e-16 0)
(3 7.86698e-16 0)
(3 5.9384e-16 0)
(3 1.62745e-16 0)
(3 -5.18689e-15 0)
(3 2.71459e-12 0)
(3.00042 0.000319711 0)
(2.94167 0.240034 0)
(1.647 0.975753 0)
(1.36273 1.077 0)
(1.45069 1.06372 0)
(1.56468 1.05441 0)
(3 5.54877e-17 0)
(3 5.61382e-17 0)
(3 2.29048e-16 0)
(3 5.41115e-16 0)
(3 4.28956e-16 0)
(3 4.8402e-16 0)
(3 3.13893e-16 0)
(3 1.8157e-16 0)
(3 3.1121e-16 0)
(3 7.17774e-16 0)
(3 9.6992e-16 0)
(3 1.14463e-15 0)
(3 5.37575e-16 0)
(3 -2.50101e-16 0)
(3 -4.8986e-16 0)
(3 -1.08612e-15 0)
(3 -2.38112e-15 0)
(3 -1.70918e-15 0)
(3 2.68308e-07 0)
(3.00821 0.0111961 0)
(2.53967 0.572063 0)
(1.58276 1.03882 0)
(1.48417 1.09675 0)
(1.60272 1.07316 0)
(3 2.00943e-16 0)
(3 9.37777e-17 0)
(3 1.76595e-16 0)
(3 8.42944e-16 0)
(3 1.03504e-15 0)
(3 5.46282e-16 0)
(3 1.97545e-18 0)
(3 -3.8263e-16 0)
(3 -5.36255e-16 0)
(3 -4.07779e-16 0)
(3 2.33926e-16 0)
(3 2.91472e-16 0)
(3 6.28037e-17 0)
(3 -6.92585e-16 0)
(3 -1.5534e-15 0)
(3 -1.47082e-15 0)
(3 -9.12376e-16 0)
(3 -4.91416e-16 0)
(3 2.2345e-11 0)
(3.00003 7.68043e-05 0)
(3.00515 0.0598355 0)
(2.2008 0.801974 0)
(1.60056 1.09633 0)
(1.62919 1.09319 0)
(3 1.45403e-16 0)
(3 -2.50478e-16 0)
(3 -1.25607e-16 0)
(3 -1.81186e-16 0)
(3 5.41148e-17 0)
(3 5.92054e-17 0)
(3 -1.8676e-17 0)
(3 -5.71357e-16 0)
(3 -6.96378e-16 0)
(3 -1.12791e-15 0)
(3 -1.53614e-15 0)
(3 -3.78648e-16 0)
(3 1.89277e-16 0)
(3 -3.57632e-17 0)
(3 -4.05918e-16 0)
(3 2.34196e-16 0)
(3 7.95901e-16 0)
(3 6.71317e-16 0)
(3 6.90822e-16 0)
(3 3.3434e-08 0)
(3.00041 0.00143298 0)
(2.93033 0.179758 0)
(2.07041 0.896428 0)
(1.70731 1.10702 0)
(3 -3.43915e-16 0)
(3 -5.74e-16 0)
(3 -7.74657e-16 0)
(3 -9.08718e-16 0)
(3 -9.86821e-16 0)
(3 -8.73668e-16 0)
(3 -6.86775e-16 0)
(3 -5.53306e-16 0)
(3 -9.77966e-16 0)
(3 -1.41873e-15 0)
(3 -1.37341e-15 0)
(3 -2.09767e-16 0)
(3 1.62328e-17 0)
(3 2.24281e-17 0)
(3 5.6187e-16 0)
(3 7.32551e-16 0)
(3 6.86699e-16 0)
(3 7.23377e-17 0)
(3 -1.16436e-15 0)
(3 1.87162e-12 0)
(3 2.45152e-06 0)
(3.00053 0.00810769 0)
(2.82283 0.304036 0)
(2.07713 0.924938 0)
(3 -2.08462e-16 0)
(3 -5.40842e-17 0)
(3 -2.20705e-16 0)
(3 -1.49246e-16 0)
(3 -2.48229e-16 0)
(3 -5.50803e-16 0)
(3 -1.59026e-16 0)
(3 2.92358e-16 0)
(3 3.38854e-16 0)
(3 -1.55569e-16 0)
(3 -5.81473e-17 0)
(3 -3.22259e-16 0)
(3 -7.15586e-16 0)
(3 -1.33707e-16 0)
(3 8.44807e-16 0)
(3 2.47186e-16 0)
(3 -4.24635e-16 0)
(3 -5.82294e-16 0)
(3 -5.86536e-16 0)
(3 -2.77817e-16 0)
(3 5.43857e-10 0)
(3 3.449e-05 0)
(2.99724 0.020391 0)
(2.77203 0.358769 0)
(3 6.70891e-17 0)
(3 2.73417e-16 0)
(3 2.7627e-16 0)
(3 2.41149e-16 0)
(3 4.60781e-16 0)
(3 5.8337e-16 0)
(3 8.36421e-16 0)
(3 8.7197e-16 0)
(3 7.23111e-16 0)
(3 1.07262e-15 0)
(3 1.18211e-15 0)
(3 8.22773e-16 0)
(3 1.00674e-15 0)
(3 7.88039e-16 0)
(3 1.25711e-15 0)
(3 3.25893e-16 0)
(3 4.86411e-18 0)
(3 -4.21863e-16 0)
(3 3.46869e-16 0)
(3 7.26852e-16 0)
(3 3.11163e-14 0)
(3 1.70743e-08 0)
(2.99999 0.000156133 0)
(2.9947 0.0272948 0)
(3 -4.71243e-17 0)
(3 -4.61247e-16 0)
(3 -2.47087e-16 0)
(3 -2.34635e-16 0)
(3 -1.37694e-16 0)
(3 -8.02772e-17 0)
(3 -2.20845e-16 0)
(3 -1.11332e-15 0)
(3 -1.34969e-15 0)
(3 -6.53285e-16 0)
(3 -1.63397e-16 0)
(3 3.51819e-16 0)
(3 1.2797e-15 0)
(3 1.1033e-15 0)
(3 7.61413e-16 0)
(3 6.39428e-16 0)
(3 9.96045e-16 0)
(3 7.56836e-16 0)
(3 1.10259e-15 0)
(3 1.5368e-15 0)
(3 6.09491e-16 0)
(3 9.5034e-13 0)
(3 1.35686e-07 0)
(2.99998 0.000262866 0)
(3 -1.53203e-16 0)
(3 -2.68118e-16 0)
(3 -6.35763e-16 0)
(3 -1.03641e-15 0)
(3 -1.02565e-15 0)
(3 -1.01087e-15 0)
(3 -1.15541e-15 0)
(3 -1.84194e-15 0)
(3 -1.77577e-15 0)
(3 -1.73029e-15 0)
(3 -1.04833e-15 0)
(3 -3.96048e-16 0)
(3 -3.57522e-16 0)
(3 8.51841e-17 0)
(3 3.19398e-16 0)
(3 8.24289e-16 0)
(3 8.89918e-16 0)
(3 9.5747e-16 0)
(3 1.0147e-15 0)
(3 1.01778e-15 0)
(3 2.48425e-16 0)
(3 4.09309e-16 0)
(3 1.30531e-11 0)
(3 2.72002e-07 0)
(3 3.8702e-16 0)
(3 3.8618e-16 0)
(3 7.43606e-17 0)
(3 1.10075e-16 0)
(3 7.08532e-16 0)
(3 3.806e-16 0)
(3 -2.34392e-16 0)
(3 -4.19276e-16 0)
(3 -5.70886e-16 0)
(3 -7.41368e-16 0)
(3 -3.95904e-16 0)
(3 -1.35933e-16 0)
(3 -8.6143e-17 0)
(3 3.25291e-16 0)
(3 4.97695e-16 0)
(3 4.12389e-16 0)
(3 8.26937e-16 0)
(3 6.87991e-16 0)
(3 -1.14841e-16 0)
(3 -4.27562e-16 0)
(3 -3.00324e-16 0)
(3 -6.09353e-17 0)
(3 7.2266e-16 0)
(3 2.73039e-11 0)
(3 1.15217e-16 0)
(3 6.63976e-16 0)
(3 1.01551e-15 0)
(3 1.24515e-15 0)
(3 1.426e-15 0)
(3 2.32784e-15 0)
(3 1.98023e-15 0)
(3 1.47005e-15 0)
(3 4.20609e-16 0)
(3 1.23227e-16 0)
(3 -4.05967e-16 0)
(3 -3.60824e-16 0)
(3 -1.71467e-16 0)
(3 -3.0291e-17 0)
(3 9.38077e-16 0)
(3 5.8509e-16 0)
(3 4.93626e-16 0)
(3 5.08958e-16 0)
(3 1.69631e-16 0)
(3 -3.66073e-16 0)
(3 5.14046e-16 0)
(3 9.90229e-16 0)
(3 5.73786e-16 0)
(3 -2.19904e-17 0)
(3 -5.86298e-17 0)
(3 6.00242e-17 0)
(3 7.10801e-16 0)
(3 8.25725e-16 0)
(3 9.07776e-16 0)
(3 1.52612e-15 0)
(3 1.23198e-15 0)
(3 1.00689e-15 0)
(3 2.7215e-16 0)
(3 -6.241e-16 0)
(3 -1.72949e-15 0)
(3 -1.16744e-15 0)
(3 -1.01183e-15 0)
(3 -3.44157e-16 0)
(3 9.46021e-16 0)
(3 5.97643e-16 0)
(3 3.35221e-16 0)
(3 7.11516e-16 0)
(3 1.06593e-15 0)
(3 8.21299e-16 0)
(3 1.21949e-15 0)
(3 7.26299e-16 0)
(3 1.49952e-16 0)
(3 -2.2048e-15 0)
(3 9.77105e-17 0)
(3 -4.46212e-16 0)
(3 -4.9935e-16 0)
(3 -2.88756e-16 0)
(3 -1.82823e-16 0)
(3 -3.71904e-16 0)
(3 -2.2165e-17 0)
(3 1.05368e-16 0)
(3 -1.97729e-16 0)
(3 -7.99772e-16 0)
(3 -7.62394e-16 0)
(3 -3.75212e-16 0)
(3 -3.10547e-16 0)
(3 1.54254e-16 0)
(3 4.07442e-16 0)
(3 3.91397e-16 0)
(3 6.10069e-16 0)
(3 1.70533e-16 0)
(3 5.1654e-17 0)
(3 2.98824e-17 0)
(3 -2.44007e-16 0)
(3 -5.03962e-16 0)
(3 -9.97368e-16 0)
(3 -1.57563e-15 0)
(3 8.53225e-17 0)
(3 -2.7207e-16 0)
(3 -1.07261e-16 0)
(3 -1.47473e-16 0)
(3 -1.96364e-16 0)
(3 -6.31162e-16 0)
(3 -5.25004e-18 0)
(3 2.70696e-16 0)
(3 1.37331e-15 0)
(3 1.32637e-15 0)
(3 1.09647e-15 0)
(3 8.63666e-16 0)
(3 7.47534e-16 0)
(3 5.24048e-16 0)
(3 1.71353e-16 0)
(3 4.65162e-16 0)
(3 3.15063e-16 0)
(3 -1.26851e-16 0)
(3 -1.2528e-16 0)
(3 -2.75224e-16 0)
(3 -4.61385e-16 0)
(3 1.66278e-17 0)
(3 -4.00791e-16 0)
(3 -8.96809e-16 0)
(3 2.02684e-16 0)
(3 5.52863e-16 0)
(3 6.3387e-16 0)
(3 2.2399e-16 0)
(3 -4.40803e-16 0)
(3 -9.43923e-16 0)
(3 -2.82248e-16 0)
(3 4.01455e-16 0)
(3 1.4555e-15 0)
(3 2.1717e-15 0)
(3 1.60273e-15 0)
(3 8.43588e-16 0)
(3 1.06757e-15 0)
(3 4.35762e-16 0)
(3 3.78542e-16 0)
(3 2.38609e-16 0)
(3 -4.26096e-16 0)
(3 -1.45747e-16 0)
(3 -3.00494e-16 0)
(3 -2.55176e-16 0)
(3 -2.88187e-16 0)
(3 -5.77255e-16 0)
(3 -4.71229e-16 0)
(3 1.9575e-16 0)
(3 3.006e-17 0)
(3 1.93985e-16 0)
(3 -3.08133e-16 0)
(3 -3.64892e-16 0)
(3 -7.36735e-16 0)
(3 -8.38956e-16 0)
(3 -7.18106e-16 0)
(3 -1.04985e-17 0)
(3 3.55844e-16 0)
(3 1.65334e-15 0)
(3 2.27657e-15 0)
(3 1.7725e-15 0)
(3 1.70824e-15 0)
(3 5.5667e-16 0)
(3 -5.63218e-16 0)
(3 -7.55741e-16 0)
(3 -2.77269e-16 0)
(3 -3.90163e-16 0)
(3 -1.11003e-15 0)
(3 -1.73616e-15 0)
(3 -1.35081e-15 0)
(3 -8.53624e-16 0)
(3 5.92887e-17 0)
(3 5.33507e-16 0)
(3 -9.45713e-17 0)
(3 -2.8606e-16 0)
(3 -3.56156e-16 0)
(3 1.61348e-16 0)
(3 1.22411e-16 0)
(3 2.19625e-16 0)
(3 1.58348e-16 0)
(3 3.47039e-16 0)
(3 7.71021e-17 0)
(3 1.30071e-15 0)
(3 2.40799e-15 0)
(3 2.7935e-15 0)
(3 1.26625e-15 0)
(3 -8.10154e-16 0)
(3 -1.45541e-15 0)
(3 -1.8564e-15 0)
(3 -1.63576e-15 0)
(3 -1.27939e-15 0)
(3 -7.58821e-16 0)
(3 -9.88825e-16 0)
(3 -1.10885e-15 0)
(3 -1.20148e-15 0)
(3 -1.01705e-15 0)
(3 8.94252e-17 0)
(3 -6.02894e-17 0)
(3 -1.42813e-17 0)
(3 1.32156e-16 0)
(3 -3.17574e-16 0)
(3 -5.00676e-16 0)
(3 -1.80163e-16 0)
(3 -4.9037e-16 0)
(3 -2.84824e-16 0)
(3 -9.13443e-16 0)
(3 -5.60799e-16 0)
(3 2.45827e-17 0)
(3 3.72962e-16 0)
(3 -5.29241e-16 0)
(3 -1.21212e-15 0)
(3 -1.74864e-15 0)
(3 -1.2487e-15 0)
(3 -1.13238e-15 0)
(3 -5.27349e-16 0)
(3 8.33019e-16 0)
(3 9.34484e-16 0)
(3 4.66319e-16 0)
(3 -3.64079e-16 0)
(3 -6.17847e-16 0)
(3 -7.72283e-16 0)
(3 -9.50797e-17 0)
(3 9.06912e-17 0)
(3 -1.49022e-16 0)
(3 -6.58682e-16 0)
(3 -3.96298e-16 0)
(3 -7.40236e-16 0)
(3 -1.99321e-15 0)
(3 -2.26598e-15 0)
(3 -2.0923e-15 0)
(3 -8.71394e-16 0)
(3 -6.51138e-16 0)
(3 -1.63717e-15 0)
(3 -2.15762e-15 0)
(3 -1.29925e-15 0)
(3 -5.54536e-16 0)
(3 7.80112e-17 0)
(3 5.84356e-16 0)
(3 1.88323e-16 0)
(3 -2.28203e-17 0)
(3 1.16841e-16 0)
(3 5.04444e-16 0)
(3 8.83673e-16 0)
(3 -1.75842e-16 0)
(3 -9.92884e-16 0)
(3 -1.42583e-16 0)
(3 -3.18187e-16 0)
(3 -6.96463e-16 0)
(3 -4.23983e-16 0)
(3 -4.71152e-16 0)
(3 -1.06327e-15 0)
(3 8.89481e-18 0)
(3 -1.09597e-18 0)
(3 1.77347e-16 0)
(3 2.12173e-16 0)
(3 -1.34871e-15 0)
(3 -2.18756e-15 0)
(3 -2.60725e-15 0)
(3 -2.1308e-15 0)
(3 -6.64166e-16 0)
(3 -4.55744e-17 0)
(3 1.03587e-15 0)
(3 1.48523e-15 0)
(3 8.37822e-16 0)
(3 3.84499e-16 0)
(3 -2.94125e-16 0)
(3 -3.5674e-16 0)
(3 -1.50035e-15 0)
(3 -1.84874e-15 0)
(3 -4.73121e-17 0)
(3 -3.86962e-16 0)
(3 -6.77906e-17 0)
(3 6.11332e-16 0)
(3 3.36115e-16 0)
(3 3.45972e-16 0)
(3 1.63044e-15 0)
(3 2.34451e-15 0)
(3 2.26692e-15 0)
(3 1.00258e-15 0)
(3 -3.52001e-16 0)
(3 -5.05578e-16 0)
(3 -9.40884e-16 0)
(3 -1.17236e-15 0)
(3 -5.36014e-16 0)
(3 1.89043e-16 0)
(3 8.6651e-16 0)
(3 1.22494e-15 0)
(3 1.23742e-15 0)
(3 -6.97094e-17 0)
(3 -6.45994e-16 0)
(3 -1.95103e-15 0)
(3 -2.20763e-15 0)
(3 -1.92252e-15 0)
(3 1.16615e-16 0)
(3 7.27437e-16 0)
(3 1.22832e-15 0)
(3 1.49633e-15 0)
(3 1.63545e-15 0)
(3 1.61456e-15 0)
(3 1.44723e-15 0)
(3 1.49572e-15 0)
(3 1.14409e-15 0)
(3 1.16139e-15 0)
(3 4.4641e-16 0)
(3 -4.57004e-16 0)
(3 -2.1682e-16 0)
(3 -5.30624e-16 0)
(3 5.73831e-16 0)
(3 1.60518e-15 0)
(3 2.21389e-15 0)
(3 1.86932e-15 0)
(3 5.29685e-16 0)
(3 -8.03828e-16 0)
(3 -9.8014e-16 0)
(3 -1.95953e-15 0)
(3 -1.59366e-15 0)
(3 -1.4996e-15 0)
(3 1.09871e-16 0)
(3 3.56156e-16 0)
(3 4.15031e-16 0)
(3 3.65485e-16 0)
(3 3.52722e-16 0)
(3 2.1263e-17 0)
(3 1.26234e-16 0)
(3 1.04361e-16 0)
(3 1.01793e-16 0)
(3 -2.71402e-16 0)
(3 -1.07547e-15 0)
(3 -8.87563e-16 0)
(3 -4.47274e-16 0)
(3 8.05394e-16 0)
(3 1.0701e-15 0)
(3 8.82675e-16 0)
(3 7.58352e-16 0)
(3 6.00557e-16 0)
(3 2.15338e-16 0)
(3 -1.48113e-17 0)
(3 -2.69268e-16 0)
(3 -7.20674e-16 0)
(3 -6.17094e-16 0)
(3 -5.00593e-16 0)
(3 -9.8879e-18 0)
(3 -1.82629e-16 0)
(3 -3.86755e-16 0)
(3 -1.10658e-16 0)
(3 -2.18871e-16 0)
(3 -5.54943e-16 0)
(3 -3.36148e-16 0)
(3 -3.43357e-16 0)
(3 -4.16386e-17 0)
(3 -2.64966e-16 0)
(3 -6.61016e-16 0)
(3 -9.97668e-17 0)
(3 3.39017e-16 0)
(3 2.00411e-16 0)
(3 4.35808e-16 0)
(3 -1.36894e-16 0)
(3 -1.50053e-15 0)
(3 -1.01961e-15 0)
(3 -2.21932e-16 0)
(3 -1.0502e-16 0)
(3 -9.57127e-16 0)
(3 -1.25076e-15 0)
(3 -1.51404e-15 0)
(3 -8.14588e-16 0)
(3 -6.3968e-17 0)
(3 -2.36737e-16 0)
(3 -3.09928e-16 0)
(3 -1.74e-16 0)
(3 -2.12059e-17 0)
(3 -1.47626e-16 0)
(3 -4.90512e-16 0)
(3 -3.03438e-16 0)
(3 -1.87871e-16 0)
(3 -4.57106e-16 0)
(3 4.17342e-17 0)
(3 4.32236e-16 0)
(3 5.12469e-16 0)
(3 -1.2559e-16 0)
(3 1.3849e-16 0)
(3 2.63686e-16 0)
(3 -4.2051e-17 0)
(3 1.38068e-17 0)
(3 1.73212e-16 0)
(3 7.00984e-16 0)
(3 -4.89996e-17 0)
(3 -3.27175e-16 0)
(3 -2.64957e-16 0)
(3 1.70886e-16 0)
(1.70632 1.43613 0)
(2.21476 1.50595 0)
(2.68229 1.40299 0)
(2.87222 0.798251 0)
(2.90069 0.361265 0)
(2.89334 0.0507777 0)
(2.79494 -0.229214 0)
(2.81811 -0.336816 0)
(2.82833 -0.222436 0)
(2.80727 -0.226452 0)
(2.73746 -0.202341 0)
(2.70108 -0.15324 0)
(2.69863 -0.141728 0)
(2.69726 -0.0933288 0)
(2.65076 -0.0148706 0)
(2.63927 0.00475986 0)
(2.6581 0.0029664 0)
(2.72524 0.00242596 0)
(2.78227 0.00415712 0)
(2.80716 0.00104952 0)
(2.83237 -0.00632346 0)
(2.84076 -0.00826048 0)
(2.82534 -0.00670842 0)
(2.80817 -0.00431386 0)
(2.80096 -0.00343831 0)
(2.78914 -0.00299713 0)
(2.78965 -0.00530963 0)
(2.83176 -0.00815486 0)
(2.89827 -0.0100391 0)
(2.91351 -0.00970053 0)
(2.9026 -0.00919404 0)
(2.87885 -0.00804435 0)
(2.85292 -0.00200227 0)
(2.83408 0.0013537 0)
(2.81466 0.0037809 0)
(2.80673 0.00343021 0)
(2.81326 0.00111886 0)
(2.83326 -0.00218556 0)
(2.8575 -0.00621019 0)
(2.87273 -0.0150439 0)
(2.87617 -0.0233016 0)
(2.87433 -0.0251492 0)
(2.87957 -0.0210289 0)
(2.90764 -0.0147204 0)
(2.94459 -0.0119671 0)
(2.95266 -0.0120738 0)
(2.95375 -0.0120357 0)
(2.95922 -0.00958154 0)
(2.96645 -0.0072849 0)
(2.97171 -0.00495459 0)
(2.97842 -0.00299321 0)
(2.99304 -0.00132698 0)
(3.01575 -0.000515565 0)
(3.03378 -0.00036748 0)
(3.03759 -0.000104599 0)
(3.0377 3.76292e-05 0)
(3.03739 0.000299976 0)
(3.03618 0.00044332 0)
(3.03374 0.000476426 0)
(3.02906 0.000458807 0)
(3.02 0.000353078 0)
(3.00735 0.000133594 0)
(3.00071 1.23569e-05 0)
(3.00001 1.03488e-07 0)
(3 -1.37007e-08 0)
(3 -1.35193e-08 0)
(3 -1.30928e-08 0)
(3 -1.07487e-08 0)
(3 -5.19212e-09 0)
(3 -9.49156e-10 0)
(3 -2.97644e-11 0)
(3 4.00551e-13 0)
(3 4.07365e-13 0)
(3 3.57449e-13 0)
(3 1.9648e-13 0)
(3 4.29277e-14 0)
(3 1.64091e-15 0)
(3 -1.22064e-15 0)
(3 -1.3491e-15 0)
(3 -1.75696e-15 0)
(3 -1.8959e-15 0)
(3 -9.61258e-16 0)
(3 -8.53889e-16 0)
(3 -1.1213e-15 0)
(3 -9.62994e-16 0)
(3 -4.11413e-16 0)
(3 -5.75591e-16 0)
(3 -7.02605e-16 0)
(3 -1.04396e-15 0)
(3 -1.61823e-15 0)
(3 -1.69356e-15 0)
(3 -1.12884e-15 0)
(3 -8.60809e-16 0)
(3 -8.52533e-16 0)
(3 -3.91907e-16 0)
(3 -1.64767e-16 0)
(1.99815 1.20925 0)
(2.56844 0.946135 0)
(2.84442 0.402535 0)
(2.99765 0.032724 0)
(3.09261 -0.188474 0)
(3.01454 -0.48728 0)
(2.98681 -0.656684 0)
(3.01325 -0.645503 0)
(2.98782 -0.466017 0)
(2.96686 -0.301756 0)
(2.91399 -0.17318 0)
(2.868 -0.100239 0)
(2.75931 -0.0911898 0)
(2.70958 -0.0650573 0)
(2.68844 -0.0126321 0)
(2.69773 -0.00250779 0)
(2.73422 0.0154458 0)
(2.78235 0.0509137 0)
(2.80153 0.0612028 0)
(2.82937 0.0548328 0)
(2.85322 0.0241886 0)
(2.85987 -0.00755249 0)
(2.85268 -0.0254699 0)
(2.84697 -0.0345686 0)
(2.83789 -0.0371895 0)
(2.8304 -0.0365006 0)
(2.83846 -0.0314914 0)
(2.87739 -0.01812 0)
(2.92659 0.00422412 0)
(2.93003 0.0116858 0)
(2.91652 0.0126639 0)
(2.89178 0.00847487 0)
(2.87288 0.00675797 0)
(2.85039 0.0153715 0)
(2.83983 0.0265692 0)
(2.83793 0.0309642 0)
(2.84316 0.0290601 0)
(2.85455 0.0237732 0)
(2.86781 0.0153445 0)
(2.87502 0.00209507 0)
(2.87608 -0.0163258 0)
(2.87846 -0.032958 0)
(2.8903 -0.0372545 0)
(2.91991 -0.0277672 0)
(2.94593 -0.0195176 0)
(2.95108 -0.0183404 0)
(2.95198 -0.0181826 0)
(2.95625 -0.0173429 0)
(2.96116 -0.0161839 0)
(2.96624 -0.0133605 0)
(2.97523 -0.00996962 0)
(2.99005 -0.00585052 0)
(3.01212 -0.00276529 0)
(3.03275 -0.00155466 0)
(3.03855 -0.000985575 0)
(3.03883 -0.000768443 0)
(3.03882 -4.48523e-05 0)
(3.03789 0.000935481 0)
(3.03554 0.00170576 0)
(3.03044 0.00210272 0)
(3.02014 0.00171479 0)
(3.00669 0.00065233 0)
(3.00054 5.43314e-05 0)
(3 3.88749e-07 0)
(3 -3.36612e-08 0)
(3 -3.31818e-08 0)
(3 -3.1758e-08 0)
(3 -2.76414e-08 0)
(3 -1.60562e-08 0)
(3 -3.2448e-09 0)
(3 -9.8597e-11 0)
(3 1.11353e-12 0)
(3 1.27394e-12 0)
(3 1.13202e-12 0)
(3 6.95776e-13 0)
(3 1.58195e-13 0)
(3 4.2838e-15 0)
(3 -1.81426e-15 0)
(3 -1.37222e-15 0)
(3 -1.01552e-15 0)
(3 -1.43878e-15 0)
(3 -1.18663e-15 0)
(3 -1.59963e-15 0)
(3 -2.03385e-15 0)
(3 -1.07216e-15 0)
(3 -1.15937e-16 0)
(3 -7.03137e-17 0)
(3 -9.01232e-17 0)
(3 -7.39462e-16 0)
(3 -2.16479e-15 0)
(3 -2.41195e-15 0)
(3 -2.52199e-15 0)
(3 -2.24563e-15 0)
(3 -2.50702e-15 0)
(3 -2.70087e-15 0)
(3 -2.00916e-15 0)
(1.86191 1.15427 0)
(2.22725 1.08626 0)
(2.56856 0.761182 0)
(2.84064 0.285482 0)
(2.95661 0.191753 0)
(2.97085 0.120187 0)
(2.99753 -0.147001 0)
(3.02502 -0.203182 0)
(3.08031 -0.213834 0)
(3.06696 -0.248838 0)
(3.04742 -0.274442 0)
(3.01665 -0.311296 0)
(2.96902 -0.287887 0)
(2.86267 -0.149207 0)
(2.83211 -0.0447215 0)
(2.84215 -0.0160916 0)
(2.87413 0.0320687 0)
(2.88324 0.0479559 0)
(2.88896 0.0467523 0)
(2.89119 0.032745 0)
(2.90963 -0.00701574 0)
(2.91832 -0.0378567 0)
(2.92489 -0.0455424 0)
(2.9267 -0.0485219 0)
(2.92118 -0.0555765 0)
(2.91688 -0.0699053 0)
(2.93034 -0.067824 0)
(2.96149 -0.0430039 0)
(2.97855 -0.0141347 0)
(2.96748 -0.0028397 0)
(2.94866 0.00614675 0)
(2.92751 0.0128116 0)
(2.90449 0.011015 0)
(2.8847 0.00170981 0)
(2.88344 -0.00832661 0)
(2.89503 -0.0130339 0)
(2.91042 -0.0126015 0)
(2.9217 -0.00634518 0)
(2.92306 -0.00237705 0)
(2.91456 -0.0144847 0)
(2.9048 -0.0403798 0)
(2.90565 -0.0624743 0)
(2.92408 -0.0605311 0)
(2.95137 -0.039657 0)
(2.96097 -0.02994 0)
(2.96032 -0.0293531 0)
(2.9599 -0.0281613 0)
(2.96335 -0.0263621 0)
(2.96666 -0.0254221 0)
(2.97067 -0.023815 0)
(2.98088 -0.0197186 0)
(2.99679 -0.0131947 0)
(3.01813 -0.00697937 0)
(3.03559 -0.00254571 0)
(3.04003 -0.000522602 0)
(3.04 0.000177301 0)
(3.03956 0.00102165 0)
(3.03814 0.00236888 0)
(3.03536 0.00375942 0)
(3.02981 0.00415924 0)
(3.01848 0.00303608 0)
(3.00512 0.000886872 0)
(3.00029 4.90575e-05 0)
(3 1.57152e-07 0)
(3 -5.60949e-08 0)
(3 -5.50036e-08 0)
(3 -5.20153e-08 0)
(3 -4.31177e-08 0)
(3 -2.1572e-08 0)
(3 -3.3123e-09 0)
(3 -6.30425e-11 0)
(3 2.187e-12 0)
(3 2.16833e-12 0)
(3 1.87969e-12 0)
(3 1.02011e-12 0)
(3 1.70977e-13 0)
(3 2.72242e-15 0)
(3 9.24662e-16 0)
(3 1.61671e-15 0)
(3 1.34105e-15 0)
(3 1.19166e-15 0)
(3 -4.9953e-18 0)
(3 -1.85771e-15 0)
(3 -2.01536e-15 0)
(3 -1.64005e-15 0)
(3 -6.31349e-16 0)
(3 -1.06214e-16 0)
(3 -2.42455e-16 0)
(3 -8.10628e-18 0)
(3 -3.68801e-16 0)
(3 -1.17624e-15 0)
(3 -1.86301e-15 0)
(3 -1.63722e-15 0)
(3 -1.21317e-15 0)
(3 -2.23e-15 0)
(3 -2.98395e-15 0)
(1.75825 1.11505 0)
(2.09034 1.00956 0)
(2.39259 0.782586 0)
(2.57747 0.589921 0)
(2.70556 0.507348 0)
(2.87124 0.307411 0)
(2.97294 -0.012596 0)
(2.99662 -0.159754 0)
(3.05547 -0.159258 0)
(3.09081 -0.217927 0)
(3.06861 -0.358658 0)
(3.07394 -0.395034 0)
(3.07894 -0.360576 0)
(3.03748 -0.266761 0)
(2.99023 -0.142139 0)
(2.98298 -0.100597 0)
(2.99517 -0.0605013 0)
(2.98215 -0.00786321 0)
(2.97692 0.0155355 0)
(2.97811 0.0128942 0)
(2.99162 -0.000320526 0)
(3.00242 -0.00172331 0)
(3.00692 0.00525421 0)
(3.01157 0.0245237 0)
(3.01286 0.029766 0)
(3.01178 0.0180221 0)
(3.02526 0.00250857 0)
(3.03707 -0.00476943 0)
(3.02523 -0.00679542 0)
(3.00513 -0.0116415 0)
(2.98261 -0.02088 0)
(2.96292 -0.0233303 0)
(2.94101 -0.030197 0)
(2.93464 -0.0370024 0)
(2.94513 -0.0332657 0)
(2.96355 -0.019684 0)
(2.98036 -0.0136361 0)
(2.98778 -0.0189894 0)
(2.98236 -0.0325354 0)
(2.96737 -0.0566694 0)
(2.9548 -0.0800552 0)
(2.95662 -0.0793519 0)
(2.97683 -0.0539285 0)
(2.98612 -0.0382732 0)
(2.9785 -0.0373556 0)
(2.97451 -0.037789 0)
(2.96989 -0.0377961 0)
(2.97287 -0.0360114 0)
(2.9755 -0.0333408 0)
(2.98062 -0.0285408 0)
(2.99083 -0.0220385 0)
(3.00586 -0.0160833 0)
(3.02451 -0.0101745 0)
(3.03895 -0.00391225 0)
(3.04184 -0.000276317 0)
(3.0412 0.00115133 0)
(3.04039 0.00252013 0)
(3.03875 0.00390044 0)
(3.03564 0.00526429 0)
(3.02895 0.00546133 0)
(3.01574 0.00338943 0)
(3.00316 0.000703579 0)
(3.0001 2.14434e-05 0)
(3 -3.89671e-08 0)
(3 -7.94069e-08 0)
(3 -7.90254e-08 0)
(3 -7.53732e-08 0)
(3 -5.79576e-08 0)
(3 -2.25899e-08 0)
(3 -2.1135e-09 0)
(3 -1.6028e-11 0)
(3 3.06435e-12 0)
(3 2.91394e-12 0)
(3 2.33317e-12 0)
(3 9.84956e-13 0)
(3 9.6307e-14 0)
(3 -1.64238e-16 0)
(3 -8.33675e-16 0)
(3 -5.49891e-16 0)
(3 2.75718e-16 0)
(3 1.42079e-15 0)
(3 1.16702e-15 0)
(3 5.91461e-16 0)
(3 3.13025e-17 0)
(3 -7.07312e-16 0)
(3 -1.11607e-15 0)
(3 -7.0027e-17 0)
(3 6.10525e-16 0)
(3 7.15415e-16 0)
(3 5.60307e-16 0)
(3 -2.30027e-17 0)
(3 -4.27453e-16 0)
(3 -3.77463e-16 0)
(3 -6.58753e-16 0)
(3 -2.45634e-15 0)
(3 -2.27935e-15 0)
(1.71514 1.04733 0)
(1.96853 1.00081 0)
(2.21692 0.866121 0)
(2.4391 0.667138 0)
(2.58612 0.579844 0)
(2.69381 0.517472 0)
(2.81917 0.304795 0)
(2.88888 0.101358 0)
(2.95439 0.0653784 0)
(2.97228 0.0453145 0)
(3.00979 -0.104833 0)
(3.02582 -0.18019 0)
(3.07957 -0.174826 0)
(3.08712 -0.153395 0)
(3.07229 -0.154781 0)
(3.05695 -0.160655 0)
(3.04907 -0.160019 0)
(3.0416 -0.112414 0)
(3.04746 -0.067473 0)
(3.05888 -0.0504062 0)
(3.06559 -0.046423 0)
(3.07075 -0.0442414 0)
(3.06773 -0.0242149 0)
(3.06713 0.0155042 0)
(3.07459 0.0433638 0)
(3.08054 0.0349234 0)
(3.07103 0.00896379 0)
(3.06426 0.00437412 0)
(3.05205 -0.000843995 0)
(3.0271 -0.00618512 0)
(3.01393 -0.0069597 0)
(2.99431 -0.00939048 0)
(2.98339 -0.0219852 0)
(2.99146 -0.0420961 0)
(3.01238 -0.0424569 0)
(3.02926 -0.0246573 0)
(3.03363 -0.0187375 0)
(3.02745 -0.0186523 0)
(3.01702 -0.0245203 0)
(3.00676 -0.0442203 0)
(3.00382 -0.0596471 0)
(3.01437 -0.0473378 0)
(3.01631 -0.0342496 0)
(3.00184 -0.0356456 0)
(2.99423 -0.0389273 0)
(2.98247 -0.0422235 0)
(2.98141 -0.0432359 0)
(2.98229 -0.0425443 0)
(2.98534 -0.039465 0)
(2.99106 -0.0332454 0)
(2.99964 -0.0262407 0)
(3.01248 -0.01906 0)
(3.02954 -0.0108311 0)
(3.04268 -0.0026396 0)
(3.04455 0.00148523 0)
(3.0437 0.00311584 0)
(3.04263 0.00482786 0)
(3.04027 0.00663399 0)
(3.03604 0.00798089 0)
(3.02691 0.00718099 0)
(3.0115 0.00330125 0)
(3.0014 0.000388832 0)
(3.00002 4.83601e-06 0)
(3 -1.11258e-07 0)
(3 -1.12651e-07 0)
(3 -1.10647e-07 0)
(3 -1.0129e-07 0)
(3 -6.44639e-08 0)
(3 -1.59068e-08 0)
(3 -6.64632e-10 0)
(3 2.35889e-12 0)
(3 4.10704e-12 0)
(3 3.82818e-12 0)
(3 2.55713e-12 0)
(3 6.83112e-13 0)
(3 3.0872e-14 0)
(3 4.63225e-16 0)
(3 -3.62387e-16 0)
(3 -1.62637e-16 0)
(3 8.03849e-16 0)
(3 7.50537e-16 0)
(3 1.1418e-15 0)
(3 1.51147e-15 0)
(3 1.5401e-15 0)
(3 1.45738e-15 0)
(3 1.25229e-15 0)
(3 1.15118e-15 0)
(3 1.7199e-15 0)
(3 5.90088e-16 0)
(3 5.86269e-16 0)
(3 6.19674e-16 0)
(3 1.79639e-16 0)
(3 -1.10745e-15 0)
(3 -2.13171e-15 0)
(3 -1.53539e-15 0)
(3 -9.81665e-16 0)
(1.6872 1.02909 0)
(1.91395 0.97376 0)
(2.13068 0.86486 0)
(2.27623 0.781303 0)
(2.41952 0.728985 0)
(2.6038 0.599862 0)
(2.74254 0.390557 0)
(2.78501 0.274274 0)
(2.82922 0.279508 0)
(2.87357 0.228194 0)
(2.96944 0.0428884 0)
(2.99314 -0.107825 0)
(3.0424 -0.120924 0)
(3.09695 -0.146378 0)
(3.09956 -0.169385 0)
(3.08497 -0.220149 0)
(3.09634 -0.217576 0)
(3.09867 -0.184832 0)
(3.10254 -0.141673 0)
(3.0955 -0.100619 0)
(3.08823 -0.0827754 0)
(3.08393 -0.0776168 0)
(3.08292 -0.0667476 0)
(3.08476 -0.0335582 0)
(3.08847 -0.00824048 0)
(3.09549 -0.0121025 0)
(3.08624 -0.026241 0)
(3.06895 -0.0299779 0)
(3.06237 -0.0288343 0)
(3.04849 -0.0165819 0)
(3.03943 -0.00985574 0)
(3.02834 -0.00501803 0)
(3.03182 -0.0053113 0)
(3.05003 -0.0125116 0)
(3.06607 -0.0103016 0)
(3.06683 0.00400612 0)
(3.05699 0.00886127 0)
(3.04344 0.00734189 0)
(3.03315 0.00661311 0)
(3.03649 0.00227895 0)
(3.05346 -0.0104534 0)
(3.04542 -0.0244325 0)
(3.02432 -0.0304191 0)
(3.01174 -0.0382202 0)
(2.9956 -0.0442699 0)