/*--------------------------------*- C++ -*----------------------------------*\
  =========                 |
  \\      /  F ield         | OpenFOAM: The Open Source CFD Toolbox
   \\    /   O peration     | Website:  https://openfoam.org
    \\  /    A nd           | Version:  7
     \\/     M anipulation  |
\*---------------------------------------------------------------------------*/
FoamFile
{
    version     2.0;
    format      ascii;
    class       volVectorField;
    location    "5.4";
    object      U;
}
// * * * * * * * * * * * * * * * * * * * * * * * * * * * * * * * * * * * * * //

dimensions      [0 1 -1 0 0 0 0];

internalField   nonuniform List<vector> 
344
(
(0.92546 -0.0132768 6.56829e-15)
(0.921982 -0.0127459 6.304e-15)
(0.918636 -0.0122489 6.50641e-15)
(0.915413 -0.0117828 6.70233e-15)
(0.912307 -0.0113451 6.86527e-15)
(0.909311 -0.0109335 7.03639e-15)
(0.906418 -0.0105458 7.2091e-15)
(0.903624 -0.0101802 7.35567e-15)
(0.900922 -0.00983494 7.51425e-15)
(0.898309 -0.00950844 7.61556e-15)
(0.89578 -0.0091993 7.73137e-15)
(0.89333 -0.00890624 7.25695e-15)
(0.890955 -0.00862809 7.42474e-15)
(0.888652 -0.00836377 7.60323e-15)
(0.886418 -0.00811233 7.71437e-15)
(0.884248 -0.00787286 7.85602e-15)
(0.882141 -0.00764457 7.99428e-15)
(0.880094 -0.00742671 8.07206e-15)
(0.878103 -0.0072186 8.21248e-15)
(0.876167 -0.00701962 8.31854e-15)
(0.874283 -0.00682919 8.4342e-15)
(0.872448 -0.00664679 8.50338e-15)
(1.00326 -0.0355528 1.48146e-17)
(1.03324 -0.100629 1.89926e-17)
(1.08115 -0.15061 5.84351e-17)
(1.13035 -0.181049 4.48651e-16)
(1.1712 -0.194804 8.72777e-16)
(1.20021 -0.196328 6.54302e-16)
(1.21723 -0.189899 1.04802e-15)
(1.2239 -0.17893 9.11832e-16)
(1.22248 -0.165799 8.61892e-16)
(1.21514 -0.152027 1.15525e-15)
(1.20373 -0.138522 1.16677e-15)
(1.18969 -0.125777 1.1335e-15)
(1.17412 -0.114024 1.42748e-15)
(1.15779 -0.103341 1.77638e-15)
(1.14126 -0.0937166 1.26923e-15)
(1.12489 -0.0850918 1.55117e-15)
(1.10895 -0.077386 1.91933e-15)
(1.09358 -0.070511 1.67309e-15)
(1.07888 -0.0643794 1.93452e-15)
(1.06489 -0.0589086 2.25811e-15)
(1.05162 -0.0540231 2.03207e-15)
(1.03908 -0.0496549 2.27532e-15)
(1.02725 -0.0457434 2.59266e-15)
(1.01609 -0.0422352 2.75313e-15)
(1.00557 -0.0390832 3.05311e-15)
(0.995666 -0.0362462 3.33995e-15)
(0.986329 -0.033688 3.62673e-15)
(0.977527 -0.0313768 3.848e-15)
(0.969224 -0.0292849 3.65704e-15)
(0.961387 -0.027388 3.8228e-15)
(0.953983 -0.0256646 4.04535e-15)
(0.946982 -0.0240959 4.29547e-15)
(0.940354 -0.0226655 4.5222e-15)
(0.934074 -0.0213586 4.7211e-15)
(0.928117 -0.0201624 4.5461e-15)
(0.92246 -0.0190657 4.72711e-15)
(0.917082 -0.0180582 4.94849e-15)
(0.911963 -0.017131 5.17817e-15)
(0.907086 -0.0162763 5.37809e-15)
(0.902434 -0.015487 5.55614e-15)
(0.897991 -0.0147568 5.37177e-15)
(0.893744 -0.0140801 5.49109e-15)
(0.88968 -0.0134519 5.68752e-15)
(0.885787 -0.0128678 5.86675e-15)
(0.882053 -0.0123238 6.06631e-15)
(0.87847 -0.0118163 6.19333e-15)
(0.875027 -0.011342 6.09463e-15)
(0.871716 -0.0108982 6.1764e-15)
(0.86853 -0.0104822 6.331e-15)
(0.86546 -0.0100916 6.48705e-15)
(0.8625 -0.00972443 6.64503e-15)
(0.859645 -0.00937872 6.81871e-15)
(0.856887 -0.00905277 6.95953e-15)
(0.854223 -0.00874503 7.10979e-15)
(0.851646 -0.00845409 7.20965e-15)
(0.849153 -0.00817868 7.29672e-15)
(0.846739 -0.00791764 7.00042e-15)
(0.8444 -0.00766992 7.07314e-15)
(0.842132 -0.00743456 7.20861e-15)
(0.839933 -0.00721069 7.31515e-15)
(0.837798 -0.00699752 7.46071e-15)
(0.835725 -0.00679432 7.56587e-15)
(0.833711 -0.00660042 7.66616e-15)
(0.831753 -0.00641522 7.79605e-15)
(0.82985 -0.00623815 7.89574e-15)
(0.827998 -0.00606872 8.00181e-15)
(0.826195 -0.00590643 8.07828e-15)
(1.00472 -0.0419216 5.29877e-18)
(1.04179 -0.113691 2.44943e-18)
(1.09525 -0.165478 5.60289e-17)
(1.14593 -0.193529 4.12138e-16)
(1.18389 -0.202974 7.55714e-16)
(1.20708 -0.199942 6.68439e-16)
(1.21688 -0.189564 9.61338e-16)
(1.21605 -0.175558 7.21142e-16)
(1.20755 -0.16029 7.91046e-16)
(1.1939 -0.145141 1.05058e-15)
(1.17707 -0.130841 1.06145e-15)
(1.15848 -0.117727 1.04595e-15)
(1.13914 -0.105901 1.32645e-15)
(1.11973 -0.0953428 1.64857e-15)
(1.1007 -0.0859701 1.14727e-15)
(1.08232 -0.0776734 1.47649e-15)
(1.06475 -0.0703368 1.78753e-15)
(1.04808 -0.0638487 1.46997e-15)
(1.03235 -0.0581056 1.76878e-15)
(1.01754 -0.0530149 2.07907e-15)
(1.00363 -0.0484948 1.77264e-15)
(0.990581 -0.0444735 2.08381e-15)
(0.978354 -0.0408885 2.40258e-15)
(0.966895 -0.0376858 2.49012e-15)
(0.956154 -0.0348184 2.84395e-15)
(0.946082 -0.0322456 3.14922e-15)
(0.936629 -0.0299322 3.40423e-15)
(0.927751 -0.0278476 3.62789e-15)
(0.919404 -0.025965 3.412e-15)
(0.911548 -0.0242615 3.58312e-15)
(0.904145 -0.0227168 3.81429e-15)
(0.897162 -0.0213131 4.04037e-15)
(0.890566 -0.0200351 4.24877e-15)
(0.884328 -0.0188692 4.45599e-15)
(0.878421 -0.0178035 4.3204e-15)
(0.87282 -0.0168274 4.48928e-15)
(0.867503 -0.0159318 4.71007e-15)
(0.862449 -0.0151085 4.90017e-15)
(0.857639 -0.0143501 5.0915e-15)
(0.853056 -0.0136503 5.24561e-15)
(0.848684 -0.0130034 5.10688e-15)
(0.844507 -0.0124044 5.23113e-15)
(0.840514 -0.0118486 5.41049e-15)
(0.836692 -0.0113321 5.55964e-15)
(0.833029 -0.0108513 5.74234e-15)
(0.829516 -0.010403 5.85935e-15)
(0.826142 -0.00998421 5.86806e-15)
(0.8229 -0.00959244 5.86839e-15)
(0.81978 -0.00922535 5.98795e-15)
(0.816777 -0.00888084 6.13738e-15)
(0.813882 -0.00855704 6.29976e-15)
(0.81109 -0.00825225 6.46348e-15)
(0.808395 -0.00796495 6.60577e-15)
(0.805792 -0.00769375 6.74185e-15)
(0.803275 -0.0074374 6.85095e-15)
(0.800841 -0.00719478 6.91128e-15)
(0.798484 -0.00696485 6.66895e-15)
(0.796202 -0.00674668 6.7389e-15)
(0.793989 -0.00653942 6.8582e-15)
(0.791844 -0.0063423 6.96362e-15)
(0.789762 -0.00615462 7.07228e-15)
(0.78774 -0.00597573 7.17351e-15)
(0.785777 -0.00580504 7.282e-15)
(0.783869 -0.00564202 7.40769e-15)
(0.782013 -0.00548617 7.50196e-15)
(0.780209 -0.00533705 7.6018e-15)
(0.778452 -0.00519422 7.67944e-15)
(1.00685 -0.0502127 6.3516e-18)
(1.05276 -0.128845 8.90218e-18)
(1.11119 -0.181218 8.37801e-17)
(1.16138 -0.20526 4.554e-16)
(1.19394 -0.209174 7.78369e-16)
(1.20908 -0.20096 6.71481e-16)
(1.21002 -0.186495 9.68323e-16)
(1.20069 -0.169618 7.30007e-16)
(1.18465 -0.152529 7.14124e-16)
(1.1646 -0.136363 9.96902e-16)
(1.1425 -0.12162 9.63208e-16)
(1.11966 -0.10845 1.00154e-15)
(1.09694 -0.0968171 1.3029e-15)
(1.07487 -0.0866044 1.59188e-15)
(1.05375 -0.0776619 1.11879e-15)
(1.03376 -0.069836 1.47338e-15)
(1.01495 -0.0629821 1.73296e-15)
(0.997333 -0.0569702 1.40608e-15)
(0.980882 -0.051686 1.70219e-15)
(0.965543 -0.0470304 1.97832e-15)
(0.951253 -0.0429184 1.66274e-15)
(0.937941 -0.0392771 1.9828e-15)
(0.925537 -0.0360442 2.28131e-15)
(0.913974 -0.0331666 2.44076e-15)
(0.903185 -0.0305985 2.74828e-15)
(0.893108 -0.028301 3.01426e-15)
(0.883685 -0.0262405 3.27776e-15)
(0.874862 -0.0243881 3.46249e-15)
(0.866591 -0.0227189 3.15552e-15)
(0.858826 -0.0212113 3.39468e-15)
(0.851526 -0.0198466 3.62454e-15)
(0.844653 -0.0186085 3.84081e-15)
(0.838174 -0.0174828 4.04915e-15)
(0.832055 -0.0164573 4.22252e-15)
(0.826271 -0.0155209 4.07369e-15)
(0.820793 -0.0146643 4.28099e-15)
(0.815599 -0.0138791 4.48019e-15)
(0.810668 -0.0131578 4.68314e-15)
(0.805979 -0.012494 4.847e-15)
(0.801515 -0.011882 4.97583e-15)
(0.79726 -0.0113166 4.82617e-15)
(0.793199 -0.0107933 4.9875e-15)
(0.789319 -0.0103081 5.16148e-15)
(0.785606 -0.00985736 5.32211e-15)
(0.782051 -0.00943799 5.46773e-15)
(0.778642 -0.00904709 5.5846e-15)
(0.775371 -0.00868212 5.47293e-15)
(0.772228 -0.00834078 5.58215e-15)
(0.769205 -0.00802103 5.70249e-15)
(0.766296 -0.00772103 5.86335e-15)
(0.763493 -0.00743913 6.0082e-15)
(0.76079 -0.00717383 6.17283e-15)
(0.758182 -0.0069238 6.29245e-15)
(0.755664 -0.00668782 6.40787e-15)
(0.753229 -0.0064648 6.51463e-15)
(0.750875 -0.00625374 6.58298e-15)
(0.748597 -0.00605374 6.31103e-15)
(0.74639 -0.00586399 6.42174e-15)
(0.744252 -0.00568375 6.54414e-15)
(0.742178 -0.00551234 6.62891e-15)
(0.740166 -0.00534914 6.73386e-15)
(0.738214 -0.00519359 6.83127e-15)
(0.736317 -0.00504519 6.93391e-15)
(0.734474 -0.00490345 7.04564e-15)
(0.732683 -0.00476796 7.12001e-15)
(0.73094 -0.00463831 7.22679e-15)
(0.729244 -0.00451415 7.28336e-15)
(1.00994 -0.0610347 7.68181e-18)
(1.06655 -0.146169 5.88117e-18)
(1.12846 -0.197257 1.24024e-16)
(1.17527 -0.215357 3.71591e-16)
(1.19941 -0.212548 6.55465e-16)
(1.20414 -0.198744 6.54363e-16)
(1.19476 -0.180307 8.12807e-16)
(1.17626 -0.16094 6.73156e-16)
(1.15253 -0.142499 6.45092e-16)
(1.1263 -0.125777 8.44204e-16)
(1.09936 -0.110999 8.84758e-16)
(1.07279 -0.0981126 9.62934e-16)
(1.04723 -0.0869475 1.19242e-15)
(1.02303 -0.0772964 1.4287e-15)
(1.00034 -0.0689527 1.18519e-15)
(0.979193 -0.0617278 1.3509e-15)
(0.959565 -0.0554564 1.55403e-15)
(0.941385 -0.0499968 1.25835e-15)
(0.924564 -0.0452289 1.53359e-15)
(0.909003 -0.0410518 1.7629e-15)
(0.894603 -0.0373802 1.4846e-15)
(0.881269 -0.0341428 1.77718e-15)
(0.868908 -0.0312793 2.04216e-15)
(0.857436 -0.0287389 2.25201e-15)
(0.846774 -0.0264785 2.50932e-15)
(0.83685 -0.0244617 2.76813e-15)
(0.827599 -0.0226572 3.00662e-15)
(0.818961 -0.0210385 3.15426e-15)
(0.810883 -0.0195826 2.83339e-15)
(0.803316 -0.0182701 3.0658e-15)
(0.796215 -0.0170838 3.29872e-15)
(0.789541 -0.0160091 3.49598e-15)
(0.783259 -0.0150334 3.69473e-15)
(0.777336 -0.0141454 3.84936e-15)
(0.771742 -0.0133356 3.80473e-15)
(0.766451 -0.0125955 3.93145e-15)
(0.76144 -0.0119176 4.12671e-15)
(0.756685 -0.0112954 4.31429e-15)
(0.752169 -0.0107233 4.46068e-15)
(0.747872 -0.0101961 4.58744e-15)
(0.743779 -0.00970934 4.49686e-15)
(0.739875 -0.00925908 4.61522e-15)
(0.736146 -0.00884181 4.75176e-15)
(0.732581 -0.00845438 4.91836e-15)
(0.729168 -0.00809401 5.05519e-15)
(0.725897 -0.00775822 5.14833e-15)
(0.722758 -0.0074448 5.04821e-15)
(0.719744 -0.00715175 5.1382e-15)
(0.716847 -0.0068773 5.26339e-15)
(0.714058 -0.00661986 5.43445e-15)
(0.711372 -0.00637799 5.54995e-15)
(0.708783 -0.00615041 5.70736e-15)
(0.706285 -0.00593595 5.8256e-15)
(0.703873 -0.00573356 5.94144e-15)
(0.701543 -0.00554231 6.03044e-15)
(0.699289 -0.00536133 6.07242e-15)
(0.697108 -0.00518984 5.90438e-15)
(0.694996 -0.00502716 5.9691e-15)
(0.69295 -0.00487263 6.06817e-15)
(0.690966 -0.00472568 6.14937e-15)
(0.689041 -0.00458577 6.24002e-15)
(0.687173 -0.00445243 6.32769e-15)
(0.685359 -0.00432521 6.42485e-15)
(0.683596 -0.00420371 6.51739e-15)
(0.681883 -0.00408756 6.61217e-15)
(0.680216 -0.00397642 6.69883e-15)
(0.678595 -0.00386998 6.75403e-15)
(1.01432 -0.075125 -2.56627e-18)
(1.08338 -0.165525 -8.21291e-18)
(1.14594 -0.212678 -2.16442e-19)
(1.18548 -0.222688 3.5546e-16)
(1.19777 -0.212167 6.27811e-16)
(1.18987 -0.192708 6.43318e-16)
(1.1691 -0.17073 7.38438e-16)
(1.14117 -0.149486 5.87094e-16)
(1.11005 -0.13031 6.03308e-16)
(1.07822 -0.113572 7.54027e-16)
(1.04713 -0.0991991 8.19414e-16)
(1.01754 -0.0869426 9.54427e-16)
(0.989845 -0.0765101 1.12781e-15)
(0.964158 -0.0676205 1.29255e-15)
(0.94047 -0.0600249 1.15213e-15)
(0.918694 -0.0535114 1.27102e-15)
(0.898705 -0.0479035 1.43283e-15)
(0.880363 -0.0430552 1.23902e-15)
(0.863526 -0.0388461 1.41116e-15)
(0.848055 -0.0351772 1.60771e-15)
(0.833822 -0.0319666 1.43498e-15)
(0.820709 -0.0291466 1.62726e-15)
(0.808606 -0.0266609 1.86895e-15)
(0.797417 -0.0244623 2.10862e-15)
(0.787053 -0.0225114 2.3372e-15)
(0.777436 -0.0207749 2.57429e-15)
(0.768494 -0.0192245 2.77885e-15)
(0.760164 -0.0178365 2.8943e-15)
(0.75239 -0.0165904 2.63228e-15)
(0.745121 -0.0154687 2.80695e-15)
(0.738311 -0.0144564 3.01857e-15)
(0.731921 -0.0135405 3.20141e-15)
(0.725913 -0.0127099 3.40598e-15)
(0.720255 -0.0119549 3.5554e-15)
(0.714917 -0.0112669 3.51611e-15)
(0.709872 -0.0106387 3.62703e-15)
(0.705098 -0.0100638 3.81284e-15)
(0.700573 -0.00953657 3.96811e-15)
(0.696276 -0.00905201 4.13326e-15)
(0.692191 -0.00860576 4.23227e-15)
(0.688301 -0.00819397 4.16062e-15)
(0.684593 -0.00781323 4.24421e-15)
(0.681053 -0.00746052 4.37591e-15)
(0.677669 -0.00713316 4.5439e-15)
(0.674431 -0.00682876 4.66276e-15)
(0.671329 -0.00654521 4.73663e-15)
(0.668353 -0.00628061 4.62945e-15)
(0.665495 -0.00603326 4.72613e-15)
(0.662749 -0.00580165 4.85924e-15)
(0.660106 -0.00558443 5.0019e-15)
(0.657561 -0.00538038 5.12445e-15)
(0.655109 -0.0051884 5.27708e-15)
(0.652742 -0.0050075 5.37479e-15)
(0.650458 -0.00483681 5.4833e-15)
)
;

boundaryField
{
    inlet
    {
        type            uniformFixedValue;
        uniformValue    constant (1 0 0);
        value           uniform (1 0 0);
    }
    outlet
    {
        type            pressureInletOutletVelocity;
        value           nonuniform 0();
    }
    wall
    {
        type            fixedValue;
        value           nonuniform 0();
    }
    wedge1
    {
        type            wedge;
    }
    wedge2
    {
        type            wedge;
    }
    axis
    {
        type            empty;
    }
    procBoundary30to24
    {
        type            processor;
        value           nonuniform List<vector> 
68
(
(0.970445 -0.0147735 6.80216e-15)
(0.966969 -0.0141856 6.46701e-15)
(0.963621 -0.0136348 6.69812e-15)
(0.960394 -0.0131182 6.91814e-15)
(0.957282 -0.0126327 7.08764e-15)
(0.954278 -0.012176 7.27607e-15)
(0.951376 -0.0117457 7.42217e-15)
(0.948572 -0.0113398 7.5954e-15)
(0.945859 -0.0109564 7.76043e-15)
(0.943234 -0.0105936 7.88463e-15)
(0.940691 -0.0102501 8.00167e-15)
(0.938227 -0.00992443 7.4295e-15)
(0.935838 -0.00961522 7.64376e-15)
(0.93352 -0.00932134 7.83152e-15)
(0.931271 -0.00904171 7.97332e-15)
(0.929086 -0.00877537 8.11961e-15)
(0.926964 -0.00852142 8.26052e-15)
(0.9249 -0.00827904 8.34337e-15)
(0.922894 -0.00804747 8.45402e-15)
(0.920942 -0.00782603 8.56954e-15)
(0.919041 -0.00761409 8.68548e-15)
(0.917191 -0.00741106 8.77737e-15)
(1.00229 -0.0306251 6.86302e-18)
(1.02666 -0.0894677 4.35612e-17)
(1.06905 -0.136922 6.84155e-17)
(1.11553 -0.168476 6.09082e-16)
(1.15733 -0.185394 1.08732e-15)
(1.19017 -0.190744 8.02261e-16)
(1.21277 -0.187945 1.26473e-15)
(1.22578 -0.179998 1.0664e-15)
(1.23072 -0.16917 9.55359e-16)
(1.22934 -0.157031 1.36186e-15)
(1.22327 -0.144601 1.26328e-15)
(1.2139 -0.132496 1.18114e-15)
(1.20232 -0.121061 1.59037e-15)
(1.18935 -0.110465 2.01769e-15)
(1.17564 -0.100767 1.28012e-15)
(1.16162 -0.0919628 1.73317e-15)
(1.14761 -0.0840092 2.12357e-15)
(1.13385 -0.0768461 1.85228e-15)
(1.12047 -0.0704057 2.1798e-15)
(1.10756 -0.064619 2.52481e-15)
(1.09519 -0.0594197 2.22109e-15)
(1.08338 -0.0547458 2.52081e-15)
(1.07215 -0.0505407 2.85543e-15)
(1.06148 -0.0467532 3.07669e-15)
(1.05136 -0.0433374 3.35432e-15)
(1.04178 -0.0402525 3.64503e-15)
(1.0327 -0.0374623 3.90273e-15)
(1.02411 -0.0349346 4.15965e-15)
(1.01597 -0.0326411 3.83024e-15)
(1.00827 -0.0305566 4.10254e-15)
(1.00096 -0.028659 4.36939e-15)
(0.994038 -0.0269285 4.61802e-15)
(0.987466 -0.0253478 4.86321e-15)
(0.981225 -0.0239014 5.08081e-15)
(0.975293 -0.0225757 4.73491e-15)
(0.969649 -0.0213586 5.01703e-15)
(0.964274 -0.0202392 5.26864e-15)
(0.959151 -0.019208 5.49864e-15)
(0.954263 -0.0182565 5.72134e-15)
(0.949594 -0.0173769 5.92379e-15)
(0.94513 -0.0165625 5.57081e-15)
(0.940858 -0.0158073 5.80704e-15)
(0.936766 -0.0151057 6.02457e-15)
(0.932842 -0.0144529 6.23819e-15)
(0.929077 -0.0138446 6.42111e-15)
(0.929077 -0.0138446 6.42111e-15)
)
;
    }
    procBoundary30to25
    {
        type            processor;
        value           uniform (0.870662 -0.00647192 8.56595e-15);
    }
    procBoundary30to31
    {
        type            processor;
        value           nonuniform List<vector> 4((0.82444 -0.00575087 8.11854e-15) (0.776742 -0.00505732 7.68251e-15) (0.727594 -0.00439514 7.31308e-15) (0.677017 -0.00376796 6.76498e-15));
    }
    procBoundary30to36
    {
        type            processor;
        value           nonuniform List<vector> 
68
(
(0.648251 -0.00467551 5.58929e-15)
(0.646117 -0.00452288 5.62149e-15)
(0.644052 -0.00437827 5.46154e-15)
(0.642052 -0.00424108 5.50565e-15)
(0.640115 -0.00411077 5.59796e-15)
(0.638237 -0.00398685 5.68599e-15)
(0.636415 -0.00386887 5.75483e-15)
(0.634647 -0.00375643 5.84856e-15)
(0.63293 -0.00364914 5.94822e-15)
(0.631262 -0.00354668 6.03905e-15)
(0.629641 -0.00344873 6.1066e-15)
(0.628064 -0.00335501 6.18524e-15)
(0.626529 -0.00326524 6.2355e-15)
(1.02032 -0.0933186 1.67505e-17)
(1.10307 -0.186413 -2.58503e-18)
(1.16162 -0.226136 8.68224e-17)
(1.18901 -0.22591 2.80049e-16)
(1.18594 -0.207112 4.79882e-16)
(1.16361 -0.182402 6.50407e-16)
(1.13099 -0.157677 6.81213e-16)
(1.094 -0.135392 4.66614e-16)
(1.05628 -0.116212 5.44288e-16)
(1.01979 -0.100043 7.06387e-16)
(0.985507 -0.0865191 7.59236e-16)
(0.953816 -0.0752212 9.84835e-16)
(0.924793 -0.0657598 1.09366e-15)
(0.898341 -0.0578026 1.23273e-15)
(0.874287 -0.0510759 1.11412e-15)
(0.852427 -0.0453584 1.22984e-15)
(0.83255 -0.0404721 1.36115e-15)
(0.814456 -0.036274 1.16181e-15)
(0.797958 -0.0326488 1.3338e-15)
(0.782887 -0.0295033 1.51023e-15)
(0.769091 -0.0267618 1.32928e-15)
(0.756435 -0.0243623 1.53268e-15)
(0.744799 -0.0222537 1.77422e-15)
(0.734076 -0.0203937 2.01857e-15)
(0.724173 -0.0187473 2.22462e-15)
(0.715006 -0.017285 2.43898e-15)
(0.706502 -0.0159821 2.57704e-15)
(0.698596 -0.0148176 2.66467e-15)
(0.691231 -0.0137738 2.37696e-15)
(0.684355 -0.0128356 2.55919e-15)
(0.677922 -0.01199 2.78263e-15)
(0.671892 -0.0112258 2.96064e-15)
(0.66623 -0.0105336 3.16145e-15)
(0.660902 -0.00990486 3.28562e-15)
(0.655879 -0.00933254 3.22347e-15)
(0.651137 -0.00881032 3.3423e-15)
(0.646652 -0.00833274 3.50798e-15)
(0.642402 -0.00789503 3.67853e-15)
(0.63837 -0.00749297 3.8168e-15)
(0.634538 -0.00712289 3.91221e-15)
(0.63089 -0.00678155 3.80125e-15)
(0.627414 -0.00646606 3.91432e-15)
(0.624097 -0.00617391 4.05211e-15)
(0.620927 -0.00590283 4.20159e-15)
(0.617894 -0.00565083 4.32076e-15)
(0.614988 -0.00541614 4.36594e-15)
(0.612202 -0.00519718 4.16344e-15)
(0.609527 -0.00499253 4.32217e-15)
(0.606956 -0.00480093 4.46926e-15)
(0.604483 -0.00462125 4.62253e-15)
(0.602101 -0.00445248 4.73582e-15)
(0.599806 -0.0042937 4.87003e-15)
(0.597592 -0.0041441 4.97004e-15)
(0.648251 -0.00467551 5.58929e-15)
(0.595455 -0.00400294 5.07017e-15)
)
;
    }
}


// ************************************************************************* //
