/*--------------------------------*- C++ -*----------------------------------*\
  =========                 |
  \\      /  F ield         | OpenFOAM: The Open Source CFD Toolbox
   \\    /   O peration     | Website:  https://openfoam.org
    \\  /    A nd           | Version:  7
     \\/     M anipulation  |
\*---------------------------------------------------------------------------*/
FoamFile
{
    version     2.0;
    format      ascii;
    class       volScalarField;
    location    "90.000652";
    object      p;
}
// * * * * * * * * * * * * * * * * * * * * * * * * * * * * * * * * * * * * * //

dimensions      [0 2 -2 0 0 0 0];

internalField   nonuniform List<scalar> 
5800
(
-0.230028
-0.230555
-0.231016
-0.231378
-0.2316
-0.231641
-0.231452
-0.231014
-0.230291
-0.22267
-0.224401
-0.225453
-0.226281
-0.22701
-0.227665
-0.228284
-0.228895
-0.22951
-0.230129
-0.230739
-0.231322
-0.23185
-0.232289
-0.232597
-0.232726
-0.232618
-0.232239
-0.231548
-0.223585
-0.22525
-0.226265
-0.227068
-0.22778
-0.228426
-0.229044
-0.229662
-0.230295
-0.230942
-0.231592
-0.232226
-0.232818
-0.233332
-0.233724
-0.23394
-0.233906
-0.233572
-0.232919
-0.224742
-0.226313
-0.227276
-0.228042
-0.228724
-0.229349
-0.229956
-0.230573
-0.231215
-0.231882
-0.232565
-0.233245
-0.233896
-0.234481
-0.234953
-0.235254
-0.235291
-0.234975
-0.234412
-0.226119
-0.227572
-0.228468
-0.229182
-0.229823
-0.230416
-0.231
-0.231606
-0.232247
-0.232924
-0.233631
-0.234348
-0.235051
-0.235701
-0.236248
-0.23663
-0.236738
-0.236392
-0.236041
-0.227687
-0.229003
-0.229817
-0.230469
-0.231055
-0.231604
-0.232153
-0.232734
-0.233361
-0.234038
-0.234756
-0.2355
-0.236244
-0.23695
-0.237562
-0.238018
-0.238211
-0.23773
-0.237836
-0.233639
-0.229416
-0.230581
-0.231303
-0.231879
-0.232398
-0.232888
-0.233388
-0.233929
-0.234528
-0.235188
-0.235904
-0.236659
-0.23743
-0.238179
-0.238843
-0.239355
-0.239672
-0.238856
-0.239836
-0.233626
-0.231276
-0.23228
-0.232899
-0.233389
-0.233827
-0.234243
-0.234678
-0.235161
-0.235713
-0.236339
-0.237034
-0.237783
-0.238562
-0.239336
-0.240033
-0.240559
-0.241086
-0.239669
-0.242022
-0.233302
-0.233236
-0.234075
-0.234584
-0.234977
-0.23532
-0.235645
-0.235995
-0.236401
-0.236885
-0.237455
-0.238107
-0.238828
-0.239592
-0.240367
-0.241076
-0.241551
-0.24233
-0.240415
-0.243376
-0.233071
-0.23527
-0.235945
-0.236339
-0.236622
-0.236856
-0.237072
-0.237315
-0.237622
-0.238014
-0.238503
-0.239087
-0.239754
-0.240478
-0.241225
-0.241919
-0.242374
-0.243188
-0.240939
-0.244644
-0.232378
-0.237357
-0.237873
-0.238147
-0.238311
-0.238418
-0.238506
-0.23862
-0.238801
-0.239075
-0.239457
-0.239945
-0.24053
-0.241183
-0.24187
-0.242516
-0.242883
-0.243801
-0.240892
-0.245649
-0.231199
-0.239481
-0.239849
-0.24
-0.240033
-0.239997
-0.239934
-0.239894
-0.239923
-0.240051
-0.240296
-0.24066
-0.241132
-0.241684
-0.242278
-0.242843
-0.243046
-0.244086
-0.240345
-0.246185
-0.2297
-0.24164
-0.24187
-0.241893
-0.241784
-0.241587
-0.241351
-0.241132
-0.24098
-0.240933
-0.241011
-0.241221
-0.241552
-0.241973
-0.242438
-0.242892
-0.24287
-0.243983
-0.239392
-0.245987
-0.228134
-0.243837
-0.24394
-0.243833
-0.243569
-0.243192
-0.242759
-0.242334
-0.241973
-0.241722
-0.241606
-0.241633
-0.241794
-0.242054
-0.242357
-0.242661
-0.242379
-0.243412
-0.23817
-0.244751
-0.22669
-0.246089
-0.246076
-0.245831
-0.245397
-0.244822
-0.244169
-0.243511
-0.242915
-0.242432
-0.242094
-0.241913
-0.241878
-0.24195
-0.242056
-0.24216
-0.241606
-0.242304
-0.236796
-0.242285
-0.225295
-0.248425
-0.248298
-0.247909
-0.24729
-0.246495
-0.245598
-0.244683
-0.243826
-0.243087
-0.242504
-0.242091
-0.241835
-0.241691
-0.241567
-0.241404
-0.240568
-0.240629
-0.235252
-0.238653
-0.223587
-0.250882
-0.25064
-0.250097
-0.249274
-0.248237
-0.247074
-0.245878
-0.244738
-0.243722
-0.242873
-0.242208
-0.241708
-0.241317
-0.24092
-0.240409
-0.239243
-0.23841
-0.233362
-0.234152
-0.22113
-0.25351
-0.253143
-0.252428
-0.251383
-0.250083
-0.248631
-0.247135
-0.245692
-0.244381
-0.24325
-0.242313
-0.241543
-0.240864
-0.240137
-0.239184
-0.237583
-0.235693
-0.230884
-0.229057
-0.217715
-0.256365
-0.255854
-0.254947
-0.253656
-0.252071
-0.250311
-0.248496
-0.246736
-0.245114
-0.243685
-0.242454
-0.241381
-0.240361
-0.239222
-0.23772
-0.235528
-0.232524
-0.227653
-0.223408
-0.21351
-0.259509
-0.258823
-0.257698
-0.256138
-0.254247
-0.252159
-0.25001
-0.247918
-0.245975
-0.24423
-0.242679
-0.241256
-0.239821
-0.238164
-0.235992
-0.233042
-0.228944
-0.223646
-0.217213
-0.20886
-0.263006
-0.262106
-0.260733
-0.258877
-0.256656
-0.254224
-0.251727
-0.249293
-0.247014
-0.244932
-0.243021
-0.241184
-0.239237
-0.236936
-0.233964
-0.230114
-0.224993
-0.218975
-0.211037
-0.203707
-0.266923
-0.265757
-0.264101
-0.261921
-0.259348
-0.256554
-0.253698
-0.25091
-0.248278
-0.245826
-0.2435
-0.241161
-0.238583
-0.235502
-0.231611
-0.226771
-0.220682
-0.213784
-0.20536
-0.197465
-0.27132
-0.26983
-0.267852
-0.265318
-0.26237
-0.2592
-0.255971
-0.252814
-0.249803
-0.246934
-0.244115
-0.241162
-0.23782
-0.233825
-0.228919
-0.223053
-0.216036
-0.208391
-0.199494
-0.191122
-0.276255
-0.274375
-0.272033
-0.269116
-0.26577
-0.262206
-0.25859
-0.255042
-0.251612
-0.24826
-0.244845
-0.241146
-0.236899
-0.231873
-0.225895
-0.219007
-0.211149
-0.202828
-0.193573
-0.18493
-0.281778
-0.279437
-0.27669
-0.273358
-0.269592
-0.265616
-0.261593
-0.257621
-0.253715
-0.249786
-0.245649
-0.241059
-0.235773
-0.229626
-0.222555
-0.214691
-0.20607
-0.197179
-0.187624
-0.178758
-0.287931
-0.285057
-0.281862
-0.278085
-0.273877
-0.269469
-0.26501
-0.260566
-0.256102
-0.251477
-0.24647
-0.240839
-0.234397
-0.227075
-0.218926
-0.210149
-0.200852
-0.191469
-0.181648
-0.172629
-0.294746
-0.291266
-0.287583
-0.283335
-0.278661
-0.273795
-0.26886
-0.263872
-0.25874
-0.253273
-0.247235
-0.240421
-0.232733
-0.224218
-0.215032
-0.205418
-0.195519
-0.185703
-0.175652
-0.166484
-0.302243
-0.298089
-0.293881
-0.289137
-0.283974
-0.278616
-0.273145
-0.267516
-0.261576
-0.255098
-0.247863
-0.239741
-0.230753
-0.221059
-0.210893
-0.200516
-0.190078
-0.179872
-0.169613
-0.160303
-0.310429
-0.305538
-0.300774
-0.295512
-0.289832
-0.283936
-0.277847
-0.271448
-0.26453
-0.256858
-0.248268
-0.238743
-0.228434
-0.217599
-0.206521
-0.195447
-0.184521
-0.173958
-0.163509
-0.154056
-0.319296
-0.313612
-0.308269
-0.302469
-0.296239
-0.289741
-0.282921
-0.27559
-0.267501
-0.258447
-0.248364
-0.237376
-0.225758
-0.213837
-0.201912
-0.190201
-0.178828
-0.167934
-0.157312
-0.147718
-0.328816
-0.322295
-0.316354
-0.309997
-0.303174
-0.295985
-0.288292
-0.279836
-0.270367
-0.259754
-0.248073
-0.235598
-0.222706
-0.209763
-0.197054
-0.184758
-0.172971
-0.161772
-0.150994
-0.141263
-0.338936
-0.331547
-0.324999
-0.318064
-0.310589
-0.302593
-0.293848
-0.284052
-0.272992
-0.260666
-0.247319
-0.233367
-0.219256
-0.205358
-0.191924
-0.17909
-0.166921
-0.155441
-0.144526
-0.134667
-0.34958
-0.341307
-0.334147
-0.326607
-0.318401
-0.309451
-0.299448
-0.28808
-0.275232
-0.261076
-0.246037
-0.230645
-0.215382
-0.200595
-0.186492
-0.173164
-0.160644
-0.148911
-0.137881
-0.127906
-0.360639
-0.351482
-0.34371
-0.335528
-0.326488
-0.316407
-0.304916
-0.291748
-0.276943
-0.260884
-0.244164
-0.227391
-0.211049
-0.195441
-0.180723
-0.166944
-0.154106
-0.142151
-0.131032
-0.120957
-0.371971
-0.361947
-0.353566
-0.344694
-0.334692
-0.323275
-0.310055
-0.294873
-0.277986
-0.259995
-0.241638
-0.223561
-0.206217
-0.189856
-0.174578
-0.160393
-0.147273
-0.135134
-0.123952
-0.113798
-0.383399
-0.372546
-0.363557
-0.353928
-0.34281
-0.329834
-0.314648
-0.297275
-0.278227
-0.258322
-0.238399
-0.219107
-0.200844
-0.183798
-0.168017
-0.153474
-0.140113
-0.12783
-0.116617
-0.106411
-0.394713
-0.383083
-0.373486
-0.363016
-0.350608
-0.335841
-0.318473
-0.298776
-0.277543
-0.255781
-0.234387
-0.213977
-0.194882
-0.177222
-0.160999
-0.146151
-0.132596
-0.120214
-0.109003
-0.0987763
-0.405667
-0.39333
-0.383119
-0.371707
-0.357819
-0.341037
-0.321306
-0.299209
-0.275819
-0.252292
-0.22954
-0.208119
-0.188281
-0.170085
-0.153485
-0.138391
-0.124693
-0.112262
-0.101088
-0.0908779
-0.415987
-0.403026
-0.392188
-0.37972
-0.364158
-0.345156
-0.322933
-0.298418
-0.272948
-0.247779
-0.223797
-0.201478
-0.180994
-0.162344
-0.145439
-0.130161
-0.116378
-0.103952
-0.0928555
-0.0827058
-0.425373
-0.411883
-0.400398
-0.386748
-0.369325
-0.347938
-0.323152
-0.296263
-0.268833
-0.24217
-0.217098
-0.194001
-0.172975
-0.153957
-0.136825
-0.121433
-0.107628
-0.0952654
-0.0842927
-0.0742594
-0.433505
-0.41959
-0.407433
-0.392473
-0.373023
-0.349133
-0.321778
-0.292616
-0.263385
-0.235395
-0.209384
-0.185639
-0.164178
-0.144888
-0.127612
-0.112182
-0.098424
-0.0861854
-0.0753909
-0.0655438
-0.440054
-0.425823
-0.412964
-0.396572
-0.374961
-0.348511
-0.318648
-0.287365
-0.256524
-0.227391
-0.200602
-0.176345
-0.154566
-0.135105
-0.117776
-0.102387
-0.0887467
-0.0766951
-0.066138
-0.0565523
-0.444687
-0.430252
-0.41666
-0.398731
-0.374869
-0.345867
-0.31362
-0.280415
-0.24818
-0.218103
-0.190705
-0.166079
-0.144104
-0.124581
-0.107295
-0.0920325
-0.0785828
-0.0667821
-0.0565173
-0.0472468
-0.44708
-0.432553
-0.4182
-0.398652
-0.372503
-0.341024
-0.306576
-0.271686
-0.238293
-0.207481
-0.179652
-0.154807
-0.132767
-0.113296
-0.096153
-0.0811044
-0.0679221
-0.0564424
-0.0465262
-0.0375476
-0.446923
-0.432415
-0.417281
-0.396066
-0.36765
-0.333835
-0.29742
-0.261113
-0.226815
-0.195487
-0.167411
-0.142504
-0.120534
-0.101233
-0.0843378
-0.0695943
-0.056759
-0.045678
-0.0361935
-0.027404
-0.443932
-0.429549
-0.413626
-0.390736
-0.360136
-0.324188
-0.286085
-0.248652
-0.213714
-0.182095
-0.153961
-0.129153
-0.107392
-0.0883837
-0.0718441
-0.0575003
-0.0451017
-0.0344961
-0.0255207
-0.0169499
-0.437856
-0.423701
-0.406999
-0.382469
-0.349828
-0.312002
-0.272523
-0.234276
-0.198971
-0.167289
-0.139288
-0.114742
-0.0933346
-0.0747479
-0.0586811
-0.0448338
-0.0329771
-0.0229427
-0.0143921
-0.00632435
-0.428484
-0.414655
-0.397205
-0.371114
-0.336633
-0.29723
-0.256717
-0.217975
-0.182578
-0.151063
-0.123388
-0.099273
-0.0783759
-0.0603441
-0.0448762
-0.0316254
-0.0203806
-0.0109789
-0.00290313
0.0045292
-0.41565
-0.402241
-0.384098
-0.356572
-0.3205
-0.279861
-0.23867
-0.199759
-0.164544
-0.133422
-0.10628
-0.0827685
-0.0625564
-0.0452025
-0.0304209
-0.0178736
-0.00733312
0.0013829
0.00889963
0.0156328
-0.399242
-0.386339
-0.367584
-0.338792
-0.301422
-0.259912
-0.218413
-0.179654
-0.144888
-0.114396
-0.0880193
-0.0652877
-0.0458618
-0.029327
-0.0153495
-0.00360331
0.00614553
0.0141143
0.0209921
0.0269776
-0.379197
-0.366885
-0.347622
-0.317771
-0.279433
-0.237438
-0.195998
-0.157709
-0.123668
-0.0940828
-0.0686065
-0.0468283
-0.0283444
-0.0127528
0.000305169
0.0111537
0.0200279
0.0271837
0.0333534
0.038539
-0.355512
-0.343867
-0.324228
-0.293556
-0.25461
-0.212523
-0.171503
-0.134003
-0.100983
-0.0724726
-0.0481064
-0.0274426
-0.0100499
0.00447546
0.0165038
0.02636
0.0342799
0.040557
0.0459542
0.0502836
-0.328236
-0.317331
-0.297469
-0.266252
-0.227073
-0.185268
-0.145024
-0.108635
-0.0768706
-0.0496559
-0.0265856
-0.00719366
0.00896682
0.0223063
0.0332005
0.0419732
0.0488621
0.054197
0.0587587
0.0621711
-0.297476
-0.287373
-0.267473
-0.236014
-0.196956
-0.155776
-0.116692
-0.0817029
-0.0514341
-0.0257214
-0.00412293
0.013846
0.028642
0.0406814
0.0503421
0.0579448
0.0637308
0.0680643
0.0717289
0.0741601
-0.263389
-0.254147
-0.234421
-0.203015
-0.164344
-0.124252
-0.0866534
-0.0533356
-0.0247884
-0.000770508
0.0191913
0.0355947
0.0489027
0.0595353
0.0678694
0.0742206
0.0788377
0.0821198
0.0848311
0.086216
-0.226162
-0.217866
-0.198525
-0.167333
-0.129499
-0.0909076
-0.0550763
-0.0236797
0.00293711
0.0250827
0.0432553
0.0579616
0.069668
0.0787954
0.0857165
0.0907403
0.0941318
0.096325
0.0980292
0.0982956
-0.185984
-0.178821
-0.159925
-0.129198
-0.0927712
-0.0559322
-0.0221451
0.00710276
0.0316
0.0517123
0.0679574
0.0808473
0.0908496
0.0983832
0.103812
0.107441
0.109563
0.110638
0.111248
0.110256
-0.143092
-0.137328
-0.118748
-0.089175
-0.0543457
-0.0195515
0.0119402
0.0388364
0.0610456
0.0789815
0.0931761
0.104144
0.112352
0.118214
0.122082
0.124263
0.12509
0.125005
0.124326
0.121756
-0.0978351
-0.0935674
-0.0756775
-0.0474298
-0.0144866
0.0179919
0.0469669
0.071334
0.0911084
0.106744
0.118782
0.127738
0.134075
0.138198
0.140449
0.141149
0.140673
0.139351
0.13705
0.13252
-0.0508977
-0.0477733
-0.0309583
-0.00426472
0.0265197
0.0564428
0.0827103
0.104397
0.121613
0.134844
0.144637
0.151506
0.155909
0.158239
0.158834
0.158036
0.156243
0.153562
0.14938
0.14319
-0.00241143
-0.000473237
0.0150813
0.0399844
0.0683698
0.0955339
0.118935
0.137819
0.152377
0.16312
0.170599
0.175324
0.177743
0.178242
0.177153
0.174843
0.171685
0.167501
0.16143
0.155792
0.0472356
0.0479115
0.0620677
0.0849676
0.110749
0.134988
0.155399
0.171385
0.18321
0.191405
0.19652
0.199059
0.199463
0.198105
0.19532
0.19148
0.186883
0.181169
0.173748
0.168343
0.0976099
0.0969745
0.109608
0.130325
0.153337
0.174523
0.191851
0.204875
0.213918
0.219526
0.222248
0.222579
0.22095
0.217727
0.213243
0.207862
0.2018
0.194645
0.186161
0.180384
0.148276
0.146299
0.157303
0.175691
0.195806
0.213851
0.228041
0.238067
0.244305
0.24731
0.247629
0.245747
0.242086
0.237002
0.230826
0.2239
0.216383
0.207885
0.198451
0.191992
0.198795
0.195463
0.204749
0.220699
0.237832
0.252684
0.263714
0.270736
0.274171
0.274582
0.272508
0.268427
0.26275
0.255825
0.247975
0.239518
0.230574
0.220807
0.210442
0.203134
0.248728
0.244041
0.251546
0.264985
0.279091
0.290738
0.298619
0.30266
0.303321
0.301167
0.296732
0.290484
0.282823
0.274089
0.264595
0.254636
0.244309
0.23333
0.222043
0.213803
0.297642
0.291612
0.297298
0.30819
0.319263
0.327731
0.332506
0.333619
0.331558
0.326892
0.320148
0.311783
0.302187
0.29169
0.280594
0.269175
0.257513
0.245375
0.233176
0.223963
0.34511
0.337764
0.34162
0.349965
0.358038
0.363388
0.365133
0.363396
0.358693
0.35159
0.342608
0.332193
0.320725
0.308525
0.295884
0.283057
0.270115
0.256872
0.243783
0.233577
0.39072
0.382097
0.384138
0.389973
0.395117
0.397445
0.396265
0.391785
0.38454
0.375097
0.363967
0.351586
0.338326
0.324496
0.310376
0.296204
0.282046
0.267756
0.253807
0.242607
0.434073
0.424226
0.424494
0.427891
0.430213
0.429646
0.425677
0.418585
0.408924
0.397257
0.384086
0.369841
0.354881
0.339508
0.323989
0.308545
0.29324
0.277967
0.263197
0.251017
0.474794
0.463787
0.46235
0.463413
0.463055
0.459752
0.453156
0.443608
0.431675
0.41792
0.402836
0.386842
0.37029
0.353471
0.336641
0.320008
0.303635
0.287449
0.271902
0.25877
0.512528
0.500439
0.497389
0.496255
0.493388
0.487537
0.478501
0.466674
0.452638
0.436948
0.420092
0.40248
0.384455
0.3663
0.34826
0.330529
0.313172
0.29615
0.279879
0.265837
0.546948
0.533865
0.529319
0.526153
0.520979
0.512795
0.501527
0.487622
0.471665
0.454211
0.43574
0.416655
0.397289
0.377918
0.358776
0.340047
0.321799
0.304021
0.287087
0.272189
0.577756
0.563779
0.557872
0.552868
0.545616
0.535335
0.522068
0.5063
0.488625
0.469593
0.449678
0.429274
0.40871
0.388253
0.368128
0.348508
0.329466
0.311019
0.293486
0.277799
0.604687
0.589923
0.582813
0.576187
0.567107
0.554989
0.539973
0.522576
0.503399
0.482989
0.461811
0.440257
0.418647
0.397243
0.376259
0.355861
0.336131
0.317102
0.299045
0.282648
0.627508
0.612075
0.603934
0.595923
0.585288
0.57161
0.55511
0.536333
0.515884
0.494306
0.47206
0.449532
0.427037
0.404831
0.383121
0.362066
0.341754
0.322238
0.303732
0.286719
0.646022
0.630045
0.621062
0.61192
0.60002
0.585074
0.56737
0.547474
0.525993
0.503468
0.480357
0.457039
0.433827
0.410971
0.388673
0.367085
0.346303
0.326394
0.307524
0.289998
0.660071
0.643681
0.634054
0.624052
0.611189
0.595281
0.576663
0.555918
0.533655
0.510412
0.486644
0.462729
0.438973
0.415625
0.392881
0.37089
0.349752
0.329547
0.310399
0.292477
0.669534
0.652866
0.642805
0.632221
0.61871
0.602154
0.582922
0.561606
0.538817
0.515091
0.490882
0.466564
0.442443
0.418764
0.39572
0.373458
0.352082
0.331678
0.312342
0.294149
0.468521
0.444215
0.420369
0.397174
0.374775
0.353278
0.332774
0.313342
0.29501
-0.240031
-0.239975
-0.239176
-0.237575
-0.23835
-0.2352
-0.236396
-0.234502
-0.232164
-0.233462
-0.232096
-0.228543
-0.229627
-0.228807
-0.227539
-0.224295
-0.225073
-0.224777
-0.223914
-0.219382
-0.220039
-0.220158
-0.219603
-0.218784
-0.214393
-0.21491
-0.215133
-0.214775
-0.214305
-0.213673
-0.209896
-0.210121
-0.209845
-0.20928
-0.208877
-0.208409
-0.203566
-0.205609
-0.205492
-0.205132
-0.204927
-0.204619
-0.204033
-0.198
-0.200637
-0.200593
-0.200227
-0.200106
-0.199923
-0.199458
-0.192487
-0.195431
-0.195371
-0.194972
-0.194919
-0.194857
-0.194513
-0.18704
-0.190127
-0.190092
-0.189711
-0.189737
-0.189791
-0.189569
-0.181506
-0.184742
-0.184796
-0.184471
-0.184573
-0.184735
-0.184632
-0.175914
-0.179313
-0.179493
-0.179241
-0.179418
-0.179681
-0.179694
-0.170347
-0.173875
-0.174196
-0.174033
-0.174286
-0.174645
-0.174772
-0.164832
-0.168453
-0.168921
-0.16886
-0.169193
-0.169645
-0.169883
-0.15938
-0.16307
-0.163685
-0.163732
-0.164147
-0.164692
-0.165037
-0.15401
-0.157746
-0.1585
-0.15866
-0.159158
-0.159791
-0.160242
-0.148731
-0.152494
-0.153378
-0.153648
-0.15423
-0.15495
-0.155501
-0.143547
-0.147322
-0.148328
-0.148706
-0.149369
-0.150172
-0.15082
-0.138461
-0.142238
-0.143355
-0.143838
-0.14458
-0.145462
-0.146203
-0.133479
-0.137247
-0.138467
-0.13905
-0.139869
-0.140825
-0.141653
-0.128607
-0.132355
-0.133669
-0.134348
-0.135238
-0.136265
-0.137175
-0.123849
-0.127567
-0.128967
-0.129736
-0.130694
-0.131786
-0.132772
-0.11921
-0.122889
-0.124366
-0.125218
-0.12624
-0.127391
-0.128446
-0.114694
-0.118324
-0.119869
-0.120798
-0.121878
-0.123083
-0.124202
-0.110302
-0.113877
-0.115479
-0.116479
-0.117611
-0.118864
-0.120041
-0.106037
-0.109549
-0.1112
-0.112263
-0.113442
-0.114737
-0.115965
-0.101898
-0.105342
-0.107032
-0.108152
-0.109371
-0.110704
-0.111976
-0.0978849
-0.101257
-0.102978
-0.104146
-0.105401
-0.106765
-0.108076
-0.093997
-0.0972932
-0.0990369
-0.100247
-0.101532
-0.102922
-0.104266
-0.0902333
-0.0934507
-0.09521
-0.096456
-0.0977658
-0.0991758
-0.100547
-0.0865929
-0.0897287
-0.0914969
-0.0927723
-0.0941019
-0.0955274
-0.0969205
-0.0830745
-0.0861264
-0.0878974
-0.0891963
-0.0905408
-0.0919771
-0.0933865
-0.0796767
-0.0826429
-0.0844108
-0.0857277
-0.0870827
-0.0885252
-0.0899459
-0.0763978
-0.0792768
-0.0810365
-0.0823663
-0.0837273
-0.0851719
-0.086599
-0.0732358
-0.0760266
-0.0777733
-0.0791111
-0.0804742
-0.0819168
-0.0833461
-0.0701886
-0.0728907
-0.07462
-0.0759614
-0.0773228
-0.0787598
-0.080187
-0.0672539
-0.069867
-0.0715751
-0.0729159
-0.0742723
-0.0757001
-0.0771216
-0.0644293
-0.0669537
-0.0686371
-0.0699735
-0.0713215
-0.0727372
-0.0741494
-0.0617122
-0.0641483
-0.065804
-0.0671326
-0.0684694
-0.0698702
-0.0712699
-0.0591001
-0.0614487
-0.0630741
-0.0643917
-0.0657146
-0.0670979
-0.0684824
-0.0565903
-0.0588524
-0.0604452
-0.0617491
-0.0630558
-0.0644194
-0.065786
-0.05418
-0.056357
-0.0579154
-0.059203
-0.0604913
-0.0618332
-0.0631797
-0.0518668
-0.0539599
-0.0554824
-0.0567515
-0.0580197
-0.0593382
-0.0606625
-0.0496477
-0.0516588
-0.053144
-0.0543927
-0.0556392
-0.0569327
-0.0582333
-0.0475203
-0.0494511
-0.050898
-0.0521248
-0.0533481
-0.0546155
-0.0558908
-0.0454818
-0.0473343
-0.0487423
-0.0499456
-0.0511447
-0.052385
-0.0536338
-0.0435298
-0.0453059
-0.0466746
-0.0478534
-0.0490272
-0.0502395
-0.0514609
-0.0416617
-0.0433636
-0.0446927
-0.045846
-0.0469939
-0.0481777
-0.0493708
-0.0398751
-0.0415051
-0.0427944
-0.0439216
-0.0450431
-0.0461978
-0.0473621
-0.0381677
-0.039728
-0.0409778
-0.0420783
-0.0431729
-0.0442983
-0.0454334
-0.0365372
-0.0380301
-0.0392407
-0.0403142
-0.0413817
-0.0424777
-0.0435834
-0.0349815
-0.0364093
-0.0375812
-0.0386274
-0.0396678
-0.0407345
-0.0418108
-0.0334984
-0.0348636
-0.0359973
-0.0370163
-0.0380296
-0.0390672
-0.0401141
-0.032086
-0.0333909
-0.0344872
-0.0354792
-0.0364656
-0.0374743
-0.0384921
-0.0307425
-0.0319896
-0.0330492
-0.0340144
-0.0349742
-0.0359545
-0.0369436
-0.029466
-0.0306577
-0.0316817
-0.0326204
-0.0335541
-0.0345065
-0.0354673
-0.028255
-0.0293937
-0.0303831
-0.0312958
-0.0322039
-0.033129
-0.0340621
-0.0271078
-0.0281961
-0.0291519
-0.0300392
-0.0309223
-0.0318209
-0.032727
-0.0260232
-0.0270633
-0.0279868
-0.0288494
-0.0297082
-0.030581
-0.031461
-0.0249998
-0.0259943
-0.0268866
-0.0277253
-0.0285606
-0.0294086
-0.0302632
-0.0240364
-0.0249877
-0.0258503
-0.0266659
-0.0274785
-0.0283025
-0.0291328
-0.0231322
-0.0240427
-0.0248769
-0.0256702
-0.0264612
-0.0272623
-0.0280692
-0.0222861
-0.0231583
-0.0239655
-0.0247377
-0.0255079
-0.0262872
-0.0270718
-0.0214976
-0.0223339
-0.0231156
-0.0238676
-0.0246182
-0.0253768
-0.0261402
-0.020766
-0.0215689
-0.0223266
-0.0230597
-0.0237917
-0.0245308
-0.0252743
-0.0200911
-0.020863
-0.0215983
-0.0223136
-0.0230282
-0.0237491
-0.0244739
-0.0194726
-0.020216
-0.0209306
-0.0216293
-0.0223278
-0.0230317
-0.0237393
-0.0189106
-0.019628
-0.0203236
-0.0210071
-0.0216907
-0.0223791
-0.0230708
-0.0184053
-0.0190994
-0.0197778
-0.0204473
-0.0211175
-0.0217918
-0.022469
-0.0179575
-0.0186307
-0.0192937
-0.0199508
-0.0206089
-0.0212706
-0.0219349
-0.0175677
-0.0182228
-0.0188723
-0.0195185
-0.0201661
-0.0208167
-0.0214696
-0.0172374
-0.017877
-0.018515
-0.0191519
-0.0197904
-0.0204316
-0.0210749
-0.0169677
-0.0175947
-0.0182233
-0.0188526
-0.0194838
-0.0201173
-0.0207527
-0.0167606
-0.0173779
-0.0179993
-0.0186228
-0.0192483
-0.019876
-0.0205053
-0.0166202
-0.0172309
-0.0178474
-0.0184669
-0.0190885
-0.0197121
-0.0203372
-0.0165425
-0.0171509
-0.0177657
-0.0183838
-0.019004
-0.0196259
-0.0202492
-0.0683549
-0.0765559
-0.084533
-0.0922879
-0.0998284
-0.107166
-0.114315
-0.121291
-0.128108
-0.134786
-0.14134
-0.14779
-0.154151
-0.160436
-0.166658
-0.172822
-0.178903
-0.185048
-0.190816
-0.198048
-0.0652581
-0.0731951
-0.0809276
-0.0884616
-0.0958058
-0.102971
-0.109967
-0.116808
-0.123506
-0.130076
-0.13653
-0.142883
-0.149147
-0.155333
-0.161439
-0.167515
-0.173439
-0.179684
-0.185243
-0.192907
-0.062295
-0.0699228
-0.0773622
-0.0846217
-0.0917097
-0.0986351
-0.105407
-0.112037
-0.118535
-0.124912
-0.13118
-0.13735
-0.14343
-0.149445
-0.155373
-0.161345
-0.167122
-0.173434
-0.178932
-0.186469
-0.0594474
-0.0667936
-0.0739707
-0.0809865
-0.0878485
-0.0945648
-0.101144
-0.107595
-0.113928
-0.120153
-0.126279
-0.132323
-0.138285
-0.144211
-0.15005
-0.156003
-0.161713
-0.168018
-0.173526
-0.180643
-0.0567331
-0.0638162
-0.0707496
-0.0775398
-0.0841937
-0.0907191
-0.0971242
-0.103418
-0.109609
-0.115709
-0.121724
-0.127676
-0.133556
-0.13943
-0.145203
-0.151124
-0.156754
-0.162926
-0.168399
-0.175016
-0.0541512
-0.0609794
-0.0676748
-0.0742428
-0.0806899
-0.0870241
-0.0932529
-0.0993855
-0.105429
-0.111396
-0.117289
-0.123134
-0.128909
-0.134694
-0.140359
-0.146174
-0.151689
-0.157656
-0.163106
-0.169346
-0.0516914
-0.058271
-0.0647324
-0.0710802
-0.0773206
-0.083461
-0.0895083
-0.0954714
-0.101356
-0.107175
-0.112926
-0.118639
-0.124281
-0.129938
-0.13547
-0.141144
-0.146563
-0.152336
-0.157797
-0.163774
-0.0493444
-0.0556829
-0.0619158
-0.0680475
-0.0740835
-0.0800307
-0.0858952
-0.0916856
-0.0974054
-0.103069
-0.108669
-0.114239
-0.119739
-0.12526
-0.130669
-0.136204
-0.141552
-0.147149
-0.152593
-0.158338
-0.0471044
-0.0532094
-0.0592199
-0.0651403
-0.0709754
-0.0767317
-0.0824145
-0.088032
-0.0935865
-0.0990922
-0.104541
-0.109966
-0.115328
-0.120714
-0.126008
-0.131402
-0.13667
-0.142087
-0.147458
-0.153
-0.0449665
-0.0508451
-0.0566393
-0.0623533
-0.0679912
-0.0735593
-0.0790621
-0.0845077
-0.0898972
-0.0952451
-0.100542
-0.105821
-0.111046
-0.116292
-0.121466
-0.126707
-0.131871
-0.137111
-0.142383
-0.147756
-0.0429251
-0.0485847
-0.0541687
-0.0596811
-0.0651258
-0.0705086
-0.0758333
-0.0811081
-0.0863332
-0.0915226
-0.0966676
-0.101797
-0.106882
-0.111979
-0.117024
-0.122107
-0.127155
-0.132235
-0.137395
-0.142615
-0.0409755
-0.046423
-0.0518029
-0.0571188
-0.0623743
-0.0675749
-0.0727241
-0.0778292
-0.0828907
-0.0879211
-0.0929131
-0.0978906
-0.102831
-0.107777
-0.112689
-0.117619
-0.122545
-0.127475
-0.132509
-0.137576
-0.039113
-0.0443554
-0.0495372
-0.0546618
-0.0597324
-0.0647543
-0.0697305
-0.0746679
-0.079567
-0.0844385
-0.0892773
-0.0941019
-0.0988982
-0.103694
-0.108471
-0.113252
-0.118048
-0.122828
-0.127726
-0.132639
-0.037333
-0.0423772
-0.0473671
-0.0523057
-0.0571959
-0.0620428
-0.0668491
-0.071621
-0.0763595
-0.0810732
-0.0857597
-0.0904322
-0.0950842
-0.0997312
-0.104371
-0.109004
-0.113662
-0.118295
-0.123053
-0.127813
-0.0356313
-0.0404843
-0.0452884
-0.0500462
-0.0547607
-0.0594365
-0.0640763
-0.0686855
-0.0732654
-0.0778233
-0.0823586
-0.0868803
-0.0913874
-0.0958868
-0.100385
-0.104873
-0.109391
-0.113878
-0.118496
-0.123103
-0.0340047
-0.038673
-0.0432972
-0.0478794
-0.052423
-0.0569318
-0.0614087
-0.0658581
-0.0702822
-0.0746863
-0.0790718
-0.0834442
-0.0878064
-0.0921594
-0.0965162
-0.10086
-0.105238
-0.109582
-0.114057
-0.118513
-0.032449
-0.0369394
-0.0413893
-0.0458015
-0.0501789
-0.0545251
-0.0588428
-0.0631359
-0.0674068
-0.0716597
-0.0758971
-0.0801222
-0.0843403
-0.088549
-0.0927645
-0.0969657
-0.101203
-0.105406
-0.109738
-0.114046
-0.030961
-0.03528
-0.0395614
-0.0438088
-0.048025
-0.052213
-0.0563754
-0.0605157
-0.0646364
-0.0687409
-0.0728324
-0.0769126
-0.0809882
-0.0850546
-0.0891297
-0.0931902
-0.0972881
-0.10135
-0.10554
-0.109704
-0.0295384
-0.0336918
-0.0378103
-0.0418981
-0.0459579
-0.0499921
-0.0540032
-0.0579944
-0.0619683
-0.0659274
-0.0698757
-0.0738136
-0.0777485
-0.0816747
-0.0856107
-0.0895324
-0.0934915
-0.0974155
-0.101464
-0.105486
-0.0281793
-0.0321725
-0.0361333
-0.0400665
-0.0439745
-0.0478592
-0.0517232
-0.0555689
-0.0593994
-0.0632166
-0.0670244
-0.0708227
-0.0746193
-0.0784077
-0.0822065
-0.0859916
-0.0898133
-0.0936016
-0.0975089
-0.101392
-0.0268794
-0.030718
-0.034527
-0.0383107
-0.0420715
-0.0458112
-0.0495321
-0.0532365
-0.0569271
-0.0606057
-0.0642761
-0.0679379
-0.0715986
-0.0752519
-0.0789156
-0.0825665
-0.0862526
-0.0899073
-0.0936754
-0.0974219
-0.0256363
-0.0293259
-0.0329884
-0.0366276
-0.0402459
-0.043845
-0.047427
-0.0509939
-0.0545484
-0.0580919
-0.0616281
-0.0651566
-0.0686843
-0.0722053
-0.0757364
-0.0792557
-0.0828082
-0.0863316
-0.0899626
-0.0935739
-0.0244478
-0.0279937
-0.0315146
-0.0350143
-0.0384947
-0.0419577
-0.045405
-0.0488384
-0.0522606
-0.0556726
-0.059078
-0.0624764
-0.0658743
-0.0692659
-0.0726671
-0.0760573
-0.079479
-0.0828733
-0.0863698
-0.0898474
-0.0233114
-0.0267186
-0.0301031
-0.033468
-0.0368152
-0.0401463
-0.0434631
-0.0467671
-0.0500607
-0.0533449
-0.0566232
-0.0598947
-0.063166
-0.0664313
-0.0697057
-0.0729697
-0.0762632
-0.0795309
-0.0828958
-0.0862419
-0.0222246
-0.0254983
-0.0287512
-0.0319861
-0.0352046
-0.0384082
-0.0415987
-0.0447772
-0.0479461
-0.0511063
-0.0542608
-0.0574091
-0.060557
-0.0636994
-0.06685
-0.0699908
-0.0731592
-0.076303
-0.0795392
-0.0827562
-0.0211853
-0.0243305
-0.0274566
-0.0305659
-0.0336602
-0.0367407
-0.0398089
-0.042866
-0.0459141
-0.0489539
-0.0519884
-0.0550169
-0.0580449
-0.0610675
-0.0640977
-0.0671184
-0.0701649
-0.0731877
-0.0762983
-0.0793891
-0.0201913
-0.0232128
-0.0262167
-0.0292052
-0.0321796
-0.0351411
-0.0380911
-0.0410308
-0.0439619
-0.0468851
-0.0498032
-0.0527155
-0.0556271
-0.0585334
-0.0614464
-0.0643503
-0.0672782
-0.0701832
-0.0731714
-0.0761392
-0.0192408
-0.0221433
-0.0250296
-0.0279014
-0.0307602
-0.0336069
-0.0364429
-0.039269
-0.0420869
-0.0448973
-0.0477027
-0.0505024
-0.053301
-0.0560945
-0.0588938
-0.0616842
-0.0644968
-0.0672871
-0.0701564
-0.0730044
-0.0183319
-0.02112
-0.0238929
-0.0266525
-0.0293998
-0.0321358
-0.0348616
-0.037578
-0.0402866
-0.0429879
-0.0456842
-0.0483748
-0.0510641
-0.0537482
-0.0564374
-0.0591176
-0.0618184
-0.0644974
-0.067251
-0.0699828
-0.0174629
-0.0201409
-0.0228048
-0.0254563
-0.0280962
-0.0307254
-0.0333449
-0.0359555
-0.0385585
-0.0411544
-0.0437451
-0.0463304
-0.0489139
-0.051492
-0.0540745
-0.056648
-0.0592404
-0.0618116
-0.064453
-0.0670721
-0.0166321
-0.0192043
-0.0217633
-0.0243107
-0.0268472
-0.0293735
-0.0318906
-0.034399
-0.0369001
-0.0393942
-0.0418831
-0.0443664
-0.0468476
-0.0493234
-0.0518026
-0.0542729
-0.0567604
-0.0592271
-0.0617599
-0.06427
-0.0158381
-0.0183085
-0.0207666
-0.0232138
-0.0256507
-0.028078
-0.0304963
-0.0329063
-0.035309
-0.0377049
-0.0400956
-0.0424805
-0.0448629
-0.0472398
-0.0496192
-0.0519898
-0.0543757
-0.0567415
-0.0591691
-0.0615739
-0.0150793
-0.0174517
-0.0198128
-0.0221637
-0.0245048
-0.0268367
-0.0291599
-0.0314751
-0.0337831
-0.0360843
-0.0383801
-0.0406701
-0.0429572
-0.0452386
-0.0475217
-0.0497959
-0.0520839
-0.0543522
-0.0566782
-0.0589813
-0.0143542
-0.0166323
-0.0189002
-0.0211585
-0.0234075
-0.0256476
-0.0278794
-0.0301032
-0.0323199
-0.0345299
-0.0367344
-0.0389329
-0.0411281
-0.0433173
-0.0455076
-0.0476889
-0.0498823
-0.0520566
-0.0542844
-0.0564895
-0.0136621
-0.0158494
-0.0180276
-0.0201969
-0.0223573
-0.024509
-0.0266527
-0.0287886
-0.0309175
-0.0330396
-0.0351561
-0.0372664
-0.0393731
-0.0414736
-0.0435743
-0.045666
-0.0477684
-0.049852
-0.0519852
-0.0540958
-0.0129988
-0.0151002
-0.0171929
-0.0192768
-0.021352
-0.0234189
-0.0254779
-0.0275293
-0.0295737
-0.0316113
-0.033643
-0.0356685
-0.0376899
-0.0397049
-0.0417195
-0.0437249
-0.0457395
-0.0477358
-0.0497779
-0.0517977
-0.0123621
-0.0143836
-0.0163947
-0.0183966
-0.0203901
-0.0223755
-0.0243531
-0.0263233
-0.0282865
-0.0302427
-0.0321929
-0.0341368
-0.0360762
-0.0380091
-0.0399407
-0.0418631
-0.0437932
-0.0457056
-0.0476599
-0.0495924
-0.011757
-0.0136998
-0.0156322
-0.0175553
-0.0194702
-0.0213773
-0.0232768
-0.0251689
-0.0270539
-0.028932
-0.0308039
-0.0326693
-0.0345298
-0.0363836
-0.0382355
-0.0400781
-0.041927
-0.0437587
-0.0456287
-0.0474773
-0.0111831
-0.0130487
-0.0149048
-0.016752
-0.0185913
-0.020423
-0.0222473
-0.0240643
-0.0258743
-0.0276772
-0.0294739
-0.0312638
-0.0330486
-0.0348264
-0.0366017
-0.0383676
-0.0401386
-0.0418926
-0.0436817
-0.0454498
-0.0106357
-0.0124273
-0.0142101
-0.0159846
-0.0177514
-0.0195109
-0.021263
-0.0230079
-0.0247457
-0.0264765
-0.0282009
-0.0299184
-0.0316304
-0.0333353
-0.035037