/*--------------------------------*- C++ -*----------------------------------*\
  =========                 |
  \\      /  F ield         | OpenFOAM: The Open Source CFD Toolbox
   \\    /   O peration     | Website:  https://openfoam.org
    \\  /    A nd           | Version:  7
     \\/     M anipulation  |
\*---------------------------------------------------------------------------*/
FoamFile
{
    version     2.0;
    format      ascii;
    class       volVectorField;
    location    "6.6";
    object      U;
}
// * * * * * * * * * * * * * * * * * * * * * * * * * * * * * * * * * * * * * //

dimensions      [0 1 -1 0 0 0 0];

internalField   nonuniform List<vector> 
344
(
(2.30863 0.0131049 5.12584e-16)
(2.30434 0.0130094 5.24739e-16)
(2.3001 0.0129141 5.31416e-16)
(2.29589 0.0128189 5.4951e-16)
(2.29172 0.012724 5.42492e-16)
(2.2876 0.0126292 5.45852e-16)
(2.28351 0.0125346 5.59555e-16)
(2.27945 0.0124402 5.6077e-16)
(2.27544 0.012346 5.64685e-16)
(2.27146 0.012252 5.57967e-16)
(2.26752 0.0121582 5.6767e-16)
(2.26361 0.0120646 5.67593e-16)
(2.25974 0.0119713 5.73889e-16)
(2.25591 0.0118782 5.74279e-16)
(2.25211 0.0117853 5.6921e-16)
(2.24835 0.0116927 5.71792e-16)
(2.24462 0.0116003 5.72406e-16)
(2.24093 0.0115082 5.66462e-16)
(2.23727 0.0114163 5.77651e-16)
(2.23365 0.0113247 5.78292e-16)
(2.23006 0.0112334 5.65966e-16)
(2.22651 0.0111423 5.63643e-16)
(2.22298 0.0110516 5.67621e-16)
(2.21949 0.0109611 5.67e-16)
(2.21604 0.0108709 5.61323e-16)
(2.21262 0.0107811 5.54904e-16)
(2.20923 0.0106915 5.659e-16)
(2.20587 0.0106023 5.66277e-16)
(2.20254 0.0105134 5.64068e-16)
(2.19925 0.0104248 5.66948e-16)
(2.19598 0.0103365 5.60895e-16)
(2.19275 0.0102486 5.62791e-16)
(2.18955 0.010161 5.52074e-16)
(2.18638 0.0100737 5.54394e-16)
(2.18324 0.00998682 5.52512e-16)
(2.18013 0.00990025 5.57872e-16)
(2.17706 0.00981403 5.56653e-16)
(2.17401 0.00972814 5.56041e-16)
(2.17099 0.00964259 5.5672e-16)
(2.168 0.00955737 5.56556e-16)
(2.16504 0.00947248 5.53304e-16)
(2.16211 0.00938791 5.46352e-16)
(2.1592 0.00930363 5.39994e-16)
(2.15633 0.00921964 5.41069e-16)
(2.15348 0.00913591 5.42377e-16)
(2.15067 0.0090524 5.29438e-16)
(2.14788 0.00896908 5.23766e-16)
(2.14512 0.00888589 5.23323e-16)
(2.14238 0.00880277 5.22522e-16)
(2.13968 0.00871964 5.17142e-16)
(2.137 0.00863639 5.10162e-16)
(2.13435 0.00855288 5.06536e-16)
(2.13173 0.00846899 5.0433e-16)
(2.12913 0.00838443 5.02738e-16)
(2.12657 0.00829914 4.96196e-16)
(2.12403 0.00821242 4.94747e-16)
(2.12152 0.0081248 4.81992e-16)
(2.11903 0.0080339 4.77521e-16)
(2.11659 0.00794338 4.72391e-16)
(2.11413 0.00784393 4.66345e-16)
(2.11184 0.00775283 4.63193e-16)
(2.10924 0.00763351 4.551e-16)
(2.10746 0.00755594 4.50207e-16)
(2.10371 0.00739211 4.42091e-16)
(2.23792 0.0154647 5.95584e-16)
(2.2338 0.015344 5.65266e-16)
(2.22972 0.0152237 6.0937e-16)
(2.22569 0.015104 5.46089e-16)
(2.22169 0.0149847 5.75695e-16)
(2.21774 0.014866 5.93988e-16)
(2.21383 0.0147477 6.21996e-16)
(2.20996 0.01463 5.94468e-16)
(2.20613 0.0145127 6.23504e-16)
(2.20234 0.014396 5.96294e-16)
(2.19859 0.0142797 6.25282e-16)
(2.19488 0.014164 6.00577e-16)
(2.1912 0.0140487 6.23842e-16)
(2.18757 0.013934 6.43994e-16)
(2.18397 0.0138197 6.5006e-16)
(2.18041 0.013706 6.64866e-16)
(2.17688 0.0135927 6.37179e-16)
(2.17339 0.01348 6.50968e-16)
(2.16994 0.0133678 6.21225e-16)
(2.16652 0.0132561 6.45333e-16)
(2.16314 0.0131449 6.22202e-16)
(2.1598 0.0130342 6.47106e-16)
(2.15648 0.0129241 6.50542e-16)
(2.15321 0.0128144 6.69472e-16)
(2.14996 0.0127053 6.17954e-16)
(2.14675 0.0125967 6.50277e-16)
(2.14357 0.0124887 6.27531e-16)
(2.14043 0.0123811 6.58437e-16)
(2.13731 0.0122741 6.08828e-16)
(2.13423 0.0121676 6.22825e-16)
(2.13118 0.0120617 6.41239e-16)
(2.12817 0.0119563 6.48668e-16)
(2.12518 0.0118514 6.20619e-16)
(2.12223 0.0117471 6.34979e-16)
(2.1193 0.0116433 6.15006e-16)
(2.11641 0.01154 6.28598e-16)
(2.11354 0.0114373 6.13212e-16)
(2.11071 0.0113351 6.24986e-16)
(2.1079 0.0112334 6.33197e-16)
(2.10512 0.0111323 6.35084e-16)
(2.10238 0.0110317 6.44128e-16)
(2.09966 0.0109316 6.19998e-16)
(2.09697 0.0108321 6.33178e-16)
(2.0943 0.010733 6.13617e-16)
(2.09167 0.0106344 6.1907e-16)
(2.08906 0.0105364 6.04628e-16)
(2.08648 0.0104387 6.11812e-16)
(2.08393 0.0103416 6.09319e-16)
(2.0814 0.0102448 6.19122e-16)
(2.0789 0.0101484 5.83149e-16)
(2.07642 0.0100523 5.92401e-16)
(2.07398 0.0099565 5.79239e-16)
(2.07155 0.00986088 5.86392e-16)
(2.06916 0.00976535 5.66342e-16)
(2.06679 0.00966981 5.70537e-16)
(2.06444 0.00957408 5.6894e-16)
(2.06212 0.00947803 5.69649e-16)
(2.05983 0.00938136 5.59307e-16)
(2.05756 0.00928394 5.56248e-16)
(2.05532 0.00918506 5.55144e-16)
(2.05311 0.00908513 5.43491e-16)
(2.05091 0.00898186 5.38972e-16)
(2.04876 0.00887853 5.32808e-16)
(2.04659 0.00876608 5.2706e-16)
(2.04457 0.00866143 5.22357e-16)
(2.04229 0.00852715 5.11577e-16)
(2.04071 0.00843683 5.05766e-16)
(2.03742 0.00825127 4.9639e-16)
(2.13767 0.0171535 5.9307e-16)
(2.13396 0.0170073 5.77148e-16)
(2.1303 0.016862 5.82986e-16)
(2.12667 0.0167177 5.96025e-16)
(2.12309 0.0165743 5.85631e-16)
(2.11955 0.0164319 5.85963e-16)
(2.11605 0.0162904 5.99051e-16)
(2.11259 0.0161497 5.89674e-16)
(2.10917 0.01601 6.07287e-16)
(2.10579 0.0158712 6.03999e-16)
(2.10246 0.0157333 6.05712e-16)
(2.09915 0.0155963 6.29717e-16)
(2.09589 0.0154601 6.20037e-16)
(2.09267 0.0153248 6.26416e-16)
(2.08948 0.0151904 6.28811e-16)
(2.08633 0.0150568 6.42589e-16)
(2.08321 0.0149241 6.35329e-16)
(2.08013 0.0147922 6.42697e-16)
(2.07709 0.0146612 6.34467e-16)
(2.07408 0.014531 6.23989e-16)
(2.0711 0.0144017 6.52659e-16)
(2.06816 0.0142732 6.4602e-16)
(2.06525 0.0141455 6.43368e-16)
(2.06237 0.0140186 6.43153e-16)
(2.05953 0.0138926 6.71534e-16)
(2.05672 0.0137674 6.60697e-16)
(2.05394 0.0136429 6.54954e-16)
(2.05119 0.0135193 6.54781e-16)
(2.04847 0.0133965 6.63308e-16)
(2.04579 0.0132745 6.54231e-16)
(2.04313 0.0131533 6.46553e-16)
(2.0405 0.0130329 6.47194e-16)
(2.0379 0.0129132 6.3578e-16)
(2.03534 0.0127944 6.3907e-16)
(2.0328 0.0126763 6.31874e-16)
(2.03028 0.012559 6.30543e-16)
(2.0278 0.0124425 6.47704e-16)
(2.02535 0.0123267 6.42819e-16)
(2.02292 0.0122117 6.44928e-16)
(2.02052 0.0120974 6.43676e-16)
(2.01814 0.0119839 6.48039e-16)
(2.01579 0.0118711 6.42863e-16)
(2.01347 0.011759 6.42465e-16)
(2.01118 0.0116476 6.34347e-16)
(2.0089 0.0115369 6.27969e-16)
(2.00666 0.0114269 6.40919e-16)
(2.00444 0.0113175 6.3283e-16)
(2.00224 0.0112088 6.28493e-16)
(2.00007 0.0111006 6.26209e-16)
(1.99793 0.010993 6.28365e-16)
(1.9958 0.0108858 6.20133e-16)
(1.9937 0.0107791 6.1314e-16)
(1.99163 0.0106727 6.07571e-16)
(1.98958 0.0105665 6.08939e-16)
(1.98755 0.0104605 6.01208e-16)
(1.98554 0.0103544 5.95027e-16)
(1.98356 0.010248 5.92601e-16)
(1.9816 0.0101412 5.87207e-16)
(1.97966 0.0100336 5.81977e-16)
(1.97774 0.00992462 5.79923e-16)
(1.97585 0.00981447 5.73332e-16)
(1.97398 0.00970106 5.66894e-16)
(1.97215 0.00958711 5.62033e-16)
(1.9703 0.00946421 5.56897e-16)
(1.96857 0.00934811 5.52514e-16)
(1.96665 0.00920205 5.45882e-16)
(1.96528 0.00910045 5.39543e-16)
(1.9625 0.00889696 5.30645e-16)
(2.02694 0.0184866 5.87291e-16)
(2.02372 0.0183157 5.64197e-16)
(2.02054 0.0181462 5.92489e-16)
(2.01741 0.0179782 5.48989e-16)
(2.01431 0.0178116 5.7549e-16)
(2.01126 0.0176465 5.93339e-16)
(2.00824 0.0174827 6.13424e-16)
(2.00527 0.0173203 5.90712e-16)
(2.00233 0.0171593 6.19503e-16)
(1.99943 0.0169996 5.94694e-16)
(1.99657 0.0168413 6.17229e-16)
(1.99375 0.0166843 6.05683e-16)
(1.99096 0.0165285 6.23297e-16)
(1.98821 0.0163741 6.3601e-16)
(1.98549 0.0162209 6.45655e-16)
(1.98281 0.016069 6.67237e-16)
(1.98016 0.0159184 6.40476e-16)
(1.97754 0.0157689 6.55478e-16)
(1.97496 0.0156207 6.37588e-16)
(1.97241 0.0154737 6.46367e-16)
(1.96989 0.0153279 6.4012e-16)
(1.96741 0.0151832 6.51656e-16)
(1.96495 0.0150397 6.65198e-16)
(1.96253 0.0148974 6.77757e-16)
(1.96013 0.0147562 6.38331e-16)
(1.95777 0.0146161 6.68176e-16)
(1.95543 0.0144772 6.50234e-16)
(1.95313 0.0143394 6.67282e-16)
(1.95085 0.0142026 6.35668e-16)
(1.9486 0.014067 6.52457e-16)
(1.94637 0.0139324 6.53159e-16)
(1.94418 0.0137989 6.68794e-16)
(1.94201 0.0136665 6.48153e-16)
(1.93986 0.0135351 6.60192e-16)
(1.93775 0.0134047 6.41462e-16)
(1.93566 0.0132754 6.50553e-16)
(1.93359 0.0131471 6.43885e-16)
(1.93155 0.0130198 6.5453e-16)
(1.92953 0.0128934 6.61724e-16)
(1.92754 0.0127681 6.6639e-16)
(1.92557 0.0126437 6.74908e-16)
(1.92363 0.0125202 6.58023e-16)
(1.92171 0.0123977 6.63724e-16)
(1.91981 0.0122761 6.48926e-16)
(1.91793 0.0121554 6.50427e-16)
(1.91608 0.0120355 6.42198e-16)
(1.91425 0.0119165 6.47791e-16)
(1.91244 0.0117983 6.46759e-16)
(1.91065 0.0116809 6.49297e-16)
(1.90888 0.0115642 6.27395e-16)
(1.90714 0.0114481 6.34709e-16)
(1.90541 0.0113326 6.22501e-16)
(1.90371 0.0112177 6.26629e-16)
(1.90202 0.0111031 6.10363e-16)
(1.90036 0.0109888 6.13791e-16)
(1.89872 0.0108745 6.11596e-16)
(1.89709 0.0107602 6.10971e-16)
(1.89549 0.0106455 6.00279e-16)
(1.8939 0.0105302 5.97253e-16)
(1.89234 0.0104136 5.96511e-16)
(1.89079 0.0102957 5.88087e-16)
(1.88926 0.0101748 5.83689e-16)
(1.88776 0.0100529 5.78787e-16)
(1.88626 0.00992254 5.74431e-16)
(1.88484 0.00979754 5.69526e-16)
(1.88328 0.00964347 5.60205e-16)
(1.88215 0.00953232 5.55016e-16)
(1.8799 0.00931568 5.46566e-16)
(1.90746 0.0194033 5.36099e-16)
(1.9048 0.01921 5.29397e-16)
(1.90219 0.0190188 5.31418e-16)
(1.89961 0.0188296 5.50498e-16)
(1.89706 0.0186423 5.41465e-16)
(1.89456 0.018457 5.41684e-16)
(1.89209 0.0182736 5.55806e-16)
(1.88966 0.018092 5.4561e-16)
(1.88726 0.0179123 5.58507e-16)
(1.8849 0.0177344 5.53525e-16)
(1.88257 0.0175583 5.62645e-16)
(1.88028 0.0173839 5.86209e-16)
(1.87802 0.0172113 5.84025e-16)
(1.87579 0.0170404 5.91009e-16)
(1.87359 0.0168712 5.93348e-16)
(1.87142 0.0167037 6.08665e-16)
(1.86929 0.0165377 6.07131e-16)
(1.86718 0.0163734 6.12622e-16)
(1.8651 0.0162107 6.03762e-16)
(1.86306 0.0160496 6.01231e-16)
(1.86104 0.01589 6.23164e-16)
(1.85905 0.0157319 6.23822e-16)
(1.85708 0.0155754 6.22211e-16)
(1.85515 0.0154203 6.27864e-16)
(1.85324 0.0152667 6.35555e-16)
(1.85135 0.0151146 6.38176e-16)
(1.84949 0.0149638 6.28713e-16)
(1.84766 0.0148145 6.2802e-16)
(1.84585 0.0146666 6.34576e-16)
(1.84407 0.0145201 6.30035e-16)
(1.84231 0.0143749 6.2325e-16)
(1.84057 0.014231 6.29393e-16)
(1.83886 0.0140885 6.23519e-16)
(1.83717 0.0139473 6.26092e-16)
(1.8355 0.0138073 6.21635e-16)
(1.83385 0.0136687 6.21286e-16)
(1.83223 0.0135312 6.34132e-16)
(1.83062 0.0133951 6.31506e-16)
(1.82904 0.0132601 6.37098e-16)
(1.82748 0.0131263 6.38426e-16)
(1.82594 0.0129937 6.4303e-16)
(1.82442 0.0128623 6.36084e-16)
(1.82292 0.012732 6.37998e-16)
(1.82144 0.0126028 6.31461e-16)
(1.81997 0.0124747 6.2724e-16)
(1.81853 0.0123477 6.34302e-16)
(1.8171 0.0122217 6.27747e-16)
(1.8157 0.0120966 6.2512e-16)
(1.81431 0.0119725 6.24177e-16)
(1.81294 0.0118493 6.25991e-16)
(1.81158 0.011727 6.21486e-16)
(1.81025 0.0116054 6.13185e-16)
(1.80893 0.0114844 6.10643e-16)
(1.80762 0.011364 6.11131e-16)
(1.80634 0.0112441 6.06561e-16)
(1.80507 0.0111244 6.00875e-16)
(1.80381 0.0110048 5.97556e-16)
(1.80258 0.0108849 5.93172e-16)
(1.80136 0.0107646 5.8796e-16)
(1.80015 0.0106432 5.86093e-16)
(1.79896 0.0105205 5.8109e-16)
(1.79779 0.0103951 5.76311e-16)
(1.79663 0.0102683 5.72326e-16)
(1.79548 0.0101338 5.68128e-16)
(1.79438 0.0100029 5.6404e-16)
(1.79319 0.00984501 5.58413e-16)
(1.79231 0.0097265 5.52887e-16)
(1.79059 0.00950219 5.45556e-16)
(1.78113 0.0198563 5.01164e-16)
(1.77909 0.019645 4.81945e-16)
(1.77708 0.0194362 5.0811e-16)
(1.77511 0.0192299 4.70914e-16)
(1.77317 0.019026 5.03568e-16)
(1.77126 0.0188246 5.16778e-16)
(1.76938 0.0186256 5.4075e-16)
(1.76754 0.0184289 5.14476e-16)
)
;

boundaryField
{
    inlet
    {
        type            uniformFixedValue;
        uniformValue    constant (1 0 0);
        value           nonuniform 0();
    }
    outlet
    {
        type            pressureInletOutletVelocity;
        value           nonuniform List<vector> 5((2.10371 0.00739211 4.42091e-16) (2.03742 0.00825127 4.9639e-16) (1.9625 0.00889696 5.30645e-16) (1.8799 0.00931568 5.46566e-16) (1.79059 0.00950219 5.45556e-16));
    }
    wall
    {
        type            fixedValue;
        value           nonuniform 0();
    }
    wedge1
    {
        type            wedge;
    }
    wedge2
    {
        type            wedge;
    }
    axis
    {
        type            empty;
    }
    procBoundary11to5
    {
        type            processor;
        value           nonuniform List<vector> 
69
(
(2.38264 0.0109986 4.46202e-16)
(2.3781 0.0109249 5.19632e-16)
(2.37359 0.0108511 4.84894e-16)
(2.36913 0.0107773 5.34699e-16)
(2.3647 0.0107035 5.00925e-16)
(2.3603 0.0106296 5.41913e-16)
(2.35594 0.0105556 5.28264e-16)
(2.35162 0.0104817 5.07793e-16)
(2.34734 0.0104077 5.12392e-16)
(2.34308 0.0103337 4.86812e-16)
(2.33887 0.0102597 5.27792e-16)
(2.33469 0.0101858 4.96846e-16)
(2.33054 0.0101118 5.43575e-16)
(2.32643 0.0100379 5.17026e-16)
(2.32235 0.00996402 5.49943e-16)
(2.31831 0.00989019 5.15773e-16)
(2.3143 0.00981642 5.15862e-16)
(2.31032 0.00974271 4.9114e-16)
(2.30638 0.00966908 5.31099e-16)
(2.30248 0.00959553 5.16882e-16)
(2.2986 0.00952207 5.09859e-16)
(2.29476 0.00944871 4.78595e-16)
(2.29096 0.00937546 5.1884e-16)
(2.28718 0.00930233 5.10773e-16)
(2.28344 0.00922932 5.06225e-16)
(2.27973 0.00915645 4.82527e-16)
(2.27606 0.00908371 5.22024e-16)
(2.27241 0.00901112 4.94775e-16)
(2.2688 0.00893869 5.25761e-16)
(2.26522 0.00886642 5.02501e-16)
(2.26168 0.00879431 5.28789e-16)
(2.25816 0.00872238 5.04673e-16)
(2.25468 0.00865063 4.95871e-16)
(2.25122 0.00857906 4.85194e-16)
(2.2478 0.00850768 4.66391e-16)
(2.24441 0.0084365 4.99875e-16)
(2.24105 0.00836551 4.81557e-16)
(2.23772 0.00829471 5.06909e-16)
(2.23442 0.00822411 4.84778e-16)
(2.23115 0.00815371 5.02784e-16)
(2.22791 0.00808349 4.85423e-16)
(2.22471 0.00801346 4.79565e-16)
(2.22153 0.0079436 4.61577e-16)
(2.21838 0.0078739 4.73599e-16)
(2.21526 0.00780434 4.66427e-16)
(2.21217 0.00773489 4.57482e-16)
(2.20911 0.00766553 4.47298e-16)
(2.20608 0.0075962 4.62738e-16)
(2.20307 0.00752685 4.52202e-16)
(2.2001 0.00745741 4.47728e-16)
(2.19716 0.0073878 4.35824e-16)
(2.19424 0.00731789 4.44977e-16)
(2.19136 0.00724759 4.34196e-16)
(2.1885 0.00717663 4.39788e-16)
(2.18567 0.00710502 4.28689e-16)
(2.18288 0.00703206 4.28177e-16)
(2.18011 0.00695841 4.09585e-16)
(2.17737 0.00688167 4.03149e-16)
(2.17468 0.00680572 3.99307e-16)
(2.17196 0.00672131 3.93955e-16)
(2.16944 0.00664548 3.88822e-16)
(2.16656 0.00654351 3.82417e-16)
(2.16462 0.00648005 3.77829e-16)
(2.16046 0.00634058 3.7048e-16)
(2.32616 0.0134883 5.15298e-16)
(2.32171 0.0133922 5.18639e-16)
(2.31731 0.0132963 5.24183e-16)
(2.31295 0.0132005 5.15605e-16)
(2.31295 0.0132005 5.15605e-16)
)
;
    }
    procBoundary11to10
    {
        type            processor;
        value           nonuniform List<vector> 4((2.24208 0.015586 5.46912e-16) (2.14143 0.0173007 5.93561e-16) (2.03021 0.0186591 5.39592e-16) (1.91016 0.0195986 5.29381e-16));
    }
    procBoundary11to16
    {
        type            processor;
        value           nonuniform List<vector> 2((1.78321 0.0200703 4.55707e-16) (1.64991 0.0198185 4.55021e-16));
    }
    procBoundary11to17
    {
        type            processor;
        value           nonuniform List<vector> 
68
(
(1.76572 0.0182346 5.40801e-16)
(1.76394 0.0180424 5.18315e-16)
(1.76218 0.0178525 5.46004e-16)
(1.76045 0.0176648 5.34891e-16)
(1.75875 0.0174792 5.53759e-16)
(1.75708 0.0172958 5.70744e-16)
(1.75543 0.0171144 5.73444e-16)
(1.75381 0.016935 5.97364e-16)
(1.75222 0.0167577 5.75085e-16)
(1.75065 0.0165823 5.9711e-16)
(1.7491 0.0164089 5.7397e-16)
(1.74758 0.0162373 5.86934e-16)
(1.74609 0.0160677 5.75842e-16)
(1.74461 0.0158999 5.97104e-16)
(1.74316 0.015734 6.00852e-16)
(1.74174 0.0155698 6.15837e-16)
(1.74033 0.0154074 5.80043e-16)
(1.73895 0.0152467 6.07118e-16)
(1.73758 0.0150878 5.93409e-16)
(1.73624 0.0149305 6.12817e-16)
(1.73492 0.0147749 5.83734e-16)
(1.73362 0.0146209 6.03064e-16)
(1.73233 0.0144685 6.03184e-16)
(1.73107 0.0143177 6.21207e-16)
(1.72982 0.0141685 5.99125e-16)
(1.7286 0.0140208 6.10641e-16)
(1.72739 0.0138746 5.94484e-16)
(1.7262 0.01373 6.08747e-16)
(1.72503 0.0135867 6.01101e-16)
(1.72387 0.013445 6.10701e-16)
(1.72273 0.0133046 6.22742e-16)
(1.72161 0.0131656 6.24331e-16)
(1.7205 0.013028 6.29703e-16)
(1.71941 0.0128917 6.13584e-16)
(1.71834 0.0127568 6.21815e-16)
(1.71728 0.0126231 6.05951e-16)
(1.71623 0.0124907 6.10702e-16)
(1.7152 0.0123596 6.03437e-16)
(1.71419 0.0122296 6.08177e-16)
(1.71319 0.0121007 6.06799e-16)
(1.7122 0.011973 6.12075e-16)
(1.71123 0.0118463 5.92213e-16)
(1.71027 0.0117205 5.99982e-16)
(1.70932 0.0115957 5.89997e-16)
(1.70839 0.0114718 5.96571e-16)
(1.70747 0.0113485 5.80824e-16)
(1.70656 0.0112258 5.85675e-16)
(1.70567 0.0111036 5.83664e-16)
(1.70478 0.0109816 5.83376e-16)
(1.70391 0.0108596 5.75347e-16)
(1.70305 0.0107373 5.73899e-16)
(1.70221 0.0106141 5.74018e-16)
(1.70137 0.0104898 5.65432e-16)
(1.70055 0.0103631 5.62434e-16)
(1.69974 0.0102348 5.59171e-16)
(1.69893 0.0100997 5.54278e-16)
(1.69816 0.00996647 5.50925e-16)
(1.69733 0.00980909 5.42624e-16)
(1.69671 0.0096859 5.38273e-16)
(1.69551 0.00945991 5.31441e-16)
(1.64852 0.0195948 4.16412e-16)
(1.64715 0.019374 4.49709e-16)
(1.64581 0.0191562 4.41493e-16)
(1.64449 0.0189413 4.73268e-16)
(1.6432 0.0187293 4.35429e-16)
(1.64194 0.01852 4.7796e-16)
(1.76572 0.0182346 5.40801e-16)
(1.6407 0.0183135 4.42729e-16)
)
;
    }
}


// ************************************************************************* //
