/*--------------------------------*- C++ -*----------------------------------*\
  =========                 |
  \\      /  F ield         | OpenFOAM: The Open Source CFD Toolbox
   \\    /   O peration     | Website:  https://openfoam.org
    \\  /    A nd           | Version:  7
     \\/     M anipulation  |
\*---------------------------------------------------------------------------*/
FoamFile
{
    version     2.0;
    format      ascii;
    class       volScalarField;
    location    "3.6";
    object      p;
}
// * * * * * * * * * * * * * * * * * * * * * * * * * * * * * * * * * * * * * //

dimensions      [1 -1 -2 0 0 0 0];

internalField   nonuniform List<scalar> 
197568
(
1
1
1
1
1
1
1
1
1
1
1
1
1
1
1
1
1
1
1
1
1
1
1
1
1
1
1
1
1
1
1
1
1
1
1
1
1
1
1
1
1
1
1
1
1
1
1
1
1
1
1
1
1
1
1
1
1
1
1
1
1
1
1
1
1
1
1
1
1
1
1
1
1
1
1
1
1
1
1
1
1
1
1
1
1
1
6.58543
10.34
10.4064
10.4351
10.4769
10.5165
10.5538
10.5867
10.6181
10.6507
10.6846
10.7179
10.7479
10.7742
10.7995
10.8271
10.8595
10.8961
10.9335
10.9676
10.9975
11.0257
11.0562
11.0902
11.1262
11.1606
11.1888
11.2091
11.223
11.2344
11.2481
11.2683
11.2954
11.3274
11.3617
11.3965
11.4298
11.4592
11.4834
11.5027
11.519
11.5359
11.5571
11.5819
11.6073
11.6301
11.6484
11.6624
11.6743
11.6882
11.7073
11.7312
11.7574
11.7829
11.8056
11.8244
11.8389
11.8494
11.8569
11.8638
11.8737
11.8894
11.9105
11.9313
11.9454
11.9509
11.9513
11.9534
11.9633
11.9812
11.9961
12.0017
12.0023
12.0046
12.0131
12.0257
12.0396
12.0478
12.0482
12.045
12.0426
12.0422
1
1
1
1
1
1
1
1
1
1
1
1
1
1
1
1
1
1
1
1
1
1
1
1
1
1
1
1
1
1
1
1
1
1
1
1
1
1
1
1
1
1
1
1
1
1
1
1
1
1
1
1
1
1
1
1
1
1
1
1
1
1
1
1
1
1
1
1
1
1
1
1
1
1
1
1
1
1
1
1
1
1
1
1
1
1
6.55824
10.3346
10.4031
10.435
10.4763
10.5165
10.554
10.5872
10.6189
10.6515
10.6853
10.7186
10.7486
10.7749
10.7999
10.8269
10.8586
10.8949
10.9326
10.9678
10.9988
11.0276
11.057
11.0889
11.1226
11.1557
11.1844
11.2066
11.2231
11.2368
11.2516
11.2712
11.2966
11.3267
11.3595
11.3935
11.4271
11.4573
11.4826
11.503
11.5203
11.5376
11.5585
11.5821
11.6059
11.6273
11.6452
11.6598
11.673
11.6885
11.7089
11.7329
11.7577
11.7809
11.8016
11.82
11.8362
11.8494
11.8594
11.8673
11.8758
11.8879
11.9051
11.925
11.9418
11.9514
11.9551
11.9575
11.964
11.9769
11.9908
11.9992
12.0025
12.0063
12.0139
12.0241
12.0362
12.0453
12.0479
12.0456
12.0424
12.04
1
1
1
1
1
1
1
1
1
1
1
1
1
1
1
1
1
1
1
1
1
1
1
1
1
1
1
1
1
1
1
1
1
1
1
1
1
1
1
1
1
1
1
1
1
1
1
1
1
1
1
1
1
1
1
1
1
1
1
1
1
1
1
1
1
1
1
1
1
1
1
1
1
1
1
1
1
1
1
1
1
1
1
1
1
1
6.50111
10.3306
10.3994
10.433
10.4746
10.5155
10.5534
10.587
10.619
10.6517
10.6854
10.7188
10.749
10.7752
10.7997
10.8261
10.8572
10.8931
10.9311
10.9673
10.9995
11.0291
11.0579
11.0874
11.1182
11.1494
11.1782
11.2024
11.2219
11.2386
11.2553
11.2748
11.2986
11.3265
11.3572
11.3897
11.423
11.454
11.4806
11.5025
11.5213
11.5393
11.56
11.5823
11.6044
11.624
11.6412
11.6561
11.6707
11.6881
11.7099
11.7343
11.7582
11.7793
11.7976
11.8145
11.8316
11.8477
11.861
11.8711
11.8792
11.8881
11.9
11.9165
11.9349
11.9494
11.9582
11.9629
11.9668
11.9733
11.9835
11.9939
12.0012
12.0077
12.0152
12.0231
12.0324
12.0418
12.047
12.0459
12.0426
12.0382
1
1
1
1
1
1
1
1
1
1
1
1
1
1
1
1
1
1
1
1
1
1
1
1
1
1
1
1
1
1
1
1
1
1
1
1
1
1
1
1
1
1
1
1
1
1
1
1
1
1
1
1
1
1
1
1
1
1
1
1
1
1
1
1
1
1
1
1
1
1
1
1
1
1
1
1
1
1
1
1
1
1
1
1
1
1
6.41951
10.3241
10.3958
10.4305
10.4726
10.5143
10.5526
10.5866
10.6189
10.6517
10.6856
10.7191
10.7493
10.7753
10.7992
10.8247
10.8551
10.8909
10.9295
10.9666
10.9998
11.0297
11.0573
11.0841
11.112
11.1417
11.1711
11.1978
11.2208
11.2407
11.2592
11.2784
11.3005
11.3261
11.3545
11.3853
11.4181
11.4498
11.4779
11.5018
11.5223
11.5408
11.5607
11.5811
11.6012
11.6196
11.6367
11.6526
11.6687
11.6874
11.7096
11.7336
11.7566
11.7767
11.7942
11.8106
11.8274
11.8447
11.8604
11.8724
11.8807
11.8874
11.8957
11.9088
11.9273
11.9466
11.9606
11.9671
11.9688
11.9703
11.9762
11.9873
11.999
12.0084
12.0153
12.021
12.028
12.0371
12.0442
12.045
12.0414
12.0352
1
1
1
1
1
1
1
1
1
1
1
1
1
1
1
1
1
1
1
1
1
1
1
1
1
1
1
1
1
1
1
1
1
1
1
1
1
1
1
1
1
1
1
1
1
1
1
1
1
1
1
1
1
1
1
1
1
1
1
1
1
1
1
1
1
1
1
1
1
1
1
1
1
1
1
1
1
1
1
1
1
1
1
1
1
1
6.3132
10.3148
10.392
10.427
10.4698
10.5122
10.551
10.5856
10.6182
10.6512
10.6853
10.719
10.7494
10.775
10.7982
10.823
10.8528
10.8888
10.9279
10.9657
10.9992
11.0287
11.0548
11.0794
11.1054
11.1345
11.1649
11.1938
11.2196
11.2422
11.262
11.281
11.3018
11.3255
11.3522
11.3813
11.4131
11.445
11.4743
11.5002
11.5226
11.5416
11.5605
11.5785
11.5965
11.6142
11.6323
11.65
11.6676
11.6863
11.7073
11.7299
11.7522
11.7731
11.7921
11.8094
11.8253
11.8407
11.8559
11.869
11.8787
11.886
11.8935
11.9045
11.9212
11.9416
11.959
11.968
11.9692
11.9684
11.9714
11.9812
11.995
12.0066
12.0137
12.0181
12.0237
12.0324
12.0404
12.0426
12.0393
12.0324
1
1
1
1
1
1
1
1
1
1
1
1
1
1
1
1
1
1
1
1
1
1
1
1
1
1
1
1
1
1
1
1
1
1
1
1
1
1
1
1
1
1
1
1
1
1
1
1
1
1
1
1
1
1
1
1
1
1
1
1
1
1
1
1
1
1
1
1
1
1
1
1
1
1
1
1
1
1
1
1
1
1
1
1
1
1
6.18152
10.3032
10.3878
10.4222
10.4661
10.5093
10.5487
10.584
10.617
10.6501
10.6843
10.7182
10.7489
10.7745
10.7972
10.8214
10.8508
10.8867
10.926
10.9639
10.9971
11.0256
11.0503
11.0733
11.0987
11.1284
11.1603
11.1911
11.2191
11.2431
11.2635
11.2822
11.3021
11.3246
11.3498
11.3775
11.4081
11.4398
11.4698
11.4974
11.5217
11.5416
11.5596
11.5751
11.5907
11.6078
11.6273
11.6475
11.6672
11.6859
11.7044
11.7237
11.745
11.768
11.7906
11.8101
11.8253
11.8372
11.8484
11.8605
11.8728
11.8837
11.8937
11.9044
11.9179
11.9349
11.9522
11.964
11.9679
11.9678
11.9697
11.9772
11.9896
12.0015
12.0095
12.0143
12.0198
12.0279
12.0357
12.0385
12.0359
12.0296
1
1
1
1
1
1
1
1
1
1
1
1
1
1
1
1
1
1
1
1
1
1
1
1
1
1
1
1
1
1
1
1
1
1
1
1
1
1
1
1
1
1
1
1
1
1
1
1
1
1
1
1
1
1
1
1
1
1
1
1
1
1
1
1
1
1
1
1
1
1
1
1
1
1
1
1
1
1
1
1
1
1
1
1
1
1
6.02447
10.2892
10.3827
10.4165
10.4617
10.5056
10.5458
10.5817
10.6151
10.6482
10.6822
10.7162
10.7475
10.7736
10.7965
10.8204
10.8493
10.8845
10.9231
10.9605
10.9932
11.0211
11.0451
11.0675
11.093
11.1237
11.1569
11.1891
11.2183
11.243
11.2637
11.2821
11.3013
11.3229
11.3471
11.3738
11.403
11.4343
11.4647
11.4937
11.5198
11.5409
11.5586
11.5722
11.5851
11.6006
11.6209
11.6437
11.666
11.685
11.7013
11.7171
11.7364
11.7611
11.7879
11.8107
11.8258
11.834
11.8401
11.8492
11.8635
11.8802
11.8949
11.9065
11.9168
11.9284
11.9424
11.9558
11.9646
11.968
11.97
11.975
11.9838
11.9942
12.0032
12.0098
12.0161
12.0234
12.0299
12.0327
12.0312
12.0273
1
1
1
1
1
1
1
1
1
1
1
1
1
1
1
1
1
1
1
1
1
1
1
1
1
1
1
1
1
1
1
1
1
1
1
1
1
1
1
1
1
1
1
1
1
1
1
1
1
1
1
1
1
1
1
1
1
1
1
1
1
1
1
1
1
1
1
1
1
1
1
1
1
1
1
1
1
1
1
1
1
1
1
1
1
1
5.84247
10.272
10.3764
10.4098
10.4563
10.501
10.5422
10.579
10.6129
10.6459
10.6792
10.713
10.7449
10.772
10.7957
10.8197
10.8479
10.8817
10.9188
10.9554
10.9878
11.0161
11.0404
11.0633
11.0892
11.1203
11.1541
11.1868
11.2166
11.2417
11.2625
11.2808
11.2996
11.3204
11.3438
11.3697
11.3978
11.4283
11.4585
11.4885
11.5163
11.5389
11.5573
11.57
11.5807
11.5939
11.6135
11.6376
11.6623
11.6828
11.6985
11.7122
11.7293
11.7535
11.7825
11.8083
11.8242
11.8303
11.8327
11.8387
11.8533
11.8744
11.8943
11.9079
11.9159
11.9224
11.9318
11.9453
11.9591
11.9677
11.9707
11.9729
11.9778
11.9856
11.9953
12.0045
12.0121
12.0181
12.0226
12.025
12.0256
12.025
1
1
1
1
1
1
1
1
1
1
1
1
1
1
1
1
1
1
1
1
1
1
1
1
1
1
1
1
1
1
1
1
1
1
1
1
1
1
1
1
1
1
1
1
1
1
1
1
1
1
1
1
1
1
1
1
1
1
1
1
1
1
1
1
1
1
1
1
1
1
1
1
1
1
1
1
1
1
1
1
1
1
1
1
1
1
5.63647
10.2511
10.3685
10.4019
10.4502
10.4957
10.5379
10.576
10.6108
10.6436
10.6758
10.7087
10.7411
10.7695
10.7944
10.819
10.8462
10.878
10.9129
10.9485
10.9815
11.011
11.0367
11.0607
11.0872
11.1181
11.1515
11.184
11.2138
11.2392
11.2601
11.2786
11.297
11.3172
11.3399
11.3653
11.3926
11.4219
11.4516
11.4816
11.5105
11.535
11.555
11.5683
11.578
11.5892
11.6066
11.6298
11.6554
11.678
11.6951
11.709
11.725
11.7473
11.775
11.8014
11.8185
11.825
11.8269
11.8317
11.8452
11.8672
11.8901
11.906
11.9134
11.9171
11.9232
11.9355
11.9521
11.9648
11.9694
11.97
11.9715
11.9772
11.9873
11.9985
12.0071
12.0116
12.0137
12.0162
12.0194
12.0225
1
1
1
1
1
1
1
1
1
1
1
1
1
1
1
1
1
1
1
1
1
1
1
1
1
1
1
1
1
1
1
1
1
1
1
1
1
1
1
1
1
1
1
1
1
1
1
1
1
1
1
1
1
1
1
1
1
1
1
1
1
1
1
1
1
1
1
1
1
1
1
1
1
1
1
1
1
1
1
1
1
1
1
1
1
1
5.40744
10.2259
10.3597
10.3925
10.4426
10.4893
10.5329
10.5726
10.6089
10.6418
10.6727
10.7039
10.7361
10.7656
10.7922
10.8178
10.8445
10.8741
10.9064
10.9407
10.9744
11.0059
11.0338
11.0594
11.0865
11.1166
11.1489
11.1804
11.2096
11.2351
11.2564
11.2752
11.2935
11.3131
11.3354
11.3606
11.3875
11.4159
11.4446
11.4736
11.5024
11.528
11.5504
11.5656
11.5762
11.5869
11.6017
11.6217
11.6456
11.6692
11.6894
11.7061
11.7227
11.743
11.7668
11.7904
11.808
11.8173
11.8219
11.8279
11.8403
11.8599
11.882
11.8991
11.908
11.9119
11.9171
11.9282
11.9446
11.9589
11.9651
11.9652
11.9653
11.97
11.98
11.9922
12.0006
12.0035
12.0041
12.007
12.0128
12.019
1
1
1
1
1
1
1
1
1
1
1
1
1
1
1
1
1
1
1
1
1
1
1
1
1
1
1
1
1
1
1
1
1
1
1
1
1
1
1
1
1
1
1
1
1
1
1
1
1
1
1
1
1
1
1
1
1
1
1
1
1
1
1
1
1
1
1
1
1
1
1
1
1
1
1
1
1
1
1
1
1
1
1
1
1
1
5.15624
10.1959
10.3511
10.3824
10.4339
10.4813
10.5265
10.5682
10.6065
10.6401
10.6699
10.6995
10.7306
10.7604
10.7885
10.8155
10.8425
10.8707
10.9004
10.9327
10.9665
10.9996
11.0301
11.0578
11.0856
11.1149
11.1458
11.176
11.2043
11.2297
11.2515
11.2708
11.2894
11.3086
11.3306
11.3556
11.3826
11.4107
11.4387
11.4659
11.4931
11.5179
11.542
11.5606
11.5744
11.5864
11.5995
11.6154
11.6349
11.6569
11.6799
11.7013
11.7211
11.7404
11.7594
11.7778
11.7941
11.807
11.8169
11.8262
11.8378
11.8533
11.8712
11.8878
11.8995
11.9068
11.9135
11.9233
11.9368
11.9498
11.9569
11.9584
11.9594
11.9641
11.9736
11.9847
11.9918
11.9935
11.994
11.9978
12.0055
12.0134
1
1
1
1
1
1
1
1
1
1
1
1
1
1
1
1
1
1
1
1
1
1
1
1
1
1
1
1
1
1
1
1
1
1
1
1
1
1
1
1
1
1
1
1
1
1
1
1
1
1
1
1
1
1
1
1
1
1
1
1
1
1
1
1
1
1
1
1
1
1
1
1
1
1
1
1
1
1
1
1
1
1
1
1
1
1
4.88349
10.1586
10.3434
10.3726
10.4245
10.4718
10.5183
10.5621
10.6026
10.6372
10.6666
10.6949
10.7251
10.7549
10.7841
10.8126
10.8403
10.8677
10.8952
10.9253
10.9585
10.9924
11.0249
11.055
11.0839
11.1128
11.1423
11.1711
11.1985
11.2238
11.2461
11.2659
11.2849
11.3039
11.3251
11.35
11.3773
11.4057
11.4336
11.4594
11.484
11.5063
11.53
11.5523
11.5714
11.5865
11.5993
11.6115
11.6255
11.6435
11.6671
11.6934
11.7179
11.7379
11.7531
11.7661
11.7796
11.7949
11.8104
11.8241
11.8358
11.8471
11.8597
11.8741
11.8887
11.9012
11.9108
11.9194
11.9286
11.9379
11.9454
11.9502
11.9539
11.9593
11.9674
11.9757
11.9809
11.9825
11.9842
11.9894
11.9978
12.0053
1
1
1
1
1
1
1
1
1
1
1
1
1
1
1
1
1
1
1
1
1
1
1
1
1
1
1
1
1
1
1
1
1
1
1
1
1
1
1
1
1
1
1
1
1
1
1
1
1
1
1
1
1
1
1
1
1
1
1
1
1
1
1
1
1
1
1
1
1
1
1
1
1
1
1
1
1
1
1
1
1
1
1
1
1
1
4.5906
10.11
10.3379
10.3638
10.4151
10.4621
10.5097
10.5552
10.5974
10.633
10.6623
10.6898
10.7193
10.7492
10.7792
10.809
10.8376
10.8646
10.8904
10.9185
10.9505
10.9842
11.018
11.0503
11.0804
11.1093
11.1376
11.1653
11.1921
11.2174
11.2404
11.2609
11.2803
11.299
11.319
11.343
11.3704
11.3996
11.4284
11.4537
11.476
11.4954
11.5169
11.5405
11.5645
11.5845
11.5987
11.6084
11.6179
11.6313
11.6532
11.6821
11.7111
11.7333
11.747
11.7564
11.7669
11.7824
11.8017
11.8194
11.832
11.8405
11.8489
11.8609
11.8773
11.8943
11.9071
11.9145
11.9194
11.925
11.9326
11.941
11.9484
11.9545
11.9602
11.965
11.9683
11.971
11.9754
11.9818
11.9892
11.9942
1
1
1
1
1
1
1
1
1
1
1
1
1
1
1
1
1
1
1
1
1
1
1
1
1
1
1
1
1
1
1
1
1
1
1
1
1
1
1
1
1
1
1
1
1
1
1
1
1
1
1
1
1
1
1
1
1
1
1
1
1
1
1
1
1
1
1
1
1
1
1
1
1
1
1
1
1
1
1
1
1
1
1
1
1
1
4.2799
10.0447
10.3365
10.3573
10.4064
10.4524
10.5011
10.5482
10.5916
10.6276
10.6569
10.6842
10.7135
10.7434
10.7742
10.8049
10.8343
10.8611
10.8857
10.9119
10.9424
10.9755
11.0099
11.0436
11.0752
11.1043
11.1316
11.1583
11.1846
11.2104
11.2345
11.2561
11.276
11.2944
11.3129
11.3351
11.3617
11.3912
11.4214
11.4475
11.4693
11.4874
11.5063
11.5285
11.5537
11.5775
11.5945
11.6046
11.6121
11.6226
11.6415
11.6694
11.6999
11.7246
11.7395
11.7483
11.7572
11.7714
11.7912
11.8109
11.8249
11.833
11.8396
11.85
11.8666
11.8858
11.9004
11.9068
11.9087
11.9121
11.92
11.9317
11.9424
11.9485
11.9509
11.9525
11.9549
11.9597
11.9673
11.9745
11.9793
11.9808
1
1
1
1
1
1
1
1
1
1
1
1
1
1
1
1
1
1
1
1
1
1
1
1
1
1
1
1
1
1
1
1
1
1
1
1
1
1
1
1
1
1
1
1
1
1
1
1
1
1
1
1
1
1
1
1
1
1
1
1
1
1
1
1
1
1
1
1
1
1
1
1
1
1
1
1
1
1
1
1
1
1
1
1
1
1
3.95536
9.95661
10.337
10.3521
10.3985
10.4433
10.4929
10.5415
10.5857
10.6214
10.6507
10.6781
10.7078
10.738
10.7692
10.8004
10.8301
10.8569
10.881
10.9061
10.9352
10.9674
11.0019
11.0364
11.0689
11.0982
11.1247
11.1504
11.1763
11.2024
11.2277
11.2507
11.2712
11.2897
11.3071
11.3272
11.3517
11.3799
11.411
11.4389
11.4623
11.4817
11.4998
11.5193
11.5417
11.5646
11.5838
11.5968
11.6064
11.6173
11.6338
11.6576
11.6852
11.7104
11.7285
11.7401
11.7499
11.7627
11.7801
11.7987
11.8138
11.8237
11.8315
11.8418
11.8574
11.8757
11.89
11.8958
11.8968
11.8998
11.9086
11.9225
11.935
11.9404
11.9397
11.939
11.9416
11.949
11.9593
11.9662
11.9679
11.966
1
1
1
1
1
1
1
1
1
1
1
1
1
1
1
1
1
1
1
1
1
1
1
1
1
1
1
1
1
1
1
1
1
1
1
1
1
1
1
1
1
1
1
1
1
1
1
1
1
1
1
1
1
1
1
1
1
1
1
1
1
1
1
1
1
1
1
1
1
1
1
1
1
1
1
1
1
1
1
1
1
1
1
1
1
1
3.6217
9.836
10.3378
10.3489
10.3929
10.4358
10.4852
10.5347
10.579
10.6144
10.6437
10.6715
10.7018
10.7326
10.7638
10.7947
10.8241
10.8508
10.8751
10.8999
10.9283
10.9597
10.994
11.0289
11.0619
11.0915
11.1174
11.1423
11.1676
11.1935
11.2194
11.2437
11.2653
11.2845
11.3018
11.3204
11.3424
11.3676
11.3975
11.4272
11.4543
11.4774
11.4967
11.5139
11.5309
11.5488
11.5675
11.585
11.6001
11.6145
11.6297
11.6479
11.6694
11.6922
11.7134
11.7306
11.744
11.7561
11.7696
11.7846
11.7996
11.8125
11.8237
11.8353
11.8491
11.8641
11.876
11.8817
11.8839
11.8884
11.8986
11.9131
11.9253
11.9296
11.9273
11.9255
11.9288
11.9384
11.9501
11.9561
11.9551
11.951
1
1
1
1
1
1
1
1
1
1
1
1
1
1
1
1
1
1
1
1
1
1
1
1
1
1
1
1
1
1
1
1
1
1
1
1
1
1
1
1
1
1
1
1
1
1
1
1
1
1
1
1
1
1
1
1
1
1
1
1
1
1
1
1
1
1
1
1
1
1
1
1
1
1
1
1
1
1
1
1
1
1
1
1
1
1
3.28614
9.67367
10.3368
10.3477
10.3906
10.4311
10.4791
10.528
10.5716
10.6064
10.636
10.6651
10.6964
10.7277
10.7584
10.7881
10.8163
10.8423
10.8672
10.8927
10.9213
10.9526
10.9864
11.021
11.0541
11.0838
11.1099
11.1345
11.1594
11.1846
11.2098
11.2341
11.2564
11.2773
11.2959
11.3145
11.3346
11.3564
11.383
11.4128
11.4437
11.4722
11.4943
11.5102
11.5216
11.5329
11.5485
11.5695
11.5919
11.6118
11.6269
11.6397
11.6536
11.672
11.6952
11.7189
11.7378
11.7504
11.7598
11.7701
11.7835
11.7993
11.8148
11.8286
11.8406
11.8511
11.8596
11.8656
11.8706
11.8778
11.8892
11.9028
11.9132
11.9164
11.9141
11.9126
11.9166
11.9272
11.9387
11.9436
11.9412
11.9367
1
1
1
1
1
1
1
1
1
1
1
1
1
1
1
1
1
1
1
1
1
1
1
1
1
1
1
1
1
1
1
1
1
1
1
1
1
1
1
1
1
1
1
1
1
1
1
1
1
1
1
1
1
1
1
1
1
1
1
1
1
1
1
1
1
1
1
1
1
1
1
1
1
1
1
1
1
1
1
1
1
1
1
1
1
1
2.95164
9.47392
10.3314
10.3461
10.3897
10.4305
10.4768
10.523
10.5646
10.5983
10.6285
10.6587
10.6913
10.7231
10.7529
10.7806
10.807
10.8324
10.8583
10.8854
10.9149
10.9464
10.9795
11.0129
11.0452
11.0746
11.1012
11.1265
11.1516
11.1763
11.2002
11.2229
11.2445
11.2665
11.2877
11.3078
11.3278
11.3478
11.3707
11.3985
11.4305
11.463
11.4889
11.5053
11.5133
11.5199
11.5319
11.5535
11.5806
11.6055
11.6216
11.6305
11.6384
11.6524
11.6766
11.7057
11.7301
11.744
11.7503
11.7562
11.7672
11.7846
11.804
11.8202
11.8308
11.8374
11.8428
11.849
11.857
11.8671
11.8792
11.8909
11.899
11.9017
11.9006
11.9002
11.9048
11.9146
11.9245
11.9286
11.9265
11.9233
1
1
1
1
1
1
1
1
1
1
1
1
1
1
1
1
1
1
1
1
1
1
1
1
1
1
1
1
1
1
1
1
1
1
1
1
1
1
1
1
1
1
1
1
1
1
1
1
1
1
1
1
1
1
1
1
1
1
1
1
1
1
1
1
1
1
1
1
1
1
1
1
1
1
1
1
1
1
1
1
1
1
1
1
1
1
2.61762
9.23242
10.3299
10.3501
10.3924
10.4315
10.4759
10.5192
10.5577
10.59
10.6209
10.6527
10.6863
10.7187
10.7475
10.773
10.7973
10.8221
10.849
10.878
10.9091
10.9413
10.9736
11.0052
11.0355
11.0638
11.0904
11.1169
11.1435
11.1687
11.1919
11.2127
11.2319
11.2528
11.2758
11.2983
11.3206
11.3414
11.3626
11.3874
11.4169
11.4493
11.4773
11.496
11.5045
11.5103
11.5203
11.5403
11.5674
11.5935
11.6104
11.6184
11.6239
11.6359
11.6602
11.6919
11.7198
11.7353
11.7403
11.7432
11.7518
11.7691
11.7908
11.8089
11.819
11.8231
11.8264
11.8327
11.8431
11.8554
11.8673
11.877
11.8833
11.8862
11.8869
11.8882
11.8926
11.9002
11.9075
11.9115
11.9113
11.9106
1
1
1
1
1
1
1
1
1
1
1
1
1
1
1
1
1
1
1
1
1
1
1
1
1
1
1
1
1
1
1
1
1
1
1
1
1
1
1
1
1
1
1
1
1
1
1
1
1
1
1
1
1
1
1
1
1
1
1
1
1
1
1
1
1
1
1
1
1
1
1
1
1
1
1
1
1
1
1
1
1
1
1
1
1
1
2.28822
8.94382
10.3323
10.3558
10.3953
10.4332
10.4752
10.5146
10.5496
10.5802
10.6117
10.6458
10.6809
10.7135
10.7412
10.7646
10.787
10.8113
10.8394
10.8706
10.9036
10.9369
10.969
10.9988
11.0263
11.0519
11.0773
11.1043
11.1331
11.1604
11.1844
11.2042
11.221
11.2385
11.2606
11.2848
11.3107
11.3352
11.3577
11.3805
11.4056
11.4337
11.4601
11.4814
11.494
11.5032
11.5137
11.5308
11.5533
11.5761
11.5926
11.6025
11.61
11.6234
11.6475
11.6785
11.7065
11.7231
11.7287
11.7307
11.7377
11.7537
11.7755
11.7944
11.8048
11.8083
11.8109
11.8174
11.8289
11.8421
11.8533
11.8614
11.8668
11.8704
11.8731
11.8759
11.8793
11.8836
11.8885
11.893
11.8954
11.8978
1
1
1
1
1
1
1
1
1
1
1
1
1
1
1
1
1
1
1
1
1
1
1
1
1
1
1
1
1
1
1
1
1
1
1
1
1
1
1
1
1
1
1
1
1
1
1
1
1
1
1
1
1
1
1
1
1
1
1
1
1
1
1
1
1
1
1
1
1
1
1
1
1
1
1
1
1
1
1
1
1
1
1
1
1
1
1.97604
8.61088
10.3416
10.355
10.3951
10.4306
10.4711
10.5084
10.5414
10.5716
10.6039
10.6392
10.6746
10.7068
10.7333
10.7549
10.776
10.8002
10.8294
10.8627
10.8977
10.9326
10.965
10.9936
11.0184
11.0408
11.0633
11.0888
11.119
11.1496
11.1762
11.1969
11.2123
11.2262
11.245
11.2682
11.2972
11.327
11.3533
11.376
11.3967
11.4184
11.4403
11.4626
11.4811
11.4967
11.5096
11.5232
11.5384
11.5547
11.5699
11.5836
11.5971
11.6145
11.6381
11.6655
11.6906
11.7073
11.7147
11.718
11.7246
11.7387
11.7585
11.777
11.7883
11.7929
11.796
11.8027
11.8141
11.8269
11.8372
11.8446
11.8499
11.8544
11.8586
11.8621
11.8642
11.8657
11.8687
11.8738
11.879
11.8839
1
1
1
1
1
1
1
1
1
1
1
1
1
1
1
1
1
1
1
1
1
1
1
1
1
1
1
1
1
1
1
1
1
1
1
1
1
1
1
1
1
1
1
1
1
1
1
1
1
1
1
1
1
1
1
1
1
1
1
1
1
1
1
1
1
1
1
1
1
1
1
1
1
1
1
1
1
1
1
1
1
1
1
1
1
1
1.69132
8.22763
10.3594
10.3511
10.3931
10.4269
10.4651
10.5006
10.5326
10.5633
10.5964
10.632
10.6669
10.6978
10.7231
10.7439
10.7648
10.7895
10.8196
10.854
10.8902
10.9263
10.9598
10.9884
11.0118
11.0317
11.0512
11.0736
11.1022
11.1348
11.1649
11.1883
11.2044
11.2166
11.2319
11.2522
11.2813
11.3149
11.346
11.3706
11.3887
11.4049
11.4217
11.4429
11.4657
11.4876
11.5036
11.5143
11.5225
11.5322
11.5457
11.564
11.5851
11.6074
11.6301
11.6524
11.6727
11.6884
11.6981
11.7043
11.7117
11.7239
11.7406
11.7575
11.7697
11.7765
11.7812
11.788
11.7984
11.8099
11.8197
11.827
11.8327
11.8379
11.8428
11.8462
11.8471
11.8469
11.8488
11.8544
11.8616
11.868
1
1
1
1
1
1
1
1
1
1
1
1
1
1
1
1
1
1
1
1
1
1
1
1
1
1
1
1
1
1
1
1
1
1
1
1
1
1
1
1
1
1
1
1
1
1
1
1
1
1
1
1
1
1
1
1
1
1
1
1
1
1
1
1
1
1
1
1
1
1
1
1
1
1
1
1
1
1
1
1
1
1
1
1
1
1
1.44606
7.79046
10.3778
10.3487
10.3846
10.4181
10.4542
10.4893
10.5218
10.5542
10.5885
10.6242
10.658
10.6871
10.7112
10.7321
10.7538
10.7797
10.8108
10.8453
10.8808
10.9164
10.951
10.981
11.0052
11.0247
11.0428
11.0623
11.0864
11.1171
11.1486
11.1755
11.1946
11.2083
11.2226
11.2405
11.2668
11.3001
11.3333
11.3608
11.3791
11.3929
11.4067
11.4258
11.4495
11.4744
11.4923
11.5015
11.5055
11.5109
11.5238
11.5462
11.5735
11.5995
11.621
11.6384
11.6536
11.6676
11.6796
11.6893
11.6983
11.7089
11.7222
11.7368
11.7496
11.7588
11.7657
11.7727
11.7817
11.7916
11.8009
11.8086
11.8149
11.8204
11.8251
11.8279
11.8283
11.8277
11.8295
11.8352
11.8429
11.8495
1
1
1
1
1
1
1
1
1
1
1
1
1
1
1
1
1
1
1
1
1
1
1
1
1
1
1
1
1
1
1
1
1
1
1
1
1
1
1
1
1
1
1
1
1
1
1
1
1
1
1
1
1
1
1
1
1
1
1
1
1
1
1
1
1
1
1
1
1
1
1
1
1
1
1
1
1
1
1
1
1
1
1
1
1
1
1.23125
7.32292
10.3699
10.3468
10.3734
10.4113
10.446
10.4796
10.5117
10.5447
10.5795
10.6147
10.6474
10.6754
10.699
10.7206
10.7438
10.7712
10.8033
10.8378
10.8714
10.9042
10.9374
10.9685
10.9951
11.017
11.0364
11.0552
11.0753
11.1006
11.1292
11.1571
11.1803
11.1987
11.2154
11.2331
11.256
11.2853
11.3163
11.3453
11.3663
11.3817
11.3955
11.4126
11.434
11.457
11.4743
11.4834
11.4873
11.4926
11.5066
11.5314
11.5615
11.5889
11.609
11.6227
11.6341
11.6465
11.66
11.6728
11.6835
11.6929
11.7032
11.7154
11.7284
11.7399
11.7489
11.7563
11.7639
11.7724
11.7813
11.7895
11.7962
11.8015
11.8055
11.8077
11.8083
11.8083
11.8104
11.8157
11.8227
11.8283
1
1
1
1
1
1
1
1
1
1
1
1
1
1
1
1
1
1
1
1
1
1
1
1
1
1
1
1
1
1
1
1
1
1
1
1
1
1
1
1
1
1
1
1
1
1
1
1
1
1
1
1
1
1
1
1
1
1
1
1
1
1
1
1
1
1
1
1
1
1
1
1
1
1
1
1
1
1
1
1
1
1
1
1
1
1
1.04237
6.83084
10.3385
10.3344
10.3542
10.3938
10.4317
10.4692
10.5039
10.5374
10.5707
10.6037
10.6345
10.6615
10.685
10.7076
10.7324
10.7619
10.796
10.8316
10.8642
10.8932
10.9219
10.9509
10.9788
11.0047
11.0286
11.05
11.0689
11.0887
11.1112
11.1354
11.1604
11.1844
11.2068
11.2275
11.2483
11.2723
11.298
11.3258
11.35
11.3701
11.3868
11.4025
11.4191
11.4363
11.4505
11.4609
11.4685
11.4778
11.4945
11.5194
11.5482
11.5743
11.5931
11.6051
11.6146
11.6259
11.6401
11.6547
11.6667
11.6755
11.6836
11.6938
11.7065
11.7197
11.7306
11.7385
11.7452
11.7523
11.7606
11.7691
11.7761
11.781
11.7842
11.7861
11.7872
11.7883
11.7909
11.7954
11.801
11.8053
1
1
1
1
1
1
1
1
1
1
1
1
1
1
1
1
1
1
1
1
1
1
1
1
1
1
1
1
1
1
1
1
1
1
1
1
1
1
1
1
1
1
1
1
1
1
1
1
1
1
1
1
1
1
1
1
1
1
1
1
1
1
1
1
1
1
1
1
1
1
1
1
1
1
1
1
1
1
1
1
1
1
1
1
1
1
1.00093
6.25557
10.2387
10.3104
10.3437
10.3869
10.4247
10.461
10.4941
10.5262
10.5587
10.5915
10.6225
10.6498
10.6734
10.6964
10.7219
10.7522
10.7875
10.8241
10.8572
10.885
10.9093
10.9334
10.9586
10.9861
11.015
11.0419
11.0635
11.0809
11.0973
11.1151
11.1379
11.1652
11.194
11.2203
11.2418
11.2614
11.2807
11.3046
11.3307
11.3562
11.3774
11.3927
11.4041
11.414
11.4243
11.4365
11.4503
11.4659
11.4853
11.5083
11.5331
11.556
11.5736
11.5858
11.5955
11.6064
11.6202
11.635
11.6473
11.656
11.6631
11.672
11.6844
11.6984
11.7107
11.7193
11.7254
11.7314
11.7388
11.747
11.7541
11.759
11.7618
11.7636
11.7653
11.7672
11.77
11.7737
11.7778
11.7813
1
1
1
1
1
1
1
1
1
1
1
1
1
1
1
1
1
1
1
1
1
1
1
1
1
1
1
1
1
1
1
1
1
1
1
1
1
1
1
1
1
1
1
1
1
1
1
1
1
1
1
1
1
1
1
1
1
1
1
1
1
1
1
1
1
1
1
1
1
1
1
1
1
1
1
1
1
1
1
1
1
1
1
1
1
1
1
5.60332
10.137
10.2852
10.3266
10.374
10.4156
10.4537
10.4868
10.5174
10.5472
10.5776
10.6076
10.6353
10.6601
10.6834
10.7082
10.7375
10.7734
10.813
10.8492
10.8781
10.9002
10.9194
10.9396
10.9644
10.9952
11.0272
11.0542
11.0734
11.0872
11.0994
11.1174
11.1439
11.1762
11.2085
11.2333
11.2514
11.2658
11.2846
11.3099
11.339
11.3644
11.3804
11.3881
11.3919
11.3988
11.4128
11.4329
11.4548
11.4763
11.4963
11.5158
11.5347
11.5517
11.5654
11.5766
11.5876
11.6
11.6135
11.6255
11.6345
11.6418
11.6503
11.6621
11.6763
11.6893
11.6986
11.7044
11.7094
11.7155
11.723
11.7302
11.7356
11.7388
11.7407
11.7425
11.7443
11.7468
11.7501
11.7535
11.757
1
1
1
1
1
1
1
1
1
1
1
1
1
1
1
1
1
1
1
1
1
1
1
1
1
1
1
1
1
1
1
1
1
1
1
1
1
1
1
1
1
1
1
1
1
1
1
1
1
1
1
1
1
1
1
1
1
1
1
1
1
1
1
1
1
1
1
1
1
1
1
1
1
1
1
1
1
1
1
1
1
1
1
1
1
1
1
4.93456
10.0109
10.2691
10.3172
10.363
10.4051
10.443
10.4761
10.5065
10.5366
10.5671
10.5979
10.627
10.6528
10.6758
10.6986
10.7248
10.7575
10.7965
10.8349
10.868
10.8933
10.9118
10.9275
10.9461
10.9729
11.0058
11.0377
11.0622
11.0776
11.0876
11.1009
11.1241
11.1559
11.1917
11.2209
11.2404
11.2528
11.267
11.2892
11.3185
11.3464
11.364
11.3705
11.3713
11.3764
11.3916
11.4161
11.4426
11.4651
11.482
11.4966
11.5121
11.5286
11.5444
11.5576
11.5685
11.579
11.5902
11.6014
11.6113
11.6197
11.6285
11.6397
11.6531
11.6662
11.676
11.6819
11.686
11.6908
11.6974
11.7047
11.7111
11.715
11.7172
11.7184
11.7192
11.7211
11.7244
11.7282
11.7325
1
1
1
1
1
1
1
1
1
1
1
1
1
1
1
1
1
1
1
1
1
1
1
1
1
1
1
1
1
1
1
1
1
1
1
1
1
1
1
1
1
1
1
1
1
1
1
1
1
1
1
1
1
1
1
1
1
1
1
1
1
1
1
1
1
1
1
1
1
1
1
1
1
1
1
1
1
1
1
1
1
1
1
1
1
1
1
4.26531
9.83466
10.256
10.305
10.3539
10.3969
10.4345
10.4666
10.4953
10.5242
10.5549
10.5869
10.6179
10.6458
10.67
10.6922
10.7149
10.7426
10.7782
10.8169
10.8528
10.8815
10.9024
10.9182
10.9333
10.9543
10.9831
11.0156
11.0449
11.0651
11.077
11.0879
11.1071
11.1357
11.1716
11.2041
11.2269
11.24
11.2513
11.2694
11.2959
11.3239
11.3433
11.3513
11.3523
11.3573
11.3732
11.3994
11.4277
11.4502
11.465
11.4762
11.4891
11.5055
11.5229
11.5375
11.548
11.5564
11.5653
11.5759
11.587
11.5971
11.6065
11.6168
11.629
11.6414
11.6514
11.6576
11.6612
11.6649
11.6704
11.6779
11.6853
11.6902
11.6923
11.6925
11.6921
11.6932
11.6969
11.7019
11.7073
1
1
1
1
1
1
1
1
1
1
1
1
1
1
1
1
1
1
1
1
1
1
1
1
1
1
1
1
1
1
1
1
1
1
1
1
1
1
1
1
1
1
1
1
1
1
1
1
1
1
1
1
1
1
1
1
1
1
1
1
1
1
1
1
1
1
1
1
1
1
1
1
1
1
1
1
1
1
1
1
1
1
1
1
1
1
1
3.60978
9.59824
10.2506
10.2953
10.3446
10.3846
10.4224
10.4559
10.4857
10.5146
10.5441
10.5744
10.6059
10.6359
10.6626
10.686
10.7077
10.7316
10.7616
10.7971
10.8343
10.8676
10.893
10.9107
10.9236
10.9387
10.9615
10.9908
11.0219
11.0477
11.0646
11.0762
11.0923
11.1168
11.1501
11.1838
11.2099
11.2256
11.2359
11.2502
11.2723
11.2985
11.3194
11.3307
11.3344
11.3408
11.3565
11.3819
11.4097
11.4317
11.4455
11.4551
11.4667
11.4826
11.5005
11.5155
11.5253
11.532
11.5394
11.5498
11.5621
11.5738
11.5838
11.5931
11.6035
11.6148
11.6247
11.6313
11.6349
11.6379
11.6428
11.6502
11.658
11.6634
11.6653
11.6646
11.6631
11.6638
11.6682
11.6745
11.6806
1
1
1
1
1
1
1
1
1
1
1
1
1
1
1
1
1
1
1
1
1
1
1
1
1
1
1
1
1
1
1
1
1
1
1
1
1
1
1
1
1
1
1
1
1
1
1
1
1
1
1
1
1
1
1
1
1
1
1
1
1
1
1
1
1
1
1
1
1
1
1
1
1
1
1
1
1
1
1
1
1
1
1
1
1
1
1
2.96378
9.29362
10.258
10.2921
10.3395
10.3783
10.4165
10.4498
10.4785
10.5052
10.533
10.5621
10.5922
10.6223
10.6519
10.6789
10.7021
10.7233
10.7479
10.7779
10.8124
10.8478
10.8787
10.9015
10.9156
10.9263
10.9426
10.9676
10.9978
11.0268
11.0489
11.0635
11.0782
11.0992
11.1284
11.1613
11.1895
11.2081
11.2193
11.2311
11.249
11.2725
11.2943
11.309
11.3167
11.3248
11.3398
11.3628
11.3888
11.4104
11.4243
11.4338
11.4447
11.4595
11.4765
11.4908
11.5001
11.5062
11.5131
11.5237
11.537
11.5496
11.5596
11.5679
11.5765
11.5863
11.596
11.6031
11.6072
11.6101
11.6146
11.6214
11.6287
11.6339
11.6356
11.6345
11.6327
11.6336
11.6386
11.6456
11.6514
1
1
1
1
1
1
1
1
1
1
1
1
1
1
1
1
1
1
1
1
1
1
1
1
1
1
1
1
1
1
1
1
1
1
1
1
1
1
1
1
1
1
1
1
1
1
1
1
1
1
1
1
1
1
1
1
1
1
1
1
1
1
1
1
1
1
1
1
1
1
1
1
1
1
1
1
1
1
1
1
1
1
1
1
1
1
1
2.35759
8.89235
10.2886
10.3003
10.3411
10.3722
10.4054
10.4374
10.4694
10.4991
10.526
10.5506
10.5759
10.6047
10.6357
10.6678
10.6963
10.7198
10.7414
10.7639
10.7909
10.8239
10.8583
10.8869
10.9061
10.9175
10.9295
10.9486
10.9756
11.0052
11.0312
11.0498
11.0647
11.0829
11.1071
11.1373
11.1658
11.1872
11.2005
11.2115
11.2264
11.2473
11.2692
11.2867
11.298
11.3078
11.3217
11.3419
11.3659
11.3871
11.4021
11.4124
11.4225
11.4355
11.4503
11.4635
11.4728
11.4795
11.4869
11.4979
11.5113
11.5239
11.5334
11.5406
11.5478
11.5564
11.5656
11.5732
11.5781
11.5815
11.5857
11.5915
11.5971
11.6014
11.6031
11.6024
11.6013
11.603
11.6081
11.6146
11.6189
1
1
1
1
1
1
1
1
1
1
1
1
1
1
1
1
1
1
1
1
1
1
1
1
1
1
1
1
1
1
1
1
1
1
1
1
1
1
1
1
1
1
1
1
1
1
1
1
1
1
1
1
1
1
1
1
1
1
1
1
1
1
1
1
1
1
1
1
1
1
1
1
1
1
1
1
1
1
1
1
1
1
1
1
1
1
1
1.82003
8.37934
10.3554
10.3119
10.3393
10.3639
10.3957
10.428
10.4605
10.4922
10.5206
10.5447
10.5654
10.5879
10.6159
10.6504
10.6857
10.7142
10.7352
10.7542
10.7755
10.8025
10.8355
10.8681
10.893
10.9077
10.9176
10.9315
10.9544
10.9834
11.0122
11.0353
11.0518
11.0674
11.0866
11.1127
11.1401
11.1635
11.1795
11.1912
11.2044
11.2231
11.2445
11.2636
11.2775
11.2885
11.3014
11.3192
11.3414
11.3628
11.3791
11.3902
11.3994
11.4099
11.422
11.434
11.444
11.4522
11.461
11.4721
11.4848
11.4962
11.5047
11.511
11.5173
11.5251
11.534
11.5421
11.5477
11.5516
11.5555
11.5596
11.5631
11.5659
11.5678
11.5684
11.569
11.572
11.5766
11.5813
11.5834
1
1
1
1
1
1
1
1
1
1
1
1
1
1
1
1
1
1
1
1
1
1
1
1
1
1
1
1
1
1
1
1
1
1
1
1
1
1
1
1
1
1
1
1
1
1
1
1
1
1
1
1
1
1
1
1
1
1
1
1
1
1
1
1
1
1
1
1
1
1
1
1
1
1
1
1
1
1
1
1
1
1
1
1
1
1
1
1.37579
7.75258
10.3968
10.3278
10.3254
10.3406
10.3695
10.4049
10.4421
10.4809
10.5164
10.5437
10.5624
10.5782
10.5984
10.6284
10.6669
10.7037
10.7304
10.7474
10.7634
10.7846
10.814
10.848
10.877
10.8955
10.9055
10.9156
10.9341
10.9619
10.9929
11.0201
11.0388
11.0516
11.0659
11.0873
11.1132
11.1384
11.1572
11.1702
11.1826
11.1992
11.2196
11.2394
11.2551
11.2668
11.279
11.2951
11.316
11.3376
11.3551
11.3665
11.3744
11.3822
11.3919
11.4032
11.4144
11.4248
11.435
11.4458
11.4567
11.4661
11.4733
11.479
11.485
11.4927
11.5016
11.5099
11.5159
11.5199
11.5231
11.5254
11.5267
11.5282
11.5303
11.5326
11.5355
11.5396
11.5432
11.5453
11.545
1
1
1
1
1
1
1
1
1
1
1
1
1
1
1
1
1
1
1
1
1
1
1
1
1
1
1
1
1
1
1
1
1
1
1
1
1
1
1
1
1
1
1
1
1
1
1
1
1
1
1
1
1
1
1
1
1
1
1
1
1
1
1
1
1
1
1
1
1
1
1
1
1
1
1
1
1
1
1
1
1
1
1
1
1
1
1
1.09167
7.12385
10.327
10.2883
10.313
10.3402
10.364
10.3865
10.4193
10.4591
10.4985
10.5324
10.5566
10.5723
10.5863
10.6088
10.6434
10.6829
10.7167
10.7401
10.7553
10.771
10.7941
10.8264
10.8583
10.8804
10.8922
10.9016
10.9172
10.9424
10.9735
11.0026
11.0223
11.0325
11.0435
11.0619
11.0871
11.1138
11.135
11.1489
11.1601
11.1745
11.1936
11.2137
11.2306
11.2431
11.2549
11.2699
11.2899
11.3115
11.3295
11.3408
11.3471
11.3527
11.3606
11.3717
11.3845
11.3969
11.4081
11.418
11.4268
11.4338
11.4395
11.4448
11.4511
11.4592
11.4682
11.4763
11.4822
11.4857
11.4878
11.4884
11.4882
11.4886
11.4909
11.4949
11.5
11.5049
11.5073
11.5068
11.5046
1
1
1
1
1
1
1
1
1
1
1
1
1
1
1
1
1
1
1
1
1
1
1
1
1
1
1
1
1
1
1
1
1
1
1
1
1
1
1
1
1
1
1
1
1
1
1
1
1
1
1
1
1
1
1
1
1
1
1
1
1
1
1
1
1
1
1
1
1
1
1
1
1
1
1
1
1
1
1
1
1
1
1
1
1
1
1
1.00262
6.34672
10.1895
10.2284
10.2765
10.3125
10.3387
10.3624
10.3932
10.4316
10.4751
10.5163
10.5468
10.5641
10.575
10.5917
10.6219
10.6614
10.6996
10.7276
10.746
10.7598
10.7772
10.8048
10.8367
10.8619
10.877
10.8876
10.902
10.9252
10.9548
10.9832
11.0026
11.0116
11.0208
11.0385
11.0642
11.092
11.1144
11.1278
11.1365
11.148
11.166
11.1868
11.2048
11.218
11.2296
11.2438
11.2628
11.2839
11.3017
11.3125
11.3176
11.3217
11.3287
11.3401
11.3543
11.3681
11.3794
11.3881
11.3946
11.3995
11.4038
11.4089
11.4158
11.4245