/*--------------------------------*- C++ -*----------------------------------*\
  =========                 |
  \\      /  F ield         | OpenFOAM: The Open Source CFD Toolbox
   \\    /   O peration     | Website:  https://openfoam.org
    \\  /    A nd           | Version:  7
     \\/     M anipulation  |
\*---------------------------------------------------------------------------*/
FoamFile
{
    version     2.0;
    format      ascii;
    class       volVectorField;
    location    "9.2";
    object      U;
}
// * * * * * * * * * * * * * * * * * * * * * * * * * * * * * * * * * * * * * //

dimensions      [0 1 -1 0 0 0 0];

internalField   nonuniform List<vector> 
344
(
(0.770398 0.0191834 -2.5471e-16)
(0.772923 0.018857 -2.51086e-16)
(0.775414 0.0185377 -2.32443e-16)
(0.777872 0.0182254 -2.30918e-16)
(0.780298 0.0179199 -2.15113e-16)
(0.782692 0.0176211 -2.09172e-16)
(0.785055 0.0173287 -1.99078e-16)
(0.787386 0.0170426 -1.98697e-16)
(0.789688 0.0167627 -1.85601e-16)
(0.791959 0.0164888 -1.80991e-16)
(0.794202 0.0162207 -1.65059e-16)
(0.796415 0.0159583 -1.63341e-16)
(0.798599 0.0157016 -1.50047e-16)
(0.800756 0.0154502 -1.46816e-16)
(0.802885 0.0152041 -1.30215e-16)
(0.804987 0.0149632 -1.31373e-16)
(0.807063 0.0147274 -1.18112e-16)
(0.809112 0.0144964 -1.12397e-16)
(0.811135 0.0142702 -9.62728e-17)
(0.813132 0.0140487 -9.68933e-17)
(0.815105 0.0138317 -8.15458e-17)
(0.817052 0.0136192 -8.27485e-17)
(0.818976 0.013411 -7.0475e-17)
(0.820875 0.013207 -7.0013e-17)
(0.822751 0.0130071 -5.84639e-17)
(0.824604 0.0128112 -4.74539e-17)
(0.826434 0.0126192 -4.61241e-17)
(0.828241 0.0124311 -3.56107e-17)
(0.830026 0.0122466 -3.42931e-17)
(0.83179 0.0120658 -2.27029e-17)
(0.833531 0.0118885 -2.16023e-17)
(0.835252 0.0117147 -9.50492e-18)
(0.836952 0.0115442 -1.0147e-17)
(0.838631 0.011377 1.61914e-18)
(0.84029 0.011213 1.44857e-18)
(0.841928 0.0110521 1.52649e-17)
(0.843548 0.0108943 1.50822e-17)
(0.845148 0.0107394 2.63338e-17)
(0.625182 0.0306223 -5.68855e-16)
(0.629302 0.0300358 -5.55322e-16)
(0.633359 0.0294614 -5.51238e-16)
(0.637355 0.028899 -5.31861e-16)
(0.64129 0.0283483 -5.16757e-16)
(0.645166 0.0278094 -5.08645e-16)
(0.648983 0.027282 -4.93592e-16)
(0.652743 0.026766 -4.84396e-16)
(0.656447 0.0262611 -4.69569e-16)
(0.660095 0.0257673 -4.62235e-16)
(0.663688 0.0252843 -4.48692e-16)
(0.667229 0.024812 -4.49014e-16)
(0.670716 0.0243501 -4.30289e-16)
(0.674152 0.0238985 -4.22408e-16)
(0.677538 0.0234569 -4.07936e-16)
(0.680873 0.0230251 -4.05689e-16)
(0.68416 0.022603 -3.85798e-16)
(0.687398 0.0221904 -3.77458e-16)
(0.690589 0.021787 -3.62797e-16)
(0.693734 0.0213926 -3.62203e-16)
(0.696833 0.021007 -3.44557e-16)
(0.699888 0.0206301 -3.35495e-16)
(0.702898 0.0202617 -3.18793e-16)
(0.705865 0.0199015 -3.13365e-16)
(0.70879 0.0195493 -2.99451e-16)
(0.711672 0.019205 -2.95173e-16)
(0.714514 0.0188684 -2.84713e-16)
(0.717315 0.0185393 -2.89801e-16)
(0.720077 0.0182175 -2.69283e-16)
(0.7228 0.0179029 -2.55921e-16)
(0.725485 0.0175952 -2.51402e-16)
(0.728132 0.0172943 -2.35578e-16)
(0.730742 0.0170001 -2.31049e-16)
(0.733316 0.0167123 -2.1736e-16)
(0.735854 0.0164309 -2.11647e-16)
(0.738357 0.0161556 -2.03024e-16)
(0.740825 0.0158862 -2.09091e-16)
(0.74326 0.0156228 -1.92146e-16)
(0.745662 0.015365 -1.84817e-16)
(0.748031 0.0151128 -1.70953e-16)
(0.750367 0.0148661 -1.77929e-16)
(0.752672 0.0146246 -1.5999e-16)
(0.754946 0.0143882 -1.54424e-16)
(0.75719 0.0141569 -1.39917e-16)
(0.759403 0.0139305 -1.44596e-16)
(0.761587 0.0137089 -1.28685e-16)
(0.763742 0.0134919 -1.20914e-16)
(0.765869 0.0132795 -1.06512e-16)
(0.767967 0.0130714 -1.05331e-16)
(0.770038 0.0128677 -9.12494e-17)
(0.772082 0.0126682 -9.20717e-17)
(0.774099 0.0124728 -8.00728e-17)
(0.77609 0.0122814 -8.63744e-17)
(0.778055 0.0120939 -6.94313e-17)
(0.779995 0.0119101 -5.82854e-17)
(0.781909 0.0117301 -5.61331e-17)
(0.783799 0.0115537 -4.68838e-17)
(0.785665 0.0113808 -4.42096e-17)
(0.787508 0.0112113 -3.40216e-17)
(0.789326 0.0110452 -3.31787e-17)
(0.791122 0.0108823 -2.20248e-17)
(0.792895 0.0107226 -2.99388e-17)
(0.794646 0.010566 -1.26015e-17)
(0.796375 0.0104125 -1.09004e-17)
(0.798082 0.0102619 -1.29027e-18)
(0.799769 0.0101141 -5.4394e-18)
(0.801434 0.0099692 9.7067e-18)
(0.572667 0.0285482 -5.4844e-16)
(0.577086 0.0279962 -5.3481e-16)
(0.581434 0.0274557 -5.30798e-16)
(0.585712 0.0269264 -5.13433e-16)
(0.589922 0.0264084 -4.98205e-16)
(0.594066 0.0259014 -4.92815e-16)
(0.598143 0.0254054 -4.76887e-16)
(0.602156 0.0249201 -4.69502e-16)
(0.606106 0.0244455 -4.53613e-16)
(0.609993 0.0239812 -4.48404e-16)
(0.61382 0.0235273 -4.34274e-16)
(0.617586 0.0230834 -4.33773e-16)
(0.621293 0.0226494 -4.17829e-16)
(0.624943 0.0222252 -4.12514e-16)
(0.628536 0.0218104 -3.97514e-16)
(0.632074 0.021405 -3.94409e-16)
(0.635557 0.0210087 -3.77562e-16)
(0.638986 0.0206214 -3.70186e-16)
(0.642363 0.0202428 -3.55101e-16)
(0.645688 0.0198728 -3.52302e-16)
(0.648962 0.0195111 -3.38736e-16)
(0.652187 0.0191576 -3.31742e-16)
(0.655363 0.0188121 -3.14721e-16)
(0.658491 0.0184744 -3.10386e-16)
(0.661572 0.0181443 -2.98102e-16)
(0.664607 0.0178217 -2.93034e-16)
(0.667597 0.0175063 -2.80714e-16)
(0.670542 0.017198 -2.83947e-16)
(0.673444 0.0168966 -2.67086e-16)
(0.676303 0.016602 -2.54669e-16)
(0.67912 0.016314 -2.5003e-16)
(0.681895 0.0160324 -2.35638e-16)
(0.68463 0.015757 -2.3263e-16)
(0.687326 0.0154878 -2.16664e-16)
(0.689982 0.0152245 -2.12938e-16)
(0.692601 0.014967 -2.02722e-16)
(0.695181 0.0147152 -2.08402e-16)
(0.697725 0.0144689 -1.94722e-16)
(0.700233 0.014228 -1.89379e-16)
(0.702704 0.0139923 -1.7482e-16)
(0.705141 0.0137618 -1.79416e-16)
(0.707544 0.0135362 -1.64224e-16)
(0.709913 0.0133155 -1.61623e-16)
(0.712249 0.0130995 -1.45224e-16)
(0.714553 0.0128882 -1.47593e-16)
(0.716824 0.0126813 -1.34074e-16)
(0.719064 0.0124788 -1.29737e-16)
(0.721274 0.0122806 -1.13792e-16)
(0.723453 0.0120865 -1.12858e-16)
(0.725602 0.0118965 -9.8772e-17)
(0.727722 0.0117105 -9.8905e-17)
(0.729814 0.0115283 -8.64933e-17)
(0.731877 0.0113499 -9.30524e-17)
(0.733913 0.0111751 -7.73821e-17)
(0.735921 0.0110039 -6.78144e-17)
(0.737903 0.0108362 -6.48036e-17)
(0.739858 0.0106719 -5.59929e-17)
(0.741788 0.0105109 -5.29511e-17)
(0.743692 0.0103531 -4.35723e-17)
(0.745571 0.0101985 -4.35131e-17)
(0.747425 0.0100469 -3.21389e-17)
(0.749256 0.00989826 -3.70983e-17)
(0.751062 0.00975257 -2.41173e-17)
(0.752845 0.00960973 -2.38554e-17)
(0.754606 0.00946965 -1.39595e-17)
(0.756343 0.00933226 -1.52304e-17)
(0.758059 0.00919752 -3.51351e-18)
(0.522377 0.0264265 -5.26919e-16)
(0.527045 0.0259109 -5.12406e-16)
(0.531635 0.025406 -5.09982e-16)
(0.536148 0.0249117 -4.93167e-16)
(0.540587 0.0244279 -4.78028e-16)
(0.544951 0.0239546 -4.76353e-16)
(0.549244 0.0234915 -4.57449e-16)
(0.553465 0.0230386 -4.54568e-16)
(0.557618 0.0225956 -4.35681e-16)
(0.561702 0.0221625 -4.3532e-16)
(0.565719 0.021739 -4.17539e-16)
(0.56967 0.021325 -4.1976e-16)
(0.573557 0.0209203 -4.04768e-16)
(0.577381 0.0205247 -4.00411e-16)
(0.581143 0.0201381 -3.84859e-16)
(0.584845 0.0197602 -3.83409e-16)
(0.588487 0.0193909 -3.66097e-16)
(0.59207 0.01903 -3.62301e-16)
(0.595597 0.0186774 -3.442e-16)
(0.599067 0.0183327 -3.44989e-16)
(0.602482 0.017996 -3.31322e-16)
(0.605844 0.0176669 -3.28005e-16)
(0.609152 0.0173453 -3.06025e-16)
(0.612409 0.017031 -3.06771e-16)
(0.615615 0.0167239 -2.91398e-16)
(0.618771 0.0164238 -2.90807e-16)
(0.621878 0.0161304 -2.75506e-16)
(0.624937 0.0158438 -2.78883e-16)
(0.627949 0.0155636 -2.61825e-16)
(0.630915 0.0152898 -2.50008e-16)
(0.633836 0.0150221 -2.49843e-16)
(0.636712 0.0147604 -2.32556e-16)
(0.639545 0.0145046 -2.31725e-16)
(0.642336 0.0142546 -2.14567e-16)
(0.645084 0.0140101 -2.15468e-16)
(0.647792 0.0137711 -2.01652e-16)
(0.650459 0.0135373 -2.09297e-16)
(0.653086 0.0133088 -1.93957e-16)
(0.655675 0.0130852 -1.93654e-16)
(0.658226 0.0128666 -1.76414e-16)
(0.66074 0.0126528 -1.81905e-16)
(0.663217 0.0124436 -1.66157e-16)
(0.665658 0.012239 -1.66981e-16)
(0.668064 0.0120387 -1.47957e-16)
(0.670435 0.0118429 -1.52334e-16)
(0.672773 0.0116512 -1.39354e-16)
(0.675077 0.0114636 -1.39205e-16)
(0.677348 0.01128 -1.19071e-16)
(0.679588 0.0111003 -1.21578e-16)
(0.681795 0.0109243 -1.04938e-16)
(0.683972 0.0107521 -1.07202e-16)
(0.686119 0.0105835 -9.1888e-17)
(0.688235 0.0104184 -1.00233e-16)
(0.690323 0.0102567 -8.35667e-17)
(0.692382 0.0100983 -7.3294e-17)
(0.694412 0.00994315 -7.65232e-17)
(0.696415 0.00979119 -6.20975e-17)
(0.69839 0.00964231 -6.47852e-17)
(0.700339 0.00949643 -5.16909e-17)
(0.702261 0.00935349 -5.47139e-17)
(0.704157 0.0092134 -3.94678e-17)
(0.706028 0.0090761 -4.72493e-17)
(0.707875 0.0089415 -3.35933e-17)
(0.709696 0.00880956 -3.80566e-17)
(0.711494 0.00868019 -2.43257e-17)
(0.713267 0.00855334 -2.66225e-17)
(0.715018 0.00842894 -1.46514e-17)
(0.474349 0.0242741 -4.98007e-16)
(0.479214 0.0237963 -4.87166e-16)
(0.483995 0.0233285 -4.89962e-16)
(0.488694 0.0228706 -4.70572e-16)
(0.493311 0.0224225 -4.55804e-16)
(0.49785 0.0219842 -4.5078e-16)
(0.50231 0.0215554 -4.35872e-16)
(0.506695 0.021136 -4.2965e-16)
(0.511005 0.020726 -4.15882e-16)
(0.515241 0.0203251 -4.11973e-16)
(0.519406 0.0199332 -3.9778e-16)
(0.5235 0.0195501 -4.06619e-16)
(0.527525 0.0191757 -3.89182e-16)
(0.531483 0.0188098 -3.80024e-16)
(0.535374 0.0184523 -3.68295e-16)
(0.539201 0.0181029 -3.74666e-16)
(0.542963 0.0177616 -3.52117e-16)
(0.546664 0.017428 -3.43858e-16)
(0.550303 0.0171022 -3.31093e-16)
(0.553883 0.0167838 -3.37971e-16)
(0.557404 0.0164727 -3.18123e-16)
(0.560867 0.0161688 -3.11422e-16)
(0.564274 0.0158718 -2.95736e-16)
(0.567626 0.0155817 -2.92602e-16)
(0.570924 0.0152982 -2.81119e-16)
(0.574169 0.0150213 -2.7752e-16)
(0.577362 0.0147507 -2.65047e-16)
(0.580504 0.0144862 -2.77413e-16)
(0.583597 0.0142278 -2.54215e-16)
(0.58664 0.0139753 -2.43336e-16)
(0.589636 0.0137285 -2.38652e-16)
(0.592584 0.0134874 -2.25413e-16)
(0.595487 0.0132516 -2.20598e-16)
(0.598345 0.0130212 -2.09903e-16)
(0.601158 0.012796 -2.05934e-16)
(0.603929 0.0125758 -1.98211e-16)
(0.606656 0.0123606 -2.13439e-16)
(0.609343 0.0121501 -1.91732e-16)
(0.611988 0.0119444 -1.85949e-16)
(0.614594 0.0117432 -1.73949e-16)
(0.61716 0.0115464 -1.85681e-16)
(0.619688 0.0113539 -1.66172e-16)
(0.622178 0.0111657 -1.60832e-16)
(0.624631 0.0109816 -1.48174e-16)
(0.627048 0.0108014 -1.59232e-16)
(0.629429 0.0106252 -1.40508e-16)
(0.631776 0.0104528 -1.34618e-16)
(0.634088 0.010284 -1.19706e-16)
(0.636367 0.0101189 -1.18969e-16)
(0.638613 0.00995726 -1.07034e-16)
(0.640826 0.00979906 -1.04834e-16)
(0.643008 0.00964419 -9.35265e-17)
(0.645159 0.00949256 -1.08164e-16)
(0.647279 0.00934411 -8.88787e-17)
(0.649369 0.00919873 -7.69808e-17)
(0.65143 0.00905636 -7.50945e-17)
(0.653462 0.00891691 -6.49262e-17)
(0.655465 0.00878032 -6.46356e-17)
(0.657441 0.00864651 -5.66055e-17)
(0.659389 0.00851541 -5.3855e-17)
(0.661311 0.00838694 -4.35413e-17)
(0.663206 0.00826105 -5.96842e-17)
(0.665076 0.00813767 -4.21334e-17)
(0.666919 0.00801674 -4.05868e-17)
(0.668738 0.00789818 -2.96754e-17)
(0.670533 0.00778195 -3.86839e-17)
(0.672303 0.00766799 -2.3414e-17)
(0.428606 0.0221083 -4.68766e-16)
(0.433615 0.0216694 -4.60164e-16)
(0.438535 0.0212398 -4.63844e-16)
(0.443367 0.0208194 -4.44975e-16)
(0.448114 0.020408 -4.31655e-16)
(0.452777 0.0200056 -4.23952e-16)
(0.457358 0.019612 -4.11835e-16)
(0.461858 0.0192271 -4.04786e-16)
(0.466279 0.0188509 -3.94003e-16)
(0.470623 0.0184831 -3.88222e-16)
(0.474891 0.0181236 -3.76292e-16)
(0.479084 0.0177723 -3.87099e-16)
(0.483205 0.017429 -3.69622e-16)
(0.487255 0.0170936 -3.59162e-16)
(0.491235 0.0167659 -3.49883e-16)
(0.495146 0.0164457 -3.57175e-16)
(0.498991 0.0161329 -3.36311e-16)
(0.50277 0.0158274 -3.2594e-16)
(0.506484 0.0155289 -3.15616e-16)
(0.510136 0.0152373 -3.23816e-16)
(0.513727 0.0149525 -3.03362e-16)
(0.517257 0.0146743 -2.95621e-16)
(0.520728 0.0144025 -2.82268e-16)
(0.524141 0.014137 -2.77183e-16)
(0.527498 0.0138776 -2.67547e-16)
(0.5308 0.0136243 -2.6163e-16)
(0.534047 0.0133768 -2.53994e-16)
(0.537241 0.013135 -2.66161e-16)
(0.540382 0.0128987 -2.43614e-16)
(0.543473 0.0126679 -2.32226e-16)
(0.546514 0.0124424 -2.25805e-16)
(0.549506 0.012222 -2.15293e-16)
(0.552451 0.0120066 -2.10264e-16)
(0.555348 0.0117962 -2.01694e-16)
(0.558199 0.0115905 -1.97765e-16)
(0.561006 0.0113895 -1.91242e-16)
(0.563768 0.011193 -2.05267e-16)
(0.566487 0.0110009 -1.86994e-16)
)
;

boundaryField
{
    inlet
    {
        type            uniformFixedValue;
        uniformValue    constant (1 0 0);
        value           nonuniform 0();
    }
    outlet
    {
        type            pressureInletOutletVelocity;
        value           nonuniform 0();
    }
    wall
    {
        type            fixedValue;
        value           nonuniform 0();
    }
    wedge1
    {
        type            wedge;
    }
    wedge2
    {
        type            wedge;
    }
    axis
    {
        type            empty;
    }
    procBoundary28to22
    {
        type            processor;
        value           nonuniform List<vector> 
68
(
(0.81908 0.0204346 -2.50302e-16)
(0.821417 0.0200905 -2.36422e-16)
(0.823726 0.0197539 -2.28313e-16)
(0.826007 0.0194246 -2.16804e-16)
(0.828259 0.0191023 -2.08226e-16)
(0.830484 0.018787 -1.94079e-16)
(0.832682 0.0184785 -1.93037e-16)
(0.834853 0.0181765 -1.86033e-16)
(0.836997 0.017881 -1.75652e-16)
(0.839116 0.0175917 -1.61783e-16)
(0.841208 0.0173086 -1.54101e-16)
(0.843275 0.0170314 -1.49131e-16)
(0.845318 0.0167601 -1.38823e-16)
(0.847335 0.0164945 -1.25798e-16)
(0.849329 0.0162343 -1.18488e-16)
(0.851298 0.0159796 -1.17135e-16)
(0.853244 0.0157302 -1.04661e-16)
(0.855166 0.0154859 -8.89635e-17)
(0.857066 0.0152465 -8.18126e-17)
(0.858943 0.0150121 -7.41674e-17)
(0.860798 0.0147825 -6.9391e-17)
(0.86263 0.0145575 -6.07987e-17)
(0.864441 0.014337 -5.97276e-17)
(0.866231 0.0141209 -5.32064e-17)
(0.868 0.0139092 -4.35268e-17)
(0.869748 0.0137016 -3.3525e-17)
(0.871475 0.0134982 -2.18113e-17)
(0.873182 0.0132987 -1.95761e-17)
(0.874869 0.0131032 -9.45445e-18)
(0.876537 0.0129115 -9.13775e-18)
(0.878185 0.0127234 3.48384e-18)
(0.879814 0.012539 6.87005e-18)
(0.881424 0.0123581 8.15758e-18)
(0.883016 0.0121807 1.74735e-17)
(0.884589 0.0120066 2.8765e-17)
(0.886145 0.0118358 3.46701e-17)
(0.887682 0.0116682 3.54265e-17)
(0.889202 0.0115038 4.46313e-17)
(0.679873 0.0326324 -5.88533e-16)
(0.683646 0.0320136 -5.73102e-16)
(0.687366 0.0314075 -5.64845e-16)
(0.691032 0.0308139 -5.4777e-16)
(0.694647 0.0302327 -5.32386e-16)
(0.698211 0.0296638 -5.23523e-16)
(0.701725 0.0291069 -5.07623e-16)
(0.705189 0.028562 -4.98716e-16)
(0.708605 0.0280288 -4.82082e-16)
(0.711973 0.0275072 -4.7545e-16)
(0.715294 0.0269969 -4.5941e-16)
(0.718569 0.0264977 -4.55729e-16)
(0.721798 0.0260095 -4.38403e-16)
(0.724982 0.0255321 -4.32181e-16)
(0.728123 0.0250652 -4.13993e-16)
(0.73122 0.0246086 -4.05901e-16)
(0.734274 0.0241621 -3.91861e-16)
(0.737286 0.0237255 -3.8342e-16)
(0.740258 0.0232986 -3.66587e-16)
(0.743188 0.0228811 -3.60305e-16)
(0.746079 0.022473 -3.46818e-16)
(0.74893 0.0220739 -3.39755e-16)
(0.751742 0.0216836 -3.20763e-16)
(0.754517 0.0213021 -3.16997e-16)
(0.757254 0.0209289 -3.00425e-16)
(0.759954 0.0205641 -2.97527e-16)
(0.762618 0.0202073 -2.84507e-16)
(0.765246 0.0198583 -2.83053e-16)
(0.767839 0.0195171 -2.68055e-16)
(0.767839 0.0195171 -2.68055e-16)
)
;
    }
    procBoundary28to23
    {
        type            processor;
        value           uniform (0.846728 0.0105875 2.49775e-17);
    }
    procBoundary28to27
    {
        type            processor;
        value           nonuniform List<vector> 4((0.620999 0.0312209 -5.78056e-16) (0.568176 0.0291116 -5.55721e-16) (0.517629 0.0269529 -5.30892e-16) (0.469398 0.0247619 -5.04665e-16));
    }
    procBoundary28to29
    {
        type            processor;
        value           nonuniform List<vector> 4((0.803078 0.00982701 1.08391e-17) (0.759752 0.00906534 -3.04328e-18) (0.716745 0.00830693 -1.47853e-17) (0.67405 0.00755623 -1.86775e-17));
    }
    procBoundary28to33
    {
        type            processor;
        value           uniform (0.423506 0.0225564 -4.76815e-16);
    }
    procBoundary28to34
    {
        type            processor;
        value           nonuniform List<vector> 
68
(
(0.569164 0.0108131 -1.77306e-16)
(0.571799 0.0106295 -1.68506e-16)
(0.574393 0.01045 -1.81236e-16)
(0.576948 0.0102744 -1.64077e-16)
(0.579464 0.0101028 -1.54603e-16)
(0.581941 0.00993489 -1.44337e-16)
(0.584381 0.00977067 -1.5717e-16)
(0.586785 0.00961004 -1.38036e-16)
(0.589152 0.00945289 -1.28874e-16)
(0.591484 0.00929915 -1.18806e-16)
(0.593781 0.00914871 -1.14922e-16)
(0.596044 0.00900149 -1.06482e-16)
(0.598274 0.00885742 -1.03568e-16)
(0.600471 0.0087164 -9.419e-17)
(0.602637 0.00857836 -1.08117e-16)
(0.60477 0.00844323 -8.94973e-17)
(0.606873 0.00831092 -7.89144e-17)
(0.608946 0.00818137 -7.29676e-17)
(0.610989 0.0080545 -6.67006e-17)
(0.613003 0.00793025 -6.47314e-17)
(0.614988 0.00780854 -5.70968e-17)
(0.616946 0.00768932 -5.45153e-17)
(0.618876 0.00757252 -4.60148e-17)
(0.620778 0.00745807 -6.2678e-17)
(0.622655 0.00734592 -4.6062e-17)
(0.624505 0.00723602 -4.09785e-17)
(0.626329 0.00712829 -3.308e-17)
(0.628129 0.00702269 -4.37044e-17)
(0.629904 0.00691916 -2.67601e-17)
(0.385159 0.0199466 -4.39486e-16)
(0.390257 0.0195475 -4.32778e-16)
(0.395262 0.0191567 -4.31112e-16)
(0.400176 0.0187744 -4.17144e-16)
(0.405001 0.0184004 -4.04916e-16)
(0.409738 0.0180345 -3.97528e-16)
(0.41439 0.0176768 -3.87562e-16)
(0.418957 0.017327 -3.80794e-16)
(0.423443 0.0169852 -3.71732e-16)
(0.427848 0.016651 -3.65142e-16)
(0.432174 0.0163245 -3.54982e-16)
(0.436422 0.0160054 -3.59954e-16)
(0.440596 0.0156937 -3.47551e-16)
(0.444695 0.0153892 -3.38688e-16)
(0.448722 0.0150917 -3.29197e-16)
(0.452678 0.0148011 -3.31614e-16)
(0.456564 0.0145173 -3.17627e-16)
(0.460383 0.01424 -3.0637e-16)
(0.464135 0.0139693 -2.98539e-16)
(0.467822 0.0137048 -3.00871e-16)
(0.471445 0.0134466 -2.86941e-16)
(0.475006 0.0131943 -2.79283e-16)
(0.478507 0.012948 -2.67845e-16)
(0.481947 0.0127074 -2.63841e-16)
(0.485329 0.0124724 -2.5443e-16)
(0.488654 0.0122428 -2.48608e-16)
(0.491923 0.0120186 -2.41005e-16)
(0.495137 0.0117996 -2.46895e-16)
(0.498297 0.0115857 -2.31123e-16)
(0.501405 0.0113768 -2.21625e-16)
(0.504462 0.0111726 -2.13101e-16)
(0.507468 0.0109732 -2.02949e-16)
(0.510425 0.0107783 -1.98778e-16)
(0.513334 0.010588 -1.92695e-16)
(0.516196 0.0104019 -1.87404e-16)
(0.519011 0.0102201 -1.81913e-16)
(0.521781 0.0100424 -1.89435e-16)
(0.569164 0.0108131 -1.77306e-16)
(0.524507 0.00986878 -1.76722e-16)
)
;
    }
}


// ************************************************************************* //
