/*--------------------------------*- C++ -*----------------------------------*\
  =========                 |
  \\      /  F ield         | OpenFOAM: The Open Source CFD Toolbox
   \\    /   O peration     | Website:  https://openfoam.org
    \\  /    A nd           | Version:  7
     \\/     M anipulation  |
\*---------------------------------------------------------------------------*/
FoamFile
{
    version     2.0;
    format      ascii;
    class       volScalarField;
    location    "3.3";
    object      T;
}
// * * * * * * * * * * * * * * * * * * * * * * * * * * * * * * * * * * * * * //

dimensions      [0 0 0 1 0 0 0];

internalField   nonuniform List<scalar> 
100800
(
1
1
1
1
1
1
1
1
1
1
1
1
1
1
1
1
1
1
1
1
1
1
1
1
1
1
1
1
1
1
1
1
1
1
1
1
1
1
1
1
1
1
1
1
1
1
1
1
1
1
1
1
1
1
1
1
1
1
1
1
1
1.81312
2.63597
2.6988
2.69872
2.69987
2.70126
2.7028
2.70452
2.707
2.71071
2.71579
2.72167
2.72739
2.73229
2.73602
2.73824
2.73936
2.73991
2.74042
2.74164
2.74442
2.74885
2.7539
2.75824
2.76105
2.76236
2.763
2.76374
2.76512
2.76749
2.77071
2.77412
2.77704
2.77924
2.78085
2.78214
2.78333
2.78461
2.78616
2.78798
2.78998
2.79201
2.79389
2.79546
2.79671
2.79776
2.79875
2.79972
2.80058
2.80115
2.80142
2.80161
2.80211
2.80318
2.80491
2.80719
2.80945
2.81112
2.81201
1
1
1
1
1
1
1
1
1
1
1
1
1
1
1
1
1
1
1
1
1
1
1
1
1
1
1
1
1
1
1
1
1
1
1
1
1
1
1
1
1
1
1
1
1
1
1
1
1
1
1
1
1
1
1
1
1
1
1
1
1
1.80882
2.63282
2.69914
2.69896
2.70023
2.70145
2.7029
2.70452
2.70689
2.71058
2.7157
2.72166
2.72746
2.73235
2.73598
2.73816
2.73921
2.73972
2.74029
2.74161
2.74444
2.74884
2.75385
2.75819
2.76101
2.76231
2.76294
2.76364
2.765
2.76738
2.77063
2.77404
2.77693
2.77906
2.78062
2.78192
2.78319
2.78459
2.78623
2.78808
2.79002
2.79193
2.7937
2.79524
2.79652
2.79763
2.79866
2.79963
2.80046
2.80101
2.80129
2.8015
2.80202
2.80309
2.8048
2.80706
2.80931
2.81097
2.81184
1
1
1
1
1
1
1
1
1
1
1
1
1
1
1
1
1
1
1
1
1
1
1
1
1
1
1
1
1
1
1
1
1
1
1
1
1
1
1
1
1
1
1
1
1
1
1
1
1
1
1
1
1
1
1
1
1
1
1
1
1
1.79689
2.62816
2.69871
2.69872
2.7004
2.70169
2.70297
2.70447
2.70667
2.71022
2.71531
2.72133
2.72725
2.73223
2.73592
2.73807
2.73903
2.73947
2.74008
2.74147
2.74433
2.74871
2.75368
2.75805
2.76089
2.7622
2.76282
2.76346
2.76478
2.76715
2.77043
2.77387
2.77675
2.77882
2.78031
2.78158
2.78292
2.78447
2.78626
2.78818
2.79008
2.79185
2.79347
2.79492
2.79622
2.7974
2.79848
2.79946
2.80025
2.80078
2.80106
2.80131
2.80187
2.80295
2.80464
2.80687
2.80908
2.81072
2.81159
1
1
1
1
1
1
1
1
1
1
1
1
1
1
1
1
1
1
1
1
1
1
1
1
1
1
1
1
1
1
1
1
1
1
1
1
1
1
1
1
1
1
1
1
1
1
1
1
1
1
1
1
1
1
1
1
1
1
1
1
1
1.77875
2.62162
2.69807
2.69839
2.70063
2.702
2.70317
2.70446
2.70642
2.70969
2.71461
2.72062
2.72667
2.73185
2.73569
2.73788
2.73877
2.73917
2.73981
2.74124
2.74407
2.7484
2.75334
2.75775
2.76066
2.76199
2.76261
2.76319
2.76445
2.76678
2.77006
2.77353
2.77642
2.77846
2.7799
2.78117
2.7826
2.78432
2.78627
2.78825
2.79008
2.7917
2.79314
2.79449
2.7958
2.79705
2.7982
2.79919
2.79996
2.80045
2.80074
2.80103
2.80163
2.80273
2.80441
2.8066
2.80875
2.81036
2.81119
1
1
1
1
1
1
1
1
1
1
1
1
1
1
1
1
1
1
1
1
1
1
1
1
1
1
1
1
1
1
1
1
1
1
1
1
1
1
1
1
1
1
1
1
1
1
1
1
1
1
1
1
1
1
1
1
1
1
1
1
1
1.75562
2.61427
2.69728
2.69782
2.70064
2.70207
2.70318
2.70435
2.70608
2.70902
2.71366
2.7196
2.72575
2.73116
2.73521
2.73754
2.73843
2.7388
2.73945
2.74086
2.74362
2.7479
2.75283
2.75731
2.7603
2.76166
2.76229
2.76281
2.76401
2.76628
2.76954
2.77302
2.77593
2.77799
2.77945
2.78074
2.78222
2.78407
2.78615
2.78818
2.78996
2.79145
2.79274
2.79399
2.79529
2.79659
2.7978
2.79883
2.79958
2.80006
2.80036
2.80068
2.80131
2.80244
2.80412
2.80625
2.80836
2.8099
2.81065
1
1
1
1
1
1
1
1
1
1
1
1
1
1
1
1
1
1
1
1
1
1
1
1
1
1
1
1
1
1
1
1
1
1
1
1
1
1
1
1
1
1
1
1
1
1
1
1
1
1
1
1
1
1
1
1
1
1
1
1
1
1.72411
2.60585
2.696
2.6971
2.70065
2.70213
2.70322
2.70424
2.70574
2.70834
2.71262
2.71839
2.72459
2.7302
2.73445
2.73697
2.73794
2.73833
2.73898
2.74036
2.74306
2.74729
2.75221
2.75671
2.75975
2.76113
2.76177
2.76228
2.76345
2.76567
2.76888
2.77232
2.77526
2.7774
2.77893
2.7803
2.78185
2.78375
2.78587
2.78793
2.78969
2.7911
2.7923
2.79346
2.79472
2.79603
2.79729
2.79835
2.79912
2.7996
2.79991
2.80026
2.80091
2.80207
2.80375
2.80584
2.80789
2.80933
2.80997
1
1
1
1
1
1
1
1
1
1
1
1
1
1
1
1
1
1
1
1
1
1
1
1
1
1
1
1
1
1
1
1
1
1
1
1
1
1
1
1
1
1
1
1
1
1
1
1
1
1
1
1
1
1
1
1
1
1
1
1
1
1.68221
2.59504
2.69367
2.69625
2.70053
2.70203
2.70313
2.70402
2.7053
2.70757
2.71147
2.71702
2.72326
2.72904
2.73345
2.73616
2.73727
2.73772
2.73838
2.73976
2.74243
2.74664
2.75152
2.756
2.75901
2.76037
2.76104
2.76157
2.76278
2.76499
2.76813
2.77151
2.77445
2.77666
2.77832
2.7798
2.78143
2.78335
2.78546
2.78748
2.78922
2.7906
2.79176
2.79287
2.79408
2.79538
2.79666
2.79775
2.79855
2.79904
2.79937
2.79974
2.80041
2.80161
2.80332
2.80536
2.80735
2.80867
2.80919
1
1
1
1
1
1
1
1
1
1
1
1
1
1
1
1
1
1
1
1
1
1
1
1
1
1
1
1
1
1
1
1
1
1
1
1
1
1
1
1
1
1
1
1
1
1
1
1
1
1
1
1
1
1
1
1
1
1
1
1
1
1.63303
2.58248
2.69075
2.69521
2.69995
2.70159
2.70276
2.70363
2.70481
2.70687
2.71046
2.71574
2.72193
2.72777
2.73227
2.7351
2.73637
2.7369
2.73759
2.739
2.7417
2.74591
2.75074
2.75513
2.75807
2.75938
2.76009
2.7607
2.762
2.76424
2.76734
2.77062
2.77353
2.77582
2.77762
2.77923
2.78094
2.78286
2.7849
2.78686
2.78856
2.78994
2.79109
2.79219
2.79336
2.79463
2.79591
2.79704
2.79787
2.79839
2.79874
2.79913
2.79982
2.80107
2.80282
2.80482
2.80673
2.80793
2.80835
1
1
1
1
1
1
1
1
1
1
1
1
1
1
1
1
1
1
1
1
1
1
1
1
1
1
1
1
1
1
1
1
1
1
1
1
1
1
1
1
1
1
1
1
1
1
1
1
1
1
1
1
1
1
1
1
1
1
1
1
1
1.57975
2.56774
2.6877
2.69371
2.69884
2.70085
2.70222
2.70319
2.70437
2.70632
2.70966
2.71466
2.7207
2.7265
2.73101
2.73387
2.73528
2.73589
2.73666
2.73819
2.74098
2.74518
2.74993
2.75416
2.75698
2.75825
2.75901
2.75972
2.76115
2.76345
2.7665
2.76969
2.77256
2.7749
2.77681
2.77854
2.78031
2.78221
2.78418
2.78606
2.78773
2.78913
2.79032
2.79143
2.79258
2.79383
2.7951
2.79622
2.79707
2.79762
2.79799
2.79841
2.79913
2.80043
2.8022
2.80416
2.80598
2.80707
2.8074
1
1
1
1
1
1
1
1
1
1
1
1
1
1
1
1
1
1
1
1
1
1
1
1
1
1
1
1
1
1
1
1
1
1
1
1
1
1
1
1
1
1
1
1
1
1
1
1
1
1
1
1
1
1
1
1
1
1
1
1
1
1.52125
2.5496
2.68493
2.69184
2.69757
2.70003
2.70167
2.70282
2.70405
2.70593
2.70905
2.71373
2.71952
2.7252
2.72967
2.73255
2.73408
2.73481
2.73569
2.73735
2.7402
2.74436
2.74897
2.753
2.75572
2.75702
2.75788
2.75873
2.76029
2.76263
2.76562
2.76872
2.77154
2.77391
2.77591
2.77773
2.77954
2.78141
2.7833
2.78513
2.78678
2.7882
2.78943
2.79056
2.79172
2.79295
2.79419
2.79531
2.79616
2.79673
2.79713
2.79759
2.79834
2.79969
2.80148
2.8034
2.80514
2.80612
2.80639
1
1
1
1
1
1
1
1
1
1
1
1
1
1
1
1
1
1
1
1
1
1
1
1
1
1
1
1
1
1
1
1
1
1
1
1
1
1
1
1
1
1
1
1
1
1
1
1
1
1
1
1
1
1
1
1
1
1
1
1
1
1.45636
2.52716
2.6831
2.68993
2.69632
2.69917
2.70108
2.70241
2.70373
2.70557
2.70849
2.71282
2.71828
2.72378
2.72822
2.73115
2.73282
2.73371
2.7347
2.73646
2.73932
2.74334
2.74776
2.75158
2.75426
2.75568
2.75673
2.75776
2.75943
2.76177
2.76466
2.76764
2.77041
2.77283
2.77491
2.7768
2.77861
2.78044
2.78227
2.78405
2.7857
2.78716
2.78843
2.7896
2.79076
2.79198
2.7932
2.7943
2.79515
2.79572
2.79615
2.79665
2.79746
2.79884
2.80063
2.80251
2.80418
2.80508
2.80532
1
1
1
1
1
1
1
1
1
1
1
1
1
1
1
1
1
1
1
1
1
1
1
1
1
1
1
1
1
1
1
1
1
1
1
1
1
1
1
1
1
1
1
1
1
1
1
1
1
1
1
1
1
1
1
1
1
1
1
1
1
1.38384
2.49902
2.6824
2.68836
2.69501
2.69819
2.70041
2.70196
2.7034
2.70518
2.70786
2.71178
2.71682
2.72211
2.72659
2.7297
2.73159
2.73269
2.73378
2.73557
2.73833
2.7421
2.74626
2.7499
2.75263
2.75428
2.75558
2.75683
2.75859
2.76087
2.76361
2.76644
2.76916
2.77162
2.77379
2.77573
2.77754
2.77931
2.78107
2.78282
2.78449
2.78601
2.78734
2.78855
2.78972
2.79092
2.79211
2.79318
2.79401
2.79459
2.79505
2.79561
2.79647
2.79786
2.79964
2.80148
2.80311
2.80397
2.8042
1
1
1
1
1
1
1
1
1
1
1
1
1
1
1
1
1
1
1
1
1
1
1
1
1
1
1
1
1
1
1
1
1
1
1
1
1
1
1
1
1
1
1
1
1
1
1
1
1
1
1
1
1
1
1
1
1
1
1
1
1
1.30655
2.46495
2.6825
2.68745
2.6936
2.69687
2.69936
2.70118
2.70277
2.70456
2.70706
2.71069
2.7154
2.72049
2.72496
2.72822
2.7303
2.73162
2.73281
2.73459
2.73721
2.74071
2.74464
2.74813
2.75091
2.75279
2.75436
2.75583
2.75768
2.7599
2.76247
2.76514
2.76777
2.77025
2.77251
2.77452
2.77633
2.77804
2.77973
2.78144
2.78314
2.78473
2.78614
2.78739
2.78857
2.78974
2.79089
2.79193
2.79275
2.79335
2.79385
2.79445
2.79535
2.79674
2.79849
2.80032
2.80192
2.80278
2.80304
1
1
1
1
1
1
1
1
1
1
1
1
1
1
1
1
1
1
1
1
1
1
1
1
1
1
1
1
1
1
1
1
1
1
1
1
1
1
1
1
1
1
1
1
1
1
1
1
1
1
1
1
1
1
1
1
1
1
1
1
1
1.22327
2.42175
2.68189
2.68687
2.69201
2.69521
2.69792
2.70004
2.70189
2.70384
2.70632
2.70972
2.71406
2.71882
2.72319
2.72656
2.72887
2.73045
2.7318
2.73362
2.73615
2.73938
2.74303
2.74631
2.74908
2.75114
2.75296
2.75469
2.75668
2.7589
2.76132
2.76379
2.76627
2.76872
2.77104
2.77314
2.77499
2.77666
2.77828
2.77994
2.78164
2.78329
2.78479
2.7861
2.78729
2.78844
2.78956
2.79057
2.79139
2.792
2.79254
2.79317
2.79408
2.79545
2.79717
2.79899
2.80061
2.8015
2.80181
1
1
1
1
1
1
1
1
1
1
1
1
1
1
1
1
1
1
1
1
1
1
1
1
1
1
1
1
1
1
1
1
1
1
1
1
1
1
1
1
1
1
1
1
1
1
1
1
1
1
1
1
1
1
1
1
1
1
1
1
1
1.13957
2.37393
2.68073
2.68615
2.69021
2.6933
2.69611
2.69853
2.70074
2.70302
2.70568
2.70898
2.71297
2.71732
2.72145
2.72481
2.7273
2.72917
2.73076
2.73265
2.73508
2.73805
2.74141
2.74449
2.74724
2.74944
2.75145
2.75342
2.75555
2.75778
2.76007
2.76236
2.76467
2.76705
2.76941
2.77161
2.77353
2.7752
2.77675
2.77832
2.77999
2.78168
2.78326
2.78466
2.78588
2.78702
2.78811
2.7891
2.78991
2.79054
2.7911
2.79175
2.79265
2.79398
2.79569
2.79752
2.79918
2.80012
2.80049
1
1
1
1
1
1
1
1
1
1
1
1
1
1
1
1
1
1
1
1
1
1
1
1
1
1
1
1
1
1
1
1
1
1
1
1
1
1
1
1
1
1
1
1
1
1
1
1
1
1
1
1
1
1
1
1
1
1
1
1
1
1.05205
2.3255
2.68147
2.68611
2.68929
2.6923
2.69504
2.69756
2.70003
2.70261
2.70543
2.70862
2.71224
2.7161
2.71985
2.72308
2.72566
2.72775
2.72959
2.73156
2.73395
2.73672
2.73984
2.74276
2.74544
2.74771
2.74982
2.75194
2.75417
2.75645
2.75869
2.76086
2.76305
2.76534
2.76768
2.76993
2.77191
2.7736
2.7751
2.7766
2.77822
2.77993
2.78158
2.78305
2.78433
2.78548
2.78655
2.78752
2.78831
2.78895
2.78952
2.79018
2.79104
2.79235
2.79405
2.79589
2.7976
2.79861
2.79903
1
1
1
1
1
1
1
1
1
1
1
1
1
1
1
1
1
1
1
1
1
1
1
1
1
1
1
1
1
1
1
1
1
1
1
1
1
1
1
1
1
1
1
1
1
1
1
1
1
1
1
1
1
1
1
1
1
1
1
1
1
1.00186
2.27263
2.67974
2.6848
2.68791
2.69101
2.69378
2.69652
2.69921
2.70206
2.70514
2.7084
2.71176
2.71518
2.71849
2.72147
2.72405
2.72632
2.72838
2.73047
2.73283
2.73544
2.73833
2.74109
2.74368
2.74598
2.74811
2.75031
2.75259
2.75492
2.75715
2.75927
2.76136
2.76356
2.76585
2.76811
2.77015
2.77188
2.77337
2.7748
2.77635
2.77803
2.77972
2.78126
2.78261
2.78379
2.78487
2.78582
2.7866
2.78722
2.78779
2.78842
2.78926
2.79056
2.79226
2.7941
2.79588
2.79696
2.79742
1
1
1
1
1
1
1
1
1
1
1
1
1
1
1
1
1
1
1
1
1
1
1
1
1
1
1
1
1
1
1
1
1
1
1
1
1
1
1
1
1
1
1
1
1
1
1
1
1
1
1
1
1
1
1
1
1
1
1
1
1
1.00001
2.20125
2.67684
2.68494
2.68816
2.69136
2.69396
2.69661
2.69937
2.70225
2.70532
2.70848
2.71157
2.71458
2.71753
2.72029
2.72286
2.72523
2.72743
2.72955
2.73181
2.7342
2.73683
2.73942
2.74192
2.74426
2.74642
2.74864
2.7509
2.75322
2.75543
2.75753
2.75958
2.76172
2.76397
2.76622
2.76827
2.77002
2.7715
2.77289
2.77437
2.776
2.7777
2.7793
2.78073
2.78197
2.78307
2.78401
2.78475
2.78533
2.78585
2.78647
2.78729
2.7886
2.7903
2.79217
2.794
2.79513
2.7956
1
1
1
1
1
1
1
1
1
1
1
1
1
1
1
1
1
1
1
1
1
1
1
1
1
1
1
1
1
1
1
1
1
1
1
1
1
1
1
1
1
1
1
1
1
1
1
1
1
1
1
1
1
1
1
1
1
1
1
1
1
1
2.11196
2.66882
2.68417
2.6875
2.69113
2.69383
2.69648
2.69929
2.70232
2.7055
2.70865
2.71157
2.71422
2.71682
2.71935
2.72186
2.72432
2.72667
2.72885
2.73101
2.73316
2.73546
2.73781
2.74019
2.74254
2.74474
2.74696
2.74915
2.7514
2.75355
2.75563
2.75767
2.7598
2.76201
2.76423
2.76627
2.76802
2.76949
2.77084
2.77227
2.77386
2.77555
2.77719
2.77869
2.78001
2.78114
2.78206
2.78274
2.78324
2.78371
2.78431
2.78515
2.78647
2.7882
2.79008
2.79195
2.79311
2.79358
1
1
1
1
1
1
1
1
1
1
1
1
1
1
1
1
1
1
1
1
1
1
1
1
1
1
1
1
1
1
1
1
1
1
1
1
1
1
1
1
1
1
1
1
1
1
1
1
1
1
1
1
1
1
1
1
1
1
1
1
1
1
2.00707
2.65153
2.68057
2.68548
2.69002
2.69333
2.69629
2.69932
2.70233
2.70535
2.70841
2.71129
2.71377
2.71618
2.71858
2.72108
2.72363
2.72611
2.72839
2.73046
2.73236
2.73428
2.73631
2.73848
2.74082
2.74309
2.74534
2.74746
2.74959
2.75162
2.75361
2.75563
2.75775
2.75996
2.76215
2.76416
2.76588
2.76733
2.76866
2.77003
2.77158
2.77325
2.77494
2.77651
2.77789
2.77906
2.77995
2.78055
2.78095
2.78136
2.78195
2.78283
2.78418
2.78592
2.78782
2.78969
2.79086
2.7913
1
1
1
1
1
1
1
1
1
1
1
1
1
1
1
1
1
1
1
1
1
1
1
1
1
1
1
1
1
1
1
1
1
1
1
1
1
1
1
1
1
1
1
1
1
1
1
1
1
1
1
1
1
1
1
1
1
1
1
1
1
1
1.89021
2.62541
2.67416
2.68174
2.68741
2.69142
2.69472
2.69792
2.70111
2.7042
2.70731
2.71034
2.71294
2.71534
2.71776
2.72025
2.72289
2.72554
2.72796
2.73005
2.73178
2.73335
2.73504
2.73694
2.73919
2.74151
2.74378
2.74584
2.74782
2.74968
2.75154
2.75348
2.75558
2.75778
2.75994
2.76191
2.76359
2.76501
2.76631
2.76765
2.76916
2.77082
2.77254
2.77418
2.77562
2.77679
2.77763
2.77813
2.77843
2.77879
2.77939
2.78033
2.78173
2.78347
2.78536
2.78723
2.78838
2.7888
1
1
1
1
1
1
1
1
1
1
1
1
1
1
1
1
1
1
1
1
1
1
1
1
1
1
1
1
1
1
1
1
1
1
1
1
1
1
1
1
1
1
1
1
1
1
1
1
1
1
1
1
1
1
1
1
1
1
1
1
1
1
1.75805
2.59272
2.6668
2.67666
2.68346
2.68796
2.69136
2.69447
2.69779
2.70113
2.7046
2.70807
2.71116
2.71393
2.71659
2.71918
2.72186
2.72461
2.7272
2.72939
2.73108
2.73248
2.73392
2.73558
2.73769
2.74003
2.74232
2.74433
2.74615
2.74783
2.7495
2.7513
2.75332
2.75547
2.7576
2.75953
2.76116
2.76255
2.76381
2.76512
2.76659
2.76825
2.77001
2.7717
2.77318
2.77433
2.77509
2.77548
2.77569
2.77601
2.77665
2.77765
2.77908
2.7808
2.78266
2.7845
2.78562
2.78601
1
1
1
1
1
1
1
1
1
1
1
1
1
1
1
1
1
1
1
1
1
1
1
1
1
1
1
1
1
1
1
1
1
1
1
1
1
1
1
1
1
1
1
1
1
1
1
1
1
1
1
1
1
1
1
1
1
1
1
1
1
1
1.61205
2.55242
2.66302
2.6702
2.67718
2.68191
2.68555
2.68884
2.69238
2.69601
2.69995
2.70409
2.70799
2.71137
2.71451
2.71741
2.72025
2.72313
2.7259
2.72831
2.73013
2.73149
2.73278
2.73429
2.73625
2.7386
2.74092
2.7429
2.74457
2.74606
2.74752
2.74913
2.751
2.75306
2.75513
2.75701
2.7586
2.75994
2.76117
2.76243
2.76387
2.76553
2.76731
2.76903
2.77052
2.77162
2.77228
2.77257
2.77272
2.77303
2.77371
2.77476
2.77619
2.77789
2.7797
2.78152
2.78262
2.78297
1
1
1
1
1
1
1
1
1
1
1
1
1
1
1
1
1
1
1
1
1
1
1
1
1
1
1
1
1
1
1
1
1
1
1
1
1
1
1
1
1
1
1
1
1
1
1
1
1
1
1
1
1
1
1
1
1
1
1
1
1
1
1.44136
2.4947
2.66121
2.6657
2.67158
2.6762
2.67986
2.683
2.68621
2.68978
2.69394
2.69863
2.70333
2.70741
2.71108
2.71437
2.71754
2.72071
2.72378
2.72651
2.72864
2.73017
2.73145
2.73291
2.73476
2.73709
2.73947
2.74146
2.74303
2.74436
2.74559
2.74697
2.74865
2.75057
2.75254
2.75436
2.75592
2.75722
2.7584
2.75961
2.76101
2.76264
2.76442
2.76615
2.76762
2.76865
2.76922
2.76944
2.76955
2.76987
2.77059
2.77164
2.77304
2.77468
2.77644
2.77823
2.77929
2.77959
1
1
1
1
1
1
1
1
1
1
1
1
1
1
1
1
1
1
1
1
1
1
1
1
1
1
1
1
1
1
1
1
1
1
1
1
1
1
1
1
1
1
1
1
1
1
1
1
1
1
1
1
1
1
1
1
1
1
1
1
1
1
1.25545
2.42673
2.66476
2.66234
2.66652
2.67088
2.67465
2.67778
2.6807
2.68395
2.68785
2.69259
2.6976
2.70221
2.70638
2.71008
2.7136
2.71714
2.72061
2.72374
2.72628
2.72815
2.72963
2.73117
2.73308
2.73544
2.73791
2.73998
2.7415
2.74265
2.74369
2.74483
2.74626
2.74801
2.74987
2.75163
2.75313
2.75438
2.7555
2.75666
2.75799
2.75957
2.76132
2.76302
2.76442
2.76538
2.76587
2.76605
2.76615
2.76649
2.76721
2.76821
2.76955
2.77112
2.77285
2.77464
2.77566
2.77594
1
1
1
1
1
1
1
1
1
1
1
1
1
1
1
1
1
1
1
1
1
1
1
1
1
1
1
1
1
1
1
1
1
1
1
1
1
1
1
1
1
1
1
1
1
1
1
1
1
1
1
1
1
1
1
1
1
1
1
1
1
1
1.09514
2.36286
2.66713
2.66468
2.66658
2.66912
2.67203
2.67464
2.67719
2.68013
2.68355
2.68758
2.69196
2.69634
2.70067
2.70481
2.70871
2.71257
2.71639
2.71988
2.72286
2.72514
2.72697
2.72878
2.73091
2.73346
2.73611
2.73833
2.73988
2.7409
2.74172
2.74261
2.74382
2.74539
2.74714
2.74882
2.75027
2.75146
2.75251
2.75358
2.75482
2.75631
2.75797
2.75959
2.76091
2.7618
2.76226
2.76245
2.76257
2.76292
2.76358
2.76449
2.7657
2.76719
2.7689
2.77065
2.77164
2.7719
1
1
1
1
1
1
1
1
1
1
1
1
1
1
1
1
1
1
1
1
1
1
1
1
1
1
1
1
1
1
1
1
1
1
1
1
1
1
1
1
1
1
1
1
1
1
1
1
1
1
1
1
1
1
1
1
1
1
1
1
1
1
1.00349
2.28688
2.67043
2.66782
2.66796
2.66873
2.67063
2.67333
2.67657
2.67972
2.68256
2.68526
2.68804
2.69122
2.69493
2.69901
2.70316
2.70734
2.71145
2.71519
2.71845
2.72111
2.72334
2.72552
2.72801
2.73089
2.73384
2.7363
2.73796
2.73895
2.73961
2.7403
2.7413
2.74273
2.7444
2.746
2.74736
2.74846
2.7494
2.75036
2.75148
2.75283
2.75435
2.75583
2.75706
2.7579
2.75836
2.75859
2.75873
2.75905
2.7596
2.76036
2.76143
2.76284
2.76453
2.76628
2.76726
2.76751
1
1
1
1
1
1
1
1
1
1
1
1
1
1
1
1
1
1
1
1
1
1
1
1
1
1
1
1
1
1
1
1
1
1
1
1
1
1
1
1
1
1
1
1
1
1
1
1
1
1
1
1
1
1
1
1
1
1
1
1
1
1
1.00001
2.17797
2.67269
2.67291
2.67305
2.67289
2.67338
2.67489
2.67727
2.68005
2.68266
2.68471
2.68635
2.68818
2.69072
2.69403
2.69782
2.70196
2.70617
2.71002
2.7134
2.71628
2.71881
2.72135
2.72423
2.72752
2.73087
2.73368
2.73556
2.7366
2.73721
2.73782
2.73873
2.74006
2.74166
2.74318
2.74443
2.7454
2.74621
2.74702
2.74798
2.74913
2.75044
2.75174
2.75286
2.75367
2.75418
2.75448
2.75466
2.7549
2.75526
2.75584
2.75675
2.75804
2.75969
2.7614
2.76237
2.7626
1
1
1
1
1
1
1
1
1
1
1
1
1
1
1
1
1
1
1
1
1
1
1
1
1
1
1
1
1
1
1
1
1
1
1
1
1
1
1
1
1
1
1
1
1
1
1
1
1
1
1
1
1
1
1
1
1
1
1
1
1
1
1
2.0392
2.65551
2.67341
2.67417
2.67489
2.67568
2.67767
2.68014
2.68258
2.68453
2.68578
2.6866
2.6874
2.68895
2.69122
2.69416
2.69762
2.70133
2.7049
2.70817
2.71106
2.71372
2.71648
2.71964
2.7233
2.72706
2.73028
2.7325
2.73373
2.73441
2.73505
2.73597
2.73732
2.73891
2.74037
2.74148
2.74228
2.74292
2.74356
2.74431
2.74521
2.74624
2.74732
2.74833
2.74913
2.7497
2.75005
2.75022
2.7503
2.75043
2.75081
2.75155
2.75272
2.75431
2.75602
2.757
2.75724
1
1
1
1
1
1
1
1
1
1
1
1
1
1
1
1
1
1
1
1
1
1
1
1
1
1
1
1
1
1
1
1
1
1
1
1
1
1
1
1
1
1
1
1
1
1
1
1
1
1
1
1
1
1
1
1
1
1
1
1
1
1
1
1.87088
2.61514
2.66831
2.67324
2.67522
2.6771
2.67902
2.68144
2.6839
2.68592
2.68686
2.68711
2.68748
2.68856
2.69026
2.69249
2.69505
2.69778
2.70061
2.70339
2.70601
2.70853
2.71129
2.71453
2.71835
2.72241
2.72604
2.72866
2.7302
2.73109
2.73187
2.73292
2.73437
2.73604
2.73749
2.73849
2.73911
2.73955
2.73997
2.74047
2.74106
2.74176
2.74259
2.74348
2.74428
2.7449
2.74528
2.74538
2.74523
2.74516
2.74534
2.74587
2.74686
2.74834
2.74998
2.75091
2.75114
1
1
1
1
1
1
1
1
1
1
1
1
1
1
1
1
1
1
1
1
1
1
1
1
1
1
1
1
1
1
1
1
1
1
1
1
1
1
1
1
1
1
1
1
1
1
1
1
1
1
1
1
1
1
1
1
1
1
1
1
1
1
1
1.68566
2.55338
2.65439
2.66494
2.67012
2.67359
2.67747
2.68096
2.68405
2.6863
2.68711
2.6872
2.68769
2.68876
2.69034
2.69224
2.69406
2.69596
2.6977
2.6997
2.70179
2.70389
2.70631
2.70931
2.71301
2.71714
2.72103
2.72404
2.72597
2.72718
2.7282
2.72945
2.73108
2.73289
2.73442
2.73538
2.73584
2.73607
2.73625
2.73646
2.73671
2.73703
2.73757
2.73832
2.73911
2.73976
2.74009
2.73999
2.73962
2.73926
2.73917
2.73949
2.7403
2.74165
2.74322
2.74414
2.74439
1
1
1
1
1
1
1
1
1
1
1
1
1
1
1
1
1
1
1
1
1
1
1
1
1
1
1
1
1
1
1
1
1
1
1
1
1
1
1
1
1
1
1
1
1
1
1
1
1
1
1
1
1
1
1
1
1
1
1
1
1
1
1
1.43846
2.4607
2.64293
2.65052
2.65908
2.66518
2.67066
2.67576
2.68067
2.68424
2.68613
2.68704
2.68781
2.68888
2.69038
2.69209
2.69353
2.69465
2.69611
2.6973
2.69875
2.70026
2.70211
2.70454
2.70776
2.71162
2.71553
2.7188
2.7211
2.72264
2.72395
2.72546
2.72732
2.72933
2.73102
2.73203
2.73238
2.73244
2.7324
2.73229
2.73214
2.73212
2.73235
2.7329
2.73363
2.7342
2.73436
2.73406
2.73345
2.73278
2.73241
2.73253
2.73308
2.73416
2.73553
2.73632
2.73649
1
1
1
1
1
1
1
1
1
1
1
1
1
1
1
1
1
1
1
1
1
1
1
1
1
1
1
1
1
1
1
1
1
1
1
1
1
1
1
1
1
1
1
1
1
1
1
1
1
1
1
1
1
1
1
1
1
1
1
1
1
1
1
1.15401
2.36864
2.64313
2.63963
2.64442
2.65133
2.65928
2.66679
2.67331
2.67833
2.68201
2.68465
2.6867
2.68848
2.69019
2.69173
2.69294
2.69376
2.69473
2.69595
2.69691
2.69788
2.69895
2.70061
2.70308
2.70634
2.70996
2.71323
2.71574
2.71755
2.71912
2.72088
2.72299
2.72524
2.72716
2.7283
2.72864
2.7286
2.72835
2.72788
2.72734
2.72701
2.72698
2.72725
2.72778
2.72815
2.72807
2.72754
2.7266
2.72554
2.72475
2.72453
2.72479
2.72558
2.72674
2.72746
2.72764
1
1
1
1
1
1
1
1
1
1
1
1
1
1
1
1
1
1
1
1
1
1
1
1
1
1
1
1
1
1
1
1
1
1
1
1
1
1
1
1
1
1
1
1
1
1
1
1
1
1
1
1
1
1
1
1
1
1
1
1
1
1
1
1.00638
2.29795
2.64462
2.6363
2.64138
2.64636
2.65146
2.65718
2.66374
2.6699
2.67499
2.67922
2.68289
2.68603
2.68866
2.69069
2.69207
2.693
2.69396
2.69504
2.69582
2.69635
2.69687
2.69774
2.6993
2.70177
2.70478
2.70772
2.71017
2.71209
2.7138
2.71573
2.71805
2.72053
2.72272
2.72408
2.72457
2.72448
2.72398
2.72323
2.72239
2.72174
2.7214
2.72139
2.72154
2.72159
2.72123
2.72034
2.71903
2.71755
2.71632
2.71567
2.71557
2.71588
2.71655
2.71694
2.71691
1
1
1
1
1
1
1
1
1
1
1
1
1
1
1
1
1
1
1
1
1
1
1
1
1
1
1
1
1
1
1
1
1
1
1
1
1
1
1
1
1
1
1
1
1
1
1
1
1
1
1
1
1
1
1
1
1
1
1
1
1
1
1
1.00001
2.17318
2.64712
2.64443
2.64488
2.64591
2.64872
2.65267
2.6569
2.66169
2.66685
2.67188
2.67657
2.68093
2.68473
2.68776
2.68992
2.69146
2.69285
2.69415
2.69499
2.69527
2.69534
2.69555
2.69651
2.69815
2.70038
2.70269
2.70476
2.70653
2.70816
2.71011
2.7125
2.71516
2.71763
2.71931
2.72001
2.71986
2.71924
2.71831
2.71725
2.71632
2.71564
2.71522
2.71493
2.71453
2.71373
2.71241
2.71063
2.70865
2.70678
2.70533
2.70452
2.70427
2.70448
2.70465
2.70464
1
1
1
1
1
1
1
1
1
1
1
1
1
1
1
1
1
1
1
1
1
1
1
1
1
1
1
1
1
1
1
1
1
1
1
1
1
1
1
1
1
1
1
1
1
1
1
1
1
1
1
1
1
1
1
1
1
1
1
1
1
1
1
1
2.01021
2.64319
2.65065
2.65034
2.65095
2.65144
2.65233
2.65396
2.65675
2.66027
2.66453
2.66926
2.674
2.67849
2.68248
2.68576
2.68839
2.69065
2.6925
2.69368
2.69409
2.69408
2.694
2.69431
2.69543
2.6969
2.69844
2.69984
2.70115
2.70248
2.70422
2.70651
2.70921
2.71188
2.71388
2.71483
2.7147
2.7141
2.7131
2.7119
2.71074
2.70971
2.7088
2.70794
2.70693
2.70556
2.70369
2.70136
2.69875
2.69613
2.69382
2.69213
2.69101
2.6902
2.68942
2.68864
1
1
1
1
1
1
1
1
1
1
1
1
1
1
1
1
1
1
1
1
1
1
1
1
1
1
1
1
1
1
1
1
1
1
1
1
1
1
1
1
1
1
1
1
1
1
1
1
1
1
1
1
1
1
1
1
1
1
1
1
1
1
1
1
1.80091
2.59027
2.65388
2.65355
2.65387
2.65379
2.65398
2.65439
2.65533
2.65701
2.65968
2.66304
2.66698
2.67127
2.67557
2.67964
2.6834
2.68675
2.68946
2.69131
2.69225
2.69251
2.69251
2.69267
2.6933
2.69422
2.69501
2.69563
2.69625
2.69708
2.69837
2.70033
2.70284
2.70551
2.70775
2.70897
2.70897
2.70847
2.70748
2.70623
2.70491
2.70352
2.70207
2.70052
2.69878
2.6967
2.69419
2.69118
2.68778
2.68413
2.68043
2.67697
2.67407
2.67185
2.67014
2.66939
1
1
1
1
1
1
1
1
1
1
1
1
1
1
1
1
1
1
1
1
1
1
1
1
1
1
1
1
1
1
1
1
1
1
1
1
1
1
1
1
1
1
1
1
1
1
1
1
1
1
1
1
1
1
1
1
1
1
1
1
1
1
1
1
1.51813
2.47885
2.64476
2.64806
2.6507
2.65214
2.6536
2.6548
2.65568
2.65682
2.65807
2.65973
2.66204
2.66503
2.66865
2.67273
2.67704
2.68119
2.68474
2.68745
2.68921
2.69015
2.69058
2.69093
2.69145
2.69196
2.69216
2.69208
2.69199
2.6922
2.69291
2.69429
2.69632
2.69873
2.70097
2.70245
2.7027
2.7023
2.70138
2.70017
2.69873
2.69702
2.69501
2.69271
2.69012
2.68723
2.68391
2.68005
2.67557
2.67052
2.6651
2.6597
2.65472
2.65014
2.64504
2.64031
1
1
1
1
1
1
1
1
1
1
1
1
1
1
1
1
1
1
1
1
1
1
1
1
1
1
1
1
1
1
1
1
1
1
1
1
1
1
1
1
1
1
1
1
1
1
1
1
1
1
1
1
1
1
1
1
1
1
1
1
1
1
1
1
1.17675
2.36016
2.63563
2.63268
2.638
2.64368
2.64902
2.65255
2.65476
2.65635
2.65751
2.65845
2.65944
2.66094
2.66328
2.66653
2.67051
2.67475
2.67871
2.68208
2.68469
2.68652
2.68774
2.68859
2.68926
2.68962
2.68952
2.68899
2.68826
2.68794
2.68813
2.68869
2.68999
2.69181
2.69378
2.69534
2.69585
2.69554
2.69474
2.69359
2.69206
2.69006
2.68751
2.68445
2.68099
2.67716
2.67289
2.66796
2.66213
2.65533
2.64755
2.63888
2.62912
2.61814
2.60709
2.59862
1
1
1
1
1
1
1
1
1
1
1
1
1
1
1
1
1
1
1
1
1
1
1
1
1
1
1
1
1
1
1
1
1
1
1
1
1
1
1
1
1
1
1
1
1
1
1
1
1
1
1
1
1
1
1
1
1
1
1
1
1
1
1
1
1.00839
2.27423
2.62665
2.62317
2.62871
2.63475
2.64083
2.64678
2.65109
2.65403
2.6559
2.65702
2.65782
2.6587
2.66005
2.66221
2.66521
2.66873
2.67236
2.67581
2.67891
2.68151
2.68357
2.68518
2.6863
2.6868
2.68668
2.68602
2.68499
2.68426
2.68391
2.68364
2.68411
2.68513
2.6865
2.68783
2.68846
2.68822
2.68754
2.68643
2.68481
2.68256
2.67955
2.6758
2.67145
2.6666
2.66119
2.65493
2.64744
2.6384
2.62746
2.61434
2.59887
2.58073
2.56235
2.55309
1
1
1
1
1
1
1
1
1
1
1
1
1
1
1
1
1
1
1
1
1
1
1
1
1
1
1
1
1
1
1
1
1
1
1
1
1
1
1
1
1
1
1
1
1
1
1
1
1
1
1
1
1
1
1
1
1
1
1
1
1
1
1
1
1.00001
2.125
2.62423
2.62598
2.6281
2.63102
2.63513
2.64011
2.64495
2.64907
2.65218
2.65428
2.65565
2.65671
2.65785
2.65937
2.66141
2.6639
2.66665
2.66957
2.67259
2.67547
2.67812
2.68042
2.68218
2.68313
2.68323
2.68278
2.68184
2.68093
2.68011
2.67912
2.67871
2.67888
2.67944
2.68021
2.68069
2.68046
2.67977
2.67862
2.67687
2.67441
2.67104
2.66672
2.66154
2.65561
2.64888
2.64106
2.63156
2.61983
2.60527
2.58708
2.56284
2.52653
2.46043
2.31557
1
1
1
1
1
1
1
1
1
1
1
1
1
1
1
1
1
1
1
1
1
1
1
1
1
1
1
1
1
1
1
1
1
1
1
1
1
1
1
1
1
1
1
1
1
1
1
1
1
1
1
1
1
1
1
1
1
1
1
1
1
1
1
1
0.999999
1.92106
2.60714
2.63209
2.63076
2.63183
2.63361
2.63578
2.63916
2.64308
2.64676
2.64982
2.65218
2.65399
2.65551
2.65698
2.65854
2.66024
2.66208
2.66413
2.66652
2.66918
2.67185
2.67446
2.67677
2.67836
2.67903
2.67892
2.67842
2.67764
2.67651
2.67504
2.67376
2.67301
2.6728
2.67284
2.67285
2.67243
2.67153
2.67018
2.66825
2.66559
2.66198
2.65722
2.65129
2.64427
2.63612
2.62654
2.61478
2.60007
2.58128
2.55632
2.52069
2.46564
2.37603
2.16558
1
1
1
1
1
1
1
1
1
1
1
1
1
1
1
1
1
1
1
1
1
1
1
1
1
1
1
1
1
1
1
1
1
1
1
1
1
1
1
1
1
1
1
1
1
1
1
1
1
1
1
1
1
1
1
1
1
1
1
1
1
1
1
1
1
1.63793
2.52067
2.63089
2.6304
2.63145
2.63252
2.63396
2.63595
2.63853
2.64155
2.64466
2.64757
2.65012
2.6523
2.65414
2.65572
2.65712
2.65841
2.65973
2.66132
2.66333
2.66553
2.66794
2.67037
2.67244
2.67382
2.6744
2.67439
2.67391
2.67279
2.67107
2.66915
2.66759
2.6666
2.66589
2.66523
2.66427
2.66293
2.6612
2.65899
2.65614
2.65233
2.64724
2.64066
2.63261
2.623
2.61158
2.59747
2.57974
2.55652
2.52578
2.48074
2.41823
2.29381
2.08437
1
1
1
1
1
1
1
1
1
1
1
1
1
1
1
1
1
1
1
1
1
1
1
1
1
1
1
1
1
1
1
1
1
1
1
1
1
1
1
1
1
1
1
1
1
1
1
1
1
1
1
1
1
1
1
1
1
1
1
1
1
1
1
1
1
1.27958
2.39306
2.62484
2.62268
2.62549
2.62893
2.63146
2.63345
2.63538
2.63755
2.64002
2.64271
2.64544
2.64804
2.65034
2.65227
2.65381
2.655
2.65597
2.65697
2.65823
2.6598
2.66157
2.66363
2.66575
2.66762
2.66898
2.66963
2.66946
2.66859
2.66687
2.66465
2.66255
2.66089
2.65947
2.658
2.65626
2.65422
2.6519
2.64927
2.64614
2.64213
2.63677
2.62965
2.62069
2.60969
2.59645
2.58004
2.55954
2.53262
2.49693
2.44724
2.36986
2.24162
2.05739
1
1
1
1
1
1
1
1
1
1
1
1
1
1
1
1
1
1
1
1
1
1
1
1
1
1
1
1
1
1
1
1
1
1
1
1
1
1
1
1
1
1
1
1
1
1
1
1
1
1
1
1
1
1
1
1
1
1
1
1
1
1
1
1
1
1.02207
2.27539
2.62227
2.61836
2.61957
2.62286
2.6272
2.63013
2.63229
2.63423
2.63624
2.63842
2.64079
2.64329
2.64575
2.64801
2.64991
2.65136
2.65238
2.65312
2.65389
2.65487
2.65586
2.65724
2.65896
2.66085
2.66266
2.66393
2.66421
2.66365
2.66215
2.65995
2.65763
2.6555
2.65346
2.65121
2.64858
2.64564
2.64254
2.6393
2.63574
2.63143
2.6258
2.61825
2.60854
2.59634
2.58144
2.56295
2.53988
2.51014
2.47047
2.41667
2.33325
2.21531
2.06659
1
1
1
1
1
1
1
1
1
1
1
1
1
1
1
1
1
1
1
1
1
1
1
1
1
1
1
1
1
1
1
1
1
1
1
1
1
1
1
1
1
1
1
1
1
1
1
1
1
1
1
1
1
1
1
1
1
1
1
1
1
1
1
1
1
1.00008
2.11181
2.60284
2.60829
2.61307
2.61784
2.62194
2.62551
2.62828
2.63054
2.63253
2.63442
2.63638
2.6385
2.64079
2.64311
2.64528
2.6471
2.64843
2.64926
2.64989
2.65049
2.65087
2.65156
2.65264
2.6541
2.65583
2.6574
2.65812
2.65785
2.65671
2.65481
2.65256
2.65022
2.64773
2.64482
2.64135
2.63747
2.63344
2.62939
2.62518
2.62037
2.61436
2.60644
2.59617
2.58308
2.56682
2.54662
2.52136
2.48928
2.44772
2.39106
2.31067
2.20583
2.08307
1
1
1
1
1
1
1
1
1
1
1
1
1
1
1
1
1
1
1
1
1
1
1
1
1
1
1
1
1
1
1
1
1
1
1
1
1
1
1
1
1
1
1
1
1
1
1
1
1
1
1
1
1
1
1
1
1
1
1
1
1
1
1
1
1
0.999999
1.87455
2.56931
2.61071
2.61326
2.61596
2.61858
2.62102
2.62369
2.62625
2.62851
2.63045
2.63221
2.63399
2.63593
2.63805
2.64022
2.64224
2.64391
2.64505
2.64582
2.64626
2.64633
2.64654
2.647
2.64781
2.64902
2.6504
2.65129
2.65125
2.65053
2.64905
2.64706
2.64473
2.64197
2.63857
2.63446
2.62978
2.62482
2.6198
2.61472
2.60918
2.60261
2.59429
2.5836
2.56994
2.55276
2.53133
2.50454
2.47098
2.42735
2.37242
2.29818
2.20592
2.10081
1
1
1
1
1
1
1
1
1
1
1
1
1
1
1
1
1
1
1
1
1
1
1
1
1
1
1
1
1
1
1
1
1
1
1
1
1
1
1
1
1
1
1
1
1
1
1
1
1
1
1
1
1
1
1
1
1
1
1
1
1
1
1
1
1
1
1.52723
2.46647
2.61145
2.61144
2.61282
2.61444
2.61673
2.61928
2.62184
2.62425
2.62634
2.62812
2.62974
2.63139
2.63319
2.63513
2.63708
2.63889
2.64032
2.64135
2.64182
2.6419
2.64189
2.64194
2.64216
2.64266
2.64343
2.64409
2.64417
2.64371
2.64261
2.64096
2.63877
2.63594
2.63231
2.62784
2.6226
2.61685
2.61081
2.60464
2.5981
2.59076
2.58192
2.57089
2.55689
2.53921
2.51711
2.48954
2.4552
2.41091
2.35929
2.29004
2.20958
2.11965
1
1
1
1
1
1
1
1
1
1
1
1
1
1
1
1
1
1
1
1
1
1
1
1
1
1
1
1
1
1
1
1
1
1
1
1
1
1
1
1
1
1
1
1
1
1
1
1
1
1
1
1
1
1
1
1
1
1
1
1
1
1
1
1
1
1
1.11182
2.33188
2.61091
2.60483
2.60557
2.60773
2.61146
2.61443
2.61712
2.61962
2.62187
2.62382
2.6255
2.62704
2.62861
2.63023
2.63191
2.6336
2.63511
2.63628
2.63698
2.63725
2.63723
2.63713
2.63695
2.63684
2.63688
2.63697
2.6369
2.63648
2.63559
2.6342
2.63219
2.62942
2.62579
2.62123
2.61571
2.60941
2.60249
2.59518
2.58746
2.57912
2.56961
2.55819
2.54399
2.52613
2.50385
2.47615
2.44142
2.3999
2.3485
2.28473
2.21538
2.13798
1
1
1
1
1
1
1
1
1
1
1
1
1
1
1
1
1
1
1
1
1
1
1
1
1
1
1
1
1
1
1
1
1
1
1
1
1
1
1
1
1
1
1
1
1
1
1
1
1
1
1
1
1
1
1
1
1
1
1
1
1
1
1
1
1
1
1.0031
2.20543
2.59238
2.59198
2.5964
2.60101
2.60556
2.60902
2.612
2.61468
2.61711
2.61926
2.62113
2.62275
2.62423
2.62558
2.62693
2.62835
2.62971
2.63087
2.63173
2.63224
2.63239
2.63229
2.63197
2.63146
2.63087
2.63033
2.62981
2.62917
2.62824
2.62689
2.62496
2.62229
2.61881
2.61442
2.60895
2.60238
2.59481
2.58649
2.57751
2.568
2.55761
2.54569
2.53131
2.51347
2.49134
2.46394
2.43031
2.39078
2.34007
2.28372
2.22291
2.15368
1
1
1
1
1
1
1
1
1
1
1
1
1
1
1
1
1
1
1
1
1
1
1
1
1
1
1
1
1
1
1
1
1
1
1
1
1
1
1
1
1
1
1
1
1
1
1
1
1
1
1
1
1
1
1
1
1
1
1
1
1
1
1
1
1
1
0.999988
1.97821
2.56967
2.59326
2.59672
2.59937
2.60179
2.60424
2.60693
2.60957
2.61209
2.61442
2.6165
2.61833
2.61986
2.62104
2.62213
2.62324
2.62433
2.62533
2.62618
2.62683
2.62717
2.62715
2.62685
2.6262
2.62522
2.62413
2.62309
2.62204
2.62083
2.6193