/*--------------------------------*- C++ -*----------------------------------*\
  =========                 |
  \\      /  F ield         | OpenFOAM: The Open Source CFD Toolbox
   \\    /   O peration     | Website:  https://openfoam.org
    \\  /    A nd           | Version:  7
     \\/     M anipulation  |
\*---------------------------------------------------------------------------*/
FoamFile
{
    version     2.0;
    format      ascii;
    class       surfaceScalarField;
    location    "46.999526";
    object      phi;
}
// * * * * * * * * * * * * * * * * * * * * * * * * * * * * * * * * * * * * * //

dimensions      [0 3 -1 0 0 0 0];

internalField   nonuniform List<scalar> 
11438
(
-0.000255773
-0.000585589
-0.000224648
-0.000763885
-0.000165509
-0.000898223
-8.74896e-05
-0.000988258
-0.00103345
0.0164638
-9.55697e-06
0.0164734
-9.55633e-06
0.0164829
-9.54267e-06
0.0164925
-9.51507e-06
0.0165019
-9.47261e-06
0.0165113
-9.41427e-06
0.0165207
-9.33904e-06
0.0165299
-9.24588e-06
0.0165391
-9.13371e-06
0.0165481
-9.00145e-06
0.0165569
-8.84802e-06
0.0165656
-8.67229e-06
0.0165741
-8.47314e-06
0.0165823
-8.24945e-06
0.0165903
-8.0001e-06
0.016598
-7.72396e-06
0.0166055
-7.41992e-06
0.0166125
-7.0869e-06
0.0166193
-6.72382e-06
0.0166256
-6.32966e-06
0.0166315
-5.90342e-06
0.0166369
-5.44416e-06
0.0166419
-4.951e-06
0.0166463
-4.42312e-06
0.0166502
-3.85979e-06
0.0166534
-3.26036e-06
0.0166561
-2.62428e-06
0.016658
-1.95109e-06
0.0166593
-1.24046e-06
0.0166597
-4.92032e-07
0.0166595
2.93708e-07
0.0166583
1.11615e-06
0.0166564
1.97603e-06
0.0166535
2.87281e-06
0.0166497
3.80544e-06
0.0166449
4.77345e-06
0.0166391
5.77516e-06
0.0166323
6.81012e-06
0.0166244
7.87563e-06
0.0166155
8.97164e-06
0.0166054
1.00939e-05
0.0165941
1.12433e-05
0.0165817
1.24132e-05
0.0165681
1.36069e-05
0.0165533
1.48136e-05
0.0165373
1.60407e-05
0.01652
1.72712e-05
0.0165015
1.85199e-05
0.0164817
1.97594e-05
0.0164607
2.10168e-05
0.0164384
2.22487e-05
0.0164149
2.35014e-05
0.0163902
2.47069e-05
0.0163643
2.59415e-05
0.0163372
2.71003e-05
0.0163089
2.83028e-05
0.0162795
2.9393e-05
0.016249
3.05482e-05
0.0162174
3.15467e-05
0.0161848
3.26352e-05
0.0161513
3.35207e-05
0.0161167
3.45132e-05
0.0160815
3.52778e-05
3.61003e-05
0.0161397
-1.89549e-05
0.0161491
-1.89541e-05
0.0161585
-1.89272e-05
0.0161679
-1.88725e-05
0.0161772
-1.87881e-05
0.0161864
-1.86721e-05
0.0161956
-1.85224e-05
0.0162047
-1.83371e-05
0.0162137
-1.8114e-05
0.0162225
-1.7851e-05
0.0162312
-1.75459e-05
0.0162398
-1.71965e-05
0.0162481
-1.68006e-05
0.0162562
-1.6356e-05
0.016264
-1.58605e-05
0.0162716
-1.53118e-05
0.0162789
-1.47077e-05
0.0162859
-1.40462e-05
0.0162925
-1.3325e-05
0.0162987
-1.25422e-05
0.0163045
-1.16958e-05
0.0163098
-1.07839e-05
0.0163147
-9.80481e-06
0.016319
-8.75688e-06
0.0163228
-7.6387e-06
0.016326
-6.44897e-06
0.0163285
-5.18662e-06
0.0163304
-3.85076e-06
0.0163316
-2.44074e-06
0.0163321
-9.55813e-07
0.0163318
6.02968e-07
0.0163307
2.23442e-06
0.0163287
3.94006e-06
0.0163259
5.71862e-06
0.0163221
7.56825e-06
0.0163174
9.48768e-06
0.0163117
1.14741e-05
0.016305
1.35258e-05
0.0162972
1.56385e-05
0.0162884
1.78106e-05
0.0162784
2.00357e-05
0.0162674
2.23128e-05
0.0162551
2.46328e-05
0.0162418
2.69962e-05
0.0162272
2.93897e-05
0.0162114
3.18175e-05
0.0161944
3.42599e-05
0.0161762
3.67272e-05
0.0161568
3.91905e-05
0.0161361
4.16701e-05
0.0161142
4.41236e-05
0.0160912
4.65861e-05
0.0160669
4.89967e-05
0.0160414
5.14108e-05
0.0160148
5.37436e-05
0.015987
5.60757e-05
0.0159581
5.82946e-05
0.0159281
6.05064e-05
0.0158971
6.25756e-05
0.0158651
6.462e-05
0.0158321
6.65066e-05
0.0157983
6.83192e-05
0.0157636
7.00001e-05
7.14949e-05
0.0158251
-2.82322e-05
0.0158344
-2.82301e-05
0.0158436
-2.8189e-05
0.0158529
-2.81062e-05
0.015862
-2.79791e-05
0.0158712
-2.78048e-05
0.0158802
-2.75803e-05
0.0158892
-2.73025e-05
0.0158981
-2.69684e-05
0.0159068
-2.65747e-05
0.0159154
-2.61183e-05
0.0159238
-2.55958e-05
0.015932
-2.5004e-05
0.0159399
-2.43397e-05
0.0159477
-2.35994e-05
0.0159551
-2.27799e-05
0.0159623
-2.1878e-05
0.0159692
-2.08905e-05
0.0159756
-1.98141e-05
0.0159818
-1.8646e-05
0.0159874
-1.73832e-05
0.0159927
-1.6023e-05
0.0159974
-1.45627e-05
0.0160017
-1.30001e-05
0.0160054
-1.1333e-05
0.0160085
-9.5594e-06
0.016011
-7.67788e-06
0.0160128
-5.68708e-06
0.016014
-3.58607e-06
0.0160144
-1.37384e-06
0.016014
9.48044e-07
0.0160129
3.37815e-06
0.0160109
5.91829e-06
0.0160081
8.56655e-06
0.0160043
1.13204e-05
0.0159996
1.41776e-05
0.015994
1.71342e-05
0.0159873
2.01874e-05
0.0159796
2.33313e-05
0.0159709
2.65626e-05
0.015961
2.9873e-05
0.0159501
3.32594e-05
0.015938
3.67101e-05
0.0159248
4.02234e-05
0.0159104
4.37832e-05
0.0158948
4.73904e-05
0.015878
5.10227e-05
0.0158601
5.46863e-05
0.0158409
5.83503e-05
0.0158206
6.20292e-05
0.015799
6.56799e-05
0.0157763
6.93295e-05
0.0157523
7.29192e-05
0.0157273
7.64917e-05
0.015701
7.99703e-05
0.0156737
8.34142e-05
0.0156453
8.67302e-05
0.0156158
8.9988e-05
0.0155853
9.30893e-05
0.0155538
9.60923e-05
0.0155214
9.89279e-05
0.0154881
0.000101588
0.015454
0.000104111
0.000106309
0.0155195
-3.7419e-05
0.0155287
-3.74141e-05
0.0155378
-3.73573e-05
0.015547
-3.72451e-05
0.0155561
-3.7074e-05
0.0155651
-3.68402e-05
0.0155741
-3.65396e-05
0.0155829
-3.61682e-05
0.0155917
-3.5722e-05
0.0156003
-3.51968e-05
0.0156088
-3.45882e-05
0.0156171
-3.38921e-05
0.0156252
-3.3104e-05
0.015633
-3.22196e-05
0.0156407
-3.12345e-05
0.015648
-3.01444e-05
0.0156551
-2.8945e-05
0.0156619
-2.76321e-05
0.0156682
-2.62017e-05
0.0156742
-2.46496e-05
0.0156798
-2.29721e-05
0.015685
-2.11656e-05
0.0156896
-1.92268e-05
0.0156938
-1.71525e-05
0.0156974
-1.49398e-05
0.0157004
-1.25865e-05
0.0157028
-1.00904e-05
0.0157046
-7.44992e-06
0.0157057
-4.66378e-06
0.015706
-1.73068e-06
0.0157056
1.34701e-06
0.0157044
4.56789e-06
0.0157024
7.93391e-06
0.0156996
1.14425e-05
0.0156958
1.50902e-05
0.0156911
1.88741e-05
0.0156854
2.27891e-05
0.0156788
2.68309e-05
0.0156711
3.09923e-05
0.0156624
3.52683e-05
0.0156527
3.96485e-05
0.0156418
4.41278e-05
0.0156298
4.86922e-05
0.0156167
5.33372e-05
0.0156024
5.80442e-05
0.015587
6.28111e-05
0.0155704
6.76127e-05
0.0155526
7.24516e-05
0.0155337
7.72941e-05
0.0155136
8.21499e-05
0.0154923
8.69747e-05
0.0154698
9.17882e-05
0.0154462
9.65329e-05
0.0154215
0.000101241
0.0153956
0.00010584
0.0153686
0.000110374
0.0153406
0.000114762
0.0153116
0.000119045
0.0152815
0.000123153
0.0152505
0.000127098
0.0152186
0.000130858
0.0151858
0.000134352
0.0151522
0.000137696
0.000140589
0.0152225
-4.65438e-05
0.0152316
-4.65342e-05
0.0152407
-4.64598e-05
0.0152498
-4.63163e-05
0.0152588
-4.60991e-05
0.0152677
-4.58037e-05
0.0152766
-4.5425e-05
0.0152854
-4.49581e-05
0.0152941
-4.43979e-05
0.0153026
-4.37391e-05
0.015311
-4.29766e-05
0.0153192
-4.21049e-05
0.0153273
-4.11187e-05
0.015335
-4.00125e-05
0.0153426
-3.87811e-05
0.0153499
-3.74191e-05
0.0153568
-3.5921e-05
0.0153635
-3.42819e-05
0.0153698
-3.24965e-05
0.0153757
-3.056e-05
0.0153812
-2.84677e-05
0.0153862
-2.62152e-05
0.0153908
-2.37983e-05
0.0153949
-2.12132e-05
0.0153984
-1.84565e-05
0.0154013
-1.55253e-05
0.0154037
-1.2417e-05
0.0154053
-9.12971e-06
0.0154063
-5.66198e-06
0.0154066
-2.01224e-06
0.0154061
1.81625e-06
0.0154049
5.82248e-06
0.0154028
1.00081e-05
0.0153999
1.43698e-05
0.0153961
1.89035e-05
0.0153913
2.36053e-05
0.0153857
2.84689e-05
0.015379
3.34888e-05
0.0153713
3.86561e-05
0.0153627
4.39642e-05
0.0153529
4.94007e-05
0.0153421
5.49584e-05
0.0153301
6.06208e-05
0.0153171
6.63812e-05
0.0153029
7.22179e-05
0.0152876
7.81262e-05
0.0152711
8.40777e-05
0.0152535
9.00716e-05
0.0152347
9.60714e-05
0.0152148
0.000102083
0.0151937
0.000108059
0.0151715
0.000114014
0.0151481
0.000119889
0.0151237
0.000125709
0.0150981
0.000131405
0.0150715
0.000137006
0.0150438
0.00014244
0.0150151
0.000147729
0.0149855
0.000152819
0.0149549
0.000157688
0.0149234
0.000162349
0.0148911
0.000166662
0.0148579
0.000170809
0.000174384
0.0149337
-5.56319e-05
0.0149427
-5.56153e-05
0.0149518
-5.55207e-05
0.0149608
-5.53433e-05
0.0149698
-5.50775e-05
0.0149787
-5.47178e-05
0.0149875
-5.42582e-05
0.0149963
-5.3693e-05
0.0150049
-5.30158e-05
0.0150134
-5.22206e-05
0.0150217
-5.13011e-05
0.0150299
-5.0251e-05
0.0150378
-4.90638e-05
0.0150455
-4.77331e-05
0.015053
-4.62526e-05
0.0150602
-4.46159e-05
0.0150671
-4.28166e-05
0.0150736
-4.08487e-05
0.0150799
-3.87061e-05
0.0150857
-3.63831e-05
0.0150911
-3.38742e-05
0.015096
-3.1174e-05
0.0151005
-2.82777e-05
0.0151045
-2.5181e-05
0.0151079
-2.18797e-05
0.0151108
-1.83705e-05
0.015113
-1.46505e-05
0.0151146
-1.07174e-05
0.0151155
-6.56954e-06
0.0151157
-2.20524e-06
0.0151151
2.37112e-06
0.0151138
7.15926e-06
0.0151116
1.21602e-05
0.0151086
1.737e-05
0.0151048
2.27838e-05
0.0151
2.83967e-05
0.0150942
3.42011e-05
0.0150875
4.01904e-05
0.0150798
4.6354e-05
0.0150711
5.26834e-05
0.0150614
5.91644e-05
0.0150505
6.57876e-05
0.0150386
7.25341e-05
0.0150256
7.93947e-05
0.0150115
8.6345e-05
0.0149962
9.33773e-05
0.0149798
0.00010046
0.0149623
0.00010759
0.0149437
0.000114727
0.0149239
0.000121873
0.014903
0.000128977
0.0148809
0.000136052
0.0148578
0.000143034
0.0148335
0.000149944
0.0148082
0.000156711
0.0147819
0.000163356
0.0147545
0.000169812
0.0147262
0.000176085
0.0146968
0.000182133
0.0146666
0.000187906
0.0146355
0.000193448
0.0146036
0.000198562
0.0145709
0.000203497
0.00020774
0.0146527
-6.47057e-05
0.0146617
-6.46792e-05
0.0146708
-6.45616e-05
0.0146798
-6.43472e-05
0.0146887
-6.40295e-05
0.0146976
-6.36022e-05
0.0147064
-6.30584e-05
0.0147151
-6.23912e-05
0.0147237
-6.15934e-05
0.0147321
-6.06581e-05
0.0147404
-5.95778e-05
0.0147485
-5.83453e-05
0.0147564
-5.69532e-05
0.0147641
-5.5394e-05
0.0147715
-5.36604e-05
0.0147786
-5.1745e-05
0.0147854
-4.96406e-05
0.0147919
-4.73401e-05
0.014798
-4.48366e-05
0.0148038
-4.21236e-05
0.0148091
-3.91945e-05
0.014814
-3.60436e-05
0.0148184
-3.26651e-05
0.0148222
-2.90541e-05
0.0148256
-2.5206e-05
0.0148283
-2.1117e-05
0.0148304
-1.67838e-05
0.0148319
-1.2204e-05
0.0148327
-7.37579e-06
0.0148328
-2.29718e-06
0.0148322
3.02596e-06
0.0148307
8.59446e-06
0.0148285
1.44083e-05
0.0148254
2.0463e-05
0.0148214
2.67528e-05
0.0148166
3.32717e-05
0.0148107
4.0011e-05
0.014804
4.69627e-05
0.0147962
5.41143e-05
0.0147874
6.1456e-05
0.0147776
6.89711e-05
0.0147668
7.66483e-05
0.0147548
8.44662e-05
0.0147418
9.24133e-05
0.0147277
0.000100462
0.0147125
0.000108602
0.0146961
0.000116799
0.0146787
0.000125046
0.0146601
0.0001333
0.0146404
0.00014156
0.0146196
0.000149772
0.0145977
0.000157943
0.0145748
0.000166009
0.0145507
0.000173985
0.0145256
0.000181799
0.0144995
0.000189466
0.0144724
0.00019692
0.0144443
0.000204152
0.0144153
0.000211137
0.0143855
0.000217792
0.0143547
0.000224195
0.0143232
0.000230093
0.0142909
0.0002358
0.000240698
0.0143792
-7.37854e-05
0.0143883
-7.37458e-05
0.0143973
-7.36018e-05
0.0144063
-7.33468e-05
0.0144153
-7.29735e-05
0.0144242
-7.24747e-05
0.0144329
-7.18425e-05
0.0144416
-7.1069e-05
0.0144502
-7.01462e-05
0.0144586
-6.90661e-05
0.0144668
-6.78204e-05
0.0144749
-6.64007e-05
0.0144827
-6.47986e-05
0.0144903
-6.30059e-05
0.0144977
-6.10141e-05
0.0145048
-5.88149e-05
0.0145115
-5.64003e-05
0.0145179
-5.37622e-05
0.014524
-5.08928e-05
0.0145297
-4.77847e-05
0.0145349
-4.44309e-05
0.0145397
-4.08245e-05
0.014544
-3.69595e-05
0.0145477
-3.28301e-05
0.014551
-2.84315e-05
0.0145536
-2.37593e-05
0.0145556
-1.881e-05
0.014557
-1.3581e-05
0.0145577
-8.07043e-06
0.0145577
-2.2761e-06
0.0145569
3.79437e-06
0.0145554
1.01433e-05
0.014553
1.67693e-05
0.0145498
2.36673e-05
0.0145457
3.08305e-05
0.0145407
3.8252e-05
0.0145348
4.59217e-05
0.014528
5.38302e-05
0.0145201
6.19633e-05
0.0145113
7.03093e-05
0.0145014
7.88495e-05
0.0144905
8.75706e-05
0.0144785
9.64483e-05
0.0144654
0.000105469
0.0144513
0.000114602
0.0144361
0.000123835
0.0144197
0.000133129
0.0144023
0.000142476
0.0143838
0.000151827
0.0143641
0.000161181
0.0143434
0.000170478
0.0143217
0.000179724
0.0142988
0.000188851
0.0142749
0.00019787
0.01425
0.000206707
0.0142241
0.00021537
0.0141972
0.000223798
0.0141694
0.000231968
0.0141407
0.000239865
0.0141111
0.000247381
0.0140807
0.000254626
0.0140495
0.000261288
0.0140175
0.000267754
0.000273292
0.014113
-8.28888e-05
0.0141221
-8.28325e-05
0.0141311
-8.26583e-05
0.0141401
-8.23586e-05
0.0141491
-8.19255e-05
0.014158
-8.13506e-05
0.0141667
-8.06252e-05
0.0141754
-7.97406e-05
0.014184
-7.86877e-05
0.0141923
-7.74574e-05
0.0142006
-7.60406e-05
0.0142086
-7.4428e-05
0.0142164
-7.26102e-05
0.014224
-7.05779e-05
0.0142313
-6.83219e-05
0.0142383
-6.58328e-05
0.014245
-6.31017e-05
0.0142514
-6.01197e-05
0.0142573
-5.68782e-05
0.0142629
-5.3369e-05
0.0142681
-4.95843e-05
0.0142728
-4.55166e-05
0.014277
-4.11593e-05
0.0142807
-3.65062e-05
0.0142838
-3.15518e-05
0.0142863
-2.62916e-05
0.0142882
-2.07218e-05
0.0142895
-1.48397e-05
0.0142901
-8.64346e-06
0.0142899
-2.13048e-06
0.014289
4.68928e-06
0.0142873
1.182e-05
0.0142848
1.92589e-05
0.0142815
2.7e-05
0.0142773
3.50356e-05
0.0142722
4.33576e-05
0.0142662
5.19545e-05
0.0142592
6.08156e-05
0.0142512
6.99247e-05
0.0142423
7.92685e-05
0.0142323
8.88258e-05
0.0142213
9.85816e-05
0.0142092
0.000108508
0.0141961
0.000118591
0.0141819
0.000128795
0.0141666
0.000139105
0.0141503
0.00014948
0.0141328
0.000159909
0.0141143
0.00017034
0.0140947
0.000180767
0.0140741
0.000191129
0.0140524
0.000201428
0.0140297
0.000211592
0.0140059
0.00022163
0.0139811
0.000231466
0.0139554
0.000241102
0.0139287
0.000250479
0.0139011
0.000259562
0.0138726
0.000268349
0.0138433
0.000276704
0.0138132
0.000284771
0.0137823
0.000292179
0.0137506
0.000299389
0.000305554
0.0138536
-9.20319e-05
0.0138628
-9.1955e-05
0.0138719
-9.17463e-05
0.0138809
-9.13974e-05
0.0138899
-9.08996e-05
0.0138988
-9.02436e-05
0.0139076
-8.94197e-05
0.0139162
-8.84182e-05
0.0139248
-8.72292e-05
0.0139332
-8.58427e-05
0.0139414
-8.42486e-05
0.0139494
-8.24365e-05
0.0139572
-8.03962e-05
0.0139647
-7.81175e-05
0.013972
-7.55901e-05
0.0139789
-7.2804e-05
0.0139856
-6.97492e-05
0.0139919
-6.6416e-05
0.0139978
-6.27951e-05
0.0140033
-5.88776e-05
0.0140084
-5.46548e-05
0.014013
-5.01188e-05
0.0140171
-4.52624e-05
0.0140207
-4.00788e-05
0.0140237
-3.45623e-05
0.0140261
-2.8708e-05
0.0140279
-2.25121e-05
0.014029
-1.59717e-05
0.0140294
-9.08506e-06
0.0140292
-1.84917e-06
0.0140281
5.72307e-06
0.0140263
1.36384e-05
0.0140237
2.1892e-05
0.0140202
3.04772e-05
0.0140159
3.93853e-05
0.0140106
4.86069e-05
0.0140044
5.81291e-05
0.0139973
6.79396e-05
0.0139892
7.80203e-05
0.0139801
8.83563e-05
0.01397
9.89239e-05
0.0139589
0.000109706
0.0139467
0.000120672
0.0139335
0.000131805
0.0139192
0.000143067
0.0139039
0.000154441
0.0138875
0.000165882
0.01387
0.000177376
0.0138515
0.000188867
0.0138319
0.000200348
0.0138113
0.000211753
0.0137897
0.000223083
0.013767
0.000234261
0.0137433
0.000245294
0.0137187
0.000256105
0.0136931
0.000266688
0.0136666
0.000276991
0.0136392
0.000286962
0.0136109
0.000296617
0.0135818
0.000305788
0.013552
0.000314657
0.0135213
0.000322793
0.01349
0.000330732
0.00033751
0.0136009
-0.000101229
0.0136101
-0.000101127
0.0136193
-0.000100879
0.0136283
-0.000100476
0.0136373
-9.99081e-05
0.0136463
-9.91652e-05
0.0136551
-9.82369e-05
0.0136638
-9.71124e-05
0.0136723
-9.57808e-05
0.0136807
-9.42313e-05
0.0136889
-9.24527e-05
0.0136969
-9.04338e-05
0.0137047
-8.81635e-05
0.0137122
-8.56306e-05
0.0137194
-8.2824e-05
0.0137264
-7.97327e-05
0.013733
-7.6346e-05
0.0137392
-7.26535e-05
0.013745
-6.86449e-05
0.0137505
-6.43107e-05
0.0137555
-5.96416e-05
0.01376
-5.46292e-05
0.013764
-4.92656e-05
0.0137674
-4.35438e-05
0.0137703
-3.74577e-05
0.0137726
-3.10023e-05
0.0137743
-2.41735e-05
0.0137753
-1.69684e-05
0.0137756
-9.38555e-06
0.0137752
-1.42129e-06
0.013774
6.90757e-06
0.013772
1.56113e-05
0.0137692
2.46827e-05
0.0137656
3.41143e-05
0.0137611
4.38959e-05
0.0137557
5.40172e-05
0.0137493
6.44636e-05
0.013742
7.52213e-05
0.0137338
8.62703e-05
0.0137246
9.75937e-05
0.0137143
0.000109165
0.0137031
0.000120966
0.0136908
0.000132963
0.0136774
0.000145136
0.0136631
0.000157444
0.0136476
0.000169868
0.0136311
0.000182358
0.0136136
0.0001949
0.0135951
0.000207433
0.0135755
0.000219949
0.0135548
0.000232376
0.0135332
0.000244714
0.0135106
0.000256884
0.013487
0.000268887
0.0134624
0.000280648
0.013437
0.000292154
0.0134106
0.000303356
0.0133834
0.000314192
0.0133553
0.00032469
0.0133264
0.000334655
0.0132968
0.000344306
0.0132664
0.00035315
0.0132354
0.000361805
0.000369184
0.0133546
-0.000110492
0.0133639
-0.00011036
0.0133731
-0.000110068
0.0133822
-0.000109605
0.0133913
-0.000108961
0.0134002
-0.000108126
0.0134091
-0.000107086
0.0134178
-0.000105832
0.0134264
-0.000104351
0.0134348
-0.000102631
0.013443
-0.00010066
0.013451
-9.8426e-05
0.0134587
-9.59174e-05
0.0134662
-9.31218e-05
0.0134734
-9.00272e-05
0.0134803
-8.66218e-05
0.0134868
-8.28942e-05
0.013493
-7.88331e-05
0.0134988
-7.44276e-05
0.0135042
-6.96675e-05
0.0135091
-6.4543e-05
0.0135135
-5.9045e-05
0.0135174
-5.31653e-05
0.0135207
-4.68966e-05
0.0135235
-4.02325e-05
0.0135257
-3.31677e-05
0.0135272
-2.56983e-05
0.013528
-1.78214e-05
0.0135282
-9.5353e-06
0.0135276
-8.35994e-07
0.0135263
8.25403e-06
0.0135241
1.77511e-05
0.0135212
2.76445e-05
0.0135173
3.79254e-05
0.0135127
4.85826e-05
0.0135071
5.96045e-05
0.0135006
7.0975e-05
0.0134931
8.26786e-05
0.0134847
9.46931e-05
0.0134753
0.000107
0.0134649
0.00011957
0.0134535
0.000132382
0.013441
0.000145401
0.0134276
0.000158604
0.013413
0.000171946
0.0133975
0.000185407
0.0133809
0.000198932
0.0133633
0.000212505
0.0133447
0.000226062
0.0133251
0.000239592
0.0133044
0.00025302
0.0132828
0.000266344
0.0132602
0.000279481
0.0132366
0.000292431
0.0132122
0.000305116
0.0131868
0.00031752
0.0131606
0.000329597
0.0131335
0.000341271
0.0131056
0.00035259
0.0130769
0.000363325
0.0130475
0.000373738
0.0130174
0.000383271
0.0129865
0.000392627
0.000400592
0.0131145
-0.000119832
0.0131238
-0.000119665
0.0131331
-0.000119323
0.0131423
-0.000118795
0.0131514
-0.000118069
0.0131604
-0.000117133
0.0131693
-0.000115976
0.013178
-0.000114584
0.0131866
-0.000112945
0.013195
-0.000111047
0.0132032
-0.000108875
0.0132112
-0.000106418
0.013219
-0.000103662
0.0132264
-0.000100594
0.0132336
-9.72019e-05
0.0132405
-9.34728e-05
0.013247
-8.93944e-05
0.0132531
-8.49548e-05
0.0132588
-8.01424e-05
0.0132641
-7.49463e-05
0.0132689
-6.93563e-05
0.0132732
-6.33629e-05
0.013277
-5.69574e-05
0.0132802
-5.01321e-05
0.0132829
-4.28805e-05
0.0132849
-3.51974e-05
0.0132863
-2.70786e-05
0.013287
-1.85222e-05
0.013287
-9.52643e-06
0.0132862
-8.17893e-08
0.0132847
9.77322e-06
0.0132824
2.00703e-05
0.0132793
3.07901e-05
0.0132753
4.19239e-05
0.0132704
5.34595e-05
0.0132646
6.53839e-05
0.0132579
7.76789e-05
0.0132502
9.03276e-05
0.0132416
0.000103306
0.013232
0.000116592
0.0132215
0.000130156
0.0132099
0.000143974
0.0131973
0.000158006
0.0131836
0.000172228
0.013169
0.000186593
0.0131533
0.000201078
0.0131366
0.000215623
0.0131189
0.000230211
0.0131002
0.000244774
0.0130805
0.000259298
0.0130598
0.000273706
0.0130382
0.000287993
0.0130156
0.000302073
0.0129921
0.000315945
0.0129677
0.000329529
0.0129424
0.000342804
0.0129162
0.00035573
0.0128893
0.000368217
0.0128615
0.000380332
0.0128331
0.000391814
0.0128038
0.000402968
0.0127739
0.000413171
0.0127433
0.000423214
0.000431752
0.0128803
-0.000129259
0.0128897
-0.000129051
0.012899
-0.000128653
0.0129083
-0.000128053
0.0129174
-0.000127238
0.0129265
-0.000126195
0.0129354
-0.000124912
0.0129442
-0.000123375
0.0129528
-0.00012157
0.0129613
-0.000119484
0.0129695
-0.000117102
0.0129775
-0.000114412
0.0129852
-0.000111399
0.0129927
-0.000108049
0.0129998
-0.000104349
0.0130067
-0.000100286
0.0130131
-9.58464e-05
0.0130192
-9.10175e-05
0.0130248
-8.57874e-05
0.01303
-8.01446e-05
0.0130347
-7.40784e-05
0.0130389
-6.75787e-05
0.0130426
-6.06368e-05
0.0130457
-5.32446e-05
0.0130483
-4.53955e-05
0.0130501
-3.70842e-05
0.0130514
-2.83068e-05
0.0130519
-1.90609e-05
0.0130517
-9.34516e-06
0.0130508
8.42564e-07
0.0130491
1.1479e-05
0.0130466
2.25799e-05
0.0130432
3.41315e-05
0.013039
4.61229e-05
0.013034
5.85403e-05
0.013028
7.13692e-05
0.0130211
8.45899e-05
0.0130132
9.81835e-05
0.0130044
0.000112123
0.0129946
0.000126387
0.0129838
0.000140939
0.012972
0.000155756
0.0129592
0.000170794
0.0129454
0.000186027
0.0129306
0.000201404
0.0129148
0.000216898
0.012898
0.000232449
0.0128802
0.000248036
0.0128614
0.000263585
0.0128416
0.000279084
0.0128208
0.00029445
0.0127991
0.000309676
0.0127765
0.000324676
0.012753
0.000339444
0.0127287
0.000353902
0.0127035
0.000368021
0.0126774
0.00038177
0.0126506
0.000395045
0.012623
0.00040793
0.0125947
0.000420135
0.0125656
0.000432009
0.0125359
0.000442862
0.0125056
0.000453578
0.000462675
0.0126518
-0.00013878
0.0126613
-0.000138526
0.0126707
-0.000138065
0.01268
-0.000137386
0.0126892
-0.000136474
0.0126984
-0.000135317
0.0127073
-0.0001339
0.0127162
-0.000132209
0.0127248
-0.000130229
0.0127333
-0.000127946
0.0127415
-0.000125345
0.0127495
-0.000122411
0.0127573
-0.000119131
0.0127647
-0.000115488
0.0127718
-0.00011147
0.0127786
-0.000107061
0.012785
-0.000102249
0.012791
-9.70193e-05
0.0127966
-9.136e-05
0.0128017
-8.5259e-05
0.0128063
-7.8705e-05
0.0128104
-7.16878e-05
0.012814
-6.41981e-05
0.012817
-5.6228e-05
0.0128194
-4.77706e-05
0.0128211
-3.88207e-05
0.0128222
-2.93746e-05
0.0128225
-1.943e-05
0.0128222
-8.98659e-06
0.0128211
1.95555e-06
0.0128192
1.33786e-05
0.0128164
2.52913e-05
0.0128129
3.76803e-05
0.0128085
5.05341e-05
0.0128032
6.38372e-05
0.012797
7.75735e-05
0.0127899
9.17214e-05
0.0127818
0.00010626
0.0127727
0.000121161
0.0127627
0.000136398
0.0127517
0.000151936
0.0127397
0.000167746
0.0127268
0.000183782
0.0127128
0.000200016
0.0126978
0.000216393
0.0126818
0.000232885
0.0126648
0.000249426
0.0126469
0.000265994
0.0126279
0.000282512
0.012608
0.000298965
0.0125872
0.000315267
0.0125655
0.00033141
0.0125429
0.000347305
0.0125194
0.000362943
0.012495
0.000378247
0.0124699
0.000393184
0.0124439
0.000407729
0.0124172
0.000421764
0.0123897
0.000435395
0.0123616
0.000448298
0.0123327
0.000460871
0.0123032
0.000472354
0.0122731
0.000483728
0.000493371
0.0124288
-0.000148402
0.0124384
-0.000148095
0.0124479
-0.000147565
0.0124573
-0.000146799
0.0124666
-0.000145783
0.0124758
-0.000144503
0.0124848
-0.000142943
0.0124937
-0.000141089
0.0125024
-0.000138924
0.0125109
-0.000136434
0.0125191
-0.000133603
0.0125271
-0.000130416
0.0125349
-0.000126857
0.0125423
-0.00012291
0.0125494
-0.000118562
0.0125561
-0.000113796
0.0125625
-0.000108599
0.0125684
-0.000102957
0.0125739
-9.68565e-05
0.0125789
-9.02852e-05
0.0125834
-8.32314e-05
0.0125874
-7.56847e-05
0.0125909
-6.76356e-05
0.0125937
-5.90759e-05
0.012596
-4.99989e-05
0.0125975
-4.03995e-05
0.0125984
-3.02741e-05
0.0125986
-1.96211e-05
0.0125981
-8.44013e-06
0.0125968
3.2656e-06
0.0125947
1.54827e-05
0.0125917
2.82144e-05
0.012588
4.14474e-05
0.0125833
5.51689e-05
0.0125778
6.9362e-05
0.0125714
8.40089e-05
0.012564
9.90858e-05
0.0125557
0.00011457
0.0125464
0.00013043
0.0125362
0.00014664
0.012525
0.000163158
0.0125128
0.000179955
0.0124996
0.000196982
0.0124854
0.000214209
0.0124702
0.000231574
0.012454
0.00024905
0.0124369
0.000266567
0.0124188
0.000284099
0.0123997
0.000301567
0.0123797
0.000318954
0.0123588
0.00033617
0.012337
0.000353206
0.0123144
0.00036997
0.0122909
0.000386452
0.0122665
0.000402576
0.0122414
0.000418304
0.0122155
0.000433617
0.0121889
0.000448385
0.0121616
0.000462735
0.0121335
0.000476312
0.0121049
0.000489562
0.0120756
0.000501654
0.0120456
0.000513671
0.000523848
0.0122111
-0.000158131
0.0122208
-0.000157764
0.0122304
-0.000157157
0.0122399
-0.000156297
0.0122493
-0.000155168
0.0122585
-0.000153756
0.0122676
-0.000152044
0.0122765
-0.000150017
0.0122853
-0.000147657
0.0122938
-0.00014495
0.0123021
-0.000141878
0.0123101
-0.000138426
0.0123178
-0.000134576
0.0123252
-0.000130314
0.0123323
-0.000125623
0.0123389
-0.000120488
0.0123452
-0.000114894
0.0123511
-0.000108827
0.0123565
-0.000102273
0.0123615
-9.52184e-05
0.0123659
-8.76523e-05
0.0123698
-7.95636e-05
0.0123731
-7.09427e-05
0.0123758
-6.17814e-05
0.0123778
-5.20731e-05
0.0123793
-4.18128e-05
0.01238
-3.09973e-05
0.01238
-1.96253e-05
0.0123792
-7.69689e-06
0.0123777
4.78185e-06
0.0123754
1.78009e-05
0.0123723
3.13593e-05
0.0123683
4.5443e-05
0.0123634
6.0038e-05
0.0123576
7.51257e-05
0.012351
9.06865e-05
0.0123434
0.000106695
0.0123348
0.000123125
0.0123253
0.000139945
0.0123148
0.000157123
0.0123033
0.000174618
0.0122909
0.000192398
0.0122775
0.000210408
0.0122631
0.000228617
0.0122477
0.00024696
0.0122313
0.000265408
0.012214
0.000283884
0.0121957
0.000302364
0.0121765
0.000320763
0.0121564
0.000339063
0.0121354
0.000357169
0.0121136
0.000375074
0.0120909
0.000392682
0.0120673
0.000409982
0.012043
0.000426897
0.0120179
0.000443387
0.0119921
0.000459441
0.0119656
0.000474913
0.0119383
0.000489957
0.0119105
0.000504182
0.011882
0.000518087
0.0118528
0.000530767
0.0118231
0.000543413
0.000554109
0.0119986
-0.000167972
0.0120083
-0.000167537
0.012018
-0.000166845
0.0120276
-0.000165882
0.0120371
-0.000164632
0.0120464
-0.000163078
0.0120556
-0.000161204
0.0120645
-0.000158993
0.0120733
-0.000156429
0.0120819
-0.000153493
0.0120901
-0.000150169
0.0120982
-0.000146439
0.0121059
-0.000142288
0.0121132
-0.000137697
0.0121203
-0.000132651
0.0121269
-0.000127134
0.0121332
-0.00012113
0.012139
-0.000114625
0.0121443
-0.000107603
0.0121491
-0.000100053
0.0121534
-9.19616e-05
0.0121572
-8.33181e-05
0.0121604
-7.41127e-05
0.0121629
-6.43374e-05
0.0121648
-5.39857e-05
0.0121661
-4.30527e-05
0.0121666
-3.15358e-05
0.0121664
-1.94341e-05
0.0121655
-6.74809e-06
0.0121637
6.51328e-06
0.0121612
2.03428e-05
0.0121578
3.47357e-05
0.0121536
4.9677e-05
0.0121485
6.51514e-05
0.0121425
8.11384e-05
0.0121355
9.76166e-05
0.0121277
0.000114558
0.0121188
0.000131936
0.0121091
0.000149714
0.0120983
0.00016786
0.0120866
0.000186328
0.0120739
0.000205083
0.0120603
0.00022407
0.0120456
0.000243252
0.01203
0.000262562
0.0120135
0.000281967
0.011996
0.000301388
0.0119776
0.000320799
0.0119582
0.000340108
0.011938
0.0003593
0.0119169
0.000378275
0.0118949
0.000397024
0.0118721
0.000415448
0.0118486
0.000433538
0.0118243
0.000451218
0.0117992
0.000468441
0.0117735
0.000485205
0.011747
0.000501355
0.0117199
0.000517064
0.0116922
0.000531911
0.0116638
0.000546448
0.0116349
0.000559696
0.0116053
0.000572955
0.000584156
0.011791
-0.000177927
0.0118009
-0.000177416
0.0118106
-0.000176631
0.0118203
-0.000175556
0.0118299
-0.000174174
0.0118393
-0.00017247
0.0118485
-0.000170424
0.0118575
-0.000168019
0.0118663
-0.000165237
0.0118749
-0.000162061
0.0118832
-0.000158472
0.0118912
-0.000154454
0.0118989
-0.000149987
0.0119063
-0.000145056
0.0119132
-0.000139642
0.0119198
-0.000133729
0.011926
-0.000127302
0.0119317
-0.000120345
0.011937
-0.000112843
0.0119417
-0.000104783
0.0119459
-9.6153e-05
0.0119495
-8.69414e-05
0.0119525
-7.71386e-05
0.0119549
-6.67365e-05
0.0119567
-5.57289e-05
0.0119577
-4.41114e-05
0.0119581
-3.18815e-05
0.0119577
-1.90392e-05
0.0119565
-5.58507e-06
0.0119546
8.46857e-06
0.0119518
2.31172e-05
0.0119482
3.83526e-05
0.0119437
5.41587e-05
0.0119383
7.05184e-05
0.0119321
8.74096e-05
0.0119249
0.000104809
0.0119167
0.000122686
0.0119077
0.000141012
0.0118976
0.000159748
0.0118866
0.000178859
0.0118747
0.000198296
0.0118617
0.000218022
0.0118478
0.000237977
0.0118329
0.000258123
0.0118171
0.000278388
0.0118004
0.000298737
0.0117827
0.000319087
0.011764
0.000339411
0.0117445
0.000359612
0.0117242
0.000379674
0.0117029
0.000399493
0.0116809
0.00041906
0.0116581
0.000438276
0.0116345
0.000457128
0.0116102
0.000475542
0.0115851
0.000493468
0.0115594
0.000510915
0.0115331
0.000527712
0.0115061
0.000544059
0.0114785
0.000559502
0.0114503
0.000574648
0.0114215
0.000588441
0.0113922
0.000602298
0.000613992
0.0115882
-0.000187998
0.0115982
-0.000187403
0.0116081
-0.000186516
0.0116178
-0.000185319
0.0116274
-0.000183797
0.0116369
-0.00018193
0.0116462
-0.000179701
0.0116553
-0.00017709
0.0116641
-0.00017408
0.0116727
-0.000170652
0.011681
-0.000166786
0.011689
-0.000162466
0.0116967
-0.000157671
0.011704
-0.000152385
0.011711
-0.00014659
0.0117175
-0.000140268
0.0117236
-0.000133404
0.0117292
-0.000125981
0.0117344
-0.000117985
0.011739
-0.000109402
0.0117431
-0.000100219
0.0117466
-9.04263e-05
0.0117494
-8.00128e-05
0.0117517
-6.89711e-05
0.0117532
-5.72951e-05
0.0117541
-4.49808e-05
0.0117543
-3.20264e-05
0.0117536
-1.84323e-05
0.0117523
-4.19937e-06
0.0117501
1.0656e-05
0.0117471
2.61326e-05
0.0117432
4.22186e-05
0.0117385
5.88965e-05
0.0117328
7.61477e-05
0.0117263
9.39479e-05
0.0117188
0.000112272
0.0117104
0.000131087
0.0117011
0.000150363
0.0116908
0.000170055
0.0116795
0.000190129
0.0116673
0.000210532
0.0116541
0.000231222
0.0116399
0.000252138
0.0116248
0.000273238
0.0116087
0.000294446
0.0115917
0.000315726
0.0115738
0.00033699
0.011555
0.000358208
0.0115354
0.00037928
0.0115148
0.00040019
0.0114935
0.000420829
0.0114714
0.00044119
0.0114485
0.000461169
0.0114249
0.000480754
0.0114005
0.000499873
0.0113755
0.000518473
0.0113499
0.000536572
0.0113236
0.000553986
0.0112967
0.000570943
0.0112693
0.000586954
0.0112412
0.000602684
0.0112127
0.000617002
0.0111835
0.000631441
0.000643613
0.01139
-0.000198187
0.0114001
-0.000197499
0.0114101
-0.000196499
0.0114199
-0.000195172
0.0114296
-0.000193498
0.0114392
-0.000191458
0.0114485
-0.000189034
0.0114576
-0.000186207
0.0114665
-0.000182956
0.0114751
-0.000179262
0.0114834
-0.000175107
0.0114914
-0.000170471
0.0114991
-0.000165335
0.0115064
-0.000159681
0.0115133
-0.00015349
0.0115198
-0.000146745
0.0115258
-0.00013943
0.0115313
-0.000131527
0.0115364
-0.000123023
0.0115409
-0.000113902
0.0115448
-0.000104154
0.0115481
-9.37654e-05
0.0115509
-8.27278e-05
0.0115529
-7.10334e-05
0.0115543
-5.86764e-05
0.011555
-4.56531e-05
0.0115549
-3.19626e-05
0.0115541
-1.76054e-05
0.0115525
-2.58265e-06
0.01155
1.30836e-05
0.0115468
2.93971e-05
0.0115427
4.63418e-05
0.0115377
6.38986e-05
0.0115318
8.20472e-05
0.0115249
0.000100761
0.0115172
0.000120014
0.0115085
0.00013977
0.0114989
0.000159995
0.0114883
0.000180644
0.0114767
0.000201678
0.0114642
0.000223042