/*--------------------------------*- C++ -*----------------------------------*\
  =========                 |
  \\      /  F ield         | OpenFOAM: The Open Source CFD Toolbox
   \\    /   O peration     | Website:  https://openfoam.org
    \\  /    A nd           | Version:  7
     \\/     M anipulation  |
\*---------------------------------------------------------------------------*/
FoamFile
{
    version     2.0;
    format      ascii;
    class       volVectorField;
    location    "46.999526";
    object      U;
}
// * * * * * * * * * * * * * * * * * * * * * * * * * * * * * * * * * * * * * //

dimensions      [0 1 -1 0 0 0 0];

internalField   nonuniform List<vector> 
5800
(
(-0.105068 -0.0100286 -7.96131e-21)
(-0.132674 -0.0087156 -3.26612e-21)
(-0.153045 -0.00675783 2.00254e-20)
(-0.166504 -0.00427549 -7.84983e-21)
(-0.173204 -0.00146135 8.8518e-22)
(1.05184 -0.000813433 0)
(1.05245 -0.000796792 0)
(1.05306 -0.000779471 0)
(1.05367 -0.000761449 0)
(1.05427 -0.000742704 0)
(1.05488 -0.000723215 0)
(1.05548 -0.000702964 0)
(1.05607 -0.000681934 0)
(1.05666 -0.000660111 0)
(1.05724 -0.000637484 0)
(1.05781 -0.000614044 0)
(1.05837 -0.000589784 0)
(1.05892 -0.000564701 0)
(1.05945 -0.000538792 0)
(1.05997 -0.00051206 0)
(1.06048 -0.000484509 0)
(1.06096 -0.000456146 0)
(1.06142 -0.000426982 0)
(1.06187 -0.000397032 0)
(1.06228 -0.000366313 0)
(1.06267 -0.000334846 0)
(1.06304 -0.000302657 0)
(1.06337 -0.000269775 0)
(1.06367 -0.000236232 0)
(1.06393 -0.000202067 0)
(1.06416 -0.000167321 0)
(1.06435 -0.000132039 0)
(1.0645 -9.62706e-05 0)
(1.0646 -6.00723e-05 0)
(1.06466 -2.34993e-05 0)
(1.06466 1.3381e-05 0)
(1.06462 5.05072e-05 0)
(1.06452 8.78003e-05 0)
(1.06437 0.000125197 0)
(1.06415 0.000162601 0)
(1.06388 0.000199953 0)
(1.06354 0.000237136 0)
(1.06314 0.000274104 0)
(1.06267 0.000310709 0)
(1.06213 0.000346937 0)
(1.06153 0.000382587 0)
(1.06084 0.000417706 0)
(1.06009 0.000452009 0)
(1.05925 0.000485649 0)
(1.05836 0.000518206 0)
(1.05735 0.000550008 0)
(1.05632 0.000580418 0)
(1.05513 0.000610049 0)
(1.05396 0.000637918 0)
(1.05258 0.000665077 0)
(1.0513 0.000690023 0)
(1.04971 0.000714461 0)
(1.04834 0.000736118 0)
(1.0465 0.000757634 0)
(1.04508 0.00077566 0)
(1.04296 0.000794094 0)
(1.04156 0.000808187 0)
(1.03909 0.000823377 0)
(1.0378 0.000833313 0)
(1.03488 0.000844983 0)
(1.03384 0.00085073 0)
(1.03032 0.000858257 0)
(1.02974 0.000860345 0)
(1.0254 0.000862335 0)
(1.05205 -0.0024119 0)
(1.05267 -0.00236395 0)
(1.05328 -0.00231378 0)
(1.05389 -0.00226134 0)
(1.0545 -0.00220659 0)
(1.05511 -0.00214949 0)
(1.05571 -0.00208999 0)
(1.0563 -0.00202805 0)
(1.05689 -0.00196366 0)
(1.05747 -0.00189678 0)
(1.05805 -0.0018274 0)
(1.05861 -0.0017555 0)
(1.05916 -0.00168109 0)
(1.05969 -0.00160416 0)
(1.06021 -0.00152472 0)
(1.06072 -0.0014428 0)
(1.0612 -0.00135842 0)
(1.06167 -0.00127162 0)
(1.06211 -0.00118244 0)
(1.06253 -0.00109094 0)
(1.06292 -0.00099719 0)
(1.06328 -0.000901266 0)
(1.06362 -0.000803257 0)
(1.06392 -0.000703266 0)
(1.06418 -0.000601405 0)
(1.06441 -0.0004978 0)
(1.0646 -0.000392592 0)
(1.06474 -0.000285928 0)
(1.06485 -0.000177976 0)
(1.0649 -6.89076e-05 0)
(1.06491 4.10812e-05 0)
(1.06486 0.000151803 0)
(1.06476 0.000263028 0)
(1.0646 0.000374552 0)
(1.06439 0.000486105 0)
(1.06411 0.000597487 0)
(1.06377 0.000708378 0)
(1.06337 0.0008186 0)
(1.0629 0.000927768 0)
(1.06235 0.00103576 0)
(1.06175 0.00114208 0)
(1.06105 0.00124673 0)
(1.06031 0.00134906 0)
(1.05946 0.00144924 0)
(1.05857 0.0015464 0)
(1.05755 0.00164103 0)
(1.05652 0.00173185 0)
(1.05532 0.0018199 0)
(1.05416 0.00190326 0)
(1.05277 0.00198376 0)
(1.05148 0.0020586 0)
(1.04989 0.00213074 0)
(1.04851 0.00219605 0)
(1.04667 0.00225911 0)
(1.04525 0.00231404 0)
(1.04313 0.0023674 0)
(1.04172 0.00241118 0)
(1.03924 0.00245423 0)
(1.03795 0.00248632 0)
(1.03502 0.00251821 0)
(1.03398 0.00253841 0)
(1.03046 0.0025577 0)
(1.02988 0.00256671 0)
(1.02553 0.0025707 0)
(1.05248 -0.0039964 0)
(1.0531 -0.0039167 0)
(1.05371 -0.00383328 0)
(1.05433 -0.00374609 0)
(1.05494 -0.00365506 0)
(1.05555 -0.00356013 0)
(1.05616 -0.00346124 0)
(1.05676 -0.00335832 0)
(1.05735 -0.00325135 0)
(1.05793 -0.00314027 0)
(1.05851 -0.00302507 0)
(1.05907 -0.00290572 0)
(1.05963 -0.00278222 0)
(1.06017 -0.00265457 0)
(1.06069 -0.00252279 0)
(1.06119 -0.00238692 0)
(1.06168 -0.00224699 0)
(1.06215 -0.00210308 0)
(1.06259 -0.00195525 0)
(1.06301 -0.0018036 0)
(1.0634 -0.00164824 0)
(1.06377 -0.0014893 0)
(1.0641 -0.00132693 0)
(1.0644 -0.0011613 0)
(1.06467 -0.000992599 0)
(1.06489 -0.000821031 0)
(1.06508 -0.000646828 0)
(1.06522 -0.000470238 0)
(1.06532 -0.000291538 0)
(1.06538 -0.000111012 0)
(1.06538 7.10172e-05 0)
(1.06533 0.000254231 0)
(1.06523 0.00043826 0)
(1.06507 0.000622752 0)
(1.06485 0.000807282 0)
(1.06457 0.000991487 0)
(1.06422 0.00117488 0)
(1.06381 0.00135712 0)
(1.06334 0.00153763 0)
(1.06279 0.0017161 0)
(1.06217 0.00189189 0)
(1.06148 0.00206477 0)
(1.06072 0.00223392 0)
(1.05986 0.00239934 0)
(1.05897 0.00255996 0)
(1.05794 0.00271607 0)
(1.0569 0.00286628 0)
(1.0557 0.00301132 0)
(1.05453 0.00314933 0)
(1.05313 0.00328168 0)
(1.05184 0.00340581 0)
(1.05023 0.00352399 0)
(1.04885 0.00363275 0)
(1.047 0.00373547 0)
(1.04557 0.00382757 0)
(1.04344 0.00391363 0)
(1.04203 0.00398802 0)
(1.03954 0.00405629 0)
(1.03824 0.00411219 0)
(1.03531 0.00416129 0)
(1.03427 0.00419827 0)
(1.03073 0.00422632 0)
(1.03015 0.00424446 0)
(1.02578 0.00424863 0)
(1.0531 -0.00555917 0)
(1.05372 -0.00544803 0)
(1.05434 -0.00533172 0)
(1.05497 -0.00521016 0)
(1.05558 -0.00508325 0)
(1.0562 -0.00495092 0)
(1.05681 -0.00481307 0)
(1.05742 -0.00466962 0)
(1.05801 -0.00452052 0)
(1.0586 -0.00436572 0)
(1.05918 -0.00420517 0)
(1.05975 -0.00403885 0)
(1.06031 -0.00386676 0)
(1.06085 -0.0036889 0)
(1.06138 -0.0035053 0)
(1.06189 -0.00331601 0)
(1.06238 -0.00312109 0)
(1.06285 -0.00292063 0)
(1.0633 -0.00271474 0)
(1.06372 -0.00250354 0)
(1.06411 -0.00228721 0)
(1.06447 -0.00206591 0)
(1.06481 -0.00183986 0)
(1.06511 -0.0016093 0)
(1.06537 -0.00137448 0)
(1.0656 -0.00113571 0)
(1.06578 -0.000893296 0)
(1.06592 -0.000647597 0)
(1.06602 -0.000398994 0)
(1.06607 -0.000147887 0)
(1.06607 0.000105275 0)
(1.06602 0.000360044 0)
(1.06591 0.000615908 0)
(1.06574 0.000872371 0)
(1.06552 0.00112885 0)
(1.06523 0.00138483 0)
(1.06488 0.00163966 0)
(1.06446 0.0018928 0)
(1.06398 0.00214354 0)
(1.06342 0.00239137 0)
(1.0628 0.00263545 0)
(1.06209 0.00287539 0)
(1.06133 0.0031102 0)
(1.06046 0.00333966 0)
(1.05955 0.00356256 0)
(1.05852 0.00377896 0)
(1.05746 0.00398737 0)
(1.05625 0.00418826 0)
(1.05507 0.00437973 0)
(1.05366 0.00456282 0)
(1.05236 0.00473508 0)
(1.05074 0.0048983 0)
(1.04935 0.00504936 0)
(1.04749 0.00519085 0)
(1.04604 0.005319 0)
(1.0439 0.00543712 0)
(1.04248 0.00554099 0)
(1.03998 0.00563412 0)
(1.03867 0.00571268 0)
(1.03572 0.00577901 0)
(1.03468 0.00583158 0)
(1.03112 0.00586876 0)
(1.03054 0.00589509 0)
(1.02615 0.00589968 0)
(1.0539 -0.00711 0)
(1.05453 -0.00696745 0)
(1.05516 -0.00681825 0)
(1.05579 -0.00666231 0)
(1.05642 -0.00649952 0)
(1.05704 -0.00632977 0)
(1.05766 -0.00615295 0)
(1.05828 -0.00596896 0)
(1.05888 -0.00577773 0)
(1.05948 -0.0055792 0)
(1.06006 -0.00537331 0)
(1.06064 -0.00516006 0)
(1.0612 -0.00493943 0)
(1.06175 -0.00471143 0)
(1.06228 -0.00447611 0)
(1.06279 -0.00423352 0)
(1.06329 -0.00398375 0)
(1.06376 -0.00372692 0)
(1.06421 -0.00346317 0)
(1.06463 -0.00319266 0)
(1.06503 -0.00291562 0)
(1.06539 -0.00263227 0)
(1.06573 -0.00234288 0)
(1.06603 -0.00204776 0)
(1.06629 -0.00174726 0)
(1.06651 -0.00144174 0)
(1.06669 -0.00113163 0)
(1.06683 -0.000817362 0)
(1.06693 -0.000499442 0)
(1.06697 -0.000178384 0)
(1.06697 0.00014524 0)
(1.06691 0.00047085 0)
(1.06679 0.000797795 0)
(1.06662 0.00112543 0)
(1.06639 0.00145303 0)
(1.06609 0.00177991 0)
(1.06573 0.00210524 0)
(1.0653 0.00242835 0)
(1.06481 0.00274832 0)
(1.06424 0.00306448 0)
(1.06361 0.00337582 0)
(1.06289 0.00368175 0)
(1.06211 0.0039811 0)
(1.06123 0.00427348 0)
(1.06031 0.00455751 0)
(1.05926 0.00483307 0)
(1.05819 0.0050985 0)
(1.05697 0.00535409 0)
(1.05577 0.00559782 0)
(1.05435 0.00583054 0)
(1.05303 0.00604974 0)
(1.0514 0.00625694 0)
(1.04999 0.00644912 0)
(1.04811 0.00662846 0)
(1.04666 0.0067915 0)
(1.0445 0.00694091 0)
(1.04306 0.00707313 0)
(1.04055 0.00719059 0)
(1.03923 0.00729073 0)
(1.03626 0.00737405 0)
(1.03521 0.00744124 0)
(1.03163 0.00748755 0)
(1.03104 0.00752133 0)
(1.02663 0.00752644 0)
(1.05488 -0.0086527 0)
(1.05553 -0.00847848 0)
(1.05617 -0.00829615 0)
(1.05681 -0.00810561 0)
(1.05744 -0.00790672 0)
(1.05808 -0.00769933 0)
(1.0587 -0.00748334 0)
(1.05932 -0.00725862 0)
(1.05994 -0.00702509 0)
(1.06054 -0.00678267 0)
(1.06114 -0.00653132 0)
(1.06172 -0.00627101 0)
(1.06229 -0.00600173 0)
(1.06284 -0.0057235 0)
(1.06338 -0.00543638 0)
(1.0639 -0.00514045 0)
(1.06439 -0.00483581 0)
(1.06487 -0.00452262 0)
(1.06532 -0.00420104 0)
(1.06575 -0.0038713 0)
(1.06614 -0.00353364 0)
(1.06651 -0.00318837 0)
(1.06685 -0.00283581 0)
(1.06714 -0.00247635 0)
(1.06741 -0.0021104 0)
(1.06763 -0.00173842 0)
(1.06781 -0.00136093 0)
(1.06794 -0.000978467 0)
(1.06803 -0.000591645 0)
(1.06807 -0.000201096 0)
(1.06806 0.000192483 0)
(1.06799 0.000588378 0)
(1.06787 0.000985799 0)
(1.06769 0.00138396 0)
(1.06745 0.00178197 0)
(1.06714 0.002179 0)
(1.06677 0.00257405 0)
(1.06633 0.00296628 0)
(1.06582 0.0033546 0)
(1.06524 0.00373817 0)
(1.06459 0.00411578 0)
(1.06386 0.00448669 0)
(1.06306 0.00484955 0)
(1.06217 0.00520378 0)
(1.06123 0.00554783 0)
(1.06016 0.00588141 0)
(1.05908 0.0062027 0)
(1.05784 0.00651184 0)
(1.05662 0.00680666 0)
(1.05518 0.00708784 0)
(1.05385 0.00735279 0)
(1.05219 0.00760285 0)
(1.05077 0.00783497 0)
(1.04888 0.00805111 0)
(1.04741 0.00824792 0)
(1.04522 0.00842766 0)
(1.04377 0.00858721 0)
(1.04124 0.00872821 0)
(1.03991 0.00884904 0)
(1.03692 0.00894873 0)
(1.03585 0.00902985 0)
(1.03226 0.0090849 0)
(1.03166 0.00912572 0)
(1.02722 0.00913118 0)
(1.05604 -0.010191 0)
(1.05669 -0.00998477 0)
(1.05734 -0.00976899 0)
(1.05799 -0.00954351 0)
(1.05864 -0.00930817 0)
(1.05929 -0.00906283 0)
(1.05992 -0.00880734 0)
(1.06055 -0.00854156 0)
(1.06118 -0.00826539 0)
(1.06179 -0.00797877 0)
(1.06239 -0.00768163 0)
(1.06298 -0.00737395 0)
(1.06356 -0.00705573 0)
(1.06412 -0.00672701 0)
(1.06467 -0.00638784 0)
(1.06519 -0.00603832 0)
(1.06569 -0.0056786 0)
(1.06617 -0.00530884 0)
(1.06663 -0.00492927 0)
(1.06706 -0.00454015 0)
(1.06746 -0.00414179 0)
(1.06782 -0.00373452 0)
(1.06816 -0.00331876 0)
(1.06846 -0.00289496 0)
(1.06872 -0.00246361 0)
(1.06894 -0.00202527 0)
(1.06911 -0.00158054 0)
(1.06924 -0.00113008 0)
(1.06933 -0.000674597 0)
(1.06936 -0.000214849 0)
(1.06934 0.000248336 0)
(1.06926 0.000714116 0)
(1.06913 0.00118156 0)
(1.06894 0.00164973 0)
(1.06869 0.00211758 0)
(1.06837 0.00258413 0)
(1.06798 0.00304823 0)
(1.06753 0.00350884 0)
(1.06701 0.00396471 0)
(1.06641 0.00441485 0)
(1.06574 0.00485784 0)
(1.06499 0.0052928 0)
(1.06418 0.00571816 0)
(1.06327 0.00613321 0)
(1.06231 0.0065362 0)
(1.06122 0.0069267 0)
(1.06012 0.00730271 0)
(1.05885 0.00766425 0)
(1.05762 0.00800895 0)
(1.05616 0.00833742 0)
(1.0548 0.00864691 0)
(1.05313 0.00893865 0)
(1.05168 0.00920952 0)
(1.04977 0.00946131 0)
(1.04828 0.00969076 0)
(1.04607 0.00989979 0)
(1.04461 0.0100856 0)
(1.04205 0.0102493 0)
(1.0407 0.0103899 0)
(1.03769 0.0105052 0)
(1.03661 0.0105996 0)
(1.03298 0.0106629 0)
(1.03238 0.0107104 0)
(1.0279 0.010716 0)
(1.05735 -0.0117287 0)
(1.05802 -0.01149 0)
(1.05869 -0.0112403 0)
(1.05935 -0.0109794 0)
(1.06001 -0.0107071 0)
(1.06067 -0.0104233 0)
(1.06132 -0.0101278 0)
(1.06196 -0.00982042 0)
(1.06259 -0.00950112 0)
(1.06322 -0.00916978 0)
(1.06383 -0.00882636 0)
(1.06443 -0.00847083 0)
(1.06502 -0.0081032 0)
(1.06558 -0.0077235 0)
(1.06614 -0.00733183 0)
(1.06667 -0.00692831 0)
(1.06718 -0.0065131 0)
(1.06766 -0.00608641 0)
(1.06812 -0.00564851 0)
(1.06855 -0.00519969 0)
(1.06895 -0.00474033 0)
(1.06932 -0.00427083 0)
(1.06966 -0.00379167 0)
(1.06995 -0.00330337 0)
(1.07021 -0.00280651 0)
(1.07043 -0.00230174 0)
(1.0706 -0.00178976 0)
(1.07072 -0.00127133 0)
(1.0708 -0.000747277 0)
(1.07083 -0.000218481 0)
(1.0708 0.000314103 0)
(1.07071 0.000849497 0)
(1.07057 0.00138662 0)
(1.07037 0.00192441 0)
(1.0701 0.00246166 0)
(1.06976 0.00299721 0)
(1.06937 0.00352976 0)
(1.06889 0.00405811 0)
(1.06836 0.00458082 0)
(1.06774 0.00509675 0)
(1.06706 0.00560429 0)
(1.06628 0.00610239 0)
(1.06545 0.00658931 0)
(1.06451 0.00706418 0)
(1.06354 0.00752506 0)
(1.06243 0.0079714 0)
(1.0613 0.00840099 0)
(1.06001 0.00881375 0)
(1.05875 0.00920715 0)
(1.05727 0.0095817 0)
(1.05589 0.00993449 0)
(1.05419 0.0102667 0)
(1.05272 0.0105751 0)
(1.05078 0.0108613 0)
(1.04927 0.0111223 0)
(1.04704 0.0113595 0)
(1.04555 0.0115705 0)
(1.04296 0.0117558 0)
(1.04161 0.0119153 0)
(1.03856 0.0120455 0)
(1.03747 0.0121525 0)
(1.03381 0.0122234 0)
(1.0332 0.0122772 0)
(1.02868 0.0122826 0)
(1.05883 -0.013269 0)
(1.05951 -0.0129972 0)
(1.06019 -0.0127129 0)
(1.06087 -0.0124159 0)
(1.06155 -0.0121061 0)
(1.06222 -0.0117831 0)
(1.06288 -0.0114469 0)
(1.06353 -0.0110974 0)
(1.06418 -0.0107343 0)
(1.06482 -0.0103576 0)
(1.06544 -0.00996723 0)
(1.06605 -0.0095632 0)
(1.06664 -0.00914552 0)
(1.06722 -0.00871425 0)
(1.06778 -0.00826948 0)
(1.06832 -0.00781137 0)
(1.06883 -0.00734011 0)
(1.06932 -0.00685596 0)
(1.06979 -0.00635921 0)
(1.07022 -0.00585023 0)
(1.07063 -0.00532944 0)
(1.071 -0.00479731 0)
(1.07133 -0.00425439 0)
(1.07163 -0.00370128 0)
(1.07188 -0.00313865 0)
(1.07209 -0.00256724 0)
(1.07226 -0.00198785 0)
(1.07238 -0.00140136 0)
(1.07245 -0.000808705 0)
(1.07247 -0.000210885 0)
(1.07243 0.00039101 0)
(1.07233 0.000995864 0)
(1.07218 0.00160246 0)
(1.07196 0.00220957 0)
(1.07168 0.00281584 0)
(1.07133 0.00341997 0)
(1.07091 0.00402046 0)
(1.07042 0.00461598 0)
(1.06986 0.00520489 0)
(1.06922 0.00578589 0)
(1.06852 0.0063572 0)
(1.06772 0.0069176 0)
(1.06687 0.00746516 0)
(1.06591 0.00799888 0)
(1.0649 0.00851661 0)
(1.06377 0.0090177 0)
(1.06262 0.00949973 0)
(1.0613 0.00996255 0)
(1.06002 0.0104034 0)
(1.0585 0.0108228 0)
(1.0571 0.0112177 0)
(1.05537 0.0115891 0)
(1.05388 0.0119337 0)
(1.05191 0.0122532 0)
(1.05038 0.0125444 0)
(1.04811 0.0128086 0)
(1.04661 0.0130437 0)
(1.04399 0.0132496 0)
(1.04262 0.0134271 0)
(1.03953 0.0135713 0)
(1.03843 0.0136901 0)
(1.03473 0.0137681 0)
(1.03412 0.0138278 0)
(1.02955 0.0138326 0)
(1.06046 -0.0148148 0)
(1.06116 -0.0145091 0)
(1.06186 -0.0141895 0)
(1.06255 -0.0138557 0)
(1.06324 -0.0135074 0)
(1.06392 -0.0131446 0)
(1.0646 -0.012767 0)
(1.06527 -0.0123744 0)
(1.06593 -0.0119667 0)
(1.06658 -0.0115438 0)
(1.06721 -0.0111058 0)
(1.06784 -0.0106525 0)
(1.06844 -0.010184 0)
(1.06903 -0.00970033 0)
(1.0696 -0.00920172 0)
(1.07014 -0.00868829 0)
(1.07066 -0.00816028 0)
(1.07116 -0.00761798 0)
(1.07163 -0.00706175 0)
(1.07206 -0.00649199 0)
(1.07247 -0.00590919 0)
(1.07284 -0.0053139 0)
(1.07317 -0.00470672 0)
(1.07347 -0.00408836 0)
(1.07372 -0.00345957 0)
(1.07393 -0.00282118 0)
(1.07409 -0.00217411 0)
(1.0742 -0.00151934 0)
(1.07426 -0.000857927 0)
(1.07427 -0.000190995 0)
(1.07422 0.000480227 0)
(1.07411 0.00115449 0)
(1.07394 0.00183042 0)
(1.07371 0.00250666 0)
(1.07341 0.00318168 0)
(1.07304 0.00385403 0)
(1.07261 0.00452203 0)
(1.07209 0.0051842 0)
(1.07152 0.00583873 0)
(1.07085 0.00648414 0)
(1.07013 0.00711846 0)
(1.0693 0.00774035 0)
(1.06842 0.00834767 0)
(1.06744 0.00893928 0)
(1.06641 0.00951284 0)
(1.06524 0.0100676 0)
(1.06407 0.0106009 0)
(1.06272 0.0111126 0)
(1.06141 0.0115997 0)
(1.05986 0.0120627 0)
(1.05843 0.0124983 0)
(1.05667 0.0129076 0)
(1.05515 0.0132872 0)
(1.05315 0.0136387 0)
(1.05159 0.0139588 0)
(1.0493 0.0142488 0)
(1.04777 0.0145069 0)
(1.04511 0.0147322 0)
(1.04372 0.0149267 0)
(1.0406 0.0150839 0)
(1.03949 0.015214 0)
(1.03575 0.0152983 0)
(1.03513 0.0153635 0)
(1.03051 0.0153675 0)
(1.06223 -0.0163685 0)
(1.06295 -0.0160282 0)
(1.06367 -0.0156724 0)
(1.06438 -0.0153008 0)
(1.06509 -0.0149133 0)
(1.06579 -0.0145097 0)
(1.06648 -0.0140896 0)
(1.06717 -0.0136531 0)
(1.06784 -0.0131999 0)
(1.0685 -0.01273 0)
(1.06915 -0.0122432 0)
(1.06978 -0.0117397 0)
(1.0704 -0.0112195 0)
(1.071 -0.0106826 0)
(1.07157 -0.0101293 0)
(1.07213 -0.00955967 0)
(1.07266 -0.00897407 0)
(1.07316 -0.00837282 0)
(1.07363 -0.00775632 0)
(1.07407 -0.00712504 0)
(1.07448 -0.00647953 0)
(1.07485 -0.00582041 0)
(1.07518 -0.00514838 0)
(1.07548 -0.0044642 0)
(1.07573 -0.00376875 0)
(1.07593 -0.00306294 0)
(1.07608 -0.0023478 0)
(1.07619 -0.00162443 0)
(1.07624 -0.000894001 0)
(1.07623 -0.000157772 0)
(1.07617 0.00058288 0)
(1.07605 0.00132657 0)
(1.07586 0.0020718 0)
(1.07561 0.00281704 0)
(1.07529 0.00356061 0)
(1.07491 0.00430088 0)
(1.07445 0.00503602 0)
(1.07392 0.00576439 0)
(1.07331 0.00648398 0)
(1.07262 0.00719317 0)
(1.07187 0.00788981 0)
(1.07102 0.0085724 0)
(1.07011 0.00923859 0)
(1.0691 0.00988715 0)
(1.06804 0.0105155 0)
(1.06684 0.0111229 0)
(1.06563 0.0117064 0)
(1.06425 0.0122657 0)
(1.06291 0.0127978 0)
(1.06133 0.0133031 0)
(1.05987 0.0137782 0)
(1.05808 0.014224 0)
(1.05653 0.0146373 0)
(1.05449 0.0150193 0)
(1.05291 0.0153671 0)
(1.05058 0.0156816 0)
(1.04903 0.0159614 0)
(1.04633 0.0162051 0)
(1.04492 0.0164156 0)
(1.04176 0.0165849 0)
(1.04064 0.0167253 0)
(1.03685 0.0168153 0)
(1.03622 0.0168856 0)
(1.03156 0.0168883 0)
(1.06416 -0.0179325 0)
(1.0649 -0.0175565 0)
(1.06563 -0.0171635 0)
(1.06636 -0.0167532 0)
(1.06709 -0.0163254 0)
(1.0678 -0.0158799 0)
(1.06851 -0.0154165 0)
(1.06921 -0.014935 0)
(1.0699 -0.0144352 0)
(1.07058 -0.0139171 0)
(1.07124 -0.0133807 0)
(1.07189 -0.0128259 0)
(1.07252 -0.0122529 0)
(1.07312 -0.0116618 0)
(1.07371 -0.0110527 0)
(1.07427 -0.0104259 0)
(1.07481 -0.0097818 0)
(1.07532 -0.00912066 0)
(1.07579 -0.008443 0)
(1.07624 -0.00774934 0)
(1.07665 -0.00704031 0)
(1.07702 -0.0063166 0)
(1.07735 -0.00557898 0)
(1.07764 -0.00482834 0)
(1.07789 -0.00406561 0)
(1.07808 -0.00329184 0)
(1.07823 -0.00250816 0)
(1.07833 -0.00171578 0)
(1.07837 -0.000916027 0)
(1.07835 -0.000110212 0)
(1.07827 0.000700065 0)
(1.07813 0.00151329 0)
(1.07793 0.00232783 0)
(1.07766 0.00314201 0)
(1.07732 0.00395396 0)
(1.07691 0.00476191 0)
(1.07643 0.00556387 0)
(1.07587 0.00635801 0)
(1.07524 0.00714216 0)
(1.07453 0.00791454 0)
(1.07375 0.00867281 0)
(1.07287 0.00941532 0)
(1.07193 0.0101395 0)
(1.07088 0.0108441 0)
(1.06979 0.0115263 0)
(1.06856 0.0121851 0)
(1.06732 0.0128176 0)
(1.0659 0.0134234 0)
(1.06453 0.0139993 0)
(1.06291 0.0145455 0)
(1.06142 0.0150587 0)
(1.05959 0.0155397 0)
(1.05801 0.0159852 0)
(1.05594 0.0163965 0)
(1.05432 0.0167706 0)
(1.05195 0.0171083 0)
(1.05038 0.0174086 0)
(1.04765 0.0176694 0)
(1.04621 0.0178947 0)
(1.04301 0.0180751 0)
(1.04187 0.0182251 0)
(1.03803 0.01832 0)
(1.0374 0.018395 0)
(1.03268 0.018396 0)
(1.06622 -0.0195086 0)
(1.06698 -0.0190959 0)
(1.06773 -0.0186647 0)
(1.06848 -0.0182145 0)
(1.06923 -0.0177454 0)
(1.06997 -0.0172569 0)
(1.07069 -0.0167489 0)
(1.07141 -0.0162212 0)
(1.07212 -0.0156737 0)
(1.07281 -0.0151063 0)
(1.07349 -0.014519 0)
(1.07415 -0.0139118 0)
(1.07479 -0.0132849 0)
(1.07541 -0.0126384 0)
(1.076 -0.0119724 0)
(1.07657 -0.0112874 0)
(1.07712 -0.0105836 0)
(1.07763 -0.00986158 0)
(1.07811 -0.00912176 0)
(1.07856 -0.00836476 0)
(1.07897 -0.00759129 0)
(1.07934 -0.00680212 0)
(1.07967 -0.00599812 0)
(1.07996 -0.00518024 0)
(1.0802 -0.00434955 0)
(1.08039 -0.00350719 0)
(1.08053 -0.00265441 0)
(1.08061 -0.00179256 0)
(1.08064 -0.000923051 0)
(1.08061 -4.74875e-05 0)
(1.08052 0.000832654 0)
(1.08036 0.00171566 0)
(1.08014 0.00259963 0)
(1.07985 0.00348274 0)
(1.07949 0.00436298 0)
(1.07906 0.00523844 0)
(1.07855 0.00610691 0)
(1.07796 0.00696645 0)
(1.07731 0.00781468 0)
(1.07656 0.00864968 0)
(1.07575 0.0094689 0)
(1.07484 0.0102706 0)
(1.07387 0.011052 0)
(1.07278 0.0118116 0)
(1.07165 0.0125466 0)
(1.07039 0.0132558 0)
(1.06911 0.0139361 0)
(1.06766 0.0145872 0)
(1.06625 0.0152054 0)
(1.0646 0.0157913 0)
(1.06307 0.0163411 0)
(1.0612 0.016856 0)
(1.05959 0.0173323 0)
(1.05747 0.0177713 0)
(1.05583 0.0181703 0)
(1.05342 0.0185298 0)
(1.05182 0.0188493 0)
(1.04904 0.0191261 0)
(1.04759 0.0193651 0)
(1.04434 0.0195556 0)
(1.04318 0.0197143 0)
(1.0393 0.0198134 0)
(1.03865 0.0198926 0)
(1.03388 0.0198915 0)
(1.06842 -0.0210987 0)
(1.0692 -0.0206481 0)
(1.06998 -0.0201774 0)
(1.07075 -0.0196862 0)
(1.07151 -0.0191744 0)
(1.07227 -0.0186416 0)
(1.07302 -0.0180878 0)
(1.07375 -0.0175127 0)
(1.07448 -0.0169161 0)
(1.07519 -0.0162982 0)
(1.07588 -0.0156587 0)
(1.07655 -0.0149979 0)
(1.0772 -0.0143158 0)
(1.07783 -0.0136126 0)
(1.07844 -0.0128886 0)
(1.07902 -0.0121441 0)
(1.07957 -0.0113796 0)
(1.08009 -0.0105955 0)
(1.08058 -0.00979242 0)
(1.08103 -0.00897104 0)
(1.08144 -0.00813214 0)
(1.08181 -0.00727656 0)
(1.08214 -0.00640527 0)
(1.08242 -0.00551934 0)
(1.08266 -0.00461992 0)
(1.08284 -0.00370828 0)
(1.08297 -0.00278577 0)
(1.08304 -0.00185388 0)
(1.08306 -0.000914148 0)
(1.08301 3.16699e-05 0)
(1.0829 0.000981982 0)
(1.08273 0.00193491 0)
(1.08249 0.0028884 0)
(1.08217 0.00384045 0)
(1.08179 0.0047889 0)
(1.08133 0.00573167 0)
(1.0808 0.00666641 0)
(1.08018 0.00759097 0)
(1.07949 0.00850282 0)
(1.07872 0.00939986 0)
(1.07787 0.0102794 0)
(1.07692 0.0111395 0)
(1.07592 0.0119772 0)
(1.07479 0.012791 0)
(1.07363 0.0135777 0)
(1.07233 0.0143362 0)
(1.07101 0.0150631 0)
(1.06952 0.0157581 0)
(1.06807 0.0164175 0)
(1.06638 0.0170416 0)
(1.06481 0.0176267 0)
(1.0629 0.0181739 0)
(1.06126 0.0186795 0)
(1.0591 0.0191449 0)
(1.05742 0.0195674 0)
(1.05497 0.0199473 0)
(1.05334 0.0202846 0)
(1.05052 0.020576 0)
(1.04904 0.0208276 0)
(1.04575 0.0210271 0)
(1.04457 0.0211936 0)
(1.04064 0.0212962 0)
(1.03999 0.021379 0)
(1.03515 0.0213755 0)
(1.07075 -0.0227041 0)
(1.07156 -0.0222144 0)
(1.07236 -0.0217029 0)
(1.07315 -0.0211693 0)
(1.07394 -0.0206135 0)
(1.07471 -0.0200352 0)
(1.07548 -0.0194342 0)
(1.07624 -0.0188102 0)
(1.07698 -0.0181633 0)
(1.0777 -0.0174934 0)
(1.07841 -0.0168004 0)
(1.0791 -0.0160845 0)
(1.07976 -0.0153459 0)
(1.08041 -0.0145848 0)
(1.08102 -0.0138014 0)
(1.08161 -0.0129962 0)
(1.08217 -0.0121696 0)
(1.0827 -0.0113222 0)
(1.08319 -0.0104547 0)
(1.08364 -0.00956784 0)
(1.08405 -0.00866242 0)
(1.08442 -0.00773942 0)
(1.08475 -0.00679989 0)
(1.08503 -0.00584501 0)
(1.08525 -0.00487603 0)
(1.08543 -0.00389434 0)
(1.08555 -0.00290143 0)
(1.08561 -0.00189888 0)
(1.08561 -0.000888417 0)
(1.08555 0.000128225 0)
(1.08542 0.00114904 0)
(1.08522 0.00217206 0)
(1.08496 0.00319515 0)
(1.08462 0.00421618 0)
(1.08421 0.00523279 0)
(1.08373 0.00624274 0)
(1.08316 0.00724348 0)
(1.08252 0.00823273 0)
(1.0818 0.00920774 0)
(1.08098 0.0101663 0)
(1.0801 0.0111055 0)
(1.07912 0.0120232 0)
(1.07808 0.0129164 0)
(1.07692 0.0137834 0)
(1.07571 0.0146207 0)
(1.07437 0.0154274 0)
(1.07301 0.0161998 0)
(1.07148 0.0169374 0)
(1.06999 0.0176365 0)
(1.06825 0.0182975 0)
(1.06665 0.0189164 0)
(1.06469 0.0194945 0)
(1.06301 0.0200279 0)
(1.06081 0.0205181 0)
(1.0591 0.0209625 0)
(1.0566 0.0213614 0)
(1.05494 0.0217151 0)
(1.05208 0.0220198 0)
(1.05057 0.0222827 0)
(1.04723 0.0224902 0)
(1.04604 0.0226636 0)
(1.04205 0.0227688 0)
(1.04139 0.0228548 0)
(1.03649 0.0228484 0)
(1.07321 -0.0243263 0)
(1.07405 -0.023796 0)
(1.07487 -0.0232423 0)
(1.07569 -0.0226649 0)
(1.0765 -0.0220637 0)
(1.07729 -0.0214383 0)
(1.07808 -0.0207886 0)
(1.07886 -0.0201144 0)
(1.07962 -0.0194156 0)
(1.08036 -0.0186922 0)
(1.08108 -0.0179443 0)
(1.08179 -0.0171719 0)
(1.08247 -0.0163753 0)
(1.08312 -0.0155548 0)
(1.08375 -0.0147106 0)
(1.08435 -0.0138433 0)
(1.08491 -0.0129534 0)
(1.08544 -0.0120415 0)
(1.08594 -0.0111083 0)
(1.08639 -0.0101547 0)
(1.0868 -0.00918164 0)
(1.08717 -0.00819014 0)
(1.0875 -0.00718136 0)
(1.08777 -0.00615657 0)
(1.08799 -0.00511717 0)
(1.08815 -0.00406463 0)
(1.08826 -0.00300059 0)
(1.08831 -0.00192676 0)
(1.08829 -0.00084499 0)
(1.08821 0.000242786 0)
(1.08807 0.00133445 0)
(1.08785 0.0024279 0)
(1.08756 0.00352082 0)
(1.0872 0.00461092 0)
(1.08676 0.00569569 0)
(1.08624 0.00677269 0)
(1.08565 0.00783921 0)
(1.08497 0.0088928 0)
(1.08421 0.00993053 0)
(1.08336 0.01095 0)
(1.08244 0.0119482 0)
(1.08142 0.0129228 0)
(1.08034 0.0138706 0)
(1.07914 0.0147898 0)
(1.07789 0.0156768 0)
(1.0765 0.0165305 0)
(1.07511 0.017347 0)
(1.07353 0.018126 0)
(1.072 0.0188635 0)
(1.07022 0.0195599 0)
(1.06857 0.0202111 0)
(1.06657 0.0208185 0)
(1.06485 0.0213782 0)
(1.0626 0.0218917 0)
(1.06085 0.0223565 0)
(1.05831 0.0227728 0)
(1.05662 0.0231415 0)
(1.05371 0.023458 0)
(1.05218 0.0237311 0)
(1.04878 0.0239453 0)
(1.04758 0.0241248 0)
(1.04353 0.0242317 0)
(1.04286 0.0243204 0)
(1.0379 0.0243106 0)
(1.0758 -0.0259661 0)
(1.07666 -0.0253938 0)
(1.07751 -0.0247964 0)
(1.07835 -0.0241737 0)
(1.07919 -0.0235255 0)
(1.08001 -0.0228516 0)
(1.08082 -0.0221516 0)
(1.08161 -0.0214256 0)
(1.08239 -0.0206733 0)
(1.08315 -0.0198949 0)
(1.08389 -0.0190905 0)
(1.08461 -0.0182601 0)
(1.0853 -0.017404 0)
(1.08597 -0.0165225 0)
(1.08661 -0.0156161 0)
(1.08721 -0.0146853 0)
(1.08779 -0.0137306 0)
(1.08832 -0.0127528 0)
(1.08882 -0.0117527 0)
(1.08928 -0.0107311 0)
(1.08969 -0.00968922 0)
(1.09006 -0.00862809 0)
(1.09037 -0.00754899 0)
(1.09064 -0.00645332 0)
(1.09085 -0.00534257 0)
(1.091 -0.00421835 0)
(1.0911 -0.00308244 0)
(1.09113 -0.00193666 0)
(1.0911 -0.000783031 0)
(1.091 0.000376375 0)
(1.09083 0.0015393 0)
(1.09059 0.00270347 0)
(1.09028 0.00386642 0)
(1.08989 0.00502569 0)
(1.08942 0.00617858 0)
(1.08887 0.00732251 0)
(1.08824 0.00845457 0)
(1.08753 0.00957217 0)
(1.08673 0.0106722 0)
(1.08585 0.0117521 0)
(1.08489 0.0128086 0)
(1.08382 0.0138393 0)
(1.0827 0.0148408 0)
(1.08145 0.0158113 0)
(1.08016 0.0167468 0)
(1.07873 0.0176463 0)
(1.07729 0.0185058 0)
(1.07567 0.0193248 0)
(1.07409 0.0200992 0)
(1.07226 0.0208295 0)
(1.07057 0.0215115 0)
(1.06852 0.0221466 0)
(1.06676 0.0227309 0)
(1.06446 0.0232661 0)
(1.06268 0.0237498 0)
(1.06009 0.0241819 0)
(1.05836 0.0245641 0)
(1.0554 0.0248912 0)
(1.05385 0.0251732 0)
(1.0504 0.0253929 0)
(1.04918 0.0255774 0)
(1.04508 0.0256853 0)
(1.0444 0.025776 0)
(1.03937 0.0257624 0)
(1.07852 -0.0276244 0)
(1.0794 -0.0270085 0)
(1.08028 -0.0263658 0)
(1.08115 -0.0256962 0)
(1.082 -0.0249995 0)
(1.08285 -0.0242753 0)
(1.08368 -0.0235234 0)
(1.0845 -0.0227439 0)
(1.08529 -0.0219366 0)
(1.08607 -0.0211015 0)
(1.08683 -0.0202389 0)
(1.08756 -0.0193488 0)
(1.08827 -0.0184317 0)
(1.08895 -0.0174878 0)
(1.0896 -0.0165176 0)
(1.09021 -0.0155218 0)
(1.09079 -0.0145009 0)
(1.09134 -0.0134557 0)
(1.09184 -0.0123873 0)
(1.09229 -0.0112965 0)
(1.09271 -0.0101845 0)
(1.09307 -0.00905259 0)
(1.09338 -0.00790209 0)
(1.09364 -0.0067345 0)
(1.09384 -0.00555146 0)
(1.09398 -0.00435471 0)
(1.09406 -0.00314614 0)
(1.09408 -0.00192774 0)
(1.09403 -0.00070166 0)
(1.09391 0.000529879 0)
(1.09372 0.00176447 0)
(1.09345 0.00299966 0)
(1.09311 0.00423283 0)
(1.09269 0.00546135 0)
(1.09219 0.00668236 0)
(1.09161 0.00789309 0)
(1.09094 0.00909048 0)
(1.09019 0.0102717 0)
(1.08936 0.0114336 0)
(1.08843 0.0125733 0)
(1.08743 0.0136874 0)
(1.08632 0.0147735 0)
(1.08515 0.0158279 0)
(1.08386 0.0168486 0)
(1.08252 0.0178316 0)
(1.08104 0.0187757 0)
(1.07956 0.0196768 0)
(1.07788 0.0205344 0)
(1.07626 0.0213442 0)
(1.07438 0.0221069 0)
(1.07264 0.0228181 0)
(1.07055 0.0234794 0)
(1.06874 0.0240868 0)
(1.0664 0.0246419 0)
(1.06457 0.0251428 0)
(1.06193 0.0255893 0)
(1.06017 0.0259834 0)
(1.05717 0.0263195 0)
(1.05558 0.026609 0)
(1.05209 0.0268331 0)
(1.05084 0.0270217 0)
(1.04668 0.0271296 0)
(1.04599 0.0272219 0)
(1.0409 0.0272041 0)
(1.08136 -0.0293019 0)
(1.08227 -0.0286407 0)
(1.08317 -0.0279511 0)
(1.08407 -0.0272329 0)
(1.08495 -0.0264858 0)
(1.08582 -0.0257096 0)
(1.08667 -0.0249042 0)
(1.08751 -0.0240694 0)
(1.08833 -0.0232053 0)
(1.08912 -0.0223119 0)
(1.0899 -0.0213894 0)
(1.09065 -0.020438 0)
(1.09137 -0.0194581 0)
(1.09206 -0.0184501 0)
(1.09272 -0.0174146 0)
(1.09334 -0.0163521 0)
(1.09393 -0.0152636 0)
(1.09448 -0.0141497 0)
(1.09498 -0.0130115 0)
(1.09544 -0.0118502 0)
(1.09585 -0.0106668 0)
(1.09621 -0.00946291 0)
(1.09651 -0.00823988 0)
(1.09676 -0.00699934 0)
(1.09695 -0.00574306 0)
(1.09708 -0.0044729 0)
(1.09714 -0.00319089 0)
(1.09714 -0.00189917 0)
(1.09707 -0.00060003 0)
(1.09693 0.000704144 0)
(1.09671 0.00201079 0)
(1.09642 0.0033173 0)
(1.09605 0.00462089 0)
(1.0956 0.00591876 0)
(1.09506 0.00720786 0)
(1.09444 0.00848528 0)
(1.09374 0.00974774 0)
(1.09295 0.0109923 0)
(1.09208 0.0122155 0)
(1.09111 0.0134145 0)
(1.09006 0.0145856 0)
(1.08891 0.0157262 0)
(1.08769 0.0168325 0)
(1.08635 0.0179024 0)
(1.08497 0.0189317 0)
(1.08344 0.0199193 0)
(1.0819 0.0208606 0)
(1.08018 0.0217555 0)
(1.0785 0.0225993 0)
(1.07657 0.0233928 0)
(1.07479 0.0241316 0)
(1.07264 0.0248173 0)
(1.07079 0.0254461 0)
(1.0684 0.0260196 0)
(1.06653 0.026536 0)
(1.06384 0.0269951 0)
(1.06205 0.0273996 0)
(1.05899 0.0277433 0)
(1.05738 0.0280389 0)
(1.05383 0.0282661 0)
(1.05256 0.0284577 0)
(1.04835 0.0285648 0)
(1.04765 0.0286581 0)
(1.04249 0.0286356 0)
(1.08431 -0.030999 0)
(1.08525 -0.0302908 0)
(1.08619 -0.0295525 0)
(1.08711 -0.0287838 0)
(1.08801 -0.0279846 0)
(1.08891 -0.0271547 0)
(1.08978 -0.0262938 0)
(1.09064 -0.025402 0)
(1.09148 -0.0244792 0)
(1.0923 -0.0235257 0)
(1.09309 -0.0225415 0)
(1.09386 -0.0215271 0)
(1.09459 -0.0204827 0)
(1.09529 -0.019409 0)
(1.09596 -0.0183065 0)
(1.09659 -0.0171759 0)
(1.09719 -0.016018 0)
(1.09774 -0.0148339 0)
(1.09824 -0.0136246 0)
(1.0987 -0.0123913 0)
(1.09911 -0.0111354 0)
(1.09946 -0.00985827 0)
(1.09976 -0.00856157 0)
(1.1 -0.00724703 0)
(1.10018 -0.00591654 0)
(1.10029 -0.0045721 0)
(1.10034 -0.00321587 0)
(1.10032 -0.00185014 0)
(1.10022 -0.00047733 0)
(1.10006 0.000899986 0)
(1.09981 0.00227909 0)
(1.09949 0.00365722 0)
(1.09909 0.00503141 0)
(1.0986 0.00639871 0)
(1.09804 0.00775588 0)
(1.09738 0.00909984 0)
(1.09664 0.0104271 0)
(1.0958 0.0117346 0)
(1.09489 0.0130187 0)
(1.09387 0.0142764 0)
(1.09278 0.0155037 0)
(1.09158 0.0166981 0)
(1.09031 0.0178553 0)
(1.08892 0.0189734 0)
(1.08749 0.0200479 0)
(1.08591 0.0210776 0)
(1.08432 0.0220579 0)
(1.08254 0.0229885 0)
(1.08082 0.0238648 0)
(1.07883 0.0246876 0)
(1.077 0.0254523 0)