# Probe 0 (2 -0.5 0)
# Probe 1 (2 0.5 0)
#       Probe             0             1
#        Time
        0.005             (0.945013 0.053632 -2.05454e-18)             (0.945013 -0.053632 2.51026e-18)
         0.01             (0.95144 0.0327714 2.58288e-19)             (0.95144 -0.0327714 -3.14971e-19)
        0.015             (0.949031 0.0332185 -8.90508e-20)             (0.949031 -0.0332185 1.08616e-19)
         0.02             (0.947866 0.0331803 -4.10233e-20)             (0.947866 -0.0331803 5.00722e-20)
        0.025             (0.946769 0.0334214 -3.61436e-20)             (0.946769 -0.0334214 4.41285e-20)
         0.03             (0.945815 0.033711 -2.92717e-20)             (0.945815 -0.033711 3.57461e-20)
        0.035             (0.944955 0.0340303 -2.49279e-20)             (0.944955 -0.0340303 3.04456e-20)
         0.04             (0.944165 0.0343625 -2.17374e-20)             (0.944165 -0.0343625 2.65511e-20)
        0.045             (0.94343 0.0347005 -1.93665e-20)             (0.94343 -0.0347005 2.36564e-20)
         0.05             (0.942738 0.0350404 -1.75448e-20)             (0.942738 -0.0350404 2.14316e-20)
        0.055             (0.942081 0.0353803 -1.61075e-20)             (0.942081 -0.0353803 1.96759e-20)
         0.06             (0.941452 0.0357188 -1.49451e-20)             (0.941452 -0.0357188 1.82558e-20)
        0.065             (0.940847 0.0360554 -1.39836e-20)             (0.940847 -0.0360554 1.7081e-20)
         0.07             (0.940262 0.0363897 -1.31714e-20)             (0.940262 -0.0363897 1.60885e-20)
        0.075             (0.939694 0.0367216 -1.24749e-20)             (0.939694 -0.0367216 1.52373e-20)
         0.08             (0.93914 0.037051 -1.18675e-20)             (0.93914 -0.037051 1.4495e-20)
        0.085             (0.9386 0.037378 -1.13307e-20)             (0.9386 -0.037378 1.3839e-20)
         0.09             (0.938072 0.0377027 -1.0851e-20)             (0.938072 -0.0377027 1.32527e-20)
        0.095             (0.937554 0.0380253 -1.04181e-20)             (0.937554 -0.0380253 1.27237e-20)
          0.1             (0.937045 0.0383457 -1.0024e-20)             (0.937045 -0.0383457 1.22421e-20)
        0.105             (0.936544 0.0386643 -9.66311e-21)             (0.936544 -0.0386643 1.1801e-20)
         0.11             (0.936051 0.0389811 -9.32959e-21)             (0.936051 -0.0389811 1.13934e-20)
        0.115             (0.935565 0.0392963 -9.02174e-21)             (0.935565 -0.0392963 1.10172e-20)
         0.12             (0.935086 0.0396101 -8.73503e-21)             (0.935086 -0.0396101 1.06668e-20)
        0.125             (0.934612 0.0399226 -8.46713e-21)             (0.934612 -0.0399226 1.03395e-20)
         0.13             (0.934143 0.0402339 -8.21622e-21)             (0.934143 -0.0402339 1.00329e-20)
        0.135             (0.933679 0.0405441 -7.98019e-21)             (0.933679 -0.0405441 9.74447e-21)
         0.14             (0.93322 0.0408535 -7.75763e-21)             (0.93322 -0.0408535 9.47251e-21)
        0.145             (0.932766 0.0411621 -7.54716e-21)             (0.932766 -0.041162 9.21535e-21)
         0.15             (0.932315 0.04147 -7.3483e-21)             (0.932315 -0.04147 8.97237e-21)
        0.155             (0.931868 0.0417773 -7.15931e-21)             (0.931868 -0.0417773 8.74146e-21)
         0.16             (0.931424 0.0420842 -6.9796e-21)             (0.931424 -0.0420842 8.52188e-21)
        0.165             (0.930984 0.0423908 -6.80828e-21)             (0.930984 -0.0423908 8.31257e-21)
         0.17             (0.930546 0.042697 -6.64506e-21)             (0.930546 -0.042697 8.11316e-21)
        0.175             (0.930111 0.0430031 -6.48793e-21)             (0.930111 -0.0430031 7.92119e-21)
         0.18             (0.929679 0.0433091 -6.33914e-21)             (0.929679 -0.0433091 7.7394e-21)
        0.185             (0.92925 0.0436151 -6.19636e-21)             (0.92925 -0.0436151 7.56498e-21)
         0.19             (0.928823 0.0439212 -6.05959e-21)             (0.928823 -0.0439212 7.39789e-21)
        0.195             (0.928398 0.0442274 -5.92824e-21)             (0.928398 -0.0442274 7.23743e-21)
          0.2             (0.927974 0.0445338 -5.80198e-21)             (0.927974 -0.0445338 7.08318e-21)
        0.205             (0.927553 0.0448405 -5.68052e-21)             (0.927553 -0.0448405 6.93481e-21)
         0.21             (0.927134 0.0451475 -5.56339e-21)             (0.927134 -0.0451475 6.79173e-21)
        0.215             (0.926716 0.045455 -5.45086e-21)             (0.926716 -0.045455 6.65427e-21)
         0.22             (0.9263 0.0457629 -5.34208e-21)             (0.9263 -0.0457629 6.52139e-21)
        0.225             (0.925885 0.0460713 -5.23683e-21)             (0.925885 -0.0460713 6.39283e-21)
         0.23             (0.925472 0.0463803 -5.13572e-21)             (0.925472 -0.0463803 6.26933e-21)
        0.235             (0.92506 0.0466899 -5.03759e-21)             (0.92506 -0.0466899 6.14947e-21)
         0.24             (0.924649 0.0470001 -4.94268e-21)             (0.924649 -0.0470001 6.03355e-21)
        0.245             (0.924239 0.0473111 -4.85072e-21)             (0.924239 -0.0473111 5.92123e-21)
         0.25             (0.92383 0.0476229 -4.7616e-21)             (0.92383 -0.0476229 5.81239e-21)
        0.255             (0.923422 0.0479354 -4.67519e-21)             (0.923422 -0.0479354 5.70685e-21)
         0.26             (0.923015 0.0482488 -4.59131e-21)             (0.923015 -0.0482488 5.60441e-21)
        0.265             (0.922609 0.0485631 -4.51001e-21)             (0.922609 -0.0485631 5.50511e-21)
         0.27             (0.922204 0.0488783 -4.43097e-21)             (0.922204 -0.0488783 5.40859e-21)
        0.275             (0.921799 0.0491945 -4.35411e-21)             (0.921799 -0.0491945 5.31472e-21)
         0.28             (0.921395 0.0495117 -4.27784e-21)             (0.921395 -0.0495117 5.2216e-21)
        0.285             (0.920992 0.0498299 -4.20536e-21)             (0.920992 -0.0498299 5.13309e-21)
         0.29             (0.920589 0.0501492 -4.13456e-21)             (0.920589 -0.0501492 5.04663e-21)
        0.295             (0.920187 0.0504696 -4.06575e-21)             (0.920187 -0.0504696 4.96261e-21)
          0.3             (0.919785 0.0507912 -3.99864e-21)             (0.919785 -0.0507912 4.88066e-21)
        0.305             (0.919383 0.0511139 -3.93306e-21)             (0.919383 -0.0511139 4.80059e-21)
         0.31             (0.918982 0.0514379 -3.8692e-21)             (0.918982 -0.0514379 4.72263e-21)
        0.315             (0.918581 0.0517631 -3.80712e-21)             (0.918581 -0.0517631 4.64683e-21)
         0.32             (0.918181 0.0520897 -3.74639e-21)             (0.918181 -0.0520896 4.57268e-21)
        0.325             (0.91778 0.0524175 -3.68696e-21)             (0.91778 -0.0524175 4.50013e-21)
         0.33             (0.91738 0.0527466 -3.6288e-21)             (0.91738 -0.0527466 4.42913e-21)
        0.335             (0.91698 0.0530772 -3.57207e-21)             (0.91698 -0.0530772 4.35987e-21)
         0.34             (0.916581 0.0534091 -3.51705e-21)             (0.916581 -0.0534091 4.29271e-21)
        0.345             (0.916181 0.0537425 -3.46283e-21)             (0.916181 -0.0537425 4.22652e-21)
         0.35             (0.915781 0.0540773 -3.40975e-21)             (0.915781 -0.0540773 4.16173e-21)
        0.355             (0.915382 0.0544137 -3.35768e-21)             (0.915382 -0.0544137 4.09819e-21)
         0.36             (0.914982 0.0547515 -3.30699e-21)             (0.914982 -0.0547515 4.03631e-21)
        0.365             (0.914583 0.0550909 -3.25727e-21)             (0.914583 -0.0550909 3.97563e-21)
         0.37             (0.914183 0.0554318 -3.20849e-21)             (0.914183 -0.0554318 3.9161e-21)
        0.375             (0.913783 0.0557743 -3.16062e-21)             (0.913783 -0.0557743 3.85768e-21)
         0.38             (0.913383 0.0561185 -3.11387e-21)             (0.913383 -0.0561184 3.80063e-21)
        0.385             (0.912984 0.0564642 -3.06788e-21)             (0.912984 -0.0564642 3.74451e-21)
         0.39             (0.912583 0.0568117 -3.02287e-21)             (0.912583 -0.0568117 3.68959e-21)
        0.395             (0.912183 0.0571608 -2.97862e-21)             (0.912183 -0.0571608 3.6356e-21)
          0.4             (0.911783 0.0575117 -2.93521e-21)             (0.911783 -0.0575116 3.58263e-21)
        0.405             (0.911382 0.0578642 -2.89262e-21)             (0.911382 -0.0578642 3.53068e-21)
         0.41             (0.910981 0.0582186 -2.85078e-21)             (0.910981 -0.0582186 3.47963e-21)
        0.415             (0.91058 0.0585747 -2.80979e-21)             (0.91058 -0.0585747 3.42963e-21)
         0.42             (0.910179 0.0589326 -2.76965e-21)             (0.910179 -0.0589326 3.38066e-21)
        0.425             (0.909777 0.0592924 -2.72988e-21)             (0.909777 -0.0592923 3.33216e-21)
         0.43             (0.909376 0.0596539 -2.69093e-21)             (0.909376 -0.0596539 3.28464e-21)
        0.435             (0.908973 0.0600174 -2.65264e-21)             (0.908973 -0.0600174 3.23794e-21)
         0.44             (0.908571 0.0603828 -2.61495e-21)             (0.908571 -0.0603828 3.19198e-21)
        0.445             (0.908168 0.06075 -2.57619e-21)             (0.908168 -0.06075 3.14471e-21)
         0.45             (0.907765 0.0611191 -2.54013e-21)             (0.907765 -0.0611191 3.10074e-21)
        0.455             (0.907361 0.0614902 -2.50434e-21)             (0.907361 -0.0614902 3.0571e-21)
         0.46             (0.906957 0.0618633 -2.46913e-21)             (0.906957 -0.0618633 3.01417e-21)
        0.465             (0.906553 0.0622384 -2.43435e-21)             (0.906553 -0.0622384 2.97177e-21)
         0.47             (0.906148 0.0626155 -2.40018e-21)             (0.906148 -0.0626155 2.9301e-21)
        0.475             (0.905742 0.0629946 -2.36663e-21)             (0.905742 -0.0629946 2.88921e-21)
         0.48             (0.905337 0.0633758 -2.33369e-21)             (0.905337 -0.0633758 2.84906e-21)
        0.485             (0.90493 0.063759 -2.30119e-21)             (0.90493 -0.063759 2.80945e-21)
         0.49             (0.904524 0.0641444 -2.26946e-21)             (0.904524 -0.0641444 2.77078e-21)
        0.495             (0.904117 0.0645318 -2.23779e-21)             (0.904117 -0.0645318 2.73218e-21)
          0.5             (0.903709 0.0649214 -2.20654e-21)             (0.903709 -0.0649214 2.69411e-21)
        0.505             (0.903301 0.0653131 -2.17579e-21)             (0.903301 -0.0653131 2.65663e-21)
         0.51             (0.902892 0.0657069 -2.14547e-21)             (0.902892 -0.0657069 2.61969e-21)
        0.515             (0.902483 0.066103 -2.11558e-21)             (0.902483 -0.0661029 2.58327e-21)
         0.52             (0.902073 0.0665012 -2.08614e-21)             (0.902073 -0.0665012 2.54741e-21)
        0.525             (0.901663 0.0669016 -2.05709e-21)             (0.901663 -0.0669016 2.51203e-21)
         0.53             (0.901252 0.0673043 -2.02844e-21)             (0.901252 -0.0673042 2.47714e-21)
        0.535             (0.90084 0.0677091 -2.00017e-21)             (0.90084 -0.0677091 2.44271e-21)
         0.54             (0.900428 0.0681163 -1.97226e-21)             (0.900428 -0.0681163 2.40872e-21)
        0.545             (0.900015 0.0685257 -1.94458e-21)             (0.900015 -0.0685257 2.37502e-21)
         0.55             (0.899602 0.0689374 -1.91769e-21)             (0.899602 -0.0689374 2.34228e-21)
        0.555             (0.899188 0.0693514 -1.89099e-21)             (0.899188 -0.0693514 2.30977e-21)
         0.56             (0.898774 0.0697678 -1.8645e-21)             (0.898774 -0.0697678 2.27753e-21)
        0.565             (0.898359 0.0701864 -1.83835e-21)             (0.898359 -0.0701864 2.24571e-21)
         0.57             (0.897943 0.0706075 -1.81253e-21)             (0.897943 -0.0706074 2.21428e-21)
        0.575             (0.897527 0.0710308 -1.78689e-21)             (0.897527 -0.0710308 2.18307e-21)
         0.58             (0.89711 0.0714566 -1.76187e-21)             (0.89711 -0.0714566 2.15263e-21)
        0.585             (0.896692 0.0718847 -1.73734e-21)             (0.896692 -0.0718847 2.1228e-21)
         0.59             (0.896274 0.0723153 -1.71285e-21)             (0.896274 -0.0723153 2.09299e-21)
        0.595             (0.895855 0.0727483 -1.68861e-21)             (0.895855 -0.0727482 2.06352e-21)
          0.6             (0.895435 0.0731837 -1.66467e-21)             (0.895435 -0.0731836 2.0344e-21)
        0.605             (0.895015 0.0736215 -1.64103e-21)             (0.895015 -0.0736215 2.00565e-21)
         0.61             (0.894594 0.0740618 -1.61766e-21)             (0.894594 -0.0740618 1.97724e-21)
        0.615             (0.894172 0.0745045 -1.5945e-21)             (0.894172 -0.0745045 1.94908e-21)
         0.62             (0.89375 0.0749498 -1.57181e-21)             (0.89375 -0.0749498 1.9215e-21)
        0.625             (0.893327 0.0753975 -1.54933e-21)             (0.893327 -0.0753975 1.89418e-21)
         0.63             (0.892903 0.0758477 -1.52709e-21)             (0.892903 -0.0758477 1.86715e-21)
        0.635             (0.892479 0.0763005 -1.50507e-21)             (0.892479 -0.0763005 1.84039e-21)
         0.64             (0.892054 0.0767558 -1.48327e-21)             (0.892054 -0.0767557 1.81391e-21)
        0.645             (0.891628 0.0772135 -1.46164e-21)             (0.891628 -0.0772135 1.78763e-21)
         0.65             (0.891201 0.0776739 -1.44058e-21)             (0.891201 -0.0776739 1.76206e-21)
        0.655             (0.890774 0.0781368 -1.41972e-21)             (0.890774 -0.0781368 1.73673e-21)
         0.66             (0.890346 0.0786023 -1.39926e-21)             (0.890346 -0.0786022 1.71189e-21)
        0.665             (0.889917 0.0790703 -1.37871e-21)             (0.889917 -0.0790703 1.68693e-21)
         0.67             (0.889487 0.0795409 -1.35834e-21)             (0.889487 -0.0795409 1.66222e-21)
        0.675             (0.889057 0.0800141 -1.33802e-21)             (0.889057 -0.0800141 1.63755e-21)
         0.68             (0.888626 0.0804899 -1.31861e-21)             (0.888626 -0.0804899 1.614e-21)
        0.685             (0.888194 0.0809683 -1.29909e-21)             (0.888194 -0.0809683 1.59032e-21)
         0.69             (0.887761 0.0814493 -1.27955e-21)             (0.887761 -0.0814493 1.56662e-21)
        0.695             (0.887328 0.0819329 -1.26035e-21)             (0.887328 -0.0819329 1.54334e-21)
          0.7             (0.886894 0.0824191 -1.24139e-21)             (0.886894 -0.0824191 1.52035e-21)
        0.705             (0.886459 0.082908 -1.22267e-21)             (0.886459 -0.082908 1.49765e-21)
         0.71             (0.886023 0.0833994 -1.20252e-21)             (0.886023 -0.0833994 1.47321e-21)
        0.715             (0.885587 0.0838935 -1.18475e-21)             (0.885587 -0.0838935 1.45169e-21)
         0.72             (0.88515 0.0843903 -1.16669e-21)             (0.88515 -0.0843903 1.42981e-21)
        0.725             (0.884712 0.0848897 -1.14887e-21)             (0.884712 -0.0848896 1.40822e-21)
         0.73             (0.884273 0.0853917 -1.13126e-21)             (0.884273 -0.0853917 1.3869e-21)
        0.735             (0.883833 0.0858964 -1.11386e-21)             (0.883833 -0.0858964 1.36583e-21)
         0.74             (0.883393 0.0864037 -1.09666e-21)             (0.883393 -0.0864037 1.34501e-21)
        0.745             (0.882952 0.0869137 -1.07966e-21)             (0.882952 -0.0869137 1.32444e-21)
         0.75             (0.882509 0.0874264 -1.06286e-21)             (0.882509 -0.0874264 1.30411e-21)
        0.755             (0.882067 0.0879417 -1.04625e-21)             (0.882067 -0.0879417 1.28402e-21)
         0.76             (0.881623 0.0884596 -1.02982e-21)             (0.881623 -0.0884596 1.26416e-21)
        0.765             (0.881178 0.0889803 -1.01331e-21)             (0.881178 -0.0889802 1.24418e-21)
         0.77             (0.880733 0.0895035 -9.9712e-22)             (0.880733 -0.0895035 1.22462e-21)
        0.775             (0.880287 0.0900294 -9.81565e-22)             (0.880287 -0.0900294 1.20583e-21)
         0.78             (0.87984 0.090558 -9.65815e-22)             (0.87984 -0.090558 1.18681e-21)
        0.785             (0.879392 0.0910892 -9.50333e-22)             (0.879392 -0.0910892 1.16811e-21)
         0.79             (0.878943 0.0916231 -9.35229e-22)             (0.878943 -0.0916231 1.14988e-21)
        0.795             (0.878493 0.0921596 -9.20109e-22)             (0.878493 -0.0921596 1.13163e-21)
          0.8             (0.878043 0.0926987 -9.05146e-22)             (0.878043 -0.0926987 1.11358e-21)
        0.805             (0.877592 0.0932405 -8.90291e-22)             (0.877592 -0.0932404 1.09566e-21)
         0.81             (0.877139 0.0937848 -8.75732e-22)             (0.877139 -0.0937848 1.07811e-21)
        0.815             (0.876686 0.0943318 -8.6164e-22)             (0.876686 -0.0943318 1.06113e-21)
         0.82             (0.876232 0.0948815 -8.47445e-22)             (0.876232 -0.0948814 1.04402e-21)
        0.825             (0.875777 0.0954337 -8.33375e-22)             (0.875777 -0.0954336 1.02707e-21)
         0.83             (0.875321 0.0959885 -8.1949e-22)             (0.875321 -0.0959884 1.01036e-21)
        0.835             (0.874865 0.0965458 -8.05743e-22)             (0.874865 -0.0965458 9.93809e-22)
         0.84             (0.874407 0.0971058 -7.92063e-22)             (0.874407 -0.0971058 9.77349e-22)
        0.845             (0.873949 0.0976683 -7.79063e-22)             (0.873949 -0.0976683 9.6172e-22)
         0.85             (0.873489 0.0982334 -7.6605e-22)             (0.873489 -0.0982334 9.4608e-22)
        0.855             (0.873029 0.098801 -7.53336e-22)             (0.873029 -0.098801 9.30809e-22)
         0.86             (0.872567 0.0993711 -7.40494e-22)             (0.872567 -0.0993711 9.15383e-22)
        0.865             (0.872105 0.0999438 -7.27848e-22)             (0.872105 -0.0999437 9.00201e-22)
         0.87             (0.871642 0.100519 -7.1539e-22)             (0.871642 -0.100519 8.85252e-22)
        0.875             (0.871178 0.101097 -7.03111e-22)             (0.871178 -0.101096 8.70525e-22)
         0.88             (0.870713 0.101677 -6.91008e-22)             (0.870713 -0.101677 8.56015e-22)
        0.885             (0.870246 0.102259 -6.79043e-22)             (0.870246 -0.102259 8.41679e-22)
         0.89             (0.869779 0.102844 -6.67137e-22)             (0.869779 -0.102844 8.27417e-22)
        0.895             (0.869311 0.103431 -6.55756e-22)             (0.869311 -0.103431 8.138e-22)
          0.9             (0.868842 0.104021 -6.44849e-22)             (0.868842 -0.104021 8.00766e-22)
        0.905             (0.868372 0.104613 -6.33708e-22)             (0.868372 -0.104613 7.87449e-22)
         0.91             (0.867901 0.105208 -6.22853e-22)             (0.867901 -0.105208 7.74486e-22)
        0.915             (0.867429 0.105805 -6.11982e-22)             (0.867429 -0.105805 7.61507e-22)
         0.92             (0.866956 0.106404 -6.01268e-22)             (0.866956 -0.106404 7.48723e-22)
        0.925             (0.866482 0.107005 -5.9075e-22)             (0.866482 -0.107005 7.36182e-22)
         0.93             (0.866006 0.107609 -5.80356e-22)             (0.866006 -0.107609 7.23796e-22)
        0.935             (0.86553 0.108215 -5.70328e-22)             (0.86553 -0.108215 7.11861e-22)
         0.94             (0.865053 0.108823 -5.60422e-22)             (0.865053 -0.108823 7.00078e-22)
        0.945             (0.864574 0.109433 -5.50683e-22)             (0.864574 -0.109433 6.88502e-22)
         0.95             (0.864095 0.110046 -5.41039e-22)             (0.864095 -0.110046 6.77047e-22)
        0.955             (0.863614 0.11066 -5.31622e-22)             (0.863614 -0.11066 6.65874e-22)
         0.96             (0.863132 0.111277 -5.22392e-22)             (0.863132 -0.111277 6.54932e-22)
        0.965             (0.86265 0.111896 -5.13341e-22)             (0.86265 -0.111896 6.44213e-22)
         0.97             (0.862166 0.112517 -5.0446e-22)             (0.862166 -0.112517 6.33705e-22)
        0.975             (0.861681 0.11314 -4.95745e-22)             (0.861681 -0.11314 6.23405e-22)
         0.98             (0.861195 0.113765 -4.8718e-22)             (0.861195 -0.113765 6.13291e-22)
        0.985             (0.860707 0.114392 -4.78713e-22)             (0.860707 -0.114392 6.03301e-22)
         0.99             (0.860219 0.11502 -4.70333e-22)             (0.860219 -0.11502 5.93421e-22)
        0.995             (0.859729 0.115651 -4.62984e-22)             (0.859729 -0.115651 5.84805e-22)
            1             (0.859238 0.116284 -4.55496e-22)             (0.859238 -0.116284 5.76023e-22)
        1.005             (0.858746 0.116918 -4.48023e-22)             (0.858746 -0.116918 5.67264e-22)
         1.01             (0.858253 0.117554 -4.40395e-22)             (0.858253 -0.117554 5.58318e-22)
        1.015             (0.857758 0.118192 -4.33421e-22)             (0.857758 -0.118192 5.50177e-22)
         1.02             (0.857263 0.118832 -4.26449e-22)             (0.857263 -0.118832 5.42041e-22)
        1.025             (0.856766 0.119473 -4.19581e-22)             (0.856766 -0.119473 5.34036e-22)
         1.03             (0.856268 0.120116 -4.12891e-22)             (0.856268 -0.120116 5.26254e-22)
        1.035             (0.855768 0.12076 -4.06403e-22)             (0.855768 -0.12076 5.18722e-22)
         1.04             (0.855267 0.121407 -4.00114e-22)             (0.855267 -0.121407 5.11438e-22)
        1.045             (0.854766 0.122054 -3.94024e-22)             (0.854766 -0.122054 5.04401e-22)
         1.05             (0.854262 0.122703 -3.88133e-22)             (0.854262 -0.122703 4.97612e-22)
        1.055             (0.853758 0.123354 -3.82438e-22)             (0.853758 -0.123354 4.91066e-22)
         1.06             (0.853252 0.124006 -3.76939e-22)             (0.853252 -0.124006 4.84763e-22)
        1.065             (0.852744 0.124659 -3.71635e-22)             (0.852744 -0.124659 4.78704e-22)
         1.07             (0.852236 0.125314 -3.66531e-22)             (0.852236 -0.125314 4.72893e-22)
        1.075             (0.851726 0.12597 -3.61624e-22)             (0.851726 -0.12597 4.67327e-22)
         1.08             (0.851215 0.126627 -3.56915e-22)             (0.851215 -0.126627 4.62008e-22)
        1.085             (0.850702 0.127286 -3.52396e-22)             (0.850702 -0.127286 4.56924e-22)
         1.09             (0.850188 0.127945 -3.4809e-22)             (0.850188 -0.127945 4.52106e-22)
        1.095             (0.849673 0.128606 -3.44019e-22)             (0.849673 -0.128606 4.47579e-22)
          1.1             (0.849156 0.129267 -3.40046e-22)             (0.849156 -0.129267 4.43176e-22)
        1.105             (0.848637 0.12993 -3.36075e-22)             (0.848637 -0.12993 4.38781e-22)
         1.11             (0.848118 0.130594 -3.32797e-22)             (0.848118 -0.130594 4.35236e-22)
        1.115             (0.847596 0.131258 -3.29475e-22)             (0.847596 -0.131258 4.31642e-22)
         1.12             (0.847074 0.131924 -3.26344e-22)             (0.847074 -0.131924 4.28285e-22)
        1.125             (0.84655 0.13259 -3.23394e-22)             (0.84655 -0.13259 4.25155e-22)
         1.13             (0.846024 0.133257 -3.20527e-22)             (0.846024 -0.133257 4.22131e-22)
        1.135             (0.845497 0.133925 -3.18088e-22)             (0.845497 -0.133925 4.19633e-22)
         1.14             (0.844968 0.134593 -3.15973e-22)             (0.844968 -0.134593 4.17537e-22)
        1.145             (0.844438 0.135262 -3.11414e-22)             (0.844438 -0.135262 4.12459e-22)
         1.15             (0.843907 0.135932 -3.10025e-22)             (0.843907 -0.135932 4.11259e-22)
        1.155             (0.843374 0.136602 -3.08491e-22)             (0.843374 -0.136602 4.09886e-22)
         1.16             (0.842839 0.137272 -3.07435e-22)             (0.842839 -0.137272 4.09102e-22)
        1.165             (0.842303 0.137943 -3.06267e-22)             (0.842303 -0.137943 4.08185e-22)
         1.17             (0.841765 0.138615 -3.05267e-22)             (0.841765 -0.138615 4.07478e-22)
        1.175             (0.841225 0.139286 -3.04499e-22)             (0.841225 -0.139286 4.07061e-22)
         1.18             (0.840684 0.139958 -3.03953e-22)             (0.840684 -0.139958 4.06917e-22)
        1.185             (0.840141 0.14063 -3.03621e-22)             (0.840141 -0.14063 4.07041e-22)
         1.19             (0.839597 0.141303 -3.0349e-22)             (0.839597 -0.141303 4.07416e-22)
        1.195             (0.839051 0.141975 -3.03436e-22)             (0.839051 -0.141975 4.07887e-22)
          1.2             (0.838504 0.142648 -3.03911e-22)             (0.838504 -0.142648 4.0901e-22)
        1.205             (0.837954 0.14332 -3.04603e-22)             (0.837954 -0.14332 4.10404e-22)
         1.21             (0.837403 0.143992 -3.05508e-22)             (0.837403 -0.143992 4.12063e-22)
        1.215             (0.836851 0.144665 -3.06779e-22)             (0.836851 -0.144665 4.14173e-22)
         1.22             (0.836297 0.145337 -3.07979e-22)             (0.836297 -0.145337 4.16201e-22)
        1.225             (0.835741 0.146009 -3.09389e-22)             (0.835741 -0.146009 4.1849e-22)
         1.23             (0.835183 0.146681 -3.11051e-22)             (0.835183 -0.146681 4.21092e-22)
        1.235             (0.834623 0.147352 -3.12952e-22)             (0.834623 -0.147352 4.23992e-22)
         1.24             (0.834062 0.148023 -3.15089e-22)             (0.834062 -0.148023 4.27183e-22)
        1.245             (0.833499 0.148694 -3.17459e-22)             (0.833499 -0.148693 4.30664e-22)
         1.25             (0.832935 0.149364 -3.20054e-22)             (0.832935 -0.149364 4.34425e-22)
        1.255             (0.832368 0.150033 -3.22869e-22)             (0.832368 -0.150033 4.3846e-22)
         1.26             (0.8318 0.150702 -3.25837e-22)             (0.8318 -0.150702 4.42685e-22)
        1.265             (0.83123 0.15137 -3.29141e-22)             (0.83123 -0.15137 4.47326e-22)
         1.27             (0.830658 0.152038 -3.32995e-22)             (0.830658 -0.152038 4.52644e-22)
        1.275             (0.830085 0.152705 -3.36733e-22)             (0.830085 -0.152705 4.57825e-22)
         1.28             (0.829509 0.153371 -3.407e-22)             (0.829509 -0.153371 4.6329e-22)
        1.285             (0.828932 0.154036 -3.44943e-22)             (0.828932 -0.154036 4.69097e-22)
         1.29             (0.828353 0.1547 -3.49553e-22)             (0.828353 -0.1547 4.75357e-22)
        1.295             (0.827772 0.155364 -3.54394e-22)             (0.827772 -0.155364 4.81904e-22)
          1.3             (0.82719 0.156026 -3.59384e-22)             (0.82719 -0.156026 4.88638e-22)
        1.305             (0.826605 0.156687 -3.64614e-22)             (0.826605 -0.156687 4.95669e-22)
         1.31             (0.826019 0.157347 -3.70192e-22)             (0.826019 -0.157347 5.03131e-22)
        1.315             (0.82543 0.158006 -3.7596e-22)             (0.82543 -0.158006 5.10829e-22)
         1.32             (0.82484 0.158664 -3.81883e-22)             (0.82484 -0.158664 5.1872e-22)
        1.325             (0.824248 0.15932 -3.88014e-22)             (0.824248 -0.15932 5.26871e-22)
         1.33             (0.823655 0.159975 -3.94323e-22)             (0.823655 -0.159975 5.35244e-22)
        1.335             (0.823059 0.160628 -4.0128e-22)             (0.823059 -0.160628 5.44413e-22)
         1.34             (0.822461 0.161281 -4.0851e-22)             (0.822461 -0.161281 5.5392e-22)
        1.345             (0.821862 0.161931 -4.15677e-22)             (0.821862 -0.161931 5.63355e-22)
         1.35             (0.82126 0.16258 -4.23106e-22)             (0.82126 -0.16258 5.73114e-22)
        1.355             (0.820657 0.163228 -4.30808e-22)             (0.820657 -0.163228 5.83211e-22)
         1.36             (0.820052 0.163873 -4.38777e-22)             (0.820052 -0.163873 5.93638e-22)
        1.365             (0.819445 0.164518 -4.47007e-22)             (0.819445 -0.164518 6.04389e-22)
         1.37             (0.818836 0.16516 -4.55494e-22)             (0.818836 -0.16516 6.15459e-22)
        1.375             (0.818225 0.1658 -4.6424e-22)             (0.818225 -0.1658 6.26849e-22)
         1.38             (0.817612 0.166439 -4.73181e-22)             (0.817612 -0.166439 6.38481e-22)
        1.385             (0.816997 0.167076 -4.82558e-22)             (0.816997 -0.167076 6.50652e-22)
         1.39             (0.81638 0.16771 -4.92122e-22)             (0.81638 -0.16771 6.63054e-22)
        1.395             (0.815761 0.168343 -5.01812e-22)             (0.815761 -0.168343 6.75614e-22)
          1.4             (0.815141 0.168974 -5.11689e-22)             (0.815141 -0.168974 6.88408e-22)
        1.405             (0.814518 0.169602 -5.22363e-22)             (0.814518 -0.169602 7.02179e-22)
         1.41             (0.813894 0.170229 -5.32942e-22)             (0.813894 -0.170229 7.15839e-22)
        1.415             (0.813267 0.170853 -5.43758e-22)             (0.813267 -0.170853 7.29791e-22)
         1.42             (0.812639 0.171475 -5.5484e-22)             (0.812639 -0.171475 7.44073e-22)
        1.425             (0.812009 0.172094 -5.66172e-22)             (0.812009 -0.172094 7.58665e-22)