/*--------------------------------*- C++ -*----------------------------------*\
  =========                 |
  \\      /  F ield         | OpenFOAM: The Open Source CFD Toolbox
   \\    /   O peration     | Website:  https://openfoam.org
    \\  /    A nd           | Version:  7
     \\/     M anipulation  |
\*---------------------------------------------------------------------------*/
FoamFile
{
    version     2.0;
    format      ascii;
    class       volScalarField;
    location    "19";
    object      p;
}
// * * * * * * * * * * * * * * * * * * * * * * * * * * * * * * * * * * * * * //

dimensions      [0 2 -2 0 0 0 0];

internalField   nonuniform List<scalar> 
433
(
-556.123
-525.869
-497.072
-464.21
-423.811
-207.084
-189.85
-175.948
-166.525
-158.612
-151.225
-142.206
-130.329
-115.128
479.022
461.219
444.549
418.386
380.448
335.677
288.422
243.092
203.18
169.896
142.256
118.184
96.1403
385.556
368.893
356.152
340.681
318.736
291.553
259.467
224.657
190.592
159.285
131.263
105.973
83.1445
63.1767
46.6148
33.679
24.0011
-292.781
-278.432
-263.285
-243.569
-218.116
-190.309
-163.491
-139.864
-119.236
-100.275
-82.5646
-66.4468
-52.227
-39.933
-29.4894
-20.9022
-14.0324
-8.73529
-4.81645
-2.03225
-531.94
-500.392
-471.227
-440.309
-403.806
-364.429
-324.323
-284.78
-246.076
-208.143
-171.361
-136.737
-105.471
-78.6237
-56.656
-39.4282
-26.3861
-16.8098
-9.99059
-5.30105
-2.19979
-0.222655
0.987632
1.69435
94.9124
97.2448
97.0418
88.7007
73.5627
54.8196
36.5122
21.6497
12.1882
8.48163
8.91759
10.9737
12.5635
12.7519
11.6956
9.98176
8.08466
6.37358
4.9968
3.9752
3.27141
2.80597
2.51156
2.3355
2.2363
2.18337
2.1561
550.532
528.242
509.151
482.051
442.902
396.196
345.602
295.661
250.065
210.008
174.84
143.097
113.996
87.8532
65.4138
47.167
33.1139
22.7128
15.3041
10.2224
6.86435
4.73385
3.43612
2.67955
2.26004
2.04074
1.93403
1.88642
1.86697
1.85885
142.881
136.319
132.822
130.131
126.158
120.031
109.988
96.2784
81.0174
66.6197
53.8006
42.3005
32.0427
23.3578
16.5443
11.5981
8.13371
5.78287
4.22149
3.20488
2.55822
2.15619
1.9175
1.78348
1.70843
1.6676
1.64627
1.63515
1.62866
-491.142
-465.557
-440.626
-410.924
-373.709
-333.014
-292.29
-253.771
-217.762
-183.738
-151.722
-122.235
-95.8638
-73.0035
-53.8424
-38.4493
-26.4869
-17.4974
-10.9791
-6.41801
-3.34492
-1.35728
-0.127373
0.597392
1.00554
1.22214
1.32841
1.37496
-362.096
-337.434
-315.935
-296.488
-275.596
-253.778
-230.458
-205.53
-178.938
-151
-122.883
-96.2367
-72.611
-52.9498
-37.4472
-25.7199
-17.0956
-10.9046
-6.57139
-3.63437
-1.71424
-0.505192
0.231471
0.6636
0.906512
1.03655
1.10243
1.13336
359.852
348.468
336.477
314.82
282.596
244.506
205.227
168.978
138.671
115.143
96.949
81.6611
67.4537
53.821
41.2428
30.4292
21.6829
14.9829
10.087
6.66178
4.36585
2.89161
1.98282
1.44976
1.15501
1.00296
0.934392
486.552
465.975
449.335
427.307
395.447
356.727
313.567
269.522
228.286
191.175
157.947
127.727
100.197
75.8707
55.4379
39.2471
26.9989
18.0842
11.8163
7.55665
4.7626
2.99768
1.92859
1.31302
0.97414
0.799284
0.718163
-132.19
-126.204
-118.812
-108.547
-95.4871
-81.6257
-69.3523
-59.5369
-51.5406
-44.0728
-36.9251
-30.4802
-24.8978
-20.0129
-15.6502
-11.8283
-8.56131
-5.89997
-3.84727
-2.34107
-1.28484
-0.576391
-0.124623
0.145398
0.302413
0.390067
-573.686
-541.527
-511.27
-477.71
-437.169
-393.044
-347.996
-304.022
-261.587
-220.832
-182.101
-146.134
-113.875
-86.0997
-63.1949
-45.0423
-31.1543
-20.8631
-13.4826
-8.37226
-4.96363
-2.78184
-1.43619
-0.638505
-0.186726
0.0562951
-91.162
-79.6337
-71.1565
-68.7127
-70.0113
-73.1905
-75.0214
-73.4326
-67.4902
-57.5033
-45.2581
-33.0442
-22.6298
-14.782
-9.34271
-5.79408
-3.5734
-2.18547
-1.31682
-0.777243
-0.446427
-0.245579
-0.126926
-0.0562986
-0.01329
523.087
502.593
484.248
456.807
416.998
369.768
319.482
270.831
227.478
190.459
158.685
130.277
104.136
80.398
59.7771
42.8236
29.6492
19.8211
12.7677
7.9022
4.67402
2.61923
1.36383
0.629407
0.22084
291.199
277.914
268.325
257.561
242.374
223.146
199.4
172.722
146.007
121.322
99.1106
78.9526
60.769
45.0231
32.1792
22.3601
15.0911
9.88044
6.24875
3.78302
2.15866
1.12252
0.482982
0.100636
-0.116356
-323.767
-292.553
-258.436
-224.833
-194.035
-166.128
-140.128
-115.848
-93.6957
-74.0562
-57.0768
-42.7743
-31.1622
-22.0475
-15.1356
-10.0842
-6.53381
-4.13895
-2.59363
-1.64405
-1.09223
-0.791855
)
;

boundaryField
{
    inlet
    {
        type            zeroGradient;
    }
    outlet
    {
        type            fixedValue;
        value           nonuniform 0();
    }
    cylinder
    {
        type            zeroGradient;
    }
    top
    {
        type            symmetryPlane;
    }
    bottom
    {
        type            symmetryPlane;
    }
    defaultFaces
    {
        type            empty;
    }
    procBoundary15to9
    {
        type            processor;
        value           nonuniform List<scalar> 
37
(
-16.8781
-15.889
-12.7504
-7.3863
-0.634974
-379.664
-379.664
-334.912
-291.745
-250.575
-96.9595
-96.9595
-77.3805
-58.448
-41.8816
75.848
75.848
57.8698
42.8462
30.9586
16.9783
16.9783
12.0372
8.67427
-0.136743
-0.136743
1.09504
1.85343
2.2925
2.08456
2.08456
2.28484
2.37663
2.14146
2.14146
2.1318
2.12302
)
;
    }
    procBoundary15to16
    {
        type            processor;
        value           nonuniform List<scalar> 
17
(
1.8536
1.62362
1.62362
1.39124
1.39124
1.14618
0.908254
0.908254
0.686505
0.436717
0.436717
0.179374
0.013241
0.013241
0.00440077
-0.235355
-0.64147
)
;
    }
    procBoundary15to21
    {
        type            processor;
        value           nonuniform List<scalar> 
26
(
-394.401
-363.08
-329.642
-295.271
-260.684
-226.042
-191.398
-157.393
-125.282
-96.4811
-72.0143
-52.2642
-36.9887
-25.5292
-17.1825
-11.2899
-7.26787
-4.62308
-2.95613
-1.94805
-1.36549
-1.04598
-386.88
-367.682
-348.207
-348.207
)
;
    }
}


// ************************************************************************* //
