/*--------------------------------*- C++ -*----------------------------------*\
  =========                 |
  \\      /  F ield         | OpenFOAM: The Open Source CFD Toolbox
   \\    /   O peration     | Website:  https://openfoam.org
    \\  /    A nd           | Version:  7
     \\/     M anipulation  |
\*---------------------------------------------------------------------------*/
FoamFile
{
    version     2.0;
    format      ascii;
    class       volVectorField;
    location    "0.1";
    object      U;
}
// * * * * * * * * * * * * * * * * * * * * * * * * * * * * * * * * * * * * * //

dimensions      [0 1 -1 0 0 0 0];

internalField   nonuniform List<vector> 
84
(
(3 -8.75446e-16 0)
(3 -3.28185e-16 0)
(3 3.7763e-16 0)
(3 1.62236e-16 0)
(3 -1.05428e-16 0)
(3 1.03423e-16 0)
(3 2.00677e-16 0)
(3 9.12864e-17 0)
(3 2.46275e-16 0)
(3 3.45767e-16 0)
(3 6.0161e-16 0)
(3 -3.30583e-16 0)
(3 -2.6289e-16 0)
(3 6.97621e-17 0)
(3 -4.54224e-16 0)
(3 -2.71646e-16 0)
(3 1.52612e-17 0)
(3 2.86154e-16 0)
(3 6.98749e-16 0)
(3 2.34279e-16 0)
(3 2.89015e-16 0)
(3 -4.3681e-16 0)
(3 -8.36611e-16 0)
(3 -1.17007e-15 0)
(3 -1.42852e-15 0)
(3 -8.61712e-16 0)
(3 -1.35128e-15 0)
(3 -1.21696e-15 0)
(3 -1.14435e-15 0)
(3 -9.5065e-16 0)
(3 5.96092e-16 0)
(3 3.49145e-16 0)
(3 -1.71974e-16 0)
(3 -3.51808e-16 0)
(3 -2.93266e-16 0)
(3 1.14345e-16 0)
(3 2.23094e-16 0)
(3 1.62793e-17 0)
(3 -3.37747e-16 0)
(3 -2.54504e-16 0)
(3 1.67168e-16 0)
(3 6.70134e-16 0)
(3 4.95649e-16 0)
(3 -1.13947e-15 0)
(3 -2.24358e-15 0)
(3 -1.76287e-15 0)
(3 -1.19852e-15 0)
(3 -8.09961e-16 0)
(3 -5.34893e-16 0)
(3 -5.27358e-16 0)
(3 -4.97097e-16 0)
(3 -2.2788e-17 0)
(3 7.71546e-16 0)
(3 1.06562e-15 0)
(3 5.6257e-16 0)
(3 3.39719e-16 0)
(3 7.26022e-16 0)
(3 5.72508e-16 0)
(3 9.70303e-17 0)
(3 6.26897e-16 0)
(3 4.49672e-16 0)
(3 1.31263e-16 0)
(3 8.27619e-17 0)
(3 -8.46644e-17 0)
(3 -4.71371e-16 0)
(3 -8.77763e-16 0)
(3 -5.39204e-16 0)
(3 -4.36211e-16 0)
(3 3.77157e-16 0)
(3 3.4333e-16 0)
(3 1.06866e-16 0)
(3 2.50344e-17 0)
(3 -3.22688e-16 0)
(3 2.25559e-16 0)
(3 4.8957e-16 0)
(3 4.55717e-16 0)
(3 6.80729e-16 0)
(3 5.36518e-16 0)
(3 1.12383e-16 0)
(3 4.41354e-16 0)
(3 1.37115e-15 0)
(3 1.50613e-15 0)
(3 8.35037e-16 0)
(3 -7.20983e-18 0)
)
;

boundaryField
{
    inlet
    {
        type            fixedValue;
        value           nonuniform 0();
    }
    outlet
    {
        type            inletOutlet;
        inletValue      uniform (3 0 0);
        value           nonuniform List<vector> 4((3 2.89015e-16 0) (3 6.70134e-16 0) (3 8.27619e-17 0) (3 -7.20983e-18 0));
    }
    bottom
    {
        type            symmetryPlane;
    }
    top
    {
        type            symmetryPlane;
    }
    obstacle
    {
        type            slip;
    }
    defaultFaces
    {
        type            empty;
    }
    procBoundary47to41
    {
        type            processor;
        value           nonuniform List<vector> 
21
(
(3 7.78313e-16 0)
(3 2.20562e-16 0)
(3 4.67925e-16 0)
(3 4.659e-16 0)
(3 -2.12364e-16 0)
(3 3.30396e-16 0)
(3 9.72664e-16 0)
(3 1.71341e-15 0)
(3 1.7924e-15 0)
(3 1.05886e-15 0)
(3 9.9083e-16 0)
(3 1.04193e-15 0)
(3 1.34989e-15 0)
(3 1.15528e-15 0)
(3 7.09891e-16 0)
(3 8.35593e-16 0)
(3 1.01895e-15 0)
(3 3.52608e-16 0)
(3 -2.96761e-16 0)
(3 -1.18529e-15 0)
(3 -1.55042e-15 0)
)
;
    }
    procBoundary47to46
    {
        type            processor;
        value           nonuniform List<vector> 4((3 -5.9094e-16 0) (3 -9.08369e-17 0) (3 1.07813e-15 0) (3 4.08428e-16 0));
    }
}


// ************************************************************************* //
