/*--------------------------------*- C++ -*----------------------------------*\
  =========                 |
  \\      /  F ield         | OpenFOAM: The Open Source CFD Toolbox
   \\    /   O peration     | Website:  https://openfoam.org
    \\  /    A nd           | Version:  7
     \\/     M anipulation  |
\*---------------------------------------------------------------------------*/
FoamFile
{
    version     2.0;
    format      ascii;
    class       surfaceScalarField;
    location    "20.00033";
    object      phi;
}
// * * * * * * * * * * * * * * * * * * * * * * * * * * * * * * * * * * * * * //

dimensions      [0 3 -1 0 0 0 0];

internalField   nonuniform List<scalar> 
11413
(
-0.000119804
9.88313e-06
-0.000125822
6.01744e-06
-0.000126671
8.49783e-07
-0.000120919
-5.75213e-06
-0.000107036
-1.38831e-05
-8.34993e-05
-2.35367e-05
-4.90062e-05
-3.4493e-05
-2.86753e-06
-4.61387e-05
-5.74635e-05
-1.93669e-06
3.91205e-06
-7.11467e-06
1.04695e-05
-1.51506e-05
1.62655e-05
-2.5602e-05
2.11836e-05
-3.79581e-05
2.50884e-05
-5.16375e-05
2.78413e-05
-6.59835e-05
2.92937e-05
-8.02566e-05
2.92821e-05
-9.36243e-05
2.76234e-05
-0.000105149
2.41103e-05
-0.000113772
1.85069e-05
-0.000118304
1.05491e-05
-0.000117407
-4.69655e-08
-0.000109607
-1.35524e-05
-9.33223e-05
-3.0168e-05
-6.69634e-05
-4.98956e-05
-2.91408e-05
-7.23156e-05
2.09414e-05
-9.62209e-05
-0.000119576
-1.86001e-06
5.77205e-06
-6.81251e-06
1.5422e-05
-1.44637e-05
2.39167e-05
-2.43573e-05
3.10772e-05
-3.59652e-05
3.66963e-05
-4.86848e-05
4.05609e-05
-6.18339e-05
4.24427e-05
-7.46423e-05
4.20905e-05
-8.62417e-05
3.92229e-05
-9.56526e-05
3.35212e-05
-0.000101769
2.4623e-05
-0.000103341
1.21218e-05
-9.89679e-05
-4.42033e-06
-8.70903e-05
-2.543e-05
-6.60264e-05
-5.12318e-05
-3.4056e-05
-8.18661e-05
1.0381e-05
-0.000116753
6.82868e-05
-0.000154127
-0.000190919
-1.74657e-06
7.51862e-06
-6.36503e-06
2.00405e-05
-1.34456e-05
3.09972e-05
-2.25112e-05
4.01428e-05
-3.30075e-05
4.71926e-05
-4.43003e-05
5.18536e-05
-5.56688e-05
5.38113e-05
-6.62977e-05
5.27193e-05
-7.5265e-05
4.81902e-05
-8.15288e-05
3.9785e-05
-8.39103e-05
2.70045e-05
-8.10767e-05
9.28818e-06
-7.15259e-05
-1.39712e-05
-5.35805e-05
-4.33754e-05
-2.54098e-05
-7.94025e-05
1.48968e-05
-0.000122173
6.91447e-05
-0.000171
0.000138642
-0.000223624
-0.000275924
-1.59821e-06
9.11684e-06
-5.77882e-06
2.42211e-05
-1.21103e-05
3.73287e-05
-2.00875e-05
4.812e-05
-2.91214e-05
5.62265e-05
-3.85352e-05
6.12674e-05
-4.75574e-05
6.28336e-05
-5.53123e-05
6.04742e-05
-6.08072e-05
5.36851e-05
-6.29179e-05
4.18956e-05
-6.03701e-05
2.44568e-05
-5.17206e-05
6.3867e-07
-3.5338e-05
-3.03538e-05
-9.39107e-06
-6.93223e-05
2.81402e-05
-0.000116934
7.94081e-05
-0.000173441
0.000146535
-0.000238127
0.000231218
-0.000308308
-0.0003788
-1.41724e-06
1.05341e-05
-5.06222e-06
2.78661e-05
-1.04757e-05
4.27422e-05
-1.71169e-05
5.47612e-05
-2.43532e-05
6.34628e-05
-3.14551e-05
6.83692e-05
-3.75877e-05
6.89662e-05
-4.18005e-05
6.4687e-05
-4.30135e-05
5.48981e-05
-4.00009e-05
3.8883e-05
-3.13707e-05
1.58265e-05
-1.5546e-05
-1.51861e-05
9.26201e-06
-5.51618e-05
4.50682e-05
-0.000105128
9.41172e-05
-0.000165983
0.000158844
-0.000238167
0.00024174
-0.000321023
0.000344969
-0.000411536
0.000469622
-0.000503453
-0.000585105
-1.2063e-06
1.17404e-05
-4.22492e-06
3.08847e-05
-8.56239e-06
4.70797e-05
-1.36349e-05
5.98338e-05
-1.87574e-05
6.85853e-05
-2.3137e-05
7.27488e-05
-2.58637e-05
7.16929e-05
-2.58981e-05
6.47215e-05
-2.20568e-05
5.10569e-05
-1.29947e-05
2.98209e-05
2.81965e-06
1.22225e-08
2.71172e-05
-3.94836e-05
6.1869e-05
-8.99136e-05
0.000109299
-0.000152558
0.000171901
-0.000228585
0.000252421
-0.000318688
0.000353758
-0.00042236
0.000478597
-0.000536375
0.000628553
-0.00065341
-0.000759624
-9.68328e-07
1.27087e-05
-3.27756e-06
3.31939e-05
-6.39329e-06
5.01954e-05
-9.68101e-06
6.31215e-05
-1.23943e-05
7.12986e-05
-1.36669e-05
7.40214e-05
-1.25019e-05
7.05279e-05
-7.75787e-06
5.99775e-05
1.86735e-06
4.14317e-05
1.78564e-05
1.38318e-05
4.18914e-05
-2.40228e-05
7.58888e-05
-7.3481e-05
0.000122013
-0.000136038
0.000182718
-0.000213263
0.000260763
-0.000306629
0.000359219
-0.000417145
0.000481404
-0.000544544
0.000630557
-0.000685528
0.000808875
-0.000831728
-0.000966962
-7.06333e-07
1.3415e-05
-2.23125e-06
3.47188e-05
-3.99237e-06
5.19565e-05
-5.29672e-06
6.44258e-05
-5.32785e-06
7.13297e-05
-3.13642e-06
7.183e-05
2.37251e-06
6.5019e-05
1.24548e-05
4.98951e-05
2.85454e-05
2.53411e-05
5.22783e-05
-9.90114e-06
8.55095e-05
-5.72539e-05
0.000130345
-0.000118317
0.000189168
-0.00019486
0.000264667
-0.000288762
0.000359874
-0.000401837
0.000478181
-0.000535451
0.000623312
-0.000689675
0.000799062
-0.000861279
0.00100824
-0.00104091
-0.00120982
-4.23316e-07
1.38384e-05
-1.09711e-06
3.53926e-05
-1.38377e-06
5.22432e-05
-5.24229e-07
6.35663e-05
2.37631e-06
6.84291e-05
8.35977e-06
6.58465e-05
1.86294e-05
5.47493e-05
3.45672e-05
3.39574e-05
5.77527e-05
2.15558e-06
8.9985e-05
-4.21335e-05
0.000133306
-0.000100575
0.000190026
-0.000175037
0.000262751
-0.000267586
0.000354414
-0.000380424
0.000468307
-0.00051573
0.000608119
-0.000675263
0.00077794
-0.000859496
0.000982078
-0.00106542
0.00122396
-0.00128279
-0.00149006
0.0015042
-1.22145e-07
1.39605e-05
1.14404e-07
3.51561e-05
1.4089e-06
5.09487e-05
4.59481e-06
6.03804e-05
1.06533e-05
6.23706e-05
2.07274e-05
5.57724e-05
3.6138e-05
3.93387e-05
5.84029e-05
1.16925e-05
8.92572e-05
-2.86988e-05
0.000130676
-8.35518e-05
0.000184895
-0.000154794
0.000254438
-0.00024458
0.000342137
-0.000355285
0.000451159
-0.000489447
0.000585038
-0.000649609
0.000747714
-0.000837939
0.000943569
-0.00105535
0.00117733
-0.00129918
0.00145303
-0.00155849
-0.00180857
0.00177154
1.94586e-07
1.37659e-05
1.39261e-06
3.39581e-05
4.36364e-06
4.79777e-05
1.00214e-05
5.47226e-05
1.94411e-05
5.29509e-05
3.38747e-05
4.13389e-05
5.4769e-05
1.84444e-05
8.3786e-05
-1.73245e-05
0.000122824
-6.77372e-05
0.000174041
-0.000134769
0.000239874
-0.000220627
0.00032306
-0.000327765
0.00042665
-0.000458875
0.000554032
-0.000616829
0.000708944
-0.000804521
0.00089551
-0.00102451
0.0011183
-0.00127814
0.00138231
-0.0015632
0.0016921
-0.00186828
-0.00216515
0.00204868
5.24622e-07
1.32413e-05
2.7297e-06
3.1753e-05
7.46077e-06
4.32466e-05
1.57194e-05
4.6464e-05
2.86814e-05
3.99889e-05
4.77145e-05
2.23058e-05
7.43978e-05
-8.23888e-06
0.000110544
-5.34704e-05
0.00015822
-0.000115413
0.000219768
-0.000196318
0.000297828
-0.000298686
0.000395343
-0.00042528
0.000515573
-0.000579106
0.000662094
-0.00076335
0.000838798
-0.000981225
0.00104991
-0.00123562
0.00130003
-0.00152826
0.00159426
-0.00185743
0.00193753
-0.00221155
-0.00255841
0.00233079
8.66169e-07
1.23751e-05
4.11781e-06
2.85013e-05
1.06829e-05
3.66815e-05
2.16567e-05
3.54903e-05
3.83213e-05
2.33243e-05
6.21655e-05
-1.53835e-06
9.49056e-05
-4.0979e-05
0.000138508
-9.70727e-05
0.00019521
-0.000172115
0.000267539
-0.000268647
0.000358327
-0.000389474
0.000470712
-0.000537666
0.000608137
-0.000716531
0.000774327
-0.000929539
0.00097326
-0.00118016
0.00120916
-0.00147151
0.0014865
-0.0018056
0.00181021
-0.00218114
0.00218542
-0.00258676
-0.00298568
0.00261269
1.21782e-06
1.11573e-05
5.55102e-06
2.41681e-05
1.40156e-05
2.82169e-05
2.78052e-05
2.17006e-05
4.83132e-05
2.81634e-06
7.71528e-05
-3.03779e-05
0.00011618
-8.00062e-05
0.000167515
-0.000148408
0.000233564
-0.000238164
0.00031703
-0.000352113
0.000420925
-0.000493369
0.000548559
-0.0006653
0.00070352
-0.000871492
0.000889627
-0.00111565
0.00111087
-0.0014014
0.00137134
-0.00173198
0.00167521
-0.00210947
0.00202697
-0.0025329
0.00243164
-0.00299143
-0.00344298
0.00288893
1.57865e-06
9.57865e-06
7.02481e-06
1.8722e-05
1.74469e-05
1.77948e-05
3.41412e-05
5.00631e-06
5.86147e-05
-2.16571e-05
9.26071e-05
-6.43704e-05
0.000138114
-0.000125513
0.000197406
-0.000207701
0.00027305
-0.000313807
0.000367911
-0.000446975
0.000485158
-0.000610616
0.000628239
-0.000808381
0.000800837
-0.00104409
0.0010068
-0.00132161
0.00125003
-0.00164464
0.00153438
-0.00201633
0.00186352
-0.00243861
0.00224119
-0.00291057
0.00267199
-0.00342223
-0.00392502
0.00315403
1.94809e-06
7.63056e-06
8.53592e-06
1.21341e-05
2.09676e-05
5.36311e-06
4.06442e-05
-1.46702e-05
6.91877e-05
-5.02006e-05
0.000108464
-0.000103647
0.000160604
-0.000177653
0.000228022
-0.000275119
0.00031343
-0.000399215
0.000419837
-0.000553382
0.000550535
-0.000741313
0.00070906
-0.000966906
0.000899132
-0.00123416
0.00112454
-0.00154702
0.00138901
-0.00190911
0.00169602
-0.00232333
0.00204857
-0.00279116
0.00244942
-0.00331142
0.00290221
-0.00387502
-0.0044256
0.00340279
2.32596e-06
5.3046e-06
1.00821e-05
4.37802e-06
2.457e-05
-9.1248e-06
4.72962e-05
-3.73964e-05
7.99969e-05
-8.29013e-05
0.00012466
-0.00014831
0.000183546
-0.000236538
0.0002592
-0.000350773
0.00035446
-0.000494475
0.000472445
-0.000671367
0.000616529
-0.000885396
0.000790278
-0.00114066
0.000997368
-0.00144125
0.00124144
-0.00179109
0.00152594
-0.0021936
0.00185384
-0.00265124
0.00222741
-0.00316473
0.00264822
-0.00373223
0.00311807
-0.00434486
-0.00493882
0.00363129
2.71225e-06
2.59235e-06
1.16617e-05
-4.57143e-06
2.82476e-05
-2.57107e-05
5.40805e-05
-6.32294e-05
9.10077e-05
-0.000119828
0.000141133
-0.000198435
0.000206834
-0.000302239
0.00029077
-0.000434709
0.000395876
-0.000599582
0.000525345
-0.000800836
0.000682574
-0.00104262
0.000871087
-0.00132917
0.00109442
-0.00166459
0.00135597
-0.00205264
0.00165877
-0.00249641
0.00200528
-0.00299775
0.00239708
-0.00355653
0.00283472
-0.00416987
0.0033168
-0.00482694
-0.0054567
0.00383468
3.10709e-06
-5.14734e-07
1.32734e-05
-1.47377e-05
3.19939e-05
-4.44311e-05
6.09801e-05
-9.22156e-05
0.000102184
-0.000161032
0.000157815
-0.000254067
0.000230353
-0.000374778
0.000322547
-0.000526902
0.000437396
-0.000714431
0.000578114
-0.000941554
0.000748057
-0.00121257
0.00095062
-0.00153173
0.00118909
-0.00190306
0.00146649
-0.00233004
0.00178534
-0.00281525
0.00214751
-0.00335992
0.00255417
-0.00396318
0.00300585
-0.00462154
0.0034993
-0.00532039
-0.0059833
0.0040259
3.51052e-06
-4.02526e-06
1.49154e-05
-2.61426e-05
3.58016e-05
-6.53173e-05
6.79755e-05
-0.00012439
0.000113485
-0.000206542
0.000174632
-0.000315214
0.000253977
-0.000454123
0.000354329
-0.000627254
0.000478708
-0.00083881
0.000630291
-0.00109314
0.000812317
-0.00139459
0.00102795
-0.00174736
0.00128011
-0.00215522
0.00157129
-0.00262122
0.00190335
-0.00314731
0.00227742
-0.00373399
0.00269409
-0.00437985
0.00315426
-0.00508171
0.00366683
-0.00583296
-0.00662053
0.00430406
3.92248e-06
-7.94774e-06
1.65854e-05
-3.88056e-05
3.96615e-05
-8.83934e-05
7.50438e-05
-0.000159772
0.000124864
-0.000256362
0.000191498
-0.000381848
0.000277563
-0.000540188
0.000385889
-0.00073558
0.00051947
-0.000972391
0.000681379
-0.00125505
0.000874648
-0.00158786
0.0011021
-0.00197482
0.00136617
-0.00241929
0.00166867
-0.00292372
0.0020106
-0.00348924
0.00239208
-0.00411547
0.00281252
-0.0048003
0.00327135
-0.00554054
0.00377144
-0.00633304
-0.00718109
0.004332
4.34253e-06
-1.22903e-05
1.82796e-05
-5.27426e-05
4.35613e-05
-0.000113675
8.21564e-05
-0.000198367
0.000136264
-0.000310469
0.000208314
-0.000453898
0.000300948
-0.000632821
0.000416976
-0.000851608
0.000559308
-0.00111472
0.00073084
-0.00142658
0.000934307
-0.00179133
0.00117209
-0.0022126
0.00144599
-0.0026932
0.00175701
-0.00323474
0.00210515
-0.00383738
0.00248931
-0.00449963
0.00290742
-0.0052184
0.0033566
-0.00598973
0.00383373
-0.00681018
-0.00768759
0.00434024
4.7698e-06
-1.70601e-05
1.99925e-05
-6.79653e-05
4.74852e-05
-0.000141168
8.9278e-05
-0.00024016
0.00014762
-0.000368811
0.000224966
-0.000531245
0.000323948
-0.000731803
0.00044731
-0.00097497
0.000597814
-0.00126523
0.000778104
-0.00160687
0.000990523
-0.00200375
0.0012369
-0.00245898
0.00151831
-0.00297461
0.00183483
-0.00355126
0.00218539
-0.00418793
0.00256762
-0.00488186
0.00297798
-0.00562876
0.00341177
-0.00642352
0.00386294
-0.00726135
-0.00814916
0.00432451
5.20289e-06
-2.2263e-05
2.17169e-05
-8.44793e-05
5.14128e-05
-0.000170864
9.63656e-05
-0.000285112
0.000158851
-0.000431296
0.000241321
-0.000613715
0.000346357
-0.000836839
0.000476584
-0.0011052
0.000634552
-0.0014232
0.000822571
-0.00179489
0.00104251
-0.00222369
0.00129555
-0.00271202
0.00158195
-0.00326101
0.00190082
-0.00387014
0.00224999
-0.00453709
0.00262592
-0.00525779
0.00302386
-0.0060267
0.00343789
-0.00683755
0.00386077
-0.00768423
-0.008571
0.00428261
5.6398e-06
-2.79028e-05
2.3443e-05
-0.000102283
5.53189e-05
-0.00020274
0.000103368
-0.000333161
0.000169867
-0.000497795
0.000257231
-0.000701079
0.000367947
-0.000947555
0.000504466
-0.00124172
0.00066906
-0.00158779
0.000863631
-0.00198946
0.00108949
-0.00244954
0.00134709
-0.00296963
0.00163584
-0.00354975
0.00195386
-0.00418815
0.00229793
-0.00488117
0.00266354
-0.0056234
0.00304505
-0.00640821
0.00343593
-0.00722844
0.00382882
-0.00807711
-0.00895598
0.0042138
6.07788e-06
-3.39806e-05
2.51589e-05
-0.000121364
5.91735e-05
-0.000236754
0.000110225
-0.000384213
0.000180564
-0.000568134
0.000272531
-0.000793046
0.000388472
-0.0010635
0.000530607
-0.00138385
0.000700865
-0.00175805
0.000900667
-0.00218926
0.00113069
-0.00267957
0.00139065
-0.00322958
0.00167903
-0.00383814
0.00199303
-0.00450215
0.00232851
-0.00521665
0.0026802
-0.00597508
0.00304194
-0.00676996
0.00340712
-0.00759362
0.00376892
-0.00843891
-0.00930583
0.00411877
6.51382e-06
-4.04945e-05
2.68504e-05
-0.0001417
6.29418e-05
-0.000272846
0.000116871
-0.000438142
0.000190828
-0.000642091
0.000287042
-0.00088926
0.000407669
-0.00118412
0.000554644
-0.00153083
0.000729486
-0.00193289
0.000933079
-0.00239285
0.00116543
-0.00291192
0.00142543
-0.00348958
0.00171074
-0.00412344
0.00201767
-0.00480909
0.00234136
-0.00554034
0.002676
-0.00630973
0.00301531
-0.00710926
0.00335298
-0.00793129
0.00368317
-0.00876911
-0.00962185
0.00399919
6.9437e-06
-4.74382e-05
2.8501e-05
-0.000163257
6.65844e-05
-0.000310929
0.000123229
-0.000494787
0.000200534
-0.000719397
0.000300575
-0.000989301
0.000425269
-0.00130882
0.00057621
-0.00168177
0.000754456
-0.00211114
0.0009603
-0.0025987
0.00119304
-0.00314465
0.00145078
-0.00374733
0.00173037
-0.00440303
0.00202739
-0.00510611
0.00233642
-0.00584937
0.00265142
-0.00662473
0.00296626
-0.0074241
0.0032753
-0.00824033
0.00357388
-0.00906769
-0.00990527
0.0038573
7.36303e-06
-5.48012e-05
3.00923e-05
-0.000185987
7.00583e-05
-0.000350895
0.000129221
-0.000553949
0.000209553
-0.000799729
0.000312933
-0.00109268
0.000440997
-0.00143688
0.000594945
-0.00183572
0.000775327
-0.00229152
0.000981812
-0.00280518
0.00121298
-0.00337582
0.00146618
-0.00400053
0.00173753
-0.00467438
0.00202204
-0.00539062
0.00231396
-0.00614129
0.00260725
-0.00691802
0.00289622
-0.00771308
0.00317611
-0.00852021
0.00344352
-0.0093351
-0.0101574
0.00369564
7.76683e-06
-6.2568e-05
3.16043e-05
-0.000209824
7.33175e-05
-0.000392608
0.000134761
-0.000615393
0.000217748
-0.000882716
0.00032392
-0.00119885
0.000454584
-0.00156754
0.000610506
-0.00199164
0.00079169
-0.0024727
0.000997163
-0.00301065
0.0012248
-0.00360346
0.00147127
-0.004247
0.00173205
-0.00493517
0.00200177
-0.00566033
0.00227453
-0.00641405
0.00254458
-0.00718806
0.00280685
-0.00797535
0.00305757
-0.00877093
0.00329461
-0.00957214
-0.0103796
0.00351684
8.14974e-06
-7.07178e-05
3.30161e-05
-0.00023469
7.63141e-05
-0.000435906
0.000139765
-0.000678844
0.000224985
-0.000967936
0.000333342
-0.00130721
0.000465773
-0.00169998
0.000622574
-0.00214844
0.000803182
-0.00265331
0.00100598
-0.00321346
0.00122819
-0.00382567
0.00146584
-0.00448465
0.00171397
-0.00518329
0.00196693
-0.0059133
0.00221896
-0.00666608
0.00246472
-0.00743382
0.00269995
-0.00821058
0.00292192
-0.00899289
0.00312967
-0.00977989
-0.0105734
0.00332343
8.50614e-06
-7.92239e-05
3.43057e-05
-0.00026049
7.89994e-05
-0.0004806
0.000144145
-0.00074399
0.00023113
-0.00105492
0.000341012
-0.00141709
0.000474325
-0.00183329
0.000630869
-0.00230498
0.000809503
-0.00283194
0.00100799
-0.00341194
0.00122294
-0.00404062
0.00144988
-0.00471158
0.0016835
-0.00541692
0.00191813
-0.00614793
0.00214825
-0.0068962
0.00236914
-0.00765472
0.00257741
-0.00841885
0.00277136
-0.00918683
0.00295105
-0.00995959
-0.0107401
0.00311781
8.83024e-06
-8.80541e-05
3.54511e-05
-0.000287111
8.13248e-05
-0.000526474
0.000147818
-0.000810483
0.000236058
-0.00114316
0.000346759
-0.00152779
0.000480028
-0.00196656
0.000635152
-0.00246011
0.00081042
-0.00300721
0.00100301
-0.00360454
0.001209
-0.00424661
0.00142352
-0.0049261
0.00164109
-0.00563449
0.00185614
-0.00636298
0.00206359
-0.00710364
0.00225942
-0.00785055
0.00244115
-0.00860058
0.00260802
-0.00935371
0.00276098
-0.0101126
-0.0108813
0.00290214
9.11624e-06
-9.71704e-05
3.64305e-05
-0.000314425
8.32434e-05
-0.000573287
0.000150704
-0.000877943
0.00023965
-0.00123211
0.000350429
-0.00163857
0.0004827
-0.00209883
0.000635235
-0.00261264
0.000805774
-0.00317775
0.000990965
-0.00378973
0.00118644
-0.00444208
0.00138705
-0.00512671
0.0015873
-0.00583474
0.00178188
-0.00655755
0.00196624
-0.00728801
0.00213715
-0.00802146
0.00229301
-0.00875644
0.0024339
-0.0094946
0.00256148
-0.0102401
-0.0109982
0.00267835
9.35846e-06
-0.000106529
3.72229e-05
-0.000342289
8.47105e-05
-0.000620774
0.000152728
-0.00094596
0.000241801
-0.00132118
0.00035189
-0.00174866
0.000482196
-0.00222913
0.000630985
-0.00276143
0.000795484
-0.00334225
0.000971873
-0.00396612
0.00115544
-0.00462564
0.00134089
-0.00531217
0.00152285
-0.00601669
0.00169637
-0.00673107
0.00185755
-0.00744919
0.00200394
-0.00816785
0.00213477
-0.00888726
0.00225084
-0.00961067
0.00235432
-0.0103436
-0.011092
0.00244812
9.55141e-06
-0.00011608
3.78086e-05
-0.000370547
8.56851e-05
-0.000668651
0.000153824
-0.0010141
0.000242421
-0.00140978
0.000351035
-0.00185728
0.00047841
-0.00235651
0.000622329
-0.00290535
0.000779546
-0.00349947
0.000945856
-0.00413243
0.00111631
-0.0047961
0.00128559
-0.00548145
0.00144854
-0.00617964
0.00160071
-0.00688324
0.00173886
-0.00758735
0.00186133
-0.00829032
0.00196807
-0.008994
0.0020605
-0.00970309
0.0021411
-0.0104242
-0.0111638
0.00221291
9.68997e-06
-0.00012577
3.81694e-05
-0.000399026
8.61308e-05
-0.000716612
0.000153937
-0.00108191
0.000241436
-0.00149727
0.000347785
-0.00196363
0.00047128
-0.00248
0.000609247
-0.00304332
0.000758033
-0.00364825
0.000913126
-0.00428752
0.00106944
-0.00495241
0.00122176
-0.00563376
0.00136525
-0.00632313
0.00149601
-0.00701401
0.00161151
-0.00770284
0.00171079
-0.0083896
0.00179445
-0.00907766
0.00186435
-0.00977299
0.00192318
-0.010483
-0.0112145
0.00197394
9.76944e-06
-0.00013554
3.82893e-05
-0.000427546
8.60162e-05
-0.000764339
0.000153019
-0.00114891
0.000238792
-0.00158305
0.000342091
-0.00206692
0.000460783
-0.0025987
0.000591782
-0.00317432
0.000731087
-0.00378756
0.00087397
-0.0044304
0.00101532
-0.00509376
0.0011501
-0.00576855
0.0012739
-0.00644693
0.00138341
-0.00712352
0.00147677
-0.0077962
0.00155368
-0.00846651
0.00161526
-0.00913924
0.0016637
-0.00982143
0.00170176
-0.0105211
-0.0112451
0.00173229
9.78569e-06
-0.000145325
3.81547e-05
-0.000455915
8.53161e-05
-0.0008115
0.000151036
-0.00121463
0.000234454
-0.00166647
0.000333933
-0.0021664
0.000446941
-0.0027117
0.000570027
-0.0032974
0.000698915
-0.00391645
0.000828749
-0.00456024
0.00095448
-0.00521949
0.00107136
-0.00588542
0.00117544
-0.00655101
0.00126401
-0.00721209
0.00133585
-0.00786805
0.00139125
-0.00852191
0.00143174
-0.00917973
0.0014597
-0.00984938
0.00147786
-0.0105393
-0.0112561
0.00148886
9.7352e-06
-0.000155061
3.77544e-05
-0.000483934
8.40114e-05
-0.000857757
0.000147965
-0.00127858
0.000228406
-0.00174691
0.000323321
-0.00226132
0.000429815
-0.0028182
0.000544126
-0.00341171
0.000661779
-0.0040341
0.000777875
-0.00467633
0.000887517
-0.00532913
0.0009863
-0.00598421
0.00107079
-0.0066355
0.00113886
-0.00728017
0.0011899
-0.00791909
0.00122466
-0.00855667
0.00124498
-0.00920005
0.00125334
-0.00985774
0.00125236
-0.0105383
-0.0112482
0.00124443
9.61512e-06
-0.000164676
3.70804e-05
-0.000511399
8.20899e-05
-0.000902767
0.000143797
-0.00134029
0.000220653
-0.00182376
0.000310295
-0.00235096
0.000409504
-0.00291741
0.000514271
-0.00351648
0.000619992
-0.00413982
0.00072181
-0.00477815
0.00081505
-0.00542237
0.000895707
-0.00606486
0.000960868
-0.00670066
0.00100899
-0.00732829
0.00103995
-0.00795005
0.00105492
-0.00857163
0.00105593
-0.00920106
0.00104548
-0.0098473
0.00102603
-0.0105188
-0.0112218
0.000999685
9.42337e-06
-0.000174099
3.61275e-05
-0.000538104
7.95466e-05
-0.000946186
0.000138535
-0.00139928
0.000211219
-0.00189645
0.00029492
-0.00243466
0.000386142
-0.00300863
0.000480689
-0.00361103
0.000573904
-0.00423304
0.000661042
-0.00486529
0.000737716
-0.00549905
0.000800353
-0.0061275
0.000846561
-0.00674686
0.000875323
-0.00735705
0.000886973
-0.0079617
0.000882964
-0.00856762
0.000865462
-0.00918356
0.000836901
-0.00981873
0.000799541
-0.0104815
-0.0111775
0.000755205
9.15863e-06
-0.000183258
3.48936e-05
-0.000563839
7.6383e-05
-0.000987675
0.000132192
-0.00145509
0.000200149
-0.00196441
0.000277289
-0.0025118
0.000359894
-0.00309123
0.000443643
-0.00369478
0.000523896
-0.00431329
0.000596085
-0.00493748
0.000656158
-0.00555912
0.000700993
-0.00617234
0.000728703
-0.00677457
0.000738747
-0.00736709
0.000731831
-0.00795479
0.000709617
-0.00854541
0.000674315
-0.00914826
0.000628247
-0.00977267
0.000573464
-0.0104267
-0.0111155
0.000511532
8.8204e-06
-0.000192078
3.33799e-05
-0.000588398
7.26078e-05
-0.0010269
0.000124797
-0.00150728
0.000187502
-0.00202711
0.000257516
-0.00258181
0.000330949
-0.00316467
0.00040342
-0.00376725
0.000470369
-0.00438024
0.00052746
-0.00499457
0.00057101
-0.00560267
0.000598355
-0.00619968
0.000608083
-0.0067843
0.000600071
-0.00735908
0.000575317
-0.00793003
0.000535617
-0.00850571
0.000483157
-0.0090958
0.000420113
-0.00970962
0.000348293
-0.0103549
-0.0110364
0.000269135
8.40897e-06
-0.000200487
3.15903e-05
-0.000611579
6.82363e-05
-0.00106355
0.000116388
-0.00155543
0.000173356
-0.00208408
0.000235736
-0.00264419
0.000299522
-0.00322845
0.000360329
-0.00382805
0.000413739
-0.00443365
0.000455692
-0.00503652
0.000482895
-0.00562987
0.000493134
-0.00620992
0.000485436
-0.00677661
0.000460033
-0.00733368
0.000418143
-0.00788814
0.000361623
-0.00844919
0.000292586
-0.00902676
0.000213058
-0.00963009
0.000124566
-0.0102664
-0.0109394
2.75628e-05
7.92544e-06
-0.000208412
2.9532e-05
-0.000633186
6.329e-05
-0.00109731
0.000107012
-0.00159915
0.000157801
-0.00213487
0.000212101
-0.00269849
0.000265841
-0.00328219
0.000314693
-0.00387691
0.000354427
-0.00447338
0.000381297
-0.00506339
0.00039241
-0.00564098
0.000385986
-0.00620349
0.000361445
-0.00675206
0.000319311
-0.00729154
0.000260952
-0.00782978
0.00018823
-0.00837647
0.000103128
-0.00894166
7.44159e-06
-0.00953441
-9.72102e-05
-0.0101617
-0.0108262
-0.000210412
7.37169e-06
-0.000215784
2.72149e-05
-0.000653029
5.77962e-05
-0.00112789
9.67268e-05
-0.00163808
0.000140941
-0.00217908
0.000186775
-0.00274433
0.000230149
-0.00332557
0.000266843
-0.0039136
0.000292856
-0.0044994
0.000304782
-0.00507532
0.000300129
-0.00563633
0.000277525
-0.00618089
0.000236737
-0.00671128
0.000178519
-0.00723333
0.000104327
-0.00775559
1.59651e-05
-0.00828811
-8.4709e-05
-0.00884099
-0.000196043
-0.00942307
-0.0003169
-0.0100409
-0.0106966
-0.00044648
6.75031e-06
-0.000222534
2.46515e-05
-0.00067093
5.17876e-05
-0.00115502
8.55988e-05
-0.00167189
0.000122889
-0.00221637
0.000159936
-0.00278138
0.000192698
-0.00335833
0.000217111
-0.00393801
0.00022944
-0.00451173
0.000226633
-0.00507251
0.000206593
-0.00561629
0.000168323
-0.00614262
0.000111888
-0.00665484
3.82162e-05
-0.00715965
-5.12058e-05
-0.00766617
-0.000154665
-0.00818465
-0.000270499
-0.00872515
-0.000397255
-0.00929632
-0.000533893
-0.00990423
-0.0105507
-0.000679783
6.06463e-06
-0.000228599
2.18568e-05
-0.000686723
4.53015e-05
-0.00117847
7.37002e-05
-0.00170029
0.000103767
-0.00224644
0.000131767
-0.00280938
0.000153745
-0.00338031
0.000165832
-0.0039501
0.000164586
-0.00451048
0.000147317
-0.00505524
0.00011231
-0.00558128
5.89077e-05
-0.00608922
-1.25752e-05
-0.00658336
-0.000101089
-0.00707114
-0.000205167
-0.00756209
-0.000323236
-0.00806658
-0.000453831
-0.00859456
-0.000595701
-0.00915445
-0.00074791
-0.00975202
-0.0103887
-0.000909906
5.31858e-06
-0.000233918
1.88478e-05
-0.000700252
3.83792e-05
-0.001198
6.11095e-05
-0.00172302
8.37037e-05
-0.00226903
0.000102458
-0.00282813
0.000113548
-0.00339139
0.000113332
-0.00394988
9.86852e-05
-0.00449583
6.72772e-05
-0.00502383
1.7755e-05
-0.00553176
-5.02332e-05
-0.00602123
-0.00013617
-0.00649742
-0.000238936
-0.00696837
-0.000357125
-0.0074439
-0.000489329
-0.00793437
-0.000634308
-0.00844958
-0.000791013
-0.00899774
-0.000958603
-0.00958443
-0.0102108
-0.00113651
4.51672e-06
-0.000238434
1.56435e-05
-0.000711379
3.10657e-05
-0.00121342
4.79096e-05
-0.00173986
6.28315e-05
-0.00228396
7.22019e-05
-0.0028375
7.23628e-05
-0.00339156
5.99322e-05
-0.00393745
3.21133e-05
-0.00446801
-1.3069e-05
-0.00497865
-7.66312e-05
-0.0054682
-0.000158654
-0.00593921
-0.000258464
-0.00639761
-0.000374909
-0.00685193
-0.000506679
-0.00731213
-0.000652559
-0.00778849
-0.000811552
-0.00829058
-0.000982826
-0.00882647
-0.00116562
-0.00940164
-0.0100172
-0.00135927
3.66413e-06
-0.000242099
1.22645e-05
-0.000719979
2.34086e-05
-0.00122457
3.4187e-05
-0.00175064
4.12863e-05
-0.00229105
4.11901e-05
-0.0028374
3.0443e-05
-0.00338081
5.94651e-06
-0.00391296
-3.4774e-05
-0.00442729
-9.3335e-05
-0.00492009
-0.000170442
-0.00539109
-0.000265949
-0.0058437
-0.00037906
-0.0062845
-0.000508629
-0.00672236
-0.000653464
-0.0071673
-0.000812565
-0.00762939
-0.000985199
-0.00811795
-0.00117077
-0.0086409
-0.00136862
-0.00920379
-0.00980792
-0.00157786
2.76645e-06
-0.000244865
8.73296e-06
-0.000725945
1.54577e-05
-0.00123129
2.00302e-05
-0.00175521
1.92046e-05
-0.00229023
9.61546e-06
-0.00282782
-1.19666e-05
-0.00335923
-4.83446e-05
-0.00387658
-0.000101642
-0.004374
-0.000173155
-0.00484858
-0.000263304
-0.00530094
-0.000371747
-0.00573526
-0.000497601
-0.00615865
-0.000639752
-0.00658021
-0.000797147
-0.0070099
-0.000969011
-0.00745753
-0.00115489
-0.00793207
-0.00135447
-0.00844131
-0.00156723
-0.00899102
-0.00958318
-0.00179197
1.83026e-06
-0.000246695
5.07224e-06
-0.000729187
7.26421e-06
-0.00123348
5.52987e-06
-0.00175348
-3.27397e-06
-0.00228142
-2.23399e-05
-0.00280875
-5.46325e-05
-0.00332693
-0.000102644
-0.00382857
-0.000168171
-0.00430847
-0.000252193
-0.00476455
-0.000354875
-0.00519826
-0.000475711
-0.00561442
-0.000613765
-0.00602059
-0.000767972
-0.006426
-0.000937426
-0.00684045
-0.00112158
-0.00727337
-0.00132028
-0.00773338
-0.00153354
-0.00822805
-0.00176108
-0.00876348
-0.00934299
-0.00200127
8.70005e-07
-0.000247565
1.30349e-06
-0.000729621
-1.12042e-06
-0.00123106
-9.22661e-06
-0.00174537
-2.60248e-05
-0.00226463
-5.44902e-05
-0.00278028
-9.73202e-05
-0.0032841
-0.000156689
-0.0037692
-0.000234067
-0.00423109
-0.000330139
-0.00466848
-0.000444844
-0.00508356
-0.00057754
-0.00548173
-0.000727262
-0.00587087
-0.000893012
-0.00626025
-0.00107403
-0.00665943
-0.00126999
-0.00707742
-0.00148102
-0.00752234
-0.00170757
-0.00800151
-0.00194973
-0.00852132
-0.00908728
-0.00220544
-1.55442e-07
-0.00024741
-2.54808e-06
-0.000727228
-9.64218e-06
-0.00122397
-2.41474e-05
-0.00173087
-4.89046e-05
-0.00223987
-8.66578e-05
-0.00274253
-0.000139814
-0.00323095
-0.000210229
-0.00369878
-0.000299057
-0.00414226
-0.000406709
-0.00456083
-0.000532924
-0.00495734
-0.000676957
-0.00533769
-0.000837833
-0.00570999
-0.00101463
-0.00608346
-0.00120672
-0.00646734
-0.00141398
-0.00687016
-0.00163682
-0.0072995
-0.00187613
-0.00776219
-0.00213271
-0.00826474
-0.0088158
-0.00240418
-1.15456e-06
-0.000246255
-6.45249e-06
-0.00072193
-1.82495e-05
-0.00121217
-3.91438e-05
-0.00170997
-7.17884e-05
-0.00220722
-0.000118674
-0.00269565
-0.000181908
-0.00316771
-0.000263027
-0.00361767
-0.000362885
-0.00404241
-0.00048164
-0.00444208
-0.000618859
-0.00482012
-0.000773717
-0.00518284
-0.000945246
-0.00553846
-0.0011326
-0.0058961
-0.0013353
-0.00626464
-0.00155334
-0.00665212
-0.00178739
-0.00706546
-0.00203881
-0.00751076
-0.00230944
-0.00799411
-0.0085281
-0.00259714
-2.18706e-06
-0.000244068
-1.03925e-05
-0.000713725
-2.68903e-05
-0.00119567
-5.41299e-05
-0.00168273
-9.45517e-05
-0.0021668
-0.000150377
-0.00263982
-0.000223407
-0.00309468
-0.000314865
-0.00352621
-0.000425317
-0.00393195
-0.000554693
-0.0043127
-0.000702413
-0.0046724
-0.000867593
-0.00501766
-0.00104929
-0.00535677
-0.00124675
-0.00569864
-0.00145958
-0.00605181
-0.00168791
-0.00642378
-0.00193252
-0.00682085
-0.0021952
-0.00724809
-0.00247899
-0.00771032
-0.00822357
-0.00278352
-3.22648e-06
-0.000240842
-1.43415e-05
-0.00070261
-3.55133e-05
-0.0011745
-6.90216e-05
-0.00164923
-0.000117075
-0.00211875
-0.000181613
-0.00257528
-0.000264128
-0.00301217
-0.000365538
-0.0034248
-0.000486137
-0.00381135
-0.000625649
-0.00417319
-0.000783371
-0.00451468
-0.000958381
-0.00484265
-0.00114978
-0.00516537
-0.00135689
-0.00549153
-0.00157943
-0.00582927
-0.0018176
-0.00618562
-0.00207216
-0.00656629
-0.00234488
-0.00697537
-0.00263991
-0.00741529
-0.00789932
-0.00296416
-4.26595e-06
-0.000236576
-1.82747e-05
-0.000688601
-4.40683e-05
-0.00114871
-8.37374e-05
-0.00160956
-0.000139243
-0.00206324
-0.000212235
-0.00250229
-0.000303899
-0.0029205
-0.000414855
-0.00331384
-0.000545145
-0.00368106
-0.000694308
-0.00402402
-0.000861538
-0.00434745
-0.0010459
-0.00465829
-0.00124653
-0.00496473
-0.00146287
-0.00527519
-0.00169472
-0.00559742
-0.00194235
-0.00593798
-0.00220651
-0.00630213
-0.00248816
-0.00669372
-0.00278713
-0.00711632
-0.00757466
-0.00311179
-5.29911e-06
-0.000231277
-2.21686e-05
-0.000671732
-5.25068e-05
-0.00111837
-9.81992e-05
-0.00156386
-0.000160948
-0.0020005
-0.000242108
-0.00242113
-0.000342561
-0.00282005
-0.000462643
-0.00319376
-0.00060216
-0.00354155
-0.000760486
-0.0038657
-0.000936734
-0.0041712
-0.00112996
-0.00446506
-0.00133938
-0.00475532
-0.00156451
-0.00505006
-0.0018053
-0.00535664
-0.0020621
-0.00568118
-0.00233572
-0.00602851
-0.0026272
-0.00640224
-0.00293774
-0.00680578
-0.00724026
-0.00327213
-6.31957e-06
-0.000224957