/*--------------------------------*- C++ -*----------------------------------*\
  =========                 |
  \\      /  F ield         | OpenFOAM: The Open Source CFD Toolbox
   \\    /   O peration     | Website:  https://openfoam.org
    \\  /    A nd           | Version:  7
     \\/     M anipulation  |
\*---------------------------------------------------------------------------*/
FoamFile
{
    version     2.0;
    format      ascii;
    class       volScalarField;
    location    "1";
    object      p;
}
// * * * * * * * * * * * * * * * * * * * * * * * * * * * * * * * * * * * * * //

dimensions      [0 2 -2 0 0 0 0];

internalField   nonuniform List<scalar> 
344
(
-3.51778
-3.47987
-3.48981
-3.66335
-3.9474
-4.28774
-4.69484
-5.12496
-5.58459
-6.06724
-6.48741
-6.83302
-7.07202
-7.18994
-7.22931
-7.19448
-7.09882
-6.93903
-6.71511
-6.43041
-6.09075
-5.71002
-5.30704
-4.89425
-4.46939
-4.01109
-3.50483
-2.96091
-2.41843
-1.92561
-1.51224
-1.1902
-0.944501
-0.753912
-0.599041
-0.467958
-0.356361
-0.26452
-0.192478
-0.137951
-0.0972487
-0.0666656
-0.043226
-0.0248213
-2.08435
-2.08705
-2.10358
-2.16497
-2.36348
-2.75837
-3.29732
-3.73369
-3.95169
-3.98264
-3.83053
-3.56154
-3.1883
-2.77898
-2.43366
-2.16366
-2.06624
-2.19756
-2.56333
-3.08725
-3.57718
-3.81387
-3.73941
-3.55805
-3.47033
-3.58669
-3.82128
-4.15706
-4.56753
-5.00634
-5.48201
-5.98174
-6.41976
-6.78245
-7.02263
-7.13305
-7.16692
-7.13075
-7.03085
-6.86621
-6.6412
-6.35848
-6.02253
-5.64336
-5.23655
-4.81259
-4.37172
-3.90283
-3.39804
-2.87358
-2.36301
-1.90217
-1.5123
-1.20134
-0.960193
-0.768323
-0.61082
-0.477977
-0.365802
-0.273737
-0.201106
-0.145531
-0.103566
-0.071763
-0.04729
-0.0280752
-2.06743
-2.06854
-2.0787
-2.13022
-2.30428
-2.65423
-3.11805
-3.47585
-3.6366
-3.6785
-3.61565
-3.42977
-3.17415
-2.84657
-2.54861
-2.28969
-2.18774
-2.33324
-2.75611
-3.34891
-3.90758
-4.12005
-3.93805
-3.61639
-3.42838
-3.47886
-3.67446
-4.00003
-4.41253
-4.86191
-5.34851
-5.85897
-6.32009
-6.71281
-6.96531
-7.07625
-7.10577
-7.06928
-6.9666
-6.79699
-6.56808
-6.28369
-5.94606
-5.56269
-5.15019
-4.71724
-4.26783
-3.79524
-3.30008
-2.79859
-2.31761
-1.8839
-1.51333
-1.21172
-0.974476
-0.78167
-0.622174
-0.487949
-0.375219
-0.282809
-0.209515
-0.152899
-0.109719
-0.0767419
-0.0512631
-0.0312491
-2.05167
-2.05433
-2.05991
-2.10463
-2.2597
-2.57155
-2.97631
-3.27101
-3.38123
-3.40831
-3.44374
-3.3251
-3.16147
-2.92072
-2.65924
-2.40359
-2.28449
-2.43193
-2.89542
-3.53927
-4.15921
-4.3677
-4.09512
-3.65321
-3.3643
-3.34943
-3.52053
-3.83059
-4.24762
-4.7054
-5.1966
-5.71089
-6.19106
-6.61164
-6.88565
-7.0119
-7.04449
-7.0059
-6.89937
-6.72457
-6.4895
-6.20034
-5.85748
-5.46993
-5.05326
-4.61615
-4.16472
-3.69582
-3.21503
-2.73607
-2.28064
-1.86921
-1.51455
-1.22108
-0.987296
-0.793898
-0.63296
-0.497669
-0.384417
-0.291587
-0.217596
-0.159972
-0.115638
-0.0815443
-0.0550996
-0.0343086
-2.04168
-2.04457
-2.04745
-2.08811
-2.2274
-2.50711
-2.85826
-3.11176
-3.19306
-3.18024
-3.30894
-3.26338
-3.14505
-2.99195
-2.76873
-2.50941
-2.3603
-2.50299
-2.98821
-3.65637
-4.32952
-4.53532
-4.18849
-3.65996
-3.28618
-3.21261
-3.36716
-3.66076
-4.08563
-4.54664
-5.03983
-5.5537
-6.0418
-6.48026
-6.77895
-6.92969
-6.97159
-6.93524
-6.8254
-6.64495
-6.40227
-6.10642
-5.75869
-5.36856
-4.9522
-4.51766
-4.06896
-3.60906
-3.14325
-2.68447
-2.25033
-1.85718
-1.51577
-1.22941
-0.998723
-0.805024
-0.643079
-0.506973
-0.39324
-0.299954
-0.225265
-0.166681
-0.121264
-0.0861202
-0.0587584
-0.0372221
-2.03489
-2.03869
-2.04042
-2.0784
-2.20433
-2.45832
-2.76498
-2.98312
-3.05595
-2.99759
-3.19964
-3.24889
-3.14135
-3.06285
-2.88243
-2.62088
-2.42841
-2.5545
-3.04035
-3.72807
-4.39191
-4.60497
-4.20004
-3.61803
-3.18617
-3.06595
-3.21116
-3.49483
-3.92435
-4.38251
-4.87828
-5.38964
-5.8796
-6.3275
-6.6467
-6.82449
)
;

boundaryField
{
    inlet
    {
        type            zeroGradient;
    }
    outlet
    {
        type            fixedValue;
        value           nonuniform 0();
    }
    wall
    {
        type            zeroGradient;
    }
    wedge1
    {
        type            wedge;
    }
    wedge2
    {
        type            wedge;
    }
    axis
    {
        type            empty;
    }
    procBoundary33to27
    {
        type            processor;
        value           nonuniform List<scalar> 
67
(
-3.29178
-3.38943
-3.49524
-3.72155
-4.04358
-4.3915
-4.79525
-5.22056
-5.66521
-6.13187
-6.54092
-6.88145
-7.12547
-7.25196
-7.29555
-7.26368
-7.1731
-7.01926
-6.79796
-6.50797
-6.15776
-5.76615
-5.36117
-4.95743
-4.55282
-4.11368
-3.6142
-3.05743
-2.48418
-1.95579
-1.51532
-1.17802
-0.927572
-0.738596
-0.587011
-0.45811
-0.347113
-0.25534
-0.183772
-0.13027
-0.0908543
-0.0615172
-0.0391224
-0.0215245
-2.11449
-2.11099
-2.13599
-2.20985
-2.43669
-2.88236
-3.50726
-4.04327
-4.31234
-4.31492
-4.08185
-3.71275
-3.223
-2.72538
-2.31706
-2.02822
-1.91854
-2.02129
-2.31813
-2.76116
-3.19938
-3.46922
-3.46922
)
;
    }
    procBoundary33to28
    {
        type            processor;
        value           uniform -0.0100573;
    }
    procBoundary33to34
    {
        type            processor;
        value           nonuniform List<scalar> 4(-0.0127017 -0.0152667 -0.0177279 -0.0200621);
    }
    procBoundary33to39
    {
        type            processor;
        value           nonuniform List<scalar> 
67
(
-6.88037
-6.8492
-6.73737
-6.55409
-6.30485
-6.00197
-5.65289
-5.26651
-4.85606
-4.42688
-3.98506
-3.53515
-3.08337
-2.64202
-2.22534
-1.84741
-1.51706
-1.23678
-1.0089
-0.815083
-0.652459
-0.515739
-0.401572
-0.307825
-0.232458
-0.172973
-0.126549
-0.0904262
-0.0622031
-0.0399607
-2.03115
-2.03577
-2.03715
-2.07289
-2.18549
-2.41968
-2.69059
-2.87506
-2.95273
-2.84908
-3.10944
-3.26759
-3.15669
-3.1246
-2.98796
-2.73368
-2.507
-2.599
-3.06688
-3.73929
-4.36966
-4.56773
-4.13865
-3.52638
-3.05025
-2.91628
-3.05562
-3.34084
-3.76451
-4.2161
-4.71221
-5.21694
-5.70935
-6.16258
-6.49518
-6.88037
-6.69404
)
;
    }
}


// ************************************************************************* //
