/*--------------------------------*- C++ -*----------------------------------*\
  =========                 |
  \\      /  F ield         | OpenFOAM: The Open Source CFD Toolbox
   \\    /   O peration     | Website:  https://openfoam.org
    \\  /    A nd           | Version:  7
     \\/     M anipulation  |
\*---------------------------------------------------------------------------*/
FoamFile
{
    version     2.0;
    format      ascii;
    class       volScalarField;
    location    "13";
    object      p;
}
// * * * * * * * * * * * * * * * * * * * * * * * * * * * * * * * * * * * * * //

dimensions      [0 2 -2 0 0 0 0];

internalField   nonuniform List<scalar> 
433
(
10.6683
10.4218
10.1772
9.935
9.69567
12.7777
12.663
12.484
12.2678
12.031
11.7834
11.5307
11.276
11.0212
10.7674
10.5152
10.2653
10.0178
9.77338
-13.3443
-4.28938
2.15091
6.54073
9.4256
11.2193
12.2473
12.7639
12.9518
12.9376
12.8052
12.6071
12.3748
12.1257
11.8693
11.6102
11.3507
11.092
10.8345
10.5787
10.325
10.0737
9.8255
9.57916
76.4155
91.0161
104.978
112.563
110.848
100.978
86.6979
71.5629
57.77
46.2968
37.4144
30.8275
26.0198
22.4815
19.8619
17.9503
16.5428
15.5066
14.7379
14.1552
13.6981
13.323
12.9994
12.7068
12.4317
12.166
11.9046
11.645
11.3861
11.1276
10.8696
10.6125
10.3569
10.1031
9.85222
9.60359
547.929
528.071
511.551
487.832
454.093
414.491
371.086
325.728
280.211
236.586
196.74
161.487
130.705
104.09
81.5968
63.2241
48.8121
37.8984
29.9111
24.2249
20.2757
17.6077
15.8433
14.6872
13.922
13.3955
13.0069
12.6931
12.4163
12.1558
11.9008
11.6464
11.391
11.1342
10.8768
10.6193
10.3626
10.1071
9.85429
9.60428
146.115
141.113
127.478
107.54
84.9597
62.8386
43.3603
28.2507
18.725
14.6369
14.4019
15.8791
17.3441
17.9973
17.8633
17.2302
16.4095
15.6253
14.9745
14.4531
14.0481
13.7327
13.4746
13.2472
13.0315
12.8157
12.5938
12.3635
12.125
11.8796
11.6289
11.3745
11.1177
10.8597
10.6015
10.3438
10.087
9.8326
9.58193
-431.568
-406.447
-375.514
-341.013
-305.263
-270.383
-236.299
-202.257
-168.114
-134.746
-103.529
-75.8386
-52.5423
-33.8927
-19.5428
-8.88422
-1.2372
4.07724
7.65916
9.97277
11.3849
12.1783
12.5612
12.6817
12.6401
12.5019
12.3079
12.0827
11.8407
11.5898
11.3343
11.0766
10.8179
10.5592
10.301
10.0434
9.78827
9.5382
-229.785
-192.873
-157.256
-127.731
-105.228
-87.1877
-71.226
-56.4834
-42.999
-30.9236
-20.3308
-11.3527
-4.09285
1.52865
5.67061
8.55729
10.5023
11.7327
12.4398
12.7826
12.8837
12.8319
12.6879
12.491
12.2649
12.0235
11.774
11.5204
11.2647
11.0077
10.7501
10.4923
10.2347
9.97751
9.7226
9.47419
264.399
237.908
207.826
177.391
149.085
123.414
100.342
80.0597
63.0015
49.3832
38.984
31.2294
25.5594
21.5268
18.6731
16.681
15.3038
14.3491
13.675
13.1805
12.7963
12.4771
12.1938
11.929
11.6727
11.4193
11.1663
10.9126
10.6579
10.4025
10.1466
9.89052
9.63632
9.38961
236.424
199.07
167.712
141.091
117.481
96.0238
76.8824
60.5493
47.2877
37.0239
29.4091
23.9093
20.0325
17.3724
15.5851
14.3963
13.6003
13.0503
12.6469
12.3259
12.0482
11.791
11.5419
11.2948
11.0468
10.7972
10.5457
10.2928
10.0389
9.78405
9.53061
9.28599
-52.3479
-37.9708
-24.4294
-13.156
-4.63905
1.39944
5.52163
8.25865
10.0589
11.207
11.9139
12.3178
12.5126
12.5638
12.5169
12.4035
12.2452
12.0565
11.8474
11.6246
11.3926
11.1541
10.9111
10.6648
10.416
10.1653
9.91332
9.65981
9.40711
9.165
-109.702
-81.6815
-57.9739
-38.7305
-23.6967
-12.3465
-4.05233
1.84307
5.89267
8.55881
10.2258
11.1972
11.7001
11.9011
11.9148
11.8148
11.6502
11.4493
11.2281
10.9957
10.7569
10.514
10.2683
10.0206
9.77103
9.51933
-4.68964
-0.58708
2.97053
5.90662
8.15721
9.76065
10.8593
11.5549
11.9417
12.1059
12.1193
12.0327
11.8847
11.7002
11.4942
11.2756
11.0493
10.818
10.5827
10.3442
10.1029
9.85915
43.934
34.4011
27.4058
22.3989
18.8635
16.4149
14.7459
13.6161
12.8457
12.3065
11.9098
11.5966
11.3296
11.0861
10.8529
10.6228
10.392
10.1588
26.8294
21.9205
18.4328
16.0152
14.3744
13.2731
12.5309
12.0173
11.6422
11.3468
11.094
10.8619
10.6378
10.4152
10.4134
10.9128
11.1629
11.2448
11.2162
11.1167
10.9726
10.8004
10.6105
10.4087
9.87239
10.41
10.6496
10.7035
10.6452
10.521
10.7214
10.6031
8.81644
8.92718
9.02245
9.1002
9.15812
8.4091
8.49808
)
;

boundaryField
{
    inlet
    {
        type            zeroGradient;
    }
    outlet
    {
        type            fixedValue;
        value           nonuniform 0();
    }
    cylinder
    {
        type            zeroGradient;
    }
    top
    {
        type            symmetryPlane;
    }
    bottom
    {
        type            symmetryPlane;
    }
    defaultFaces
    {
        type            empty;
    }
    procBoundary25to19
    {
        type            processor;
        value           nonuniform List<scalar> 
38
(
148.222
148.222
-455.174
-455.174
-285.566
-262.118
-262.118
301.246
285.233
285.233
324.783
279.126
279.126
-75.6095
-65.5143
-65.5143
-175.967
-141.412
-141.412
-14.1824
-9.22647
-9.22647
72.7918
56.573
56.573
42.6006
33.5839
33.5839
6.15616
8.19734
9.55541
9.55541
7.19277
8.87451
8.87451
10.819
10.8006
10.8006
)
;
    }
    procBoundary25to20
    {
        type            processor;
        value           nonuniform List<scalar> 
20
(
-8.14816
-0.910599
-373.954
-326.68
-277.739
-232.925
-194.793
-162.316
-133.471
-106.898
-82.3544
-60.2982
-41.2125
-25.5317
-25.5317
60.3298
59.1971
60.6781
65.9688
65.9688
)
;
    }
    procBoundary25to24
    {
        type            processor;
        value           nonuniform List<scalar> 
24
(
9.26769
9.02883
9.61314
9.26769
9.36408
9.92255
9.61314
9.68339
10.1907
9.92255
9.96278
10.1907
10.1983
10.3583
10.1983
10.1729
10.4593
10.3583
10.2981
10.8594
10.4593
10.5354
8.69264
8.31067
)
;
    }
    procBoundary25to26
    {
        type            processor;
        value           nonuniform List<scalar> 
23
(
10.54
10.2998
10.0617
9.82586
9.59275
12.9235
12.6449
12.3914
12.1469
11.9037
11.6591
11.4125
11.1646
10.9162
10.9162
4.17554
7.63853
9.91901
11.3509
12.1883
12.6209
12.7854
12.7854
)
;
    }
    procBoundary25to31
    {
        type            processor;
        value           nonuniform List<scalar> 
14
(
9.45759
9.53051
9.53051
9.19578
9.21785
9.21824
9.19755
8.57575
8.63992
9.19755
8.689
8.03554
8.57575
8.10369
)
;
    }
}


// ************************************************************************* //
