/*--------------------------------*- C++ -*----------------------------------*\
  =========                 |
  \\      /  F ield         | OpenFOAM: The Open Source CFD Toolbox
   \\    /   O peration     | Website:  https://openfoam.org
    \\  /    A nd           | Version:  7
     \\/     M anipulation  |
\*---------------------------------------------------------------------------*/
FoamFile
{
    version     2.0;
    format      ascii;
    class       surfaceScalarField;
    location    "23";
    object      phi;
}
// * * * * * * * * * * * * * * * * * * * * * * * * * * * * * * * * * * * * * //

dimensions      [0 3 -1 0 0 0 0];

internalField   nonuniform List<scalar> 
804
(
3.40225e-05
5.84596e-05
4.01631e-05
6.19804e-05
4.73337e-05
6.38897e-05
6.41713e-05
9.50237e-05
5.54374e-05
7.88631e-05
5.60883e-05
6.83039e-05
5.76102e-05
6.2847e-05
5.88475e-05
6.19199e-05
5.93867e-05
6.48652e-05
5.90352e-05
7.11895e-05
5.75655e-05
8.06105e-05
5.47504e-05
5.03746e-05
4.32013e-05
5.99691e-05
6.46284e-05
5.40505e-05
7.23525e-05
5.42074e-05
7.26184e-05
5.62695e-05
7.00562e-05
5.79999e-05
6.70138e-05
5.91309e-05
6.57216e-05
5.89023e-05
6.73343e-05
5.72347e-05
7.19829e-05
5.47382e-05
7.9601e-05
5.14176e-05
9.01259e-05
4.70409e-05
0.000103581
4.12948e-05
0.000120106
3.38494e-05
2.43779e-05
-0.000250622
0.000306943
-0.00028742
0.00017218
-0.00026199
7.88965e-05
-0.000213637
2.79606e-05
-0.000162511
8.8436e-06
-0.000115583
7.12205e-06
-7.48909e-05
1.35157e-05
-4.0289e-05
2.16675e-05
-1.11533e-05
2.88642e-05
1.37275e-05
3.42502e-05
3.5196e-05
3.74337e-05
5.41548e-05
3.82757e-05
7.17266e-05
3.71665e-05
8.90227e-05
3.41215e-05
0.000107029
2.9035e-05
0.000126604
2.17204e-05
0.000148512
1.19415e-05
0.000173461
-5.71514e-07
-1.61092e-05
0.000387674
0.000560763
0.000320002
0.000649496
0.000204782
0.000577273
9.54556e-05
0.00041627
6.84901e-06
0.000260786
-5.43232e-05
0.000140069
-8.66191e-05
6.02564e-05
-9.3142e-05
1.53666e-05
-8.15221e-05
-4.49778e-06
-5.88603e-05
-9.14615e-06
-3.16707e-05
-5.52211e-06
-4.0161e-06
1.20959e-06
2.23613e-05
7.87252e-06
4.71308e-05
1.26641e-05
6.9506e-05
1.59007e-05
9.04538e-05
1.62187e-05
0.000111131
1.34441e-05
0.000132641
7.5245e-06
0.000155971
-1.61006e-06
0.000181975
-1.40626e-05
0.000211416
-3.00121e-05
0.000245013
-4.97067e-05
-7.34643e-05
-0.00549845
-0.00314841
-0.00412033
-0.00286812
-0.00262018
-0.00204895
-0.00131107
-0.00112932
-0.000355658
-0.000394653
0.000224229
6.96084e-05
0.000505434
0.000296067
0.000562501
0.000359203
0.000514328
0.000308958
0.000428422
0.000225975
0.000342168
0.00014651
0.000272065
8.54696e-05
0.000218719
4.88484e-05
0.000179857
2.97153e-05
0.000153129
2.12067e-05
0.000136208
1.81302e-05
0.000127111
1.69701e-05
0.00012434
1.54356e-05
0.000127794
1.24464e-05
0.000136765
7.24741e-06
0.000150782
-5.73004e-07
0.000169594
-1.12865e-05
0.000193115
-2.51314e-05
0.000221399
-4.23465e-05
0.000254628
-6.32409e-05
0.00029309
-8.81693e-05
0.000337202
-0.000117576
-0.00015201
0.00306989
0.00332258
0.00179035
0.00293268
0.000509747
0.00163918
-0.000619415
-7.59205e-05
-0.00158082
-0.00160521
-0.00214826
-0.00258097
-0.00221893
-0.00279745
-0.00187435
-0.00239352
-0.00132388
-0.00167979
-0.000772352
-0.000946176
-0.000335014
-0.000367729
-2.99948e-05
-8.95204e-06
0.000180956
0.000148252
0.000294261
0.000195653
0.000343214
0.000177023
0.000350343
0.00013938
0.000330791
0.000105022
0.000297502
8.21371e-05
0.00025959
6.76276e-05
0.00022405
5.67468e-05
0.000195173
4.70072e-05
0.000175023
3.71198e-05
0.000163978
2.64809e-05
0.000161816
1.46075e-05
0.000167867
1.19645e-06
0.000181393
-1.40989e-05
0.000201768
-3.16621e-05
0.000228545
-5.19073e-05
0.000261478
-7.52796e-05
0.000300488
-0.000102251
0.000345644
-0.000133324
0.000397123
-0.000169055
0.000455205
-0.000210092
0.000520286
-0.000257223
-0.000311387
0.000314258
-0.000818202
0.00110676
-0.000332856
0.00238742
0.00107165
0.00406689
0.00164312
0.00583014
0.00116942
0.00713431
0.000335009
0.00752215
-0.000463765
0.00694245
-0.00102551
0.00563467
-0.00127319
0.00405141
-0.00121419
0.0025692
-0.000911318
0.00139432
-0.000504911
0.000589813
-0.00014167
0.000129196
9.28881e-05
-6.82637e-05
0.000188507
-0.000107965
0.000187953
-6.98809e-05
0.000157569
-1.11817e-05
0.000118324
3.96246e-05
8.85739e-05
7.35718e-05
7.10747e-05
9.38725e-05
6.18363e-05
0.00010582
5.56801e-05
0.000111603
5.09636e-05
0.000115919
4.26919e-05
0.000122484
3.05554e-05
0.000132763
1.6201e-05
0.00014751
-1.39925e-07
0.000167104
-1.83978e-05
0.000191828
-3.88226e-05
0.000221914
-6.17478e-05
0.000257636
-8.7629e-05
0.00029933
-0.000116974
0.000347395
-0.000150316
0.000402271
-0.000188202
0.00046441
-0.000231194
0.000534198
-0.000279879
0.000611824
-0.000334849
0.000696854
-0.000396418
-0.000463714
-0.00178767
0.00096947
-0.00383315
0.00171263
-0.00419058
0.00142907
-0.00310902
0.000561554
-0.00147945
-0.000460145
0.000238339
-0.00138278
0.00173073
-0.00195616
0.00276163
-0.0020564
0.00316069
-0.00167224
0.00292391
-0.000977411
0.00225542
-0.000242828
0.00144657
0.000303934
0.000733497
0.000571405
0.000225202
0.000601183
-8.1908e-05
0.000495617
-0.000243038
0.000349083
-0.000303514
0.000218045
-0.000303245
0.000118055
-0.000271302
5.66315e-05
-0.000224408
2.41805e-05
-0.000170897
8.32494e-06
-0.000115777
5.60015e-07
-6.15886e-05
-3.22467e-06
-1.13027e-05
-7.59415e-06
3.40566e-05
-1.48035e-05
7.5655e-05
-2.53968e-05
0.000115042
-3.95273e-05
0.000153955
-5.73113e-05
0.000194029
-7.88963e-05
0.000236786
-0.000104504
0.000283608
-0.000134451
0.000335774
-0.000169139
0.00039452
-0.000209062
0.000461136
-0.000254818
0.000537104
-0.000307162
0.000624323
-0.000367098
0.000725529
-0.000436055
0.000845349
-0.000516238
0.00099168
-0.000610044
-0.000734872
0.00118357
-0.00099036
-0.00235675
-0.00335402
-0.00416561
-0.00496213
0.000336375
-0.00546091
-0.000884002
-0.00534142
-0.00207565
-0.00454463
-0.00285319
-0.00331741
-0.00289946
-0.00205243
-0.0022424
-0.00102323
-0.00127203
-0.000321044
-0.000398252
8.05995e-05
0.00016976
0.000248438
0.000433345
0.000250205
0.00049385
0.000178842
0.000420445
9.16049e-05
0.000305282
1.51709e-05
0.000194489
-3.54332e-05
0.000107236
-5.82826e-05
4.703e-05
-5.89972e-05
9.03952e-06
-4.21519e-05
-1.62853e-05
-1.48121e-05
-3.05642e-05
1.80831e-05
-4.04892e-05
5.35654e-05
-5.02857e-05
9.05852e-05
-6.24169e-05
0.000129118
-7.80604e-05
0.000169746
-9.794e-05
0.000213351
-0.000122501
0.000260965
-0.000152118
0.000313691
-0.000187177
0.000372683
-0.00022813
0.000439155
-0.000275534
0.000514435
-0.000330098
0.000600023
-0.00039275
0.000697667
-0.000464741
0.000809427
-0.000547815
0.000937722
-0.000644534
0.00108489
-0.000757209
-0.00089278
0.0012428
-0.00110986
-0.00306994
-0.00448926
-0.00511953
-0.00494349
-0.00307549
-0.00412872
-0.00305717
-0.0029906
-0.00241015
-0.0018548
-0.00153405
-0.000945146
-0.000739898
-0.000338051
-0.000173751
1.07567e-05
0.000145043
0.000165686
0.000265516
0.000207477
0.000263491
0.000199476
0.00020249
0.000175183
0.000131529
0.000150806
7.1407e-05
0.00013176
2.80849e-05
0.000117668
-2.1936e-06
0.000111507
-2.44027e-05
0.000114137
-4.31189e-05
0.000125111
-6.12602e-05
0.000143896
-8.12014e-05
0.000170066
-0.00010423
0.000203294
-0.000131168
0.000243463
-0.00016267
0.000290672
-0.000199327
0.000345231
-0.000241736
0.000407652
-0.000290551
0.000478637
-0.000346519
0.000559058
-0.000410518
0.000649917
-0.000483609
0.000752281
-0.000567105
0.000867141
-0.000662676
0.000995093
-0.000772485
0.00113553
-0.000897651
-0.00104109
0.00128384
0.00173369
0.000725568
3.82292e-05
-0.000339167
-0.000490448
-0.000495078
-0.000169121
-0.00040744
5.74045e-05
-0.000279297
0.000137374
-0.000152618
0.000136812
-4.8905e-05
9.87776e-05
2.59167e-05
5.67069e-05
7.39277e-05
2.33962e-05
9.74798e-05
4.53324e-06
0.000108761
-1.34749e-05
0.000116599
-3.22403e-05
0.000125778
-5.22979e-05
0.000139719
-7.52017e-05
0.000159958
-0.00010144
0.000187185
-0.000131458
0.000221711
-0.000165694
0.000263682
-0.000204641
0.000313256
-0.0002489
0.000370691
-0.00029917
0.000436377
-0.000356238
0.000510836
-0.000420978
0.000594681
-0.000494364
0.000688569
-0.000577496
0.000793093
-0.000671629
0.000908642
-0.000778224
0.00103514
-0.000898987
0.00117171
-0.00103421
-0.00118511
0.00131573
0.000183466
-0.000178032
-0.000310041
-0.000307944
-0.000253801
4.46343e-05
-0.000187211
-9.88298e-06
-0.000125626
-3.81894e-05
-7.08423e-05
-5.02502e-05
-2.29176e-05
-6.13997e-05
1.90728e-05
-7.42307e-05
5.78948e-05
-9.11197e-05
9.57153e-05
-0.000113022
0.000134486
-0.000140211
0.000175754
-0.000172726
0.00022077
-0.00021071
0.000270605
-0.000254476
0.000326205
-0.000304501
0.000388435
-0.0003614
0.00045809
-0.000425892
0.000535905
-0.000498793
0.000622548
-0.000581007
0.000718584
-0.000673532
0.000824427
-0.000777472
0.000940241
-0.000894038
0.00106582
-0.00102457
0.00120048
-0.00116887
-0.00132725
0.00134262
-0.000190866
-0.000193511
-0.000171139
-0.000128549
-7.87443e-05
-0.000111204
-2.73241e-05
-0.000125651
2.3319e-05
-0.000141763
7.27466e-05
-0.00016245
0.00012158
-0.000189044
0.00017103
-0.000222176
0.000222519
-0.000262199
0.000277476
-0.000309433
0.000337221
-0.000364246
0.000402911
-0.00042709
0.000475533
-0.000498514
0.000555905
-0.000579165
0.000644685
-0.000669786
0.000742364
-0.000771212
0.000849246
-0.000884354
0.000965399
-0.00101019
0.00109061
-0.00114978
0.00122435
-0.00130261
-0.00146836
0.00136546
0.000118843
0.000115175
0.00012382
0.000142329
-0.000180959
0.00016933
-0.000216045
0.000204105
-0.00025695
0.000246347
-0.000304441
0.000296021
-0.000359107
0.000353253
-0.000421478
0.000418268
-0.000492105
0.00049134
-0.000571585
0.000572753
-0.000660578
0.00066277
-0.000759803
0.000761589
-0.00087003
0.0008693
-0.000992065
0.000985841
-0.00112673
0.00111095
-0.00127488
0.00124413
-0.00143579
-0.00160862
0.00017653
0.000193557
0.000221146
0.000258872
0.00030624
-0.000406474
0.000362812
-0.00047805
0.000428272
-0.000557565
0.000502434
-0.000645748
0.000585222
-0.000743366
0.000676622
-0.000851203
0.000776629
-0.000970037
0.000885189
-0.00110062
0.00100214
-0.00124368
0.00112717
-0.00139992
0.00125979
-0.00156841
0.000297779
0.000360086
0.00042997
0.000507558
0.000592987
-0.000828795
0.000686375
-0.00094459
0.000787782
-0.00107144
0.000897181
-0.00121002
0.00101441
-0.00136092
0.00113916
-0.00152467
0.00059792
0.000693137
0.000795645
0.000905497
0.00102257
-0.00147799
-0.00164864
0.00102633
0.00400254
0.00372913
0.00345528
0.00318323
0.00155589
0.00291535
0.00151067
0.00145985
0.00403243
0.00375976
0.00174073
)
;

boundaryField
{
    inlet
    {
        type            calculated;
        value           nonuniform 0();
    }
    outlet
    {
        type            calculated;
        value           nonuniform 0();
    }
    cylinder
    {
        type            calculated;
        value           uniform 0;
    }
    top
    {
        type            symmetryPlane;
        value           nonuniform 0();
    }
    bottom
    {
        type            symmetryPlane;
        value           nonuniform 0();
    }
    defaultFaces
    {
        type            empty;
        value           nonuniform 0();
    }
    procBoundary27to14
    {
        type            processor;
        value           uniform 0.00195983;
    }
    procBoundary27to20
    {
        type            processor;
        value           nonuniform List<scalar> 
29
(
0.00307902
0.00242634
0.00137315
-0.00096735
0.00241358
0.00107608
-0.000656332
-0.00222292
-0.00291559
-0.0018936
-0.00204905
-0.00172281
-0.00115665
-0.000588617
-0.000881935
0.000529347
0.000418902
0.000269383
0.000134716
0.000154779
8.07216e-05
-7.23776e-06
-6.05611e-05
-9.28399e-05
-0.000137728
-9.23189e-05
-0.000121983
-0.000150407
-0.000170247
)
;
    }
    procBoundary27to21
    {
        type            processor;
        value           nonuniform List<scalar> 
37
(
-6.38055e-05
-6.81215e-05
-7.10603e-05
-3.47266e-05
-3.99279e-05
-4.7051e-05
-2.86759e-05
-5.33903e-05
-0.000101179
-7.54777e-05
-6.19312e-05
-0.000115735
-5.65355e-05
-0.000142086
-0.000135381
-0.000104327
-1.99136e-06
-7.63145e-05
-0.000586287
-0.000581824
8.5765e-05
-0.000462052
0.00230302
0.00148999
0.000548794
-0.000362149
-0.000179783
-0.0023853
-0.00165314
-0.00035858
0.00120508
0.00634384
0.00256662
0.000503944
-0.000459649
-0.00400718
-0.0023523
)
;
    }
    procBoundary27to22
    {
        type            processor;
        value           nonuniform List<scalar> 
11
(
-7.26939e-05
5.58565e-05
-6.2814e-05
9.30494e-05
-4.42301e-05
0.000139959
-1.25761e-05
0.000202147
3.49669e-05
0.00028351
0.000101658
)
;
    }
    procBoundary27to26
    {
        type            processor;
        value           nonuniform List<scalar> 
17
(
-0.000187241
-0.000233072
-0.000284539
-0.000342168
-0.000242944
-0.00046131
-0.000540357
-0.000627448
-0.000723336
-0.000509763
-0.000916953
-0.00103981
-0.00117395
-0.00131988
-0.000910192
-0.00159412
-0.0017711
)
;
    }
    procBoundary27to28
    {
        type            processor;
        value           nonuniform List<scalar> 10(0.000387554 0.000192141 0.000238758 0.000592915 0.000371029 0.000789538 0.000542983 0.00263907 0.00347888 0.00435611);
    }
    procBoundary27to33
    {
        type            processor;
        value           nonuniform List<scalar> 
16
(
0.00138439
-0.00174788
0.00139904
0.00127092
-0.00170016
0.00114654
0.00114879
-0.00427412
0.00163704
0.00161603
0.00158958
-0.00430381
0.00182727
0.00178335
-0.00463962
0.00202424
)
;
    }
}


// ************************************************************************* //
