/*--------------------------------*- C++ -*----------------------------------*\
  =========                 |
  \\      /  F ield         | OpenFOAM: The Open Source CFD Toolbox
   \\    /   O peration     | Website:  https://openfoam.org
    \\  /    A nd           | Version:  7
     \\/     M anipulation  |
\*---------------------------------------------------------------------------*/
FoamFile
{
    version     2.0;
    format      ascii;
    class       volScalarField;
    location    "2.4";
    object      p;
}
// * * * * * * * * * * * * * * * * * * * * * * * * * * * * * * * * * * * * * //

dimensions      [0 2 -2 0 0 0 0];

internalField   nonuniform List<scalar> 
344
(
3.54675
3.53951
3.53229
3.52507
3.51786
3.51067
3.50349
3.49631
3.48915
3.48199
3.47485
3.4677
3.46057
3.45343
3.4463
3.43916
3.43202
3.42487
3.41772
3.41054
3.40335
3.39613
3.38887
3.38157
3.37422
3.36681
3.35932
3.35173
3.34403
3.33619
3.32819
3.32
3.31158
3.30289
3.29387
3.28447
3.27461
3.26422
3.2532
3.24143
3.22877
3.21508
3.20015
3.18378
3.16569
3.14559
3.12312
3.09784
3.06927
3.03682
2.99981
2.95745
2.90882
2.85285
2.78836
2.714
2.62829
2.52968
2.41657
2.28748
2.14116
1.97687
1.79462
1.59555
1.38207
1.15825
3.54671
3.53947
3.53224
3.52503
3.51783
3.51064
3.50345
3.49628
3.48912
3.48197
3.47483
3.46769
3.46056
3.45343
3.4463
3.43918
3.43205
3.42491
3.41777
3.41062
3.40344
3.39624
3.38902
3.38175
3.37444
3.36707
3.35963
3.3521
3.34448
3.33672
3.32883
3.32075
3.31247
3.30393
3.29511
3.28593
3.27633
3.26624
3.25558
3.24422
3.23205
3.21892
3.20465
3.18904
3.17184
3.15276
3.13145
3.10751
3.08046
3.04973
3.01463
2.97437
2.92802
2.87448
2.81247
2.74054
2.65705
2.56021
2.4481
2.31887
2.17079
2.0027
1.81412
1.60604
1.38085
1.1433
3.54666
3.53942
3.5322
3.52499
3.51779
3.5106
3.50342
3.49625
3.4891
3.48195
3.47481
3.46768
3.46055
3.45343
3.44631
3.4392
3.43208
3.42496
3.41783
3.4107
3.40354
3.39637
3.38918
3.38195
3.37468
3.36735
3.35997
3.35251
3.34497
3.33731
3.32952
3.32157
3.31344
3.30508
3.29646
3.28753
3.27822
3.26846
3.25819
3.24729
3.23566
3.22315
3.20961
3.19485
3.17863
3.16069
3.1407
3.11828
3.09296
3.06419
3.03131
2.99352
2.94987
2.89925
2.8403
2.77146
2.6909
2.59656
2.48615
2.3573
2.20768
2.03546
1.83944
1.62031
1.38015
1.12477
3.54661
3.53938
3.53215
3.52494
3.51775
3.51056
3.50339
3.49622
3.48907
3.48193
3.47479
3.46767
3.46055
3.45344
3.44633
3.43922
3.43212
3.42501
3.4179
3.41079
3.40366
3.39651
3.38935
3.38216
3.37493
3.36766
3.36034
3.35295
3.34549
3.33793
3.33025
3.32244
3.31447
3.3063
3.2979
3.28922
3.28022
3.27082
3.26096
3.25056
3.2395
3.22766
3.21491
3.20106
3.18591
3.16921
3.15065
3.12989
3.10648
3.0799
3.04951
3.01453
2.97402
2.92683
2.87157
2.80656
2.72979
2.63889
2.53114
2.40356
2.25299
2.07664
1.87219
1.63974
1.38048
1.10201
3.54656
3.53933
3.53211
3.5249
3.51771
3.51052
3.50335
3.49619
3.48904
3.48191
3.47478
3.46766
3.46055
3.45344
3.44634
3.43925
3.43216
3.42507
3.41798
3.41088
3.40378
3.39666
3.38953
3.38237
3.37519
3.36798
3.36072
3.35341
3.34603
3.33857
3.33102
3.32334
3.31554
3.30756
3.29939
3.29098
3.28228
3.27326
3.26383
3.25393
3.24347
3.23233
3.22039
3.2075
3.19347
3.17808
3.16105
3.14206
3.12071
3.09651
3.06885
3.03699
3.00001
2.95677
2.90584
2.84547
2.77348
2.68721
2.58345
2.45848
0.950718
0.730934
0.518365
0.318477
0.927815
0.697335
0.47583
0.269722
0.89811
0.653419
0.420447
0.206951
0.859956
0.596402
0.349031
0.127333
0.810818
0.522047
0.257105
0.0272225
)
;

boundaryField
{
    inlet
    {
        type            zeroGradient;
    }
    outlet
    {
        type            fixedValue;
        value           nonuniform 0();
    }
    wall
    {
        type            zeroGradient;
    }
    wedge1
    {
        type            wedge;
    }
    wedge2
    {
        type            wedge;
    }
    axis
    {
        type            empty;
    }
    procBoundary8to2
    {
        type            processor;
        value           nonuniform List<scalar> 
71
(
3.54679
3.53955
3.53232
3.5251
3.5179
3.5107
3.50352
3.49634
3.48917
3.48202
3.47486
3.46772
3.46057
3.45343
3.44629
3.43915
3.432
3.42484
3.41767
3.41048
3.40327
3.39603
3.38875
3.38142
3.37404
3.36658
3.35904
3.3514
3.34364
3.33573
3.32764
3.31935
3.31081
3.30197
3.29279
3.28319
3.27311
3.26245
3.25112
3.23899
3.22591
3.21172
3.19623
3.17919
3.16035
3.13937
3.11589
3.08948
3.05962
3.02573
2.98713
2.94302
2.89252
2.83462
2.76816
2.69193
2.60458
2.50475
2.3911
2.26242
2.11781
1.95685
1.77979
1.58788
1.38345
1.17006
1.17006
0.967942
0.756067
0.550247
0.355294
)
;
    }
    procBoundary8to3
    {
        type            processor;
        value           uniform 0.135337;
    }
    procBoundary8to7
    {
        type            processor;
        value           nonuniform List<scalar> 5(3.55401 3.55396 3.55391 3.55386 3.55381);
    }
    procBoundary8to9
    {
        type            processor;
        value           nonuniform List<scalar> 4(0.0832742 0.0171446 -0.0652386 -0.166495);
    }
    procBoundary8to14
    {
        type            processor;
        value           nonuniform List<scalar> 
71
(
2.3081
2.12817
1.91463
1.66639
1.38259
1.07402
3.54652
3.53929
3.53207
3.52486
3.51767
3.51049
3.50332
3.49617
3.48902
3.48189
3.47477
3.46765
3.46055
3.45345
3.44636
3.43928
3.4322
3.42513
3.41805
3.41098
3.4039
3.39681
3.38971
3.3826
3.37546
3.3683
3.3611
3.35386
3.34657
3.33921
3.33178
3.32425
3.31661
3.30882
3.30088
3.29274
3.28436
3.2757
3.26671
3.25733
3.24746
3.23703
3.22593
3.21402
3.20113
3.18708
3.17163
3.15448
3.13528
3.11359
3.08884
3.06035
3.02725
2.98843
2.94248
2.88761
2.82152
2.74129
2.64322
2.3081
2.52278
0.746143
0.423495
0.138433
-0.0977354
)
;
    }
}


// ************************************************************************* //
