/*--------------------------------*- C++ -*----------------------------------*\
  =========                 |
  \\      /  F ield         | OpenFOAM: The Open Source CFD Toolbox
   \\    /   O peration     | Website:  https://openfoam.org
    \\  /    A nd           | Version:  7
     \\/     M anipulation  |
\*---------------------------------------------------------------------------*/
FoamFile
{
    version     2.0;
    format      ascii;
    class       surfaceScalarField;
    location    "1";
    object      phi;
}
// * * * * * * * * * * * * * * * * * * * * * * * * * * * * * * * * * * * * * //

dimensions      [0 3 -1 0 0 0 0];

internalField   nonuniform List<scalar> 
806
(
0.000877995
0.00144371
0.00153517
0.00118902
0.00139889
0.00102034
0.00151322
0.000848581
0.00161547
0.00067594
0.00170782
0.000504018
0.00179159
0.00186778
0.00134784
0.00129685
0.00118153
0.00143547
0.00102409
0.00155632
0.000872422
0.00166489
0.000723832
0.00176406
0.000576631
0.00185502
0.000429998
0.00193823
0.000283729
0.00201405
0.000137978
0.00208313
0.00214652
0.0012114
0.00106578
0.00107523
0.00126761
0.000950058
0.00142201
0.000835524
0.00155
0.00072791
0.00166393
0.00062313
0.00176967
0.000518025
0.00186917
0.000410601
0.00196244
0.000299917
0.00204891
0.000185763
0.00212821
6.84146e-05
0.00220048
-5.15992e-05
0.00226654
0.00232776
0.000515699
0.000528761
0.000473651
0.000829042
0.000464482
0.00107495
0.000461907
0.00127019
0.000453567
0.00143035
0.000434221
0.00156935
0.000402202
0.00169595
0.000357596
0.00181428
0.000301336
0.00192543
0.000234705
0.00202907
0.000159047
0.00212457
7.56686e-05
0.00221159
-1.42504e-05
0.0022904
-0.000109652
0.00236194
-0.000209604
0.00242772
-0.000313339
0.00248971
0.00255021
0.000112536
0.000222127
-0.000193772
0.000150158
-0.000261777
0.000256599
-0.000207269
0.000474253
-0.000103275
0.000725048
6.08882e-06
0.000965588
9.56161e-05
0.00118066
0.000155968
0.00137
0.000186847
0.00153847
0.000192007
0.00169079
0.000176313
0.00182997
0.000144277
0.00195746
9.95167e-05
0.00207383
4.47092e-05
0.00217938
-1.81713e-05
0.00227447
-8.78911e-05
0.00236012
-0.000163486
0.00243753
-0.000244236
0.00250847
-0.000329584
0.00257506
-0.0004191
0.00263973
-0.000512465
0.00270501
0.00277348
-0.000896179
0.000812044
-0.000667537
0.000310311
-0.000494016
4.86051e-05
-0.000376249
3.23911e-05
-0.000294334
0.000174685
-0.000213057
0.000392976
-0.000130501
0.000642492
-5.53542e-05
0.000890441
4.08942e-06
0.00112121
4.36351e-05
0.00133046
6.32025e-05
0.0015189
6.49642e-05
0.00168903
5.20478e-05
0.00184289
2.75458e-05
0.00198196
-6.15374e-06
0.00210753
-4.73242e-05
0.00222055
-9.50106e-05
0.00232215
-0.000148347
0.00241345
-0.000206934
0.00249612
-0.000270524
0.00257206
-0.000338915
0.00264345
-0.000411926
0.00271274
-0.000489383
0.00278247
-0.000571087
0.00285519
-0.000656765
0.0029333
0.00301896
-0.00116902
0.00106528
-0.000176521
0.000528928
0.000458262
0.000177261
0.000747518
2.10554e-05
0.000755487
4.0636e-05
0.000627376
0.000160503
0.000448636
0.000353425
0.000279964
0.000561648
0.000151769
0.000770687
6.66236e-05
0.000975586
1.51841e-05
0.00117265
-1.44783e-05
0.00136012
-3.2747e-05
0.00153717
-4.67276e-05
0.00170301
-6.09544e-05
0.00185712
-7.81603e-05
0.00199917
-9.9582e-05
0.00212895
-0.00012587
0.00224684
-0.000157239
0.00235352
-0.000193888
0.0024501
-0.000235825
0.00253806
-0.000283025
0.00261926
-0.000335442
0.00269587
-0.000393015
0.00277031
-0.00045565
0.0028451
-0.000523204
0.00292274
-0.000595448
0.00300554
-0.000672011
0.00309553
-0.000752363
0.00319229
0.00329468
-0.000835499
-0.00105573
0.00112648
-0.000252337
0.000865237
0.000274406
0.000538533
0.000534088
0.000269246
0.000587362
0.000123987
0.000498287
0.000110131
0.00034185
0.000197072
0.000161662
0.000340691
1.37595e-05
0.000501328
-9.68851e-05
0.000672292
-0.00016982
0.000843621
-0.000209091
0.00101486
-0.000222666
0.00118623
-0.000219689
0.00135714
-0.00020828
0.00152576
-0.000194812
0.00168954
-0.000183589
0.00184589
-0.000177136
0.00199272
-0.000176862
0.00212868
-0.000183279
0.00225325
-0.000196434
0.00236668
-0.000216154
0.00246982
-0.000242204
0.00256411
-0.000274358
0.00265141
-0.000312443
0.00273395
-0.000356336
0.0028142
-0.000405944
0.00289471
-0.000461167
0.00297796
-0.000521849
0.00306622
-0.000587734
0.00316141
-0.000658454
0.00326301
0.0033695
-0.000733274
0.00306214
0.000816967
0.00282734
0.00136127
0.0021773
0.00151528
0.00136861
0.00134722
0.000620319
0.00101754
5.4262e-05
0.000690044
-0.000309937
0.00047433
-0.000501159
0.000388294
-0.000569949
0.000409481
-0.000576729
0.000508107
-0.000536289
0.000631853
-0.000482165
0.000789497
-0.000426733
0.000959425
-0.000374535
0.00113403
-0.000327473
0.00131008
-0.00028658
0.00148487
-0.000252524
0.00165549
-0.000225707
0.00181907
-0.000206288
0.0019733
-0.000194211
0.0021166
-0.000189284
0.00224833
-0.000191233
0.00236862
-0.000199778
0.00247837
-0.000214673
0.002579
-0.000235741
0.00267248
-0.000262889
0.0027611
-0.000296095
0.00284741
-0.000335387
0.002934
-0.000380792
0.00302337
-0.000432289
0.00311772
-0.000489758
0.00321888
-0.000552969
0.00332622
0.0034379
-0.000621368
0.00384088
-0.00145418
0.00368245
3.97944e-05
0.00310651
0.0013929
0.00221952
0.00224827
0.00128129
0.00245351
0.000482192
0.00214632
-9.73448e-05
0.00159708
-0.000451898
0.0010446
-0.000610626
0.000633058
-0.000634359
0.000412028
-0.000590538
0.000365661
-0.000503227
0.000420796
-0.000426799
0.000555425
-0.000362041
0.000724739
-0.000309669
0.000907053
-0.000268242
0.0010926
-0.00023537
0.00127721
-0.000208863
0.00145836
-0.000187196
0.00163382
-0.000169541
0.00180142
-0.000155628
0.00195939
-0.000145564
0.00210654
-0.000139556
0.00224232
-0.000138052
0.00236712
-0.0001414
0.00248171
-0.000149915
0.00258752
-0.000163888
0.00268645
-0.000183584
0.0027808
-0.000209264
0.00287309
-0.000241174
0.00296591
-0.00027952
0.00306171
-0.00032443
0.00316263
-0.000375903
0.00327035
-0.000433797
0.00338411
0.00350179
-0.000497685
0.0018858
-0.00142487
6.42179e-05
-0.000735088
-0.00158139
0.000191427
-0.00278633
0.00124474
-0.00346765
0.00207421
-0.00357345
0.00235407
-0.00317973
0.00205979
-0.00249177
0.00145837
-0.00175314
0.000858443
-0.00113978
0.000431235
-0.000710882
0.000204164
-0.000437241
0.000138387
-0.000280149
0.000208568
-0.000218079
0.000358726
-0.000194741
0.000532087
-0.000183433
0.000713432
-0.00017408
0.0008977
-0.000163377
0.0010819
-0.000150629
0.00126446
-0.000136075
0.00144381
-0.000120291
0.00161804
-0.000104093
0.00178522
-8.84515e-05
0.00194374
-7.44339e-05
0.00209252
-6.32698e-05
0.00223116
-5.57645e-05
0.00235962
-5.2741e-05
0.00247869
-5.48633e-05
0.00258964
-6.2629e-05
0.00269422
-7.64359e-05
0.0027946
-9.66161e-05
0.00289327
-0.000123458
0.00299275
-0.000157196
0.00309545
-0.000197979
0.00320341
-0.000245815
0.00331819
-0.000300531
0.00343883
0.00356293
-0.00036167
-0.000862368
-0.00184037
-0.00166633
-0.0012365
-0.00279359
-0.000297607
-0.0040724
0.000543716
-0.005112
0.00123103
-0.00551219
0.00164493
-0.0051372
0.00169922
-0.00417275
0.00138962
-0.00296257
0.000849614
-0.00181616
0.000311949
-0.00091649
-4.12244e-05
-0.000325646
-0.000159609
-1.32404e-05
-0.000108241
7.53313e-05
4.98155e-05
4.48386e-05
0.000239061
-3.2164e-05
0.000435729
-0.000108492
0.000608415
-0.000162733
0.000767674
-0.000189282
0.000924249
-0.000191149
0.00108377
-0.000174704
0.00124801
-0.000146259
0.00141536
-0.000111328
0.00158311
-7.42912e-05
0.00174818
-3.84175e-05
0.00190787
-6.06472e-06
0.00206017
2.12099e-05
0.00220388
4.22353e-05
0.00233859
5.63446e-05
0.00246458
6.31668e-05
0.00258282
6.25131e-05
0.00269487
5.42983e-05
0.00280282
3.84735e-05
0.00290909
1.4996e-05
0.00301623
-1.61641e-05
0.00312661
-5.49822e-05
0.00324223
-0.000101322
0.00336453
-0.000154868
0.00349237
0.00362284
-0.00021478
-0.00180226
-0.00393512
-0.00463056
-0.0041482
-0.0032284
-0.00217211
0.000174736
-0.00112035
0.000593163
-0.000202069
0.000780946
0.000428579
0.000758969
0.000676122
0.000602071
0.000602101
0.00038597
0.000360542
0.000200335
9.09166e-05
0.000110016
-0.000148126
0.000130801
-0.00032999
0.00023168
-0.000449069
0.00035814
-0.000496485
0.000483144
-0.000499252
0.000611182
-0.000472875
0.000741296
-0.000424626
0.000876
-0.000360542
0.00101968
-0.000286212
0.00117368
-0.000207549
0.0013367
-0.00012949
0.00150505
-5.57772e-05
0.00167447
1.08999e-05
0.00184119
6.87667e-05
0.0020023
0.000116774
0.00215587
0.000154422
0.00230094
0.000181589
0.00243741
0.000198413
0.00256599
0.000205176
0.00268811
0.000202227
0.00280577
0.000189914
0.00292141
0.000168565
0.00303758
0.000138482
0.00315669
9.9978e-05
0.00328073
5.34119e-05
0.00341109
-9.70565e-07
0.00354675
0.00368491
-6.30423e-05
0.00536065
0.0058879
0.00555731
0.00452633
0.00315556
0.00180486
0.000713516
-2.59448e-05
-0.000439318
-0.000607332
-0.000626918
-0.000577575
0.000433801
-0.000499094
0.000532702
-0.000417187
0.000659389
-0.000337992
0.000796805
-0.0002607
0.00094239
-0.000183608
0.00109659
-0.000105863
0.00125895
-2.82746e-05
0.00142746
4.72255e-05
0.00159897
0.000118338
0.00177008
0.000182833
0.0019378
0.000238828
0.00209988
0.000284906
0.00225486
0.000320148
0.00240217
0.000344083
0.00254206
0.000356613
0.00267558
0.000357915
0.00280447
0.00034836
0.00293096
0.000328441
0.0030575
0.000298739
0.0031864
0.00025991
0.00331956
0.000212699
0.00345831
0.000157967
0.00360149
0.00374615
9.67251e-05
-0.000310922
-0.000242278
-0.000187105
-0.000138558
-9.02725e-05
-3.77175e-05
2.10621e-05
8.57933e-05
0.000154479
0.000224086
0.00170047
0.000291267
0.00187062
0.000352861
0.00203829
0.000406197
0.00220153
0.000449239
0.00235913
0.00048062
0.00251068
0.000499599
0.0026566
0.000505977
0.00279809
0.000499991
0.00293695
0.000482216
0.00307527
0.000453479
0.00321513
0.0004148
0.00335824
0.000367358
0.00350575
0.000312446
0.0036564
0.00380715
0.000260862
0.000344727
0.000421802
0.00048934
0.000545172
0.000587762
0.000616216
0.000630248
0.000630121
0.000616563
0.000590681
0.00324102
0.000553873
0.00339505
0.000507755
0.00355187
0.000454067
0.00371009
0.00386657
0.000699867
0.000667593
0.000625378
0.000575345
0.00702876
0.00097723
0.00714697
0.000866726
0.00726335
0.000748353
0.00062142
0.00675073
0.00688419
0.00701117
0.00713491
0.00725946
0.0073889
0.00752427
)
;

boundaryField
{
    inlet
    {
        type            calculated;
        value           nonuniform 0();
    }
    outlet
    {
        type            calculated;
        value           nonuniform 0();
    }
    cylinder
    {
        type            calculated;
        value           uniform 0;
    }
    top
    {
        type            symmetryPlane;
        value           nonuniform 0();
    }
    bottom
    {
        type            symmetryPlane;
        value           nonuniform 0();
    }
    defaultFaces
    {
        type            empty;
        value           nonuniform 0();
    }
    procBoundary7to1
    {
        type            processor;
        value           nonuniform List<scalar> 
13
(
0.000251446
0.000394654
0.000519687
-0.00109907
-0.000984934
-0.000864731
-0.000738312
0.00738024
-0.000486223
-0.000344224
-0.000198411
-5.74435e-05
0.00767844
)
;
    }
    procBoundary7to6
    {
        type            processor;
        value           nonuniform List<scalar> 
24
(
-0.00125196
-0.00134465
0.000687466
-0.00161967
-0.00169778
0.000334014
-0.00193738
-0.00200164
-6.90276e-06
-0.00220569
-0.00017367
-0.00238598
-0.00244326
-0.000420292
-0.00261164
-0.00267649
-0.000609455
-0.00284762
-0.00292976
-0.000745968
-0.00311193
-0.00321155
-0.00690692
-0.006609
)
;
    }
    procBoundary7to8
    {
        type            processor;
        value           nonuniform List<scalar> 
24
(
0.000604216
0.000748258
0.000894105
0.00104404
0.00120017
0.00136273
0.00153029
-0.000173418
0.00161303
0.00178676
0.00196121
0.00213399
0.0023033
0.00246809
0.00262814
0.00278406
0.00293707
0.00308883
-0.000720213
0.00326136
0.00342732
0.00359408
0.00376012
0.00392223
)
;
    }
    procBoundary7to13
    {
        type            processor;
        value           nonuniform List<scalar> 
38
(
-0.00123633
-0.00106975
-0.00134453
-0.00112012
-0.00135158
-0.00126916
-0.000926293
-0.00152456
-0.00113143
-0.000400392
-0.00135089
-0.000786993
0.000412909
0.00015615
-0.000644068
-0.000188594
-0.00112933
-0.000747572
-0.000538953
-0.00230544
0.00121347
-0.00152143
-0.00210029
0.00240919
-0.00166863
0.00202954
-0.00117298
0.0012544
-0.00270613
0.000118644
0.00284107
-0.0036411
0.00255667
0.00239793
-0.003302
0.00204047
0.000304808
0.00121834
)
;
    }
    procBoundary7to14
    {
        type            processor;
        value           nonuniform List<scalar> 
20
(
0.000583921
0.000292487
-0.000541057
-0.00077997
-0.00037608
-0.0040533
-0.00113261
6.59127e-05
0.00111153
0.00178995
0.00197284
0.00173668
0.00129168
0.000849477
0.000544174
0.000399694
0.000377725
0.000403166
0.000341558
0.000464057
)
;
    }
}


// ************************************************************************* //
