/*--------------------------------*- C++ -*----------------------------------*\
  =========                 |
  \\      /  F ield         | OpenFOAM: The Open Source CFD Toolbox
   \\    /   O peration     | Website:  https://openfoam.org
    \\  /    A nd           | Version:  7
     \\/     M anipulation  |
\*---------------------------------------------------------------------------*/
FoamFile
{
    version     2.0;
    format      ascii;
    class       volScalarField;
    location    "1.2";
    object      p;
}
// * * * * * * * * * * * * * * * * * * * * * * * * * * * * * * * * * * * * * //

dimensions      [0 2 -2 0 0 0 0];

internalField   nonuniform List<scalar> 
344
(
3.86944
3.86201
3.85458
3.84714
3.8397
3.83226
3.82481
3.81736
3.8099
3.80243
3.79495
3.78747
3.77997
3.77246
3.76493
3.75738
3.74981
3.74222
3.73459
3.72693
3.71923
3.71148
3.70367
3.6958
3.68785
3.67981
3.67167
3.6634
3.65499
3.64642
3.63764
3.62865
3.61938
3.6098
3.59986
3.58949
3.57863
3.56718
3.55505
3.54212
3.52826
3.5133
3.49705
3.47931
3.4598
3.43822
3.41422
3.38737
3.35719
3.32308
3.28437
3.24028
3.18988
3.13211
3.06577
2.9895
2.90181
2.80109
2.68573
2.55417
2.4051
2.23771
2.05191
1.84878
1.63069
1.4017
3.86945
3.86202
3.85459
3.84715
3.83972
3.83228
3.82483
3.81738
3.80992
3.80246
3.79499
3.78751
3.78002
3.77251
3.76499
3.75745
3.7499
3.74232
3.73471
3.72707
3.71939
3.71166
3.70389
3.69605
3.68815
3.68016
3.67207
3.66387
3.65554
3.64706
3.6384
3.62952
3.62041
3.611
3.60126
3.59112
3.58053
3.56939
3.55763
3.54512
3.53175
3.51736
3.50178
3.48479
3.46616
3.44559
3.42273
3.39719
3.36848
3.33603
3.29917
3.2571
3.20888
3.15342
3.08942
3.01543
2.92978
2.83065
2.71608
2.58416
2.43309
2.26163
2.06923
1.8568
1.62668
1.38364
3.86946
3.86203
3.8546
3.84717
3.83973
3.83229
3.82485
3.8174
3.80995
3.80249
3.79503
3.78755
3.78007
3.77257
3.76506
3.75754
3.74999
3.74243
3.73484
3.72722
3.71956
3.71187
3.70413
3.69633
3.68848
3.68054
3.67252
3.6644
3.65616
3.64778
3.63923
3.6305
3.62154
3.61233
3.60281
3.59293
3.58264
3.57185
3.56049
3.54846
3.53564
3.52189
3.50705
3.49092
3.47328
3.45384
3.4323
3.40826
3.38125
3.35073
3.31603
3.27635
3.23075
3.1781
3.11703
3.04597
2.96306
2.86621
2.75309
2.62126
2.46834
2.2924
2.09214
1.86823
1.62262
1.36121
3.86947
3.86204
3.85461
3.84718
3.83975
3.83231
3.82487
3.81743
3.80998
3.80253
3.79507
3.7876
3.78012
3.77264
3.76514
3.75762
3.75009
3.74255
3.73498
3.72738
3.71975
3.71209
3.70439
3.69664
3.68883
3.68096
3.673
3.66496
3.65682
3.64855
3.64013
3.63155
3.62277
3.61376
3.60448
3.59488
3.58491
3.5745
3.56359
3.55207
3.53984
3.52679
3.51275
3.49756
3.48101
3.46283
3.44273
3.42036
3.39526
3.36691
3.33467
3.29776
3.25523
3.20592
3.14842
3.08104
3.00174
2.90811
2.79737
2.66648
2.5122
2.33165
2.12237
1.88449
1.61898
1.33368
3.86948
3.86205
3.85462
3.8472
3.83976
3.83233
3.82489
3.81746
3.81001
3.80256
3.79511
3.78765
3.78018
3.7727
3.76522
3.75772
3.7502
3.74267
3.73512
3.72755
3.71995
3.71233
3.70466
3.69696
3.6892
3.68139
3.67351
3.66555
3.65751
3.64935
3.64107
3.63265
3.62405
3.61525
3.60622
3.59692
3.58729
3.57728
3.56683
3.55585
3.54426
3.53194
3.51876
3.50457
3.48917
3.47234
3.45381
3.43323
3.41022
3.38426
3.35476
3.32096
3.28193
3.23652
3.18329
3.12044
3.04576
2.95654
2.84952
2.72087
1.19109
0.965312
0.746466
0.540204
1.16555
0.928887
0.70096
0.488404
1.13239
0.881201
0.641566
0.421514
1.0898
0.819222
0.564814
0.336422
1.03502
0.738382
0.465857
0.22915
)
;

boundaryField
{
    inlet
    {
        type            zeroGradient;
    }
    outlet
    {
        type            fixedValue;
        value           nonuniform 0();
    }
    wall
    {
        type            zeroGradient;
    }
    wedge1
    {
        type            wedge;
    }
    wedge2
    {
        type            wedge;
    }
    axis
    {
        type            empty;
    }
    procBoundary8to2
    {
        type            processor;
        value           nonuniform List<scalar> 
71
(
3.86944
3.86201
3.85457
3.84713
3.83969
3.83225
3.8248
3.81734
3.80988
3.80241
3.79492
3.78743
3.77993
3.77241
3.76487
3.75732
3.74974
3.74213
3.73449
3.72681
3.71909
3.71131
3.70348
3.69558
3.68759
3.67951
3.67131
3.66299
3.65451
3.64586
3.63699
3.62788
3.61849
3.60877
3.59865
3.58809
3.57699
3.56527
3.55282
3.53953
3.52524
3.50979
3.49298
3.47458
3.45433
3.4319
3.40692
3.37897
3.34755
3.31206
3.27183
3.22608
3.17391
3.11431
3.04614
2.96814
2.87895
2.77718
2.66144
2.53046
2.38327
2.21937
2.03895
1.84316
1.63431
1.41595
1.41595
1.21027
0.992508
0.780496
0.579213
)
;
    }
    procBoundary8to3
    {
        type            processor;
        value           uniform 0.350774;
    }
    procBoundary8to7
    {
        type            processor;
        value           nonuniform List<scalar> 5(3.87687 3.87688 3.87688 3.87689 3.8769);
    }
    procBoundary8to9
    {
        type            processor;
        value           nonuniform List<scalar> 4(0.295678 0.225465 0.137703 0.0295041);
    }
    procBoundary8to14
    {
        type            processor;
        value           nonuniform List<scalar> 
71
(
2.5663
2.38155
2.16239
1.90778
1.61649
1.2999
3.86949
3.86206
3.85464
3.84721
3.83978
3.83235
3.82492
3.81748
3.81004
3.8026
3.79515
3.7877
3.78024
3.77277
3.7653
3.75781
3.75031
3.7428
3.73527
3.72773
3.72016
3.71256
3.70494
3.69728
3.68958
3.68183
3.67402
3.66615
3.65821
3.65017
3.64203
3.63377
3.62536
3.61678
3.60801
3.599
3.58972
3.58012
3.57015
3.55973
3.54879
3.53723
3.52493
3.51177
3.49758
3.48215
3.46526
3.44659
3.42578
3.40239
3.37586
3.34547
3.31035
3.26937
3.2211
3.16369
3.09482
3.01148
2.9099
2.5663
2.78542
0.963152
0.631319
0.337978
0.0949813
)
;
    }
}


// ************************************************************************* //
