/*--------------------------------*- C++ -*----------------------------------*\
  =========                 |
  \\      /  F ield         | OpenFOAM: The Open Source CFD Toolbox
   \\    /   O peration     | Website:  https://openfoam.org
    \\  /    A nd           | Version:  7
     \\/     M anipulation  |
\*---------------------------------------------------------------------------*/
FoamFile
{
    version     2.0;
    format      ascii;
    class       volScalarField;
    location    "0.9996";
    object      p;
}
// * * * * * * * * * * * * * * * * * * * * * * * * * * * * * * * * * * * * * //

dimensions      [0 2 -2 0 0 0 0];

internalField   nonuniform List<scalar> 
5800
(
-0.323474
-0.328131
-0.329105
-0.327184
-0.322679
-0.315396
-0.305179
-0.291906
-0.275491
-0.255942
0.825497
0.7841
0.754734
0.730667
0.708049
0.686139
0.664036
0.641035
0.616827
0.591413
0.565006
0.825497
0.784099
0.754734
0.730667
0.708049
0.686139
0.664036
0.641035
0.616827
0.591413
0.565006
0.537946
0.510617
0.483397
0.456619
0.430563
0.405448
0.381435
0.358643
0.337141
0.820702
0.77947
0.75025
0.726346
0.703927
0.682246
0.660396
0.637662
0.613724
0.588574
0.56242
0.535598
0.50849
0.481471
0.454878
0.42899
0.404029
0.380152
0.357476
0.336105
0.811144
0.770243
0.741311
0.717733
0.695709
0.674484
0.653138
0.630934
0.607534
0.582911
0.557263
0.530914
0.504245
0.47763
0.451405
0.425852
0.401195
0.377593
0.355149
0.334037
0.796886
0.756478
0.727977
0.704883
0.683446
0.662901
0.642304
0.62089
0.598291
0.574456
0.54956
0.523919
0.497905
0.471891
0.446216
0.421163
0.396963
0.373771
0.351673
0.330946
0.778022
0.738267
0.710336
0.687881
0.667218
0.647568
0.627959
0.607589
0.586048
0.563253
0.539353
0.514647
0.489501
0.464285
0.439336
0.414946
0.39135
0.368702
0.347063
0.326845
0.754674
0.71573
0.688503
0.666835
0.647126
0.628579
0.610188
0.591104
0.570871
0.549362
0.526695
0.503148
0.479076
0.454847
0.430801
0.407232
0.384385
0.362411
0.341341
0.32175
0.726995
0.689016
0.662622
0.641884
0.623297
0.60605
0.589095
0.571532
0.552845
0.532857
0.511651
0.489478
0.466681
0.443625
0.42065
0.398056
0.3761
0.354928
0.334535
0.315682
0.695167
0.6583
0.632864
0.613187
0.595883
0.58012
0.564806
0.548982
0.532068
0.513828
0.494299
0.473707
0.452379
0.430673
0.408933
0.387463
0.366534
0.346287
0.326675
0.308665
0.659395
0.623783
0.599421
0.580931
0.565055
0.550946
0.537464
0.523584
0.508654
0.492374
0.47473
0.455916
0.43624
0.416055
0.395706
0.375503
0.35573
0.336528
0.317797
0.300727
0.619913
0.585691
0.562514
0.545322
0.531008
0.518706
0.507229
0.495481
0.482731
0.468609
0.453045
0.436194
0.418345
0.399842
0.381032
0.362232
0.343739
0.325695
0.307939
0.291896
0.576974
0.544273
0.52238
0.50659
0.493955
0.483597
0.474279
0.464832
0.454442
0.44266
0.429355
0.41464
0.39878
0.382112
0.364981
0.347711
0.330616
0.313837
0.297146
0.282205
0.530854
0.499795
0.47928
0.46498
0.454127
0.445831
0.438806
0.43181
0.423939
0.414662
0.403781
0.391362
0.377643
0.362951
0.347628
0.332007
0.316419
0.301005
0.285463
0.271686
0.481848
0.452545
0.433491
0.420758
0.411772
0.405636
0.401018
0.3966
0.391389
0.384763
0.376453
0.366474
0.355035
0.342448
0.329055
0.315194
0.301212
0.287257
0.272939
0.260376
0.430267
0.402824
0.385305
0.374203
0.367152
0.363253
0.361134
0.3594
0.356967
0.353118
0.34751
0.340101
0.331066
0.320702
0.309348
0.297346
0.285062
0.272653
0.259627
0.248309
0.376437
0.350948
0.335028
0.325607
0.320542
0.318937
0.319384
0.320418
0.320857
0.319893
0.317097
0.312371
0.305851
0.297815
0.288598
0.278547
0.268043
0.257255
0.245585
0.235524
0.320693
0.297244
0.282977
0.275274
0.272226
0.27295
0.276008
0.279868
0.283253
0.285257
0.285367
0.283419
0.279509
0.273894
0.266902
0.25888
0.250228
0.241132
0.230875
0.222064
0.263381
0.242048
0.229476
0.223514
0.222498
0.225566
0.231256
0.237975
0.244354
0.249389
0.252477
0.253386
0.252166
0.24905
0.244357
0.238435
0.231697
0.224357
0.215573
0.207961
0.204852
0.185699
0.174855
0.170644
0.171658
0.177061
0.185381
0.194968
0.204367
0.212472
0.21859
0.222415
0.22395
0.223398
0.221068
0.217306
0.212535
0.207007
0.199755
0.193245
0.145461
0.12854
0.119449
0.116986
0.120008
0.127719
0.138642
0.151082
0.163499
0.174691
0.18387
0.190654
0.194991
0.197054
0.197139
0.195587
0.192822
0.18914
0.183492
0.177988
0.0855623
0.0709169
0.0635898
0.062859
0.0678536
0.077823
0.0913
0.106553
0.121965
0.136237
0.148487
0.158253
0.165424
0.170138
0.172677
0.173378
0.172645
0.170817
0.167061
0.162599
0.0255082
0.0131685
0.00760921
0.00858365
0.0154985
0.0276587
0.043618
0.0616195
0.0799776
0.0973001
0.112609
0.125361
0.135381
0.142769
0.14779
0.150779
0.152109
0.152203
0.151393
0.149546
-0.0343539
-0.0443691
-0.0481669
-0.0455256
-0.0367571
-0.022492
-0.00414324
0.0165198
0.0377513
0.0580714
0.0764075
0.0921287
0.104996
0.115065
0.122579
0.12787
0.131278
0.133185
0.134529
0.135007
-0.0936847
-0.101369
-0.10342
-0.0991605
-0.0886183
-0.0723509
-0.0517255
-0.0285104
-0.00450087
0.0187415
0.0400505
0.0587076
0.0744034
0.0871444
0.0971467
0.104737
0.110229
0.113931
0.11702
0.119663
-0.152154
-0.157515
-0.157843
-0.152023
-0.139798
-0.121646
-0.0988754
-0.0732385
-0.0465686
-0.0205013
0.00370628
0.0252464
0.0437353
0.059126
0.0716022
0.0814792
0.089061
0.0946082
0.0993825
0.103915
-0.209437
-0.212508
-0.211142
-0.203825
-0.19002
-0.170115
-0.145346
-0.117437
-0.0882452
-0.0594713
-0.0324596
-0.00810761
0.0131232
0.0311279
0.0460531
0.0581977
0.0678624
0.0752879
0.0817527
0.0879739
-0.265237
-0.266059
-0.26304
-0.254295
-0.23902
-0.217504
-0.1909
-0.160885
-0.129329
-0.0979872
-0.0682851
-0.0412098
-0.0173037
0.00326612
0.0206048
0.0349905
0.04672
0.0560253
0.0641683
0.071994
-0.31939
-0.31782
-0.313267
-0.303178
-0.286546
-0.263573
-0.235307
-0.203371
-0.169626
-0.135873
-0.103612
-0.0739193
-0.0474193
-0.0243458
-0.00463962
0.011952
0.0257206
0.0368922
0.0466914
0.0560722
-0.371448
-0.367684
-0.361575
-0.350235
-0.332363
-0.308094
-0.278353
-0.24469
-0.208949
-0.172959
-0.138289
-0.1061
-0.0771013
-0.0515979
-0.0295805
-0.0108261
0.00494862
0.0179652
0.0293955
0.0402869
-0.421239
-0.415353
-0.40775
-0.395231
-0.376269
-0.350862
-0.319833
-0.284649
-0.247119
-0.209082
-0.172168
-0.137619
-0.106232
-0.0783843
-0.0541219
-0.0332563
-0.0155156
-0.000683101
0.0123494
0.0247081
-0.468562
-0.460614
-0.45159
-0.437986
-0.418049
-0.391673
-0.359574
-0.323068
-0.283968
-0.244088
-0.20511
-0.168353
-0.1347
-0.104604
-0.0781723
-0.0552554
-0.0355965
-0.0189848
-0.00438376
0.00939761
-0.513224
-0.50329
-0.492918
-0.478321
-0.457537
-0.430358
-0.397368
-0.359799
-0.319342
-0.277832
-0.236983
-0.198183
-0.162398
-0.130161
-0.101645
-0.0767449
-0.0552229
-0.036876
-0.0207451
-0.00558905
-0.555058
-0.543228
-0.531582
-0.516085
-0.494581
-0.466766
-0.433089
-0.394665
-0.353094
-0.310182
-0.267663
-0.226998
-0.189226
-0.154967
-0.12446
-0.0976516
-0.0743283
-0.0542966
-0.0366793
-0.0202007
-0.593923
-0.580295
-0.567456
-0.551148
-0.52905
-0.500761
-0.466599
-0.427541
-0.38509
-0.341008
-0.29704
-0.254693
-0.215091
-0.178937
-0.146542
-0.117907
-0.0928507
-0.0711908
-0.052135
-0.0343896
-0.629709
-0.614388
-0.600438
-0.583411
-0.560837
-0.532233
-0.497778
-0.458308
-0.415217
-0.370202
-0.325005
-0.281174
-0.239909
-0.201994
-0.167822
-0.137449
-0.110733
-0.0875065
-0.0670645
-0.0481116
-0.66233
-0.645431
-0.630455
-0.612796
-0.589862
-0.56109
-0.526529
-0.486866
-0.443371
-0.397663
-0.351465
-0.306354
-0.263599
-0.224066
-0.188236
-0.15622
-0.127924
-0.103196
-0.0814238
-0.0613248
-0.691727
-0.673371
-0.657455
-0.639253
-0.616066
-0.587268
-0.552778
-0.513132
-0.469464
-0.423304
-0.376335
-0.330155
-0.286093
-0.245097
-0.207723
-0.174168
-0.144374
-0.118216
-0.0951735
-0.07399
-0.71787
-0.698182
-0.681417
-0.662753
-0.639416
-0.610722
-0.576468
-0.537039
-0.493425
-0.44705
-0.399543
-0.352509
-0.307326
-0.265024
-0.226239
-0.191246
-0.160039
-0.132525
-0.108278
-0.0860682
-0.740753
-0.719865
-0.702339
-0.683295
-0.659903
-0.631432
-0.597567
-0.558542
-0.515199
-0.46884
-0.421027
-0.373355
-0.327243
-0.283795
-0.243734
-0.207415
-0.174893
-0.146091
-0.120691
-0.097533
-0.760395
-0.738442
-0.720247
-0.700899
-0.677537
-0.649397
-0.61606
-0.577614
-0.534745
-0.488627
-0.440736
-0.392642
-0.345797
-0.30137
-0.260169
-0.222635
-0.188889
-0.158884
-0.132377
-0.108445
-0.77684
-0.753959
-0.735186
-0.715608
-0.692354
-0.664641
-0.631955
-0.594244
-0.552041
-0.506376
-0.458629
-0.410331
-0.362947
-0.317711
-0.275512
-0.236877
-0.202002
-0.170877
-0.143337
-0.118653
-0.790152
-0.766482
-0.747221
-0.727483
-0.704409
-0.677205
-0.645278
-0.608443
-0.567079
-0.522068
-0.47468
-0.426387
-0.378662
-0.332786
-0.289733
-0.250115
-0.214208
-0.182046
-0.153543
-0.128158
-0.800416
-0.776095
-0.756438
-0.736607
-0.713774
-0.68715
-0.656073
-0.620237
-0.579867
-0.535696
-0.48887
-0.440789
-0.392915
-0.346573
-0.302809
-0.262329
-0.225487
-0.192369
-0.162969
-0.136963
-0.807734
-0.782903
-0.762938
-0.743078
-0.720542
-0.694554
-0.664402
-0.629668
-0.590431
-0.547268
-0.501193
-0.453521
-0.405689
-0.35905
-0.314724
-0.2735
-0.235824
-0.201832
-0.171602
-0.145055
-0.812227
-0.787021
-0.766838
-0.747007
-0.724816
-0.699513
-0.670344
-0.636795
-0.598807
-0.556802
-0.511653
-0.464579
-0.416972
-0.370206
-0.325461
-0.283617
-0.245206
-0.210424
-0.179428
-0.152423
-0.814026
-0.78858
-0.768265
-0.748522
-0.726717
-0.702133
-0.673992
-0.641693
-0.605049
-0.564331
-0.520266
-0.473963
-0.426758
-0.38003
-0.335013
-0.29267
-0.253624
-0.218136
-0.18644
-0.159058
-0.813277
-0.78772
-0.767358
-0.747756
-0.726374
-0.702536
-0.67545
-0.644447
-0.609221
-0.569898
-0.527057
-0.481685
-0.435049
-0.388519
-0.343372
-0.300651
-0.261072
-0.224962
-0.19263
-0.164954
-0.810131
-0.784591
-0.764264
-0.744855
-0.723926
-0.700851
-0.674835
-0.645155
-0.611401
-0.573559
-0.532059
-0.487761
-0.441851
-0.395672
-0.350536
-0.307557
-0.267545
-0.230898
-0.197995
-0.170108
-0.80475
-0.779348
-0.759135
-0.739968
-0.719519
-0.697215
-0.672272
-0.643926
-0.611676
-0.575378
-0.535317
-0.492219
-0.447175
-0.401493
-0.356503
-0.313386
-0.273042
-0.235942
-0.202534
-0.174522
-0.797297
-0.772148
-0.752126
-0.733249
-0.713303
-0.691772
-0.667893
-0.640876
-0.610141
-0.575428
-0.53688
-0.495088
-0.451039
-0.405988
-0.361275
-0.318136
-0.277559
-0.240094
-0.206247
-0.178198
-0.78794
-0.763153
-0.743396
-0.724853
-0.705429
-0.684669
-0.661837
-0.636128
-0.606902
-0.573792
-0.536809
-0.496407
-0.453463
-0.409167
-0.364854
-0.321807
-0.281098
-0.243352
-0.209133
-0.181141
-0.776845
-0.752523
-0.733101
-0.714935
-0.696051
-0.676054
-0.654242
-0.629809
-0.602067
-0.570557
-0.535169
-0.49622
-0.454472
-0.411042
-0.367244
-0.324399
-0.283656
-0.245718
-0.211196
-0.183357
-0.764177
-0.740415
-0.721396
-0.703648
-0.68532
-0.666075
-0.645251
-0.622051
-0.595752
-0.56582
-0.53203
-0.494576
-0.454096
-0.411627
-0.368451
-0.325912
-0.285231
-0.24719
-0.212436
-0.184854
-0.750098
-0.726986
-0.708433
-0.691143
-0.673385
-0.654878
-0.635004
-0.612983
-0.588073
-0.559676
-0.527471
-0.491528
-0.452369
-0.410939
-0.36848
-0.326346
-0.285822
-0.247764
-0.212853
-0.185638
-0.734765
-0.712386
-0.694358
-0.677564
-0.660389
-0.642605
-0.62364
-0.602738
-0.57915
-0.55223
-0.521571
-0.487134
-0.449327
-0.408999
-0.367338
-0.325701
-0.285423
-0.247438
-0.212444
-0.185709
-0.718328
-0.696759
-0.679314
-0.663052
-0.646472
-0.629394
-0.611293
-0.591445
-0.569101
-0.543582
-0.514414
-0.481458
-0.445012
-0.405827
-0.365033
-0.323975
-0.28403
-0.246202
-0.211201
-0.185057
-0.700932
-0.680244
-0.663435
-0.64774
-0.631767
-0.615378
-0.598095
-0.579229
-0.558043
-0.533839
-0.506087
-0.474564
-0.439467
-0.401451
-0.361578
-0.321171
-0.281637
-0.244048
-0.209111
-0.183643
-0.682715
-0.662973
-0.646851
-0.631754
-0.616398
-0.600682
-0.58417
-0.566212
-0.546092
-0.523104
-0.496679
-0.466523
-0.432743
-0.3959
-0.356986
-0.317291
-0.27824
-0.240964
-0.206153
-0.181372
-0.663807
-0.645073
-0.629684
-0.615217
-0.600487
-0.585425
-0.569636
-0.552511
-0.53336
-0.511481
-0.486279
-0.457407
-0.424891
-0.389209
-0.351277
-0.312344
-0.273837
-0.236943
-0.20231
-0.178052
-0.644333
-0.626664
-0.612051
-0.598241
-0.584146
-0.56972
-0.554607
-0.538239
-0.519956
-0.499071
-0.47498
-0.447293
-0.415972
-0.381418
-0.344475
-0.306343
-0.268435
-0.23199
-0.197599
-0.173267
-0.624412
-0.607861
-0.594064
-0.580936
-0.567483
-0.553675
-0.53919
-0.523501
-0.505985
-0.485977
-0.462872
-0.436259
-0.406049
-0.372574
-0.336613
-0.299311
-0.26205
-0.226136
-0.19197
-0.165786
-0.604159
-0.588775
-0.575829
-0.563406
-0.550599
-0.537389
-0.523486
-0.508402
-0.49155
-0.472297
-0.45005
-0.42439
-0.395191
-0.362734
-0.327734
-0.291285
-0.254724
-0.219439
-0.185187
-0.152201
-0.583686
-0.569515
-0.557452
-0.545753
-0.533593
-0.520962
-0.507594
-0.493039
-0.476751
-0.458131
-0.436611
-0.411774
-0.383477
-0.35196
-0.317889
-0.282311
-0.24652
-0.21204
-0.17927
-0.144085
-0.563106
-0.550188
-0.539036
-0.528074
-0.516562
-0.504487
-0.491608
-0.477509
-0.461686
-0.443579
-0.422652
-0.398506
-0.370993
-0.340326
-0.307136
-0.272435
-0.237479
-0.203856
-0.17275
-0.137974
-0.542531
-0.530902
-0.520684
-0.510469
-0.499599
-0.488058
-0.475622
-0.461909
-0.446455
-0.428743
-0.408277
-0.384686
-0.357832
-0.327918
-0.295546
-0.261701
-0.227609
-0.194824
-0.164959
-0.131207
-0.522078
-0.511768
-0.5025
-0.493037
-0.482801
-0.471769
-0.459729
-0.446334
-0.431157
-0.413728
-0.393596
-0.370426
-0.344104
-0.314835
-0.283206
-0.250177
-0.216946
-0.185006
-0.156143
-0.123499
-0.501868
-0.4929
-0.48459
-0.475879
-0.466265
-0.455713
-0.444026
-0.430883
-0.415897
-0.398644
-0.378722
-0.355844
-0.329928
-0.301193
-0.270224
-0.23796
-0.205575
-0.174502
-0.146581
-0.115162
-0.482027
-0.474414
-0.467066
-0.459099
-0.450089
-0.439989
-0.42861
-0.415658
-0.400783
-0.383607
-0.363783
-0.341073
-0.315439
-0.287129
-0.256733
-0.225178
-0.193614
-0.163425
-0.136436
-0.106373
-0.462689
-0.456434
-0.450043
-0.442807
-0.43438
-0.424699
-0.413585
-0.400767
-0.38593
-0.368742
-0.348911
-0.326256
-0.300789
-0.272797
-0.242885
-0.211978
-0.181207
-0.151908
-0.125849
-0.0972445
-0.443996
-0.43909
-0.43364
-0.427113
-0.419243
-0.40995
-0.399059
-0.386323
-0.371458
-0.354181
-0.334251
-0.311549
-0.286144
-0.258368
-0.228854
-0.198532
-0.168519
-0.140108
-0.114977
-0.0879089
-0.426095
-0.422514
-0.41798
-0.412137
-0.404792
-0.395852
-0.385144
-0.372443
-0.357497
-0.340063
-0.319957
-0.297121
-0.271686
-0.244034
-0.214836
-0.185034
-0.155738
-0.128202
-0.103999
-0.0785194
-0.40914
-0.406845
-0.403191
-0.397996
-0.391142
-0.382519
-0.371959
-0.359254
-0.34418
-0.326536
-0.306193
-0.283152
-0.257607
-0.229999
-0.201041
-0.171695
-0.143071
-0.116388
-0.0931045
-0.0692375
-0.393287
-0.392221
-0.389402
-0.384813
-0.378412
-0.370071
-0.359625
-0.346882
-0.331646
-0.313755
-0.293128
-0.269828
-0.244112
-0.216481
-0.187695
-0.158744
-0.130741
-0.104875
-0.0824913
-0.0602301
-0.378693
-0.378782
-0.376743
-0.372709
-0.366719
-0.358624
-0.348263
-0.335458
-0.320038
-0.301875
-0.280937
-0.257343
-0.231412
-0.203705
-0.175033
-0.146417
-0.118979
-0.0938838
-0.0723647
-0.0516663
-0.365514
-0.366664
-0.365333
-0.361807
-0.35618
-0.348296
-0.337994
-0.325111
-0.309496
-0.291053
-0.269793
-0.245888
-0.219717
-0.191898
-0.163293
-0.134955
-0.108023
-0.0836374
-0.0629312
-0.0437149
-0.353898
-0.355999
-0.355298
-0.352217
-0.346906
-0.3392
-0.328937
-0.315967
-0.300158
-0.281441
-0.259867
-0.235653
-0.209233
-0.181282
-0.152706
-0.124596
-0.0981051
-0.0743563
-0.054393
-0.0365391
-0.343982
-0.346906
-0.346747
-0.344045
-0.339001
-0.33144
-0.321199
-0.308144
-0.292152
-0.273182
-0.251316
-0.226814
-0.200156
-0.172066
-0.143494
-0.115565
-0.0894473
-0.0662502
-0.0469414
-0.335889
-0.339492
-0.339779
-0.337385
-0.332555
-0.325107
-0.314881
-0.301745
-0.285594
-0.266404
-0.244285
-0.219531
-0.192661
-0.16444
-0.135858
-0.108067
-0.0822514
-0.05951
-0.0407496
-0.329724
-0.333848
-0.334476
-0.332317
-0.327649
-0.320283
-0.310065
-0.296863
-0.280584
-0.261218
-0.238897
-0.213941
-0.186899
-0.158568
-0.12997
-0.102278
-0.076691
-0.0543001
-0.0359663
-0.325567
-0.330045
-0.330903
-0.328902
-0.324343
-0.317032
-0.306815
-0.293567
-0.277198
-0.257711
-0.235249
-0.210151
-0.182988
-0.154579
-0.125965
-0.098337
-0.0729039
-0.0507509
-0.0327092
-0.323474
-0.328131
-0.329105
-0.327184
-0.322679
-0.315396
-0.305179
-0.291906
-0.275491
-0.255942
-0.233408
-0.208237
-0.181012
-0.152561
-0.123938
-0.0963419
-0.0709859
-0.0489531
-0.0310597
0.161216
0.164508
0.170971
0.178007
0.185388
0.191043
0.194857
0.193724
0.190328
0.176739
0.162604
0.165995
0.172786
0.180337
0.188485
0.195233
0.200531
0.201423
0.200277
0.190826
0.163798
0.167333
0.174362
0.182313
0.19107
0.198708
0.205267
0.207937
0.208803
0.202737
0.165063
0.168642
0.175908
0.184261
0.19364
0.202195
0.210033
0.214516
0.217416
0.214535
0.166271
0.169913
0.177414
0.186168
0.196159
0.205621
0.214694
0.220943
0.225803
0.225831
0.167417
0.171131
0.178855
0.187991
0.198563
0.208889
0.219122
0.227045
0.233769
0.236468
0.1685
0.172304
0.180222
0.189722
0.200842
0.211988
0.223312
0.232812
0.241321
0.246489
0.169519
0.173443
0.181515
0.191357
0.202994
0.214916
0.227263
0.238245
0.248456
0.255906
0.17047
0.174249
0.182727
0.192893
0.205011
0.217663
0.230966
0.243327
0.255147
0.264707
0.171353
0.175255
0.183855
0.194322
0.206888
0.220218
0.234407
0.248041
0.261369
0.272874
0.172166
0.176156
0.184892
0.19564
0.208617
0.222571
0.237576
0.252373
0.2671
0.280388
0.172905
0.176963
0.185838
0.196842
0.210192
0.224715
0.240463
0.256312
0.272318
0.287226
0.173568
0.177688
0.186687
0.197923
0.211607
0.226642
0.243056
0.259846
0.277004
0.293369
0.174152
0.178329
0.187438
0.198878
0.212857
0.228343
0.245347
0.262963
0.281142
0.298794
0.174657
0.178884
0.188086
0.199705
0.213939
0.229814
0.247327
0.265654
0.284716
0.303482
0.17508
0.179349
0.18863
0.2004
0.214846
0.231047
0.248988
0.267911
0.287714
0.307415
0.175419
0.179723
0.189066
0.200959
0.215576
0.23204
0.250325
0.269725
0.290126
0.31058
0.175675
0.180006
0.189395
0.201381
0.216127
0.232788
0.251333
0.271092
0.291942
0.312965
0.175846
0.180194
0.189613
0.201663
0.216495
0.233288
0.252006
0.272005
0.293156
0.314559
0.175932
0.180289
0.189723
0.201805
0.216679
0.233539
0.252344
0.272463
0.293764
0.315358
0.0571577
0.0561759
0.054422
0.052325
0.0501544
0.048052
0.0460955
0.0443231
0.042745
0.0413579
0.0572647
0.0562799
0.0545159
0.0524087
0.0502276
0.0481147
0.0461483
0.0443669
0.0427808
0.041387
0.0574739
0.0564808
0.0546989
0.0525722
0.0503703
0.0482368
0.046251
0.0444522
0.0428504
0.0414435
0.0577797
0.0567739
0.0549668
0.0528112
0.0505789
0.0484153
0.0464011
0.0445769
0.0429521
0.0415258
0.0581774
0.0571551
0.0553154
0.0531225
0.0508504
0.0486474
0.0465963
0.0447388
0.043084
0.0416325
0.0586629
0.0576205
0.0557415
0.0535028
0.0511821
0.0489311
0.0468345
0.0449362
0.0432446
0.0417622
0.0592326
0.0581667
0.056242
0.0539497
0.0515718
0.0492641
0.0471141
0.0451676
0.0434324
0.0419135
0.0598831
0.0587906
0.0568141
0.0544609
0.0520175
0.0496448
0.0474334
0.0454315
0.043646
0.0420853
0.0606116
0.0594894
0.0574556
0.0550343
0.0525175
0.0500718
0.0477911
0.0457266
0.0438844
0.0422762
0.0614154
0.0602608
0.0581642
0.0556681
0.0530703
0.0505437
0.048186
0.046052
0.0441463
0.0424854
0.0622918
0.0611025
0.0589382
0.056361
0.0536746
0.0510595
0.0486172
0.0464065
0.0444308
0.0427119
0.0632387
0.0620124
0.059776
0.0571117
0.0543296
0.0516184
0.0490839
0.0467896
0.0447372
0.0429547
0.0642538
0.0629886
0.0606759
0.057919
0.0550343
0.0522196
0.0495854
0.0472005
0.0450646
0.0432131
0.0653351
0.0640294
0.0616367
0.058782
0.0557881
0.0528627
0.0501213
0.0476387
0.0454125
0.0434865
0.0664806
0.065133
0.0626571
0.0597
0.0565905
0.0535474
0.0506913
0.0481039
0.0457804
0.0437743
0.0676884
0.0662979
0.0637361
0.0606722
0.0574413
0.0542735
0.0512953
0.0485959
0.046168
0.044076
0.0689565
0.0675224
0.0648725
0.0616983
0.0583401
0.055041
0.0519333
0.0491148
0.0465751
0.0443915
0.070283
0.0688051
0.0660655
0.0627778
0.059287
0.0558502
0.0526055
0.0496607
0.0470016
0.0447203
0.0716661
0.0701443
0.0673142
0.0639103
0.0602821
0.0567013
0.0533123
0.0502338
0.0474478
0.0450626
0.0731037
0.0715386
0.0686176
0.0650956
0.0613256
0.057595
0.0540544
0.0508347
0.0479138
0.0454185
0.074594
0.0729863
0.0699749
0.0663337
0.0624178
0.0585318
0.0548323
0.051464
0.0484
0.045788
0.0761349
0.074486
0.0713853
0.0676243
0.0635593
0.0595125
0.055647
0.0521226
0.0489072
0.0461717
0.0777243
0.0760359
0.0728479
0.0689674
0.0647505
0.0605383
0.0564996
0.0528115
0.0494361
0.0465701
0.07936
0.0776344
0.0743618
0.0703629
0.0659922
0.0616101
0.0573914
0.0535321
0.0499876
0.0469839
0.08104
0.0792796
0.0759263
0.0718109
0.0672851
0.0627293
0.0583239
0.0542857
0.0505631
0.0474142
0.0827618
0.0809699
0.0775404
0.0733115
0.06863
0.0638973
0.0592987
0.0550741
0.0511639
0.047862
0.0845232
0.0827032
0.0792031
0.0748644
0.0700279
0.0651157
0.0603176
0.0558992
0.0517917
0.0483287
0.0863216
0.0844775
0.0809135
0.0764699
0.0714798
0.0663861
0.0613828
0.0567631
0.0524484
0.048816
0.0881545
0.0862909
0.0826704
0.0781278
0.0729867
0.0677105
0.0624966
0.0576682
0.0531361
0.0493256
0.0900194
0.0881411
0.0844727
0.079838
0.0745498
0.0690908
0.0636612
0.0586171
0.0538573
0.0498596
0.0919135
0.090026
0.0863193
0.0816004
0.0761701
0.0705289
0.0648796
0.0596127
0.0546148
0.0504205
0.0938341
0.0919431
0.0882087
0.0834149
0.0778489
0.0720271
0.0661543
0.0606582
0.0554114
0.0510108
0.0957784
0.0938902
0.0901397
0.0852812
0.0795872
0.0735876
0.0674887
0.0617568
0.0562506
0.0516335
0.0977436
0.0958647
0.0921105
0.0871988
0.0813863
0.0752127
0.0688858
0.0629124
0.0571359
0.052292
0.0997266
0.0978641
0.0941198
0.0891674
0.0832471
0.0769047
0.0703491
0.0641287
0.0580714
0.0529897
0.101725
0.0998858
0.0961656
0.0911863
0.0851708
0.078666
0.0718823
0.0654098
0.0590613
0.0537306
0.103735
0.101927
0.0982461
0.0932549
0.0871583
0.0804989
0.0734889
0.0667603
0.0601104
0.0545191
0.105753
0.103985
0.100359
0.0953724
0.0892104
0.0824058
0.0751731
0.0681845
0.0612238
0.0553596
0.107778
0.106057
0.102503
0.0975376
0.0913279
0.084389
0.0769386
0.0696874
0.0624068
0.0562574
0.109806
0.108141
0.104676
0.0997497
0.0935112
0.0864508
0.0787897
0.071274
0.0636653
0.0572177
0.111834
0.110233
0.106874
0.102007
0.0957609
0.0885932
0.0807306
0.0729494
0.0650055
0.0582464
0.113858
0.11233
0.109095
0.104308
0.0980771
0.0908183
0.0827654
0.0747189
0.0664341
0.0593496
0.115876
0.11443
0.111338
0.106652
0.10046
0.0931279
0.0848983
0.0765882
0.0679581
0.0605339
0.117886
0.11653
0.113599
0.109036
0.102908
0.0955238
0.0871335
0.0785627
0.069585
0.0618063
0.119884
0.118627
0.115875
0.111459
0.105422
0.0980074
0.0894751
0.0806482
0.0713225
0.063174
0.121867
0.120717
0.118163
0.113917
0.108001
0.10058
0.091927
0.0828503
0.0731789
0.0646447
0.123832
0.122799
0.120461
0.116409
0.110643
0.103242
0.094493
0.0851747
0.0751626
0.0662264
0.125778
0.124869
0.122765
0.118933
0.113347
0.105995
0.0971765
0.0876272
0.0772825
0.0679276
0.127702
0.126925
0.125073
0.121484
0.116111
0.108838
0.0999809
0.0902134
0.0795477
0.069757
0.129601
0.128963
0.12738
0.124061
0.118933
0.111772
0.102909
0.0929389
0.0819674
0.0717235
0.131472
0.130981
0.129684
0.126659
0.12181
0.114797
0.105963
0.0958089
0.084551
0.0738365
0.133315
0.132978
0.131981
0.129276
0.12474
0.11791
0.109145
0.0988288
0.0873082
0.0761054
0.135126
0.134949
0.134269
0.131908
0.127718
0.121111
0.112457
0.102003
0.0902482
0.0785403
0.136904
0.136893
0.136543
0.134551
0.130742
0.124398
0.115899
0.105337
0.0933804
0.0811509
0.138647
0.138807
0.138802
0.137202
0.133806
0.127768
0.119471
0.108835
0.096714
0.0839477
0.140354
0.14069
0.14104
0.139856
0.136908
0.131219
0.123174
0.112501
0.100258
0.0869409
0.142023
0.142539
0.143256
0.142509
0.140043
0.134747
0.127005
0.116337
0.10402
0.0901412
0.143652
0.144352
0.145447
0.145157
0.143204
0.138348
0.130963
0.120348
0.108007
0.0935591
0.145241
0.146128
0.147609
0.147797
0.146388
0.142017
0.135046
0.124535
0.112228
0.0972053
0.146789
0.147864
0.149739
0.150423
0.149589
0.14575
0.139249
0.1289
0.116688
0.10109
0.148294
0.14956
0.151835
0.153031
0.152801
0.149541
0.143568
0.133446
0.121392
0.105225
0.149755
0.151214
0.153895
0.155618
0.156018
0.153384
0.147997
0.138171
0.126344
0.109621
0.151173
0.152824
0.155915
0.158179
0.159234
0.157271
0.152531
0.143076
0.131547
0.114285
0.152547
0.15439
0.157893
0.16071
0.162444
0.161196
0.157162
0.14816
0.137001
0.119226
0.153877
0.155911
0.159827
0.163208
0.165641
0.165153
0.161884
0.153425
0.142715
0.124466
0.155162
0.157387
0.161717
0.165669
0.168823
0.169138
0.166697
0.158882
0.148709
0.130046
0.156402
0.158815
0.16356
0.168091
0.171982
0.173139
0.171581
0.164506
0.154943
0.135917
0.157594
0.160189
0.165345
0.170454
0.175084
0.177097
0.176436
0.170157
0.161181
0.141661
0.158738
0.161503
0.167054
0.172727
0.178081
0.180947
0.181188
0.175764
0.16737
0.147065
0.15986
0.162818
0.168756
0.174999
0.181149
0.185046
0.186526
0.182496
0.17554
0.155736
0.0404449
0.0399226
0.0393982
0.0388716
0.0383427
0.0378117
0.0372791
0.0367451
0.0362102
0.0356746
0.0351387
0.0346027
0.0340671
0.033532
0.0329977
0.0324647
0.0319331
0.0314032
0.0308753
0.0303497
0.0404699
0.0399473
0.0394226
0.0388956
0.038366
0.037834
0.0373001
0.0367646
0.0362278
0.0356902
0.0351519
0.0346134
0.0340749
0.0335368
0.0329994
0.0324631
0.0319281
0.0313948
0.0308634
0.0303342
0.040517
0.0399907
0.0394627
0.0389323
0.0383991
0.0378633
0.0373254
0.0367858
0.0362448
0.0357028
0.03516
0.0346169
0.0340738
0.033531
0.0329889
0.0324478
0.031908
0.0313699
0.0308338
0.0302999
0.040585
0.0400523
0.0395185
0.0389825
0.0384436
0.0379019
0.037358
0.0368122
0.036265
0.0357167
0.0351675
0.034618
0.0340684
0.0335191
0.0329705
0.0324229
0.0318766
0.0313321
0.0307895
0.0302494
0.0406725
0.0401308
0.0395889
0.0390451
0.0384982
0.0379485
0.0373964
0.0368425
0.0362871
0.0357305
0.0351731
0.0346153
0.0340574
0.0334999
0.0329431
0.0323874
0.031833
0.0312804
0.03073
0.030182
0.0407783
0.0402249
0.0396725
0.0391188
0.038562
0.0380021
0.0374399
0.0368759
0.0363104
0.0357437
0.0351763
0.0346085
0.0340407
0.0334733
0.0329066
0.0323411
0.0317772
0.0312151
0.0306552
0.030098
0.040901
0.0403334
0.0397685
0.0392028
0.038634
0.038062
0.0374878
0.0369118
0.0363343
0.0357558
0.0351765
0.034597
0.0340176
0.0334386
0.0328606
0.0322838
0.0317087
0.0311356
0.0305649
0.029997
0.0410395
0.0404552
0.0398756
0.039296
0.0387132
0.0381272
0.037539
0.0369492
0.036358
0.0357658
0.0351731
0.0345801
0.0339875
0.0333954
0.0328044
0.0322148
0.031627
0.0310415
0.0304585
0.0298785
0.0411926
0.0405891
0.0399928
0.0393974
0.0387987
0.0381968
0.0375928
0.0369873
0.0363806
0.0357731
0.0351651
0.0345572
0.0339496
0.0333429
0.0327373
0.0321334
0.0315315
0.0309321
0.0303354
0.029742
0.0413592
0.0407342
0.0401192
0.039506
0.0388895
0.0382698
0.0376482
0.0370252
0.0364013
0.0357767
0.0351518
0.0345272
0.0339032
0.0332802
0.0326586
0.0320389
0.0314215
0.0308067
0.030195
0.0295867
0.0415383
0.0408893
0.0402536
0.0396208
0.0389846
0.0383453
0.0377042
0.037062
0.0364191
0.0357757
0.0351324
0.0344894
0.0338474
0.0332065
0.0325674
0.0319304
0.0312959
0.0306644
0.0300362
0.0294118
0.0417291
0.0410536
0.0403952
0.0397409
0.0390832
0.0384224
0.03776
0.0370968
0.0364332
0.0357693
0.0351058
0.0344429
0.0337811
0.033121
0.0324628
0.031807
0.031154
0.0305043
0.0298583
0.0292163
0.0419306
0.0412261
0.040543
0.0398655
0.0391844
0.0385001
0.0378146
0.0371287
0.0364425
0.0357565
0.035071
0.0343866
0.0337036
0.0330225
0.0323437
0.0316676
0.0309947
0.0303254
0.0296601
0.0289992
0.042142
0.0414061
0.0406963
0.0399936
0.0392872
0.0385777
0.0378672
0.0371566
0.0364462
0.0357363
0.0350272
0.0343196
0.0336137
0.03291
0.0322091
0.0315112
0.0308169
0.0301265
0.0294406
0.0287594
0.0423628
0.0415928
0.0408543
0.0401245
0.0393908
0.0386541
0.0379168
0.0371798
0.0364433
0.0357077
0.0349733
0.0342407
0.0335103
0.0327825
0.0320578
0.0313366
0.0306194
0.0299065
0.0291985
0.0284956
0.0425922
0.0417855
0.0410163
0.0402574
0.0394945
0.0387286
0.0379626
0.0371972
0.0364329
0.0356698
0.0349083
0.0341491
0.0333925
0.0326389
0.0318888
0.0311427
0.030401
0.0296642
0.0289326
0.0282066
0.0428298
0.0419836
0.0411816
0.0403917
0.0395976
0.0388005
0.0380036
0.0372081
0.0364139
0.0356215
0.0348312
0.0340435
0.033259
0.0324779
0.0317009
0.0309283
0.0301606
0.0293982
0.0286415
0.027891
0.0430753
0.0421867
0.0413497
0.0405268
0.0396993
0.0388688
0.0380392
0.0372115
0.0363856
0.0355619
0.0347409
0.033923
0.0331087
0.0322985
0.0314928
0.030692
0.0298967
0.0291072
0.028324
0.0275475
0.0433284
0.0423945
0.0415201
0.040662
0.039799
0.0389331
0.0380686
0.0372065
0.0363469
0.03549
0.0346363
0.0337863
0.0329405
0.0320993
0.0312632
0.0304326
0.029608
0.0287898
0.0279785
0.0271744
0.0435889
0.0426066
0.0416926
0.0407971
0.0398962
0.0389926
0.038091
0.0371924
0.036297
0.0354048
0.0345165
0.0336325
0.0327532
0.0318792
0.0310109
0.0301487
0.0292931
0.0284446
0.0276035
0.0267703
0.0438569
0.0428228
0.0418667
0.0409315
0.0399903
0.0390466
0.0381056
0.0371685
0.036235
0.0353054
0.0343804
0.0334603
0.0325456
0.0316369
0.0307345
0.0298389
0.0289506
0.02807
0.0271975
0.0263336
0.0441325
0.0430433
0.0420425
0.041065
0.0400811
0.0390948
0.038112
0.0371338
0.03616
0.0351909
0.0342269
0.0332686
0.0323165
0.031371
0.0304326
0.0295017
0.0285789
0.0276644
0.0267588
0.0258625
0.044416
0.043268
0.0422197
0.0411974
0.0401681
0.0391367
0.0381095
0.0370878
0.0360713
0.0350602
0.0340551
0.0330564
0.0320646
0.0310803
0.0301039
0.0291358
0.0281764
0.0272263
0.0262858
0.0253554
0.0447079
0.0434973
0.0423986
0.0413287
0.0402512
0.0391717
0.0380976
0.0370298
0.0359681
0.0349125
0.0338638
0.0328224
0.0317888
0.0307635
0.0297469
0.0287394
0.0277416
0.0267539
0.0257767
0.0248103
0.0450089
0.0437316
0.0425792
0.0414589
0.0403302
0.0391998
0.0380758
0.0369592
0.0358495
0.0347469
0.0336521
0.0325655
0.0314877
0.030419
0.0293601
0.0283112
0.0272729
0.0262455
0.0252296
0.0242255
0.0453199
0.0439715
0.0427621
0.0415881
0.040405
0.0392206
0.0380437
0.0368753
0.0357149
0.0345626
0.033419
0.0322846
0.03116
0.0300457
0.028942
0.0278494
0.0267684
0.0256993
0.0246427
0.0235988
0.0456418
0.0442177
0.0429478
0.0417167