/*--------------------------------*- C++ -*----------------------------------*\
  =========                 |
  \\      /  F ield         | OpenFOAM: The Open Source CFD Toolbox
   \\    /   O peration     | Website:  https://openfoam.org
    \\  /    A nd           | Version:  7
     \\/     M anipulation  |
\*---------------------------------------------------------------------------*/
FoamFile
{
    version     2.0;
    format      ascii;
    class       volScalarField;
    location    "57.000524";
    object      p;
}
// * * * * * * * * * * * * * * * * * * * * * * * * * * * * * * * * * * * * * //

dimensions      [0 2 -2 0 0 0 0];

internalField   nonuniform List<scalar> 
23200
(
-0.287762
-0.291952
-0.294402
-0.295754
-0.296314
-0.296052
-0.294978
-0.293117
-0.290484
-0.287095
-0.282962
-0.278103
-0.272541
-0.266314
-0.259472
-0.252088
-0.244263
-0.236159
-0.227917
-0.219375
-0.288586
-0.292683
-0.295065
-0.296357
-0.296863
-0.296552
-0.295434
-0.293533
-0.290865
-0.287444
-0.283282
-0.278396
-0.272809
-0.266554
-0.259683
-0.252264
-0.244397
-0.236253
-0.227954
-0.219192
-0.290225
-0.294139
-0.296383
-0.297558
-0.297956
-0.297546
-0.29634
-0.29436
-0.291622
-0.288137
-0.283917
-0.278978
-0.273339
-0.267031
-0.260101
-0.252614
-0.244662
-0.236436
-0.228027
-0.218823
-0.292663
-0.296304
-0.298344
-0.299346
-0.299581
-0.299025
-0.297687
-0.295589
-0.292744
-0.289163
-0.284857
-0.279837
-0.27412
-0.267733
-0.260717
-0.253129
-0.245052
-0.236705
-0.228136
-0.21827
-0.295875
-0.29916
-0.300931
-0.301702
-0.301724
-0.300973
-0.299459
-0.297203
-0.294216
-0.290508
-0.286086
-0.280959
-0.275139
-0.268647
-0.261517
-0.253797
-0.245559
-0.237051
-0.228283
-0.217532
-0.299833
-0.302681
-0.30412
-0.304607
-0.304363
-0.30337
-0.301638
-0.299185
-0.296021
-0.292153
-0.287587
-0.282326
-0.276378
-0.269756
-0.262487
-0.254607
-0.246171
-0.237466
-0.228468
-0.216612
-0.304499
-0.306835
-0.307885
-0.308034
-0.307475
-0.306194
-0.304201
-0.301512
-0.298135
-0.294076
-0.289336
-0.283915
-0.277815
-0.271041
-0.263609
-0.255541
-0.246876
-0.237939
-0.22869
-0.215514
-0.309834
-0.311589
-0.312194
-0.311957
-0.311035
-0.309421
-0.307125
-0.304161
-0.300537
-0.296255
-0.291312
-0.285705
-0.279429
-0.272479
-0.264862
-0.256584
-0.247662
-0.238461
-0.22895
-0.214247
-0.315795
-0.316907
-0.317016
-0.316345
-0.315014
-0.313023
-0.310383
-0.307107
-0.303201
-0.298664
-0.293491
-0.287672
-0.281196
-0.274049
-0.266226
-0.257719
-0.248517
-0.23902
-0.229248
-0.212823
-0.322338
-0.32275
-0.322316
-0.321167
-0.319384
-0.316974
-0.313951
-0.310326
-0.306103
-0.301281
-0.295849
-0.289793
-0.283094
-0.27573
-0.267683
-0.258929
-0.249427
-0.239607
-0.229583
-0.211261
-0.329419
-0.329082
-0.32806
-0.326393
-0.324116
-0.321248
-0.317803
-0.313793
-0.309221
-0.304083
-0.298364
-0.292047
-0.285104
-0.277504
-0.269216
-0.2602
-0.250383
-0.240214
-0.229951
-0.209588
-0.336995
-0.335863
-0.334216
-0.331992
-0.329183
-0.325818
-0.321916
-0.317488
-0.312535
-0.307051
-0.30102
-0.294417
-0.287209
-0.279353
-0.270808
-0.261517
-0.251375
-0.240833
-0.230344
-0.207837
-0.345024
-0.343058
-0.340751
-0.337934
-0.334557
-0.330661
-0.326269
-0.321389
-0.316025
-0.310168
-0.303799
-0.296888
-0.289393
-0.281265
-0.272447
-0.262871
-0.252394
-0.241459
-0.23075
-0.206049
-0.353468
-0.350633
-0.347634
-0.344193
-0.340216
-0.335757
-0.330842
-0.325482
-0.319679
-0.313422
-0.30669
-0.299448
-0.291648
-0.283229
-0.274125
-0.264251
-0.253434
-0.242089
-0.231146
-0.204271
-0.362289
-0.358556
-0.354836
-0.350743
-0.346136
-0.341084
-0.335619
-0.329752
-0.323484
-0.316804
-0.309687
-0.302092
-0.293966
-0.28524
-0.275834
-0.265652
-0.254491
-0.242727
-0.231509
-0.20257
-0.371456
-0.366796
-0.36233
-0.357559
-0.352298
-0.346628
-0.340588
-0.334189
-0.327433
-0.320307
-0.312782
-0.304815
-0.296344
-0.287292
-0.27757
-0.267069
-0.255561
-0.243381
-0.231813
-0.201042
-0.380935
-0.375323
-0.370089
-0.36462
-0.358681
-0.352372
-0.345736
-0.338784
-0.331519
-0.323927
-0.315976
-0.307615
-0.298779
-0.289383
-0.27933
-0.268498
-0.256644
-0.244061
-0.23197
-0.199717
-0.390697
-0.38411
-0.378089
-0.371902
-0.365269
-0.358303
-0.351053
-0.343531
-0.33574
-0.327663
-0.319264
-0.31049
-0.301268
-0.291508
-0.281109
-0.26994
-0.257754
-0.244791
-0.231765
-0.198386
-0.400711
-0.393128
-0.386303
-0.379385
-0.372043
-0.364406
-0.356529
-0.348423
-0.34009
-0.331511
-0.322646
-0.313436
-0.303805
-0.29366
-0.2829
-0.271397
-0.258943
-0.245701
-0.231276
-0.19772
-0.410946
-0.402347
-0.394705
-0.387045
-0.378985
-0.370668
-0.362153
-0.353452
-0.344564
-0.335466
-0.326114
-0.316445
-0.306377
-0.295821
-0.28468
-0.272853
-0.260229
-0.246958
-0.231866
-0.204756
-0.421367
-0.411735
-0.403266
-0.394857
-0.386073
-0.37707
-0.367912
-0.358608
-0.349152
-0.339518
-0.329658
-0.3195
-0.308964
-0.297958
-0.286401
-0.274229
-0.261449
-0.248297
-0.234769
-0.226668
-0.431934
-0.421254
-0.411951
-0.402792
-0.393282
-0.383593
-0.373789
-0.363874
-0.35384
-0.343653
-0.333258
-0.322579
-0.311532
-0.300028
-0.287998
-0.275411
-0.262352
-0.249078
-0.235591
-0.231113
-0.442603
-0.430862
-0.420723
-0.410815
-0.400583
-0.390211
-0.37976
-0.36923
-0.358605
-0.347845
-0.336886
-0.325647
-0.314038
-0.301976
-0.289402
-0.276304
-0.262805
-0.249129
-0.235019
-0.230144
-0.45332
-0.440511
-0.429537
-0.418887
-0.407941
-0.396891
-0.385796
-0.374647
-0.363418
-0.352061
-0.340504
-0.328658
-0.316431
-0.303741
-0.29054
-0.276833
-0.262749
-0.248478
-0.233669
-0.227212
-0.464023
-0.450143
-0.438341
-0.42696
-0.415312
-0.403593
-0.391858
-0.380084
-0.368237
-0.356256
-0.34406
-0.331554
-0.318644
-0.305253
-0.291341
-0.276926
-0.262141
-0.247138
-0.231576
-0.223108
-0.474638
-0.45969
-0.447072
-0.434977
-0.422643
-0.410268
-0.397896
-0.385493
-0.373009
-0.360373
-0.347492
-0.334267
-0.320605
-0.306434
-0.291729
-0.276521
-0.260944
-0.245126
-0.228787
-0.218298
-0.48508
-0.469075
-0.455661
-0.442873
-0.429873
-0.416855
-0.403853
-0.390812
-0.37767
-0.364341
-0.350724
-0.336717
-0.322229
-0.307203
-0.291628
-0.275556
-0.259128
-0.242461
-0.225368
-0.213057
-0.495251
-0.47821
-0.464025
-0.450571
-0.436928
-0.423285
-0.409655
-0.395967
-0.38214
-0.368077
-0.353669
-0.338813
-0.323428
-0.307474
-0.290964
-0.273976
-0.256666
-0.239157
-0.221362
-0.207503
-0.505043
-0.486995
-0.472072
-0.457985
-0.443726
-0.429473
-0.41522
-0.400872
-0.386331
-0.371487
-0.356228
-0.340456
-0.324105
-0.30716
-0.289665
-0.27173
-0.253535
-0.235218
-0.216793
-0.201666
-0.514334
-0.49532
-0.479699
-0.465015
-0.450171
-0.435326
-0.420451
-0.405427
-0.390138
-0.374465
-0.358295
-0.341541
-0.324162
-0.306174
-0.287661
-0.268769
-0.249709
-0.230642
-0.21167
-0.195532
-0.522988
-0.503061
-0.48679
-0.471553
-0.456156
-0.440737
-0.42524
-0.409522
-0.393448
-0.376895
-0.359755
-0.34196
-0.3235
-0.304433
-0.284887
-0.265052
-0.245167
-0.225423
-0.205991
-0.189069
-0.530862
-0.510086
-0.493222
-0.477478
-0.461563
-0.445588
-0.429468
-0.413034
-0.396138
-0.378654
-0.360488
-0.341601
-0.322022
-0.301857
-0.281284
-0.260537
-0.239889
-0.219552
-0.199749
-0.182237
-0.537799
-0.516253
-0.498859
-0.48266
-0.466263
-0.449751
-0.433005
-0.415833
-0.398076
-0.379614
-0.360375
-0.340355
-0.319633
-0.298371
-0.276797
-0.255193
-0.233855
-0.213018
-0.192937
-0.174997
-0.543636
-0.52141
-0.503558
-0.486959
-0.470121
-0.453088
-0.435713
-0.41778
-0.399127
-0.379645
-0.359293
-0.338115
-0.316247
-0.293907
-0.271381
-0.248989
-0.227051
-0.205812
-0.185544
-0.167318
-0.548202
-0.525399
-0.507167
-0.490228
-0.472989
-0.455455
-0.437447
-0.418732
-0.39915
-0.378614
-0.357124
-0.33478
-0.311781
-0.288407
-0.264996
-0.241903
-0.219463
-0.197925
-0.177562
-0.159172
-0.551323
-0.528057
-0.509532
-0.492315
-0.474717
-0.4567
-0.438057
-0.418542
-0.398006
-0.376394
-0.353757
-0.330258
-0.306164
-0.281819
-0.257609
-0.233917
-0.211083
-0.189353
-0.168985
-0.150539
-0.552821
-0.529219
-0.510491
-0.493062
-0.475148
-0.45667
-0.437392
-0.417065
-0.395559
-0.372862
-0.349085
-0.324464
-0.299335
-0.274103
-0.249196
-0.225017
-0.201904
-0.18009
-0.159807
-0.141405
-0.552519
-0.528718
-0.509882
-0.49231
-0.474126
-0.455208
-0.435301
-0.414157
-0.391677
-0.367902
-0.343015
-0.317325
-0.291241
-0.265225
-0.239739
-0.215196
-0.191923
-0.170136
-0.150028
-0.13176
-0.550244
-0.526387
-0.507546
-0.489901
-0.471495
-0.452164
-0.431636
-0.409681
-0.386237
-0.361412
-0.335462
-0.30878
-0.281843
-0.255163
-0.229228
-0.204452
-0.181142
-0.159491
-0.139647
-0.121602
-0.545826
-0.522068
-0.503326
-0.48568
-0.467101
-0.447387
-0.426258
-0.403508
-0.379127
-0.353297
-0.326357
-0.298781
-0.271111
-0.243903
-0.217659
-0.192787
-0.169565
-0.148161
-0.128668
-0.110931
-0.539108
-0.515607
-0.49707
-0.479498
-0.4608
-0.440737
-0.419035
-0.39552
-0.370248
-0.343479
-0.315644
-0.287291
-0.259027
-0.231439
-0.205036
-0.180207
-0.157201
-0.136152
-0.117097
-0.0997499
-0.529942
-0.50686
-0.488638
-0.471215
-0.452453
-0.432086
-0.409849
-0.385615
-0.359515
-0.331897
-0.30328
-0.27429
-0.245585
-0.217776
-0.191368
-0.166725
-0.14406
-0.123474
-0.104944
-0.0880677
-0.518194
-0.495698
-0.4779
-0.460704
-0.441939
-0.421317
-0.398595
-0.373706
-0.346862
-0.318504
-0.289241
-0.259769
-0.230789
-0.202926
-0.176671
-0.152358
-0.130158
-0.110142
-0.0922226
-0.0759007
-0.50375
-0.482006
-0.464742
-0.447851
-0.429148
-0.40833
-0.385187
-0.359723
-0.332238
-0.303271
-0.273516
-0.243733
-0.214655
-0.18691
-0.160969
-0.137127
-0.115515
-0.0961712
-0.0789495
-0.0632667
-0.486514
-0.465689
-0.449068
-0.432562
-0.41399
-0.393044
-0.369559
-0.343617
-0.315615
-0.286188
-0.256111
-0.226199
-0.197207
-0.169757
-0.144289
-0.121059
-0.100155
-0.0815838
-0.0651408
-0.0501396
-0.466415
-0.446671
-0.430801
-0.414761
-0.396396
-0.3754
-0.351665
-0.32536
-0.296982
-0.267262
-0.237047
-0.207199
-0.178483
-0.151503
-0.126668
-0.104187
-0.0841061
-0.0664053
-0.0508229
-0.0364636
-0.443404
-0.424902
-0.409887
-0.394395
-0.376317
-0.355361
-0.331482
-0.304946
-0.276351
-0.246518
-0.216362
-0.186775
-0.158526
-0.132194
-0.108146
-0.086546
-0.0674014
-0.0506603
-0.0360225
-0.0225084
-0.41746
-0.400353
-0.386297
-0.371436
-0.353731
-0.332912
-0.309011
-0.282391
-0.253752
-0.224
-0.194106
-0.164985
-0.137394
-0.111882
-0.0887712
-0.06818
-0.0500821
-0.0344034
-0.0207265
-0.00818999
-0.388591
-0.373026
-0.360026
-0.345881
-0.32864
-0.308068
-0.284276
-0.257733
-0.229237
-0.199769
-0.170346
-0.141893
-0.115151
-0.0906266
-0.0685985
-0.04914
-0.0321876
-0.0176495
-0.00501792
0.00649234
-0.356834
-0.342948
-0.3311
-0.317754
-0.301074
-0.280866
-0.257329
-0.231035
-0.202876
-0.173901
-0.145161
-0.11758
-0.0918691
-0.068496
-0.0476883
-0.0294764
-0.0137662
-0.000444943
0.0110689
0.0215019
-0.322255
-0.310177
-0.299571
-0.287109
-0.27109
-0.251371
-0.228242
-0.202379
-0.17476
-0.146491
-0.118644
-0.092132
-0.0676323
-0.0455637
-0.0261068
-0.00924955
0.00512929
0.0171621
0.0274959
0.0367975
-0.284952
-0.2748
-0.26552
-0.254025
-0.238773
-0.219674
-0.197115
-0.171871
-0.144997
-0.117647
-0.090899
-0.0656488
-0.04253
-0.0219116
-0.0039268
0.0114758
0.0244414
0.0351202
0.0442181
0.0523345
-0.245052
-0.236932
-0.229057
-0.218613
-0.204233
-0.185892
-0.164069
-0.139637
-0.113711
-0.0874894
-0.0620438
-0.0382377
-0.0166598
0.00237261
0.0187731
0.0326295
0.0441075
0.0533737
0.0611855
0.0680637
-0.202714
-0.196718
-0.190321
-0.181008
-0.16761
-0.150165
-0.129246
-0.105813
-0.0810481
-0.0561565
-0.0322039
-0.0100146
0.00987342
0.027195
0.0419089
0.054136
0.06406
0.0718627
0.0783428
0.0839292
-0.158127
-0.154329
-0.149479
-0.141377
-0.129068
-0.112654
-0.0928115
-0.0705711
-0.0471607
-0.0237942
-0.00151534
0.0188969
0.0369585
0.0524562
0.0653916
0.0759154
0.0842263
0.0905224
0.095629
0.099868
-0.111496
-0.109971
-0.106724
-0.0999053
-0.0887891
-0.0735535
-0.0549498
-0.0340847
-0.012218
0.00943973
0.0298774
0.0483665
0.0644789
0.078052
0.0891278
0.0978833
0.10453
0.109285
0.112981
0.11581
-0.0630117
-0.0639091
-0.0622744
-0.056809
-0.0469906
-0.0330649
-0.0158609
0.00345369
0.0235986
0.0433783
0.0618226
0.078258
0.0923128
0.103874
0.113021
0.119952
0.124891
0.128085
0.130339
0.131656
-0.0130735
-0.0163035
-0.016369
-0.012326
-0.00390181
0.00858655
0.0242389
0.0418389
0.0600982
0.0778467
0.0941625
0.10843
0.120335
0.12981
0.13697
0.142029
0.14523
0.146866
0.147642
0.147207
0.0381238
0.0325179
0.0307228
0.0332879
0.0402283
0.0511596
0.0651195
0.0808549
0.0970812
0.112663
0.126734
0.138738
0.148416
0.155747
0.160873
0.164023
0.165466
0.165555
0.164721
0.162223
0.0902713
0.0822658
0.0787213
0.0797596
0.0851343
0.0943997
0.10654
0.120277
0.134341
0.147642
0.15937
0.169033
0.176425
0.181567
0.184626
0.185842
0.185517
0.184016
0.181207
0.176656
0.14304
0.132636
0.12733
0.1268
0.130538
0.138041
0.14825
0.159873
0.171667
0.182591
0.191901
0.199164
0.20423
0.207155
0.20813
0.207403
0.205313
0.202135
0.196881
0.19075
0.196093
0.183308
0.176238
0.174108
0.176149
0.181808
0.189992
0.199407
0.208843
0.217319
0.224154
0.22898
0.231695
0.232393
0.231281
0.228624
0.224779
0.219985
0.213211
0.206637
0.249085
0.23395
0.225123
0.221373
0.221671
0.225421
0.231505
0.238638
0.245653
0.25163
0.255958
0.258328
0.258687
0.257159
0.253973
0.249402
0.243808
0.237397
0.229293
0.222018
0.301663
0.284223
0.273657
0.268277
0.266801
0.268594
0.272525
0.277325
0.281878
0.285331
0.28714
0.287056
0.28507
0.281337
0.276098
0.269639
0.262315
0.254303
0.244882
0.236671
0.353469
0.333783
0.321509
0.314502
0.311235
0.311043
0.312788
0.315228
0.317304
0.31823
0.31753
0.315013
0.310711
0.304806
0.297553
0.289241
0.280217
0.270641
0.25992
0.250614
0.404148
0.382288
0.368344
0.359725
0.354668
0.352482
0.352032
0.352111
0.351717
0.350136
0.34696
0.342051
0.335481
0.327453
0.318234
0.308115
0.297433
0.286338
0.274344
0.263869
0.453345
0.429395
0.413832
0.403631
0.3968
0.392632
0.390001
0.387739
0.384908
0.380866
0.375267
0.368026
0.359251
0.349164
0.338041
0.326175
0.313889
0.301324
0.288094
0.276429
0.500713
0.474768
0.457647
0.445906
0.437336
0.431219
0.426444
0.421887
0.416677
0.410239
0.402292
0.392799
0.381899
0.369832
0.356881
0.343336
0.329509
0.315536
0.301114
0.288268
0.545912
0.518081
0.499475
0.486248
0.475991
0.467977
0.461119
0.454337
0.446827
0.438084
0.427883
0.416235
0.403306
0.389351
0.374659
0.359519
0.344225
0.328914
0.313357
0.299355
0.588618
0.559017
0.539008
0.524366
0.51249
0.502653
0.493793
0.484881
0.475175
0.464235
0.451896
0.438206
0.423359
0.407624
0.391291
0.374645
0.357971
0.341401
0.324773
0.309662
0.62852
0.597278
0.575958
0.559981
0.546572
0.535006
0.524249
0.513321
0.501543
0.488539
0.474192
0.458592
0.441952
0.424555
0.406692
0.388645
0.370683
0.352943
0.335318
0.319157
0.665326
0.63258
0.610052
0.592833
0.577992
0.56481
0.552281
0.539474
0.525769
0.510849
0.494645
0.477279
0.458987
0.440058
0.420787
0.401449
0.382305
0.363489
0.344948
0.327807
0.698767
0.664661
0.641034
0.62268
0.606525
0.591857
0.5777
0.563169
0.547702
0.531033
0.513137
0.494165
0.474371
0.454053
0.433504
0.412997
0.39278
0.372991
0.353621
0.335584
0.728593
0.693282
0.668675
0.649301
0.631963
0.615956
0.600334
0.584254
0.567205
0.548969
0.52956
0.509154
0.488022
0.466465
0.444778
0.423231
0.40206
0.381407
0.3613
0.342458
0.754586
0.718228
0.692767
0.6725
0.654122
0.636938
0.620028
0.602589
0.584155
0.56455
0.54382
0.522164
0.499864
0.477229
0.454553
0.432101
0.4101
0.388697
0.36795
0.348403
0.77655
0.739311
0.713128
0.692103
0.672841
0.654655
0.63665
0.618056
0.598447
0.577681
0.555832
0.533119
0.509835
0.486289
0.462778
0.439562
0.416861
0.394827
0.373541
0.353394
0.794322
0.756372
0.729605
0.707964
0.687983
0.668982
0.650085
0.630553
0.60999
0.588283
0.565528
0.54196
0.517877
0.493596
0.46941
0.445577
0.422311
0.399766
0.378046
0.357413
0.807769
0.769283
0.742074
0.719965
0.699437
0.679816
0.660243
0.639999
0.618711
0.596291
0.57285
0.548634
0.523949
0.499111
0.474415
0.450115
0.426422
0.403492
0.381443
0.360441
0.81679
0.777945
0.750439
0.728016
0.70712
0.687082
0.667054
0.64633
0.624557
0.601657
0.577756
0.553105
0.528015
0.502804
0.477766
0.453153
0.429174
0.405986
0.383718
0.362467
0.821318
0.782292
0.754637
0.732057
0.710976
0.690728
0.670471
0.649506
0.627488
0.604348
0.580216
0.555347
0.530054
0.504656
0.479446
0.454676
0.430554
0.407236
0.384857
0.363483
0.821318
0.782292
0.754637
0.732057
0.710976
0.690728
0.670471
0.649506
0.627488
0.604348
0.580216
0.555347
0.530054
0.504656
0.479446
0.454676
0.430554
0.407236
0.384857
0.363483
0.81679
0.777945
0.750439
0.728016
0.70712
0.687082
0.667054
0.64633
0.624557
0.601657
0.577756
0.553105
0.528015
0.502804
0.477766
0.453153
0.429174
0.405986
0.383718
0.362467
0.807769
0.769283
0.742074
0.719965
0.699437
0.679816
0.660243
0.639999
0.618711
0.596291
0.57285
0.548634
0.523949
0.499111
0.474415
0.450115
0.426422
0.403492
0.381443
0.360441
0.794322
0.756372
0.729605
0.707964
0.687983
0.668982
0.650085
0.630553
0.60999
0.588283
0.565528
0.54196
0.517877
0.493596
0.46941
0.445577
0.422311
0.399766
0.378046
0.357413
0.77655
0.739311
0.713128
0.692103
0.672841
0.654655
0.63665
0.618056
0.598447
0.577681
0.555832
0.533119
0.509834
0.486289
0.462778
0.439562
0.416861
0.394827
0.373541
0.353394
0.754586
0.718228
0.692767
0.6725
0.654122
0.636938
0.620028
0.602589
0.584155
0.56455
0.543819
0.522164
0.499864
0.477229
0.454553
0.432101
0.4101
0.388697
0.36795
0.348402
0.728593
0.693282
0.668675
0.649301
0.631963
0.615956
0.600334
0.584254
0.567205
0.548969
0.52956
0.509154
0.488022
0.466465
0.444778
0.423231
0.40206
0.381407
0.3613
0.342458
0.698767
0.664661
0.641034
0.62268
0.606525
0.591857
0.5777
0.563169
0.547702
0.531033
0.513137
0.494165
0.474371
0.454052
0.433504
0.412997
0.39278
0.372991
0.353621
0.335584
0.665326
0.63258
0.610052
0.592833
0.577992
0.56481
0.552281
0.539474
0.525769
0.510849
0.494645
0.477279
0.458987
0.440058
0.420787
0.401449
0.382305
0.363489
0.344948
0.327807
0.62852
0.597278
0.575958
0.559981
0.546572
0.535006
0.524249
0.513321
0.501543
0.488539
0.474192
0.458591
0.441952
0.424555
0.406692
0.388645
0.370683
0.352943
0.335318
0.319157
0.588618
0.559017
0.539008
0.524366
0.51249
0.502653
0.493793
0.484881
0.475175
0.464235
0.451896
0.438206
0.423359
0.407624
0.391291
0.374645
0.357971
0.341401
0.324773
0.309662
0.545912
0.518081
0.499475
0.486248
0.475991
0.467977
0.461119
0.454337
0.446827
0.438084
0.427883
0.416235
0.403305
0.389351
0.374659
0.359518
0.344225
0.328914
0.313356
0.299355
0.500713
0.474768
0.457647
0.445906
0.437336
0.431219
0.426444
0.421887
0.416677
0.410239
0.402292
0.392799
0.381899
0.369832
0.356881
0.343336
0.329509
0.315536
0.301114
0.288267
0.453345
0.429395
0.413831
0.403631
0.3968
0.392632
0.390001
0.387739
0.384908
0.380866
0.375267
0.368026
0.359251
0.349164
0.338041
0.326175
0.313889
0.301324
0.288094
0.276429
0.404148
0.382288
0.368344
0.359725
0.354668
0.352482
0.352032
0.352111
0.351717
0.350136
0.34696
0.342051
0.335481
0.327453
0.318234
0.308115
0.297433
0.286338
0.274344
0.263869
0.353469
0.333783
0.321509
0.314501
0.311235
0.311043
0.312788
0.315228
0.317304
0.31823
0.31753
0.315013
0.310711
0.304806
0.297553
0.289241
0.280217
0.270641
0.25992
0.250613
0.301663
0.284223
0.273657
0.268277
0.266801
0.268594
0.272525
0.277325
0.281878
0.285331
0.28714
0.287056
0.28507
0.281336
0.276098
0.269639
0.262314
0.254303
0.244882
0.236671
0.249085
0.23395
0.225123
0.221372
0.221671
0.225421
0.231505
0.238638
0.245653
0.25163
0.255958
0.258328
0.258687
0.257159
0.253973
0.249402
0.243808
0.237396
0.229292
0.222018
0.196093
0.183308
0.176238
0.174108
0.176149
0.181808
0.189992
0.199407
0.208843
0.217319
0.224154
0.22898
0.231695
0.232392
0.231281
0.228624
0.224779
0.219985
0.213211
0.206637
0.14304
0.132636
0.12733
0.1268
0.130538
0.138041
0.148249
0.159873
0.171667
0.182591
0.1919
0.199164
0.20423
0.207155
0.20813
0.207403
0.205313
0.202135
0.19688
0.19075
0.0902712
0.0822657
0.0787212
0.0797595
0.0851342
0.0943996
0.10654
0.120277
0.134341
0.147642
0.15937
0.169033
0.176425
0.181567
0.184626
0.185841
0.185517
0.184016
0.181207
0.176656
0.0381237
0.0325178
0.0307227
0.0332879
0.0402282
0.0511596
0.0651194
0.0808548
0.0970812
0.112663
0.126734
0.138738
0.148416
0.155747
0.160872
0.164023
0.165466
0.165555
0.164721
0.162223
-0.0130736
-0.0163036
-0.0163691
-0.0123261
-0.0039019
0.00858646
0.0242388
0.0418388
0.0600981
0.0778466
0.0941624
0.10843
0.120335
0.12981
0.13697
0.142029
0.14523
0.146866
0.147642
0.147206
-0.0630118
-0.0639092
-0.0622745
-0.0568091
-0.0469907
-0.033065
-0.0158609
0.00345361
0.0235986
0.0433782
0.0618225
0.0782579
0.0923127
0.103874
0.11302
0.119951
0.124891
0.128084
0.130339
0.131656
-0.111496
-0.109971
-0.106724
-0.0999054
-0.0887892
-0.0735536
-0.0549499
-0.0340848
-0.0122181
0.00943964
0.0298773
0.0483664
0.0644788
0.0780519
0.0891277
0.0978832
0.10453
0.109285
0.112981
0.11581
-0.158127
-0.154329
-0.149479
-0.141377
-0.129068
-0.112654
-0.0928116
-0.0705712
-0.0471607
-0.0237943
-0.00151543
0.0188968
0.0369585
0.0524561
0.0653915
0.0759153
0.0842263
0.0905223
0.0956289
0.0998679
-0.202714
-0.196718
-0.190321
-0.181009
-0.16761
-0.150165
-0.129247
-0.105813
-0.0810482
-0.0561566
-0.032204
-0.0100147
0.00987332
0.0271949
0.0419088
0.054136
0.0640599
0.0718626
0.0783427
0.0839291
-0.245052
-0.236932
-0.229057
-0.218613
-0.204233
-0.185892
-0.164069
-0.139637
-0.113711
-0.0874895
-0.0620439
-0.0382378
-0.0166599
0.00237252
0.018773
0.0326294
0.0441074
0.0533736
0.0611854
0.0680636
-0.284952
-0.2748
-0.26552
-0.254025
-0.238773
-0.219674
-0.197115
-0.171871
-0.144997
-0.117647
-0.0908991
-0.0656489
-0.0425301
-0.0219117
-0.0039269
0.0114757
0.0244413
0.0351201
0.044218
0.0523344
-0.322255
-0.310177
-0.299571
-0.287109
-0.27109
-0.251371
-0.228242
-0.202379
-0.17476
-0.146491
-0.118644
-0.0921321
-0.0676324
-0.0455638
-0.0261069
-0.00924965
0.00512919
0.017162
0.0274958
0.0367974
-0.356834
-0.342948
-0.331101
-0.317754
-0.301074
-0.280866
-0.257329
-0.231035
-0.202876
-0.173901
-0.145161
-0.11758
-0.0918692
-0.0684961
-0.0476884
-0.0294765
-0.0137663
-0.000445045
0.0110688
0.0215018
-0.388592
-0.373026
-0.360026
-0.345881
-0.32864
-0.308068
-0.284276
-0.257733
-0.229237
-0.199769
-0.170346
-0.141893
-0.115151
-0.0906267
-0.0685986
-0.0491401
-0.0321877
-0.0176496
-0.00501802
0.00649224
-0.41746
-0.400353
-0.386297
-0.371436
-0.353731
-0.332912
-0.309011
-0.282391
-0.253752
-0.224
-0.194106
-0.164985
-0.137394
-0.111882
-0.0887713
-0.0681801
-0.0500822
-0.0344035
-0.0207266
-0.00819009
-0.443404
-0.424902
-0.409887
-0.394395
-0.376317
-0.355361
-0.331482
-0.304946
-0.276351
-0.246518
-0.216362
-0.186775
-0.158526
-0.132194
-0.108146
-0.0865461
-0.0674015
-0.0506604
-0.0360226
-0.0225085
-0.466415
-0.446672
-0.430801
-0.414761
-0.396396
-0.3754
-0.351665
-0.32536
-0.296982
-0.267262
-0.237048
-0.207199
-0.178483
-0.151503
-0.126668
-0.104187
-0.0841062
-0.0664055
-0.050823
-0.0364638
-0.486515
-0.465689
-0.449068
-0.432562
-0.413991
-0.393045
-0.36956
-0.343617
-0.315615
-0.286188
-0.256111
-0.226199
-0.197207
-0.169757
-0.144289
-0.121059
-0.100155
-0.0815839
-0.0651409
-0.0501397
-0.50375
-0.482006
-0.464742
-0.447851
-0.429148
-0.40833
-0.385188
-0.359723
-0.332238
-0.303271
-0.273516
-0.243733
-0.214655
-0.18691
-0.160969
-0.137127
-0.115515
-0.0961713
-0.0789496
-0.0632668
-0.518194
-0.495698
-0.4779
-0.460704
-0.441939
-0.421317
-0.398595
-0.373706
-0.346862
-0.318504
-0.289241
-0.259769
-0.23079
-0.202926
-0.176672
-0.152358
-0.130158
-0.110142
-0.0922227
-0.0759008
-0.529942
-0.50686
-0.488638
-0.471215
-0.452454
-0.432086
-0.409849
-0.385615
-0.359515
-0.331897
-0.30328
-0.274291
-0.245585
-0.217776
-0.191368
-0.166725
-0.14406
-0.123474
-0.104944
-0.0880678
-0.539108
-0.515607
-0.49707
-0.479498
-0.4608
-0.440738
-0.419035
-0.39552
-0.370248
-0.343479
-0.315644
-0.287291
-0.259027
-0.231439
-0.205036
-0.180207
-0.157201
-0.136152
-0.117097
-0.09975
-0.545826
-0.522068
-0.503326
-0.48568
-0.467101
-0.447387
-0.426258
-0.403508
-0.379128
-0.353297
-0.326357
-0.298781
-0.271111
-0.243903
-0.217659
-0.192787
-0.169566
-0.148161
-0.128668
-0.110931
-0.550244
-0.526387
-0.507546
-0.489902
-0.471495
-0.452164
-0.431636
-0.409681
-0.386237
-0.361412
-0.335462
-0.30878
-0.281843
-0.255163
-0.229228
-0.204452
-0.181142
-0.159491
-0.139647
-0.121602
-0.552519
-0.528718
-0.509882
-0.492311
-0.474126
-0.455209
-0.435301
-0.414157
-0.391677
-0.367902
-0.343015
-0.317325
-0.291241
-0.265225
-0.239739
-0.215196
-0.191923
-0.170136
-0.150028
-0.13176
-0.552821
-0.529219
-0.510491
-0.493062
-0.475148
-0.45667
-0.437392
-0.417065
-0.395559
-0.372862
-0.349085
-0.324464
-0.299335
-0.274103
-0.249196
-0.225017
-0.201904
-0.18009
-0.159807
-0.141405
-0.551323
-0.528058
-0.509532
-0.492315
-0.474717
-0.4567
-0.438057
-0.418542
-0.398006
-0.376394
-0.353757
-0.330258
-0.306164
-0.28182
-0.257609
-0.233917
-0.211083
-0.189353
-0.168985
-0.150539
-0.548202
-0.525399
-0.507167
-0.490228
-0.472989
-0.455455
-0.437447
-0.418732
-0.39915
-0.378614
-0.357124
-0.334781
-0.311781
-0.288407
-0.264996
-0.241903
-0.219463
-0.197926
-0.177562
-0.159172
-0.543636
-0.52141
-0.503558
-0.486959
-0.470121
-0.453088
-0.435713
-0.41778
-0.399127
-0.379645
-0.359293
-0.338115
-0.316247
-0.293907
-0.271381
-0.248989
-0.227051
-0.205812
-0.185544
-0.167318
-0.537799
-0.516253
-0.498859
-0.48266
-0.466264
-0.449751
-0.433005
-0.415833
-0.398076
-0.379614
-0.360375
-0.340355
-0.319634
-0.298371
-0.276797
-0.255193
-0.233856
-0.213018
-0.192937
-0.174998
-0.530862
-0.510086
-0.493222
-0.477478
-0.461563
-0.445588
-0.429468
-0.413034
-0.396138
-0.378654
-0.360489
-0.341601
-0.322022
-0.301857
-0.281284
-0.260537
-0.239889
-0.219552
-0.199749
-0.182237
-0.522988
-0.503061
-0.48679
-0.471553
-0.456156
-0.440737
-0.42524
-0.409522
-0.393448
-0.376895
-0.359755
-0.34196
-0.323501
-0.304433
-0.284887
-0.265052
-0.245168
-0.225423
-0.205991
-0.189069
-0.514334
-0.49532
-0.479699
-0.465015
-0.450171
-0.435326
-0.420451
-0.405427
-0.390138
-0.374465
-0.358295
-0.341542
-0.324162
-0.306174
-0.287661
-0.26877
-0.249709
-0.230642
-0.21167
-0.195533
-0.505044
-0.486995
-0.472072
-0.457985
-0.443726
-0.429473
-0.41522
-0.400872
-0.386331
-0.371487
-0.356228
-0.340456
-0.324105
-0.30716
-0.289665
-0.27173
-0.253535
-0.235218
-0.216793
-0.201666
-0.495251
-0.47821
-0.464025
-0.450571
-0.436929
-0.423285
-0.409655
-0.395967
-0.382141
-0.368077
-0.353669
-0.338813
-0.323428
-0.307474
-0.290964
-0.273976
-0.256667
-0.239157
-0.221362
-0.207503
-0.48508
-0.469075
-0.455661
-0.442873
-0.429873
-0.416855
-0.403853
-0.390812
-0.37767
-0.364341
-0.350724
-0.336717
-0.322229
-0.307203
-0.291628
-0.275556
-0.259128
-0.242461
-0.225368
-0.213057
-0.474638
-0.45969
-0.447072
-0.434977
-0.422643
-0.410268
-0.397896
-0.385493
-0.373009
-0.360373
-0.347492
-0.334267
-0.320605
-0.306434
-0.291729
-0.276521
-0.260944
-0.245126
-0.228787
-0.218298
-0.464023
-0.450143
-0.438341
-0.42696
-0.415312
-0.403593
-0.391858
-0.380084
-0.368237
-0.356256
-0.34406
-0.331554
-0.318644
-0.305253
-0.291341
-0.276926
-0.262141
-0.247139
-0.231576
-0.223108
-0.453321
-0.440511
-0.429537
-0.418887
-0.407941
-0.396891
-0.385796
-0.374647
-0.363418
-0.352061
-0.340504
-0.328658
-0.316431
-0.303742
-0.29054
-0.276833
-0.262749
-0.248478
-0.233669
-0.227212
-0.442603
-0.430862
-0.420723
-0.410815
-0.400583
-0.390211
-0.37976
-0.36923
-0.358605
-0.347845
-0.336886
-0.325647
-0.314038
-0.301977
-0.289402
-0.276304
-0.262805
-0.249129
-0.235019
-0.230145
-0.431934
-0.421254
-0.411951
-0.402792
-0.393282
-0.383593
-0.373789
-0.363874
-0.35384
-0.343653
-0.333258
-0.322579
-0.311532
-0.300028
-0.287998
-0.275411
-0.262352
-0.249078
-0.235591
-0.231113
-0.421367
-0.411735
-0.403266
-0.394857
-0.386073
-0.37707
-0.367912
-0.358608
-0.349152
-0.339518
-0.329658
-0.319501
-0.308964
-0.297958
-0.286401
-0.274229
-0.261449
-0.248297
-0.234769
-0.226668
-0.410946
-0.402347
-0.394705
-0.387045
-0.378985
-0.370668
-0.362153
-0.353452
-0.344564
-0.335466
-0.326114
-0.316445
-0.306377
-0.295821
-0.28468
-0.272853
-0.26023
-0.246958
-0.231866
-0.204756
-0.400711
-0.393128
-0.386303
-0.379385
-0.372043
-0.364407
-0.356529
-0.348423
-0.34009
-0.331511
-0.322646
-0.313436
-0.303805
-0.29366
-0.2829
-0.271398
-0.258943
-0.245701
-0.231276
-0.19772
-0.390697
-0.38411
-0.378089
-0.371902
-0.365269
-0.358303
-0.351053
-0.343531
-0.33574
-0.327663
-0.319264
-0.31049
-0.301268
-0.291509
-0.281109
-0.26994
-0.257754
-0.244791
-0.231765
-0.198386
-0.380935
-0.375323
-0.370089
-0.36462
-0.358681
-0.352372
-0.345736
-0.338784
-0.331519
-0.323927
-0.315976
-0.307615
-0.298779
-0.289383
-0.27933
-0.268498
-0.256644
-0.244061
-0.231971
-0.199717
-0.371456
-0.366796
-0.36233
-0.357559
-0.352298
-0.346628
-0.340588
-0.334189
-0.327433
-0.320307
-0.312782
-0.304815
-0.296344
-0.287292
-0.27757
-0.267069
-0.255561
-0.243381
-0.231813
-0.201042
-0.36229
-0.358556
-0.354836
-0.350743
-0.346136
-0.341085
-0.335619
-0.329752
-0.323484
-0.316804
-0.309687
-0.302092
-0.293966
-0.28524
-0.275834
-0.265652
-0.254491
-0.242727
-0.231509
-0.20257
-0.353468
-0.350633
-0.347634
-0.344193
-0.340216
-0.335757
-0.330842
-0.325482
-0.319679
-0.313422
-0.30669
-0.299448
-0.291648
-0.283229
-0.274125
-0.264251
-0.253435
-0.242089
-0.231146
-0.204271
-0.345024
-0.343058
-0.340751
-0.337934
-0.334557
-0.330661
-0.326269
-0.321389
-0.316025
-0.310168
-0.303799
-0.296888
-0.289393
-0.281265
-0.272447
-0.262871
-0.252394
-0.241459
-0.23075
-0.206049
-0.336995
-0.335863
-0.334217
-0.331992
-0.329183
-0.325818
-0.321916
-0.317488
-0.312535
-0.307051
-0.30102
-0.294417
-0.287209
-0.279353
-0.270808
-0.261517
-0.251375
-0.240833
-0.230344
-0.207837
-0.329419
-0.329082
-0.32806
-0.326393
-0.324116
-0.321248
-0.317803
-0.313793
-0.309221
-0.304083
-0.298364
-0.292047
-0.285104
-0.277504
-0.269216
-0.2602
-0.250383
-0.240214
-0.229951
-0.209588
-0.322338
-0.32275
-0.322316
-0.321167
-0.319384
-0.316974
-0.313951
-0.310326
-0.306103
-0.301281
-0.295849
-0.289793
-0.283094
-0.275731
-0.267683
-0.25893
-0.249427
-0.239607
-0.229583
-0.211261
-0.315795
-0.316907
-0.317016
-0.316345
-0.315014
-0.313023
-0.310383
-0.307107
-0.303201
-0.298664
-0.293491
-0.287672
-0.281196
-0.274049