/*--------------------------------*- C++ -*----------------------------------*\
  =========                 |
  \\      /  F ield         | OpenFOAM: The Open Source CFD Toolbox
   \\    /   O peration     | Website:  https://openfoam.org
    \\  /    A nd           | Version:  7
     \\/     M anipulation  |
\*---------------------------------------------------------------------------*/
FoamFile
{
    version     2.0;
    format      ascii;
    class       volScalarField;
    location    "1.8";
    object      p;
}
// * * * * * * * * * * * * * * * * * * * * * * * * * * * * * * * * * * * * * //

dimensions      [0 2 -2 0 0 0 0];

internalField   nonuniform List<scalar> 
344
(
0.256272
0.262822
0.269449
0.276055
0.28253
0.288756
0.294607
0.299953
0.304667
0.308624
0.311718
0.313866
0.315016
0.315156
0.314306
0.312524
0.309892
0.306506
0.302472
0.297891
0.292856
0.28745
0.281745
0.275798
0.269657
0.263361
0.256941
0.250423
0.243825
0.237164
0.230453
0.223703
0.21692
0.210113
0.203285
0.196442
0.189587
0.182722
0.175849
0.168971
0.162088
0.155201
0.148311
0.141419
0.134526
0.127631
0.120735
0.113838
0.10694
0.100042
0.093144
0.0862453
0.0793463
0.0724472
0.0655478
0.0586484
0.0517488
0.0448491
0.0379493
0.0310495
0.0241496
0.0172496
0.0103497
0.00344953
0.23104
0.236503
0.242336
0.248482
0.254877
0.261442
0.26809
0.27472
0.281225
0.287484
0.293374
0.298764
0.303526
0.307539
0.310696
0.312918
0.314153
0.314386
0.313639
0.311964
0.309439
0.306157
0.302217
0.297718
0.292752
0.287401
0.281736
0.275818
0.269697
0.263412
0.256997
0.250479
0.243879
0.237215
0.230499
0.223742
0.216955
0.210142
0.20331
0.196463
0.189604
0.182736
0.175861
0.16898
0.162095
0.155207
0.148316
0.141423
0.134529
0.127633
0.120737
0.113839
0.106942
0.100043
0.0931447
0.0862459
0.0793468
0.0724475
0.0655481
0.0586486
0.051749
0.0448493
0.0379495
0.0310496
0.0241497
0.0172497
0.0103498
0.00344957
0.229793
0.235262
0.241107
0.247271
0.253687
0.260277
0.266951
0.27361
0.280144
0.286434
0.292354
0.297773
0.302566
0.306611
0.309808
0.312076
0.313367
0.313668
0.312999
0.31141
0.308975
0.305782
0.301926
0.297503
0.292602
0.287305
0.281683
0.275797
0.269698
0.263428
0.257022
0.250509
0.243911
0.237245
0.230528
0.223769
0.216978
0.210162
0.203327
0.196477
0.189616
0.182746
0.175869
0.168987
0.1621
0.155211
0.148319
0.141426
0.134531
0.127635
0.120738
0.11384
0.106942
0.100044
0.0931452
0.0862463
0.0793471
0.0724478
0.0655484
0.0586488
0.0517492
0.0448494
0.0379496
0.0310497
0.0241498
0.0172498
0.0103498
0.00344962
0.228853
0.234345
0.240217
0.246409
0.252855
0.259474
0.266176
0.27286
0.279414
0.285717
0.291644
0.297065
0.301854
0.305896
0.309092
0.311367
0.312677
0.31301
0.312388
0.310857
0.30849
0.305368
0.301584
0.297229
0.292389
0.287144
0.281566
0.275715
0.269643
0.263394
0.257003
0.2505
0.243909
0.237248
0.230533
0.223775
0.216985
0.210169
0.203333
0.196483
0.189621
0.18275
0.175872
0.168989
0.162102
0.155213
0.148321
0.141427
0.134532
0.127635
0.120738
0.113841
0.106943
0.100044
0.0931454
0.0862464
0.0793472
0.0724479
0.0655484
0.0586489
0.0517492
0.0448495
0.0379497
0.0310498
0.0241499
0.0172499
0.0103499
0.00344968
0.228363
0.233893
0.239801
0.246029
0.252507
0.259151
0.265871
0.272563
0.279112
0.285398
0.291294
0.296673
0.301413
0.305403
0.308549
0.310784
0.312069
0.312396
0.311785
0.310285
0.307961
0.304893
0.301168
0.296873
0.29209
0.286899
0.281367
0.275556
0.269518
0.263296
0.256928
0.250442
0.243864
0.237214
0.230507
0.223755
0.21697
0.210157
0.203324
0.196476
0.189615
0.182746
0.175869
0.168987
0.1621
0.155211
0.148319
0.141426
0.134531
0.127635
0.120738
0.11384
0.106942
0.100044
0.093145
0.0862461
0.079347
0.0724477
0.0655483
0.0586488
0.0517492
0.0448495
0.0379497
0.0310499
0.0241499
0.01725
0.0103499
0.00344974
0.228436
0.234012
0.239961
0.246222
0.252721
0.259375
0.266088
0.272754
)
;

boundaryField
{
    inlet
    {
        type            zeroGradient;
    }
    outlet
    {
        type            fixedValue;
        value           uniform 0;
    }
    wall
    {
        type            zeroGradient;
    }
    wedge1
    {
        type            wedge;
    }
    wedge2
    {
        type            wedge;
    }
    axis
    {
        type            empty;
    }
    procBoundary11to5
    {
        type            processor;
        value           nonuniform List<scalar> 
69
(
0.257713
0.264258
0.270873
0.277461
0.283913
0.290109
0.295922
0.301224
0.305883
0.309776
0.312795
0.314856
0.315909
0.31594
0.314976
0.313076
0.310327
0.306833
0.3027
0.298034
0.29293
0.287471
0.281726
0.275752
0.269595
0.263291
0.256869
0.250352
0.243759
0.237104
0.2304
0.223657
0.216881
0.210079
0.203258
0.196419
0.189568
0.182707
0.175837
0.168961
0.16208
0.155194
0.148306
0.141415
0.134522
0.127628
0.120733
0.113836
0.106939
0.100041
0.0931432
0.0862447
0.0793458
0.0724467
0.0655475
0.0586481
0.0517485
0.0448489
0.0379492
0.0310493
0.0241495
0.0172495
0.0103496
0.00344949
0.232443
0.237912
0.243745
0.249887
0.249887
)
;
    }
    procBoundary11to10
    {
        type            processor;
        value           nonuniform List<scalar> 4(0.225993 0.224744 0.223786 0.22326);
    }
    procBoundary11to16
    {
        type            processor;
        value           nonuniform List<scalar> 2(0.223283 0.229134);
    }
    procBoundary11to17
    {
        type            processor;
        value           nonuniform List<scalar> 
68
(
0.279259
0.285481
0.291295
0.296578
0.301212
0.305095
0.30814
0.310287
0.311504
0.311787
0.311157
0.30966
0.307359
0.304331
0.300655
0.296414
0.291688
0.286551
0.281071
0.275307
0.26931
0.263124
0.256786
0.250326
0.24377
0.237137
0.230445
0.223705
0.216929
0.210125
0.203298
0.196455
0.189598
0.182732
0.175858
0.168977
0.162093
0.155205
0.148314
0.141422
0.134527
0.127632
0.120735
0.113838
0.106941
0.100043
0.0931441
0.0862453
0.0793463
0.0724472
0.0655479
0.0586485
0.0517489
0.0448493
0.0379496
0.0310498
0.0241499
0.01725
0.01035
0.0034498
0.234755
0.240737
0.247014
0.253511
0.260142
0.266807
0.279259
0.273401
)
;
    }
}


// ************************************************************************* //
