/*--------------------------------*- C++ -*----------------------------------*\
  =========                 |
  \\      /  F ield         | OpenFOAM: The Open Source CFD Toolbox
   \\    /   O peration     | Website:  https://openfoam.org
    \\  /    A nd           | Version:  7
     \\/     M anipulation  |
\*---------------------------------------------------------------------------*/
FoamFile
{
    version     2.0;
    format      ascii;
    class       volVectorField;
    location    "1";
    object      U;
}
// * * * * * * * * * * * * * * * * * * * * * * * * * * * * * * * * * * * * * //

dimensions      [0 1 -1 0 0 0 0];

internalField   nonuniform List<vector> 
346
(
(0.354893 -8.21901e-07 -1.28081e-15)
(0.354892 -9.46098e-07 -1.21487e-15)
(0.354891 -1.09173e-06 -1.40294e-15)
(0.35489 -1.26225e-06 -1.39649e-15)
(0.354889 -1.4617e-06 -1.56219e-15)
(0.354888 -1.69486e-06 -1.499e-15)
(0.354886 -1.96722e-06 -1.67895e-15)
(0.354884 -2.28552e-06 -1.67143e-15)
(0.354882 -2.65679e-06 -1.81014e-15)
(0.354879 -3.09071e-06 -1.73938e-15)
(0.354876 -3.59215e-06 -1.9041e-15)
(0.293016 -9.59489e-05 3.38537e-15)
(0.292927 -7.41288e-05 3.01865e-15)
(0.29286 -5.52191e-05 3.06115e-15)
(0.292814 -3.90603e-05 2.84663e-15)
(0.292783 -2.54656e-05 3.14918e-15)
(0.292767 -1.42265e-05 2.66096e-15)
(0.292761 -5.12049e-06 2.72881e-15)
(0.292764 2.08194e-06 2.53024e-15)
(0.292774 7.61134e-06 2.86597e-15)
(0.292789 1.16933e-05 2.40656e-15)
(0.292807 1.45435e-05 2.46265e-15)
(0.292827 1.63644e-05 2.31728e-15)
(0.292848 1.73424e-05 2.71456e-15)
(0.29287 1.76454e-05 2.5019e-15)
(0.292891 1.74229e-05 2.74428e-15)
(0.292911 1.68046e-05 2.84471e-15)
(0.292931 1.59018e-05 2.92921e-15)
(0.292949 1.48076e-05 2.97993e-15)
(0.292965 1.35986e-05 3.07997e-15)
(0.29298 1.23363e-05 3.11262e-15)
(0.292993 1.10686e-05 3.16506e-15)
(0.293005 9.83196e-06 3.20956e-15)
(0.293016 8.65266e-06 3.23421e-15)
(0.293025 7.54878e-06 3.23735e-15)
(0.293033 6.53152e-06 3.17324e-15)
(0.293039 5.60668e-06 2.871e-15)
(0.293045 4.77581e-06 2.47198e-15)
(0.29305 4.03727e-06 2.51611e-15)
(0.293054 3.38712e-06 2.30928e-15)
(0.293057 2.81987e-06 2.57797e-15)
(0.29306 2.32901e-06 2.1272e-15)
(0.293063 1.90754e-06 2.14938e-15)
(0.293064 1.54827e-06 1.85185e-15)
(0.293066 1.24415e-06 1.41555e-15)
(0.293067 9.88398e-07 1.29609e-15)
(0.293068 7.74636e-07 9.81542e-16)
(0.293069 5.96969e-07 9.89256e-16)
(0.293069 4.50005e-07 6.77446e-16)
(0.29307 3.28938e-07 6.0532e-16)
(0.29307 2.29508e-07 3.38488e-16)
(0.29307 1.47927e-07 3.72001e-16)
(0.29307 8.08633e-08 8.40406e-17)
(0.29307 2.54615e-08 8.59045e-17)
(0.29307 -2.07904e-08 -1.33678e-16)
(0.29307 -6.012e-08 3.49931e-17)
(0.29307 -9.45947e-08 -3.96554e-18)
(0.29307 -1.26023e-07 -3.16428e-16)
(0.29307 -1.5589e-07 -3.22061e-16)
(0.29307 -1.85544e-07 -5.49631e-16)
(0.293069 -2.16092e-07 -4.51254e-16)
(0.293069 -2.48565e-07 -7.04427e-16)
(0.293069 -2.84508e-07 -6.83003e-16)
(0.293069 -3.25317e-07 -8.82211e-16)
(0.293068 -3.72071e-07 -8.05757e-16)
(0.293068 -4.2629e-07 -1.00406e-15)
(0.293067 -4.8985e-07 -9.69151e-16)
(0.293067 -5.63113e-07 -1.14093e-15)
(0.293066 -6.47832e-07 -1.01761e-15)
(0.293065 -7.47406e-07 -1.24254e-15)
(0.293064 -8.64056e-07 -1.19962e-15)
(0.293063 -1.00054e-06 -1.35996e-15)
(0.293062 -1.16014e-06 -1.26652e-15)
(0.29306 -1.3466e-06 -1.45512e-15)
(0.293059 -1.5646e-06 -1.41679e-15)
(0.293057 -1.81889e-06 -1.56297e-15)
(0.293054 -2.11615e-06 -1.46269e-15)
(0.293052 -2.45952e-06 -1.63737e-15)
(0.22994 -6.12792e-05 2.62798e-15)
(0.229864 -4.76961e-05 2.35637e-15)
(0.229807 -3.58838e-05 2.31298e-15)
(0.229766 -2.57513e-05 2.31009e-15)
(0.229738 -1.71905e-05 2.53772e-15)
(0.229722 -1.00793e-05 2.12344e-15)
(0.229716 -4.28584e-06 2.04526e-15)
(0.229716 3.26704e-07 2.06577e-15)
(0.229723 3.89745e-06 2.29e-15)
(0.229734 6.56245e-06 1.92248e-15)
(0.229747 8.45326e-06 1.84758e-15)
(0.229763 9.69383e-06 1.87786e-15)
(0.22978 1.03988e-05 2.21256e-15)
(0.229797 1.06723e-05 2.12649e-15)
(0.229814 1.0607e-05 2.11898e-15)
(0.22983 1.02843e-05 2.20093e-15)
(0.229846 9.77404e-06 2.2447e-15)
(0.22986 9.13504e-06 2.29422e-15)
(0.229874 8.41603e-06 2.35664e-15)
(0.229886 7.65633e-06 2.39141e-15)
(0.229897 6.88693e-06 2.4346e-15)
(0.229907 6.13146e-06 2.46303e-15)
(0.229915 5.4073e-06 2.48772e-15)
(0.229923 4.72655e-06 2.47647e-15)
(0.22993 4.09695e-06 2.41758e-15)
(0.229935 3.52277e-06 2.20544e-15)
(0.22994 3.0055e-06 1.95029e-15)
(0.229944 2.54458e-06 1.88159e-15)
(0.229947 2.13794e-06 1.86605e-15)
(0.22995 1.78244e-06 2.07554e-15)
(0.229953 1.47427e-06 1.69751e-15)
(0.229955 1.20921e-06 1.59711e-15)
(0.229956 9.82925e-07 1.59297e-15)
(0.229957 7.91083e-07 1.12201e-15)
(0.229958 6.29537e-07 1.1092e-15)
(0.229959 4.94343e-07 7.61062e-16)
(0.22996 3.81857e-07 9.04308e-16)
(0.22996 2.8871e-07 5.23251e-16)
(0.229961 2.11913e-07 5.73438e-16)
(0.229961 1.48799e-07 2.7705e-16)
(0.229961 9.69923e-08 4.44721e-16)
(0.229961 5.43952e-08 6.7734e-17)
(0.229961 1.9216e-08 1.57048e-16)
(0.229961 -1.01149e-08 -1.18189e-16)
(0.229961 -3.50004e-08 1.54289e-17)
(0.229961 -5.67677e-08 1.49321e-16)
(0.229961 -7.65527e-08 -2.27736e-16)
(0.229961 -9.52685e-08 -1.50992e-16)
(0.229961 -1.13768e-07 -4.15303e-16)
(0.22996 -1.32723e-07 -2.13827e-16)
(0.22996 -1.52795e-07 -5.29361e-16)
(0.22996 -1.75003e-07 -4.32621e-16)
(0.22996 -2.00189e-07 -6.65864e-16)
(0.229959 -2.29021e-07 -4.64098e-16)
(0.229959 -2.62473e-07 -7.70874e-16)
(0.229959 -3.01696e-07 -6.56228e-16)
(0.229958 -3.46677e-07 -8.70214e-16)
(0.229957 -3.98617e-07 -6.47382e-16)
(0.229957 -4.59833e-07 -9.54192e-16)
(0.229956 -5.31553e-07 -8.2613e-16)
(0.229955 -6.1548e-07 -1.05369e-15)
(0.229954 -7.1365e-07 -8.33802e-16)
(0.229953 -8.28364e-07 -1.11708e-15)
(0.229952 -9.62532e-07 -1.00277e-15)
(0.22995 -1.11906e-06 -1.20281e-15)
(0.229948 -1.30214e-06 -9.88177e-16)
(0.229946 -1.51351e-06 -1.25233e-15)
(0.165648 -3.28781e-05 1.86504e-15)
(0.165588 -2.58079e-05 1.68587e-15)
(0.165542 -1.96338e-05 1.55897e-15)
(0.165508 -1.43136e-05 1.74118e-15)
(0.165485 -9.7963e-06 1.82766e-15)
(0.165471 -6.02299e-06 1.54631e-15)
(0.165464 -2.92935e-06 1.37434e-15)
(0.165463 -4.47766e-07 1.5709e-15)
(0.165466 1.49125e-06 1.65601e-15)
(0.165473 2.95601e-06 1.38938e-15)
(0.165482 4.01319e-06 1.23062e-15)
(0.165493 4.72604e-06 1.44327e-15)
(0.165505 5.15345e-06 1.59991e-15)
(0.165518 5.3492e-06 1.57688e-15)
(0.16553 5.36155e-06 1.51674e-15)
(0.165542 5.233e-06 1.55119e-15)
(0.165554 5.00031e-06 1.58635e-15)
(0.165565 4.6947e-06 1.61897e-15)
(0.165575 4.34212e-06 1.66999e-15)
(0.165584 3.96371e-06 1.69121e-15)
(0.165592 3.57626e-06 1.71669e-15)
(0.1656 3.19269e-06 1.74042e-15)
(0.165607 2.82264e-06 1.76884e-15)
(0.165612 2.47294e-06 1.759e-15)
(0.165617 2.14808e-06 1.70324e-15)
(0.165622 1.8507e-06 1.55106e-15)
(0.165625 1.58191e-06 1.3754e-15)
(0.165628 1.34171e-06 1.25138e-15)
(0.165631 1.12923e-06 1.41911e-15)
(0.165633 9.43045e-07 1.49639e-15)
(0.165635 7.81296e-07 1.22909e-15)
(0.165637 6.41906e-07 1.06959e-15)
(0.165638 5.22685e-07 1.22976e-15)
(0.165639 4.21443e-07 7.59657e-16)
(0.16564 3.36054e-07 8.06353e-16)
(0.16564 2.6449e-07 4.97033e-16)
(0.165641 2.0487e-07 7.4658e-16)
(0.165641 1.5544e-07 3.40839e-16)
(0.165641 1.14646e-07 4.23813e-16)
(0.165642 8.10928e-08 1.58363e-16)
(0.165642 5.35389e-08 4.06658e-16)
(0.165642 3.08792e-08 1.16494e-17)
(0.165642 1.21763e-08 1.41894e-16)
(0.165642 -3.39744e-09 -1.37292e-16)
(0.165642 -1.65767e-08 1.07024e-17)
(0.165642 -2.80677e-08 2.11207e-16)
(0.165642 -3.84689e-08 -1.98992e-16)
(0.165642 -4.82584e-08 -8.64707e-17)
(0.165641 -5.78802e-08 -3.2774e-16)
(0.165641 -6.76765e-08 -5.68447e-17)
(0.165641 -7.79993e-08 -4.28566e-16)
(0.165641 -8.94023e-08 -2.96232e-16)
(0.165641 -1.02319e-07 -5.13608e-16)
(0.16564 -1.17083e-07 -2.30365e-16)
(0.16564 -1.34217e-07 -5.83762e-16)
(0.16564 -1.54298e-07 -4.49947e-16)
(0.16564 -1.77191e-07 -6.63395e-16)
(0.165639 -2.03645e-07 -3.74515e-16)
(0.165639 -2.34926e-07 -7.14489e-16)
(0.165638 -2.71537e-07 -5.64111e-16)
(0.165637 -3.14388e-07 -7.8568e-16)
(0.165637 -3.64525e-07 -5.05908e-16)
(0.165636 -4.23118e-07 -8.41751e-16)
(0.165635 -4.91691e-07 -6.83408e-16)
(0.165633 -5.7169e-07 -8.94604e-16)
(0.165632 -6.65385e-07 -6.12684e-16)
(0.16563 -7.73494e-07 -9.35169e-16)
(0.100208 -1.22851e-05 1.11152e-15)
(0.100167 -9.75114e-06 1.01347e-15)
(0.100136 -7.52529e-06 9.26524e-16)
(0.100112 -5.59522e-06 1.02452e-15)
(0.100096 -3.94521e-06 1.16466e-15)
(0.100085 -2.55658e-06 9.35044e-16)
(0.100079 -1.40834e-06 8.20993e-16)
(0.100077 -4.78037e-07 9.41789e-16)
(0.100078 2.57385e-07 1.04809e-15)
(0.100081 8.21664e-07 8.31503e-16)
(0.100086 1.23758e-06 7.37754e-16)
(0.100093 1.52715e-06 8.62773e-16)
(0.1001 1.71109e-06 1.05098e-15)
(0.100107 1.80848e-06 1.02823e-15)
(0.100115 1.83657e-06 9.26415e-16)
(0.100123 1.81071e-06 9.15174e-16)
(0.10013 1.74427e-06 9.37433e-16)
(0.100137 1.64871e-06 9.62737e-16)
(0.100143 1.53363e-06 9.97626e-16)
(0.100149 1.40693e-06 1.01071e-15)
(0.100154 1.27496e-06 1.02627e-15)
(0.100159 1.14268e-06 1.02738e-15)
(0.100163 1.01381e-06 1.04405e-15)
(0.100167 8.91078e-07 1.04143e-15)
(0.10017 7.76333e-07 1.00461e-15)
(0.100173 6.70715e-07 9.07114e-16)
(0.100176 5.74803e-07 8.15515e-16)
(0.100178 4.88734e-07 7.49225e-16)
(0.100179 4.12322e-07 8.43448e-16)
(0.100181 3.45142e-07 9.56794e-16)
(0.100182 2.86604e-07 7.3825e-16)
(0.100183 2.3602e-07 6.45644e-16)
(0.100184 1.92647e-07 7.81147e-16)
(0.100184 1.55727e-07 4.80289e-16)
(0.100185 1.2452e-07 5.33474e-16)
(0.100185 9.83128e-08 3.22807e-16)
(0.100186 7.6442e-08 5.11573e-16)
(0.100186 5.82797e-08 2.34901e-16)
(0.100186 4.32694e-08 3.19987e-16)
(0.100186 3.09104e-08 1.1584e-16)
(0.100186 2.07549e-08 3.01089e-16)
(0.100186 1.24007e-08 4.33275e-17)
(0.100187 5.51084e-09 1.4333e-16)
(0.100187 -2.11493e-10 -4.84715e-17)
(0.100187 -5.04243e-09 1.32962e-17)
(0.100186 -9.23239e-09 1.77675e-16)
(0.100186 -1.30037e-08 -9.01652e-17)
(0.100186 -1.65265e-08 1.65362e-17)
(0.100186 -1.99599e-08 -1.73985e-16)
(0.100186 -2.34238e-08 1.56136e-17)
(0.100186 -2.70429e-08 -2.22279e-16)
(0.100186 -3.10305e-08 -1.07503e-16)
(0.100186 -3.55377e-08 -2.93063e-16)
(0.100186 -4.06713e-08 -8.36245e-17)
(0.100186 -4.66346e-08 -3.2285e-16)
(0.100185 -5.3586e-08 -1.98803e-16)
(0.100185 -6.149e-08 -3.71777e-16)
(0.100185 -7.0671e-08 -1.76442e-16)
(0.100185 -8.15259e-08 -3.86254e-16)
(0.100184 -9.42129e-08 -2.73965e-16)
(0.100184 -1.09067e-07 -4.39923e-16)
(0.100183 -1.26454e-07 -2.43012e-16)
(0.100183 -1.46775e-07 -4.74514e-16)
(0.100182 -1.70582e-07 -3.46496e-16)
(0.100181 -1.98346e-07 -5.05503e-16)
(0.10018 -2.30952e-07 -3.08162e-16)
(0.100179 -2.6859e-07 -5.33871e-16)
(0.0336878 -2.1054e-06 3.63032e-16)
(0.0336719 -1.7026e-06 3.37032e-16)
(0.0336594 -1.34484e-06 3.11059e-16)
(0.0336499 -1.031e-06 3.3869e-16)
(0.0336429 -7.59359e-07 3.76924e-16)
(0.0336382 -5.27667e-07 3.00554e-16)
(0.0336352 -3.33218e-07 2.78775e-16)
(0.0336338 -1.72993e-07 3.06987e-16)
(0.0336336 -4.38539e-08 3.43992e-16)
(0.0336343 5.77556e-08 2.79379e-16)
(0.0336358 1.35087e-07 2.45643e-16)
(0.0336377 1.91457e-07 2.87388e-16)
(0.03364 2.30037e-07 3.47059e-16)
(0.0336425 2.538e-07 3.41439e-16)
(0.0336451 2.65479e-07 3.10741e-16)
(0.0336477 2.67539e-07 3.05144e-16)
(0.0336503 2.62165e-07 3.03147e-16)
(0.0336527 2.51258e-07 3.16638e-16)
(0.033655 2.36438e-07 3.31014e-16)
(0.0336571 2.19056e-07 3.32426e-16)
(0.033659 2.00219e-07 3.46094e-16)
(0.0336607 1.8081e-07 3.40567e-16)
(0.0336623 1.6151e-07 3.45951e-16)
(0.0336636 1.42832e-07 3.42116e-16)
(0.0336648 1.25141e-07 3.35299e-16)
(0.0336659 1.0868e-07 2.93773e-16)
(0.0336668 9.3592e-08 2.70549e-16)
(0.0336675 7.99432e-08 2.45036e-16)
(0.0336682 6.77415e-08 2.82151e-16)
(0.0336687 5.69468e-08 3.04895e-16)
(0.0336692 4.74878e-08 2.43216e-16)
(0.0336695 3.92723e-08 2.21301e-16)
(0.0336699 3.21949e-08 2.55047e-16)
(0.0336701 2.61438e-08 1.7058e-16)
(0.0336703 2.10093e-08 1.67685e-16)
(0.0336705 1.66811e-08 1.18478e-16)
(0.0336706 1.30577e-08 1.54437e-16)
(0.0336707 1.004e-08 7.88412e-17)
(0.0336708 7.53983e-09 9.88236e-17)
(0.0336708 5.477e-09 3.84031e-17)
(0.0336709 3.78024e-09 9.65565e-17)
(0.0336709 2.38384e-09 1.74767e-17)
(0.0336709 1.23408e-09 4.67574e-17)
(0.0336709 2.85034e-10 -1.03665e-17)
(0.0336709 -5.15792e-10 -3.75489e-18)
(0.0336709 -1.20187e-09 5.35573e-17)
(0.0336709 -1.81279e-09 -2.45599e-17)
(0.0336708 -2.37551e-09 6.5101e-18)
(0.0336708 -2.91471e-09 -4.96772e-17)
(0.0336708 -3.44844e-09 4.45414e-18)
(0.0336708 -3.99564e-09 -6.77088e-17)
(0.0336707 -4.59574e-09 -3.26024e-17)
(0.0336707 -5.27115e-09 -9.09417e-17)
(0.0336706 -6.03411e-09 -2.74066e-17)
(0.0336705 -6.92283e-09 -9.75226e-17)
(0.0336705 -7.95095e-09 -6.05956e-17)
(0.0336704 -9.10778e-09 -1.23432e-16)
(0.0336703 -1.04635e-08 -5.59514e-17)
(0.0336702 -1.2071e-08 -1.19185e-16)
(0.0336701 -1.39433e-08 -8.16109e-17)
(0.0336699 -1.6137e-08 -1.3866e-16)
(0.0336698 -1.87077e-08 -8.95578e-17)
(0.0336696 -2.17111e-08 -1.50621e-16)
(0.0336693 -2.524e-08 -1.25999e-16)
(0.0336691 -2.93488e-08 -1.62296e-16)
(0.0336688 -3.42081e-08 -1.14756e-16)
(0.0336684 -3.98177e-08 -1.65324e-16)
)
;

boundaryField
{
    inlet
    {
        type            uniformFixedValue;
        uniformValue    constant (1 0 0);
        value           nonuniform 0();
    }
    outlet
    {
        type            pressureInletOutletVelocity;
        value           nonuniform 0();
    }
    wall
    {
        type            fixedValue;
        value           uniform (0 0 0);
    }
    wedge1
    {
        type            wedge;
    }
    wedge2
    {
        type            wedge;
    }
    axis
    {
        type            empty;
    }
    procBoundary43to37
    {
        type            processor;
        value           nonuniform List<vector> 
68
(
(0.415369 -1.11843e-06 -1.45145e-15)
(0.415368 -1.28828e-06 -1.38717e-15)
(0.415367 -1.4869e-06 -1.59663e-15)
(0.415365 -1.71933e-06 -1.57178e-15)
(0.415364 -1.99108e-06 -1.78896e-15)
(0.415362 -2.30865e-06 -1.70312e-15)
(0.415361 -2.67954e-06 -1.91951e-15)
(0.415358 -3.11289e-06 -1.88969e-15)
(0.415356 -3.61832e-06 -2.08368e-15)
(0.415353 -4.20907e-06 -1.99201e-15)
(0.415349 -4.89202e-06 -2.207e-15)
(0.35481 -0.000136232 4.14948e-15)
(0.354709 -0.000104556 3.77465e-15)
(0.354634 -7.71873e-05 3.68162e-15)
(0.354583 -5.38768e-05 3.50462e-15)
(0.35455 -3.43373e-05 3.67929e-15)
(0.354534 -1.82512e-05 3.31413e-15)
(0.354529 -5.2819e-06 3.25681e-15)
(0.354535 4.91551e-06 3.12033e-15)
(0.354548 1.26855e-05 3.34383e-15)
(0.354567 1.83633e-05 2.98323e-15)
(0.354589 2.22682e-05 2.93358e-15)
(0.354613 2.46981e-05 2.85748e-15)
(0.354639 2.59261e-05 3.12252e-15)
(0.354665 2.61977e-05 3.02079e-15)
(0.35469 2.57294e-05 3.2197e-15)
(0.354714 2.47094e-05 3.33992e-15)
(0.354737 2.32974e-05 3.44718e-15)
(0.354758 2.16271e-05 3.51058e-15)
(0.354777 1.98073e-05 3.6148e-15)
(0.354794 1.79251e-05 3.68247e-15)
(0.35481 1.6048e-05 3.73408e-15)
(0.354823 1.42267e-05 3.79947e-15)
(0.354835 1.24974e-05 3.82847e-15)
(0.354846 1.08845e-05 3.83226e-15)
(0.354855 9.40283e-06 3.78244e-15)
(0.354862 8.05939e-06 3.49958e-15)
(0.354869 6.85534e-06 3.1163e-15)
(0.354875 5.78739e-06 3.02919e-15)
(0.354879 4.84907e-06 2.85362e-15)
(0.354883 4.03183e-06 3.01683e-15)
(0.354886 3.32579e-06 2.65675e-15)
(0.354889 2.72045e-06 2.56488e-15)
(0.354891 2.20519e-06 2.28884e-15)
(0.354893 1.76959e-06 1.8355e-15)
(0.354894 1.40371e-06 1.64729e-15)
(0.354895 1.09826e-06 1.31465e-15)
(0.354896 8.44622e-07 1.25033e-15)
(0.354896 6.35021e-07 9.2786e-16)
(0.354897 4.62499e-07 8.24532e-16)
(0.354897 3.20881e-07 5.32869e-16)
(0.354897 2.04742e-07 5.05816e-16)
(0.354898 1.09307e-07 2.35942e-16)
(0.354898 3.04363e-08 1.82313e-16)
(0.354898 -3.54887e-08 -3.95662e-17)
(0.354897 -9.16278e-08 8.40342e-17)
(0.354897 -1.40938e-07 1.59175e-17)
(0.354897 -1.86002e-07 -2.73685e-16)
(0.354897 -2.28969e-07 -3.25428e-16)
(0.354897 -2.71788e-07 -5.58932e-16)
(0.354896 -3.16139e-07 -5.10956e-16)
(0.354896 -3.63399e-07 -7.49071e-16)
(0.354896 -4.157e-07 -7.60646e-16)
(0.354895 -4.75153e-07 -9.68064e-16)
(0.354895 -5.43312e-07 -9.48371e-16)
(0.354894 -6.2228e-07 -1.11725e-15)
(0.354894 -7.14761e-07 -1.11179e-15)
(0.354894 -7.14761e-07 -1.11179e-15)
)
;
    }
    procBoundary43to38
    {
        type            processor;
        value           uniform (0.354872 -4.17181e-06 -1.86473e-15);
    }
    procBoundary43to42
    {
        type            processor;
        value           nonuniform List<vector> 5((0.293133 -0.00012081 3.72407e-15) (0.230038 -7.67071e-05 2.84949e-15) (0.165725 -4.08784e-05 2.01365e-15) (0.100259 -1.51373e-05 1.20001e-15) (0.0337076 -2.55426e-06 3.85451e-16));
    }
    procBoundary43to44
    {
        type            processor;
        value           nonuniform List<vector> 5((0.293049 -2.856e-06 -1.57545e-15) (0.229943 -1.75709e-06 -1.11353e-15) (0.165629 -8.97686e-07 -7.73428e-16) (0.100178 -3.11523e-07 -3.85624e-16) (0.033668 -4.61072e-08 -1.24263e-16));
    }
}


// ************************************************************************* //
