/*--------------------------------*- C++ -*----------------------------------*\
  =========                 |
  \\      /  F ield         | OpenFOAM: The Open Source CFD Toolbox
   \\    /   O peration     | Website:  https://openfoam.org
    \\  /    A nd           | Version:  7
     \\/     M anipulation  |
\*---------------------------------------------------------------------------*/
FoamFile
{
    version     2.0;
    format      ascii;
    class       volScalarField;
    location    "45.000326";
    object      p;
}
// * * * * * * * * * * * * * * * * * * * * * * * * * * * * * * * * * * * * * //

dimensions      [0 2 -2 0 0 0 0];

internalField   nonuniform List<scalar> 
5800
(
-0.219391
-0.219208
-0.218839
-0.218285
-0.217548
-0.214109
-0.210123
-0.205923
-0.20165
-0.197306
-0.192888
-0.188402
-0.183857
-0.179257
-0.174611
-0.169922
-0.165197
-0.160442
-0.155663
-0.150867
-0.14606
-0.141249
-0.136441
-0.131644
-0.126865
-0.122111
-0.117389
-0.112707
-0.108072
-0.103491
-0.0989706
-0.0945172
-0.0901371
-0.085836
-0.0816196
-0.0774928
-0.0734605
-0.0695267
-0.0656954
-0.0619699
-0.0583531
-0.0548476
-0.0514554
-0.0481781
-0.0450169
-0.0419725
-0.0390453
-0.0362354
-0.0335424
-0.0309655
-0.0285039
-0.026156
-0.0239205
-0.0217956
-0.0197791
-0.017869
-0.0160629
-0.0143584
-0.0127528
-0.0112437
-0.00982818
-0.00850388
-0.00726744
-0.00611794
-0.00504855
-0.00406698
-0.00314657
-0.00234082
-0.00152069
-0.000964938
-5.67094e-05
-0.000109821
0.00166339
-0.000515906
0.00523204
-0.214443
-0.210454
-0.206185
-0.201881
-0.197522
-0.193088
-0.18859
-0.184034
-0.179427
-0.174772
-0.170077
-0.165346
-0.160586
-0.155802
-0.151001
-0.14619
-0.141374
-0.136562
-0.131761
-0.126978
-0.12222
-0.117494
-0.112809
-0.10817
-0.103585
-0.0990611
-0.0946042
-0.0902205
-0.0859161
-0.0816963
-0.0775662
-0.0735306
-0.0695937
-0.0657592
-0.0620307
-0.058411
-0.0549026
-0.0515076
-0.0482276
-0.0450637
-0.0420168
-0.0390872
-0.0362749
-0.0335795
-0.0310005
-0.0285367
-0.0261868
-0.0239494
-0.0218225
-0.0198043
-0.0178925
-0.0160848
-0.0143788
-0.0127718
-0.0112613
-0.00984446
-0.00851894
-0.00728135
-0.00613077
-0.00506035
-0.00407783
-0.00315654
-0.00234996
-0.00152917
-0.000972523
-6.45532e-05
-0.000115302
0.00165284
-0.000514756
0.00520359
-0.215109
-0.211115
-0.206707
-0.202342
-0.19795
-0.193487
-0.188963
-0.184387
-0.179762
-0.175093
-0.170385
-0.165642
-0.160871
-0.156077
-0.151267
-0.146446
-0.141623
-0.136802
-0.131993
-0.127202
-0.122436
-0.117703
-0.11301
-0.108364
-0.103772
-0.0992408
-0.0947769
-0.0903864
-0.0860752
-0.0818488
-0.0777123
-0.0736702
-0.069727
-0.0658865
-0.0621519
-0.0585264
-0.0550123
-0.0516117
-0.0483263
-0.0451571
-0.0421051
-0.0391706
-0.0363536
-0.0336537
-0.0310702
-0.0286022
-0.0262483
-0.024007
-0.0218764
-0.0198547
-0.0179395
-0.0161286
-0.0144195
-0.0128096
-0.0112964
-0.009877
-0.00854904
-0.00730914
-0.0061564
-0.00508393
-0.00409953
-0.00317646
-0.00236823
-0.00154613
-0.000987683
-8.02291e-05
-0.000126258
0.00163178
-0.000512526
0.00514707
-0.216097
-0.212099
-0.207484
-0.203027
-0.198586
-0.194078
-0.189516
-0.184908
-0.180258
-0.175567
-0.170839
-0.166079
-0.161292
-0.156483
-0.151659
-0.146825
-0.141989
-0.137157
-0.132335
-0.127533
-0.122756
-0.118012
-0.113308
-0.108651
-0.104049
-0.0995073
-0.0950332
-0.0906327
-0.0863117
-0.0820756
-0.0779295
-0.0738781
-0.0699256
-0.066076
-0.0623326
-0.0586984
-0.0551758
-0.051767
-0.0484736
-0.0452967
-0.0422371
-0.0392953
-0.0364712
-0.0337645
-0.0311744
-0.0287001
-0.0263402
-0.0240931
-0.0219571
-0.01993
-0.0180099
-0.0161942
-0.0144805
-0.0128663
-0.011349
-0.00992573
-0.00859412
-0.00735077
-0.00619479
-0.00511927
-0.00413204
-0.00320631
-0.00239561
-0.00157154
-0.0010104
-0.000103712
-0.00014268
0.00160036
-0.000509354
0.00506325
-0.217389
-0.213395
-0.208507
-0.203929
-0.199421
-0.194854
-0.19024
-0.185591
-0.180906
-0.176185
-0.171431
-0.166648
-0.16184
-0.157012
-0.15217
-0.147319
-0.142466
-0.137618
-0.132782
-0.127965
-0.123173
-0.118415
-0.113697
-0.109027
-0.104412
-0.0998569
-0.0953699
-0.0909566
-0.0866229
-0.0823742
-0.0782157
-0.0741522
-0.0701877
-0.0663264
-0.0625714
-0.0589259
-0.0553923
-0.0519726
-0.0486687
-0.0454815
-0.042412
-0.0394606
-0.0366272
-0.0339115
-0.0313129
-0.0288302
-0.0264623
-0.0242076
-0.0220642
-0.0200302
-0.0181033
-0.0162813
-0.0145616
-0.0129417
-0.011419
-0.00999056
-0.0086541
-0.00740616
-0.00624589
-0.0051663
-0.00417531
-0.00324605
-0.00243206
-0.00160538
-0.00104063
-0.000134962
-0.000164553
0.00155875
-0.00050544
0.00495324
-0.218961
-0.21499
-0.209764
-0.205034
-0.200446
-0.195805
-0.191126
-0.186424
-0.181695
-0.176937
-0.17215
-0.167339
-0.162505
-0.157653
-0.152789
-0.147917
-0.143045
-0.138179
-0.133325
-0.12849
-0.123682
-0.118907
-0.114173
-0.109487
-0.104856
-0.100285
-0.0957828
-0.0913542
-0.0870053
-0.0827416
-0.0785683
-0.07449
-0.0705112
-0.0666355
-0.0628666
-0.0592072
-0.0556601
-0.0522273
-0.0489105
-0.0457108
-0.0426291
-0.0396658
-0.036821
-0.0340942
-0.0314849
-0.028992
-0.0266142
-0.02435
-0.0221975
-0.0201549
-0.0182197
-0.0163898
-0.0146627
-0.0130356
-0.0115061
-0.0100714
-0.00872886
-0.00747522
-0.0063096
-0.00522495
-0.00422928
-0.00329562
-0.00247752
-0.0016476
-0.00107834
-0.000173925
-0.000191854
0.00150719
-0.000501034
0.00481852
-0.220784
-0.216862
-0.211238
-0.206329
-0.201646
-0.196915
-0.192158
-0.187393
-0.182611
-0.177808
-0.172983
-0.168137
-0.163273
-0.158393
-0.153504
-0.148609
-0.143715
-0.138828
-0.133954
-0.1291
-0.124273
-0.11948
-0.114728
-0.110024
-0.105375
-0.100787
-0.0962669
-0.091821
-0.0874549
-0.0831741
-0.0789838
-0.0748887
-0.0708932
-0.0670011
-0.0632159
-0.0595406
-0.0559778
-0.0525295
-0.0491976
-0.0459832
-0.0428872
-0.03991
-0.0370517
-0.0343118
-0.0316899
-0.0291848
-0.0267953
-0.0245199
-0.0223567
-0.0203037
-0.0183587
-0.0165195
-0.0147834
-0.0131479
-0.0116103
-0.0101679
-0.00881826
-0.00755782
-0.00638581
-0.00529512
-0.00429386
-0.00335495
-0.00253194
-0.00169816
-0.00112346
-0.000220527
-0.000224549
0.00144601
-0.00049643
0.00466085
-0.222825
-0.218981
-0.212905
-0.207791
-0.203001
-0.198168
-0.19332
-0.188481
-0.183638
-0.178782
-0.173912
-0.169027
-0.164128
-0.159219
-0.154301
-0.149381
-0.144463
-0.139553
-0.134658
-0.129784
-0.124937
-0.120124
-0.115353
-0.11063
-0.105962
-0.101355
-0.0968166
-0.0923519
-0.087967
-0.0836675
-0.0794585
-0.0753448
-0.0713308
-0.0674203
-0.0636169
-0.0599237
-0.0563431
-0.0528775
-0.0495285
-0.0462974
-0.0431851
-0.040192
-0.0373183
-0.0345635
-0.031927
-0.029408
-0.0270051
-0.0247167
-0.0225411
-0.0204762
-0.01852
-0.0166699
-0.0149235
-0.0132782
-0.0117313
-0.0102801
-0.0089221
-0.00765378
-0.00647437
-0.00537669
-0.00436893
-0.00342395
-0.00259521
-0.00175696
-0.00117592
-0.000274674
-0.000262595
0.00137556
-0.00049195
0.00448229
-0.225033
-0.221305
-0.214733
-0.209395
-0.204489
-0.199542
-0.194591
-0.189667
-0.184755
-0.17984
-0.17492
-0.169991
-0.165055
-0.160112
-0.155165
-0.150218
-0.145276
-0.140343
-0.135426
-0.13053
-0.125663
-0.120831
-0.11604
-0.111298
-0.10661
-0.101984
-0.0974258
-0.0929413
-0.0885366
-0.0842172
-0.0799882
-0.0758545
-0.0718205
-0.0678901
-0.0640669
-0.060354
-0.0567541
-0.0532693
-0.0499014
-0.0466518
-0.0435214
-0.0405106
-0.0376196
-0.0348481
-0.0321955
-0.0296608
-0.0272427
-0.0249398
-0.0227502
-0.020672
-0.0187029
-0.0168406
-0.0150826
-0.0134262
-0.0118688
-0.0104076
-0.00904016
-0.0077629
-0.00657511
-0.00546949
-0.00445437
-0.0035025
-0.00266723
-0.00182393
-0.00123562
-0.000336247
-0.000305935
0.00129626
-0.000487933
0.0042851
-0.223781
-0.216681
-0.211106
-0.206078
-0.201008
-0.195945
-0.190929
-0.18594
-0.180961
-0.175985
-0.17101
-0.166034
-0.161056
-0.156079
-0.151105
-0.146138
-0.141182
-0.136244
-0.131329
-0.126442
-0.12159
-0.11678
-0.112019
-0.107312
-0.102666
-0.0980878
-0.0935833
-0.0891582
-0.0848182
-0.0805684
-0.0764138
-0.0723587
-0.0684072
-0.0645629
-0.0608289
-0.0572081
-0.0537026
-0.0503143
-0.0470446
-0.0438944
-0.0408643
-0.0379545
-0.0351646
-0.0324941
-0.0299422
-0.0275074
-0.0251884
-0.0229834
-0.0208903
-0.018907
-0.0170312
-0.0152602
-0.0135915
-0.0120224
-0.0105501
-0.00917215
-0.00788494
-0.0066878
-0.00557334
-0.00454999
-0.00359045
-0.00274787
-0.00189895
-0.00130244
-0.000405103
-0.000354496
0.00120859
-0.000484726
0.00407176
-0.226336
-0.218696
-0.21288
-0.207732
-0.202533
-0.197351
-0.192237
-0.187166
-0.182118
-0.177085
-0.172062
-0.167045
-0.162032
-0.157025
-0.152025
-0.147035
-0.142058
-0.1371
-0.132166
-0.127261
-0.122391
-0.117563
-0.112784
-0.108058
-0.103393
-0.0987959
-0.0942715
-0.0898261
-0.0854653
-0.0811944
-0.0770182
-0.0729414
-0.0689679
-0.0651015
-0.0613454
-0.0577025
-0.0541751
-0.050765
-0.0474738
-0.0443024
-0.0412515
-0.0383213
-0.0355116
-0.0328218
-0.0302511
-0.0277982
-0.0254617
-0.0232398
-0.0211305
-0.0191317
-0.017241
-0.0154558
-0.0137736
-0.0121917
-0.0107072
-0.00931774
-0.0080196
-0.00681219
-0.00568801
-0.0046556
-0.00368762
-0.00283695
-0.00198186
-0.00137624
-0.000481071
-0.000408191
0.00111307
-0.00048267
0.00384487
-0.228883
-0.220711
-0.214665
-0.209403
-0.204075
-0.198771
-0.193557
-0.188403
-0.183286
-0.178195
-0.173123
-0.168066
-0.163021
-0.157985
-0.152961
-0.14795
-0.142955
-0.13798
-0.13303
-0.128109
-0.123224
-0.11838
-0.113584
-0.108841
-0.104159
-0.0995432
-0.0949997
-0.0905345
-0.0861533
-0.0818613
-0.0776635
-0.0735645
-0.0695686
-0.0656795
-0.0619005
-0.0582346
-0.0546842
-0.0512512
-0.0479373
-0.0447435
-0.0416705
-0.0387186
-0.0358877
-0.0331772
-0.0305864
-0.028114
-0.0257586
-0.0235186
-0.0213918
-0.0193762
-0.0174694
-0.0156689
-0.0139721
-0.0123763
-0.0108786
-0.00947654
-0.00816654
-0.00694796
-0.00581322
-0.00477096
-0.00379381
-0.0029343
-0.00207251
-0.00145686
-0.000563949
-0.000466912
0.00101027
-0.000482093
0.0036071
-0.222643
-0.216395
-0.211034
-0.205584
-0.200163
-0.194852
-0.189618
-0.184433
-0.179286
-0.17417
-0.169076
-0.164001
-0.158942
-0.153898
-0.14887
-0.14386
-0.138872
-0.133909
-0.128976
-0.124078
-0.119221
-0.114411
-0.109653
-0.104955
-0.100323
-0.0957616
-0.0912776
-0.0868767
-0.0825642
-0.078345
-0.0742241
-0.0702055
-0.0662934
-0.062491
-0.0588014
-0.0552273
-0.0517705
-0.0484329
-0.0452156
-0.0421194
-0.0391447
-0.0362913
-0.0335589
-0.0309467
-0.0284536
-0.0260782
-0.0238187
-0.0216733
-0.0196398
-0.0177158
-0.0158988
-0.0141863
-0.0125755
-0.0110636
-0.00964814
-0.00832538
-0.00709479
-0.00594868
-0.00489579
-0.00390877
-0.00303968
-0.00217068
-0.00154411
-0.000653507
-0.000530536
0.000900772
-0.000483298
0.00336116
-0.217992
-0.212555
-0.206998
-0.201474
-0.196078
-0.190772
-0.185527
-0.180332
-0.175177
-0.170053
-0.164954
-0.159877
-0.154819
-0.149779
-0.14476
-0.139763
-0.134792
-0.12985
-0.124943
-0.120077
-0.115256
-0.110487
-0.105776
-0.101128
-0.0965512
-0.0920501
-0.0876306
-0.0832984
-0.0790586
-0.0749161
-0.0708751
-0.0669398
-0.0631138
-0.0594003
-0.0558018
-0.0523206
-0.0489585
-0.0457168
-0.0425965
-0.0395978
-0.036721
-0.0339656
-0.0313309
-0.0288159
-0.0264193
-0.0241393
-0.021974
-0.0199215
-0.0179792
-0.0161448
-0.0144155
-0.0127889
-0.0112618
-0.00983203
-0.00849567
-0.00725227
-0.00609403
-0.00502977
-0.00403223
-0.00315284
-0.00227615
-0.00163779
-0.000749481
-0.000598917
0.000785212
-0.000486568
0.00310974
-0.219363
-0.213885
-0.208248
-0.202646
-0.197186
-0.191825
-0.186534
-0.181303
-0.17612
-0.170976
-0.165862
-0.160774
-0.155709
-0.150664
-0.145642
-0.140642
-0.135667
-0.130722
-0.125811
-0.120939
-0.116111
-0.111334
-0.106612
-0.101953
-0.0973622
-0.0928457
-0.0884094
-0.0840588
-0.0797993
-0.0756358
-0.071573
-0.0676149
-0.0637653
-0.0600275
-0.0564044
-0.0528983
-0.0495112
-0.0462444
-0.0430991
-0.0400758
-0.0371745
-0.0343951
-0.031737
-0.0291992
-0.0267803
-0.0244787
-0.0222927
-0.0202201
-0.0182586
-0.0164058
-0.014659
-0.0130155
-0.0114725
-0.0100276
-0.00867681
-0.00741985
-0.00624878
-0.00517248
-0.0041638
-0.00327343
-0.00238861
-0.0017376
-0.000851545
-0.000671879
0.000664247
-0.000492173
0.00285545
-0.214921
-0.209245
-0.203606
-0.198114
-0.192725
-0.187411
-0.182162
-0.176967
-0.171816
-0.166699
-0.16161
-0.156547
-0.151506
-0.146487
-0.141491
-0.136521
-0.131578
-0.126668
-0.121795
-0.116965
-0.112183
-0.107455
-0.102787
-0.098185
-0.0936556
-0.0892045
-0.0848374
-0.0805597
-0.0763766
-0.0722927
-0.0683124
-0.0644396
-0.0606779
-0.0570303
-0.0534992
-0.0500867
-0.0467946
-0.0436238
-0.0405751
-0.0376489
-0.0348448
-0.0321625
-0.029601
-0.027159
-0.0248352
-0.0226275
-0.0205341
-0.0185525
-0.0166805
-0.0149153
-0.0132543
-0.0116946
-0.0102338
-0.00886802
-0.00759685
-0.00641233
-0.00532338
-0.004303
-0.00340104
-0.00250766
-0.00184321
-0.000959319
-0.000749213
0.000538565
-0.000500357
0.00260077
-0.21553
-0.209874
-0.204261
-0.198788
-0.193411
-0.188108
-0.182871
-0.177688
-0.172548
-0.167444
-0.16237
-0.157321
-0.152294
-0.147289
-0.142305
-0.137346
-0.132413
-0.12751
-0.122642
-0.117814
-0.113032
-0.108301
-0.103628
-0.0990186
-0.0944792
-0.0900157
-0.0856341
-0.0813399
-0.0771384
-0.0730345
-0.0690329
-0.0651375
-0.0613522
-0.0576801
-0.0541239
-0.050686
-0.047368
-0.0441713
-0.0410968
-0.0381448
-0.0353154
-0.032608
-0.030022
-0.0275562
-0.0252091
-0.022979
-0.0208638
-0.0188614
-0.0169693
-0.0151849
-0.0135056
-0.0119284
-0.010451
-0.00906945
-0.00778338
-0.00658476
-0.0054825
-0.00444986
-0.00353564
-0.00263326
-0.00195454
-0.00107263
-0.000830785
0.000408643
-0.000511153
0.00234777
-0.21017
-0.204671
-0.199282
-0.193965
-0.188711
-0.183513
-0.178363
-0.173253
-0.168175
-0.163126
-0.158099
-0.153094
-0.148108
-0.143143
-0.138198
-0.133278
-0.128386
-0.123526
-0.118704
-0.113924
-0.109192
-0.104516
-0.0998998
-0.0953512
-0.090876
-0.0864801
-0.0821694
-0.0779493
-0.073825
-0.0698013
-0.0658824
-0.0620724
-0.0583745
-0.0547919
-0.0513269
-0.0479815
-0.0447572
-0.041655
-0.0386755
-0.0358189
-0.0330847
-0.0304725
-0.027981
-0.025609
-0.0233547
-0.0212162
-0.0191913
-0.0172776
-0.0154725
-0.0137735
-0.0121776
-0.0106823
-0.00928385
-0.00798179
-0.00676805
-0.00565149
-0.00460571
-0.00367828
-0.00276623
-0.00207214
-0.00119189
-0.000916706
0.000274401
-0.000524181
0.00209818
-0.204764
-0.199516
-0.194304
-0.189133
-0.184002
-0.178907
-0.173844
-0.168808
-0.163795
-0.158802
-0.153828
-0.14887
-0.14393
-0.13901
-0.13411
-0.129235
-0.12439
-0.119578
-0.114806
-0.110079
-0.105404
-0.100786
-0.0962317
-0.091748
-0.0873408
-0.083016
-0.0787794
-0.0746363
-0.0705918
-0.0666504
-0.0628162
-0.0590931
-0.0554841
-0.0519919
-0.0486188
-0.0453664
-0.042236
-0.0392284
-0.0363437
-0.033582
-0.0309425
-0.0284245
-0.0260265
-0.0237471
-0.0215843
-0.019536
-0.0175999
-0.0157733
-0.0140538
-0.0124382
-0.0109244
-0.00950824
-0.00818946
-0.00695994
-0.00582841
-0.0047689
-0.00382757
-0.00290537
-0.00219511
-0.00131615
-0.00100664
0.000136975
-0.000540389
0.0018552
-0.202381
-0.197564
-0.192708
-0.187831
-0.182945
-0.178054
-0.173165
-0.168279
-0.163397
-0.15852
-0.153648
-0.148784
-0.143927
-0.139082
-0.13425
-0.129437
-0.124646
-0.119883
-0.115154
-0.110464
-0.105821
-0.101229
-0.0966974
-0.0922312
-0.0878371
-0.0835216
-0.0792905
-0.0751497
-0.0711043
-0.0671594
-0.0633193
-0.059588
-0.055969
-0.0524652
-0.0490792
-0.0458128
-0.0426674
-0.0396441
-0.0367432
-0.033965
-0.0313088
-0.028774
-0.0263594
-0.0240634
-0.0218843
-0.0198201
-0.0178684
-0.0160267
-0.0142925
-0.0126628
-0.0111353
-0.00970608
-0.00837478
-0.00713324
-0.0059902
-0.00491998
-0.00396766
-0.00303742
-0.00231381
-0.00143631
-0.00109742
5.19416e-06
-0.000567665
0.00162724
-0.197432
-0.192623
-0.187784
-0.182927
-0.17806
-0.173191
-0.168322
-0.163455
-0.15859
-0.15373
-0.148875
-0.144027
-0.139189
-0.134365
-0.129557
-0.124772
-0.120014
-0.115289
-0.110603
-0.105963
-0.101374
-0.0968451
-0.0923811
-0.0879889
-0.0836749
-0.0794451
-0.0753051
-0.0712603
-0.0673156
-0.0634755
-0.0597439
-0.0561243
-0.0526197
-0.0492326
-0.0459649
-0.0428181
-0.0397931
-0.0368904
-0.0341102
-0.0314519
-0.0289148
-0.0264978
-0.0241994
-0.0220178
-0.0199509
-0.0179965
-0.0161521
-0.0144151
-0.0127825
-0.0112521
-0.00981975
-0.00848539
-0.00724064
-0.00609441
-0.0050209
-0.004065
-0.0031322
-0.00240291
-0.00152779
-0.00117279
-9.60929e-05
-0.000606353
0.00144267
-0.194182
-0.189713
-0.18516
-0.180548
-0.175897
-0.171219
-0.166521
-0.161808
-0.157086
-0.152356
-0.147623
-0.142888
-0.138156
-0.13343
-0.128716
-0.124018
-0.119342
-0.114695
-0.110081
-0.105509
-0.100984
-0.0965132
-0.0921038
-0.0877621
-0.0834946
-0.0793074
-0.0752064
-0.0711969
-0.0672842
-0.0634728
-0.0597668
-0.05617
-0.0526853
-0.0493156
-0.0460629
-0.0429288
-0.0399145
-0.0370206
-0.0342474
-0.0315945
-0.0290614
-0.026647
-0.02435
-0.0221687
-0.0201012
-0.0181453
-0.0162987
-0.0145588
-0.0129227
-0.0113883
-0.0099516
-0.00861245
-0.00736268
-0.00621094
-0.0051323
-0.00416974
-0.00323329
-0.00249356
-0.00162239
-0.0012417
-0.000200337
-0.000624282
0.00126748
-0.190325
-0.186176
-0.181905
-0.177546
-0.173121
-0.168647
-0.164136
-0.159597
-0.155034
-0.150454
-0.14586
-0.141258
-0.136651
-0.132045
-0.127444
-0.122854
-0.11828
-0.11373
-0.109209
-0.104724
-0.100281
-0.0958889
-0.091553
-0.0872802
-0.0830771
-0.0789499
-0.0749046
-0.0709468
-0.0670816
-0.0633137
-0.0596476
-0.0560869
-0.0526349
-0.0492946
-0.046068
-0.0429572
-0.0399633
-0.0370872
-0.0343292
-0.0316893
-0.0291671
-0.0267616
-0.0244718
-0.0222959
-0.0202324
-0.0182791
-0.0164338
-0.0146941
-0.0130572
-0.0115211
-0.0100819
-0.00873952
-0.00748607
-0.00632963
-0.00524688
-0.00427758
-0.00333874
-0.0025868
-0.00172265
-0.00131019
-0.000313343
-0.00063278
0.00108249
-0.186518
-0.182654
-0.178644
-0.174521
-0.170313
-0.166038
-0.16171
-0.157341
-0.152936
-0.148505
-0.144051
-0.139581
-0.135099
-0.130612
-0.126124
-0.121642
-0.117171
-0.112718
-0.10829
-0.103894
-0.0995352
-0.095222
-0.0909607
-0.0867583
-0.0826211
-0.0785556
-0.0745678
-0.0706633
-0.0668474
-0.063125
-0.0595005
-0.0559779
-0.0525605
-0.0492514
-0.0460529
-0.042967
-0.0399953
-0.0371386
-0.0343976
-0.0317723
-0.0292625
-0.0268673
-0.0245859
-0.0224167
-0.0203583
-0.0184086
-0.0165655
-0.0148269
-0.01319
-0.011653
-0.0102119
-0.00886677
-0.00761013
-0.00644932
-0.00536285
-0.00438687
-0.00344604
-0.00268151
-0.00182505
-0.00137951
-0.000428432
-0.000640574
0.000895655
-0.182608
-0.179018
-0.175264
-0.171379
-0.167391
-0.16332
-0.159182
-0.154988
-0.150749
-0.146472
-0.142165
-0.137833
-0.133482
-0.129119
-0.12475
-0.12038
-0.116016
-0.111665
-0.107334
-0.103029
-0.0987574
-0.0945262
-0.0903425
-0.0862128
-0.082144
-0.0781424
-0.0742141
-0.0703648
-0.0666001
-0.0629249
-0.0593436
-0.0558605
-0.052479
-0.0492023
-0.046033
-0.0429732
-0.0400246
-0.0371883
-0.034465
-0.031855
-0.0293581
-0.0269738
-0.0247013
-0.0225393
-0.0204863
-0.0185406
-0.0167001
-0.0149627
-0.013326
-0.011788
-0.0103453
-0.00899736
-0.00773754
-0.00657228
-0.00548203
-0.00449917
-0.00355629
-0.00277873
-0.00192993
-0.00145053
-0.000545002
-0.000649175
0.000708758
-0.178542
-0.175215
-0.171712
-0.168066
-0.164302
-0.160441
-0.156499
-0.15249
-0.148424
-0.14431
-0.140157
-0.135971
-0.131759
-0.127527
-0.123283
-0.119032
-0.114782
-0.110539
-0.10631
-0.102102
-0.0979221
-0.093778
-0.0896762
-0.0856237
-0.0816273
-0.0776934
-0.0738282
-0.0700376
-0.0663272
-0.0627021
-0.0591669
-0.0557258
-0.0523826
-0.0491406
-0.0460025
-0.0429707
-0.0400469
-0.0372324
-0.0345282
-0.0319348
-0.029452
-0.0270796
-0.0248169
-0.0226628
-0.0206159
-0.0186746
-0.0168371
-0.0151015
-0.0134652
-0.0119266
-0.0104822
-0.00913161
-0.00786864
-0.00669887
-0.00560479
-0.00461481
-0.00366979
-0.00287869
-0.00203746
-0.00152334
-0.000663101
-0.00065848
0.00052273
-0.174341
-0.171264
-0.168006
-0.164596
-0.161056
-0.157408
-0.153667
-0.149848
-0.145962
-0.142018
-0.138026
-0.133992
-0.129926
-0.125832
-0.121719
-0.117594
-0.113462
-0.109333
-0.105211
-0.101106
-0.0970234
-0.092971
-0.0889559
-0.0849849
-0.0810651
-0.0772029
-0.0734046
-0.0696764
-0.0660237
-0.0624518
-0.0589657
-0.0555695
-0.0522673
-0.0490624
-0.0459578
-0.042956
-0.040059
-0.0372682
-0.0345848
-0.0320093
-0.0295421
-0.0271828
-0.0249309
-0.0227856
-0.0207456
-0.0188096
-0.0169757
-0.0152422
-0.0136069
-0.0120678
-0.0106221
-0.00926904
-0.00800302
-0.00682873
-0.0057308
-0.00473353
-0.00378626
-0.00298123
-0.00214738
-0.0015979
-0.000782283
-0.000668755
0.000338919
-0.170023
-0.167184
-0.164163
-0.160984
-0.157668
-0.154234
-0.150698
-0.147073
-0.143371
-0.139603
-0.135777
-0.131902
-0.127987
-0.124037
-0.120061
-0.116067
-0.11206
-0.108049
-0.104041
-0.100042
-0.0960615
-0.0921055
-0.0881813
-0.0842961
-0.0804569
-0.0766702
-0.0729426
-0.0692801
-0.0656885
-0.0621731
-0.0587389
-0.0553905
-0.0521319
-0.0489666
-0.0458978
-0.0429282
-0.04006
-0.0372947
-0.0346337
-0.0320778
-0.0296273
-0.0272824
-0.0250425
-0.022907
-0.0208749
-0.0189448
-0.0171152
-0.0153845
-0.0137504
-0.0122114
-0.0107646
-0.00940925
-0.00814031
-0.00696155
-0.00585979
-0.00485509
-0.00390545
-0.00308619
-0.00225933
-0.00167419
-0.000901945
-0.000680448
0.000158805
-0.165599
-0.162988
-0.160197
-0.157245
-0.15415
-0.15093
-0.147599
-0.144171
-0.140658
-0.137069
-0.133415
-0.129704
-0.125945
-0.122144
-0.118311
-0.114452
-0.110575
-0.106688
-0.102797
-0.0989108
-0.0950362
-0.0911808
-0.0873519
-0.0835565
-0.0798018
-0.0760945
-0.0724411
-0.0688478
-0.0653206
-0.0618648
-0.0584856
-0.0551877
-0.0519753
-0.0488522
-0.0458216
-0.0428863
-0.0400488
-0.0373109
-0.0346741
-0.0321393
-0.0297071
-0.0273778
-0.025151
-0.0230264
-0.021003
-0.0190797
-0.0172551
-0.0155277
-0.0138955
-0.0123569
-0.0109093
-0.00955192
-0.00828024
-0.00709707
-0.00599147
-0.00497927
-0.00402708
-0.00319341
-0.00237299
-0.00175221
-0.0010215
-0.000693956
-1.6196e-05
-0.16108
-0.158687
-0.156119
-0.153389
-0.150513
-0.147506
-0.144381
-0.141152
-0.137829
-0.134423
-0.130945
-0.127401
-0.123802
-0.120156
-0.11647
-0.112751
-0.109009
-0.105249
-0.101481
-0.0977108
-0.0939469
-0.0901963
-0.0864667
-0.0827652
-0.0790988
-0.0754745
-0.0718989
-0.0683783
-0.0649187
-0.0615256
-0.0582044
-0.0549599
-0.0517964
-0.0487179
-0.0457278
-0.0428291
-0.0400244
-0.0373158
-0.0347049
-0.0321928
-0.0297805
-0.0274681
-0.0252557
-0.0231431
-0.0211294
-0.0192137
-0.0173949
-0.0156714
-0.0140416
-0.0125039
-0.0110559
-0.0096967
-0.00842245
-0.00723498
-0.00612557
-0.00510583
-0.00415087
-0.0033027
-0.00248801
-0.00183188
-0.00114039
-0.000709602
-0.000184754
-0.156477
-0.154297
-0.151944
-0.149431
-0.146769
-0.143973
-0.141053
-0.138023
-0.134892
-0.131672
-0.128371
-0.124999
-0.121564
-0.118075
-0.11454
-0.110966
-0.107362
-0.103735
-0.100092
-0.0964428
-0.0927934
-0.0891517
-0.0855252
-0.0819213
-0.078347
-0.0748093
-0.0713149
-0.0678703
-0.0644815
-0.0611543
-0.057894
-0.0547056
-0.0515937
-0.0485624
-0.0456152
-0.0427554
-0.0399856
-0.0373083
-0.0347251
-0.0322375
-0.0298464
-0.0275524
-0.0253557
-0.0232562
-0.0212532
-0.0193462
-0.0175338
-0.015815
-0.0141882
-0.0126518
-0.0112038
-0.00984317
-0.00856657
-0.00737495
-0.00626175
-0.00523447
-0.00427652
-0.00341384
-0.00260405
-0.00191313
-0.00125806
-0.00072764
-0.000345632
-0.151804
-0.14983
-0.147687
-0.145385
-0.142933
-0.140344
-0.137628
-0.134796
-0.131857
-0.128823
-0.125702
-0.122503
-0.119235
-0.115906
-0.112525
-0.109099
-0.105637
-0.102145
-0.0986331
-0.0951075
-0.0915763
-0.0880471
-0.0845274
-0.0810245
-0.0775457
-0.074098
-0.0706882
-0.0673228
-0.064008
-0.0607496
-0.0575532
-0.0544238
-0.0513662
-0.0483845
-0.0454826
-0.0426639
-0.0399313
-0.0372872
-0.0347336
-0.0322721
-0.0299039
-0.0276298
-0.0254501
-0.0233649
-0.0213738
-0.0194762
-0.0176713
-0.0159579
-0.0143347
-0.0128002
-0.0113527
-0.00999088
-0.00871218
-0.00751658
-0.00639964
-0.00536489
-0.00440367
-0.00352658
-0.00272072
-0.00199582
-0.00137394
-0.00074826
-0.000497699
-0.147075
-0.1453
-0.143361
-0.141264
-0.139018
-0.136633
-0.134117
-0.131481
-0.128734
-0.125885
-0.122944
-0.11992
-0.11682
-0.113654
-0.11043
-0.107154
-0.103837
-0.100484
-0.0971049
-0.0937065
-0.0902967
-0.0868832
-0.0834735
-0.080075
-0.0766949
-0.0733404
-0.0700183
-0.0667352
-0.0634974
-0.0603108
-0.057181
-0.0541134
-0.0511126
-0.0481831
-0.045329
-0.0425536
-0.0398602
-0.0372514
-0.0347293
-0.0322957
-0.0299521
-0.0276993
-0.025538
-0.0234684
-0.0214902
-0.0196032
-0.0178066
-0.0160994
-0.0144804
-0.0129485
-0.0115019
-0.0101393
-0.00885881
-0.00765947
-0.00653884
-0.00549672
-0.00453198
-0.00364065
-0.00283764
-0.0020798
-0.00148753
-0.00077159
-0.000639949
-0.142302
-0.140722
-0.138981
-0.137084
-0.135038
-0.132852
-0.130533
-0.12809
-0.125532
-0.122868
-0.120108
-0.117258
-0.114328
-0.111325
-0.108259
-0.105136
-0.101965
-0.098754
-0.0955102
-0.0922417
-0.0889561
-0.0856612
-0.0823643
-0.0790731
-0.0757948
-0.0725364
-0.069305
-0.0661071
-0.0629491
-0.059837
-0.0567767
-0.0537734
-0.050832
-0.0479572
-0.0451531
-0.0424234
-0.0397714
-0.0371998
-0.0347111
-0.0323072
-0.0299898
-0.02776
-0.0256184
-0.0235656
-0.0216017
-0.0197262
-0.0179389
-0.0162387
-0.0146248
-0.013096
-0.0116508
-0.010288
-0.00900597
-0.00780314
-0.00667893
-0.00562958
-0.00466104
-0.00375573
-0.00295442
-0.00216487
-0.00159831
-0.000797688
-0.000771517
-0.137501
-0.13611
-0.134561
-0.132858
-0.131007
-0.129014
-0.126888
-0.124635
-0.122264
-0.119783
-0.117201
-0.114525
-0.111764
-0.108926
-0.106018
-0.103049
-0.100027
-0.0969584
-0.0938521
-0.0907156
-0.0875566
-0.0843826
-0.0812012
-0.0780198
-0.0748458
-0.0716863
-0.0685482
-0.0654381
-0.0623626
-0.0593278
-0.0563394
-0.053403
-0.0505236
-0.0477058
-0.0449541
-0.0422722
-0.0396637
-0.0371314
-0.034678
-0.0323057
-0.0300161
-0.0278107
-0.0256904
-0.0236559
-0.0217072
-0.0198445
-0.0180674
-0.0163752
-0.0147671
-0.013242
-0.0117989
-0.0104363
-0.00915314
-0.00794712
-0.00681944
-0.00576307
-0.00479044
-0.00387149
-0.00307065
-0.00225081
-0.00170582
-0.000826546
-0.000891691
-0.132686
-0.131479
-0.130117
-0.128601
-0.126938
-0.125134
-0.123195
-0.121127
-0.11894
-0.116639
-0.114233
-0.11173
-0.109137
-0.106463
-0.103714
-0.100899
-0.0980258
-0.0951016
-0.0921342
-0.0891313
-0.0861005
-0.0830495
-0.0799856
-0.0769164
-0.073849
-0.0707906
-0.0677482
-0.0647285
-0.061738
-0.0587828
-0.0558688
-0.0530017
-0.0501865
-0.0474282
-0.0447311
-0.0420992
-0.0395362
-0.0370452
-0.034629
-0.03229
-0.03003
-0.0278507
-0.0257531
-0.0237381
-0.0218061
-0.0199573
-0.0181914
-0.016508
-0.0149066
-0.013386
-0.0119456
-0.0105836
-0.00929974
-0.00809089
-0.00695988
-0.00589673
-0.00491976
-0.00398756
-0.00318594
-0.00233737
-0.00180962
-0.000858091
-0.000999929
-0.127873
-0.126843
-0.12566
-0.124326
-0.122845
-0.121223
-0.119466
-0.117579
-0.115571
-0.113446
-0.111214
-0.108881
-0.106455
-0.103943
-0.101353
-0.0986918
-0.0959677
-0.0931881
-0.0903604
-0.0874921
-0.084591
-0.0816643
-0.0787196
-0.0757643
-0.0728054
-0.0698503
-0.0669057
-0.0639785
-0.0610751
-0.0582019
-0.0553646
-0.052569
-0.0498203
-0.0471235
-0.0444832
-0.0419034
-0.039388
-0.0369403
-0.0345632
-0.0322592
-0.0300305
-0.0278788
-0.0258054
-0.0238114
-0.0218973
-0.0200635
-0.01831
-0.0166365
-0.0150425
-0.0135273
-0.0120901
-0.0107294
-0.0094452
-0.00823391
-0.00709975
-0.0060301
-0.00504854
-0.00410357
-0.00329988
-0.00242426
-0.00190932
-0.000892185
-0.00109586
-0.123075
-0.122216
-0.121205
-0.120045
-0.11874
-0.117294
-0.115713
-0.114002
-0.112167
-0.110215
-0.108153
-0.105988
-0.103726
-0.101374
-0.0989412
-0.0964333
-0.093858
-0.0912227
-0.0885349
-0.0858019
-0.083031
-0.0802298
-0.0774055
-0.0745655
-0.0717168
-0.0688665
-0.0660216
-0.0631888
-0.0603746
-0.0575852
-0.0548267
-0.0521047
-0.0494246
-0.0467915
-0.0442099
-0.0416843
-0.0392184
-0.0368158
-0.0344796
-0.0322125
-0.0300167
-0.0278943
-0.0258466
-0.0238749
-0.0219801
-0.0201625
-0.0184224
-0.0167597
-0.0151741
-0.013665
-0.0122317
-0.0108729
-0.00958892
-0.00837561
-0.00723852
-0.00616271
-0.00517633
-0.00421911
-0.00341207
-0.00251118
-0.00200459
-0.00092863
-0.0011793
-0.118307
-0.117611
-0.116765
-0.115772
-0.114635
-0.113359
-0.111947
-0.110406
-0.10874
-0.106956
-0.10506
-0.103058
-0.100957
-0.0987642
-0.096486
-0.0941297
-0.0917022
-0.0892106
-0.0866623
-0.0840645
-0.0814243
-0.078749
-0.0760459
-0.0733221
-0.0705848
-0.0678408
-0.065097
-0.0623602
-0.0596368
-0.0569331
-0.0542552
-0.0516087
-0.0489991
-0.0464316
-0.0439108
-0.0414411
-0.0390267
-0.0366711
-0.0343776
-0.032149
-0.0299878
-0.0278961
-0.0258757
-0.0239278
-0.0220534
-0.0202533
-0.0185278
-0.016877
-0.0153007
-0.0137984
-0.0123699
-0.0110136
-0.00973029
-0.00851543
-0.00737566
-0.00629406
-0.00530267
-0.00433376
-0.00352212
-0.00259781
-0.00209513
-0.000967175
-0.00125024
-0.113581
-0.11304
-0.112352
-0.111518
-0.110542
-0.109428
-0.108179
-0.106801
-0.105299
-0.103677
-0.101943
-0.100101
-0.0981575
-0.0961199
-0.0939942
-0.0917873
-0.089506
-0.087157
-0.0847474
-0.0822842
-0.0797744
-0.0772253
-0.0746437
-0.0720368
-0.0694115
-0.0667747
-0.0641333
-0.0614938
-0.0588627
-0.0562462
-0.0536505
-0.0510812
-0.0485439
-0.0460436
-0.0435854
-0.0411735
-0.0388123
-0.0365054
-0.0342563
-0.032068
-0.029943
-0.0278836
-0.0258918
-0.0239691
-0.0221166
-0.0203352
-0.0186254
-0.0169874
-0.0154214
-0.0139269
-0.0125039
-0.0111507
-0.00986868
-0.00865278
-0.0075106
-0.00642364
-0.00542708
-0.00444711
-0.00362967
-0.0026838
-0.0021807
-0.00100752
-0.00130884
-0.108911
-0.108516
-0.107976
-0.107293
-0.106471
-0.105512
-0.104419
-0.103198
-0.101853
-0.100389
-0.0988103
-0.0971236
-0.0953343
-0.0934485
-0.0914724
-0.0894125
-0.0872751
-0.0850669
-0.0827947
-0.0804652
-0.0780853
-0.0756619
-0.0732018
-0.070712
-0.0681992
-0.0656704
-0.063132
-0.0605908
-0.0580532
-0.0555253
-0.0530131
-0.0505225
-0.0480589
-0.0456277
-0.0432335
-0.0408812
-0.0385748
-0.0363183
-0.0341152
-0.0319687
-0.0298815
-0.027856
-0.0258943
-0.0239981
-0.0221688
-0.0204072
-0.0187143
-0.0170904
-0.0155356
-0.0140497
-0.0126329
-0.0112837
-0.0100035
-0.00878706
-0.00764281
-0.00655093
-0.0055491
-0.00455872
-0.00373434
-0.0027688
-0.00226114
-0.00104934
-0.00135546
-0.104307
-0.104048
-0.103649
-0.103109
-0.102432
-0.10162
-0.100677
-0.0996057
-0.0984115
-0.0970983
-0.095671
-0.0941348
-0.0924949
-0.0907571
-0.0889271
-0.0870111
-0.0850153
-0.0829458
-0.0808092
-0.078612
-0.0763609
-0.0740625
-0.0717234
-0.0693505
-0.0669504