/*--------------------------------*- C++ -*----------------------------------*\
  =========                 |
  \\      /  F ield         | OpenFOAM: The Open Source CFD Toolbox
   \\    /   O peration     | Website:  https://openfoam.org
    \\  /    A nd           | Version:  7
     \\/     M anipulation  |
\*---------------------------------------------------------------------------*/
FoamFile
{
    version     2.0;
    format      ascii;
    class       volVectorField;
    location    "135";
    object      U;
}
// * * * * * * * * * * * * * * * * * * * * * * * * * * * * * * * * * * * * * //

dimensions      [0 1 -1 0 0 0 0];

internalField   nonuniform List<vector> 
15000
(
(4.50431e-05 -0.00535353 -1.7365e-21)
(4.7372e-05 -0.0155293 -1.45296e-21)
(-0.000127505 -0.0253844 6.3471e-22)
(-0.000482073 -0.0348731 -6.53992e-22)
(-0.00101874 -0.0439492 -4.76993e-22)
(-0.00174633 -0.0525668 2.11219e-21)
(-0.00267444 -0.0606808 3.72669e-21)
(-0.0038112 -0.0682491 3.35251e-21)
(-0.0051639 -0.0752305 -9.90961e-21)
(-0.00673879 -0.0815885 5.31564e-21)
(-0.00854068 -0.0872887 2.19331e-21)
(-0.0105727 -0.0923029 -4.75594e-21)
(-0.0128363 -0.0966089 2.2471e-21)
(-0.0153308 -0.100192 -5.30841e-21)
(-0.0180541 -0.103046 -5.7368e-22)
(-0.0210019 -0.105172 -2.74757e-21)
(-0.0241678 -0.106582 3.36801e-21)
(-0.0275434 -0.107296 2.36131e-22)
(-0.0311185 -0.107345 6.52194e-21)
(-0.0348807 -0.106767 3.07288e-21)
(-0.0388158 -0.10561 2.9934e-21)
(-0.0429082 -0.103929 -8.59469e-21)
(-0.0471409 -0.101785 7.68411e-21)
(-0.0514958 -0.0992414 6.42131e-21)
(-0.0559546 -0.0963652 7.75667e-21)
(-0.0604985 -0.0932218 -8.55847e-22)
(-0.0651094 -0.0898732 -1.95458e-21)
(-0.0697701 -0.086375 -3.98173e-21)
(-0.0744656 -0.0827731 3.92336e-21)
(-0.0791835 -0.0791013 -1.88235e-21)
(-0.0839149 -0.0753792 8.44063e-23)
(-0.0886562 -0.0716102 6.89191e-21)
(-0.0934096 -0.0677779 1.67137e-22)
(-0.0981847 -0.0638434 1.10001e-20)
(-0.102999 -0.0597415 -3.63641e-21)
(-0.107884 -0.0553762 5.25838e-21)
(-0.112896 -0.050616 7.8791e-21)
(-0.118054 -0.0452872 -9.74242e-21)
(-0.123195 -0.0391596 2.03296e-20)
(-0.12873 -0.031938 2.70885e-21)
(0.00017413 -0.00511987 -3.25045e-21)
(0.00041527 -0.0148426 1.36054e-20)
(0.000458614 -0.0242517 -6.07847e-21)
(0.000301111 -0.0333025 9.5011e-21)
(-5.99954e-05 -0.0419504 -5.40307e-21)
(-0.000634428 -0.0501509 4.11835e-21)
(-0.00143231 -0.057861 -1.10393e-20)
(-0.00246233 -0.0650393 2.27466e-21)
(-0.00373184 -0.0716472 -5.93935e-21)
(-0.00524702 -0.0776491 2.84636e-20)
(-0.0070125 -0.0830135 -5.00391e-21)
(-0.00903101 -0.087714 -2.29663e-20)
(-0.0113033 -0.0917304 4.37475e-21)
(-0.013828 -0.0950496 -1.70197e-20)
(-0.0166016 -0.0976663 1.74613e-20)
(-0.0196185 -0.0995837 8.96806e-21)
(-0.0228706 -0.100814 2.96001e-21)
(-0.0263479 -0.101378 -1.54281e-20)
(-0.0300379 -0.101307 -1.07125e-20)
(-0.0339265 -0.10064 1.45709e-20)
(-0.0379974 -0.0994228 1.70621e-20)
(-0.0422331 -0.0977108 -2.23533e-20)
(-0.0466147 -0.095563 6.62672e-21)
(-0.0511228 -0.0930423 6.29678e-21)
(-0.0557374 -0.0902128 -2.44142e-20)
(-0.0604392 -0.0871374 2.36233e-21)
(-0.0652095 -0.0838753 -1.10784e-20)
(-0.0700314 -0.0804783 -1.68532e-21)
(-0.0748905 -0.0769883 -2.30862e-20)
(-0.0797758 -0.0734342 2.77852e-20)
(-0.0846805 -0.0698304 -2.36e-21)
(-0.0896035 -0.0661739 3.21183e-21)
(-0.0945502 -0.0624414 1.98089e-20)
(-0.0995338 -0.0585863 -4.49091e-20)
(-0.104576 -0.0545354 -1.05205e-20)
(-0.109712 -0.0501848 2.73894e-20)
(-0.115003 -0.0453958 -2.11431e-20)
(-0.120468 -0.0399885 -2.6336e-20)
(-0.125936 -0.0337228 -5.69303e-21)
(-0.131831 -0.0263048 -3.34814e-20)
(0.000290192 -0.00486749 1.58662e-20)
(0.000745672 -0.0141027 -1.03871e-20)
(0.000984697 -0.0230337 1.39927e-21)
(0.00100369 -0.0316175 1.96165e-21)
(0.000799588 -0.0398107 -4.26399e-21)
(0.000361966 -0.047571 1.65451e-20)
(-0.000319915 -0.0548569 -2.68058e-20)
(-0.001255 -0.061629 2.52574e-20)
(-0.00245069 -0.0678502 -6.9261e-21)
(-0.00391291 -0.073487 -1.29817e-20)
(-0.00564583 -0.0785097 5.79887e-21)
(-0.00765159 -0.0828939 2.12893e-21)
(-0.00993015 -0.0866212 -1.94994e-20)
(-0.0124791 -0.0896798 6.95089e-21)
(-0.0152937 -0.0920657 2.8243e-20)
(-0.0183667 -0.0937829 1.62478e-20)
(-0.0216883 -0.0948443 -6.45786e-20)
(-0.0252465 -0.0952714 4.17365e-20)
(-0.0290268 -0.0950945 -4.77417e-20)
(-0.0330127 -0.0943522 8.3655e-22)
(-0.0371858 -0.093091 2.93544e-20)
(-0.0415262 -0.0913636 1.42543e-20)
(-0.0460131 -0.0892277 -5.52243e-20)
(-0.0506247 -0.0867441 1.70271e-20)
(-0.0553395 -0.0839746 3.00284e-20)
(-0.0601365 -0.0809791 2.77416e-20)
(-0.0649959 -0.0778133 -3.43725e-20)
(-0.0699 -0.0745253 -1.54228e-20)
(-0.0748339 -0.0711525 -2.99286e-20)
(-0.0797869 -0.0677192 4.21122e-21)
(-0.0847528 -0.0642343 -2.31568e-21)
(-0.0897314 -0.0606884 -1.49571e-20)
(-0.0947299 -0.0570518 1.35812e-20)
(-0.0997636 -0.0532706 4.22443e-20)
(-0.104856 -0.0492641 -1.61457e-20)
(-0.110047 -0.0449214 -6.30116e-20)
(-0.115398 -0.0400982 2.8384e-20)
(-0.120933 -0.0346101 1.76832e-20)
(-0.126465 -0.0282093 3.34734e-21)
(-0.132433 -0.0206086 -4.31076e-20)
(0.000392092 -0.00459862 -1.16255e-20)
(0.00103529 -0.0133161 3.10168e-21)
(0.00144533 -0.0217414 1.59204e-20)
(0.00161818 -0.0298331 2.55605e-20)
(0.00155055 -0.0375495 -6.42083e-21)
(0.0012315 -0.0448501 -3.85826e-20)
(0.000649871 -0.0516956 2.17937e-21)
(-0.000203458 -0.0580483 -1.0894e-20)
(-0.00133581 -0.0638732 5.29639e-21)
(-0.00275279 -0.0691385 2.70033e-20)
(-0.00445803 -0.0738165 3.87312e-21)
(-0.00645293 -0.0778844 6.76538e-21)
(-0.00873647 -0.0813253 -1.83214e-20)
(-0.0113051 -0.0841289 -2.80225e-20)
(-0.0141526 -0.086292 3.00538e-20)
(-0.01727 -0.0878194 1.83125e-20)
(-0.0206458 -0.0887243 -4.24113e-20)
(-0.0242657 -0.0890282 1.22471e-20)
(-0.0281129 -0.088761 -3.6473e-20)
(-0.0321687 -0.0879607 2.30882e-20)
(-0.0364121 -0.0866723 1.17991e-20)
(-0.0408207 -0.0849469 -1.61988e-20)
(-0.045371 -0.0828404 1.18277e-20)
(-0.0500389 -0.0804111 -1.76398e-20)
(-0.0548006 -0.0777178 1.44786e-21)
(-0.0596327 -0.0748174 -6.42448e-20)
(-0.0645135 -0.0717619 7.8233e-20)
(-0.0694236 -0.0685955 3.85515e-20)
(-0.0743468 -0.0653511 -5.51248e-20)
(-0.0792709 -0.0620482 8.25418e-20)
(-0.0841891 -0.05869 -2.6185e-20)
(-0.0891008 -0.0552614 -4.82082e-20)
(-0.0940132 -0.0517257 1.20828e-21)
(-0.0989419 -0.0480223 -3.50122e-20)
(-0.103912 -0.0440632 5.77863e-20)
(-0.108962 -0.039731 1.18718e-20)
(-0.114161 -0.0348766 6.21145e-20)
(-0.119531 -0.0293118 -8.2852e-21)
(-0.124868 -0.0227816 4.89098e-20)
(-0.130627 -0.0150107 -9.72648e-21)
(0.000478882 -0.00431571 -5.91908e-21)
(0.00128144 -0.01249 -3.36797e-20)
(0.00183611 -0.0203864 7.92551e-21)
(0.00213856 -0.0279651 2.23252e-20)
(0.00218535 -0.0351864 2.3277e-20)
(0.00196515 -0.0420117 -5.43078e-20)
(0.00146655 -0.048404 -5.38321e-21)
(0.000680405 -0.0543276 2.09783e-20)
(-0.000400438 -0.0597493 -2.43962e-20)
(-0.00178117 -0.0646394 2.77617e-20)
(-0.00346479 -0.0689718 -2.46101e-20)
(-0.00545186 -0.0727255 -4.17515e-20)
(-0.00774028 -0.0758848 4.02175e-20)
(-0.0103252 -0.0784407 3.80489e-20)
(-0.0131988 -0.0803907 -1.93803e-20)
(-0.0163504 -0.0817403 1.43336e-20)
(-0.0197664 -0.0825026 1.95175e-21)
(-0.0234304 -0.0826989 6.02405e-21)
(-0.0273232 -0.0823585 -2.17218e-20)
(-0.0314233 -0.0815181 3.3935e-20)
(-0.0357072 -0.0802214 -2.87308e-22)
(-0.0401497 -0.0785176 5.78096e-21)
(-0.0447243 -0.0764601 -4.87302e-20)
(-0.0494042 -0.0741046 1.48457e-20)
(-0.0541624 -0.0715069 6.08058e-20)
(-0.058973 -0.0687205 -4.71025e-20)
(-0.0638115 -0.0657937 -4.87839e-21)
(-0.0686558 -0.0627665 1.21533e-19)
(-0.0734871 -0.0596676 -2.31836e-20)
(-0.078291 -0.0565114 -1.09457e-20)
(-0.0830583 -0.0532958 4.87502e-20)
(-0.0877866 -0.0499995 5.95555e-20)
(-0.0924813 -0.0465794 -6.18055e-20)
(-0.0971569 -0.0429678 1.90787e-20)
(-0.101837 -0.0390696 -1.81507e-20)
(-0.106562 -0.0347606 -1.30572e-20)
(-0.111402 -0.0298867 5.04437e-20)
(-0.116381 -0.024256 -8.94235e-20)
(-0.121275 -0.0176058 3.54246e-21)
(-0.126556 -0.00967561 2.01948e-21)
(0.00054981 -0.00402106 5.28406e-21)
(0.00148195 -0.0116311 -3.35758e-20)
(0.00215351 -0.0189794 -3.35943e-21)
(0.00255994 -0.0260284 5.27649e-20)
(0.00269773 -0.03274 -6.96462e-21)
(0.00255535 -0.0390781 1.93046e-20)
(0.00212127 -0.0450077 -5.00924e-20)
(0.00138644 -0.0504952 2.20901e-20)
(0.000344006 -0.0555098 -7.96403e-21)
(-0.00101072 -0.0600233 -2.5685e-20)
(-0.00268002 -0.0640115 2.21589e-20)
(-0.0046635 -0.0674549 -4.49901e-20)
(-0.00695792 -0.0703393 1.03838e-19)
(-0.00955698 -0.0726564 -1.17039e-19)
(-0.0124513 -0.0744046 2.28e-20)
(-0.0156283 -0.0755896 3.87546e-20)
(-0.0190723 -0.0762245 -2.98999e-20)
(-0.0227644 -0.0763301 -2.65499e-20)
(-0.0266832 -0.0759347 -6.37367e-20)
(-0.0308043 -0.0750739 -1.54096e-20)
(-0.0351013 -0.0737894 4.44628e-20)
(-0.0395459 -0.0721283 7.24046e-20)
(-0.0441087 -0.0701416 -4.51354e-20)
(-0.0487595 -0.0678821 -3.99017e-23)
(-0.053468 -0.0654024 -1.71944e-20)
(-0.0582049 -0.0627526 8.40656e-20)
(-0.062942 -0.059977 -1.19339e-19)
(-0.067654 -0.0571118 -1.1985e-19)
(-0.0723184 -0.0541814 -6.2053e-20)
(-0.0769173 -0.0511952 -4.91008e-20)
(-0.081438 -0.0481458 1.33328e-19)
(-0.0858745 -0.0450059 -1.17252e-19)
(-0.0902292 -0.0417258 -3.16993e-20)
(-0.0945134 -0.0382306 -1.01593e-19)
(-0.0987487 -0.0344177 6.21143e-20)
(-0.102974 -0.0301552 5.04372e-20)
(-0.107261 -0.0252835 -5.32771e-20)
(-0.111637 -0.0196055 1.50632e-19)
(-0.115856 -0.0128487 -4.64993e-20)
(-0.120404 -0.00476949 2.89746e-20)
(0.00060429 -0.00371685 2.69404e-20)
(0.00163513 -0.0107456 -1.58218e-20)
(0.00239473 -0.0175308 2.32175e-20)
(0.00287838 -0.0240369 3.5438e-20)
(0.00308266 -0.0302279 -1.0449e-19)
(0.00299593 -0.0360699 1.29228e-19)
(0.00260671 -0.0415303 -5.68331e-20)
(0.00190619 -0.0465779 4.09517e-20)
(0.000887912 -0.0511836 -4.41928e-20)
(-0.0004522 -0.0553215 3.11656e-21)
(-0.00211562 -0.0589689 -4.12699e-20)
(-0.00410094 -0.0621079 3.20563e-20)
(-0.00640365 -0.0647254 4.9246e-20)
(-0.00901601 -0.0668141 -1.51943e-19)
(-0.0119269 -0.068373 -2.96202e-21)
(-0.0151219 -0.0694079 2.18786e-20)
(-0.0185831 -0.0699317 1.3601e-19)
(-0.0222893 -0.0699645 -7.48836e-20)
(-0.0262163 -0.0695336 -8.90784e-21)
(-0.0303371 -0.0686729 -2.12797e-21)
(-0.0346223 -0.0674225 3.50303e-20)
(-0.0390404 -0.065827 -8.63975e-20)
(-0.0435584 -0.0639347 5.0655e-20)
(-0.0481427 -0.0617956 -9.96988e-20)
(-0.0527593 -0.0594591 5.93436e-20)
(-0.0573748 -0.0569716 3.28017e-20)
(-0.0619572 -0.0543741 8.58101e-20)
(-0.0664766 -0.0516985 -6.56741e-20)
(-0.0709063 -0.0489651 1.99615e-19)
(-0.0752236 -0.046179 -9.34378e-20)
(-0.0794109 -0.0433272 -5.36089e-20)
(-0.0834575 -0.0403767 8.76555e-20)
(-0.0873608 -0.037271 -5.9731e-20)
(-0.0911277 -0.0339277 1.2794e-20)
(-0.0947759 -0.0302358 5.08908e-20)
(-0.098342 -0.0260548 -2.27116e-19)
(-0.101899 -0.0212176 -4.12895e-20)
(-0.105476 -0.01552 2.5862e-20)
(-0.108808 -0.00867533 4.29189e-21)
(-0.112393 -0.000456332 -2.45116e-21)
(0.000641877 -0.00340509 -2.45214e-20)
(0.00173972 -0.00983929 8.76417e-21)
(0.00255762 -0.0160499 -1.33324e-19)
(0.00309087 -0.0220033 7.48488e-20)
(0.00333618 -0.0276659 -3.4301e-20)
(0.00328202 -0.0330062 -1.91941e-20)
(0.00291709 -0.0379938 4.50044e-20)
(0.00223291 -0.0425999 -2.72234e-20)
(0.00122358 -0.0467975 9.14909e-20)
(-0.000114288 -0.0505626 -9.4679e-20)
(-0.00178126 -0.0538744 1.57503e-19)
(-0.00377483 -0.0567164 -7.42771e-20)
(-0.00608919 -0.0590765 5.18487e-21)
(-0.00871509 -0.0609484 5.12622e-20)
(-0.0116397 -0.0623316 -7.34808e-21)
(-0.0148465 -0.0632318 -2.60599e-20)
(-0.0183155 -0.0636616 2.92582e-21)
(-0.0220232 -0.0636404 1.12037e-20)
(-0.0259426 -0.0631943 7.12682e-20)
(-0.030044 -0.0623554 -1.31602e-19)
(-0.0342947 -0.0611617 1.10756e-19)
(-0.03866 -0.0596558 -2.61838e-20)
(-0.0431034 -0.0578831 -1.36538e-20)
(-0.0475875 -0.0558907 1.10876e-20)
(-0.0520742 -0.0537247 7.59882e-20)
(-0.0565259 -0.0514284 -1.4377e-19)
(-0.0609058 -0.0490389 -5.08156e-20)
(-0.0651791 -0.0465849 2.36185e-19)
(-0.0693138 -0.0440825 -6.48038e-20)
(-0.0732816 -0.0415324 6.95735e-20)
(-0.077059 -0.038917 -6.8436e-20)
(-0.0806288 -0.0361973 -2.44318e-20)
(-0.0839823 -0.0333101 4.28715e-20)
(-0.0871203 -0.030165 2.83509e-19)
(-0.0900552 -0.0266418 7.49996e-20)
(-0.0928199 -0.0225896 -1.32648e-20)
(-0.0954884 -0.0178311 -2.6266e-20)
(-0.0980934 -0.0121515 4.29603e-20)
(-0.100351 -0.00524466 -1.43731e-20)
(-0.102767 0.00310477 -2.53496e-19)
(0.000662247 -0.00308762 2.91818e-21)
(0.00179478 -0.0089175 -2.003e-20)
(0.00264061 -0.0145452 3.85848e-20)
(0.00319516 -0.0199395 -6.81004e-20)
(0.00345541 -0.0250688 -6.35541e-20)
(0.00341004 -0.0299042 3.60336e-20)
(0.00304811 -0.0344179 1.00606e-19)
(0.00236162 -0.0385833 1.33814e-20)
(0.00134531 -0.0423757 -9.58683e-20)
(-3.39539e-06 -0.0457728 2.89557e-20)
(-0.00168408 -0.0487558 3.62065e-20)
(-0.00369307 -0.0513094 -6.74092e-20)
(-0.00602321 -0.0534229 1.00029e-19)
(-0.00866369 -0.0550906 -8.05347e-20)
(-0.0115999 -0.0563123 2.04546e-20)
(-0.0148134 -0.057094 6.96843e-20)
(-0.0182821 -0.0574476 -1.45223e-19)
(-0.0219798 -0.0573916 1.62263e-19)
(-0.0258772 -0.0569508 -1.20868e-19)
(-0.0299416 -0.0561557 6.57176e-20)
(-0.0341371 -0.0550424 2.86396e-22)
(-0.0384258 -0.0536506 -2.24883e-20)
(-0.0427676 -0.0520235 6.25462e-20)
(-0.047121 -0.0502052 -5.33126e-20)
(-0.0514437 -0.0482388 -8.81633e-20)
(-0.0556936 -0.0461643 2.07254e-19)
(-0.0598288 -0.0440158 -2.29184e-19)
(-0.0638091 -0.0418184 1.62139e-19)
(-0.0675964 -0.039585 7.61533e-20)
(-0.0711559 -0.0373124 3.64685e-20)
(-0.0744571 -0.0349785 -6.33595e-20)
(-0.0774753 -0.0325387 1.05215e-19)
(-0.0801941 -0.0299232 8.55673e-20)
(-0.0826069 -0.0270332 -2.55449e-19)
(-0.0847193 -0.0237379 -1.29475e-19)
(-0.0865596 -0.0198742 -8.36979e-20)
(-0.0882021 -0.0152514 2.07474e-19)
(-0.0896848 -0.00963931 -4.67846e-20)
(-0.0907065 -0.00270488 -3.10641e-20)
(-0.0917796 0.00576406 8.06596e-20)
(0.000665177 -0.00276607 1.43403e-22)
(0.00179968 -0.00798498 6.31402e-20)
(0.00264266 -0.0130246 -1.3441e-19)
(0.00318979 -0.0178559 4.32916e-20)
(0.00343845 -0.0224497 3.62339e-20)
(0.0033777 -0.0267798 3.61946e-20)
(0.00299707 -0.0308207 1.08926e-21)
(0.0022892 -0.0345482 -8.70824e-20)
(0.00124958 -0.0379399 -8.4562e-20)
(-0.00012343 -0.0409755 -7.12289e-21)
(-0.00182837 -0.0436377 6.74795e-20)
(-0.00386035 -0.0459129 1.33959e-20)
(-0.00621079 -0.0477914 -1.60994e-20)
(-0.00886732 -0.0492682 2.59599e-21)
(-0.0118136 -0.0503434 7.01821e-20)
(-0.0150292 -0.0510229 -6.87604e-20)
(-0.0184898 -0.0513182 -2.26264e-20)
(-0.022167 -0.0512468 2.22181e-20)
(-0.0260288 -0.0508321 -6.41934e-20)
(-0.0300396 -0.050103 -1.05968e-19)
(-0.0341607 -0.0490933 1.59086e-19)
(-0.0383507 -0.0478406 5.66147e-20)
(-0.0425658 -0.0463853 -9.38778e-20)
(-0.0467606 -0.0447689 -1.72199e-19)
(-0.0508886 -0.0430317 1.34635e-19)
(-0.0549026 -0.0412108 -7.55283e-21)
(-0.0587557 -0.0393375 3.4716e-20)
(-0.0624016 -0.037434 3.12205e-20)
(-0.0657961 -0.0355104 -6.98442e-20)
(-0.0688969 -0.0335605 5.4194e-21)
(-0.0716654 -0.0315579 1.90169e-19)
(-0.0740686 -0.0294535 -1.67171e-19)
(-0.076081 -0.0271707 -3.57746e-20)
(-0.0776873 -0.0246021 9.59942e-20)
(-0.0788853 -0.0216052 7.37537e-20)
(-0.0796972 -0.0180021 5.27914e-20)
(-0.0801975 -0.0135851 -1.93682e-19)
(-0.0804319 -0.00810291 3.31483e-21)
(-0.0800855 -0.00118665 6.26715e-20)
(-0.0796684 0.00738653 -5.27995e-21)
(0.000650537 -0.00244196 -2.04668e-20)
(0.0017541 -0.00704612 2.48863e-21)
(0.00256326 -0.0114951 1.97301e-20)
(0.00307408 -0.0157623 4.60579e-20)
(0.00328446 -0.019821 -3.53629e-20)
(0.00318401 -0.0236473 4.10973e-20)
(0.0027629 -0.0272186 5.19908e-20)
(0.00201454 -0.030513 -1.11565e-19)
(0.000935282 -0.0335102 8.66233e-21)
(-0.000475506 -0.036192 3.97582e-20)
(-0.00221521 -0.0385428 -4.56918e-20)
(-0.00427765 -0.0405504 -3.05433e-21)
(-0.00665282 -0.0422062 2.74726e-20)
(-0.00932675 -0.0435057 -8.16307e-20)
(-0.0122813 -0.0444496 -4.52914e-20)
(-0.0154943 -0.0450434 5.25227e-20)
(-0.0189391 -0.0452982 -1.97448e-20)
(-0.0225851 -0.0452304 -4.1223e-20)
(-0.0263978 -0.0448621 2.14948e-19)
(-0.030339 -0.0442205 -2.14638e-19)
(-0.0343668 -0.0433372 1.46705e-19)
(-0.0384366 -0.0422477 -5.84941e-20)
(-0.0425011 -0.0409899 1.50905e-19)
(-0.0465109 -0.0396026 -2.02473e-19)
(-0.0504152 -0.0381238 1.06468e-19)
(-0.0541622 -0.0365881 -5.30283e-20)
(-0.057699 -0.0350242 5.21687e-20)
(-0.0609742 -0.0334525 -5.75858e-21)
(-0.0639354 -0.0318805 -9.17506e-20)
(-0.0665336 -0.0303 6.66929e-20)
(-0.0687212 -0.0286819 -1.55107e-19)
(-0.0704556 -0.0269725 1.33984e-19)
(-0.0717013 -0.0250894 8.36227e-20)
(-0.0724331 -0.0229161 -1.46975e-19)
(-0.0726398 -0.0202975 -6.0427e-20)
(-0.0723368 -0.0170386 2.88577e-19)
(-0.0715985 -0.0129101 9.74985e-20)
(-0.070482 -0.00763343 -3.75274e-20)
(-0.0686631 -0.000794842 -1.89634e-20)
(-0.0666354 0.00785842 -5.54287e-20)
(0.000618287 -0.00211673 4.85292e-20)
(0.00165799 -0.00610505 -9.80878e-20)
(0.00240239 -0.00996347 1.5925e-20)
(0.0028481 -0.0136679 9.42726e-21)
(0.00299369 -0.0171938 3.62314e-20)
(0.00282945 -0.0205202 -9.82522e-20)
(0.00234638 -0.0236269 9.11045e-20)
(0.00153874 -0.0264946 -1.16932e-19)
(0.000403929 -0.029105 5.11622e-21)
(-0.0010576 -0.031442 -3.54291e-20)
(-0.00284202 -0.0334917 9.50249e-20)
(-0.00494177 -0.0352432 3.21619e-20)
(-0.00734538 -0.0366889 -1.33394e-20)
(-0.0100373 -0.0378253 3.56329e-20)
(-0.0129977 -0.0386528 -9.36085e-20)
(-0.0162023 -0.0391771 6.2072e-20)
(-0.0196228 -0.0394086 2.23146e-19)
(-0.0232261 -0.0393627 -1.60026e-19)
(-0.0269754 -0.0390602 -1.39533e-19)
(-0.0308298 -0.0385263 1.09986e-19)
(-0.0347447 -0.037791 4.1529e-20)
(-0.0386723 -0.0368873 -6.46686e-20)
(-0.0425619 -0.0358509 3.55661e-20)
(-0.0463605 -0.0347184 4.18446e-20)
(-0.0500127 -0.0335253 -9.33915e-20)
(-0.053462 -0.0323045 7.9336e-21)
(-0.0566507 -0.031083 -8.78304e-20)
(-0.0595196 -0.0298792 1.16983e-19)
(-0.0620111 -0.0286999 1.62582e-19)
(-0.0640665 -0.0275353 -4.01632e-21)
(-0.0656296 -0.0263547 1.48176e-19)
(-0.0666478 -0.0251015 -3.06027e-20)
(-0.0670744 -0.0236879 -2.97153e-20)
(-0.0668735 -0.0219887 2.86726e-20)
(-0.0660237 -0.0198354 -1.99918e-19)
(-0.0645327 -0.0170133 7.94559e-20)
(-0.0624753 -0.0132666 1.43192e-19)
(-0.0599251 -0.00828323 -1.73067e-19)
(-0.0565567 -0.0015969 9.39584e-20)
(-0.0528161 0.00709609 1.29664e-19)
(0.000568488 -0.00179176 7.24158e-20)
(0.00151162 -0.00516583 -6.15323e-21)
(0.00216064 -0.00843629 2.58008e-20)
(0.00251284 -0.0115815 -4.82639e-20)
(0.0025676 -0.0145794 6.42957e-20)
(0.0023161 -0.0174116 -4.09149e-20)
(0.00175025 -0.0200606 -1.11952e-19)
(0.000865393 -0.0225094 -1.76117e-20)
(-0.00033998 -0.024742 7.13365e-20)
(-0.0018642 -0.0267441 -1.78784e-20)
(-0.00370211 -0.0285037 3.80691e-20)
(-0.00584476 -0.0300112 -1.07488e-19)
(-0.00827914 -0.0312599 -6.95567e-20)
(-0.0109881 -0.0322469 2.04198e-19)
(-0.0139501 -0.0329728 1.54424e-19)
(-0.0171392 -0.0334431 -2.4639e-19)
(-0.0205248 -0.0336675 9.11252e-20)
(-0.024072 -0.0336606 -1.60555e-19)
(-0.0277415 -0.0334415 5.83954e-20)
(-0.03149 -0.033034 -3.77144e-20)
(-0.0352704 -0.0324658 7.14927e-20)
(-0.0390319 -0.0317683 1.8277e-20)
(-0.0427205 -0.0309746 1.75998e-20)
(-0.0462795 -0.0301194 4.17511e-20)
(-0.0496496 -0.0292366 -6.97573e-20)
(-0.0527694 -0.0283573 7.96368e-20)
(-0.0555752 -0.0275074 1.00961e-19)
(-0.0580027 -0.0267047 -1.22447e-19)
(-0.0599856 -0.0259554 -7.24275e-20)
(-0.0614579 -0.0252499 -1.20055e-19)
(-0.0623541 -0.0245571 -1.09457e-19)
(-0.0626102 -0.023819 1.93309e-19)
(-0.0621687 -0.0229436 -2.74697e-19)
(-0.0609814 -0.0217982 2.6813e-19)
(-0.0590157 -0.0202004 -3.74323e-19)
(-0.0562711 -0.0179129 -1.39422e-20)
(-0.0528225 -0.0146478 -2.82182e-20)
(-0.0487702 -0.010052 7.32443e-20)
(-0.0438023 -0.00360353 -2.8725e-20)
(-0.0382534 0.00507041 1.37904e-20)
(0.000501329 -0.00146851 -2.30314e-20)
(0.00131565 -0.00423258 8.58305e-20)
(0.00183926 -0.00692018 -1.30333e-19)
(0.00207031 -0.00951212 1.04815e-20)
(0.00200908 -0.0119888 6.47158e-20)
(0.00164781 -0.0143346 2.94285e-20)
(0.00097955 -0.0165344 -1.43461e-19)
(8.18507e-07 -0.0185737 1.89713e-19)
(-0.00128864 -0.0204386 -1.65571e-19)
(-0.00288588 -0.0221169 1.93154e-19)
(-0.00478434 -0.023598 -2.24168e-19)
(-0.00697348 -0.0248738 1.12703e-19)
(-0.0094388 -0.0259386 -1.00537e-19)
(-0.0121615 -0.0267896 -9.85387e-20)
(-0.0151185 -0.0274278 1.3179e-19)
(-0.0182818 -0.0278586 -9.19803e-20)
(-0.0216193 -0.0280907 8.0897e-20)
(-0.0250937 -0.028138 6.51572e-20)
(-0.0286639 -0.0280181 -2.46661e-19)
(-0.0322842 -0.0277528 4.7542e-20)
(-0.0359049 -0.0273684 -3.4428e-20)
(-0.0394725 -0.026894 -1.37918e-19)
(-0.04293 -0.0263608 1.67432e-20)
(-0.0462167 -0.0258017 7.73243e-20)
(-0.0492696 -0.025249 -1.52239e-20)
(-0.0520221 -0.0247329 -9.11165e-20)
(-0.054406 -0.0242787 -1.91336e-19)
(-0.05635 -0.0239043 2.65279e-19)
(-0.0577814 -0.0236164 -1.48196e-19)
(-0.0586256 -0.0234066 7.85759e-20)
(-0.0588073 -0.0232451 -3.37538e-19)
(-0.0582522 -0.0230744 2.63394e-19)
(-0.0568903 -0.0228007 1.30657e-19)
(-0.05466 -0.0222849 -1.25767e-19)
(-0.0515169 -0.0213308 2.3392e-19)
(-0.0474501 -0.0196758 1.45697e-19)
(-0.0425358 -0.016992 2.6016e-19)
(-0.036915 -0.0128743 -1.40526e-19)
(-0.0303315 -0.00672842 1.70668e-20)
(-0.0228931 0.00191682 -4.44859e-20)
(0.000417156 -0.00114851 1.18206e-19)
(0.00107122 -0.00330969 -2.02454e-19)
(0.00144035 -0.00542218 1.68804e-19)
(0.00152367 -0.00746926 -1.08587e-19)
(0.00132254 -0.00943386 9.35917e-20)
(0.00083042 -0.0113028 -1.09444e-19)
(4.17277e-05 -0.0130639 -3.05956e-21)
(-0.0010457 -0.0147045 1.08422e-19)
(-0.00243075 -0.0162131 -5.54916e-20)
(-0.00410908 -0.017579 1.41846e-20)
(-0.00607236 -0.0187939 1.14415e-19)
(-0.00830884 -0.0198502 1.78061e-19)
(-0.010802 -0.0207438 -3.05028e-19)
(-0.0135319 -0.0214718 1.60852e-19)
(-0.0164733 -0.0220356 -9.35523e-20)
(-0.0195972 -0.0224394 -1.25563e-20)
(-0.022869 -0.0226926 -1.9147e-20)
(-0.0262499 -0.0228073 -2.3725e-19)
(-0.0296968 -0.0227996 -1.51977e-19)
(-0.0331616 -0.0226899 1.77034e-19)
(-0.0365922 -0.0225022 2.59153e-21)
(-0.0399322 -0.0222637 -2.36475e-20)
(-0.0431213 -0.0220044 -7.84124e-20)
(-0.0460957 -0.0217551 2.39273e-19)
(-0.0487879 -0.0215469 -1.86181e-19)
(-0.0511275 -0.0214093 8.95569e-20)
(-0.0530406 -0.0213675 -3.6867e-20)
(-0.0544503 -0.0214402 4.44742e-19)
(-0.0552769 -0.0216359 -3.94495e-19)
(-0.0554374 -0.0219484 -1.48735e-19)
(-0.0548473 -0.0223512 7.6391e-20)
(-0.0534208 -0.0227892 2.59785e-20)
(-0.0510745 -0.0231699 -3.57859e-20)
(-0.0477329 -0.0233502 4.14219e-20)
(-0.0433364 -0.0231218 -1.79192e-19)
(-0.0378621 -0.0221942 1.91054e-19)
(-0.0313834 -0.0201909 -2.79098e-19)
(-0.0240877 -0.0166287 2.5486e-19)
(-0.0158634 -0.0107648 -5.12568e-20)
(-0.00656106 -0.00189545 -6.54812e-21)
(0.000316523 -0.000833487 8.90722e-20)
(0.000780027 -0.00240203 -2.43074e-19)
(0.000966872 -0.00395003 1.60134e-19)
(0.000877305 -0.00546321 2.29775e-20)
(0.000513951 -0.00692688 2.27559e-20)
(-0.000128072 -0.00833087 -1.50978e-19)
(-0.00105306 -0.00966497 1.90126e-19)
(-0.00226131 -0.0109193 -3.66298e-20)
(-0.00375048 -0.0120837 -2.48235e-19)
(-0.0055141 -0.0131502 2.74511e-20)
(-0.00754306 -0.0141107 2.22344e-19)
(-0.00982321 -0.0149605 -1.35175e-20)
(-0.0123372 -0.0156953 7.78459e-20)
(-0.0150635 -0.0163127 -5.29791e-21)
(-0.0179752 -0.016814 1.41157e-19)
(-0.0210414 -0.017203 4.56116e-20)
(-0.0242258 -0.0174881 -2.01664e-19)
(-0.0274877 -0.0176803 2.40799e-19)
(-0.0307815 -0.0177948 -1.10662e-19)
(-0.034057 -0.01785 1.20143e-19)
(-0.0372594 -0.0178682 1.47422e-20)
(-0.0403294 -0.0178748 -1.75229e-19)
(-0.0432039 -0.0178975 -6.34781e-20)
(-0.0458155 -0.0179659 -4.61474e-20)
(-0.0480931 -0.0181098 3.6192e-19)
(-0.0499617 -0.0183581 -1.47858e-19)
(-0.0513424 -0.0187364 1.89316e-19)
(-0.0521528 -0.0192648 -2.41116e-20)
(-0.0523058 -0.0199542 1.77067e-19)
(-0.051711 -0.0208023 -1.00112e-19)
(-0.0502734 -0.0217873 1.15028e-19)
(-0.0478962 -0.0228596 1.41404e-19)
(-0.0444819 -0.0239309 -2.7485e-19)
(-0.0399388 -0.0248591 -7.04047e-20)
(-0.0341891 -0.0254273 2.16002e-19)
(-0.0271927 -0.0253207 5.08702e-20)
(-0.0190045 -0.0241105 -1.16263e-20)
(-0.00979447 -0.0212186 3.19948e-20)
(0.000422675 -0.0157341 -6.34409e-20)
(0.0115456 -0.00648636 -3.05512e-19)
(0.000199911 -0.000524844 5.4019e-21)
(0.00044385 -0.00151393 -8.44045e-20)
(0.000422351 -0.00251089 7.57544e-20)
(0.000137016 -0.00350366 -1.8205e-20)
(-0.000407557 -0.00448063 -1.87081e-19)
(-0.00121532 -0.00543325 1.64834e-19)
(-0.00228805 -0.00635508 9.93599e-20)
(-0.00362522 -0.00723759 -1.83989e-20)
(-0.00522263 -0.00807273 -1.35632e-20)
(-0.00707266 -0.00885345 -1.68301e-19)
(-0.00916424 -0.00957358 3.32251e-20)
(-0.0114821 -0.0102287 1.97111e-19)
(-0.0140071 -0.0108156 -2.7089e-19)
(-0.0167155 -0.011333 2.06857e-19)
(-0.0195791 -0.0117815 -4.75333e-20)
(-0.0225646 -0.0121652 -8.66638e-20)
(-0.0256338 -0.012491 -8.79139e-20)
(-0.0287438 -0.0127691 8.83012e-20)
(-0.0318469 -0.013013 5.22041e-20)
(-0.0348904 -0.0132394 -1.48664e-19)
(-0.0378169 -0.0134688 -1.21444e-19)
(-0.0405644 -0.0137243 -3.90424e-21)
(-0.0430666 -0.0140319 -2.40098e-21)
(-0.0452527 -0.0144193 2.46869e-20)
(-0.0470475 -0.0149152 -5.24622e-20)
(-0.0483716 -0.015548 -8.69257e-20)
(-0.0491413 -0.0163437 2.05487e-20)
(-0.0492679 -0.0173242 1.42579e-19)
(-0.0486579 -0.0185035 -2.55191e-19)
(-0.0472121 -0.019884 -8.41278e-20)
(-0.0448266 -0.0214505 5.18642e-20)
(-0.0413922 -0.0231614 -2.08697e-19)
(-0.0367981 -0.0249368 2.60989e-19)
(-0.030935 -0.0266408 -4.62385e-20)
(-0.0237066 -0.028056 -5.47614e-20)
(-0.0150534 -0.0288522 2.51169e-19)
(-0.00502145 -0.028562 1.33201e-19)
(0.00623311 -0.0265203 -8.72017e-20)
(0.0188464 -0.0215615 -1.84409e-19)
(0.0321239 -0.0122659 2.81429e-19)
(6.86632e-05 -0.000224864 1.62782e-20)
(6.70039e-05 -0.000652105 -1.5883e-19)
(-0.000185385 -0.00111598 4.23275e-20)
(-0.00068527 -0.00160672 2.22924e-19)
(-0.00142714 -0.00211428 -1.55104e-19)
(-0.0024127 -0.00263312 1.03518e-19)
(-0.00364281 -0.00315806 -1.36746e-19)
(-0.00511501 -0.00368321 3.69415e-20)
(-0.00682323 -0.00420275 5.53634e-20)
(-0.00875826 -0.00471101 -3.64486e-20)
(-0.0109069 -0.00520334 -4.80099e-20)
(-0.0132522 -0.00567607 8.69262e-20)
(-0.0157729 -0.00612674 -1.15042e-19)
(-0.0184435 -0.00655426 4.41533e-20)
(-0.0212335 -0.00695961 4.84708e-20)
(-0.0241077 -0.00734609 -3.60813e-20)
(-0.0270259 -0.0077197 1.8865e-19)
(-0.0299428 -0.00808927 4.7846e-20)
(-0.0328084 -0.00846667 8.78607e-20)
(-0.0355674 -0.0088669 -2.9087e-20)
(-0.0381597 -0.0093081 -7.94058e-20)
(-0.0405202 -0.00981143 1.92441e-19)
(-0.0425791 -0.0104007 -8.79597e-20)
(-0.0442618 -0.0111017 -3.67494e-19)
(-0.0454892 -0.0119417 1.40006e-19)
(-0.0461768 -0.0129484 -2.46042e-19)
(-0.0462356 -0.014148 -1.19368e-19)
(-0.0455707 -0.0155641 2.45571e-19)
(-0.0440815 -0.017214 -1.07813e-19)
(-0.0416607 -0.0191055 5.45811e-20)
(-0.0381945 -0.0212309 1.88216e-19)
(-0.0335626 -0.023559 -4.14056e-19)
(-0.0276401 -0.0260218 -2.57668e-19)
(-0.0203021 -0.0284955 1.45439e-19)
(-0.0114328 -0.0307706 -2.00472e-19)
(-0.000953099 -0.0325125 2.1881e-21)
(0.0111034 -0.0332228 -5.01287e-20)
(0.0245919 -0.0321375 2.94582e-19)
(0.0396952 -0.0278471 -6.01119e-19)
(0.0554172 -0.0188323 2.01728e-19)
(-7.56194e-05 6.37664e-05 1.11301e-20)
(-0.000346082 0.000176414 -5.78546e-20)
(-0.000849342 0.000224473 1.5917e-20)
(-0.00158081 0.000215472 1.01691e-19)
(-0.00253345 0.000157352 -1.13249e-19)
(-0.00370723 5.35312e-05 -2.26617e-20)
(-0.00510108 -9.29095e-05 -1.1999e-19)
(-0.00671039 -0.0002782 2.35985e-19)
(-0.00852725 -0.000498262 -1.50036e-19)
(-0.0105403 -0.00074921 5.36162e-20)
(-0.0127344 -0.00102756 1.33487e-19)
(-0.0150905 -0.00133049 -1.8506e-19)
(-0.0175854 -0.00165605 1.32303e-19)
(-0.0201912 -0.00200353 -5.02001e-20)
(-0.0228754 -0.00237373 3.03816e-20)
(-0.0256005 -0.00276937 5.16192e-21)
(-0.0283238 -0.00319542 -3.17722e-19)
(-0.0309978 -0.00365931 1.63913e-19)
(-0.0335696 -0.00417117 -1.82757e-19)
(-0.035981 -0.00474397 1.5832e-20)
(-0.0381688 -0.00539357 9.21113e-20)
(-0.0400644 -0.00613872 -1.2403e-19)
(-0.0415942 -0.00700077 -9.10403e-20)
(-0.0426794 -0.00800339 1.2899e-19)
(-0.0432357 -0.00917198 2.16513e-19)
(-0.0431736 -0.0105329 -2.16735e-19)
(-0.0423979 -0.0121123 2.92509e-19)
(-0.0408071 -0.0139347 -1.13975e-19)
(-0.0382929 -0.0160204 3.03826e-19)
(-0.0347397 -0.0183825 8.24086e-20)
(-0.030024 -0.0210212 -3.52749e-19)
(-0.0240144 -0.0239166 2.75025e-20)
(-0.0165734 -0.0270156 4.79257e-20)
(-0.00756103 -0.0302119 -2.01284e-19)
(0.00315625 -0.0333122 -3.04667e-21)
(0.0156762 -0.0359906 -3.7308e-20)
(0.0299796 -0.0377331 -5.25608e-20)
(0.0459264 -0.0376964 7.56043e-20)
(0.063713 -0.0342447 -8.90954e-20)
(0.0821132 -0.0255429 -1.23191e-19)
(-0.000231177 0.000338439 -8.35031e-20)
(-0.000790256 0.000964295 1.47163e-19)
(-0.00156096 0.00149884 3.53653e-20)
(-0.00253716 0.00194734 -1.11286e-19)
(-0.00371015 0.00231557 7.46101e-21)
(-0.00507784 0.00260484 1.37824e-19)
(-0.00663695 0.00281619 -1.31437e-19)
(-0.00838069 0.00295151 9.72706e-20)
(-0.0102989 0.0030131 -1.75493e-19)
(-0.012378 0.00300338 -4.56053e-20)
(-0.0146007 0.00292463 1.88672e-19)
(-0.0169456 0.00277883 -1.08453e-19)
(-0.019387 0.00256741 5.07808e-20)
(-0.0218949 0.00229094 5.59393e-20)
(-0.0244341 0.00194885 2.55709e-20)
(-0.0269645 0.00153908 -7.98072e-20)
(-0.029441 0.00105778 2.4609e-19)
(-0.0318129 0.000499015 -8.57569e-20)
(-0.0340243 -0.000145439 1.06134e-19)
(-0.0360138 -0.000886327 -8.34166e-20)
(-0.0377142 -0.00173702 -2.5106e-20)
(-0.039053 -0.00271352 -3.51641e-20)
(-0.039952 -0.00383445 -1.61359e-19)
(-0.0403272 -0.00512075 3.76803e-20)
(-0.0400891 -0.0065954 3.00855e-20)
(-0.0391416 -0.00828283 1.35121e-19)
(-0.0373827 -0.0102081 -8.28048e-20)
(-0.0347033 -0.0123959 6.17829e-20)
(-0.030987 -0.0148683 -2.44453e-20)
(-0.0261091 -0.0176427 1.04178e-19)
(-0.0199365 -0.0207266 -4.1469e-20)
(-0.0123275 -0.0241114 -1.18518e-19)
(-0.00313275 -0.02776 1.75006e-19)
(0.00780025 -0.0315872 -2.6326e-19)
(0.0206196 -0.0354242 1.04657e-19)
(0.0354404 -0.0389671 1.17695e-19)
(0.0522551 -0.0417078 2.43541e-19)
(0.0709226 -0.0427532 -1.94548e-19)
(0.0916517 -0.040247 1.85704e-19)
(0.113037 -0.0319104 1.84079e-19)
(-0.000395918 0.000596828 9.34642e-21)
(-0.00125924 0.00170485 1.82451e-19)
(-0.00230952 0.00269628 -1.05616e-21)