/*--------------------------------*- C++ -*----------------------------------*\
  =========                 |
  \\      /  F ield         | OpenFOAM: The Open Source CFD Toolbox
   \\    /   O peration     | Website:  https://openfoam.org
    \\  /    A nd           | Version:  7
     \\/     M anipulation  |
\*---------------------------------------------------------------------------*/
FoamFile
{
    version     2.0;
    format      ascii;
    class       volVectorField;
    location    "3";
    object      U;
}
// * * * * * * * * * * * * * * * * * * * * * * * * * * * * * * * * * * * * * //

dimensions      [0 1 -1 0 0 0 0];

internalField   nonuniform List<vector> 
344
(
(1.00619 -0.00313058 -1.4801e-14)
(1.0074 -0.00328308 -1.14558e-14)
(1.00865 -0.00339586 -1.54026e-14)
(1.00994 -0.00347613 -1.67566e-14)
(1.01125 -0.00352076 -1.44878e-14)
(1.01257 -0.00354409 -1.51714e-14)
(1.01389 -0.00353494 -1.76512e-14)
(1.01519 -0.00351957 -1.5914e-14)
(1.01649 -0.00346923 -1.5902e-14)
(1.01773 -0.00343389 -1.70061e-14)
(1.019 -0.00335143 -1.40782e-14)
(1.02017 -0.00331585 -1.67723e-14)
(1.02141 -0.00320291 -1.69236e-14)
(1.02247 -0.00318541 -1.62492e-14)
(1.02373 -0.00303876 -1.69386e-14)
(1.02461 -0.00305853 -1.42866e-14)
(1.02598 -0.00287123 -1.5447e-14)
(1.02657 -0.00293862 -1.38293e-14)
(1.0282 -0.00271248 -1.54678e-14)
(1.02833 -0.00281492 -1.33315e-14)
(1.03046 -0.00258905 -1.42972e-14)
(1.02982 -0.00265384 -1.05283e-14)
(1.03283 -0.00254977 -1.25957e-14)
(1.031 -0.0023816 -8.75639e-15)
(1.03535 -0.00268848 -1.31691e-14)
(1.03186 -0.00188223 -6.81855e-15)
(1.03802 -0.00314517 -1.16765e-14)
(1.03246 -0.000988842 -6.33164e-15)
(1.0407 -0.00409265 -1.14217e-14)
(1.03303 0.000475925 -6.81252e-15)
(1.0431 -0.00568919 -1.13617e-14)
(1.03398 0.00262587 -7.51032e-15)
(1.04472 -0.00797526 -1.09803e-14)
(1.03585 0.00540664 -6.79199e-15)
(1.04499 -0.0107792 -1.16885e-14)
(1.03916 0.00848479 -9.23191e-15)
(1.04354 -0.0136439 -1.02407e-14)
(1.04408 0.0112659 -8.76338e-15)
(1.0405 -0.0158905 -9.42459e-15)
(1.05015 0.0130444 -8.88484e-15)
(1.03671 -0.0168508 -8.96662e-15)
(1.05623 0.0133094 -1.05315e-14)
(1.03352 -0.0161972 -8.37828e-15)
(1.06092 0.0120649 -9.42098e-15)
(1.03216 -0.0142285 -7.63397e-15)
(1.0633 0.00992338 -8.89337e-15)
(1.03307 -0.0118444 -8.87164e-15)
(1.06352 0.00791368 -7.86022e-15)
(1.03563 -0.0101076 -1.09308e-14)
(1.06253 0.00694834 -7.29574e-15)
(1.03877 -0.00967531 -1.13469e-14)
(1.06125 0.00732417 -6.66419e-15)
(1.04194 -0.0104859 -1.33544e-14)
(1.05984 0.00870457 -5.18072e-15)
(1.04533 -0.0120073 -1.61555e-14)
(1.05799 0.0105601 -5.45938e-15)
(1.04897 -0.0137899 -1.49834e-14)
(1.05622 0.0125146 -5.48856e-15)
(1 -0.000254659 3.83847e-15)
(1.00016 -0.000759423 -3.45828e-15)
(1.00047 -0.0012517 3.06059e-15)
(1.00094 -0.00172355 -3.98644e-15)
(1.00155 -0.00216738 6.74996e-16)
(1.0023 -0.00257608 -4.93676e-15)
(1.00318 -0.00294406 7.16378e-16)
(1.00418 -0.00326606 -5.64729e-15)
(1.00528 -0.00353999 -8.41257e-16)
(1.00647 -0.00376349 -7.36865e-15)
(1.00772 -0.00393988 -7.15379e-16)
(1.00901 -0.00406803 -6.86684e-15)
(1.01034 -0.00415706 -9.84574e-16)
(1.01169 -0.00420329 -7.22867e-15)
(1.01303 -0.00422454 -1.62085e-15)
(1.01437 -0.00420717 -5.48273e-15)
(1.01569 -0.00418364 -8.1596e-16)
(1.017 -0.00411759 -5.83306e-15)
(1.01827 -0.0040727 1.23805e-16)
(1.01953 -0.00396817 -4.85607e-15)
(1.02072 -0.00392674 -5.35745e-17)
(1.02195 -0.00378344 -4.09599e-15)
(1.02303 -0.0037709 4.08702e-16)
(1.02426 -0.00357972 -3.90003e-15)
(1.02518 -0.00362514 3.07698e-16)
(1.0265 -0.00336926 -4.13128e-15)
(1.02715 -0.00349597 -4.2383e-16)
(1.0287 -0.00316195 -4.13366e-15)
(1.02891 -0.0033733 9.86506e-16)
(1.03094 -0.00298617 -5.04562e-15)
(1.03042 -0.00321841 1.66851e-15)
(1.03329 -0.00289903 -6.09167e-15)
(1.03161 -0.002942 2.10904e-15)
(1.0358 -0.00301773 -6.46689e-15)
(1.03247 -0.00239364 2.92438e-15)
(1.03845 -0.00352879 -7.07798e-15)
(1.03309 -0.00134906 3.12055e-15)
(1.0411 -0.00466973 -8.41551e-15)
(1.03373 0.000440698 3.49565e-15)
(1.04337 -0.00666977 -9.5084e-15)
(1.03487 0.00314855 3.66551e-15)
(1.04471 -0.00959912 -1.16047e-14)
(1.03714 0.00671007 5.15217e-15)
(1.04446 -0.0132195 -1.20218e-14)
(1.0411 0.0106596 6.588e-15)
(1.04226 -0.0168731 -1.32447e-14)
(1.04684 0.014135 7.49649e-15)
(1.03838 -0.0195733 -1.30537e-14)
(1.05366 0.0161203 7.75909e-15)
(1.03398 -0.0203908 -1.32689e-14)
(1.06004 0.0159413 6.99755e-15)
(1.03074 -0.0189807 -1.25512e-14)
(1.06438 0.0137702 5.8735e-15)
(1.03001 -0.0159878 -1.15067e-14)
(1.06588 0.0107016 7.1921e-15)
(1.03187 -0.012849 -1.30809e-14)
(1.06521 0.00823917 8.41114e-15)
(1.03508 -0.010929 -1.30398e-14)
(1.0639 0.00734066 1.12554e-14)
(1.03823 -0.0106413 -1.55519e-14)
(1.06282 0.00782286 1.59828e-14)
(1.04121 -0.0113539 -1.96502e-14)
(1.06132 0.00887954 1.96509e-14)
(1.04524 -0.0123465 -2.42998e-14)
(1.05816 0.0102082 2.02464e-14)
(1.05089 -0.0137931 -2.54283e-14)
(1.05391 0.0122922 2.25834e-14)
(1 -0.000303184 6.55428e-15)
(1.00017 -0.000903869 -6.94104e-15)
(1.0005 -0.00148904 3.6173e-15)
(1.00099 -0.00204886 -9.36743e-15)
(1.00164 -0.00257391 -7.01549e-16)
(1.00243 -0.00305548 -1.01737e-14)
(1.00336 -0.0034867 -4.51854e-15)
(1.00442 -0.00386139 -1.17136e-14)
(1.00557 -0.00417727 -6.41718e-15)
(1.00681 -0.00443202 -1.28306e-14)
(1.00811 -0.00462996 -6.87251e-15)
(1.00946 -0.00477058 -1.32793e-14)
(1.01083 -0.00486494 -9.49435e-15)
(1.01221 -0.00490938 -1.2271e-14)
(1.01359 -0.00492499 -8.65066e-15)
(1.01496 -0.00489613 -1.26414e-14)
(1.01631 -0.00486112 -7.18286e-15)
(1.01762 -0.00477672 -1.0917e-14)
(1.01891 -0.00471944 -5.58411e-15)
(1.02017 -0.00459071 -9.29602e-15)
(1.02139 -0.00454155 -4.38915e-15)
(1.02259 -0.00436613 -9.0308e-15)
(1.02371 -0.00435797 -3.39549e-15)
(1.02489 -0.00411997 -8.15864e-15)
(1.02588 -0.00419328 -2.7989e-15)
(1.0271 -0.00386333 -5.95972e-15)
(1.02787 -0.00405735 -2.33521e-15)
(1.02927 -0.00360259 -4.86604e-15)
(1.02967 -0.00394168 -1.97221e-15)
(1.03145 -0.00336585 -2.7018e-15)
(1.03123 -0.00380385 -1.01619e-15)
(1.03372 -0.00321786 -2.83719e-15)
(1.03249 -0.00353839 -9.6707e-16)
(1.03614 -0.00330037 -2.93603e-15)
(1.03346 -0.00295762 -2.05215e-16)
(1.03867 -0.00385207 -2.67153e-15)
(1.03421 -0.00177059 -2.20112e-16)
(1.04114 -0.00518781 -3.29347e-15)
(1.03505 0.00035774 -1.49183e-15)
(1.04318 -0.00762255 -3.93534e-15)
(1.03647 0.00367229 -7.91454e-16)
(1.04418 -0.0112654 -4.99403e-15)
(1.03916 0.0080987 -6.45501e-16)
(1.04345 -0.0157959 -5.59499e-15)
(1.04365 0.013006 -1.46379e-15)
(1.04069 -0.0203039 -6.43456e-15)
(1.04995 0.0171996 -1.57479e-15)
(1.0363 -0.0234211 -5.21913e-15)
(1.05712 0.0192821 -1.09593e-15)
(1.03172 -0.0239082 -4.94566e-15)
(1.06341 0.0184066 -2.27171e-15)
(1.02884 -0.0214504 -3.70543e-15)
(1.06708 0.0150164 -1.15366e-15)
(1.02897 -0.0171908 -3.068e-15)
(1.06762 0.0108675 -5.07835e-16)
(1.03177 -0.0132686 -3.10765e-15)
(1.06623 0.00804589 -1.30024e-15)
(1.0354 -0.011354 -6.86585e-15)
(1.06489 0.00743443 -1.5238e-15)
(1.03826 -0.0113795 -6.42879e-15)
(1.06431 0.0080591 -1.04655e-15)
(1.04081 -0.0118394 -8.65529e-15)
(1.06294 0.00844024 1.54447e-16)
(1.04524 -0.0118062 -8.44537e-15)
(1.05874 0.00871172 -2.10123e-15)
(1.05257 -0.0124953 -8.57651e-15)
(1.05241 0.0107466 -1.87227e-15)
(1 -0.00035651 2.83809e-15)
(1.00018 -0.00106246 -2.5078e-15)
(1.00054 -0.00174928 2.56706e-15)
(1.00106 -0.00240476 -2.73163e-15)
(1.00175 -0.00301743 -1.44466e-17)
(1.0026 -0.00357656 -2.85623e-15)
(1.00359 -0.00407388 -4.83924e-16)
(1.0047 -0.00450229 -4.32787e-15)
(1.00593 -0.00485934 -3.26329e-16)
(1.00723 -0.0051432 -5.02309e-15)
(1.0086 -0.00535947 -8.74786e-16)
(1.01 -0.0055088 -5.20025e-15)
(1.01143 -0.00560413 -1.65262e-15)
(1.01285 -0.00564269 -4.9985e-15)
(1.01427 -0.00564811 -4.00786e-16)
(1.01566 -0.00560412 -4.67913e-15)
(1.01704 -0.00555318 -6.36555e-16)
(1.01837 -0.005448 -3.6019e-15)
(1.01968 -0.0053738 -8.0751e-16)
(1.02093 -0.00522021 -3.24987e-15)
(1.02218 -0.00515846 -6.6737e-16)
(1.02335 -0.00495291 -2.82258e-15)
(1.02452 -0.00494279 -2.36229e-16)
(1.02562 -0.00466378 -2.6319e-15)
(1.02671 -0.00475563 1.01072e-15)
(1.02779 -0.0043622 -2.81573e-15)
(1.02875 -0.00460964 3.21177e-16)
(1.02988 -0.00405065 -3.41737e-15)
(1.03063 -0.00449758 2.6829e-16)
(1.03195 -0.00375579 -3.15646e-15)
(1.03231 -0.00437446 9.3461e-16)
(1.03406 -0.00354874 -3.97415e-15)
(1.03376 -0.00411956 1.54061e-15)
(1.03624 -0.00359431 -3.7551e-15)
(1.03499 -0.00350973 1.90821e-15)
(1.03846 -0.00418142 -5.13318e-15)
(1.03608 -0.00218831 1.4482e-15)
(1.04057 -0.00570217 -5.39437e-15)
(1.03729 0.000266411 2.09483e-15)
(1.04222 -0.00855711 -5.75637e-15)
(1.03911 0.00416938 2.18575e-15)
(1.04284 -0.0128924 -6.65228e-15)
(1.04212 0.00943199 1.77267e-15)
(1.04185 -0.018296 -6.99748e-15)
(1.04679 0.0152432 1.98362e-15)
(1.03901 -0.0235863 -7.17062e-15)
(1.05302 0.0200569 2.37037e-15)
(1.03488 -0.0269962 -7.04832e-15)
(1.05976 0.0220889 3.62305e-15)
(1.03091 -0.02699 -7.79945e-15)
(1.06528 0.0203595 4.09587e-15)
(1.02896 -0.0233562 -7.8969e-15)
(1.06796 0.0156781 4.36364e-15)
(1.03011 -0.0178417 -7.69538e-15)
(1.06762 0.010556 5.04631e-15)
(1.03362 -0.0133396 -8.88138e-15)
(1.06585 0.00764966 6.05651e-15)
(1.03734 -0.0117245 -1.01654e-14)
(1.06478 0.00758328 8.04857e-15)
(1.0397 -0.0122086 -1.22322e-14)
(1.06487 0.00834475 1.08531e-14)
(1.04162 -0.0122244 -1.60806e-14)
(1.06395 0.00770943 1.26236e-14)
(1.04593 -0.0107278 -1.88456e-14)
(1.0595 0.00649503 1.51707e-14)
(1.05384 -0.0103375 -2.04212e-14)
(1.05237 0.00834367 1.66891e-14)
(1 -0.000415848 4.72783e-15)
(1.0002 -0.00123875 -4.69443e-15)
(1.00058 -0.00203807 2.413e-15)
(1.00114 -0.00279871 -7.21502e-15)
(1.00189 -0.00350668 -3.45738e-17)
(1.0028 -0.00414886 -8.27166e-15)
(1.00386 -0.00471542 -3.44276e-15)
(1.00506 -0.00519831 -9.80487e-15)
(1.00636 -0.00559507 -4.43803e-15)
(1.00774 -0.00590498 -1.03023e-14)
(1.00918 -0.00613522 -5.27531e-15)
(1.01065 -0.00628841 -9.63631e-15)
(1.01214 -0.00637927 -6.48867e-15)
(1.01361 -0.00640699 -1.01115e-14)
(1.01507 -0.0063966 -6.67985e-15)
(1.0165 -0.0063333 -1.00755e-14)
(1.01791 -0.0062609 -5.44825e-15)
(1.01924 -0.0061324 -8.57047e-15)
(1.02059 -0.00603538 -4.55448e-15)
(1.02183 -0.00585732 -7.24854e-15)
(1.02311 -0.00577566 -3.30221e-15)
(1.02423 -0.00554516 -6.6766e-15)
(1.02548 -0.00552186 -2.05461e-15)
(1.02648 -0.00521477 -6.28266e-15)
(1.0277 -0.00530549 -2.30691e-15)
(1.02858 -0.00487399 -4.86462e-15)
(1.02981 -0.00514038 -1.59458e-15)
(1.03056 -0.00452186 -4.5943e-15)
(1.03181 -0.00501893 -1.51046e-15)
(1.03244 -0.00418357 -2.23674e-15)
(1.03371 -0.00489419 -1.04336e-15)
(1.03426 -0.00393498 -1.69865e-15)
(1.0355 -0.00463302 -1.1525e-15)
(1.03603 -0.00395884 -2.16271e-15)
(1.0372 -0.00398399 -7.82513e-17)
(1.0377 -0.00458413 -1.99283e-15)
(1.03889 -0.00253742 -1.19868e-15)
(1.03917 -0.00626562 -3.04204e-15)
(1.04075 0.000199737 -8.55682e-16)
(1.04018 -0.00947399 -3.13168e-15)
(1.04311 0.0045987 -5.10232e-16)
(1.04038 -0.0143844 -2.76766e-15)
(1.04635 0.010554 -1.89753e-15)
(1.03939 -0.0205005 -3.99608e-15)
(1.05074 0.0170925 -2.56766e-15)
(1.03716 -0.0263976 -3.88854e-15)
(1.05607 0.0223577 -1.63118e-15)
(1.03422 -0.0299587 -4.23754e-15)
(1.06144 0.0242338 -1.73265e-15)
(1.03181 -0.029401 -3.73524e-15)
(1.06545 0.0216446 -1.19243e-15)
(1.03134 -0.0246397 -4.09731e-15)
(1.06697 0.0157622 -1.1271e-15)
(1.0334 -0.0179963 -3.43224e-15)
(1.06617 0.00979936 -1.25845e-15)
(1.037 -0.0130418 -3.36573e-15)
(1.06475 0.00690153 -1.50194e-15)
(1.04008 -0.0117777 -5.62988e-15)
(1.06458 0.00737907 -1.46597e-15)
(1.04144 -0.0126734 -5.36431e-15)
(1.06571 0.00820596 -1.64571e-15)
(1.04239 -0.0121681 -5.70814e-15)
(1.06569 0.00650915 -1.66595e-15)
(1.0459 -0.0092075 -6.16269e-15)
(1.06195 0.00386783 -1.43942e-15)
(1.05318 -0.00783607 -6.88246e-15)
(1.05529 0.00564606 -1.9156e-15)
(1 -0.000482736 1.70677e-15)
(1.00021 -0.00143725 -1.42341e-15)
(1.00063 -0.00236253 1.59305e-15)
(1.00125 -0.00323998 -1.64291e-15)
(1.00206 -0.00405239 -1.58689e-16)
(1.00305 -0.00478384 -2.26814e-15)
(1.0042 -0.0054227 -4.80206e-16)
(1.00549 -0.00596012 -2.90091e-15)
(1.00689 -0.00639407 -5.78199e-16)
(1.00836 -0.00672577 -3.15903e-15)
(1.00989 -0.00696432 -2.08892e-16)
(1.01143 -0.00711537 -3.0745e-15)
(1.01299 -0.0071951 -5.13739e-16)
(1.01451 -0.007206 -3.68968e-15)
(1.01603 -0.00717293 -7.03389e-16)
(1.01748 -0.00708555 -3.39223e-15)
(1.01893 -0.00698464 -3.12209e-16)
(1.02028 -0.00683058 -2.85351e-15)
)
;

boundaryField
{
    inlet
    {
        type            uniformFixedValue;
        uniformValue    constant (1 0 0);
        value           uniform (1 0 0);
    }
    outlet
    {
        type            pressureInletOutletVelocity;
        value           nonuniform 0();
    }
    wall
    {
        type            fixedValue;
        value           nonuniform 0();
    }
    wedge1
    {
        type            wedge;
    }
    wedge2
    {
        type            wedge;
    }
    axis
    {
        type            empty;
    }
    procBoundary6to0
    {
        type            processor;
        value           nonuniform List<vector> 
68
(
(1.00597 -0.00252717 -9.43266e-15)
(1.00714 -0.0026541 1.88568e-15)
(1.00837 -0.00274932 -1.07723e-14)
(1.00962 -0.00281816 6.905e-16)
(1.01091 -0.00285841 -9.47243e-15)
(1.0122 -0.00288103 2.13089e-15)
(1.0135 -0.00287731 -3.48914e-15)
(1.01478 -0.00286754 2.34466e-15)
(1.01607 -0.00283044 -3.38931e-15)
(1.0173 -0.00280275 4.16361e-15)
(1.01857 -0.00273991 -2.68317e-15)
(1.01972 -0.00270958 4.30275e-15)
(1.02097 -0.00262406 -2.17797e-15)
(1.02201 -0.00260311 3.7779e-15)
(1.02329 -0.00249602 -1.67511e-15)
(1.02415 -0.00249609 -1.11502e-15)
(1.02555 -0.00236707 -1.39727e-15)
(1.02612 -0.00238935 -3.55224e-15)
(1.02778 -0.00225028 -3.4555e-15)
(1.02787 -0.00227261 -4.26101e-15)
(1.03004 -0.00216833 -5.44739e-15)
(1.02938 -0.00211843 -7.39465e-15)
(1.03239 -0.00216161 -6.69938e-15)
(1.03059 -0.0018676 -6.19269e-15)
(1.03488 -0.00230225 -5.30471e-15)
(1.03148 -0.00143496 -7.95357e-15)
(1.03752 -0.0026906 -5.52381e-15)
(1.03212 -0.00070074 -9.05613e-15)
(1.04019 -0.00344789 -4.23219e-15)
(1.03266 0.000455479 -9.85769e-15)
(1.04266 -0.00467631 -2.54726e-15)
(1.03346 0.00210177 -1.18896e-14)
(1.04452 -0.00639575 -4.49143e-16)
(1.03496 0.0041941 -1.45395e-14)
(1.0453 -0.00848536 1.55291e-15)
(1.03762 0.00650002 -1.65165e-14)
(1.04464 -0.0106397 5.04135e-15)
(1.04166 0.0086278 -2.03163e-14)
(1.04255 -0.0124134 7.71811e-15)
(1.04681 0.0101114 -2.0601e-14)
(1.0396 -0.013351 6.67121e-15)
(1.0523 0.0105895 -2.20925e-14)
(1.03677 -0.0131823 6.4724e-15)
(1.057 0.00999492 -2.15128e-14)
(1.03513 -0.0120084 5.22736e-15)
(1.05999 0.00863672 -2.03643e-14)
(1.03532 -0.0103588 4.80742e-15)
(1.06098 0.00718331 -1.92518e-14)
(1.03721 -0.0090098 5.47645e-15)
(1.06049 0.00639639 -1.93096e-14)
(1.04006 -0.00863653 3.09222e-15)
(1.05938 0.00674298 -2.07259e-14)
(1.04307 -0.00943113 5.83413e-15)
(1.05833 0.00811993 -2.27658e-14)
(1.04569 -0.0109798 7.68995e-15)
(1.05774 0.00992092 -2.55422e-14)
(1.04756 -0.0125684 9.70377e-15)
(1.05803 0.0114054 -2.83251e-14)
(1 -0.000209953 6.6859e-15)
(1.00015 -0.000626245 -6.70765e-15)
(1.00045 -0.00103262 2.16191e-15)
(1.00089 -0.00142272 -6.02872e-15)
(1.00147 -0.00179056 -2.18731e-15)
(1.00219 -0.00213035 -1.16518e-14)
(1.00304 -0.00243762 -7.41732e-15)
(1.00399 -0.00270804 -1.35078e-14)
(1.00505 -0.00293976 -9.89611e-15)
(1.00505 -0.00293976 -9.89611e-15)
)
;
    }
    procBoundary6to1
    {
        type            processor;
        value           uniform (1.05173 -0.0154408 -1.54506e-14);
    }
    procBoundary6to7
    {
        type            processor;
        value           nonuniform List<vector> 4((1.0563 -0.0161023 -2.64212e-14) (1.06013 -0.0156368 -8.94072e-15) (1.06222 -0.0144149 -2.13071e-14) (1.06128 -0.0129357 -6.87248e-15));
    }
    procBoundary6to12
    {
        type            processor;
        value           nonuniform List<vector> 
68
(
(1.02165 -0.00670271 -1.07345e-15)
(1.02287 -0.0065027 -2.68817e-15)
(1.0242 -0.00638975 -1.5888e-16)
(1.02526 -0.00614534 -2.37565e-15)
(1.02659 -0.00608887 -2.92261e-16)
(1.02746 -0.00577972 -2.64722e-15)
(1.02886 -0.00583074 -5.60288e-16)
(1.02948 -0.00541394 -2.05486e-15)
(1.03105 -0.00562622 3.78333e-16)
(1.03132 -0.00504638 -2.75841e-15)
(1.03322 -0.00546312 7.69562e-16)
(1.03296 -0.0047037 -2.908e-15)
(1.03541 -0.00529071 4.27464e-16)
(1.0344 -0.0044659 -3.83385e-15)
(1.03766 -0.00496784 9.84478e-16)
(1.03559 -0.00452381 -3.80504e-15)
(1.04001 -0.00423077 1.22696e-15)
(1.0365 -0.00522196 -4.07102e-15)
(1.04252 -0.00265033 1.40374e-15)
(1.03711 -0.00703597 -4.28658e-15)
(1.04522 0.000290524 1.54136e-15)
(1.03735 -0.0104564 -4.65062e-15)
(1.04819 0.0049719 1.59675e-15)
(1.03718 -0.0156538 -5.35283e-15)
(1.05145 0.0112614 1.87466e-15)
(1.0366 -0.0220707 -6.31031e-15)
(1.05494 0.0180886 1.61343e-15)
(1.03578 -0.0281463 -6.27754e-15)
(1.05843 0.0234348 2.56541e-15)
(1.03512 -0.0315899 -6.06625e-15)
(1.06138 0.0250382 2.72653e-15)
(1.03525 -0.0305379 -6.88932e-15)
(1.06316 0.0218387 2.3325e-15)
(1.03671 -0.0250741 -6.45441e-15)
(1.06346 0.0153129 2.85576e-15)
(1.0394 -0.017935 -6.6947e-15)
(1.06282 0.00913289 2.90217e-15)
(1.0423 -0.0130702 -7.74824e-15)
(1.06262 0.00663508 4.37905e-15)
(1.04392 -0.012366 -9.14484e-15)
(1.06408 0.00768163 5.96533e-15)
(1.04367 -0.0135533 -1.03167e-14)
(1.06685 0.00838011 7.67913e-15)
(1.04288 -0.0123218 -1.34769e-14)
(1.0688 0.00546556 9.64756e-15)
(1.04407 -0.00780191 -1.50137e-14)
(1.06772 0.00131946 1.13617e-14)
(1.04855 -0.00531696 -1.63859e-14)
(1.06366 0.00274686 1.14923e-14)
(1 -0.000559153 -1.78882e-15)
(1.00024 -0.00166381 2.23595e-15)
(1.0007 -0.00273175 -1.93636e-15)
(1.00138 -0.00374029 2.38985e-15)
(1.00227 -0.00466776 -2.19939e-15)
(1.00336 -0.00549531 2.00923e-15)
(1.00462 -0.0062089 -2.49086e-15)
(1.00602 -0.00679972 2.07385e-15)
(1.00753 -0.00726696 -4.14617e-15)
(1.00912 -0.00761475 -8.76907e-16)
(1.01074 -0.00785463 -4.49102e-15)
(1.01237 -0.00799622 -2.86284e-15)
(1.014 -0.00805693 -4.96941e-15)
(1.01558 -0.00804373 -3.38911e-15)
(1.01715 -0.00797991 -5.82249e-15)
(1.01864 -0.0078624 -5.73494e-15)
(1.02012 -0.00772498 -5.86093e-15)
(1.02165 -0.00670271 -1.07345e-15)
(1.02148 -0.00754205 -6.19709e-15)
)
;
    }
}


// ************************************************************************* //
