/*--------------------------------*- C++ -*----------------------------------*\
  =========                 |
  \\      /  F ield         | OpenFOAM: The Open Source CFD Toolbox
   \\    /   O peration     | Website:  https://openfoam.org
    \\  /    A nd           | Version:  7
     \\/     M anipulation  |
\*---------------------------------------------------------------------------*/
FoamFile
{
    version     2.0;
    format      ascii;
    class       volVectorField;
    location    "5.2";
    object      U;
}
// * * * * * * * * * * * * * * * * * * * * * * * * * * * * * * * * * * * * * //

dimensions      [0 1 -1 0 0 0 0];

internalField   nonuniform List<vector> 
344
(
(0.679329 0.00427561 8.62665e-17)
(0.680444 0.00422087 7.9774e-17)
(0.681546 0.00416698 8.78026e-17)
(0.682634 0.00411392 9.22157e-17)
(0.683709 0.00406167 9.42586e-17)
(0.684771 0.00401021 9.74292e-17)
(0.68582 0.00395952 9.87464e-17)
(0.686857 0.00390958 1.01043e-16)
(0.687881 0.00386037 1.02116e-16)
(0.688893 0.00381189 1.03738e-16)
(0.689892 0.0037641 9.81623e-17)
(0.69088 0.003717 1.04039e-16)
(0.691856 0.00367057 1.05822e-16)
(0.69282 0.0036248 1.08445e-16)
(0.693773 0.00357967 1.04103e-16)
(0.694714 0.00353517 1.09339e-16)
(0.695644 0.00349131 1.11102e-16)
(0.696563 0.00344808 1.13123e-16)
(0.697471 0.00340551 1.10491e-16)
(0.698369 0.00336362 1.14699e-16)
(0.699255 0.00332247 1.16108e-16)
(0.700131 0.00328215 1.18577e-16)
(0.700996 0.00324283 1.19403e-16)
(0.701851 0.00320472 1.21209e-16)
(0.702696 0.00316824 1.2272e-16)
(0.703529 0.00313387 1.2353e-16)
(0.704353 0.00310262 1.24774e-16)
(0.705162 0.00307537 1.25826e-16)
(0.70597 0.00305471 1.2685e-16)
(0.706731 0.00304106 1.27348e-16)
(0.70756 0.00304005 1.26637e-16)
(0.708137 0.00304817 1.27366e-16)
(0.709268 0.00305273 1.27809e-16)
(0.589547 0.00609565 -2.48008e-17)
(0.591263 0.00600611 -1.79491e-17)
(0.592955 0.0059183 -2.34713e-17)
(0.594624 0.00583219 -1.42956e-17)
(0.59627 0.00574773 -9.20524e-18)
(0.597893 0.00566488 -2.34904e-18)
(0.599495 0.00558361 -1.94909e-19)
(0.601075 0.00550387 5.86398e-18)
(0.602634 0.00542562 7.25407e-18)
(0.604172 0.00534883 1.15327e-17)
(0.60569 0.00527347 5.31925e-18)
(0.607187 0.00519949 1.4331e-17)
(0.608665 0.00512686 2.2129e-17)
(0.610123 0.00505555 2.55741e-17)
(0.611562 0.00498553 2.9608e-17)
(0.612982 0.00491677 3.09516e-17)
(0.614384 0.00484923 3.48112e-17)
(0.615768 0.00478289 3.66934e-17)
(0.617133 0.00471772 3.9926e-17)
(0.618481 0.00465368 3.37678e-17)
(0.619812 0.00459076 4.02451e-17)
(0.621125 0.00452893 4.41125e-17)
(0.622422 0.00446816 4.818e-17)
(0.623702 0.00440842 4.37369e-17)
(0.624966 0.00434969 5.09084e-17)
(0.626214 0.00429196 5.40672e-17)
(0.627447 0.00423518 5.76023e-17)
(0.628664 0.00417935 5.32718e-17)
(0.629865 0.00412444 5.95317e-17)
(0.631052 0.00407043 6.31871e-17)
(0.632223 0.0040173 6.65974e-17)
(0.63338 0.00396503 6.87417e-17)
(0.634523 0.00391359 7.16395e-17)
(0.635652 0.00386298 7.31686e-17)
(0.636766 0.00381316 7.64451e-17)
(0.637867 0.00376413 7.31564e-17)
(0.638955 0.00371586 7.85779e-17)
(0.640029 0.00366834 8.24269e-17)
(0.64109 0.00362155 8.43899e-17)
(0.642138 0.00357547 8.72428e-17)
(0.643173 0.00353008 8.82899e-17)
(0.644195 0.00348537 9.03731e-17)
(0.645205 0.00344133 9.16622e-17)
(0.646203 0.00339793 9.29357e-17)
(0.647189 0.00335517 8.98709e-17)
(0.648163 0.00331302 9.37401e-17)
(0.649125 0.00327148 9.54683e-17)
(0.650076 0.00323052 9.76237e-17)
(0.651015 0.00319015 9.56702e-17)
(0.651942 0.00315036 9.89067e-17)
(0.652859 0.00311113 1.00777e-16)
(0.653764 0.00307249 1.02114e-16)
(0.654659 0.00303444 1.01108e-16)
(0.655543 0.00299702 1.04026e-16)
(0.656416 0.00296028 1.05474e-16)
(0.657279 0.00292433 1.07382e-16)
(0.658131 0.00288931 1.08349e-16)
(0.658973 0.00285548 1.09984e-16)
(0.659805 0.00282323 1.11468e-16)
(0.660626 0.00279309 1.12319e-16)
(0.661439 0.00276618 1.13568e-16)
(0.662236 0.00274333 1.14555e-16)
(0.663033 0.00272784 1.15587e-16)
(0.663786 0.00271946 1.16019e-16)
(0.664604 0.0027272 1.15698e-16)
(0.665177 0.00274181 1.16248e-16)
(0.666294 0.00276581 1.16722e-16)
(0.547711 0.00539445 -2.54475e-17)
(0.549401 0.00531473 -2.04456e-17)
(0.551067 0.00523658 -2.25223e-17)
(0.55271 0.00515994 -1.54699e-17)
(0.55433 0.00508479 -1.10321e-17)
(0.555928 0.00501108 -6.77687e-18)
(0.557504 0.00493878 -4.02833e-18)
(0.559059 0.00486785 1.09786e-18)
(0.560592 0.00479826 2.34686e-18)
(0.562105 0.00472998 6.51092e-18)
(0.563597 0.00466296 4.13219e-18)
(0.565069 0.00459719 1.09558e-17)
(0.566521 0.00453263 1.71341e-17)
(0.567954 0.00446926 2.01414e-17)
(0.569367 0.00440703 2.32183e-17)
(0.570762 0.00434593 2.47574e-17)
(0.572139 0.00428592 2.81842e-17)
(0.573498 0.00422699 3.01744e-17)
(0.574838 0.0041691 3.33841e-17)
(0.576161 0.00411223 2.97342e-17)
(0.577467 0.00405635 3.46436e-17)
(0.578756 0.00400145 3.7549e-17)
(0.580029 0.00394749 4.15022e-17)
(0.581285 0.00389446 3.92213e-17)
(0.582524 0.00384233 4.48687e-17)
(0.583748 0.00379109 4.78865e-17)
(0.584957 0.00374071 5.03307e-17)
(0.58615 0.00369116 4.79777e-17)
(0.587327 0.00364245 5.27176e-17)
(0.58849 0.00359453 5.56167e-17)
(0.589639 0.0035474 5.80362e-17)
(0.590772 0.00350104 5.99931e-17)
(0.591892 0.00345542 6.2912e-17)
(0.592997 0.00341054 6.42715e-17)
(0.594089 0.00336637 6.7429e-17)
(0.595167 0.0033229 6.59276e-17)
(0.596232 0.00328011 7.05729e-17)
(0.597284 0.00323799 7.35477e-17)
(0.598322 0.00319651 7.48044e-17)
(0.599348 0.00315567 7.75109e-17)
(0.600361 0.00311546 7.91378e-17)
(0.601362 0.00307584 8.0633e-17)
(0.60235 0.00303682 8.17825e-17)
(0.603327 0.00299838 8.30112e-17)
(0.604291 0.0029605 8.16153e-17)
(0.605243 0.00292317 8.44595e-17)
(0.606184 0.00288637 8.56781e-17)
(0.607114 0.00285011 8.78078e-17)
(0.608032 0.00281437 8.6996e-17)
(0.608939 0.00277914 8.92688e-17)
(0.609835 0.00274442 9.12045e-17)
(0.610721 0.00271022 9.24166e-17)
(0.611595 0.00267657 9.21398e-17)
(0.612459 0.00264348 9.41773e-17)
(0.613312 0.00261102 9.55149e-17)
(0.614155 0.00257928 9.71056e-17)
(0.614988 0.00254842 9.80467e-17)
(0.615811 0.00251868 9.95018e-17)
(0.616624 0.00249049 1.00944e-16)
(0.617427 0.00246435 1.01891e-16)
(0.618222 0.00244149 1.03073e-16)
(0.619002 0.00242274 1.03984e-16)
(0.619782 0.00241195 1.04964e-16)
(0.62052 0.00240848 1.05442e-16)
(0.621323 0.00242422 1.05187e-16)
(0.621887 0.00244538 1.05687e-16)
(0.622986 0.00248767 1.06165e-16)
(0.50613 0.00471836 -2.54249e-17)
(0.507779 0.00464824 -2.07516e-17)
(0.509406 0.00457951 -2.26027e-17)
(0.511009 0.00451211 -1.52038e-17)
(0.512589 0.00444604 -1.22747e-17)
(0.514148 0.00438123 -9.79619e-18)
(0.515685 0.00431768 -7.81515e-18)
(0.517201 0.00425534 -4.16111e-18)
(0.518695 0.00419418 -2.31673e-18)
(0.520169 0.00413418 3.47216e-18)
(0.521624 0.0040753 1.59068e-18)
(0.523058 0.00401752 8.63945e-18)
(0.524472 0.00396082 1.26474e-17)
(0.525868 0.00390515 1.47375e-17)
(0.527245 0.00385051 1.77917e-17)
(0.528603 0.00379685 1.94836e-17)
(0.529943 0.00374417 2.23404e-17)
(0.531266 0.00369243 2.4548e-17)
(0.532571 0.00364162 2.76962e-17)
(0.533858 0.0035917 2.51214e-17)
(0.535129 0.00354267 3.05027e-17)
(0.536383 0.00349449 3.23037e-17)
(0.53762 0.00344715 3.59351e-17)
(0.538842 0.00340063 3.42734e-17)
(0.540047 0.0033549 3.93115e-17)
(0.541237 0.00330996 4.18633e-17)
(0.542412 0.00326577 4.38738e-17)
(0.543572 0.00322233 4.25159e-17)
(0.544716 0.00317961 4.66917e-17)
(0.545846 0.00313761 4.85728e-17)
(0.546962 0.00309629 5.07728e-17)
(0.548064 0.00305565 5.26831e-17)
(0.549151 0.00301567 5.48598e-17)
(0.550225 0.00297634 5.61329e-17)
(0.551285 0.00293763 5.88584e-17)
(0.552332 0.00289954 5.81767e-17)
(0.553366 0.00286205 6.29867e-17)
(0.554387 0.00282515 6.52012e-17)
(0.555395 0.00278882 6.68611e-17)
(0.55639 0.00275306 6.86059e-17)
(0.557374 0.00271783 7.00998e-17)
(0.558345 0.00268315 7.1292e-17)
(0.559304 0.00264898 7.2513e-17)
(0.560251 0.00261532 7.39217e-17)
(0.561186 0.00258216 7.30603e-17)
(0.56211 0.00254948 7.61205e-17)
(0.563023 0.00251727 7.68576e-17)
(0.563924 0.00248554 7.87838e-17)
(0.564815 0.00245426 7.81948e-17)
(0.565694 0.00242344 8.05535e-17)
(0.566563 0.00239307 8.19426e-17)
(0.567421 0.00236316 8.31182e-17)
(0.568269 0.00233373 8.31275e-17)
(0.569106 0.00230481 8.51467e-17)
(0.569933 0.00227646 8.62611e-17)
(0.57075 0.00224877 8.73469e-17)
(0.571557 0.0022219 8.83303e-17)
(0.572355 0.00219606 8.95457e-17)
(0.573143 0.0021717 9.0944e-17)
(0.573921 0.00214932 9.21617e-17)
(0.574692 0.00213021 9.30031e-17)
(0.575449 0.00211519 9.40268e-17)
(0.576207 0.00210858 9.48123e-17)
(0.576926 0.00210952 9.53865e-17)
(0.577707 0.00213239 9.50338e-17)
(0.57826 0.00215989 9.56718e-17)
(0.579334 0.00221916 9.61074e-17)
(0.464786 0.00407158 -2.4432e-17)
(0.46638 0.00401075 -2.14345e-17)
(0.467952 0.00395112 -1.29132e-17)
(0.469502 0.00389267 -1.48082e-17)
(0.471029 0.00383536 -1.3762e-17)
(0.472535 0.00377917 -1.20218e-17)
(0.47402 0.00372407 -9.96417e-18)
(0.475483 0.00367002 -6.82558e-18)
(0.476927 0.00361701 -5.34058e-18)
(0.47835 0.003565 5.24721e-19)
(0.479754 0.00351398 8.09723e-18)
(0.481138 0.00346391 7.82473e-18)
(0.482503 0.00341478 9.48436e-18)
(0.48385 0.00336656 1.05373e-17)
(0.485178 0.00331922 1.33351e-17)
(0.486489 0.00327275 1.46978e-17)
(0.487781 0.00322713 1.6983e-17)
(0.489057 0.00318232 1.8929e-17)
(0.490315 0.00313833 2.23039e-17)
(0.491556 0.00309511 2.85164e-17)
(0.492781 0.00305267 2.76722e-17)
(0.49399 0.00301097 2.823e-17)
(0.495182 0.00296999 3.10891e-17)
(0.496359 0.00292973 3.62527e-17)
(0.497521 0.00289017 3.54395e-17)
(0.498667 0.00285128 3.68717e-17)
(0.499798 0.00281306 3.8645e-17)
(0.500915 0.00277548 4.37043e-17)
(0.502017 0.00273853 4.20741e-17)
(0.503106 0.0027022 4.26697e-17)
(0.50418 0.00266647 4.37342e-17)
(0.50524 0.00263133 4.55345e-17)
(0.506287 0.00259676 4.70346e-17)
(0.50732 0.00256276 4.82717e-17)
(0.50834 0.0025293 5.1472e-17)
(0.509348 0.00249638 5.64449e-17)
(0.510342 0.00246398 5.69471e-17)
(0.511324 0.00243209 5.79294e-17)
(0.512294 0.0024007 5.90539e-17)
(0.513252 0.00236979 6.03199e-17)
(0.514197 0.00233936 6.1068e-17)
(0.515131 0.00230939 6.32485e-17)
(0.516053 0.00227988 6.37521e-17)
(0.516964 0.00225081 6.54973e-17)
(0.517863 0.00222217 6.8723e-17)
(0.518751 0.00219395 6.84355e-17)
(0.519628 0.00216614 6.87834e-17)
(0.520494 0.00213874 7.02986e-17)
(0.52135 0.00211173 7.34603e-17)
(0.522195 0.00208513 7.27831e-17)
(0.52303 0.00205892 7.30087e-17)
(0.523854 0.00203311 7.42697e-17)
(0.524668 0.00200772 7.69304e-17)
(0.525473 0.00198279 7.67773e-17)
(0.526267 0.00195836 7.72207e-17)
(0.527052 0.00193452 7.81523e-17)
(0.527828 0.00191143 7.89449e-17)
(0.528594 0.00188929 8.00002e-17)
(0.529351 0.00186853 8.13923e-17)
(0.530099 0.00184964 8.29778e-17)
(0.530839 0.00183394 8.35967e-17)
(0.531568 0.00182226 8.44536e-17)
(0.532298 0.00181925 8.52495e-17)
(0.532992 0.00182399 8.57793e-17)
(0.533746 0.00185294 8.56723e-17)
(0.534283 0.00188626 8.60749e-17)
(0.535328 0.00196102 8.65184e-17)
(0.423659 0.00345821 -2.45154e-17)
(0.425184 0.00340628 -2.01296e-17)
(0.426688 0.00335538 -1.28102e-17)
(0.42817 0.00330549 -1.40584e-17)
(0.429631 0.00325658 -1.54397e-17)
(0.431071 0.00320864 -1.38592e-17)
(0.43249 0.00316162 -1.29214e-17)
(0.433889 0.00311551 -9.63268e-18)
(0.435269 0.00307029 -7.89405e-18)
(0.436629 0.00302594 -2.2024e-18)
(0.43797 0.00298242 6.99166e-18)
(0.439292 0.00293973 6.69106e-18)
(0.440596 0.00289783 7.22504e-18)
(0.441883 0.00285672 7.28039e-18)
(0.443151 0.00281637 8.95067e-18)
(0.444402 0.00277676 1.00544e-17)
(0.445636 0.00273788 1.2047e-17)
(0.446853 0.0026997 1.37292e-17)
(0.448054 0.00266221 1.82985e-17)
(0.449239 0.00262539 2.48945e-17)
(0.450407 0.00258923 2.42341e-17)
(0.451561 0.0025537 2.36119e-17)
(0.452698 0.00251881 2.70237e-17)
(0.453821 0.00248452 3.21616e-17)
(0.454929 0.00245083 3.15486e-17)
(0.456022 0.00241771 3.12288e-17)
(0.457101 0.00238517 3.3443e-17)
(0.458165 0.00235318 3.91371e-17)
(0.459216 0.00232173 3.79076e-17)
(0.460253 0.0022908 3.69181e-17)
(0.461277 0.00226039 3.69942e-17)
(0.462287 0.00223049 3.81489e-17)
(0.463285 0.00220108 3.99677e-17)
(0.464269 0.00217214 4.1352e-17)
(0.465241 0.00214368 4.44983e-17)
(0.466201 0.00211567 5.05e-17)
(0.467148 0.00208811 5.09572e-17)
(0.468083 0.00206099 5.13961e-17)
(0.469007 0.00203429 5.19597e-17)
(0.469919 0.002008 5.23319e-17)
(0.470819 0.00198213 5.25937e-17)
(0.471708 0.00195665 5.48302e-17)
(0.472586 0.00193156 5.53055e-17)
)
;

boundaryField
{
    inlet
    {
        type            uniformFixedValue;
        uniformValue    constant (1 0 0);
        value           nonuniform 0();
    }
    outlet
    {
        type            pressureInletOutletVelocity;
        value           nonuniform List<vector> 5((0.709268 0.00305273 1.27809e-16) (0.666294 0.00276581 1.16722e-16) (0.622986 0.00248767 1.06165e-16) (0.579334 0.00221916 9.61074e-17) (0.535328 0.00196102 8.65184e-17));
    }
    wall
    {
        type            fixedValue;
        value           nonuniform 0();
    }
    wedge1
    {
        type            wedge;
    }
    wedge2
    {
        type            wedge;
    }
    axis
    {
        type            empty;
    }
    procBoundary35to29
    {
        type            processor;
        value           nonuniform List<vector> 
68
(
(0.72179 0.00475125 9.77103e-17)
(0.72291 0.00469071 9.07542e-17)
(0.724017 0.00463109 9.89454e-17)
(0.725111 0.00457239 1.04106e-16)
(0.726192 0.00451457 1.04968e-16)
(0.72726 0.00445762 1.0923e-16)
(0.728315 0.00440152 1.09419e-16)
(0.729358 0.00434625 1.1299e-16)
(0.730388 0.00429178 1.13001e-16)
(0.731406 0.0042381 1.15752e-16)
(0.732412 0.00418519 1.09901e-16)
(0.733406 0.00413304 1.16001e-16)
(0.734388 0.00408162 1.16931e-16)
(0.735359 0.00403092 1.20634e-16)
(0.736318 0.00398092 1.16027e-16)
(0.737266 0.00393162 1.21079e-16)
(0.738202 0.00388302 1.22258e-16)
(0.739128 0.0038351 1.25027e-16)
(0.740042 0.00378789 1.22459e-16)
(0.740946 0.00374142 1.26555e-16)
(0.741839 0.00369574 1.27843e-16)
(0.742721 0.00365094 1.30611e-16)
(0.743593 0.00360718 1.31011e-16)
(0.744454 0.00356467 1.33275e-16)
(0.745305 0.00352377 1.34861e-16)
(0.746145 0.00348499 1.35136e-16)
(0.746975 0.00344917 1.36715e-16)
(0.747788 0.00341724 1.37799e-16)
(0.748602 0.00339102 1.38756e-16)
(0.749366 0.00337184 1.39238e-16)
(0.7502 0.00336144 1.38374e-16)
(0.750779 0.00336338 1.39082e-16)
(0.751916 0.00334745 1.3948e-16)
(0.631655 0.00681771 -2.24216e-17)
(0.633382 0.00671817 -1.51913e-17)
(0.635085 0.00662055 -2.59373e-17)
(0.636766 0.00652481 -1.09001e-17)
(0.638424 0.00643089 -4.91445e-18)
(0.64006 0.00633875 3.13414e-18)
(0.641674 0.00624834 5.23606e-18)
(0.643266 0.00615963 1.13673e-17)
(0.644838 0.00607257 1.19151e-17)
(0.646389 0.00598712 1.69795e-17)
(0.647919 0.00590324 5.62193e-18)
(0.64943 0.00582089 1.98311e-17)
(0.650921 0.00574004 2.89742e-17)
(0.652392 0.00566065 3.15304e-17)
(0.653844 0.00558268 3.70289e-17)
(0.655278 0.0055061 3.78203e-17)
(0.656694 0.00543087 4.24067e-17)
(0.658091 0.00535697 4.38864e-17)
(0.65947 0.00528436 4.79945e-17)
(0.660832 0.00521301 3.60183e-17)
(0.662176 0.0051429 4.78116e-17)
(0.663504 0.00507398 5.10769e-17)
(0.664815 0.00500624 5.60321e-17)
(0.666109 0.00493965 4.6941e-17)
(0.667387 0.00487417 5.83196e-17)
(0.66865 0.00480979 6.22054e-17)
(0.669896 0.00474648 6.68208e-17)
(0.671127 0.00468421 5.73299e-17)
(0.672343 0.00462296 6.81088e-17)
(0.673543 0.00456271 7.13851e-17)
(0.674729 0.00450343 7.59527e-17)
(0.675901 0.0044451 7.78595e-17)
(0.677058 0.0043877 8.16919e-17)
(0.6782 0.00433121 8.29043e-17)
(0.6782 0.00433121 8.29043e-17)
)
;
    }
    procBoundary35to34
    {
        type            processor;
        value           nonuniform List<vector> 4((0.587807 0.00618699 -2.99981e-17) (0.545997 0.00547576 -3.12323e-17) (0.504457 0.00478989 -2.92613e-17) (0.463168 0.00413364 -2.67778e-17));
    }
    procBoundary35to40
    {
        type            processor;
        value           uniform (0.42211 0.0035112 -2.43236e-17);
    }
    procBoundary35to41
    {
        type            processor;
        value           nonuniform List<vector> 
68
(
(0.473452 0.00190684 5.75311e-17)
(0.474308 0.00188249 6.13498e-17)
(0.475153 0.00185851 6.12722e-17)
(0.475988 0.00183487 6.09976e-17)
(0.476812 0.00181159 6.26452e-17)
(0.477627 0.00178864 6.56745e-17)
(0.47843 0.00176604 6.55015e-17)
(0.479224 0.00174377 6.47133e-17)
(0.480009 0.00172185 6.63604e-17)
(0.480783 0.0017003 6.88511e-17)
(0.481548 0.00167914 6.86682e-17)
(0.482304 0.00165842 6.86095e-17)
(0.48305 0.00163822 6.93873e-17)
(0.483788 0.00161868 6.9858e-17)
(0.484516 0.0016 7.11441e-17)
(0.485236 0.00158259 7.23289e-17)
(0.485948 0.0015669 7.44503e-17)
(0.486653 0.00155427 7.47515e-17)
(0.487347 0.0015455 7.54894e-17)
(0.488043 0.00154546 7.61799e-17)
(0.488707 0.00155327 7.66073e-17)
(0.48943 0.00158708 7.65469e-17)
(0.489948 0.00162537 7.69818e-17)
(0.490958 0.00171391 7.73538e-17)
(0.382729 0.00288228 -2.42068e-17)
(0.384172 0.00283878 -2.00243e-17)
(0.385593 0.00279616 -9.45369e-18)
(0.386994 0.00275438 -1.23575e-17)
(0.388375 0.00271344 -1.61986e-17)
(0.389736 0.00267329 -1.40009e-17)
(0.391077 0.00263394 -1.51504e-17)
(0.392399 0.00259535 -1.22693e-17)
(0.393702 0.0025575 -1.1668e-17)
(0.394987 0.00252038 -4.79683e-18)
(0.396254 0.00248397 6.82138e-18)
(0.397502 0.00244826 5.80631e-18)
(0.398734 0.00241321 5.25124e-18)
(0.399948 0.00237882 3.29692e-18)
(0.401145 0.00234507 5.32762e-18)
(0.402326 0.00231195 5.14395e-18)
(0.403491 0.00227943 8.08989e-18)
(0.404639 0.00224751 8.86744e-18)
(0.405772 0.00221617 1.43529e-17)
(0.40689 0.00218539 2.26569e-17)
(0.407992 0.00215516 2.09145e-17)
(0.40908 0.00212547 1.91227e-17)
(0.410153 0.00209631 2.29235e-17)
(0.411211 0.00206766 2.97437e-17)
(0.412256 0.00203951 2.84693e-17)
(0.413286 0.00201184 2.62908e-17)
(0.414303 0.00198465 2.84285e-17)
(0.415307 0.00195793 3.58109e-17)
(0.416297 0.00193166 3.39875e-17)
(0.417275 0.00190584 3.11227e-17)
(0.418239 0.00188044 3.1328e-17)
(0.419191 0.00185547 3.09881e-17)
(0.420131 0.00183091 3.34755e-17)
(0.421058 0.00180676 3.3926e-17)
(0.421974 0.001783 3.84993e-17)
(0.422877 0.00175962 4.55578e-17)
(0.42377 0.00173661 4.5501e-17)
(0.42465 0.00171398 4.50951e-17)
(0.42552 0.0016917 4.51497e-17)
(0.426378 0.00166977 4.55251e-17)
(0.427226 0.00164817 4.49873e-17)
(0.428062 0.00162692 4.68522e-17)
(0.473452 0.00190684 5.75311e-17)
(0.428889 0.00160598 4.71322e-17)
)
;
    }
}


// ************************************************************************* //
