/*--------------------------------*- C++ -*----------------------------------*\
  =========                 |
  \\      /  F ield         | OpenFOAM: The Open Source CFD Toolbox
   \\    /   O peration     | Website:  https://openfoam.org
    \\  /    A nd           | Version:  7
     \\/     M anipulation  |
\*---------------------------------------------------------------------------*/
FoamFile
{
    version     2.0;
    format      ascii;
    class       volVectorField;
    location    "19";
    object      U;
}
// * * * * * * * * * * * * * * * * * * * * * * * * * * * * * * * * * * * * * //

dimensions      [0 1 -1 0 0 0 0];

internalField   nonuniform List<vector> 
433
(
(0.12614 -0.051918 2.44187e-18)
(0.161907 -0.0522123 2.81452e-18)
(0.196522 -0.0523054 -1.69321e-18)
(0.231058 -0.0519212 2.05969e-18)
(0.266184 -0.0508986 -1.57476e-18)
(0.128702 -0.0891492 -1.76314e-18)
(0.161948 -0.0841888 -6.75819e-19)
(0.194977 -0.0783298 -3.4198e-18)
(0.228852 -0.0725338 2.62332e-18)
(0.263934 -0.0670615 -4.36068e-18)
(0.300376 -0.0618649 4.81477e-18)
(0.33828 -0.0567886 -2.01717e-18)
(0.377718 -0.051659 -2.13061e-18)
(0.418721 -0.0463212 2.89412e-18)
(0.461262 -0.0406557 -1.72352e-18)
(0.198685 -0.0940133 2.99205e-19)
(0.211194 -0.0926788 7.3095e-20)
(0.227685 -0.088139 -3.9299e-19)
(0.249504 -0.082423 3.09184e-18)
(0.276344 -0.0763673 -3.60658e-18)
(0.307405 -0.0702987 6.64009e-18)
(0.341937 -0.0642495 -8.14607e-18)
(0.379354 -0.0581316 1.21444e-18)
(0.419213 -0.0518212 -2.86493e-18)
(0.461163 -0.0451988 4.49017e-18)
(0.504903 -0.0381706 -5.47224e-18)
(0.550149 -0.0306779 6.39941e-18)
(0.596621 -0.0227014 -1.6098e-18)
(0.644026 -0.0142602 -1.7901e-18)
(0.692062 -0.00539715 2.56017e-19)
(0.196366 -0.0453167 1.51896e-19)
(0.215558 -0.0556068 -3.67479e-18)
(0.234007 -0.0618462 3.86951e-19)
(0.255338 -0.0650188 1.33195e-18)
(0.280719 -0.0658387 6.03839e-19)
(0.310156 -0.0648197 -3.71902e-18)
(0.343277 -0.0622613 2.79672e-18)
(0.379616 -0.0583803 1.85814e-18)
(0.418735 -0.0533357 3.9911e-18)
(0.460235 -0.0472509 -7.35461e-18)
(0.503749 -0.0402298 2.88937e-18)
(0.548929 -0.0323647 6.34425e-19)
(0.595435 -0.0237439 -8.35053e-19)
(0.64293 -0.0144582 1.17301e-19)
(0.691072 -0.00460677 -2.68325e-18)
(0.739515 0.00571009 2.3405e-18)
(0.787897 0.016348 -5.7805e-19)
(0.835904 0.0271987 2.06803e-18)
(0.882778 0.0381441 -2.93531e-18)
(0.927318 0.0482561 4.45524e-19)
(0.0255934 -0.0857477 1.13063e-18)
(0.101151 -0.074472 -9.50804e-19)
(0.158489 -0.0683838 -2.58957e-18)
(0.205766 -0.0653551 2.59103e-18)
(0.248049 -0.064122 -7.4352e-19)
(0.28844 -0.0631968 7.40537e-19)
(0.32864 -0.0615509 9.03669e-21)
(0.369528 -0.0587057 1.77644e-18)
(0.411555 -0.0544609 -1.17893e-18)
(0.454914 -0.0488059 -9.67015e-19)
(0.49963 -0.0418349 1.40295e-18)
(0.545609 -0.0336881 8.74952e-20)
(0.592671 -0.0245183 1.93533e-18)
(0.640575 -0.0144762 -2.9981e-18)
(0.689036 -0.00370874 4.32901e-18)
(0.737733 0.00763923 -3.48085e-18)
(0.786326 0.0194305 1.03293e-18)
(0.834443 0.0314866 8.97687e-19)
(0.881768 0.0436951 2.39683e-18)
(0.927553 0.0558918 -4.77086e-18)
(0.970684 0.0672867 -2.03247e-19)
(-0.144271 -0.0829534 2.19006e-18)
(-0.00440085 -0.0968688 -1.8452e-18)
(0.0888681 -0.0973839 8.62479e-19)
(0.156826 -0.093068 1.10089e-18)
(0.212189 -0.0875286 -1.62879e-19)
(0.261606 -0.0818514 1.46721e-18)
(0.308391 -0.0760103 -3.29299e-19)
(0.354215 -0.0697345 -2.05018e-18)
(0.399924 -0.0627809 1.85833e-18)
(0.445985 -0.0549951 -1.57149e-18)
(0.49265 -0.0463078 2.71298e-19)
(0.540022 -0.0367162 3.12375e-20)
(0.588083 -0.0262627 3.33497e-19)
(0.636713 -0.0150203 -2.20211e-18)
(0.685717 -0.00308425 -6.15347e-20)
(0.734834 0.00943245 -1.07765e-18)
(0.783763 0.0224015 -1.19349e-18)
(0.832168 0.0356901 5.35143e-19)
(0.879681 0.049112 2.22245e-18)
(0.925983 0.0625676 -3.161e-18)
(0.970354 0.0758613 2.44603e-18)
(1.01177 0.0883265 2.38941e-18)
(0.0361049 -0.0493904 -6.83219e-20)
(0.146105 -0.0940088 4.5389e-19)
(0.206817 -0.111002 -3.09217e-19)
(0.247525 -0.113222 -9.55696e-19)
(0.282851 -0.108002 1.50778e-18)
(0.318909 -0.0992266 -1.94565e-18)
(0.357572 -0.0888374 1.26023e-18)
(0.398976 -0.0777237 3.22381e-18)
(0.442713 -0.0662175 -7.67155e-19)
(0.4883 -0.0543953 -5.78199e-20)
(0.535318 -0.042219 1.13169e-18)
(0.583414 -0.0296254 1.22592e-18)
(0.632268 -0.0165708 3.10427e-19)
(0.68157 -0.00304852 -1.53535e-18)
(0.731003 0.0109076 -5.88779e-19)
(0.780239 0.0252256 -1.08458e-19)
(0.828935 0.0398019 1.99987e-18)
(0.876732 0.0545157 5.46648e-19)
(0.923254 0.06918 -7.22367e-19)
(0.968177 0.0837155 3.65417e-19)
(1.01082 0.0979051 7.08868e-19)
(1.05024 0.111187 6.84499e-20)
(0.0957527 0.00704483 -3.79849e-20)
(0.220268 -0.031917 3.02229e-20)
(0.276928 -0.0598195 -7.85309e-19)
(0.304709 -0.0764762 1.06677e-18)
(0.324622 -0.0844279 5.23553e-19)
(0.346639 -0.0858763 4.22755e-19)
(0.374187 -0.0826405 -4.04522e-18)
(0.407557 -0.076029 4.79453e-18)
(0.445865 -0.0670171 -1.58208e-18)
(0.487993 -0.0562556 6.00917e-19)
(0.532936 -0.0441701 -3.18291e-18)
(0.579877 -0.0310485 -4.78182e-19)
(0.628159 -0.0170923 -5.42043e-20)
(0.677242 -0.00245919 -7.77915e-19)
(0.72666 0.0127117 -1.00653e-18)
(0.775996 0.0282852 2.18038e-18)
(0.824855 0.0441221 -1.66436e-18)
(0.872857 0.0600754 2.79923e-18)
(0.919623 0.0759971 -2.73808e-18)
(0.964767 0.091679 4.35929e-19)
(1.00796 0.107053 -8.0392e-19)
(1.04857 0.121883 1.65402e-18)
(1.08576 0.135688 -4.21906e-18)
(0.00739628 -0.147782 -5.68329e-19)
(0.113483 -0.118387 7.87668e-19)
(0.18881 -0.103992 -1.16935e-18)
(0.246304 -0.0955948 3.58506e-18)
(0.294962 -0.0886827 -2.53138e-18)
(0.340185 -0.0820596 2.69181e-18)
(0.384858 -0.0746031 -7.86543e-19)
(0.43024 -0.0658022 3.34861e-19)
(0.476722 -0.0554897 -1.74629e-18)
(0.524296 -0.0436731 9.28871e-20)
(0.572798 -0.0304793 9.31828e-19)
(0.62199 -0.0160922 -6.90447e-19)
(0.671599 -0.000727546 1.56535e-18)
(0.721329 0.0153915 -3.84454e-18)
(0.770863 0.0320476 3.61554e-18)
(0.819874 0.0490362 -1.69672e-18)
(0.868023 0.0661642 2.22677e-18)
(0.914961 0.0832472 -1.15606e-18)
(0.96033 0.100113 6.91976e-19)
(1.00376 0.116533 -1.37597e-18)
(1.04493 0.132455 9.68495e-19)
(1.08326 0.14763 1.00762e-18)
(1.11801 0.161632 8.7759e-19)
(-0.198577 -0.290666 -6.45843e-19)
(-0.0240206 -0.233587 1.18205e-18)
(0.102955 -0.187842 -1.02864e-18)
(0.198158 -0.152271 6.75764e-19)
(0.274421 -0.124601 8.66246e-19)
(0.339815 -0.102523 -1.25513e-18)
(0.399097 -0.0838146 -5.83168e-19)
(0.454907 -0.0667866 1.89286e-19)
(0.508677 -0.0503308 -2.90037e-19)
(0.561197 -0.0338094 4.21027e-19)
(0.612902 -0.0169208 -3.76252e-19)
(0.664011 0.000432773 7.27565e-19)
(0.714586 0.018221 -1.21596e-18)
(0.76457 0.036343 -3.22846e-19)
(0.813812 0.0546616 1.15742e-18)
(0.862093 0.0730236 -1.40033e-19)
(0.909143 0.0912677 1.0812e-18)
(0.954657 0.109229 -1.34773e-18)
(0.998304 0.126744 7.78043e-19)
(1.03973 0.14359 1.37425e-18)
(1.07864 0.159736 -1.59334e-18)
(1.11451 0.174939 -5.30177e-19)
(1.14671 0.188797 -6.58486e-19)
(-0.179029 -0.200936 -1.07567e-19)
(0.0468613 -0.20179 3.40067e-19)
(0.184773 -0.184614 -1.72485e-19)
(0.275561 -0.160732 2.111e-19)
(0.343422 -0.135404 -4.88316e-19)
(0.401093 -0.110504 1.21839e-19)
(0.454497 -0.0865886 6.16153e-20)
(0.506223 -0.0637059 -5.27488e-19)
(0.557257 -0.0417069 3.18712e-19)
(0.607942 -0.0203818 7.12417e-19)
(0.658346 0.000450936 -9.91272e-20)
(0.708416 0.0209331 -3.97819e-19)
(0.75803 0.0411551 -2.19639e-19)
(0.807003 0.0611505 5.61017e-19)
(0.855103 0.0809 5.03935e-19)
(0.902061 0.10034 -5.89812e-19)
(0.947578 0.11937 -5.25519e-19)
(0.991334 0.137864 -5.86698e-19)
(1.033 0.155682 5.20953e-19)
(1.07222 0.172607 -4.90425e-19)
(1.1087 0.188639 2.85261e-19)
(1.14201 0.203547 4.42153e-19)
(1.1716 0.216924 1.36275e-19)
(-0.0543768 -0.0708432 8.76605e-20)
(0.22436 -0.0959691 9.15408e-20)
(0.360938 -0.108228 -3.94905e-20)
(0.423513 -0.109467 -9.81982e-20)
(0.455216 -0.102619 2.54602e-19)
(0.479117 -0.0899174 -1.1493e-19)
(0.505311 -0.07332 8.8258e-20)
(0.536905 -0.0543068 8.82283e-20)
(0.573863 -0.0340838 -6.45788e-20)
(0.615075 -0.0132825 7.40577e-20)
(0.659283 0.00771567 -4.04355e-19)
(0.705392 0.0287281 2.00777e-19)
(0.752519 0.0496484 -1.15969e-19)
(0.799962 0.0704132 5.81297e-20)
(0.847148 0.0909577 3.20204e-19)
(0.893593 0.111197 -4.59326e-19)
(0.93887 0.131022 7.29957e-20)
(0.982589 0.150299 4.48704e-19)
(1.02438 0.168881 -4.9992e-19)
(1.0639 0.186611 1.57154e-19)
(1.1008 0.203261 -7.95976e-20)
(1.13478 0.218845 -1.70409e-19)
(1.16549 0.23315 -1.19714e-19)
(1.1925 0.24573 2.29525e-20)
(0.317997 -0.00511618 6.35945e-22)
(0.422984 0.0173953 1.67725e-19)
(0.467316 0.0159993 2.48296e-19)
(0.485712 0.00717838 -6.47089e-20)
(0.498721 -0.000217716 -3.05987e-19)
(0.516066 -0.00306657 1.96994e-19)
(0.540785 -0.000652868 -1.01283e-19)
(0.57271 0.00652739 3.36159e-20)
(0.61038 0.0176119 2.41401e-20)
(0.652173 0.0317196 3.66515e-20)
(0.696671 0.0480846 4.77398e-19)
(0.74275 0.0660643 -3.22581e-19)
(0.789529 0.0851298 3.83077e-19)
(0.836314 0.104844 -3.49135e-19)
(0.882544 0.124837 -3.78434e-19)
(0.927746 0.144794 2.88745e-19)
(0.971513 0.164434 -3.01933e-19)
(1.01347 0.183512 4.54677e-20)
(1.05328 0.201803 3.98727e-19)
(1.09062 0.219105 9.79037e-20)
(1.12516 0.235162 -2.36524e-19)
(1.15663 0.249996 -2.1863e-19)
(1.18477 0.263423 1.59473e-19)
(1.20927 0.27492 -3.16756e-19)
(0.156448 -0.147761 2.58237e-19)
(0.257655 -0.088499 -3.07873e-19)
(0.334433 -0.0491449 5.90453e-19)
(0.39825 -0.0222906 -4.92109e-19)
(0.455981 -0.0023507 3.85497e-19)
(0.511058 0.0142528 -4.38607e-19)
(0.564835 0.0298575 -2.23186e-19)
(0.617701 0.0457737 8.4939e-19)
(0.669685 0.0626305 -2.19141e-19)
(0.720717 0.0806014 -2.69197e-19)
(0.770698 0.099582 3.31444e-19)
(0.819509 0.119316 -2.24816e-19)
(0.867003 0.139484 8.40576e-19)
(0.913006 0.159756 -6.24281e-20)
(0.957317 0.179818 -3.11766e-19)
(0.99971 0.199385 -1.24857e-19)
(1.03994 0.2182 -6.62609e-19)
(1.07776 0.236034 9.11558e-19)
(1.11289 0.252687 -1.39405e-18)
(1.14508 0.267903 1.34602e-18)
(1.17408 0.28173 1.12427e-19)
(1.19972 0.294038 -9.3219e-19)
(1.22186 0.304203 4.34306e-19)
(-0.0164888 -0.209429 6.90127e-19)
(0.163483 -0.147512 -1.01485e-18)
(0.284561 -0.0974151 6.45282e-19)
(0.37508 -0.0565807 -4.52341e-19)
(0.450335 -0.0224519 -9.05447e-19)
(0.517568 0.00718707 1.13016e-18)
(0.579936 0.033996 2.09238e-19)
(0.63876 0.0591102 -9.55523e-19)
(0.694671 0.0832171 -6.54324e-20)
(0.748043 0.106681 -5.80177e-19)
(0.79914 0.129657 -3.07538e-19)
(0.848136 0.152162 -6.52081e-20)
(0.895119 0.174132 1.4535e-18)
(0.940091 0.195452 2.94662e-19)
(0.982983 0.21598 -7.48061e-19)
(1.02367 0.23556 -3.38227e-19)
(1.06197 0.254032 5.96262e-19)
(1.09768 0.271233 4.36877e-19)
(1.13057 0.287011 1.58321e-20)
(1.16042 0.301143 -1.70854e-18)
(1.18702 0.313719 2.1692e-18)
(1.21028 0.324687 -8.85591e-19)
(1.23022 0.3333 2.04729e-19)
(0.25302 -0.119942 2.23463e-19)
(0.383586 -0.0907833 1.71271e-19)
(0.457867 -0.0622917 5.7362e-19)
(0.509248 -0.0334911 -1.33548e-18)
(0.553895 -0.00408601 1.40624e-18)
(0.598269 0.0256768 -1.80179e-18)
(0.643988 0.0552726 1.05347e-18)
(0.690871 0.0842237 3.2442e-19)
(0.738245 0.112187 1.43527e-18)
(0.78546 0.138979 -7.10498e-19)
(0.832006 0.164519 -4.92583e-19)
(0.877496 0.188794 2.03969e-19)
(0.92162 0.211816 -2.25268e-18)
(0.964111 0.233585 2.9977e-18)
(1.00472 0.254078 -3.58222e-19)
(1.0432 0.273237 -2.70277e-19)
(1.07931 0.290981 -2.54344e-18)
(1.11281 0.307204 1.36533e-18)
(1.14346 0.321796 -6.65177e-19)
(1.17105 0.334567 1.20596e-18)
(1.19536 0.345643 -1.6227e-18)
(1.21642 0.355065 1.43444e-18)
(1.23436 0.361933 -3.41325e-19)
(0.645355 0.12717 2.2184e-19)
(0.663744 0.10942 8.25501e-20)
(0.658074 0.0972878 4.74344e-19)
(0.653067 0.093708 -1.48735e-18)
(0.658568 0.0985751 1.51092e-19)
(0.676038 0.110237 -4.0612e-19)
(0.703346 0.126871 2.91315e-18)
(0.737588 0.146622 -4.97457e-18)
(0.776179 0.168105 1.00695e-18)
(0.817169 0.190319 2.03925e-19)
(0.859163 0.212585 2.42605e-18)
(0.901172 0.234443 -5.18379e-19)
(0.942479 0.255584 -8.36373e-19)
(0.982543 0.275778 1.97997e-20)
(1.02093 0.294843 -1.20252e-18)
(1.0573 0.312617 -5.02903e-19)
(1.09132 0.328948 1.83646e-18)
(0.548296 0.186696 -4.5452e-19)
(0.568249 0.183048 -1.06442e-18)
(0.588664 0.180679 3.21812e-19)
(0.61646 0.182269 1.15261e-18)
(0.651798 0.188461 -2.25152e-18)
(0.692519 0.198761 2.57723e-18)
(0.736201 0.212328 -3.48996e-20)
(1.22843 0.263714 9.26632e-20)
(1.21173 0.2373 -9.64097e-20)
(1.19121 0.210949 9.4385e-19)
(1.16693 0.184909 -1.05528e-18)
(1.13901 0.159427 -3.10638e-20)
(1.10764 0.134746 -1.7349e-18)
(1.07302 0.111105 -4.59196e-19)
(1.03539 0.0887424 -8.05404e-19)
(0.995037 0.0679087 -6.65162e-19)
(1.26255 0.279502 -4.10852e-20)
(1.25157 0.257216 1.4505e-19)
(1.23721 0.234669 -4.44614e-19)
(1.21943 0.212025 -5.15697e-19)
(1.19826 0.189455 8.60798e-19)
(1.17373 0.16714 3.68079e-20)
(1.14593 0.14527 7.72512e-19)
(1.11498 0.124047 1.10488e-18)
(1.08106 0.103694 -9.40614e-19)
(1.28351 0.288409 5.81643e-20)
(1.27768 0.269868 -1.67467e-19)
(1.26896 0.250873 -2.68522e-19)
(1.25727 0.231511 4.71349e-19)
(1.24251 0.211886 7.64496e-19)
(1.22465 0.192111 -8.25595e-20)
(1.20365 0.172319 -7.53829e-20)
(1.17953 0.152661 -8.19125e-20)
(1.15234 0.133312 2.20141e-18)
(1.29369 0.290834 -9.02041e-20)
(1.29203 0.275733 2.10243e-19)
(1.28804 0.260103 6.94114e-20)
(1.28159 0.243977 5.39359e-19)
(1.27253 0.227398 -4.10672e-20)
(1.26075 0.210423 9.12772e-19)
(1.24616 0.193126 -1.20073e-18)
(1.22867 0.175602 1.10453e-18)
(1.20824 0.157969 -2.02495e-18)
(1.2959 0.288164 8.19129e-20)
(1.29737 0.276076 -1.46883e-19)
(1.29706 0.263484 -3.97161e-19)
(1.29482 0.250381 -6.45089e-19)
(1.29049 0.236764 2.40242e-19)
(1.28392 0.222643 1.79472e-19)
(1.27497 0.208038 -1.50184e-19)
(1.26351 0.192988 -2.12385e-18)
(1.2494 0.177553 1.20515e-18)
(1.29264 0.281601 -1.11519e-19)
(1.29626 0.271991 -8.54516e-20)
(1.29857 0.261958 6.44041e-19)
(1.29945 0.251472 3.98794e-19)
(1.29876 0.240504 1.33554e-20)
(1.29633 0.229027 -6.62075e-19)
(1.29201 0.217025 4.198e-19)
(1.28562 0.204489 6.48635e-19)
(1.27701 0.191431 6.46757e-19)
(1.29791 0.248351 -1.7128e-19)
(1.2998 0.23961 9.71993e-20)
(1.30042 0.230424 -3.33779e-19)
(1.29962 0.220754 9.95487e-20)
(1.29723 0.210564 2.1093e-19)
(1.29308 0.199828 -9.12187e-19)
(1.25699 0.36541 1.02513e-18)
(1.25549 0.340997 -9.24299e-19)
(1.25027 0.31578 7.91257e-20)
(1.24127 0.289949 -8.16346e-20)
(1.27396 0.36321 -3.27261e-19)
(1.2758 0.343352 5.07372e-19)
(1.27458 0.322703 -1.74023e-19)
(1.27019 0.301378 5.90618e-20)
(1.28025 0.356581 3.71179e-19)
(1.28481 0.340563 1.62627e-19)
(1.28695 0.323823 1.86504e-19)
(1.28656 0.306417 -6.60585e-20)
(1.27966 0.345513 -4.62362e-19)
(1.286 0.332737 -1.29075e-19)
(1.29054 0.319354 -1.9794e-19)
(1.29314 0.30538 8.65128e-20)
(1.27473 0.331686 6.17442e-19)
(1.28208 0.321511 3.83412e-19)
(1.28813 0.31087 1.49291e-19)
(1.29278 0.299758 -7.94836e-20)
(1.26742 0.31635 -4.08253e-19)
(1.27515 0.308175 -6.16314e-19)
(1.28199 0.29967 1.0592e-19)
(1.28785 0.290819 1.02475e-19)
(1.25888 0.300374 1.65787e-19)
)
;

boundaryField
{
    inlet
    {
        type            uniformFixedValue;
        uniformValue    constant (1 0 0);
        value           nonuniform 0();
    }
    outlet
    {
        type            pressureInletOutletVelocity;
        value           nonuniform 0();
    }
    cylinder
    {
        type            fixedValue;
        value           nonuniform 0();
    }
    top
    {
        type            symmetryPlane;
    }
    bottom
    {
        type            symmetryPlane;
    }
    defaultFaces
    {
        type            empty;
    }
    procBoundary26to20
    {
        type            processor;
        value           nonuniform List<vector> 
28
(
(0.134121 -0.0313088 -1.73803e-19)
(0.0873649 -0.0516704 -2.90499e-19)
(0.0873649 -0.0516704 -2.90499e-19)
(0.0922241 -0.0906983 -1.08553e-18)
(0.0922241 -0.0906983 -1.08553e-18)
(0.184543 -0.0879814 -5.48251e-19)
(0.184543 -0.0879814 -5.48251e-19)
(0.168219 -0.0310795 -1.50432e-18)
(0.168219 -0.0310795 -1.50432e-18)
(-0.0790094 -0.105969 -2.08853e-18)
(-0.0790094 -0.105969 -2.08853e-18)
(-0.362683 -0.0391718 3.37657e-18)
(-0.173538 0.0443705 1.40771e-19)
(-0.173538 0.0443705 1.40771e-19)
(-0.156464 0.0482749 -1.24049e-19)
(-0.142719 -0.205258 2.89974e-18)
(-0.434946 -0.352677 8.68735e-19)
(-0.552643 -0.164322 1.28038e-20)
(-0.552643 -0.164322 1.28038e-20)
(-0.561912 -0.0360229 5.3429e-19)
(0.106129 -0.0767314 5.27533e-19)
(0.0159797 -0.235481 -7.91492e-20)
(0.0159797 -0.235481 -7.91492e-20)
(-0.301884 -0.283285 -3.90404e-19)
(0.00808806 -0.15202 1.24361e-18)
(0.557167 0.142082 -3.45259e-19)
(0.509584 0.18589 6.12503e-19)
(0.509584 0.18589 6.12503e-19)
)
;
    }
    procBoundary26to25
    {
        type            processor;
        value           nonuniform List<vector> 
23
(
(1.12274 0.343692 -1.19043e-18)
(1.1513 0.356718 2.99256e-18)
(1.17681 0.367829 -1.59743e-19)
(1.19904 0.377163 7.13031e-19)
(1.21811 0.384855 -3.73389e-18)
(0.781015 0.228266 -1.29189e-18)
(0.825769 0.245772 2.4375e-19)
(0.869732 0.264165 -5.8583e-19)
(0.912443 0.282873 -4.07112e-19)
(0.953576 0.301424 -8.30006e-19)
(0.992872 0.319423 -7.18147e-19)
(1.0301 0.336537 2.29607e-18)
(1.06502 0.352491 8.13832e-19)
(1.12274 0.343692 -1.19043e-18)
(1.09744 0.36705 1.69242e-18)
(0.250077 0.0687131 5.19708e-18)
(0.362503 0.119455 1.83879e-18)
(0.449597 0.154985 -2.25251e-18)
(0.524849 0.182776 -1.69985e-18)
(0.593577 0.206625 8.32558e-19)
(0.657361 0.228469 -1.13512e-18)
(0.781015 0.228266 -1.29189e-18)
(0.716628 0.249239 -6.04307e-19)
)
;
    }
    procBoundary26to27
    {
        type            processor;
        value           nonuniform List<vector> 
17
(
(0.15838 -0.0349508 2.41025e-18)
(0.183973 -0.0380487 -3.06026e-20)
(0.21141 -0.04029 -5.26809e-18)
(0.240901 -0.0415426 4.71648e-18)
(0.302351 -0.0491744 3.89783e-18)
(0.302351 -0.0491744 3.89783e-18)
(0.339859 -0.0467457 -2.94506e-18)
(0.378888 -0.0436379 2.63349e-18)
(0.419516 -0.0398862 -5.72336e-18)
(0.505261 -0.0345839 -3.61194e-18)
(0.505261 -0.0345839 -3.61194e-18)
(0.550578 -0.0280697 1.1716e-18)
(0.597027 -0.0211176 -2.88526e-18)
(0.644384 -0.0137577 1.4517e-18)
(0.740406 0.003789 1.63858e-18)
(0.740406 0.003789 1.63858e-18)
(0.788774 0.0132021 -2.67717e-18)
)
;
    }
    procBoundary26to31
    {
        type            processor;
        value           nonuniform List<vector> 8((1.23433 0.389822 3.3138e-19) (1.25487 0.388832 4.59417e-20) (1.26917 0.382168 -7.50994e-19) (1.27341 0.371821 -7.86607e-19) (1.27163 0.357666 2.67483e-20) (1.26617 0.341399 -2.98339e-19) (1.25886 0.324204 -1.01753e-20) (1.25058 0.306829 -4.8889e-20));
    }
    procBoundary26to32
    {
        type            processor;
        value           nonuniform List<vector> 
15
(
(1.28593 0.272334 -7.95014e-20)
(1.29085 0.264673 -2.38597e-19)
(1.29488 0.256692 5.29525e-19)
(1.29488 0.256692 5.29525e-19)
(1.29223 0.242149 4.88262e-20)
(1.29581 0.235191 4.00904e-19)
(1.29851 0.227884 -5.04169e-19)
(1.3002 0.220179 -9.23625e-19)
(1.30074 0.212028 -8.6193e-19)
(1.29998 0.203386 -1.1469e-18)
(1.26661 0.29371 -5.14756e-19)
(1.27374 0.286827 2.05036e-19)
(1.28019 0.279709 1.07318e-19)
(1.26661 0.29371 -5.14756e-19)
(1.24997 0.28433 -7.03345e-20)
)
;
    }
    procBoundary26to33
    {
        type            processor;
        value           nonuniform List<vector> 9((0.836417 0.0227779 -3.92595e-18) (0.882049 0.0314331 -3.08926e-19) (0.952294 0.0488664 -1.59064e-18) (1.04437 0.0844503 5.39071e-19) (1.12218 0.114473 1.73468e-18) (1.18485 0.140374 -2.27679e-18) (1.23256 0.161818 1.48693e-18) (1.26603 0.177879 1.60965e-18) (1.287 0.188533 -6.58543e-19));
    }
}


// ************************************************************************* //
