/*--------------------------------*- C++ -*----------------------------------*\
  =========                 |
  \\      /  F ield         | OpenFOAM: The Open Source CFD Toolbox
   \\    /   O peration     | Website:  https://openfoam.org
    \\  /    A nd           | Version:  7
     \\/     M anipulation  |
\*---------------------------------------------------------------------------*/
FoamFile
{
    version     2.0;
    format      ascii;
    class       volScalarField;
    location    "127";
    object      p;
}
// * * * * * * * * * * * * * * * * * * * * * * * * * * * * * * * * * * * * * //

dimensions      [0 2 -2 0 0 0 0];

internalField   nonuniform List<scalar> 
12400
(
-0.389601
-0.39163
-0.392882
-0.393941
-0.395249
-0.397042
-0.399488
-0.402677
-0.406635
-0.41133
-0.416661
-0.422418
-0.428228
-0.433462
-0.437252
-0.438367
-0.435332
-0.426712
-0.411779
-0.389506
-0.399914
-0.401521
-0.402611
-0.40369
-0.405181
-0.407348
-0.410382
-0.414399
-0.419452
-0.425539
-0.432585
-0.440396
-0.448583
-0.456461
-0.462986
-0.466672
-0.465604
-0.457721
-0.441848
-0.415368
-0.410225
-0.411349
-0.412237
-0.413298
-0.414933
-0.417427
-0.420995
-0.425773
-0.431838
-0.439214
-0.447847
-0.457551
-0.467916
-0.478199
-0.487168
-0.493096
-0.493647
-0.48606
-0.468916
-0.437732
-0.420358
-0.420954
-0.4216
-0.422602
-0.424327
-0.427082
-0.431102
-0.436541
-0.443495
-0.452007
-0.462039
-0.473403
-0.485659
-0.497981
-0.509005
-0.516723
-0.518439
-0.510581
-0.491964
-0.455389
-0.430141
-0.430181
-0.430551
-0.431447
-0.433197
-0.43613
-0.440496
-0.446467
-0.454152
-0.463605
-0.474796
-0.487529
-0.501322
-0.515268
-0.527861
-0.536832
-0.539227
-0.530499
-0.510064
-0.467934
-0.439412
-0.43889
-0.438961
-0.439702
-0.441404
-0.444415
-0.449001
-0.455348
-0.463577
-0.473746
-0.48582
-0.499589
-0.51453
-0.52965
-0.543301
-0.552958
-0.555405
-0.545494
-0.522894
-0.475354
-0.448038
-0.446974
-0.446725
-0.447262
-0.448839
-0.451818
-0.456483
-0.463034
-0.471599
-0.482237
-0.494903
-0.509363
-0.525046
-0.540875
-0.555076
-0.564869
-0.566891
-0.555304
-0.530333
-0.477971
-0.455913
-0.454351
-0.453776
-0.454063
-0.455433
-0.458264
-0.462858
-0.46943
-0.478115
-0.48897
-0.501932
-0.516735
-0.532763
-0.548858
-0.563128
-0.572542
-0.573685
-0.560011
-0.532588
-0.476127
-0.462974
-0.460976
-0.460079
-0.460077
-0.461162
-0.463729
-0.4681
-0.474508
-0.483098
-0.493922
-0.506897
-0.521723
-0.537733
-0.553686
-0.56758
-0.576145
-0.575961
-0.559903
-0.529949
-0.470309
-0.469195
-0.466842
-0.465638
-0.465315
-0.466044
-0.468237
-0.47224
-0.478307
-0.486597
-0.497159
-0.509891
-0.524456
-0.540127
-0.555576
-0.568693
-0.575981
-0.574032
-0.555391
-0.52285
-0.461075
-0.474596
-0.471979
-0.470492
-0.469827
-0.470139
-0.471859
-0.475361
-0.480927
-0.488733
-0.49883
-0.511098
-0.525159
-0.540218
-0.554849
-0.56682
-0.572436
-0.568303
-0.546968
-0.511882
-0.449043
-0.479236
-0.47645
-0.474713
-0.473692
-0.473541
-0.474708
-0.477598
-0.482525
-0.489691
-0.499153
-0.510773
-0.524126
-0.538349
-0.551886
-0.562365
-0.565932
-0.559229
-0.535172
-0.497775
-0.43489
-0.48321
-0.480351
-0.478398
-0.477019
-0.476372
-0.476926
-0.479118
-0.483301
-0.489706
-0.4984
-0.509228
-0.521714
-0.534897
-0.547083
-0.555728
-0.55688
-0.547291
-0.520589
-0.481337
-0.419327
-0.48665
-0.483803
-0.481668
-0.479934
-0.478776
-0.478681
-0.480121
-0.483489
-0.489049
-0.496882
-0.506807
-0.518289
-0.530244
-0.540816
-0.547272
-0.545668
-0.532983
-0.503863
-0.4634
-0.403058
-0.489716
-0.486947
-0.484659
-0.482581
-0.480911
-0.480154
-0.480818
-0.483337
-0.488007
-0.494914
-0.503857
-0.514206
-0.524732
-0.533398
-0.537299
-0.532661
-0.516818
-0.485688
-0.444759
-0.386713
-0.492589
-0.489942
-0.487522
-0.485113
-0.482942
-0.481534
-0.481429
-0.483097
-0.486863
-0.492813
-0.500694
-0.509769
-0.518632
-0.525066
-0.526064
-0.51822
-0.499325
-0.466758
-0.426082
-0.37076
-0.495467
-0.492954
-0.490412
-0.487685
-0.485036
-0.483007
-0.482164
-0.483007
-0.485877
-0.490842
-0.497577
-0.505205
-0.512129
-0.515988
-0.513802
-0.502724
-0.481044
-0.447692
-0.407778
-0.355419
-0.498551
-0.496154
-0.493486
-0.490454
-0.487356
-0.484749
-0.483217
-0.483277
-0.485265
-0.48921
-0.494684
-0.500647
-0.505322
-0.506291
-0.500769
-0.486587
-0.462527
-0.428965
-0.389884
-0.340663
-0.502037
-0.499704
-0.496893
-0.493565
-0.49005
-0.486915
-0.484749
-0.484069
-0.485183
-0.488047
-0.492102
-0.496138
-0.498253
-0.496096
-0.487249
-0.470248
-0.444338
-0.410947
-0.37223
-0.326489
-0.506102
-0.503753
-0.500767
-0.497147
-0.493245
-0.489629
-0.486882
-0.485492
-0.485712
-0.487392
-0.489825
-0.491653
-0.490941
-0.485541
-0.473545
-0.454128
-0.426991
-0.394003
-0.355225
-0.313246
-0.510894
-0.508426
-0.505223
-0.501306
-0.497039
-0.49298
-0.489685
-0.48759
-0.486858
-0.487208
-0.487782
-0.487132
-0.483404
-0.474787
-0.459938
-0.43857
-0.410791
-0.378432
-0.340548
-0.301494
-0.516524
-0.513821
-0.510346
-0.506118
-0.501495
-0.497013
-0.493179
-0.490349
-0.488563
-0.487396
-0.485864
-0.48251
-0.475684
-0.464
-0.44667
-0.423809
-0.395794
-0.364176
-0.328408
-0.292512
-0.523066
-0.520003
-0.516195
-0.511632
-0.506646
-0.501739
-0.497345
-0.493707
-0.490723
-0.487823
-0.483951
-0.477736
-0.467836
-0.453333
-0.433914
-0.409963
-0.381969
-0.35129
-0.317466
-0.283987
-0.530556
-0.52701
-0.522806
-0.517873
-0.512501
-0.50714
-0.502129
-0.49757
-0.493206
-0.488345
-0.48193
-0.472778
-0.459926
-0.442905
-0.421771
-0.397043
-0.369244
-0.339488
-0.307434
-0.276118
-0.538998
-0.534856
-0.53019
-0.524846
-0.519049
-0.513182
-0.507459
-0.501824
-0.495867
-0.48882
-0.479707
-0.467624
-0.452014
-0.432796
-0.410271
-0.385001
-0.357473
-0.328595
-0.298068
-0.268461
-0.548373
-0.543536
-0.538348
-0.532546
-0.526273
-0.519818
-0.513252
-0.506347
-0.498562
-0.489119
-0.477212
-0.462276
-0.444145
-0.423036
-0.399389
-0.373738
-0.346511
-0.318414
-0.289189
-0.261037
-0.558644
-0.553029
-0.547267
-0.54096
-0.534142
-0.526991
-0.519412
-0.511008
-0.50115
-0.489128
-0.474391
-0.456739
-0.436342
-0.413619
-0.38906
-0.363136
-0.336199
-0.308787
-0.280679
-0.253738
-0.569761
-0.563302
-0.556923
-0.550062
-0.542618
-0.534632
-0.525829
-0.515668
-0.503493
-0.488752
-0.471208
-0.451014
-0.428604
-0.404504
-0.379196
-0.353065
-0.326395
-0.299574
-0.272425
-0.24652
-0.581659
-0.574309
-0.56728
-0.559815
-0.551644
-0.542649
-0.532377
-0.520181
-0.505461
-0.487907
-0.467631
-0.445094
-0.420905
-0.395627
-0.369691
-0.343398
-0.316963
-0.290653
-0.264337
-0.23932
-0.594253
-0.585985
-0.578282
-0.570158
-0.561137
-0.550923
-0.538904
-0.524389
-0.506929
-0.486525
-0.463633
-0.438959
-0.413202
-0.386909
-0.360439
-0.334012
-0.307781
-0.281917
-0.256331
-0.232085
-0.607438
-0.598241
-0.589847
-0.580999
-0.570979
-0.559303
-0.545237
-0.528132
-0.507781
-0.484543
-0.459183
-0.432571
-0.405434
-0.37826
-0.351329
-0.324789
-0.298739
-0.273269
-0.248335
-0.224765
-0.621079
-0.610959
-0.601862
-0.592212
-0.581013
-0.567603
-0.551183
-0.531245
-0.507909
-0.481901
-0.45424
-0.425884
-0.397529
-0.369587
-0.342257
-0.315625
-0.289738
-0.264627
-0.240282
-0.217314
-0.635008
-0.623988
-0.614175
-0.603626
-0.591043
-0.575604
-0.556532
-0.533565
-0.50721
-0.478541
-0.448756
-0.418836
-0.389409
-0.360796
-0.333124
-0.30642
-0.28069
-0.255916
-0.232114
-0.209689
-0.649019
-0.63714
-0.626596
-0.615031
-0.60083
-0.583063
-0.561069
-0.534935
-0.505587
-0.474397
-0.442673
-0.411358
-0.380989
-0.351795
-0.323834
-0.297086
-0.271517
-0.247069
-0.223778
-0.201854
-0.662873
-0.650188
-0.638891
-0.626173
-0.610104
-0.589715
-0.564577
-0.535205
-0.502945
-0.469404
-0.435925
-0.403375
-0.372185
-0.342496
-0.314302
-0.287543
-0.262146
-0.238028
-0.215226
-0.193775
-0.676292
-0.662869
-0.65079
-0.636762
-0.618568
-0.595289
-0.566843
-0.534231
-0.49919
-0.463486
-0.42844
-0.394809
-0.362914
-0.332814
-0.304449
-0.277719
-0.252516
-0.228738
-0.206417
-0.185422
-0.688966
-0.674885
-0.661987
-0.646478
-0.625907
-0.599512
-0.567665
-0.531881
-0.494231
-0.45657
-0.420141
-0.385579
-0.353095
-0.322673
-0.294201
-0.267547
-0.242571
-0.219155
-0.197313
-0.17677
-0.700563
-0.68591
-0.672146
-0.65498
-0.631799
-0.60212
-0.566855
-0.528029
-0.487978
-0.448575
-0.410952
-0.375609
-0.342653
-0.311999
-0.283494
-0.256971
-0.232262
-0.209239
-0.187883
-0.167797
-0.710726
-0.695595
-0.680913
-0.661915
-0.635927
-0.602864
-0.56424
-0.522558
-0.480343
-0.439425
-0.400798
-0.364825
-0.331518
-0.30073
-0.27227
-0.24594
-0.221548
-0.198954
-0.178099
-0.15849
-0.71909
-0.703578
-0.687923
-0.666932
-0.637988
-0.601516
-0.559666
-0.515363
-0.471244
-0.429045
-0.389605
-0.353157
-0.319625
-0.288808
-0.26048
-0.234413
-0.210392
-0.188269
-0.16794
-0.148842
-0.725288
-0.709493
-0.69281
-0.669689
-0.637699
-0.597874
-0.552997
-0.506349
-0.460603
-0.417364
-0.377308
-0.340545
-0.30692
-0.276185
-0.248081
-0.222353
-0.198764
-0.177161
-0.157387
-0.13884
-0.728961
-0.71298
-0.695221
-0.669867
-0.634808
-0.591761
-0.544118
-0.495433
-0.448353
-0.404319
-0.363848
-0.326935
-0.293356
-0.26282
-0.235039
-0.209732
-0.186641
-0.165611
-0.14643
-0.128454
-0.729767
-0.713695
-0.694821
-0.667176
-0.629097
-0.583032
-0.532934
-0.482548
-0.434435
-0.389858
-0.349177
-0.312285
-0.278896
-0.248681
-0.221322
-0.196522
-0.174004
-0.153614
-0.135082
-0.117644
-0.727388
-0.711317
-0.69131
-0.661364
-0.620386
-0.571574
-0.519373
-0.467639
-0.418802
-0.373936
-0.333256
-0.296559
-0.263506
-0.233739
-0.20691
-0.182704
-0.16085
-0.141168
-0.123342
-0.106436
-0.721543
-0.705562
-0.684425
-0.652223
-0.608535
-0.557304
-0.503386
-0.45067
-0.401421
-0.356524
-0.316055
-0.27973
-0.247164
-0.21797
-0.191804
-0.168277
-0.147188
-0.128282
-0.111116
-0.0949396
-0.711993
-0.696188
-0.673949
-0.639592
-0.593448
-0.540172
-0.484945
-0.431623
-0.382275
-0.337602
-0.297556
-0.261782
-0.229866
-0.201367
-0.176023
-0.153281
-0.132996
-0.114927
-0.0984752
-0.0831083
-0.698546
-0.683001
-0.659717
-0.623358
-0.575069
-0.52016
-0.46405
-0.410497
-0.361359
-0.317163
-0.277755
-0.242716
-0.211644
-0.184009
-0.159508
-0.13768
-0.118294
-0.101116
-0.0854458
-0.0709376
-0.681061
-0.665858
-0.641617
-0.603462
-0.553385
-0.497282
-0.44072
-0.387308
-0.338683
-0.295227
-0.256684
-0.222594
-0.192472
-0.165842
-0.142317
-0.121491
-0.103096
-0.0868718
-0.0720439
-0.0584434
-0.659455
-0.644673
-0.619593
-0.579892
-0.528421
-0.471581
-0.414996
-0.362081
-0.31429
-0.271848
-0.234376
-0.201393
-0.17239
-0.146891
-0.124471
-0.10474
-0.0874212
-0.0722164
-0.0582874
-0.0456494
-0.633702
-0.619419
-0.593644
-0.552682
-0.500242
-0.443137
-0.386947
-0.334867
-0.288278
-0.247044
-0.21085
-0.179157
-0.151432
-0.127194
-0.105999
-0.0874584
-0.0712978
-0.0571764
-0.0442012
-0.0325831
-0.603832
-0.590123
-0.563824
-0.521922
-0.468968
-0.412065
-0.356671
-0.305829
-0.26061
-0.22087
-0.186165
-0.155936
-0.129644
-0.106794
-0.0869364
-0.069683
-0.0547589
-0.0417829
-0.0298169
-0.0192768
-0.569933
-0.556867
-0.530242
-0.48777
-0.434777
-0.378463
-0.324244
-0.274983
-0.231435
-0.193409
-0.160388
-0.131794
-0.107079
-0.0857428
-0.0673303
-0.0514555
-0.0378435
-0.0260734
-0.015174
-0.00576929
-0.532141
-0.519791
-0.493075
-0.450444
-0.397823
-0.34235
-0.289852
-0.242465
-0.200854
-0.164754
-0.133602
-0.106804
-0.0838043
-0.0640992
-0.047233
-0.0328239
-0.0205954
-0.0100901
-0.000318707
0.00789297
-0.490629
-0.479101
-0.452557
-0.410093
-0.357961
-0.304216
-0.253647
-0.208414
-0.168986
-0.135013
-0.105903
-0.081049
-0.0598932
-0.0419295
-0.0267041
-0.013842
-0.00306255
0.00612335
0.0147037
0.021662
-0.445615
-0.43505
-0.4089
-0.366647
-0.315909
-0.264102
-0.215804
-0.172989
-0.135963
-0.104303
-0.077394
-0.0546228
-0.0354287
-0.0193073
-0.00581016
0.00543001
0.0147027
0.0225248
0.0298567
0.0355008
-0.397349
-0.387919
-0.362176
-0.320768
-0.271781
-0.222237
-0.176515
-0.136359
-0.101933
-0.0727559
-0.0481927
-0.0276277
-0.0105014
0.00368693
0.0153762
0.0249263
0.0326452
0.0390727
0.0451006
0.0493695
-0.346097
-0.338046
-0.312794
-0.272783
-0.225828
-0.178864
-0.135987
-0.098707
-0.0670588
-0.0405132
-0.0184238
-0.00017448
0.0147912
0.0269668
0.0367774
0.0445798
0.0507138
0.0557207
0.0603425
0.0631099
-0.292261
-0.285706
-0.261327
-0.222929
-0.178331
-0.13424
-0.0944443
-0.060227
-0.0315105
-0.00772659
0.0117785
0.0276188
0.0403452
0.0504401
0.0583138
0.0643296
0.0688706
0.0724135
0.0753829
0.0762762
-0.236583
-0.231114
-0.208031
-0.171534
-0.129594
-0.0886341
-0.0521209
-0.0211253
0.00452987
0.0254436
0.042273
0.0556275
0.0660502
0.0740098
0.0799041
0.0841195
0.087079
0.0890704
0.0899781
0.0884771
-0.179159
-0.174852
-0.153266
-0.118949
-0.0799354
-0.0423255
-0.009262
0.0183829
0.0408726
0.0588298
0.0729117
0.0837211
0.0917907
0.0975743
0.101464
0.103883
0.105257
0.105544
0.104084
0.100737
-0.120404
-0.117368
-0.0974337
-0.0655428
-0.0296845
0.00439721
0.0338797
0.0580752
0.0773215
0.0922588
0.103542
0.111764
0.117447
0.12103
0.122907
0.123527
0.123255
0.121659
0.117888
0.115959
-0.0607804
-0.0590901
-0.0409517
-0.0116927
0.0208238
0.0512398
0.0770459
0.0977238
0.113675
0.125553
0.134006
0.139619
0.142899
0.144273
0.144139
0.142946
0.140942
0.137483
0.132245
0.130922
-0.00074945
-0.000455234
0.0157594
0.0422185
0.0712506
0.0979046
0.119975
0.137098
0.14973
0.158532
0.164146
0.167144
0.168021
0.167194
0.165062
0.162049
0.158295
0.153146
0.146808
0.145086
0.059227
0.0580931
0.0722781
0.0958077
0.121257
0.144093
0.162403
0.175965
0.18528
0.191014
0.1938
0.194199
0.192691
0.189684
0.185571
0.180743
0.175269
0.168583
0.161239
0.158634
0.118688
0.11611
0.128185
0.148694
0.170505
0.189508
0.204069
0.214093
0.220121
0.222818
0.222809
0.220642
0.216783
0.211632
0.205569
0.19895
0.191811
0.183687
0.175309
0.171595
0.177176
0.173153
0.183065
0.200505
0.218664
0.233858
0.244714
0.251253
0.254049
0.253764
0.251014
0.246332
0.240174
0.232927
0.224958
0.216591
0.207848
0.198355
0.18892
0.183992
0.234245
0.22879
0.236515
0.250873
0.26541
0.276855
0.284084
0.287221
0.286865
0.283677
0.278259
0.271134
0.262742
0.253462
0.243643
0.233585
0.223304
0.212498
0.202
0.195812
0.289457
0.282598
0.28814
0.299445
0.310428
0.318222
0.321933
0.321779
0.318376
0.312384
0.304393
0.294912
0.28437
0.273133
0.261534
0.249851
0.2381
0.226039
0.214493
0.207029
0.342394
0.334172
0.337564
0.345882
0.353417
0.357692
0.358025
0.354715
0.348396
0.339721
0.329269
0.317537
0.304943
0.291838
0.278541
0.265311
0.252166
0.238914
0.226348
0.217615
0.392652
0.383124
0.384428
0.38986
0.39409
0.39501
0.392134
0.38583
0.376747
0.36553
0.352748
0.338887
0.324351
0.309482
0.294581
0.279891
0.265433
0.25106
0.237517
0.22754
0.439856
0.429089
0.428394
0.431075
0.432178
0.429938
0.424047
0.414934
0.403259
0.389662
0.374699
0.358845
0.342494
0.325973
0.309574
0.293519
0.277837
0.262422
0.247955
0.236774
0.48365
0.471727
0.469145
0.469245
0.467429
0.462252
0.453565
0.441851
0.427778
0.411977
0.394998
0.377302
0.359273
0.341229
0.323444
0.306129
0.289321
0.272948
0.257617
0.24529
0.52371
0.510725
0.506394
0.50411
0.499612
0.491746
0.480505
0.466418
0.450157
0.432349
0.413532
0.394158
0.374601
0.355169
0.336123
0.317662
0.299831
0.282589
0.266463
0.253062
0.559742
0.545799
0.539879
0.535435
0.528518
0.518236
0.504702
0.488487
0.470267
0.45066
0.430197
0.409321
0.388397
0.367723
0.347549
0.328061
0.309317
0.291301
0.274458
0.260067
0.591484
0.576697
0.569366
0.563011
0.553962
0.541555
0.52601
0.507928
0.48799
0.466807
0.444903
0.422711
0.400589
0.378828
0.357665
0.337279
0.317735
0.299045
0.281568
0.266285
0.61871
0.603203
0.594657
0.586658
0.575783
0.56156
0.544299
0.524628
0.503226
0.480701
0.457569
0.434257
0.411116
0.388429
0.366424
0.345272
0.325049
0.305785
0.287763
0.271702
0.641227
0.625132
0.61558
0.606225
0.593847
0.578133
0.559465
0.53849
0.515889
0.492266
0.468129
0.443901
0.419925
0.396479
0.373784
0.352004
0.331224
0.311493
0.29302
0.276302
0.658885
0.642337
0.632003
0.621591
0.608045
0.591176
0.57142
0.549438
0.525912
0.501441
0.476529
0.451593
0.426974
0.402942
0.379713
0.357447
0.336236
0.316143
0.297318
0.280076
0.671569
0.654711
0.643824
0.632665
0.618297
0.600618
0.5801
0.557415
0.533243
0.508181
0.482728
0.457299
0.43223
0.407789
0.384186
0.361578
0.340064
0.319717
0.300642
0.28302
0.679204
0.66218
0.650977
0.639388
0.624551
0.606412
0.585464
0.562383
0.537849
0.512456
0.4867
0.460995
0.435673
0.411001
0.387186
0.364382
0.342695
0.322202
0.302984
0.285133
0.681757
0.664713
0.653433
0.641735
0.626783
0.608537
0.587492
0.564325
0.539715
0.514252
0.488433
0.462669
0.437292
0.412569
0.388705
0.365853
0.344121
0.323591
0.304336
0.286398
0.679233
0.662316
0.651197
0.63971
0.624998
0.606996
0.586188
0.563245
0.538842
0.513571
0.487927
0.462322
0.437089
0.412494
0.388743
0.36599
0.344342
0.323885
0.304691
0.28682
0.67168
0.655034
0.644311
0.63335
0.619228
0.601819
0.581578
0.559164
0.535251
0.51043
0.485199
0.459969
0.435075
0.410785
0.387309
0.3648
0.343366
0.323087
0.304061
0.286402
0.659184
0.642951
0.632853
0.622725
0.609536
0.593062
0.57371
0.552127
0.528981
0.504865
0.480278
0.455635
0.431273
0.407463
0.384419
0.362299
0.341204
0.321211
0.302458
0.285163
0.641872
0.626188
0.616934
0.607936
0.596011
0.580803
0.562656
0.542195
0.520086
0.496922
0.473207
0.449358
0.425716
0.402557
0.3801
0.358509
0.337877
0.318274
0.299892
0.283101
0.619908
0.604903
0.596701
0.589113
0.578769
0.565146
0.548508
0.529452
0.50864
0.486668
0.464043
0.441188
0.418448
0.396104
0.374384
0.353457
0.33341
0.314299
0.296383
0.280224
0.593495
0.579291
0.572333
0.566419
0.557954
0.546219
0.531379
0.513997
0.494732
0.47418
0.452856
0.431185
0.409522
0.388152
0.367313
0.347181
0.327835
0.309314
0.291954
0.276545
0.56287
0.549581
0.544041
0.540042
0.533736
0.524172
0.511402
0.495951
0.478467
0.459553
0.439727
0.419423
0.399002
0.378757
0.358936
0.339723
0.321189
0.303355
0.286632
0.272079
0.528305
0.516035
0.512068
0.5102
0.506307
0.499178
0.488731
0.475447
0.459965
0.442891
0.42475
0.405984
0.38696
0.367982
0.349306
0.33113
0.313515
0.296458
0.28045
0.266844
0.490105
0.478946
0.476685
0.477137
0.475884
0.471427
0.463537
0.452638
0.439362
0.424315
0.408031
0.390961
0.373479
0.355898
0.338489
0.321458
0.304861
0.288668
0.273443
0.260861
0.448602
0.438635
0.438189
0.44112
0.442704
0.441131
0.436006
0.427691
0.416803
0.403955
0.389685
0.374454
0.358646
0.342584
0.326551
0.310767
0.295281
0.280031
0.265649
0.254154
0.404158
0.395451
0.396902
0.40244
0.407026
0.408519
0.406342
0.400786
0.39245
0.381951
0.369836
0.356574
0.342559
0.328125
0.313567
0.299122
0.284832
0.270599
0.257111
0.24675
0.357157
0.349766
0.353171
0.361406
0.369124
0.373836
0.374762
0.372115
0.366473
0.358455
0.348617
0.337438
0.325321
0.312611
0.299617
0.286592
0.273576
0.260427
0.247874
0.238677
0.308005
0.301972
0.307359
0.318348
0.329291
0.337338
0.341495
0.34188
0.339051
0.333626
0.326169
0.317169
0.307041
0.296139
0.284785
0.273253
0.26158
0.249574
0.237985
0.229965
0.257126
0.252478
0.259848
0.273608
0.287832
0.299297
0.306779
0.310295
0.310373
0.30763
0.302638
0.295898
0.287833
0.278807
0.269158
0.25918
0.248914
0.238104
0.227495
0.220643
0.204957
0.201708
0.211034
0.227544
0.245063
0.259993
0.270863
0.277579
0.280632
0.280638
0.278176
0.273756
0.267813
0.26072
0.252827
0.244454
0.235653
0.226089
0.216456
0.210737
0.151945
0.150095
0.161322
0.180523
0.201311
0.219712
0.234001
0.243956
0.250028
0.252827
0.252938
0.250882
0.247104
0.241985
0.235885
0.229154
0.221872
0.213615
0.204938
0.200266
0.0985428
0.0980775
0.111124
0.132919
0.156906
0.178749
0.196451
0.209655
0.218763
0.224374
0.227082
0.227414
0.225827
0.22271
0.218428
0.213361
0.207643
0.200773
0.193028
0.189219
0.0452063
0.0460964
0.0608578
0.0851107
0.112186
0.137398
0.158475
0.174908
0.18704
0.195461
0.200766
0.203492
0.204106
0.203004
0.200552
0.197152
0.193024
0.187667
0.180921
0.17758
-0.0076114
-0.0054132
0.0109378
0.0374764
0.0674859
0.0959565
0.120332
0.139942
0.155063
0.166267
0.17415
0.179256
0.182063
0.182976
0.182359
0.180615
0.178062
0.174359
0.168901
0.165211
-0.0594596
-0.0560246
-0.0382246
-0.00960739
0.0231409
0.0547176
0.0822818
0.104988
0.123034
0.136969
0.147389
0.154844
0.159819
0.162732
0.163945
0.16384
0.162791
0.160771
0.157296
0.152533
-0.109905
-0.105314
-0.0862281
-0.0557713
-0.0205196
0.0139704
0.044577
0.0702668
0.0911481
0.107742
0.120639
0.130392
0.137495
0.142376
0.145401
0.146925
0.147325
0.146845
0.145408
0.14211
-0.15864
-0.152813
-0.132696
-0.100657
-0.0631746
-0.0260039
0.00746404
0.0359965
0.0595986
0.0787547
0.0940477
0.106032
0.115206
0.122007
0.126813
0.129957
0.131789
0.132711
0.133067
0.13172
-0.20535
-0.198101
-0.177315
-0.143918
-0.104515
-0.0649359
-0.0288207
0.00238534
0.0285692
0.0501704
0.0677601
0.0818912
0.093065
0.101727
0.108263
0.113003
0.11626
0.118493
0.120301
0.120546
-0.249411
-0.24093
-0.219811
-0.18526
-0.144249
-0.102571
-0.0640526
-0.0303683
-0.00176497
0.0221439
0.0419128
0.0580909
0.0711795
0.0816277
0.0898315
0.0961213
0.100783
0.104276
0.107324
0.108869
-0.290535
-0.281008
-0.25934
-0.22471
-0.182108
-0.13867
-0.0980199
-0.0620776
-0.0312391
-0.00517897
0.0166351
0.0347453
0.0496504
0.0618005
0.071597
0.0793747
0.0854029
0.0901213
0.0943147
0.0970493
-0.328489
-0.318074
-0.296073
-0.261172
-0.218071
-0.173017
-0.130522
-0.0925692
-0.0597003
-0.0316628
-0.00795277
0.0119609
0.0285723
0.0423292
0.0536352
0.0628292
0.0701717
0.0760785
0.081359
0.0852267
-0.363064
-0.351856
-0.329791
-0.294896
-0.251449
-0.205411
-0.161374
-0.121682
-0.0870086
-0.0571839
-0.0317407
-0.0101639
0.00803251
0.023292
0.0360169
0.046549
0.0551439
0.0621899
0.0684987
0.0734418
-0.394079
-0.382144
-0.360232
-0.325715
-0.282219
-0.23558
-0.19041
-0.149272
-0.113037
-0.0816312
-0.0546292
-0.0315403
-0.0118894
0.00476016
0.0188067
0.0305929
0.0403709
0.0484978
0.0557711
0.0617307
-0.421392
-0.408797
-0.387216
-0.353407
-0.310276
-0.263412
-0.217483
-0.175213
-0.137675
-0.104908
-0.0765299
-0.0520888
-0.0311222
-0.0132019
0.00206308
0.0150138
0.0259004
0.0350455
0.0432199
0.0501372
-0.444912
-0.431732
-0.410633
-0.377822
-0.335468
-0.288799
-0.242486
-0.19942
-0.16082
-0.126932
-0.0973662
-0.0717402
-0.0496046
-0.0305369
-0.0141623
-0.000140824
0.0117759
0.0218743
0.0308884
0.0387042
-0.464606
-0.450922
-0.430436
-0.398878
-0.357682
-0.311633
-0.265324
-0.221795
-0.182448
-0.147614
-0.117074
-0.090436
-0.0672844
-0.047194
-0.0298253
-0.0148285
-0.00196343
0.00902094
0.0188142
0.0274686
-0.4805
-0.466395
-0.446627
-0.41654
-0.376852
-0.331833
-0.285922
-0.242267
-0.202453
-0.166944
-0.135621
-0.108126
-0.0841204
-0.0631286
-0.0448892
-0.0290114
-0.0152837
-0.00348278
0.00702751
0.0164615
-0.492675
-0.478237
-0.459265
-0.430823
-0.392955
-0.349357
-0.304236
-0.260796
-0.220799
-0.184864
-0.152969
-0.124819
-0.100059
-0.078307
-0.0593232
-0.0426555
-0.0281574
-0.0156083
-0.00444866
0.00570978
-0.501268
-0.486587
-0.468464
-0.441796
-0.406011
-0.364193
-0.320242
-0.277362
-0.237471
-0.201348
-0.169083
-0.140447
-0.115115
-0.0927566
-0.0730727
-0.0557361
-0.0405632
-0.0273278
-0.0155932
-0.00476763
-0.506469
-0.491638
-0.474392
-0.449574
-0.41608
-0.376364
-0.333945
-0.291964
-0.252465
-0.216391
-0.183952
-0.154998
-0.129251
-0.106406
-0.0861671
-0.0682681
-0.0524743
-0.0386181
-0.0263757
-0.014972
-0.508512
-0.49363
-0.477265
-0.454326
-0.423269
-0.385927
-0.345372
-0.304616
-0.265794
-0.230004
-0.197587
-0.16848
-0.142458
-0.119248
-0.0985813
-0.0802101
-0.063897
-0.0494932
-0.0367267
-0.024944
-0.507674
-0.492842
-0.477347
-0.456265
-0.427728
-0.392972
-0.354577
-0.315355
-0.277485
-0.242208
-0.210004
-0.180905
-0.154745
-0.131291
-0.110303
-0.0915514
-0.0748113
-0.0599366
-0.0467136
-0.0345786
-0.504262
-0.489585
-0.474934
-0.455648
-0.429644
-0.397623
-0.361639
-0.324233
-0.287578
-0.253038
-0.221231
-0.192294
-0.16613
-0.142547
-0.121338
-0.102294
-0.0852089
-0.0699406
-0.0563256
-0.0438239
-0.498608
-0.484193
-0.470354
-0.452764
-0.429247
-0.400038
-0.366658
-0.331321
-0.296128
-0.262539
-0.231305
-0.202677
-0.176632
-0.15303
-0.131695
-0.112444
-0.0950909
-0.0794984
-0.0655446
-0.0527093
-0.491059
-0.477011
-0.463949
-0.447934
-0.426798
-0.400404
-0.369764
-0.336706
-0.303202
-0.270763
-0.24027
-0.212088
-0.18628
-0.162761
-0.141389
-0.122012
-0.104463
-0.0886099
-0.0743695
-0.0612632
-0.481966
-0.468389
-0.45607
-0.44149
-0.422583
-0.398941
-0.371105
-0.340491
-0.308874
-0.277775
-0.248178
-0.220571
-0.195107
-0.171763
-0.150439
-0.131011
-0.113333
-0.097282
-0.0828059
-0.0694926
-0.471676
-0.458668
-0.447064
-0.433775
-0.41691
-0.395889
-0.370852
-0.342793
-0.313231
-0.283641
-0.255088
-0.228175
-0.203153
-0.180069
-0.158867
-0.139455
-0.121714
-0.105524
-0.0908601
-0.077395
-0.460522
-0.448173
-0.437261
-0.425123
-0.410093
-0.391509
-0.369197
-0.343743
-0.316365
-0.288433
-0.261058
-0.234949
-0.210459
-0.18771
-0.166699
-0.147365
-0.129619
-0.113348
-0.098539
-0.0849697
-0.448815
-0.437203
-0.42697
-0.415855
-0.402444
-0.386076
-0.366349
-0.343485
-0.318375
-0.292226
-0.266152
-0.240947
-0.21707
-0.194723
-0.173961
-0.154762
-0.137063
-0.120764
-0.105852
-0.0922215
-0.436837
-0.426028
-0.416466
-0.406265
-0.394265
-0.379866
-0.36253
-0.342177
-0.319367
-0.295095
-0.270427
-0.24622
-0.223028
-0.201144
-0.180683
-0.161667
-0.144063
-0.127786
-0.112811
-0.0991592
-0.424839
-0.414881
-0.40599
-0.396611
-0.385833
-0.373149
-0.35797
-0.339989
-0.319455
-0.297117
-0.273943
-0.250817
-0.228377
-0.207007
-0.186894
-0.168103
-0.150635
-0.134427
-0.119429
-0.105793
-0.413033
-0.403959
-0.395741
-0.387114
-0.377391
-0.36618
-0.352899
-0.337097
-0.318757
-0.298369
-0.276753
-0.254779
-0.233152
-0.212345
-0.192619
-0.174091
-0.156797
-0.140703
-0.125719
-0.112136
-0.401593
-0.393417
-0.385877
-0.377952
-0.369147
-0.359185
-0.347538
-0.333684
-0.317401
-0.298929
-0.278905
-0.258141
-0.237384
-0.217183
-0.197881
-0.179651
-0.162565
-0.146625
-0.131696
-0.1182
-0.390653
-0.383375
-0.376516
-0.369259
-0.361264
-0.352358
-0.342091
-0.329929
-0.315517
-0.298875
-0.280442
-0.260931
-0.241091
-0.22154
-0.202696
-0.184796
-0.16795
-0.152205
-0.137373
-0.123998
-0.380309
-0.373915
-0.367737
-0.361128
-0.353862
-0.345852
-0.336733
-0.326004
-0.313238
-0.298291
-0.281407
-0.263165
-0.244284
-0.225423
-0.207072
-0.189537
-0.172963
-0.157454
-0.142762
-0.129547
-0.370621
-0.365086
-0.359585
-0.35361
-0.347018
-0.339776
-0.331605
-0.322058
-0.310696
-0.297262
-0.281837
-0.264852
-0.246957
-0.228825
-0.211006
-0.193872
-0.177606
-0.162377
-0.147874
-0.13486
-0.361614
-0.356906
-0.352076
-0.346725
-0.340765
-0.334197
-0.326807
-0.318217
-0.308009
-0.295876
-0.281775
-0.265996
-0.249095
-0.231727
-0.214479
-0.19779
-0.181875
-0.166975
-0.152719
-0.139953
-0.353288
-0.349372
-0.3452
-0.340463
-0.335105
-0.329138
-0.322396
-0.314568
-0.30528
-0.294219
-0.281268
-0.266602
-0.250674
-0.234093
-0.217458
-0.201265
-0.185754
-0.171242
-0.157304
-0.144842
-0.345623
-0.342463
-0.338929
-0.33479
-0.330008
-0.324587
-0.318391
-0.311164
-0.302586
-0.29237
-0.280369
-0.266682
-0.251667
-0.235876
-0.219893
-0.204254
-0.189213
-0.175165
-0.161629
-0.149547
-0.33859
-0.336152
-0.33323
-0.329664
-0.325427
-0.320506
-0.314776
-0.308022
-0.299978
-0.290395
-0.279136
-0.266259
-0.252059
-0.237029
-0.22172
-0.206695
-0.192204
-0.178714
-0.165696
-0.154081
-0.332159
-0.330408
-0.328064
-0.325039
-0.32131
-0.316843
-0.311514
-0.305134
-0.29748
-0.288349
-0.277629
-0.265377
-0.251854
-0.237513
-0.222873
-0.20851
-0.194659
-0.181846
-0.169482
-0.15849
-0.326311
-0.32521
-0.323406
-0.320876
-0.317611
-0.313549
-0.308562
-0.302477
-0.295101
-0.286273
-0.275914
-0.264098
-0.251085
-0.237318
-0.223298
-0.209619
-0.196489
-0.184492
-0.172971
-0.162775
-0.321042
-0.320553
-0.319239
-0.317155
-0.314299
-0.310589
-0.30589
-0.300034
-0.292851
-0.284209
-0.274061
-0.262508
-0.249826
-0.236478
-0.222976
-0.209951
-0.197601
-0.186551
-0.176085
-0.16708
-0.316366
-0.316442
-0.31557
-0.313874
-0.311372
-0.307958
-0.303493
-0.297811
-0.290754
-0.28221
-0.272156
-0.260717
-0.248195
-0.235085
-0.221951
-0.209478
-0.197901
-0.187929
-0.178682
-0.171318
-0.312315
-0.312903
-0.312418
-0.311057
-0.30885
-0.305681
-0.301401
-0.295847
-0.288866
-0.280357
-0.270312
-0.258869
-0.246355
-0.233299
-0.220342
-0.208242
-0.197372
-0.188413
-0.180863
-0.175106
-0.30893
-0.309971
-0.309821
-0.30874
-0.30678
-0.303811
-0.299679
-0.294219
-0.287283
-0.278768
-0.268675
-0.257147
-0.244519
-0.231347
-0.218367
-0.206385
-0.196098
-0.187926
-0.182325
-0.177909
-0.306261
-0.307689
-0.307822
-0.306977
-0.305223
-0.302421
-0.298414
-0.293034
-0.28613
-0.277596
-0.267431
-0.25577
-0.242947
-0.229525
-0.21633
-0.204174
-0.194279
-0.186469
-0.182674
-0.179594
-0.304351
-0.3061
-0.306467
-0.30582
-0.304244
-0.301592
-0.297702
-0.292407
-0.28555
-0.277011
-0.266783
-0.254986
-0.241932
-0.228178
-0.214614
-0.202004
-0.192269
-0.184231
-0.182164
-0.1802
-0.303233
-0.30524
-0.3058
-0.305322
-0.303903
-0.301395
-0.297632
-0.292445
-0.285683
-0.277172
-0.266931
-0.255038
-0.241775
-0.227669
-0.213644
-0.200372
-0.190569
-0.181635
-0.181382
-0.179875
-0.302928
-0.305136
-0.305855
-0.305522
-0.30425
-0.301889
-0.298275
-0.293227
-0.286564
-0.278205
-0.268037
-0.256134
-0.242736
-0.228331
-0.21383
-0.199814
-0.189718
-0.179375
-0.180902
-0.178827
-0.303442
-0.305806
-0.306654
-0.30645
-0.305319
-0.303116
-0.299677
-0.294824
-0.288378
-0.280207
-0.270211
-0.258414
-0.245007
-0.230418
-0.215505
-0.200811
-0.190173
-0.178343
-0.181095
-0.177551
-0.304769
-0.307256
-0.308213
-0.308125
-0.307131
-0.305096
-0.301862
-0.297254
-0.291088
-0.283209
-0.273501
-0.261949
-0.248686
-0.234074
-0.218883
-0.203685
-0.19228
-0.179347
-0.182195
-0.176989
-0.306898
-0.309487
-0.310537
-0.310555
-0.309697
-0.307841
-0.30484
-0.300522
-0.294705
-0.287213
-0.277913
-0.266751
-0.253804
-0.239339
-0.224059
-0.208562
-0.196289
-0.182802
-0.184536
-0.178203
-0.309815
-0.312494
-0.313628
-0.313743
-0.313021
-0.311354
-0.308611
-0.30463
-0.299225
-0.292214
-0.283437
-0.272804
-0.260357
-0.246202
-0.231059
-0.215436
-0.202365
-0.188741
-0.188614
-0.18181
-0.313505
-0.316272
-0.317482
-0.31769
-0.317104
-0.315638
-0.313179
-0.309577
-0.30465
-0.298206
-0.290064
-0.280094
-0.268271
-0.254734
-0.239939
-0.224248
-0.210615
-0.197058
-0.194884
-0.187885