/*--------------------------------*- C++ -*----------------------------------*\
  =========                 |
  \\      /  F ield         | OpenFOAM: The Open Source CFD Toolbox
   \\    /   O peration     | Website:  https://openfoam.org
    \\  /    A nd           | Version:  7
     \\/     M anipulation  |
\*---------------------------------------------------------------------------*/
FoamFile
{
    version     2.0;
    format      ascii;
    class       volScalarField;
    location    "140";
    object      p;
}
// * * * * * * * * * * * * * * * * * * * * * * * * * * * * * * * * * * * * * //

dimensions      [0 2 -2 0 0 0 0];

internalField   nonuniform List<scalar> 
12400
(
-0.37332
-0.3762
-0.377853
-0.378975
-0.379948
-0.380878
-0.381843
-0.382874
-0.383943
-0.384975
-0.385837
-0.386355
-0.386316
-0.385505
-0.383758
-0.381053
-0.377673
-0.374423
-0.3725
-0.373302
-0.365321
-0.368103
-0.369622
-0.370532
-0.371181
-0.371657
-0.372022
-0.372303
-0.372473
-0.372463
-0.37217
-0.371474
-0.370265
-0.368488
-0.366212
-0.363729
-0.361675
-0.361218
-0.363795
-0.370658
-0.35798
-0.360592
-0.361946
-0.362636
-0.362971
-0.363014
-0.362817
-0.362398
-0.361732
-0.360764
-0.359418
-0.357632
-0.355392
-0.352792
-0.350111
-0.347909
-0.347106
-0.349108
-0.355616
-0.367044
-0.351291
-0.353679
-0.354847
-0.355318
-0.355352
-0.354992
-0.354273
-0.353209
-0.351779
-0.34994
-0.347651
-0.344902
-0.341772
-0.338486
-0.335503
-0.333599
-0.333925
-0.337952
-0.347782
-0.36244
-0.345227
-0.347357
-0.348328
-0.348585
-0.348338
-0.347605
-0.346408
-0.344753
-0.342627
-0.340004
-0.336874
-0.333283
-0.329389
-0.325536
-0.322325
-0.320685
-0.32197
-0.327505
-0.340031
-0.356701
-0.339745
-0.341606
-0.34238
-0.342432
-0.341923
-0.340847
-0.339211
-0.337016
-0.334256
-0.330925
-0.327046
-0.322715
-0.318167
-0.313838
-0.31045
-0.308984
-0.31104
-0.317551
-0.332223
-0.349772
-0.334793
-0.336396
-0.336982
-0.336843
-0.336092
-0.3347
-0.332658
-0.329966
-0.326623
-0.322647
-0.318095
-0.313111
-0.307991
-0.303248
-0.299676
-0.298355
-0.300999
-0.307913
-0.324228
-0.341815
-0.330325
-0.331697
-0.332112
-0.331798
-0.330823
-0.329137
-0.326718
-0.32356
-0.319677
-0.315106
-0.309939
-0.304368
-0.298739
-0.293632
-0.289897
-0.288598
-0.291725
-0.298582
-0.316081
-0.333126
-0.326299
-0.327486
-0.327754
-0.327279
-0.326095
-0.324133
-0.321357
-0.31776
-0.313367
-0.308239
-0.302504
-0.296398
-0.290315
-0.284879
-0.280999
-0.279632
-0.283172
-0.289654
-0.308022
-0.324137
-0.322693
-0.323747
-0.323894
-0.323274
-0.321893
-0.319667
-0.316551
-0.312536
-0.307657
-0.302005
-0.295743
-0.289148
-0.282658
-0.276932
-0.272938
-0.271465
-0.275382
-0.281335
-0.300364
-0.314869
-0.319502
-0.32048
-0.320531
-0.319778
-0.318211
-0.315732
-0.312288
-0.307872
-0.302535
-0.296392
-0.289643
-0.282608
-0.275765
-0.269804
-0.265747
-0.264197
-0.268471
-0.273929
-0.293469
-0.306709
-0.316743
-0.317697
-0.317676
-0.3168
-0.315052
-0.312329
-0.308572
-0.303778
-0.298015
-0.291423
-0.284239
-0.276825
-0.269702
-0.263581
-0.259537
-0.258007
-0.26259
-0.26777
-0.287306
-0.299503
-0.314459
-0.315429
-0.31535
-0.314357
-0.312434
-0.309476
-0.305425
-0.300283
-0.294137
-0.287153
-0.279604
-0.271894
-0.264584
-0.258409
-0.254469
-0.253094
-0.25787
-0.263092
-0.281653
-0.293123
-0.31271
-0.313716
-0.313586
-0.312477
-0.310385
-0.307205
-0.302885
-0.297438
-0.290967
-0.283666
-0.275842
-0.26794
-0.260558
-0.254448
-0.250702
-0.249619
-0.254361
-0.259836
-0.276292
-0.286894
-0.31157
-0.31261
-0.312424
-0.311196
-0.308939
-0.305555
-0.301001
-0.295303
-0.28858
-0.281053
-0.273063
-0.265085
-0.257751
-0.251817
-0.248316
-0.247554
-0.251974
-0.257543
-0.271094
-0.280086
-0.311119
-0.312164
-0.311906
-0.310552
-0.308136
-0.30457
-0.299822
-0.293936
-0.287045
-0.279393
-0.271346
-0.263408
-0.256221
-0.250527
-0.247243
-0.246674
-0.250422
-0.255531
-0.265878
-0.272358
-0.311431
-0.31243
-0.31207
-0.310579
-0.308006
-0.304282
-0.299385
-0.293376
-0.2864
-0.27872
-0.270717
-0.262905
-0.255914
-0.250445
-0.247242
-0.24658
-0.24924
-0.253196
-0.26034
-0.263771
-0.312568
-0.313446
-0.312944
-0.311297
-0.308569
-0.304705
-0.299702
-0.293626
-0.28664
-0.279007
-0.271116
-0.26347
-0.256658
-0.251302
-0.247941
-0.246789
-0.247922
-0.250155
-0.25409
-0.254528
-0.314567
-0.315236
-0.314543
-0.312714
-0.309821
-0.30583
-0.300748
-0.294652
-0.287702
-0.280163
-0.272408
-0.264907
-0.258182
-0.252743
-0.248918
-0.246851
-0.246101
-0.24624
-0.246791
-0.244833
-0.317441
-0.317804
-0.316863
-0.314816
-0.31174
-0.307617
-0.302468
-0.29637
-0.289478
-0.282041
-0.274398
-0.266962
-0.260165
-0.254391
-0.249786
-0.246429
-0.243634
-0.241494
-0.238496
-0.234693
-0.32118
-0.321141
-0.319889
-0.317577
-0.314285
-0.310013
-0.304787
-0.298682
-0.291838
-0.284471
-0.276868
-0.269367
-0.262293
-0.255909
-0.250246
-0.245338
-0.240523
-0.236114
-0.230183
-0.224233
-0.325754
-0.325223
-0.323592
-0.320967
-0.317415
-0.312957
-0.307627
-0.301488
-0.294652
-0.287287
-0.279611
-0.271869
-0.264287
-0.257035
-0.250101
-0.243529
-0.236814
-0.23027
-0.222404
-0.214649
-0.33113
-0.330022
-0.327953
-0.324956
-0.321091
-0.316402
-0.310926
-0.304706
-0.297812
-0.290346
-0.282442
-0.274255
-0.265928
-0.25759
-0.24926
-0.241039
-0.232597
-0.224296
-0.214893
-0.205759
-0.337272
-0.335523
-0.332953
-0.329526
-0.325294
-0.320325
-0.31465
-0.308283
-0.301236
-0.29353
-0.285209
-0.27635
-0.26706
-0.257481
-0.247718
-0.237949
-0.228013
-0.218259
-0.207668
-0.197652
-0.34416
-0.341711
-0.338587
-0.334678
-0.33003
-0.324729
-0.318794
-0.312194
-0.304865
-0.29674
-0.287781
-0.278022
-0.267585
-0.256679
-0.24552
-0.234358
-0.223149
-0.21222
-0.200721
-0.189981
-0.351785
-0.348587
-0.344864
-0.340431
-0.335321
-0.329636
-0.323368
-0.316422
-0.308647
-0.299887
-0.290051
-0.279179
-0.267461
-0.255209
-0.242741
-0.230352
-0.218074
-0.206186
-0.193964
-0.182671
-0.36015
-0.35616
-0.351803
-0.346814
-0.341206
-0.33508
-0.328387
-0.320949
-0.312522
-0.302882
-0.291927
-0.279761
-0.266687
-0.253121
-0.239457
-0.226001
-0.212823
-0.200143
-0.187349
-0.175591
-0.369264
-0.364443
-0.359428
-0.35386
-0.347718
-0.341087
-0.333851
-0.325736
-0.316415
-0.305631
-0.293333
-0.279741
-0.265286
-0.250473
-0.23573
-0.221348
-0.207408
-0.194065
-0.180807
-0.168666
-0.37913
-0.373445
-0.367756
-0.361595
-0.354881
-0.34766
-0.339728
-0.330713
-0.320227
-0.308039
-0.29421
-0.279111
-0.263295
-0.247319
-0.231608
-0.216418
-0.201825
-0.18792
-0.174288
-0.161825
-0.389737
-0.38316
-0.376791
-0.370023
-0.362691
-0.354769
-0.345951
-0.335775
-0.323843
-0.310013
-0.294513
-0.277876
-0.260748
-0.243697
-0.227117
-0.211217
-0.196058
-0.181675
-0.16774
-0.155008
-0.401054
-0.393564
-0.386513
-0.379123
-0.371106
-0.362341
-0.352408
-0.340789
-0.327134
-0.311464
-0.294207
-0.276043
-0.257668
-0.239628
-0.222265
-0.205738
-0.190085
-0.175295
-0.16112
-0.148165
-0.413015
-0.404603
-0.396873
-0.388838
-0.380047
-0.370256
-0.358948
-0.345592
-0.329966
-0.31231
-0.293261
-0.273611
-0.254065
-0.235118
-0.217048
-0.199964
-0.18388
-0.168746
-0.154384
-0.141249
-0.425518
-0.416189
-0.407785
-0.399068
-0.389383
-0.378353
-0.365384
-0.350008
-0.332205
-0.312474
-0.291644
-0.270573
-0.249936
-0.230158
-0.211448
-0.19387
-0.177412
-0.161994
-0.147496
-0.13422
-0.438425
-0.428197
-0.419125
-0.409672
-0.398942
-0.386424
-0.371503
-0.353851
-0.333721
-0.311885
-0.289322
-0.26691
-0.245263
-0.224725
-0.205441
-0.18743
-0.170653
-0.155009
-0.140422
-0.127045
-0.451553
-0.440463
-0.430726
-0.42046
-0.408503
-0.394232
-0.377074
-0.356936
-0.334393
-0.310471
-0.286253
-0.262591
-0.240018
-0.218793
-0.198997
-0.180612
-0.163572
-0.147759
-0.13313
-0.11969
-0.464682
-0.452782
-0.44238
-0.431202
-0.41781
-0.401509
-0.38186
-0.359085
-0.334105
-0.308162
-0.282389
-0.257577
-0.234164
-0.212325
-0.192084
-0.173386
-0.156139
-0.140217
-0.125589
-0.112128
-0.477553
-0.464911
-0.453834
-0.441625
-0.426573
-0.407974
-0.385626
-0.36013
-0.332747
-0.304887
-0.277678
-0.251824
-0.22766
-0.205284
-0.184666
-0.16572
-0.148328
-0.132355
-0.117775
-0.104336
-0.489871
-0.47657
-0.464801
-0.451421
-0.434477
-0.413343
-0.388146
-0.359914
-0.330219
-0.300574
-0.272063
-0.24528
-0.220461
-0.197631
-0.176712
-0.157586
-0.140111
-0.124151
-0.109665
-0.0962933
-0.501315
-0.487448
-0.47496
-0.460258
-0.441199
-0.417334
-0.389209
-0.358294
-0.326422
-0.295153
-0.265484
-0.237895
-0.212524
-0.189327
-0.168186
-0.148954
-0.131467
-0.115583
-0.101238
-0.0879854
-0.511542
-0.497207
-0.483967
-0.467788
-0.446415
-0.41968
-0.388622
-0.355139
-0.321266
-0.288552
-0.257883
-0.229618
-0.203803
-0.180337
-0.159061
-0.139801
-0.122373
-0.106633
-0.0924815
-0.079405
-0.520193
-0.505495
-0.491465
-0.473659
-0.449808
-0.420135
-0.386213
-0.350335
-0.314669
-0.280706
-0.249203
-0.2204
-0.19426
-0.170627
-0.14931
-0.130106
-0.112813
-0.0972838
-0.0833802
-0.0705473
-0.526907
-0.511954
-0.497091
-0.477525
-0.451086
-0.418479
-0.381832
-0.343779
-0.306556
-0.271554
-0.239393
-0.210199
-0.183859
-0.16017
-0.138911
-0.119851
-0.102771
-0.0875218
-0.0739209
-0.0613951
-0.531328
-0.516225
-0.500492
-0.479062
-0.449982
-0.414521
-0.375353
-0.335385
-0.29686
-0.261041
-0.228407
-0.198976
-0.17257
-0.148944
-0.127847
-0.109024
-0.0922366
-0.0773407
-0.0640992
-0.0519108
-0.533116
-0.517967
-0.501334
-0.47797
-0.446265
-0.408104
-0.366673
-0.325084
-0.28553
-0.249125
-0.216208
-0.186704
-0.160372
-0.136931
-0.116103
-0.0976125
-0.0812053
-0.0667426
-0.0539297
-0.0420627
-0.531954
-0.51686
-0.49931
-0.47399
-0.439742
-0.399103
-0.355715
-0.312822
-0.272523
-0.23577
-0.202771
-0.173361
-0.147247
-0.124119
-0.10367
-0.0856067
-0.0696841
-0.0557329
-0.0434175
-0.0319114
-0.527562
-0.512619
-0.494155
-0.466904
-0.430265
-0.387427
-0.342425
-0.298566
-0.257813
-0.220955
-0.188076
-0.158932
-0.133185
-0.110498
-0.0905575
-0.0730163
-0.0576897
-0.0443297
-0.0324918
-0.021546
-0.519698
-0.504999
-0.485645
-0.456542
-0.417727
-0.373021
-0.326778
-0.282299
-0.241388
-0.20467
-0.172113
-0.14341
-0.118194
-0.0960719
-0.0767939
-0.0598879
-0.0452066
-0.0325102
-0.0212202
-0.0109232
-0.50817
-0.493803
-0.473611
-0.442786
-0.402066
-0.355864
-0.30877
-0.264025
-0.223252
-0.186917
-0.154892
-0.126807
-0.102308
-0.080913
-0.0623444
-0.0462004
-0.0322615
-0.0202926
-0.00962919
-3.96926e-05
-0.492838
-0.47889
-0.457938
-0.42557
-0.383265
-0.335967
-0.288424
-0.243764
-0.20342
-0.167724
-0.136449
-0.109188
-0.0855137
-0.0649896
-0.0472638
-0.0319753
-0.0188754
-0.00770316
0.00226312
0.0110882
-0.473619
-0.460172
-0.438565
-0.404879
-0.361347
-0.313376
-0.265787
-0.221556
-0.181932
-0.147148
-0.116821
-0.0905457
-0.0678615
-0.0483351
-0.0315799
-0.0172447
-0.00507324
0.00523116
0.0144361
0.0224358
-0.450486
-0.43762
-0.415491
-0.380746
-0.33638
-0.288172
-0.240934
-0.197471
-0.158888
-0.125204
-0.096041
-0.0709286
-0.0493924
-0.0309928
-0.0153277
-0.00204485
0.00911329
0.0184804
0.0268613
0.0339741
-0.423475
-0.411262
-0.388763
-0.353256
-0.308483
-0.260468
-0.213962
-0.171612
-0.134313
-0.101977
-0.0741721
-0.050395
-0.0301578
-0.0130127
0.00145004
0.0135834
0.0236469
0.0320095
0.0395031
0.0456679
-0.392675
-0.381182
-0.358491
-0.32256
-0.277811
-0.230371
-0.184977
-0.144062
-0.108312
-0.0775478
-0.0512906
-0.0290136
-0.0102185
0.00554904
0.0187026
0.0295939
0.0384856
0.0457788
0.0523195
0.0574756
-0.358231
-0.347524
-0.324867
-0.288908
-0.244455
-0.197971
-0.154125
-0.114947
-0.0809974
-0.0520153
-0.0274849
-0.00686329
0.010355
0.0246289
0.0363728
0.045935
0.0535831
0.0597466
0.0652684
0.0693547
-0.320321
-0.310498
-0.288154
-0.252519
-0.208372
-0.163569
-0.121578
-0.0844138
-0.0524958
-0.0254908
-0.00285439
0.0159671
0.0314837
0.0441564
0.0543969
0.062549
0.0688893
0.073872
0.0783142
0.0812708
-0.279159
-0.27037
-0.248531
-0.212966
-0.170466
-0.127375
-0.0875217
-0.0526246
-0.022948
0.00190159
0.0224905
0.0393795
0.0530806
0.0640538
0.0727047
0.0793724
0.0843511
0.0881139
0.0914168
0.0931842
-0.234987
-0.227413
-0.205943
-0.171417
-0.1306
-0.0896006
-0.0521583
-0.0197532
0.00749269
0.0300261
0.0484296
0.0632675
0.0750516
0.0842375
0.0912212
0.0963405
0.0999175
0.102425
0.10449
0.104953
-0.188097
-0.18193
-0.161105
-0.12792
-0.0890559
-0.0504807
-0.0157011
0.0140126
0.038661
0.0587366
0.0748335
0.0875168
0.0972958
0.104618
0.109868
0.113392
0.115546
0.116747
0.117355
0.116212
-0.139061
-0.134184
-0.114357
-0.0827531
-0.0461402
-0.0102699
0.0216249
0.0484733
0.070381
0.0878777
0.101565
0.112006
0.119706
0.125101
0.128567
0.130468
0.131192
0.130993
0.129796
0.126676
-0.0882764
-0.0845576
-0.0660119
-0.0362539
-0.00216742
0.0307596
0.0595823
0.0834195
0.102468
0.117286
0.12848
0.136609
0.14217
0.145589
0.147235
0.147502
0.146778
0.145034
0.141779
0.137172
-0.0360246
-0.0335375
-0.0164458
0.0112189
0.0425384
0.0723243
0.0979236
0.118633
0.134729
0.146792
0.155428
0.161192
0.164571
0.165979
0.165787
0.16441
0.162177
0.158739
0.153471
0.149941
0.0172637
0.0184442
0.0339372
0.0592946
0.0876456
0.114133
0.136394
0.153891
0.166966
0.17622
0.182255
0.18562
0.186789
0.186168
0.184132
0.181091
0.177276
0.172171
0.165597
0.162438
0.071134
0.0709576
0.0847228
0.107595
0.132818
0.155891
0.174733
0.188962
0.198978
0.205392
0.208804
0.209753
0.208704
0.206052
0.202173
0.197457
0.192042
0.18541
0.177833
0.174228
0.12513
0.123564
0.135493
0.155738
0.177716
0.197299
0.21268
0.223616
0.230559
0.234127
0.234915
0.233452
0.230191
0.22552
0.219809
0.213418
0.206427
0.198398
0.189888
0.185437
0.178792
0.175821
0.185827
0.203342
0.222002
0.238059
0.249971
0.257622
0.261506
0.262245
0.260429
0.256576
0.251127
0.244464
0.236944
0.228897
0.220375
0.211029
0.201563
0.196074
0.231665
0.227287
0.235312
0.250033
0.265343
0.277878
0.286347
0.290749
0.291614
0.289567
0.285188
0.278985
0.27139
0.262774
0.253481
0.243814
0.233814
0.223212
0.212769
0.20615
0.283298
0.277524
0.283537
0.295439
0.307409
0.316465
0.321551
0.322771
0.320684
0.315914
0.309034
0.300542
0.290858
0.280342
0.269326
0.258089
0.246668
0.234859
0.223434
0.215645
0.33325
0.326108
0.330106
0.339201
0.347883
0.353539
0.355335
0.353467
0.348519
0.341114
0.331817
0.321113
0.309412
0.297065
0.284388
0.271641
0.258862
0.245899
0.233505
0.224534
0.381096
0.372624
0.374632
0.380974
0.386456
0.388827
0.387457
0.382624
0.374931
0.365001
0.353387
0.340567
0.326939
0.312842
0.29858
0.284394
0.270325
0.256266
0.242929
0.232787
0.426426
0.416678
0.416749
0.420425
0.422836
0.42207
0.417686
0.410036
0.399739
0.387413
0.373604
0.358779
0.343327
0.327577
0.311816
0.296272
0.28099
0.265901
0.251661
0.240376
0.468852
0.457895
0.45611
0.457242
0.456743
0.45302
0.445804
0.43551
0.422769
0.408198
0.392334
0.375633
0.358474
0.341177
0.324017
0.307205
0.290794
0.274747
0.259655
0.247271
0.50801
0.495923
0.492387
0.491133
0.487918
0.481448
0.471606
0.458863
0.443863
0.427215
0.40945
0.391015
0.372282
0.353558
0.335107
0.317127
0.299679
0.282754
0.266869
0.253446
0.543562
0.530437
0.525281
0.521826
0.51612
0.507139
0.494902
0.479928
0.462869
0.44433
0.424836
0.404825
0.384659
0.364639
0.345016
0.325977
0.307591
0.289874
0.273262
0.258876
0.575202
0.561141
0.554517
0.549076
0.541132
0.5299
0.51552
0.498551
0.479652
0.459424
0.438386
0.416967
0.395525
0.37435
0.353682
0.333701
0.314482
0.296062
0.278799
0.26354
0.602654
0.587769
0.57985
0.572662
0.562755
0.549556
0.533305
0.514594
0.494089
0.472389
0.450004
0.427359
0.404804
0.382624
0.361047
0.340247
0.320307
0.30128
0.283448
0.26742
0.625675
0.61009
0.601066
0.592392
0.580821
0.565955
0.54812
0.527937
0.506075
0.483129
0.459606
0.435926
0.412433
0.389404
0.367063
0.345574
0.325029
0.305493
0.28718
0.270499
0.644062
0.627904
0.617982
0.608101
0.595181
0.578966
0.559851
0.538477
0.515517
0.491565
0.467123
0.442607
0.418356
0.394644
0.371687
0.349644
0.328614
0.308671
0.289971
0.272764
0.657644
0.64105
0.630447
0.619655
0.605717
0.588484
0.568402
0.546129
0.522341
0.497629
0.472494
0.447348
0.422528
0.398303
0.374884
0.352427
0.331036
0.310791
0.291801
0.274206
0.666293
0.649403
0.638348
0.626951
0.612336
0.594427
0.573701
0.55083
0.52649
0.501272
0.475676
0.450113
0.424915
0.400351
0.376629
0.353901
0.332275
0.311833
0.292657
0.274819
0.669917
0.652876
0.641603
0.629916
0.614975
0.596736
0.575697
0.552533
0.527923
0.502458
0.476638
0.450872
0.425493
0.400768
0.376902
0.35405
0.332317
0.311787
0.29253
0.274599
0.668466
0.651419
0.640167
0.62851
0.613597
0.595381
0.574361
0.551213
0.526618
0.501168
0.475362
0.44961
0.424248
0.399541
0.375695
0.352865
0.331155
0.310646
0.291413
0.27354
0.661929
0.645024
0.634032
0.622725
0.608195
0.590355
0.569687
0.546866
0.52257
0.497397
0.471844
0.446326
0.421179
0.396669
0.373006
0.350345
0.328788
0.308406
0.289301
0.271637
0.650338
0.633718
0.623223
0.612584
0.598789
0.581676
0.561693
0.539506
0.515795
0.491157
0.466097
0.441029
0.416294
0.39216
0.368842
0.346497
0.325221
0.305076
0.286202
0.268895
0.633761
0.61757
0.607803
0.598143
0.58543
0.569389
0.550418
0.529169
0.506322
0.482478
0.458144
0.433742
0.409612
0.386031
0.363218
0.341334
0.320468
0.300667
0.282129
0.26532
0.612311
0.596685
0.587869
0.579489
0.568196
0.553563
0.535924
0.51591
0.494201
0.471402
0.448025
0.424497
0.401165
0.37831
0.356159
0.334878
0.314547
0.295198
0.277095
0.26092
0.586135
0.571207
0.563553
0.556741
0.54719
0.534292
0.518294
0.499804
0.479499
0.457988
0.435792
0.413343
0.390994
0.369033
0.347695
0.327156
0.307484
0.288692
0.271119
0.255702
0.555421
0.541314
0.53502
0.530047
0.522547
0.511694
0.497634
0.480944
0.462298
0.442311
0.421511
0.400336
0.379149
0.358244
0.337868
0.318204
0.29931
0.281177
0.264225
0.24968
0.520392
0.507222
0.502468
0.499584
0.494423
0.485909
0.474069
0.459442
0.442698
0.424458
0.405258
0.385546
0.365692
0.345999
0.326724
0.308063
0.290064
0.272688
0.256441
0.242868
0.481305
0.469178
0.466127
0.465558
0.463001
0.457099
0.447743
0.435426
0.420813
0.404532
0.387126
0.369053
0.350692
0.332358
0.314319
0.296782
0.279787
0.263264
0.247799
0.235287
0.438452
0.427464
0.426254
0.428201
0.428488
0.425449
0.418821
0.409043
0.396774
0.382646
0.367214
0.350946
0.33423
0.317392
0.300713
0.284414
0.268527
0.252949
0.238337
0.226958
0.392155
0.382387
0.383136
0.38777
0.391112
0.391162
0.387482
0.380453
0.370722
0.358928
0.345636
0.331325
0.316393
0.301178
0.285975
0.27102
0.256339
0.24179
0.228093
0.217906
0.342762
0.334286
0.337084
0.344545
0.351123
0.354458
0.353924
0.349831
0.342813
0.333516
0.322513
0.310296
0.297276
0.283799
0.270178
0.256665
0.24328
0.229839
0.217111
0.208159
0.29065
0.283523
0.288434
0.298827
0.308787
0.315575
0.318357
0.317364
0.313213
0.306556
0.297976
0.287977
0.276981
0.265347
0.253403
0.241419
0.229414
0.217151
0.205437
0.197746
0.236216
0.230481
0.237543
0.250937
0.264389
0.274766
0.281006
0.283252
0.2821
0.278206
0.272163
0.264488
0.255616
0.245916
0.235732
0.225356
0.214806
0.203788
0.193117
0.186698
0.179877
0.175564
0.184784
0.201212
0.21823
0.232295
0.242106
0.247704
0.249659
0.248629
0.24522
0.239959
0.233294
0.225606
0.217254
0.208555
0.199529
0.189815
0.180204
0.175044
0.122065
0.119189
0.130548
0.150004
0.170619
0.188438
0.201901
0.210935
0.21608
0.217996
0.217296
0.214522
0.210133
0.204522
0.198059
0.191094
0.18366
0.175306
0.166752
0.162809
0.0632263
0.0617884
0.0752368
0.0976749
0.12188
0.14348
0.160642
0.17317
0.181564
0.186481
0.188547
0.188314
0.186254
0.182769
0.178242
0.173055
0.167275
0.160352
0.152832
0.150007
0.00381371
0.00380005
0.0192616
0.0445968
0.0723408
0.0977113
0.118588
0.134636
0.14631
0.154264
0.159131
0.161474
0.16178
0.160458
0.157899
0.154517
0.150447
0.145051
0.138542
0.136616
-0.0557148
-0.0543335
-0.036961
-0.00885258
0.0223377
0.0514274
0.0759987
0.0955633
0.110524
0.121525
0.129206
0.134144
0.136835
0.1377
0.137129
0.135559
0.13323
0.129514
0.124102
0.122602
-0.114901
-0.112171
-0.093012
-0.0622927
-0.0277927
0.004925
0.0331354
0.0561835
0.0744091
0.0884443
0.098934
0.106463
0.111543
0.114605
0.116035
0.116272
0.11567
0.113804
0.109846
0.10777
-0.173287
-0.169278
-0.148474
-0.115343
-0.0777136
-0.0414999
-0.00974118
0.0167264
0.0381693
0.0552021
0.0684722
0.0785725
0.0860265
0.0912796
0.0947163
0.0967475
0.0977887
0.0977961
0.0961232
0.0926386
-0.230415
-0.225228
-0.202933
-0.167629
-0.127092
-0.0875544
-0.0523739
-0.0225813
0.00200465
0.0219752
0.0379774
0.0506105
0.0604079
0.0678295
0.073265
0.0770914
0.0797192
0.0814278
0.0821025
0.0804397
-0.285873
-0.27958
-0.255991
-0.218785
-0.1756
-0.132952
-0.0945111
-0.0615183
-0.0338893
-0.0110636
0.00760231
0.0227119
0.034806
0.0443581
0.0517697
0.0573958
0.0616086
0.0648715
0.0675963
0.0682994
-0.339512
-0.331784
-0.307285
-0.26846
-0.222922
-0.177413
-0.135909
-0.0998702
-0.0693237
-0.0437473
-0.0225056
-0.00499304
0.00933661
0.0209671
0.0303148
0.0377283
0.043538
0.0482702
0.0526443
0.0552071
-0.390686
-0.381584
-0.356545
-0.316326
-0.268755
-0.220671
-0.176333
-0.137433
-0.104118
-0.075916
-0.0522051
-0.0323795
-0.0158901
-0.00224603
0.00898207
0.0181459
0.0255453
0.031705
0.0374885
0.0415499
-0.438958
-0.428708
-0.403268
-0.362137
-0.312821
-0.262466
-0.215563
-0.174012
-0.1381
-0.107418
-0.0813623
-0.0593295
-0.0407697
-0.0251888
-0.0121482
-0.00128916
0.00767037
0.0152329
0.0223277
0.0277667
-0.484055
-0.47283
-0.446967
-0.405637
-0.354873
-0.302551
-0.253393
-0.209427
-0.171111
-0.138113
-0.109852
-0.0857321
-0.0652044
-0.0477742
-0.0329977
-0.0205089
-0.0100341
-0.00109811
0.00725459
0.0140134
-0.525732
-0.513677
-0.487604
-0.44606
-0.394867
-0.340688
-0.289641
-0.243511
-0.203001
-0.167869
-0.137558
-0.111485
-0.0891033
-0.0699212
-0.053493
-0.0394464
-0.0275118
-0.0172448
-0.00768958
0.000330726
-0.563772
-0.550995
-0.524976
-0.483528
-0.431879
-0.376955
-0.324146
-0.276104
-0.233638
-0.196568
-0.164376
-0.136494
-0.112383
-0.0915555
-0.0735668
-0.0580407
-0.0447091
-0.0331637
-0.0224665
-0.0132425
-0.598006
-0.584578
-0.558849
-0.517917
-0.466246
-0.410742
-0.356697
-0.307065
-0.262901
-0.224104
-0.190211
-0.160675
-0.134969
-0.11261
-0.0931584
-0.0762366
-0.0615769
-0.0488094
-0.0370293
-0.026657
-0.628298
-0.614289
-0.589046
-0.548999
-0.497784
-0.442027
-0.387144
-0.336269
-0.290685
-0.250385
-0.21498
-0.183954
-0.156794
-0.133025
-0.112214
-0.0939849
-0.0780697
-0.0641383
-0.0513303
-0.0398651
-0.65456
-0.640045
-0.615456
-0.576605
-0.526291
-0.470738
-0.415416
-0.363659
-0.31688
-0.275333
-0.238613
-0.20627
-0.177805
-0.152749
-0.130686
-0.111242
-0.0941471
-0.0791112
-0.0653284
-0.0528264
-0.67676
-0.661819
-0.638024
-0.600649
-0.551653
-0.496772
-0.441422
-0.389123
-0.341484
-0.298876
-0.261054
-0.227568
-0.197954
-0.171736
-0.148536
-0.12797
-0.109774
-0.0936951
-0.0789901
-0.0655068
-0.694923
-0.679638
-0.656755
-0.621098
-0.573806
-0.520046
-0.465089
-0.4126
-0.3644
-0.321008
-0.282279
-0.247805
-0.217209
-0.189949
-0.165734
-0.144136
-0.12492
-0.107862
-0.0922884
-0.0778763
-0.709131
-0.693584
-0.671701
-0.637966
-0.592727
-0.540516
-0.486374
-0.434057
-0.385593
-0.341674
-0.302261
-0.26701
-0.23552
-0.207361
-0.182255
-0.159712
-0.139564
-0.121587
-0.105203
-0.0899085
-0.71952
-0.703795
-0.682972
-0.651311
-0.608428
-0.55817
-0.505257
-0.45348
-0.405054
-0.360855
-0.320965
-0.285111
-0.252919
-0.224012
-0.198055
-0.17468
-0.153691
-0.134845
-0.117715
-0.101585
-0.726277
-0.710462
-0.69073
-0.661243
-0.620966
-0.573025
-0.521742
-0.47087
-0.422788
-0.378557
-0.338394
-0.302109
-0.269375
-0.239841
-0.213172
-0.18907
-0.167277
-0.147618
-0.129793
-0.112908
-0.729636
-0.713822
-0.695187
-0.66792
-0.630435
-0.585132
-0.535854
-0.486246
-0.438813
-0.3948
-0.354569
-0.318022
-0.284888
-0.254847
-0.227591
-0.202843
-0.180341
-0.159932
-0.141365
-0.12392
-0.729871
-0.71415
-0.696598
-0.671546
-0.636974
-0.594573
-0.547644
-0.499645
-0.453162
-0.409614
-0.369517
-0.332877
-0.299482
-0.269052
-0.24131
-0.215998
-0.192869
-0.171773
-0.152521
-0.134502
-0.727292
-0.711759
-0.695258
-0.672369
-0.640758
-0.60146
-0.557184
-0.511121
-0.465883
-0.423044
-0.383279
-0.346708
-0.313187
-0.282484
-0.25435
-0.228551
-0.204864
-0.183142
-0.163253
-0.144628
-0.72223
-0.706983
-0.691489
-0.670669
-0.642003
-0.605937
-0.564569
-0.520744
-0.477034
-0.435143
-0.395904
-0.359558
-0.326043
-0.295173
-0.266736
-0.240524
-0.216338
-0.194042
-0.173549
-0.154334
-0.715035
-0.700172
-0.685637
-0.666758
-0.640954
-0.608178
-0.569914
-0.528597
-0.486686
-0.445977
-0.407451
-0.371482
-0.338095
-0.307159
-0.278501
-0.251943
-0.227312
-0.204482
-0.183412
-0.163644
-0.706065
-0.691681
-0.678055
-0.660966
-0.637887
-0.608381
-0.573353
-0.534774
-0.494917
-0.455616
-0.417989
-0.382542
-0.349397
-0.31849
-0.289685
-0.26284
-0.23781
-0.214481
-0.192851
-0.172561
-0.695674
-0.68186
-0.669096
-0.653635
-0.633096
-0.60677
-0.57504
-0.539384
-0.501813
-0.46414
-0.427592
-0.392807
-0.360015
-0.32922
-0.300335
-0.273254
-0.247862
-0.224062
-0.201883
-0.181085
-0.684205
-0.671047
-0.659102
-0.645104
-0.626888
-0.603588
-0.575147
-0.542544
-0.507463
-0.471628
-0.436338
-0.402355
-0.370019
-0.339413
-0.310507
-0.283229
-0.257504
-0.233252
-0.210524
-0.189219
-0.671982
-0.659557
-0.648396
-0.6357
-0.619574
-0.599091
-0.573858
-0.54438
-0.511962
-0.478165
-0.444311
-0.411267
-0.379486
-0.349142
-0.320261
-0.292819
-0.266777
-0.242084
-0.218798
-0.196974
-0.659306
-0.647676
-0.637272
-0.625733
-0.611456
-0.593544
-0.571373
-0.545029
-0.515406
-0.483832
-0.45159
-0.419626
-0.388501
-0.358482
-0.329668
-0.302081
-0.275729
-0.250592
-0.226729
-0.204365
-0.646442
-0.635659
-0.625991
-0.615477
-0.602817
-0.587208
-0.567898
-0.544633
-0.517894
-0.48871
-0.458257
-0.427517
-0.397149
-0.367519
-0.338803
-0.311083
-0.284412
-0.258817
-0.234346
-0.211406
-0.633627
-0.623725
-0.614775
-0.605177
-0.593918
-0.580335
-0.563647
-0.543345
-0.519526
-0.492875
-0.464386
-0.435023
-0.405519
-0.37634
-0.34775
-0.319896
-0.292886
-0.266805
-0.241681
-0.218114
-0.621059
-0.612056
-0.603809
-0.595033
-0.584983
-0.573161
-0.558827
-0.541322
-0.520407
-0.496401
-0.470046
-0.442222
-0.413701
-0.385041
-0.356599
-0.328601
-0.301218
-0.274605
-0.248769
-0.224508
-0.608905
-0.600799
-0.593238
-0.585208
-0.576201
-0.565892
-0.553641
-0.538725
-0.520645
-0.499358
-0.475298
-0.449186
-0.421781
-0.393715
-0.365444
-0.337286
-0.30948
-0.282273
-0.255647
-0.230606
-0.597296
-0.590068
-0.583171
-0.575825
-0.567723
-0.558708
-0.548276
-0.535715
-0.520352
-0.501817
-0.480196
-0.455976
-0.42984
-0.402459
-0.374388
-0.346045
-0.317754
-0.289871
-0.262355
-0.236428
-0.586339
-0.57995
-0.57369
-0.566973
-0.559663
-0.551755
-0.542899
-0.53245
-0.519646
-0.503848
-0.484784
-0.462641
-0.437947
-0.411365
-0.383532
-0.354981
-0.326128
-0.297466
-0.268937
-0.241993
-0.576112
-0.570507
-0.564847
-0.558713
-0.552106
-0.545152
-0.537655
-0.529082
-0.518649
-0.505524
-0.489101
-0.469214
-0.446156
-0.420516
-0.392979
-0.3642
-0.3347
-0.305133
-0.275439
-0.247317
-0.566674
-0.561777
-0.556676
-0.551082
-0.545108
-0.538987
-0.532668
-0.525748
-0.517484
-0.506925
-0.493179
-0.475712
-0.454501
-0.429978
-0.402827
-0.373813
-0.343575
-0.312958
-0.281909
-0.252417
-0.558057
-0.55378
-0.549188
-0.544098
-0.538705
-0.533327
-0.52804
-0.522575
-0.516271
-0.508133
-0.497052
-0.482136
-0.462989
-0.439793
-0.413156
-0.383928
-0.352865
-0.321034
-0.288403
-0.25729
-0.550271
-0.546513
-0.542379
-0.537762
-0.532915
-0.528218
-0.523852
-0.519673
-0.515126
-0.509235
-0.500752
-0.488472
-0.471597
-0.449969
-0.424023
-0.394643
-0.362688
-0.32947
-0.294978
-0.261961
-0.543293
-0.539951
-0.536228
-0.532057
-0.527735
-0.523685
-0.520161
-0.517132
-0.514155
-0.510318
-0.504313
-0.494694
-0.48027
-0.46047
-0.435445
-0.406032
-0.373155
-0.338401
-0.301737
-0.266349
-0.537069
-0.534039
-0.530677
-0.526941
-0.52314
-0.519723
-0.516997
-0.515015
-0.513441
-0.511459
-0.507768
-0.500769
-0.488921
-0.471206
-0.447382
-0.418128
-0.384372
-0.347953
-0.308834
-0.270704
-0.53151
-0.528697
-0.525658
-0.522349
-0.519077
-0.516298
-0.514352
-0.513347
-0.513039
-0.512717
-0.511146
-0.506656
-0.49744
-0.482038
-0.459727
-0.430901
-0.396384
-0.35834
-0.316531
-0.274777
-0.52649
-0.523817
-0.521072
-0.518189
-0.515461
-0.513341
-0.512175
-0.512106
-0.512958
-0.514121
-0.514456
-0.512308
-0.505698
-0.492776
-0.472294
-0.444233
-0.409205
-0.369508
-0.325963
-0.280696
-0.521853
-0.519266
-0.516795
-0.514344
-0.51218
-0.510741
-0.510368
-0.511213
-0.513147
-0.515645
-0.51768
-0.517667
-0.513555
-0.503196
-0.484828
-0.457898
-0.422769
-0.381504
-0.336896
-0.287599
-0.517423
-0.514894
-0.512689
-0.510676
-0.509094
-0.508358
-0.508789
-0.510536
-0.513494
-0.517205
-0.520749
-0.522648
-0.520864
-0.513052
-0.497014
-0.471573
-0.436803
-0.394085
-0.347985
-0.294876
-0.513013
-0.510541
-0.508603
-0.507035
-0.506044
-0.506022
-0.507261
-0.509893
-0.513825
-0.518648
-0.523536
-0.527129
-0.52746
-0.522093
-0.5085
-0.484854
-0.450874
-0.406945
-0.35892
-0.302018
-0.508434
-0.506047
-0.504387
-0.503267
-0.502867
-0.503551
-0.505583
-0.509071
-0.51392
-0.519762
-0.52585
-0.530935
-0.533154
-0.530063
-0.51892
-0.497305
-0.464507
-0.419789
-0.369871
-0.309048
-0.503514
-0.501262
-0.499895
-0.499219
-0.499396
-0.50076
-0.503543
-0.507833
-0.513531
-0.520296
-0.527447
-0.533839
-0.537723
-0.536699
-0.52792
-0.508486
-0.477232
-0.432268
-0.380894
-0.316151
-0.498102
-0.49605
-0.494996
-0.494754
-0.495476
-0.49747
-0.500939
-0.50595
-0.512402
-0.519977
-0.528055
-0.535576
-0.540906
-0.541723
-0.535158
-0.517969
-0.488569
-0.443955
-0.391805
-0.323385
-0.49208
-0.490304
-0.489579
-0.489752
-0.490973
-0.493525
-0.497587
-0.503209
-0.510293
-0.518546
-0.527394
-0.535864
-0.542421
-0.544847
-0.540302
-0.525349
-0.498035
-0.454387
-0.402247
-0.330686
-0.485367
-0.483943
-0.483561
-0.484119
-0.485777
-0.488796
-0.493335
-0.499435
-0.507003
-0.51577
-0.525212
-0.534431
-0.541989
-0.545779
-0.543031
-0.530245
-0.50516
-0.463106
-0.411765
-0.337951
-0.477925
-0.476922
-0.476889
-0.477794
-0.479813
-0.483192
-0.488076
-0.494499
-0.502379
-0.511473
-0.521306
-0.53105
-0.53936
-0.544251
-0.543054
-0.532319
-0.50953
-0.46969
-0.419878
-0.345083
-0.469761
-0.469236
-0.469547
-0.47075
-0.473048
-0.47667
-0.481753
-0.488331
-0.496334
-0.505547
-0.515541
-0.525562
-0.534348
-0.540052
-0.540133
-0.531289
-0.510805
-0.473746
-0.42616
-0.351964
-0.460924