/*--------------------------------*- C++ -*----------------------------------*\
  =========                 |
  \\      /  F ield         | OpenFOAM: The Open Source CFD Toolbox
   \\    /   O peration     | Website:  https://openfoam.org
    \\  /    A nd           | Version:  7
     \\/     M anipulation  |
\*---------------------------------------------------------------------------*/
FoamFile
{
    version     2.0;
    format      ascii;
    class       volScalarField;
    location    "21.99953";
    object      p;
}
// * * * * * * * * * * * * * * * * * * * * * * * * * * * * * * * * * * * * * //

dimensions      [0 2 -2 0 0 0 0];

internalField   nonuniform List<scalar> 
5800
(
-0.262265
-0.262813
-0.263296
-0.263681
-0.263928
-0.263996
-0.263842
-0.263448
-0.262784
-0.254302
-0.25609
-0.257172
-0.258019
-0.25876
-0.259421
-0.26004
-0.260645
-0.261247
-0.261846
-0.262428
-0.262973
-0.263455
-0.263838
-0.264084
-0.26415
-0.263988
-0.263581
-0.262904
-0.254857
-0.256582
-0.257628
-0.258447
-0.259165
-0.259805
-0.260406
-0.260996
-0.261585
-0.262173
-0.262746
-0.263285
-0.263761
-0.264141
-0.264385
-0.264448
-0.264272
-0.263834
-0.263151
-0.25567
-0.257305
-0.258298
-0.259076
-0.259759
-0.260368
-0.260941
-0.261507
-0.262075
-0.262644
-0.263203
-0.26373
-0.264198
-0.264572
-0.264811
-0.264869
-0.264675
-0.264178
-0.263544
-0.25672
-0.25824
-0.259165
-0.25989
-0.260524
-0.261091
-0.261627
-0.262158
-0.262696
-0.263239
-0.263775
-0.264284
-0.264738
-0.265102
-0.265332
-0.265384
-0.265174
-0.264565
-0.264118
-0.257981
-0.259366
-0.26021
-0.260869
-0.261444
-0.261956
-0.262441
-0.262927
-0.263423
-0.263929
-0.264433
-0.264915
-0.265348
-0.265695
-0.265911
-0.265952
-0.265747
-0.264917
-0.26492
-0.260625
-0.259425
-0.26066
-0.261411
-0.261993
-0.262495
-0.262939
-0.263361
-0.263787
-0.264228
-0.264684
-0.265144
-0.265588
-0.265989
-0.266312
-0.266503
-0.266522
-0.266372
-0.265118
-0.26599
-0.259636
-0.26102
-0.262097
-0.262746
-0.263239
-0.263655
-0.264017
-0.26436
-0.264711
-0.265081
-0.265472
-0.265873
-0.266265
-0.26662
-0.266907
-0.267063
-0.267026
-0.267024
-0.265086
-0.267185
-0.25867
-0.262739
-0.263654
-0.264193
-0.264588
-0.264904
-0.265168
-0.265415
-0.265672
-0.265953
-0.26626
-0.266584
-0.266907
-0.267201
-0.267436
-0.267548
-0.267405
-0.267578
-0.265191
-0.267847
-0.257765
-0.264555
-0.26531
-0.265734
-0.266019
-0.266222
-0.266371
-0.266502
-0.266645
-0.266816
-0.267019
-0.267247
-0.267481
-0.267696
-0.26786
-0.267912
-0.267698
-0.267891
-0.265077
-0.268545
-0.256535
-0.266448
-0.267048
-0.267354
-0.267519
-0.267594
-0.26761
-0.267604
-0.267611
-0.267649
-0.267725
-0.267835
-0.26796
-0.268074
-0.268147
-0.268121
-0.267787
-0.268072
-0.264589
-0.269177
-0.255027
-0.268406
-0.26886
-0.269044
-0.269079
-0.26901
-0.268872
-0.268707
-0.268554
-0.268435
-0.268361
-0.268329
-0.268323
-0.268317
-0.268277
-0.268156
-0.267647
-0.268077
-0.263763
-0.269529
-0.253413
-0.270423
-0.270743
-0.270801
-0.270694
-0.270464
-0.270152
-0.269806
-0.269467
-0.269166
-0.268918
-0.268722
-0.268564
-0.268416
-0.268241
-0.26801
-0.267284
-0.267827
-0.262697
-0.269317
-0.251947
-0.272507
-0.272702
-0.27263
-0.272369
-0.271961
-0.271451
-0.270899
-0.270351
-0.269845
-0.269399
-0.269017
-0.268687
-0.268378
-0.268046
-0.26768
-0.266721
-0.267236
-0.261532
-0.268211
-0.250799
-0.274674
-0.274751
-0.274543
-0.274113
-0.273507
-0.272781
-0.271999
-0.271218
-0.270482
-0.269817
-0.26923
-0.268708
-0.26822
-0.267707
-0.267169
-0.265983
-0.26622
-0.260368
-0.265993
-0.249846
-0.27695
-0.276913
-0.276559
-0.275945
-0.275122
-0.274156
-0.273121
-0.272085
-0.271099
-0.270196
-0.269386
-0.268656
-0.267968
-0.26725
-0.266483
-0.265073
-0.264735
-0.259157
-0.262714
-0.248657
-0.279374
-0.279218
-0.278706
-0.277891
-0.27683
-0.275602
-0.274294
-0.272982
-0.271728
-0.270571
-0.269521
-0.268564
-0.267651
-0.266694
-0.265625
-0.263955
-0.26279
-0.257681
-0.258665
-0.246758
-0.281992
-0.281703
-0.28102
-0.279981
-0.27866
-0.27715
-0.275548
-0.273945
-0.272408
-0.270981
-0.269676
-0.26847
-0.267298
-0.266048
-0.264589
-0.262558
-0.260416
-0.255655
-0.254094
-0.243916
-0.284859
-0.284415
-0.283537
-0.282253
-0.28065
-0.278837
-0.276925
-0.275015
-0.273182
-0.271472
-0.269893
-0.268407
-0.266925
-0.265306
-0.263354
-0.260806
-0.25763
-0.252883
-0.249004
-0.240231
-0.288031
-0.287402
-0.286303
-0.284748
-0.282841
-0.280706
-0.278468
-0.276238
-0.274097
-0.272089
-0.270209
-0.2684
-0.266536
-0.264443
-0.261877
-0.258641
-0.254448
-0.249319
-0.243355
-0.235997
-0.291571
-0.290716
-0.289363
-0.287511
-0.285275
-0.2828
-0.280223
-0.277661
-0.275198
-0.27287
-0.270652
-0.268455
-0.266115
-0.263422
-0.260113
-0.256039
-0.250881
-0.245057
-0.237641
-0.231117
-0.295541
-0.294408
-0.292766
-0.290587
-0.287999
-0.285166
-0.282236
-0.279331
-0.276528
-0.273847
-0.271235
-0.268562
-0.265626
-0.262198
-0.25802
-0.25301
-0.246925
-0.240235
-0.232295
-0.225063
-0.299999
-0.298529
-0.296558
-0.294022
-0.291058
-0.28785
-0.284553
-0.281288
-0.278118
-0.275037
-0.271953
-0.268692
-0.265025
-0.260724
-0.255578
-0.249584
-0.242596
-0.235155
-0.226685
-0.218879
-0.304999
-0.303127
-0.300785
-0.297861
-0.294497
-0.290896
-0.287217
-0.283568
-0.279992
-0.276441
-0.27278
-0.2688
-0.264259
-0.258964
-0.252784
-0.2458
-0.237982
-0.229853
-0.220964
-0.212803
-0.31059
-0.308246
-0.305492
-0.302147
-0.29836
-0.294348
-0.290264
-0.286198
-0.282155
-0.278042
-0.273676
-0.268827
-0.263276
-0.256893
-0.24965
-0.241711
-0.233135
-0.224416
-0.21517
-0.206715
-0.316813
-0.313926
-0.310716
-0.306922
-0.302689
-0.298243
-0.293726
-0.289192
-0.284599
-0.279801
-0.27458
-0.268711
-0.262028
-0.254497
-0.246201
-0.237364
-0.228109
-0.218875
-0.209312
-0.200639
-0.323699
-0.320197
-0.316492
-0.312221
-0.307519
-0.302614
-0.297621
-0.292548
-0.287292
-0.28166
-0.27542
-0.268384
-0.260477
-0.251776
-0.242461
-0.232795
-0.222932
-0.21324
-0.203403
-0.194523
-0.331268
-0.327084
-0.322849
-0.318077
-0.312882
-0.307483
-0.301954
-0.296241
-0.290179
-0.283542
-0.276114
-0.267783
-0.258594
-0.248731
-0.238451
-0.228026
-0.217615
-0.20751
-0.197423
-0.188351
-0.339529
-0.334601
-0.329805
-0.32451
-0.318795
-0.312856
-0.306707
-0.300221
-0.293182
-0.285351
-0.276574
-0.266852
-0.256356
-0.245368
-0.234184
-0.223064
-0.212153
-0.201669
-0.191357
-0.182098
-0.348473
-0.342746
-0.337367
-0.33153
-0.325262
-0.318716
-0.311833
-0.304412
-0.296197
-0.286983
-0.276716
-0.26554
-0.253747
-0.241684
-0.22966
-0.217901
-0.206533
-0.195697
-0.185181
-0.175741
-0.358073
-0.351504
-0.345524
-0.339127
-0.332261
-0.325021
-0.317257
-0.308703
-0.299101
-0.288324
-0.276462
-0.263805
-0.250749
-0.237673
-0.224868
-0.212522
-0.200729
-0.189568
-0.178869
-0.169258
-0.368276
-0.360835
-0.354244
-0.347267
-0.339745
-0.33169
-0.322867
-0.312961
-0.301758
-0.289264
-0.275737
-0.261609
-0.247342
-0.233316
-0.219789
-0.2069
-0.194715
-0.183256
-0.172397
-0.162627
-0.379005
-0.370676
-0.363471
-0.355886
-0.347627
-0.338611
-0.328516
-0.317026
-0.304024
-0.289694
-0.274475
-0.258913
-0.243499
-0.22859
-0.214394
-0.201006
-0.18846
-0.176733
-0.165739
-0.155826
-0.390149
-0.380934
-0.373116
-0.364885
-0.355787
-0.345628
-0.334031
-0.320724
-0.305754
-0.289515
-0.272615
-0.255677
-0.239188
-0.22346
-0.20865
-0.194807
-0.181933
-0.169971
-0.158869
-0.148834
-0.401567
-0.391483
-0.383054
-0.374129
-0.36406
-0.352551
-0.339208
-0.323873
-0.306808
-0.288633
-0.270097
-0.251857
-0.234371
-0.217891
-0.202519
-0.188266
-0.175103
-0.162944
-0.151764
-0.141631
-0.413079
-0.402164
-0.393126
-0.383439
-0.372243
-0.35916
-0.343833
-0.326289
-0.307054
-0.286961
-0.266859
-0.247407
-0.229004
-0.21184
-0.195964
-0.181349
-0.167938
-0.155625
-0.144401
-0.134199
-0.424472
-0.41278
-0.403131
-0.392598
-0.3801
-0.365208
-0.34768
-0.327797
-0.306367
-0.284414
-0.262843
-0.242274
-0.223041
-0.205265
-0.188945
-0.174021
-0.160409
-0.147989
-0.136756
-0.126519
-0.435499
-0.4231
-0.412835
-0.401353
-0.387361
-0.370434
-0.350525
-0.328227
-0.304634
-0.280914
-0.257986
-0.236408
-0.216434
-0.198121
-0.181424
-0.16625
-0.15249
-0.140014
-0.128809
-0.118577
-0.445883
-0.432862
-0.421968
-0.409419
-0.393737
-0.374572
-0.352153
-0.327426
-0.301747
-0.276384
-0.252228
-0.229754
-0.209135
-0.190368
-0.173364
-0.158005
-0.144156
-0.131679
-0.120544
-0.110363
-0.455322
-0.441774
-0.43023
-0.416489
-0.39893
-0.37736
-0.352362
-0.325252
-0.29761
-0.270753
-0.245508
-0.222259
-0.201099
-0.181965
-0.164733
-0.149258
-0.135385
-0.122967
-0.111949
-0.101877
-0.463495
-0.449525
-0.437305
-0.422243
-0.402638
-0.378548
-0.350968
-0.321578
-0.292133
-0.263951
-0.237769
-0.213874
-0.192281
-0.172876
-0.155501
-0.139986
-0.126157
-0.11386
-0.103016
-0.0931244
-0.470071
-0.455787
-0.442861
-0.426355
-0.404573
-0.377907
-0.347808
-0.316293
-0.285238
-0.255915
-0.228958
-0.204553
-0.182643
-0.16307
-0.145642
-0.130168
-0.116456
-0.104343
-0.0937327
-0.0840991
-0.474716
-0.460231
-0.446567
-0.428511
-0.404461
-0.37523
-0.342739
-0.309301
-0.276853
-0.246589
-0.219026
-0.194255
-0.172153
-0.152519
-0.135135
-0.119789
-0.106267
-0.0944043
-0.0840829
-0.0747607
-0.477103
-0.46253
-0.448099
-0.428412
-0.402061
-0.370342
-0.335646
-0.300522
-0.26692
-0.235925
-0.207935
-0.182949
-0.160785
-0.141205
-0.123966
-0.108834
-0.0955813
-0.0840395
-0.0740645
-0.0650266
-0.476923
-0.462372
-0.447154
-0.425789
-0.397159
-0.363097
-0.326432
-0.289894
-0.255392
-0.223886
-0.195653
-0.170609
-0.148518
-0.129111
-0.112122
-0.0972973
-0.0843921
-0.0732486
-0.0637076
-0.0548497
-0.473892
-0.459469
-0.443457
-0.420406
-0.389583
-0.353382
-0.315031
-0.277372
-0.242236
-0.210444
-0.182158
-0.157217
-0.13534
-0.116229
-0.0995996
-0.0851778
-0.072708
-0.0620374
-0.0530115
-0.0443811
-0.467758
-0.453567
-0.43677
-0.412069
-0.379199
-0.341119
-0.301396
-0.262929
-0.227433
-0.195585
-0.167437
-0.142764
-0.121246
-0.102562
-0.0864073
-0.0724882
-0.0605579
-0.0504633
-0.0418587
-0.033739
-0.458311
-0.444449
-0.4269
-0.400632
-0.365916
-0.326263
-0.285511
-0.246557
-0.210977
-0.179304
-0.151487
-0.127251
-0.106248
-0.0881274
-0.0725731
-0.0592522
-0.04794
-0.0384805
-0.0303498
-0.0228681
-0.445387
-0.431947
-0.413702
-0.385993
-0.349686
-0.3088
-0.267379
-0.228265
-0.192875
-0.161602
-0.134329
-0.110706
-0.0903887
-0.0729507
-0.0580901
-0.0454746
-0.0348722
-0.026101
-0.0185302
-0.011749
-0.428873
-0.415943
-0.397082
-0.368105
-0.330502
-0.288752
-0.247032
-0.208081
-0.173149
-0.14251
-0.116022
-0.0931792
-0.0736566
-0.0570411
-0.042991
-0.0311804
-0.0213743
-0.0133532
-0.00642343
-0.000391265
-0.40871
-0.396372
-0.377003
-0.346966
-0.3084
-0.266174
-0.224524
-0.186054
-0.15186
-0.122137
-0.0965525
-0.0746737
-0.0561014
-0.0404341
-0.0273093
-0.0164012
-0.00747398
-0.00026932
0.00594989
0.0111803
-0.384894
-0.373227
-0.35348
-0.322625
-0.283457
-0.24115
-0.199933
-0.162265
-0.129101
-0.100466
-0.0759971
-0.0552419
-0.0377692
-0.0231743
-0.0110848
-0.00117416
0.0067943
0.0131167
0.0185606
0.0229323
-0.357479
-0.346553
-0.326585
-0.295188
-0.255797
-0.213783
-0.173356
-0.136811
-0.104915
-0.0775878
-0.0544222
-0.0349477
-0.0187152
-0.00531299
0.00563626
0.0144581
0.021391
0.0267675
0.0313727
0.0348248
-0.326571
-0.316449
-0.296447
-0.264814
-0.225553
-0.184175
-0.144925
-0.109793
-0.079405
-0.0535911
-0.0319066
-0.0138639
0.00099608
0.0130911
0.0228007
0.030447
0.0362722
0.0406434
0.0443482
0.0468162
-0.292331
-0.283072
-0.263248
-0.231673
-0.192806
-0.15254
-0.114787
-0.0813409
-0.0526866
-0.0285787
-0.00854074
0.00792755
0.0212913
0.0319722
0.0403489
0.0467381
0.0513897
0.0547054
0.0574533
0.0588723
-0.254945
-0.246637
-0.2272
-0.195839
-0.157837
-0.119082
-0.083112
-0.0516009
-0.0248896
-0.00266525
0.0155734
0.0303354
0.0420893
0.0512577
0.0582149
0.063271
0.0666922
0.0689148
0.070652
0.0709499
-0.214602
-0.207435
-0.188439
-0.15757
-0.120981
-0.0839948
-0.0500844
-0.0207361
0.00384296
0.0240227
0.0403235
0.0532599
0.0633015
0.0708687
0.0763273
0.0799829
0.08213
0.0832296
0.0838697
0.082907
-0.171548
-0.16578
-0.147114
-0.117405
-0.0824295
-0.0475044
-0.0159049
0.0110776
0.0333559
0.0513478
0.0655879
0.0765933
0.0848323
0.0907202
0.0946114
0.0968134
0.0976613
0.0975967
0.0969436
0.094402
-0.126136
-0.121859
-0.103893
-0.0755208
-0.0424472
-0.00985425
0.0192129
0.0436522
0.0634832
0.079163
0.0912365
0.10022
0.10658
0.110722
0.11299
0.113706
0.113246
0.111941
0.109663
0.105161
-0.0790381
-0.0759114
-0.0590255
-0.0322205
-0.00132173
0.0286994
0.0550438
0.0767891
0.0940492
0.107313
0.117132
0.12402
0.128437
0.130779
0.131384
0.130596
0.128815
0.126147
0.121983
0.115822
-0.0303965
-0.0284614
-0.0128424
0.0121589
0.0406427
0.0678886
0.0913518
0.110281
0.12487
0.135636
0.14313
0.147865
0.150291
0.150794
0.149709
0.147405
0.144252
0.140077
0.134018
0.128403
0.0193996
0.0200686
0.0342815
0.0572665
0.0831309
0.107436
0.127893
0.143911
0.155757
0.163963
0.169084
0.171625
0.172027
0.170667
0.16788
0.16404
0.159445
0.153734
0.146321
0.140933
0.0699161
0.0692706
0.0819527
0.102741
0.125821
0.147057
0.164419
0.177462
0.186514
0.192123
0.194841
0.195165
0.193527
0.190296
0.185804
0.180417
0.174353
0.167197
0.158718
0.152954
0.120717
0.118727
0.12977
0.148217
0.168385
0.186466
0.200675
0.210708
0.216944
0.21994
0.220246
0.21835
0.214673
0.209574
0.203385
0.196449
0.188924
0.180422
0.17099
0.164542
0.171361
0.168013
0.177331
0.193327
0.210499
0.225373
0.236409
0.243427
0.246849
0.247241
0.245146
0.241043
0.235343
0.228397
0.220528
0.212057
0.203102
0.193327
0.182962
0.175662
0.221411
0.216704
0.224233
0.237706
0.251836
0.263493
0.271368
0.275393
0.276031
0.27385
0.269386
0.263108
0.255418
0.246657
0.23714
0.227162
0.21682
0.205832
0.194542
0.186307
0.270431
0.264379
0.27008
0.280995
0.292079
0.300544
0.305302
0.306389
0.304296
0.299594
0.292813
0.284411
0.27478
0.264251
0.253128
0.241686
0.230005
0.217855
0.205653
0.196442
0.317995
0.310623
0.314487
0.322843
0.330916
0.336251
0.337969
0.336196
0.331452
0.324306
0.315279
0.304821
0.293313
0.281076
0.268403
0.255549
0.242586
0.229329
0.216234
0.206028
0.363687
0.355036
0.357078
0.362915
0.368047
0.37035
0.369133
0.364608
0.357314
0.347821
0.336639
0.32421
0.310904
0.297033
0.282877
0.268676
0.254493
0.240187
0.226231
0.215029
0.407112
0.397234
0.397497
0.400885
0.403186
0.402584
0.398569
0.391425
0.381707
0.369982
0.356755
0.342456
0.327445
0.312027
0.296468
0.280992
0.265661
0.250369
0.235591
0.223406
0.447891
0.436852
0.435403
0.43645
0.43606
0.432714
0.426064
0.416456
0.404461
0.390642
0.375496
0.359443
0.342836
0.325968
0.309096
0.292428
0.276027
0.259821
0.244264
0.231127
0.485671
0.473547
0.47048
0.469322
0.466416
0.460514
0.451417
0.439524
0.425418
0.40966
0.392737
0.375062
0.356979
0.338772
0.320687
0.302919
0.285532
0.268489
0.252208
0.238158
0.520123
0.507003
0.502434
0.499239
0.49402
0.485777
0.474443
0.460465
0.444435
0.426908
0.408366
0.389213
0.369786
0.350361
0.331173
0.312404
0.294125
0.276325
0.259379
0.244472
0.550949
0.536932
0.531
0.52596
0.518657
0.508313
0.494974
0.479129
0.461376
0.442268
0.422278
0.401805
0.381177
0.360664
0.34049
0.320828
0.301755
0.283285
0.26574
0.250044
0.577883
0.563079
0.555939
0.549273
0.540138
0.527952
0.51286
0.495384
0.476125
0.455635
0.43438
0.412755
0.391079
0.369616
0.348583
0.328143
0.30838
0.289329
0.271258
0.254853
0.600693
0.585218
0.577046
0.568991
0.558298
0.544549
0.527971
0.509111
0.488578
0.466917
0.444593
0.421991
0.399429
0.377163
0.355403
0.334306
0.313961
0.294422
0.275903
0.258882
0.61918
0.603161
0.594144
0.584958
0.572997
0.557978
0.540194
0.520213
0.498647
0.476038
0.452846
0.429454
0.406174
0.383258
0.360909
0.33928
0.318465
0.298534
0.27965
0.262118
0.633187
0.616753
0.607093
0.597045
0.584121
0.568139
0.549441
0.528611
0.506261
0.482934
0.459085
0.435095
0.411271
0.387863
0.365068
0.343036
0.321866
0.30164
0.282479
0.264552
0.642593
0.62588
0.615786
0.605157
0.591585
0.574956
0.555644
0.534243
0.511367
0.487558
0.463268
0.438876
0.414687
0.390949
0.367855
0.345553
0.324145
0.303721
0.284374
0.266177
0.440773
0.416401
0.392497
0.369253
0.346815
0.325288
0.304765
0.285324
0.266991
-0.264663
-0.264332
-0.263473
-0.262003
-0.263473
-0.259966
-0.261839
-0.260691
-0.257408
-0.259355
-0.258642
-0.254311
-0.25602
-0.255777
-0.255297
-0.250585
-0.25193
-0.252152
-0.252027
-0.246248
-0.247306
-0.247896
-0.248036
-0.248093
-0.241651
-0.242522
-0.243192
-0.243444
-0.243731
-0.244035
-0.2374
-0.237996
-0.238196
-0.238226
-0.238534
-0.238921
-0.231532
-0.233751
-0.234091
-0.234304
-0.234775
-0.235281
-0.235678
-0.226393
-0.229188
-0.229613
-0.229834
-0.230393
-0.231022
-0.231533
-0.221279
-0.224414
-0.224833
-0.225032
-0.225663
-0.22641
-0.227028
-0.216184
-0.219495
-0.219941
-0.220157
-0.220863
-0.221715
-0.222434
-0.210954
-0.21444
-0.214978
-0.215244
-0.216019
-0.216963
-0.217775
-0.205623
-0.209298
-0.209961
-0.210294
-0.211132
-0.212158
-0.213057
-0.200279
-0.204107
-0.204908
-0.205319
-0.20622
-0.207321
-0.208303
-0.194953
-0.198891
-0.199835
-0.200335
-0.201298
-0.202471
-0.203531
-0.189656
-0.193677
-0.19476
-0.195353
-0.196381
-0.197619
-0.198754
-0.184406
-0.188485
-0.189698
-0.190386
-0.191476
-0.192777
-0.193982
-0.179216
-0.18333
-0.184663
-0.185443
-0.186594
-0.187953
-0.189223
-0.174091
-0.178224
-0.179664
-0.180533
-0.181741
-0.183155
-0.184486
-0.169036
-0.173174
-0.174712
-0.175663
-0.176927
-0.17839
-0.179777
-0.164059
-0.168188
-0.169814
-0.170844
-0.172158
-0.173666
-0.175105
-0.159167
-0.163274
-0.164979
-0.166082
-0.167442
-0.16899
-0.170474
-0.154367
-0.15844
-0.160214
-0.161383
-0.162785
-0.164368
-0.165892
-0.149665
-0.153692
-0.155526
-0.156756
-0.158194
-0.159806
-0.161365
-0.145066
-0.149038
-0.15092
-0.152204
-0.153674
-0.155309
-0.156898
-0.140573
-0.144481
-0.146403
-0.147734
-0.149229
-0.150883
-0.152496
-0.136191
-0.140026
-0.141978
-0.143349
-0.144864
-0.146532
-0.148163
-0.131919
-0.135676
-0.137648
-0.139052
-0.140583
-0.142259
-0.143903
-0.12776
-0.131432
-0.133417
-0.134847
-0.136389
-0.138068
-0.13972
-0.123713
-0.127298
-0.129287
-0.130737
-0.132284
-0.133962
-0.135617
-0.11978
-0.123272
-0.125259
-0.126723
-0.128271
-0.129944
-0.131597
-0.11596
-0.119357
-0.121335
-0.122807
-0.124352
-0.126015
-0.127663
-0.112253
-0.115553
-0.117516
-0.118992
-0.120529
-0.122179
-0.123816
-0.10866
-0.111859
-0.113802
-0.115277
-0.116803
-0.118436
-0.12006
-0.105179
-0.108277
-0.110195
-0.111664
-0.113176
-0.114789
-0.116396
-0.101809
-0.104805
-0.106694
-0.108153
-0.109648
-0.111238
-0.112824
-0.0985501
-0.101443
-0.103299
-0.104745
-0.10622
-0.107784
-0.109347
-0.0954
-0.0981898
-0.10001
-0.101439
-0.102892
-0.104428
-0.105965
-0.0923575
-0.0950444
-0.0968261
-0.0982358
-0.0996631
-0.10117
-0.102679
-0.0894206
-0.0920056
-0.093746
-0.0951336
-0.0965342
-0.0980094
-0.0994882
-0.0865877
-0.0890716
-0.0907689
-0.0921321
-0.0935043
-0.0949464
-0.0963935
-0.0838567
-0.086241
-0.0878935
-0.0892304
-0.0905728
-0.0919806
-0.0933944
-0.0812256
-0.083512
-0.0851184
-0.0864273
-0.0877387
-0.0891113
-0.0904906
-0.0786923
-0.0808826
-0.0824421
-0.0837217
-0.0850011
-0.0863376
-0.0876816
-0.0762548
-0.078351
-0.079863
-0.081112
-0.0823589
-0.0836588
-0.0849667
-0.0739109
-0.0759153
-0.0773794
-0.078597
-0.0798107
-0.0810736
-0.082345
-0.0716585
-0.0735735
-0.0749895
-0.0761752
-0.0773553
-0.0785811
-0.0798156
-0.0694955
-0.0713235
-0.0726917
-0.0738448
-0.0749913
-0.07618
-0.0773774
-0.0674198
-0.0691635
-0.070484
-0.0716044
-0.0727172
-0.0738689
-0.0750294
-0.0654293
-0.0670913
-0.0683648
-0.0694524
-0.0705316
-0.0716467
-0.0727704
-0.0635222
-0.0651052
-0.0663323
-0.0673871
-0.068433
-0.0695118
-0.0705991
-0.0616963
-0.0632032
-0.0643847
-0.0654069
-0.06642
-0.0674631
-0.0685143
-0.0599499
-0.0613834
-0.0625202
-0.0635103
-0.0644909
-0.065499
-0.0665148
-0.0582811
-0.0596441
-0.0607373
-0.0616956
-0.0626445
-0.0636182
-0.0645993
-0.0566883
-0.0579835
-0.0590343
-0.0599615
-0.0608792
-0.0618194
-0.0627666
-0.0551697
-0.0564001
-0.0574096
-0.0583063
-0.0591937
-0.0601014
-0.0610155
-0.0537238
-0.0548922
-0.0558618
-0.0567288
-0.0575867
-0.0584628
-0.0593447
-0.0523492
-0.0534585
-0.0543895
-0.0552277
-0.056057
-0.0569024
-0.0577533
-0.0510446
-0.0520975
-0.0529914
-0.0538016
-0.0546033
-0.0554193
-0.0562401
-0.0498087
-0.0508081
-0.0516664
-0.0524496
-0.0532247
-0.0540123
-0.0548042
-0.0486404
-0.0495891
-0.0504133
-0.0511706
-0.0519202
-0.0526806
-0.0534448
-0.0475387
-0.0484395
-0.0492312
-0.0499636
-0.0506888
-0.0514234
-0.052161
-0.0465028
-0.0473585
-0.0481193
-0.048828
-0.04953
-0.0502399
-0.0509524
-0.045532
-0.0463453
-0.047077
-0.0477632
-0.0484431
-0.0491297
-0.0498182
-0.0446259
-0.0453996
-0.0461037
-0.0467686
-0.0474278
-0.0480924
-0.0487584
-0.0437839
-0.0445208
-0.0451991
-0.0458441
-0.0464838
-0.0471277
-0.0477726
-0.0430061
-0.0437089
-0.0443632
-0.0449895
-0.0456111
-0.0462358
-0.046861
-0.0422924
-0.0429639
-0.0435961
-0.0442051
-0.0448098
-0.0454169
-0.0460239
-0.0416431
-0.0422861
-0.042898
-0.0434911
-0.0440805
-0.0446713
-0.0452617
-0.0410588
-0.0416761
-0.0422697
-0.0428484
-0.0434239
-0.044
-0.0445753
-0.0405403
-0.0411348
-0.041712
-0.0422779
-0.0428409
-0.043404
-0.0439658
-0.0400888
-0.0406633
-0.0412262
-0.0417809
-0.042333
-0.0428847
-0.0434347
-0.0397057
-0.0402634
-0.0408141
-0.0413592
-0.0419021
-0.042444
-0.0429841
-0.0393929
-0.0399368
-0.0404775
-0.0410148
-0.0415502
-0.0420842
-0.0426161
-0.0391528
-0.0396861
-0.0402191
-0.0407504
-0.04128
-0.041808
-0.0423337
-0.0389896
-0.0395157
-0.0400435
-0.0405707
-0.0410963
-0.0416201
-0.0421414
-0.0389008
-0.0394241
-0.03995
-0.0404757
-0.0409998
-0.0415218
-0.0420412
-0.0959504
-0.104195
-0.11222
-0.120026
-0.127621
-0.135017
-0.142226
-0.149264
-0.156144
-0.162885
-0.169501
-0.176009
-0.182423
-0.188754
-0.195011
-0.201196
-0.20728
-0.213404
-0.219126
-0.226214
-0.0928427
-0.100825
-0.108608
-0.116197
-0.1236
-0.130828
-0.137892
-0.144803
-0.151576
-0.158222
-0.164756
-0.171188
-0.17753
-0.183792
-0.189969
-0.196109
-0.202084
-0.208355
-0.213914
-0.221458
-0.0898687
-0.0975441
-0.105036
-0.112353
-0.119504
-0.126497
-0.133341
-0.140048
-0.146628
-0.153092
-0.159449
-0.165712
-0.171887
-0.177998
-0.18402
-0.19008
-0.195938
-0.202305
-0.20785
-0.215336
-0.0870106
-0.094406
-0.101638
-0.108714
-0.115642
-0.122429
-0.129086
-0.13562
-0.142041
-0.148361
-0.154586
-0.160734
-0.166803
-0.172839
-0.178789
-0.184849
-0.190666
-0.197059
-0.202665
-0.209798
-0.0842858
-0.0914194
-0.0984096
-0.105262
-0.111985
-0.118585
-0.125072
-0.131454
-0.13774
-0.143942
-0.150065
-0.156131
-0.162131
-0.168128
-0.17403
-0.18008
-0.185845
-0.192139
-0.19775
-0.204428
-0.081693
-0.088573
-0.0953266
-0.101959
-0.108478
-0.11489
-0.121204
-0.12743
-0.133574
-0.139649
-0.145659
-0.151628
-0.157534
-0.163457
-0.169268
-0.175232
-0.180908
-0.187021
-0.192634
-0.198974
-0.0792209
-0.0858538
-0.0923749
-0.0987892
-0.105103
-0.111325
-0.117461
-0.123521
-0.129511
-0.135444
-0.141318
-0.147164
-0.152947
-0.158754
-0.164447
-0.170285
-0.175882
-0.181822
-0.187469
-0.193584
-0.0768609
-0.0832537
-0.0895476
-0.0957474
-0.101859
-0.107889
-0.113845
-0.119736
-0.125566
-0.131348
-0.137077
-0.142786
-0.148436
-0.154117
-0.159696
-0.165408
-0.170949
-0.176733
-0.182385
-0.188301
-0.0746068
-0.0807668
-0.0868393
-0.092829
-0.0987411
-0.104583
-0.110359
-0.11608
-0.121747
-0.127376
-0.132958
-0.138528
-0.144046
-0.149599
-0.155073
-0.160655
-0.166129
-0.171751
-0.177348
-0.183085
-0.0724531
-0.0783875
-0.0842445
-0.0900287
-0.0957448
-0.1014
-0.106998
-0.112549
-0.118054
-0.123528
-0.128962
-0.13439
-0.139776
-0.145194
-0.150557
-0.155994
-0.161375
-0.166833
-0.172344
-0.177933
-0.0703944
-0.0761101
-0.0817575
-0.0873409
-0.0928645
-0.0983349
-0.103757
-0.109138
-0.11448
-0.119798
-0.125083
-0.130365
-0.135614
-0.140889
-0.146128
-0.151414
-0.156686
-0.161994
-0.167404
-0.172857
-0.0684254
-0.0739293
-0.079373
-0.0847602
-0.0900952
-0.095384
-0.100631
-0.105844
-0.111023
-0.116183
-0.121317
-0.126448
-0.131557
-0.136683
-0.141793
-0.146931
-0.152086
-0.157251
-0.162545
-0.167856
-0.0665412
-0.0718403
-0.0770861
-0.0822821
-0.0874322
-0.0925425
-0.0976166
-0.102662
-0.10768
-0.112681
-0.117663
-0.122642
-0.127608
-0.132586
-0.137563
-0.142555
-0.147583
-0.152605
-0.157768
-0.162935
-0.0647374
-0.0698384
-0.0748921
-0.0799017
-0.0848713
-0.0898063
-0.0947103
-0.0995899
-0.104447
-0.109291
-0.11412
-0.118947
-0.123769
-0.128599
-0.133438
-0.138285
-0.143177
-0.148054
-0.153081
-0.158101
-0.0630101
-0.0679195
-0.0727867
-0.077615
-0.0824082
-0.0871715
-0.0919083
-0.0966243
-0.101322
-0.106009
-0.110686
-0.115362
-0.120038
-0.12472
-0.129418
-0.134118
-0.138871
-0.143603
-0.148491
-0.153362
-0.061355
-0.0660793
-0.0707656
-0.0754176
-0.080039
-0.0846343
-0.089207
-0.0937621
-0.0983026
-0.102834
-0.10736
-0.111885
-0.116415
-0.120949
-0.125503
-0.130058
-0.134669
-0.139257
-0.144002
-0.148724
-0.0597685
-0.0643142
-0.068825
-0.0733058
-0.0777599
-0.0821911
-0.086603
-0.091
-0.0953854
-0.099764
-0.104139
-0.108515
-0.112898
-0.117285
-0.121695
-0.126105
-0.130573
-0.135016
-0.139617
-0.14419
-0.0582482
-0.0626209
-0.0669617
-0.0712761
-0.0755672
-0.0798384
-0.084093
-0.0883349
-0.0925678
-0.0967954
-0.101022
-0.10525
-0.109487
-0.113728
-0.117994
-0.12226
-0.126584
-0.130883
-0.135337
-0.139764
-0.0567914
-0.0609963
-0.0651724
-0.0693253
-0.0734578
-0.0775728
-0.0816737
-0.0857639
-0.089847
-0.0939262
-0.0980062
-0.102088
-0.10618
-0.110277
-0.1144
-0.118522
-0.122701
-0.126857
-0.131164
-0.135447
-0.0553935
-0.0594365
-0.0634535
-0.0674497
-0.071428
-0.0753911
-0.079342
-0.0832838
-0.0872202
-0.0911538
-0.0950894
-0.0990273
-0.102977
-0.106931
-0.110911
-0.114891
-0.118927
-0.122941
-0.1271
-0.131239
-0.0540523
-0.0579388
-0.0618019
-0.0656462
-0.0694748
-0.07329
-0.0770947
-0.0808918
-0.0846847
-0.0884756
-0.0922694
-0.096066
-0.0998744
-0.103688
-0.107527
-0.111366
-0.115259
-0.119133
-0.123145
-0.12714
-0.0527653
-0.0565004
-0.0602145
-0.0639118
-0.0675951
-0.0712666
-0.074929
-0.0785849
-0.0822377
-0.0858891
-0.089544
-0.093202
-0.0968718
-0.100547
-0.104247
-0.107947
-0.111699
-0.115433
-0.1193
-0.123152
-0.0515296
-0.0551185
-0.0586886
-0.0622436
-0.065786
-0.0693179
-0.072842
-0.0763605
-0.0798765
-0.0833918
-0.0869107
-0.090433
-0.0939668
-0.0975059
-0.101069
-0.104633
-0.108245
-0.111842
-0.115565
-0.119275
-0.0503427
-0.0537906
-0.0572214
-0.0606386
-0.0640446
-0.0674412
-0.0708309
-0.0742157
-0.0775985
-0.080981
-0.0843672
-0.0877569
-0.0911575
-0.0945634
-0.0979917
-0.101421
-0.104897
-0.108358
-0.111939
-0.115508
-0.0492023
-0.052514
-0.0558104
-0.0590944
-0.0623682
-0.0656337
-0.0688929
-0.0721478
-0.0754011
-0.0786543
-0.0819111
-0.0851712
-0.0884418
-0.0917174
-0.095014
-0.0983119
-0.101653
-0.104981
-0.108423
-0.111853
-0.0481062
-0.0512867
-0.0544532
-0.0576084
-0.0607545
-0.0638928
-0.0670256
-0.0701544
-0.0732818
-0.0764092
-0.0795399
-0.0826739
-0.0858175
-0.0889659
-0.0921338
-0.0953029
-0.0985128
-0.101709
-0.105015
-0.108309
-0.0470524
-0.0501063
-0.0531475
-0.0561783
-0.0592007
-0.0622161
-0.0652263
-0.0682329
-0.0712381
-0.0742432
-0.0772515
-0.0802626
-0.0832826
-0.086307
-0.0893493
-0.0923926
-0.0954741
-0.0985422
-0.101714
-0.104874
-0.0460391
-0.0489709
-0.0518911
-0.0548019
-0.0577048
-0.0606012
-0.0634928
-0.0663809
-0.0692676
-0.0721541
-0.0750434
-0.0779351
-0.0808349
-0.0837385
-0.0866586
-0.0895793
-0.0925355
-0.0954785
-0.09852
-0.10155
-0.0450643
-0.0478785
-0.050682
-0.0534769
-0.0562645
-0.0590459
-0.0618226
-0.064596
-0.067368
-0.0701395
-0.0729133
-0.0756892
-0.0784722
-0.0812584
-0.0840596
-0.086861
-0.0896952
-0.0925165
-0.0954308
-0.0983329
-0.0441264
-0.0468272
-0.0495183
-0.0522014
-0.0548776
-0.0575479
-0.0602137
-0.0628762
-0.065537
-0.0681972
-0.0708591
-0.0735226
-0.0761922
-0.0788645
-0.0815504
-0.0842358
-0.0869516
-0.0896545
-0.0924449
-0.0952232
-0.0432239
-0.0458153
-0.048398
-0.0509734
-0.0535422
-0.0561052
-0.0586638
-0.0612191
-0.0637725
-0.0663248
-0.0688784
-0.0714331
-0.073993
-0.0765549
-0.0791288
-0.0817018
-0.0843025
-0.0868905
-0.0895607
-0.0922187
-0.0423555
-0.0448416
-0.0473199
-0.0497914
-0.0522565
-0.054716
-0.0571711
-0.0596227
-0.0620723
-0.0645205
-0.0669693
-0.0694186
-0.0718723
-0.0743273
-0.0767928
-0.0792568
-0.0817462
-0.0842228
-0.0867763
-0.0893177
-0.0415178
-0.0439037
-0.046282
-0.0486534
-0.0510186
-0.0533783
-0.0557335
-0.0580852
-0.0604345
-0.062782
-0.0651296
-0.0674771
-0.0698281
-0.0721796
-0.0745403
-0.0768989
-0.0792804
-0.0816493
-0.0840899
-0.0865183
-0.0407083
-0.0429998
-0.0452824
-0.0475576
-0.0498266
-0.0520901
-0.0543492
-0.0566045
-0.058857
-0.0611074
-0.0633573
-0.0656065
-0.0678582
-0.0701098
-0.0723693
-0.074626
-0.0769033
-0.079168
-0.0814994
-0.0838187
-0.0399311
-0.0421306
-0.0443207
-0.0465031
-0.0486793
-0.0508503
-0.0530166
-0.0551789
-0.0573382
-0.0594948
-0.0616504
-0.0638047
-0.0659607
-0.0681159
-0.0702776
-0.072436
-0.0746127
-0.0767769
-0.0790027
-0.0812168
-0.039186
-0.0412954
-0.0433959
-0.0454888
-0.0475756
-0.0496572
-0.0517342
-0.0538068
-0.0558761
-0.0579424
-0.0600071
-0.06207
-0.0641337
-0.0661959
-0.0682632
-0.0703268
-0.0724065
-0.0744738
-0.0765979
-0.0787104
-0.0384694
-0.0404917
-0.0425058
-0.0445128
-0.0465137
-0.0485093
-0.0505001
-0.0524865
-0.0544692
-0.0564485
-0.0584256
-0.0604004
-0.0623751
-0.0643477
-0.0663243
-0.0682966
-0.0702829
-0.0722568
-0.0742829
-0.0762977
-0.0377799
-0.0397186
-0.0416498
-0.043574
-0.0454923
-0.0474052
-0.0493131
-0.0512165
-0.0531157
-0.0550113
-0.0569041
-0.0587941
-0.0606832
-0.0625696
-0.0644588
-0.0663432
-0.0682396
-0.0701237
-0.0720556
-0.0739763
-0.0371167
-0.0389753
-0.0408266
-0.0426714
-0.0445102
-0.0463435
-0.0481718
-0.0499952
-0.0518143
-0.0536292
-0.055441
-0.0572494
-0.0590562
-0.0608597
-0.0626648
-0.0644648
-0.0662748
-0.0680726
-0.0699139
-0.0717443
-0.036479
-0.0382606
-0.0400353
-0.0418036
-0.043566
-0.0453229
-0.0470746
-0.0488212
-0.0505632
-0.0523008
-0.0540346
-0.0557646
-0.0574923
-0.0592162
-0.0609406
-0.0626594
-0.0643865
-0.0661014
-0.0678558
-0.0695994
-0.0358657
-0.0375736
-0.0392748
-0.0409697
-0.0426588
-0.0443423
-0.0460204
-0.0476933
-0.0493612
-0.0510244
-0.0526834
-0.0543381
-0.0559899
-0.0576373