/*--------------------------------*- C++ -*----------------------------------*\
  =========                 |
  \\      /  F ield         | OpenFOAM: The Open Source CFD Toolbox
   \\    /   O peration     | Website:  https://openfoam.org
    \\  /    A nd           | Version:  7
     \\/     M anipulation  |
\*---------------------------------------------------------------------------*/
FoamFile
{
    version     2.0;
    format      ascii;
    class       volScalarField;
    location    "10";
    object      p;
}
// * * * * * * * * * * * * * * * * * * * * * * * * * * * * * * * * * * * * * //

dimensions      [0 2 -2 0 0 0 0];

internalField   nonuniform List<scalar> 
433
(
-0.310203
-0.309329
-0.323722
-0.317295
-0.308675
-0.306921
-0.325378
-0.317825
-0.307107
-0.303383
-0.304487
-0.296101
-0.291197
-0.346258
-0.312627
-0.303715
-0.291691
-0.279588
-0.349848
-0.314668
-0.305116
-0.292973
-0.28083
-0.268725
-0.256364
-0.243822
-0.231128
-0.218347
-0.205558
-0.192844
-0.180284
-0.167952
-0.155913
-0.144219
-0.132917
-0.122039
-0.352256
-0.316749
-0.306427
-0.294142
-0.282001
-0.269932
-0.257614
-0.245116
-0.232458
-0.2197
-0.206918
-0.194195
-0.181612
-0.169244
-0.157158
-0.14541
-0.134047
-0.123106
-0.352993
-0.319012
-0.307781
-0.295264
-0.28315
-0.271143
-0.258889
-0.246449
-0.233841
-0.221116
-0.208351
-0.195625
-0.183023
-0.17062
-0.158487
-0.146682
-0.135255
-0.124245
-0.350054
-0.320939
-0.309055
-0.29629
-0.284241
-0.272347
-0.260195
-0.247843
-0.235311
-0.222644
-0.209914
-0.197201
-0.184588
-0.172156
-0.159976
-0.148112
-0.136617
-0.125531
-0.335902
-0.31905
-0.309201
-0.296548
-0.284691
-0.273003
-0.261007
-0.248776
-0.236349
-0.223767
-0.2111
-0.19843
-0.18584
-0.173412
-0.161219
-0.149328
-0.137794
-0.126662
-0.297125
-0.310852
-0.308742
-0.296722
-0.285068
-0.273551
-0.261616
-0.249382
-0.236934
-0.224327
-0.211637
-0.198948
-0.186345
-0.17391
-0.161715
-0.149825
-0.138295
-0.12717
-0.116481
-0.287789
-0.302102
-0.302236
-0.291006
-0.280066
-0.269316
-0.25801
-0.246298
-0.23432
-0.22214
-0.209836
-0.197496
-0.185205
-0.173045
-0.161092
-0.149412
-0.138063
-0.12709
-0.116531
-0.282164
-0.293336
-0.294206
-0.283974
-0.273749
-0.263748
-0.253125
-0.242014
-0.230588
-0.218921
-0.207091
-0.195185
-0.183289
-0.171485
-0.159849
-0.14845
-0.137347
-0.126588
-0.116213
-0.276963
-0.284332
-0.285517
-0.276462
-0.266959
-0.25767
-0.24775
-0.237276
-0.226436
-0.215317
-0.203993
-0.192553
-0.181083
-0.169665
-0.158377
-0.147286
-0.136455
-0.125935
-0.115767
-0.270949
-0.274971
-0.27594
-0.268066
-0.259362
-0.250811
-0.241645
-0.231877
-0.221691
-0.211181
-0.200424
-0.189505
-0.178512
-0.167527
-0.156627
-0.145885
-0.135361
-0.125111
-0.115177
-0.263391
-0.26494
-0.265333
-0.258599
-0.250807
-0.243045
-0.234689
-0.225696
-0.216235
-0.206403
-0.196277
-0.185942
-0.175484
-0.164986
-0.154526
-0.144177
-0.134003
-0.12406
-0.114395
-0.253968
-0.253995
-0.253721
-0.248081
-0.2413
-0.234389
-0.226888
-0.218729
-0.210054
-0.200962
-0.191528
-0.181835
-0.171969
-0.162011
-0.152041
-0.142131
-0.132349
-0.122753
-0.113392
-0.242657
-0.242039
-0.241204
-0.236606
-0.23091
-0.224902
-0.218292
-0.21101
-0.203171
-0.194869
-0.186179
-0.17718
-0.167955
-0.158586
-0.149153
-0.139728
-0.13038
-0.121169
-0.112148
-0.229691
-0.229114
-0.227946
-0.224334
-0.219749
-0.214684
-0.208981
-0.202605
-0.195635
-0.188159
-0.180251
-0.171988
-0.163447
-0.15471
-0.145855
-0.136956
-0.128081
-0.119294
-0.110648
-0.215482
-0.215394
-0.21416
-0.211477
-0.207983
-0.203872
-0.19908
-0.193607
-0.187525
-0.180893
-0.173791
-0.166291
-0.158465
-0.150393
-0.142151
-0.133813
-0.125448
-0.117118
-0.10888
-0.20052
-0.201146
-0.200091
-0.198275
-0.19581
-0.192634
-0.188734
-0.184148
-0.178933
-0.173157
-0.166869
-0.160144
-0.153051
-0.145666
-0.138063
-0.130314
-0.122486
-0.114642
-0.106841
-0.185297
-0.186684
-0.185993
-0.184974
-0.183444
-0.181151
-0.178104
-0.174371
-0.170004
-0.165052
-0.159571
-0.153621
-0.147263
-0.140574
-0.133624
-0.126482
-0.119212
-0.111879
-0.104539
-0.170239
-0.172321
-0.172098
-0.171794
-0.171086
-0.169603
-0.167352
-0.164419
-0.160853
-0.156695
-0.151993
-0.146807
-0.141169
-0.135173
-0.12888
-0.122353
-0.115655
-0.108847
-0.101985
-0.155677
-0.158328
-0.158606
-0.158924
-0.158918
-0.158153
-0.156626
-0.154429
-0.151608
-0.148195
-0.144234
-0.139799
-0.134844
-0.129527
-0.123885
-0.117972
-0.111849
-0.105574
-0.0992028
-0.141837
-0.144912
-0.145664
-0.146507
-0.147085
-0.146941
-0.146058
-0.144524
-0.142383
-0.139656
-0.136374
-0.132557
-0.128349
-0.123702
-0.118695
-0.113386
-0.107834
-0.102093
-0.0962172
-0.128851
-0.132209
-0.133376
-0.134646
-0.135696
-0.136077
-0.135754
-0.134808
-0.133278
-0.13118
-0.128538
-0.125386
-0.12179
-0.117768
-0.113369
-0.108647
-0.103654
-0.0984407
-0.0930586
-0.116776
-0.120297
-0.121803
-0.123408
-0.124831
-0.125643
-0.125798
-0.125364
-0.124375
-0.122843
-0.120784
-0.11823
-0.115219
-0.111784
-0.107964
-0.103804
-0.0993518
-0.0946542
-0.0897585
-0.105619
-0.109204
)
;

boundaryField
{
    inlet
    {
        type            zeroGradient;
    }
    outlet
    {
        type            fixedValue;
        value           nonuniform 0();
    }
    cylinder
    {
        type            zeroGradient;
    }
    top
    {
        type            symmetryPlane;
    }
    bottom
    {
        type            symmetryPlane;
    }
    defaultFaces
    {
        type            empty;
    }
    procBoundary28to22
    {
        type            processor;
        value           nonuniform List<scalar> 
26
(
-0.311454
-0.310936
-0.310936
-0.322752
-0.3173
-0.3173
-0.329053
-0.341818
-0.31061
-0.302204
-0.290305
-0.278283
-0.267474
-0.267474
-0.255088
-0.242517
-0.229799
-0.217005
-0.204217
-0.191517
-0.178985
-0.166693
-0.154701
-0.143063
-0.131821
-0.121005
)
;
    }
    procBoundary28to23
    {
        type            processor;
        value           nonuniform List<scalar> 3(-0.11161 -0.112612 -0.113681);
    }
    procBoundary28to27
    {
        type            processor;
        value           nonuniform List<scalar> 10(-0.331398 -0.327945 -0.318819 -0.318819 -0.30596 -0.30596 -0.357384 -0.372158 -0.36754 -0.351523);
    }
    procBoundary28to29
    {
        type            processor;
        value           nonuniform List<scalar> 
20
(
-0.114888
-0.115965
-0.115965
-0.106252
-0.106411
-0.10625
-0.105982
-0.105595
-0.105046
-0.104308
-0.103361
-0.10219
-0.100783
-0.0991334
-0.0972442
-0.0951241
-0.0927884
-0.0902578
-0.0875567
-0.0847114
)
;
    }
    procBoundary28to33
    {
        type            processor;
        value           nonuniform List<scalar> 
15
(
-0.335825
-0.318545
-0.299511
-0.279378
-0.258655
-0.237903
-0.217651
-0.198313
-0.180176
-0.163381
-0.14796
-0.133865
-0.121007
-0.109283
-0.0985891
)
;
    }
    procBoundary28to34
    {
        type            processor;
        value           nonuniform List<scalar> 
20
(
-0.110971
-0.11283
-0.114537
-0.115695
-0.116249
-0.116254
-0.115738
-0.114707
-0.113173
-0.111159
-0.108692
-0.105804
-0.102528
-0.0989024
-0.0949688
-0.0907697
-0.0863488
-0.0953518
-0.110971
-0.0989287
)
;
    }
}


// ************************************************************************* //
