0.256332 	0.440349 	-2.0013e-18 	4.15423
0.259184 	0.445249 	-2.05339e-18 	4.15362
0.261221 	0.448748 	-1.80445e-18 	4.15126
0.264479 	0.454344 	-1.44607e-18 	4.15061
0.268552 	0.461342 	-1.31645e-18 	4.14991
0.272625 	0.468339 	-4.89154e-18 	4.14915
0.276699 	0.475337 	-5.79959e-18 	4.14832
0.279368 	0.479922 	-5.51903e-18 	4.14749
0.281404 	0.483421 	-4.68779e-18 	4.14614
0.284845 	0.489332 	-4.92855e-18 	4.14557
0.288919 	0.49633 	-4.19211e-18 	4.14521
