0.218136 	0.461342 	-2.5327e-18 	1.05546 	-0.0265483 	8.33202e-16
0.219895 	0.465063 	3.04833e-19 	1.05923 	-0.0275754 	1.72713e-15
0.221549 	0.468562 	7.73156e-19 	1.06239 	-0.0254583 	4.09684e-15
0.224753 	0.475337 	1.16933e-18 	1.05551 	-0.0259015 	2.05903e-16
0.228062 	0.482335 	1.49981e-18 	1.00357 	-0.0241836 	-4.41112e-16
0.23137 	0.489332 	2.09984e-18 	0.808723 	-0.0184212 	6.70919e-17
0.234679 	0.49633 	2.24803e-18 	0.3115 	-0.00349651 	-1.57711e-16
