/*--------------------------------*- C++ -*----------------------------------*\
  =========                 |
  \\      /  F ield         | OpenFOAM: The Open Source CFD Toolbox
   \\    /   O peration     | Website:  https://openfoam.org
    \\  /    A nd           | Version:  7
     \\/     M anipulation  |
\*---------------------------------------------------------------------------*/
FoamFile
{
    version     2.0;
    format      ascii;
    class       surfaceScalarField;
    location    "104.00005";
    object      phi;
}
// * * * * * * * * * * * * * * * * * * * * * * * * * * * * * * * * * * * * * //

dimensions      [0 3 -1 0 0 0 0];

internalField   nonuniform List<scalar> 
11438
(
-0.000724751
-0.000518841
-0.000746608
-0.000745883
-0.000722182
-0.000929936
-0.000661808
-0.00106041
-0.0011275
0.0162283
-5.03166e-06
0.0162332
-4.95101e-06
0.0162381
-4.86077e-06
0.0162428
-4.76075e-06
0.0162475
-4.65085e-06
0.016252
-4.53097e-06
0.0162564
-4.40108e-06
0.0162607
-4.26122e-06
0.0162648
-4.11153e-06
0.0162688
-3.95226e-06
0.0162725
-3.78374e-06
0.0162761
-3.60642e-06
0.0162796
-3.42087e-06
0.0162828
-3.22782e-06
0.0162858
-3.02811e-06
0.0162886
-2.82275e-06
0.0162913
-2.61288e-06
0.0162937
-2.39983e-06
0.0162958
-2.18509e-06
0.0162978
-1.97029e-06
0.0162996
-1.75725e-06
0.0163011
-1.54791e-06
0.0163025
-1.34437e-06
0.0163036
-1.14884e-06
0.0163046
-9.63618e-07
0.0163054
-7.91061e-07
0.016306
-6.33576e-07
0.0163065
-4.93451e-07
0.0163069
-3.73023e-07
0.0163071
-2.7422e-07
0.0163073
-1.99116e-07
0.0163075
-1.48941e-07
0.0163076
-1.25386e-07
0.0163077
-1.28099e-07
0.0163079
-1.58273e-07
0.0163081
-2.13113e-07
0.0163084
-2.93874e-07
0.0163088
-3.93762e-07
0.0163093
-5.15258e-07
0.01631
-6.45145e-07
0.0163107
-7.89638e-07
0.0163117
-9.25674e-07
0.0163127
-1.06743e-06
0.0163139
-1.17773e-06
0.0163152
-1.28428e-06
0.0163165
-1.33223e-06
0.0163179
-1.36737e-06
0.0163192
-1.31873e-06
0.0163205
-1.2472e-06
0.0163216
-1.08181e-06
0.0163224
-8.75253e-07
0.016323
-6.03715e-07
0.0163233
-2.46155e-07
0.0163232
7.18582e-08
0.0163226
5.79435e-07
0.0163218
8.13368e-07
0.0163204
1.44552e-06
0.016319
1.39892e-06
0.0163169
2.10229e-06
0.0163153
1.52917e-06
0.0163131
2.20955e-06
0.0163122
8.80605e-07
0.0163109
1.37166e-06
-7.95135e-07
0.0159084
-9.9709e-06
0.0159133
-9.80994e-06
0.0159181
-9.62967e-06
0.0159227
-9.42983e-06
0.0159273
-9.21018e-06
0.0159317
-8.97055e-06
0.015936
-8.71092e-06
0.0159402
-8.43138e-06
0.0159442
-8.13222e-06
0.0159481
-7.81393e-06
0.0159518
-7.47719e-06
0.0159553
-7.12291e-06
0.0159586
-6.75226e-06
0.0159618
-6.36666e-06
0.0159647
-5.96783e-06
0.0159675
-5.55777e-06
0.01597
-5.13882e-06
0.0159723
-4.71361e-06
0.0159744
-4.28512e-06
0.0159763
-3.85665e-06
0.015978
-3.43184e-06
0.0159794
-3.01459e-06
0.0159807
-2.60911e-06
0.0159818
-2.21983e-06
0.0159826
-1.85139e-06
0.0159834
-1.5085e-06
0.0159839
-1.196e-06
0.0159844
-9.18491e-07
0.0159847
-6.80666e-07
0.0159849
-4.86425e-07
0.015985
-3.39906e-07
0.0159851
-2.4359e-07
0.0159852
-2.00853e-07
0.0159853
-2.11029e-07
0.0159854
-2.76427e-07
0.0159856
-3.91527e-07
0.0159858
-5.58742e-07
0.0159862
-7.64537e-07
0.0159867
-1.01372e-06
0.0159873
-1.27987e-06
0.0159881
-1.57526e-06
0.015989
-1.85361e-06
0.0159901
-2.14333e-06
0.0159913
-2.3694e-06
0.0159926
-2.58801e-06
0.015994
-2.68758e-06
0.0159954
-2.76224e-06
0.0159967
-2.66554e-06
0.015998
-2.52523e-06
0.0159991
-2.19095e-06
0.016
-1.77833e-06
0.0160006
-1.22622e-06
0.0160009
-5.10481e-07
0.0160008
1.42482e-07
0.0160002
1.15597e-06
0.0159994
1.65225e-06
0.0159979
2.91001e-06
0.0159965
2.85498e-06
0.0159943
4.25117e-06
0.0159927
3.14734e-06
0.0159904
4.49669e-06
0.0159894
1.87609e-06
0.015988
2.85063e-06
-1.45676e-06
0.0155977
-1.48319e-05
0.0156025
-1.45884e-05
0.0156071
-1.43158e-05
0.0156117
-1.40138e-05
0.0156162
-1.3682e-05
0.0156206
-1.33201e-05
0.0156248
-1.29282e-05
0.0156288
-1.25064e-05
0.0156328
-1.20551e-05
0.0156365
-1.15751e-05
0.0156401
-1.10674e-05
0.0156435
-1.05335e-05
0.0156468
-9.97502e-06
0.0156498
-9.39421e-06
0.0156526
-8.79365e-06
0.0156552
-8.17638e-06
0.0156576
-7.54593e-06
0.0156598
-6.90632e-06
0.0156618
-6.26206e-06
0.0156636
-5.61815e-06
0.0156651
-4.98009e-06
0.0156664
-4.35383e-06
0.0156676
-3.74576e-06
0.0156685
-3.16258e-06
0.0156693
-2.61136e-06
0.0156699
-2.09925e-06
0.0156703
-1.63358e-06
0.0156706
-1.22138e-06
0.0156708
-8.69767e-07
0.0156709
-5.84684e-07
0.0156709
-3.72419e-07
0.0156709
-2.36804e-07
0.0156709
-1.82912e-07
0.0156709
-2.09727e-07
0.015671
-3.20639e-07
0.0156711
-5.07403e-07
0.0156713
-7.73553e-07
0.0156716
-1.09867e-06
0.0156721
-1.48975e-06
0.0156727
-1.90685e-06
0.0156735
-2.36812e-06
0.0156745
-2.80357e-06
0.0156756
-3.25558e-06
0.0156768
-3.61061e-06
0.0156782
-3.95297e-06
0.0156796
-4.1138e-06
0.0156811
-4.23462e-06
0.0156825
-4.09378e-06
0.0156839
-3.88406e-06
0.0156851
-3.37664e-06
0.015686
-2.74849e-06
0.0156867
-1.90271e-06
0.015687
-8.08508e-07
0.0156869
1.99267e-07
0.0156863
1.75211e-06
0.0156855
2.53199e-06
0.0156839
4.46094e-06
0.0156824
4.41528e-06
0.0156801
6.5571e-06
0.0156783
4.93138e-06
0.0156758
7.00198e-06
0.0156746
3.08548e-06
0.0156728
4.58404e-06
-1.88194e-06
0.0152956
-1.96242e-05
0.0153003
-1.92944e-05
0.0153049
-1.89255e-05
0.0153094
-1.85172e-05
0.0153138
-1.80689e-05
0.015318
-1.75803e-05
0.0153222
-1.70514e-05
0.0153261
-1.64824e-05
0.01533
-1.5874e-05
0.0153336
-1.52271e-05
0.0153371
-1.45432e-05
0.0153404
-1.38242e-05
0.0153435
-1.30724e-05
0.0153464
-1.22909e-05
0.0153491
-1.14831e-05
0.0153515
-1.06531e-05
0.0153538
-9.80586e-06
0.0153558
-8.94672e-06
0.0153576
-8.08182e-06
0.0153592
-7.21796e-06
0.0153606
-6.36262e-06
0.0153618
-5.52387e-06
0.0153628
-4.71039e-06
0.0153635
-3.93133e-06
0.0153641
-3.19626e-06
0.0153645
-2.51492e-06
0.0153648
-1.89732e-06
0.0153649
-1.35301e-06
0.015365
-8.91687e-07
0.0153649
-5.21497e-07
0.0153648
-2.50999e-07
0.0153646
-8.54711e-08
0.0153645
-3.18152e-08
0.0153643
-8.85697e-08
0.0153643
-2.60105e-07
0.0153643
-5.35525e-07
0.0153645
-9.19434e-07
0.0153647
-1.38421e-06
0.0153652
-1.93891e-06
0.0153658
-2.52949e-06
0.0153666
-3.17972e-06
0.0153676
-3.79504e-06
0.0153688
-4.43138e-06
0.0153701
-4.93569e-06
0.0153716
-5.41982e-06
0.0153731
-5.65633e-06
0.0153747
-5.83344e-06
0.0153763
-5.65389e-06
0.0153778
-5.37262e-06
0.0153791
-4.68637e-06
0.0153802
-3.82426e-06
0.0153809
-2.66611e-06
0.0153813
-1.15781e-06
0.0153812
2.33727e-07
0.0153806
2.38007e-06
0.0153797
3.47744e-06
0.015378
6.14706e-06
0.0153763
6.14039e-06
0.0153737
9.10564e-06
0.0153717
6.97253e-06
0.0153688
9.83898e-06
0.0153673
4.61719e-06
0.0153652
6.69226e-06
-1.96777e-06
0.0150017
-2.43576e-05
0.0150064
-2.39363e-05
0.0150109
-2.34656e-05
0.0150153
-2.29451e-05
0.0150196
-2.23741e-05
0.0150238
-2.17522e-05
0.0150278
-2.10796e-05
0.0150317
-2.03563e-05
0.0150354
-1.95834e-05
0.015039
-1.8762e-05
0.0150423
-1.78941e-05
0.0150455
-1.69819e-05
0.0150484
-1.60287e-05
0.0150512
-1.50382e-05
0.0150537
-1.40149e-05
0.015056
-1.29641e-05
0.0150581
-1.18919e-05
0.01506
-1.08054e-05
0.0150616
-9.7123e-06
0.015063
-8.62143e-06
0.0150642
-7.54232e-06
0.0150651
-6.48535e-06
0.0150659
-5.46164e-06
0.0150664
-4.48293e-06
0.0150668
-3.56153e-06
0.015067
-2.70994e-06
0.015067
-1.94103e-06
0.0150669
-1.26709e-06
0.0150668
-7.00586e-07
0.0150665
-2.52073e-07
0.0150662
6.74536e-08
0.0150658
2.50945e-07
0.0150655
2.90026e-07
0.0150652
1.85589e-07
0.015065
-6.60257e-08
0.015065
-4.52501e-07
0.015065
-9.79119e-07
0.0150652
-1.61062e-06
0.0150657
-2.35794e-06
0.0150663
-3.15211e-06
0.0150671
-4.02228e-06
0.0150682
-4.84797e-06
0.0150695
-5.69836e-06
0.0150709
-6.3792e-06
0.0150725
-7.02916e-06
0.0150742
-7.36101e-06
0.015076
-7.60761e-06
0.0150777
-7.39634e-06
0.0150794
-7.0408e-06
0.0150809
-6.16622e-06
0.0150821
-5.04613e-06
0.015083
-3.55075e-06
0.0150834
-1.57766e-06
0.0150834
2.36402e-07
0.0150827
3.04967e-06
0.0150817
4.51076e-06
0.0150798
8.0145e-06
0.0150779
8.08641e-06
0.015075
1.19792e-05
0.0150726
9.35655e-06
0.0150693
1.31173e-05
0.0150674
6.57349e-06
0.0150648
9.29499e-06
-1.61532e-06
0.0147158
-2.90412e-05
0.0147204
-2.85215e-05
0.0147249
-2.79419e-05
0.0147292
-2.73016e-05
0.0147334
-2.66e-05
0.0147375
-2.58366e-05
0.0147415
-2.50113e-05
0.0147452
-2.41247e-05
0.0147488
-2.31778e-05
0.0147522
-2.2172e-05
0.0147555
-2.11098e-05
0.0147585
-1.99941e-05
0.0147613
-1.88288e-05
0.0147638
-1.76185e-05
0.0147662
-1.63688e-05
0.0147683
-1.50863e-05
0.0147702
-1.37785e-05
0.0147719
-1.24541e-05
0.0147733
-1.11228e-05
0.0147744
-9.79535e-06
0.0147754
-8.48366e-06
0.0147761
-7.20055e-06
0.0147766
-5.95982e-06
0.0147769
-4.77602e-06
0.014777
-3.66441e-06
0.0147769
-2.64053e-06
0.0147767
-1.72035e-06
0.0147764
-9.19119e-07
0.0147759
-2.52397e-07
0.0147754
2.66567e-07
0.0147748
6.23888e-07
0.0147743
8.11613e-07
0.0147737
8.18252e-07
0.0147733
6.46204e-07
0.0147729
2.88341e-07
0.0147727
-2.36555e-07
0.0147727
-9.36586e-07
0.0147728
-1.76851e-06
0.0147732
-2.7447e-06
0.0147738
-3.78017e-06
0.0147747
-4.90908e-06
0.0147759
-5.98344e-06
0.0147773
-7.08531e-06
0.0147788
-7.97689e-06
0.0147806
-8.82314e-06
0.0147826
-9.27461e-06
0.0147846
-9.6076e-06
0.0147865
-9.37324e-06
0.0147884
-8.93993e-06
0.0147901
-7.86538e-06
0.0147915
-6.45678e-06
0.0147926
-4.58986e-06
0.0147931
-2.09228e-06
0.0147931
1.96491e-07
0.0147924
3.76836e-06
0.0147913
5.65206e-06
0.0147892
1.01067e-05
0.014787
1.03075e-05
0.0147837
1.5257e-05
0.0147809
1.21673e-05
0.014777
1.69441e-05
0.0147746
9.05512e-06
0.0147714
1.25104e-05
-7.25746e-07
0.0144375
-3.3683e-05
0.014442
-3.30569e-05
0.0144465
-3.23598e-05
0.0144508
-3.15907e-05
0.0144549
-3.07488e-05
0.0144589
-2.98337e-05
0.0144627
-2.88453e-05
0.0144664
-2.77842e-05
0.0144699
-2.66516e-05
0.0144731
-2.54494e-05
0.0144762
-2.41805e-05
0.0144791
-2.28485e-05
0.0144817
-2.1458e-05
0.0144841
-2.00147e-05
0.0144863
-1.85252e-05
0.0144882
-1.69975e-05
0.0144898
-1.54408e-05
0.0144912
-1.38655e-05
0.0144924
-1.22834e-05
0.0144933
-1.07075e-05
0.014494
-9.15207e-06
0.0144944
-7.63278e-06
0.0144946
-6.1663e-06
0.0144946
-4.77026e-06
0.0144944
-3.46321e-06
0.014494
-2.26397e-06
0.0144935
-1.19194e-06
0.0144929
-2.65666e-07
0.0144921
4.96616e-07
0.0144913
1.07566e-06
0.0144905
1.45897e-06
0.0144896
1.6339e-06
0.0144889
1.58873e-06
0.0144882
1.32383e-06
0.0144876
8.31714e-07
0.0144873
1.32088e-07
0.0144871
-7.76591e-07
0.0144872
-1.84949e-06
0.0144876
-3.0981e-06
0.0144882
-4.42024e-06
0.0144891
-5.85479e-06
0.0144904
-7.22414e-06
0.0144919
-8.62269e-06
0.0144937
-9.76641e-06
0.0144957
-1.08459e-05
0.0144979
-1.14465e-05
0.0145002
-1.18867e-05
0.0145024
-1.16401e-05
0.0145046
-1.11239e-05
0.0145066
-9.83486e-06
0.0145082
-8.10251e-06
0.0145095
-5.82104e-06
0.0145101
-2.72595e-06
0.0145102
9.94755e-08
0.0145094
4.5413e-06
0.0145082
6.91947e-06
0.0145058
1.24657e-05
0.0145033
1.28562e-05
0.0144995
1.90183e-05
0.0144962
1.54872e-05
0.0144917
2.14272e-05
0.0144886
1.21632e-05
0.0144846
1.64565e-05
8.02135e-07
0.0141666
-3.82907e-05
0.0141711
-3.75489e-05
0.0141754
-3.67244e-05
0.0141796
-3.58158e-05
0.0141837
-3.48225e-05
0.0141876
-3.37439e-05
0.0141914
-3.25799e-05
0.0141949
-3.13312e-05
0.0141983
-2.99994e-05
0.0142014
-2.85867e-05
0.0142043
-2.70965e-05
0.014207
-2.55331e-05
0.0142094
-2.3902e-05
0.0142116
-2.22098e-05
0.0142136
-2.04647e-05
0.0142153
-1.8676e-05
0.0142167
-1.68545e-05
0.0142178
-1.50128e-05
0.0142187
-1.31648e-05
0.0142193
-1.1326e-05
0.0142197
-9.51352e-06
0.0142198
-7.74583e-06
0.0142197
-6.0429e-06
0.0142193
-4.42577e-06
0.0142188
-2.91657e-06
0.014218
-1.53786e-06
0.0142172
-3.12791e-07
0.0142162
7.37741e-07
0.0142151
1.58646e-06
0.0142139
2.21804e-06
0.0142128
2.61268e-06
0.0142117
2.75671e-06
0.0142106
2.63537e-06
0.0142097
2.24954e-06
0.0142089
1.589e-06
0.0142084
6.77622e-07
0.0142081
-4.8589e-07
0.0142081
-1.84618e-06
0.0142084
-3.41813e-06
0.0142091
-5.08025e-06
0.0142101
-6.87557e-06
0.0142115
-8.59449e-06
0.0142132
-1.03432e-05
0.0142152
-1.17883e-05
0.0142175
-1.31446e-05
0.01422
-1.39296e-05
0.0142226
-1.45017e-05
0.0142252
-1.42546e-05
0.0142277
-1.36517e-05
0.01423
-1.21317e-05
0.014232
-1.00301e-05
0.0142334
-7.28847e-06
0.0142342
-3.50497e-06
0.0142344
-7.22848e-08
0.0142335
5.37195e-06
0.0142321
8.32928e-06
0.0142295
1.51324e-05
0.0142265
1.57852e-05
0.0142222
2.33412e-05
0.0142183
1.94009e-05
0.0142131
2.66739e-05
0.0142092
1.60017e-05
0.0142044
2.12532e-05
3.07303e-06
0.0139027
-4.28715e-05
0.0139071
-4.20035e-05
0.0139115
-4.10402e-05
0.0139156
-3.99803e-05
0.0139196
-3.88228e-05
0.0139234
-3.75672e-05
0.0139271
-3.62134e-05
0.0139305
-3.47623e-05
0.0139337
-3.32157e-05
0.0139367
-3.15763e-05
0.0139395
-2.98479e-05
0.013942
-2.80358e-05
0.0139442
-2.61463e-05
0.0139462
-2.41873e-05
0.0139479
-2.21682e-05
0.0139493
-2.01e-05
0.0139505
-1.79955e-05
0.0139513
-1.58694e-05
0.0139519
-1.37379e-05
0.0139522
-1.16195e-05
0.0139522
-9.53407e-06
0.013952
-7.50359e-06
0.0139515
-5.55149e-06
0.0139507
-3.70261e-06
0.0139498
-1.98302e-06
0.0139487
-4.1922e-07
0.0139474
9.61669e-07
0.013946
2.13011e-06
0.0139445
3.06232e-06
0.013943
3.73574e-06
0.0139415
4.12604e-06
0.0139401
4.21808e-06
0.0139387
3.99345e-06
0.0139375
3.45406e-06
0.0139365
2.58666e-06
0.0139358
1.41985e-06
0.0139353
-4.99242e-08
0.0139352
-1.75115e-06
0.0139355
-3.70546e-06
0.0139362
-5.76926e-06
0.0139373
-7.98933e-06
0.0139388
-1.01212e-05
0.0139408
-1.22821e-05
0.0139431
-1.40856e-05
0.0139457
-1.57701e-05
0.0139486
-1.6781e-05
0.0139516
-1.7513e-05
0.0139546
-1.72812e-05
0.0139575
-1.65858e-05
0.0139602
-1.48148e-05
0.0139625
-1.22953e-05
0.0139642
-9.0362e-06
0.0139652
-4.4648e-06
0.0139654
-3.34802e-07
0.0139646
6.2602e-06
0.013963
9.89634e-06
0.01396
1.81474e-05
0.0139566
1.91473e-05
0.0139516
2.83055e-05
0.0139471
2.39938e-05
0.0139409
3.2795e-05
0.0139363
2.06771e-05
0.0139305
2.70241e-05
6.19635e-06
0.0136456
-4.74323e-05
0.0136501
-4.64263e-05
0.0136543
-4.53117e-05
0.0136584
-4.40871e-05
0.0136624
-4.27513e-05
0.0136661
-4.13036e-05
0.0136696
-3.97442e-05
0.0136729
-3.8074e-05
0.013676
-3.62951e-05
0.0136789
-3.44107e-05
0.0136814
-3.24253e-05
0.0136837
-3.03449e-05
0.0136858
-2.8177e-05
0.0136875
-2.59305e-05
0.013689
-2.36166e-05
0.0136901
-2.1248e-05
0.013691
-1.88396e-05
0.0136915
-1.64084e-05
0.0136917
-1.39734e-05
0.0136917
-1.15561e-05
0.0136913
-9.17965e-06
0.0136907
-6.8697e-06
0.0136898
-4.65363e-06
0.0136886
-2.56039e-06
0.0136873
-6.20368e-07
0.0136857
1.13553e-06
0.013684
2.67097e-06
0.0136822
3.95898e-06
0.0136803
4.96822e-06
0.0136783
5.67156e-06
0.0136764
6.04012e-06
0.0136746
6.05662e-06
0.0136729
5.69899e-06
0.0136714
4.96852e-06
0.0136701
3.85184e-06
0.0136691
2.37997e-06
0.0136685
5.45783e-07
0.0136684
-1.55783e-06
0.0136686
-3.96173e-06
0.0136693
-6.49769e-06
0.0136706
-9.21562e-06
0.0136723
-1.18331e-05
0.0136745
-1.44779e-05
0.0136771
-1.67054e-05
0.0136801
-1.87772e-05
0.0136834
-2.00614e-05
0.0136869
-2.09873e-05
0.0136904
-2.07886e-05
0.0136938
-1.99939e-05
0.0136969
-1.79523e-05
0.0136996
-1.49548e-05
0.0137016
-1.11157e-05
0.0137028
-5.63966e-06
0.0137032
-7.13593e-07
0.0137023
7.20589e-06
0.0137005
1.16347e-05
0.0136971
2.15513e-05
0.0136933
2.29961e-05
0.0136876
3.39935e-05
0.0136822
2.9355e-05
0.0136751
3.99034e-05
0.0136695
2.63008e-05
0.0136626
3.38966e-05
1.0287e-05
0.0133952
-5.19798e-05
0.0133996
-5.0823e-05
0.0134038
-4.95433e-05
0.0134079
-4.81392e-05
0.0134117
-4.66093e-05
0.0134154
-4.49531e-05
0.0134188
-4.31704e-05
0.013422
-4.12626e-05
0.0134249
-3.9232e-05
0.0134276
-3.70824e-05
0.01343
-3.4819e-05
0.0134321
-3.24485e-05
0.0134339
-2.99797e-05
0.0134354
-2.74229e-05
0.0134366
-2.47909e-05
0.0134374
-2.20984e-05
0.0134379
-1.93626e-05
0.0134381
-1.66031e-05
0.013438
-1.3842e-05
0.0134375
-1.11038e-05
0.0134368
-8.41577e-06
0.0134357
-5.80733e-06
0.0134344
-3.3103e-06
0.0134328
-9.58191e-07
0.0134309
1.2159e-06
0.0134289
3.16583e-06
0.0134267
4.86247e-06
0.0134244
6.2694e-06
0.013422
7.34897e-06
0.0134196
8.06975e-06
0.0134173
8.39733e-06
0.013415
8.31205e-06
0.0134129
7.78852e-06
0.0134111
6.8272e-06
0.0134095
5.41104e-06
0.0134083
3.57821e-06
0.0134075
1.31859e-06
0.0134072
-1.26068e-06
0.0134075
-4.18935e-06
0.0134082
-7.27704e-06
0.0134096
-1.05759e-05
0.0134115
-1.37617e-05
0.013414
-1.69716e-05
0.013417
-1.96988e-05
0.0134205
-2.22253e-05
0.0134242
-2.38377e-05
0.0134283
-2.4996e-05
0.0134323
-2.48517e-05
0.0134363
-2.39519e-05
0.0134399
-2.16138e-05
0.0134431
-1.8075e-05
0.0134455
-1.35835e-05
0.013447
-7.06916e-06
0.0134475
-1.23528e-06
0.0134465
8.20601e-06
0.0134446
1.35572e-05
0.0134407
2.53855e-05
0.0134363
2.73871e-05
0.0134298
4.04891e-05
0.0134236
3.55772e-05
0.0134154
4.81165e-05
0.0134087
3.29889e-05
0.0134006
4.20031e-05
1.54657e-05
0.0131511
-5.65206e-05
0.0131555
-5.51989e-05
0.0131597
-5.37391e-05
0.0131637
-5.21394e-05
0.0131675
-5.03985e-05
0.013171
-4.85154e-05
0.0131744
-4.64904e-05
0.0131774
-4.43247e-05
0.0131802
-4.20212e-05
0.0131827
-3.95841e-05
0.0131849
-3.70193e-05
0.0131868
-3.43348e-05
0.0131884
-3.15403e-05
0.0131896
-2.86479e-05
0.0131905
-2.56719e-05
0.013191
-2.26294e-05
0.0131912
-1.95401e-05
0.013191
-1.64264e-05
0.0131905
-1.33138e-05
0.0131896
-1.02303e-05
0.0131884
-7.20739e-06
0.0131869
-4.2788e-06
0.013185
-1.48117e-06
0.0131829
1.14927e-06
0.0131806
3.5609e-06
0.013178
5.72016e-06
0.0131753
7.58302e-06
0.0131725
9.10805e-06
0.0131696
1.02509e-05
0.0131667
1.09754e-05
0.0131638
1.12421e-05
0.0131611
1.10273e-05
0.0131586
1.03003e-05
0.0131564
9.06248e-06
0.0131545
7.29458e-06
0.013153
5.03759e-06
0.0131521
2.28096e-06
0.0131516
-8.52331e-07
0.0131518
-4.39057e-06
0.0131527
-8.11976e-06
0.0131542
-1.20932e-05
0.0131564
-1.59409e-05
0.0131592
-1.9808e-05
0.0131626
-2.31205e-05
0.0131666
-2.61785e-05
0.0131709
-2.8182e-05
0.0131756
-2.96176e-05
0.0131803
-2.95517e-05
0.0131848
-2.85398e-05
0.0131891
-2.58813e-05
0.0131928
-2.17251e-05
0.0131957
-1.64996e-05
0.0131974
-8.79883e-06
0.0131981
-1.92973e-06
0.0131971
9.25556e-06
0.0131949
1.56762e-05
0.0131906
2.9692e-05
0.0131856
3.23782e-05
0.0131783
4.78797e-05
0.0131711
4.27579e-05
0.0131616
5.75561e-05
0.0131538
4.08632e-05
0.0131443
5.14816e-05
2.18594e-05
0.0129132
-6.10611e-05
0.0129176
-5.95594e-05
0.0129218
-5.79033e-05
0.0129257
-5.60908e-05
0.0129294
-5.41202e-05
0.0129329
-5.19906e-05
0.0129361
-4.97023e-05
0.0129391
-4.72567e-05
0.0129417
-4.46571e-05
0.012944
-4.19082e-05
0.012946
-3.90169e-05
0.0129477
-3.5992e-05
0.012949
-3.28447e-05
0.0129499
-2.95887e-05
0.0129505
-2.62404e-05
0.0129507
-2.28192e-05
0.0129505
-1.93475e-05
0.0129499
-1.5851e-05
0.012949
-1.23586e-05
0.0129476
-8.90268e-06
0.0129459
-5.51894e-06
0.0129439
-2.24556e-06
0.0129416
8.7884e-07
0.0129389
3.79432e-06
0.012936
6.46586e-06
0.0129329
8.84499e-06
0.0129296
1.08803e-05
0.0129262
1.25223e-05
0.0129227
1.37223e-05
0.0129192
1.44367e-05
0.0129159
1.46202e-05
0.0129126
1.42447e-05
0.0129097
1.32749e-05
0.012907
1.17113e-05
0.0129048
9.53106e-06
0.012903
6.78226e-06
0.0129019
3.45024e-06
0.0129013
-3.26975e-07
0.0129015
-4.56808e-06
0.0129024
-9.03926e-06
0.0129041
-1.37922e-05
0.0129066
-1.8407e-05
0.0129098
-2.30353e-05
0.0129137
-2.70297e-05
0.0129183
-3.07061e-05
0.0129233
-3.3173e-05
0.0129286
-3.49359e-05
0.012934
-3.49776e-05
0.0129393
-3.3847e-05
0.0129443
-3.08389e-05
0.0129485
-2.5983e-05
0.012952
-1.99338e-05
0.012954
-1.08772e-05
0.0129549
-2.83084e-06
0.0129538
1.0348e-05
0.0129515
1.80038e-05
0.0129467
3.45141e-05
0.012941
3.80296e-05
0.0129327
5.62568e-05
0.0129244
5.09983e-05
0.0129136
6.83497e-05
0.0129044
5.00516e-05
0.0128934
6.24753e-05
2.96015e-05
0.0126814
-6.56078e-05
0.0126857
-6.39101e-05
0.0126898
-6.20403e-05
0.0126938
-5.99962e-05
0.0126974
-5.77761e-05
0.0127008
-5.53788e-05
0.0127039
-5.28047e-05
0.0127067
-5.00555e-05
0.0127092
-4.71346e-05
0.0127113
-4.40477e-05
0.0127131
-4.08023e-05
0.0127145
-3.74085e-05
0.0127156
-3.38788e-05
0.0127162
-3.02288e-05
0.0127164
-2.64772e-05
0.0127163
-2.26457e-05
0.0127157
-1.87599e-05
0.0127147
-1.48489e-05
0.0127133
-1.09458e-05
0.0127114
-7.08736e-06
0.0127092
-3.31436e-06
0.0127067
3.38513e-07
0.0127037
3.79666e-06
0.0127005
7.02826e-06
0.012697
9.97803e-06
0.0126932
1.25888e-05
0.0126893
1.48027e-05
0.0126853
1.65631e-05
0.0126812
1.78133e-05
0.0126771
1.85029e-05
0.0126732
1.85796e-05
0.0126694
1.80104e-05
0.0126659
1.67545e-05
0.0126628
1.4811e-05
0.0126602
1.21535e-05
0.0126581
8.83561e-06
0.0126567
4.84499e-06
0.0126561
3.20822e-07
0.0126563
-4.72349e-06
0.0126573
-1.00496e-05
0.0126592
-1.56996e-05
0.012662
-2.11989e-05
0.0126656
-2.67049e-05
0.0126701
-3.14901e-05
0.0126753
-3.58831e-05
0.012681
-3.88948e-05
0.0126871
-4.10427e-05
0.0126933
-4.12264e-05
0.0126995
-3.99692e-05
0.0127052
-3.65809e-05
0.0127102
-3.09339e-05
0.0127142
-2.39597e-05
0.0127167
-1.33588e-05
0.0127178
-3.97578e-06
0.0127167
1.14748e-05
0.0127141
2.05516e-05
0.0127088
3.9897e-05
0.0127024
4.44053e-05
0.0126929
6.57161e-05
0.0126835
6.04061e-05
0.0126712
8.06294e-05
0.0126606
6.06887e-05
0.0126479
7.51331e-05
3.88315e-05
0.0124553
-7.01674e-05
0.0124596
-6.82563e-05
0.0124637
-6.61543e-05
0.0124676
-6.38589e-05
0.0124712
-6.13679e-05
0.0124745
-5.86804e-05
0.0124775
-5.57963e-05
0.0124802
-5.27178e-05
0.0124825
-4.94488e-05
0.0124844
-4.59955e-05
0.012486
-4.23664e-05
0.0124871
-3.85727e-05
0.0124879
-3.46287e-05
0.0124882
-3.05518e-05
0.0124881
-2.63629e-05
0.0124875
-2.20868e-05
0.0124865
-1.77522e-05
0.0124851
-1.33922e-05
0.0124832
-9.04388e-06
0.0124808
-4.74888e-06
0.0124781
-5.51295e-07
0.0124749
3.49439e-06
0.0124714
7.32661e-06
0.0124675
1.08981e-05
0.0124634
1.41443e-05
0.0124589
1.7001e-05
0.0124543
1.94018e-05
0.0124496
2.12823e-05
0.0124449
2.25762e-05
0.0124401
2.32258e-05
0.0124355
2.3171e-05
0.0124312
2.23728e-05
0.0124272
2.07837e-05
0.0124236
1.84011e-05
0.0124205
1.51957e-05
0.0124181
1.12255e-05
0.0124165
6.47763e-06
0.0124157
1.11017e-06
0.0124159
-4.86322e-06
0.012417
-1.11664e-05
0.0124191
-1.7843e-05
0.0124223
-2.43581e-05
0.0124264
-3.08717e-05
0.0124315
-3.657e-05
0.0124374
-4.17901e-05
0.012444
-4.54387e-05
0.012451
-4.80369e-05
0.0124581
-4.84019e-05
0.0124652
-4.70113e-05
0.0124718
-4.32107e-05
0.0124775
-3.66695e-05
0.0124822
-2.86585e-05
0.0124852
-1.63035e-05
0.0124866
-5.4051e-06
0.0124855
1.26258e-05
0.0124827
2.33317e-05
0.0124767
4.58881e-05
0.0124695
5.15728e-05
0.0124589
7.63577e-05
0.0124482
7.10946e-05
0.0124343
9.4534e-05
0.0124221
7.29144e-05
0.0124076
8.96102e-05
4.96945e-05
0.0122348
-7.47465e-05
0.0122392
-7.2604e-05
0.0122433
-7.02502e-05
0.0122471
-6.76822e-05
0.0122506
-6.48979e-05
0.0122539
-6.18958e-05
0.0122567
-5.86761e-05
0.0122593
-5.52411e-05
0.0122614
-5.15951e-05
0.0122632
-4.7745e-05
0.0122645
-4.37003e-05
0.0122654
-3.94736e-05
0.0122658
-3.50807e-05
0.0122658
-3.05411e-05
0.0122653
-2.58785e-05
0.0122644
-2.11206e-05
0.0122629
-1.62996e-05
0.012261
-1.14526e-05
0.0122586
-6.62153e-06
0.0122557
-1.8527e-06
0.0122523
2.80128e-06
0.0122485
7.27347e-06
0.0122444
1.15117e-05
0.0122398
1.54488e-05
0.0122349
1.90137e-05
0.0122298
2.21329e-05
0.0122245
2.4731e-05
0.012219
2.6734e-05
0.0122135
2.8066e-05
0.0122081
2.86601e-05
0.0122028
2.84476e-05
0.0121978
2.73822e-05
0.0121932
2.54098e-05
0.0121891
2.25249e-05
0.0121856
1.8694e-05
0.0121828
1.39813e-05
0.0121809
8.37226e-06
0.01218
2.04231e-06
0.0121801
-4.98607e-06
0.0121813
-1.2404e-05
0.0121837
-2.02515e-05
0.0121873
-2.7928e-05
0.012192
-3.55942e-05
0.0121978
-4.23424e-05
0.0122045
-4.85131e-05
0.012212
-5.29029e-05
0.01222
-5.60252e-05
0.0122282
-5.66171e-05
0.0122363
-5.50871e-05
0.0122439
-5.08394e-05
0.0122505
-4.32893e-05
0.012256
-3.41195e-05
0.0122595
-1.97752e-05
0.0122612
-7.16387e-06
0.0122601
1.37897e-05
0.012257
2.63568e-05
0.0122504
5.2537e-05
0.0122423
5.96042e-05
0.0122304
8.82873e-05
0.0122183
8.31841e-05
0.0122027
0.000110208
0.0121887
8.68756e-05
0.0121722
0.000106067
6.23415e-05
0.0120199
-7.93522e-05
0.0120242
-7.6959e-05
0.0120283
-7.43326e-05
0.0120321
-7.14699e-05
0.0120356
-6.83682e-05
0.0120387
-6.5026e-05
0.0120415
-6.14435e-05
0.0120438
-5.76229e-05
0.0120458
-5.35692e-05
0.0120474
-4.92899e-05
0.0120485
-4.47956e-05
0.0120491
-4.01002e-05
0.0120492
-3.52213e-05
0.0120489
-3.01809e-05
0.012048
-2.50051e-05
0.0120466
-1.9725e-05
0.0120447
-1.43768e-05
0.0120422
-9.00214e-06
0.0120392
-3.6472e-06
0.0120358
1.63894e-06
0.0120318
6.77697e-06
0.0120273
1.17204e-05
0.0120224
1.63967e-05
0.0120172
2.07288e-05
0.0120115
2.46371e-05
0.0120056
2.80379e-05
0.0119995
3.08454e-05
0.0119933
3.2975e-05
0.011987
3.43398e-05
0.0119808
3.4863e-05
0.0119748
3.44651e-05
0.0119691
3.3093e-05
0.0119638
3.06829e-05
0.0119591
2.72281e-05
0.0119551
2.26873e-05
0.011952
1.71339e-05
0.0119498
1.05492e-05
0.0119487
3.13261e-06
0.0119488
-5.09517e-06
0.0119502
-1.37778e-05
0.0119529
-2.29551e-05
0.0119569
-3.19545e-05
0.0119622
-4.09341e-05
0.0119688
-4.8885e-05
0.0119764
-5.61441e-05
0.0119849
-6.13928e-05
0.011994
-6.51226e-05
0.0120034
-6.5995e-05
0.0120126
-6.43184e-05
0.0120214
-5.95881e-05
0.012029
-5.09024e-05
0.0120353
-4.04383e-05
0.0120394
-2.38446e-05
0.0120415
-9.30064e-06
0.0120403
1.49538e-05
0.0120371
2.96407e-05
0.0120297
5.98968e-05
0.0120207
6.85761e-05
0.0120074
0.000101617
0.0119938
9.68008e-05
0.0119762
0.0001278
0.0119603
0.000102726
0.0119417
0.00012467
7.69283e-05
0.0118102
-8.39915e-05
0.0118146
-8.13276e-05
0.0118186
-7.8407e-05
0.0118224
-7.52261e-05
0.0118258
-7.17819e-05
0.0118289
-6.80726e-05
0.0118315
-6.40983e-05
0.0118338
-5.98615e-05
0.0118355
-5.53674e-05
0.0118369
-5.06245e-05
0.0118377
-4.56443e-05
0.0118381
-4.04422e-05
0.0118379
-3.50378e-05
0.0118372
-2.94553e-05
0.0118359
-2.37239e-05
0.011834
-1.78782e-05
0.0118316
-1.19589e-05
0.0118286
-6.01179e-06
0.0118251
-8.26405e-08
0.011821
5.74618e-06
0.0118163
1.14234e-05
0.0118112
1.68777e-05
0.0118055
2.20279e-05
0.0117995
2.67878e-05
0.011793
3.10669e-05
0.0117863
3.47712e-05
0.0117793
3.78025e-05
0.0117723
4.00643e-05
0.0117651
4.14575e-05
0.0117581
4.18941e-05
0.0117513
4.12829e-05
0.0117448
3.95617e-05
0.0117388
3.66567e-05
0.0117335
3.25585e-05
0.011729
2.72188e-05
0.0117254
2.07172e-05
0.0117229
1.30341e-05
0.0117217
4.39127e-06
0.0117218
-5.18966e-06
0.0117233
-1.53024e-05
0.0117263
-2.59846e-05
0.0117308
-3.64852e-05
0.0117369
-4.69564e-05
0.0117443
-5.62795e-05
0.0117529
-6.47815e-05
0.0117625
-7.10212e-05
0.0117728
-7.54523e-05
0.0117835
-7.66671e-05
0.011794
-7.48374e-05
0.011804
-6.95876e-05
0.0118128
-5.96258e-05
0.01182
-4.7719e-05
0.0118248
-2.85882e-05
0.0118274
-1.18663e-05
0.0118262
1.61037e-05
0.0118226
3.31985e-05
0.0118145
6.80238e-05
0.0118045
7.85714e-05
0.0117897
0.000116463
0.0117744
0.000112079
0.0117547
0.00014747
0.0117368
0.000120626
0.0117159
0.000145588
9.36147e-05
0.0116057
-8.8672e-05
0.0116101
-8.57164e-05
0.0116141
-8.24789e-05
0.0116179
-7.89553e-05
0.0116212
-7.51422e-05
0.0116242
-7.10374e-05
0.0116267
-6.6641e-05
0.0116288
-6.19555e-05
0.0116304
-5.69868e-05
0.0116316
-5.17437e-05
0.0116322
-4.62391e-05
0.0116322
-4.049e-05
0.0116317
-3.45178e-05
0.0116306
-2.83493e-05
0.0116289
-2.20169e-05
0.0116266
-1.55588e-05
0.0116236
-9.01973e-06
0.0116201
-2.44999e-06
0.0116159
4.08798e-06
0.0116111
1.05182e-05
0.0116058
1.67799e-05
0.0115998
2.27878e-05
0.0115934
2.8452e-05
0.0115865
3.36762e-05
0.0115792
3.83575e-05
0.0115716
4.23899e-05
0.0115638
4.56618e-05
0.0115558
4.80635e-05
0.0115477
4.9482e-05
0.0115398
4.98168e-05
0.0115321
4.89629e-05
0.0115249
4.68483e-05
0.0115181
4.33883e-05
0.0115121
3.85683e-05
0.011507
3.23329e-05
0.0115029
2.47702e-05
0.0115001
1.58528e-05
0.0114987
5.83282e-06
0.0114988
-5.2681e-06
0.0115005
-1.6992e-05
0.0115038
-2.93711e-05
0.0115089
-4.15694e-05
0.0115157
-5.3729e-05
0.011524
-6.46132e-05
0.0115338
-7.45289e-05
0.0115447
-8.19087e-05
0.0115564
-8.71467e-05
0.0115685
-8.8775e-05
0.0115804
-8.6787e-05
0.0115918
-8.09789e-05
0.0116018
-6.95863e-05
0.0116101
-5.60739e-05
0.0116156
-3.4086e-05
0.0116187
-1.49208e-05
0.0116176
1.72266e-05
0.0116137
3.70474e-05
0.0116047
7.69785e-05
0.0115936
8.9679e-05
0.0115772
0.00013295
0.0115601
0.00012916
0.0115382
0.000169378
0.011518
0.000140741
0.0114946
0.000168997
0.000112564
0.0114062
-9.34014e-05
0.0114106
-9.01325e-05
0.0114146
-8.65544e-05
0.0114184
-8.26626e-05
0.0114217
-7.84529e-05
0.0114246
-7.3923e-05
0.011427
-6.90727e-05
0.0114289
-6.39045e-05
0.0114304
-5.84248e-05
0.0114313
-5.26432e-05
0.0114316
-4.65735e-05
0.0114313
-4.02344e-05
0.0114305
-3.36495e-05
0.011429
-2.68482e-05
0.0114268
-1.98662e-05
0.011424
-1.27463e-05
0.0114205
-5.53714e-06
0.0114164
1.71061e-06
0.0114116
8.90249e-06
0.0114061
1.59901e-05
0.0114
2.28849e-05
0.0113933
2.94944e-05
0.011386
3.57174e-05
0.0113782
4.14461e-05
0.01137
4.65645e-05
0.0113615
5.09529e-05
0.0113526
5.4485e-05
0.0113437
5.70365e-05
0.0113347
5.84785e-05
0.0113258
5.86967e-05
0.0113172
5.75705e-05
0.011309
5.50168e-05
0.0113015
5.09373e-05
0.0112947
4.53132e-05
0.011289
3.80794e-05
0.0112844
2.93305e-05
0.0112812
1.90375e-05
0.0112796
7.4751e-06
0.0112797
-5.32769e-06
0.0112815
-1.88597e-05
0.0112853
-3.31461e-05
0.011291
-4.72578e-05
0.0112986
-6.13227e-05
0.0113079
-7.39771e-05
0.0113189
-8.54969e-05
0.0113312
-9.41834e-05
0.0113444
-0.000100346
0.0113581
-0.000102471
0.0113716
-0.00010032
0.0113845
-9.39147e-05
0.0113959
-8.09198e-05
0.0114054
-6.56241e-05
0.0114118
-4.04293e-05
0.0114154
-1.85176e-05
0.0114143
1.83052e-05
0.0114101
4.12075e-05
0.0114003
8.68259e-05
0.011388
0.000101995
0.0113697
0.000151209
0.0113507
0.000148194
0.0113264
0.000193694
0.0113039
0.000163243
0.0112778
0.000195076
0.000133943
0.0112115
-9.81881e-05
0.0112159
-9.45832e-05
0.01122
-9.06401e-05
0.0112237
-8.63535e-05
0.011227
-8.17187e-05
0.0112298
-7.67328e-05
0.0112321
-7.13952e-05
0.0112339
-6.57088e-05
0.0112352
-5.96801e-05
0.0112358
-5.33194e-05
0.0112359
-4.66418e-05
0.0112353
-3.96675e-05
0.0112341
-3.24223e-05
0.0112322
-2.49385e-05
0.0112296
-1.72552e-05
0.0112263
-9.41863e-06
0.0112222
-1.48086e-06
0.0112174
6.48187e-06
0.0112119
1.43997e-05
0.0112057
2.21978e-05
0.0111988
2.97797e-05
0.0111913
3.70422e-05
0.0111831
4.38729e-05
0.0111744
5.01505e-05
0.0111653
5.5745e-05
0.0111557
6.0521e-05
0.0111458
6.43361e-05
0.0111358
6.70496e-05