/*--------------------------------*- C++ -*----------------------------------*\
  =========                 |
  \\      /  F ield         | OpenFOAM: The Open Source CFD Toolbox
   \\    /   O peration     | Website:  https://openfoam.org
    \\  /    A nd           | Version:  7
     \\/     M anipulation  |
\*---------------------------------------------------------------------------*/
FoamFile
{
    version     2.0;
    format      ascii;
    class       volVectorField;
    location    "104.00005";
    object      U;
}
// * * * * * * * * * * * * * * * * * * * * * * * * * * * * * * * * * * * * * //

dimensions      [0 1 -1 0 0 0 0];

internalField   nonuniform List<vector> 
5800
(
(-0.107339 -0.0581486 -8.49502e-21)
(-0.141268 -0.0625877 -4.25671e-21)
(-0.167314 -0.0650009 2.39155e-20)
(-0.184401 -0.0655228 -9.57233e-21)
(-0.19146 -0.0644288 1.13129e-21)
(1.03693 -0.000428818 0)
(1.03725 -0.000413367 0)
(1.03756 -0.000397603 0)
(1.03787 -0.000381547 0)
(1.03817 -0.00036522 0)
(1.03846 -0.000348645 0)
(1.03875 -0.00033185 0)
(1.03902 -0.000314867 0)
(1.03929 -0.000297733 0)
(1.03955 -0.00028049 0)
(1.0398 -0.000263187 0)
(1.04003 -0.000245873 0)
(1.04026 -0.000228607 0)
(1.04047 -0.000211448 0)
(1.04067 -0.000194464 0)
(1.04086 -0.000177723 0)
(1.04103 -0.000161301 0)
(1.04119 -0.000145275 0)
(1.04134 -0.000129727 0)
(1.04147 -0.000114739 0)
(1.04159 -0.000100398 0)
(1.0417 -8.67884e-05 0)
(1.04179 -7.39962e-05 0)
(1.04187 -6.21046e-05 0)
(1.04193 -5.11944e-05 0)
(1.04199 -4.13395e-05 0)
(1.04204 -3.26097e-05 0)
(1.04207 -2.50608e-05 0)
(1.0421 -1.8745e-05 0)
(1.04212 -1.36881e-05 0)
(1.04213 -9.91832e-06 0)
(1.04215 -7.41546e-06 0)
(1.04215 -6.18182e-06 0)
(1.04216 -6.13006e-06 0)
(1.04217 -7.24447e-06 0)
(1.04218 -9.33864e-06 0)
(1.0422 -1.24056e-05 0)
(1.04222 -1.61109e-05 0)
(1.04225 -2.05118e-05 0)
(1.04229 -2.50523e-05 0)
(1.04233 -2.99546e-05 0)
(1.04239 -3.43392e-05 0)
(1.04245 -3.87433e-05 0)
(1.04252 -4.18466e-05 0)
(1.0426 -4.46755e-05 0)
(1.04269 -4.53911e-05 0)
(1.04276 -4.56202e-05 0)
(1.04287 -4.31108e-05 0)
(1.04293 -3.99126e-05 0)
(1.04304 -3.39432e-05 0)
(1.04305 -2.68414e-05 0)
(1.04316 -1.81797e-05 0)
(1.04311 -7.15957e-06 0)
(1.04321 2.04156e-06 0)
(1.04307 1.64755e-05 0)
(1.04317 2.25261e-05 0)
(1.04293 3.9371e-05 0)
(1.04303 3.71712e-05 0)
(1.04271 5.48968e-05 0)
(1.0428 3.88654e-05 0)
(1.04247 5.52324e-05 0)
(1.04256 2.10534e-05 0)
(1.04232 3.25372e-05 0)
(1.04241 -1.96578e-05 0)
(1.03712 -0.00126925 0)
(1.03744 -0.00122411 0)
(1.03775 -0.00117793 0)
(1.03806 -0.00113076 0)
(1.03836 -0.00108269 0)
(1.03866 -0.00103379 0)
(1.03894 -0.000984161 0)
(1.03922 -0.000933902 0)
(1.03949 -0.000883133 0)
(1.03974 -0.000831986 0)
(1.03999 -0.000780608 0)
(1.04022 -0.000729158 0)
(1.04045 -0.00067781 0)
(1.04066 -0.000626753 0)
(1.04086 -0.000576186 0)
(1.04104 -0.000526325 0)
(1.04121 -0.000477395 0)
(1.04137 -0.000429632 0)
(1.04151 -0.000383284 0)
(1.04164 -0.000338603 0)
(1.04176 -0.000295848 0)
(1.04186 -0.000255278 0)
(1.04195 -0.000217152 0)
(1.04203 -0.000181722 0)
(1.04209 -0.000149233 0)
(1.04214 -0.000119908 0)
(1.04219 -9.39569e-05 0)
(1.04222 -7.15508e-05 0)
(1.04224 -5.28455e-05 0)
(1.04226 -3.79214e-05 0)
(1.04227 -2.68622e-05 0)
(1.04228 -1.96119e-05 0)
(1.04228 -1.61745e-05 0)
(1.04229 -1.629e-05 0)
(1.04229 -1.9906e-05 0)
(1.0423 -2.64675e-05 0)
(1.04232 -3.59467e-05 0)
(1.04234 -4.73442e-05 0)
(1.04236 -6.08237e-05 0)
(1.0424 -7.47181e-05 0)
(1.04245 -8.9689e-05 0)
(1.0425 -0.000103089 0)
(1.04257 -0.000116541 0)
(1.04265 -0.000126041 0)
(1.04272 -0.000134733 0)
(1.04282 -0.00013698 0)
(1.04289 -0.00013783 0)
(1.043 -0.000130257 0)
(1.04306 -0.000120801 0)
(1.04318 -0.000102655 0)
(1.0432 -8.14923e-05 0)
(1.04331 -5.50307e-05 0)
(1.04326 -2.21604e-05 0)
(1.04336 6.21394e-06 0)
(1.04322 4.92661e-05 0)
(1.04332 6.84135e-05 0)
(1.04308 0.000118593 0)
(1.04317 0.000113196 0)
(1.04284 0.000165925 0)
(1.04293 0.000119065 0)
(1.04259 0.000167741 0)
(1.04267 6.62834e-05 0)
(1.04243 0.000100386 0)
(1.04251 -5.58429e-05 0)
(1.0375 -0.00210118 0)
(1.03782 -0.00202596 0)
(1.03813 -0.00194896 0)
(1.03844 -0.00187032 0)
(1.03874 -0.00179016 0)
(1.03904 -0.00170863 0)
(1.03932 -0.00162589 0)
(1.0396 -0.0015421 0)
(1.03986 -0.00145747 0)
(1.04012 -0.00137223 0)
(1.04036 -0.00128661 0)
(1.0406 -0.00120089 0)
(1.04082 -0.00111535 0)
(1.04103 -0.00103032 0)
(1.04122 -0.00094612 0)
(1.0414 -0.00086312 0)
(1.04157 -0.000781694 0)
(1.04172 -0.000702238 0)
(1.04186 -0.000625165 0)
(1.04198 -0.000550899 0)
(1.04209 -0.000479873 0)
(1.04219 -0.000412521 0)
(1.04227 -0.000349278 0)
(1.04234 -0.000290567 0)
(1.0424 -0.000236795 0)
(1.04244 -0.000188341 0)
(1.04248 -0.000145556 0)
(1.0425 -0.000108727 0)
(1.04252 -7.81154e-05 0)
(1.04253 -5.38575e-05 0)
(1.04253 -3.60924e-05 0)
(1.04253 -2.47288e-05 0)
(1.04253 -1.97693e-05 0)
(1.04253 -2.07805e-05 0)
(1.04253 -2.76649e-05 0)
(1.04254 -3.94982e-05 0)
(1.04255 -5.62206e-05 0)
(1.04256 -7.61626e-05 0)
(1.04259 -9.95786e-05 0)
(1.04263 -0.000123679 0)
(1.04267 -0.00014955 0)
(1.04273 -0.000172749 0)
(1.0428 -0.000195987 0)
(1.04288 -0.00021252 0)
(1.04296 -0.000227641 0)
(1.04307 -0.000231811 0)
(1.04315 -0.000233602 0)
(1.04327 -0.000221026 0)
(1.04333 -0.000205329 0)
(1.04345 -0.000174652 0)
(1.04348 -0.000139117 0)
(1.0436 -9.40457e-05 0)
(1.04355 -3.87264e-05 0)
(1.04366 1.00235e-05 0)
(1.04351 8.25178e-05 0)
(1.04361 0.000116262 0)
(1.04336 0.00020072 0)
(1.04344 0.0001937 0)
(1.0431 0.000282377 0)
(1.04318 0.000206018 0)
(1.04282 0.000287843 0)
(1.04289 0.000119824 0)
(1.04263 0.000177114 0)
(1.04268 -8.31695e-05 0)
(1.03805 -0.00291833 0)
(1.03837 -0.00281286 0)
(1.03869 -0.00270491 0)
(1.039 -0.00259466 0)
(1.0393 -0.00248228 0)
(1.03959 -0.00236798 0)
(1.03988 -0.00225198 0)
(1.04015 -0.00213452 0)
(1.04042 -0.00201589 0)
(1.04067 -0.00189639 0)
(1.04091 -0.00177639 0)
(1.04114 -0.00165625 0)
(1.04136 -0.00153638 0)
(1.04156 -0.00141724 0)
(1.04175 -0.00129929 0)
(1.04193 -0.00118305 0)
(1.04209 -0.00106905 0)
(1.04223 -0.000957845 0)
(1.04236 -0.000850026 0)
(1.04248 -0.000746193 0)
(1.04258 -0.000646959 0)
(1.04267 -0.000552942 0)
(1.04274 -0.000464758 0)
(1.0428 -0.000383008 0)
(1.04285 -0.000308273 0)
(1.04288 -0.000241087 0)
(1.0429 -0.000181954 0)
(1.04292 -0.000131281 0)
(1.04292 -8.94392e-05 0)
(1.04292 -5.66265e-05 0)
(1.04291 -3.30393e-05 0)
(1.0429 -1.85508e-05 0)
(1.04289 -1.31596e-05 0)
(1.04288 -1.62596e-05 0)
(1.04288 -2.76901e-05 0)
(1.04287 -4.61504e-05 0)
(1.04288 -7.15403e-05 0)
(1.04289 -0.000101494 0)
(1.04292 -0.000136343 0)
(1.04295 -0.000172136 0)
(1.043 -0.000210366 0)
(1.04307 -0.000244749 0)
(1.04314 -0.000279053 0)
(1.04323 -0.000303748 0)
(1.04331 -0.000326238 0)
(1.04343 -0.000333059 0)
(1.04352 -0.000336218 0)
(1.04365 -0.000318824 0)
(1.04372 -0.000296623 0)
(1.04386 -0.000253007 0)
(1.04389 -0.000202046 0)
(1.04402 -0.000137423 0)
(1.04397 -5.77193e-05 0)
(1.04409 1.27526e-05 0)
(1.04394 0.000117338 0)
(1.04404 0.000167113 0)
(1.04377 0.000289048 0)
(1.04385 0.000281481 0)
(1.04349 0.000409493 0)
(1.04355 0.000303944 0)
(1.04317 0.000421958 0)
(1.0432 0.000186643 0)
(1.04293 0.000269189 0)
(1.04294 -9.66317e-05 0)
(1.03877 -0.00372518 0)
(1.03909 -0.00358897 0)
(1.03941 -0.00344954 0)
(1.03972 -0.00330712 0)
(1.04002 -0.00316195 0)
(1.04032 -0.00301429 0)
(1.0406 -0.00286442 0)
(1.04087 -0.00271266 0)
(1.04114 -0.0025594 0)
(1.04139 -0.00240503 0)
(1.04163 -0.00225001 0)
(1.04185 -0.00209484 0)
(1.04206 -0.00194004 0)
(1.04226 -0.00178621 0)
(1.04244 -0.00163397 0)
(1.04261 -0.00148397 0)
(1.04276 -0.00133692 0)
(1.0429 -0.00119355 0)
(1.04302 -0.00105462 0)
(1.04313 -0.000920935 0)
(1.04322 -0.000793287 0)
(1.04329 -0.000672487 0)
(1.04335 -0.000559346 0)
(1.04339 -0.000454651 0)
(1.04343 -0.000359167 0)
(1.04345 -0.000273596 0)
(1.04345 -0.0001986 0)
(1.04345 -0.000134715 0)
(1.04344 -8.24323e-05 0)
(1.04343 -4.2013e-05 0)
(1.0434 -1.37148e-05 0)
(1.04338 2.63484e-06 0)
(1.04336 7.0275e-06 0)
(1.04334 2.61291e-07 0)
(1.04332 -1.74801e-05 0)
(1.04331 -4.44374e-05 0)
(1.04331 -8.04633e-05 0)
(1.04332 -0.000122467 0)
(1.04334 -0.000170839 0)
(1.04338 -0.000220405 0)
(1.04343 -0.000273047 0)
(1.04349 -0.000320555 0)
(1.04357 -0.000367736 0)
(1.04367 -0.00040218 0)
(1.04377 -0.000433366 0)
(1.0439 -0.000443828 0)
(1.044 -0.000448946 0)
(1.04415 -0.000426946 0)
(1.04423 -0.000397893 0)
(1.04439 -0.00034066 0)
(1.04442 -0.000272793 0)
(1.04457 -0.000187075 0)
(1.04452 -8.03789e-05 0)
(1.04466 1.39311e-05 0)
(1.04449 0.000154318 0)
(1.0446 0.000222303 0)
(1.04431 0.000386146 0)
(1.04438 0.000379676 0)
(1.04399 0.000551658 0)
(1.04403 0.000417408 0)
(1.04362 0.000575736 0)
(1.04361 0.000272076 0)
(1.04332 0.00038253 0)
(1.04327 -9.15253e-05 0)
(1.03965 -0.00452296 0)
(1.03997 -0.00435515 0)
(1.0403 -0.00418337 0)
(1.04061 -0.0040079 0)
(1.04091 -0.00382903 0)
(1.0412 -0.00364709 0)
(1.04149 -0.00346243 0)
(1.04176 -0.00327546 0)
(1.04202 -0.00308664 0)
(1.04227 -0.00289648 0)
(1.0425 -0.00270553 0)
(1.04272 -0.00251442 0)
(1.04293 -0.00232382 0)
(1.04312 -0.00213446 0)
(1.04329 -0.0019471 0)
(1.04345 -0.00176258 0)
(1.04359 -0.00158176 0)
(1.04372 -0.00140558 0)
(1.04383 -0.00123499 0)
(1.04392 -0.00107097 0)
(1.04399 -0.000914539 0)
(1.04405 -0.000766702 0)
(1.04409 -0.000628478 0)
(1.04412 -0.000500858 0)
(1.04413 -0.000384802 0)
(1.04413 -0.000281195 0)
(1.04412 -0.000190868 0)
(1.0441 -0.000114501 0)
(1.04408 -5.2707e-05 0)
(1.04404 -5.84093e-06 0)
(1.044 2.58133e-05 0)
(1.04396 4.24488e-05 0)
(1.04392 4.40721e-05 0)
(1.04389 3.16546e-05 0)
(1.04386 5.42588e-06 0)
(1.04384 -3.24364e-05 0)
(1.04383 -8.16074e-05 0)
(1.04383 -0.000138266 0)
(1.04385 -0.000202841 0)
(1.04389 -0.000268855 0)
(1.04394 -0.000338552 0)
(1.04401 -0.000401683 0)
(1.0441 -0.000464074 0)
(1.04421 -0.000510303 0)
(1.04432 -0.000551901 0)
(1.04447 -0.000567281 0)
(1.04459 -0.000575115 0)
(1.04475 -0.000548766 0)
(1.04486 -0.000512367 0)
(1.04503 -0.000440561 0)
(1.04508 -0.000353856 0)
(1.04525 -0.000244999 0)
(1.0452 -0.000107889 0)
(1.04535 1.29979e-05 0)
(1.04518 0.000193943 0)
(1.04528 0.000283035 0)
(1.04497 0.000494447 0)
(1.04503 0.000491269 0)
(1.04461 0.000713116 0)
(1.04462 0.000550809 0)
(1.04417 0.000754668 0)
(1.04412 0.000381149 0)
(1.04379 0.000522857 0)
(1.04367 -6.3148e-05 0)
(1.04068 -0.00531287 0)
(1.04102 -0.0051124 0)
(1.04134 -0.00490718 0)
(1.04165 -0.00469753 0)
(1.04196 -0.00448383 0)
(1.04225 -0.00426645 0)
(1.04253 -0.00404582 0)
(1.0428 -0.00382244 0)
(1.04306 -0.00359686 0)
(1.0433 -0.00336969 0)
(1.04353 -0.00314162 0)
(1.04375 -0.00291339 0)
(1.04394 -0.00268582 0)
(1.04413 -0.00245978 0)
(1.04429 -0.00223622 0)
(1.04444 -0.00201613 0)
(1.04457 -0.00180058 0)
(1.04468 -0.0015907 0)
(1.04477 -0.00138764 0)
(1.04484 -0.0011926 0)
(1.0449 -0.00100681 0)
(1.04494 -0.000831519 0)
(1.04496 -0.000667954 0)
(1.04497 -0.000517328 0)
(1.04496 -0.000380816 0)
(1.04494 -0.000259503 0)
(1.04491 -0.000154409 0)
(1.04487 -6.63598e-05 0)
(1.04481 3.8486e-06 0)
(1.04476 5.58728e-05 0)
(1.0447 8.92998e-05 0)
(1.04464 0.000104364 0)
(1.04458 0.000101066 0)
(1.04453 8.06001e-05 0)
(1.04448 4.32869e-05 0)
(1.04445 -8.27248e-06 0)
(1.04443 -7.36908e-05 0)
(1.04443 -0.000148185 0)
(1.04444 -0.000232231 0)
(1.04448 -0.000317956 0)
(1.04453 -0.000407939 0)
(1.04461 -0.000489756 0)
(1.04471 -0.000570226 0)
(1.04484 -0.000630738 0)
(1.04497 -0.000684853 0)
(1.04513 -0.000706706 0)
(1.04527 -0.000718204 0)
(1.04547 -0.000687782 0)
(1.04559 -0.000643417 0)
(1.04579 -0.000555935 0)
(1.04586 -0.000447963 0)
(1.04605 -0.000313493 0)
(1.04601 -0.000141663 0)
(1.04617 9.22631e-06 0)
(1.04599 0.000236575 0)
(1.0461 0.00035038 0)
(1.04576 0.000616294 0)
(1.04581 0.000619133 0)
(1.04534 0.000898031 0)
(1.04531 0.000708446 0)
(1.04482 0.000964158 0)
(1.0447 0.000518852 0)
(1.04435 0.000695898 0)
(1.04414 -6.7387e-06 0)
(1.04187 -0.00609642 0)
(1.04221 -0.00586197 0)
(1.04254 -0.00562195 0)
(1.04285 -0.00537674 0)
(1.04316 -0.00512678 0)
(1.04345 -0.00487251 0)
(1.04373 -0.00461444 0)
(1.044 -0.00435316 0)
(1.04426 -0.00408932 0)
(1.04449 -0.00382365 0)
(1.04472 -0.00355695 0)
(1.04492 -0.00329012 0)
(1.04511 -0.00302412 0)
(1.04528 -0.00275999 0)
(1.04543 -0.00249884 0)
(1.04557 -0.00224188 0)
(1.04568 -0.00199037 0)
(1.04578 -0.00174564 0)
(1.04585 -0.00150907 0)
(1.0459 -0.00128212 0)
(1.04594 -0.00106623 0)
(1.04596 -0.000862892 0)
(1.04596 -0.000673595 0)
(1.04594 -0.000499785 0)
(1.04591 -0.000342875 0)
(1.04586 -0.000204171 0)
(1.0458 -8.49056e-05 0)
(1.04573 1.38924e-05 0)
(1.04565 9.13824e-05 0)
(1.04557 0.000147088 0)
(1.04549 0.000180465 0)
(1.0454 0.000191798 0)
(1.04532 0.000181072 0)
(1.04525 0.000149749 0)
(1.04518 9.82401e-05 0)
(1.04514 2.96841e-05 0)
(1.0451 -5.5538e-05 0)
(1.04509 -0.000151591 0)
(1.0451 -0.000258966 0)
(1.04514 -0.000368269 0)
(1.0452 -0.000482376 0)
(1.04529 -0.000586522 0)
(1.0454 -0.000688481 0)
(1.04555 -0.000766267 0)
(1.04569 -0.000835406 0)
(1.04589 -0.000865602 0)
(1.04605 -0.000881886 0)
(1.04628 -0.000847731 0)
(1.04643 -0.000794698 0)
(1.04667 -0.000690146 0)
(1.04675 -0.000558075 0)
(1.04697 -0.00039497 0)
(1.04693 -0.000183401 0)
(1.04712 1.77515e-06 0)
(1.04692 0.000282462 0)
(1.04704 0.000425301 0)
(1.04666 0.000753965 0)
(1.0467 0.000766092 0)
(1.04618 0.00111055 0)
(1.04611 0.000894622 0)
(1.04556 0.00120965 0)
(1.04537 0.00069025 0)
(1.04498 0.000907448 0)
(1.04466 8.26151e-05 0)
(1.04322 -0.0068748 0)
(1.04356 -0.00660482 0)
(1.04389 -0.0063284 0)
(1.0442 -0.006046 0)
(1.04451 -0.00575811 0)
(1.0448 -0.00546524 0)
(1.04508 -0.00516801 0)
(1.04535 -0.00486707 0)
(1.0456 -0.0045632 0)
(1.04583 -0.00425725 0)
(1.04605 -0.00395016 0)
(1.04625 -0.00364297 0)
(1.04642 -0.0033368 0)
(1.04658 -0.00303287 0)
(1.04672 -0.0027325 0)
(1.04684 -0.00243709 0)
(1.04693 -0.00214812 0)
(1.04701 -0.00186716 0)
(1.04706 -0.00159585 0)
(1.0471 -0.00133586 0)
(1.04711 -0.00108893 0)
(1.0471 -0.000856809 0)
(1.04707 -0.000641254 0)
(1.04702 -0.00044398 0)
(1.04696 -0.000266664 0)
(1.04688 -0.00011086 0)
(1.04679 2.19463e-05 0)
(1.04669 0.000130629 0)
(1.04659 0.000214143 0)
(1.04647 0.000271817 0)
(1.04636 0.000303066 0)
(1.04625 0.000308202 0)
(1.04614 0.000287239 0)
(1.04604 0.000241858 0)
(1.04596 0.000172599 0)
(1.04589 8.31598e-05 0)
(1.04585 -2.59463e-05 0)
(1.04583 -0.000147891 0)
(1.04583 -0.000283076 0)
(1.04587 -0.000420451 0)
(1.04594 -0.000563157 0)
(1.04604 -0.000693879 0)
(1.04616 -0.000821317 0)
(1.04633 -0.000919864 0)
(1.0465 -0.00100699 0)
(1.04673 -0.00104772 0)
(1.04693 -0.0010701 0)
(1.04719 -0.00103265 0)
(1.04737 -0.000970102 0)
(1.04765 -0.000846831 0)
(1.04775 -0.000687307 0)
(1.04801 -0.000492 0)
(1.04798 -0.0002348 0)
(1.04819 -1.05252e-05 0)
(1.04798 0.00033171 0)
(1.0481 0.000508672 0)
(1.04769 0.000909699 0)
(1.0477 0.000934972 0)
(1.04713 0.00135484 0)
(1.04701 0.00111373 0)
(1.04639 0.00149666 0)
(1.04612 0.000900574 0)
(1.04568 0.00116344 0)
(1.04524 0.000210026 0)
(1.04471 -0.00764922 0)
(1.04505 -0.00734194 0)
(1.04538 -0.0070273 0)
(1.04571 -0.00670583 0)
(1.04601 -0.00637808 0)
(1.04631 -0.00604467 0)
(1.04659 -0.00570627 0)
(1.04685 -0.00536366 0)
(1.04709 -0.00501772 0)
(1.04732 -0.00466944 0)
(1.04753 -0.0043199 0)
(1.04771 -0.00397031 0)
(1.04788 -0.00362197 0)
(1.04802 -0.00327628 0)
(1.04815 -0.00293477 0)
(1.04825 -0.00259907 0)
(1.04832 -0.0022709 0)
(1.04838 -0.00195208 0)
(1.04841 -0.00164452 0)
(1.04841 -0.00135017 0)
(1.0484 -0.00107107 0)
(1.04836 -0.000809253 0)
(1.0483 -0.000566776 0)
(1.04822 -0.000345653 0)
(1.04812 -0.000147843 0)
(1.04801 2.47646e-05 0)
(1.04789 0.000170565 0)
(1.04775 0.000288192 0)
(1.04761 0.000376271 0)
(1.04746 0.000434069 0)
(1.04731 0.000460898 0)
(1.04717 0.000457112 0)
(1.04703 0.000422736 0)
(1.0469 0.00035974 0)
(1.0468 0.000268709 0)
(1.04671 0.000153994 0)
(1.04665 1.63252e-05 0)
(1.04662 -0.000136511 0)
(1.04662 -0.000304651 0)
(1.04666 -0.000475261 0)
(1.04673 -0.0006517 0)
(1.04685 -0.00081389 0)
(1.04699 -0.000971416 0)
(1.04719 -0.00109475 0)
(1.04739 -0.00120328 0)
(1.04765 -0.00125709 0)
(1.04788 -0.0012871 0)
(1.04819 -0.00124685 0)
(1.04841 -0.00117385 0)
(1.04873 -0.00103003 0)
(1.04886 -0.000839152 0)
(1.04917 -0.000607596 0)
(1.04915 -0.000297857 0)
(1.04938 -2.89472e-05 0)
(1.04916 0.000384308 0)
(1.04929 0.000601303 0)
(1.04883 0.00108573 0)
(1.04883 0.00112864 0)
(1.04819 0.00163517 0)
(1.04801 0.00137029 0)
(1.04732 0.00183088 0)
(1.04694 0.00115524 0)
(1.04646 0.00146996 0)
(1.04586 0.000380835 0)
(1.04634 -0.00842082 0)
(1.04669 -0.00807425 0)
(1.04703 -0.00771934 0)
(1.04735 -0.00735669 0)
(1.04766 -0.00698694 0)
(1.04796 -0.00661077 0)
(1.04823 -0.00622896 0)
(1.04849 -0.00584239 0)
(1.04873 -0.00545208 0)
(1.04895 -0.00505915 0)
(1.04915 -0.00466485 0)
(1.04932 -0.00427055 0)
(1.04948 -0.00387773 0)
(1.04961 -0.00348804 0)
(1.04971 -0.0031032 0)
(1.04979 -0.0027251 0)
(1.04984 -0.00235572 0)
(1.04987 -0.00199716 0)
(1.04987 -0.00165163 0)
(1.04985 -0.00132138 0)
(1.0498 -0.00100877 0)
(1.04973 -0.000716166 0)
(1.04964 -0.000445961 0)
(1.04952 -0.000200488 0)
(1.04939 1.78675e-05 0)
(1.04923 0.000207166 0)
(1.04907 0.000365415 0)
(1.04889 0.00049087 0)
(1.04871 0.000581991 0)
(1.04852 0.000637915 0)
(1.04833 0.000657826 0)
(1.04815 0.000642128 0)
(1.04798 0.000590801 0)
(1.04783 0.000506105 0)
(1.04769 0.000388786 0)
(1.04758 0.000243866 0)
(1.04751 7.22789e-05 0)
(1.04746 -0.000116979 0)
(1.04746 -0.000323862 0)
(1.0475 -0.00053355 0)
(1.04758 -0.000749566 0)
(1.04771 -0.0009488 0)
(1.04788 -0.00114167 0)
(1.04811 -0.00129443 0)
(1.04834 -0.00142828 0)
(1.04865 -0.0014981 0)
(1.04892 -0.00153755 0)
(1.04929 -0.0014951 0)
(1.04954 -0.00141055 0)
(1.04992 -0.00124408 0)
(1.05009 -0.00101744 0)
(1.05044 -0.000744908 0)
(1.05043 -0.000374808 0)
(1.05071 -5.47934e-05 0)
(1.05046 0.000440171 0)
(1.0506 0.000703951 0)
(1.0501 0.00128429 0)
(1.05007 0.00135003 0)
(1.04936 0.00195592 0)
(1.0491 0.00166898 0)
(1.04834 0.00221814 0)
(1.04784 0.0014599 0)
(1.0473 0.00183335 0)
(1.04654 0.000600674 0)
(1.04812 -0.00919073 0)
(1.04848 -0.00880267 0)
(1.04882 -0.00840522 0)
(1.04915 -0.00799906 0)
(1.04946 -0.0075849 0)
(1.04975 -0.00716353 0)
(1.05003 -0.00673581 0)
(1.05028 -0.00630275 0)
(1.05051 -0.0058655 0)
(1.05073 -0.00542533 0)
(1.05091 -0.00498367 0)
(1.05108 -0.00454206 0)
(1.05121 -0.00410221 0)
(1.05133 -0.00366598 0)
(1.05141 -0.00323535 0)
(1.05147 -0.00281246 0)
(1.05149 -0.0023996 0)
(1.05149 -0.00199917 0)
(1.05147 -0.00161369 0)
(1.05141 -0.00124576 0)
(1.05133 -0.000898099 0)
(1.05122 -0.000573429 0)
(1.05108 -0.000274507 0)
(1.05093 -4.18035e-06 0)
(1.05075 0.000235124 0)
(1.05055 0.000441006 0)
(1.05034 0.000611025 0)
(1.05012 0.000743194 0)
(1.04989 0.000835722 0)
(1.04966 0.000887596 0)
(1.04943 0.000897848 0)
(1.0492 0.000866895 0)
(1.04899 0.000794707 0)
(1.0488 0.00068387 0)
(1.04864 0.000535262 0)
(1.0485 0.000354657 0)
(1.0484 0.000143187 0)
(1.04835 -8.87438e-05 0)
(1.04834 -0.000340889 0)
(1.04838 -0.000596245 0)
(1.04847 -0.000858436 0)
(1.04863 -0.00110104 0)
(1.04882 -0.00133521 0)
(1.04908 -0.00152265 0)
(1.04936 -0.00168629 0)
(1.04972 -0.00177551 0)
(1.05004 -0.00182644 0)
(1.05047 -0.00178253 0)
(1.05077 -0.00168519 0)
(1.05122 -0.00149374 0)
(1.05142 -0.0012263 0)
(1.05183 -0.000907566 0)
(1.05184 -0.000468209 0)
(1.05216 -8.97797e-05 0)
(1.0519 0.000499073 0)
(1.05205 0.000817318 0)
(1.05149 0.00150769 0)
(1.05143 0.0016022 0)
(1.05064 0.00232163 0)
(1.0503 0.00201472 0)
(1.04945 0.0026645 0)
(1.04881 0.0018205 0)
(1.04821 0.00226021 0)
(1.04724 0.00087546 0)
(1.05005 -0.00996004 0)
(1.05041 -0.00952808 0)
(1.05076 -0.00908561 0)
(1.05109 -0.00863338 0)
(1.0514 -0.0081722 0)
(1.05169 -0.00770293 0)
(1.05197 -0.00722656 0)
(1.05222 -0.00674422 0)
(1.05244 -0.00625719 0)
(1.05264 -0.00576693 0)
(1.05282 -0.00527503 0)
(1.05297 -0.00478325 0)
(1.05309 -0.00429352 0)
(1.05318 -0.00380793 0)
(1.05324 -0.00332875 0)
(1.05327 -0.00285842 0)
(1.05327 -0.00239953 0)
(1.05324 -0.00195481 0)
(1.05318 -0.00152716 0)
(1.05309 -0.00111954 0)
(1.05296 -0.000735062 0)
(1.05281 -0.000376821 0)
(1.05263 -4.82267e-05 0)
(1.05243 0.000247948 0)
(1.0522 0.000508701 0)
(1.05196 0.000731006 0)
(1.05169 0.000912141 0)
(1.05142 0.00104984 0)
(1.05114 0.00114205 0)
(1.05086 0.00118753 0)
(1.05058 0.00118513 0)
(1.05031 0.00113528 0)
(1.05005 0.00103796 0)
(1.04982 0.000896093 0)
(1.04962 0.000710664 0)
(1.04946 0.000488252 0)
(1.04934 0.000230361 0)
(1.04927 -5.12705e-05 0)
(1.04925 -0.000355942 0)
(1.0493 -0.000664356 0)
(1.0494 -0.000980135 0)
(1.04958 -0.00127321 0)
(1.0498 -0.00155541 0)
(1.05011 -0.00178351 0)
(1.05043 -0.00198201 0)
(1.05085 -0.00209447 0)
(1.05123 -0.00215924 0)
(1.05173 -0.00211474 0)
(1.05209 -0.00200335 0)
(1.05262 -0.00178427 0)
(1.05287 -0.00147037 0)
(1.05335 -0.00109959 0)
(1.05338 -0.000580885 0)
(1.05374 -0.000135768 0)
(1.05346 0.000560673 0)
(1.05362 0.000942077 0)
(1.05301 0.00175826 0)
(1.05291 0.00188832 0)
(1.05203 0.002737 0)
(1.0516 0.00241266 0)
(1.05065 0.00317627 0)
(1.04985 0.0022432 0)
(1.04918 0.00275739 0)
(1.04799 0.00121143 0)
(1.05211 -0.0107298 0)
(1.05249 -0.0102514 0)
(1.05284 -0.0097612 0)
(1.05317 -0.00926013 0)
(1.05349 -0.00874907 0)
(1.05378 -0.00822898 0)
(1.05405 -0.00770096 0)
(1.05429 -0.00716629 0)
(1.05451 -0.0066264 0)
(1.05471 -0.00608291 0)
(1.05487 -0.00553762 0)
(1.055 -0.00499252 0)
(1.0551 -0.00444976 0)
(1.05517 -0.00391172 0)
(1.05521 -0.00338096 0)
(1.05521 -0.00286023 0)
(1.05518 -0.00235246 0)
(1.05511 -0.00186078 0)
(1.05501 -0.00138845 0)
(1.05488 -0.000938883 0)
(1.05471 -0.000515629 0)
(1.05451 -0.000122332 0)
(1.05428 0.000237619 0)
(1.05403 0.00056071 0)
(1.05375 0.000843247 0)
(1.05345 0.00108193 0)
(1.05313 0.00127361 0)
(1.0528 0.00141567 0)
(1.05246 0.00150572 0)
(1.05212 0.00154231 0)
(1.05178 0.00152405 0)
(1.05146 0.0014514 0)
(1.05116 0.00132428 0)
(1.05088 0.00114596 0)
(1.05064 0.000917619 0)
(1.05045 0.000646752 0)
(1.0503 0.000335129 0)
(1.05022 -3.68568e-06 0)
(1.0502 -0.000369191 0)
(1.05025 -0.000738948 0)
(1.05036 -0.00111661 0)
(1.05056 -0.00146813 0)
(1.05082 -0.00180591 0)
(1.05118 -0.00208138 0)
(1.05155 -0.00232046 0)
(1.05205 -0.00246056 0)
(1.05249 -0.00254184 0)
(1.05307 -0.00249783 0)
(1.0535 -0.00237087 0)
(1.05412 -0.00212141 0)
(1.05442 -0.0017547 0)
(1.05498 -0.00132516 0)
(1.05504 -0.000715818 0)
(1.05545 -0.000194786 0)
(1.05516 0.000624539 0)
(1.05533 0.0010789 0)
(1.05466 0.00203843 0)
(1.05451 0.00221173 0)
(1.05353 0.00320698 0)
(1.053 0.00286821 0)
(1.05194 0.00376006 0)
(1.05096 0.00273452 0)
(1.05021 0.00333199 0)
(1.04876 0.00161507 0)
(1.05433 -0.0115013 0)
(1.05471 -0.0109735 0)
(1.05507 -0.0104327 0)
(1.0554 -0.00987979 0)
(1.05572 -0.00931577 0)
(1.05601 -0.0087417 0)
(1.05628 -0.00815881 0)
(1.05652 -0.0075685 0)
(1.05673 -0.00697238 0)
(1.05691 -0.00637227 0)
(1.05706 -0.00577017 0)
(1.05717 -0.00516829 0)
(1.05725 -0.00456908 0)
(1.0573 -0.00397519 0)
(1.05731 -0.0033895 0)
(1.05728 -0.00281511 0)
(1.05721 -0.00225534 0)
(1.05711 -0.0017137 0)
(1.05697 -0.0011939 0)
(1.05679 -0.000699831 0)
(1.05657 -0.000235494 0)
(1.05632 0.000194982 0)
(1.05604 0.000587874 0)
(1.05572 0.000938778 0)
(1.05538 0.00124367 0)
(1.05502 0.00149876 0)
(1.05463 0.00170044 0)
(1.05424 0.00184569 0)
(1.05384 0.00193168 0)
(1.05343 0.00195672 0)
(1.05304 0.00191917 0)
(1.05266 0.00181948 0)
(1.0523 0.00165749 0)
(1.05197 0.0014369 0)
(1.05169 0.00115902 0)
(1.05146 0.00083234 0)
(1.05129 0.000458924 0)
(1.05118 5.42329e-05 0)
(1.05115 -0.00038096 0)
(1.05121 -0.000821171 0)
(1.05134 -0.00126991 0)
(1.05157 -0.00168877 0)
(1.05187 -0.00209059 0)
(1.05229 -0.00242097 0)
(1.05272 -0.00270708 0)
(1.0533 -0.00287979 0)
(1.05381 -0.00298064 0)
(1.0545 -0.00293838 0)
(1.055 -0.00279424 0)
(1.05572 -0.00251131 0)
(1.05609 -0.00208465 0)
(1.05674 -0.00158902 0)
(1.05682 -0.000876416 0)
(1.0573 -0.000269154 0)
(1.05699 0.000690139 0)
(1.05718 0.00122844 0)
(1.05644 0.00235075 0)
(1.05624 0.00257598 0)
(1.05515 0.00373673 0)
(1.05449 0.00338708 0)
(1.05331 0.00442275 0)
(1.05213 0.0033013 0)
(1.0513 0.00399142 0)
(1.04956 0.00209321 0)
(1.05668 -0.0122754 0)
(1.05707 -0.0116953 0)
(1.05743 -0.0111008 0)
(1.05778 -0.0104929 0)
(1.05809 -0.00987261 0)
(1.05839 -0.00924116 0)
(1.05865 -0.00859991 0)
(1.05888 -0.00795041 0)
(1.05908 -0.00729445 0)
(1.05925 -0.00663403 0)
(1.05939 -0.0059714 0)
(1.05948 -0.00530903 0)
(1.05954 -0.00464963 0)
(1.05956 -0.00399619 0)
(1.05954 -0.00335192 0)
(1.05948 -0.00272031 0)
(1.05937 -0.00210508 0)
(1.05923 -0.00151019 0)
(1.05904 -0.00093984 0)
(1.05881 -0.00039836 0)
(1.05854 0.000109573 0)
(1.05823 0.000579645 0)
(1.05788 0.00100698 0)
(1.05751 0.00138699 0)
(1.0571 0.001715 0)
(1.05667 0.00198668 0)
(1.05621 0.00219789 0)
(1.05575 0.00234512 0)
(1.05527 0.00242509 0)
(1.0548 0.00243579 0)
(1.05433 0.00237529 0)
(1.05389 0.00224402 0)
(1.05347 0.00204172 0)
(1.05309 0.00177251 0)
(1.05276 0.00143785 0)
(1.05248 0.00104727 0)
(1.05228 0.00060326 0)
(1.05216 0.000123211 0)
(1.05212 -0.000391445 0)
(1.05218 -0.000912192 0)
(1.05233 -0.00144221 0)
(1.0526 -0.00193829 0)
(1.05294 -0.00241357 0)
(1.05342 -0.00280733 0)
(1.05393 -0.0031477 0)
(1.05459 -0.00335867 0)
(1.0552 -0.00348257 0)
(1.05599 -0.00344364 0)
(1.05659 -0.00328059 0)
(1.05742 -0.00296075 0)
(1.05786 -0.00246621 0)
(1.05862 -0.00189638 0)
(1.05874 -0.00106641 0)
(1.05929 -0.000361407 0)
(1.05897 0.000756848 0)
(1.05917 0.0013914 0)
(1.05836 0.00269787 0)
(1.0581 0.00298482 0)
(1.0569 0.0043317 0)
(1.05609 0.00397531 0)
(1.05478 0.00517148 0)
(1.05337 0.00395069 0)
(1.05244 0.00474342 0)
(1.05037 0.00265294 0)
(1.05918 -0.0130534 0)
(1.05957 -0.0124179 0)
(1.05995 -0.0117664 0)
(1.0603 -0.0111 0)
(1.06061 -0.0104199 0)
(1.06091 -0.00972749 0)
(1.06117 -0.00902415 0)
(1.06139 -0.00831165 0)
(1.06159 -0.00759195 0)
(1.06174 -0.00686729 0)
(1.06186 -0.00614013 0)
(1.06193 -0.00541323 0)
(1.06197 -0.00468961 0)
(1.06196 -0.00397259 0)
(1.0619 -0.00326577 0)
(1.0618 -0.00257305 0)
(1.06166 -0.0018986 0)
(1.06147 -0.00124687 0)
(1.06123 -0.000622539 0)
(1.06094 -3.0755e-05 0)
(1.06061 0.00052377 0)
(1.06024 0.00103577 0)
(1.05983 0.00149975 0)
(1.05938 0.0019104 0)
(1.0589 0.00226249 0)
(1.05839 0.00255109 0)
(1.05786 0.00277142 0)
(1.05731 0.00291944 0)
(1.05676 0.00299136 0)
(1.0562 0.00298481 0)
(1.05566 0.00289749 0)
(1.05514 0.00272977 0)
(1.05466 0.0024813 0)
(1.05422 0.00215659 0)
(1.05383 0.0017573 0)
(1.05351 0.00129412 0)
(1.05327 0.00076993 0)
(1.05313 0.000204358 0)
(1.05308 -0.000400739 0)
(1.05315 -0.00101316 0)
(1.05332 -0.00163575 0)
(1.05363 -0.00222003 0)
(1.05403 -0.00277923 0)
(1.05458 -0.00324584 0)
(1.05517 -0.00364855 0)
(1.05594 -0.00390418 0)
(1.05664 -0.00405506 0)
(1.05756 -0.00402132 0)
(1.05826 -0.00383746 0)
(1.05923 -0.00347707 0)
(1.05976 -0.00290586 0)
(1.06063 -0.00225283 0)
(1.0608 -0.00128983 0)
(1.06142 -0.000474216 0)
(1.06109 0.000823984 0)
(1.06131 0.00156851 0)
(1.06042 0.00308262 0)
(1.0601 0.00344226 0)
(1.05876 0.00499762 0)
(1.0578 0.00463929 0)
(1.05634 0.00601375 0)
(1.05466 0.0046902 0)
(1.05363 0.00559594 0)
(1.0512 0.00330159 0)
(1.06181 -0.0138365 0)
(1.06222 -0.0131422 0)
(1.06261 -0.0124302 0)
(1.06296 -0.0117017 0)
(1.06328 -0.0109581 0)
(1.06357 -0.0102008 0)
(1.06383 -0.00943147 0)
(1.06405 -0.00865191 0)
(1.06423 -0.00786432 0)
(1.06437 -0.00707118 0)
(1.06447 -0.0062752 0)
(1.06452 -0.00547945 0)
(1.06453 -0.00468726 0)
(1.06449 -0.00390233 0)
(1.0644 -0.00312866 0)
(1.06426 -0.0023706 0)
(1.06407 -0.00163282 0)
(1.06383 -0.000920338 0)
(1.06353 -0.000238462 0)
(1.06318 0.000407453 0)
(1.06279 0.00101175 0)
(1.06235 0.00156836 0)
(1.06186 0.00207119 0)
(1.06134 0.00251424 0)
(1.06077 0.00289158 0)
(1.06018 0.00319755 0)
(1.05956 0.00342671 0)
(1.05893 0.00357437 0)
(1.05829 0.00363618 0)
(1.05765 0.00360931 0)
(1.05702 0.00349109 0)
(1.05642 0.00328177 0)
(1.05586 0.00298083 0)
(1.05535 0.00259328 0)
(1.0549 0.00212088 0)
(1.05454 0.00157563 0)
(1.05426 0.000960783 0)
(1.05409 0.000298333 0)
(1.05403 -0.000408986 0)
(1.05411 -0.00112527 0)
(1.0543 -0.00185283 0)
(1.05466 -0.00253745 0)
(1.05511 -0.00319219 0)
(1.05575 -0.00374219 0)
(1.05643 -0.0042163 0)
(1.05732 -0.00452379 0)
(1.05814 -0.00470612 0)
(1.0592 -0.00467973 0)
(1.06002 -0.00447302 0)
(1.06114 -0.00406822 0)
(1.06176 -0.00341056 0)
(1.06277 -0.00266442 0)
(1.06299 -0.00155101 0)
(1.06371 -0.000610711 0)
(1.06336 0.000890741 0)
(1.0636 0.00176056 0)
(1.06262 0.003508 0)
(1.06223 0.00395257 0)
(1.06075 0.00574052 0)
(1.0596 0.00538576 0)
(1.05799 0.00695736 0)
(1.05602 0.0055276 0)
(1.05488 0.00655719 0)
(1.05204 0.00404671 0)
(1.0646 -0.014626 0)
(1.06502 -0.0138692 0)
(1.06541 -0.0130931 0)
(1.06577 -0.0122987 0)
(1.06609 -0.0114877 0)
(1.06638 -0.0106615 0)
(1.06664 -0.00982189 0)
(1.06685 -0.00897095 0)
(1.06702 -0.00811107 0)
(1.06715 -0.00724494 0)
(1.06722 -0.00637557 0)
(1.06725 -0.00550632 0)
(1.06723 -0.0046409 0)
(1.06716 -0.00378338 0)
(1.06703 -0.00293822 0)
(1.06685 -0.00211024 0)
(1.0666 -0.00130469 0)
(1.06631 -0.000526998 0)
(1.06595 0.00021664 0)
(1.06554 0.00092053 0)
(1.06507 0.00157792 0)
(1.06456 0.00218216 0)
(1.06399 0.00272642 0)
(1.06338 0.00320391 0)
(1.06273 0.00360785 0)
(1.06204 0.00393184 0)
(1.06133 0.00416962 0)
(1.0606 0.00431584 0)
(1.05986 0.00436543 0)
(1.05913 0.00431511 0)
(1.05841 0.00416169 0)
(1.05772 0.00390531 0)
(1.05707 0.00354525 0)
(1.05648 0.00308697 0)
(1.05597 0.00253238 0)
(1.05555 0.00189477 0)
(1.05523 0.00117799 0)
(1.05503 0.000406607 0)
(1.05496 -0.000416009 0)
(1.05505 -0.00124961 0)
(1.05527 -0.00209582 0)
(1.05567 -0.00289416 0)
(1.05619 -0.0036573 0)
(1.05693 -0.00430243 0)
(1.05771 -0.00485802 0)
(1.05873 -0.0052255 0)
(1.05968 -0.00544431 0)
(1.06091 -0.0054279 0)
(1.06186 -0.00519616 0)
(1.06315 -0.00474281 0)
(1.06389 -0.00398791 0)
(1.06505 -0.00313776 0)
(1.06533 -0.00185471 0)
(1.06615 -0.000773766 0)
(1.06579 0.000956405 0)
(1.06605 0.00196849 0)
(1.06498 0.00397723 0)
(1.0645 0.00452039 0)
(1.06286 0.0065668 0)
(1.06152 0.00622184 0)
(1.05973 0.00801042 0)
(1.05743 0.00647097 0)
(1.05617 0.00763557 0)
(1.05288 0.00489605 0)
(1.06752 -0.0154231 0)