# Probe 0 (2 -0.5 0)
# Probe 1 (2 0.5 0)
#       Probe             0             1
#        Time
        0.005             (0.948794 0.0408803 -4.19701e-19)             (0.948794 -0.0408803 -5.62365e-20)
         0.01             (0.951633 0.0301031 2.55711e-20)             (0.951633 -0.0301031 -3.18257e-21)
        0.015             (0.951355 0.0301965 -7.7857e-21)             (0.951355 -0.0301965 6.82624e-22)
         0.02             (0.9509 0.0304317 -7.59983e-21)             (0.9509 -0.0304317 1.34744e-22)
        0.025             (0.950343 0.0307612 -7.08466e-21)             (0.950343 -0.0307612 -9.62347e-23)
         0.03             (0.949746 0.0311367 -6.45741e-21)             (0.949746 -0.0311367 -2.18409e-22)
        0.035             (0.949133 0.0315338 -5.86573e-21)             (0.949133 -0.0315338 -2.88111e-22)
         0.04             (0.948518 0.031939 -5.33524e-21)             (0.948518 -0.031939 -3.29044e-22)
        0.045             (0.947909 0.0323444 -4.8689e-21)             (0.947909 -0.0323444 -3.51722e-22)
         0.05             (0.947309 0.0327452 -4.46133e-21)             (0.947309 -0.0327452 -3.62448e-22)
        0.055             (0.94672 0.03314 -4.10641e-21)             (0.94672 -0.03314 -3.65214e-22)
         0.06             (0.946143 0.0335277 -3.79443e-21)             (0.946143 -0.0335277 -3.63642e-22)
        0.065             (0.945578 0.0339078 -3.52194e-21)             (0.945578 -0.0339078 -3.58279e-22)
         0.07             (0.945025 0.034281 -3.28207e-21)             (0.945025 -0.034281 -3.51001e-22)
        0.075             (0.944483 0.0346471 -3.06883e-21)             (0.944483 -0.0346471 -3.42761e-22)
         0.08             (0.943952 0.0350073 -2.87971e-21)             (0.943952 -0.0350073 -3.33761e-22)
        0.085             (0.943431 0.0353617 -2.71071e-21)             (0.943431 -0.0353617 -3.2456e-22)
         0.09             (0.94292 0.0357109 -2.55851e-21)             (0.94292 -0.0357109 -3.15429e-22)
        0.095             (0.942416 0.0360553 -2.42184e-21)             (0.942416 -0.0360553 -3.06418e-22)
          0.1             (0.941921 0.0363955 -2.29866e-21)             (0.941921 -0.0363955 -2.97388e-22)
        0.105             (0.941433 0.036732 -2.18636e-21)             (0.941433 -0.036732 -2.88773e-22)
         0.11             (0.940952 0.0370654 -2.08503e-21)             (0.940952 -0.0370654 -2.8004e-22)
        0.115             (0.940478 0.0373959 -1.9914e-21)             (0.940478 -0.0373959 -2.7203e-22)
         0.12             (0.940009 0.0377239 -1.90529e-21)             (0.940009 -0.0377239 -2.64314e-22)
        0.125             (0.939546 0.0380495 -1.82636e-21)             (0.939546 -0.0380495 -2.56833e-22)
         0.13             (0.939087 0.0383733 -1.75272e-21)             (0.939087 -0.0383733 -2.49882e-22)
        0.135             (0.938633 0.0386955 -1.68491e-21)             (0.938633 -0.0386955 -2.43147e-22)
         0.14             (0.938184 0.0390161 -1.62121e-21)             (0.938184 -0.0390161 -2.36841e-22)
        0.145             (0.937738 0.0393355 -1.56157e-21)             (0.937738 -0.0393355 -2.30872e-22)
         0.15             (0.937296 0.0396536 -1.50574e-21)             (0.937296 -0.0396536 -2.2522e-22)
        0.155             (0.936857 0.0399711 -1.45396e-21)             (0.936857 -0.0399711 -2.19623e-22)
         0.16             (0.936421 0.0402878 -1.40455e-21)             (0.936421 -0.0402878 -2.14511e-22)
        0.165             (0.935989 0.0406039 -1.35811e-21)             (0.935989 -0.0406039 -2.0958e-22)
         0.17             (0.935558 0.0409195 -1.31398e-21)             (0.935558 -0.0409195 -2.04947e-22)
        0.175             (0.93513 0.0412348 -1.27208e-21)             (0.93513 -0.0412348 -2.00622e-22)
         0.18             (0.934705 0.0415497 -1.23164e-21)             (0.934705 -0.0415497 -1.96505e-22)
        0.185             (0.934281 0.0418645 -1.1948e-21)             (0.934281 -0.0418645 -1.92256e-22)
         0.19             (0.933859 0.0421792 -1.15889e-21)             (0.933859 -0.0421792 -1.88572e-22)
        0.195             (0.933439 0.0424941 -1.12477e-21)             (0.933439 -0.0424941 -1.84847e-22)
          0.2             (0.933021 0.042809 -1.09176e-21)             (0.933021 -0.042809 -1.81441e-22)
        0.205             (0.932603 0.0431241 -1.06013e-21)             (0.932603 -0.0431241 -1.78195e-22)
         0.21             (0.932188 0.0434394 -1.02979e-21)             (0.932188 -0.0434394 -1.75117e-22)
        0.215             (0.931773 0.043755 -1.00068e-21)             (0.931773 -0.043755 -1.72184e-22)
         0.22             (0.931359 0.0440709 -9.72663e-22)             (0.931359 -0.0440709 -1.69394e-22)
        0.225             (0.930947 0.0443871 -9.4561e-22)             (0.930947 -0.0443871 -1.66777e-22)
         0.23             (0.930535 0.0447038 -9.19482e-22)             (0.930535 -0.0447038 -1.64112e-22)
        0.235             (0.930124 0.0450209 -8.94639e-22)             (0.930124 -0.0450209 -1.61737e-22)
         0.24             (0.929714 0.0453386 -8.70224e-22)             (0.929714 -0.0453386 -1.59511e-22)
        0.245             (0.929304 0.0456568 -8.47028e-22)             (0.929304 -0.0456568 -1.57208e-22)
         0.25             (0.928895 0.0459757 -8.24669e-22)             (0.928895 -0.0459757 -1.5517e-22)
        0.255             (0.928486 0.0462952 -8.02844e-22)             (0.928486 -0.0462952 -1.53157e-22)
         0.26             (0.928078 0.0466153 -7.81535e-22)             (0.928078 -0.0466153 -1.51288e-22)
        0.265             (0.92767 0.0469361 -7.60884e-22)             (0.92767 -0.0469361 -1.49506e-22)
         0.27             (0.927262 0.0472576 -7.41033e-22)             (0.927262 -0.0472576 -1.47725e-22)
        0.275             (0.926854 0.0475799 -7.21766e-22)             (0.926854 -0.0475799 -1.46116e-22)
         0.28             (0.926446 0.0479029 -7.02907e-22)             (0.926446 -0.0479029 -1.44582e-22)
        0.285             (0.926039 0.0482267 -6.84199e-22)             (0.926039 -0.0482267 -1.43092e-22)
         0.29             (0.925631 0.0485514 -6.66572e-22)             (0.925631 -0.0485514 -1.41713e-22)
        0.295             (0.925223 0.0488768 -6.49082e-22)             (0.925223 -0.0488768 -1.40449e-22)
          0.3             (0.924816 0.0492032 -6.32394e-22)             (0.924816 -0.0492032 -1.39121e-22)
        0.305             (0.924408 0.0495304 -6.15898e-22)             (0.924408 -0.0495304 -1.37939e-22)
         0.31             (0.924 0.0498585 -5.99735e-22)             (0.924 -0.0498585 -1.3682e-22)
        0.315             (0.923591 0.0501875 -5.84056e-22)             (0.923591 -0.0501875 -1.35783e-22)
         0.32             (0.923183 0.0505175 -5.68653e-22)             (0.923183 -0.0505175 -1.34731e-22)
        0.325             (0.922774 0.0508485 -5.53975e-22)             (0.922774 -0.0508485 -1.33832e-22)
         0.33             (0.922365 0.0511805 -5.39386e-22)             (0.922365 -0.0511805 -1.32953e-22)
        0.335             (0.921955 0.0515134 -5.24983e-22)             (0.921955 -0.0515134 -1.32108e-22)
         0.34             (0.921545 0.0518474 -5.11049e-22)             (0.921545 -0.0518474 -1.31346e-22)
        0.345             (0.921134 0.0521824 -4.97146e-22)             (0.921134 -0.0521824 -1.30679e-22)
         0.35             (0.920723 0.0525185 -4.84138e-22)             (0.920723 -0.0525185 -1.29895e-22)
        0.355             (0.920312 0.0528557 -4.70857e-22)             (0.920312 -0.0528557 -1.29245e-22)
         0.36             (0.9199 0.053194 -4.57868e-22)             (0.9199 -0.053194 -1.28682e-22)
        0.365             (0.919487 0.0535334 -4.45358e-22)             (0.919487 -0.0535334 -1.28091e-22)
         0.37             (0.919074 0.053874 -4.33309e-22)             (0.919074 -0.053874 -1.27633e-22)
        0.375             (0.91866 0.0542157 -4.21203e-22)             (0.91866 -0.0542157 -1.27181e-22)
         0.38             (0.918246 0.0545587 -4.09323e-22)             (0.918246 -0.0545587 -1.26771e-22)
        0.385             (0.917831 0.0549028 -3.9763e-22)             (0.917831 -0.0549028 -1.26414e-22)
         0.39             (0.917415 0.0552483 -3.86205e-22)             (0.917415 -0.0552483 -1.26058e-22)
        0.395             (0.916998 0.0555949 -3.75065e-22)             (0.916998 -0.0555949 -1.25775e-22)
          0.4             (0.916581 0.0559429 -3.64041e-22)             (0.916581 -0.0559429 -1.25523e-22)
        0.405             (0.916163 0.0562922 -3.53199e-22)             (0.916163 -0.0562922 -1.25309e-22)
         0.41             (0.915744 0.0566428 -3.42493e-22)             (0.915744 -0.0566428 -1.25127e-22)
        0.415             (0.915325 0.0569948 -3.3181e-22)             (0.915325 -0.0569948 -1.24997e-22)
         0.42             (0.914904 0.0573482 -3.2204e-22)             (0.914904 -0.0573482 -1.24912e-22)
        0.425             (0.914483 0.057703 -3.1184e-22)             (0.914483 -0.057703 -1.24827e-22)
         0.43             (0.914061 0.0580592 -3.01903e-22)             (0.914061 -0.0580592 -1.24794e-22)
        0.435             (0.913638 0.058417 -2.92118e-22)             (0.913638 -0.058417 -1.24797e-22)
         0.44             (0.913215 0.0587762 -2.82482e-22)             (0.913215 -0.0587762 -1.24835e-22)
        0.445             (0.91279 0.0591369 -2.72953e-22)             (0.91279 -0.0591369 -1.24901e-22)
         0.45             (0.912364 0.0594992 -2.63466e-22)             (0.912364 -0.0594992 -1.24987e-22)
        0.455             (0.911938 0.0598631 -2.54214e-22)             (0.911938 -0.0598631 -1.25126e-22)
         0.46             (0.911511 0.0602286 -2.45235e-22)             (0.911511 -0.0602286 -1.25302e-22)
        0.465             (0.911082 0.0605957 -2.36323e-22)             (0.911082 -0.0605957 -1.25493e-22)
         0.47             (0.910653 0.0609645 -2.27499e-22)             (0.910653 -0.0609645 -1.25724e-22)
        0.475             (0.910223 0.061335 -2.18767e-22)             (0.910223 -0.061335 -1.25993e-22)
         0.48             (0.909792 0.0617072 -2.10211e-22)             (0.909792 -0.0617072 -1.26278e-22)
        0.485             (0.90936 0.0620812 -2.01697e-22)             (0.90936 -0.0620812 -1.26596e-22)
         0.49             (0.908927 0.0624569 -1.9327e-22)             (0.908927 -0.0624569 -1.26947e-22)
        0.495             (0.908492 0.0628345 -1.85216e-22)             (0.908492 -0.0628345 -1.27355e-22)
          0.5             (0.908057 0.063214 -1.77002e-22)             (0.908057 -0.063214 -1.27761e-22)
        0.505             (0.907621 0.0635953 -1.69055e-22)             (0.907621 -0.0635953 -1.28222e-22)
         0.51             (0.907184 0.0639786 -1.61118e-22)             (0.907184 -0.0639786 -1.28699e-22)
        0.515             (0.906745 0.0643638 -1.53265e-22)             (0.906745 -0.0643638 -1.29206e-22)
         0.52             (0.906306 0.064751 -1.45503e-22)             (0.906306 -0.064751 -1.29741e-22)
        0.525             (0.905865 0.0651401 -1.37814e-22)             (0.905865 -0.0651401 -1.30306e-22)
         0.53             (0.905424 0.0655314 -1.30267e-22)             (0.905424 -0.0655314 -1.30908e-22)
        0.535             (0.904981 0.0659247 -1.22815e-22)             (0.904981 -0.0659247 -1.31532e-22)
         0.54             (0.904537 0.0663201 -1.15448e-22)             (0.904537 -0.06632 -1.32193e-22)
        0.545             (0.904092 0.0667176 -1.08019e-22)             (0.904092 -0.0667176 -1.32871e-22)
         0.55             (0.903646 0.0671173 -1.00838e-22)             (0.903646 -0.0671173 -1.33582e-22)
        0.555             (0.903199 0.0675192 -9.36952e-23)             (0.903199 -0.0675191 -1.34329e-22)
         0.56             (0.902751 0.0679233 -8.66171e-23)             (0.902751 -0.0679233 -1.35104e-22)
        0.565             (0.902301 0.0683296 -7.95733e-23)             (0.902301 -0.0683296 -1.35906e-22)
         0.57             (0.901851 0.0687383 -7.27375e-23)             (0.901851 -0.0687383 -1.36749e-22)
        0.575             (0.901399 0.0691493 -6.58375e-23)             (0.901399 -0.0691493 -1.37609e-22)
         0.58             (0.900946 0.0695626 -5.89688e-23)             (0.900946 -0.0695626 -1.38498e-22)
        0.585             (0.900492 0.0699783 -5.22683e-23)             (0.900492 -0.0699783 -1.39415e-22)
         0.59             (0.900036 0.0703964 -4.56004e-23)             (0.900036 -0.0703964 -1.40367e-22)
        0.595             (0.89958 0.0708169 -3.90035e-23)             (0.89958 -0.0708169 -1.41349e-22)
          0.6             (0.899122 0.0712399 -3.24508e-23)             (0.899122 -0.0712399 -1.42359e-22)
        0.605             (0.898663 0.0716654 -2.59368e-23)             (0.898663 -0.0716654 -1.43398e-22)
         0.61             (0.898202 0.0720934 -1.96114e-23)             (0.898202 -0.0720934 -1.44478e-22)
        0.615             (0.897741 0.0725239 -1.32686e-23)             (0.897741 -0.0725239 -1.45583e-22)
         0.62             (0.897278 0.0729571 -6.96526e-24)             (0.897278 -0.0729571 -1.46715e-22)
        0.625             (0.896814 0.0733928 -7.21769e-25)             (0.896814 -0.0733928 -1.47876e-22)
         0.63             (0.896349 0.0738311 5.47022e-24)             (0.896349 -0.0738311 -1.49069e-22)
        0.635             (0.895882 0.0742721 1.16131e-23)             (0.895882 -0.0742721 -1.50292e-22)
         0.64             (0.895414 0.0747158 1.77169e-23)             (0.895414 -0.0747158 -1.51543e-22)
        0.645             (0.894945 0.0751621 2.38382e-23)             (0.894945 -0.0751621 -1.52819e-22)
         0.65             (0.894474 0.0756112 2.98791e-23)             (0.894474 -0.0756112 -1.54125e-22)
        0.655             (0.894002 0.076063 3.54909e-23)             (0.894002 -0.076063 -1.55517e-22)
         0.66             (0.893529 0.0765176 4.14074e-23)             (0.893529 -0.0765176 -1.56892e-22)
        0.665             (0.893055 0.076975 4.73124e-23)             (0.893055 -0.076975 -1.58293e-22)
         0.67             (0.892579 0.0774351 5.32175e-23)             (0.892579 -0.0774351 -1.59721e-22)
        0.675             (0.892101 0.0778981 5.87168e-23)             (0.892101 -0.0778981 -1.61227e-22)
         0.68             (0.891623 0.0783639 6.44504e-23)             (0.891623 -0.0783639 -1.62728e-22)
        0.685             (0.891143 0.0788326 7.0043e-23)             (0.891143 -0.0788326 -1.64276e-22)
         0.69             (0.890661 0.0793042 7.56946e-23)             (0.890661 -0.0793042 -1.65841e-22)
        0.695             (0.890179 0.0797787 8.13117e-23)             (0.890179 -0.0797786 -1.67439e-22)
          0.7             (0.889695 0.080256 8.67086e-23)             (0.889694 -0.080256 -1.69094e-22)
        0.705             (0.889209 0.0807363 9.21908e-23)             (0.889209 -0.0807363 -1.70763e-22)
         0.71             (0.888722 0.0812195 9.76117e-23)             (0.888722 -0.0812195 -1.72472e-22)
        0.715             (0.888234 0.0817057 1.03097e-22)             (0.888234 -0.0817057 -1.74198e-22)
         0.72             (0.887744 0.0821948 1.08484e-22)             (0.887744 -0.0821948 -1.75967e-22)
        0.725             (0.887252 0.0826869 1.13843e-22)             (0.887252 -0.0826869 -1.77768e-22)
         0.73             (0.88676 0.0831819 1.19178e-22)             (0.88676 -0.0831819 -1.79603e-22)
        0.735             (0.886266 0.08368 1.24281e-22)             (0.886266 -0.08368 -1.81491e-22)
         0.74             (0.88577 0.084181 1.2951e-22)             (0.88577 -0.084181 -1.83399e-22)
        0.745             (0.885273 0.0846851 1.34698e-22)             (0.885273 -0.084685 -1.8534e-22)
         0.75             (0.884774 0.0851921 1.39849e-22)             (0.884774 -0.0851921 -1.87317e-22)
        0.755             (0.884274 0.0857021 1.44964e-22)             (0.884274 -0.0857021 -1.8933e-22)
         0.76             (0.883772 0.0862152 1.5005e-22)             (0.883772 -0.0862152 -1.91377e-22)
        0.765             (0.883269 0.0867313 1.55122e-22)             (0.883269 -0.0867313 -1.93456e-22)
         0.77             (0.882765 0.0872504 1.6008e-22)             (0.882765 -0.0872503 -1.95585e-22)
        0.775             (0.882258 0.0877725 1.65051e-22)             (0.882258 -0.0877725 -1.9774e-22)
         0.78             (0.881751 0.0882976 1.69923e-22)             (0.881751 -0.0882976 -1.99942e-22)
        0.785             (0.881241 0.0888257 1.74884e-22)             (0.881241 -0.0888257 -2.02165e-22)
         0.79             (0.880731 0.0893568 1.79837e-22)             (0.880731 -0.0893568 -2.04421e-22)
        0.795             (0.880218 0.089891 1.84694e-22)             (0.880218 -0.089891 -2.06724e-22)
          0.8             (0.879704 0.0904281 1.89356e-22)             (0.879704 -0.0904281 -2.09083e-22)
        0.805             (0.879189 0.0909683 1.94137e-22)             (0.879188 -0.0909683 -2.11462e-22)
         0.81             (0.878671 0.0915114 1.98896e-22)             (0.878671 -0.0915114 -2.13878e-22)
        0.815             (0.878153 0.0920575 2.03618e-22)             (0.878153 -0.0920575 -2.16332e-22)
         0.82             (0.877632 0.0926065 2.08282e-22)             (0.877632 -0.0926065 -2.1882e-22)
        0.825             (0.87711 0.0931585 2.1296e-22)             (0.87711 -0.0931585 -2.21357e-22)
         0.83             (0.876586 0.0937135 2.17531e-22)             (0.876586 -0.0937135 -2.23936e-22)
        0.835             (0.876061 0.0942714 2.22125e-22)             (0.876061 -0.0942714 -2.26545e-22)
         0.84             (0.875534 0.0948322 2.26686e-22)             (0.875534 -0.0948322 -2.29195e-22)
        0.845             (0.875005 0.0953959 2.31227e-22)             (0.875005 -0.0953959 -2.31883e-22)
         0.85             (0.874475 0.0959624 2.35724e-22)             (0.874475 -0.0959624 -2.34611e-22)
        0.855             (0.873943 0.0965319 2.40177e-22)             (0.873943 -0.0965319 -2.37382e-22)
         0.86             (0.873409 0.0971041 2.44578e-22)             (0.873409 -0.0971041 -2.402e-22)
        0.865             (0.872874 0.0976792 2.49092e-22)             (0.872874 -0.0976792 -2.43038e-22)
         0.87             (0.872337 0.0982571 2.53515e-22)             (0.872337 -0.0982571 -2.45923e-22)
        0.875             (0.871798 0.0988378 2.57708e-22)             (0.871798 -0.0988378 -2.48875e-22)
         0.88             (0.871257 0.0994212 2.62032e-22)             (0.871257 -0.0994212 -2.51848e-22)
        0.885             (0.870715 0.100007 2.66334e-22)             (0.870715 -0.100007 -2.54864e-22)
         0.89             (0.870171 0.100596 2.70585e-22)             (0.870171 -0.100596 -2.57922e-22)
        0.895             (0.869625 0.101188 2.7481e-22)             (0.869625 -0.101188 -2.61022e-22)
          0.9             (0.869078 0.101782 2.79003e-22)             (0.869078 -0.101782 -2.64163e-22)
        0.905             (0.868528 0.102379 2.8317e-22)             (0.868528 -0.102379 -2.67349e-22)
         0.91             (0.867977 0.102978 2.87304e-22)             (0.867977 -0.102978 -2.70577e-22)
        0.915             (0.867424 0.10358 2.91405e-22)             (0.867424 -0.10358 -2.73847e-22)
         0.92             (0.866869 0.104185 2.95477e-22)             (0.866869 -0.104185 -2.7716e-22)
        0.925             (0.866313 0.104792 2.99527e-22)             (0.866313 -0.104792 -2.80519e-22)
         0.93             (0.865754 0.105401 3.03548e-22)             (0.865754 -0.105401 -2.8392e-22)
        0.935             (0.865194 0.106013 3.07581e-22)             (0.865194 -0.106013 -2.87358e-22)
         0.94             (0.864632 0.106627 3.11486e-22)             (0.864632 -0.106627 -2.90853e-22)
        0.945             (0.864068 0.107244 3.15419e-22)             (0.864068 -0.107244 -2.94385e-22)
         0.95             (0.863502 0.107863 3.19337e-22)             (0.863502 -0.107862 -2.97959e-22)
        0.955             (0.862934 0.108484 3.23088e-22)             (0.862934 -0.108484 -3.01591e-22)
         0.96             (0.862365 0.109107 3.26963e-22)             (0.862365 -0.109107 -3.05251e-22)
        0.965             (0.861793 0.109733 3.30848e-22)             (0.861793 -0.109733 -3.0895e-22)
         0.97             (0.86122 0.11036 3.34356e-22)             (0.86122 -0.11036 -3.12739e-22)
        0.975             (0.860644 0.11099 3.38098e-22)             (0.860644 -0.11099 -3.16537e-22)
         0.98             (0.860067 0.111622 3.41818e-22)             (0.860067 -0.111622 -3.20385e-22)
        0.985             (0.859488 0.112256 3.45554e-22)             (0.859488 -0.112256 -3.24268e-22)
         0.99             (0.858907 0.112892 3.49047e-22)             (0.858907 -0.112892 -3.28224e-22)
        0.995             (0.858324 0.113529 3.52672e-22)             (0.858324 -0.113529 -3.32204e-22)
            1             (0.857738 0.114169 3.56259e-22)             (0.857738 -0.114169 -3.36231e-22)
        1.005             (0.857151 0.11481 3.59787e-22)             (0.857151 -0.11481 -3.40307e-22)
         1.01             (0.856562 0.115453 3.63279e-22)             (0.856562 -0.115453 -3.4443e-22)
        1.015             (0.855971 0.116098 3.66736e-22)             (0.855971 -0.116098 -3.48598e-22)
         1.02             (0.855378 0.116745 3.70135e-22)             (0.855378 -0.116745 -3.52807e-22)
        1.025             (0.854784 0.117393 3.73554e-22)             (0.854784 -0.117393 -3.57079e-22)
         1.03             (0.854187 0.118043 3.76916e-22)             (0.854187 -0.118043 -3.61386e-22)
        1.035             (0.853588 0.118694 3.80292e-22)             (0.853588 -0.118694 -3.65735e-22)
         1.04             (0.852986 0.119347 3.83426e-22)             (0.852986 -0.119347 -3.70152e-22)
        1.045             (0.852383 0.120001 3.86655e-22)             (0.852383 -0.120001 -3.74602e-22)
         1.05             (0.851778 0.120656 3.89857e-22)             (0.851778 -0.120656 -3.79098e-22)
        1.055             (0.851171 0.121313 3.93031e-22)             (0.851171 -0.121313 -3.83638e-22)
         1.06             (0.850562 0.121971 3.96122e-22)             (0.850562 -0.121971 -3.88232e-22)
        1.065             (0.849951 0.12263 3.99213e-22)             (0.849951 -0.12263 -3.92872e-22)
         1.07             (0.849337 0.12329 4.02253e-22)             (0.849337 -0.12329 -3.97557e-22)
        1.075             (0.848722 0.123952 4.05249e-22)             (0.848722 -0.123952 -4.02288e-22)
         1.08             (0.848104 0.124614 4.08214e-22)             (0.848104 -0.124614 -4.07069e-22)
        1.085             (0.847485 0.125277 4.1113e-22)             (0.847485 -0.125277 -4.11896e-22)
         1.09             (0.846863 0.125941 4.13987e-22)             (0.846863 -0.125941 -4.16765e-22)
        1.095             (0.846239 0.126606 4.16844e-22)             (0.846239 -0.126606 -4.21693e-22)
          1.1             (0.845613 0.127272 4.19633e-22)             (0.845613 -0.127272 -4.26662e-22)
        1.105             (0.844985 0.127938 4.22379e-22)             (0.844985 -0.127938 -4.31677e-22)
         1.11             (0.844355 0.128605 4.25081e-22)             (0.844355 -0.128605 -4.36739e-22)
        1.115             (0.843723 0.129273 4.27732e-22)             (0.843723 -0.129273 -4.41844e-22)
         1.12             (0.843088 0.129941 4.30375e-22)             (0.843088 -0.129941 -4.47005e-22)
        1.125             (0.842452 0.130609 4.33013e-22)             (0.842452 -0.130609 -4.52201e-22)
         1.13             (0.841813 0.131278 4.35438e-22)             (0.841813 -0.131278 -4.5746e-22)
        1.135             (0.841172 0.131948 4.37892e-22)             (0.841172 -0.131948 -4.62757e-22)
         1.14             (0.840529 0.132617 4.40368e-22)             (0.840529 -0.132617 -4.68095e-22)
        1.145             (0.839884 0.133287 4.42817e-22)             (0.839884 -0.133287 -4.73481e-22)
         1.15             (0.839237 0.133957 4.44991e-22)             (0.839237 -0.133957 -4.78936e-22)
        1.155             (0.838587 0.134627 4.47092e-22)             (0.838587 -0.134627 -4.84442e-22)
         1.16             (0.837936 0.135297 4.49342e-22)             (0.837936 -0.135297 -4.89968e-22)
        1.165             (0.837282 0.135966 4.51553e-22)             (0.837282 -0.135966 -4.95539e-22)
         1.17             (0.836626 0.136636 4.5369e-22)             (0.836626 -0.136636 -5.01159e-22)
        1.175             (0.835968 0.137306 4.5579e-22)             (0.835968 -0.137306 -5.06822e-22)
         1.18             (0.835307 0.137975 4.578e-22)             (0.835307 -0.137975 -5.12536e-22)
        1.185             (0.834645 0.138644 4.59767e-22)             (0.834645 -0.138644 -5.18294e-22)
         1.19             (0.83398 0.139312 4.61676e-22)             (0.83398 -0.139312 -5.24097e-22)
        1.195             (0.833313 0.139981 4.6352e-22)             (0.833313 -0.139981 -5.29944e-22)
          1.2             (0.832644 0.140648 4.6534e-22)             (0.832644 -0.140648 -5.35839e-22)
        1.205             (0.831973 0.141315 4.6709e-22)             (0.831973 -0.141315 -5.41776e-22)
         1.21             (0.831299 0.141982 4.68809e-22)             (0.831299 -0.141982 -5.47753e-22)
        1.215             (0.830623 0.142647 4.70412e-22)             (0.830623 -0.142647 -5.53783e-22)
         1.22             (0.829946 0.143312 4.72042e-22)             (0.829946 -0.143312 -5.59847e-22)
        1.225             (0.829265 0.143976 4.73424e-22)             (0.829265 -0.143976 -5.65972e-22)
         1.23             (0.828583 0.144639 4.74887e-22)             (0.828583 -0.144639 -5.72125e-22)
        1.235             (0.827899 0.145302 4.76256e-22)             (0.827899 -0.145302 -5.78327e-22)
         1.24             (0.827212 0.145963 4.77562e-22)             (0.827212 -0.145963 -5.84566e-22)
        1.245             (0.826523 0.146623 4.78857e-22)             (0.826523 -0.146623 -5.90852e-22)
         1.25             (0.825832 0.147282 4.80087e-22)             (0.825832 -0.147282 -5.97174e-22)
        1.255             (0.825139 0.14794 4.81257e-22)             (0.825138 -0.14794 -6.03537e-22)
         1.26             (0.824443 0.148596 4.82225e-22)             (0.824443 -0.148596 -6.09957e-22)
        1.265             (0.823745 0.149251 4.83198e-22)             (0.823745 -0.149251 -6.1641e-22)
         1.27             (0.823045 0.149905 4.84155e-22)             (0.823045 -0.149905 -6.22897e-22)
        1.275             (0.822343 0.150557 4.85093e-22)             (0.822343 -0.150557 -6.29418e-22)
         1.28             (0.821639 0.151208 4.85802e-22)             (0.821639 -0.151208 -6.36e-22)
        1.285             (0.820933 0.151857 4.86555e-22)             (0.820933 -0.151857 -6.42609e-22)
         1.29             (0.820224 0.152504 4.87234e-22)             (0.820224 -0.152504 -6.49255e-22)
        1.295             (0.819513 0.15315 4.87838e-22)             (0.819513 -0.15315 -6.5594e-22)
          1.3             (0.8188 0.153794 4.88361e-22)             (0.8188 -0.153794 -6.62663e-22)
        1.305             (0.818085 0.154436 4.88828e-22)             (0.818085 -0.154436 -6.69424e-22)
         1.31             (0.817367 0.155076 4.89205e-22)             (0.817367 -0.155076 -6.7622e-22)
        1.315             (0.816648 0.155714 4.89552e-22)             (0.816648 -0.155714 -6.83057e-22)
         1.32             (0.815926 0.15635 4.89804e-22)             (0.815926 -0.15635 -6.89927e-22)
        1.325             (0.815202 0.156984 4.89832e-22)             (0.815202 -0.156984 -6.96847e-22)
         1.33             (0.814476 0.157616 4.89898e-22)             (0.814476 -0.157616 -7.03792e-22)
        1.335             (0.813748 0.158246 4.89828e-22)             (0.813748 -0.158246 -7.10778e-22)
         1.34             (0.813018 0.158874 4.89836e-22)             (0.813018 -0.158874 -7.17783e-22)
        1.345             (0.812285 0.159499 4.8981e-22)             (0.812285 -0.159499 -7.24811e-22)
         1.35             (0.811551 0.160122 4.89608e-22)             (0.811551 -0.160122 -7.31887e-22)
        1.355             (0.810814 0.160742 4.89267e-22)             (0.810814 -0.160742 -7.39005e-22)
         1.36             (0.810075 0.16136 4.88874e-22)             (0.810075 -0.16136 -7.46148e-22)
        1.365             (0.809334 0.161976 4.88393e-22)             (0.809334 -0.161976 -7.53326e-22)
         1.37             (0.808591 0.162588 4.87843e-22)             (0.808591 -0.162588 -7.60532e-22)
        1.375             (0.807846 0.163199 4.87242e-22)             (0.807846 -0.163199 -7.67765e-22)
         1.38             (0.807099 0.163806 4.86499e-22)             (0.807099 -0.163806 -7.75035e-22)
        1.385             (0.806349 0.164411 4.85583e-22)             (0.806349 -0.164411 -7.82344e-22)
         1.39             (0.805598 0.165013 4.84696e-22)             (0.805598 -0.165013 -7.89669e-22)
        1.395             (0.804845 0.165612 4.83736e-22)             (0.804845 -0.165612 -7.9702e-22)
          1.4             (0.804089 0.166208 4.82687e-22)             (0.804089 -0.166208 -8.04399e-22)
        1.405             (0.803331 0.166802 4.81549e-22)             (0.803331 -0.166802 -8.11805e-22)
         1.41             (0.802572 0.167392 4.8032e-22)             (0.802572 -0.167392 -8.19238e-22)
        1.415             (0.80181 0.167979 4.79026e-22)             (0.80181 -0.167979 -8.26694e-22)
         1.42             (0.801046 0.168564 4.77627e-22)             (0.801046 -0.168564 -8.34177e-22)