/*--------------------------------*- C++ -*----------------------------------*\
  =========                 |
  \\      /  F ield         | OpenFOAM: The Open Source CFD Toolbox
   \\    /   O peration     | Website:  https://openfoam.org
    \\  /    A nd           | Version:  7
     \\/     M anipulation  |
\*---------------------------------------------------------------------------*/
FoamFile
{
    version     2.0;
    format      ascii;
    class       volVectorField;
    location    "38.999394";
    object      U;
}
// * * * * * * * * * * * * * * * * * * * * * * * * * * * * * * * * * * * * * //

dimensions      [0 1 -1 0 0 0 0];

internalField   nonuniform List<vector> 
5800
(
(-0.173938 0.00147692 -4.74018e-22)
(-0.167163 0.00432603 -1.44552e-20)
(-0.153557 0.00683638 2.16068e-20)
(-0.132975 0.00881129 7.10667e-21)
(-0.105103 0.0101285 -1.81357e-20)
(-0.177719 0.00176236 2.81011e-21)
(-0.180765 0.0017603 2.68527e-21)
(-0.183779 0.00168407 -4.99636e-21)
(-0.186688 0.00158948 2.40467e-21)
(-0.189486 0.00148912 -1.41626e-21)
(-0.192161 0.00138818 -5.05458e-22)
(-0.194708 0.00128938 2.86811e-21)
(-0.197126 0.00119379 -4.20371e-21)
(-0.199414 0.0011017 1.83829e-21)
(-0.201574 0.00101306 1.75001e-21)
(-0.203604 0.000927657 -3.66119e-21)
(-0.205505 0.000845153 -1.04534e-22)
(-0.207276 0.000765165 3.03256e-21)
(-0.208914 0.000687286 -2.34286e-22)
(-0.210417 0.000611112 -1.30664e-21)
(-0.211781 0.000536275 1.15234e-21)
(-0.213001 0.000462484 -5.61984e-22)
(-0.214071 0.000389561 7.68291e-22)
(-0.214986 0.000317461 -5.71503e-22)
(-0.215737 0.000246211 -3.95312e-22)
(-0.216318 0.000175848 1.72095e-21)
(-0.216717 0.000106473 -4.9805e-22)
(-0.216934 3.76185e-05 -1.1702e-21)
(-0.216966 -3.45632e-05 7.81086e-22)
(-0.216797 -0.000108136 2.6421e-22)
(-0.216412 -0.00018307 -9.90719e-22)
(-0.215795 -0.000259722 1.16273e-21)
(-0.214928 -0.000338513 -9.62342e-22)
(-0.213792 -0.000419884 -6.94611e-22)
(-0.212365 -0.000504283 1.99532e-21)
(-0.210624 -0.000592145 -1.40349e-21)
(-0.208543 -0.00068388 -2.56155e-22)
(-0.206094 -0.000779912 2.87558e-22)
(-0.203249 -0.000880208 4.89839e-24)
(-0.199975 -0.000985644 7.84397e-22)
(-0.196239 -0.00109642 -1.04887e-21)
(-0.192004 -0.00121285 8.82567e-22)
(-0.187233 -0.00133511 -1.02016e-23)
(-0.181885 -0.00146327 -5.74455e-23)
(-0.175921 -0.00159729 -1.03919e-22)
(-0.169299 -0.00173688 6.38065e-22)
(-0.161978 -0.0018819 -1.72769e-23)
(-0.15392 -0.00203023 -2.64647e-22)
(-0.145091 -0.0021826 -1.23398e-22)
(-0.135453 -0.00233761 6.99978e-23)
(-0.124976 -0.00249397 -3.67175e-22)
(-0.11363 -0.00265066 4.61842e-22)
(-0.101397 -0.0028041 -1.19123e-22)
(-0.0882658 -0.00295403 2.49879e-22)
(-0.0742269 -0.00309811 -8.16417e-23)
(-0.0592812 -0.00323415 7.59073e-24)
(-0.0434424 -0.00335942 3.1446e-23)
(-0.0267265 -0.0034735 -1.41148e-22)
(-0.00916625 -0.00357317 1.5684e-22)
(0.0092048 -0.00365469 -1.33514e-22)
(0.0283428 -0.00372123 1.17053e-23)
(0.0481843 -0.00376975 7.83235e-23)
(0.0686938 -0.00379861 -3.51571e-24)
(0.0897562 -0.00381044 -2.84134e-23)
(0.11143 -0.00380192 -1.39613e-23)
(0.133373 -0.00378142 -6.23367e-24)
(0.156109 -0.00373658 1.4891e-23)
(0.178385 -0.00369742 -1.12435e-23)
(0.202478 -0.00361406 -6.69517e-24)
(0.223978 -0.00358527 1.40931e-24)
(0.250744 -0.00345176 -2.83127e-24)
(0.269066 -0.00348243 2.17985e-25)
(0.301935 -0.0032875 1.14183e-24)
(0.312354 -0.00342214 -2.19794e-25)
(0.358271 -0.00328956 -6.75421e-25)
(-0.170349 0.0052135 -1.05059e-21)
(-0.173323 0.00521814 -1.87478e-21)
(-0.176229 0.0049994 -1.78975e-21)
(-0.179019 0.00472425 2.58545e-22)
(-0.181706 0.00442986 -1.29341e-21)
(-0.184275 0.00413255 1.04545e-20)
(-0.186719 0.00384107 -7.61979e-21)
(-0.189037 0.0035588 5.69516e-21)
(-0.191227 0.00328671 -4.32203e-21)
(-0.193289 0.00302467 -2.9288e-21)
(-0.195224 0.00277198 3.01873e-21)
(-0.19703 0.00252762 3.03963e-21)
(-0.198706 0.00229038 -6.73283e-21)
(-0.20025 0.00205899 1.54945e-21)
(-0.201658 0.00183217 -2.84438e-21)
(-0.202926 0.00160873 2.93505e-21)
(-0.20405 0.00138769 -7.28557e-22)
(-0.205022 0.00116841 5.59707e-21)
(-0.205837 0.000950571 -2.30584e-21)
(-0.206487 0.000734176 8.35473e-22)
(-0.206963 0.000519813 1.33408e-21)
(-0.207257 0.000308512 -4.03515e-21)
(-0.207369 9.36434e-05 5.03833e-22)
(-0.207292 -0.000128367 -6.53497e-22)
(-0.20701 -0.000355634 -1.24662e-23)
(-0.20651 -0.000588477 4.89563e-22)
(-0.205774 -0.00082775 2.05498e-21)
(-0.204785 -0.00107454 -6.98929e-22)
(-0.203524 -0.00133004 -1.59777e-21)
(-0.201969 -0.00159544 3.03221e-21)
(-0.200097 -0.00187187 -5.11905e-21)
(-0.197883 -0.0021603 1.2636e-21)
(-0.195298 -0.0024618 4.42203e-21)
(-0.192315 -0.00277569 -2.9579e-21)
(-0.188902 -0.00310441 -1.20997e-21)
(-0.185024 -0.00344811 1.83696e-21)
(-0.180647 -0.00380723 -3.11302e-21)
(-0.175733 -0.00418178 4.45563e-21)
(-0.170244 -0.0045715 -1.88813e-21)
(-0.164139 -0.00497577 -5.53733e-22)
(-0.157381 -0.0053932 4.15278e-22)
(-0.149925 -0.00582314 -1.12929e-23)
(-0.141738 -0.00625859 2.13408e-22)
(-0.132785 -0.00670162 -7.78289e-23)
(-0.123031 -0.00714799 5.09923e-22)
(-0.112448 -0.00759387 -3.04957e-22)
(-0.101005 -0.00803644 5.51657e-22)
(-0.0886878 -0.00846574 -7.60258e-22)
(-0.0754858 -0.00888146 -1.74796e-22)
(-0.0613913 -0.00927761 -2.661e-22)
(-0.0464063 -0.00964885 7.45581e-22)
(-0.0305467 -0.00998797 -8.65012e-22)
(-0.0138291 -0.0102956 -2.23932e-22)
(0.00371371 -0.0105611 2.4552e-22)
(0.0220455 -0.0107815 -4.5776e-23)
(0.0411217 -0.0109591 -6.48426e-23)
(0.0608806 -0.0110906 -2.88828e-23)
(0.0812864 -0.0111709 2.75483e-23)
(0.102221 -0.0112089 -1.30542e-22)
(0.123752 -0.0111936 9.20037e-23)
(0.145523 -0.0111513 1.27787e-23)
(0.168085 -0.0110419 -3.86297e-24)
(0.190144 -0.010958 2.58351e-23)
(0.214041 -0.0107423 -1.56959e-23)
(0.235289 -0.0106989 -4.28306e-25)
(0.261837 -0.0103343 1.09225e-25)
(0.279899 -0.0104705 6.32422e-26)
(0.312486 -0.00991609 1.28208e-24)
(0.322734 -0.0103507 -6.6882e-25)
(0.368149 -0.00997391 5.56712e-24)
(-0.155593 0.00841476 4.61624e-23)
(-0.158435 0.00844569 5.79444e-21)
(-0.161134 0.00810579 1.20687e-21)
(-0.16369 0.00766868 -1.14903e-20)
(-0.166161 0.00719303 -7.18011e-21)
(-0.168524 0.00670839 6.42684e-21)
(-0.170769 0.00623126 1.52002e-20)
(-0.172892 0.0057681 -8.42098e-21)
(-0.174892 0.00532088 -3.17661e-21)
(-0.176768 0.00488958 1.80458e-21)
(-0.178519 0.00447313 4.0377e-21)
(-0.180142 0.00406989 -5.48457e-21)
(-0.181637 0.00367792 6.18417e-21)
(-0.183 0.00329512 -5.35812e-21)
(-0.184227 0.00291936 1.07402e-20)
(-0.185313 0.00254863 -1.01907e-20)
(-0.186252 0.00218131 1.795e-21)
(-0.187037 0.00181634 -1.40758e-20)
(-0.187662 0.00145338 5.11211e-21)
(-0.188117 0.00109302 -3.87924e-21)
(-0.188394 0.000737195 1.56022e-21)
(-0.188487 0.000386479 1.35277e-20)
(-0.188397 1.88005e-05 -7.30859e-21)
(-0.188112 -0.000356055 2.45236e-21)
(-0.187616 -0.000738274 -6.72073e-21)
(-0.186895 -0.00112961 5.70204e-21)
(-0.185932 -0.00153184 -7.98418e-21)
(-0.18471 -0.00194683 3.28403e-21)
(-0.183211 -0.00237652 -1.06111e-21)
(-0.181412 -0.00282285 2.52061e-21)
(-0.179291 -0.00328759 2.52163e-21)
(-0.176823 -0.00377228 3.39903e-21)
(-0.173978 -0.0042788 -2.94764e-21)
(-0.170731 -0.00480506 5.80769e-22)
(-0.167051 -0.00535557 -1.55381e-21)
(-0.162904 -0.00593028 2.99065e-21)
(-0.158257 -0.00652972 -1.64381e-21)
(-0.153073 -0.00715368 7.79208e-22)
(-0.147315 -0.00780148 -3.52318e-21)
(-0.140945 -0.00847195 7.7705e-22)
(-0.133927 -0.00916254 1.34024e-21)
(-0.126218 -0.00987247 -2.49791e-21)
(-0.117787 -0.0105889 1.88926e-21)
(-0.108603 -0.0113159 2.10721e-21)
(-0.0986325 -0.0120463 -1.38011e-21)
(-0.0878512 -0.0127735 -3.87216e-22)
(-0.0762304 -0.013494 -1.22584e-21)
(-0.0637575 -0.0141899 2.68959e-22)
(-0.0504272 -0.0148615 3.88946e-22)
(-0.0362342 -0.0154999 8.17624e-22)
(-0.0211818 -0.0160965 -8.84307e-22)
(-0.00529035 -0.0166395 5.69177e-22)
(0.0114227 -0.0171262 3.70029e-22)
(0.0289232 -0.0175469 -3.82451e-22)
(0.0471716 -0.0178983 2.49398e-23)
(0.0661228 -0.0181752 2.86478e-22)
(0.0857158 -0.0183798 -1.04292e-22)
(0.105916 -0.0185017 6.70182e-24)
(0.1266 -0.0185575 1.4345e-22)
(0.14785 -0.0185263 -2.20723e-24)
(0.169285 -0.0184566 1.40223e-22)
(0.191506 -0.0182742 -1.00023e-22)
(0.213146 -0.0181428 -2.82186e-23)
(0.23666 -0.0177882 5.80378e-23)
(0.257417 -0.0177278 -1.63081e-23)
(0.283537 -0.0171321 7.73357e-24)
(0.301099 -0.0173632 8.86909e-25)
(0.333126 -0.0164676 -6.98621e-24)
(0.343049 -0.0171656 3.74761e-24)
(0.387475 -0.0165716 -9.4844e-24)
(-0.13339 0.011245 2.0926e-22)
(-0.136071 0.011306 -2.17535e-20)
(-0.138476 0.0108743 -4.85799e-21)
(-0.140698 0.0103061 2.47321e-20)
(-0.142858 0.00967106 -1.76168e-20)
(-0.144928 0.00901518 3.02123e-21)
(-0.146889 0.00836509 1.08408e-20)
(-0.148738 0.0077314 -9.05614e-21)
(-0.150472 0.00711765 -8.67143e-21)
(-0.152087 0.00652428 1.43784e-20)
(-0.153581 0.00595013 4.67483e-21)
(-0.154951 0.00539312 -5.36028e-21)
(-0.156194 0.0048507 -5.46822e-21)
(-0.157306 0.00432005 3.77347e-22)
(-0.158281 0.00379824 1.2426e-20)
(-0.159114 0.00328248 -6.20081e-21)
(-0.159798 0.00277043 -6.04516e-22)
(-0.160324 0.00226053 -6.78738e-21)
(-0.160684 0.0017523 -4.58085e-22)
(-0.160869 0.00124707 2.772e-21)
(-0.160868 0.00074767 6.84387e-21)
(-0.16069 0.000249219 -7.52583e-21)
(-0.160325 -0.000268299 6.42729e-21)
(-0.159749 -0.000794436 -3.61709e-21)
(-0.158954 -0.00133136 -1.70143e-21)
(-0.157925 -0.00188135 -8.09562e-22)
(-0.156648 -0.00244676 4.47019e-21)
(-0.155104 -0.00303011 4.92952e-21)
(-0.153274 -0.00363396 -9.37443e-21)
(-0.151137 -0.00426094 -1.99984e-21)
(-0.148671 -0.00491349 8.88062e-21)
(-0.14585 -0.0055936 -2.99652e-21)
(-0.142646 -0.00630442 -5.4503e-21)
(-0.139034 -0.00704094 2.30975e-21)
(-0.134985 -0.00781069 -3.24415e-21)
(-0.130466 -0.00861327 3.19133e-21)
(-0.125445 -0.00944913 -1.93233e-21)
(-0.119888 -0.0103178 7.10767e-21)
(-0.11376 -0.011218 8.54974e-22)
(-0.107026 -0.012148 -3.87488e-22)
(-0.0996524 -0.0131038 -2.32122e-21)
(-0.0915975 -0.0140864 -3.63568e-21)
(-0.082834 -0.0150739 -9.3556e-22)
(-0.0733372 -0.0160741 4.02467e-21)
(-0.0630748 -0.0170763 4.70658e-22)
(-0.0520292 -0.0180717 -1.61205e-21)
(-0.0401734 -0.0190589 3.70434e-22)
(-0.0274975 -0.0200069 2.25635e-22)
(-0.014004 -0.0209195 1.42218e-21)
(0.000309311 -0.0217826 -7.87654e-22)
(0.0154374 -0.0225857 -4.96515e-22)
(0.0313559 -0.0233168 7.95864e-23)
(0.0480425 -0.0239658 1.34883e-21)
(0.0654606 -0.0245255 -7.26365e-22)
(0.0835715 -0.0249906 -7.61097e-22)
(0.102326 -0.0253504 2.54255e-22)
(0.121664 -0.0256127 8.57295e-23)
(0.141554 -0.0257605 2.01538e-23)
(0.161863 -0.0258216 -3.81422e-22)
(0.182699 -0.0257601 1.75121e-22)
(0.203639 -0.0256542 -3.88492e-23)
(0.225362 -0.0253858 3.74374e-23)
(0.246391 -0.0252021 -6.66055e-23)
(0.269346 -0.024699 -5.43487e-23)
(0.289395 -0.024617 2.27735e-23)
(0.314887 -0.0237911 -7.3073e-24)
(0.331734 -0.0240995 -4.91194e-24)
(0.362934 -0.0228911 6.36156e-24)
(0.3724 -0.0237971 -2.41049e-24)
(0.415388 -0.0230251 1.48533e-23)
(-0.103572 0.013658 2.26991e-20)
(-0.106133 0.013683 -8.13242e-21)
(-0.108169 0.0131918 5.65022e-21)
(-0.109971 0.0125358 -3.64432e-20)
(-0.111749 0.0117732 1.72206e-20)
(-0.113458 0.0109706 -2.27135e-20)
(-0.115075 0.0101671 2.53746e-20)
(-0.116593 0.00937865 -2.3803e-20)
(-0.118006 0.00861121 -6.01338e-21)
(-0.11931 0.00786635 4.86273e-20)
(-0.120499 0.0071432 -2.68227e-20)
(-0.121568 0.00643962 2.30626e-20)
(-0.122513 0.0057527 -4.81158e-21)
(-0.123328 0.00507911 -5.04384e-23)
(-0.124006 0.00441527 -1.40062e-20)
(-0.124541 0.00375763 -6.05236e-21)
(-0.124924 0.00310316 -2.89707e-21)
(-0.125145 0.00244972 7.44696e-21)
(-0.125195 0.00179745 -1.84311e-20)
(-0.125061 0.00115231 8.97837e-21)
(-0.124735 0.000517364 -5.21706e-21)
(-0.124231 -0.000146234 2.35436e-21)
(-0.123534 -0.00081581 5.1219e-21)
(-0.122616 -0.00149457 1.03092e-20)
(-0.121469 -0.00218717 -6.67004e-21)
(-0.120078 -0.00289653 -5.78098e-21)
(-0.118428 -0.00362566 4.45697e-21)
(-0.116501 -0.0043777 6.83176e-22)
(-0.114279 -0.00515577 4.72112e-21)
(-0.11174 -0.00596309 -3.88205e-21)
(-0.108863 -0.00680272 -5.1153e-21)
(-0.105625 -0.00767657 8.24129e-21)
(-0.101994 -0.00859065 -7.10568e-21)
(-0.0979475 -0.0095344 4.84036e-21)
(-0.0934607 -0.01052 1.85847e-21)
(-0.0885009 -0.0115462 -3.03684e-21)
(-0.0830381 -0.0126132 -1.80501e-21)
(-0.0770404 -0.01372 2.4965e-21)
(-0.0704761 -0.0148648 -4.25358e-21)
(-0.0633123 -0.0160447 1.15674e-21)
(-0.0555235 -0.0172546 -1.47655e-21)
(-0.0470668 -0.0185032 5.3795e-22)
(-0.0379174 -0.0197489 -5.12097e-22)
(-0.0280604 -0.0210077 2.39578e-21)
(-0.0174653 -0.0222672 -2.26032e-21)
(-0.00612364 -0.0235174 1.50346e-21)
(0.00599021 -0.0247415 -2.89231e-21)
(0.0188851 -0.0259252 9.71328e-22)
(0.0325475 -0.02706 2.66767e-21)
(0.0469756 -0.0281273 -2.07995e-21)
(0.0621601 -0.0291154 -1.31539e-21)
(0.078073 -0.0300119 1.63963e-21)
(0.0946899 -0.0308045 -1.18232e-21)
(0.111969 -0.0314798 5.96122e-22)
(0.129871 -0.0320366 9.4886e-23)
(0.148345 -0.0324579 1.3522e-22)
(0.167329 -0.0327586 -7.03588e-22)
(0.186799 -0.0329123 2.26291e-22)
(0.206608 -0.0329627 -8.78062e-24)
(0.226898 -0.0328526 2.565e-22)
(0.247192 -0.0326996 -3.79051e-22)
(0.268268 -0.032329 1.38966e-22)
(0.28851 -0.032087 3.75581e-23)
(0.310742 -0.0314233 2.85028e-23)
(0.329893 -0.0313136 -5.42012e-24)
(0.354568 -0.0302596 1.2235e-23)
(0.370523 -0.0306221 3.76714e-24)
(0.400645 -0.0291368 4.08506e-24)
(0.409552 -0.0301833 2.35861e-24)
(0.450701 -0.0292783 -3.49299e-23)
(-0.0657873 0.0156385 -1.03007e-20)
(-0.0683858 0.0154817 9.36474e-21)
(-0.069965 0.014977 6.52952e-21)
(-0.0713 0.0142832 -4.215e-20)
(-0.0726602 0.0134347 4.36484e-20)
(-0.0739787 0.0125202 -1.46435e-22)
(-0.0752242 0.0115908 -2.97264e-20)
(-0.0763884 0.0106692 1.86168e-20)
(-0.0774626 0.00976548 5.64758e-21)
(-0.0784381 0.00888306 5.98077e-21)
(-0.0793072 0.00802214 -2.25871e-20)
(-0.0800624 0.00718104 -2.00928e-20)
(-0.0806965 0.00635697 6.78123e-21)
(-0.0812021 0.0055464 1.85774e-20)
(-0.0815713 0.00474533 -1.14545e-20)
(-0.0817951 0.0039496 3.09571e-20)
(-0.0818638 0.0031554 -3.39585e-20)
(-0.0817658 0.00236003 3.74415e-20)
(-0.0814852 0.00156525 -1.02449e-20)
(-0.0810087 0.000782312 -2.65586e-20)
(-0.0803584 -7.96144e-06 2.29073e-20)
(-0.0795255 -0.000826668 -2.22335e-21)
(-0.0784698 -0.00164802 -3.63696e-21)
(-0.0771864 -0.00248087 1.11921e-20)
(-0.0756643 -0.00333029 -7.77712e-21)
(-0.0738883 -0.00419993 -1.85962e-20)
(-0.0718421 -0.00509348 1.51678e-20)
(-0.0695083 -0.00601458 -3.6006e-21)
(-0.066868 -0.00696679 -3.25424e-21)
(-0.0639011 -0.00795362 6.49996e-21)
(-0.0605852 -0.00897839 1.28744e-20)
(-0.0569019 -0.0100433 -3.60552e-21)
(-0.0528162 -0.011165 -2.35869e-20)
(-0.0483054 -0.0123128 1.77187e-20)
(-0.0433515 -0.0135092 -8.88183e-21)
(-0.0379217 -0.0147535 2.82054e-21)
(-0.0319885 -0.0160452 6.95745e-21)
(-0.0255231 -0.0173828 -2.65534e-21)
(-0.018497 -0.0187638 -5.1503e-23)
(-0.0108805 -0.0201845 1.86176e-21)
(-0.00265964 -0.0216424 -5.48702e-21)
(0.00621192 -0.0231225 -2.60769e-21)
(0.0157613 -0.0246157 6.24249e-21)
(0.025984 -0.0261186 1.58094e-21)
(0.0369102 -0.0276178 -4.10321e-21)
(0.0485464 -0.0291027 1.53491e-21)
(0.0609046 -0.0305424 -1.10178e-21)
(0.0739901 -0.0319392 -2.73199e-21)
(0.08779 -0.0332719 -2.53923e-22)
(0.102292 -0.03452 3.16442e-21)
(0.117484 -0.0356703 1.37609e-21)
(0.13333 -0.0367051 1.38597e-21)
(0.149807 -0.0376148 -7.4474e-22)
(0.166865 -0.03838 1.31982e-21)
(0.184469 -0.0390038 -1.70422e-21)
(0.202561 -0.0394621 8.5632e-22)
(0.221082 -0.0397789 -7.45329e-22)
(0.240014 -0.0399158 4.28806e-23)
(0.259195 -0.0399375 4.39959e-22)
(0.278806 -0.0397584 -3.8119e-22)
(0.29831 -0.0395461 1.92038e-22)
(0.318595 -0.0390554 -1.33444e-22)
(0.337894 -0.0387479 -1.96531e-22)
(0.359248 -0.0379119 -6.73174e-23)
(0.377343 -0.0377661 9.49557e-24)
(0.401023 -0.0364888 -2.50807e-24)
(0.41595 -0.0368773 -7.51266e-24)
(0.444758 -0.0351559 3.50578e-24)
(0.453035 -0.0362714 -2.0049e-24)
(0.492004 -0.0352776 1.72312e-23)
(-0.0193898 0.0167704 3.44534e-20)
(-0.022262 0.0167112 -2.64587e-20)
(-0.02334 0.0162563 4.37653e-20)
(-0.0242383 0.0155322 -1.64528e-20)
(-0.0252131 0.0146384 1.35053e-20)
(-0.0261701 0.0136548 -3.48191e-20)
(-0.0270737 0.0126328 5.39957e-21)
(-0.0279134 0.0116042 -1.48657e-21)
(-0.028678 0.0105848 7.91662e-21)
(-0.0293559 0.00958113 2.2225e-20)
(-0.0299359 0.00859523 -1.80538e-20)
(-0.030408 0.00762662 1.28968e-20)
(-0.0307622 0.00667322 7.85451e-21)
(-0.0309892 0.00573179 3.17658e-21)
(-0.0310789 0.00479827 -2.28074e-20)
(-0.031021 0.00386806 1.32299e-20)
(-0.030804 0.00293644 -1.93075e-20)
(-0.0304138 0.00199986 2.33653e-21)
(-0.0298285 0.0010626 -5.42213e-22)
(-0.0290482 0.000138942 2.56168e-20)
(-0.0280912 -0.000824348 -2.19214e-20)
(-0.026932 -0.00178896 -3.03074e-21)
(-0.0255439 -0.00276072 -5.29496e-21)
(-0.0239181 -0.00374839 2.32036e-20)
(-0.0220413 -0.00475598 -8.35765e-21)
(-0.0198984 -0.00578749 -8.13562e-21)
(-0.0174731 -0.00684704 -5.07201e-21)
(-0.0147479 -0.00793864 1.94652e-20)
(-0.0117042 -0.00906625 -6.96825e-21)
(-0.00832246 -0.0102337 -9.48016e-21)
(-0.00458026 -0.0114447 -8.02027e-21)
(-0.00046935 -0.0127052 2.24268e-20)
(0.00405517 -0.0140104 -6.02282e-21)
(0.00902172 -0.0153613 -2.05087e-21)
(0.0144295 -0.0167664 -4.86517e-21)
(0.0203148 -0.0182243 -4.08577e-21)
(0.0267026 -0.0197343 4.1385e-21)
(0.0336183 -0.0212944 3.9827e-21)
(0.0410865 -0.0229015 -4.34024e-21)
(0.0491319 -0.024551 -6.97039e-21)
(0.0577708 -0.0262418 9.07661e-21)
(0.0670297 -0.027938 -1.44793e-21)
(0.0769351 -0.029662 5.79945e-24)
(0.0874866 -0.0313894 -2.0119e-21)
(0.098701 -0.0331063 3.40122e-21)
(0.110581 -0.0347992 -4.18135e-21)
(0.123128 -0.0364421 4.97514e-21)
(0.136343 -0.0380246 -9.6324e-23)
(0.15021 -0.0395274 -4.12744e-22)
(0.164708 -0.0409281 -1.35822e-21)
(0.179822 -0.0422121 -1.65014e-21)
(0.195509 -0.0433574 5.83038e-22)
(0.211746 -0.044356 1.3879e-21)
(0.228477 -0.0451835 -3.12836e-21)
(0.245668 -0.0458478 2.17115e-21)
(0.263261 -0.0463168 -1.14751e-21)
(0.281193 -0.0466266 4.21331e-22)
(0.299459 -0.0467228 2.32521e-22)
(0.317877 -0.0466977 -3.84854e-22)
(0.336676 -0.0464282 -7.43983e-23)
(0.35525 -0.0461444 2.13452e-22)
(0.374607 -0.0455162 -6.96807e-23)
(0.392822 -0.0451356 8.53168e-23)
(0.413152 -0.0441173 1.79974e-22)
(0.430063 -0.0439248 1.5051e-23)
(0.452579 -0.0424328 1.31263e-23)
(0.466384 -0.0428165 1.91684e-23)
(0.49366 -0.0409021 -6.14223e-24)
(0.501266 -0.0420173 -1.46061e-24)
(0.537775 -0.0409733 -2.25203e-25)
(0.0367886 0.0173523 1.82111e-20)
(0.0338046 0.017619 3.78148e-20)
(0.0325889 0.0171176 -4.44364e-20)
(0.031932 0.0163507 -1.26946e-21)
(0.0312412 0.0154477 9.92674e-21)
(0.0305281 0.0144339 -9.10865e-21)
(0.0298524 0.0133516 -1.89974e-20)
(0.0292331 0.0122415 -2.728e-21)
(0.02868 0.0111269 4.62741e-20)
(0.0282054 0.0100179 -1.49557e-21)
(0.0278228 0.00891905 -3.87949e-21)
(0.0275452 0.00783186 -7.32051e-21)
(0.0273846 0.00675566 6.8339e-21)
(0.0273526 0.00568809 -5.15269e-21)
(0.0274607 0.00462551 7.35523e-21)
(0.0277209 0.0035632 -1.9753e-20)
(0.0281462 0.0024956 -1.66523e-20)
(0.028754 0.00141877 2.36094e-20)
(0.0295774 0.000339641 1.61254e-21)
(0.0305843 -0.000748092 -1.16991e-20)
(0.0317737 -0.00186358 2.68727e-20)
(0.0331944 -0.00298038 -3.9052e-21)
(0.0348526 -0.00410849 -1.89324e-21)
(0.0367595 -0.00525456 -2.39261e-20)
(0.0389299 -0.00642317 1.63978e-21)
(0.0413792 -0.00761904 2.11796e-20)
(0.0441239 -0.00884674 -8.67028e-21)
(0.0471817 -0.0101106 -1.42469e-20)
(0.0505706 -0.0114148 9.11721e-21)
(0.0543097 -0.0127636 -2.68003e-21)
(0.0584198 -0.0141606 2.83084e-21)
(0.0629161 -0.0156134 9.40708e-21)
(0.0678256 -0.0170997 -2.53865e-21)
(0.0731775 -0.0186518 -1.28992e-20)
(0.0789823 -0.0202607 1.37957e-20)
(0.0852657 -0.0219258 2.76899e-21)
(0.0920493 -0.0236459 3.78861e-21)
(0.0993544 -0.0254185 -1.53272e-21)
(0.107202 -0.0272395 -1.7115e-20)
(0.11561 -0.0291027 8.22713e-21)
(0.124594 -0.0310048 1.37008e-21)
(0.134169 -0.0329204 -5.06292e-22)
(0.144357 -0.0348521 1.75684e-21)
(0.155154 -0.0367813 5.9246e-22)
(0.16657 -0.0386927 -1.20402e-21)
(0.1786 -0.0405696 5.82882e-22)
(0.191241 -0.0423873 9.45028e-22)
(0.204482 -0.0441286 -1.58845e-21)
(0.218307 -0.0457742 8.56453e-22)
(0.232686 -0.0472987 1.18543e-21)
(0.247602 -0.0486874 -1.38116e-21)
(0.263005 -0.0499139 -1.18416e-21)
(0.278873 -0.0509731 5.01755e-22)
(0.295143 -0.0518344 2.58186e-22)
(0.311785 -0.0525128 8.09981e-23)
(0.328739 -0.0529662 6.17089e-22)
(0.345943 -0.0532465 -2.4261e-22)
(0.363403 -0.0532786 -1.55339e-21)
(0.380917 -0.0531892 -2.41536e-22)
(0.398767 -0.0528097 -1.71362e-22)
(0.416274 -0.0524427 2.04806e-22)
(0.434567 -0.0516621 1.43025e-22)
(0.451575 -0.0512005 -2.05845e-22)
(0.470742 -0.0499941 -2.02258e-23)
(0.486369 -0.0497427 -5.10266e-23)
(0.507563 -0.0480492 -5.66541e-23)
(0.520187 -0.0483958 7.60596e-24)
(0.545737 -0.0463312 4.55617e-25)
(0.552654 -0.0473853 -1.9132e-24)
(0.586484 -0.046321 5.62094e-24)
(0.10388 0.0182563 -3.57901e-20)
(0.100987 0.0184982 4.41859e-20)
(0.0990856 0.0177992 5.83561e-20)
(0.0982936 0.016965 -6.71704e-20)
(0.0976276 0.0160544 -4.2946e-20)
(0.0969205 0.0150223 3.03903e-20)
(0.0962482 0.0138951 2.8971e-20)
(0.0956446 0.0127187 4.20643e-20)
(0.0951145 0.0115215 -4.91739e-20)
(0.0946662 0.0103167 -3.42607e-22)
(0.0943133 0.0091115 -3.91764e-20)
(0.0940699 0.00790972 1.06871e-20)
(0.0939493 0.00671266 3.10435e-20)
(0.0939643 0.00551933 -2.39572e-21)
(0.0941276 0.00432693 -1.8374e-20)
(0.0944523 0.00313098 4.87738e-21)
(0.0949522 0.00192543 1.06012e-20)
(0.0956477 0.000706482 -1.91778e-20)
(0.0965677 -0.000522036 4.08274e-20)
(0.0976826 -0.00178891 -1.92207e-20)
(0.0990069 -0.00305629 -1.08636e-20)
(0.100571 -0.00432838 2.52574e-20)
(0.102386 -0.00561577 -2.47175e-20)
(0.104465 -0.006924 8.34322e-21)
(0.106821 -0.00825773 3.28483e-21)
(0.109472 -0.00962185 1.06018e-20)
(0.112433 -0.0110212 -8.08386e-21)
(0.115721 -0.01246 -1.26274e-20)
(0.119355 -0.0139426 3.38171e-21)
(0.123352 -0.015473 -6.18094e-21)
(0.127731 -0.0170546 2.77273e-20)
(0.13251 -0.0186937 -1.08954e-20)
(0.137707 -0.020381 -1.81987e-20)
(0.143351 -0.0221286 2.44439e-20)
(0.149453 -0.0239348 -1.52703e-20)
(0.156034 -0.0257998 -3.52413e-21)
(0.163111 -0.0277215 8.13338e-21)
(0.170702 -0.0296965 -3.2086e-21)
(0.178822 -0.0317198 6.81688e-21)
(0.187486 -0.0337837 -2.80604e-21)
(0.196702 -0.0358824 5.49618e-21)
(0.20648 -0.0379948 -1.22519e-20)
(0.216831 -0.0401151 8.02933e-21)
(0.227752 -0.0422254 4.68921e-21)
(0.239241 -0.0443085 -8.9428e-21)
(0.25129 -0.0463449 -1.48235e-22)
(0.263886 -0.0483103 5.66358e-21)
(0.277013 -0.0501831 -7.19942e-21)
(0.29065 -0.0519433 7.80308e-21)
(0.304762 -0.0535627 -2.05363e-21)
(0.319327 -0.0550272 3.81004e-22)
(0.334291 -0.0563061 -3.39226e-22)
(0.349633 -0.0573978 6.41979e-23)
(0.365284 -0.0582655 -1.36094e-21)
(0.38122 -0.0589329 1.61922e-21)
(0.397379 -0.059346 5.4219e-22)
(0.413699 -0.0595759 2.39563e-22)
(0.430203 -0.0595228 -2.70254e-23)
(0.446669 -0.059354 1.10939e-21)
(0.463428 -0.0588476 -7.35242e-22)
(0.479737 -0.0583877 5.86069e-22)
(0.496832 -0.0574438 -8.16509e-23)
(0.512525 -0.0568939 2.81745e-22)
(0.530394 -0.0554989 -5.45887e-23)
(0.544664 -0.0551756 -1.33258e-23)
(0.564387 -0.0532987 2.52556e-23)
(0.575801 -0.053577 -1.31304e-23)
(0.599456 -0.0514032 -2.86104e-24)
(0.605685 -0.0523468 7.20203e-25)
(0.636677 -0.0512828 9.63186e-24)
(0.180422 0.0197764 -4.59527e-21)
(0.177485 0.0187602 -9.60944e-20)
(0.176067 0.0177738 1.05729e-19)
(0.175011 0.0167993 -5.37549e-20)
(0.173941 0.0157159 -4.65959e-21)
(0.172928 0.014526 4.45458e-20)
(0.172022 0.0132732 -4.76433e-20)
(0.171222 0.0119866 -7.27664e-21)
(0.170527 0.0106802 3.66111e-20)
(0.169947 0.00936226 -7.97506e-21)
(0.169496 0.00803892 -3.89317e-20)
(0.169185 0.00671326 6.84436e-20)
(0.169027 0.00538584 -1.8145e-20)
(0.169036 0.00405503 -3.00009e-20)
(0.169223 0.00271709 3.54879e-20)
(0.169603 0.00136616 4.81462e-21)
(0.170198 -3.77434e-06 -1.59629e-20)
(0.171027 -0.00140459 -1.91642e-20)
(0.172074 -0.00283602 -2.34116e-20)
(0.173367 -0.00426944 1.24735e-20)
(0.174914 -0.00571055 8.77864e-21)
(0.176728 -0.00716797 1.52487e-20)
(0.178823 -0.00864759 -2.19684e-20)
(0.181215 -0.0101546 1.32807e-20)
(0.183918 -0.0116944 -1.76291e-21)
(0.186949 -0.013272 -1.19517e-20)
(0.190325 -0.0148918 8.2647e-21)
(0.194062 -0.0165578 9.52645e-22)
(0.198177 -0.0182741 -1.82187e-20)
(0.202687 -0.0200437 5.46188e-21)
(0.207609 -0.0218717 1.17753e-20)
(0.212959 -0.0237532 -7.43063e-21)
(0.218758 -0.0256947 3.73263e-21)
(0.22502 -0.0276959 8.534e-21)
(0.231759 -0.029756 -1.3648e-20)
(0.23899 -0.0318724 6.7915e-21)
(0.246724 -0.0340407 7.8753e-21)
(0.254973 -0.036255 -6.7518e-21)
(0.263744 -0.0385064 1.12354e-21)
(0.273043 -0.0407869 -9.56751e-21)
(0.28287 -0.0430771 5.26887e-21)
(0.293229 -0.0453667 3.19225e-21)
(0.304112 -0.0476368 1.35118e-21)
(0.315511 -0.0498684 -5.44309e-21)
(0.327409 -0.0520396 -1.33889e-21)
(0.33979 -0.0541265 1.06117e-20)
(0.352628 -0.0561036 -8.08613e-22)
(0.365901 -0.0579509 -5.62612e-21)
(0.379565 -0.0596372 7.16633e-23)
(0.393599 -0.0611497 -9.50584e-22)
(0.407943 -0.0624536 8.94663e-22)
(0.422579 -0.063552 4.6004e-22)
(0.437434 -0.0644008 8.91507e-22)
(0.452489 -0.0650346 -9.09659e-22)
(0.467684 -0.0653856 -7.86476e-23)
(0.482957 -0.0655476 -8.77424e-22)
(0.498348 -0.0653918 1.4925e-23)
(0.513618 -0.0651315 -9.29973e-23)
(0.529143 -0.0644862 1.64141e-22)
(0.544131 -0.0639259 -3.38313e-22)
(0.559898 -0.0628136 -3.43465e-22)
(0.574185 -0.0621691 1.00696e-22)
(0.590628 -0.0605914 -2.51726e-22)
(0.603494 -0.0601834 1.89735e-22)
(0.621612 -0.0581458 -8.44116e-24)
(0.631809 -0.0583282 -2.01474e-23)
(0.653432 -0.0560824 -1.24596e-24)
(0.658983 -0.0568801 2.01224e-24)
(0.687034 -0.0558282 -5.55245e-24)
(0.273208 0.0220169 -5.30058e-20)
(0.268876 0.0205611 2.38576e-20)
(0.266265 0.0192959 -1.62296e-20)
(0.264294 0.0181541 -1.50643e-20)
(0.262388 0.0169391 3.47485e-21)
(0.260586 0.0156249 -2.40649e-21)
(0.258956 0.0142489 7.14738e-21)
(0.257493 0.0128357 4.01343e-20)
(0.256186 0.0113961 -6.31659e-20)
(0.255038 0.00993792 4.7841e-20)
(0.254056 0.00846774 1.51101e-20)
(0.25325 0.00698983 -7.56609e-20)
(0.252631 0.00550588 7.17831e-20)
(0.252209 0.00401532 -2.83994e-20)
(0.251996 0.00251511 1.3092e-21)
(0.252003 0.00099841 1.86582e-20)
(0.252244 -0.000548839 -2.92439e-20)
(0.25275 -0.00215107 1.34759e-20)
(0.253513 -0.00375308 -2.91386e-20)
(0.254553 -0.00536126 -1.17442e-20)
(0.255874 -0.00698179 4.5153e-20)
(0.257486 -0.00862132 -6.90516e-21)
(0.259403 -0.010285 5.37855e-21)
(0.261638 -0.0119774 1.45421e-20)
(0.264207 -0.0137041 -2.70254e-21)
(0.267125 -0.0154705 -1.22223e-20)
(0.270409 -0.0172805 -1.65052e-20)
(0.274072 -0.019138 1.87268e-20)
(0.27813 -0.0210467 4.09393e-22)
(0.282599 -0.0230096 -1.17297e-20)
(0.287492 -0.0250305 4.28337e-21)
(0.292823 -0.0271072 1.33433e-20)
(0.298608 -0.0292428 -2.63589e-20)
(0.304858 -0.031437 6.23183e-21)
(0.311584 -0.0336882 8.99373e-21)
(0.318795 -0.0359931 2.90688e-21)
(0.326498 -0.0383465 -1.16677e-20)
(0.334698 -0.0407413 -1.02774e-22)
(0.343398 -0.0431675 -1.77723e-21)
(0.352596 -0.0456151 1.20422e-20)
(0.362286 -0.0480658 -7.7173e-21)
(0.372465 -0.0505055 -6.39855e-22)
(0.383118 -0.0529144 5.5382e-21)
(0.394231 -0.055272 2.92772e-23)
(0.40578 -0.0575544 -6.25961e-21)
(0.417746 -0.0597377 8.9745e-21)
(0.430092 -0.0617933 -1.29458e-21)
(0.442798 -0.0637017 -5.71258e-21)
(0.455812 -0.0654289 3.61723e-21)
(0.469114 -0.0669643 -1.41899e-21)
(0.482639 -0.0682685 -6.5325e-22)
(0.496374 -0.0693507 -5.46059e-22)
(0.510242 -0.070159 1.32461e-21)
(0.524233 -0.0707406 -2.33363e-21)
(0.538288 -0.0710119 5.15473e-22)
(0.552349 -0.0710926 -2.98122e-22)
(0.56647 -0.0708217 1.04735e-21)
(0.580402 -0.0704618 6.19896e-22)
(0.594557 -0.0696712 -5.48125e-22)
(0.608112 -0.0690063 2.55161e-22)
(0.62243 -0.0677272 3.98143e-22)
(0.635238 -0.0669836 -2.25494e-22)
(0.650144 -0.0652357 1.51965e-22)
(0.661575 -0.064732 -1.1311e-23)
(0.677977 -0.0625599 1.59276e-23)
(0.68697 -0.0626244 -6.62437e-24)
(0.706457 -0.0603396 -1.08034e-24)
(0.711349 -0.0609694 1.04938e-24)
(0.736411 -0.0599352 -2.07612e-24)
(0.379541 0.0258397 3.00596e-20)
(0.373526 0.0238054 -2.95415e-20)
(0.369183 0.0221207 9.69962e-21)
(0.36573 0.0206774 2.60133e-20)
(0.362469 0.0192076 -4.95063e-20)
(0.359384 0.0176636 1.4372e-20)
(0.356556 0.0160767 7.3964e-20)
(0.353981 0.0144634 -2.32475e-20)
(0.351639 0.0128275 -4.56558e-20)
(0.349521 0.0111735 3.96745e-20)
(0.347632 0.00950693 -1.18481e-20)
(0.345974 0.00783173 3.2618e-20)
(0.344555 0.00614982 -4.20096e-20)
(0.34338 0.00446124 -4.83267e-20)
(0.342457 0.00276393 7.98716e-20)
(0.341793 0.00105318 -7.60333e-20)
(0.341386 -0.000682207 4.50444e-20)
(0.341306 -0.0024356 3.86992e-20)
(0.341535 -0.00427473 -7.55736e-20)
(0.342071 -0.00611634 5.93325e-20)
(0.342922 -0.00795244 -2.94797e-20)
(0.344097 -0.00980021 -2.4139e-20)
(0.345608 -0.0116696 5.05192e-21)
(0.347467 -0.0135665 4.94924e-20)
(0.349687 -0.0154974 -6.12778e-20)
(0.352283 -0.0174679 5.73447e-20)
(0.355268 -0.0194821 1.45274e-20)
(0.358655 -0.0215432 -1.02152e-20)
(0.362458 -0.0236547 -4.25592e-20)
(0.366687 -0.0258193 1.11401e-20)
(0.371355 -0.0280399 1.83401e-20)
(0.376472 -0.0303155 -1.85033e-20)
(0.382048 -0.0326473 1.38639e-20)
(0.388091 -0.0350344 -7.81577e-21)
(0.394607 -0.0374743 4.87447e-21)
(0.4016 -0.0399631 -4.94078e-21)
(0.409071 -0.0424945 3.0438e-21)
(0.41702 -0.0450606 1.02948e-21)
(0.425442 -0.04765 -2.79518e-21)
(0.434331 -0.0502513 7.36208e-21)
(0.443674 -0.052846 -9.10612e-21)
(0.453459 -0.0554181 -3.45691e-21)
(0.463665 -0.0579461 1.08983e-21)
(0.474274 -0.0604088 1.18182e-23)
(0.485255 -0.0627803 -2.97244e-21)
(0.496584 -0.0650369 8.79245e-21)
(0.508219 -0.0671478 -1.90907e-21)
(0.520138 -0.0690941 -3.14927e-21)
(0.532284 -0.0708393 -3.63266e-21)
(0.544642 -0.0723758 6.63822e-21)
(0.557139 -0.0736598 -2.48653e-22)
(0.569773 -0.0747074 3.26465e-21)
(0.582463 -0.0754582 -6.3498e-21)
(0.595207 -0.0759738 3.67557e-21)
(0.607951 -0.0761534 5.3461e-22)
(0.620642 -0.0761443 -6.23149e-22)
(0.633346 -0.075752 9.04721e-22)
(0.645813 -0.0752891 -1.25927e-21)
(0.658472 -0.0743536 1.61753e-23)
(0.670504 -0.0735836 -4.51458e-23)
(0.683268 -0.0721459 -4.89619e-22)
(0.694547 -0.0713017 1.11243e-22)