/*--------------------------------*- C++ -*----------------------------------*\
  =========                 |
  \\      /  F ield         | OpenFOAM: The Open Source CFD Toolbox
   \\    /   O peration     | Website:  https://openfoam.org
    \\  /    A nd           | Version:  7
     \\/     M anipulation  |
\*---------------------------------------------------------------------------*/
FoamFile
{
    version     2.0;
    format      ascii;
    class       surfaceScalarField;
    location    "2";
    object      phi;
}
// * * * * * * * * * * * * * * * * * * * * * * * * * * * * * * * * * * * * * //

dimensions      [0 3 -1 0 0 0 0];

internalField   nonuniform List<scalar> 
615
(
0.000135396
-1.67284e-06
0.000135297
-1.63322e-06
0.000135201
-1.59357e-06
0.000135107
-1.55383e-06
0.000135016
-1.51398e-06
0.000134926
-1.47399e-06
0.00013484
-1.43384e-06
0.000134755
-1.39352e-06
0.000134673
-1.35302e-06
0.000134594
-1.31236e-06
0.000134517
-1.27154e-06
0.000134442
-1.23059e-06
0.000134369
-1.18954e-06
0.000134299
-1.14842e-06
0.000134232
-1.10727e-06
0.000134167
-1.06614e-06
0.000134104
-1.02508e-06
0.000134044
-9.8414e-07
0.000133986
-9.43388e-07
0.000133931
-9.02883e-07
0.000133878
-8.62689e-07
0.000133827
-8.22874e-07
0.000133779
-7.83507e-07
0.000133733
-7.44658e-07
0.000133689
-7.06397e-07
0.000133648
-6.68796e-07
0.000133608
-6.31928e-07
0.000133572
-5.95865e-07
0.000133537
-5.6068e-07
0.000133504
-5.26447e-07
-4.93237e-07
0.000138435
-3.5175e-06
0.00013821
-3.42702e-06
0.00013799
-3.3401e-06
0.000137775
-3.25656e-06
0.000137565
-3.17619e-06
0.00013736
-3.09884e-06
0.00013716
-3.02433e-06
0.000136964
-2.95252e-06
0.000136773
-2.88326e-06
0.000136586
-2.81644e-06
0.000136404
-2.75192e-06
0.000136225
-2.68958e-06
0.00013605
-2.62932e-06
0.000135879
-2.57103e-06
0.000135711
-2.51461e-06
0.000135547
-2.45997e-06
0.000135387
-2.40701e-06
0.00013523
-2.35564e-06
0.000135076
-2.30577e-06
0.000134925
-2.25732e-06
0.000134777
-2.21019e-06
0.000134633
-2.16431e-06
0.000134491
-2.11959e-06
0.000134353
-2.07594e-06
0.000134217
-2.03327e-06
0.000134084
-1.99151e-06
0.000133953
-1.95056e-06
0.000133826
-1.91035e-06
0.000133701
-1.87079e-06
0.000133579
-1.83179e-06
0.000133459
-1.79327e-06
0.000133342
-1.75517e-06
0.000133227
-1.71739e-06
0.000133115
-1.67986e-06
0.000133005
-1.64252e-06
0.000132898
-1.60531e-06
0.000132793
-1.56815e-06
0.000132691
-1.53101e-06
0.000132591
-1.49382e-06
0.000132494
-1.45656e-06
0.000132399
-1.41919e-06
0.000132307
-1.38168e-06
0.000132217
-1.34402e-06
0.00013213
-1.30619e-06
0.000132045
-1.2682e-06
0.000131963
-1.23006e-06
0.000131883
-1.19176e-06
0.000131806
-1.15334e-06
0.000131731
-1.11483e-06
0.000131659
-1.07625e-06
0.000131589
-1.03764e-06
0.000131522
-9.99051e-07
0.000131457
-9.60531e-07
0.000131395
-9.22131e-07
0.000131336
-8.83907e-07
0.000131279
-8.45918e-07
0.000131225
-8.08226e-07
0.000131173
-7.70893e-07
0.000131123
-7.33986e-07
0.000131076
-6.97569e-07
0.000131031
-6.6171e-07
0.000130989
-6.26476e-07
0.000130949
-5.91934e-07
0.000130911
-5.58154e-07
0.000130876
-5.25204e-07
0.000130842
-4.93152e-07
-4.62065e-07
0.000135653
-3.27784e-06
0.000135419
-3.19329e-06
0.000135191
-3.11209e-06
0.000134968
-3.03405e-06
0.000134751
-2.959e-06
0.000134539
-2.88676e-06
0.000134332
-2.8172e-06
0.00013413
-2.75017e-06
0.000133932
-2.68553e-06
0.000133739
-2.62316e-06
0.00013355
-2.56296e-06
0.000133365
-2.50481e-06
0.000133184
-2.4486e-06
0.000133007
-2.39424e-06
0.000132834
-2.34163e-06
0.000132665
-2.29069e-06
0.000132499
-2.24132e-06
0.000132337
-2.19345e-06
0.000132178
-2.14698e-06
0.000132023
-2.10185e-06
0.000131871
-2.05795e-06
0.000131722
-2.01522e-06
0.000131576
-1.97358e-06
0.000131433
-1.93294e-06
0.000131292
-1.89322e-06
0.000131155
-1.85436e-06
0.000131021
-1.81625e-06
0.000130889
-1.77883e-06
0.000130761
-1.74202e-06
0.000130635
-1.70573e-06
0.000130511
-1.6699e-06
0.000130391
-1.63444e-06
0.000130272
-1.59929e-06
0.000130157
-1.56437e-06
0.000130044
-1.52963e-06
0.000129934
-1.49499e-06
0.000129826
-1.46041e-06
0.000129721
-1.42584e-06
0.000129618
-1.39123e-06
0.000129518
-1.35654e-06
0.000129421
-1.32174e-06
0.000129326
-1.28682e-06
0.000129234
-1.25175e-06
0.000129144
-1.21652e-06
0.000129057
-1.18114e-06
0.000128972
-1.1456e-06
0.000128891
-1.10993e-06
0.000128811
-1.07415e-06
0.000128735
-1.03827e-06
0.000128661
-1.00232e-06
0.00012859
-9.6636e-07
0.000128521
-9.30413e-07
0.000128455
-8.9453e-07
0.000128392
-8.5876e-07
0.000128331
-8.23157e-07
0.000128273
-7.87774e-07
0.000128217
-7.5267e-07
0.000128164
-7.17905e-07
0.000128114
-6.83538e-07
0.000128066
-6.49632e-07
0.00012802
-6.16249e-07
0.000127977
-5.83451e-07
0.000127937
-5.51304e-07
0.000127898
-5.19869e-07
0.000127862
-4.89212e-07
0.000127829
-4.59395e-07
-4.30481e-07
0.000132451
-3.03164e-06
0.000132211
-2.95327e-06
0.000131977
-2.87801e-06
0.000131748
-2.80569e-06
0.000131525
-2.73615e-06
0.000131308
-2.66923e-06
0.000131096
-2.60479e-06
0.000130888
-2.54271e-06
0.000130685
-2.48285e-06
0.000130487
-2.42511e-06
0.000130294
-2.36937e-06
0.000130104
-2.31554e-06
0.000129919
-2.26352e-06
0.000129738
-2.21321e-06
0.000129561
-2.16454e-06
0.000129388
-2.11741e-06
0.000129218
-2.07176e-06
0.000129052
-2.02748e-06
0.00012889
-1.98452e-06
0.000128731
-1.94279e-06
0.000128575
-1.90222e-06
0.000128423
-1.86274e-06
0.000128273
-1.82426e-06
0.000128127
-1.78672e-06
0.000127984
-1.75003e-06
0.000127844
-1.71414e-06
0.000127707
-1.67895e-06
0.000127572
-1.6444e-06
0.00012744
-1.61041e-06
0.000127312
-1.57691e-06
0.000127186
-1.54383e-06
0.000127062
-1.51109e-06
0.000126942
-1.47864e-06
0.000126824
-1.44641e-06
0.000126708
-1.41433e-06
0.000126596
-1.38235e-06
0.000126486
-1.35042e-06
0.000126378
-1.31849e-06
0.000126274
-1.28653e-06
0.000126172
-1.25448e-06
0.000126072
-1.22234e-06
0.000125975
-1.19008e-06
0.000125881
-1.15767e-06
0.00012579
-1.12512e-06
0.000125701
-1.09242e-06
0.000125615
-1.05958e-06
0.000125532
-1.02661e-06
0.000125451
-9.93535e-07
0.000125373
-9.60368e-07
0.000125298
-9.27144e-07
0.000125226
-8.93897e-07
0.000125156
-8.60667e-07
0.000125089
-8.27495e-07
0.000125025
-7.94428e-07
0.000124963
-7.61515e-07
0.000124904
-7.28807e-07
0.000124848
-6.96357e-07
0.000124794
-6.64222e-07
0.000124743
-6.32457e-07
0.000124694
-6.01119e-07
0.000124648
-5.70267e-07
0.000124605
-5.39959e-07
0.000124564
-5.10253e-07
0.000124525
-4.81209e-07
0.000124489
-4.52886e-07
0.000124455
-4.25343e-07
-3.98636e-07
0.00012882
-2.781e-06
0.000128576
-2.70899e-06
0.000128338
-2.63984e-06
0.000128106
-2.5734e-06
0.000127879
-2.50952e-06
0.000127658
-2.44806e-06
0.000127442
-2.38888e-06
0.000127231
-2.33186e-06
0.000127025
-2.2769e-06
0.000126824
-2.22389e-06
0.000126627
-2.17273e-06
0.000126435
-2.12332e-06
0.000126247
-2.07558e-06
0.000126063
-2.02942e-06
0.000125883
-1.98476e-06
0.000125708
-1.94154e-06
0.000125535
-1.89966e-06
0.000125367
-1.85906e-06
0.000125202
-1.81967e-06
0.000125041
-1.78142e-06
0.000124883
-1.74424e-06
0.000124728
-1.70805e-06
0.000124577
-1.6728e-06
0.000124428
-1.63841e-06
0.000124283
-1.60481e-06
0.000124141
-1.57194e-06
0.000124002
-1.53972e-06
0.000123865
-1.50808e-06
0.000123732
-1.47697e-06
0.000123601
-1.4463e-06
0.000123474
-1.41602e-06
0.000123349
-1.38606e-06
0.000123226
-1.35635e-06
0.000123107
-1.32685e-06
0.00012299
-1.29749e-06
0.000122876
-1.26821e-06
0.000122764
-1.23898e-06
0.000122655
-1.20975e-06
0.000122549
-1.18048e-06
0.000122446
-1.15114e-06
0.000122345
-1.1217e-06
0.000122248
-1.09214e-06
0.000122152
-1.06246e-06
0.00012206
-1.03264e-06
0.00012197
-1.00268e-06
0.000121883
0.000121799
0.000121717
0.000121639
0.000121563
0.00012149
0.000121419
0.000121352
0.000121287
0.000121224
0.000121165
0.000121108
0.000121054
0.000121003
0.000120954
0.000120908
0.000120864
0.000120823
0.000120784
0.000120747
0.000120713
0.000124752
0.000124505
0.000124265
0.000124031
0.000123802
0.000123579
0.000123362
0.000123149
0.000122942
0.000122739
0.000122541
0.000122347
0.000122158
0.000121973
0.000121792
0.000121615
0.000121442
0.000121272
0.000121106
0.000120944
0.000120785
0.000120629
0.000120477
0.000120328
0.000120182
0.000120039
0.000119899
0.000119761
0.000119627
0.000119496
0.000119367
0.000119242
0.000119119
0.000118998
0.000118881
0.000118766
0.000118654
0.000118545
0.000118438
0.000118334
0.000118233
0.000118135
0.000118039
0.000117946
)
;

boundaryField
{
    inlet
    {
        type            calculated;
        value           nonuniform 0();
    }
    outlet
    {
        type            calculated;
        value           nonuniform 0();
    }
    wall
    {
        type            calculated;
        value           nonuniform 0();
    }
    wedge1
    {
        type            wedge;
        value           nonuniform List<scalar> 
344
(
-1.36129e-16
3.3454e-16
-1.1404e-16
-5.3722e-16
1.66823e-16
-1.32592e-16
3.25963e-16
-1.11034e-16
-5.23241e-16
1.62551e-16
-1.29171e-16
3.17739e-16
-1.08144e-16
-5.09812e-16
1.58456e-16
-1.25981e-16
3.09718e-16
-1.05467e-16
-4.97024e-16
1.54422e-16
-1.22812e-16
3.0213e-16
-1.02787e-16
-4.84615e-16
1.50634e-16
-1.19903e-16
2.94658e-16
-1.00363e-16
-4.72834e-16
1.46858e-16
-1.16987e-16
2.87609e-16
-9.7894e-17
-4.61344e-16
1.43352e-16
-1.14248e-16
2.80711e-16
-9.56015e-17
-4.50374e-16
1.3989e-16
-1.11508e-16
2.74187e-16
-9.32844e-17
-4.39687e-16
1.36642e-16
-1.09007e-16
2.67722e-16
-9.12039e-17
-4.29537e-16
1.33377e-16
-1.06476e-16
2.61627e-16
-8.90629e-17
-4.19597e-16
1.30351e-16
-1.04102e-16
2.55637e-16
-8.70803e-17
-4.10095e-16
1.27348e-16
-1.01711e-16
2.49971e-16
-8.50583e-17
-4.00803e-16
1.24533e-16
-9.95369e-17
2.44324e-16
-8.3259e-17
-3.9198e-16
1.21675e-16
-9.73417e-17
2.38975e-16
-8.1411e-17
-3.83332e-16
1.19003e-16
-9.52739e-17
2.33717e-16
-7.96896e-17
-3.75031e-16
1.16363e-16
-9.32774e-17
2.28619e-16
-7.80295e-17
-3.66993e-16
1.13799e-16
-9.13335e-17
2.23682e-16
-7.64128e-17
-3.59194e-16
1.11315e-16
-8.94441e-17
2.18894e-16
-7.48399e-17
-3.51623e-16
1.08908e-16
-8.76091e-17
2.14241e-16
-7.33133e-17
-3.44271e-16
1.06571e-16
-8.5827e-17
2.09713e-16
-7.18294e-17
-3.37125e-16
1.04297e-16
-8.40887e-17
2.0531e-16
-7.03807e-17
-3.30166e-16
1.02089e-16
-8.23924e-17
2.01019e-16
-6.89704e-17
-3.23387e-16
9.99356e-17
-8.07371e-17
1.96831e-16
-6.75935e-17
-3.1677e-16
9.78387e-17
-7.9118e-17
1.92739e-16
-6.62453e-17
-3.10304e-16
9.5792e-17
-7.75335e-17
1.88736e-16
-6.49227e-17
-3.03972e-16
9.37961e-17
-7.58959e-17
1.84909e-16
-6.35269e-17
-2.97664e-16
9.19304e-17
-7.42661e-17
1.81161e-16
-6.21546e-17
-2.91466e-16
9.01029e-17
-7.27608e-17
1.77359e-16
-6.09038e-17
-2.85482e-16
8.82091e-17
-7.11832e-17
1.73729e-16
-5.9571e-17
-2.79476e-16
8.64289e-17
-6.97618e-17
1.69982e-16
-5.84029e-17
-2.73697e-16
8.45435e-17
-6.82436e-17
1.66417e-16
-5.7117e-17
-2.67837e-16
8.28014e-17
-6.68111e-17
1.62779e-16
-5.59278e-17
-2.62124e-16
8.0993e-17
-6.5326e-17
1.59251e-16
-5.46789e-17
-2.56375e-16
7.92517e-17
-6.38255e-17
1.55762e-16
-5.34047e-17
-2.50621e-16
7.756e-17
-6.23604e-17
1.52243e-16
-5.21764e-17
-2.44928e-16
7.58327e-17
-6.59486e-17
-6.08692e-17
1.48766e-16
-5.09134e-17
-2.39208e-16
7.41396e-17
-6.43694e-17
-5.93945e-17
1.45265e-16
-4.96765e-17
-2.3352e-16
7.24119e-17
-6.27574e-17
-5.79106e-17
1.41779e-16
-4.84212e-17
-2.278e-16
7.07098e-17
-6.11902e-17
-5.64555e-17
1.38241e-16
-4.72052e-17
-2.22109e-16
6.89633e-17
-5.95769e-17
-5.49664e-17
1.3473e-16
-4.59464e-17
-2.16362e-16
6.72444e-17
-5.79898e-17
-5.34863e-17
1.31184e-16
-4.47068e-17
-2.10622e-16
6.54878e-17
-5.63654e-17
-5.19921e-17
1.27641e-16
-4.34453e-17
-2.04833e-16
6.37526e-17
-5.47801e-17
-5.05216e-17
1.24044e-16
-4.22173e-17
-1.99058e-16
6.19676e-17
-5.31447e-17
-4.90124e-17
1.20469e-16
-4.09447e-17
-1.93221e-16
6.0207e-17
-5.1546e-17
-4.75335e-17
1.16833e-16
-3.97093e-17
-1.87406e-16
-4.99392e-17
-4.60383e-17
1.13203e-16
-3.8459e-17
-1.81552e-16
-4.82895e-17
-4.45209e-17
1.09582e-16
-3.71794e-17
-1.75649e-16
-4.66789e-17
-4.3028e-17
1.05912e-16
-3.59335e-17
-1.6977e-16
-4.50263e-17
-4.15054e-17
1.02273e-16
-3.4649e-17
-1.63846e-16
-4.34041e-17
-3.99939e-17
9.86105e-17
-3.33867e-17
-1.57946e-16
-4.1751e-17
-3.84739e-17
9.49717e-17
-3.21056e-17
-1.52021e-16
-4.0146e-17
-3.6986e-17
9.1299e-17
-3.08638e-17
-1.46147e-16
-3.85066e-17
-3.54749e-17
8.76728e-17
-2.95909e-17
-1.40258e-16
-3.69044e-17
-3.39846e-17
8.4041e-17
-2.83482e-17
-1.34425e-16
-3.52819e-17
-3.24929e-17
8.04542e-17
-2.70937e-17
-1.28602e-16
-3.37145e-17
-3.10424e-17
7.68562e-17
-2.58849e-17
-1.22861e-16
-3.21213e-17
-2.95759e-17
7.33323e-17
-2.46487e-17
-1.1714e-16
-3.05774e-17
-2.81388e-17
6.98253e-17
-2.34506e-17
-1.11514e-16
-2.90201e-17
-2.67101e-17
6.63876e-17
-2.22499e-17
-1.0594e-16
-2.75307e-17
-2.53316e-17
6.29645e-17
-2.11043e-17
-1.00487e-16
-2.60243e-17
-2.39463e-17
5.96406e-17
-1.99395e-17
-9.50954e-17
-2.45786e-17
-2.26016e-17
5.63599e-17
-1.8821e-17
-8.98392e-17
-2.31338e-17
-2.12784e-17
5.31717e-17
-1.77097e-17
-8.46761e-17
-2.17684e-17
-2.00158e-17
5.00245e-17
-1.66618e-17
-7.96761e-17
-2.03975e-17
-1.87586e-17
4.69992e-17
-1.56071e-17
-7.47846e-17
-1.90975e-17
-1.7549e-17
4.40465e-17
-1.46032e-17
-7.00637e-17
)
;
    }
    wedge2
    {
        type            wedge;
        value           nonuniform List<scalar> 
344
(
-1.3362e-16
3.37082e-16
-1.11507e-16
-5.34721e-16
1.69242e-16
-1.30219e-16
3.28335e-16
-1.08682e-16
-5.2093e-16
1.64796e-16
-1.26976e-16
3.19921e-16
-1.05972e-16
-5.07697e-16
1.6052e-16
-1.2376e-16
3.11951e-16
-1.03267e-16
-4.94866e-16
1.56512e-16
-1.20767e-16
3.0416e-16
-1.00772e-16
-4.82641e-16
1.52568e-16
-1.17745e-16
2.9683e-16
-9.82165e-17
-4.70721e-16
1.48906e-16
-1.14947e-16
2.89625e-16
-9.589e-17
-4.59392e-16
1.45251e-16
-1.12179e-16
2.82786e-16
-9.35622e-17
-4.48377e-16
1.41814e-16
-1.09609e-16
2.76064e-16
-9.14249e-17
-4.37872e-16
1.38414e-16
-1.06986e-16
2.6975e-16
-8.92081e-17
-4.2758e-16
1.35266e-16
-1.04568e-16
2.63507e-16
-8.72011e-17
-4.1779e-16
1.32103e-16
-1.02161e-16
2.57578e-16
-8.51774e-17
-4.08239e-16
1.2913e-16
-9.99302e-17
2.51725e-16
-8.33276e-17
-3.9912e-16
1.26171e-16
-9.76336e-17
2.4623e-16
-8.13829e-17
-3.90142e-16
1.23447e-16
-9.55013e-17
2.40797e-16
-7.96081e-17
-3.81569e-16
1.2072e-16
-9.33774e-17
2.35613e-16
-7.78216e-17
-3.73196e-16
1.18135e-16
-9.13111e-17
2.30591e-16
-7.60828e-17
-3.65083e-16
1.15636e-16
-8.93138e-17
2.25714e-16
-7.44037e-17
-3.57222e-16
1.13213e-16
-8.73771e-17
2.20975e-16
-7.2778e-17
-3.49597e-16
1.10859e-16
-8.54943e-17
2.16373e-16
-7.11977e-17
-3.42193e-16
1.08573e-16
-8.36601e-17
2.119e-16
-6.96606e-17
-3.34992e-16
1.06353e-16
-8.18774e-17
2.07541e-16
-6.81689e-17
-3.27989e-16
1.0419e-16
-8.01412e-17
2.03292e-16
-6.67135e-17
-3.21163e-16
1.02083e-16
-7.84461e-17
1.99144e-16
-6.52942e-17
-3.14507e-16
1.00025e-16
-7.67903e-17
1.9509e-16
-6.39099e-17
-3.08005e-16
9.80126e-17
-7.51689e-17
1.9112e-16
-6.25582e-17
-3.01648e-16
9.6037e-17
-7.36632e-17
1.8713e-16
-6.13326e-17
-2.95517e-16
9.40105e-17
-7.22057e-17
1.83201e-16
-6.01305e-17
-2.89501e-16
9.20165e-17
-7.06734e-17
1.79449e-16
-5.88487e-17
-2.83471e-16
9.01514e-17
-6.92567e-17
1.75634e-16
-5.76852e-17
-2.77634e-16
8.82271e-17
-6.77209e-17
1.72028e-16
-5.63879e-17
-2.7172e-16
8.64543e-17
-6.6313e-17
1.68318e-16
-5.52344e-17
-2.66008e-16
8.45767e-17
-6.48445e-17
1.64742e-16
-5.4005e-17
-2.60247e-16
8.27964e-17
-6.34484e-17
1.61105e-16
-5.28515e-17
-2.546e-16
8.09726e-17
-6.20819e-17
1.57465e-16
-5.17349e-17
-2.49012e-16
7.91162e-17
-6.06894e-17
1.53876e-16
-5.05798e-17
-2.43398e-16
7.7306e-17
-6.43865e-17
-5.9328e-17
1.50258e-16
-4.9463e-17
-2.37827e-16
7.54663e-17
-6.28751e-17
-5.79508e-17
1.46665e-16
-4.83203e-17
-2.32223e-16
7.36609e-17
-6.13936e-17
-5.65799e-17
1.43049e-16
-4.71932e-17
-2.26636e-16
7.1825e-17
-5.98615e-17
-5.51744e-17
1.39469e-16
-4.60213e-17
-2.20994e-16
7.00246e-17
-5.83666e-17
-5.37945e-17
1.35841e-16
-4.48847e-17
-2.15371e-16
6.81848e-17
-5.68347e-17
-5.23954e-17
1.32222e-16
-4.37199e-17
-2.09697e-16
6.63683e-17
-5.53278e-17
-5.09986e-17
1.28569e-16
-4.25668e-17
-2.04022e-16
6.45145e-17
-5.37686e-17
-4.95658e-17
1.2494e-16
-4.13694e-17
-1.98281e-16
6.26938e-17
-5.2246e-17
-4.81592e-17
1.21257e-16
-4.02058e-17
-1.92549e-16
6.08319e-17
-5.06739e-17
-4.67103e-17
1.17605e-16
-3.89947e-17
-1.86746e-16
-4.9098e-17
-4.52666e-17
1.13919e-16
-3.7789e-17
-1.80935e-16
-4.75549e-17
-4.38357e-17
1.102e-16
-3.66045e-17
-1.75134e-16
-4.59645e-17
-4.23728e-17
1.0651e-16
-3.538e-17
-1.69279e-16
-4.44108e-17
-4.09348e-17
1.02779e-16
-3.419e-17
-1.63448e-16
-4.28247e-17
-3.94839e-17
9.90669e-17
-3.29764e-17
-1.57587e-16
-4.12708e-17
-3.8043e-17
9.53348e-17
-3.17828e-17
-1.51755e-16
-3.96744e-17
-3.65753e-17
9.16501e-17
-3.05546e-17
-1.45896e-16
-3.81221e-17
-3.51401e-17
8.79425e-17
-2.93655e-17
-1.40088e-16
-3.6547e-17
-3.36977e-17
8.42749e-17
-2.81578e-17
-1.3428e-16
-3.50114e-17
-3.22748e-17
8.06081e-17
-2.69774e-17
-1.28536e-16
-3.34451e-17
-3.08334e-17
7.70098e-17
-2.57707e-17
-1.22802e-16
-3.1934e-17
-2.94359e-17
7.34071e-17
-2.4615e-17
-1.17161e-16
-3.04085e-17
-2.80414e-17
6.98696e-17
-2.34489e-17
-1.11557e-16
-2.89366e-17
-2.66763e-17
6.63575e-17
-2.23174e-17
-1.06052e-16
-2.74427e-17
-2.53037e-17
6.29382e-17
-2.11671e-17
-1.00601e-16
-2.60171e-17
-2.39859e-17
5.95401e-17
-2.00766e-17
-9.52813e-17
-2.45879e-17
-2.26805e-17
5.62321e-17
-1.89848e-17
-9.00409e-17
-2.32204e-17
-2.14122e-17
5.29779e-17
-1.79353e-17
-8.49426e-17
-2.18418e-17
-2.01467e-17
4.98422e-17
-1.68761e-17
-7.99374e-17
-2.05427e-17
-1.89447e-17
4.6757e-17
-1.58818e-17
-7.51006e-17
-1.92523e-17
-1.77692e-17
4.37843e-17
-1.48992e-17
-7.03903e-17
)
;
    }
    axis
    {
        type            empty;
        value           nonuniform 0();
    }
    procBoundary25to19
    {
        type            processor;
        value           nonuniform List<scalar> 
68
(
1.77374e-06
1.73176e-06
1.68975e-06
1.64766e-06
1.60545e-06
1.5631e-06
1.52058e-06
1.47788e-06
1.435e-06
1.39195e-06
1.34873e-06
1.30538e-06
1.26191e-06
1.21837e-06
1.1748e-06
1.13124e-06
1.08775e-06
1.0444e-06
1.00123e-06
9.58316e-07
9.15729e-07
8.73536e-07
8.3181e-07
7.90625e-07
7.50056e-07
7.10178e-07
6.71067e-07
6.32801e-07
5.95457e-07
5.59112e-07
5.23842e-07
3.74859e-06
3.65247e-06
3.56013e-06
3.47134e-06
3.38593e-06
3.30369e-06
3.22447e-06
3.14811e-06
3.07445e-06
3.00336e-06
2.93471e-06
2.86837e-06
2.80423e-06
2.74218e-06
2.68211e-06
2.62392e-06
2.56751e-06
2.51278e-06
2.45964e-06
2.408e-06
2.35777e-06
2.30885e-06
2.26116e-06
2.21461e-06
2.1691e-06
2.12455e-06
2.08087e-06
2.03796e-06
1.99575e-06
1.95413e-06
1.91304e-06
1.87237e-06
1.83206e-06
1.79202e-06
1.75218e-06
-0.000135496
1.71248e-06
)
;
    }
    procBoundary25to24
    {
        type            processor;
        value           nonuniform List<scalar> 4(-0.000138666 -0.000135892 -0.000132697 -0.000129071);
    }
    procBoundary25to26
    {
        type            processor;
        value           nonuniform List<scalar> 5(0.000133473 0.000130811 0.000127797 0.000124423 0.000120681);
    }
    procBoundary25to30
    {
        type            processor;
        value           uniform -0.000125005;
    }
    procBoundary25to31
    {
        type            processor;
        value           nonuniform List<scalar> 
68
(
-9.72587e-07
-9.42374e-07
-9.12057e-07
-8.81658e-07
-8.51204e-07
-8.20728e-07
-7.90265e-07
-7.59854e-07
-7.29539e-07
-6.99363e-07
-6.69376e-07
-6.39625e-07
-6.10161e-07
-5.81037e-07
-5.52306e-07
-5.24019e-07
-4.96232e-07
-4.68999e-07
-4.42372e-07
-4.16407e-07
-3.91159e-07
-3.66678e-07
-2.52811e-06
-2.46256e-06
-2.39963e-06
-2.33917e-06
-2.28104e-06
-2.22511e-06
-2.17127e-06
-2.1194e-06
-2.06941e-06
-2.02119e-06
-1.97466e-06
-1.92973e-06
-1.88632e-06
-1.84436e-06
-1.80377e-06
-1.76449e-06
-1.72643e-06
-1.68955e-06
-1.65377e-06
-1.61902e-06
-1.58526e-06
-1.55241e-06
-1.52041e-06
-1.48919e-06
-1.45871e-06
-1.42888e-06
-1.39965e-06
-1.37096e-06
-1.34273e-06
-1.31493e-06
-1.28747e-06
-1.2603e-06
-1.23336e-06
-1.20661e-06
-1.17998e-06
-1.15344e-06
-1.12693e-06
-1.10042e-06
-1.07387e-06
-1.04725e-06
-1.02055e-06
-9.93732e-07
-9.66796e-07
-9.39732e-07
0.000117856
-9.12541e-07
)
;
    }
}


// ************************************************************************* //
