/*--------------------------------*- C++ -*----------------------------------*\
  =========                 |
  \\      /  F ield         | OpenFOAM: The Open Source CFD Toolbox
   \\    /   O peration     | Website:  https://openfoam.org
    \\  /    A nd           | Version:  7
     \\/     M anipulation  |
\*---------------------------------------------------------------------------*/
FoamFile
{
    version     2.0;
    format      ascii;
    class       volScalarField;
    location    "14";
    object      p;
}
// * * * * * * * * * * * * * * * * * * * * * * * * * * * * * * * * * * * * * //

dimensions      [0 2 -2 0 0 0 0];

internalField   nonuniform List<scalar> 
433
(
-170.467
-133.161
-194.869
-167.467
-140.406
-114.485
-90.5188
-69.2181
-51.1156
-36.4309
-25.0536
-16.6495
-10.6489
-6.52366
-3.79459
-2.06321
-1.02292
-0.4436
-0.159839
-0.0572501
-0.0598439
-0.119352
-0.206034
-0.302636
-0.399566
-0.491793
-0.576898
-0.653908
-0.722611
-0.783137
-0.837078
-0.884128
-0.925258
47.4592
34.6506
24.462
17.0379
12.055
8.80168
6.55987
4.8491
3.46772
2.34964
1.4639
0.78705
0.274254
-0.124296
-0.42555
-0.654519
-0.832391
-0.974026
-1.08977
-1.18835
-1.27199
-1.3438
-1.40564
-1.45858
-1.50329
-1.54028
-1.57006
-1.59299
-1.61035
-1.62215
-1.62752
222.214
188.845
155.997
125.09
97.4519
73.78
54.2591
38.6774
26.6102
17.5688
10.9902
6.34607
3.16763
1.05795
-0.308507
-1.17047
-1.70332
-2.02719
-2.22105
-2.33428
-2.40079
-2.43899
-2.45939
-2.46792
-2.46779
-2.46075
-2.44786
-2.42975
-2.40735
-2.38102
-2.3479
70.9266
65.0071
55.4693
44.3081
33.4511
23.9911
16.3357
10.4191
5.99783
2.78949
0.526469
-1.02627
-2.05529
-2.71566
-3.12643
-3.37362
-3.51213
-3.58096
-3.6056
-3.60224
-3.58074
-3.54705
-3.50476
-3.45601
-3.40218
-3.34424
-3.28287
-3.21854
-3.15203
-3.07849
-162.461
-127.857
-99.1795
-76.2535
-58.1393
-43.9035
-32.8501
-24.4549
-18.2569
-13.8151
-10.7313
-8.6495
-7.27545
-6.39473
-5.83761
-5.48049
-5.24619
-5.08322
-4.95851
-4.85224
-4.75326
-4.65575
-4.55706
-4.45621
-4.35313
-4.2482
-4.14188
-4.0341
-3.92606
-3.8109
-135.464
-111.797
-89.9488
-70.6985
-54.4718
-41.3542
-31.1661
-23.5441
-18.0138
-14.1129
-11.4358
-9.63764
-8.43852
-7.64495
-7.11522
-6.74983
-6.48266
-6.27143
-6.09039
-5.92461
-5.76594
-5.61024
-5.45571
-5.30175
-5.14843
-4.99606
-4.84394
-4.6937
-4.53652
27.3096
17.5978
10.0623
4.308
0.00666944
-3.11332
-5.27217
-6.69434
-7.56273
-8.02933
-8.2307
-8.26559
-8.19502
-8.0594
-7.88572
-7.69103
-7.48569
-7.27574
-7.06452
-6.85388
-6.6448
-6.43785
-6.23342
-6.03191
-5.83366
-5.6374
-5.44525
-5.24657
110.307
83.2908
60.1298
41.1686
26.2119
14.8439
6.52792
0.659179
-3.32963
-5.92581
-7.52466
-8.43347
-8.88205
-9.03125
-8.99601
-8.85166
-8.64599
-8.40824
-8.15557
-7.89757
-7.63939
-7.3837
-7.13185
-6.88461
-6.64247
-6.40371
-6.17111
-5.93246
10.4521
6.07728
1.77781
-1.93179
-4.89144
-7.12892
-8.69997
-9.73325
-10.3621
-10.6861
-10.7885
-10.7343
-10.5757
-10.3501
-10.0836
-9.79393
-9.49257
-9.18671
-8.88071
-8.57719
-8.27768
-7.98314
-7.69428
-7.41165
-7.13321
-6.86258
-6.58633
-74.9434
-58.3065
-45.4315
-35.6854
-28.4773
-23.2702
-19.5749
-16.9776
-15.1626
-13.8876
-12.9724
-12.2882
-11.747
-11.2913
-10.8853
-10.5074
-10.1458
-9.79421
-9.44974
-9.11132
-8.77882
-8.45258
-8.13314
-7.81824
-7.51247
-43.7538
-35.4403
-29.0499
-24.2604
-20.7388
-18.1899
-16.3621
-15.0473
-14.0838
-13.3518
-12.7664
-12.2702
-11.8265
-11.4129
-11.0166
-10.6308
-10.2524
-9.88011
-9.51383
-7.44475
-10.4113
-12.2908
-13.4028
-13.9835
-14.201
-14.1772
-13.9964
-13.7166
-13.3765
-13.0011
-12.6062
-12.2018
-11.7938
0.174916
-5.41772
-9.20136
-11.6312
-13.0824
-13.8497
-14.1563
-14.1588
-13.9721
-13.6713
-15.0598
-15.544
-15.7886
-15.8328
-15.7181
-1.11755
-1.20276
-1.35873
-1.07487
-1.15397
-1.29795
-1.51689
-1.82478
-2.24514
-2.80187
-3.52769
-4.48461
-5.71535
-1.03168
-1.10446
-1.23611
-1.43577
-1.71486
-2.09375
-2.59262
-3.23996
-4.09137
-5.17833
-0.988034
-1.0543
-1.17333
-1.35316
-1.60271
-1.93902
-2.37836
-2.94426
-3.68347
-4.6158
-0.943977
-1.00356
-1.10975
-1.2692
-1.48859
-1.78142
-2.15983
-2.64182
-3.26355
-4.03329
-0.899551
-0.952301
-1.04546
-1.18412
-1.37278
-1.62136
-1.9378
-2.334
-2.8345
-3.43676
-0.854805
-0.9006
-0.980525
-1.09812
-1.2556
-1.45934
-1.71307
-2.02225
-2.39936
-2.83233
-0.809788
-0.848529
-0.915058
-1.01141
-1.13736
-1.2959
-1.4865
-1.70809
-1.96134
-2.22621
-0.764552
-0.796163
-0.849177
-0.924164
-1.01839
-1.13154
-1.25894
-1.39311
-1.52371
-1.62447
-0.719149
-0.743579
-0.783002
-0.836542
-0.898974
-0.96681
-1.03124
-1.07887
-1.08962
-1.0328
)
;

boundaryField
{
    inlet
    {
        type            zeroGradient;
    }
    outlet
    {
        type            fixedValue;
        value           nonuniform 0();
    }
    cylinder
    {
        type            zeroGradient;
    }
    top
    {
        type            symmetryPlane;
    }
    bottom
    {
        type            symmetryPlane;
    }
    defaultFaces
    {
        type            empty;
    }
    procBoundary12to6
    {
        type            processor;
        value           nonuniform List<scalar> 
35
(
-7.20155
-9.15397
-8.80117
-8.45301
-7.20155
-8.11515
-11.3859
-10.9806
-10.5794
-9.15397
-10.1834
-13.3047
-12.9026
-11.3859
-12.4829
-15.487
-15.1733
-14.8037
-13.3047
-14.3983
-21.6386
-19.6048
-15.487
-18.156
-1.15971
-1.2508
-1.41833
-1.59639
-1.59639
-1.93222
-2.39275
-3.00538
-3.80629
-4.86094
-6.22202
)
;
    }
    procBoundary12to13
    {
        type            processor;
        value           nonuniform List<scalar> 
26
(
-222.046
62.7807
255.227
72.2699
72.2699
-201.744
-160.127
-160.127
39.4037
39.4037
140.178
14.079
14.079
-96.0011
-96.0011
-67.1287
-54.2525
-54.2525
-3.00531
-3.00531
8.09432
8.09432
-14.2989
-14.2989
-28.5724
-24.5174
)
;
    }
    procBoundary12to18
    {
        type            processor;
        value           nonuniform List<scalar> 
42
(
106.44
101.306
-101.834
-101.834
-77.1222
-57.9717
-42.9602
-31.0699
-21.7285
-14.558
-9.2189
-5.4198
-2.79342
-1.05127
0.0445766
0.68439
1.01393
1.14064
1.14074
1.06656
0.95256
0.820399
0.683086
0.548017
0.419152
0.298437
0.186674
0.0840385
-0.00953938
-0.0959517
-0.174584
-0.24805
-0.67363
-0.690853
-0.716654
-0.748723
-0.779415
-0.802183
-0.804239
-0.766897
-0.662039
-0.45641
)
;
    }
    procBoundary12to19
    {
        type            processor;
        value           uniform -211.294;
    }
}


// ************************************************************************* //
