/*--------------------------------*- C++ -*----------------------------------*\
  =========                 |
  \\      /  F ield         | OpenFOAM: The Open Source CFD Toolbox
   \\    /   O peration     | Website:  https://openfoam.org
    \\  /    A nd           | Version:  7
     \\/     M anipulation  |
\*---------------------------------------------------------------------------*/
FoamFile
{
    version     2.0;
    format      ascii;
    class       surfaceScalarField;
    location    "1.4";
    object      phi;
}
// * * * * * * * * * * * * * * * * * * * * * * * * * * * * * * * * * * * * * //

dimensions      [0 3 -1 0 0 0 0];

internalField   nonuniform List<scalar> 
616
(
0.000121303
-1.97667e-08
0.000121301
-2.31539e-08
0.000121299
-2.71015e-08
0.000121296
-3.17077e-08
0.000121293
-3.7087e-08
0.00012129
-4.3373e-08
0.000121286
-5.07213e-08
0.000121281
-5.9314e-08
0.000121275
-6.93633e-08
0.000121269
-8.11175e-08
0.000121261
-9.48666e-08
0.000121253
-1.1095e-07
0.000121242
-1.29764e-07
0.00012123
-1.51773e-07
0.000121216
-1.77519e-07
0.0001212
-2.07639e-07
0.00012118
-2.42875e-07
0.000121158
-2.84096e-07
0.000121131
-3.32324e-07
0.000121101
-3.88752e-07
0.000121065
-4.54774e-07
0.000121022
-5.32027e-07
0.000120973
-6.22428e-07
0.000120915
-7.28226e-07
0.000120848
-8.52054e-07
0.000120769
-9.97003e-07
0.000120677
-1.1667e-06
0.000120569
-1.36541e-06
0.000120442
-1.59812e-06
0.000120294
-1.87074e-06
0.000120121
-2.19017e-06
0.000119917
-2.5646e-06
0.00011968
-3.00363e-06
0.000119401
-3.51865e-06
0.000119074
-4.1231e-06
0.000118691
-4.83295e-06
0.000118241
-5.66711e-06
0.000117712
-6.64815e-06
0.000117091
-7.80296e-06
0.00011636
-9.16374e-06
0.000115499
-1.07691e-05
0.000114483
-1.26658e-05
0.000113282
-1.49099e-05
0.000111858
-1.75701e-05
0.000110167
-2.07298e-05
0.000108151
-2.44913e-05
0.000105738
-2.8981e-05
0.000102834
-3.43549e-05
9.93187e-05
-4.08068e-05
9.50317e-05
-4.85744e-05
8.97558e-05
-5.79444e-05
8.3189e-05
-6.92205e-05
7.4899e-05
-8.26295e-05
6.42547e-05
-9.78679e-05
5.04374e-05
-0.00011317
3.28681e-05
-0.000122254
1.31933e-05
-0.000112012
-5.4905e-05
0.000116818
0.000116817
-5.39457e-09
0.000116817
-6.5733e-09
0.000116816
-7.90125e-09
0.000116815
-9.41181e-09
0.000116814
-1.11426e-08
0.000116813
-1.31365e-08
0.000116811
-1.54451e-08
0.00011681
-1.81211e-08
0.000116808
-2.1229e-08
0.000116806
-2.48509e-08
0.000116803
-2.9077e-08
0.0001168
-3.40121e-08
0.000116796
-3.97789e-08
0.000116792
-4.65203e-08
0.000116787
-5.44034e-08
0.000116782
-6.3623e-08
0.000116775
-7.44068e-08
0.000116767
-8.70212e-08
0.000116758
-1.01777e-07
0.000116747
-1.19039e-07
0.000116735
-1.39233e-07
0.00011672
-1.62857e-07
0.000116703
-1.90494e-07
0.000116683
-2.22827e-07
0.000116659
-2.60652e-07
0.000116632
-3.04908e-07
0.0001166
-3.56689e-07
0.000116562
-4.17273e-07
0.000116518
-4.88164e-07
0.000116467
-5.71123e-07
0.000116407
-6.6821e-07
0.000116337
-7.81844e-07
0.000116255
-9.1486e-07
0.000116159
-1.07059e-06
0.000116046
-1.25293e-06
0.000115914
-1.46648e-06
0.00011576
-1.71663e-06
0.00011558
-2.00973e-06
0.000115369
-2.35327e-06
0.000115121
-2.75606e-06
0.000114831
-3.22852e-06
0.000114491
-3.78295e-06
0.000114092
-4.43395e-06
0.000113623
-5.19883e-06
0.000113073
-6.09815e-06
0.000112427
-7.15644e-06
0.000111666
-8.403e-06
0.00011077
-9.87292e-06
0.000109713
-1.16084e-05
0.000108463
-1.36602e-05
0.000106983
-1.60898e-05
0.000105225
-1.89719e-05
0.00010313
-2.23971e-05
0.000100626
-2.64767e-05
9.76175e-05
-3.13463e-05
9.39836e-05
-3.71729e-05
8.95663e-05
-4.41571e-05
8.41563e-05
-5.25344e-05
7.74702e-05
-6.25345e-05
6.91174e-05
-7.42767e-05
5.85614e-05
-8.73119e-05
4.51765e-05
-9.97854e-05
2.87323e-05
-0.00010581
1.10954e-05
-9.43756e-05
-4.38096e-05
0.000111891
-4.88001e-09
0.00011189
-5.94807e-09
0.000111889
-7.15309e-09
0.000111888
-8.52432e-09
0.000111887
-1.00955e-08
0.000111886
-1.19051e-08
0.000111885
-1.39997e-08
0.000111883
-1.64272e-08
0.000111881
-1.92473e-08
0.000111879
-2.25343e-08
0.000111876
-2.63688e-08
0.000111873
-3.08465e-08
0.000111869
-3.60785e-08
0.000111865
-4.21948e-08
0.00011186
-4.93469e-08
0.000111854
-5.77117e-08
0.000111847
-6.7496e-08
0.000111839
-7.89414e-08
0.000111829
-9.23304e-08
0.000111818
-1.07994e-07
0.000111805
-1.26317e-07
0.00011179
-1.47754e-07
0.000111773
-1.72833e-07
0.000111752
-2.02174e-07
0.000111728
-2.36501e-07
0.0001117
-2.76664e-07
0.000111666
-3.23654e-07
0.000111628
-3.78635e-07
0.000111583
-4.4297e-07
0.00011153
-5.18258e-07
0.000111468
-6.06368e-07
0.000111396
-7.09495e-07
0.000111311
-8.30212e-07
0.000111212
-9.71538e-07
0.000111096
-1.13701e-06
0.00011096
-1.33081e-06
0.000110801
-1.5578e-06
0.000110616
-1.82377e-06
0.000110398
-2.13547e-06
0.000110143
-2.5009e-06
0.000109844
-2.92949e-06
0.000109493
-3.43237e-06
0.000109082
-4.02274e-06
0.000108599
-4.71621e-06
0.000108032
-5.53136e-06
0.000107366
-6.49025e-06
0.000106582
-7.61922e-06
0.000105659
-8.94974e-06
0.00010457
-1.05195e-05
0.000103284
-1.23737e-05
0.000101761
-1.45668e-05
9.99534e-05
-1.71645e-05
9.78024e-05
-2.02461e-05
9.52335e-05
-2.39078e-05
9.21533e-05
-2.82661e-05
8.84426e-05
-3.34622e-05
8.39485e-05
-3.9663e-05
7.84728e-05
-4.70587e-05
7.17548e-05
-5.58165e-05
6.34494e-05
-6.59713e-05
5.31141e-05
-7.69766e-05
4.02987e-05
-8.697e-05
2.50478e-05
-9.05593e-05
9.3274e-06
-7.86551e-05
-3.44822e-05
0.000106522
-4.35818e-09
0.000106521
-5.31189e-09
0.000106521
-6.39171e-09
0.00010652
-7.62093e-09
0.000106519
-9.02931e-09
0.000106517
-1.0651e-08
0.000106516
-1.25266e-08
0.000106514
-1.47009e-08
0.000106512
-1.72282e-08
0.00010651
-2.01732e-08
0.000106507
-2.36085e-08
0.000106504
-2.76194e-08
0.0001065
-3.23061e-08
0.000106496
-3.77848e-08
0.00010649
-4.41913e-08
0.000106484
-5.16843e-08
0.000106477
-6.04491e-08
0.000106469
-7.0702e-08
0.000106459
-8.26964e-08
0.000106448
-9.67284e-08
0.000106435
-1.13145e-07
0.00010642
-1.3235e-07
0.000106402
-1.54819e-07
0.000106381
-1.81108e-07
0.000106356
-2.11866e-07
0.000106327
-2.47851e-07
0.000106293
-2.89954e-07
0.000106254
-3.39216e-07
0.000106208
-3.96862e-07
0.000106154
-4.64321e-07
0.000106091
-5.4327e-07
0.000106017
-6.35675e-07
0.000105931
-7.4384e-07
0.00010583
-8.70469e-07
0.000105711
-1.01873e-06
0.000105573
-1.19236e-06
0.000105411
-1.39573e-06
0.000105221
-1.634e-06
0.000104999
-1.91321e-06
0.000104738
-2.24053e-06
0.000104433
-2.62436e-06
0.000104076
-3.07466e-06
0.000103656
-3.60318e-06
0.000103164
-4.22385e-06
0.000102585
-4.95319e-06
0.000101906
-5.8108e-06
0.000101107
-6.82003e-06
0.000100166
-8.00867e-06
9.90562e-05
-9.40992e-06
9.7746e-05
-1.10635e-05
9.61959e-05
-1.30168e-05
9.43582e-05
-1.53267e-05
9.21737e-05
-1.80616e-05
8.9569e-05
-2.13032e-05
8.64527e-05
-2.51498e-05
8.27094e-05
-2.97188e-05
7.81935e-05
-3.51472e-05
7.27205e-05
-4.15857e-05
6.60553e-05
-4.91512e-05
5.78993e-05
-5.78153e-05
4.79002e-05
-6.69775e-05
3.57634e-05
-7.48333e-05
2.17452e-05
-7.65411e-05
7.82107e-06
-6.4731e-05
-2.66611e-05
0.000100704
-3.83294e-09
0.000100704
-4.67265e-09
0.000100703
-5.62562e-09
0.000100702
-6.71138e-09
0.000100701
-7.95532e-09
0.0001007
-9.38734e-09
0.000100698
-1.10426e-08
0.000100697
-1.29616e-08
0.000100694
-1.51927e-08
0.000100692
-1.77922e-08
0.000100689
-2.08242e-08
0.000100686
-2.43642e-08
0.000100682
-2.85004e-08
0.000100678
-3.33355e-08
0.000100673
-3.89895e-08
0.000100667
-4.56025e-08
0.000100659
-5.3338e-08
0.000100651
-6.23872e-08
0.000100641
-7.29737e-08
0.00010063
-8.5359e-08
0.000100617
-9.9849e-08
0.000100601
-1.16802e-07
0.000100583
-1.36636e-07
0.000100562
-1.59842e-07
0.000100537
-1.86996e-07
0.000100508
0.000100474
0.000100434
0.000100387
0.000100333
0.000100269
0.000100195
0.000100107
0.000100005
9.9886e-05
9.97462e-05
9.95825e-05
9.93909e-05
9.91664e-05
9.89035e-05
9.85955e-05
9.82343e-05
9.78108e-05
9.73138e-05
9.67303e-05
9.60448e-05
9.52387e-05
9.42898e-05
9.31716e-05
9.18521e-05
9.02923e-05
8.8445e-05
8.62522e-05
8.36425e-05
8.05276e-05
7.67976e-05
7.23162e-05
6.69142e-05
6.03829e-05
5.24704e-05
4.29079e-05
3.15357e-05
1.87674e-05
6.52386e-06
9.44314e-05
9.44308e-05
9.443e-05
9.44291e-05
9.44281e-05
9.44268e-05
9.44253e-05
9.44236e-05
9.44216e-05
9.44192e-05
9.44164e-05
9.44132e-05
9.44094e-05
9.44049e-05
9.43997e-05
9.43937e-05
9.43866e-05
9.43783e-05
9.43686e-05
9.43572e-05
9.4344e-05
9.43284e-05
9.43103e-05
9.42891e-05
)
;

boundaryField
{
    inlet
    {
        type            calculated;
        value           nonuniform 0();
    }
    outlet
    {
        type            calculated;
        value           nonuniform 0();
    }
    wall
    {
        type            calculated;
        value           uniform 0;
    }
    wedge1
    {
        type            wedge;
        value           nonuniform List<scalar> 
344
(
1.12047e-18
1.3263e-18
5.88807e-19
5.50849e-19
-1.34048e-18
8.88839e-19
1.5896e-18
6.83234e-19
6.2751e-19
-1.68166e-18
1.03188e-18
1.83718e-18
7.52261e-19
6.9233e-19
-2.08397e-18
1.18068e-18
2.12349e-18
8.31633e-19
7.59703e-19
-2.55183e-18
1.3471e-18
2.45426e-18
9.28656e-19
8.48115e-19
-3.06771e-18
1.5529e-18
2.8413e-18
1.0451e-18
9.53638e-19
-3.66246e-18
1.79285e-18
3.323e-18
1.21041e-18
1.09706e-18
-4.33054e-18
2.08096e-18
1.61986e-18
3.8433e-18
1.36391e-18
1.23593e-18
-5.13924e-18
2.39238e-18
1.87488e-18
4.47984e-18
1.57626e-18
1.42252e-18
-6.04185e-18
2.77999e-18
2.13024e-18
5.18177e-18
1.78709e-18
1.61583e-18
-7.12348e-18
3.21194e-18
2.46516e-18
6.03222e-18
2.0565e-18
1.84743e-18
-8.38404e-18
3.70976e-18
2.8137e-18
6.98337e-18
2.33385e-18
2.09448e-18
-9.87684e-18
4.27705e-18
3.2121e-18
8.0948e-18
2.66264e-18
2.38884e-18
-1.1604e-17
4.95371e-18
3.6833e-18
9.39662e-18
3.0488e-18
2.73327e-18
-1.36265e-17
5.74468e-18
4.27347e-18
1.09561e-17
3.53152e-18
3.16014e-18
-1.59706e-17
6.68206e-18
4.92714e-18
1.27414e-17
4.06214e-18
3.6322e-18
-1.87468e-17
7.75473e-18
5.7228e-18
1.48639e-17
4.71428e-18
4.20987e-18
-2.19563e-17
9.03326e-18
6.61276e-18
1.7305e-17
5.44028e-18
4.86062e-18
-2.57429e-17
1.05121e-17
7.68956e-18
2.01925e-17
6.3127e-18
5.62626e-18
-3.01705e-17
1.22335e-17
8.90615e-18
2.35301e-17
7.30008e-18
6.50492e-18
-3.53658e-17
1.42389e-17
1.03216e-17
2.74328e-17
8.45698e-18
7.53485e-18
-4.14301e-17
1.65969e-17
1.19831e-17
3.20025e-17
9.81478e-18
8.7429e-18
-4.85263e-17
1.93561e-17
1.39667e-17
3.73854e-17
1.14319e-17
1.01762e-17
-5.68119e-17
2.2594e-17
1.6254e-17
4.36459e-17
1.329e-17
1.18268e-17
-6.65395e-17
2.636e-17
1.89575e-17
5.10013e-17
1.54958e-17
1.37833e-17
-7.78828e-17
3.07904e-17
2.20774e-17
5.95663e-17
1.804e-17
1.60473e-17
-9.11843e-17
2.57674e-17
6.96211e-17
2.10398e-17
1.87028e-17
-1.06744e-16
3.00311e-17
8.13378e-17
2.45127e-17
2.17901e-17
-1.24964e-16
3.50291e-17
9.50533e-17
2.85786e-17
2.53951e-17
-1.46295e-16
4.08808e-17
1.1111e-16
3.33452e-17
2.96287e-17
-1.71233e-16
4.7734e-17
1.29907e-16
3.89305e-17
3.45889e-17
-2.00417e-16
5.5791e-17
1.51939e-16
4.54928e-17
4.04122e-17
-2.34559e-16
6.51881e-17
1.77693e-16
5.31408e-17
4.72013e-17
-2.74557e-16
7.62174e-17
2.07876e-16
6.21247e-17
5.51743e-17
-3.21345e-16
8.9091e-17
2.43177e-16
7.26101e-17
6.44863e-17
-3.76152e-16
1.04203e-16
2.84549e-16
8.49119e-17
7.53981e-17
-4.40331e-16
1.21865e-16
3.32973e-16
9.92859e-17
8.81558e-17
-5.1552e-16
1.42555e-16
3.89713e-16
1.16133e-16
1.0311e-16
-6.03586e-16
1.66812e-16
4.5622e-16
1.35883e-16
1.20639e-16
-7.06782e-16
1.95294e-16
5.34231e-16
1.59065e-16
1.41206e-16
-8.27727e-16
2.2867e-16
6.25699e-16
1.8622e-16
1.65299e-16
-9.69575e-16
2.67872e-16
7.33072e-16
2.18116e-16
1.93591e-16
-1.13593e-15
3.13869e-16
8.59109e-16
2.55528e-16
2.26777e-16
-1.33117e-15
3.67959e-16
1.00723e-15
2.99498e-16
2.65758e-16
-1.56042e-15
4.31531e-16
1.18135e-15
3.51153e-16
3.11549e-16
-1.82976e-15
5.06366e-16
1.38626e-15
4.11932e-16
3.65409e-16
-2.14637e-15
5.9456e-16
1.62766e-15
4.8351e-16
4.2881e-16
-2.51883e-15
6.98657e-16
1.91239e-15
5.6791e-16
5.03521e-16
-2.95732e-15
8.21617e-16
2.24859e-15
6.67478e-16
5.91597e-16
-3.47404e-15
9.67168e-16
2.64621e-15
7.85162e-16
6.95601e-16
-4.08341e-15
1.13971e-15
3.11719e-15
9.24393e-16
8.18511e-16
-4.80278e-15
1.34476e-15
3.67618e-15
1.08943e-15
9.63978e-16
-5.65277e-15
1.58896e-15
4.34094e-15
1.28535e-15
1.13635e-15
-6.65807e-15
1.88065e-15
5.13339e-15
1.51839e-15
1.3409e-15
-7.84815e-15
2.23014e-15
6.08046e-15
1.79615e-15
1.584e-15
-9.25816e-15
2.65029e-15
7.21534e-15
2.12787e-15
1.87331e-15
-1.093e-14
3.15708e-15
8.57848e-15
2.52463e-15
2.21783e-15
-1.29122e-14
3.76987e-15
1.02178e-14
2.99908e-15
2.62755e-15
-1.5257e-14
4.51008e-15
1.21822e-14
3.56315e-15
3.11088e-15
-1.80022e-14
5.3951e-15
1.45018e-14
4.22085e-15
3.6674e-15
-2.11245e-14
6.41115e-15
1.71042e-14
4.94148e-15
4.26251e-15
-2.43817e-14
7.44863e-15
1.96397e-14
5.60869e-15
4.78371e-15
-2.7065e-14
8.10467e-15
2.09765e-14
5.88267e-15
4.92891e-15
-2.74026e-14
7.47009e-15
1.88234e-14
5.14166e-15
4.19674e-15
-2.27244e-14
3.71158e-15
8.89778e-15
2.30947e-15
1.78673e-15
-9.12823e-15
)
;
    }
    wedge2
    {
        type            wedge;
        value           nonuniform List<scalar> 
344
(
5.64598e-19
7.67751e-19
3.17871e-20
-1.5853e-21
-1.8836e-18
3.56816e-19
9.61723e-19
7.28195e-20
4.16217e-20
-2.24574e-18
4.85366e-19
1.22872e-18
1.56619e-19
1.12443e-19
-2.64198e-18
6.45902e-19
1.52754e-18
2.51094e-19
1.99433e-19
-3.08347e-18
8.32146e-19
1.86716e-18
3.53264e-19
2.87884e-19
-3.60947e-18
1.03042e-18
2.25245e-18
4.66275e-19
3.86052e-19
-4.21433e-18
1.25558e-18
2.66509e-18
5.66583e-19
4.78292e-19
-4.93322e-18
1.50499e-18
9.45206e-19
3.18151e-18
7.2095e-19
6.1257e-19
-5.73246e-18
1.81674e-18
1.12953e-18
3.74882e-18
8.66198e-19
7.43413e-19
-6.69919e-18
2.15373e-18
1.38607e-18
4.44977e-18
1.07211e-18
9.20019e-19
-7.79573e-18
2.56603e-18
1.64849e-18
5.23629e-18
1.28894e-18
1.11996e-18
-9.07581e-18
3.05287e-18
1.99753e-18
6.19678e-18
1.57938e-18
1.37677e-18
-1.05494e-17
3.63518e-18
2.41427e-18
7.31912e-18
1.91403e-18
1.67116e-18
-1.22882e-17
4.30168e-18
2.89596e-18
8.62861e-18
2.30344e-18
2.01497e-18
-1.43172e-17
5.08082e-18
3.42001e-18
1.01226e-17
2.72761e-18
2.39288e-18
-1.67109e-17
5.97946e-18
4.06941e-18
1.19083e-17
3.25762e-18
2.86205e-18
-1.94759e-17
7.05418e-18
4.79786e-18
1.39628e-17
3.84607e-18
3.38534e-18
-2.2748e-17
8.28753e-18
5.69062e-18
1.64074e-17
4.57123e-18
4.02243e-18
-2.65436e-17
9.74718e-18
6.69913e-18
1.92351e-17
5.39635e-18
4.76333e-18
-3.0986e-17
1.14633e-17
7.92183e-18
2.25831e-17
6.39476e-18
5.64707e-18
-3.61674e-17
1.34797e-17
9.35977e-18
2.65013e-17
7.56091e-18
6.67889e-18
-4.22429e-17
1.58268e-17
1.10363e-17
3.10808e-17
8.92071e-18
7.88285e-18
-4.93493e-17
1.85723e-17
1.29574e-17
3.64011e-17
1.04829e-17
9.27134e-18
-5.76799e-17
2.17748e-17
1.52382e-17
4.26619e-17
1.23441e-17
1.09221e-17
-6.73927e-17
2.55441e-17
1.78784e-17
4.99551e-17
1.44896e-17
1.2828e-17
-7.87956e-17
2.99307e-17
2.10105e-17
5.85286e-17
1.70363e-17
1.50827e-17
-9.21058e-17
2.46354e-17
6.85262e-17
1.99928e-17
1.77141e-17
-1.07679e-16
2.893e-17
8.02712e-17
2.34889e-17
2.08127e-17
-1.25888e-16
3.39461e-17
9.40086e-17
2.75775e-17
2.44458e-17
-1.47184e-16
3.98127e-17
1.10078e-16
3.23532e-17
2.86824e-17
-1.7213e-16
4.66734e-17
1.28877e-16
3.79355e-17
3.3635e-17
-2.01326e-16
5.46674e-17
1.50849e-16
4.44438e-17
3.94136e-17
-2.35513e-16
6.40589e-17
1.76604e-16
5.20956e-17
4.62051e-17
-2.75494e-16
7.5026e-17
2.06725e-16
6.10232e-17
5.41307e-17
-3.22336e-16
8.79087e-17
2.42033e-16
7.15102e-17
6.34337e-17
-3.77153e-16
1.02961e-16
2.83354e-16
8.37693e-17
7.43212e-17
-4.41345e-16
1.20636e-16
3.31796e-16
9.8165e-17
8.70973e-17
-5.16508e-16
1.41351e-16
3.88554e-16
1.15026e-16
1.02058e-16
-6.0458e-16
1.65626e-16
4.55074e-16
1.34781e-16
1.19587e-16
-7.07781e-16
1.94052e-16
5.33032e-16
1.57916e-16
1.40116e-16
-8.28763e-16
2.27432e-16
6.24509e-16
1.85083e-16
1.64219e-16
-9.70587e-16
2.6658e-16
7.31828e-16
2.16929e-16
1.92471e-16
-1.13699e-15
3.12593e-16
8.57879e-16
2.5435e-16
2.25656e-16
-1.33223e-15
3.66631e-16
1.00595e-15
2.98289e-16
2.64624e-16
-1.56148e-15
4.30227e-16
1.1801e-15
3.49975e-16
3.10441e-16
-1.83079e-15
5.05093e-16
1.38504e-15
4.10775e-16
3.64317e-16
-2.1474e-15
5.9331e-16
1.62646e-15
4.82364e-16
4.27722e-16
-2.51986e-15
6.97357e-16
1.91115e-15
5.66721e-16
5.024e-16
-2.95838e-15
8.2033e-16
2.24736e-15
6.66309e-16
5.90493e-16
-3.47507e-15
9.65837e-16
2.64494e-15
7.83956e-16
6.94467e-16
-4.08448e-15
1.1384e-15
3.11594e-15
9.23203e-16
8.17383e-16
-4.80384e-15
1.34341e-15
3.67489e-15
1.08822e-15
9.62842e-16
-5.65383e-15
1.58766e-15
4.3397e-15
1.28417e-15
1.13524e-15
-6.6591e-15
1.87939e-15
5.13219e-15
1.51726e-15
1.33984e-15
-7.84913e-15
2.22891e-15
6.07929e-15
1.79505e-15
1.58297e-15
-9.25913e-15
2.64909e-15
7.2142e-15
2.12679e-15
1.87229e-15
-1.0931e-14
3.15584e-15
8.5773e-15
2.52351e-15
2.21679e-15
-1.29131e-14
3.76865e-15
1.02166e-14
2.998e-15
2.62654e-15
-1.52579e-14
4.50883e-15
1.2181e-14
3.56204e-15
3.10985e-15
-1.80031e-14
5.39389e-15
1.45006e-14
4.21979e-15
3.6664e-15
-2.11255e-14
6.40996e-15
1.71031e-14
4.94046e-15
4.26157e-15
-2.43825e-14
7.44759e-15
1.96388e-14
5.60781e-15
4.78291e-15
-2.70658e-14
8.10383e-15
2.09757e-14
5.88196e-15
4.92826e-15
-2.74032e-14
7.46951e-15
1.88229e-14
5.14117e-15
4.1963e-15
-2.27248e-14
3.71132e-15
8.89755e-15
2.30926e-15
1.78654e-15
-9.1284e-15
)
;
    }
    axis
    {
        type            empty;
        value           nonuniform 0();
    }
    procBoundary32to26
    {
        type            processor;
        value           nonuniform List<scalar> 
67
(
2.13484e-08
2.50054e-08
2.92666e-08
3.42387e-08
4.00453e-08
4.68305e-08
5.47625e-08
6.40375e-08
7.48847e-08
8.75718e-08
1.02412e-07
1.19771e-07
1.40077e-07
1.63831e-07
1.91618e-07
2.24124e-07
2.62151e-07
3.06637e-07
3.58683e-07
4.19578e-07
4.90825e-07
5.74191e-07
6.71746e-07
7.85913e-07
9.19537e-07
1.07595e-06
1.25908e-06
1.4735e-06
1.72464e-06
2.01883e-06
2.36357e-06
2.76766e-06
3.24151e-06
3.79742e-06
4.44992e-06
5.21629e-06
6.11703e-06
7.17657e-06
8.42412e-06
9.89467e-06
1.16303e-05
1.36819e-05
1.61112e-05
1.89934e-05
2.24209e-05
2.65074e-05
3.13945e-05
3.72587e-05
4.43219e-05
5.28614e-05
6.32203e-05
7.57874e-05
9.09195e-05
0.000108512
0.000126988
0.000139824
0.000131687
6.80983e-05
4.73682e-09
5.89275e-09
7.18078e-09
8.62847e-09
1.02746e-08
1.21605e-08
1.43332e-08
-0.000121304
1.68496e-08
)
;
    }
    procBoundary32to31
    {
        type            processor;
        value           nonuniform List<scalar> 5(-0.000116818 -4.34532e-09 -0.000111891 -0.000106522 -0.000100705);
    }
    procBoundary32to37
    {
        type            processor;
        value           uniform -9.44319e-05;
    }
    procBoundary32to38
    {
        type            processor;
        value           nonuniform List<scalar> 
66
(
-2.18764e-07
-2.5593e-07
-2.99418e-07
-3.50308e-07
-4.09862e-07
-4.7956e-07
-5.61137e-07
-6.56625e-07
-7.68412e-07
-8.99295e-07
-1.05256e-06
-1.23207e-06
-1.44237e-06
-1.68879e-06
-1.97762e-06
-2.31628e-06
-2.71351e-06
-3.17964e-06
-3.72688e-06
-4.36971e-06
-5.12527e-06
-6.01391e-06
-7.05981e-06
-8.29173e-06
-9.74389e-06
-1.1457e-05
-1.34794e-05
-1.58688e-05
-1.86935e-05
-2.20348e-05
-2.59889e-05
-3.06658e-05
-3.61837e-05
-4.26199e-05
-4.99028e-05
-5.7415e-05
-6.3461e-05
-6.37728e-05
-5.24875e-05
-2.01373e-05
-3.3127e-09
-4.03795e-09
-4.86403e-09
-5.80633e-09
-6.88602e-09
-8.12862e-09
-9.56429e-09
-1.12286e-08
-1.31638e-08
-1.54184e-08
-1.80479e-08
-2.11177e-08
-2.47045e-08
-2.88973e-08
-3.38004e-08
-3.9535e-08
-4.62433e-08
-5.40911e-08
-6.32723e-08
-7.40139e-08
-8.65813e-08
-1.01285e-07
-1.18489e-07
-1.38618e-07
9.42643e-05
-1.62172e-07
)
;
    }
}


// ************************************************************************* //
