/*--------------------------------*- C++ -*----------------------------------*\
  =========                 |
  \\      /  F ield         | OpenFOAM: The Open Source CFD Toolbox
   \\    /   O peration     | Website:  https://openfoam.org
    \\  /    A nd           | Version:  7
     \\/     M anipulation  |
\*---------------------------------------------------------------------------*/
FoamFile
{
    version     2.0;
    format      ascii;
    class       volVectorField;
    location    "4";
    object      U;
}
// * * * * * * * * * * * * * * * * * * * * * * * * * * * * * * * * * * * * * //

dimensions      [0 1 -1 0 0 0 0];

internalField   nonuniform List<vector> 
344
(
(0.256751 -0.00280218 -7.22779e-16)
(0.276779 0.0077726 -7.85772e-16)
(0.294781 0.016758 -8.04955e-16)
(0.311142 0.0243811 -8.59049e-16)
(0.32616 0.0308408 -8.78428e-16)
(0.340062 0.0363076 -9.21833e-16)
(0.353028 0.040925 -9.3416e-16)
(0.365198 0.0448135 -9.67138e-16)
(0.376685 0.0480745 -9.76908e-16)
(0.387578 0.0507932 -1.00348e-15)
(0.397951 0.0530417 -1.00636e-15)
(0.407864 0.0548814 -1.03255e-15)
(0.417369 0.0563645 -1.0488e-15)
(0.426508 0.0575362 -1.04335e-15)
(0.435317 0.0584354 -1.05415e-15)
(0.443826 0.0590959 -1.04385e-15)
(0.452062 0.0595472 -1.05278e-15)
(0.460049 0.059815 -1.04562e-15)
(0.467805 0.059922 -1.05135e-15)
(0.475349 0.0598882 -1.04024e-15)
(0.482696 0.0597312 -1.04448e-15)
(0.489859 0.0594666 -1.03175e-15)
(0.496851 0.0591082 -1.03251e-15)
(0.503682 0.0586682 -1.01711e-15)
(0.510362 0.0581577 -1.01458e-15)
(0.516898 0.0575863 -1.00171e-15)
(0.5233 0.0569627 -9.95818e-16)
(0.529573 0.0562945 -9.81344e-16)
(0.535724 0.0555887 -9.75414e-16)
(0.541758 0.0548514 -9.60487e-16)
(0.54768 0.054088 -9.52589e-16)
(0.553496 0.0533034 -9.38437e-16)
(0.559208 0.052502 -9.28711e-16)
(0.564822 0.0516875 -9.15421e-16)
(0.57034 0.0508634 -9.04824e-16)
(0.575765 0.0500327 -8.90451e-16)
(0.581101 0.0491982 -8.79274e-16)
(0.586351 0.0483622 -8.66954e-16)
(0.591516 0.0475268 -8.52825e-16)
(0.596599 0.0466939 -8.39979e-16)
(0.601602 0.0458651 -8.26354e-16)
(0.606528 0.0450418 -8.1309e-16)
(0.611378 0.0442253 -8.00059e-16)
(0.616154 0.0434167 -7.86368e-16)
(0.620857 0.042617 -7.73837e-16)
(0.62549 0.0418268 -7.59765e-16)
(0.630053 0.041047 -7.47851e-16)
(0.634548 0.040278 -7.33599e-16)
(0.638977 0.0395204 -7.22064e-16)
(0.643341 0.0387746 -7.06604e-16)
(0.64764 0.038041 -6.95944e-16)
(0.651877 0.0373197 -6.80518e-16)
(0.656052 0.0366109 -6.70407e-16)
(0.660167 0.0359149 -6.55375e-16)
(0.664222 0.0352317 -6.45446e-16)
(0.668218 0.0345613 -6.29333e-16)
(0.672158 0.0339039 -6.20012e-16)
(0.67604 0.0332592 -6.03906e-16)
(-0.0109353 -0.0998691 -4.38597e-17)
(-0.00818217 -0.124663 -1.65638e-16)
(0.0251152 -0.117912 -2.2396e-16)
(0.0571456 -0.0974812 -3.51346e-16)
(0.0891191 -0.0758526 -4.11964e-16)
(0.117414 -0.0557686 -4.8859e-16)
(0.142449 -0.0380467 -5.12519e-16)
(0.164585 -0.0227648 -6.0677e-16)
(0.184353 -0.00972654 -6.46493e-16)
(0.202212 0.00134042 -7.03135e-16)
(0.218535 0.0107139 -7.05923e-16)
(0.233613 0.0186472 -7.76472e-16)
(0.247673 0.025359 -8.03654e-16)
(0.260886 0.0310349 -8.40889e-16)
(0.273386 0.0358291 -8.34769e-16)
(0.285278 0.0398704 -8.8884e-16)
(0.296645 0.0432656 -9.01779e-16)
(0.307551 0.0461044 -9.2826e-16)
(0.318051 0.0484619 -9.16785e-16)
(0.328187 0.0504018 -9.57658e-16)
(0.337996 0.0519783 -9.77711e-16)
(0.347508 0.0532376 -9.74822e-16)
(0.356747 0.0542198 -9.81403e-16)
(0.365737 0.0549593 -9.61551e-16)
(0.374494 0.0554864 -9.83842e-16)
(0.383035 0.0558272 -9.80048e-16)
(0.391375 0.0560048 -9.86275e-16)
(0.399525 0.0560393 -9.65946e-16)
(0.407495 0.0559488 -9.77299e-16)
(0.415296 0.055749 -9.70414e-16)
(0.422936 0.0554537 -9.7081e-16)
(0.430423 0.0550756 -9.5008e-16)
(0.437762 0.0546255 -9.55902e-16)
(0.444961 0.0541133 -9.4515e-16)
(0.452025 0.0535477 -9.40103e-16)
(0.458959 0.0529364 -9.21544e-16)
(0.465767 0.0522865 -9.21992e-16)
(0.472453 0.051604 -9.10921e-16)
(0.479022 0.0508945 -9.03008e-16)
(0.485477 0.0501628 -8.86326e-16)
(0.491822 0.0494133 -8.80897e-16)
(0.498058 0.0486499 -8.70018e-16)
(0.50419 0.0478761 -8.60616e-16)
(0.51022 0.0470948 -8.45979e-16)
(0.516149 0.0463088 -8.3785e-16)
(0.521982 0.0455205 -8.27265e-16)
(0.527719 0.044732 -8.14848e-16)
(0.533364 0.0439452 -8.03017e-16)
(0.538917 0.0431617 -7.90392e-16)
(0.544381 0.042383 -7.78533e-16)
(0.549758 0.0416103 -7.66749e-16)
(0.555049 0.0408447 -7.54256e-16)
(0.560257 0.0400873 -7.43932e-16)
(0.565382 0.0393387 -7.30044e-16)
(0.570426 0.0385997 -7.1906e-16)
(0.575392 0.0378709 -7.05913e-16)
(0.580279 0.0371527 -6.9736e-16)
(0.58509 0.0364457 -6.82096e-16)
(0.589827 0.0357501 -6.71106e-16)
(0.59449 0.0350662 -6.57583e-16)
(0.59908 0.0343941 -6.51715e-16)
(0.6036 0.0337342 -6.34645e-16)
(0.60805 0.0330864 -6.24621e-16)
(0.612431 0.0324508 -6.1037e-16)
(0.616745 0.0318275 -6.01376e-16)
(0.620993 0.0312164 -5.86719e-16)
(-0.0127899 -0.0928503 -2.16055e-17)
(-0.0187793 -0.126832 -1.29856e-16)
(-0.000831062 -0.124306 -1.8153e-16)
(0.0202887 -0.10513 -2.92921e-16)
(0.0436391 -0.0835093 -3.49243e-16)
(0.0653977 -0.0629695 -4.21977e-16)
(0.085376 -0.0447345 -4.53805e-16)
(0.103551 -0.0289996 -5.40372e-16)
(0.120194 -0.0155954 -5.72512e-16)
(0.135581 -0.00424172 -6.29725e-16)
(0.149953 0.00535558 -6.39866e-16)
(0.163501 0.0134655 -7.04808e-16)
(0.176376 0.0203198 -7.25944e-16)
(0.188691 0.0261139 -7.69661e-16)
(0.200531 0.031009 -7.68366e-16)
(0.211963 0.035139 -8.1699e-16)
(0.223038 0.0386144 -8.28057e-16)
(0.233796 0.0415273 -8.58616e-16)
(0.244269 0.0439547 -8.52159e-16)
(0.254481 0.0459614 -8.91141e-16)
(0.264454 0.0476026 -9.0876e-16)
(0.274204 0.0489251 -9.04119e-16)
(0.283746 0.0499694 -9.13843e-16)
(0.293091 0.0507703 -8.99179e-16)
(0.302249 0.051358 -9.15388e-16)
(0.31123 0.051759 -9.11824e-16)
(0.32004 0.0519963 -9.21396e-16)
(0.328686 0.0520903 -9.05097e-16)
(0.337175 0.0520588 -9.14929e-16)
(0.34551 0.0519176 -9.07276e-16)
(0.353698 0.0516807 -9.11111e-16)
(0.361742 0.0513604 -8.94623e-16)
(0.369646 0.0509678 -8.969e-16)
(0.377414 0.0505127 -8.87041e-16)
(0.385049 0.0500037 -8.85585e-16)
(0.392555 0.0494486 -8.70134e-16)
(0.399933 0.0488542 -8.69131e-16)
(0.407187 0.0482268 -8.58427e-16)
(0.414319 0.0475718 -8.53207e-16)
(0.421332 0.046894 -8.38954e-16)
(0.428228 0.0461978 -8.34334e-16)
(0.435009 0.045487 -8.23681e-16)
(0.441678 0.0447652 -8.16082e-16)
(0.448236 0.0440352 -8.03268e-16)
(0.454686 0.0432999 -7.95781e-16)
(0.461029 0.0425616 -7.8661e-16)
(0.467268 0.0418224 -7.75083e-16)
(0.473404 0.0410842 -7.64816e-16)
(0.479439 0.0403486 -7.53386e-16)
(0.485374 0.039617 -7.42525e-16)
(0.491212 0.0388908 -7.31863e-16)
(0.496955 0.0381709 -7.20498e-16)
(0.502603 0.0374585 -7.10821e-16)
(0.508158 0.0367541 -6.98489e-16)
(0.513623 0.0360587 -6.88527e-16)
(0.518999 0.0353727 -6.76619e-16)
(0.524286 0.0346966 -6.68458e-16)
(0.529487 0.034031 -6.54641e-16)
(0.534604 0.033376 -6.45305e-16)
(0.539637 0.032732 -6.32126e-16)
(0.544589 0.0320993 -6.25916e-16)
(0.54946 0.0314778 -6.11855e-16)
(0.554252 0.0308679 -6.02732e-16)
(0.558967 0.0302695 -5.8872e-16)
(0.563606 0.0296827 -5.80685e-16)
(0.56817 0.0291074 -5.66919e-16)
(-0.0127238 -0.0846492 5.62405e-18)
(-0.0248283 -0.125106 -9.85451e-17)
(-0.0195646 -0.126476 -1.36343e-16)
(-0.00846389 -0.109315 -2.44739e-16)
(0.00648885 -0.088424 -2.80451e-16)
(0.0216652 -0.0680093 -3.66044e-16)
(0.0364338 -0.0497041 -3.86661e-16)
(0.0504645 -0.0338545 -4.81476e-16)
(0.0637947 -0.0203471 -5.01204e-16)
(0.0765257 -0.00891438 -5.67407e-16)
(0.0887693 0.000739791 -5.7326e-16)
(0.100619 0.00889064 -6.38475e-16)
(0.112147 0.0157755 -6.48908e-16)
(0.123407 0.0215949 -7.01167e-16)
(0.134437 0.0265132 -6.99002e-16)
(0.145264 0.0306664 -7.49964e-16)
(0.155907 0.0341665 -7.50418e-16)
(0.16638 0.0371062 -7.91932e-16)
(0.176693 0.0395631 -7.83849e-16)
(0.186853 0.0416022 -8.2716e-16)
(0.196864 0.0432785 -8.43217e-16)
(0.20673 0.0446389 -8.32524e-16)
(0.216454 0.0457235 -8.48322e-16)
(0.226038 0.046567 -8.3443e-16)
(0.235483 0.0471995 -8.50283e-16)
(0.244791 0.0476471 -8.42562e-16)
(0.253962 0.0479327 -8.57602e-16)
(0.262998 0.0480763 -8.41848e-16)
(0.271899 0.0480957 -8.55325e-16)
(0.280666 0.0480064 -8.43523e-16)
(0.289301 0.0478222 -8.516e-16)
(0.297803 0.0475554 -8.34756e-16)
(0.306175 0.0472168 -8.39709e-16)
(0.314416 0.046816 -8.28221e-16)
(0.322529 0.0463616 -8.31296e-16)
(0.330514 0.0458612 -8.16246e-16)
(0.338372 0.0453216 -8.17142e-16)
(0.346105 0.0447489 -8.05245e-16)
(0.353713 0.0441484 -8.03985e-16)
(0.361199 0.043525 -7.8973e-16)
(0.368563 0.0428828 -7.86441e-16)
(0.375807 0.0422258 -7.75803e-16)
(0.382932 0.0415572 -7.71012e-16)
(0.38994 0.0408801 -7.59038e-16)
(0.396832 0.0401971 -7.53103e-16)
(0.40361 0.0395106 -7.45019e-16)
(0.410275 0.0388226 -7.34168e-16)
(0.416828 0.038135 -7.25399e-16)
(0.423273 0.0374493 -7.15011e-16)
(0.429609 0.0367671 -7.05189e-16)
(0.435839 0.0360895 -6.95725e-16)
(0.441964 0.0354176 -6.85247e-16)
(0.447986 0.0347523 -6.76757e-16)
(0.453907 0.0340945 -6.65347e-16)
(0.459727 0.0334449 -6.5716e-16)
(0.46545 0.0328039 -6.45091e-16)
(0.471076 0.0321722 -6.38482e-16)
(0.476606 0.0315501 -6.25398e-16)
(0.482044 0.030938 -6.18006e-16)
(0.487389 0.0303362 -6.0482e-16)
(0.492644 0.0297448 -6.00485e-16)
(0.497811 0.029164 -5.86903e-16)
(0.502891 0.028594 -5.80265e-16)
(0.507885 0.0280348 -5.64343e-16)
(0.512795 0.0274865 -5.59632e-16)
(0.517622 0.026949 -5.44601e-16)
(-0.0118292 -0.0761468 -6.89925e-18)
(-0.0280755 -0.120395 -7.37719e-17)
(-0.0329493 -0.125123 -8.63827e-17)
(-0.0307065 -0.110372 -2.04084e-16)
(-0.0235879 -0.09074 -2.54611e-16)
(-0.0147654 -0.0709435 -3.24959e-16)
(-0.00514491 -0.0529687 -3.18471e-16)
(0.00472618 -0.0373218 -4.30371e-16)
(0.014688 -0.0239631 -4.66926e-16)
(0.0246863 -0.0126531 -5.11483e-16)
(0.0347123 -0.00310514 -4.98102e-16)
(0.0447653 0.00495326 -5.81316e-16)
(0.0548441 0.0117588 -6.0726e-16)
(0.0649433 0.0175119 -6.42992e-16)
(0.0750536 0.0223766 -6.23807e-16)
(0.0851646 0.0264881 -6.885e-16)
(0.0952643 0.0299577 -7.03743e-16)
(0.105341 0.0328774 -7.3044e-16)
(0.115382 0.0353236 -7.08918e-16)
(0.125376 0.0373605 -7.64959e-16)
(0.135314 0.0390423 -7.86487e-16)
(0.145185 0.040415 -7.82214e-16)
(0.154981 0.041518 -7.89828e-16)
(0.164694 0.0423853 -7.62699e-16)
(0.174317 0.0430463 -7.91771e-16)
(0.183844 0.0435266 -7.91368e-16)
(0.19327 0.0438486 -7.98574e-16)
(0.20259 0.0440318 -7.7433e-16)
(0.2118 0.0440935 -7.96395e-16)
(0.220896 0.0440489 -7.92566e-16)
(0.229876 0.0439115 -7.94111e-16)
(0.238738 0.0436932 -7.7231e-16)
(0.247478 0.0434045 -7.84548e-16)
(0.256096 0.0430548 -7.79441e-16)
(0.264591 0.0426525 -7.78518e-16)
(0.272961 0.042205 -7.5883e-16)
(0.281207 0.0417189 -7.65644e-16)
(0.289327 0.0412001 -7.58632e-16)
(0.297322 0.0406538 -7.5538e-16)
(0.305192 0.0400846 -7.38699e-16)
(0.312937 0.0394968 -7.39964e-16)
(0.320558 0.0388941 -7.32492e-16)
(0.328055 0.0382796 -7.26116e-16)
(0.33543 0.0376563 -7.13031e-16)
(0.342683 0.0370268 -7.09542e-16)
(0.349816 0.0363933 -7.02786e-16)
(0.356829 0.035758 -6.93648e-16)
(0.363725 0.0351225 -6.85268e-16)
(0.370503 0.0344884 -6.75396e-16)
(0.377166 0.0338572 -6.66728e-16)
(0.383715 0.0332299 -6.58003e-16)
(0.390152 0.0326077 -6.48738e-16)
(0.396478 0.0319915 -6.41985e-16)
(0.402695 0.031382 -6.30676e-16)
(0.408804 0.03078 -6.21752e-16)
(0.414808 0.0301859 -6.1222e-16)
(0.420707 0.0296003 -6.08256e-16)
(0.426504 0.0290237 -5.94294e-16)
(0.4322 0.0284562 -5.85968e-16)
(0.437797 0.0278982 -5.75368e-16)
(0.443296 0.02735 -5.7416e-16)
(0.448699 0.0268115 -5.5937e-16)
(0.454009 0.0262831 -5.50867e-16)
(0.459226 0.0257648 -5.38125e-16)
(0.464353 0.0252565 -5.31396e-16)
(0.46939 0.0247583 -5.19106e-16)
(-0.0106585 -0.0677674 -1.28796e-17)
(-0.0296081 -0.113503 -6.55673e-17)
(-0.0423658 -0.12093 -6.48488e-17)
(-0.0477072 -0.108702 -1.80498e-16)
(-0.0476502 -0.0906808 -2.38073e-16)
(-0.0447553 -0.0718977 -2.9286e-16)
(-0.0400499 -0.0545987 -2.85042e-16)
(-0.0342143 -0.0394404 -3.89987e-16)
(-0.0275626 -0.0264629 -4.30757e-16)
(-0.0202806 -0.0154642 -4.65517e-16)
(-0.0124848 -0.00617641 -4.53218e-16)
(-0.00426207 0.00166279 -5.34288e-16)
(0.00431779 0.00828467 -5.66273e-16)
(0.0131944 0.0138838 -5.90754e-16)
(0.022314 0.0186212 -5.69345e-16)
(0.0316303 0.0226287 -6.37874e-16)
(0.0411015 0.0260149 -6.55266e-16)
(0.0506911 0.0288691 -6.77236e-16)
(0.0603668 0.0312658 -6.53429e-16)
(0.0700998 0.0332671 -7.10142e-16)
(0.0798652 0.0349255 -7.29362e-16)
(0.0896408 0.0362856 -7.32863e-16)
)
;

boundaryField
{
    inlet
    {
        type            uniformFixedValue;
        uniformValue    constant (1 0 0);
        value           nonuniform 0();
    }
    outlet
    {
        type            pressureInletOutletVelocity;
        value           nonuniform 0();
    }
    wall
    {
        type            fixedValue;
        value           uniform (0 0 0);
    }
    wedge1
    {
        type            wedge;
    }
    wedge2
    {
        type            wedge;
    }
    axis
    {
        type            empty;
    }
    procBoundary27to21
    {
        type            processor;
        value           nonuniform List<vector> 
67
(
(0.337859 0.00506558 -8.4333e-16)
(0.359625 0.0149553 -8.75648e-16)
(0.378932 0.0233984 -9.07348e-16)
(0.396245 0.0305862 -9.49251e-16)
(0.411926 0.036691 -9.92014e-16)
(0.426253 0.0418634 -1.00902e-15)
(0.439445 0.0462326 -1.02789e-15)
(0.451673 0.0499086 -1.05297e-15)
(0.463077 0.0529847 -1.08396e-15)
(0.473769 0.0555403 -1.08677e-15)
(0.48384 0.0576433 -1.09418e-15)
(0.493367 0.0593515 -1.11187e-15)
(0.502414 0.0607149 -1.12363e-15)
(0.511034 0.0617764 -1.13166e-15)
(0.519273 0.0625735 -1.12473e-15)
(0.527171 0.0631386 -1.12162e-15)
(0.534761 0.0635004 -1.12533e-15)
(0.542073 0.0636837 -1.13019e-15)
(0.549132 0.0637106 -1.11997e-15)
(0.55596 0.0636005 -1.11132e-15)
(0.562577 0.0633706 -1.11143e-15)
(0.569 0.0630361 -1.10779e-15)
(0.575244 0.0626104 -1.09479e-15)
(0.581324 0.0621057 -1.08162e-15)
(0.58725 0.0615326 -1.07332e-15)
(0.593035 0.0609007 -1.06753e-15)
(0.598686 0.0602183 -1.05142e-15)
(0.604213 0.0594931 -1.03782e-15)
(0.609623 0.0587319 -1.02811e-15)
(0.614924 0.0579406 -1.01801e-15)
(0.62012 0.0571246 -1.00224e-15)
(0.625219 0.0562886 -9.87634e-16)
(0.630224 0.055437 -9.75339e-16)
(0.635141 0.0545736 -9.63471e-16)
(0.639972 0.0537016 -9.47638e-16)
(0.644723 0.052824 -9.32566e-16)
(0.649396 0.0519436 -9.19002e-16)
(0.653994 0.0510627 -9.04981e-16)
(0.65852 0.0501832 -8.90615e-16)
(0.662977 0.0493072 -8.75307e-16)
(0.667366 0.0484361 -8.60364e-16)
(0.67169 0.0475713 -8.45699e-16)
(0.675952 0.0467141 -8.30895e-16)
(0.680151 0.0458656 -8.16365e-16)
(0.684291 0.0450266 -8.02157e-16)
(0.688373 0.044198 -7.87209e-16)
(0.692398 0.0433804 -7.72205e-16)
(0.696367 0.0425744 -7.58959e-16)
(0.700282 0.0417804 -7.44858e-16)
(0.704144 0.0409989 -7.29329e-16)
(0.707954 0.0402301 -7.13544e-16)
(0.711713 0.0394743 -7.01016e-16)
(0.715421 0.0387317 -6.88118e-16)
(0.71908 0.0380025 -6.73697e-16)
(0.722691 0.0372866 -6.57553e-16)
(0.726255 0.0365842 -6.45301e-16)
(0.729772 0.0358953 -6.29988e-16)
(0.733243 0.0352197 -6.1923e-16)
(-0.00506897 -0.104144 -6.29345e-17)
(0.00971056 -0.117604 -2.25167e-16)
(0.0606991 -0.106694 -3.12914e-16)
(0.104037 -0.0861616 -4.22899e-16)
(0.144369 -0.0654243 -4.82764e-16)
(0.178801 -0.0464434 -5.72134e-16)
(0.208479 -0.0296986 -6.12514e-16)
(0.234197 -0.0152125 -6.8243e-16)
(0.234197 -0.0152125 -6.8243e-16)
)
;
    }
    procBoundary27to22
    {
        type            processor;
        value           uniform (0.679868 0.0326275 -5.97142e-16);
    }
    procBoundary27to28
    {
        type            processor;
        value           nonuniform List<vector> 4((0.625176 0.0306176 -5.79554e-16) (0.57266 0.0285437 -5.60552e-16) (0.522369 0.0264223 -5.41053e-16) (0.47434 0.0242703 -5.14006e-16));
    }
    procBoundary27to33
    {
        type            processor;
        value           nonuniform List<vector> 
67
(
(0.0994069 0.0373855 -7.34143e-16)
(0.109147 0.038258 -7.06289e-16)
(0.118845 0.0389315 -7.34372e-16)
(0.128488 0.0394308 -7.40036e-16)
(0.138066 0.0397772 -7.43648e-16)
(0.147567 0.0399899 -7.18943e-16)
(0.156983 0.0400852 -7.42273e-16)
(0.166306 0.040078 -7.41502e-16)
(0.17553 0.0399812 -7.41563e-16)
(0.18465 0.0398061 -7.1956e-16)
(0.193659 0.0395631 -7.32003e-16)
(0.202556 0.039261 -7.29612e-16)
(0.211335 0.038908 -7.27359e-16)
(0.219995 0.0385111 -7.08913e-16)
(0.228532 0.0380768 -7.15499e-16)
(0.236946 0.0376106 -7.11551e-16)
(0.245236 0.0371176 -7.07265e-16)
(0.253399 0.0366023 -6.91138e-16)
(0.261435 0.0360687 -6.9286e-16)
(0.269345 0.0355202 -6.87536e-16)
(0.277128 0.0349601 -6.8145e-16)
(0.284785 0.0343912 -6.68675e-16)
(0.292315 0.0338159 -6.66313e-16)
(0.29972 0.0332363 -6.60208e-16)
(0.307001 0.0326546 -6.52313e-16)
(0.314158 0.0320722 -6.44346e-16)
(0.321192 0.0314909 -6.35306e-16)
(0.328105 0.0309118 -6.27426e-16)
(0.334898 0.0303362 -6.19302e-16)
(0.341573 0.029765 -6.11054e-16)
(0.348131 0.0291991 -6.05148e-16)
(0.354573 0.0286393 -5.9462e-16)
(0.360901 0.0280863 -5.8613e-16)
(0.367118 0.0275405 -5.77452e-16)
(0.373224 0.0270024 -5.74548e-16)
(0.379221 0.0264725 -5.61434e-16)
(0.385111 0.025951 -5.52766e-16)
(0.390896 0.0254382 -5.43914e-16)
(0.396578 0.0249344 -5.43343e-16)
(0.402158 0.0244396 -5.28745e-16)
(0.407638 0.023954 -5.20043e-16)
(0.41302 0.0234777 -5.09662e-16)
(0.418306 0.0230108 -5.02236e-16)
(0.423498 0.0225531 -4.92145e-16)
(-0.00947522 -0.0597038 -1.3209e-17)
(-0.0300857 -0.105095 -6.00809e-17)
(-0.0488067 -0.114511 -8.13041e-17)
(-0.0604526 -0.104725 -1.60903e-16)
(-0.0665704 -0.0885235 -2.20287e-16)
(-0.0690397 -0.0710487 -2.63015e-16)
(-0.0688862 -0.0547093 -2.8029e-16)
(-0.0668493 -0.0402868 -3.5328e-16)
(-0.0633545 -0.0278971 -3.98555e-16)
(-0.0586933 -0.0173803 -4.28131e-16)
(-0.0530741 -0.00849312 -4.30895e-16)
(-0.0466596 -0.000989322 -4.92464e-16)
(-0.0395813 0.00535209 -5.24239e-16)
(-0.0319497 0.0107162 -5.46963e-16)
(-0.0238586 0.0152579 -5.42531e-16)
(-0.0153878 0.0191034 -5.88962e-16)
(-0.00660609 0.0223566 -6.09927e-16)
(0.00242729 0.0251029 -6.26339e-16)
(0.0116609 0.0274135 -6.18653e-16)
(0.0210503 0.0293476 -6.57564e-16)
(0.0305565 0.0309554 -6.78124e-16)
(0.0994069 0.0373855 -7.34143e-16)
(0.0401457 0.0322793 -6.80042e-16)
)
;
    }
}


// ************************************************************************* //
