/*--------------------------------*- C++ -*----------------------------------*\
  =========                 |
  \\      /  F ield         | OpenFOAM: The Open Source CFD Toolbox
   \\    /   O peration     | Website:  https://openfoam.org
    \\  /    A nd           | Version:  7
     \\/     M anipulation  |
\*---------------------------------------------------------------------------*/
FoamFile
{
    version     2.0;
    format      ascii;
    class       volScalarField;
    location    "199";
    object      p;
}
// * * * * * * * * * * * * * * * * * * * * * * * * * * * * * * * * * * * * * //

dimensions      [0 2 -2 0 0 0 0];

internalField   nonuniform List<scalar> 
12400
(
-0.369409
-0.371953
-0.373393
-0.374302
-0.374993
-0.375574
-0.376153
-0.376816
-0.377608
-0.378555
-0.379682
-0.381045
-0.382767
-0.385068
-0.38831
-0.393007
-0.399822
-0.409519
-0.422506
-0.438084
-0.365202
-0.367353
-0.368511
-0.369147
-0.369526
-0.369747
-0.369922
-0.370146
-0.370489
-0.371012
-0.371798
-0.372988
-0.374823
-0.377682
-0.382113
-0.388836
-0.398663
-0.412401
-0.430556
-0.451548
-0.361515
-0.363234
-0.364091
-0.364451
-0.364523
-0.364397
-0.364186
-0.363994
-0.363913
-0.36404
-0.36451
-0.365538
-0.367467
-0.370805
-0.37625
-0.384672
-0.396985
-0.41391
-0.436219
-0.461003
-0.358259
-0.35953
-0.360081
-0.360166
-0.359938
-0.359476
-0.358891
-0.358297
-0.357807
-0.357552
-0.357711
-0.358565
-0.360539
-0.36424
-0.370475
-0.380209
-0.394436
-0.413672
-0.439037
-0.466119
-0.35534
-0.356173
-0.356424
-0.356241
-0.355721
-0.354931
-0.353978
-0.352985
-0.352088
-0.351447
-0.351284
-0.351928
-0.353873
-0.357793
-0.364568
-0.3752
-0.390763
-0.411345
-0.438866
-0.466877
-0.35267
-0.3531
-0.353069
-0.352629
-0.351826
-0.350711
-0.349389
-0.347991
-0.346674
-0.345629
-0.345112
-0.345495
-0.347316
-0.351305
-0.358367
-0.36948
-0.385868
-0.406896
-0.435751
-0.46357
-0.350175
-0.350256
-0.349972
-0.349292
-0.348214
-0.346775
-0.345076
-0.343258
-0.341497
-0.340013
-0.3391
-0.33916
-0.340763
-0.344665
-0.351788
-0.363008
-0.379805
-0.400538
-0.430028
-0.456784
-0.347802
-0.347604
-0.347105
-0.346203
-0.344858
-0.343095
-0.341008
-0.338748
-0.336511
-0.33455
-0.333187
-0.332858
-0.334154
-0.337835
-0.34484
-0.355865
-0.372758
-0.392676
-0.422294
-0.447314
-0.345512
-0.345124
-0.344451
-0.34335
-0.341748
-0.339659
-0.337171
-0.334445
-0.331701
-0.329219
-0.327358
-0.326582
-0.327497
-0.330856
-0.337616
-0.34825
-0.365021
-0.383848
-0.41327
-0.436112
-0.343303
-0.342813
-0.342014
-0.340736
-0.338888
-0.336471
-0.333572
-0.330361
-0.327081
-0.324047
-0.321649
-0.320384
-0.320871
-0.32385
-0.330298
-0.340455
-0.356958
-0.374644
-0.403579
-0.424119
-0.341195
-0.340691
-0.339809
-0.338376
-0.336293
-0.333552
-0.330238
-0.326532
-0.322704
-0.3191
-0.316149
-0.314378
-0.314425
-0.317014
-0.323137
-0.33284
-0.348962
-0.365636
-0.393633
-0.411889
-0.339236
-0.338797
-0.337871
-0.336303
-0.333996
-0.330937
-0.327213
-0.323019
-0.318649
-0.314484
-0.310992
-0.308733
-0.308368
-0.310608
-0.316436
-0.325775
-0.341395
-0.357257
-0.383484
-0.399595
-0.3375
-0.33719
-0.336248
-0.334559
-0.33204
-0.328676
-0.324561
-0.319903
-0.315023
-0.310336
-0.30635
-0.303659
-0.302947
-0.304918
-0.310507
-0.31958
-0.334526
-0.349649
-0.373094
-0.386717
-0.336088
-0.335942
-0.335002
-0.333202
-0.330482
-0.326833
-0.322359
-0.317283
-0.31195
-0.306812
-0.302413
-0.29938
-0.298416
-0.300208
-0.305611
-0.314435
-0.328458
-0.34261
-0.362463
-0.37322
-0.335115
-0.335144
-0.334207
-0.332299
-0.329391
-0.325485
-0.320695
-0.315265
-0.309563
-0.304071
-0.299366
-0.296102
-0.294985
-0.296676
-0.301874
-0.310323
-0.32307
-0.335675
-0.351477
-0.358545
-0.334709
-0.334888
-0.333941
-0.331923
-0.32884
-0.324711
-0.319663
-0.313959
-0.307986
-0.302253
-0.29736
-0.293975
-0.29278
-0.294374
-0.299246
-0.307027
-0.318016
-0.328375
-0.340023
-0.342976
-0.334993
-0.335268
-0.334283
-0.332148
-0.328902
-0.324587
-0.319345
-0.313453
-0.307315
-0.301455
-0.296482
-0.293052
-0.291795
-0.2932
-0.297489
-0.304175
-0.312846
-0.320429
-0.328026
-0.327052
-0.336078
-0.336366
-0.335302
-0.333035
-0.329639
-0.325175
-0.3198
-0.313803
-0.307596
-0.301704
-0.296723
-0.293272
-0.291883
-0.292895
-0.29624
-0.301346
-0.307196
-0.311749
-0.315384
-0.311213
-0.338051
-0.338248
-0.337051
-0.33463
-0.33109
-0.326505
-0.321048
-0.315014
-0.308811
-0.302946
-0.29798
-0.294456
-0.292779
-0.293107
-0.295111
-0.298185
-0.300932
-0.3024
-0.301945
-0.295654
-0.340965
-0.340955
-0.339563
-0.336956
-0.333264
-0.328573
-0.323069
-0.317041
-0.31088
-0.305056
-0.300065
-0.296347
-0.294152
-0.293462
-0.29377
-0.294485
-0.294153
-0.292619
-0.287969
-0.280369
-0.344838
-0.344502
-0.342842
-0.340015
-0.336146
-0.331347
-0.325805
-0.319795
-0.313675
-0.307857
-0.302746
-0.298651
-0.295669
-0.293637
-0.291987
-0.290194
-0.28704
-0.282739
-0.274859
-0.265524
-0.349661
-0.348883
-0.346887
-0.343786
-0.339705
-0.334775
-0.329181
-0.323172
-0.317055
-0.311161
-0.30578
-0.301084
-0.297039
-0.293398
-0.289641
-0.285376
-0.279725
-0.272949
-0.263217
-0.252623
-0.355406
-0.35408
-0.351677
-0.348244
-0.343905
-0.338807
-0.333125
-0.327071
-0.320882
-0.314786
-0.308945
-0.303401
-0.298035
-0.292598
-0.286709
-0.280146
-0.272331
-0.263609
-0.252483
-0.240903
-0.362032
-0.360075
-0.357193
-0.35337
-0.34872
-0.343405
-0.337584
-0.331414
-0.325041
-0.318574
-0.312046
-0.305404
-0.298505
-0.29118
-0.283234
-0.274613
-0.264992
-0.254705
-0.242553
-0.230441
-0.369511
-0.366847
-0.363425
-0.359156
-0.354142
-0.348557
-0.342529
-0.336142
-0.329435
-0.322387
-0.314925
-0.306947
-0.298364
-0.289145
-0.27929
-0.268882
-0.257759
-0.246233
-0.23332
-0.220741
-0.377817
-0.374386
-0.370373
-0.365611
-0.360185
-0.35427
-0.347949
-0.341214
-0.333978
-0.326104
-0.317449
-0.307933
-0.297584
-0.286539
-0.274961
-0.263018
-0.250655
-0.238129
-0.224615
-0.211691
-0.386938
-0.38269
-0.378047
-0.372755
-0.366871
-0.360561
-0.353838
-0.346582
-0.338582
-0.32961
-0.319515
-0.308308
-0.29618
-0.283422
-0.270313
-0.257061
-0.243666
-0.230317
-0.216335
-0.203107
-0.396868
-0.391762
-0.386461
-0.380612
-0.374227
-0.367441
-0.360175
-0.352183
-0.343147
-0.332797
-0.321045
-0.308055
-0.294186
-0.279854
-0.265396
-0.251024
-0.236759
-0.222725
-0.208361
-0.19488
-0.407597
-0.401599
-0.395623
-0.389197
-0.382265
-0.3749
-0.366911
-0.357929
-0.34756
-0.335562
-0.321985
-0.307176
-0.291645
-0.27588
-0.260235
-0.244897
-0.22989
-0.215276
-0.200605
-0.186907
-0.419103
-0.412187
-0.405529
-0.398509
-0.390969
-0.382893
-0.373962
-0.363699
-0.351694
-0.337813
-0.322299
-0.305685
-0.28859
-0.27153
-0.254836
-0.238658
-0.223011
-0.207903
-0.192983
-0.179102
-0.431341
-0.423492
-0.41615
-0.408515
-0.400287
-0.391332
-0.3812
-0.369345
-0.355417
-0.339467
-0.321961
-0.303594
-0.285045
-0.266814
-0.249187
-0.232273
-0.216071
-0.200542
-0.185426
-0.171393
-0.444236
-0.435448
-0.427427
-0.419147
-0.410124
-0.400084
-0.388459
-0.374698
-0.358596
-0.340449
-0.320948
-0.300908
-0.281015
-0.261725
-0.243266
-0.225704
-0.209019
-0.193136
-0.17787
-0.163716
-0.457676
-0.447959
-0.439263
-0.430292
-0.420337
-0.408968
-0.395542
-0.379577
-0.361102
-0.340692
-0.319238
-0.297618
-0.27649
-0.256242
-0.237039
-0.218908
-0.201806
-0.18563
-0.170258
-0.156013
-0.471508
-0.460887
-0.451522
-0.441795
-0.430735
-0.417766
-0.402225
-0.383797
-0.362812
-0.340132
-0.316799
-0.293706
-0.271448
-0.250335
-0.23047
-0.211842
-0.194385
-0.177977
-0.162542
-0.148237
-0.48554
-0.474055
-0.464021
-0.453451
-0.441084
-0.426225
-0.408273
-0.387176
-0.363612
-0.338705
-0.313594
-0.289141
-0.265855
-0.243965
-0.223516
-0.204462
-0.186712
-0.170131
-0.154675
-0.140344
-0.499536
-0.487246
-0.476537
-0.465011
-0.45111
-0.434069
-0.413446
-0.389539
-0.363392
-0.336344
-0.309576
-0.28388
-0.25967
-0.237091
-0.216136
-0.196726
-0.178745
-0.162053
-0.146618
-0.132296
-0.513224
-0.500201
-0.488804
-0.476188
-0.46051
-0.441008
-0.417508
-0.390724
-0.362048
-0.332983
-0.304694
-0.277878
-0.252846
-0.229668
-0.208287
-0.188593
-0.170448
-0.153705
-0.138334
-0.124061
-0.526298
-0.512626
-0.500519
-0.48666
-0.46896
-0.446754
-0.420237
-0.390578
-0.359484
-0.328552
-0.298889
-0.27108
-0.245335
-0.221652
-0.199928
-0.180026
-0.161786
-0.145056
-0.129792
-0.11561
-0.538425
-0.524198
-0.511347
-0.496083
-0.476127
-0.451023
-0.421425
-0.388963
-0.355605
-0.322982
-0.292103
-0.263435
-0.237089
-0.212998
-0.191021
-0.170991
-0.152727
-0.136077
-0.120967
-0.106925
-0.549248
-0.534567
-0.520933
-0.504097
-0.481682
-0.453549
-0.420882
-0.385753
-0.350324
-0.316202
-0.284276
-0.254889
-0.228061
-0.203667
-0.18153
-0.161456
-0.143246
-0.126743
-0.111838
-0.0979959
-0.5584
-0.543371
-0.528907
-0.510343
-0.485307
-0.454089
-0.41844
-0.380836
-0.34356
-0.308147
-0.275351
-0.245391
-0.218208
-0.193623
-0.171425
-0.151396
-0.133319
-0.117033
-0.102388
-0.088813
-0.565514
-0.550242
-0.534901
-0.514473
-0.486708
-0.452426
-0.413956
-0.374114
-0.33524
-0.298757
-0.265275
-0.234899
-0.207493
-0.182833
-0.16068
-0.140789
-0.122928
-0.106931
-0.0925953
-0.0793482
-0.570226
-0.554816
-0.538557
-0.516157
-0.485623
-0.448374
-0.407305
-0.365503
-0.3253
-0.287978
-0.254002
-0.223372
-0.195884
-0.171274
-0.149273
-0.129616
-0.112059
-0.096426
-0.08245
-0.0695459
-0.572193
-0.556746
-0.539536
-0.5151
-0.481823
-0.441781
-0.398391
-0.354938
-0.313687
-0.275767
-0.241497
-0.210781
-0.183357
-0.158925
-0.13719
-0.117866
-0.100694
-0.085502
-0.0719728
-0.0593792
-0.571097
-0.555713
-0.537533
-0.511043
-0.475122
-0.432526
-0.38714
-0.342366
-0.300363
-0.262089
-0.227731
-0.197104
-0.169894
-0.145772
-0.12442
-0.10553
-0.0888349
-0.0741571
-0.0611604
-0.0489545
-0.566658
-0.55143
-0.532283
-0.503773
-0.465375
-0.420526
-0.373502
-0.327756
-0.285301
-0.246924
-0.212687
-0.182327
-0.155486
-0.131812
-0.110967
-0.092616
-0.0765054
-0.0624368
-0.0499331
-0.0383101
-0.558637
-0.543656
-0.523569
-0.493127
-0.452484
-0.405729
-0.357455
-0.311096
-0.268493
-0.230261
-0.196353
-0.166441
-0.140142
-0.117055
-0.0968511
-0.0791449
-0.0637012
-0.0503103
-0.038358
-0.0274044
-0.546845
-0.532197
-0.511225
-0.478992
-0.436392
-0.38812
-0.339
-0.292391
-0.249941
-0.212104
-0.178739
-0.149456
-0.123896
-0.101531
-0.082063
-0.0651161
-0.0504358
-0.0377856
-0.0264668
-0.0162375
-0.531148
-0.516917
-0.495142
-0.46131
-0.417089
-0.367716
-0.31816
-0.271657
-0.229653
-0.192488
-0.159893
-0.131447
-0.106718
-0.0852356
-0.0666334
-0.0505507
-0.0367259
-0.0248865
-0.0142751
-0.00482542
-0.511466
-0.497734
-0.475268
-0.440074
-0.394605
-0.344566
-0.294988
-0.248936
-0.207656
-0.171491
-0.139842
-0.112398
-0.088672
-0.0682029
-0.0505911
-0.0354765
-0.022596
-0.0116394
-0.00180094
0.00680797
-0.487783
-0.474626
-0.451608
-0.415325
-0.369016
-0.318757
-0.269563
-0.224318
-0.184126
-0.149054
-0.118614
-0.0923573
-0.0697973
-0.0504742
-0.0339718
-0.0199273
-0.00807709
0.0019266
0.0109285
0.0186344
-0.460137
-0.44763
-0.42422
-0.387157
-0.340443
-0.2904
-0.241982
-0.197894
-0.159035
-0.125323
-0.0962766
-0.0713836
-0.0501454
-0.0320983
-0.0168187
-0.00394307
0.00679434
0.0157772
0.0238784
0.0306192
-0.428627
-0.416835
-0.393221
-0.355729
-0.309043
-0.25961
-0.212359
-0.169752
-0.132488
-0.100375
-0.0729095
-0.0495469
-0.0297767
-0.0131307
0.000817858
0.0124308
0.021977
0.0298733
0.0370071
0.0427211
-0.393403
-0.382391
-0.358805
-0.321277
-0.274917
-0.226506
-0.180841
-0.140021
-0.104601
-0.0743071
-0.0486023
-0.0269269
-0.00876168
0.00636539
0.018881
0.0291431
0.0374254
0.0441741
0.0502734
0.0548978
-0.354649
-0.344521
-0.321242
-0.283978
-0.238092
-0.191362
-0.147601
-0.108847
-0.0755059
-0.0472294
-0.0234551
-0.00361308
0.0128206
0.0263195
0.0373072
0.0461361
0.0530897
0.0586394
0.0636425
0.0671157
-0.312586
-0.303503
-0.280746
-0.243544
-0.199314
-0.15439
-0.112828
-0.0763946
-0.0453445
-0.0192668
0.0024214
0.020296
0.0348829
0.0466542
0.0560264
0.0633471
0.0689174
0.073229
0.0770753
0.0793356
-0.267459
-0.259606
-0.237177
-0.201114
-0.158566
-0.115809
-0.0767249
-0.0428405
-0.0142721
0.00944394
0.0289062
0.0446936
0.057331
0.0672858
0.0749639
0.0807113
0.0848585
0.0878973
0.0904849
0.0914121
-0.219566
-0.213134
-0.191352
-0.156686
-0.116129
-0.0758616
-0.0395073
-0.00837382
0.0175444
0.0387556
0.0558695
0.0694649
0.0800637
0.0881249
0.0940419
0.0981682
0.100872
0.102586
0.10369
0.102965
-0.169499
-0.164354
-0.14359
-0.110551
-0.0723006
-0.0348047
-0.0014027
0.0268044
0.0499278
0.0685119
0.0831732
0.0944884
0.102974
0.109077
0.113181
0.11566
0.116916
0.117212
0.116469
0.113694
-0.117651
-0.11366
-0.0942022
-0.0630577
-0.0273959
0.00708738
0.0373493
0.0624833
0.082692
0.0985485
0.110672
0.119636
0.125948
0.130043
0.1323
0.133122
0.13291
0.131639
0.128784
0.124459
-0.0643031
-0.0615436
-0.0435684
-0.0145686
0.0182593
0.0495301
0.0764997
0.0984436
0.115644
0.128695
0.138217
0.144776
0.14887
0.150921
0.151312
0.150466
0.148726
0.145727
0.1408
0.137601
-0.00989155
-0.00844157
0.00790436
0.0345418
0.0643315
0.0922309
0.115792
0.13446
0.148583
0.158775
0.165651
0.16977
0.171619
0.17161
0.170126
0.167593
0.164246
0.159545
0.15328
0.150496
0.0451257
0.0452134
0.0597986
0.0838924
0.110482
0.134893
0.154966
0.170301
0.181308
0.188609
0.192817
0.19448
0.194073
0.192001
0.188647
0.184412
0.17944
0.173182
0.165897
0.162689
0.100289
0.0989804
0.111693
0.1331
0.156371
0.177216
0.193757
0.205737
0.213613
0.218017
0.219555
0.218765
0.21611
0.211986
0.206771
0.200836
0.194261
0.186579
0.178352
0.174304
0.155137
0.152414
0.163167
0.181781
0.201659
0.218902
0.231902
0.240533
0.245293
0.246817
0.245705
0.242484
0.237605
0.231456
0.224403
0.216785
0.208652
0.199632
0.190438
0.185349
0.209211
0.205071
0.213803
0.229558
0.24601
0.259654
0.269141
0.274459
0.276143
0.274829
0.271108
0.265496
0.258434
0.250299
0.241444
0.232179
0.222544
0.212245
0.202063
0.195836
0.262059
0.256512
0.26319
0.276059
0.289095
0.299184
0.305217
0.307288
0.305962
0.301874
0.295607
0.287665
0.278477
0.268409
0.257801
0.246939
0.235857
0.224331
0.213154
0.205743
0.313239
0.30631
0.310929
0.320925
0.330595
0.337207
0.339878
0.338798
0.334554
0.32778
0.319049
0.308854
0.297613
0.285682
0.273383
0.260984
0.248519
0.235817
0.223656
0.215048
0.362322
0.35405
0.356635
0.363808
0.3702
0.37345
0.372885
0.368775
0.361729
0.352379
0.341286
0.328934
0.315729
0.302015
0.288101
0.274236
0.260456
0.246637
0.233519
0.223721
0.408899
0.399337
0.399938
0.404375
0.407617
0.407654
0.404004
0.397013
0.387306
0.375509
0.362176
0.347779
0.332713
0.317311
0.30187
0.286619
0.271601
0.25673
0.242694
0.231732
0.452579
0.441793
0.44049
0.442314
0.442567
0.43957
0.433017
0.423319
0.411112
0.397019
0.381584
0.36527
0.348461
0.33148
0.314609
0.298063
0.281891
0.266042
0.251136
0.239054
0.492999
0.481066
0.477965
0.47733
0.474789
0.468968
0.459719
0.447509
0.432985
0.416765
0.399384
0.381296
0.362875
0.344435
0.326243
0.308502
0.291268
0.27452
0.258802
0.245658
0.529819
0.516832
0.512061
0.509154
0.504043
0.495634
0.483919
0.469415
0.452776
0.434614
0.415459
0.395753
0.375864
0.356095
0.336701
0.317874
0.299677
0.282115
0.265653
0.251519
0.562732
0.548791
0.542502
0.537537
0.530108
0.519372
0.505445
0.488882
0.470347
0.450446
0.429701
0.408548
0.387345
0.366388
0.34592
0.326124
0.307069
0.288785
0.271653
0.256617
0.591462
0.57668
0.569045
0.562259
0.552789
0.540008
0.524139
0.505773
0.485576
0.464152
0.442015
0.419595
0.397244
0.375249
0.353843
0.3332
0.3134
0.294488
0.276768
0.260932
0.615765
0.600263
0.591472
0.583127
0.571913
0.557389
0.539867
0.519966
0.498355
0.475636
0.452317
0.428822
0.405496
0.38262
0.360419
0.33906
0.318631
0.29919
0.28097
0.264449
0.635435
0.619343
0.609602
0.599977
0.587334
0.571385
0.552513
0.531358
0.508594
0.484818
0.460535
0.436163
0.412044
0.388453
0.365606
0.343667
0.322729
0.302862
0.284235
0.267152
0.650304
0.633757
0.623283
0.612673
0.598932
0.581889
0.561981
0.539864
0.516216
0.491631
0.46661
0.441569
0.416844
0.392707
0.369369
0.346989
0.325666
0.305477
0.286541
0.269034
0.660241
0.643378
0.6324
0.621112
0.606615
0.588819
0.568197
0.545419
0.521164
0.496023
0.470497
0.444998
0.41986
0.395351
0.371681
0.349003
0.327422
0.307017
0.287876
0.27009
0.665154
0.648121
0.636872
0.62522
0.610317
0.592116
0.57111
0.547978
0.523396
0.497959
0.472164
0.446422
0.421067
0.396365
0.372523
0.349693
0.327982
0.307472
0.288236
0.270328
0.664992
0.647934
0.636654
0.624958
0.610003
0.591748
0.570692
0.547514
0.522891
0.497419
0.471593
0.445827
0.420452
0.395736
0.371884
0.34905
0.327339
0.306833
0.287611
0.269734
0.659745
0.642808
0.631735
0.620316
0.605664
0.587709
0.566936
0.544021
0.519644
0.494397
0.468781
0.443208
0.418012
0.393461
0.369763
0.347071
0.32549
0.305096
0.285985
0.26831
0.649441
0.632771
0.622143
0.611317
0.597321
0.580016
0.559859
0.537516
0.513666
0.488906
0.463738
0.438575
0.413755
0.389548
0.366165
0.343763
0.322439
0.302262
0.283361
0.265996
0.634151
0.61789
0.607937
0.598017
0.585024
0.568714
0.549499
0.528032
0.50499
0.480974
0.456488
0.431949
0.4077
0.384013
0.361105
0.339137
0.318199
0.298346
0.279759
0.262853
0.613985
0.598271
0.589217
0.580503
0.568848
0.553871
0.535918
0.515624
0.493664
0.470643
0.447069
0.423365
0.399877
0.376884
0.354608
0.333216
0.31279
0.293369
0.275196
0.258887
0.58909
0.574055
0.566111
0.558892
0.548901
0.535581
0.519199
0.500366
0.479754
0.457971
0.435533
0.412868
0.390327
0.368195
0.346703
0.326026
0.306234
0.28735
0.269688
0.254104
0.559653
0.545421
0.538786
0.533332
0.525312
0.513961
0.499447
0.482351
0.463342
0.443033
0.421945
0.400514
0.379099
0.357991
0.337431
0.317601
0.298564
0.280319
0.263258
0.248514
0.525897
0.512584
0.507439
0.504001
0.49824
0.489151
0.476787
0.46169
0.444527
0.425915
0.406383
0.386374
0.366255
0.346325
0.326838
0.307984
0.289817
0.272308
0.255934
0.242135
0.488078
0.475791
0.472298
0.471103
0.467866
0.461313
0.451362
0.438512
0.423424
0.406719
0.388935
0.370526
0.351864
0.33326
0.314979
0.297222
0.280034
0.263358
0.247748
0.234983
0.446487
0.435322
0.433621
0.434869
0.434398
0.43063
0.423336
0.412962
0.400161
0.385559
0.369704
0.353058
0.336005
0.318865
0.301914
0.285369
0.269264
0.253511
0.238737
0.227081
0.401444
0.391484
0.391693
0.395557
0.398062
0.397305
0.392889
0.3852
0.37488
0.362561
0.348801
0.334071
0.318766
0.303216
0.287711
0.272483
0.25756
0.242815
0.22894
0.218454
0.353299
0.344615
0.346826
0.353446
0.359106
0.361558
0.360216
0.3554
0.347736
0.337863
0.326347
0.313671
0.30024
0.286396
0.272444
0.25863
0.244979
0.231321
0.2184
0.209129
0.302425
0.295075
0.299354
0.308836
0.317799
0.323627
0.32553
0.323749
0.318895
0.311611
0.302471
0.291972
0.28053
0.268496
0.256191
0.24388
0.231583
0.219084
0.207161
0.199135
0.249218
0.243248
0.249632
0.262046
0.274424
0.283762
0.289052
0.290446
0.288534
0.283961
0.277313
0.269098
0.259742
0.24961
0.239036
0.228306
0.21744
0.206165
0.195272
0.188502
0.194095
0.189534
0.198034
0.213414
0.229279
0.242228
0.251018
0.255699
0.256836
0.255077
0.251017
0.245175
0.23799
0.229837
0.221066
0.211986
0.202621
0.192628
0.182783
0.177259
0.137486
0.134351
0.144948
0.16329
0.182675
0.199301
0.21167
0.219724
0.223994
0.225128
0.223732
0.220336
0.215391
0.209282
0.202372
0.195
0.1872
0.178548
0.169748
0.165433
0.079835
0.0781287
0.0907747
0.112034
0.134933
0.155263
0.171261
0.182744
0.190204
0.19429
0.195613
0.194717
0.192065
0.18805
0.183048
0.177427
0.171257
0.164012
0.156239
0.153038
0.021593
0.0213027
0.0359242
0.0600179
0.0863806
0.110405
0.130046
0.144984
0.155668
0.162739
0.166818
0.168458
0.168135
0.166252
0.163189
0.159348
0.154861
0.14912
0.142348
0.140054
-0.0367844
-0.0356864
-0.019189
0.00761732
0.0373524
0.0650201
0.0882848
0.106676
0.120589
0.130656
0.137504
0.141698
0.143725
0.143997
0.142894
0.140841
0.13807
0.133979
0.12829
0.126446
-0.0948416
-0.0923997
-0.0741484
-0.0447891
-0.0118165
0.0194044
0.0462377
0.0680489
0.0851704
0.0982211
0.107833
0.114578
0.118958
0.121395
0.122266
0.121996
0.120929
0.118655
0.11439
0.112017
-0.152125
-0.148405
-0.128539
-0.0968235
-0.0607909
-0.0261477
0.00416405
0.0293318
0.0496145
0.0656129
0.0779604
0.0872377
0.0939567
0.098553
0.101403
0.102905
0.103461
0.103029
0.100992
0.0972593
-0.20818
-0.203282
-0.181951
-0.148113
-0.10924
-0.0713452
-0.0376804
-0.00924975
0.0141208
0.0330077
0.0480437
0.0598149
0.0688427
0.0755766
0.0803975
0.0836726
0.0857992
0.0870458
0.087302
0.0853302
-0.262596
-0.25659
-0.233989
-0.198294
-0.156838
-0.115903
-0.0790456
-0.0474755
-0.0211162
0.000577646
0.0182344
0.032444
0.0437349
0.052569
0.0593387
0.0643903
0.0680848
0.0708683
0.073134
0.0734564
-0.315227
-0.307791
-0.284293
-0.24702
-0.203272
-0.159545
-0.11969
-0.0851327
-0.0559086
-0.0315112
-0.0113206
0.00525498
0.0187484
0.0296316
0.0383107
0.0451258
0.0503984
0.0546349
0.0585228
0.0606615
-0.365429
-0.356632
-0.332594
-0.293965
-0.248242
-0.202006
-0.15938
-0.122018
-0.0900766
-0.0630999
-0.0404806
-0.021628
-0.00600657
0.00686176
0.0173954
0.0259373
0.0327796
0.0384273
0.0437059
0.0473163
-0.412778
-0.402846
-0.378385
-0.338886
-0.291468
-0.243034
-0.197898
-0.157938
-0.12345
-0.094038
-0.0691125
-0.0480871
-0.030426
-0.0156481
-0.00332659
0.00688784
0.0152703
0.0223045
0.0288785
0.0338449
-0.457009
-0.446109
-0.421231
-0.381499
-0.332705
-0.28239
-0.235038
-0.192713
-0.155871
-0.124185
-0.0970916
-0.0740121
-0.0544123
-0.0378109
-0.0237768
-0.011954
-0.00207565
0.00631559
0.0141329
0.0203997
-0.497879
-0.486153
-0.461068
-0.421141
-0.371845
-0.319853
-0.270609
-0.226177
-0.187192
-0.153411
-0.124303
-0.0993006
-0.0778744
-0.0595455
-0.0438816
-0.0305212
-0.0192014
-0.00949504
-0.000488851
0.00702213
-0.535184
-0.522727
-0.497689
-0.457881
-0.408202
-0.355373
-0.30444
-0.25818
-0.217283
-0.181599
-0.150642
-0.123859
-0.100729
-0.0807773
-0.0635732
-0.048752
-0.0360527
-0.0250829
-0.0149471
-0.00624814
-0.568753
-0.555639
-0.53087
-0.49157
-0.4419
-0.388469
-0.336401
-0.288585
-0.246023
-0.208643
-0.176014
-0.147605
-0.122902
-0.101439
-0.0827907
-0.0665909
-0.0525797
-0.040402
-0.0291941
-0.0193615
-0.598458
-0.584758
-0.560446
-0.522002
-0.472795
-0.419146
-0.366291
-0.317258
-0.273311
-0.234452
-0.200339
-0.170464
-0.144326
-0.12147
-0.101479
-0.0839878
-0.0687361
-0.0554075
-0.0431819
-0.0322699
-0.624217
-0.610008
-0.586315
-0.549031
-0.500721
-0.447301
-0.394033
-0.344146
-0.299036
-0.258948
-0.223547
-0.192375
-0.164946
-0.14082
-0.119592
-0.100898
-0.0844804
-0.0700596
-0.0568684
-0.0449321
-0.646006
-0.631367
-0.608432
-0.572576
-0.525562
-0.472822
-0.419543
-0.369136
-0.323186
-0.282077
-0.245581
-0.213288
-0.184714
-0.159443
-0.137087
-0.117283
-0.0997761
-0.0843242
-0.0702192
-0.0573126
-0.663855
-0.648871
-0.626803
-0.592609
-0.547261
-0.495634
-0.442759
-0.392178
-0.345684
-0.303809
-0.266424
-0.233154
-0.203594
-0.177303
-0.153933
-0.13311
-0.114592
-0.0981719
-0.0832066
-0.0693798
-0.677853
-0.662606
-0.641491
-0.609148
-0.5658
-0.515699
-0.463639
-0.413241
-0.366494
-0.324098
-0.286033
-0.251982
-0.22156
-0.194373
-0.170103
-0.148353
-0.128902
-0.111577
-0.0958097
-0.0811039
-0.688139
-0.672717
-0.65261
-0.62226
-0.581197
-0.533009
-0.482166
-0.432309
-0.385604
-0.34293
-0.304388
-0.269732
-0.238611
-0.210667
-0.18557
-0.162992
-0.142689
-0.124513
-0.108008
-0.0924644
-0.694903
-0.679397
-0.660327
-0.63206
-0.593516
-0.547588
-0.498348
-0.449387
-0.403022
-0.360311
-0.321492
-0.286398
-0.254727
-0.226147
-0.200345
-0.17703
-0.155948
-0.136958
-0.119768
-0.103463
-0.698382
-0.682883
-0.664857
-0.638711
-0.602857
-0.559491
-0.512213
-0.464495
-0.418766
-0.376262
-0.337363
-0.301996
-0.269913
-0.240815
-0.214417
-0.190449
-0.168665
-0.148921
-0.130989
-0.114181
-0.698851
-0.683453
-0.666457
-0.642422
-0.609362
-0.568805
-0.523817
-0.477674
-0.432872
-0.390813
-0.352029
-0.31655
-0.284188
-0.254686
-0.227787
-0.203245
-0.180832
-0.160404
-0.141793
-0.124422
-0.696613
-0.681415
-0.66542
-0.643441
-0.613214
-0.575647
-0.533234
-0.488979
-0.445388
-0.40401
-0.36553
-0.330093
-0.29758
-0.267782
-0.240471
-0.21543
-0.192451
-0.171401
-0.15216
-0.134186
-0.692
-0.677099
-0.662067
-0.642051
-0.614629
-0.580165
-0.540564
-0.498483
-0.456376
-0.415907
-0.377915
-0.342667
-0.310127
-0.280132
-0.252493
-0.227021
-0.203534
-0.181907
-0.162067
-0.143515
-0.685355
-0.670849
-0.656736
-0.638558
-0.613856
-0.582537
-0.545925
-0.506271
-0.465905
-0.426569
-0.389244
-0.354328
-0.321871
-0.291773
-0.263882
-0.23804
-0.214093
-0.191928
-0.171514
-0.152425
-0.677026
-0.663011
-0.649772
-0.633291
-0.611169
-0.582964
-0.549456
-0.512442
-0.474058
-0.436069
-0.399585
-0.365134
-0.332868
-0.30275
-0.274672
-0.248513
-0.224147
-0.201477
-0.180508
-0.16091
-0.667357
-0.653923
-0.641519
-0.62658
-0.60686
-0.581673
-0.551315
-0.517108
-0.480921
-0.444486
-0.409013
-0.375157
-0.343178
-0.313114
-0.284906
-0.258473
-0.233721
-0.21057
-0.189056
-0.168964
-0.656682
-0.643912
-0.632306
-0.618756
-0.60123
-0.578905
-0.551675
-0.520389
-0.486588
-0.451904
-0.417606
-0.384471
-0.35287
-0.322925
-0.294634
-0.267958
-0.242843
-0.219228
-0.197168
-0.176584
-0.645312
-0.633279
-0.622442
-0.610135
-0.594582
-0.574917
-0.550727
-0.522417
-0.491157
-0.458406
-0.425447
-0.393156
-0.362019
-0.332249
-0.303911
-0.277013
-0.251544
-0.22747
-0.204857
-0.183772
-0.633534
-0.622298
-0.612206
-0.601008
-0.587206
-0.569966
-0.54867
-0.523333
-0.494729
-0.464079
-0.432617
-0.401293
-0.370703
-0.341158
-0.312799
-0.285688
-0.259862
-0.235324
-0.212137
-0.190531
-0.621602
-0.611208
-0.601843
-0.591638
-0.579374
-0.564309
-0.545713
-0.523286
-0.497408
-0.469007
-0.439199
-0.408968
-0.379005
-0.349729
-0.321365
-0.294038
-0.267838
-0.242815
-0.219026
-0.196865
-0.60974
-0.600215
-0.591562
-0.582251
-0.571331
-0.558188
-0.542065
-0.522432
-0.499303
-0.473271
-0.445271
-0.41626
-0.38701
-0.358043
-0.329682
-0.302123
-0.275517
-0.249976
-0.225541
-0.202778
-0.598134
-0.589489
-0.581533
-0.573034
-0.563288
-0.551827
-0.537933
-0.520931
-0.500525
-0.476953
-0.450903
-0.423249
-0.394802
-0.366186
-0.337826
-0.310009
-0.28295
-0.256839
-0.231699
-0.208272
-0.586939
-0.579165
-0.571889
-0.564136
-0.555418
-0.545421
-0.533511
-0.518947
-0.501188
-0.48013
-0.456162
-0.430003
-0.402462
-0.374242
-0.34588
-0.317765
-0.29019
-0.263439
-0.237519
-0.213348
-0.576277
-0.569346
-0.562728
-0.555668
-0.547861
-0.539137
-0.528977
-0.516638
-0.50141
-0.482879
-0.461104
-0.436585
-0.410062
-0.382294
-0.353927
-0.325466
-0.297295
-0.269813
-0.243017
-0.218002
-0.566241
-0.560106
-0.554119
-0.547707
-0.540718
-0.53311
-0.524487
-0.514157
-0.501309
-0.485276
-0.46578
-0.443042
-0.417666
-0.390421
-0.36205
-0.333189
-0.304327
-0.276001
-0.248209
-0.22223
-0.556892
-0.551493
-0.546104
-0.540304
-0.534062
-0.527442
-0.520173
-0.511642
-0.501002
-0.487394
-0.47023
-0.449406
-0.42532
-0.398688
-0.370329
-0.341013
-0.311351
-0.282045
-0.253109
-0.226017
-0.548266
-0.543526
-0.538699
-0.533481
-0.527935
-0.522207
-0.51614
-0.509214
-0.500599
-0.489309
-0.474486
-0.455692
-0.433047
-0.407146
-0.378834
-0.349015
-0.318436
-0.287988
-0.257725
-0.229345
-0.540366
-0.536202
-0.531898
-0.527239
-0.522354
-0.517451
-0.512465
-0.506974
-0.500197
-0.491086
-0.478573
-0.461896
-0.440847
-0.415819
-0.38762
-0.357268
-0.325649
-0.29388
-0.262068
-0.232173
-0.533164
-0.529489
-0.525671
-0.521555
-0.517311
-0.51319
-0.509194
-0.504994
-0.499876
-0.492784
-0.482507
-0.467994
-0.448686
-0.424696
-0.396714
-0.365829
-0.333063
-0.299773
-0.266139
-0.234467
-0.5266
-0.52333
-0.519962
-0.516379
-0.51277
-0.509407
-0.506341
-0.503313
-0.499689
-0.494445
-0.486289
-0.473943
-0.456499
-0.433728
-0.40611
-0.374737
-0.340738
-0.30574
-0.269972
-0.236106
-0.520577
-0.51764
-0.514694
-0.511639
-0.508667
-0.506054
-0.503876
-0.501931
-0.499656
-0.496086
-0.489908
-0.479681
-0.464187
-0.442817
-0.415749
-0.383989
-0.348731
-0.311849
-0.273634
-0.237183
-0.514971
-0.51231
-0.509766
-0.507238
-0.504908
-0.503044
-0.501732
-0.500802
-0.499753
-0.49769
-0.493327
-0.48513
-0.471622
-0.451818
-0.42552
-0.393541
-0.357056
-0.318239
-0.277334
-0.237436
-0.509634
-0.507213
-0.505057
-0.503056
-0.501375
-0.50026
-0.499795
-0.499828
-0.499905
-0.4992
-0.496482
-0.490187
-0.478652
-0.460545
-0.435248
-0.403276
-0.365715
-0.324856
-0.281966
-0.238549
-0.504405
-0.502211
-0.500436
-0.498961
-0.497927
-0.497557
-0.49792
-0.498868
-0.499984
-0.500506
-0.499271
-0.494729
-0.485105
-0.468778
-0.444708
-0.413007
-0.374651
-0.331757
-0.28731
-0.240036
-0.499118
-0.497164
-0.49577
-0.494814
-0.494416
-0.494773
-0.495931
-0.497746
-0.499822
-0.501454
-0.501549
-0.498604
-0.490794
-0.476275
-0.453628
-0.422481
-0.383669
-0.338794
-0.292466
-0.241485
-0.493621
-0.491937
-0.490927
-0.490479
-0.490693
-0.491739
-0.493647
-0.496263
-0.499218
-0.50185
-0.503135
-0.501633
-0.495514
-0.482786
-0.46171
-0.431399
-0.392482
-0.34579
-0.297326
-0.242372
-0.487781
-0.486413
-0.485793
-0.48583
-0.486617
-0.488298
-0.490886
-0.494224
-0.497962
-0.501484
-0.503824
-0.503613
-0.499051
-0.488057
-0.468648
-0.43944
-0.400797
-0.352601
-0.302143
-0.242827
-0.481497
-0.4805
-0.480273
-0.480765
-0.48207
-0.484313
-0.48749
-0.49145
-0.49586
-0.50015
-0.503407
-0.504335
-0.501186
-0.491843
-0.474151
-0.446294
-0.408333
-0.359099
-0.307143
-0.24324
-0.474707
-0.474136
-0.474301
-0.475207
-0.476964
-0.479676
-0.483335
-0.487794
-0.492747
-0.497674
-0.501696
-0.503603
-0.501717
-0.493919
-0.477954
-0.451672
-0.414809
-0.365167
-0.312419
-0.244001
-0.467391
-0.467295
-0.467842
-0.469115
-0.471245
-0.474324
-0.478343
-0.483164
-0.488503
-0.493938
-0.49855
-0.501261
-0.500475
-0.494099
-0.479836
-0.455326
-0.419953
-0.370696
-0.317946
-0.245536
-0.459574
-0.459988
-0.4609
-0.462484
-0.464901
-0.468238
-0.472487
-0.477523
-0.483053
-0.488907
-0.493891
-0.497211
-0.49736
-0.492255
-0.47964
-0.457065
-0.423536
-0.37558
-0.323636
-0.24839
-0.45132
-0.452266
-0.453515
-0.455348
-0.457963
-0.461447
-0.465799
-0.470919
-0.476579
-0.482442
-0.487705
-0.491428
-0.492364
-0.488346
-0.477301
-0.456779
-0.425424
-0.379677
-0.329428
-0.253204
-0.442738
-0.44421
-0.44576
-0.447776
-0.450501
-0.454023
-0.458353
-0.463413
-0.469009
-0.474788
-0.480115
-0.484098
-0.485479
-0.482428
-0.472869
-0.454468
-0.425617
-0.382808
-0.335339
-0.260608
-0.433963
-0.435931
-0.437736
-0.439869