/*--------------------------------*- C++ -*----------------------------------*\
  =========                 |
  \\      /  F ield         | OpenFOAM: The Open Source CFD Toolbox
   \\    /   O peration     | Website:  https://openfoam.org
    \\  /    A nd           | Version:  7
     \\/     M anipulation  |
\*---------------------------------------------------------------------------*/
FoamFile
{
    version     2.0;
    format      ascii;
    class       volVectorField;
    location    "199";
    object      U;
}
// * * * * * * * * * * * * * * * * * * * * * * * * * * * * * * * * * * * * * //

dimensions      [0 1 -1 0 0 0 0];

internalField   nonuniform List<vector> 
12400
(
(-0.00108672 0.0010229 -7.96409e-21)
(-0.00607818 0.0123594 -2.97049e-20)
(-0.0159277 0.0306522 5.4915e-21)
(-0.0288841 0.0532897 2.11823e-20)
(-0.0441081 0.0778839 9.14917e-21)
(-0.061064 0.102717 -2.26312e-20)
(-0.0792053 0.126979 -7.20517e-21)
(-0.0979726 0.150774 -2.83671e-21)
(-0.116779 0.17487 -2.69395e-20)
(-0.135005 0.20028 -5.26364e-21)
(-0.152004 0.227828 -2.00521e-20)
(-0.167086 0.257856 3.28419e-21)
(-0.179476 0.29007 -1.06218e-20)
(-0.188247 0.323462 1.9369e-20)
(-0.192259 0.356211 -2.56285e-20)
(-0.190128 0.385522 -2.78666e-20)
(-0.18024 0.407458 -8.25374e-21)
(-0.160967 0.417018 4.70351e-20)
(-0.130599 0.408578 -4.20578e-20)
(-0.0863899 0.375589 6.16546e-21)
(-0.00111675 0.00348727 1.16744e-20)
(-0.00605669 0.0183121 1.91352e-20)
(-0.015367 0.0391179 5.95032e-21)
(-0.0274649 0.0635733 1.80771e-20)
(-0.0415559 0.0894606 -4.60245e-21)
(-0.0571183 0.115148 2.80486e-20)
(-0.0736245 0.139844 1.08411e-20)
(-0.0905227 0.163639 2.47356e-20)
(-0.107206 0.187279 -1.3952e-20)
(-0.122998 0.21177 3.44603e-20)
(-0.137159 0.237936 1.13696e-19)
(-0.148876 0.26611 -1.91744e-20)
(-0.157234 0.295953 2.8709e-20)
(-0.16116 0.326378 -1.78803e-20)
(-0.159378 0.355462 4.70818e-20)
(-0.150394 0.380316 -5.68934e-21)
(-0.13252 0.396959 2.74233e-20)
(-0.104083 0.40042 -1.75636e-19)
(-0.064098 0.385627 1.75183e-20)
(-0.00883325 0.345904 -2.84087e-20)
(-0.0012818 0.00552194 3.65737e-20)
(-0.00631199 0.0232332 3.86051e-20)
(-0.0150892 0.0461449 -9.01715e-21)
(-0.0262299 0.0721541 -1.96693e-20)
(-0.0389933 0.0991809 -8.3957e-21)
(-0.0528719 0.125648 2.76514e-20)
(-0.067358 0.150751 4.14098e-20)
(-0.0819103 0.174524 -9.19733e-20)
(-0.0959078 0.197658 2.73474e-20)
(-0.108625 0.221124 -3.53078e-20)
(-0.11923 0.245739 -5.98264e-20)
(-0.126795 0.271835 -1.11024e-20)
(-0.130268 0.299052 -1.77383e-20)
(-0.128447 0.326256 -4.14752e-20)
(-0.119947 0.351466 5.00334e-20)
(-0.103226 0.371759 -4.85037e-20)
(-0.0766484 0.383223 6.41891e-21)
(-0.038462 0.380936 1.72873e-19)
(0.0110052 0.360623 -1.29418e-19)
(0.0775722 0.314867 1.18269e-19)
(-0.00153977 0.00709114 -2.74515e-20)
(-0.00677334 0.0270333 5.02137e-20)
(-0.0150555 0.0515961 -7.36541e-20)
(-0.0252053 0.0788487 3.45515e-20)
(-0.0365297 0.106818 -1.87692e-19)
(-0.0485279 0.133957 -1.15433e-19)
(-0.060707 0.159416 7.25489e-20)
(-0.0725369 0.18314 1.79762e-19)
(-0.0833906 0.20573 -7.31231e-20)
(-0.092506 0.228093 -5.17e-20)
(-0.0989777 0.251027 -7.41501e-20)
(-0.101772 0.274868 1.51326e-19)
(-0.0997241 0.299261 1.89879e-19)
(-0.0915193 0.32306 -1.50227e-19)
(-0.0757054 0.344285 -1.26167e-19)
(-0.0507322 0.360042 4.99754e-20)
(-0.0151715 0.366607 -1.11173e-19)
(0.0330271 0.359041 -4.27515e-21)
(0.0912291 0.334453 2.14012e-19)
(0.1696 0.283642 7.88303e-20)
(-0.00184852 0.00819137 1.05674e-19)
(-0.00736853 0.029691 3.27905e-20)
(-0.0152243 0.0554166 1.14934e-19)
(-0.0244142 0.0835571 -3.4542e-20)
(-0.0342748 0.112221 1.80373e-19)
(-0.0442959 0.139873 1.10288e-19)
(-0.0539887 0.165598 -1.32721e-19)
(-0.0628313 0.189228 -1.71515e-19)
(-0.0701988 0.211239 1.58497e-19)
(-0.0753125 0.23245 -4.36864e-20)
(-0.077213 0.253611 6.57409e-20)
(-0.0747919 0.275074 -2.64891e-19)
(-0.0668001 0.296504 9.2836e-20)
(-0.0518426 0.316797 3.84472e-20)
(-0.0284387 0.334009 2.0593e-20)
(0.00494972 0.345335 7.8396e-20)
(0.0492766 0.347389 2.17978e-19)
(0.107578 0.335011 6.98637e-21)
(0.173068 0.307479 -7.90182e-20)
(0.263711 0.252911 7.78857e-20)
(-0.0021708 0.00884977 7.18658e-20)
(-0.00803279 0.0312517 3.4796e-20)
(-0.0155582 0.0576355 -1.86606e-19)
(-0.0238799 0.0862674 -1.09496e-19)
(-0.0323351 0.115321 -4.4458e-20)
(-0.040383 0.143265 1.45815e-19)
(-0.0475225 0.169114 1.73617e-19)
(-0.0532329 0.192568 -2.09714e-20)
(-0.0568967 0.213956 -4.16739e-20)
(-0.0577407 0.233975 -3.46786e-20)
(-0.0547821 0.253325 -1.17868e-19)
(-0.0468684 0.272342 2.69618e-19)
(-0.0327073 0.29074 -1.74061e-21)
(-0.010875 0.307491 -1.06804e-19)
(0.0200764 0.320738 -1.20858e-20)
(0.0617384 0.327805 2.17897e-20)
(0.114108 0.325801 7.80066e-20)
(0.182427 0.309125 -3.03184e-19)
(0.253101 0.279714 1.41851e-19)
(0.356092 0.22256 -1.3897e-19)
(-0.00247876 0.00912037 -1.18494e-19)
(-0.00871704 0.0318212 6.82687e-20)
(-0.016031 0.0583618 8.15803e-20)
(-0.0236281 0.0870557 7.22343e-20)
(-0.0308118 0.116139 1.53106e-19)
(-0.0369844 0.144088 2.15236e-20)
(-0.0416142 0.169849 -2.41451e-20)
(-0.0441707 0.192992 6.65051e-20)
(-0.044047 0.213684 -9.85837e-20)
(-0.0404845 0.232482 -8.44714e-21)
(-0.0325227 0.250007 4.78836e-20)
(-0.0190085 0.266567 -2.23079e-19)
(0.00135651 0.281934 -7.39241e-20)
(0.0299734 0.29517 7.20369e-20)
(0.0681657 0.304578 -1.76906e-19)
(0.117717 0.307631 2.01031e-19)
(0.176985 0.301999 2.3582e-20)
(0.255124 0.281639 -3.00559e-20)
(0.328471 0.251189 -4.02416e-19)
(0.44376 0.19196 2.56614e-19)
(-0.00275698 0.00907779 -4.54156e-20)
(-0.00939485 0.031557 -5.10343e-20)
(-0.016635 0.0577758 -2.39417e-19)
(-0.0236892 0.0860847 -1.05903e-19)
(-0.0297937 0.114789 -3.63084e-19)
(-0.0342711 0.142384 -3.08152e-20)
(-0.0365346 0.167772 -1.80246e-19)
(-0.036032 0.190401 -1.29058e-19)
(-0.0321649 0.21028 2.85915e-19)
(-0.0242052 0.227809 4.89435e-20)
(-0.0112387 0.243502 1.19668e-19)
(0.00783921 0.257642 1.55282e-19)
(0.03428 0.270042 -5.01078e-20)
(0.0694227 0.279874 -1.78912e-19)
(0.114359 0.285626 1.62975e-19)
(0.17127 0.285009 1.60881e-19)
(0.236128 0.276064 -1.77676e-19)
(0.323938 0.252782 2.62856e-19)
(0.397526 0.221915 4.37294e-19)
(0.526373 0.160674 1.35387e-19)
(-0.00300342 0.00881265 1.2266e-19)
(-0.0100639 0.0306539 1.46043e-19)
(-0.0173808 0.0561149 7.29051e-20)
(-0.0240992 0.0835906 1.81051e-19)
(-0.0293554 0.111468 8.53665e-20)
(-0.0323731 0.138293 2.20875e-19)
(-0.0324929 0.162948 1.92759e-19)
(-0.0291262 0.184787 -7.5762e-20)
(-0.0216774 0.20367 -1.21915e-19)
(-0.00945724 0.219844 2.18389e-19)
(0.00838191 0.2337 -1.40715e-19)
(0.0328601 0.245479 1.01417e-19)
(0.0651322 0.255028 1.42047e-19)
(0.106449 0.261635 1.61985e-19)
(0.157584 0.263961 -4.81015e-19)
(0.221324 0.260135 -2.42487e-19)
(0.290806 0.248056 -7.18428e-20)
(0.388444 0.222802 3.07645e-19)
(0.460919 0.191651 -7.19751e-19)
(0.607501 0.128512 -2.9908e-19)
(-0.00323265 0.00842292 1.77982e-19)
(-0.0107494 0.0293272 -2.16598e-19)
(-0.018298 0.0536538 -2.26303e-19)
(-0.024892 0.0798651 -2.36231e-19)
(-0.0295426 0.106456 -1.45886e-19)
(-0.0313622 0.132052 -3.49034e-20)
(-0.0296062 0.155553 -2.38376e-19)
(-0.0236373 0.176253 2.96327e-19)
(-0.012854 0.193893 8.55021e-20)
(0.00339488 0.208573 8.04639e-20)
(0.025881 0.220563 -3.39878e-19)
(0.0555217 0.230047 5.10271e-20)
(0.0933492 0.236896 -4.41718e-20)
(0.140529 0.24052 -1.05543e-20)
(0.197513 0.239697 -1.73064e-19)
(0.267816 0.233222 2.38565e-19)
(0.34204 0.218102 -5.10106e-20)
(0.450223 0.192076 -6.72002e-19)
(0.522822 0.159915 1.0575e-19)
(0.693806 0.0958336 5.53188e-19)
(-0.00347225 0.00800528 1.2375e-19)
(-0.0114997 0.0277973 -4.06699e-20)
(-0.0194291 0.0506852 2.37689e-19)
(-0.0260913 0.0752388 1.18813e-19)
(-0.0303579 0.100093 1.69291e-19)
(-0.0312261 0.123988 1.62795e-20)
(-0.0278601 0.145877 3.22842e-19)
(-0.0195643 0.16504 -2.91081e-19)
(-0.00571964 0.181131 -1.31428e-19)
(0.0142987 0.194129 -5.45946e-20)
(0.0411967 0.204193 3.35138e-19)
(0.0758005 0.211447 -6.03315e-20)
(0.119039 0.215776 5.08788e-20)
(0.172043 0.216716 2.14612e-19)
(0.2351 0.213094 2.12857e-19)
(0.312408 0.204572 -3.81774e-19)
(0.39336 0.186633 -2.15511e-19)
(0.513441 0.161109 1.40728e-19)
(0.591477 0.126677 4.44253e-19)
(0.791601 0.0642438 -6.66502e-20)
(-0.00375986 0.00764834 -1.64302e-19)
(-0.0123769 0.0262706 -9.05186e-20)
(-0.020817 0.0474961 -1.24411e-19)
(-0.0276948 0.0700566 -1.22296e-19)
(-0.0317399 0.0927621 1.38511e-19)
(-0.031839 0.114502 -2.72761e-19)
(-0.0270648 0.134326 2.68151e-19)
(-0.0166546 0.151537 1.67503e-20)
(4.59654e-05 0.165747 -2.25192e-19)
(0.0236632 0.176849 -5.04605e-20)
(0.0548766 0.184912 -2.08443e-19)
(0.0944775 0.19001 9.27617e-20)
(0.143378 0.192043 -6.34941e-20)
(0.202794 0.190672 -4.04869e-19)
(0.273158 0.184734 2.05307e-20)
(0.359139 0.17477 1.38873e-19)
(0.4509 0.154648 3.18864e-19)
(0.584536 0.130621 5.83302e-19)
(0.676705 0.0933368 1.09249e-19)
(0.902394 0.0362094 -7.31217e-19)
(-0.00413836 0.00742547 -2.23046e-19)
(-0.0134451 0.0249218 -3.01321e-20)
(-0.0224882 0.0443461 4.48163e-19)
(-0.029654 0.0646528 -1.99764e-19)
(-0.0335392 0.0848657 8.50278e-21)
(-0.0329308 0.104055 -1.93801e-19)
(-0.0268107 0.121403 -1.83987e-19)
(-0.0143372 0.136282 2.87337e-20)
(0.0052094 0.148302 9.8756e-20)
(0.0325082 0.157315 3.58943e-19)
(0.0682901 0.163332 -1.13191e-19)
(0.113423 0.166399 -4.84342e-19)
(0.168956 0.166443 3.4796e-19)
(0.236365 0.163247 3.06388e-19)
(0.31655 0.155687 2.04305e-19)
(0.414263 0.144908 5.29571e-19)
(0.521963 0.123843 -1.81086e-19)
(0.670119 0.101851 -9.10272e-19)
(0.78389 0.0628083 1.42893e-19)
(1.02041 0.0144216 2.05878e-19)
(-0.00464917 0.00738575 -1.13988e-19)
(-0.0147556 0.023879 1.54558e-19)
(-0.024433 0.0414461 -1.55002e-19)
(-0.0318527 0.059327 2.45903e-19)
(-0.0354951 0.0767959 -2.80871e-19)
(-0.0340594 0.0931337 2.60925e-19)
(-0.0264336 0.10769 5.13736e-20)
(-0.0116743 0.119942 -2.786e-19)
(0.0110524 0.129548 2.2824e-19)
(0.0425593 0.13636 -2.46923e-19)
(0.0837451 0.140378 3.03246e-19)
(0.135705 0.141653 1.66074e-19)
(0.199804 0.140157 1.31663e-19)
(0.277894 0.135792 -2.05891e-19)
(0.371435 0.127536 -3.83259e-20)
(0.484556 0.116663 -2.82795e-19)
(0.611939 0.0964013 2.17377e-19)
(0.773289 0.0766292 2.15042e-20)
(0.908629 0.0383984 -4.03431e-19)
(1.13389 0.0001266 1.9797e-19)
(-0.00532192 0.0075497 2.57112e-20)
(-0.0163285 0.0232121 9.85614e-20)
(-0.0265867 0.0389405 2.16065e-20)
(-0.0340897 0.054321 7.98838e-20)
(-0.0372206 0.0689075 1.92943e-19)
(-0.0345993 0.082219 1.78867e-19)
(-0.0250068 0.0937997 1.26989e-19)
(-0.00735861 0.103269 1.59992e-19)
(0.0193635 0.110377 -3.19066e-19)
(0.0562099 0.115024 -4.56108e-20)
(0.10438 0.117245 -4.97654e-19)
(0.165332 0.117134 -1.55782e-19)
(0.240826 0.114731 -1.7887e-19)
(0.332971 0.110025 2.95104e-19)
(0.443351 0.102184 -4.77488e-19)
(0.574374 0.0920801 9.18342e-20)
(0.721038 0.0743997 4.53712e-20)
(0.890397 0.0568619 5.47693e-19)
(1.0371 0.0220954 -2.77018e-19)
(1.23078 -0.00730802 2.32655e-19)
(-0.00616872 0.00790664 3.33638e-19)
(-0.0181397 0.0229247 1.22597e-19)
(-0.0288165 0.0368967 2.22479e-19)
(-0.0360689 0.0497981 2.01475e-19)
(-0.0382035 0.0614869 3.42899e-20)
(-0.0337566 0.0717423 -4.34447e-19)
(-0.0213767 0.0803262 -3.19781e-19)
(0.000216329 0.0870321 -2.85589e-19)
(0.0323071 0.0917383 2.68132e-19)
(0.076285 0.0944439 1.60502e-19)
(0.133741 0.0952605 5.6379e-19)
(0.206513 0.0943557 -4.59123e-19)
(0.296591 0.0918467 1.72042e-19)
(0.405815 0.087742 -3.32477e-19)
(0.534837 0.0814676 2.54309e-19)
(0.682973 0.0730072 -9.17786e-20)
(0.843019 0.0591411 1.34269e-19)
(1.01106 0.0436162 -4.9994e-19)
(1.15314 0.0138262 4.1577e-19)
(1.30418 -0.00940365 1.96277e-19)
(-0.00717677 0.00841429 -4.58665e-19)
(-0.0201103 0.0229546 1.89177e-19)
(-0.0309178 0.0352975 -3.00988e-19)
(-0.0374075 0.045828 -2.84144e-19)
(-0.037828 0.0547271 1.03606e-19)
(-0.0306162 0.0620452 5.17552e-19)
(-0.0142517 0.0677806 -3.7333e-19)
(0.0128004 0.0719265 4.87472e-20)
(0.0521604 0.0745246 -1.04321e-19)
(0.105605 0.0757073 -1.01816e-19)
(0.175088 0.0756954 2.63328e-19)
(0.262616 0.0747407 5.7904e-19)
(0.369884 0.0730193 -2.15421e-20)
(0.497516 0.0704558 4.9897e-20)
(0.643822 0.0666761 -2.05623e-20)
(0.803887 0.0604869 -3.52584e-19)
(0.966953 0.0507492 3.4887e-19)
(1.12232 0.0365582 5.82612e-19)
(1.24564 0.0119999 1.73247e-19)
(1.35323 -0.00825442 -3.42463e-19)
(-0.00830549 0.00900334 -1.172e-19)
(-0.0221049 0.0231801 3.83236e-19)
(-0.0326185 0.0340442 -1.27925e-20)
(-0.0376557 0.0423848 2.727e-19)
(-0.035418 0.048709 1.25195e-19)
(-0.0242209 0.0533434 1.20134e-19)
(-0.00233563 0.0565362 -1.49744e-19)
(0.032069 0.0584978 2.57631e-19)
(0.0809665 0.0594569 4.29597e-20)
(0.146462 0.0597018 -1.53241e-19)
(0.230646 0.0595724 -8.77186e-20)
(0.335199 0.0593841 -3.96749e-19)
(0.460658 0.0593081 -4.01169e-19)
(0.605272 0.0590507 9.51141e-20)
(0.763796 0.0582201 -3.27446e-20)
(0.926901 0.054469 -1.39664e-19)
(1.08112 0.0482034 -4.8053e-19)
(1.21418 0.0343565 -6.0002e-19)
(1.31119 0.0146997 -7.14484e-19)
(1.38154 -0.00566318 8.69277e-20)
(-0.00948756 0.00958653 2.49457e-20)
(-0.0239376 0.0234363 -3.45666e-19)
(-0.0335961 0.0329712 -3.27656e-19)
(-0.0363293 0.0393516 -2.18675e-19)
(-0.0302924 0.0433974 3.93625e-19)
(-0.0136607 0.0457115 -8.50947e-19)
(0.0155277 0.0467963 1.72988e-19)
(0.0593988 0.0470884 -9.90501e-20)
(0.120208 0.047014 2.8158e-19)
(0.200173 0.0470211 3.42228e-20)
(0.301076 0.0475495 -4.29777e-19)
(0.423517 0.0489175 1.86518e-19)
(0.565845 0.0511702 5.88843e-20)
(0.72295 0.0536493 1.89654e-19)
(0.885653 0.0556275 -2.04934e-19)
(1.04149 0.0539659 3.71949e-19)
(1.1769 0.0498149 -1.62538e-19)
(1.2826 0.0356003 8.87657e-20)
(1.35223 0.0204112 -5.52721e-20)
(1.39442 -0.00301816 -2.22717e-19)
(-0.0106344 0.0100704 3.80068e-19)
(-0.0253846 0.0235361 -7.15959e-20)
(-0.0334979 0.0318682 -4.53071e-20)
(-0.0329422 0.0365418 2.63829e-19)
(-0.0218182 0.0386589 -1.34718e-19)
(0.00184651 0.0390942 7.65952e-19)
(0.0402374 0.0385999 3.53208e-20)
(0.0957069 0.0378377 2.3309e-19)
(0.170603 0.0374277 -3.92022e-19)
(0.266874 0.0379573 -2.97744e-19)
(0.385344 0.0399132 4.3662e-19)
(0.52464 0.0435086 -3.59716e-19)
(0.680019 0.0484874 2.91086e-19)
(0.842644 0.0536887 -5.36175e-20)
(1.00028 0.0578104 9.12709e-19)
(1.13985 0.0574833 -2.0083e-20)
(1.2507 0.0539066 3.24103e-19)
(1.32888 0.0393853 4.79729e-19)
(1.37408 0.0277655 2.91707e-19)
(1.39671 -0.0014924 4.74574e-19)
(-0.0116454 0.0103682 1.83466e-19)
(-0.0262026 0.0232966 -4.13654e-19)
(-0.0319662 0.0305156 1.40105e-19)
(-0.0270312 0.0337323 2.29419e-19)
(-0.0094448 0.0342977 1.93957e-19)
(0.0229091 0.0333467 -5.57597e-19)
(0.0723797 0.0318676 2.50776e-19)
(0.141392 0.0307361 1.14293e-19)
(0.232073 0.0307452 4.88805e-20)
(0.345559 0.0325744 2.02162e-19)
(0.480943 0.0366602 -1.17117e-19)
(0.634044 0.0429537 3.65085e-19)
(0.796568 0.0506987 -3.07625e-19)
(0.956562 0.0581446 -3.19649e-19)
(1.10076 0.0634343 -5.55379e-19)
(1.21824 0.0634895 -1.76887e-19)
(1.30326 0.0593239 -3.89021e-19)
(1.35716 0.045138 -4.3445e-19)
(1.3829 0.0347973 -3.92792e-19)
(1.39202 -0.00170104 -2.09677e-19)
(-0.0124165 0.0104111 2.79325e-19)
(-0.0261429 0.022565 -7.20567e-20)
(-0.0286547 0.0287134 -1.9382e-19)
(-0.0181773 0.0307052 -6.29573e-19)
(0.00728536 0.0301108 -5.01674e-20)
(0.0499567 0.0282999 6.68676e-19)
(0.112235 0.0264786 -1.50225e-19)
(0.196371 0.0257147 1.29616e-19)
(0.303833 0.0269312 3.07522e-19)
(0.434285 0.0308145 9.19086e-20)
(0.584315 0.0376027 -5.93709e-19)
(0.746385 0.0467877 -1.47768e-19)
(0.908959 0.0569538 -1.04213e-19)
(1.05856 0.0658071 2.9548e-19)
(1.18337 0.0712247 8.60377e-19)
(1.27664 0.0707682 -2.74074e-19)
(1.33784 0.0655128 -1.81534e-19)
(1.37198 0.0519067 4.73203e-19)
(1.38384 0.0397661 2.59597e-19)
(1.38589 0.0130836 1.16963e-19)
(-0.012848 0.0101549 -2.99527e-19)
(-0.0249666 0.0212363 2.21956e-19)
(-0.0232341 0.0263135 -4.54227e-19)
(-0.00600552 0.0272995 5.15473e-20)
(0.0287419 0.0259459 3.19472e-19)
(0.083263 0.0238317 -6.7935e-19)
(0.159824 0.0223563 -7.12769e-19)
(0.260161 0.0227399 1.304e-20)
(0.384532 0.025962 -4.23893e-19)
(0.530426 0.0325804 -2.99243e-19)
(0.691305 0.0424344 4.76379e-19)
(0.856293 0.0543634 7.59179e-19)
(1.01178 0.06626 -2.99485e-19)
(1.14492 0.0755166 -1.89285e-19)
(1.24743 0.08015 -4.79926e-19)
(1.31739 0.0785694 3.42258e-20)
(1.35848 0.0721873 -1.70416e-20)
(1.37756 0.0584991 -1.78234e-20)
(1.38041 0.0472351 4.98564e-20)
(1.37687 0.0210497 6.49031e-19)
(-0.0128496 0.00958545 3.00139e-19)
(-0.0224487 0.0192653 3.33058e-19)
(-0.0153991 0.0232479 4.41088e-19)
(0.00982188 0.0234454 1.75907e-19)
(0.0552253 0.021752 -2.41402e-19)
(0.122977 0.0199298 -1.69812e-19)
(0.214956 0.0195355 -2.45899e-20)
(0.331944 0.0218777 2.44493e-19)
(0.472369 0.027872 2.25569e-19)
(0.63089 0.0377543 1.44302e-19)
(0.797611 0.0507414 -1.68849e-20)
(0.959053 0.064911 -3.65256e-19)
(1.10136 0.0776204 2.95733e-19)
(1.2144 0.086313 -4.47405e-20)
(1.29441 0.0895007 1.38703e-19)
(1.34384 0.0865203 6.09427e-20)
(1.36901 0.0789564 -4.72304e-20)
(1.37737 0.0655895 1.20653e-19)
(1.37415 0.0538138 -9.36057e-20)
(1.36734 0.0307087 -6.39179e-19)
(-0.0123443 0.0087128 1.56592e-19)
(-0.0183828 0.016669 -5.9976e-19)
(-0.00486494 0.0195422 2.96156e-19)
(0.0296114 0.0191882 1.24566e-19)
(0.086978 0.0176122 -3.67554e-19)
(0.169135 0.0167279 3.6042e-19)
(0.277241 0.0181944 2.03566e-19)
(0.410596 0.0233055 -4.89848e-19)
(0.56516 0.0327353 6.0215e-20)
(0.732338 0.0461599 -9.45013e-20)
(0.899207 0.0619931 2.24166e-19)
(1.05112 0.0776074 -1.69364e-19)
(1.17597 0.0901529 -2.59566e-19)
(1.26768 0.0974996 3.85079e-19)
(1.32695 0.0988713 -1.89216e-19)
(1.35943 0.0944154 7.61707e-20)
(1.37265 0.0858826 -1.81457e-19)
(1.37357 0.072612 1.35057e-21)
(1.36659 0.0610387 -1.63098e-19)
(1.35768 0.0394834 1.78248e-19)
(-0.0112626 0.00756825 -3.92036e-20)
(-0.0125796 0.0135251 -1.77952e-19)
(0.00863251 0.0153153 -2.01925e-19)
(0.0536365 0.0146955 1.16726e-19)
(0.124178 0.0137525 -3.44572e-20)
(0.221649 0.0145085 2.19669e-19)
(0.346068 0.0186397 1.57349e-19)
(0.494671 0.0272703 1.51068e-19)
(0.660414 0.0405993 4.98338e-20)
(0.831428 0.0575095 1.32708e-19)
(0.99275 0.0755604 2.25855e-19)
(1.13037 0.0916646 4.96018e-20)
(1.23553 0.103168 -1.12965e-19)
(1.30661 0.108643 8.62601e-20)
(1.34801 0.10807 2.82616e-19)
(1.3672 0.10224 -5.12377e-19)
(1.37178 0.0928798 1.6484e-19)
(1.36774 0.0798521 1.92934e-19)
(1.35842 0.0681761 6.36072e-20)
(1.34814 0.0482067 1.25041e-19)
(-0.00954018 0.00619914 -6.24421e-20)
(-0.00486287 0.00996111 3.88368e-19)
(0.0253341 0.0107694 1.36752e-19)
(0.0821255 0.0102463 -4.20985e-19)
(0.166911 0.0105253 -1.1393e-19)
(0.28026 0.0136722 2.16688e-19)
(0.420552 0.0212533 1.06411e-19)
(0.582397 0.0340108 3.73689e-19)
(0.755457 0.0514088 -1.42092e-20)
(0.925117 0.0713842 1.84074e-20)
(1.07587 0.0907755 -1.91024e-19)
(1.19607 0.106412 -3.00751e-19)
(1.28117 0.116193 -3.24649e-20)
(1.33362 0.119522 -1.89412e-19)
(1.36037 0.11706 1.59802e-19)
(1.36955 0.110016 7.78747e-19)
(1.3681 0.100022 3.04665e-19)
(1.3608 0.0871795 -2.98275e-19)
(1.35004 0.0755029 -1.47657e-19)
(1.33889 0.0568054 5.95197e-20)
(-0.00711461 0.00466328 3.0711e-19)
(0.0049304 0.00614293 -4.72673e-19)
(0.0454483 0.0061746 -4.53337e-19)
(0.115238 0.00620782 6.21501e-19)
(0.215131 0.00837335 1.88003e-19)
(0.344482 0.0146837 -1.17258e-19)
(0.499503 0.0264165 -3.42142e-19)
(0.671726 0.0436752 -4.27911e-19)
(0.847636 0.064961 2.88238e-19)
(1.01095 0.0872657 5.15567e-20)
(1.14728 0.107011 1.54214e-19)
(1.24862 0.121345 1.2742e-19)
(1.31468 0.128959 -7.75291e-21)
(1.35118 0.130075 -8.55277e-20)
(1.3664 0.125881 -1.72274e-19)
(1.36828 0.117814 -4.67206e-19)
(1.3627 0.107316 -1.8424e-19)
(1.3533 0.0946617 6.14884e-19)
(1.34165 0.0829044 1.01892e-19)
(1.3299 0.0652835 -1.49911e-19)
(-0.00392339 0.00302567 -3.20531e-19)
(0.0169468 0.00226514 3.32753e-19)
(0.0691359 0.00184939 7.80248e-21)
(0.153032 0.00300442 -1.40875e-19)
(0.268614 0.00778388 -4.59719e-20)
(0.413565 0.0180074 -4.08315e-20)
(0.581429 0.0344347 -2.51939e-19)
(0.76046 0.0562655 3.06539e-19)
(0.934567 0.0809121 -5.11108e-19)
(1.08723 0.104604 1.60711e-21)
(1.20671 0.123745 -9.19052e-20)
(1.28916 0.136135 -4.55283e-20)
(1.33814 0.141353 1.05166e-19)
(1.36151 0.140333 -2.34706e-19)
(1.36795 0.134612 -1.33158e-20)
(1.36463 0.125688 1.29462e-19)
(1.35627 0.114789 -3.18408e-19)
(1.34551 0.102267 -2.58036e-21)
(1.33332 0.0904023 4.99544e-22)
(1.32116 0.0736883 2.65226e-19)
(9.53173e-05 0.00135724 4.6547e-20)
(0.0313096 -0.00145674 9.17451e-20)
(0.0964921 -0.00185709 1.81003e-19)
(0.195439 0.00108654 -9.90627e-20)
(0.326924 0.00924148 -3.22588e-19)
(0.486484 0.0240469 8.45406e-20)
(0.664608 0.0454823 1.92646e-19)
(0.846437 0.0716239 1.06848e-19)
(1.01434 0.0988259 3.60653e-19)
(1.15311 0.122886 -9.90218e-20)
(1.25464 0.140591 -5.91888e-20)
(1.31927 0.150606 5.06355e-20)
(1.35354 0.153372 -1.44811e-19)
(1.36647 0.150376 -2.01029e-19)
(1.36641 0.143335 -1.31295e-19)
(1.35945 0.133688 1.07914e-19)
(1.34924 0.122444 2.70212e-19)
(1.33759 0.109995 -1.31122e-19)
(1.32505 0.0979684 -2.0439e-19)
(1.3126 0.0819978 3.09657e-20)
(0.00499948 -0.000264988 8.31916e-20)
(0.048108 -0.00479145 1.92416e-20)
(0.127528 -0.00458074 -2.43853e-19)
(0.242233 0.000901902 3.24668e-19)
(0.389398 0.0131865 7.27816e-20)
(0.561968 0.0331003 -3.84115e-19)
(0.747212 0.0595791 1.47388e-19)
(0.927724 0.0894601 -1.9431e-19)
(1.08567 0.118238 9.60133e-21)
(1.20844 0.141687 3.19809e-20)
(1.29209 0.1573 9.2379e-20)
(1.34065 0.164698 1.07753e-20)
(1.36268 0.165078 4.07044e-19)
(1.36752 0.1603 1.60875e-19)
(1.36273 0.152119 -7.61444e-20)
(1.35327 0.141841 -8.85106e-20)
(1.34182 0.130275 5.08278e-20)
(1.32959 0.117823 5.2195e-20)
(1.31682 0.105586 -8.66278e-20)
(1.30419 0.0902231 -9.66411e-20)
(0.0108382 -0.00175701 -9.75551e-20)
(0.0673858 -0.00749569 6.47014e-21)
(0.162152 -0.00595542 4.9875e-20)
(0.293023 0.00287145 -1.37038e-19)
(0.455162 0.0199832 2.66479e-19)
(0.638579 0.0453343 1.53177e-19)
(0.827455 0.0765979 -1.56505e-19)
(1.00277 0.109401 -1.03788e-19)
(1.14785 0.138713 9.40224e-20)
(1.25366 0.160686 -1.45785e-19)
(1.32035 0.173739 1.08484e-19)
(1.35491 0.178431 -2.17749e-21)
(1.36704 0.176562 3.53977e-21)
(1.36575 0.170193 -8.02592e-20)
(1.35758 0.161014 2.27862e-19)
(1.34641 0.150157 -1.89271e-20)
(1.33413 0.138265 9.64456e-20)
(1.3215 0.125728 -1.39476e-19)
(1.30859 0.113233 1.06842e-19)
(1.29585 0.0983508 -4.29282e-20)
(0.0176461 -0.00302757 1.61267e-19)
(0.0891295 -0.00931807 1.95756e-19)
(0.200162 -0.00562456 1.45965e-19)
(0.347249 0.00736964 -2.10121e-20)
(0.523163 0.029898 3.09574e-20)
(0.714805 0.0607791 2.79026e-21)
(0.903732 0.0962951 3.39364e-19)
(1.07047 0.131045 -1.00759e-19)
(1.20075 0.159878 7.05564e-20)
(1.28956 0.179666 -3.56784e-19)
(1.34077 0.189863 5.22187e-20)
(1.36349 0.19187 1.55607e-19)
(1.36779 0.187918 -7.0332e-20)
(1.36195 0.180127 1.44782e-19)
(1.35139 0.170049 -1.87924e-19)
(1.33904 0.158634 2.5568e-19)
(1.3262 0.14639 8.34998e-21)
(1.31331 0.133685 -8.48778e-20)
(1.30034 0.12089 3.33623e-21)
(1.28753 0.106374 1.28092e-19)
(0.025438 -0.00397873 -3.05555e-19)
(0.113259 -0.010004 7.90804e-20)
(0.241237 -0.00325241 -3.02292e-20)
(0.4042 0.0147084 -2.26284e-19)
(0.592228 0.0430884 -8.3657e-20)
(0.78917 0.07934 -1.61834e-19)
(0.97472 0.118351 -1.40093e-19)
(1.1302 0.154002 -1.51062e-19)
(1.24463 0.181437 1.54647e-19)
(1.31713 0.198499 7.60619e-20)
(1.35465 0.205684 -2.22666e-19)
(1.36758 0.205096 -5.48367e-20)
(1.36582 0.19923 -2.60232e-20)
(1.35665 0.190152 -1.09196e-19)
(1.34441 0.179233 -1.86431e-20)
(1.33126 0.167254 -4.50661e-20)
(1.31805 0.154621 -1.81299e-19)
(1.30499 0.141668 8.81741e-20)
(1.292 0.128533 1.08135e-19)
(1.27919 0.11428 -2.66911e-20)
(0.0342047 -0.00450754 1.13644e-20)
(0.139622 -0.00930271 -1.43742e-19)
(0.284941 0.00146417 6.72174e-20)
(0.463042 0.0251245 -4.69817e-20)
(0.66113 0.059601 5.84014e-20)
(0.860323 0.10082 2.67262e-19)
(1.03943 0.142407 -1.16729e-19)
(1.18171 0.17792 2.89267e-19)
(1.28007 0.20317 1.40437e-20)
(1.33743 0.21712 1.42825e-19)
(1.36313 0.221246 1.25985e-20)
(1.36815 0.218191 9.81106e-20)
(1.36178 0.210562 2.02729e-20)
(1.35019 0.200292 9.78611e-21)
(1.3368 0.18856 -1.43491e-19)
(1.32311 0.175994 2.53751e-20)
(1.30966 0.162926 1.30883e-19)
(1.29651 0.149647 5.98911e-21)
(1.28356 0.136139 -6.42409e-20)
(1.27078 0.122052 2.62116e-20)
(0.0439093 -0.00450897 3.80586e-20)
(0.167991 -0.00697542 1.17608e-19)
(0.330733 0.00878359 1.27683e-19)
(0.522847 0.0387698 -3.46449e-20)
(0.728654 0.0793772 1.6828e-19)
(0.927107 0.124946 -3.38054e-20)
(1.09721 0.1681 2.7575e-19)
(1.22511 0.202498 -3.49455e-19)
(1.30777 0.224921 -6.19214e-20)
(1.35147 0.23551 -6.17109e-20)
(1.36719 0.236605 -7.42131e-20)
(1.36595 0.231222 -1.76128e-20)
(1.35611 0.221955 2.53705e-20)
(1.34281 0.210554 -9.2681e-20)
(1.32863 0.19801 9.5554e-20)
(1.31459 0.184822 -4.1579e-20)
(1.30099 0.17127 -3.23183e-20)
(1.28783 0.157595 -2.94297e-20)
(1.27496 0.143685 -1.84488e-20)
(1.26226 0.129675 -5.92802e-20)
(0.0544859 -0.00387961 1.8103e-19)
(0.198066 -0.00280544 -1.81857e-19)
(0.377982 0.0189079 2.1807e-20)
(0.582641 0.0557063 -2.30201e-20)
(0.793662 0.102265 -6.14669e-20)
(0.988596 0.151395 -1.26524e-19)
(1.14772 0.195079 -1.91017e-20)
(1.26071 0.227487 8.52487e-20)
(1.32852 0.246585 3.90289e-20)
(1.36019 0.253676 -4.76151e-20)
(1.36765 0.251816 5.35839e-20)
(1.36151 0.244237 -1.15407e-20)
(1.34913 0.233426 -1.06451e-19)
(1.33464 0.220926 1.5571e-19)
(1.31993 0.207552 4.32786e-20)
(1.30568 0.193702 -2.31139e-20)
(1.29203 0.179615 2.83502e-20)
(1.27891 0.16548 4.38412e-20)
(1.26617 0.151145 4.33087e-20)
(1.2536 0.137128 4.579e-20)
(0.0658394 -0.00252187 -1.88979e-19)
(0.229478 0.0033921 1.52554e-19)
(0.425989 0.0319731 6.72445e-20)
(0.641443 0.0759055 -1.38532e-19)
(0.855134 0.128033 -3.02326e-20)
(1.04411 0.17982 -1.16103e-19)
(1.19086 0.22302 4.65057e-20)
(1.28898 0.252682 -7.72586e-20)
(1.34311 0.268089 5.84707e-21)
(1.36438 0.271632 1.23988e-20)
(1.36513 0.266919 2.35639e-20)
(1.35525 0.25726 -8.92823e-20)
(1.34103 0.244971 9.16024e-20)
(1.32573 0.231381 -6.54071e-20)
(1.31071 0.217149 -1.80258e-20)
(1.29637 0.202593 8.63266e-21)
(1.28274 0.187921 -1.9637e-20)
(1.26973 0.173272 -4.54469e-20)
(1.25718 0.158492 -2.04729e-21)
(1.24476 0.144393 -3.11005e-20)
(0.0778462 -0.000348357 -2.3599e-20)
(0.261804 0.011761 -7.20316e-20)
(0.474014 0.0480416 -2.47186e-20)
(0.698307 0.0992514 3.96831e-20)
(0.912202 0.156389 -2.51806e-20)
(1.09318 0.209859 2.58342e-20)
(1.22673 0.251626 6.05744e-20)
(1.31048 0.277916 5.3784e-20)
(1.35226 0.289385 4.26672e-20)
(1.36473 0.28939 -9.42954e-21)
(1.36012 0.281935 -2.49383e-20)
(1.34743 0.270294 2.96137e-20)
(1.33194 0.256568 -1.45867e-20)
(1.31613 0.241878 1.84443e-20)
(1.30095 0.226754 -1.1223e-20)
(1.28662 0.211449 2.40873e-20)
(1.2731 0.196147 -6.61895e-21)
(1.26026 0.180938 2.8395e-20)
(1.24794 0.165698 -6.80229e-21)
(1.23573 0.151446 4.40911e-21)
(0.0903575 0.00271402 -5.79219e-22)
(0.294575 0.0223962 -3.29217e-22)
(0.521299 0.0670987 -8.71675e-21)
(0.752353 0.125549 4.38533e-20)
(0.964166 0.186995 2.83543e-20)
(1.13557 0.241155 -2.18793e-20)
(1.25558 0.280629 -1.649e-20)
(1.32576 0.303048 -5.05525e-21)
(1.35663 0.310428 -2.4002e-20)
(1.36177 0.306952 -1.45128e-21)
(1.35298 0.296866 1.0187e-21)
(1.33825 0.283319 -1.04009e-20)
(1.32191 0.268177 -6.70114e-21)
(1.30584 0.25237 -1.52258e-20)
(1.29064 0.236316 -1.62387e-20)
(1.27642 0.220224 -1.38093e-21)
(1.26308 0.20425 5.99486e-21)
(1.25048 0.188444 6.45194e-21)
(1.23845 0.172731 7.49313e-21)
(1.22649 0.158262 1.0628e-20)
(0.103202 0.00672026 2.88764e-20)
(0.327291 0.0353379 -4.68619e-21)
(0.567098 0.0890523 -8.22687e-21)
(0.802795 0.154532 2.10689e-20)
(1.01049 0.21948 4.21298e-20)
(1.17118 0.273357 -1.86661e-20)
(1.27774 0.309787 -1.51233e-20)
(1.33539 0.327955 -2.80527e-20)
(1.3568 0.331176 -2.49804e-20)
(1.35596 0.324305 4.76312e-21)
(1.34398 0.311692 -4.19716e-21)
(1.32783 0.296297 -1.71994e-21)
(1.31099 0.279746 -9.75948e-21)
(1.29485 0.262798 -1.55481e-20)
(1.27976 0.245782 -3.41095e-21)
(1.26574 0.228867 -1.24148e-21)
(1.25265 0.212187 -4.86215e-22)
(1.24037 0.195752 3.04511e-21)
(1.22868 0.179554 1.14789e-20)
(1.21703 0.164816 9.09155e-21)
(0.116193 0.0117043 -1.76741e-20)
(0.359441 0.0505685 -2.83462e-20)
(0.6107 0.113736 -3.78054e-20)
(0.848959 0.185877 5.0597e-20)
(1.05081 0.253457 4.78526e-20)
(1.20007 0.306129 3.21373e-22)
(1.29359 0.338875 1.76121e-20)
(1.3399 0.352523 4.87661e-20)
(1.35325 0.35158 5.25161e-20)
(1.34762 0.341415 3.31487e-20)
(1.3333 0.32637 -8.0314e-20)
(1.31624 0.309172 3.31064e-20)
(1.2992 0.291212 -1.42942e-20)
(1.28315 0.2731 3.35793e-20)
(1.26829 0.255091 -7.94703e-22)
(1.25455 0.237324 -5.41231e-21)
(1.24181 0.219909 3.04732e-21)
(1.22991 0.202824 2.67165e-20)
(1.21861 0.186128 -1.06507e-20)
(1.20733 0.171076 -1.05832e-21)
(0.129129 0.0176768 -5.82542e-20)
(0.390512 0.0680111 1.36294e-19)
(0.651447 0.140914 1.32463e-20)
(0.890288 0.219215 -1.73041e-19)
(1.08487 0.288523 -3.091e-20)
(1.22237 0.339143 7.25013e-20)
(1.30355 0.367686 -1.65626e-19)
(1.33976 0.37664 -1.00168e-21)
(1.34637 0.371579 1.35467e-20)
(1.33703 0.358234 -3.70952e-21)
(1.32107 0.340843 4.2215e-20)
(1.30352 0.321875 -6.74002e-20)
(1.28652 0.302502 1.03052e-20)
(1.27073 0.283205 -2.27237e-20)
(1.2562 0.26418 -1.70827e-20)
(1.24286 0.245541 1.64986e-20)
(1.23054 0.227371 -1.57134e-21)
(1.2191 0.209623 -4.16515e-20)
(1.20825 0.192419 1.68428e-21)
(1.19734 0.177005 -1.76615e-20)
(0.141806 0.0246235 4.37554e-20)
(0.42001 0.0875315 -7.80592e-20)
(0.688751 0.170292 -6.26595e-21)
(0.926349 0.254138 -1.47953e-19)
(1.11259 0.324277 -8.78899e-20)
(1.2383 0.37209 7.15968e-20)
(1.30801 0.396021 -8.24513e-20)
(1.33542 0.400192 9.02706e-21)
(1.33651 0.391099 6.44392e-20)
(1.32439 0.374691 -1.76534e-20)
(1.3074 0.355033 6.92417e-21)
(1.28972 0.334327 2.0891e-20)
(1.27297 0.313538 -6.8809e-20)
(1.25757 0.293043 8.59143e-20)
(1.2435 0.272987 7.79318e-20)
(1.23064 0.253461 -1.84131e-20)
(1.21882 0.234522 -2.58515e-20)
(1.20791 0.216108 2.85944e-20)
(1.19758 0.198413 1.55908e-20)
(1.18705 0.182581 3.37441e-20)
(0.154018 0.0325055 -1.70191e-19)
(0.447472 0.108941 7.81749e-20)
(0.722108 0.201521 -5.63324e-20)
(0.956824 0.290218 1.53944e-19)
(1.13395 0.360316 1.62862e-20)
(1.24814 0.404668 1.47941e-19)