0.174904 	0.470097 	-9.12254e-19 	0.75502
0.175834 	0.472596 	-2.24338e-18 	0.754126
0.177597 	0.477336 	-1.81517e-18 	0.753368
0.179264 	0.481815 	3.37494e-19 	0.752702
0.180193 	0.484314 	1.13201e-18 	0.751883
0.181317 	0.487333 	1.2406e-18 	0.751411
0.183176 	0.492331 	1.15784e-18 	0.751103
0.184553 	0.496031 	5.04547e-19 	0.750798
0.185483 	0.498531 	2.29334e-19 	0.750067
