0.174904 	0.470097 	-9.12254e-19 	1.10642 	-0.0318407 	-5.54268e-19
0.175834 	0.472596 	-2.24338e-18 	1.10458 	-0.0308238 	1.74518e-18
0.177597 	0.477336 	-1.81517e-18 	1.05723 	-0.0275166 	5.22503e-17
0.179264 	0.481815 	3.37494e-19 	0.946372 	-0.0210657 	3.75922e-17
0.180193 	0.484314 	1.13201e-18 	0.939048 	-0.0200331 	4.58102e-17
0.181317 	0.487333 	1.2406e-18 	0.742265 	-0.0114028 	5.99576e-17
0.183176 	0.492331 	1.15784e-18 	0.471496 	-0.00371865 	1.19453e-17
0.184553 	0.496031 	5.04547e-19 	0.161131 	-0.000382231 	1.00952e-17
0.185483 	0.498531 	2.29334e-19 	0.159241 	-0.000364139 	5.79615e-18
