0.134775 	0.485646 	3.53364e-18 	0.842473 	-0.0209925 	3.34965e-17
0.135468 	0.488145 	2.83497e-18 	0.83044 	-0.0196872 	1.59789e-17
0.13663 	0.492331 	3.0248e-18 	0.539223 	-0.00651977 	5.28957e-17
0.138017 	0.49733 	2.56914e-18 	0.184348 	-0.000552506 	1.26347e-17
