0.165102 	0.474544 	-2.27096e-18 	1.10813 	-0.0328634 	2.99251e-17
0.166074 	0.477336 	-1.31868e-18 	1.06636 	-0.0297646 	2.16767e-17
0.167813 	0.482335 	-9.72025e-20 	0.961548 	-0.0232473 	2.88655e-17
0.169341 	0.486727 	-1.80583e-19 	0.767845 	-0.013635 	2.37352e-17
0.170211 	0.489227 	-2.95087e-19 	0.758919 	-0.0128465 	6.85176e-17
0.171291 	0.492331 	1.106e-19 	0.483532 	-0.00420176 	-9.13938e-18
0.17303 	0.49733 	-5.27309e-19 	0.165265 	-0.000421524 	6.39689e-17
