0.144637 	0.481043 	-4.62035e-18 	0.759278
0.145388 	0.483542 	-4.96225e-18 	0.75824
0.146528 	0.487333 	-4.03936e-18 	0.757555
0.148031 	0.492331 	-4.05932e-18 	0.757079
0.149391 	0.496855 	-4.2358e-18 	0.756595
0.150143 	0.499354 	-3.77473e-18 	0.755693
