/*--------------------------------*- C++ -*----------------------------------*\
  =========                 |
  \\      /  F ield         | OpenFOAM: The Open Source CFD Toolbox
   \\    /   O peration     | Website:  https://openfoam.org
    \\  /    A nd           | Version:  7
     \\/     M anipulation  |
\*---------------------------------------------------------------------------*/
FoamFile
{
    version     2.0;
    format      ascii;
    class       volScalarField;
    location    "7";
    object      p;
}
// * * * * * * * * * * * * * * * * * * * * * * * * * * * * * * * * * * * * * //

dimensions      [0 2 -2 0 0 0 0];

internalField   nonuniform List<scalar> 
435
(
5.79396
6.13791
6.0314
6.37767
6.26653
6.13593
5.91323
5.68835
5.46192
5.23483
5.964
5.76131
5.55758
5.35395
5.15181
4.95293
4.75958
4.57466
5.81566
5.63645
5.45725
5.27937
5.10429
4.93365
4.76914
4.61224
4.46231
4.30827
5.67677
5.52011
5.36385
5.2092
5.05736
4.90944
4.76628
4.62828
4.49391
4.35346
4.20487
5.5418
5.40535
5.26925
5.13444
5.00175
4.87184
4.74504
4.62132
4.49933
4.37126
4.23615
5.40921
5.29047
5.17177
5.0538
4.93712
4.82207
4.7088
4.59723
4.48643
4.37015
4.24765
5.27801
5.17455
5.07078
4.9672
4.86416
4.76189
4.66048
4.55992
4.45962
4.35454
4.24378
5.14782
5.05745
4.96651
4.87534
4.78419
4.69322
4.60252
4.51215
4.42172
4.32716
4.22731
5.01875
4.93961
4.85973
4.77934
4.69865
4.61777
4.53681
4.45585
4.37462
4.28979
4.20006
4.89113
4.82161
4.75128
4.6803
4.60883
4.53696
4.4648
4.39243
4.31966
4.24376
4.16334
4.76534
4.70409
4.642
4.57921
4.51584
4.45197
4.38769
4.32308
4.25798
4.19016
4.11821
4.64175
4.58758
4.53261
4.47694
4.42066
4.36383
4.30655
4.24886
4.19063
4.13006
4.06571
4.52065
4.47257
4.42375
4.37424
4.32413
4.27347
4.22234
4.17077
4.11865
4.06449
4.0069
4.4023
4.35946
4.31593
4.27176
4.22701
4.18173
4.13598
4.08979
4.04304
3.99452
3.94288
4.28691
4.24858
4.20962
4.17006
4.12997
4.08937
4.0483
4.00681
3.96478
3.92119
3.87476
4.17465
4.14022
4.10521
4.06965
4.03359
3.99705
3.96007
3.92268
3.88477
3.84548
3.80363
4.06569
4.03464
4.00305
3.97096
3.93839
3.90539
3.87197
3.83815
3.80385
3.76833
3.73049
3.96018
3.93205
3.90344
3.87436
3.84485
3.81492
3.78461
3.75392
3.72278
3.69056
3.65625
3.85824
3.83267
3.80665
3.78021
3.75336
3.72613
3.69853
3.67059
3.64222
3.6129
3.58171
3.76001
3.73668
3.71293
3.68879
3.66427
3.6394
3.6142
3.58867
3.56275
3.53599
3.50757
3.66561
3.64424
3.62249
3.60037
3.57791
3.55512
3.53202
3.50863
3.48487
3.46038
3.43442
3.57514
3.5555
3.5355
3.51517
3.49453
3.47358
3.45234
3.43084
3.409
3.38652
3.36274
3.4887
3.47059
3.45215
3.4334
3.41435
3.39503
3.37545
3.35562
3.33549
3.3148
3.29298
3.40638
3.38962
3.37256
3.3552
3.33758
3.31971
3.3016
3.28326
3.26465
3.24555
3.22547
3.32825
3.31269
3.29684
3.28074
3.26438
3.24779
3.23099
3.21398
3.19672
3.17905
3.16051
3.25437
3.23987
3.22511
3.21011
3.19488
3.17943
3.16379
3.14797
3.13192
3.11551
3.09835
3.1848
3.17124
3.15745
3.14342
3.12919
3.11477
3.10016
3.08539
3.07042
3.05513
3.03921
3.11958
3.10686
3.09391
3.08076
3.06742
3.0539
3.04022
3.02639
3.01238
2.99808
2.98324
3.05875
3.04677
3.03458
3.0222
3.00965
2.99693
2.98407
2.97106
2.9579
2.94449
2.93062
3.00235
2.99102
2.9795
2.9678
2.95595
2.94394
2.9318
2.91953
2.90712
2.89448
2.88146
2.95042
2.93966
2.92873
2.91763
2.90639
2.89501
2.8835
2.87188
2.86012
2.84817
2.83589
2.90301
2.89275
2.88233
2.87176
2.86105
2.85022
2.83926
2.8282
2.81702
2.80566
2.79402
2.86017
2.85035
2.84038
2.83026
2.82002
2.80965
2.79918
2.78861
2.77792
2.76707
2.75598
2.82198
2.81253
2.80295
2.79323
2.78338
2.77342
2.76336
2.7532
2.74293
2.73251
2.72189
2.78854
2.77942
2.77016
2.76078
2.75127
2.74165
2.73193
2.72212
2.7122
2.70214
2.6919
2.76001
2.75116
2.74217
2.73307
2.72384
2.7145
2.70507
2.69553
2.6859
2.67612
2.66618
2.73657
2.72794
2.71918
2.71029
2.70129
2.69217
2.68295
2.67364
2.66422
2.65466
2.64495
2.71846
2.71
2.70142
2.6927
2.68386
2.67492
2.66586
2.6567
2.64743
2.63801
2.62845
2.70602
2.69769
2.68922
2.68062
2.6719
2.66306
2.6541
2.64503
2.63585
2.62651
2.61702
2.69965
2.6914
2.683
2.67446
2.66579
2.657
2.64808
2.63905
2.62988
2.62056
2.61107
)
;

boundaryField
{
    inlet
    {
        type            zeroGradient;
    }
    outlet
    {
        type            fixedValue;
        value           nonuniform 0();
    }
    cylinder
    {
        type            zeroGradient;
    }
    top
    {
        type            symmetryPlane;
    }
    bottom
    {
        type            symmetryPlane;
    }
    defaultFaces
    {
        type            empty;
    }
    procBoundary33to26
    {
        type            processor;
        value           nonuniform List<scalar> 9(6.61492 6.49902 6.35595 6.16473 5.99369 5.83267 5.67761 5.52724 5.38063);
    }
    procBoundary33to27
    {
        type            processor;
        value           nonuniform List<scalar> 
16
(
5.31422
5.55465
5.55465
5.89586
5.89586
6.25615
6.49932
5.00835
5.00835
4.78425
4.56535
4.39973
4.39973
4.22415
4.1457
4.1457
)
;
    }
    procBoundary33to28
    {
        type            processor;
        value           nonuniform List<scalar> 
15
(
4.03926
4.08457
4.10601
4.10934
4.09856
4.07646
4.04503
4.00573
3.95968
3.90781
3.85101
3.79013
3.72602
3.65952
3.59146
)
;
    }
    procBoundary33to32
    {
        type            processor;
        value           nonuniform List<scalar> 
33
(
5.23722
5.09686
4.95961
4.82561
4.695
4.56789
4.44439
4.32456
4.20847
4.09619
3.98779
3.88334
3.7829
3.68657
3.5944
3.50646
3.42281
3.34351
3.26859
3.1981
3.13207
3.07052
3.01348
2.96099
2.91309
2.86982
2.83126
2.79751
2.76871
2.74506
2.72678
2.71421
2.70777
)
;
    }
    procBoundary33to34
    {
        type            processor;
        value           nonuniform List<scalar> 
22
(
3.52259
3.45359
3.38508
3.31759
3.25157
3.18742
3.12546
3.06599
3.00923
2.9554
2.90465
2.85715
2.81303
2.77244
2.73549
2.70233
2.67312
2.64804
2.6273
2.61117
2.59997
2.5941
)
;
    }
}


// ************************************************************************* //
