/*--------------------------------*- C++ -*----------------------------------*\
  =========                 |
  \\      /  F ield         | OpenFOAM: The Open Source CFD Toolbox
   \\    /   O peration     | Website:  https://openfoam.org
    \\  /    A nd           | Version:  7
     \\/     M anipulation  |
\*---------------------------------------------------------------------------*/
FoamFile
{
    version     2.0;
    format      ascii;
    class       volVectorField;
    location    "7";
    object      U;
}
// * * * * * * * * * * * * * * * * * * * * * * * * * * * * * * * * * * * * * //

dimensions      [0 1 -1 0 0 0 0];

internalField   nonuniform List<vector> 
435
(
(0.838448 0.0163419 7.68361e-19)
(0.83474 0.0256606 2.87925e-18)
(0.884086 0.030599 -8.10236e-20)
(0.8797 0.0410317 2.98967e-18)
(0.928084 0.0473454 2.52057e-19)
(1.00196 0.0635818 1.26699e-18)
(0.960702 0.0454248 -1.51241e-19)
(0.917368 0.0294766 -8.75553e-19)
(0.872347 0.0160462 3.88937e-19)
(0.82604 0.00542613 -8.17992e-19)
(1.09177 0.0933978 -3.95082e-19)
(1.05612 0.0744659 3.64534e-19)
(1.01787 0.0570235 1.5032e-18)
(0.977291 0.0413816 -1.22838e-18)
(0.934735 0.0278494 -3.76562e-20)
(0.89054 0.0167064 -7.24911e-20)
(0.845055 0.00814977 2.60235e-19)
(0.798813 0.00220875 1.45242e-18)
(1.16514 0.118151 -1.39465e-18)
(1.13562 0.0991414 -5.29544e-19)
(1.10313 0.0809724 -2.62634e-18)
(1.06786 0.0639385 -6.90895e-19)
(1.03008 0.0483488 3.43349e-19)
(0.990081 0.0345052 -1.59001e-18)
(0.948206 0.0226633 -1.57585e-18)
(0.905012 0.0129665 1.16532e-18)
(0.861217 0.00532554 -1.0086e-18)
(0.814679 -0.000719737 3.53751e-19)
(1.22279 0.139236 1.91407e-18)
(1.19984 0.121138 -1.41336e-18)
(1.17383 0.103348 3.92873e-19)
(1.14485 0.0861167 2.83859e-19)
(1.11306 0.0697225 -7.67089e-19)
(1.07868 0.0544536 2.72441e-19)
(1.04197 0.0405856 1.87914e-18)
(1.00343 0.0283425 -2.95084e-19)
(0.96362 0.0178391 2.46471e-18)
(0.920557 0.00910693 5.3366e-19)
(0.871831 0.00240759 -8.93012e-19)
(1.26523 0.156203 -1.23511e-18)
(1.24878 0.139745 -6.90373e-19)
(1.22939 0.123176 2.98192e-18)
(1.20707 0.106688 8e-19)
(1.18186 0.0904997 -6.53631e-19)
(1.15388 0.0748556 1.27171e-18)
(1.12327 0.0600114 -1.25284e-18)
(1.09037 0.0462209 -1.64116e-18)
(1.05564 0.0337226 -1.06641e-18)
(1.0173 0.0228374 -5.82231e-19)
(0.97302 0.0144166 2.16614e-18)
(1.29354 0.168238 -1.39689e-18)
(1.28298 0.153827 2.1348e-18)
(1.26981 0.139027 -7.66913e-19)
(1.25394 0.123959 -1.05471e-18)
(1.23532 0.108777 2.51445e-18)
(1.21394 0.0936642 3.26178e-19)
(1.18986 0.0788308 4.2971e-19)
(1.16325 0.0645191 6.65636e-19)
(1.13446 0.0510139 1.13305e-18)
(1.10195 0.0387665 -1.08465e-19)
(1.06351 0.0289164 4.67238e-19)
(1.30968 0.175352 5.76538e-19)
(1.30411 0.163127 -5.25374e-19)
(1.29635 0.15037 2.38153e-19)
(1.28628 0.137139 -2.20074e-19)
(1.27376 0.123522 -4.97465e-19)
(1.25871 0.109636 -5.72746e-19)
(1.24107 0.0956323 -1.48461e-18)
(1.22092 0.0817083 1.88069e-18)
(1.19848 0.0681319 3.11082e-19)
(1.17242 0.0553627 4.79102e-19)
(1.14071 0.0445987 -2.44163e-18)
(1.31608 0.178017 4.81954e-20)
(1.31441 0.167891 -6.29726e-19)
(1.31103 0.1572 -1.28413e-18)
(1.30578 0.145955 -2.12062e-19)
(1.29851 0.134187 -9.19471e-19)
(1.28908 0.121953 1.14405e-19)
(1.27736 0.109342 1.76826e-18)
(1.26333 0.0964936 -2.99671e-19)
(1.24711 0.0836171 -9.92403e-19)
(1.22757 0.0711051 -1.42472e-18)
(1.20295 0.0600474 1.35811e-18)
(1.31514 0.176966 -4.16721e-19)
(1.3163 0.168698 7.67046e-19)
(1.31621 0.159911 5.47465e-19)
(1.31471 0.150582 -3.26521e-22)
(1.31163 0.140705 9.39019e-19)
(1.30683 0.130288 1.24667e-18)
(1.30014 0.119367 3.64144e-19)
(1.2915 0.10802 -5.33004e-19)
(1.28092 0.0963865 -1.21082e-18)
(1.26748 0.0847519 1.14078e-18)
(1.24972 0.0739962 8.52683e-19)
(1.30908 0.173061 -2.40947e-19)
(1.31211 0.166339 5.59173e-19)
(1.31429 0.159185 -1.53829e-18)
(1.31547 0.151561 2.91355e-19)
(1.31551 0.143436 -3.70345e-20)
(1.31426 0.134788 -1.1053e-18)
(1.31156 0.125614 -1.93915e-18)
(1.30731 0.115942 5.18183e-19)
(1.30148 0.105841 2.4688e-18)
(1.2933 0.0954844 -1.12975e-18)
(1.2817 0.0854997 -1.22531e-18)
(1.29968 0.167142 4.15271e-19)
(1.30383 0.161649 -7.01775e-20)
(1.30742 0.155822 7.92889e-19)
(1.31037 0.14962 1.2935e-18)
(1.31253 0.143004 -7.35999e-19)
(1.31379 0.135936 9.38712e-19)
(1.31402 0.12839 5.69727e-19)
(1.3131 0.120358 -2.11336e-18)
(1.31097 0.111854 -6.5983e-19)
(1.30703 0.102951 4.10103e-19)
(1.30056 0.0940282 2.48728e-19)
(1.28829 0.159933 -3.18613e-19)
(1.293 0.155386 -5.96368e-19)
(1.29737 0.150597 8.1372e-20)
(1.30134 0.145529 -5.21296e-19)
(1.30482 0.140142 3.13714e-20)
(1.30771 0.134396 -5.78147e-19)
(1.30991 0.128257 4.31479e-19)
(1.31131 0.121694 -2.76479e-19)
(1.31186 0.114685 -6.59393e-19)
(1.31109 0.107223 1.2805e-18)
(1.30857 0.0994733 -3.43346e-19)
(1.27588 0.151998 5.04833e-19)
(1.28075 0.148172 -6.20381e-20)
(1.28545 0.144177 -1.78226e-19)
(1.28992 0.139985 5.95393e-19)
(1.2941 0.135562 -4.08092e-19)
(1.29793 0.130873 -1.33184e-18)
(1.30132 0.125882 1.00336e-18)
(1.30421 0.120552 8.2662e-19)
(1.30652 0.114837 6.86537e-19)
(1.30794 0.108675 -1.99904e-18)
(1.30824 0.10207 4.43747e-19)
(1.26306 0.143744 1.53364e-19)
(1.26787 0.140468 2.27089e-19)
(1.27259 0.137079 2.3583e-19)
(1.2772 0.133555 -1.58796e-18)
(1.28166 0.129873 -3.10775e-19)
(1.28593 0.126003 9.52791e-19)
(1.28994 0.121915 -2.06403e-18)
(1.29366 0.11757 -1.10838e-19)
(1.29702 0.112913 -5.58e-19)
(1.29982 0.10785 1.27504e-18)
(1.30196 0.10227 1.46605e-19)
(1.25022 0.135442 -3.46724e-19)
(1.25482 0.132596 -3.72368e-19)
(1.25939 0.129674 -1.35796e-19)
(1.26392 0.126664 1.05975e-18)
(1.26839 0.123547 7.56268e-19)
(1.27276 0.120304 1.16164e-19)
(1.27701 0.116909 1.65384e-18)
(1.28109 0.113328 4.52523e-19)
(1.28499 0.109504 6.88066e-19)
(1.28854 0.105323 6.30481e-20)
(1.29175 0.100614 1.66335e-19)
(1.23757 0.127262 4.12391e-20)
(1.24189 0.124759 5.11148e-19)
(1.24622 0.122208 8.18452e-20)
(1.25055 0.119598 -4.31724e-19)
(1.25487 0.116919 -2.7025e-19)
(1.25915 0.114157 -6.21382e-19)
(1.26337 0.111292 -1.82613e-18)
(1.26753 0.108296 4.09803e-19)
(1.2716 0.105111 -1.22753e-18)
(1.27547 0.101622 1.21538e-19)
(1.27922 0.0976258 -1.34921e-18)
(1.22523 0.119298 1.39944e-19)
(1.22925 0.117082 -2.08087e-19)
(1.2333 0.114832 7.03196e-19)
(1.23736 0.112545 7.13629e-19)
(1.24144 0.110212 -4.22387e-19)
(1.24551 0.107825 2.06624e-19)
(1.24958 0.10537 3.84364e-19)
(1.25363 0.102821 -1.04044e-18)
(1.25765 0.100127 4.30077e-19)
(1.26157 0.0971734 1.41376e-19)
(1.26548 0.0937525 1.78874e-18)
(1.21325 0.111604 3.99864e-19)
(1.21697 0.109631 4.12557e-19)
(1.22072 0.107635 -7.89714e-19)
(1.2245 0.105614 -4.12036e-19)
(1.2283 0.103563 3.09147e-19)
(1.23212 0.101477 -5.03516e-19)
(1.23595 0.0993445 7.14321e-19)
(1.23979 0.0971447 4.16598e-19)
(1.24364 0.0948297 -4.02177e-19)
(1.24745 0.092294 -7.67114e-19)
(1.2513 0.0893383 -1.48309e-18)
(1.20167 0.104203 -2.34705e-19)
(1.20509 0.10244 -2.18589e-19)
(1.20855 0.100662 1.26585e-19)
(1.21204 0.0988671 2.37767e-19)
(1.21556 0.0970526 1.74884e-19)
(1.2191 0.0952143 7.83927e-19)
(1.22267 0.0933438 -8.40447e-19)
(1.22625 0.091423 5.53438e-19)
(1.22986 0.0894086 3.56946e-19)
(1.23347 0.0872046 -3.28215e-19)
(1.23714 0.0846297 1.84311e-19)
(1.19048 0.0971007 1.66083e-19)
(1.19363 0.095524 2.57399e-21)
(1.1968 0.0939365 -6.88138e-20)
(1.20001 0.0923373 -2.97709e-19)
(1.20325 0.0907248 -4.29641e-19)
(1.20651 0.089096 -2.97401e-19)
(1.20981 0.0874438 3.32567e-19)
(1.21313 0.0857525 -8.10057e-19)
(1.21648 0.083983 2.27081e-21)
(1.21984 0.0820495 1.24313e-18)
(1.22327 0.0797922 2.4152e-19)
(1.17969 0.0902974 2.82569e-19)
(1.18257 0.0888858 -2.30578e-19)
(1.18549 0.0874666 2.61977e-19)
(1.18843 0.0860392 -3.26932e-21)
(1.1914 0.0846025 2.06967e-19)
(1.1944 0.0831541 4.28651e-19)
(1.19742 0.0816882 5.02042e-19)
(1.20048 0.0801906 1.08084e-18)
(1.20356 0.0786263 2.43166e-19)
(1.20666 0.0769195 -7.01592e-19)
(1.20983 0.0749322 8.87666e-19)
(1.1693 0.0837866 -5.32097e-19)
(1.17194 0.0825225 1.30808e-19)
(1.1746 0.081253 -1.72129e-19)
(1.17729 0.0799778 1.70843e-19)
(1.18001 0.0786959 4.30991e-19)
(1.18276 0.0774054 -1.02166e-20)
(1.18553 0.0761012 -5.28966e-20)
(1.18832 0.0747705 -6.72896e-19)
(1.19114 0.073382 -4.80847e-19)
(1.194 0.0718696 -1.79791e-19)
(1.1969 0.0701156 -5.35217e-19)
(1.15932 0.0775601 3.36767e-19)
(1.16173 0.0764283 -1.08653e-19)
(1.16416 0.0752927 -2.452e-19)
(1.16662 0.074153 -1.16972e-19)
(1.1691 0.0730086 -3.43221e-19)
(1.1716 0.0718576 1.70608e-19)
(1.17413 0.0706954 5.54039e-20)
(1.17668 0.0695107 -6.3562e-20)
(1.17925 0.0682756 1.51756e-19)
(1.18186 0.0669327 -4.08662e-19)
(1.18451 0.0653829 -2.87923e-19)
(1.14975 0.0716085 -1.68686e-19)
(1.15194 0.0705958 1.00824e-19)
(1.15416 0.0695803 3.66301e-19)
(1.1564 0.0685619 3.9215e-19)
(1.15865 0.0675401 -2.68692e-19)
(1.16093 0.0665131 -3.02327e-19)
(1.16323 0.0654769 -5.85975e-20)
(1.16555 0.0644213 6.66893e-20)
(1.16789 0.0633214 -3.48349e-20)
(1.17026 0.0621282 6.06021e-19)
(1.17267 0.0607585 -8.73737e-20)
(1.14059 0.0659211 1.29955e-19)
(1.14259 0.0650157 -2.01619e-19)
(1.14461 0.0641084 -4.27747e-19)
(1.14664 0.063199 -2.18185e-19)
(1.14869 0.0622871 4.942e-19)
(1.15076 0.061371 1.28423e-19)
(1.15285 0.0604472 -1.76466e-19)
(1.15495 0.0595065 2.23791e-19)
(1.15707 0.0585271 1.34844e-19)
(1.15922 0.0574671 3.22204e-20)
(1.16139 0.0562573 8.08872e-20)
(1.13187 0.0604862 -1.17528e-19)
(1.13368 0.059678 2.53466e-19)
(1.13551 0.0588685 4.65426e-19)
(1.13736 0.0580574 1.36074e-19)
(1.13922 0.0572443 -1.92374e-19)
(1.14109 0.0564279 -2.05223e-19)
(1.14298 0.0556049 -8.95021e-20)
(1.14488 0.0547672 -1.49819e-19)
(1.1468 0.0538956 -2.63617e-19)
(1.14874 0.0529547 1.38093e-19)
(1.1507 0.0518874 2.18227e-19)
(1.12358 0.0552916 -8.78127e-20)
(1.12523 0.0545716 2.22713e-19)
(1.12689 0.0538506 -4.45413e-19)
(1.12856 0.0531285 1.70088e-19)
(1.13024 0.0524048 -1.21214e-19)
(1.13193 0.0516783 1.50721e-19)
(1.13364 0.050946 3.90952e-20)
(1.13536 0.050201 8.31358e-20)
(1.13708 0.0494265 1.40425e-19)
(1.13883 0.0485926 9.43224e-20)
(1.14059 0.0476527 -2.1493e-19)
(1.11575 0.050324 -1.18242e-19)
(1.11724 0.0496843 -6.82334e-20)
(1.11874 0.0490439 -9.8852e-20)
(1.12025 0.0484025 -4.48608e-19)
(1.12177 0.0477598 1.73619e-19)
(1.1233 0.0471148 7.82701e-20)
(1.12483 0.0464647 2.6468e-20)
(1.12638 0.0458035 -3.40732e-19)
(1.12793 0.0451167 2.58906e-19)
(1.1295 0.0443794 -1.3666e-19)
(1.13108 0.0435536 3.26202e-19)
(1.10838 0.0455692 1.94278e-21)
(1.10973 0.0450029 -1.87875e-19)
(1.11109 0.0444359 1.50976e-19)
(1.11245 0.0438682 1.20019e-19)
(1.11382 0.0432993 4.24159e-20)
(1.1152 0.0427284 -3.35609e-19)
(1.11658 0.0421531 2.81815e-19)
(1.11796 0.041568 1.24642e-20)
(1.11936 0.0409609 -3.39371e-19)
(1.12076 0.0403109 -1.66452e-19)
(1.12217 0.0395876 -2.37886e-19)
(1.10149 0.041012 -1.39316e-19)
(1.10272 0.040513 1.11602e-19)
(1.10394 0.0400134 -8.13481e-20)
(1.10517 0.0395131 1.0491e-19)
(1.10641 0.0390117 9.64232e-20)
(1.10764 0.0385085 4.56287e-21)
(1.10888 0.0380014 2.10625e-19)
(1.11013 0.0374859 6.95578e-20)
(1.11137 0.0369514 -4.52577e-20)
(1.11262 0.0363809 2.39202e-19)
(1.11388 0.0357498 4.8681e-20)
(1.0951 0.036636 4.24932e-20)
(1.09621 0.036199 -1.22173e-19)
(1.09732 0.0357614 6.07742e-20)
(1.09843 0.0353231 -5.35719e-20)
(1.09954 0.0348838 -1.92874e-19)
(1.10065 0.0344428 1.48708e-19)
(1.10176 0.0339984 -7.34436e-20)
(1.10287 0.0335467 3.0065e-19)
(1.10398 0.0330787 1.68563e-19)
(1.1051 0.0325806 1.18932e-19)
(1.10622 0.032033 -1.84061e-19)
(1.08922 0.0324238 -2.0221e-19)
(1.09023 0.0320441 3.05185e-19)
(1.09123 0.0316639 6.74616e-20)
(1.09223 0.0312829 -3.60491e-20)
(1.09323 0.030901 -5.32789e-21)
(1.09423 0.0305174 1.30806e-19)
(1.09523 0.0301308 -4.18604e-20)
(1.09622 0.0297379 -1.95068e-19)
(1.09721 0.0293312 -1.5191e-19)
(1.09821 0.0288996 -3.98137e-19)
(1.0992 0.0284277 -2.4146e-20)
(1.08387 0.0283566 2.72444e-19)
(1.08478 0.0280303 -1.0566e-19)
(1.08569 0.0277033 -1.20037e-19)
(1.0866 0.0273756 1.89171e-19)
(1.0875 0.027047 -8.87116e-20)
(1.0884 0.0267168 4.35014e-20)
(1.08929 0.0263839 -1.39956e-19)
(1.09019 0.0260455 -5.98734e-20)
(1.09107 0.0256956 2.91461e-19)
(1.09196 0.0253251 3.94771e-19)
(1.09285 0.0249222 1.43295e-19)
(1.07907 0.0244142 -9.30605e-20)
(1.0799 0.0241377 -2.47265e-20)
(1.08073 0.0238605 -1.48853e-19)
(1.08155 0.0235825 -1.31828e-19)
(1.08236 0.0233036 -3.14492e-20)
(1.08318 0.0230233 1.26485e-19)
(1.08398 0.0227406 3.047e-20)
(1.08478 0.0224532 8.80079e-21)
(1.08558 0.0221562 -1.22044e-19)
(1.08637 0.0218425 -1.80673e-19)
(1.08716 0.0215029 -2.62231e-20)
(1.07484 0.020574 1.33788e-19)
(1.0756 0.0203444 -1.01032e-19)
(1.07636 0.020114 1.56018e-19)
(1.0771 0.0198829 1.51479e-20)
(1.07785 0.0196509 7.40381e-21)
(1.07858 0.0194175 -5.56661e-20)
(1.07931 0.019182 7.90409e-20)
(1.08004 0.0189427 -4.69116e-20)
(1.08075 0.0186953 2.6307e-20)
(1.08146 0.0184347 -1.01837e-19)
(1.08217 0.0181536 1.19385e-19)
(1.07121 0.0168112 -4.84135e-20)
(1.07191 0.016626 4.06637e-20)
(1.0726 0.0164401 -5.32195e-20)
(1.07329 0.0162535 -5.66158e-20)
(1.07397 0.016066 2.37275e-19)
(1.07464 0.0158773 -1.0827e-19)
(1.07531 0.0156868 9.16e-20)
(1.07597 0.015493 -1.87374e-19)
(1.07662 0.0152928 -7.66063e-20)
(1.07726 0.0150822 9.16375e-20)
(1.0779 0.0148558 -1.00637e-19)
(1.0682 0.0130979 1.38015e-19)
(1.06885 0.0129553 -2.51477e-19)
(1.0695 0.012812 1.69019e-19)
(1.07014 0.012668 -1.57643e-19)
(1.07077 0.0125232 3.54228e-21)
(1.07139 0.0123774 5.11925e-20)
(1.072 0.01223 1.87065e-20)
(1.07261 0.01208 9.66657e-22)
(1.0732 0.011925 1.34433e-19)
(1.07379 0.0117623 -2.56197e-20)
(1.07438 0.0115877 -1.37526e-20)
(1.06586 0.00940304 -7.59073e-20)
(1.06647 0.00930177 -2.54396e-20)
(1.06708 0.00919994 2.47961e-19)
(1.06768 0.00909749 -1.04564e-19)
(1.06827 0.00899431 5.01195e-20)
(1.06886 0.00889023 -3.14592e-20)
(1.06943 0.00878492 1.32122e-19)
(1.07 0.00867764 -6.94308e-20)
(1.07055 0.00856681 2.50187e-20)
(1.0711 0.00845042 -2.4436e-20)
(1.07164 0.00832571 4.37057e-20)
(1.06422 0.00568855 2.1484e-19)
(1.06481 0.00562757 5.45139e-20)
(1.0654 0.00556618 -9.06446e-20)
(1.06597 0.00550434 -7.86948e-20)
(1.06654 0.00544197 -3.68698e-21)
(1.06709 0.00537898 -2.44566e-20)
(1.06764 0.00531516 -1.43044e-20)
(1.06818 0.00525008 5.29869e-20)
(1.06871 0.00518283 1.77677e-21)
(1.06923 0.00511225 -3.16464e-20)
(1.06975 0.00503671 -3.75403e-20)
(1.06335 0.00191729 2.09588e-19)
(1.06393 0.00189748 -5.77672e-20)
(1.0645 0.00187735 -4.4147e-20)
(1.06506 0.00185686 -6.42972e-20)
(1.06562 0.00183599 -2.68478e-20)
(1.06616 0.00181468 -7.31782e-21)
(1.0667 0.00179286 4.20603e-20)
(1.06722 0.00177038 5.94142e-20)
(1.06774 0.00174695 -5.21914e-20)
(1.06825 0.00172224 9.69499e-21)
(1.06876 0.00169584 3.55566e-20)
)
;

boundaryField
{
    inlet
    {
        type            uniformFixedValue;
        uniformValue    constant (1 0 0);
        value           nonuniform 0();
    }
    outlet
    {
        type            pressureInletOutletVelocity;
        value           nonuniform 0();
    }
    cylinder
    {
        type            fixedValue;
        value           nonuniform 0();
    }
    top
    {
        type            symmetryPlane;
    }
    bottom
    {
        type            symmetryPlane;
    }
    defaultFaces
    {
        type            empty;
    }
    procBoundary33to26
    {
        type            processor;
        value           nonuniform List<vector> 9((0.922936 0.0587394 2.23896e-18) (0.970057 0.0663043 -3.57036e-19) (1.04079 0.0836351 5.23017e-19) (1.12456 0.113522 7.69492e-19) (1.19156 0.137733 -1.81049e-18) (1.24264 0.157422 1.7053e-18) (1.27882 0.172394 -1.02742e-18) (1.3016 0.182168 -5.74839e-19) (1.31324 0.187009 8.15253e-19));
    }
    procBoundary33to27
    {
        type            processor;
        value           nonuniform List<vector> 
16
(
(0.74382 -0.0036534 2.36423e-20)
(0.791567 0.0048416 6.19848e-19)
(0.791567 0.0048416 6.19848e-19)
(0.788441 0.0128576 4.03829e-19)
(0.788441 0.0128576 4.03829e-19)
(0.785597 0.0209733 -3.62389e-18)
(0.831068 0.0349867 2.01502e-18)
(0.778831 -0.00212892 -6.81271e-19)
(0.778831 -0.00212892 -6.81271e-19)
(0.73105 -0.00644302 -1.10467e-19)
(0.683092 -0.0074863 2.40215e-18)
(0.752645 -0.00142408 9.08017e-19)
(0.752645 -0.00142408 9.08017e-19)
(0.704337 -0.00384638 1.61366e-18)
(0.762919 -0.00591597 -5.7837e-20)
(0.762919 -0.00591597 -5.7837e-20)
)
;
    }
    procBoundary33to28
    {
        type            processor;
        value           nonuniform List<vector> 
15
(
(0.831578 -0.00304465 0)
(0.93606 0.00835966 0)
(1.03103 0.0216684 0)
(1.11353 0.0360037 0)
(1.18147 0.0502633 0)
(1.23391 0.063379 0)
(1.27114 0.074491 0)
(1.29451 0.0830603 0)
(1.30614 0.088903 0)
(1.30851 0.0921458 0)
(1.30407 0.0931324 0)
(1.29502 0.0923131 0)
(1.2831 0.0901501 0)
(1.26962 0.0870534 0)
(1.25545 0.0833512 0)
)
;
    }
    procBoundary33to32
    {
        type            processor;
        value           nonuniform List<vector> 
33
(
(1.31621 0.187586 1.05559e-18)
(1.31289 0.184746 -1.51051e-18)
(1.30531 0.179391 4.87017e-19)
(1.29507 0.172342 2.1981e-19)
(1.28333 0.16427 -2.28127e-19)
(1.27087 0.155681 -4.69672e-20)
(1.2582 0.146924 -1.37837e-19)
(1.24561 0.138225 1.26394e-19)
(1.23325 0.129721 1.48825e-20)
(1.22123 0.121486 -9.02985e-20)
(1.20956 0.113558 2.8429e-19)
(1.19827 0.105951 -1.67887e-19)
(1.18736 0.0986671 4.28607e-19)
(1.17684 0.0917017 -6.14586e-20)
(1.16669 0.0850454 1.45674e-19)
(1.15694 0.078688 -2.13751e-19)
(1.14758 0.0726185 -4.67585e-19)
(1.13862 0.0668245 2.51232e-19)
(1.13007 0.061293 -5.3358e-20)
(1.12195 0.0560106 5.26571e-20)
(1.11427 0.0509629 -2.06064e-19)
(1.10704 0.0461348 1.11517e-19)
(1.10028 0.0415104 -5.25165e-20)
(1.094 0.0370724 1.51232e-20)
(1.08822 0.0328028 -1.61116e-19)
(1.08296 0.0286824 2.33672e-19)
(1.07824 0.0246901 -1.51004e-20)
(1.07408 0.020803 3.07311e-21)
(1.0705 0.0169957 -2.55161e-20)
(1.06754 0.01324 4.35451e-20)
(1.06523 0.00950378 1.65477e-20)
(1.06363 0.00574914 2.76147e-19)
(1.06277 0.00193682 6.14206e-20)
)
;
    }
    procBoundary33to34
    {
        type            processor;
        value           nonuniform List<vector> 
22
(
(1.24117 0.0792861 0)
(1.22709 0.0750267 0)
(1.21342 0.0706855 0)
(1.20023 0.0663348 0)
(1.18758 0.062021 0)
(1.1755 0.0577739 0)
(1.164 0.0536126 0)
(1.15308 0.0495493 0)
(1.14276 0.0455913 0)
(1.13305 0.0417421 0)
(1.12397 0.0380019 0)
(1.11551 0.0343685 0)
(1.1077 0.0308369 0)
(1.10055 0.0273997 0)
(1.09407 0.0240476 0)
(1.08828 0.0207686 0)
(1.0832 0.0175487 0)
(1.07885 0.0143712 0)
(1.07527 0.0112161 0)
(1.07248 0.00806218 0)
(1.07056 0.00487855 0)
(1.06955 0.00164195 0)
)
;
    }
}


// ************************************************************************* //
