/*--------------------------------*- C++ -*----------------------------------*\
  =========                 |
  \\      /  F ield         | OpenFOAM: The Open Source CFD Toolbox
   \\    /   O peration     | Website:  https://openfoam.org
    \\  /    A nd           | Version:  7
     \\/     M anipulation  |
\*---------------------------------------------------------------------------*/
FoamFile
{
    version     2.0;
    format      ascii;
    class       volScalarField;
    location    "20";
    object      p;
}
// * * * * * * * * * * * * * * * * * * * * * * * * * * * * * * * * * * * * * //

dimensions      [0 2 -2 0 0 0 0];

internalField   nonuniform List<scalar> 
433
(
-0.0979609
-0.0886204
-0.0798072
-0.0715287
-0.0637888
-0.0565793
-0.0988306
-0.089426
-0.0805473
-0.0722035
-0.0643995
-0.0571286
-0.0503896
-0.0441565
-0.038437
-0.0331681
-0.0284061
-0.0239902
-0.0201345
-0.0164051
-0.0134701
-0.0101428
-0.00833051
-0.00483372
-0.00481799
0.000115889
-0.00344365
0.00570449
-0.0896171
-0.0807327
-0.0723834
-0.0645735
-0.0572971
-0.0505514
-0.0443134
-0.0385859
-0.0333143
-0.0285409
-0.0241283
-0.0202525
-0.0165412
-0.0135646
-0.0102893
-0.00838512
-0.00501588
-0.00479739
-0.000153351
-0.0032637
0.00528046
-0.0896213
-0.0808092
-0.0725165
-0.0647495
-0.057505
-0.0507809
-0.0445577
-0.0388363
-0.0335691
-0.0287895
-0.0243779
-0.0204829
-0.016779
-0.0137621
-0.0105192
-0.00852986
-0.00525807
-0.0048512
-0.000460825
-0.00313363
0.00476809
-0.0893695
-0.0806727
-0.0724746
-0.0647838
-0.0575999
-0.0509222
-0.0447346
-0.0390374
-0.0337888
-0.029016
-0.0246137
-0.0207096
-0.0170154
-0.0139681
-0.0107523
-0.00869209
-0.00550086
-0.0049309
-0.000759403
-0.00304022
0.00425705
-0.0890184
-0.0804546
-0.0723667
-0.0647658
-0.0576545
-0.0510336
-0.0448904
-0.0392248
-0.0340007
-0.02924
-0.0248507
-0.020941
-0.0172584
-0.0141831
-0.0109949
-0.00886503
-0.00575412
-0.00502039
-0.00107004
-0.00295132
0.00373152
-0.0885755
-0.0801648
-0.0722045
-0.0647083
-0.0576819
-0.051128
-0.0450375
-0.0394104
-0.0342161
-0.0294717
-0.025098
-0.0211853
-0.0175149
-0.0144132
-0.0112514
-0.00905306
-0.00602024
-0.00512243
-0.00139306
-0.00286839
0.00319437
-0.0880107
-0.0797783
-0.0719672
-0.0645943
-0.0576684
-0.0511948
-0.0451677
-0.0395879
-0.0344301
-0.0297078
-0.0253534
-0.0214413
-0.0177839
-0.0146584
-0.0115212
-0.00925716
-0.00629784
-0.00523925
-0.00172476
-0.00279647
0.00265304
-0.0873025
-0.0792757
-0.0716377
-0.0644088
-0.0576012
-0.0512229
-0.0452717
-0.0397496
-0.0346365
-0.0299431
-0.0256126
-0.0217056
-0.0180627
-0.0149169
-0.0118025
-0.00947631
-0.00658527
-0.00537086
-0.00206241
-0.00273787
0.0021148
-0.0864346
-0.0786419
-0.0712023
-0.0641395
-0.0574693
-0.0512027
-0.0453411
-0.0398884
-0.0348292
-0.0301726
-0.0258714
-0.0219748
-0.0183485
-0.0151861
-0.0120933
-0.009709
-0.00688088
-0.00551661
-0.00240354
-0.00269386
0.00158695
-0.0853916
-0.0778622
-0.0706473
-0.0637739
-0.0572614
-0.0511241
-0.0453672
-0.0399965
-0.0350017
-0.0303907
-0.0261251
-0.0222448
-0.018638
-0.0154634
-0.0123913
-0.00995336
-0.00718275
-0.00567552
-0.00274536
-0.00266551
0.00107713
-0.0841606
-0.0769236
-0.0699598
-0.0632996
-0.056966
-0.0509766
-0.0453404
-0.0400656
-0.0351465
-0.0305908
-0.0263683
-0.0225109
-0.0189272
-0.0157453
-0.0126937
-0.010207
-0.00748852
-0.00584621
-0.00308476
-0.00265355
0.000593031
-0.0827326
-0.0758157
-0.0691287
-0.0627054
-0.0565722
-0.0507497
-0.045251
-0.0400868
-0.0352556
-0.0307659
-0.0265947
-0.0227677
-0.0192115
-0.0160278
-0.012997
-0.0104669
-0.00779546
-0.00602687
-0.00341841
-0.00265826
0.000142
-0.0811035
-0.0745318
-0.0681459
-0.0619822
-0.0560703
-0.050434
-0.0450897
-0.0400512
-0.035321
-0.0309086
-0.0267977
-0.0230093
-0.0194857
-0.0163063
-0.0132975
-0.0107298
-0.0081005
-0.00621526
-0.00374286
-0.00267933
-0.000269403
-0.0792746
-0.0730701
-0.0670068
-0.0611236
-0.0554528
-0.0500211
-0.0448483
-0.0399506
-0.0353348
-0.0310114
-0.0269705
-0.0232293
-0.0197445
-0.0165759
-0.0135908
-0.0109918
-0.00840031
-0.00640879
-0.00405464
-0.00271591
-0.000635812
-0.0772531
-0.071433
-0.0657106
-0.0601264
-0.0547147
-0.0495049
-0.0445196
-0.0397776
-0.0352895
-0.0310672
-0.0271064
-0.0234217
-0.0199822
-0.0168314
-0.0138725
-0.0112488
-0.00869135
-0.00660461
-0.00435037
-0.00276654
-0.000953442
-0.0750507
-0.0696278
-0.0642606
-0.0589905
-0.0538537
-0.0488813
-0.0440985
-0.0395264
-0.0351789
-0.0310696
-0.0271991
-0.0235803
-0.0201932
-0.0170676
-0.014138
-0.0114968
-0.00897004
-0.00679967
-0.00462694
-0.00282919
-0.00122041
-0.0726838
-0.0676657
-0.0626637
-0.0577196
-0.0528703
-0.0481486
-0.0435816
-0.0391924
-0.0349978
-0.0310129
-0.027243
-0.0236995
-0.0203722
-0.0172796
-0.014383
-0.0117316
-0.00923282
-0.00699085
-0.00488166
-0.00290135
-0.00143681
-0.0701716
-0.0655611
-0.0609301
-0.0563199
-0.0517679
-0.0473077
-0.0429678
-0.038773
-0.0347426
-0.0308929
-0.0272334
-0.0237745
-0.0205145
-0.0174626
-0.0146031
-0.0119493
-0.00947633
-0.00717504
-0.00511239
-0.00298027
-0.00160454
-0.0675354
-0.0633307
-0.0590722
-0.0548004
-0.0505523
-0.0463616
-0.0422581
-0.0382675
-0.0344111
-0.0307065
-0.0271666
-0.0238013
-0.0206159
-0.0176126
-0.0147945
-0.0121461
-0.00969755
-0.00734923
-0.00531764
-0.00306304
-0.0017272
-0.0647974
-0.0609926
-0.0571046
-0.053172
-0.0492312
-0.0453156
-0.0414553
-0.0376767
-0.0340028
-0.030452
-0.0270401
-0.0237767
-0.0206732
-0.0177261
-0.0149541
-0.0123188
-0.00989387
-0.00751064
-0.00549655
-0.00314674
-0.00180979
-0.0619802
-0.0585661
-0.0550428
-0.0514472
-0.0478142
-0.0441764
)
;

boundaryField
{
    inlet
    {
        type            zeroGradient;
    }
    outlet
    {
        type            fixedValue;
        value           uniform 0;
    }
    cylinder
    {
        type            zeroGradient;
    }
    top
    {
        type            symmetryPlane;
    }
    bottom
    {
        type            symmetryPlane;
    }
    defaultFaces
    {
        type            empty;
    }
    procBoundary29to23
    {
        type            processor;
        value           nonuniform List<scalar> 
23
(
-0.0969102
-0.0876579
-0.078932
-0.0707383
-0.0630796
-0.0559468
-0.049899
-0.049899
-0.0437202
-0.0380522
-0.0328285
-0.0281109
-0.0237294
-0.0199137
-0.0162047
-0.013312
-0.00998245
-0.00823035
-0.00468752
-0.00478591
0.000290697
-0.00352624
0.00598988
)
;
    }
    procBoundary29to28
    {
        type            processor;
        value           nonuniform List<scalar> 
20
(
-0.107812
-0.108743
-0.0990274
-0.0990274
-0.0989411
-0.0985503
-0.0980405
-0.0974158
-0.0966405
-0.0956909
-0.0945495
-0.093201
-0.0916331
-0.089839
-0.0878179
-0.0855759
-0.0831251
-0.0804833
-0.0776725
-0.0747172
)
;
    }
    procBoundary29to34
    {
        type            processor;
        value           nonuniform List<scalar> 3(-0.0716437 -0.0684785 -0.0652478);
    }
    procBoundary29to35
    {
        type            processor;
        value           nonuniform List<scalar> 
22
(
-0.0405639
-0.0370034
-0.0335187
-0.0301291
-0.0268526
-0.0236988
-0.0206839
-0.0178004
-0.0150789
-0.0124647
-0.0100632
-0.00765674
-0.00564897
-0.00322858
-0.00185829
-0.0591062
-0.0560702
-0.0529032
-0.0496394
-0.046312
-0.0405639
-0.0429523
)
;
    }
}


// ************************************************************************* //
