/*--------------------------------*- C++ -*----------------------------------*\
  =========                 |
  \\      /  F ield         | OpenFOAM: The Open Source CFD Toolbox
   \\    /   O peration     | Website:  https://openfoam.org
    \\  /    A nd           | Version:  7
     \\/     M anipulation  |
\*---------------------------------------------------------------------------*/
FoamFile
{
    version     2.0;
    format      ascii;
    class       surfaceScalarField;
    location    "20";
    object      phi;
}
// * * * * * * * * * * * * * * * * * * * * * * * * * * * * * * * * * * * * * //

dimensions      [0 3 -1 0 0 0 0];

internalField   nonuniform List<scalar> 
822
(
0.00149439
-0.00109085
0.00152839
-0.00110543
0.00156436
-0.00111611
0.00160216
-0.00112313
0.0016416
-0.00112678
-0.00112727
0.0015328
0.00156466
-0.00113729
0.00159871
-0.00115016
0.00163478
-0.0011592
0.0016727
-0.0011647
0.00171232
-0.00116689
0.00175351
-0.00116616
0.00179614
-0.0011626
0.00184013
-0.00115684
0.00188535
-0.00114851
0.00193178
-0.00113915
0.00197927
-0.00112668
0.00202795
-0.00111584
0.00207753
-0.00109879
0.00212845
-0.00109066
0.00217998
-0.00106523
0.00223343
-0.00106994
0.00228678
-0.00102334
0.00234347
-0.00106505
0.00239856
-0.000967695
0.00245938
-0.0010833
-0.000937979
0.00356855
-0.00116085
0.00359513
-0.00117673
0.0036245
-0.00118857
0.00365645
-0.00119665
0.00369076
-0.0012012
0.0037272
-0.0012026
0.00376557
-0.00120097
0.00380566
-0.00119693
0.00384732
-0.00119016
0.00389033
-0.00118216
0.00393461
-0.00117096
0.00397992
-0.00116115
0.0040263
-0.00114517
0.00407348
-0.00113783
0.00412161
-0.00111336
0.00417044
-0.00111877
0.00422011
-0.00107301
0.00427069
-0.00111564
0.00432205
-0.00101905
0.00437433
-0.00113557
-0.000991771
0.00399416
-0.00117377
0.00401052
-0.0011931
0.0040301
-0.00120815
0.00405265
-0.0012192
0.00407795
-0.0012265
0.00410574
-0.0012304
0.00413583
-0.00123106
0.00416798
-0.00122908
0.00420202
-0.0012242
0.00423771
-0.00121785
0.004275
-0.00120824
0.00431357
-0.00119972
0.00435355
-0.00118516
0.00439449
-0.00117876
0.00443684
-0.00115571
0.0044798
-0.00116174
0.00452444
-0.00111765
0.00456927
-0.00116047
0.00461667
-0.00106645
0.00466288
-0.00118178
-0.00104236
0.0044604
-0.00117485
0.0044654
-0.00119809
0.00447406
-0.00121681
0.00448613
-0.00123127
0.00450137
-0.00124173
0.0045195
-0.00124854
0.00454032
-0.00125188
0.00456357
-0.00125233
0.00458906
-0.0012497
0.00461656
-0.00124535
0.00464597
-0.00123766
0.00467699
-0.00123074
0.00470974
-0.00121791
0.0047437
-0.00121273
0.00477942
-0.00119144
0.00481592
-0.00119824
0.00485459
-0.00115632
0.0048933
-0.00119917
0.00493554
-0.00110869
0.00497578
-0.00122202
-0.00108861
0.00496605
-0.00116321
0.00495878
-0.00119082
0.00495563
-0.00121366
0.00495632
-0.00123197
0.00496061
-0.00124601
0.00496822
-0.00125614
0.00497891
-0.00126257
0.00499242
-0.00126584
0.00500856
-0.00126584
0.00502706
-0.00126385
0.00504783
-0.00125843
0.00507054
-0.00125345
0.00509531
-0.00124268
0.00512158
-0.001239
0.00514997
-0.00121982
0.00517932
-0.00122758
0.00521133
-0.00118833
0.00524325
-0.00123109
0.00527969
-0.00114513
0.00531331
-0.00125564
-0.00112987
0.00550866
-0.0011383
0.00548854
-0.00117071
0.00547297
-0.00119808
0.00546166
-0.00122066
0.00545435
-0.00123871
0.00545077
-0.00125257
0.00545068
-0.00126247
0.0054538
-0.00126896
0.00545993
-0.00127197
0.00546878
-0.0012727
0.00548027
-0.00126991
0.00549403
-0.00126721
0.00551019
-0.00125884
0.00552816
-0.00125697
0.00554859
-0.00124026
0.00557018
-0.00124918
0.00559493
-0.00121308
0.00561947
-0.00125563
0.00564949
-0.00117515
0.00567592
-0.00128207
-0.00116551
0.00608439
-0.00110009
0.00605129
-0.00113762
0.00602308
-0.00116986
0.00599948
-0.00119706
0.00598026
-0.00121948
0.00596513
-0.00123744
0.00595386
-0.0012512
0.00594616
-0.00126126
0.00594183
-0.00126764
0.00594059
-0.00127146
0.00594232
-0.00127164
0.00594667
-0.00127155
0.00595374
-0.00126591
0.00596292
-0.00126616
0.0059749
-0.00125224
0.00598825
-0.00126253
0.00600523
-0.00123007
0.0060219
-0.0012723
0.00604497
-0.00119823
0.00606374
-0.00130084
-0.00119496
0.00668806
-0.00104909
0.00664235
-0.00109191
0.00660175
-0.00112925
0.00656602
-0.00116134
0.00653493
-0.0011884
0.00650824
-0.00121076
0.00648571
-0.00122867
0.00646708
-0.00124263
0.00645213
-0.00125269
0.00644058
-0.00125992
0.00643232
-0.00126338
0.00642698
-0.00126621
0.00642467
-0.0012636
0.00642476
-0.00126625
0.00642797
-0.00125545
0.00643274
-0.00126729
0.00644158
-0.00123891
0.00645002
-0.00128074
0.00646572
-0.00121393
0.00647648
-0.0013116
-0.0012177
0.0073132
-0.000986411
0.00725582
-0.00103453
0.0072036
-0.00107703
0.00715636
-0.0011141
0.00711392
-0.00114596
0.00707606
-0.0011729
0.00704258
-0.00119518
0.00701322
-0.00121327
0.00698779
-0.00122727
0.00696603
-0.00123816
0.00694781
-0.00124516
0.00693278
-0.00125118
0.00692104
-0.00125186
0.00691194
-0.00125715
0.00690625
-0.00124975
0.00690228
-0.00126332
0.00690278
-0.00123942
0.0069028
-0.00128075
0.00691083
-0.00122196
0.00691339
-0.00131415
-0.00123334
0.00795234
-0.000913796
0.00788479
-0.000966978
0.00782226
-0.00101449
0.00776464
-0.00105648
0.00771182
-0.00109313
0.00766363
-0.00112471
0.0076199
-0.00115145
0.00758042
-0.0011738
0.00754502
-0.00119187
0.00751346
-0.0012066
0.00748562
-0.00121732
0.00746117
-0.00122673
0.0074402
-0.0012309
0.00742208
-0.00123902
0.00740757
-0.00123525
0.00739493
-0.00125068
0.0073871
-0.00123158
0.00737868
-0.00127234
0.00737892
-0.0012222
0.00737326
-0.00130848
-0.00124159
0.00859737
-0.000833505
0.00852168
-0.000891291
0.00845065
-0.000943463
0.00838427
-0.000990107
0.0083225
-0.00103136
0.00826524
-0.00106745
0.00821239
-0.00109859
0.00816378
-0.00112519
0.00811927
-0.00114737
0.00807867
-0.001166
0.00804188
-0.00118052
0.00800858
-0.00119343
0.00797888
-0.0012012
0.00795215
-0.00121229
0.0079292
-0.00121229
0.00790818
-0.00122966
0.00789222
-0.00121563
0.00787559
-0.00125571
0.00786808
-0.00121469
0.00785438
-0.00129478
-0.00124233
0.0092401
-0.000748189
0.00915871
-0.000809896
0.0090814
-0.000866156
0.00900828
-0.000916988
0.0089394
-0.000962475
0.00887474
-0.00100279
0.00881425
-0.00103811
0.00875786
-0.0010688
0.00870548
-0.00109498
0.00865693
-0.00111745
0.00861216
-0.00113575
0.00857089
-0.00115216
0.00853326
-0.00116357
0.00849862
-0.00117765
0.00846782
-0.0011815
0.00843897
-0.00120081
0.00841534
-0.00119199
0.00839094
-0.00123131
0.00837593
-0.00119968
0.00835459
-0.00127344
-0.0012356
0.00987292
-0.000660678
0.00978847
-0.000725448
0.00970736
-0.000785049
0.0096298
-0.000839429
0.00955593
-0.000888604
0.00948583
-0.000932688
0.00941953
-0.000971812
0.00935702
-0.00100628
0.00929827
-0.00103622
0.00924317
-0.00106235
0.0091917
-0.00108428
0.00914363
-0.00110409
0.0090991
-0.00111904
0.00905751
-0.00113606
0.00901973
-0.00114372
0.00898385
-0.00116493
0.00895322
-0.00116136
0.00892172
-0.00119981
0.00889966
-0.00117762
0.00887127
-0.00124506
-0.00122163
0.0104893
-0.000573747
0.0104045
-0.000640615
0.0103221
-0.000702689
0.0102426
-0.000759842
0.010166
-0.000812025
0.0100926
-0.000859284
0.0100225
-0.000901701
0.0099557
-0.000939523
0.00989232
-0.000972847
0.00983229
-0.00100232
0.00977562
-0.00102761
0.00972212
-0.00105059
0.00967199
-0.0010689
0.00962463
-0.0010887
0.00958096
-0.00110006
0.00953906
-0.00112302
0.00950231
-0.00112461
0.00946459
-0.00116209
0.00943612
-0.00114916
0.0094015
-0.00121043
-0.00120082
0.0110846
-0.000489879
0.0110018
-0.000557853
0.0109206
-0.000621479
0.0108414
-0.000680563
0.0107643
-0.000734988
0.0106898
-0.000784737
0.0106179
-0.000829833
0.0105488
-0.000870462
0.0104827
-0.000906693
0.0104195
-0.000939085
0.0103592
-0.000967375
0.0103018
-0.000993218
0.0102476
-0.00101461
0.0101958
-0.00103694
0.0101475
-0.00105175
0.0101007
-0.00107628
0.0100589
-0.0010828
0.010016
-0.00111921
0.00998201
-0.00111512
0.0099421
-0.00117052
-0.00117379
0.011656
-0.000411074
0.0115774
-0.000479214
0.0114994
-0.000543495
0.0114225
-0.000603665
0.0113471
-0.000659545
0.0112734
-0.000711056
0.0112017
-0.000758165
0.0111323
-0.000800997
0.0110652
-0.000839588
0.0110005
-0.000874412
0.0109384
-0.000905254
0.0108787
-0.000933558
0.0108218
-0.000957659
0.010767
-0.000982201
0.0107154
-0.00100016
0.0106651
-0.00102599
0.0106195
-0.0010371
0.0105726
-0.00107236
0.010534
-0.00107647
0.0104898
-0.00112641
-0.00114128
0.0122031
-0.000338731
0.0121301
-0.000406213
0.012057
-0.000470341
0.0119841
-0.000530811
0.011912
-0.000587396
0.0118409
-0.000639957
0.0117711
-0.000688414
0.011703
-0.000732828
0.0116366
-0.000773204
0.0115721
-0.000809932
0.0115097
-0.000842838
0.0114493
-0.000873159
0.0113912
-0.000899555
0.0113349
-0.000925934
0.0112814
-0.000946656
0.0112289
-0.000973509
0.0111806
-0.000988756
0.011131
-0.00102278
0.0110888
-0.00103426
0.0110416
-0.00107924
-0.00110419
0.0127274
-0.000273621
0.012661
-0.000339778
0.0125937
-0.000403073
0.0125261
-0.000463168
0.0124585
-0.00051979
0.0123913
-0.000572756
0.0123248
-0.000621938
0.0122593
-0.000667344
0.0121951
-0.000708946
0.0121322
-0.000747053
0.0120709
-0.000781528
0.0120111
-0.000813407
0.0119532
-0.000841657
0.0118968
-0.000869477
0.0118426
-0.000892533
0.0117892
-0.000920106
0.0117394
-0.000938955
0.0116884
-0.000971707
0.0116437
-0.000989558
0.0115946
-0.00103014
-0.00106348
0.0132321
-0.000215948
0.0131726
-0.000280277
0.0131118
-0.000342212
0.01305
-0.000401384
0.0129877
-0.000457493
0.0129252
-0.000510313
0.012863
-0.000559681
0.0128012
-0.000605551
0.0127401
-0.000647871
0.0126799
-0.000686871
0.0126208
-0.000722447
0.0125629
-0.000755443
0.0125063
-0.000785111
0.0124508
-0.000813986
0.0123972
-0.000838934
0.0123441
-0.000866937
0.0122939
-0.000888802
0.0122425
-0.00092027
0.0121963
-0.000943414
0.0121464
-0.000980171
-0.00102012
0.0137216
-0.000165466
0.0136689
-0.000227618
0.0136145
-0.000287806
0.0135588
-0.000345645
0.0135021
-0.00040081
0.0134448
-0.000453046
0.0133873
0.0133298
0.0132726
0.0132158
0.0131598
0.0131044
0.0130501
0.0129965
0.0129443
0.0128923
0.0128428
0.0127919
0.0127453
0.0126954
0.0142008
0.0141545
0.0141063
0.0140564
0.0140053
)
;

boundaryField
{
    inlet
    {
        type            calculated;
        value           nonuniform 0();
    }
    outlet
    {
        type            calculated;
        value           nonuniform List<scalar> 
20
(
0.00442812
0.00471347
0.00502203
0.00535457
0.00571157
0.00609319
0.00649922
0.00692902
0.00738151
0.00785512
0.00834786
0.0088573
0.0093807
0.00991506
0.0104573
0.0110045
0.0115538
0.012103
0.0126503
0.0025182
)
;
    }
    cylinder
    {
        type            calculated;
        value           nonuniform 0();
    }
    top
    {
        type            symmetryPlane;
        value           nonuniform 0();
    }
    bottom
    {
        type            symmetryPlane;
        value           nonuniform 0();
    }
    defaultFaces
    {
        type            empty;
        value           nonuniform 0();
    }
    procBoundary29to23
    {
        type            processor;
        value           nonuniform List<scalar> 
23
(
0.00105901
0.00107144
0.00108013
0.00108534
0.00108733
0.00108632
0.00168255
0.00112497
0.00111997
0.00111286
0.00110329
0.00109272
0.00107919
0.00106717
0.00104921
0.00103973
0.00101371
0.00101648
0.000969999
0.00100836
0.000912609
0.00102247
0.000879166
)
;
    }
    procBoundary29to28
    {
        type            processor;
        value           nonuniform List<scalar> 
20
(
-0.00146256
-0.00150331
-0.00112034
-0.00354499
-0.00398125
-0.00445931
-0.0049777
-0.00553356
-0.0061226
-0.00673907
-0.00737588
-0.00802496
-0.00867766
-0.00932542
-0.00996043
-0.0105763
-0.0111685
-0.0117348
-0.0122755
-0.0127925
)
;
    }
    procBoundary29to34
    {
        type            processor;
        value           nonuniform List<scalar> 3(-0.0132898 -0.0137721 -0.0142446);
    }
    procBoundary29to35
    {
        type            processor;
        value           nonuniform List<scalar> 
22
(
-0.000502155
-0.000548051
-0.000590653
-0.000630123
-0.000666385
-0.000700103
-0.000730786
-0.000760364
-0.00078677
-0.00081495
-0.000839225
-0.000869437
-0.000896755
-0.000930277
-0.00097505
-0.000121638
-0.000181384
-0.00023956
-0.00029577
-0.000349673
0.0139532
-0.000400989
)
;
    }
}


// ************************************************************************* //
