/*--------------------------------*- C++ -*----------------------------------*\
  =========                 |
  \\      /  F ield         | OpenFOAM: The Open Source CFD Toolbox
   \\    /   O peration     | Website:  https://openfoam.org
    \\  /    A nd           | Version:  7
     \\/     M anipulation  |
\*---------------------------------------------------------------------------*/
FoamFile
{
    version     2.0;
    format      ascii;
    class       surfaceScalarField;
    location    "79.000054";
    object      phi;
}
// * * * * * * * * * * * * * * * * * * * * * * * * * * * * * * * * * * * * * //

dimensions      [0 3 -1 0 0 0 0];

internalField   nonuniform List<scalar> 
11438
(
-0.000220961
-0.000595082
-0.000187585
-0.000770714
-0.000126987
-0.000901872
-4.83218e-05
-0.00098857
-0.00103046
0.0164747
-9.84536e-06
0.0164846
-9.85501e-06
0.0164944
-9.85198e-06
0.0165043
-9.83537e-06
0.0165141
-9.80425e-06
0.0165238
-9.7576e-06
0.0165335
-9.69443e-06
0.0165431
-9.61367e-06
0.0165527
-9.51426e-06
0.0165621
-9.39512e-06
0.0165713
-9.25516e-06
0.0165804
-9.09324e-06
0.0165893
-8.90826e-06
0.016598
-8.69908e-06
0.0166065
-8.46456e-06
0.0166147
-8.20359e-06
0.0166226
-7.91504e-06
0.0166302
-7.59783e-06
0.0166374
-7.25088e-06
0.0166443
-6.87316e-06
0.0166508
-6.46369e-06
0.0166568
-6.02153e-06
0.0166623
-5.54581e-06
0.0166674
-5.03575e-06
0.0166719
-4.49064e-06
0.0166758
-3.90989e-06
0.0166791
-3.29301e-06
0.0166817
-2.63964e-06
0.0166837
-1.94959e-06
0.0166849
-1.22272e-06
0.0166853
-4.59053e-07
0.016685
3.40583e-07
0.0166838
1.17515e-06
0.0166818
2.04514e-06
0.0166788
2.94909e-06
0.0166749
3.88603e-06
0.0166701
4.85397e-06
0.0166642
5.85186e-06
0.0166574
6.87673e-06
0.0166494
7.92766e-06
0.0166404
9.0003e-06
0.0166303
1.00945e-05
0.0166191
1.12037e-05
0.0166068
1.23295e-05
0.0165933
1.34622e-05
0.0165787
1.46071e-05
0.016563
1.57489e-05
0.0165461
1.68998e-05
0.0165281
1.8035e-05
0.0165089
1.91796e-05
0.0164886
2.02926e-05
0.0164672
2.14205e-05
0.0164447
2.24954e-05
0.0164211
2.35997e-05
0.0163964
2.46211e-05
0.0163707
2.56987e-05
0.0163441
2.66513e-05
0.0163164
2.77027e-05
0.0162878
2.85711e-05
0.0162582
2.95963e-05
0.0162279
3.03668e-05
0.0161965
3.13566e-05
0.0161645
3.20288e-05
3.29241e-05
0.0161504
-1.95263e-05
0.0161601
-1.95459e-05
0.0161697
-1.95402e-05
0.0161794
-1.95073e-05
0.0161891
-1.94454e-05
0.0161987
-1.93526e-05
0.0162082
-1.92268e-05
0.0162176
-1.90661e-05
0.016227
-1.88683e-05
0.0162362
-1.86313e-05
0.0162453
-1.83529e-05
0.0162543
-1.80309e-05
0.016263
-1.76631e-05
0.0162716
-1.72473e-05
0.0162799
-1.67812e-05
0.0162879
-1.62625e-05
0.0162957
-1.56892e-05
0.0163032
-1.50589e-05
0.0163103
-1.43697e-05
0.016317
-1.36194e-05
0.0163234
-1.28062e-05
0.0163293
-1.19281e-05
0.0163347
-1.09834e-05
0.0163397
-9.9707e-06
0.0163441
-8.88849e-06
0.0163479
-7.73561e-06
0.0163511
-6.51112e-06
0.0163537
-5.21433e-06
0.0163556
-3.84482e-06
0.0163568
-2.40239e-06
0.0163572
-8.86995e-07
0.0163568
6.99529e-07
0.0163556
2.35535e-06
0.0163536
4.08123e-06
0.0163507
5.87441e-06
0.0163468
7.73267e-06
0.016342
9.65254e-06
0.0163363
1.16312e-05
0.0163295
1.36637e-05
0.0163217
1.57469e-05
0.0163128
1.7874e-05
0.0163028
2.00419e-05
0.0162918
2.22415e-05
0.0162797
2.44708e-05
0.0162664
2.67175e-05
0.016252
2.89824e-05
0.0162365
3.12482e-05
0.0162199
3.35217e-05
0.0162022
3.57772e-05
0.0161833
3.8033e-05
0.0161634
4.02492e-05
0.0161423
4.24643e-05
0.0161202
4.46133e-05
0.016097
4.67698e-05
0.0160728
4.88262e-05
0.0160476
5.09126e-05
0.0160214
5.28532e-05
0.0159942
5.48633e-05
0.0159661
5.66666e-05
0.0159371
5.85933e-05
0.0159073
6.02407e-05
0.0158766
6.20606e-05
0.0158451
6.35439e-05
6.51965e-05
0.0158355
-2.90819e-05
0.0158451
-2.91102e-05
0.0158546
-2.91005e-05
0.0158642
-2.90503e-05
0.0158737
-2.89567e-05
0.0158832
-2.8817e-05
0.0158926
-2.8628e-05
0.0159019
-2.83869e-05
0.0159111
-2.80905e-05
0.0159202
-2.77355e-05
0.0159292
-2.73189e-05
0.015938
-2.68372e-05
0.0159466
-2.62872e-05
0.015955
-2.56656e-05
0.0159632
-2.49691e-05
0.0159711
-2.41943e-05
0.0159788
-2.3338e-05
0.0159861
-2.23969e-05
0.0159931
-2.1368e-05
0.0159998
-2.02482e-05
0.016006
-1.90346e-05
0.0160118
-1.77244e-05
0.0160171
-1.63152e-05
0.0160219
-1.48046e-05
0.0160262
-1.31906e-05
0.01603
-1.14715e-05
0.0160331
-9.64579e-06
0.0160356
-7.71256e-06
0.0160374
-5.67119e-06
0.0160386
-3.52144e-06
0.0160389
-1.26326e-06
0.0160385
1.10049e-06
0.0160373
3.56754e-06
0.0160353
6.1384e-06
0.0160323
8.80922e-06
0.0160285
1.15764e-05
0.0160237
1.44351e-05
0.016018
1.73807e-05
0.0160112
2.04062e-05
0.0160035
2.35062e-05
0.0159947
2.66715e-05
0.0159848
2.98961e-05
0.0159739
3.31684e-05
0.0159619
3.64824e-05
0.0159488
3.98237e-05
0.0159346
4.31883e-05
0.0159192
4.65571e-05
0.0159028
4.99315e-05
0.0158853
5.32846e-05
0.0158667
5.66291e-05
0.0158471
5.9924e-05
0.0158263
6.32034e-05
0.0158045
6.64004e-05
0.0157817
6.95872e-05
0.0157579
7.26501e-05
0.0157331
7.57267e-05
0.0157073
7.86233e-05
0.0156806
8.15805e-05
0.015653
8.42803e-05
0.0156245
8.711e-05
0.0155951
8.95837e-05
0.0155649
9.22591e-05
0.015534
9.44842e-05
9.69241e-05
0.0155297
-3.85425e-05
0.0155391
-3.8578e-05
0.0155486
-3.85629e-05
0.0155581
-3.84938e-05
0.0155675
-3.83671e-05
0.0155768
-3.81791e-05
0.0155861
-3.79257e-05
0.0155953
-3.7603e-05
0.0156045
-3.72067e-05
0.0156135
-3.67328e-05
0.0156223
-3.6177e-05
0.015631
-3.55348e-05
0.0156395
-3.4802e-05
0.0156478
-3.39742e-05
0.0156559
-3.3047e-05
0.0156637
-3.2016e-05
0.0156713
-3.08769e-05
0.0156785
-2.96254e-05
0.0156854
-2.82575e-05
0.0156919
-2.67691e-05
0.015698
-2.51564e-05
0.0157037
-2.34158e-05
0.015709
-2.1544e-05
0.0157137
-1.9538e-05
0.0157179
-1.73951e-05
0.0157215
-1.5113e-05
0.0157246
-1.269e-05
0.015727
-1.01247e-05
0.0157287
-7.41632e-06
0.0157298
-4.5647e-06
0.0157301
-1.56972e-06
0.0157296
1.56447e-06
0.0157284
4.83548e-06
0.0157262
8.24334e-06
0.0157233
1.17831e-05
0.0157194
1.54497e-05
0.0157146
1.9237e-05
0.0157088
2.31382e-05
0.0157021
2.71449e-05
0.0156944
3.12486e-05
0.0156856
3.54384e-05
0.0156758
3.97048e-05
0.0156649
4.40338e-05
0.015653
4.84158e-05
0.01564
5.28336e-05
0.0156259
5.7279e-05
0.0156107
6.17306e-05
0.0155945
6.61849e-05
0.0155771
7.06133e-05
0.0155587
7.50235e-05
0.0155393
7.9373e-05
0.0155188
8.36923e-05
0.0154973
8.79113e-05
0.0154748
9.21035e-05
0.0154513
9.6146e-05
0.0154268
0.000100189
0.0154014
0.000104013
0.0153751
0.000107896
0.0153479
0.000111465
0.0153199
0.000115181
0.015291
0.000118455
0.0152613
0.000121974
0.0152308
0.000124918
0.000128142
0.0152324
-4.79373e-05
0.0152418
-4.79779e-05
0.0152512
-4.79554e-05
0.0152606
-4.78655e-05
0.0152699
-4.77036e-05
0.0152792
-4.74652e-05
0.0152884
-4.71453e-05
0.0152976
-4.67388e-05
0.0153066
-4.62407e-05
0.0153155
-4.56458e-05
0.0153243
-4.49487e-05
0.0153329
-4.41442e-05
0.0153413
-4.32267e-05
0.0153495
-4.21909e-05
0.0153575
-4.10313e-05
0.0153653
-3.97425e-05
0.0153727
-3.83192e-05
0.0153798
-3.6756e-05
0.0153866
-3.5048e-05
0.015393
-3.31902e-05
0.0153991
-3.11779e-05
0.0154047
-2.90066e-05
0.0154098
-2.66723e-05
0.0154144
-2.41712e-05
0.0154185
-2.15e-05
0.0154221
-1.86561e-05
0.015425
-1.56371e-05
0.0154273
-1.24416e-05
0.015429
-9.06873e-06
0.0154299
-5.51818e-06
0.0154302
-1.78992e-06
0.0154296
2.11044e-06
0.0154283
6.18079e-06
0.0154261
1.04203e-05
0.015423
1.48227e-05
0.0154191
1.93819e-05
0.0154143
2.40899e-05
0.0154085
2.89382e-05
0.0154017
3.39162e-05
0.0153939
3.90132e-05
0.0153851
4.42157e-05
0.0153753
4.9511e-05
0.0153645
5.48828e-05
0.0153526
6.03174e-05
0.0153396
6.57952e-05
0.0153256
7.13034e-05
0.0153105
7.68185e-05
0.0152944
8.23322e-05
0.0152772
8.78138e-05
0.0152589
9.32668e-05
0.0152397
9.8646e-05
0.0152194
0.000103981
0.0151981
0.000109194
0.0151758
0.000114366
0.0151526
0.000119359
0.0151285
0.000124343
0.0151034
0.000129066
0.0150774
0.000133852
0.0150506
0.000138261
0.015023
0.000142844
0.0149945
0.000146893
0.0149653
0.000151243
0.0149353
0.000154888
0.000158888
0.0149434
-5.72918e-05
0.0149527
-5.73352e-05
0.0149621
-5.73027e-05
0.0149714
-5.71893e-05
0.0149807
-5.69897e-05
0.0149899
-5.66982e-05
0.0149991
-5.63089e-05
0.0150082
-5.58159e-05
0.0150172
-5.5213e-05
0.015026
-5.44941e-05
0.0150347
-5.36529e-05
0.0150432
-5.26829e-05
0.0150516
-5.15778e-05
0.0150597
-5.0331e-05
0.0150676
-4.89361e-05
0.0150753
-4.73866e-05
0.0150826
-4.56763e-05
0.0150897
-4.37988e-05
0.0150964
-4.17482e-05
0.0151027
-3.95185e-05
0.0151086
-3.71043e-05
0.0151141
-3.45002e-05
0.0151192
-3.17015e-05
0.0151237
-2.87037e-05
0.0151277
-2.5503e-05
0.0151311
-2.20962e-05
0.015134
-1.84808e-05
0.0151362
-1.46549e-05
0.0151377
-1.06177e-05
0.0151386
-6.36897e-06
0.0151387
-1.90861e-06
0.0151381
2.75594e-06
0.0151366
7.62328e-06
0.0151344
1.26912e-05
0.0151312
1.79526e-05
0.0151272
2.33997e-05
0.0151223
2.90229e-05
0.0151164
3.48118e-05
0.0151096
4.07537e-05
0.0151017
4.68353e-05
0.0150929
5.30407e-05
0.0150831
5.93539e-05
0.0150722
6.5756e-05
0.0150603
7.22293e-05
0.0150473
7.87516e-05
0.0150333
8.5306e-05
0.0150183
9.18658e-05
0.0150022
9.84189e-05
0.0149851
0.000104932
0.0149669
0.000111404
0.0149478
0.000117788
0.0149277
0.000124112
0.0149066
0.000130293
0.0148845
0.000136417
0.0148615
0.000142331
0.0148377
0.000148228
0.0148129
0.00015382
0.0147873
0.000159483
0.0147608
0.000164704
0.0147335
0.000170134
0.0147055
0.000174932
0.0146766
0.0001801
0.0146471
0.000184427
0.000189198
0.0146622
-6.66288e-05
0.0146715
-6.66721e-05
0.0146809
-6.66268e-05
0.0146901
-6.6487e-05
0.0146994
-6.62463e-05
0.0147086
-6.58984e-05
0.0147177
-6.54363e-05
0.0147268
-6.48532e-05
0.0147357
-6.41419e-05
0.0147445
-6.32953e-05
0.0147532
-6.2306e-05
0.0147616
-6.11667e-05
0.0147699
-5.98699e-05
0.014778
-5.84081e-05
0.0147858
-5.67738e-05
0.0147934
-5.49596e-05
0.0148007
-5.29582e-05
0.0148077
-5.07624e-05
0.0148143
-4.83651e-05
0.0148205
-4.57597e-05
0.0148264
-4.29397e-05
0.0148318
-3.98992e-05
0.0148367
-3.66326e-05
0.0148411
-3.31348e-05
0.014845
-2.94016e-05
0.0148483
-2.54292e-05
0.0148511
-2.12148e-05
0.0148532
-1.67565e-05
0.0148546
-1.20532e-05
0.0148554
-7.10496e-06
0.0148554
-1.91163e-06
0.0148546
3.51719e-06
0.014853
9.18123e-06
0.0148507
1.50767e-05
0.0148474
2.11953e-05
0.0148433
2.75276e-05
0.0148382
3.40626e-05
0.0148323
4.07876e-05
0.0148253
4.76878e-05
0.0148174
5.47473e-05
0.0148085
6.19475e-05
0.0147986
6.92692e-05
0.0147877
7.66905e-05
0.0147757
8.41901e-05
0.0147627
9.17425e-05
0.0147487
9.93269e-05
0.0147336
0.000106913
0.0147176
0.000114486
0.0147005
0.000122008
0.0146824
0.000129477
0.0146634
0.00013684
0.0146434
0.000144127
0.0146224
0.000151245
0.0146005
0.000158294
0.0145778
0.000165098
0.0145541
0.000171879
0.0145296
0.000178309
0.0145043
0.000184822
0.0144782
0.000190825
0.0144512
0.000197079
0.0144236
0.000202602
0.0143951
0.000208572
0.0143659
0.000213564
0.000219101
0.0143885
-7.59687e-05
0.0143978
-7.60089e-05
0.0144072
-7.59474e-05
0.0144164
-7.57775e-05
0.0144257
-7.54922e-05
0.0144349
-7.50839e-05
0.014444
-7.4545e-05
0.014453
-7.38675e-05
0.0144619
-7.30434e-05
0.0144707
-7.20646e-05
0.0144793
-7.09226e-05
0.0144877
-6.96091e-05
0.014496
-6.81157e-05
0.014504
-6.64339e-05
0.0145118
-6.45551e-05
0.0145193
-6.2471e-05
0.0145265
-6.01732e-05
0.0145334
-5.76537e-05
0.0145399
-5.49046e-05
0.0145461
-5.19182e-05
0.0145518
-4.86874e-05
0.0145572
-4.52054e-05
0.014562
-4.14659e-05
0.0145663
-3.74633e-05
0.0145701
-3.31929e-05
0.0145733
-2.86505e-05
0.0145759
-2.3833e-05
0.0145779
-1.87383e-05
0.0145792
-1.33655e-05
0.0145798
-7.71472e-06
0.0145797
-1.78567e-06
0.0145788
4.40931e-06
0.0145771
1.08716e-05
0.0145746
1.75955e-05
0.0145712
2.45714e-05
0.014567
3.17883e-05
0.0145618
3.92334e-05
0.0145557
4.68919e-05
0.0145487
5.47466e-05
0.0145406
6.27789e-05
0.0145316
7.09674e-05
0.0145216
7.92896e-05
0.0145105
8.77204e-05
0.0144985
9.62348e-05
0.0144854
0.000104804
0.0144714
0.000113403
0.0144563
0.000121999
0.0144402
0.000130571
0.0144231
0.00013908
0.0144051
0.000147522
0.0143861
0.000155837
0.0143661
0.00016406
0.0143453
0.000172087
0.0143236
0.000180029
0.014301
0.000187691
0.0142775
0.000195326
0.0142533
0.00020256
0.0142282
0.000209895
0.0142024
0.00021665
0.0141758
0.000223705
0.0141484
0.000229926
0.0141203
0.000236684
0.0140916
0.000242322
0.000248623
0.014122
-8.53298e-05
0.0141314
-8.53633e-05
0.0141407
-8.52818e-05
0.01415
-8.5078e-05
0.0141592
-8.47438e-05
0.0141684
-8.42708e-05
0.0141775
-8.36504e-05
0.0141865
-8.28737e-05
0.0141954
-8.19317e-05
0.0142042
-8.08153e-05
0.0142128
-7.95152e-05
0.0142212
-7.80219e-05
0.0142294
-7.63261e-05
0.0142374
-7.44183e-05
0.0142451
-7.22889e-05
0.0142526
-6.99287e-05
0.0142597
-6.73283e-05
0.0142666
-6.44788e-05
0.014273
-6.13714e-05
0.0142791
-5.79976e-05
0.0142848
-5.43495e-05
0.01429
-5.04196e-05
0.0142947
-4.62009e-05
0.0142989
-4.16874e-05
0.0143026
-3.68737e-05
0.0143057
-3.17554e-05
0.0143082
-2.63292e-05
0.0143101
-2.05928e-05
0.0143113
-1.45455e-05
0.0143117
-8.1874e-06
0.0143115
-1.51815e-06
0.0143104
5.44643e-06
0.0143086
1.27103e-05
0.0143059
2.02652e-05
0.0143024
2.81002e-05
0.014298
3.62028e-05
0.0142926
4.4558e-05
0.0142864
5.31489e-05
0.0142792
6.19559e-05
0.014271
7.09574e-05
0.0142618
8.01291e-05
0.0142517
8.94451e-05
0.0142405
9.8877e-05
0.0142284
0.000108396
0.0142152
0.000117969
0.014201
0.000127568
0.0141859
0.000137155
0.0141697
0.000146709
0.0141526
0.000156183
0.0141346
0.000165573
0.0141156
0.000174814
0.0140957
0.000183943
0.014075
0.000192848
0.0140533
0.000201652
0.0140309
0.000210138
0.0140076
0.000218595
0.0139836
0.000226599
0.0139588
0.000234726
0.0139332
0.0002422
0.0139069
0.000250032
0.0138799
0.000256924
0.0138521
0.000264457
0.0138237
0.000270721
0.000277786
0.0138624
-9.47282e-05
0.0138718
-9.47511e-05
0.0138812
-9.46456e-05
0.0138905
-9.44033e-05
0.0138998
-9.40155e-05
0.013909
-9.34729e-05
0.0139181
-9.27658e-05
0.0139271
-9.18844e-05
0.013936
-9.08189e-05
0.0139447
-8.9559e-05
0.0139533
-8.80945e-05
0.0139617
-8.64151e-05
0.0139699
-8.45103e-05
0.0139778
-8.23696e-05
0.0139855
-7.99827e-05
0.0139929
-7.73392e-05
0.014
-7.4429e-05
0.0140068
-7.12422e-05
0.0140132
-6.7769e-05
0.0140192
-6.40004e-05
0.0140248
-5.99274e-05
0.0140299
-5.55421e-05
0.0140345
-5.08368e-05
0.0140387
-4.58049e-05
0.0140422
-4.04406e-05
0.0140452
-3.47393e-05
0.0140476
-2.86973e-05
0.0140493
-2.23126e-05
0.0140503
-1.55842e-05
0.0140507
-8.51265e-06
0.0140502
-1.09716e-06
0.0140491
6.64182e-06
0.014047
1.4712e-05
0.0140442
2.31021e-05
0.0140405
3.17997e-05
0.0140359
4.07903e-05
0.0140304
5.00573e-05
0.014024
5.9581e-05
0.0140166
6.93396e-05
0.0140083
7.93081e-05
0.0139989
8.94593e-05
0.0139886
9.97635e-05
0.0139773
0.000110189
0.013965
0.000120702
0.0139517
0.000131268
0.0139374
0.000141852
0.0139221
0.000152415
0.0139059
0.000162929
0.0138888
0.000173346
0.0138707
0.00018366
0.0138517
0.000193799
0.0138318
0.000203806
0.0138111
0.000213555
0.0137896
0.000223189
0.0137673
0.000232463
0.0137441
0.000241708
0.0137203
0.000250447
0.0136957
0.000259334
0.0136704
0.000267492
0.0136444
0.000276077
0.0136177
0.000283611
0.0135902
0.000291905
0.0135622
0.000298777
0.000306606
0.0136095
-0.000104178
0.0136189
-0.000104186
0.0136283
-0.000104052
0.0136377
-0.000103767
0.013647
-0.00010332
0.0136562
-0.000102702
0.0136654
-0.000101903
0.0136744
-0.000100911
0.0136833
-9.97153e-05
0.013692
-9.83053e-05
0.0137006
-9.66696e-05
0.013709
-9.47969e-05
0.0137172
-9.26757e-05
0.0137251
-9.02947e-05
0.0137327
-8.76424e-05
0.0137401
-8.47078e-05
0.0137472
-8.14796e-05
0.0137539
-7.79471e-05
0.0137602
-7.40999e-05
0.0137661
-6.99279e-05
0.0137716
-6.54216e-05
0.0137766
-6.05723e-05
0.0137812
-5.53718e-05
0.0137852
-4.9813e-05
0.0137886
-4.38898e-05
0.0137915
-3.7597e-05
0.0137937
-3.09312e-05
0.0137953
-2.38901e-05
0.0137962
-1.64731e-05
0.0137964
-8.68084e-06
0.0137958
-5.11205e-07
0.0137944
8.0078e-06
0.0137922
1.68907e-05
0.0137892
2.61216e-05
0.0137853
3.56864e-05
0.0137806
4.55691e-05
0.0137749
5.57507e-05
0.0137682
6.62092e-05
0.0137606
7.69198e-05
0.0137521
8.78544e-05
0.0137426
9.89825e-05
0.0137321
0.000110271
0.0137206
0.000121683
0.0137081
0.000133182
0.0136946
0.000144729
0.0136802
0.000156285
0.0136648
0.000167805
0.0136485
0.000179261
0.0136312
0.000190598
0.0136131
0.00020181
0.0135941
0.000212818
0.0135742
0.000223672
0.0135535
0.000234233
0.013532
0.000244662
0.0135098
0.000254687
0.0134868
0.000264684
0.0134632
0.000274119
0.0134388
0.000283734
0.0134137
0.000292541
0.0133879
0.000301853
0.0133616
0.00031
0.0133344
0.000319041
0.0133067
0.000326499
0.000335096
0.0133629
-0.000113692
0.0133724
-0.000113681
0.0133819
-0.000113513
0.0133913
-0.000113179
0.0134007
-0.000112668
0.0134099
-0.00011197
0.0134191
-0.000111071
0.0134281
-0.000109962
0.0134371
-0.00010863
0.0134458
-0.000107062
0.0134544
-0.000105248
0.0134628
-0.000103174
0.0134709
-0.000100829
0.0134788
-9.81989e-05
0.0134865
-9.52728e-05
0.0134938
-9.20382e-05
0.0135008
-8.84831e-05
0.0135074
-8.45959e-05
0.0135137
-8.03654e-05
0.0135196
-7.57807e-05
0.013525
-7.08317e-05
0.0135299
-6.5509e-05
0.0135343
-5.98038e-05
0.0135382
-5.37087e-05
0.0135416
-4.7217e-05
0.0135443
-4.03236e-05
0.0135464
-3.30247e-05
0.0135478
-2.53181e-05
0.0135485
-1.72036e-05
0.0135485
-8.68227e-06
0.0135478
2.49041e-07
0.0135462
9.5567e-06
0.0135439
1.92597e-05
0.0135406
2.93379e-05
0.0135366
3.9776e-05
0.0135316
5.05559e-05
0.0135257
6.16563e-05
0.0135188
7.30526e-05
0.013511
8.4717e-05
0.0135023
9.6618e-05
0.0134925
0.000108722
0.0134818
0.00012099
0.0134701
0.000133384
0.0134574
0.000145861
0.0134438
0.000158378
0.0134292
0.000170891
0.0134136
0.000183354
0.0133971
0.000195731
0.0133798
0.000207965
0.0133615
0.000220049
0.0133425
0.000231897
0.0133226
0.000243566
0.0133019
0.000254902
0.0132805
0.00026609
0.0132583
0.000276828
0.0132355
0.00028754
0.013212
0.00029763
0.0131878
0.000307939
0.0131629
0.000317357
0.0131374
0.00032737
0.0131113
0.000336097
0.0130845
0.000345873
0.0130571
0.000353897
0.000363266
0.0131225
-0.000123282
0.0131321
-0.000123246
0.0131416
-0.000123039
0.0131511
-0.000122651
0.0131605
-0.00012207
0.0131698
-0.000121283
0.013179
-0.00012028
0.0131881
-0.000119046
0.013197
-0.000117569
0.0132058
-0.000115837
0.0132144
-0.000113836
0.0132228
-0.000111552
0.0132309
-0.000108974
0.0132388
-0.000106086
0.0132464
-0.000102877
0.0132537
-9.93331e-05
0.0132607
-9.54415e-05
0.0132673
-9.11898e-05
0.0132735
-8.65659e-05
0.0132793
-8.15585e-05
0.0132846
-7.61566e-05
0.0132894
-7.03502e-05
0.0132937
-6.41301e-05
0.0132975
-5.74883e-05
0.0133007
-5.04179e-05
0.0133033
-4.29136e-05
0.0133053
-3.49715e-05
0.0133065
-2.65894e-05
0.0133071
-1.77674e-05
0.0133069
-8.50663e-06
0.013306
1.19088e-06
0.0133042
1.13007e-05
0.0133017
2.18312e-05
0.0132982
3.27644e-05
0.0132939
4.40829e-05
0.0132887
5.57664e-05
0.0132826
6.7791e-05
0.0132755
8.01293e-05
0.0132675
9.27504e-05
0.0132585
0.000105619
0.0132485
0.000118698
0.0132375
0.000131944
0.0132256
0.000145314
0.0132127
0.000158762
0.0131989
0.000172238
0.013184
0.000185697
0.0131683
0.000199084
0.0131517
0.000212363
0.0131342
0.00022547
0.0131158
0.000238399
0.0130967
0.000251056
0.0130767
0.000263506
0.013056
0.000275582
0.0130346
0.000287492
0.0130126
0.000298901
0.0129898
0.000310288
0.0129665
0.000320992
0.0129424
0.000331958
0.0129179
0.000341946
0.0128926
0.000352633
0.0128668
0.000361908
0.0128403
0.000372405
0.0128132
0.000380973
0.00039112
0.0128881
-0.000132956
0.0128977
-0.00013289
0.0129073
-0.000132639
0.0129168
-0.00013219
0.0129263
-0.000131532
0.0129357
-0.000130651
0.0129449
-0.000129535
0.0129541
-0.000128169
0.012963
-0.00012654
0.0129718
-0.000124634
0.0129804
-0.000122437
0.0129888
-0.000119935
0.0129969
-0.000117114
0.0130048
-0.00011396
0.0130124
-0.000110457
0.0130197
-0.000106594
0.0130266
-0.000102356
0.0130331
-9.77289e-05
0.0130392
-9.27012e-05
0.0130449
-8.72602e-05
0.0130502
-8.13946e-05
0.0130549
-7.50935e-05
0.0130591
-6.83475e-05
0.0130628
-6.1148e-05
0.0130659
-5.3488e-05
0.0130683
-4.53617e-05
0.0130701
-3.67655e-05
0.0130712
-2.76972e-05
0.0130716
-1.81571e-05
0.0130713
-8.14701e-06
0.0130701
2.32815e-06
0.0130682
1.32488e-05
0.0130654
2.46167e-05
0.0130617
3.64137e-05
0.0130572
4.86207e-05
0.0130518
6.12151e-05
0.0130454
7.41705e-05
0.013038
8.74561e-05
0.0130298
0.000101038
0.0130205
0.000114876
0.0130103
0.00012893
0.0129991
0.000143153
0.0129869
0.000157495
0.0129737
0.000171907
0.0129596
0.000186333
0.0129446
0.000200723
0.0129287
0.000215019
0.0129119
0.000229179
0.0128942
0.000243135
0.0128757
0.000256881
0.0128565
0.000270315
0.0128364
0.000283512
0.0128157
0.000296288
0.0127944
0.000308879
0.0127723
0.000320916
0.0127497
0.000332939
0.0127265
0.00034421
0.0127026
0.000355796
0.0126783
0.000366314
0.0126533
0.000377646
0.0126277
0.000387434
0.0126015
0.000398641
0.0125747
0.000407729
0.000418663
0.0126593
-0.000142723
0.012669
-0.000142621
0.0126787
-0.000142319
0.0126883
-0.000141803
0.0126978
-0.000141061
0.0127073
-0.000140079
0.0127166
-0.000138842
0.0127257
-0.000137335
0.0127348
-0.000135546
0.0127436
-0.000133457
0.0127522
-0.000131056
0.0127606
-0.000128326
0.0127687
-0.000125252
0.0127766
-0.00012182
0.0127841
-0.000118015
0.0127914
-0.000113821
0.0127982
-0.000109225
0.0128047
-0.000104213
0.0128108
-9.87698e-05
0.0128164
-9.2884e-05
0.0128216
-8.65431e-05
0.0128262
-7.9736e-05
0.0128303
-7.24524e-05
0.0128338
-6.46837e-05
0.0128368
-5.64223e-05
0.0128391
-4.76626e-05
0.0128407
-3.84006e-05
0.0128417
-2.86347e-05
0.0128419
-1.83653e-05
0.0128413
-7.59459e-06
0.01284
3.66946e-06
0.0128378
1.54109e-05
0.0128348
2.76265e-05
0.0128309
4.02972e-05
0.0128261
5.34019e-05
0.0128204
6.69156e-05
0.0128138
8.0809e-05
0.0128062
9.50483e-05
0.0127976
0.000109595
0.0127881
0.000124407
0.0127776
0.000139438
0.0127661
0.000154636
0.0127537
0.000169948
0.0127403
0.000185316
0.0127259
0.000200683
0.0127106
0.000215992
0.0126945
0.000231178
0.0126775
0.000246199
0.0126596
0.000260979
0.012641
0.000275513
0.0126216
0.000289691
0.0126015
0.000303599
0.0125808
0.000317035
0.0125594
0.000330266
0.0125374
0.000342885
0.0125149
0.000355499
0.0124918
0.000367291
0.0124681
0.000379458
0.012444
0.00039046
0.0124192
0.000402409
0.012394
0.000412674
0.012368
0.000424578
0.0123416
0.000434164
0.000445893
0.012436
-0.000152589
0.0124459
-0.000152446
0.0124556
-0.000152086
0.0124653
-0.000151496
0.0124749
-0.000150663
0.0124844
-0.00014957
0.0124938
-0.000148204
0.012503
-0.000146549
0.012512
-0.000144589
0.0125209
-0.000142309
0.0125295
-0.000139693
0.0125379
-0.000136725
0.0125461
-0.000133389
0.0125539
-0.000129669
0.0125614
-0.000125549
0.0125686
-0.000121015
0.0125755
-0.000116049
0.0125819
-0.000110639
0.0125879
-0.00010477
0.0125934
-9.84273e-05
0.0125985
-9.15993e-05
0.012603
-8.4274e-05
0.012607
-7.64409e-05
0.0126104
-6.80907e-05
0.0126132
-5.92159e-05
0.0126154
-4.98106e-05
0.0126168
-3.9871e-05
0.0126176
-2.93954e-05
0.0126176
-1.83848e-05
0.0126169
-6.84155e-06
0.0126153
5.22313e-06
0.0126129
1.77965e-05
0.0126097
3.08708e-05
0.0126055
4.44257e-05
0.0126005
5.84381e-05
0.0125945
7.28803e-05
0.0125876
8.77203e-05
0.0125798
0.00010292
0.0125709
0.000118439
0.0125611
0.000134228
0.0125503
0.000150238
0.0125385
0.000166411
0.0125258
0.000182689
0.0125121
0.000199009
0.0124975
0.000215308
0.0124819
0.000231522
0.0124655
0.000247583
0.0124483
0.000263443
0.0124302
0.00027902
0.0124114
0.000294313
0.0123919
0.0003092
0.0123717
0.000323781
0.0123509
0.000337834
0.0123295
0.000351661
0.0123076
0.000364814
0.0122851
0.000377974
0.0122622
0.000390238
0.0122387
0.000402943
0.0122148
0.000414384
0.0121903
0.000426919
0.0121653
0.000437622
0.0121397
0.000450212
0.0121136
0.00046027
0.000472808
0.0122181
-0.00016256
0.012228
-0.000162369
0.0122379
-0.000161944
0.0122476
-0.000161273
0.0122573
-0.00016034
0.0122669
-0.00015913
0.0122763
-0.000157626
0.0122856
-0.000155812
0.0122946
-0.000153673
0.0123035
-0.000151191
0.0123122
-0.000148351
0.0123206
-0.000145134
0.0123287
-0.000141524
0.0123366
-0.000137505
0.0123441
-0.00013306
0.0123512
-0.000128172
0.012358
-0.000122826
0.0123644
-0.000117006
0.0123703
-0.000110698
0.0123758
-0.000103887
0.0123807
-9.65594e-05
0.0123851
-8.87036e-05
0.012389
-8.03085e-05
0.0123923
-7.13645e-05
0.0123949
-6.18638e-05
0.0123969
-5.18004e-05
0.0123982
-4.11706e-05
0.0123988
-2.99729e-05
0.0123986
-1.82087e-05
0.0123977
-5.88051e-06
0.0123959
6.99701e-06
0.0123933
2.0414e-05
0.0123898
3.43587e-05
0.0123854
4.88091e-05
0.0123801
6.374e-05
0.0123739
7.91209e-05
0.0123667
9.49166e-05
0.0123585
0.000111086
0.0123494
0.000127583
0.0123392
0.000144355
0.0123281
0.000161346
0.012316
0.000178495
0.012303
0.000195738
0.012289
0.000213004
0.0122741
0.000230225
0.0122583
0.000247332
0.0122416
0.000264249
0.0122241
0.000280928
0.0122059
0.000297276
0.0121869
0.000313297
0.0121672
0.000328857
0.0121469
0.00034407
0.0121261
0.000358695
0.0121047
0.000373073
0.0120828
0.000386709
0.0120604
0.000400368
0.0120376
0.00041305
0.0120142
0.000426251
0.0119905
0.000438081
0.0119663
0.000451172
0.0119416
0.000462274
0.0119163
0.000475537
0.0118905
0.000486042
0.000499402
0.0120052
-0.000172641
0.0120153
-0.000172394
0.0120252
-0.000171897
0.0120351
-0.000171136
0.0120448
-0.000170095
0.0120545
-0.000168758
0.012064
-0.000167107
0.0120733
-0.000165126
0.0120824
-0.000162797
0.0120913
-0.000160103
0.0121
-0.000157027
0.0121084
-0.00015355
0.0121165
-0.000149656
0.0121244
-0.000145326
0.0121318
-0.000140544
0.012139
-0.000135291
0.0121457
-0.000129552
0.012152
-0.000123311
0.0121578
-0.000116551
0.0121632
-0.000109259
0.0121681
-0.000101419
0.0121724
-9.30206e-05
0.0121761
-8.40508e-05
0.0121793
-7.45002e-05
0.0121818
-6.43609e-05
0.0121836
-5.36267e-05
0.0121847
-4.22938e-05
0.0121851
-3.03612e-05
0.0121847
-1.78306e-05
0.0121835
-4.70456e-06
0.0121815
8.99829e-06
0.0121787
2.32713e-05
0.0121749
3.80986e-05
0.0121703
5.34566e-05
0.0121647
6.93175e-05
0.0121582
8.56479e-05
0.0121507
0.000102409
0.0121422
0.000119556
0.0121328
0.000137039
0.0121223
0.0001548
0.0121109
0.000172778
0.0120985
0.000190904
0.0120851
0.000209109
0.0120708
0.000227317
0.0120556
0.000245452
0.0120395
0.000263439
0.0120225
0.000281196
0.0120048
0.00029867
0.0119863
0.000315762
0.0119671
0.000332478
0.0119473
0.000348673
0.0119269
0.000364478
0.011906
0.000379628
0.0118845
0.000394508
0.0118627
0.000408573
0.0118403
0.00042268
0.0118177
0.000435726
0.0117945
0.000449378
0.0117711
0.000461546
0.0117471
0.000475159
0.0117228
0.000486618
0.0116977
0.000500544
0.0116723
0.00051147
0.000525668
0.0117974
-0.000182834
0.0118075
-0.000182524
0.0118176
-0.000181947
0.0118275
-0.000181088
0.0118373
-0.00017993
0.011847
-0.000178456
0.0118566
-0.000176649
0.0118659
-0.00017449
0.0118751
-0.000171961
0.011884
-0.000169044
0.0118927
-0.000165721
0.0119012
-0.000161973
0.0119093
-0.000157782
0.0119171
-0.00015313
0.0119245
-0.000147998
0.0119316
-0.000142369
0.0119383
-0.000136225
0.0119445
-0.000129549
0.0119503
-0.000122326
0.0119556
-0.000114539
0.0119603
-0.000106175
0.0119645
-9.72202e-05
0.0119682
-8.76629e-05
0.0119712
-7.74929e-05
0.0119735
-6.67019e-05
0.0119751
-5.5284e-05
0.0119761
-4.32352e-05
0.0119763
-3.05548e-05
0.0119757
-1.72446e-05
0.0119743
-3.30724e-06
0.0119721
1.12335e-05
0.011969
2.63753e-05
0.011965
4.20981e-05
0.01196
5.83762e-05
0.0119542
7.51792e-05
0.0119474
9.24708e-05
0.0119396
0.000110209
0.0119308
0.000128344
0.011921
0.000146821
0.0119102
0.000165577
0.0118984
0.000184546
0.0118857
0.000203652
0.011872
0.000222819
0.0118573
0.000241964
0.0118418
0.000261005
0.0118254
0.000279859
0.0118081
0.000298438
0.0117901
0.000316684
0.0117714
0.000334492
0.011752
0.000351869
0.011732
0.00036866
0.0117115
0.000385013
0.0116905
0.000400639
0.011669
0.00041597
0.0116472
0.000430409
0.0116249
0.000444911
0.0116024
0.000458263
0.0115794
0.000472317
0.0115562
0.000484768
0.0115325
0.000498871
0.0115085
0.000510643
0.0114838
0.000525222
0.0114587
0.00053654
0.000551595
0.0115943
-0.000193141
0.0116045
-0.00019276
0.0116147
-0.000192094
0.0116247
-0.000191128
0.0116346
-0.000189844
0.0116444
-0.000188224
0.011654
-0.00018625
0.0116634
-0.000183902
0.0116726
-0.000181162
0.0116816
-0.000178011
0.0116903
-0.00017443
0.0116987
-0.0001704
0.0117068
-0.0001659
0.0117146
-0.000160913
0.011722
-0.000155419
0.0117291
-0.000149401
0.0117357
-0.000142839
0.0117418
-0.000135716
0.0117475
-0.000128016
0.0117527
-0.000119723
0.0117574
-0.000110821
0.0117614
-0.000101298
0.0117649
-9.11398e-05
0.0117678
-8.03375e-05
0.0117699
-6.8882e-05
0.0117714
-5.67672e-05
0.0117722
-4.39895e-05
0.0117722
-3.05483e-05
0.0117714
-1.64455e-05
0.0117697
-1.68243e-06
0.0117673
1.37082e-05
0.0117639
2.97326e-05
0.0117596
4.63642e-05
0.0117544
6.35753e-05
0.0117483
8.13333e-05
0.0117412
9.95984e-05
0.011733
0.000118325
0.0117239
0.000137458
0.0117138
0.000156939
0.0117027
0.000176699
0.0116906
0.000196664
0.0116775
0.000216753
0.0116634
0.000236882
0.0116484
0.000256961
0.0116325
0.000276899
0.0116158
0.000296608
0.0115982
0.00031599
0.0115799
0.000334986
0.0115609
0.00035348
0.0115413
0.000371484
0.0115211
0.000388828
0.0115005
0.000405684
0.0114794
0.000421733
0.0114579
0.000437463
0.0114361
0.000452216
0.0114139
0.000467058
0.0113915
0.000480654
0.0113688
0.000495061
0.0113458
0.000507739
0.0113224
0.000522297
0.0112987
0.000534337
0.0112744
0.000549558
0.0112497
0.00056124
0.000577173
0.0113958
-0.000203563
0.0114061
-0.000203102
0.0114164
-0.000202338
0.0114265
-0.000201255
0.0114365
-0.000199835
0.0114463
-0.000198059
0.011456
-0.000195907
0.0114655
-0.00019336
0.0114747
-0.000190398
0.0114837
-0.000187002
0.0114924
-0.000183151
0.0115008
-0.000178825
0.0115089
-0.000174005
0.0115167
-0.000168671
0.0115241
-0.000162803
0.0115311
-0.000156382
0.0115376
-0.000149389
0.0115437
-0.000141807
0.0115493
-0.000133618
0.0115544
-0.000124805
0.0115589
-0.000115353
0.0115629
-0.000105248
0.0115662
-9.44765e-05
0.0115689
-8.30289e-05
0.0115709
-7.0896e-05
0.0115722
-5.80715e-05
0.0115728
-4.45517e-05
0.0115726
-3.03366e-05
0.0115715
-1.54287e-05
0.0115697
1.74247e-07
0.011567
1.64281e-05
0.0115633
3.33489e-05
0.0115588
5.09025e-05
0.0115533
6.90602e-05
0.0115469
8.77865e-05
0.0115394
0.000107038
0.011531
0.000126765
0.0115215
0.000146909
0.0115111