/*--------------------------------*- C++ -*----------------------------------*\
  =========                 |
  \\      /  F ield         | OpenFOAM: The Open Source CFD Toolbox
   \\    /   O peration     | Website:  https://openfoam.org
    \\  /    A nd           | Version:  7
     \\/     M anipulation  |
\*---------------------------------------------------------------------------*/
FoamFile
{
    version     2.0;
    format      ascii;
    class       volVectorField;
    location    "22";
    object      U;
}
// * * * * * * * * * * * * * * * * * * * * * * * * * * * * * * * * * * * * * //

dimensions      [0 1 -1 0 0 0 0];

internalField   nonuniform List<vector> 
433
(
(0.379937 0.43401 1.19173e-19)
(0.400718 0.443796 -1.61246e-19)
(0.421319 0.451773 1.13729e-19)
(0.441697 0.457912 -2.32266e-20)
(0.461808 0.462201 2.89312e-20)
(0.481612 0.464648 -1.22585e-20)
(0.331847 0.404094 -3.6432e-20)
(0.35213 0.414843 -6.91624e-20)
(0.372395 0.423886 1.32836e-19)
(0.392597 0.431184 -3.54328e-20)
(0.412689 0.436714 6.8691e-21)
(0.432629 0.440471 -3.43738e-20)
(0.452374 0.442465 -1.09769e-19)
(0.471885 0.442727 -5.13439e-20)
(0.491127 0.441307 -2.98777e-20)
(0.510069 0.438273 1.29563e-19)
(0.286033 0.371464 -8.9058e-20)
(0.305597 0.38298 5.70598e-20)
(0.3253 0.39291 2.20766e-20)
(0.345097 0.401208 -2.06607e-19)
(0.364944 0.40784 1.20388e-19)
(0.384793 0.412789 -9.4944e-21)
(0.404599 0.416053 9.41436e-20)
(0.424318 0.417648 9.64472e-20)
(0.443907 0.417608 -4.37167e-20)
(0.463326 0.415983 7.25204e-20)
(0.482537 0.412842 -1.01128e-19)
(0.501508 0.408271 2.27102e-20)
(0.520207 0.40237 -6.52309e-20)
(0.538611 0.395251 -4.76121e-21)
(0.556697 0.387038 5.64336e-20)
(0.224658 0.323153 -4.7996e-20)
(0.242968 0.336594 4.85159e-20)
(0.261606 0.348647 -1.19574e-19)
(0.280533 0.359248 1.53052e-19)
(0.299706 0.368345 1.55009e-20)
(0.319083 0.375897 -1.00486e-20)
(0.338617 0.381878 -1.19636e-19)
(0.358261 0.386274 1.11299e-19)
(0.377968 0.389087 -2.39352e-20)
(0.397689 0.390335 3.32801e-20)
(0.417379 0.390056 -2.07931e-19)
(0.436992 0.388299 7.06239e-20)
(0.456484 0.385133 5.53698e-20)
(0.475816 0.380642 1.59543e-20)
(0.49495 0.374922 -1.23306e-19)
(0.513853 0.368082 7.13042e-20)
(0.532493 0.36024 -5.80921e-20)
(0.550845 0.351521 -2.83587e-20)
(0.568885 0.342053 5.61012e-20)
(0.586593 0.331966 4.7201e-20)
(0.186007 0.286474 -4.43253e-20)
(0.203075 0.300039 4.76184e-20)
(0.220602 0.312365 5.87854e-20)
(0.238557 0.323385 -6.40159e-20)
(0.256902 0.333045 4.17573e-20)
(0.275597 0.341298 -3.13396e-20)
(0.294598 0.348108 -3.56663e-20)
(0.31386 0.353453 -1.29369e-20)
(0.333333 0.357325 4.81384e-21)
(0.352968 0.359727 -1.48563e-20)
(0.372715 0.360681 -5.14521e-20)
(0.392522 0.360223 3.21285e-20)
(0.412339 0.358404 1.91101e-19)
(0.432117 0.35529 -2.38721e-19)
(0.451809 0.350961 7.5572e-20)
(0.47137 0.34551 7.55169e-20)
(0.490759 0.339039 4.76607e-20)
(0.509937 0.33166 -2.08062e-20)
(0.528869 0.323489 -3.06959e-20)
(0.547524 0.314647 -1.89536e-20)
(0.565874 0.305254 1.29766e-19)
(0.583888 0.295431 -9.47547e-20)
(0.601547 0.285292 1.41197e-19)
(0.618877 0.274924 -3.60162e-20)
(0.635907 0.264396 -5.54819e-20)
(0.151026 0.249029 -7.50337e-20)
(0.166709 0.262424 7.83161e-20)
(0.18297 0.274733 -1.23867e-19)
(0.199782 0.285893 1.03854e-20)
(0.217116 0.295846 1.13212e-19)
(0.234936 0.304543 -4.19333e-21)
(0.253202 0.311942 -6.94657e-20)
(0.271872 0.318014 -1.74693e-20)
(0.290898 0.322741 6.24672e-20)
(0.310232 0.326116 -7.76429e-20)
(0.32982 0.328147 4.41017e-20)
(0.349608 0.328855 2.09263e-20)
(0.369543 0.328277 -1.08297e-19)
(0.389567 0.326461 9.62474e-20)
(0.409627 0.323471 2.60251e-20)
(0.42967 0.319381 1.36605e-19)
(0.449643 0.314278 -2.48599e-19)
(0.469497 0.308259 1.31487e-19)
(0.489186 0.301426 -1.17854e-20)
(0.508669 0.293888 -2.76334e-20)
(0.527906 0.285754 -5.54971e-20)
(0.54686 0.277136 2.6486e-20)
(0.565498 0.268143 7.31084e-20)
(0.583793 0.258879 -1.51838e-19)
(0.601757 0.249429 -6.92692e-20)
(0.619405 0.239858 2.23559e-20)
(0.636313 0.23037 1.51243e-19)
(0.119953 0.211516 -8.24471e-20)
(0.134147 0.224428 2.21267e-20)
(0.149019 0.236413 1.43897e-19)
(0.16455 0.247409 -6.61748e-20)
(0.180719 0.25736 3.30715e-21)
(0.197495 0.266215 -1.74686e-20)
(0.214847 0.273929 5.75424e-20)
(0.232734 0.280468 -9.97395e-20)
(0.251115 0.285808 8.11377e-20)
(0.269941 0.289932 1.89536e-20)
(0.289162 0.292838 -1.26326e-20)
(0.308721 0.294534 -1.15316e-19)
(0.328563 0.295043 2.04239e-19)
(0.348629 0.294398 -4.40505e-20)
(0.368857 0.292646 -4.45571e-20)
(0.389189 0.289844 -1.26016e-21)
(0.409564 0.286064 -7.23598e-20)
(0.429925 0.281384 -6.36101e-20)
(0.450216 0.275891 -3.04664e-20)
(0.470383 0.26968 2.04148e-19)
(0.490378 0.262849 -9.92612e-20)
(0.510155 0.255497 1.42697e-19)
(0.529671 0.247725 4.43334e-21)
(0.548886 0.23963 -1.90161e-19)
(0.567768 0.231306 1.3556e-19)
(0.586317 0.222832 7.68067e-20)
(0.604536 0.214268 -1.4889e-19)
(0.622076 0.205771 -6.86166e-21)
(0.10557 0.186774 -5.80213e-20)
(0.118969 0.198115 1.08967e-20)
(0.133119 0.208629 6.93783e-22)
(0.148003 0.218262 -4.32978e-20)
(0.163602 0.226965 4.81356e-20)
(0.179888 0.234693 2.74385e-20)
(0.196829 0.241409 -9.25971e-20)
(0.214388 0.247084 5.00142e-20)
(0.23252 0.251695 -6.54085e-20)
(0.251178 0.255233 4.15188e-20)
(0.270308 0.257696 6.65821e-20)
(0.289854 0.259092 -1.37029e-19)
(0.309756 0.259443 -1.05474e-20)
(0.32995 0.25878 6.30725e-20)
(0.350372 0.257146 -2.17909e-20)
(0.370958 0.254593 7.18791e-20)
(0.391642 0.251185 -9.74906e-21)
(0.41236 0.246993 -1.14373e-19)
(0.43305 0.242094 8.67793e-20)
(0.453654 0.236573 -3.78577e-20)
(0.474116 0.230516 1.66721e-19)
(0.494383 0.224011 -1.65744e-19)
(0.514408 0.217147 5.05422e-20)
(0.534146 0.21001 -1.45178e-20)
(0.553559 0.202683 -1.45616e-19)
(0.572638 0.195235 5.33106e-20)
(0.591373 0.187722 7.6497e-20)
(0.609487 0.180262 -6.89456e-20)
(0.0810596 0.150206 4.29188e-20)
(0.0929461 0.16058 -2.50615e-21)
(0.105653 0.170286 -3.91745e-20)
(0.119175 0.179275 6.76918e-20)
(0.133498 0.187501 -7.32133e-20)
(0.148603 0.194922 5.74511e-20)
(0.164466 0.2015 -6.69142e-21)
(0.181055 0.207205 -2.30171e-20)
(0.198333 0.21201 3.36105e-20)
(0.216257 0.215901 -1.26944e-19)
(0.234776 0.218867 5.89189e-20)
(0.253836 0.220909 6.28176e-20)
(0.273379 0.222036 -7.56491e-20)
(0.293341 0.222266 1.41747e-19)
(0.313657 0.221629 -9.25151e-20)
(0.334257 0.220161 -3.85135e-21)
(0.355072 0.21791 6.35941e-20)
(0.376034 0.21493 -8.50864e-20)
(0.397071 0.211283 2.33858e-20)
(0.418118 0.207037 6.90928e-20)
(0.43911 0.202264 -1.24668e-19)
(0.459984 0.197039 1.48152e-20)
(0.480686 0.191438 -5.07127e-21)
(0.50116 0.185538 3.3408e-20)
(0.52136 0.17941 7.70019e-20)
(0.541242 0.173128 -2.29778e-20)
(0.560788 0.16675 -1.42953e-19)
(0.579978 0.160328 7.2843e-20)
(0.5986 0.153945 5.32961e-20)
(0.060589 0.115468 -7.975e-20)
(0.0709665 0.124558 4.07292e-20)
(0.0822158 0.133133 3.94696e-20)
(0.0943384 0.14115 -2.79485e-20)
(0.10733 0.148569 4.03846e-20)
(0.12118 0.15535 -6.53084e-20)
(0.135871 0.161461 1.48535e-20)
(0.15138 0.166869 2.99505e-20)
(0.167676 0.171551 -2.86934e-21)
(0.184722 0.175485 1.76876e-22)
(0.202473 0.17866 -4.55336e-20)
(0.22088 0.181068 1.88096e-20)
(0.239888 0.182709 -3.52899e-20)
(0.259434 0.183593 5.152e-20)
(0.279454 0.183736 -2.20175e-20)
(0.299878 0.183162 -5.5342e-20)
(0.320635 0.181903 9.08482e-20)
(0.341651 0.179998 -1.11799e-19)
(0.362853 0.177494 -1.74075e-20)
(0.384166 0.174442 1.80877e-20)
(0.40552 0.170898 -7.43786e-21)
(0.426844 0.166924 2.61906e-21)
(0.448073 0.162581 7.29541e-20)
(0.469146 0.157932 1.14244e-20)
(0.490005 0.15304 2.79122e-20)
(0.510598 0.147967 -2.91331e-20)
(0.530881 0.14277 -4.33483e-20)
(0.550824 0.137501 -2.61561e-20)
(0.570402 0.132201 -4.56186e-20)
(0.589459 0.12693 -3.53774e-20)
(0.0529387 0.0907898 -8.96977e-21)
(0.0627593 0.0979218 8.91586e-20)
(0.0734925 0.104646 -7.51381e-20)
(0.0851421 0.110929 1.6174e-20)
(0.0977058 0.116738 4.47515e-20)
(0.111174 0.122045 -1.37455e-21)
(0.125533 0.126821 -8.96583e-21)
(0.140757 0.131044 -5.89137e-20)
(0.156818 0.134694 8.83492e-20)
(0.173679 0.137756 -2.22728e-20)
(0.191295 0.14022 -2.09054e-20)
(0.209615 0.14208 -3.83651e-20)
(0.228583 0.143338 2.35474e-20)
(0.248136 0.144002 -3.76524e-20)
(0.268207 0.144084 6.24569e-20)
(0.288723 0.143605 -6.14593e-20)
(0.309611 0.142589 8.44488e-20)
(0.330794 0.141068 9.23426e-21)
(0.352194 0.139079 8.50695e-21)
(0.373734 0.136662 7.51061e-20)
(0.39534 0.133863 -1.31418e-19)
(0.416937 0.130728 1.22361e-19)
(0.438456 0.127308 -7.5156e-20)
(0.459832 0.123651 6.22139e-21)
(0.481005 0.119807 2.76879e-20)
(0.50192 0.115823 -6.81334e-20)
(0.522528 0.111746 7.05475e-20)
(0.542796 0.107616 3.95599e-21)
(0.562689 0.103465 -1.74452e-20)
(0.582102 0.0993348 5.4799e-20)
(0.0386612 0.0599815 -3.40912e-20)
(0.0471273 0.0653791 3.63532e-20)
(0.056526 0.0705067 2.38102e-21)
(0.0668685 0.0753391 1.20461e-20)
(0.0781603 0.0798522 -3.68335e-20)
(0.0904005 0.0840231 2.43644e-20)
(0.103581 0.0878306 -6.99969e-22)
(0.117688 0.0912553 -2.25114e-20)
(0.132699 0.0942805 2.04425e-20)
(0.148584 0.0968923 -3.98537e-20)
(0.165306 0.09908 2.04103e-21)
(0.182822 0.100837 1.9952e-20)
(0.201079 0.102159 3.64813e-20)
(0.220019 0.103048 2.59678e-20)
(0.23958 0.103509 -7.8889e-21)
(0.259692 0.103552 -4.46113e-20)
(0.28028 0.103192 2.24711e-21)
(0.30127 0.102446 3.0614e-21)
(0.32258 0.101339 -5.85299e-20)
(0.344133 0.0998954 4.03163e-21)
(0.365847 0.0981463 -2.01427e-20)
(0.387645 0.0961235 3.91318e-20)
(0.409451 0.0938614 -9.43107e-21)
(0.431191 0.0913953 -3.1986e-20)
(0.452799 0.0887611 3.68475e-20)
(0.474211 0.085994 -1.14239e-20)
(0.49537 0.0831285 9.97688e-21)
(0.516227 0.0801972 4.50206e-20)
(0.53674 0.0772299 -7.84634e-20)
(0.556875 0.0742501 -1.7063e-20)
(0.576558 0.0712831 -8.85082e-21)
(0.0350548 0.0361868 -3.27186e-21)
(0.0432178 0.0394402 9.58164e-21)
(0.0523331 0.0425301 -2.14569e-20)
(0.0624134 0.0454413 -4.32264e-21)
(0.0734652 0.0481594 1.18617e-20)
(0.0854886 0.0506705 9.49707e-21)
(0.0984768 0.0529618 1.52267e-20)
(0.112416 0.0550218 -2.91282e-20)
(0.127284 0.0568404 4.60837e-21)
(0.143051 0.0584094 1.64072e-20)
(0.159682 0.0597222 -1.2914e-20)
(0.177131 0.0607749 -1.87324e-20)
(0.195346 0.0615656 1.84327e-20)
(0.21427 0.0620949 -2.18103e-20)
(0.233836 0.0623664 2.86822e-20)
(0.253976 0.062386 -2.23564e-20)
(0.274615 0.0621625 -1.08508e-21)
(0.295673 0.0617074 2.5072e-20)
(0.317071 0.0610343 -9.1864e-21)
(0.338727 0.0601595 -2.66029e-21)
(0.360559 0.0591008 8.23239e-21)
(0.382487 0.0578778 -1.17e-20)
(0.404433 0.0565112 7.55078e-21)
(0.426323 0.0550224 3.46683e-21)
(0.448087 0.0534329 -8.785e-21)
(0.46966 0.0517642 -1.95833e-20)
(0.490985 0.0500368 4.04866e-20)
(0.512009 0.0482704 5.62453e-21)
(0.532688 0.0464832 1.63577e-21)
(0.552984 0.0446892 1.35656e-20)
(0.57285 0.0429023 -8.83617e-21)
(0.0502254 0.0142145 7.01741e-21)
(0.0601741 0.0151869 -7.07778e-21)
(0.0711054 0.0160946 3.61022e-21)
(0.0830201 0.016933 9.91014e-22)
(0.0959117 0.017698 -4.51069e-21)
(0.109766 0.0183855 1.15242e-20)
(0.124563 0.0189923 -2.79274e-21)
(0.140272 0.0195156 -6.87145e-21)
(0.156856 0.0199532 6.3155e-21)
(0.174272 0.0203039 5.80353e-21)
(0.192467 0.020567 -8.88173e-21)
(0.211382 0.0207428 -3.3639e-21)
(0.230953 0.0208324 9.83313e-21)
(0.251107 0.0208379 8.31565e-22)
(0.271771 0.0207622 2.64136e-21)
(0.292864 0.0206092 -2.27536e-21)
(0.314307 0.0203834 1.03637e-21)
(0.336015 0.0200903 7.02109e-21)
(0.357906 0.0197358 7.1243e-21)
(0.3799 0.0193266 -9.52678e-21)
(0.401917 0.0188695 -5.75135e-21)
(0.423882 0.0183717 7.09412e-21)
(0.445724 0.0178404 6.31793e-21)
(0.467379 0.0172828 -1.66474e-20)
(0.488786 0.0167056 -2.69433e-21)
(0.509894 0.0161156 4.70646e-21)
(0.530657 0.0155187 1.32664e-21)
(0.551034 0.0149197 2.46914e-21)
(0.570992 0.0143229 -5.84717e-21)
(0.999874 0.000161914 1.87923e-21)
(0.990957 0.000509734 -1.18517e-21)
(0.974469 0.000926594 6.46424e-23)
(0.951475 0.00148856 -8.92291e-22)
(0.920886 0.00222154 2.41273e-22)
(0.883456 0.00326806 4.08624e-22)
(0.83606 0.00469369 1.13761e-21)
(0.779823 0.00661352 1.00141e-21)
(0.711505 0.00940366 -6.2464e-22)
(0.629137 0.0125894 -5.39132e-22)
(0.999874 0.000485787 -2.84056e-21)
(0.990958 0.00152908 2.59157e-21)
(0.974483 0.00277961 2.07592e-22)
(0.951504 0.00446504 -2.4192e-21)
(0.92096 0.00666347 1.52722e-21)
(0.883599 0.00980248 -2.13688e-21)
(0.836321 0.0140748 -1.1373e-21)
(0.780341 0.0198316 2.40636e-21)
(0.712329 0.0281868 -3.13569e-21)
(0.630623 0.0377165 1.32022e-21)
(0.999873 0.000809792 4.73498e-21)
(0.99096 0.00254805 -3.53307e-21)
(0.974509 0.00463208 -6.23227e-22)
(0.951563 0.00743962 5.47513e-21)
(0.921107 0.011102 -2.39205e-21)
(0.883885 0.0163317 -1.40616e-21)
(0.836847 0.0234371 5.75597e-21)
(0.781375 0.0330227 -9.73132e-21)
(0.713978 0.046897 2.24167e-21)
(0.633591 0.0626886 8.89772e-21)
(0.999872 0.00113401 -2.21678e-21)
(0.990964 0.00356636 7.71967e-21)
(0.97455 0.00648361 1.341e-21)
(0.951652 0.010411 -7.20937e-21)
(0.92133 0.0155348 1.9097e-21)
(0.884314 0.0228521 -2.6008e-21)
(0.837638 0.0327683 3.33263e-22)
(0.782925 0.046169 -1.83719e-21)
(0.716452 0.0654851 -5.93423e-21)
(0.638037 0.0874035 -4.36237e-21)
(0.999871 0.00145851 1.70422e-22)
(0.990969 0.00458372 -5.01102e-21)
(0.974604 0.00833378 -5.33265e-21)
(0.951773 0.0133777 3.15366e-21)
(0.921629 0.0199599 -5.95641e-21)
(0.884887 0.0293596 3.51117e-21)
(0.8387 0.0420562 5.12331e-21)
(0.784989 0.0592527 -8.44882e-21)
(0.719752 0.0839007 6.51447e-21)
(0.643949 0.111761 2.29177e-20)
(0.999869 0.00178336 -7.19791e-21)
(0.990976 0.0056 -3.2114e-21)
(0.974673 0.0101821 6.70821e-21)
(0.951925 0.0163385 1.92604e-21)
(0.922007 0.0243749 -1.90759e-21)
(0.885604 0.0358501 -5.64058e-21)
(0.840039 0.0512893 -4.87061e-21)
(0.787563 0.0722562 -1.41655e-20)
(0.723877 0.102092 -5.70215e-21)
(0.651317 0.135665 2.70849e-20)
(0.999867 0.00210857 1.29134e-20)
(0.990985 0.00661479 -7.73325e-21)
(0.974756 0.012028 1.37257e-20)
(0.952112 0.0192918 -4.53644e-21)
(0.922465 0.028778 2.5032e-21)
(0.886467 0.0423188 5.50916e-22)
(0.841662 0.0604562 9.69362e-21)
(0.790644 0.0851615 -2.93005e-21)
(0.728833 0.120005 6.00702e-21)
(0.660125 0.159022 -1.80302e-20)
(0.999865 0.00243418 4.04563e-21)
(0.990996 0.007625 1.51064e-20)
(0.974856 0.0138709 -1.45308e-20)
(0.952334 0.022236 1.65514e-20)
(0.923006 0.0331669 9.67156e-21)
(0.887479 0.0487604 -1.96597e-20)
(0.843577 0.0695466 -1.44499e-21)
(0.794228 0.0979503 -3.77939e-21)
(0.734622 0.137585 -3.90736e-21)
(0.670354 0.181746 1.32967e-20)
(0.999863 0.00276022 -2.74869e-20)
(0.991012 0.00862519 -6.34135e-21)
(0.974973 0.0157099 1.16879e-20)
(0.952594 0.0251696 1.94064e-21)
(0.923634 0.0375397 -3.26466e-21)
(0.888643 0.0551691 6.61487e-21)
(0.845795 0.0785507 9.73834e-21)
(0.798312 0.110604 2.03023e-20)
(0.741254 0.154775 -2.2983e-20)
(0.681982 0.203757 -1.39787e-20)
(0.99986 0.00308666 1.93726e-20)
(0.991031 0.00963473 -4.7558e-21)
(0.975109 0.0175443 -1.4837e-20)
(0.952896 0.0280906 -2.40498e-20)
)
;

boundaryField
{
    inlet
    {
        type            uniformFixedValue;
        uniformValue    constant (1 0 0);
        value           uniform (1 0 0);
    }
    outlet
    {
        type            pressureInletOutletVelocity;
        value           nonuniform 0();
    }
    cylinder
    {
        type            fixedValue;
        value           nonuniform 0();
    }
    top
    {
        type            symmetryPlane;
    }
    bottom
    {
        type            symmetryPlane;
    }
    defaultFaces
    {
        type            empty;
    }
    procBoundary18to12
    {
        type            processor;
        value           nonuniform List<vector> 
42
(
(0.0332418 0.0120953 -2.65882e-21)
(0.0412524 0.0131823 6.97903e-21)
(0.0412524 0.0131823 6.97903e-21)
(0.0502254 -0.0142145 2.25762e-21)
(0.0601741 -0.0151869 8.34229e-21)
(0.0711054 -0.0160946 -3.90083e-21)
(0.0830201 -0.016933 -1.4778e-21)
(0.0959117 -0.017698 5.72123e-21)
(0.109766 -0.0183855 -1.36963e-20)
(0.124563 -0.0189923 4.26352e-21)
(0.140272 -0.0195156 7.5684e-21)
(0.156856 -0.0199532 -4.92933e-21)
(0.174272 -0.0203039 -3.25526e-21)
(0.192467 -0.020567 3.12023e-21)
(0.211382 -0.0207428 3.17372e-21)
(0.230953 -0.0208324 -5.59917e-21)
(0.251107 -0.0208379 3.99181e-21)
(0.271771 -0.0207622 1.23961e-21)
(0.292864 -0.0206092 4.84367e-21)
(0.314307 -0.0203834 6.30769e-21)
(0.336015 -0.0200903 2.32525e-21)
(0.357906 -0.0197358 -6.52069e-21)
(0.3799 -0.0193266 -2.71946e-21)
(0.401917 -0.0188695 9.8468e-21)
(0.423882 -0.0183717 -5.61727e-21)
(0.445724 -0.0178404 -7.28272e-21)
(0.467379 -0.0172828 1.33372e-20)
(0.488786 -0.0167056 -4.49262e-21)
(0.509894 -0.0161156 -4.2794e-22)
(0.530657 -0.0155187 -2.69513e-22)
(0.551034 -0.0149197 5.22731e-21)
(0.570992 -0.0143229 -1.04328e-20)
(0.999874 -0.000161915 1.87354e-21)
(0.990957 -0.000509737 -1.13318e-21)
(0.974469 -0.000926598 2.46534e-23)
(0.951475 -0.00148856 -1.0776e-21)
(0.920886 -0.00222154 8.87173e-22)
(0.883456 -0.00326807 1.08734e-22)
(0.83606 -0.0046937 1.35612e-22)
(0.779823 -0.00661353 1.7383e-21)
(0.711505 -0.00940367 4.81359e-22)
(0.629137 -0.0125894 -2.0603e-21)
)
;
    }
    procBoundary18to19
    {
        type            processor;
        value           nonuniform List<vector> 
25
(
(0.40845 0.450304 1.85576e-19)
(0.429794 0.460826 -7.861e-20)
(0.359025 0.42246 2.61333e-21)
(0.359025 0.42246 2.61333e-21)
(0.311593 0.391691 -1.83223e-20)
(0.311593 0.391691 -1.83223e-20)
(0.247496 0.343918 7.58145e-20)
(0.266652 0.35842 -1.17271e-19)
(0.266652 0.35842 -1.17271e-19)
(0.206711 0.308395 3.38187e-20)
(0.206711 0.308395 3.38187e-20)
(0.169429 0.27174 -2.43632e-20)
(0.169429 0.27174 -2.43632e-20)
(0.135942 0.23462 -8.95708e-20)
(0.135942 0.23462 -8.95708e-20)
(0.10645 0.197745 -3.21461e-20)
(0.0929302 0.174665 -1.21376e-19)
(0.0929302 0.174665 -1.21376e-19)
(0.069995 0.139216 1.714e-20)
(0.069995 0.139216 1.714e-20)
(0.0510761 0.105907 -6.46637e-22)
(0.0440212 0.083285 3.17363e-20)
(0.0440212 0.083285 3.17363e-20)
(0.0311109 0.0543395 1.31431e-21)
(0.0278263 0.0327853 -5.49497e-21)
)
;
    }
    procBoundary18to24
    {
        type            processor;
        value           nonuniform List<vector> 
35
(
(0.450842 0.469491 -3.32551e-20)
(0.47155 0.476263 1.67121e-20)
(0.491875 0.481124 -3.65138e-20)
(0.511779 0.484075 1.69529e-19)
(0.501075 0.465278 3.41634e-20)
(0.501075 0.465278 3.41634e-20)
(0.520165 0.464138 -2.593e-22)
(0.538858 0.461294 -1.02692e-19)
(0.528684 0.43371 2.28881e-20)
(0.528684 0.43371 2.28881e-20)
(0.546951 0.42772 -3.15274e-20)
(0.564851 0.42042 5.22525e-20)
(0.582374 0.411936 2.5719e-21)
(0.574447 0.377863 2.24984e-20)
(0.574447 0.377863 2.24984e-20)
(0.591848 0.36786 -7.98605e-20)
(0.608887 0.357167 1.06002e-20)
(0.603947 0.321389 9.59099e-21)
(0.603947 0.321389 9.59099e-21)
(0.62093 0.310445 -2.22259e-20)
(0.637585 0.299226 1.49838e-19)
(0.65396 0.287799 -5.19386e-20)
(0.652136 0.253966 -1.24007e-19)
(0.652136 0.253966 -1.24007e-19)
(0.924353 0.0418942 -9.10135e-21)
(0.889965 0.0615387 -4.75137e-21)
(0.848325 0.0874598 6.75756e-21)
(0.802891 0.123101 -4.01487e-21)
(0.748739 0.171517 -2.33462e-20)
(0.69498 0.224985 1.51781e-20)
(0.999857 0.00341335 -2.25349e-21)
(0.991055 0.0106527 2.67225e-21)
(0.975264 0.0193733 -7.48678e-21)
(0.924353 0.0418942 -9.10135e-21)
(0.953242 0.0309973 -1.96267e-20)
)
;
    }
}


// ************************************************************************* //
