/*--------------------------------*- C++ -*----------------------------------*\
  =========                 |
  \\      /  F ield         | OpenFOAM: The Open Source CFD Toolbox
   \\    /   O peration     | Website:  https://openfoam.org
    \\  /    A nd           | Version:  7
     \\/     M anipulation  |
\*---------------------------------------------------------------------------*/
FoamFile
{
    version     2.0;
    format      ascii;
    class       surfaceScalarField;
    location    "20";
    object      phi;
}
// * * * * * * * * * * * * * * * * * * * * * * * * * * * * * * * * * * * * * //

dimensions      [0 3 -1 0 0 0 0];

internalField   nonuniform List<scalar> 
810
(
-1.07644e-05
4.88994e-06
-1.73389e-05
6.57444e-06
-2.57359e-05
8.39704e-06
-3.60976e-05
1.03617e-05
-4.85692e-05
1.24716e-05
1.47293e-05
-6.15641e-07
1.23401e-06
-2.52432e-06
3.8257e-06
-5.84907e-06
6.66386e-06
-1.07182e-05
9.75911e-06
-1.72651e-05
1.31213e-05
-2.56274e-05
1.67594e-05
-3.59469e-05
2.06811e-05
-4.83685e-05
2.48932e-05
2.94006e-05
-6.10202e-07
1.84421e-06
-2.50224e-06
5.71774e-06
-5.79833e-06
9.95995e-06
-1.0626e-05
1.45868e-05
-1.71179e-05
1.96131e-05
-2.54109e-05
2.50524e-05
-3.56461e-05
3.09164e-05
-4.79679e-05
3.7215e-05
4.39561e-05
-6.0207e-07
2.44628e-06
-2.46922e-06
7.58489e-06
-5.72246e-06
1.32132e-05
-1.04881e-05
1.93525e-05
-1.68977e-05
2.60227e-05
-2.5087e-05
3.32417e-05
-3.51961e-05
4.10255e-05
-4.73686e-05
4.93875e-05
-6.17507e-05
5.83382e-05
6.78847e-05
-5.91277e-07
3.03756e-06
-2.42539e-06
9.41901e-06
-5.62173e-06
1.64095e-05
-1.03051e-05
2.40358e-05
-1.66053e-05
3.23229e-05
-2.46569e-05
4.12933e-05
-3.45985e-05
5.09672e-05
-4.65726e-05
6.13616e-05
-6.07244e-05
7.24899e-05
8.43615e-05
-5.77865e-07
3.61542e-06
-2.37092e-06
1.12121e-05
-5.49653e-06
1.95351e-05
-1.00775e-05
2.86168e-05
-1.62418e-05
3.84871e-05
-2.41221e-05
4.91736e-05
-3.38555e-05
6.07005e-05
-4.55827e-05
7.30888e-05
-5.94478e-05
8.6355e-05
-7.55971e-05
0.000100511
0.000115562
-5.61887e-07
4.17731e-06
-2.30602e-06
1.29562e-05
-5.34734e-06
2.25765e-05
-9.80628e-06
3.30758e-05
-1.58085e-05
4.44894e-05
-2.34846e-05
5.68496e-05
-3.29694e-05
7.01854e-05
-4.44022e-05
8.45216e-05
-5.79251e-05
9.9878e-05
-7.36834e-05
0.000116269
-9.18239e-05
0.000133703
0.000152181
-5.43406e-07
4.72072e-06
-2.23093e-06
1.46437e-05
-5.17471e-06
2.55202e-05
-9.49242e-06
3.73935e-05
-1.5307e-05
5.0304e-05
-2.27465e-05
6.42891e-05
-3.19436e-05
7.93825e-05
-4.3035e-05
9.5613e-05
-5.61614e-05
0.000113004
-7.14663e-05
0.000131574
-8.90953e-05
0.000151332
0.000172281
-5.22497e-07
5.24321e-06
-2.14597e-06
1.62672e-05
-4.97933e-06
2.83536e-05
-9.13711e-06
4.15512e-05
-1.47392e-05
5.59061e-05
-2.19107e-05
7.14606e-05
-3.07815e-05
8.82533e-05
-4.14861e-05
0.000106318
-5.41627e-05
0.000125681
-6.8953e-05
0.000146364
-8.60015e-05
0.00016838
-0.000105454
0.000191734
0.000216421
-4.99245e-07
5.74246e-06
-2.05146e-06
1.78194e-05
-4.76198e-06
3.10641e-05
-8.74175e-06
4.5531e-05
-1.41073e-05
6.12716e-05
-2.09803e-05
7.83336e-05
-2.94877e-05
9.67607e-05
-3.97609e-05
0.000116591
-5.19359e-05
0.000137856
-6.61523e-05
0.000160581
-8.25527e-05
0.000184781
-0.000101282
0.000210464
-0.000122488
0.000237626
0.000266254
-4.73753e-07
6.21621e-06
-1.94782e-06
1.92935e-05
-4.52355e-06
3.36398e-05
-8.30797e-06
4.93155e-05
-1.34137e-05
6.63773e-05
-1.99589e-05
8.48788e-05
-2.80669e-05
0.000104869
-3.7866e-05
0.00012639
-4.94893e-05
0.000149479
-6.3074e-05
0.000174165
-7.87607e-05
0.000200468
-9.66933e-05
0.000228396
-0.000117018
0.000257951
-0.000139881
0.000289118
-0.000165431
0.000321872
0.000356177
-4.46132e-07
6.66234e-06
-1.83549e-06
2.06828e-05
-4.26508e-06
3.60694e-05
-7.83762e-06
5.2888e-05
-1.26615e-05
7.12012e-05
-1.88508e-05
9.10681e-05
-2.6525e-05
0.000112543
-3.5809e-05
0.000135674
-4.68324e-05
0.000160503
-5.97297e-05
0.000187063
-7.46395e-05
0.000215377
-9.17038e-05
0.000245461
-0.000111068
0.000277314
-0.000132878
0.000310928
-0.000157282
0.000346277
-0.00018443
0.000383324
0.000422018
-4.16516e-07
7.07886e-06
-1.71501e-06
2.19813e-05
-3.98778e-06
3.83422e-05
-7.33285e-06
5.62331e-05
-1.1854e-05
7.57224e-05
-1.76609e-05
9.6875e-05
-2.48687e-05
0.000119751
-3.35984e-05
0.000144404
-4.39761e-05
0.00017088
-5.61331e-05
0.00019922
-7.02053e-05
0.00022945
-8.63328e-05
0.000261588
-0.000104659
0.000295641
-0.000125331
0.0003316
-0.000148497
0.000369443
-0.000174306
0.000409133
-0.000202908
0.00045062
0.000493835
-3.85054e-07
7.46391e-06
-1.58699e-06
2.31833e-05
-3.69301e-06
4.04482e-05
-6.79611e-06
5.93362e-05
-1.09951e-05
7.99214e-05
-1.63948e-05
0.000102275
-2.31057e-05
0.000126462
-3.12444e-05
0.000152542
-4.09332e-05
0.000180569
-5.22996e-05
0.000210586
-6.54768e-05
0.000242627
-8.06023e-05
0.000276714
-9.78183e-05
0.000312857
-0.00011727
0.000351052
-0.000139107
0.000391279
-0.000163478
0.000433505
-0.000190536
0.000477678
-0.000220432
0.00052373
0.00057158
-3.5192e-07
7.81583e-06
-1.45209e-06
2.42834e-05
-3.38234e-06
4.23785e-05
-6.23022e-06
6.2184e-05
-1.00892e-05
8.37804e-05
-1.50588e-05
0.000107244
-2.12447e-05
0.000132648
-2.87585e-05
0.000160056
-3.77182e-05
0.000189529
-4.82474e-05
0.000221115
-6.04757e-05
0.000254855
-7.45381e-05
0.000290776
-9.05745e-05
0.000328893
-0.000108729
0.000369206
-0.000129151
0.000411701
-0.00015199
0.000456344
-0.0001774
0.000503088
-0.000205536
0.000551866
-0.00023655
0.000602594
-0.000270594
0.000655173
0.000709489
-3.17304e-07
8.13314e-06
-1.31111e-06
2.52773e-05
-3.05751e-06
4.41249e-05
-5.63833e-06
6.47649e-05
-9.14132e-06
8.72834e-05
-1.36604e-05
0.000111763
-1.92957e-05
0.000138283
-2.61538e-05
0.000166914
-3.43477e-05
0.000197723
-4.39968e-05
0.000230764
-5.52268e-05
0.000266085
-6.81694e-05
0.000303719
-8.29621e-05
0.000343686
-9.97477e-05
0.000385992
-0.000118674
0.000430627
-0.000139891
0.000477562
-0.000163555
0.000526752
-0.000189822
0.000578132
-0.000218849
0.000631621
-0.000250793
0.000687117
-0.00028581
0.000744505
0.000803655
-2.8142e-07
8.41456e-06
-1.1649e-06
2.61607e-05
-2.72049e-06
4.56805e-05
-5.02394e-06
6.70683e-05
-8.15695e-06
9.04164e-05
-1.22074e-05
0.000115814
-1.72697e-05
0.000143345
-2.34448e-05
0.000173089
-3.08403e-05
0.000205118
-3.95709e-05
0.000239495
-4.97579e-05
0.000276272
-6.15294e-05
0.00031549
-7.50198e-05
0.000357176
-9.03699e-05
0.000401342
-0.000107726
0.000447983
-0.000127239
0.000497075
-0.000149065
0.000548578
-0.000173362
0.000602429
-0.000200291
0.00065855
-0.000230014
0.000716839
-0.00026269
0.000777182
-0.00029848
0.000839445
-0.000337536
0.000903483
0.000969144
-2.445e-07
8.65906e-06
-1.01437e-06
2.69306e-05
-2.37337e-06
4.70394e-05
-4.39086e-06
6.90858e-05
-7.14214e-06
9.31677e-05
-1.07088e-05
0.00011938
-1.51788e-05
0.000147815
-2.06473e-05
0.000178558
-2.72163e-05
0.000211687
-3.49948e-05
0.000247273
-4.40996e-05
0.000285377
-5.46545e-05
0.000326045
-6.67904e-05
0.000369312
-8.06455e-05
0.000415197
-9.63644e-05
0.000463702
-0.000114098
0.000514809
-0.000134001
0.000568481
-0.000156236
0.000624664
-0.000180964
0.000683278
-0.000208353
0.000744228
-0.000238567
0.000807396
-0.000271773
0.00087265
-0.000308132
0.000939842
-0.000347802
0.00100881
0.0010794
-2.06786e-07
8.86584e-06
-8.6052e-07
2.75843e-05
-2.01839e-06
4.81973e-05
-3.7431e-06
7.08105e-05
-6.10323e-06
9.55278e-05
-9.17364e-06
0.000122451
-1.30358e-05
0.000151677
-1.77784e-05
0.0001833
-2.34971e-05
0.000217406
-3.02954e-05
0.000254072
-3.82846e-05
0.000293366
-4.75838e-05
0.000335344
-5.832e-05
0.000380048
-7.06282e-05
0.000427505
-8.46507e-05
0.000477724
-0.000100537
0.000530695
-0.000118443
0.000586388
-0.000138531
0.000644751
-0.000160966
0.000705714
-0.000185919
0.00076918
-0.00021356
0.000835037
-0.000244061
0.000903151
-0.000277592
0.000973373
-0.00031432
-1.68527e-07
9.03437e-06
-7.04338e-07
2.81201e-05
-1.65783e-06
4.91508e-05
-3.08478e-06
7.22375e-05
-5.04676e-06
9.74898e-05
-7.61161e-06
0.000125016
-1.08539e-05
0.00015492
-1.48553e-05
0.000187302
-1.9705e-05
0.000222256
-2.55004e-05
0.000259867
-3.23466e-05
0.000300212
-4.03578e-05
0.000343355
-4.96564e-05
0.000389347
-6.03735e-05
0.000438223
-7.26488e-05
0.000489999
-8.66302e-05
0.000544676
-0.000102473
0.000602231
-0.00012034
0.000662618
-0.0001404
0.000725773
-0.000162825
0.000791606
-0.000187793
0.000860005
-0.000215482
-1.29972e-07
9.16434e-06
-5.46824e-07
2.8537e-05
-1.29397e-06
4.9898e-05
-2.42002e-06
7.33635e-05
-3.97927e-06
9.90491e-05
-6.03225e-06
0.000127069
-8.64617e-06
0.000157534
-1.18955e-05
0.000190551
-1.58625e-05
0.000226223
-2.06376e-05
0.000264642
-2.63199e-05
0.000305895
-3.30175e-05
0.000350053
-4.08477e-05
0.000397177
-4.99376e-05
0.000447312
-6.04233e-05
0.000500485
-7.24504e-05
0.000556703
-8.61736e-05
0.000615954
-0.000101756
0.000678201
-0.000119367
0.000743385
-0.000139185
-9.13588e-08
9.2557e-06
-3.88949e-07
2.88346e-05
-9.29027e-07
5.0438e-05
-1.75284e-06
7.41873e-05
-2.90717e-06
0.000100203
-4.44491e-06
0.000128606
-6.42566e-06
0.000159514
-8.91627e-06
0.000193042
-1.19915e-05
0.000229298
-1.57347e-05
0.000268385
-2.02379e-05
0.000310398
-2.5603e-05
0.000355418
-3.19415e-05
0.000403516
-3.93755e-05
0.000454746
-4.80372e-05
0.000509147
-5.80693e-05
0.000566736
-6.96248e-05
0.000627509
-8.28664e-05
-5.292e-08
9.30862e-06
-2.31652e-07
2.90133e-05
-5.65158e-07
5.07715e-05
-1.08715e-06
7.47093e-05
-1.83667e-06
0.000100953
-2.85875e-06
0.000129628
-4.20501e-06
0.000160861
-5.93435e-06
0.000194771
-8.11366e-06
0.000231477
-1.08184e-05
0.00027109
-1.41335e-05
0.000313713
-1.81537e-05
0.000359438
-2.29842e-05
0.000408346
-2.87413e-05
0.000460503
-3.55524e-05
-4.35566e-05
-1.48801e-08
9.3235e-06
-7.58456e-08
2.90743e-05
-2.04462e-07
5.09002e-05
-4.26763e-07
7.49316e-05
-7.73887e-07
0.0001013
-1.28273e-06
0.000130137
-1.99667e-06
0.000161575
-2.96629e-06
0.000195741
-4.25014e-06
0.000232761
-5.91556e-06
0.000272756
-8.0394e-06
0.000315837
-1.07088e-05
0.000362108
-1.40218e-05
2.25408e-08
9.30096e-06
7.75705e-08
2.90193e-05
1.50983e-07
5.08268e-05
2.24525e-07
7.48581e-05
2.75135e-07
0.000101249
2.74228e-07
0.000130138
1.86956e-07
0.000161662
-2.86022e-08
0.000195956
-4.2229e-07
0.000233155
-1.05273e-06
0.000273386
-1.9882e-06
5.912e-08
9.24184e-06
2.27688e-07
2.88507e-05
4.99084e-07
5.05554e-05
8.62904e-07
7.44942e-05
1.30427e-06
0.000100808
1.8031e-06
0.000129639
2.33329e-06
0.000161132
2.86189e-06
0.000195428
3.34819e-06
9.46323e-08
9.14721e-06
3.73587e-07
2.85717e-05
8.37712e-07
5.00912e-05
1.48448e-06
7.38475e-05
2.30727e-06
9.99853e-05
3.29462e-06
0.000128652
4.4294e-06
0.000159997
1.28849e-07
9.01836e-06
5.14328e-07
2.81863e-05
1.1647e-06
4.94409e-05
2.08528e-06
7.29269e-05
3.27775e-06
9.87928e-05
4.73934e-06
1.61539e-07
8.85682e-06
6.48965e-07
2.76988e-05
1.47784e-06
4.8612e-05
2.66128e-06
1.92474e-07
8.66434e-06
7.7656e-07
)
;

boundaryField
{
    inlet
    {
        type            calculated;
        value           nonuniform 0();
    }
    outlet
    {
        type            calculated;
        value           nonuniform 0();
    }
    cylinder
    {
        type            calculated;
        value           uniform 0;
    }
    top
    {
        type            symmetryPlane;
        value           nonuniform 0();
    }
    bottom
    {
        type            symmetryPlane;
        value           nonuniform 0();
    }
    defaultFaces
    {
        type            empty;
        value           nonuniform 0();
    }
    procBoundary13to6
    {
        type            processor;
        value           nonuniform List<scalar> 8(-0.00030782 -0.000765415 -0.000324051 -0.000864426 -0.00092667 -0.00038001 -0.00103627 -0.000390934);
    }
    procBoundary13to7
    {
        type            processor;
        value           nonuniform List<scalar> 
38
(
0.00104554
-0.000354405
0.00111949
0.00093084
-0.00024607
0.00100396
0.000811424
-0.000161391
0.000882212
0.000691442
-9.79661e-05
0.000758484
0.000515958
0.00057474
-5.29044e-05
0.000636857
0.000411659
-1.80883e-05
0.00046457
0.000316772
-3.30753e-06
0.000363427
0.000232668
3.74274e-06
0.000272991
5.6879e-06
0.000194169
0.00012719
6.46204e-06
0.000158274
7.17435e-05
4.20921e-06
9.72449e-05
2.71147e-05
1.77497e-06
4.76136e-05
2.21431e-07
8.44291e-06
)
;
    }
    procBoundary13to12
    {
        type            processor;
        value           nonuniform List<scalar> 
26
(
-6.32985e-05
-6.30398e-05
-6.25233e-05
-5.11447e-05
-7.84907e-05
-7.72012e-05
-9.6981e-05
-9.41785e-05
-0.00013151
-0.000112495
-0.000109196
-0.000194416
-0.000127459
-0.000242426
-0.000146316
-0.000296322
-0.000327793
-0.000193815
-0.00039198
-0.000214468
-0.000462292
-0.00023445
-0.000538697
-0.000253315
-0.000621128
-0.000672263
)
;
    }
    procBoundary13to19
    {
        type            processor;
        value           nonuniform List<scalar> 10(-1.40265e-13 -1.57599e-13 -1.57643e-13 -1.5492e-13 -1.27028e-13 -7.73586e-14 -6.18366e-07 -1.91702e-06 5.87449e-06 -3.33911e-06);
    }
}


// ************************************************************************* //
