/*--------------------------------*- C++ -*----------------------------------*\
  =========                 |
  \\      /  F ield         | OpenFOAM: The Open Source CFD Toolbox
   \\    /   O peration     | Website:  https://openfoam.org
    \\  /    A nd           | Version:  7
     \\/     M anipulation  |
\*---------------------------------------------------------------------------*/
FoamFile
{
    version     2.0;
    format      ascii;
    class       volScalarField;
    location    "2.4";
    object      p;
}
// * * * * * * * * * * * * * * * * * * * * * * * * * * * * * * * * * * * * * //

dimensions      [1 -1 -2 0 0 0 0];

internalField   nonuniform List<scalar> 
100800
(
1
1
1
1
1
1
1
1
1
1
1
1
1
1
1
1
1
1
1
1
1
1
1
1
1
1
1
1
1
1
1
1
1
1
1
1
1
1
1
1
1
1
1
1
1
1
1
1
1
1
1
1
1
1
1
1
1
1
1
1
1
1
6.32108
10.4552
10.5031
10.5407
10.5863
10.6296
10.6712
10.711
10.7495
10.7889
10.8315
10.8784
10.9292
10.9799
11.0273
11.0713
11.1123
11.1516
11.1905
11.23
11.269
11.3039
11.3337
11.3605
11.3856
11.4099
11.4366
11.4658
11.499
11.5389
11.5835
11.6292
11.6717
11.7069
11.7326
11.75
11.7629
11.7752
11.7914
11.8149
11.8427
11.8684
11.8882
11.9031
11.9161
11.9303
11.9466
11.9648
11.9837
12.0015
12.0179
12.0313
12.0413
12.0463
12.0463
12.0418
12.0348
12.0317
1
1
1
1
1
1
1
1
1
1
1
1
1
1
1
1
1
1
1
1
1
1
1
1
1
1
1
1
1
1
1
1
1
1
1
1
1
1
1
1
1
1
1
1
1
1
1
1
1
1
1
1
1
1
1
1
1
1
1
1
1
1
6.29722
10.4435
10.4962
10.5379
10.5865
10.6317
10.6737
10.7129
10.7507
10.7893
10.8315
10.8775
10.9274
10.9779
11.0254
11.0693
11.1102
11.1491
11.1872
11.2259
11.2651
11.3016
11.3334
11.3616
11.3873
11.4109
11.4366
11.4648
11.4978
11.5378
11.5825
11.6281
11.6702
11.7049
11.7305
11.7479
11.7611
11.7738
11.7904
11.814
11.8418
11.8673
11.887
11.9018
11.9147
11.9287
11.9448
11.9629
11.9816
11.9991
12.015
12.0281
12.0383
12.0437
12.0444
12.0406
12.0342
12.031
1
1
1
1
1
1
1
1
1
1
1
1
1
1
1
1
1
1
1
1
1
1
1
1
1
1
1
1
1
1
1
1
1
1
1
1
1
1
1
1
1
1
1
1
1
1
1
1
1
1
1
1
1
1
1
1
1
1
1
1
1
1
6.24098
10.4262
10.4851
10.5324
10.5847
10.6327
10.6761
10.7155
10.7527
10.7905
10.8314
10.8763
10.9248
10.9747
11.0222
11.066
11.1067
11.1451
11.1822
11.2199
11.2594
11.2975
11.3318
11.3621
11.3888
11.4118
11.4363
11.4633
11.496
11.536
11.5809
11.6263
11.6678
11.7018
11.727
11.7446
11.7581
11.7714
11.7886
11.8124
11.84
11.8654
11.8851
11.8998
11.9124
11.9259
11.9418
11.9598
11.9785
11.9958
12.0111
12.0236
12.0336
12.0392
12.0409
12.0383
12.0331
12.0301
1
1
1
1
1
1
1
1
1
1
1
1
1
1
1
1
1
1
1
1
1
1
1
1
1
1
1
1
1
1
1
1
1
1
1
1
1
1
1
1
1
1
1
1
1
1
1
1
1
1
1
1
1
1
1
1
1
1
1
1
1
1
6.1456
10.4023
10.4757
10.5265
10.5811
10.6314
10.6765
10.7167
10.7548
10.7926
10.8323
10.8753
10.9217
10.9703
11.0171
11.0606
11.1009
11.1391
11.1755
11.2126
11.2526
11.2926
11.3292
11.3616
11.3895
11.4121
11.4354
11.4611
11.4933
11.5334
11.5784
11.6235
11.6643
11.6974
11.7219
11.7395
11.7536
11.7678
11.7857
11.8098
11.8372
11.8624
11.882
11.8968
11.9092
11.9221
11.9374
11.9549
11.9733
11.9903
12.0051
12.0172
12.027
12.0329
12.0356
12.0345
12.0308
12.0284
1
1
1
1
1
1
1
1
1
1
1
1
1
1
1
1
1
1
1
1
1
1
1
1
1
1
1
1
1
1
1
1
1
1
1
1
1
1
1
1
1
1
1
1
1
1
1
1
1
1
1
1
1
1
1
1
1
1
1
1
1
1
6.01045
10.3727
10.4682
10.5205
10.5751
10.6262
10.6727
10.7147
10.7546
10.794
10.8338
10.8752
10.9192
10.9654
11.0109
11.0535
11.0935
11.1317
11.1681
11.2051
11.2457
11.287
11.3254
11.3594
11.3883
11.411
11.4331
11.4578
11.4897
11.5297
11.5748
11.6198
11.6598
11.6917
11.7154
11.7327
11.7475
11.7627
11.7817
11.8061
11.8331
11.858
11.8778
11.8929
11.9053
11.9176
11.9319
11.9485
11.9664
11.9833
11.9978
12.0096
12.0191
12.0255
12.029
12.0294
12.0274
12.0259
1
1
1
1
1
1
1
1
1
1
1
1
1
1
1
1
1
1
1
1
1
1
1
1
1
1
1
1
1
1
1
1
1
1
1
1
1
1
1
1
1
1
1
1
1
1
1
1
1
1
1
1
1
1
1
1
1
1
1
1
1
1
5.83769
10.3393
10.4626
10.5143
10.5687
10.6197
10.6668
10.7099
10.7516
10.7928
10.8337
10.8748
10.9168
10.9606
11.0044
11.0456
11.0851
11.1236
11.1604
11.1977
11.2387
11.2809
11.3201
11.3552
11.3848
11.4078
11.4294
11.4533
11.4847
11.5247
11.5701
11.6151
11.6543
11.685
11.7075
11.7245
11.7398
11.7564
11.7765
11.8012
11.8279
11.8524
11.8724
11.8881
11.9007
11.9124
11.9254
11.9406
11.9576
11.9744
11.9891
12.0009
12.0104
12.0171
12.0211
12.0228
12.0225
12.022
1
1
1
1
1
1
1
1
1
1
1
1
1
1
1
1
1
1
1
1
1
1
1
1
1
1
1
1
1
1
1
1
1
1
1
1
1
1
1
1
1
1
1
1
1
1
1
1
1
1
1
1
1
1
1
1
1
1
1
1
1
1
5.62897
10.3003
10.4576
10.5081
10.5622
10.6126
10.66
10.7033
10.7458
10.7886
10.8311
10.873
10.9138
10.956
10.9979
11.0378
11.0766
11.1154
11.1526
11.19
11.2312
11.2738
11.3132
11.3492
11.3794
11.4028
11.4242
11.4473
11.4783
11.5182
11.564
11.6091
11.6478
11.6773
11.6986
11.715
11.7309
11.7486
11.7698
11.7947
11.8209
11.845
11.8653
11.8818
11.895
11.9064
11.918
11.9314
11.9471
11.9639
11.9792
11.9914
12.0011
12.0078
12.012
12.0147
12.0158
12.0163
1
1
1
1
1
1
1
1
1
1
1
1
1
1
1
1
1
1
1
1
1
1
1
1
1
1
1
1
1
1
1
1
1
1
1
1
1
1
1
1
1
1
1
1
1
1
1
1
1
1
1
1
1
1
1
1
1
1
1
1
1
1
5.386
10.2532
10.4512
10.5008
10.5557
10.606
10.6532
10.6964
10.7385
10.7817
10.8256
10.8687
10.9099
10.9507
10.9917
11.0305
11.0687
11.1074
11.1448
11.1819
11.2227
11.2653
11.3049
11.342
11.3728
11.3967
11.4181
11.4402
11.4706
11.5102
11.5563
11.6015
11.6398
11.6681
11.6884
11.7043
11.7203
11.7388
11.7609
11.7861
11.812
11.836
11.8567
11.8742
11.8881
11.8994
11.9097
11.9211
11.9355
11.952
11.9679
11.9808
11.991
11.9978
12.0019
12.0052
12.0074
12.0087
1
1
1
1
1
1
1
1
1
1
1
1
1
1
1
1
1
1
1
1
1
1
1
1
1
1
1
1
1
1
1
1
1
1
1
1
1
1
1
1
1
1
1
1
1
1
1
1
1
1
1
1
1
1
1
1
1
1
1
1
1
1
5.11047
10.196
10.4439
10.4924
10.5484
10.5992
10.6466
10.6895
10.7308
10.7735
10.818
10.8619
10.9041
10.9447
10.9852
11.0235
11.0612
11.0995
11.1368
11.1732
11.2132
11.2556
11.2954
11.3335
11.3652
11.3894
11.4108
11.4319
11.4615
11.5006
11.5465
11.5915
11.6296
11.6574
11.6773
11.6929
11.7088
11.7274
11.7499
11.7754
11.8014
11.8256
11.847
11.8652
11.8796
11.8909
11.9003
11.91
11.9229
11.939
11.9552
11.9689
11.9797
11.9866
11.9906
11.9941
11.9969
11.9986
1
1
1
1
1
1
1
1
1
1
1
1
1
1
1
1
1
1
1
1
1
1
1
1
1
1
1
1
1
1
1
1
1
1
1
1
1
1
1
1
1
1
1
1
1
1
1
1
1
1
1
1
1
1
1
1
1
1
1
1
1
1
4.80547
10.1261
10.4346
10.4826
10.5399
10.5916
10.6396
10.6826
10.7231
10.765
10.8092
10.8537
10.8964
10.9375
10.9781
11.0165
11.0534
11.091
11.1277
11.1634
11.2024
11.2445
11.2847
11.3237
11.3563
11.3808
11.4025
11.4232
11.4519
11.49
11.535
11.5794
11.6172
11.645
11.6651
11.6806
11.696
11.7144
11.7369
11.7628
11.7893
11.8142
11.8362
11.8547
11.8693
11.8804
11.8892
11.8977
11.9096
11.9249
11.9412
11.9555
11.967
11.9743
11.9783
11.9818
11.9846
11.9865
1
1
1
1
1
1
1
1
1
1
1
1
1
1
1
1
1
1
1
1
1
1
1
1
1
1
1
1
1
1
1
1
1
1
1
1
1
1
1
1
1
1
1
1
1
1
1
1
1
1
1
1
1
1
1
1
1
1
1
1
1
1
4.47043
10.0422
10.4251
10.4727
10.531
10.5833
10.6318
10.6753
10.7153
10.756
10.7995
10.8441
10.8874
10.9288
10.97
11.0092
11.0455
11.082
11.1183
11.1535
11.1916
11.2332
11.2735
11.3126
11.3456
11.3704
11.3923
11.4129
11.4408
11.4775
11.5212
11.5649
11.6028
11.6316
11.6527
11.6685
11.6832
11.7003
11.722
11.7479
11.775
11.8008
11.8233
11.8421
11.8566
11.8677
11.8764
11.8845
11.8956
11.9101
11.9259
11.9405
11.9526
11.9605
11.9648
11.9681
11.9706
11.9721
1
1
1
1
1
1
1
1
1
1
1
1
1
1
1
1
1
1
1
1
1
1
1
1
1
1
1
1
1
1
1
1
1
1
1
1
1
1
1
1
1
1
1
1
1
1
1
1
1
1
1
1
1
1
1
1
1
1
1
1
1
1
4.10758
9.93872
10.4185
10.465
10.5232
10.5748
10.623
10.6667
10.7067
10.7466
10.789
10.8329
10.8764
10.9183
10.9597
10.9993
11.035
11.0703
11.1062
11.1415
11.179
11.2207
11.2613
11.3004
11.3338
11.3592
11.3821
11.403
11.4304
11.4655
11.5073
11.5492
11.5864
11.6156
11.6374
11.6534
11.6674
11.6835
11.7048
11.731
11.7592
11.786
11.8091
11.8279
11.8421
11.8532
11.862
11.8703
11.8808
11.8943
11.9094
11.9237
11.9363
11.945
11.9497
11.953
11.9549
11.956
1
1
1
1
1
1
1
1
1
1
1
1
1
1
1
1
1
1
1
1
1
1
1
1
1
1
1
1
1
1
1
1
1
1
1
1
1
1
1
1
1
1
1
1
1
1
1
1
1
1
1
1
1
1
1
1
1
1
1
1
1
1
3.72222
9.80913
10.4125
10.4575
10.5154
10.5664
10.6141
10.6578
10.6977
10.7366
10.7779
10.8214
10.8651
10.908
10.9498
10.9897
11.0253
11.059
11.094
11.1288
11.1658
11.2073
11.248
11.2865
11.3198
11.3451
11.3682
11.3893
11.4163
11.4505
11.4912
11.532
11.5688
11.5982
11.6205
11.6366
11.6501
11.6657
11.6868
11.7133
11.7422
11.7696
11.7928
11.8113
11.8255
11.8367
11.8459
11.8547
11.8648
11.8772
11.8915
11.9053
11.9181
11.9275
11.9329
11.9363
11.9377
11.9383
1
1
1
1
1
1
1
1
1
1
1
1
1
1
1
1
1
1
1
1
1
1
1
1
1
1
1
1
1
1
1
1
1
1
1
1
1
1
1
1
1
1
1
1
1
1
1
1
1
1
1
1
1
1
1
1
1
1
1
1
1
1
3.32137
9.64727
10.4098
10.4525
10.5083
10.5573
10.6039
10.6468
10.6861
10.7236
10.7632
10.8058
10.8494
10.8928
10.9353
10.9763
11.0126
11.0457
11.0797
11.1141
11.1506
11.1925
11.234
11.2727
11.3062
11.3314
11.3541
11.3747
11.4011
11.4348
11.475
11.5152
11.5508
11.5792
11.6006
11.6165
11.6303
11.6464
11.6682
11.6954
11.7245
11.7516
11.7743
11.7924
11.8065
11.8181
11.8279
11.8374
11.8471
11.8586
11.8718
11.8849
11.8978
11.9078
11.9137
11.9173
11.9186
11.9189
1
1
1
1
1
1
1
1
1
1
1
1
1
1
1
1
1
1
1
1
1
1
1
1
1
1
1
1
1
1
1
1
1
1
1
1
1
1
1
1
1
1
1
1
1
1
1
1
1
1
1
1
1
1
1
1
1
1
1
1
1
1
2.91702
9.44109
10.4101
10.4481
10.5014
10.5483
10.5933
10.6356
10.6746
10.7114
10.7498
10.7913
10.8346
10.8785
10.9216
10.9633
11.0007
11.0333
11.066
11.0993
11.1345
11.1764
11.2189
11.2582
11.2921
11.3167
11.3382
11.3577
11.3835
11.4174
11.4579
11.4977
11.5319
11.5583
11.5782
11.5937
11.6086
11.6264
11.6495
11.6773
11.7058
11.7316
11.7529
11.7705
11.785
11.7975
11.8084
11.8185
11.8276
11.8379
11.8502
11.8627
11.8757
11.8861
11.8923
11.8964
11.8978
11.8982
1
1
1
1
1
1
1
1
1
1
1
1
1
1
1
1
1
1
1
1
1
1
1
1
1
1
1
1
1
1
1
1
1
1
1
1
1
1
1
1
1
1
1
1
1
1
1
1
1
1
1
1
1
1
1
1
1
1
1
1
1
1
2.51819
9.17339
10.4145
10.4458
10.4951
10.5392
10.5822
10.6233
10.6623
10.6995
10.7373
10.7775
10.8199
10.8632
10.9063
10.9486
10.9874
11.0204
11.052
11.0839
11.1177
11.1588
11.2022
11.2425
11.277
11.3013
11.3213
11.3394
11.3644
11.3985
11.4397
11.4795
11.5123
11.5363
11.5538
11.5687
11.5848
11.6047
11.6296
11.658
11.6857
11.7098
11.7296
11.7465
11.7615
11.775
11.7868
11.7972
11.8057
11.815
11.8264
11.8388
11.8519
11.8625
11.8689
11.8733
11.8752
11.876
1
1
1
1
1
1
1
1
1
1
1
1
1
1
1
1
1
1
1
1
1
1
1
1
1
1
1
1
1
1
1
1
1
1
1
1
1
1
1
1
1
1
1
1
1
1
1
1
1
1
1
1
1
1
1
1
1
1
1
1
1
1
2.1433
8.83491
10.4224
10.4413
10.4856
10.5269
10.5692
10.6103
10.6497
10.6877
10.7256
10.765
10.806
10.8481
10.8904
10.9324
10.9723
11.0061
11.0371
11.0681
11.1009
11.1408
11.1845
11.2254
11.2603
11.2845
11.3035
11.3204
11.3445
11.3784
11.4196
11.4592
11.4906
11.5125
11.5281
11.5426
11.56
11.582
11.6085
11.6372
11.6638
11.686
11.7041
11.7203
11.7356
11.7501
11.7628
11.7733
11.7813
11.7899
11.8007
11.8131
11.8264
11.8369
11.8433
11.848
11.8506
11.8519
1
1
1
1
1
1
1
1
1
1
1
1
1
1
1
1
1
1
1
1
1
1
1
1
1
1
1
1
1
1
1
1
1
1
1
1
1
1
1
1
1
1
1
1
1
1
1
1
1
1
1
1
1
1
1
1
1
1
1
1
1
1
1.80705
8.4278
10.4357
10.4333
10.4776
10.5156
10.5563
10.5971
10.6373
10.6765
10.7149
10.7532
10.7926
10.833
10.8739
10.9147
10.9547
10.9896
11.0209
11.052
11.0846
11.1227
11.1657
11.206
11.241
11.2657
11.2847
11.3016
11.3249
11.3576
11.3974
11.4358
11.466
11.4868
11.5018
11.5167
11.5352
11.5584
11.5853
11.6136
11.6391
11.6599
11.6769
11.6926
11.7081
11.7233
11.7366
11.7471
11.7548
11.7628
11.7731
11.7854
11.7984
11.8086
11.8149
11.8199
11.8232
11.825
1
1
1
1
1
1
1
1
1
1
1
1
1
1
1
1
1
1
1
1
1
1
1
1
1
1
1
1
1
1
1
1
1
1
1
1
1
1
1
1
1
1
1
1
1
1
1
1
1
1
1
1
1
1
1
1
1
1
1
1
1
1
1.51656
7.95042
10.422
10.4199
10.4623
10.4977
10.5389
10.5802
10.6217
10.6627
10.7026
10.7412
10.7796
10.8185
10.8578
10.8969
10.9359
10.9714
11.0032
11.035
11.0677
11.1039
11.1453
11.1845
11.2192
11.2449
11.2647
11.2824
11.3046
11.3352
11.3726
11.4092
11.4388
11.4599
11.4756
11.4915
11.5105
11.5337
11.5598
11.5868
11.6114
11.6317
11.6485
11.664
11.6794
11.6946
11.7078
11.7181
11.7258
11.7334
11.7432
11.7552
11.7678
11.7776
11.7839
11.7893
11.7932
11.7953
1
1
1
1
1
1
1
1
1
1
1
1
1
1
1
1
1
1
1
1
1
1
1
1
1
1
1
1
1
1
1
1
1
1
1
1
1
1
1
1
1
1
1
1
1
1
1
1
1
1
1
1
1
1
1
1
1
1
1
1
1
1
1.26777
7.43127
10.3884
10.4055
10.4453
10.4826
10.525
10.5664
10.6076
10.6482
10.6878
10.7259
10.7635
10.8016
10.8402
10.8786
10.9167
10.9524
10.9844
11.0165
11.0492
11.0839
11.1234
11.1613
11.1954
11.222
11.2427
11.2615
11.2828
11.3111
11.3455
11.3804
11.4098
11.4321
11.4494
11.4663
11.4853
11.5075
11.5318
11.557
11.5807
11.6013
11.6188
11.6345
11.6494
11.6639
11.6764
11.6865
11.6944
11.7021
11.7111
11.7222
11.734
11.7435
11.75
11.7557
11.7601
11.7624
1
1
1
1
1
1
1
1
1
1
1
1
1
1
1
1
1
1
1
1
1
1
1
1
1
1
1
1
1
1
1
1
1
1
1
1
1
1
1
1
1
1
1
1
1
1
1
1
1
1
1
1
1
1
1
1
1
1
1
1
1
1
1.04141
6.83015
10.3488
10.3774
10.4156
10.4585
10.5045
10.5485
10.591
10.6317
10.6704
10.7081
10.7459
10.784
10.8221
10.8599
10.8971
10.9326
10.9644
10.9962
11.0284
11.0618
11.0994
11.1362
11.1697
11.1971
11.2185
11.238
11.2586
11.2847
11.3165
11.3499
11.3796
11.4035
11.4227
11.4407
11.4593
11.4799
11.5018
11.5248
11.5475
11.5687
11.5872
11.6033
11.6177
11.631
11.6426
11.6525
11.6608
11.6684
11.6765
11.6861
11.6968
11.7063
11.7132
11.7193
11.7238
11.7261
1
1
1
1
1
1
1
1
1
1
1
1
1
1
1
1
1
1
1
1
1
1
1
1
1
1
1
1
1
1
1
1
1
1
1
1
1
1
1
1
1
1
1
1
1
1
1
1
1
1
1
1
1
1
1
1
1
1
1
1
1
1
1.00075
6.17027
10.2299
10.3267
10.3845
10.4383
10.4875
10.5324
10.574
10.6134
10.6512
10.688
10.7246
10.7621
10.8009
10.8397
10.8772
10.9122
10.9431
10.9733
11.0043
11.0365
11.0727
11.1089
11.1421
11.1702
11.1919
11.2116
11.2313
11.2558
11.2859
11.3187
11.3491
11.3745
11.3951
11.4136
11.4316
11.4504
11.4699
11.4905
11.512
11.5333
11.5527
11.5694
11.5834
11.5957
11.6065
11.6164
11.6249
11.6324
11.6393
11.6471
11.6564
11.6657
11.6731
11.6795
11.6838
11.6859
1
1
1
1
1
1
1
1
1
1
1
1
1
1
1
1
1
1
1
1
1
1
1
1
1
1
1
1
1
1
1
1
1
1
1
1
1
1
1
1
1
1
1
1
1
1
1
1
1
1
1
1
1
1
1
1
1
1
1
1
1
1
1
5.39181
10.1082
10.2951
10.3553
10.4151
10.4679
10.5169
10.5606
10.6003
10.637
10.6716
10.7065
10.7427
10.7807
10.8192
10.8564
10.8908
10.9207
10.9492
10.9791
11.0105
11.0453
11.0811
11.1136
11.1416
11.163
11.1822
11.2011
11.2248
11.2543
11.2871
11.3182
11.3445
11.3658
11.3841
11.4013
11.4187
11.4363
11.4547
11.4745
11.495
11.5146
11.5318
11.5459
11.5578
11.5682
11.5781
11.5865
11.5933
11.5988
11.6047
11.6125
11.6214
11.6293
11.636
11.6399
11.6417
1
1
1
1
1
1
1
1
1
1
1
1
1
1
1
1
1
1
1
1
1
1
1
1
1
1
1
1
1
1
1
1
1
1
1
1
1
1
1
1
1
1
1
1
1
1
1
1
1
1
1
1
1
1
1
1
1
1
1
1
1
1
1
4.57311
9.95538
10.2776
10.3396
10.3963
10.4471
10.4965
10.5406
10.581
10.6178
10.6521
10.6863
10.7225
10.7614
10.8009
10.8385
10.8723
10.9006
10.9259
10.9529
10.9825
11.0157
11.0508
11.0831
11.1111
11.1326
11.1513
11.1696
11.1928
11.222
11.2548
11.2862
11.3128
11.334
11.3519
11.3684
11.3849
11.401
11.4174
11.4348
11.4535
11.4724
11.49
11.5047
11.5169
11.5277
11.5377
11.5453
11.5511
11.555
11.5588
11.5651
11.5733
11.5815
11.5882
11.5913
11.5928
1
1
1
1
1
1
1
1
1
1
1
1
1
1
1
1
1
1
1
1
1
1
1
1
1
1
1
1
1
1
1
1
1
1
1
1
1
1
1
1
1
1
1
1
1
1
1
1
1
1
1
1
1
1
1
1
1
1
1
1
1
1
1
3.75344
9.72177
10.2762
10.3323
10.3835
10.432
10.4802
10.526
10.5667
10.6025
10.6346
10.6661
10.7
10.7379
10.7778
10.8162
10.8503
10.8785
10.9022
10.9267
10.9549
10.9865
11.0211
11.0528
11.0803
11.1017
11.1197
11.1375
11.1602
11.1889
11.2215
11.2526
11.2788
11.2995
11.3167
11.3327
11.3484
11.3635
11.3781
11.3929
11.409
11.4263
11.4437
11.4594
11.4725
11.4842
11.4939
11.5005
11.5047
11.5067
11.5088
11.5135
11.521
11.5291
11.5357
11.5381
11.5396
1
1
1
1
1
1
1
1
1
1
1
1
1
1
1
1
1
1
1
1
1
1
1
1
1
1
1
1
1
1
1
1
1
1
1
1
1
1
1
1
1
1
1
1
1
1
1
1
1
1
1
1
1
1
1
1
1
1
1
1
1
1
1
3.00825
9.35918
10.2997
10.3296
10.3672
10.4082
10.4554
10.5041
10.5486
10.5865
10.6187
10.6483
10.6808
10.7175
10.7562
10.7942
10.828
10.8556
10.8776
10.8996
10.9262
10.9565
10.9903
11.0217
11.0488
11.0706
11.0883
11.1059
11.1275
11.1553
11.1867
11.2167
11.2419
11.2617
11.2783
11.2938
11.3092
11.3235
11.3363
11.3485
11.3615
11.3764
11.3931
11.4097
11.4243
11.437
11.4465
11.4519
11.4541
11.4542
11.4546
11.4577
11.4639
11.4715
11.4775
11.4792
11.4808
1
1
1
1
1
1
1
1
1
1
1
1
1
1
1
1
1
1
1
1
1
1
1
1
1
1
1
1
1
1
1
1
1
1
1
1
1
1
1
1
1
1
1
1
1
1
1
1
1
1
1
1
1
1
1
1
1
1
1
1
1
1
1
2.31747
8.83555
10.3041
10.3309
10.37
10.4048
10.4459
10.4907
10.5328
10.5697
10.6013
10.6291
10.6589
10.694
10.7332
10.7722
10.8065
10.8344
10.8556
10.8741
10.8974
10.9257
10.9583
10.9895
11.0165
11.039
11.0575
11.075
11.0954
11.1212
11.1503
11.1783
11.202
11.2208
11.2366
11.2519
11.2668
11.2803
11.2916
11.3013
11.3113
11.3235
11.3389
11.3558
11.3717
11.3852
11.3943
11.3983
11.3984
11.3966
11.3953
11.3967
11.4014
11.408
11.4135
11.4148
11.417
1
1
1
1
1
1
1
1
1
1
1
1
1
1
1
1
1
1
1
1
1
1
1
1
1
1
1
1
1
1
1
1
1
1
1
1
1
1
1
1
1
1
1
1
1
1
1
1
1
1
1
1
1
1
1
1
1
1
1
1
1
1
1
1.69215
8.23277
10.3737
10.3156
10.3471
10.3787
10.4206
10.4664
10.5112
10.551
10.5845
10.6116
10.6381
10.6702
10.7083
10.7478
10.7833
10.8122
10.8342
10.8517
10.8718
10.8971
10.9277
10.9586
10.9856
11.0083
11.0273
11.0445
11.0629
11.0861
11.1124
11.1378
11.1595
11.177
11.1919
11.2066
11.2209
11.2337
11.2436
11.2514
11.2587
11.2681
11.2814
11.2978
11.3142
11.328
11.3367
11.3393
11.3376
11.3341
11.3313
11.3307
11.333
11.3377
11.3421
11.3433
11.3461
1
1
1
1
1
1
1
1
1
1
1
1
1
1
1
1
1
1
1
1
1
1
1
1
1
1
1
1
1
1
1
1
1
1
1
1
1
1
1
1
1
1
1
1
1
1
1
1
1
1
1
1
1
1
1
1
1
1
1
1
1
1
1
1.1983
7.44207
10.3898
10.3313
10.3514
10.3711
10.4036
10.4432
10.4866
10.5284
10.5639
10.5904
10.6146
10.6444
10.6813
10.7215
10.7584
10.7882
10.8114
10.8288
10.8472
10.8697
10.898
10.9285
10.9558
10.9785
10.9974
11.0136
11.0297
11.0494
11.0725
11.0954
11.1153
11.1314
11.1451
11.1584
11.1717
11.1834
11.1922
11.1985
11.2038
11.2106
11.2213
11.2359
11.2516
11.2649
11.2726
11.2737
11.2704
11.2654
11.2609
11.258
11.2576
11.26
11.2634
11.2651
11.269
1
1
1
1
1
1
1
1
1
1
1
1
1
1
1
1
1
1
1
1
1
1
1
1
1
1
1
1
1
1
1
1
1
1
1
1
1
1
1
1
1
1
1
1
1
1
1
1
1
1
1
1
1
1
1
1
1
1
1
1
1
1
1
1.00698
6.58713
10.2194
10.2307
10.2799
10.3256
10.3713
10.4153
10.4572
10.4968
10.5326
10.5619
10.5887
10.6188
10.6542
10.6936
10.7315
10.7625
10.7869
10.8054
10.8231
10.8432
10.8688
10.8985
10.9259
10.9486
10.9668
10.9816
10.995
11.0114
11.0316
11.0524
11.0705
11.085
11.0966
11.1079
11.1195
11.1299
11.1377
11.1429
11.1465
11.1509
11.1585
11.1702
11.184
11.1956
11.2017
11.2016
11.1972
11.1912
11.185
11.1792
11.1751
11.174
11.1754
11.1772
11.1816
1
1
1
1
1
1
1
1
1
1
1
1
1
1
1
1
1
1
1
1
1
1
1
1
1
1
1
1
1
1
1
1
1
1
1
1
1
1
1
1
1
1
1
1
1
1
1
1
1
1
1
1
1
1
1
1
1
1
1
1
1
1
1
1.00002
5.54421
10.0333
10.1946
10.2687
10.3224
10.3635
10.4003
10.4373
10.4757
10.5108
10.5382
10.5623
10.5893
10.6235
10.6632
10.7021
10.734
10.7592
10.7792
10.7971
10.8159
10.839
10.8673
10.8946
10.9174
10.9346
10.9477
10.9587
10.9721
10.9896
11.0086
11.0252
11.0378
11.0471
11.0557
11.065
11.0739
11.0807
11.0847
11.0869
11.0889
11.0929
11.1007
11.1112
11.1199
11.1239
11.1222
11.1164
11.1088
11.1003
11.0912
11.083
11.0785
11.0782
11.0804
11.0853
1
1
1
1
1
1
1
1
1
1
1
1
1
1
1
1
1
1
1
1
1
1
1
1
1
1
1
1
1
1
1
1
1
1
1
1
1
1
1
1
1
1
1
1
1
1
1
1
1
1
1
1
1
1
1
1
1
1
1
1
1
1
1
1
4.51464
9.78474
10.1362
10.2296
10.2915
10.3318
10.3699
10.4086
10.4476
10.4847
10.5133
10.5378
10.5632
10.5937
10.6302
10.6687
10.7029
10.729
10.7498
10.7677
10.7863
10.8076
10.8342
10.8612
10.8839
10.9003
10.9119
10.9207
10.9315
10.9465
10.9635
10.9784
10.9892
10.9962
11.0023
11.0091
11.0161
11.0213
11.024
11.025
11.0243
11.0242
11.0276
11.0334
11.0381
11.0394
11.0357
11.0283
11.0191
11.0081
10.9952
10.9823
10.9728
10.9689
10.9696
10.9732
1
1
1
1
1
1
1
1
1
1
1
1
1
1
1
1
1
1
1
1
1
1
1
1
1
1
1
1
1
1
1
1
1
1
1
1
1
1
1
1
1
1
1
1
1
1
1
1
1
1
1
1
1
1
1
1
1
1
1
1
1
1
1
1
3.5331
9.39907
10.1457
10.2349
10.2928
10.3257
10.3553
10.3871
10.4227
10.4583
10.4878
10.5109
10.5347
10.5643
10.5992
10.6383
10.67
10.6961
10.7178
10.7355
10.7535
10.7735
10.7981
10.8244
10.8471
10.8631
10.8738
10.8812
10.8898
10.9022
10.9168
10.9298
10.9387
10.944
10.9478
10.9519
10.9564
10.9596
10.9609
10.9603
10.9567
10.9523
10.9501
10.9504
10.9502
10.948
10.9416
10.9315
10.919
10.9036
10.8857
10.8676
10.8536
10.8462
10.8455
10.848
1
1
1
1
1
1
1
1
1
1
1
1
1
1
1
1
1
1
1
1
1
1
1
1
1
1
1
1
1
1
1
1
1
1
1
1
1
1
1
1
1
1
1
1
1
1
1
1
1
1
1
1
1
1
1
1
1
1
1
1
1
1
1
1
2.56011
8.80092
10.1999
10.2187
10.2541
10.2849
10.3228
10.3629
10.4017
10.4372
10.4637
10.4858
10.5072
10.5335
10.5659
10.6021
10.639
10.6631
10.6832
10.6997
10.7169
10.7363
10.7588
10.7838
10.8062
10.8225
10.8329
10.84
10.847
10.8569
10.8684
10.879
10.8861
10.8901
10.8921
10.8935
10.8949
10.8956
10.8951
10.8924
10.8858
10.877
10.8689
10.8626
10.8566
10.8498
10.8396
10.8258
10.8089
10.7886
10.7657
10.7417
10.7208
10.706
10.6995
10.6971
1
1
1
1
1
1
1
1
1
1
1
1
1
1
1
1
1
1
1
1
1
1
1
1
1
1
1
1
1
1
1
1
1
1
1
1
1
1
1
1
1
1
1
1
1
1
1
1
1
1
1
1
1
1
1
1
1
1
1
1
1
1
1
1
1.66629
8.15753
10.3165
10.1981
10.2306
10.2665
10.3045
10.34
10.3755
10.4108
10.4388
10.4613
10.4815
10.505
10.5349
10.5687
10.6024
10.6284
10.6478
10.6629
10.6781
10.6959
10.7168
10.7399
10.7613
10.778
10.7889
10.7964
10.8026
10.8102
10.8184
10.8263
10.8317
10.8345
10.835
10.8336
10.8315
10.829
10.8259
10.8209
10.8114
10.7976
10.783
10.7698
10.7573
10.7446
10.7296
10.7102
10.6862
10.6582
10.6264
10.5934
10.5646
10.5426
10.5306
10.5255
1
1
1
1
1
1
1
1
1
1
1
1
1
1
1
1
1
1
1
1
1
1
1
1
1
1
1
1
1
1
1
1
1
1
1
1
1
1
1
1
1
1
1
1
1
1
1
1
1
1
1
1
1
1
1
1
1
1
1
1
1
1
1
1
1.05723
7.19387
10.321
10.2138
10.2177
10.234
10.2668
10.3078
10.3501
10.386
10.413
10.4336
10.4533
10.4766
10.505
10.5373
10.57
10.5961
10.6135
10.6262
10.638
10.6546
10.6731
10.6934
10.7131
10.7297
10.7414
10.7497
10.7559
10.7618
10.7667
10.7721
10.7756
10.7773
10.776
10.7714
10.7656
10.7595
10.7533
10.7456
10.7331
10.7144
10.6931
10.6723
10.6525
10.6328
10.611
10.5836
10.5504
10.5131
10.4723
10.43
10.3892
10.3517
10.3237
10.3052
1
1
1
1
1
1
1
1
1
1
1
1
1
1
1
1
1
1
1
1
1
1
1
1
1
1
1
1
1
1
1
1
1
1
1
1
1
1
1
1
1
1
1
1
1
1
1
1
1
1
1
1
1
1
1
1
1
1
1
1
1
1
1
1
1.00034
6.01428
10.0286
10.0734
10.1469
10.2028
10.2484
10.2865
10.3229
10.3588
10.3859
10.4059
10.4243
10.4462
10.4734
10.5045
10.5361
10.5622
10.5799
10.5914
10.6008
10.6124
10.6292
10.6463
10.6631
10.6786
10.6909
10.6999
10.7064
10.7112
10.7134
10.7162
10.7178
10.718
10.7148
10.7073
10.6974
10.6872
10.6773
10.6663
10.6503
10.627
10.599
10.5703
10.5421
10.5139
10.483
10.4456
10.4009
10.3504
10.294
10.2322
10.1686
10.1101
10.0663
10.0449
1
1
1
1
1
1
1
1
1
1
1
1
1
1
1
1
1
1
1
1
1
1
1
1
1
1
1
1
1
1
1
1
1
1
1
1
1
1
1
1
1
1
1
1
1
1
1
1
1
1
1
1
1
1
1
1
1
1
1
1
1
1
1
1
0.999997
4.75051
9.74437
10.0432
10.1371
10.1913
10.2249
10.2549
10.2923
10.3265
10.3542
10.3759
10.3944
10.4149
10.441
10.4711
10.5014
10.5267
10.544
10.5553
10.5642
10.5736
10.5862
10.6001
10.6134
10.6261
10.638
10.6474
10.6541
10.6583
10.6581
10.6582
10.6576
10.6558
10.6508
10.6408
10.6269
10.6122
10.5978
10.5827
10.5629
10.5353
10.501
10.4642
10.4266
10.388
10.3457
10.2957
10.2363
10.1687
10.0925
10.0087
9.91968
9.82939
9.73985
9.66758
1
1
1
1
1
1
1
1
1
1
1
1
1
1
1
1
1
1
1
1
1
1
1
1
1
1
1
1
1
1
1
1
1
1
1
1
1
1
1
1
1
1
1
1
1
1
1
1
1
1
1
1
1
1
1
1
1
1
1
1
1
1
1
1
0.999999
3.55708
9.28004
10.042
10.1118
10.1677
10.2064
10.2383
10.2645
10.2929
10.3205
10.3429
10.362
10.3819
10.4064
10.4352
10.4644
10.4886
10.5054
10.5166
10.5257
10.5341
10.5443
10.5553
10.5647
10.5733
10.5835
10.5929
10.5997
10.6034
10.6013
10.598
10.5949
10.5907
10.584
10.5718
10.5544
10.5349
10.5151
10.4951
10.471
10.4392
10.399
10.3539
10.3059
10.255
10.199
10.1339
10.057
9.96822
9.86523
9.74356
9.59603
9.42631
9.26354
9.14558
1
1
1
1
1
1
1
1
1
1
1
1
1
1
1
1
1
1
1
1
1
1
1
1
1
1
1
1
1
1
1
1
1
1
1
1
1
1
1
1
1
1
1
1
1
1
1
1
1
1
1
1
1
1
1
1
1
1
1
1
1
1
1
1
1
2.38923
8.58423
10.1256
10.1273
10.1617
10.184
10.2094
10.2385
10.2674
10.2926
10.3125
10.33
10.3482
10.3701
10.397
10.425
10.4484
10.4647
10.476
10.4856
10.4937
10.502
10.5106
10.517
10.5218
10.5287
10.5371
10.5441
10.5471
10.5431
10.5357
10.5292
10.5223
10.5137
10.4998
10.4796
10.4553
10.4298
10.4039
10.3749
10.3389
10.2931
10.2396
10.1803
10.1155
10.044
9.96161
9.86404
9.74821
9.6077
9.43501
9.22455
8.97026
8.69215
8.50741
1
1
1
1
1
1
1
1
1
1
1
1
1
1
1
1
1
1
1
1
1
1
1
1
1
1
1
1
1
1
1
1
1
1
1
1
1
1
1
1
1
1
1
1
1
1
1
1
1
1
1
1
1
1
1
1
1
1
1
1
1
1
1
1
1
1.39465
7.7788
10.2681
10.1319
10.1189
10.1393
10.1728
10.2069
10.2381
10.2656
10.2865
10.3022
10.317
10.335
10.3584
10.3842
10.4065
10.4224
10.4339
10.4437
10.4518
10.4586
10.4646
10.4686
10.4708
10.4747
10.4812
10.4875
10.4897
10.4841
10.4724
10.4615
10.4513
10.4404
10.4251
10.4026
10.3739
10.3423
10.3099
10.2753
10.2344
10.1831
10.1211
10.0501
9.97048
9.88166
9.78002
9.65904
9.51254
9.33039
9.09828
8.78738
8.33398
7.49977
5.55343
1
1
1
1
1
1
1
1
1
1
1
1
1
1
1
1
1
1
1
1
1
1
1
1
1
1
1
1
1
1
1
1
1
1
1
1
1
1
1
1
1
1
1
1
1
1
1
1
1
1
1
1
1
1
1
1
1
1
1
1
1
1
1
1
1
1.01862
6.64315
10.0516
10.0265
10.0719
10.103
10.1386
10.1758
10.2074
10.2357
10.258
10.2746
10.288
10.3022
10.3207
10.343
10.3638
10.3795
10.3912
10.4007
10.4079
10.4136
10.4179
10.4199
10.42
10.4213
10.4256
10.4302
10.4314
10.4241
10.4089
10.3929
10.3781
10.3641
10.3471
10.3227
10.2903
10.253
10.2139
10.1728
10.1262
10.0689
9.99867
9.916
9.82147
9.71449
9.59185
9.44541
9.265
9.03545
8.73248
8.30468
7.68545
6.58841
4.45923
1
1
1
1
1
1
1
1
1
1
1
1
1
1
1
1
1
1
1
1
1
1
1
1
1
1
1
1
1
1
1
1
1
1
1
1
1
1
1
1
1
1
1
1
1
1
1
1
1
1
1
1
1
1
1
1
1
1
1
1
1
1
1
1
1
0.999989
5.15971
9.69067
9.96171
10.0396
10.0812
10.1104
10.1433
10.1732
10.2017
10.2252
10.2428
10.2561
10.2683
10.2833
10.3022
10.3215
10.3368
10.3484
10.3572
10.3628
10.3672
10.3703
10.3708
10.3694
10.3683
10.3697
10.3717
10.3717
10.3629
10.3455
10.3243
10.3043
10.2861
10.2664
10.2401
10.2048
10.1625
10.1167
10.0684
10.0149
9.95092
9.87254
9.77892
9.67019
9.54523
9.40098
9.22779
9.01365
8.73659
8.37468
7.8531
7.17064
5.84621
4.11074
1
1
1
1
1
1
1
1
1
1
1
1
1
1
1
1
1
1
1
1
1
1
1
1
1
1
1
1
1
1
1
1
1
1
1
1
1
1
1
1
1
1
1
1
1
1
1
1
1
1
1
1
1
1
1
1
1
1
1
1
1
1
1
1
1
0.999995
3.8041
9.32784
9.9509
10.0164
10.0641
10.0955
10.1127
10.1365
10.1641
10.1886
10.2074
10.2211
10.2321
10.2446
10.2608
10.2788
10.294
10.305
10.3127
10.3163
10.3193
10.3215
10.3212
10.3188
10.3156
10.3137
10.3122
10.3097
10.3004
10.2818
10.2569
10.2311
10.2071
10.1834
10.1546
10.1171
10.0708
10.0189
9.96294
9.90149
9.82988
9.74354
9.63991
9.51829
9.37638
9.21142
9.01227
8.76771
8.45127
8.04173
7.48945
6.67918
5.45226
4.00012
1
1
1
1
1
1
1
1
1
1
1
1
1
1
1
1
1
1
1
1
1
1
1
1
1
1
1
1
1
1
1
1
1
1
1
1
1
1
1
1
1
1
1
1
1
1
1
1
1
1
1
1
1
1
1
1
1
1
1
1
1
1
1
1
1
0.999999
2.45973
8.59757
10.025
10.0206
10.0447
10.0647
10.0835
10.1062
10.1306
10.1539
10.1723
10.1854
10.1952
10.2056
10.2193
10.2359
10.2507
10.2614
10.2679
10.27
10.2713
10.2726
10.2718
10.2685
10.263
10.2574
10.2519
10.2462
10.2362
10.2177
10.1907
10.1594
10.1286
10.0993
10.0674
10.0279
9.97845
9.92079
9.85699
9.78682
9.70689
9.61278
9.50022
9.36733
9.21022
9.02621
8.80437
8.53331
8.18924
7.7417
7.16546
6.32911
5.27989
4.10186
1
1
1
1
1
1
1
1
1
1
1
1
1
1
1
1
1
1
1
1
1
1
1
1
1
1
1
1
1
1
1
1
1
1
1
1
1
1
1
1
1
1
1
1
1
1
1
1
1
1
1
1
1
1
1
1
1
1
1
1
1
1
1
1
1
1
1.35428
7.70469
10.1806
10.0492
10.0118
10.0237
10.0508
10.0734
10.0966
10.1188
10.1367
10.1491
10.1577
10.1661
10.1776
10.1923
10.2064
10.2166
10.2223
10.2236
10.2227
10.2229
10.2218
10.2175
10.2099
10.2003
10.1907
10.1815
10.1704
10.1523
10.1246
10.089
10.051
10.0146
9.97835
9.93699
9.88534
9.82291
9.75151
9.67233
9.58359
9.48172
9.36121
9.21867
9.04868
8.84781
8.60719
8.31501
7.95335
7.49388
6.89325
6.12974
5.22336
4.24059
1
1
1
1
1
1
1
1
1
1
1
1
1
1
1
1
1
1
1
1
1
1
1
1
1
1
1
1
1
1
1
1
1
1
1
1
1
1
1
1
1
1
1
1
1
1
1
1
1
1
1
1
1
1
1
1
1
1
1
1
1
1
1
1
1
1
1.01421
6.40165
9.8797
9.89634
9.94982
9.98131
10.0142
10.0378
10.0611
10.0831
10.1009
10.1131
10.1214
10.1283
10.1369
10.1491
10.1619
10.1714
10.1765
10.1772
10.1746
10.1732
10.1717
10.1665
10.1567
10.1434
10.1293
10.1164
10.1035
10.0857
10.058
10.0197
9.97516
9.93093
9.88883
9.84488
9.79176
9.72565
9.64727
9.55917
9.4614
9.35165
9.22394
9.0733
8.89317
8.67887
8.42369
8.11716
7.74536
7.283
6.70986
6.0163
5.20629
4.35617
1
1
1
1
1
1
1
1
1
1
1
1
1
1
1
1
1
1
1
1
1
1
1
1
1
1
1
1
1
1
1
1
1
1
1
1
1
1
1
1
1
1
1
1
1
1
1
1
1
1
1
1
1
1
1
1
1
1
1
1
1
1
1
1
1
1
0.999963
4.75658
9.4822
9.84465
9.93085
9.9674
9.98314
10.0036
10.0254
10.0466
10.0642
10.0765
10.085
10.0907
10.0969
10.1056
10.1166
10.1255
10.1302
10.1305
10.1263
10.123
10.1203
10.1143
10.1027
10.0862
10.0678
10.0509
10.0357
10.0174
9.98991
9.95027
9.90087
9.84892
9.79967
9.75143
9.69669
9.62847
9.54471
9.44873
9.34209
9.22421
9.08953
8.93194
8.74415
8.52058
8.25595
7.94126
7.56515
7.11378
6.5859
5.93583
5.23074
4.50109
1
1
1
1
1
1
1
1
1
1
1
1
1
1
1
1
1
1
1
1
1
1
1
1
1
1
1
1
1
1
1
1
1
1
1
1
1
1
1
1
1
1
1
1
1
1
1
1
1
1
1
1
1
1
1
1
1
1
1
1
1
1
1
1
1
1
0.99999
3.21521
8.99171
9.89576
9.92365
9.93915
9.95676
9.97413
9.99133
10.0099
10.0269
10.0396
10.0488
10.0538
10.0578
10.0635
10.0717
10.0799
10.0845
10.0841
10.0785
10.0732
10.0687
10.0617
10.0488
10.0297
10.0074
9.98621
9.96775
9.948
9.9204
9.88033
9.82791
9.7695
9.71246
9.65824
9.60056
9.53111
9.44405
9.34175
9.22688
9.10087
8.9593
8.79567
8.6023
8.37341
8.10463
7.78719
7.41832
6.9824
6.47544
5.90284
5.29202
4.65188
1
1
1
1
1
1
1
1
1
1
1
1
1
1
1
1
1
1
1
1
1
1
1
1
1
1
1
1
1
1
1
1
1
1
1
1
1
1
1
1
1
1
1
1
1
1
1
1
1
1
1
1
1
1
1
1
1
1
1
1
1
1
1
1
1
1
0.999998
1.85616
8.23176
9.94631
9.87948
9.89521
9.92556
9.94477
9.95996
9.9756
9.99054
10.0025
10.0117
10.0161
10.0184
10.0218
10.0275
10.0343
10.0388
10.0378
10.0311
10.0236
10.0164
10.0076
9.99377
9.97299
9.94779
9.92256
9.90011
9.87782
9.84942
9.80939
9.75563
9.69279
9.62844
9.56693
9.50441
9.43284
9.34429
9.23822
9.11655
8.98297
8.83477
8.66579
8.4683
8.23706
7.96834
7.65527
7.30035
6.86649
6.39959
5.91428
5.35187
4.77521
1
1
1
1
1
1
1
1
1
1
1
1
1
1
1
1
1
1
1
1
1
1
1
1
1
1
1
1
1
1
1
1
1
1
1
1
1
1
1
1
1
1
1
1
1
1
1
1
1
1
1
1
1
1
1
1
1
1
1
1
1
1
1
1
1
1
1
1.07997
6.88457
9.95702
9.88412
9.87736
9.89333
9.91098
9.92476
9.93853
9.9522
9.96412
9.97379
9.97825
9.9794
9.98073
9.98415
9.98917
9.99314
9.99181
9.98454
9.97475
9.96445
9.9531
9.93821
9.91686
9.88966
9.86073
9.83373
9.80763
9.77736
9.73719
9.68338
9.61824
9.54801
9.47862
9.40951
9.33423
9.24433
9.13662
9.01099
8.87115
8.71685
8.54346
8.34321
8.11149
7.8457
7.54219
7.19231
6.78271
6.37603
5.92013
5.38052
4.87368
1
1
1
1
1
1