/*--------------------------------*- C++ -*----------------------------------*\
  =========                 |
  \\      /  F ield         | OpenFOAM: The Open Source CFD Toolbox
   \\    /   O peration     | Website:  https://openfoam.org
    \\  /    A nd           | Version:  7
     \\/     M anipulation  |
\*---------------------------------------------------------------------------*/
FoamFile
{
    version     2.0;
    format      ascii;
    class       volScalarField;
    location    "2.4";
    object      rho;
}
// * * * * * * * * * * * * * * * * * * * * * * * * * * * * * * * * * * * * * //

dimensions      [1 -3 0 0 0 0 0];

internalField   nonuniform List<scalar> 
100800
(
1.40001
1.40001
1.40001
1.40001
1.40001
1.40001
1.40001
1.40001
1.40001
1.40001
1.40001
1.40001
1.40001
1.40001
1.40001
1.40001
1.40001
1.40001
1.40001
1.40001
1.40001
1.40001
1.40001
1.40001
1.40001
1.40001
1.40001
1.40001
1.40001
1.40001
1.40001
1.40001
1.40001
1.40001
1.40001
1.40001
1.40001
1.40001
1.40001
1.40001
1.40001
1.40001
1.40001
1.40001
1.40001
1.40001
1.40001
1.40001
1.40001
1.40001
1.40001
1.40001
1.40001
1.40001
1.40001
1.40001
1.40001
1.40001
1.40001
1.40001
1.40001
1.40001
3.92719
5.42037
5.44786
5.46939
5.49241
5.51226
5.5273
5.53719
5.54372
5.5497
5.55782
5.57023
5.58795
5.60926
5.63163
5.65356
5.67433
5.69375
5.71131
5.72575
5.73535
5.73934
5.74014
5.74225
5.74964
5.76204
5.77687
5.79274
5.80864
5.8247
5.83881
5.85064
5.8614
5.87202
5.88191
5.88982
5.8956
5.90035
5.90598
5.91436
5.92512
5.93611
5.94547
5.9527
5.95832
5.96272
5.96605
5.96882
5.97166
5.97484
5.97824
5.98051
5.98071
5.97688
5.96818
5.95677
5.94725
5.9436
1.40001
1.40001
1.40001
1.40001
1.40001
1.40001
1.40001
1.40001
1.40001
1.40001
1.40001
1.40001
1.40001
1.40001
1.40001
1.40001
1.40001
1.40001
1.40001
1.40001
1.40001
1.40001
1.40001
1.40001
1.40001
1.40001
1.40001
1.40001
1.40001
1.40001
1.40001
1.40001
1.40001
1.40001
1.40001
1.40001
1.40001
1.40001
1.40001
1.40001
1.40001
1.40001
1.40001
1.40001
1.40001
1.40001
1.40001
1.40001
1.40001
1.40001
1.40001
1.40001
1.40001
1.40001
1.40001
1.40001
1.40001
1.40001
1.40001
1.40001
1.40001
1.40001
3.91674
5.41549
5.44484
5.46777
5.49207
5.51274
5.52816
5.53807
5.54439
5.55007
5.55799
5.57003
5.58727
5.60838
5.63074
5.65267
5.67343
5.69275
5.71006
5.72424
5.73398
5.73858
5.74011
5.74274
5.75031
5.76242
5.77686
5.79236
5.80818
5.82426
5.8384
5.85019
5.86083
5.87132
5.88115
5.88908
5.89496
5.89984
5.90561
5.91406
5.92481
5.93575
5.94505
5.95225
5.95782
5.96213
5.9654
5.96812
5.97091
5.97397
5.9772
5.97937
5.97961
5.97592
5.96749
5.95635
5.94701
5.94335
1.40001
1.40001
1.40001
1.40001
1.40001
1.40001
1.40001
1.40001
1.40001
1.40001
1.40001
1.40001
1.40001
1.40001
1.40001
1.40001
1.40001
1.40001
1.40001
1.40001
1.40001
1.40001
1.40001
1.40001
1.40001
1.40001
1.40001
1.40001
1.40001
1.40001
1.40001
1.40001
1.40001
1.40001
1.40001
1.40001
1.40001
1.40001
1.40001
1.40001
1.40001
1.40001
1.40001
1.40001
1.40001
1.40001
1.40001
1.40001
1.40001
1.40001
1.40001
1.40001
1.40001
1.40001
1.40001
1.40001
1.40001
1.40001
1.40001
1.40001
1.40001
1.40001
3.89354
5.4084
5.43963
5.46402
5.48993
5.5121
5.52879
5.53953
5.54607
5.55144
5.55871
5.56998
5.58631
5.60683
5.62899
5.65091
5.67164
5.6909
5.70801
5.72202
5.73208
5.73743
5.73983
5.74317
5.75102
5.7628
5.77673
5.79171
5.80737
5.82347
5.83769
5.84946
5.85996
5.87025
5.87995
5.88789
5.8939
5.89898
5.90495
5.91349
5.92423
5.93514
5.94443
5.95158
5.95702
5.96113
5.96424
5.96691
5.96971
5.9727
5.97575
5.97772
5.97786
5.97428
5.96617
5.95546
5.94656
5.94304
1.40001
1.40001
1.40001
1.40001
1.40001
1.40001
1.40001
1.40001
1.40001
1.40001
1.40001
1.40001
1.40001
1.40001
1.40001
1.40001
1.40001
1.40001
1.40001
1.40001
1.40001
1.40001
1.40001
1.40001
1.40001
1.40001
1.40001
1.40001
1.40001
1.40001
1.40001
1.40001
1.40001
1.40001
1.40001
1.40001
1.40001
1.40001
1.40001
1.40001
1.40001
1.40001
1.40001
1.40001
1.40001
1.40001
1.40001
1.40001
1.40001
1.40001
1.40001
1.40001
1.40001
1.40001
1.40001
1.40001
1.40001
1.40001
1.40001
1.40001
1.40001
1.40001
3.85486
5.39926
5.43489
5.45948
5.48585
5.50961
5.52832
5.54081
5.54859
5.55418
5.56068
5.57058
5.58527
5.60459
5.62617
5.64793
5.66863
5.68789
5.70498
5.71922
5.72997
5.73636
5.73967
5.74358
5.75155
5.76298
5.77623
5.79062
5.80611
5.82224
5.8366
5.84841
5.85876
5.86876
5.8782
5.88608
5.89227
5.89767
5.90393
5.91262
5.92332
5.93416
5.94343
5.95058
5.95588
5.9597
5.96252
5.96501
5.96774
5.97067
5.97353
5.97537
5.97542
5.97193
5.96419
5.95401
5.94569
5.94238
1.40001
1.40001
1.40001
1.40001
1.40001
1.40001
1.40001
1.40001
1.40001
1.40001
1.40001
1.40001
1.40001
1.40001
1.40001
1.40001
1.40001
1.40001
1.40001
1.40001
1.40001
1.40001
1.40001
1.40001
1.40001
1.40001
1.40001
1.40001
1.40001
1.40001
1.40001
1.40001
1.40001
1.40001
1.40001
1.40001
1.40001
1.40001
1.40001
1.40001
1.40001
1.40001
1.40001
1.40001
1.40001
1.40001
1.40001
1.40001
1.40001
1.40001
1.40001
1.40001
1.40001
1.40001
1.40001
1.40001
1.40001
1.40001
1.40001
1.40001
1.40001
1.40001
3.79979
5.38839
5.4303
5.45453
5.48044
5.50507
5.52582
5.54089
5.55082
5.55754
5.56374
5.57217
5.58481
5.60225
5.62276
5.64397
5.66455
5.68396
5.70128
5.71605
5.72777
5.73532
5.73957
5.74386
5.75169
5.76268
5.77514
5.78897
5.80429
5.8205
5.83509
5.84706
5.8573
5.86691
5.87596
5.88367
5.89006
5.89585
5.90251
5.91135
5.92198
5.93273
5.94202
5.94925
5.95449
5.95801
5.96042
5.96256
5.96513
5.96804
5.97083
5.97256
5.97251
5.96914
5.96166
5.95203
5.94435
5.94136
1.40001
1.40001
1.40001
1.40001
1.40001
1.40001
1.40001
1.40001
1.40001
1.40001
1.40001
1.40001
1.40001
1.40001
1.40001
1.40001
1.40001
1.40001
1.40001
1.40001
1.40001
1.40001
1.40001
1.40001
1.40001
1.40001
1.40001
1.40001
1.40001
1.40001
1.40001
1.40001
1.40001
1.40001
1.40001
1.40001
1.40001
1.40001
1.40001
1.40001
1.40001
1.40001
1.40001
1.40001
1.40001
1.40001
1.40001
1.40001
1.40001
1.40001
1.40001
1.40001
1.40001
1.40001
1.40001
1.40001
1.40001
1.40001
1.40001
1.40001
1.40001
1.40001
3.72842
5.37572
5.42585
5.44974
5.4753
5.50014
5.52219
5.53947
5.55172
5.56012
5.56681
5.57436
5.58504
5.60029
5.61925
5.63953
5.65977
5.67932
5.69705
5.71245
5.7253
5.73417
5.73935
5.74404
5.75139
5.76156
5.77347
5.78678
5.80188
5.81815
5.8331
5.84539
5.8556
5.86478
5.8733
5.88075
5.88732
5.89359
5.90072
5.90972
5.92023
5.93082
5.94015
5.94756
5.95283
5.95607
5.95797
5.9596
5.96186
5.96477
5.96764
5.96939
5.96933
5.96597
5.95864
5.94949
5.94244
5.93983
1.40001
1.40001
1.40001
1.40001
1.40001
1.40001
1.40001
1.40001
1.40001
1.40001
1.40001
1.40001
1.40001
1.40001
1.40001
1.40001
1.40001
1.40001
1.40001
1.40001
1.40001
1.40001
1.40001
1.40001
1.40001
1.40001
1.40001
1.40001
1.40001
1.40001
1.40001
1.40001
1.40001
1.40001
1.40001
1.40001
1.40001
1.40001
1.40001
1.40001
1.40001
1.40001
1.40001
1.40001
1.40001
1.40001
1.40001
1.40001
1.40001
1.40001
1.40001
1.40001
1.40001
1.40001
1.40001
1.40001
1.40001
1.40001
1.40001
1.40001
1.40001
1.40001
3.64109
5.36071
5.4213
5.44539
5.47091
5.49551
5.51811
5.53659
5.55074
5.56099
5.56885
5.5765
5.58584
5.59914
5.61626
5.63533
5.65488
5.67433
5.6923
5.70825
5.72219
5.73248
5.73875
5.74402
5.75082
5.76002
5.7714
5.78404
5.79886
5.81517
5.83058
5.84336
5.85368
5.86243
5.87036
5.87745
5.88411
5.89082
5.89839
5.90753
5.91787
5.92829
5.93769
5.94535
5.95077
5.95384
5.95522
5.95623
5.95807
5.96096
5.96404
5.96596
5.96591
5.96251
5.9552
5.94639
5.93984
5.93758
1.40001
1.40001
1.40001
1.40001
1.40001
1.40001
1.40001
1.40001
1.40001
1.40001
1.40001
1.40001
1.40001
1.40001
1.40001
1.40001
1.40001
1.40001
1.40001
1.40001
1.40001
1.40001
1.40001
1.40001
1.40001
1.40001
1.40001
1.40001
1.40001
1.40001
1.40001
1.40001
1.40001
1.40001
1.40001
1.40001
1.40001
1.40001
1.40001
1.40001
1.40001
1.40001
1.40001
1.40001
1.40001
1.40001
1.40001
1.40001
1.40001
1.40001
1.40001
1.40001
1.40001
1.40001
1.40001
1.40001
1.40001
1.40001
1.40001
1.40001
1.40001
1.40001
3.53851
5.34375
5.41625
5.44094
5.46696
5.49128
5.51384
5.53282
5.54801
5.5599
5.56937
5.57793
5.58706
5.59889
5.61428
5.63182
5.65053
5.66947
5.6873
5.70346
5.71817
5.72987
5.73752
5.74377
5.75024
5.75853
5.76925
5.78093
5.79532
5.81156
5.82743
5.84078
5.85131
5.85972
5.86708
5.87376
5.88039
5.88739
5.89533
5.90462
5.91486
5.92518
5.93469
5.94264
5.94826
5.95125
5.95217
5.9525
5.95385
5.95666
5.95997
5.96217
5.96223
5.95877
5.95142
5.94279
5.93661
5.93463
1.40001
1.40001
1.40001
1.40001
1.40001
1.40001
1.40001
1.40001
1.40001
1.40001
1.40001
1.40001
1.40001
1.40001
1.40001
1.40001
1.40001
1.40001
1.40001
1.40001
1.40001
1.40001
1.40001
1.40001
1.40001
1.40001
1.40001
1.40001
1.40001
1.40001
1.40001
1.40001
1.40001
1.40001
1.40001
1.40001
1.40001
1.40001
1.40001
1.40001
1.40001
1.40001
1.40001
1.40001
1.40001
1.40001
1.40001
1.40001
1.40001
1.40001
1.40001
1.40001
1.40001
1.40001
1.40001
1.40001
1.40001
1.40001
1.40001
1.40001
1.40001
1.40001
3.42117
5.32579
5.41164
5.43635
5.46267
5.48676
5.50911
5.52823
5.54395
5.55713
5.56835
5.57828
5.58821
5.59949
5.61352
5.6294
5.64684
5.66501
5.68233
5.69822
5.71332
5.7263
5.73557
5.74316
5.74984
5.75721
5.7668
5.77752
5.79128
5.80723
5.82343
5.83736
5.84828
5.85661
5.86361
5.86994
5.87638
5.88345
5.8916
5.90104
5.91129
5.92164
5.9313
5.93947
5.94523
5.94816
5.94873
5.94851
5.94938
5.95201
5.95545
5.95792
5.95816
5.95467
5.94724
5.93863
5.93262
5.9308
1.40001
1.40001
1.40001
1.40001
1.40001
1.40001
1.40001
1.40001
1.40001
1.40001
1.40001
1.40001
1.40001
1.40001
1.40001
1.40001
1.40001
1.40001
1.40001
1.40001
1.40001
1.40001
1.40001
1.40001
1.40001
1.40001
1.40001
1.40001
1.40001
1.40001
1.40001
1.40001
1.40001
1.40001
1.40001
1.40001
1.40001
1.40001
1.40001
1.40001
1.40001
1.40001
1.40001
1.40001
1.40001
1.40001
1.40001
1.40001
1.40001
1.40001
1.40001
1.40001
1.40001
1.40001
1.40001
1.40001
1.40001
1.40001
1.40001
1.40001
1.40001
1.40001
3.28962
5.30643
5.40775
5.43161
5.45788
5.48158
5.50358
5.52267
5.53885
5.55307
5.566
5.57776
5.58889
5.60051
5.61382
5.62834
5.64396
5.66079
5.67725
5.69258
5.70773
5.72177
5.73276
5.74191
5.74925
5.756
5.76448
5.77421
5.78709
5.80251
5.81878
5.83316
5.84454
5.85303
5.85991
5.86594
5.87205
5.87895
5.88717
5.89679
5.90723
5.91775
5.92753
5.93577
5.94153
5.94435
5.9447
5.94416
5.94466
5.94701
5.95046
5.95316
5.95362
5.9502
5.94272
5.93404
5.92801
5.92622
1.40001
1.40001
1.40001
1.40001
1.40001
1.40001
1.40001
1.40001
1.40001
1.40001
1.40001
1.40001
1.40001
1.40001
1.40001
1.40001
1.40001
1.40001
1.40001
1.40001
1.40001
1.40001
1.40001
1.40001
1.40001
1.40001
1.40001
1.40001
1.40001
1.40001
1.40001
1.40001
1.40001
1.40001
1.40001
1.40001
1.40001
1.40001
1.40001
1.40001
1.40001
1.40001
1.40001
1.40001
1.40001
1.40001
1.40001
1.40001
1.40001
1.40001
1.40001
1.40001
1.40001
1.40001
1.40001
1.40001
1.40001
1.40001
1.40001
1.40001
1.40001
1.40001
3.14268
5.28448
5.40659
5.42815
5.45328
5.4762
5.49757
5.51646
5.53286
5.54792
5.5624
5.57608
5.58889
5.60139
5.61471
5.62848
5.64226
5.6571
5.6724
5.68713
5.70206
5.71682
5.72931
5.7399
5.74802
5.75447
5.76201
5.77065
5.78248
5.79717
5.81331
5.8281
5.84015
5.84919
5.8563
5.86217
5.86779
5.87418
5.88215
5.89178
5.90243
5.91319
5.92309
5.9313
5.93699
5.93978
5.9401
5.93947
5.93972
5.94176
5.94508
5.94786
5.94852
5.94526
5.9378
5.92899
5.92279
5.92088
1.40001
1.40001
1.40001
1.40001
1.40001
1.40001
1.40001
1.40001
1.40001
1.40001
1.40001
1.40001
1.40001
1.40001
1.40001
1.40001
1.40001
1.40001
1.40001
1.40001
1.40001
1.40001
1.40001
1.40001
1.40001
1.40001
1.40001
1.40001
1.40001
1.40001
1.40001
1.40001
1.40001
1.40001
1.40001
1.40001
1.40001
1.40001
1.40001
1.40001
1.40001
1.40001
1.40001
1.40001
1.40001
1.40001
1.40001
1.40001
1.40001
1.40001
1.40001
1.40001
1.40001
1.40001
1.40001
1.40001
1.40001
1.40001
1.40001
1.40001
1.40001
1.40001
2.97991
5.25603
5.41075
5.42773
5.45029
5.47157
5.49178
5.51015
5.5266
5.54225
5.5578
5.57303
5.58761
5.60144
5.61524
5.6286
5.64084
5.65351
5.66721
5.6812
5.69582
5.71121
5.72508
5.73708
5.74626
5.75288
5.75989
5.76764
5.77844
5.79221
5.80785
5.82262
5.83502
5.84447
5.85175
5.85742
5.86258
5.86853
5.87634
5.88615
5.89714
5.90821
5.91819
5.92627
5.9318
5.93458
5.93497
5.9344
5.9345
5.9362
5.93926
5.94196
5.94278
5.93974
5.93238
5.92347
5.91702
5.91493
1.40001
1.40001
1.40001
1.40001
1.40001
1.40001
1.40001
1.40001
1.40001
1.40001
1.40001
1.40001
1.40001
1.40001
1.40001
1.40001
1.40001
1.40001
1.40001
1.40001
1.40001
1.40001
1.40001
1.40001
1.40001
1.40001
1.40001
1.40001
1.40001
1.40001
1.40001
1.40001
1.40001
1.40001
1.40001
1.40001
1.40001
1.40001
1.40001
1.40001
1.40001
1.40001
1.40001
1.40001
1.40001
1.40001
1.40001
1.40001
1.40001
1.40001
1.40001
1.40001
1.40001
1.40001
1.40001
1.40001
1.40001
1.40001
1.40001
1.40001
1.40001
1.40001
2.80247
5.2168
5.41902
5.42977
5.44908
5.46808
5.48695
5.50467
5.52096
5.53657
5.55268
5.56923
5.58551
5.60111
5.61584
5.62929
5.64062
5.65124
5.66292
5.67552
5.68949
5.70519
5.7201
5.73323
5.74338
5.75022
5.75674
5.76356
5.77339
5.78637
5.8017
5.81663
5.82945
5.83931
5.84671
5.8522
5.85699
5.86263
5.87036
5.88031
5.89152
5.90267
5.91256
5.92044
5.92582
5.92864
5.92923
5.92886
5.92886
5.93023
5.93294
5.93546
5.93637
5.93357
5.92635
5.9174
5.91072
5.90844
1.40001
1.40001
1.40001
1.40001
1.40001
1.40001
1.40001
1.40001
1.40001
1.40001
1.40001
1.40001
1.40001
1.40001
1.40001
1.40001
1.40001
1.40001
1.40001
1.40001
1.40001
1.40001
1.40001
1.40001
1.40001
1.40001
1.40001
1.40001
1.40001
1.40001
1.40001
1.40001
1.40001
1.40001
1.40001
1.40001
1.40001
1.40001
1.40001
1.40001
1.40001
1.40001
1.40001
1.40001
1.40001
1.40001
1.40001
1.40001
1.40001
1.40001
1.40001
1.40001
1.40001
1.40001
1.40001
1.40001
1.40001
1.40001
1.40001
1.40001
1.40001
1.40001
2.61295
5.16371
5.42969
5.43415
5.44947
5.4657
5.48277
5.49955
5.51534
5.53045
5.54643
5.56359
5.58107
5.59818
5.61415
5.62842
5.63977
5.64909
5.65893
5.66995
5.68295
5.69878
5.71465
5.72894
5.74024
5.74751
5.75363
5.75951
5.76835
5.78066
5.79577
5.81079
5.82373
5.83356
5.8407
5.84591
5.8506
5.85632
5.86427
5.87446
5.88571
5.89666
5.9062
5.91377
5.91903
5.92198
5.92283
5.92272
5.92264
5.92369
5.92601
5.92829
5.92924
5.92662
5.91953
5.91058
5.90376
5.90137
1.40001
1.40001
1.40001
1.40001
1.40001
1.40001
1.40001
1.40001
1.40001
1.40001
1.40001
1.40001
1.40001
1.40001
1.40001
1.40001
1.40001
1.40001
1.40001
1.40001
1.40001
1.40001
1.40001
1.40001
1.40001
1.40001
1.40001
1.40001
1.40001
1.40001
1.40001
1.40001
1.40001
1.40001
1.40001
1.40001
1.40001
1.40001
1.40001
1.40001
1.40001
1.40001
1.40001
1.40001
1.40001
1.40001
1.40001
1.40001
1.40001
1.40001
1.40001
1.40001
1.40001
1.40001
1.40001
1.40001
1.40001
1.40001
1.40001
1.40001
1.40001
1.40001
2.41586
5.09236
5.43831
5.43812
5.45046
5.46475
5.4803
5.496
5.51108
5.52576
5.54134
5.55841
5.5764
5.59449
5.61166
5.62711
5.63917
5.64793
5.65618
5.66539
5.67688
5.69228
5.7088
5.72414
5.73653
5.74425
5.74996
5.7549
5.76281
5.77463
5.78969
5.80481
5.81765
5.82713
5.83377
5.83876
5.84365
5.84983
5.85822
5.8686
5.8796
5.88995
5.89885
5.90607
5.91135
5.91459
5.91582
5.91596
5.91577
5.91645
5.91838
5.92047
5.92145
5.91897
5.91198
5.90309
5.89628
5.8939
1.40001
1.40001
1.40001
1.40001
1.40001
1.40001
1.40001
1.40001
1.40001
1.40001
1.40001
1.40001
1.40001
1.40001
1.40001
1.40001
1.40001
1.40001
1.40001
1.40001
1.40001
1.40001
1.40001
1.40001
1.40001
1.40001
1.40001
1.40001
1.40001
1.40001
1.40001
1.40001
1.40001
1.40001
1.40001
1.40001
1.40001
1.40001
1.40001
1.40001
1.40001
1.40001
1.40001
1.40001
1.40001
1.40001
1.40001
1.40001
1.40001
1.40001
1.40001
1.40001
1.40001
1.40001
1.40001
1.40001
1.40001
1.40001
1.40001
1.40001
1.40001
1.40001
2.21807
4.99899
5.44311
5.4412
5.45211
5.46515
5.47967
5.49441
5.50889
5.52305
5.53779
5.55405
5.57163
5.58985
5.60774
5.6243
5.63767
5.64675
5.65406
5.66169
5.6715
5.68589
5.70266
5.71879
5.73215
5.74044
5.7459
5.75007
5.75713
5.7685
5.78351
5.79868
5.8113
5.82021
5.82616
5.83085
5.83601
5.84282
5.85178
5.86237
5.87305
5.88267
5.89084
5.89766
5.90297
5.90653
5.90813
5.90842
5.90808
5.90842
5.91002
5.91206
5.9131
5.91069
5.90372
5.8949
5.8882
5.88592
1.40001
1.40001
1.40001
1.40001
1.40001
1.40001
1.40001
1.40001
1.40001
1.40001
1.40001
1.40001
1.40001
1.40001
1.40001
1.40001
1.40001
1.40001
1.40001
1.40001
1.40001
1.40001
1.40001
1.40001
1.40001
1.40001
1.40001
1.40001
1.40001
1.40001
1.40001
1.40001
1.40001
1.40001
1.40001
1.40001
1.40001
1.40001
1.40001
1.40001
1.40001
1.40001
1.40001
1.40001
1.40001
1.40001
1.40001
1.40001
1.40001
1.40001
1.40001
1.40001
1.40001
1.40001
1.40001
1.40001
1.40001
1.40001
1.40001
1.40001
1.40001
1.40001
2.02669
4.87793
5.44452
5.44238
5.45321
5.4657
5.48001
5.49459
5.50874
5.52238
5.53623
5.55119
5.56759
5.58512
5.60298
5.6201
5.63478
5.64487
5.65207
5.65877
5.6672
5.68019
5.69661
5.71302
5.72701
5.73588
5.74136
5.74514
5.75151
5.76232
5.77699
5.79195
5.80421
5.81258
5.818
5.82258
5.82811
5.83556
5.84501
5.85566
5.86589
5.87471
5.8821
5.88848
5.89377
5.89763
5.89959
5.89998
5.89948
5.89956
5.90097
5.90303
5.90412
5.90171
5.89471
5.88593
5.87942
5.87728
1.40001
1.40001
1.40001
1.40001
1.40001
1.40001
1.40001
1.40001
1.40001
1.40001
1.40001
1.40001
1.40001
1.40001
1.40001
1.40001
1.40001
1.40001
1.40001
1.40001
1.40001
1.40001
1.40001
1.40001
1.40001
1.40001
1.40001
1.40001
1.40001
1.40001
1.40001
1.40001
1.40001
1.40001
1.40001
1.40001
1.40001
1.40001
1.40001
1.40001
1.40001
1.40001
1.40001
1.40001
1.40001
1.40001
1.40001
1.40001
1.40001
1.40001
1.40001
1.40001
1.40001
1.40001
1.40001
1.40001
1.40001
1.40001
1.40001
1.40001
1.40001
1.40001
1.84985
4.73031
5.4461
5.44213
5.45548
5.46734
5.48115
5.49544
5.50953
5.52305
5.5362
5.54969
5.56441
5.58056
5.59764
5.61461
5.63013
5.64162
5.6496
5.65635
5.66405
5.67547
5.69082
5.70673
5.72088
5.73037
5.73632
5.7403
5.74623
5.75622
5.77
5.78431
5.79616
5.80428
5.80963
5.81437
5.82021
5.82799
5.83754
5.84796
5.85772
5.86596
5.87278
5.8788
5.88402
5.88808
5.89026
5.89072
5.89013
5.89002
5.89126
5.89325
5.8943
5.89181
5.88475
5.87602
5.86971
5.86771
1.40001
1.40001
1.40001
1.40001
1.40001
1.40001
1.40001
1.40001
1.40001
1.40001
1.40001
1.40001
1.40001
1.40001
1.40001
1.40001
1.40001
1.40001
1.40001
1.40001
1.40001
1.40001
1.40001
1.40001
1.40001
1.40001
1.40001
1.40001
1.40001
1.40001
1.40001
1.40001
1.40001
1.40001
1.40001
1.40001
1.40001
1.40001
1.40001
1.40001
1.40001
1.40001
1.40001
1.40001
1.40001
1.40001
1.40001
1.40001
1.40001
1.40001
1.40001
1.40001
1.40001
1.40001
1.40001
1.40001
1.40001
1.40001
1.40001
1.40001
1.40001
1.40001
1.69515
4.55936
5.43921
5.43778
5.45252
5.46446
5.4788
5.49342
5.50811
5.52228
5.53566
5.54847
5.56182
5.57644
5.59227
5.60853
5.62419
5.63693
5.64613
5.65369
5.6613
5.67134
5.68521
5.70008
5.71398
5.72405
5.7307
5.73528
5.7409
5.74988
5.76236
5.77575
5.78725
5.79553
5.80125
5.80637
5.81236
5.82006
5.82924
5.83915
5.8485
5.85645
5.86305
5.86883
5.87387
5.87788
5.88004
5.88046
5.87986
5.87967
5.88074
5.88257
5.88349
5.88094
5.87387
5.86522
5.85909
5.8572
1.40001
1.40001
1.40001
1.40001
1.40001
1.40001
1.40001
1.40001
1.40001
1.40001
1.40001
1.40001
1.40001
1.40001
1.40001
1.40001
1.40001
1.40001
1.40001
1.40001
1.40001
1.40001
1.40001
1.40001
1.40001
1.40001
1.40001
1.40001
1.40001
1.40001
1.40001
1.40001
1.40001
1.40001
1.40001
1.40001
1.40001
1.40001
1.40001
1.40001
1.40001
1.40001
1.40001
1.40001
1.40001
1.40001
1.40001
1.40001
1.40001
1.40001
1.40001
1.40001
1.40001
1.40001
1.40001
1.40001
1.40001
1.40001
1.40001
1.40001
1.40001
1.40001
1.55812
4.36861
5.42318
5.42954
5.44455
5.45837
5.47394
5.48919
5.50442
5.51905
5.5326
5.54509
5.55762
5.57122
5.58616
5.60182
5.61736
5.63097
5.64141
5.65008
5.65803
5.66719
5.6796
5.69323
5.70649
5.71692
5.72422
5.72952
5.73503
5.74307
5.75418
5.76657
5.77781
5.78648
5.79284
5.7984
5.80439
5.81164
5.82006
5.82924
5.8382
5.84616
5.85286
5.85855
5.8633
5.86698
5.8689
5.86926
5.86877
5.8686
5.86941
5.87088
5.87157
5.86896
5.86198
5.85341
5.84737
5.84553
1.40001
1.40001
1.40001
1.40001
1.40001
1.40001
1.40001
1.40001
1.40001
1.40001
1.40001
1.40001
1.40001
1.40001
1.40001
1.40001
1.40001
1.40001
1.40001
1.40001
1.40001
1.40001
1.40001
1.40001
1.40001
1.40001
1.40001
1.40001
1.40001
1.40001
1.40001
1.40001
1.40001
1.40001
1.40001
1.40001
1.40001
1.40001
1.40001
1.40001
1.40001
1.40001
1.40001
1.40001
1.40001
1.40001
1.40001
1.40001
1.40001
1.40001
1.40001
1.40001
1.40001
1.40001
1.40001
1.40001
1.40001
1.40001
1.40001
1.40001
1.40001
1.40001
1.42656
4.13279
5.39831
5.41319
5.42952
5.44617
5.46366
5.48051
5.49683
5.51205
5.52582
5.53866
5.55149
5.565
5.57937
5.59443
5.60964
5.62368
5.63509
5.64478
5.65333
5.66213
5.67339
5.68589
5.6984
5.70899
5.71673
5.72269
5.72817
5.73549
5.74544
5.75698
5.76804
5.77718
5.78422
5.79021
5.79607
5.80269
5.81015
5.81842
5.82695
5.83499
5.84195
5.84766
5.8521
5.85528
5.85685
5.85716
5.85682
5.85668
5.85716
5.85811
5.85846
5.85587
5.84906
5.84061
5.83457
5.8327
1.40001
1.40001
1.40001
1.40001
1.40001
1.40001
1.40001
1.40001
1.40001
1.40001
1.40001
1.40001
1.40001
1.40001
1.40001
1.40001
1.40001
1.40001
1.40001
1.40001
1.40001
1.40001
1.40001
1.40001
1.40001
1.40001
1.40001
1.40001
1.40001
1.40001
1.40001
1.40001
1.40001
1.40001
1.40001
1.40001
1.40001
1.40001
1.40001
1.40001
1.40001
1.40001
1.40001
1.40001
1.40001
1.40001
1.40001
1.40001
1.40001
1.40001
1.40001
1.40001
1.40001
1.40001
1.40001
1.40001
1.40001
1.40001
1.40001
1.40001
1.40001
1.40001
1.4006
3.86046
5.34336
5.38715
5.41128
5.43284
5.45245
5.47042
5.48696
5.50217
5.51615
5.5293
5.54227
5.55584
5.57048
5.58578
5.60102
5.61517
5.62695
5.63706
5.64612
5.65502
5.66573
5.67763
5.68958
5.70022
5.70817
5.71449
5.71997
5.72689
5.73613
5.74719
5.75822
5.76774
5.77527
5.78148
5.78711
5.79304
5.79952
5.80683
5.8148
5.8228
5.82999
5.8358
5.84003
5.84276
5.84399
5.84432
5.84409
5.8439
5.84397
5.84428
5.84419
5.84158
5.83497
5.82662
5.82044
5.81845
1.40001
1.40001
1.40001
1.40001
1.40001
1.40001
1.40001
1.40001
1.40001
1.40001
1.40001
1.40001
1.40001
1.40001
1.40001
1.40001
1.40001
1.40001
1.40001
1.40001
1.40001
1.40001
1.40001
1.40001
1.40001
1.40001
1.40001
1.40001
1.40001
1.40001
1.40001
1.40001
1.40001
1.40001
1.40001
1.40001
1.40001
1.40001
1.40001
1.40001
1.40001
1.40001
1.40001
1.40001
1.40001
1.40001
1.40001
1.40001
1.40001
1.40001
1.40001
1.40001
1.40001
1.40001
1.40001
1.40001
1.40001
1.40001
1.40001
1.40001
1.40001
1.40001
1.40001
3.53555
5.29761
5.36983
5.39417
5.41828
5.43993
5.4601
5.47796
5.49378
5.50778
5.52048
5.53309
5.5465
5.56103
5.57629
5.59141
5.60541
5.61716
5.62734
5.63688
5.64622
5.65687
5.66858
5.6801
5.69053
5.69842
5.70481
5.71033
5.71722
5.72631
5.73725
5.74829
5.75796
5.76564
5.77182
5.77719
5.78258
5.78826
5.79467
5.80189
5.80951
5.81668
5.8226
5.82678
5.82928
5.83036
5.83068
5.83043
5.83004
5.82959
5.82923
5.82865
5.82598
5.81961
5.81135
5.80495
5.80283
1.40001
1.40001
1.40001
1.40001
1.40001
1.40001
1.40001
1.40001
1.40001
1.40001
1.40001
1.40001
1.40001
1.40001
1.40001
1.40001
1.40001
1.40001
1.40001
1.40001
1.40001
1.40001
1.40001
1.40001
1.40001
1.40001
1.40001
1.40001
1.40001
1.40001
1.40001
1.40001
1.40001
1.40001
1.40001
1.40001
1.40001
1.40001
1.40001
1.40001
1.40001
1.40001
1.40001
1.40001
1.40001
1.40001
1.40001
1.40001
1.40001
1.40001
1.40001
1.40001
1.40001
1.40001
1.40001
1.40001
1.40001
1.40001
1.40001
1.40001
1.40001
1.40001
1.40001
3.18973
5.25811
5.36373
5.38665
5.40897
5.42971
5.45006
5.46806
5.48399
5.49799
5.51061
5.52314
5.53671
5.55165
5.56727
5.58244
5.5962
5.60746
5.61685
5.62595
5.63539
5.64601
5.65782
5.66926
5.67965
5.68764
5.69406
5.69971
5.70673
5.7159
5.72686
5.73787
5.74747
5.75506
5.76107
5.76623
5.77125
5.77633
5.78188
5.78814
5.795
5.80184
5.80783
5.81218
5.81475
5.81593
5.81625
5.81579
5.81501
5.81397
5.81295
5.81185
5.80903
5.80279
5.79452
5.7878
5.78553
1.40001
1.40001
1.40001
1.40001
1.40001
1.40001
1.40001
1.40001
1.40001
1.40001
1.40001
1.40001
1.40001
1.40001
1.40001
1.40001
1.40001
1.40001
1.40001
1.40001
1.40001
1.40001
1.40001
1.40001
1.40001
1.40001
1.40001
1.40001
1.40001
1.40001
1.40001
1.40001
1.40001
1.40001
1.40001
1.40001
1.40001
1.40001
1.40001
1.40001
1.40001
1.40001
1.40001
1.40001
1.40001
1.40001
1.40001
1.40001
1.40001
1.40001
1.40001
1.40001
1.40001
1.40001
1.40001
1.40001
1.40001
1.40001
1.40001
1.40001
1.40001
1.40001
1.40001
2.82664
5.19824
5.37275
5.3885
5.40692
5.42618
5.44551
5.46341
5.47861
5.49142
5.5028
5.51422
5.52697
5.54151
5.55713
5.57236
5.58594
5.59696
5.60577
5.61425
5.62371
5.63439
5.64642
5.65788
5.66813
5.6761
5.68244
5.68824
5.69543
5.70479
5.71578
5.72665
5.73602
5.74333
5.7491
5.75409
5.75889
5.76355
5.76832
5.77351
5.77932
5.7855
5.79141
5.79607
5.79897
5.8004
5.80066
5.79986
5.79848
5.79677
5.79514
5.79356
5.79054
5.78437
5.77604
5.76901
5.7667
1.40001
1.40001
1.40001
1.40001
1.40001
1.40001
1.40001
1.40001
1.40001
1.40001
1.40001
1.40001
1.40001
1.40001
1.40001
1.40001
1.40001
1.40001
1.40001
1.40001
1.40001
1.40001
1.40001
1.40001
1.40001
1.40001
1.40001
1.40001
1.40001
1.40001
1.40001
1.40001
1.40001
1.40001
1.40001
1.40001
1.40001
1.40001
1.40001
1.40001
1.40001
1.40001
1.40001
1.40001
1.40001
1.40001
1.40001
1.40001
1.40001
1.40001
1.40001
1.40001
1.40001
1.40001
1.40001
1.40001
1.40001
1.40001
1.40001
1.40001
1.40001
1.40001
1.40001
2.47116
5.08333
5.40063
5.40027
5.41108
5.4265
5.44428
5.46168
5.47651
5.48854
5.4988
5.50882
5.52065
5.53454
5.54937
5.56385
5.57657
5.58675
5.59455
5.60212
5.61132
5.62201
5.6342
5.64576
5.65588
5.66399
5.67033
5.67628
5.68351
5.69291
5.70376
5.71432
5.72328
5.73021
5.73574
5.74066
5.74536
5.74973
5.7538
5.7579
5.76249
5.76775
5.77337
5.77833
5.78176
5.78356
5.78374
5.78255
5.78044
5.77805
5.77583
5.77372
5.77035
5.76403
5.75551
5.74816
5.74587
1.40001
1.40001
1.40001
1.40001
1.40001
1.40001
1.40001
1.40001
1.40001
1.40001
1.40001
1.40001
1.40001
1.40001
1.40001
1.40001
1.40001
1.40001
1.40001
1.40001
1.40001
1.40001
1.40001
1.40001
1.40001
1.40001
1.40001
1.40001
1.40001
1.40001
1.40001
1.40001
1.40001
1.40001
1.40001
1.40001
1.40001
1.40001
1.40001
1.40001
1.40001
1.40001
1.40001
1.40001
1.40001
1.40001
1.40001
1.40001
1.40001
1.40001
1.40001
1.40001
1.40001
1.40001
1.40001
1.40001
1.40001
1.40001
1.40001
1.40001
1.40001
1.40001
1.40001
2.12952
4.91179
5.42255
5.42053
5.43049
5.44123
5.45464
5.46863
5.48064
5.49026
5.49852
5.50658
5.51665
5.52939
5.54378
5.55768
5.56938
5.5785
5.58521
5.59122
5.59928
5.60954
5.62156
5.63311
5.64309
5.6513
5.65792
5.66408
5.67124
5.68037
5.69073
5.7007
5.7091
5.71563
5.72094
5.72583
5.73049
5.73463
5.73809
5.74122
5.74461
5.74881
5.7539
5.75897
5.76286
5.76497
5.76508
5.7634
5.76051
5.75743
5.75468
5.75202
5.74818
5.74159
5.73287
5.72536
5.72325
1.40001
1.40001
1.40001
1.40001
1.40001
1.40001
1.40001
1.40001
1.40001
1.40001
1.40001
1.40001
1.40001
1.40001
1.40001
1.40001
1.40001
1.40001
1.40001
1.40001
1.40001
1.40001
1.40001
1.40001
1.40001
1.40001
1.40001
1.40001
1.40001
1.40001
1.40001
1.40001
1.40001
1.40001
1.40001
1.40001
1.40001
1.40001
1.40001
1.40001
1.40001
1.40001
1.40001
1.40001
1.40001
1.40001
1.40001
1.40001
1.40001
1.40001
1.40001
1.40001
1.40001
1.40001
1.40001
1.40001
1.40001
1.40001
1.40001
1.40001
1.40001
1.40001
1.40001
1.80813
4.71611
5.45693
5.42953
5.43778
5.44569
5.45824
5.47216
5.48456
5.49417
5.50177
5.5085
5.51654
5.52745
5.54058
5.55353
5.56416
5.57202
5.5778
5.58282
5.58954
5.59872
5.61002
5.62127
5.63092
5.63883
5.64549
5.65166
5.65849
5.66708
5.67677
5.68598
5.69367
5.69969
5.70471
5.70951
5.71412
5.71808
5.72108
5.72343
5.72576
5.72887
5.73317
5.73804
5.74214
5.74444
5.74444
5.7423
5.73876
5.73508
5.73178
5.72844
5.72385
5.71666
5.70757
5.69997
5.69808
1.40001
1.40001
1.40001
1.40001
1.40001
1.40001
1.40001
1.40001
1.40001
1.40001
1.40001
1.40001
1.40001
1.40001
1.40001
1.40001
1.40001
1.40001
1.40001
1.40001
1.40001
1.40001
1.40001
1.40001
1.40001
1.40001
1.40001
1.40001
1.40001
1.40001
1.40001
1.40001
1.40001
1.40001
1.40001
1.40001
1.40001
1.40001
1.40001
1.40001
1.40001
1.40001
1.40001
1.40001
1.40001
1.40001
1.40001
1.40001
1.40001
1.40001
1.40001
1.40001
1.40001
1.40001
1.40001
1.40001
1.40001
1.40001
1.40001
1.40001
1.40001
1.40001
1.40001
1.52597
4.40825
5.45919
5.43469
5.44064
5.44665
5.45774
5.47098
5.48437
5.49598
5.50457
5.51066
5.51719
5.52675
5.53886
5.55119
5.56099
5.56757
5.57235
5.57636
5.58198
5.58985
5.6
5.61063
5.61968
5.62698
5.63323
5.6391
5.64535
5.65304
5.66182
5.67025
5.67726
5.68274
5.68733
5.69183
5.69626
5.70004
5.7027
5.70448
5.70597
5.70803
5.71133
5.71556
5.71948
5.72167
5.72141
5.71875
5.71466
5.71044
5.70656
5.70245
5.69697
5.68907
5.67963
5.67216
5.67063
1.40001
1.40001
1.40001
1.40001
1.40001
1.40001
1.40001
1.40001
1.40001
1.40001
1.40001
1.40001
1.40001
1.40001
1.40001
1.40001
1.40001
1.40001
1.40001
1.40001
1.40001
1.40001
1.40001
1.40001
1.40001
1.40001
1.40001
1.40001
1.40001
1.40001
1.40001
1.40001
1.40001
1.40001
1.40001
1.40001
1.40001
1.40001
1.40001
1.40001
1.40001
1.40001
1.40001
1.40001
1.40001
1.40001
1.40001
1.40001
1.40001
1.40001
1.40001
1.40001
1.40001
1.40001
1.40001
1.40001
1.40001
1.40001
1.40001
1.40001
1.40001
1.40001
1.40001
1.40532
4.03704
5.3732
5.3843
5.40622
5.42556
5.44392
5.46069
5.47562
5.4884
5.49908
5.50746
5.51578
5.5258
5.53749
5.54932
5.55882
5.56475
5.56878
5.57222
5.5769
5.58329
5.59179
5.6013
5.60943
5.6158
5.6212
5.6264
5.63187
5.63859
5.64649
5.65418
5.66044
5.6652
5.66908
5.67299
5.67705
5.68063
5.68305
5.68441
5.68523
5.68631
5.68839
5.69159
5.69489
5.69662
5.69592
5.69283
5.68837
5.68377
5.67928
5.67419
5.66748
5.65845
5.64833
5.64083
5.63941
1.40001
1.40001
1.40001
1.40001
1.40001
1.40001
1.40001
1.40001
1.40001
1.40001
1.40001
1.40001
1.40001
1.40001
1.40001
1.40001
1.40001
1.40001
1.40001
1.40001
1.40001
1.40001
1.40001
1.40001
1.40001
1.40001
1.40001
1.40001
1.40001
1.40001
1.40001
1.40001
1.40001
1.40001
1.40001
1.40001
1.40001
1.40001
1.40001
1.40001
1.40001
1.40001
1.40001
1.40001
1.40001
1.40001
1.40001
1.40001
1.40001
1.40001
1.40001
1.40001
1.40001
1.40001
1.40001
1.40001
1.40001
1.40001
1.40001
1.40001
1.40001
1.40001
1.40001
1.40003
3.59011
5.26973
5.35205
5.38714
5.41189
5.43101
5.44742
5.46266
5.47714
5.49015
5.50045
5.50976
5.52006
5.53236
5.54515
5.55554
5.56178
5.56567
5.56905
5.57316
5.57843
5.58517