/*--------------------------------*- C++ -*----------------------------------*\
  =========                 |
  \\      /  F ield         | OpenFOAM: The Open Source CFD Toolbox
   \\    /   O peration     | Website:  https://openfoam.org
    \\  /    A nd           | Version:  7
     \\/     M anipulation  |
\*---------------------------------------------------------------------------*/
FoamFile
{
    version     2.0;
    format      ascii;
    class       volVectorField;
    location    "12.999798";
    object      U;
}
// * * * * * * * * * * * * * * * * * * * * * * * * * * * * * * * * * * * * * //

dimensions      [0 1 -1 0 0 0 0];

internalField   nonuniform List<vector> 
5800
(
(-0.00035462 0.000429681 -1.7984e-21)
(-0.00192495 0.0010496 -6.98112e-21)
(-0.0050301 0.00147338 1.31145e-21)
(-0.0090406 0.00172854 5.13048e-21)
(-0.0135593 0.00183622 2.24292e-21)
(-0.0182742 0.00181567 -5.59742e-21)
(-0.022878 0.00168522 -1.81154e-21)
(-0.0270871 0.00146166 -7.33472e-22)
(-0.0306468 0.00115999 -6.72129e-21)
(-0.0333293 0.000793486 -1.28557e-21)
(0.00279674 0.00360026 -4.77015e-21)
(0.0163938 0.00936382 -1.72288e-20)
(0.0448521 0.0138529 3.2621e-21)
(0.0836717 0.0171698 1.17846e-20)
(0.130128 0.0194119 4.91761e-21)
(0.182091 0.020697 -1.20556e-20)
(0.237412 0.0211696 -3.75963e-21)
(0.294173 0.0209884 -1.5402e-21)
(0.350789 0.0203149 -7.98984e-21)
(0.406032 0.0193018 -7.30654e-21)
(0.459022 0.0180836 -9.38637e-21)
(0.00279674 -0.00360026 4.77015e-21)
(0.0163938 -0.00936383 1.72288e-20)
(0.0448521 -0.013853 -3.2621e-21)
(0.0836717 -0.0171698 -1.17846e-20)
(0.130128 -0.0194119 -4.91761e-21)
(0.182091 -0.020697 1.20556e-20)
(0.237412 -0.0211696 3.75963e-21)
(0.294173 -0.0209884 1.5402e-21)
(0.350789 -0.0203149 1.33868e-20)
(0.406032 -0.0193018 2.43139e-21)
(0.459022 -0.0180836 9.38637e-21)
(0.5092 -0.0167694 -1.39667e-21)
(0.556272 -0.0154403 4.60182e-21)
(0.600142 -0.0141502 -7.90284e-21)
(0.640847 -0.0129309 9.65055e-21)
(0.678507 -0.011797 9.9717e-21)
(0.713281 -0.0107526 2.81746e-21)
(0.745347 -0.00979612 -1.44577e-20)
(0.774879 -0.00892206 1.17362e-20)
(0.802047 -0.00811864 -1.70161e-21)
(0.00335202 -0.0107677 -7.03546e-21)
(0.0178123 -0.0280098 -1.12435e-20)
(0.0468995 -0.0414446 -3.54335e-21)
(0.0861504 -0.0513761 -1.02433e-20)
(0.13287 -0.0580945 2.26973e-21)
(0.184953 -0.0619503 -1.53633e-20)
(0.240283 -0.0633745 -5.73399e-21)
(0.296969 -0.0628413 -1.26453e-20)
(0.353451 -0.0608325 7.11881e-21)
(0.408523 -0.0578055 -1.71835e-20)
(0.461324 -0.0541625 -5.36232e-20)
(0.511307 -0.0502304 8.69968e-21)
(0.558189 -0.0462522 -1.23111e-20)
(0.601878 -0.04239 7.39111e-21)
(0.642415 -0.0387387 -1.78688e-20)
(0.67992 -0.0353429 1.87421e-21)
(0.714552 -0.0322148 -9.37942e-21)
(0.746489 -0.0293499 5.37938e-20)
(0.775908 -0.0267314 -5.27403e-21)
(0.802965 -0.0243248 6.7209e-21)
(0.00445568 -0.0178363 -2.15241e-20)
(0.0206328 -0.0464115 -2.24213e-20)
(0.0509714 -0.0686945 5.18015e-21)
(0.0910818 -0.0851837 1.12521e-20)
(0.138325 -0.0963542 4.74786e-21)
(0.190652 -0.102782 -1.49522e-20)
(0.246002 -0.105178 -2.19411e-20)
(0.302539 -0.104323 4.75305e-20)
(0.358756 -0.101015 -1.33358e-20)
(0.413489 -0.0960103 1.75446e-20)
(0.465913 -0.0899772 2.81579e-20)
(0.515509 -0.0834587 4.93211e-21)
(0.562011 -0.0768587 8.19204e-21)
(0.60534 -0.0704481 1.80042e-20)
(0.645543 -0.0643852 -1.89152e-20)
(0.68274 -0.058745 1.80978e-20)
(0.71709 -0.0535485 -2.16067e-21)
(0.74877 -0.0487884 -5.25751e-20)
(0.777963 -0.0444364 3.525e-20)
(0.804797 -0.0404375 -2.88703e-20)
(0.00609398 -0.0247415 1.66585e-20)
(0.0248219 -0.064409 -2.77812e-20)
(0.0570225 -0.0953788 4.22611e-20)
(0.0984142 -0.118331 -1.90566e-20)
(0.146442 -0.133913 1.02398e-19)
(0.199136 -0.142916 6.1421e-20)
(0.254519 -0.146314 -3.84976e-20)
(0.31084 -0.145188 -9.28682e-20)
(0.366665 -0.14064 3.72211e-20)
(0.420896 -0.133719 2.5728e-20)
(0.47276 -0.125354 3.5107e-20)
(0.521781 -0.1163 -6.98813e-20)
(0.567718 -0.107124 -8.26791e-20)
(0.610511 -0.0982046 6.32539e-20)
(0.650215 -0.089764 4.98218e-20)
(0.686953 -0.0819085 -1.72731e-20)
(0.720882 -0.074669 3.78302e-20)
(0.752179 -0.0680357 2.29361e-21)
(0.781034 -0.0619683 -5.73368e-20)
(0.807537 -0.0563951 -1.81444e-20)
(0.00824656 -0.0314206 -6.16292e-20)
(0.0303305 -0.081847 -1.8474e-20)
(0.0649852 -0.121279 -6.36055e-20)
(0.10807 -0.150562 1.84314e-20)
(0.15714 -0.1705 -9.72241e-20)
(0.210326 -0.182079 -5.86766e-20)
(0.265764 -0.186525 7.00519e-20)
(0.321807 -0.185197 8.83922e-20)
(0.377122 -0.17949 -8.03644e-20)
(0.430695 -0.170737 2.15217e-20)
(0.481825 -0.16012 -3.09618e-20)
(0.530087 -0.148605 1.21789e-19)
(0.575279 -0.136916 -3.94151e-20)
(0.617364 -0.125542 -1.42308e-20)
(0.656408 -0.11477 -8.27749e-21)
(0.692539 -0.10474 -2.91453e-20)
(0.725912 -0.0954929 -7.216e-20)
(0.756701 -0.087017 -1.50512e-21)
(0.785109 -0.0792593 2.03937e-20)
(0.811176 -0.0721364 -1.93542e-20)
(0.0108866 -0.0378134 -4.04413e-20)
(0.0370936 -0.098576 -1.79706e-20)
(0.0747705 -0.146186 1.03151e-19)
(0.119949 -0.18163 5.72101e-20)
(0.170313 -0.205851 2.37559e-20)
(0.224121 -0.220009 -7.53062e-20)
(0.27964 -0.225557 -8.86124e-20)
(0.335355 -0.224115 1.07273e-20)
(0.390051 -0.217353 2.13032e-20)
(0.442821 -0.206875 1.65143e-20)
(0.493049 -0.194108 5.52957e-20)
(0.540378 -0.180223 -1.24213e-19)
(0.584652 -0.166102 1.74373e-21)
(0.625862 -0.152344 4.49008e-20)
(0.664091 -0.139302 2.86085e-21)
(0.699472 -0.127149 -9.05749e-21)
(0.732157 -0.115939 -2.38504e-20)
(0.762318 -0.105659 8.93733e-20)
(0.790173 -0.0962432 -3.89458e-20)
(0.815702 -0.0876013 3.19706e-20)
(0.0139814 -0.0438633 6.43267e-20)
(0.0450315 -0.114454 -3.72069e-20)
(0.0862691 -0.169898 -4.26539e-20)
(0.133925 -0.2113 -3.9739e-20)
(0.185832 -0.239714 -7.92492e-20)
(0.240393 -0.256451 -1.04584e-20)
(0.29603 -0.263165 1.40525e-20)
(0.351376 -0.261713 -3.30711e-20)
(0.405359 -0.254022 4.84893e-20)
(0.457192 -0.241949 4.03365e-21)
(0.506364 -0.227154 -2.16965e-20)
(0.552595 -0.211012 1.00809e-19)
(0.595785 -0.194557 3.05013e-20)
(0.635961 -0.178499 -3.02136e-20)
(0.673226 -0.163259 6.8314e-20)
(0.707718 -0.149046 -7.32034e-20)
(0.739589 -0.135927 -7.95326e-21)
(0.769007 -0.123891 9.36463e-21)
(0.796206 -0.112856 1.05388e-19)
(0.8211 -0.102731 -5.94126e-20)
(0.0174922 -0.0495175 2.31646e-20)
(0.0540506 -0.12935 2.8337e-20)
(0.0993522 -0.192228 1.23604e-19)
(0.14985 -0.239348 5.30497e-20)
(0.203543 -0.271849 1.8123e-19)
(0.258994 -0.291163 1.52588e-20)
(0.314794 -0.299116 8.78788e-20)
(0.369746 -0.297775 6.26462e-20)
(0.422934 -0.289298 -1.37783e-19)
(0.473712 -0.275779 -2.26798e-20)
(0.521686 -0.259102 -5.38981e-20)
(0.566666 -0.240832 -6.85487e-20)
(0.608617 -0.222158 2.27731e-20)
(0.64761 -0.203899 7.31414e-20)
(0.683767 -0.186546 -6.52288e-20)
(0.71724 -0.170346 -5.83337e-20)
(0.748175 -0.155383 5.79043e-20)
(0.776739 -0.141645 -7.8337e-20)
(0.803184 -0.129034 -1.13993e-19)
(0.827354 -0.117468 -3.09895e-20)
(0.0213756 -0.0547279 -6.42623e-20)
(0.0640445 -0.14314 -7.07774e-20)
(0.113873 -0.213002 -3.68473e-20)
(0.167555 -0.265568 -8.87373e-20)
(0.223271 -0.302032 -4.38573e-20)
(0.279751 -0.323917 -1.04822e-19)
(0.335771 -0.333188 -9.25264e-20)
(0.390318 -0.332092 3.5494e-20)
(0.442648 -0.322991 5.64172e-20)
(0.492271 -0.308196 -1.00728e-19)
(0.538919 -0.289799 6.46166e-20)
(0.582508 -0.26955 -4.42101e-20)
(0.623078 -0.248788 -6.05198e-20)
(0.660746 -0.228441 -6.47578e-20)
(0.695663 -0.209072 1.84836e-19)
(0.727991 -0.190969 8.36742e-20)
(0.757877 -0.174233 2.05706e-20)
(0.785482 -0.158856 -8.92457e-20)
(0.811082 -0.144721 1.89112e-19)
(0.834445 -0.131758 7.09699e-20)
(0.0255832 -0.0594514 -8.62889e-20)
(0.0748952 -0.155716 1.04893e-19)
(0.129669 -0.232063 1.03491e-19)
(0.186854 -0.289769 1.08184e-19)
(0.244818 -0.330054 6.51626e-20)
(0.30247 -0.3545 1.57149e-20)
(0.35878 -0.365173 1.07072e-19)
(0.412929 -0.364468 -1.32703e-19)
(0.464357 -0.354922 -3.81706e-20)
(0.512741 -0.339038 -3.28769e-20)
(0.557956 -0.319102 1.48977e-19)
(0.60003 -0.29704 -2.10894e-20)
(0.639088 -0.274335 1.84251e-20)
(0.675301 -0.252026 3.87953e-21)
(0.708854 -0.23075 6.55484e-20)
(0.739922 -0.210837 -8.3424e-20)
(0.768652 -0.192409 1.69489e-20)
(0.795201 -0.175462 1.95999e-19)
(0.819869 -0.159859 -2.85186e-20)
(0.842351 -0.145548 -1.28352e-19)
(0.0300626 -0.0636507 -5.34868e-20)
(0.0864744 -0.166982 1.81655e-20)
(0.146561 -0.249268 -1.09773e-19)
(0.20754 -0.31178 -5.28764e-20)
(0.26797 -0.355729 -7.19786e-20)
(0.326941 -0.382717 -6.31521e-21)
(0.383623 -0.39488 -1.43802e-19)
(0.437398 -0.39472 1.2931e-19)
(0.487901 -0.38492 5.81562e-20)
(0.534984 -0.368152 2.54269e-20)
(0.578676 -0.346876 -1.44516e-19)
(0.619128 -0.323181 2.63911e-20)
(0.656558 -0.298695 -1.91775e-20)
(0.6912 -0.274563 -8.37215e-20)
(0.723275 -0.251499 -7.95439e-20)
(0.752977 -0.229878 1.32463e-19)
(0.780452 -0.209847 6.78089e-20)
(0.805856 -0.191407 -3.9912e-20)
(0.829513 -0.174398 -1.12111e-19)
(0.85105 -0.15879 1.68673e-20)
(0.0347582 -0.0672945 7.17079e-20)
(0.0986451 -0.176854 3.52452e-20)
(0.164359 -0.264498 4.4505e-20)
(0.229392 -0.331452 4.72514e-20)
(0.292493 -0.378888 -5.10012e-20)
(0.352933 -0.408393 1.11453e-19)
(0.410082 -0.422133 -1.11717e-19)
(0.463529 -0.42268 -4.53746e-21)
(0.513105 -0.41283 9.29749e-20)
(0.558847 -0.395396 1.99281e-20)
(0.600948 -0.372993 8.58425e-20)
(0.63969 -0.347863 -3.66546e-20)
(0.675393 -0.321769 2.35242e-20)
(0.708359 -0.295965 1.53798e-19)
(0.738854 -0.271244 -9.3418e-21)
(0.767093 -0.248027 -4.68479e-20)
(0.793226 -0.226488 -1.00421e-19)
(0.817403 -0.206639 -1.66987e-19)
(0.83998 -0.188291 -2.60418e-20)
(0.860518 -0.171437 1.70916e-19)
(0.0396117 -0.070358 8.79355e-20)
(0.111263 -0.185267 5.4197e-21)
(0.182862 -0.277651 -1.69225e-19)
(0.252175 -0.348658 6.84864e-20)
(0.31814 -0.399385 2.91407e-22)
(0.380201 -0.431372 7.04822e-20)
(0.437926 -0.446774 6.70027e-20)
(0.491108 -0.448196 -6.11169e-21)
(0.539779 -0.43851 -3.93497e-20)
(0.584167 -0.420641 -1.40345e-19)
(0.62463 -0.397337 4.38541e-20)
(0.661594 -0.370982 1.8564e-19)
(0.695487 -0.343467 -1.33136e-19)
(0.726689 -0.316154 -1.12273e-19)
(0.755515 -0.289914 -7.16903e-20)
(0.782205 -0.265222 -1.74058e-19)
(0.806915 -0.24228 5.18993e-20)
(0.829794 -0.221112 2.51179e-19)
(0.851229 -0.201497 -3.80846e-20)
(0.870729 -0.183451 -4.83123e-20)
(0.0445628 -0.072823 3.8677e-20)
(0.124179 -0.192169 -6.13366e-20)
(0.201861 -0.288647 5.52757e-20)
(0.275645 -0.363292 -8.51263e-20)
(0.344649 -0.417098 9.21845e-20)
(0.408484 -0.451522 -9.15521e-20)
(0.466908 -0.468666 -2.17851e-20)
(0.51991 -0.471131 1.00692e-19)
(0.567724 -0.461829 -7.87381e-20)
(0.610767 -0.443766 8.95937e-20)
(0.649571 -0.419802 -1.08669e-19)
(0.684711 -0.392444 -6.43501e-20)
(0.716729 -0.363706 -4.59984e-20)
(0.746094 -0.335056 7.33707e-20)
(0.773174 -0.307447 1.53624e-20)
(0.79824 -0.281408 9.35941e-20)
(0.82146 -0.257175 -6.3953e-20)
(0.842978 -0.234785 -4.77588e-21)
(0.863217 -0.213983 9.94508e-20)
(0.881651 -0.194799 -4.56409e-20)
(0.0495501 -0.0746782 -1.0094e-20)
(0.137239 -0.197525 -3.90707e-20)
(0.221138 -0.297427 -8.23635e-21)
(0.299547 -0.375277 -2.10878e-20)
(0.37175 -0.431932 -6.22752e-20)
(0.437512 -0.468733 -5.33892e-20)
(0.496768 -0.487694 -3.58235e-20)
(0.549697 -0.49137 -5.06436e-20)
(0.596726 -0.482675 1.05952e-19)
(0.63846 -0.464666 1.13152e-20)
(0.67561 -0.44029 1.70872e-19)
(0.708901 -0.412163 5.42457e-20)
(0.739002 -0.382412 6.04201e-20)
(0.766473 -0.352608 -9.79828e-20)
(0.791744 -0.323787 1.52322e-19)
(0.815123 -0.296537 -2.73956e-20)
(0.836793 -0.271132 -1.67867e-20)
(0.856896 -0.247624 -1.40407e-19)
(0.875897 -0.225722 6.58522e-20)
(0.893253 -0.205459 -5.35609e-20)
(0.0545119 -0.0759193 -8.78417e-20)
(0.15029 -0.201319 -3.66455e-20)
(0.240475 -0.303958 -5.59215e-20)
(0.323621 -0.384558 -4.60662e-20)
(0.399164 -0.443814 -9.85338e-21)
(0.467004 -0.482918 1.12489e-19)
(0.527237 -0.503761 9.42803e-20)
(0.580219 -0.508811 7.99339e-20)
(0.62656 -0.500949 -8.2872e-20)
(0.667051 -0.483248 -4.86808e-20)
(0.702577 -0.458717 -1.78036e-19)
(0.73402 -0.430063 1.41939e-19)
(0.762181 -0.399517 -5.56772e-20)
(0.787718 -0.36875 1.03093e-19)
(0.811131 -0.338883 -7.8169e-20)
(0.832772 -0.310566 2.91858e-20)
(0.852842 -0.284114 -3.94813e-20)
(0.871485 -0.259601 1.2526e-19)
(0.889211 -0.236696 -9.97647e-20)
(0.905494 -0.215419 -4.41316e-20)
(0.0593871 -0.076549 1.06878e-19)
(0.163175 -0.203548 -4.37284e-20)
(0.259651 -0.308228 6.87843e-20)
(0.347604 -0.391108 6.46334e-20)
(0.426605 -0.4527 -2.14587e-20)
(0.496671 -0.494019 -1.21716e-19)
(0.558036 -0.516796 8.44311e-20)
(0.611218 -0.523376 -1.71426e-20)
(0.656995 -0.51657 2.64118e-20)
(0.696335 -0.499434 3.33022e-20)
(0.730294 -0.47501 -6.86365e-20)
(0.759916 -0.446078 -1.67272e-19)
(0.786136 -0.414963 7.43618e-21)
(0.809718 -0.383432 -1.75384e-20)
(0.83124 -0.352692 5.17198e-21)
(0.851103 -0.323458 9.15343e-20)
(0.869533 -0.29609 -8.93907e-20)
(0.886676 -0.270693 -1.39512e-19)
(0.903093 -0.246899 -3.68542e-20)
(0.918325 -0.224683 7.46551e-20)
(0.0641156 -0.0765769 1.66728e-20)
(0.175743 -0.20423 -6.46691e-20)
(0.278446 -0.310247 6.995e-21)
(0.371233 -0.394925 -5.41445e-20)
(0.453788 -0.458572 -1.79258e-20)
(0.52622 -0.502001 -1.21158e-20)
(0.588882 -0.52675 1.93144e-20)
(0.642428 -0.535006 -6.04193e-20)
(0.687789 -0.529473 -1.41658e-20)
(0.726098 -0.513157 4.0444e-20)
(0.758578 -0.489106 2.81387e-20)
(0.786431 -0.460153 1.03036e-19)
(0.810731 -0.428701 1.04521e-19)
(0.832357 -0.396612 -2.75993e-20)
(0.85197 -0.365176 7.24328e-21)
(0.870027 -0.335179 3.02632e-20)
(0.886788 -0.307033 1.1647e-19)
(0.902395 -0.280881 1.3862e-19)
(0.917458 -0.256323 1.57374e-19)
(0.931693 -0.233254 -2.06606e-20)
(0.0686395 -0.0760194 -1.04298e-20)
(0.187844 -0.203397 5.19867e-20)
(0.296645 -0.31005 4.60127e-20)
(0.394247 -0.396037 2.59849e-20)
(0.480425 -0.461441 -4.79767e-20)
(0.555356 -0.506855 1.2931e-19)
(0.619485 -0.533597 -3.49839e-20)
(0.673576 -0.543663 8.97574e-21)
(0.718694 -0.539612 -5.03221e-20)
(0.756121 -0.524368 -4.98951e-21)
(0.787237 -0.500957 8.93289e-20)
(0.813401 -0.47224 -4.72816e-20)
(0.835829 -0.44069 -1.79917e-20)
(0.855518 -0.408252 -4.40738e-20)
(0.873221 -0.376303 4.22276e-20)
(0.889458 -0.3457 -8.75303e-20)
(0.904527 -0.316913 3.41489e-20)
(0.918566 -0.290128 -2.32571e-20)
(0.932189 -0.264923 9.46946e-21)
(0.945482 -0.241143 4.50498e-20)
(0.0729037 -0.0748993 -4.22769e-20)
(0.199336 -0.201098 7.53079e-21)
(0.314039 -0.307695 -1.03075e-21)
(0.416391 -0.394493 -2.47412e-20)
(0.506234 -0.461343 1.83713e-20)
(0.583785 -0.508601 -8.23353e-20)
(0.649553 -0.537337 -7.03961e-21)
(0.704387 -0.549328 -4.0691e-20)
(0.749458 -0.546957 6.26657e-20)
(0.786178 -0.53303 4.79061e-20)
(0.816076 -0.510523 -8.43125e-20)
(0.840658 -0.482304 6.55367e-20)
(0.861285 -0.450897 -5.67243e-20)
(0.87908 -0.418324 1.41131e-20)
(0.894892 -0.386045 -1.90489e-19)
(0.909311 -0.354993 7.23846e-21)
(0.922688 -0.325691 -6.77408e-20)
(0.935157 -0.298353 -1.00107e-19)
(0.947188 -0.272558 -6.08931e-20)
(0.959371 -0.248292 -9.96878e-20)
(0.0768567 -0.0732454 -7.55505e-21)
(0.210083 -0.197396 2.30203e-20)
(0.330427 -0.303259 -6.4e-21)
(0.437417 -0.390371 -6.61615e-21)
(0.530937 -0.458344 -6.92985e-21)
(0.611216 -0.507282 4.11071e-20)
(0.678796 -0.537994 -1.62805e-20)
(0.734581 -0.552007 -1.2393e-20)
(0.779823 -0.551498 -7.36739e-21)
(0.81604 -0.539124 -2.89258e-20)
(0.844893 -0.517781 2.18652e-20)
(0.868031 -0.490319 -6.16206e-20)
(0.886956 -0.459298 5.48e-20)
(0.902921 -0.426806 5.60396e-20)
(0.916883 -0.394385 1.03827e-19)
(0.929514 -0.363041 3.63987e-20)
(0.94125 -0.333346 7.45469e-20)
(0.952321 -0.305523 8.35042e-20)
(0.963135 -0.27937 7.62685e-20)
(0.975386 -0.255372 3.85243e-20)
(0.0804508 -0.0710925 1.93497e-21)
(0.21996 -0.192373 -2.45042e-21)
(0.345623 -0.296844 3.60684e-21)
(0.457091 -0.383775 1.09369e-20)
(0.554265 -0.452535 4.98901e-21)
(0.637363 -0.502972 -1.88906e-20)
(0.706926 -0.535617 1.44864e-20)
(0.763881 -0.551726 -3.69527e-21)
(0.809529 -0.553242 -2.08694e-20)
(0.845472 -0.542645 -7.05183e-21)
(0.873482 -0.522717 6.39826e-20)
(0.895341 -0.49627 1.48195e-20)
(0.912691 -0.465877 1.06045e-20)
(0.926917 -0.433687 -4.36331e-20)
(0.939092 -0.401315 -1.36875e-19)
(0.949984 -0.369847 4.34649e-20)
(0.960123 -0.339914 2.93213e-20)
(0.969872 -0.311791 -8.53929e-20)
(0.97956 -0.28557 -4.90216e-20)
(0.990356 -0.261876 -2.52746e-20)
(0.0836443 -0.0684807 -4.33649e-21)
(0.228851 -0.186119 4.71275e-21)
(0.359451 -0.288568 -1.88001e-20)
(0.47519 -0.374829 -3.18981e-21)
(0.575965 -0.444031 5.53266e-21)
(0.661951 -0.495766 -2.46561e-21)
(0.733661 -0.530277 2.32338e-21)
(0.792009 -0.548532 8.48897e-22)
(0.838316 -0.552216 1.8018e-20)
(0.874237 -0.543601 1.69477e-20)
(0.901635 -0.525332 -3.89525e-20)
(0.92241 -0.500151 -7.30394e-20)
(0.938338 -0.47063 2.67491e-20)
(0.950938 -0.438962 2.49457e-20)
(0.961408 -0.406835 6.95674e-20)
(0.970619 -0.375417 -1.05326e-20)
(0.979191 -0.34541 1.60722e-22)
(0.987585 -0.317161 2.73833e-21)
(0.996042 -0.290971 -6.94866e-21)
(1.00494 -0.267504 -1.14114e-19)
(0.086403 -0.0654554 1.89607e-20)
(0.236653 -0.178737 2.67559e-20)
(0.371752 -0.278569 2.44877e-20)
(0.49151 -0.363682 7.1573e-21)
(0.595794 -0.432976 -1.16835e-20)
(0.684715 -0.485788 -1.69299e-20)
(0.758725 -0.522071 -1.2007e-20)
(0.818693 -0.542495 4.5456e-21)
(0.865923 -0.548464 -2.30551e-21)
(0.902097 -0.542019 -8.82364e-21)
(0.929139 -0.525637 4.96446e-21)
(0.949053 -0.501966 2.99258e-20)
(0.963739 -0.473558 -2.74157e-20)
(0.974852 -0.442633 1.15111e-21)
(0.983715 -0.410949 -1.62659e-20)
(0.991309 -0.379754 -1.02007e-20)
(0.998338 -0.349831 4.96808e-21)
(1.00532 -0.321594 -1.69627e-20)
(1.0124 -0.295471 1.77918e-20)
(1.01942 -0.27212 1.0267e-19)
(0.0886948 -0.062058 2.07973e-20)
(0.243285 -0.170342 -5.55378e-20)
(0.382387 -0.267002 3.52323e-20)
(0.505863 -0.350504 1.19998e-20)
(0.61353 -0.419533 -3.16474e-20)
(0.705406 -0.473185 1.69216e-20)
(0.781854 -0.511121 4.22156e-21)
(0.843666 -0.533706 -2.4002e-20)
(0.892095 -0.54205 3.80793e-21)
(0.928811 -0.537939 -3.39027e-21)
(0.95578 -0.523656 3.71219e-21)
(0.975083 -0.501731 6.24543e-21)
(0.988735 -0.474669 1.34025e-20)
(0.998521 -0.444708 -2.50907e-20)
(1.00589 -0.413663 1.46475e-20)
(1.01195 -0.382862 -4.32466e-21)
(1.01746 -0.353171 1.63794e-20)
(1.02298 -0.325069 -3.71549e-22)
(1.02859 -0.299059 2.16962e-20)
(1.03381 -0.275798 -3.08157e-20)
(0.090489 -0.058346 -5.31713e-23)
(0.248668 -0.161064 -2.84166e-20)
(0.391236 -0.254033 -2.16599e-20)
(0.518088 -0.335481 1.67195e-20)
(0.628971 -0.403889 -3.71926e-21)
(0.723793 -0.458125 1.93641e-20)
(0.802799 -0.497569 1.23971e-20)
(0.86667 -0.522278 6.50531e-21)
(0.916576 -0.533057 3.04463e-21)
(0.954142 -0.531418 3.53586e-21)
(0.98134 -0.519426 9.21815e-21)
(1.00031 -0.499468 -2.37072e-21)
(1.01316 -0.473979 2.64326e-21)
(1.02181 -0.445199 3.99194e-21)
(1.02783 -0.414988 -1.8559e-20)
(1.03243 -0.38475 3.45048e-20)
(1.03647 -0.355433 -2.214e-20)
(1.04051 -0.32758 -1.95213e-20)
(1.0446 -0.30174 -1.00188e-20)
(1.04811 -0.278579 -1.68975e-20)
(0.091773 -0.0543745 -7.70621e-21)
(0.252744 -0.151031 5.95037e-20)
(0.398201 -0.239845 2.28117e-20)
(0.528044 -0.318817 -6.64409e-20)
(0.641937 -0.386251 -1.44735e-20)
(0.739663 -0.440801 2.68452e-20)
(0.821323 -0.48158 1.48307e-20)
(0.887459 -0.508343 4.22695e-20)
(0.939119 -0.521583 -2.41593e-21)
(0.977853 -0.522525 4.24856e-21)
(1.0056 -0.512995 -5.96804e-21)
(1.02454 -0.495209 -4.57265e-21)
(1.03686 -0.471512 -4.25293e-22)
(1.04457 -0.444123 7.14732e-21)
(1.04939 -0.414937 -3.16725e-21)
(1.05265 -0.385429 -3.66787e-20)
(1.05527 -0.356625 -2.10336e-20)
(1.05785 -0.329129 2.30407e-20)
(1.06043 -0.303525 1.18014e-20)
(1.06231 -0.2805 -5.40447e-21)
(0.0925358 -0.0501971 5.56366e-20)
(0.255473 -0.140381 -8.60085e-20)
(0.403206 -0.224627 -8.28988e-20)
(0.535617 -0.300732 1.09052e-19)
(0.652277 -0.366841 3.38572e-20)
(0.752828 -0.421423 -2.15096e-20)
(0.837209 -0.46334 -4.71739e-20)
(0.905796 -0.492052 -5.52527e-20)
(0.959486 -0.507747 3.76487e-20)
(0.99971 -0.511349 9.46339e-21)
(1.02835 -0.504424 1.54619e-20)
(1.04758 -0.488997 1.11759e-20)
(1.05965 -0.467297 -4.82152e-21)
(1.06667 -0.441502 -8.40072e-22)
(1.07048 -0.41353 4.61072e-21)
(1.07251 -0.384914 1.64244e-20)
(1.07378 -0.356756 9.44235e-21)
(1.07495 -0.329724 -3.32457e-20)
(1.07605 -0.30443 -8.23752e-21)
(1.07641 -0.281595 1.17926e-20)
(0.0927726 -0.0458698 -6.38895e-20)
(0.256833 -0.129253 6.70926e-20)
(0.4062 -0.208576 -2.78031e-21)
(0.54072 -0.281453 -2.59472e-20)
(0.659864 -0.345897 -4.56036e-21)
(0.763125 -0.400218 -8.53599e-21)
(0.850264 -0.443051 -4.4993e-20)
(0.921466 -0.473579 4.77618e-20)
(0.977445 -0.491686 -7.05925e-20)
(1.01948 -0.497989 3.28013e-21)
(1.04937 -0.493784 -6.62435e-21)
(1.06923 -0.48088 -2.77505e-21)
(1.08136 -0.461368 2.01379e-21)
(1.08795 -0.437363 -1.28184e-20)
(1.09095 -0.410788 1.68307e-21)
(1.09191 -0.383224 3.60557e-22)
(1.09195 -0.355844 -5.76563e-22)
(1.09175 -0.329382 4.32031e-21)
(1.09144 -0.304476 1.72141e-21)
(1.09038 -0.281896 -1.8465e-20)
(0.0924864 -0.0414485 1.04661e-20)
(0.25682 -0.117792 2.08119e-20)
(0.407155 -0.191894 3.94934e-20)
(0.543294 -0.261217 -2.32574e-20)
(0.664604 -0.323671 -6.86607e-20)
(0.77042 -0.377432 1.95772e-20)
(0.860317 -0.420937 3.5348e-20)
(0.934268 -0.453113 2.34458e-20)
(0.99278 -0.47355 5.8511e-20)
(1.03695 -0.482561 -1.46772e-20)
(1.06844 -0.481159 -6.66133e-21)
(1.0893 -0.470919 7.22769e-21)
(1.10183 -0.453767 -1.85195e-20)
(1.10828 -0.431737 -2.03403e-20)
(1.1107 -0.406735 -7.72417e-21)
(1.11076 -0.38038 6.80839e-21)
(1.10968 -0.353909 -2.10635e-21)
(1.10822 -0.328121 1.8392e-21)
(1.10657 -0.303687 4.76399e-21)
(1.10418 -0.281431 7.82112e-22)
(0.0916867 -0.0369887 2.08345e-20)
(0.255443 -0.106137 3.98296e-21)
(0.406071 -0.174785 -5.80932e-20)
(0.543313 -0.240268 7.59643e-20)
(0.666432 -0.300421 1.54758e-20)
(0.774609 -0.353321 -8.64202e-20)
(0.867222 -0.397234 3.04567e-20)
(0.944024 -0.430859 -3.68867e-20)
(1.00529 -0.453508 1.26722e-21)
(1.0519 -0.465196 6.58703e-21)
(1.08535 -0.466645 1.57354e-20)
(1.10759 -0.459179 3.82138e-21)
(1.12087 -0.444543 4.36978e-20)
(1.1275 -0.424659 1.05605e-20)
(1.1296 -0.4014 -9.77778e-21)
(1.12896 -0.376407 -4.07136e-21)
(1.1269 -0.350974 -2.26817e-22)
(1.12429 -0.325967 2.93798e-21)
(1.12141 -0.302089 -3.3898e-21)
(1.11779 -0.280227 1.95881e-21)
(0.0903899 -0.0325439 -2.42187e-20)
(0.252734 -0.0944292 1.30195e-21)
(0.40297 -0.157451 1.18878e-20)
(0.540777 -0.218848 -3.28392e-20)
(0.665316 -0.276411 6.62464e-20)
(0.775617 -0.32815 3.57348e-20)
(0.870865 -0.372192 -3.76866e-20)
(0.950579 -0.407038 -2.34177e-20)
(1.01478 -0.431744 1.9877e-20)
(1.06413 -0.446038 -2.67841e-20)
(1.09989 -0.450349 2.21076e-20)
(1.12389 -0.44574 9.39142e-22)
(1.1383 -0.433748 1.43359e-21)
(1.14545 -0.416166 -1.17193e-20)
(1.14752 -0.394812 2.66674e-20)
(1.14641 -0.37133 -3.14622e-21)
(1.14356 -0.347064 6.0809e-21)
(1.13992 -0.322944 -6.11138e-21)
(1.13591 -0.299711 1.58577e-21)
(1.13116 -0.278311 -3.2883e-21)
(0.0886184 -0.0281651 4.16949e-20)
(0.248736 -0.0828017 5.16458e-20)
(0.3979 -0.140091 3.87294e-20)
(0.535719 -0.197201 -5.73884e-21)
(0.661257 -0.251911 8.70502e-21)
(0.773407 -0.302192 5.72733e-22)
(0.871161 -0.346074 8.22539e-20)
(0.953805 -0.381886 -2.41755e-20)
(1.0211 -0.408459 1.50917e-20)
(1.07344 -0.425247 -7.83711e-20)
(1.11186 -0.432391 1.37896e-20)
(1.138 -0.430685 3.07037e-20)
(1.15394 -0.421443 -1.08322e-20)
(1.16197 -0.406303 2.36754e-20)
(1.16433 -0.387003 -2.32306e-20)
(1.16301 -0.365178 3.1555e-20)
(1.15956 -0.342205 2.3729e-21)
(1.15506 -0.319081 -8.28232e-21)
(1.15004 -0.296579 -5.02295e-22)
(1.14425 -0.275712 4.47336e-21)
(0.0864002 -0.0239005 -8.02302e-20)
(0.243511 -0.0713831 2.20606e-20)
(0.390932 -0.122894 -7.79053e-21)
(0.5282 -0.175565 -6.08197e-20)
(0.654292 -0.227186 -2.1311e-20)
(0.767973 -0.275725 -4.30974e-20)
(0.868058 -0.319147 -3.60769e-20)
(0.953601 -0.355648 -3.87848e-20)
(1.0241 -0.383862 3.72164e-20)
(1.07966 -0.402993 1.58683e-20)
(1.12107 -0.412903 -4.98387e-20)
(1.14974 -0.414111 -8.30825e-21)
(1.16761 -0.407694 -4.15527e-21)
(1.1769 -0.395114 -1.96998e-20)
(1.17989 -0.378009 -2.69123e-21)
(1.17864 -0.357979 -5.42334e-21)
(1.17483 -0.336424 -2.51135e-20)
(1.16964 -0.314407 8.28478e-21)
(1.16374 -0.292719 1.17548e-20)
(1.15704 -0.272461 -2.54948e-21)
(0.0837688 -0.0197941 3.1767e-21)
(0.237135 -0.0602933 -3.94221e-20)
(0.38216 -0.106045 1.83262e-20)
(0.51831 -0.154169 -1.26859e-20)
(0.644487 -0.202498 1.59769e-20)
(0.759348 -0.249026 7.16919e-20)
(0.86154 -0.291686 -3.25838e-20)
(0.949901 -0.328581 7.77857e-20)
(1.02366 -0.35818 3.54628e-21)
(1.08264 -0.379463 3.64983e-20)
(1.12732 -0.392029 3.89499e-21)
(1.15889 -0.396123 2.46739e-20)
(1.1791 -0.392574 4.86427e-21)
(1.19007 -0.38265 1.07627e-21)
(1.19406 -0.367864 -3.00885e-20)
(1.1932 -0.349762 5.01373e-21)
(1.18927 -0.329751 2.17958e-20)
(1.1836 -0.30894 8.38343e-22)
(1.17698 -0.28816 -7.14913e-21)
(1.16952 -0.268603 3.04461e-21)
(0.0807619 -0.0158855 1.05391e-20)
(0.229695 -0.0496424 3.29085e-20)
(0.371699 -0.0897126 3.54052e-20)
(0.506167 -0.133234 -9.37544e-21)
(0.631945 -0.178103 4.69697e-20)
(0.747597 -0.222368 -9.35725e-21)
(0.851627 -0.263967 7.70014e-20)
(0.942668 -0.300947 -9.67921e-20)
(1.0197 -0.331647 -1.77262e-20)
(1.08223 -0.354855 -1.67394e-20)
(1.13046 -0.369924 -1.93818e-20)
(1.16528 -0.376835 -3.21376e-21)
(1.18822 -0.376163 8.65585e-21)
(1.20128 -0.368965 -2.48664e-20)
(1.20667 -0.356605 2.05033e-20)
(1.20655 -0.340554 -8.97646e-21)
(1.2028 -0.322207 -5.35811e-21)
(1.19687 -0.302711 -6.51602e-21)
(1.1897 -0.282953 -4.47379e-21)
(1.18162 -0.264104 -1.01126e-20)
(0.0774212 -0.0122098 4.98918e-20)
(0.221291 -0.0395293 -5.11011e-20)
(0.35968 -0.0740537 6.17634e-21)
(0.491915 -0.112963 -6.25838e-21)
(0.616798 -0.154242 -1.74157e-20)
(0.732824 -0.196018 -3.59069e-20)
(0.838375 -0.236267 -4.95862e-21)
(0.931904 -0.273013 2.45979e-20)
(1.01214 -0.304507 1.05144e-20)
(1.07832 -0.329376 -1.43882e-20)
(1.13031 -0.346757 1.60641e-20)
(1.16871 -0.356376 -1.64596e-21)
(1.19479 -0.358552 -3.01078e-20)
(1.21037 -0.354119 4.26611e-20)
(1.21756 -0.344272 1.17826e-20)
(1.21855 -0.330383 -6.1126e-21)
(1.21529 -0.313816 7.63858e-21)
(1.20936 -0.295743 9.46478e-21)
(1.20184 -0.277098 8.74037e-21)
(1.19324 -0.259018 8.64643e-21)
(0.0737911 -0.00879645 -5.21156e-20)
(0.212034 -0.0300405 4.31079e-20)
(0.346254 -0.0592082 1.89773e-20)
(0.475721 -0.0935466 -3.9319e-20)
(0.599208 -0.131145 -8.73536e-21)
(0.715164 -0.170234 -3.36982e-20)
(0.821878 -0.208854 1.38184e-20)
(0.917646 -0.245046 -2.34392e-20)
(1.00098 -0.27701 1.37889e-21)
(1.07083 -0.303248 3.57106e-21)
(1.12675 -0.322708 8.10897e-21)
(1.16901 -0.334881 -2.76677e-20)
(1.1986 -0.339837 2.86399e-20)
(1.21712 -0.338175 -1.99184e-20)
(1.22656 -0.330905 -4.5721e-21)
(1.22906 -0.319277 1.84105e-21)
(1.22664 -0.304599 -5.50315e-21)
(1.22099 -0.288053 -1.35119e-20)
(1.21334 -0.270613 -3.5886e-22)
(1.20436 -0.25338 -7.84377e-21)
(0.0699186 -0.0056696 -6.56396e-21)
(0.202038 -0.0212492 -2.03473e-20)
(0.331584 -0.0452986 -6.98332e-21)
(0.457771 -0.0751528 1.12569e-20)
(0.579364 -0.109022 -7.39455e-21)
(0.694788 -0.145257 7.57894e-21)
(0.802267 -0.181992 1.82946e-20)
(0.899971 -0.217314 1.67519e-20)
(0.98622 -0.249411 1.37911e-20)
(1.0597 -0.276698 -3.34845e-21)
(1.11965 -0.297968 -7.9914e-21)
(1.16601 -0.312501 1.00825e-20)
(1.19946 -0.320125 -4.67126e-21)
(1.22134 -0.321205 6.62911e-21)
(1.23346 -0.316549 -3.2957e-21)
(1.2379 -0.307261 8.08355e-21)
(1.2367 -0.294573 -2.36262e-21)
(1.23165 -0.279659 8.11207e-21)
(1.22413 -0.263515 -2.34511e-21)
(1.21495 -0.247206 6.13792e-22)
(0.0658518 -0.00284773 -1.26532e-22)
(0.191428 -0.0132147 -4.92196e-23)
(0.315844 -0.0324284 -2.44226e-21)
(0.438271 -0.0579303 1.24932e-20)
(0.557479 -0.0880632 8.19489e-21)
(0.671897 -0.121313 -6.52891e-21)
(0.77971 -0.15593 -5.10501e-21)
(0.878995 -0.190078 -1.5412e-21)
(0.967911 -0.221965 -7.84369e-21)
(1.04491 -0.249962 -4.76573e-22)
(1.10893 -0.27274 4.19962e-22)
(1.15958 -0.289396 -3.76493e-21)
(1.19719 -0.299537 -2.39723e-21)
(1.22282 -0.30329 -5.54406e-21)
(1.23807 -0.301252 -6.06708e-21)
(1.24489 -0.294364 -4.97483e-22)
(1.24533 -0.283757 2.24943e-21)
(1.24123 -0.270572 2.33504e-21)
(1.2341 -0.25582 2.53332e-21)
(1.22493 -0.24051 3.65389e-21)
(0.0616391 -0.00034362 7.88277e-21)
(0.180327 -0.00598195 -1.35165e-21)
(0.299215 -0.0206809 -2.31871e-21)
(0.417439 -0.0420043 6.00276e-21)
(0.53379 -0.0684362 1.23476e-20)
(0.64672 -0.0986086 -5.65261e-21)
(0.754407 -0.130903 -4.78813e-21)
(0.854871 -0.163589 -9.45834e-21)
(0.946144 -0.194928 -9.05917e-21)
(1.02647 -0.22328 1.70845e-21)
(1.09452 -0.247235 -1.69027e-21)
(1.14957 -0.265742 -8.13175e-22)
(1.19161 -0.278202 -4.20146e-21)
(1.22136 -0.284519 -6.94485e-21)
(1.24017 -0.28507 -1.71199e-21)
(1.24984 -0.280616 -5.71376e-22)
(1.25234 -0.272163 -1.32876e-22)
(1.24958 -0.260801 1.52894e-21)
(1.24317 -0.247536 5.58422e-21)
(1.23424 -0.233301 4.59683e-21)
(0.0573288 0.00183552 -4.78102e-21)
(0.168863 0.000418434 -7.80665e-21)
(0.281885 -0.0101191 -1.05776e-20)
(0.395505 -0.0274761 1.44367e-20)
(0.508547 -0.0502834 1.43063e-20)
(0.619511 -0.0773246 3.31302e-22)
(0.726593 -0.107129 5.85046e-21)
(0.827792 -0.138088 1.68486e-20)
(0.921051 -0.168548 1.92364e-20)
(1.00445 -0.196895 1.32881e-20)
(1.07642 -0.221676 -3.35881e-20)
(1.1359 -0.241723 1.42365e-20)
(1.18256 -0.256265 -7.01562e-21)
(1.21675 -0.264992 1.54598e-20)
(1.23954 -0.268065 -9.57465e-22)
(1.25251 -0.266049 -2.54173e-21)
(1.25754 -0.259807 1.65681e-21)
(1.25654 -0.250351 1.56491e-20)
(1.2512 -0.238667 -5.52772e-21)
(1.24278 -0.225581 4.01093e-22)
(0.0529681 0.00368786 -1.57719e-20)
(0.15716 0.00596999 3.78251e-20)
(0.264042 -0.000785101 3.68493e-21)
(0.372703 -0.0144221 -4.95539e-20)
(0.482017 -0.0337203 -9.34861e-21)
(0.590545 -0.057618 2.28678e-20)
(0.696533 -0.0847991 -5.49556e-20)
(0.797987 -0.113797 -6.65115e-22)
(0.892807 -0.143065 5.63393e-21)
(0.978947 -0.171049 -1.21362e-21)
(1.05462 -0.196288 1.78413e-20)
(1.1185 -0.217537 -3.21554e-20)
(1.16989 -0.233882 5.26628e-21)
(1.20879 -0.244823 -1.29831e-20)
(1.23594 -0.250308 -1.08577e-20)
(1.25268 -0.250702 1.01249e-20)
(1.26071 -0.246703 -1.18472e-21)
(1.26192 -0.239224 -2.46247e-20)
(1.25804 -0.229209 7.32846e-22)
(1.25044 -0.217346 -1.22162e-20)