/*--------------------------------*- C++ -*----------------------------------*\
  =========                 |
  \\      /  F ield         | OpenFOAM: The Open Source CFD Toolbox
   \\    /   O peration     | Website:  https://openfoam.org
    \\  /    A nd           | Version:  7
     \\/     M anipulation  |
\*---------------------------------------------------------------------------*/
FoamFile
{
    version     2.0;
    format      ascii;
    class       volScalarField;
    location    "8";
    object      p;
}
// * * * * * * * * * * * * * * * * * * * * * * * * * * * * * * * * * * * * * //

dimensions      [0 2 -2 0 0 0 0];

internalField   nonuniform List<scalar> 
435
(
-0.208485
-0.189899
-0.101792
-0.122465
-0.142326
-0.161155
-0.17885
-0.195469
-0.0296834
-0.0501966
-0.0700214
-0.0891363
-0.107493
-0.124826
-0.141931
-0.158054
-0.173228
0.00744587
-0.0115745
-0.0299672
-0.0477597
-0.0649724
-0.0816049
-0.0976503
-0.112941
-0.127621
-0.141777
-0.155289
0.00362734
-0.0129593
-0.0290088
-0.0445437
-0.0595894
-0.0741484
-0.0882428
-0.101882
-0.114729
-0.127356
-0.139483
0.000914139
-0.0135709
-0.0276036
-0.0412033
-0.054394
-0.0671763
-0.0795466
-0.0914603
-0.102746
-0.114353
-0.12535
-0.000985739
-0.0136838
-0.0260058
-0.0379737
-0.0496144
-0.0609376
-0.0719565
-0.0827349
-0.0933552
-0.10308
-0.112805
-0.0022235
-0.013388
-0.0242413
-0.0348049
-0.0451015
-0.0551385
-0.0649182
-0.074449
-0.0837445
-0.0927181
-0.101587
-0.00295506
-0.0128017
-0.0223935
-0.0317508
-0.0408933
-0.0498284
-0.0585607
-0.0670965
-0.0754346
-0.0835416
-0.0916109
-0.00329946
-0.0120123
-0.0205179
-0.028836
-0.0369839
-0.0449686
-0.0527954
-0.0604719
-0.0680115
-0.0754216
-0.082632
-0.00335044
-0.0110833
-0.0186488
-0.0260649
-0.0333465
-0.0404992
-0.0475276
-0.054437
-0.061237
-0.0679378
-0.0744823
-0.00317928
-0.0100615
-0.016809
-0.0234383
-0.0299615
-0.0363835
-0.0427079
-0.0489389
-0.0550824
-0.061143
-0.0671062
-0.00283943
-0.00898001
-0.0150127
-0.0209523
-0.0268091
-0.0325865
-0.0382877
-0.0439162
-0.0494764
-0.0549701
-0.0603909
-0.00237104
-0.00786235
-0.0132678
-0.0186005
-0.0238687
-0.0290752
-0.0342222
-0.0393126
-0.0443493
-0.0493332
-0.0542606
-0.00180526
-0.00672645
-0.0115799
-0.0163771
-0.0211248
-0.0258253
-0.0304804
-0.0350924
-0.0396641
-0.0442017
-0.0487125
-0.00116492
-0.00558353
-0.00994898
-0.0142712
-0.0185556
-0.0228036
-0.0270164
-0.0311954
-0.0353425
-0.0394597
-0.0435497
-0.00046912
-0.00444375
-0.00837704
-0.0122775
-0.0161495
-0.0199939
-0.0238114
-0.0276031
-0.0313703
-0.0351145
-0.0388368
0.000266495
-0.00331512
-0.0068649
-0.0103901
-0.0138943
-0.0173777
-0.0208409
-0.0242844
-0.0277092
-0.0311162
-0.034506
0.00102841
-0.00220479
-0.00541377
-0.00860477
-0.0117805
-0.014941
-0.0180863
-0.0212169
-0.0243332
-0.0274359
-0.030525
0.00180511
-0.00111877
-0.00402449
-0.00691736
-0.00979944
-0.0126705
-0.0155305
-0.0183793
-0.0212173
-0.0240447
-0.0268609
0.00258571
-6.34232e-05
-0.00269928
-0.00532634
-0.00794621
-0.0105585
-0.013163
-0.0157596
-0.0183484
-0.0209294
-0.023504
0.00336183
0.000957203
-0.00143792
-0.0038273
-0.00621213
-0.0085919
-0.0109661
-0.0133346
-0.0156971
-0.0180535
-0.0204039
0.00412507
0.00193808
-0.000242365
-0.00241943
-0.00459397
-0.00676539
-0.00893311
-0.0110968
-0.0132562
-0.0154111
-0.0175612
0.00486853
0.00287545
0.000886615
-0.00110059
-0.00308675
-0.00507123
-0.0070534
-0.00903285
-0.0110092
-0.0129821
-0.0149513
0.00558604
0.00376582
0.00194808
0.000130696
-0.00168674
-0.00350354
-0.00531905
-0.0071328
-0.00894437
-0.0107533
-0.0125593
0.00627242
0.00460638
0.00294149
0.00127603
-0.00039022
-0.00205659
-0.0037224
-0.00538715
-0.00705035
-0.00871156
-0.0103703
0.00692353
0.00539506
0.00386676
0.00233727
0.000806489
-0.000724912
-0.00225627
-0.00378704
-0.00531673
-0.00684486
-0.00837093
0.00753563
0.0061299
0.00472362
0.00331574
0.00190627
0.000495857
-0.000914845
-0.00232529
-0.00373497
-0.00514338
-0.00655001
0.00810658
0.0068104
0.00551316
0.0042141
0.0029133
0.00161139
0.000309
-0.000993326
-0.00229507
-0.00359573
-0.00489478
0.00863367
0.00743505
0.00623503
0.00503308
0.00382933
0.00262438
0.00141884
0.000213229
-0.000991931
-0.00219611
-0.00339882
0.00911641
0.00800468
0.00689136
0.00577609
0.00465906
0.00354084
0.002422
0.00130307
0.000184551
-0.000933051
-0.00204923
0.00955335
0.00851869
0.00748232
0.00644405
0.0054041
0.00436302
0.00332134
0.00227957
0.00123821
0.00019774
-0.000841343
0.00994469
0.00897815
0.00800988
0.0070398
0.00606817
0.00509551
0.00412231
0.00314907
0.00217626
0.00120435
0.000233821
0.0102903
0.00938353
0.00847506
0.00756493
0.0066534
0.00574096
0.00482808
0.00391523
0.00300286
0.00209143
0.00118139
0.0105905
0.00973574
0.00887932
0.0080214
0.00716227
0.00630237
0.00544216
0.00458206
0.00372253
0.00286398
0.00200686
0.0108461
0.0100358
0.00922406
0.00841097
0.00759687
0.00678217
0.0059673
0.00515267
0.00433869
0.00352577
0.00271433
0.0110569
0.0102838
0.00950948
0.00873403
0.00795781
0.00718119
0.00640458
0.00562835
0.0048529
0.00407861
0.00330586
0.0112245
0.0104815
0.00973749
0.00899262
0.00824725
0.00750171
0.00675637
0.00601159
0.00526773
0.00452513
0.00378417
0.0113453
0.010625
0.00990399
0.00918248
0.0084608
0.00773926
0.0070182
0.00629793
0.00557879
0.0048611
0.00414518
0.0114258
0.0107208
0.0100156
0.0093102
0.00860497
0.00790017
0.00719609
0.00649303
0.00579126
0.00509109
0.00439279
0.0114464
0.010748
0.0100499
0.00935242
0.00865572
0.00796007
0.0072657
0.00657285
0.00588176
0.00519265
0.00450577
)
;

boundaryField
{
    inlet
    {
        type            zeroGradient;
    }
    outlet
    {
        type            fixedValue;
        value           nonuniform 0();
    }
    cylinder
    {
        type            zeroGradient;
    }
    top
    {
        type            symmetryPlane;
    }
    bottom
    {
        type            symmetryPlane;
    }
    defaultFaces
    {
        type            empty;
    }
    procBoundary31to24
    {
        type            processor;
        value           nonuniform List<scalar> 8(0.0269137 0.0205936 0.0157247 0.0119914 0.00917779 0.00708977 0.0055769 0.00451619);
    }
    procBoundary31to25
    {
        type            processor;
        value           nonuniform List<scalar> 
14
(
-0.221125
-0.2021
-0.170142
-0.170142
-0.149157
-0.126748
-0.103787
-0.0340748
-0.0574882
-0.0800777
-0.0800777
0.0133859
-0.00849382
-0.00849382
)
;
    }
    procBoundary31to26
    {
        type            processor;
        value           nonuniform List<scalar> 8(-0.225877 -0.211011 -0.187552 -0.168165 -0.151092 -0.135852 -0.122337 -0.110256);
    }
    procBoundary31to30
    {
        type            processor;
        value           nonuniform List<scalar> 
30
(
0.00381131
0.00338811
0.00318943
0.0031703
0.00329604
0.00353808
0.00387278
0.00427993
0.00474223
0.00524402
0.00577246
0.00631557
0.0068632
0.00740641
0.00793754
0.00845031
0.00893914
0.00940023
0.00982956
0.0102253
0.0105852
0.0109085
0.0111945
0.011443
0.0116543
0.0118281
0.011966
0.0120645
0.01213
0.0121448
)
;
    }
    procBoundary31to32
    {
        type            processor;
        value           nonuniform List<scalar> 
33
(
-0.0994816
-0.0897586
-0.0809695
-0.0730174
-0.0657818
-0.0591727
-0.0531432
-0.0476033
-0.0425346
-0.0378776
-0.0335994
-0.0296644
-0.0260739
-0.0227484
-0.0197064
-0.0169164
-0.0143619
-0.0120262
-0.00989446
-0.00795434
-0.00619147
-0.00459982
-0.00316353
-0.00187856
-0.00073486
0.000273199
0.0011516
0.00190477
0.00253505
0.0030452
0.00343135
0.00369667
0.00382134
)
;
    }
}


// ************************************************************************* //
