/*--------------------------------*- C++ -*----------------------------------*\
  =========                 |
  \\      /  F ield         | OpenFOAM: The Open Source CFD Toolbox
   \\    /   O peration     | Website:  https://openfoam.org
    \\  /    A nd           | Version:  7
     \\/     M anipulation  |
\*---------------------------------------------------------------------------*/
FoamFile
{
    version     2.0;
    format      ascii;
    class       volScalarField;
    location    "3.7";
    object      p;
}
// * * * * * * * * * * * * * * * * * * * * * * * * * * * * * * * * * * * * * //

dimensions      [1 -1 -2 0 0 0 0];

internalField   nonuniform List<scalar> 
197568
(
1
1
1
1
1
1
1
1
1
1
1
1
1
1
1
1
1
1
1
1
1
1
1
1
1
1
1
1
1
1
1
1
1
1
1
1
1
1
1
1
1
1
1
1
1
1
1
1
1
1
1
1
1
1
1
1
1
1
1
1
1
1
1
1
1
1
1
1
1
1
1
1
1
1
1
1
1
1
1
1
1
1
1
1
1
1.04824
6.79174
10.3543
10.412
10.4415
10.4788
10.5139
10.5491
10.5827
10.6154
10.6476
10.6801
10.7124
10.7439
10.7744
10.8034
10.8309
10.8574
10.8847
10.9156
10.9531
10.9943
11.0327
11.064
11.0874
11.1075
11.1312
11.1644
11.2072
11.2464
11.2703
11.2778
11.2752
11.2763
11.2893
11.3192
11.363
11.4103
11.4525
11.486
11.5108
11.531
11.55
11.5701
11.5918
11.6133
11.6317
11.6441
11.6514
11.6589
11.6716
11.6937
11.7246
11.7579
11.7863
11.806
11.8205
11.8358
11.8549
11.8749
11.8902
11.8956
11.8904
11.8821
11.8782
11.8873
11.9151
11.9546
11.9917
12.0163
12.0278
12.0301
12.0274
12.0219
12.012
11.9998
11.989
11.9868
11.9995
12.0234
12.0531
12.0788
12.0975
1
1
1
1
1
1
1
1
1
1
1
1
1
1
1
1
1
1
1
1
1
1
1
1
1
1
1
1
1
1
1
1
1
1
1
1
1
1
1
1
1
1
1
1
1
1
1
1
1
1
1
1
1
1
1
1
1
1
1
1
1
1
1
1
1
1
1
1
1
1
1
1
1
1
1
1
1
1
1
1
1
1
1
1
1
1.04665
6.77647
10.3425
10.4086
10.4416
10.4789
10.5147
10.5503
10.5842
10.617
10.6488
10.6805
10.7121
10.7431
10.7731
10.8022
10.8303
10.8582
10.8869
10.9177
10.953
10.9913
11.0278
11.0593
11.0858
11.1102
11.1369
11.1685
11.206
11.2407
11.2634
11.273
11.2752
11.2804
11.2951
11.3234
11.3636
11.408
11.4491
11.4834
11.5102
11.5321
11.5515
11.5704
11.5898
11.6091
11.6269
11.6406
11.6507
11.6611
11.6758
11.6978
11.7261
11.7558
11.7815
11.8012
11.8177
11.8355
11.8563
11.8761
11.8894
11.893
11.8877
11.881
11.8795
11.8901
11.9166
11.9524
11.9869
12.012
12.0261
12.0307
12.0292
12.0223
12.0102
11.997
11.9869
11.9863
12.0001
12.024
12.0525
12.0767
12.0951
1
1
1
1
1
1
1
1
1
1
1
1
1
1
1
1
1
1
1
1
1
1
1
1
1
1
1
1
1
1
1
1
1
1
1
1
1
1
1
1
1
1
1
1
1
1
1
1
1
1
1
1
1
1
1
1
1
1
1
1
1
1
1
1
1
1
1
1
1
1
1
1
1
1
1
1
1
1
1
1
1
1
1
1
1
1.02767
6.73706
10.3364
10.4036
10.4398
10.4775
10.5145
10.551
10.5857
10.6189
10.6506
10.6817
10.7125
10.7425
10.7716
10.8003
10.829
10.8585
10.8889
10.9202
10.9536
10.9884
11.0219
11.0531
11.0827
11.1127
11.1433
11.174
11.2054
11.2337
11.2537
11.2656
11.2738
11.2851
11.3027
11.3299
11.3658
11.4055
11.4441
11.4786
11.5079
11.5324
11.553
11.5712
11.5882
11.6044
11.6206
11.6351
11.6481
11.6622
11.6801
11.7029
11.7289
11.7545
11.7763
11.7945
11.8127
11.8339
11.8571
11.8773
11.8886
11.89
11.8841
11.8783
11.8797
11.8935
11.9195
11.9509
11.9807
12.0051
12.0218
12.0298
12.0307
12.0232
12.0087
11.9935
11.9835
11.9849
12.0008
12.0254
12.0527
12.0744
12.0916
1
1
1
1
1
1
1
1
1
1
1
1
1
1
1
1
1
1
1
1
1
1
1
1
1
1
1
1
1
1
1
1
1
1
1
1
1
1
1
1
1
1
1
1
1
1
1
1
1
1
1
1
1
1
1
1
1
1
1
1
1
1
1
1
1
1
1
1
1
1
1
1
1
1
1
1
1
1
1
1
1
1
1
1
1
1.00205
6.65816
10.3394
10.4056
10.4422
10.4792
10.5158
10.5519
10.5866
10.6199
10.6516
10.6824
10.7127
10.7419
10.7701
10.7984
10.828
10.8593
10.8912
10.9223
10.9529
10.9836
11.0141
11.0458
11.0802
11.1164
11.1502
11.1784
11.2024
11.2235
11.2412
11.2567
11.2728
11.2912
11.3123
11.338
11.3686
11.4027
11.4379
11.4722
11.5037
11.5309
11.5529
11.5705
11.5854
11.5992
11.6145
11.63
11.6459
11.6636
11.6841
11.7067
11.7302
11.7522
11.7711
11.7883
11.8076
11.8312
11.8562
11.8764
11.8864
11.8862
11.8805
11.8764
11.8808
11.8969
11.9213
11.948
11.9736
11.9971
12.0166
12.0286
12.0312
12.0228
12.0065
11.9896
11.9798
11.9834
12.0011
12.026
12.0515
12.0706
12.0864
1
1
1
1
1
1
1
1
1
1
1
1
1
1
1
1
1
1
1
1
1
1
1
1
1
1
1
1
1
1
1
1
1
1
1
1
1
1
1
1
1
1
1
1
1
1
1
1
1
1
1
1
1
1
1
1
1
1
1
1
1
1
1
1
1
1
1
1
1
1
1
1
1
1
1
1
1
1
1
1
1
1
1
1
1
1.00006
6.54655
10.3245
10.3977
10.4364
10.4747
10.5126
10.5499
10.5857
10.6202
10.6529
10.684
10.7139
10.7421
10.7692
10.7971
10.8276
10.8603
10.893
10.9234
10.9516
10.9788
11.007
11.0397
11.0783
11.1187
11.1541
11.1799
11.1979
11.2131
11.2289
11.2483
11.2716
11.2968
11.3214
11.3461
11.3722
11.4006
11.4321
11.4654
11.4977
11.5267
11.5501
11.5676
11.5817
11.5946
11.6099
11.6265
11.6447
11.6643
11.6855
11.7074
11.7291
11.749
11.7668
11.7841
11.8039
11.8276
11.8525
11.8723
11.882
11.8821
11.8779
11.8759
11.8823
11.8986
11.9206
11.9437
11.9668
11.9901
12.0112
12.0255
12.0289
12.0201
12.0033
11.9859
11.9769
11.982
12.0004
12.0251
12.0489
12.0659
12.0808
1
1
1
1
1
1
1
1
1
1
1
1
1
1
1
1
1
1
1
1
1
1
1
1
1
1
1
1
1
1
1
1
1
1
1
1
1
1
1
1
1
1
1
1
1
1
1
1
1
1
1
1
1
1
1
1
1
1
1
1
1
1
1
1
1
1
1
1
1
1
1
1
1
1
1
1
1
1
1
1
1
1
1
1
1
1
6.40424
10.3148
10.3952
10.4329
10.4716
10.5097
10.5473
10.5838
10.6191
10.6527
10.6842
10.7143
10.7422
10.7688
10.7968
10.8282
10.8616
10.894
10.9232
10.9493
10.9744
11.0016
11.0352
11.0758
11.1174
11.1527
11.1769
11.1913
11.2036
11.2191
11.2422
11.2713
11.3013
11.3284
11.3525
11.3752
11.3991
11.4272
11.4589
11.4909
11.5203
11.5442
11.562
11.5766
11.5904
11.6072
11.6253
11.6449
11.6647
11.6844
11.7042
11.7242
11.7439
11.7629
11.7819
11.8024
11.8247
11.8468
11.8646
11.8748
11.8775
11.8763
11.877
11.8839
11.8981
11.9172
11.9383
11.9611
11.9851
12.0065
12.0205
12.0235
12.0147
11.9988
11.983
11.9755
11.9809
11.9986
12.0219
12.0442
12.0602
12.0748
1
1
1
1
1
1
1
1
1
1
1
1
1
1
1
1
1
1
1
1
1
1
1
1
1
1
1
1
1
1
1
1
1
1
1
1
1
1
1
1
1
1
1
1
1
1
1
1
1
1
1
1
1
1
1
1
1
1
1
1
1
1
1
1
1
1
1
1
1
1
1
1
1
1
1
1
1
1
1
1
1
1
1
1
1
1
6.23542
10.3095
10.3935
10.4283
10.4665
10.5045
10.5424
10.5799
10.6161
10.6506
10.6831
10.7139
10.7423
10.7689
10.797
10.8287
10.862
10.8935
10.9218
10.9469
10.9712
10.998
11.0315
11.0715
11.112
11.1463
11.17
11.1843
11.1966
11.2133
11.239
11.2713
11.3038
11.3324
11.3561
11.3767
11.3975
11.423
11.4529
11.4838
11.5127
11.5365
11.5546
11.5702
11.5858
11.605
11.6254
11.6461
11.6652
11.6826
11.6989
11.7163
11.7362
11.7581
11.7805
11.8023
11.8226
11.8404
11.8548
11.8651
11.8716
11.8752
11.8788
11.8851
11.8961
11.9118
11.9322
11.9563
11.9813
12.0019
12.0136
12.0151
12.0069
11.9935
11.9811
11.9755
11.9804
11.9959
12.0168
12.0378
12.054
12.0688
1
1
1
1
1
1
1
1
1
1
1
1
1
1
1
1
1
1
1
1
1
1
1
1
1
1
1
1
1
1
1
1
1
1
1
1
1
1
1
1
1
1
1
1
1
1
1
1
1
1
1
1
1
1
1
1
1
1
1
1
1
1
1
1
1
1
1
1
1
1
1
1
1
1
1
1
1
1
1
1
1
1
1
1
1
1
6.04466
10.309
10.391
10.4203
10.4572
10.4955
10.5349
10.574
10.6113
10.6466
10.6799
10.7117
10.7414
10.7688
10.7971
10.8285
10.861
10.8919
10.9201
10.9456
10.97
10.9961
11.0275
11.0641
11.1017
11.1353
11.161
11.1785
11.1934
11.2116
11.2379
11.2704
11.3036
11.3329
11.3567
11.3765
11.3956
11.4189
11.447
11.4766
11.5049
11.5285
11.5467
11.563
11.5799
11.6016
11.6247
11.6472
11.6663
11.6814
11.6938
11.7073
11.7262
11.7508
11.7776
11.8018
11.8206
11.8343
11.8446
11.8541
11.8639
11.8729
11.8797
11.8855
11.8931
11.9058
11.9257
11.9512
11.977
11.9964
12.0054
12.0049
11.9978
11.9878
11.9795
11.976
11.9798
11.9922
12.0102
12.0303
12.0472
12.0623
1
1
1
1
1
1
1
1
1
1
1
1
1
1
1
1
1
1
1
1
1
1
1
1
1
1
1
1
1
1
1
1
1
1
1
1
1
1
1
1
1
1
1
1
1
1
1
1
1
1
1
1
1
1
1
1
1
1
1
1
1
1
1
1
1
1
1
1
1
1
1
1
1
1
1
1
1
1
1
1
1
1
1
1
1
1
5.83413
10.3102
10.3883
10.4107
10.4459
10.4831
10.5236
10.5646
10.6036
10.6402
10.6747
10.7076
10.739
10.7677
10.7963
10.8269
10.8588
10.8896
10.9184
10.9448
10.9697
10.9946
11.0222
11.0542
11.0889
11.1228
11.1521
11.1745
11.193
11.2123
11.2375
11.2684
11.3008
11.3305
11.3549
11.3748
11.393
11.4144
11.4406
11.469
11.497
11.5211
11.5396
11.5561
11.5733
11.5961
11.6216
11.6466
11.6667
11.6805
11.6897
11.6993
11.7157
11.7411
11.7716
11.799
11.8177
11.8287
11.8358
11.8435
11.855
11.8685
11.8789
11.8848
11.8902
11.9005
11.9193
11.9451
11.971
11.989
11.996
11.9943
11.9886
11.9823
11.9774
11.9755
11.9779
11.987
12.0026
12.0218
12.0394
12.0547
1
1
1
1
1
1
1
1
1
1
1
1
1
1
1
1
1
1
1
1
1
1
1
1
1
1
1
1
1
1
1
1
1
1
1
1
1
1
1
1
1
1
1
1
1
1
1
1
1
1
1
1
1
1
1
1
1
1
1
1
1
1
1
1
1
1
1
1
1
1
1
1
1
1
1
1
1
1
1
1
1
1
1
1
1
1
5.60398
10.3065
10.3878
10.4051
10.4379
10.4721
10.5105
10.5517
10.5926
10.6315
10.6679
10.7023
10.7353
10.7653
10.7939
10.8239
10.8556
10.887
10.9166
10.9437
10.9685
10.9917
11.0154
11.0435
11.0767
11.112
11.145
11.1718
11.193
11.2128
11.2365
11.2653
11.2967
11.3266
11.3517
11.3721
11.3898
11.4092
11.4334
11.4607
11.4889
11.514
11.5334
11.5502
11.567
11.5895
11.6159
11.6431
11.665
11.6788
11.6864
11.6933
11.7068
11.731
11.7627
11.7924
11.8125
11.8229
11.8285
11.8347
11.8463
11.862
11.8755
11.8828
11.8875
11.8961
11.913
11.9374
11.9621
11.9793
11.9859
11.9845
11.9804
11.977
11.9746
11.9734
11.9743
11.981
11.9947
12.013
12.0309
12.0459
1
1
1
1
1
1
1
1
1
1
1
1
1
1
1
1
1
1
1
1
1
1
1
1
1
1
1
1
1
1
1
1
1
1
1
1
1
1
1
1
1
1
1
1
1
1
1
1
1
1
1
1
1
1
1
1
1
1
1
1
1
1
1
1
1
1
1
1
1
1
1
1
1
1
1
1
1
1
1
1
1
1
1
1
1
1
5.35341
10.2861
10.3887
10.4069
10.4376
10.4669
10.5006
10.5389
10.5799
10.6205
10.6594
10.6956
10.7301
10.7612
10.7899
10.8197
10.8518
10.8839
10.9139
10.9408
10.965
10.9865
11.0076
11.0338
11.0675
11.1045
11.1402
11.1698
11.1926
11.2119
11.2337
11.2604
11.2909
11.3212
11.3473
11.3686
11.386
11.4036
11.4258
11.452
11.4801
11.5065
11.5274
11.5449
11.5618
11.5835
11.6092
11.6366
11.6595
11.6744
11.6824
11.6887
11.7005
11.7225
11.7524
11.7821
11.8035
11.8153
11.8215
11.8275
11.8386
11.8547
11.8699
11.879
11.8842
11.8919
11.9064
11.9279
11.9507
11.9676
11.9753
11.9756
11.9735
11.9719
11.9707
11.9693
11.9691
11.9742
11.9866
12.004
12.0216
12.036
1
1
1
1
1
1
1
1
1
1
1
1
1
1
1
1
1
1
1
1
1
1
1
1
1
1
1
1
1
1
1
1
1
1
1
1
1
1
1
1
1
1
1
1
1
1
1
1
1
1
1
1
1
1
1
1
1
1
1
1
1
1
1
1
1
1
1
1
1
1
1
1
1
1
1
1
1
1
1
1
1
1
1
1
1
1
5.08002
10.2397
10.3858
10.4119
10.4432
10.4687
10.4962
10.5297
10.5688
10.6093
10.6495
10.6875
10.7233
10.7555
10.7845
10.8147
10.8475
10.8799
10.9095
10.9357
10.9589
10.9795
10.9998
11.0265
11.0617
11.1005
11.1376
11.1682
11.1911
11.2094
11.2294
11.2543
11.2838
11.3142
11.3413
11.3638
11.3813
11.398
11.4187
11.4435
11.4706
11.4977
11.52
11.539
11.557
11.5786
11.6029
11.6283
11.6504
11.6662
11.6762
11.6844
11.6967
11.7166
11.7427
11.7693
11.7907
11.8048
11.8136
11.8214
11.8325
11.8477
11.8628
11.8731
11.8792
11.8868
11.8992
11.9173
11.9377
11.9548
11.9646
11.9676
11.9673
11.9665
11.9652
11.9632
11.9624
11.9667
11.9781
11.9945
12.0113
12.0248
1
1
1
1
1
1
1
1
1
1
1
1
1
1
1
1
1
1
1
1
1
1
1
1
1
1
1
1
1
1
1
1
1
1
1
1
1
1
1
1
1
1
1
1
1
1
1
1
1
1
1
1
1
1
1
1
1
1
1
1
1
1
1
1
1
1
1
1
1
1
1
1
1
1
1
1
1
1
1
1
1
1
1
1
1
1
4.78247
10.1714
10.3762
10.4123
10.4482
10.4739
10.4978
10.5261
10.5609
10.5997
10.6394
10.6782
10.7151
10.7485
10.7784
10.8092
10.8425
10.8749
10.9039
10.929
10.9515
10.9722
10.9932
11.0215
11.0583
11.0983
11.136
11.1666
11.1891
11.2061
11.2246
11.2477
11.2756
11.3054
11.333
11.3566
11.3752
11.3923
11.4127
11.4366
11.462
11.4883
11.511
11.5318
11.5521
11.5746
11.5978
11.6202
11.6395
11.6548
11.6672
11.6792
11.694
11.7127
11.7341
11.7556
11.7751
11.7913
11.8041
11.8154
11.8278
11.8417
11.8552
11.8649
11.8715
11.8792
11.8904
11.906
11.9246
11.9419
11.9539
11.9595
11.9608
11.9602
11.9581
11.9557
11.9547
11.9585
11.969
11.9843
12
12.0128
1
1
1
1
1
1
1
1
1
1
1
1
1
1
1
1
1
1
1
1
1
1
1
1
1
1
1
1
1
1
1
1
1
1
1
1
1
1
1
1
1
1
1
1
1
1
1
1
1
1
1
1
1
1
1
1
1
1
1
1
1
1
1
1
1
1
1
1
1
1
1
1
1
1
1
1
1
1
1
1
1
1
1
1
1
1
4.46682
10.0864
10.3608
10.4062
10.4485
10.4771
10.5017
10.527
10.5578
10.5929
10.6302
10.6681
10.7058
10.7407
10.7717
10.8033
10.8367
10.8691
10.8977
10.9222
10.9445
10.9658
10.988
11.0174
11.0553
11.0955
11.1335
11.164
11.1862
11.2025
11.22
11.2414
11.2672
11.2954
11.3223
11.3464
11.3667
11.3857
11.4072
11.4311
11.455
11.4791
11.5009
11.5225
11.5452
11.5697
11.5928
11.6128
11.6288
11.6424
11.656
11.6721
11.6901
11.7085
11.7259
11.7422
11.7588
11.7762
11.7934
11.8093
11.8238
11.8367
11.8474
11.855
11.8611
11.869
11.88
11.8949
11.9125
11.9297
11.9431
11.9506
11.9531
11.9524
11.9499
11.9473
11.9464
11.9496
11.959
11.9731
11.9878
11.9998
1
1
1
1
1
1
1
1
1
1
1
1
1
1
1
1
1
1
1
1
1
1
1
1
1
1
1
1
1
1
1
1
1
1
1
1
1
1
1
1
1
1
1
1
1
1
1
1
1
1
1
1
1
1
1
1
1
1
1
1
1
1
1
1
1
1
1
1
1
1
1
1
1
1
1
1
1
1
1
1
1
1
1
1
1
1
4.13771
9.98866
10.3477
10.3938
10.4419
10.4761
10.5036
10.529
10.5574
10.5893
10.6235
10.6593
10.6963
10.7322
10.7644
10.7965
10.8298
10.8623
10.8911
10.9161
10.9389
10.9609
10.9839
11.0136
11.0514
11.0909
11.1288
11.1594
11.1819
11.1984
11.2155
11.2356
11.2593
11.2853
11.3104
11.3339
11.3553
11.377
11.4009
11.4261
11.4495
11.4713
11.4909
11.5116
11.5354
11.5618
11.5863
11.6057
11.6199
11.6315
11.6447
11.6623
11.6826
11.7015
11.7166
11.7295
11.7438
11.7616
11.782
11.8024
11.8193
11.8314
11.839
11.8436
11.8482
11.8561
11.8682
11.884
11.9017
11.9186
11.9321
11.9402
11.9431
11.9426
11.9406
11.9383
11.9375
11.9401
11.9481
11.961
11.9748
11.9859
1
1
1
1
1
1
1
1
1
1
1
1
1
1
1
1
1
1
1
1
1
1
1
1
1
1
1
1
1
1
1
1
1
1
1
1
1
1
1
1
1
1
1
1
1
1
1
1
1
1
1
1
1
1
1
1
1
1
1
1
1
1
1
1
1
1
1
1
1
1
1
1
1
1
1
1
1
1
1
1
1
1
1
1
1
1
3.79667
9.86914
10.3429
10.3834
10.4316
10.4701
10.5021
10.5289
10.5565
10.5871
10.6191
10.6525
10.6882
10.7243
10.7574
10.7896
10.8229
10.8558
10.8851
10.9111
10.935
10.9577
10.9808
11.0098
11.0465
11.0847
11.1221
11.1531
11.176
11.1931
11.2101
11.2297
11.252
11.2764
11.2996
11.3216
11.3428
11.3659
11.3923
11.4198
11.4443
11.4651
11.4827
11.5007
11.5231
11.5498
11.5763
11.5978
11.6127
11.6237
11.6351
11.6509
11.6705
11.6895
11.7047
11.7173
11.7312
11.7492
11.7712
11.794
11.8127
11.8244
11.8294
11.8309
11.8338
11.8416
11.8552
11.873
11.8917
11.9081
11.9207
11.9282
11.931
11.9312
11.9302
11.9288
11.9281
11.9298
11.9366
11.9482
11.9611
11.971
1
1
1
1
1
1
1
1
1
1
1
1
1
1
1
1
1
1
1
1
1
1
1
1
1
1
1
1
1
1
1
1
1
1
1
1
1
1
1
1
1
1
1
1
1
1
1
1
1
1
1
1
1
1
1
1
1
1
1
1
1
1
1
1
1
1
1
1
1
1
1
1
1
1
1
1
1
1
1
1
1
1
1
1
1
1
3.44845
9.72004
10.343
10.3772
10.423
10.4627
10.497
10.5261
10.5539
10.5837
10.6144
10.6463
10.6806
10.7163
10.7499
10.7822
10.8155
10.8487
10.8787
10.9057
10.9308
10.9543
10.9775
11.0054
11.0404
11.077
11.1134
11.1445
11.1677
11.1851
11.2023
11.2218
11.2441
11.2682
11.2909
11.3116
11.3315
11.3538
11.3809
11.4107
11.4376
11.4594
11.4761
11.4913
11.5104
11.5352
11.563
11.5882
11.6066
11.6185
11.6278
11.6392
11.6547
11.6726
11.6896
11.7051
11.721
11.7397
11.7615
11.7842
11.803
11.8144
11.818
11.8175
11.8191
11.8266
11.8416
11.8616
11.8816
11.8977
11.9088
11.915
11.9173
11.9182
11.9184
11.918
11.9178
11.919
11.9248
11.935
11.9465
11.9547
1
1
1
1
1
1
1
1
1
1
1
1
1
1
1
1
1
1
1
1
1
1
1
1
1
1
1
1
1
1
1
1
1
1
1
1
1
1
1
1
1
1
1
1
1
1
1
1
1
1
1
1
1
1
1
1
1
1
1
1
1
1
1
1
1
1
1
1
1
1
1
1
1
1
1
1
1
1
1
1
1
1
1
1
1
1
3.09837
9.53731
10.3446
10.3745
10.4173
10.456
10.4904
10.5199
10.5486
10.5789
10.6097
10.6412
10.6746
10.7096
10.7426
10.7746
10.8072
10.8402
10.8702
10.8978
10.9241
10.9488
10.9726
11.0002
11.0339
11.0692
11.1042
11.1349
11.1578
11.1748
11.1915
11.2111
11.2343
11.2599
11.2837
11.3045
11.3231
11.343
11.3681
11.3981
11.4275
11.452
11.4699
11.4833
11.4987
11.5202
11.5478
11.5765
11.5997
11.6138
11.6213
11.6273
11.6368
11.6524
11.6719
11.6925
11.7126
11.7324
11.7527
11.7728
11.79
11.801
11.8046
11.8038
11.8047
11.8119
11.8276
11.8491
11.8705
11.8865
11.8964
11.9012
11.9028
11.9037
11.9046
11.9055
11.9063
11.9078
11.9129
11.9216
11.931
11.9368
1
1
1
1
1
1
1
1
1
1
1
1
1
1
1
1
1
1
1
1
1
1
1
1
1
1
1
1
1
1
1
1
1
1
1
1
1
1
1
1
1
1
1
1
1
1
1
1
1
1
1
1
1
1
1
1
1
1
1
1
1
1
1
1
1
1
1
1
1
1
1
1
1
1
1
1
1
1
1
1
1
1
1
1
1
1
2.75176
9.31877
10.3467
10.3729
10.4133
10.4503
10.4847
10.5145
10.5437
10.5744
10.6053
10.6365
10.6692
10.7037
10.7366
10.7679
10.7999
10.8323
10.862
10.8895
10.9165
10.9422
10.9665
10.9939
11.0267
11.0608
11.0946
11.1248
11.1476
11.1637
11.1793
11.1981
11.2217
11.2497
11.2762
11.2983
11.3166
11.3344
11.3562
11.3839
11.414
11.4413
11.4619
11.4757
11.489
11.5072
11.533
11.5632
11.5902
11.607
11.6134
11.6149
11.619
11.6316
11.6533
11.6795
11.7046
11.7259
11.744
11.7602
11.7744
11.7849
11.7895
11.7898
11.7908
11.7976
11.813
11.8351
11.8575
11.8742
11.8835
11.8872
11.8877
11.8879
11.8888
11.8908
11.8935
11.896
11.9012
11.9082
11.9147
11.9176
1
1
1
1
1
1
1
1
1
1
1
1
1
1
1
1
1
1
1
1
1
1
1
1
1
1
1
1
1
1
1
1
1
1
1
1
1
1
1
1
1
1
1
1
1
1
1
1
1
1
1
1
1
1
1
1
1
1
1
1
1
1
1
1
1
1
1
1
1
1
1
1
1
1
1
1
1
1
1
1
1
1
1
1
1
1
2.41428
9.05633
10.3484
10.372
10.4097
10.445
10.4786
10.5086
10.5378
10.5687
10.6001
10.6309
10.6631
10.6971
10.7304
10.7618
10.7934
10.825
10.854
10.8807
10.9075
10.9335
10.9581
10.9854
11.0177
11.0512
11.0842
11.1144
11.1377
11.1539
11.1687
11.1859
11.2077
11.2362
11.2654
11.2904
11.3102
11.3274
11.3468
11.3708
11.399
11.4269
11.4505
11.4668
11.4806
11.4971
11.5204
11.5492
11.5769
11.5955
11.6021
11.6017
11.6025
11.6129
11.6357
11.6662
11.6955
11.7182
11.7341
11.7463
11.7573
11.767
11.7733
11.7756
11.7773
11.7835
11.7978
11.8195
11.8426
11.8604
11.8701
11.8731
11.8721
11.871
11.8712
11.8743
11.8792
11.8835
11.8892
11.8942
11.8975
11.8976
1
1
1
1
1
1
1
1
1
1
1
1
1
1
1
1
1
1
1
1
1
1
1
1
1
1
1
1
1
1
1
1
1
1
1
1
1
1
1
1
1
1
1
1
1
1
1
1
1
1
1
1
1
1
1
1
1
1
1
1
1
1
1
1
1
1
1
1
1
1
1
1
1
1
1
1
1
1
1
1
1
1
1
1
1
1
2.09603
8.74767
10.3486
10.3727
10.4076
10.4392
10.4714
10.5016
10.5315
10.5624
10.5938
10.6241
10.6559
10.6899
10.7234
10.7554
10.7868
10.8177
10.846
10.8718
10.8979
10.9238
10.9487
10.976
11.0073
11.0397
11.072
11.1028
11.1276
11.1454
11.1606
11.1769
11.1959
11.2215
11.2507
11.278
11.301
11.3202
11.3392
11.3602
11.3849
11.4105
11.4355
11.4552
11.472
11.4891
11.5103
11.5355
11.5606
11.579
11.5866
11.5869
11.5877
11.5976
11.6206
11.6526
11.684
11.7076
11.722
11.7312
11.7395
11.7484
11.7562
11.7607
11.7633
11.7689
11.7817
11.8025
11.8262
11.8453
11.8557
11.8583
11.8558
11.8529
11.8524
11.8563
11.8635
11.87
11.8761
11.8793
11.8795
11.8771
1
1
1
1
1
1
1
1
1
1
1
1
1
1
1
1
1
1
1
1
1
1
1
1
1
1
1
1
1
1
1
1
1
1
1
1
1
1
1
1
1
1
1
1
1
1
1
1
1
1
1
1
1
1
1
1
1
1
1
1
1
1
1
1
1
1
1
1
1
1
1
1
1
1
1
1
1
1
1
1
1
1
1
1
1
1
1.80068
8.38095
10.3536
10.3782
10.4058
10.4326
10.4637
10.4938
10.5237
10.5549
10.5854
10.616
10.6483
10.6821
10.7154
10.7476
10.7789
10.8094
10.837
10.8621
10.8877
10.9139
10.9393
10.9667
10.9966
11.027
11.0573
11.0883
11.1156
11.1365
11.1542
11.1711
11.1882
11.2091
11.2346
11.2611
11.2868
11.3099
11.3314
11.3516
11.3731
11.3949
11.4187
11.4407
11.4617
11.4814
11.5016
11.5224
11.5423
11.5583
11.5671
11.5705
11.5743
11.5857
11.6082
11.639
11.67
11.6935
11.7073
11.715
11.7217
11.7301
11.7388
11.7448
11.7483
11.7534
11.7649
11.7847
11.8086
11.8289
11.8401
11.8424
11.8385
11.8341
11.8329
11.8375
11.8465
11.855
11.8613
11.8629
11.8607
11.8569
1
1
1
1
1
1
1
1
1
1
1
1
1
1
1
1
1
1
1
1
1
1
1
1
1
1
1
1
1
1
1
1
1
1
1
1
1
1
1
1
1
1
1
1
1
1
1
1
1
1
1
1
1
1
1
1
1
1
1
1
1
1
1
1
1
1
1
1
1
1
1
1
1
1
1
1
1
1
1
1
1
1
1
1
1
1
1.53552
7.96178
10.3683
10.3793
10.3988
10.4236
10.4538
10.4844
10.5154
10.5476
10.5781
10.6081
10.6398
10.6729
10.706
10.7383
10.7694
10.7995
10.8264
10.8509
10.8765
10.9035
10.9301
10.9583
10.9877
11.0159
11.0427
11.0712
11.0998
11.1248
11.1469
11.1666
11.1837
11.2007
11.2206
11.2428
11.2683
11.2952
11.3213
11.3435
11.3633
11.3815
11.4021
11.4244
11.4486
11.4718
11.4922
11.5093
11.5236
11.5357
11.545
11.5526
11.5615
11.5756
11.5973
11.6252
11.6536
11.6762
11.6901
11.6978
11.7041
11.7121
11.721
11.7277
11.7317
11.7366
11.7473
11.7663
11.7904
11.8112
11.8228
11.8247
11.82
11.8147
11.8133
11.8183
11.8282
11.838
11.8441
11.8447
11.8412
11.8372
1
1
1
1
1
1
1
1
1
1
1
1
1
1
1
1
1
1
1
1
1
1
1
1
1
1
1
1
1
1
1
1
1
1
1
1
1
1
1
1
1
1
1
1
1
1
1
1
1
1
1
1
1
1
1
1
1
1
1
1
1
1
1
1
1
1
1
1
1
1
1
1
1
1
1
1
1
1
1
1
1
1
1
1
1
1
1.30084
7.49141
10.3741
10.3676
10.387
10.4108
10.4404
10.4712
10.5032
10.5364
10.5678
10.599
10.6311
10.6636
10.6961
10.7279
10.7586
10.7885
10.8149
10.8387
10.8638
10.8913
10.9196
10.9494
10.9796
11.0072
11.0312
11.055
11.0815
11.1085
11.1356
11.1602
11.1798
11.1952
11.2103
11.2267
11.2489
11.2767
11.307
11.3335
11.3541
11.3702
11.3872
11.4076
11.433
11.4588
11.4803
11.495
11.505
11.5134
11.5224
11.5339
11.5483
11.5658
11.5867
11.6109
11.6356
11.6566
11.6708
11.6796
11.6864
11.6941
11.7024
11.709
11.7134
11.7186
11.7291
11.7477
11.7714
11.7921
11.8035
11.8051
11.8002
11.7949
11.7938
11.7989
11.8087
11.8186
11.8241
11.8246
11.8211
11.8181
1
1
1
1
1
1
1
1
1
1
1
1
1
1
1
1
1
1
1
1
1
1
1
1
1
1
1
1
1
1
1
1
1
1
1
1
1
1
1
1
1
1
1
1
1
1
1
1
1
1
1
1
1
1
1
1
1
1
1
1
1
1
1
1
1
1
1
1
1
1
1
1
1
1
1
1
1
1
1
1
1
1
1
1
1
1
1.09884
6.9988
10.3579
10.3531
10.3737
10.3996
10.4302
10.4613
10.4943
10.5285
10.5608
10.5921
10.6232
10.6542
10.6854
10.7165
10.7475
10.778
10.8043
10.827
10.8504
10.8769
10.906
10.9377
10.9702
10.9995
11.0232
11.0433
11.0648
11.0894
11.1182
11.1479
11.1727
11.19
11.2029
11.2146
11.2317
11.2573
11.2891
11.3199
11.3435
11.3599
11.3742
11.3917
11.4156
11.4419
11.4645
11.4789
11.4867
11.4928
11.5012
11.5153
11.5341
11.5545
11.5749
11.5956
11.6166
11.6356
11.6503
11.6605
11.6682
11.6755
11.6828
11.6888
11.6935
11.6995
11.7105
11.7288
11.7516
11.7713
11.7821
11.7836
11.7792
11.7748
11.7744
11.7793
11.7878
11.7966
11.8016
11.8025
11.8001
11.7993
1
1
1
1
1
1
1
1
1
1
1
1
1
1
1
1
1
1
1
1
1
1
1
1
1
1
1
1
1
1
1
1
1
1
1
1
1
1
1
1
1
1
1
1
1
1
1
1
1
1
1
1
1
1
1
1
1
1
1
1
1
1
1
1
1
1
1
1
1
1
1
1
1
1
1
1
1
1
1
1
1
1
1
1
1
1
1.00376
6.47126
10.2741
10.3264
10.3556
10.3859
10.4151
10.444
10.4774
10.5126
10.5468
10.5806
10.6131
10.6441
10.6744
10.7044
10.7354
10.7664
10.7937
10.8172
10.8393
10.8631
10.8904
10.922
10.9568
10.9894
11.0157
11.0355
11.0531
11.0728
11.0984
11.1293
11.1591
11.1814
11.1957
11.2056
11.2183
11.2398
11.2698
11.3029
11.3301
11.3488
11.362
11.3767
11.3972
11.4219
11.445
11.4605
11.4687
11.4742
11.4824
11.4975
11.5185
11.5408
11.5608
11.579
11.5967
11.614
11.6289
11.6405
11.6491
11.656
11.662
11.6672
11.6723
11.6794
11.6912
11.7092
11.7306
11.7489
11.7589
11.7606
11.7574
11.7543
11.7546
11.759
11.7655
11.7722
11.7766
11.7787
11.7783
11.7804
1
1
1
1
1
1
1
1
1
1
1
1
1
1
1
1
1
1
1
1
1
1
1
1
1
1
1
1
1
1
1
1
1
1
1
1
1
1
1
1
1
1
1
1
1
1
1
1
1
1
1
1
1
1
1
1
1
1
1
1
1
1
1
1
1
1
1
1
1
1
1
1
1
1
1
1
1
1
1
1
1
1
1
1
1
1
1.00002
5.83955
10.1962
10.2958
10.3351
10.3749
10.4076
10.436
10.4677
10.5021
10.5363
10.5701
10.6023
10.6325
10.6616
10.6909
10.7223
10.7544
10.784
10.8091
10.831
10.8524
10.876
10.9044
10.9388
10.9745
11.0051
11.028
11.045
11.0609
11.081
11.1086
11.1395
11.1666
11.1854
11.197
11.2076
11.2252
11.2512
11.2839
11.3134
11.3353
11.3493
11.3619
11.3787
11.4003
11.4229
11.4401
11.4505
11.4571
11.4656
11.4806
11.5019
11.5245
11.5443
11.5608
11.5762
11.592
11.6069
11.6195
11.6287
11.6352
11.6399
11.6444
11.65
11.6583
11.6711
11.6887
11.7083
11.7248
11.7341
11.7363
11.7347
11.7333
11.7341
11.7375
11.7414
11.7457
11.7497
11.7533
11.7556
11.761
1
1
1
1
1
1
1
1
1
1
1
1
1
1
1
1
1
1
1
1
1
1
1
1
1
1
1
1
1
1
1
1
1
1
1
1
1
1
1
1
1
1
1
1
1
1
1
1
1
1
1
1
1
1
1
1
1
1
1
1
1
1
1
1
1
1
1
1
1
1
1
1
1
1
1
1
1
1
1
1
1
1
1
1
1
1
1
5.15532
10.0954
10.272
10.3189
10.3601
10.3939
10.4242
10.4566
10.4917
10.5266
10.5611
10.5933
10.6219
10.6485
10.6744
10.7035
10.7356
10.7679
10.7979
10.8242
10.8463
10.8666
10.8893
10.919
10.9544
10.9888
11.0169
11.0369
11.0519
11.0678
11.09
11.1182
11.1468
11.1701
11.1859
11.1974
11.2128
11.2345
11.2643
11.2942
11.3187
11.3346
11.3466
11.3602
11.3785
11.3997
11.4184
11.4317
11.4407
11.45
11.4642
11.4842
11.5062
11.5256
11.5412
11.5551
11.5696
11.5842
11.5973
11.607
11.6131
11.6167
11.6205
11.6265
11.636
11.6497
11.6668
11.6846
11.6993
11.708
11.7109
11.7113
11.7116
11.7123
11.7141
11.7155
11.7175
11.721
11.7263
11.7319
11.7403
1
1
1
1
1
1
1
1
1
1
1
1
1
1
1
1
1
1
1
1
1
1
1
1
1
1
1
1
1
1
1
1
1
1
1
1
1
1
1
1
1
1
1
1
1
1
1
1
1
1
1
1
1
1
1
1
1
1
1
1
1
1
1
1
1
1
1
1
1
1
1
1
1
1
1
1
1
1
1
1
1
1
1
1
1
1
1
4.45095
9.9543
10.2544
10.306
10.3518
10.3879
10.4168
10.4471
10.4814
10.5167
10.5519
10.5855
10.6149
10.6396
10.6617
10.6876
10.7187
10.7525
10.7855
10.8149
10.8392
10.8593
10.8785
10.9022
10.9327
10.9671
10.9995
11.025
11.0429
11.0573
11.0745
11.0981
11.1248
11.1502
11.1705
11.1853
11.2006
11.2192
11.245
11.2734
11.2992
11.3173
11.3301
11.342
11.3574
11.3767
11.3963
11.4122
11.4238
11.4342
11.4474
11.4655
11.4861
11.5052
11.5204
11.5334
11.5467
11.5607
11.5738
11.5839
11.5897
11.5926
11.5956
11.6017
11.6122
11.6268
11.6435
11.6596
11.6725
11.6807
11.6845
11.687
11.6885
11.6887
11.6886
11.6874
11.6876
11.6911
11.6984
11.7071
11.718
1
1
1
1
1
1
1
1
1
1
1
1
1
1
1
1
1
1
1
1
1
1
1
1
1
1
1
1
1
1
1
1
1
1
1
1
1
1
1
1
1
1
1
1
1
1
1
1
1
1
1
1
1
1
1
1
1
1
1
1
1
1
1
1
1
1
1
1
1
1
1
1
1
1
1
1
1
1
1
1
1
1
1
1
1
1
1
3.76418
9.74236
10.2487
10.2994
10.3456
10.3812
10.4113
10.4415
10.474
10.5072
10.5411
10.5747
10.6041
10.628
10.6499
10.6745
10.7028
10.7351
10.7695
10.8022
10.8296
10.8505
10.8676
10.8865
10.9123
10.9441
10.9776
11.0076
11.0303
11.0465
11.0613
11.0801
11.1031
11.1277
11.1511
11.1697
11.1866
11.2039
11.2259
11.2517
11.2775
11.2976
11.3121
11.3237
11.3373
11.3547
11.3741
11.3919
11.4058
11.4173
11.4296
11.4458
11.4649
11.4834
11.4986
11.511
11.5231
11.5361
11.549
11.5592
11.5651
11.5674
11.5697
11.5757
11.5868
11.6021
11.6186
11.6333
11.6447
11.6524
11.6573
11.6617
11.6639
11.6631
11.6609
11.6572
11.656
11.66
11.6692
11.6809
11.6937
1
1
1
1
1
1
1
1
1
1
1
1
1
1
1
1
1
1
1
1
1
1
1
1
1
1
1
1
1
1
1
1
1
1
1
1
1
1
1
1
1
1
1
1
1
1
1
1
1
1
1
1
1
1
1
1
1
1
1
1
1
1
1
1
1
1
1
1
1
1
1
1
1
1
1
1
1
1
1
1
1
1
1
1
1
1
1
3.12683
9.44107
10.2588
10.2963
10.3415
10.376
10.4062
10.4347
10.4647
10.4961
10.528
10.5621
10.5952
10.6225
10.6457
10.6679
10.6915
10.7186
10.7503
10.784
10.8152
10.8409
10.8603
10.877
10.8962
10.9224
10.9544
10.9866
11.014
11.0341
11.049
11.0638
11.0826
11.1046
11.1289
11.1508
11.17
11.1874
11.2065
11.2294
11.2542
11.2758
11.2924
11.305
11.3179
11.3336
11.3522
11.3708
11.3862
11.3986
11.4104
11.4249
11.4426
11.4606
11.4758
11.4878
11.4987
11.5105
11.5227
11.5331
11.5392
11.5412
11.5428
11.5483
11.5597
11.5756
11.5921
11.6057
11.6157
11.623
11.6291
11.6348
11.6372
11.6351
11.6306
11.625
11.6231
11.6277
11.6389
11.6532
11.6673
1
1
1
1
1
1
1
1
1
1
1
1
1
1
1
1
1
1
1
1
1
1
1
1
1
1
1
1
1
1
1
1
1
1
1
1
1
1
1
1
1
1
1
1
1
1
1
1
1
1
1
1
1
1
1
1
1
1
1
1
1
1
1
1
1
1
1
1
1
1
1
1
1
1
1
1
1
1
1
1
1
1
1
1
1
1
1
2.54091
9.03368
10.2651
10.303
10.343
10.3691
10.3984
10.4276
10.4573
10.4857
10.5122
10.5441
10.5807
10.614
10.642
10.6658
10.687
10.7078
10.7322
10.7622
10.7956
10.8262
10.8503
10.8683
10.8839
10.9039
10.9326
10.9653
10.9956
11.0193
11.0356
11.0481
11.0627
11.0817
11.1055
11.1294
11.1506
11.1688
11.1862
11.2068
11.2301
11.2528
11.2714
11.2855
11.2984
11.3128
11.3303
11.3487
11.365
11.3782
11.3897
11.403
11.4194
11.4368
11.4521
11.4637
11.4735
11.4838
11.4951
11.5054
11.5118
11.5138
11.5148
11.5196
11.531
11.5472
11.5638
11.5767
11.5856
11.5926
11.5999
11.6064
11.6081
11.6048
11.598
11.5907
11.5886
11.594
11.6072
11.6237
11.6385
1
1
1
1
1
1
1
1
1
1
1
1
1
1
1
1
1
1
1
1
1
1
1
1
1
1
1
1
1
1
1
1
1
1
1
1
1
1
1
1
1
1
1
1
1
1
1
1
1
1
1
1
1
1
1
1
1
1
1
1
1
1
1
1
1
1
1
1
1
1
1
1
1
1
1
1
1
1
1
1
1
1
1
1
1
1
1
1.97724
8.5355
10.3198
10.3063
10.3375
10.3642
10.3963
10.4261
10.4546
10.4791
10.4985
10.5229
10.5584
10.597
10.6329
10.6627
10.6846
10.7018
10.7203
10.7445
10.7754
10.808
10.8369
10.8581
10.873
10.8892
10.9136
10.9453
10.9769
11.0028
11.0205
11.0311
11.0425
11.0595
11.0819
11.1068
11.1291
11.1481
11.1648
11.1839
11.2059
11.2291
11.2493
11.2649
11.2781
11.2915
11.3077
11.3255
11.3422
11.356
11.3676
11.3801
11.3952
11.412
11.4271
11.4386
11.4475
11.4562
11.4663
11.4761
11.4827
11.485
11.4857
11.4899
11.5009
11.5171
11.5336
11.5461
11.5544
11.5611
11.5694
11.5758
11.5763
11.5717
11.5629
11.5546
11.5527
11.5592
11.5742
11.5923
11.607
1
1
1
1
1
1
1
1
1
1
1
1
1
1
1
1
1
1
1
1
1
1
1
1
1
1
1
1
1
1
1
1
1
1
1
1
1
1
1
1
1
1
1
1
1
1
1
1
1
1
1
1
1
1
1
1
1
1
1
1
1
1
1
1
1
1
1
1
1
1
1
1
1
1
1
1
1
1
1
1
1
1
1
1
1
1
1
1.47603
7.92408
10.3826
10.3206
10.3228
10.346
10.3811
10.4168
10.4523
10.4792
10.4962
10.5113
10.5366
10.5718
10.6111
10.6493
10.6797
10.6981
10.7114
10.7299
10.7571
10.7897
10.8212
10.8462
10.8635
10.8776
10.8971
10.9253
10.9563
10.983
11.0019
11.0129
11.0226
11.0383
11.0593
11.0839
11.1064
11.1257
11.1424
11.1606
11.1818
11.2051
11.2261
11.2429
11.2563
11.2689
11.2839
11.3009
11.3179
11.3323
11.3443
11.3561
11.3701
11.3858
11.4006
11.412
11.4203
11.4278
11.4363
11.4453
11.4518
11.4544
11.4554
11.4592
11.4695
11.4851
11.5012
11.5135
11.5218
11.5289
11.5373
11.5426
11.5416
11.5357
11.5253
11.5167
11.5155
11.5233
11.5398
11.5585
11.5722
1
1
1
1
1
1
1
1
1
1
1
1
1
1
1
1
1
1
1
1
1
1
1
1
1
1
1
1
1
1
1
1
1
1
1
1
1
1
1
1
1
1
1
1
1
1
1
1
1
1
1
1
1
1
1
1
1
1
1
1
1
1
1
1
1
1
1
1
1
1
1
1
1
1
1
1
1
1
1
1
1
1
1
1
1
1
1
1.14741
7.2949
10.3549
10.2952
10.3103
10.3284
10.3614
10.4008
10.4412
10.4701
10.4897
10.5043
10.5233
10.5522
10.5896
10.6297
10.6649
10.6909
10.706
10.7194
10.7402
10.77
10.8023
10.8308
10.852
10.8676
10.884
10.9063
10.9336
10.9598
10.9803
10.9937
11.0038
11.0182
11.0379
11.061
11.0831
11.1024
11.1196
11.1375
11.158
11.1808
11.2019
11.219
11.2324
11.2445
11.2585
11.275
11.2923
11.3074
11.3198
11.3312
11.3439
11.3582
11.3724
11.3838
11.3918
11.3984
11.4054
11.4131
11.4192
11.4222
11.4238
11.4275
11.4369
11.4513
11.4666
11.4789
11.4878
11.4958
11.5033
11.5063
11.5038
11.4963
11.485
11.4771
11.4772
11.4864
11.5038
11.522
11.5338
1
1
1
1
1
1
1
1
1
1
1
1
1
1
1
1
1
1
1
1
1
1
1
1
1
1
1
1
1
1
1
1
1
1
1
1
1
1
1
1
1
1
1
1
1
1
1
1
1
1
1
1
1
1
1
1
1
1
1
1
1
1
1
1
1
1
1
1
1
1
1
1
1
1
1
1
1
1
1
1
1
1
1
1
1
1
1
1.00541
6.53567
10.232
10.2433
10.2714
10.2907
10.3212
10.3632
10.4138
10.4601
10.4875
10.4998
10.5121
10.5328
10.5652
10.606
10.6467
10.6778
10.6973
10.7105
10.7268
10.7514
10.782
10.8128
10.8379
10.8559
10.8712
10.8896
10.9129
10.9375
10.9589
10.9744
10.9853
10.9977
11.0161
11.038
11.0598
11.0793
11.0971
11.1148
11.1345
11.1561
11.1765
11.1933
11.2063
11.2181
11.2316
11.2478
11.2655
11.2813
11.2941
11.3049
11.3163
11.329
11.3423
11.3537
11.3619
11.3679
11.3736