/*--------------------------------*- C++ -*----------------------------------*\
  =========                 |
  \\      /  F ield         | OpenFOAM: The Open Source CFD Toolbox
   \\    /   O peration     | Website:  https://openfoam.org
    \\  /    A nd           | Version:  7
     \\/     M anipulation  |
\*---------------------------------------------------------------------------*/
FoamFile
{
    version     2.0;
    format      ascii;
    class       volVectorField;
    location    "2";
    object      U;
}
// * * * * * * * * * * * * * * * * * * * * * * * * * * * * * * * * * * * * * //

dimensions      [0 1 -1 0 0 0 0];

internalField   nonuniform List<vector> 
344
(
(1.13289 0.0492829 1.3338e-15)
(1.13573 0.0510774 1.37029e-15)
(1.13889 0.0526381 1.40376e-15)
(1.14238 0.0539261 1.45823e-15)
(1.14619 0.0549047 1.49255e-15)
(1.15031 0.0555405 1.52741e-15)
(1.15471 0.0558052 1.56162e-15)
(1.15938 0.0556777 1.61518e-15)
(1.16426 0.0551451 1.64425e-15)
(1.16931 0.0542047 1.67414e-15)
(1.17446 0.0528649 1.70204e-15)
(1.17965 0.0511456 1.74636e-15)
(1.18481 0.049078 1.76501e-15)
(1.18988 0.0467041 1.78496e-15)
(1.19477 0.0440741 1.80275e-15)
(1.19944 0.0412451 1.8182e-15)
(1.20383 0.0382776 1.82967e-15)
(1.20791 0.035233 1.83859e-15)
(1.21164 0.0321706 1.84045e-15)
(1.215 0.0291452 1.86405e-15)
(1.218 0.026205 1.85929e-15)
(1.22064 0.0233903 1.85434e-15)
(1.22293 0.020733 1.85062e-15)
(1.2249 0.018256 1.84298e-15)
(1.22657 0.0159742 1.83299e-15)
(1.22798 0.0138949 1.82274e-15)
(1.22915 0.0120189 1.81058e-15)
(1.23012 0.010342 1.79502e-15)
(1.2309 0.00885554 1.79694e-15)
(1.23154 0.00754825 1.77887e-15)
(1.23205 0.00640669 1.76149e-15)
(1.23246 0.00541641 1.74369e-15)
(1.23278 0.00456253 1.73888e-15)
(1.23303 0.00383031 1.71778e-15)
(1.23323 0.00320561 1.6996e-15)
(1.23338 0.00267509 1.68014e-15)
(1.2335 0.00222644 1.67159e-15)
(1.23359 0.00184848 1.65015e-15)
(1.23365 0.00153116 1.63227e-15)
(1.2337 0.00126556 1.61133e-15)
(1.23374 0.00104386 1.59204e-15)
(1.23377 0.000859207 1.57317e-15)
(1.23379 0.000705701 1.5542e-15)
(1.2338 0.000578259 1.53536e-15)
(1.23381 0.000472524 1.51581e-15)
(1.23382 0.000384815 1.49739e-15)
(1.23383 0.000311933 1.4786e-15)
(1.23383 0.000251375 1.46016e-15)
(1.23384 0.000200463 1.4412e-15)
(1.23384 0.000158681 1.42273e-15)
(1.23384 0.000118814 1.40214e-15)
(1.02444 0.0142304 8.02681e-16)
(1.02535 0.015649 8.26383e-16)
(1.02632 0.0171963 8.60401e-16)
(1.02737 0.0188656 8.88406e-16)
(1.0285 0.0206485 9.21175e-16)
(1.02975 0.0225347 9.47178e-16)
(1.03112 0.0245118 9.79494e-16)
(1.03263 0.0265655 1.00578e-15)
(1.0343 0.0286791 1.03808e-15)
(1.03614 0.0308335 1.06499e-15)
(1.03819 0.0330074 1.10215e-15)
(1.04045 0.0351769 1.13434e-15)
(1.04295 0.0373157 1.16523e-15)
(1.04571 0.0393953 1.20105e-15)
(1.04873 0.0413849 1.2305e-15)
(1.05203 0.0432524 1.26605e-15)
(1.05563 0.0449641 1.29535e-15)
(1.05953 0.046486 1.33062e-15)
(1.06372 0.0477841 1.35809e-15)
(1.0682 0.0488261 1.3949e-15)
(1.07296 0.0495818 1.42783e-15)
(1.07797 0.050025 1.46089e-15)
(1.0832 0.0501345 1.48582e-15)
(1.08862 0.0498957 1.52136e-15)
(1.09417 0.0493018 1.54809e-15)
(1.09981 0.0483547 1.57672e-15)
(1.10546 0.0470656 1.5948e-15)
(1.11107 0.0454554 1.62092e-15)
(1.11657 0.0435539 1.63838e-15)
(1.1219 0.0413991 1.65593e-15)
(1.12701 0.0390355 1.66485e-15)
(1.13183 0.0365124 1.67696e-15)
(1.13634 0.0338812 1.67923e-15)
(1.14051 0.0311935 1.68664e-15)
(1.1443 0.0284988 1.68288e-15)
(1.14772 0.0258423 1.68867e-15)
(1.15077 0.0232638 1.68489e-15)
(1.15345 0.0207965 1.67923e-15)
(1.15579 0.0184666 1.67795e-15)
(1.15781 0.0162929 1.66562e-15)
(1.15953 0.0142878 1.66011e-15)
(1.161 0.0124573 1.64533e-15)
(1.16222 0.0108023 1.63646e-15)
(1.16324 0.00931927 1.61928e-15)
(1.16409 0.00800117 1.61134e-15)
(1.16478 0.00683856 1.59765e-15)
(1.16534 0.00582027 1.58634e-15)
(1.1658 0.00493416 1.56739e-15)
(1.16617 0.00416766 1.55721e-15)
(1.16646 0.00350826 1.54171e-15)
(1.1667 0.00294386 1.52904e-15)
(1.16688 0.00246301 1.5101e-15)
(1.16703 0.00205508 1.49834e-15)
(1.16714 0.00171034 1.48197e-15)
(1.16724 0.00142003 1.46806e-15)
(1.16731 0.00117631 1.4493e-15)
(1.16736 0.000972272 1.43422e-15)
(1.1674 0.000801851 1.41613e-15)
(1.16744 0.000659778 1.39979e-15)
(1.16746 0.000541501 1.38461e-15)
(1.16748 0.000443095 1.36713e-15)
(1.1675 0.000361232 1.35071e-15)
(1.16751 0.000292982 1.33407e-15)
(1.16752 0.000236096 1.3179e-15)
(1.16753 0.000187988 1.3008e-15)
(1.16753 0.000148401 1.28455e-15)
(1.16754 0.000110509 1.26693e-15)
(0.978163 0.0135885 7.91673e-16)
(0.979302 0.0149539 8.21022e-16)
(0.980526 0.0164405 8.51582e-16)
(0.981852 0.0180415 8.80379e-16)
(0.983293 0.0197483 9.07284e-16)
(0.984867 0.0215505 9.37911e-16)
(0.98659 0.0234359 9.64495e-16)
(0.988479 0.0253902 9.95765e-16)
(0.99055 0.0273968 1.02207e-15)
(0.992823 0.0294371 1.05377e-15)
(0.995314 0.0314901 1.08574e-15)
(0.99804 0.0335328 1.11744e-15)
(1.00102 0.0355396 1.14797e-15)
(1.00426 0.0374834 1.17674e-15)
(1.00777 0.0393349 1.20932e-15)
(1.01157 0.0410636 1.23677e-15)
(1.01567 0.0426382 1.26937e-15)
(1.02004 0.0440271 1.29607e-15)
(1.02471 0.0451993 1.32698e-15)
(1.02964 0.0461253 1.35875e-15)
(1.03482 0.0467783 1.38799e-15)
(1.04023 0.0471355 1.41268e-15)
(1.04583 0.047179 1.44083e-15)
(1.05157 0.0468972 1.46931e-15)
(1.0574 0.0462858 1.49252e-15)
(1.06327 0.0453485 1.51156e-15)
(1.06913 0.0440977 1.53306e-15)
(1.0749 0.0425541 1.553e-15)
(1.08053 0.0407466 1.5683e-15)
(1.08596 0.0387109 1.5763e-15)
(1.09113 0.0364885 1.58864e-15)
(1.09601 0.0341247 1.59182e-15)
(1.10056 0.0316665 1.59854e-15)
(1.10474 0.0291606 1.59697e-15)
(1.10855 0.0266519 1.59747e-15)
(1.11198 0.024181 1.5982e-15)
(1.11504 0.0217838 1.59433e-15)
(1.11774 0.0194902 1.58916e-15)
(1.12009 0.0173237 1.58001e-15)
(1.12213 0.0153013 1.57409e-15)
(1.12388 0.0134343 1.56072e-15)
(1.12536 0.011728 1.55313e-15)
(1.12661 0.0101835 1.53866e-15)
(1.12766 0.00879749 1.52761e-15)
(1.12853 0.00756384 1.51735e-15)
(1.12924 0.00647401 1.50532e-15)
(1.12983 0.00551791 1.48991e-15)
(1.13031 0.00468453 1.47724e-15)
(1.1307 0.00396241 1.46543e-15)
(1.13102 0.00334014 1.45183e-15)
(1.13127 0.00280661 1.43616e-15)
(1.13148 0.0023513 1.42271e-15)
(1.13164 0.00196439 1.41048e-15)
(1.13177 0.00163689 1.39587e-15)
(1.13187 0.00136065 1.38034e-15)
(1.13195 0.00112839 1.36604e-15)
(1.13201 0.000933656 1.3497e-15)
(1.13206 0.000770767 1.33584e-15)
(1.1321 0.000634777 1.32088e-15)
(1.13213 0.000521405 1.30522e-15)
(1.13216 0.000426945 1.29057e-15)
(1.13218 0.000348246 1.27553e-15)
(1.13219 0.000282527 1.26029e-15)
(1.13221 0.000227644 1.24514e-15)
(1.13222 0.000181125 1.22879e-15)
(1.13222 0.000142669 1.21386e-15)
(1.13223 0.000106073 1.19771e-15)
(0.932247 0.0128923 7.86122e-16)
(0.933603 0.0141984 8.13258e-16)
(0.935068 0.0156183 8.40965e-16)
(0.936657 0.0171448 8.70058e-16)
(0.938385 0.0187696 8.97728e-16)
(0.940268 0.0204823 9.26915e-16)
(0.942323 0.0222706 9.54438e-16)
(0.944565 0.0241206 9.82466e-16)
(0.947011 0.0260161 1.00981e-15)
(0.949677 0.0279389 1.03756e-15)
(0.952578 0.0298687 1.06703e-15)
(0.955728 0.0317832 1.09649e-15)
(0.959139 0.0336582 1.12592e-15)
(0.962821 0.0354675 1.15426e-15)
(0.966783 0.0371838 1.18361e-15)
(0.971028 0.0387784 1.2107e-15)
(0.975556 0.0402221 1.23861e-15)
(0.980361 0.0414859 1.26529e-15)
(0.985432 0.0425416 1.29177e-15)
(0.990752 0.0433625 1.3178e-15)
(0.996297 0.0439251 1.34313e-15)
(1.00203 0.0442095 1.3678e-15)
(1.00792 0.0442007 1.39033e-15)
(1.01392 0.0438897 1.41245e-15)
(1.01998 0.0432743 1.43307e-15)
(1.02604 0.0423595 1.4514e-15)
(1.03204 0.0411582 1.46744e-15)
(1.03793 0.0396909 1.48164e-15)
(1.04364 0.0379849 1.49426e-15)
(1.04913 0.0360737 1.50234e-15)
(1.05434 0.0339957 1.51046e-15)
(1.05924 0.0317921 1.51393e-15)
(1.06379 0.0295059 1.51552e-15)
(1.06798 0.0271792 1.51466e-15)
(1.07179 0.0248525 1.51186e-15)
(1.07523 0.0225625 1.5088e-15)
(1.07828 0.0203413 1.50378e-15)
(1.08099 0.0182158 1.49772e-15)
(1.08335 0.0162073 1.49045e-15)
(1.0854 0.0143311 1.48243e-15)
(1.08716 0.0125974 1.47236e-15)
(1.08866 0.0110113 1.46142e-15)
(1.08993 0.00957365 1.44993e-15)
(1.091 0.0082818 1.43765e-15)
(1.09189 0.00713023 1.42538e-15)
(1.09264 0.00611133 1.41436e-15)
(1.09325 0.00521602 1.40188e-15)
(1.09375 0.00443433 1.38814e-15)
(1.09416 0.00375589 1.37604e-15)
(1.09449 0.00317028 1.36302e-15)
(1.09477 0.00266736 1.3502e-15)
(1.09498 0.00223747 1.33767e-15)
(1.09516 0.00187159 1.32449e-15)
(1.0953 0.00156139 1.31154e-15)
(1.09541 0.00129936 1.29815e-15)
(1.09551 0.00107872 1.28445e-15)
(1.09558 0.00089345 1.27045e-15)
(1.09563 0.000738267 1.25667e-15)
(1.09568 0.000608534 1.24292e-15)
(1.09572 0.00050023 1.22928e-15)
(1.09575 0.000409869 1.21537e-15)
(1.09577 0.000334476 1.20128e-15)
(1.09579 0.000271421 1.18709e-15)
(1.0958 0.000218652 1.17334e-15)
(1.09582 0.000173844 1.15816e-15)
(1.09582 0.00013658 1.14414e-15)
(1.09584 0.000101441 1.12934e-15)
(0.886706 0.012146 7.77533e-16)
(0.888264 0.0133872 8.02023e-16)
(0.889951 0.0147346 8.27224e-16)
(0.891783 0.0161813 8.55145e-16)
(0.893775 0.0177187 8.85388e-16)
(0.895943 0.0193368 9.11268e-16)
(0.898302 0.0210236 9.40114e-16)
(0.900868 0.0227653 9.65247e-16)
(0.903656 0.0245464 9.93688e-16)
(0.906678 0.0263491 1.01792e-15)
(0.909949 0.0281542 1.04283e-15)
(0.91348 0.0299402 1.0706e-15)
(0.917279 0.0316841 1.09913e-15)
(0.921354 0.0333613 1.12756e-15)
(0.925707 0.034946 1.15222e-15)
(0.930339 0.0364116 1.1798e-15)
(0.935245 0.0377313 1.20303e-15)
(0.940414 0.0388783 1.22872e-15)
(0.945831 0.0398271 1.25069e-15)
(0.951474 0.040554 1.27121e-15)
(0.957315 0.0410382 1.2944e-15)
(0.963318 0.0412624 1.3182e-15)
(0.969442 0.0412143 1.33502e-15)
(0.975641 0.040887 1.35122e-15)
(0.981863 0.0402798 1.36907e-15)
(0.988053 0.0393988 1.38709e-15)
(0.994155 0.038257 1.39857e-15)
(1.00011 0.036874 1.40678e-15)
(1.00587 0.0352757 1.41735e-15)
(1.01138 0.0334931 1.42634e-15)
(1.01661 0.0315613 1.42903e-15)
(1.0215 0.0295179 1.43337e-15)
(1.02605 0.0274017 1.43142e-15)
(1.03022 0.025251 1.4315e-15)
(1.03402 0.0231019 1.42489e-15)
(1.03744 0.0209875 1.41778e-15)
(1.04049 0.0189367 1.41242e-15)
(1.04319 0.0169737 1.40743e-15)
(1.04555 0.0151176 1.40184e-15)
(1.04761 0.0133825 1.39148e-15)
(1.04938 0.0117775 1.38362e-15)
(1.0509 0.0103074 1.37113e-15)
(1.05219 0.00897317 1.3618e-15)
(1.05328 0.00777255 1.34898e-15)
(1.05419 0.00670071 1.33508e-15)
(1.05495 0.00575088 1.32468e-15)
(1.05558 0.00491494 1.31491e-15)
(1.05611 0.00418391 1.30077e-15)
(1.05654 0.00354841 1.28758e-15)
(1.05689 0.00299898 1.277e-15)
(1.05717 0.00252639 1.26638e-15)
(1.05741 0.00212178 1.2533e-15)
(1.0576 0.00177688 1.24014e-15)
(1.05775 0.00148405 1.22844e-15)
(1.05787 0.00123632 1.21778e-15)
(1.05797 0.00102742 1.20429e-15)
(1.05805 0.000851776 1.19246e-15)
(1.05812 0.000704456 1.17905e-15)
(1.05817 0.000581136 1.16672e-15)
(1.05821 0.000478051 1.15464e-15)
(1.05825 0.000391932 1.14114e-15)
(1.05827 0.000319975 1.12834e-15)
(1.05829 0.000259705 1.11551e-15)
(1.05831 0.000209159 1.1027e-15)
(1.05833 0.000166164 1.08845e-15)
(1.05834 0.000130199 1.07549e-15)
(1.05835 9.66003e-05 1.06203e-15)
(0.841551 0.011356 7.58224e-16)
(0.84329 0.0125273 7.87625e-16)
(0.845177 0.0137973 8.09467e-16)
(0.847228 0.0151593 8.37843e-16)
(0.849457 0.016605 8.6154e-16)
(0.85188 0.0181244 8.92023e-16)
(0.854512 0.019706 9.14194e-16)
(0.857366 0.0213365 9.43433e-16)
(0.860456 0.0230008 9.65049e-16)
(0.863794 0.0246822 9.93335e-16)
(0.867391 0.0263621 1.0137e-15)
(0.871255 0.0280202 1.0415e-15)
(0.875391 0.0296349 1.06801e-15)
(0.879804 0.0311831 1.08876e-15)
(0.884493 0.0326409 1.11632e-15)
(0.889453 0.0339836 1.13567e-15)
(0.894676 0.0351864 1.16238e-15)
(0.900147 0.0362253 1.17961e-15)
(0.905846 0.0370771 1.20409e-15)
(0.911749 0.0377207 1.22007e-15)
(0.917822 0.0381378 1.24121e-15)
(0.92403 0.0383138 1.25531e-15)
(0.930328 0.0382383 1.27584e-15)
(0.93667 0.0379062 1.28566e-15)
(0.943004 0.037318 1.30303e-15)
)
;

boundaryField
{
    inlet
    {
        type            uniformFixedValue;
        uniformValue    constant (1 0 0);
        value           nonuniform 0();
    }
    outlet
    {
        type            pressureInletOutletVelocity;
        value           nonuniform List<vector> 5((1.23384 0.000118814 1.40214e-15) (1.16754 0.000110509 1.26693e-15) (1.13223 0.000106073 1.19771e-15) (1.09584 0.000101441 1.12934e-15) (1.05835 9.66003e-05 1.06203e-15));
    }
    wall
    {
        type            fixedValue;
        value           nonuniform 0();
    }
    wedge1
    {
        type            wedge;
    }
    wedge2
    {
        type            wedge;
    }
    axis
    {
        type            empty;
    }
    procBoundary23to17
    {
        type            processor;
        value           nonuniform List<vector> 
68
(
(1.24871 0.0545899 1.34691e-15)
(1.24957 0.0568403 1.38556e-15)
(1.25075 0.0588595 1.4254e-15)
(1.25225 0.0605992 1.48932e-15)
(1.25412 0.0620115 1.53293e-15)
(1.25635 0.0630506 1.5777e-15)
(1.25895 0.0636749 1.62124e-15)
(1.26191 0.0638492 1.68744e-15)
(1.26522 0.0635475 1.72687e-15)
(1.26882 0.0627551 1.76551e-15)
(1.27268 0.0614708 1.80505e-15)
(1.27674 0.0597082 1.86306e-15)
(1.28092 0.0574964 1.89638e-15)
(1.28514 0.0548794 1.93079e-15)
(1.28934 0.0519146 1.96428e-15)
(1.29343 0.0486699 1.98942e-15)
(1.29735 0.0452205 2.01612e-15)
(1.30103 0.0416444 2.033e-15)
(1.30444 0.0380187 2.04585e-15)
(1.30755 0.0344159 2.08274e-15)
(1.31032 0.0309006 2.08924e-15)
(1.31277 0.0275272 2.09263e-15)
(1.31489 0.0243392 2.09473e-15)
(1.3167 0.021368 2.09531e-15)
(1.31823 0.0186344 2.08909e-15)
(1.3195 0.0161486 2.08178e-15)
(1.32054 0.0139125 2.06759e-15)
(1.32138 0.0119205 2.05435e-15)
(1.32206 0.0101621 2.05837e-15)
(1.32259 0.00862243 2.04103e-15)
(1.323 0.00728444 2.02429e-15)
(1.32331 0.00612961 2.00625e-15)
(1.32355 0.00513904 1.99882e-15)
(1.32373 0.00429417 1.97774e-15)
(1.32385 0.00357725 1.9547e-15)
(1.32395 0.00297173 1.93242e-15)
(1.32401 0.00246243 1.92156e-15)
(1.32405 0.00203567 1.89801e-15)
(1.32408 0.00167928 1.87604e-15)
(1.32409 0.00138253 1.85367e-15)
(1.3241 0.00113607 1.83001e-15)
(1.3241 0.000931826 1.80766e-15)
(1.3241 0.00076286 1.78562e-15)
(1.3241 0.000623256 1.7619e-15)
(1.3241 0.000507993 1.73974e-15)
(1.32409 0.00041284 1.71774e-15)
(1.32409 0.000334211 1.69574e-15)
(1.32408 0.000269193 1.67381e-15)
(1.32408 0.000215047 1.65148e-15)
(1.32408 0.000170685 1.62983e-15)
(1.32408 0.000128927 1.60466e-15)
(1.11474 0.0153658 8.03033e-16)
(1.11519 0.0168753 8.30727e-16)
(1.11565 0.0185279 8.7529e-16)
(1.11613 0.0203173 8.99252e-16)
(1.11666 0.0222356 9.26518e-16)
(1.11724 0.0242728 9.56647e-16)
(1.11788 0.0264168 9.86391e-16)
(1.11862 0.0286533 1.01414e-15)
(1.11947 0.0309654 1.04677e-15)
(1.12045 0.033334 1.07804e-15)
(1.12158 0.0357367 1.12842e-15)
(1.12288 0.0381488 1.1586e-15)
(1.12439 0.0405425 1.19111e-15)
(1.12612 0.0428871 1.22484e-15)
(1.1281 0.0451495 1.26109e-15)
(1.13035 0.047294 1.29722e-15)
(1.13035 0.047294 1.29722e-15)
)
;
    }
    procBoundary23to22
    {
        type            processor;
        value           nonuniform List<vector> 4((1.02358 0.0129456 7.71939e-16) (0.977097 0.0123495 7.66065e-16) (0.930985 0.0117052 7.59011e-16) (0.885263 0.0110164 7.49061e-16));
    }
    procBoundary23to28
    {
        type            processor;
        value           uniform (0.839944 0.0102888 7.36044e-16);
    }
    procBoundary23to29
    {
        type            processor;
        value           nonuniform List<vector> 
68
(
(0.949277 0.0364804 1.31137e-15)
(0.955434 0.0354061 1.32611e-15)
(0.961423 0.0341139 1.32927e-15)
(0.967195 0.0326276 1.33814e-15)
(0.972703 0.0309758 1.3385e-15)
(0.977909 0.0291906 1.3467e-15)
(0.982782 0.027306 1.3427e-15)
(0.9873 0.025357 1.3451e-15)
(0.991448 0.0233779 1.33792e-15)
(0.99522 0.0214014 1.33697e-15)
(0.998619 0.0194569 1.32719e-15)
(1.00166 0.0175707 1.32221e-15)
(1.00434 0.0157643 1.31771e-15)
(1.0067 0.0140551 1.30604e-15)
(1.00876 0.0124558 1.30135e-15)
(1.01054 0.0109748 1.28785e-15)
(1.01207 0.00961662 1.28174e-15)
(1.01337 0.00838234 1.26801e-15)
(1.01448 0.00727007 1.26098e-15)
(1.01541 0.00627561 1.24587e-15)
(1.01619 0.00539301 1.23727e-15)
(1.01684 0.00461502 1.22304e-15)
(1.01738 0.0039336 1.21492e-15)
(1.01783 0.00334029 1.20098e-15)
(1.0182 0.00282655 1.19215e-15)
(1.0185 0.00238396 1.17864e-15)
(1.01875 0.00200447 1.17056e-15)
(1.01895 0.00168051 1.15731e-15)
(1.01911 0.00140505 1.14769e-15)
(1.01925 0.0011717 1.13446e-15)
(1.01936 0.000974656 1.12536e-15)
(1.01944 0.000808764 1.11259e-15)
(1.01951 0.000669445 1.10246e-15)
(1.01957 0.000552676 1.09208e-15)
(1.01962 0.000454946 1.07899e-15)
(1.01965 0.000373198 1.0681e-15)
(1.01968 0.000304799 1.05685e-15)
(1.01971 0.000247425 1.04525e-15)
(1.01973 0.000199208 1.03343e-15)
(1.01975 0.000158122 1.0198e-15)
(1.01976 0.000123561 1.00816e-15)
(1.01977 9.15782e-05 9.96e-16)
(0.796786 0.0105296 7.43519e-16)
(0.798682 0.0116268 7.71002e-16)
(0.800743 0.0128155 7.87771e-16)
(0.802983 0.014089 8.1834e-16)
(0.805418 0.0154393 8.41395e-16)
(0.808062 0.0168569 8.69432e-16)
(0.81093 0.0183307 8.91009e-16)
(0.814033 0.0198479 9.18246e-16)
(0.817384 0.0213943 9.38856e-16)
(0.820992 0.0229539 9.64435e-16)
(0.824866 0.0245091 9.79639e-16)
(0.829011 0.026041 1.00803e-15)
(0.833431 0.0275293 1.03351e-15)
(0.838126 0.0289525 1.05261e-15)
(0.843091 0.0302884 1.07746e-15)
(0.848319 0.0315145 1.09487e-15)
(0.853796 0.0326082 1.11785e-15)
(0.859506 0.0335475 1.13336e-15)
(0.865424 0.0343118 1.15412e-15)
(0.871523 0.0348825 1.16296e-15)
(0.877769 0.0352434 1.18389e-15)
(0.884121 0.0353819 1.1969e-15)
(0.890537 0.0352897 1.21405e-15)
(0.896969 0.0349629 1.21634e-15)
(0.949277 0.0364804 1.31137e-15)
(0.903367 0.0344028 1.23367e-15)
)
;
    }
}


// ************************************************************************* //
