0.233439 	0.443598 	-1.88005e-19 	0.401924
0.235905 	0.448284 	-3.5742e-19 	0.400741
0.239185 	0.454518 	1.78743e-19 	0.399425
0.241651 	0.459204 	1.065e-20 	0.398158
0.245768 	0.467027 	-9.26338e-19 	0.396876
0.249117 	0.473391 	1.24006e-18 	0.395652
0.251583 	0.478077 	1.20832e-18 	0.394788
0.255632 	0.485771 	1.36689e-18 	0.394079
0.259049 	0.492264 	7.24349e-19 	0.393364
0.261515 	0.49695 	3.55893e-19 	0.392781
