0.216393 	0.457656 	-2.43593e-18 	1.09858 	-0.0365642 	7.72515e-17
0.219304 	0.463813 	-5.55708e-19 	1.08359 	-0.0359691 	-1.06714e-17
0.22152 	0.468499 	1.67853e-19 	1.08089 	-0.0340784 	-9.71553e-18
0.225255 	0.476399 	5.77665e-19 	0.988655 	-0.0286136 	7.15075e-17
0.228735 	0.48376 	2.58789e-19 	0.727599 	-0.0145805 	8.83698e-17
0.230951 	0.488446 	7.03344e-19 	0.712239 	-0.0126668 	8.88883e-17
0.234118 	0.495143 	1.89731e-18 	0.241048 	0.000776215 	6.22015e-17
