/*--------------------------------*- C++ -*----------------------------------*\
  =========                 |
  \\      /  F ield         | OpenFOAM: The Open Source CFD Toolbox
   \\    /   O peration     | Website:  https://openfoam.org
    \\  /    A nd           | Version:  7
     \\/     M anipulation  |
\*---------------------------------------------------------------------------*/
FoamFile
{
    version     2.0;
    format      ascii;
    class       volVectorField;
    location    "24";
    object      U;
}
// * * * * * * * * * * * * * * * * * * * * * * * * * * * * * * * * * * * * * //

dimensions      [0 1 -1 0 0 0 0];

internalField   nonuniform List<vector> 
433
(
(0.541034 -0.29042 2.53797e-18)
(0.47442 -0.371823 2.27335e-18)
(0.497322 -0.360943 9.89915e-20)
(0.520394 -0.34878 -4.40848e-18)
(0.540698 -0.335606 3.72934e-18)
(0.561277 -0.320455 -7.8592e-19)
(0.405063 -0.438609 3.86612e-18)
(0.430034 -0.432071 -7.68774e-18)
(0.454342 -0.424018 8.34011e-19)
(0.47794 -0.414542 -1.63485e-18)
(0.500802 -0.403779 1.09672e-18)
(0.522718 -0.392009 6.4587e-18)
(0.54482 -0.378834 -4.61892e-18)
(0.564241 -0.364861 -3.85435e-19)
(0.583683 -0.348894 2.96295e-18)
(0.364477 -0.474592 1.38073e-18)
(0.38956 -0.474958 -5.87616e-19)
(0.414294 -0.472834 1.44373e-18)
(0.438573 -0.468484 -3.94657e-18)
(0.4623 -0.462129 4.80116e-18)
(0.485396 -0.453962 -5.71522e-18)
(0.507813 -0.444169 3.90018e-20)
(0.529526 -0.43294 3.37975e-18)
(0.550323 -0.420595 -1.46474e-18)
(0.57133 -0.406678 -6.05446e-18)
(0.589785 -0.392119 5.72185e-18)
(0.607997 -0.37555 4.44963e-18)
(0.282054 -0.449189 -8.42741e-19)
(0.315239 -0.468574 -2.97496e-18)
(0.345357 -0.482371 -1.87211e-18)
(0.373387 -0.491574 4.21749e-18)
(0.399921 -0.496867 -4.06622e-18)
(0.425311 -0.498784 -2.90113e-18)
(0.449749 -0.497753 3.76776e-18)
(0.473339 -0.494126 2.8972e-18)
(0.496133 -0.488202 -1.20765e-18)
(0.518159 -0.480235 4.12006e-19)
(0.539438 -0.470458 3.07132e-19)
(0.559986 -0.459095 -4.2851e-18)
(0.579627 -0.446488 2.08552e-18)
(0.599487 -0.432127 4.71542e-18)
(0.616942 -0.417228 -6.51475e-18)
(0.633887 -0.40031 6.33826e-18)
(0.241035 -0.38211 1.33322e-18)
(0.272517 -0.420559 -1.77256e-18)
(0.302879 -0.449904 3.83817e-18)
(0.332198 -0.472291 -4.51023e-18)
(0.360532 -0.489319 -1.21097e-18)
(0.387882 -0.501997 3.0387e-18)
(0.41422 -0.510917 -1.18527e-18)
(0.439543 -0.516459 2.60776e-18)
(0.463877 -0.518913 2.45272e-18)
(0.487267 -0.518531 -2.73433e-18)
(0.509763 -0.515548 -2.71459e-18)
(0.53141 -0.510193 1.00335e-17)
(0.552252 -0.502684 1.64309e-19)
(0.572327 -0.493238 -4.91644e-18)
(0.591671 -0.482074 -4.48499e-18)
(0.610131 -0.469542 6.67678e-18)
(0.628825 -0.455064 -3.49893e-18)
(0.645274 -0.440108 6.33788e-18)
(0.660957 -0.423132 -2.74165e-18)
(0.356397 -0.431494 -9.24178e-19)
(0.373932 -0.457349 -2.16186e-18)
(0.393798 -0.47872 -5.0237e-18)
(0.41519 -0.496147 4.58037e-18)
(0.437446 -0.510007 7.81088e-19)
(0.460028 -0.520502 -1.95349e-18)
(0.482529 -0.527764 -1.65205e-18)
(0.50467 -0.531918 4.67403e-18)
(0.526271 -0.533114 -8.68315e-18)
(0.547227 -0.531534 4.6898e-18)
(0.567485 -0.527381 -4.40981e-18)
(0.587025 -0.520873 1.21897e-17)
(0.605852 -0.512233 -7.95951e-18)
(0.623984 -0.501699 3.28766e-18)
(0.641273 -0.489634 1.5939e-18)
(0.658818 -0.475413 1.34976e-18)
(0.674268 -0.460731 -4.87203e-18)
(0.688732 -0.44404 -1.68403e-18)
(0.436561 -0.456074 -3.22502e-18)
(0.45795 -0.480807 -7.07796e-19)
(0.479469 -0.501016 1.56816e-18)
(0.501 -0.5169 1.43028e-19)
(0.522356 -0.528662 3.21474e-18)
(0.543355 -0.536532 5.18774e-19)
(0.563849 -0.540772 -1.20353e-18)
(0.583728 -0.541675 -2.87115e-18)
(0.602924 -0.53954 1.12663e-17)
(0.621404 -0.53467 -5.20134e-18)
(0.639166 -0.527358 3.49549e-20)
(0.65622 -0.517902 -3.16194e-18)
(0.672431 -0.506714 -7.9012e-18)
(0.688893 -0.493138 4.10414e-18)
(0.703345 -0.479112 -1.22255e-18)
(0.716665 -0.463119 3.13714e-18)
(0.478822 -0.457373 3.43905e-19)
(0.506024 -0.484805 2.3496e-18)
(0.531095 -0.506737 -6.06122e-19)
(0.554552 -0.523539 9.849e-20)
(0.576684 -0.5356 6.38058e-19)
(0.597655 -0.543319 1.13926e-19)
(0.617564 -0.547105 4.20809e-18)
(0.636476 -0.547362 -5.27255e-18)
(0.654446 -0.544477 1.34064e-18)
(0.671529 -0.538823 -4.60179e-18)
(0.687773 -0.530764 7.91407e-18)
(0.703075 -0.520779 -1.0014e-17)
(0.718542 -0.508208 9.24792e-18)
(0.731921 -0.495279 -2.69901e-18)
(0.744176 -0.480531 8.23508e-19)
(0.555331 -0.499284 4.89378e-18)
(0.581565 -0.518465 -5.88407e-18)
(0.605661 -0.533057 8.27889e-18)
(0.62793 -0.543282 -6.72457e-18)
(0.648602 -0.549433 5.32256e-18)
(0.667854 -0.551845 -1.00949e-17)
(0.685826 -0.550881 -4.4274e-19)
(0.702636 -0.546912 3.37938e-18)
(0.718369 -0.540337 2.03555e-18)
(0.732938 -0.531687 1.12788e-17)
(0.747435 -0.520297 -6.18614e-18)
(0.759337 -0.508785 -1.48542e-18)
(0.770351 -0.495645 -3.91166e-18)
(0.633095 -0.528279 -3.22485e-18)
(0.65621 -0.540632 -1.13249e-18)
(0.677638 -0.548882 -4.65606e-18)
(0.69746 -0.553265 5.43257e-18)
(0.715771 -0.554066 -2.45492e-18)
(0.732662 -0.551614 -6.89688e-18)
(0.74819 -0.546258 -2.94348e-18)
(0.762214 -0.538513 1.06117e-17)
(0.775672 -0.527482 2.73443e-18)
(0.785968 -0.516791 -1.28202e-17)
(0.795231 -0.504872 4.78223e-18)
(0.704449 -0.545676 2.8417e-19)
(0.725435 -0.552026 -1.56911e-18)
(0.744815 -0.554504 -5.73088e-19)
(0.762733 -0.553365 -4.69601e-18)
(0.779364 -0.548901 -1.23006e-18)
(0.794927 -0.541439 1.19456e-17)
(0.810444 -0.53053 -6.90183e-18)
(0.827855 -0.516726 -2.24049e-18)
(0.841047 -0.50598 4.60865e-18)
(0.751388 -0.549377 1.8597e-18)
(0.77261 -0.553622 -5.14305e-18)
(0.792286 -0.55404 3.82884e-18)
(0.810744 -0.550959 3.25572e-18)
(0.828342 -0.544816 -1.03468e-18)
(0.846029 -0.535579 2.66241e-18)
(0.864528 -0.523775 2.68977e-18)
(0.88309 -0.51534 -8.72422e-18)
(0.820419 -0.554331 -2.63295e-18)
(0.840723 -0.552801 8.31772e-18)
(0.859967 -0.548293 -1.32461e-17)
(0.878807 -0.540977 6.106e-18)
(0.897497 -0.531231 4.6832e-18)
(0.913863 -0.523686 -6.13327e-18)
(0.889339 -0.550942 4.85591e-18)
(0.908753 -0.545097 -8.59254e-19)
(0.927043 -0.536824 8.13183e-18)
(0.942379 -0.52977 -1.09386e-18)
(0.954523 -0.540453 -8.59589e-18)
(0.969152 -0.533775 1.0709e-18)
(0.999423 -0.00211382 -1.36384e-20)
(0.988552 -0.0177022 2.08878e-20)
(0.970897 -0.0366632 2.1949e-20)
(0.946612 -0.061838 -1.1025e-19)
(0.919022 -0.0959615 3.97339e-19)
(0.887583 -0.143365 -2.53277e-19)
(0.859549 -0.204962 1.96251e-19)
(0.834524 -0.286529 2.6615e-19)
(0.827567 -0.377284 -2.53619e-19)
(0.82553 -0.475236 4.65002e-19)
(0.999444 -0.00171622 5.97077e-20)
(0.988457 -0.0165085 -1.71176e-19)
(0.970447 -0.0344381 -1.73845e-20)
(0.945553 -0.0582358 -3.31967e-20)
(0.916729 -0.0904112 2.57689e-19)
(0.883427 -0.13536 2.19916e-19)
(0.851943 -0.193802 -7.17288e-19)
(0.822901 -0.272228 2.41797e-19)
(0.807869 -0.359788 8.44998e-19)
(0.804208 -0.454693 -9.85325e-19)
(0.999461 -0.00122752 3.66337e-20)
(0.988357 -0.01518 5.84261e-20)
(0.969993 -0.0320283 1.77612e-19)
(0.944497 -0.0543881 6.83836e-20)
(0.91446 -0.0845395 -1.386e-19)
(0.879341 -0.126897 -6.03471e-19)
(0.844482 -0.18201 5.25864e-19)
(0.811367 -0.256844 6.64589e-19)
(0.788343 -0.341601 3.16676e-19)
(0.779916 -0.433253 8.86196e-19)
(0.999477 -0.000746153 3.20301e-20)
(0.988271 -0.0138892 -4.62052e-20)
(0.969582 -0.0297251 -1.40707e-19)
(0.943544 -0.0507615 -9.05584e-20)
(0.912399 -0.0790627 -7.94424e-20)
(0.87563 -0.119028 4.02821e-19)
(0.837641 -0.171065 -3.29797e-19)
(0.800622 -0.242406 -3.26029e-19)
(0.769952 -0.32501 1.22503e-18)
(0.754681 -0.414123 -2.43133e-18)
(0.999496 -0.000273549 -1.22843e-19)
(0.988212 -0.0125996 1.72003e-19)
(0.969241 -0.0274063 3.55958e-20)
(0.94273 -0.0470885 4.87786e-20)
(0.910591 -0.0735015 3.50649e-20)
(0.872346 -0.110996 3.80999e-19)
(0.831468 -0.159902 -1.0517e-18)
(0.790712 -0.227556 5.29937e-19)
(0.752862 -0.307883 7.10785e-19)
(0.729662 -0.394136 2.08796e-19)
(0.999517 0.000202991 5.69603e-20)
(0.988175 -0.0112956 3.97863e-20)
(0.968959 -0.0250651 -6.9005e-20)
(0.942039 -0.0433762 -6.90325e-20)
(0.909007 -0.067887 -1.51706e-19)
(0.86944 -0.102863 1.62782e-20)
(0.8259 -0.148604 -2.15384e-19)
(0.781571 -0.212379 8.68618e-19)
(0.737064 -0.290028 3.21013e-19)
(0.705379 -0.373115 -1.40756e-18)
(0.999539 0.000677942 -1.89565e-20)
(0.988158 -0.00998137 -5.19523e-20)
(0.968729 -0.0227103 -1.80717e-19)
(0.941458 -0.039636 3.52856e-19)
(0.907626 -0.0622338 2.70619e-19)
(0.866879 -0.0946457 1.04419e-19)
(0.820896 -0.137186 -4.53531e-19)
(0.773162 -0.196886 1.71759e-20)
(0.722542 -0.271341 -2.15701e-19)
(0.682183 -0.350926 -1.16601e-18)
(0.999563 0.00115044 4.05242e-20)
(0.988157 -0.00866665 -5.83771e-20)
(0.968547 -0.0203469 4.05873e-20)
(0.940976 -0.0358759 7.62995e-20)
(0.906431 -0.0565554 -3.86971e-19)
(0.864632 -0.0863651 -1.28301e-19)
(0.816424 -0.125665 9.59095e-20)
(0.765462 -0.181106 -1.35355e-20)
(0.709274 -0.25182 3.9332e-20)
(0.660336 -0.327517 -8.1419e-19)
(0.999588 0.00161964 -4.54327e-20)
(0.98817 -0.00736005 -6.35841e-20)
(0.968406 -0.0179784 1.21405e-19)
(0.940585 -0.0321016 -4.79079e-20)
(0.905406 -0.05086 3.60768e-20)
(0.862675 -0.0780336 8.34692e-20)
(0.812456 -0.114048 -3.08164e-19)
(0.758456 -0.165061 3.64978e-19)
(0.697238 -0.231502 1.47424e-18)
(0.640032 -0.302874 -1.54499e-18)
(0.999612 0.00208487 -4.96692e-20)
(0.988196 -0.00605593 1.00984e-19)
(0.968305 -0.0156082 3.05369e-20)
(0.940276 -0.0283174 -1.69131e-19)
(0.904541 -0.0451541 1.40885e-19)
(0.860987 -0.0696624 1.05685e-19)
(0.808973 -0.102342 -7.36633e-20)
(0.752138 -0.148779 4.09674e-19)
(0.686406 -0.210452 -9.94634e-19)
(0.621419 -0.277027 2.55464e-19)
(0.940042 -0.0245277 -1.64465e-19)
(0.903825 -0.0394437 -1.15811e-19)
(0.859553 -0.0612629 1.15673e-19)
(0.805954 -0.0905548 -1.80889e-19)
(0.746503 -0.132292 2.28979e-19)
(0.676757 -0.18875 2.8807e-19)
(0.604598 -0.250052 -8.15801e-19)
(0.999513 -0.00820462 0)
(0.995141 -0.0324137 0)
(0.990285 -0.059062 0)
(0.985685 -0.0886734 0)
(0.985462 -0.122579 0)
(0.989464 -0.158551 0)
(1.00167 -0.195923 0)
(1.01993 -0.231181 0)
(1.04541 -0.260111 0)
(1.07566 -0.290669 0)
(0.999508 -0.00777851 0)
(0.994374 -0.0315391 0)
(0.988225 -0.0579901 0)
(0.981671 -0.0879022 0)
(0.979381 -0.122842 0)
(0.980872 -0.160795 0)
(0.99163 -0.201359 0)
(1.00841 -0.240371 0)
(1.03495 -0.273951 0)
(1.06624 -0.309146 0)
(0.999502 -0.00731225 0)
(0.993618 -0.0305269 0)
(0.986151 -0.0566433 0)
(0.977591 -0.086702 0)
(0.973058 -0.122477 0)
(0.971757 -0.162317 0)
(0.980702 -0.206041 0)
(0.995414 -0.24905 0)
(1.02294 -0.287879 0)
(1.05474 -0.328196 0)
(0.999495 -0.00681007 0)
(0.992881 -0.0293875 0)
(0.984083 -0.055037 0)
(0.973492 -0.0850817 0)
(0.966555 -0.121474 0)
(0.962216 -0.163072 0)
(0.968933 -0.209849 0)
(0.980967 -0.257098 0)
(1.00933 -0.30173 0)
(1.04082 -0.347646 0)
(0.999488 -0.00627639 0)
(0.992169 -0.0281323 0)
(0.982044 -0.0531899 0)
(0.969425 -0.0830553 0)
(0.959942 -0.119831 0)
(0.952364 -0.16302 0)
(0.956379 -0.212667 0)
(0.965139 -0.264395 0)
(0.994021 -0.315273 0)
(1.02411 -0.367265 0)
(0.999479 -0.00571568 0)
(0.991488 -0.0267739 0)
(0.980056 -0.0511233 0)
(0.96544 -0.0806421 0)
(0.953297 -0.117561 0)
(0.942326 -0.162123 0)
(0.943114 -0.214387 0)
(0.948053 -0.270791 0)
(0.976868 -0.328166 0)
(1.00419 -0.386724 0)
(0.999469 -0.00513229 0)
(0.990846 -0.0253245 0)
(0.978144 -0.0488592 0)
(0.961586 -0.0778627 0)
(0.946707 -0.114676 0)
(0.932237 -0.160339 0)
(0.92924 -0.214892 0)
(0.92989 -0.276068 0)
(0.957656 -0.339888 0)
(0.980649 -0.405498 0)
(0.999459 -0.0045309 0)
(0.990248 -0.0237973 0)
(0.976334 -0.0464198 0)
(0.957917 -0.0747392 0)
(0.940266 -0.111192 0)
(0.922238 -0.157623 0)
(0.914895 -0.214081 0)
(0.910887 -0.279967 0)
(0.936138 -0.349865 0)
(0.953159 -0.423017 0)
(0.999447 -0.00392284 0)
(0.989704 -0.0222177 0)
(0.974652 -0.0438499 0)
(0.954483 -0.0713361 0)
(0.934075 -0.107207 0)
(0.912468 -0.154078 0)
(0.90025 -0.21212 0)
(0.891296 -0.282599 0)
(0.912018 -0.358301 0)
(0.921677 -0.439891 0)
(0.999436 -0.00328603 0)
(0.989225 -0.0205766 0)
(0.97313 -0.0411587 0)
(0.951337 -0.0676877 0)
(0.928232 -0.102804 0)
(0.903049 -0.149831 0)
(0.885469 -0.209268 0)
(0.871236 -0.284174 0)
(0.884784 -0.365828 0)
(0.88721 -0.456632 0)
(0.999434 -0.00280082 0)
(0.988842 -0.0191031 0)
(0.971841 -0.0386458 0)
(0.948605 -0.0641744 0)
(0.92295 -0.0984099 0)
(0.894266 -0.145262 0)
(0.870989 -0.205623 0)
(0.851071 -0.284074 0)
(0.854568 -0.371048 0)
(0.852568 -0.469518 0)
(1.08936 -0.287618 1.84112e-19)
(1.09701 -0.286146 -2.38062e-18)
(1.08166 -0.306508 2.42062e-18)
(1.09027 -0.30515 1.92038e-18)
(1.1005 -0.303395 2.23245e-19)
(1.10944 -0.301995 2.92459e-18)
(1.11863 -0.300417 4.11681e-19)
(1.07208 -0.326236 -1.66567e-18)
(1.08178 -0.325088 -2.02063e-18)
(1.09336 -0.323458 2.07146e-18)
(1.1035 -0.322165 9.4678e-19)
(1.11388 -0.320638 -5.77773e-19)
(1.06029 -0.346721 -2.81389e-18)
(1.07121 -0.345914 2.56169e-18)
(1.08434 -0.344511 1.78633e-18)
(1.09585 -0.343412 5.84784e-19)
(1.10758 -0.34201 -3.05528e-18)
(1.04591 -0.367843 1.48158e-18)
(1.05821 -0.367555 -8.79026e-19)
(1.07312 -0.366511 -5.25486e-19)
(1.0862 -0.365723 -3.35824e-18)
(1.09947 -0.364544 2.61703e-18)
(1.02852 -0.389445 2.9001e-18)
(1.04236 -0.389915 2.10764e-19)
(1.05934 -0.389397 -2.13093e-18)
(1.07422 -0.389069 -1.27625e-18)
(1.08922 -0.388247 -7.63729e-19)
(1.0077 -0.411303 -4.89768e-18)
(1.0233 -0.412871 1.18794e-18)
(1.04269 -0.413081 2.08768e-18)
(1.05959 -0.413401 3.12367e-18)
(1.07649 -0.413112 2.39313e-18)
(0.983091 -0.433182 3.25982e-18)
(1.00071 -0.436291 -1.07182e-18)
(1.02296 -0.437429 -5.04069e-18)
(1.04202 -0.438639 6.39978e-19)
(1.06087 -0.439126 -3.60588e-18)
(0.954323 -0.455261 1.88811e-19)
(0.974231 -0.460301 2.23043e-19)
(0.999789 -0.462403 5.73932e-18)
(1.02085 -0.464771 -2.36414e-18)
(1.04155 -0.466311 3.1755e-18)
(0.919975 -0.478889 -5.86669e-18)
(0.943177 -0.484954 7.45381e-19)
(0.972314 -0.487902 -2.03786e-18)
(0.994865 -0.491776 3.77197e-18)
(1.01741 -0.494549 -3.7258e-18)
(0.883671 -0.498078 6.69054e-18)
(0.90574 -0.51025 -5.77718e-19)
(0.93649 -0.515664 -1.02033e-18)
(0.960944 -0.521392 -1.60461e-18)
(0.986231 -0.525274 2.89013e-18)
)
;

boundaryField
{
    inlet
    {
        type            uniformFixedValue;
        uniformValue    constant (1 0 0);
        value           uniform (1 0 0);
    }
    outlet
    {
        type            pressureInletOutletVelocity;
        value           nonuniform 0();
    }
    cylinder
    {
        type            fixedValue;
        value           nonuniform 0();
    }
    top
    {
        type            symmetryPlane;
    }
    bottom
    {
        type            symmetryPlane;
    }
    defaultFaces
    {
        type            empty;
    }
    procBoundary6to0
    {
        type            processor;
        value           nonuniform List<vector> 
16
(
(0.999519 -0.00858663 0)
(0.995912 -0.0331415 0)
(0.992311 -0.0598472 0)
(0.989588 -0.0890122 0)
(0.991247 -0.121709 0)
(0.997452 -0.155638 0)
(1.0108 -0.189854 0)
(1.03001 -0.221595 0)
(1.05439 -0.246469 0)
(1.08328 -0.272882 0)
(1.09545 -0.269608 6.4114e-19)
(1.10223 -0.268092 -2.09353e-18)
(1.10604 -0.284342 1.10395e-18)
(1.10604 -0.284342 1.10395e-18)
(1.11394 -0.282898 3.45882e-18)
(1.12208 -0.281317 -9.38538e-19)
)
;
    }
    procBoundary6to1
    {
        type            processor;
        value           nonuniform List<vector> 8((1.12769 -0.298676 1.85153e-18) (1.12409 -0.3189 -2.01162e-18) (1.11911 -0.340335 -1.92015e-19) (1.11248 -0.363015 1.104e-18) (1.10388 -0.386984 -6.91353e-19) (1.09296 -0.412278 -2.36736e-18) (1.0792 -0.438941 -6.89364e-19) (1.06177 -0.46697 3.19507e-18));
    }
    procBoundary6to7
    {
        type            processor;
        value           nonuniform List<vector> 
24
(
(0.494559 -0.446762 -7.05401e-19)
(0.526531 -0.475388 2.67849e-18)
(0.526531 -0.475388 2.67849e-18)
(0.581685 -0.490697 3.88105e-18)
(0.608245 -0.51166 -1.58916e-18)
(0.608245 -0.51166 -1.58916e-18)
(0.657417 -0.520492 -4.43718e-18)
(0.681781 -0.535221 -1.00174e-18)
(0.681781 -0.535221 -1.00174e-18)
(0.728401 -0.541017 -3.45207e-18)
(0.728401 -0.541017 -3.45207e-18)
(0.775083 -0.546599 -2.71209e-18)
(0.798661 -0.552387 4.63625e-18)
(0.798661 -0.552387 4.63625e-18)
(0.846906 -0.554257 9.00221e-18)
(0.868881 -0.554052 7.25975e-18)
(0.868881 -0.554052 7.25975e-18)
(0.916776 -0.552368 -1.90831e-19)
(0.93657 -0.547638 -1.00916e-17)
(0.93657 -0.547638 -1.00916e-17)
(0.980546 -0.542181 -1.70343e-18)
(0.994832 -0.535873 -5.49162e-19)
(1.03977 -0.496013 -3.24961e-19)
(1.01133 -0.527162 -6.09021e-19)
)
;
    }
    procBoundary6to12
    {
        type            processor;
        value           nonuniform List<vector> 
35
(
(0.523115 -0.259026 -1.94767e-18)
(0.450932 -0.337538 2.27407e-18)
(0.47457 -0.327774 -1.83439e-18)
(0.498405 -0.316818 3.59548e-18)
(0.519456 -0.304595 -3.63821e-19)
(0.519456 -0.304595 -3.63821e-19)
(0.374236 -0.403608 -3.89986e-19)
(0.400461 -0.397735 -2.97331e-18)
(0.425897 -0.39042 2.66885e-18)
(0.450547 -0.38174 -3.97689e-18)
(0.450547 -0.38174 -3.97689e-18)
(0.327247 -0.448694 -1.25021e-18)
(0.353523 -0.446934 4.14254e-18)
(0.379518 -0.443572 -1.98496e-19)
(0.379518 -0.443572 -1.98496e-19)
(0.260343 -0.439862 2.18484e-18)
(0.287439 -0.454726 2.70357e-19)
(0.313518 -0.464969 -4.60082e-19)
(0.339133 -0.471401 -3.21561e-18)
(0.339133 -0.471401 -3.21561e-18)
(0.143713 -0.338621 -5.34348e-18)
(0.199257 -0.38692 3.56404e-18)
(0.24421 -0.422738 -1.46082e-18)
(0.24421 -0.422738 -1.46082e-18)
(0.999637 0.00254562 6.23476e-20)
(0.988232 -0.00474951 3.16892e-20)
(0.968237 -0.0132388 3.92773e-21)
(0.968237 -0.0132388 3.92773e-21)
(0.939877 -0.0207363 -2.46805e-19)
(0.903249 -0.0337346 -7.59105e-20)
(0.858359 -0.0528462 3.21027e-19)
(0.803383 -0.0786968 1.56696e-19)
(0.741551 -0.115632 -4.04356e-19)
(0.668268 -0.166478 3.87318e-19)
(0.58963 -0.222053 3.60675e-19)
)
;
    }
    procBoundary6to13
    {
        type            processor;
        value           nonuniform List<vector> 8((0.208702 -0.332953 1.67367e-18) (0.342437 -0.400804 2.35389e-19) (0.342437 -0.400804 2.35389e-19) (0.393881 -0.392246 7.60689e-18) (0.415276 -0.426602 -6.98657e-18) (0.415276 -0.426602 -6.98657e-18) (0.448595 -0.424072 1.77833e-18) (0.448595 -0.424072 1.77833e-18));
    }
}


// ************************************************************************* //
