/*--------------------------------*- C++ -*----------------------------------*\
  =========                 |
  \\      /  F ield         | OpenFOAM: The Open Source CFD Toolbox
   \\    /   O peration     | Website:  https://openfoam.org
    \\  /    A nd           | Version:  7
     \\/     M anipulation  |
\*---------------------------------------------------------------------------*/
FoamFile
{
    version     2.0;
    format      ascii;
    class       surfaceScalarField;
    location    "1.2";
    object      phi;
}
// * * * * * * * * * * * * * * * * * * * * * * * * * * * * * * * * * * * * * //

dimensions      [0 3 -1 0 0 0 0];

internalField   nonuniform List<scalar> 
615
(
0.000349961
-7.10781e-07
0.000349951
-5.96041e-07
0.000349936
-4.91856e-07
0.000349919
-3.98399e-07
0.000349901
-3.15651e-07
0.000349882
-2.43401e-07
0.000349862
-1.81258e-07
0.000349844
-1.28682e-07
0.000349826
-8.50006e-08
0.000349809
-4.94468e-08
0.000349794
-2.11885e-08
0.00034978
6.40735e-10
0.000349768
1.69079e-08
0.000349757
2.84582e-08
0.000349748
3.60926e-08
0.00034974
4.05504e-08
0.000349733
4.24986e-08
0.000349728
4.2525e-08
0.000349723
4.11357e-08
0.000349719
3.87563e-08
0.000349716
3.57361e-08
0.000349713
3.23545e-08
0.000349711
2.88279e-08
0.00034971
2.53187e-08
0.000349709
2.19428e-08
0.000349708
1.87784e-08
0.000349707
1.58729e-08
0.000349706
1.32499e-08
0.000349706
1.0915e-08
0.000349706
8.86059e-09
0.000349705
7.06998e-09
0.000349705
5.52059e-09
0.000349705
4.18637e-09
0.000349705
3.03975e-09
0.000349705
2.05288e-09
0.000349705
1.19856e-09
0.000349706
4.50899e-10
0.000349706
-2.15395e-10
0.000349706
-8.23008e-10
0.000349706
-1.39376e-09
0.000349706
-1.94836e-09
0.000349707
-2.50663e-09
0.000349707
-3.08793e-09
0.000349708
-3.71151e-09
0.000349708
-4.39703e-09
0.000349709
-5.16501e-09
0.000349709
-6.03734e-09
0.00034971
-7.03792e-09
-8.1932e-09
0.000373489
-3.97295e-06
0.000373671
-3.76635e-06
0.000373832
-3.56002e-06
0.000373973
-3.35406e-06
0.000374093
-3.1487e-06
0.000374194
-2.94424e-06
0.000374275
-2.74108e-06
0.00037434
-2.53973e-06
0.000374388
-2.34082e-06
0.00037442
-2.14509e-06
0.00037444
-1.95336e-06
0.000374446
-1.76653e-06
0.000374443
-1.58558e-06
0.00037443
-1.41148e-06
0.00037441
-1.24523e-06
0.000374384
-1.08774e-06
0.000374353
-9.39861e-07
0.00037432
-8.02323e-07
0.000374285
-6.75697e-07
0.000374249
-5.60379e-07
0.000374214
-4.56576e-07
0.00037418
-3.64294e-07
0.000374147
-2.83343e-07
0.000374117
-2.13349e-07
0.00037409
-1.53772e-07
0.000374065
-1.03934e-07
0.000374043
-6.30461e-08
0.000374024
-3.02451e-08
0.000374007
-4.6221e-09
0.000373993
1.47449e-08
0.000373981
2.87613e-08
0.000373972
3.82939e-08
0.000373964
4.41514e-08
0.000373957
4.70703e-08
0.000373952
4.77064e-08
0.000373948
4.66306e-08
0.000373945
4.43284e-08
0.000373942
4.12032e-08
0.00037394
3.75818e-08
0.000373939
3.37217e-08
0.000373938
2.98191e-08
0.000373937
2.60181e-08
0.000373937
2.24186e-08
0.000373936
1.90848e-08
0.000373936
1.60526e-08
0.000373936
1.33358e-08
0.000373936
1.09323e-08
0.000373936
8.82795e-09
0.000373936
7.00116e-09
0.000373936
5.42532e-09
0.000373936
4.0713e-09
0.000373937
2.90908e-09
0.000373937
1.90892e-09
0.000373937
1.04214e-09
0.000373937
2.8167e-10
0.000373937
-3.9909e-10
0.000373937
-1.02325e-09
0.000373938
-1.61373e-09
0.000373938
-2.192e-09
0.000373938
-2.77871e-09
0.000373938
-3.39408e-09
0.000373939
-4.05836e-09
0.000373939
-4.79228e-09
0.00037394
-5.61761e-09
0.00037394
-6.55774e-09
0.000373941
-7.63821e-09
-8.88745e-09
0.000395291
-4.04628e-06
0.000395348
-3.82341e-06
0.00039539
-3.6013e-06
0.000395416
-3.38018e-06
0.000395427
-3.16041e-06
0.000395426
-2.94242e-06
0.000395411
-2.72675e-06
0.000395386
-2.51406e-06
0.00039535
-2.30509e-06
0.000395305
-2.10066e-06
0.000395254
-1.9017e-06
0.000395196
-1.70914e-06
0.000395135
-1.52396e-06
0.00039507
-1.34712e-06
0.000395005
-1.17955e-06
0.000394939
-1.02207e-06
0.000394875
-8.75399e-07
0.000394812
-7.40119e-07
0.000394753
-6.16629e-07
0.000394698
-5.05147e-07
0.000394647
-4.05693e-07
0.000394601
-3.18096e-07
0.00039456
-2.41998e-07
0.000394523
-1.76872e-07
0.000394491
-1.22049e-07
0.000394464
-7.67412e-08
0.000394441
-4.00791e-08
0.000394422
-1.11418e-08
0.000394407
1.10178e-08
0.000394394
2.73362e-08
0.000394384
3.87166e-08
0.000394376
4.601e-08
0.00039437
4.99987e-08
0.000394366
5.13858e-08
0.000394363
5.07896e-08
0.000394361
4.87415e-08
0.00039436
4.56883e-08
0.000394359
4.19964e-08
0.000394358
3.79588e-08
0.000394358
3.38028e-08
0.000394358
2.96986e-08
0.000394359
2.5768e-08
0.000394359
2.20925e-08
0.000394359
1.87216e-08
0.00039436
1.56792e-08
0.00039436
1.29702e-08
0.00039436
1.05853e-08
0.000394361
8.50565e-09
0.000394361
6.70571e-09
0.000394361
5.15641e-09
0.000394362
3.82692e-09
0.000394362
2.68612e-09
0.000394362
1.7036e-09
0.000394362
8.50286e-10
0.000394362
9.90224e-11
0.000394363
-5.77148e-10
0.000394363
-1.20108e-09
0.000394363
-1.79599e-09
0.000394363
-2.38344e-09
0.000394363
-2.9843e-09
0.000394364
-3.61908e-09
0.000394364
-4.30847e-09
0.000394364
-5.07375e-09
0.000394364
-5.93742e-09
0.000394365
-6.92369e-09
0.000394365
-8.05923e-09
-9.37373e-09
0.000412304
-3.97984e-06
0.000412229
-3.74813e-06
0.000412146
-3.51774e-06
0.000412054
-3.28902e-06
0.000411956
-3.06245e-06
0.000411853
-2.83859e-06
0.000411744
-2.61811e-06
0.000411632
-2.40176e-06
0.000411517
-2.19036e-06
0.000411401
-1.98481e-06
0.000411285
-1.78603e-06
0.000411171
-1.59496e-06
0.00041106
-1.41253e-06
0.000410952
-1.23962e-06
0.00041085
-1.07703e-06
0.000410753
-9.25438e-07
0.000410663
-7.85406e-07
0.00041058
-6.57319e-07
0.000410505
-5.41391e-07
0.000410438
-4.37649e-07
0.000410378
-3.45932e-07
0.000410326
-2.65904e-07
0.000410281
-1.97062e-07
0.000410243
-1.38761e-07
0.000410211
-9.02399e-08
0.000410185
-5.06459e-08
0.000410164
-1.90689e-08
0.000410147
5.4089e-09
0.000410134
2.37422e-08
0.000410125
3.68315e-08
0.000410118
4.55401e-08
0.000410113
5.06679e-08
0.00041011
5.29403e-08
0.000410109
5.30012e-08
0.000410108
5.14101e-08
0.000410108
4.86425e-08
0.000410109
4.50932e-08
0.00041011
4.10824e-08
0.000410111
3.68626e-08
0.000410112
3.26268e-08
0.000410113
2.85166e-08
0.000410114
2.46307e-08
0.000410116
2.10325e-08
0.000410116
1.77574e-08
0.000410117
1.48192e-08
0.000410118
1.22152e-08
0.000410119
9.93129e-09
0.000410119
7.94508e-09
0.00041012
6.22939e-09
0.00041012
4.75427e-09
0.000410121
3.48878e-09
0.000410121
2.40215e-09
0.000410121
1.46459e-09
0.000410121
6.47795e-10
0.000410121
-7.49623e-11
0.000410122
-7.28849e-10
0.000410122
-1.337e-09
0.000410122
-1.9216e-09
0.000410122
-2.50375e-09
0.000410122
-3.10392e-09
0.000410122
-3.74237e-09
0.000410122
-4.43963e-09
0.000410122
-5.21698e-09
0.000410123
-6.09703e-09
0.000410123
-7.10423e-09
0.000410123
-8.26563e-09
-9.61138e-09
0.000423487
-3.77649e-06
0.000423283
-3.54486e-06
0.000423081
-3.31508e-06
0.000422879
-3.08763e-06
0.00042268
-2.86308e-06
0.000422483
-2.6421e-06
0.000422291
-2.42544e-06
0.000422103
-2.2139e-06
0.000421921
-2.00834e-06
0.000421746
-1.80966e-06
0.000421578
-1.61874e-06
0.00042142
-1.43645e-06
0.000421271
-1.26363e-06
0.000421132
-1.10102e-06
0.000421005
-9.49262e-07
0.000420888
-8.08864e-07
0.000420783
-6.8019e-07
0.000420689
-5.63442e-07
0.000420606
-4.58647e-07
0.000420534
-3.65658e-07
0.000420472
-2.84166e-07
0.00042042
-2.13702e-07
0.000420377
-1.53664e-07
0.000420341
-1.03339e-07
0.000420313
-6.19221e-08
0.000420291
-2.85534e-08
0.000420274
-2.33884e-09
0.000420262
0.000420254
0.000420248
0.000420245
0.000420244
0.000420244
0.000420245
0.000420247
0.00042025
0.000420252
0.000420255
0.000420257
0.000420259
0.000420261
0.000420263
0.000420265
0.000420266
0.000420268
0.000420269
0.000420269
0.00042027
0.000420271
0.000420271
0.000420272
0.000420272
0.000420272
0.000420272
0.000420273
0.000420273
0.000420273
0.000420273
0.000420273
0.000420273
0.000420273
0.000420273
0.000420273
0.000420273
0.000420273
0.000420273
0.000427774
0.000427458
0.000427152
0.000426857
0.000426573
0.000426301
0.000426041
0.000425795
0.000425562
0.000425345
0.000425142
0.000424954
0.000424782
0.000424626
0.000424486
0.000424361
0.000424251
0.000424155
0.000424073
0.000424003
0.000423945
0.000423898
0.00042386
0.00042383
0.000423808
0.000423791
)
;

boundaryField
{
    inlet
    {
        type            calculated;
        value           nonuniform 0();
    }
    outlet
    {
        type            calculated;
        value           nonuniform 0();
    }
    wall
    {
        type            calculated;
        value           nonuniform 0();
    }
    wedge1
    {
        type            wedge;
        value           nonuniform List<scalar> 
344
(
-7.88868e-16
3.57751e-16
4.65596e-17
2.96313e-16
3.46928e-17
-7.49153e-16
3.38461e-16
4.37984e-17
2.78379e-16
3.23183e-17
-7.094e-16
3.19283e-16
4.09471e-17
2.60603e-16
3.00216e-17
-6.69643e-16
3.00217e-16
3.82873e-17
2.4303e-16
2.77117e-17
-6.29838e-16
2.81238e-16
3.57425e-17
2.25647e-16
2.54962e-17
-5.90247e-16
2.62348e-16
3.30824e-17
2.08492e-16
2.32426e-17
-5.50735e-16
2.43617e-16
3.04416e-17
1.91633e-16
2.11088e-17
-5.1156e-16
2.25133e-16
2.78875e-17
1.75171e-16
1.89974e-17
-4.72662e-16
2.06915e-16
2.54936e-17
1.59124e-16
1.69987e-17
-4.34365e-16
1.89015e-16
2.30199e-17
1.43542e-16
1.49941e-17
-3.96642e-16
1.71533e-16
2.06097e-17
1.28525e-16
1.31395e-17
-3.59843e-16
1.54595e-16
1.83242e-17
1.14185e-16
1.13469e-17
-3.23989e-16
1.3823e-16
1.6244e-17
1.00532e-16
9.70001e-18
-2.89469e-16
1.22481e-16
1.40971e-17
8.75907e-17
8.0606e-18
-2.56298e-16
1.07563e-16
1.21789e-17
7.55505e-17
6.63255e-18
-2.24783e-16
9.35613e-17
1.03352e-17
6.44255e-17
5.35374e-18
-1.95083e-16
8.03457e-17
8.61166e-18
5.40714e-17
4.06949e-18
-1.67356e-16
6.81005e-17
7.0308e-18
4.46417e-17
2.9083e-18
7.64935e-17
-1.41728e-16
5.68859e-17
5.56828e-18
3.61473e-17
1.86282e-18
6.44979e-17
-1.18287e-16
4.67147e-17
4.2569e-18
2.85657e-17
9.27188e-19
5.3557e-17
-9.70939e-17
3.76007e-17
3.07987e-18
2.19029e-17
9.91059e-20
4.3695e-17
-7.8171e-17
2.95331e-17
2.04967e-18
1.6111e-17
-6.15264e-19
3.49068e-17
-6.15096e-17
2.24834e-17
1.15387e-18
1.11548e-17
-1.2272e-18
2.71907e-17
-4.70442e-17
1.64091e-17
3.76508e-19
6.97196e-18
-1.74401e-18
2.05008e-17
-3.4679e-17
1.1255e-17
-2.82711e-19
3.50949e-18
-2.18428e-18
1.48351e-17
-2.4243e-17
6.98639e-18
-8.054e-19
6.98129e-19
-2.53881e-18
9.97802e-18
-1.56983e-17
3.40529e-18
-1.27599e-18
-1.5684e-18
-2.81563e-18
6.11117e-18
-8.8329e-18
5.97028e-19
-1.76072e-18
-3.29198e-18
3.06279e-18
-3.39797e-18
-1.54159e-18
-2.00269e-18
-4.52214e-18
4.7956e-19
8.31214e-19
-3.14869e-18
-2.08834e-18
-5.39086e-18
-1.28693e-18
3.84535e-18
-4.31177e-18
-2.25497e-18
-5.95943e-18
-2.76836e-18
6.00684e-18
-5.08681e-18
-2.3774e-18
-6.27274e-18
-3.55576e-18
7.33613e-18
-5.50856e-18
-2.41751e-18
-6.34351e-18
-4.32194e-18
8.04985e-18
-5.72587e-18
-2.35575e-18
-6.305e-18
-4.62151e-18
8.29828e-18
-5.70644e-18
-2.36822e-18
-6.09741e-18
-4.70673e-18
8.17226e-18
-5.58891e-18
-2.27495e-18
-5.84973e-18
-4.63326e-18
7.78314e-18
-5.32699e-18
-2.25913e-18
-5.50383e-18
-4.44106e-18
7.21809e-18
-5.02781e-18
-2.14215e-18
-5.16677e-18
-4.17142e-18
6.545e-18
-4.65521e-18
-2.10794e-18
-4.77311e-18
-3.85686e-18
5.81553e-18
-4.30062e-18
-1.97917e-18
-4.41671e-18
-3.51676e-18
5.06645e-18
-3.89512e-18
-1.93477e-18
-4.01949e-18
-3.17087e-18
4.32855e-18
-3.54206e-18
-1.7923e-18
-3.67775e-18
-2.82693e-18
3.64061e-18
-3.16752e-18
-1.74174e-18
-3.31253e-18
-2.51945e-18
2.98294e-18
-2.86018e-18
-1.61118e-18
-3.02202e-18
-2.18591e-18
2.43935e-18
-2.51907e-18
-1.55062e-18
-2.70601e-18
-1.9731e-18
1.85376e-18
-2.32975e-18
-1.42188e-18
-2.47692e-18
-1.89396e-18
1.23671e-18
-2.13864e-18
-1.5267e-18
-2.27563e-18
-1.65765e-18
8.59409e-19
-1.89754e-18
-1.44043e-18
-2.03248e-18
-1.46121e-18
5.23703e-19
-1.71961e-18
-1.29778e-18
-1.85348e-18
-1.29392e-18
2.31534e-19
-1.52246e-18
-1.25804e-18
-1.64971e-18
-1.14348e-18
-8.44707e-21
-1.37022e-18
-1.13392e-18
-1.50169e-18
-1.01069e-18
-2.01856e-19
-1.20592e-18
-1.09124e-18
-1.31556e-18
-8.92568e-19
-3.73898e-19
-1.07772e-18
-9.61183e-19
-1.17841e-18
-7.81557e-19
-5.00409e-19
-9.26172e-19
-9.2768e-19
-1.02125e-18
-6.88686e-19
-6.20792e-19
-8.37209e-19
-8.0973e-19
-9.07077e-19
-6.02778e-19
-7.20027e-19
-6.99615e-19
-7.7285e-19
-7.53877e-19
-5.14039e-19
-7.86102e-19
-6.03402e-19
-6.55126e-19
-6.52178e-19
-4.31466e-19
-8.51174e-19
-4.81134e-19
-6.16582e-19
-5.16729e-19
-3.65321e-19
-9.32706e-19
-3.91828e-19
-5.0478e-19
-4.12064e-19
-2.9725e-19
-9.98666e-19
-2.81757e-19
-4.81032e-19
-2.7679e-19
-2.25033e-19
-1.07949e-18
-2.07614e-19
-3.65055e-19
-1.83767e-19
-1.5035e-19
-1.16835e-18
-8.54997e-20
-3.38797e-19
-3.5778e-20
-7.97926e-20
-1.27044e-18
1.13909e-21
-2.31259e-19
6.748e-20
5.69556e-21
-1.37437e-18
1.3615e-19
-2.02217e-19
2.25199e-19
9.5651e-20
-1.50094e-18
2.52147e-19
-7.96729e-20
3.48643e-19
2.18057e-19
-1.66411e-18
4.02311e-19
-5.70382e-20
5.08472e-19
3.29197e-19
-1.84336e-18
5.22035e-19
4.55176e-20
6.45808e-19
)
;
    }
    wedge2
    {
        type            wedge;
        value           nonuniform List<scalar> 
344
(
-7.88742e-16
3.59051e-16
4.90795e-17
3.00168e-16
3.99736e-17
-7.48834e-16
3.39972e-16
4.64136e-17
2.82361e-16
3.76357e-17
-7.08978e-16
3.2087e-16
4.38698e-17
2.64639e-16
3.52638e-17
-6.6917e-16
3.01774e-16
4.11586e-17
2.47022e-16
3.29593e-17
-6.29512e-16
2.82758e-16
3.83801e-17
2.29606e-16
3.06275e-17
-5.89835e-16
2.63885e-16
3.57666e-17
2.12446e-16
2.84158e-17
-5.50411e-16
2.45172e-16
3.32014e-17
1.95587e-16
2.6182e-17
-5.1116e-16
2.26633e-16
3.06298e-17
1.79046e-16
2.40407e-17
-4.72369e-16
2.08373e-16
2.80093e-17
1.62939e-16
2.19194e-17
-4.33986e-16
1.90482e-16
2.55889e-17
1.47354e-16
1.9955e-17
-3.96354e-16
1.73013e-16
2.32512e-17
1.32334e-16
1.80089e-17
-3.59476e-16
1.56009e-16
2.09533e-17
1.17906e-16
1.61866e-17
-3.23713e-16
1.39616e-16
1.86514e-17
1.04198e-16
1.44199e-17
-2.89075e-16
1.23967e-16
1.66259e-17
9.13116e-17
1.28608e-17
-2.55947e-16
1.09016e-16
1.46065e-17
7.91647e-17
1.13157e-17
-2.24415e-16
9.48424e-17
1.27658e-17
6.7844e-17
9.85864e-18
-1.94678e-16
8.17109e-17
1.10731e-17
5.7556e-17
8.64633e-18
-1.66897e-16
6.9556e-17
9.51761e-18
4.81938e-17
7.55336e-18
7.5969e-17
-1.41207e-16
5.84051e-17
8.13079e-18
3.97637e-17
6.58573e-18
6.40347e-17
-1.17715e-16
4.83007e-17
6.88246e-18
3.2277e-17
5.74445e-18
5.31528e-17
-9.6475e-17
3.92489e-17
5.78769e-18
2.56894e-17
5.02386e-18
4.33522e-17
-7.75033e-17
3.12452e-17
4.82759e-18
1.99844e-17
4.40693e-18
3.46503e-17
-6.07658e-17
2.42684e-17
4.00406e-18
1.51098e-17
3.89159e-18
2.70209e-17
-4.62085e-17
1.82799e-17
3.31884e-18
1.10211e-17
3.46983e-18
2.04443e-17
-3.37383e-17
1.32257e-17
2.75486e-18
7.64871e-18
3.14351e-18
1.48233e-17
-2.32767e-17
9.00887e-18
2.27401e-18
4.92817e-18
2.88576e-18
1.02453e-17
-1.45594e-17
5.67802e-18
1.93932e-18
2.82546e-18
2.68658e-18
6.37149e-18
-7.48026e-18
2.9873e-18
1.79475e-18
1.20006e-18
3.22449e-18
-1.91832e-18
8.73834e-19
1.56097e-18
-3.9109e-20
9.73402e-19
2.26138e-18
-6.911e-19
1.3019e-18
-8.95045e-19
-9.09844e-19
5.43002e-18
-1.78215e-18
1.23425e-18
-1.43347e-18
-2.06788e-18
7.5745e-18
-2.4971e-18
1.213e-18
-1.72632e-18
-3.07582e-18
9.00241e-18
-2.94356e-18
1.1824e-18
-1.86593e-18
-3.41631e-18
9.79841e-18
-3.10142e-18
1.10597e-18
-1.81165e-18
-3.67412e-18
1.00822e-17
-3.11674e-18
1.14707e-18
-1.70302e-18
-3.7214e-18
9.99933e-18
-2.94926e-18
1.1126e-18
-1.47844e-18
-3.61034e-18
9.64079e-18
-2.72835e-18
1.17694e-18
-1.25156e-18
-3.39222e-18
9.08834e-18
-2.41546e-18
1.15234e-18
-9.60023e-19
-3.10121e-18
8.41195e-18
-2.10191e-18
1.21724e-18
-7.04164e-19
-2.76548e-18
7.66935e-18
-1.73935e-18
1.18852e-18
-4.1654e-19
-2.41314e-18
6.90789e-18
-1.42924e-18
1.24225e-18
-1.94412e-19
-2.06036e-18
6.15923e-18
-1.09178e-18
1.19267e-18
4.54577e-20
-1.72548e-18
5.42859e-18
-8.17016e-19
1.22873e-18
2.1595e-19
-1.3919e-18
4.76469e-18
-5.2629e-19
1.17697e-18
4.10984e-19
-1.13344e-18
4.10079e-18
-3.25846e-19
1.18748e-18
5.29052e-19
-8.07946e-19
3.59824e-18
-3.17385e-20
1.12172e-18
6.83538e-19
-4.08977e-19
3.25463e-18
2.03464e-19
1.28171e-18
8.17831e-19
-2.22211e-19
2.78711e-18
3.34555e-19
1.24362e-18
8.65842e-19
-4.92426e-20
2.38854e-18
4.78869e-19
1.14238e-18
9.37817e-19
1.03406e-19
2.04721e-18
5.58925e-19
1.13837e-18
9.49333e-19
2.28403e-19
1.7433e-18
6.44218e-19
1.04466e-18
9.85581e-19
3.31972e-19
1.47082e-18
6.83116e-19
1.02817e-18
9.5724e-19
4.16647e-19
1.24355e-18
7.2914e-19
9.2042e-19
9.55797e-19
4.80294e-19
1.02601e-18
7.27855e-19
9.06386e-19
9.16403e-19
5.39137e-19
8.46891e-19
7.70047e-19
8.05301e-19
9.05945e-19
5.86931e-19
6.81411e-19
7.48966e-19
7.83703e-19
8.4602e-19
6.18515e-19
5.08007e-19
7.58777e-19
6.79755e-19
8.30555e-19
6.47192e-19
3.50102e-19
7.35996e-19
6.54516e-19
7.77464e-19
6.87333e-19
2.16982e-19
7.43278e-19
5.55439e-19
7.54264e-19
7.24389e-19
6.87386e-20
7.30432e-19
5.44997e-19
7.0253e-19
7.59926e-19
-7.17367e-20
7.57566e-19
4.42555e-19
6.97906e-19
7.99283e-19
-2.18811e-19
7.44182e-19
4.31418e-19
6.46113e-19
8.52758e-19
-3.74871e-19
7.7719e-19
3.40072e-19
6.49822e-19
9.05085e-19
-5.59202e-19
7.76377e-19
3.29899e-19
6.12979e-19
9.70867e-19
-7.5943e-19
8.12892e-19
2.28074e-19
6.27703e-19
1.02626e-18
-9.7062e-19
8.37832e-19
2.30159e-19
6.27095e-19
1.11994e-18
-1.22339e-18
9.20453e-19
1.55214e-19
6.74189e-19
)
;
    }
    axis
    {
        type            empty;
        value           nonuniform 0();
    }
    procBoundary13to7
    {
        type            processor;
        value           nonuniform List<scalar> 
68
(
7.1633e-07
6.06623e-07
5.06183e-07
4.15321e-07
3.34165e-07
2.62655e-07
2.00556e-07
1.47469e-07
1.02861e-07
6.60849e-08
3.64162e-08
1.30792e-08
-4.72224e-09
-1.77755e-08
-2.68398e-08
-3.26257e-08
-3.57829e-08
-3.68905e-08
-3.64535e-08
-3.49014e-08
-3.25912e-08
-2.9812e-08
-2.67917e-08
-2.3704e-08
-2.06764e-08
-1.77976e-08
-1.51248e-08
-1.26905e-08
-1.05081e-08
-8.57651e-09
-6.88492e-09
-5.4156e-09
-4.14664e-09
-3.05394e-09
-2.11259e-09
-1.29786e-09
-5.85933e-10
4.61747e-11
6.20291e-10
1.15613e-09
1.67312e-09
2.18971e-09
2.72382e-09
3.29324e-09
3.91604e-09
4.61099e-09
5.39804e-09
6.29889e-09
7.33748e-09
3.76851e-06
3.58371e-06
3.39876e-06
3.2137e-06
3.02861e-06
2.84367e-06
2.65914e-06
2.47539e-06
2.29291e-06
2.1123e-06
1.93428e-06
1.75965e-06
1.58933e-06
1.42426e-06
1.26543e-06
1.11379e-06
9.7028e-07
-0.000349967
8.35709e-07
)
;
    }
    procBoundary13to12
    {
        type            processor;
        value           nonuniform List<scalar> 4(-0.000373284 -0.000395218 -0.000412371 -0.00042369);
    }
    procBoundary13to14
    {
        type            processor;
        value           nonuniform List<scalar> 5(0.000349711 0.000373941 0.000394366 0.000410123 0.000420273);
    }
    procBoundary13to18
    {
        type            processor;
        value           uniform -0.0004281;
    }
    procBoundary13to19
    {
        type            processor;
        value           nonuniform List<scalar> 
68
(
1.7617e-08
3.21986e-08
4.22472e-08
4.85495e-08
5.18261e-08
5.27224e-08
5.18048e-08
4.95601e-08
4.63981e-08
4.26553e-08
3.86014e-08
3.44468e-08
3.03498e-08
2.64245e-08
2.27481e-08
1.93681e-08
1.63084e-08
1.35748e-08
1.11598e-08
9.04626e-09
7.21099e-09
5.62688e-09
4.2649e-09
3.09551e-09
2.08961e-09
1.21922e-09
4.57844e-10
-2.19573e-10
-8.36436e-10
-1.41469e-09
-1.97517e-09
-2.53787e-09
-3.12231e-09
-3.74794e-09
-4.4346e-09
-5.20296e-09
-6.07514e-09
-7.07513e-09
-8.22964e-09
-9.56836e-09
-3.45076e-06
-3.22882e-06
-3.00918e-06
-2.79239e-06
-2.57909e-06
-2.37002e-06
-2.16593e-06
-1.96764e-06
-1.77598e-06
-1.59179e-06
-1.41587e-06
-1.24898e-06
-1.09181e-06
-9.44928e-07
-8.08814e-07
-6.83796e-07
-5.70058e-07
-4.6763e-07
-3.76386e-07
-2.96051e-07
-2.26208e-07
-1.66316e-07
-1.1573e-07
-7.37222e-08
-3.95064e-08
-1.22613e-08
0.00042378
8.84085e-09
)
;
    }
}


// ************************************************************************* //
