0.228072 	0.456831 	-2.0895e-18 	1.09915 	-0.0349882 	8.8947e-17
0.230412 	0.461517 	-1.77843e-18 	1.09942 	-0.033535 	8.95976e-17
0.233163 	0.467027 	-1.07757e-18 	1.07786 	-0.0323554 	-9.75579e-18
0.237751 	0.476218 	-9.40578e-19 	0.979214 	-0.0266223 	1.0247e-16
0.240091 	0.480904 	-2.35173e-18 	0.969775 	-0.0248571 	1.03208e-16
0.242521 	0.485771 	-2.6337e-18 	0.697731 	-0.0110795 	9.2227e-17
0.247199 	0.495143 	-1.58264e-18 	0.235514 	0.000829628 	3.78871e-17
