/*--------------------------------*- C++ -*----------------------------------*\
  =========                 |
  \\      /  F ield         | OpenFOAM: The Open Source CFD Toolbox
   \\    /   O peration     | Website:  https://openfoam.org
    \\  /    A nd           | Version:  7
     \\/     M anipulation  |
\*---------------------------------------------------------------------------*/
FoamFile
{
    version     2.0;
    format      ascii;
    class       volVectorField;
    location    "5";
    object      U;
}
// * * * * * * * * * * * * * * * * * * * * * * * * * * * * * * * * * * * * * //

dimensions      [0 1 -1 0 0 0 0];

internalField   nonuniform List<vector> 
344
(
(1.23818 -0.075603 -3.15694e-15)
(1.25278 -0.0742425 -3.08295e-15)
(1.26686 -0.0727193 -3.20506e-15)
(1.28041 -0.071073 -3.14127e-15)
(1.29343 -0.0693374 -3.12047e-15)
(1.3059 -0.0675415 -3.06949e-15)
(1.31784 -0.0657096 -2.9965e-15)
(1.32925 -0.063862 -2.93215e-15)
(1.34015 -0.0620157 -2.87055e-15)
(1.35055 -0.0601842 -2.85654e-15)
(1.36047 -0.0583785 -2.66077e-15)
(1.36993 -0.0566074 -2.4983e-15)
(1.37895 -0.0548774 -2.39793e-15)
(1.38754 -0.0531936 -2.28008e-15)
(1.39572 -0.0515596 -2.21335e-15)
(1.40352 -0.0499778 -2.15514e-15)
(1.41096 -0.0484497 -2.12791e-15)
(1.41805 -0.0469758 -2.05477e-15)
(1.42481 -0.0455561 -2.01877e-15)
(1.43126 -0.0441902 -1.99028e-15)
(1.43742 -0.0428771 -1.90423e-15)
(1.4433 -0.0416155 -1.82564e-15)
(1.44892 -0.0404041 -1.77646e-15)
(1.45429 -0.0392411 -1.676e-15)
(1.45943 -0.0381248 -1.65376e-15)
(1.46434 -0.0370534 -1.58255e-15)
(1.46905 -0.0360251 -1.55818e-15)
(1.47355 -0.0350379 -1.47583e-15)
(1.47788 -0.03409 -1.48171e-15)
(1.48202 -0.0331796 -1.46932e-15)
(1.486 -0.032305 -1.39873e-15)
(1.48982 -0.0314644 -1.31817e-15)
(1.49349 -0.0306561 -1.29272e-15)
(1.49702 -0.0298786 -1.26319e-15)
(1.50041 -0.0291303 -1.16438e-15)
(1.50368 -0.0284098 -1.07173e-15)
(1.50683 -0.0277158 -1.00199e-15)
(1.50986 -0.0270469 -9.30317e-16)
(1.51278 -0.0264019 -1.0112e-15)
(1.51561 -0.0257795 -1.02337e-15)
(1.51833 -0.0251788 -9.97988e-16)
(1.52096 -0.0245987 -9.36559e-16)
(1.5235 -0.0240381 -9.44493e-16)
(1.52595 -0.0234962 -8.63698e-16)
(1.52833 -0.0229721 -8.34451e-16)
(1.53062 -0.022465 -7.57692e-16)
(1.53285 -0.021974 -7.10933e-16)
(1.535 -0.0214984 -6.88138e-16)
(1.53709 -0.0210377 -5.92086e-16)
(1.00028 -0.00580403 3.02164e-17)
(1.00283 -0.0174727 -2.53766e-16)
(1.00829 -0.028828 -5.63854e-16)
(1.01648 -0.0395117 -1.18601e-15)
(1.02701 -0.0492686 -1.42524e-15)
(1.03952 -0.0579351 -1.86371e-15)
(1.05369 -0.0654237 -1.96097e-15)
(1.06916 -0.0717133 -2.57979e-15)
(1.0856 -0.0768341 -3.03392e-15)
(1.10272 -0.0808529 -2.71648e-15)
(1.12024 -0.0838584 -3.06505e-15)
(1.13793 -0.0859516 -2.9485e-15)
(1.1556 -0.0872378 -2.8291e-15)
(1.17308 -0.0878213 -2.69157e-15)
(1.19023 -0.0878021 -3.19697e-15)
(1.20694 -0.0872734 -2.95532e-15)
(1.22315 -0.0863209 -2.69389e-15)
(1.23877 -0.0850217 -3.17917e-15)
(1.25377 -0.0834445 -2.9603e-15)
(1.26813 -0.0816499 -2.71498e-15)
(1.28182 -0.0796904 -3.1933e-15)
(1.29485 -0.0776114 -3.01136e-15)
(1.30721 -0.0754515 -2.77442e-15)
(1.31894 -0.0732431 -2.66967e-15)
(1.33003 -0.0710135 -2.54281e-15)
(1.34052 -0.0687848 -2.4866e-15)
(1.35042 -0.0665752 -2.3646e-15)
(1.35977 -0.0643993 -2.3517e-15)
(1.36859 -0.0622682 -2.13337e-15)
(1.3769 -0.0601907 -1.91331e-15)
(1.38475 -0.0581732 -1.79861e-15)
(1.39215 -0.0562202 -1.67214e-15)
(1.39912 -0.0543347 -1.57698e-15)
(1.40571 -0.0525183 -1.51347e-15)
(1.41192 -0.0507717 -1.42024e-15)
(1.41779 -0.0490947 -1.31521e-15)
(1.42333 -0.0474864 -1.25041e-15)
(1.42857 -0.0459455 -1.18958e-15)
(1.43352 -0.0444701 -1.10057e-15)
(1.4382 -0.0430581 -1.02052e-15)
(1.44264 -0.0417074 -9.75389e-16)
(1.44685 -0.0404155 -8.60864e-16)
(1.45083 -0.03918 -7.8772e-16)
(1.45462 -0.0379983 -7.10191e-16)
(1.45821 -0.036868 -6.91648e-16)
(1.46162 -0.0357865 -5.18925e-16)
(1.46487 -0.0347514 -9.50528e-16)
(1.46796 -0.0337605 -7.13371e-16)
(1.4709 -0.0328115 -5.36963e-16)
(1.4737 -0.0319021 -3.97087e-16)
(1.47638 -0.0310303 -3.38211e-16)
(1.47893 -0.0301942 -2.40185e-16)
(1.48137 -0.0293918 -1.73698e-16)
(1.4837 -0.0286213 -1.06466e-16)
(1.48593 -0.0278812 -3.68565e-17)
(1.48806 -0.0271697 1.05641e-16)
(1.4901 -0.0264854 4.0211e-17)
(1.49206 -0.0258269 7.60567e-17)
(1.49394 -0.0251928 1.44658e-16)
(1.49574 -0.024582 1.14649e-16)
(1.49747 -0.0239931 1.5995e-16)
(1.49913 -0.0234252 2.57206e-16)
(1.50073 -0.0228771 2.842e-16)
(1.50227 -0.0223479 3.30548e-16)
(1.50375 -0.0218367 3.91594e-16)
(1.50518 -0.0213426 4.33814e-16)
(1.50655 -0.0208649 5.48248e-16)
(1.00032 -0.006782 1.95412e-17)
(1.00326 -0.020439 -5.82739e-16)
(1.00957 -0.0336838 -1.25342e-15)
(1.01901 -0.0460535 -1.78546e-15)
(1.03106 -0.0572385 -1.70575e-15)
(1.04529 -0.0670521 -2.21779e-15)
(1.06126 -0.0754063 -1.98024e-15)
(1.07855 -0.0822961 -2.11106e-15)
(1.09675 -0.0877773 -2.12375e-15)
(1.11548 -0.0919457 -2.11468e-15)
(1.13444 -0.0949206 -2.05485e-15)
(1.15335 -0.0968326 -2.61232e-15)
(1.17198 -0.0978152 -2.40521e-15)
(1.19016 -0.0979987 -2.23737e-15)
(1.20775 -0.0975065 -2.22291e-15)
(1.22463 -0.096453 -2.20008e-15)
(1.24075 -0.0949417 -2.04263e-15)
(1.25605 -0.0930654 -2.21001e-15)
(1.27052 -0.0909057 -2.19043e-15)
(1.28414 -0.0885334 -2.09427e-15)
(1.29692 -0.0860092 -2.21365e-15)
(1.30889 -0.0833847 -2.22044e-15)
(1.32008 -0.080703 -2.07838e-15)
(1.33051 -0.0779997 -2.08292e-15)
(1.34023 -0.0753037 -2.01741e-15)
(1.34927 -0.0726383 -1.93229e-15)
(1.35768 -0.0700217 -1.75905e-15)
(1.36549 -0.0674681 -1.75483e-15)
(1.37274 -0.0649879 -1.13254e-15)
(1.37948 -0.0625887 -1.10581e-15)
(1.38574 -0.0602755 -1.03868e-15)
(1.39155 -0.0580515 -9.18628e-16)
(1.39695 -0.0559179 -8.06023e-16)
(1.40197 -0.053875 -7.14881e-16)
(1.40664 -0.0519218 -6.24708e-16)
(1.41098 -0.0500567 -5.42671e-16)
(1.41503 -0.0482773 -4.70945e-16)
(1.41879 -0.0465808 -3.83543e-16)
(1.4223 -0.0449642 -2.5323e-16)
(1.42557 -0.0434243 -1.71147e-16)
(1.42863 -0.0419577 -1.06303e-16)
(1.43148 -0.0405608 2.61853e-17)
(1.43415 -0.0392303 8.17511e-17)
(1.43665 -0.0379628 1.83092e-16)
(1.43898 -0.036755 2.59719e-16)
(1.44117 -0.0356037 3.57729e-16)
(1.44323 -0.0345057 4.41756e-16)
(1.44515 -0.0334582 5.30199e-16)
(1.44696 -0.0324582 6.11725e-16)
(1.44866 -0.0315032 7.05453e-16)
(1.45026 -0.0305905 8.00795e-16)
(1.45177 -0.0297178 8.55023e-16)
(1.45319 -0.0288828 9.57374e-16)
(1.45453 -0.0280834 1.00842e-15)
(1.45579 -0.0273175 1.11222e-15)
(1.45698 -0.0265833 1.2542e-15)
(1.45811 -0.025879 8.56083e-16)
(1.45918 -0.0252029 1.016e-15)
(1.46018 -0.0245535 1.13973e-15)
(1.46114 -0.0239294 1.20534e-15)
(1.46204 -0.0233292 1.24106e-15)
(1.4629 -0.0227516 1.33504e-15)
(1.46371 -0.0221955 1.43248e-15)
(1.46448 -0.0216597 1.49001e-15)
(1.46522 -0.0211431 1.55332e-15)
(1.46591 -0.0206449 1.63673e-15)
(1.46657 -0.020164 1.70304e-15)
(1.00037 -0.00796305 3.27988e-17)
(1.00384 -0.0240446 -2.98861e-16)
(1.0113 -0.0395614 -1.21971e-15)
(1.02241 -0.053918 -1.5354e-15)
(1.03649 -0.0667419 -1.53688e-15)
(1.05297 -0.0778179 -1.78178e-15)
(1.07126 -0.0870614 -1.76503e-15)
(1.09081 -0.0944924 -1.74447e-15)
(1.1111 -0.100204 -1.68248e-15)
(1.13167 -0.104334 -1.60999e-15)
(1.15212 -0.107046 -1.34446e-15)
(1.17215 -0.108516 -1.58786e-15)
(1.19151 -0.108918 -1.6226e-15)
(1.21002 -0.108421 -1.576e-15)
(1.22755 -0.107181 -1.52232e-15)
(1.24403 -0.105343 -1.46831e-15)
(1.25941 -0.103035 -1.28184e-15)
(1.27368 -0.100367 -1.73575e-15)
(1.28687 -0.0974366 -1.5213e-15)
(1.29901 -0.0943255 -1.3373e-15)
(1.31013 -0.091102 -1.74333e-15)
(1.32031 -0.0878224 -1.5166e-15)
(1.3296 -0.0845325 -1.28419e-15)
(1.33805 -0.0812687 -1.63875e-15)
(1.34574 -0.0780595 -1.36914e-15)
(1.35272 -0.0749269 -1.18386e-15)
(1.35904 -0.0718871 -9.97226e-16)
(1.36478 -0.0689515 -9.00291e-16)
(1.36997 -0.0661281 -5.43762e-16)
(1.37467 -0.0634213 -3.43844e-16)
(1.37892 -0.0608335 -1.94493e-16)
(1.38276 -0.0583648 -6.73404e-17)
(1.38624 -0.0560139 7.17425e-17)
(1.38938 -0.0537785 1.83162e-16)
(1.39221 -0.0516552 2.89424e-16)
(1.39477 -0.0496401 3.73766e-16)
(1.39708 -0.0477288 4.88601e-16)
(1.39917 -0.0459167 5.87217e-16)
(1.40105 -0.0441991 7.30521e-16)
(1.40275 -0.0425711 8.38335e-16)
(1.40428 -0.0410279 9.49044e-16)
(1.40566 -0.039565 1.02813e-15)
(1.4069 -0.0381776 1.14419e-15)
(1.40801 -0.0368615 1.20084e-15)
(1.40901 -0.0356124 1.29389e-15)
(1.40991 -0.0344262 1.343e-15)
(1.41071 -0.0332993 1.86353e-15)
(1.41143 -0.0322279 1.79073e-15)
(1.41207 -0.0312087 1.85148e-15)
(1.41264 -0.0302385 1.92123e-15)
(1.41315 -0.0293142 1.97735e-15)
(1.41359 -0.0284332 2.01483e-15)
(1.41399 -0.0275926 2.09053e-15)
(1.41433 -0.0267902 2.17403e-15)
(1.41463 -0.0260235 2.24932e-15)
(1.41489 -0.0252904 2.39783e-15)
(1.41511 -0.0245891 2.28447e-15)
(1.4153 -0.0239175 2.29028e-15)
(1.41545 -0.0232739 2.34457e-15)
(1.41558 -0.0226568 2.43788e-15)
(1.41568 -0.0220647 2.47363e-15)
(1.41576 -0.0214961 2.53065e-15)
(1.41581 -0.0209497 2.61377e-15)
(1.41585 -0.0204243 2.73021e-15)
(1.41586 -0.0199188 2.81249e-15)
(1.41586 -0.0194321 2.87187e-15)
(1.41585 -0.0189633 2.97631e-15)
(1.00043 -0.00940639 2.07626e-17)
(1.00463 -0.0285422 -6.78642e-16)
(1.01372 -0.046836 -1.27793e-15)
(1.02714 -0.0635691 -1.7305e-15)
(1.04398 -0.0782916 -1.4391e-15)
(1.06343 -0.0907423 -1.80365e-15)
(1.08467 -0.100843 -1.57065e-15)
(1.10695 -0.108656 -1.35527e-15)
(1.12958 -0.11433 -1.14263e-15)
(1.15197 -0.118075 -9.54705e-16)
(1.17368 -0.120125 -7.75453e-16)
(1.19435 -0.120728 -1.26737e-15)
(1.21377 -0.120125 -1.08934e-15)
(1.23178 -0.11854 -8.87934e-16)
(1.24831 -0.11618 -7.74038e-16)
(1.26335 -0.113226 -6.86658e-16)
(1.27693 -0.109833 -5.48846e-16)
(1.2891 -0.106136 -5.45593e-16)
(1.29996 -0.102242 -5.05518e-16)
(1.30959 -0.0982432 -4.16422e-16)
(1.31809 -0.0942105 -4.4201e-16)
(1.32556 -0.0902006 -4.59456e-16)
(1.3321 -0.0862572 -3.23976e-16)
(1.3378 -0.0824131 -2.98884e-16)
(1.34275 -0.0786921 -2.07313e-16)
(1.34702 -0.0751108 -1.04527e-16)
(1.35069 -0.0716798 5.01332e-17)
(1.35384 -0.0684053 1.18995e-16)
(1.35651 -0.0652896 7.74373e-16)
(1.35877 -0.0623324 8.20582e-16)
(1.36066 -0.0595311 8.82436e-16)
(1.36223 -0.0568818 1.0081e-15)
(1.36351 -0.054379 1.13915e-15)
(1.36454 -0.052017 1.20668e-15)
(1.36535 -0.0497891 1.34885e-15)
(1.36597 -0.0476887 1.44384e-15)
(1.36642 -0.0457089 1.59808e-15)
(1.36672 -0.0438428 1.71966e-15)
(1.36689 -0.0420838 1.82491e-15)
(1.36695 -0.0404252 1.96611e-15)
(1.3669 -0.038861 2.06495e-15)
(1.36677 -0.0373849 2.16818e-15)
(1.36656 -0.0359914 2.29176e-15)
(1.36629 -0.0346751 2.37478e-15)
(1.36596 -0.0334308 2.46448e-15)
(1.36558 -0.0322539 2.563e-15)
(1.36516 -0.0311397 2.73238e-15)
(1.3647 -0.0300843 2.87844e-15)
(1.3642 -0.0290836 2.96085e-15)
(1.36368 -0.028134 3.05875e-15)
(1.36314 -0.0272322 3.14484e-15)
(1.36257 -0.0263751 3.23771e-15)
(1.36199 -0.0255597 3.32995e-15)
(1.3614 -0.0247833 3.41187e-15)
(1.3608 -0.0240435 3.52426e-15)
(1.36018 -0.0233379 3.68084e-15)
(1.35956 -0.0226643 3.29604e-15)
(1.35893 -0.0220209 3.44511e-15)
(1.3583 -0.0214057 3.54084e-15)
(1.35767 -0.020817 3.67454e-15)
(1.35704 -0.0202532 3.74645e-15)
(1.3564 -0.0197129 3.83792e-15)
(1.35577 -0.0191947 3.94197e-15)
(1.35514 -0.0186973 4.05594e-15)
(1.35451 -0.0182196 4.15421e-15)
(1.35388 -0.0177605 4.21842e-15)
(1.35326 -0.0173188 4.32208e-15)
(1.00048 -0.0111537 3.51518e-17)
(1.00572 -0.034282 -5.59183e-16)
(1.01725 -0.0560373 -8.84949e-16)
(1.03396 -0.0756782 -1.15482e-15)
(1.0546 -0.0926073 -8.01672e-16)
(1.07794 -0.106483 -1.12513e-15)
(1.1028 -0.117253 -7.99776e-16)
(1.12809 -0.125056 -6.00719e-16)
(1.15292 -0.130157 -4.40586e-16)
(1.17661 -0.132891 -2.4091e-16)
(1.19869 -0.133622 -1.11216e-17)
(1.21885 -0.132714 -4.81981e-16)
(1.23695 -0.130508 -2.39291e-16)
(1.25296 -0.12731 -4.67862e-17)
(1.26695 -0.123383 1.97299e-17)
(1.27901 -0.118952 1.27422e-16)
(1.28929 -0.114197 3.18916e-16)
(1.29795 -0.109266 2.68799e-16)
(1.30516 -0.104275 3.09109e-16)
(1.31108 -0.0993094 5.13704e-16)
(1.31588 -0.0944372 4.72917e-16)
(1.31968 -0.0897056 5.66794e-16)
(1.32263 -0.0851482 6.66799e-16)
(1.32483 -0.0807868 7.88244e-16)
(1.32641 -0.0766346 9.28079e-16)
(1.32744 -0.0726977 1.09075e-15)
(1.32801 -0.0689771 1.25356e-15)
)
;

boundaryField
{
    inlet
    {
        type            uniformFixedValue;
        uniformValue    constant (1 0 0);
        value           uniform (1 0 0);
    }
    outlet
    {
        type            pressureInletOutletVelocity;
        value           nonuniform 0();
    }
    wall
    {
        type            fixedValue;
        value           nonuniform 0();
    }
    wedge1
    {
        type            wedge;
    }
    wedge2
    {
        type            wedge;
    }
    axis
    {
        type            empty;
    }
    procBoundary12to6
    {
        type            processor;
        value           nonuniform List<vector> 
68
(
(1.22443 -0.0677097 -3.36909e-15)
(1.23898 -0.06667 -3.31701e-15)
(1.25314 -0.0654772 -3.40253e-15)
(1.26687 -0.0641661 -3.37977e-15)
(1.28017 -0.0627662 -3.37723e-15)
(1.29301 -0.0613032 -3.36426e-15)
(1.30541 -0.0597987 -3.36436e-15)
(1.31736 -0.0582707 -3.37001e-15)
(1.32887 -0.0567344 -3.29241e-15)
(1.33993 -0.0552022 -3.32026e-15)
(1.35057 -0.0536842 -2.58701e-15)
(1.3608 -0.0521885 -2.71898e-15)
(1.37062 -0.0507214 -2.72711e-15)
(1.38005 -0.0492878 -2.7823e-15)
(1.3891 -0.0478913 -2.80389e-15)
(1.3978 -0.0465345 -2.76038e-15)
(1.40615 -0.0452191 -2.71828e-15)
(1.41417 -0.0439462 -2.72988e-15)
(1.42187 -0.042716 -2.71632e-15)
(1.42927 -0.0415286 -2.65215e-15)
(1.43638 -0.0403836 -2.65361e-15)
(1.44321 -0.03928 -2.61195e-15)
(1.44978 -0.0382171 -2.52915e-15)
(1.45611 -0.0371937 -2.44799e-15)
(1.46219 -0.0362084 -2.40721e-15)
(1.46805 -0.03526 -2.34495e-15)
(1.4737 -0.0343471 -2.35891e-15)
(1.47914 -0.0334682 -2.29317e-15)
(1.48438 -0.0326219 -2.30565e-15)
(1.48944 -0.0318069 -2.23565e-15)
(1.49432 -0.0310216 -2.2525e-15)
(1.49903 -0.0302648 -2.18908e-15)
(1.50358 -0.0295352 -2.1426e-15)
(1.50798 -0.0288315 -2.13303e-15)
(1.51223 -0.0281525 -2.07834e-15)
(1.51634 -0.027497 -2.04375e-15)
(1.52032 -0.0268639 -1.99653e-15)
(1.52417 -0.0262522 -1.82782e-15)
(1.5279 -0.0256609 -2.42517e-15)
(1.53152 -0.025089 -2.19311e-15)
(1.53502 -0.0245356 -2.13815e-15)
(1.53842 -0.0239999 -2.0816e-15)
(1.54172 -0.0234811 -2.04141e-15)
(1.54491 -0.0229784 -1.93977e-15)
(1.54802 -0.0224911 -1.886e-15)
(1.55104 -0.0220185 -1.85427e-15)
(1.55397 -0.02156 -1.78514e-15)
(1.55682 -0.0211151 -1.71607e-15)
(1.55959 -0.020683 -1.66021e-15)
(1.00025 -0.00497738 -2.75805e-17)
(1.0025 -0.0149739 -2.52656e-16)
(1.00732 -0.0247271 -6.03653e-16)
(1.01456 -0.0339576 -1.68517e-15)
(1.02392 -0.0424561 -1.81639e-15)
(1.03511 -0.0500806 -2.1527e-15)
(1.04785 -0.0567477 -2.27113e-15)
(1.06187 -0.0624264 -2.35116e-15)
(1.07689 -0.0671291 -2.71799e-15)
(1.09264 -0.0709006 -2.74585e-15)
(1.1089 -0.0738068 -2.86625e-15)
(1.12546 -0.0759265 -3.05616e-15)
(1.14215 -0.077344 -3.12273e-15)
(1.15882 -0.0781446 -3.03881e-15)
(1.17535 -0.0784111 -3.14861e-15)
(1.19162 -0.0782215 -3.20426e-15)
(1.20756 -0.0776477 -3.09927e-15)
(1.2231 -0.0767554 -3.12516e-15)
(1.2231 -0.0767554 -3.12516e-15)
)
;
    }
    procBoundary12to7
    {
        type            processor;
        value           uniform (1.53911 -0.020591 -5.57756e-16);
    }
    procBoundary12to13
    {
        type            processor;
        value           nonuniform List<vector> 4((1.50788 -0.0204027 5.37249e-16) (1.4672 -0.0196996 1.7563e-15) (1.41582 -0.0185114 2.9871e-15) (1.35264 -0.0168938 4.41054e-15));
    }
    procBoundary12to18
    {
        type            processor;
        value           nonuniform List<vector> 
68
(
(1.32818 -0.06547 1.38514e-15)
(1.32803 -0.062171 1.91054e-15)
(1.32761 -0.0590724 1.95523e-15)
(1.32695 -0.0561656 2.03089e-15)
(1.3261 -0.0534408 2.15527e-15)
(1.32509 -0.0508883 2.28375e-15)
(1.32394 -0.0484978 2.4247e-15)
(1.3227 -0.0462593 2.57758e-15)
(1.32136 -0.044163 2.64653e-15)
(1.31996 -0.0421995 2.8132e-15)
(1.31851 -0.0403596 2.96761e-15)
(1.31702 -0.0386349 3.07099e-15)
(1.31549 -0.0370173 3.23302e-15)
(1.31395 -0.035499 3.33277e-15)
(1.3124 -0.0340729 3.45687e-15)
(1.31083 -0.0327325 3.53991e-15)
(1.30927 -0.0314715 3.67458e-15)
(1.30771 -0.0302843 3.78345e-15)
(1.30616 -0.0291653 3.90196e-15)
(1.30463 -0.0281098 3.97266e-15)
(1.3031 -0.0271132 4.10971e-15)
(1.30159 -0.0261713 4.20643e-15)
(1.3001 -0.0252803 4.32416e-15)
(1.29862 -0.0244364 4.44968e-15)
(1.29717 -0.0236365 4.54269e-15)
(1.29573 -0.0228775 4.64501e-15)
(1.29432 -0.0221566 4.76482e-15)
(1.29293 -0.0214713 4.90158e-15)
(1.29156 -0.0208191 5.07033e-15)
(1.29021 -0.0201979 4.70067e-15)
(1.28889 -0.0196056 4.86266e-15)
(1.28758 -0.0190404 4.96821e-15)
(1.2863 -0.0185006 5.07505e-15)
(1.28505 -0.0179846 5.17701e-15)
(1.28381 -0.0174909 5.28265e-15)
(1.28259 -0.0170182 5.36058e-15)
(1.2814 -0.0165651 5.49749e-15)
(1.28023 -0.0161307 5.59053e-15)
(1.27908 -0.0157136 5.67553e-15)
(1.27795 -0.0153131 5.77098e-15)
(1.00047 -0.0127298 1.96997e-17)
(1.00683 -0.0393852 -1.59726e-16)
(1.02091 -0.0642547 -4.86592e-17)
(1.0408 -0.0863399 -2.30773e-16)
(1.0649 -0.104852 1.20089e-17)
(1.09149 -0.119436 -2.10232e-16)
(1.11898 -0.130133 4.97658e-17)
(1.14604 -0.137235 1.07846e-16)
(1.17165 -0.141182 1.29601e-16)
(1.19515 -0.142477 4.23755e-16)
(1.21615 -0.141632 4.70494e-16)
(1.23449 -0.139125 2.60273e-16)
(1.25018 -0.135379 4.62833e-16)
(1.26335 -0.130754 7.43183e-16)
(1.27419 -0.125543 4.90728e-16)
(1.28293 -0.119983 6.83632e-16)
(1.28981 -0.114258 9.6138e-16)
(1.29507 -0.108507 6.35705e-16)
(1.29894 -0.102832 9.0174e-16)
(1.30162 -0.0973079 1.20589e-15)
(1.30329 -0.0919859 9.05537e-16)
(1.30412 -0.0868991 1.18353e-15)
(1.30425 -0.0820673 1.39621e-15)
(1.3038 -0.0775 1.58853e-15)
(1.30288 -0.073199 1.77859e-15)
(1.30157 -0.069161 1.99246e-15)
(1.32818 -0.06547 1.38514e-15)
(1.29995 -0.0653784 2.17959e-15)
)
;
    }
}


// ************************************************************************* //
