/*--------------------------------*- C++ -*----------------------------------*\
  =========                 |
  \\      /  F ield         | OpenFOAM: The Open Source CFD Toolbox
   \\    /   O peration     | Website:  https://openfoam.org
    \\  /    A nd           | Version:  7
     \\/     M anipulation  |
\*---------------------------------------------------------------------------*/
FoamFile
{
    version     2.0;
    format      ascii;
    class       volScalarField;
    location    "4";
    object      p;
}
// * * * * * * * * * * * * * * * * * * * * * * * * * * * * * * * * * * * * * //

dimensions      [0 2 -2 0 0 0 0];

internalField   nonuniform List<scalar> 
433
(
0.0205895
0.0199831
0.0193778
0.0187737
0.0181711
0.0175701
0.0169711
0.0163742
0.0157796
0.0151875
0.0145982
0.0140118
0.0205363
0.0199246
0.0193133
0.0187027
0.018093
0.0174844
0.0168771
0.0162716
0.0156679
0.0150664
0.0144674
0.013871
0.0204018
0.0197765
0.0191512
0.0185264
0.0179021
0.0172788
0.0166566
0.0160359
0.015417
0.0148001
0.0141855
0.0135736
0.020203
0.0195575
0.0189117
0.0182661
0.0176208
0.0169762
0.0163325
0.0156901
0.0150493
0.0144105
0.0137739
0.0131398
0.0199358
0.0192632
0.0185901
0.017917
0.0172442
0.0165718
0.0159002
0.0152298
0.0145609
0.0138938
0.013229
0.0125667
0.0188971
0.0181902
0.0174832
0.0167762
0.0160696
0.0153637
0.0146588
0.0139555
0.0132539
0.0125546
0.0118578
0.0184579
0.0177104
0.0169627
0.016215
0.0154675
0.0147206
0.0139748
0.0132304
0.0124879
0.0117476
0.0110099
0.0179455
0.0171503
0.016355
0.0155595
0.0147643
0.0139696
0.0131759
0.0123837
0.0115934
0.0108053
0.0100199
0.0173586
0.0165083
0.0156579
0.0148074
0.0139571
0.0131072
0.0122585
0.0114112
0.0105658
0.00972281
0.00888257
0.0166965
0.015783
0.0148697
0.0139562
0.0130428
0.01213
0.0112183
0.0103082
0.00940003
0.00849434
0.00759156
0.0159585
0.0149731
0.0139881
0.013003
0.0120181
0.0110337
0.0100506
0.00906907
0.00808973
0.00711299
0.00613931
0.0151443
0.0140774
0.0130112
0.011945
0.010879
0.00981372
0.00874981
0.00768775
0.006628
0.00557105
0.00451737
0.0142541
0.0130949
0.0119369
0.0107791
0.00962168
0.00846517
0.00731023
0.00615737
0.00500708
0.00385985
0.00271613
0.013289
0.0120255
0.0107639
0.00950284
0.00824235
0.00698312
0.00572579
0.00447088
0.00321888
0.00197028
0.000725541
0.0122504
0.0108693
0.00949079
0.00811333
0.00673684
0.00536205
0.0039896
0.00262002
0.00125377
-0.000108674
-0.00146686
0.0111414
0.00962735
0.00811715
0.00660871
0.00510184
0.00359732
0.00209582
0.000597833
-0.000896171
-0.00238575
-0.00387045
0.00996507
0.00830105
0.00664231
0.00498631
0.00333275
0.00168239
3.59031e-05
-0.00160623
-0.00324361
-0.00487582
-0.00650247
0.00872649
0.0068931
0.00506688
0.00324478
0.0014263
-0.000387806
-0.00219687
-0.00400049
-0.0057983
-0.00758996
-0.00937514
0.0074315
0.00540679
0.0033917
0.00138256
-0.000621361
-0.00261933
-0.00461073
-0.00659524
-0.00857258
-0.0105425
-0.0125047
0.00608733
0.00384642
0.00161827
-0.000601517
-0.00281395
-0.00501837
-0.00721423
-0.00940133
-0.0115795
-0.0137486
-0.0159085
0.00470257
0.00221727
-0.000251323
-0.00270839
-0.0051553
-0.00759152
-0.0100166
-0.0124305
-0.0148333
-0.0172248
-0.0196053
0.00328722
0.000525506
-0.00221452
-0.00493894
-0.00764963
-0.0103462
-0.0130284
-0.0156963
-0.0183502
-0.0209903
-0.0236168
0.0018529
-0.00122152
-0.004268
-0.00729365
-0.0103009
-0.0132896
-0.0162598
-0.0192116
-0.0221455
-0.0250616
-0.0279607
0.000412512
-0.00301598
-0.00640881
-0.0097743
-0.0131157
-0.0164335
-0.019728
-0.0230003
-0.0262515
-0.0294833
-0.0327036
-0.00101848
-0.00484767
-0.00863126
-0.0123788
-0.0160943
-0.0197782
-0.0234309
-0.0270535
-0.0306468
-0.0342116
-0.0377422
-0.00242521
-0.00670965
-0.0109366
-0.0151171
-0.0192564
-0.0233556
-0.0274159
-0.031439
-0.0354269
-0.0393816
-0.0433043
-0.00378589
-0.00858721
-0.0133162
-0.0179856
-0.0226019
-0.0271669
-0.0316823
-0.0361503
-0.0405734
-0.0449542
-0.0492949
-0.00507757
-0.0104671
-0.0157662
-0.0209893
-0.0261444
-0.0312342
-0.036261
-0.0412276
-0.0461373
-0.0509936
-0.0558005
-0.00627169
-0.0123323
-0.0182802
-0.0241317
-0.0298968
-0.0355792
-0.041182
-0.0467093
-0.0521658
-0.05756
-0.0629021
-0.00733265
-0.014161
-0.0208494
-0.027416
-0.0338726
-0.040224
-0.0464737
-0.0526263
-0.058687
-0.0646582
-0.0705353
-0.00821546
-0.0159255
-0.0234629
-0.0308473
-0.038093
-0.0452058
-0.0521903
-0.0590519
-0.065797
-0.0724293
-0.0789374
-0.00886035
-0.0175868
-0.026101
-0.034424
-0.0425729
-0.0505548
-0.0583746
-0.066038
-0.0735534
-0.08093
-0.0881304
-0.00918948
-0.019092
-0.0287347
-0.03814
-0.0473281
-0.0563079
-0.065086
-0.0736733
-0.082098
-0.0903945
-0.098289
-0.00910215
-0.0203702
-0.0313215
-0.0419786
-0.0523638
-0.0624848
-0.0723456
-0.0819513
-0.091294
-0.100326
-0.109372
-0.00847447
-0.0213325
-0.0338092
-0.0459272
-0.0577121
-0.0691708
-0.0803036
-0.0911175
-0.101626
-0.11172
-0.121703
-0.00714028
-0.0218504
-0.0361062
-0.0499305
-0.0633526
-0.0763805
-0.0890283
-0.101384
-0.113568
-0.124522
-0.135517
-0.00493772
-0.0218179
-0.0381556
-0.0539725
-0.0692911
-0.0841031
-0.0983955
-0.112101
-0.124951
-0.138342
-0.150925
-0.00156995
-0.0209695
-0.0397399
-0.0579113
-0.075506
-0.0925264
-0.109038
-0.125095
-0.139746
-0.154247
-0.168155
-0.0812742
-0.100795
-0.119485
-0.137081
-0.154922
-0.171705
-0.187429
-0.175843
-0.194125
-0.211335
)
;

boundaryField
{
    inlet
    {
        type            zeroGradient;
    }
    outlet
    {
        type            fixedValue;
        value           nonuniform 0();
    }
    cylinder
    {
        type            zeroGradient;
    }
    top
    {
        type            symmetryPlane;
    }
    bottom
    {
        type            symmetryPlane;
    }
    defaultFaces
    {
        type            empty;
    }
    procBoundary1to0
    {
        type            processor;
        value           nonuniform List<scalar> 
31
(
0.0211964
0.0211479
0.0210263
0.0208472
0.0206064
0.0196035
0.0196035
0.0192049
0.01874
0.0182083
0.0176094
0.0169435
0.0162111
0.0154136
0.0145532
0.0136332
0.012658
0.0116331
0.0105657
0.00946431
0.00833919
0.00720241
0.00606791
0.0049518
0.00387225
0.00285046
0.00190914
0.0010778
0.000389449
-0.000115476
-0.000387045
)
;
    }
    procBoundary1to2
    {
        type            processor;
        value           nonuniform List<scalar> 
33
(
0.0134286
0.0132776
0.0129646
0.0125086
0.0119073
0.011164
0.0102751
0.00923761
0.00804553
0.00669211
0.00516914
0.0034674
0.00157639
-0.00051491
-0.00282059
-0.00534973
-0.0081231
-0.0111535
-0.0144591
-0.0180591
-0.0219746
-0.0262301
-0.0308442
-0.0359233
-0.041228
-0.0471934
-0.0535929
-0.0605473
-0.0681278
-0.0763689
-0.0853892
-0.0952523
-0.106135
)
;
    }
    procBoundary1to6
    {
        type            processor;
        value           nonuniform List<scalar> 8(-0.000362594 3.8611e-05 0.000919752 0.00241108 0.00466971 0.00789992 0.0123267 0.018278);
    }
    procBoundary1to7
    {
        type            processor;
        value           nonuniform List<scalar> 
13
(
-0.185564
-0.20601
-0.225339
0.00400613
-0.0183465
-0.0400101
-0.0609955
-0.0609955
-0.092421
-0.114976
-0.136962
-0.156595
-0.156595
)
;
    }
    procBoundary1to8
    {
        type            processor;
        value           nonuniform List<scalar> 7(-0.118137 -0.131414 -0.146266 -0.162851 -0.181409 -0.202276 -0.22748);
    }
}


// ************************************************************************* //
