/*--------------------------------*- C++ -*----------------------------------*\
  =========                 |
  \\      /  F ield         | OpenFOAM: The Open Source CFD Toolbox
   \\    /   O peration     | Website:  https://openfoam.org
    \\  /    A nd           | Version:  7
     \\/     M anipulation  |
\*---------------------------------------------------------------------------*/
FoamFile
{
    version     2.0;
    format      ascii;
    class       volVectorField;
    location    "2";
    object      U;
}
// * * * * * * * * * * * * * * * * * * * * * * * * * * * * * * * * * * * * * //

dimensions      [0 1 -1 0 0 0 0];

internalField   nonuniform List<vector> 
344
(
(1.09054 0.0289246 -7.17892e-15)
(1.03278 -0.0362623 1.06133e-14)
(1.09095 0.0321673 -7.32772e-15)
(1.0366 -0.0394722 1.14091e-14)
(1.0868 0.030798 -5.99739e-15)
(1.04457 -0.0374323 1.00156e-14)
(1.08 0.0256679 -4.15018e-15)
(1.05334 -0.0320422 7.97843e-15)
(1.07426 0.0201957 -1.85149e-15)
(1.0592 -0.0274191 6.86618e-15)
(1.07203 0.0179496 -4.57092e-16)
(1.0614 -0.0260704 6.45562e-15)
(1.07188 0.0190454 -3.17575e-16)
(1.06286 -0.0260269 6.18976e-15)
(1.07041 0.0194728 -6.06831e-16)
(1.06616 -0.022892 5.43228e-15)
(1.0672 0.015514 6.29515e-16)
(1.0695 -0.0154231 4.56225e-15)
(1.06585 0.00832483 1.89631e-15)
(1.06909 -0.00737401 3.42288e-15)
(1.06897 0.00259827 2.51812e-15)
(1.06451 -0.00310181 3.14087e-15)
(1.0748 0.00134758 2.67971e-15)
(1.05895 -0.00367114 3.42216e-15)
(1.07979 0.00419146 1.98131e-15)
(1.05564 -0.00773062 3.43033e-15)
(1.08104 0.00962117 1.79334e-15)
(1.05747 -0.0131754 4.20936e-15)
(1.07625 0.0151125 1.80927e-15)
(1.06531 -0.0168747 4.52816e-15)
(1.06766 0.0173477 1.6004e-15)
(1.0731 -0.0166882 4.19971e-15)
(1.06366 0.0157334 1.6342e-15)
(1.07298 -0.0141598 4.40581e-15)
(1.06804 0.0129395 2.23635e-15)
(1.06715 -0.0116159 4.15789e-15)
(1.07413 0.0101412 1.9918e-15)
(1.06288 -0.00889072 4.05217e-15)
(1.07761 0.00722432 1.54283e-15)
(1.0601 -0.00754666 4.03892e-15)
(1.05917 -0.00145234 6.26354e-15)
(1.05932 -0.00144063 9.5041e-15)
(1.05943 -0.00139316 7.20645e-15)
(1.05962 -0.00127922 9.36839e-15)
(1.05966 -0.00120622 7.67591e-15)
(1.05987 -0.0011141 9.24187e-15)
(1.05977 -0.00119647 8.70009e-15)
(1.0601 -0.00116778 8.79586e-15)
(1.05981 -0.00140646 9.27417e-15)
(1.06047 -0.00120059 8.74875e-15)
(1.0598 -0.00153914 1.06614e-14)
(1.06106 -0.000878614 8.17518e-15)
(1.05956 -0.00160805 1.06284e-14)
(1.06187 -0.000284838 8.04541e-15)
(1.05885 -0.00212028 1.20252e-14)
(1.06306 0.000403548 8.43481e-15)
(1.05754 -0.00351712 1.16051e-14)
(1.06498 0.00154333 7.93303e-15)
(1.05558 -0.00584438 1.19773e-14)
(1.06791 0.00394739 8.42209e-15)
(1.05288 -0.0091107 1.26227e-14)
(1.07178 0.00818904 8.21335e-15)
(1.0495 -0.0136431 1.31279e-14)
(1.07607 0.0140416 7.58507e-15)
(1.04598 -0.019722 1.41255e-14)
(1.07985 0.0203942 6.98187e-15)
(1.04354 -0.0266931 1.48972e-14)
(1.08198 0.0254783 6.79337e-15)
(1.0436 -0.0325262 1.60354e-14)
(1.08155 0.0274061 7.29291e-15)
(1.04678 -0.0346692 1.71272e-14)
(1.07874 0.0251732 9.36329e-15)
(1.05214 -0.0320438 1.77034e-14)
(1.07516 0.0198405 1.07802e-14)
(1.05744 -0.0265328 1.77933e-14)
(1.0728 0.0145165 1.19021e-14)
(1.06094 -0.0218315 1.7757e-14)
(1.07208 0.012201 1.23489e-14)
(1.06308 -0.0200352 1.77293e-14)
(1.07132 0.0128116 1.18679e-14)
(1.06576 -0.0194762 1.75534e-14)
(1.06888 0.013051 1.07096e-14)
(1.06951 -0.0167675 1.72739e-14)
(1.06584 0.0101654 9.99985e-15)
(1.07214 -0.0111044 1.68416e-14)
(1.06517 0.00517169 8.94075e-15)
(1.07129 -0.00535364 1.55346e-14)
(1.06809 0.00150826 9.2302e-15)
(1.06744 -0.00262496 1.48132e-14)
(1.0727 0.00118518 9.19634e-15)
(1.06329 -0.00342492 1.40442e-14)
(1.0762 0.0036052 8.81611e-15)
(1.06134 -0.00632168 1.34325e-14)
(1.07664 0.00716737 9.10568e-15)
(1.06308 -0.00954365 1.32587e-14)
(1.07342 0.0101618 9.57545e-15)
(1.06785 -0.0113999 1.27977e-14)
(1.06877 0.0111204 9.78723e-15)
(1.07184 -0.010996 1.20219e-14)
(1.06696 0.00999582 1.01791e-14)
(1.07187 -0.00917142 1.15106e-14)
(1.06897 0.0081096 1.08525e-14)
(1.06963 -0.00744792 1.08963e-14)
(1.07156 0.00652184 1.10165e-14)
(1.06791 -0.00647311 9.9335e-15)
(1.07356 0.00583852 1.09207e-14)
(1.06607 -0.00701669 9.15784e-15)
(1.06001 -0.00146464 9.99778e-15)
(1.06016 -0.00145656 1.74599e-14)
(1.06027 -0.00141222 1.00412e-14)
(1.06045 -0.00129535 1.67085e-14)
(1.06049 -0.00121834 1.08175e-14)
(1.06069 -0.00111705 1.56396e-14)
(1.0606 -0.00119883 1.1132e-14)
(1.0609 -0.00116576 1.45154e-14)
(1.06063 -0.00141618 1.20031e-14)
(1.06125 -0.00120696 1.35871e-14)
(1.06063 -0.00156138 1.285e-14)
(1.0618 -0.000884118 1.24475e-14)
(1.06044 -0.00162614 1.35579e-14)
(1.06254 -0.000274035 1.12734e-14)
(1.05981 -0.00212337 1.4367e-14)
(1.06359 0.000419239 9.90772e-15)
(1.05866 -0.00350813 1.47906e-14)
(1.06525 0.0015162 9.95734e-15)
(1.05699 -0.00580277 1.6069e-14)
(1.06775 0.00381197 1.11341e-14)
(1.05479 -0.00895555 1.74326e-14)
(1.07094 0.00785261 1.14471e-14)
(1.05216 -0.0132185 1.83319e-14)
(1.07428 0.0133475 1.14863e-14)
(1.04962 -0.0188256 1.97608e-14)
(1.07691 0.0191375 1.13152e-14)
(1.0482 -0.0251428 2.08915e-14)
(1.07792 0.0235108 1.06944e-14)
(1.04897 -0.0302697 2.12927e-14)
(1.07683 0.0247948 1.16867e-14)
(1.05216 -0.0319261 2.18498e-14)
(1.07421 0.0223023 1.33795e-14)
(1.05665 -0.0292957 2.25389e-14)
(1.07163 0.0172174 1.53034e-14)
(1.06056 -0.0242026 2.15392e-14)
(1.0705 0.0123783 1.53685e-14)
(1.06285 -0.0198958 2.04732e-14)
(1.07056 0.0102691 1.50312e-14)
(1.06438 -0.0180396 1.91894e-14)
(1.07 0.0105926 1.4103e-14)
(1.06683 -0.0170904 1.75718e-14)
(1.06766 0.0105051 1.23688e-14)
(1.07025 -0.0142924 1.58784e-14)
(1.06493 0.00786175 1.14812e-14)
(1.07244 -0.0092108 1.35504e-14)
(1.06447 0.00367947 1.03639e-14)
(1.07153 -0.00432985 1.22254e-14)
(1.06708 0.000789104 9.74463e-15)
(1.06818 -0.00213459 1.09243e-14)
(1.07092 0.000725273 8.74209e-15)
(1.06483 -0.00293584 9.62122e-15)
(1.0736 0.00293474 7.86218e-15)
(1.06348 -0.00544698 8.8733e-15)
(1.07375 0.00593858 7.54242e-15)
(1.06489 -0.00801399 8.85788e-15)
(1.0714 0.00824853 7.44527e-15)
(1.06815 -0.00934168 8.42938e-15)
(1.06842 0.00896626 7.32917e-15)
(1.07067 -0.0090307 7.924e-15)
(1.06743 0.00819831 7.13666e-15)
(1.07073 -0.00764042 7.44071e-15)
(1.06872 0.00660102 7.45419e-15)
(1.06948 -0.00599661 7.03321e-15)
(1.07033 0.00489521 6.92282e-15)
(1.06844 -0.00483775 6.07454e-15)
(1.07171 0.00411428 6.14108e-15)
(1.06719 -0.00527545 5.78991e-15)
(1.06091 -0.00147546 9.5872e-15)
(1.06105 -0.00147152 1.15919e-14)
(1.06116 -0.00143061 1.09456e-14)
(1.06133 -0.00131146 1.18489e-14)
(1.06138 -0.00122972 1.21245e-14)
(1.06157 -0.00111958 1.17255e-14)
(1.06148 -0.00119875 1.25833e-14)
(1.06176 -0.00116302 1.15904e-14)
(1.06151 -0.00142201 1.34231e-14)
(1.06208 -0.00121482 1.16836e-14)
(1.06152 -0.00157833 1.43228e-14)
(1.06259 -0.000895521 1.1685e-14)
(1.06136 -0.00163415 1.48269e-14)
(1.06327 -0.000275599 1.17097e-14)
(1.06081 -0.00210491 1.52027e-14)
(1.06419 0.000408758 1.14159e-14)
(1.0598 -0.00345942 1.47212e-14)
(1.0656 0.00144391 1.12619e-14)
(1.05839 -0.00569998 1.56567e-14)
(1.0677 0.00360681 1.22871e-14)
(1.05664 -0.00870871 1.65255e-14)
(1.0703 0.00742085 1.22737e-14)
(1.05468 -0.0126768 1.6865e-14)
(1.07281 0.0125536 1.20691e-14)
(1.05298 -0.0178098 1.78765e-14)
(1.07442 0.0178162 1.16009e-14)
(1.05244 -0.0235167 1.85667e-14)
(1.07442 0.0215675 1.15797e-14)
(1.05384 -0.0280525 1.98579e-14)
(1.07268 0.0223308 1.22779e-14)
(1.05711 -0.0293589 2.13476e-14)
(1.07 0.0196398 1.37354e-14)
(1.06104 -0.026775 2.30209e-14)
(1.06795 0.0147398 1.5463e-14)
(1.06399 -0.0220021 2.35353e-14)
(1.06756 0.0102325 1.64639e-14)
(1.06531 -0.0179269 2.35626e-14)
(1.0682 0.00824171 1.69141e-14)
(1.06613 -0.0159785 2.33468e-14)
(1.06804 0.00841461 1.65753e-14)
(1.06796 -0.0148106 2.2578e-14)
(1.06618 0.00826485 1.54769e-14)
(1.07066 -0.0121259 2.14784e-14)
(1.06399 0.00601081 1.5473e-14)
(1.07226 -0.00766243 1.95702e-14)
(1.06378 0.00257375 1.50403e-14)
(1.07123 -0.00354393 1.76251e-14)
(1.0661 0.000321647 1.51757e-14)
(1.0683 -0.00180135 1.67803e-14)
(1.06927 0.000472805 1.45556e-14)
(1.06559 -0.0025784 1.59071e-14)
(1.07125 0.00242693 1.39026e-14)
(1.06469 -0.00466381 1.59614e-14)
(1.07113 0.00487294 1.37259e-14)
(1.06587 -0.00665048 1.63926e-14)
(1.06935 0.00663276 1.36252e-14)
(1.06809 -0.00756164 1.63897e-14)
(1.06743 0.0071018 1.37284e-14)
(1.06964 -0.00718649 1.59066e-14)
(1.06691 0.00640339 1.37587e-14)
(1.06967 -0.00598267 1.54813e-14)
(1.0678 0.00503269 1.43708e-14)
(1.06885 -0.00462399 1.49498e-14)
(1.06898 0.00367597 1.38691e-14)
(1.06801 -0.00383441 1.38108e-14)
(1.07007 0.00324562 1.3205e-14)
(1.06706 -0.00447259 1.34781e-14)
(1.06187 -0.00148453 1.12547e-14)
(1.062 -0.00148517 1.44938e-14)
(1.0621 -0.00144808 1.26767e-14)
(1.06228 -0.00132742 1.478e-14)
(1.06233 -0.00124046 1.38248e-14)
(1.06251 -0.00112176 1.48815e-14)
(1.06243 -0.00119644 1.5207e-14)
(1.06269 -0.00115935 1.47851e-14)
(1.06245 -0.00142403 1.60326e-14)
(1.06297 -0.00122337 1.49048e-14)
(1.06247 -0.00159037 1.77093e-14)
(1.06345 -0.000911546 1.46861e-14)
(1.06234 -0.00163381 1.80987e-14)
(1.06406 -0.000286983 1.45814e-14)
(1.06187 -0.00206978 1.92357e-14)
(1.06485 0.000380819 1.49042e-14)
(1.06099 -0.00337954 1.83806e-14)
(1.06605 0.00133763 1.45176e-14)
(1.05981 -0.0055422 1.93733e-14)
(1.06779 0.00334114 1.56184e-14)
(1.05844 -0.00837703 2.01902e-14)
(1.06986 0.00689448 1.54545e-14)
(1.05703 -0.012012 2.06061e-14)
(1.07166 0.0116335 1.53132e-14)
(1.05603 -0.0166414 2.13587e-14)
(1.07243 0.0163649 1.50517e-14)
(1.05617 -0.0217442 2.1916e-14)
(1.07164 0.0195351 1.56844e-14)
(1.05802 -0.0257455 2.27201e-14)
(1.06936 0.0198753 1.68916e-14)
(1.06134 -0.0268187 2.38327e-14)
(1.06658 0.0171194 1.98009e-14)
(1.06485 -0.0244083 2.49181e-14)
(1.06478 0.012511 2.19949e-14)
(1.06711 -0.0200348 2.61231e-14)
(1.06478 0.00836645 2.28134e-14)
(1.06774 -0.0161968 2.66481e-14)
(1.06578 0.0064648 2.29295e-14)
(1.0679 -0.0141165 2.68405e-14)
(1.066 0.00643842 2.19945e-14)
(1.06901 -0.0126979 2.64824e-14)
(1.06469 0.00619866 2.04672e-14)
(1.07089 -0.0101167 2.59693e-14)
(1.06313 0.00431086 1.95269e-14)
(1.07181 -0.0062374 2.49816e-14)
(1.06323 0.00155527 1.7647e-14)
(1.0706 -0.00280313 2.35414e-14)
(1.06533 -0.000158853 1.73958e-14)
(1.06799 -0.00141804 2.27266e-14)
(1.06792 0.000124006 1.70429e-14)
(1.0658 -0.00215234 2.14982e-14)
(1.06932 0.00188293 1.68823e-14)
(1.06524 -0.00393541 2.12092e-14)
(1.06898 0.00394347 1.72369e-14)
(1.06626 -0.00551074 2.12739e-14)
(1.06753 0.00530132 1.75693e-14)
(1.06786 -0.00610843 2.10272e-14)
(1.0662 0.00556642 1.78607e-14)
(1.06883 -0.00567774 2.04131e-14)
(1.06597 0.00490078 1.80212e-14)
(1.06872 -0.00459416 1.99301e-14)
(1.06671 0.00366342 1.88602e-14)
(1.06801 -0.00337823 1.93888e-14)
(1.06772 0.00247212 1.85883e-14)
(1.06721 -0.002748 1.7786e-14)
(1.06864 0.00220367 1.83096e-14)
(1.06644 -0.00345085 1.69276e-14)
(1.06289 -0.00149183 1.56602e-14)
(1.06302 -0.00149745 2.46404e-14)
(1.06312 -0.00146463 1.61983e-14)
(1.06329 -0.00134326 2.39752e-14)
(1.06334 -0.0012507 1.75218e-14)
(1.06351 -0.00112367 2.29059e-14)
(1.06344 -0.00119205 1.85156e-14)
(1.06367 -0.00115459 2.20649e-14)
(1.06345 -0.00142237 1.9622e-14)
(1.06393 -0.00123218 2.09963e-14)
(1.06348 -0.001598 2.09212e-14)
(1.06437 -0.000931353 1.97492e-14)
(1.06339 -0.00162646 2.17976e-14)
(1.06492 -0.000306506 1.84051e-14)
(1.06298 -0.00202052 2.2806e-14)
(1.0656 0.000338596 1.6995e-14)
(1.06221 -0.00327406 2.27326e-14)
(1.06659 0.00120705 1.6952e-14)
(1.06124 -0.00534416 2.41965e-14)
(1.06802 0.0030353 1.85865e-14)
(1.06019 -0.00798772 2.58594e-14)
(1.06965 0.00631272 1.89564e-14)
(1.05923 -0.0112746 2.68068e-14)
(1.07087 0.0106508 1.9331e-14)
(1.05875 -0.0153942 2.8183e-14)
(1.071 0.0148616 1.97816e-14)
(1.05937 -0.0199105 2.93507e-14)
(1.06963 0.0174923 2.00812e-14)
(1.06148 -0.0234245 2.91428e-14)
(1.06701 0.017465 2.1687e-14)
(1.06472 -0.024318 2.93739e-14)
(1.06418 0.0146951 2.41547e-14)
(1.06786 -0.0221188 3.00087e-14)
(1.06253 0.0104073 2.64559e-14)
(1.0696 -0.0181631 2.98971e-14)
(1.0627 0.00665374 2.63804e-14)
)
;

boundaryField
{
    inlet
    {
        type            uniformFixedValue;
        uniformValue    constant (1 0 0);
        value           nonuniform 0();
    }
    outlet
    {
        type            pressureInletOutletVelocity;
        value           nonuniform 0();
    }
    wall
    {
        type            fixedValue;
        value           nonuniform 0();
    }
    wedge1
    {
        type            wedge;
    }
    wedge2
    {
        type            wedge;
    }
    axis
    {
        type            empty;
    }
    procBoundary19to13
    {
        type            processor;
        value           nonuniform List<vector> 
68
(
(1.1044 0.0350609 -9.19123e-15)
(1.01605 -0.0441078 5.64205e-15)
(1.10279 0.0427429 -9.49449e-15)
(1.02514 -0.0512828 5.3283e-15)
(1.09085 0.0448658 -7.96681e-15)
(1.04407 -0.0509932 3.03481e-15)
(1.07169 0.0400106 -5.63721e-15)
(1.06571 -0.0437446 6.91205e-16)
(1.05451 0.0312833 -3.75504e-15)
(1.0797 -0.0351874 -2.8606e-16)
(1.04845 0.0251572 -3.37218e-15)
(1.08055 -0.0315267 3.56226e-16)
(1.05407 0.0253129 -2.84151e-15)
(1.073 -0.0328351 1.06542e-15)
(1.06254 0.027791 -2.34029e-15)
(1.06722 -0.0323044 8.32588e-16)
(1.06531 0.0251972 -8.3987e-16)
(1.06779 -0.024708 7.35411e-16)
(1.06301 0.0162705 1.88556e-16)
(1.07043 -0.0137683 6.38086e-16)
(1.06162 0.00767957 2.41661e-16)
(1.07062 -0.00713879 6.06003e-16)
(1.06288 0.00516163 2.53827e-16)
(1.06931 -0.00741671 2.02031e-16)
(1.06469 0.0085659 4.53048e-16)
(1.06742 -0.0131627 -5.16888e-16)
(1.06767 0.0168022 3.72541e-16)
(1.06386 -0.0228395 2.36909e-16)
(1.07164 0.0269757 2.48526e-16)
(1.06242 -0.0304789 1.18023e-15)
(1.07049 0.0303973 -5.79557e-16)
(1.06864 -0.0277209 1.38455e-15)
(1.06336 0.023348 -1.45652e-16)
(1.07542 -0.0186291 9.89336e-16)
(1.06203 0.0158983 6.91979e-16)
(1.07174 -0.0150085 6.99042e-16)
(1.06951 0.0154317 4.44759e-16)
(1.06628 -0.0165502 1.31755e-15)
(1.07047 0.0169867 -4.52052e-16)
(1.072 -0.0187299 1.15476e-15)
(1.05764 -0.00142567 -3.74932e-16)
(1.0578 -0.00140741 1.15048e-16)
(1.05792 -0.00135557 -4.62394e-17)
(1.05811 -0.00124737 1.00071e-16)
(1.05815 -0.00118305 -8.99922e-17)
(1.05837 -0.00110605 2.39708e-16)
(1.05826 -0.0011904 -2.84718e-16)
(1.05864 -0.0011661 2.28011e-16)
(1.05831 -0.00138648 -2.25319e-17)
(1.05906 -0.00118192 5.13997e-16)
(1.05828 -0.00149925 4.5286e-16)
(1.05972 -0.000861218 1.15779e-16)
(1.05797 -0.00158026 2.99571e-16)
(1.06068 -0.000294298 1.32289e-16)
(1.05709 -0.00212222 1.17309e-15)
(1.06216 0.000395076 -5.38698e-16)
(1.05545 -0.00353895 1.27295e-15)
(1.06463 0.00161406 -7.84594e-16)
(1.05285 -0.00591375 2.08357e-15)
(1.06848 0.0041995 -1.39309e-15)
(1.04906 -0.00935877 3.22564e-15)
(1.07378 0.00877331 -2.22097e-15)
(1.04402 -0.0143187 5.00335e-15)
(1.08009 0.0152171 -3.86548e-15)
(1.03841 -0.0211459 6.9113e-15)
(1.08628 0.0225344 -5.65016e-15)
(1.0339 -0.029188 9.08039e-15)
(1.0339 -0.029188 9.08039e-15)
)
;
    }
    procBoundary19to18
    {
        type            processor;
        value           nonuniform List<vector> 4((1.05907 -0.00142987 9.58728e-15) (1.05991 -0.00143954 1.69805e-14) (1.06082 -0.00144787 1.16152e-14) (1.06178 -0.00145472 1.45579e-14));
    }
    procBoundary19to20
    {
        type            processor;
        value           nonuniform List<vector> 5((1.08063 0.00806352 1.44345e-15) (1.07594 0.00744785 1.1175e-14) (1.07334 0.00551923 5.72623e-15) (1.0712 0.0045749 1.26132e-14) (1.0694 0.0034617 1.83637e-14));
    }
    procBoundary19to24
    {
        type            processor;
        value           uniform (1.06281 -0.00146009 2.44226e-14);
    }
    procBoundary19to25
    {
        type            processor;
        value           nonuniform List<vector> 
68
(
(1.06974 -0.0145978 2.94472e-14)
(1.06383 0.00490009 2.58335e-14)
(1.06941 -0.0124645 2.82639e-14)
(1.06431 0.00476213 2.40178e-14)
(1.06988 -0.0108784 2.6565e-14)
(1.0635 0.00447606 2.2098e-14)
(1.07097 -0.00840654 2.47642e-14)
(1.0625 0.002899 2.06718e-14)
(1.07127 -0.00502143 2.2274e-14)
(1.06288 0.000710213 1.86239e-14)
(1.06988 -0.00215889 2.07966e-14)
(1.06479 -0.000555264 1.72207e-14)
(1.06752 -0.00106488 1.91866e-14)
(1.0669 -0.000179436 1.5849e-14)
(1.06575 -0.00172651 1.7444e-14)
(1.06784 0.00136651 1.52138e-14)
(1.06545 -0.00322318 1.67644e-14)
(1.06732 0.00309615 1.52078e-14)
(1.06637 -0.00448211 1.64171e-14)
(1.06606 0.00416132 1.52077e-14)
(1.06757 -0.00486221 1.59841e-14)
(1.06509 0.00426993 1.49477e-14)
(1.06816 -0.00438256 1.52134e-14)
(1.06505 0.00362308 1.48332e-14)
(1.0679 -0.00341636 1.47834e-14)
(1.06577 0.00255861 1.51473e-14)
(1.06716 -0.00241041 1.4212e-14)
(1.06671 0.00159733 1.44692e-14)
(1.06636 -0.00196674 1.28322e-14)
(1.0675 0.00146575 1.36386e-14)
(1.06571 -0.00267896 1.20315e-14)
(1.06399 -0.00149738 1.72815e-14)
(1.06411 -0.00150828 2.58069e-14)
(1.0642 -0.00148015 1.67429e-14)
(1.06437 -0.00135893 2.52437e-14)
(1.06442 -0.00126053 1.81523e-14)
(1.06459 -0.00112544 2.45503e-14)
(1.06452 -0.00118586 1.98306e-14)
(1.06473 -0.00114878 2.38322e-14)
(1.06453 -0.00141719 2.06731e-14)
(1.06496 -0.0012408 2.3082e-14)
(1.06456 -0.00160138 2.26862e-14)
(1.06537 -0.000954109 2.19245e-14)
(1.0645 -0.00161304 2.34259e-14)
(1.06586 -0.000332729 2.08595e-14)
(1.06415 -0.00195971 2.52584e-14)
(1.06644 0.000285197 2.01499e-14)
(1.06349 -0.00314766 2.47336e-14)
(1.06725 0.00105812 1.9955e-14)
(1.06268 -0.00511399 2.58023e-14)
(1.06841 0.00270157 2.17848e-14)
(1.06189 -0.00755527 2.70903e-14)
(1.06965 0.00569515 2.24013e-14)
(1.06128 -0.0104886 2.74969e-14)
(1.07042 0.00963736 2.30071e-14)
(1.06118 -0.0141084 2.8659e-14)
(1.0701 0.0133549 2.37258e-14)
(1.06209 -0.018069 2.95094e-14)
(1.06838 0.0154963 2.29155e-14)
(1.06429 -0.0211485 2.91579e-14)
(1.06562 0.0151663 2.38181e-14)
(1.06733 -0.0219137 2.93872e-14)
(1.06285 0.0124258 2.63639e-14)
(1.07007 -0.0199457 2.9914e-14)
(1.06133 0.00846447 2.85568e-14)
(1.07139 -0.0163917 3.04309e-14)
(1.06974 -0.0145978 2.94472e-14)
(1.06152 0.00508276 2.85181e-14)
)
;
    }
}


// ************************************************************************* //
