/*--------------------------------*- C++ -*----------------------------------*\
  =========                 |
  \\      /  F ield         | OpenFOAM: The Open Source CFD Toolbox
   \\    /   O peration     | Website:  https://openfoam.org
    \\  /    A nd           | Version:  7
     \\/     M anipulation  |
\*---------------------------------------------------------------------------*/
FoamFile
{
    version     2.0;
    format      ascii;
    class       volScalarField;
    location    "65.000656";
    object      p;
}
// * * * * * * * * * * * * * * * * * * * * * * * * * * * * * * * * * * * * * //

dimensions      [0 2 -2 0 0 0 0];

internalField   nonuniform List<scalar> 
5800
(
-0.218325
-0.2201
-0.221174
-0.222016
-0.222751
-0.223402
-0.224008
-0.224594
-0.225173
-0.225741
0.673685
0.656899
0.646631
0.635768
0.621951
0.605095
0.585583
0.564009
0.540985
0.517044
0.492637
0.673683
0.656896
0.646628
0.635766
0.621949
0.605093
0.585581
0.564007
0.540983
0.517042
0.492635
0.468135
0.443846
0.42001
0.396821
0.374421
0.352918
0.332402
0.312952
0.294596
0.668983
0.652337
0.642286
0.631714
0.61822
0.601687
0.582482
0.561194
0.538432
0.514732
0.490545
0.466246
0.442139
0.418468
0.395428
0.373163
0.351778
0.33136
0.312004
0.293784
0.659628
0.643259
0.633639
0.623644
0.610794
0.594905
0.57631
0.555589
0.53335
0.510129
0.486381
0.462481
0.438737
0.415395
0.392651
0.370655
0.349507
0.329285
0.310115
0.292162
0.645697
0.629741
0.620761
0.611621
0.599728
0.584796
0.56711
0.547233
0.525773
0.503266
0.480171
0.456866
0.433662
0.410809
0.388509
0.366913
0.346117
0.32619
0.307295
0.289734
0.627312
0.6119
0.603758
0.595742
0.585108
0.571437
0.55495
0.536188
0.515754
0.49419
0.471957
0.449438
0.426947
0.404741
0.383025
0.361959
0.34163
0.322092
0.303559
0.286507
0.604632
0.589888
0.582771
0.576133
0.567047
0.554929
0.539919
0.522531
0.503365
0.482964
0.461794
0.440245
0.418636
0.397227
0.376234
0.355821
0.33607
0.317017
0.298929
0.282489
0.577854
0.563894
0.557975
0.552952
0.545685
0.535396
0.522128
0.506363
0.488692
0.469665
0.449752
0.429348
0.40878
0.388315
0.368177
0.348537
0.329472
0.310995
0.293429
0.277693
0.54721
0.534143
0.529578
0.526385
0.521187
0.512986
0.501709
0.487799
0.47184
0.454384
0.43591
0.416819
0.397444
0.37806
0.358901
0.340148
0.321871
0.304061
0.287089
0.272138
0.512966
0.500892
0.497817
0.496646
0.493744
0.487867
0.478812
0.466973
0.452926
0.437228
0.420362
0.402739
0.384699
0.366526
0.348463
0.330704
0.313314
0.296254
0.279942
0.265842
0.475422
0.464428
0.462958
0.463973
0.463568
0.460229
0.453604
0.444034
0.432084
0.418312
0.403212
0.3872
0.370627
0.353784
0.336926
0.320259
0.303847
0.28762
0.272027
0.258832
0.434903
0.425067
0.425295
0.428631
0.430895
0.430279
0.426271
0.419148
0.409459
0.397767
0.384573
0.370302
0.355315
0.339911
0.324357
0.308874
0.293525
0.278206
0.263385
0.251136
0.391765
0.383151
0.385143
0.390905
0.395977
0.398243
0.397013
0.39249
0.385208
0.375731
0.364568
0.352155
0.33886
0.324993
0.310832
0.296614
0.282406
0.268064
0.25406
0.242786
0.346384
0.339045
0.342842
0.351101
0.359087
0.364362
0.366043
0.364251
0.3595
0.352354
0.34333
0.332873
0.321363
0.309118
0.296429
0.28355
0.270552
0.257251
0.244102
0.233816
0.299158
0.293132
0.298749
0.309541
0.320511
0.328889
0.333586
0.334631
0.332511
0.327791
0.320995
0.31258
0.302932
0.292383
0.281232
0.269753
0.258028
0.245827
0.233561
0.224262
0.250498
0.245813
0.253239
0.266563
0.280549
0.29209
0.299877
0.303838
0.304426
0.302207
0.29771
0.291401
0.28368
0.274885
0.265328
0.255302
0.244904
0.233855
0.222496
0.214165
0.200832
0.1975
0.206697
0.222515
0.239512
0.254239
0.26516
0.272086
0.275436
0.275769
0.273621
0.26947
0.263723
0.256728
0.248806
0.240274
0.231252
0.221407
0.210964
0.203559
0.150594
0.148614
0.159517
0.177757
0.197717
0.215618
0.229682
0.239597
0.245735
0.24865
0.248883
0.246919
0.243178
0.238015
0.231758
0.224749
0.217145
0.208561
0.199043
0.192482
0.10022
0.0995788
0.112101
0.132652
0.155489
0.176512
0.193696
0.206592
0.215521
0.221023
0.223647
0.223885
0.222165
0.218852
0.214278
0.208804
0.202648
0.195399
0.186824
0.180939
0.0501488
0.0508162
0.0648505
0.0875671
0.113153
0.137208
0.157455
0.173296
0.184991
0.193066
0.19807
0.200503
0.200804
0.199346
0.196461
0.19252
0.187819
0.182
0.17448
0.168964
0.000815785
0.00274174
0.0181645
0.0428662
0.0710339
0.0979928
0.12121
0.139931
0.154342
0.16495
0.172304
0.176909
0.179214
0.179601
0.178402
0.175982
0.17271
0.168413
0.162231
0.156481
-0.0473455
-0.04424
-0.0275647
-0.00109077
0.0294538
0.0591492
0.085212
0.106716
0.123768
0.136848
0.146501
0.153238
0.157513
0.159721
0.160194
0.159275
0.157361
0.154556
0.150249
0.143948
-0.0939473
-0.0897094
-0.0719644
-0.0439549
-0.0112741
0.0209535
0.0497019
0.0738666
0.0934583
0.108926
0.120809
0.129619
0.135816
0.139803
0.141923
0.142491
0.141885
0.140429
0.137991
0.133335
-0.138878
-0.13313
-0.114708
-0.0853911
-0.0508473
-0.0163278
0.0149147
0.041588
0.0635958
0.0813473
0.0953709
0.106178
0.114233
0.119947
0.123671
0.12571
0.126397
0.126169
0.125342
0.12263
-0.181425
-0.17428
-0.155564
-0.125099
-0.0889803
-0.0524403
-0.0189254
0.0100784
0.034355
0.0542655
0.0703233
0.0830375
0.0928728
0.100246
0.105519
0.108995
0.110966
0.111888
0.112341
0.111195
-0.221255
-0.212984
-0.193815
-0.162926
-0.125411
-0.0871421
-0.0516064
-0.0204754
0.00590115
0.0278269
0.0457958
0.060311
0.0718363
0.0807899
0.0875424
0.0924015
0.0956311
0.0976625
0.0991982
0.0993
-0.258134
-0.248923
-0.229373
-0.198271
-0.159962
-0.120209
-0.082929
-0.0498987
-0.0216118
0.00216789
0.0219092
0.0381061
0.0512186
0.0616637
0.0698166
0.075991
0.0804349
0.0835444
0.0860771
0.0872867
-0.291879
-0.281807
-0.26209
-0.230944
-0.192258
-0.151454
-0.11271
-0.0780299
-0.0480418
-0.022586
-0.00122481
0.016522
0.0311077
0.0429459
0.0524124
0.0598259
0.0654268
0.0695766
0.0730522
0.0752972
-0.322301
-0.311427
-0.291754
-0.260859
-0.222067
-0.180657
-0.140782
-0.104723
-0.0732599
-0.0463217
-0.0235049
-0.00435072
0.0115842
0.0247085
0.0353953
0.0439663
0.050658
0.0557977
0.0601597
0.0633749
-0.349245
-0.337633
-0.318184
-0.287843
-0.249299
-0.207627
-0.166997
-0.129851
-0.0971512
-0.0689388
-0.0448406
-0.0244306
-0.00727912
0.00701708
0.0188249
0.0284664
0.0361767
0.0422468
0.0474333
0.0515541
-0.372608
-0.36033
-0.341258
-0.31174
-0.273819
-0.232258
-0.19123
-0.153317
-0.119612
-0.0903502
-0.0651527
-0.0436453
-0.0254192
-0.0100702
0.00275391
0.0133746
0.0220264
0.0289631
0.0349107
0.0398763
-0.392344
-0.379476
-0.360909
-0.332451
-0.295508
-0.25445
-0.213383
-0.175022
-0.140616
-0.110459
-0.0843746
-0.061932
-0.0427819
-0.0265014
-0.0127718
-0.00126638
0.00824663
0.0159838
0.022628
0.0283819
-0.408459
-0.395086
-0.377127
-0.349933
-0.314293
-0.274119
-0.233381
-0.194887
-0.16005
-0.129276
-0.102454
-0.0792381
-0.0593222
-0.0422311
-0.0277135
-0.0154186
-0.00512904
0.00334282
0.0106142
0.0171043
-0.421017
-0.407227
-0.389955
-0.364189
-0.330141
-0.291216
-0.251171
-0.212864
-0.177864
-0.146713
-0.119377
-0.0955776
-0.0749793
-0.0572243
-0.0420389
-0.029049
-0.0180737
-0.00892774
-0.00110945
0.0060681
-0.430134
-0.416022
-0.399489
-0.375274
-0.343064
-0.305721
-0.266725
-0.228929
-0.194038
-0.162737
-0.13509
-0.110875
-0.089777
-0.0714871
-0.0557099
-0.0421329
-0.030567
-0.0207989
-0.0125181
-0.00471877
-0.435979
-0.421642
-0.405878
-0.383291
-0.353114
-0.317651
-0.28004
-0.243075
-0.208566
-0.177342
-0.149576
-0.125111
-0.103674
-0.0849774
-0.0687391
-0.0546862
-0.0425781
-0.0322577
-0.0235629
-0.0152805
-0.438764
-0.424305
-0.40932
-0.388392
-0.360386
-0.327054
-0.291138
-0.255309
-0.221455
-0.190535
-0.162839
-0.138287
-0.116655
-0.0976781
-0.0810972
-0.0666597
-0.0541223
-0.0433381
-0.0341513
-0.025678
-0.438742
-0.424269
-0.410055
-0.390774
-0.365016
-0.334011
-0.300063
-0.265661
-0.232722
-0.202331
-0.174894
-0.150416
-0.128726
-0.10959
-0.092774
-0.078044
-0.0651731
-0.0540036
-0.044401
-0.0357441
-0.436198
-0.421822
-0.408358
-0.390674
-0.367182
-0.338639
-0.306889
-0.274176
-0.242404
-0.212759
-0.185763
-0.161515
-0.1399
-0.120724
-0.103776
-0.0888439
-0.0757206
-0.0642448
-0.0543071
-0.0453659
-0.431441
-0.417275
-0.404533
-0.388365
-0.367098
-0.341086
-0.31171
-0.28092
-0.250548
-0.221855
-0.195477
-0.171607
-0.150198
-0.131094
-0.114114
-0.0990687
-0.0857685
-0.0740567
-0.0638411
-0.0546002
-0.424798
-0.410953
-0.398903
-0.384144
-0.365008
-0.341531
-0.314648
-0.285973
-0.257214
-0.22967
-0.204077
-0.180727
-0.159645
-0.140722
-0.123805
-0.10873
-0.0953262
-0.0834424
-0.0730056
-0.0635219
-0.416599
-0.403184
-0.391798
-0.378326
-0.361186
-0.340181
-0.315845
-0.289433
-0.262473
-0.236259
-0.21161
-0.188915
-0.168274
-0.149632
-0.132868
-0.117844
-0.104407
-0.092414
-0.0818157
-0.0721648
-0.407174
-0.394292
-0.383545
-0.371233
-0.355922
-0.337268
-0.315468
-0.291413
-0.266406
-0.241685
-0.218129
-0.196216
-0.176124
-0.157856
-0.141329
-0.12643
-0.113028
-0.100987
-0.0902826
-0.0805343
-0.396838
-0.384584
-0.374457
-0.363183
-0.349514
-0.333043
-0.313701
-0.292041
-0.269102
-0.246019
-0.223693
-0.20268
-0.183238
-0.165431
-0.149218
-0.134512
-0.121208
-0.109178
-0.0984143
-0.0886254
-0.38589
-0.374347
-0.364829
-0.354479
-0.34226
-0.327766
-0.31075
-0.291461
-0.270661
-0.249333
-0.228361
-0.20836
-0.189662
-0.172396
-0.156567
-0.142118
-0.12897
-0.117005
-0.106222
-0.0964382
-0.374603
-0.363838
-0.354925
-0.345401
-0.334445
-0.321703
-0.306829
-0.289829
-0.271189
-0.251704
-0.232195
-0.213308
-0.195444
-0.178794
-0.163412
-0.149278
-0.136337
-0.124488
-0.113723
-0.103982
-0.363217
-0.353284
-0.344975
-0.336195
-0.326331
-0.315113
-0.302162
-0.287314
-0.270804
-0.253212
-0.235256
-0.217578
-0.20063
-0.184666
-0.169792
-0.156024
-0.143336
-0.131649
-0.120936
-0.111271
-0.351942
-0.342875
-0.335173
-0.327075
-0.318151
-0.308236
-0.296973
-0.284095
-0.26963
-0.253942
-0.237605
-0.22122
-0.205267
-0.190056
-0.175745
-0.16239
-0.149997
-0.138511
-0.127885
-0.118323
-0.340952
-0.332767
-0.325675
-0.31821
-0.310103
-0.301291
-0.291476
-0.280354
-0.267803
-0.253983
-0.239303
-0.224282
-0.209398
-0.195003
-0.181309
-0.168411
-0.156349
-0.145102
-0.13459
-0.125156
-0.330383
-0.32308
-0.316599
-0.309733
-0.302344
-0.294461
-0.285868
-0.276273
-0.265463
-0.253432
-0.240411
-0.226806
-0.213061
-0.199547
-0.18652
-0.174122
-0.162422
-0.151448
-0.141077
-0.13179
-0.320343
-0.313905
-0.308029
-0.301738
-0.294991
-0.287895
-0.280321
-0.272024
-0.262757
-0.25239
-0.240994
-0.228836
-0.216288
-0.203717
-0.191411
-0.179555
-0.168249
-0.157574
-0.147369
-0.138243
-0.310906
-0.305301
-0.300021
-0.294284
-0.288124
-0.281702
-0.274975
-0.267763
-0.259827
-0.250967
-0.241121
-0.23041
-0.219107
-0.20754
-0.196009
-0.18474
-0.173858
-0.163509
-0.153491
-0.144538
-0.302121
-0.297304
-0.292602
-0.287402
-0.281786
-0.275956
-0.269937
-0.263621
-0.256808
-0.249276
-0.240867
-0.231571
-0.221539
-0.211032
-0.200335
-0.1897
-0.179276
-0.169278
-0.159468
-0.150695
-0.294013
-0.28993
-0.285782
-0.2811
-0.275997
-0.270696
-0.265277
-0.2597
-0.253822
-0.247428
-0.240314
-0.232363
-0.223604
-0.214202
-0.204398
-0.194454
-0.184526
-0.174906
-0.165323
-0.156737
-0.286589
-0.283177
-0.279553
-0.275366
-0.270751
-0.265935
-0.261037
-0.256076
-0.250966
-0.24553
-0.23955
-0.232841
-0.225323
-0.217054
-0.208198
-0.199005
-0.189622
-0.180412
-0.171079
-0.162684
-0.27984
-0.277031
-0.273895
-0.27018
-0.266029
-0.261665
-0.257232
-0.252793
-0.248315
-0.243671
-0.238659
-0.233064
-0.226721
-0.219586
-0.211726
-0.203348
-0.194567
-0.18581
-0.176752
-0.168562
-0.273744
-0.271467
-0.268779
-0.265508
-0.261798
-0.257863
-0.253856
-0.24987
-0.245921
-0.241927
-0.237724
-0.233096
-0.227833
-0.221801
-0.214962
-0.207461
-0.199349
-0.191102
-0.182358
-0.174384
-0.268268
-0.266453
-0.264171
-0.261314
-0.258023
-0.254495
-0.250886
-0.247308
-0.243809
-0.240351
-0.236815
-0.233006
-0.228699
-0.223704
-0.217886
-0.211311
-0.203941
-0.196273
-0.187881
-0.180205
-0.263372
-0.26195
-0.260032
-0.257558
-0.254662
-0.251522
-0.248292
-0.24509
-0.241986
-0.238977
-0.235986
-0.232855
-0.22937
-0.225315
-0.220481
-0.214857
-0.208291
-0.201295
-0.19331
-0.185997
-0.259007
-0.257914
-0.256319
-0.254196
-0.251671
-0.248902
-0.246035
-0.243188
-0.240441
-0.237819
-0.235277
-0.232698
-0.229898
-0.226661
-0.222742
-0.218052
-0.212352
-0.206078
-0.198606
-0.191876
-0.255119
-0.254298
-0.252986
-0.251184
-0.249006
-0.24659
-0.244071
-0.241564
-0.239152
-0.236871
-0.234706
-0.232576
-0.230332
-0.227782
-0.224675
-0.220866
-0.216045
-0.210595
-0.203604
-0.197599
-0.25165
-0.25105
-0.249986
-0.248477
-0.246622
-0.244541
-0.242358
-0.240177
-0.238081
-0.236114
-0.234275
-0.232513
-0.230716
-0.228722
-0.226306
-0.223276
-0.219365
-0.214542
-0.208991
-0.201922
-0.248538
-0.24812
-0.247273
-0.24603
-0.244474
-0.24271
-0.240847
-0.238982
-0.237189
-0.235515
-0.233968
-0.232516
-0.231077
-0.229524
-0.227674
-0.225278
-0.222331
-0.217789
-0.214351
-0.205641
-0.245726
-0.245458
-0.244802
-0.243799
-0.242519
-0.241053
-0.239494
-0.237931
-0.23643
-0.235033
-0.233754
-0.232571
-0.231428
-0.230219
-0.228827
-0.226898
-0.224937
-0.22027
-0.219213
-0.208863
-0.243154
-0.243017
-0.242529
-0.241744
-0.240719
-0.239529
-0.238257
-0.236981
-0.235757
-0.234625
-0.233595
-0.232655
-0.23176
-0.230827
-0.229798
-0.228194
-0.227164
-0.222064
-0.223594
-0.2113
-0.240772
-0.240751
-0.240418
-0.23983
-0.239037
-0.238103
-0.237099
-0.236091
-0.235129
-0.234246
-0.23345
-0.232732
-0.232054
-0.23135
-0.230603
-0.229237
-0.228982
-0.223392
-0.227439
-0.212883
-0.238533
-0.238625
-0.238435
-0.238027
-0.237445
-0.236744
-0.235986
-0.235227
-0.234509
-0.233858
-0.23328
-0.232765
-0.23228
-0.231774
-0.231242
-0.23009
-0.230353
-0.224533
-0.230471
-0.213889
-0.236403
-0.236611
-0.236554
-0.236309
-0.23592
-0.23543
-0.234895
-0.234362
-0.233867
-0.233429
-0.23305
-0.232721
-0.232411
-0.232078
-0.231709
-0.23078
-0.231271
-0.22567
-0.232427
-0.214803
-0.234355
-0.234686
-0.234756
-0.234661
-0.234445
-0.234145
-0.23381
-0.23348
-0.233184
-0.232936
-0.232738
-0.232575
-0.23242
-0.232239
-0.231998
-0.231296
-0.231786
-0.226809
-0.233311
-0.215997
-0.232375
-0.232838
-0.23303
-0.233072
-0.233012
-0.232881
-0.232722
-0.23257
-0.232449
-0.23237
-0.232329
-0.232313
-0.232294
-0.232242
-0.232107
-0.231611
-0.231979
-0.227828
-0.233374
-0.217516
-0.230456
-0.231061
-0.231371
-0.23154
-0.231619
-0.231637
-0.231631
-0.231633
-0.231664
-0.231729
-0.231823
-0.231932
-0.232028
-0.232083
-0.232039
-0.231705
-0.231934
-0.22859
-0.232939
-0.219142
-0.228603
-0.229358
-0.229783
-0.230068
-0.230271
-0.230417
-0.230543
-0.230677
-0.230835
-0.231021
-0.231229
-0.231441
-0.231632
-0.231772
-0.231803
-0.231571
-0.231728
-0.229005
-0.232271
-0.220625
-0.226829
-0.227738
-0.228274
-0.228665
-0.228977
-0.229235
-0.229472
-0.229716
-0.229979
-0.230265
-0.230565
-0.23086
-0.231126
-0.231332
-0.231415
-0.231231
-0.231407
-0.229063
-0.231558
-0.221813
-0.225153
-0.226217
-0.226859
-0.227345
-0.227754
-0.228106
-0.228436
-0.22877
-0.229119
-0.229485
-0.229857
-0.230218
-0.23054
-0.230793
-0.230918
-0.230848
-0.230798
-0.228988
-0.230838
-0.222657
-0.223599
-0.224815
-0.225554
-0.226127
-0.226618
-0.22705
-0.227456
-0.227862
-0.22828
-0.228708
-0.229137
-0.229546
-0.22991
-0.230196
-0.230351
-0.230334
-0.230141
-0.228948
-0.229625
-0.223678
-0.222194
-0.223553
-0.224382
-0.225029
-0.22559
-0.226088
-0.226556
-0.227019
-0.22749
-0.227966
-0.228437
-0.228882
-0.229275
-0.229582
-0.229758
-0.229759
-0.229518
-0.228702
-0.228588
-0.224557
-0.220967
-0.222455
-0.223362
-0.224072
-0.224692
-0.225242
-0.225759
-0.226267
-0.226778
-0.227289
-0.22779
-0.228261
-0.228673
-0.228995
-0.229182
-0.229191
-0.228947
-0.228324
-0.227808
-0.219946
-0.221543
-0.222515
-0.223277
-0.223943
-0.224535
-0.225088
-0.22563
-0.22617
-0.226707
-0.227229
-0.227716
-0.228141
-0.228471
-0.228665
-0.228678
-0.228445
-0.22792
-0.22724
-0.219154
-0.220838
-0.22186
-0.222661
-0.223362
-0.223984
-0.224564
-0.225129
-0.225689
-0.226244
-0.22678
-0.227277
-0.22771
-0.228043
-0.22824
-0.228256
-0.228037
-0.227562
-0.226839
-0.218612
-0.220355
-0.221412
-0.22224
-0.222963
-0.223605
-0.224202
-0.224782
-0.225355
-0.22592
-0.226464
-0.226968
-0.227403
-0.227738
-0.227935
-0.227952
-0.227743
-0.227292
-0.226573
-0.218333
-0.220107
-0.221181
-0.222023
-0.222758
-0.223409
-0.224015
-0.224602
-0.225181
-0.22575
-0.226298
-0.226803
-0.227239
-0.227574
-0.22777
-0.227785
-0.22758
-0.227137
-0.226427
0.135769
0.138872
0.146281
0.152938
0.161529
0.167273
0.172799
0.172904
0.172018
0.162398
0.136986
0.140157
0.147816
0.154781
0.163926
0.170484
0.177226
0.178903
0.180302
0.173158
0.138191
0.141372
0.149286
0.156535
0.166259
0.173575
0.181521
0.184619
0.188052
0.18329
0.139348
0.142545
0.150727
0.158252
0.168542
0.176582
0.18567
0.190155
0.195429
0.19304
0.140457
0.143666
0.152114
0.159898
0.170729
0.17946
0.189622
0.195471
0.202419
0.202355
0.141515
0.144742
0.153444
0.161473
0.172819
0.182213
0.193373
0.200555
0.209029
0.211209
0.14252
0.145731
0.15472
0.162973
0.174806
0.184835
0.196911
0.205385
0.21526
0.219579
0.143471
0.146673
0.155902
0.164391
0.17668
0.187318
0.200229
0.209944
0.221107
0.227441
0.144366
0.147564
0.157099
0.165732
0.178435
0.189654
0.203319
0.214211
0.226561
0.234775
0.145201
0.148372
0.158023
0.166986
0.180065
0.191837
0.206178
0.218172
0.23161
0.241558
0.145972
0.149127
0.159069
0.16814
0.181562
0.193857
0.2088
0.221812
0.236243
0.247772
0.146677
0.149815
0.159925
0.169186
0.182924
0.195705
0.21118
0.225117
0.240446
0.2534
0.147311
0.150433
0.160728
0.170133
0.184144
0.197373
0.213314
0.228079
0.244208
0.258427
0.147873
0.150979
0.161427
0.17097
0.18522
0.198852
0.215196
0.230687
0.247518
0.26284
0.14836
0.151451
0.162034
0.171696
0.186148
0.200135
0.216822
0.232936
0.250368
0.26663
0.148769
0.151847
0.162543
0.172307
0.186927
0.201215
0.218187
0.234818
0.25275
0.269791
0.149098
0.152167
0.162953
0.172801
0.187553
0.202087
0.219286
0.23633
0.254661
0.27232
0.149347
0.152407
0.163262
0.173174
0.188025
0.202746
0.220114
0.237468
0.256096
0.274215
0.149513
0.152568
0.163468
0.173424
0.188341
0.203187
0.22067
0.238228
0.257054
0.275478
0.149597
0.152649
0.163572
0.173549
0.188499
0.203408
0.220949
0.238609
0.257534
0.276109
0.0295211
0.0281958
0.0260163
0.0234322
0.020721
0.0180769
0.0155931
0.0133251
0.0112847
0.00947333
0.0296496
0.0283211
0.0261327
0.0235392
0.0208173
0.0181634
0.0156694
0.0133925
0.0113432
0.00952394
0.0298995
0.0285641
0.0263594
0.0237475
0.0210053
0.0183318
0.0158185
0.0135236
0.0114576
0.00962377
0.0302639
0.0289185
0.0266908
0.0240521
0.0212804
0.0185782
0.0160365
0.0137154
0.0116251
0.0097703
0.0307369
0.029379
0.0271217
0.0244484
0.0216385
0.0188989
0.0163203
0.0139652
0.0118434
0.00996125
0.0313131
0.0299402
0.0276474
0.0249322
0.022076
0.0192909
0.0166674
0.0142707
0.0121104
0.0101948
0.0319876
0.0305976
0.0282638
0.0255
0.0225898
0.0197515
0.0170752
0.0146299
0.0124242
0.0104692
0.0327557
0.031347
0.0289669
0.0261483
0.0231769
0.0202782
0.0175418
0.0150408
0.0127833
0.0107833
0.0336131
0.0321845
0.0297532
0.0268742
0.023835
0.020869
0.0180655
0.0155022
0.0131864
0.0111358
0.0345559
0.0331063
0.0306196
0.0276751
0.0245617
0.0215222
0.0186448
0.0160127
0.0136325
0.0115258
0.0355803
0.0341093
0.0315631
0.0285485
0.0253553
0.0222362
0.0192783
0.0165713
0.0141206
0.0119525
0.0366827
0.0351902
0.0325809
0.0294922
0.026214
0.0230097
0.0199651
0.0171771
0.0146501
0.0124153
0.0378597
0.036346
0.0336705
0.0305043
0.0271363
0.0238416
0.0207044
0.0178296
0.0152203
0.0129137
0.0391079
0.0375738
0.0348292
0.0315829
0.0281209
0.0247311
0.0214954
0.0185282
0.015831
0.0134476
0.0404242
0.038871
0.0360549
0.0327263
0.0291666
0.0256773
0.0223376
0.0192726
0.0164819
0.0140167
0.0418056
0.0402348
0.0373453
0.0339331
0.0302725
0.0266797
0.0232308
0.0200627
0.017173
0.0146209
0.0432489
0.0416626
0.0386982
0.0352019
0.0314376
0.0277378
0.0241747
0.0208984
0.0179042
0.0152605
0.0447511
0.0431518
0.0401115
0.0365313
0.0326614
0.0288513
0.0251693
0.0217799
0.0186759
0.0159357
0.0463094
0.0446998
0.0415831
0.0379202
0.033943
0.03002
0.0262146
0.0227074
0.0194884
0.0166468
0.0479207
0.0463041
0.043111
0.0393675
0.035282
0.0312439
0.0273107
0.0236814
0.0203422
0.0173944
0.0495823
0.0479619
0.0446933
0.040872
0.0366778
0.0325228
0.0284581
0.0247024
0.0212378
0.0181792
0.051291
0.0496708
0.0463278
0.0424329
0.0381302
0.0338569
0.0296571
0.025771
0.022176
0.0190017
0.0530441
0.0514279
0.0480128
0.0440491
0.0396386
0.0352464
0.0309084
0.026888
0.0231578
0.0198631
0.0548386
0.0532306
0.0497462
0.0457199
0.0412027
0.0366915
0.0322124
0.0280544
0.0241839
0.0207642
0.0566716
0.0550761
0.0515262
0.0474442
0.0428222
0.0381925
0.03357
0.0292711
0.0252557
0.0217062
0.0585402
0.0569614
0.0533508
0.0492212
0.0444969
0.0397499
0.0349822
0.0305395
0.0263744
0.0226903
0.0604412
0.0588838
0.0552181
0.0510499
0.0462263
0.0413641
0.0364497
0.0318607
0.0275413
0.023718
0.0623719
0.0608402
0.0571264
0.0529295
0.0480103
0.0430356
0.0379738
0.0332361
0.0287578
0.0247907
0.0643292
0.0628276
0.0590737
0.0548588
0.0498484
0.0447652
0.0395556
0.0346673
0.0300257
0.0259101
0.06631
0.064843
0.0610581
0.0568368
0.0517404
0.0465533
0.0411963
0.0361559
0.0313467
0.027078
0.0683114
0.0668833
0.0630778
0.0588622
0.0536858
0.0484008
0.0428973
0.0377036
0.0327227
0.0282963
0.0703304
0.0689454
0.0651309
0.0609339
0.0556844
0.0503084
0.0446599
0.0393122
0.0341556
0.029567
0.0723637
0.0710262
0.0672156
0.0630505
0.0577358
0.0522769
0.0464855
0.0409837
0.0356477
0.0308924
0.0744085
0.0731225
0.0693299
0.0652103
0.0598395
0.054307
0.0483758
0.04272
0.0372012
0.0322749
0.0764617
0.0752313
0.0714719
0.0674117
0.0619952
0.0563996
0.0503321
0.0445233
0.0388185
0.0337168
0.0785202
0.0773494
0.0736396
0.069653
0.0642024
0.0585553
0.052356
0.0463959
0.0405021
0.035221
0.080581
0.0794737
0.0758308
0.0719323
0.0664606
0.0607748
0.054449
0.0483399
0.0422549
0.0367902
0.0826411
0.0816013
0.0780436
0.0742474
0.0687693
0.0630589
0.0566127
0.0503578
0.0440796
0.0384274
0.0846975
0.0837292
0.0802758
0.0765961
0.071128
0.0654079
0.0588487
0.052452
0.0459792
0.0401357
0.0867474
0.0858544
0.082525
0.0789762
0.073536
0.0678223
0.0611583
0.0546251
0.0479567
0.0419185
0.0887879
0.0879742
0.084789
0.0813853
0.0759927
0.0703024
0.0635433
0.0568798
0.0500155
0.0437791
0.090816
0.0900857
0.0870652
0.0838207
0.0784971
0.0728482
0.0660049
0.0592186
0.0521589
0.0457213
0.0928292
0.0921863
0.0893512
0.0862798
0.0810484
0.0754597
0.0685447
0.0616444
0.0543903
0.0477487
0.0948247
0.0942733
0.0916444
0.08876
0.0836456
0.0781365
0.071164
0.0641597
0.0567133
0.0498652
0.0967999
0.0963443
0.0939421
0.0912583
0.0862874
0.080878
0.0738641
0.0667675
0.0591315
0.052075
0.0987525
0.0983969
0.0962414
0.093772
0.0889725
0.0836836
0.0766463
0.0694704
0.0616485
0.0543823
0.10068
0.100429
0.0985396
0.096298
0.0916993
0.0865521
0.0795117
0.0722712
0.0642683
0.0567914
0.10258
0.102437
0.100834
0.0988334
0.094466
0.0894823
0.0824613
0.0751725
0.0669945
0.0593069
0.104451
0.104421
0.103121
0.101375
0.0972706
0.0924726
0.0854961
0.0781769
0.069831
0.0619335
0.10629
0.106377
0.105398
0.10392
0.100111
0.0955212
0.0886169
0.0812868
0.0727816
0.064676
0.108096
0.108305
0.107662
0.106465
0.102984
0.0986259
0.0918243
0.0845045
0.0758501
0.0675395
0.109866
0.110201
0.109911
0.109008
0.105888
0.101784
0.0951187
0.0878321
0.0790403
0.0705291
0.1116
0.112065
0.11214
0.111544
0.108819
0.104994
0.0985004
0.0912715
0.0823559
0.0736503
0.113296
0.113895
0.114347
0.114071
0.111774
0.108251
0.101969
0.0948241
0.0858006
0.0769087
0.114953
0.115689
0.116529
0.116586
0.114749
0.111553
0.105525
0.0984912
0.0893782
0.08031
0.116569
0.117446
0.118684
0.119086
0.117741
0.114896
0.109168
0.102273
0.0930924
0.0838604
0.118143
0.119164
0.120808
0.121567
0.120745
0.118277
0.112896
0.106171
0.0969471
0.087566
0.119676
0.120843
0.122899
0.124027
0.123757
0.121691
0.116709
0.110184
0.100946
0.0914332
0.121164
0.122482
0.124954
0.126463
0.126771
0.125134
0.120604
0.114312
0.105095
0.0954685
0.12261
0.124078
0.126971
0.128871
0.129784
0.128601
0.12458
0.118552
0.109397
0.0996785
0.124011
0.125633
0.128947
0.131249
0.13279
0.132089
0.128633
0.122904
0.113859
0.10407
0.125367
0.127144
0.130881
0.133595
0.135784
0.135592
0.13276
0.127365
0.118487
0.108647
0.126679
0.128611
0.13277
0.135904
0.13876
0.139105
0.136956
0.131932
0.123289
0.113416
0.127946
0.130033
0.134613
0.138175
0.141713
0.142623
0.141217
0.136602
0.128277
0.118379
0.129169
0.131411
0.136408
0.140405
0.144636
0.146141
0.145535
0.141372
0.133465
0.123549
0.130347
0.132743
0.138154
0.142592
0.147526
0.149655
0.149906
0.14624
0.138868
0.128938
0.131481
0.134031
0.139851
0.144735
0.15038
0.153163
0.154323
0.151204
0.144489
0.13451
0.13257
0.135274
0.141497
0.146832
0.153189
0.156653
0.158759
0.156241
0.150315
0.140083
0.133615
0.136466
0.14308
0.14886
0.155918
0.160076
0.163152
0.161305
0.15641
0.14554
0.13462
0.137598
0.144585
0.150781
0.158533
0.163398
0.167533
0.166504
0.163235
0.151887
0.00827095
0.00757779
0.00687656
0.00617011
0.00545928
0.00474401
0.00402435
0.00330063
0.00257336
0.00184308
0.00111026
0.000375351
-0.000361219
-0.00109902
-0.00183763
-0.00257661
-0.00331551
-0.00405388
-0.00479122
-0.00552714
0.00831735
0.00762325
0.00692071
0.00621345
0.0055021
0.00478621
0.00406558
0.00334049
0.00261146
0.00187902
0.00114368
0.000405877
-0.000333946
-0.00107534
-0.00181786
-0.00256105
-0.00330448
-0.00404775
-0.00479053
-0.00553249
0.00840969
0.00771191
0.00700416
0.0062918
0.00557565
0.00485492
0.00412912
0.00339845
0.00266351
0.0019249
0.00118316
0.000438756
-0.00030786
-0.00105623
-0.00180587
-0.00255632
-0.00330708
-0.00405766
-0.00480752
-0.00555615
0.00854434
0.0078395
0.00712262
0.00640147
0.00567725
0.00494868
0.00421484
0.00347583
0.00273229
0.00198491
0.00123426
0.000480834
-0.000274928
-0.00103255
-0.00179154
-0.00255139
-0.00331161
-0.00407171
-0.00483121
-0.00558973
0.00871925
0.00800421
0.00727467
0.00654146
0.00580624
0.00506705
0.00432243
0.00357231
0.0028174
0.00205851
0.00129625
0.000531116
-0.000236448
-0.00100596
-0.00177692
-0.00254881
-0.00332112
-0.00409333
-0.00486494
-0.00563549
0.00893278
0.00820456
0.00745891
0.00671046
0.00596137
0.00520885
0.00445074
0.0036868
0.00291785
0.00214481
0.00136837
0.000588994
-0.000192855
-0.0009767
-0.00176203
-0.0025483
-0.00333499
-0.00412157
-0.00490751
-0.0056924
0.00918347
0.00843915
0.00767408
0.00690732
0.0061416
0.00537314
0.00459897
0.00381863
0.00303309
0.00224339
0.00145029
0.00065426
-0.000144259
-0.00094479
-0.00174681
-0.00254976
-0.00335312
-0.00415632
-0.00495885
-0.0057603
0.00947003
0.00870681
0.00791909
0.00713107
0.0063461
0.00555919
0.00476646
0.00396723
0.0031626
0.00235381
0.00154165
0.000726598
-9.09219e-05
-0.000910442
-0.00173143
-0.00255332
-0.00337556
-0.00419759
-0.00501889
-0.00583906
0.00979142
0.00900653
0.00819302
0.0073809
0.00657413
0.00576636
0.00495263
0.00413206
0.00330592
0.00247564
0.00164209
0.00080571
-3.30907e-05
-0.000873851
-0.00171603
-0.00255906
-0.00340236
-0.00424539
-0.0050876
-0.00592863
0.0101468
0.00933748
0.00849513
0.00765612
0.00682508
0.00599407
0.00515698
0.00431267
0.00346265
0.00260855
0.00175129
0.000891322
2.90008e-05
-0.000835216
-0.00170078
-0.00256711
-0.00343364
-0.00429979
-0.00516503
-0.00602902
0.0105353
0.00969899
0.00882477
0.00795616
0.00709844
0.00624189
0.00537909
0.00450868
0.00363243
0.0027522
0.00186898
0.000983177
9.51236e-05
-0.00079474
-0.00168586
-0.00257765
-0.00346952
-0.00436091
-0.00525126
-0.00614031
0.0109566
0.0100905
0.00918143
0.00828056
0.0073938
0.00650943
0.00561861
0.00471976
0.00381496
0.00290631
0.00199488
0.00108104
0.000165058
-0.000752625
-0.00167145
-0.00259083
-0.00351016
-0.00442888
-0.00534643
-0.00626261
0.0114102
0.0105117
0.00956473
0.00862896
0.00771084
0.0067964
0.00587526
0.00494565
0.00400998
0.00307065
0.00212878
0.00118469
0.000238595
-0.000709073
-0.00165775
-0.00260684
-0.00355574
-0.00450388
-0.00545072
-0.0063961
0.0118958
0.0109622
0.0099744
0.0090011
0.00804934
0.00710258
0.00614883
0.00518612
0.00421728
0.00324501
0.00227047
0.00129392
0.000315537
-0.00066428
-0.00164496
-0.00262588
-0.00360646
-0.00458612
-0.00556432
-0.00654098
0.0124133
0.0114419
0.0104103
0.00939684
0.00840913
0.00742783
0.00643917
0.00544104
0.00443671
0.00342922
0.00241978
0.00140857
0.0003957
-0.000618439
-0.00163327
-0.00264817
-0.00366254
-0.00467582
-0.00568747
-0.00669749
0.0129626
0.0119508
0.0108723
0.0098161
0.00879017
0.00777209
0.00674621
0.00571028
0.00466814
0.00362316
0.00257657
0.00152847
0.000478911
-0.000571735
-0.00162288
-0.0026739
-0.00372421
-0.00477322
-0.00582042
-0.00686591
0.0135441
0.012489
0.0113605
0.0102589
0.00919246
0.00813535
0.0070699
0.00599381
0.0049115
0.00382672
0.00274071
0.00165349
0.000565013
-0.000524349
-0.001614
-0.00270332
-0.0037917
-0.00487859
-0.00596346
-0.00704652
0.0141578
0.0130567
0.011875
0.0107254
0.00961612
0.00851769
0.0074103
0.00629162
0.00516676
0.00403984
0.00291213
0.0017835
0.00065386
-0.000476454
-0.00160683
-0.00273664
-0.00386528
-0.0049922
-0.00611688
-0.00723967
0.0148042
0.0136542
0.0124162
0.0112157
0.0100613
0.00891925
0.00776749
0.00660376
0.00543393
0.0042625
0.00309076
0.00191842
0.000745322
-0.000428215
-0.00160156
-0.00277409
-0.0039452
-0.00511435
-0.00628101
-0.00744571
0.0154837
0.0142819
0.0129842
0.0117302
0.0105283
0.00934024
0.00814163
0.00693034
0.00571305
0.00449471
0.00327656
0.00205817
0.00083928
-0.000379791
-0.0015984
-0.00281592
-0.00403174
-0.00524535
-0.00645621
-0.00766502
0.0161971
0.0149404
0.0135797
0.0122693
0.0110174
0.00978094
0.00853294
0.00727151
0.00600424
0.00473652
0.00346954
0.00220269
0.000935629
-0.000331337
-0.00159755
-0.00286236
-0.0041252
-0.00538553
-0.00664283
-0.00789801
0.016945
0.0156304
0.014203
0.0128334
0.011529
0.0102417
0.00894169
0.00762746
0.00630762
0.004988
0.00366971
0.00235195
0.00103428
-0.000282997
-0.0015992
-0.00291367
-0.00422586
-0.00553524
-0.00684126
-0.0081451
0.0177284
0.0163525
0.0148549
0.013423
0.0120637
0.0107229
0.00936821
0.00799845
0.00662337
0.00524927
0.00387713
0.00250593
0.00113514
-0.000234914
-0.00160355
-0.00297011