/*--------------------------------*- C++ -*----------------------------------*\
  =========                 |
  \\      /  F ield         | OpenFOAM: The Open Source CFD Toolbox
   \\    /   O peration     | Website:  https://openfoam.org
    \\  /    A nd           | Version:  7
     \\/     M anipulation  |
\*---------------------------------------------------------------------------*/
FoamFile
{
    version     2.0;
    format      ascii;
    class       surfaceScalarField;
    location    "10";
    object      phi;
}
// * * * * * * * * * * * * * * * * * * * * * * * * * * * * * * * * * * * * * //

dimensions      [0 3 -1 0 0 0 0];

internalField   nonuniform List<scalar> 
615
(
0.000316242
2.74825e-06
0.000315354
2.72918e-06
0.000314474
2.71034e-06
0.000313602
2.69172e-06
0.000312738
2.67332e-06
0.000311882
2.65514e-06
0.000311033
2.63714e-06
0.000310193
2.61935e-06
0.00030936
2.60173e-06
0.000308534
2.58429e-06
0.000307717
2.56701e-06
0.000306906
2.5499e-06
0.000306103
2.53293e-06
0.000305307
2.51612e-06
0.000304519
2.49944e-06
0.000303737
2.4829e-06
0.000302963
2.46648e-06
0.000302195
2.45018e-06
0.000301434
2.434e-06
0.000300681
2.41793e-06
0.000299934
2.40196e-06
0.000299193
2.3861e-06
0.00029846
2.37032e-06
0.000297733
2.35465e-06
0.000297012
2.33905e-06
0.000296298
2.32355e-06
0.00029559
2.30812e-06
0.000294889
2.29277e-06
0.000294194
2.27749e-06
0.000293505
2.26228e-06
0.000292822
2.24714e-06
0.000292146
2.23207e-06
0.000291475
2.21706e-06
0.000290811
2.2021e-06
0.000290152
2.18721e-06
0.000289499
2.17237e-06
0.000288852
2.15759e-06
0.000288211
2.14286e-06
0.000287576
2.12818e-06
0.000286946
2.11354e-06
0.000286322
2.09896e-06
0.000285704
2.08442e-06
0.000285091
2.06993e-06
0.000284484
2.05549e-06
0.000283882
2.04109e-06
0.000283285
2.02673e-06
0.000282694
2.01241e-06
0.000282108
1.99814e-06
0.000281528
1.98391e-06
0.000280952
1.96972e-06
0.000280382
1.95557e-06
0.000279817
1.94146e-06
0.000279257
1.92739e-06
0.000278703
1.91336e-06
0.000278153
1.89937e-06
0.000277608
1.88542e-06
0.000277068
1.87151e-06
1.85764e-06
0.000370516
4.13682e-06
0.000369325
4.10164e-06
0.000368147
4.06693e-06
0.000366983
4.03269e-06
0.000365831
3.99891e-06
0.000364693
3.96557e-06
0.000363567
3.93267e-06
0.000362454
3.9002e-06
0.000361354
3.86814e-06
0.000360265
3.8365e-06
0.000359189
3.80524e-06
0.000358125
3.77438e-06
0.000357073
3.74389e-06
0.000356033
3.71376e-06
0.000355004
3.68399e-06
0.000353986
3.65457e-06
0.00035298
3.62547e-06
0.000351985
3.5967e-06
0.000351001
3.56825e-06
0.000350028
3.5401e-06
0.000349066
3.51225e-06
0.000348114
3.48468e-06
0.000347173
3.45739e-06
0.000346242
3.43038e-06
0.000345321
3.40362e-06
0.00034441
3.37712e-06
0.00034351
3.35087e-06
0.000342619
3.32485e-06
0.000341738
3.29907e-06
0.000340866
3.27351e-06
0.000340004
3.24817e-06
0.000339151
3.22305e-06
0.000338308
3.19813e-06
0.000337474
3.17341e-06
0.000336648
3.14889e-06
0.000335832
3.12456e-06
0.000335024
3.10041e-06
0.000334225
3.07645e-06
0.000333435
3.05266e-06
0.000332653
3.02904e-06
0.000331879
3.00559e-06
0.000331114
2.98231e-06
0.000330357
2.95918e-06
0.000329608
2.93621e-06
0.000328867
2.9134e-06
0.000328134
2.89073e-06
0.000327409
2.86821e-06
0.000326691
2.84584e-06
0.000325981
2.8236e-06
0.000325278
2.8015e-06
0.000324583
2.77954e-06
0.000323895
2.75771e-06
0.000323215
2.73601e-06
0.000322542
2.71444e-06
0.000321875
2.693e-06
0.000321216
2.67168e-06
0.000320564
2.65049e-06
0.000319918
2.62942e-06
0.000319279
2.60846e-06
0.000318647
2.58763e-06
0.000318022
2.56691e-06
0.000317403
2.54631e-06
0.000316791
2.52582e-06
0.000316184
2.50545e-06
0.000315585
2.48518e-06
0.000314991
2.46503e-06
2.44499e-06
0.000408882
5.55705e-06
0.00040748
5.50289e-06
0.000406098
5.44946e-06
0.000404734
5.39676e-06
0.000403388
5.34477e-06
0.00040206
5.29348e-06
0.00040075
5.24289e-06
0.000399457
5.19298e-06
0.000398182
5.14373e-06
0.000396923
5.09514e-06
0.000395681
5.04719e-06
0.000394455
4.99986e-06
0.000393246
4.95316e-06
0.000392053
4.90705e-06
0.000390875
4.86154e-06
0.000389713
4.81659e-06
0.000388567
4.77221e-06
0.000387435
4.72839e-06
0.000386318
4.68509e-06
0.000385216
4.64233e-06
0.000384128
4.60007e-06
0.000383054
4.55832e-06
0.000381995
4.51705e-06
0.000380949
4.47626e-06
0.000379917
4.43594e-06
0.000378898
4.39608e-06
0.000377892
4.35666e-06
0.000376899
4.31768e-06
0.000375919
4.27912e-06
0.000374951
4.24097e-06
0.000373996
4.20324e-06
0.000373053
4.1659e-06
0.000372123
4.12895e-06
0.000371204
4.09238e-06
0.000370296
4.05618e-06
0.000369401
4.02035e-06
0.000368516
3.98487e-06
0.000367643
3.94974e-06
0.000366781
3.91496e-06
0.000365929
3.88051e-06
0.000365088
3.84638e-06
0.000364258
3.81258e-06
0.000363438
3.77909e-06
0.000362628
3.74592e-06
0.000361829
3.71304e-06
0.000361039
3.68047e-06
0.000360259
3.64818e-06
0.000359489
3.61618e-06
0.000358728
3.58447e-06
0.000357976
3.55303e-06
0.000357234
3.52186e-06
0.000356501
3.49096e-06
0.000355776
3.46032e-06
0.000355061
3.42994e-06
0.000354354
3.39982e-06
0.000353656
3.36994e-06
0.000352966
3.34031e-06
0.000352285
3.31093e-06
0.000351611
3.28178e-06
0.000350946
3.25287e-06
0.000350289
3.22418e-06
0.000349639
3.19573e-06
0.000348998
3.16751e-06
0.000348364
3.1395e-06
0.000347737
3.11172e-06
0.000347118
3.08415e-06
3.05679e-06
0.000438219
7.1483e-06
0.000436652
7.06942e-06
0.00043511
6.99168e-06
0.000433592
6.91506e-06
0.000432097
6.83954e-06
0.000430625
6.76511e-06
0.000429176
6.69176e-06
0.00042775
6.61946e-06
0.000426345
6.5482e-06
0.000424963
6.47796e-06
0.000423601
6.40873e-06
0.00042226
6.34048e-06
0.00042094
6.27319e-06
0.000419641
6.20686e-06
0.000418361
6.14145e-06
0.0004171
6.07696e-06
0.000415859
6.01336e-06
0.000414637
5.95064e-06
0.000413433
5.88877e-06
0.000412248
5.82775e-06
0.00041108
5.76755e-06
0.000409931
5.70816e-06
0.000408798
5.64956e-06
0.000407683
5.59173e-06
0.000406584
5.53466e-06
0.000405502
5.47834e-06
0.000404436
5.42274e-06
0.000403385
5.36786e-06
0.000402351
5.31367e-06
0.000401332
5.26017e-06
0.000400327
5.20734e-06
0.000399338
5.15517e-06
0.000398363
5.10365e-06
0.000397403
5.05275e-06
0.000396457
5.00247e-06
0.000395524
4.9528e-06
0.000394606
4.90373e-06
0.0003937
4.85524e-06
0.000392808
4.80732e-06
0.000391928
4.75996e-06
0.000391061
4.71315e-06
0.000390207
4.66688e-06
0.000389365
4.62114e-06
0.000388535
4.57593e-06
0.000387717
4.53122e-06
0.00038691
4.48701e-06
0.000386115
4.44329e-06
0.000385331
4.40006e-06
0.000384559
4.35729e-06
0.000383797
4.315e-06
0.000383045
4.27316e-06
0.000382304
4.23177e-06
0.000381574
4.19082e-06
0.000380854
4.1503e-06
0.000380143
4.11021e-06
0.000379443
4.07054e-06
0.000378752
4.03128e-06
0.00037807
3.99243e-06
0.000377398
3.95397e-06
0.000376735
3.9159e-06
0.000376081
3.87822e-06
0.000375436
3.84092e-06
0.000374799
3.80399e-06
0.000374171
3.76743e-06
0.000373552
3.73122e-06
0.000372941
3.69537e-06
3.65988e-06
0.000457253
8.83212e-06
0.000455599
8.72342e-06
0.000453975
8.6164e-06
0.000452379
8.51104e-06
0.000450811
8.40731e-06
0.000449271
8.3052e-06
0.000447758
8.20468e-06
0.000446272
8.10572e-06
0.000444811
8.0083e-06
0.000443377
7.91239e-06
0.000441968
7.81797e-06
0.000440583
7.72501e-06
0.000439223
7.63348e-06
0.000437886
7.54336e-06
0.000436573
7.45462e-06
0.000435283
7.36724e-06
0.000434015
7.28119e-06
0.000432769
7.19644e-06
0.000431545
0.000430342
0.00042916
0.000427998
0.000426856
0.000425734
0.000424631
0.000423547
0.000422481
0.000421434
0.000420404
0.000419391
0.000418396
0.000417418
0.000416456
0.00041551
0.00041458
0.000413665
0.000412766
0.000411881
0.000411011
0.000410156
0.000409314
0.000408487
0.000407672
0.000406871
0.000406083
0.000405308
0.000404545
0.000403795
0.000403056
0.00040233
0.000401614
0.000400911
0.000400218
0.000399536
0.000398865
0.000398204
0.000397554
0.000396913
0.000396283
0.000395662
0.000395051
0.000394449
0.000393856
0.000393273
0.000392698
0.000392132
0.000465123
0.00046349
0.000461889
0.000460321
0.000458783
0.000457276
0.0004558
0.000454352
0.000452934
0.000451543
0.000450181
0.000448845
0.000447535
0.000446252
0.000444994
0.00044376
0.000442551
)
;

boundaryField
{
    inlet
    {
        type            calculated;
        value           nonuniform 0();
    }
    outlet
    {
        type            calculated;
        value           nonuniform 0();
    }
    wall
    {
        type            calculated;
        value           nonuniform 0();
    }
    wedge1
    {
        type            wedge;
        value           nonuniform List<scalar> 
344
(
-5.99297e-16
-1.02898e-16
-8.26819e-16
-1.34131e-16
-1.02084e-15
-5.94468e-16
-1.01945e-16
-8.18147e-16
-1.32552e-16
-1.00757e-15
-5.89705e-16
-1.01003e-16
-8.09591e-16
-1.30998e-16
-9.94511e-16
-5.85013e-16
-1.00074e-16
-8.01162e-16
-1.29469e-16
-9.81668e-16
-5.80376e-16
-9.91678e-17
-7.92844e-16
-1.27967e-16
-9.69026e-16
-5.75815e-16
-9.82671e-17
-7.84652e-16
-1.26485e-16
-9.56598e-16
-5.71309e-16
-9.73772e-17
-7.76571e-16
-1.25025e-16
-9.44364e-16
-5.6687e-16
-9.65062e-17
-7.68607e-16
-1.2359e-16
-9.32336e-16
-5.62483e-16
-9.5638e-17
-7.6075e-16
-1.22171e-16
-9.20494e-16
-6.63694e-17
-5.58152e-16
-9.47891e-17
-7.53e-16
-1.20778e-16
-9.08846e-16
-6.59331e-17
-5.53881e-16
-9.39452e-17
-7.4536e-16
-1.19402e-16
-8.97386e-16
-6.55062e-17
-5.49653e-16
-9.31112e-17
-7.37819e-16
-1.18047e-16
-8.8611e-16
-6.50828e-17
-5.45486e-16
-9.22862e-17
-7.3039e-16
-1.16709e-16
-8.75019e-16
-6.46605e-17
-5.41359e-16
-9.14869e-17
-7.23053e-16
-1.15404e-16
-8.64103e-16
-6.42447e-17
-5.37287e-16
-9.06837e-17
-7.15822e-16
-1.14108e-16
-8.53363e-16
-6.38424e-17
-5.33277e-16
-8.9896e-17
-7.08696e-16
-1.12835e-16
-8.42805e-16
-6.34324e-17
-5.293e-16
-8.91072e-17
-7.01658e-16
-1.1157e-16
-8.32407e-16
-6.30291e-17
-5.25345e-16
-8.83497e-17
-6.94699e-16
-1.10342e-16
-8.22167e-16
-6.26321e-17
-5.21454e-16
-8.75796e-17
-6.87847e-16
-1.09116e-16
-6.22443e-17
-5.17602e-16
-8.68267e-17
-6.8108e-16
-1.07914e-16
-6.18549e-17
-5.13796e-16
-8.60735e-17
-6.74408e-16
-1.06721e-16
-6.14671e-17
-5.09998e-16
-8.53484e-17
-6.67799e-16
-1.05561e-16
-6.10883e-17
-5.06265e-16
-8.46175e-17
-6.61293e-16
-1.04407e-16
-6.07122e-17
-5.02573e-16
-8.39021e-17
-6.54876e-16
-1.03276e-16
-6.0336e-17
-4.98903e-16
-8.31854e-17
-6.48529e-16
-1.02154e-16
-5.99623e-17
-4.95261e-16
-8.24844e-17
-6.42258e-16
-1.01054e-16
-5.95934e-17
-4.91659e-16
-8.17849e-17
-6.3607e-16
-9.99628e-17
-5.92301e-17
-4.88079e-16
-8.10934e-17
-6.29948e-16
-9.88876e-17
-5.88624e-17
-4.84543e-16
-8.04091e-17
-6.23913e-16
-9.7826e-17
-5.85016e-17
-4.81018e-16
-7.97483e-17
-6.17937e-16
-9.67926e-17
-5.81416e-17
-4.77537e-16
-7.90818e-17
-6.12043e-16
-9.57639e-17
-5.77913e-17
-4.74077e-16
-7.84193e-17
-6.06214e-16
-9.4749e-17
-5.74365e-17
-4.70651e-16
-7.77708e-17
-6.00461e-16
-9.37528e-17
-5.70824e-17
-4.67242e-16
-7.71179e-17
-5.94765e-16
-9.27617e-17
-5.673e-17
-4.63848e-16
-7.64789e-17
-5.89129e-16
-9.17889e-17
-5.63798e-17
-4.60486e-16
-7.58388e-17
-5.83565e-16
-9.08221e-17
-5.60308e-17
-4.57137e-16
-7.52041e-17
-5.78052e-16
-8.98703e-17
-5.56809e-17
-4.53825e-16
-7.45744e-17
-5.72616e-16
-8.89293e-17
-5.53331e-17
-4.5052e-16
-7.39715e-17
-5.67226e-16
-8.80164e-17
-5.49902e-17
-4.47244e-16
-7.33566e-17
-5.61904e-16
-8.71029e-17
-5.46506e-17
-4.44002e-16
-7.27522e-17
-5.56648e-16
-8.62035e-17
-5.43038e-17
-4.4077e-16
-7.21382e-17
-5.51442e-16
-8.53052e-17
-5.39589e-17
-4.37528e-16
-7.15551e-17
-5.4627e-16
-8.44387e-17
-5.36145e-17
-4.34328e-16
-7.09518e-17
-5.41172e-16
-8.35639e-17
-5.32796e-17
-4.31146e-16
-7.0364e-17
-5.3612e-16
-8.27064e-17
-5.29386e-17
-4.2799e-16
-6.97712e-17
-5.31133e-16
-8.18499e-17
-5.25948e-17
-4.24816e-16
-6.92043e-17
-5.2617e-16
-8.10236e-17
-5.22612e-17
-4.21692e-16
-6.8629e-17
-5.21281e-16
-8.01949e-17
-5.19259e-17
-4.1859e-16
-6.80649e-17
-5.16448e-16
-7.93827e-17
-5.15914e-17
-4.15493e-16
-6.74935e-17
-5.11651e-16
-7.85722e-17
-5.12586e-17
-4.12402e-16
-6.69361e-17
-5.06898e-16
-7.77766e-17
-5.0924e-17
-4.09339e-16
-6.6376e-17
-5.02197e-16
-7.69848e-17
-5.05932e-17
-4.06276e-16
-6.58195e-17
-4.97533e-16
-7.62047e-17
-5.02562e-17
-4.03246e-16
-6.52666e-17
-4.92931e-16
-7.54327e-17
-4.9925e-17
-4.00211e-16
-6.47375e-17
-4.88358e-16
-7.46845e-17
-4.95902e-17
-3.97205e-16
-6.41972e-17
-4.83842e-16
-7.39326e-17
-4.92628e-17
-3.94212e-16
-6.36611e-17
-4.79364e-16
-7.31894e-17
-4.8935e-17
-3.9124e-16
-6.3134e-17
-4.74935e-16
-7.24603e-17
-4.86073e-17
-3.88272e-16
-6.26004e-17
-4.7054e-16
-7.17301e-17
-4.82795e-17
-3.85311e-16
-6.20808e-17
-4.66181e-16
-7.10159e-17
-4.79488e-17
-3.82373e-16
-6.15558e-17
-4.61871e-16
-7.03035e-17
-4.76189e-17
-3.79435e-16
-6.10369e-17
-4.57589e-16
-6.96001e-17
-4.72892e-17
-3.76526e-16
-6.05181e-17
-4.53363e-16
-6.89026e-17
-4.69594e-17
-3.73612e-16
-6.00213e-17
-4.49158e-16
-6.82271e-17
-4.66338e-17
-3.70724e-16
-5.9512e-17
-4.45001e-16
-6.75443e-17
-4.63134e-17
-3.67859e-16
-5.90117e-17
-4.40889e-16
-6.68744e-17
-4.59811e-17
-3.65001e-16
-5.85017e-17
-4.36809e-16
-6.62021e-17
)
;
    }
    wedge2
    {
        type            wedge;
        value           nonuniform List<scalar> 
344
(
-5.98931e-16
-1.02675e-16
-8.26757e-16
-1.34231e-16
-1.02108e-15
-5.9411e-16
-1.01726e-16
-8.18082e-16
-1.32649e-16
-1.0078e-15
-5.89358e-16
-1.00792e-16
-8.09532e-16
-1.31091e-16
-9.94736e-16
-5.84666e-16
-9.98701e-17
-8.01094e-16
-1.29555e-16
-9.81876e-16
-5.80047e-16
-9.89493e-17
-7.9278e-16
-1.28036e-16
-9.6923e-16
-5.75478e-16
-9.80483e-17
-7.84573e-16
-1.26543e-16
-9.56778e-16
-5.70978e-16
-9.71601e-17
-7.76485e-16
-1.25073e-16
-9.44535e-16
-5.66528e-16
-9.62773e-17
-7.68505e-16
-1.23622e-16
-9.32482e-16
-5.62144e-16
-9.54147e-17
-7.60641e-16
-1.22199e-16
-9.20632e-16
-6.59792e-17
-5.57817e-16
-9.45557e-17
-7.52888e-16
-1.20792e-16
-9.08974e-16
-6.55485e-17
-5.5354e-16
-9.37136e-17
-7.4524e-16
-1.1941e-16
-8.97502e-16
-6.51204e-17
-5.49326e-16
-9.28837e-17
-7.37703e-16
-1.1805e-16
-8.86218e-16
-6.4699e-17
-5.45154e-16
-9.20652e-17
-7.30261e-16
-1.16711e-16
-8.75112e-16
-6.42876e-17
-5.41043e-16
-9.12428e-17
-7.22928e-16
-1.15379e-16
-8.64189e-16
-6.38795e-17
-5.36973e-16
-9.04439e-17
-7.1569e-16
-1.14078e-16
-8.5344e-16
-6.34672e-17
-5.32934e-16
-8.96496e-17
-7.0854e-16
-1.12793e-16
-8.42854e-16
-6.30714e-17
-5.28953e-16
-8.8876e-17
-7.01493e-16
-1.11536e-16
-8.32446e-16
-6.26779e-17
-5.25037e-16
-8.80892e-17
-6.94553e-16
-1.10281e-16
-8.2221e-16
-6.22861e-17
-5.21141e-16
-8.73334e-17
-6.8769e-16
-1.09058e-16
-6.18929e-17
-5.17287e-16
-8.65783e-17
-6.8092e-16
-1.07848e-16
-6.15081e-17
-5.13466e-16
-8.58414e-17
-6.7423e-16
-1.06663e-16
-6.11296e-17
-5.09714e-16
-8.50932e-17
-6.67649e-16
-1.0548e-16
-6.07481e-17
-5.05968e-16
-8.43667e-17
-6.61132e-16
-1.04323e-16
-6.03701e-17
-5.02252e-16
-8.36414e-17
-6.54691e-16
-1.03177e-16
-5.99981e-17
-4.98582e-16
-8.29332e-17
-6.48339e-16
-1.02053e-16
-5.96292e-17
-4.94952e-16
-8.22244e-17
-6.4207e-16
-1.00939e-16
-5.92604e-17
-4.91343e-16
-8.15285e-17
-6.35871e-16
-9.98472e-17
-5.88914e-17
-4.87773e-16
-8.08396e-17
-6.29756e-16
-9.87694e-17
-5.85312e-17
-4.84219e-16
-8.01577e-17
-6.23702e-16
-9.77076e-17
-5.81687e-17
-4.8071e-16
-7.94657e-17
-6.17733e-16
-9.66466e-17
-5.78089e-17
-4.77213e-16
-7.87936e-17
-6.11823e-16
-9.56095e-17
-5.74443e-17
-4.73747e-16
-7.81301e-17
-6.05987e-16
-9.45865e-17
-5.7087e-17
-4.703e-16
-7.74658e-17
-6.00209e-16
-9.35719e-17
-5.67328e-17
-4.66885e-16
-7.68177e-17
-5.94509e-16
-9.25789e-17
-5.63799e-17
-4.63503e-16
-7.61683e-17
-5.88877e-16
-9.15943e-17
-5.6028e-17
-4.60135e-16
-7.55324e-17
-5.83301e-16
-9.06287e-17
-5.56779e-17
-4.56799e-16
-7.49023e-17
-5.77799e-16
-8.9674e-17
-5.53311e-17
-4.5347e-16
-7.42785e-17
-5.72341e-16
-8.87331e-17
-5.49847e-17
-4.50177e-16
-7.36394e-17
-5.66958e-16
-8.77883e-17
-5.46359e-17
-4.46895e-16
-7.30226e-17
-5.61624e-16
-8.68679e-17
-5.42861e-17
-4.43619e-16
-7.24063e-17
-5.56338e-16
-8.59568e-17
-5.39457e-17
-4.40372e-16
-7.18099e-17
-5.51117e-16
-8.50674e-17
-5.36052e-17
-4.37173e-16
-7.11929e-17
-5.45971e-16
-8.41685e-17
-5.32661e-17
-4.33968e-16
-7.06059e-17
-5.40861e-16
-8.33005e-17
-5.29194e-17
-4.30781e-16
-7.00134e-17
-5.3581e-16
-8.24363e-17
-5.25803e-17
-4.27603e-16
-6.94356e-17
-5.308e-16
-8.15929e-17
-5.22459e-17
-4.24477e-16
-6.8841e-17
-5.25868e-16
-8.07393e-17
-5.19028e-17
-4.21334e-16
-6.8264e-17
-5.20962e-16
-7.99092e-17
-5.15628e-17
-4.18202e-16
-6.76853e-17
-5.161e-16
-7.90824e-17
-5.12232e-17
-4.15097e-16
-6.71219e-17
-5.11299e-16
-7.82732e-17
-5.08836e-17
-4.12016e-16
-6.65538e-17
-5.0655e-16
-7.74685e-17
-5.05468e-17
-4.08939e-16
-6.59972e-17
-5.01842e-16
-7.6679e-17
-5.02077e-17
-4.0589e-16
-6.54449e-17
-4.97189e-16
-7.5897e-17
-4.98762e-17
-4.02839e-16
-6.48974e-17
-4.92564e-16
-7.51246e-17
-4.95396e-17
-3.99821e-16
-6.43345e-17
-4.88e-16
-7.43465e-17
-4.92079e-17
-3.96802e-16
-6.37904e-17
-4.83467e-16
-7.35894e-17
-4.88702e-17
-3.938e-16
-6.32505e-17
-4.78981e-16
-7.28414e-17
-4.85337e-17
-3.90802e-16
-6.27089e-17
-4.74532e-16
-7.20959e-17
-4.81981e-17
-3.87829e-16
-6.21817e-17
-4.70131e-16
-7.13687e-17
-4.78641e-17
-3.84875e-16
-6.1648e-17
-4.65776e-16
-7.06414e-17
-4.75341e-17
-3.81926e-16
-6.11272e-17
-4.61454e-16
-6.99287e-17
-4.72044e-17
-3.79003e-16
-6.06076e-17
-4.57182e-16
-6.92229e-17
-4.68754e-17
-3.76077e-16
-6.0095e-17
-4.52933e-16
-6.85265e-17
-4.65476e-17
-3.73181e-16
-5.9568e-17
-4.4874e-16
-6.78235e-17
-4.62169e-17
-3.70285e-16
-5.906e-17
-4.44575e-16
-6.71428e-17
-4.5882e-17
-3.67391e-16
-5.85503e-17
-4.40439e-16
-6.64642e-17
-4.55599e-17
-3.64517e-16
-5.80571e-17
-4.36345e-16
-6.58022e-17
)
;
    }
    axis
    {
        type            empty;
        value           nonuniform 0();
    }
    procBoundary10to4
    {
        type            processor;
        value           nonuniform List<scalar> 
68
(
-1.85177e-06
-1.84095e-06
-1.83027e-06
-1.81972e-06
-1.80931e-06
-1.79902e-06
-1.78885e-06
-1.77878e-06
-1.76882e-06
-1.75895e-06
-1.74916e-06
-1.73946e-06
-1.72984e-06
-1.72028e-06
-1.7108e-06
-1.70137e-06
-1.69199e-06
-1.68267e-06
-1.6734e-06
-1.66416e-06
-1.65497e-06
-1.64581e-06
-1.63668e-06
-1.62758e-06
-1.61851e-06
-1.60945e-06
-1.60042e-06
-1.59141e-06
-1.58241e-06
-1.57342e-06
-1.56444e-06
-1.55547e-06
-1.54651e-06
-1.53756e-06
-1.52861e-06
-1.51967e-06
-1.51072e-06
-1.50178e-06
-1.49284e-06
-1.4839e-06
-1.47496e-06
-1.46601e-06
-1.45707e-06
-1.44812e-06
-1.43917e-06
-1.43022e-06
-1.42127e-06
-1.41231e-06
-1.40335e-06
-1.39439e-06
-1.38543e-06
-1.37646e-06
-1.36749e-06
-1.35852e-06
-1.34955e-06
-1.34058e-06
-1.33161e-06
-1.32264e-06
-2.93205e-06
-2.91044e-06
-2.88915e-06
-2.86817e-06
-2.84748e-06
-2.82709e-06
-2.80698e-06
-2.78715e-06
-0.000317138
-2.76757e-06
)
;
    }
    procBoundary10to5
    {
        type            processor;
        value           uniform 0.000276533;
    }
    procBoundary10to9
    {
        type            processor;
        value           nonuniform List<scalar> 3(-0.000371721 -0.000410302 -0.00043981);
    }
    procBoundary10to11
    {
        type            processor;
        value           nonuniform List<scalar> 4(0.000314404 0.000346506 0.000372337 0.000391574);
    }
    procBoundary10to15
    {
        type            processor;
        value           nonuniform List<scalar> 2(-0.000458937 -0.000466789);
    }
    procBoundary10to16
    {
        type            processor;
        value           nonuniform List<scalar> 
68
(
7.11297e-06
7.03076e-06
6.94978e-06
6.87e-06
6.79141e-06
6.71398e-06
6.63769e-06
6.56251e-06
6.48842e-06
6.4154e-06
6.34344e-06
6.2725e-06
6.20258e-06
6.13364e-06
6.06567e-06
5.99866e-06
5.93257e-06
5.8674e-06
5.80313e-06
5.73974e-06
5.67721e-06
5.61552e-06
5.55466e-06
5.49462e-06
5.43537e-06
5.37691e-06
5.31921e-06
5.26226e-06
5.20606e-06
5.15058e-06
5.0958e-06
5.04173e-06
4.98834e-06
4.93562e-06
4.88357e-06
4.83215e-06
4.78138e-06
4.73123e-06
4.68169e-06
4.63275e-06
4.5844e-06
4.53663e-06
4.48943e-06
4.44279e-06
4.3967e-06
4.35114e-06
4.30612e-06
4.26162e-06
4.21763e-06
1.04984e-05
1.03565e-05
1.02169e-05
1.00796e-05
9.94465e-06
9.81192e-06
9.68141e-06
9.55308e-06
9.4269e-06
9.30282e-06
9.18081e-06
9.06083e-06
8.94285e-06
8.82683e-06
8.71273e-06
8.60053e-06
8.49017e-06
0.000441366
8.38164e-06
)
;
    }
}


// ************************************************************************* //
