/*--------------------------------*- C++ -*----------------------------------*\
  =========                 |
  \\      /  F ield         | OpenFOAM: The Open Source CFD Toolbox
   \\    /   O peration     | Website:  https://openfoam.org
    \\  /    A nd           | Version:  7
     \\/     M anipulation  |
\*---------------------------------------------------------------------------*/
FoamFile
{
    version     2.0;
    format      ascii;
    class       volVectorField;
    location    "4";
    object      U;
}
// * * * * * * * * * * * * * * * * * * * * * * * * * * * * * * * * * * * * * //

dimensions      [0 1 -1 0 0 0 0];

internalField   nonuniform List<vector> 
433
(
(0.033864 0.0123166 -2.58504e-21)
(0.0420206 0.0134211 6.78591e-21)
(0.033864 -0.0123164 2.58504e-21)
(0.0420205 -0.0134209 -6.78591e-21)
(0.0511554 -0.014469 2.1951e-21)
(0.0612815 -0.0154555 8.10369e-21)
(0.0724054 -0.0163756 -3.78939e-21)
(0.084527 -0.0172244 -1.4348e-21)
(0.097639 -0.0179976 5.54951e-21)
(0.111727 -0.0186914 -1.32819e-20)
(0.126767 -0.0193022 4.13512e-21)
(0.14273 -0.0198273 7.33268e-21)
(0.159578 -0.0202647 -4.77395e-21)
(0.177262 -0.0206129 -3.14861e-21)
(0.195731 -0.0208714 3.02061e-21)
(0.214922 -0.0210407 3.06755e-21)
(0.234769 -0.0211219 -5.40933e-21)
(0.255199 -0.0211172 3.8565e-21)
(0.276135 -0.0210298 1.19825e-21)
(0.297495 -0.0208638 4.67121e-21)
(0.319197 -0.0206238 6.07511e-21)
(0.341155 -0.0203155 2.23648e-21)
(0.363286 -0.0199453 -6.26752e-21)
(0.385506 -0.0195197 -2.60528e-21)
(0.407736 -0.019046 9.45233e-21)
(0.4299 -0.0185315 -5.38665e-21)
(0.451925 -0.0179836 -6.96767e-21)
(0.473746 -0.0174095 1.27567e-20)
(0.495303 -0.0168162 -4.29827e-21)
(0.516543 -0.0162105 -4.1387e-22)
(0.53742 -0.0155984 -2.5991e-22)
(0.557895 -0.0149847 4.96551e-21)
(0.577931 -0.0143738 -9.913e-21)
(0.0357138 -0.0368494 3.46188e-21)
(0.0440259 -0.0401554 -7.62341e-21)
(0.0533061 -0.043293 1.91466e-20)
(0.0635667 -0.0462468 2.46462e-21)
(0.0748136 -0.0490018 -1.61094e-20)
(0.0870464 -0.0515439 -5.48614e-21)
(0.100257 -0.0538602 -1.24337e-20)
(0.114431 -0.0559388 2.68682e-20)
(0.129545 -0.0577695 -3.59481e-21)
(0.145568 -0.059344 -5.59677e-21)
(0.162462 -0.0606559 9.40589e-21)
(0.18018 -0.0617011 1.33455e-20)
(0.19867 -0.0624781 -6.30951e-21)
(0.21787 -0.0629878 1.1943e-20)
(0.237714 -0.063234 -3.33167e-20)
(0.258129 -0.0632233 2.55835e-20)
(0.279039 -0.0629647 -1.91115e-20)
(0.300363 -0.0624704 -9.14639e-21)
(0.32202 -0.0617548 5.55396e-21)
(0.343925 -0.0608345 3.03944e-21)
(0.365995 -0.0597283 2.72356e-21)
(0.388148 -0.0584563 8.06504e-21)
(0.410306 -0.0570399 -9.98393e-22)
(0.432393 -0.0555009 2.68664e-22)
(0.454338 -0.0538615 -1.31411e-20)
(0.476076 -0.0521435 2.94586e-20)
(0.497549 -0.0503678 -2.21714e-20)
(0.518703 -0.0485544 7.9674e-21)
(0.539496 -0.0467216 -2.31868e-21)
(0.559888 -0.0448835 -4.26995e-21)
(0.579831 -0.043054 2.58176e-20)
(0.0393935 -0.0610836 3.25434e-20)
(0.0480154 -0.0665687 -3.75328e-20)
(0.0575851 -0.0717756 -1.70513e-21)
(0.0681136 -0.0766788 -5.36197e-21)
(0.0796058 -0.0812534 2.64777e-20)
(0.0920602 -0.0854759 -1.96526e-20)
(0.105468 -0.0893248 -1.5056e-20)
(0.119814 -0.0927805 1.99699e-20)
(0.135073 -0.0958258 -1.62835e-20)
(0.151216 -0.0984468 1.84218e-20)
(0.168204 -0.100633 -6.83815e-21)
(0.185991 -0.102377 -1.58267e-20)
(0.204523 -0.103676 -2.6932e-20)
(0.223741 -0.104533 5.18348e-20)
(0.243578 -0.104952 -3.04159e-20)
(0.263964 -0.104944 1.57228e-20)
(0.284824 -0.104525 9.62467e-21)
(0.306078 -0.103715 -3.14039e-20)
(0.327645 -0.102536 3.31573e-20)
(0.349445 -0.101017 -2.42747e-20)
(0.371395 -0.0991889 -1.22001e-20)
(0.393416 -0.0970845 -1.87029e-20)
(0.41543 -0.0947392 3.22984e-21)
(0.437365 -0.0921895 3.2165e-20)
(0.459151 -0.089472 1.87725e-20)
(0.480725 -0.0866227 -1.76206e-20)
(0.502029 -0.0836767 -1.43184e-20)
(0.523014 -0.080667 -5.46546e-20)
(0.543638 -0.0776238 4.26109e-20)
(0.563865 -0.0745704 -7.56965e-20)
(0.583623 -0.0715325 6.79249e-20)
(0.0539467 -0.09245 1.64822e-20)
(0.0639476 -0.0996928 -8.44427e-20)
(0.0748754 -0.106516 7.24774e-20)
(0.0867334 -0.112884 -9.7341e-21)
(0.0995183 -0.118766 -3.95446e-20)
(0.11322 -0.12413 1.12088e-20)
(0.127823 -0.12895 1.45615e-20)
(0.143301 -0.133201 5.17749e-20)
(0.159624 -0.136864 -5.67232e-20)
(0.176754 -0.139923 4.40088e-20)
(0.194643 -0.142369 1.20825e-20)
(0.21324 -0.144198 1.07169e-21)
(0.232486 -0.14541 -3.62191e-20)
(0.252316 -0.146015 2.82296e-20)
(0.27266 -0.146026 -3.65464e-20)
(0.293446 -0.145465 5.10363e-20)
(0.314596 -0.144358 -3.58826e-20)
(0.336033 -0.142737 4.83781e-20)
(0.357677 -0.140642 3.83137e-20)
(0.379449 -0.138115 -5.6461e-20)
(0.401274 -0.135201 1.01139e-19)
(0.423076 -0.13195 -8.38339e-20)
(0.444785 -0.128412 4.37039e-20)
(0.466335 -0.124639 -1.87781e-20)
(0.487666 -0.12068 -1.83886e-20)
(0.508721 -0.116583 7.10787e-21)
(0.529453 -0.112396 -7.09927e-20)
(0.549826 -0.10816 2.58876e-20)
(0.56981 -0.103906 9.24889e-20)
(0.589292 -0.0996766 -8.44481e-20)
(0.0617568 -0.117593 6.91786e-20)
(0.0723269 -0.126826 -5.25079e-20)
(0.0837822 -0.135527 -4.08269e-20)
(0.0961237 -0.143654 4.82696e-20)
(0.109346 -0.151165 -4.60253e-20)
(0.123438 -0.15802 7.72343e-20)
(0.138382 -0.164186 -1.7216e-20)
(0.154151 -0.16963 -1.14003e-20)
(0.170714 -0.174328 9.48973e-21)
(0.188033 -0.17826 -3.63925e-20)
(0.206061 -0.181412 4.80452e-20)
(0.224747 -0.183778 7.59781e-21)
(0.244033 -0.185361 3.4351e-20)
(0.263856 -0.186169 -8.58695e-20)
(0.284148 -0.186221 9.2915e-21)
(0.30484 -0.185542 3.44984e-20)
(0.325856 -0.184165 -1.04536e-19)
(0.347123 -0.182132 8.38504e-20)
(0.368564 -0.179492 -1.80594e-20)
(0.390105 -0.176297 -9.00882e-21)
(0.411673 -0.172606 1.94697e-20)
(0.433196 -0.168482 -4.90279e-21)
(0.45461 -0.163988 -1.66739e-20)
(0.475851 -0.15919 -2.50393e-21)
(0.496862 -0.15415 -6.23116e-20)
(0.51759 -0.148932 3.66888e-20)
(0.537989 -0.143594 4.77571e-20)
(0.558033 -0.138188 -2.44426e-20)
(0.577695 -0.132755 -2.03563e-20)
(0.596816 -0.127357 5.56608e-20)
(0.082635 -0.152962 -3.20995e-20)
(0.0947419 -0.16349 -3.47625e-22)
(0.107681 -0.17333 2.49171e-20)
(0.121446 -0.182432 -6.09099e-20)
(0.136021 -0.190748 5.51251e-20)
(0.151388 -0.198235 -2.71346e-20)
(0.16752 -0.204857 -4.8512e-21)
(0.184383 -0.210581 -8.71231e-21)
(0.201939 -0.215383 -2.52093e-20)
(0.220143 -0.219246 1.06662e-19)
(0.238943 -0.222162 -6.41019e-20)
(0.258283 -0.224132 -7.3883e-20)
(0.278103 -0.225166 8.77264e-20)
(0.298336 -0.225285 -9.12923e-20)
(0.318916 -0.224519 1.12136e-19)
(0.339773 -0.222908 1.05113e-20)
(0.360834 -0.2205 -9.81842e-20)
(0.38203 -0.217354 6.45875e-20)
(0.403289 -0.213532 -1.46254e-20)
(0.424544 -0.209106 -8.19149e-20)
(0.445728 -0.20415 5.35589e-20)
(0.46678 -0.198741 -1.02359e-19)
(0.487642 -0.192957 3.13491e-20)
(0.508261 -0.186875 5.25192e-20)
(0.528587 -0.18057 1.26683e-20)
(0.54858 -0.174115 -1.9619e-20)
(0.568219 -0.16757 1.24933e-19)
(0.587486 -0.160986 2.2098e-20)
(0.606165 -0.154447 -2.31674e-20)
(0.107641 -0.190191 4.17042e-20)
(0.121288 -0.201689 -2.69281e-20)
(0.135695 -0.212335 7.24692e-22)
(0.150845 -0.222074 4.74737e-20)
(0.166716 -0.230855 -6.06304e-20)
(0.18328 -0.238634 -5.29848e-20)
(0.200504 -0.245373 9.97756e-20)
(0.218347 -0.251043 -2.55757e-20)
(0.236765 -0.255622 5.81495e-20)
(0.255707 -0.259101 -4.90947e-20)
(0.275118 -0.261478 -7.70602e-20)
(0.294941 -0.262765 1.61286e-19)
(0.315112 -0.262984 -6.24273e-20)
(0.335568 -0.262169 -4.32187e-20)
(0.356242 -0.260365 3.41339e-20)
(0.377068 -0.257628 -2.7865e-21)
(0.39798 -0.254023 -1.40837e-20)
(0.418913 -0.249625 2.58198e-20)
(0.439803 -0.244513 -7.58023e-21)
(0.460591 -0.238775 2.10885e-20)
(0.481221 -0.2325 -6.75388e-20)
(0.50164 -0.225778 6.18258e-20)
(0.5218 -0.2187 5.54283e-20)
(0.541656 -0.211354 -1.17408e-19)
(0.561171 -0.203822 1.113e-19)
(0.580335 -0.196177 -9.81528e-20)
(0.599139 -0.188472 -2.7786e-20)
(0.617301 -0.180829 -5.96756e-20)
(0.122344 -0.215428 9.35552e-20)
(0.136804 -0.228519 1.51261e-20)
(0.15195 -0.240656 -1.48423e-19)
(0.167762 -0.251773 5.517e-20)
(0.184217 -0.261814 -3.79052e-20)
(0.201283 -0.270727 5.65829e-20)
(0.218926 -0.278467 -5.31302e-20)
(0.237106 -0.285001 1.01808e-19)
(0.255777 -0.290302 -5.79929e-20)
(0.274891 -0.294358 -1.20039e-20)
(0.294394 -0.297166 2.29538e-20)
(0.31423 -0.298736 1.00076e-19)
(0.33434 -0.299093 -1.22675e-19)
(0.354664 -0.298273 1.70748e-20)
(0.375139 -0.296325 3.73016e-20)
(0.395705 -0.29331 -8.47531e-20)
(0.416301 -0.289303 6.93612e-20)
(0.436868 -0.284385 1.19906e-19)
(0.457349 -0.278646 -1.00772e-20)
(0.477691 -0.272185 -2.1438e-19)
(0.497845 -0.265103 1.13765e-19)
(0.517763 -0.2575 -7.98703e-20)
(0.537403 -0.249481 -3.75972e-20)
(0.556726 -0.241144 1.49177e-19)
(0.575698 -0.232585 -8.19037e-20)
(0.594323 -0.223882 -1.35939e-20)
(0.612601 -0.215097 1.26898e-19)
(0.630179 -0.206389 -7.74115e-20)
(0.15407 -0.253624 5.18262e-20)
(0.170046 -0.267188 -9.25585e-20)
(0.186605 -0.279634 1.33861e-19)
(0.203719 -0.290895 9.37194e-21)
(0.221355 -0.300914 -1.02887e-19)
(0.239477 -0.30964 9.79509e-21)
(0.258044 -0.317032 5.1684e-20)
(0.277011 -0.323062 1.51285e-20)
(0.296329 -0.32771 -4.17767e-20)
(0.315947 -0.330974 7.27695e-20)
(0.335811 -0.332862 -5.26155e-20)
(0.355865 -0.333399 -4.86005e-20)
(0.376054 -0.332622 6.94766e-20)
(0.396319 -0.330584 -1.12294e-19)
(0.416607 -0.327352 -8.02867e-21)
(0.436861 -0.323005 -2.12748e-20)
(0.45703 -0.317633 2.63798e-19)
(0.477064 -0.311335 -9.43485e-20)
(0.496917 -0.304219 -4.26172e-23)
(0.516546 -0.296395 -6.93022e-20)
(0.535912 -0.287977 -1.89722e-20)
(0.55498 -0.279079 -1.07063e-19)
(0.573713 -0.269812 -4.08094e-20)
(0.592086 -0.260282 8.06959e-20)
(0.610113 -0.250573 -1.56093e-20)
(0.62781 -0.240751 7.80732e-20)
(0.644745 -0.231023 -6.08446e-20)
(0.1898 -0.291743 5.99685e-20)
(0.207185 -0.30546 -5.98419e-20)
(0.22503 -0.317897 -4.79302e-20)
(0.243302 -0.32899 6.27957e-20)
(0.261962 -0.338682 -3.87938e-20)
(0.280967 -0.346927 3.45952e-20)
(0.300273 -0.353689 6.86136e-21)
(0.319831 -0.358948 -1.37451e-20)
(0.339591 -0.362695 7.22463e-21)
(0.359502 -0.364938 -1.38503e-21)
(0.379512 -0.3657 6.42776e-20)
(0.399568 -0.36502 2.04734e-20)
(0.41962 -0.362954 -2.07992e-19)
(0.439617 -0.35957 2.26584e-19)
(0.459511 -0.354954 -1.25525e-19)
(0.479257 -0.349201 -3.28144e-20)
(0.498814 -0.342419 1.67504e-20)
(0.518142 -0.334722 4.428e-20)
(0.537207 -0.326233 -3.99697e-20)
(0.555978 -0.317073 1.59411e-19)
(0.574426 -0.307368 4.02518e-20)
(0.592522 -0.297238 7.10814e-20)
(0.610246 -0.2868 -5.68824e-20)
(0.627625 -0.276144 1.15337e-19)
(0.644693 -0.265337 -1.05956e-20)
(0.247941 -0.342636 -3.53534e-20)
(0.266913 -0.354768 8.16326e-20)
(0.286168 -0.365404 -1.57728e-19)
(0.305663 -0.374492 1.48146e-20)
(0.325352 -0.381991 6.19017e-20)
(0.345187 -0.387876 1.08916e-19)
(0.36512 -0.392135 -9.19926e-20)
(0.385102 -0.394772 -7.80171e-23)
(0.405084 -0.395809 -9.8933e-20)
(0.425019 -0.395285 1.48382e-19)
(0.444859 -0.393255 1.09206e-20)
(0.464561 -0.389792 -1.68537e-20)
(0.484084 -0.384983 -1.76242e-20)
(0.503391 -0.37893 1.45232e-20)
(0.522447 -0.371746 -1.01443e-19)
(0.541224 -0.363554 -1.00409e-20)
(0.559693 -0.354482 -8.47761e-20)
(0.577833 -0.344663 7.79638e-20)
(0.595624 -0.33423 -1.15499e-19)
(0.291955 -0.378078 8.84766e-20)
(0.311862 -0.389632 -5.63821e-20)
(0.331899 -0.399552 -5.14313e-20)
(0.352018 -0.407791 1.45821e-19)
(0.372171 -0.414319 -1.13325e-19)
(0.392313 -0.419118 -9.941e-21)
(0.412394 -0.422191 5.7528e-21)
(0.432371 -0.423554 -4.62353e-20)
(0.452198 -0.423247 1.28675e-19)
(0.471836 -0.421324 -9.3436e-20)
(0.491247 -0.417858 3.94894e-20)
(0.510396 -0.412939 -3.41031e-20)
(0.529255 -0.406673 1.09127e-19)
(0.547797 -0.399178 -4.47901e-21)
(0.338799 -0.411214 3.47119e-20)
(0.359428 -0.421952 5.38434e-20)
(0.380024 -0.430932 -1.12761e-19)
(0.400539 -0.438117 4.97533e-20)
(0.420927 -0.443486 -4.86256e-20)
(0.441142 -0.447035 -1.138e-20)
(0.461141 -0.448778 5.00646e-20)
(0.480885 -0.448752 6.85652e-21)
(0.500337 -0.447008 -8.5604e-21)
(0.519467 -0.443621 -7.51753e-20)
(0.387989 -0.441558 -1.03587e-19)
(0.409111 -0.451276 1.65665e-19)
(0.430034 -0.459132 -1.03091e-19)
(0.45071 -0.465097 7.11701e-20)
(0.471096 -0.469163 -3.01035e-20)
(0.999829 -0.00300946 1.15936e-20)
(0.991286 -0.00927321 4.32823e-21)
(0.976049 -0.0167102 -1.69105e-22)
(0.999832 -0.00269154 -2.48096e-20)
(0.991266 -0.00830827 -4.24089e-21)
(0.975905 -0.0149662 8.90722e-21)
(0.954722 -0.0240305 -2.47122e-20)
(0.927051 -0.0361303 -6.15242e-21)
(0.893438 -0.0536754 2.08235e-20)
(0.851689 -0.0771463 8.27798e-21)
(0.805277 -0.109402 -1.63786e-20)
(0.74887 -0.154112 1.51327e-20)
(0.690334 -0.203766 1.11124e-20)
(0.999835 -0.00237389 3.47583e-21)
(0.991249 -0.00734159 1.48499e-20)
(0.97578 -0.0132167 -1.62493e-20)
(0.954449 -0.0212328 1.30636e-20)
(0.9264 -0.0319244 1.00135e-20)
(0.892238 -0.0474425 -1.28759e-20)
(0.849414 -0.068313 -1.69048e-20)
(0.801089 -0.0968949 -1.1582e-20)
(0.742094 -0.13702 2.26737e-20)
(0.67843 -0.181788 7.08441e-21)
(0.999837 -0.00205654 1.1519e-20)
(0.991236 -0.0063689 -7.00066e-21)
(0.975673 -0.0114627 1.12962e-20)
(0.954215 -0.0184238 -3.23039e-21)
(0.925838 -0.027702 -7.93591e-22)
(0.891194 -0.0411766 2.47941e-21)
(0.847448 -0.0593915 7.69805e-21)
(0.797412 -0.0842505 2.35575e-20)
(0.736177 -0.11953 -1.31424e-20)
(0.667959 -0.159085 -1.24846e-20)
(0.999839 -0.00173948 -6.19547e-21)
(0.991226 -0.00539287 -2.78274e-21)
(0.975582 -0.00970493 3.93764e-21)
(0.954018 -0.0156051 1.44026e-21)
(0.925362 -0.0234653 2.84621e-21)
(0.890303 -0.0348836 -1.12874e-21)
(0.845782 -0.0503916 -3.25682e-22)
(0.794249 -0.0714881 -2.71839e-21)
(0.731113 -0.1017 -1.16877e-20)
(0.658943 -0.135737 -1.44175e-20)
(0.999841 -0.00142272 2.76605e-22)
(0.991218 -0.0044149 -4.48446e-21)
(0.975508 -0.00794419 -5.92942e-21)
(0.953857 -0.0127784 3.45589e-21)
(0.924969 -0.0192161 -6.7502e-21)
(0.889561 -0.0285687 1.184e-20)
(0.844407 -0.0413241 -6.39003e-21)
(0.791606 -0.0586263 9.84721e-22)
(0.726896 -0.083587 1.19144e-20)
(0.651401 -0.111834 -2.54262e-20)
(0.999843 -0.00110624 -2.05707e-21)
(0.991212 -0.00343539 6.51928e-21)
(0.975449 -0.0061811 1.2605e-21)
(0.953729 -0.00994523 -5.12419e-21)
(0.924658 -0.0149567 4.10567e-22)
(0.888969 -0.0222368 -6.35687e-21)
(0.843315 -0.0322003 -1.50997e-21)
(0.789487 -0.0456829 8.74117e-21)
(0.723523 -0.0652453 -3.03445e-21)
(0.645349 -0.0874678 9.9391e-21)
(0.999844 -0.000789994 4.07587e-21)
(0.991208 -0.00245469 -2.92349e-21)
(0.975405 -0.00441626 -1.44084e-21)
(0.953634 -0.00710718 4.78651e-21)
(0.924426 -0.0106892 -3.53883e-21)
(0.888525 -0.0158922 3.06969e-21)
(0.842502 -0.0230322 4.63067e-21)
(0.787894 -0.0326761 -1.29811e-21)
(0.720994 -0.0467279 8.2784e-22)
(0.640799 -0.0627389 -1.01169e-20)
(0.999845 -0.000473922 -2.45794e-21)
(0.991205 -0.00147314 2.27702e-21)
(0.975376 -0.00265022 -2.65404e-22)
(0.953571 -0.00426567 -1.22208e-21)
(0.924272 -0.00641588 3.78223e-22)
(0.888229 -0.00953874 1.44755e-21)
(0.841962 -0.0138321 -5.85526e-21)
(0.786832 -0.0196239 -8.47838e-22)
(0.719308 -0.0280861 2.66563e-21)
(0.637761 -0.0377484 1.75327e-21)
(0.999845 -0.00015796 1.63438e-21)
(0.991204 -0.000491093 -9.9221e-22)
(0.975362 -0.000883469 2.18484e-23)
(0.95354 -0.0014221 -9.5942e-22)
(0.924195 -0.00213899 7.98362e-22)
(0.888081 -0.00318011 1.00475e-22)
(0.841693 -0.00461281 1.22908e-22)
(0.7863 -0.00654429 1.61083e-21)
(0.718465 -0.0093702 4.52752e-22)
(0.63624 -0.0126003 -1.94537e-21)
)
;

boundaryField
{
    inlet
    {
        type            uniformFixedValue;
        uniformValue    constant (1 0 0);
        value           uniform (1 0 0);
    }
    outlet
    {
        type            pressureInletOutletVelocity;
        value           nonuniform 0();
    }
    cylinder
    {
        type            fixedValue;
        value           nonuniform 0();
    }
    top
    {
        type            symmetryPlane;
    }
    bottom
    {
        type            symmetryPlane;
    }
    defaultFaces
    {
        type            empty;
    }
    procBoundary12to6
    {
        type            processor;
        value           nonuniform List<vector> 
35
(
(0.660936 -0.254639 7.60456e-20)
(0.613043 -0.323314 6.78068e-20)
(0.630076 -0.312042 2.92642e-21)
(0.646766 -0.300504 -1.27899e-19)
(0.660936 -0.254639 7.60456e-20)
(0.663164 -0.288768 1.04171e-19)
(0.566002 -0.390581 9.96927e-20)
(0.583853 -0.38102 -2.02855e-19)
(0.601336 -0.370633 2.18676e-20)
(0.613043 -0.323314 6.78068e-20)
(0.618441 -0.359561 -4.33458e-20)
(0.538247 -0.438681 3.20912e-20)
(0.556657 -0.432295 -1.16735e-20)
(0.566002 -0.390581 9.96927e-20)
(0.57468 -0.424585 3.21454e-20)
(0.491152 -0.471341 -1.7742e-20)
(0.51084 -0.47166 -6.34026e-20)
(0.530131 -0.470172 -4.11145e-20)
(0.538247 -0.438681 3.20912e-20)
(0.548999 -0.466948 9.11081e-20)
(0.460384 -0.477244 3.0432e-20)
(0.481395 -0.483831 -4.2906e-20)
(0.491152 -0.471341 -1.7742e-20)
(0.501995 -0.488453 7.83468e-20)
(0.999826 -0.00332753 -7.31059e-21)
(0.991312 -0.0102419 1.27729e-20)
(0.976214 -0.0184478 3.44409e-21)
(0.955038 -0.0268151 -1.56723e-20)
(0.955038 -0.0268151 -1.56723e-20)
(0.927794 -0.0403175 -8.53769e-21)
(0.894798 -0.059869 6.82056e-21)
(0.854284 -0.0858826 -8.2719e-21)
(0.80997 -0.121751 8.97535e-21)
(0.756516 -0.170746 8.78206e-21)
(0.70364 -0.224948 -2.37623e-20)
)
;
    }
    procBoundary12to13
    {
        type            processor;
        value           nonuniform List<vector> 
26
(
(0.0266672 -0.0111608 1.75369e-21)
(0.0283519 -0.0333909 5.57058e-21)
(0.031703 -0.0553468 -3.96276e-22)
(0.0448637 -0.0848231 -2.95321e-20)
(0.0448637 -0.0848231 -2.95321e-20)
(0.0520654 -0.107876 8.61356e-21)
(0.0713625 -0.1418 -2.35305e-20)
(0.0713625 -0.1418 -2.35305e-20)
(0.0947633 -0.177901 1.13479e-19)
(0.0947633 -0.177901 1.13479e-19)
(0.108584 -0.20145 2.56145e-20)
(0.138698 -0.239013 7.93279e-20)
(0.138698 -0.239013 7.93279e-20)
(0.172907 -0.276821 1.19074e-20)
(0.172907 -0.276821 1.19074e-20)
(0.211008 -0.314149 -2.97948e-20)
(0.229294 -0.329073 -3.15497e-20)
(0.229294 -0.329073 -3.15497e-20)
(0.272223 -0.364948 1.0184e-19)
(0.272223 -0.364948 1.0184e-19)
(0.318184 -0.398771 2.32697e-20)
(0.318184 -0.398771 2.32697e-20)
(0.366715 -0.43002 1.33765e-21)
(0.366715 -0.43002 1.33765e-21)
(0.417308 -0.458257 -1.46302e-19)
(0.439006 -0.468708 8.98857e-20)
)
;
    }
    procBoundary12to18
    {
        type            processor;
        value           nonuniform List<vector> 
42
(
(0.0357138 0.0368496 -3.18349e-21)
(0.0440259 0.0401556 9.31009e-21)
(0.0511555 0.0144692 6.82011e-21)
(0.0511555 0.0144692 6.82011e-21)
(0.0612815 0.0154558 -6.87543e-21)
(0.0724054 0.0163758 3.50723e-21)
(0.084527 0.0172247 9.62379e-22)
(0.0976391 0.0179979 -4.37519e-21)
(0.111727 0.0186916 1.11758e-20)
(0.126767 0.0193025 -2.70966e-21)
(0.14273 0.0198276 -6.65753e-21)
(0.159578 0.0202649 6.11608e-21)
(0.177262 0.0206132 5.61462e-21)
(0.195731 0.0208717 -8.59302e-21)
(0.214922 0.0210409 -3.25137e-21)
(0.234769 0.0211221 9.49939e-21)
(0.255199 0.0211175 7.99874e-22)
(0.276135 0.0210301 2.54572e-21)
(0.297495 0.020864 -2.19542e-21)
(0.319197 0.020624 9.98708e-22)
(0.341155 0.0203158 6.75826e-21)
(0.363286 0.0199455 6.84789e-21)
(0.385506 0.01952 -9.15466e-21)
(0.407736 0.0190463 -5.51602e-21)
(0.4299 0.0185317 6.80227e-21)
(0.451925 0.0179838 6.04395e-21)
(0.473746 0.0174097 -1.59221e-20)
(0.495303 0.0168164 -2.56539e-21)
(0.516543 0.0162107 4.49436e-21)
(0.53742 0.0155986 1.26666e-21)
(0.557895 0.0149849 2.34945e-21)
(0.577931 0.014374 -5.55175e-21)
(0.999845 0.000157966 1.63935e-21)
(0.991204 0.000491118 -1.03789e-21)
(0.975362 0.000883515 5.69186e-23)
(0.95354 0.00142216 -7.93682e-22)
(0.924195 0.00213908 2.16042e-22)
(0.888081 0.00318022 3.69616e-22)
(0.841693 0.00461294 1.04599e-21)
(0.7863 0.00654444 9.31352e-22)
(0.718465 0.00937036 -5.86914e-22)
(0.63624 0.0126005 -5.10464e-22)
)
;
    }
    procBoundary12to19
    {
        type            processor;
        value           uniform (0.0266672 0.011161 -2.72136e-21);
    }
}


// ************************************************************************* //
