/*--------------------------------*- C++ -*----------------------------------*\
  =========                 |
  \\      /  F ield         | OpenFOAM: The Open Source CFD Toolbox
   \\    /   O peration     | Website:  https://openfoam.org
    \\  /    A nd           | Version:  7
     \\/     M anipulation  |
\*---------------------------------------------------------------------------*/
FoamFile
{
    version     2.0;
    format      ascii;
    class       volScalarField;
    location    "13";
    object      p;
}
// * * * * * * * * * * * * * * * * * * * * * * * * * * * * * * * * * * * * * //

dimensions      [0 2 -2 0 0 0 0];

internalField   nonuniform List<scalar> 
433
(
2.87239
2.84362
2.81797
2.79275
2.39545
2.77232
2.96271
3.04625
3.07066
3.06481
3.04437
3.0172
2.98695
-1.4277
0.461329
1.67828
2.42765
2.86937
3.11421
3.23663
3.28708
3.296
3.28338
3.26002
3.23144
3.20019
3.16725
33.4153
24.0319
17.1995
12.3659
9.04681
6.85146
5.45658
4.60609
4.104
3.82088
3.66391
3.57669
3.52551
3.49108
3.46294
3.43591
3.40753
3.37677
3.34335
97.7212
75.0797
56.6079
41.9113
30.5092
21.9142
15.6534
11.2805
8.32879
6.42374
5.24447
4.54429
4.14668
3.92762
3.80991
3.7458
3.70719
3.67858
3.65215
3.62436
3.5938
3.56003
3.52293
-40.445
-42.4366
-41.401
-37.3921
-31.0913
-23.7221
-16.5343
-10.3868
-5.61336
-2.16544
0.195582
1.74985
2.73442
3.33193
3.67737
3.86148
3.94694
3.97907
3.98165
3.9684
3.94635
3.91946
3.88949
3.8571
3.82245
3.78541
3.74575
3.70311
-442.711
-409.812
-372.658
-331.841
-289.282
-247.19
-207.514
-170.87
-137.605
-107.797
-81.587
-59.2694
-41.0752
-26.9391
-16.4506
-9.00349
-3.93877
-0.611792
1.49324
2.76661
3.50069
3.89846
4.09449
4.17678
4.19705
4.18596
4.15999
4.12735
4.09162
4.05401
4.01466
3.97326
3.92928
3.88214
3.83268
-245.862
-229.85
-215.525
-200.193
-180.443
-154.898
-123.828
-89.8198
-57.0703
-30.3141
-12.2656
-2.50298
1.47696
2.54792
2.70418
2.82024
3.05257
3.34768
3.6551
3.92807
4.13993
4.29074
4.38816
4.44151
4.46281
4.46606
4.45537
4.43569
4.41063
4.38212
4.35109
4.31781
4.28225
4.24425
4.20363
4.16017
4.1137
4.06598
4.02123
439.672
425.066
412.103
391.928
362.699
330.791
299.045
267.838
236.281
203.881
171.335
139.853
110.714
85.2152
63.9906
47.0633
34.0767
24.445
17.5306
12.7378
9.52994
7.48114
6.22318
5.48406
5.07019
4.84569
4.72725
4.66429
4.62711
4.59953
4.57344
4.54517
4.51332
4.47756
4.43799
4.39491
4.34875
4.29956
4.24713
4.20422
423.699
404.399
384.805
355.681
314.415
268.175
223.029
182.225
146.595
116.263
90.9623
70.4825
54.4519
42.0884
32.518
25.0472
19.2173
14.743
11.4162
9.05267
7.43806
6.38202
5.72405
5.33666
5.11687
4.99595
4.93076
4.89367
4.86815
4.84517
4.8203
4.7917
4.75882
4.72172
4.68066
4.63602
4.58824
4.53673
4.47977
4.43584
-197.417
-191.297
-181.421
-167.784
-151.667
-134.384
-116.305
-97.4224
-78.2529
-59.8292
-43.3197
-29.5481
-18.7721
-10.7723
-5.08563
-1.20832
1.35228
2.98511
3.98479
4.56413
4.88454
5.0501
5.12454
5.14736
5.14187
5.12101
5.09155
5.05676
5.01808
4.97609
4.93098
4.88287
4.83194
4.77735
4.7173
4.66981
-220.903
-177.697
-140.541
-109.553
-83.8631
-62.4491
-44.6951
-30.3521
-19.2279
-11.0109
-5.16206
-1.14151
1.52217
3.22008
4.25332
4.85637
5.19019
5.35793
5.42796
5.44342
5.42979
5.40124
5.36503
5.32448
5.2809
5.23462
5.18562
5.13386
5.07936
5.02126
4.95808
4.90668
45.4269
34.5711
26.009
19.5957
14.9795
11.7416
9.52905
8.0717
7.13871
6.56387
6.22118
6.01603
5.892
5.81334
5.758
5.71338
5.67253
5.63174
5.58915
5.54382
5.49537
5.44364
5.38869
5.33066
5.26885
5.20216
5.14655
27.1591
19.9478
14.8855
11.481
9.27709
7.90032
7.06731
6.5807
6.30443
6.1486
6.05719
5.99715
5.95013
5.90657
5.86192
5.81422
5.7628
5.70758
5.64874
5.58654
5.52045
5.44962
5.3892
6.69738
6.61944
6.54774
6.48597
6.43285
6.38538
6.34064
6.29629
6.25066
6.20271
6.15183
6.0977
6.04016
5.97919
5.91489
5.84741
5.77617
5.70044
5.63453
6.34166
6.53805
6.61497
6.62555
6.60091
6.55816
6.50605
6.44864
6.38758
6.32337
6.2561
6.18579
6.11248
6.03553
5.95433
5.88227
6.90573
6.85737
6.80191
6.74137
6.67664
6.60806
6.5358
6.46003
6.38092
6.298
6.21087
6.969
6.89675
6.81968
6.73824
6.65291
6.56349
6.92903
6.83199
5.35779
5.12799
4.90095
4.67738
4.44999
4.21018
4.69974
4.49838
4.29404
4.36542
)
;

boundaryField
{
    inlet
    {
        type            zeroGradient;
    }
    outlet
    {
        type            fixedValue;
        value           nonuniform 0();
    }
    cylinder
    {
        type            zeroGradient;
    }
    top
    {
        type            symmetryPlane;
    }
    bottom
    {
        type            symmetryPlane;
    }
    defaultFaces
    {
        type            empty;
    }
    procBoundary27to14
    {
        type            processor;
        value           uniform -223.491;
    }
    procBoundary27to20
    {
        type            processor;
        value           nonuniform List<scalar> 
29
(
-213.742
-206.555
-201.774
-201.774
-409.679
-366.328
-318.35
-268.742
-268.742
85.6797
87.1456
81.724
71.0697
58.1009
58.1009
88.7717
67.4109
50.336
37.0941
37.0941
6.69564
6.83656
6.83626
6.77462
6.77462
3.92735
5.20012
5.93983
5.93983
)
;
    }
    procBoundary27to21
    {
        type            processor;
        value           nonuniform List<scalar> 
37
(
2.67348
2.62957
2.59998
3.18371
3.04753
2.96303
2.90931
2.90931
-4.48962
-1.41144
0.534939
1.71051
1.71051
-21.5608
-13.9782
-8.31967
-4.25022
-4.25022
80.2717
61.5524
45.8389
45.8389
230.64
191.22
155.967
124.725
124.725
26.3955
8.31229
-10.1794
-24.9602
-34.8559
-34.8559
-524.116
-495.982
-470.317
-470.317
)
;
    }
    procBoundary27to22
    {
        type            processor;
        value           nonuniform List<scalar> 
11
(
2.57551
2.76661
2.76661
2.95506
2.95506
3.13276
3.13276
3.3071
3.3071
3.48243
3.48243
)
;
    }
    procBoundary27to26
    {
        type            processor;
        value           nonuniform List<scalar> 
17
(
6.87652
6.9462
6.9609
6.94286
6.94286
7.21249
7.15596
7.0981
7.03609
7.03609
7.27509
7.19558
7.11104
7.02201
7.02201
7.20859
7.10277
)
;
    }
    procBoundary27to28
    {
        type            processor;
        value           nonuniform List<scalar> 10(3.65706 3.65706 3.60827 3.7832 3.7832 3.95451 3.95451 3.91427 4.07325 4.16764);
    }
    procBoundary27to33
    {
        type            processor;
        value           nonuniform List<scalar> 
16
(
5.58953
6.13208
5.82276
6.13208
6.46981
6.46981
6.73086
5.58953
5.30624
5.10028
4.89798
4.89798
4.72705
4.54781
4.54781
4.40551
)
;
    }
}


// ************************************************************************* //
