/*--------------------------------*- C++ -*----------------------------------*\
  =========                 |
  \\      /  F ield         | OpenFOAM: The Open Source CFD Toolbox
   \\    /   O peration     | Website:  https://openfoam.org
    \\  /    A nd           | Version:  7
     \\/     M anipulation  |
\*---------------------------------------------------------------------------*/
FoamFile
{
    version     2.0;
    format      ascii;
    class       volScalarField;
    location    "9";
    object      p;
}
// * * * * * * * * * * * * * * * * * * * * * * * * * * * * * * * * * * * * * //

dimensions      [0 2 -2 0 0 0 0];

internalField   nonuniform List<scalar> 
433
(
-2.13316
-2.83452
-2.801
-2.75772
-2.70723
-2.64095
-3.46375
-3.45916
-3.44494
-3.42139
-3.38875
-3.34741
-3.29497
-3.23432
-3.15561
-3.96542
-4.02529
-4.05382
-4.0615
-4.05391
-4.03386
-4.00267
-3.96099
-3.9094
-3.84532
-3.7721
-3.67846
-4.11108
-4.34819
-4.49954
-4.59462
-4.65216
-4.68363
-4.69576
-4.69235
-4.67546
-4.64616
-4.60495
-4.55213
-4.48813
-4.41007
-4.32187
-4.21067
-8.93087
-7.50735
-6.59927
-6.04969
-5.73229
-5.55892
-5.46984
-5.42555
-5.40114
-5.38163
-5.35845
-5.32693
-5.2847
-5.23058
-5.16408
-5.08528
-4.9908
-4.88514
-4.7536
-8.67179
-7.60799
-6.95759
-6.57542
-6.35902
-6.24024
-6.17345
-6.13051
-6.09453
-6.05579
-6.00895
-5.95125
-5.88128
-5.79832
-5.70227
-5.58903
-5.4637
-5.30914
-6.60143
-6.74513
-6.82625
-6.86463
-6.87294
-6.85897
-6.82719
-6.78001
-6.71867
-6.64378
-6.55553
-6.45386
-6.33881
-6.20547
-6.05957
-5.88022
-7.14302
-7.42596
-7.56907
-7.62478
-7.6255
-7.59035
-7.53033
-7.45148
-7.35701
-7.24853
-7.12677
-6.9922
-6.83932
-6.67505
-6.47175
-8.50793
-8.49944
-8.45822
-8.39213
-8.3061
-8.20329
-8.08577
-7.95493
-7.81182
-7.65773
-7.48769
-7.31242
-7.09012
-9.34257
-9.22818
-9.10567
-8.97236
-8.82742
-8.67114
-8.50446
-8.32959
-8.14395
-7.97047
-7.76219
-9.91953
-9.75249
-9.57617
-9.3908
-9.19762
-8.99968
-8.80009
-8.60182
-8.50793
-10.5308
-10.3203
-10.1016
-9.87573
-9.64457
-9.409
-9.17376
-9.01256
-10.7935
-10.5326
-10.2651
-9.99002
-9.71013
-9.49412
-10.8653
-10.5555
-10.24
-9.97928
-10.7626
-10.4678
0.0679246
-0.039568
-0.247929
-0.575927
-1.04819
-1.69597
-2.54553
-3.63324
-4.99368
-6.6505
0.124652
0.0222798
-0.175136
-0.48663
-0.936661
-1.55598
-2.36904
-3.40631
-4.68619
-6.17316
0.182152
0.0853422
-0.100424
-0.394217
-0.819968
-1.40733
-2.17817
-3.15557
-4.34189
-5.67017
0.240152
0.149198
-0.0245299
-0.300015
-0.700441
-1.25406
-1.97997
-2.89441
-3.99001
-5.19057
0.298746
0.214081
0.0529666
-0.20326
-0.576884
-1.09456
-1.77279
-2.62226
-3.63157
-4.71873
0.358018
0.280038
0.132091
-0.104035
-0.449605
-0.929598
-1.55823
-2.34215
-3.26956
-4.25091
0.417927
0.34617
0.212769
-0.00244269
-0.31878
-0.759497
-1.33694
-2.05515
-2.90368
-3.78427
0.478439
0.414121
0.294929
0.101411
-0.184583
-0.584581
-1.10947
-1.76187
-2.53328
-3.31771
0.539509
0.482966
0.378485
0.207395
-0.0472298
-0.405215
-0.876349
-1.46273
-2.15788
-2.85091
0.60109
0.552628
0.463383
0.31536
0.093044
-0.22177
-0.638077
-1.15805
-1.7772
-2.38372
0.425142
0.235988
-0.0346241
-0.395111
-0.848096
-1.39112
-1.91585
-1.15963
-1.35275
-1.69939
-2.1854
-2.79659
-3.5127
-4.29915
-5.11166
-5.89656
-6.60013
-1.03891
-1.22796
-1.57008
-2.05566
-2.6757
-3.41575
-4.24597
-5.12494
-5.99532
-6.79389
-0.91864
-1.10256
-1.43802
-1.91987
-2.54435
-3.30329
-4.17294
-5.11713
-6.07734
-6.98196
-0.799174
-0.97697
-1.30376
-1.77863
-2.40293
-3.17507
-4.07847
-5.0847
-6.13758
-7.15976
-0.680856
-0.851627
-1.16786
-1.63259
-2.25201
-3.03112
-3.96125
-5.02405
-6.17009
-7.32128
-0.563997
-0.726934
-1.03088
-1.48244
-2.0923
-2.87176
-3.82036
-4.93167
-6.16798
-7.45845
-0.44888
-0.603264
-0.893344
-1.32893
-1.92466
-2.69761
-3.65534
-4.80429
-6.12342
-7.5603
-0.335756
-0.480969
-0.755792
-1.17279
-1.75004
-2.50961
-3.46635
-4.63932
-6.02802
-7.6121
-0.224872
-0.360396
-0.618759
-1.01485
-1.56957
-2.30909
-3.25435
-4.43525
-5.87344
-7.59385
-0.116737
-0.242245
-0.483267
-0.856608
-1.38537
-2.0989
-3.02268
-4.1941
-5.65421
-7.48133
-0.0111987
-0.126257
-0.348894
-0.697308
-1.19602
-1.87625
-2.76564
-3.90375
-5.33667
-7.16758
-6.91997
-7.03018
-7.16169
-7.29008
-7.38744
-7.47075
-7.54191
-7.40513
-7.55488
-7.66896
-7.76598
-7.84879
-7.64685
-7.82168
-7.95548
-8.06858
-8.16513
-7.88224
-8.08647
-8.24333
-8.37513
-8.48785
-8.10499
-8.34355
-8.52698
-8.68025
-8.81207
-8.30618
-8.58447
-8.79775
-8.97534
-9.13011
-8.47259
-8.7957
-9.04093
-9.24622
-9.43038
-8.58289
-8.9535
-9.23099
-9.47071
-9.69779
-8.59633
-9.01546
-9.32903
-9.62334
-9.92237
-8.54764
-8.98931
-9.36266
-9.75826
-10.1707
)
;

boundaryField
{
    inlet
    {
        type            zeroGradient;
    }
    outlet
    {
        type            fixedValue;
        value           nonuniform 0();
    }
    cylinder
    {
        type            zeroGradient;
    }
    top
    {
        type            symmetryPlane;
    }
    bottom
    {
        type            symmetryPlane;
    }
    defaultFaces
    {
        type            empty;
    }
    procBoundary6to0
    {
        type            processor;
        value           nonuniform List<scalar> 
16
(
-1.2804
-1.47645
-1.82543
-2.3086
-2.90678
-3.59462
-4.33424
-5.08061
-5.78536
-6.40423
-6.68249
-6.77723
-7.11341
-7.11341
-7.18507
-7.2464
)
;
    }
    procBoundary6to1
    {
        type            processor;
        value           nonuniform List<scalar> 8(-7.60538 -7.9227 -8.25156 -8.58943 -8.93235 -9.27447 -9.60814 -9.92626);
    }
    procBoundary6to7
    {
        type            processor;
        value           nonuniform List<scalar> 
24
(
-8.37009
-8.47129
-8.47129
-9.57878
-9.45527
-9.45527
-10.2325
-10.0784
-10.0784
-10.7319
-10.7319
-11.2922
-11.047
-11.047
-11.4616
-11.1668
-11.1668
-11.4452
-11.1061
-11.1061
-11.269
-10.9463
-10.2305
-10.5858
)
;
    }
    procBoundary6to12
    {
        type            processor;
        value           nonuniform List<scalar> 
35
(
-1.6304
-2.29729
-2.26879
-2.23205
-2.18931
-2.18931
-2.89465
-2.88991
-2.87891
-2.86056
-2.86056
-3.40992
-3.44101
-3.45812
-3.45812
-2.80567
-3.34042
-3.66423
-3.85558
-3.85558
-2.33777
-3.18205
-3.74374
-3.74374
0.663128
0.623049
0.549494
0.549494
0.536567
0.381338
0.155838
-0.147898
-0.533147
-0.999624
-1.4468
)
;
    }
    procBoundary6to13
    {
        type            processor;
        value           nonuniform List<scalar> 8(-11.0879 -10.3464 -10.3464 -6.00049 -6.36637 -6.36637 -6.63886 -6.63886);
    }
}


// ************************************************************************* //
