/*--------------------------------*- C++ -*----------------------------------*\
  =========                 |
  \\      /  F ield         | OpenFOAM: The Open Source CFD Toolbox
   \\    /   O peration     | Website:  https://openfoam.org
    \\  /    A nd           | Version:  7
     \\/     M anipulation  |
\*---------------------------------------------------------------------------*/
FoamFile
{
    version     2.0;
    format      ascii;
    class       volScalarField;
    location    "115";
    object      p;
}
// * * * * * * * * * * * * * * * * * * * * * * * * * * * * * * * * * * * * * //

dimensions      [0 2 -2 0 0 0 0];

internalField   nonuniform List<scalar> 
12400
(
-0.370319
-0.372774
-0.374203
-0.375161
-0.375979
-0.376803
-0.377781
-0.379025
-0.380609
-0.382586
-0.385017
-0.387992
-0.391652
-0.396194
-0.401876
-0.408976
-0.417734
-0.428226
-0.439889
-0.451209
-0.37228
-0.375157
-0.37687
-0.378075
-0.379146
-0.380223
-0.381439
-0.382887
-0.384603
-0.386593
-0.388844
-0.391343
-0.394093
-0.397121
-0.400482
-0.404251
-0.408519
-0.413316
-0.418101
-0.421994
-0.37485
-0.378068
-0.380026
-0.38146
-0.382776
-0.384107
-0.38557
-0.387234
-0.389101
-0.391123
-0.393211
-0.395243
-0.397074
-0.398543
-0.399484
-0.399737
-0.399201
-0.397803
-0.394997
-0.390295
-0.378101
-0.381567
-0.383721
-0.38536
-0.386911
-0.388496
-0.390215
-0.392111
-0.394152
-0.396235
-0.398193
-0.399792
-0.400733
-0.400659
-0.399169
-0.39585
-0.390365
-0.382513
-0.371743
-0.357555
-0.382076
-0.385682
-0.387978
-0.389795
-0.391566
-0.393401
-0.395381
-0.397525
-0.399763
-0.40194
-0.403811
-0.405027
-0.405137
-0.403584
-0.399728
-0.392897
-0.382493
-0.36817
-0.349496
-0.325266
-0.386779
-0.390412
-0.392791
-0.394752
-0.396722
-0.398797
-0.40104
-0.40344
-0.405894
-0.408196
-0.410022
-0.410913
-0.410267
-0.407332
-0.401231
-0.391044
-0.375911
-0.355311
-0.32925
-0.294811
-0.392173
-0.39572
-0.39812
-0.400186
-0.402328
-0.404626
-0.407122
-0.409779
-0.412459
-0.414905
-0.416719
-0.417338
-0.416012
-0.411801
-0.403611
-0.390292
-0.370761
-0.344234
-0.311709
-0.267238
-0.398188
-0.401538
-0.403896
-0.406023
-0.4083
-0.410794
-0.413523
-0.416423
-0.419322
-0.421915
-0.423734
-0.424115
-0.422169
-0.416784
-0.406661
-0.390469
-0.366994
-0.334983
-0.297272
-0.242977
-0.404716
-0.407771
-0.410022
-0.412162
-0.414532
-0.417181
-0.420107
-0.423219
-0.426312
-0.429033
-0.430846
-0.430993
-0.428458
-0.421972
-0.410061
-0.391254
-0.364376
-0.32728
-0.286117
-0.222239
-0.41163
-0.414303
-0.416387
-0.418485
-0.420892
-0.423645
-0.426717
-0.429992
-0.43323
-0.436032
-0.437798
-0.437681
-0.434549
-0.426995
-0.41341
-0.392214
-0.362513
-0.32085
-0.277359
-0.207356
-0.418783
-0.421007
-0.422867
-0.424864
-0.427247
-0.430038
-0.43319
-0.436557
-0.439867
-0.442675
-0.444322
-0.443872
-0.440094
-0.431466
-0.416293
-0.392858
-0.360571
-0.315784
-0.270346
-0.19797
-0.426029
-0.427757
-0.429341
-0.431177
-0.433465
-0.436215
-0.439362
-0.442733
-0.446021
-0.448737
-0.450161
-0.449281
-0.444773
-0.43503
-0.418304
-0.392891
-0.358486
-0.311575
-0.264758
-0.193023
-0.433229
-0.434434
-0.435699
-0.437311
-0.439426
-0.442047
-0.445093
-0.448365
-0.451517
-0.45402
-0.455103
-0.453672
-0.448332
-0.437417
-0.419193
-0.392025
-0.356
-0.307912
-0.260364
-0.191532
-0.440263
-0.440942
-0.441849
-0.443176
-0.445037
-0.447434
-0.45027
-0.453325
-0.456224
-0.458389
-0.45899
-0.456879
-0.450598
-0.438456
-0.418788
-0.390132
-0.352919
-0.304652
-0.25693
-0.192452
-0.447043
-0.447208
-0.44773
-0.448712
-0.450237
-0.45231
-0.454827
-0.457547
-0.460062
-0.461757
-0.461744
-0.458823
-0.451495
-0.438081
-0.417037
-0.387181
-0.349196
-0.301624
-0.25433
-0.194814
-0.453515
-0.453194
-0.453311
-0.453894
-0.455003
-0.456656
-0.458743
-0.46101
-0.46302
-0.464117
-0.463361
-0.459507
-0.451034
-0.43632
-0.413987
-0.383222
-0.344886
-0.298644
-0.252424
-0.197837
-0.459667
-0.458897
-0.458594
-0.458729
-0.459353
-0.460494
-0.46205
-0.463754
-0.465145
-0.465525
-0.463907
-0.459003
-0.449298
-0.43327
-0.409758
-0.378362
-0.340079
-0.295569
-0.250961
-0.200897
-0.465528
-0.464349
-0.463617
-0.463264
-0.463339
-0.463893
-0.464827
-0.465871
-0.46654
-0.466094
-0.463498
-0.457435
-0.446419
-0.429078
-0.404517
-0.372753
-0.334879
-0.292322
-0.249587
-0.203472
-0.471165
-0.469611
-0.468445
-0.467572
-0.46705
-0.466951
-0.467192
-0.467494
-0.467349
-0.465973
-0.462286
-0.454954
-0.442557
-0.423921
-0.398458
-0.366569
-0.329408
-0.28889
-0.247952
-0.205321
-0.476679
-0.474774
-0.473168
-0.471753
-0.470598
-0.469801
-0.46929
-0.468781
-0.467736
-0.465328
-0.46043
-0.451716
-0.437879
-0.417988
-0.391787
-0.359993
-0.323806
-0.285325
-0.245973
-0.206902
-0.482195
-0.479946
-0.477894
-0.47592
-0.47411
-0.472583
-0.471277
-0.469896
-0.467868
-0.464314
-0.458077
-0.44787
-0.432548
-0.411466
-0.384696
-0.353188
-0.318177
-0.281688
-0.244205
-0.208304
-0.48785
-0.485246
-0.482738
-0.480196
-0.477718
-0.475442
-0.473307
-0.470995
-0.46789
-0.463064
-0.45535
-0.443544
-0.426718
-0.404533
-0.37736
-0.346288
-0.312545
-0.277906
-0.242812
-0.209831
-0.493783
-0.490793
-0.487815
-0.484698
-0.481547
-0.478509
-0.475512
-0.472203
-0.467914
-0.461673
-0.452339
-0.438847
-0.420527
-0.397347
-0.369918
-0.339389
-0.306908
-0.27403
-0.241085
-0.210288
-0.500124
-0.496699
-0.493229
-0.489535
-0.485708
-0.481895
-0.477996
-0.473608
-0.468005
-0.460196
-0.449107
-0.433866
-0.414093
-0.390036
-0.362476
-0.332543
-0.301272
-0.269972
-0.238883
-0.209929
-0.506983
-0.50306
-0.499075
-0.494795
-0.490288
-0.485679
-0.480824
-0.475253
-0.468189
-0.458651
-0.445686
-0.428667
-0.407508
-0.382694
-0.355097
-0.32577
-0.295612
-0.265707
-0.2362
-0.208747
-0.514444
-0.509951
-0.505422
-0.500547
-0.495347
-0.489909
-0.48402
-0.477138
-0.468448
-0.457022
-0.442089
-0.423296
-0.400841
-0.37538
-0.347808
-0.319064
-0.289906
-0.26121
-0.233045
-0.206875
-0.522557
-0.517421
-0.512318
-0.506834
-0.500918
-0.494596
-0.487571
-0.479224
-0.468731
-0.455273
-0.438308
-0.417781
-0.39413
-0.368119
-0.340606
-0.312398
-0.284121
-0.256464
-0.229451
-0.204377
-0.531344
-0.525494
-0.519786
-0.513673
-0.507003
-0.49972
-0.491425
-0.481436
-0.468961
-0.453345
-0.434325
-0.41213
-0.387388
-0.360904
-0.333463
-0.305733
-0.278219
-0.251454
-0.225437
-0.20131
-0.540792
-0.534166
-0.527826
-0.521057
-0.513578
-0.505226
-0.495499
-0.483673
-0.46904
-0.451173
-0.430107
-0.406333
-0.380602
-0.353707
-0.326334
-0.299019
-0.272163
-0.246163
-0.221015
-0.197711
-0.550855
-0.543406
-0.53641
-0.528951
-0.520585
-0.511028
-0.499677
-0.485807
-0.468858
-0.448681
-0.425616
-0.400363
-0.373739
-0.34648
-0.319162
-0.292203
-0.265911
-0.240573
-0.216192
-0.193609
-0.561458
-0.553152
-0.545481
-0.537289
-0.527936
-0.517005
-0.503814
-0.487692
-0.468296
-0.445791
-0.420803
-0.394181
-0.36675
-0.339163
-0.311885
-0.285228
-0.259423
-0.234664
-0.210968
-0.189023
-0.572492
-0.563316
-0.554954
-0.545972
-0.535506
-0.523004
-0.507742
-0.489172
-0.467233
-0.442424
-0.415611
-0.387732
-0.359572
-0.331689
-0.304436
-0.278038
-0.252658
-0.228414
-0.205339
-0.183966
-0.583815
-0.573773
-0.564707
-0.554865
-0.543134
-0.528838
-0.51127
-0.490082
-0.465551
-0.438498
-0.409976
-0.380951
-0.352138
-0.323985
-0.29675
-0.27058
-0.245577
-0.221802
-0.199299
-0.178447
-0.59525
-0.584366
-0.574584
-0.563795
-0.550621
-0.534294
-0.514195
-0.490259
-0.463133
-0.433931
-0.403828
-0.373768
-0.34437
-0.315978
-0.288761
-0.2628
-0.238144
-0.214806
-0.192841
-0.172472
-0.606589
-0.594901
-0.584389
-0.572549
-0.557734
-0.539134
-0.516306
-0.489541
-0.459866
-0.428638
-0.397091
-0.366107
-0.336195
-0.307598
-0.280407
-0.254648
-0.230323
-0.207407
-0.185956
-0.166044
-0.617586
-0.605152
-0.593891
-0.580877
-0.564211
-0.543107
-0.517392
-0.487773
-0.455641
-0.422534
-0.389688
-0.357889
-0.327534
-0.298774
-0.27163
-0.24608
-0.222082
-0.199583
-0.178634
-0.159165
-0.627966
-0.614855
-0.602822
-0.588497
-0.569767
-0.545954
-0.51725
-0.48481
-0.450354
-0.415533
-0.381537
-0.349035
-0.318316
-0.289441
-0.262376
-0.237052
-0.213391
-0.191318
-0.170865
-0.151836
-0.637426
-0.62372
-0.610883
-0.595104
-0.574106
-0.54742
-0.515684
-0.480514
-0.443903
-0.407551
-0.372558
-0.339471
-0.308469
-0.279539
-0.252594
-0.227527
-0.204224
-0.182594
-0.162642
-0.14406
-0.645642
-0.631431
-0.617754
-0.600373
-0.576926
-0.547257
-0.512516
-0.474761
-0.436194
-0.398504
-0.362674
-0.329123
-0.29793
-0.269014
-0.242242
-0.217472
-0.194559
-0.173398
-0.15396
-0.135843
-0.652275
-0.637654
-0.623098
-0.603975
-0.577936
-0.545237
-0.507582
-0.467435
-0.427137
-0.388314
-0.351813
-0.317926
-0.28664
-0.257816
-0.23128
-0.206857
-0.184377
-0.163719
-0.144819
-0.127198
-0.656982
-0.642049
-0.626575
-0.605586
-0.576857
-0.54115
-0.500737
-0.458434
-0.416649
-0.376907
-0.339907
-0.305818
-0.274548
-0.245904
-0.219677
-0.195662
-0.173661
-0.153547
-0.135216
-0.118132
-0.65942
-0.644276
-0.627847
-0.604896
-0.573436
-0.534814
-0.491858
-0.447668
-0.404659
-0.364219
-0.326897
-0.292749
-0.261611
-0.233245
-0.207406
-0.183866
-0.162403
-0.142877
-0.125145
-0.108627
-0.659262
-0.644005
-0.626593
-0.601617
-0.56745
-0.526073
-0.480841
-0.435064
-0.391104
-0.350194
-0.312734
-0.278677
-0.247795
-0.21981
-0.194448
-0.171456
-0.150592
-0.131713
-0.114613
-0.0986485
-0.656198
-0.640926
-0.622516
-0.595497
-0.55871
-0.514803
-0.467605
-0.420561
-0.375934
-0.334788
-0.29738
-0.263568
-0.233073
-0.20558
-0.180789
-0.15842
-0.138222
-0.120067
-0.10364
-0.0882014
-0.649951
-0.634757
-0.615354
-0.58632
-0.547065
-0.500911
-0.452092
-0.404118
-0.359114
-0.31797
-0.280808
-0.247399
-0.217426
-0.190542
-0.166422
-0.144761
-0.1253
-0.107944
-0.0921954
-0.0774439
-0.640279
-0.625256
-0.604885
-0.573913
-0.532405
-0.484335
-0.434268
-0.385709
-0.340621
-0.299719
-0.262997
-0.230158
-0.200849
-0.174699
-0.151358
-0.130503
-0.111869
-0.0953272
-0.0803054
-0.0663398
-0.626987
-0.612223
-0.590934
-0.558154
-0.514662
-0.465046
-0.41412
-0.365329
-0.320448
-0.280023
-0.243938
-0.211854
-0.183358
-0.158074
-0.13561
-0.115643
-0.0979186
-0.0822467
-0.0680057
-0.0548826
-0.609925
-0.595505
-0.573378
-0.538966
-0.493808
-0.443046
-0.391663
-0.34299
-0.298605
-0.258893
-0.223642
-0.19252
-0.164974
-0.140664
-0.119189
-0.100206
-0.0834632
-0.0687285
-0.0553221
-0.0430894
-0.588997
-0.575007
-0.552145
-0.516322
-0.469855
-0.418368
-0.366933
-0.318725
-0.275122
-0.236374
-0.202188
-0.172133
-0.145705
-0.122499
-0.10212
-0.0842148
-0.0685307
-0.0547978
-0.0422788
-0.0309883
-0.564164
-0.550684
-0.52722
-0.490244
-0.442855
-0.39108
-0.339994
-0.292586
-0.250061
-0.212507
-0.179567
-0.150758
-0.125586
-0.103614
-0.0844385
-0.0677029
-0.0531534
-0.0404839
-0.0289048
-0.0186111
-0.535442
-0.522551
-0.498638
-0.460803
-0.412908
-0.361281
-0.310924
-0.264658
-0.223473
-0.187339
-0.155835
-0.128445
-0.104668
-0.0840525
-0.0661851
-0.0507086
-0.0373685
-0.0258213
-0.0152349
-0.0059933
-0.502901
-0.490672
-0.466493
-0.428129
-0.380159
-0.329077
-0.279814
-0.23502
-0.19544
-0.160945
-0.131062
-0.105253
-0.083008
-0.0638658
-0.0474076
-0.0332769
-0.0212177
-0.0108501
-0.00131094
0.00682392
-0.466666
-0.455169
-0.430936
-0.392406
-0.344744
-0.294535
-0.246828
-0.203793
-0.166064
-0.133414
-0.105329
-0.0812532
-0.0606708
-0.0431137
-0.0281606
-0.015458
-0.00474736
0.0043848
0.012819
0.0197928
-0.426901
-0.416226
-0.392177
-0.3538
-0.306677
-0.257979
-0.212104
-0.171108
-0.135461
-0.10485
-0.0787281
-0.0565292
-0.0377311
-0.0218635
-0.0085052
0.00269266
0.0119924
0.0198372
0.0271073
0.0328642
-0.383805
-0.37408
-0.35043
-0.312318
-0.26644
-0.219542
-0.175814
-0.137116
-0.103762
-0.0753686
-0.0513636
-0.0311728
-0.0142717
-0.000189529
0.0114913
0.0211134
0.0289474
0.0354623
0.041514
0.0459985
-0.337614
-0.329001
-0.305801
-0.268463
-0.22422
-0.17944
-0.138148
-0.101981
-0.0711119
-0.0450988
-0.0233495
-0.00528581
0.00961709
0.0218274
0.0317552
0.0397371
0.0460608
0.0512156
0.0559965
0.0591539
-0.288582
-0.281318
-0.258626
-0.222598
-0.180258
-0.137906
-0.09931
-0.0658821
-0.0376688
-0.01418
0.00519036
0.0210222
0.0338381
0.0441006
0.0522083
0.0584956
0.0632782
0.067047
0.0704634
0.0721808
-0.237097
-0.231291
-0.209458
-0.174952
-0.134828
-0.0951898
-0.0595178
-0.0290099
-0.00360133
0.0172381
0.0341237
0.0476341
0.0582877
0.0665379
0.0727702
0.0773251
0.0805564
0.0828964
0.0847228
0.084669
-0.183853
-0.179144
-0.158554
-0.125845
-0.0882297
-0.051554
-0.0190015
0.00843288
0.0309118
0.0489976
0.0633106
0.0744261
0.0828562
0.0890424
0.0933591
0.0961671
0.0978547
0.0986818
0.0985419
0.0962648
-0.128965
-0.125426
-0.106269
-0.0756234
-0.0407735
-0.00727246
0.0219986
0.0462346
0.0656836
0.080933
0.0926047
0.101269
0.107429
0.111513
0.113891
0.114954
0.115094
0.114269
0.111889
0.107913
-0.072842
-0.0705728
-0.0529967
-0.0246463
0.00721752
0.0373712
0.0632336
0.084176
0.10052
0.112873
0.121855
0.128029
0.131887
0.133846
0.134277
0.133595
0.132134
0.129502
0.124951
0.122282
-0.0159349
-0.0150024
0.000855935
0.0267144
0.0554134
0.0820872
0.104449
0.122033
0.135224
0.144642
0.150905
0.154568
0.156111
0.155938
0.154425
0.151986
0.148848
0.144435
0.13849
0.13631
0.0413038
0.0408557
0.0548753
0.0780822
0.10348
0.126582
0.145386
0.159576
0.169591
0.176062
0.179599
0.180748
0.179976
0.177681
0.174237
0.170037
0.165211
0.159176
0.152166
0.149525
0.0984201
0.0965645
0.108646
0.129079
0.151083
0.17056
0.185785
0.196577
0.203421
0.206952
0.207777
0.206427
0.203361
0.198966
0.193611
0.187657
0.181174
0.173661
0.165663
0.162118
0.15496
0.151685
0.161755
0.17933
0.197889
0.213729
0.225387
0.232806
0.236509
0.237134
0.23528
0.231467
0.226142
0.219683
0.212449
0.204768
0.196682
0.187783
0.178772
0.174121
0.210473
0.205781
0.213792
0.228466
0.24357
0.255798
0.263936
0.268036
0.268655
0.26643
0.261951
0.255728
0.248196
0.239723
0.230654
0.221291
0.211663
0.201446
0.191402
0.185556
0.264516
0.258424
0.264358
0.276123
0.287806
0.296485
0.301181
0.302046
0.299661
0.294666
0.287637
0.279075
0.269403
0.25898
0.248134
0.237146
0.226039
0.21456
0.203482
0.196404
0.316659
0.309198
0.313064
0.321953
0.330284
0.335513
0.336878
0.334618
0.329337
0.321671
0.312187
0.301375
0.289647
0.277349
0.264798
0.252252
0.239738
0.227053
0.214959
0.206642
0.366485
0.3577
0.359536
0.365618
0.370707
0.37262
0.370793
0.365546
0.357498
0.347282
0.335457
0.322501
0.308813
0.294733
0.280558
0.266533
0.252686
0.238861
0.225784
0.216239
0.413599
0.403548
0.403418
0.406799
0.408791
0.407552
0.402703
0.394629
0.383968
0.371345
0.357309
0.34233
0.326797
0.311035
0.295333
0.279916
0.264817
0.249924
0.235907
0.225166
0.457626
0.446379
0.444376
0.445194
0.444268
0.440072
0.432395
0.421682
0.40858
0.39371
0.377614
0.360748
0.343494
0.326168
0.309042
0.29233
0.27607
0.260186
0.245284
0.233392
0.498215
0.485857
0.482097
0.480524
0.476888
0.46996
0.459675
0.44653
0.43118
0.414242
0.396249
0.377649
0.358812
0.340047
0.321613
0.303711
0.286387
0.269597
0.253873
0.240893
0.535046
0.521673
0.516296
0.51253
0.506424
0.497013
0.484361
0.469012
0.451625
0.432814
0.413103
0.392932
0.372664
0.352596
0.332979
0.314
0.295716
0.27811
0.261635
0.247642
0.567828
0.553545
0.546713
0.540981
0.532669
0.521046
0.506291
0.488982
0.469786
0.449311
0.428074
0.406509
0.38497
0.363746
0.343078
0.323143
0.304008
0.285681
0.268535
0.253618
0.596303
0.581226
0.57312
0.56567
0.555439
0.541897
0.525318
0.506312
0.485549
0.463633
0.441074
0.418301
0.39566
0.373436
0.351856
0.331093
0.311223
0.292273
0.274539
0.258804
0.620246
0.604501
0.595317
0.586421
0.574576
0.559424
0.541318
0.52089
0.498814
0.47569
0.452025
0.428239
0.404675
0.381611
0.359268
0.337809
0.317322
0.29785
0.27962
0.263183
0.639471
0.623189
0.613139
0.603083
0.589949
0.573511
0.554185
0.532622
0.509499
0.485411
0.460861
0.436266
0.411964
0.388228
0.365272
0.343257
0.322275
0.302386
0.283757
0.26675
0.653827
0.637147
0.626454
0.615538
0.60145
0.584063
0.563836
0.541435
0.517537
0.492736
0.467531
0.442335
0.417486
0.39325
0.369839
0.347409
0.326059
0.305862
0.28694
0.269512
0.663205
0.646268
0.635163
0.623698
0.609002
0.59101
0.57021
0.547273
0.52288
0.497621
0.471995
0.446414
0.421211
0.396652
0.372946
0.350245
0.328654
0.308254
0.289143
0.271433
0.667534
0.650484
0.639203
0.627507
0.612555
0.594309
0.573265
0.550101
0.525495
0.500039
0.474231
0.44848
0.42312
0.398417
0.374576
0.351751
0.330047
0.309549
0.290334
0.27247
0.666781
0.649766
0.638548
0.62694
0.612087
0.593938
0.572985
0.549903
0.52537
0.499979
0.474226
0.448524
0.423206
0.398537
0.374724
0.351921
0.330234
0.309744
0.290524
0.272645
0.660958
0.644123
0.633206
0.622005
0.607606
0.589906
0.569376
0.546685
0.522509
0.497443
0.471986
0.44655
0.42147
0.397015
0.373393
0.35076
0.329219
0.308848
0.289737
0.272004
0.650114
0.633603
0.623222
0.612743
0.599145
0.582243
0.562466
0.540471
0.516935
0.492453
0.467527
0.442572
0.417927
0.393863
0.370593
0.348275
0.327009
0.306866
0.287975
0.270548
0.634339
0.618292
0.608675
0.599224
0.586771
0.571007
0.552306
0.531308
0.508687
0.485043
0.46088
0.436619
0.412602
0.389103
0.366343
0.344483
0.323617
0.30381
0.285241
0.268265
0.613762
0.598316
0.589679
0.581552
0.570574
0.556279
0.538968
0.519259
0.497824
0.475265
0.452092
0.428731
0.405528
0.382765
0.360669
0.339408
0.319067
0.299699
0.28155
0.265159
0.588553
0.573835
0.566385
0.55986
0.550673
0.538165
0.522548
0.50441
0.48442
0.463185
0.441221
0.418959
0.396753
0.37489
0.353608
0.333081
0.313385
0.294559
0.276923
0.261241
0.558915
0.545048
0.538974
0.534313
0.527214
0.516795
0.50316
0.486863
0.468567
0.448885
0.428339
0.407367
0.386331
0.365527
0.345202
0.325539
0.306605
0.28842
0.271385
0.256525
0.525091
0.512186
0.507661
0.505103
0.500369
0.492322
0.480941
0.466738
0.450372
0.432458
0.413528
0.394029
0.374329
0.354733
0.335501
0.316825
0.298766
0.281318
0.264965
0.251028
0.487357
0.475516
0.472691
0.472449
0.470333
0.46492
0.456046
0.444174
0.429957
0.414015
0.396887
0.379029
0.360819
0.342574
0.324562
0.306992
0.289912
0.273292
0.257696
0.244767
0.446019
0.435332
0.434337
0.436598
0.437325
0.434783
0.428647
0.419325
0.407459
0.393674
0.37852
0.362461
0.345886
0.329121
0.31245
0.296093
0.280092
0.264386
0.249614
0.237766
0.401415
0.391962
0.392901
0.397821
0.401585
0.402124
0.398934
0.392359
0.383027
0.37157
0.358545
0.344429
0.329621
0.314457
0.299235
0.284191
0.269362
0.25465
0.240759
0.23005
0.353911
0.345756
0.348708
0.356409
0.363374
0.367174
0.367112
0.363458
0.356823
0.347844
0.337089
0.325044
0.312121
0.298666
0.284992
0.271353
0.25778
0.244135
0.231175
0.221645
0.303894
0.29709
0.302107
0.312677
0.322969
0.330181
0.333401
0.332817
0.32902
0.32265
0.314286
0.304426
0.293491
0.281841
0.269803
0.257649
0.245409
0.232897
0.220906
0.212581
0.251775
0.24636
0.253467
0.266956
0.280666
0.291404
0.298032
0.30064
0.299799
0.296149
0.290279
0.282699
0.273842
0.264079
0.253752
0.243155
0.232317
0.220997
0.210002
0.202887
0.197983
0.193982
0.203172
0.219593
0.236772
0.251118
0.261246
0.267144
0.26935
0.268508
0.265215
0.259994
0.253288
0.245481
0.236929
0.227949
0.218577
0.208501
0.198512
0.192592
0.142959
0.140383
0.151623
0.17095
0.191607
0.209603
0.223294
0.232548
0.237869
0.239901
0.239248
0.236446
0.23195
0.226152
0.219424
0.212112
0.204263
0.195482
0.186491
0.18172
0.0871574
0.0860013
0.0992309
0.121396
0.145502
0.167152
0.184433
0.19708
0.205558
0.210505
0.212535
0.212193
0.209948
0.206201
0.201333
0.195724
0.189453
0.18203
0.174014
0.17029
0.0310373
0.0312828
0.0464128
0.0713122
0.0987899
0.124061
0.144924
0.160972
0.172621
0.180502
0.185235
0.187377
0.187407
0.185736
0.182751
0.178864
0.174218
0.168239
0.161175
0.158289
-0.0249389
-0.0233267
-0.00640868
0.0210803
0.0518127
0.0806277
0.10503
0.124457
0.139264
0.150073
0.157509
0.162137
0.164451
0.164868
0.163778
0.161613
0.158613
0.154216
0.148185
0.145708
-0.0803099
-0.0773847
-0.0588111
-0.0289142
0.00491099
0.037153
0.065016
0.0877664
0.105693
0.1194
0.129516
0.136616
0.141203
0.143708
0.144514
0.144057
0.142686
0.140021
0.135353
0.132416
-0.134615
-0.130457
-0.110375
-0.0782887
-0.0415755
-0.00606526
0.0251431
0.0511319
0.0721104
0.0886617
0.101415
0.110952
0.117786
0.12236
0.125058
0.126289
0.126464
0.125555
0.123007
0.11889
-0.187415
-0.182107
-0.160692
-0.126666
-0.087312
-0.0487341
-0.0143315
0.0147796
0.0387168
0.0580354
0.073362
0.0852822
0.0943198
0.100929
0.105499
0.108408
0.110068
0.110747
0.11036
0.107851
-0.238412
-0.231843
-0.209379
-0.173678
-0.131972
-0.0905683
-0.0531579
-0.0210703
0.0057062
0.0276921
0.0455075
0.0597407
0.0709216
0.0795164
0.0859244
0.0905035
0.0936291
0.0957455
0.0972436
0.0968522
-0.287256
-0.279247
-0.256128
-0.218964
-0.175244
-0.131294
-0.0910949
-0.056206
-0.0267344
-0.00220323
0.0179972
0.0344553
0.0477048
0.0582209
0.0664157
0.0726398
0.077229
0.0806885
0.083698
0.0850003
-0.333313
-0.324052
-0.300672
-0.262213
-0.216838
-0.17065
-0.127913
-0.0904253
-0.058427
-0.0314934
-0.00903042
0.00954814
0.0247773
0.0371375
0.0470523
0.0548741
0.0609083
0.0656598
0.0699486
0.0726116
-0.37628
-0.365956
-0.342009
-0.303536
-0.256484
-0.208387
-0.163396
-0.123538
-0.0892036
-0.0600304
-0.0354446
-0.0148657
0.00224037
0.0163559
0.027912
0.0372665
0.0447065
0.0507158
0.0561803
0.0600803
-0.415914
-0.404703
-0.38044
-0.341773
-0.294053
-0.244278
-0.197338
-0.155366
-0.118908
-0.0876763
-0.0611237
-0.0386788
-0.0198113
-0.00403994
0.00906967
0.0198815
0.028673
0.0359017
0.0424812
0.0475551
-0.451988
-0.440001
-0.415706
-0.377065
-0.328975
-0.278114
-0.229549
-0.185744
-0.147397
-0.114305
-0.0859561
-0.0617924
-0.0412903
-0.0239725
-0.00940454
0.0027822
0.0128603
0.0212573
0.0288898
0.0350749
-0.484312
-0.471614
-0.447521
-0.409293
-0.361156
-0.309646
-0.259855
-0.214523
-0.174539
-0.139803
-0.109841
-0.0841168
-0.0621171
-0.0433711
-0.0274471
-0.0139739
-0.0026819
0.0068224
0.0154403
0.0226731
-0.512731
-0.499387
-0.475691
-0.43824
-0.390487
-0.338724
-0.288107
-0.241574
-0.200222
-0.16407
-0.13269
-0.105572
-0.0822208
-0.0621723
-0.0450011
-0.0303357
-0.0179082
-0.00736229
0.00217422
0.0103924
-0.53714
-0.523222
-0.500093
-0.463738
-0.416809
-0.365232
-0.314187
-0.266801
-0.224344
-0.187022
-0.154424
-0.126089
-0.10154
-0.0803207
-0.0620165
-0.0462578
-0.0327777
-0.0212579
-0.010867
-0.0017255
-0.557493
-0.543079
-0.52066
-0.485685
-0.439996
-0.389056
-0.337993
-0.290108
-0.246867
-0.208568
-0.174982
-0.145608
-0.120022
-0.0977683
-0.07845
-0.0617006
-0.0472542
-0.0348302
-0.023648
-0.0136458
-0.573802
-0.558972
-0.53738
-0.504031
-0.459967
-0.410109
-0.359448
-0.311419
-0.267693
-0.228709
-0.194305
-0.164081
-0.137626
-0.114475
-0.0942653
-0.0766307
-0.0613069
-0.0480508
-0.036142
-0.0253401
-0.586138
-0.570974
-0.550299
-0.518776
-0.476686
-0.428336
-0.378496
-0.330687
-0.286776
-0.247366
-0.212385
-0.1815
-0.154307
-0.13041
-0.109433
-0.0910213
-0.0749107
-0.0608953
-0.0483303
-0.036784
-0.594631
-0.579219
-0.559518
-0.529973
-0.490159
-0.443716
-0.395109
-0.347887
-0.304096
-0.264513
-0.22918
-0.197824
-0.170074
-0.14556
-0.123929
-0.104852
-0.0880475
-0.0733415
-0.0601987
-0.047963
-0.599464
-0.583893
-0.565196
-0.537728
-0.500434
-0.456261
-0.409282
-0.363012
-0.319649
-0.280148
-0.244676
-0.213035
-0.184896
-0.159913
-0.137758
-0.118115
-0.100707
-0.0853732
-0.0717275
-0.058877
-0.600873
-0.585235
-0.567546
-0.542197
-0.507605
-0.466016
-0.421037
-0.376074
-0.333446
-0.29428
-0.258881
-0.227135
-0.198765
-0.173456
-0.150901
-0.130803
-0.112896
-0.097018
-0.0828442
-0.0695749
-0.599134
-0.583526
-0.566828
-0.543587
-0.511809
-0.47306
-0.430417
-0.387103
-0.34551
-0.30693
-0.271813
-0.24014
-0.211693
-0.186192
-0.163357
-0.142909
-0.124596
-0.108248
-0.0936076
-0.0800321
-0.594564
-0.579086
-0.563346
-0.542153
-0.513229
-0.477508
-0.437494
-0.396147
-0.35588
-0.31813
-0.283499
-0.252073
-0.223698
-0.198137
-0.175135
-0.154439
-0.135805
-0.119071
-0.104034
-0.0900963
-0.587506
-0.572262
-0.557435
-0.538186
-0.512086
-0.479507
-0.442362
-0.403271
-0.364606
-0.327925
-0.293977
-0.262963
-0.234806
-0.20931
-0.186253
-0.165405
-0.146539
-0.129494
-0.114116
-0.0998158
-0.578325
-0.563419
-0.549455
-0.532015
-0.508638
-0.479239
-0.445139
-0.408556
-0.371752
-0.336367
-0.303292
-0.272852
-0.245049
-0.21974
-0.196735
-0.17583
-0.156813
-0.139528
-0.123863
-0.109262
-0.567392
-0.552928
-0.539779
-0.523987
-0.503179
-0.476915
-0.445965
-0.412098
-0.377389
-0.343517
-0.311498
-0.281784
-0.254466
-0.22946
-0.206609
-0.185736
-0.166649
-0.149192
-0.133293
-0.118462
-0.555079
-0.541159
-0.528779
-0.514465
-0.496022
-0.472775
-0.445004
-0.414004
-0.381597
-0.34944
-0.318653
-0.289811
-0.263103
-0.238508
-0.215908
-0.195153
-0.176073
-0.158512
-0.142428
-0.127423
-0.541748
-0.528467
-0.516818
-0.503812
-0.487498
-0.467083
-0.442441
-0.414398
-0.384462
-0.354206
-0.324818
-0.296988
-0.271008
-0.246927
-0.224671
-0.204116
-0.185115
-0.167515
-0.151291
-0.136157
-0.52774
-0.515184
-0.504239
-0.49238
-0.477944
-0.460117
-0.438479
-0.413414
-0.386076
-0.357884
-0.330052
-0.30337
-0.278233
-0.254765
-0.23294
-0.212663
-0.193811
-0.176235
-0.159911
-0.144686
-0.51337
-0.501614
-0.491354
-0.480498
-0.467688
-0.45217
-0.433337
-0.4112
-0.386532
-0.360543
-0.334415
-0.309013
-0.28483
-0.262072
-0.240762
-0.220838
-0.2022
-0.184707
-0.168321
-0.153041
-0.498919
-0.488023
-0.478441
-0.468465
-0.457042
-0.443532
-0.427249
-0.407913
-0.385931
-0.36225
-0.33796
-0.313967
-0.290851
-0.268896
-0.248184
-0.228687
-0.210326
-0.192975
-0.176565
-0.161259
-0.484631
-0.474639
-0.465732
-0.456541
-0.446286
-0.434485
-0.420454
-0.403723
-0.384377
-0.363067
-0.340735
-0.318277
-0.29634
-0.275286
-0.255258
-0.23626
-0.218238
-0.201085
-0.184687
-0.169382
-0.470708
-0.46165
-0.453421
-0.444938
-0.435668
-0.425286
-0.413188
-0.39881
-0.38198
-0.363055
-0.342777
-0.321978
-0.30134
-0.28129
-0.262032
-0.243609
-0.225989
-0.209091
-0.19274
-0.177458
-0.457313
-0.4492
-0.441653
-0.433827
-0.425387
-0.416167
-0.405678
-0.393355
-0.378858
-0.362276
-0.344116
-0.325093
-0.305878
-0.286946
-0.268555
-0.250789
-0.233635
-0.217049
-0.20078
-0.185542
-0.444566
-0.437397
-0.430535
-0.423328
-0.415599
-0.407314
-0.398128
-0.38754
-0.375134
-0.36079
-0.344774
-0.327632
-0.309972
-0.292285
-0.274871
-0.257855
-0.241239
-0.225026
-0.208874
-0.193695
-0.432553
-0.426314
-0.420134
-0.41352
-0.406409
-0.398875
-0.390714
-0.381538
-0.370939
-0.358667
-0.34477
-0.329593
-0.313624
-0.297327
-0.281019
-0.264862
-0.248866
-0.233091
-0.217095
-0.201991
-0.421326
-0.415992
-0.410487
-0.404443
-0.397881
-0.390948
-0.383572
-0.375503
-0.366404
-0.355984
-0.344125
-0.330962
-0.316819
-0.302073
-0.287027
-0.271861
-0.256585
-0.241326
-0.225526
-0.210511
-0.410918
-0.406455
-0.401605
-0.396108
-0.390038
-0.383589
-0.376801
-0.369565
-0.361662
-0.352831
-0.342869
-0.331726
-0.319526
-0.306509
-0.292906
-0.278897
-0.264467
-0.249817
-0.234266
-0.21935
-0.401347
-0.397711
-0.393487
-0.388506
-0.382877
-0.376822
-0.370464
-0.363827
-0.356833
-0.349312
-0.341052
-0.331874
-0.321707
-0.310598
-0.298653
-0.286002
-0.272581
-0.258664
-0.243422
-0.228623
-0.39263
-0.389767
-0.386126
-0.38162
-0.376384
-0.370647
-0.364597
-0.35837
-0.352032
-0.345542
-0.338748
-0.331419
-0.32332
-0.31429
-0.304237
-0.293194
-0.280991
-0.267971
-0.253135
-0.238448
-0.384789
-0.382629
-0.379516
-0.375436
-0.370542
-0.365059
-0.359221
-0.353258
-0.347365
-0.341646
-0.336061
-0.330406
-0.324345
-0.317522
-0.309603
-0.30046
-0.289748
-0.277846
-0.263538
-0.249033
-0.377852
-0.376312
-0.373661
-0.369952
-0.365346
-0.360062
-0.354364
-0.348554
-0.342939
-0.337764
-0.33313
-0.328924
-0.324794
-0.320241
-0.314676
-0.307756
-0.298864
-0.288405
-0.274839
-0.260491
-0.371852
-0.37084
-0.368572
-0.365176
-0.360807
-0.355676
-0.350066
-0.344331
-0.338869
-0.334052
-0.330127
-0.327116
-0.324732
-0.32242
-0.31937
-0.314995
-0.308328
-0.299694
-0.287208
-0.273398
-0.366827
-0.366233
-0.364257
-0.361126
-0.356954
-0.351943
-0.346388
-0.340683
-0.335291
-0.330688
-0.327258
-0.32518
-0.324295
-0.324086
-0.323611
-0.322057
-0.318029
-0.311802
-0.300817
-0.287673
-0.362791
-0.362469
-0.360756
-0.357824
-0.353815
-0.34891
-0.343404
-0.337715
-0.332352
-0.327866
-0.32476
-0.323364
-0.323688
-0.325343
-0.327372
-0.328796
-0.327847
-0.324387
-0.316454
-0.304493
-0.359744
-0.359573
-0.358037
-0.355271
-0.351413
-0.346619
-0.341182
-0.335529
-0.330196
-0.325784
-0.322882
-0.321954
-0.323188
-0.326382
-0.330705
-0.335074
-0.337622
-0.337286
-0.33355
-0.322226
-0.357646
-0.357506
-0.356078
-0.353454
-0.349745
-0.345087
-0.339763
-0.334198
-0.32894
-0.324613
-0.32186
-0.321244
-0.323117
-0.327484
-0.333765
-0.34084
-0.347081
-0.350108
-0.350505
-0.340673
-0.356421
-0.356204
-0.354828
-0.352332
-0.348781
-0.344297
-0.339149
-0.333751
-0.328646
-0.324465
-0.32187
-0.321487
-0.323795
-0.32899
-0.336811
-0.346183
-0.35597
-0.362513
-0.366979
-0.359849
-0.35596
-0.355583
-0.354216
-0.351836
-0.34846
-0.344195
-0.339294
-0.334158
-0.329312
-0.325372
-0.323
-0.322847
-0.325476
-0.331233
-0.340172
-0.351345
-0.364242
-0.374293
-0.383053
-0.379613
-0.356129
-0.355535
-0.354153
-0.351882
-0.3487
-0.3447
-0.34012
-0.33534
-0.330864
-0.327283
-0.325235
-0.32537
-0.328298
-0.334463
-0.34418
-0.35667
-0.372094
-0.385349
-0.398668
-0.399541
-0.356781
-0.35595
-0.35454
-0.35238
-0.349409
-0.345714
-0.341519
-0.337184
-0.333183
-0.330074
-0.328463
-0.328981
-0.332252
-0.338776
-0.349068
-0.362489
-0.379871
-0.395731
-0.413671
-0.418991
-0.357767
-0.356712
-0.35528
-0.353236
-0.350495
-0.347139
-0.34338
-0.339557
-0.336116
-0.333576
-0.332503
-0.333502
-0.337192
-0.344109
-0.354894
-0.369009
-0.387899
-0.405676
-0.427958
-0.437355
-0.358951
-0.357715
-0.35628
-0.354366
-0.351871
-0.348878
-0.34559
-0.342327
-0.339501
-0.337593
-0.337131
-0.338687
-0.342872
-0.350247
-0.361533
-0.376252
-0.396329
-0.41553
-0.441485
-0.454317
-0.360214
-0.358863
-0.357459
-0.355694
-0.35346
-0.350844
-0.348044
-0.345361
-0.343175
-0.341927
-0.342108
-0.344261
-0.34899
-0.356881
-0.368694
-0.384063
-0.405075
-0.425524
-0.454212
-0.469925
-0.361457
-0.360078
-0.358749
-0.357155
-0.355194
-0.35296
-0.350648
-0.34854
-0.346986
-0.346388
-0.347202
-0.34995
-0.35523
-0.363658
-0.376005
-0.392071
-0.413932
-0.435599
-0.466093
-0.484504
-0.36261
-0.361299
-0.360094