0.24776 	0.447347 	-2.12142e-18 	6.27808
0.251636 	0.454344 	-8.5807e-19 	6.27606
0.255511 	0.461342 	-6.5148e-19 	6.27402
0.258725 	0.467144 	3.16609e-19 	6.27194
0.260662 	0.470642 	1.21712e-18 	6.25295
0.263262 	0.475337 	1.30048e-18 	6.25109
0.267138 	0.482335 	1.01688e-18 	6.24916
0.271014 	0.489332 	1.48427e-18 	6.24698
0.274889 	0.49633 	1.14087e-18 	6.24447
