0.135798 	0.489332 	-2.04203e-18 	6.42144
0.13774 	0.49633 	-1.23965e-18 	6.41109
