/*--------------------------------*- C++ -*----------------------------------*\
  =========                 |
  \\      /  F ield         | OpenFOAM: The Open Source CFD Toolbox
   \\    /   O peration     | Website:  https://openfoam.org
    \\  /    A nd           | Version:  7
     \\/     M anipulation  |
\*---------------------------------------------------------------------------*/
FoamFile
{
    version     2.0;
    format      ascii;
    class       volScalarField;
    location    "18";
    object      p;
}
// * * * * * * * * * * * * * * * * * * * * * * * * * * * * * * * * * * * * * //

dimensions      [0 2 -2 0 0 0 0];

internalField   nonuniform List<scalar> 
433
(
-0.688419
-0.622715
-0.562081
-0.506109
-0.454444
-0.406771
-0.709183
-0.641579
-0.579187
-0.521591
-0.468423
-0.419359
-0.374127
-0.332466
-0.294191
-0.259053
-0.226974
-0.197593
-0.171051
-0.146606
-0.125006
-0.104377
-0.0872695
-0.0686154
-0.0559682
-0.0355822
-0.028543
0.000671882
-0.664896
-0.600471
-0.540962
-0.485995
-0.435244
-0.388432
-0.3453
-0.305656
-0.269261
-0.236017
-0.205595
-0.178081
-0.152814
-0.130399
-0.10916
-0.0912929
-0.0721872
-0.0586704
-0.0380189
-0.0296201
-0.000366865
-0.694788
-0.628125
-0.566482
-0.509487
-0.456807
-0.408163
-0.363295
-0.322004
-0.284053
-0.249328
-0.217523
-0.188682
-0.162202
-0.138581
-0.116301
-0.0972795
-0.0773028
-0.062535
-0.0411941
-0.0311634
-0.00160747
-0.723939
-0.655243
-0.591645
-0.532773
-0.478298
-0.427935
-0.381425
-0.338564
-0.299117
-0.262958
-0.229797
-0.199641
-0.171938
-0.147097
-0.123729
-0.103524
-0.0825957
-0.0665556
-0.0444323
-0.0327796
-0.00284716
-0.753119
-0.6825
-0.617031
-0.556347
-0.500123
-0.448076
-0.399948
-0.35553
-0.314593
-0.276999
-0.242471
-0.210988
-0.182042
-0.155955
-0.131466
-0.110039
-0.0881147
-0.0707477
-0.0478007
-0.0344472
-0.00413378
-0.781952
-0.709569
-0.642361
-0.579973
-0.522086
-0.468422
-0.418728
-0.372792
-0.330392
-0.291378
-0.25549
-0.222676
-0.192472
-0.16512
-0.139479
-0.116793
-0.0938304
-0.0750845
-0.0512757
-0.0361503
-0.00545805
-0.810265
-0.736306
-0.667516
-0.603553
-0.544109
-0.488915
-0.437723
-0.390322
-0.346496
-0.306088
-0.268851
-0.234707
-0.203234
-0.174597
-0.147768
-0.123788
-0.0997369
-0.0795626
-0.0548453
-0.0378908
-0.00680738
-0.837908
-0.762583
-0.692386
-0.626994
-0.566116
-0.509491
-0.45688
-0.408076
-0.36287
-0.321099
-0.282529
-0.247062
-0.214309
-0.184371
-0.156322
-0.131012
-0.105824
-0.0841749
-0.0585003
-0.039669
-0.00817165
-0.864733
-0.788271
-0.716861
-0.650204
-0.588026
-0.530081
-0.476141
-0.426005
-0.379471
-0.336375
-0.296495
-0.259714
-0.225676
-0.194422
-0.165124
-0.138452
-0.112077
-0.0889121
-0.0622308
-0.0414843
-0.00954075
-0.890592
-0.813241
-0.740828
-0.673082
-0.609754
-0.550612
-0.495443
-0.444054
-0.396253
-0.351876
-0.310713
-0.272633
-0.237308
-0.204727
-0.174151
-0.146089
-0.118483
-0.0937632
-0.066026
-0.043336
-0.0109036
-0.915339
-0.83736
-0.764169
-0.695526
-0.631208
-0.571003
-0.514714
-0.462161
-0.413161
-0.367554
-0.325141
-0.28578
-0.249171
-0.215258
-0.183381
-0.153902
-0.125022
-0.0987159
-0.0698741
-0.0452236
-0.0122487
-0.938831
-0.860499
-0.786766
-0.717428
-0.652291
-0.591167
-0.533879
-0.480257
-0.430135
-0.383354
-0.33973
-0.299114
-0.261229
-0.22598
-0.192784
-0.161869
-0.131676
-0.103757
-0.0737626
-0.0471466
-0.0135644
-0.960937
-0.882531
-0.808501
-0.73868
-0.672904
-0.611015
-0.552853
-0.498268
-0.447105
-0.399216
-0.354426
-0.312585
-0.273437
-0.236856
-0.202327
-0.16996
-0.138422
-0.108871
-0.0776792
-0.0491044
-0.0148402
-0.981535
-0.90334
-0.82926
-0.759172
-0.692946
-0.630449
-0.571549
-0.516112
-0.463999
-0.415071
-0.369168
-0.326138
-0.285748
-0.247845
-0.211977
-0.178149
-0.145239
-0.114044
-0.0816116
-0.0510963
-0.0160666
-1.00052
-0.922814
-0.848934
-0.778799
-0.712313
-0.649375
-0.589877
-0.533705
-0.480738
-0.430849
-0.383892
-0.339716
-0.29811
-0.258901
-0.221694
-0.186404
-0.152103
-0.119261
-0.0855481
-0.0531211
-0.0172362
-1.0178
-0.940856
-0.867423
-0.797459
-0.730907
-0.667695
-0.607744
-0.550959
-0.49724
-0.446473
-0.398527
-0.353256
-0.310469
-0.269977
-0.231441
-0.194695
-0.158989
-0.124507
-0.089478
-0.0551775
-0.018344
-1.0333
-0.957382
-0.884635
-0.815058
-0.748631
-0.685316
-0.625058
-0.567788
-0.513425
-0.461868
-0.413005
-0.366696
-0.322768
-0.281026
-0.241176
-0.20299
-0.165875
-0.129767
-0.0933914
-0.0572631
-0.0193877
-1.04696
-0.972322
-0.90049
-0.83151
-0.765398
-0.702148
-0.641732
-0.584106
-0.529209
-0.476958
-0.427255
-0.37997
-0.334953
-0.291998
-0.25086
-0.211256
-0.172737
-0.135026
-0.0972794
-0.0593749
-0.0203678
-1.05877
-0.985625
-0.914922
-0.846739
-0.781126
-0.718107
-0.657682
-0.599832
-0.544514
-0.491666
-0.441208
-0.393018
-0.346966
-0.302845
-0.260453
-0.219464
-0.179552
-0.14027
-0.101134
-0.0615085
-0.0212873
-1.06869
-0.997255
-0.927882
-0.860684
-0.795746
-0.733119
-0.672832
-0.614887
-0.559267
-0.505923
-0.454796
-0.405776
-0.358753
-0.313521
-0.269916
-0.227581
-0.186298
-0.145484
-0.104947
-0.0636584
-0.0221511
-1.07674
-1.0072
-0.939333
-0.873296
-0.809198
-0.747119
)
;

boundaryField
{
    inlet
    {
        type            zeroGradient;
    }
    outlet
    {
        type            fixedValue;
        value           uniform 0;
    }
    cylinder
    {
        type            zeroGradient;
    }
    top
    {
        type            symmetryPlane;
    }
    bottom
    {
        type            symmetryPlane;
    }
    defaultFaces
    {
        type            empty;
    }
    procBoundary29to23
    {
        type            processor;
        value           nonuniform List<scalar> 
23
(
-0.666383
-0.60273
-0.543977
-0.489733
-0.439659
-0.393452
-0.362824
-0.362824
-0.322348
-0.285169
-0.251045
-0.21989
-0.191354
-0.165588
-0.141831
-0.120885
-0.1008
-0.0842809
-0.066042
-0.0540118
-0.0339262
-0.0277374
0.00135517
)
;
    }
    procBoundary29to28
    {
        type            processor;
        value           nonuniform List<scalar> 
20
(
-0.759652
-0.782474
-0.734658
-0.734658
-0.766896
-0.798154
-0.829303
-0.85991
-0.889773
-0.918717
-0.946573
-0.973174
-0.998357
-1.02197
-1.04388
-1.06396
-1.08211
-1.09826
-1.11235
-1.12434
)
;
    }
    procBoundary29to34
    {
        type            processor;
        value           nonuniform List<scalar> 3(-1.13423 -1.14204 -1.14779);
    }
    procBoundary29to35
    {
        type            processor;
        value           nonuniform List<scalar> 
22
(
-0.687112
-0.629203
-0.573396
-0.519662
-0.467958
-0.418188
-0.370262
-0.32398
-0.27921
-0.235578
-0.192951
-0.15065
-0.108711
-0.0658176
-0.0229657
-1.08296
-1.01545
-0.949259
-0.884541
-0.821437
-0.687112
-0.760052
)
;
    }
}


// ************************************************************************* //
