/*--------------------------------*- C++ -*----------------------------------*\
  =========                 |
  \\      /  F ield         | OpenFOAM: The Open Source CFD Toolbox
   \\    /   O peration     | Website:  https://openfoam.org
    \\  /    A nd           | Version:  7
     \\/     M anipulation  |
\*---------------------------------------------------------------------------*/
FoamFile
{
    version     2.0;
    format      ascii;
    class       surfaceScalarField;
    location    "29.000062";
    object      phi;
}
// * * * * * * * * * * * * * * * * * * * * * * * * * * * * * * * * * * * * * //

dimensions      [0 3 -1 0 0 0 0];

internalField   nonuniform List<scalar> 
11438
(
-0.000259625
-0.000584905
-0.000229009
-0.000769428
-0.000169173
-0.000908871
-8.95691e-05
-0.00100255
-0.00104965
0.0164227
-8.48062e-06
0.0164312
-8.43982e-06
0.0164395
-8.38434e-06
0.0164479
-8.31322e-06
0.0164561
-8.22545e-06
0.0164642
-8.11997e-06
0.0164722
-7.99568e-06
0.01648
-7.85147e-06
0.0164877
-7.68621e-06
0.0164952
-7.49873e-06
0.0165025
-7.28787e-06
0.0165096
-7.05244e-06
0.0165164
-6.79124e-06
0.0165229
-6.50307e-06
0.0165291
-6.18673e-06
0.0165349
-5.84103e-06
0.0165404
-5.46478e-06
0.0165454
-5.05681e-06
0.01655
-4.616e-06
0.0165542
-4.14124e-06
0.0165578
-3.63147e-06
0.0165609
-3.08568e-06
0.0165634
-2.50293e-06
0.0165653
-1.88234e-06
0.0165665
-1.22308e-06
0.016567
-5.24328e-07
0.0165668
2.14156e-07
0.0165658
9.91968e-07
0.016564
1.8108e-06
0.0165613
2.67054e-06
0.0165578
3.57108e-06
0.0165533
4.51231e-06
0.0165478
5.49375e-06
0.0165412
6.51504e-06
0.0165337
7.57519e-06
0.016525
8.6736e-06
0.0165152
9.80856e-06
0.0165042
1.09794e-05
0.016492
1.21835e-05
0.0164786
1.34203e-05
0.0164639
1.46857e-05
0.0164479
1.59803e-05
0.0164306
1.72974e-05
0.016412
1.86397e-05
0.016392
1.99968e-05
0.0163706
2.13753e-05
0.0163479
2.27586e-05
0.0163237
2.41607e-05
0.0162982
2.55547e-05
0.0162712
2.69671e-05
0.0162428
2.83541e-05
0.0162131
2.97636e-05
0.0161819
3.11245e-05
0.0161494
3.25181e-05
0.0161156
3.38319e-05
0.0160804
3.51977e-05
0.016044
3.64417e-05
0.0160062
3.77675e-05
0.0159673
3.89181e-05
0.0159271
4.01892e-05
0.0158859
4.12241e-05
0.0158434
4.24172e-05
0.0158001
4.33296e-05
4.43706e-05
0.0160994
-1.68237e-05
0.0161077
-1.67432e-05
0.016116
-1.66335e-05
0.0161242
-1.64925e-05
0.0161323
-1.63183e-05
0.0161403
-1.61089e-05
0.0161481
-1.5862e-05
0.0161558
-1.55755e-05
0.0161634
-1.52472e-05
0.0161708
-1.48747e-05
0.0161779
-1.44558e-05
0.0161849
-1.39881e-05
0.0161916
-1.34693e-05
0.016198
-1.28969e-05
0.016204
-1.22686e-05
0.0162098
-1.15821e-05
0.0162151
-1.08349e-05
0.0162201
-1.00248e-05
0.0162247
-9.14961e-06
0.0162287
-8.20706e-06
0.0162323
-7.19508e-06
0.0162353
-6.1117e-06
0.0162378
-4.95505e-06
0.0162396
-3.72339e-06
0.0162408
-2.4151e-06
0.0162413
-1.02847e-06
0.0162411
4.36867e-07
0.0162401
1.98004e-06
0.0162383
3.60458e-06
0.0162357
5.3101e-06
0.0162321
7.09643e-06
0.0162277
8.96329e-06
0.0162223
1.09098e-05
0.0162158
1.29352e-05
0.0162084
1.50375e-05
0.0161998
1.72154e-05
0.0161902
1.94658e-05
0.0161794
2.17868e-05
0.0161674
2.41741e-05
0.0161542
2.66252e-05
0.0161397
2.91341e-05
0.016124
3.16986e-05
0.016107
3.43104e-05
0.0160887
3.69679e-05
0.016069
3.96597e-05
0.016048
4.23868e-05
0.0160256
4.51325e-05
0.0160019
4.79027e-05
0.0159768
5.06731e-05
0.0159503
5.34578e-05
0.0159224
5.62211e-05
0.0158932
5.89903e-05
0.0158626
6.1713e-05
0.0158307
6.44359e-05
0.0157974
6.70832e-05
0.0157629
6.9728e-05
0.0157271
7.22646e-05
0.01569
7.47973e-05
0.0156518
7.71883e-05
0.0156124
7.95683e-05
0.0155718
8.1782e-05
0.0155303
8.39547e-05
0.0154876
8.5968e-05
8.78624e-05
0.0157857
-2.5067e-05
0.0157939
-2.49465e-05
0.015802
-2.47821e-05
0.0158101
-2.45711e-05
0.0158181
-2.43105e-05
0.015826
-2.39973e-05
0.0158338
-2.36282e-05
0.0158414
-2.32e-05
0.0158489
-2.27094e-05
0.0158561
-2.2153e-05
0.0158632
-2.15273e-05
0.01587
-2.0829e-05
0.0158766
-2.00543e-05
0.0158829
-1.91999e-05
0.0158889
-1.82623e-05
0.0158946
-1.72378e-05
0.0158999
-1.6123e-05
0.0159048
-1.49146e-05
0.0159092
-1.36091e-05
0.0159132
-1.22034e-05
0.0159167
-1.06944e-05
0.0159197
-9.07907e-06
0.0159221
-7.35473e-06
0.0159239
-5.51878e-06
0.015925
-3.56887e-06
0.0159255
-1.50255e-06
0.0159253
6.80728e-07
0.0159243
2.98014e-06
0.0159225
5.40025e-06
0.0159198
7.94068e-06
0.0159163
1.06012e-05
0.0159119
1.33812e-05
0.0159065
1.62797e-05
0.0159002
1.9295e-05
0.0158928
2.24246e-05
0.0158843
2.56661e-05
0.0158748
2.90155e-05
0.0158641
3.24691e-05
0.0158523
3.60212e-05
0.0158392
3.96673e-05
0.015825
4.33997e-05
0.0158094
4.72132e-05
0.0157927
5.10978e-05
0.0157746
5.50481e-05
0.0157552
5.90512e-05
0.0157345
6.31028e-05
0.0157124
6.71861e-05
0.015689
7.1299e-05
0.0156643
7.54196e-05
0.0156382
7.95506e-05
0.0156107
8.36624e-05
0.015582
8.77656e-05
0.0155519
9.18205e-05
0.0155204
9.58485e-05
0.0154877
9.9797e-05
0.0154538
0.000103701
0.0154185
0.000107493
0.0153821
0.00011122
0.0153445
0.000114806
0.0153058
0.000118299
0.0152659
0.000121628
0.015225
0.000124814
0.0151832
0.000127838
0.000130623
0.015481
-3.32401e-05
0.0154891
-3.30787e-05
0.0154972
-3.2859e-05
0.0155052
-3.25773e-05
0.0155131
-3.22296e-05
0.0155209
-3.18121e-05
0.0155286
-3.13204e-05
0.0155362
-3.07502e-05
0.0155436
-3.00971e-05
0.0155508
-2.93567e-05
0.0155578
-2.85244e-05
0.0155645
-2.75955e-05
0.015571
-2.65656e-05
0.0155773
-2.54299e-05
0.0155832
-2.41837e-05
0.0155888
-2.28224e-05
0.015594
-2.13415e-05
0.0155988
-1.97365e-05
0.0156032
-1.80029e-05
0.0156071
-1.61365e-05
0.0156106
-1.41333e-05
0.0156135
-1.19894e-05
0.0156158
-9.70124e-06
0.0156176
-7.26535e-06
0.0156187
-4.6787e-06
0.0156191
-1.93805e-06
0.0156189
9.57108e-07
0.0156178
4.00604e-06
0.015616
7.21444e-06
0.0156134
1.05817e-05
0.0156099
1.41076e-05
0.0156055
1.77913e-05
0.0156001
2.16312e-05
0.0155938
2.56252e-05
0.0155864
2.97701e-05
0.015578
3.40623e-05
0.0155686
3.84967e-05
0.015558
4.3068e-05
0.0155462
4.77693e-05
0.0155333
5.25935e-05
0.0155191
5.75317e-05
0.0155038
6.25754e-05
0.0154872
6.77132e-05
0.0154693
7.29356e-05
0.0154501
7.82286e-05
0.0154296
8.35822e-05
0.0154078
8.89797e-05
0.0153847
9.44113e-05
0.0153603
9.9857e-05
0.0153345
0.000105309
0.0153074
0.000110743
0.0152791
0.000116153
0.0152494
0.000121513
0.0152184
0.000126819
0.0151861
0.00013204
0.0151527
0.000137177
0.015118
0.000142196
0.0150821
0.000147095
0.0150451
0.000151846
0.0150069
0.000156431
0.0149677
0.000160847
0.0149275
0.00016503
0.0148863
0.000169037
0.000172703
0.0151849
-4.13712e-05
0.015193
-4.11676e-05
0.015201
-4.08912e-05
0.015209
-4.05374e-05
0.0152168
-4.01014e-05
0.0152246
-3.95782e-05
0.0152322
-3.89626e-05
0.0152397
-3.8249e-05
0.0152471
-3.74322e-05
0.0152542
-3.65066e-05
0.0152612
-3.54665e-05
0.0152679
-3.43062e-05
0.0152743
-3.302e-05
0.0152805
-3.16021e-05
0.0152864
-3.00468e-05
0.0152919
-2.83483e-05
0.015297
-2.6501e-05
0.0153018
-2.44994e-05
0.0153061
-2.23379e-05
0.01531
-2.00115e-05
0.0153134
-1.7515e-05
0.0153163
-1.48438e-05
0.0153185
-1.19934e-05
0.0153202
-8.95962e-06
0.0153213
-5.73878e-06
0.0153217
-2.32695e-06
0.0153214
1.27629e-06
0.0153203
5.07069e-06
0.0153185
9.06251e-06
0.0153158
1.32511e-05
0.0153123
1.76361e-05
0.0153078
2.22164e-05
0.0153025
2.69899e-05
0.0152961
3.19539e-05
0.0152888
3.71045e-05
0.0152804
4.24368e-05
0.015271
4.79448e-05
0.0152604
5.36214e-05
0.0152488
5.94582e-05
0.0152359
6.54462e-05
0.0152219
7.15745e-05
0.0152066
7.78319e-05
0.0151901
8.4205e-05
0.0151724
9.06807e-05
0.0151533
9.72435e-05
0.0151331
0.000103878
0.0151115
0.000110568
0.0150886
0.000117295
0.0150644
0.000124042
0.0150389
0.00013079
0.0150121
0.000137519
0.0149841
0.000144212
0.0149547
0.000150848
0.0149242
0.000157407
0.0148923
0.000163871
0.0148593
0.000170216
0.0148251
0.000176431
0.0147897
0.000182477
0.0147532
0.000188364
0.0147156
0.000194021
0.0146769
0.000199495
0.0146373
0.000204657
0.0145967
0.000209626
0.000214155
0.014897
-4.9485e-05
0.0149051
-4.92374e-05
0.0149131
-4.89024e-05
0.014921
-4.84746e-05
0.0149288
-4.79482e-05
0.0149366
-4.73173e-05
0.0149442
-4.65755e-05
0.0149517
-4.57166e-05
0.014959
-4.47338e-05
0.0149661
-4.36208e-05
0.014973
-4.23707e-05
0.0149797
-4.09768e-05
0.0149861
-3.94322e-05
0.0149922
-3.77301e-05
0.014998
-3.58636e-05
0.0150035
-3.3826e-05
0.0150086
-3.16106e-05
0.0150133
-2.92107e-05
0.0150176
-2.66199e-05
0.0150214
-2.38322e-05
0.0150247
-2.08415e-05
0.0150275
-1.76423e-05
0.0150298
-1.42294e-05
0.0150314
-1.05979e-05
0.0150324
-6.74341e-06
0.0150328
-2.66136e-06
0.0150324
1.64837e-06
0.0150313
6.18626e-06
0.0150294
1.09589e-05
0.0150267
1.59655e-05
0.0150231
2.12056e-05
0.0150186
2.66776e-05
0.0150132
3.23792e-05
0.0150069
3.83068e-05
0.0149995
4.44557e-05
0.0149912
5.08198e-05
0.0149817
5.7392e-05
0.0149712
6.41635e-05
0.0149595
7.11246e-05
0.0149467
7.82637e-05
0.0149327
8.55684e-05
0.0149175
9.30245e-05
0.0149011
0.000100617
0.0148834
0.000108329
0.0148645
0.000116142
0.0148444
0.000124039
0.0148229
0.000131999
0.0148002
0.00014
0.0147763
0.000148024
0.014751
0.000156044
0.0147245
0.000164044
0.0146967
0.000171993
0.0146677
0.000179878
0.0146374
0.000187663
0.0146059
0.000195343
0.0145733
0.000202868
0.0145395
0.00021025
0.0145045
0.000217419
0.0144685
0.000224412
0.0144314
0.000231118
0.0143932
0.000237625
0.0143542
0.000243745
0.0143141
0.000249656
0.000255031
0.0146169
-5.76037e-05
0.014625
-5.73097e-05
0.014633
-5.69137e-05
0.014641
-5.64094e-05
0.0146488
-5.579e-05
0.0146565
-5.50486e-05
0.0146641
-5.41779e-05
0.0146716
-5.31704e-05
0.0146789
-5.20188e-05
0.014686
-5.07151e-05
0.0146929
-4.92519e-05
0.0146995
-4.7621e-05
0.0147059
-4.58148e-05
0.014712
-4.38252e-05
0.0147178
-4.16443e-05
0.0147232
-3.92643e-05
0.0147283
-3.66775e-05
0.0147329
-3.38763e-05
0.0147372
-3.08534e-05
0.0147409
-2.76016e-05
0.0147442
-2.41141e-05
0.0147469
-2.03846e-05
0.0147491
-1.64071e-05
0.0147507
-1.21762e-05
0.0147516
-7.68669e-06
0.0147519
-2.93352e-06
0.0147515
2.08303e-06
0.0147503
7.3644e-06
0.0147483
1.29172e-05
0.0147456
1.87405e-05
0.0147419
2.48336e-05
0.0147374
3.11947e-05
0.014732
3.78208e-05
0.0147256
4.47076e-05
0.0147182
5.18493e-05
0.0147098
5.9239e-05
0.0147003
6.68679e-05
0.0146897
7.47259e-05
0.0146781
8.28015e-05
0.0146652
9.10809e-05
0.0146513
9.95499e-05
0.0146361
0.000108191
0.0146197
0.000116988
0.0146021
0.00012592
0.0145833
0.000134968
0.0145632
0.000144107
0.0145419
0.000153318
0.0145193
0.000162572
0.0144955
0.00017185
0.0144704
0.000181119
0.0144441
0.000190364
0.0144166
0.000199543
0.0143878
0.000208651
0.0143578
0.000217634
0.0143267
0.000226501
0.0142944
0.000235179
0.0142609
0.000243701
0.0142264
0.000251964
0.0141907
0.000260038
0.0141541
0.000267766
0.0141164
0.000275283
0.0140778
0.000282337
0.0140383
0.000289173
0.000295375
0.0143444
-6.5747e-05
0.0143525
-6.5404e-05
0.0143606
-6.49441e-05
0.0143685
-6.43601e-05
0.0143764
-6.36445e-05
0.0143841
-6.27892e-05
0.0143917
-6.17859e-05
0.0143992
-6.06263e-05
0.0144065
-5.93018e-05
0.0144135
-5.78036e-05
0.0144204
-5.61229e-05
0.014427
-5.4251e-05
0.0144334
-5.21787e-05
0.0144395
-4.98972e-05
0.0144452
-4.73974e-05
0.0144506
-4.46706e-05
0.0144557
-4.1708e-05
0.0144603
-3.85011e-05
0.0144645
-3.50416e-05
0.0144682
-3.13215e-05
0.0144714
-2.73332e-05
0.0144741
-2.30695e-05
0.0144762
-1.85238e-05
0.0144777
-1.369e-05
0.0144786
-8.56258e-06
0.0144788
-3.13565e-06
0.0144783
2.58976e-06
0.0144771
8.61636e-06
0.014475
1.49504e-05
0.0144722
2.15909e-05
0.0144685
2.85369e-05
0.0144639
3.57861e-05
0.0144584
4.33349e-05
0.0144519
5.11781e-05
0.0144444
5.93091e-05
0.014436
6.77196e-05
0.0144264
7.63997e-05
0.0144158
8.53373e-05
0.0144041
9.45193e-05
0.0143912
0.00010393
0.0143772
0.000113552
0.0143621
0.000123367
0.0143457
0.000133355
0.0143281
0.000143492
0.0143093
0.000153757
0.0142893
0.000164121
0.0142681
0.000174564
0.0142456
0.00018505
0.0142219
0.000195561
0.0141969
0.000206055
0.0141708
0.00021652
0.0141434
0.000226905
0.0141149
0.000237208
0.0140851
0.000247362
0.0140543
0.000257387
0.0140222
0.00026719
0.0139891
0.000276823
0.0139549
0.000286153
0.0139197
0.00029528
0.0138835
0.000304004
0.0138462
0.000312507
0.0138081
0.000320474
0.0137691
0.000328216
0.000335227
0.0140791
-7.39324e-05
0.0140873
-7.35372e-05
0.0140953
-7.30101e-05
0.0141033
-7.23429e-05
0.0141112
-7.15272e-05
0.014119
-7.0554e-05
0.0141266
-6.9414e-05
0.0141341
-6.80977e-05
0.0141414
-6.65956e-05
0.0141484
-6.4898e-05
0.0141553
-6.2995e-05
0.0141619
-6.08767e-05
0.0141683
-5.85331e-05
0.0141744
-5.59542e-05
0.0141801
-5.31301e-05
0.0141855
-5.00508e-05
0.0141905
-4.67068e-05
0.0141951
-4.30885e-05
0.0141992
-3.91868e-05
0.0142029
-3.49928e-05
0.014206
-3.04982e-05
0.0142087
-2.56951e-05
0.0142107
-2.05762e-05
0.0142122
-1.51347e-05
0.014213
-9.36479e-06
0.0142131
-3.25995e-06
0.0142125
3.17795e-06
0.0142112
9.95306e-06
0.014209
1.7071e-05
0.0142061
2.45308e-05
0.0142023
3.23311e-05
0.0141976
4.0469e-05
0.014192
4.89402e-05
0.0141855
5.77388e-05
0.0141779
6.68571e-05
0.0141693
7.62853e-05
0.0141597
8.60122e-05
0.014149
9.6024e-05
0.0141373
0.000106306
0.0141243
0.000116839
0.0141103
0.000127606
0.0140951
0.000138584
0.0140787
0.00014975
0.0140611
0.000161079
0.0140423
0.000172546
0.0140223
0.000184118
0.0140011
0.000195773
0.0139787
0.000207471
0.013955
0.000219193
0.0139302
0.000230889
0.0139042
0.00024255
0.013877
0.000254114
0.0138486
0.000265585
0.0138191
0.000276884
0.0137884
0.000288038
0.0137567
0.000298938
0.0137238
0.000309653
0.01369
0.000320021
0.0136551
0.000330174
0.0136192
0.000339868
0.0135824
0.000349333
0.0135447
0.000358189
0.0135061
0.000366819
0.000374622
0.0138207
-8.21756e-05
0.0138289
-8.17247e-05
0.013837
-8.11265e-05
0.0138451
-8.03721e-05
0.013853
-7.94519e-05
0.0138608
-7.83561e-05
0.0138685
-7.70744e-05
0.013876
-7.55964e-05
0.0138833
-7.39114e-05
0.0138904
-7.20087e-05
0.0138973
-6.98775e-05
0.0139039
-6.75068e-05
0.0139103
-6.48856e-05
0.0139163
-6.20029e-05
0.013922
-5.88478e-05
0.0139274
-5.54094e-05
0.0139324
-5.16772e-05
0.0139369
-4.76408e-05
0.013941
-4.32901e-05
0.0139446
-3.86155e-05
0.0139477
-3.3608e-05
0.0139503
-2.82588e-05
0.0139523
-2.25603e-05
0.0139537
-1.65051e-05
0.0139544
-1.00868e-05
0.0139544
-3.29848e-06
0.0139537
3.8569e-06
0.0139523
1.13852e-05
0.0139501
1.92912e-05
0.013947
2.75738e-05
0.0139431
3.6231e-05
0.0139384
4.52597e-05
0.0139326
5.46546e-05
0.013926
6.44088e-05
0.0139183
7.45136e-05
0.0139096
8.49577e-05
0.0138999
9.57286e-05
0.0138891
0.00010681
0.0138773
0.000118186
0.0138643
0.000129836
0.0138501
0.000141739
0.0138348
0.000153869
0.0138184
0.000166203
0.0138008
0.00017871
0.0137819
0.000191364
0.0137619
0.000204128
0.0137407
0.000216978
0.0137183
0.000229868
0.0136947
0.000242779
0.01367
0.000255655
0.013644
0.000268487
0.0136169
0.000281205
0.0135887
0.000293817
0.0135594
0.000306231
0.0135289
0.000318488
0.0134974
0.000330455
0.0134648
0.000342223
0.0134313
0.0003536
0.0133967
0.000364751
0.0133612
0.000375388
0.0133247
0.00038579
0.0132874
0.000395512
0.0132492
0.000405012
0.000413589
0.013569
-9.04904e-05
0.0135773
-8.99798e-05
0.0135854
-8.93063e-05
0.0135935
-8.84599e-05
0.0136015
-8.74304e-05
0.0136094
-8.62068e-05
0.0136171
-8.47779e-05
0.0136246
-8.31323e-05
0.0136319
-8.12583e-05
0.0136391
-7.91442e-05
0.013646
-7.67781e-05
0.0136526
-7.41481e-05
0.013659
-7.12422e-05
0.013665
-6.80484e-05
0.0136707
-6.45548e-05
0.0136761
-6.07497e-05
0.013681
-5.66216e-05
0.0136855
-5.21592e-05
0.0136896
-4.73516e-05
0.0136932
-4.21886e-05
0.0136962
-3.66603e-05
0.0136987
-3.07575e-05
0.0137006
-2.44717e-05
0.0137019
-1.77954e-05
0.0137026
-1.07217e-05
0.0137025
-3.24319e-06
0.0137017
4.6359e-06
0.0137002
1.29233e-05
0.0136979
2.16227e-05
0.0136947
3.07327e-05
0.0136907
4.0251e-05
0.0136858
5.01736e-05
0.0136799
6.04946e-05
0.0136731
7.12059e-05
0.0136653
8.22977e-05
0.0136565
9.37572e-05
0.0136467
0.00010557
0.0136358
0.000117719
0.0136238
0.000130185
0.0136107
0.000142945
0.0135964
0.000155976
0.0135811
0.00016925
0.0135645
0.000182741
0.0135468
0.000196414
0.0135279
0.000210242
0.0135079
0.000224181
0.0134867
0.000238208
0.0134643
0.000252271
0.0134407
0.00026635
0.013416
0.000280382
0.0133901
0.000294361
0.0133631
0.000308206
0.013335
0.000321933
0.0133058
0.000335434
0.0132755
0.000348763
0.0132442
0.000361767
0.0132118
0.000374559
0.0131785
0.000386916
0.0131442
0.000399037
0.013109
0.000410589
0.0130729
0.000421904
0.013036
0.000432468
0.0129982
0.000442821
0.000452154
0.0133237
-9.88891e-05
0.013332
-9.83144e-05
0.0133403
-9.75607e-05
0.0133484
-9.66174e-05
0.0133565
-9.54731e-05
0.0133644
-9.41159e-05
0.0133721
-9.25337e-05
0.0133797
-9.07139e-05
0.0133871
-8.86441e-05
0.0133943
-8.63114e-05
0.0134012
-8.3703e-05
0.0134078
-8.08061e-05
0.0134142
-7.76075e-05
0.0134203
-7.40945e-05
0.013426
-7.02541e-05
0.0134313
-6.60737e-05
0.0134362
-6.15409e-05
0.0134407
-5.66438e-05
0.0134447
-5.13706e-05
0.0134482
-4.57102e-05
0.0134512
-3.96523e-05
0.0134536
-3.31871e-05
0.0134555
-2.63056e-05
0.0134567
-1.89998e-05
0.0134572
-1.12625e-05
0.0134571
-3.08588e-06
0.0134562
5.52422e-06
0.0134545
1.45776e-05
0.0134521
2.40768e-05
0.0134488
3.40201e-05
0.0134446
4.44047e-05
0.0134396
5.52255e-05
0.0134336
6.64761e-05
0.0134267
7.81471e-05
0.0134187
9.02273e-05
0.0134098
0.000102702
0.0133998
0.000115557
0.0133887
0.00012877
0.0133766
0.000142322
0.0133634
0.000156188
0.013349
0.000170341
0.0133335
0.00018475
0.0133168
0.000199388
0.013299
0.000214215
0.0132801
0.000229203
0.01326
0.000244303
0.0132387
0.00025949
0.0132162
0.000274706
0.0131927
0.000289932
0.013168
0.000305097
0.0131421
0.000320198
0.0131152
0.000335145
0.0130872
0.000349958
0.0130581
0.000364518
0.0130279
0.000378889
0.0129968
0.000392901
0.0129647
0.000406686
0.0129316
0.000419993
0.0128976
0.000433055
0.0128627
0.000445494
0.0128269
0.000457697
0.0127903
0.000469079
0.0127528
0.000480266
0.000490338
0.0130845
-0.000107382
0.0130929
-0.000106739
0.0131013
-0.0001059
0.0131095
-0.000104854
0.0131176
-0.000103588
0.0131256
-0.000102091
0.0131334
-0.000100349
0.013141
-9.83481e-05
0.0131485
-9.6075e-05
0.0131557
-9.3516e-05
0.0131626
-9.06572e-05
0.0131693
-8.74849e-05
0.0131757
-8.3985e-05
0.0131817
-8.01437e-05
0.0131874
-7.59472e-05
0.0131927
-7.13822e-05
0.0131976
-6.64353e-05
0.0132021
-6.10937e-05
0.013206
-5.53451e-05
0.0132095
-4.91777e-05
0.0132124
-4.25805e-05
0.0132148
-3.55431e-05
0.0132165
-2.80563e-05
0.0132177
-2.01117e-05
0.0132181
-1.17019e-05
0.0132178
-2.81818e-06
0.0132168
6.53113e-06
0.013215
1.63584e-05
0.0132125
2.66648e-05
0.013209
3.74482e-05
0.0132047
4.8705e-05
0.0131995
6.04294e-05
0.0131934
7.26139e-05
0.0131863
8.52479e-05
0.0131782
9.83189e-05
0.0131691
0.000111811
0.0131589
0.000125706
0.0131477
0.000139983
0.0131354
0.000154619
0.013122
0.000169585
0.0131075
0.000184854
0.0130919
0.000200392
0.0130751
0.000216167
0.0130572
0.000232137
0.0130381
0.00024827
0.0130179
0.000264516
0.0129965
0.000280845
0.012974
0.000297196
0.0129504
0.000313548
0.0129257
0.000329824
0.0128999
0.000346022
0.012873
0.000362043
0.012845
0.000377915
0.012816
0.000393504
0.012786
0.000408888
0.0127551
0.000423877
0.0127231
0.000438624
0.0126903
0.000452849
0.0126565
0.000466824
0.0126219
0.000480121
0.0125864
0.000493187
0.0125501
0.000505363
0.012513
0.000517366
0.000528159
0.0128512
-0.000115979
0.0128598
-0.000115261
0.0128682
-0.000114331
0.0128765
-0.000113176
0.0128847
-0.000111784
0.0128928
-0.00011014
0.0129006
-0.00010823
0.0129083
-0.00010604
0.0129158
-0.000103556
0.0129231
-0.000100762
0.01293
-9.76441e-05
0.0129367
-9.41872e-05
0.0129431
-9.03765e-05
0.0129492
-8.61973e-05
0.0129549
-8.16349e-05
0.0129602
-7.6675e-05
0.012965
-7.13036e-05
0.0129695
-6.55072e-05
0.0129734
-5.92726e-05
0.0129768
-5.25876e-05
0.0129797
-4.54405e-05
0.0129819
-3.78205e-05
0.0129836
-2.97181e-05
0.0129846
-2.11244e-05
0.0129849
-1.20321e-05
0.0129845
-2.43155e-06
0.0129834
7.66585e-06
0.0129815
1.82758e-05
0.0129788
2.93977e-05
0.0129752
4.10288e-05
0.0129707
5.31645e-05
0.0129654
6.57985e-05
0.012959
7.89221e-05
0.0129518
9.25234e-05
0.0129435
0.000106588
0.0129342
0.000121099
0.0129239
0.000136036
0.0129125
0.000151376
0.0129
0.000167093
0.0128864
0.000183156
0.0128718
0.000199536
0.012856
0.000216194
0.012839
0.000233097
0.012821
0.000250199
0.0128018
0.000267466
0.0127814
0.000284842
0.01276
0.000302297
0.0127374
0.000319762
0.0127138
0.000337219
0.012689
0.000354582
0.0126632
0.000371853
0.0126363
0.000388921
0.0126084
0.000405824
0.0125795
0.000422412
0.0125496
0.000438778
0.0125187
0.000454712
0.012487
0.000470391
0.0124543
0.000485503
0.0124208
0.00050036
0.0123864
0.000514485
0.0123512
0.000528389
0.0123153
0.000541334
0.0122785
0.000554134
0.00056563
0.0126237
-0.000124688
0.0126323
-0.00012389
0.0126409
-0.000122862
0.0126493
-0.000121592
0.0126576
-0.000120065
0.0126657
-0.000118267
0.0126736
-0.000116182
0.0126814
-0.000113795
0.0126889
-0.00011109
0.0126962
-0.000108053
0.0127032
-0.000104666
0.01271
-0.000100915
0.0127164
-9.67831e-05
0.0127224
-9.22555e-05
0.0127281
-8.73165e-05
0.0127334
-8.19509e-05
0.0127382
-7.61439e-05
0.0127426
-6.98814e-05
0.0127465
-6.31496e-05
0.0127498
-5.59357e-05
0.0127526
-4.82274e-05
0.0127548
-4.00137e-05
0.0127564
-3.12845e-05
0.0127573
-2.2031e-05
0.0127575
-1.22454e-05
0.012757
-1.91734e-06
0.0127557
8.93756e-06
0.0127536
2.03398e-05
0.0127508
3.22862e-05
0.012747
4.4773e-05
0.0127424
5.77952e-05
0.0127368
7.13456e-05
0.0127303
8.54141e-05
0.0127229
9.99873e-05
0.0127144
0.00011505
0.0127049
0.000130582
0.0126944
0.000146562
0.0126828
0.000162964
0.0126702
0.000179761
0.0126564
0.000196917
0.0126415
0.000214403
0.0126255
0.000232175
0.0126084
0.000250197
0.0125902
0.000268421
0.0125709
0.000286808
0.0125504
0.000305299
0.0125289
0.000323862
0.0125062
0.000342424
0.0124824
0.000360963
0.0124576
0.00037939
0.0124318
0.000397708
0.0124049
0.000415797
0.012377
0.000433701
0.0123482
0.000451259
0.0123184
0.000468576
0.0122877
0.000485422
0.0122561
0.000502
0.0122236
0.000517967
0.0121903
0.000533676
0.0121562
0.000548599
0.0121212
0.000563315
0.0120856
0.000577002
0.0120491
0.000590583
0.000602764
0.0124017
-0.000133514
0.0124104
-0.00013263
0.0124191
-0.000131499
0.0124276
-0.000130106
0.0124359
-0.000128438
0.0124441
-0.000126477
0.0124522
-0.000124208
0.01246
-0.000121615
0.0124676
-0.000118681
0.0124749
-0.000115389
0.012482
-0.000111724
0.0124887
-0.000107668
0.0124952
-0.000103204
0.0125012
-9.83174e-05
0.0125069
-9.29904e-05
0.0125121
-8.72075e-05
0.012517
-8.09534e-05
0.0125213
-7.42129e-05
0.0125251
-6.6972e-05
0.0125284
-5.92171e-05
0.0125311
-5.09357e-05
0.0125332
-4.21163e-05
0.0125347
-3.27487e-05
0.0125355
-2.2824e-05
0.0125355
-1.23338e-05
0.0125349
-1.26673e-06
0.0125335
1.03554e-05
0.0125313
2.25603e-05
0.0125282
3.53405e-05
0.0125243
4.86918e-05
0.0125195
6.26087e-05
0.0125137
7.70827e-05
0.012507
9.21024e-05
0.0124994
0.000107653
0.0124907
0.000123717
0.012481
0.000140274
0.0124703
0.000157298
0.0124585
0.000174763
0.0124456
0.000192638
0.0124316
0.000210885
0.0124166
0.000229471
0.0124004
0.00024835
0.0123831
0.000267484
0.0123647
0.000286818
0.0123452
0.000306313
0.0123246
0.000325904
0.0123029
0.000345559
0.0122801
0.000365197
0.0122563
0.000384798
0.0122314
0.000404265
0.0122055
0.000423604
0.0121786
0.000442686
0.0121508
0.000461562
0.012122
0.000480057
0.0120923
0.000498293
0.0120617
0.000516019
0.0120302
0.000533463
0.0119979
0.000550253
0.0119648
0.000566781
0.0119309
0.000582473
0.0118963
0.000597973
0.0118609
0.000612378
0.0118248
0.000626719
0.000639568
0.012185
-0.000142465
0.0121938
-0.000141488
0.0122026
-0.000140245
0.0122112
-0.000138723
0.0122197
-0.000136904
0.012228
-0.000134772
0.0122361
-0.00013231
0.0122439
-0.000129501
0.0122516
-0.000126328
0.012259
-0.000122772
0.0122661
-0.000118817
0.0122728
-0.000114445
0.0122793
-0.000109639
0.0122853
-0.000104381
0.012291
-9.86541e-05
0.0122962
-9.24419e-05
0.012301
-8.57281e-05
0.0123053
-7.84974e-05
0.0123091
-7.07347e-05
0.0123123
-6.24263e-05
0.0123149
-5.35593e-05
0.0123169
-4.41219e-05
0.0123183
-3.41035e-05
0.0123189
-2.34956e-05
0.0123189
-1.22898e-05
0.0123181
-4.7076e-07
0.0123165
1.19287e-05
0.0123141
2.49469e-05
0.0123109
3.85707e-05
0.0123068
5.2796e-05
0.0123018
6.76161e-05
0.0122958
8.30213e-05
0.0122889
9.89989e-05
0.0122811
0.000115532
0.0122722
0.000132603
0.0122623
0.000150187
0.0122513
0.000168258
0.0122393
0.000186786
0.0122262
0.000205738
0.012212
0.000225074
0.0121967
0.000244756
0.0121803
0.000264736
0.0121628
0.000284972
0.0121443
0.000305405
0.0121246
0.000325996
0.0121038
0.000346673
0.012082
0.000367401
0.0120591
0.000388096
0.0120351
0.000408737
0.0120102
0.00042922
0.0119842
0.000449553
0.0119573
0.0004696
0.0119294
0.000489417
0.0119007
0.00050882
0.011871
0.000527941
0.0118405
0.000546513
0.0118092
0.00056479
0.0117771
0.000582368
0.0117442
0.000599685
0.0117106
0.000616113
0.0116762
0.00063237
0.0116411
0.000647467
0.0116052
0.000662549
0.000676047
0.0119734
-0.000151543
0.0119824
-0.000150466
0.0119912
-0.000149104
0.012
-0.000147443
0.0120085
-0.000145466
0.0120169
-0.000143154
0.0120251
-0.00014049
0.012033
-0.000137455
0.0120407
-0.000134032
0.0120482
-0.000130201
0.0120553
-0.000125946
0.0120621
-0.000121246
0.0120685
-0.000116085
0.0120746
-0.000110443
0.0120803
-0.000104304
0.0120855
-9.76499e-05
0.0120902
-9.04637e-05
0.0120944
-8.27296e-05
0.0120981
-7.44323e-05
0.0121013
-6.55574e-05
0.0121038
-5.60917e-05
0.0121057
-4.60233e-05
0.0121069
-3.53415e-05
0.0121075
-2.40372e-05
0.0121073
-1.21025e-05
0.0121063
4.73515e-07
0.0121046
1.36681e-05
0.012102
2.75093e-05
0.0120986
4.1987e-05
0.0120943
5.70958e-05
0.0120891
7.28279e-05
0.012083
8.91723e-05
0.0120758
0.000106115
0.0120677
0.000123637
0.0120586
0.000141719
0.0120485
0.000160334
0.0120373
0.000179455
0.012025
0.000199046
0.0120117
0.000219074
0.0119973
0.000239495
0.0119817
0.000260269
0.0119651
0.000281343
0.0119474
0.000302674
0.0119286
0.000324197
0.0119088
0.00034587
0.0118878
0.000367617
0.0118658
0.000389401
0.0118428
0.000411133
0.0118187
0.000432792
0.0117937
0.000454267
0.0117677
0.000475567
0.0117407
0.00049655
0.0117129
0.000517279
0.0116841
0.000537555
0.0116545
0.000557529
0.0116241
0.000576913
0.0115929
0.000595988
0.011561
0.00061432
0.0115283
0.000632392
0.0114949
0.000649524
0.0114607
0.00066651
0.0114259
0.000682272
0.0113904
0.000698077
0.000712206
0.0117668
-0.000160752
0.0117759
-0.000159567
0.0117849
-0.000158079
0.0117937
-0.000156271
0.0118023
-0.000154125
0.0118108
-0.000151623
0.0118191
-0.000148747
0.0118271
-0.000145476
0.0118349
-0.000141791
0.0118423
-0.000137675
0.0118495
-0.000133106
0.0118563
-0.000128067
0.0118628
-0.000122538
0.0118688
-0.000116501
0.0118744
-0.000109936
0.0118796
-0.000102827
0.0118843
-9.51549e-05
0.0118885
-8.69041e-05
0.0118921
-7.80586e-05
0.0118952
-6.86037e-05
0.0118976
-5.8526e-05
0.0118994
-4.78132e-05
0.0119005
-3.64548e-05
0.0119009
-2.44416e-05
0.0119006
-1.1766e-05
0.0118995
1.57993e-06
0.0118975
1.55812e-05
0.0118948
3.02567e-05
0.0118912
4.55987e-05
0.0118867
6.16008e-05
0.0118813
7.8254e-05
0.0118749
9.55458e-05
0.0118675
0.000113461
0.0118592
0.000131978
0.0118498
0.000151076
0.0118395
0.000170726
0.011828
0.000190898
0.0118155
0.000211554
0.0118019
0.000232658
0.0117872
0.000254162
0.0117715
0.000276023
0.0117547
0.000298185
0.0117367
0.000320601
0.0117177
0.000343203
0.0116976
0.000365946
0.0116765
0.000388748
0.0116543
0.000411571
0.0116312
0.00043432
0.011607
0.000456974
0.0115818
0.000479415
0.0115557
0.000501656
0.0115287
0.000523545
0.0115009
0.000545154
0.0114721
0.000566271
0.0114426
0.000587063
0.0114123
0.000607224
0.0113812
0.000627062
0.0113494
0.000646112
0.0113169
0.000664905
0.0112837
0.000682709
0.0112499
0.000700395
0.0112153
0.000716795
0.0111801
0.000733302
0.000748044
0.011565
-0.000170095
0.0115742
-0.000168794
0.0115833
-0.000167169
0.0115922
-0.000165205
0.011601
-0.000162882
0.0116095
-0.00016018
0.0116178
-0.00015708
0.0116259
-0.000153561
0.0116337
-0.000149604
0.0116413
-0.000145189
0.0116485
-0.000140296
0.0116553
-0.000134905
0.0116617
-0.000128996
0.0116678
-0.000122549
0.0116734
-0.000115545
0.0116785
-0.000107967
0.0116832
-9.97957e-05
0.0116873
-9.10143e-05
0.0116908
-8.16068e-05
0.0116938
-7.15582e-05
0.0116961
-6.08548e-05
0.0116978
-4.94842e-05
0.0116988
-3.74358e-05
0.011699
-2.47007e-05
0.0116985
-1.12712e-05
0.0116973
2.85754e-06
0.0116952
1.76764e-05
0.0116922
3.31978e-05
0.0116884
4.9415e-05
0.0116837
6.63204e-05
0.011678
8.39039e-05
0.0116714
0.000102152
0.0116639
0.000121046
0.0116553
0.000140565
0.0116457
0.000160684
0.011635
0.000181373
0.0116233
0.000202598
0.0116105
0.00022432
0.0115967
0.000246499
0.0115818
0.000269083
0.0115658
0.000292028
0.0115487
0.000315272
0.0115305
0.000338765
0.0115113
0.000362435
0.011491
0.000386234
0.0114697
0.000410076
0.0114473
0.00043392
0.011424
0.000457666
0.0113997
0.000481292
0.0113744
0.000504674
0.0113482
0.000527828
0.0113212
0.000550593
0.0112933
0.000573049
0.0112646
0.000594974
0.0112351
0.000616549
0.0112049
0.00063745
0.0111739
0.000658015
0.0111423
0.000677746
0.01111
0.000697227
0.011077
0.000715668
0.0110434
0.000734025
0.0110091
0.000751035
0.0109742
0.000768225
0.000783562
0.0113677
-0.000179571
0.0113771
-0.000178145
0.0113863
-0.000176376
0.0113953
-0.000174246
0.0114042
-0.000171734
0.0114128
-0.000168821
0.0114212
-0.000165487
0.0114294
-0.000161709
0.0114373
-0.000157468
0.0114448
-0.000152742
0.011452
-0.000147511
0.0114589
-0.000141754
0.0114653
-0.000135451
0.0114714
-0.000128581
0.0114769
-0.000121126
0.011482
-0.000113064
0.0114866
-0.000104379
0.0114907
-9.50535e-05
0.0114941
-8.50699e-05
0.011497
-7.44135e-05
0.0114992
-6.30704e-05
0.0115007
-5.10282e-05
0.0115016
-3.82764e-05
0.0115017
-2.48061e-05
0.011501
-1.06099e-05
0.0114996
4.31463e-06
0.0114973
1.99624e-05
0.0114941
3.63414e-05
0.0114901
5.34445e-05
0.0114852
7.12634e-05
0.0114793
8.97866e-05
0.0114724
0.000108998
0.0114646
0.00012888
0.0114558
0.000149407
0.0114459
0.000170553
0.011435
0.000192284
0.011423
0.000214566
0.01141
0.000237354
0.0113959
0.000260607
0.0113807
0.000284269
0.0113644
0.000308293
0.0113471
0.000332612
0.0113287
0.000357174
0.0113092
0.000381902
0.0112887
0.000406743