/*--------------------------------*- C++ -*----------------------------------*\
  =========                 |
  \\      /  F ield         | OpenFOAM: The Open Source CFD Toolbox
   \\    /   O peration     | Website:  https://openfoam.org
    \\  /    A nd           | Version:  7
     \\/     M anipulation  |
\*---------------------------------------------------------------------------*/
FoamFile
{
    version     2.0;
    format      ascii;
    class       volVectorField;
    location    "29.000062";
    object      U;
}
// * * * * * * * * * * * * * * * * * * * * * * * * * * * * * * * * * * * * * //

dimensions      [0 1 -1 0 0 0 0];

internalField   nonuniform List<vector> 
5800
(
(-0.10513 -0.0103658 -8.58061e-21)
(-0.133717 -0.00904994 -3.51851e-21)
(-0.154867 -0.00704024 2.15687e-20)
(-0.16887 -0.00446423 -8.45569e-21)
(-0.17585 -0.00152916 9.53047e-22)
(1.04924 -0.000721916 0)
(1.04978 -0.000703786 0)
(1.05032 -0.000684934 0)
(1.05086 -0.00066534 0)
(1.05138 -0.000644983 0)
(1.05191 -0.000623841 0)
(1.05242 -0.000601897 0)
(1.05293 -0.000579133 0)
(1.05343 -0.000555536 0)
(1.05391 -0.000531094 0)
(1.05438 -0.0005058 0)
(1.05484 -0.000479646 0)
(1.05529 -0.00045263 0)
(1.05571 -0.00042475 0)
(1.05612 -0.000396008 0)
(1.0565 -0.000366411 0)
(1.05686 -0.000335966 0)
(1.0572 -0.000304686 0)
(1.05751 -0.000272586 0)
(1.05779 -0.000239685 0)
(1.05804 -0.000206006 0)
(1.05825 -0.000171577 0)
(1.05843 -0.000136429 0)
(1.05857 -0.000100597 0)
(1.05867 -6.41217e-05 0)
(1.05873 -2.7047e-05 0)
(1.05874 1.05774e-05 0)
(1.0587 4.86977e-05 0)
(1.05861 8.72544e-05 0)
(1.05847 0.000126187 0)
(1.05827 0.000165424 0)
(1.05801 0.000204898 0)
(1.05769 0.000244526 0)
(1.05731 0.000284236 0)
(1.05686 0.00032393 0)
(1.05634 0.000363539 0)
(1.05575 0.000402943 0)
(1.05509 0.000442086 0)
(1.05435 0.000480819 0)
(1.05353 0.000519112 0)
(1.05264 0.000556768 0)
(1.05165 0.000593817 0)
(1.0506 0.000629978 0)
(1.04943 0.000665387 0)
(1.04822 0.000699631 0)
(1.04687 0.000733021 0)
(1.0455 0.000764924 0)
(1.04394 0.000795947 0)
(1.04243 0.000825098 0)
(1.04066 0.000853453 0)
(1.03901 0.000879459 0)
(1.037 0.000904908 0)
(1.03525 0.000927394 0)
(1.03296 0.000949774 0)
(1.03116 0.000968396 0)
(1.02854 0.000987605 0)
(1.02678 0.00100206 0)
(1.02374 0.00101802 0)
(1.02213 0.00102809 0)
(1.01855 0.00104063 0)
(1.01725 0.00104629 0)
(1.01295 0.00105487 0)
(1.01222 0.00105676 0)
(1.00689 0.00105995 0)
(1.04946 -0.0021402 0)
(1.05001 -0.0020877 0)
(1.05055 -0.00203287 0)
(1.05108 -0.00197565 0)
(1.05161 -0.00191601 0)
(1.05214 -0.00185391 0)
(1.05265 -0.00178929 0)
(1.05316 -0.00172213 0)
(1.05366 -0.00165239 0)
(1.05415 -0.00158005 0)
(1.05462 -0.00150509 0)
(1.05508 -0.00142751 0)
(1.05553 -0.0013473 0)
(1.05595 -0.00126446 0)
(1.05636 -0.001179 0)
(1.05675 -0.00109096 0)
(1.05711 -0.00100034 0)
(1.05745 -0.000907207 0)
(1.05776 -0.000811598 0)
(1.05804 -0.000713576 0)
(1.05829 -0.000613214 0)
(1.0585 -0.000510595 0)
(1.05868 -0.000405817 0)
(1.05882 -0.000298988 0)
(1.05892 -0.000190231 0)
(1.05898 -7.96777e-05 0)
(1.05899 3.25203e-05 0)
(1.05895 0.000146207 0)
(1.05886 0.000261202 0)
(1.05871 0.000377319 0)
(1.05851 0.000494347 0)
(1.05825 0.000612077 0)
(1.05793 0.000730268 0)
(1.05755 0.000848695 0)
(1.0571 0.000967081 0)
(1.05657 0.00108519 0)
(1.05598 0.00120271 0)
(1.05531 0.00131942 0)
(1.05457 0.00143494 0)
(1.05375 0.00154908 0)
(1.05285 0.00166139 0)
(1.05186 0.00177179 0)
(1.05081 0.00187966 0)
(1.04964 0.00198511 0)
(1.04842 0.00208731 0)
(1.04706 0.00218665 0)
(1.04569 0.00228195 0)
(1.04413 0.0023741 0)
(1.04261 0.00246133 0)
(1.04084 0.00254532 0)
(1.03918 0.0026234 0)
(1.03717 0.00269842 0)
(1.03541 0.00276636 0)
(1.03312 0.00283178 0)
(1.03132 0.00288873 0)
(1.0287 0.00294407 0)
(1.02693 0.00298932 0)
(1.02389 0.00303417 0)
(1.02227 0.00306721 0)
(1.01868 0.00310102 0)
(1.01739 0.00312171 0)
(1.01307 0.00314336 0)
(1.01235 0.00315248 0)
(1.00701 0.00315953 0)
(1.04989 -0.00354743 0)
(1.05044 -0.00346021 0)
(1.05098 -0.0033691 0)
(1.05152 -0.00327402 0)
(1.05206 -0.00317492 0)
(1.05259 -0.00307174 0)
(1.05311 -0.0029644 0)
(1.05362 -0.00285286 0)
(1.05412 -0.00273706 0)
(1.05461 -0.00261697 0)
(1.05509 -0.00249256 0)
(1.05555 -0.00236382 0)
(1.056 -0.00223073 0)
(1.05643 -0.00209332 0)
(1.05684 -0.0019516 0)
(1.05723 -0.0018056 0)
(1.05759 -0.00165537 0)
(1.05793 -0.00150098 0)
(1.05824 -0.00134252 0)
(1.05852 -0.00118008 0)
(1.05877 -0.00101379 0)
(1.05899 -0.000843783 0)
(1.05917 -0.000670219 0)
(1.05931 -0.000493281 0)
(1.05941 -0.00031317 0)
(1.05946 -0.000130108 0)
(1.05947 5.56565e-05 0)
(1.05943 0.00024386 0)
(1.05934 0.000434209 0)
(1.05919 0.000626389 0)
(1.05899 0.000820058 0)
(1.05872 0.00101486 0)
(1.0584 0.00121041 0)
(1.05801 0.00140632 0)
(1.05755 0.00160215 0)
(1.05702 0.00179749 0)
(1.05643 0.00199185 0)
(1.05575 0.0021848 0)
(1.05501 0.0023758 0)
(1.05417 0.00256445 0)
(1.05327 0.00275013 0)
(1.05227 0.0029325 0)
(1.05121 0.00311083 0)
(1.05003 0.00328491 0)
(1.04881 0.00345388 0)
(1.04745 0.00361772 0)
(1.04606 0.00377537 0)
(1.0445 0.00392712 0)
(1.04297 0.00407158 0)
(1.04118 0.00420956 0)
(1.03952 0.00433916 0)
(1.0375 0.00446191 0)
(1.03574 0.00457519 0)
(1.03343 0.00468149 0)
(1.03163 0.00477724 0)
(1.02899 0.00486612 0)
(1.02722 0.00494341 0)
(1.02417 0.00501401 0)
(1.02254 0.00507218 0)
(1.01895 0.0051236 0)
(1.01765 0.00516225 0)
(1.01332 0.00519324 0)
(1.01259 0.0052124 0)
(1.00724 0.00522099 0)
(1.05052 -0.00493672 0)
(1.05107 -0.00481513 0)
(1.05162 -0.00468811 0)
(1.05217 -0.00455559 0)
(1.05271 -0.00441747 0)
(1.05324 -0.00427365 0)
(1.05377 -0.00412406 0)
(1.05429 -0.00396861 0)
(1.0548 -0.00380724 0)
(1.05529 -0.0036399 0)
(1.05577 -0.00346654 0)
(1.05624 -0.00328716 0)
(1.05669 -0.00310175 0)
(1.05712 -0.00291031 0)
(1.05754 -0.00271288 0)
(1.05793 -0.0025095 0)
(1.05829 -0.00230025 0)
(1.05864 -0.00208523 0)
(1.05895 -0.00186455 0)
(1.05923 -0.00163835 0)
(1.05948 -0.0014068 0)
(1.0597 -0.00117011 0)
(1.05988 -0.000928489 0)
(1.06002 -0.000682196 0)
(1.06011 -0.000431514 0)
(1.06017 -0.000176756 0)
(1.06017 8.17332e-05 0)
(1.06013 0.00034358 0)
(1.06003 0.000608377 0)
(1.05988 0.000875684 0)
(1.05967 0.00114503 0)
(1.05941 0.00141591 0)
(1.05908 0.00168779 0)
(1.05868 0.00196012 0)
(1.05822 0.00223231 0)
(1.05768 0.00250376 0)
(1.05708 0.00277382 0)
(1.05639 0.00304185 0)
(1.05564 0.00330716 0)
(1.0548 0.00356911 0)
(1.05389 0.00382694 0)
(1.05288 0.00408004 0)
(1.0518 0.00432759 0)
(1.05061 0.00456905 0)
(1.04938 0.00480353 0)
(1.048 0.00503063 0)
(1.04661 0.00524934 0)
(1.04503 0.00545947 0)
(1.04349 0.00565989 0)
(1.04169 0.0058507 0)
(1.04002 0.00603057 0)
(1.03798 0.00619998 0)
(1.03621 0.00635736 0)
(1.03389 0.00650364 0)
(1.03207 0.00663695 0)
(1.02942 0.0067587 0)
(1.02764 0.00686676 0)
(1.02457 0.00696278 0)
(1.02294 0.00704474 0)
(1.01933 0.00711387 0)
(1.01803 0.0071691 0)
(1.01368 0.00720992 0)
(1.01295 0.00723796 0)
(1.00757 0.00724839 0)
(1.05133 -0.0063174 0)
(1.0519 -0.00616149 0)
(1.05245 -0.00599862 0)
(1.05301 -0.00582868 0)
(1.05356 -0.00565156 0)
(1.0541 -0.00546715 0)
(1.05463 -0.00527533 0)
(1.05516 -0.005076 0)
(1.05567 -0.00486909 0)
(1.05617 -0.00465454 0)
(1.05666 -0.00443231 0)
(1.05713 -0.00420237 0)
(1.05759 -0.00396471 0)
(1.05803 -0.00371936 0)
(1.05844 -0.00346636 0)
(1.05884 -0.00320577 0)
(1.05921 -0.00293769 0)
(1.05955 -0.00266225 0)
(1.05987 -0.0023796 0)
(1.06015 -0.00208992 0)
(1.06041 -0.00179344 0)
(1.06062 -0.00149042 0)
(1.0608 -0.00118113 0)
(1.06094 -0.000865912 0)
(1.06104 -0.000545129 0)
(1.06109 -0.000219184 0)
(1.06109 0.000111477 0)
(1.06104 0.000446375 0)
(1.06094 0.000784986 0)
(1.06078 0.00112674 0)
(1.06057 0.00147104 0)
(1.0603 0.00181723 0)
(1.05996 0.00216464 0)
(1.05955 0.00251255 0)
(1.05908 0.00286021 0)
(1.05854 0.00320684 0)
(1.05792 0.00355162 0)
(1.05723 0.00389374 0)
(1.05646 0.00423231 0)
(1.05561 0.00456648 0)
(1.05468 0.00489534 0)
(1.05366 0.00521804 0)
(1.05257 0.00553363 0)
(1.05137 0.00584129 0)
(1.05012 0.00614005 0)
(1.04873 0.00642919 0)
(1.04732 0.00670771 0)
(1.04572 0.00697501 0)
(1.04416 0.00723012 0)
(1.04235 0.00747256 0)
(1.04066 0.0077014 0)
(1.03861 0.00791636 0)
(1.03682 0.00811654 0)
(1.03449 0.00830181 0)
(1.03265 0.0084714 0)
(1.02999 0.0086252 0)
(1.02819 0.00876278 0)
(1.0251 0.00888367 0)
(1.02346 0.00898819 0)
(1.01983 0.0090748 0)
(1.01852 0.00914546 0)
(1.01415 0.00919617 0)
(1.01341 0.00923221 0)
(1.00801 0.00924457 0)
(1.05233 -0.00769329 0)
(1.0529 -0.00750285 0)
(1.05347 -0.00730392 0)
(1.05403 -0.00709636 0)
(1.05459 -0.00688005 0)
(1.05514 -0.00665486 0)
(1.05568 -0.00642064 0)
(1.05622 -0.00617728 0)
(1.05674 -0.0059247 0)
(1.05725 -0.00566281 0)
(1.05774 -0.00539159 0)
(1.05822 -0.00511099 0)
(1.05869 -0.00482101 0)
(1.05913 -0.00452169 0)
(1.05955 -0.00421309 0)
(1.05995 -0.00389527 0)
(1.06033 -0.00356838 0)
(1.06067 -0.00323256 0)
(1.06099 -0.00288801 0)
(1.06128 -0.00253495 0)
(1.06153 -0.00217367 0)
(1.06175 -0.00180447 0)
(1.06193 -0.00142772 0)
(1.06206 -0.00104381 0)
(1.06216 -0.000653203 0)
(1.06221 -0.000256388 0)
(1.0622 0.000146086 0)
(1.06215 0.000553629 0)
(1.06205 0.000965601 0)
(1.06188 0.00138131 0)
(1.06166 0.00180001 0)
(1.06138 0.00222092 0)
(1.06103 0.00264321 0)
(1.06062 0.00306601 0)
(1.06013 0.00348839 0)
(1.05958 0.00390941 0)
(1.05895 0.00432808 0)
(1.05824 0.00474338 0)
(1.05746 0.00515427 0)
(1.05659 0.00555969 0)
(1.05565 0.00595855 0)
(1.05461 0.00634978 0)
(1.05351 0.0067323 0)
(1.05229 0.00710502 0)
(1.05102 0.00746689 0)
(1.04961 0.00781686 0)
(1.04818 0.00815397 0)
(1.04656 0.00847719 0)
(1.04499 0.0087857 0)
(1.04315 0.00907854 0)
(1.04144 0.00935507 0)
(1.03937 0.00961435 0)
(1.03756 0.00985606 0)
(1.03521 0.0100792 0)
(1.03336 0.0102838 0)
(1.03067 0.0104686 0)
(1.02886 0.0106346 0)
(1.02575 0.0107795 0)
(1.02409 0.0109055 0)
(1.02044 0.011009 0)
(1.01911 0.0110943 0)
(1.01472 0.0111544 0)
(1.01398 0.011198 0)
(1.00854 0.0112121 0)
(1.05349 -0.00906804 0)
(1.05408 -0.00884277 0)
(1.05466 -0.00860746 0)
(1.05523 -0.00836199 0)
(1.0558 -0.00810618 0)
(1.05637 -0.00783989 0)
(1.05692 -0.00756297 0)
(1.05746 -0.00727527 0)
(1.05799 -0.00697671 0)
(1.05851 -0.0066672 0)
(1.05902 -0.00634668 0)
(1.0595 -0.00601515 0)
(1.05997 -0.00567259 0)
(1.06042 -0.00531905 0)
(1.06085 -0.0049546 0)
(1.06126 -0.00457935 0)
(1.06164 -0.00419344 0)
(1.06199 -0.00379707 0)
(1.06231 -0.00339047 0)
(1.0626 -0.00297392 0)
(1.06285 -0.00254775 0)
(1.06307 -0.00211234 0)
(1.06325 -0.00166811 0)
(1.06338 -0.00121555 0)
(1.06347 -0.000755196 0)
(1.06352 -0.000287633 0)
(1.06351 0.000186485 0)
(1.06346 0.000666458 0)
(1.06334 0.00115152 0)
(1.06317 0.00164086 0)
(1.06294 0.00213359 0)
(1.06265 0.00262879 0)
(1.06229 0.00312548 0)
(1.06186 0.00362261 0)
(1.06137 0.00411912 0)
(1.0608 0.00461387 0)
(1.06015 0.0051057 0)
(1.05943 0.00559341 0)
(1.05863 0.00607578 0)
(1.05774 0.00655155 0)
(1.05679 0.00701947 0)
(1.05572 0.00747824 0)
(1.0546 0.00792662 0)
(1.05336 0.0083633 0)
(1.05207 0.00878713 0)
(1.05064 0.00919677 0)
(1.04919 0.00959122 0)
(1.04755 0.00996913 0)
(1.04595 0.0103298 0)
(1.04409 0.0106717 0)
(1.04236 0.0109946 0)
(1.04026 0.0112969 0)
(1.03843 0.0115789 0)
(1.03605 0.0118386 0)
(1.03418 0.012077 0)
(1.03147 0.0122917 0)
(1.02964 0.0124849 0)
(1.0265 0.0126527 0)
(1.02483 0.0127994 0)
(1.02115 0.0129188 0)
(1.01981 0.013018 0)
(1.01538 0.013087 0)
(1.01464 0.0131376 0)
(1.00916 0.0131531 0)
(1.05483 -0.0104455 0)
(1.05543 -0.0101849 0)
(1.05602 -0.00991272 0)
(1.05661 -0.00962884 0)
(1.05719 -0.00933305 0)
(1.05776 -0.00902518 0)
(1.05833 -0.00870505 0)
(1.05888 -0.00837252 0)
(1.05943 -0.00802749 0)
(1.05995 -0.00766986 0)
(1.06047 -0.00729959 0)
(1.06096 -0.00691664 0)
(1.06144 -0.00652104 0)
(1.0619 -0.00611284 0)
(1.06234 -0.00569211 0)
(1.06275 -0.00525901 0)
(1.06313 -0.00481371 0)
(1.06349 -0.00435643 0)
(1.06381 -0.00388745 0)
(1.0641 -0.00340711 0)
(1.06436 -0.00291579 0)
(1.06458 -0.00241394 0)
(1.06475 -0.00190204 0)
(1.06489 -0.00138068 0)
(1.06498 -0.000850475 0)
(1.06502 -0.000312112 0)
(1.065 0.000233651 0)
(1.06494 0.000785999 0)
(1.06482 0.00134405 0)
(1.06464 0.00190685 0)
(1.0644 0.00247339 0)
(1.0641 0.00304259 0)
(1.06373 0.00361331 0)
(1.06328 0.00418437 0)
(1.06277 0.00475451 0)
(1.06219 0.00532244 0)
(1.06153 0.00588682 0)
(1.06078 0.00644626 0)
(1.05997 0.00699936 0)
(1.05906 0.00754466 0)
(1.05808 0.00808075 0)
(1.05699 0.0086061 0)
(1.05585 0.00911936 0)
(1.05458 0.00961893 0)
(1.05327 0.0101036 0)
(1.05181 0.0105717 0)
(1.05033 0.0110223 0)
(1.04867 0.0114536 0)
(1.04704 0.0118651 0)
(1.04516 0.0122549 0)
(1.0434 0.0126228 0)
(1.04127 0.0129668 0)
(1.03942 0.0132876 0)
(1.03701 0.0135826 0)
(1.03512 0.0138535 0)
(1.03238 0.0140968 0)
(1.03053 0.014316 0)
(1.02736 0.0145058 0)
(1.02567 0.014672 0)
(1.02195 0.0148064 0)
(1.02061 0.0149187 0)
(1.01614 0.0149959 0)
(1.01539 0.0150532 0)
(1.00987 0.0150698 0)
(1.05632 -0.0118286 0)
(1.05694 -0.0115321 0)
(1.05755 -0.0112225 0)
(1.05815 -0.0108996 0)
(1.05874 -0.0105632 0)
(1.05933 -0.0102131 0)
(1.05991 -0.00984911 0)
(1.06048 -0.00947112 0)
(1.06103 -0.00907897 0)
(1.06157 -0.00867258 0)
(1.06209 -0.00825191 0)
(1.0626 -0.00781693 0)
(1.06309 -0.00736766 0)
(1.06356 -0.00690418 0)
(1.064 -0.0064266 0)
(1.06442 -0.00593508 0)
(1.06481 -0.00542982 0)
(1.06517 -0.00491111 0)
(1.06549 -0.00437926 0)
(1.06579 -0.00383466 0)
(1.06604 -0.00327776 0)
(1.06626 -0.00270907 0)
(1.06644 -0.00212917 0)
(1.06657 -0.0015387 0)
(1.06665 -0.000938391 0)
(1.06669 -0.000329025 0)
(1.06667 0.000288531 0)
(1.0666 0.000913346 0)
(1.06647 0.00154441 0)
(1.06628 0.00218064 0)
(1.06603 0.00282088 0)
(1.06571 0.00346392 0)
(1.06533 0.00410845 0)
(1.06487 0.00475312 0)
(1.06434 0.00539652 0)
(1.06374 0.00603717 0)
(1.06306 0.00667357 0)
(1.06229 0.00730413 0)
(1.06145 0.00792729 0)
(1.06052 0.00854137 0)
(1.05952 0.00914481 0)
(1.05841 0.00973585 0)
(1.05724 0.010313 0)
(1.05594 0.0108744 0)
(1.0546 0.0114188 0)
(1.05311 0.0119443 0)
(1.05161 0.0124497 0)
(1.04992 0.0129333 0)
(1.04826 0.0133942 0)
(1.04635 0.0138304 0)
(1.04456 0.014242 0)
(1.0424 0.0146264 0)
(1.04052 0.0149847 0)
(1.03808 0.0153135 0)
(1.03617 0.0156156 0)
(1.03339 0.0158862 0)
(1.03152 0.0161302 0)
(1.02831 0.0163406 0)
(1.02661 0.0165253 0)
(1.02285 0.0166738 0)
(1.0215 0.0167984 0)
(1.01699 0.0168831 0)
(1.01623 0.0169466 0)
(1.01066 0.0169638 0)
(1.05797 -0.0132202 0)
(1.0586 -0.0128871 0)
(1.05923 -0.0125393 0)
(1.05985 -0.0121766 0)
(1.06046 -0.0117989 0)
(1.06106 -0.0114058 0)
(1.06165 -0.0109972 0)
(1.06223 -0.0105729 0)
(1.0628 -0.0101329 0)
(1.06335 -0.00967694 0)
(1.06389 -0.00920508 0)
(1.06441 -0.00871728 0)
(1.0649 -0.00821358 0)
(1.06538 -0.00769407 0)
(1.06583 -0.00715888 0)
(1.06626 -0.0066082 0)
(1.06665 -0.0060423 0)
(1.06702 -0.00546147 0)
(1.06735 -0.0048661 0)
(1.06764 -0.00425663 0)
(1.0679 -0.00363357 0)
(1.06812 -0.00299751 0)
(1.0683 -0.0023491 0)
(1.06842 -0.00168908 0)
(1.0685 -0.00101828 0)
(1.06853 -0.000337569 0)
(1.06851 0.00035206 0)
(1.06843 0.00104956 0)
(1.06829 0.00175379 0)
(1.06809 0.00246354 0)
(1.06782 0.0031775 0)
(1.06749 0.00389431 0)
(1.06709 0.00461251 0)
(1.06662 0.00533058 0)
(1.06607 0.00604696 0)
(1.06544 0.00675997 0)
(1.06474 0.00746794 0)
(1.06395 0.00816908 0)
(1.06309 0.00886168 0)
(1.06213 0.00954384 0)
(1.0611 0.0102138 0)
(1.05996 0.0108697 0)
(1.05876 0.0115098 0)
(1.05744 0.0121321 0)
(1.05607 0.0127351 0)
(1.05455 0.0133167 0)
(1.05301 0.0138759 0)
(1.05129 0.0144103 0)
(1.0496 0.0149194 0)
(1.04765 0.0154007 0)
(1.04584 0.0158545 0)
(1.04364 0.0162778 0)
(1.04173 0.0166721 0)
(1.03926 0.0170334 0)
(1.03731 0.0173652 0)
(1.0345 0.0176618 0)
(1.0326 0.0179291 0)
(1.02936 0.018159 0)
(1.02764 0.018361 0)
(1.02384 0.0185226 0)
(1.02247 0.0186587 0)
(1.01792 0.01875 0)
(1.01716 0.0188194 0)
(1.01154 0.0188368 0)
(1.05977 -0.0146229 0)
(1.06042 -0.0142523 0)
(1.06107 -0.0138655 0)
(1.0617 -0.0134621 0)
(1.06233 -0.0130421 0)
(1.06295 -0.0126051 0)
(1.06356 -0.012151 0)
(1.06415 -0.0116795 0)
(1.06473 -0.0111907 0)
(1.0653 -0.0106843 0)
(1.06585 -0.0101603 0)
(1.06638 -0.00961874 0)
(1.06689 -0.00905969 0)
(1.06737 -0.00848325 0)
(1.06783 -0.00788956 0)
(1.06826 -0.00727888 0)
(1.06866 -0.00665148 0)
(1.06903 -0.00600772 0)
(1.06937 -0.00534804 0)
(1.06967 -0.00467295 0)
(1.06993 -0.00398302 0)
(1.07015 -0.00327892 0)
(1.07032 -0.00256138 0)
(1.07044 -0.00183125 0)
(1.07052 -0.00108943 0)
(1.07054 -0.000336925 0)
(1.07051 0.000425173 0)
(1.07042 0.00119569 0)
(1.07027 0.00197334 0)
(1.07006 0.00275679 0)
(1.06978 0.00354459 0)
(1.06943 0.00433521 0)
(1.06901 0.00512704 0)
(1.06851 0.00591839 0)
(1.06795 0.00670752 0)
(1.0673 0.00749258 0)
(1.06657 0.00827173 0)
(1.06576 0.00904299 0)
(1.06487 0.00980446 0)
(1.06388 0.010554 0)
(1.06282 0.0112898 0)
(1.06165 0.0120097 0)
(1.06042 0.0127118 0)
(1.05906 0.0133939 0)
(1.05766 0.0140545 0)
(1.0561 0.0146911 0)
(1.05454 0.0153027 0)
(1.05277 0.0158867 0)
(1.05105 0.0164426 0)
(1.04907 0.0169676 0)
(1.04722 0.0174622 0)
(1.04498 0.0179228 0)
(1.04305 0.0183517 0)
(1.04053 0.018744 0)
(1.03856 0.019104 0)
(1.0357 0.0194251 0)
(1.03378 0.0197146 0)
(1.0305 0.0199626 0)
(1.02876 0.0201808 0)
(1.02492 0.0203543 0)
(1.02353 0.020501 0)
(1.01893 0.0205982 0)
(1.01816 0.0206728 0)
(1.01249 0.0206899 0)
(1.06172 -0.0160389 0)
(1.06239 -0.0156298 0)
(1.06305 -0.0152029 0)
(1.06371 -0.0147579 0)
(1.06435 -0.0142946 0)
(1.06499 -0.0138127 0)
(1.06561 -0.013312 0)
(1.06623 -0.0127923 0)
(1.06682 -0.0122536 0)
(1.0674 -0.0116956 0)
(1.06796 -0.0111185 0)
(1.06851 -0.0105222 0)
(1.06903 -0.00990671 0)
(1.06952 -0.0092723 0)
(1.06999 -0.00861912 0)
(1.07043 -0.00794742 0)
(1.07084 -0.00725756 0)
(1.07121 -0.00654993 0)
(1.07155 -0.00582504 0)
(1.07185 -0.00508346 0)
(1.07211 -0.00432583 0)
(1.07233 -0.0035529 0)
(1.0725 -0.00276551 0)
(1.07262 -0.00196458 0)
(1.07269 -0.00115112 0)
(1.07271 -0.000326262 0)
(1.07267 0.0005088 0)
(1.07257 0.00135275 0)
(1.0724 0.00220418 0)
(1.07217 0.00306161 0)
(1.07188 0.00392345 0)
(1.07151 0.00478798 0)
(1.07107 0.00565347 0)
(1.07056 0.00651804 0)
(1.06997 0.00737977 0)
(1.06929 0.00823665 0)
(1.06854 0.00908665 0)
(1.0677 0.00992759 0)
(1.06678 0.0107574 0)
(1.06576 0.0115738 0)
(1.06467 0.0123747 0)
(1.06347 0.0131577 0)
(1.0622 0.013921 0)
(1.06081 0.0146619 0)
(1.05937 0.0153789 0)
(1.05778 0.0160694 0)
(1.05617 0.0167321 0)
(1.05437 0.0173644 0)
(1.05261 0.0179657 0)
(1.05059 0.0185329 0)
(1.0487 0.0190668 0)
(1.04643 0.0195634 0)
(1.04445 0.0200252 0)
(1.0419 0.0204469 0)
(1.03989 0.0208337 0)
(1.037 0.0211778 0)
(1.03505 0.0214879 0)
(1.03173 0.0217527 0)
(1.02996 0.0219858 0)
(1.02607 0.0221701 0)
(1.02467 0.0223264 0)
(1.02002 0.0224286 0)
(1.01924 0.0225079 0)
(1.01351 0.0225243 0)
(1.06381 -0.01747 0)
(1.0645 -0.0170214 0)
(1.06518 -0.0165534 0)
(1.06586 -0.0160656 0)
(1.06652 -0.0155579 0)
(1.06718 -0.0150299 0)
(1.06782 -0.0144815 0)
(1.06845 -0.0139124 0)
(1.06906 -0.0133226 0)
(1.06966 -0.0127119 0)
(1.07023 -0.0120805 0)
(1.07079 -0.0114282 0)
(1.07132 -0.0107552 0)
(1.07183 -0.0100616 0)
(1.0723 -0.00934783 0)
(1.07275 -0.00861402 0)
(1.07317 -0.0078606 0)
(1.07355 -0.00708806 0)
(1.07389 -0.00629694 0)
(1.07419 -0.00548789 0)
(1.07446 -0.00466163 0)
(1.07467 -0.00381899 0)
(1.07484 -0.00296091 0)
(1.07495 -0.0020884 0)
(1.07502 -0.0012026 0)
(1.07503 -0.000304732 0)
(1.07497 0.000603874 0)
(1.07486 0.00152176 0)
(1.07468 0.0024474 0)
(1.07444 0.00337917 0)
(1.07413 0.0043153 0)
(1.07374 0.00525394 0)
(1.07328 0.00619317 0)
(1.07274 0.00713095 0)
(1.07212 0.0080652 0)
(1.07142 0.0089937 0)
(1.07064 0.00991424 0)
(1.06977 0.0108245 0)
(1.06882 0.0117221 0)
(1.06777 0.0126047 0)
(1.06664 0.01347 0)
(1.06541 0.0143154 0)
(1.0641 0.0151389 0)
(1.06267 0.0159377 0)
(1.06119 0.01671 0)
(1.05956 0.0174531 0)
(1.05791 0.0181658 0)
(1.05607 0.0188449 0)
(1.05427 0.0194903 0)
(1.05221 0.0200982 0)
(1.05028 0.0206699 0)
(1.04797 0.0212008 0)
(1.04595 0.021694 0)
(1.04336 0.0221436 0)
(1.04132 0.0225555 0)
(1.03838 0.0229211 0)
(1.0364 0.0232503 0)
(1.03303 0.0235305 0)
(1.03124 0.0237772 0)
(1.02731 0.0239711 0)
(1.02589 0.0241361 0)
(1.02118 0.0242424 0)
(1.02039 0.0243259 0)
(1.0146 0.024341 0)
(1.06604 -0.0189179 0)
(1.06675 -0.0184287 0)
(1.06746 -0.0179183 0)
(1.06815 -0.0173866 0)
(1.06884 -0.0168332 0)
(1.06951 -0.0162579 0)
(1.07018 -0.0156604 0)
(1.07082 -0.0150407 0)
(1.07145 -0.0143985 0)
(1.07206 -0.0137339 0)
(1.07265 -0.0130468 0)
(1.07322 -0.0123372 0)
(1.07377 -0.0116054 0)
(1.07428 -0.0108515 0)
(1.07477 -0.0100758 0)
(1.07523 -0.0092787 0)
(1.07565 -0.00846056 0)
(1.07603 -0.00762194 0)
(1.07638 -0.00676348 0)
(1.07669 -0.00588588 0)
(1.07695 -0.00498997 0)
(1.07716 -0.00407665 0)
(1.07732 -0.00314697 0)
(1.07744 -0.00220202 0)
(1.07749 -0.00124308 0)
(1.07749 -0.000271473 0)
(1.07743 0.000711326 0)
(1.0773 0.00170373 0)
(1.07711 0.00270408 0)
(1.07685 0.00371059 0)
(1.07651 0.00472134 0)
(1.07611 0.00573431 0)
(1.07562 0.00674743 0)
(1.07506 0.00775847 0)
(1.07442 0.00876518 0)
(1.07369 0.00976514 0)
(1.07287 0.010756 0)
(1.07197 0.0117351 0)
(1.07098 0.0127002 0)
(1.0699 0.0136484 0)
(1.06873 0.0145774 0)
(1.06746 0.0154844 0)
(1.06611 0.0163672 0)
(1.06464 0.0172228 0)
(1.06312 0.0180494 0)
(1.06145 0.018844 0)
(1.05976 0.0196053 0)
(1.05787 0.0203299 0)
(1.05603 0.0210178 0)
(1.05392 0.0216649 0)
(1.05195 0.0222728 0)
(1.04959 0.0228364 0)
(1.04754 0.0233594 0)
(1.0449 0.0238352 0)
(1.04282 0.0242705 0)
(1.03984 0.024656 0)
(1.03782 0.0250028 0)
(1.03441 0.0252968 0)
(1.03259 0.0255559 0)
(1.02861 0.0257581 0)
(1.02717 0.0259307 0)
(1.02242 0.0260403 0)
(1.02162 0.0261274 0)
(1.01576 0.0261407 0)
(1.06841 -0.0203842 0)
(1.06914 -0.019853 0)
(1.06987 -0.019299 0)
(1.07059 -0.0187219 0)
(1.0713 -0.0181215 0)
(1.07199 -0.0174975 0)
(1.07267 -0.0168497 0)
(1.07334 -0.0161779 0)
(1.07399 -0.015482 0)
(1.07461 -0.0147619 0)
(1.07522 -0.0140178 0)
(1.0758 -0.0132497 0)
(1.07636 -0.0124577 0)
(1.07689 -0.011642 0)
(1.07738 -0.0108031 0)
(1.07785 -0.00994137 0)
(1.07828 -0.00905723 0)
(1.07867 -0.0081513 0)
(1.07902 -0.0072243 0)
(1.07932 -0.006277 0)
(1.07958 -0.00531033 0)
(1.0798 -0.00432529 0)
(1.07996 -0.003323 0)
(1.08006 -0.0023047 0)
(1.08011 -0.00127176 0)
(1.0801 -0.000225611 0)
(1.08002 0.000832082 0)
(1.07988 0.00189963 0)
(1.07967 0.00297525 0)
(1.07939 0.00405696 0)
(1.07904 0.0051427 0)
(1.07861 0.00623029 0)
(1.0781 0.00731748 0)
(1.07751 0.00840186 0)
(1.07683 0.00948099 0)
(1.07607 0.0105523 0)
(1.07523 0.0116132 0)
(1.07429 0.0126609 0)
(1.07327 0.0136929 0)
(1.07214 0.0147062 0)
(1.07094 0.0156982 0)
(1.06962 0.016666 0)
(1.06823 0.0176072 0)
(1.06672 0.0185187 0)
(1.06516 0.0193984 0)
(1.06343 0.0202432 0)
(1.0617 0.0210518 0)
(1.05977 0.0218206 0)
(1.05788 0.0225495 0)
(1.05572 0.0232343 0)
(1.05371 0.0238767 0)
(1.0513 0.0244713 0)
(1.04921 0.0250224 0)
(1.04652 0.0255227 0)
(1.0444 0.0259798 0)
(1.04137 0.0263834 0)
(1.03933 0.0267463 0)
(1.03586 0.0270527 0)
(1.03402 0.0273226 0)
(1.02999 0.0275319 0)
(1.02853 0.0277111 0)
(1.02372 0.0278229 0)
(1.02291 0.027913 0)
(1.01699 0.027924 0)
(1.07091 -0.0218699 0)
(1.07167 -0.0212954 0)
(1.07242 -0.0206964 0)
(1.07316 -0.0200726 0)
(1.07389 -0.0194237 0)
(1.07461 -0.0187495 0)
(1.07531 -0.0180498 0)
(1.07599 -0.0173245 0)
(1.07666 -0.0165734 0)
(1.0773 -0.0157965 0)
(1.07793 -0.0149938 0)
(1.07852 -0.0141656 0)
(1.07909 -0.0133119 0)
(1.07963 -0.0124331 0)
(1.08014 -0.0115296 0)
(1.08061 -0.0106018 0)
(1.08105 -0.00965031 0)
(1.08144 -0.00867576 0)
(1.0818 -0.00767894 0)
(1.0821 -0.00666072 0)
(1.08236 -0.00562211 0)
(1.08257 -0.00456423 0)
(1.08273 -0.00348829 0)
(1.08282 -0.00239566 0)
(1.08286 -0.0012878 0)
(1.08284 -0.000166267 0)
(1.08275 0.000967053 0)
(1.08259 0.00211044 0)
(1.08237 0.00326193 0)
(1.08206 0.00441934 0)
(1.08169 0.00558048 0)
(1.08123 0.006743 0)
(1.0807 0.00790446 0)
(1.08008 0.00906229 0)
(1.07937 0.0102139 0)
(1.07858 0.0113564 0)
(1.0777 0.0124871 0)
(1.07672 0.0136031 0)
(1.07566 0.0147016 0)
(1.07449 0.0157793 0)
(1.07325 0.0168337 0)
(1.07189 0.0178615 0)
(1.07046 0.0188603 0)
(1.06889 0.0198265 0)
(1.06728 0.0207583 0)
(1.06552 0.0216521 0)
(1.06374 0.0225066 0)
(1.06175 0.0233181 0)
(1.05982 0.0240865 0)
(1.05761 0.0248074 0)
(1.05555 0.0254827 0)
(1.05309 0.0261067 0)
(1.05096 0.0266841 0)
(1.04821 0.027207 0)
(1.04606 0.0276842 0)
(1.04298 0.0281043 0)
(1.0409 0.0284815 0)
(1.03739 0.0287986 0)
(1.03551 0.029078 0)
(1.03143 0.029293 0)
(1.02995 0.0294777 0)
(1.02508 0.0295907 0)
(1.02426 0.0296832 0)
(1.01827 0.0296914 0)
(1.07353 -0.0233763 0)
(1.07432 -0.0227569 0)
(1.0751 -0.0221113 0)
(1.07587 -0.0214392 0)
(1.07662 -0.0207404 0)
(1.07736 -0.0200145 0)
(1.07808 -0.0192614 0)
(1.07878 -0.0184809 0)
(1.07947 -0.0176729 0)
(1.08013 -0.0168376 0)
(1.08077 -0.0159748 0)
(1.08138 -0.0150849 0)
(1.08197 -0.0141681 0)
(1.08252 -0.0132246 0)
(1.08303 -0.012255 0)
(1.08352 -0.0112597 0)
(1.08396 -0.0102394 0)
(1.08436 -0.00919484 0)
(1.08471 -0.00812686 0)
(1.08502 -0.00703644 0)
(1.08528 -0.00592467 0)
(1.08548 -0.00479277 0)
(1.08563 -0.00364207 0)
(1.08572 -0.00247409 0)
(1.08575 -0.00129035 0)
(1.08571 -9.27176e-05 0)
(1.08561 0.0011171 0)
(1.08543 0.00233713 0)
(1.08519 0.00356511 0)
(1.08486 0.00479876 0)
(1.08446 0.00603573 0)
(1.08398 0.00727351 0)
(1.08342 0.00850948 0)
(1.08276 0.00974088 0)
(1.08203 0.0109649 0)
(1.0812 0.0121786 0)
(1.08028 0.0133789 0)
(1.07926 0.0145628 0)
(1.07816 0.0157273 0)
(1.07695 0.016869 0)
(1.07566 0.0179851 0)
(1.07425 0.0190721 0)
(1.07278 0.0201274 0)
(1.07117 0.0211475 0)
(1.06951 0.0221301 0)
(1.06769 0.0230716 0)
(1.06586 0.0239708 0)
(1.06382 0.0248234 0)
(1.06184 0.0256299 0)
(1.05957 0.0263852 0)
(1.05747 0.0270916 0)
(1.05496 0.0277432 0)
(1.05278 0.0283451 0)
(1.04998 0.0288889 0)
(1.04779 0.0293844 0)
(1.04465 0.0298191 0)
(1.04254 0.030209 0)
(1.03897 0.0305352 0)
(1.03707 0.0308226 0)
(1.03293 0.0310418 0)
(1.03143 0.0312309 0)
(1.0265 0.0313441 0)
(1.02568 0.0314384 0)
(1.01962 0.0314432 0)
(1.07629 -0.024904 0)
(1.07711 -0.0242382 0)
(1.07791 -0.0235445 0)
(1.0787 -0.0228224 0)
(1.07948 -0.0220719 0)
(1.08024 -0.0212927 0)
(1.08098 -0.0204845 0)
(1.08171 -0.0196472 0)
(1.08241 -0.0187808 0)
(1.0831 -0.0178853 0)
(1.08375 -0.0169608 0)
(1.08438 -0.0160076 0)
(1.08497 -0.0150259 0)
(1.08554 -0.0140162 0)
(1.08606 -0.0129789 0)
(1.08655 -0.0119146 0)
(1.087 -0.010824 0)
(1.0874 -0.00970798 0)
(1.08776 -0.00856745 0)
(1.08807 -0.00740348 0)
(1.08832 -0.00621727 0)
(1.08852 -0.00501015 0)
(1.08866 -0.00378356 0)
(1.08875 -0.00253912 0)
(1.08876 -0.00127853 0)
(1.08871 -3.78048e-06 0)
(1.08859 0.0012834 0)
(1.0884 0.00258071 0)
(1.08813 0.00388578 0)
(1.08778 0.0051962 0)
(1.08736 0.00650946 0)
(1.08685 0.00782284 0)
(1.08625 0.00913356 0)
(1.08556 0.0104387 0)
(1.08479 0.0117351 0)
(1.08392 0.0130198 0)
(1.08297 0.0142896 0)
(1.08191 0.0155411 0)
(1.08076 0.0167712 0)
(1.07951 0.0179763 0)
(1.07817 0.0191534 0)
(1.07671 0.0202988 0)
(1.07519 0.0214098 0)
(1.07352 0.0224825 0)
(1.07181 0.0235149 0)
(1.06994 0.0245028 0)
(1.06806 0.0254452 0)
(1.06597 0.0263376 0)
(1.06393 0.0271803 0)
(1.06161 0.0279684 0)
(1.05946 0.0287043 0)
(1.05689 0.0293816 0)
(1.05466 0.0300061 0)
(1.05182 0.030569 0)
(1.04958 0.0310809 0)
(1.04639 0.0315284 0)
(1.04424 0.0319292 0)
(1.04062 0.0322627 0)
(1.03869 0.0325566 0)
(1.03449 0.0327787 0)
(1.03297 0.032971 0)
(1.02798 0.0330834 0)
(1.02715 0.0331788 0)
(1.02102 0.0331795 0)
(1.07917 -0.0264537 0)
(1.08001 -0.0257399 0)
(1.08085 -0.0249962 0)
(1.08166 -0.0242226 0)
(1.08246 -0.0234187 0)
(1.08325 -0.0225843 0)
(1.08402 -0.0217192 0)
(1.08476 -0.0208234 0)
(1.08549 -0.0198967 0)
(1.08619 -0.0189394 0)
(1.08686 -0.0179515 0)
(1.0875 -0.0169332 0)
(1.08811 -0.0158851 0)
(1.08869 -0.0148074 0)
(1.08922 -0.0137008 0)
(1.08972 -0.0125659 0)
(1.09017 -0.0114035 0)
(1.09058 -0.0102145 0)
(1.09094 -0.00900001 0)
(1.09124 -0.00776113 0)
(1.0915 -0.00649917 0)
(1.09169 -0.00521557 0)
(1.09182 -0.00391191 0)
(1.0919 -0.00258991 0)
(1.0919 -0.00125144 0)
(1.09183 0.000101524 0)
(1.09169 0.00146681 0)
(1.09148 0.00284205 0)
(1.09119 0.00422486 0)
(1.09082 0.00561262 0)
(1.09036 0.00700261 0)
(1.08982 0.00839195 0)
(1.08919 0.00977765 0)
(1.08847 0.0111566 0)
(1.08766 0.0125256 0)
(1.08675 0.0138812 0)
(1.08576 0.0152202 0)
(1.08465 0.016539 0)
(1.08346 0.0178342 0)
(1.08216 0.0191021 0)
(1.08077 0.0203395 0)
(1.07926 0.0215425 0)
(1.07768 0.0227082 0)
(1.07597 0.0238326 0)
(1.0742 0.0249134 0)
(1.07227 0.0259465 0)
(1.07034 0.0269306 0)
(1.06819 0.0278612 0)
(1.0661 0.0287387 0)
(1.06373 0.0295577 0)
(1.06152 0.0303213 0)
(1.0589 0.0310225 0)
(1.05662 0.0316678 0)
(1.05371 0.0322478 0)
(1.05143 0.0327741 0)
(1.04819 0.0332325 0)
(1.046 0.0336425 0)
(1.04232 0.0339816 0)
(1.04036 0.0342804 0)
(1.03611 0.0345038 0)
(1.03457 0.0346981 0)
(1.02952 0.0348086 0)
(1.02867 0.0349045 0)
(1.02248 0.0349006 0)
(1.08217 -0.0280258 0)
(1.08304 -0.0272621 0)
(1.0839 -0.0264668 0)
(1.08475 -0.0256398 0)
(1.08558 -0.0247807 0)
(1.08639 -0.0238893 0)
(1.08718 -0.0229656 0)
(1.08795 -0.0220093 0)
(1.08869 -0.0210206 0)
(1.08941 -0.0199996 0)
(1.0901 -0.0189464 0)
(1.09075 -0.0178614 0)
(1.09138 -0.016745 0)
(1.09196 -0.0155977 0)
(1.09251 -0.0144201 0)
(1.09301 -0.013213 0)
(1.09347 -0.0119772 0)
(1.09388 -0.0107137 0)
(1.09424 -0.00942378 0)
(1.09455 -0.00810858 0)
(1.09479 -0.00676953 0)
(1.09498 -0.00540819 0)
(1.09511 -0.00402627 0)
(1.09516 -0.00262561 0)
(1.09515 -0.00120822 0)
(1.09507 0.000223766 0)
(1.09491 0.00166799 0)
(1.09468 0.00312201 0)
(1.09436 0.00458324 0)
(1.09396 0.0060489 0)
(1.09348 0.00751609 0)
(1.0929 0.00898173 0)
(1.09224 0.0104427 0)
(1.09148 0.0118956 0)
(1.09063 0.0133371 0)
(1.08968 0.0147636 0)
(1.08864 0.0161716 0)
(1.08749 0.0175573 0)
(1.08625 0.0189172 0)
(1.0849 0.0202473 0)
(1.08346 0.0215443 0)
(1.0819 0.022804 0)
(1.08026 0.0240234 0)
(1.07849 0.0251984 0)
(1.07667 0.0263265 0)
(1.07468 0.0274033 0)
(1.07269 0.0284278 0)
(1.07048 0.029395 0)
(1.06834 0.0303056 0)
(1.0659 0.0311539 0)
(1.06364 0.0319432 0)
(1.06096 0.0326663 0)
(1.05863 0.0333305 0)
(1.05567 0.0339256 0)
(1.05334 0.0344645 0)
(1.05004 0.0349319 0)
(1.04781 0.035349 0)