/*--------------------------------*- C++ -*----------------------------------*\
  =========                 |
  \\      /  F ield         | OpenFOAM: The Open Source CFD Toolbox
   \\    /   O peration     | Website:  https://openfoam.org
    \\  /    A nd           | Version:  7
     \\/     M anipulation  |
\*---------------------------------------------------------------------------*/
FoamFile
{
    version     2.0;
    format      ascii;
    class       volScalarField;
    location    "3.2";
    object      p;
}
// * * * * * * * * * * * * * * * * * * * * * * * * * * * * * * * * * * * * * //

dimensions      [0 2 -2 0 0 0 0];

internalField   nonuniform List<scalar> 
350
(
0.0664417
0.0620802
0.0576884
0.0532662
0.0488138
0.044331
0.0398182
0.0352747
0.030702
0.0260962
0.0214678
0.0167852
0.0121395
0.00725264
0.00295532
0.243882
0.241652
0.239362
0.237012
0.234604
0.232139
0.229618
0.227041
0.22441
0.221726
0.218989
0.2162
0.213361
0.210472
0.207533
0.204547
0.201514
0.198434
0.195308
0.192138
0.188923
0.185666
0.182365
0.179023
0.17564
0.172216
0.168753
0.165251
0.16171
0.158131
0.154516
0.150863
0.147175
0.143452
0.139693
0.1359
0.132073
0.128212
0.124319
0.120392
0.116433
0.112442
0.108419
0.104365
0.100279
0.0961615
0.0920133
0.0878343
0.0836246
0.0793842
0.0751133
0.0708118
0.06648
0.0621177
0.057725
0.0533021
0.0488488
0.0443652
0.0398515
0.0353073
0.0307336
0.0261272
0.0214973
0.0168154
0.0121626
0.00728206
0.00294692
0.243965
0.241734
0.239442
0.237091
0.234682
0.232216
0.229693
0.227115
0.224483
0.221798
0.21906
0.21627
0.21343
0.21054
0.207601
0.204614
0.201579
0.198498
0.195372
0.192201
0.188985
0.185727
0.182426
0.179083
0.175699
0.172274
0.16881
0.165307
0.161766
0.158187
0.15457
0.150918
0.147229
0.143504
0.139745
0.135952
0.132124
0.128263
0.124369
0.120441
0.116482
0.11249
0.108467
0.104411
0.100325
0.0962071
0.0920583
0.0878786
0.0836682
0.0794272
0.0751555
0.0708534
0.0665207
0.0621577
0.0577643
0.0533405
0.0488864
0.044402
0.0398875
0.0353424
0.0307679
0.0261611
0.0215298
0.0168492
0.01219
0.00731795
0.00294326
0.244053
0.241821
0.239528
0.237176
0.234765
0.232298
0.229774
0.227195
0.224562
0.221875
0.219136
0.216345
0.213504
0.210613
0.207673
0.204684
0.201649
0.198567
0.19544
0.192268
0.189051
0.185792
0.18249
0.179146
0.175761
0.172336
0.168871
0.165368
0.161825
0.158246
0.154629
0.150975
0.147286
0.143561
0.139801
0.136007
0.132178
0.128317
0.124422
0.120494
0.116534
0.112541
0.108517
0.104461
0.100374
0.0962557
0.0921063
0.087926
0.0837149
0.0794732
0.0752008
0.0708979
0.0665646
0.0622008
0.0578066
0.053382
0.0489271
0.0444419
0.0399265
0.0353807
0.0308054
0.0261981
0.0215657
0.0168869
0.0122222
0.00736275
0.00294785
0.244156
0.241921
0.239627
0.237273
0.234861
0.232392
0.229867
0.227287
0.224652
0.221964
0.219224
0.216432
0.213589
0.210697
0.207755
0.204766
0.201729
0.198647
0.195518
0.192345
0.189128
0.185867
0.182564
0.179219
0.175834
0.172407
0.168942
0.165437
0.161894
0.158313
0.154695
0.151041
0.147351
0.143625
0.139864
0.136069
0.132241
0.128378
0.124482
0.120554
0.116593
0.1126
0.108575
0.104519
0.100431
0.0963116
0.0921614
0.0879804
0.0837686
0.0795261
0.075253
0.0709494
0.0666152
0.0622506
0.0578556
0.0534302
0.0489744
0.0444883
0.039972
0.0354254
0.0308492
0.0262416
0.0216084
0.0169317
0.0122633
0.00742244
0.00297245
0.244275
0.242039
0.239742
0.237387
0.234973
0.232503
0.229976
0.227394
0.224757
0.222068
0.219326
0.216532
0.213688
0.210794
0.207852
0.204861
0.201823
0.198739
0.195609
0.192434
0.189216
0.185954
0.18265
0.179304
0.175917
0.17249
0.169023
0.165517
0.161973
0.158391
0.154773
0.151117
0.147426
0.1437
0.139938
0.136142
0.132312
0.128449
0.124553
0.120623
0.116662
0.112668
0.108642
0.104585
0.100496
0.0963763
0.0922253
0.0880435
0.0838309
0.0795876
0.0753137
0.0710092
0.0666742
0.0623087
0.0579128
0.0534865
0.0490298
0.0445427
0.0400255
0.035478
0.0309009
0.0262927
0.0216591
0.0169844
0.0123162
0.00749559
0.00303021
)
;

boundaryField
{
    inlet
    {
        type            zeroGradient;
    }
    outlet
    {
        type            fixedValue;
        value           uniform 0;
    }
    wall
    {
        type            zeroGradient;
    }
    wedge1
    {
        type            wedge;
    }
    wedge2
    {
        type            wedge;
    }
    axis
    {
        type            empty;
    }
    procBoundary47to41
    {
        type            processor;
        value           nonuniform List<scalar> 
68
(
0.0664063
0.0620455
0.0576545
0.0532331
0.0487815
0.0442997
0.0397877
0.0352451
0.0306734
0.0260682
0.0214417
0.0167587
0.0121206
0.00722881
0.00296711
0.243805
0.241576
0.239287
0.236938
0.234532
0.232067
0.229547
0.226971
0.224341
0.221658
0.218922
0.216134
0.213296
0.210407
0.20747
0.204485
0.201452
0.198373
0.195248
0.192079
0.188865
0.185608
0.182308
0.178967
0.175584
0.172161
0.168699
0.165197
0.161657
0.158079
0.154464
0.150812
0.147125
0.143402
0.139644
0.135851
0.132025
0.128165
0.124272
0.120346
0.116387
0.112397
0.108374
0.10432
0.100235
0.0961184
0.0919709
0.0877925
0.0835835
0.0793438
0.0750735
0.0707728
0.0707728
)
;
    }
    procBoundary47to46
    {
        type            processor;
        value           nonuniform List<scalar> 5(0.246051 0.246135 0.246224 0.246328 0.246449);
    }
}


// ************************************************************************* //
