/*--------------------------------*- C++ -*----------------------------------*\
  =========                 |
  \\      /  F ield         | OpenFOAM: The Open Source CFD Toolbox
   \\    /   O peration     | Website:  https://openfoam.org
    \\  /    A nd           | Version:  7
     \\/     M anipulation  |
\*---------------------------------------------------------------------------*/
FoamFile
{
    version     2.0;
    format      ascii;
    class       volVectorField;
    location    "2";
    object      U;
}
// * * * * * * * * * * * * * * * * * * * * * * * * * * * * * * * * * * * * * //

dimensions      [0 1 -1 0 0 0 0];

internalField   nonuniform List<vector> 
4116
(
(2.90987 -0.168817 0)
(2.91173 -0.168154 0)
(2.91089 -0.165963 0)
(2.90491 -0.162046 0)
(2.89711 -0.157869 0)
(2.89667 -0.156743 0)
(2.89881 -0.157094 0)
(2.90125 -0.157602 0)
(2.90437 -0.157957 0)
(2.90886 -0.158289 0)
(2.91358 -0.15942 0)
(2.91728 -0.161566 0)
(2.92002 -0.163761 0)
(2.92292 -0.16471 0)
(2.92564 -0.165052 0)
(2.92824 -0.165239 0)
(2.93066 -0.165339 0)
(2.93091 -0.165055 0)
(2.92831 -0.163891 0)
(2.91953 -0.16155 0)
(2.91321 -0.159595 0)
(2.91522 -0.157826 0)
(2.91754 -0.157414 0)
(2.92016 -0.157278 0)
(2.9229 -0.157861 0)
(2.92772 -0.158736 0)
(2.93148 -0.159457 0)
(2.93497 -0.160757 0)
(2.93896 -0.161433 0)
(2.94226 -0.161319 0)
(2.94515 -0.161258 0)
(2.9474 -0.161024 0)
(2.94856 -0.160737 0)
(2.9472 -0.160743 0)
(2.94393 -0.160775 0)
(2.94279 -0.160864 0)
(2.94212 -0.161161 0)
(2.94132 -0.161913 0)
(2.94219 -0.162191 0)
(2.94521 -0.16117 0)
(2.94815 -0.159536 0)
(2.95094 -0.157982 0)
(2.95418 -0.157341 0)
(2.95704 -0.156612 0)
(2.95874 -0.155542 0)
(2.95919 -0.154418 0)
(2.95862 -0.152937 0)
(2.95683 -0.151688 0)
(2.95499 -0.152278 0)
(2.95609 -0.154263 0)
(2.95739 -0.155097 0)
(2.95823 -0.155552 0)
(2.95932 -0.156794 0)
(2.96065 -0.15974 0)
(2.96352 -0.163404 0)
(2.96484 -0.164206 0)
(2.96771 -0.163722 0)
(2.97118 -0.161564 0)
(2.97456 -0.158069 0)
(2.97764 -0.154242 0)
(2.97954 -0.15166 0)
(2.97976 -0.150698 0)
(2.97882 -0.150756 0)
(2.97778 -0.150301 0)
(2.97721 -0.148919 0)
(2.97694 -0.148141 0)
(2.97608 -0.149067 0)
(2.97475 -0.152385 0)
(2.97589 -0.153996 0)
(2.97689 -0.154379 0)
(2.97773 -0.154653 0)
(2.97927 -0.154 0)
(2.98234 -0.153185 0)
(2.98464 -0.152494 0)
(2.98639 -0.151766 0)
(2.9891 -0.150061 0)
(2.99172 -0.148938 0)
(2.99384 -0.148587 0)
(2.9943 -0.148169 0)
(2.99188 -0.147093 0)
(2.9898 -0.146459 0)
(2.99054 -0.146915 0)
(2.991 -0.147313 0)
(2.99177 -0.148089 0)
(2.99312 -0.150013 0)
(2.99384 -0.15086 0)
(2.99567 -0.151531 0)
(2.99854 -0.153086 0)
(3.00127 -0.152985 0)
(3.00359 -0.150058 0)
(3.00474 -0.146728 0)
(3.00657 -0.14684 0)
(3.00861 -0.148866 0)
(3.01 -0.150951 0)
(3.01057 -0.151768 0)
(3.01056 -0.149392 0)
(3.01104 -0.147115 0)
(3.0112 -0.146716 0)
(3.01164 -0.146797 0)
(3.01261 -0.147331 0)
(3.01282 -0.147515 0)
(3.01266 -0.147136 0)
(3.01287 -0.146958 0)
(3.01346 -0.149706 0)
(3.0137 -0.154048 0)
(3.01321 -0.157027 0)
(3.01221 -0.155819 0)
(3.01538 -0.151297 0)
(3.01935 -0.148934 0)
(3.02145 -0.146708 0)
(3.02303 -0.144416 0)
(3.02413 -0.142646 0)
(3.02641 -0.1425 0)
(3.0281 -0.142825 0)
(3.02964 -0.143103 0)
(3.03204 -0.143303 0)
(3.03558 -0.143582 0)
(3.04038 -0.14457 0)
(3.04251 -0.145759 0)
(3.04241 -0.145914 0)
(3.04259 -0.145951 0)
(3.0423 -0.147841 0)
(3.03905 -0.152305 0)
(3.0333 -0.154332 0)
(3.02971 -0.150799 0)
(3.03087 -0.147974 0)
(3.03237 -0.147336 0)
(3.03371 -0.146495 0)
(3.03643 -0.144492 0)
(3.04006 -0.143296 0)
(3.0447 -0.143387 0)
(3.0486 -0.145252 0)
(3.04863 -0.146932 0)
(3.04812 -0.147016 0)
(3.04705 -0.147292 0)
(3.04643 -0.146755 0)
(3.04604 -0.144194 0)
(3.04567 -0.141837 0)
(3.04522 -0.140782 0)
(3.04424 -0.140768 0)
(3.04733 -0.141407 0)
(3.05056 -0.141751 0)
(3.05304 -0.142145 0)
(3.05582 -0.14209 0)
(3.05829 -0.142696 0)
(3.06115 -0.143017 0)
(3.06252 -0.142986 0)
(2.91055 -0.162392 0)
(2.91253 -0.162285 0)
(2.91346 -0.161668 0)
(2.90992 -0.15907 0)
(2.90097 -0.153697 0)
(2.89721 -0.150253 0)
(2.89854 -0.150062 0)
(2.89994 -0.151104 0)
(2.90117 -0.152297 0)
(2.90507 -0.153226 0)
(2.90966 -0.153705 0)
(2.91328 -0.1544 0)
(2.91705 -0.155222 0)
(2.92225 -0.157469 0)
(2.92647 -0.159102 0)
(2.92979 -0.15976 0)
(2.93273 -0.16011 0)
(2.93333 -0.160087 0)
(2.93178 -0.159753 0)
(2.9237 -0.158151 0)
(2.9141 -0.15572 0)
(2.91312 -0.153926 0)
(2.91545 -0.152654 0)
(2.91749 -0.151912 0)
(2.91954 -0.15211 0)
(2.92412 -0.152586 0)
(2.92831 -0.153076 0)
(2.93269 -0.153921 0)
(2.93823 -0.154851 0)
(2.94203 -0.15514 0)
(2.94616 -0.155366 0)
(2.94866 -0.155479 0)
(2.95059 -0.15555 0)
(2.95037 -0.155597 0)
(2.94674 -0.155786 0)
(2.94386 -0.155877 0)
(2.94301 -0.155852 0)
(2.94255 -0.156033 0)
(2.94318 -0.156027 0)
(2.94598 -0.154995 0)
(2.94896 -0.153209 0)
(2.95128 -0.151076 0)
(2.95394 -0.149549 0)
(2.95768 -0.149089 0)
(2.961 -0.148978 0)
(2.96283 -0.148461 0)
(2.96222 -0.147749 0)
(2.9581 -0.148007 0)
(2.95303 -0.149239 0)
(2.95318 -0.150345 0)
(2.95473 -0.150676 0)
(2.95587 -0.151323 0)
(2.95739 -0.152384 0)
(2.95875 -0.15427 0)
(2.96176 -0.155685 0)
(2.96656 -0.156076 0)
(2.96858 -0.155973 0)
(2.97253 -0.154262 0)
(2.97668 -0.151536 0)
(2.98027 -0.149099 0)
(2.98263 -0.147455 0)
(2.98276 -0.146206 0)
(2.9809 -0.144391 0)
(2.97914 -0.142551 0)
(2.97785 -0.141714 0)
(2.97618 -0.142367 0)
(2.97324 -0.145523 0)
(2.973 -0.148166 0)
(2.97485 -0.148648 0)
(2.97607 -0.148922 0)
(2.9775 -0.149035 0)
(2.98011 -0.148669 0)
(2.98452 -0.147539 0)
(2.98657 -0.146696 0)
(2.98907 -0.14635 0)
(2.99223 -0.145456 0)
(2.99488 -0.144326 0)
(2.99663 -0.14315 0)
(2.99635 -0.142222 0)
(2.99341 -0.141864 0)
(2.99112 -0.141859 0)
(2.99163 -0.142226 0)
(2.99205 -0.142569 0)
(2.99273 -0.143336 0)
(2.99401 -0.1449 0)
(2.99551 -0.146191 0)
(2.99687 -0.146579 0)
(2.99956 -0.147606 0)
(3.00213 -0.147237 0)
(3.00451 -0.144368 0)
(3.00659 -0.141236 0)
(3.0091 -0.141097 0)
(3.01146 -0.143503 0)
(3.01274 -0.146172 0)
(3.01323 -0.146928 0)
(3.01286 -0.144767 0)
(3.0115 -0.142432 0)
(3.01078 -0.14148 0)
(3.01065 -0.141385 0)
(3.0106 -0.141602 0)
(3.01024 -0.141854 0)
(3.00996 -0.141771 0)
(3.0099 -0.141948 0)
(3.01113 -0.144873 0)
(3.01254 -0.149348 0)
(3.01316 -0.151634 0)
(3.0124 -0.148944 0)
(3.01602 -0.144426 0)
(3.02001 -0.143094 0)
(3.0231 -0.142216 0)
(3.02608 -0.141639 0)
(3.02844 -0.139832 0)
(3.02958 -0.137067 0)
(3.03131 -0.13614 0)
(3.03231 -0.135996 0)
(3.03324 -0.135837 0)
(3.0352 -0.136651 0)
(3.03876 -0.138757 0)
(3.04036 -0.139961 0)
(3.04016 -0.140336 0)
(3.04013 -0.141147 0)
(3.03973 -0.142835 0)
(3.0369 -0.146008 0)
(3.03345 -0.148834 0)
(3.03186 -0.147816 0)
(3.03185 -0.143206 0)
(3.03275 -0.139721 0)
(3.03452 -0.139047 0)
(3.03623 -0.13896 0)
(3.03865 -0.138906 0)
(3.04167 -0.139103 0)
(3.04545 -0.139866 0)
(3.04856 -0.14154 0)
(3.04889 -0.142444 0)
(3.04856 -0.14286 0)
(3.04832 -0.142603 0)
(3.04809 -0.14062 0)
(3.04795 -0.138111 0)
(3.04741 -0.136289 0)
(3.04539 -0.135714 0)
(3.0477 -0.135859 0)
(3.05106 -0.136045 0)
(3.05383 -0.136149 0)
(3.05709 -0.136106 0)
(3.0599 -0.136706 0)
(3.06248 -0.137409 0)
(3.06402 -0.137048 0)
(2.91244 -0.157077 0)
(2.91439 -0.157706 0)
(2.91544 -0.158467 0)
(2.91349 -0.157835 0)
(2.90657 -0.152812 0)
(2.89929 -0.146375 0)
(2.89824 -0.143996 0)
(2.90015 -0.143482 0)
(2.90144 -0.144608 0)
(2.90325 -0.146061 0)
(2.90755 -0.146686 0)
(2.91147 -0.147406 0)
(2.91503 -0.148732 0)
(2.91959 -0.150905 0)
(2.92365 -0.15249 0)
(2.92759 -0.153622 0)
(2.9313 -0.155328 0)
(2.93286 -0.156363 0)
(2.93262 -0.156516 0)
(2.92832 -0.155773 0)
(2.91909 -0.151838 0)
(2.91513 -0.14783 0)
(2.91625 -0.145763 0)
(2.91761 -0.144607 0)
(2.91996 -0.144337 0)
(2.92417 -0.144634 0)
(2.92813 -0.145073 0)
(2.93231 -0.145994 0)
(2.93842 -0.147469 0)
(2.94101 -0.147988 0)
(2.94418 -0.148162 0)
(2.94737 -0.148319 0)
(2.95002 -0.148629 0)
(2.94979 -0.149321 0)
(2.94583 -0.150215 0)
(2.94351 -0.150878 0)
(2.94322 -0.150946 0)
(2.94364 -0.15077 0)
(2.94488 -0.150507 0)
(2.94735 -0.149197 0)
(2.95047 -0.147558 0)
(2.95391 -0.146203 0)
(2.95727 -0.144832 0)
(2.9603 -0.143526 0)
(2.9627 -0.142773 0)
(2.96437 -0.142404 0)
(2.96414 -0.142027 0)
(2.95969 -0.142491 0)
(2.95223 -0.144408 0)
(2.95144 -0.145482 0)
(2.95312 -0.145682 0)
(2.95445 -0.146092 0)
(2.9561 -0.146961 0)
(2.95793 -0.14819 0)
(2.96244 -0.149491 0)
(2.96963 -0.150719 0)
(2.972 -0.150636 0)
(2.97528 -0.148901 0)
(2.97803 -0.145122 0)
(2.98016 -0.141716 0)
(2.98204 -0.13973 0)
(2.98315 -0.13908 0)
(2.98314 -0.138499 0)
(2.98199 -0.137544 0)
(2.97967 -0.137573 0)
(2.97454 -0.139594 0)
(2.97097 -0.142377 0)
(2.97284 -0.14302 0)
(2.97454 -0.143076 0)
(2.97578 -0.143117 0)
(2.97692 -0.143208 0)
(2.97843 -0.143074 0)
(2.98191 -0.141835 0)
(2.98775 -0.140463 0)
(2.98994 -0.140146 0)
(2.99344 -0.13932 0)
(2.99662 -0.138214 0)
(2.99894 -0.13757 0)
(2.99948 -0.137208 0)
(2.99615 -0.136642 0)
(2.99066 -0.136937 0)
(2.98983 -0.137573 0)
(2.99015 -0.137873 0)
(2.99054 -0.138484 0)
(2.99147 -0.13964 0)
(2.99325 -0.140691 0)
(2.99458 -0.140979 0)
(2.99735 -0.141802 0)
(3.00007 -0.141503 0)
(3.00256 -0.138933 0)
(3.00492 -0.135959 0)
(3.00766 -0.135498 0)
(3.01049 -0.137412 0)
(3.01252 -0.139823 0)
(3.014 -0.141371 0)
(3.01499 -0.141259 0)
(3.01417 -0.138646 0)
(3.01234 -0.135507 0)
(3.01197 -0.134759 0)
(3.01097 -0.13469 0)
(3.00953 -0.135161 0)
(3.00914 -0.135294 0)
(3.00952 -0.135776 0)
(3.01172 -0.138723 0)
(3.01283 -0.143393 0)
(3.01143 -0.145441 0)
(3.0129 -0.142263 0)
(3.01816 -0.140783 0)
(3.0219 -0.138414 0)
(3.02478 -0.136729 0)
(3.02731 -0.135894 0)
(3.02914 -0.134989 0)
(3.03138 -0.13305 0)
(3.03356 -0.13174 0)
(3.03508 -0.130842 0)
(3.03655 -0.13021 0)
(3.03878 -0.130441 0)
(3.03922 -0.133559 0)
(3.03845 -0.135599 0)
(3.03783 -0.136494 0)
(3.03712 -0.137747 0)
(3.03685 -0.138644 0)
(3.03569 -0.13991 0)
(3.03388 -0.141066 0)
(3.03367 -0.141234 0)
(3.0352 -0.139305 0)
(3.03615 -0.135946 0)
(3.03715 -0.133067 0)
(3.03927 -0.132478 0)
(3.0405 -0.132311 0)
(3.04186 -0.13218 0)
(3.04439 -0.132792 0)
(3.04733 -0.134748 0)
(3.04778 -0.135636 0)
(3.04737 -0.135663 0)
(3.04703 -0.135199 0)
(3.04681 -0.133972 0)
(3.04654 -0.132758 0)
(3.04579 -0.131839 0)
(3.04508 -0.131135 0)
(3.04868 -0.13119 0)
(3.05185 -0.131324 0)
(3.0549 -0.131438 0)
(3.05818 -0.13141 0)
(3.06147 -0.131748 0)
(3.06425 -0.132347 0)
(3.06587 -0.131943 0)
(2.91115 -0.151811 0)
(2.91316 -0.152914 0)
(2.91434 -0.153727 0)
(2.91468 -0.154065 0)
(2.91218 -0.151725 0)
(2.90587 -0.144529 0)
(2.90047 -0.138885 0)
(2.89882 -0.137548 0)
(2.9012 -0.137656 0)
(2.90515 -0.138584 0)
(2.90904 -0.139456 0)
(2.91339 -0.14016 0)
(2.9176 -0.140623 0)
(2.92185 -0.1417 0)
(2.92501 -0.143171 0)
(2.92831 -0.14455 0)
(2.93188 -0.147423 0)
(2.93337 -0.150917 0)
(2.93325 -0.152074 0)
(2.9309 -0.153403 0)
(2.92485 -0.151236 0)
(2.9199 -0.145562 0)
(2.91949 -0.141647 0)
(2.91994 -0.139169 0)
(2.92187 -0.137909 0)
(2.9259 -0.137964 0)
(2.92992 -0.138199 0)
(2.93386 -0.138755 0)
(2.93962 -0.140231 0)
(2.94248 -0.141425 0)
(2.94515 -0.142111 0)
(2.94865 -0.14293 0)
(2.95144 -0.143509 0)
(2.95141 -0.144292 0)
(2.9479 -0.14538 0)
(2.94571 -0.145991 0)
(2.9447 -0.145744 0)
(2.94408 -0.145067 0)
(2.94593 -0.144605 0)
(2.94916 -0.142976 0)
(2.95166 -0.141617 0)
(2.95543 -0.139798 0)
(2.95914 -0.138416 0)
(2.96263 -0.137916 0)
(2.96514 -0.137432 0)
(2.96589 -0.136921 0)
(2.96409 -0.137461 0)
(2.95762 -0.138395 0)
(2.9509 -0.139413 0)
(2.95159 -0.139798 0)
(2.95329 -0.139902 0)
(2.95474 -0.140223 0)
(2.95637 -0.140986 0)
(2.9577 -0.142243 0)
(2.96027 -0.142875 0)
(2.96733 -0.142501 0)
(2.971 -0.142109 0)
(2.9744 -0.141333 0)
(2.97869 -0.139364 0)
(2.98199 -0.136842 0)
(2.98417 -0.134077 0)
(2.98505 -0.132141 0)
(2.98459 -0.131579 0)
(2.98273 -0.1318 0)
(2.97835 -0.132879 0)
(2.97156 -0.135875 0)
(2.97033 -0.13752 0)
(2.97256 -0.137693 0)
(2.97435 -0.137568 0)
(2.97609 -0.13728 0)
(2.97754 -0.137033 0)
(2.97946 -0.136633 0)
(2.98267 -0.135755 0)
(2.98714 -0.135299 0)
(2.98898 -0.135151 0)
(2.99251 -0.134329 0)
(2.99596 -0.133274 0)
(2.99845 -0.1325 0)
(2.99905 -0.131641 0)
(2.99642 -0.130962 0)
(2.9918 -0.130863 0)
(2.99085 -0.131304 0)
(2.99111 -0.131477 0)
(2.99147 -0.131883 0)
(2.99238 -0.132787 0)
(2.99438 -0.133826 0)
(2.99567 -0.134126 0)
(2.9984 -0.134804 0)
(3.00101 -0.134476 0)
(3.00314 -0.132314 0)
(3.00554 -0.130047 0)
(3.00898 -0.129841 0)
(3.01261 -0.131387 0)
(3.01512 -0.133479 0)
(3.01608 -0.135262 0)
(3.01627 -0.135869 0)
(3.01567 -0.134349 0)
(3.0145 -0.131395 0)
(3.01404 -0.13036 0)
(3.01292 -0.129246 0)
(3.01197 -0.128695 0)
(3.01047 -0.128527 0)
(3.00938 -0.129192 0)
(3.01059 -0.133266 0)
(3.01198 -0.137795 0)
(3.01231 -0.138945 0)
(3.01239 -0.135561 0)
(3.01775 -0.132952 0)
(3.0224 -0.132651 0)
(3.02644 -0.131643 0)
(3.02898 -0.130877 0)
(3.03104 -0.129542 0)
(3.03223 -0.127774 0)
(3.03293 -0.126311 0)
(3.03465 -0.125627 0)
(3.03542 -0.125452 0)
(3.0371 -0.125623 0)
(3.03826 -0.127811 0)
(3.03751 -0.129637 0)
(3.03693 -0.130314 0)
(3.0355 -0.132157 0)
(3.03395 -0.134746 0)
(3.03413 -0.136425 0)
(3.03558 -0.137049 0)
(3.03722 -0.136378 0)
(3.03876 -0.134915 0)
(3.03902 -0.132486 0)
(3.03998 -0.129192 0)
(3.04181 -0.127559 0)
(3.04323 -0.127045 0)
(3.04442 -0.126713 0)
(3.04668 -0.127015 0)
(3.04949 -0.129451 0)
(3.05043 -0.131442 0)
(3.05017 -0.131694 0)
(3.04973 -0.131432 0)
(3.04898 -0.130304 0)
(3.04821 -0.12941 0)
(3.04741 -0.128478 0)
(3.04539 -0.126732 0)
(3.04651 -0.125964 0)
(3.04997 -0.126056 0)
(3.05288 -0.126343 0)
(3.05587 -0.126392 0)
(3.05903 -0.126281 0)
(3.06193 -0.126352 0)
(3.06419 -0.126297 0)
(2.91195 -0.145244 0)
(2.91421 -0.14639 0)
(2.91569 -0.148191 0)
(2.91607 -0.149191 0)
(2.91574 -0.14913 0)
(2.91268 -0.144532 0)
(2.90686 -0.135647 0)
(2.90258 -0.130632 0)
(2.90128 -0.130252 0)
(2.90305 -0.131666 0)
(2.9064 -0.13273 0)
(2.9102 -0.133471 0)
(2.91422 -0.134154 0)
(2.91822 -0.135776 0)
(2.9213 -0.137767 0)
(2.92447 -0.139598 0)
(2.92825 -0.141861 0)
(2.93105 -0.146019 0)
(2.93157 -0.148101 0)
(2.9312 -0.148475 0)
(2.92925 -0.147274 0)
(2.92535 -0.141814 0)
(2.92132 -0.13595 0)
(2.91951 -0.133148 0)
(2.92004 -0.131477 0)
(2.92372 -0.131062 0)
(2.9279 -0.131355 0)
(2.93225 -0.131863 0)
(2.93763 -0.132761 0)
(2.94101 -0.133804 0)
(2.94337 -0.134879 0)
(2.94599 -0.136413 0)
(2.94806 -0.137759 0)
(2.94817 -0.139257 0)
(2.9461 -0.140388 0)
(2.94548 -0.140469 0)
(2.94515 -0.140196 0)
(2.94494 -0.139119 0)
(2.94672 -0.136929 0)
(2.94833 -0.13602 0)
(2.95158 -0.135228 0)
(2.95486 -0.13393 0)
(2.9579 -0.132824 0)
(2.96148 -0.132104 0)
(2.96502 -0.131907 0)
(2.96735 -0.132103 0)
(2.96634 -0.132462 0)
(2.95871 -0.132974 0)
(2.95229 -0.133692 0)
(2.95363 -0.134065 0)
(2.95542 -0.134199 0)
(2.95708 -0.134282 0)
(2.95887 -0.134379 0)
(2.96004 -0.134924 0)
(2.96187 -0.136175 0)
(2.96852 -0.136804 0)
(2.97318 -0.136518 0)
(2.97605 -0.135961 0)
(2.98023 -0.133827 0)
(2.98356 -0.131309 0)
(2.98639 -0.129589 0)
(2.98806 -0.128439 0)
(2.98788 -0.127585 0)
(2.98482 -0.12745 0)
(2.97763 -0.128984 0)
(2.97046 -0.131629 0)
(2.97119 -0.132335 0)
(2.97316 -0.132264 0)
(2.97519 -0.132203 0)
(2.97734 -0.131889 0)
(2.97921 -0.131415 0)
(2.98193 -0.130924 0)
(2.98601 -0.130163 0)
(2.98974 -0.129677 0)
(2.99111 -0.129621 0)
(2.99403 -0.129096 0)
(2.99699 -0.128091 0)
(2.99917 -0.12723 0)
(2.99971 -0.126732 0)
(2.99717 -0.126707 0)
(2.99306 -0.126715 0)
(2.99255 -0.126994 0)
(2.99292 -0.12714 0)
(2.99341 -0.12745 0)
(2.99445 -0.128117 0)
(2.99638 -0.129008 0)
(2.99757 -0.129276 0)
(3.00016 -0.129666 0)
(3.00266 -0.129061 0)
(3.00457 -0.127193 0)
(3.00674 -0.125563 0)
(3.01047 -0.126004 0)
(3.01439 -0.127267 0)
(3.01722 -0.128463 0)
(3.01885 -0.129678 0)
(3.0189 -0.129864 0)
(3.01778 -0.128216 0)
(3.0156 -0.126078 0)
(3.01311 -0.124772 0)
(3.01203 -0.123932 0)
(3.0108 -0.122675 0)
(3.00909 -0.12241 0)
(3.00857 -0.124839 0)
(3.00998 -0.128525 0)
(3.01255 -0.132136 0)
(3.01433 -0.133892 0)
(3.0157 -0.132906 0)
(3.01899 -0.128338 0)
(3.02385 -0.126481 0)
(3.02714 -0.124495 0)
(3.02958 -0.123477 0)
(3.0324 -0.123372 0)
(3.03486 -0.123275 0)
(3.03508 -0.121968 0)
(3.03518 -0.120084 0)
(3.03654 -0.119597 0)
(3.03787 -0.119637 0)
(3.03853 -0.121425 0)
(3.03722 -0.12237 0)
(3.03542 -0.123475 0)
(3.03276 -0.126528 0)
(3.03169 -0.130375 0)
(3.03248 -0.131832 0)
(3.03425 -0.131057 0)
(3.03646 -0.129002 0)
(3.0392 -0.126976 0)
(3.04113 -0.125347 0)
(3.04122 -0.123234 0)
(3.04154 -0.121384 0)
(3.04313 -0.12099 0)
(3.04407 -0.120886 0)
(3.04578 -0.121621 0)
(3.04828 -0.124129 0)
(3.0501 -0.126209 0)
(3.05018 -0.126298 0)
(3.05066 -0.125964 0)
(3.05115 -0.126174 0)
(3.05082 -0.12672 0)
(3.04999 -0.125955 0)
(3.04769 -0.123168 0)
(3.04733 -0.120163 0)
(3.05108 -0.119688 0)
(3.0541 -0.119715 0)
(3.05683 -0.119603 0)
(3.05994 -0.119408 0)
(3.06321 -0.119042 0)
(3.06562 -0.119828 0)
(2.91356 -0.13984 0)
(2.9155 -0.140795 0)
(2.91715 -0.142431 0)
(2.91758 -0.143152 0)
(2.91759 -0.144219 0)
(2.9162 -0.143169 0)
(2.91349 -0.136028 0)
(2.90943 -0.127223 0)
(2.90531 -0.123052 0)
(2.90506 -0.122871 0)
(2.90783 -0.123548 0)
(2.91068 -0.124241 0)
(2.91447 -0.125029 0)
(2.91863 -0.126604 0)
(2.92179 -0.128954 0)
(2.92471 -0.131453 0)
(2.92754 -0.133826 0)
(2.93136 -0.137157 0)
(2.93289 -0.141144 0)
(2.93249 -0.141789 0)
(2.932 -0.141607 0)
(2.9306 -0.139152 0)
(2.92728 -0.133769 0)
(2.92301 -0.128357 0)
(2.92141 -0.124847 0)
(2.92492 -0.123744 0)
(2.92876 -0.123846 0)
(2.93271 -0.124273 0)
(2.93683 -0.125809 0)
(2.93925 -0.126781 0)
(2.94196 -0.127705 0)
(2.94435 -0.129234 0)
(2.9461 -0.131352 0)
(2.94623 -0.133759 0)
(2.9459 -0.135319 0)
(2.94603 -0.135491 0)
(2.94596 -0.134726 0)
(2.94667 -0.133006 0)
(2.94886 -0.131004 0)
(2.95051 -0.130596 0)
(2.95357 -0.129328 0)
(2.95631 -0.12758 0)
(2.95922 -0.126567 0)
(2.96257 -0.126194 0)
(2.96541 -0.126253 0)
(2.96663 -0.126818 0)
(2.96432 -0.127386 0)
(2.95743 -0.128092 0)
(2.9534 -0.129095 0)
(2.95526 -0.12935 0)
(2.9571 -0.129463 0)
(2.95892 -0.129468 0)
(2.9611 -0.129301 0)
(2.96322 -0.128885 0)
(2.96512 -0.128932 0)
(2.96941 -0.130057 0)
(2.97218 -0.1305 0)
(2.97492 -0.130119 0)
(2.97905 -0.128233 0)
(2.98251 -0.125665 0)
(2.98556 -0.123521 0)
(2.98819 -0.122794 0)
(2.98905 -0.12272 0)
(2.98607 -0.12322 0)
(2.9769 -0.124982 0)
(2.97101 -0.126567 0)
(2.97234 -0.126763 0)
(2.97411 -0.126752 0)
(2.97612 -0.126721 0)
(2.9782 -0.126257 0)
(2.98008 -0.125514 0)
(2.98264 -0.12483 0)
(2.9864 -0.12403 0)
(2.99108 -0.123568 0)
(2.9926 -0.123599 0)
(2.99564 -0.123715 0)
(2.99892 -0.123332 0)
(3.00138 -0.122637 0)
(3.00197 -0.121946 0)
(2.99857 -0.121333 0)
(2.99224 -0.121612 0)
(2.99088 -0.122222 0)
(2.99137 -0.122415 0)
(2.99179 -0.122695 0)
(2.99273 -0.123108 0)
(2.99428 -0.123619 0)
(2.99535 -0.12384 0)
(2.99773 -0.124015 0)
(3.00022 -0.12298 0)
(3.0023 -0.121054 0)
(3.00452 -0.119846 0)
(3.00812 -0.120795 0)
(3.01218 -0.122309 0)
(3.01509 -0.123019 0)
(3.01705 -0.12298 0)
(3.0183 -0.123072 0)
(3.01913 -0.122834 0)
(3.01883 -0.121421 0)
(3.01631 -0.119746 0)
(3.01297 -0.119468 0)
(3.01029 -0.119411 0)
(3.00763 -0.119414 0)
(3.00817 -0.121427 0)
(3.01125 -0.123902 0)
(3.01344 -0.125596 0)
(3.01476 -0.126595 0)
(3.01611 -0.124895 0)
(3.02155 -0.122913 0)
(3.02561 -0.121538 0)
(3.02887 -0.118651 0)
(3.03135 -0.117465 0)
(3.03417 -0.116826 0)
(3.03619 -0.11695 0)
(3.03685 -0.117287 0)
(3.03717 -0.116156 0)
(3.03765 -0.114928 0)
(3.0382 -0.114999 0)
(3.03789 -0.11526 0)
(3.03599 -0.116069 0)
(3.0331 -0.118057 0)
(3.03162 -0.122021 0)
(3.03272 -0.126306 0)
(3.03431 -0.128703 0)
(3.03607 -0.128235 0)
(3.03852 -0.125113 0)
(3.04108 -0.121661 0)
(3.04253 -0.119283 0)
(3.04216 -0.117343 0)
(3.04325 -0.115692 0)
(3.0446 -0.1154 0)
(3.04575 -0.115101 0)
(3.04732 -0.114996 0)
(3.04923 -0.117027 0)
(3.05077 -0.121355 0)
(3.05114 -0.122259 0)
(3.05189 -0.122027 0)
(3.05323 -0.121411 0)
(3.05306 -0.121201 0)
(3.05171 -0.12116 0)
(3.04911 -0.119664 0)
(3.04895 -0.116517 0)
(3.05299 -0.115347 0)
(3.0563 -0.115209 0)
(3.0594 -0.11504 0)
(3.06222 -0.114684 0)
(3.06563 -0.114414 0)
(3.06779 -0.114797 0)
(2.91234 -0.133597 0)
(2.9143 -0.134256 0)
(2.916 -0.135697 0)
(2.91644 -0.137699 0)
(2.91654 -0.138514 0)
(2.91717 -0.138293 0)
(2.91785 -0.133653 0)
(2.9155 -0.126378 0)
(2.90931 -0.120235 0)
(2.90457 -0.115758 0)
(2.90706 -0.114527 0)
(2.9098 -0.115161 0)
(2.91247 -0.117047 0)
(2.9161 -0.119842 0)
(2.91942 -0.122987 0)
(2.92213 -0.1262 0)
(2.92485 -0.128821 0)
(2.92873 -0.132018 0)
(2.93131 -0.135628 0)
(2.93175 -0.136648 0)
(2.93183 -0.136582 0)
(2.93235 -0.136021 0)
(2.93195 -0.133019 0)
(2.9293 -0.12774 0)
(2.9254 -0.121882 0)
(2.92349 -0.117867 0)
(2.92703 -0.117372 0)
(2.93067 -0.117879 0)
(2.93514 -0.118682 0)
(2.93867 -0.11947 0)
(2.94186 -0.119877 0)
(2.94514 -0.120841 0)
(2.94624 -0.124007 0)
(2.946 -0.128587 0)
(2.94637 -0.130437 0)
(2.94775 -0.13133 0)
(2.94831 -0.130257 0)
(2.94938 -0.126976 0)
(2.95041 -0.125001 0)
(2.95242 -0.124724 0)
(2.95584 -0.123639 0)
(2.95875 -0.122129 0)
(2.96143 -0.1212 0)
(2.96446 -0.121126 0)
(2.96708 -0.121218 0)
(2.96793 -0.121294 0)
(2.96493 -0.121683 0)
(2.95615 -0.122994 0)
(2.95189 -0.124114 0)
(2.95378 -0.124399 0)
(2.95555 -0.124562 0)
(2.95733 -0.12468 0)
(2.95947 -0.124577 0)
(2.96174 -0.124136 0)
(2.96408 -0.123546 0)
(2.96965 -0.123445 0)
(2.97403 -0.123443 0)
(2.97606 -0.123428 0)
(2.98007 -0.122328 0)
(2.98407 -0.120307 0)
(2.98754 -0.118136 0)
(2.98964 -0.117224 0)
(2.98895 -0.118134 0)
(2.9839 -0.119363 0)
(2.97451 -0.120489 0)
(2.97096 -0.120721 0)
(2.973 -0.120692 0)
(2.9749 -0.120724 0)
(2.9768 -0.120731 0)
(2.97887 -0.120403 0)
(2.98111 -0.119693 0)
(2.98413 -0.118992 0)
(2.98878 -0.118058 0)
(2.99287 -0.116907 0)
(2.99385 -0.116725 0)
(2.9959 -0.116705 0)
(2.99839 -0.116305 0)
(3.00055 -0.115711 0)
(3.00106 -0.115275 0)
(2.99808 -0.115513 0)
(2.99249 -0.116568 0)
(2.99137 -0.117149 0)
(2.99204 -0.117223 0)
(2.99248 -0.117214 0)
(2.99352 -0.117151 0)
(2.9948 -0.117179 0)
(2.99581 -0.11731 0)
(2.99817 -0.117328 0)
(3.00074 -0.116482 0)
(3.00311 -0.115009 0)
(3.00542 -0.113852 0)
(3.00825 -0.114614 0)
(3.01236 -0.116403 0)
(3.01568 -0.117237 0)
(3.01818 -0.117463 0)
(3.0199 -0.117293 0)
(3.02073 -0.116769 0)
(3.02014 -0.115471 0)
(3.01687 -0.114881 0)
(3.01224 -0.11579 0)
(3.00929 -0.116381 0)
(3.00711 -0.116729 0)
(3.00678 -0.117384 0)
(3.00996 -0.118506 0)
(3.01257 -0.119307 0)
(3.01533 -0.120443 0)
(3.01843 -0.119203 0)
(3.02362 -0.115986 0)
(3.0276 -0.114124 0)
(3.03143 -0.112744 0)
(3.0345 -0.112784 0)
(3.03753 -0.112591 0)
(3.03917 -0.111735 0)
(3.03944 -0.110466 0)
(3.03899 -0.109372 0)
(3.03805 -0.109101 0)
(3.03685 -0.110874 0)
(3.03517 -0.113075 0)
(3.03319 -0.11497 0)
(3.03165 -0.116704 0)
(3.03188 -0.11845 0)
(3.03342 -0.120091 0)
(3.03534 -0.121279 0)
(3.03755 -0.121134 0)
(3.04027 -0.119909 0)
(3.04336 -0.118159 0)
(3.04564 -0.116261 0)
(3.04552 -0.113634 0)
(3.04328 -0.110965 0)
(3.04376 -0.109941 0)
(3.04499 -0.109863 0)
(3.04597 -0.11004 0)
(3.0477 -0.111304 0)
(3.04929 -0.115249 0)
(3.04974 -0.117415 0)
(3.05034 -0.117454 0)
(3.05246 -0.116593 0)
(3.05431 -0.116618 0)
(3.05426 -0.117111 0)
(3.0528 -0.115992 0)
(3.05042 -0.112492 0)
(3.05179 -0.110137 0)
(3.05592 -0.109762 0)
(3.05879 -0.109608 0)
(3.06095 -0.109517 0)
(3.06322 -0.109205 0)
(3.06496 -0.109513 0)
(2.91165 -0.128013 0)
(2.91345 -0.128899 0)
(2.91466 -0.12988 0)
(2.91698 -0.131161 0)
(2.91883 -0.132403 0)
(2.91944 -0.132095 0)
(2.92057 -0.128521 0)
(2.91976 -0.122956 0)
(2.91472 -0.118331 0)
(2.90647 -0.112906 0)
(2.90409 -0.109041 0)
(2.90756 -0.109354 0)
(2.91091 -0.110812 0)
(2.91464 -0.113705 0)
(2.91789 -0.116533 0)
(2.92109 -0.11869 0)
(2.92459 -0.120422 0)
(2.92949 -0.12298 0)
(2.93298 -0.127687 0)
(2.93297 -0.130078 0)
(2.93278 -0.130229 0)
(2.93271 -0.129688 0)
(2.9336 -0.126629 0)
(2.9333 -0.121769 0)
(2.92989 -0.1172 0)
(2.92512 -0.112599 0)
(2.92612 -0.110087 0)
(2.92939 -0.110203 0)
(2.93258 -0.111695 0)
(2.93545 -0.113493 0)
(2.93896 -0.114746 0)
(2.94227 -0.117025 0)
(2.94314 -0.121023 0)
(2.94369 -0.124184 0)
(2.94452 -0.125329 0)
(2.94638 -0.126632 0)
(2.94947 -0.125942 0)
(2.95206 -0.121088 0)
(2.95295 -0.119628 0)
(2.95486 -0.118291 0)
(2.95764 -0.116083 0)
(2.95979 -0.115048 0)
(2.96116 -0.114963 0)
(2.96262 -0.115361 0)
(2.9643 -0.115667 0)
(2.96517 -0.115753 0)
(2.96347 -0.116197 0)
(2.95718 -0.117586 0)
(2.95352 -0.118377 0)
(2.95535 -0.118665 0)
(2.95707 -0.118837 0)
(2.95871 -0.11901 0)
(2.96061 -0.119005 0)
(2.96281 -0.118605 0)
(2.96484 -0.118017 0)
(2.96979 -0.118008 0)
(2.97679 -0.117872 0)
(2.97908 -0.117309 0)
(2.98163 -0.116542 0)
(2.98551 -0.114831 0)
(2.98941 -0.113137 0)
(2.99171 -0.112487 0)
(2.99019 -0.11326 0)
(2.98303 -0.115369 0)
(2.97427 -0.116864 0)
(2.97248 -0.115887 0)
(2.97427 -0.114916 0)
(2.97625 -0.114473 0)
(2.97826 -0.114309 0)
(2.98022 -0.114097 0)
(2.9823 -0.113825 0)
(2.98549 -0.113464 0)
(2.99075 -0.112071 0)
(2.99511 -0.110829 0)
(2.9961 -0.110745 0)
(2.9981 -0.111112 0)
(3.00045 -0.111236 0)
(3.00225 -0.110852 0)
(3.00253 -0.110578 0)
(2.99961 -0.111242 0)
(2.99454 -0.113029 0)
(2.99378 -0.113791 0)
(2.99446 -0.113812 0)
(2.99501 -0.113558 0)
(2.99615 -0.112548 0)
(2.99705 -0.111402 0)
(2.99805 -0.111354 0)
(3.0003 -0.111245 0)
(3.00259 -0.110568 0)
(3.00481 -0.109508 0)
(3.0071 -0.108563 0)
(3.00946 -0.108949 0)
(3.01377 -0.11046 0)
(3.01709 -0.110921 0)
(3.01944 -0.111018 0)
(3.02149 -0.111026 0)
(3.02292 -0.110948 0)
(3.02235 -0.110754 0)
(3.01766 -0.110687 0)
(3.0114 -0.111942 0)
(3.00815 -0.112739 0)
(3.00621 -0.113073 0)
(3.00644 -0.113256 0)
(3.00982 -0.113305 0)
(3.01261 -0.113239 0)
(3.01563 -0.113618 0)
(3.01883 -0.112453 0)
(3.02225 -0.108379 0)
(3.02748 -0.106236 0)
(3.03205 -0.10593 0)
(3.03629 -0.106226 0)
(3.03923 -0.106469 0)
(3.04181 -0.106474 0)
(3.04341 -0.105932 0)
(3.04304 -0.105193 0)
(3.04008 -0.105567 0)
(3.03513 -0.108444 0)
(3.03205 -0.11114 0)
(3.03136 -0.112168 0)
(3.03146 -0.112693 0)
(3.03338 -0.113041 0)
(3.03583 -0.114148 0)
(3.03802 -0.11443 0)
(3.03997 -0.113575 0)
(3.0414 -0.112003 0)
(3.04368 -0.110546 0)
(3.04638 -0.1096 0)
(3.0475 -0.108364 0)
(3.04547 -0.106055 0)
(3.04427 -0.104254 0)
(3.04559 -0.104166 0)
(3.0466 -0.104247 0)
(3.04853 -0.104448 0)
(3.05045 -0.107577 0)
(3.05018 -0.111646 0)
(3.05028 -0.112117 0)
(3.05184 -0.111547 0)
(3.05425 -0.110652 0)
(3.05592 -0.110877 0)
(3.05638 -0.111328 0)
(3.05524 -0.109767 0)
(3.0542 -0.106184 0)
(3.05721 -0.103915 0)
(3.06028 -0.103077 0)
(3.06233 -0.102797 0)
(3.06385 -0.102504 0)
(3.06475 -0.103085 0)
(2.90977 -0.122323 0)
(2.91207 -0.12253 0)
(2.91434 -0.123011 0)
(2.91778 -0.124082 0)
(2.9196 -0.125037 0)
(2.92002 -0.12494 0)
(2.92165 -0.122614 0)
(2.9226 -0.118321 0)
(2.92057 -0.11524 0)
(2.91297 -0.110704 0)
(2.90484 -0.104332 0)
(2.90565 -0.103194 0)
(2.90991 -0.104568 0)
(2.91364 -0.105942 0)
(2.91664 -0.108022 0)
(2.91934 -0.111132 0)
(2.92227 -0.114119 0)
(2.92642 -0.116661 0)
(2.93107 -0.119842 0)
(2.93505 -0.123928 0)
(2.9355 -0.124889 0)
(2.9354 -0.124847 0)
(2.93624 -0.122206 0)
(2.9366 -0.116235 0)
(2.93444 -0.111044 0)
(2.92969 -0.107623 0)
(2.92539 -0.105085 0)
(2.92767 -0.104254 0)
(2.93101 -0.10481 0)
(2.93388 -0.107127 0)
(2.93641 -0.110365 0)
(2.93844 -0.113556 0)
(2.94084 -0.115799 0)
(2.94284 -0.11662 0)
(2.94442 -0.117979 0)
(2.94667 -0.118944 0)
(2.9486 -0.117657 0)
(2.95303 -0.115247 0)
(2.95545 -0.114184 0)
(2.95762 -0.113763 0)
(2.9614 -0.112241 0)
(2.96395 -0.109981 0)
(2.96446 -0.107526 0)
(2.96419 -0.106576 0)
(2.96422 -0.107388 0)
(2.96413 -0.108983 0)
(2.9623 -0.111276 0)
(2.95723 -0.11363 0)
(2.95633 -0.114935 0)
(2.95851 -0.115117 0)
(2.96027 -0.115196 0)
(2.96194 -0.115214 0)
(2.96375 -0.115178 0)
(2.96591 -0.114734 0)
(2.9673 -0.112761 0)
(2.97081 -0.11016 0)
(2.97591 -0.108479 0)
(2.97779 -0.108389 0)
(2.98101 -0.108851 0)
(2.98433 -0.10882 0)
(2.98757 -0.108091 0)
(2.9895 -0.107674 0)
(2.98767 -0.109296 0)
(2.98032 -0.111444 0)
(2.97295 -0.111637 0)
(2.97458 -0.110879 0)
(2.97658 -0.110248 0)
(2.97857 -0.109336 0)
(2.98089 -0.108547 0)
(2.98292 -0.107918 0)
(2.98467 -0.107223 0)
(2.98688 -0.106544 0)
(2.99083 -0.105974 0)
(2.9946 -0.105331 0)
(2.99559 -0.105301 0)
(2.99741 -0.105781 0)
(2.9994 -0.106049 0)
(3.00075 -0.105891 0)
(3.00041 -0.106195 0)
(2.9969 -0.1073 0)
(2.99319 -0.108188 0)
(2.99369 -0.108367 0)
(2.99449 -0.108446 0)
(2.99556 -0.108633 0)
(2.99732 -0.107608 0)
(2.99851 -0.106039 0)
(2.99953 -0.105846 0)
(3.00179 -0.105485 0)
(3.00403 -0.104751 0)
(3.00612 -0.103903 0)
(3.00793 -0.103518 0)
(3.01084 -0.104574 0)
(3.01562 -0.105118 0)
(3.01854 -0.105173 0)
(3.02102 -0.105151 0)
(3.0234 -0.105175 0)
(3.02522 -0.105246 0)
(3.0248 -0.105795 0)
(3.01904 -0.10601 0)
(3.01133 -0.107578 0)
(3.00785 -0.108348 0)
(3.00599 -0.10859 0)
(3.00762 -0.108827 0)
(3.00985 -0.108781 0)
(3.01347 -0.107988 0)
(3.01585 -0.107172 0)
(3.01966 -0.10579 0)
(3.02391 -0.103339 0)
(3.02873 -0.100983 0)
(3.03341 -0.100321 0)
(3.0366 -0.099706 0)
(3.0395 -0.0994614 0)
(3.04222 -0.0992756 0)
(3.04439 -0.0991729 0)
(3.04485 -0.0993561 0)
(3.04037 -0.101172 0)
(3.03265 -0.105043 0)
(3.03035 -0.106945 0)
(3.03054 -0.10724 0)
(3.03136 -0.107493 0)
(3.03465 -0.108426 0)
(3.03896 -0.109591 0)
(3.04089 -0.109549 0)
(3.04341 -0.108491 0)
(3.04486 -0.106778 0)
(3.04623 -0.104828 0)
(3.04795 -0.103586 0)
(3.04864 -0.10274 0)
(3.04675 -0.101171 0)
(3.04416 -0.0993187 0)
(3.04526 -0.0991149 0)
(3.04626 -0.0994871 0)
(3.04717 -0.100677 0)
(3.04872 -0.102998 0)
(3.04995 -0.105965 0)
(3.05045 -0.106864 0)
(3.05203 -0.106671 0)
(3.05504 -0.104959 0)
(3.05736 -0.103423 0)
(3.0589 -0.103906 0)
(3.0589 -0.104742 0)
(3.0579 -0.103403 0)
(3.06015 -0.100821 0)
(3.0624 -0.0986585 0)
(3.06372 -0.0976833 0)
(3.06564 -0.0976276 0)
(3.06739 -0.0979589 0)
(2.90978 -0.114328 0)
(2.91255 -0.115885 0)
(2.9159 -0.116735 0)
(2.92008 -0.117938 0)
(2.92269 -0.119419 0)
(2.9229 -0.119324 0)
(2.92365 -0.117022 0)
(2.92473 -0.113587 0)
(2.92502 -0.110727 0)
(2.9211 -0.107363 0)
(2.91068 -0.102479 0)
(2.90394 -0.100324 0)
(2.90702 -0.101155 0)
(2.91012 -0.102244 0)
(2.9132 -0.104019 0)
(2.9163 -0.106582 0)
(2.91879 -0.108783 0)
(2.92243 -0.111152 0)
(2.92737 -0.114099 0)
(2.93487 -0.117007 0)
(2.93915 -0.118657 0)
(2.93939 -0.118423 0)