/*--------------------------------*- C++ -*----------------------------------*\
  =========                 |
  \\      /  F ield         | OpenFOAM: The Open Source CFD Toolbox
   \\    /   O peration     | Website:  https://openfoam.org
    \\  /    A nd           | Version:  7
     \\/     M anipulation  |
\*---------------------------------------------------------------------------*/
FoamFile
{
    version     2.0;
    format      ascii;
    class       surfaceScalarField;
    location    "33.999728";
    object      phi;
}
// * * * * * * * * * * * * * * * * * * * * * * * * * * * * * * * * * * * * * //

dimensions      [0 3 -1 0 0 0 0];

internalField   nonuniform List<scalar> 
46020
(
-3.84377e-06
3.84372e-06
4.9648e-11
-1.44509e-05
1.06071e-05
-1.01628e-12
-3.14892e-05
1.70386e-05
-2.00705e-10
-5.46078e-05
2.31191e-05
-5.45415e-10
-8.34434e-05
2.88366e-05
-1.02527e-09
-0.000117644
3.42024e-05
-1.62951e-09
-0.000156891
3.92488e-05
-2.3522e-09
-0.000200914
4.40265e-05
-3.1985e-09
-0.000249509
4.85987e-05
-4.18998e-09
-0.000302533
5.30295e-05
-5.36736e-09
-0.000359895
5.73693e-05
-6.79031e-09
-0.000421526
6.16391e-05
-8.53449e-09
-0.00048733
6.58153e-05
-1.06872e-08
-0.000557137
6.98201e-05
-1.3342e-08
-0.000630649
7.35283e-05
-1.65925e-08
-0.000707427
7.67987e-05
-2.05221e-08
-0.000786946
7.95445e-05
-2.51886e-08
-0.000868981
8.20654e-05
-3.06075e-08
-0.000954042
8.50974e-05
-3.67045e-08
8.87309e-05
-4.32884e-08
-0.00104273
-3.77188e-06
7.6156e-06
-1.41921e-05
2.10273e-05
-3.09393e-05
3.37858e-05
-5.36675e-05
4.58472e-05
-8.20128e-05
5.7182e-05
-0.000115617
6.78064e-05
-0.000154147
7.7779e-05
-0.000197315
8.71948e-05
-0.00024489
9.61732e-05
-0.000296696
0.000104836
-0.000352603
0.000113277
-0.000412495
0.000121531
-0.000476224
0.000129544
-0.000543554
0.000137151
-0.000614109
0.000144083
-0.000687338
0.000150028
-0.00076252
0.000154727
-0.000839097
0.000158643
-0.000917531
0.000163531
0.000167667
-0.000996466
-3.63143e-06
1.1247e-05
-1.36857e-05
3.10816e-05
-2.98614e-05
4.99615e-05
-5.18212e-05
6.78071e-05
-7.91995e-05
8.45602e-05
-0.000111624
0.000100231
-0.000148736
0.000114891
-0.000190207
0.000128667
-0.000235755
0.000141721
-0.000285138
0.000154219
-0.000338145
0.000166284
-0.000394566
0.000177951
-0.000454143
0.000189121
-0.000516514
0.000199521
-0.000581138
0.000208708
-0.000647255
0.000216144
-0.000713777
0.000221249
-0.000779426
0.000224293
-0.000844825
0.000228929
0.000227228
-0.000904387
-3.42888e-06
1.46759e-05
-1.29531e-05
4.06058e-05
-2.82978e-05
6.53061e-05
-4.91362e-05
8.86455e-05
-7.50973e-05
0.000110521
-0.000105787
0.00013092
-0.000140806
0.000149909
-0.000179767
0.000167629
-0.000222308
0.000184262
-0.000268087
0.000199997
-0.000316769
0.000214966
-0.000367998
0.000229181
-0.000421349
0.000242472
-0.00047626
0.000254432
-0.000531944
0.000264392
-0.000587333
0.000271533
-0.000640878
0.000274793
-0.00069005
0.000273465
-0.000736306
0.000275185
0.000258102
-0.000767179
-3.1735e-06
1.78494e-05
-1.20253e-05
4.94577e-05
-2.63097e-05
7.95904e-05
-4.5709e-05
0.000108045
-6.98416e-05
0.000134654
-9.8281e-05
0.000159359
-0.000130573
0.000182202
-0.000166251
0.000203307
-0.000204844
0.000222855
-0.000245873
0.000241026
-0.000288835
0.000257928
-0.000333173
0.000273518
-0.000378222
0.000287521
-0.000423144
0.000299353
-0.000466811
0.000308059
-0.000507746
0.000312468
-0.000543952
0.000310999
-0.00057091
0.000300424
-0.000591948
0.000296223
0.000251525
-0.000585372
-2.87691e-06
2.07263e-05
-1.09412e-05
5.75219e-05
-2.39739e-05
9.26231e-05
-4.16614e-05
0.000125732
-6.36032e-05
0.000156596
-8.93285e-05
0.000185085
-0.000118312
0.000211185
-0.000149983
0.000234978
-0.000183736
0.000256607
-0.000218915
0.000276205
-0.0002548
0.000293814
-0.000290569
0.000309287
-0.000325241
0.000322193
-0.000357604
0.000331717
-0.000386076
0.000336531
-0.000408619
0.000335011
-0.00042297
0.00032535
-0.00042177
0.000299223
-0.000410685
0.000285138
0.000199922
-0.000359081
-2.5524e-06
2.32787e-05
-9.74509e-06
6.47146e-05
-2.13787e-05
0.000104257
-3.7134e-05
0.000141488
-5.65795e-05
0.000176041
-7.9186e-05
0.000207691
-0.000104338
0.000236336
-0.000131339
0.00026198
-0.000159416
0.000284684
-0.000187697
0.000304486
-0.00021519
0.000321307
-0.000240738
0.000334834
-0.00026295
0.000344405
-0.000280128
0.000348895
-0.000290098
0.000346502
-0.000289982
0.000334895
-0.000277491
0.000312859
-0.000242406
0.000264138
-0.000189373
0.000232104
0.000100243
-8.96938e-05
-2.21423e-06
2.5493e-05
-8.48495e-06
7.09853e-05
-1.86192e-05
0.000114391
-3.22778e-05
0.000155146
-4.89834e-05
0.000192747
-6.81304e-05
0.000226838
-8.89927e-05
0.000257198
-0.000110723
0.000283711
-0.000132346
0.000306306
-0.00015273
0.000324871
-0.000170553
0.00033913
-0.00018424
0.00034852
-0.000191886
0.000352052
-0.000191168
0.000348177
-0.000179195
0.000334529
-0.00015183
0.00030753
-0.000105936
0.000266965
-3.43197e-05
0.000192522
7.39457e-05
0.000123839
-5.99617e-05
0.00023415
-1.87678e-06
2.73697e-05
-7.20889e-06
7.63174e-05
-1.57911e-05
0.000122973
-2.72454e-05
0.0001666
-4.10292e-05
0.000206531
-5.64402e-05
0.000242249
-7.2618e-05
0.000273376
-8.85353e-05
0.000299628
-0.000102977
0.000320748
-0.000114503
0.000336397
-0.000121392
0.000346019
-0.000121563
0.000348691
-0.000112474
0.000342962
-9.0994e-05
0.000326697
-5.3333e-05
0.000296868
4.81728e-06
0.00024938
9.19158e-05
0.000179867
0.000214233
7.02046e-05
0.00037306
-3.49879e-05
-0.000301341
0.000614439
-1.55362e-06
2.89234e-05
-5.96226e-06
8.07261e-05
-1.29843e-05
0.000129995
-2.21798e-05
0.000175796
-3.29171e-05
0.000217268
-4.43731e-05
0.000253705
-5.55252e-05
0.000284528
-6.5132e-05
0.000309235
-7.16968e-05
0.000327313
-7.34117e-05
0.000338112
-6.80782e-05
0.000340685
-5.30029e-05
0.000333616
-2.48617e-05
0.000314821
2.04567e-05
0.000281379
8.80476e-05
0.000229277
0.00018462
0.000152808
0.000316293
4.81937e-05
0.000498763
-0.000112266
0.000723489
-0.000259714
-0.000633324
0.00105547
-1.25661e-06
3.018e-05
-4.78426e-06
8.42537e-05
-1.02761e-05
0.000135487
-1.72022e-05
0.000182722
-2.48148e-05
0.000224881
-3.21403e-05
0.000261031
-3.79612e-05
0.000290349
-4.07807e-05
0.000312055
-3.87679e-05
0.0003253
-2.96768e-05
0.000329021
-1.07385e-05
0.000321747
2.14802e-05
0.000301397
7.12519e-05
0.00026505
0.000143894
0.000208737
0.000245923
0.000127248
0.000385879
1.2852e-05
0.000572044
-0.000137971
0.000822517
-0.00036274
0.00112737
-0.000564562
-0.00106746
0.0015615
-9.94894e-07
3.11749e-05
-3.70448e-06
8.69633e-05
-7.72341e-06
0.000139506
-1.24002e-05
0.000187399
-1.68385e-05
0.000229319
-1.98794e-05
0.000264072
-2.00696e-05
0.000290539
-1.56062e-05
0.000307591
-4.25767e-06
0.000313952
1.67479e-05
0.000308015
5.08667e-05
0.000287628
0.00010242
0.000249843
0.000176816
0.000190654
0.000280801
0.000104753
0.00042258
-1.45318e-05
0.000612422
-0.00017699
0.000862064
-0.000387613
0.00118859
-0.00068926
0.00158616
-0.000962141
-0.00161176
0.00213046
-7.7401e-07
3.19489e-05
-2.73972e-06
8.8929e-05
-5.35639e-06
0.000142123
-7.81525e-06
0.000189858
-9.03392e-06
0.000230538
-7.62576e-06
0.000262664
-1.85124e-06
0.000284765
1.04625e-05
0.000295278
3.20334e-05
0.000292381
6.62695e-05
0.000273779
0.000117456
0.000236442
0.00019098
0.00017632
0.000293581
8.80524e-05
0.000433636
-3.53018e-05
0.000621252
-0.000202149
0.000867975
-0.000423713
0.00118974
-0.000709376
0.00159884
-0.00109836
0.00209757
-0.00146087
-0.00226423
0.00275003
-5.95109e-07
3.2544e-05
-1.8911e-06
9.0225e-05
-3.17194e-06
0.000143404
-3.43168e-06
0.000190117
-1.35697e-06
0.000228463
4.71193e-06
0.000256595
1.68688e-05
0.000272608
3.77396e-05
0.000274407
7.06324e-05
0.000259488
0.000119728
0.000224683
0.000190307
0.000165862
0.00028901
7.76176e-05
0.000424087
-4.70254e-05
0.000605637
-0.000216851
0.000845696
-0.000442208
0.00115637
-0.000734386
0.00155665
-0.00110966
0.00205158
-0.00159329
0.00265217
-0.00206146
-0.00300677
0.00339471
-4.54367e-07
3.29983e-05
-1.14203e-06
9.09127e-05
-1.12844e-06
0.00014339
8.32478e-07
0.000188157
6.32859e-06
0.000222967
1.73693e-05
0.000245554
3.64722e-05
0.000253505
6.68165e-05
0.000244063
0.000112431
0.000213873
0.000178427
0.000158687
0.000271257
7.30322e-05
0.000398977
-5.01025e-05
0.00057144
-0.000219488
0.00080032
-0.000445731
0.0010991
-0.000740982
0.0014797
-0.00111499
0.00196009
-0.00159005
0.00253778
-0.00217098
0.00322932
-0.002753
-0.00380333
0.00402588
-3.42786e-07
3.33411e-05
-4.56412e-07
9.10263e-05
8.52494e-07
0.000142081
5.11835e-06
0.000183891
1.42757e-05
0.00021381
3.07398e-05
0.00022909
5.75527e-05
0.000226692
9.85677e-05
0.000203048
0.000158681
0.00015376
0.000244095
7.32729e-05
0.000362586
-4.54586e-05
0.000523701
-0.000211217
0.00073877
-0.000434557
0.00102052
-0.000727486
0.00138252
-0.00110298
0.00183559
-0.00156806
0.00239051
-0.00214496
0.0030382
-0.00281867
0.00379511
-0.00350991
-0.00460579
0.00459758
-2.46436e-07
3.35876e-05
2.18463e-07
9.05614e-05
2.88761e-06
0.000139412
9.64893e-06
0.000177129
2.28356e-05
0.000200623
4.53627e-05
0.000206563
8.09043e-05
0.000191151
0.00013412
0.000149831
0.000210923
7.6957e-05
0.000318745
-3.4549e-05
0.000466749
-0.000193463
0.000665851
-0.000410319
0.000928372
-0.000697078
0.00126704
-0.00106615
0.00169322
-0.00152917
0.0022147
-0.00208954
0.00282978
-0.00276004
0.00352373
-0.00351262
0.00430593
-0.00429211
-0.00536575
0.00506588
-1.47246e-07
3.37348e-05
9.44377e-07
8.94698e-05
5.1327e-06
0.000135224
1.46958e-05
0.000167566
3.24485e-05
0.00018287
6.19009e-05
0.00017711
0.000107477
0.000145574
0.000174777
8.25319e-05
0.000270852
-1.91187e-05
0.000404427
-0.000168124
0.000585944
-0.000374979
0.000827245
-0.00065162
0.00114063
-0.00101047
0.00153708
-0.0014626
0.00202306
-0.00201514
0.00259994
-0.00266642
0.00325184
-0.00341194
0.00395958
-0.00422036
0.00471894
-0.00505147
-0.00604618
0.00539938
-2.23301e-08
3.37571e-05
1.81363e-06
8.76338e-05
7.76592e-06
0.000129271
2.05755e-05
0.000154757
4.36167e-05
0.000159829
8.10955e-05
0.000139632
0.000138303
8.83667e-05
0.000221887
-1.05207e-06
0.000340104
-0.000137335
0.000502876
-0.000330896
0.000721549
-0.000593652
0.00100801
-0.000938082
0.00137294
-0.0013754
0.00182319
-0.00191284
0.00235778
-0.00254973
0.00296826
-0.00327691
0.00362715
-0.00407084
0.00431281
-0.00490602
0.00500491
-0.00574356
-0.00662842
0.00558715
1.54144e-07
3.3603e-05
2.91042e-06
8.48775e-05
1.09785e-05
0.000121203
2.76251e-05
0.00013811
5.68672e-05
0.000130587
0.000103705
9.27941e-05
0.00017439
1.76809e-05
0.000276689
-0.00010335
0.000419978
-0.000280625
0.000615087
-0.000526005
0.000873513
-0.000852077
0.00120581
-0.00127038
0.00161894
-0.00178853
0.00211306
-0.00240696
0.00267812
-0.00311479
0.00329465
-0.00389344
0.00392981
-0.00470599
0.00456088
-0.00553709
0.0051547
-0.00633737
-0.00712414
0.00565041
4.03236e-07
3.31998e-05
4.3226e-06
8.09582e-05
1.49616e-05
0.000110564
3.61768e-05
0.000116895
7.27075e-05
9.40561e-05
0.000130429
3.50722e-05
0.000216615
-6.85043e-05
0.000340094
-0.00022683
0.00051115
-0.000451681
0.000740895
-0.00075575
0.00103982
-0.001151
0.00141532
-0.00164588
0.00186843
-0.00224164
0.00239072
-0.00292926
0.00296301
-0.00368708
0.00355756
-0.00448798
0.00414334
-0.00529178
0.00469872
-0.00609248
0.00519265
-0.0068313
-0.00758388
0.00565239
7.49678e-07
3.24501e-05
6.13302e-06
7.55748e-05
1.98915e-05
9.68058e-05
4.65307e-05
9.02557e-05
9.15778e-05
4.90091e-05
0.000161835
-3.51847e-05
0.000265574
-0.000172244
0.000412523
-0.000373779
0.000613387
-0.000652545
0.000878619
-0.00102098
0.00121616
-0.00148854
0.00162829
-0.002058
0.00210833
-0.00272168
0.00263898
-0.00345991
0.00319414
-0.00424224
0.00374364
-0.00503748
0.0042633
-0.00581143
0.00473485
-0.00656403
0.00515984
-0.00725629
-0.00797846
0.00555442
1.21292e-06
3.12372e-05
8.41279e-06
6.83749e-05
2.59172e-05
7.93014e-05
5.89296e-05
5.72433e-05
0.000113807
-5.86869e-06
0.000198276
-0.000119653
0.00032149
-0.000295457
0.000493716
-0.000546005
0.00072534
-0.00088417
0.00102489
-0.00132053
0.00139603
-0.00185969
0.00183424
-0.00249621
0.00232458
-0.00321202
0.0028427
-0.00397802
0.00335985
-0.0047594
0.00384972
-0.00552735
0.00429692
-0.00625863
0.00469526
-0.00696238
0.00505608
-0.00761711
-0.00831052
0.00538815
1.80863e-06
2.94285e-05
1.12172e-05
5.89664e-05
3.31496e-05
5.7369e-05
7.35389e-05
1.6854e-05
0.000139578
-7.19083e-05
0.00023984
-0.000219915
0.000384107
-0.000439724
0.000582623
-0.000744522
0.000844442
-0.00114599
0.00117469
-0.00165078
0.00157121
-0.00225621
0.00202185
-0.00294685
0.00250462
-0.00369479
0.0029917
-0.0044651
0.0034568
-0.0052245
0.00388148
-0.00595203
0.00426062
-0.00663777
0.00459721
-0.00729897
0.00490694
-0.00792684
-0.00860397
0.00520038
2.54805e-06
2.68805e-05
1.45836e-05
4.69308e-05
4.16554e-05
3.02973e-05
9.04328e-05
-3.19234e-05
0.000168899
-0.000150374
0.0002863
-0.000337316
0.000452637
-0.000606061
0.000677355
-0.000969239
0.000966958
-0.00143559
0.00132175
-0.00200557
0.00173273
-0.00266719
0.00218074
-0.00339487
0.00263952
-0.00415356
0.00308223
-0.00490782
0.00348897
-0.00563124
0.00385077
-0.00631383
0.00417102
-0.00695801
0.00445847
-0.00758643
0.0047302
-0.00819857
-0.00886757
0.0049938
3.43818e-06
2.34423e-05
1.85309e-05
3.18381e-05
5.14538e-05
-2.62562e-06
0.000109585
-9.00544e-05
0.000201584
-0.000242374
0.000337089
-0.000472821
0.00052574
-0.000794712
0.000775214
-0.00121871
0.00108821
-0.00174859
0.0014591
-0.00237647
0.00187213
-0.00308022
0.00230311
-0.00382585
0.00272524
-0.00457569
0.00311652
-0.00529909
0.00346531
-0.00598003
0.00377122
-0.00661974
0.00404331
-0.0072301
0.00429284
-0.00783595
0.00453535
-0.00844108
-0.0091077
0.00477548
4.48205e-06
1.89602e-05
2.30597e-05
1.32605e-05
6.25151e-05
-4.2081e-05
0.000130863
-0.000158403
0.000237252
-0.000348762
0.000391295
-0.000626864
0.000601539
-0.00100496
0.000872835
-0.00149001
0.00120297
-0.00207872
0.00158002
-0.00275352
0.00198268
-0.00348287
0.00238476
-0.00422792
0.00276251
-0.00495345
0.00310101
-0.00563759
0.00339674
-0.00627577
0.00365564
-0.00687864
0.00388952
-0.00746398
0.00410964
-0.00805607
0.00432901
-0.00866045
-0.00932843
0.00454973
5.67915e-06
1.32811e-05
2.81525e-05
-9.21279e-06
7.47599e-05
-8.86884e-05
0.000154029
-0.000237672
0.000275314
-0.000470046
0.00044767
-0.000799221
0.000677704
-0.00123499
0.000966412
-0.00177872
0.00130601
-0.00241832
0.00167881
-0.00312632
0.00206019
-0.00386425
0.00242519
-0.00459293
0.00275566
-0.00528392
0.00304424
-0.00592616
0.003294
-0.00652553
0.0035146
-0.00709924
0.00371833
-0.0076677
0.00391508
-0.00825282
0.00411505
-0.00886042
-0.00953165
0.00431827
7.02551e-06
6.25558e-06
3.37735e-05
-3.59608e-05
8.80579e-05
-0.000142973
0.000178734
-0.000328348
0.000314986
-0.000606298
0.000504671
-0.000988906
0.000751571
-0.00148189
0.00105203
-0.00207918
0.00139267
-0.00275896
0.00175151
-0.00348516
0.0021033
-0.00421605
0.00242699
-0.00491661
0.00271111
-0.00556804
0.00295505
-0.0061701
0.00316633
-0.00673681
0.00335612
-0.00728904
0.00353569
-0.00784727
0.00371301
-0.00843015
0.00389569
-0.0090431
-0.00971847
0.00408251
8.51325e-06
-2.25767e-06
3.98677e-05
-6.73152e-05
0.000102226
-0.000205332
0.000204519
-0.000430641
0.000355302
-0.00075708
0.000560523
-0.00119413
0.00082034
-0.00174171
0.00112605
-0.00238489
0.00145941
-0.00309232
0.00179619
-0.00382194
0.00211315
-0.00453301
0.00239471
-0.00519817
0.00263597
-0.0058093
0.00284145
-0.00637558
0.00302109
-0.00691645
0.00318593
-0.00745388
0.00334548
-0.00800682
0.00350579
-0.00859046
0.00367234
-0.00920965
-0.00988932
0.00384319
1.01299e-05
-1.23876e-05
4.63589e-05
-0.000103544
0.000117028
-0.000276001
0.000230826
-0.000544438
0.000395144
-0.000921399
0.000613319
-0.0014123
0.00088129
-0.00200968
0.00118545
-0.00268904
0.00150405
-0.00341092
0.00181292
-0.00413081
0.00209271
-0.00481281
0.00233386
-0.00543931
0.00253704
-0.00601248
0.00271011
-0.00654865
0.00286377
-0.00707011
0.00300795
-0.00759806
0.0031502
-0.00814906
0.00329488
-0.00873514
0.00344584
-0.00936062
-0.0100444
0.00360087
1.18587e-05
-2.42463e-05
5.3149e-05
-0.000144834
0.000132174
-0.000355027
0.000257001
-0.000669265
0.000433294
-0.00109769
0.000661146
-0.00164015
0.000932025
-0.00228056
0.0012281
-0.00298512
0.00152592
-0.00370874
0.00180334
-0.00440823
0.00204603
-0.00505549
0.00225004
-0.00564333
0.00242025
-0.00618268
0.00256624
-0.00669465
0.00269831
-0.00720217
0.00282479
-0.00772454
0.0029514
-0.00827567
0.00308118
-0.00886491
0.00321679
-0.00949622
-0.0101836
0.003356
1.36762e-05
-3.79225e-05
6.01168e-05
-0.000191275
0.000147326
-0.000442235
0.000282327
-0.000804266
0.000468496
-0.00128386
0.000702232
-0.00187389
0.000970673
-0.002549
0.00125293
-0.00326738
0.00152564
-0.00398145
0.0017702
-0.00465279
0.00197752
-0.00526281
0.00214842
-0.00581422
0.00229047
-0.00632474
0.00241375
-0.00681793
0.00252743
-0.00731584
0.00263816
-0.00783528
0.00275011
-0.00838762
0.00286533
-0.00898014
0.00298564
-0.00961653
-0.0103069
0.00310897
1.5553e-05
-5.34755e-05
6.71199e-05
-0.000242842
0.000162105
-0.000537221
0.000306047
-0.000948208
0.000499541
-0.00147735
0.000735078
-0.00210943
0.000996017
-0.00280994
0.00125982
-0.00353119
0.00150484
-0.00422647
0.0017168
-0.00486474
0.00189152
-0.00543753
0.00203342
-0.00595613
0.00215152
-0.00644284
0.00225547
-0.00692187
0.00235299
-0.00741337
0.0024492
-0.00793148
0.00254701
-0.00848544
0.00264781
-0.00908094
0.0027528
-0.00972151
-0.0104142
0.00286013
1.7454e-05
-7.09295e-05
7.39982e-05
-0.000299386
0.000176111
-0.000639334
0.000327413
-0.00109951
0.000525346
-0.00167529
0.000758568
-0.00234265
0.00100754
-0.00305891
0.00124954
-0.00377318
0.00146579
-0.00444273
0.00164659
-0.00504554
0.00179194
-0.00558288
0.00190869
-0.00607288
0.00200629
-0.00654044
0.00209339
-0.00700898
0.00217626
-0.00749623
0.00225867
-0.0080139
0.00234262
-0.00856939
0.00242902
-0.00916733
0.00251862
-0.00981112
-0.0105055
0.00260984
1.9339e-05
-9.02685e-05
8.05794e-05
-0.000360627
0.000188937
-0.000747691
0.000345723
-0.0012563
0.000545023
-0.00187459
0.000772027
-0.00256965
0.00100538
-0.00329226
0.00122345
-0.00399126
0.00141109
-0.00463036
0.00156289
-0.00519734
0.00168215
-0.00570214
0.0017771
-0.00616783
0.00185689
-0.00662023
0.00192895
-0.00708104
0.00199813
-0.00756542
0.00206715
-0.00808292
0.00213734
-0.00863958
0.00220929
-0.00923928
0.00228346
-0.00988528
-0.0105805
0.00235847
2.11641e-05
-0.000111433
8.6686e-05
-0.000426148
0.00020019
-0.000861196
0.00036037
-0.00141648
0.00055794
-0.00207216
0.000775231
-0.00278695
0.0009902
-0.00350722
0.00118335
-0.0041844
0.00134338
-0.0047904
0.00146869
-0.00532265
0.00156493
-0.00579838
0.00164088
-0.00624378
0.0017049
-0.00668426
0.00176313
-0.00713926
0.00181922
-0.00762151
0.00187506
-0.00813876
0.00193152
-0.00869604
0.00198898
-0.00929674
0.00204764
-0.00994395
-0.0106392
0.00210635
2.28835e-05
-0.000134316
9.21442e-05
-0.000495409
0.000209516
-0.000978568
0.00037087
-0.00157783
0.000563739
-0.00226503
0.000768371
-0.00299158
0.000963092
-0.00370195
0.0011312
-0.00435251
0.0012652
-0.0049244
0.00136659
-0.00542404
0.00144252
-0.00587431
0.00150169
-0.00630295
0.00155144
-0.006734
0.00159665
-0.00718447
0.00164
-0.00766486
0.00168276
-0.00818153
0.00172549
-0.00873876
0.00176839
-0.00933964
0.00181151
-0.00998706
-0.0106815
0.00185386
2.44512e-05
-0.000158767
9.67912e-05
-0.000567749
0.000216614
-0.00109839
0.000376889
-0.0017381
0.000562339
-0.00245048
0.000751977
-0.00318121
0.000925387
-0.00387535
0.00106902
-0.00449615
0.00117885
-0.00503422
0.00125876
-0.00550395
0.00131668
-0.00593224
0.00136079
-0.00634706
0.00139732
-0.00677053
0.00143004
-0.00721719
0.00146085
-0.00769567
0.00149058
-0.00821126
0.00151954
-0.00876772
0.00154785
-0.00936795
0.00157539
-0.0100146
-0.0107075
0.00160135
2.58233e-05
-0.000184591
0.000100484
-0.00064241
0.000221253
-0.00121916
0.000378254
-0.0018951
0.00055391
-0.00262613
0.000726837
-0.00335414
0.000878545
-0.00402706
0.000998722
-0.00461633
0.00108633
-0.00512183
0.00114697
-0.00556458
0.00118876
-0.00597403
0.00121913
-0.00637742
0.00124316
-0.00679457
0.00126372
-0.00723774
0.0012821
-0.00771404
0.0012988
-0.00822796
0.00131397
-0.0087829
0.00132766
-0.00938163
0.00133963
-0.0100266
-0.0107171
0.00134923
2.69594e-05
-0.00021155
0.000103104
-0.000718554
0.000223279
-0.00133934
0.000374948
-0.00204677
0.000538829
-0.00279001
0.000693905
-0.00350922
0.000824047
-0.0041572
0.000922057
-0.00471434
0.000989362
-0.00518914
0.00103264
-0.00560786
0.00105982
-0.00600122
0.00107739
-0.00639499
0.00108943
-0.00680661
0.00109803
-0.00724634
0.00110403
-0.00772004
0.0011077
-0.00823163
0.00110907
-0.00878427
0.00110812
-0.00938068
0.00110456
-0.010023
-0.0107104
0.00109788
2.7825e-05
-0.000239375
0.000104564
-0.000795293
0.000222621
-0.00145739
0.000367094
-0.00219125
0.000517632
-0.00294055
0.000654219
-0.00364581
0.000763322
-0.00426631
0.000840586
-0.0047916
0.000889363
-0.00523791
0.000916899
-0.00563539
0.000930643
-0.00601496
0.000936114
-0.00640046
0.000936502
-0.006807
0.000933269
-0.00724311
0.000926919
-0.00771369
0.000917554
-0.00822227
0.000905114
-0.00877183
0.000889513
-0.00936508
0.000870496
-0.010004
-0.0106875
0.000847533
2.83918e-05
-0.000267767
0.000104808
-0.000871709
0.000219284
-0.00157187
0.000354936
-0.0023269
0.000490962
-0.00307658
0.000608842
-0.00376369
0.000697693
-0.00435516
0.000755657
-0.00484957
0.000787501
-0.00526976
0.00080064
-0.00564853
0.000801848
-0.00601617
0.000795719
-0.00639433
0.000784672
-0.00679595
0.000769688
-0.00722812
0.000751019
-0.00769502
0.000728633
-0.00819988
0.000702385
-0.00874558
0.00067212
-0.00933481
0.000637633
-0.00996951
-0.0106482
0.000598413
2.86396e-05
-0.000296406
0.000103813
-0.000946882
0.000213344
-0.0016814
0.000338808
-0.00245236
0.000459521
-0.00319729
0.000558804
-0.00386297
0.000628351
-0.00442471
0.000668413
-0.00488963
0.000684721
-0.00528607
0.000684551
-0.00564836
0.00067391
-0.00600553
0.000656536
-0.00637696
0.000634208
-0.00677362
0.000607535
-0.00720145
0.000576579
-0.00766406
0.000541198
-0.0081645
0.000501184
-0.00870557
0.000456313
-0.00928994
0.000406194
-0.00991939
-0.0105926
0.000350611
2.85556e-05
-0.000324962
0.000101589
-0.00101992
0.000204938
-0.00178475
0.000319109
-0.00256653
0.000424031
-0.00330221
0.000505075
-0.00394401
0.000556345
-0.00447598
0.000579808
-0.00491309
0.00058178
-0.00528804
0.000569173
-0.00563575
0.000547202
-0.00598356
0.000518841
-0.0063486
0.000485345
-0.00674013
0.000447038
-0.00716315
0.000403838
-0.00762086
0.000355505
-0.00811617
0.000301771
-0.00865184
0.000242492
-0.00923066
0.000176855
-0.00985376
-0.0105195
0.000103687
2.81354e-05
-0.000353097
9.81734e-05
-0.00108995
0.000194251
-0.00188083
0.000296278
-0.00266856
0.000385202
-0.00339114
0.000448542
-0.00400735
0.000482581
-0.00451001
0.000490632
-0.00492114
0.000479281
-0.00527669
0.000454932
-0.00561141
0.000422025
-0.00595065
0.000382867
-0.00630944
0.000338299
-0.00669556
0.000288415
-0.00711326
0.000233019
-0.00756547
0.000171812
-0.00805496
0.000104327
-0.00858435
3.03025e-05
-0.00915664
-4.92715e-05
-0.00977418
-0.0104294
-0.000139354
2.73818e-05
-0.000380479
9.36273e-05
-0.0011562
0.000181504
-0.0019687
0.00027077
-0.00275783
0.000343711
-0.00346408
0.000389995
-0.00405364
0.000407827
-0.00452785
0.000401527
-0.00491484
0.000377702
-0.00525286
0.000342164
-0.00557587
0.000298626
-0.00590711
0.000248824
-0.00625964
0.000193262
-0.00664
0.000131864
-0.00705186
6.42613e-05
-0.00749786
-9.88939e-06
-0.00798081
-9.06458e-05
-0.0085036
-0.000178431
-0.00906885
-0.000274531
-0.00967808
-0.0103251
-0.000378792
2.63047e-05
-0.000406784
8.80326e-05
-0.00121793
0.000166936
-0.00204761
0.000243037
-0.00283393
0.000300184
-0.00352122
0.000330131
-0.00408358
0.00033273
-0.00453044
0.000313016
-0.00489513
0.000277426
-0.00521727
0.000231143
-0.00552959
0.000177208
-0.00585318
0.000116894
-0.00619933
5.03275e-05
-0.00657343
-2.25577e-05
-0.00697898
-0.000101942
-0.00741848
-0.000188522
-0.00789423
-0.000282794
-0.00840932
-0.000384919
-0.00896673
-0.000496036
-0.00956697
-0.0102055
-0.000615641
2.49197e-05
-0.000431704
8.14855e-05
-0.00127449
0.000150802
-0.00211692
0.000213516
-0.00289664
0.000255192
-0.0035629
0.00026955
-0.00409794
0.000257829
-0.00451872
0.000225518
-0.00486282
0.000178755
-0.00517051
0.0001221
-0.00547293
5.7885e-05
-0.00578896
-1.29644e-05
-0.00612848
-9.00546e-05
-0.00649634
-0.000174068
-0.00689497
-0.000265487
-0.00732706
-0.000364682
-0.00779503
-0.000472198
-0.00830181
-0.000588496
-0.00885043
-0.000714264
-0.0094412
-0.0100705
-0.000849339
2.32473e-05
-0.000454951
7.40925e-05
-0.00132534
0.000133356
-0.00217619
0.000182618
-0.0029459
0.000209244
-0.00358953
0.00020877
-0.00409747
0.000183567
-0.00449352
0.000139374
-0.00481862
8.19282e-05
-0.00511306
1.50303e-05
-0.00540603
-5.90125e-05
-0.00571492
-0.000139868
-0.00604762
-0.000227818
-0.00640839
-0.00032309
-0.00679969
-0.000426273
-0.00722388
-0.000537895
-0.00768341
-0.000658523
-0.00818118
-0.000788747
-0.00872021
-0.000929045
-0.0093009
-0.0099201
-0.0010794
2.13118e-05
-0.000476263
6.59662e-05
-0.00136999
0.000114848
-0.00222507
0.000150725
-0.00298178
0.00016279
-0.00360159
0.000148227
-0.00408291
0.000110312
-0.0044556
5.48437e-05
-0.00476316
-1.29523e-05
-0.00504527
-8.93749e-05
-0.00532961
-0.000173328
-0.00563097
-0.000264401
-0.00595655
-0.000362906
-0.00630989
-0.000469267
-0.00669333
-0.000584063
-0.00710908
-0.000707922
-0.00755955
-0.000841489
-0.00804761
-0.000985426
-0.00857627
-0.00114013
-0.0091462
-0.00975471
-0.00130552
1.91413e-05
-0.000495404
5.72217e-05
-0.00140807
9.55179e-05
-0.00226336
0.000118187
-0.00300445
0.000116223
-0.00359963
8.82891e-05
-0.00405497
3.83664e-05
-0.00440568
-2.78144e-05
-0.00469698
-0.000105302
-0.00496778
-0.000191443
-0.00524347
-0.000285098
-0.00553731
-0.000386201
-0.00585545
-0.000495126
-0.00620096
-0.000612403
-0.00657606
-0.000738649
-0.00698284
-0.00087455
-0.00742365
-0.00102084
-0.00790132
-0.00117827
-0.00841884
-0.00134722
-0.00897725
-0.00957456
-0.00152737
1.67668e-05
-0.000512171
4.79743e-05
-0.00143928
7.55968e-05
-0.00229099
8.53196e-05
-0.00301417
6.98835e-05
-0.00358419
2.93028e-05
-0.00401439
-3.20142e-05
-0.00434436
-0.00010837
-0.00462062
-0.000195455
-0.00488069
-0.000290969
-0.00514795
-0.000394153
-0.00543413
-0.000505115
-0.00574448
-0.000624312
-0.00608176
-0.000752331
-0.00644804
-0.000889837
-0.00684533
-0.00103757
-0.00727592
-0.00119634
-0.00774255
-0.00136704
-0.00824814
-0.00155003
-0.00879426
-0.00937992
-0.00174467
1.42241e-05
-0.000526395
3.83358e-05
-0.00146339
5.53012e-05
-0.00230795
5.24068e-05
-0.00301128
2.41672e-05
-0.00355595
-2.85576e-05
-0.00396167
-0.000100668
-0.00427225
-0.000186806
-0.00453448
-0.000283149
-0.00478435
-0.000387824
-0.00504328
-0.000500362
-0.00532159
-0.000621015
-0.00562383
-0.000750311
-0.00595247
-0.000888885
-0.00630946
-0.00103744
-0.00669677
-0.00119677
-0.00711659
-0.00136778
-0.00757154
-0.00155148
-0.00806443
-0.0017483
-0.00859745
-0.00917109
-0.00195713
1.15634e-05
-0.000537958
2.84342e-05
-0.00148026
3.48303e-05
-0.00231435
1.98046e-05
-0.00299625
-2.09158e-05
-0.00351523
-8.50956e-05
-0.00389749
-0.000167449
-0.0041899
-0.000262963
-0.00443897
-0.000368276
-0.00467904
-0.000481902
-0.00492965
-0.000603612
-0.00519988
-0.000733775
-0.00549367
-0.000872979
-0.00581327
-0.0010219
-0.00616054
-0.0011813
-0.00653738
-0.00135198
-0.00694591
-0.00153494
-0.00738859
-0.00173137
-0.007868
-0.00194177
-0.00838705
-0.00894847
-0.00216439
8.83933e-06
-0.000546798
1.83784e-05
-0.0014898
1.44164e-05
-0.00231039
-1.24997e-05
-0.00296934
-6.52161e-05
-0.00346251
-0.000140133
-0.00382257
-0.000232219
-0.00409782
-0.000336733
-0.00433445
-0.000450745
-0.00456502
-0.00057311
-0.00480729
-0.000703797
-0.00506919
-0.000843272
-0.00535419
-0.000992178
-0.00566436
-0.00115124
-0.00600148
-0.00132123
-0.00636739
-0.001503
-0.00676414
-0.00169761
-0.00719397
-0.00190646
-0.00765915
-0.00213013
-0.00816338
-0.00871245
-0.00236615
6.00416e-06
-0.000552802
8.20815e-06
-0.00149201
-5.8104e-06
-0.00229637
-4.4686e-05
-0.00293046
-0.000108372
-0.00339883
-0.00019351
-0.00373743
-0.000294867
-0.00399646
-0.000408031
-0.00422129
-0.000530477
-0.00444258
-0.00066136
-0.0046764
-0.000800814
-0.00492974
-0.000949388
-0.00520562
-0.00110777
-0.00550597
-0.00127673
-0.00583252
-0.00145707
-0.00618705
-0.00164966
-0.00657155
-0.00185562
-0.00698801
-0.0020765
-0.00743826
-0.00231312
-0.00792677
-0.00846299
-0.00256258
3.03774e-06
-0.00055584
-1.86026e-06
-0.00148711
-2.64993e-05
-0.00227173
-7.60034e-05
-0.00288096
-0.000150271
-0.00332456
-0.000245109
-0.0036426
-0.000355301
-0.00388627
-0.00047678
-0.00409981
-0.000607397
-0.00431196
-0.000746568
-0.00453723
-0.000894566
-0.00478174
-0.00105201
-0.00504818
-0.00121964
-0.00533834
-0.00139825
-0.0056539
-0.00158868
-0.00599662
-0.00179183
-0.0063684
-0.00200885
-0.00677099
-0.00224135
-0.00720576
-0.00249054
-0.00767758
-0.00820004
-0.00275349
-3.41405e-07
-0.000555498
-1.23746e-05
-0.00147507
-4.65095e-05
-0.00223759
-0.000106464
-0.002821
-0.000190791
-0.00324023
-0.000294829
-0.00353856
-0.000413445
-0.00376765
-0.000542915
-0.00397034
-0.000681439
-0.00417344
-0.000828657
-0.00439002
-0.000984959
-0.00462544
-0.00115102
-0.00488211
-0.00132764
-0.00516173
-0.00151563
-0.00546591
-0.00171589
-0.00579637
-0.00192936
-0.00615493
-0.00215727
-0.00654308
-0.00240109
-0.00696194
-0.0026614
-0.00741727
-0.00792493
-0.00293652
-3.10385e-06
-0.000552394
-2.25226e-05
-0.00145566
-6.60139e-05
-0.0021941
-0.00013596
-0.00275106
-0.000229834
-0.00314636
-0.000342594
-0.0034258
-0.000469236
-0.00364101
-0.00060638
-0.0038332
-0.000752539
-0.00402728
-0.00090755
-0.004235
-0.0010719
-0.00446108
-0.00124633
-0.00470769
-0.00143165
-0.00497641
-0.00162874
-0.00526881
-0.00183853
-0.00558658
-0.00206208
-0.00593138
-0.00230067
-0.00630449
-0.00255564
-0.00670697
-0.00282881
-0.0071441
-0.00764556
-0.00310818
-6.07128e-06
-0.000546323
-3.24451e-05
-0.00142928
-8.49601e-05
-0.00214159
-0.000164415
-0.0026716
-0.000267322
-0.00304345
-0.000388338
-0.00330478
-0.000522621
-0.00350672
-0.000667124
-0.00368869
-0.00082064
-0.00387376
-0.000983175
-0.00407247
-0.0011553
-0.00428896
-0.00133781
-0.00452519
-0.00153154
-0.00478267
-0.00173742