/*--------------------------------*- C++ -*----------------------------------*\
  =========                 |
  \\      /  F ield         | OpenFOAM: The Open Source CFD Toolbox
   \\    /   O peration     | Website:  https://openfoam.org
    \\  /    A nd           | Version:  7
     \\/     M anipulation  |
\*---------------------------------------------------------------------------*/
FoamFile
{
    version     2.0;
    format      ascii;
    class       volScalarField;
    location    "4";
    object      p;
}
// * * * * * * * * * * * * * * * * * * * * * * * * * * * * * * * * * * * * * //

dimensions      [0 2 -2 0 0 0 0];

internalField   nonuniform List<scalar> 
433
(
-0.0174947
-0.00509709
0.00494186
0.012654
0.0181619
0.0216688
0.0234469
0.023809
0.0230965
0.0216256
0.0197064
0.0175476
0.015379
0.0132336
0.0113213
0.00944165
0.00797052
0.00630178
0.00535598
0.00362661
0.00339902
0.00105018
0.00209724
-0.0177768
-0.00534607
0.00472615
0.0124706
0.0180092
0.0215441
0.0233471
0.0237307
0.023036
0.0215796
0.0196719
0.0175219
0.0153601
0.0132197
0.0113111
0.00943427
0.00796498
0.00629798
0.00535283
0.003625
0.00339691
0.00105037
0.00209499
-0.0183379
-0.00584142
0.00429677
0.0121056
0.017705
0.0212957
0.0231482
0.0235744
0.0229154
0.0214879
0.019603
0.0174707
0.0153222
0.013192
0.0112907
0.00941952
0.0079539
0.00629038
0.00534654
0.00362177
0.00339272
0.00105074
0.0020905
-0.0191716
-0.00657806
0.00365777
0.0115619
0.0172515
0.0209251
0.0228513
0.023341
0.0227351
0.0213507
0.0194998
0.017394
0.0152656
0.0131505
0.0112601
0.00939743
0.00793731
0.00627901
0.00533711
0.00361694
0.00338643
0.00105131
0.00208377
-0.0202688
-0.00754852
0.00281506
0.0108441
0.0166523
0.0204348
0.0224581
0.0230317
0.0224959
0.0211685
0.0193629
0.0172921
0.0151902
0.0130952
0.0112194
0.00936803
0.00791523
0.00626387
0.00532456
0.00361051
0.00337807
0.00105206
0.00207482
-0.0216177
-0.00874321
0.00177625
0.00995812
0.0159116
0.0198281
0.021971
0.0226479
0.0221988
0.0209421
0.0191924
0.0171652
0.0150964
0.0130264
0.0111687
0.00933139
0.0078877
0.00624499
0.0053089
0.00360249
0.00336767
0.001053
0.00206368
-0.0232042
-0.0101507
0.000550491
0.00891106
0.0150349
0.0191088
0.0213925
0.0221916
0.021845
0.0206721
0.018989
0.0170137
0.0149842
0.0129441
0.0111081
0.00928757
0.00785476
0.00622241
0.00529016
0.00359289
0.00335519
0.00105414
0.00205036
-0.0250125
-0.0117579
-0.000851807
0.00771101
0.0140283
0.0182814
0.020726
0.0216649
0.0214361
0.0203596
0.0187533
0.0168379
0.014854
0.0128486
0.0110377
0.00923665
0.00781647
0.00619616
0.00526836
0.00358173
0.00334041
0.00105549
0.0020349
-0.0270253
-0.0135506
-0.0024192
0.00636693
0.0128986
0.017351
0.019975
0.0210703
0.0209737
0.0200057
0.018486
0.0166383
0.0147061
0.0127399
0.0109576
0.00917872
0.00777288
0.00616629
0.00524353
0.00356903
0.00332337
0.00105698
0.00201734
-0.0292242
-0.0155137
-0.00413948
0.00488844
0.0116531
0.016323
0.0191434
0.0204105
0.0204595
0.0196114
0.0181878
0.0164154
0.0145407
0.0126184
0.0108679
0.00911389
0.00772409
0.00613283
0.00521571
0.00355481
0.003305
0.00105847
0.0019977
-0.0176315
-0.00599986
0.00328564
0.0102997
0.0152031
0.0182354
0.0196885
0.0198956
0.0191782
0.0178595
0.0161698
0.0143583
0.0124843
0.0107689
0.00904227
0.00767015
0.00609586
0.00518494
0.00353907
0.00328395
0.00106
0.00197602
-0.0198879
-0.00798727
0.00156899
0.00884636
0.0139976
0.0172554
0.0189073
0.0192842
0.0187075
0.0175022
0.015902
0.0141592
0.0123378
0.0106607
0.00896399
0.00761116
0.00605543
0.00515126
0.00352183
0.00326124
0.00106218
0.00195235
-0.0222674
-0.0100889
-0.0002513
0.00730113
0.0127123
0.0162078
0.01807
0.0186272
0.0182006
0.0171167
0.0156126
0.0139438
0.0121792
0.0105435
0.00887917
0.00754721
0.00601159
0.00511471
0.00350313
0.0032369
0.00106412
0.00192675
-0.0247555
-0.0122929
-0.00216565
0.00567148
0.011353
0.0150967
0.0171795
0.0179266
0.0176588
0.0167038
0.0153022
0.0137124
0.0120087
0.0104175
0.00878792
0.00747837
0.00596442
0.00507535
0.00348299
0.00321073
0.00106644
0.00189929
-0.0273365
-0.0145857
-0.00416281
0.0039666
0.00992702
0.0139279
0.0162403
0.0171858
0.0170846
0.0162653
0.014972
0.013466
0.011827
0.010283
0.00869057
0.00740487
0.00591404
0.00503324
0.00346146
0.00318269
0.00106918
0.00186993
-0.0299852
-0.0169454
-0.00622375
0.00220263
0.00844776
0.0127124
0.0152611
0.0164116
0.0164831
0.0158051
0.0146248
0.0132065
0.0116354
0.010141
0.00858771
0.00732707
0.00586071
0.00498855
0.00343862
0.00315287
0.00107217
0.00183884
-0.0326806
-0.0193546
-0.00833479
0.00038979
0.00692235
0.0114545
0.0142441
0.0156046
0.0158539
0.0153221
0.0142594
0.0129328
0.011433
0.00999085
0.00847886
0.00724469
0.00580418
0.00494119
0.0034143
0.00312135
0.00107521
0.00180607
-0.0354923
-0.0218801
-0.0105588
-0.00153037
0.00529702
0.0101054
0.0131455
0.0147265
0.0151645
0.0147898
0.0138551
0.0126293
0.0112086
0.00982491
0.0083589
0.00715466
0.00574241
0.00489028
0.00338767
0.00308822
0.0010778
0.0017718
0.0119119
0.0137363
0.0143844
0.0141861
0.0133963
0.0122857
0.0109556
0.00963906
0.00822559
0.00705568
0.00567503
0.00483545
0.00335911
0.00305317
0.00108074
0.00173571
0.015379
0.0132336
0.0113213
0.00944165
0.00797052
0.00630178
0.00535598
0.00362661
0.00339902
0.00105018
0.00209724
)
;

boundaryField
{
    inlet
    {
        type            zeroGradient;
    }
    outlet
    {
        type            fixedValue;
        value           uniform 0;
    }
    cylinder
    {
        type            zeroGradient;
    }
    top
    {
        type            symmetryPlane;
    }
    bottom
    {
        type            symmetryPlane;
    }
    defaultFaces
    {
        type            empty;
    }
    procBoundary23to17
    {
        type            processor;
        value           nonuniform List<scalar> 
24
(
-0.0174947
-0.00509709
0.00494185
0.012654
0.0181619
0.0216688
0.0234469
0.023809
0.0230965
0.0216256
0.0197064
0.0175476
0.0153601
0.0132197
0.0113111
0.00943427
0.00796498
0.00629798
0.00535283
0.003625
0.00339691
0.00105037
0.00209499
0.0175476
)
;
    }
    procBoundary23to22
    {
        type            processor;
        value           nonuniform List<scalar> 
16
(
-0.0321885
-0.0325027
-0.0331273
-0.0340546
-0.0352736
-0.0367702
-0.0385275
-0.0405265
-0.0427466
-0.045166
-0.0315902
-0.0315902
-0.0341044
-0.0367479
-0.0395037
-0.0423536
)
;
    }
    procBoundary23to28
    {
        type            processor;
        value           nonuniform List<scalar> 3(-0.0452696 -0.0482268 -0.051296);
    }
    procBoundary23to29
    {
        type            processor;
        value           nonuniform List<scalar> 
23
(
-0.0385715
-0.0246572
-0.0130141
-0.00365861
0.00348805
0.00859718
0.00859718
0.0108701
0.0129246
0.013765
0.0137206
0.0130511
0.01203
0.0107681
0.0094984
0.00812376
0.00697497
0.00562124
0.00478497
0.00333739
0.00301517
0.00109044
0.00169575
)
;
    }
}


// ************************************************************************* //
