0.206637 	0.462342 	-5.92714e-19 	1.06593 	-0.0187932 	-3.88679e-15
0.208871 	0.46734 	-4.25446e-19 	1.06902 	-0.0190959 	-6.77098e-15
0.211105 	0.472338 	-1.40297e-18 	1.06929 	-0.0192878 	-1.69964e-15
0.213339 	0.477336 	-2.13964e-18 	1.05705 	-0.0190255 	-3.22398e-16
0.215573 	0.482335 	-1.11427e-18 	1.0072 	-0.0174812 	-1.45965e-15
0.217807 	0.487333 	-3.44968e-19 	0.872668 	-0.0132587 	1.64079e-15
0.220041 	0.492331 	-6.13224e-19 	0.599852 	-0.00573552 	1.19792e-15
0.222275 	0.49733 	-9.29308e-19 	0.2024 	-0.000267125 	2.65704e-16
