/*--------------------------------*- C++ -*----------------------------------*\
  =========                 |
  \\      /  F ield         | OpenFOAM: The Open Source CFD Toolbox
   \\    /   O peration     | Website:  https://openfoam.org
    \\  /    A nd           | Version:  7
     \\/     M anipulation  |
\*---------------------------------------------------------------------------*/
FoamFile
{
    version     2.0;
    format      ascii;
    class       volVectorField;
    location    "1";
    object      U;
}
// * * * * * * * * * * * * * * * * * * * * * * * * * * * * * * * * * * * * * //

dimensions      [0 1 -1 0 0 0 0];

internalField   nonuniform List<vector> 
346
(
(1.03703 -0.000118225 8.09328e-15)
(1.03687 -9.59342e-05 4.99372e-15)
(1.03674 -7.8467e-05 7.09959e-15)
(1.03664 -6.46103e-05 5.0544e-15)
(1.03655 -5.34924e-05 6.51965e-15)
(1.03648 -4.44831e-05 5.76897e-15)
(0.999997 -0.00794449 -5.6765e-16)
(1.00638 -0.0186192 8.25114e-16)
(1.01486 -0.0233866 -7.13694e-16)
(1.02275 -0.0253868 7.38389e-16)
(1.0293 -0.027153 3.65904e-16)
(1.03481 -0.0288634 1.70233e-15)
(1.04003 -0.0300732 7.77944e-17)
(1.04545 -0.0305571 2.29483e-15)
(1.05077 -0.0301179 -4.4558e-16)
(1.05545 -0.0288779 2.66653e-15)
(1.05942 -0.0270335 2.19076e-16)
(1.06265 -0.0247244 2.51195e-15)
(1.065 -0.0222321 -5.40922e-17)
(1.06637 -0.0198661 3.36053e-15)
(1.06687 -0.0176891 3.27084e-16)
(1.0667 -0.0156887 2.40735e-15)
(1.06612 -0.0139755 1.27759e-15)
(1.06536 -0.012598 3.32504e-15)
(1.06447 -0.0114456 8.51849e-16)
(1.06342 -0.0103943 3.91553e-15)
(1.06224 -0.00942095 1.35317e-15)
(1.06105 -0.00854956 3.96951e-15)
(1.05987 -0.00776137 2.27587e-15)
(1.05861 -0.00699689 4.30164e-15)
(1.05724 -0.0062243 2.661e-15)
(1.05585 -0.00547534 4.91264e-15)
(1.05455 -0.0048058 3.28747e-15)
(1.05335 -0.00423016 5.79125e-15)
(1.05213 -0.00370286 3.52551e-15)
(1.0508 -0.00316436 4.64689e-15)
(1.04938 -0.00260283 3.94671e-15)
(1.04803 -0.00207038 5.44695e-15)
(1.04688 -0.00164419 4.27041e-15)
(1.04594 -0.00137284 6.314e-15)
(1.04506 -0.00124109 4.52214e-15)
(1.0441 -0.00117961 5.31644e-15)
(1.04299 -0.00111259 5.04424e-15)
(1.04181 -0.00100331 6.0603e-15)
(1.04073 -0.000868597 5.33623e-15)
(1.03992 -0.000762516 7.1022e-15)
(1.03941 -0.000741621 6.2442e-15)
(1.03912 -0.000832254 5.8517e-15)
(1.03884 -0.0010174 6.90469e-15)
(1.03833 -0.00124653 6.18231e-15)
(1.03742 -0.00145782 6.88619e-15)
(1.03603 -0.00160063 6.39273e-15)
(1.03421 -0.0016486 7.59899e-15)
(1.03207 -0.00160098 6.54058e-15)
(1.02981 -0.00147583 8.25899e-15)
(1.02756 -0.00130032 7.20482e-15)
(1.02547 -0.00110224 8.97604e-15)
(1.02362 -0.000904547 6.92397e-15)
(1.02204 -0.000723049 9.50562e-15)
(1.02074 -0.000566407 6.88942e-15)
(1.01969 -0.000437495 1.03507e-14)
(1.01886 -0.00033523 7.52596e-15)
(1.01822 -0.000256304 1.06302e-14)
(1.01771 -0.000196542 5.32416e-15)
(1.01732 -0.00015179 1.07545e-14)
(1.01702 -0.000118398 6.00311e-15)
(1.01678 -9.34059e-05 1.1684e-14)
(1.01659 -7.45406e-05 6.87324e-15)
(1.01644 -6.01243e-05 1.2375e-14)
(1.01632 -4.89508e-05 6.51175e-15)
(1.01622 -4.01645e-05 1.19693e-14)
(1.01614 -3.31622e-05 6.33947e-15)
(1.01607 -2.75161e-05 1.19813e-14)
(1.01601 -2.29189e-05 6.89135e-15)
(0.999992 -0.0100891 1.87505e-16)
(1.0087 -0.0214675 -2.08576e-16)
(1.01883 -0.025584 3.63827e-16)
(1.02721 -0.0270702 4.80302e-16)
(1.03351 -0.029016 2.37302e-16)
(1.03861 -0.0308185 4.31963e-16)
(1.04331 -0.0319775 8.69542e-17)
(1.04778 -0.032256 2.85047e-16)
(1.05156 -0.0315079 -1.05802e-16)
(1.05418 -0.0299551 3.02107e-16)
(1.05567 -0.0278283 -7.53446e-17)
(1.05603 -0.0252268 2.24944e-16)
(1.05514 -0.0224176 -5.4513e-17)
(1.05306 -0.0197554 2.83656e-16)
(1.05005 -0.0173511 1.93514e-17)
(1.0464 -0.0152012 1.98111e-16)
(1.04242 -0.013401 2.5355e-16)
(1.03832 -0.0119563 2.23674e-16)
(1.03416 -0.0107324 -5.9528e-16)
(1.02996 -0.00961466 3.74332e-16)
(1.02578 -0.00860779 -4.91112e-16)
(1.02176 -0.00773388 -2.19326e-16)
(1.01789 -0.006941 -1.30566e-16)
(1.01413 -0.00615938 -3.35787e-16)
(1.01049 -0.00538506 1.91121e-16)
(1.00706 -0.00466974 -1.7477e-16)
(1.00389 -0.00405105 7.57912e-16)
(1.00097 -0.00350851 -8.5165e-17)
(0.998216 -0.00298608 1.11011e-15)
(0.995609 -0.00245239 3.62929e-17)
(0.993211 -0.00193059 1.28361e-15)
(0.991107 -0.00147787 1.94052e-16)
(0.989317 -0.00114514 1.68726e-15)
(0.987758 -0.000935412 2.14945e-16)
(0.986308 -0.000810775 2.17696e-15)
(0.984886 -0.000722959 1.2389e-15)
(0.98351 -0.000640937 2.36933e-15)
(0.982269 -0.000565239 1.12281e-15)
(0.981259 -0.000516748 2.80906e-15)
(0.980507 -0.00051725 1.55785e-15)
(0.979938 -0.00057592 3.55865e-15)
(0.979397 -0.000680354 2.41264e-15)
(0.978703 -0.000800358 3.61367e-15)
(0.97772 -0.000901749 2.18986e-15)
(0.976394 -0.000958479 3.47192e-15)
(0.97476 -0.000958937 2.32362e-15)
(0.97292 -0.000906305 4.10861e-15)
(0.971006 -0.000814027 2.89915e-15)
(0.969143 -0.000699373 4.37937e-15)
(0.967429 -0.000578447 2.9898e-15)
(0.965925 -0.000463419 4.76742e-15)
(0.964656 -0.000361735 2.86217e-15)
(0.963618 -0.000276722 5.34466e-15)
(0.962791 -0.000208707 2.63365e-15)
(0.962143 -0.000156162 6.13314e-15)
(0.961641 -0.000116659 2.5873e-15)
(0.961256 -8.75361e-05 6.44962e-15)
(0.960959 -6.63119e-05 2.8773e-15)
(0.96073 -5.08963e-05 6.31215e-15)
(0.960551 -3.96494e-05 3.17181e-15)
(0.960411 -3.13508e-05 6.60663e-15)
(0.960299 -2.51272e-05 3.62148e-15)
(0.96021 -2.03712e-05 6.55111e-15)
(0.960137 -1.66673e-05 3.26255e-15)
(0.960077 -1.37323e-05 6.20813e-15)
(0.960028 -1.13728e-05 3.12929e-15)
(0.959987 -9.45411e-06 6.17544e-15)
(0.959953 -7.8799e-06 3.86953e-15)
(1.00005 -0.012372 -1.81391e-16)
(1.01189 -0.0232018 4.07931e-16)
(1.02312 -0.0257064 -4.28903e-16)
(1.03025 -0.0272122 -4.01018e-16)
(1.03363 -0.0295027 -1.8529e-16)
(1.03473 -0.0313013 -2.72373e-16)
(1.0342 -0.0322659 -2.17372e-16)
(1.03192 -0.0322374 -1.84456e-16)
(1.0277 -0.0311191 -1.90224e-16)
(1.02157 -0.0291651 -1.18772e-16)
(1.01382 -0.0266231 -1.22651e-16)
(1.0047 -0.0236085 -1.37995e-16)
(0.994483 -0.0204131 8.56839e-17)
(0.983513 -0.0174736 -1.26556e-16)
(0.972194 -0.014939 8.90307e-17)
(0.96089 -0.0127743 -1.32055e-16)
(0.949828 -0.0109704 1.62057e-16)
(0.939179 -0.00953655 -1.7834e-16)
(0.929036 -0.00836199 1.37701e-16)
(0.919448 -0.00733623 -3.60212e-16)
(0.910464 -0.00644246 1.76502e-16)
(0.90212 -0.00567479 -4.69019e-16)
(0.894413 -0.00497986 2.53031e-17)
(0.887328 -0.00430756 -7.8397e-16)
(0.880887 -0.00366157 3.78941e-17)
(0.875112 -0.00308026 -7.97998e-16)
(0.869989 -0.00258179 5.27351e-17)
(0.865467 -0.00214511 -1.02679e-15)
(0.861508 -0.00173479 1.07084e-16)
(0.858102 -0.00133631 -1.07913e-15)
(0.855242 -0.000962439 3.87019e-17)
(0.852887 -0.000641928 -9.78547e-16)
(0.850954 -0.000404889 8.35953e-17)
(0.849344 -0.000254081 -9.16245e-16)
(0.847974 -0.000176934 1.07071e-16)
(0.846806 -0.00015236 -6.43184e-16)
(0.845829 -0.000163141 2.45045e-16)
(0.845033 -0.000196768 -3.83961e-16)
(0.844374 -0.000244343 7.08763e-16)
(0.843775 -0.000298502 -7.75014e-17)
(0.843137 -0.000349952 7.4721e-16)
(0.842374 -0.000389865 8.55989e-17)
(0.84144 -0.000411728 9.31593e-16)
(0.840338 -0.000411073 2.28497e-16)
(0.839116 -0.000388089 1.24718e-15)
(0.837846 -0.000347879 7.22317e-16)
(0.836607 -0.000297744 1.68839e-15)
(0.83546 -0.000244473 1.05642e-15)
(0.83445 -0.000193442 1.66925e-15)
(0.833594 -0.000148147 1.33346e-15)
(0.832894 -0.000110275 1.87044e-15)
(0.832337 -8.00792e-05 1.52863e-15)
(0.831904 -5.69409e-05 1.945e-15)
(0.831572 -3.98179e-05 1.60294e-15)
(0.83132 -2.75588e-05 2.20812e-15)
(0.831129 -1.90034e-05 1.5337e-15)
(0.830985 -1.31496e-05 2.0799e-15)
(0.830875 -9.20798e-06 1.42348e-15)
(0.83079 -6.5744e-06 2.34271e-15)
(0.830723 -4.81019e-06 1.8283e-15)
(0.830671 -3.61186e-06 2.52883e-15)
(0.830628 -2.77761e-06 1.95263e-15)
(0.830594 -2.17786e-06 2.31958e-15)
(0.830566 -1.73179e-06 1.92768e-15)
(0.830543 -1.3893e-06 2.19261e-15)
(0.830523 -1.11969e-06 2.2228e-15)
(0.830507 -9.03821e-07 2.36553e-15)
(0.830494 -7.28932e-07 2.84747e-15)
(1.00025 -0.0206475 4.88331e-16)
(1.01062 -0.0305995 -5.75279e-16)
(1.01326 -0.0299617 6.65223e-16)
(1.00606 -0.0305583 2.25752e-16)
(0.991542 -0.0315532 5.26859e-16)
(0.972307 -0.0317848 1.59229e-16)
(0.949514 -0.0311835 3.69002e-16)
(0.923838 -0.0298192 2.02051e-16)
(0.896192 -0.0276631 2.23854e-16)
(0.867549 -0.0248528 1.82848e-16)
(0.838813 -0.0215711 2.04553e-16)
(0.810863 -0.0180206 4.95483e-17)
(0.784472 -0.014541 2.55137e-16)
(0.759934 -0.011495 -1.9781e-16)
(0.737394 -0.00897168 3.74188e-16)
(0.716986 -0.00691186 -4.39566e-16)
(0.698698 -0.00528221 2.7511e-16)
(0.682426 -0.00408349 -5.99516e-16)
(0.668021 -0.00320145 -1.02491e-15)
(0.65534 -0.00252125 -5.447e-16)
(0.644257 -0.00201006 -9.88853e-16)
(0.63462 -0.00163629 -1.96901e-15)
(0.626262 -0.00133078 -9.0259e-16)
(0.619081 -0.00104797 -1.8204e-15)
(0.613022 -0.000795946 -8.72507e-16)
(0.608016 -0.000601165 -1.8691e-15)
(0.603928 -0.000469399 -7.81498e-16)
(0.6006 -0.000371621 -1.92119e-15)
(0.597918 -0.000273648 -5.5022e-16)
(0.595827 -0.000163917 -1.95072e-15)
(0.594287 -5.64508e-05 -2.63481e-16)
(0.59323 2.63435e-05 -1.9523e-15)
(0.592554 7.60868e-05 -1.07164e-17)
(0.592139 8.29895e-05 -2.00304e-15)
(0.591863 5.72629e-05 5.01091e-16)
(0.591636 1.80533e-05 -6.97459e-16)
(0.591397 -1.89398e-05 5.69064e-16)
(0.59111 -4.60172e-05 -7.38555e-16)
(0.590759 -6.18566e-05 7.33719e-16)
(0.590341 -6.98492e-05 -8.59878e-16)
(0.589859 -7.3242e-05 1.15034e-15)
(0.589325 -7.40789e-05 4.36563e-16)
(0.588761 -7.30601e-05 1.06634e-15)
(0.58819 -7.05341e-05 4.06374e-16)
(0.58764 -6.6011e-05 1.13456e-15)
(0.587134 -5.92703e-05 4.07433e-16)
(0.586689 -5.08831e-05 1.13622e-15)
(0.586314 -4.16e-05 5.93897e-16)
(0.58601 -3.2306e-05 1.16047e-15)
(0.58577 -2.3737e-05 6.77904e-16)
(0.585588 -1.6355e-05 1.21582e-15)
(0.585453 -1.03793e-05 6.76283e-16)
(0.585354 -5.82339e-06 1.22619e-15)
(0.585283 -2.55752e-06 5.38165e-16)
(0.585233 -3.4093e-07 1.21215e-15)
(0.585198 1.05037e-06 3.36989e-16)
(0.585173 1.79892e-06 1.5877e-15)
(0.585155 2.11319e-06 1.41124e-15)
(0.585142 2.15686e-06 1.51567e-15)
(0.585133 2.04749e-06 1.17677e-15)
(0.585125 1.86364e-06 1.49609e-15)
(0.58512 1.65404e-06 1.06206e-15)
(0.585115 1.44642e-06 1.52513e-15)
(0.585112 1.25448e-06 7.81344e-16)
(0.585109 1.08371e-06 1.67639e-15)
(0.585106 9.34915e-07 7.86745e-16)
(0.585104 8.06517e-07 1.91725e-15)
(0.585103 6.96249e-07 5.91108e-16)
(0.960131 -0.0138642 1.38854e-16)
(0.906203 -0.0190671 -1.89246e-16)
(0.841518 -0.0175333 2.69282e-16)
(0.770057 -0.0171779 -2.54127e-16)
(0.697861 -0.0167855 3.00424e-16)
(0.627447 -0.0158147 -4.45041e-16)
(0.560132 -0.0143132 5.96175e-16)
(0.497218 -0.012492 -8.5841e-16)
(0.440049 -0.0103619 -6.73689e-16)
(0.389934 -0.00797758 -3.78945e-16)
(0.347866 -0.00554854 -5.60978e-16)
(0.314177 -0.00334067 -6.72806e-17)
(0.288396 -0.00157181 -5.9023e-16)
(0.26922 -0.000353955 3.99922e-16)
(0.255224 0.00039759 -1.35405e-15)
(0.245215 0.000823626 -1.47441e-15)
(0.238149 0.000985972 4.81088e-17)
(0.233116 0.000977268 -1.81872e-15)
(0.229438 0.000885631 -1.81919e-15)
(0.226675 0.000758378 -3.60037e-16)
(0.224534 0.000618419 -1.94488e-15)
(0.222806 0.000482498 -2.27064e-15)
(0.221357 0.000358405 -2.83745e-16)
(0.22014 0.000244803 -2.75846e-15)
(0.219128 0.000145147 -1.64252e-15)
(0.218287 6.39376e-05 -1.54321e-15)
(0.217564 3.38551e-06 -8.29788e-16)
(0.216928 -3.17909e-05 -1.06488e-15)
(0.216395 -4.5268e-05 -4.7212e-16)
(0.216003 -4.45515e-05 -8.61649e-16)
(0.215776 -3.67777e-05 -1.97827e-16)
(0.215707 -2.77406e-05 -6.93074e-16)
(0.21575 -1.34582e-05 -7.64028e-17)
(0.215845 -2.2147e-06 -6.47837e-16)
(0.215941 7.62243e-06 -1.21921e-16)
(0.216006 1.46129e-05 -3.97367e-16)
(0.216027 1.85639e-05 1.05542e-16)
(0.216009 1.89989e-05 -2.71186e-16)
(0.21596 1.66478e-05 2.41652e-16)
(0.215892 1.25268e-05 -1.93093e-16)
(0.215809 6.97547e-06 2.60489e-16)
(0.215714 1.09578e-06 -4.52076e-17)
(0.215609 -3.56195e-06 4.62462e-16)
(0.215498 -7.07494e-06 -1.9513e-16)
(0.215387 -9.16712e-06 8.47437e-16)
(0.215281 -9.52934e-06 -7.29242e-16)
(0.215186 -8.49289e-06 1.90938e-15)
(0.215106 -6.72189e-06 1.11405e-15)
(0.215043 -4.76543e-06 9.34729e-16)
(0.214996 -2.97472e-06 5.97143e-16)
(0.214963 -1.51641e-06 6.2526e-16)
(0.214942 -4.28089e-07 3.41285e-16)
(0.21493 3.205e-07 5.0038e-16)
(0.214925 7.86999e-07 2.16283e-16)
(0.214924 1.07597e-06 3.99076e-16)
(0.214926 1.21312e-06 2.09446e-16)
(0.21493 1.21634e-06 2.43547e-16)
(0.214934 1.14528e-06 3.96024e-16)
(0.214939 1.03737e-06 3.26116e-16)
(0.214943 9.1633e-07 3.23652e-16)
(0.214947 7.96382e-07 4.42022e-16)
(0.21495 6.8522e-07 3.40718e-16)
(0.214953 5.86281e-07 4.55538e-16)
(0.214956 5.00337e-07 2.86205e-16)
(0.214958 4.26813e-07 5.62023e-16)
(0.21496 3.6443e-07 2.24848e-16)
(0.214962 3.1169e-07 5.99209e-16)
(0.214964 2.67272e-07 1.67649e-16)
)
;

boundaryField
{
    inlet
    {
        type            uniformFixedValue;
        uniformValue    constant (1 0 0);
        value           uniform (1 0 0);
    }
    outlet
    {
        type            pressureInletOutletVelocity;
        value           nonuniform 0();
    }
    wall
    {
        type            fixedValue;
        value           uniform (0 0 0);
    }
    wedge1
    {
        type            wedge;
    }
    wedge2
    {
        type            wedge;
    }
    axis
    {
        type            empty;
    }
    procBoundary42to36
    {
        type            processor;
        value           nonuniform List<vector> 
69
(
(1.04352 -0.000187265 7.83908e-15)
(1.04335 -0.00015179 5.50779e-15)
(1.0432 -0.000123989 6.72955e-15)
(1.04309 -0.000101958 5.56669e-15)
(1.04299 -8.43128e-05 5.95682e-15)
(1.04291 -7.0043e-05 6.37818e-15)
(0.999998 -0.0063833 -1.28747e-15)
(1.0048 -0.0162195 1.50349e-15)
(1.01186 -0.0213725 -1.55919e-15)
(1.01907 -0.0239143 1.55955e-15)
(1.02546 -0.0256317 -1.52022e-15)
(1.03094 -0.0271945 2.04503e-15)
(1.036 -0.0283432 -7.05405e-16)
(1.04119 -0.0288934 1.72675e-15)
(1.04643 -0.028643 -8.83339e-16)
(1.05129 -0.0276398 2.31817e-15)
(1.05563 -0.0260164 -6.94255e-16)
(1.05939 -0.0239172 2.28422e-15)
(1.06244 -0.0216508 3.63477e-16)
(1.06473 -0.0195182 2.00194e-15)
(1.06632 -0.0175415 4.33867e-16)
(1.06733 -0.0156691 2.90632e-15)
(1.06795 -0.0140183 4.90886e-16)
(1.06838 -0.0126868 3.05257e-15)
(1.06869 -0.0115893 1.43581e-15)
(1.06888 -0.0105879 2.60607e-15)
(1.06896 -0.00963646 1.45499e-15)
(1.06902 -0.00876702 3.63018e-15)
(1.06905 -0.00799411 1.87728e-15)
(1.06894 -0.00726661 3.40816e-15)
(1.06868 -0.00652163 2.6798e-15)
(1.06833 -0.00576364 3.18892e-15)
(1.06802 -0.00506384 3.06317e-15)
(1.06778 -0.00447965 3.22968e-15)
(1.06746 -0.00398793 3.4117e-15)
(1.06695 -0.00350478 3.17216e-15)
(1.06624 -0.00296811 3.37409e-15)
(1.06546 -0.00240323 3.23097e-15)
(1.0648 -0.00191153 3.46356e-15)
(1.06431 -0.00159297 3.36382e-15)
(1.06391 -0.00146953 3.89027e-15)
(1.06342 -0.00146869 3.48754e-15)
(1.06272 -0.00147206 3.95604e-15)
(1.06182 -0.00138989 3.74165e-15)
(1.06089 -0.00121199 3.83409e-15)
(1.06012 -0.00100615 4.04511e-15)
(1.05966 -0.00087421 4.88788e-15)
(1.05949 -0.000896673 4.2319e-15)
(1.05945 -0.00109459 5.02314e-15)
(1.05931 -0.0014236 4.03904e-15)
(1.05883 -0.00179752 4.79092e-15)
(1.05787 -0.0021243 3.90365e-15)
(1.05639 -0.00233553 5.13355e-15)
(1.05449 -0.00240047 3.78933e-15)
(1.0523 -0.00232439 5.27684e-15)
(1.05001 -0.00213737 4.34554e-15)
(1.04778 -0.00188047 5.92561e-15)
(1.04573 -0.00159403 3.78675e-15)
(1.04392 -0.00131049 6.26323e-15)
(1.04239 -0.00105158 3.61008e-15)
(1.04113 -0.000828761 6.97177e-15)
(1.04011 -0.0006454 4.12802e-15)
(1.0393 -0.000499523 7.59365e-15)
(1.03867 -0.000386268 3.63841e-15)
(1.03817 -0.000299746 7.10875e-15)
(1.03778 -0.000234207 4.30296e-15)
(1.03747 -0.000184648 7.48465e-15)
(1.03722 -0.000147025 5.20979e-15)
(1.03722 -0.000147025 5.20979e-15)
)
;
    }
    procBoundary42to37
    {
        type            processor;
        value           uniform (1.03642 -3.71212e-05 6.71657e-15);
    }
    procBoundary42to43
    {
        type            processor;
        value           nonuniform List<vector> 5((1.01597 -1.91466e-05 1.27587e-14) (0.959925 -6.57992e-06 6.3744e-15) (0.830483 -5.86435e-07 1.96448e-15) (0.585102 6.01887e-07 2.13686e-15) (0.214965 2.30112e-07 6.86996e-16));
    }
}


// ************************************************************************* //
