/*--------------------------------*- C++ -*----------------------------------*\
  =========                 |
  \\      /  F ield         | OpenFOAM: The Open Source CFD Toolbox
   \\    /   O peration     | Website:  https://openfoam.org
    \\  /    A nd           | Version:  7
     \\/     M anipulation  |
\*---------------------------------------------------------------------------*/
FoamFile
{
    version     2.0;
    format      ascii;
    class       volScalarField;
    location    "0.6";
    object      p;
}
// * * * * * * * * * * * * * * * * * * * * * * * * * * * * * * * * * * * * * //

dimensions      [0 2 -2 0 0 0 0];

internalField   nonuniform List<scalar> 
344
(
1.18611
1.17759
1.16902
1.16042
1.15178
1.14311
1.13442
1.12571
1.11698
1.10823
1.09947
1.0907
1.08192
1.07312
1.06433
1.05552
1.04671
1.03789
1.02908
1.02025
1.01143
1.0026
0.993777
0.984948
0.976118
0.967287
0.958456
0.949624
0.940791
0.931958
0.923125
0.914292
0.905458
0.896625
0.887791
0.878957
0.870124
0.86129
0.852456
0.843622
0.834788
0.825954
0.817121
0.808287
0.799453
0.790619
0.781785
0.772951
0.764118
0.755284
0.74645
0.737616
0.728782
0.719949
0.711115
0.702281
0.693447
0.684614
0.67578
0.666946
0.658112
0.649279
0.640445
0.631611
0.622777
0.613944
0.60511
1.18613
1.1776
1.16904
1.16043
1.15179
1.14313
1.13443
1.12572
1.11699
1.10824
1.09948
1.0907
1.08192
1.07313
1.06433
1.05552
1.04671
1.0379
1.02908
1.02026
1.01143
1.00261
0.993778
0.984949
0.976119
0.967288
0.958456
0.949624
0.940791
0.931959
0.923125
0.914292
0.905459
0.896625
0.887791
0.878957
0.870124
0.86129
0.852456
0.843622
0.834788
0.825954
0.817121
0.808287
0.799453
0.790619
0.781785
0.772951
0.764118
0.755284
0.74645
0.737616
0.728782
0.719949
0.711115
0.702281
0.693447
0.684614
0.67578
0.666946
0.658112
0.649279
0.640445
0.631611
0.622777
0.613944
0.60511
1.18617
1.17764
1.16907
1.16046
1.15182
1.14315
1.13446
1.12574
1.11701
1.10825
1.09949
1.09072
1.08193
1.07314
1.06433
1.05553
1.04672
1.0379
1.02908
1.02026
1.01143
1.00261
0.993779
0.98495
0.976119
0.967288
0.958457
0.949624
0.940792
0.931959
0.923126
0.914292
0.905459
0.896625
0.887791
0.878957
0.870124
0.86129
0.852456
0.843622
0.834788
0.825954
0.81712
0.808287
0.799453
0.790619
0.781785
0.772951
0.764118
0.755284
0.74645
0.737616
0.728782
0.719949
0.711115
0.702281
0.693447
0.684614
0.67578
0.666946
0.658112
0.649279
0.640445
0.631611
0.622777
0.613944
0.60511
1.18622
1.17769
1.16912
1.16051
1.15186
1.14319
1.13449
1.12577
1.11703
1.10828
1.09951
1.09073
1.08194
1.07315
1.06434
1.05554
1.04672
1.0379
1.02908
1.02026
1.01144
1.00261
0.993781
0.984951
0.976121
0.967289
0.958457
0.949625
0.940792
0.931959
0.923126
0.914292
0.905459
0.896625
0.887791
0.878958
0.870124
0.86129
0.852456
0.843622
0.834788
0.825954
0.81712
0.808287
0.799453
0.790619
0.781785
0.772951
0.764118
0.755284
0.74645
0.737616
0.728782
0.719949
0.711115
0.702281
0.693447
0.684614
0.67578
0.666946
0.658112
0.649279
0.640445
0.631611
0.622777
0.613944
0.60511
1.1863
1.17777
1.16919
1.16057
1.15191
1.14323
1.13453
1.1258
1.11706
1.1083
1.09953
1.09075
1.08196
1.07316
1.06436
1.05555
1.04673
1.03791
1.02909
1.02027
1.01144
1.00261
0.993783
0.984953
0.976122
0.967291
0.958459
0.949626
0.940793
0.93196
0.923126
0.914293
0.905459
0.896625
0.887791
0.878958
0.870124
0.86129
0.852456
0.843622
0.834788
0.825954
0.81712
0.808287
0.799453
0.790619
0.781785
0.772951
0.764117
0.755284
0.74645
0.737616
0.728782
0.719949
0.711115
0.702281
0.693447
0.684614
0.67578
0.666946
0.658112
0.649279
0.640445
0.631611
0.622777
0.613944
0.60511
1.1864
1.17786
1.16927
1.16064
1.15198
1.14329
1.13458
1.12585
1.1171
)
;

boundaryField
{
    inlet
    {
        type            zeroGradient;
    }
    outlet
    {
        type            fixedValue;
        value           nonuniform 0();
    }
    wall
    {
        type            zeroGradient;
    }
    wedge1
    {
        type            wedge;
    }
    wedge2
    {
        type            wedge;
    }
    axis
    {
        type            empty;
    }
    procBoundary4to3
    {
        type            processor;
        value           nonuniform List<scalar> 4(1.19458 1.19461 1.19464 1.1947);
    }
    procBoundary4to5
    {
        type            processor;
        value           nonuniform List<scalar> 5(0.596276 0.596276 0.596276 0.596276 0.596276);
    }
    procBoundary4to9
    {
        type            processor;
        value           nonuniform List<scalar> 2(1.19478 1.19489);
    }
    procBoundary4to10
    {
        type            processor;
        value           nonuniform List<scalar> 
68
(
1.10834
1.09956
1.09078
1.08198
1.07318
1.06437
1.05556
1.04674
1.03792
1.0291
1.02027
1.01144
1.00262
0.993787
0.984956
0.976124
0.967292
0.95846
0.949627
0.940794
0.93196
0.923127
0.914293
0.905459
0.896625
0.887792
0.878958
0.870124
0.86129
0.852456
0.843622
0.834788
0.825954
0.81712
0.808287
0.799453
0.790619
0.781785
0.772951
0.764117
0.755284
0.74645
0.737616
0.728782
0.719949
0.711115
0.702281
0.693447
0.684614
0.67578
0.666946
0.658112
0.649279
0.640445
0.631611
0.622777
0.613944
0.60511
1.18652
1.17797
1.16937
1.16073
1.15206
1.14337
1.13464
1.1259
1.10834
1.11715
)
;
    }
}


// ************************************************************************* //
