/*--------------------------------*- C++ -*----------------------------------*\
  =========                 |
  \\      /  F ield         | OpenFOAM: The Open Source CFD Toolbox
   \\    /   O peration     | Website:  https://openfoam.org
    \\  /    A nd           | Version:  7
     \\/     M anipulation  |
\*---------------------------------------------------------------------------*/
FoamFile
{
    version     2.0;
    format      ascii;
    class       surfaceScalarField;
    location    "108.000116";
    object      phi;
}
// * * * * * * * * * * * * * * * * * * * * * * * * * * * * * * * * * * * * * //

dimensions      [0 3 -1 0 0 0 0];

internalField   nonuniform List<scalar> 
11438
(
-0.00163832
-0.00109615
-0.00155366
-0.0012415
-0.00146761
-0.0013
-0.00139932
-0.00127187
-0.00116036
-0.00109139
-0.000842383
-0.00108271
-0.000787926
-0.00106816
-0.000713124
-0.00104675
-0.000614862
-0.00101765
-0.000490482
-0.000980052
-0.000337877
-0.000933233
-0.000155525
-0.000877577
5.67916e-05
-0.000813121
0.000299822
-0.000740343
0.000572063
-0.000660129
0.000871002
-0.00057373
0.00119296
-0.000483024
0.00153306
-0.000390545
0.00188525
-0.00029899
0.00224305
-0.000211224
0.00259951
-0.000129241
0.00294767
-5.5031e-05
0.00327996
1.1655e-05
0.00358896
7.36642e-05
0.00386619
0.000136783
0.00409991
0.000209789
0.00427569
0.000302299
0.00437632
0.000423618
0.00438019
0.000579954
0.00426613
0.000772626
0.00401741
0.000997702
0.00362537
0.00124742
0.00309056
0.00151279
0.00242155
0.00178585
0.00163179
0.00206116
0.000737421
0.00233427
-0.000239788
0.00260304
-0.00127215
0.00286338
-0.00231802
0.00310897
-0.00331911
0.00333044
-0.00421026
0.00351747
-0.00493701
0.00366191
-0.0054724
0.00375969
-0.00582268
0.00381146
-0.00602023
0.00382136
-0.00610723
0.00379177
-0.00612425
0.00371672
-0.00612055
0.00358604
-0.00616709
0.00340394
-0.00631882
0.00320429
-0.00652932
0.00304209
-0.00660546
0.00296424
-0.00628331
0.00298779
-0.00537496
0.00310372
-0.00386407
0.00374814
0.00329162
-0.00188236
0.00169445
0.00352508
0.000335379
-0.000568831
0.003773
0.00252192
-0.00276985
0.00400484
0.00442116
-0.00465299
0.00419526
0.00588044
-0.00607086
0.00432619
0.00688189
-0.00701282
0.00439567
0.00750769
-0.00757718
0.0044167
0.0078517
-0.00787273
0.00439746
0.00794676
-0.00792752
0.00432145
0.0080372
-0.0079612
0.00417349
0.00825084
-0.00810288
0.00396821
0.00880494
-0.00859966
0.00375226
0.00893579
-0.00871984
0.00358055
0.0086048
-0.00843309
0.00347155
0.00668087
-0.00657187
0.00345598
0.00418163
-0.00416606
0.00351217
0.000744551
-0.000800735
0.00358179
-0.00229429
0.00222467
0.00369383
-0.00511413
0.00500209
-0.00689652
0.00684883
-0.00124405
-0.000839834
-0.00124246
-0.000789508
-0.00123512
-0.000720466
-0.00122081
-0.000629175
-0.00119847
-0.000512825
-0.00116709
-0.00036925
-0.00112571
-0.000196908
-0.00107404
5.12431e-06
-0.0010124
0.000238175
-0.00094079
0.000500457
-0.000859822
0.000790034
-0.000770556
0.00110369
-0.000674522
0.00143702
-0.000573781
0.00178451
-0.000470536
0.00213981
-0.000366889
0.00249586
-0.000264426
0.0028452
-0.000163849
0.00317938
-6.40426e-05
0.00348915
3.77594e-05
0.00376438
0.000148207
0.00398946
0.000273111
0.00415079
0.000419537
0.00422989
0.000592828
0.0042069
0.000795118
0.00406384
0.00102444
0.00378809
0.00127517
0.00337465
0.0015396
0.00282613
0.00180999
0.00215116
0.00207996
0.00136182
0.00234528
0.000472095
0.00260299
-0.000497497
0.0028518
-0.00152095
0.00308873
-0.00255495
0.0033081
-0.00353848
0.00350123
-0.00440338
0.00365885
-0.00509463
0.00377433
-0.00558788
0.00384524
-0.00589359
0.00387317
-0.00604816
0.00386288
-0.00609694
0.00381829
-0.00607966
0.00373499
-0.00603725
0.0036005
-0.00603261
0.00341159
-0.00612991
0.00319471
-0.00631244
0.00300461
-0.00641537
0.00289604
-0.00617474
0.00289501
-0.00537393
0.00299659
-0.00396566
0.00317982
-0.00206559
0.00341692
9.82809e-05
0.00367537
0.00226347
0.00392272
0.00417381
0.00413069
0.00567246
0.00427922
0.00673336
0.0043665
0.00742041
0.00440439
0.00781382
0.00439837
0.00795278
0.00433082
0.00810475
0.00419045
0.00839121
0.00399423
0.00900117
0.00378844
0.00914158
0.00362447
0.00876877
0.00351934
0.006786
0.00350511
0.00419586
0.0035643
0.000685354
0.00363594
-0.00236593
0.00374419
-0.00522238
-0.00694026
-0.00130728
-0.000832556
-0.00131054
-0.000786243
-0.00130845
-0.00072256
-0.00129964
-0.000637985
-0.00128289
-0.00052957
-0.00125703
-0.000395109
-0.00122096
-0.000232983
-0.00117301
-4.28215e-05
-0.00111462
0.000179784
-0.00104493
0.00043077
-0.000964098
0.000709198
-0.000872763
0.00101236
-0.000771945
0.00133621
-0.000663119
0.00167569
-0.000547917
0.00202461
-0.000427678
0.00237562
-0.000303569
0.00272109
-0.000175541
0.00305135
-4.29027e-05
0.00335651
9.98016e-05
0.00362168
0.000254487
0.00383477
0.000425512
0.00397977
0.000617272
0.00403813
0.0008318
0.00399237
0.0010682
0.00382745
0.00132252
0.00353377
0.00158856
0.0031086
0.00185925
0.00255544
0.00212802
0.00188239
0.00238969
0.00110015
0.00264091
0.000220881
0.00288
-0.00073659
0.0031064
-0.00174736
0.00331797
-0.00276651
0.00350946
-0.00372997
0.0036728
-0.00456672
0.00379987
-0.0052217
0.0038857
-0.00567371
0.0039296
-0.00593749
0.00393421
-0.00605277
0.00390453
-0.00606726
0.00384542
-0.00602054
0.00375437
-0.0059462
0.00361818
-0.00589642
0.00342695
-0.00593868
0.00319826
-0.00608375
0.00298383
-0.00620093
0.00284484
-0.00603575
0.00281736
-0.00534645
0.00290208
-0.00405037
0.00307832
-0.00224183
0.00331709
-0.00014049
0.00358396
0.0019966
0.0038448
0.00391297
0.0040687
0.00544856
0.00423405
0.00656801
0.00433907
0.00731539
0.00439386
0.00775903
0.00440119
0.00794545
0.00434287
0.00816307
0.00421148
0.00852259
0.00402577
0.00918688
0.00383106
0.00933629
0.00367544
0.00892438
0.00357464
0.0068868
0.00356165
0.00420885
0.00362353
0.00062348
0.00369718
-0.00243959
0.00380149
-0.00532669
-0.00697962
-0.00128121
-0.000823217
-0.00128671
-0.000780745
-0.00128731
-0.000721961
-0.0012816
-0.000643692
-0.00126831
-0.000542855
-0.00124613
-0.000417292
-0.00121374
-0.00026537
-0.00116988
-8.66841e-05
-0.00111372
0.000123627
-0.00104576
0.000362806
-0.000965239
0.000628678
-0.000872251
0.000919368
-0.000767149
0.0012311
-0.000650728
0.00155927
-0.000524196
0.00189807
-0.00038784
0.00223926
-0.00024315
0.0025764
-8.98787e-05
0.00289808
7.56211e-05
0.00319101
0.000254072
0.00344323
0.000446209
0.00364264
0.000654726
0.00377125
0.000881271
0.00381159
0.00112553
0.00374811
0.00138464
0.00356834
0.00165364
0.00326477
0.00192634
0.0028359
0.00219638
0.0022854
0.00245816
0.00162061
0.00270739
0.000850918
0.00294128
-1.30089e-05
0.00315968
-0.000954991
0.00336225
-0.00194993
0.00354736
-0.00295163
0.00371002
-0.00389263
0.00384272
-0.00469942
0.00393862
-0.0053176
0.00399455
-0.00572965
0.00401166
-0.0059546
0.00399372
-0.00603482
0.0039458
-0.00601935
0.00387299
-0.00594774
0.00377465
-0.00584786
0.00363824
-0.00576001
0.00344871
-0.00574915
0.00321393
-0.00584897
0.00297968
-0.00596668
0.00281139
-0.00586747
0.00275575
-0.00529081
0.00282096
-0.00411559
0.0029877
-0.00240856
0.00322555
-0.000378344
0.0034988
0.00172335
0.00377109
0.00364069
0.00400932
0.00521032
0.00419073
0.0063866
0.00431335
0.00719278
0.00438497
0.0076874
0.00440577
0.00792465
0.00435746
0.00821138
0.00423642
0.00864364
0.00406264
0.00936066
0.00387994
0.00951898
0.00373343
0.00907089
0.00363759
0.00698264
0.00362592
0.00422053
0.00369
0.000559397
0.0037655
-0.00251509
0.00386567
-0.00542686
-0.00701413
-0.00117014
-0.000813439
-0.00117581
-0.000775068
-0.00117679
-0.000720984
-0.00117174
-0.000648745
-0.00115948
-0.000555117
-0.00113872
-0.00043805
-0.00110812
-0.000295965
-0.0010666
-0.000128208
-0.0010115
6.85324e-05
-0.00094444
0.000295742
-0.000863854
0.000548092
-0.000769343
0.000824856
-0.000660572
0.00112233
-0.000537413
0.00143611
-0.000401234
0.0017619
-0.000250506
0.00208854
-8.93609e-05
0.00241526
8.92205e-05
0.0027195
0.000282295
0.00299794
0.000488374
0.00323715
0.000709227
0.00342178
0.000945263
0.00353521
0.00119587
0.00356098
0.00145905
0.00348493
0.00173081
0.00329658
0.00200576
0.00298982
0.00227796
0.0025637
0.0025417
0.00202166
0.00279209
0.00137022
0.00302554
0.00061747
0.00324047
-0.000227945
0.00343689
-0.00115141
0.0036151
-0.00212814
0.00377345
-0.00310998
0.00390692
-0.00402609
0.0040086
-0.0048011
0.00407314
-0.00538215
0.00409936
-0.00575587
0.00409023
-0.00594547
0.00405078
-0.00599538
0.00398603
-0.00595459
0.00390069
-0.00586239
0.00379553
-0.0057427
0.00365983
-0.00562431
0.00347529
-0.00556461
0.00324015
-0.00561382
0.00299151
-0.00571804
0.00279606
-0.00567201
0.0027109
-0.00520566
0.00275382
-0.00415851
0.00290836
-0.0025631
0.00314264
-0.000612624
0.00341998
0.00144601
0.00370157
0.0033591
0.00395254
0.00495934
0.00414925
0.0061899
0.00428924
0.00705278
0.00437753
0.00759912
0.0044119
0.00789027
0.00437439
0.0082489
0.00426501
0.00875302
0.0041045
0.00952116
0.00393479
0.0096887
0.00379826
0.00920743
0.00370823
0.00707267
0.00369804
0.00423072
0.00376378
0.000493654
0.00384085
-0.00259216
0.00393658
-0.0055226
-0.00704333
-0.000979203
-0.00080284
-0.000984721
-0.000769549
-0.000985144
-0.000720561
-0.000979363
-0.000654526
-0.000966406
-0.000568074
-0.000945166
-0.00045929
-0.000914437
-0.000326694
-0.000873224
-0.000169421
-0.000817692
1.29998e-05
-0.000750343
0.000228393
-0.00066899
0.000466738
-0.000572812
0.000728679
-0.000461138
0.00101066
-0.000332533
0.0013075
-0.000188978
0.00161834
-3.04634e-05
0.00193002
0.000152919
0.00223188
0.00034949
0.00252293
0.000560522
0.00278691
0.000786367
0.0030113
0.00102672
0.00318143
0.00128045
0.00328148
0.00154531
0.00329612
0.00181798
0.00321226
0.00209395
0.00302062
0.0023677
0.00271606
0.00263363
0.00229777
0.00288658
0.00176871
0.00312238
0.00113443
0.00333778
0.000402067
0.0035328
-0.00042296
0.00370711
-0.00132572
0.00386124
-0.00228227
0.00399311
-0.00324185
0.00409748
-0.00413046
0.00416814
-0.00487177
0.00420152
-0.00541553
0.00419854
-0.00575289
0.00416415
-0.00591107
0.00410449
-0.00593572
0.00402448
-0.00587459
0.00392803
-0.00576594
0.00381669
-0.00563135
0.00368218
-0.00548981
0.00350504
-0.00538747
0.00327489
-0.00538367
0.00301805
-0.00546121
0.00279879
-0.00545275
0.00268336
-0.00509023
0.00270109
-0.00417624
0.00284035
-0.00270236
0.00306852
-0.000840796
0.00334744
0.0011671
0.00363611
0.00307042
0.00389826
0.0046972
0.00410951
0.00597865
0.00426657
0.00689572
0.00437125
0.00749444
0.00441928
0.00784224
0.00439335
0.00827483
0.00429687
0.0088495
0.00415094
0.00966709
0.00399521
0.00984442
0.0038696
0.00933303
0.00378636
0.00715591
0.00377802
0.00423906
0.00384483
0.000426845
0.00392305
-0.00267038
0.004014
-0.00561354
-0.00706677
-0.000710014
-0.000788579
-0.000717716
-0.000761847
-0.000719165
-0.000719111
-0.000713615
-0.000660077
-0.000700294
-0.000581395
-0.000678308
-0.000481277
-0.000646648
-0.000358354
-0.000604246
-0.000211823
-0.000548824
-4.24225e-05
-0.0004796
0.000159169
-0.000396708
0.000383847
-0.000298537
0.000630508
-0.000184958
0.000897081
-5.47365e-05
0.00117728
0.000100204
0.0014634
0.000274204
0.00175602
0.000463517
0.00204256
0.000669989
0.00231646
0.000892406
0.00256449
0.0011299
0.00277381
0.00138111
0.00293022
0.00164375
0.00301884
0.00191446
0.00302541
0.00218895
0.00293777
0.00246233
0.00274724
0.00272925
0.00244913
0.00298444
0.00204258
0.00322329
0.00152987
0.00344245
0.000915263
0.00363883
0.000205685
0.00381393
-0.000598062
0.00396682
-0.00147861
0.00409771
-0.00241315
0.00420371
-0.00334786
0.00427929
-0.00420603
0.00431915
-0.00491163
0.00432175
-0.00541813
0.00429053
-0.00572168
0.00423226
-0.00585279
0.00415393
-0.00585739
0.00406037
-0.00578102
0.00395444
-0.00566002
0.00383773
-0.00551464
0.00370455
-0.00535663
0.00353632
-0.00521923
0.00331579
-0.00516314
0.00305734
-0.00520276
0.00281894
-0.00521435
0.00267345
-0.00494474
0.00266312
-0.0041659
0.00278374
-0.00282298
0.00300305
-0.0010601
0.00328094
0.000889202
0.00357451
0.00277686
0.00384633
0.00442537
0.00407138
0.0057536
0.00424508
0.00672202
0.0043658
0.00737372
0.00442755
0.00778049
0.00441394
0.00828844
0.00433152
0.00893192
0.00420138
0.00979723
0.00406065
0.00998515
0.00394698
0.00944671
0.00387158
0.00723131
0.00386563
0.00424501
0.00393299
0.000359484
0.00401186
-0.00274925
0.00409761
-0.00569929
-0.00708398
-0.000358029
-0.000766847
-0.000373076
-0.0007468
-0.000379979
-0.000712208
-0.000378738
-0.000661319
-0.00036858
-0.000591553
-0.000348637
-0.000501219
-0.00031805
-0.000388941
-0.000275755
-0.000254117
-0.000221702
-9.64763e-05
-0.000151206
8.8673e-05
-6.80578e-05
0.000300699
3.25409e-05
0.000529909
0.000154278
0.000775344
0.000294122
0.00103744
0.000451017
0.0013065
0.000626934
0.0015801
0.000820328
0.00184917
0.00103132
0.00210546
0.00125862
0.00233719
0.00150068
0.00253174
0.00175534
0.00267557
0.0020195
0.00275468
0.00228917
0.00275574
0.00255954
0.0026674
0.00282537
0.00248141
0.00308142
0.00219308
0.00332282
0.00180118
0.00354549
0.0013072
0.00374679
0.000713958
0.00392508
2.73965e-05
0.00408085
-0.000753828
0.00421349
-0.00161125
0.00432216
-0.00252182
0.00440286
-0.00342856
0.00444983
-0.00425299
0.00445915
-0.00492095
0.00443185
-0.00539083
0.00437387
-0.00566369
0.00429348
-0.00577241
0.00419829
-0.0057622
0.00409292
-0.00567565
0.00397923
-0.00554632
0.00385819
-0.0053936
0.00372634
-0.00522478
0.00356758
-0.00506047
0.00336031
-0.00495587
0.00310685
-0.0049493
0.00285525
-0.00496275
0.00268126
-0.00477075
0.00264031
-0.00412495
0.00273863
-0.00292131
0.00294593
-0.0012674
0.00322017
0.000614961
0.00351648
0.00248055
0.00379658
0.00414528
0.00403465
0.00551552
0.00422447
0.0065322
0.00436079
0.0072374
0.00443628
0.007705
0.00443567
0.00828905
0.00436837
0.00899922
0.00425519
0.00991041
0.00413046
0.0101099
0.00402972
0.00954745
0.00396332
0.00729771
0.00396036
0.00424797
0.00402805
0.00029179
0.00410695
-0.00282814
0.00418702
-0.00577936
-0.00709454
8.78058e-05
5.69578e-05
-0.000715952
3.72769e-05
-0.000692528
2.68928e-05
-0.000650935
2.74787e-05
-0.000592139
4.02968e-05
-0.000514037
6.61812e-05
-0.000414825
0.000105571
-0.000293508
0.000159008
-0.000149913
0.000230756
1.69259e-05
0.000317398
0.000214056
0.000420197
0.000427111
0.000539055
0.000656486
0.000677025
0.000899467
0.000833624
0.00114991
0.00100927
0.00140446
0.00120278
0.00165566
0.00141369
0.00189455
0.0016406
0.00211028
0.00188152
0.00229083
0.00213371
0.00242337
0.00239362
0.00249477
0.00265684
0.00249252
0.00291836
0.00240589
0.0031729
0.00222687
0.00341535
0.00195063
0.00364117
0.00157535
0.00384676
0.00110161
0.00402938
0.000531336
0.00419267
-0.000135887
0.00432964
-0.000890805
0.00444349
-0.0017251
0.00453112
-0.00260945
0.00458721
-0.00348465
0.00460611
-0.0042719
0.0045858
-0.00490063
0.00453006
-0.00533509
0.00444722
-0.00558086
0.00434686
-0.00567205
0.00423681
-0.00565216
0.00412144
-0.00556027
0.00400167
-0.00542656
0.00387752
-0.00526945
0.003747
-0.00509427
0.00359753
-0.004911
0.00340594
-0.00476429
0.00316355
-0.0047069
0.00290573
-0.00470493
0.00270645
-0.00457147
0.00263309
-0.00405159
0.00270517
-0.00299338
0.00289693
-0.00145916
0.00316477
0.000347118
0.00346176
0.00218356
0.0037488
0.00385824
0.0039991
0.00526522
0.00420437
0.00632693
0.00435575
0.00708602
0.00444497
0.00761578
0.00445799
0.00827603
0.00440676
0.00905045
0.00431161
0.0100056
0.00420387
0.0102176
0.00411704
0.00963428
0.00406078
0.00735397
0.00406171
0.00424703
0.0041295
0.000224008
0.00420785
-0.0029065
0.00428177
-0.00585328
-0.00709802
0.000601401
-0.000669603
0.000563264
-0.000654391
0.000535674
-0.000623345
0.000519171
-0.000575636
0.000515343
-0.000510209
0.000525709
-0.000425191
0.000551492
-0.000319291
0.000593601
-0.000192022
0.000654196
-4.36697e-05
0.000733414
0.000134839
0.000829593
0.000330931
0.000943883
0.000542197
0.00107765
0.000765703
0.00123079
0.000996763
0.00140279
0.00123246
0.00159276
0.00146569
0.00179974
0.00168758
0.00202207
0.00188794
0.00225744
0.00205546
0.00250278
0.00217803
0.00275425
0.0022433
0.00300726
0.0022395
0.00325678
0.00215637
0.00349764
0.00198601
0.00372501
0.00172327
0.00393477
0.00136559
0.00412397
0.000912405
0.0042905
0.000364813
0.00443697
-0.000282361
0.00455837
-0.00101221
0.00465497
-0.0018217
0.00472243
-0.00267691
0.00475442
-0.00351664
0.00474591
-0.00426339
0.00469718
-0.0048519
0.00461486
-0.00525277
0.00450948
-0.00547548
0.00439156
-0.00555412
0.00426884
-0.00552945
0.00414527
-0.0054367
0.00402104
-0.00530234
0.00389508
-0.00514348
0.00376608
-0.00496526
0.00362518
-0.00477011
0.00345033
-0.00458944
0.00322418
-0.00448075
0.00296764
-0.00444839
0.0027481
-0.00435194
0.00264185
-0.00394534
0.00268376
-0.00303529
0.00285597
-0.00163137
0.00311449
8.85994e-05
0.00341014
0.00188791
0.00370283
0.00356555
0.00396444
0.0050036
0.00418437
0.006107
0.0043502
0.0069202
0.00445306
0.00751291
0.00448027
0.00824883
0.00444595
0.00908477
0.00436983
0.0100817
0.00428001
0.0103074
0.00420802
0.00970628
0.00416304
0.00739895
0.00416906
0.00424102
0.00423661
0.000156453
0.00431403
-0.00298391
0.00438129
-0.00592054
-0.00709406
0.00123311
-0.000602833
0.00117384
-0.000595113
0.00112419
-0.000573695
0.0010854
-0.000536846
0.00105919
-0.000483997
0.00104759
-0.000413595
0.00105241
-0.000324114
0.00107497
-0.000214583
0.00111569
-8.43911e-05
0.00117935
7.11858e-05
0.00126191
0.000248374
0.00136459
0.00043951
0.00148816
0.000642136
0.00163232
0.000852602
0.00179601
0.00106876
0.00197813
0.00128357
0.00217719
0.00148852
0.00239119
0.00167395
0.00261748
0.00182917
0.00285272
0.00194279
0.00309288
0.00200315
0.00333333
0.00199905
0.00356912
0.00192058
0.00379533
0.0017598
0.00400742
0.00151117
0.00420174
0.00117128
0.00437602
0.000738129
0.00452789
0.000212942
0.00465973
-0.000414207
0.00476679
-0.00111927
0.004847
-0.0019019
0.00489455
-0.00272446
0.00490257
-0.00352466
0.00486729
-0.00422811
0.00479163
-0.00477625
0.00468502
-0.00514616
0.00455978
-0.00535024
0.00442693
-0.00542126
0.00429385
-0.00539637
0.00416386
-0.00530671
0.00403667
-0.00517514
0.00391021
-0.00501702
0.00378311
-0.00483817
0.00364984
-0.00463683
0.00349155
-0.00443116
0.0032854
-0.0042746
0.00303767
-0.00420066
0.00280457
-0.00411883
0.00266677
-0.00380754
0.00267506
-0.00304358
0.0028233
-0.00177961
0.00306923
-0.000157335
0.00336145
0.00159569
0.00365846
0.00326854
0.00393039
0.00473168
0.00416402
0.00587337
0.00434359
0.00674063
0.00445995
0.00739656
0.00450181
0.00820696
0.00448512
0.00910146
0.00442895
0.0101379
0.00435797
0.0103784
0.00430164
0.0097626
0.00426906
0.00743153
0.00428118
0.0042289
0.00434899
8.8637e-05
0.00442486
-0.00305977
0.00448497
-0.00598066
-0.00708233
0.00193143
0.00185299
-0.000516677
0.00178233
-0.000503033
0.001721
-0.000475514
0.00167084
-0.000433839
0.00163409
-0.000376848
0.00161301
-0.000303028
0.00160954
-0.000211112
0.00162546
-0.000100316
0.0016643
3.23436e-05
0.00172417
0.000188507
0.00180635
0.000357327
0.00191139
0.000537101
0.00203885
0.000725137
0.0021875
0.000920115
0.00235585
0.00111522
0.00254196
0.00130241
0.00274335
0.00147255
0.002957
0.00161552
0.00317926
0.00172052
0.00340592
0.00177649
0.0036323
0.00177267
0.0038536
0.00169929
0.0040651
0.0015483
0.00426259
0.00131368
0.00444265
0.000991217
0.00460364
0.000577136
0.00474293
7.36486e-05
0.0048616
-0.000532873
0.00495489
-0.00121256
0.00501867
-0.00196568
0.0050459
-0.00275169
0.00502981
-0.00350857
0.00496852
-0.00416682
0.00486783
-0.00467555
0.00473963
-0.00501797
0.00459749
-0.0052081
0.0044525
-0.00527627
0.00431139
-0.00525525
0.00417677
-0.00517209
0.00404793
-0.00504631
0.00392217
-0.00489127
0.00379759
-0.00471358
0.00367105
-0.00451029
0.00352818
-0.00428829
0.00334412
-0.00409053
0.00311202
-0.00396857
0.00287334
-0.00388015
0.00270756
-0.00364176
0.00267988
-0.0030159
0.00279964
-0.00189936
0.00302899
-0.000386688
0.00331562
0.00130906
0.00361553
0.00296863
0.00389659
0.00445062
0.00414284
0.00562712
0.00433537
0.0065481
0.00446499
0.00726694
0.0045219
0.00815005
0.00452343
0.00909993
0.00448804
0.0101732
0.00443676
0.0104297
0.00439688
0.00980248
0.00437771
0.0074507
0.00439749
0.00420912
0.00446543
2.07004e-05
0.00453961
-0.00313395
0.00459211
-0.00603315
-0.00706257
0.00256082
0.00247476
-0.00041697
0.00239591
-0.000396661
0.00232603
-0.000363961
0.00226725
-0.000318067
0.00222193
-0.000257712
0.00219249
-0.000181674
0.00218114
-8.89604e-05
0.0021907
2.27816e-05
0.00222227
0.000156932
0.00227703
0.000302572
0.00235583
0.000458301
0.00245868
0.000622287
0.00258463
0.000794161
0.00273215
0.000967704
0.00289903
0.00113553
0.0030825
0.00128908
0.00327918
0.00141884
0.00348514
0.00151457
0.00369591
0.00156571
0.00390678
0.0015618
0.00411296
0.0014931
0.00430992
0.00135133
0.00449355
0.00113006
0.00466039
0.000824376
0.00480799
0.000429541
0.00493869
-5.70595e-05
0.00504344
-0.000637618
0.0051224
-0.00129152
0.00516877
-0.00201205
0.00517473
-0.00275766
0.00513434
-0.00346817
0.00504813
-0.00408061
0.00492476
-0.00455218
0.00477809
-0.0048713
0.00462229
-0.0050523
0.00446802
-0.005122
0.00432117
-0.0051084
0.0041836
-0.00503453
0.00405432
-0.00491703
0.0039303
-0.00476725
0.00380896
-0.00459224
0.00368851
-0.00438984
0.00355932
-0.0041591
0.00339775
-0.00392897
0.00318676
-0.00375758
0.00295114
-0.00364453
0.00276321
-0.00345383
0.00269901
-0.0029517
0.00278563
-0.00198599
0.00299439
-0.000595444
0.00327264
0.0010308
0.00357378
0.00266749
0.00386264
0.00416176
0.0041203
0.00536947
0.00432493
0.00634347
0.00446751
0.00712436
0.00453976
0.0080778
0.00456002
0.00907967
0.00454616
0.0101871
0.0045154
0.0104605
0.00449266
0.00982522
0.00448784
0.00745551
0.0045165
0.00418045
0.00458545
-4.82412e-05
0.00465752
-0.00320603
0.00470195
-0.00607758
-0.00703456
0.00315197
-0.000322942
0.00306335
-0.00030804
0.0029816
-0.000282215
0.00290846
-0.00024493
0.00284601
-0.000195257
0.00279664
-0.000132305
0.00276275
-5.50739e-05
0.00274529
4.02496e-05
0.00274931
0.000152907
0.0027753
0.000276584
0.00282466
0.000408942
0.00289827
0.000548678
0.00299593
0.000696502
0.00311655
0.000847079
0.00325819
0.000993891
0.00341812
0.00112915
0.00359293
0.00124403
0.00377856
0.00132894
0.00397042
0.00137385
0.00416368
0.00136854
0.00435353
0.00130325
0.00453545
0.00116942
0.00470524
0.000960264
0.00485938
0.000670236
0.00499488
0.000294038
0.00511358
-0.000175756
0.00520494
-0.000728983
0.00526823
-0.00135481
0.00529557
-0.00203939
0.00527909
-0.00274118
0.00521445
-0.00340353
0.00510497
-0.00397113
0.00496184
-0.00440905
0.0048002
-0.00470966
0.0046341
-0.0048862
0.00447337
-0.00496127
0.00432297
-0.004958
0.00418406
-0.00489562
0.0040554
-0.00478837
0.00393397
-0.00464582
0.00381662
-0.00447488
0.00370195
-0.00427517
0.0035845
-0.00404165
0.0034444
-0.00378887
0.00325816
-0.00357134
0.00303398
-0.00342035
0.00283176
-0.0032516
0.00273286
-0.0028528
0.00278259
-0.00203572
0.00296594
-0.000778795
0.00323255
0.000764202
0.00353291
0.00236712
0.00382806
0.00386661
0.0040958
0.00510173
0.00431162
0.00612765
0.00446681
0.00696917
0.00455459
0.00799002
0.00459402
0.00904024
0.00460237
0.0101788
0.00459293
0.0104699
0.00458794
0.00983021
0.00459836
0.00744509
0.00463715
0.00414167
0.00470807
-0.000119166
0.00477774
-0.0032757
0.00481369
-0.00611353
-0.00699817
0.00376417
0.00367349
-0.000217356
0.00358828
-0.000197009
0.00350994
-0.000166587
0.0034399
-0.000125217
0.00337937
-7.17763e-05
0.00333284
-8.54071e-06
0.00329754
7.55446e-05
0.00328067
0.000169778
0.0032831
0.000274154
0.00330628
0.000385765
0.00335182
0.000503136
0.00342045
0.000627873
0.00351193
0.000755593
0.00362504
0.000880785
0.00375755
0.000996641
0.00390645
0.00109513
0.00406795
0.00116744
0.00423759
0.00120421
0.00441055
0.00119559
0.00458198
0.00113182
0.00474728
0.00100412
0.00490205
0.000805497
0.00504252
0.000529759
0.00516438
0.000172178
0.00526885
-0.000280221
0.00534509
-0.000805226
0.00539049
-0.00140021
0.00539681
-0.00204571
0.00535692
-0.00270128
0.00526872
-0.00331533
0.00513835
-0.00384076
0.00497897
-0.00424967
0.00480613
-0.00453682
0.00463313
-0.0047132
0.00446865
-0.00479679
0.00431673
-0.00480608
0.00417793
-0.00475682
0.00405086
-0.0046613
0.0039327
-0.00452766
0.00382001
-0.0043622
0.00371112
-0.00416628
0.00360364
-0.00393418
0.00348289
-0.00366811
0.00332306
-0.00341151
0.00311762
-0.00321491
0.00291026
-0.00304424
0.00278116
-0.0027237
0.00279175
-0.00204632
0.00294468
-0.000931725
0.00319549
0.000513396
0.00349254
0.00207007
0.00379223
0.00356693
0.00406866
0.0048253
0.00429477
0.00590154
0.00446217
0.00680177
0.00456562
0.00788657
0.00462459
0.00898126
0.00465576
0.0101476
0.00466839
0.0104573
0.00468175
0.00981684
0.00470818
0.00741866
0.00475853
0.00409132
0.00483222
-0.000192862
0.00489939
-0.00334286
0.0049265
-0.00614063
-0.00695335
0.00418713
-0.000130574
0.00410516
-0.000115034
0.00402887
-9.03019e-05
0.00395987
-5.62089e-05
0.00390068
-1.259e-05
0.00384574
4.63973e-05
0.00380522
0.000116069
0.00377858
0.000196416
0.00376748
0.000285249
0.00377315
0.000380102
0.00379749
0.000478797
0.00384199
0.000583366
0.00390726
0.000690322
0.00399298
0.000795069
0.00409786
0.00089176
0.00421959
0.000973397
0.004355
0.00103204
0.0045001
0.00105911
0.00465036
0.00104533
0.00480104
0.000981136
0.00494744
0.00085772
0.00508485
0.000668086
0.00520957
0.000405033
0.00531564
6.61164e-05
0.00540296
-0.000367548
0.00546139
-0.00086365
0.00548636
-0.00142518
0.00546988
-0.00202923
0.00540631
-0.00263771
0.00529621
-0.00320523
0.00514822
-0.00369276
0.00497661
-0.00407806
0.0047965
-0.00435671
0.0046199
-0.00453661
0.00445419
-0.00463107
0.00430255
-0.00465445
0.00416516
-0.00461943
0.00404053
-0.00453666
0.00392614
-0.00441328
0.00381864
-0.0042547
0.00371577
-0.0040634
0.00361687
-0.00383527
0.00351276
-0.00356401
0.00337907
-0.00327782
0.00319793
-0.00303377
0.00299493
-0.00284124
0.00284266
-0.00257143
0.00281418
-0.00201784
0.00293192
-0.00104947
0.00316194
0.00028338
0.00345234
0.00177967
0.00375445
0.00326482
0.0040381
0.00454165
0.00427363
0.00566601
0.00445287
0.00662253
0.00457207
0.00776737
0.00465092
0.00890241
0.00470544
0.0100931
0.00474087
0.0104218
0.00477315
0.00978456
0.00481639
0.00737543
0.00487963
0.00402808
0.00495693
-0.000270164
0.00502155
-0.00340748
0.00503948
-0.00615857
-0.00690017
0.00458084
0.00450705
-4.12415e-05
0.00443929
-2.25387e-05
0.00437851
4.56669e-06
0.00431986
4.60662e-05
0.00427112
9.51315e-05
0.00423237
0.000154817
0.00420523
0.000223565
0.00419043
0.000300041
0.00418871
0.000381822
0.00420162
0.000465893
0.00423087
0.000554117
0.00427743
0.00064376
0.00434164
0.000730854
0.00442305
0.000810357
0.00452021
0.000876227
0.00463075
0.000921497
0.00475142
0.00093844
0.00487825
0.000918509
0.00500683
0.000852551
0.00513259
0.000731967
0.00525068
0.000549997
0.005356
0.000299712
0.00544542
-2.3302e-05
0.00551196
-0.000434093
0.00554968
-0.000901368
0.00555207
-0.00142757
0.0055119
-0.00198906
0.00542559
-0.00255141
0.00529644
-0.00307608
0.00513493
-0.00353125
0.00495548
-0.00389861
0.00477197
-0.00417321
0.0045948
-0.00435943
0.00443006
-0.00446633
0.00428027
-0.00450466
0.00414539
-0.00448455
0.00402397
-0.00441524
0.0039138
-0.00430311
0.00381187
-0.00415276
0.00371537
-0.0039669
0.00362417
-0.00374407
0.00353394
-0.00347377
0.00342458
-0.00316846
0.00327118
-0.00288037
0.00308145
-0.00265152
0.00291491
-0.00240489
0.0028502
-0.00195312
0.00292919
-0.00112846
0.00313282
7.97487e-05
0.00341225
0.00150024
0.00371409
0.00296298
0.00400332
0.00425241
0.00424744
0.00542189
0.00443818
0.00643179
0.00457323
0.00763231
0.00467228
0.00880337
0.00475063
0.0100147
0.00480955
0.0103629
0.00486129
0.00973282
0.00492214
0.00731457
0.00499957
0.00395065
0.00508126
-0.000351856
0.00514328
-0.00346949
0.00515176
-0.00616705
-0.0068388
0.00478531
0.0047258
3.69752e-05
0.00467049
5.9872e-05
0.00462414
9.24196e-05
0.00458494
0.00013433
0.00455456
0.000185199
0.00453369
0.000244431
0.00452295
0.000310783
0.0045227
0.000382074
0.00453343
0.000455166
0.00455688
0.000530668
0.00459386
0.000606773
0.00464487
0.000679848
0.0047099
0.000745322
0.00478819
0.000797943
0.00487808
0.000831608
0.00497714
0.000839375
0.00508211
0.000813546
0.00518909
0.000745571
0.00529366
0.000627394
0.00539105
0.0004526
0.00547683
0.000213939
0.00554768
-9.41563e-05
0.00559115
-0.00047756
0.00560591
-0.000916132
0.00558419
-0.00140585
0.00552052
-0.00192539
0.00541376
-0.00244465
0.00526954
-0.00293185
0.00509919
-0.00336091
0.00491626
-0.00371568
0.00473286
-0.00398981
0.00455769
-0.00418426
0.00439574
-0.00430438
0.0042491
-0.00435802
0.00411773
-0.00435318
0.00400026
-0.00429777
0.00389476
-0.00419761
0.00379871
-0.00405671
0.00370901
-0.00387721
0.00362517
-0.00366023
0.00354638
-0.00339498
0.00345852
-0.00308061
0.00333419
-0.00275604
0.00316528
-0.0024826
0.0029944
-0.00223402
0.00289904
-0.00185776
0.00293777
-0.00116719
0.00310968
-9.21626e-05
0.00337277
0.00123716
0.00367081
0.00266494
0.00396364
0.00395958
0.00421548
0.00517005
0.00441741
0.00622986
0.00456841
0.00748131
0.00468789
0.00868389
0.00479045
0.00991214
0.00487353
0.0102798
0.00494542
0.00966093
0.00502482
0.00723518
0.00511764
0.00385783
0.0052043
-0.00043852
0.00526364
-0.00352883
0.00526245
-0.00616586
-0.00676959
0.00489706
8.36959e-05
0.00485539
0.000101545
0.00481996
0.000127851
0.00479172
0.000162563
0.00477133
0.00020559
0.00475941
0.000256355
0.00475636
0.000313829
0.00476214
0.000376297
0.00477603
0.000441274
0.00480013
0.000506573
0.00483529
0.000571614
0.0048814
0.000633737
0.0049383
0.000688418
0.00500531
0.000730933
0.00508109
0.000755834
0.0051638
0.000756662
0.00525081
0.000726532
0.00533873
0.000657655
0.00542391
0.000542211
0.00550202
0.000374491
0.00556492
0.000151044
0.00561177
-0.000141014
0.00563449
-0.000500276
0.00562721
-0.000908857
0.00558216
-0.00136079
0.00549708
-0.00184032
0.00537375
-0.00232132
0.00521943
-0.00277753
0.0050452
-0.00318668
0.00486296
-0.00353344
0.00468278
-0.00380962
0.00451179
-0.00401327
0.00435419
-0.00414678
0.00421178
-0.00421562
0.00408464
-0.00422603
0.00397159
-0.00418473
0.00387095
-0.00409697
0.0037807
-0.00396646
0.00369784
-0.00379435
0.00362109
-0.00358348
0.00355158
-0.00332547
0.00348158
-0.0030106
0.00338544
-0.0026599
0.00324277
-0.00233994
0.00307739
-0.00206863
0.00295906
-0.00173943
0.00295783