/*--------------------------------*- C++ -*----------------------------------*\
  =========                 |
  \\      /  F ield         | OpenFOAM: The Open Source CFD Toolbox
   \\    /   O peration     | Website:  https://openfoam.org
    \\  /    A nd           | Version:  7
     \\/     M anipulation  |
\*---------------------------------------------------------------------------*/
FoamFile
{
    version     2.0;
    format      ascii;
    class       volVectorField;
    location    "6";
    object      U;
}
// * * * * * * * * * * * * * * * * * * * * * * * * * * * * * * * * * * * * * //

dimensions      [0 1 -1 0 0 0 0];

internalField   nonuniform List<vector> 
344
(
(2.93984 0.00217514 3.39329e-17)
(2.9334 0.00216544 -4.35248e-19)
(2.92698 0.00215615 1.17484e-16)
(2.92059 0.00214726 -1.981e-16)
(2.91423 0.00213874 -5.31578e-17)
(2.90789 0.00213056 -2.88087e-17)
(2.90157 0.0021227 -2.29192e-17)
(2.89528 0.00211515 4.71913e-17)
(2.88902 0.00210787 -2.98885e-17)
(2.88277 0.00210084 -2.9619e-17)
(2.87655 0.00209405 -3.07968e-17)
(2.87034 0.00208747 -4.94547e-17)
(2.86416 0.00208109 -2.76059e-16)
(2.85799 0.00207488 -1.27492e-16)
(2.85184 0.00206883 -1.3767e-16)
(2.84572 0.00206292 -4.0254e-18)
(2.83961 0.00205714 -3.46462e-16)
(2.83351 0.00205146 -1.91812e-16)
(2.82744 0.00204588 -1.43816e-16)
(2.82138 0.00204037 -3.63618e-17)
(2.81534 0.00203493 -3.86167e-16)
(2.80932 0.00202955 -1.64836e-16)
(2.80331 0.0020242 -1.30837e-16)
(2.79732 0.00201888 -2.37896e-17)
(2.79134 0.00201357 -7.33999e-17)
(2.78538 0.00200828 -9.54077e-17)
(2.77944 0.00200298 -1.89627e-16)
(2.77352 0.00199766 3.54011e-19)
(2.76761 0.00199233 -3.21819e-16)
(2.76171 0.00198697 -1.87055e-16)
(2.75584 0.00198157 -1.34374e-16)
(2.74998 0.00197612 -1.45149e-16)
(2.74414 0.00197063 -1.48316e-16)
(2.73831 0.00196507 -6.94881e-17)
(2.7325 0.00195946 -7.85093e-17)
(2.72671 0.00195378 -1.30938e-16)
(2.72094 0.00194802 1.09116e-17)
(2.71518 0.00194219 -3.76627e-16)
(2.70945 0.00193628 -2.23674e-16)
(2.70373 0.00193028 -1.30231e-16)
(2.69803 0.00192419 -7.41574e-17)
(2.69234 0.00191802 -3.69157e-16)
(2.68668 0.00191175 -2.04853e-16)
(2.68104 0.00190538 -1.4558e-16)
(2.67541 0.00189892 -7.24283e-17)
(2.66981 0.00189235 -4.51754e-16)
(2.66422 0.00188569 -2.38831e-16)
(2.65866 0.00187892 -1.35237e-16)
(2.65311 0.00187206 -6.69546e-17)
(2.64759 0.00186508 -5.5573e-17)
(2.64209 0.00185801 -7.62874e-17)
(2.63661 0.00185083 -1.30096e-16)
(2.63115 0.00184354 -4.03451e-17)
(2.62572 0.00183615 -3.75454e-16)
(2.6203 0.00182865 -1.87631e-16)
(2.61491 0.00182106 -9.22154e-17)
(2.60955 0.00181336 -7.67896e-17)
(2.6042 0.00180555 -9.0466e-17)
(2.59888 0.00179765 -1.05276e-16)
(2.59359 0.00178964 -1.10984e-16)
(2.58831 0.00178154 -7.67556e-17)
(2.58306 0.00177334 -6.26777e-17)
(2.57784 0.00176504 -4.41598e-16)
(2.57264 0.00175665 -1.94466e-16)
(2.56747 0.00174817 -1.36531e-16)
(2.56232 0.00173959 2.18634e-17)
(2.5572 0.00173092 -3.64868e-16)
(2.92897 0.00511805 2.31743e-16)
(2.92239 0.00509472 1.4011e-16)
(2.91585 0.00507235 1.65505e-16)
(2.90933 0.00505086 1.60045e-16)
(2.90284 0.0050302 1.78457e-16)
(2.89638 0.00501033 2.08636e-16)
(2.88994 0.00499118 7.16642e-17)
(2.88353 0.00497271 1.44037e-16)
(2.87715 0.00495486 2.66934e-17)
(2.87079 0.0049376 1.10353e-16)
(2.86446 0.00492086 -1.20148e-17)
(2.85815 0.00490461 6.59082e-17)
(2.85186 0.0048888 6.64012e-17)
(2.84559 0.0048734 1.18811e-16)
(2.83935 0.00485835 -2.51801e-17)
(2.83313 0.00484362 5.50733e-17)
(2.82692 0.00482918 6.15642e-17)
(2.82074 0.00481499 1.15395e-16)
(2.81458 0.00480101 -1.08217e-17)
(2.80844 0.00478721 1.77227e-17)
(2.80232 0.00477357 3.69571e-17)
(2.79622 0.00476005 1.07346e-16)
(2.79014 0.00474662 -4.61379e-17)
(2.78408 0.00473326 6.27591e-17)
(2.77803 0.00471994 -6.45353e-17)
(2.77201 0.00470665 2.88594e-17)
(2.76601 0.00469335 -1.09745e-16)
(2.76002 0.00468003 -1.07612e-17)
(2.75406 0.00466666 4.16301e-17)
(2.74811 0.00465324 2.66657e-17)
(2.74218 0.00463974 1.0062e-16)
(2.73628 0.00462614 -6.24626e-17)
(2.73039 0.00461244 4.04582e-17)
(2.72452 0.00459861 -1.01875e-16)
(2.71868 0.00458465 2.65152e-17)
(2.71285 0.00457054 -1.0493e-16)
(2.70704 0.00455628 -2.4253e-17)
(2.70125 0.00454184 -3.87963e-18)
(2.69549 0.00452723 5.08257e-17)
(2.68974 0.00451244 -7.25781e-17)
(2.68402 0.00449745 -1.11612e-17)
(2.67832 0.00448227 -5.33401e-18)
(2.67263 0.00446688 9.16487e-17)
(2.66697 0.00445128 -6.83209e-17)
(2.66134 0.00443546 -6.69835e-19)
(2.65572 0.00441943 -2.8937e-17)
(2.65012 0.00440317 6.77335e-17)
(2.64455 0.0043867 -8.34675e-17)
(2.63901 0.00436999 3.43575e-17)
(2.63348 0.00435306 -8.43088e-17)
(2.62798 0.0043359 9.27954e-18)
(2.6225 0.00431851 -1.36329e-16)
(2.61704 0.00430089 -6.61686e-17)
(2.61161 0.00428304 -1.37149e-17)
(2.60621 0.00426497 9.49664e-18)
(2.60083 0.00424666 6.79585e-17)
(2.59547 0.00422813 -6.83458e-17)
(2.59014 0.00420938 3.80568e-17)
(2.58483 0.0041904 -9.50796e-17)
(2.57955 0.00417121 2.64971e-17)
(2.57429 0.0041518 -9.84821e-17)
(2.56907 0.00413217 -1.13608e-17)
(2.56386 0.00411234 5.14067e-18)
(2.55869 0.00409229 5.83818e-17)
(2.55354 0.00407205 -7.62164e-17)
(2.54841 0.0040516 7.69434e-18)
(2.54332 0.00403096 1.91026e-17)
(2.90443 0.00851584 4.60512e-16)
(2.89757 0.0084748 5.19017e-16)
(2.89075 0.00843516 4.36893e-16)
(2.88396 0.00839685 4.96268e-16)
(2.87721 0.00835979 4.46088e-16)
(2.87049 0.0083239 3.96453e-16)
(2.8638 0.00828911 4.49474e-16)
(2.85715 0.00825533 3.76708e-16)
(2.85052 0.0082225 4.28633e-16)
(2.84393 0.00819055 3.4963e-16)
(2.83737 0.00815941 3.9854e-16)
(2.83084 0.00812901 3.35955e-16)
(2.82433 0.00809928 3.83249e-16)
(2.81786 0.00807018 3.34982e-16)
(2.81141 0.00804163 3.89816e-16)
(2.80499 0.00801358 3.11601e-16)
(2.7986 0.00798598 3.7437e-16)
(2.79224 0.00795877 3.24781e-16)
(2.78591 0.00793191 3.76531e-16)
(2.7796 0.00790534 2.97361e-16)
(2.77331 0.00787902 3.7073e-16)
(2.76706 0.00785291 3.07547e-16)
(2.76083 0.00782697 3.72426e-16)
(2.75462 0.00780116 2.99525e-16)
(2.74845 0.00777544 3.69914e-16)
(2.74229 0.00774978 2.75808e-16)
(2.73617 0.00772414 3.5279e-16)
(2.73007 0.0076985 2.91938e-16)
(2.72399 0.00767282 3.48085e-16)
(2.71794 0.00764708 3.14741e-16)
(2.71192 0.00762125 2.62191e-16)
(2.70592 0.00759531 3.52141e-16)
(2.69994 0.00756924 2.70793e-16)
(2.694 0.00754302 3.53023e-16)
(2.68808 0.00751662 2.82289e-16)
(2.68218 0.00749004 3.62665e-16)
(2.67631 0.00746325 2.79081e-16)
(2.67047 0.00743624 3.71437e-16)
(2.66465 0.007409 2.77638e-16)
(2.65886 0.00738151 3.58243e-16)
(2.65309 0.00735377 2.71741e-16)
(2.64735 0.00732576 3.52203e-16)
(2.64164 0.00729747 2.96181e-16)
(2.63595 0.0072689 3.69862e-16)
(2.63029 0.00724005 2.71482e-16)
(2.62466 0.0072109 3.49112e-16)
(2.61906 0.00718145 2.76653e-16)
(2.61348 0.00715169 3.60251e-16)
(2.60793 0.00712163 2.85513e-16)
(2.6024 0.00709127 3.57462e-16)
(2.59691 0.00706059 2.57006e-16)
(2.59144 0.0070296 3.26909e-16)
(2.586 0.00699829 2.36285e-16)
(2.58059 0.00696668 3.30171e-16)
(2.5752 0.00693476 2.85327e-16)
(2.56985 0.00690253 2.30324e-16)
(2.56452 0.00686999 3.38805e-16)
(2.55922 0.00683715 2.76154e-16)
(2.55396 0.00680401 3.41271e-16)
(2.54871 0.00677057 2.66259e-16)
(2.5435 0.00673684 3.27083e-16)
(2.53832 0.00670283 2.51095e-16)
(2.53317 0.00666853 3.23164e-16)
(2.52805 0.00663395 2.52473e-16)
(2.52295 0.00659909 3.4008e-16)
(2.51789 0.00656397 2.60931e-16)
(2.51286 0.00652859 3.43988e-16)
(2.86553 0.012222 5.80393e-16)
(2.85827 0.0121576 5.78268e-16)
(2.85106 0.0120949 5.57406e-16)
(2.8439 0.0120339 5.51635e-16)
(2.83678 0.0119744 5.37214e-16)
(2.8297 0.0119164 5.08534e-16)
(2.82267 0.0118597 5.08073e-16)
(2.81567 0.0118044 4.86584e-16)
(2.80872 0.0117502 4.86995e-16)
(2.80181 0.0116972 4.63895e-16)
(2.79494 0.0116452 4.56034e-16)
(2.78811 0.0115942 4.48524e-16)
(2.78132 0.011544 4.39632e-16)
(2.77457 0.0114947 4.1629e-16)
(2.76785 0.0114462 4.35847e-16)
(2.76118 0.0113983 4.11278e-16)
(2.75454 0.011351 4.2379e-16)
(2.74794 0.0113042 3.94619e-16)
(2.74138 0.011258 4.08719e-16)
(2.73485 0.0112122 3.84722e-16)
(2.72836 0.0111668 3.93359e-16)
(2.7219 0.0111217 3.7755e-16)
(2.71548 0.0110769 4.02758e-16)
(2.7091 0.0110323 3.75746e-16)
(2.70275 0.0109879 3.87637e-16)
(2.69644 0.0109437 3.62494e-16)
(2.69016 0.0108996 3.819e-16)
(2.68392 0.0108556 3.67223e-16)
(2.67771 0.0108115 3.63569e-16)
(2.67154 0.0107675 3.66449e-16)
(2.6654 0.0107235 3.48127e-16)
(2.65929 0.0106794 3.66335e-16)
(2.65322 0.0106353 3.49674e-16)
(2.64718 0.010591 3.83352e-16)
(2.64118 0.0105466 3.51547e-16)
(2.63521 0.0105021 3.7428e-16)
(2.62927 0.0104574 3.66135e-16)
(2.62337 0.0104125 3.78254e-16)
(2.61751 0.0103674 3.52347e-16)
(2.61167 0.0103221 3.64437e-16)
(2.60587 0.0102766 3.53715e-16)
(2.6001 0.0102308 3.69191e-16)
(2.59437 0.0101848 3.47415e-16)
(2.58867 0.0101385 3.79932e-16)
(2.58301 0.010092 3.65598e-16)
(2.57737 0.0100451 3.64139e-16)
(2.57178 0.00999799 3.53433e-16)
(2.56621 0.00995059 3.63022e-16)
(2.56068 0.00990288 3.47815e-16)
(2.55518 0.00985489 3.76117e-16)
(2.54972 0.00980659 3.49564e-16)
(2.54429 0.009758 3.7984e-16)
(2.53889 0.00970911 3.52691e-16)
(2.53353 0.00965992 3.54165e-16)
(2.5282 0.00961043 3.64503e-16)
(2.5229 0.00956064 3.39232e-16)
(2.51764 0.00951056 3.64231e-16)
(2.51241 0.00946019 3.54669e-16)
(2.50721 0.00940953 3.68393e-16)
(2.50205 0.00935859 3.47473e-16)
(2.49692 0.00930737 3.72622e-16)
(2.49183 0.00925587 3.63446e-16)
(2.48677 0.00920411 3.82282e-16)
(2.48174 0.00915208 3.62492e-16)
(2.47674 0.00909979 3.88906e-16)
(2.47178 0.00904726 3.6108e-16)
(2.46686 0.00899448 3.65631e-16)
(2.81052 0.0162756 6.29456e-16)
(2.8028 0.0161791 6.34866e-16)
(2.79515 0.0160846 6.03544e-16)
(2.78755 0.0159919 5.86147e-16)
(2.78001 0.0159011 5.76337e-16)
(2.77253 0.0158119 5.30747e-16)
(2.7651 0.0157244 5.69576e-16)
(2.75773 0.0156384 5.36783e-16)
(2.75042 0.0155539 5.65636e-16)
(2.74315 0.0154707 5.17751e-16)
(2.73594 0.0153888 5.54188e-16)
(2.72879 0.0153081 5.1945e-16)
(2.72169 0.0152285 5.01756e-16)
(2.71464 0.01515 4.59328e-16)
(2.70764 0.0150725 5.00086e-16)
(2.70069 0.0149958 4.76743e-16)
(2.69379 0.0149201 4.68377e-16)
(2.68694 0.014845 4.30839e-16)
(2.68014 0.0147707 4.85873e-16)
(2.6734 0.0146971 4.55913e-16)
(2.6667 0.014624 4.45865e-16)
(2.66004 0.0145515 4.02581e-16)
(2.65344 0.0144795 4.60758e-16)
(2.64688 0.0144079 4.21007e-16)
(2.64037 0.0143367 4.749e-16)
(2.63391 0.0142658 4.19816e-16)
(2.62749 0.0141953 4.67848e-16)
(2.62112 0.014125 4.35099e-16)
(2.6148 0.014055 4.0862e-16)
(2.60852 0.0139851 4.13719e-16)
(2.60229 0.0139154 3.8689e-16)
(2.5961 0.0138458 4.39022e-16)
(2.58995 0.0137763 3.91271e-16)
(2.58385 0.0137069 4.6913e-16)
(2.5778 0.0136376 4.20033e-16)
(2.57179 0.0135682 4.71437e-16)
(2.56582 0.0134989 4.40168e-16)
(2.55989 0.0134295 4.35422e-16)
(2.55401 0.0133601 3.93144e-16)
(2.54817 0.0132907 4.61414e-16)
(2.54237 0.0132211 4.4144e-16)
(2.53661 0.0131515 4.36001e-16)
(2.5309 0.0130818 4.00154e-16)
(2.52523 0.013012 4.61657e-16)
(2.5196 0.0129421 4.42533e-16)
(2.51401 0.012872 4.29886e-16)
(2.50846 0.0128018 3.94355e-16)
(2.50296 0.0127314 4.57637e-16)
(2.49749 0.012661 4.05563e-16)
(2.49207 0.0125903 4.72727e-16)
(2.48668 0.0125195 4.23807e-16)
(2.48134 0.0124486 4.76962e-16)
(2.47603 0.0123775 4.5145e-16)
(2.47077 0.0123062 4.39888e-16)
(2.46555 0.0122347 4.26102e-16)
(2.46036 0.0121631 4.02287e-16)
(2.45522 0.0120914 4.65978e-16)
(2.45011 0.0120195 4.2877e-16)
(2.44504 0.0119474 4.88841e-16)
(2.44001 0.0118752 4.40398e-16)
(2.43502 0.0118028 4.95209e-16)
(2.43007 0.0117303 4.79654e-16)
(2.42516 0.0116577 4.65289e-16)
(2.42028 0.0115849 4.3135e-16)
(2.41545 0.011512 4.95382e-16)
(2.41065 0.011439 4.77399e-16)
(2.40588 0.0113658 4.67427e-16)
(2.73736 0.020687 5.7532e-16)
(2.72919 0.0205463 5.57082e-16)
(2.72109 0.0204078 5.50627e-16)
(2.71308 0.0202716 5.33157e-16)
(2.70513 0.0201374 5.219e-16)
(2.69726 0.0200052 5.10592e-16)
(2.68946 0.019875 5.02431e-16)
(2.68174 0.0197466 5.0003e-16)
(2.67409 0.0196201 5.02716e-16)
)
;

boundaryField
{
    inlet
    {
        type            uniformFixedValue;
        uniformValue    constant (1 0 0);
        value           nonuniform 0();
    }
    outlet
    {
        type            pressureInletOutletVelocity;
        value           nonuniform 0();
    }
    wall
    {
        type            fixedValue;
        value           nonuniform 0();
    }
    wedge1
    {
        type            wedge;
    }
    wedge2
    {
        type            wedge;
    }
    axis
    {
        type            empty;
    }
    procBoundary4to3
    {
        type            processor;
        value           nonuniform List<vector> 4((2.94632 0.00218529 8.56098e-18) (2.93558 0.00514237 1.68803e-16) (2.91133 0.00855838 5.28426e-16) (2.87283 0.0122882 6.11356e-16));
    }
    procBoundary4to5
    {
        type            processor;
        value           nonuniform List<vector> 5((2.55211 0.00172217 -1.58297e-16) (2.53825 0.00401013 8.11604e-17) (2.50785 0.00649296 2.79347e-16) (2.46196 0.00894147 3.59472e-16) (2.40116 0.0112926 4.38611e-16));
    }
    procBoundary4to9
    {
        type            processor;
        value           nonuniform List<vector> 2((2.81829 0.0163741 6.6975e-16) (2.74561 0.02083 5.86352e-16));
    }
    procBoundary4to10
    {
        type            processor;
        value           nonuniform List<vector> 
68
(
(2.6665 0.0194952 4.96087e-16)
(2.65899 0.019372 4.91968e-16)
(2.65154 0.0192503 4.79465e-16)
(2.64417 0.0191301 4.65465e-16)
(2.63686 0.0190114 4.52684e-16)
(2.62962 0.0188939 4.43389e-16)
(2.62244 0.0187778 4.52044e-16)
(2.61533 0.0186628 4.42045e-16)
(2.60829 0.018549 4.37198e-16)
(2.60131 0.0184363 4.33591e-16)
(2.59439 0.0183246 4.36463e-16)
(2.58754 0.0182138 4.24811e-16)
(2.58074 0.018104 4.05426e-16)
(2.57401 0.017995 4.14274e-16)
(2.56734 0.0178869 4.20209e-16)
(2.56073 0.0177794 4.12147e-16)
(2.55418 0.0176727 4.1398e-16)
(2.54769 0.0175667 4.13852e-16)
(2.54126 0.0174613 4.1665e-16)
(2.53488 0.0173564 4.06844e-16)
(2.52856 0.0172521 4.14646e-16)
(2.5223 0.0171484 4.07538e-16)
(2.5161 0.0170451 4.11255e-16)
(2.50995 0.0169422 4.18502e-16)
(2.50385 0.0168398 4.32982e-16)
(2.49781 0.0167377 4.34851e-16)
(2.49183 0.016636 4.29082e-16)
(2.48589 0.0165347 4.45421e-16)
(2.48002 0.0164336 4.42928e-16)
(2.47419 0.0163329 4.37766e-16)
(2.46842 0.0162324 4.48665e-16)
(2.46269 0.0161322 4.54267e-16)
(2.45702 0.0160323 4.44059e-16)
(2.4514 0.0159325 4.38067e-16)
(2.44583 0.015833 4.33469e-16)
(2.44031 0.0157337 4.44575e-16)
(2.43484 0.0156345 4.31272e-16)
(2.42942 0.0155355 4.31464e-16)
(2.42404 0.0154367 4.43214e-16)
(2.41872 0.0153381 4.42397e-16)
(2.41344 0.0152396 4.52737e-16)
(2.40821 0.0151412 4.51557e-16)
(2.40303 0.015043 4.50026e-16)
(2.39789 0.0149449 4.687e-16)
(2.3928 0.0148469 4.60916e-16)
(2.38775 0.0147491 4.69316e-16)
(2.38275 0.0146514 4.70592e-16)
(2.3778 0.0145538 4.79039e-16)
(2.37289 0.0144563 4.79826e-16)
(2.36802 0.0143589 4.82401e-16)
(2.3632 0.0142617 4.90196e-16)
(2.35842 0.0141646 5.02333e-16)
(2.35368 0.0140676 5.03421e-16)
(2.34899 0.0139707 5.03724e-16)
(2.34434 0.013874 5.01673e-16)
(2.33973 0.0137774 5.18468e-16)
(2.33517 0.0136809 5.23618e-16)
(2.33064 0.0135845 5.0977e-16)
(2.64404 0.0254037 4.76216e-16)
(2.63551 0.0252039 4.50398e-16)
(2.62707 0.0250068 4.56621e-16)
(2.61872 0.0248124 4.39042e-16)
(2.61048 0.0246207 4.44713e-16)
(2.60232 0.0244315 4.45312e-16)
(2.59425 0.0242448 4.48345e-16)
(2.58628 0.0240606 4.68987e-16)
(2.6665 0.0194952 4.96087e-16)
(2.57839 0.0238787 4.25148e-16)
)
;
    }
}


// ************************************************************************* //
