/*--------------------------------*- C++ -*----------------------------------*\
  =========                 |
  \\      /  F ield         | OpenFOAM: The Open Source CFD Toolbox
   \\    /   O peration     | Website:  https://openfoam.org
    \\  /    A nd           | Version:  7
     \\/     M anipulation  |
\*---------------------------------------------------------------------------*/
FoamFile
{
    version     2.0;
    format      ascii;
    class       surfaceScalarField;
    location    "17";
    object      phi;
}
// * * * * * * * * * * * * * * * * * * * * * * * * * * * * * * * * * * * * * //

dimensions      [0 3 -1 0 0 0 0];

internalField   nonuniform List<scalar> 
823
(
0.00921514
0.00118795
-0.00916283
0.00926409
0.00133848
0.00148737
0.00948143
0.00113178
-0.00942525
0.00953628
0.00128362
0.00958921
0.00143445
0.00963946
0.00158373
0.00968619
0.00173089
0.0097284
0.00187531
0.00976497
0.00201627
0.00979467
0.00215303
0.00228478
0.00974667
0.00107417
-0.00968906
0.00980448
0.00122581
0.0098621
0.00137683
0.00991899
0.00152683
0.00997454
0.00167535
0.010028
0.00182186
0.0100784
0.00196581
0.0101249
0.00210657
0.00224346
0.0100153
0.00101672
-0.00995788
0.0100741
0.00116705
0.0101339
0.00131703
0.0101944
0.00146632
0.0102552
0.00161454
0.0103158
0.0017613
0.0103754
0.00190613
0.0104335
0.00204854
0.00218797
0.0102904
0.000960404
-0.010234
0.0103487
0.00110867
0.010409
0.00125672
0.0104711
0.00140428
0.0105346
0.00155105
0.0105992
0.00169669
0.0106645
0.00184084
0.0107299
0.0019831
0.00212302
0.0105736
0.000905781
-0.0105189
0.0106308
0.00105144
0.0106906
0.00119696
0.0107527
0.00134209
0.0108172
0.00148659
0.0108837
0.00163016
0.0109521
0.00177251
0.0110218
0.00191333
0.00205225
0.0108661
0.000853146
-0.0108134
0.0109217
0.000995814
0.0109803
0.00113837
0.0110418
0.00128059
0.0111062
0.00142224
0.0111732
0.0015631
0.0112428
0.0017029
0.0113148
0.00184138
0.00197825
0.0111685
0.000802611
-0.011118
0.0112224
0.000941997
0.0112794
0.00108127
0.0113398
0.00122023
0.0114034
0.00135867
0.0114701
0.00149636
0.0115399
0.0016331
0.0116127
0.00176864
0.00190273
0.0114814
0.00075421
-0.011433
0.0115333
0.000890079
0.0115888
0.00102583
0.0116477
0.00116127
0.0117102
0.0012962
0.0117761
0.00143043
0.0118455
0.00156374
0.0119182
0.00169593
0.00182678
0.011805
0.000707907
-0.0117587
0.011855
0.000840063
0.0119087
0.00097209
0.0119662
0.0011038
0.0120274
0.00123502
0.0120923
0.00136554
0.0121608
0.00149518
0.012233
0.00162374
0.00175102
0.0121396
0.000663631
-0.0120953
0.0121877
0.000791901
0.0122398
0.000920033
0.0122957
0.00104785
0.0123556
0.00117516
0.0124193
0.0013018
0.012487
0.00142757
0.0125584
0.00155229
0.00167578
0.0124855
0.000621304
-0.0124431
0.0125318
0.00074553
0.0125823
0.000869609
0.0126367
0.000993368
0.0126953
0.00111663
0.0127578
0.00123922
0.0128244
0.00136096
0.0128951
0.00148168
0.00160119
0.012843
0.000580822
-0.0128025
0.0128876
0.000700859
0.0129365
0.000820743
0.0129896
0.000940304
0.0130468
0.00105937
0.0131083
0.00117778
0.0131739
0.00129535
0.0132436
0.00141193
0.00152732
0.0132125
0.000542102
-0.0131738
0.0132556
0.000657809
0.013303
0.000773359
0.0133547
0.000888587
0.0134107
0.00100333
0.0134711
0.00111742
0.0135357
0.0012307
0.0136047
0.00134299
0.00145415
0.0135946
0.000505047
-0.0135575
0.0136361
0.000616291
0.0136821
0.000727374
0.0137326
0.000838139
0.0137875
0.000948428
0.0138468
0.00105808
0.0139106
0.00116694
0.0139787
0.00127484
0.00138163
0.0139898
0.000469567
-0.0139543
0.0140298
0.000576216
0.0140745
0.000682706
0.0141238
0.000788883
0.0141776
0.000894593
0.014236
0.000999684
0.0142989
0.001104
0.0143664
0.00120739
0.0013097
0.0143986
0.000435573
-0.0143646
0.0144373
0.000537502
0.0144808
0.000639272
0.0145289
0.000740737
0.0145818
0.000841749
0.0146393
0.00094216
0.0147015
0.00104182
0.0147683
0.00114059
0.00123831
0.0148219
0.00040298
-0.0147893
0.0148594
0.000500063
0.0149016
0.000596991
0.0149488
0.000693622
0.0150007
0.000789816
0.0150574
0.000885431
0.0151189
0.000980324
0.0151852
0.00107436
0.00116739
0.0152605
0.000371703
-0.0152292
0.0152967
0.000463817
0.0153379
0.00055578
0.0153841
0.000647458
0.0154352
0.000738715
0.0154912
0.000829417
0.0155521
0.000919428
0.0156179
0.00100861
0.00109684
0.0157152
0.00034166
-0.0156851
0.0157503
0.000428681
0.0157905
0.000515557
0.0158358
0.00060216
0.0158862
0.000688362
0.0159416
0.000774034
0.0160019
0.000859048
0.0160673
0.000943277
0.00102659
0.016187
0.000312768
-0.0161581
0.0162211
0.000394571
0.0162604
0.000476236
0.0163049
0.000557643
0.0163546
0.00063867
0.0164095
0.000719195
0.0164694
0.000799097
0.0165344
0.000878255
0.000956548
0.016677
0.000284947
-0.0166492
0.0167102
0.000361404
0.0167487
0.000437733
0.0167925
0.000513819
0.0168416
0.000589548
0.016896
0.000664805
0.0169556
0.000739476
0.0170205
0.000813448
0.000886607
0.0171864
0.000258112
-0.0171596
0.0172187
0.000329095
0.0172565
0.000399958
0.0172997
0.000470595
0.0173484
0.000540899
0.0174024
0.000610764
0.0174618
0.000680083
0.0175265
0.000748749
0.000816658
0.0177165
0.00023218
-0.0176906
0.017748
0.000297552
0.0177852
0.000362816
0.0178279
0.000427871
0.0178762
0.000492621
0.01793
0.000556964
0.0179893
0.000620803
0.018054
0.00068404
0.000746576
0.0182686
0.000207063
-0.0182435
0.0182995
0.000266684
0.0183361
0.000326208
0.0183784
0.000385544
0.0184264
0.000444601
0.0184801
0.000503288
0.0185394
0.000561514
0.0186042
0.00061919
0.000676226
0.0188443
0.000182669
-0.0188199
0.0188746
0.000236393
0.0189107
0.000290031
0.0189528
0.000343502
0.0190007
0.000396722
0.0190543
0.000449609
0.0191138
0.000502082
0.0191789
0.000554059
0.000605458
0.0194451
0.000158902
-0.0194213
0.0194749
0.000206573
0.0195108
0.000254171
0.0195527
0.000301622
0.0196005
0.000348853
0.0196544
0.00039579
0.0197141
0.00044236
0.0197796
0.00048849
0.000534108
0.0200729
0.000135659
-0.0200497
0.0201024
0.000177114
0.0201381
0.000218507
0.0201799
0.000259775
0.0202279
0.000300853
0.020282
0.000341678
0.0203422
0.000382185
0.0204084
0.000422311
0.000461993
0.0207297
0.000112828
-0.0207069
0.0207589
0.000147891
0.0207945
0.000182905
0.0208365
0.000217815
0.0208848
0.000252568
0.0209393
0.000287108
0.0210002
0.000321381
0.0210671
0.000355333
0.000388911
0.0214176
9.02872e-05
-0.0213951
0.0214467
0.000118771
0.0214824
0.000147219
0.0215246
0.000175584
0.0215734
0.000203824
0.0216286
0.000231893
0.0216902
0.000259748
0.0217582
0.000287344
0.000314638
0.0221391
6.7899e-05
-0.0221167
0.0221682
8.96043e-05
0.0222042
0.000111284
0.0222469
0.000132904
0.0222963
0.00015443
0.0223523
0.000175828
0.022415
0.000197065
0.0224842
0.000218106
0.000238919
0.0228968
4.55118e-05
-0.0228745
0.0229262
6.02223e-05
0.0229626
7.49173e-05
0.0230059
8.95736e-05
0.0230562
0.000104168
0.0231133
0.000118678
0.0231773
0.00013308
0.0232481
0.000147351
0.000161468
0.0236941
2.29435e-05
-0.0236715
0.0237239
3.04266e-05
0.0237609
3.79032e-05
0.0238051
4.5361e-05
0.0238565
5.27888e-05
0.023915
6.01742e-05
0.0239806
6.75059e-05
0.0240532
7.47718e-05
8.19608e-05
0.0245342
-0.0245112
0.0245646
0.0246025
0.0246478
0.0247006
0.0247608
0.0248283
0.0249031
0.00905085
0.000731911
0.00910786
0.000884188
0.00103635
0.0092534
0.000522643
0.00931087
0.000674443
0.00936826
0.000826795
0.000979363
0.00952042
0.00046845
0.00957572
0.000619143
0.009632
0.000770519
0.000922298
0.00979498
0.000417617
0.00984759
0.000566536
0.00990192
0.000716191
0.00086634
0.0100783
0.000370202
0.010128
0.000516858
0.0101799
0.000664261
0.000812186
0.010371
0.000326183
0.0104177
0.000470199
0.010467
0.000614942
0.000760207
0.0106735
0.000285455
0.0107172
0.00042653
0.0107638
0.000568301
0.000710573
0.010986
0.000247881
0.0110267
0.000385758
0.0110707
0.000524298
0.000663313
0.0113087
0.000213325
0.0113467
0.000347788
0.0113881
0.000482878
0.000618414
0.0116419
0.000181656
0.0116771
0.000312503
0.0117161
0.000443947
0.000575808
0.0119856
0.000152713
0.0120183
0.00027977
0.0120549
0.00040739
0.000535402
0.0123402
0.000126375
0.0123705
0.000249469
0.0124048
0.000373102
0.000497104
0.012706
0.000102486
0.012734
0.00022147
0.0127662
0.000340961
0.000460801
0.0130835
8.09356e-05
0.0131093
0.000195658
0.0131394
0.000310865
0.0004264
0.0134731
6.1609e-05
0.0134968
0.000171929
0.013525
0.00028271
0.000393802
0.0138753
4.43917e-05
0.0138971
0.000150174
0.0139234
0.000256395
0.000362909
0.0142909
2.91808e-05
0.0143108
0.000130295
0.0143354
0.000231825
0.000333632
0.0147206
1.58798e-05
0.0147387
0.000112199
0.0147616
0.000208908
0.000305881
0.0151651
4.39477e-06
0.0151815
9.57973e-05
0.0152029
0.00018756
0.000279573
0.0156255
-5.34451e-06
0.0156403
8.10062e-05
0.0156602
0.000167696
0.000254623
0.0161027
-1.341e-05
0.016116
6.7744e-05
0.0161344
0.000149235
0.00023095
0.0165978
-1.99042e-05
0.0166096
5.59377e-05
0.0166267
0.0001321
0.000208474
0.0171119
-2.48884e-05
0.0171224
4.55125e-05
0.0171382
0.000116216
0.000187117
0.0176464
-2.84302e-05
0.0176555
3.63956e-05
0.0176702
0.000101504
0.000166798
0.0182026
-3.05958e-05
0.0182105
2.85153e-05
0.0182241
8.78884e-05
0.000147434
0.0187821
-3.14513e-05
0.0187888
2.17995e-05
0.0188014
7.52907e-05
0.000128941
0.0193863
-3.10632e-05
0.019392
1.61745e-05
0.0194036
6.363e-05
0.00011123
0.0200172
-2.94993e-05
0.0200219
1.1564e-05
0.0200327
5.28207e-05
9.42068e-05
0.0206767
-2.68324e-05
0.0206804
7.88572e-06
0.0206904
4.27716e-05
7.777e-05
0.0213669
-2.31387e-05
0.0213697
5.05269e-06
0.0213791
3.3384e-05
6.18098e-05
0.0220902
-1.85053e-05
0.0220922
2.96536e-06
0.0221011
2.45461e-05
4.62016e-05
0.0228492
-1.30262e-05
0.0228507
1.51688e-06
0.0228591
1.61364e-05
3.08089e-05
0.0236471
-6.82114e-06
0.0236481
5.70699e-07
0.0236562
8.00425e-06
1.54654e-05
0.0244872
0.0244877
0.0244957
)
;

boundaryField
{
    inlet
    {
        type            calculated;
        value           nonuniform 0();
    }
    outlet
    {
        type            calculated;
        value           nonuniform 0();
    }
    cylinder
    {
        type            calculated;
        value           nonuniform 0();
    }
    top
    {
        type            symmetryPlane;
        value           uniform 0;
    }
    bottom
    {
        type            symmetryPlane;
        value           nonuniform 0();
    }
    defaultFaces
    {
        type            empty;
        value           nonuniform 0();
    }
    procBoundary32to26
    {
        type            processor;
        value           nonuniform List<scalar> 
15
(
-0.00124027
-0.00138743
-0.00153211
0.00930883
-0.00163398
-0.00177762
-0.00191751
-0.00205284
-0.00218273
-0.00230627
-0.000790443
-0.000941193
-0.00109132
-0.00899232
-0.00057993
)
;
    }
    procBoundary32to31
    {
        type            processor;
        value           nonuniform List<scalar> 
33
(
-0.00919611
-0.00946623
-0.00974415
-0.0100309
-0.010327
-0.0106328
-0.0109484
-0.0112742
-0.0116102
-0.0119567
-0.0123139
-0.0126821
-0.0130619
-0.0134537
-0.0138581
-0.0142757
-0.0147073
-0.0151537
-0.0156158
-0.0160946
-0.0165913
-0.0171069
-0.0176429
-0.0182005
-0.0187812
-0.0193867
-0.0200188
-0.0206794
-0.0213706
-0.0220948
-0.0228547
-0.0236533
-0.024494
)
;
    }
    procBoundary32to33
    {
        type            processor;
        value           nonuniform List<scalar> 
33
(
0.00981617
0.0101662
0.010489
0.0107949
0.0110926
0.0113888
0.0116882
0.0119941
0.0123088
0.0126336
0.0129696
0.0133175
0.0136778
0.0140512
0.0144383
0.0148397
0.0152561
0.0156884
0.0161375
0.0166045
0.0170904
0.0175965
0.0181241
0.0186746
0.0192497
0.019851
0.0204805
0.0211402
0.0218325
0.02256
0.0233255
0.0241327
0.0249851
)
;
    }
}


// ************************************************************************* //
