# vtk DataFile Version 2.0
bottom
ASCII
DATASET POLYDATA
POINTS 182 float
-4 -6 -0.05 -3.4017 -6 -0.05 -3.4017 -6 0.05 -4 -6
0.05 -2.8888 -6 -0.05 -2.8888 -6 0.05 -2.44913 -6 -0.05
-2.44913 -6 0.05 -2.07222 -6 -0.05 -2.07222 -6 0.05 -1.74912
-6 -0.05 -1.74912 -6 0.05 -1.47215 -6 -0.05 -1.47215 -6
0.05 -1.23471 -6 -0.05 -1.23471 -6 0.05 -1.03117 -6 -0.05
-1.03117 -6 0.05 -0.856683 -6 -0.05 -0.856683 -6 0.05 -0.707107
-6 -0.05 -0.707107 -6 0.05 -0.671751 -6 -0.05 -0.671751 -6
0.05 -0.636396 -6 -0.05 -0.636396 -6 0.05 -0.601041 -6 -0.05
-0.601041 -6 0.05 -0.565685 -6 -0.05 -0.565685 -6 0.05 -0.53033
-6 -0.05 -0.53033 -6 0.05 -0.494975 -6 -0.05 -0.494975 -6
0.05 -0.459619 -6 -0.05 -0.459619 -6 0.05 -0.424264 -6 -0.05
-0.424264 -6 0.05 -0.388909 -6 -0.05 -0.388909 -6 0.05 -0.353553
-6 -0.05 -0.353553 -6 0.05 -0.318198 -6 -0.05 -0.318198 -6
0.05 -0.282843 -6 -0.05 -0.282843 -6 0.05 -0.247487 -6 -0.05
-0.247487 -6 0.05 -0.212132 -6 -0.05 -0.212132 -6 0.05 -0.176777
-6 -0.05 -0.176777 -6 0.05 -0.141421 -6 -0.05 -0.141421 -6
0.05 -0.106066 -6 -0.05 -0.106066 -6 0.05 -0.0707107 -6 -0.05
-0.0707107 -6 0.05 -0.0353553 -6 -0.05 -0.0353553 -6 0.05 0
-6 -0.05 0 -6 0.05 0.0353553 -6 -0.05 0.0353553 -6
0.05 0.0707107 -6 -0.05 0.0707107 -6 0.05 0.106066 -6 -0.05
0.106066 -6 0.05 0.141421 -6 -0.05 0.141421 -6 0.05 0.176777
-6 -0.05 0.176777 -6 0.05 0.212132 -6 -0.05 0.212132 -6
0.05 0.247487 -6 -0.05 0.247487 -6 0.05 0.282843 -6 -0.05
0.282843 -6 0.05 0.318198 -6 -0.05 0.318198 -6 0.05 0.353553
-6 -0.05 0.353553 -6 0.05 0.388909 -6 -0.05 0.388909 -6
0.05 0.424264 -6 -0.05 0.424264 -6 0.05 0.459619 -6 -0.05
0.459619 -6 0.05 0.494975 -6 -0.05 0.494975 -6 0.05 0.53033
-6 -0.05 0.53033 -6 0.05 0.565685 -6 -0.05 0.565685 -6
0.05 0.601041 -6 -0.05 0.601041 -6 0.05 0.636396 -6 -0.05
0.636396 -6 0.05 0.671751 -6 -0.05 0.671751 -6 0.05 0.707107
-6 -0.05 0.707107 -6 0.05 0.791023 -6 -0.05 0.791023 -6
0.05 0.877976 -6 -0.05 0.877976 -6 0.05 0.968076 -6 -0.05
0.968076 -6 0.05 1.06144 -6 -0.05 1.06144 -6 0.05 1.15817
-6 -0.05 1.15817 -6 0.05 1.25841 -6 -0.05 1.25841 -6
0.05 1.36228 -6 -0.05 1.36228 -6 0.05 1.4699 -6 -0.05
1.4699 -6 0.05 1.58142 -6 -0.05 1.58142 -6 0.05 1.69697
-6 -0.05 1.69697 -6 0.05 1.81671 -6 -0.05 1.81671 -6
0.05 1.94078 -6 -0.05 1.94078 -6 0.05 2.06933 -6 -0.05
2.06933 -6 0.05 2.20254 -6 -0.05 2.20254 -6 0.05 2.34057
-6 -0.05 2.34057 -6 0.05 2.4836 -6 -0.05 2.4836 -6
0.05 2.6318 -6 -0.05 2.6318 -6 0.05 2.78536 -6 -0.05
2.78536 -6 0.05 2.94448 -6 -0.05 2.94448 -6 0.05 3.10935
-6 -0.05 3.10935 -6 0.05 3.2802 -6 -0.05 3.2802 -6
0.05 3.45722 -6 -0.05 3.45722 -6 0.05 3.64065 -6 -0.05
3.64065 -6 0.05 3.83072 -6 -0.05 3.83072 -6 0.05 4.02766
-6 -0.05 4.02766 -6 0.05 4.23174 -6 -0.05 4.23174 -6
0.05 4.44319 -6 -0.05 4.44319 -6 0.05 4.6623 -6 -0.05
4.6623 -6 0.05 4.88934 -6 -0.05 4.88934 -6 0.05 5.12459
-6 -0.05 5.12459 -6 0.05 5.36835 -6 -0.05 5.36835 -6
0.05 5.62094 -6 -0.05 5.62094 -6 0.05 5.88266 -6 -0.05
5.88266 -6 0.05 6.15386 -6 -0.05 6.15386 -6 0.05 6.43487
-6 -0.05 6.43487 -6 0.05 6.72605 -6 -0.05 6.72605 -6
0.05 7.02776 -6 -0.05 7.02776 -6 0.05 7.34039 -6 -0.05
7.34039 -6 0.05 7.66433 -6 -0.05 7.66433 -6 0.05 8
-6 -0.05 8 -6 0.05 
POLYGONS 90 450
4 0 1 2 3 4 1 4 5 2 4
4 6 7 5 4 6 8 9 7 4
8 10 11 9 4 10 12 13 11 4
12 14 15 13 4 14 16 17 15 4
16 18 19 17 4 18 20 21 19 4
20 22 23 21 4 22 24 25 23 4
24 26 27 25 4 26 28 29 27 4
28 30 31 29 4 30 32 33 31 4
32 34 35 33 4 34 36 37 35 4
36 38 39 37 4 38 40 41 39 4
40 42 43 41 4 42 44 45 43 4
44 46 47 45 4 46 48 49 47 4
48 50 51 49 4 50 52 53 51 4
52 54 55 53 4 54 56 57 55 4
56 58 59 57 4 58 60 61 59 4
60 62 63 61 4 62 64 65 63 4
64 66 67 65 4 66 68 69 67 4
68 70 71 69 4 70 72 73 71 4
72 74 75 73 4 74 76 77 75 4
76 78 79 77 4 78 80 81 79 4
80 82 83 81 4 82 84 85 83 4
84 86 87 85 4 86 88 89 87 4
88 90 91 89 4 90 92 93 91 4
92 94 95 93 4 94 96 97 95 4
96 98 99 97 4 98 100 101 99 4
100 102 103 101 4 102 104 105 103 4
104 106 107 105 4 106 108 109 107 4
108 110 111 109 4 110 112 113 111 4
112 114 115 113 4 114 116 117 115 4
116 118 119 117 4 118 120 121 119 4
120 122 123 121 4 122 124 125 123 4
124 126 127 125 4 126 128 129 127 4
128 130 131 129 4 130 132 133 131 4
132 134 135 133 4 134 136 137 135 4
136 138 139 137 4 138 140 141 139 4
140 142 143 141 4 142 144 145 143 4
144 146 147 145 4 146 148 149 147 4
148 150 151 149 4 150 152 153 151 4
152 154 155 153 4 154 156 157 155 4
156 158 159 157 4 158 160 161 159 4
160 162 163 161 4 162 164 165 163 4
164 166 167 165 4 166 168 169 167 4
168 170 171 169 4 170 172 173 171 4
172 174 175 173 4 174 176 177 175 4
176 178 179 177 4 178 180 181 179 
CELL_DATA 90
FIELD attributes 2
patchID 1 90 float
4 4 4 4 4 4 4 4 4 4 4
4 4 4 4 4 4 4 4 4 4
4 4 4 4 4 4 4 4 4 4
4 4 4 4 4 4 4 4 4 4
4 4 4 4 4 4 4 4 4 4
4 4 4 4 4 4 4 4 4 4
4 4 4 4 4 4 4 4 4 4
4 4 4 4 4 4 4 4 4 4
4 4 4 4 4 4 4 4 4 
U 3 90 float
1.0001 0 0 1.00287 0 0 1.0073 0 0 1.01252 0
0 1.0179 0 0 1.02308 0 0 1.02787 0 0
1.03218 0 0 1.03597 0 0 1.03931 0 0 1.04121
0 -5.23131e-22 1.04194 0 -1.1634e-22 1.04266 0 6.7605e-22 1.04338 0
-7.45419e-22 1.04411 0 -4.96595e-22 1.04484 0 1.13176e-22 1.04556 0 3.32855e-22
1.04629 0 7.30519e-22 1.04702 0 4.73165e-22 1.04774 0 4.86555e-22 1.04847
0 -1.12406e-22 1.0492 0 -6.38867e-22 1.04992 0 -1.48823e-21 1.05065 0
1.40101e-21 1.05137 0 -5.7058e-22 1.05209 0 3.70686e-22 1.05281 0 5.88151e-23
1.05353 0 -1.92305e-22 1.05425 0 4.65642e-23 1.05497 0 -6.9929e-23 1.05568
0 -6.72881e-23 1.05639 0 4.81206e-23 1.0571 0 -1.44297e-22 1.0578 0
8.87465e-23 1.0585 0 3.12269e-22 1.0592 0 -4.20232e-22 1.0599 0 8.52326e-22
1.06059 0 -8.49691e-22 1.06127 0 -2.64181e-22 1.06196 0 3.35902e-23 1.06263
0 2.16643e-22 1.06331 0 1.65875e-22 1.06398 0 2.6324e-22 1.06464 0
2.07024e-22 1.0653 0 -1.20725e-22 1.06596 0 -1.38782e-22 1.06661 0 -2.50742e-22
1.06725 0 2.75385e-22 1.06789 0 -4.67692e-23 1.06852 0 -7.964e-23 1.06957
0 0 1.07104 0 0 1.07252 0 0 1.07401 0
0 1.07551 0 0 1.077 0 0 1.07849 0 0
1.07996 0 0 1.08141 0 0 1.08283 0 0 1.08422
0 0 1.08556 0 0 1.08685 0 0 1.08808 0
0 1.08923 0 0 1.0903 0 0 1.09129 0 0
1.09217 0 0 1.09294 0 0 1.0936 0 0 1.09413
0 0 1.09452 0 0 1.09478 0 0 1.0949 0
0 1.09487 0 0 1.09469 0 0 1.09436 0 0
1.09387 0 0 1.09324 0 0 1.09246 0 0 1.09155
0 0 1.09047 0 0 1.0893 0 0 1.08794 0
0 1.08657 0 0 1.08486 0 0 1.08345 0 0
1.08118 0 0 1.08014 0 0 1.07658 0 0 
POINT_DATA  182
FIELD attributes 1
U 3 182 float
1.0001 0 0 1.00159 0 0 1.00159 0 0 1.0001 0
0 1.00525 0 0 1.00525 0 0 1.0101 0 0
1.0101 0 0 1.0154 0 0 1.0154 0 0 1.02067
0 0 1.02067 0 0 1.02563 0 0 1.02563 0
0 1.03016 0 0 1.03016 0 0 1.03419 0 0
1.03419 0 0 1.03773 0 0 1.03773 0 0 1.04051
0 -3.29116e-22 1.04051 0 -3.29116e-22 1.04157 0 -3.19735e-22 1.04157 0
-3.19735e-22 1.0423 0 2.79855e-22 1.0423 0 2.79855e-22 1.04302 0 -3.46845e-23
1.04302 0 -3.46845e-23 1.04375 0 -6.21007e-22 1.04375 0 -6.21007e-22 1.04447
0 -1.91709e-22 1.04447 0 -1.91709e-22 1.0452 0 2.23015e-22 1.0452 0
2.23015e-22 1.04593 0 5.31687e-22 1.04593 0 5.31687e-22 1.04666 0 6.01842e-22
1.04666 0 6.01842e-22 1.04738 0 4.7986e-22 1.04738 0 4.7986e-22 1.04811
0 1.87075e-22 1.04811 0 1.87075e-22 1.04884 0 -3.75637e-22 1.04884 0
-3.75637e-22 1.04956 0 -1.06355e-21 1.04956 0 -1.06355e-21 1.05028 0 -4.361e-23
1.05028 0 -4.361e-23 1.05101 0 4.15215e-22 1.05101 0 4.15215e-22 1.05173
0 -9.9947e-23 1.05173 0 -9.9947e-23 1.05245 0 2.14751e-22 1.05245 0
2.14751e-22 1.05317 0 -6.67449e-23 1.05317 0 -6.67449e-23 1.05389 0 -7.28704e-23
1.05389 0 -7.28704e-23 1.05461 0 -1.16824e-23 1.05461 0 -1.16824e-23 1.05533
0 -6.86086e-23 1.05533 0 -6.86086e-23 1.05604 0 -9.58375e-24 1.05604 0
-9.58375e-24 1.05675 0 -4.80882e-23 1.05675 0 -4.80882e-23 1.05745 0 -2.77752e-23
1.05745 0 -2.77752e-23 1.05815 0 2.00508e-22 1.05815 0 2.00508e-22 1.05885
0 -5.39815e-23 1.05885 0 -5.39815e-23 1.05955 0 2.16047e-22 1.05955 0
2.16047e-22 1.06025 0 1.3175e-24 1.06025 0 1.3175e-24 1.06093 0 -5.56936e-22
1.06093 0 -5.56936e-22 1.06161 0 -1.15295e-22 1.06161 0 -1.15295e-22 1.06229
0 1.25117e-22 1.06229 0 1.25117e-22 1.06297 0 1.91259e-22 1.06297 0
1.91259e-22 1.06365 0 2.14557e-22 1.06365 0 2.14557e-22 1.06431 0 2.35132e-22
1.06431 0 2.35132e-22 1.06497 0 4.31495e-23 1.06497 0 4.31495e-23 1.06563
0 -1.29753e-22 1.06563 0 -1.29753e-22 1.06629 0 -1.94762e-22 1.06629 0
-1.94762e-22 1.06693 0 1.23215e-23 1.06693 0 1.23215e-23 1.06757 0 1.14308e-22
1.06757 0 1.14308e-22 1.0682 0 -6.32046e-23 1.0682 0 -6.32046e-23 1.06899
0 -4.39396e-23 1.06899 0 -4.39396e-23 1.0703 0 0 1.0703 0
0 1.07177 0 0 1.07177 0 0 1.07326 0 0
1.07326 0 0 1.07475 0 0 1.07475 0 0 1.07625
0 0 1.07625 0 0 1.07774 0 0 1.07774 0
0 1.07922 0 0 1.07922 0 0 1.08068 0 0
1.08068 0 0 1.08211 0 0 1.08211 0 0 1.08352
0 0 1.08352 0 0 1.08488 0 0 1.08488 0
0 1.0862 0 0 1.0862 0 0 1.08746 0 0
1.08746 0 0 1.08865 0 0 1.08865 0 0 1.08976
0 0 1.08976 0 0 1.09079 0 0 1.09079 0
0 1.09172 0 0 1.09172 0 0 1.09255 0 0
1.09255 0 0 1.09327 0 0 1.09327 0 0 1.09386
0 0 1.09386 0 0 1.09432 0 0 1.09432 0
0 1.09465 0 0 1.09465 0 0 1.09484 0 0
1.09484 0 0 1.09489 0 0 1.09489 0 0 1.09478
0 0 1.09478 0 0 1.09453 0 0 1.09453 0
0 1.09412 0 0 1.09412 0 0 1.09356 0 0
1.09356 0 0 1.09286 0 0 1.09286 0 0 1.09201
0 0 1.09201 0 0 1.09102 0 0 1.09102 0
0 1.08989 0 0 1.08989 0 0 1.08863 0 0
1.08863 0 0 1.08727 0 0 1.08727 0 0 1.08573
0 0 1.08573 0 0 1.08417 0 0 1.08417 0
0 1.08233 0 0 1.08233 0 0 1.08067 0 0
1.08067 0 0 1.07839 0 0 1.07839 0 0 1.07658
0 0 1.07658 0 0 
