/*--------------------------------*- C++ -*----------------------------------*\
  =========                 |
  \\      /  F ield         | OpenFOAM: The Open Source CFD Toolbox
   \\    /   O peration     | Website:  https://openfoam.org
    \\  /    A nd           | Version:  7
     \\/     M anipulation  |
\*---------------------------------------------------------------------------*/
FoamFile
{
    version     2.0;
    format      ascii;
    class       volScalarField;
    location    "116.999848";
    object      p;
}
// * * * * * * * * * * * * * * * * * * * * * * * * * * * * * * * * * * * * * //

dimensions      [0 2 -2 0 0 0 0];

internalField   nonuniform List<scalar> 
5800
(
-0.380121
-0.38758
-0.392613
-0.395758
-0.396181
-0.391439
-0.399718
-0.408086
-0.416634
-0.42481
-0.432078
-0.437804
-0.441497
-0.442458
-0.440111
-0.433951
-0.423618
-0.408965
-0.390019
-0.367215
-0.341302
-0.313333
-0.284568
-0.256329
-0.229841
-0.206103
-0.185823
-0.169424
-0.157115
-0.149009
-0.145234
-0.145965
-0.151289
-0.160888
-0.173708
-0.187832
-0.20072
-0.209701
-0.212484
-0.207837
-0.195701
-0.177574
-0.156069
-0.13412
-0.114163
-0.097687
-0.0852662
-0.0768987
-0.0723559
-0.0713526
-0.0736865
-0.079507
-0.0894666
-0.104092
-0.122541
-0.141596
-0.156253
-0.161633
-0.155463
-0.139464
-0.117996
-0.0957058
-0.0756069
-0.0591217
-0.0468397
-0.0382563
-0.0333977
-0.0317299
-0.0350878
-0.0414803
-0.0492792
-0.0524995
-0.0478941
-0.0339003
-0.0123964
-0.403788
-0.414704
-0.425011
-0.435983
-0.44621
-0.455237
-0.462445
-0.467203
-0.468859
-0.466796
-0.460461
-0.449452
-0.43359
-0.412955
-0.388001
-0.359552
-0.328771
-0.297047
-0.265825
-0.236434
-0.209938
-0.187071
-0.16826
-0.153682
-0.143375
-0.137371
-0.135772
-0.138662
-0.145846
-0.156508
-0.169008
-0.181011
-0.189934
-0.193508
-0.190303
-0.180216
-0.164494
-0.145488
-0.125907
-0.108056
-0.0933954
-0.0825377
-0.0755584
-0.072304
-0.0725429
-0.0761273
-0.0832953
-0.0947923
-0.11113
-0.1313
-0.151787
-0.167263
-0.17259
-0.165452
-0.147805
-0.12438
-0.100223
-0.0785057
-0.0606867
-0.0472181
-0.037612
-0.0317227
-0.0289877
-0.0310699
-0.0361529
-0.0428974
-0.0456728
-0.0415962
-0.0292893
-0.0104693
-0.413036
-0.425801
-0.438449
-0.451077
-0.462922
-0.473375
-0.481778
-0.487455
-0.489727
-0.487956
-0.481533
-0.470021
-0.453211
-0.431192
-0.404441
-0.373847
-0.34067
-0.306412
-0.272625
-0.240719
-0.211802
-0.186638
-0.16565
-0.148984
-0.136627
-0.12853
-0.124712
-0.125246
-0.130034
-0.138472
-0.149203
-0.160142
-0.168851
-0.173106
-0.171356
-0.16336
-0.150115
-0.133705
-0.116601
-0.100962
-0.0882063
-0.0789861
-0.0734537
-0.0715289
-0.0730288
-0.0778644
-0.0863613
-0.0993501
-0.117334
-0.13915
-0.161014
-0.177287
-0.182577
-0.174552
-0.155352
-0.13007
-0.104137
-0.0808892
-0.0618182
-0.0472384
-0.0366735
-0.0298187
-0.0260848
-0.0269693
-0.0308226
-0.0365977
-0.038972
-0.0354535
-0.0247937
-0.00858519
-0.418953
-0.433387
-0.447448
-0.461394
-0.474514
-0.486101
-0.495488
-0.502002
-0.504771
-0.50331
-0.496906
-0.485086
-0.467609
-0.444556
-0.416419
-0.38414
-0.34906
-0.312771
-0.276908
-0.242934
-0.212002
-0.184891
-0.162012
-0.143484
-0.129252
-0.119211
-0.113309
-0.111575
-0.113994
-0.120161
-0.128996
-0.138694
-0.147003
-0.151779
-0.151418
-0.145459
-0.134683
-0.120896
-0.106313
-0.0929386
-0.0821406
-0.0746048
-0.0705568
-0.0699816
-0.0727403
-0.0788058
-0.0885886
-0.102996
-0.122529
-0.145896
-0.169072
-0.186123
-0.191402
-0.182615
-0.161998
-0.134993
-0.10741
-0.0827424
-0.0625191
-0.0469167
-0.0354672
-0.0277198
-0.0230626
-0.0228336
-0.0255406
-0.0304322
-0.0324468
-0.0295099
-0.0204458
-0.00675715
-0.421409
-0.437114
-0.452113
-0.466972
-0.481009
-0.493437
-0.503532
-0.510623
-0.513996
-0.512858
-0.506568
-0.494632
-0.476769
-0.453041
-0.423956
-0.390494
-0.354052
-0.316285
-0.278876
-0.24334
-0.210854
-0.182192
-0.157744
-0.137609
-0.121705
-0.109885
-0.102045
-0.098172
-0.0982717
-0.102135
-0.108963
-0.117246
-0.124951
-0.130045
-0.130961
-0.126845
-0.118461
-0.107253
-0.0951762
-0.0840705
-0.0752444
-0.0694103
-0.0668598
-0.0676313
-0.0716275
-0.0788812
-0.0898841
-0.105613
-0.126571
-0.151369
-0.175783
-0.193598
-0.198889
-0.189514
-0.167649
-0.139091
-0.110013
-0.0840578
-0.0627977
-0.0462726
-0.034022
-0.0254607
-0.0199613
-0.018707
-0.0203529
-0.0244459
-0.0261402
-0.0237994
-0.0162723
-0.00499607
-0.42045
-0.437047
-0.4527
-0.468116
-0.482747
-0.495795
-0.506475
-0.513959
-0.517687
-0.516845
-0.510744
-0.498848
-0.480844
-0.456786
-0.427184
-0.393044
-0.355798
-0.317135
-0.278769
-0.242225
-0.208672
-0.178871
-0.153198
-0.131733
-0.114376
-0.100958
-0.0913398
-0.0854709
-0.0833642
-0.0849245
-0.0896487
-0.0963448
-0.103231
-0.108383
-0.110262
-0.107869
-0.101753
-0.0930097
-0.083359
-0.0744732
-0.0675916
-0.0634433
-0.0623752
-0.0644685
-0.0696633
-0.0780439
-0.0901789
-0.107107
-0.129343
-0.155437
-0.181003
-0.19957
-0.204881
-0.19515
-0.172232
-0.142319
-0.111925
-0.0848357
-0.062668
-0.0453294
-0.0323681
-0.0230761
-0.0168187
-0.0146304
-0.0153004
-0.0186772
-0.0200883
-0.0183509
-0.0122957
-0.00331099
-0.41639
-0.433525
-0.449596
-0.46529
-0.480199
-0.493596
-0.504928
-0.512347
-0.516304
-0.515689
-0.509802
-0.498055
-0.480118
-0.456039
-0.426337
-0.39203
-0.354558
-0.315608
-0.276883
-0.239881
-0.205749
-0.175224
-0.148669
-0.126155
-0.107578
-0.0927572
-0.081531
-0.0738232
-0.0696456
-0.068981
-0.0715404
-0.0764863
-0.082329
-0.0872815
-0.0898429
-0.0889475
-0.0848814
-0.0784161
-0.0710522
-0.0642863
-0.0592795
-0.0567685
-0.0571378
-0.0605057
-0.0668412
-0.076271
-0.0894286
-0.107413
-0.130761
-0.157997
-0.184626
-0.203945
-0.209229
-0.199456
-0.175694
-0.144643
-0.113137
-0.0850838
-0.0621487
-0.0441126
-0.0305363
-0.0206
-0.0136707
-0.0106407
-0.0104187
-0.0131583
-0.0143202
-0.0131919
-0.00853502
-0.00170914
-0.409732
-0.427138
-0.443397
-0.459106
-0.474008
-0.487327
-0.497955
-0.506151
-0.510366
-0.509937
-0.504257
-0.49273
-0.475031
-0.451217
-0.421812
-0.38783
-0.350688
-0.312036
-0.273522
-0.236591
-0.202346
-0.171495
-0.144388
-0.121102
-0.101537
-0.085514
-0.0728633
-0.0634889
-0.0573932
-0.0546143
-0.0550298
-0.0580944
-0.0626685
-0.0671608
-0.0701348
-0.0704805
-0.0681478
-0.0637206
-0.0584561
-0.0536652
-0.0504248
-0.0494705
-0.0512046
-0.0557771
-0.0631755
-0.0735603
-0.0876162
-0.106497
-0.130776
-0.158987
-0.18659
-0.206691
-0.211864
-0.202414
-0.178001
-0.146046
-0.113649
-0.0848172
-0.0612631
-0.0426502
-0.0285578
-0.0180651
-0.01055
-0.00677054
-0.00573836
-0.00791568
-0.00885913
-0.00834055
-0.00500405
-0.000195862
-0.40123
-0.418594
-0.434766
-0.450204
-0.464924
-0.478823
-0.488714
-0.496495
-0.500589
-0.500203
-0.494675
-0.483405
-0.46609
-0.442804
-0.414069
-0.380875
-0.344587
-0.306773
-0.268997
-0.232621
-0.198688
-0.167875
-0.140524
-0.116724
-0.0963933
-0.0793699
-0.0654851
-0.0546301
-0.0467933
-0.0420373
-0.040367
-0.0414908
-0.0445953
-0.0483612
-0.0514556
-0.0528652
-0.0517981
-0.0491582
-0.0457727
-0.0427749
-0.0411604
-0.0416501
-0.0446527
-0.050338
-0.0587031
-0.0699337
-0.0847519
-0.104361
-0.129378
-0.158387
-0.186865
-0.207852
-0.214427
-0.204073
-0.179137
-0.146523
-0.11347
-0.0840577
-0.0600382
-0.0409714
-0.0264632
-0.0155024
-0.00748638
-0.0030485
-0.00128518
-0.0029703
-0.00372241
-0.00380363
-0.00171209
0.0012252
-0.408511
-0.424307
-0.439099
-0.452767
-0.464561
-0.475835
-0.483611
-0.487486
-0.487043
-0.48161
-0.470632
-0.453843
-0.431336
-0.403624
-0.371646
-0.336681
-0.300187
-0.263608
-0.228208
-0.19496
-0.164505
-0.137184
-0.113105
-0.0922173
-0.0743857
-0.0594563
-0.0473146
-0.0379326
-0.0313746
-0.0277217
-0.0268862
-0.028367
-0.031149
-0.034011
-0.0359127
-0.0360169
-0.0349481
-0.0331975
-0.0317836
-0.0316308
-0.0334236
-0.0375759
-0.0442621
-0.0534816
-0.0654363
-0.0808725
-0.101036
-0.126599
-0.156222
-0.185454
-0.207315
-0.215041
-0.204315
-0.179094
-0.146079
-0.11262
-0.0828325
-0.058504
-0.0391063
-0.0242819
-0.0129407
-0.00450619
0.000500904
0.00291978
0.00166183
0.00107763
0.000416637
0.00133475
0.00255197
-0.397305
-0.412515
-0.426606
-0.439793
-0.451203
-0.461118
-0.468183
-0.471617
-0.470987
-0.465608
-0.454978
-0.438872
-0.417394
-0.39103
-0.360648
-0.32741
-0.292636
-0.257636
-0.223559
-0.191303
-0.161477
-0.134424
-0.110275
-0.0890186
-0.0705583
-0.0547653
-0.0415294
-0.0308077
-0.0226505
-0.0171713
-0.0144233
-0.0141767
-0.0157355
-0.0180577
-0.0201231
-0.0210668
-0.0212887
-0.0209067
-0.0208546
-0.0219787
-0.0249159
-0.0300792
-0.037637
-0.0475854
-0.0601332
-0.0760394
-0.0965856
-0.122508
-0.152562
-0.182409
-0.205066
-0.213479
-0.203095
-0.17788
-0.144736
-0.11113
-0.0811737
-0.0566926
-0.037085
-0.022042
-0.0104062
-0.00163227
0.00385734
0.00685988
0.00596941
0.00553281
0.00432014
0.00413302
0.0037839
-0.385048
-0.399568
-0.413602
-0.424428
-0.43525
-0.444179
-0.450437
-0.453388
-0.452524
-0.447219
-0.437039
-0.421794
-0.401588
-0.376864
-0.348393
-0.317205
-0.284464
-0.251334
-0.218847
-0.187824
-0.158844
-0.132254
-0.108217
-0.0867622
-0.0678378
-0.0513494
-0.037202
-0.0253436
-0.0158033
-0.00869447
-0.00414776
-0.00214109
-0.00228412
-0.00378359
-0.00572114
-0.00712758
-0.00833802
-0.00905279
-0.0101395
-0.0123422
-0.0162531
-0.022273
-0.0305594
-0.041101
-0.054106
-0.0703357
-0.0911025
-0.117207
-0.14752
-0.177836
-0.201205
-0.210288
-0.200466
-0.175525
-0.142531
-0.109037
-0.0791181
-0.054638
-0.0349377
-0.0197697
-0.00792236
0.00111604
0.00700451
0.0105225
0.00994539
0.00963834
0.00790763
0.00668159
0.00492192
-0.384258
-0.39528
-0.40733
-0.41734
-0.425344
-0.430781
-0.433249
-0.432181
-0.427041
-0.417457
-0.403262
-0.384549
-0.361701
-0.33538
-0.30647
-0.275978
-0.244917
-0.214206
-0.184592
-0.156623
-0.130655
-0.106882
-0.0853799
-0.066141
-0.0491116
-0.0342206
-0.0214163
-0.0107071
-0.00218672
0.00398838
0.00770753
0.00910157
0.00867698
0.0071497
0.00509939
0.0037733
0.0022422
0.000232939
-0.00284776
-0.00755489
-0.014267
-0.0231297
-0.034123
-0.047448
-0.0638609
-0.0846996
-0.110829
-0.14124
-0.171884
-0.195873
-0.205643
-0.196522
-0.172094
-0.139518
-0.106387
-0.076706
-0.0523751
-0.0326942
-0.0174893
-0.00551
0.00372287
0.00993016
0.0138989
0.0135864
0.0133925
0.0111806
0.00898109
0.00596838
-0.38001
-0.389593
-0.398081
-0.405058
-0.409743
-0.411764
-0.410584
-0.405743
-0.396913
-0.383941
-0.366895
-0.346086
-0.322063
-0.295564
-0.267439
-0.238561
-0.209736
-0.181643
-0.154802
-0.129579
-0.1062
-0.0847814
-0.0653639
-0.0479345
-0.032452
-0.0188748
-0.00719714
0.00251451
0.0101125
0.0154223
0.0183886
0.0192469
0.0185108
0.0168209
0.0150529
0.0128911
0.010169
0.00639973
0.00107277
-0.0061641
-0.0154472
-0.0267492
-0.0402607
-0.056727
-0.077507
-0.103526
-0.133892
-0.164729
-0.189236
-0.199704
-0.191371
-0.167666
-0.135764
-0.103232
-0.0739798
-0.0499384
-0.0303819
-0.015222
-0.00318598
0.00617637
0.0126264
0.0169847
0.0168931
0.0167967
0.0141486
0.0110338
0.00692695
-0.362304
-0.370503
-0.377878
-0.383863
-0.387931
-0.389602
-0.388438
-0.384038
-0.3761
-0.364476
-0.349201
-0.33051
-0.30884
-0.284789
-0.259063
-0.232402
-0.205508
-0.178996
-0.153361
-0.128975
-0.106093
-0.0848732
-0.0653989
-0.0476975
-0.0317604
-0.0175632
-0.00509593
0.00560031
0.0144047
0.0211303
0.0256151
0.0278788
0.028212
0.0271438
0.0253352
0.0228107
0.0195971
0.01532
0.00954271
0.00194448
-0.00760581
-0.019077
-0.032649
-0.0490528
-0.069664
-0.0954603
-0.125662
-0.156564
-0.181479
-0.192621
-0.185134
-0.162332
-0.131336
-0.099624
-0.0709779
-0.0473568
-0.0280229
-0.0129834
-0.000961599
0.00846976
0.0150902
0.0197801
0.0198707
0.0198555
0.0168189
0.012843
0.00780262
-0.35097
-0.357273
-0.362507
-0.366045
-0.367484
-0.366464
-0.362614
-0.355655
-0.345438
-0.331957
-0.315377
-0.296027
-0.27438
-0.251011
-0.226537
-0.201566
-0.176652
-0.152264
-0.12878
-0.106479
-0.0855558
-0.0661326
-0.0482745
-0.0320052
-0.0173228
-0.00422231
0.00727301
0.0170744
0.025014
0.0308889
0.0345771
0.0361584
0.0359603
0.0345012
0.0319293
0.0284578
0.0238514
0.0177856
0.00998101
0.000309155
-0.0112006
-0.0247194
-0.040963
-0.0613186
-0.0868038
-0.11674
-0.147591
-0.172789
-0.184549
-0.177931
-0.156187
-0.12631
-0.0956159
-0.0677364
-0.0446564
-0.025637
-0.0107872
0.00115422
0.0105992
0.0173206
0.0222876
0.0225271
0.0225777
0.0191999
0.014413
0.00860176
-0.331512
-0.337035
-0.341639
-0.34473
-0.346043
-0.345248
-0.342
-0.336041
-0.327212
-0.315471
-0.300915
-0.28378
-0.264426
-0.24331
-0.22094
-0.19784
-0.174504
-0.151379
-0.12884
-0.107187
-0.0866453
-0.0673717
-0.0494648
-0.032979
-0.017937
-0.00434548
0.00778039
0.0183806
0.0273209
0.034403
0.0394345
0.0423335
0.0432119
0.0424267
0.0401752
0.0366926
0.0319434
0.0257448
0.0178764
0.00821699
-0.00321083
-0.0165735
-0.0325749
-0.0526104
-0.0777255
-0.107325
-0.138017
-0.163353
-0.175626
-0.16991
-0.149365
-0.120798
-0.0912982
-0.064327
-0.0418923
-0.0232683
-0.00866459
0.00313872
0.0125527
0.0193118
0.024505
0.0248666
0.0249699
0.0213069
0.0157515
0.00933256
-0.317844
-0.321893
-0.324643
-0.325901
-0.325362
-0.322715
-0.317716
-0.310197
-0.300084
-0.287412
-0.272334
-0.255113
-0.236101
-0.215714
-0.194397
-0.172593
-0.15072
-0.12915
-0.108196
-0.0881059
-0.0690651
-0.0512015
-0.0345968
-0.0192974
-0.00532622
0.00729997
0.0185397
0.0282929
0.0363901
0.0426229
0.0468141
0.0489121
0.0491133
0.0474406
0.0441947
0.0395346
0.033378
0.0255812
0.0160481
0.00479764
-0.00833433
-0.0240375
-0.0437033
-0.068386
-0.09757
-0.128024
-0.153376
-0.166173
-0.161242
-0.142025
-0.114959
-0.0868176
-0.0608745
-0.0391616
-0.0209908
-0.0066673
0.00495385
0.0143063
0.0210534
0.0264252
0.0268885
0.0270244
0.0231517
0.0168648
0.0100047
-0.30373
-0.306314
-0.307636
-0.30742
-0.305392
-0.30132
-0.295032
-0.286429
-0.275497
-0.262323
-0.247086
-0.230051
-0.211546
-0.191946
-0.171641
-0.151017
-0.130433
-0.110206
-0.0906014
-0.0718299
-0.0540473
-0.0373624
-0.021846
-0.00754134
0.0055239
0.017317
0.0277688
0.0367521
0.0440785
0.0495327
0.0529807
0.0546329
0.0535184
0.0506752
0.0463659
0.0404974
0.0329731
0.0237302
0.0127887
-1.67369e-05
-0.0153754
-0.0346758
-0.0589624
-0.0877626
-0.117844
-0.142912
-0.156036
-0.151648
-0.133981
-0.108681
-0.0820899
-0.0572976
-0.0363914
-0.0187367
-0.004739
0.00664966
0.0158953
0.0225772
0.0280747
0.0286129
0.0287427
0.02472
0.0177512
0.0106269
-0.285021
-0.287224
-0.288442
-0.288416
-0.286891
-0.283644
-0.278492
-0.271309
-0.262038
-0.250698
-0.237391
-0.2223
-0.205675
-0.187821
-0.169078
-0.149796
-0.13032
-0.110964
-0.0920076
-0.07368
-0.0561624
-0.0395897
-0.0240577
-0.00963104
0.00364629
0.0157363
0.0265909
0.0361298
0.0442259
0.050675
0.0552084
0.0576365
0.0580665
0.0562101
0.0523806
0.0468317
0.0396351
0.0307562
0.0202008
0.00779795
-0.00710922
-0.0258524
-0.0494469
-0.0774996
-0.106925
-0.131437
-0.142672
-0.140893
-0.124924
-0.101416
-0.0764417
-0.052923
-0.0330121
-0.0160375
-0.00253256
0.00851493
0.0175342
0.0240296
0.0295852
0.0301212
0.0302469
0.0260587
0.0184226
0.0112164
-0.277259
-0.278095
-0.277763
-0.276019
-0.272646
-0.267475
-0.260391
-0.251342
-0.240349
-0.227509
-0.212988
-0.197019
-0.179882
-0.161888
-0.14336
-0.124614
-0.105942
-0.0876035
-0.0698139
-0.0527448
-0.0365274
-0.0212576
-0.00700323
0.00618518
0.0182614
0.029169
0.0388342
0.0471603
0.0540157
0.0592736
0.062834
0.0635854
0.062418
0.0592223
0.0541154
0.0472447
0.0386546
0.028342
0.0160323
0.000973071
-0.0181486
-0.0423169
-0.071184
-0.101451
-0.126521
-0.139621
-0.134642
-0.118158
-0.0950043
-0.070924
-0.0483952
-0.0294464
-0.0131858
-0.000276451
0.0103992
0.0191224
0.0253213
0.0308947
0.0313354
0.031574
0.0272486
0.0189294
0.0117423
-0.265065
-0.265399
-0.264651
-0.262605
-0.259067
-0.25389
-0.246974
-0.238275
-0.227812
-0.215665
-0.20198
-0.186956
-0.170838
-0.153897
-0.136419
-0.118687
-0.100964
-0.0834899
-0.0664667
-0.0500609
-0.0344017
-0.019587
-0.00568928
0.00723565
0.019139
0.0299691
0.0396607
0.0481211
0.0552079
0.0606886
0.0638489
0.0658208
0.065331
0.0626891
0.0580879
0.0516881
0.0435312
0.0335776
0.021489
0.00648924
-0.0126744
-0.0369091
-0.065786
-0.0957321
-0.119723
-0.130799
-0.126223
-0.11026
-0.0882474
-0.0655313
-0.0442516
-0.0263211
-0.0107951
0.00156311
0.0118638
0.0202997
0.0262715
0.0317787
0.0321449
0.032362
0.0279259
0.0191935
0.0120441
-0.252918
-0.252811
-0.251714
-0.249437
-0.245806
-0.240688
-0.233997
-0.22569
-0.215778
-0.204329
-0.191463
-0.177352
-0.162206
-0.146265
-0.129782
-0.11301
-0.0961905
-0.0795448
-0.0632644
-0.0475092
-0.0324077
-0.0180599
-0.00454291
0.00808289
0.0197654
0.0304535
0.0400879
0.0485832
0.0557999
0.0614979
0.0651901
0.0674165
0.0673585
0.0651599
0.0609891
0.0549973
0.0472046
0.0375301
0.0255981
0.0106592
-0.00842747
-0.0324127
-0.0606561
-0.0894048
-0.111888
-0.12185
-0.117215
-0.102004
-0.0813208
-0.060063
-0.040077
-0.0231835
-0.00841772
0.00337358
0.0132748
0.0214044
0.0271305
0.0325202
0.0328092
0.0329466
0.0284602
0.0193404
0.0122389
-0.241281
-0.240828
-0.239461
-0.237015
-0.233334
-0.228299
-0.221832
-0.213896
-0.204495
-0.193686
-0.18157
-0.168296
-0.154046
-0.13903
-0.123472
-0.107601
-0.0916358
-0.0757799
-0.0602136
-0.0450902
-0.0305359
-0.0166521
-0.003519
0.00879889
0.0202457
0.0307681
0.0403081
0.0487871
0.0560797
0.0619683
0.0660971
0.0685942
0.0689819
0.0672692
0.0635731
0.0580185
0.0505951
0.0411787
0.0293723
0.0144844
-0.00448295
-0.0280925
-0.0554898
-0.0829075
-0.10394
-0.11285
-0.108106
-0.0937072
-0.0743912
-0.0546093
-0.0359241
-0.0200723
-0.00607729
0.00513806
0.0146287
0.02244
0.0279011
0.0331477
0.0333579
0.0333975
0.0289027
0.0194003
0.0123742
-0.230052
-0.229321
-0.22774
-0.225168
-0.221467
-0.21653
-0.210288
-0.202707
-0.193789
-0.18358
-0.172167
-0.159675
-0.146265
-0.132119
-0.117437
-0.102423
-0.0872749
-0.0721812
-0.0573101
-0.0428081
-0.0287984
-0.0153824
-0.00264255
0.00935327
0.0205459
0.0308795
0.0402948
0.0487174
0.0560333
0.0620449
0.0664803
0.0692858
0.07012
0.068921
0.0657504
0.0606924
0.0536912
0.044573
0.0329273
0.0181358
-0.000649123
-0.0238069
-0.0503002
-0.0763522
-0.0958314
-0.103643
-0.0988614
-0.0853639
-0.067474
-0.0491918
-0.0318136
-0.0170045
-0.00378726
0.00684531
0.0159163
0.0233984
0.0285805
0.0336608
0.03379
0.0337136
0.0292382
0.0193792
0.0124564
-0.219196
-0.218244
-0.216497
-0.21384
-0.210147
-0.205326
-0.199313
-0.192078
-0.183621
-0.17398
-0.163226
-0.15147
-0.138849
-0.125524
-0.11167
-0.0974695
-0.0831041
-0.0687453
-0.0545503
-0.0406585
-0.0271895
-0.0142441
-0.00190612
0.00975395
0.020674
0.0307958
0.0400579
0.048387
0.0556779
0.061757
0.0664041
0.0694831
0.0707182
0.0700084
0.0673653
0.0628252
0.0562781
0.0474966
0.0360641
0.0214423
0.00293156
-0.0196685
-0.0451334
-0.0696564
-0.0874722
-0.0942331
-0.089527
-0.0770347
-0.0606213
-0.0438475
-0.0277704
-0.0139961
-0.00155807
0.0084879
0.0171321
0.0242758
0.0291682
0.0340587
0.0341042
0.0338931
0.0294681
0.0192801
0.0124819
-0.208717
-0.207592
-0.205725
-0.203017
-0.19936
-0.194668
-0.188887
-0.181988
-0.173971
-0.164865
-0.154733
-0.143668
-0.131788
-0.119234
-0.106163
-0.0927365
-0.0791189
-0.0654676
-0.051929
-0.038635
-0.0257013
-0.0132272
-0.00129718
0.0100162
0.0206484
0.0305386
0.0396231
0.0478288
0.0550572
0.0611561
0.0659366
0.069232
0.0708039
0.0705294
0.0683771
0.064336
0.0582416
0.0498184
0.038652
0.0242854
0.00616581
-0.015721
-0.0399594
-0.0627749
-0.0788967
-0.0847047
-0.0802006
-0.0688007
-0.0538897
-0.0386132
-0.0238183
-0.0110629
0.000600267
0.010059
0.0182715
0.0250696
0.0296644
0.0343432
0.0343019
0.03394
0.0295954
0.0191091
0.0124505
-0.19861
-0.197358
-0.195408
-0.19268
-0.189079
-0.184528
-0.17898
-0.172408
-0.164811
-0.156212
-0.146664
-0.136247
-0.125064
-0.113238
-0.100907
-0.0882158
-0.0753131
-0.0623427
-0.0494407
-0.0367316
-0.0243266
-0.0123228
-0.000805069
0.0101529
0.0204844
0.0301265
0.0390133
0.0470718
0.0542078
0.0602844
0.0651364
0.0685916
0.0704352
0.070531
0.0688129
0.0652273
0.0595643
0.0515124
0.0406682
0.0266546
0.00906518
-0.0119232
-0.0347339
-0.0557182
-0.0701734
-0.0751588
-0.0709833
-0.0607397
-0.0473319
-0.0335231
-0.0199797
-0.00821962
0.00267837
0.0115522
0.0193302
0.0257774
0.0300699
0.034517
0.0343859
0.0338602
0.0296223
0.0188743
0.0123638
-0.18887
-0.187525
-0.185526
-0.182804
-0.179277
-0.174878
-0.169563
-0.163308
-0.156111
-0.147993
-0.138996
-0.129189
-0.118662
-0.107522
-0.0958914
-0.0838997
-0.0716803
-0.059365
-0.0470799
-0.0349422
-0.0230582
-0.0115227
-0.000419862
0.0101758
0.020196
0.0295759
0.038248
0.0461393
0.0531584
0.0591789
0.0640546
0.0676188
0.0696735
0.0700746
0.0687277
0.0655446
0.0602831
0.0526132
0.0421523
0.0285996
0.0116924
-0.00821072
-0.0294262
-0.0485156
-0.0613831
-0.0657039
-0.0619759
-0.0529258
-0.0409965
-0.0286083
-0.0162747
-0.00547975
0.00466768
0.012962
0.0203046
0.0263972
0.0303858
0.034583
0.0343599
0.03366
0.0295513
0.0185845
0.0122238
-0.179486
-0.178081
-0.176059
-0.173367
-0.16993
-0.165689
-0.160606
-0.15466
-0.147847
-0.140183
-0.131706
-0.122475
-0.112566
-0.102074
-0.0911068
-0.0797799
-0.0682137
-0.0565284
-0.0448406
-0.0332603
-0.0218889
-0.0108184
-0.000131679
0.0100964
0.0197966
0.0289025
0.0373455
0.0450524
0.0519352
0.0578725
0.0627351
0.0663652
0.0685785
0.0692263
0.0681917
0.0653595
0.0604708
0.0531957
0.0431815
0.0302009
0.0141282
-0.00452112
-0.0240217
-0.0412189
-0.0526087
-0.0564588
-0.0532774
-0.0454271
-0.0349269
-0.0238962
-0.0127213
-0.0028554
0.00656053
0.0142835
0.0211917
0.0269278
0.0306141
0.0345447
0.0342283
0.0333461
0.029385
0.0182492
0.0120323
-0.170451
-0.169011
-0.166991
-0.164346
-0.161012
-0.156937
-0.152084
-0.146437
-0.139992
-0.132761
-0.124776
-0.116086
-0.106761
-0.0968815
-0.0865428
-0.0758482
-0.0649062
-0.0538265
-0.0427166
-0.0316795
-0.0208115
-0.0102014
6.93233e-05
0.00992628
0.0192995
0.0281217
0.0363234
0.0438313
0.0505615
0.0563941
0.0612154
0.0648764
0.0672051
0.0680511
0.0672804
0.0647582
0.0602225
0.0533595
0.0438558
0.0315546
0.0164547
-0.000808091
-0.0185371
-0.0339176
-0.0440276
-0.0475482
-0.0449792
-0.0383025
-0.0291596
-0.0194099
-0.00933475
-0.000357113
0.00835027
0.0155127
0.0219894
0.027368
0.030757
0.0344063
0.0339967
0.0329257
0.0291261
0.0178782
0.0117915
-0.161755
-0.160303
-0.158304
-0.155723
-0.152503
-0.148596
-0.143973
-0.138616
-0.132523
-0.125703
-0.118183
-0.110007
-0.101232
-0.0919319
-0.082189
-0.0720961
-0.0617507
-0.0512528
-0.0407015
-0.030193
-0.0198185
-0.00966341
0.000192892
0.00967662
0.0187178
0.0272485
0.0351989
0.042495
0.0490473
0.0547696
0.0595283
0.0631925
0.0656021
0.0666081
0.0660651
0.0638259
0.0596356
0.0532087
0.044277
0.0327503
0.0187335
0.00293728
-0.0130355
-0.0267341
-0.0357569
-0.0390872
-0.0371588
-0.0315995
-0.0237233
-0.0151679
-0.00612747
0.00200629
0.0100313
0.0166463
0.0226964
0.0277178
0.0308171
0.0341722
0.0336714
0.032407
0.0287777
0.0174815
0.0115033
-0.15339
-0.151945
-0.149984
-0.147478
-0.14438
-0.140645
-0.136248
-0.131173
-0.125418
-0.118989
-0.111911
-0.104219
-0.0959656
-0.087213
-0.0780354
-0.0685151
-0.0587399
-0.0488007
-0.038789
-0.0287942
-0.0189026
-0.00919596
0.000248607
0.0093585
0.0180641
0.0262973
0.0339885
0.041064
0.0474386
0.0530251
0.057703
0.0613482
0.0638115
0.064948
0.0646068
0.062635
0.058793
0.0528296
0.0445241
0.0338468
0.0209837
0.00667288
-0.0076231
-0.0198107
-0.0279298
-0.0311732
-0.0298761
-0.0253522
-0.0186386
-0.0111838
-0.00310914
0.0042277
0.0115989
0.0176819
0.0233123
0.0279774
0.0307972
0.0338475
0.0332598
0.0317983
0.0283436
0.0170685
0.0111699
-0.145348
-0.143925
-0.142015
-0.139595
-0.136624
-0.133064
-0.128889
-0.124088
-0.118656
-0.1126
-0.10594
-0.0987076
-0.0909467
-0.0827131
-0.0740719
-0.0650966
-0.0558662
-0.0464635
-0.0369725
-0.0274764
-0.0180565
-0.00879094
0.000245817
0.00898265
0.0173507
0.0252824
0.0327082
0.0395557
0.0457427
0.0511828
0.0557656
0.0593742
0.0618696
0.0631132
0.0629544
0.0612412
0.0577541
0.0522786
0.0446401
0.034859
0.0231746
0.0103121
-0.00243069
-0.0132881
-0.0206596
-0.0238781
-0.02317
-0.0195811
-0.0139179
-0.00746652
-0.000286647
0.00630177
0.0130497
0.0186179
0.0238373
0.028148
0.0307004
0.0334379
0.0327696
0.0311083
0.0278283
0.0166473
0.0107936
-0.13762
-0.136231
-0.134382
-0.132057
-0.129218
-0.125832
-0.121876
-0.117339
-0.112217
-0.106517
-0.100254
-0.0934566
-0.0861625
-0.0784206
-0.0702887
-0.0618323
-0.0531225
-0.0442346
-0.0352456
-0.026233
-0.0172732
-0.0084404
0.00019357
0.00855944
0.0165895
0.0242169
0.0313731
0.0379866
0.0439782
0.0492635
0.0537398
0.0572976
0.0598077
0.0611393
0.061147
0.059685
0.0565567
0.051584
0.0446336
0.0357637
0.0252402
0.0137471
0.00241306
-0.00728334
-0.0140272
-0.0172446
-0.0170591
-0.0142941
-0.0095662
-0.00402088
0.00233568
0.00822484
0.0143813
0.0194534
0.0242725
0.0282312
0.0305298
0.0329494
0.0322089
0.0303465
0.0272373
0.0162244
0.010377
-0.130196
-0.128852
-0.127073
-0.124848
-0.122144
-0.118931
-0.115189
-0.110907
-0.106084
-0.100722
-0.0948372
-0.0884519
-0.0816001
-0.0743245
-0.0666763
-0.0587139
-0.0505015
-0.0421073
-0.0336021
-0.0250577
-0.0165457
-0.00813666
0.000100564
0.0080988
0.0157918
0.023114
0.0299977
0.036373
0.0421632
0.0472869
0.0516477
0.0551432
0.0576536
0.0590572
0.0592166
0.0579965
0.0552243
0.0507555
0.0444925
0.0365184
0.0271046
0.0168776
0.00680562
-0.00187529
-0.00807589
-0.0112866
-0.011543
-0.00948773
-0.00558199
-0.0008477
0.00475589
0.00999488
0.0155922
0.0201884
0.0246197
0.0282296
0.0302887
0.0323886
0.0315857
0.0295224
0.0265774
0.0158035
0.00992337
-0.123068
-0.121776
-0.120073
-0.117953
-0.115385
-0.112344
-0.108811
-0.104776
-0.100238
-0.0952001
-0.0896738
-0.0836798
-0.0772473
-0.0704141
-0.0632255
-0.0557336
-0.0479961
-0.0400752
-0.0320357
-0.023944
-0.0158674
-0.00787237
-2.49034e-05
0.00761016
0.0149684
0.0219855
0.0285954
0.0347298
0.0403146
0.0452714
0.0495097
0.0529337
0.0554326
0.0568941
0.057191
0.0562006
0.053774
0.0497969
0.0442003
0.0370826
0.0287054
0.0196314
0.0106845
0.00289961
-0.00281344
-0.00599311
-0.00660612
-0.0051497
-0.0019584
0.00205547
0.00697416
0.0116113
0.016682
0.0208235
0.0248812
0.0281462
0.0299804
0.0317625
0.0309077
0.0286464
0.0258565
0.0153855
0.00943697
-0.116226
-0.114992
-0.113371
-0.111357
-0.108927
-0.106055
-0.102725
-0.0989292
-0.0946648
-0.089935
-0.0847499
-0.0791273
-0.0730926
-0.0666792
-0.0599273
-0.0528834
-0.0455995
-0.038132
-0.0305404
-0.0228861
-0.0152318
-0.00764051
-0.000174967
0.00710243
0.0141293
0.0208429
0.0271791
0.0330713
0.038448
0.0432342
0.0473447
0.0506898
0.0531675
0.0546747
0.0550952
0.0543199
0.0522221
0.0487133
0.0437478
0.0374308
0.030006
0.0219725
0.0140286
0.00704309
0.00178139
-0.00133487
-0.00222184
-0.00126107
0.00131557
0.00469382
0.0089925
0.0130751
0.0176514
0.0213601
0.0250601
0.0279849
0.0296088
0.0310781
0.0301823
0.0277293
0.0250834
0.0149685
0.0089238
-0.109662
-0.108491
-0.106954
-0.105049
-0.102754
-0.100049
-0.0969165
-0.0933505
-0.0893484
-0.0849127
-0.0800522
-0.0747822
-0.0691251
-0.0631102
-0.0567733
-0.050156
-0.0433051
-0.0362717
-0.0291104
-0.021878
-0.0146329
-0.00743446
-0.000342229
0.00658396
0.0132839
0.0196969
0.0257606
0.0314107
0.0365783
0.0411914
0.04517
0.0484307
0.0508791
0.0524213
0.0529521
0.052376
0.050586
0.0475157
0.0431371
0.037557
0.0309977
0.0238985
0.0168497
0.0105849
0.00574989
0.00272977
0.00164368
0.00220155
0.00425397
0.00707476
0.0108145
0.0143881
0.0185019
0.0218002
0.0251594
0.0277502
0.0291778
0.0303429
0.029416
0.0267821
0.0242674
0.0145484
0.00839176
-0.103366
-0.102261
-0.10081
-0.0990142
-0.0968548
-0.0943115
-0.0913709
-0.0880262
-0.0842752
-0.08012
-0.0755683
-0.0706332
-0.0653345
-0.059698
-0.0537555
-0.0475442
-0.0411064
-0.0344885
-0.0277403
-0.0209143
-0.014065
-0.00724797
-0.000519777
0.0060625
0.012441
0.0185572
0.0243508
0.0297599
0.0347184
0.0391572
0.0430015
0.0461734
0.048586
0.0501539
0.0507828
0.0503894
0.0488845
0.0462195
0.04238
0.0374714
0.0316932
0.025431
0.019183
0.0135719
0.00914366
0.0062485
0.00502805
0.00526417
0.00687295
0.00920746
0.0124453
0.0155537
0.0192358
0.0221466
0.0251827
0.0274469
0.0286919
0.0295641
0.0286147
0.0258164
0.0234175
0.0141199
0.00785076
-0.0973302
-0.0962927
-0.0949293
-0.0932424
-0.0912156
-0.0888306
-0.0860752
-0.0829431
-0.0794324
-0.0755447
-0.0712866
-0.0666696
-0.0617111
-0.0564338
-0.0508661
-0.0450413
-0.0389975
-0.0327767
-0.0264247
-0.0199898
-0.0135226
-0.00707525
-0.000701213
0.00554522
0.0116087
0.0174329
0.02296
0.0281302
0.0328803
0.037145
0.0408535
0.0439335
0.046305
0.0478907
0.0486061
0.0483795
0.0471366
0.0448433
0.0414954
0.0371944
0.0321186
0.0266051
0.0210756
0.016059
0.012018
0.00927078
0.00797013
0.00795403
0.00918998
0.0111024
0.0138908
0.0165758
0.0198562
0.0224026
0.0251337
0.0270804
0.0281561
0.028749
0.0277839
0.0248434
0.0225416
0.0136778
0.00731237
-0.0915465
-0.0905777
-0.0893017
-0.0877223
-0.0858252
-0.083594
-0.0810172
-0.0780892
-0.0748081
-0.0711753
-0.0671964
-0.0628816
-0.0582459
-0.0533097
-0.048098
-0.0426408
-0.0369725
-0.0311312
-0.0251587
-0.0190995
-0.0130007
-0.00691094
-0.000880669
0.00503864
0.0107942
0.0163322
0.0215969
0.0265314
0.0310752
0.0351665
0.0387388
0.0417247
0.0440509
0.0456473
0.0464388
0.0463637
0.0453603
0.0434062
0.0405043
0.0367516
0.0323058
0.027462
0.0225774
0.0181019
0.0144287
0.0118456
0.0105084
0.0102986
0.0112233
0.0127711
0.0151583
0.0174594
0.0203668
0.022572
0.0250161
0.0266565
0.0275755
0.0279044
0.0269284
0.0238738
0.0216467
0.0132186
0.00678892
-0.0860069
-0.0851069
-0.0839175
-0.0824436
-0.080673
-0.0785905
-0.0761857
-0.0734532
-0.0703913
-0.0670013
-0.0632878
-0.0592597
-0.0549304
-0.0503178
-0.0454443
-0.0403367
-0.035026
-0.0295469
-0.0239375
-0.0182389
-0.0124946
-0.00675014
-0.00105283
0.00454864
0.0100041
0.0152622
0.0202698
0.0249724
0.0293128
0.0332323
0.0366686
0.0395591
0.0418366
0.0434376
0.0442956
0.0443575
0.0435724
0.0419266
0.0394284
0.036169
0.0322879
0.028043
0.0237371
0.0197542
0.0164288
0.0140196
0.0126797
0.0123249
0.0129914
0.0142256
0.0162554
0.0182102
0.0207719
0.0226593
0.0248337
0.0261811
0.0269556
0.0270371
0.0260531
0.0229164
0.0207383
0.0127414
0.00629224
-0.0807036
-0.0798718
-0.0787677
-0.0773968
-0.0757488
-0.0738098
-0.07157
-0.0690246
-0.0661719
-0.0630128
-0.0595514
-0.0557955
-0.0517568
-0.0474511
-0.0428986
-0.0381232
-0.0331529
-0.0280192
-0.0227569
-0.0174038
-0.0120002
-0.00658845
-0.00121293