/*--------------------------------*- C++ -*----------------------------------*\
  =========                 |
  \\      /  F ield         | OpenFOAM: The Open Source CFD Toolbox
   \\    /   O peration     | Website:  https://openfoam.org
    \\  /    A nd           | Version:  7
     \\/     M anipulation  |
\*---------------------------------------------------------------------------*/
FoamFile
{
    version     2.0;
    format      ascii;
    class       volScalarField;
    location    "0.8";
    object      p;
}
// * * * * * * * * * * * * * * * * * * * * * * * * * * * * * * * * * * * * * //

dimensions      [0 2 -2 0 0 0 0];

internalField   nonuniform List<scalar> 
346
(
0.632161
0.624005
0.615848
0.607691
0.599534
0.591377
0.58322
0.575063
0.566906
0.558749
0.550592
1.03372
1.03593
1.03635
1.03527
1.0329
1.02947
1.02514
1.02008
1.01441
1.00824
1.00167
0.994776
0.987616
0.980245
0.972704
0.965029
0.957246
0.94938
0.941447
0.933462
0.925436
0.917379
0.909297
0.901196
0.893081
0.884956
0.876821
0.868681
0.860535
0.852387
0.844235
0.836082
0.827928
0.819772
0.811616
0.80346
0.795303
0.787146
0.778988
0.770831
0.762674
0.754517
0.74636
0.738202
0.730045
0.721888
0.713731
0.705574
0.697417
0.68926
0.681103
0.672946
0.664789
0.656632
0.648475
0.640318
0.632161
0.624005
0.615848
0.607691
0.599534
0.591377
0.58322
0.575063
0.566906
0.558749
0.550592
1.03383
1.036
1.0364
1.03529
1.03291
1.02947
1.02514
1.02007
1.0144
1.00823
1.00166
0.994765
0.987606
0.980236
0.972696
0.965022
0.95724
0.949374
0.941442
0.933458
0.925433
0.917376
0.909295
0.901195
0.89308
0.884954
0.87682
0.86868
0.860535
0.852386
0.844235
0.836082
0.827927
0.819772
0.811616
0.803459
0.795302
0.787145
0.778988
0.770831
0.762674
0.754517
0.74636
0.738202
0.730045
0.721888
0.713731
0.705574
0.697417
0.68926
0.681103
0.672946
0.664789
0.656632
0.648475
0.640318
0.632161
0.624005
0.615848
0.607691
0.599534
0.591377
0.58322
0.575063
0.566906
0.558749
0.550592
1.03416
1.03626
1.03661
1.03545
1.03304
1.02957
1.02521
1.02013
1.01444
1.00826
1.00169
0.994783
0.98762
0.980245
0.972703
0.965026
0.957243
0.949377
0.941443
0.933458
0.925433
0.917376
0.909294
0.901194
0.89308
0.884954
0.87682
0.868679
0.860534
0.852386
0.844235
0.836082
0.827927
0.819772
0.811616
0.803459
0.795302
0.787145
0.778988
0.770831
0.762674
0.754517
0.746359
0.738202
0.730045
0.721888
0.713731
0.705574
0.697417
0.68926
0.681103
0.672946
0.664789
0.656632
0.648475
0.640318
0.632161
0.624005
0.615848
0.607691
0.599534
0.591377
0.58322
0.575063
0.566906
0.558749
0.550592
1.03479
1.03678
1.03703
1.0358
1.03332
1.02979
1.02539
1.02027
1.01455
1.00835
1.00176
0.994839
0.987663
0.980279
0.972729
0.965046
0.957259
0.949388
0.941452
0.933465
0.925438
0.917379
0.909297
0.901196
0.893081
0.884955
0.87682
0.86868
0.860534
0.852386
0.844235
0.836081
0.827927
0.819772
0.811616
0.803459
0.795302
0.787145
0.778988
0.770831
0.762674
0.754517
0.746359
0.738202
0.730045
0.721888
0.713731
0.705574
0.697417
0.68926
0.681103
0.672946
0.664789
0.656632
0.648475
0.640318
0.632161
0.624005
0.615848
0.607691
0.599534
0.591377
0.58322
0.575063
0.566906
0.558749
0.550592
1.03575
1.03758
1.03769
1.03635
1.03377
1.03015
1.02569
1.02051
1.01474
1.00851
1.00188
0.994935
0.987738
0.980338
0.972775
0.965082
0.957286
0.949409
0.941468
0.933477
0.925447
0.917386
0.909302
0.9012
0.893083
0.884957
0.876822
0.868681
0.860535
0.852386
0.844235
0.836082
0.827927
0.819772
0.811616
0.803459
0.795302
0.787145
0.778988
0.770831
0.762674
0.754517
0.746359
0.738202
0.730045
0.721888
0.713731
0.705574
0.697417
0.68926
0.681103
0.672946
0.664789
0.656632
0.648475
0.640318
0.632161
0.624005
0.615848
0.607691
0.599534
0.591377
0.58322
0.575063
0.566906
0.558749
0.550592
)
;

boundaryField
{
    inlet
    {
        type            zeroGradient;
    }
    outlet
    {
        type            fixedValue;
        value           nonuniform 0();
    }
    wall
    {
        type            zeroGradient;
    }
    wedge1
    {
        type            wedge;
    }
    wedge2
    {
        type            wedge;
    }
    axis
    {
        type            empty;
    }
    procBoundary46to40
    {
        type            processor;
        value           nonuniform List<scalar> 
68
(
0.632161
0.624005
0.615848
0.607691
0.599534
0.591377
0.58322
0.575063
0.566906
0.558749
0.550592
1.03381
1.03602
1.03645
1.03536
1.03299
1.02955
1.02521
1.02014
1.01446
1.00829
1.00171
0.994812
0.987647
0.98027
0.972725
0.965046
0.957261
0.949392
0.941456
0.933469
0.925442
0.917384
0.909301
0.9012
0.893084
0.884958
0.876823
0.868682
0.860537
0.852388
0.844236
0.836083
0.827928
0.819773
0.811616
0.80346
0.795303
0.787146
0.778989
0.770831
0.762674
0.754517
0.74636
0.738202
0.730045
0.721888
0.713731
0.705574
0.697417
0.68926
0.681103
0.672946
0.664789
0.656632
0.648475
0.640318
0.640318
)
;
    }
    procBoundary46to41
    {
        type            processor;
        value           uniform 0.542435;
    }
    procBoundary46to45
    {
        type            processor;
        value           nonuniform List<scalar> 5(1.02944 1.0296 1.03002 1.03077 1.03192);
    }
    procBoundary46to47
    {
        type            processor;
        value           nonuniform List<scalar> 5(0.542435 0.542435 0.542435 0.542435 0.542435);
    }
}


// ************************************************************************* //
