/*--------------------------------*- C++ -*----------------------------------*\
  =========                 |
  \\      /  F ield         | OpenFOAM: The Open Source CFD Toolbox
   \\    /   O peration     | Website:  https://openfoam.org
    \\  /    A nd           | Version:  7
     \\/     M anipulation  |
\*---------------------------------------------------------------------------*/
FoamFile
{
    version     2.0;
    format      ascii;
    class       volScalarField;
    location    "2";
    object      p;
}
// * * * * * * * * * * * * * * * * * * * * * * * * * * * * * * * * * * * * * //

dimensions      [0 2 -2 0 0 0 0];

internalField   nonuniform List<scalar> 
433
(
-10.5824
-10.8153
-9.17847
-9.70838
-10.0322
-10.2106
-10.2949
-10.3184
-12.7254
-11.5327
-10.8013
-10.3655
-10.1099
-9.95841
-9.86237
-9.79269
-9.73286
-9.67408
-20.9879
-16.9426
-14.1648
-12.3085
-11.1006
-10.3329
-9.85614
-9.56342
-9.38079
-9.26078
-9.17363
-9.10143
-9.03386
-5.68362
-7.24346
-8.19654
-8.7237
-8.96883
-9.04235
-9.02065
-8.95558
-8.87649
-8.79777
-8.72456
-8.65707
-8.59344
-8.53121
-8.46812
-8.40228
-8.33221
60.6549
42.2331
27.7716
16.7608
8.67571
2.84234
-1.23075
-3.965
-5.72693
-6.81226
-7.44594
-7.79092
-7.95943
-8.02438
-8.03084
-8.00526
-7.96224
-7.90931
-7.8499
-7.78528
-7.71561
-7.64061
34.0747
24.471
17.1857
11.4559
6.81411
3.05366
0.0619488
-2.23056
-3.9645
-5.2265
-6.1059
-6.69331
-7.06379
-7.28203
-7.39769
-7.4465
-7.4532
-7.43404
-7.39908
-7.35416
-7.30243
-7.24537
-7.18356
-7.11717
-7.04599
-6.96795
-137.967
-118.56
-98.7608
-79.45
-61.791
-46.7378
-34.7269
-25.6933
-19.2062
-14.7428
-11.7445
-9.80093
-8.58865
-7.85868
-7.43548
-7.19686
-7.06259
-6.98354
-6.93082
-6.88848
-6.84829
-6.80639
-6.76114
-6.71196
-6.65873
-6.60156
-6.54048
-6.47398
-6.40146
-6.30674
-235.806
-192.686
-155.536
-124.744
-99.4539
-78.4452
-60.8823
-46.4248
-34.9768
-26.2831
-19.9579
-15.4097
-12.2244
-10.0581
-8.63158
-7.71862
-7.15155
-6.80884
-6.6054
-6.48401
-6.40799
-6.35493
-6.31186
-6.27176
-6.23105
-6.18806
-6.14215
-6.09326
-6.04141
-5.98538
-5.92464
-5.8447
53.5414
63.0699
67.388
64.6205
55.8974
44.071
31.9313
21.2691
12.7621
6.40321
1.87703
-1.20241
-3.23257
-4.50476
-5.2517
-5.65622
-5.8508
-5.92553
-5.93736
-5.91941
-5.88923
-5.855
-5.81983
-5.78443
-5.74855
-5.71165
-5.67328
-5.63314
-5.59119
-5.54739
-5.5006
-5.45022
-5.38321
379.02
333.748
289.56
247.442
207.836
170.906
136.974
106.603
80.408
58.6249
41.0964
27.4477
17.1756
9.68737
4.34312
0.660404
-1.77635
-3.32215
-4.25873
-4.79685
-5.08584
-5.22627
-5.28235
-5.29295
-5.28029
-5.25637
-5.22719
-5.19546
-5.16227
-5.12796
-5.09268
-5.05643
-5.01817
-4.97721
-4.92187
184.591
152.785
118.607
87.3441
61.1328
40.1387
24.1215
12.6171
5.33014
1.51155
-0.0458328
-0.521895
-0.729185
-1.05358
-1.5627
-2.16124
-2.7662
-3.31774
-3.77664
-4.13087
-4.3857
-4.5566
-4.66208
-4.71988
-4.74495
-4.74873
-4.73938
-4.72221
-4.70051
-4.67617
-4.6502
-4.62312
-4.59528
-4.56683
-4.53697
-4.50501
-4.4605
-402.651
-384.572
-366.16
-344.67
-320.099
-292.001
-261.174
-229.316
-198.025
-167.83
-139.067
-112.119
-87.5595
-66.1823
-48.5612
-34.8074
-24.6351
-17.4602
-12.5414
-9.26513
-7.17408
-5.88641
-5.12411
-4.69149
-4.45596
-4.33211
-4.26768
-4.23223
-4.20985
-4.19196
-4.17487
-4.15718
-4.13852
-4.11896
-4.09879
-4.07824
-4.0568
-4.03364
-3.99926
-439.71
-414.247
-390.96
-365.474
-333.787
-295.968
-252.877
-207.305
-163.204
-124.672
-94.1682
-71.7439
-55.6411
-43.6043
-34.0327
-26.2494
-20.0513
-15.2734
-11.7268
-9.12155
-7.25864
-5.96774
-5.10041
-4.53653
-4.18218
-3.96674
-3.83934
-3.76461
-3.72075
-3.69324
-3.67391
-3.65835
-3.64431
-3.63076
-3.6173
-3.60393
-3.59081
-3.57761
-3.56312
-3.5385
209.224
194.383
180.879
166.014
147.702
125.806
102.022
78.7638
58
40.7762
27.3061
17.2697
10.0366
5.04839
1.6969
-0.459081
-1.774
-2.52884
-2.93065
-3.12288
-3.19985
-3.21801
-3.21022
-3.19348
-3.17559
-3.15956
-3.14607
-3.13485
-3.12539
-3.11723
-3.11009
-3.10382
-3.09808
-3.09205
-3.07752
21.393
13.7226
8.15728
4.22346
1.54072
-0.211363
-1.30556
-1.95695
-2.31825
-2.50581
-2.5938
-2.62837
-2.63694
-2.6346
-2.62899
-2.62348
-2.61931
-2.61668
-2.61547
-2.61551
-2.61664
-2.61851
-2.62083
-2.61706
-2.03233
-2.03654
-2.04752
-2.05935
-2.07001
-2.07926
-2.08751
-2.0953
-2.10306
-2.11113
-2.11978
-2.12917
-2.13927
-2.15003
-2.15654
-1.62488
-1.64256
-1.66102
-1.68045
-1.69688
-5.77096
-5.38161
-4.98739
-4.5887
-6.12806
-5.69408
-5.25727
-4.81821
-4.37737
-3.93525
-3.49208
-3.05011
)
;

boundaryField
{
    inlet
    {
        type            zeroGradient;
    }
    outlet
    {
        type            fixedValue;
        value           nonuniform 0();
    }
    cylinder
    {
        type            zeroGradient;
    }
    top
    {
        type            symmetryPlane;
    }
    bottom
    {
        type            symmetryPlane;
    }
    defaultFaces
    {
        type            empty;
    }
    procBoundary7to1
    {
        type            processor;
        value           nonuniform List<scalar> 
13
(
-2.60525
-2.16308
-1.72062
-5.43318
-5.0796
-4.72152
-4.35882
-4.18604
-4.18604
-3.78002
-3.37126
-2.96032
-2.60525
)
;
    }
    procBoundary7to6
    {
        type            processor;
        value           nonuniform List<scalar> 
24
(
-11.9103
-11.8274
-10.919
-10.919
-10.9456
-10.3031
-10.3031
-10.2632
-9.61193
-9.61193
-8.96513
-8.96513
-8.89203
-8.25667
-8.25667
-8.17467
-7.55961
-7.55961
-7.46971
-6.88208
-6.88208
-6.77012
-6.15599
-6.55865
)
;
    }
    procBoundary7to8
    {
        type            processor;
        value           nonuniform List<scalar> 
24
(
-6.13792
-4.32554
-3.22751
-2.60056
-2.26923
-2.11171
-2.04841
-2.04841
-1.57323
-1.5082
-1.49292
-1.50075
-1.51755
-1.53669
-1.55556
-1.57353
-1.59078
-1.60773
-1.60773
-1.13248
-1.15777
-1.18432
-1.21236
-1.23867
)
;
    }
    procBoundary7to13
    {
        type            processor;
        value           nonuniform List<scalar> 
38
(
-9.35768
-10.1383
-10.1383
-7.12648
-8.35352
-8.35352
-17.463
-14.6053
-14.6053
-34.6122
-26.7133
-26.7133
4.9862
0.266397
-3.27233
-3.27233
110.057
83.2963
83.2963
63.9232
46.9536
46.9536
-174.599
-156.643
-156.643
-283.124
-283.124
34.5357
42.7094
42.7094
461.996
423.114
423.114
221.663
207.253
207.253
-423.21
-423.21
)
;
    }
    procBoundary7to14
    {
        type            processor;
        value           nonuniform List<scalar> 
20
(
268.396
261.507
255.064
243.361
226.262
226.262
346.16
295.69
248.609
206.224
168.601
135.477
106.59
81.9719
61.5193
44.8948
31.6633
31.6633
-13.2702
-8.99684
)
;
    }
}


// ************************************************************************* //
