0.177249 	0.476399 	2.71871e-18 	1.03279 	-0.0418675 	5.90955e-17
0.179496 	0.482439 	4.0281e-18 	0.816911 	-0.0295208 	3.0823e-17
0.18124 	0.487125 	4.39376e-18 	0.797621 	-0.0258238 	7.30803e-17
0.184223 	0.495143 	4.71181e-18 	0.288615 	-0.00241415 	1.19723e-16
