/*--------------------------------*- C++ -*----------------------------------*\
  =========                 |
  \\      /  F ield         | OpenFOAM: The Open Source CFD Toolbox
   \\    /   O peration     | Website:  https://openfoam.org
    \\  /    A nd           | Version:  7
     \\/     M anipulation  |
\*---------------------------------------------------------------------------*/
FoamFile
{
    version     2.0;
    format      ascii;
    class       surfaceScalarField;
    location    "10";
    object      phi;
}
// * * * * * * * * * * * * * * * * * * * * * * * * * * * * * * * * * * * * * //

dimensions      [0 3 -1 0 0 0 0];

internalField   nonuniform List<scalar> 
825
(
-0.00128333
0.00995551
-0.00174816
-0.00994902
0.0099638
-0.00164132
0.00997366
-0.00153177
0.0099855
-0.00141565
-0.00129713
0.0103434
-0.00174745
-0.0103441
0.0103447
-0.00164261
0.0103478
-0.0015349
0.0103532
-0.00142103
-0.00130475
0.0107358
-0.00173999
-0.0107432
0.0107305
-0.00163736
0.0107274
-0.00153176
0.0107267
-0.00142036
-0.00130656
0.0111333
-0.00172621
-0.0111471
0.011122
-0.00162599
0.0111129
-0.00152273
0.0111066
-0.00141403
-0.00130293
0.0115366
-0.00170648
-0.0115564
0.0115195
-0.00160887
0.011505
-0.00150817
0.0114933
-0.00140236
-0.00129418
0.0119463
-0.00168118
-0.0119716
0.0119238
-0.00158634
0.011904
-0.00148842
0.0118873
-0.00138569
-0.00128061
0.0123628
-0.00165062
-0.0123934
0.0123352
-0.00155873
0.0123106
-0.00146376
0.0122892
-0.00136428
-0.00126248
0.012787
-0.00161511
-0.0128225
0.0127546
-0.00152632
0.0127253
-0.00143447
0.0126994
-0.00133839
-0.00124003
0.0132195
-0.00157492
-0.0132596
0.0131825
-0.00148938
0.0131488
-0.00140081
0.0131187
-0.00130827
-0.0012135
0.013661
-0.00153031
-0.0137056
0.0136197
-0.00144814
0.0135819
-0.00136299
0.0135478
-0.00127413
-0.00118307
0.0141124
-0.00148149
-0.0141612
0.0140671
-0.0014028
0.0140253
-0.00132122
0.0139873
-0.00123615
-0.00114894
0.0145747
-0.00142867
-0.0146275
0.0145254
-0.00135358
0.0144799
-0.00127566
0.0144382
-0.0011945
-0.00111125
0.0150488
-0.00137201
-0.0151054
0.0149958
-0.00130061
0.0149466
-0.00122649
0.0149015
-0.00114933
-0.00107016
0.0155358
-0.00131168
-0.0155961
0.0154792
-0.00124406
0.0154266
-0.00117383
0.015378
-0.00110078
-0.00102578
0.0160368
-0.00124778
-0.0161007
0.0159768
-0.00118403
0.0159208
-0.0011178
0.0158689
-0.00104894
-0.000978219
0.0165531
-0.00118042
-0.0166205
0.0164897
-0.00112064
0.0164304
-0.0010585
0.0163754
-0.000993916
-0.000927564
0.017086
-0.00110968
-0.0171568
0.0170193
-0.00105394
0.0169568
-0.00099598
0.0168987
-0.000935771
-0.000873883
0.0176369
-0.00103561
-0.0177109
0.0175669
-0.000983995
0.0175013
-0.000930311
0.0174401
-0.00087456
-0.00081723
0.0182072
-0.000958252
-0.0182845
0.018134
-0.000910845
0.0180652
-0.000861524
0.018001
-0.000810318
-0.000757641
0.0187985
-0.000877616
-0.0188791
0.0187221
-0.000834502
0.0186502
-0.000789637
0.018583
-0.000743066
-0.000695138
0.0194124
-0.000793702
-0.0194964
0.0193329
-0.000754968
0.0192579
-0.000714652
0.0191877
-0.000672809
-0.000629731
0.0200509
-0.000706489
-0.0201381
0.0199681
-0.000672227
0.01989
-0.000636557
0.0198168
-0.00059954
-0.000561415
0.0207156
-0.000615947
-0.0208062
0.0206296
-0.000586252
0.0205484
-0.00055533
0.0204721
-0.000523241
-0.00049018
0.0214087
-0.000522031
-0.0215027
0.0213195
-0.000497004
0.0212351
-0.000470936
0.0211557
-0.000443883
-0.000416001
0.0221325
-0.000424692
-0.0222298
0.0220399
-0.000404438
0.0219523
-0.000383336
0.0218698
-0.000361435
-0.000338854
0.0228892
-0.000323872
-0.02299
0.0227932
-0.000308503
0.0227024
-0.000292485
0.0226168
-0.000275858
-0.000258708
0.0236816
-0.000219516
-0.0237859
0.0235822
-0.000209148
0.0234881
-0.000198338
0.0233993
-0.000187114
-0.000175534
0.0245126
-0.000111568
-0.0246205
0.0244097
-0.000106324
0.0243123
-0.000100853
0.0242203
-9.51708e-05
-8.93054e-05
0.0253857
-0.0254973
0.0252794
0.0251785
0.0250834
0.00895838
0.0017779
0.00893656
0.00269163
0.00893933
0.00338932
0.00898507
0.00392992
0.00908273
0.00426631
0.009241
0.00441631
0.00944576
0.00438092
0.00968606
0.00413976
0.00390198
0.00931575
0.000619081
0.00929546
0.00179819
0.00928664
0.00270045
0.00930534
0.00337062
0.00936874
0.00386652
0.00948196
0.00415309
0.00965042
0.00424785
0.00985893
0.00417242
0.0100932
0.00390546
0.0036511
0.00965661
0.00063026
0.00964475
0.00181006
0.00964899
0.00269621
0.00968324
0.00333637
0.00976299
0.00378677
0.00989004
0.00402604
0.0100664
0.00407152
0.0102767
0.00396212
0.0105044
0.0036777
0.0034123
0.0100098
0.000638073
0.0100066
0.00181331
0.0100238
0.00267902
0.010073
0.00328712
0.0101677
0.00369211
0.0103067
0.00388696
0.0104889
0.0038894
0.0106992
0.00375178
0.0109201
0.0034568
0.00318528
0.0103758
0.000642436
0.0103812
0.00180784
0.0104111
0.00264916
0.0104746
0.00322358
0.0105826
0.00358408
0.0107319
0.00373767
0.010918
0.0037033
0.0111269
0.0035429
0.0113407
0.00324302
0.00296961
0.0107549
0.000643309
0.010769
0.00179365
0.0108111
0.00260706
0.0108881
0.00314662
0.0110079
0.00346423
0.0111656
0.00357998
0.0113541
0.0035148
0.0115603
0.00333672
0.0117668
0.00303655
0.00276481
0.0111475
0.00064069
0.0111704
0.00177084
0.0112241
0.00255328
0.0113135
0.00305724
0.0114436
0.00333412
0.011608
0.00341565
0.0117975
0.00332531
0.0119999
0.00313426
0.012199
0.00283751
0.00257035
0.0115543
0.000634621
0.0115855
0.00173959
0.0116503
0.00248849
0.011751
0.00295653
0.0118898
0.0031953
0.0120592
0.00324633
0.0122484
0.00313606
0.0124464
0.00293632
0.0126379
0.00264596
0.00238573
0.0119755
0.000625179
0.0120149
0.0017002
0.0120899
0.00241346
0.0122008
0.00284571
0.0123468
0.00304926
0.0125196
0.00307358
0.0127075
0.0029481
0.0129003
0.0027435
0.0130844
0.00246192
0.00221048
0.0124118
0.000612481
0.0124589
0.00165305
0.0125433
0.00232906
0.012663
0.002726
0.0128149
0.00289741
0.0129897
0.0028988
0.0131754
0.00276235
0.0133626
0.00255627
0.0135392
0.00228533
0.00204413
0.0128636
0.000596672
0.012918
0.00159862
0.0130109
0.00223619
0.0131382
0.00259868
0.0132945
0.00274112
0.01347
0.00272325
0.0136528
0.00257959
0.0138341
0.00237494
0.0140033
0.0021161
0.00188624
0.0133314
0.000577925
0.0133926
0.00153744
0.0134929
0.0021358
0.0136266
0.00246502
0.0137861
0.00258165
0.0139613
0.00254803
0.0141404
0.00240046
0.0143156
0.00219973
0.0144776
0.0019541
0.00173639
0.0138159
0.000556438
0.0138832
0.00147013
0.0139901
0.00202888
0.0141289
0.00232623
0.0142904
0.00242015
0.0144643
0.00237409
0.0146393
0.00222548
0.0148083
0.00203076
0.0149632
0.00179915
0.00159416
0.0143175
0.000532423
0.0143903
0.00139732
0.0145028
0.00191639
0.0146456
0.00218351
0.014808
0.00225768
0.0149799
0.00220223
0.0151503
0.00205505
0.015313
0.00186807
0.0154611
0.00165104
0.00145916
0.014837
0.000506106
0.0149147
0.00131968
0.0150318
0.00179928
0.0151774
0.00203793
0.0153399
0.00209517
0.015509
0.00203311
0.0156746
0.00188946
0.015831
0.00171162
0.0159725
0.00150954
0.00133099
0.015375
0.00047772
0.0154568
0.00123789
0.0155776
0.00167848
0.0157251
0.0018905
0.0158868
0.00193342
0.0160527
0.00186725
0.0162133
0.00172889
0.0163636
0.0015613
0.0164987
0.00137436
0.00120924
0.0159322
0.000447497
0.0160175
0.00115261
0.0161412
0.00155481
0.0162896
0.0017421
0.0164499
0.0017731
0.0166121
0.00170503
0.0167676
0.00157343
0.0169119
0.00141696
0.017041
0.00124522
0.00109353
0.0165092
0.000415665
0.0165974
0.00106445
0.0167231
0.00142907
0.0168718
0.00159348
0.0170301
0.00161475
0.0171884
0.0015467
0.0173388
0.00142306
0.0174774
0.00127837
0.0176009
0.00112177
0.000983435
0.0171069
0.00038244
0.0171973
0.000973991
0.0173245
0.00130192
0.0174727
0.00144525
0.0176287
0.00145875
0.017783
0.00139238
0.0179284
0.00127768
0.0180615
0.00114524
0.0181796
0.00100367
0.000878545
0.0177259
0.000348017
0.0178181
0.000881741
0.0179461
0.00117391
0.0180935
0.00129788
0.0182469
0.00130535
0.0183972
0.00124208
0.0185378
0.00113708
0.0186658
0.00101724
0.018779
0.000890496
0.00077842
0.0183671
0.00031257
0.0184607
0.000788116
0.0185891
0.00104549
0.0187353
0.00115168
0.018886
0.00115464
0.0190325
0.00109565
0.0191686
0.00100096
0.0192919
0.000893954
0.0194005
0.000781822
0.0006826
0.0190313
0.00027624
0.019126
0.000693435
0.0192545
0.000916936
0.0193994
0.00100679
0.0195475
0.00100655
0.0196903
0.000952833
0.0198224
0.000868936
0.0199414
0.000774906
0.0200461
0.000677155
0.000590595
0.0197194
0.000239131
0.019815
0.000597902
0.0199435
0.000788375
0.0200871
0.000863158
0.0202328
0.000860867
0.0203724
0.000813235
0.0205009
0.000740497
0.0206162
0.000659541
0.0207174
0.000575949
0.000501869
0.0204323
0.000201303
0.0205287
0.00050159
0.0206573
0.000659765
0.0207999
0.000720571
0.0209436
0.000717173
0.0210805
0.000676306
0.0212059
0.000615028
0.0213183
0.000547215
0.0214166
0.000477592
0.000415844
0.021171
0.000162769
0.0212682
0.000404432
0.0213971
0.00053087
0.0215391
0.000578595
0.0216814
0.000574876
0.0218163
0.000541339
0.0219396
0.000491777
0.0220496
0.000437182
0.0221458
0.000381387
0.000331865
0.0219365
0.000123488
0.0220347
0.000306203
0.0221643
0.000401248
0.0223063
0.000436577
0.022448
0.000433176
0.0225819
0.000407446
0.0227039
0.000369842
0.0228125
0.000328566
0.0229073
0.000286535
0.000249212
0.0227297
8.33602e-05
0.0228294
0.000206511
0.0229604
0.000270232
0.0231033
0.000293626
0.0232455
0.000291038
0.0233794
0.000273529
0.0235011
0.000248141
0.0236093
0.000220344
0.0237037
0.000192108
0.000167018
0.0235517
4.22176e-05
0.0236534
0.00010479
0.0237868
0.000136905
0.0239318
0.000148575
0.0240757
0.000147164
0.024211
0.000138247
0.0243337
0.000125371
0.0244428
0.0001113
0.0245379
9.70263e-05
8.43655e-05
0.0244035
0.0245083
0.0246452
0.0247938
0.024941
0.0250792
0.0252046
0.0253159
0.0254129
)
;

boundaryField
{
    inlet
    {
        type            calculated;
        value           nonuniform List<scalar> 
28
(
-0.00933018
-0.00966779
-0.0100176
-0.0103801
-0.0107557
-0.0111449
-0.0115482
-0.0119661
-0.0123991
-0.0128477
-0.0133126
-0.0137944
-0.0142935
-0.0148107
-0.0153467
-0.015902
-0.0164774
-0.0170736
-0.0176915
-0.0183316
-0.018995
-0.0196823
-0.0203945
-0.0211325
-0.0218972
-0.0226895
-0.0235106
-0.0243613
)
;
    }
    outlet
    {
        type            calculated;
        value           nonuniform 0();
    }
    cylinder
    {
        type            calculated;
        value           nonuniform 0();
    }
    top
    {
        type            symmetryPlane;
        value           uniform 0;
    }
    bottom
    {
        type            symmetryPlane;
        value           nonuniform 0();
    }
    defaultFaces
    {
        type            empty;
        value           nonuniform 0();
    }
    procBoundary30to24
    {
        type            processor;
        value           nonuniform List<scalar> 
17
(
0.0012629
0.00174167
0.00163303
0.0015219
-0.00962304
0.00140382
-0.00174944
-0.0026698
-0.00339209
-0.00397566
-0.00436398
-0.00457458
-0.00458569
-0.00438006
-0.00416493
-0.00898684
-0.000604654
)
;
    }
    procBoundary30to31
    {
        type            processor;
        value           nonuniform List<scalar> 
30
(
0.00964347
0.0099993
0.0103608
0.0107285
0.011103
0.0114846
0.0118738
0.012271
0.012677
0.0130922
0.0135173
0.0139532
0.0144006
0.0148604
0.0153336
0.0158214
0.0163247
0.016845
0.0173834
0.0179414
0.0185205
0.0191223
0.0197484
0.0204009
0.0210816
0.0217927
0.0225367
0.0233162
0.0241341
0.0249941
)
;
    }
}


// ************************************************************************* //
