/*--------------------------------*- C++ -*----------------------------------*\
  =========                 |
  \\      /  F ield         | OpenFOAM: The Open Source CFD Toolbox
   \\    /   O peration     | Website:  https://openfoam.org
    \\  /    A nd           | Version:  7
     \\/     M anipulation  |
\*---------------------------------------------------------------------------*/
FoamFile
{
    version     2.0;
    format      ascii;
    class       volScalarField;
    location    "2";
    object      p;
}
// * * * * * * * * * * * * * * * * * * * * * * * * * * * * * * * * * * * * * //

dimensions      [0 2 -2 0 0 0 0];

internalField   nonuniform List<scalar> 
344
(
0.00678964
0.00665075
0.00648088
0.00628459
0.00606579
0.00582782
0.0055735
0.00530526
0.00502516
0.00473497
0.00443618
0.0041301
0.00381782
0.00350028
0.00317829
0.00285255
0.00252366
0.00219215
0.00185845
0.00152299
0.00118609
0.000848104
0.000509274
0.00016989
-1.54603
-1.31585
-1.11547
-0.943104
-0.795978
-0.671028
-0.565226
-0.475773
-0.400186
-0.336316
-0.282337
-0.236705
-0.198122
-0.165498
-0.137917
-0.114604
-0.0949026
-0.0782601
-0.0642067
-0.0523451
-0.0423386
-0.0339028
-0.0267967
-0.020817
-0.0157913
-0.0115743
-0.00804289
-0.00509301
-0.00263662
-0.000599187
0.00108241
0.00246168
0.00358395
0.0044877
0.00520558
0.00576533
0.00619048
0.00650106
0.00671408
0.00684403
0.00690321
0.0069021
0.00684963
0.0067534
0.00661987
0.00645456
0.00626217
0.0060467
0.00581156
0.00555966
0.00529348
0.00501515
0.00472647
0.00442898
0.004124
0.00381267
0.00349595
0.00317467
0.00284955
0.0025212
0.00219015
0.00185687
0.00152178
0.00118521
0.000847513
0.000508945
0.000169794
-1.54323
-1.3169
-1.11906
-0.948281
-0.802019
-0.6774
-0.571565
-0.481848
-0.405861
-0.341524
-0.287054
-0.240934
-0.201883
-0.168821
-0.140836
-0.117154
-0.097121
-0.0801825
-0.0658669
-0.0537745
-0.0435665
-0.0349552
-0.0276974
-0.0215866
-0.0164483
-0.0121347
-0.0085206
-0.00550005
-0.00298335
-0.000894481
0.00083095
0.00224754
0.00340161
0.00433242
0.00507335
0.0056527
0.00609455
0.00641935
0.00664447
0.00678472
0.00685268
0.00685905
0.00681295
0.00672214
0.00659324
0.00643187
0.00624284
0.00603024
0.00579754
0.00554773
0.00528334
0.00500653
0.00471915
0.00442277
0.00411875
0.00380825
0.00349223
0.00317157
0.00284698
0.00251909
0.00218845
0.00185553
0.00152075
0.00118447
0.000847029
0.000508683
0.000169725
-1.54126
-1.31826
-1.12254
-0.953098
-0.807542
-0.683169
-0.577267
-0.487283
-0.410914
-0.34614
-0.291218
-0.244653
-0.205178
-0.171722
-0.143375
-0.119366
-0.0990404
-0.0818415
-0.0672963
-0.0550028
-0.0446195
-0.0358563
-0.0284673
-0.0222436
-0.0170085
-0.012612
-0.00892706
-0.00584609
-0.00327788
-0.00114515
0.000617623
0.00206599
0.00324708
0.00420089
0.00496137
0.00555736
0.00601337
0.00635021
0.00658559
0.00673457
0.00680995
0.00682265
0.00678194
0.00669572
0.00657073
0.0064127
0.00622651
0.00601633
0.0057857
0.00553765
0.00527477
0.00499925
0.00471297
0.00441754
0.00411433
0.00380452
0.00348911
0.00316896
0.00284482
0.00251733
0.00218704
0.00185442
0.00151992
0.00118388
0.000846646
0.000508485
0.000169681
-1.54007
-1.31986
-1.1259
-0.957548
-0.812545
-0.688335
-0.582329
-0.492075
-0.415342
-0.350162
-0.294829
-0.247864
-0.208011
-0.174206
-0.145541
-0.121247
-0.100668
-0.0832442
-0.068502
-0.0560366
-0.045504
-0.0366119
-0.0291118
-0.0227929
-0.0174763
-0.0130101
-0.00926574
-0.00613416
-0.00352288
-0.00135352
0.000440398
0.00191524
0.00311883
0.00409177
0.00486851
0.00547833
0.00594609
0.00629293
0.00653681
0.00669303
0.00677457
0.00679251
0.00675627
0.00667385
0.0065521
0.00639683
0.006213
0.00600482
0.00577591
0.00552932
0.00526769
0.00499323
0.00470787
0.00441322
0.00411068
0.00380145
0.00348654
0.00316682
0.00284306
0.00251589
0.00218588
0.00185353
0.00151925
0.00118341
0.000846355
0.000508346
0.000169661
-1.53962
-1.32164
-1.12911
-0.961619
-0.817018
-0.69289
-0.586747
-0.496223
-0.419148
-0.353597
-0.297897
-0.250578
-0.210395
-0.176288
-0.147351
-0.122814
-0.102019
-0.084406
-0.0694984
-0.0568893
-0.0462324
-0.0372332
-0.0296411
-0.0232434
-0.0178594
-0.0133359
-0.00954269
-0.00636955
-0.00372294
-0.00152356
0.000295845
0.00179234
0.00301432
0.00400287
0.00479289
0.00541398
0.00589133
0.00624631
0.00649713
0.00665924
0.0067458
0.00676801
0.00673539
0.00665608
0.00653696
0.00638394
0.00620202
0.00599548
0.00576795
0.00552256
0.00526194
0.00498835
)
;

boundaryField
{
    inlet
    {
        type            zeroGradient;
    }
    outlet
    {
        type            fixedValue;
        value           uniform 0;
    }
    wall
    {
        type            zeroGradient;
    }
    wedge1
    {
        type            wedge;
    }
    wedge2
    {
        type            wedge;
    }
    axis
    {
        type            empty;
    }
    procBoundary41to35
    {
        type            processor;
        value           nonuniform List<scalar> 
68
(
0.00683091
0.00668593
0.00651085
0.00631013
0.00608755
0.00584635
0.00558928
0.00531868
0.00503657
0.00474466
0.0044444
0.00413706
0.00382369
0.00350522
0.00318242
0.00285599
0.00252649
0.00219444
0.00186028
0.0015244
0.00118713
0.000848801
0.00050967
0.000170011
-1.54977
-1.31515
-1.11181
-0.937575
-0.789421
-0.664052
-0.558247
-0.469058
-0.393889
-0.330518
-0.277069
-0.231966
-0.193895
-0.161754
-0.134619
-0.111714
-0.0923833
-0.0760723
-0.0623136
-0.050712
-0.0409336
-0.0326967
-0.0257633
-0.0199327
-0.0150356
-0.0109291
-0.0074924
-0.00462358
-0.00223646
-0.000258175
0.00137297
0.00270922
0.00379483
0.00466735
0.00535863
0.00589572
0.00630157
0.00659571
0.00679473
0.00691275
0.00696177
0.006952
0.00689216
0.00689216
)
;
    }
    procBoundary41to40
    {
        type            processor;
        value           nonuniform List<scalar> 4(-1.80918 -1.80135 -1.7951 -1.79029);
    }
    procBoundary41to46
    {
        type            processor;
        value           uniform -1.78684;
    }
    procBoundary41to47
    {
        type            processor;
        value           nonuniform List<scalar> 
68
(
0.00470373
0.00440972
0.00410772
0.00379896
0.00348445
0.00316509
0.00284163
0.00251474
0.00218497
0.00185282
0.00151872
0.00118305
0.000846137
0.000508251
0.000169657
-1.53988
-1.32349
-1.13213
-0.96528
-0.820941
-0.696822
-0.59052
-0.499735
-0.422345
-0.356463
-0.300446
-0.252824
-0.212361
-0.178
-0.148835
-0.124095
-0.103121
-0.0853526
-0.0703091
-0.0575821
-0.0468235
-0.0377368
-0.0300697
-0.023608
-0.0181694
-0.0135992
-0.00976642
-0.00655962
-0.00388442
-0.00166076
0.000179254
0.00169324
0.00293007
0.00393123
0.00473195
0.00536214
0.00584721
0.00620877
0.00646517
0.00663203
0.00672263
0.00674828
0.00671859
0.00664177
0.00652478
0.00637356
0.00619318
0.00598795
0.00576155
0.00551711
0.00525731
0.00470373
0.00498442
)
;
    }
}


// ************************************************************************* //
