/*--------------------------------*- C++ -*----------------------------------*\
  =========                 |
  \\      /  F ield         | OpenFOAM: The Open Source CFD Toolbox
   \\    /   O peration     | Website:  https://openfoam.org
    \\  /    A nd           | Version:  7
     \\/     M anipulation  |
\*---------------------------------------------------------------------------*/
FoamFile
{
    version     2.0;
    format      ascii;
    class       volScalarField;
    location    "0.9996";
    object      p;
}
// * * * * * * * * * * * * * * * * * * * * * * * * * * * * * * * * * * * * * //

dimensions      [0 2 -2 0 0 0 0];

internalField   nonuniform List<scalar> 
5800
(
-0.0809614
-0.0381919
0.0012977
0.0340917
0.058007
0.0726931
0.0791127
0.0794008
0.0751797
-0.224642
-0.233776
-0.236939
-0.237143
-0.234395
-0.227223
-0.213902
-0.192953
-0.16379
-0.127285
-0.0857807
-0.0429004
-0.00311719
0.0300634
0.0544212
0.0695695
0.0764396
0.0771449
0.0732969
-0.23212
-0.240768
-0.243787
-0.24404
-0.241512
-0.234732
-0.221934
-0.201555
-0.172896
-0.136719
-0.0952184
-0.0521058
-0.0117596
0.0221727
0.0473919
0.0634398
0.0711868
0.072706
0.0695864
-0.242979
-0.250922
-0.253726
-0.25404
-0.251824
-0.245608
-0.233565
-0.214015
-0.186101
-0.150398
-0.108881
-0.0654104
-0.0242701
0.0107383
0.0371926
0.0545295
0.0635347
0.0662245
0.064155
-0.256815
-0.263862
-0.266384
-0.266762
-0.264926
-0.259415
-0.248327
-0.229835
-0.20288
-0.167767
-0.126201
-0.0822725
-0.0401449
-0.0037919
0.0242069
0.043155
0.0537362
0.0578984
0.0571539
-0.273143
-0.279137
-0.28131
-0.281739
-0.280324
-0.275622
-0.265645
-0.248395
-0.222551
-0.188035
-0.146613
-0.102062
-0.0587773
-0.0208727
0.00890123
0.0297004
0.0420994
0.0479696
0.0487695
0.0467933
-0.291424
-0.296248
-0.298011
-0.298459
-0.297475
-0.293638
-0.284879
-0.269003
-0.244367
-0.210536
-0.169242
-0.124032
-0.0794827
-0.0398971
-0.00820699
0.0145923
0.0289676
0.03671
0.0392134
0.0387076
-0.311107
-0.314686
-0.31598
-0.316401
-0.315821
-0.312859
-0.305359
-0.290931
-0.267528
-0.234509
-0.193293
-0.1474
-0.101545
-0.0602343
-0.0265821
-0.00172721
0.0146987
0.0244055
0.0287115
0.0297869
-0.331661
-0.333966
-0.334736
-0.335067
-0.334828
-0.332714
-0.326501
-0.31347
-0.291346
-0.259116
-0.21797
-0.171398
-0.12426
-0.0812685
-0.0457012
-0.0188244
-0.000352828
0.0113427
0.0174936
0.0202195
-0.352614
-0.353655
-0.353853
-0.354014
-0.354024
-0.352699
-0.347653
-0.335994
-0.315104
-0.283624
-0.242533
-0.195313
-0.146979
-0.102432
-0.0650813
-0.0362949
-0.0158523
-0.0022036
0.00578421
0.0101898
-0.373572
-0.373392
-0.372978
-0.372897
-0.37308
-0.372365
-0.368372
-0.357981
-0.338214
-0.307403
-0.26634
-0.218531
-0.169142
-0.123231
-0.0842996
-0.0537793
-0.0314959
-0.0159794
-0.00620434
-0.000128015
-0.394228
-0.392897
-0.391869
-0.391454
-0.391669
-0.391434
-0.388336
-0.379033
-0.360224
-0.329953
-0.288878
-0.240556
-0.190296
-0.143267
-0.103007
-0.0709735
-0.0470195
-0.0297584
-0.0182765
-0.0105674
-0.414396
-0.412014
-0.410344
-0.409523
-0.409647
-0.409736
-0.407333
-0.398894
-0.380821
-0.350923
-0.309778
-0.26103
-0.210112
-0.162242
-0.120934
-0.0876332
-0.0622029
-0.0433463
-0.0302598
-0.0209744
-0.433981
-0.430658
-0.428342
-0.427055
-0.426977
-0.42722
-0.425286
-0.417444
-0.399837
-0.370102
-0.328814
-0.279732
-0.228379
-0.179955
-0.137888
-0.103574
-0.0768699
-0.0565817
-0.0420095
-0.0312199
-0.452986
-0.448829
-0.445881
-0.444085
-0.443706
-0.443937
-0.442231
-0.434681
-0.417228
-0.387413
-0.345892
-0.296565
-0.244998
-0.196299
-0.153749
-0.118664
-0.0908846
-0.0693322
-0.0534035
-0.0411904
-0.471491
-0.4666
-0.463045
-0.460717
-0.459958
-0.460016
-0.458284
-0.450694
-0.433043
-0.402883
-0.361029
-0.311536
-0.259961
-0.211241
-0.168457
-0.132823
-0.104147
-0.08149
-0.064327
-0.0507619
-0.489635
-0.484094
-0.479966
-0.477102
-0.475901
-0.475634
-0.473611
-0.465622
-0.447402
-0.416617
-0.374325
-0.324736
-0.273332
-0.224808
-0.182004
-0.14601
-0.116594
-0.0929752
-0.0746519
-0.0597492
-0.507591
-0.501468
-0.496803
-0.493413
-0.491723
-0.490983
-0.488392
-0.479629
-0.460456
-0.428768
-0.385936
-0.336308
-0.285221
-0.237068
-0.194417
-0.158221
-0.128204
-0.103754
-0.0842498
-0.0679269
-0.525548
-0.518886
-0.513724
-0.509828
-0.507608
-0.506241
-0.502795
-0.492872
-0.472364
-0.439512
-0.396049
-0.346426
-0.295766
-0.248112
-0.205746
-0.169478
-0.139
-0.113849
-0.0930864
-0.0753285
-0.543688
-0.536512
-0.530886
-0.526506
-0.523712
-0.521556
-0.516952
-0.505482
-0.483276
-0.449029
-0.404859
-0.355271
-0.305113
-0.258042
-0.216052
-0.179815
-0.149018
-0.123307
-0.101363
-0.0826576
-0.562172
-0.554485
-0.548426
-0.543577
-0.540153
-0.537025
-0.530951
-0.517553
-0.493322
-0.457486
-0.412553
-0.363016
-0.313398
-0.266953
-0.225395
-0.189265
-0.158276
-0.132138
-0.10941
-0.0906508
-0.581123
-0.572915
-0.566444
-0.561129
-0.556998
-0.552696
-0.544827
-0.529143
-0.5026
-0.465029
-0.419295
-0.369816
-0.320745
-0.274933
-0.233828
-0.197859
-0.166767
-0.140301
-0.117219
-0.0985443
-0.600622
-0.591873
-0.585002
-0.579206
-0.574265
-0.568559
-0.558569
-0.540268
-0.511184
-0.471778
-0.425224
-0.375797
-0.327253
-0.282052
-0.241397
-0.205617
-0.174481
-0.147775
-0.124445
-0.105509
-0.620703
-0.611391
-0.604119
-0.597805
-0.59192
-0.584559
-0.572123
-0.550915
-0.519116
-0.477824
-0.430446
-0.381055
-0.332998
-0.288366
-0.248137
-0.212556
-0.181415
-0.154521
-0.130964
-0.111674
-0.641354
-0.631456
-0.623773
-0.61688
-0.609886
-0.600596
-0.585402
-0.561043
-0.526418
-0.483227
-0.435033
-0.385656
-0.338032
-0.293911
-0.254074
-0.218687
-0.187562
-0.160515
-0.136745
-0.11708
-0.662518
-0.652013
-0.643899
-0.636341
-0.628044
-0.616537
-0.598293
-0.57059
-0.533084
-0.488018
-0.439027
-0.389635
-0.342384
-0.298711
-0.259221
-0.224018
-0.192923
-0.165749
-0.141789
-0.121779
-0.684096
-0.672971
-0.664394
-0.65606
-0.646238
-0.632221
-0.610665
-0.579481
-0.539092
-0.492204
-0.44244
-0.393005
-0.346063
-0.302773
-0.263588
-0.228553
-0.197497
-0.170221
-0.146104
-0.125795
-0.705945
-0.6942
-0.685119
-0.675875
-0.664284
-0.647464
-0.622373
-0.587629
-0.544401
-0.495765
-0.44526
-0.395755
-0.349062
-0.306093
-0.267172
-0.232293
-0.201284
-0.173932
-0.149697
-0.129136
-0.727894
-0.715536
-0.705901
-0.695591
-0.681971
-0.662072
-0.633265
-0.594937
-0.548954
-0.498664
-0.447455
-0.397856
-0.351358
-0.308658
-0.269967
-0.235235
-0.204284
-0.176885
-0.152573
-0.131808
-0.749736
-0.736782
-0.726533
-0.714983
-0.699069
-0.675836
-0.643183
-0.601301
-0.552682
-0.500843
-0.448973
-0.399264
-0.35292
-0.310448
-0.271961
-0.237372
-0.206492
-0.179079
-0.154734
-0.133809
-0.771236
-0.757712
-0.746782
-0.733803
-0.715332
-0.688545
-0.651971
-0.606615
-0.555504
-0.502233
-0.449751
-0.399928
-0.353706
-0.311433
-0.273137
-0.238694
-0.207905
-0.180514
-0.156179
-0.135139
-0.792131
-0.778075
-0.766386
-0.751782
-0.730504
-0.699983
-0.65947
-0.610764
-0.55733
-0.502754
-0.449718
-0.399786
-0.353671
-0.311582
-0.273474
-0.23919
-0.208517
-0.181187
-0.156907
-0.135795
-0.812141
-0.797594
-0.785064
-0.768634
-0.744322
-0.709938
-0.665527
-0.613637
-0.558066
-0.502319
-0.448794
-0.398773
-0.352765
-0.310859
-0.272948
-0.238845
-0.20832
-0.181095
-0.156916
-0.135777
-0.830962
-0.815975
-0.802515
-0.784065
-0.756524
-0.718203
-0.669992
-0.615117
-0.557612
-0.500837
-0.446899
-0.396821
-0.350935
-0.309227
-0.271536
-0.237645
-0.207306
-0.180233
-0.156202
-0.135084
-0.848283
-0.832908
-0.818429
-0.797776
-0.766853
-0.724582
-0.672719
-0.615093
-0.55587
-0.498215
-0.443951
-0.393863
-0.348129
-0.30665
-0.269212
-0.235572
-0.205464
-0.178598
-0.154764
-0.133714
-0.863782
-0.848077
-0.832489
-0.809472
-0.775058
-0.728888
-0.673575
-0.613455
-0.55274
-0.494364
-0.439872
-0.389834
-0.344299
-0.30309
-0.265951
-0.232612
-0.202787
-0.176183
-0.152598
-0.131667
-0.877137
-0.861159
-0.844379
-0.818864
-0.780907
-0.73095
-0.672432
-0.6101
-0.548129
-0.489198
-0.434586
-0.384674
-0.339397
-0.298514
-0.26173
-0.228749
-0.199266
-0.172985
-0.149702
-0.128945
-0.888029
-0.871839
-0.853792
-0.82568
-0.784184
-0.730612
-0.669176
-0.604931
-0.54195
-0.482638
-0.428027
-0.37833
-0.333383
-0.292895
-0.256529
-0.223971
-0.194896
-0.169002
-0.146073
-0.12555
-0.896152
-0.879811
-0.860434
-0.829667
-0.784696
-0.727738
-0.663705
-0.597863
-0.534123
-0.474614
-0.420136
-0.370754
-0.326224
-0.286207
-0.250332
-0.218267
-0.18967
-0.164234
-0.141712
-0.121491
-0.901216
-0.884783
-0.864032
-0.830598
-0.782277
-0.722212
-0.655933
-0.588821
-0.524581
-0.465065
-0.410863
-0.361911
-0.317893
-0.278433
-0.24313
-0.211626
-0.183581
-0.158679
-0.136631
-0.116776
-0.902954
-0.886488
-0.864342
-0.828273
-0.776785
-0.713939
-0.645788
-0.577742
-0.513266
-0.453945
-0.400172
-0.351769
-0.308368
-0.26956
-0.234919
-0.204044
-0.176624
-0.152331
-0.130858
-0.111408
-0.901126
-0.884688
-0.86115
-0.822526
-0.76811
-0.702848
-0.633216
-0.56458
-0.500137
-0.441217
-0.388033
-0.340304
-0.297634
-0.25958
-0.225691
-0.195548
-0.168823
-0.14521
-0.124405
-0.105374
-0.895527
-0.879177
-0.854278
-0.813226
-0.756171
-0.68889
-0.618182
-0.549301
-0.485161
-0.426852
-0.37442
-0.327503
-0.285682
-0.248515
-0.215465
-0.186171
-0.160224
-0.137369
-0.117205
-0.0987512
-0.885987
-0.869787
-0.843586
-0.800278
-0.740919
-0.67204
-0.600668
-0.531886
-0.468318
-0.410824
-0.359314
-0.313385
-0.272527
-0.236422
-0.204295
-0.175925
-0.15084
-0.12881
-0.109309
-0.0915206
-0.872379
-0.856389
-0.828977
-0.783627
-0.722333
-0.652297
-0.580675
-0.512332
-0.449597
-0.393128
-0.342742
-0.298008
-0.258304
-0.223229
-0.192186
-0.164803
-0.140677
-0.119539
-0.100768
-0.0837054
-0.854618
-0.8389
-0.810395
-0.763256
-0.700427
-0.629684
-0.558223
-0.490648
-0.429011
-0.373805
-0.324796
-0.281345
-0.242916
-0.209026
-0.179153
-0.152856
-0.129766
-0.109584
-0.0916129
-0.0753367
-0.832663
-0.817281
-0.787829
-0.739184
-0.675243
-0.604251
-0.533352
-0.46687
-0.406624
-0.352947
-0.305405
-0.263411
-0.226396
-0.193835
-0.165227
-0.140115
-0.118139
-0.0989797
-0.0818724
-0.0664494
-0.806521
-0.791536
-0.761309
-0.711469
-0.646864
-0.576079
-0.506125
-0.441066
-0.382494
-0.330506
-0.284629
-0.24425
-0.208783
-0.177683
-0.150446
-0.126613
-0.105831
-0.0877597
-0.0715776
-0.0570776
-0.776247
-0.761711
-0.730903
-0.680209
-0.615413
-0.545257
-0.476613
-0.413308
-0.356635
-0.306549
-0.262518
-0.223911
-0.190125
-0.160606
-0.134845
-0.112382
-0.0928755
-0.0759578
-0.0607616
-0.0472555
-0.741931
-0.727899
-0.696729
-0.64557
-0.581034
-0.511826
-0.444914
-0.383664
-0.329129
-0.281146
-0.239135
-0.202448
-0.170473
-0.14265
-0.118464
-0.0974625
-0.0793089
-0.0636095
-0.0494603
-0.0370173
-0.703685
-0.690257
-0.658967
-0.607775
-0.543776
-0.475883
-0.411154
-0.352243
-0.300073
-0.254383
-0.214555
-0.179928
-0.149886
-0.123866
-0.101352
-0.0818969
-0.065172
-0.0507538
-0.0377129
-0.026399
-0.661666
-0.648986
-0.617851
-0.566937
-0.503515
-0.437844
-0.375493
-0.319171
-0.269576
-0.226356
-0.188864
-0.156431
-0.128437
-0.104319
-0.0835654
-0.065737
-0.0505114
-0.0374349
-0.0255633
-0.0154405
-0.616073
-0.604323
-0.573554
-0.522783
-0.461106
-0.397747
-0.338083
-0.284587
-0.237761
-0.197177
-0.162163
-0.132046
-0.106206
-0.0840831
-0.0651712
-0.049043
-0.0353807
-0.0237028
-0.0130609
-0.00418781
-0.567132
-0.556543
-0.526035
-0.476099
-0.416555
-0.355801
-0.299098
-0.248644
-0.204765
-0.166967
-0.134562
-0.106873
-0.0832847
-0.0632416
-0.0462456
-0.0318835
-0.0198411
-0.00961266
-0.000258023
0.00731012
-0.515083
-0.505954
-0.475582
-0.42728
-0.370059
-0.312219
-0.258726
-0.211509
-0.170737
-0.135861
-0.106182
-0.081023
-0.0597739
-0.0418861
-0.0268728
-0.0143359
-0.00396096
0.00477741
0.0127948
0.019009
-0.460249
-0.452659
-0.422993
-0.376474
-0.321876
-0.267232
-0.217168
-0.17336
-0.135836
-0.104002
-0.077152
-0.0546126
-0.0357798
-0.0201141
-0.00714325
0.00351676
0.0121876
0.0194103
0.0260475
0.0308608
-0.403408
-0.396881
-0.368452
-0.323959
-0.272276
-0.22108
-0.17464
-0.134388
-0.100232
-0.0715438
-0.0476103
-0.0277661
-0.0114147
0.00197193
0.0128489
0.0215898
0.028536
0.0342325
0.0394265
0.0427345
-0.344633
-0.339164
-0.312241
-0.270053
-0.22155
-0.174018
-0.131365
-0.0947932
-0.0641056
-0.0386458
-0.0177009
-0.000612968
0.0132047
0.0242661
0.0330077
0.0398017
0.0450239
0.0491836
0.0527817
0.0543028
-0.284257
-0.279958
-0.254712
-0.21509
-0.169997
-0.126311
-0.087577
-0.0547833
-0.0276419
-0.00547506
0.0124269
0.0267129
0.0379581
0.0466597
0.0532373
0.058075
0.0615882
0.0641635
0.0658713
0.0652414
-0.222698
-0.219665
-0.196248
-0.159415
-0.117929
-0.0782325
-0.0435184
-0.0145737
0.00896692
0.0277965
0.0426195
0.0540743
0.0627222
0.0690429
0.0734433
0.0763305
0.0781366
0.0790043
0.0785061
0.0760175
-0.160383
-0.158688
-0.13724
-0.103384
-0.0656612
-0.0300626
0.000563795
0.0256155
0.0455243
0.0609935
0.0727203
0.0813312
0.0873725
0.0913062
0.0935327
0.0944787
0.0945415
0.0935397
0.0906979
0.0884352
-0.0977438
-0.0974409
-0.0780848
-0.0473564
-0.0135141
0.017916
0.0444188
0.0655612
0.081831
0.0939381
0.102571
0.108342
0.111784
0.11334
0.11341
0.112421
0.110685
0.10781
0.103241
0.100868
-0.0352166
-0.0363419
-0.0191803
0.00830657
0.0381913
0.0654191
0.0877944
0.105038
0.117686
0.126451
0.132011
0.134966
0.13583
0.135036
0.132976
0.130063
0.126518
0.121883
0.115947
0.112972
0.0267632
0.0241876
0.0390769
0.0632452
0.0891348
0.112163
0.130438
0.143822
0.15289
0.158354
0.160882
0.16106
0.159386
0.15628
0.152128
0.147313
0.14199
0.135722
0.128586
0.124744
0.0877626
0.0837287
0.0962939
0.117104
0.139
0.157867
0.172101
0.18169
0.187243
0.18947
0.189026
0.186484
0.182327
0.176963
0.170766
0.164088
0.157039
0.14924
0.140962
0.136104
0.147355
0.141868
0.152085
0.169534
0.187477
0.202255
0.212537
0.218423
0.22055
0.219623
0.216287
0.2111
0.20453
0.196974
0.18879
0.180303
0.171596
0.162351
0.152962
0.147004
0.205121
0.198202
0.206073
0.220195
0.234261
0.245057
0.251505
0.253806
0.252618
0.248643
0.242513
0.234771
0.225874
0.216204
0.206106
0.195877
0.185583
0.174967
0.164494
0.157393
0.260657
0.252338
0.257894
0.268759
0.279061
0.286014
0.288773
0.287631
0.283262
0.276364
0.267556
0.257368
0.246242
0.23455
0.22262
0.210726
0.198925
0.18701
0.175488
0.167227
0.313572
0.303899
0.307198
0.31491
0.321596
0.324874
0.324118
0.319698
0.312305
0.302628
0.291275
0.278763
0.265522
0.251911
0.238243
0.224771
0.211547
0.19841
0.185878
0.176464
0.363494
0.352528
0.353653
0.358349
0.361598
0.3614
0.357326
0.349817
0.339575
0.327281
0.313532
0.298834
0.283605
0.268191
0.25289
0.237936
0.223379
0.209101
0.195609
0.185064
0.410073
0.397884
0.396946
0.398793
0.398816
0.395367
0.388198
0.377809
0.364912
0.350181
0.334202
0.31747
0.30039
0.283299
0.266479
0.250148
0.234357
0.219023
0.204627
0.192992
0.45298
0.439654
0.436785
0.435981
0.433016
0.426566
0.416545
0.403506
0.388166
0.371193
0.353164
0.334562
0.315782
0.29715
0.278935
0.26134
0.244418
0.228121
0.212885
0.200214
0.491914
0.477546
0.472901
0.469671
0.463981
0.454805
0.442197
0.426754
0.4092
0.390196
0.370309
0.350013
0.329694
0.309667
0.290189
0.27145
0.253508
0.236343
0.22034
0.206702
0.526602
0.511298
0.505053
0.499644
0.491518
0.479909
0.464995
0.447413
0.427888
0.407077
0.385537
0.363734
0.342047
0.32078
0.300179
0.280423
0.261577
0.243644
0.226952
0.212428
0.5568
0.540675
0.533023
0.525706
0.515452
0.501723
0.484803
0.465359
0.44412
0.421736
0.398759
0.375647
0.352769
0.330424
0.308848
0.288208
0.268578
0.249982
0.232687
0.217371
0.582296
0.565473
0.556625
0.547687
0.535633
0.520112
0.501498
0.480483
0.457797
0.434087
0.409898
0.385681
0.361801
0.338547
0.316147
0.294763
0.274474
0.255322
0.237514
0.221514
0.602911
0.585521
0.575699
0.565446
0.551932
0.534962
0.514978
0.492693
0.468839
0.444057
0.418889
0.39378
0.369089
0.345101
0.322037
0.300051
0.279231
0.259632
0.241408
0.224841
0.6185
0.60068
0.590118
0.578867
0.564247
0.546181
0.525161
0.501916
0.477179
0.451587
0.425679
0.399895
0.374592
0.35005
0.326483
0.304043
0.282822
0.262887
0.244347
0.227345
0.628954
0.610845
0.599784
0.587863
0.572501
0.553699
0.531985
0.508096
0.482766
0.456632
0.430227
0.403992
0.378278
0.353364
0.329461
0.306717
0.285228
0.265068
0.246315
0.229017
0.406046
0.380127
0.355027
0.330955
0.308058
0.286434
0.266162
0.247302
0.229854
0.00974024
0.000360767
-0.00914652
-0.018637
-0.0134067
-0.0280062
-0.0219452
-0.0146767
-0.0371489
-0.0303533
-0.0224209
-0.0459613
-0.0385529
-0.0300913
-0.0236247
-0.0543069
-0.0464488
-0.0376096
-0.0306842
-0.0620281
-0.0538993
-0.0448417
-0.0375373
-0.031268
-0.0693101
-0.0612011
-0.0521487
-0.0445404
-0.0378282
-0.031705
-0.0756627
-0.0679878
-0.0593797
-0.051593
-0.0445468
-0.0380839
-0.0749561
-0.0678788
-0.0598665
-0.0522998
-0.0454014
-0.0390758
-0.0332992
-0.0751069
-0.0679762
-0.060191
-0.0528894
-0.046251
-0.0401516
-0.0345461
-0.0747512
-0.0677859
-0.0602759
-0.0532652
-0.0469017
-0.0410359
-0.0356127
-0.0738422
-0.0673948
-0.0601934
-0.05346
-0.047365
-0.0417323
-0.0364953
-0.072777
-0.066829
-0.0599397
-0.0534801
-0.0476524
-0.0422576
-0.0372145
-0.0715216
-0.066041
-0.0594957
-0.0533239
-0.0477662
-0.0426142
-0.037773
-0.0700373
-0.0650438
-0.0588702
-0.0529979
-0.0477122
-0.0428062
-0.0381735
-0.0683837
-0.0638688
-0.0580762
-0.0525103
-0.047498
-0.0428398
-0.0384207
-0.0666013
-0.0625354
-0.0571249
-0.0518702
-0.0471318
-0.0427223
-0.0385203
-0.0647055
-0.0610623
-0.0560306
-0.0510885
-0.0466232
-0.0424618
-0.0384789
-0.0627164
-0.0594706
-0.0548094
-0.0501773
-0.0459825
-0.0420671
-0.0383039
-0.0606556
-0.0577792
-0.0534765
-0.0491492
-0.0452204
-0.0415476
-0.0380031
-0.0585394
-0.0560047
-0.0520464
-0.0480165
-0.0443477
-0.0409129
-0.0375848
-0.0563819
-0.0541628
-0.0505335
-0.0467916
-0.0433756
-0.0401728
-0.0370576
-0.0541967
-0.0522677
-0.048951
-0.0454866
-0.0423149
-0.0393373
-0.0364303
-0.0519958
-0.0503325
-0.0473113
-0.0441129
-0.0411763
-0.0384162
-0.035712
-0.0497898
-0.0483689
-0.0456261
-0.0426816
-0.0399703
-0.0374194
-0.0349114
-0.0475884
-0.0463876
-0.0439062
-0.0412031
-0.0387068
-0.0363561
-0.0340374
-0.0454001
-0.0443985
-0.0421616
-0.0396873
-0.0373955
-0.0352357
-0.0330986
-0.0432327
-0.0424105
-0.0404014
-0.0381433
-0.0360452
-0.034067
-0.0321035
-0.0410928
-0.0404316
-0.0386342
-0.0365795
-0.0346645
-0.0328582
-0.0310602
-0.0389862
-0.0384688
-0.0368675
-0.0350038
-0.0332613
-0.0316172
-0.0299762
-0.0369179
-0.0365285
-0.0351083
-0.0334234
-0.0318429
-0.0303515
-0.028859
-0.0348923
-0.0346161
-0.0333628
-0.0318447
-0.030416
-0.029068
-0.0277153
-0.0329127
-0.0327365
-0.0316364
-0.0302736
-0.0289868
-0.0277729
-0.0265518
-0.0309823
-0.0308937
-0.0299339
-0.0287155
-0.0275609
-0.0264722
-0.0253743
-0.0291033
-0.0290912
-0.0282597
-0.0271749
-0.0261433
-0.0251712
-0.0241885
-0.0272777
-0.0273319
-0.0266173
-0.0256561
-0.0247386
-0.0238748
-0.0229995
-0.0255069
-0.0256182
-0.0250099
-0.0241628
-0.0233508
-0.0225874
-0.0218119
-0.0237919
-0.0239522
-0.0234403
-0.022698
-0.0219837
-0.0213131
-0.0206301
-0.0221335
-0.0223353
-0.0219106
-0.0212647
-0.0206403
-0.0200553
-0.0194579
-0.0205321
-0.0207688
-0.0204226
-0.0198651
-0.0193234
-0.0188173
-0.0182988
-0.0189879
-0.0192534
-0.018978
-0.0185012
-0.0180355
-0.0176017
-0.0171559
-0.0175007
-0.0177898
-0.0175778
-0.0171746
-0.0167786
-0.0164111
-0.0160321
-0.0160701
-0.0163781
-0.0162228
-0.0158867
-0.0155543
-0.0152474
-0.0149296
-0.0146957
-0.0150184
-0.0149137
-0.0146385
-0.0143641
-0.0141126
-0.0138507
-0.0133767
-0.0137104
-0.0136508
-0.0134308
-0.0132093
-0.0130081
-0.0127971
-0.0121123
-0.0124539
-0.0124341
-0.0122641
-0.0120906
-0.0119352
-0.0117706
-0.0109016
-0.0112484
-0.0112638
-0.0111388
-0.0110087
-0.0108948
-0.0107723
-0.0097435
-0.0100931
-0.0101394
-0.010055
-0.00996427
-0.00988787
-0.00980345
-0.00863701
-0.00898725
-0.00906068
-0.00901275
-0.00895748
-0.0089149
-0.00886488
-0.00758095
-0.00793012
-0.00802718
-0.00801187
-0.00798853
-0.00797637
-0.00795734
-0.00657413
-0.00692076
-0.0070383
-0.00705212
-0.00705744
-0.00707257
-0.00708136
-0.00561534
-0.00595819
-0.00609338
-0.00613314
-0.00616411
-0.00620366
-0.00623736
-0.00470336
-0.00504139
-0.0051917
-0.00525447
-0.00530834
-0.00536965
-0.00542561
-0.00383694
-0.00416932
-0.00433248
-0.00441559
-0.00448982
-0.00457049
-0.00464624
-0.00301485
-0.00334091
-0.00351488
-0.00361592
-0.00370821
-0.00380602
-0.00389931
-0.00223584
-0.00255507
-0.00273806
-0.00285482
-0.00296305
-0.00307599
-0.00318479
-0.00149872
-0.00181074
-0.00200113
-0.00213163
-0.00225388
-0.00238011
-0.00250255
-0.00080227
-0.00110683
-0.0013032
-0.00144563
-0.00158018
-0.00171803
-0.00185241
-0.000145342
-0.000442278
-0.000643398
-0.000796133
-0.000941385
-0.00108936
-0.00123416
0.000473201
0.000183951
-2.08243e-05
-0.000182409
-0.000336948
-0.000493687
-0.000647507
0.00105445
0.000772866
0.000565382
0.000396252
0.000233708
6.94284e-05
-9.21703e-05
0.00159944
0.00132544
0.00111606
0.000940551
0.00077115
0.000600425
0.000432166
0.00210916
0.0018426
0.00163203
0.00145117
0.00127593
0.00109974
0.000925821
0.00258456
0.00232522
0.00211404
0.00192874
0.0017486
0.0015678
0.00138911
0.00302648
0.00277413
0.00256283
0.00237389
0.00218963
0.00200501
0.00182233
0.00343573
0.00319006
0.00297904
0.00278717
0.00259951
0.00241173
0.00222574
0.00381301
0.00357369
0.00336327
0.00316906
0.00297862
0.00278827
0.00259959
0.00415894
0.00392561
0.00371603
0.00352
0.00332732
0.0031349
0.00294405
0.00447403
0.0042463
0.00403773
0.00384032
0.00364585
0.00345181
0.00325923
0.0047587
0.00453613
0.00432868
0.00413025
0.00393439
0.00373908
0.00354515
0.00501321
0.00479535
0.00458907
0.00438993
0.004193
0.00399673
0.00380177
0.00523769
0.00502406
0.00481895
0.00461932
0.00442159
0.00422461
0.00402888
0.00543213
0.00522222
0.00501823
0.0048183
0.00461998
0.00442249
0.00422619
0.00559623
0.00538951
0.00518655
0.00498644
0.00478772
0.00458987
0.00439318
0.00572975
0.00552563
0.0053235
0.00512327
0.00492422
0.0047261
0.00452911
0.00583192
0.00562989
0.00542851
0.00522826
0.00502903
0.00483076
0.00463358
0.00590086
0.00570015
0.00549926
0.00529902
0.00509969
0.00490134
0.00470407
0.00593886
0.0057385
0.00553746
0.00533688
0.00513725
0.00493869
0.00474125
-0.105143
-0.109401
-0.113064
-0.116122
-0.118567
-0.120391
-0.121587
-0.122148
-0.122071
-0.121358
-0.120011
-0.118031
-0.115421
-0.112183
-0.108329
-0.103849
-0.0987894
-0.0930922
-0.0869902
-0.0805811
-0.0989644
-0.102958
-0.1064
-0.109282
-0.111598
-0.113339
-0.114499
-0.115076
-0.115071
-0.114484
-0.113319
-0.111578
-0.109269
-0.106396
-0.102982
-0.0990246
-0.0946052
-0.0897255
-0.0847128
-0.0799629
-0.0931031
-0.0968543
-0.100105
-0.102852
-0.105089
-0.106812
-0.10802
-0.108715
-0.108897
-0.108568
-0.107731
-0.106391
-0.104556
-0.102233
-0.0994447
-0.0961988
-0.0925569
-0.0885507
-0.0842146
-0.0799537
-0.0875411
-0.0910756
-0.0941588
-0.096788
-0.0989605
-0.100675
-0.101932
-0.102732
-0.103074
-0.102961
-0.102395
-0.10138
-0.0999216
-0.0980254
-0.095704
-0.092966
-0.0898099
-0.0862892
-0.0822302
-0.0783931
-0.0822682
-0.0856035
-0.0885308
-0.0910487
-0.0931555
-0.0948501
-0.0961328
-0.0970034
-0.0974613
-0.097507
-0.0971419
-0.0963683
-0.0951881
-0.0936059
-0.091619
-0.0892455
-0.0864379
-0.08334
-0.0797352
-0.0765644
-0.0772677
-0.0804181
-0.0831991
-0.08561
-0.0876497
-0.0893171
-0.0906122
-0.0915353
-0.0920853
-0.0922625
-0.0920671
-0.0915012
-0.0905632
-0.0892612
-0.0875819
-0.0855672
-0.0831489
-0.0805416
-0.0774629
-0.0747881
-0.0725234
-0.0755021
-0.078146
-0.0804552
-0.0824289
-0.0840665
-0.085368
-0.0863343
-0.0869645
-0.087259
-0.0872171
-0.0868423
-0.0861302
-0.0850953
-0.083717
-0.0820562
-0.08002
-0.0778309
-0.0751602
-0.0728279
-0.0680213
-0.0708405
-0.073356
-0.0755688
-0.0774785
-0.0790849
-0.0803881
-0.0813895
-0.0820885
-0.0824858
-0.0825799
-0.0823757
-0.0818667
-0.0810717
-0.0799619
-0.0786036
-0.0768836
-0.0750188
-0.072703
-0.0707078
-0.0637485
-0.0664191
-0.0688143
-0.0709357
-0.0727831
-0.0743567
-0.0756569
-0.076685
-0.0774408
-0.0779254
-0.0781363
-0.0780796
-0.0777461
-0.0771565
-0.0762752
-0.0751696
-0.0737256
-0.0721546
-0.0701905
-0.0685184
-0.0596925
-0.0622247
-0.064507
-0.0665414
-0.0683282
-0.0698675
-0.07116
-0.0722071
-0.0730087
-0.0735662
-0.0738764
-0.0739459
-0.0737637
-0.073351
-0.072671
-0.0717906
-0.0706055
-0.0693081
-0.0676633
-0.0662697
-0.055842
-0.0582448
-0.0604209
-0.0623725
-0.0641001
-0.065604
-0.0668849
-0.0679442
-0.0687821
-0.0694002
-0.0697948
-0.0699728
-0.0699227
-0.0696657
-0.0691671
-0.0684893
-0.0675379
-0.0664788
-0.06511
-0.0639636
-0.0521857
-0.0544677
-0.0565438
-0.0584167
-0.0600866
-0.0615541
-0.06282
-0.063886
-0.0647517
-0.0654197
-0.0658861
-0.0661574
-0.0662228
-0.0661024
-0.0657641
-0.0652629
-0.0645146
-0.0636631
-0.0625404
-0.0616202
-0.0487136
-0.0508824
-0.0528644
-0.0546621
-0.0562758
-0.0577064
-0.0589546
-0.0600221
-0.0609087
-0.0616172
-0.0621438
-0.0624947
-0.06266
-0.0626574
-0.0624583
-0.0621101
-0.0615408
-0.0608752
-0.0599735
-0.0592557
-0.0454157
-0.0474786
-0.0493718
-0.0510978
-0.052657
-0.0540502
-0.0552784
-0.0563431
-0.0572443
-0.0579848
-0.0585614
-0.0589795
-0.0592301
-0.0593289
-0.0592508
-0.0590369
-0.0586262
-0.058126
-0.0574192
-0.0568797
-0.0422825
-0.0442465
-0.0460561
-0.0477138
-0.0492199
-0.0505755
-0.0517817
-0.0528399
-0.0537502
-0.0545153
-0.0551326
-0.0556069
-0.0559303
-0.0561162
-0.0561435
-0.0560473
-0.0557755
-0.0554203
-0.0548844
-0.0545022
-0.0393047
-0.041177
-0.0429081
-0.0445005
-0.0459549
-0.0472729
-0.0484554
-0.0495039
-0.0504185
-0.0512018
-0.0518518
-0.0523727
-0.0527576
-0.0530182
-0.0531365
-0.0531422
-0.0529911
-0.0527627
-0.0523773
-0.0521334
-0.036476
-0.0382628
-0.0399194
-0.041449
-0.0428532
-0.0441335
-0.045291
-0.046327
-0.0472419
-0.0480378
-0.0487133
-0.0492723
-0.0497088
-0.0500328
-0.050229
-0.0503226
-0.0502764
-0.0501589
-0.0499054
-0.049782
-0.0338031
-0.0354987
-0.0370821
-0.038551
-0.0399062
-0.0411491
-0.0422805
-0.0433017
-0.0442132
-0.0450168
-0.0457116
-0.0463012
-0.0467805
-0.0471578
-0.0474203
-0.0475895
-0.0476341
-0.047613
-0.0474745
-0.0474553
-0.0312551
-0.0328727
-0.0343874
-0.0357983
-0.037106
-0.0383117
-0.0394162
-0.0404207
-0.0413257
-0.0421329
-0.0428416
-0.043455
-0.0439692
-0.0443909
-0.0447096
-0.0449434
-0.0450662
-0.0451283
-0.0450894
-0.0451603
-0.0288333
-0.0303777
-0.0318277
-0.0331833
-0.034445
-0.035614
-0.036691
-0.0376772
-0.0385731
-0.0393802
-0.0400981
-0.0407295
-0.0412716
-0.04173
-0.0420958
-0.0423843
-0.0425739
-0.0427075
-0.0427547
-0.0429027
-0.026532
-0.0280075
-0.0293962
-0.0306989
-0.0319162
-0.0330489
-0.0340981
-0.0350646
-0.0359492
-0.0367531
-0.0374761
-0.0381206
-0.0386844
-0.0391725
-0.0395774
-0.0399118
-0.0401582
-0.0403528
-0.0404739
-0.0406876
-0.0243459
-0.0257559
-0.0270866
-0.0283386
-0.0295128
-0.03061
-0.0316311
-0.032577
-0.0334483
-0.0342462
-0.0349708
-0.035624
-0.0362043
-0.0367158
-0.0371527
-0.0375253
-0.0378195
-0.038066
-0.0382499
-0.0385191
-0.0222694
-0.0236174
-0.0248927
-0.0260963
-0.0272288
-0.0282911
-0.0292839
-0.0302083
-0.0310648
-0.0318546
-0.0325776
-0.0332358
-0.0338279
-0.0343575
-0.0348199
-0.0352239
-0.035558
-0.0358481
-0.0360852
-0.0364007
-0.0202971
-0.0215863
-0.0228089
-0.023966
-0.0250582
-0.0260862
-0.027051
-0.0279532
-0.0287937
-0.0295732
-0.0302921
-0.030952
-0.0315518
-0.0320948
-0.0325773
-0.0330066
-0.0333735
-0.0337
-0.0339815
-0.0343353
-0.0184241
-0.0196574
-0.0208299
-0.0219423
-0.0229955
-0.0239901
-0.0249268
-0.0258065
-0.0266298
-0.0273975
-0.02811
-0.0287687
-0.0293728
-0.0299251
-0.0304229
-0.0308721
-0.0312656
-0.0316219
-0.0319403
-0.0323252
-0.0166454
-0.0178258
-0.0189504
-0.0200201
-0.0210355
-0.0219974
-0.0229064
-0.0237632
-0.0245684
-0.025323
-0.0260272
-0.0266822
-0.0272877
-0.0278458
-0.0283545
-0.0288189
-0.0292336
-0.029614
-0.0299625
-0.0303723
-0.0149567
-0.0160867
-0.0171657
-0.0181944
-0.0191734
-0.0201033
-0.0209848
-0.0218185
-0.0226052
-0.0233454
-0.0240397
-0.024689
-0.0252931
-0.025854
-0.0263701
-0.0268456
-0.0272766
-0.0276761
-0.0280487
-0.0284777
-0.0133537
-0.0144359
-0.0154713
-0.0164606
-0.0174044
-0.0183031
-0.0191575
-0.0199682
-0.0207357
-0.0214607
-0.0221436
-0.0227855
-0.0233861
-0.0239471
-0.0244674
-0.0249505
-0.0253935
-0.0258077
-0.0261992
-0.0266426
-0.0118322
-0.012869
-0.0138629
-0.0148144
-0.0157241
-0.0165925
-0.0174202
-0.0182078
-0.0189558
-0.0196649
-0.0203354
-0.0209683
-0.0215634
-0.0221223
-0.0226441
-0.0231317
-0.0235833
-0.0240081
-0.0244139
-0.0248674
-0.0103886
-0.0113822
-0.0123363
-0.0132516
-0.0141284
-0.0149673
-0.0157688
-0.0165335
-0.0172618
-0.0179544
-0.0186116
-0.0192341
-0.0198222
-0.020377
-0.020898
-0.0213875
-0.0218444
-0.0222766
-0.0226926
-0.0231524
-0.00901915
-0.00997161
-0.0108878
-0.0117682
-0.0126134
-0.0134236
-0.0141994
-0.0149414
-0.0156499
-0.0163255
-0.0169686
-0.0175799
-0.0181596
-0.0187086
-0.0192267
-0.0197158
-0.0201753
-0.0206119
-0.0210348
-0.0214977
-0.00772042
-0.00863374
-0.00951368
-0.0103607
-0.0111752
-0.0119576
-0.0127083
-0.0134278
-0.0141165
-0.0147749
-0.0154034
-0.0160025
-0.0165726
-0.0171145
-0.0176279
-0.0181147
-0.0185745
-0.0190131
-0.0194399
-0.0199032
-0.00648917
-0.0073652
-0.00821049
-0.00902545
-0.00981044
-0.0105658
-0.011292
-0.0119893
-0.0126583
-0.0132993
-0.0139127
-0.0144991
-0.0150586
-0.0155922
-0.0160996
-0.0165823
-0.0170405
-0.0174788
-0.0179071
-0.0183685
-0.00532231
-0.0061628
-0.00697496
-0.00775915
-0.00851568
-0.00924487
-0.00994708
-0.0106227
-0.011272
-0.0118956
-0.0124936
-0.0130667
-0.013615
-0.0141392
-0.0146394
-0.0151167
-0.0155715
-0.0160078
-0.0164353
-0.0168929
-0.0042169
-0.00502352
-0.005804
-0.00655865
-0.00728775
-0.00799158
-0.00867046
-0.00932473
-0.00995472
-0.0105608
-0.0111433
-0.0117027
-0.0122391
-0.0127532
-0.0132452
-0.0137159
-0.0141659
-0.0145986
-0.0150236
-0.0154757
-0.00317015
-0.00394448
-0.00469466
-0.00542096
-0.00612363
-0.00680292
-0.0074591
-0.00809249
-0.00870337
-0.00929209
-0.00985895
-0.0104043
-0.0109285
-0.0114319
-0.0119148
-0.0123779
-0.0128219
-0.0132498
-0.0136707
-0.014116
-0.00217942
-0.00292295
-0.00364414
-0.00434324
-0.00502045
-0.00567601
-0.00631014
-0.00692311
-0.00751521
-0.00808672
-0.00863792
-0.00916916
-0.00968068
-0.0101729
-0.0106461
-0.0111008
-0.0115379