/*--------------------------------*- C++ -*----------------------------------*\
  =========                 |
  \\      /  F ield         | OpenFOAM: The Open Source CFD Toolbox
   \\    /   O peration     | Website:  https://openfoam.org
    \\  /    A nd           | Version:  7
     \\/     M anipulation  |
\*---------------------------------------------------------------------------*/
FoamFile
{
    version     2.0;
    format      ascii;
    class       surfaceScalarField;
    location    "2";
    object      phi;
}
// * * * * * * * * * * * * * * * * * * * * * * * * * * * * * * * * * * * * * //

dimensions      [0 3 -1 0 0 0 0];

internalField   nonuniform List<scalar> 
615
(
0.000401945
7.14406e-06
0.000400851
7.77363e-06
0.000399669
8.44244e-06
0.000398396
9.14796e-06
0.000397035
9.88692e-06
0.000395585
1.06553e-05
0.000394051
1.14482e-05
0.000392437
1.22596e-05
0.00039075
1.30822e-05
0.000388999
1.39077e-05
0.000387195
1.47258e-05
0.000385352
1.55249e-05
0.000383485
1.62914e-05
0.000381614
1.70099e-05
0.000379759
1.76633e-05
0.000377943
1.8233e-05
0.000376188
1.86991e-05
0.000374518
1.90415e-05
0.000372955
1.92409e-05
0.000371518
1.92799e-05
0.000370222
1.91449e-05
0.000369075
1.88276e-05
0.000368083
1.83265e-05
0.000367242
1.76478e-05
0.000366542
1.68059e-05
0.000365971
1.58227e-05
0.000365512
1.47265e-05
0.000365146
1.35498e-05
0.000364854
1.23268e-05
0.00036462
1.10913e-05
0.000364427
9.87417e-06
0.000364265
8.70196e-06
0.000364124
7.59578e-06
0.000363996
6.57092e-06
0.000363879
5.63703e-06
0.000363768
4.79866e-06
0.000363664
4.05613e-06
0.000363565
3.4064e-06
0.000363472
2.84403e-06
0.000363385
2.36198e-06
0.000363304
1.95237e-06
0.000363229
1.60701e-06
0.000363162
1.31783e-06
0.000363101
1.07716e-06
0.000363047
8.77949e-07
0.000362999
7.13831e-07
0.000362957
5.79181e-07
0.00036292
4.69101e-07
0.000362888
3.79378e-07
0.000362861
3.06432e-07
0.000362838
2.47246e-07
0.000362818
1.99301e-07
0.000362802
1.60503e-07
0.000362788
1.2913e-07
0.000362776
1.03769e-07
0.000362767
8.32609e-08
0.000362759
6.66893e-08
0.000362753
5.32177e-08
0.000362748
4.26199e-08
3.2555e-08
0.000413437
4.39906e-06
0.000412926
4.7809e-06
0.000412352
5.21109e-06
0.000411713
5.68953e-06
0.000411006
6.21577e-06
0.000410227
6.78896e-06
0.000409375
7.40782e-06
0.000408448
8.07056e-06
0.000407447
8.77485e-06
0.000406372
9.51769e-06
0.000405224
1.02953e-05
0.000404008
1.11033e-05
0.000402727
1.1936e-05
0.000401389
1.27868e-05
0.0004
1.36481e-05
0.000398572
1.45107e-05
0.000397115
1.53639e-05
0.000395645
1.61958e-05
0.000394178
1.69925e-05
0.000392731
1.77387e-05
0.000391323
1.84176e-05
0.000389975
1.90112e-05
0.000388707
1.95006e-05
0.000387539
1.9867e-05
0.000386489
2.00922e-05
0.00038557
2.01599e-05
0.000384792
2.00575e-05
0.000384161
1.97765e-05
0.000383674
1.93147e-05
0.000383323
1.86766e-05
0.000383097
1.7874e-05
0.000382978
1.69255e-05
0.000382944
1.58561e-05
0.000382975
1.46952e-05
0.000383051
1.34746e-05
0.000383151
1.22267e-05
0.00038326
1.09822e-05
0.000383366
9.76849e-06
0.000383459
8.60845e-06
0.000383535
7.5198e-06
0.000383591
6.51493e-06
0.000383627
5.60121e-06
0.000383644
4.7816e-06
0.000383645
4.05537e-06
0.000383632
3.41899e-06
0.000383609
2.86686e-06
0.000383579
2.39212e-06
0.000383544
1.98719e-06
0.000383507
1.64428e-06
0.000383469
1.35575e-06
0.000383432
1.11437e-06
0.000383396
9.13454e-07
0.000383363
7.46964e-07
0.000383333
6.09542e-07
0.000383305
4.96498e-07
0.000383281
4.03779e-07
0.00038326
3.27917e-07
0.000383241
2.6597e-07
0.000383225
2.15466e-07
0.000383211
1.74337e-07
0.000383199
1.40865e-07
0.000383189
1.13631e-07
0.000383181
9.14631e-08
0.000383174
7.34236e-08
0.000383169
5.86595e-08
0.000383165
4.6904e-08
3.57593e-08
0.000412696
4.77197e-06
0.000412272
5.20563e-06
0.000411793
5.68989e-06
0.000411258
6.22415e-06
0.000410667
6.80736e-06
0.000410018
7.43799e-06
0.000409311
8.11399e-06
0.000408549
8.83268e-06
0.000407734
9.59071e-06
0.000406867
1.0384e-05
0.000405955
1.12075e-05
0.000405003
1.20554e-05
0.000404018
1.29206e-05
0.00040301
1.37951e-05
0.000401989
1.46694e-05
0.000400967
1.55328e-05
0.000399957
1.63732e-05
0.000398976
1.7177e-05
0.000398039
1.79294e-05
0.000397164
1.86143e-05
0.000396366
1.92148e-05
0.000395664
1.97134e-05
0.000395072
2.00928e-05
0.000394603
2.03366e-05
0.000394265
2.043e-05
0.000394063
2.03614e-05
0.000393997
2.01232e-05
0.000394061
1.97125e-05
0.000394244
1.91326e-05
0.000394527
1.83929e-05
0.000394892
1.7509e-05
0.000395316
1.65019e-05
0.000395775
1.53972e-05
0.000396247
1.42234e-05
0.000396711
1.30099e-05
0.000397152
1.17858e-05
0.000397557
1.05776e-05
0.000397917
9.40855e-06
0.000398228
8.29767e-06
0.000398488
7.25921e-06
0.0003987
6.30287e-06
0.000398867
5.43405e-06
0.000398995
4.65443e-06
0.000399087
3.96265e-06
0.000399151
3.35502e-06
0.000399192
2.82619e-06
0.000399214
2.36974e-06
0.000399223
1.97871e-06
0.000399221
1.64596e-06
0.000399212
1.36451e-06
0.000399199
1.12775e-06
0.000399183
9.29535e-07
0.000399166
7.64304e-07
0.000399148
6.27091e-07
0.000399131
5.13524e-07
0.000399115
4.198e-07
0.0003991
3.4264e-07
0.000399087
2.79247e-07
0.000399075
2.27247e-07
0.000399065
1.84644e-07
0.000399056
1.49761e-07
0.000399048
1.21207e-07
0.000399042
9.78192e-08
0.000399037
7.86584e-08
0.000399033
6.28721e-08
0.000399029
5.01483e-08
3.81291e-08
0.000405431
5.01886e-06
0.000405145
5.49184e-06
0.000404819
6.0156e-06
0.000404454
6.58896e-06
0.000404051
7.2102e-06
0.000403612
7.87708e-06
0.00040314
8.58668e-06
0.000402637
9.33545e-06
0.000402109
1.0119e-05
0.00040156
1.09322e-05
0.000400999
1.17689e-05
0.000400432
1.26221e-05
0.000399869
1.34834e-05
0.000399321
1.43435e-05
0.000398798
1.5192e-05
0.000398314
1.60171e-05
0.000397881
1.68058e-05
0.000397514
1.75442e-05
0.000397226
1.82175e-05
0.00039703
1.881e-05
0.000396939
1.93059e-05
0.000396963
1.96899e-05
0.000397108
1.99473e-05
0.000397379
2.00652e-05
0.000397776
2.00333e-05
0.000398293
1.98445e-05
0.00039892
1.94962e-05
0.000399642
1.89903e-05
0.000400441
1.83342e-05
0.000401293
1.75403e-05
0.000402176
1.66261e-05
0.000403065
1.56129e-05
0.000403937
1.45249e-05
0.000404773
1.33882e-05
0.000405554
1.22285e-05
0.000406269
1.10706e-05
0.00040691
9.93679e-06
0.000407473
8.84601e-06
0.000407957
7.81349e-06
0.000408365
6.85048e-06
0.000408704
5.96438e-06
0.000408979
5.15906e-06
0.000409198
4.43539e-06
0.000409369
3.79174e-06
0.000409499
3.22462e-06
0.000409596
2.72916e-06
0.000409666
2.29966e-06
0.000409715
1.92994e-06
0.000409747
1.61371e-06
0.000409767
1.34478e-06
0.000409778
1.11727e-06
0.000409781
9.25694e-07
0.000409781
7.6506e-07
0.000409777
6.30874e-07
0.000409771
5.19155e-07
0.000409765
4.26411e-07
0.000409758
3.49614e-07
0.000409751
2.86155e-07
0.000409744
2.33807e-07
0.000409738
1.90677e-07
0.000409733
1.55166e-07
0.000409728
1.25932e-07
0.000409724
1.01848e-07
0.000409721
8.19918e-08
0.000409718
6.55203e-08
0.000409716
5.20899e-08
3.94563e-08
0.00039209
5.09022e-06
0.000391998
5.58376e-06
0.000391887
6.12616e-06
0.00039176
6.71564e-06
0.000391621
7.34986e-06
0.000391472
8.02587e-06
0.000391319
8.74004e-06
0.000391166
9.48798e-06
0.000391021
1.02645e-05
0.000390889
1.10637e-05
0.00039078
1.18784e-05
0.000390701
1.27008e-05
0.000390662
1.3522e-05
0.000390674
1.43319e-05
0.000390746
1.51196e-05
0.00039089
1.58732e-05
0.000391116
0.000391434
0.000391853
0.00039238
0.000393021
0.000393778
0.000394649
0.00039563
0.000396712
0.000397881
0.000399121
0.00040041
0.000401726
0.000403045
0.000404342
0.000405597
0.000406788
0.000407899
0.000408919
0.00040984
0.000410658
0.000411373
0.000411989
0.000412512
0.00041295
0.000413311
0.000413606
0.000413843
0.000414031
0.000414178
0.000414292
0.000414378
0.000414443
0.00041449
0.000414525
0.000414549
0.000414565
0.000414576
0.000414583
0.000414586
0.000414588
0.000414588
0.000414588
0.000414586
0.000414585
0.000414584
0.000414582
0.000414581
0.000414581
0.00041458
0.000373183
0.000373334
0.000373492
0.000373661
0.000373845
0.00037405
0.000374282
0.000374548
0.000374853
0.000375205
0.000375613
0.000376083
0.000376625
0.000377245
0.000377952
)
;

boundaryField
{
    inlet
    {
        type            calculated;
        value           nonuniform 0();
    }
    outlet
    {
        type            calculated;
        value           nonuniform List<scalar> 5(0.000362744 0.000383161 0.000399027 0.000409715 0.00041458);
    }
    wall
    {
        type            calculated;
        value           nonuniform 0();
    }
    wedge1
    {
        type            wedge;
        value           nonuniform List<scalar> 
344
(
8.40634e-16
-4.08321e-16
-5.88348e-17
-3.93106e-16
-5.31937e-17
9.12387e-16
-4.44952e-16
-6.43136e-17
-4.30909e-16
-5.84112e-17
9.93565e-16
-4.85999e-16
-7.04011e-17
-4.72534e-16
-6.41131e-17
1.0842e-15
-5.31436e-16
-7.70754e-17
-5.17859e-16
-7.02737e-17
1.18424e-15
-5.81184e-16
-8.43252e-17
-5.6672e-16
-7.68629e-17
1.29359e-15
-6.35144e-16
-9.21261e-17
-6.18912e-16
-8.38482e-17
1.41203e-15
-6.93158e-16
-1.00444e-16
-6.74173e-16
-9.11874e-17
-6.97661e-16
1.5393e-15
-7.55034e-16
-1.09244e-16
-7.32189e-16
-9.88307e-17
-7.59677e-16
1.675e-15
-8.20504e-16
-1.1848e-16
-7.92582e-16
-1.06721e-16
-8.25782e-16
1.81862e-15
-8.89253e-16
-1.28092e-16
-8.54905e-16
-1.14789e-16
-8.95766e-16
1.96951e-15
-9.60888e-16
-1.38022e-16
-9.18646e-16
-1.22963e-16
-9.69334e-16
2.1269e-15
-1.03493e-15
-1.4818e-16
-9.83201e-16
-1.31154e-16
-1.04614e-15
2.28978e-15
-1.11081e-15
-1.58477e-16
-1.04789e-15
-1.3926e-16
-1.12573e-15
2.45698e-15
-1.18786e-15
-1.68803e-16
-1.11195e-15
-1.47184e-16
-1.20757e-15
2.62708e-15
-1.2653e-15
-1.79041e-16
-1.17454e-15
-1.54808e-16
-1.29098e-15
2.7984e-15
-1.34221e-15
-1.89049e-16
-1.23471e-15
-1.6201e-16
-1.37516e-15
2.96897e-15
-1.41758e-15
-1.98678e-16
-1.29148e-15
-1.45917e-15
3.13648e-15
-1.49022e-15
-2.07762e-16
-1.34374e-15
-1.54186e-15
3.2983e-15
-1.55884e-15
-2.16115e-16
-1.3904e-15
-1.62193e-15
3.45144e-15
-1.62202e-15
-2.2356e-16
-1.4303e-15
-1.69784e-15
3.59257e-15
-1.67822e-15
-2.2989e-16
-1.46233e-15
-1.76786e-15
3.71807e-15
-1.72583e-15
-2.34908e-16
-1.48538e-15
-1.83009e-15
3.82406e-15
-1.76324e-15
-2.38427e-16
-1.49851e-15
-1.88243e-15
3.90658e-15
-1.78886e-15
-2.40278e-16
-1.5009e-15
-1.92273e-15
3.96172e-15
-1.80125e-15
-2.40314e-16
-1.49197e-15
-1.94886e-15
3.98591e-15
-1.79921e-15
-2.38438e-16
-1.47141e-15
-1.95885e-15
3.97615e-15
-1.78188e-15
-2.34593e-16
-1.43924e-15
-1.95106e-15
3.93035e-15
-1.74886e-15
-2.28806e-16
-1.39588e-15
-1.92437e-15
3.84764e-15
-1.70033e-15
-2.21143e-16
-1.34219e-15
-1.87842e-15
3.72859e-15
-1.63705e-15
-2.11763e-16
-1.27927e-15
-1.81361e-15
3.57529e-15
-1.56037e-15
-2.00872e-16
-1.20849e-15
-1.73121e-15
3.39125e-15
-1.47211e-15
-1.88724e-16
-1.13147e-15
-1.63337e-15
3.18134e-15
-1.37456e-15
-1.7562e-16
-1.04995e-15
-1.52294e-15
2.95148e-15
-1.2703e-15
-1.61884e-16
-9.65751e-16
-1.40328e-15
2.70819e-15
-1.16205e-15
-1.47834e-16
-8.8066e-16
-1.27803e-15
2.45817e-15
-1.05249e-15
-1.33792e-16
-7.96345e-16
-1.15079e-15
2.20787e-15
-9.4411e-16
-1.20029e-16
-7.14274e-16
-1.02491e-15
1.96306e-15
-8.39085e-16
-1.06787e-16
-6.35684e-16
-9.03286e-16
1.72862e-15
-7.39201e-16
-9.42569e-17
-5.61554e-16
-7.88256e-16
1.50835e-15
-6.45821e-16
-8.25834e-17
-4.92589e-16
-6.81515e-16
1.30492e-15
-5.59854e-16
-7.18542e-17
-4.29234e-16
-5.8417e-16
1.11997e-15
-4.8183e-16
-6.21187e-17
-3.7171e-16
-4.96763e-16
9.54156e-16
-4.11906e-16
-5.33912e-17
-3.2003e-16
-4.1937e-16
8.07393e-16
-3.4997e-16
-4.56444e-17
-2.74053e-16
-3.51704e-16
6.78966e-16
-2.95682e-16
-3.88445e-17
-2.33518e-16
-2.93201e-16
5.67745e-16
-2.48549e-16
-3.29187e-17
-1.98068e-16
-2.43131e-16
4.72314e-16
-2.07966e-16
-2.77963e-17
-1.67293e-16
-2.00667e-16
3.91112e-16
-1.73297e-16
-2.34e-17
-1.40759e-16
-1.64934e-16
3.22523e-16
-1.43882e-16
-1.96525e-17
-1.18026e-16
-1.35078e-16
2.64974e-16
-1.19085e-16
-1.64718e-17
-9.86587e-17
-1.10296e-16
2.16973e-16
-9.82839e-17
-1.3791e-17
-8.22384e-17
-8.9837e-17
1.77147e-16
-8.09291e-17
-1.1537e-17
-6.83843e-17
-7.30301e-17
1.44249e-16
-6.65097e-17
-9.65622e-18
-5.67458e-17
-5.92754e-17
1.17186e-16
-5.45789e-17
-8.08597e-18
-4.70046e-17
-4.8068e-17
9.50013e-17
-4.47329e-17
-6.78306e-18
-3.88754e-17
-3.89625e-17
7.6872e-17
-3.66356e-17
-5.70321e-18
-3.21133e-17
-3.15793e-17
6.20898e-17
-2.99889e-17
-4.80978e-18
-2.65015e-17
-2.56044e-17
5.00678e-17
-2.45465e-17
-4.07014e-18
-2.18556e-17
-2.07818e-17
4.02987e-17
-2.00969e-17
-3.46288e-18
-1.80156e-17
-1.68892e-17
3.23757e-17
-1.64608e-17
-2.96156e-18
-1.48447e-17
-1.37487e-17
2.59551e-17
-1.34933e-17
-2.54603e-18
-1.22296e-17
-1.12186e-17
2.07516e-17
-1.10716e-17
-2.20624e-18
-1.00731e-17
-9.17735e-18
1.65354e-17
-9.09431e-18
-1.92537e-18
-8.29341e-18
-7.53161e-18
1.31202e-17
-7.47941e-18
-1.69314e-18
-6.82364e-18
-6.19533e-18
1.03409e-17
-6.15311e-18
-1.49946e-18
-5.60291e-18
-5.14308e-18
8.13876e-18
-5.08755e-18
-1.3403e-18
-4.60271e-18
-4.14169e-18
6.056e-18
-4.07957e-18
-1.18899e-18
-3.6698e-18
)
;
    }
    wedge2
    {
        type            wedge;
        value           nonuniform List<scalar> 
344
(
8.41181e-16
-4.07744e-16
-5.82191e-17
-3.92464e-16
-5.25406e-17
9.12939e-16
-4.44357e-16
-6.36818e-17
-4.30246e-16
-5.77369e-17
9.94139e-16
-4.85385e-16
-6.97397e-17
-4.71843e-16
-6.34108e-17
1.08479e-15
-5.30793e-16
-7.63922e-17
-5.1714e-16
-6.95434e-17
1.18486e-15
-5.80523e-16
-8.36162e-17
-5.65977e-16
-7.6109e-17
1.29422e-15
-6.34458e-16
-9.13895e-17
-6.18144e-16
-8.30707e-17
1.41269e-15
-6.92456e-16
-9.96855e-17
-6.73382e-16
-9.03855e-17
-6.9704e-16
1.53997e-15
-7.54304e-16
-1.08463e-16
-7.31374e-16
-9.80052e-17
-7.59037e-16
1.67569e-15
-8.19755e-16
-1.17674e-16
-7.91742e-16
-1.05869e-16
-8.25125e-16
1.81933e-15
-8.8848e-16
-1.27263e-16
-8.54038e-16
-1.13913e-16
-8.9508e-16
1.97026e-15
-9.60084e-16
-1.37155e-16
-9.17742e-16
-1.22054e-16
-9.68628e-16
2.12767e-15
-1.03409e-15
-1.4728e-16
-9.82262e-16
-1.30211e-16
-1.0454e-15
2.29059e-15
-1.10994e-15
-1.57541e-16
-1.04692e-15
-1.38292e-16
-1.12497e-15
2.45782e-15
-1.18695e-15
-1.67836e-16
-1.11095e-15
-1.46188e-16
-1.20677e-15
2.62795e-15
-1.26435e-15
-1.78037e-16
-1.17351e-15
-1.53782e-16
-1.29015e-15
2.7993e-15
-1.34124e-15
-1.88014e-16
-1.23365e-15
-1.60955e-16
-1.37431e-15
2.9699e-15
-1.41657e-15
-1.9761e-16
-1.29038e-15
-1.45828e-15
3.13744e-15
-1.48918e-15
-2.06657e-16
-1.34262e-15
-1.54095e-15
3.2993e-15
-1.55777e-15
-2.14981e-16
-1.38924e-15
-1.62097e-15
3.45248e-15
-1.6209e-15
-2.22378e-16
-1.4291e-15
-1.69684e-15
3.59366e-15
-1.67705e-15
-2.28661e-16
-1.46108e-15
-1.76683e-15
3.71921e-15
-1.72462e-15
-2.33636e-16
-1.4841e-15
-1.829e-15
3.82524e-15
-1.76198e-15
-2.3711e-16
-1.49719e-15
-1.88129e-15
3.90781e-15
-1.78755e-15
-2.38911e-16
-1.49954e-15
-1.92155e-15
3.96301e-15
-1.79988e-15
-2.38905e-16
-1.49057e-15
-1.94763e-15
3.98725e-15
-1.7978e-15
-2.36983e-16
-1.46997e-15
-1.95755e-15
3.97754e-15
-1.78041e-15
-2.33103e-16
-1.43777e-15
-1.94969e-15
3.9318e-15
-1.74735e-15
-2.27262e-16
-1.39438e-15
-1.92297e-15
3.84915e-15
-1.69875e-15
-2.1956e-16
-1.34065e-15
-1.87695e-15
3.73017e-15
-1.63543e-15
-2.10137e-16
-1.2777e-15
-1.81206e-15
3.57692e-15
-1.55869e-15
-1.99201e-16
-1.2069e-15
-1.72959e-15
3.39294e-15
-1.47039e-15
-1.87017e-16
-1.12985e-15
-1.63168e-15
3.18309e-15
-1.37279e-15
-1.73884e-16
-1.04831e-15
-1.52118e-15
2.95329e-15
-1.26849e-15
-1.60116e-16
-9.64101e-16
-1.40146e-15
2.71005e-15
-1.1602e-15
-1.46048e-16
-8.78999e-16
-1.27615e-15
2.46009e-15
-1.0506e-15
-1.31975e-16
-7.94665e-16
-1.14885e-15
2.20983e-15
-9.42179e-16
-1.18189e-16
-7.1258e-16
-1.0229e-15
1.96508e-15
-8.37123e-16
-1.04928e-16
-6.33986e-16
-9.01231e-16
1.73067e-15
-7.37221e-16
-9.23867e-17
-5.59854e-16
-7.86148e-16
1.51043e-15
-6.43819e-16
-8.07021e-17
-4.90889e-16
-6.79376e-16
1.30702e-15
-5.57849e-16
-6.99723e-17
-4.27541e-16
-5.82006e-16
1.12208e-15
-4.79815e-16
-6.02439e-17
-3.70021e-16
-4.9458e-16
9.56276e-16
-4.09895e-16
-5.15213e-17
-3.18352e-16
-4.17175e-16
8.09514e-16
-3.47962e-16
-4.37884e-17
-2.72387e-16
-3.49496e-16
6.81095e-16
-2.93675e-16
-3.69881e-17
-2.31856e-16
-2.90991e-16
5.69877e-16
-2.46538e-16
-3.1069e-17
-1.96412e-16
-2.40921e-16
4.74442e-16
-2.05967e-16
-2.59568e-17
-1.6565e-16
-1.98452e-16
3.93227e-16
-1.71309e-16
-2.15727e-17
-1.39131e-16
-1.62727e-16
3.2463e-16
-1.41909e-16
-1.7836e-17
-1.1641e-16
-1.3289e-16
2.6707e-16
-1.17118e-16
-1.46744e-17
-9.70532e-17
-1.08121e-16
2.19054e-16
-9.63395e-17
-1.20088e-17
-8.06514e-17
-8.76787e-17
1.79205e-16
-7.90029e-17
-9.77689e-18
-6.68155e-17
-7.08875e-17
1.4629e-16
-6.46035e-17
-7.90959e-18
-5.51915e-17
-5.71605e-17
1.19209e-16
-5.26859e-17
-6.35986e-18
-4.54632e-17
-4.59716e-17
9.70059e-17
-4.28629e-17
-5.07419e-18
-3.7352e-17
-3.68818e-17
7.8852e-17
-3.4785e-17
-4.01256e-18
-3.06076e-17
-2.95208e-17
6.40504e-17
-2.81624e-17
-3.13873e-18
-2.50153e-17
-2.35732e-17
5.20003e-17
-2.27416e-17
-2.423e-18
-2.03874e-17
-1.87707e-17
4.22134e-17
-1.83122e-17
-1.8338e-18
-1.65651e-17
-1.49021e-17
3.4268e-17
-1.46998e-17
-1.35274e-18
-1.34137e-17
-1.17888e-17
2.7822e-17
-1.17544e-17
-9.62337e-19
-1.08168e-17
-9.2818e-18
2.25964e-17
-9.3544e-18
-6.4118e-19
-8.67792e-18
-7.26487e-18
1.83572e-17
-7.39884e-18
-3.79842e-19
-6.91592e-18
-5.64309e-18
1.49192e-17
-5.80563e-18
-1.67092e-19
-5.4639e-18
-4.33332e-18
1.21147e-17
-4.50259e-18
6.08398e-21
-4.26139e-18
-3.30824e-18
9.88686e-18
-3.4591e-18
1.44402e-19
-3.27878e-18
-2.33877e-18
7.77438e-18
-2.47852e-18
2.71838e-19
-2.3663e-18
)
;
    }
    axis
    {
        type            empty;
        value           nonuniform 0();
    }
    procBoundary17to11
    {
        type            processor;
        value           nonuniform List<scalar> 
68
(
-6.1379e-06
-6.68018e-06
-7.25996e-06
-7.87566e-06
-8.52516e-06
-9.20574e-06
-9.91397e-06
-1.06456e-05
-1.13953e-05
-1.21566e-05
-1.29219e-05
-1.36817e-05
-1.44251e-05
-1.5139e-05
-1.58085e-05
-1.64165e-05
-1.69443e-05
-1.73716e-05
-1.76778e-05
-1.78426e-05
-1.78484e-05
-1.76815e-05
-1.73342e-05
-1.68063e-05
-1.61065e-05
-1.52519e-05
-1.42673e-05
-1.31836e-05
-1.20351e-05
-1.08568e-05
-9.68187e-06
-8.53971e-06
-7.45427e-06
-6.44353e-06
-5.51941e-06
-4.68827e-06
-3.9517e-06
-3.30754e-06
-2.75082e-06
-2.27475e-06
-1.87147e-06
-1.53271e-06
-1.25027e-06
-1.01633e-06
-8.23683e-07
-6.65847e-07
-5.37099e-07
-4.32476e-07
-3.47729e-07
-2.79265e-07
-2.24073e-07
-1.79652e-07
-1.43944e-07
-1.15259e-07
-9.22266e-08
-7.37282e-08
-5.88892e-08
-4.69096e-08
-3.75939e-08
-2.87503e-08
-3.94522e-06
-4.26923e-06
-4.63758e-06
-5.05054e-06
-5.50813e-06
-6.01007e-06
-0.000402951
-6.55572e-06
)
;
    }
    procBoundary17to16
    {
        type            processor;
        value           nonuniform List<scalar> 4(-0.000413891 -0.000413069 -0.000405678 -0.000392161);
    }
    procBoundary17to22
    {
        type            processor;
        value           uniform -0.000373035;
    }
    procBoundary17to23
    {
        type            processor;
        value           nonuniform List<scalar> 
68
(
1.65799e-05
1.72263e-05
1.77985e-05
1.82826e-05
1.86651e-05
1.89332e-05
1.90759e-05
1.90841e-05
1.89515e-05
1.86754e-05
1.82569e-05
1.77013e-05
1.70183e-05
1.62215e-05
1.53283e-05
1.43585e-05
1.33338e-05
1.22766e-05
1.12086e-05
1.01501e-05
9.11915e-06
8.13094e-06
7.19744e-06
6.3274e-06
5.52644e-06
4.79741e-06
4.14073e-06
3.55483e-06
3.03665e-06
2.58202e-06
2.18607e-06
1.84353e-06
1.549e-06
1.29717e-06
1.08294e-06
9.01544e-07
7.48588e-07
6.201e-07
5.12532e-07
4.22747e-07
3.48001e-07
2.85912e-07
2.34429e-07
1.91796e-07
1.56515e-07
1.27322e-07
1.03137e-07
8.3085e-08
6.63256e-08
5.25319e-08
3.95708e-08
4.94197e-06
5.43264e-06
5.96837e-06
6.54691e-06
7.16544e-06
7.82048e-06
8.50787e-06
9.22271e-06
9.95932e-06
1.07112e-05
1.1471e-05
1.22305e-05
1.29806e-05
1.37115e-05
1.44125e-05
0.000378753
1.50723e-05
)
;
    }
}


// ************************************************************************* //
