/*--------------------------------*- C++ -*----------------------------------*\
  =========                 |
  \\      /  F ield         | OpenFOAM: The Open Source CFD Toolbox
   \\    /   O peration     | Website:  https://openfoam.org
    \\  /    A nd           | Version:  7
     \\/     M anipulation  |
\*---------------------------------------------------------------------------*/
FoamFile
{
    version     2.0;
    format      ascii;
    class       surfaceScalarField;
    location    "5";
    object      phi;
}
// * * * * * * * * * * * * * * * * * * * * * * * * * * * * * * * * * * * * * //

dimensions      [0 3 -1 0 0 0 0];

internalField   nonuniform List<scalar> 
619
(
5.33943e-05
-1.19421e-07
5.3347e-05
-1.17514e-07
5.33004e-05
-1.1565e-07
5.32546e-05
-1.13828e-07
5.32094e-05
-1.12049e-07
5.3165e-05
-1.10313e-07
5.31213e-05
-1.08619e-07
5.30782e-05
-1.06968e-07
5.30358e-05
-1.0536e-07
5.2994e-05
-1.03797e-07
-1.02279e-07
4.87255e-05
-2.38378e-07
4.86037e-05
-2.32331e-07
4.84849e-05
-2.26518e-07
4.83691e-05
-2.20926e-07
4.82561e-05
-2.15543e-07
4.81459e-05
-2.10357e-07
4.80383e-05
-2.05359e-07
4.79332e-05
-2.00538e-07
4.78306e-05
-1.95885e-07
4.77303e-05
-1.91393e-07
4.76323e-05
-1.87053e-07
4.75365e-05
-1.82858e-07
4.74429e-05
-1.788e-07
4.73513e-05
-1.74875e-07
4.72617e-05
-1.71075e-07
4.71741e-05
-1.67395e-07
4.70883e-05
-1.6383e-07
4.70044e-05
-1.60374e-07
4.69222e-05
-1.57023e-07
4.68417e-05
-1.53773e-07
4.67628e-05
-1.50618e-07
4.66856e-05
-1.47556e-07
4.66099e-05
-1.44582e-07
4.65358e-05
-1.41693e-07
4.64631e-05
-1.38885e-07
4.63919e-05
-1.36156e-07
4.6322e-05
-1.33502e-07
4.62535e-05
-1.3092e-07
4.61863e-05
-1.28408e-07
4.61204e-05
-1.25962e-07
4.60558e-05
-1.23581e-07
4.59924e-05
-1.21263e-07
4.59301e-05
-1.19004e-07
4.5869e-05
-1.16803e-07
4.58091e-05
-1.14658e-07
4.57502e-05
-1.12566e-07
4.56924e-05
-1.10526e-07
4.56356e-05
-1.08537e-07
4.55799e-05
-1.06596e-07
4.55251e-05
-1.04702e-07
4.54714e-05
-1.02853e-07
4.54185e-05
-1.01048e-07
4.53666e-05
-9.92857e-08
4.53156e-05
-9.75644e-08
4.52655e-05
-9.5883e-08
4.52162e-05
-9.42402e-08
4.51678e-05
-9.26349e-08
4.51202e-05
-9.1066e-08
4.50734e-05
-8.95325e-08
4.50274e-05
-8.80335e-08
4.49821e-05
-8.65679e-08
4.49376e-05
-8.5135e-08
4.48938e-05
-8.37338e-08
4.48508e-05
-8.23638e-08
4.48085e-05
-8.10242e-08
4.47668e-05
-7.97144e-08
4.47258e-05
-7.84338e-08
4.46855e-05
-7.71821e-08
4.46458e-05
-7.59588e-08
4.46067e-05
-7.47636e-08
4.45683e-05
-7.35964e-08
4.45304e-05
-7.24571e-08
4.44931e-05
-7.13458e-08
4.44564e-05
-7.02626e-08
4.44203e-05
-6.92081e-08
4.43847e-05
-6.81826e-08
-6.71872e-08
3.88369e-05
-1.37419e-07
3.87385e-05
-1.3394e-07
3.86426e-05
-1.30596e-07
3.85491e-05
-1.27378e-07
3.84578e-05
-1.2428e-07
3.83687e-05
-1.21296e-07
3.82818e-05
-1.18419e-07
3.81969e-05
-1.15643e-07
3.8114e-05
-1.12965e-07
3.8033e-05
-1.10378e-07
3.79538e-05
-1.07879e-07
3.78764e-05
-1.05464e-07
3.78007e-05
-1.03127e-07
3.77267e-05
-1.00866e-07
3.76543e-05
-9.86777e-08
3.75835e-05
-9.65579e-08
3.75142e-05
-9.45041e-08
3.74463e-05
-9.25132e-08
3.73799e-05
-9.05826e-08
3.73148e-05
-8.87097e-08
3.72511e-05
-8.68921e-08
3.71887e-05
-8.51275e-08
3.71275e-05
-8.34138e-08
3.70675e-05
-8.17488e-08
3.70088e-05
-8.01307e-08
3.69512e-05
-7.85577e-08
3.68947e-05
-7.70279e-08
3.68393e-05
-7.55397e-08
3.6785e-05
-7.40916e-08
3.67317e-05
-7.2682e-08
3.66795e-05
-7.13096e-08
3.66282e-05
-6.99729e-08
3.65778e-05
-6.86707e-08
3.65284e-05
-6.74018e-08
3.64799e-05
-6.61649e-08
3.64323e-05
-6.4959e-08
3.63856e-05
-6.3783e-08
3.63397e-05
-6.26359e-08
3.62946e-05
-6.15168e-08
3.62503e-05
-6.04246e-08
3.62068e-05
-5.93585e-08
3.61641e-05
-5.83177e-08
3.61221e-05
-5.73013e-08
3.60809e-05
-5.63087e-08
3.60403e-05
-5.5339e-08
3.60005e-05
-5.43916e-08
3.59613e-05
-5.34659e-08
3.59228e-05
-5.25611e-08
3.5885e-05
-5.16767e-08
3.58477e-05
-5.08121e-08
3.58111e-05
-4.99669e-08
3.57751e-05
-4.91404e-08
3.57397e-05
-4.83323e-08
3.57049e-05
-4.75422e-08
3.56707e-05
-4.67696e-08
3.5637e-05
-4.60141e-08
3.56038e-05
-4.52756e-08
3.55712e-05
-4.45537e-08
3.55391e-05
-4.38482e-08
3.55075e-05
-4.31589e-08
3.54763e-05
-4.24858e-08
3.54457e-05
-4.18288e-08
3.54156e-05
-4.1188e-08
3.53859e-05
-4.05635e-08
3.53566e-05
-3.99556e-08
3.53278e-05
-3.93645e-08
-3.87908e-08
2.84193e-05
-6.26276e-08
2.83464e-05
-6.1046e-08
2.82753e-05
-5.95253e-08
2.8206e-05
-5.80619e-08
2.81384e-05
-5.66528e-08
2.80724e-05
-5.52952e-08
2.8008e-05
-5.39862e-08
2.7945e-05
-5.27235e-08
2.78836e-05
-5.15046e-08
2.78235e-05
-5.03275e-08
2.77648e-05
-4.91901e-08
2.77075e-05
-4.80904e-08
2.76514e-05
-4.70268e-08
2.75965e-05
-4.59975e-08
2.75428e-05
-4.5001e-08
2.74903e-05
-4.40358e-08
2.74389e-05
-4.31005e-08
2.73886e-05
-4.21938e-08
2.73393e-05
-4.13145e-08
2.72911e-05
-4.04615e-08
2.72438e-05
-3.96336e-08
2.71975e-05
-3.88297e-08
2.71521e-05
-3.8049e-08
2.71077e-05
-3.72905e-08
2.70641e-05
-3.65533e-08
2.70214e-05
-3.58366e-08
2.69795e-05
-3.51395e-08
2.69384e-05
-3.44614e-08
2.68981e-05
-3.38015e-08
2.68586e-05
-3.31591e-08
2.68198e-05
-3.25337e-08
2.67818e-05
-3.19245e-08
2.67444e-05
-3.1331e-08
2.67078e-05
-3.07526e-08
2.66718e-05
-3.01888e-08
2.66365e-05
-2.96392e-08
2.66018e-05
-2.91031e-08
2.65678e-05
-2.85802e-08
2.65343e-05
-2.807e-08
2.65015e-05
-2.75721e-08
2.64692e-05
-2.70861e-08
2.64375e-05
-2.66116e-08
2.64063e-05
-2.61483e-08
2.63757e-05
-2.56957e-08
2.63456e-05
-2.52536e-08
2.63161e-05
-2.48216e-08
2.6287e-05
-2.43995e-08
2.62584e-05
-2.3987e-08
2.62303e-05
-2.35837e-08
2.62027e-05
-2.31895e-08
2.61755e-05
-2.28041e-08
2.61488e-05
-2.24272e-08
2.61226e-05
-2.20588e-08
2.60967e-05
-2.16984e-08
2.60713e-05
-2.13461e-08
2.60463e-05
-2.10017e-08
2.60217e-05
-2.06649e-08
2.59975e-05
-2.03357e-08
2.59736e-05
-2.0014e-08
2.59502e-05
-1.96997e-08
2.59271e-05
-1.93928e-08
2.59043e-05
-1.90933e-08
2.58819e-05
-1.88012e-08
2.58599e-05
-1.85165e-08
2.58382e-05
-1.82394e-08
2.58168e-05
-1.797e-08
-1.77086e-08
1.74655e-05
-1.61153e-08
1.74202e-05
-1.57096e-08
1.7376e-05
-1.53194e-08
1.73329e-05
-1.49439e-08
1.72908e-05
-1.45823e-08
1.72497e-05
-1.42337e-08
1.72096e-05
-1.38977e-08
1.71705e-05
-1.35735e-08
1.71322e-05
-1.32604e-08
1.70949e-05
-1.29581e-08
1.70584e-05
-1.26659e-08
1.70226e-05
-1.23834e-08
1.69877e-05
-1.21101e-08
1.69536e-05
-1.18456e-08
1.69202e-05
-1.15895e-08
1.68875e-05
-1.13414e-08
1.68555e-05
-1.1101e-08
1.68241e-05
-1.08679e-08
1.67935e-05
-1.06419e-08
1.67634e-05
-1.04225e-08
1.6734e-05
-1.02096e-08
1.67052e-05
-1.00029e-08
1.66769e-05
-9.80214e-09
1.66493e-05
-9.60705e-09
1.66221e-05
-9.41742e-09
1.65955e-05
-9.23305e-09
1.65694e-05
-9.05373e-09
1.65438e-05
-8.87928e-09
1.65188e-05
-8.7095e-09
1.64941e-05
-8.54422e-09
1.647e-05
-8.38328e-09
1.64463e-05
-8.22652e-09
1.6423e-05
-8.07379e-09
1.64002e-05
-7.92495e-09
1.63778e-05
-7.77985e-09
1.63558e-05
-7.63838e-09
1.63342e-05
-7.50041e-09
1.6313e-05
-7.36582e-09
1.62921e-05
-7.23449e-09
1.62717e-05
-7.10632e-09
1.62516e-05
-6.98121e-09
1.62318e-05
-6.85906e-09
1.62124e-05
-6.73976e-09
1.61933e-05
-6.62325e-09
1.61746e-05
-6.50942e-09
1.61562e-05
-6.39821e-09
1.61381e-05
-6.28953e-09
1.61203e-05
-6.1833e-09
1.61028e-05
-6.07947e-09
1.60855e-05
-5.97796e-09
1.60686e-05
-5.87871e-09
1.6052e-05
-5.78167e-09
1.60356e-05
-5.68678e-09
1.60195e-05
-5.594e-09
1.60037e-05
-5.50327e-09
1.59881e-05
-5.41457e-09
1.59727e-05
-5.32784e-09
1.59576e-05
-5.24308e-09
1.59428e-05
-5.16024e-09
1.59282e-05
-5.07931e-09
1.59138e-05
-5.0003e-09
1.58996e-05
-4.92317e-09
1.58856e-05
-4.84796e-09
1.58719e-05
-4.77468e-09
1.58584e-05
-4.70335e-09
1.5845e-05
-4.63403e-09
-4.56677e-09
5.96815e-06
5.95244e-06
5.93712e-06
5.92217e-06
5.90759e-06
5.89336e-06
5.87946e-06
5.86589e-06
5.85263e-06
5.83967e-06
5.827e-06
5.81462e-06
5.80251e-06
5.79066e-06
5.77907e-06
5.76773e-06
5.75663e-06
5.74576e-06
5.73512e-06
5.7247e-06
5.71449e-06
5.70449e-06
5.69468e-06
5.68508e-06
5.67566e-06
5.66643e-06
5.65737e-06
5.64849e-06
5.63978e-06
5.63124e-06
5.62286e-06
5.61463e-06
5.60656e-06
5.59863e-06
5.59085e-06
5.58321e-06
5.57571e-06
5.56835e-06
5.56111e-06
5.55401e-06
5.54703e-06
5.54017e-06
5.53343e-06
5.5268e-06
5.52029e-06
5.5139e-06
5.50761e-06
5.50142e-06
5.49534e-06
5.48937e-06
5.48349e-06
5.4777e-06
5.47202e-06
5.46642e-06
5.46092e-06
5.45551e-06
5.45018e-06
5.44494e-06
5.43977e-06
5.4347e-06
5.4297e-06
5.42477e-06
5.41992e-06
5.41515e-06
5.41045e-06
5.40581e-06
)
;

boundaryField
{
    inlet
    {
        type            calculated;
        value           nonuniform 0();
    }
    outlet
    {
        type            calculated;
        value           nonuniform 0();
    }
    wall
    {
        type            calculated;
        value           uniform 0;
    }
    wedge1
    {
        type            wedge;
        value           nonuniform List<scalar> 
346
(
1.57474e-17
9.72654e-18
1.60597e-17
2.24004e-18
-3.43001e-18
1.53811e-17
9.50984e-18
1.56747e-17
2.19547e-18
-3.34089e-18
1.50002e-17
9.273e-18
1.52882e-17
2.14697e-18
-3.25732e-18
1.46296e-17
9.0388e-18
1.49032e-17
2.07996e-18
-3.18257e-18
1.42455e-17
8.79206e-18
1.45181e-17
2.02066e-18
-3.11197e-18
1.39361e-17
8.61648e-18
1.4202e-17
1.98893e-18
-3.0306e-18
1.36096e-17
8.416e-18
1.38733e-17
1.95111e-18
-2.95679e-18
1.32874e-17
8.2115e-18
1.35391e-17
1.89122e-18
-2.89292e-18
1.29495e-17
7.99414e-18
1.32019e-17
1.83839e-18
-2.83244e-18
1.26807e-17
7.84271e-18
1.29297e-17
1.81222e-18
-2.76087e-18
1.23943e-17
7.66566e-18
1.26417e-17
1.77888e-18
-2.69734e-18
1.21107e-17
7.48467e-18
1.23474e-17
1.72318e-18
-2.64263e-18
1.18028e-17
7.28149e-18
1.20414e-17
1.66911e-18
-2.5928e-18
1.15449e-17
7.12728e-18
1.17794e-17
1.63181e-18
-2.53695e-18
1.12747e-17
6.9573e-18
1.15259e-17
1.59969e-18
-2.47913e-18
1.10094e-17
6.79225e-18
1.12703e-17
1.56089e-18
-2.4277e-18
1.07555e-17
6.63251e-18
1.10205e-17
1.5219e-18
-2.37863e-18
1.05113e-17
6.47993e-18
1.07801e-17
1.48503e-18
-2.33072e-18
1.02747e-17
6.33093e-18
1.05463e-17
1.44822e-18
-2.28456e-18
1.00448e-17
6.18695e-18
1.03201e-17
1.41347e-18
-2.2396e-18
9.82476e-18
6.0496e-18
1.01017e-17
1.37973e-18
-2.19574e-18
9.60825e-18
5.91342e-18
9.88721e-18
1.34649e-18
-2.15332e-18
9.40141e-18
5.78427e-18
9.682e-18
1.31558e-18
-2.11168e-18
9.20464e-18
5.66265e-18
9.48543e-18
1.28706e-18
-2.07057e-18
9.02055e-18
5.54992e-18
9.29778e-18
1.2615e-18
-2.03016e-18
8.86546e-18
5.4622e-18
9.12984e-18
1.24531e-18
-1.98804e-18
8.72578e-18
5.38491e-18
8.97147e-18
1.23159e-18
-1.94648e-18
8.55968e-18
5.28054e-18
8.80091e-18
1.2132e-18
-1.9074e-18
8.39702e-18
5.1748e-18
8.62371e-18
1.17602e-18
-1.87585e-18
8.21503e-18
5.05503e-18
8.44073e-18
1.14713e-18
-1.84468e-18
8.09214e-18
4.99389e-18
8.31135e-18
1.14176e-18
-1.80281e-18
7.94779e-18
4.90536e-18
8.16302e-18
1.12901e-18
-1.76671e-18
7.81029e-18
4.8172e-18
8.00185e-18
1.09569e-18
-1.74025e-18
7.7143e-18
4.7752e-18
7.89471e-18
1.1047e-18
-1.697e-18
7.58306e-18
4.69208e-18
7.74792e-18
1.08146e-18
-1.66919e-18
7.47911e-18
4.63812e-18
7.63489e-18
1.08034e-18
-1.63119e-18
7.33945e-18
4.54116e-18
7.48155e-18
1.04611e-18
-1.60783e-18
7.24583e-18
4.49827e-18
7.3808e-18
1.05267e-18
-1.56951e-18
7.11953e-18
4.41725e-18
7.2439e-18
1.0292e-18
-1.545e-18
7.02003e-18
4.36367e-18
7.13851e-18
1.02629e-18
-1.51088e-18
6.8874e-18
4.2718e-18
6.9956e-18
9.93604e-19
-1.49082e-18
6.79987e-18
4.23194e-18
6.90441e-18
9.99858e-19
-1.45545e-18
6.68158e-18
4.15449e-18
6.77649e-18
9.76079e-19
-1.43437e-18
6.58862e-18
4.10595e-18
6.68256e-18
9.7525e-19
-1.40214e-18
6.45765e-18
4.01439e-18
6.55444e-18
9.47882e-19
-1.38169e-18
6.34058e-18
3.93576e-18
6.4253e-18
9.18056e-19
-1.36434e-18
6.27063e-18
3.90734e-18
6.35004e-18
9.27493e-19
-1.33201e-18
6.16484e-18
3.83921e-18
6.23539e-18
9.06365e-19
-1.31331e-18
6.08757e-18
3.79804e-18
6.15294e-18
9.05742e-19
-1.28477e-18
5.97495e-18
3.7179e-18
6.032e-18
8.75114e-19
-1.26973e-18
5.90605e-18
3.68749e-18
5.96076e-18
8.82436e-19
-1.24007e-18
5.80544e-18
3.62163e-18
5.85356e-18
8.61307e-19
-1.22372e-18
5.73299e-18
3.58399e-18
5.77797e-18
8.61187e-19
-1.19787e-18
5.62661e-18
3.50654e-18
5.66321e-18
8.29773e-19
-1.18534e-18
5.56233e-18
3.47842e-18
5.59856e-18
8.37038e-19
-1.15818e-18
5.47045e-18
3.41943e-18
5.50069e-18
8.18563e-19
-1.14258e-18
-5.20594e-17
5.4043e-18
3.38337e-18
5.43174e-18
8.17528e-19
-1.11861e-18
-5.12368e-17
5.30437e-18
3.31141e-18
5.32635e-18
7.88452e-19
-1.10768e-18
-5.03989e-17
5.24637e-18
3.28685e-18
5.2676e-18
7.96009e-19
-1.08235e-18
-4.96057e-17
5.15917e-18
3.2289e-18
5.17535e-18
7.7638e-19
-1.06928e-18
-4.88094e-17
5.09926e-18
3.19758e-18
5.11342e-18
7.76893e-19
-1.04693e-18
-4.80596e-17
5.00812e-18
3.13067e-18
5.01511e-18
7.4914e-19
-1.03785e-18
-4.72977e-17
4.95729e-18
3.11059e-18
4.96539e-18
7.57936e-19
-1.01367e-18
-4.65797e-17
4.87676e-18
3.05681e-18
4.87965e-18
7.38896e-19
-1.00288e-18
-4.5859e-17
4.82372e-18
3.02989e-18
4.8256e-18
7.40602e-19
-9.81687e-19
-4.51869e-17
4.73746e-18
2.96396e-18
4.73286e-18
7.11951e-19
-9.7505e-19
-4.45049e-17
4.6905e-18
2.94666e-18
4.68795e-18
7.20557e-19
-9.52998e-19
)
;
    }
    wedge2
    {
        type            wedge;
        value           nonuniform List<scalar> 
346
(
1.65123e-17
1.03187e-17
1.64803e-17
2.49066e-18
-3.34741e-18
1.6059e-17
1.00272e-17
1.60446e-17
2.41626e-18
-3.26787e-18
1.56521e-17
9.77556e-18
1.5642e-17
2.35033e-18
-3.18916e-18
1.52649e-17
9.53981e-18
1.52676e-17
2.30721e-18
-3.10764e-18
1.49196e-17
9.33413e-18
1.49215e-17
2.26045e-18
-3.02766e-18
1.45264e-17
9.07388e-18
1.4533e-17
2.18997e-18
-2.96385e-18
1.41757e-17
8.85425e-18
1.41824e-17
2.12923e-18
-2.89759e-18
1.38448e-17
8.65355e-18
1.38612e-17
2.09402e-18
-2.82626e-18
1.35524e-17
8.47986e-18
1.35658e-17
2.05505e-18
-2.75616e-18
1.32127e-17
8.2537e-18
1.3227e-17
1.99253e-18
-2.70154e-18
1.29112e-17
8.06593e-18
1.29246e-17
1.94017e-18
-2.64307e-18
1.26268e-17
7.89429e-18
1.26482e-17
1.91301e-18
-2.57978e-18
1.23852e-17
7.75643e-18
1.2402e-17
1.88691e-18
-2.51541e-18
1.21115e-17
7.58066e-18
1.21298e-17
1.84662e-18
-2.46068e-18
1.18672e-17
7.43121e-18
1.18659e-17
1.80362e-18
-2.41141e-18
1.16342e-17
7.2869e-18
1.16205e-17
1.76965e-18
-2.35905e-18
1.14054e-17
7.14692e-18
1.13847e-17
1.7381e-18
-2.30751e-18
1.11817e-17
7.00897e-18
1.11544e-17
1.7066e-18
-2.25783e-18
1.09646e-17
6.87625e-18
1.09317e-17
1.67709e-18
-2.20932e-18
1.07545e-17
6.74695e-18
1.0715e-17
1.64748e-18
-2.1624e-18
1.05474e-17
6.61909e-18
1.05035e-17
1.61877e-18
-2.11704e-18
1.03494e-17
6.49781e-18
1.03006e-17
1.59135e-18
-2.0728e-18
1.01537e-17
6.37693e-18
1.01004e-17
1.56335e-18
-2.03025e-18
9.9594e-18
6.25564e-18
9.90304e-18
1.53463e-18
-1.98953e-18
9.76347e-18
6.1323e-18
9.70785e-18
1.50454e-18
-1.95038e-18
9.54914e-18
5.99053e-18
9.50356e-18
1.46663e-18
-1.91512e-18
9.32958e-18
5.84465e-18
9.29992e-18
1.42773e-18
-1.88141e-18
9.14624e-18
5.73193e-18
9.11827e-18
1.39492e-18
-1.84723e-18
8.96889e-18
5.62642e-18
8.95272e-18
1.38227e-18
-1.80747e-18
8.81995e-18
5.54057e-18
8.80205e-18
1.36266e-18
-1.76921e-18
8.62064e-18
5.40152e-18
8.60654e-18
1.32079e-18
-1.74345e-18
8.4512e-18
5.29508e-18
8.43842e-18
1.28754e-18
-1.71366e-18
8.28304e-18
5.19329e-18
8.29129e-18
1.27603e-18
-1.67591e-18
8.08118e-18
5.05021e-18
8.09797e-18
1.22333e-18
-1.65657e-18
7.92213e-18
4.95293e-18
7.95189e-18
1.20398e-18
-1.62335e-18
7.74306e-18
4.831e-18
7.77935e-18
1.16358e-18
-1.60183e-18
7.60674e-18
4.75644e-18
7.65419e-18
1.1573e-18
-1.56713e-18
7.43117e-18
4.63203e-18
7.48326e-18
1.11123e-18
-1.5488e-18
7.29483e-18
4.54982e-18
7.35508e-18
1.09615e-18
-1.51803e-18
7.13805e-18
4.44412e-18
7.20175e-18
1.06144e-18
-1.49819e-18
7.02054e-18
4.38051e-18
7.09212e-18
1.05739e-18
-1.46556e-18
6.86387e-18
4.26858e-18
6.93674e-18
1.01528e-18
-1.44948e-18
6.74369e-18
4.19781e-18
6.82388e-18
1.00403e-18
-1.4203e-18
6.60377e-18
4.10159e-18
6.68262e-18
9.70653e-19
-1.40343e-18
6.50725e-18
4.05174e-18
6.58098e-18
9.646e-19
-1.37592e-18
6.40206e-18
3.99221e-18
6.48563e-18
9.61769e-19
-1.34638e-18
6.25483e-18
3.88562e-18
6.34151e-18
9.2042e-19
-1.33289e-18
6.14836e-18
3.8218e-18
6.24174e-18
9.10352e-19
-1.30681e-18
6.01818e-18
3.73401e-18
6.11459e-18
8.80487e-19
-1.29155e-18
5.92799e-18
3.68807e-18
6.03061e-18
8.81304e-19
-1.26378e-18
5.79862e-18
3.59522e-18
5.90152e-18
8.44838e-19
-1.25157e-18
5.70537e-18
3.54056e-18
5.81282e-18
8.37464e-19
-1.22697e-18
5.58828e-18
3.46036e-18
5.69686e-18
8.09718e-19
-1.21278e-18
5.50931e-18
3.42258e-18
5.62431e-18
8.13879e-19
-1.18616e-18
5.39236e-18
3.33803e-18
5.50579e-18
7.79968e-19
-1.17501e-18
5.30704e-18
3.28686e-18
5.42457e-18
7.72385e-19
-1.15317e-18
-5.23047e-17
5.19994e-18
3.21521e-18
5.31842e-18
7.47948e-19
-1.14052e-18
-5.14596e-17
5.13052e-18
3.18189e-18
5.25264e-18
7.52119e-19
-1.11565e-18
-5.06677e-17
5.02302e-18
3.10356e-18
5.1441e-18
7.20228e-19
-1.106e-18
-4.98683e-17
4.94851e-18
3.06099e-18
5.07292e-18
7.16078e-19
-1.08488e-18
-4.91092e-17
4.85049e-18
2.99413e-18
4.97525e-18
6.92348e-19
-1.07385e-18
-4.83406e-17
4.78746e-18
2.96522e-18
4.91776e-18
6.97436e-19
-1.05035e-18
-4.76211e-17
4.6879e-18
2.89183e-18
4.81551e-18
6.66538e-19
-1.04275e-18
-4.68952e-17
4.62185e-18
2.8545e-18
4.75315e-18
6.64034e-19
-1.02257e-18
-4.62096e-17
4.53215e-18
2.79273e-18
4.66301e-18
6.41361e-19
-1.01362e-18
-4.55139e-17
4.4796e-18
2.77241e-18
4.61557e-18
6.49625e-19
-9.90947e-19
-4.48677e-17
4.39179e-18
2.70598e-18
4.5244e-18
6.21238e-19
-9.84562e-19
)
;
    }
    axis
    {
        type            empty;
        value           nonuniform 0();
    }
    procBoundary43to37
    {
        type            processor;
        value           nonuniform List<scalar> 
68
(
1.67527e-07
1.64849e-07
1.62231e-07
1.59674e-07
1.57176e-07
1.54738e-07
1.52359e-07
1.50041e-07
1.47782e-07
1.45586e-07
1.43453e-07
3.63395e-07
3.54159e-07
3.45282e-07
3.36742e-07
3.28523e-07
3.20605e-07
3.12975e-07
3.05615e-07
2.98514e-07
2.91658e-07
2.85035e-07
2.78633e-07
2.72443e-07
2.66454e-07
2.60657e-07
2.55043e-07
2.49604e-07
2.44333e-07
2.39222e-07
2.34264e-07
2.29453e-07
2.24783e-07
2.20248e-07
2.15843e-07
2.11561e-07
2.074e-07
2.03353e-07
1.99416e-07
1.95586e-07
1.91858e-07
1.88229e-07
1.84694e-07
1.81251e-07
1.77896e-07
1.74626e-07
1.71438e-07
1.68329e-07
1.65296e-07
1.62338e-07
1.59451e-07
1.56634e-07
1.53883e-07
1.51197e-07
1.48574e-07
1.46011e-07
1.43508e-07
1.41061e-07
1.38671e-07
1.36334e-07
1.34049e-07
1.31816e-07
1.29633e-07
1.27498e-07
1.2541e-07
1.23369e-07
-5.34424e-05
1.21373e-07
)
;
    }
    procBoundary43to38
    {
        type            processor;
        value           uniform 5.29528e-05;
    }
    procBoundary43to42
    {
        type            processor;
        value           nonuniform List<scalar> 5(-4.88505e-05 -3.89379e-05 -2.84941e-05 -1.7512e-05 -5.98426e-06);
    }
    procBoundary43to44
    {
        type            processor;
        value           nonuniform List<scalar> 5(4.43496e-05 3.52994e-05 2.57957e-05 1.58319e-05 5.40125e-06);
    }
}


// ************************************************************************* //
