/*--------------------------------*- C++ -*----------------------------------*\
  =========                 |
  \\      /  F ield         | OpenFOAM: The Open Source CFD Toolbox
   \\    /   O peration     | Website:  https://openfoam.org
    \\  /    A nd           | Version:  7
     \\/     M anipulation  |
\*---------------------------------------------------------------------------*/
FoamFile
{
    version     2.0;
    format      ascii;
    class       volScalarField;
    location    "4.8";
    object      p;
}
// * * * * * * * * * * * * * * * * * * * * * * * * * * * * * * * * * * * * * //

dimensions      [0 2 -2 0 0 0 0];

internalField   nonuniform List<scalar> 
344
(
4.32648
4.31658
4.30676
4.29701
4.28733
4.27771
4.26816
4.25868
4.24925
4.23989
4.23058
4.22132
4.21212
4.20297
4.19388
4.18483
4.17583
4.16688
4.15797
4.14911
4.14029
4.13151
5.13596
5.1267
5.09428
5.0524
5.00868
4.96613
4.92646
4.89026
4.85746
4.82778
4.80081
4.77616
4.75347
4.73243
4.71278
4.6943
4.67681
4.66018
4.64427
4.62899
4.61426
4.60001
4.58618
4.57272
4.55959
4.54677
4.53421
4.52189
4.50979
4.4979
4.4862
4.47466
4.46329
4.45206
4.44098
4.43002
4.41919
4.40848
4.39787
4.38737
4.37697
4.36667
4.35645
4.34632
4.33628
4.32631
4.31642
4.30661
4.29687
4.28719
4.27759
4.26804
4.25856
4.24914
4.23978
4.23048
4.22123
4.21203
4.20289
4.1938
4.18475
4.17576
4.16681
4.1579
4.14904
4.14023
4.13145
5.16026
5.14684
5.10911
5.06164
5.01366
4.96813
4.92651
4.88912
4.85566
4.82566
4.79857
4.77393
4.75132
4.7304
4.71088
4.69255
4.6752
4.6587
4.64292
4.62776
4.61314
4.59899
4.58524
4.57187
4.55881
4.54605
4.53355
4.52129
4.50924
4.49739
4.48573
4.47423
4.46289
4.4517
4.44064
4.42971
4.4189
4.4082
4.39762
4.38713
4.37675
4.36646
4.35626
4.34614
4.33611
4.32615
4.31627
4.30647
4.29673
4.28706
4.27746
4.26793
4.25845
4.24904
4.23968
4.23038
4.22114
4.21194
4.2028
4.19371
4.18467
4.17568
4.16673
4.15783
4.14898
4.14016
4.13139
5.18874
5.16892
5.12476
5.07079
5.01818
4.96959
4.92607
4.88761
4.8536
4.82337
4.79624
4.77166
4.74918
4.7284
4.70904
4.69086
4.67366
4.65729
4.64164
4.62659
4.61208
4.59802
4.58436
4.57106
4.55808
4.54538
4.53293
4.52072
4.50872
4.49691
4.48529
4.47382
4.46251
4.45135
4.44031
4.42941
4.41862
4.40794
4.39737
4.38691
4.37654
4.36626
4.35607
4.34596
4.33594
4.32599
4.31612
4.30632
4.2966
4.28694
4.27734
4.26781
4.25834
4.24893
4.23958
4.23029
4.22104
4.21186
4.20272
4.19363
4.1846
4.17561
4.16666
4.15776
4.14891
4.1401
4.13133
5.22268
5.19308
5.14117
5.07971
5.0221
4.97043
4.92512
4.88573
4.8513
4.82094
4.79384
4.76938
4.74705
4.72644
4.70725
4.68922
4.67217
4.65595
4.64042
4.62548
4.61107
4.5971
4.58352
4.5703
4.55738
4.54474
4.53235
4.52018
4.50823
4.49646
4.48487
4.47343
4.46215
4.45101
4.44
4.42912
4.41835
4.40769
4.39714
4.38669
4.37633
4.36606
4.35589
4.34579
4.33578
4.32584
4.31598
4.30619
4.29647
4.28681
4.27722
4.2677
4.25824
4.24883
4.23948
4.23019
4.22095
4.21177
4.20264
4.19355
4.18452
4.17553
4.16659
4.15769
4.14884
4.14003
4.13127
5.26382
5.21941
5.1582
5.08817
5.02526
4.97058
4.92365
4.8835
4.84878
4.81839
4.7914
4.7671
4.74495
4.72452
4.70551
4.68765
4.67075
4.65466
4.63925
4.62442
4.6101
4.59622
4.58273
4.56957
4.55671
4.54413
4.53179
4.51967
4.50776
4.49602
4.48446
4.47306
4.46181
4.45069
4.43971
4.42884
4.41809
4.40745
4.39691
4.38647
4.37613
4.36588
4.35571
4.34562
4.33562
4.32569
4.31583
4.30605
4.29634
4.28669
4.27711
4.26759
4.25813
4.24873
)
;

boundaryField
{
    inlet
    {
        type            zeroGradient;
    }
    outlet
    {
        type            fixedValue;
        value           nonuniform 0();
    }
    wall
    {
        type            zeroGradient;
    }
    wedge1
    {
        type            wedge;
    }
    wedge2
    {
        type            wedge;
    }
    axis
    {
        type            empty;
    }
    procBoundary30to24
    {
        type            processor;
        value           nonuniform List<scalar> 
68
(
4.32666
4.31675
4.30692
4.29716
4.28747
4.27785
4.26829
4.2588
4.24936
4.23999
4.23068
4.22142
4.21221
4.20306
4.19396
4.18491
4.17591
4.16695
4.15804
4.14918
4.14036
4.13158
5.1149
5.10831
5.08029
5.04322
5.00335
4.96366
4.92596
4.89102
4.85899
4.82972
4.80294
4.77834
4.75561
4.73447
4.7147
4.69609
4.67847
4.66171
4.64567
4.63028
4.61544
4.60109
4.58717
4.57362
4.56042
4.54752
4.5349
4.52253
4.51038
4.49844
4.48669
4.47512
4.46371
4.45245
4.44134
4.43036
4.4195
4.40877
4.39814
4.38762
4.37721
4.36688
4.35666
4.34651
4.33646
4.33646
)
;
    }
    procBoundary30to25
    {
        type            processor;
        value           uniform 4.12278;
    }
    procBoundary30to31
    {
        type            processor;
        value           nonuniform List<scalar> 4(4.12272 4.12266 4.1226 4.12254);
    }
    procBoundary30to36
    {
        type            processor;
        value           nonuniform List<scalar> 
68
(
4.23938
4.2301
4.22086
4.21168
4.20255
4.19347
4.18444
4.17546
4.16652
4.15762
4.14877
4.13997
4.1312
5.31442
5.24789
5.17563
5.09593
5.02751
4.96997
4.92164
4.88092
4.84607
4.81574
4.78891
4.76482
4.74287
4.72265
4.70382
4.68612
4.66938
4.65342
4.63813
4.62341
4.60919
4.59539
4.58197
4.56888
4.55608
4.54355
4.53126
4.51918
4.5073
4.49561
4.48408
4.4727
4.46148
4.45038
4.43942
4.42857
4.41784
4.40721
4.39669
4.38627
4.37593
4.36569
4.35553
4.34546
4.33546
4.32554
4.31569
4.30592
4.29621
4.28657
4.27699
4.26747
4.25802
4.23938
4.24862
)
;
    }
}


// ************************************************************************* //
