/*--------------------------------*- C++ -*----------------------------------*\
  =========                 |
  \\      /  F ield         | OpenFOAM: The Open Source CFD Toolbox
   \\    /   O peration     | Website:  https://openfoam.org
    \\  /    A nd           | Version:  7
     \\/     M anipulation  |
\*---------------------------------------------------------------------------*/
FoamFile
{
    version     2.0;
    format      ascii;
    class       volScalarField;
    location    "23.000796";
    object      p;
}
// * * * * * * * * * * * * * * * * * * * * * * * * * * * * * * * * * * * * * //

dimensions      [0 2 -2 0 0 0 0];

internalField   nonuniform List<scalar> 
5800
(
-0.219538
-0.220274
-0.220826
-0.221194
-0.221377
-0.00198493
-0.00260389
-0.00322234
-0.00383951
-0.00445456
-0.00506663
-0.00567479
-0.0062781
-0.00687553
-0.00746605
-0.00804857
-0.00862196
-0.00918505
-0.00973665
-0.0102755
-0.0108004
-0.01131
-0.011803
-0.0122781
-0.0127339
-0.0131691
-0.0135823
-0.0139722
-0.0143374
-0.0146765
-0.0149884
-0.0152716
-0.0155249
-0.0157472
-0.0159372
-0.016094
-0.0162164
-0.0163035
-0.0163543
-0.0163682
-0.0163445
-0.0162824
-0.0161815
-0.0160414
-0.0158618
-0.0156426
-0.0153836
-0.0150849
-0.0147467
-0.0143693
-0.0139529
-0.0134982
-0.0130057
-0.0124761
-0.0119101
-0.0113086
-0.0106724
-0.0100026
-0.00930029
-0.00856633
-0.00780211
-0.00700815
-0.00618722
-0.00533654
-0.00446704
-0.0035567
-0.00266135
-0.0016518
-0.000797843
-0.00207493
-0.00269521
-0.00331493
-0.00393329
-0.00454946
-0.00516255
-0.00577164
-0.00637576
-0.0069739
-0.007565
-0.00814798
-0.00872169
-0.00928497
-0.00983662
-0.0103754
-0.0109
-0.0114092
-0.0119017
-0.0123761
-0.012831
-0.0132652
-0.0136772
-0.0140657
-0.0144294
-0.0147669
-0.0150769
-0.0153582
-0.0156094
-0.0158295
-0.0160172
-0.0161715
-0.0162913
-0.0163758
-0.0164239
-0.016435
-0.0164083
-0.0163433
-0.0162394
-0.0160963
-0.0159137
-0.0156915
-0.0154295
-0.0151278
-0.0147867
-0.0144064
-0.0139872
-0.0135298
-0.0130346
-0.0125024
-0.0119339
-0.01133
-0.0106916
-0.0100197
-0.00931535
-0.0085795
-0.00781353
-0.00701788
-0.0061955
-0.00534315
-0.0044728
-0.00355987
-0.00266574
-0.00164834
-0.000806789
-0.00224967
-0.00287272
-0.00349504
-0.00411583
-0.00473424
-0.00534937
-0.00596029
-0.00656602
-0.00716553
-0.00775777
-0.00834163
-0.00891597
-0.00947961
-0.0100313
-0.0105699
-0.011094
-0.0116024
-0.0120938
-0.0125667
-0.0130199
-0.0134521
-0.0138618
-0.0142476
-0.0146084
-0.0149426
-0.0152491
-0.0155266
-0.0157738
-0.0159895
-0.0161727
-0.0163222
-0.016437
-0.0165162
-0.016559
-0.0165646
-0.0165323
-0.0164616
-0.0163519
-0.016203
-0.0160145
-0.0157863
-0.0155185
-0.0152111
-0.0148642
-0.0144783
-0.0140536
-0.0135908
-0.0130905
-0.0125533
-0.01198
-0.0113715
-0.0107288
-0.0100527
-0.00934449
-0.00860497
-0.00783559
-0.00703673
-0.00621142
-0.00535615
-0.00448346
-0.00356741
-0.00267224
-0.00165015
-0.000813533
-0.00250617
-0.0031332
-0.00375926
-0.00438354
-0.00500517
-0.00562323
-0.00623678
-0.00684481
-0.0074463
-0.00804015
-0.00862525
-0.00920045
-0.00976456
-0.0103163
-0.0108545
-0.0113779
-0.011885
-0.0123747
-0.0128456
-0.0132962
-0.0137253
-0.0141315
-0.0145135
-0.0148699
-0.0151993
-0.0155006
-0.0157725
-0.0160137
-0.016223
-0.0163995
-0.0165419
-0.0166494
-0.016721
-0.0167559
-0.0167534
-0.0167129
-0.0166338
-0.0165156
-0.0163581
-0.016161
-0.0159243
-0.0156479
-0.015332
-0.0149768
-0.0145827
-0.01415
-0.0136794
-0.0131715
-0.0126271
-0.0120468
-0.0114317
-0.0107826
-0.0101005
-0.00938663
-0.0086418
-0.00786747
-0.00706395
-0.00623439
-0.00537498
-0.0044988
-0.00357867
-0.00268145
-0.00165401
-0.000819843
-0.00284129
-0.0034735
-0.00410442
-0.00473322
-0.00535901
-0.00598086
-0.00659778
-0.00720876
-0.00781274
-0.00840863
-0.00899528
-0.00957153
-0.0101362
-0.0106879
-0.0112256
-0.0117478
-0.0122532
-0.0127406
-0.0132086
-0.0136558
-0.0140809
-0.0144825
-0.0148592
-0.0152099
-0.015533
-0.0158274
-0.0160919
-0.0163252
-0.0165261
-0.0166937
-0.0168269
-0.0169248
-0.0169864
-0.0170111
-0.016998
-0.0169467
-0.0168566
-0.0167274
-0.0165587
-0.0163505
-0.0161026
-0.0158151
-0.0154882
-0.0151221
-0.0147174
-0.0142743
-0.0137936
-0.0132759
-0.012722
-0.0121327
-0.011509
-0.0108517
-0.0101619
-0.00944069
-0.00868902
-0.00790831
-0.00709881
-0.00626378
-0.00539909
-0.00451841
-0.00359318
-0.00269307
-0.00165911
-0.000826673
-0.00325305
-0.00389153
-0.00452832
-0.00516258
-0.00579338
-0.00641976
-0.00704071
-0.0076552
-0.00826213
-0.00886039
-0.00944881
-0.0100262
-0.0105913
-0.011143
-0.0116798
-0.0122005
-0.0127037
-0.0131882
-0.0136525
-0.0140953
-0.0145153
-0.0149111
-0.0152814
-0.0156248
-0.0159401
-0.0162259
-0.0164812
-0.0167047
-0.0168953
-0.017052
-0.0171738
-0.0172598
-0.0173092
-0.0173211
-0.0172951
-0.0172306
-0.0171271
-0.0169843
-0.016802
-0.01658
-0.0163184
-0.0160174
-0.0156771
-0.0152978
-0.01488
-0.0144244
-0.0139314
-0.0134018
-0.0128364
-0.0122362
-0.0116019
-0.0109347
-0.0102356
-0.00950555
-0.00874562
-0.00795723
-0.00714054
-0.00629892
-0.00542792
-0.00454182
-0.00361057
-0.00270683
-0.00166538
-0.000834167
-0.00373988
-0.00438565
-0.00502925
-0.00566982
-0.0063064
-0.00693798
-0.00756354
-0.008182
-0.00879225
-0.00939314
-0.00998347
-0.010562
-0.0111276
-0.0116788
-0.0122145
-0.0127332
-0.0132336
-0.0137144
-0.0141743
-0.0146118
-0.0150256
-0.0154143
-0.0157767
-0.0161115
-0.0164173
-0.0166929
-0.0169372
-0.017149
-0.0173273
-0.017471
-0.0175793
-0.0176512
-0.017686
-0.017683
-0.0176417
-0.0175615
-0.0174422
-0.0172834
-0.017085
-0.0168469
-0.0165693
-0.0162523
-0.0158962
-0.0155015
-0.0150686
-0.0145981
-0.0140907
-0.0135473
-0.0129686
-0.0123555
-0.0117091
-0.0110304
-0.0103203
-0.00958011
-0.00881061
-0.00801333
-0.00718835
-0.00633915
-0.00546091
-0.00456857
-0.00363047
-0.00272244
-0.00167269
-0.000842291
-0.00430077
-0.00495476
-0.00560602
-0.00625368
-0.00689671
-0.00753409
-0.00816474
-0.00878755
-0.0094014
-0.0100051
-0.0105974
-0.0111771
-0.0117428
-0.0122934
-0.0128275
-0.0133436
-0.0138406
-0.0143169
-0.0147713
-0.0152024
-0.0156089
-0.0159893
-0.0163424
-0.016667
-0.0169617
-0.0172254
-0.0174569
-0.0176551
-0.0178191
-0.0179478
-0.0180403
-0.0180959
-0.0181139
-0.0180937
-0.0180347
-0.0179366
-0.017799
-0.0176219
-0.017405
-0.0171485
-0.0168526
-0.0165174
-0.0161434
-0.0157309
-0.0152808
-0.0147934
-0.0142698
-0.0137105
-0.0131167
-0.0124892
-0.0118291
-0.0111373
-0.010415
-0.00966323
-0.00888298
-0.00807573
-0.00724146
-0.00638378
-0.00549746
-0.00459817
-0.0036525
-0.00273967
-0.00168084
-0.000850996
-0.00493512
-0.0055982
-0.00625789
-0.00691332
-0.00756341
-0.00820707
-0.0088432
-0.00947067
-0.0100883
-0.0106948
-0.011289
-0.0118697
-0.0124354
-0.0129849
-0.0135168
-0.0140298
-0.0145225
-0.0149935
-0.0154414
-0.015865
-0.0162628
-0.0166336
-0.016976
-0.0172887
-0.0175707
-0.0178206
-0.0180375
-0.0182202
-0.0183677
-0.0184793
-0.018554
-0.0185911
-0.0185901
-0.0185503
-0.0184714
-0.018353
-0.0181949
-0.0179971
-0.0177596
-0.0174824
-0.0171658
-0.0168103
-0.0164161
-0.015984
-0.0155145
-0.0150084
-0.0144666
-0.0138899
-0.0132792
-0.0126357
-0.0119603
-0.0112541
-0.0105182
-0.0097538
-0.00896173
-0.00814352
-0.00729908
-0.00643214
-0.00553702
-0.00463017
-0.00367631
-0.00275825
-0.00168967
-0.000860234
-0.00564276
-0.00631569
-0.00698451
-0.0076483
-0.00830594
-0.00895629
-0.00959821
-0.0102305
-0.010852
-0.0114613
-0.0120573
-0.0126386
-0.0132039
-0.0137518
-0.014281
-0.01479
-0.0152775
-0.0157422
-0.0161826
-0.0165974
-0.0169853
-0.0173449
-0.017675
-0.0179743
-0.0182418
-0.0184761
-0.0186764
-0.0188415
-0.0189707
-0.019063
-0.0191176
-0.0191341
-0.0191118
-0.0190502
-0.018949
-0.0188081
-0.0186273
-0.0184065
-0.018146
-0.0178459
-0.0175066
-0.0171286
-0.0167123
-0.0162584
-0.0157678
-0.0152411
-0.0146793
-0.0140834
-0.0134544
-0.0127934
-0.0121014
-0.0113795
-0.0106289
-0.00985072
-0.00904585
-0.00821583
-0.00736043
-0.00648354
-0.005579
-0.00466409
-0.0037015
-0.00277791
-0.00169901
-0.00086995
-0.00642383
-0.0071073
-0.00778585
-0.00845852
-0.00912412
-0.00978146
-0.0104294
-0.0110666
-0.0116919
-0.0123039
-0.0129014
-0.013483
-0.0140473
-0.014593
-0.0151186
-0.0156229
-0.0161043
-0.0165615
-0.0169931
-0.0173978
-0.0177742
-0.0181212
-0.0184373
-0.0187215
-0.0189726
-0.0191895
-0.0193712
-0.0195167
-0.0196253
-0.0196962
-0.0197287
-0.0197222
-0.0196763
-0.0195907
-0.0194651
-0.0192993
-0.0190935
-0.0188476
-0.0185619
-0.0182368
-0.0178727
-0.0174701
-0.0170297
-0.0165522
-0.0160385
-0.0154895
-0.0149062
-0.0142896
-0.0136407
-0.0129608
-0.0122509
-0.0115122
-0.0107458
-0.00995291
-0.00913439
-0.00829178
-0.00742475
-0.00653734
-0.00562285
-0.00469948
-0.00372774
-0.0027984
-0.00170869
-0.000880089
-0.00727878
-0.00797341
-0.0086622
-0.00934415
-0.010018
-0.0106826
-0.0113365
-0.0119786
-0.0126076
-0.0132221
-0.0138207
-0.0144021
-0.0149648
-0.0155075
-0.0160288
-0.0165272
-0.0170013
-0.0174498
-0.0178713
-0.0182645
-0.018628
-0.0189606
-0.019261
-0.0195282
-0.019761
-0.0199584
-0.0201195
-0.0202434
-0.0203293
-0.0203765
-0.0203846
-0.0203529
-0.0202813
-0.0201693
-0.0200169
-0.0198241
-0.019591
-0.0193179
-0.0190049
-0.0186527
-0.0182617
-0.0178326
-0.0173662
-0.0168633
-0.0163248
-0.0157519
-0.0151454
-0.0145066
-0.0138365
-0.0131364
-0.0124075
-0.0116509
-0.0108678
-0.0100593
-0.00922637
-0.00837052
-0.00749128
-0.00659287
-0.00566801
-0.00473588
-0.00375465
-0.00281947
-0.00171855
-0.000890601
-0.00820835
-0.00891465
-0.0096141
-0.0103057
-0.010988
-0.0116598
-0.0123198
-0.0129667
-0.0135991
-0.0142156
-0.0148148
-0.0153953
-0.0159557
-0.0164946
-0.0170105
-0.0175019
-0.0179676
-0.0184061
-0.018816
-0.019196
-0.0195449
-0.0198613
-0.0201443
-0.0203925
-0.020605
-0.0207809
-0.0209192
-0.0210192
-0.0210802
-0.0211016
-0.0210829
-0.0210239
-0.0209241
-0.0207836
-0.0206022
-0.0203801
-0.0201176
-0.019815
-0.0194726
-0.0190912
-0.0186714
-0.0182139
-0.0177197
-0.0171896
-0.0166248
-0.0160262
-0.0153952
-0.0147328
-0.0140403
-0.0133189
-0.0125699
-0.0117944
-0.0109937
-0.0101689
-0.00932087
-0.00845122
-0.00755929
-0.00664951
-0.00571396
-0.00477288
-0.00378191
-0.00284089
-0.00172844
-0.000901438
-0.00921349
-0.0099319
-0.0106423
-0.0113437
-0.0120346
-0.0127137
-0.0133796
-0.0140309
-0.0146663
-0.0152843
-0.0158835
-0.0164624
-0.0170196
-0.0175536
-0.0180629
-0.0185462
-0.019002
-0.019429
-0.0198257
-0.0201909
-0.0205233
-0.0208218
-0.0210852
-0.0213125
-0.0215027
-0.0216548
-0.0217682
-0.021842
-0.0218758
-0.0218691
-0.0218214
-0.0217326
-0.0216025
-0.0214311
-0.0212185
-0.0209649
-0.0206708
-0.0203366
-0.0199628
-0.0195502
-0.0190997
-0.018612
-0.0180881
-0.0175292
-0.0169364
-0.0163109
-0.0156539
-0.0149667
-0.0142505
-0.0135068
-0.0127367
-0.0119415
-0.0111224
-0.0102807
-0.00941699
-0.00853307
-0.00762808
-0.00670665
-0.00576017
-0.00481004
-0.00380917
-0.00286242
-0.00173821
-0.000912561
-0.0102954
-0.0110262
-0.0117479
-0.0124591
-0.0131586
-0.0138448
-0.0145163
-0.0151718
-0.0158097
-0.0164285
-0.0170269
-0.0176033
-0.0181562
-0.0186841
-0.0191856
-0.0196593
-0.0201037
-0.0205175
-0.0208993
-0.0212479
-0.021562
-0.0218405
-0.0220823
-0.0222864
-0.022452
-0.0225782
-0.0226643
-0.0227098
-0.022714
-0.0226768
-0.0225978
-0.0224769
-0.0223141
-0.0221095
-0.0218634
-0.0215762
-0.0212484
-0.0208805
-0.0204733
-0.0200276
-0.0195444
-0.0190247
-0.0184696
-0.0178803
-0.017258
-0.0166041
-0.0159199
-0.0152067
-0.0144658
-0.0136987
-0.0129067
-0.0120911
-0.0112529
-0.0103936
-0.00951386
-0.0086153
-0.00769696
-0.00676368
-0.00580614
-0.00484695
-0.00383611
-0.00288385
-0.00174772
-0.000923939
-0.0114554
-0.0121989
-0.0129319
-0.0136531
-0.0143609
-0.015054
-0.0157307
-0.0163897
-0.0170294
-0.0176483
-0.0182449
-0.0188177
-0.0193651
-0.0198857
-0.020378
-0.0208405
-0.0212719
-0.0216707
-0.0220357
-0.0223656
-0.0226593
-0.0229157
-0.0231338
-0.0233125
-0.0234512
-0.0235491
-0.0236056
-0.0236203
-0.0235926
-0.0235225
-0.0234098
-0.0232544
-0.0230566
-0.0228166
-0.0225348
-0.0222117
-0.021848
-0.0214444
-0.0210018
-0.0205211
-0.0200035
-0.0194501
-0.0188622
-0.018241
-0.0175879
-0.0169042
-0.0161916
-0.0154512
-0.0146847
-0.0138934
-0.0130787
-0.0122419
-0.0113842
-0.0105069
-0.00961062
-0.00869716
-0.00776526
-0.00682006
-0.00585139
-0.00488324
-0.00386244
-0.00290497
-0.00175683
-0.000935549
-0.0126952
-0.0134514
-0.0141957
-0.0149266
-0.0156426
-0.0163421
-0.0170235
-0.0176854
-0.0183261
-0.0189441
-0.0195379
-0.0201058
-0.0206464
-0.0211581
-0.0216395
-0.0220892
-0.0225056
-0.0228876
-0.0232338
-0.023543
-0.0238141
-0.0240461
-0.0242381
-0.0243891
-0.0244985
-0.0245657
-0.0245901
-0.0245715
-0.0245095
-0.024404
-0.0242551
-0.024063
-0.0238278
-0.0235501
-0.0232303
-0.0228692
-0.0224675
-0.0220262
-0.0215462
-0.0210288
-0.0204751
-0.0198863
-0.019264
-0.0186094
-0.0179241
-0.0172096
-0.0164674
-0.015699
-0.0149059
-0.0140896
-0.0132515
-0.012393
-0.0115152
-0.0106195
-0.00970649
-0.00877793
-0.00783236
-0.00687523
-0.00589545
-0.00491852
-0.00388784
-0.00292558
-0.00176541
-0.000947384
-0.0140163
-0.0147853
-0.0155407
-0.0162812
-0.0170049
-0.0177103
-0.0183957
-0.0190595
-0.0197003
-0.0203162
-0.0209059
-0.0214676
-0.0219999
-0.0225011
-0.0229699
-0.0234048
-0.0238043
-0.0241674
-0.0244925
-0.0247788
-0.025025
-0.0252302
-0.0253936
-0.0255144
-0.0255921
-0.025626
-0.0256158
-0.0255614
-0.0254625
-0.0253192
-0.0251317
-0.0249003
-0.0246254
-0.0243077
-0.0239477
-0.0235464
-0.0231048
-0.0226237
-0.0221046
-0.0215486
-0.020957
-0.0203314
-0.0196732
-0.0189839
-0.0182652
-0.0175187
-0.0167459
-0.0159485
-0.0151281
-0.0142861
-0.013424
-0.0125433
-0.011645
-0.0107307
-0.00980068
-0.00885692
-0.00789765
-0.00692866
-0.00593789
-0.00495245
-0.00391206
-0.00294552
-0.00177334
-0.000959449
-0.0154206
-0.0162023
-0.0169686
-0.0177181
-0.018449
-0.0191595
-0.0198481
-0.020513
-0.0211526
-0.0217652
-0.0223493
-0.0229033
-0.0234255
-0.0239144
-0.0243686
-0.0247866
-0.0251672
-0.025509
-0.0258109
-0.0260717
-0.0262906
-0.0264665
-0.0265988
-0.0266868
-0.02673
-0.0267281
-0.0266807
-0.0265879
-0.0264495
-0.0262659
-0.0260373
-0.0257643
-0.0254473
-0.0250873
-0.0246849
-0.0242413
-0.0237576
-0.023235
-0.0226748
-0.0220785
-0.0214475
-0.0207835
-0.020088
-0.0193628
-0.0186096
-0.01783
-0.0170257
-0.0161985
-0.0153499
-0.0144817
-0.0135951
-0.0126918
-0.0117728
-0.0108395
-0.00989247
-0.00893348
-0.00796056
-0.00697987
-0.00597828
-0.00498469
-0.00393481
-0.00296461
-0.0017805
-0.000971768
-0.0169101
-0.0177042
-0.018481
-0.019239
-0.0199764
-0.0206912
-0.0213818
-0.0220466
-0.0226837
-0.0232916
-0.0238685
-0.0244129
-0.0249231
-0.0253978
-0.0258353
-0.0262343
-0.0265935
-0.0269117
-0.0271877
-0.0274206
-0.0276095
-0.0277535
-0.027852
-0.0279045
-0.0279107
-0.0278701
-0.0277829
-0.027649
-0.0274686
-0.027242
-0.0269699
-0.0266527
-0.0262913
-0.0258866
-0.0254397
-0.0249517
-0.024424
-0.0238579
-0.0232549
-0.0226166
-0.0219446
-0.0212408
-0.0205068
-0.0197445
-0.0189556
-0.0181419
-0.0173054
-0.0164476
-0.0155704
-0.0146753
-0.0137638
-0.0128376
-0.0118976
-0.0109453
-0.00998115
-0.00900699
-0.00802055
-0.0070284
-0.00601623
-0.00501493
-0.00395585
-0.00298271
-0.00178678
-0.00098438
-0.0184868
-0.0192929
-0.0200796
-0.0208455
-0.0215884
-0.0223065
-0.022998
-0.0236612
-0.0242944
-0.0248958
-0.0254637
-0.0259966
-0.0264929
-0.026951
-0.0273695
-0.027747
-0.0280824
-0.0283744
-0.028622
-0.0288242
-0.0289804
-0.0290897
-0.0291516
-0.0291658
-0.029132
-0.0290502
-0.0289203
-0.0287426
-0.0285174
-0.0282454
-0.0279271
-0.0275633
-0.0271552
-0.0267036
-0.02621
-0.0256755
-0.0251018
-0.0244904
-0.0238428
-0.023161
-0.0224466
-0.0217016
-0.0209279
-0.0201273
-0.0193018
-0.0184532
-0.0175836
-0.0166946
-0.0157882
-0.0148658
-0.0139292
-0.0129798
-0.0120187
-0.0110473
-0.0100661
-0.00907687
-0.00807709
-0.00707379
-0.00605136
-0.00504287
-0.00397492
-0.00299968
-0.00179206
-0.000997345
-0.0201529
-0.0209704
-0.0217664
-0.0225391
-0.0232865
-0.0240066
-0.0246976
-0.0253577
-0.0259852
-0.0265783
-0.0271353
-0.0276545
-0.0281345
-0.0285737
-0.0289707
-0.0293242
-0.0296331
-0.0298961
-0.0301125
-0.0302812
-0.0304017
-0.0304734
-0.0304959
-0.0304689
-0.0303923
-0.0302662
-0.0300908
-0.0298666
-0.029594
-0.0292738
-0.0289068
-0.0284941
-0.0280368
-0.0275361
-0.0269936
-0.0264107
-0.0257891
-0.0251305
-0.0244368
-0.0237099
-0.0229517
-0.0221643
-0.0213496
-0.0205098
-0.0196467
-0.0187625
-0.0178591
-0.0169384
-0.0160023
-0.0150523
-0.0140902
-0.0131175
-0.0121352
-0.0111449
-0.0101466
-0.00914256
-0.00812971
-0.00711563
-0.00608332
-0.00506824
-0.00399181
-0.0030154
-0.00179624
-0.00101074
-0.0219106
-0.0227388
-0.023543
-0.0243216
-0.0250722
-0.0257929
-0.0264818
-0.0271371
-0.027757
-0.0283397
-0.0288834
-0.0293867
-0.0298479
-0.0302657
-0.0306385
-0.0309652
-0.0312447
-0.0314759
-0.031658
-0.0317902
-0.0318721
-0.0319031
-0.0318831
-0.0318118
-0.0316895
-0.0315162
-0.0312925
-0.031019
-0.0306962
-0.0303252
-0.029907
-0.0294428
-0.028934
-0.028382
-0.0277885
-0.0271551
-0.0264838
-0.0257764
-0.025035
-0.0242615
-0.0234582
-0.0226272
-0.0217705
-0.0208904
-0.0199891
-0.0190685
-0.0181308
-0.0171779
-0.0162116
-0.0152339
-0.0142461
-0.01325
-0.0122466
-0.0112373
-0.0102222
-0.00920357
-0.00817795
-0.00715354
-0.00611177
-0.00509077
-0.0040063
-0.00302976
-0.00179921
-0.00102467
-0.0237622
-0.0246002
-0.0254116
-0.0261947
-0.0269471
-0.0276668
-0.0283517
-0.0290002
-0.0296103
-0.0301803
-0.0307084
-0.0311932
-0.031633
-0.0320264
-0.0323721
-0.0326691
-0.0329161
-0.0331124
-0.0332572
-0.0333498
-0.0333899
-0.0333771
-0.0333114
-0.0331928
-0.0330216
-0.0327982
-0.0325233
-0.0321975
-0.0318218
-0.0313974
-0.0309254
-0.0304073
-0.0298446
-0.0292391
-0.0285926
-0.0279069
-0.027184
-0.0264262
-0.0256355
-0.0248141
-0.0239644
-0.0230887
-0.0221891
-0.0212679
-0.0203275
-0.0193699
-0.0183974
-0.0174119
-0.0164153
-0.0154095
-0.0143961
-0.0133765
-0.012352
-0.0113239
-0.0102923
-0.0092594
-0.0082214
-0.00718716
-0.00613641
-0.00511022
-0.00401818
-0.00304266
-0.00180087
-0.00103925
-0.02571
-0.0265566
-0.0273739
-0.0281601
-0.0289126
-0.0296293
-0.0303083
-0.0309477
-0.0315457
-0.0321005
-0.0326104
-0.0330738
-0.0334892
-0.0338554
-0.034171
-0.034435
-0.0346464
-0.0348045
-0.0349087
-0.0349584
-0.0349533
-0.0348935
-0.0347789
-0.0346098
-0.0343867
-0.0341101
-0.0337809
-0.0334
-0.0329687
-0.0324881
-0.0319598
-0.0313854
-0.0307666
-0.0301055
-0.0294038
-0.0286639
-0.0278878
-0.0270779
-0.0262365
-0.025366
-0.0244688
-0.0235472
-0.0226038
-0.0216409
-0.0206607
-0.0196657
-0.0186579
-0.0176395
-0.0166124
-0.0155784
-0.0145392
-0.0134964
-0.0124509
-0.0114043
-0.0103564
-0.00930963
-0.00825966
-0.00721615
-0.00615693
-0.00512638
-0.00402726
-0.00305403
-0.00180112
-0.00105461
-0.0277563
-0.0286103
-0.029432
-0.0302195
-0.0309701
-0.0316818
-0.0323526
-0.0329805
-0.0335638
-0.0341006
-0.0345893
-0.0350283
-0.0354163
-0.035752
-0.0360342
-0.036262
-0.0364344
-0.0365509
-0.036611
-0.0366143
-0.0365608
-0.0364505
-0.0362837
-0.0360609
-0.0357826
-0.0354497
-0.0350633
-0.0346244
-0.0341346
-0.0335952
-0.0330081
-0.032375
-0.0316979
-0.0309789
-0.0302203
-0.0294243
-0.0285934
-0.0277299
-0.0268365
-0.0259156
-0.0249697
-0.0240015
-0.0230134
-0.022008
-0.0209876
-0.0199546
-0.0189113
-0.0178598
-0.016802
-0.0157399
-0.014675
-0.0136089
-0.0125427
-0.0114779
-0.010414
-0.00935384
-0.00829238
-0.00724022
-0.00617308
-0.00513902
-0.00403335
-0.00306376
-0.00179985
-0.00107088
-0.0299036
-0.0307633
-0.0315876
-0.0323745
-0.0331212
-0.0338255
-0.0344854
-0.0350992
-0.0356648
-0.0361807
-0.0366451
-0.0370566
-0.0374138
-0.0377156
-0.0379609
-0.0381488
-0.0382787
-0.03835
-0.0383625
-0.0383159
-0.0382104
-0.0380462
-0.0378238
-0.0375438
-0.0372072
-0.0368149
-0.0363681
-0.0358684
-0.0353173
-0.0347165
-0.034068
-0.0333739
-0.0326363
-0.0318575
-0.03104
-0.0301862
-0.0292988
-0.0283804
-0.0274336
-0.0264612
-0.0254657
-0.02445
-0.0234166
-0.0223681
-0.021307
-0.0202357
-0.0191566
-0.0180718
-0.0169833
-0.0158931
-0.0148026
-0.0137136
-0.012627
-0.0115442
-0.0104648
-0.00939168
-0.00831924
-0.00725907
-0.00618461
-0.00514796
-0.00403627
-0.0030718
-0.00179695
-0.0010882
-0.0321541
-0.0330178
-0.0338427
-0.0346267
-0.035367
-0.0360613
-0.0367077
-0.0373043
-0.0378492
-0.0383408
-0.0387776
-0.039158
-0.0394809
-0.0397452
-0.0399499
-0.0400943
-0.0401779
-0.0402003
-0.0401614
-0.0400613
-0.0399002
-0.0396785
-0.039397
-0.0390565
-0.0386582
-0.0382033
-0.0376932
-0.0371297
-0.0365146
-0.0358498
-0.0351375
-0.03438
-0.0335797
-0.0327391
-0.0318609
-0.0309477
-0.0300024
-0.0290276
-0.0280263
-0.0270013
-0.0259554
-0.0248914
-0.0238121
-0.02272
-0.0216178
-0.020508
-0.019393
-0.0182749
-0.0171557
-0.0160374
-0.0149216
-0.0138099
-0.0127031
-0.0116028
-0.0105083
-0.00942281
-0.00833995
-0.00727246
-0.00619129
-0.00515302
-0.00403587
-0.00307805
-0.00179233
-0.00110671
-0.0345102
-0.0353758
-0.0361991
-0.0369777
-0.0377088
-0.0383903
-0.03902
-0.0395962
-0.0401171
-0.040581
-0.0409864
-0.0413321
-0.0416169
-0.0418398
-0.042
-0.042097
-0.0421304
-0.0421001
-0.042006
-0.0418485
-0.041628
-0.0413453
-0.0410011
-0.0405968
-0.0401334
-0.0396127
-0.0390363
-0.0384061
-0.0377242
-0.0369928
-0.0362142
-0.0353911
-0.0345261
-0.0336218
-0.0326812
-0.031707
-0.0307023
-0.02967
-0.0286131
-0.0275346
-0.0264374
-0.0253245
-0.0241986
-0.0230626
-0.0219191
-0.0207706
-0.0196195
-0.0184681
-0.0173184
-0.0161723
-0.0150314
-0.0138972
-0.0127707
-0.0116534
-0.0105443
-0.00944695
-0.00835424
-0.00728016
-0.00619293
-0.00515404
-0.00403198
-0.00308244
-0.00178586
-0.00112651
-0.0369742
-0.0378394
-0.0386584
-0.0394288
-0.0401479
-0.0408132
-0.041423
-0.0419753
-0.0424684
-0.0429008
-0.0432711
-0.0435781
-0.0438207
-0.0439982
-0.0441099
-0.0441554
-0.0441346
-0.0440475
-0.0438943
-0.0436755
-0.0433919
-0.0430443
-0.0426339
-0.0421621
-0.0416305
-0.0410408
-0.040395
-0.0396952
-0.0389438
-0.0381433
-0.0372962
-0.0364053
-0.0354735
-0.0345036
-0.0334989
-0.0324622
-0.0313969
-0.0303058
-0.0291924
-0.0280595
-0.0269104
-0.025748
-0.0245752
-0.023395
-0.0222099
-0.0210226
-0.0198355
-0.0186509
-0.0174708
-0.0162971
-0.0151315
-0.0139753
-0.0128295
-0.0116955
-0.0105724
-0.00946383
-0.00836189
-0.00728198
-0.00618933
-0.00515086
-0.00402448
-0.00308487
-0.00177745
-0.00114769
-0.0395483
-0.0404104
-0.0412222
-0.0419815
-0.0426851
-0.0433309
-0.0439169
-0.0444415
-0.044903
-0.0452999
-0.0456309
-0.045895
-0.0460912
-0.0462191
-0.046278
-0.0462678
-0.0461886
-0.0460405
-0.0458241
-0.0455401
-0.0451894
-0.0447732
-0.044293
-0.0437503
-0.043147
-0.0424852
-0.0417669
-0.0409948
-0.0401712
-0.039299
-0.0383811
-0.0374203
-0.0364198
-0.0353827
-0.0343122
-0.0332117
-0.0320845
-0.0309337
-0.0297627
-0.0285748
-0.0273731
-0.0261608
-0.0249408
-0.0237161
-0.0224893
-0.0212633
-0.0200403
-0.0188226
-0.0176124
-0.0164115
-0.0152214
-0.0140437
-0.012879
-0.011729
-0.0105925
-0.00947324
-0.00836272
-0.00727774
-0.00618036
-0.00514333
-0.00401322
-0.00308526
-0.00176701
-0.00117029
-0.0422347
-0.0430907
-0.0438922
-0.0446367
-0.0453213
-0.0459437
-0.0465021
-0.0469949
-0.0474205
-0.0477775
-0.0480649
-0.0482817
-0.0484271
-0.0485009
-0.0485026
-0.0484323
-0.0482903
-0.048077
-0.0477932
-0.0474399
-0.0470182
-0.0465297
-0.0459759
-0.0453588
-0.0446806
-0.0439434
-0.0431497
-0.0423024
-0.0414041
-0.0404579
-0.0394668
-0.0384341
-0.037363
-0.036257
-0.0351194
-0.0339538
-0.0327635
-0.031552
-0.0303228
-0.0290792
-0.0278244
-0.0265618
-0.0252943
-0.024025
-0.0227566
-0.0214919
-0.0202331
-0.0189827
-0.0177427
-0.0165149
-0.0153008
-0.014102
-0.0129191
-0.0117536
-0.0106042
-0.00947501
-0.00835656
-0.00726729
-0.00616588
-0.00513134
-0.0039981
-0.00308348
-0.00175443
-0.00119429
-0.0450353
-0.0458819
-0.0466695
-0.0473956
-0.0480571
-0.048652
-0.0491786
-0.0496351
-0.0500203
-0.050333
-0.050572
-0.0507368
-0.0508269
-0.0508418
-0.0507817
-0.0506468
-0.0504375
-0.0501547
-0.0497993
-0.0493725
-0.0488759
-0.0483111
-0.0476802
-0.0469852
-0.0462286
-0.0454129
-0.044541
-0.0436157
-0.0426402
-0.0416175
-0.0405512
-0.0394447
-0.0383013
-0.0371248
-0.0359187
-0.0346867
-0.0334324
-0.0321594
-0.0308712
-0.0295714
-0.0282632
-0.02695
-0.0256349
-0.024321
-0.023011
-0.0217077
-0.0204135
-0.0191307
-0.0178612
-0.016607
-0.0153694
-0.0141501
-0.0129494
-0.0117691
-0.0106074
-0.00946899
-0.00834329
-0.00725053
-0.00614578
-0.00511476
-0.00397901
-0.0030794
-0.00173965
-0.00121961
-0.0479522
-0.0487857
-0.0495555
-0.0502589
-0.0508931
-0.051456
-0.051946
-0.0523616
-0.0527017
-0.052965
-0.053151
-0.0532589
-0.0532886
-0.05324
-0.0531133
-0.0529091
-0.052628
-0.0522712
-0.0518398
-0.0513354
-0.0507598
-0.0501149
-0.0494031
-0.0486268
-0.0477886
-0.0468914
-0.0459383
-0.0449324
-0.0438771
-0.0427758
-0.0416322
-0.04045
-0.0392327
-0.0379843
-0.0367084
-0.035409
-0.0340898
-0.0327545
-0.0314068
-0.0300503
-0.0286884
-0.0273245
-0.0259617
-0.0246033
-0.0232519
-0.0219103
-0.0205809
-0.019266
-0.0179676
-0.0166875
-0.015427
-0.0141877
-0.0129699
-0.0117754
-0.0106021
-0.00945509
-0.00832283
-0.00722736
-0.00611999
-0.00509348
-0.00395587
-0.00307287
-0.00172259
-0.00124607
-0.0509871
-0.0518033
-0.0525509
-0.0532273
-0.0538294
-0.0543555
-0.054804
-0.0551737
-0.0554635
-0.0556725
-0.0558001
-0.0558462
-0.0558105
-0.0556933
-0.0554952
-0.0552168
-0.0548593
-0.0544238
-0.0539121
-0.0533259
-0.0526672
-0.0519385
-0.0511421
-0.050281
-0.049358
-0.0483762
-0.0473391
-0.04625
-0.0451126
-0.0439306
-0.0427077
-0.041448
-0.0401553
-0.0388336
-0.0374869
-0.0361191
-0.0347342
-0.033336
-0.0319283
-0.0305148
-0.029099
-0.0276843
-0.026274
-0.0248711
-0.0234786
-0.0220991
-0.0207349
-0.0193885
-0.0180616
-0.0167561
-0.0154733
-0.0142146
-0.0129803
-0.0117723
-0.0105881
-0.00943323
-0.00829511
-0.00719771
-0.00608844
-0.0050674
-0.00392863
-0.00306372
-0.00170322
-0.00127341
-0.0541415
-0.054936
-0.0556567
-0.056301
-0.056866
-0.0573501
-0.0577518
-0.0580702
-0.0583044
-0.0584537
-0.0585177
-0.0584965
-0.0583902
-0.0581993
-0.0579247
-0.0575673
-0.0571285
-0.0566099
-0.0560134
-0.0553411
-0.0545954
-0.0537789
-0.0528945
-0.0519451
-0.0509341
-0.0498648
-0.048741
-0.0475662
-0.0463444
-0.0450795
-0.0437757
-0.0424369
-0.0410673
-0.0396712
-0.0382525
-0.0368155
-0.0353643
-0.0339027
-0.0324346
-0.0309639
-0.0294941
-0.0280287
-0.026571
-0.025124
-0.0236906
-0.0222736
-0.0208752
-0.0194976
-0.0181429
-0.0168126
-0.0155081
-0.0142308
-0.0129807
-0.0117599
-0.0105654
-0.0094034
-0.00826014
-0.00716157
-0.00605113
-0.00503644
-0.00389725
-0.00305175
-0.0016815
-0.00130129
-0.0574169
-0.0581846
-0.0588732
-0.0594801
-0.0600026
-0.0604391
-0.0607885
-0.06105
-0.0612228
-0.0613068
-0.0613016
-0.0612077
-0.0610254
-0.0607555
-0.0603992
-0.0599578
-0.059433
-0.0588266
-0.0581409
-0.0573783
-0.0565415
-0.0556335
-0.0546573
-0.0536164
-0.0525143
-0.0513547
-0.0501414
-0.0488786
-0.0475703
-0.0462206
-0.044834
-0.0434146
-0.0419669
-0.0404952
-0.0390038
-0.0374969
-0.0359787
-0.0344533
-0.0329247
-0.0313967
-0.029873
-0.028357
-0.0268521
-0.0253613
-0.0238876
-0.0224334
-0.0210013
-0.0195933
-0.0182113
-0.016857
-0.0155315
-0.0142361
-0.012971
-0.011738
-0.010534
-0.00936561
-0.00821792
-0.0071189
-0.00600805
-0.00500053
-0.0038617
-0.00303673
-0.00165747
-0.00132922
-0.0608144
-0.0615498
-0.0622007
-0.0627645
-0.0632385
-0.0636215
-0.0639126
-0.0641112
-0.0642169
-0.0642296
-0.0641495
-0.0639771
-0.0637133
-0.0633591
-0.0629159
-0.0623854
-0.0617697
-0.0610708
-0.0602915
-0.0594344
-0.0585025
-0.0574992
-0.0564278
-0.0552921
-0.0540958
-0.0528431
-0.051538
-0.0501848
-0.0487879
-0.0473517
-0.0458807
-0.0443794
-0.0428524
-0.0413042
-0.0397391
-0.0381617
-0.0365762
-0.0349868
-0.0333976
-0.0318123
-0.0302348
-0.0286685
-0.0271168
-0.0255826
-0.024069
-0.0225783
-0.0211131
-0.0196753
-0.0182668
-0.0168891
-0.0155433
-0.0142307
-0.0129512
-0.0117068
-0.0104941
-0.00931991
-0.00816852
-0.00706976
-0.00595924
-0.0049596
-0.003822
-0.00301843
-0.00163114
-0.00135665
-0.0643346
-0.0650318
-0.065639
-0.0661534
-0.0665727
-0.0668959
-0.0671224
-0.0672519
-0.0672843
-0.0672197
-0.0670587
-0.0668021
-0.0664511
-0.066007
-0.0654716
-0.0648469
-0.0641353
-0.0633394
-0.0624619
-0.0615061
-0.0604753
-0.059373
-0.058203
-0.0569693
-0.055676
-0.0543275
-0.0529281
-0.0514824
-0.049995
-0.0484705
-0.0469137
-0.0453293
-0.043722
-0.0420964
-0.0404572
-0.0388089
-0.0371558
-0.0355022
-0.0338523
-0.0322099
-0.0305789
-0.0289626
-0.0273645
-0.0257875
-0.0242345
-0.0227081
-0.0212104
-0.0197436
-0.0183092
-0.0169089
-0.0155436
-0.0142145
-0.0129214
-0.0116663
-0.0104455
-0.00926638
-0.00811202
-0.00701417
-0.00590476
-0.0049136
-0.00377819
-0.00299659
-0.00160261
-0.00138289
-0.0679782
-0.0686306
-0.0691874
-0.0696458
-0.0700038
-0.0702606
-0.070416
-0.0704699
-0.0704225
-0.0702744
-0.0700263
-0.0696795
-0.0692354
-0.0686959
-0.0680629
-0.0673389
-0.0665266
-0.0656289
-0.064649
-0.0635903
-0.0624566
-0.0612518
-0.0599798
-0.0586451
-0.057252
-0.0558052
-0.0543093
-0.0527691
-0.0511894
-0.0495752
-0.0479313
-0.0462626
-0.0445741
-0.0428706
-0.0411567
-0.0394371
-0.0377162
-0.0359985
-0.034288
-0.0325888
-0.0309046
-0.0292388
-0.0275949
-0.0259757
-0.0243841
-0.0228225
-0.0212932
-0.019798
-0.0183386
-0.0169165
-0.0155324
-0.0141876
-0.0128817
-0.0116168
-0.0103887
-0.00920518
-0.00804856
-0.00695223
-0.0058447
-0.0048625
-0.00373034
-0.00297094
-0.001572
-0.00140718
-0.071745
-0.0723457
-0.072845
-0.0732404
-0.07353
-0.0737134
-0.0737908
-0.0737623
-0.0736286
-0.0733904
-0.073049
-0.0726059
-0.072063
-0.0714223
-0.0706864
-0.0698579
-0.06894
-0.0679359
-0.0668492
-0.0656836
-0.0644433
-0.0631323
-0.0617553
-0.0603166
-0.0588211
-0.0572736
-0.055679
-0.0540424
-0.0523688
-0.0506635
-0.0489313
-0.0471776
-0.0454072
-0.0436251
-0.0418362
-0.0400451
-0.0382565
-0.0364748
-0.034704
-0.0329483
-0.0312114
-0.0294967
-0.0278075
-0.0261469
-0.0245174
-0.0229214
-0.0213613
-0.0198386
-0.0183551
-0.016912
-0.01551
-0.0141503
-0.0128324
-0.0115582
-0.0103236
-0.00913645
-0.0079783
-0.00688406
-0.00577921
-0.0048063
-0.00367853
-0.00294118
-0.00153945
-0.00142866
-0.0761759
-0.0766102
-0.076935
-0.0771489
-0.0772517
-0.0772439
-0.077126
-0.0768991
-0.0765643
-0.0761231
-0.0755776
-0.0749298
-0.0741824
-0.0733381
-0.0724
-0.0713716