/*--------------------------------*- C++ -*----------------------------------*\
  =========                 |
  \\      /  F ield         | OpenFOAM: The Open Source CFD Toolbox
   \\    /   O peration     | Website:  https://openfoam.org
    \\  /    A nd           | Version:  7
     \\/     M anipulation  |
\*---------------------------------------------------------------------------*/
FoamFile
{
    version     2.0;
    format      ascii;
    class       volVectorField;
    location    "108.999716";
    object      U;
}
// * * * * * * * * * * * * * * * * * * * * * * * * * * * * * * * * * * * * * //

dimensions      [0 1 -1 0 0 0 0];

internalField   nonuniform List<vector> 
5800
(
(-0.00103274 0.0140068 -2.98458e-21)
(-0.00513887 0.0311547 -1.04831e-20)
(-0.0130555 0.0399492 1.91315e-21)
(-0.0233581 0.0419832 7.21275e-21)
(-0.0354382 0.0389135 3.07318e-21)
(-0.0488508 0.0322991 -7.49024e-21)
(-0.0631787 0.023419 -2.40318e-21)
(-0.0780796 0.0131278 -9.52914e-22)
(-0.0932757 0.00179492 -8.62931e-21)
(-0.108533 -0.0106578 -1.66161e-21)
(0.00735827 0.0115555 -6.20433e-21)
(0.0386972 0.0254029 -2.10878e-20)
(0.0961039 0.0321341 3.85923e-21)
(0.162529 0.0340229 1.39895e-20)
(0.230503 0.0331243 5.72957e-21)
(0.296483 0.030959 -1.36729e-20)
(0.358749 0.0284182 -4.13637e-21)
(0.416841 0.0258953 -1.66236e-21)
(0.470821 0.023513 -8.31962e-21)
(0.520874 0.0212931 -7.37013e-21)
(0.567207 0.0192329 -9.19143e-21)
(0.00724805 -0.00624891 6.2248e-21)
(0.0384557 -0.0143052 2.11429e-20)
(0.0957829 -0.0185567 -3.87168e-21)
(0.162169 -0.020037 -1.40235e-20)
(0.230127 -0.0197597 -5.7439e-21)
(0.296105 -0.0185894 1.37055e-20)
(0.358374 -0.0171206 4.15399e-21)
(0.416472 -0.0156613 1.67171e-21)
(0.470459 -0.0143223 1.39323e-20)
(0.520522 -0.013122 2.43523e-21)
(0.566866 -0.0120503 9.23078e-21)
(0.609701 -0.011093 -1.32283e-21)
(0.649233 -0.0102356 4.31296e-21)
(0.685666 -0.00946416 -7.23471e-21)
(0.719195 -0.00876526 8.63884e-21)
(0.750014 -0.00812636 8.77915e-21)
(0.77831 -0.00753521 2.44473e-21)
(0.80424 -0.00697831 -1.23399e-20)
(0.827931 -0.00644298 9.88241e-21)
(0.849549 -0.00592913 -1.42065e-21)
(0.00850961 -0.0239626 -9.15325e-21)
(0.0412026 -0.0538357 -1.37268e-20)
(0.0991928 -0.0690479 -4.21215e-21)
(0.165723 -0.0739083 -1.21463e-20)
(0.233534 -0.0724776 2.65325e-21)
(0.29923 -0.0679944 -1.74979e-20)
(0.361182 -0.0625353 -6.34578e-21)
(0.418975 -0.05711 -1.35508e-20)
(0.472682 -0.0520638 7.42932e-21)
(0.522493 -0.0474555 -1.74604e-20)
(0.568611 -0.0432632 -5.28171e-20)
(0.611244 -0.0394525 8.34758e-21)
(0.650597 -0.0359888 -1.15158e-20)
(0.68687 -0.0328386 6.77704e-21)
(0.720257 -0.0299696 -1.60131e-20)
(0.750949 -0.0273524 1.65179e-21)
(0.779134 -0.0249584 -8.146e-21)
(0.804972 -0.02275 4.59757e-20)
(0.828579 -0.0206817 -4.45032e-21)
(0.850082 -0.0187662 5.59862e-21)
(0.011124 -0.0414194 -2.80582e-20)
(0.0469027 -0.0928619 -2.73824e-20)
(0.106295 -0.118968 6.26086e-21)
(0.173157 -0.127233 1.32871e-20)
(0.240691 -0.124707 5.51082e-21)
(0.305832 -0.116972 -1.70183e-20)
(0.367152 -0.107575 -2.42995e-20)
(0.424331 -0.0982277 5.10405e-20)
(0.477473 -0.0895128 -1.37817e-20)
(0.526771 -0.0815311 1.78386e-20)
(0.572428 -0.074249 2.77069e-20)
(0.614646 -0.0676126 4.70839e-21)
(0.653627 -0.0615675 7.73511e-21)
(0.689568 -0.0560607 1.66162e-20)
(0.722657 -0.0510413 -1.69716e-20)
(0.753082 -0.0464634 1.60309e-20)
(0.781032 -0.0422818 -1.87917e-21)
(0.806675 -0.0384349 -4.49657e-20)
(0.830102 -0.0348466 2.97922e-20)
(0.851354 -0.0315479 -2.41004e-20)
(0.0150548 -0.0584561 2.15592e-20)
(0.055488 -0.131062 -3.43726e-20)
(0.117016 -0.167949 5.05497e-20)
(0.184402 -0.179657 -2.27606e-20)
(0.251539 -0.17613 1.19328e-19)
(0.315859 -0.16524 6.98673e-20)
(0.376239 -0.15199 -4.26694e-20)
(0.4325 -0.138794 -9.97412e-20)
(0.484796 -0.126473 3.89213e-20)
(0.533326 -0.115174 2.61385e-20)
(0.57829 -0.104853 3.45738e-20)
(0.619884 -0.095436 -6.72494e-20)
(0.658305 -0.08685 -7.75206e-20)
(0.693743 -0.0790228 5.81948e-20)
(0.72638 -0.0718856 4.48909e-20)
(0.756398 -0.065376 -1.52019e-20)
(0.78399 -0.0594324 3.29612e-20)
(0.809335 -0.0539687 1.99613e-21)
(0.83249 -0.0488826 -4.84901e-20)
(0.85336 -0.0442318 -1.51941e-20)
(0.0202484 -0.0749142 -7.94835e-20)
(0.0668587 -0.168121 -2.1954e-20)
(0.131247 -0.215631 -7.61519e-20)
(0.199358 -0.230834 2.18141e-20)
(0.265991 -0.226433 -1.13143e-19)
(0.329237 -0.212523 -6.67195e-20)
(0.388377 -0.195538 7.76488e-20)
(0.443425 -0.178592 9.50021e-20)
(0.4946 -0.162752 -8.39752e-20)
(0.542113 -0.148213 2.18889e-20)
(0.586158 -0.134922 -3.05046e-20)
(0.626923 -0.122788 1.17193e-19)
(0.664598 -0.111717 -3.6885e-20)
(0.699367 -0.101619 -1.28343e-20)
(0.731403 -0.0924092 -7.45432e-21)
(0.760879 -0.0840082 -2.58603e-20)
(0.787992 -0.0763379 -6.28349e-20)
(0.812937 -0.0692875 -1.27952e-21)
(0.835729 -0.0627334 1.72111e-20)
(0.856095 -0.0567712 -1.62625e-20)
(0.0266345 -0.0906415 -5.18197e-20)
(0.0808834 -0.203735 -2.18056e-20)
(0.148845 -0.261666 1.23057e-19)
(0.217891 -0.280425 6.74729e-20)
(0.283932 -0.27531 2.78178e-20)
(0.345866 -0.258552 -8.54595e-20)
(0.40348 -0.237981 -9.79357e-20)
(0.45703 -0.217411 1.1638e-20)
(0.50682 -0.198162 2.23809e-20)
(0.553073 -0.180482 1.67711e-20)
(0.595979 -0.16431 5.44351e-20)
(0.635717 -0.149537 -1.19674e-19)
(0.672468 -0.136052 1.7354e-21)
(0.706406 -0.123748 4.14126e-20)
(0.737694 -0.112521 2.41428e-21)
(0.766496 -0.10228 -8.11975e-21)
(0.793011 -0.0929276 -2.07485e-20)
(0.817456 -0.0843287 7.67751e-20)
(0.839799 -0.0763432 -3.3139e-20)
(0.85955 -0.0691185 2.68201e-20)
(0.0341271 -0.105494 8.20505e-20)
(0.0974003 -0.237614 -4.33187e-20)
(0.169632 -0.305717 -4.98397e-20)
(0.239839 -0.328104 -4.62311e-20)
(0.30522 -0.322468 -9.10849e-20)
(0.365624 -0.303067 -1.16994e-20)
(0.421442 -0.27909 1.56628e-20)
(0.473223 -0.255049 -3.54107e-20)
(0.521371 -0.232523 5.08001e-20)
(0.566133 -0.21182 4.29068e-21)
(0.607689 -0.192873 -2.12959e-20)
(0.646209 -0.175556 9.70409e-20)
(0.681863 -0.159743 2.85057e-20)
(0.714815 -0.145308 -2.78624e-20)
(0.745216 -0.132134 6.16602e-20)
(0.773217 -0.120113 -6.50244e-20)
(0.799019 -0.109133 -6.9928e-21)
(0.822864 -0.099032 8.09239e-21)
(0.844676 -0.0896575 8.94393e-20)
(0.863715 -0.0812251 -4.99219e-20)
(0.0426252 -0.119337 2.79729e-20)
(0.116219 -0.269483 3.28318e-20)
(0.193399 -0.347464 1.44076e-19)
(0.265006 -0.373557 6.08385e-20)
(0.329685 -0.367623 2.08367e-19)
(0.388367 -0.345818 1.74309e-20)
(0.442137 -0.318645 9.70222e-20)
(0.491892 -0.29131 6.72573e-20)
(0.538158 -0.265662 -1.43831e-19)
(0.581206 -0.242072 -2.27496e-20)
(0.621211 -0.220474 -5.32046e-20)
(0.658332 -0.200725 -6.58418e-20)
(0.692725 -0.182683 2.17524e-20)
(0.724543 -0.166206 6.7466e-20)
(0.753924 -0.151163 -5.91946e-20)
(0.781002 -0.137434 -5.19343e-20)
(0.805982 -0.124889 5.05543e-20)
(0.829131 -0.113339 -6.74208e-20)
(0.850332 -0.102623 -9.68704e-20)
(0.868574 -0.0930421 -2.60934e-20)
(0.0520137 -0.132048 -8.05098e-20)
(0.137121 -0.299087 -8.17928e-20)
(0.219907 -0.386605 -4.28539e-20)
(0.293171 -0.41649 -1.01526e-19)
(0.357133 -0.410506 -4.97689e-20)
(0.413928 -0.386568 -1.17702e-19)
(0.465423 -0.356438 -1.02047e-19)
(0.512911 -0.32601 3.8087e-20)
(0.557068 -0.297415 5.86518e-20)
(0.598194 -0.271095 -1.0266e-19)
(0.636461 -0.246984 6.38597e-20)
(0.672011 -0.224928 -4.26725e-20)
(0.704988 -0.204769 -5.6979e-20)
(0.735532 -0.186351 -5.95739e-20)
(0.763765 -0.169528 1.67304e-19)
(0.789806 -0.154171 7.41968e-20)
(0.813858 -0.140133 1.78496e-20)
(0.836219 -0.127196 -7.6872e-20)
(0.856738 -0.11519 1.60824e-19)
(0.874113 -0.104522 5.98442e-20)
(0.0621653 -0.143516 -1.04371e-19)
(0.159862 -0.32619 1.19508e-19)
(0.248885 -0.42286 1.1697e-19)
(0.324081 -0.456623 1.22906e-19)
(0.387347 -0.450866 7.38328e-20)
(0.44212 -0.425096 1.78751e-20)
(0.491136 -0.392274 1.17596e-19)
(0.536139 -0.358978 -1.42338e-19)
(0.577976 -0.327629 -3.97395e-20)
(0.616988 -0.29875 -3.32701e-20)
(0.653339 -0.272282 1.47635e-19)
(0.687159 -0.248058 -2.04149e-20)
(0.718575 -0.225905 1.72978e-20)
(0.747715 -0.205656 3.6914e-21)
(0.774683 -0.187154 5.95264e-20)
(0.79958 -0.170258 -7.42584e-20)
(0.822605 -0.154806 1.49301e-20)
(0.84409 -0.14055 1.6898e-19)
(0.86386 -0.127311 -2.42298e-20)
(0.88031 -0.115617 -1.08329e-19)
(0.0729412 -0.153646 -6.19268e-20)
(0.184176 -0.350583 2.07733e-20)
(0.280035 -0.455974 -1.24292e-19)
(0.357459 -0.493701 -6.10891e-20)
(0.420084 -0.488466 -8.0938e-20)
(0.472737 -0.461194 -6.52597e-21)
(0.5191 -0.425971 -1.57582e-19)
(0.561421 -0.390053 1.3872e-19)
(0.600746 -0.356163 6.06008e-20)
(0.637465 -0.324913 2.56051e-20)
(0.671739 -0.296256 -1.43204e-19)
(0.703682 -0.270014 2.55196e-20)
(0.733405 -0.246004 -1.79164e-20)
(0.761019 -0.224045 -7.7248e-20)
(0.786614 -0.20397 -7.2096e-20)
(0.810268 -0.185631 1.18048e-19)
(0.832174 -0.168854 5.9603e-20)
(0.852698 -0.153354 -3.42497e-20)
(0.87166 -0.138941 -9.54528e-20)
(0.887143 -0.126284 1.42226e-20)
(0.084193 -0.162355 8.3914e-20)
(0.209772 -0.372081 3.79204e-20)
(0.313036 -0.485716 4.65116e-20)
(0.393001 -0.52749 5.2422e-20)
(0.45508 -0.523091 -5.56297e-20)
(0.505553 -0.494672 1.23273e-19)
(0.549121 -0.457364 -1.22153e-19)
(0.588587 -0.41909 -4.86761e-21)
(0.625229 -0.382886 9.70272e-20)
(0.659495 -0.349468 2.02602e-20)
(0.691546 -0.318803 8.51317e-20)
(0.721479 -0.290706 -3.57279e-20)
(0.749389 -0.264983 2.2255e-20)
(0.775368 -0.241444 1.42265e-19)
(0.799491 -0.219912 -8.54966e-21)
(0.821811 -0.200234 -4.16603e-20)
(0.842512 -0.182225 -8.80122e-20)
(0.861997 -0.165564 -1.4429e-19)
(0.880099 -0.15004 -2.22911e-20)
(0.894586 -0.136483 1.44683e-19)
(0.0957643 -0.16958 9.70074e-20)
(0.236343 -0.390528 3.22827e-21)
(0.347538 -0.511884 -1.79151e-19)
(0.430381 -0.55778 7.10769e-20)
(0.492051 -0.554549 4.07269e-22)
(0.540328 -0.52536 7.63714e-20)
(0.580991 -0.486305 7.28732e-20)
(0.617458 -0.445959 -6.34961e-21)
(0.651266 -0.407685 -4.11901e-20)
(0.682939 -0.372313 -1.42937e-19)
(0.712637 -0.339831 4.36009e-20)
(0.740443 -0.310051 1.79829e-19)
(0.766431 -0.28277 -1.26199e-19)
(0.790678 -0.257788 -1.04078e-19)
(0.813239 -0.234922 -6.51922e-20)
(0.834145 -0.214015 -1.55753e-19)
(0.853564 -0.194873 4.56495e-20)
(0.871938 -0.177141 2.1709e-19)
(0.889134 -0.160574 -3.2593e-20)
(0.902613 -0.146178 -4.08076e-20)
(0.107493 -0.175274 4.01334e-20)
(0.263565 -0.405796 -6.39764e-20)
(0.383175 -0.534307 5.54645e-20)
(0.469251 -0.58439 -8.9967e-20)
(0.530694 -0.582667 9.90386e-20)
(0.576802 -0.553107 -9.95722e-20)
(0.61449 -0.512663 -2.45466e-20)
(0.647842 -0.470546 1.07308e-19)
(0.67869 -0.430458 -8.23069e-20)
(0.707647 -0.393357 9.14505e-20)
(0.734882 -0.359261 -1.081e-19)
(0.760457 -0.327978 -6.25595e-20)
(0.784431 -0.2993 -4.39243e-20)
(0.806861 -0.273019 6.81773e-20)
(0.827783 -0.248947 1.38077e-20)
(0.847203 -0.226925 8.35977e-20)
(0.865269 -0.206757 -5.58902e-20)
(0.882465 -0.18805 -3.81225e-21)
(0.898717 -0.170513 8.49656e-20)
(0.911192 -0.155337 -3.85781e-20)
(0.119211 -0.179405 -9.39698e-21)
(0.2911 -0.417792 -3.78934e-20)
(0.419558 -0.552846 -7.12915e-21)
(0.509243 -0.607165 -2.0415e-20)
(0.570688 -0.607299 -6.78556e-20)
(0.614704 -0.577783 -5.84059e-20)
(0.649388 -0.536325 -3.83949e-20)
(0.679539 -0.492753 -5.35713e-20)
(0.707325 -0.451119 1.1086e-19)
(0.733468 -0.412525 1.17118e-20)
(0.758144 -0.377023 1.70381e-19)
(0.781405 -0.344425 5.26465e-20)
(0.803284 -0.314517 5.72206e-20)
(0.823825 -0.287088 -9.13753e-20)
(0.843043 -0.261943 1.38943e-19)
(0.860917 -0.238925 -2.47745e-20)
(0.877567 -0.21784 -1.45389e-20)
(0.893521 -0.198262 -1.21676e-19)
(0.908799 -0.179837 5.64347e-20)
(0.92029 -0.163939 -4.54231e-20)
(0.130751 -0.181964 -7.31549e-20)
(0.318601 -0.426454 -3.30764e-20)
(0.456287 -0.567397 -4.86629e-20)
(0.549971 -0.625981 -4.23579e-20)
(0.611695 -0.628323 -1.13016e-20)
(0.65375 -0.599279 1.1654e-19)
(0.685443 -0.5572 1.00361e-19)
(0.712342 -0.5125 8.48053e-20)
(0.736991 -0.469598 -8.66585e-20)
(0.76024 -0.429753 -4.9974e-20)
(0.782285 -0.393061 -1.7806e-19)
(0.803161 -0.359341 1.38663e-19)
(0.822884 -0.328377 -5.32441e-20)
(0.841475 -0.299952 9.62093e-20)
(0.858936 -0.27387 -7.14697e-20)
(0.875214 -0.249976 2.62938e-20)
(0.890393 -0.228083 -3.47166e-20)
(0.905041 -0.207739 1.08607e-19)
(0.919319 -0.188517 -8.55721e-20)
(0.929877 -0.171963 -3.76897e-20)
(0.141943 -0.182958 7.97704e-20)
(0.345715 -0.431756 -2.97019e-20)
(0.492945 -0.577891 5.77073e-20)
(0.591036 -0.640746 6.09842e-20)
(0.653364 -0.645642 -1.84147e-20)
(0.693643 -0.61751 -1.24069e-19)
(0.722405 -0.575215 8.9023e-20)
(0.746036 -0.529728 -1.79313e-20)
(0.767501 -0.485843 2.78137e-20)
(0.7878 -0.444994 3.39785e-20)
(0.80716 -0.407332 -6.91573e-20)
(0.825601 -0.372687 -1.63794e-19)
(0.843119 -0.340841 7.18034e-21)
(0.859716 -0.311579 -1.63213e-20)
(0.875378 -0.2847 4.74219e-21)
(0.890024 -0.260055 8.26368e-20)
(0.903685 -0.237471 -7.96728e-20)
(0.916959 -0.216485 -1.21918e-19)
(0.930212 -0.196584 -3.17404e-20)
(0.939923 -0.179446 6.40336e-20)
(0.152621 -0.182415 4.47835e-21)
(0.372085 -0.433706 -2.92287e-20)
(0.529108 -0.584295 8.42885e-21)
(0.632023 -0.651398 -4.46383e-20)
(0.695332 -0.659189 -1.76479e-20)
(0.734077 -0.632414 -1.14045e-20)
(0.760019 -0.590318 1.90593e-20)
(0.780405 -0.544393 -6.3468e-20)
(0.798666 -0.499817 -1.51263e-20)
(0.815983 -0.458215 4.15694e-20)
(0.832623 -0.419806 2.80764e-20)
(0.848597 -0.384434 1.01716e-19)
(0.863877 -0.351885 1.0079e-19)
(0.878447 -0.321943 -2.58437e-20)
(0.892282 -0.294408 6.94863e-21)
(0.905276 -0.26913 2.78355e-20)
(0.917388 -0.245951 1.03775e-19)
(0.929206 -0.224401 1.21421e-19)
(0.94138 -0.203902 1.35704e-19)
(0.950409 -0.186289 -1.74078e-20)
(0.16262 -0.180379 -1.21363e-20)
(0.397355 -0.43235 1.51664e-20)
(0.564345 -0.586615 1.6542e-20)
(0.67251 -0.657911 1.3218e-20)
(0.737224 -0.668923 -3.31233e-20)
(0.774738 -0.643951 1.17437e-19)
(0.798021 -0.602479 -3.63231e-20)
(0.815226 -0.556471 9.09255e-21)
(0.830294 -0.511499 -5.32328e-20)
(0.844622 -0.469398 -5.31174e-21)
(0.858528 -0.430466 9.13408e-20)
(0.872018 -0.394566 -4.65859e-20)
(0.885045 -0.361492 -1.70502e-20)
(0.897571 -0.33103 -4.17285e-20)
(0.90956 -0.30298 3.96205e-20)
(0.920893 -0.277198 -7.96145e-20)
(0.931445 -0.253547 3.07248e-20)
(0.941711 -0.231593 -2.0242e-20)
(0.95266 -0.210757 8.58741e-21)
(0.961306 -0.192979 3.89863e-20)
(0.171787 -0.176918 4.99146e-21)
(0.421174 -0.427768 -1.16761e-21)
(0.598225 -0.584896 -3.834e-21)
(0.712064 -0.660293 -2.40173e-21)
(0.778657 -0.674832 1.48235e-20)
(0.815304 -0.652108 -6.77461e-20)
(0.836148 -0.611687 -8.15502e-21)
(0.850275 -0.565957 -4.31882e-20)
(0.862193 -0.520886 6.60687e-20)
(0.873548 -0.47854 5.05763e-20)
(0.884728 -0.439307 -8.65607e-20)
(0.895738 -0.403078 6.62148e-20)
(0.906512 -0.369655 -5.60242e-20)
(0.916991 -0.338831 1.3044e-20)
(0.927125 -0.310408 -1.78513e-19)
(0.936801 -0.284236 6.36528e-21)
(0.945829 -0.26018 -6.13273e-20)
(0.954499 -0.237799 -8.89572e-20)
(0.963958 -0.21648 -5.30951e-20)
(0.972758 -0.198414 -8.60515e-20)
(0.179982 -0.172117 2.08128e-20)
(0.443195 -0.420074 -3.42735e-20)
(0.630317 -0.579221 1.37309e-20)
(0.75025 -0.658586 1.78575e-20)
(0.81924 -0.676933 5.47405e-21)
(0.855448 -0.656892 2.61075e-20)
(0.87413 -0.617953 -1.46975e-20)
(0.88533 -0.572865 -1.28943e-20)
(0.894174 -0.527994 -7.67667e-21)
(0.902596 -0.485653 -3.0803e-20)
(0.911076 -0.446339 2.24728e-20)
(0.919628 -0.409976 -6.28304e-20)
(0.928166 -0.37638 5.43262e-20)
(0.936609 -0.345349 5.442e-20)
(0.944893 -0.316692 9.82682e-20)
(0.952917 -0.290253 3.35876e-20)
(0.960484 -0.265896 6.79695e-20)
(0.967626 -0.243277 7.49441e-20)
(0.975116 -0.222353 6.73176e-20)
(0.983647 -0.205313 3.35106e-20)
(0.18711 -0.166081 5.14409e-20)
(0.463079 -0.409396 -1.60947e-20)
(0.660194 -0.56972 -2.31123e-20)
(0.786633 -0.652868 -4.72542e-20)
(0.85858 -0.675271 5.84247e-21)
(0.894839 -0.658337 3.94214e-21)
(0.911696 -0.621308 1.33946e-20)
(0.920169 -0.577226 -3.75917e-21)
(0.926047 -0.532851 -2.34531e-20)
(0.931603 -0.490764 -8.15615e-21)
(0.937432 -0.451584 6.96791e-20)
(0.943563 -0.41528 1.61631e-20)
(0.949898 -0.381679 1.12881e-20)
(0.956332 -0.350595 -4.34037e-20)
(0.962782 -0.321841 -1.31982e-19)
(0.96916 -0.295262 4.11904e-20)
(0.9753 -0.27071 2.72738e-20)
(0.981067 -0.247954 -7.74209e-20)
(0.986752 -0.227234 -4.36339e-20)
(0.99368 -0.20937 -2.14381e-20)
(0.193047 -0.158841 -5.90709e-20)
(0.480531 -0.395877 3.9587e-20)
(0.687442 -0.556582 -8.34239e-20)
(0.820781 -0.643255 4.29456e-21)
(0.896279 -0.669921 2.74765e-20)
(0.933144 -0.656499 -3.19482e-20)
(0.948578 -0.621802 -9.46853e-21)
(0.954569 -0.579089 1.46993e-21)
(0.957627 -0.535504 2.03466e-20)
(0.96041 -0.493914 2.01367e-20)
(0.963655 -0.455078 -4.43313e-20)
(0.967421 -0.419017 -8.00811e-20)
(0.9716 -0.385579 2.92814e-20)
(0.976067 -0.354588 2.51431e-20)
(0.980716 -0.32587 6.78805e-20)
(0.985462 -0.299268 -9.31186e-21)
(0.99019 -0.274619 4.90212e-22)
(0.994708 -0.251774 2.52982e-21)
(0.998898 -0.231147 -6.61232e-21)
(1.00394 -0.212791 -1.01678e-19)
(0.197626 -0.150524 7.84337e-20)
(0.495289 -0.37982 8.47593e-20)
(0.711634 -0.540001 8.67932e-20)
(0.852293 -0.629892 2.26125e-20)
(0.931946 -0.660987 -3.22922e-20)
(0.970027 -0.651456 -2.49e-20)
(0.984504 -0.619505 -1.24054e-20)
(0.988316 -0.57852 6.29797e-21)
(0.988736 -0.536015 -3.50033e-21)
(0.988863 -0.495158 -1.05528e-20)
(0.989612 -0.456868 4.64272e-21)
(0.991084 -0.421229 3.37272e-20)
(0.993169 -0.388111 -2.98149e-20)
(0.995723 -0.357354 1.87972e-21)
(0.99862 -0.328798 -1.63674e-20)
(1.00177 -0.302288 -9.57817e-21)
(1.0051 -0.277647 4.97918e-21)
(1.00843 -0.254787 -1.59674e-20)
(1.01137 -0.234265 1.58914e-20)
(1.01477 -0.215686 9.34688e-20)
(0.200752 -0.14135 5.48182e-20)
(0.507105 -0.361502 -1.62496e-19)
(0.732338 -0.520181 8.33561e-20)
(0.880729 -0.612986 2.52035e-20)
(0.965203 -0.648587 -6.0925e-20)
(1.00515 -0.643304 3.56421e-20)
(1.01921 -0.614501 7.10158e-21)
(1.02119 -0.575599 -2.62548e-20)
(1.0192 -0.534458 3.52993e-21)
(1.01681 -0.494563 -1.76361e-21)
(1.01518 -0.457012 -2.83893e-22)
(1.01444 -0.421964 8.73334e-21)
(1.01451 -0.389319 1.68412e-20)
(1.01521 -0.358931 -2.92062e-20)
(1.01642 -0.330657 1.61153e-20)
(1.01802 -0.304349 -5.17371e-21)
(1.01997 -0.279825 1.70593e-20)
(1.02213 -0.257036 -3.0943e-22)
(1.02395 -0.236643 2.06913e-20)
(1.0259 -0.217993 -2.76728e-20)
(0.202396 -0.131509 -7.61484e-21)
(0.515757 -0.341173 -6.13487e-20)
(0.749261 -0.497439 -5.2413e-20)
(0.905556 -0.592746 3.12122e-20)
(0.995678 -0.632886 -6.48897e-21)
(1.0382 -0.632156 3.34594e-20)
(1.05241 -0.606891 1.71832e-20)
(1.05299 -0.570419 7.10446e-21)
(1.04885 -0.530921 2.63051e-21)
(1.04412 -0.492208 1.15917e-21)
(1.04022 -0.45558 4.34983e-21)
(1.03739 -0.421284 -3.37074e-21)
(1.03552 -0.389253 4.51946e-21)
(1.03446 -0.359362 1.56774e-21)
(1.03404 -0.331483 -2.13264e-20)
(1.03416 -0.305484 3.91243e-20)
(1.03478 -0.281181 -2.12085e-20)
(1.03577 -0.258543 -1.97816e-20)
(1.03648 -0.238292 -9.28827e-21)
(1.03709 -0.219672 -1.59933e-20)
(0.202537 -0.121155 -2.12215e-20)
(0.521049 -0.31914 1.31738e-19)
(0.762183 -0.472063 4.41389e-20)
(0.92639 -0.569434 -1.2213e-19)
(1.02285 -0.614087 -2.30557e-20)
(1.06885 -0.618134 3.87424e-20)
(1.08386 -0.596791 1.68488e-20)
(1.08351 -0.563088 4.52303e-20)
(1.07752 -0.525504 -2.58754e-21)
(1.07066 -0.488185 3.71857e-21)
(1.06464 -0.452652 -2.33006e-21)
(1.05982 -0.419255 1.76699e-21)
(1.05612 -0.387972 4.69325e-22)
(1.05337 -0.358697 9.96463e-21)
(1.05141 -0.331321 -6.09542e-21)
(1.05012 -0.305727 -4.6898e-20)
(1.04945 -0.281739 -2.35614e-20)
(1.0493 -0.259327 2.49889e-20)
(1.04893 -0.239237 1.27865e-20)
(1.04828 -0.220734 -5.68744e-21)
(0.201163 -0.110428 1.22641e-19)
(0.522838 -0.295729 -1.75078e-19)
(0.770806 -0.444403 -1.56834e-19)
(0.943003 -0.543324 1.90584e-19)
(1.04631 -0.592394 4.80564e-20)
(1.09669 -0.601435 -3.04888e-20)
(1.1133 -0.584309 -5.60405e-20)
(1.11254 -0.553722 -5.68218e-20)
(1.10506 -0.518316 3.58219e-20)
(1.0963 -0.482593 8.51822e-21)
(1.08833 -0.448315 1.16024e-20)
(1.08165 -0.415956 7.49561e-21)
(1.07623 -0.385542 -3.8414e-21)
(1.07189 -0.356992 1.15224e-21)
(1.06848 -0.330217 7.53415e-21)
(1.06584 -0.305118 2.37699e-20)
(1.06394 -0.281531 1.17921e-20)
(1.06267 -0.259413 -4.06112e-20)
(1.06127 -0.239517 -8.92807e-21)
(1.05944 -0.221214 1.29022e-20)
(0.198276 -0.0994812 -1.3345e-19)
(0.521041 -0.271287 1.29278e-19)
(0.774871 -0.414838 -3.13887e-22)
(0.955053 -0.514726 -4.32916e-20)
(1.0658 -0.568047 -7.37876e-21)
(1.12134 -0.582214 -9.72979e-21)
(1.14041 -0.569613 -5.12046e-20)
(1.13988 -0.542439 5.13924e-20)
(1.13132 -0.509473 -6.51226e-20)
(1.12092 -0.475539 3.31612e-21)
(1.11118 -0.442666 -4.69527e-21)
(1.10279 -0.411469 -1.83482e-21)
(1.09577 -0.382033 -6.29891e-22)
(1.08995 -0.354308 -5.47839e-21)
(1.08517 -0.328223 1.70668e-21)
(1.08126 -0.303701 -2.7287e-21)
(1.07819 -0.280592 7.1495e-21)
(1.07585 -0.258835 3.30145e-21)
(1.07346 -0.239171 1.21464e-21)
(1.07054 -0.221144 -2.10608e-20)
(0.193909 -0.0884795 2.04366e-20)
(0.515628 -0.24617 3.73041e-20)
(0.774185 -0.383767 6.89045e-20)
(0.962204 -0.483977 -3.62047e-20)
(1.08095 -0.541294 -1.00397e-19)
(1.14253 -0.56067 2.75601e-20)
(1.16492 -0.552847 4.40692e-20)
(1.16533 -0.529381 2.5191e-20)
(1.15616 -0.499099 5.56398e-20)
(1.14441 -0.467137 -1.24309e-20)
(1.13311 -0.435808 -5.01869e-21)
(1.12318 -0.405885 5.24511e-21)
(1.11468 -0.377522 -1.269e-20)
(1.10749 -0.35071 -1.24085e-20)
(1.10143 -0.325395 -3.17118e-21)
(1.09635 -0.301523 2.89198e-21)
(1.09217 -0.278961 -8.09655e-21)
(1.08881 -0.257627 4.61378e-21)
(1.08548 -0.238233 8.98403e-21)
(1.08156 -0.220545 -3.31031e-22)
(0.188124 -0.0775875 3.74143e-20)
(0.506622 -0.220742 7.62017e-21)
(0.768628 -0.351605 -9.6178e-20)
(0.964178 -0.451444 1.17507e-19)
(1.09141 -0.512412 2.16793e-20)
(1.15992 -0.537001 -1.11004e-19)
(1.18656 -0.534175 3.53453e-20)
(1.18867 -0.514687 -3.80478e-20)
(1.17943 -0.487322 6.17806e-22)
(1.16669 -0.457508 5.61471e-21)
(1.15404 -0.427847 1.29006e-20)
(1.14274 -0.399299 3.08935e-21)
(1.1329 -0.372091 2.8204e-20)
(1.12445 -0.346269 5.00377e-21)
(1.11722 -0.321793 -6.14491e-21)
(1.11104 -0.298633 -1.14008e-21)
(1.10584 -0.276681 -1.40706e-21)
(1.10151 -0.255826 9.11136e-22)
(1.09731 -0.236737 -2.22713e-22)
(1.09247 -0.219434 4.09998e-21)
(0.181009 -0.0669638 -4.35388e-20)
(0.494109 -0.195368 2.32943e-21)
(0.758148 -0.318784 2.01037e-20)
(0.960755 -0.417516 -4.85541e-20)
(1.09684 -0.481698 9.19765e-20)
(1.17315 -0.511422 4.54151e-20)
(1.20504 -0.513757 -4.2587e-20)
(1.2097 -0.498498 -2.42718e-20)
(1.20101 -0.474274 1.88574e-20)
(1.18766 -0.446765 -2.31689e-20)
(1.17392 -0.418902 1.79552e-20)
(1.16139 -0.39181 8.33402e-22)
(1.15037 -0.365816 1.04654e-21)
(1.1408 -0.341058 -7.73875e-21)
(1.1325 -0.31748 1.61579e-20)
(1.12532 -0.295086 -1.97975e-21)
(1.11915 -0.273793 2.31457e-21)
(1.11392 -0.253471 -1.16583e-21)
(1.10892 -0.234719 -1.62198e-21)
(1.10324 -0.217835 -1.23904e-21)
(0.172678 -0.0567574 7.20509e-20)
(0.478235 -0.170408 8.20929e-20)
(0.742768 -0.285744 5.80684e-20)
(0.951775 -0.382601 -9.40963e-21)
(1.09694 -0.449472 9.44915e-21)
(1.1819 -0.484158 -8.07201e-22)
(1.22007 -0.491757 9.14914e-20)
(1.2282 -0.480949 -2.47469e-20)
(1.22073 -0.460086 1.40375e-20)
(1.20724 -0.435048 -6.82559e-20)
(1.1927 -0.40907 1.16888e-20)
(1.17913 -0.383496 2.30502e-20)
(1.16706 -0.358807 -7.74583e-21)
(1.15648 -0.335155 1.61257e-20)
(1.14722 -0.312516 -1.41056e-20)
(1.13914 -0.290934 1.86518e-20)
(1.13209 -0.270346 1.60018e-21)
(1.12602 -0.250605 -4.11499e-21)
(1.12028 -0.232213 -4.55877e-22)
(1.11385 -0.215768 -2.17957e-22)
(0.163267 -0.0471035 -1.36019e-19)
(0.45921 -0.146207 3.29125e-20)
(0.722587 -0.25293 -1.32082e-20)
(0.93714 -0.347126 -8.58761e-20)
(1.09145 -0.416069 -2.71392e-20)
(1.18581 -0.455446 -5.16607e-20)
(1.23132 -0.468341 -4.07524e-20)
(1.24393 -0.462172 -3.95431e-20)
(1.23844 -0.444878 3.50952e-20)
(1.2253 -0.422465 1.33664e-20)
(1.21029 -0.398464 -4.04579e-20)
(1.19591 -0.37448 -5.69032e-21)
(1.18296 -0.351138 -2.82781e-21)
(1.17148 -0.328626 -1.36281e-20)
(1.16137 -0.306979 -1.71056e-21)
(1.15248 -0.286237 -3.13148e-21)
(1.14463 -0.266381 -1.47837e-20)
(1.13779 -0.24727 4.04715e-21)
(1.13139 -0.229256 5.88884e-21)
(1.12428 -0.213265 -1.2188e-21)
(0.152936 -0.0381206 4.69659e-21)
(0.437305 -0.12309 -5.93008e-20)
(0.697791 -0.220779 2.65924e-20)
(0.916828 -0.311527 -1.79234e-20)
(1.08015 -0.38184 2.10863e-20)
(1.18456 -0.425535 8.52292e-20)
(1.23847 -0.443678 -3.67248e-20)
(1.25663 -0.442295 7.82547e-20)
(1.25397 -0.428761 2.84757e-21)
(1.24176 -0.409127 3.14687e-20)
(1.22664 -0.387201 3.16103e-21)
(1.2117 -0.364864 1.90963e-20)
(1.19802 -0.342895 3.40358e-21)
(1.18579 -0.321558 6.45099e-22)
(1.17494 -0.300924 -2.04722e-20)
(1.16532 -0.281041 3.27982e-21)
(1.15676 -0.26196 1.34521e-20)
(1.1492 -0.243513 5.27309e-22)
(1.14221 -0.225883 -3.60982e-21)
(1.13453 -0.210349 1.54588e-21)
(0.141856 -0.029908 1.62683e-20)
(0.41285 -0.101351 4.73519e-20)
(0.668654 -0.189713 4.98629e-20)
(0.890904 -0.276242 -1.40564e-20)
(1.06285 -0.347151 5.89332e-20)
(1.17783 -0.394681 -1.14944e-20)
(1.24117 -0.417937 8.37044e-20)
(1.26601 -0.421437 -9.77795e-20)
(1.26715 -0.411841 -1.6135e-20)
(1.25653 -0.395138 -1.46791e-20)
(1.2417 -0.375384 -1.59936e-20)
(1.22645 -0.354742 -2.3762e-21)
(1.21222 -0.334171 6.65551e-21)
(1.19938 -0.314025 -1.78354e-20)
(1.1879 -0.294422 1.40002e-20)
(1.17766 -0.275423 -5.97498e-21)
(1.1685 -0.257116 -3.29927e-21)
(1.16026 -0.23935 -4.15681e-21)
(1.1527 -0.222145 -2.86002e-21)
(1.14464 -0.207078 -5.85377e-21)
(0.130217 -0.0225431 7.52309e-20)
(0.386226 -0.0812473 -7.17695e-20)
(0.635539 -0.16013 8.4975e-21)
(0.859528 -0.241712 -9.47968e-21)
(1.03947 -0.312379 -2.23339e-20)
(1.16531 -0.363152 -4.19478e-20)
(1.23904 -0.391288 -5.11235e-21)
(1.27176 -0.399711 2.45688e-20)
(1.27773 -0.394211 9.60141e-21)
(1.26947 -0.380591 -1.24031e-20)
(1.25542 -0.363107 1.3365e-20)
(1.24014 -0.344206 -1.27605e-21)
(1.22555 -0.32505 -2.25113e-20)
(1.21223 -0.306105 3.0745e-20)
(1.20023 -0.287539 8.25993e-21)
(1.18947 -0.269436 -4.10458e-21)
(1.17978 -0.251896 5.11469e-21)
(1.17098 -0.234818 5.98615e-21)
(1.16287 -0.218131 5.35641e-21)
(1.15457 -0.203469 5.12368e-21)
(0.118213 -0.0160799 -7.73967e-20)
(0.357861 -0.0629916 5.85875e-20)
(0.598893 -0.132393 2.49211e-20)
(0.822965 -0.208366 -5.03297e-20)
(1.00997 -0.277909 -1.0658e-20)
(1.14673 -0.331229 -3.83628e-20)
(1.23171 -0.363905 1.49096e-20)
(1.2735 -0.377222 -2.36789e-20)
(1.28547 -0.375948 1.2884e-21)
(1.28043 -0.365565 3.09761e-21)
(1.26773 -0.350455 6.69829e-21)
(1.25276 -0.333343 -2.16523e-20)
(1.23801 -0.315615 2.15304e-20)
(1.22435 -0.297871 -1.45597e-20)
(1.21195 -0.280341 -3.20952e-21)
(1.20075 -0.263134 1.1997e-21)
(1.19061 -0.246359 -3.69406e-21)
(1.18135 -0.229969 -8.97331e-21)
(1.17276 -0.213848 -2.1592e-22)
(1.16415 -0.199554 -4.95251e-21)
(0.106042 -0.0105483 -9.26521e-21)
(0.328214 -0.0467475 -2.71216e-20)
(0.559249 -0.10682 -9.24189e-21)
(0.781592 -0.176615 1.44898e-20)
(0.974435 -0.244135 -8.35562e-21)
(1.12188 -0.299204 8.74517e-21)
(1.21879 -0.335965 1.94693e-20)
(1.27084 -0.354066 1.65555e-20)
(1.29003 -0.357115 1.27751e-20)
(1.28921 -0.350119 -2.79147e-21)
(1.27852 -0.337498 -6.45372e-21)
(1.26426 -0.322228 7.94082e-21)
(1.24959 -0.305943 -3.53506e-21)
(1.23574 -0.289393 4.8836e-21)
(1.22304 -0.27289 -2.30411e-21)
(1.2115 -0.25657 5.63344e-21)
(1.201 -0.240558 -1.63249e-21)
(1.19135 -0.224852 5.36454e-21)
(1.18236 -0.209293 -1.56017e-21)
(1.17341 -0.195351 3.31953e-22)
(0.0938987 -0.00595392 -1.257e-22)
(0.297769 -0.0326243 -1.21095e-22)
(0.51721 -0.0836768 -3.1099e-21)
(0.735902 -0.146842 1.52957e-20)
(0.933044 -0.211449 9.68733e-21)
(1.09059 -0.267385 -7.25046e-21)
(1.19988 -0.307657 -5.31187e-21)
(1.26332 -0.330337 -1.53874e-21)
(1.29104 -0.33776 -7.34888e-21)
(1.29556 -0.334296 -4.71357e-22)
(1.28767 -0.324288 3.11274e-22)
(1.2746 -0.310929 -3.00113e-21)
(1.26028 -0.296103 -1.82798e-21)
(1.2464 -0.280739 -4.08933e-21)
(1.23352 -0.265246 -4.35553e-21)
(1.22173 -0.2498 -3.42328e-22)
(1.21095 -0.23454 1.55574e-21)
(1.20099 -0.219503 1.58328e-21)
(1.19167 -0.204491 1.68564e-21)
(1.18243 -0.190888 2.41327e-21)
(0.0819686 -0.00227884 1.0553e-20)
(0.267016 -0.0206752 -1.6248e-21)
(0.473437 -0.0631652 -2.76729e-21)
(0.686503 -0.11939 6.96802e-21)
(0.886124 -0.180242 1.39544e-20)
(1.05281 -0.236092 -6.15108e-21)
(1.17462 -0.27918 -4.98574e-21)
(1.25044 -0.306126 -9.23333e-21)
(1.28804 -0.317913 -8.28135e-21)
(1.29916 -0.318114 1.5451e-21)
(1.295 -0.31086 -1.36761e-21)
(1.2837 -0.299495 -6.25425e-22)
(1.27006 -0.286154 -3.21485e-21)
(1.25635 -0.271971 -5.16053e-21)
(1.24341 -0.257468 -1.24952e-21)
(1.23146 -0.242875 -4.13397e-22)
(1.22047 -0.228348 -9.05344e-23)
(1.21027 -0.213966 1.06719e-21)
(1.20068 -0.199488 3.84792e-21)
(1.19123 -0.186195 3.15265e-21)
(0.0704237 0.000516611 -6.34168e-21)
(0.236438 -0.0108965 -9.25578e-21)
(0.42863 -0.0454192 -1.2325e-20)
(0.634113 -0.0945547 1.62069e-20)
(0.834147 -0.150889 1.5623e-20)
(1.00859 -0.205665 2.88014e-22)
(1.14268 -0.250755 5.9277e-21)
(1.23168 -0.281532 1.64061e-20)
(1.2805 -0.297596 1.77358e-20)
(1.2996 -0.301571 1.14938e-20)
(1.30024 -0.297224 -2.80109e-20)
(1.29143 -0.287958 1.14701e-20)
(1.27889 -0.276147 -5.37005e-21)
(1.26557 -0.263142 1.1567e-20)
(1.25271 -0.249609 -7.42592e-22)
(1.2407 -0.235846 -1.81884e-21)
(1.22958 -0.222029 1.18187e-21)
(1.2192 -0.208279 1.1032e-20)
(1.20942 -0.194329 -3.8287e-21)
(1.19983 -0.181305 3.2994e-22)
(0.0594168 0.00249128 -1.95796e-20)
(0.206495 -0.00323025 4.45838e-20)
(0.383507 -0.0304995 4.42134e-21)
(0.579542 -0.0725671 -5.58326e-20)
(0.77774 -0.123744 -1.03934e-20)
(0.958141 -0.176452 2.41023e-20)
(1.10383 -0.222628 -5.56499e-20)
(1.20651 -0.256668 -4.86186e-22)
(1.26781 -0.276826 5.16332e-21)
(1.29635 -0.284646 -1.03981e-21)
(1.30307 -0.283362 1.48722e-20)
(1.29762 -0.276328 -2.58588e-20)
(1.2867 -0.266112 4.13396e-21)
(1.27406 -0.254299 -9.71839e-21)
(1.26143 -0.241719 -8.01633e-21)
(1.24946 -0.228759 7.36922e-21)
(1.23828 -0.215624 -8.55245e-22)
(1.22781 -0.202483 -1.73717e-20)
(1.21788 -0.189056 4.99477e-22)
(1.20821 -0.17625 -8.57936e-21)
(0.0490777 0.0037199 1.5145e-20)
(0.177612 0.00243163 -2.47803e-20)
(0.338782 -0.0183929 -1.954e-21)
(0.523672 -0.0535885 -4.61974e-20)
(0.71769 -0.0991236 -2.87637e-20)