/*--------------------------------*- C++ -*----------------------------------*\
  =========                 |
  \\      /  F ield         | OpenFOAM: The Open Source CFD Toolbox
   \\    /   O peration     | Website:  https://openfoam.org
    \\  /    A nd           | Version:  7
     \\/     M anipulation  |
\*---------------------------------------------------------------------------*/
FoamFile
{
    version     2.0;
    format      ascii;
    class       volVectorField;
    location    "1.1";
    object      U;
}
// * * * * * * * * * * * * * * * * * * * * * * * * * * * * * * * * * * * * * //

dimensions      [0 1 -1 0 0 0 0];

internalField   nonuniform List<vector> 
197568
(
(3 -2.99198e-16 0)
(3 -2.25743e-16 0)
(3 -3.02285e-16 0)
(3 1.91798e-16 0)
(3 3.35278e-16 0)
(3 1.93147e-16 0)
(3 4.21387e-16 0)
(3 4.87715e-16 0)
(3 4.5029e-16 0)
(3 6.6918e-16 0)
(3 3.82706e-16 0)
(3 -2.34404e-16 0)
(3 -3.09197e-16 0)
(3 4.56285e-16 0)
(3 7.03754e-16 0)
(3 6.89248e-16 0)
(3 4.14963e-16 0)
(3 2.33964e-16 0)
(3 -6.61156e-16 0)
(3 -1.08314e-15 0)
(3 -6.40643e-16 0)
(3 -6.28228e-16 0)
(3 -5.82973e-16 0)
(3 -6.94286e-16 0)
(3 -6.30839e-16 0)
(3 -8.3137e-16 0)
(3 -3.80013e-16 0)
(3 -5.09649e-16 0)
(3 -4.32849e-16 0)
(3 9.9137e-17 0)
(3 -1.85203e-16 0)
(3 6.17753e-16 0)
(3 8.54345e-16 0)
(3 5.47163e-16 0)
(3 -1.09806e-15 0)
(3 -1.99181e-15 0)
(3 -1.30418e-15 0)
(3 -5.53469e-16 0)
(3 -4.29009e-17 0)
(3 6.0358e-16 0)
(3 1.91667e-16 0)
(3 -8.63527e-16 0)
(3 -1.871e-15 0)
(3 -1.99539e-15 0)
(3 -6.60618e-16 0)
(3 -4.29502e-16 0)
(3 5.92354e-16 0)
(3 4.75996e-16 0)
(3 2.21244e-16 0)
(3 -8.1683e-16 0)
(3 -4.37329e-16 0)
(3 2.9932e-17 0)
(3 8.28066e-17 0)
(3 -1.69172e-16 0)
(3 -3.56054e-17 0)
(3 -3.86136e-16 0)
(3 -1.87534e-15 0)
(3 -1.76858e-15 0)
(3 -6.39502e-16 0)
(3 -5.24119e-16 0)
(3 -8.66374e-16 0)
(3 -5.11139e-16 0)
(3 -4.90422e-16 0)
(3 -1.09153e-15 0)
(3 -8.39314e-16 0)
(3 -3.41948e-16 0)
(3 -6.01295e-16 0)
(3 -1.1748e-15 0)
(3 -1.85375e-15 0)
(3 -1.52343e-15 0)
(3 -1.25074e-15 0)
(3 -1.044e-15 0)
(3 -4.84713e-16 0)
(3 1.88518e-16 0)
(3 6.35301e-16 0)
(3 6.6563e-16 0)
(3 6.32805e-16 0)
(3 5.95955e-16 0)
(3 3.64037e-16 0)
(3 -4.36269e-17 0)
(3 -2.2851e-17 0)
(3 -4.20387e-16 0)
(3 -7.27774e-16 0)
(3 -5.06252e-16 0)
(3 -1.96714e-16 0)
(3 5.82398e-16 0)
(3 7.17811e-16 0)
(3 3.60342e-16 0)
(3 -1.03837e-16 0)
(3 -3.2839e-16 0)
(3 -6.35028e-16 0)
(3 -7.54269e-16 0)
(3 6.79052e-16 0)
(2.77097 0.000946245 0)
(0.927731 0.00278905 0)
(0.709834 0.00480048 0)
(0.696901 0.00467244 0)
(0.686863 0.00370809 0)
(0.681407 0.00284989 0)
(0.681134 0.00228591 0)
(0.682052 0.00210736 0)
(0.679726 0.00236459 0)
(0.673001 0.00306921 0)
(0.663441 0.00386485 0)
(0.651924 0.0045178 0)
(0.639623 0.00496589 0)
(0.627762 0.00509183 0)
(0.615686 0.0053742 0)
(0.602942 0.00559224 0)
(0.590038 0.00571707 0)
(0.578618 0.00542156 0)
(0.567738 0.00490159 0)
(0.560894 0.00361707 0)
(0.556455 0.00274359 0)
(0.553013 0.00243643 0)
(0.549505 0.00297557 0)
(0.541979 0.0037852 0)
(0.530473 0.00470572 0)
(0.51695 0.00551233 0)
(0.503212 0.00551124 0)
(0.491511 0.00475826 0)
(0.481913 0.00378393 0)
(0.472765 0.00344991 0)
(0.463353 0.00379291 0)
(0.451925 0.0044793 0)
(0.43912 0.00500799 0)
(0.427083 0.0050191 0)
(0.417086 0.00474417 0)
(0.409316 0.00452833 0)
(0.402391 0.00447689 0)
(0.397254 0.00449343 0)
(0.391851 0.00450891 0)
(0.38516 0.00455684 0)
(0.37756 0.00460115 0)
(0.367965 0.00462634 0)
(0.356145 0.00463826 0)
(0.342877 0.00465207 0)
(0.329306 0.00466492 0)
(0.315956 0.00478076 0)
(0.303164 0.00487878 0)
(0.29133 0.00493256 0)
(0.280139 0.00495519 0)
(0.26987 0.00496621 0)
(0.259785 0.00496031 0)
(0.249429 0.00494839 0)
(0.23958 0.00491769 0)
(0.229058 0.0048632 0)
(0.219199 0.00483853 0)
(0.210598 0.0048452 0)
(0.203168 0.00490234 0)
(0.196089 0.0049974 0)
(0.187763 0.00504589 0)
(0.179068 0.00507283 0)
(0.1692 0.00510999 0)
(0.158766 0.00516233 0)
(0.148637 0.00521564 0)
(0.139247 0.00530882 0)
(0.130259 0.00533349 0)
(0.120866 0.00526288 0)
(0.110189 0.00518587 0)
(0.0982937 0.00518174 0)
(0.0861207 0.00537605 0)
(0.074178 0.00572705 0)
(0.0622995 0.00612436 0)
(0.0500024 0.00644939 0)
(0.0367346 0.00664568 0)
(0.0228254 0.0066318 0)
(0.00802623 0.00665241 0)
(3 -1.28182e-17 0)
(3 3.16414e-16 0)
(3 2.54934e-16 0)
(3 3.26575e-16 0)
(3 7.56862e-16 0)
(3 9.46092e-16 0)
(3 1.49044e-15 0)
(3 1.5888e-15 0)
(3 3.28234e-16 0)
(3 -3.03082e-16 0)
(3 -2.54147e-16 0)
(3 -5.73985e-16 0)
(3 -4.4372e-16 0)
(3 1.2863e-15 0)
(3 1.72004e-15 0)
(3 1.05e-15 0)
(3 7.63162e-16 0)
(3 5.451e-17 0)
(3 -1.54156e-15 0)
(3 -2.96328e-15 0)
(3 -2.85429e-15 0)
(3 -2.10286e-15 0)
(3 -1.23673e-15 0)
(3 -1.31308e-15 0)
(3 -1.07374e-15 0)
(3 -6.98194e-16 0)
(3 9.70142e-17 0)
(3 -3.14157e-16 0)
(3 -1.16635e-16 0)
(3 -1.04313e-16 0)
(3 7.85914e-17 0)
(3 1.49354e-15 0)
(3 2.53383e-15 0)
(3 2.61182e-15 0)
(3 1.06799e-16 0)
(3 -8.95948e-16 0)
(3 -4.82706e-16 0)
(3 -3.62559e-16 0)
(3 1.03441e-15 0)
(3 1.98974e-15 0)
(3 -1.38767e-16 0)
(3 -1.71041e-15 0)
(3 -1.6973e-15 0)
(3 -1.76502e-15 0)
(3 -1.21898e-15 0)
(3 -8.39831e-18 0)
(3 7.98366e-16 0)
(3 7.46544e-16 0)
(3 -1.26249e-16 0)
(3 -1.20066e-15 0)
(3 -6.13589e-16 0)
(3 1.40256e-16 0)
(3 1.17061e-15 0)
(3 1.35236e-15 0)
(3 1.2775e-15 0)
(3 3.0497e-16 0)
(3 -6.69944e-16 0)
(3 -1.22062e-15 0)
(3 -1.07564e-15 0)
(3 -1.3437e-15 0)
(3 -9.20942e-16 0)
(3 -1.04543e-15 0)
(3 -9.92559e-16 0)
(3 -1.17552e-15 0)
(3 -5.07102e-16 0)
(3 -3.43288e-16 0)
(3 -1.45059e-15 0)
(3 -1.91208e-15 0)
(3 -3.43647e-15 0)
(3 -3.51964e-15 0)
(3 -2.76493e-15 0)
(3 -1.22712e-15 0)
(3 -3.19472e-16 0)
(3 6.61978e-16 0)
(3 9.78294e-16 0)
(3 5.86008e-16 0)
(3 5.43813e-16 0)
(3 5.46365e-16 0)
(3 -2.16476e-16 0)
(3 -5.92775e-16 0)
(3 -5.90422e-16 0)
(3 -1.67806e-16 0)
(3 1.09813e-15 0)
(3 1.04851e-15 0)
(3 1.4894e-15 0)
(3 2.39428e-15 0)
(3 2.19669e-15 0)
(3 1.16327e-15 0)
(3 1.99413e-16 0)
(3 2.6929e-16 0)
(3 8.47339e-17 0)
(3 -8.87296e-17 0)
(3 8.28958e-17 0)
(2.77496 0.00532601 0)
(0.928335 0.0134866 0)
(0.706774 0.0160986 0)
(0.69361 0.0122932 0)
(0.685352 0.00998915 0)
(0.68136 0.00835713 0)
(0.68119 0.0070809 0)
(0.681004 0.00607894 0)
(0.678025 0.00648605 0)
(0.670983 0.0085467 0)
(0.661378 0.0110231 0)
(0.650236 0.0131605 0)
(0.638396 0.014716 0)
(0.626648 0.0154733 0)
(0.614277 0.01644 0)
(0.601091 0.0169383 0)
(0.587937 0.0168821 0)
(0.576816 0.0156069 0)
(0.566477 0.013978 0)
(0.560391 0.0107413 0)
(0.555994 0.00853773 0)
(0.551976 0.00778201 0)
(0.547967 0.00904688 0)
(0.540044 0.0113246 0)
(0.528268 0.0139627 0)
(0.514806 0.0161007 0)
(0.501461 0.0160081 0)
(0.490296 0.0140347 0)
(0.48093 0.011552 0)
(0.47155 0.0105755 0)
(0.461972 0.0114235 0)
(0.45055 0.0132676 0)
(0.437927 0.0146789 0)
(0.426172 0.0147037 0)
(0.416407 0.0140532 0)
(0.408723 0.0136146 0)
(0.401721 0.0135832 0)
(0.396499 0.0136946 0)
(0.390973 0.0137545 0)
(0.384189 0.0138734 0)
(0.376588 0.0139759 0)
(0.367049 0.0140135 0)
(0.355354 0.0139811 0)
(0.342269 0.013949 0)
(0.32888 0.013935 0)
(0.315702 0.0142559 0)
(0.303076 0.014563 0)
(0.291372 0.0148088 0)
(0.280257 0.014977 0)
(0.270027 0.0150476 0)
(0.259939 0.0149786 0)
(0.24955 0.0148492 0)
(0.239682 0.0146587 0)
(0.229203 0.0145301 0)
(0.219396 0.0146125 0)
(0.210732 0.0148697 0)
(0.203063 0.0151474 0)
(0.195683 0.0153273 0)
(0.187223 0.0152633 0)
(0.17843 0.0150432 0)
(0.168786 0.015057 0)
(0.158631 0.0153889 0)
(0.148536 0.0158118 0)
(0.138898 0.0162722 0)
(0.129499 0.0163813 0)
(0.119775 0.0160288 0)
(0.109041 0.015634 0)
(0.0974531 0.0155709 0)
(0.0856719 0.0161462 0)
(0.0739444 0.0171893 0)
(0.0620405 0.0183245 0)
(0.0496061 0.0192498 0)
(0.0362617 0.0198812 0)
(0.0223473 0.0199789 0)
(0.00785383 0.020035 0)
(3 3.64436e-16 0)
(3 4.99131e-16 0)
(3 4.37489e-16 0)
(3 -6.85446e-17 0)
(3 -1.79225e-16 0)
(3 -5.01065e-18 0)
(3 4.95731e-17 0)
(3 -3.83088e-16 0)
(3 -1.19316e-15 0)
(3 -2.50553e-15 0)
(3 -2.20082e-15 0)
(3 -1.17006e-15 0)
(3 2.81178e-16 0)
(3 9.37893e-16 0)
(3 1.03353e-15 0)
(3 7.32084e-16 0)
(3 4.55842e-16 0)
(3 3.73018e-16 0)
(3 2.93068e-16 0)
(3 -8.66173e-16 0)
(3 -2.0717e-15 0)
(3 -1.63435e-15 0)
(3 -1.44372e-15 0)
(3 -1.57372e-15 0)
(3 -4.19938e-16 0)
(3 -4.74493e-17 0)
(3 -2.25231e-16 0)
(3 -1.40013e-18 0)
(3 -2.92965e-16 0)
(3 -5.70117e-16 0)
(3 3.71374e-16 0)
(3 1.41961e-15 0)
(3 2.2218e-15 0)
(3 1.48188e-15 0)
(3 6.95242e-16 0)
(3 6.8028e-16 0)
(3 6.60718e-16 0)
(3 5.79031e-16 0)
(3 1.23166e-16 0)
(3 -1.98884e-16 0)
(3 -1.14074e-15 0)
(3 -1.13618e-15 0)
(3 -4.91136e-16 0)
(3 -7.1086e-16 0)
(3 -1.5081e-15 0)
(3 -1.34669e-15 0)
(3 -1.03541e-15 0)
(3 -6.57069e-16 0)
(3 -1.0976e-15 0)
(3 -1.15158e-15 0)
(3 -1.61306e-16 0)
(3 3.72064e-16 0)
(3 6.25433e-16 0)
(3 1.55801e-15 0)
(3 1.1261e-15 0)
(3 -9.57218e-17 0)
(3 -4.19517e-16 0)
(3 -7.06157e-16 0)
(3 -1.4026e-15 0)
(3 -8.60147e-16 0)
(3 -3.63717e-18 0)
(3 5.46595e-16 0)
(3 3.15292e-16 0)
(3 -2.82146e-16 0)
(3 -1.01596e-15 0)
(3 -1.50398e-15 0)
(3 -1.99796e-15 0)
(3 -2.76978e-15 0)
(3 -3.294e-15 0)
(3 -3.19981e-15 0)
(3 -2.50061e-15 0)
(3 -1.08019e-15 0)
(3 4.57618e-16 0)
(3 8.39572e-16 0)
(3 7.64104e-16 0)
(3 5.55792e-16 0)
(3 5.71438e-16 0)
(3 3.17911e-16 0)
(3 -5.20299e-16 0)
(3 -7.02603e-16 0)
(3 -5.70407e-16 0)
(3 4.31708e-16 0)
(3 6.16411e-16 0)
(3 3.90108e-16 0)
(3 4.84308e-16 0)
(3 4.96808e-16 0)
(3 7.35743e-16 0)
(3 1.02252e-15 0)
(3 8.54166e-16 0)
(3 -8.18055e-16 0)
(3 -1.55167e-15 0)
(3 -1.35345e-15 0)
(3 -1.92975e-15 0)
(2.78659 0.00998767 0)
(0.933164 0.0253866 0)
(0.706094 0.0266469 0)
(0.693282 0.0190438 0)
(0.68643 0.0156461 0)
(0.684326 0.0138793 0)
(0.68363 0.0127582 0)
(0.682084 0.0114643 0)
(0.677302 0.0120187 0)
(0.669062 0.0144834 0)
(0.65895 0.017824 0)
(0.648011 0.0211824 0)
(0.636747 0.0240392 0)
(0.625429 0.0258279 0)
(0.613281 0.0277905 0)
(0.600103 0.0286118 0)
(0.587 0.028066 0)
(0.576298 0.0254143 0)
(0.566368 0.0224015 0)
(0.561001 0.0176039 0)
(0.556553 0.0146319 0)
(0.551932 0.0138219 0)
(0.547287 0.0158779 0)
(0.53873 0.0194767 0)
(0.5265 0.0235847 0)
(0.51285 0.0265283 0)
(0.499672 0.026029 0)
(0.488903 0.0229908 0)
(0.479717 0.0193883 0)
(0.470137 0.0180104 0)
(0.460444 0.0193462 0)
(0.449032 0.0221498 0)
(0.436523 0.0242323 0)
(0.42495 0.0241537 0)
(0.415337 0.023148 0)
(0.407694 0.0225627 0)
(0.400585 0.0225968 0)
(0.395287 0.0227983 0)
(0.389634 0.0228851 0)
(0.382742 0.02305 0)
(0.37508 0.0232007 0)
(0.365529 0.0232885 0)
(0.353878 0.0232699 0)
(0.340925 0.0232209 0)
(0.327715 0.0231719 0)
(0.31475 0.0236497 0)
(0.302347 0.0241195 0)
(0.290792 0.0245212 0)
(0.279727 0.0248534 0)
(0.269443 0.0250503 0)
(0.259245 0.0249895 0)
(0.248809 0.0248041 0)
(0.238879 0.0245491 0)
(0.228595 0.0243144 0)
(0.219004 0.0243844 0)
(0.210338 0.0247635 0)
(0.202363 0.0251974 0)
(0.194531 0.0255442 0)
(0.186016 0.0255913 0)
(0.177175 0.0253269 0)
(0.167956 0.0253622 0)
(0.15829 0.0257918 0)
(0.148349 0.0262999 0)
(0.138393 0.0268373 0)
(0.12844 0.0270132 0)
(0.118295 0.026637 0)
(0.107568 0.0262405 0)
(0.0964095 0.0262713 0)
(0.0850444 0.0271171 0)
(0.07348 0.0285665 0)
(0.0614789 0.0301441 0)
(0.0488849 0.031566 0)
(0.0355136 0.0327177 0)
(0.0216711 0.0331201 0)
(0.00755683 0.0334576 0)
(3 -1.59284e-17 0)
(3 7.94028e-17 0)
(3 2.04902e-17 0)
(3 4.60715e-16 0)
(3 -1.06878e-16 0)
(3 -3.83073e-16 0)
(3 -8.82817e-16 0)
(3 -1.61892e-15 0)
(3 -1.8272e-15 0)
(3 -1.89971e-15 0)
(3 -9.88856e-17 0)
(3 6.95271e-16 0)
(3 8.19009e-16 0)
(3 3.03789e-16 0)
(3 6.80002e-16 0)
(3 3.25145e-16 0)
(3 -3.01452e-16 0)
(3 -2.02976e-16 0)
(3 2.84728e-16 0)
(3 1.51646e-16 0)
(3 -9.71936e-16 0)
(3 -1.78711e-15 0)
(3 -2.08363e-15 0)
(3 -1.67432e-15 0)
(3 -1.02128e-15 0)
(3 -2.03594e-16 0)
(3 -3.95315e-16 0)
(3 -1.75394e-16 0)
(3 -6.04709e-16 0)
(3 -1.22886e-15 0)
(3 -1.40657e-15 0)
(3 -5.39309e-16 0)
(3 -4.46052e-16 0)
(3 -1.2811e-15 0)
(3 -1.91816e-16 0)
(3 3.05156e-16 0)
(3 -5.7612e-18 0)
(3 -4.08339e-16 0)
(3 -1.3943e-15 0)
(3 -1.86301e-15 0)
(3 -1.14256e-15 0)
(3 1.91246e-17 0)
(3 -1.33678e-17 0)
(3 -5.13133e-16 0)
(3 -1.03819e-15 0)
(3 -1.90222e-15 0)
(3 -2.22655e-15 0)
(3 -2.04823e-15 0)
(3 -1.70833e-15 0)
(3 -1.38971e-15 0)
(3 2.80189e-16 0)
(3 1.27097e-15 0)
(3 1.73967e-15 0)
(3 1.76002e-15 0)
(3 1.01318e-15 0)
(3 3.67658e-16 0)
(3 -6.60477e-16 0)
(3 -1.30089e-15 0)
(3 -1.24899e-15 0)
(3 -3.18282e-16 0)
(3 1.35126e-16 0)
(3 5.26122e-16 0)
(3 6.39666e-16 0)
(3 4.19251e-16 0)
(3 -1.69527e-17 0)
(3 -8.73608e-16 0)
(3 -2.21086e-15 0)
(3 -4.01952e-15 0)
(3 -4.06451e-15 0)
(3 -3.65544e-15 0)
(3 -2.84247e-15 0)
(3 -9.83468e-16 0)
(3 8.72783e-16 0)
(3 7.90604e-16 0)
(3 1.71374e-16 0)
(3 -2.54353e-16 0)
(3 -4.25482e-16 0)
(3 -2.52745e-16 0)
(3 6.22825e-17 0)
(3 7.49291e-17 0)
(3 1.78226e-16 0)
(3 -6.44826e-16 0)
(3 -1.81906e-15 0)
(3 -1.88544e-15 0)
(3 -1.46288e-15 0)
(3 -7.08211e-16 0)
(3 -3.89149e-16 0)
(3 6.96534e-16 0)
(3 4.44942e-16 0)
(3 -1.04621e-15 0)
(3 -2.63492e-15 0)
(3 -3.00814e-15 0)
(3 -2.34674e-15 0)
(2.80357 0.0140123 0)
(0.94021 0.0378697 0)
(0.705607 0.0360016 0)
(0.694405 0.0247092 0)
(0.689427 0.020258 0)
(0.688613 0.0191522 0)
(0.687495 0.0189542 0)
(0.684819 0.018188 0)
(0.678438 0.0189755 0)
(0.668503 0.0212192 0)
(0.657401 0.0247476 0)
(0.646271 0.0288526 0)
(0.635447 0.0329461 0)
(0.624508 0.0360069 0)
(0.612686 0.0389908 0)
(0.599772 0.040039 0)
(0.58712 0.0386783 0)
(0.577155 0.034522 0)
(0.567643 0.0301201 0)
(0.562683 0.0242573 0)
(0.557958 0.0210162 0)
(0.552739 0.0205214 0)
(0.547475 0.0234227 0)
(0.538268 0.0282364 0)
(0.525667 0.0335614 0)
(0.511867 0.0368461 0)
(0.498862 0.035745 0)
(0.488415 0.0318257 0)
(0.479291 0.0274455 0)
(0.469496 0.0258318 0)
(0.459681 0.0276032 0)
(0.448236 0.0311705 0)
(0.435767 0.0337097 0)
(0.42427 0.0334485 0)
(0.414687 0.0321439 0)
(0.406987 0.0314946 0)
(0.399732 0.0316343 0)
(0.394328 0.0319285 0)
(0.388539 0.0320475 0)
(0.381529 0.0322534 0)
(0.373772 0.0324496 0)
(0.364135 0.0326076 0)
(0.352413 0.0326343 0)
(0.33946 0.0325666 0)
(0.326325 0.0324542 0)
(0.313527 0.0330306 0)
(0.301318 0.0336014 0)
(0.289861 0.0341206 0)
(0.2788 0.0346228 0)
(0.268359 0.0349923 0)
(0.257931 0.0349954 0)
(0.247415 0.0348149 0)
(0.237393 0.0344846 0)
(0.227407 0.0341505 0)
(0.218164 0.0341988 0)
(0.209613 0.0346019 0)
(0.201403 0.0351512 0)
(0.193151 0.0356653 0)
(0.184504 0.0359174 0)
(0.175573 0.0357782 0)
(0.166801 0.035838 0)
(0.157677 0.0362161 0)
(0.147979 0.0367245 0)
(0.137749 0.037218 0)
(0.127306 0.0374656 0)
(0.116808 0.0372484 0)
(0.106133 0.0370228 0)
(0.0954675 0.0371976 0)
(0.0845476 0.0382262 0)
(0.0730846 0.0399271 0)
(0.0609171 0.0418181 0)
(0.0480937 0.0436491 0)
(0.034664 0.0453132 0)
(0.0209113 0.0460566 0)
(0.00723728 0.0467432 0)
(3 -2.64562e-16 0)
(3 -2.75889e-16 0)
(3 -4.18229e-17 0)
(3 4.85531e-16 0)
(3 6.57239e-16 0)
(3 2.19418e-16 0)
(3 -1.44772e-16 0)
(3 -2.17149e-16 0)
(3 -1.16598e-16 0)
(3 1.11639e-16 0)
(3 6.30938e-16 0)
(3 9.33639e-16 0)
(3 1.20414e-15 0)
(3 1.63169e-16 0)
(3 -4.20012e-16 0)
(3 -9.98037e-18 0)
(3 -5.44878e-17 0)
(3 -4.2983e-16 0)
(3 -9.86138e-16 0)
(3 -1.45171e-15 0)
(3 -1.8575e-15 0)
(3 -2.28673e-15 0)
(3 -2.35291e-15 0)
(3 -1.68382e-15 0)
(3 -1.52838e-15 0)
(3 -1.06939e-15 0)
(3 -1.01567e-16 0)
(3 -2.07877e-16 0)
(3 -7.32299e-16 0)
(3 -2.01936e-15 0)
(3 -2.31884e-15 0)
(3 -2.50035e-15 0)
(3 -2.94998e-15 0)
(3 -2.56093e-15 0)
(3 -2.31167e-15 0)
(3 -1.3332e-15 0)
(3 -1.43865e-15 0)
(3 -1.9088e-15 0)
(3 -1.85156e-15 0)
(3 -1.30936e-15 0)
(3 2.76821e-16 0)
(3 4.90872e-16 0)
(3 -4.45966e-16 0)
(3 -2.24583e-16 0)
(3 -5.8056e-16 0)
(3 -1.35831e-15 0)
(3 -1.60525e-15 0)
(3 -1.40017e-15 0)
(3 -6.7006e-16 0)
(3 -8.97631e-16 0)
(3 4.15637e-17 0)
(3 4.07227e-16 0)
(3 9.96382e-16 0)
(3 2.62742e-15 0)
(3 2.53738e-15 0)
(3 1.32285e-15 0)
(3 -8.63673e-16 0)
(3 -9.3993e-16 0)
(3 -1.87681e-16 0)
(3 -1.3844e-16 0)
(3 -2.06676e-17 0)
(3 8.52493e-17 0)
(3 4.58317e-16 0)
(3 4.30465e-16 0)
(3 8.39246e-17 0)
(3 -8.47395e-16 0)
(3 -3.27216e-15 0)
(3 -4.86937e-15 0)
(3 -3.86993e-15 0)
(3 -3.25454e-15 0)
(3 -2.32158e-15 0)
(3 -2.2934e-15 0)
(3 -8.93351e-16 0)
(3 1.94373e-16 0)
(3 2.14055e-16 0)
(3 2.00199e-16 0)
(3 -8.62464e-16 0)
(3 -8.71823e-16 0)
(3 4.48488e-16 0)
(3 4.35124e-16 0)
(3 -4.19357e-16 0)
(3 -9.42806e-16 0)
(3 -1.84592e-15 0)
(3 -1.71842e-15 0)
(3 -1.65923e-15 0)
(3 -1.02624e-15 0)
(3 -5.84787e-16 0)
(3 -2.17834e-17 0)
(3 -1.4316e-16 0)
(3 -8.78681e-16 0)
(3 -1.35216e-15 0)
(3 -1.39192e-15 0)
(3 -7.26935e-16 0)
(2.82548 0.0178601 0)
(0.949647 0.0504188 0)
(0.704766 0.0433037 0)
(0.695818 0.0298518 0)
(0.692454 0.0255086 0)
(0.692233 0.0252589 0)
(0.691025 0.0259961 0)
(0.687539 0.0261423 0)
(0.680179 0.0270242 0)
(0.66888 0.0286271 0)
(0.656918 0.0319438 0)
(0.645493 0.0365712 0)
(0.634746 0.0417997 0)
(0.623827 0.0461474 0)
(0.612083 0.0499948 0)
(0.599425 0.0509174 0)
(0.587453 0.0484357 0)
(0.578272 0.0429055 0)
(0.56901 0.0374495 0)
(0.564201 0.0309942 0)
(0.559117 0.0278558 0)
(0.55344 0.0278496 0)
(0.547717 0.031562 0)
(0.538043 0.0373985 0)
(0.525334 0.0436036 0)
(0.511556 0.0468456 0)
(0.498815 0.0451027 0)
(0.488656 0.0405348 0)
(0.479564 0.0356773 0)
(0.469642 0.0339775 0)
(0.459786 0.0361423 0)
(0.448349 0.0402958 0)
(0.435897 0.0431166 0)
(0.424435 0.0426307 0)
(0.41483 0.0410775 0)
(0.407027 0.0404018 0)
(0.399656 0.0406633 0)
(0.39415 0.0410459 0)
(0.38826 0.0412152 0)
(0.381163 0.0414842 0)
(0.37331 0.041749 0)
(0.363556 0.0420201 0)
(0.351676 0.0421614 0)
(0.338583 0.0421227 0)
(0.325396 0.0419639 0)
(0.312703 0.0425926 0)
(0.30066 0.0431814 0)
(0.289278 0.0437357 0)
(0.278181 0.0443625 0)
(0.267497 0.0448699 0)
(0.256729 0.044962 0)
(0.24602 0.0448461 0)
(0.23591 0.0445131 0)
(0.226216 0.0441515 0)
(0.217367 0.0441106 0)
(0.208996 0.0444546 0)
(0.200609 0.0450454 0)
(0.191953 0.0457325 0)
(0.183055 0.0462324 0)
(0.173934 0.0463321 0)
(0.165403 0.0463652 0)
(0.156676 0.0466486 0)
(0.147205 0.0470217 0)
(0.136789 0.0473779 0)
(0.126044 0.0476891 0)
(0.115343 0.0478031 0)
(0.104753 0.0479493 0)
(0.0944921 0.0483395 0)
(0.0839039 0.0494676 0)
(0.072513 0.0512338 0)
(0.0602245 0.0532752 0)
(0.0472434 0.0554235 0)
(0.0338177 0.0576219 0)
(0.0201996 0.0587794 0)
(0.0069662 0.0599388 0)
(3 -2.35903e-16 0)
(3 -3.65657e-16 0)
(3 -4.21842e-16 0)
(3 -2.43712e-16 0)
(3 -2.40354e-16 0)
(3 1.04807e-17 0)
(3 -1.5182e-16 0)
(3 6.85973e-16 0)
(3 1.52687e-15 0)
(3 1.75994e-15 0)
(3 2.14947e-15 0)
(3 2.04739e-15 0)
(3 1.9079e-15 0)
(3 8.98699e-16 0)
(3 -6.93775e-16 0)
(3 -5.98665e-16 0)
(3 -5.62784e-16 0)
(3 -9.26081e-16 0)
(3 -1.42822e-15 0)
(3 -1.88889e-15 0)
(3 -1.49697e-15 0)
(3 -9.32562e-16 0)
(3 -2.93173e-16 0)
(3 2.29592e-16 0)
(3 -4.77262e-16 0)
(3 -1.0065e-15 0)
(3 -2.49403e-16 0)
(3 2.56997e-17 0)
(3 -2.98561e-16 0)
(3 -4.87546e-16 0)
(3 -1.64421e-15 0)
(3 -2.74278e-15 0)
(3 -2.17843e-15 0)
(3 -1.06573e-15 0)
(3 -1.43326e-15 0)
(3 -1.44821e-15 0)
(3 -1.68615e-15 0)
(3 -1.69922e-15 0)
(3 -1.26777e-15 0)
(3 -7.09716e-16 0)
(3 5.50654e-16 0)
(3 4.34375e-16 0)
(3 2.9797e-16 0)
(3 4.92214e-16 0)
(3 -4.46262e-16 0)
(3 -8.18524e-16 0)
(3 -1.18111e-15 0)
(3 2.27264e-16 0)
(3 1.61465e-15 0)
(3 8.92141e-16 0)
(3 -3.94201e-16 0)
(3 -3.93982e-16 0)
(3 3.47851e-16 0)
(3 1.07577e-15 0)
(3 2.01775e-15 0)
(3 1.51208e-15 0)
(3 6.63406e-16 0)
(3 1.44346e-15 0)
(3 2.22429e-15 0)
(3 1.71416e-15 0)
(3 4.86191e-16 0)
(3 4.88122e-16 0)
(3 5.12121e-16 0)
(3 -1.64809e-16 0)
(3 -1.28674e-15 0)
(3 -2.88544e-15 0)
(3 -3.85002e-15 0)
(3 -4.91259e-15 0)
(3 -3.13618e-15 0)
(3 -1.53691e-15 0)
(3 -2.06143e-15 0)
(3 -2.28802e-15 0)
(3 -2.44843e-15 0)
(3 -1.99913e-15 0)
(3 4.63887e-17 0)
(3 9.14645e-16 0)
(3 3.83466e-16 0)
(3 -9.02044e-17 0)
(3 1.04953e-16 0)
(3 -1.56189e-16 0)
(3 -8.35167e-16 0)
(3 -9.13564e-16 0)
(3 -8.15347e-16 0)
(3 -5.78609e-16 0)
(3 -9.33964e-16 0)
(3 -7.4376e-16 0)
(3 -6.07811e-17 0)
(3 -1.61206e-16 0)
(3 -8.66659e-17 0)
(3 -6.29872e-16 0)
(3 -5.09673e-16 0)
(3 -5.66103e-16 0)
(3 -7.98316e-16 0)
(2.85223 0.0213465 0)
(0.962216 0.0622257 0)
(0.703765 0.0482603 0)
(0.698131 0.0350112 0)
(0.6963 0.0312306 0)
(0.696406 0.0315616 0)
(0.694945 0.0334979 0)
(0.690542 0.0345827 0)
(0.68243 0.0352351 0)
(0.669991 0.0362252 0)
(0.657335 0.0394329 0)
(0.645515 0.0446652 0)
(0.634506 0.0510008 0)
(0.623324 0.0565945 0)
(0.611424 0.0608746 0)
(0.598962 0.0611487 0)
(0.587729 0.0573954 0)
(0.579078 0.0507812 0)
(0.569884 0.0446224 0)
(0.565221 0.0378765 0)
(0.55989 0.035061 0)
(0.553993 0.0356175 0)
(0.548023 0.0400671 0)
(0.538072 0.0467215 0)
(0.52545 0.0534712 0)
(0.511737 0.0564293 0)
(0.499225 0.0541288 0)
(0.489266 0.0491315 0)
(0.48022 0.0440292 0)
(0.470286 0.0423461 0)
(0.460487 0.0448405 0)
(0.44915 0.0494389 0)
(0.436731 0.0524345 0)
(0.425281 0.0517259 0)
(0.415631 0.0499461 0)
(0.407717 0.0492689 0)
(0.400272 0.0496546 0)
(0.394697 0.0501188 0)
(0.388762 0.0503486 0)
(0.381645 0.050702 0)
(0.373742 0.0510565 0)
(0.363891 0.0514598 0)
(0.35183 0.051778 0)
(0.33852 0.0518441 0)
(0.325195 0.0517052 0)
(0.312543 0.0523944 0)
(0.300647 0.0529479 0)
(0.289374 0.0534529 0)
(0.278247 0.0541209 0)
(0.267306 0.0546838 0)
(0.256172 0.0548573 0)
(0.24519 0.0548625 0)
(0.235031 0.0546731 0)
(0.225548 0.054343 0)
(0.217042 0.0542151 0)
(0.20888 0.0544676 0)
(0.200402 0.0550456 0)
(0.191419 0.0558512 0)
(0.182158 0.0565647 0)
(0.172777 0.0568284 0)
(0.164159 0.0569396 0)
(0.155542 0.0571276 0)
(0.146187 0.0572906 0)
(0.13571 0.0575085 0)
(0.124946 0.0578653 0)
(0.114204 0.0583733 0)
(0.103638 0.0589644 0)
(0.093564 0.0595759 0)
(0.0830879 0.0607068 0)
(0.0717232 0.0624206 0)
(0.0593934 0.0645286 0)
(0.0463947 0.0669491 0)
(0.0330764 0.0696933 0)
(0.0196326 0.0712994 0)
(0.00678082 0.0729988 0)
(3 -7.52068e-17 0)
(3 -3.69227e-16 0)
(3 -1.75822e-16 0)
(3 -2.16687e-16 0)
(3 -3.31216e-16 0)
(3 2.45938e-16 0)
(3 7.69711e-16 0)
(3 1.24076e-15 0)
(3 1.54199e-15 0)
(3 1.15343e-15 0)
(3 1.61481e-15 0)
(3 1.43127e-15 0)
(3 6.36146e-16 0)
(3 -5.66569e-17 0)
(3 8.46036e-17 0)
(3 -2.80982e-16 0)
(3 -8.41007e-16 0)
(3 -1.24414e-15 0)
(3 -1.53626e-15 0)
(3 -1.18095e-15 0)
(3 -8.19003e-16 0)
(3 -6.78656e-16 0)
(3 4.7103e-16 0)
(3 1.42675e-15 0)
(3 6.92032e-16 0)
(3 2.74426e-16 0)
(3 -1.14538e-15 0)
(3 -5.17739e-16 0)
(3 3.52284e-17 0)
(3 -2.45691e-16 0)
(3 -1.21854e-15 0)
(3 -1.69541e-15 0)
(3 -1.65582e-15 0)
(3 -8.74171e-16 0)
(3 1.66795e-16 0)
(3 1.54146e-16 0)
(3 3.75319e-16 0)
(3 5.96303e-16 0)
(3 -3.46084e-17 0)
(3 4.54125e-17 0)
(3 6.58545e-16 0)
(3 1.99875e-15 0)
(3 1.98388e-15 0)
(3 1.38232e-15 0)
(3 8.90593e-16 0)
(3 3.8912e-16 0)
(3 1.40021e-16 0)
(3 9.63568e-16 0)
(3 1.38838e-15 0)
(3 1.23166e-15 0)
(3 5.51162e-16 0)
(3 1.046e-15 0)
(3 5.71341e-16 0)
(3 1.12222e-16 0)
(3 -2.94308e-16 0)
(3 7.91321e-16 0)
(3 2.4115e-15 0)
(3 3.16108e-15 0)
(3 2.58818e-15 0)
(3 5.80425e-16 0)
(3 -8.57316e-17 0)
(3 -9.00944e-16 0)
(3 -4.65487e-16 0)
(3 -4.93027e-16 0)
(3 -6.17279e-16 0)
(3 -1.14271e-15 0)
(3 -2.44897e-15 0)
(3 -4.37221e-15 0)
(3 -3.79816e-15 0)
(3 -1.4488e-15 0)
(3 -1.86374e-15 0)
(3 -1.83187e-15 0)
(3 -1.75075e-15 0)
(3 -2.13378e-15 0)
(3 -1.0937e-15 0)
(3 -4.49088e-16 0)
(3 -2.57842e-16 0)
(3 -3.90129e-17 0)
(3 -1.21558e-15 0)
(3 -1.17445e-15 0)
(3 -1.55672e-15 0)
(3 -1.79042e-15 0)
(3 -8.87265e-16 0)
(3 -2.63883e-16 0)
(3 -3.30946e-16 0)
(3 -1.6645e-16 0)
(3 -5.41493e-16 0)
(3 -8.21033e-16 0)
(3 -5.50339e-16 0)
(3 2.8978e-16 0)
(3 -2.72647e-16 0)
(3 -5.78119e-16 0)
(3 -1.74275e-15 0)
(2.88291 0.024538 0)
(0.979055 0.071561 0)
(0.704456 0.0509542 0)
(0.701979 0.0405869 0)
(0.701202 0.0377829 0)
(0.700843 0.0390448 0)
(0.698583 0.0419699 0)
(0.692726 0.0430801 0)
(0.683819 0.0432168 0)
(0.67074 0.0439783 0)
(0.657801 0.0474232 0)
(0.645549 0.0533422 0)
(0.634145 0.0607752 0)
(0.622677 0.0674046 0)
(0.61055 0.0715761 0)
(0.598304 0.0707754 0)
(0.587775 0.0657671 0)
(0.579535 0.0582819 0)
(0.570416 0.0516219 0)
(0.566052 0.0447992 0)
(0.560665 0.0424975 0)
(0.554789 0.0436402 0)
(0.54872 0.0487478 0)
(0.538609 0.056052 0)
(0.526088 0.0630669 0)
(0.51235 0.0656311 0)
(0.499938 0.0628905 0)
(0.490067 0.0576215 0)
(0.481088 0.0524457 0)
(0.471223 0.0508571 0)
(0.46152 0.053625 0)
(0.45029 0.0585494 0)
(0.437853 0.0616659 0)
(0.426312 0.0607848 0)
(0.416533 0.0588348 0)
(0.408461 0.0581702 0)
(0.400926 0.0586738 0)
(0.395288 0.0592131 0)
(0.389351 0.059491 0)
(0.382283 0.0599318 0)
(0.374412 0.0603863 0)
(0.364518 0.0609045 0)
(0.352318 0.0614062 0)
(0.338792 0.0616263 0)
(0.325319 0.0615779 0)
(0.312675 0.0623756 0)
(0.300917 0.0629065 0)
(0.289815 0.0633045 0)
(0.278695 0.0638998 0)
(0.267593 0.0644263 0)
(0.256182 0.0646318 0)
(0.244983 0.0647733 0)
(0.23478 0.064796 0)
(0.225442 0.0646427 0)
(0.21717 0.0645525 0)
(0.209189 0.0647503 0)
(0.200684 0.0652601 0)
(0.191478 0.0660664 0)
(0.181825 0.0668498 0)
(0.17214 0.0673315 0)
(0.163205 0.0675687 0)
(0.154401 0.0676327 0)
(0.145081 0.0676409 0)
(0.13472 0.0678176 0)
(0.124131 0.0682108 0)
(0.113466 0.0690346 0)
(0.102899 0.0700102 0)
(0.0927327 0.0707835 0)
(0.0821602 0.0718609 0)
(0.0707381 0.0734739 0)
(0.058451 0.075621 0)
(0.0455913 0.078291 0)
(0.0324943 0.0815784 0)
(0.0192689 0.0836467 0)
(0.00668457 0.085862 0)
(3 1.62366e-16 0)
(3 4.49229e-16 0)
(3 9.34758e-16 0)
(3 5.52994e-16 0)
(3 8.33095e-16 0)
(3 5.66927e-16 0)
(3 1.96397e-16 0)
(3 -9.88508e-17 0)
(3 9.19208e-17 0)
(3 1.11175e-16 0)
(3 -3.81157e-16 0)
(3 -8.65772e-16 0)
(3 -1.10131e-15 0)
(3 -1.19764e-15 0)
(3 -8.86479e-16 0)
(3 -6.08668e-16 0)
(3 -4.88955e-16 0)
(3 -1.29581e-15 0)
(3 -1.8191e-15 0)
(3 -1.58577e-15 0)
(3 -1.47297e-15 0)
(3 -1.9569e-15 0)
(3 -1.06398e-15 0)
(3 -3.90569e-16 0)
(3 -5.8064e-17 0)
(3 -5.79395e-16 0)
(3 -1.42483e-15 0)
(3 -1.73637e-15 0)
(3 -1.46121e-15 0)
(3 -1.16054e-15 0)
(3 -9.08554e-16 0)
(3 -7.14727e-16 0)
(3 -8.08176e-16 0)
(3 -3.62373e-16 0)
(3 3.45778e-16 0)
(3 8.18577e-16 0)
(3 8.26772e-16 0)
(3 6.17382e-16 0)
(3 7.61266e-16 0)
(3 5.48479e-16 0)
(3 2.21766e-16 0)
(3 2.59544e-16 0)
(3 7.76595e-16 0)
(3 8.59355e-16 0)
(3 5.52357e-16 0)
(3 8.39809e-16 0)
(3 9.95374e-16 0)
(3 1.95668e-16 0)
(3 -3.39656e-16 0)
(3 9.86998e-17 0)
(3 4.43866e-16 0)
(3 6.22741e-16 0)
(3 2.06271e-16 0)
(3 -3.94958e-16 0)
(3 -5.6934e-16 0)
(3 5.79113e-16 0)
(3 1.89255e-15 0)
(3 9.53758e-16 0)
(3 -5.78601e-16 0)
(3 -1.19117e-15 0)
(3 -4.90458e-16 0)
(3 -6.92532e-16 0)
(3 -1.46447e-15 0)
(3 -1.0878e-15 0)
(3 -8.04416e-16 0)
(3 -3.93608e-16 0)
(3 -2.04802e-15 0)
(3 -2.89298e-15 0)
(3 -2.9321e-15 0)
(3 -3.09199e-15 0)
(3 -2.71214e-15 0)
(3 -2.54844e-15 0)
(3 -2.18852e-15 0)
(3 -1.65692e-15 0)
(3 -1.53889e-15 0)
(3 -1.26093e-15 0)
(3 -7.8415e-16 0)
(3 -2.94255e-16 0)
(3 -5.65369e-16 0)
(3 -2.19396e-15 0)
(3 -2.21747e-15 0)
(3 -1.88308e-15 0)
(3 -1.28033e-15 0)
(3 -9.42794e-16 0)
(3 1.99041e-16 0)
(3 -2.56927e-16 0)
(3 -9.67292e-16 0)
(3 -9.69635e-16 0)
(3 -4.41339e-16 0)
(3 7.16494e-17 0)
(3 1.77573e-18 0)
(3 4.22685e-16 0)
(3 -2.86701e-16 0)
(2.9157 0.0264017 0)
(0.999986 0.076443 0)
(0.708626 0.05344 0)
(0.707422 0.0465429 0)
(0.706936 0.0458061 0)
(0.704937 0.0479256 0)
(0.700833 0.0504432 0)
(0.69391 0.0510182 0)
(0.684498 0.0508996 0)
(0.671309 0.0519363 0)
(0.658206 0.0559407 0)
(0.645389 0.0626415 0)
(0.633535 0.0711154 0)
(0.621782 0.0784779 0)
(0.609455 0.0819968 0)
(0.597506 0.0798854 0)
(0.587712 0.0736585 0)
(0.579988 0.0653655 0)
(0.571051 0.0583049 0)
(0.567093 0.0516233 0)
(0.561759 0.0500565 0)
(0.555988 0.0518278 0)
(0.54978 0.0575791 0)
(0.539466 0.0654428 0)
(0.526875 0.0725122 0)
(0.512962 0.0746111 0)
(0.50055 0.071478 0)
(0.490707 0.0660062 0)
(0.481809 0.0608868 0)
(0.472063 0.0594694 0)
(0.462458 0.0624999 0)
(0.451308 0.0677014 0)
(0.438806 0.0709514 0)
(0.427106 0.0699646 0)
(0.417186 0.0678641 0)
(0.408993 0.0671852 0)
(0.401426 0.0677749 0)
(0.395813 0.0683737 0)
(0.389982 0.0686621 0)
(0.383073 0.0691641 0)
(0.375343 0.0697208 0)
(0.36547 0.0703215 0)
(0.353193 0.0709664 0)
(0.339486 0.0713618 0)
(0.325872 0.0714575 0)
(0.313194 0.0724176 0)
(0.301504 0.0730032 0)
(0.290519 0.0732888 0)
(0.279402 0.0737241 0)
(0.268215 0.07415 0)
(0.256653 0.0743302 0)
(0.24535 0.0745902 0)
(0.235135 0.0748421 0)
(0.225886 0.0749689 0)
(0.217682 0.0750861 0)
(0.209725 0.0753465 0)
(0.201178 0.0757721 0)
(0.191839 0.0764914 0)
(0.181844 0.0772506 0)
(0.171837 0.0778329 0)
(0.162474 0.078131 0)
(0.153326 0.0781517 0)
(0.14393 0.0781244 0)
(0.133845 0.0783711 0)
(0.12359 0.0788123 0)
(0.113118 0.0798363 0)
(0.102526 0.081054 0)
(0.0920417 0.0819112 0)
(0.0811834 0.0829068 0)
(0.0696605 0.0844357 0)
(0.0574983 0.086637 0)
(0.0449063 0.0895381 0)
(0.0321117 0.0933259 0)
(0.0191347 0.0958252 0)
(0.0066632 0.0984316 0)
(3 1.88179e-16 0)
(3 3.70975e-16 0)
(3 4.67011e-16 0)
(3 2.63353e-16 0)
(3 -9.56969e-17 0)
(3 -3.6824e-16 0)
(3 -1.1888e-15 0)
(3 -1.64697e-15 0)
(3 -1.51258e-15 0)
(3 -1.45089e-15 0)
(3 -1.80241e-15 0)
(3 -1.07747e-15 0)
(3 -4.69312e-16 0)
(3 -7.03289e-16 0)
(3 -1.48038e-15 0)
(3 -2.20959e-15 0)
(3 -1.83706e-15 0)
(3 -1.34795e-15 0)
(3 -1.55304e-15 0)
(3 -1.74197e-15 0)
(3 -1.58705e-15 0)
(3 -1.74885e-15 0)
(3 -1.74755e-15 0)
(3 -1.68301e-15 0)
(3 -1.58824e-15 0)
(3 -1.10521e-15 0)
(3 -9.31993e-16 0)
(3 -1.68327e-15 0)
(3 -2.15894e-15 0)
(3 -2.10059e-15 0)
(3 -1.88397e-15 0)
(3 -1.24396e-15 0)
(3 -7.2348e-16 0)
(3 -4.23128e-16 0)
(3 -4.31806e-16 0)
(3 -1.43203e-16 0)
(3 3.18052e-17 0)
(3 3.57106e-16 0)
(3 1.46153e-15 0)
(3 1.62831e-15 0)
(3 3.53677e-16 0)
(3 -8.77867e-16 0)
(3 -2.18304e-16 0)
(3 2.747e-16 0)
(3 -1.75931e-16 0)
(3 -4.43086e-17 0)
(3 5.62398e-16 0)
(3 4.77894e-16 0)
(3 -2.31178e-17 0)
(3 -4.22658e-16 0)
(3 -1.07756e-16 0)
(3 -4.78834e-16 0)
(3 -5.04595e-16 0)
(3 -2.44026e-16 0)
(3 5.62905e-16 0)
(3 9.4297e-16 0)
(3 7.65865e-16 0)
(3 -7.39502e-16 0)
(3 -2.47556e-15 0)
(3 -2.09182e-15 0)
(3 -1.51792e-15 0)
(3 -1.31703e-15 0)
(3 -1.79643e-15 0)
(3 -1.53014e-15 0)
(3 -1.24425e-15 0)
(3 -7.09372e-16 0)
(3 -4.54463e-16 0)
(3 7.68874e-16 0)
(3 -1.71244e-15 0)
(3 -2.64355e-15 0)
(3 -2.84839e-15 0)
(3 -2.81991e-15 0)
(3 -2.8281e-15 0)
(3 -1.39499e-15 0)
(3 -1.25022e-15 0)
(3 -8.87934e-16 0)
(3 -4.16187e-16 0)
(3 -1.32922e-15 0)
(3 -8.38138e-16 0)
(3 -8.18571e-16 0)
(3 -8.44829e-16 0)
(3 -1.25616e-15 0)
(3 -9.40198e-16 0)
(3 -4.41463e-16 0)
(3 4.79285e-16 0)
(3 3.48233e-16 0)
(3 -6.68545e-16 0)
(3 -7.95468e-16 0)
(3 -4.83185e-16 0)
(3 2.9198e-16 0)
(3 7.77036e-16 0)
(3 1.11105e-15 0)