/*--------------------------------*- C++ -*----------------------------------*\
  =========                 |
  \\      /  F ield         | OpenFOAM: The Open Source CFD Toolbox
   \\    /   O peration     | Website:  https://openfoam.org
    \\  /    A nd           | Version:  7
     \\/     M anipulation  |
\*---------------------------------------------------------------------------*/
FoamFile
{
    version     2.0;
    format      ascii;
    class       volVectorField;
    location    "17";
    object      U;
}
// * * * * * * * * * * * * * * * * * * * * * * * * * * * * * * * * * * * * * //

dimensions      [0 1 -1 0 0 0 0];

internalField   nonuniform List<vector> 
433
(
(-0.189235 1.04657 2.35666e-17)
(2.45039 -1.39561 2.30503e-17)
(4.09907 -4.1043 2.50969e-17)
(0.9722 0.267776 -1.24094e-17)
(1.11502 1.79756 -9.17668e-18)
(0.347937 3.86635 6.00309e-17)
(0.0664144 4.93275 -5.02986e-17)
(0.268673 4.85211 2.52856e-17)
(0.529805 4.34484 2.42184e-17)
(0.519919 3.708 -9.16448e-17)
(0.171563 3.13128 2.87758e-17)
(2.82477 -2.11536 -1.26887e-17)
(4.48847 -3.1709 -1.56444e-17)
(3.40633 -1.76352 1.3545e-17)
(2.39807 0.353019 1.66583e-17)
(1.74556 2.55263 -2.25315e-17)
(0.527774 4.85584 -2.2687e-18)
(-1.25878 6.82308 2.88035e-18)
(-3.18021 7.98556 1.61845e-18)
(-4.72779 8.13529 4.69871e-18)
(-5.53355 7.38894 -5.87486e-18)
(-5.48233 6.05434 1.30359e-18)
(-4.73757 4.49428 -1.92713e-18)
(-3.63574 3.02266 7.87692e-18)
(0.949578 -1.4612 1.91863e-17)
(3.18201 -4.1468 -4.70026e-17)
(5.65874 -6.71332 7.26604e-17)
(7.40894 -8.06094 1.5556e-18)
(7.2396 -7.31982 -1.55743e-17)
(4.6557 -4.88989 -1.34971e-17)
(0.648862 -1.61358 2.53808e-17)
(-3.22384 1.37076 -4.57853e-17)
(-5.74381 3.26026 1.18807e-17)
(-6.50829 3.90398 -1.08374e-17)
(-5.86921 3.62991 -1.29863e-17)
(-4.50099 2.88962 6.08073e-18)
(-3.00446 2.03065 -7.67636e-18)
(-1.73769 1.25764 7.05682e-18)
(-0.833106 0.662776 -4.46988e-18)
(-0.277067 0.262603 2.23734e-17)
(0.0137639 0.0278746 -7.59274e-18)
(-1.48717 0.619309 8.82219e-18)
(-0.205913 -0.818102 -2.10125e-17)
(3.95218 -4.29374 1.42444e-18)
(6.80794 -7.43498 -5.18117e-19)
(6.70773 -8.72197 1.3149e-17)
(4.36275 -8.27782 -3.47833e-18)
(1.02394 -6.49865 -3.47732e-18)
(-1.92286 -4.19753 -2.62227e-19)
(-3.59485 -2.15487 -3.17095e-18)
(-3.89109 -0.7493 6.53652e-18)
(-3.26486 0.0248713 -4.91312e-20)
(-2.26854 0.338107 9.87672e-19)
(-1.28682 0.375167 1.16898e-18)
(-0.510095 0.279388 1.94009e-18)
(0.00738275 0.149479 -7.1042e-19)
(0.289581 0.040475 -1.44103e-18)
(0.397621 -0.0295702 -9.56735e-19)
(0.400626 -0.0639992 -1.19477e-18)
(0.355918 -0.0756839 2.62399e-18)
(0.300385 -0.0763553 -1.38907e-18)
(0.252994 -0.0733629 1.09603e-18)
(-0.429043 1.03678 2.58842e-17)
(0.314618 1.62825 -4.50531e-17)
(2.11099 1.16807 5.69422e-17)
(3.43882 -0.0583799 -1.16688e-17)
(3.80563 -1.42129 -6.13208e-18)
(3.40937 -2.33957 -2.86235e-17)
(2.39673 -2.57427 2.94754e-17)
(1.1244 -2.18843 2.84537e-17)
(-0.0202433 -1.47689 -2.7403e-17)
(-0.819126 -0.761436 2.14014e-17)
(-1.236 -0.238725 -5.11339e-17)
(-1.31929 0.0364441 1.41146e-17)
(-1.15331 0.112619 5.70722e-18)
(-0.852434 0.0816335 2.68873e-18)
(-0.532638 0.0214272 1.29568e-17)
(-0.269416 -0.0243146 -9.74994e-18)
(-0.0880057 -0.0440813 2.34132e-18)
(0.0211847 -0.0447455 7.89436e-18)
(0.0812408 -0.0379915 -2.0725e-18)
(0.11405 -0.0322349 -3.43896e-18)
(0.134668 -0.0309751 -4.46444e-19)
(0.151684 -0.0342749 -1.68074e-18)
(0.169352 -0.0399361 1.03997e-18)
(0.189217 -0.0457503 -1.30557e-19)
(2.05059 -0.385024 1.08599e-17)
(2.37108 0.584127 -4.42736e-17)
(0.378249 2.84569 3.09466e-17)
(-1.02273 4.69355 -1.03304e-17)
(-1.48176 5.66251 2.52132e-17)
(-1.81483 6.1906 -3.09192e-17)
(-2.35558 6.32461 2.1468e-17)
(-3.09958 6.08092 -3.36961e-18)
(-3.87251 5.50103 -2.72454e-17)
(-4.42102 4.65798 1.9005e-17)
(-4.51095 3.65898 -2.02093e-19)
(-4.06746 2.63478 -5.78637e-18)
(-3.24243 1.71676 -1.07845e-17)
(-2.30901 0.997718 8.18621e-18)
(-1.49236 0.504848 -3.483e-18)
(-0.890738 0.208311 -2.63882e-19)
(-0.496946 0.0519173 5.60218e-19)
(-0.256491 -0.0191695 -1.95433e-18)
(-0.111429 -0.0458952 1.534e-18)
(-0.0190135 -0.0535777 5.88249e-19)
(0.0459972 -0.055615 -8.72579e-19)
(0.0968081 -0.0571248 -2.83143e-19)
(0.140092 -0.0588072 -1.30285e-19)
(2.9952 -1.8292 -1.80712e-17)
(5.60522 -3.53878 1.7835e-17)
(5.73126 -3.65547 -1.9456e-17)
(5.28752 -2.68454 -9.16415e-18)
(4.26685 -0.87663 5.24571e-18)
(1.85792 1.34201 -9.93943e-18)
(-1.47529 3.4019 2.16604e-17)
(-4.72285 4.75858 -2.37097e-17)
(-6.94703 5.17519 2.65881e-17)
(-7.67757 4.77581 1.45255e-17)
(-7.04606 3.88356 9.4829e-18)
(-5.59448 2.83322 -3.98706e-18)
(-3.92698 1.86531 -1.00136e-17)
(-2.46475 1.0974 -6.06316e-18)
(-1.3869 0.554122 5.21104e-18)
(-0.691318 0.210272 -3.3403e-18)
(-0.289595 0.0159236 -1.16846e-18)
(-0.077447 -0.0807106 2.55139e-18)
(0.0296054 -0.12058 -1.9888e-18)
(0.0870802 -0.130358 -9.47283e-20)
(0.125432 -0.125495 -6.89849e-21)
(0.158073 -0.115074 -4.61005e-19)
(-0.0361614 -0.663933 8.21947e-18)
(2.35818 -2.7066 1.25307e-17)
(6.4456 -5.33632 -4.56715e-18)
(9.106 -7.07142 -6.98292e-17)
(8.53015 -6.94041 5.4266e-17)
(5.0287 -5.45589 -2.29244e-17)
(0.285319 -3.26957 2.14889e-17)
(-3.70973 -1.21995 1.69559e-17)
(-5.78182 0.172091 -3.21594e-17)
(-5.93093 0.857042 -8.2443e-19)
(-4.88 1.03993 4.73058e-19)
(-3.4139 0.937984 1.32854e-17)
(-2.03468 0.703762 -2.02605e-17)
(-0.962246 0.437366 1.3544e-17)
(-0.243633 0.203711 -1.30359e-18)
(0.165991 0.034294 1.43241e-18)
(0.351112 -0.0687142 -5.67138e-18)
(0.400223 -0.119536 2.37769e-18)
(0.383998 -0.136642 8.5265e-19)
(0.348266 -0.135033 -2.02707e-19)
(0.317121 -0.124691 1.66184e-20)
(-1.44006 0.664954 3.24188e-18)
(0.134198 0.00628039 1.27577e-17)
(4.56528 -2.09654 3.89211e-19)
(7.5345 -4.37371 9.55195e-18)
(7.56156 -5.70861 -1.66989e-17)
(5.52881 -5.88529 -1.65113e-17)
(2.6172 -5.02308 -5.4805e-18)
(0.0382294 -3.59399 3.64373e-17)
(-1.51021 -2.13123 -3.26979e-17)
(-2.02075 -0.97456 2.08973e-17)
(-1.86531 -0.227862 -4.62367e-19)
(-1.40245 0.145761 3.21584e-18)
(-0.852608 0.251865 -3.62008e-20)
(-0.346112 0.215865 -1.23478e-17)
(0.0380883 0.13581 6.58273e-18)
(0.273349 0.0653624 -2.39532e-18)
(0.380284 0.0211961 -4.16332e-18)
(0.402679 -0.00061544 3.76069e-18)
(0.383917 -0.0100043 -6.71018e-19)
(0.354903 -0.0154114 -9.07292e-19)
(0.294863 0.804659 -4.05728e-18)
(0.411583 2.06522 1.98622e-17)
(0.49071 3.06238 -3.32762e-17)
(0.938647 3.12749 -2.15976e-17)
(1.43699 2.49657 1.93643e-17)
(1.54289 1.83798 8.72168e-18)
(1.07419 1.38494 -2.0372e-17)
(0.161858 1.1772 4.48533e-17)
(-0.932012 1.11062 -2.72465e-17)
(-1.93187 1.04367 1.47877e-17)
(-2.58302 0.890881 -1.468e-17)
(-2.71687 0.653276 -8.18567e-18)
(-2.3668 0.394722 1.14094e-17)
(-1.75104 0.181341 -1.47271e-17)
(-1.11683 0.0441521 1.80625e-17)
(-0.612554 -0.0213296 -1.56065e-17)
(-0.272214 -0.0380797 3.35565e-18)
(-0.0645788 -0.0308991 4.3623e-18)
(0.058153 -0.0179564 -1.30271e-18)
(3.19292 -0.68897 -2.05673e-18)
(4.56391 -0.592174 9.11284e-19)
(2.45077 0.818913 -1.0226e-18)
(0.301524 2.49987 -3.00712e-19)
(-1.15673 3.94084 -1.14126e-18)
(-2.79449 5.0406 8.40648e-19)
(-4.70007 5.59733 -3.92422e-20)
(-6.55297 5.51528 -5.2969e-19)
(-7.89967 4.87446 4.37014e-19)
(-8.34366 3.89681 -1.00189e-18)
(-7.73367 2.827 -9.98699e-19)
(-6.30194 1.85779 3.94047e-18)
(-4.54106 1.0977 -3.39572e-18)
(-2.92007 0.570541 4.14788e-20)
(-1.69063 0.2445 1.52173e-18)
(-0.882523 0.0651203 -9.77726e-19)
(-0.404282 -0.0205939 3.01277e-19)
(-0.138047 -0.0531732 -2.55249e-19)
(2.41368 -1.22433 1.89837e-17)
(5.73142 -2.90192 -3.40882e-17)
(7.82118 -3.94367 2.81961e-17)
(8.50001 -3.95243 -3.29397e-17)
(7.06075 -2.8386 3.32888e-17)
(3.31744 -1.31822 -2.75495e-17)
(-1.45038 0.107722 1.91856e-17)
(-5.47534 1.04095 1.02351e-17)
(-7.56479 1.38946 -3.29897e-17)
(-7.59733 1.34133 1.78986e-17)
(-6.26986 1.12261 9.0015e-18)
(-4.4513 0.859511 -4.8765e-18)
(-2.74845 0.596606 2.62695e-19)
(-1.43553 0.359788 4.55026e-18)
(-0.559045 0.170442 -6.98028e-18)
(-0.0500145 0.0380104 1.84033e-18)
(0.201488 -0.0411816 5.68409e-19)
(0.300898 -0.0793052 2.37801e-19)
(-0.969403 -0.233587 -2.71805e-18)
(1.38809 -1.47663 -2.80614e-17)
(6.53111 -3.36428 2.20144e-17)
(9.70205 -4.93438 -4.51066e-18)
(8.91037 -5.38483 2.39676e-18)
(5.29099 -4.90083 -1.04183e-17)
(0.852979 -3.73455 2.02654e-18)
(-2.48914 -2.35133 1.89201e-19)
(-3.93236 -1.12627 -9.32186e-19)
(-3.82365 -0.230146 -1.09096e-18)
(-2.9499 0.312681 1.12608e-19)
(-1.90035 0.548397 -3.35495e-18)
(-0.9531 0.561349 -1.02447e-18)
(-0.21627 0.45026 7.8087e-19)
(0.276313 0.304477 -4.51772e-19)
(0.541217 0.179862 1.14104e-19)
(0.63233 0.0943815 1.6609e-19)
(-0.955627 0.693565 2.49659e-18)
(0.462462 1.02171 3.371e-18)
(3.97077 0.577258 1.6581e-19)
(6.60361 -0.585075 -5.68404e-19)
(7.23071 -1.77497 1.02734e-19)
(6.19995 -2.39998 2.73382e-18)
(4.15526 -2.30826 -7.13813e-18)
(1.93774 -1.6805 2.10771e-17)
(0.13436 -0.865829 -1.70086e-17)
(-1.08104 -0.171996 9.77454e-18)
(-1.73187 0.241129 -1.05907e-17)
(-1.85751 0.368209 7.19407e-18)
(-1.55483 0.316229 -2.72328e-18)
(-1.02477 0.210092 2.79179e-18)
(-0.488494 0.119284 -1.45592e-18)
(-0.0823547 0.0640578 -6.60254e-20)
(0.162822 0.0403353 2.70545e-18)
(1.34306 0.597872 -7.72431e-18)
(1.03959 1.80121 -2.252e-18)
(-0.935617 3.15019 1.20904e-17)
(-2.03615 3.90437 -1.9845e-17)
(-2.08926 3.97579 7.56408e-18)
(-2.07343 3.73788 7.64006e-18)
(-2.42696 3.29862 -7.37442e-18)
(-3.20304 2.74193 -5.58701e-19)
(-4.21571 2.11786 5.17647e-19)
(-5.1075 1.47876 1.85451e-18)
(-5.46396 0.906871 3.46563e-19)
(-5.06755 0.473467 2.12655e-20)
(-4.06547 0.199753 -2.46619e-18)
(-2.84158 0.0582378 1.41815e-18)
(-1.74573 0.000960317 -4.23506e-19)
(-0.941825 -0.0134886 -9.95349e-19)
(-0.427616 -0.00984413 5.91549e-19)
(3.77163 -0.508267 2.55731e-18)
(6.41782 -0.880055 -5.83299e-19)
(5.32426 -0.534054 2.84644e-19)
(3.31249 0.36995 -8.26736e-19)
(1.15926 1.49808 5.57362e-18)
(-1.66384 2.24066 -1.71975e-18)
(-4.77254 2.36444 -4.48703e-18)
(-7.42158 1.91292 2.82286e-18)
(-8.92381 1.16403 9.62745e-19)
(-8.96417 0.453243 -1.69939e-18)
(-7.75803 -0.0182331 1.17197e-18)
(-5.89109 -0.230048 8.73414e-19)
(-3.97254 -0.268223 2.04804e-19)
(-2.39153 -0.232396 -1.52024e-18)
(-1.27631 -0.184104 -4.4706e-19)
(-0.57833 -0.145734 8.83644e-19)
(-0.178297 -0.118141 -1.08498e-19)
(1.26712 -0.701004 1.61279e-18)
(4.69076 -1.78175 -6.16861e-18)
(8.444 -2.6329 1.73323e-18)
(9.9769 -2.91759 -7.08137e-20)
(8.01372 -2.51448 2.36126e-18)
(3.52022 -2.0256 -1.5904e-18)
(-1.3217 -1.58102 3.41304e-18)
(-4.54759 -1.20538 -3.5011e-18)
(-5.55468 -0.831243 3.28591e-18)
(-4.95529 -0.433438 -2.72361e-18)
(-3.67849 -0.082003 1.70795e-18)
(-2.34785 0.146669 -2.83208e-19)
(-1.23023 0.236285 -1.27587e-18)
(-0.403621 0.2251 4.7673e-19)
(0.134157 0.168526 -6.62509e-19)
(0.429981 0.108675 7.76153e-19)
(-1.2652 -0.0739294 6.09919e-20)
(1.17331 -0.392688 -9.33393e-20)
(6.63358 -0.91791 -2.57103e-20)
(9.90842 -1.74548 2.30512e-19)
(9.20565 -2.34479 1.33954e-19)
(6.00542 -2.42566 -1.90745e-19)
(2.26083 -1.90934 6.9612e-19)
(-0.51782 -1.01443 -6.64771e-19)
(-1.93009 -0.0804607 7.33085e-19)
(-2.3566 0.617429 -7.83532e-19)
(-2.24072 0.961625 7.24453e-19)
(-1.79779 0.991317 2.30329e-19)
(-1.15832 0.840125 -4.37209e-19)
(-0.485529 0.642226 2.04711e-19)
(0.0666308 0.474098 -3.7405e-19)
(0.422307 0.358053 4.73798e-19)
(-0.171686 0.791593 5.11461e-18)
(0.797904 1.85616 -1.14136e-18)
(2.71382 2.56376 4.88801e-19)
(4.50959 2.38695 -2.81523e-18)
(5.33691 1.66576 1.10564e-17)
(4.89839 1.03376 -1.10304e-17)
(3.42244 0.669651 -1.69482e-18)
(1.4154 0.527081 5.52774e-18)
(-0.66281 0.43944 2.04585e-18)
(-2.43226 0.279548 -3.09138e-18)
(-3.52622 0.0567204 1.33792e-18)
(-3.72627 -0.123797 3.30323e-19)
(-3.15717 -0.182108 5.58009e-20)
(-2.20805 -0.128976 -2.47585e-18)
(-1.26891 -0.0254219 -5.65556e-19)
(-0.555321 0.0754293 1.25538e-18)
(-0.105112 0.149597 -1.24245e-19)
(2.65927 0.642589 3.07155e-18)
(3.26419 1.37869 6.26195e-19)
(0.594994 1.97448 -4.75459e-18)
(-1.75691 2.35527 8.71626e-18)
(-2.9343 2.48999 -3.1859e-18)
(-3.92131 2.27543 -3.26664e-18)
(-5.09965 1.68089 3.15341e-18)
(-6.45176 0.810509 1.3062e-19)
(-7.66496 -0.127307 -2.11871e-18)
(-8.26057 -0.865028 1.39495e-18)
(-7.87939 -1.21327 7.61474e-19)
(-6.58266 -1.16324 4.10267e-19)
(-4.82561 -0.865906 4.44709e-20)
(-3.13296 -0.509842 8.39912e-19)
(-1.81712 -0.217678 -3.49034e-19)
(-0.937156 -0.0263183 -1.72325e-20)
(-0.406988 0.079684 -1.69625e-19)
(3.37309 -0.0994231 2.52436e-18)
(6.66405 -0.358913 5.05658e-18)
(7.08803 -0.592916 -1.41813e-19)
(5.89554 -0.49517 1.0805e-18)
(3.54501 -0.17354 -2.16287e-18)
(0.207823 -0.345549 1.32564e-18)
(-3.19799 -0.966696 -5.81735e-18)
(-5.62906 -1.69313 1.8802e-17)
(-6.51283 -2.12888 -1.86055e-17)
(-5.99427 -2.09276 1.05706e-17)
(-4.67833 -1.69149 -1.34133e-17)
(-3.18223 -1.15281 7.15315e-18)
(-1.88658 -0.662397 -2.00677e-18)
(-0.935394 -0.308178 2.17618e-18)
(-0.32269 -0.0958845 -1.62475e-18)
(0.0275109 0.0126543 2.06014e-19)
(0.206894 0.0613999 2.87924e-18)
(0.106908 -0.518929 3.69211e-18)
(3.10471 -0.84779 4.14675e-17)
(7.60761 -0.781404 -3.42624e-17)
(9.44463 -0.793756 4.76369e-18)
(7.35493 -0.885651 -2.99913e-18)
(3.27496 -1.09339 1.64175e-17)
(-0.504205 -1.10362 -3.25144e-18)
(-2.62984 -0.775627 -1.36939e-19)
(-3.15343 -0.2217 -5.98564e-19)
(-2.7909 0.313569 1.58051e-19)
(-2.11899 0.654369 -2.01311e-18)
(-1.38041 0.76311 6.26716e-18)
(-0.67221 0.706717 2.45393e-18)
(-0.0752388 0.582421 -3.02214e-18)
(0.347689 0.458807 2.15184e-18)
(0.584312 0.364278 -9.16745e-19)
(0.671802 0.301981 -1.11021e-18)
(-1.09919 0.0476246 8.39507e-18)
(1.27569 0.701576 -1.76494e-17)
(6.37932 1.59967 1.37663e-17)
(9.6294 1.69285 -1.74373e-17)
(9.45472 1.1782 1.73806e-17)
(6.98937 0.715763 -1.52843e-17)
(3.74658 0.596799 9.50353e-18)
(0.880377 0.769996 5.25646e-18)
(-1.20882 0.989077 -2.06771e-17)
(-2.52712 1.04306 2.25101e-17)
(-3.09064 0.899233 -1.64595e-17)
(-2.9298 0.669086 8.85199e-18)
(-2.23988 0.476376 5.20611e-20)
(-1.34509 0.366645 3.18916e-18)
(-0.538038 0.324509 -6.9642e-18)
(0.0291613 0.318142 1.02502e-18)
(0.345463 0.323406 1.55646e-18)
(0.479138 0.328474 3.18892e-19)
(0.569634 0.99574 1.81228e-17)
(0.992695 2.27589 -2.6845e-17)
(1.18317 3.13559 1.92623e-17)
(1.89192 3.28553 3.03571e-18)
(2.62752 2.85593 3.2996e-17)
(2.54102 2.22272 -1.42275e-17)
(1.51369 1.48366 -1.84103e-17)
(-0.195086 0.683961 6.85647e-18)
(-2.17574 -0.147029 -2.08345e-18)
(-3.91973 -0.89914 9.63115e-18)
(-4.92832 -1.38317 -1.60471e-17)
(-4.95765 -1.46996 2.2876e-17)
(-4.16739 -1.20579 -1.66121e-17)
(-2.98835 -0.77112 -1.2313e-18)
(-1.84134 -0.348418 1.08394e-17)
(-0.959571 -0.0355939 -4.97899e-18)
(3.36203 1.05058 3.27509e-19)
(4.8754 1.67159 8.31933e-19)
(2.4039 1.33785 -3.372e-18)
(-0.344982 0.873227 -1.69475e-18)
)
;

boundaryField
{
    inlet
    {
        type            uniformFixedValue;
        uniformValue    constant (1 0 0);
        value           nonuniform 0();
    }
    outlet
    {
        type            pressureInletOutletVelocity;
        value           nonuniform 0();
    }
    cylinder
    {
        type            fixedValue;
        value           uniform (0 0 0);
    }
    top
    {
        type            symmetryPlane;
    }
    bottom
    {
        type            symmetryPlane;
    }
    defaultFaces
    {
        type            empty;
    }
    procBoundary20to14
    {
        type            processor;
        value           uniform (-1.02364 1.34629 2.06953e-17);
    }
    procBoundary20to25
    {
        type            processor;
        value           nonuniform List<vector> 
20
(
(-0.384986 0.154832 3.07893e-18)
(-0.0511897 0.253458 -4.67453e-18)
(-2.11761 0.543096 -2.81223e-18)
(-3.65279 -0.0974529 -1.01245e-18)
(-5.19263 -1.09942 -4.66062e-18)
(-6.61011 -2.25842 1.14857e-17)
(-7.54397 -3.22222 -6.85221e-18)
(-7.63097 -3.65124 4.62767e-18)
(-6.79486 -3.42804 -4.1349e-18)
(-5.3357 -2.72154 -2.5315e-18)
(-3.73027 -1.84435 5.25364e-18)
(-2.35252 -1.06039 -9.1346e-18)
(-1.35033 -0.493017 9.43582e-18)
(-0.384986 0.154832 3.07893e-18)
(-0.698792 -0.143848 -7.57732e-18)
(2.45207 0.144067 1.03914e-17)
(5.6135 0.262627 4.23688e-17)
(7.12669 0.153962 1.42615e-18)
(-2.11761 0.543096 -2.81223e-18)
(6.83033 0.00478075 2.45051e-17)
)
;
    }
    procBoundary20to26
    {
        type            processor;
        value           nonuniform List<vector> 
28
(
(0.179305 -0.0603661 1.08043e-18)
(0.179305 -0.0603661 1.08043e-18)
(0.189936 -0.103923 -5.16121e-19)
(0.189936 -0.103923 -5.16121e-19)
(0.299591 -0.111832 6.19195e-20)
(0.299591 -0.111832 6.19195e-20)
(0.332407 -0.0210323 -7.28711e-21)
(0.332407 -0.0210323 -7.28711e-21)
(0.135027 -0.00926095 4.8764e-19)
(0.135027 -0.00926095 4.8764e-19)
(0.0112496 -0.0594287 -9.00368e-21)
(0.0112496 -0.0594287 -9.00368e-21)
(0.327707 -0.0909813 -1.57198e-19)
(0.619027 0.0438778 1.64886e-19)
(0.619027 0.0438778 1.64886e-19)
(0.28257 0.0358836 -2.80549e-19)
(-0.124677 7.86708e-05 -3.30048e-19)
(0.0412018 -0.0954347 1.70713e-19)
(0.554419 0.0649556 6.72692e-20)
(0.554419 0.0649556 6.72692e-20)
(0.59246 0.287403 3.96731e-20)
(0.59246 0.287403 3.96731e-20)
(0.141467 0.195208 2.17862e-19)
(-0.103523 0.131788 -3.2419e-21)
(0.293339 0.0837485 -4.29663e-20)
(0.669628 0.264933 -1.18396e-19)
(0.669628 0.264933 -1.18396e-19)
(0.514307 0.329412 -2.47258e-19)
)
;
    }
    procBoundary20to27
    {
        type            processor;
        value           nonuniform List<vector> 
29
(
(0.136447 -2.08368 -1.61277e-17)
(3.35189 -6.37086 -1.04994e-17)
(5.70923 -9.85295 -8.05547e-18)
(4.04167 -5.93095 2.74995e-17)
(4.04167 -5.93095 2.74995e-17)
(2.93107 -6.64024 4.0648e-17)
(1.28539 -6.1795 -2.65147e-17)
(-0.308363 -4.86656 -6.69645e-18)
(-0.418211 2.67971 -1.7362e-17)
(-0.418211 2.67971 -1.7362e-17)
(-1.07734 2.30803 8.73712e-18)
(-1.60997 1.93948 1.57825e-17)
(-1.86149 1.52799 8.76876e-18)
(-1.79537 1.08886 -2.51114e-17)
(-2.51654 1.83494 1.1655e-17)
(-2.51654 1.83494 1.1655e-17)
(-1.5964 0.994184 -3.56856e-19)
(-0.944455 0.464953 -8.41782e-18)
(-0.530852 0.166614 1.49563e-18)
(0.135863 -0.0891507 6.76567e-18)
(0.135863 -0.0891507 6.76567e-18)
(0.168493 -0.133933 -2.05621e-19)
(0.163602 -0.141169 -1.83115e-18)
(0.150381 -0.131755 6.06425e-19)
(0.220869 -0.0699495 1.11661e-18)
(0.220869 -0.0699495 1.11661e-18)
(0.204251 -0.0673821 -5.09572e-19)
(0.20042 -0.0657004 5.70678e-19)
(0.21147 -0.0506736 1.14667e-18)
)
;
    }
}


// ************************************************************************* //
