/*--------------------------------*- C++ -*----------------------------------*\
  =========                 |
  \\      /  F ield         | OpenFOAM: The Open Source CFD Toolbox
   \\    /   O peration     | Website:  https://openfoam.org
    \\  /    A nd           | Version:  7
     \\/     M anipulation  |
\*---------------------------------------------------------------------------*/
FoamFile
{
    version     2.0;
    format      ascii;
    class       volScalarField;
    location    "7";
    object      p;
}
// * * * * * * * * * * * * * * * * * * * * * * * * * * * * * * * * * * * * * //

dimensions      [0 2 -2 0 0 0 0];

internalField   nonuniform List<scalar> 
433
(
-26.7195
-22.0798
-18.8385
-16.6165
-15.1105
-14.0879
-13.3783
-7.85693
-10.4527
-12.0648
-12.9829
-13.4281
-13.5645
-13.5079
-13.3353
-13.0964
-12.8219
-12.5294
-12.229
-11.9255
-11.6214
-11.318
-11.0159
-10.7154
-10.4171
5.47995
-1.62586
-6.4718
-9.62139
-11.55
-12.6346
-13.1583
-13.3238
-13.2704
-13.0892
-12.8374
-12.5489
-12.2429
-11.9297
-11.6147
-11.3004
-10.9881
-10.6785
-10.3721
-10.0694
-9.76902
-9.46966
-9.17852
-14.7166
-14.6531
-14.6179
-14.5622
-14.4651
-14.3212
-14.1331
-13.9074
-13.6519
-13.374
-13.08
-12.775
-12.4631
-12.1471
-11.8293
-11.5112
-11.1941
-10.879
-10.5666
-10.2576
-9.95102
-9.64542
-9.34663
-35.9343
-28.7069
-23.6348
-20.1624
-17.8332
-16.288
-15.2574
-14.5488
-14.031
-13.6196
-13.263
-12.9319
-12.6109
-12.2926
-11.9745
-11.656
-11.3376
-11.0205
-10.7054
-10.3934
-10.0835
-9.77447
-9.47101
-27.4192
-23.9515
-21.2335
-19.16
-17.6109
-16.4677
-15.6226
-14.9845
-14.4827
-14.0656
-13.698
-13.3569
-13.0289
-12.7062
-12.3853
-12.0648
-11.7445
-11.4249
-11.1068
-10.7908
-10.4779
-10.1671
-9.85702
-9.55165
8.46959
0.159937
-5.54734
-9.30486
-11.6545
-13.0223
-13.7301
-14.0108
-14.0256
-13.8817
-13.6478
-13.3655
-13.059
-12.7415
-12.4199
-12.0975
-11.776
-11.4561
-11.1386
-10.8237
-10.512
-10.2025
-9.89383
-9.5892
-1.73716
-6.41206
-9.61663
-11.6962
-12.9486
-13.6194
-13.898
-13.9236
-13.7933
-13.5717
-13.2995
-13.0012
-12.6906
-12.375
-12.0582
-11.742
-11.4272
-11.1145
-10.8041
-10.4967
-10.1911
-9.88618
-9.58488
-26.9646
-22.7139
-19.7569
-17.7327
-16.3554
-15.4095
-14.7401
-14.24
-13.8381
-13.4899
-13.1688
-12.8599
-12.5556
-12.2522
-11.9485
-11.6444
-11.3403
-11.0368
-10.7346
-10.4342
-10.1351
-9.83616
-9.54059
-34.1943
-27.5763
-22.8581
-19.5726
-17.3488
-15.8597
-14.8615
-14.1768
-13.6815
-13.294
-12.9635
-12.6602
-12.3678
-12.0785
-11.7888
-11.4977
-11.2055
-10.9127
-10.6202
-10.3287
-10.0378
-9.74666
-9.45885
-11.4997
-12.6921
-13.3599
-13.6821
-13.781
-13.7364
-13.602
-13.4122
-13.1885
-12.9438
-12.686
-12.4197
-12.1478
-11.872
-11.5934
-11.3128
-11.0311
-10.7487
-10.4663
-10.1845
-9.90293
-9.62095
-9.34256
-0.983804
-5.81808
-8.95663
-10.8833
-11.9785
-12.5258
-12.726
-12.7153
-12.5822
-12.3811
-12.1442
-11.8894
-11.6259
-11.3583
-11.0888
-10.8183
-10.5473
-10.2761
-10.0051
-9.73403
-9.46238
-9.19485
-11.7344
-12.3031
-12.6195
-12.7458
-12.736
-12.6337
-12.4717
-12.2725
-12.051
-11.8164
-11.5739
-11.3265
-11.0757
-10.8224
-10.5672
-10.3104
-10.0525
-9.79402
-9.53468
-9.27446
-9.01901
-21.0197
-17.764
-15.6026
-14.1968
-13.2844
-12.6811
-12.2622
-11.9464
-11.6841
-11.4462
-11.217
-10.9887
-10.7579
-10.5235
-10.2856
-10.0446
-9.80116
-9.55594
-9.3091
-9.06105
-8.81858
-15.5896
-14.1533
-13.1846
-12.5317
-12.0817
-11.7539
-11.4944
-11.2692
-11.0582
-10.8504
-10.6406
-10.4267
-10.208
-9.98502
-9.75827
-9.52842
-9.29617
-9.06182
-8.82613
-8.59715
-9.86961
-10.5801
-10.9395
-11.074
-11.0689
-10.9793
-10.8401
-10.6719
-10.4868
-10.2914
-10.0892
-9.882
-9.67083
-9.4563
-9.23885
-9.68902
-10.2804
-10.5468
-10.6131
-10.5613
-10.4427
-10.2876
-10.1129
-9.92776
-9.73635
-10.9072
-10.6411
-10.4248
-10.2352
-10.0584
-6.11481
-6.16744
-6.44358
-6.50701
-6.55884
-6.59878
-6.80901
-6.88548
-6.94695
-6.99311
-7.2177
-7.30963
-7.38228
-7.4353
-7.67669
-7.78663
-7.87198
-7.93236
-8.18812
-8.31855
-8.41785
-8.48573
-8.74957
-8.90143
-9.01473
-9.08928
-6.29331
-6.29119
-6.28062
-6.26206
-6.23613
-6.20349
-6.16488
-6.62671
-6.64269
-6.64695
-6.63986
-6.62196
-6.59394
-6.55661
-6.51089
-6.4578
-7.02383
-7.03923
-7.03965
-7.02562
-6.99785
-6.95728
-6.90497
-6.84215
-6.77019
-7.46862
-7.48245
-7.47729
-7.45386
-7.41315
-7.35635
-7.28485
-7.20022
-7.10421
-7.96782
-7.97873
-7.96579
-7.93006
-7.87282
-7.79563
-7.70028
-7.58873
-7.4631
-8.52236
-8.52839
-8.50489
-8.4533
-8.37539
-8.27323
-8.14908
-8.00539
-9.12552
-9.12445
-9.08758
-9.01695
-8.91495
-8.78425
-8.62773
-8.44844
)
;

boundaryField
{
    inlet
    {
        type            zeroGradient;
    }
    outlet
    {
        type            fixedValue;
        value           nonuniform 0();
    }
    cylinder
    {
        type            zeroGradient;
    }
    top
    {
        type            symmetryPlane;
    }
    bottom
    {
        type            symmetryPlane;
    }
    defaultFaces
    {
        type            empty;
    }
    procBoundary8to1
    {
        type            processor;
        value           nonuniform List<scalar> 7(-6.05355 -6.36898 -6.71813 -7.10716 -7.54292 -8.02743 -8.56004);
    }
    procBoundary8to2
    {
        type            processor;
        value           nonuniform List<scalar> 
15
(
-5.81711
-5.86087
-6.21109
-6.21109
-6.24554
-5.97343
-5.97476
-5.96946
-5.95788
-5.94043
-5.9176
-5.88988
-6.27068
-6.28656
-6.28656
)
;
    }
    procBoundary8to3
    {
        type            processor;
        value           nonuniform List<scalar> 
11
(
-8.57339
-8.35818
-8.24953
-6.12107
-6.39844
-6.69055
-6.99868
-7.32567
-7.84474
-7.84474
-8.24953
)
;
    }
    procBoundary8to7
    {
        type            processor;
        value           nonuniform List<scalar> 
24
(
-23.058
-19.3311
-16.7758
-15.0542
-13.9036
-13.1281
-12.5876
-12.8619
-12.8619
-12.459
-12.1189
-11.8113
-11.5189
-11.2327
-10.9486
-10.6649
-10.3815
-10.0988
-10.1214
-10.1214
-9.82882
-9.53804
-9.24794
-8.96753
)
;
    }
    procBoundary8to9
    {
        type            processor;
        value           nonuniform List<scalar> 
17
(
-9.01891
-8.79677
-9.54071
-9.34165
-9.13956
-9.01891
-8.93461
-9.8863
-9.71442
-9.54044
-9.54071
-9.36327
-10.54
-10.137
-9.85938
-9.8863
-9.64893
)
;
    }
    procBoundary8to14
    {
        type            processor;
        value           nonuniform List<scalar> 
28
(
-33.2121
-33.2121
-3.94136
15.4678
-14.8976
-45.9615
-45.9615
-31.6956
20.0842
4.79221
4.79221
-33.0017
-43.2404
-9.53601
6.13056
6.13056
-10.85
-10.85
-25.8082
-17.6895
-17.6895
-8.62913
-8.62913
-8.59104
-8.59104
-11.2603
-11.2603
-11.1615
)
;
    }
}


// ************************************************************************* //
