/*--------------------------------*- C++ -*----------------------------------*\
  =========                 |
  \\      /  F ield         | OpenFOAM: The Open Source CFD Toolbox
   \\    /   O peration     | Website:  https://openfoam.org
    \\  /    A nd           | Version:  7
     \\/     M anipulation  |
\*---------------------------------------------------------------------------*/
FoamFile
{
    version     2.0;
    format      ascii;
    class       volVectorField;
    location    "7";
    object      U;
}
// * * * * * * * * * * * * * * * * * * * * * * * * * * * * * * * * * * * * * //

dimensions      [0 1 -1 0 0 0 0];

internalField   nonuniform List<vector> 
433
(
(0.494609 -0.128229 4.99968e-19)
(0.530818 -0.136336 1.80638e-18)
(0.564889 -0.142997 -2.79683e-19)
(0.603293 -0.151422 -1.35705e-18)
(0.646575 -0.162811 2.29319e-18)
(0.693144 -0.177126 -1.73112e-18)
(0.741136 -0.193873 2.46538e-19)
(0.639779 -0.146795 -3.82208e-19)
(0.658312 -0.123952 -6.35839e-20)
(0.653963 -0.106062 -1.07964e-18)
(0.650885 -0.0971576 1.20748e-18)
(0.658529 -0.097612 4.88331e-19)
(0.67817 -0.105846 4.39921e-19)
(0.707606 -0.12005 -4.1831e-18)
(0.743819 -0.138273 4.90362e-18)
(0.784178 -0.15892 -6.89417e-19)
(0.826685 -0.180847 8.98257e-20)
(0.869929 -0.20322 -2.37708e-18)
(0.912922 -0.225453 7.20942e-19)
(0.954958 -0.247124 1.01727e-18)
(0.995516 -0.267918 3.24553e-19)
(1.03419 -0.287589 3.78239e-19)
(1.07066 -0.305929 1.19927e-18)
(1.10463 -0.322759 -2.50073e-18)
(1.13587 -0.337918 4.30627e-18)
(0.314992 0.0872274 -2.98343e-19)
(0.433689 0.0695858 -3.27691e-19)
(0.496809 0.0504675 -6.53059e-19)
(0.538854 0.0287589 1.80384e-18)
(0.576409 0.00460233 -1.70955e-18)
(0.615807 -0.0215784 2.22377e-18)
(0.658338 -0.0488964 -6.25145e-19)
(0.703378 -0.0764437 3.49062e-19)
(0.749852 -0.103654 -1.73651e-18)
(0.796778 -0.130146 8.23781e-20)
(0.843395 -0.15572 9.41979e-19)
(0.889135 -0.180255 -6.99189e-19)
(0.933566 -0.203678 1.58263e-18)
(0.976343 -0.225923 -3.88176e-18)
(1.01717 -0.246914 3.64248e-18)
(1.05577 -0.266558 -1.70346e-18)
(1.09191 -0.284741 2.2306e-18)
(1.12534 -0.30134 -1.15768e-18)
(1.15583 -0.316234 5.34669e-19)
(1.18318 -0.329223 -1.43317e-18)
(1.20718 -0.340443 1.03745e-18)
(1.22786 -0.349928 -3.65958e-19)
(1.24535 -0.356779 1.33715e-18)
(-0.00880068 0.232461 -3.20732e-19)
(0.176047 0.170327 5.47039e-19)
(0.298406 0.118031 -6.65786e-19)
(0.388541 0.0748838 5.39782e-19)
(0.462869 0.038761 8.43323e-19)
(0.529193 0.00747604 -1.10964e-18)
(0.590849 -0.0207057 -5.63053e-19)
(0.649244 -0.0469792 1.84007e-19)
(0.704986 -0.0720726 -2.91706e-19)
(0.758401 -0.0964051 4.25343e-19)
(0.809686 -0.120163 -3.80853e-19)
(0.858953 -0.143382 7.39363e-19)
(0.906237 -0.166008 -1.23609e-18)
(0.951499 -0.187932 -3.27948e-19)
(0.994641 -0.20901 1.17462e-18)
(1.03551 -0.229081 -1.40023e-19)
(1.07392 -0.247977 1.09247e-18)
(1.10966 -0.26553 -1.36112e-18)
(1.14251 -0.281582 7.86595e-19)
(1.17224 -0.295907 1.38379e-18)
(1.19864 -0.308601 -1.60799e-18)
(1.22163 -0.319609 -5.31521e-19)
(1.24119 -0.328184 -6.59894e-19)
(0.0931055 0.21053 -5.52229e-19)
(0.213819 0.138427 7.2074e-19)
(0.306367 0.0882312 -4.39744e-19)
(0.381934 0.0528234 3.35537e-19)
(0.448004 0.0264995 -6.60125e-19)
(0.508821 0.0052605 1.68911e-19)
(0.566496 -0.0136941 5.8041e-20)
(0.622015 -0.0320451 -5.66823e-19)
(0.675843 -0.0507104 3.34994e-19)
(0.728197 -0.0700689 7.28916e-19)
(0.779165 -0.0901535 -1.02232e-19)
(0.828743 -0.110796 -4.05383e-19)
(0.876854 -0.131733 -2.23439e-19)
(0.923362 -0.152665 5.7088e-19)
(0.968084 -0.173295 5.13991e-19)
(1.0108 -0.193344 -5.99688e-19)
(1.05128 -0.212558 -5.348e-19)
(1.08926 -0.230709 -5.97409e-19)
(1.12447 -0.247596 5.31005e-19)
(1.15665 -0.262963 -4.99411e-19)
(1.18557 -0.276865 2.91178e-19)
(1.21104 -0.289171 4.48737e-19)
(1.2329 -0.299261 1.40718e-19)
(0.252485 0.0465123 -1.0319e-20)
(0.361779 0.0126722 -1.33625e-19)
(0.41835 0.00667719 -2.53371e-19)
(0.45049 0.0109616 -1.50846e-19)
(0.475639 0.0155631 4.17884e-19)
(0.502489 0.0164873 -1.71863e-19)
(0.534134 0.0126663 9.90246e-20)
(0.570906 0.00441728 9.07025e-20)
(0.611925 -0.00753517 -7.20004e-20)
(0.656056 -0.0224019 7.53707e-20)
(0.702235 -0.0394632 -4.15496e-19)
(0.749574 -0.0581022 2.06349e-19)
(0.797344 -0.0777948 -1.18891e-19)
(0.844941 -0.098097 5.97549e-20)
(0.891853 -0.118629 3.27868e-19)
(0.937635 -0.139062 -4.70147e-19)
(0.981888 -0.15911 7.51465e-20)
(1.02424 -0.178518 4.59164e-19)
(1.06436 -0.197058 -5.12416e-19)
(1.10191 -0.214528 1.60637e-19)
(1.13657 -0.230671 -8.09866e-20)
(1.16809 -0.245516 -1.73939e-19)
(1.19616 -0.258884 -1.22918e-19)
(1.22047 -0.27025 2.42621e-20)
(-0.0301807 0.0621411 -8.70147e-20)
(0.242364 0.0845711 -6.82797e-20)
(0.374581 0.100021 6.67412e-20)
(0.433934 0.105491 3.1916e-22)
(0.46334 0.102405 -2.16575e-19)
(0.485672 0.0926306 1.50184e-19)
(0.510893 0.0780788 -9.578e-20)
(0.542003 0.0603056 2.64274e-20)
(0.578876 0.0406746 2.11953e-20)
(0.620316 0.0200151 3.57914e-20)
(0.664982 -0.00113602 4.88784e-19)
(0.711702 -0.0224725 -3.30908e-19)
(0.75953 -0.0438009 3.9533e-19)
(0.807711 -0.0649944 -3.60353e-19)
(0.855627 -0.0859459 -3.90559e-19)
(0.902762 -0.106543 2.97677e-19)
(0.948665 -0.126662 -3.12155e-19)
(0.992929 -0.146161 4.78619e-20)
(1.03518 -0.164887 4.11794e-19)
(1.07505 -0.182686 1.01839e-19)
(1.11219 -0.19933 -2.45269e-19)
(1.14633 -0.21484 -2.27095e-19)
(1.17707 -0.229012 1.65243e-19)
(1.20396 -0.241392 -3.28657e-19)
(-0.151732 0.172739 -6.9607e-20)
(0.0737483 0.189294 -7.54192e-21)
(0.206757 0.182434 1.91206e-19)
(0.291793 0.164554 -3.2167e-19)
(0.354729 0.142222 2.41719e-19)
(0.408849 0.118383 -3.86595e-19)
(0.460077 0.0944215 -2.24049e-19)
(0.510737 0.0709452 8.38314e-19)
(0.561519 0.0481566 -2.12868e-19)
(0.612495 0.0260415 -2.74305e-19)
(0.663528 0.00450805 3.41345e-19)
(0.714414 -0.0165525 -2.33465e-19)
(0.764921 -0.0372273 8.72962e-19)
(0.814794 -0.0575603 -6.41935e-20)
(0.863751 -0.0775466 -3.25235e-19)
(0.911492 -0.0971352 -1.30995e-19)
(0.957699 -0.116236 -6.90052e-19)
(1.00204 -0.134731 9.49938e-19)
(1.04418 -0.152485 -1.45381e-18)
(1.08376 -0.169287 1.4049e-18)
(1.12049 -0.18514 1.17e-19)
(1.15391 -0.199826 -9.73162e-19)
(1.18345 -0.212928 4.51373e-19)
(-0.215793 0.281262 1.01975e-18)
(-0.0318494 0.234164 -1.18378e-18)
(0.0981952 0.192353 7.65372e-19)
(0.194236 0.157825 -5.5022e-19)
(0.270906 0.129967 -1.0515e-18)
(0.336994 0.107189 1.22655e-18)
(0.397329 0.0876335 2.09391e-19)
(0.454453 0.0698444 -1.01423e-18)
(0.509662 0.0527949 -6.66584e-20)
(0.56364 0.0358605 -6.02246e-19)
(0.616757 0.018714 -3.21244e-19)
(0.669196 0.00122973 -6.82837e-20)
(0.721001 -0.0165917 1.5184e-18)
(0.772107 -0.0346748 3.09878e-19)
(0.82236 -0.0529019 -7.83373e-19)
(0.871539 -0.0711318 -3.57286e-19)
(0.919373 -0.0892096 6.25663e-19)
(0.965553 -0.106973 4.57515e-19)
(1.00975 -0.12426 1.57898e-20)
(1.0516 -0.140845 -1.79819e-18)
(1.09082 -0.1567 2.28786e-18)
(1.12686 -0.17159 -9.36894e-19)
(1.15906 -0.185097 2.11834e-19)
(-0.0341064 0.186863 2.88609e-19)
(0.0787931 0.142174 -1.36657e-18)
(0.162209 0.116422 1.13111e-18)
(0.227007 0.100307 -3.19645e-18)
(0.281675 0.0887681 2.36789e-18)
(0.331684 0.0796873 -2.4015e-18)
(0.380125 0.0712704 1.33409e-18)
(0.428503 0.0623576 3.75258e-19)
(0.477396 0.0524095 1.5442e-18)
(0.526953 0.0411695 -7.6328e-19)
(0.577116 0.0286126 -5.21973e-19)
(0.627731 0.0148488 2.14282e-19)
(0.678582 6.19763e-05 -2.3665e-18)
(0.729408 -0.015533 3.15424e-18)
(0.779921 -0.0317156 -3.72024e-19)
(0.829803 -0.0482712 -2.8766e-19)
(0.878722 -0.0649949 -2.68911e-18)
(0.926326 -0.0816908 1.44291e-18)
(0.972254 -0.0981764 -7.07096e-19)
(1.01613 -0.114217 1.28317e-18)
(1.05764 -0.12975 -1.72859e-18)
(1.09617 -0.144539 1.53104e-18)
(1.13095 -0.158131 -3.68956e-19)
(0.102503 -0.0095886 1.43194e-19)
(0.21861 0.0177542 2.80719e-19)
(0.273601 0.0418493 8.97265e-19)
(0.30238 0.0587081 -1.9062e-18)
(0.324071 0.0684103 2.49186e-19)
(0.347788 0.0721841 -4.26142e-19)
(0.376798 0.0713289 3.15468e-18)
(0.411396 0.0669294 -5.28769e-18)
(0.450768 0.0598692 1.07653e-18)
(0.493855 0.050776 2.15583e-19)
(0.539693 0.0400928 2.56464e-18)
(0.587487 0.0281384 -5.51784e-19)
(0.636594 0.0151534 -8.9076e-19)
(0.686474 0.00133478 1.80271e-20)
(0.736657 -0.0131423 -1.2831e-18)
(0.786717 -0.028112 -5.35024e-19)
(0.836249 -0.0434094 1.97387e-18)
(0.884858 -0.0588672 -4.02779e-18)
(0.932153 -0.0743218 3.0583e-18)
(0.977737 -0.0895534 -2.28641e-19)
(1.02127 -0.104484 8.47102e-19)
(1.0621 -0.118886 -5.46499e-18)
(1.09933 -0.132251 5.06573e-18)
(0.0613498 0.0396253 8.58585e-21)
(0.169051 0.0834653 -3.49083e-19)
(0.226237 0.101068 -3.62651e-20)
(0.26342 0.104449 7.92713e-19)
(0.295864 0.100452 -1.90634e-18)
(0.329874 0.0928096 2.40806e-18)
(0.367261 0.0834522 2.42537e-20)
(0.408005 0.0732792 -1.29402e-18)
(0.451534 0.0626344 -2.89697e-19)
(0.497231 0.0515992 2.05381e-19)
(0.544574 0.040144 7.82358e-19)
(0.593133 0.0282135 1.96388e-19)
(0.642534 0.0157713 3.47251e-19)
(0.692428 0.00281823 3.91585e-18)
(0.742466 -0.0106048 -1.20209e-19)
(0.792295 -0.0244189 9.71469e-19)
(0.841549 -0.0385139 -1.21426e-18)
(0.889849 -0.0527631 -1.42644e-18)
(0.936801 -0.0669749 -6.46082e-19)
(0.982067 -0.0810638 2.56252e-18)
(1.02493 -0.094824 -7.36846e-19)
(1.06443 -0.107668 -2.24773e-18)
(-0.00507599 0.090245 1.67942e-18)
(0.0920026 0.096109 -1.07989e-18)
(0.161488 0.0939035 -1.36141e-18)
(0.217534 0.0888349 1.11276e-18)
(0.267461 0.0828773 -6.10341e-19)
(0.314813 0.0765415 -1.81922e-18)
(0.361279 0.0698236 1.30254e-20)
(0.407679 0.0625846 -1.44931e-18)
(0.454448 0.0546912 1.1919e-18)
(0.50182 0.0460562 1.40774e-19)
(0.549888 0.0366429 -3.52872e-19)
(0.59863 0.0264585 -1.98927e-19)
(0.647925 0.0155462 1.75523e-18)
(0.69757 0.00397817 8.92167e-19)
(0.747301 -0.00814826 -2.01334e-18)
(0.796802 -0.020715 2.7684e-18)
(0.845725 -0.0335955 5.9864e-19)
(0.893688 -0.0466073 -3.17125e-18)
(0.940357 -0.0596503 -1.6794e-18)
(0.984986 -0.0725447 2.12253e-18)
(1.02651 -0.0845999 -4.56388e-19)
(-0.00224854 0.0904552 -6.33582e-19)
(0.0828326 0.078598 1.56301e-18)
(0.147054 0.0715055 2.75893e-18)
(0.199496 0.0676394 -2.27409e-18)
(0.245799 0.0656454 4.37894e-19)
(0.289367 0.0641522 1.46629e-18)
(0.332081 0.0621718 1.74755e-18)
(0.374968 0.0591724 -7.09743e-19)
(0.418595 0.0549131 9.75237e-19)
(0.463254 0.0493505 -1.37042e-18)
(0.509053 0.042552 -1.85856e-18)
(0.555962 0.0346371 8.11366e-19)
(0.603848 0.0257425 -2.61569e-18)
(0.6525 0.0160069 3.69041e-18)
(0.701647 0.0055682 -2.60047e-18)
(0.750974 -0.00543525 2.44409e-18)
(0.800133 -0.0168711 -2.08535e-18)
(0.848748 -0.0285655 6.36491e-19)
(0.896485 -0.0404057 -4.50343e-19)
(0.942574 -0.0522451 4.32627e-18)
(0.985856 -0.0632705 -2.63826e-18)
(0.169804 0.0447036 -2.01264e-21)
(0.198455 0.0531951 4.41005e-18)
(0.224251 0.0588799 -3.29983e-18)
(0.251074 0.0622715 9.78139e-19)
(0.280511 0.0636428 -1.50699e-18)
(0.312948 0.0633118 1.50394e-18)
(0.348315 0.0614483 -3.47125e-18)
(0.386376 0.058203 8.85272e-19)
(0.426861 0.053714 -6.42205e-19)
(0.469487 0.0481096 8.34447e-18)
(0.51397 0.0415096 -4.1101e-18)
(0.560014 0.0340246 9.91103e-19)
(0.60731 0.0257586 -2.2644e-18)
(0.655537 0.0168142 1.21699e-18)
(0.704355 0.00729793 -1.41497e-20)
(0.753416 -0.00268575 -1.43635e-18)
(0.802345 -0.0129917 1.04462e-18)
(0.850819 -0.0235084 -2.08293e-18)
(0.898057 -0.0341336 1.28645e-18)
(0.94281 -0.0439156 2.30857e-18)
(0.208012 0.0757116 -6.44381e-19)
(0.219409 0.0790196 2.34557e-18)
(0.235367 0.0784016 -2.27053e-18)
(0.257057 0.0758134 -2.67186e-18)
(0.284052 0.0721693 5.21518e-18)
(0.31547 0.0679235 -5.33918e-18)
(0.350497 0.0632403 5.98732e-18)
(0.3885 0.0581491 -5.04856e-18)
(0.429005 0.0526227 2.1017e-18)
(0.471639 0.0466166 -4.55026e-18)
(0.516082 0.0400923 4.36199e-18)
(0.562038 0.0330308 -5.13846e-18)
(0.609209 0.0254391 -1.32632e-19)
(0.657291 0.0173535 4.87807e-18)
(0.705966 0.00882778 -8.7224e-19)
(0.146021 0.0838155 7.24737e-19)
(0.175898 0.0804817 -8.08843e-20)
(0.206793 0.0758718 1.35439e-18)
(0.239446 0.0710857 -4.17295e-18)
(0.273942 0.0664622 2.54274e-18)
(0.31023 0.0619968 -5.83806e-18)
(0.34827 0.0575601 3.67162e-18)
(0.388039 0.0529957 2.49051e-18)
(0.429505 0.0481629 -2.35377e-18)
(0.472599 0.0429535 1.51873e-18)
(0.136666 0.0497507 -9.88271e-19)
(0.172123 0.051113 -1.50235e-18)
(0.206575 0.052001 3.18532e-18)
(0.241084 0.0522617 -1.95183e-18)
(0.276304 0.0517989 3.37702e-18)
(1.26416 -0.292175 -1.33537e-19)
(1.27204 -0.285316 5.59082e-19)
(1.27333 -0.308564 -3.4889e-19)
(1.28126 -0.300214 -6.5048e-19)
(1.28832 -0.291556 -1.71711e-19)
(1.29445 -0.282572 3.7949e-20)
(1.28139 -0.324364 6.8535e-19)
(1.28895 -0.314047 4.00937e-19)
(1.29526 -0.303293 1.49615e-19)
(1.30022 -0.292094 -8.42937e-20)
(1.2871 -0.338689 -5.12969e-19)
(1.29369 -0.325817 -7.00081e-20)
(1.29852 -0.312375 -2.13987e-19)
(1.30148 -0.298372 9.27031e-20)
(1.28856 -0.350314 3.60772e-19)
(1.29336 -0.33424 2.70055e-19)
(1.29581 -0.317492 1.70326e-19)
(1.29579 -0.300118 -5.98116e-20)
(1.28321 -0.357471 -3.263e-19)
(1.28526 -0.3376 4.47539e-19)
(1.28431 -0.317005 -1.4745e-19)
(1.28028 -0.295783 4.22109e-20)
(1.26722 -0.36013 -7.06719e-19)
(1.26583 -0.335736 -2.92532e-19)
(1.2608 -0.310632 5.4301e-20)
(1.25207 -0.284985 -6.10386e-20)
(1.30155 -0.247542 -5.44913e-19)
(1.30493 -0.239102 1.11302e-19)
(1.30724 -0.230282 -8.31328e-19)
(1.30832 -0.221041 9.15865e-19)
(1.30802 -0.211339 2.52781e-19)
(1.30618 -0.201142 3.62324e-19)
(1.30264 -0.190423 -3.06225e-19)
(1.29954 -0.273241 -2.93232e-20)
(1.3035 -0.263537 1.511e-19)
(1.30621 -0.253427 6.52909e-19)
(1.30753 -0.242883 3.85734e-19)
(1.30733 -0.231874 1.00516e-20)
(1.30544 -0.220375 -5.41401e-19)
(1.3017 -0.208369 2.42084e-19)
(1.29594 -0.195849 8.48932e-19)
(1.288 -0.182824 5.41045e-19)
(1.3037 -0.280435 8.25907e-20)
(1.30559 -0.268301 -1.56677e-19)
(1.30574 -0.255678 -4.06369e-19)
(1.30402 -0.242555 -7.03664e-19)
(1.30026 -0.22893 3.22617e-19)
(1.2943 -0.214808 7.72497e-20)
(1.28601 -0.200213 -9.81805e-20)
(1.27522 -0.185181 -2.08835e-18)
(1.2618 -0.169772 1.08821e-18)
(1.30243 -0.283818 -8.98156e-20)
(1.30125 -0.268725 2.07668e-19)
(1.2978 -0.253111 1.36989e-19)
(1.29192 -0.237002 4.69942e-19)
(1.2835 -0.220436 1.42515e-20)
(1.27239 -0.203468 9.9693e-19)
(1.25848 -0.186171 -1.44332e-18)
(1.24168 -0.168641 1.40899e-18)
(1.22193 -0.150999 -2.35315e-18)
(1.29318 -0.282167 6.86176e-20)
(1.28786 -0.263693 -1.95591e-19)
(1.27972 -0.24476 -1.72143e-19)
(1.26865 -0.225446 3.28478e-19)
(1.25457 -0.205843 8.53014e-19)
(1.23739 -0.186063 -2.7104e-19)
(1.21707 -0.166239 2.43932e-19)
(1.19362 -0.146526 -2.26136e-19)
(1.16706 -0.127107 2.26552e-18)
(1.27306 -0.274038 -6.12628e-20)
(1.26259 -0.251886 1.82335e-19)
(1.24881 -0.229455 -5.36953e-19)
(1.23167 -0.206886 -4.11251e-19)
(1.21116 -0.184339 8.1324e-19)
(1.1873 -0.161988 -2.38129e-20)
(1.16015 -0.140029 7.66901e-19)
(1.12981 -0.118677 1.17291e-18)
(1.23959 -0.25897 5.03772e-20)
(1.22335 -0.232777 -3.85335e-20)
(1.20337 -0.206609 2.49321e-19)
(1.1797 -0.18068 7.72024e-19)
(1.15244 -0.155215 -3.0936e-18)
(1.1217 -0.130451 4.55013e-19)
(1.08766 -0.106639 6.81625e-19)
(1.05054 -0.0840453 -1.58132e-18)
)
;

boundaryField
{
    inlet
    {
        type            uniformFixedValue;
        uniformValue    constant (1 0 0);
        value           nonuniform 0();
    }
    outlet
    {
        type            pressureInletOutletVelocity;
        value           nonuniform 0();
    }
    cylinder
    {
        type            fixedValue;
        value           nonuniform 0();
    }
    top
    {
        type            symmetryPlane;
    }
    bottom
    {
        type            symmetryPlane;
    }
    defaultFaces
    {
        type            empty;
    }
    procBoundary8to1
    {
        type            processor;
        value           nonuniform List<vector> 7((1.25574 -0.298833 -9.736e-20) (1.26459 -0.316614 -1.39693e-20) (1.27265 -0.334248 -2.37948e-19) (1.27887 -0.350975 8.18212e-20) (1.28152 -0.36567 -7.52172e-19) (1.27827 -0.376521 -8.47048e-19) (1.26503 -0.383647 3.09933e-20));
    }
    procBoundary8to2
    {
        type            processor;
        value           nonuniform List<vector> 
15
(
(1.25464 -0.275805 -3.76397e-19)
(1.26222 -0.270067 -1.82264e-19)
(1.27934 -0.278251 -9.73344e-21)
(1.27934 -0.278251 -9.73344e-21)
(1.28601 -0.270965 7.40106e-21)
(1.29367 -0.239138 1.53735e-19)
(1.29831 -0.232346 4.10879e-19)
(1.30222 -0.225272 -4.76884e-19)
(1.3053 -0.217871 6.07385e-19)
(1.30741 -0.210097 -6.83685e-19)
(1.30842 -0.201904 -7.70109e-19)
(1.30817 -0.193247 -6.87355e-19)
(1.29199 -0.263437 -3.67441e-20)
(1.2972 -0.255641 3.93987e-20)
(1.2972 -0.255641 3.93987e-20)
)
;
    }
    procBoundary8to3
    {
        type            processor;
        value           nonuniform List<vector> 
11
(
(0.851837 -0.0184113 4.85669e-18)
(0.897745 -0.0267667 -1.07364e-18)
(1.0106 -0.0629496 -6.0385e-19)
(1.2972 -0.17917 -6.9953e-19)
(1.27771 -0.169322 1.62341e-18)
(1.24566 -0.15407 1.43982e-18)
(1.19921 -0.133392 -2.56712e-18)
(1.13748 -0.108186 1.89816e-18)
(1.09642 -0.0981674 1.40702e-18)
(1.09642 -0.0981674 1.40702e-18)
(1.0106 -0.0629496 -6.0385e-19)
)
;
    }
    procBoundary8to7
    {
        type            processor;
        value           nonuniform List<vector> 
24
(
(0.234712 -0.00678986 -4.66012e-18)
(0.357033 -0.0648448 -2.21105e-18)
(0.451558 -0.108226 1.56776e-18)
(0.531943 -0.143519 1.37028e-18)
(0.604052 -0.174084 -2.31065e-19)
(0.670036 -0.201711 1.50859e-18)
(0.73075 -0.22734 -3.44289e-19)
(0.789114 -0.212393 2.40952e-18)
(0.789114 -0.212393 2.40952e-18)
(0.836174 -0.232037 -8.00639e-19)
(0.881781 -0.252233 -6.57511e-20)
(0.925616 -0.272474 1.1161e-18)
(0.967465 -0.292323 1.20838e-18)
(1.00715 -0.311413 3.0689e-19)
(1.04451 -0.329431 -1.51053e-18)
(1.07936 -0.346119 -5.80999e-19)
(1.11155 -0.361256 -1.13365e-19)
(1.1409 -0.37466 1.9654e-18)
(1.16415 -0.351266 8.17845e-19)
(1.16415 -0.351266 8.17845e-19)
(1.18929 -0.362606 4.31067e-19)
(1.2111 -0.372087 -7.90904e-19)
(1.22968 -0.379842 1.63278e-18)
(1.24535 -0.38479 -4.16465e-18)
)
;
    }
    procBoundary8to9
    {
        type            processor;
        value           nonuniform List<vector> 
17
(
(0.754894 -3.46997e-05 -3.76123e-18)
(0.803775 -0.00913155 2.71029e-18)
(0.517206 0.0372988 1.65737e-18)
(0.563162 0.0311702 -1.80535e-18)
(0.610257 0.024578 1.80334e-18)
(0.754894 -3.46997e-05 -3.76123e-18)
(0.658245 0.0175571 -2.02509e-18)
(0.312671 0.0505823 -3.89558e-18)
(0.350476 0.0486239 2.11772e-18)
(0.389889 0.0459564 -3.60592e-18)
(0.517206 0.0372988 1.65737e-18)
(0.430979 0.0426193 7.38679e-18)
(0.167482 0.0355436 -4.2355e-18)
(0.193685 0.0391059 6.60571e-19)
(0.22146 0.0418035 5.98668e-18)
(0.312671 0.0505823 -3.89558e-18)
(0.251177 0.0434816 -3.13725e-18)
)
;
    }
    procBoundary8to14
    {
        type            processor;
        value           nonuniform List<vector> 
28
(
(0.439308 -0.112115 -7.06e-19)
(0.439308 -0.112115 -7.06e-19)
(0.553581 -0.164156 -2.3921e-19)
(0.0806433 0.106001 -1.33954e-18)
(-0.305728 0.302214 1.05844e-19)
(-0.0684715 0.311499 2.77395e-19)
(-0.0684715 0.311499 2.77395e-19)
(0.0542111 0.134377 -6.21639e-19)
(-0.528136 0.0446664 -4.74124e-19)
(-0.535828 0.114035 1.23902e-19)
(-0.535828 0.114035 1.23902e-19)
(-0.475024 0.322121 -2.96014e-19)
(-0.185326 0.26247 -3.81195e-18)
(-0.127392 -0.0280092 6.23932e-19)
(-0.149221 -0.0499876 -6.90362e-20)
(-0.149221 -0.0499876 -6.90362e-20)
(-0.154055 0.0648493 2.04205e-18)
(-0.154055 0.0648493 2.04205e-18)
(-0.120449 0.109124 2.19244e-18)
(0.130364 0.0335867 1.72758e-18)
(0.130364 0.0335867 1.72758e-18)
(0.195803 0.0647047 -2.62843e-20)
(0.195803 0.0647047 -2.62843e-20)
(0.114465 0.0831225 5.47405e-19)
(0.114465 0.0831225 5.47405e-19)
(0.098287 0.0479555 1.07325e-20)
(0.098287 0.0479555 1.07325e-20)
(0.142099 0.0314714 1.85848e-19)
)
;
    }
}


// ************************************************************************* //
