/*--------------------------------*- C++ -*----------------------------------*\
  =========                 |
  \\      /  F ield         | OpenFOAM: The Open Source CFD Toolbox
   \\    /   O peration     | Website:  https://openfoam.org
    \\  /    A nd           | Version:  7
     \\/     M anipulation  |
\*---------------------------------------------------------------------------*/
FoamFile
{
    version     2.0;
    format      ascii;
    class       volScalarField;
    location    "2.6";
    object      p;
}
// * * * * * * * * * * * * * * * * * * * * * * * * * * * * * * * * * * * * * //

dimensions      [0 2 -2 0 0 0 0];

internalField   nonuniform List<scalar> 
344
(
0.12779
-0.0366794
-0.179222
-0.300387
0.061915
-0.102747
-0.243192
-0.360599
-0.0201229
-0.183757
-0.320619
-0.432629
-0.120925
-0.281477
-0.4126
-0.517009
-0.243221
-0.397524
-0.519906
-0.613861
0.116788
0.124709
0.13234
-0.400525
-0.481804
-0.546877
-0.597784
-0.636552
-0.665039
-0.684854
-0.697356
-0.703694
-0.704878
-0.701686
-0.694847
-0.684971
-0.672561
-0.658047
-0.641796
-0.624127
-0.605312
-0.585587
-0.565154
-0.544188
-0.522841
-0.501243
-0.479507
-0.45773
-0.435995
-0.414373
-0.392926
-0.371704
-0.350752
-0.330107
-0.3098
-0.289855
-0.270294
-0.251133
-0.232386
-0.214062
-0.196169
-0.178712
-0.161693
-0.145115
-0.128975
-0.113274
-0.0980074
-0.0831721
-0.0687636
-0.0547764
-0.0412049
-0.0280428
-0.0152833
-0.00291941
0.00905602
0.0206504
0.0318714
0.0427266
0.0532237
0.0633704
0.0731744
0.0826435
0.0917851
0.100607
0.109116
0.117321
0.125228
0.132844
-0.455849
-0.531581
-0.590828
-0.636014
-0.669454
-0.693162
-0.708785
-0.717663
-0.720903
-0.719368
-0.713883
-0.705113
-0.693598
-0.679791
-0.664085
-0.646816
-0.628276
-0.608714
-0.588347
-0.567362
-0.545921
-0.524165
-0.502215
-0.480176
-0.458139
-0.43618
-0.414366
-0.392755
-0.371394
-0.350324
-0.329579
-0.309188
-0.289174
-0.269555
-0.250348
-0.231564
-0.213211
-0.195296
-0.177823
-0.160794
-0.14421
-0.128069
-0.112369
-0.0971076
-0.0822796
-0.0678806
-0.0539048
-0.0403461
-0.0271981
-0.0144537
-0.00210591
0.00985282
0.02143
0.0326334
0.0434706
0.0539497
0.0640782
0.073864
0.0833149
0.0924386
0.101243
0.109734
0.117921
0.125811
0.13341
-0.52128
-0.589765
-0.64158
-0.679639
-0.70662
-0.724674
-0.735426
-0.740128
-0.739833
-0.735294
-0.72728
-0.716378
-0.703056
-0.687715
-0.670701
-0.652317
-0.632822
-0.612441
-0.591371
-0.569781
-0.54782
-0.525616
-0.50328
-0.480909
-0.458587
-0.436383
-0.41436
-0.39257
-0.371057
-0.349858
-0.329005
-0.308523
-0.288434
-0.268754
-0.249496
-0.230672
-0.212288
-0.19435
-0.176861
-0.159822
-0.143232
-0.127089
-0.111392
-0.0961361
-0.0813166
-0.0669282
-0.0529651
-0.0394207
-0.0262883
-0.0135607
-0.00123055
0.0107098
0.0222682
0.0334522
0.04427
0.0547292
0.064838
0.0746041
0.0840353
0.0931393
0.101924
0.110397
0.118565
0.126436
0.134017
-0.596888
-0.656019
-0.698454
-0.727791
-0.747132
-0.758701
-0.763993
-0.764166
-0.759915
-0.752134
-0.741434
-0.728274
-0.713043
-0.696081
-0.677691
-0.658132
-0.637632
-0.61639
-0.594579
-0.572352
-0.549842
-0.527166
-0.504424
-0.481704
-0.459081
-0.436621
-0.414377
-0.3924
-0.370727
-0.349393
-0.328426
-0.307849
-0.28768
-0.267935
-0.248626
-0.22976
-0.211344
-0.193382
-0.175875
-0.158824
-0.142228
-0.126085
-0.11039
-0.09514
-0.0803291
-0.0659518
-0.0520018
-0.0384722
-0.025356
-0.0126457
-0.000333694
0.0115878
0.0231266
0.0342908
0.0450884
0.0555273
0.0656157
0.0753614
0.0847723
0.0938562
0.102621
0.111074
0.119223
0.127074
0.134637
-0.682278
-0.729436
-0.76014
-0.779003
-0.789586
-0.793954
-0.793443
-0.78858
-0.780297
-0.769229
-0.7558
-0.74035
-0.723189
-0.704596
-0.68482
-0.664078
-0.642564
-0.620452
-0.597893
-0.575023
-0.551958
-0.528804
-0.505651
-0.482576
-0.459649
-0.436926
-0.414459
-0.39229
-0.370454
-0.348982
-0.327899
-0.307224
-0.286975
-0.267163
-0.247799
-0.22889
-0.21044
-0.192451
-0.174926
-0.157863
-0.14126
-0.125114
-0.10942
-0.0941747
-0.0793714
-0.0650042
-0.0510662
-0.0375504
-0.0244494
-0.0117556
0.000539037
0.0124424
0.0239625
0.0351075
0.0458857
0.056305
0.0663737
0.0760996
0.0854909
0.0945553
0.103301
)
;

boundaryField
{
    inlet
    {
        type            zeroGradient;
    }
    outlet
    {
        type            fixedValue;
        value           nonuniform 0();
    }
    wall
    {
        type            zeroGradient;
    }
    wedge1
    {
        type            wedge;
    }
    wedge2
    {
        type            wedge;
    }
    axis
    {
        type            empty;
    }
    procBoundary9to3
    {
        type            processor;
        value           nonuniform List<scalar> 
70
(
0.17967
0.0160057
-0.127659
-0.251379
0.116341
0.124275
0.131919
-0.355076
-0.440526
-0.510079
-0.565479
-0.60852
-0.640917
-0.664218
-0.679782
-0.688788
-0.692256
-0.691032
-0.685872
-0.677424
-0.666233
-0.652759
-0.637398
-0.620491
-0.602329
-0.583165
-0.563214
-0.542664
-0.521674
-0.500385
-0.478914
-0.457365
-0.435826
-0.414372
-0.393068
-0.371969
-0.351122
-0.330565
-0.310331
-0.290448
-0.270938
-0.251819
-0.233105
-0.214807
-0.196934
-0.179491
-0.162482
-0.145909
-0.129772
-0.114069
-0.098799
-0.0839578
-0.0695414
-0.0555448
-0.0419624
-0.0287882
-0.0160157
-0.00363813
0.00835169
0.019961
0.0311972
0.0420679
0.0525807
0.0627432
0.0725631
0.082048
0.0912054
0.100043
0.108568
0.108568
)
;
    }
    procBoundary9to4
    {
        type            processor;
        value           nonuniform List<scalar> 2(0.139688 0.140176);
    }
    procBoundary9to8
    {
        type            processor;
        value           nonuniform List<scalar> 4(0.313845 0.251326 0.172054 0.0724062);
    }
    procBoundary9to10
    {
        type            processor;
        value           nonuniform List<scalar> 3(0.140726 0.141315 0.141916);
    }
    procBoundary9to14
    {
        type            processor;
        value           uniform -0.0519469;
    }
    procBoundary9to15
    {
        type            processor;
        value           nonuniform List<scalar> 
70
(
-0.389319
-0.532531
-0.642097
-0.722118
0.111734
0.119864
0.127698
0.135242
-0.775929
-0.807896
-0.824114
-0.830797
-0.831878
-0.828772
-0.821921
-0.812157
-0.799996
-0.785768
-0.76972
-0.752086
-0.733089
-0.712944
-0.691845
-0.669972
-0.647487
-0.624538
-0.601257
-0.577763
-0.55416
-0.53054
-0.506984
-0.483562
-0.460334
-0.437354
-0.414665
-0.392305
-0.370307
-0.348696
-0.327495
-0.306721
-0.286389
-0.266508
-0.247087
-0.228132
-0.209645
-0.191628
-0.174081
-0.157002
-0.140389
-0.124237
-0.108542
-0.0932984
-0.0784999
-0.0641399
-0.0502113
-0.0367067
-0.0236183
-0.0109384
0.00134133
0.0132289
0.0247327
0.0358608
0.0466217
0.0570236
0.0670745
0.0767828
0.0861563
0.095203
0.111734
0.103931
)
;
    }
}


// ************************************************************************* //
