/*--------------------------------*- C++ -*----------------------------------*\
  =========                 |
  \\      /  F ield         | OpenFOAM: The Open Source CFD Toolbox
   \\    /   O peration     | Website:  https://openfoam.org
    \\  /    A nd           | Version:  7
     \\/     M anipulation  |
\*---------------------------------------------------------------------------*/
FoamFile
{
    version     2.0;
    format      ascii;
    class       volScalarField;
    location    "2";
    object      p;
}
// * * * * * * * * * * * * * * * * * * * * * * * * * * * * * * * * * * * * * //

dimensions      [0 2 -2 0 0 0 0];

internalField   nonuniform List<scalar> 
344
(
2.17175
2.17161
2.17135
2.17096
2.17044
2.1698
2.16904
2.16818
2.16723
2.16619
2.16508
2.16392
2.16271
2.16148
2.16023
2.15897
2.15771
2.15645
2.15522
2.154
2.1528
2.15163
2.15048
2.14936
2.14827
2.1472
2.14616
2.14515
2.14417
2.14321
2.14228
2.14137
2.14048
2.13962
2.13878
2.13796
2.13717
2.13639
2.13563
2.1349
2.13418
2.13348
2.1328
2.13214
2.13149
2.13085
2.13024
2.12964
2.12905
2.12848
2.12792
2.12738
2.12684
2.12631
2.1258
2.12531
2.12481
2.12433
2.12385
2.12339
2.12294
2.12248
2.12204
2.1216
2.12117
2.12074
2.12032
2.17181
2.17168
2.17141
2.17102
2.17049
2.16985
2.16909
2.16822
2.16726
2.16622
2.1651
2.16394
2.16273
2.16149
2.16023
2.15896
2.1577
2.15645
2.15521
2.15399
2.15279
2.15161
2.15047
2.14935
2.14825
2.14719
2.14615
2.14514
2.14416
2.1432
2.14226
2.14136
2.14047
2.13961
2.13877
2.13795
2.13716
2.13638
2.13562
2.13489
2.13417
2.13347
2.13279
2.13213
2.13148
2.13084
2.13023
2.12963
2.12904
2.12847
2.12792
2.12737
2.12683
2.12631
2.1258
2.1253
2.12481
2.12432
2.12385
2.12339
2.12293
2.12248
2.12203
2.1216
2.12117
2.12074
2.12032
2.17195
2.17182
2.17155
2.17115
2.17062
2.16996
2.16919
2.16831
2.16734
2.16628
2.16515
2.16397
2.16275
2.1615
2.16023
2.15896
2.15769
2.15643
2.15519
2.15396
2.15276
2.15159
2.15044
2.14932
2.14823
2.14716
2.14612
2.14511
2.14413
2.14317
2.14224
2.14133
2.14045
2.13959
2.13875
2.13793
2.13714
2.13636
2.1356
2.13487
2.13415
2.13345
2.13277
2.13211
2.13146
2.13083
2.13022
2.12962
2.12903
2.12846
2.1279
2.12736
2.12682
2.1263
2.12579
2.12529
2.1248
2.12431
2.12384
2.12338
2.12292
2.12247
2.12203
2.12159
2.12116
2.12073
2.12031
2.17217
2.17203
2.17175
2.17134
2.1708
2.17013
2.16934
2.16845
2.16745
2.16637
2.16523
2.16403
2.16279
2.16152
2.16024
2.15896
2.15768
2.15641
2.15516
2.15393
2.15272
2.15155
2.1504
2.14927
2.14818
2.14712
2.14608
2.14507
2.14409
2.14313
2.1422
2.1413
2.14041
2.13955
2.13871
2.1379
2.1371
2.13633
2.13557
2.13484
2.13412
2.13342
2.13275
2.13208
2.13143
2.1308
2.13019
2.12959
2.12901
2.12844
2.12788
2.12734
2.1268
2.12628
2.12578
2.12528
2.12478
2.1243
2.12383
2.12337
2.12291
2.12246
2.12202
2.12158
2.12115
2.12073
2.1203
2.17247
2.17232
2.17204
2.17161
2.17105
2.17036
2.16955
2.16863
2.16761
2.1665
2.16533
2.1641
2.16284
2.16155
2.16025
2.15895
2.15765
2.15638
2.15512
2.15388
2.15267
2.15149
2.15034
2.14922
2.14812
2.14706
2.14602
2.14502
2.14403
2.14308
2.14215
2.14125
2.14036
2.1395
2.13867
2.13785
2.13706
2.13628
2.13553
2.1348
2.13408
2.13339
2.13271
2.13205
2.1314
2.13077
2.13016
2.12956
2.12898
2.12841
2.12786
2.12731
2.12678
2.12626
2.12576
2.12526
2.12476
2.12428
2.12382
2.12335
2.1229
2.12245
2.12201
2.12157
2.12114
2.12072
2.1203
2.17284
2.17269
2.1724
2.17195
2.17137
2.17066
2.16981
2.16886
2.1678
)
;

boundaryField
{
    inlet
    {
        type            zeroGradient;
    }
    outlet
    {
        type            fixedValue;
        value           nonuniform 0();
    }
    wall
    {
        type            zeroGradient;
    }
    wedge1
    {
        type            wedge;
    }
    wedge2
    {
        type            wedge;
    }
    axis
    {
        type            empty;
    }
    procBoundary0to1
    {
        type            processor;
        value           nonuniform List<scalar> 5(2.1199 2.1199 2.1199 2.11989 2.11988);
    }
    procBoundary0to6
    {
        type            processor;
        value           nonuniform List<scalar> 
68
(
2.16666
2.16545
2.16419
2.16289
2.16158
2.16025
2.15893
2.15762
2.15633
2.15506
2.15382
2.1526
2.15142
2.15026
2.14914
2.14805
2.14699
2.14595
2.14495
2.14397
2.14301
2.14208
2.14118
2.1403
2.13944
2.13861
2.1378
2.137
2.13623
2.13548
2.13475
2.13403
2.13334
2.13266
2.132
2.13136
2.13073
2.13012
2.12952
2.12894
2.12838
2.12782
2.12728
2.12675
2.12623
2.12573
2.12523
2.12474
2.12426
2.1238
2.12333
2.12288
2.12243
2.12199
2.12156
2.12113
2.1207
2.12028
2.17331
2.17315
2.17284
2.17237
2.17176
2.17101
2.17013
2.16913
2.16666
2.16803
)
;
    }
}


// ************************************************************************* //
