/*--------------------------------*- C++ -*----------------------------------*\
  =========                 |
  \\      /  F ield         | OpenFOAM: The Open Source CFD Toolbox
   \\    /   O peration     | Website:  https://openfoam.org
    \\  /    A nd           | Version:  7
     \\/     M anipulation  |
\*---------------------------------------------------------------------------*/
FoamFile
{
    version     2.0;
    format      ascii;
    class       surfaceScalarField;
    location    "2";
    object      phi;
}
// * * * * * * * * * * * * * * * * * * * * * * * * * * * * * * * * * * * * * //

dimensions      [0 3 -1 0 0 0 0];

internalField   nonuniform List<scalar> 
615
(
1.07976e-05
-7.47393e-10
1.07998e-05
-2.22702e-09
1.08035e-05
-3.68184e-09
1.08086e-05
-5.09082e-09
1.0815e-05
-6.43065e-09
1.08227e-05
-7.68471e-09
1.08315e-05
-8.83975e-09
1.08414e-05
-9.87761e-09
1.08522e-05
-1.07725e-08
1.08637e-05
-1.15283e-08
1.08759e-05
-1.21388e-08
1.08885e-05
-1.26122e-08
1.09014e-05
-1.2955e-08
1.09146e-05
-1.3166e-08
1.09279e-05
-1.32709e-08
1.09412e-05
-1.32932e-08
1.09544e-05
-1.32253e-08
1.09675e-05
-1.30824e-08
1.09804e-05
-1.28967e-08
1.0993e-05
-1.26687e-08
1.10054e-05
-1.24055e-08
1.10176e-05
-1.2128e-08
1.10294e-05
-1.18263e-08
1.10409e-05
-1.15037e-08
1.10521e-05
-1.11968e-08
1.1063e-05
-1.08973e-08
1.10736e-05
-1.05729e-08
1.10838e-05
-1.02475e-08
1.10938e-05
-9.94626e-09
1.11034e-05
-9.6464e-09
1.11128e-05
-9.34657e-09
1.11218e-05
-9.06396e-09
1.11306e-05
-8.775e-09
1.11391e-05
-8.47138e-09
1.11473e-05
-8.19587e-09
1.11552e-05
-7.94913e-09
1.11629e-05
-7.67901e-09
1.11703e-05
-7.38718e-09
1.11774e-05
-7.11996e-09
1.11843e-05
-6.87482e-09
1.11909e-05
-6.62497e-09
1.11973e-05
-6.38303e-09
1.12034e-05
-6.15194e-09
1.12093e-05
-5.8981e-09
1.1215e-05
-5.63047e-09
1.12204e-05
-5.40459e-09
1.12256e-05
-5.22006e-09
1.12306e-05
-5.01636e-09
1.12354e-05
-4.77892e-09
1.12399e-05
-4.55378e-09
1.12443e-05
-4.35977e-09
1.12485e-05
-4.17502e-09
1.12525e-05
-3.99848e-09
1.12563e-05
-3.84507e-09
1.126e-05
-3.69437e-09
1.12635e-05
-3.51314e-09
1.12668e-05
-3.32016e-09
1.127e-05
-3.17158e-09
1.12731e-05
-3.08331e-09
1.12761e-05
-3.00984e-09
1.1279e-05
-2.90512e-09
1.12818e-05
-2.76625e-09
1.12844e-05
-2.62698e-09
1.12869e-05
-2.51491e-09
1.12894e-05
-2.44989e-09
1.12918e-05
-2.4188e-09
-2.40964e-09
3.23928e-05
-3.02341e-09
3.23996e-05
-9.02521e-09
3.24109e-05
-1.49201e-08
3.24264e-05
-2.061e-08
3.24459e-05
-2.59969e-08
3.24693e-05
-3.10201e-08
3.24961e-05
-3.56226e-08
3.25259e-05
-3.97232e-08
3.25584e-05
-4.33065e-08
3.25932e-05
-4.63037e-08
3.26298e-05
-4.87141e-08
3.26678e-05
-5.05778e-08
3.27067e-05
-5.19153e-08
3.27463e-05
-5.27306e-08
3.27861e-05
-5.31312e-08
3.2826e-05
-5.31984e-08
3.28657e-05
-5.2909e-08
3.2905e-05
-5.23313e-08
3.29437e-05
-5.15778e-08
3.29816e-05
-5.06559e-08
3.30188e-05
-4.96059e-08
3.30552e-05
-4.84939e-08
3.30907e-05
-4.7279e-08
3.31252e-05
-4.59946e-08
3.31587e-05
-4.4773e-08
3.31914e-05
-4.35681e-08
3.32231e-05
-4.22733e-08
3.32538e-05
-4.09822e-08
3.32837e-05
-3.9773e-08
3.33126e-05
-3.85721e-08
3.33406e-05
-3.73862e-08
3.33678e-05
-3.62562e-08
3.33941e-05
-3.50881e-08
3.34195e-05
-3.38787e-08
3.34441e-05
-3.2787e-08
3.3468e-05
-3.17908e-08
3.3491e-05
-3.07027e-08
3.35132e-05
-2.95465e-08
3.35345e-05
-2.84825e-08
3.35551e-05
-2.74903e-08
3.3575e-05
-2.64907e-08
3.35941e-05
-2.55341e-08
3.36126e-05
-2.4604e-08
3.36303e-05
-2.35758e-08
3.36472e-05
-2.25124e-08
3.36634e-05
-2.16205e-08
3.3679e-05
-2.08749e-08
3.36941e-05
-2.00504e-08
3.37084e-05
-1.91087e-08
3.37221e-05
-1.82139e-08
3.37351e-05
-1.74239e-08
3.37476e-05
-1.66742e-08
3.37596e-05
-1.59799e-08
3.37711e-05
-1.53788e-08
3.37822e-05
-1.47672e-08
3.37927e-05
-1.40278e-08
3.38027e-05
-1.3258e-08
3.38122e-05
-1.26754e-08
3.38214e-05
-1.23234e-08
3.38304e-05
-1.20212e-08
3.38391e-05
-1.15992e-08
3.38474e-05
-1.10486e-08
3.38553e-05
-1.04949e-08
3.38628e-05
-1.00432e-08
3.38701e-05
-9.7791e-09
3.38774e-05
-9.65381e-09
-9.621e-09
5.39881e-05
-6.88615e-09
5.39996e-05
-2.05563e-08
5.40187e-05
-3.39812e-08
5.4045e-05
-4.69217e-08
5.40782e-05
-5.91537e-08
5.41177e-05
-7.05373e-08
5.4163e-05
-8.09306e-08
5.42134e-05
-9.01641e-08
5.42683e-05
-9.82266e-08
5.4327e-05
-1.04954e-07
5.43886e-05
-1.10328e-07
5.44525e-05
-1.14464e-07
5.4518e-05
-1.17391e-07
5.45844e-05
-1.19147e-07
5.46512e-05
-1.19985e-07
5.47181e-05
-1.20053e-07
5.47845e-05
-1.19331e-07
5.48502e-05
-1.17988e-07
5.49148e-05
-1.16229e-07
5.49783e-05
-1.14096e-07
5.50404e-05
-1.11715e-07
5.51011e-05
-1.09179e-07
5.51602e-05
-1.06399e-07
5.52177e-05
-1.03504e-07
5.52737e-05
-1.00749e-07
5.53281e-05
-9.80025e-08
5.53809e-05
-9.50912e-08
5.54321e-05
-9.22051e-08
5.54818e-05
-8.94568e-08
5.553e-05
-8.67399e-08
5.55767e-05
-8.41054e-08
5.5622e-05
-8.15649e-08
5.56658e-05
-7.8906e-08
5.57082e-05
-7.61975e-08
5.57491e-05
-7.37619e-08
5.57888e-05
-7.1492e-08
5.58272e-05
-6.90316e-08
5.58641e-05
-6.64666e-08
5.58997e-05
-6.40765e-08
5.5934e-05
-6.18056e-08
5.59671e-05
-5.95618e-08
5.5999e-05
-5.74421e-08
5.60297e-05
-5.53301e-08
5.60591e-05
-5.29835e-08
5.60872e-05
-5.06113e-08
5.61142e-05
-4.86283e-08
5.61403e-05
-4.69218e-08
5.61652e-05
-4.50445e-08
5.61891e-05
-4.29557e-08
5.62118e-05
-4.09564e-08
5.62336e-05
-3.9137e-08
5.62543e-05
-3.74246e-08
5.62742e-05
-3.58967e-08
5.62934e-05
-3.45726e-08
5.63118e-05
-3.31699e-08
5.63293e-05
-3.14714e-08
5.63457e-05
-2.97481e-08
5.63615e-05
-2.8461e-08
5.63769e-05
-2.76647e-08
5.63918e-05
-2.6965e-08
5.64062e-05
-2.6015e-08
5.642e-05
-2.47919e-08
5.6433e-05
-2.3552e-08
5.64455e-05
-2.25224e-08
5.64577e-05
-2.19186e-08
5.64696e-05
-2.16344e-08
-2.15749e-08
7.55835e-05
-1.24334e-08
7.56e-05
-3.71137e-08
7.56274e-05
-6.13453e-08
7.56651e-05
-8.46717e-08
7.57127e-05
-1.06696e-07
7.57693e-05
-1.27155e-07
7.58341e-05
-1.4577e-07
7.59062e-05
-1.6227e-07
7.59847e-05
-1.76648e-07
7.60683e-05
-1.88538e-07
7.61559e-05
-1.97997e-07
7.62467e-05
-2.05224e-07
7.63395e-05
-2.10236e-07
7.64336e-05
-2.13181e-07
7.65281e-05
-2.14505e-07
7.66224e-05
-2.14418e-07
7.67161e-05
-2.12961e-07
7.68085e-05
-2.10447e-07
7.68995e-05
-2.0715e-07
7.69886e-05
-2.03216e-07
7.70758e-05
-1.98916e-07
7.71609e-05
-1.94303e-07
7.72438e-05
-1.89253e-07
7.73243e-05
-1.84087e-07
7.74027e-05
-1.79148e-07
7.74789e-05
-1.74181e-07
7.75528e-05
-1.69009e-07
7.76245e-05
-1.63906e-07
7.7694e-05
-1.5896e-07
7.77614e-05
-1.54107e-07
7.78268e-05
-1.49482e-07
7.78902e-05
-1.44951e-07
7.79514e-05
-1.40171e-07
7.80106e-05
-1.35393e-07
7.8068e-05
-1.31093e-07
7.81235e-05
-1.26996e-07
7.8177e-05
-1.22612e-07
7.82287e-05
-1.18127e-07
7.82785e-05
-1.13867e-07
7.83264e-05
-1.09756e-07
7.83727e-05
-1.05797e-07
7.84173e-05
-1.02088e-07
7.84603e-05
-9.82776e-08
7.85013e-05
-9.40441e-08
7.85406e-05
-8.98772e-08
7.85784e-05
-8.63857e-08
7.86147e-05
-8.32814e-08
7.86496e-05
-7.99129e-08
7.86829e-05
-7.62697e-08
7.87147e-05
-7.27283e-08
7.87449e-05
-6.93977e-08
7.87738e-05
-6.63136e-08
7.88016e-05
-6.36745e-08
7.88284e-05
-6.13665e-08
7.8854e-05
-5.88088e-08
7.88783e-05
-5.5727e-08
7.89012e-05
-5.26907e-08
7.89232e-05
-5.04444e-08
7.89446e-05
-4.90087e-08
7.89653e-05
-4.77254e-08
7.89853e-05
-4.60451e-08
7.90045e-05
-4.39058e-08
7.90226e-05
-4.17077e-08
7.90399e-05
-3.98444e-08
7.90568e-05
-3.87502e-08
7.90734e-05
-3.82408e-08
-3.81684e-08
9.7179e-05
-1.98125e-08
9.7201e-05
-5.91393e-08
9.72374e-05
-9.77322e-08
9.72876e-05
-1.3483e-07
9.73507e-05
-1.69815e-07
9.74258e-05
-2.02237e-07
9.75116e-05
-2.31624e-07
9.7607e-05
-2.57609e-07
9.77105e-05
-2.80158e-07
9.78205e-05
9.79357e-05
9.80547e-05
9.81761e-05
9.82988e-05
9.8422e-05
9.85446e-05
9.86661e-05
9.87859e-05
9.89035e-05
9.90186e-05
9.91311e-05
9.92408e-05
9.93475e-05
9.94512e-05
9.95521e-05
9.965e-05
9.9745e-05
9.98371e-05
9.99263e-05
0.000100013
0.000100097
0.000100178
0.000100257
0.000100333
0.000100407
0.000100478
0.000100547
0.000100613
0.000100677
0.000100738
0.000100798
0.000100855
0.00010091
0.000100963
0.000101013
0.000101062
0.000101108
0.000101153
0.000101196
0.000101236
0.000101275
0.000101312
0.000101347
0.000101382
0.000101414
0.000101445
0.000101474
0.000101503
0.00010153
0.000101556
0.000101582
0.000101606
0.000101629
0.000101651
0.000101673
0.000101694
0.000118775
0.000118803
0.000118849
0.000118913
0.000118993
0.000119089
0.000119198
0.000119318
)
;

boundaryField
{
    inlet
    {
        type            calculated;
        value           nonuniform List<scalar> 6(-1.07968e-05 -3.23905e-05 -5.39842e-05 -7.55779e-05 -9.71716e-05 -0.000118765);
    }
    outlet
    {
        type            calculated;
        value           nonuniform 0();
    }
    wall
    {
        type            calculated;
        value           nonuniform 0();
    }
    wedge1
    {
        type            wedge;
        value           nonuniform List<scalar> 
344
(
-3.34724e-18
-1.37775e-18
-5.82261e-19
1.74752e-18
2.15405e-19
-2.41287e-18
2.34247e-18
4.4586e-19
8.33502e-19
-4.29814e-19
1.60799e-18
4.89271e-19
-3.91173e-18
2.33606e-18
2.60381e-18
2.60033e-18
-1.68247e-18
-2.23362e-19
4.5602e-18
3.15367e-18
6.09867e-18
-2.36316e-18
9.14311e-19
3.70368e-18
-4.22527e-18
-4.52868e-18
1.02015e-17
-1.66704e-18
-2.94597e-18
2.75672e-18
5.79789e-18
2.33193e-18
1.3664e-17
-2.14867e-18
-1.36344e-18
6.82949e-18
-3.35272e-18
-8.87742e-18
1.59218e-17
-3.62268e-18
-4.17663e-18
6.63042e-18
7.32543e-18
5.64988e-18
1.91702e-17
-1.32052e-18
-2.21136e-18
9.28744e-18
-4.32378e-18
-8.83676e-18
2.05451e-17
-3.12247e-18
-5.71734e-18
8.85204e-18
8.09551e-18
1.03288e-18
2.29284e-17
-5.61466e-18
-3.77761e-18
-4.50911e-18
-7.19267e-18
2.39423e-17
-2.86746e-18
-6.70684e-18
9.06536e-18
3.22015e-18
2.61384e-17
-3.6374e-18
-4.71096e-18
-2.30023e-18
-9.10384e-18
2.60018e-17
-6.35243e-18
-7.14173e-18
9.64248e-18
3.98375e-18
2.96555e-17
-4.16768e-18
-5.38749e-18
-2.20738e-18
-6.15601e-18
2.57954e-17
-3.55354e-18
-6.75659e-18
6.75582e-18
3.82191e-18
3.30753e-17
-4.51845e-18
-7.19717e-18
-4.35868e-18
-4.1397e-18
2.95481e-17
-4.49303e-18
-8.84941e-18
8.06733e-18
9.13521e-18
3.0404e-17
-1.40795e-18
-7.13639e-18
-3.20063e-18
-4.96286e-18
3.14756e-17
-3.57724e-18
-8.79441e-18
9.34925e-18
8.87971e-18
3.23597e-17
-1.3541e-18
-7.58782e-18
-1.72648e-18
2.45057e-18
2.86495e-17
-7.63803e-19
-8.16551e-18
8.87996e-18
1.17094e-17
3.40613e-17
-6.32309e-19
-7.30352e-18
-1.83134e-18
2.65589e-18
3.04382e-17
-1.50948e-19
-8.13976e-18
3.23486e-18
1.94738e-17
3.27306e-17
2.02483e-18
-7.91435e-18
7.48682e-18
4.16797e-18
2.98812e-17
7.6677e-19
-6.95368e-18
9.75698e-18
2.16515e-17
3.15384e-17
2.83293e-18
-6.37333e-18
8.23305e-18
8.93363e-18
2.88454e-17
3.21889e-18
-6.34638e-18
9.412e-18
2.60054e-17
3.02685e-17
3.82898e-18
-6.49617e-18
9.1918e-18
1.68653e-17
2.97453e-17
7.57828e-18
-5.55206e-18
1.00498e-17
2.66407e-17
2.73866e-17
4.25757e-18
-6.00202e-18
8.30543e-18
1.72207e-17
2.75503e-17
7.73795e-18
-5.49127e-18
1.08733e-17
3.03809e-17
2.67671e-17
5.77648e-18
-5.39645e-18
1.01323e-17
2.1233e-17
2.7414e-17
1.03081e-17
-4.58639e-18
1.14268e-17
3.33093e-17
2.49832e-17
7.19976e-18
-4.51771e-18
1.02893e-17
2.69926e-17
2.57176e-17
1.28282e-17
-4.06274e-18
1.39023e-17
3.44562e-17
2.50154e-17
7.90328e-18
-4.28656e-18
1.08575e-17
2.65515e-17
2.38652e-17
1.22842e-17
-3.64946e-18
1.06208e-17
3.6285e-17
2.26611e-17
9.17313e-18
-3.55478e-18
9.21021e-18
2.80679e-17
2.19275e-17
1.36058e-17
-3.00412e-18
1.29838e-17
3.89406e-17
2.23194e-17
1.14018e-17
-2.58639e-18
1.00104e-17
3.49521e-17
2.04944e-17
1.60302e-17
-2.48227e-18
1.03927e-17
3.76994e-17
2.11842e-17
1.21665e-17
-1.56749e-18
1.01416e-17
3.23857e-17
1.88308e-17
1.55629e-17
-2.18436e-18
1.05391e-17
3.9248e-17
1.8684e-17
1.26403e-17
-1.42447e-18
1.0555e-17
3.51721e-17
1.88723e-17
1.70726e-17
-1.6648e-18
1.03805e-17
4.21799e-17
1.91489e-17
1.48369e-17
-8.04251e-19
1.08225e-17
3.7591e-17
1.83071e-17
1.83824e-17
-1.25677e-18
1.04008e-17
4.46063e-17
1.89482e-17
1.58424e-17
-5.66065e-19
1.17051e-17
3.99467e-17
1.79831e-17
2.01334e-17
-7.62242e-19
1.05914e-17
4.81587e-17
1.78811e-17
1.64102e-17
-1.4284e-19
1.12246e-17
4.24443e-17
1.77753e-17
2.16804e-17
-2.53702e-19
1.07038e-17
5.31132e-17
1.88665e-17
1.84714e-17
2.68734e-19
1.01809e-17
4.61301e-17
1.83399e-17
2.41492e-17
-2.86354e-19
1.40141e-17
5.7993e-17
1.77085e-17
1.89605e-17
1.09173e-19
1.25527e-17
4.89078e-17
1.81429e-17
2.63923e-17
-7.77826e-20
1.40234e-17
6.33128e-17
1.84284e-17
1.98497e-17
4.8804e-19
1.3636e-17
5.47438e-17
1.96949e-17
3.11087e-17
2.86836e-18
1.3997e-17
6.57071e-17
1.82581e-17
2.02079e-17
6.89595e-19
1.33318e-17
5.47596e-17
1.98588e-17
3.2943e-17
1.62513e-18
1.63125e-17
6.82482e-17
1.87874e-17
2.1233e-17
9.17219e-19
1.52973e-17
5.68781e-17
2.02377e-17
3.47649e-17
1.79389e-18
1.61583e-17
7.08217e-17
1.76081e-17
2.10749e-17
9.01997e-19
1.48892e-17
5.83539e-17
1.88287e-17
3.51285e-17
2.36248e-18
1.50178e-17
7.27802e-17
1.73728e-17
2.25603e-17
1.24092e-18
1.56555e-17
6.35468e-17
2.02031e-17
3.75449e-17
3.01729e-18
1.65582e-17
7.53943e-17
1.74355e-17
2.4526e-17
1.78363e-18
1.58376e-17
6.65843e-17
1.90211e-17
3.7855e-17
3.39365e-18
)
;
    }
    wedge2
    {
        type            wedge;
        value           nonuniform List<scalar> 
344
(
2.55309e-18
6.70231e-19
-2.241e-18
-7.67228e-19
1.35027e-18
4.3463e-19
-3.92665e-18
-2.01229e-18
7.16331e-19
2.13032e-18
5.70673e-21
-1.6639e-18
3.12048e-18
-1.34875e-18
5.3415e-18
-3.57677e-18
1.18052e-18
1.80196e-18
-4.48872e-18
-1.54432e-18
8.24227e-18
2.11577e-18
-3.06712e-18
6.82701e-19
4.95574e-18
4.8937e-18
1.01901e-17
-1.20322e-18
-1.01064e-18
4.25896e-18
-4.32769e-18
4.52158e-19
1.23374e-17
-1.64033e-18
-4.30744e-18
2.68783e-18
5.57819e-18
1.21905e-17
1.53937e-17
-9.77501e-19
-3.10299e-18
5.11825e-18
-4.33187e-18
-1.84366e-18
1.69743e-17
-4.07517e-18
-6.54969e-18
4.57955e-18
7.81329e-18
1.15303e-17
1.99061e-17
-1.41653e-18
-4.38831e-18
6.91619e-18
-3.99248e-18
3.5797e-18
2.12976e-17
-1.05864e-18
-7.525e-18
9.36138e-18
1.08299e-17
2.35007e-17
-2.96382e-18
-5.64627e-18
-3.82956e-18
8.48587e-19
2.40046e-17
-2.74713e-18
-8.56299e-18
8.10739e-18
1.44782e-17
2.63653e-17
-1.53696e-18
-6.93754e-18
-3.42941e-18
1.49259e-18
2.44952e-17
-3.92803e-18
-9.40683e-18
8.76842e-18
1.15666e-17
3.1222e-17
-4.44184e-18
-9.28682e-18
7.54983e-20
1.7733e-18
2.55725e-17
-3.80341e-18
-9.68952e-18
1.14839e-17
9.79032e-18
2.97859e-17
-3.83764e-18
-8.34103e-18
-1.00341e-18
-3.03585e-18
2.69392e-17
-7.71881e-18
-1.01245e-17
1.02012e-17
1.05195e-17
2.7377e-17
-4.62847e-18
-8.39284e-18
-2.23244e-18
-3.46762e-18
2.577e-17
-6.71491e-18
-9.42592e-18
8.81458e-18
3.79691e-18
2.64347e-17
-8.22143e-18
-8.6035e-18
-1.89755e-18
-6.50478e-18
2.20256e-17
-7.13023e-18
-9.17441e-18
8.54182e-18
2.44227e-18
2.44219e-17
-7.43071e-18
-7.98612e-18
2.69923e-18
-1.37151e-17
2.07692e-17
-1.05312e-17
-6.49287e-18
-9.37129e-19
6.57643e-19
2.23033e-17
-7.9609e-18
-8.42406e-18
-3.23133e-18
-1.69502e-17
1.93518e-17
-9.8436e-18
-8.6257e-18
-2.22351e-18
-4.37149e-18
2.06238e-17
-1.00234e-17
-8.24615e-18
-3.51778e-18
-2.15737e-17
1.7758e-17
-1.04268e-17
-7.69475e-18
-3.10313e-18
-1.16807e-17
1.4947e-17
-1.50899e-17
-8.24693e-18
-4.37881e-18
-2.24663e-17
1.7966e-17
-1.04803e-17
-7.40205e-18
-2.79434e-18
-1.31787e-17
1.64387e-17
-1.37644e-17
-7.53569e-18
-5.28864e-18
-2.64598e-17
1.59416e-17
-1.16244e-17
-7.27118e-18
-5.2776e-18
-1.7436e-17
1.40071e-17
-1.59691e-17
-7.69598e-18
-6.2767e-18
-2.96406e-17
1.50744e-17
-1.26638e-17
-7.37166e-18
-5.44355e-18
-2.25715e-17
1.30879e-17
-1.91525e-17
-7.48498e-18
-8.93534e-18
-3.10123e-17
1.26932e-17
-1.30404e-17
-6.93462e-18
-6.16014e-18
-2.32203e-17
1.26406e-17
-1.72492e-17
-7.20959e-18
-6.29257e-18
-3.308e-17
1.25134e-17
-1.39454e-17
-6.93509e-18
-5.01121e-18
-2.49854e-17
1.20276e-17
-1.82133e-17
-7.14498e-18
-8.89127e-18
-3.5961e-17
1.05326e-17
-1.58467e-17
-7.2264e-18
-5.91704e-18
-3.1314e-17
1.12086e-17
-2.12329e-17
-6.99786e-18
-6.5348e-18
-3.49334e-17
9.39661e-18
-1.62968e-17
-7.60763e-18
-6.27498e-18
-2.97218e-17
1.07233e-17
-1.95466e-17
-6.69029e-18
-7.08592e-18
-3.66849e-17
9.75238e-18
-1.64587e-17
-7.10474e-18
-7.12916e-18
-3.27254e-17
8.3238e-18
-2.07177e-17
-6.5087e-18
-7.11052e-18
-3.9835e-17
6.97348e-18
-1.83383e-17
-7.07586e-18
-7.72649e-18
-3.53252e-17
6.97772e-18
-2.17622e-17
-6.35755e-18
-7.15581e-18
-4.24248e-17
5.41386e-18
-1.90872e-17
-6.75758e-18
-8.64138e-18
-3.78725e-17
5.24879e-18
-2.3226e-17
-6.24815e-18
-7.70012e-18
-4.61837e-17
4.29879e-18
-1.93554e-17
-6.58033e-18
-8.56398e-18
-4.05512e-17
3.5589e-18
-2.45031e-17
-6.19244e-18
-8.05877e-18
-5.12952e-17
1.63575e-18
-2.11733e-17
-6.43313e-18
-7.77689e-18
-4.43916e-17
1.26124e-18
-2.67324e-17
-5.61435e-18
-1.18631e-17
-5.63264e-17
1.09617e-18
-2.14386e-17
-5.79292e-18
-1.04274e-17
-4.73099e-17
-1.66923e-20
-2.87752e-17
-5.3993e-18
-1.1819e-17
-6.17862e-17
-1.08104e-18
-2.21147e-17
-5.71054e-18
-1.16547e-17
-5.28375e-17
-4.72802e-18
-3.37679e-17
-7.02644e-18
-1.21618e-17
-6.43312e-17
-2.61902e-18
-2.22456e-17
-5.39393e-18
-1.16111e-17
-5.34282e-17
-4.6954e-18
-3.49204e-17
-6.19092e-18
-1.45914e-17
-6.69469e-17
-3.98877e-18
-2.31598e-17
-5.35466e-18
-1.36595e-17
-5.56211e-17
-5.90765e-18
-3.66271e-17
-6.03976e-18
-1.45328e-17
-6.96244e-17
-3.97711e-18
-2.28436e-17
-4.97073e-18
-1.33326e-17
-5.72205e-17
-5.89256e-18
-3.68064e-17
-6.22573e-18
-1.35118e-17
-7.16949e-17
-4.98514e-18
-2.41627e-17
-4.87685e-18
-1.42721e-17
-6.2491e-17
-8.14094e-18
-3.91043e-17
-6.596e-18
-1.51597e-17
-7.43515e-17
-5.57521e-18
-2.60618e-17
-5.2577e-18
-1.44417e-17
-6.5548e-17
-7.28394e-18
-3.93838e-17
-6.81041e-18
)
;
    }
    axis
    {
        type            empty;
        value           nonuniform 0();
    }
    procBoundary0to1
    {
        type            processor;
        value           nonuniform List<scalar> 5(1.12942e-05 3.38846e-05 5.64816e-05 7.909e-05 0.000101715);
    }
    procBoundary0to6
    {
        type            processor;
        value           nonuniform List<scalar> 
68
(
-2.98591e-07
-3.13185e-07
-3.24205e-07
-3.31659e-07
-3.3591e-07
-3.3762e-07
-3.37065e-07
-3.34453e-07
-3.30238e-07
-3.24739e-07
-3.18328e-07
-3.11447e-07
-3.0401e-07
-2.95931e-07
-2.87804e-07
-2.79977e-07
-2.72079e-07
-2.6401e-07
-2.56044e-07
-2.48215e-07
-2.40635e-07
-2.33492e-07
-2.26353e-07
-2.18806e-07
-2.11414e-07
-2.04718e-07
-1.98218e-07
-1.91397e-07
-1.84504e-07
-1.77789e-07
-1.71255e-07
-1.65146e-07
-1.59426e-07
-1.53359e-07
-1.46672e-07
-1.40256e-07
-1.34821e-07
-1.29841e-07
-1.24559e-07
-1.18985e-07
-1.13432e-07
-1.08058e-07
-1.03203e-07
-9.92132e-08
-9.56533e-08
-9.15386e-08
-8.66446e-08
-8.19594e-08
-7.8499e-08
-7.62025e-08
-7.41391e-08
-7.15469e-08
-6.82671e-08
-6.48334e-08
-6.18578e-08
-6.01109e-08
-5.93086e-08
-5.92537e-08
-2.9228e-08
-8.72454e-08
-1.44134e-07
-1.98734e-07
-2.50147e-07
-2.97645e-07
-3.40522e-07
-3.78318e-07
0.000119449
-4.10873e-07
)
;
    }
}


// ************************************************************************* //
