/*--------------------------------*- C++ -*----------------------------------*\
  =========                 |
  \\      /  F ield         | OpenFOAM: The Open Source CFD Toolbox
   \\    /   O peration     | Website:  https://openfoam.org
    \\  /    A nd           | Version:  7
     \\/     M anipulation  |
\*---------------------------------------------------------------------------*/
FoamFile
{
    version     2.0;
    format      ascii;
    class       volVectorField;
    location    "116.000248";
    object      U;
}
// * * * * * * * * * * * * * * * * * * * * * * * * * * * * * * * * * * * * * //

dimensions      [0 1 -1 0 0 0 0];

internalField   nonuniform List<vector> 
5800
(
(-0.00101128 0.0306638 -3.44552e-21)
(-0.00432191 0.080542 -1.20655e-20)
(-0.01041 0.121505 2.19964e-21)
(-0.0186614 0.153598 8.27591e-21)
(-0.028805 0.177357 3.52041e-21)
(-0.0405093 0.193916 -8.58089e-21)
(-0.0533309 0.204839 -2.74161e-21)
(-0.0667968 0.211856 -1.0793e-21)
(-0.0804556 0.216533 -9.93884e-21)
(-0.0939103 0.219984 -1.93688e-21)
(0.00750645 0.0159476 -6.03123e-21)
(0.039204 0.036104 -2.04847e-20)
(0.0970875 0.0468637 3.74879e-21)
(0.163964 0.0508163 1.35764e-20)
(0.23232 0.0505928 5.55317e-21)
(0.298616 0.0483159 -1.32425e-20)
(0.36114 0.0453276 -3.99746e-21)
(0.419445 0.0422678 -1.60779e-21)
(0.473598 0.0393533 -8.02422e-21)
(0.523784 0.0366275 -7.08974e-21)
(0.570213 0.0340879 -8.81728e-21)
(0.0072312 -0.0020047 6.06631e-21)
(0.0385759 -0.00390211 2.05774e-20)
(0.0962521 -0.00416716 -3.76965e-21)
(0.163031 -0.00356388 -1.36305e-20)
(0.231361 -0.00256733 -5.57457e-21)
(0.297668 -0.00146229 1.32892e-20)
(0.360221 -0.00040023 4.02115e-21)
(0.41856 0.000557752 1.61995e-21)
(0.472746 0.00139705 1.3438e-20)
(0.522966 0.00212197 2.33822e-21)
(0.569428 0.00274272 8.85995e-21)
(0.612342 0.00327037 -1.26117e-21)
(0.651916 0.00371564 4.11846e-21)
(0.688355 0.0040885 -6.88187e-21)
(0.721858 0.00439801 8.18176e-21)
(0.752621 0.0046521 8.28882e-21)
(0.780832 0.00485725 2.30271e-21)
(0.806651 0.00501854 -1.15627e-20)
(0.830205 0.00513916 9.21909e-21)
(0.851664 0.00521097 -1.32454e-21)
(0.00834067 -0.0198859 -8.92235e-21)
(0.0409627 -0.0437676 -1.33627e-20)
(0.0991796 -0.0550393 -4.10963e-21)
(0.166045 -0.0577938 -1.18194e-20)
(0.234214 -0.0555955 2.56229e-21)
(0.300253 -0.0511273 -1.69891e-20)
(0.362514 -0.0460311 -6.14897e-21)
(0.420572 -0.041069 -1.30927e-20)
(0.474503 -0.0364879 7.16679e-21)
(0.524494 -0.0323228 -1.68159e-20)
(0.57075 -0.0285513 -5.07061e-20)
(0.61348 -0.0251423 7.98991e-21)
(0.652892 -0.022065 -1.09835e-20)
(0.689187 -0.0192897 6.4531e-21)
(0.722563 -0.0167886 -1.51627e-20)
(0.753215 -0.0145366 1.5477e-21)
(0.78133 -0.0125104 -7.67273e-21)
(0.807072 -0.0106799 4.30691e-20)
(0.830558 -0.00900459 -4.16226e-21)
(0.85192 -0.00749172 5.18726e-21)
(0.0108178 -0.0375294 -2.73732e-20)
(0.0463326 -0.0831652 -2.66833e-20)
(0.105835 -0.10538 6.09397e-21)
(0.172975 -0.111515 1.29364e-20)
(0.240852 -0.108168 5.3549e-21)
(0.306346 -0.100394 -1.65142e-20)
(0.367996 -0.0913123 -2.35366e-20)
(0.425465 -0.0823879 4.93218e-20)
(0.478853 -0.0741015 -1.32699e-20)
(0.528351 -0.066529 1.71975e-20)
(0.574165 -0.0596361 2.65881e-20)
(0.616497 -0.0533721 4.48711e-21)
(0.655552 -0.0476864 7.39343e-21)
(0.69153 -0.0425301 1.58312e-20)
(0.724622 -0.0378566 -1.60362e-20)
(0.755019 -0.0336242 1.51416e-20)
(0.782914 -0.0297933 -1.76403e-21)
(0.808475 -0.0263095 -4.21057e-20)
(0.831804 -0.023102 2.77674e-20)
(0.852951 -0.0201956 -2.23646e-20)
(0.014628 -0.0547717 2.10346e-20)
(0.0546209 -0.121772 -3.34794e-20)
(0.116149 -0.154822 4.92439e-20)
(0.183755 -0.164372 -2.21319e-20)
(0.251218 -0.159966 1.15939e-19)
(0.315899 -0.148979 6.77405e-20)
(0.376627 -0.135994 -4.13305e-20)
(0.4332 -0.123177 -9.63663e-20)
(0.485762 -0.111246 3.75235e-20)
(0.534511 -0.100321 2.5159e-20)
(0.579647 -0.0903553 3.31479e-20)
(0.62137 -0.0812804 -6.43162e-20)
(0.659879 -0.0730258 -7.38481e-20)
(0.695366 -0.0655238 5.52795e-20)
(0.728018 -0.0587097 4.25092e-20)
(0.758021 -0.0525254 -1.43091e-20)
(0.785569 -0.046915 3.09735e-20)
(0.810843 -0.0417998 1.90378e-21)
(0.833914 -0.0370834 -4.51449e-20)
(0.854696 -0.0328228 -1.40619e-20)
(0.0197196 -0.0714535 -7.75525e-20)
(0.0657312 -0.159273 -2.13951e-20)
(0.130015 -0.203003 -7.41424e-20)
(0.198289 -0.216017 2.1203e-20)
(0.265228 -0.210675 -1.09898e-19)
(0.328838 -0.196605 -6.46922e-20)
(0.388342 -0.179831 7.51973e-20)
(0.443721 -0.163218 9.17554e-20)
(0.495181 -0.147727 -8.09456e-20)
(0.542928 -0.133525 2.1022e-20)
(0.587159 -0.120555 -2.91858e-20)
(0.628066 -0.108731 1.11934e-19)
(0.66584 -0.0979624 -3.50084e-20)
(0.700668 -0.0881639 -1.21348e-20)
(0.732729 -0.0792533 -7.05909e-21)
(0.7622 -0.0711568 -2.43767e-20)
(0.789278 -0.0638013 -5.89352e-20)
(0.814162 -0.0570828 -1.17535e-21)
(0.836884 -0.0508825 1.60343e-20)
(0.857181 -0.0452962 -1.50777e-20)
(0.0260243 -0.0874216 -5.05296e-20)
(0.0795356 -0.195362 -2.12014e-20)
(0.147294 -0.249573 1.19805e-19)
(0.216446 -0.26611 6.55278e-20)
(0.282769 -0.259988 2.7007e-20)
(0.345068 -0.243001 -8.27404e-20)
(0.403058 -0.222584 -9.46296e-20)
(0.456955 -0.202299 1.12412e-20)
(0.507044 -0.183356 2.15847e-20)
(0.553545 -0.165973 1.60522e-20)
(0.596649 -0.150087 5.20673e-20)
(0.636539 -0.135591 -1.14252e-19)
(0.673397 -0.122378 1.71278e-21)
(0.707403 -0.110346 3.92519e-20)
(0.738725 -0.0993954 2.22407e-21)
(0.767529 -0.0894372 -7.67847e-21)
(0.794018 -0.0803814 -1.93363e-20)
(0.81841 -0.0720984 7.15768e-20)
(0.840692 -0.0644524 -3.07478e-20)
(0.860388 -0.0575929 2.47754e-20)
(0.0334578 -0.102531 7.99286e-20)
(0.0958761 -0.229748 -4.21605e-20)
(0.167813 -0.294194 -4.84413e-20)
(0.238067 -0.314323 -4.50045e-20)
(0.303702 -0.307608 -8.83684e-20)
(0.364467 -0.287906 -1.13043e-20)
(0.42067 -0.264021 1.52526e-20)
(0.47281 -0.240214 -3.40956e-20)
(0.521271 -0.217951 4.88389e-20)
(0.566291 -0.197503 4.10084e-21)
(0.608054 -0.178804 -2.02803e-20)
(0.646733 -0.161731 9.24043e-20)
(0.682502 -0.14616 2.69264e-20)
(0.715527 -0.13197 -2.64038e-20)
(0.745967 -0.119047 5.81034e-20)
(0.773976 -0.107288 -6.10367e-20)
(0.799758 -0.0965855 -6.48677e-21)
(0.823558 -0.0867841 7.47316e-21)
(0.845315 -0.0777351 8.29178e-20)
(0.864309 -0.0696564 -4.60581e-20)
(0.041921 -0.116646 2.71745e-20)
(0.114566 -0.262154 3.19723e-20)
(0.191368 -0.336545 1.39953e-19)
(0.262961 -0.360341 5.89988e-20)
(0.327861 -0.353251 2.01767e-19)
(0.386895 -0.331067 1.68142e-20)
(0.441055 -0.303922 9.35251e-20)
(0.491178 -0.276767 6.46887e-20)
(0.537765 -0.251335 -1.38019e-19)
(0.58108 -0.227959 -2.17111e-20)
(0.621299 -0.20657 -5.06e-20)
(0.658583 -0.18703 -6.25221e-20)
(0.693094 -0.169198 2.06193e-20)
(0.724989 -0.152938 6.36272e-20)
(0.754411 -0.138121 -5.56995e-20)
(0.781501 -0.124632 -4.85922e-20)
(0.806464 -0.112346 4.7202e-20)
(0.829573 -0.10108 -6.26789e-20)
(0.850726 -0.0906761 -8.94627e-20)
(0.86893 -0.0814374 -2.39754e-20)
(0.0513007 -0.129643 -7.83299e-20)
(0.135389 -0.292322 -7.9243e-20)
(0.217721 -0.376321 -4.1598e-20)
(0.290908 -0.403867 -9.83539e-20)
(0.355055 -0.396646 -4.83051e-20)
(0.412186 -0.372247 -1.1351e-19)
(0.46407 -0.342075 -9.82393e-20)
(0.511933 -0.311771 3.65503e-20)
(0.556417 -0.283343 5.60594e-20)
(0.597814 -0.257193 -9.80145e-20)
(0.636297 -0.233253 6.08596e-20)
(0.672013 -0.211369 -4.04108e-20)
(0.705109 -0.191388 -5.38763e-20)
(0.73573 -0.173157 -5.60958e-20)
(0.764005 -0.156537 1.56995e-19)
(0.790059 -0.141398 6.92592e-20)
(0.814097 -0.1276 1.64901e-20)
(0.836419 -0.114931 -7.10935e-20)
(0.856892 -0.103224 1.48349e-19)
(0.874234 -0.0928867 5.49593e-20)
(0.0614712 -0.141409 -1.01165e-19)
(0.158107 -0.320016 1.15739e-19)
(0.246607 -0.413241 1.12952e-19)
(0.321662 -0.44462 1.18638e-19)
(0.385068 -0.437537 7.10644e-20)
(0.440157 -0.411219 1.71706e-20)
(0.489557 -0.378282 1.12784e-19)
(0.534935 -0.345052 -1.36162e-19)
(0.577102 -0.313819 -3.7874e-20)
(0.616386 -0.285067 -3.13576e-20)
(0.652953 -0.258728 1.39986e-19)
(0.686937 -0.234639 -1.91983e-20)
(0.718471 -0.212633 1.63319e-20)
(0.747685 -0.192543 3.32065e-21)
(0.774693 -0.174216 5.55774e-20)
(0.799601 -0.157517 -6.90853e-20)
(0.822611 -0.142287 1.37776e-20)
(0.844056 -0.128283 1.55896e-19)
(0.863781 -0.115329 -2.24533e-20)
(0.8802 -0.103957 -9.90997e-20)
(0.0722953 -0.151847 -5.96142e-20)
(0.182454 -0.345022 2.00382e-20)
(0.277732 -0.447045 -1.20079e-19)
(0.354947 -0.482342 -5.88729e-20)
(0.417663 -0.475688 -7.76861e-20)
(0.470604 -0.447775 -6.28079e-21)
(0.517339 -0.412361 -1.51059e-19)
(0.560032 -0.376446 1.32718e-19)
(0.599685 -0.34262 5.77284e-20)
(0.636674 -0.311451 2.44003e-20)
(0.67116 -0.282882 -1.35541e-19)
(0.703262 -0.256739 2.41673e-20)
(0.733097 -0.232841 -1.66947e-20)
(0.760781 -0.211012 -7.22502e-20)
(0.78641 -0.191089 -6.7284e-20)
(0.81007 -0.172925 1.09532e-19)
(0.831958 -0.15635 5.47893e-20)
(0.852441 -0.141087 -3.17414e-20)
(0.871355 -0.126947 -8.72871e-20)
(0.886806 -0.114602 1.31423e-20)
(0.0836262 -0.160873 8.08514e-20)
(0.208146 -0.367153 3.62159e-20)
(0.310777 -0.4775 4.4092e-20)
(0.390466 -0.516795 5.00396e-20)
(0.452578 -0.51088 -5.28277e-20)
(0.503303 -0.481721 1.17779e-19)
(0.547224 -0.444141 -1.16547e-19)
(0.587054 -0.405807 -4.42129e-21)
(0.624018 -0.369613 9.19027e-20)
(0.658548 -0.336228 1.90376e-20)
(0.690804 -0.305609 8.01844e-20)
(0.720888 -0.277573 -3.34329e-20)
(0.748901 -0.25193 2.06103e-20)
(0.774941 -0.228492 1.32504e-19)
(0.799089 -0.207086 -8.13052e-21)
(0.821409 -0.187562 -3.85929e-20)
(0.842086 -0.169738 -8.12423e-20)
(0.861526 -0.153299 -1.32092e-19)
(0.879574 -0.138035 -2.0119e-20)
(0.894026 -0.124781 1.31339e-19)
(0.0953088 -0.168421 9.26751e-20)
(0.234877 -0.386249 2.53222e-21)
(0.3454 -0.504402 -1.70606e-19)
(0.427894 -0.547767 6.70921e-20)
(0.489532 -0.542917 7.03577e-22)
(0.538016 -0.512885 7.23361e-20)
(0.579008 -0.473473 6.8766e-20)
(0.615824 -0.432999 -5.66872e-21)
(0.649943 -0.39468 -3.89862e-20)
(0.681869 -0.359294 -1.34316e-19)
(0.711761 -0.326815 4.0818e-20)
(0.739706 -0.297059 1.67617e-19)
(0.765785 -0.269824 -1.17464e-19)
(0.790082 -0.244914 -9.64014e-20)
(0.812657 -0.22215 -6.01462e-20)
(0.833552 -0.201375 -1.42918e-19)
(0.852938 -0.182401 4.14394e-20)
(0.87126 -0.164876 1.97735e-19)
(0.888394 -0.148559 -2.95038e-20)
(0.901831 -0.134457 -3.72157e-20)
(0.107182 -0.174441 3.77761e-20)
(0.262327 -0.402179 -6.11029e-20)
(0.381236 -0.527575 5.24723e-20)
(0.466888 -0.575074 -8.50466e-20)
(0.528225 -0.571625 9.30825e-20)
(0.574487 -0.541112 -9.39684e-20)
(0.612471 -0.500221 -2.33449e-20)
(0.646151 -0.457906 1.00975e-19)
(0.677294 -0.417717 -7.6697e-20)
(0.70649 -0.380553 8.53181e-20)
(0.733903 -0.346417 -1.00269e-19)
(0.759602 -0.31512 -5.83948e-20)
(0.783651 -0.286456 -4.04383e-20)
(0.806115 -0.260219 6.28816e-20)
(0.827037 -0.236224 1.30128e-20)
(0.846432 -0.214315 7.6855e-20)
(0.864455 -0.194297 -5.12162e-20)
(0.881589 -0.175783 -3.6795e-21)
(0.897769 -0.158486 7.66524e-20)
(0.91019 -0.143596 -3.49793e-20)
(0.11908 -0.1789 -8.89876e-21)
(0.290161 -0.414845 -3.60858e-20)
(0.417902 -0.546877 -6.74073e-21)
(0.507085 -0.598557 -1.86487e-20)
(0.56834 -0.596852 -6.36794e-20)
(0.612446 -0.566269 -5.4238e-20)
(0.647384 -0.524271 -3.53781e-20)
(0.677836 -0.480428 -4.98239e-20)
(0.705897 -0.438635 1.0297e-19)
(0.732258 -0.399928 1.04856e-20)
(0.757093 -0.364344 1.57336e-19)
(0.780457 -0.331694 4.85012e-20)
(0.802393 -0.301768 5.24193e-20)
(0.822948 -0.274355 -8.3486e-20)
(0.842148 -0.249263 1.2654e-19)
(0.85998 -0.226339 -2.231e-20)
(0.876573 -0.205389 -1.37356e-20)
(0.892454 -0.185991 -1.09209e-19)
(0.907648 -0.167795 5.03334e-20)
(0.919073 -0.152176 -4.08301e-20)
(0.130834 -0.181786 -6.55375e-20)
(0.318035 -0.424181 -3.05191e-20)
(0.454999 -0.562199 -4.37541e-20)
(0.548102 -0.618088 -3.77202e-20)
(0.609542 -0.618474 -1.05002e-20)
(0.651612 -0.588243 1.06413e-19)
(0.683507 -0.545525 9.28708e-20)
(0.710673 -0.50048 7.76425e-20)
(0.73557 -0.45736 -7.98694e-20)
(0.759012 -0.417353 -4.57692e-20)
(0.781192 -0.380536 -1.62861e-19)
(0.802148 -0.346727 1.25955e-19)
(0.821903 -0.315711 -4.85485e-20)
(0.840487 -0.287276 8.71233e-20)
(0.857909 -0.261226 -6.47336e-20)
(0.874125 -0.237407 2.39088e-20)
(0.88923 -0.215634 -3.16174e-20)
(0.903792 -0.195458 9.70696e-20)
(0.917973 -0.176455 -7.61068e-20)
(0.928447 -0.160173 -3.34449e-20)
(0.142276 -0.183102 6.88635e-20)
(0.345597 -0.430156 -2.53898e-20)
(0.492116 -0.573466 5.08491e-20)
(0.589544 -0.633571 5.44027e-20)
(0.651484 -0.63639 -1.59972e-20)
(0.69169 -0.606945 -1.11678e-19)
(0.720593 -0.563909 7.95027e-20)
(0.744448 -0.517999 -1.68904e-20)
(0.766127 -0.473836 2.49558e-20)
(0.78659 -0.432776 3.12591e-20)
(0.806056 -0.394946 -6.17035e-20)
(0.824548 -0.360175 -1.47417e-19)
(0.84207 -0.328247 6.61475e-21)
(0.858634 -0.298949 -1.49993e-20)
(0.874232 -0.272081 4.17593e-21)
(0.888793 -0.247494 7.32327e-20)
(0.90236 -0.225017 -7.05713e-20)
(0.915533 -0.204187 -1.07416e-19)
(0.928676 -0.184498 -2.74577e-20)
(0.938287 -0.167622 5.59612e-20)
(0.153239 -0.182874 1.33123e-21)
(0.372493 -0.432773 -1.97291e-20)
(0.528833 -0.580642 8.25247e-21)
(0.631002 -0.644941 -3.81506e-20)
(0.693807 -0.65053 -1.42831e-20)
(0.732378 -0.62231 -7.97562e-21)
(0.758386 -0.579365 1.48492e-20)
(0.778945 -0.532937 -5.6739e-20)
(0.79738 -0.488022 -1.39023e-20)
(0.814826 -0.44616 3.74071e-20)
(0.831538 -0.407541 2.56879e-20)
(0.847529 -0.372008 9.02787e-20)
(0.862783 -0.339347 8.91959e-20)
(0.877289 -0.309345 -2.31933e-20)
(0.891032 -0.2818 5.92256e-21)
(0.903915 -0.256566 2.37847e-20)
(0.91591 -0.233481 9.11586e-20)
(0.927611 -0.212079 1.06086e-19)
(0.939666 -0.191783 1.17953e-19)
(0.948583 -0.174423 -1.57701e-20)
(0.163561 -0.181143 -1.17253e-20)
(0.398369 -0.432072 6.3812e-21)
(0.564722 -0.583727 8.2355e-21)
(0.672054 -0.652165 7.46132e-21)
(0.736137 -0.660847 -2.27007e-20)
(0.773361 -0.634295 9.52322e-20)
(0.796625 -0.591861 -3.18392e-20)
(0.813941 -0.545267 6.18281e-21)
(0.829136 -0.499894 -4.51815e-20)
(0.843552 -0.457484 -4.23324e-21)
(0.857491 -0.418301 7.87573e-20)
(0.870962 -0.382206 -4.11316e-20)
(0.883926 -0.348992 -1.53945e-20)
(0.896354 -0.318446 -3.61741e-20)
(0.908219 -0.29037 3.35545e-20)
(0.919412 -0.264618 -6.92724e-20)
(0.929821 -0.241053 2.61542e-20)
(0.939947 -0.219241 -1.81723e-20)
(0.950769 -0.198605 6.70372e-21)
(0.959307 -0.181071 3.24699e-20)
(0.173084 -0.177971 1.56898e-20)
(0.422875 -0.428129 -3.09725e-21)
(0.599354 -0.582759 -5.28107e-21)
(0.712274 -0.655246 4.66207e-21)
(0.778097 -0.667326 1.13036e-20)
(0.814323 -0.64288 -4.66484e-20)
(0.835047 -0.601381 -7.17039e-21)
(0.849213 -0.55498 -3.66669e-20)
(0.861205 -0.509446 5.4803e-20)
(0.8726 -0.466741 4.17062e-20)
(0.883768 -0.427218 -7.35819e-20)
(0.894717 -0.390761 5.52708e-20)
(0.905387 -0.357171 -4.72211e-20)
(0.915729 -0.326243 1.15178e-20)
(0.925705 -0.297777 -1.5157e-19)
(0.935209 -0.271625 5.93986e-21)
(0.944067 -0.247647 -5.20569e-20)
(0.95258 -0.225398 -7.55424e-20)
(0.961917 -0.204264 -4.51293e-20)
(0.970665 -0.186397 -7.35907e-20)
(0.181663 -0.173441 2.65144e-20)
(0.445667 -0.421052 -4.62629e-20)
(0.632301 -0.577816 1.77625e-20)
(0.75123 -0.654222 2.45395e-20)
(0.819299 -0.669979 1.11112e-20)
(0.854937 -0.648072 1.02534e-20)
(0.873383 -0.607933 -7.22624e-21)
(0.88454 -0.562084 -9.56054e-21)
(0.893393 -0.516686 -6.27466e-21)
(0.901803 -0.47394 -2.47267e-20)
(0.910222 -0.434298 1.88897e-20)
(0.918664 -0.397676 -5.17207e-20)
(0.927054 -0.363888 4.4877e-20)
(0.935318 -0.332734 4.46001e-20)
(0.943404 -0.304021 8.14536e-20)
(0.951222 -0.277595 2.84319e-20)
(0.958589 -0.253313 5.64207e-20)
(0.965551 -0.230834 6.206e-20)
(0.972886 -0.210126 5.55056e-20)
(0.981316 -0.193343 2.66415e-20)
(0.189185 -0.167654 6.07183e-20)
(0.46641 -0.410978 -1.84618e-20)
(0.663142 -0.569016 -2.89268e-20)
(0.788488 -0.649162 -6.60406e-20)
(0.859351 -0.668848 4.43297e-21)
(0.894876 -0.649899 2.39677e-20)
(0.911366 -0.611543 9.10838e-21)
(0.919697 -0.566608 3.23443e-22)
(0.925513 -0.521642 -1.38724e-20)
(0.930997 -0.479103 -5.21083e-21)
(0.936709 -0.439559 5.09947e-20)
(0.942679 -0.402966 1.13983e-20)
(0.948815 -0.369152 7.90763e-21)
(0.955024 -0.337928 -3.41217e-20)
(0.961233 -0.309109 -1.05084e-19)
(0.967366 -0.282538 3.25558e-20)
(0.973273 -0.258062 2.14726e-20)
(0.978829 -0.235456 -6.28834e-20)
(0.984314 -0.214968 -3.56994e-20)
(0.991055 -0.19736 -1.8571e-20)
(0.195562 -0.160698 -6.91108e-20)
(0.484786 -0.398049 4.6807e-20)
(0.69147 -0.556531 -9.82947e-20)
(0.823614 -0.640172 5.70034e-21)
(0.897858 -0.664004 3.74764e-20)
(0.933809 -0.648415 -5.29423e-20)
(0.948725 -0.612258 -3.19003e-20)
(0.954466 -0.568597 1.90375e-21)
(0.95738 -0.524356 7.03284e-21)
(0.960022 -0.482267 1.05959e-20)
(0.96309 -0.443033 -2.90788e-20)
(0.966637 -0.406657 -5.56047e-20)
(0.970563 -0.372986 1.94764e-20)
(0.974753 -0.341842 1.90796e-20)
(0.979114 -0.313051 5.26115e-20)
(0.983572 -0.286455 -8.51821e-21)
(0.988028 -0.261888 -2.47832e-22)
(0.992298 -0.239201 2.01973e-21)
(0.996246 -0.218812 -4.67849e-21)
(1.00104 -0.20071 -8.00975e-20)
(0.200637 -0.152602 8.92642e-20)
(0.500516 -0.382462 9.65778e-20)
(0.716899 -0.540589 1.01548e-19)
(0.856195 -0.627391 2.83112e-20)
(0.934427 -0.65555 -4.01035e-20)
(0.971403 -0.643693 -3.08322e-20)
(0.985194 -0.610143 -1.36533e-20)
(0.988629 -0.568111 1.42245e-20)
(0.988812 -0.524884 3.79107e-21)
(0.988723 -0.483484 -5.90533e-21)
(0.989228 -0.444763 4.29896e-21)
(0.990419 -0.408786 2.18674e-20)
(0.99219 -0.375418 -2.01614e-20)
(0.994413 -0.344498 2.61227e-22)
(0.99697 -0.315865 -1.17425e-20)
(0.999783 -0.289362 -7.67684e-21)
(1.0028 -0.264809 3.15166e-21)
(1.00584 -0.242118 -1.19573e-20)
(1.0085 -0.221845 1.28783e-20)
(1.0116 -0.203529 7.08546e-20)
(0.204265 -0.143573 6.109e-20)
(0.513344 -0.36459 -1.84188e-19)
(0.738887 -0.521316 9.43094e-20)
(0.885918 -0.611019 2.95497e-20)
(0.968679 -0.643625 -7.35182e-20)
(1.00733 -0.635832 4.7361e-20)
(1.0205 -0.605281 1.36866e-20)
(1.02197 -0.565227 -4.27773e-20)
(1.01963 -0.523297 5.60166e-21)
(1.01695 -0.482816 -5.07422e-21)
(1.01499 -0.444805 7.46171e-21)
(1.01391 -0.409398 3.0713e-21)
(1.0136 -0.376489 7.93814e-21)
(1.01391 -0.345931 -1.60506e-20)
(1.01472 -0.317579 9.42541e-21)
(1.01594 -0.291283 -2.45453e-21)
(1.01753 -0.266857 1.02221e-20)
(1.01935 -0.244251 -3.20233e-22)
(1.02084 -0.224122 1.4725e-20)
(1.02246 -0.205751 -2.15918e-20)
(0.206423 -0.133834 -8.8632e-21)
(0.523123 -0.344626 -6.84792e-20)
(0.757102 -0.499095 -5.97666e-20)
(0.912163 -0.59134 3.56147e-20)
(1.00032 -0.628311 -7.71771e-21)
(1.04126 -0.624938 4.09297e-20)
(1.05439 -0.59777 2.25555e-20)
(1.05429 -0.560037 1.21557e-20)
(1.04968 -0.519681 4.38306e-21)
(1.04456 -0.480339 5.76492e-21)
(1.04026 -0.443223 1.24682e-20)
(1.03701 -0.40855 -1.52287e-21)
(1.03469 -0.376245 5.61038e-22)
(1.03317 -0.34618 4.79635e-21)
(1.0323 -0.318227 -1.13472e-20)
(1.03198 -0.292247 2.03117e-20)
(1.03218 -0.268056 -1.5524e-20)
(1.03279 -0.24562 -1.23509e-20)
(1.03312 -0.225652 -6.95163e-21)
(1.03336 -0.207331 -1.11189e-20)
(0.207091 -0.123563 -2.36647e-20)
(0.52962 -0.322909 1.47212e-19)
(0.771468 -0.474212 4.96122e-20)
(0.93443 -0.568501 -1.3836e-19)
(1.02879 -0.609866 -2.71972e-20)
(1.0729 -0.611115 4.65614e-20)
(1.08659 -0.587718 2.07863e-20)
(1.08537 -0.552641 5.86871e-20)
(1.07878 -0.514129 -3.11133e-21)
(1.07143 -0.476141 4.49012e-21)
(1.06492 -0.440095 -8.98991e-21)
(1.0596 -0.406306 -9.00204e-21)
(1.05538 -0.374742 -8.40767e-22)
(1.05211 -0.345294 3.25586e-21)
(1.04963 -0.317849 -6.00449e-23)
(1.04783 -0.292288 -1.72922e-20)
(1.0467 -0.26843 -1.19174e-20)
(1.0461 -0.246241 1.31659e-20)
(1.0453 -0.22646 6.62999e-21)
(1.04424 -0.208281 -3.12391e-21)
(0.206252 -0.112896 1.36057e-19)
(0.532657 -0.299755 -1.94744e-19)
(0.781655 -0.446966 -1.75474e-19)
(0.95258 -0.542811 2.15264e-19)
(1.05365 -0.588477 5.54784e-20)
(1.10184 -0.59456 -3.50523e-20)
(1.11685 -0.575239 -6.86636e-20)
(1.11501 -0.543153 -7.26108e-20)
(1.10678 -0.50675 4.64999e-20)
(1.09741 -0.470318 1.05381e-20)
(1.08887 -0.435503 1.73662e-20)
(1.0816 -0.40274 1.23287e-20)
(1.07558 -0.372043 -4.42855e-21)
(1.07065 -0.343324 -2.09453e-21)
(1.06664 -0.316491 1.03854e-21)
(1.06344 -0.291442 5.4482e-21)
(1.06101 -0.268006 4.24533e-21)
(1.05925 -0.246139 -1.51702e-20)
(1.05735 -0.226581 -4.68571e-21)
(1.05507 -0.208634 6.26011e-21)
(0.203903 -0.101974 -1.47901e-19)
(0.532138 -0.275492 1.43602e-19)
(0.78737 -0.417728 -3.2698e-22)
(0.966301 -0.514571 -4.89631e-20)
(1.07462 -0.564388 -8.93902e-21)
(1.12771 -0.575442 -1.14131e-20)
(1.14486 -0.560483 -6.10382e-20)
(1.14302 -0.531694 6.29441e-20)
(1.13354 -0.497657 -8.4438e-20)
(1.12241 -0.462975 3.48638e-21)
(1.11199 -0.42954 -7.98299e-21)
(1.10292 -0.397931 -3.37327e-21)
(1.09522 -0.368215 3.40868e-21)
(1.08872 -0.34033 -1.50445e-20)
(1.08328 -0.314201 1.19537e-21)
(1.07874 -0.28975 2.6975e-21)
(1.07508 -0.266818 -6.6882e-21)
(1.07218 -0.245344 3.60353e-21)
(1.06924 -0.226055 1.49328e-21)
(1.06583 -0.208422 -9.1486e-21)
(0.200066 -0.0909536 2.25395e-20)
(0.528022 -0.25047 4.1375e-20)
(0.788408 -0.386896 7.68754e-20)
(0.975249 -0.484112 -4.05987e-20)
(1.09139 -0.537844 -1.13821e-19)
(1.15021 -0.553952 3.10865e-20)
(1.17037 -0.543609 5.15286e-20)
(1.16918 -0.518401 2.9534e-20)
(1.15888 -0.486968 6.95637e-20)
(1.14631 -0.454228 -1.63054e-20)
(1.13421 -0.422304 -7.2906e-21)
(1.12349 -0.391965 7.37698e-21)
(1.11422 -0.363333 -1.87491e-20)
(1.10627 -0.336372 -2.10189e-20)
(1.09947 -0.311032 -8.94035e-21)
(1.09369 -0.287256 7.70044e-21)
(1.08886 -0.264904 3.53463e-21)
(1.08487 -0.24389 -1.14314e-21)
(1.08094 -0.224913 -4.76664e-22)
(1.07648 -0.207663 1.39721e-21)
(0.194797 -0.079999 4.15579e-20)
(0.520321 -0.225047 8.47135e-21)
(0.784635 -0.354879 -1.07352e-19)
(0.979135 -0.451793 1.31897e-19)
(1.1036 -0.509116 2.47017e-20)
(1.16903 -0.530292 -1.27116e-19)
(1.1931 -0.524779 4.12963e-20)
(1.19333 -0.503405 -4.57594e-20)
(1.18273 -0.47483 1.04268e-21)
(1.16897 -0.444188 6.95769e-21)
(1.15544 -0.413888 1.66542e-20)
(1.14322 -0.384933 3.6702e-21)
(1.13254 -0.357476 4.5288e-20)
(1.12324 -0.331517 1.18604e-20)
(1.11519 -0.307041 -9.67133e-21)
(1.10823 -0.284009 -5.06675e-21)
(1.1023 -0.262301 8.33116e-22)
(1.09727 -0.241809 3.56198e-21)
(1.09241 -0.223189 -4.75692e-21)
(1.08699 -0.206373 -6.72517e-22)
(0.188174 -0.0692689 -4.83345e-20)
(0.509102 -0.199587 2.6592e-21)
(0.775985 -0.322103 2.24011e-20)
(0.977727 -0.417997 -5.4697e-20)
(1.11091 -0.4785 1.03908e-19)
(1.18383 -0.504675 5.19377e-20)
(1.21277 -0.504158 -4.93077e-20)
(1.21522 -0.486873 -2.86372e-20)
(1.20494 -0.461343 2.27732e-20)
(1.19034 -0.432945 -2.91426e-20)
(1.1756 -0.404431 2.26948e-20)
(1.16206 -0.376932 8.34027e-22)
(1.15011 -0.350726 1.3072e-21)
(1.13958 -0.325835 -1.15198e-20)
(1.13037 -0.302289 2.67344e-20)
(1.12233 -0.280056 -3.01693e-21)
(1.11537 -0.259051 7.03795e-21)
(1.10936 -0.239139 -7.99701e-21)
(1.10363 -0.220914 3.64828e-21)
(1.09733 -0.204575 -3.75547e-21)
(0.180303 -0.0589133 8.02013e-20)
(0.494494 -0.174445 9.17313e-20)
(0.762456 -0.289004 6.52511e-20)
(0.970852 -0.38313 -1.04311e-20)
(1.11303 -0.44631 1.09683e-20)
(1.19427 -0.477328 -6.72126e-22)
(1.22909 -0.481909 1.06193e-19)
(1.23464 -0.468925 -2.91197e-20)
(1.22531 -0.446635 1.70405e-20)
(1.21037 -0.420653 -8.38069e-20)
(1.19466 -0.394017 1.41423e-20)
(1.17999 -0.368073 3.02986e-20)
(1.16687 -0.343169 -1.08022e-20)
(1.15523 -0.319388 2.29449e-20)
(1.14499 -0.296835 -2.31851e-20)
(1.13595 -0.275451 3.1356e-20)
(1.12803 -0.255198 2.14764e-21)
(1.12111 -0.235918 -8.71057e-21)
(1.11458 -0.218123 -3.51995e-22)
(1.10747 -0.202287 6.72743e-21)
(0.171312 -0.0490696 -1.51797e-19)
(0.476684 -0.149968 3.69103e-20)
(0.744128 -0.256021 -1.46428e-20)
(0.958397 -0.34761 -9.68254e-20)
(1.1097 -0.41288 -3.09454e-20)
(1.20003 -0.448487 -5.91371e-20)
(1.24176 -0.458199 -4.69916e-20)
(1.25138 -0.449694 -4.6324e-20)
(1.24371 -0.430849 4.18992e-20)
(1.22891 -0.407435 1.66841e-20)
(1.21257 -0.382775 -5.06687e-20)
(1.19697 -0.358423 -8.18015e-21)
(1.18281 -0.334859 -4.04967e-21)
(1.17019 -0.312278 -1.89108e-20)
(1.15901 -0.290749 -2.63978e-21)
(1.14906 -0.27024 -5.43584e-21)
(1.14026 -0.250785 -2.46164e-20)
(1.13249 -0.232188 8.76837e-21)
(1.12523 -0.21485 1.22099e-20)
(1.11739 -0.199539 -2.73561e-21)
(0.161351 -0.0398594 5.33589e-21)
(0.455922 -0.126482 -6.66447e-20)
(0.721158 -0.22359 2.99607e-20)
(0.940322 -0.31187 -2.0186e-20)
(1.10067 -0.378558 2.3892e-20)
(1.20079 -0.418402 9.76664e-20)
(1.25047 -0.433203 -4.22347e-20)
(1.2652 -0.429315 9.16761e-20)
(1.26 -0.414101 3.53877e-21)
(1.24588 -0.393398 3.82159e-20)
(1.22923 -0.370799 3.83456e-21)
(1.21293 -0.348087 2.40655e-20)
(1.19792 -0.325917 4.55497e-21)
(1.18445 -0.304559 1.09949e-21)
(1.1724 -0.284075 -2.8212e-20)
(1.16164 -0.264493 4.70465e-21)
(1.15205 -0.24586 2.08178e-20)
(1.14347 -0.227984 7.63366e-22)
(1.13557 -0.211135 -7.42022e-21)
(1.12707 -0.196349 3.14601e-21)
(0.150585 -0.0313859 1.83035e-20)
(0.432515 -0.104286 5.34852e-20)
(0.693789 -0.192133 5.64308e-20)
(0.916665 -0.276346 -1.56837e-20)
(1.08577 -0.343707 6.72591e-20)
(1.19622 -0.387333 -1.31027e-20)
(1.25489 -0.407095 9.68791e-20)
(1.27582 -0.407916 -1.14316e-19)
(1.274 -0.396497 -1.9217e-20)
(1.26117 -0.378645 -1.76464e-20)
(1.24461 -0.358192 -1.95986e-20)
(1.22783 -0.337171 -3.17281e-21)
(1.21217 -0.316426 8.15274e-21)
(1.19797 -0.296298 -2.31562e-20)
(1.18516 -0.276889 1.91932e-20)
(1.17369 -0.258254 -8.3432e-21)
(1.16337 -0.240456 -5.12491e-21)
(1.15407 -0.223357 -6.03307e-21)
(1.14553 -0.207011 -4.10981e-21)
(1.13656 -0.192765 -9.78182e-21)
(0.139196 -0.0237315 8.5133e-20)
(0.406821 -0.0836435 -8.13773e-20)
(0.662349 -0.16205 9.63216e-21)
(0.887555 -0.241474 -1.05602e-20)
(1.06489 -0.308703 -2.54315e-20)
(1.18603 -0.355549 -4.81915e-20)
(1.25467 -0.380054 -5.95658e-21)
(1.28295 -0.385618 2.87611e-20)
(1.2855 -0.378137 1.14453e-20)
(1.27469 -0.36327 -1.49223e-20)
(1.25866 -0.345049 1.61931e-20)
(1.24168 -0.325766 -1.69319e-21)
(1.22552 -0.306462 -2.84517e-20)
(1.21071 -0.287574 3.96833e-20)
(1.19728 -0.269254 1.08253e-20)
(1.18517 -0.251578 -5.6321e-21)
(1.17422 -0.234626 6.95666e-21)
(1.16427 -0.218308 8.82788e-21)
(1.15509 -0.202546 8.25045e-21)
(1.14582 -0.188816 8.27039e-21)
(0.127372 -0.0169562 -8.78181e-20)
(0.379246 -0.0647769 6.6729e-20)
(0.627253 -0.133708 2.85244e-20)
(0.853219 -0.207683 -5.76275e-20)
(1.03797 -0.273929 -1.22628e-20)
(1.16996 -0.323334 -4.42992e-20)
(1.24944 -0.352259 1.72999e-20)
(1.28625 -0.362534 -2.76646e-20)
(1.29427 -0.359106 1.52508e-21)
(1.28628 -0.347358 3.72222e-21)
(1.27132 -0.331459 8.08933e-21)
(1.25445 -0.313955 -2.67043e-20)
(1.23798 -0.296104 2.69551e-20)
(1.2227 -0.278459 -1.84517e-20)
(1.20874 -0.261229 -4.21524e-21)
(1.19608 -0.244518 1.72302e-21)
(1.18457 -0.228418 -5.0035e-21)
(1.17406 -0.212882 -1.22245e-20)
(1.16432 -0.19778 -3.38614e-22)
(1.15471 -0.184556 -7.25422e-21)
(0.115308 -0.0110965 -1.05684e-20)
(0.350232 -0.0478613 -3.09999e-20)
(0.588996 -0.107434 -1.05618e-20)
(0.813992 -0.175384 1.65678e-20)
(1.00505 -0.239775 -9.75352e-21)
(1.14777 -0.29098 1.01172e-20)
(1.23883 -0.323896 2.26669e-20)
(1.28534 -0.338773 1.94314e-20)
(1.30002 -0.339479 1.51261e-20)
(1.29579 -0.330977 -3.38031e-21)
(1.28249 -0.317494 -7.87236e-21)
(1.26611 -0.301814 9.72527e-21)
(1.24955 -0.285425 -4.40034e-21)
(1.23393 -0.269017 6.10279e-21)
(1.21954 -0.252873 -3.01809e-21)
(1.20641 -0.237124 7.29935e-21)
(1.19443 -0.221879 -2.10856e-21)
(1.18343 -0.207128 7.35113e-21)
(1.1732 -0.192707 -2.11236e-21)
(1.1632 -0.179976 6.17152e-22)
(0.103195 -0.00616499 -1.72389e-22)
(0.320245 -0.03302 -1.52979e-22)
(0.548144 -0.0835045 -3.59356e-21)
(0.770319 -0.144963 1.76744e-20)
(0.966302 -0.206632 1.12075e-20)
(1.1193 -0.258795 -8.43188e-21)
(1.22246 -0.295159 -6.21182e-21)
(1.27981 -0.314439 -1.79973e-21)
(1.3024 -0.319314 -8.68432e-21)
(1.30297 -0.314179 -5.48002e-22)
(1.29208 -0.303214 3.89136e-22)
(1.27662 -0.289409 -3.65059e-21)
(1.26021 -0.274492 -2.2542e-21)
(1.2444 -0.259312 -5.10373e-21)
(1.22969 -0.24424 -5.50235e-21)
(1.21618 -0.229445 -4.50485e-22)
(1.20379 -0.21505 2.00875e-21)
(1.19236 -0.201082 2.08875e-21)
(1.18172 -0.187339 2.27466e-21)
(1.17135 -0.175095 3.28633e-21)
(0.0912188 -0.00215108 1.22189e-20)
(0.289763 -0.0203214 -1.87084e-21)
(0.505325 -0.0621356 -3.21853e-21)
(0.722756 -0.116771 8.16394e-21)
(0.921981 -0.174889 1.634e-20)
(1.08446 -0.227099 -7.2191e-21)
(1.19999 -0.266254 -5.86522e-21)
(1.26919 -0.289638 -1.09165e-20)
(1.301 -0.298659 -9.86704e-21)
(1.30756 -0.296996 1.83576e-21)
(1.29993 -0.288659 -1.66113e-21)
(1.28591 -0.276793 -7.67892e-22)
(1.26995 -0.263362 -3.94113e-21)
(1.25413 -0.249399 -6.37329e-21)
(1.2392 -0.235382 -1.5435e-21)
(1.22539 -0.221525 -5.08584e-22)
(1.21265 -0.20797 -1.19096e-22)
(1.20087 -0.19478 1.34298e-21)
(1.18986 -0.181714 4.90896e-21)
(1.17919 -0.169943 4.04183e-21)
(0.0795531 0.000977625 -7.38041e-21)
(0.259263 -0.00977879 -1.08928e-20)
(0.461212 -0.0434787 -1.44867e-20)
(0.671966 -0.0911094 1.91469e-20)
(0.872498 -0.144921 1.84756e-20)
(1.04327 -0.196228 3.31706e-22)
(1.17108 -0.237405 7.01801e-21)
(1.253 -0.264479 1.94617e-20)
(1.29534 -0.277551 2.11299e-20)
(1.30918 -0.279441 1.38097e-20)
(1.30581 -0.273849 -3.37862e-20)
(1.29388 -0.264 1.38905e-20)
(1.27874 -0.252082 -6.57228e-21)
(1.26311 -0.239329 1.42258e-20)
(1.24808 -0.226344 -8.7096e-22)
(1.23404 -0.213406 -2.27106e-21)
(1.22103 -0.200676 1.4591e-21)
(1.20894 -0.188255 1.37081e-20)
(1.19762 -0.175872 -4.84958e-21)
(1.18673 -0.164552 3.08751e-22)
(0.0683542 0.00327308 -2.3064e-20)
(0.229203 -0.00135128 5.23737e-20)
(0.416502 -0.0276145 5.15405e-21)
(0.618707 -0.0682251 -6.5939e-20)
(0.818414 -0.117082 -1.22349e-20)
(0.995889 -0.166527 2.85352e-20)
(1.13548 -0.208857 -6.61073e-20)
(1.23073 -0.239086 -5.7845e-22)
(1.28486 -0.256025 6.21704e-21)
(1.30739 -0.261509 -1.2346e-21)
(1.30944 -0.258782 1.79415e-20)
(1.3004 -0.251046 -3.13645e-20)
(1.28654 -0.240683 5.02137e-21)
(1.27133 -0.229139 -1.19083e-20)
(1.25634 -0.217168 -9.80655e-21)
(1.24216 -0.205127 9.02716e-21)
(1.22892 -0.193202 -1.04132e-21)
(1.21659 -0.181537 -2.15716e-20)
(1.20501 -0.16985 6.44166e-22)
(1.19395 -0.15895 -1.05972e-20)
(0.0577579 0.00480379 1.76924e-20)
(0.200012 0.00505219 -2.93297e-20)
(0.371893 -0.0145517 -2.28294e-21)
(0.563814 -0.0482956 -5.52501e-20)
(0.760435 -0.091693 -3.4353e-20)