/*--------------------------------*- C++ -*----------------------------------*\
  =========                 |
  \\      /  F ield         | OpenFOAM: The Open Source CFD Toolbox
   \\    /   O peration     | Website:  https://openfoam.org
    \\  /    A nd           | Version:  7
     \\/     M anipulation  |
\*---------------------------------------------------------------------------*/
FoamFile
{
    version     2.0;
    format      ascii;
    class       surfaceScalarField;
    location    "7";
    object      phi;
}
// * * * * * * * * * * * * * * * * * * * * * * * * * * * * * * * * * * * * * //

dimensions      [0 3 -1 0 0 0 0];

internalField   nonuniform List<scalar> 
612
(
0.000212327
-6.91264e-07
0.000212509
-6.81645e-07
0.000212688
-6.7225e-07
0.000212865
-6.63088e-07
0.000213039
-6.54168e-07
0.000213211
-6.45503e-07
0.00021338
-6.37109e-07
0.000213548
-6.29006e-07
0.000213713
-6.21216e-07
0.000213876
-6.13766e-07
0.000214038
-6.06689e-07
0.000214198
-6.00024e-07
0.000214355
-5.93819e-07
0.000214512
-5.88128e-07
0.000214667
-5.83018e-07
0.000214821
-5.78565e-07
0.000214974
-5.74863e-07
0.000215126
-5.72019e-07
0.000215278
-5.70164e-07
0.00021543
-5.69448e-07
0.000215581
-5.70051e-07
0.000215734
-5.72185e-07
0.000215888
-5.76098e-07
0.000216043
-5.82084e-07
0.000216201
-5.9049e-07
0.000216362
-6.01722e-07
0.000216527
-6.16261e-07
0.000216697
-6.3467e-07
0.000216874
-6.57613e-07
0.000217058
-6.85868e-07
0.000217253
-7.20353e-07
0.000217459
-7.62143e-07
0.000217679
-8.12498e-07
0.000217915
-8.72896e-07
0.000218173
-9.4507e-07
0.000218454
-1.03104e-06
0.000218763
-1.13318e-06
0.000219107
-1.25423e-06
0.00021949
-1.39741e-06
0.000219921
-1.56645e-06
0.000220408
-1.76564e-06
0.000220961
-1.99997e-06
0.000221592
-2.27516e-06
0.000222314
-2.59774e-06
0.000223144
-2.97515e-06
0.000224099
-3.41577e-06
0.000225201
-3.92896e-06
0.000226475
-4.52509e-06
0.000227949
-5.21539e-06
0.000229656
-6.01185e-06
0.000231633
-6.92686e-06
0.000233921
-7.97273e-06
0.000236566
-9.16089e-06
0.000239619
-1.05008e-05
0.000243136
-1.19984e-05
0.000247172
-1.3654e-05
0.000251784
-1.54597e-05
0.000257027
-1.73966e-05
0.000262945
-1.94297e-05
0.00026957
-2.15084e-05
0.000276906
-2.35543e-05
0.00028493
-2.54786e-05
0.000293567
-2.71511e-05
0.000302701
-2.84556e-05
0.000312151
-2.92444e-05
-2.94059e-05
0.000321687
0.000247484
-8.80981e-07
0.000247671
-8.68629e-07
0.000247855
-8.5657e-07
0.000248037
-8.44814e-07
0.000248216
-8.33374e-07
0.000248393
-8.22268e-07
0.000248568
-8.11514e-07
0.00024874
-8.01138e-07
0.00024891
-7.91169e-07
0.000249078
-7.81643e-07
0.000249243
-7.72601e-07
0.000249408
-7.64095e-07
0.00024957
-7.56185e-07
0.000249731
-7.48942e-07
0.00024989
-7.42452e-07
0.000250048
-7.36816e-07
0.000250206
-7.32153e-07
0.000250362
-7.28605e-07
0.000250518
-7.26337e-07
0.000250675
-7.25548e-07
0.000250831
-7.26469e-07
0.000250988
-7.29376e-07
0.000251147
-7.34591e-07
0.000251307
-7.42495e-07
0.00025147
-7.53539e-07
0.000251637
-7.68251e-07
0.000251808
-7.87253e-07
0.000251984
-8.1128e-07
0.000252168
-8.41193e-07
0.00025236
-8.78007e-07
0.000252563
-9.22915e-07
0.000252778
-9.77315e-07
0.000253008
-1.04285e-06
0.000253257
-1.12146e-06
0.000253527
-1.21539e-06
0.000253823
-1.3273e-06
0.00025415
-1.46028e-06
0.000254514
-1.61795e-06
0.000254921
-1.80452e-06
0.00025538
-2.02492e-06
0.000255899
-2.28484e-06
0.00025649
-2.59088e-06
0.000257165
-2.95067e-06
0.00025794
-3.37298e-06
0.000258833
-3.86781e-06
0.000259864
-4.44657e-06
0.000261057
-5.12211e-06
0.000262441
-5.90878e-06
0.000264048
-6.8224e-06
0.000265916
-7.88016e-06
0.000268089
-9.10025e-06
0.000270618
-1.05014e-05
0.000273559
-1.21018e-05
0.000276976
-1.3918e-05
0.00028094
-1.59627e-05
0.000285529
-1.82422e-05
0.000290821
-2.0752e-05
0.000296898
-2.34736e-05
0.000303833
-2.63651e-05
0.000311688
-2.93634e-05
0.000320492
-3.23576e-05
0.000330242
-3.52292e-05
0.000340855
-3.77642e-05
0.000352208
-3.98083e-05
0.000364043
-4.10794e-05
-4.14109e-05
0.000376048
0.000280682
-1.06482e-06
0.000280863
-1.04978e-06
0.000281042
-1.03509e-06
0.000281218
-1.02079e-06
0.000281391
-1.00687e-06
0.000281562
-9.93368e-07
0.000281731
-9.80302e-07
0.000281898
-9.67703e-07
0.000282062
-9.55607e-07
0.000282225
-9.44057e-07
0.000282385
-9.33106e-07
0.000282544
-9.22816e-07
0.000282701
-9.13262e-07
0.000282856
-9.04531e-07
0.000283011
-8.96729e-07
0.000283164
-8.8998e-07
0.000283316
-8.84431e-07
0.000283468
-8.80256e-07
0.000283619
-8.77662e-07
0.000283771
-8.76891e-07
0.000283922
-8.7823e-07
0.000284075
-8.82019e-07
0.000284229
-8.88655e-07
0.000284385
-8.98611e-07
0.000284544
-9.1244e-07
0.000284707
-9.30797e-07
0.000284874
-9.54452e-07
0.000285047
-9.8431e-07
0.000285227
-1.02144e-06
0.000285416
-1.0671e-06
0.000285616
-1.12276e-06
0.000285829
-1.19015e-06
0.000286057
-1.27133e-06
0.000286304
-1.36868e-06
0.000286574
-1.48502e-06
0.00028687
-1.62363e-06
0.000287199
-1.7884e-06
0.000287564
-1.98382e-06
0.000287975
-2.21519e-06
0.000288439
-2.48868e-06
0.000288966
-2.81147e-06
0.000289567
-3.19191e-06
0.000290256
-3.63969e-06
0.000291049
-4.166e-06
0.000291965
-4.78373e-06
0.000293026
-5.50765e-06
0.000294258
-6.35458e-06
0.000295693
-7.34354e-06
0.000297366
-8.49579e-06
0.000299321
-9.83487e-06
0.000301607
-1.13863e-05
0.000304283
-1.31772e-05
0.000307416
-1.52353e-05
0.000311086
-1.75874e-05
0.00031538
-2.02574e-05
0.000320401
-2.32624e-05
0.000326256
-2.66077e-05
0.000333064
-3.02813e-05
0.00034094
-3.42408e-05
0.000349992
-3.84154e-05
0.000360292
-4.26582e-05
0.000371889
-4.6826e-05
0.000384694
-5.05689e-05
0.000398615
-5.37293e-05
0.000413266
-5.57303e-05
-5.64061e-05
0.000428261
0.000311463
-1.23168e-06
0.000311627
-1.21414e-06
0.000311789
-1.19703e-06
0.000311949
-1.18037e-06
0.000312106
-1.16418e-06
0.000312261
-1.14847e-06
0.000312414
-1.13328e-06
0.000312565
-1.11865e-06
0.000312714
-1.10461e-06
0.000312861
-1.09122e-06
0.000313007
-1.07853e-06
0.00031315
-1.06663e-06
0.000313293
-1.0556e-06
0.000313434
-1.04554e-06
0.000313574
-1.03659e-06
0.000313712
-1.02888e-06
0.000313851
-1.02259e-06
0.000313988
-1.01792e-06
0.000314126
-1.01513e-06
0.000314263
-1.0145e-06
0.000314401
-1.01636e-06
0.000314541
-1.02112e-06
0.000314681
-1.02926e-06
0.000314824
-1.04133e-06
0.000314969
-1.05798e-06
0.000315119
-1.08e-06
0.000315272
-1.1083e-06
0.000315432
-1.14396e-06
0.000315599
-1.18823e-06
0.000315774
-1.24262e-06
0.000315961
-1.30888e-06
0.000316159
-1.38907e-06
0.000316374
-1.48563e-06
0.000316607
-1.60142e-06
0.000316861
-1.73978e-06
0.000317142
-1.90466e-06
0.000317455
-2.10068e-06
0.000317804
-2.33328e-06
0.000318198
-2.6088e-06
0.000318644
-2.93469e-06
0.000319152
-3.31965e-06
0.000319734
-3.77382e-06
0.000320403
-4.30904e-06
0.000321176
-4.93903e-06
0.000322072
-5.67975e-06
0.000323114
-6.54959e-06
0.000324329
-7.56971e-06
0.00032575
-8.76435e-06
0.000327415
-1.0161e-05
0.000329371
-1.17906e-05
0.000331672
-1.36876e-05
0.000334385
-1.58897e-05
0.000337586
-1.84369e-05
0.00034137
-2.13706e-05
0.000345843
-2.47311e-05
0.000351134
-2.85535e-05
0.000357389
-3.28618e-05
0.000364769
-3.76615e-05
0.000373449
-4.29214e-05
0.000383609
-4.85755e-05
0.000395397
0.000408949
0.000424192
0.000441155
0.000459191
0.000477974
0.00033932
0.000339458
0.000339593
0.000339727
0.000339858
0.000339988
0.000340116
0.000340242
0.000340366
0.000340489
0.000340611
0.000340731
0.00034085
0.000340968
0.000341085
0.000341201
0.000341317
0.000341432
0.000341547
0.000341663
0.000341779
0.000341897
0.000342015
0.000342136
0.00034226
0.000342387
0.000342519
0.000342656
0.0003428
0.000342952
0.000343114
0.000343288
0.000343476
0.000343682
0.000343908
0.000344159
0.000344439
0.000344754
0.00034511
0.000345515
0.000345979
0.000346512
0.000347128
0.000347842
0.000348673
0.000349644
0.000350782
0.000352119
0.000353695
0.000355558
0.000357765
0.000360388
0.000363512
0.000367241
0.000371704
0.000377056
0.000383481
0.0003912
0.000400463
0.000272943
-1.98148e-05
0.000280015
-1.89906e-05
0.000286589
-1.77609e-05
-1.62307e-05
0.000331196
-2.93246e-05
0.00034024
-2.80338e-05
0.000348568
-2.6089e-05
-2.36907e-05
0.000388029
-4.13061e-05
0.00039934
-3.93447e-05
0.000409613
-3.63623e-05
-3.27436e-05
0.000443255
-5.63006e-05
0.000457243
-5.33322e-05
0.000469689
-4.88083e-05
-4.34663e-05
0.000496811
0.000514017
0.000528852
)
;

boundaryField
{
    inlet
    {
        type            calculated;
        value           nonuniform 0();
    }
    outlet
    {
        type            calculated;
        value           nonuniform 0();
    }
    wall
    {
        type            calculated;
        value           nonuniform 0();
    }
    wedge1
    {
        type            wedge;
        value           nonuniform List<scalar> 
344
(
1.57038e-17
1.3275e-16
1.98486e-17
1.49094e-16
2.12929e-17
1.54831e-17
1.3078e-16
1.95284e-17
1.46918e-16
2.09704e-17
1.50666e-17
1.28975e-16
1.9251e-17
1.44866e-16
2.06767e-17
1.49525e-17
1.27177e-16
1.8858e-17
1.42774e-16
2.0299e-17
1.48043e-17
1.25184e-16
1.85147e-17
1.4062e-16
1.99871e-17
1.44428e-17
1.23466e-16
1.8239e-17
1.38691e-16
1.96849e-17
1.40608e-17
1.21777e-16
1.79532e-17
1.36834e-16
1.93835e-17
1.37596e-17
1.20184e-16
1.76911e-17
1.35008e-16
1.90999e-17
1.36337e-17
1.18551e-16
1.74203e-17
1.3325e-16
1.8855e-17
1.3346e-17
1.17073e-16
1.71593e-17
1.31562e-16
1.86149e-17
1.32174e-17
1.15606e-16
1.68973e-17
1.29923e-16
1.83467e-17
1.29307e-17
1.14259e-16
1.6668e-17
1.284e-16
1.81228e-17
1.2902e-17
1.12962e-16
1.64705e-17
1.26989e-16
1.79313e-17
1.26183e-17
1.11743e-16
1.62774e-17
1.25667e-16
1.77347e-17
1.22763e-17
1.10575e-16
1.60959e-17
1.24482e-16
1.75741e-17
1.2116e-17
1.09642e-16
1.59347e-17
1.23399e-16
1.74211e-17
1.21273e-17
1.08761e-16
1.57622e-17
1.22469e-16
1.72783e-17
1.19247e-17
1.0808e-16
1.56364e-17
1.21735e-16
1.71873e-17
1.19153e-17
1.07495e-16
1.55217e-17
1.21192e-16
1.7096e-17
1.1744e-17
1.07185e-16
1.5477e-17
1.20877e-16
1.70512e-17
1.18791e-17
1.07099e-16
1.54586e-17
1.20853e-16
1.70531e-17
1.18077e-17
1.07244e-16
1.54836e-17
1.21133e-16
1.70908e-17
1.16974e-17
1.07657e-16
1.55255e-17
1.21767e-16
1.7189e-17
1.17193e-17
1.08513e-16
1.56475e-17
1.22826e-16
1.73456e-17
1.19517e-17
1.09757e-16
1.58287e-17
1.24372e-16
1.75696e-17
1.20818e-17
1.11571e-16
1.60862e-17
1.26525e-16
1.78664e-17
1.24296e-17
1.13877e-16
1.63955e-17
1.29354e-16
1.82773e-17
1.2657e-17
1.16986e-16
1.68966e-17
1.33071e-16
1.88398e-17
1.32185e-17
1.20797e-16
1.73892e-17
1.376e-16
1.94342e-17
1.3884e-17
1.25487e-16
1.80811e-17
1.43227e-16
2.02267e-17
1.44801e-17
1.31473e-16
1.89806e-17
1.50292e-16
2.12344e-17
1.51785e-17
1.38711e-16
2.00669e-17
1.58913e-16
2.24662e-17
1.62495e-17
1.47613e-16
2.14074e-17
1.69375e-16
2.39876e-17
1.76364e-17
1.58238e-16
2.29959e-17
1.81964e-16
2.58053e-17
1.91451e-17
1.71088e-16
2.49521e-17
1.9709e-16
2.80037e-17
2.10308e-17
1.86403e-16
2.72965e-17
2.15199e-16
3.06483e-17
2.32429e-17
2.04726e-16
3.01004e-17
2.36806e-16
3.38073e-17
2.59475e-17
2.2647e-16
3.34328e-17
2.6251e-16
3.75696e-17
2.90106e-17
2.52257e-16
3.7386e-17
2.93017e-16
4.20577e-17
3.25892e-17
2.82766e-16
4.20865e-17
3.29159e-16
4.73786e-17
3.70689e-17
3.1889e-16
4.76472e-17
3.71889e-16
5.3667e-17
4.23114e-17
3.61445e-16
5.4234e-17
4.22354e-16
6.11329e-17
4.8511e-17
4.11542e-16
6.20192e-17
4.81877e-16
6.99731e-17
5.5732e-17
4.70342e-16
7.12122e-17
5.51965e-16
8.04242e-17
6.42927e-17
5.39331e-16
8.20378e-17
6.34363e-16
9.2762e-17
7.42848e-17
6.19982e-16
9.47505e-17
7.3108e-16
1.07296e-16
8.58687e-17
7.14093e-16
1.09661e-16
8.4445e-16
1.24419e-16
9.93205e-17
8.23632e-16
1.27083e-16
9.77114e-16
1.44542e-16
1.15161e-16
9.50815e-16
1.47394e-16
1.13205e-15
1.68152e-16
1.33285e-16
1.09791e-15
1.70997e-16
1.31256e-15
1.958e-16
1.54286e-16
1.26751e-15
1.98356e-16
1.5223e-15
2.28114e-16
1.78195e-16
1.46198e-15
2.29922e-16
1.7653e-15
2.65781e-16
2.05461e-16
1.68397e-15
2.66219e-16
2.04584e-15
3.0964e-16
2.36263e-16
1.93536e-15
3.07515e-16
2.36788e-15
3.60306e-16
2.70571e-16
2.21819e-15
3.54405e-16
2.73581e-15
4.18766e-16
3.0852e-16
2.53324e-15
4.07135e-16
3.15314e-15
4.85843e-16
3.49923e-16
2.87991e-15
4.65773e-16
3.62208e-15
5.6218e-16
3.9473e-16
3.25604e-15
5.30182e-16
4.14305e-15
6.48282e-16
4.41843e-16
3.6564e-15
5.99598e-16
4.71273e-15
7.44095e-16
4.90505e-16
4.07342e-15
6.73041e-16
5.3248e-15
8.49086e-16
5.39007e-16
4.49403e-15
7.48281e-16
5.96221e-15
5.85806e-16
4.90439e-15
8.23209e-16
6.61129e-15
6.28606e-16
5.2824e-15
8.933e-16
7.22535e-15
6.65667e-16
5.61362e-15
9.56565e-16
7.79969e-15
6.96973e-16
5.89543e-15
1.01051e-15
8.2819e-15
7.14267e-16
6.05641e-15
1.04425e-15
8.61263e-15
-4.90538e-16
7.23613e-16
6.13271e-15
1.06026e-15
8.75467e-15
-4.77214e-16
7.02392e-16
5.93092e-15
1.02315e-15
8.39321e-15
-4.52877e-16
6.63536e-16
5.56586e-15
9.541e-16
7.73442e-15
-4.19947e-16
6.11323e-16
5.085e-15
8.64545e-16
6.91339e-15
)
;
    }
    wedge2
    {
        type            wedge;
        value           nonuniform List<scalar> 
344
(
1.89723e-17
1.35056e-16
2.15355e-17
1.50391e-16
2.24378e-17
1.87032e-17
1.33257e-16
2.12687e-17
1.48286e-16
2.21303e-17
1.86514e-17
1.31378e-16
2.09724e-17
1.46156e-16
2.18089e-17
1.83026e-17
1.29572e-16
2.08055e-17
1.44166e-16
2.15868e-17
1.79942e-17
1.28065e-16
2.06032e-17
1.42353e-16
2.13151e-17
1.79169e-17
1.26371e-16
2.03482e-17
1.40421e-16
2.10503e-17
1.78719e-17
1.24746e-16
2.01191e-17
1.38535e-16
2.08022e-17
1.77638e-17
1.23132e-16
1.98828e-17
1.36739e-16
2.05547e-17
1.74872e-17
1.21669e-16
1.96732e-17
1.35009e-16
2.02884e-17
1.73941e-17
1.20173e-16
1.94728e-17
1.33352e-16
2.00386e-17
1.71535e-17
1.18799e-16
1.92944e-17
1.31799e-16
1.98403e-17
1.70934e-17
1.17448e-16
1.91061e-17
1.303e-16
1.9623e-17
1.67932e-17
1.16208e-16
1.89114e-17
1.28875e-16
1.94014e-17
1.67723e-17
1.15067e-16
1.87404e-17
1.27572e-16
1.92164e-17
1.68351e-17
1.14077e-16
1.85895e-17
1.26367e-16
1.90306e-17
1.67423e-17
1.1308e-16
1.84539e-17
1.25329e-16
1.8877e-17
1.65163e-17
1.12292e-16
1.83703e-17
1.24442e-16
1.87582e-17
1.65329e-17
1.11602e-16
1.82861e-17
1.23708e-16
1.86393e-17
1.64108e-17
1.11157e-16
1.82439e-17
1.23185e-16
1.85798e-17
1.64846e-17
1.10833e-16
1.8193e-17
1.22898e-16
1.85419e-17
1.63263e-17
1.10745e-16
1.81862e-17
1.22857e-16
1.85361e-17
1.64318e-17
1.10958e-16
1.82181e-17
1.2314e-16
1.85861e-17
1.66534e-17
1.11527e-16
1.83282e-17
1.23798e-16
1.86818e-17
1.68168e-17
1.12381e-16
1.84695e-17
1.24886e-16
1.8843e-17
1.6901e-17
1.137e-16
1.86812e-17
1.26489e-16
1.90818e-17
1.71812e-17
1.1545e-16
1.89683e-17
1.2866e-16
1.94176e-17
1.74138e-17
1.17885e-16
1.9382e-17
1.31535e-16
1.98383e-17
1.79078e-17
1.20898e-16
1.98128e-17
1.35145e-16
2.03414e-17
1.82776e-17
1.2484e-16
2.04979e-17
1.39854e-16
2.10874e-17
1.87868e-17
1.29808e-16
2.12728e-17
1.45708e-16
2.19592e-17
1.96238e-17
1.35735e-16
2.21806e-17
1.52769e-16
2.29971e-17
2.06798e-17
1.43057e-16
2.3303e-17
1.61383e-16
2.42608e-17
2.17327e-17
1.51826e-16
2.46438e-17
1.71816e-16
2.57655e-17
2.29312e-17
1.6253e-16
2.62945e-17
1.84425e-16
2.75997e-17
2.45154e-17
1.75306e-16
2.82348e-17
1.99555e-16
2.9792e-17
2.63523e-17
1.9066e-16
3.05618e-17
2.17648e-16
3.24098e-17
2.85788e-17
2.0892e-16
3.33423e-17
2.39225e-16
3.55418e-17
3.11752e-17
2.30691e-16
3.6669e-17
2.64903e-16
3.92839e-17
3.44101e-17
2.56533e-16
4.06397e-17
2.95397e-16
4.37299e-17
3.83059e-17
2.87143e-16
4.53492e-17
3.31532e-16
4.90282e-17
4.26737e-17
3.2322e-16
5.09426e-17
3.74292e-16
5.5342e-17
4.78917e-17
3.65789e-16
5.75542e-17
4.24782e-16
6.2811e-17
5.40251e-17
4.1586e-16
6.53581e-17
4.84297e-16
7.16454e-17
6.13183e-17
4.74704e-16
7.45461e-17
5.54365e-16
8.20845e-17
6.97959e-17
5.43612e-16
8.53517e-17
6.36748e-16
9.44046e-17
7.97582e-17
6.24259e-16
9.80456e-17
7.33477e-16
1.08937e-16
9.1477e-17
7.18386e-16
1.12913e-16
8.46842e-16
1.26028e-16
1.05155e-16
8.27972e-16
1.30308e-16
9.79472e-16
1.46119e-16
1.2079e-16
9.55133e-16
1.50599e-16
1.13434e-15
1.69698e-16
1.39039e-16
1.10229e-15
1.74202e-16
1.31481e-15
1.97321e-16
1.59876e-16
1.27177e-15
2.01539e-16
1.52457e-15
2.2961e-16
1.83836e-16
1.4663e-15
2.33084e-16
1.76755e-15
2.67267e-16
2.10995e-16
1.68811e-15
2.69261e-16
2.0479e-15
3.10973e-16
2.41614e-16
1.93976e-15
3.10711e-16
2.37018e-15
3.61739e-16
2.76008e-16
2.22261e-15
3.57633e-16
2.7382e-15
4.20245e-16
3.14097e-16
2.5376e-15
4.10351e-16
3.15546e-15
4.87287e-16
3.55769e-16
2.88431e-15
4.68977e-16
3.62433e-15
5.63602e-16
4.00328e-16
3.26033e-15
5.33273e-16
4.14519e-15
6.49624e-16
4.4748e-16
3.66066e-15
6.02682e-16
4.71481e-15
7.45312e-16
4.95969e-16
4.07755e-15
6.76026e-16
5.32677e-15
8.50209e-16
5.44489e-16
4.49811e-15
7.5118e-16
5.9641e-15
5.91183e-16
4.90841e-15
8.26045e-16
6.6131e-15
6.33882e-16
5.28636e-15
8.96059e-16
7.22705e-15
6.70916e-16
5.61753e-15
9.59262e-16
7.80127e-15
7.02252e-16
5.89933e-15
1.01311e-15
8.28335e-15
7.19595e-16
6.06026e-15
1.0468e-15
8.61397e-15
-4.84417e-16
7.2886e-16
6.13651e-15
1.06266e-15
8.75587e-15
-4.71143e-16
7.07424e-16
5.93457e-15
1.02542e-15
8.39423e-15
-4.47011e-16
6.68445e-16
5.56934e-15
9.56264e-16
7.73528e-15
-4.14181e-16
6.16125e-16
5.0884e-15
8.66591e-16
6.91413e-15
)
;
    }
    axis
    {
        type            empty;
        value           nonuniform 0();
    }
    procBoundary8to2
    {
        type            processor;
        value           nonuniform List<scalar> 
71
(
5.06994e-07
4.99989e-07
4.93143e-07
4.86465e-07
4.79961e-07
4.73641e-07
4.67515e-07
4.61599e-07
4.55908e-07
4.50462e-07
4.45286e-07
4.40407e-07
4.3586e-07
4.31684e-07
4.27927e-07
4.24645e-07
4.21906e-07
4.19787e-07
4.18382e-07
4.17801e-07
4.18173e-07
4.19651e-07
4.22414e-07
4.26676e-07
4.32687e-07
4.40739e-07
4.51179e-07
4.64414e-07
4.80923e-07
5.01268e-07
5.26108e-07
5.56218e-07
5.92504e-07
6.36031e-07
6.8804e-07
7.49985e-07
8.23558e-07
9.10731e-07
1.01379e-06
1.1354e-06
1.2786e-06
1.44693e-06
1.64442e-06
1.87565e-06
2.14582e-06
2.46072e-06
2.8268e-06
3.2511e-06
3.74115e-06
4.30487e-06
4.95022e-06
5.68486e-06
6.51552e-06
7.44723e-06
8.48211e-06
9.61815e-06
1.08473e-05
1.21538e-05
1.35115e-05
1.48837e-05
1.62183e-05
1.74545e-05
1.85142e-05
1.93213e-05
1.97949e-05
1.98699e-05
-0.000265541
1.24135e-05
1.19186e-05
1.11864e-05
1.02708e-05
)
;
    }
    procBoundary8to3
    {
        type            processor;
        value           uniform 0.000292549;
    }
    procBoundary8to7
    {
        type            processor;
        value           nonuniform List<scalar> 5(-0.000212143 -0.000247294 -0.000280498 -0.000311296 -0.000339181);
    }
    procBoundary8to9
    {
        type            processor;
        value           nonuniform List<scalar> 4(0.000356028 0.000418666 0.000480412 0.000541219);
    }
    procBoundary8to14
    {
        type            processor;
        value           nonuniform List<scalar> 
71
(
-5.44453e-05
-6.03781e-05
-6.58118e-05
-7.06923e-05
-7.37665e-05
-7.51898e-05
-1.37134e-06
-1.35166e-06
-1.33249e-06
-1.31382e-06
-1.29568e-06
-1.27811e-06
-1.26112e-06
-1.24477e-06
-1.22909e-06
-1.21416e-06
-1.20003e-06
-1.1868e-06
-1.17456e-06
-1.16344e-06
-1.15357e-06
-1.14512e-06
-1.13829e-06
-1.13333e-06
-1.1305e-06
-1.13013e-06
-1.13262e-06
-1.13843e-06
-1.14809e-06
-1.16225e-06
-1.18165e-06
-1.2072e-06
-1.23992e-06
-1.28107e-06
-1.33209e-06
-1.39469e-06
-1.47089e-06
-1.56307e-06
-1.67402e-06
-1.80703e-06
-1.96597e-06
-2.15539e-06
-2.38064e-06
-2.64802e-06
-2.9649e-06
-3.33996e-06
-3.78336e-06
-4.30702e-06
-4.92488e-06
-5.65324e-06
-6.51111e-06
-7.52065e-06
-8.70756e-06
-1.01016e-05
-1.17371e-05
-1.36533e-05
-1.58949e-05
-1.85121e-05
-2.15605e-05
-2.51003e-05
-2.91944e-05
-3.39051e-05
-3.92873e-05
-4.53799e-05
-5.21843e-05
0.000411548
-5.96609e-05
-7.51376e-05
-7.05381e-05
-6.36433e-05
-5.58335e-05
)
;
    }
}


// ************************************************************************* //
