/*--------------------------------*- C++ -*----------------------------------*\
  =========                 |
  \\      /  F ield         | OpenFOAM: The Open Source CFD Toolbox
   \\    /   O peration     | Website:  https://openfoam.org
    \\  /    A nd           | Version:  7
     \\/     M anipulation  |
\*---------------------------------------------------------------------------*/
FoamFile
{
    version     2.0;
    format      ascii;
    class       volVectorField;
    location    "8";
    object      U;
}
// * * * * * * * * * * * * * * * * * * * * * * * * * * * * * * * * * * * * * //

dimensions      [0 1 -1 0 0 0 0];

internalField   nonuniform List<vector> 
344
(
(1.76572 0.0182346 5.35883e-16)
(1.76394 0.0180424 5.12124e-16)
(1.76218 0.0178525 5.30658e-16)
(1.76045 0.0176648 5.24474e-16)
(1.75875 0.0174792 5.42073e-16)
(1.75708 0.0172958 5.68755e-16)
(1.75543 0.0171144 5.71524e-16)
(1.75381 0.016935 5.87284e-16)
(1.75222 0.0167577 5.61406e-16)
(1.75065 0.0165823 5.84583e-16)
(1.7491 0.0164089 5.61003e-16)
(1.74758 0.0162373 5.81688e-16)
(1.74609 0.0160677 5.7321e-16)
(1.74461 0.0158999 5.90325e-16)
(1.74316 0.015734 5.91962e-16)
(1.74174 0.0155698 6.1114e-16)
(1.74033 0.0154074 5.72735e-16)
(1.73895 0.0152467 6.05208e-16)
(1.73758 0.0150878 5.89937e-16)
(1.73624 0.0149305 6.05886e-16)
(1.73492 0.0147749 5.76711e-16)
(1.73362 0.0146209 6.0068e-16)
(1.73233 0.0144685 6.05209e-16)
(1.73107 0.0143177 6.15222e-16)
(1.72982 0.0141685 5.99876e-16)
(1.7286 0.0140208 6.15792e-16)
(1.72739 0.0138746 5.96515e-16)
(1.7262 0.01373 6.06811e-16)
(1.72503 0.0135867 5.9962e-16)
(1.72387 0.013445 6.10907e-16)
(1.72273 0.0133046 6.20986e-16)
(1.72161 0.0131656 6.22045e-16)
(1.7205 0.013028 6.27262e-16)
(1.71941 0.0128917 6.09373e-16)
(1.71834 0.0127568 6.1855e-16)
(1.71728 0.0126231 6.03534e-16)
(1.71623 0.0124907 6.08192e-16)
(1.7152 0.0123596 5.99065e-16)
(1.71419 0.0122296 6.08975e-16)
(1.71319 0.0121007 6.05998e-16)
(1.7122 0.011973 6.1212e-16)
(1.71123 0.0118463 5.90814e-16)
(1.71027 0.0117205 5.99491e-16)
(1.70932 0.0115957 5.89479e-16)
(1.70839 0.0114718 5.94686e-16)
(1.70747 0.0113485 5.79971e-16)
(1.70656 0.0112258 5.85665e-16)
(1.70567 0.0111036 5.8392e-16)
(1.70478 0.0109816 5.84498e-16)
(1.70391 0.0108596 5.75088e-16)
(1.70305 0.0107373 5.73098e-16)
(1.70221 0.0106141 5.72571e-16)
(1.70137 0.0104898 5.64601e-16)
(1.70055 0.0103631 5.62011e-16)
(1.69974 0.0102348 5.58567e-16)
(1.69893 0.0100997 5.54128e-16)
(1.69816 0.00996647 5.49709e-16)
(1.69733 0.00980909 5.4106e-16)
(1.69671 0.0096859 5.36213e-16)
(1.69551 0.00945991 5.28839e-16)
(1.64852 0.0195948 4.01195e-16)
(1.64715 0.019374 4.40699e-16)
(1.64581 0.0191562 4.3594e-16)
(1.64449 0.0189413 4.65727e-16)
(1.6432 0.0187293 4.28445e-16)
(1.64194 0.01852 4.71998e-16)
(1.6407 0.0183135 4.36319e-16)
(1.63948 0.0181097 4.784e-16)
(1.63829 0.0179085 4.44663e-16)
(1.63712 0.0177099 4.76976e-16)
(1.63597 0.0175139 4.74598e-16)
(1.63485 0.0173203 4.95396e-16)
(1.63374 0.0171292 5.23766e-16)
(1.63266 0.0169405 4.92216e-16)
(1.6316 0.0167541 5.25851e-16)
(1.63055 0.0165701 4.92958e-16)
(1.62953 0.0163884 5.25523e-16)
(1.62853 0.0162088 4.93633e-16)
(1.62754 0.0160315 5.19695e-16)
(1.62657 0.0158563 5.17469e-16)
(1.62562 0.0156833 5.45607e-16)
(1.62469 0.0155123 5.18445e-16)
(1.62377 0.0153434 5.44959e-16)
(1.62287 0.0151765 5.34176e-16)
(1.62199 0.0150115 5.59983e-16)
(1.62112 0.0148485 5.32034e-16)
(1.62027 0.0146874 5.54941e-16)
(1.61943 0.0145282 5.4374e-16)
(1.61861 0.0143708 5.68552e-16)
(1.6178 0.0142152 5.42685e-16)
(1.61701 0.0140615 5.66673e-16)
(1.61623 0.0139094 5.38612e-16)
(1.61546 0.0137591 5.62179e-16)
(1.61471 0.0136105 5.3713e-16)
(1.61397 0.0134635 5.5541e-16)
(1.61324 0.0133182 5.51812e-16)
(1.61253 0.0131745 5.67655e-16)
(1.61183 0.0130323 5.81797e-16)
(1.61113 0.0128917 5.60128e-16)
(1.61046 0.0127526 5.77983e-16)
(1.60979 0.012615 5.56283e-16)
(1.60913 0.0124789 5.71891e-16)
(1.60848 0.0123442 5.51452e-16)
(1.60785 0.0122108 5.6345e-16)
(1.60722 0.0120788 5.57761e-16)
(1.60661 0.0119482 5.69935e-16)
(1.60601 0.0118188 5.53708e-16)
(1.60541 0.0116906 5.64559e-16)
(1.60483 0.0115636 5.56826e-16)
(1.60425 0.0114377 5.64259e-16)
(1.60368 0.0113129 5.48399e-16)
(1.60313 0.011189 5.55721e-16)
(1.60258 0.0110659 5.49692e-16)
(1.60204 0.0109437 5.54931e-16)
(1.60151 0.010822 5.42249e-16)
(1.60098 0.0107007 5.47992e-16)
(1.60047 0.0105796 5.37559e-16)
(1.59996 0.0104584 5.3848e-16)
(1.59946 0.0103366 5.3824e-16)
(1.59897 0.010214 5.32546e-16)
(1.59848 0.0100894 5.30868e-16)
(1.59801 0.00996306 5.2812e-16)
(1.59753 0.00983107 5.24417e-16)
(1.59708 0.00969935 5.20581e-16)
(1.59659 0.00954688 5.12674e-16)
(1.59622 0.00942234 5.0838e-16)
(1.59551 0.00920076 5.01943e-16)
(1.51495 0.0190575 3.68638e-16)
(1.51422 0.0188315 3.73363e-16)
(1.51351 0.0186088 3.97867e-16)
(1.51282 0.0183893 4.01043e-16)
(1.51215 0.018173 3.94363e-16)
(1.5115 0.0179599 4.03614e-16)
(1.51086 0.0177497 3.97449e-16)
(1.51024 0.0175425 4.08573e-16)
(1.50963 0.0173383 4.04809e-16)
(1.50904 0.0171369 4.07714e-16)
(1.50847 0.0169383 4.33264e-16)
(1.50791 0.0167425 4.37623e-16)
(1.50736 0.0165493 4.48763e-16)
(1.50683 0.0163588 4.49625e-16)
(1.50631 0.0161709 4.54026e-16)
(1.50581 0.0159855 4.49354e-16)
(1.50532 0.0158027 4.58691e-16)
(1.50484 0.0156222 4.51545e-16)
(1.50437 0.0154442 4.49931e-16)
(1.50392 0.0152685 4.73227e-16)
(1.50347 0.0150951 4.80196e-16)
(1.50304 0.014924 4.78721e-16)
(1.50262 0.0147551 4.82512e-16)
(1.50221 0.0145884 4.98165e-16)
(1.50181 0.0144238 5.0028e-16)
(1.50142 0.0142613 4.93865e-16)
(1.50104 0.0141009 4.91026e-16)
(1.50067 0.0139425 5.0377e-16)
(1.50031 0.013786 5.07206e-16)
(1.49996 0.0136316 4.99355e-16)
(1.49961 0.013479 5.02895e-16)
(1.49928 0.0133283 4.9759e-16)
(1.49895 0.0131795 5.02223e-16)
(1.49863 0.0130325 4.95319e-16)
(1.49832 0.0128872 4.96196e-16)
(1.49802 0.0127437 5.12096e-16)
(1.49773 0.0126019 5.14399e-16)
(1.49744 0.0124617 5.18243e-16)
(1.49716 0.0123232 5.14642e-16)
(1.49688 0.0121864 5.19844e-16)
(1.49662 0.0120511 5.12846e-16)
(1.49635 0.0119173 5.12893e-16)
(1.4961 0.011785 5.09884e-16)
(1.49585 0.0116543 5.0647e-16)
(1.49561 0.0115249 5.16224e-16)
(1.49537 0.011397 5.16223e-16)
(1.49514 0.0112703 5.12572e-16)
(1.49492 0.011145 5.12368e-16)
(1.4947 0.011021 5.1771e-16)
(1.49448 0.0108981 5.15828e-16)
(1.49427 0.0107764 5.09061e-16)
(1.49407 0.0106558 5.06714e-16)
(1.49387 0.0105361 5.11261e-16)
(1.49367 0.0104172 5.08099e-16)
(1.49348 0.0102992 5.03473e-16)
(1.49329 0.0101817 5.02688e-16)
(1.49311 0.0100646 4.98505e-16)
(1.49293 0.00994763 4.94597e-16)
(1.49275 0.00983045 4.93795e-16)
(1.49258 0.00971268 4.8959e-16)
(1.49241 0.00959347 4.86472e-16)
(1.49224 0.00947273 4.83911e-16)
(1.49207 0.00934738 4.80901e-16)
(1.49191 0.00922138 4.77661e-16)
(1.49174 0.00907781 4.73384e-16)
(1.49161 0.00895619 4.69447e-16)
(1.49136 0.00874442 4.64452e-16)
(1.38011 0.0180565 3.16518e-16)
(1.37999 0.0178325 3.35101e-16)
(1.37989 0.0176121 3.31272e-16)
(1.37979 0.0173951 3.50079e-16)
(1.37971 0.0171814 3.60395e-16)
(1.37963 0.0169711 3.7475e-16)
(1.37956 0.0167639 3.52364e-16)
(1.37951 0.0165599 3.66797e-16)
(1.37946 0.0163589 3.57382e-16)
(1.37941 0.016161 3.64395e-16)
(1.37938 0.015966 3.85792e-16)
(1.37935 0.0157739 3.95981e-16)
(1.37933 0.0155846 4.06033e-16)
(1.37932 0.0153981 4.11055e-16)
(1.37931 0.0152143 4.17456e-16)
(1.37932 0.0150332 4.03408e-16)
(1.37932 0.0148547 4.1659e-16)
(1.37933 0.0146787 3.97744e-16)
(1.37935 0.0145052 4.06132e-16)
(1.37938 0.0143342 4.24227e-16)
(1.37941 0.0141656 4.32227e-16)
(1.37944 0.0139993 4.39036e-16)
(1.37948 0.0138353 4.45186e-16)
(1.37952 0.0136736 4.37371e-16)
(1.37957 0.0135141 4.5339e-16)
(1.37962 0.0133568 4.36745e-16)
(1.37968 0.0132016 4.4815e-16)
(1.37974 0.0130485 4.42117e-16)
(1.3798 0.0128974 4.52416e-16)
(1.37987 0.0127483 4.57386e-16)
(1.37994 0.0126013 4.64042e-16)
(1.38001 0.0124561 4.50198e-16)
(1.38009 0.0123128 4.57176e-16)
(1.38017 0.0121714 4.45582e-16)
(1.38026 0.0120318 4.48982e-16)
(1.38034 0.011894 4.59605e-16)
(1.38043 0.0117579 4.67332e-16)
(1.38052 0.0116235 4.70816e-16)
(1.38061 0.0114908 4.70938e-16)
(1.38071 0.0113598 4.73268e-16)
(1.38081 0.0112303 4.62216e-16)
(1.38091 0.0111025 4.65892e-16)
(1.38101 0.0109761 4.57087e-16)
(1.38111 0.0108513 4.60917e-16)
(1.38121 0.0107279 4.64529e-16)
(1.38132 0.0106059 4.69228e-16)
(1.38143 0.0104854 4.69458e-16)
(1.38154 0.0103661 4.68875e-16)
(1.38165 0.0102481 4.63738e-16)
(1.38176 0.0101314 4.6684e-16)
(1.38187 0.0100159 4.59183e-16)
(1.38198 0.00990142 4.61342e-16)
(1.3821 0.00978804 4.581e-16)
(1.38221 0.00967561 4.60711e-16)
(1.38233 0.00956405 4.5937e-16)
(1.38244 0.00945324 4.58681e-16)
(1.38256 0.00934301 4.52937e-16)
(1.38267 0.0092332 4.51373e-16)
(1.38279 0.00912349 4.48998e-16)
(1.3829 0.00901363 4.4008e-16)
(1.38301 0.00890288 4.40016e-16)
(1.38313 0.0087912 4.3816e-16)
(1.38323 0.0086758 4.36295e-16)
(1.38334 0.0085601 4.33237e-16)
(1.38344 0.00842855 4.28754e-16)
(1.38353 0.00831621 4.25416e-16)
(1.38368 0.00811639 4.21255e-16)
(1.24546 0.0166381 2.41373e-16)
(1.2459 0.0164235 2.44822e-16)
(1.24634 0.0162125 2.73021e-16)
(1.24678 0.016005 2.72934e-16)
(1.24723 0.0158008 2.75324e-16)
(1.24768 0.0156 2.79e-16)
(1.24813 0.0154023 2.79456e-16)
(1.24858 0.0152079 2.82815e-16)
(1.24903 0.0150166 2.79735e-16)
(1.24948 0.0148283 2.7761e-16)
(1.24993 0.0146429 3.10239e-16)
(1.25038 0.0144605 3.08663e-16)
(1.25083 0.0142809 3.1451e-16)
(1.25128 0.014104 3.17221e-16)
(1.25173 0.0139299 3.20289e-16)
(1.25218 0.0137585 3.24097e-16)
(1.25264 0.0135896 3.28384e-16)
(1.25309 0.0134233 3.22647e-16)
(1.25354 0.0132595 3.20041e-16)
(1.25398 0.0130981 3.50933e-16)
(1.25443 0.0129392 3.49667e-16)
(1.25488 0.0127825 3.49736e-16)
(1.25533 0.0126282 3.48663e-16)
(1.25577 0.0124761 3.68793e-16)
(1.25621 0.0123262 3.71438e-16)
(1.25666 0.0121784 3.63441e-16)
(1.2571 0.0120328 3.63791e-16)
(1.25754 0.0118892 3.81357e-16)
(1.25798 0.0117477 3.78144e-16)
(1.25841 0.0116081 3.7883e-16)
(1.25885 0.0114704 3.79451e-16)
(1.25928 0.0113347 3.76562e-16)
(1.25971 0.0112008 3.77202e-16)
(1.26014 0.0110688 3.76481e-16)
(1.26057 0.0109386 3.72871e-16)
(1.26099 0.01081 3.90622e-16)
(1.26142 0.0106833 3.9074e-16)
(1.26184 0.0105581 3.9047e-16)
(1.26226 0.0104347 3.91777e-16)
(1.26267 0.0103128 3.93721e-16)
(1.26309 0.0101925 3.91945e-16)
(1.2635 0.0100738 3.91428e-16)
(1.26391 0.00995653 3.89764e-16)
(1.26432 0.00984074 3.88078e-16)
(1.26472 0.00972638 4.0011e-16)
(1.26513 0.00961341 3.98561e-16)
(1.26553 0.00950179 3.9748e-16)
(1.26592 0.00939149 3.96994e-16)
(1.26632 0.00928245 4.04043e-16)
(1.26671 0.00917463 4.02735e-16)
(1.2671 0.009068 3.98477e-16)
(1.26749 0.00896249 3.96453e-16)
(1.26788 0.00885806 4.025e-16)
(1.26826 0.00875465 4.0009e-16)
(1.26864 0.00865218 3.98782e-16)
(1.26901 0.0085506 3.97767e-16)
(1.26938 0.00844978 3.95345e-16)
(1.26975 0.00834965 3.9322e-16)
(1.27012 0.00824997 3.90959e-16)
(1.27048 0.00815067 3.87916e-16)
(1.27083 0.00805103 3.85885e-16)
(1.27118 0.00795158 3.8392e-16)
(1.27153 0.00784881 3.82235e-16)
(1.27186 0.00774889 3.80354e-16)
(1.27219 0.00763018 3.78089e-16)
(1.27247 0.00754223 3.75767e-16)
(1.27295 0.00734358 3.73115e-16)
(1.11214 0.0148695 1.65735e-16)
(1.11306 0.0146712 1.68647e-16)
(1.11397 0.0144762 1.98013e-16)
(1.11488 0.0142847 1.96671e-16)
(1.11578 0.0140963 1.98721e-16)
(1.11667 0.0139112 1.97015e-16)
(1.11756 0.0137293 2.00557e-16)
(1.11844 0.0135503 2.032e-16)
(1.11931 0.0133744 2.0475e-16)
(1.12018 0.0132013 2.06139e-16)
(1.12105 0.0130311 2.33769e-16)
(1.1219 0.0128638 2.33147e-16)
(1.12275 0.0126991 2.36669e-16)
(1.1236 0.0125371 2.41274e-16)
(1.12443 0.0123777 2.41394e-16)
(1.12526 0.0122208 2.43256e-16)
)
;

boundaryField
{
    inlet
    {
        type            uniformFixedValue;
        uniformValue    constant (1 0 0);
        value           nonuniform 0();
    }
    outlet
    {
        type            pressureInletOutletVelocity;
        value           nonuniform List<vector> 5((1.69551 0.00945991 5.28839e-16) (1.59551 0.00920076 5.01943e-16) (1.49136 0.00874442 4.64452e-16) (1.38368 0.00811639 4.21255e-16) (1.27295 0.00734358 3.73115e-16));
    }
    wall
    {
        type            fixedValue;
        value           nonuniform 0();
    }
    wedge1
    {
        type            wedge;
    }
    wedge2
    {
        type            wedge;
    }
    axis
    {
        type            empty;
    }
    procBoundary17to11
    {
        type            processor;
        value           nonuniform List<vector> 
68
(
(1.88726 0.0179123 5.51443e-16)
(1.8849 0.0177344 5.42445e-16)
(1.88257 0.0175583 5.45146e-16)
(1.88028 0.0173839 5.72441e-16)
(1.87802 0.0172113 5.67906e-16)
(1.87579 0.0170404 5.77974e-16)
(1.87359 0.0168712 5.82021e-16)
(1.87142 0.0167037 5.98178e-16)
(1.86929 0.0165377 5.93769e-16)
(1.86718 0.0163734 5.99251e-16)
(1.8651 0.0162107 5.93986e-16)
(1.86306 0.0160496 5.92824e-16)
(1.86104 0.01589 6.15124e-16)
(1.85905 0.0157319 6.08451e-16)
(1.85708 0.0155754 6.1345e-16)
(1.85515 0.0154203 6.20825e-16)
(1.85324 0.0152667 6.28836e-16)
(1.85135 0.0151146 6.28912e-16)
(1.84949 0.0149638 6.1958e-16)
(1.84766 0.0148145 6.20526e-16)
(1.84585 0.0146666 6.32216e-16)
(1.84407 0.0145201 6.22983e-16)
(1.84231 0.0143749 6.23347e-16)
(1.84057 0.014231 6.31012e-16)
(1.83886 0.0140885 6.25529e-16)
(1.83717 0.0139473 6.30095e-16)
(1.8355 0.0138073 6.25201e-16)
(1.83385 0.0136687 6.2308e-16)
(1.83223 0.0135312 6.37911e-16)
(1.83062 0.0133951 6.32112e-16)
(1.82904 0.0132601 6.35405e-16)
(1.82748 0.0131263 6.34162e-16)
(1.82594 0.0129937 6.3517e-16)
(1.82442 0.0128623 6.3228e-16)
(1.82292 0.012732 6.34873e-16)
(1.82144 0.0126028 6.28065e-16)
(1.81997 0.0124747 6.25281e-16)
(1.81853 0.0123477 6.31298e-16)
(1.8171 0.0122217 6.26739e-16)
(1.8157 0.0120966 6.25125e-16)
(1.81431 0.0119725 6.24943e-16)
(1.81294 0.0118493 6.28167e-16)
(1.81158 0.011727 6.22475e-16)
(1.81025 0.0116054 6.14241e-16)
(1.80893 0.0114844 6.11056e-16)
(1.80762 0.011364 6.11372e-16)
(1.80634 0.0112441 6.05702e-16)
(1.80507 0.0111244 6.00561e-16)
(1.80381 0.0110048 5.98888e-16)
(1.80258 0.0108849 5.93109e-16)
(1.80136 0.0107646 5.8805e-16)
(1.80015 0.0106432 5.8563e-16)
(1.79896 0.0105205 5.80501e-16)
(1.79779 0.0103951 5.7602e-16)
(1.79663 0.0102683 5.71071e-16)
(1.79548 0.0101338 5.66431e-16)
(1.79438 0.0100029 5.62417e-16)
(1.79319 0.00984501 5.56263e-16)
(1.79231 0.0097265 5.50742e-16)
(1.79059 0.00950218 5.42847e-16)
(1.77909 0.019645 4.7063e-16)
(1.77708 0.0194362 5.04103e-16)
(1.77511 0.0192299 4.63584e-16)
(1.77317 0.019026 4.99703e-16)
(1.77126 0.0188246 5.08567e-16)
(1.76938 0.0186256 5.34674e-16)
(1.76754 0.0184289 5.07835e-16)
(1.76754 0.0184289 5.07835e-16)
)
;
    }
    procBoundary17to16
    {
        type            processor;
        value           nonuniform List<vector> 4((1.64991 0.0198185 4.44193e-16) (1.5157 0.0192868 3.76002e-16) (1.38024 0.018284 3.27398e-16) (1.24502 0.0168562 2.44246e-16));
    }
    procBoundary17to22
    {
        type            processor;
        value           uniform (1.11121 0.0150714 1.67407e-16);
    }
    procBoundary17to23
    {
        type            processor;
        value           nonuniform List<vector> 
68
(
(1.12609 0.0120664 2.45552e-16)
(1.12691 0.0119145 2.49307e-16)
(1.12772 0.011765 2.48625e-16)
(1.12852 0.0116178 2.72185e-16)
(1.12932 0.0114728 2.70616e-16)
(1.13011 0.0113301 2.71167e-16)
(1.1309 0.0111896 2.6921e-16)
(1.13168 0.0110512 2.92031e-16)
(1.13245 0.0109149 2.90013e-16)
(1.13322 0.0107807 2.91092e-16)
(1.13398 0.0106484 2.86406e-16)
(1.13474 0.0105181 3.06122e-16)
(1.13549 0.0103897 3.06902e-16)
(1.13623 0.0102632 3.05634e-16)
(1.13696 0.0101386 3.02579e-16)
(1.13769 0.0100157 3.04376e-16)
(1.13842 0.00989464 3.04799e-16)
(1.13913 0.00977526 3.0623e-16)
(1.13985 0.00965758 3.06093e-16)
(1.14055 0.00954155 3.19069e-16)
(1.14125 0.00942713 3.19678e-16)
(1.14194 0.00931429 3.16787e-16)
(1.14263 0.009203 3.19164e-16)
(1.14331 0.00909323 3.20389e-16)
(1.14399 0.00898493 3.22462e-16)
(1.14466 0.00887807 3.21803e-16)
(1.14532 0.00877263 3.23429e-16)
(1.14598 0.00866856 3.23727e-16)
(1.14663 0.00856584 3.33414e-16)
(1.14727 0.00846442 3.29143e-16)
(1.14791 0.00836427 3.31572e-16)
(1.14855 0.00826536 3.32023e-16)
(1.14918 0.00816766 3.3997e-16)
(1.1498 0.00807112 3.37357e-16)
(1.15041 0.00797571 3.34941e-16)
(1.15102 0.00788139 3.33842e-16)
(1.15163 0.00778814 3.40907e-16)
(1.15223 0.00769591 3.38364e-16)
(1.15282 0.00760468 3.37779e-16)
(1.15341 0.00751441 3.36477e-16)
(1.15399 0.00742507 3.35948e-16)
(1.15456 0.00733668 3.35202e-16)
(1.15513 0.00724905 3.34355e-16)
(1.15569 0.00716247 3.33202e-16)
(1.15624 0.00707594 3.31717e-16)
(1.15678 0.00699156 3.30543e-16)
(1.15732 0.0069028 3.29169e-16)
(1.15783 0.00682542 3.28023e-16)
(1.15836 0.00671533 3.26752e-16)
(1.15878 0.00668519 3.25626e-16)
(1.15954 0.0064535 3.24191e-16)
(1.02455 0.0135289 1.21223e-16)
(1.02572 0.013345 1.18726e-16)
(1.02688 0.0131644 1.34659e-16)
(1.02803 0.0129869 1.42334e-16)
(1.02917 0.0128126 1.53418e-16)
(1.0303 0.0126412 1.49633e-16)
(1.03142 0.0124729 1.58228e-16)
(1.03253 0.0123074 1.57798e-16)
(1.03362 0.0121448 1.66323e-16)
(1.03471 0.0119849 1.63412e-16)
(1.03579 0.0118277 1.74459e-16)
(1.03686 0.0116732 1.81012e-16)
(1.03791 0.0115212 1.8458e-16)
(1.03896 0.0113718 1.93876e-16)
(1.04 0.0112248 1.9309e-16)
(1.12609 0.0120664 2.45552e-16)
(1.04103 0.0110802 2.01383e-16)
)
;
    }
}


// ************************************************************************* //
