/*--------------------------------*- C++ -*----------------------------------*\
  =========                 |
  \\      /  F ield         | OpenFOAM: The Open Source CFD Toolbox
   \\    /   O peration     | Website:  https://openfoam.org
    \\  /    A nd           | Version:  7
     \\/     M anipulation  |
\*---------------------------------------------------------------------------*/
FoamFile
{
    version     2.0;
    format      ascii;
    class       volScalarField;
    location    "36.000594";
    object      p;
}
// * * * * * * * * * * * * * * * * * * * * * * * * * * * * * * * * * * * * * //

dimensions      [0 2 -2 0 0 0 0];

internalField   nonuniform List<scalar> 
23200
(
-0.287892
-0.292082
-0.294532
-0.295884
-0.296444
-0.296182
-0.295108
-0.293246
-0.290613
-0.287223
-0.28309
-0.27823
-0.272668
-0.26644
-0.259597
-0.252212
-0.244386
-0.236281
-0.228038
-0.219495
-0.288716
-0.292813
-0.295195
-0.296488
-0.296993
-0.296682
-0.295563
-0.293662
-0.290994
-0.287572
-0.28341
-0.278524
-0.272936
-0.26668
-0.259808
-0.252389
-0.24452
-0.236374
-0.228074
-0.219311
-0.290355
-0.294269
-0.296513
-0.297689
-0.298086
-0.297676
-0.29647
-0.29449
-0.291751
-0.288266
-0.284045
-0.279105
-0.273466
-0.267157
-0.260226
-0.252738
-0.244785
-0.236558
-0.228147
-0.218942
-0.292793
-0.296435
-0.298474
-0.299476
-0.299711
-0.299155
-0.297817
-0.295718
-0.292873
-0.289292
-0.284985
-0.279965
-0.274247
-0.267859
-0.260842
-0.253253
-0.245176
-0.236827
-0.228257
-0.218389
-0.296006
-0.299291
-0.301062
-0.301833
-0.301854
-0.301103
-0.299589
-0.297333
-0.294346
-0.290637
-0.286215
-0.281087
-0.275267
-0.268774
-0.261643
-0.253922
-0.245682
-0.237173
-0.228404
-0.217651
-0.299963
-0.302811
-0.304251
-0.304737
-0.304493
-0.303501
-0.301768
-0.299314
-0.29615
-0.292282
-0.287715
-0.282454
-0.276505
-0.269883
-0.262613
-0.254732
-0.246294
-0.237588
-0.228589
-0.216731
-0.30463
-0.306966
-0.308016
-0.308165
-0.307606
-0.306325
-0.304332
-0.301642
-0.298265
-0.294206
-0.289465
-0.284044
-0.277943
-0.271168
-0.263735
-0.255666
-0.247
-0.238062
-0.228811
-0.215634
-0.309965
-0.311721
-0.312325
-0.312088
-0.311166
-0.309552
-0.307255
-0.304291
-0.300667
-0.296384
-0.291442
-0.285834
-0.279557
-0.272606
-0.264988
-0.25671
-0.247787
-0.238584
-0.229072
-0.214367
-0.315927
-0.317039
-0.317147
-0.316476
-0.315146
-0.313155
-0.310514
-0.307238
-0.303331
-0.298794
-0.29362
-0.287801
-0.281324
-0.274177
-0.266353
-0.257845
-0.248641
-0.239143
-0.22937
-0.212943
-0.32247
-0.322883
-0.322448
-0.321299
-0.319516
-0.317106
-0.314082
-0.310457
-0.306234
-0.301411
-0.295978
-0.289922
-0.283223
-0.275858
-0.26781
-0.259056
-0.249553
-0.239731
-0.229705
-0.211382
-0.329552
-0.329214
-0.328193
-0.326525
-0.324248
-0.321379
-0.317935
-0.313925
-0.309352
-0.304213
-0.298494
-0.292177
-0.285233
-0.277632
-0.269343
-0.260326
-0.250509
-0.240338
-0.230074
-0.209709
-0.337128
-0.335996
-0.33435
-0.332124
-0.329315
-0.32595
-0.322048
-0.317619
-0.312666
-0.307181
-0.30115
-0.294547
-0.287338
-0.279482
-0.270935
-0.261644
-0.251501
-0.240958
-0.230468
-0.207959
-0.345158
-0.343192
-0.340885
-0.338067
-0.33469
-0.330794
-0.326401
-0.321521
-0.316157
-0.310299
-0.303929
-0.297018
-0.289523
-0.281394
-0.272575
-0.262998
-0.252521
-0.241584
-0.230874
-0.206171
-0.353602
-0.350768
-0.347768
-0.344327
-0.340349
-0.335889
-0.330974
-0.325614
-0.31981
-0.313554
-0.306821
-0.299579
-0.291778
-0.283358
-0.274253
-0.264378
-0.253561
-0.242215
-0.23127
-0.204394
-0.362425
-0.358691
-0.35497
-0.350877
-0.34627
-0.341218
-0.335752
-0.329884
-0.323616
-0.316935
-0.309818
-0.302223
-0.294096
-0.285369
-0.275962
-0.26578
-0.254618
-0.242853
-0.231634
-0.202693
-0.371592
-0.366931
-0.362465
-0.357694
-0.352432
-0.346762
-0.340721
-0.334322
-0.327565
-0.320439
-0.312914
-0.304946
-0.296474
-0.287422
-0.277699
-0.267197
-0.255689
-0.243507
-0.231938
-0.201165
-0.381071
-0.375459
-0.370225
-0.364755
-0.358816
-0.352506
-0.345869
-0.338917
-0.331652
-0.324059
-0.316107
-0.307746
-0.29891
-0.289513
-0.279459
-0.268627
-0.256771
-0.244187
-0.232095
-0.19984
-0.390834
-0.384246
-0.378225
-0.372038
-0.365404
-0.358437
-0.351187
-0.343665
-0.335873
-0.327795
-0.319396
-0.310621
-0.301399
-0.291639
-0.281239
-0.270069
-0.257881
-0.244918
-0.23189
-0.19851
-0.400848
-0.393265
-0.386439
-0.379521
-0.372179
-0.364541
-0.356663
-0.348557
-0.340224
-0.331644
-0.322778
-0.313568
-0.303936
-0.293791
-0.28303
-0.271526
-0.259071
-0.245828
-0.231401
-0.197844
-0.411084
-0.402484
-0.394842
-0.387182
-0.37912
-0.370803
-0.362288
-0.353587
-0.344698
-0.335599
-0.326247
-0.316577
-0.306509
-0.295952
-0.28481
-0.272982
-0.260357
-0.247085
-0.231991
-0.20488
-0.421505
-0.411872
-0.403403
-0.394994
-0.386209
-0.377206
-0.368047
-0.358742
-0.349286
-0.339652
-0.329791
-0.319633
-0.309095
-0.298089
-0.286531
-0.274358
-0.261577
-0.248423
-0.234894
-0.226791
-0.432073
-0.421392
-0.412089
-0.402929
-0.393418
-0.383729
-0.373924
-0.364009
-0.353974
-0.343787
-0.333391
-0.322712
-0.311664
-0.300159
-0.288128
-0.27554
-0.262479
-0.249204
-0.235715
-0.231235
-0.442743
-0.431001
-0.420861
-0.410952
-0.40072
-0.390347
-0.379896
-0.369366
-0.35874
-0.347979
-0.33702
-0.32578
-0.31417
-0.302108
-0.289532
-0.276433
-0.262932
-0.249254
-0.235143
-0.230266
-0.45346
-0.44065
-0.429676
-0.419025
-0.408078
-0.397028
-0.385932
-0.374782
-0.363553
-0.352196
-0.340638
-0.328791
-0.316563
-0.303873
-0.29067
-0.276961
-0.262876
-0.248603
-0.233792
-0.227332
-0.464163
-0.450282
-0.43848
-0.427098
-0.415449
-0.40373
-0.391994
-0.38022
-0.368372
-0.356391
-0.344194
-0.331687
-0.318776
-0.305384
-0.291471
-0.277055
-0.262268
-0.247263
-0.231698
-0.223228
-0.474778
-0.459829
-0.447211
-0.435115
-0.422781
-0.410405
-0.398033
-0.385629
-0.373145
-0.360508
-0.347626
-0.334401
-0.320737
-0.306565
-0.291858
-0.276649
-0.26107
-0.245251
-0.228909
-0.218418
-0.48522
-0.469215
-0.4558
-0.443012
-0.430011
-0.416993
-0.40399
-0.390949
-0.377806
-0.364476
-0.350858
-0.33685
-0.322362
-0.307334
-0.291757
-0.275683
-0.259254
-0.242585
-0.225489
-0.213176
-0.495392
-0.47835
-0.464165
-0.450711
-0.437067
-0.423423
-0.409793
-0.396104
-0.382277
-0.368212
-0.353803
-0.338946
-0.32356
-0.307604
-0.291093
-0.274103
-0.256792
-0.23928
-0.221483
-0.207622
-0.505185
-0.487136
-0.472212
-0.458124
-0.443865
-0.429611
-0.415358
-0.401009
-0.386467
-0.371623
-0.356363
-0.340589
-0.324237
-0.30729
-0.289793
-0.271857
-0.253659
-0.235341
-0.216914
-0.201784
-0.514475
-0.495461
-0.479839
-0.465155
-0.45031
-0.435464
-0.420589
-0.405564
-0.390275
-0.3746
-0.358429
-0.341675
-0.324294
-0.306304
-0.287789
-0.268896
-0.249833
-0.230764
-0.21179
-0.19565
-0.52313
-0.503202
-0.486931
-0.471693
-0.456295
-0.440876
-0.425378
-0.409659
-0.393585
-0.37703
-0.359889
-0.342093
-0.323632
-0.304563
-0.285014
-0.265177
-0.245291
-0.225545
-0.20611
-0.189186
-0.531004
-0.510227
-0.493362
-0.477618
-0.461702
-0.445727
-0.429606
-0.413171
-0.396275
-0.378789
-0.360622
-0.341734
-0.322153
-0.301986
-0.281411
-0.260662
-0.240012
-0.219672
-0.199868
-0.182353
-0.537941
-0.516394
-0.498999
-0.4828
-0.466403
-0.44989
-0.433143
-0.41597
-0.398213
-0.379749
-0.360509
-0.340487
-0.319764
-0.298499
-0.276924
-0.255317
-0.233978
-0.213138
-0.193055
-0.175113
-0.543777
-0.521551
-0.503698
-0.487099
-0.47026
-0.453227
-0.435851
-0.417917
-0.399263
-0.379779
-0.359426
-0.338247
-0.316376
-0.294035
-0.271507
-0.249113
-0.227173
-0.205931
-0.185661
-0.167434
-0.548344
-0.52554
-0.507308
-0.490368
-0.473128
-0.455594
-0.437585
-0.418869
-0.399286
-0.378748
-0.357257
-0.334912
-0.31191
-0.288534
-0.265121
-0.242026
-0.219584
-0.198044
-0.177679
-0.159287
-0.551464
-0.528198
-0.509672
-0.492455
-0.474856
-0.456839
-0.438195
-0.418679
-0.398141
-0.376528
-0.353889
-0.330388
-0.306293
-0.281946
-0.257733
-0.234039
-0.211203
-0.189471
-0.169101
-0.150653
-0.552962
-0.52936
-0.510631
-0.493202
-0.475287
-0.456808
-0.437529
-0.417201
-0.395694
-0.372995
-0.349217
-0.324593
-0.299462
-0.274229
-0.24932
-0.225138
-0.202023
-0.180208
-0.159923
-0.141518
-0.55266
-0.528858
-0.510022
-0.49245
-0.474265
-0.455346
-0.435438
-0.414293
-0.391811
-0.368035
-0.343146
-0.317454
-0.291368
-0.26535
-0.239862
-0.215317
-0.192042
-0.170253
-0.150143
-0.131874
-0.550384
-0.526527
-0.507685
-0.49004
-0.471633
-0.452301
-0.431773
-0.409816
-0.386371
-0.361544
-0.335593
-0.308908
-0.281969
-0.255287
-0.22935
-0.204572
-0.18126
-0.159608
-0.139762
-0.121715
-0.545966
-0.522207
-0.503464
-0.485819
-0.467239
-0.447524
-0.426394
-0.403642
-0.37926
-0.353428
-0.326487
-0.298908
-0.271236
-0.244026
-0.217781
-0.192906
-0.169683
-0.148277
-0.128782
-0.111043
-0.539247
-0.515745
-0.497208
-0.479636
-0.460937
-0.440874
-0.419171
-0.395654
-0.37038
-0.34361
-0.315772
-0.287418
-0.259152
-0.231561
-0.205157
-0.180326
-0.157317
-0.136267
-0.117211
-0.0998619
-0.530079
-0.506997
-0.488775
-0.471352
-0.45259
-0.432222
-0.409983
-0.385748
-0.359647
-0.332027
-0.303408
-0.274416
-0.245709
-0.217898
-0.191488
-0.166843
-0.144176
-0.123589
-0.105057
-0.0881792
-0.518331
-0.495834
-0.478036
-0.46084
-0.442075
-0.421452
-0.398729
-0.373838
-0.346992
-0.318633
-0.289368
-0.259894
-0.230912
-0.203047
-0.176791
-0.152475
-0.130274
-0.110256
-0.0923354
-0.0760119
-0.503886
-0.482142
-0.464878
-0.447987
-0.429283
-0.408464
-0.38532
-0.359854
-0.332368
-0.303399
-0.273642
-0.243857
-0.214777
-0.18703
-0.161087
-0.137244
-0.11563
-0.0962849
-0.0790618
-0.0633772
-0.486649
-0.465824
-0.449202
-0.432696
-0.414124
-0.393177
-0.369691
-0.343747
-0.315743
-0.286314
-0.256236
-0.226322
-0.197328
-0.169876
-0.144407
-0.121175
-0.10027
-0.081697
-0.0652527
-0.0502495
-0.466549
-0.446805
-0.430934
-0.414894
-0.396528
-0.375532
-0.351796
-0.325489
-0.29711
-0.267387
-0.237171
-0.207321
-0.178603
-0.151622
-0.126785
-0.104302
-0.0842202
-0.0665181
-0.0509344
-0.0365732
-0.443536
-0.425034
-0.410019
-0.394527
-0.376448
-0.355491
-0.331611
-0.305074
-0.276477
-0.246642
-0.216485
-0.186896
-0.158646
-0.132312
-0.108262
-0.0866608
-0.0675148
-0.0507725
-0.0361336
-0.0226179
-0.417591
-0.400484
-0.386428
-0.371567
-0.353861
-0.333042
-0.309139
-0.282517
-0.253877
-0.224123
-0.194228
-0.165105
-0.137513
-0.111999
-0.0888867
-0.0682942
-0.0501951
-0.0345151
-0.0208372
-0.0082994
-0.388721
-0.373156
-0.360156
-0.34601
-0.328769
-0.308196
-0.284403
-0.257859
-0.229361
-0.199891
-0.170467
-0.142012
-0.115268
-0.0907427
-0.0687134
-0.0492536
-0.0323
-0.0177609
-0.00512822
0.00638319
-0.356962
-0.343077
-0.331229
-0.317883
-0.301202
-0.280993
-0.257455
-0.231159
-0.202999
-0.174022
-0.145281
-0.117698
-0.0919858
-0.0686114
-0.0478025
-0.0295895
-0.0138782
-0.000555901
0.010959
0.021393
-0.322382
-0.310305
-0.299698
-0.287236
-0.271217
-0.251497
-0.228367
-0.202502
-0.174882
-0.146611
-0.118763
-0.0922493
-0.0677483
-0.0456785
-0.0262204
-0.00936205
0.00501778
0.0170515
0.0273863
0.0366889
-0.285077
-0.274926
-0.265646
-0.254151
-0.238898
-0.219799
-0.197238
-0.171993
-0.145118
-0.117766
-0.0910167
-0.0657652
-0.0426451
-0.0220256
-0.00403976
0.0113638
0.0243304
0.03501
0.0441088
0.0522261
-0.245176
-0.237056
-0.229182
-0.218737
-0.204357
-0.186015
-0.164191
-0.139757
-0.11383
-0.0876074
-0.0621606
-0.0383533
-0.0167742
0.00225927
0.0186607
0.032518
0.0439969
0.0532639
0.0610765
0.0679556
-0.202837
-0.196841
-0.190444
-0.181131
-0.167732
-0.150287
-0.129367
-0.105933
-0.0811664
-0.0562735
-0.0323197
-0.0101293
0.00975977
0.0270823
0.0417971
0.0540251
0.0639498
0.0717533
0.0782341
0.0838214
-0.158248
-0.154451
-0.1496
-0.141498
-0.129189
-0.112774
-0.0929308
-0.0706894
-0.0472778
-0.0239102
-0.00163023
0.018783
0.0368456
0.0523442
0.0652804
0.0758049
0.0841166
0.0904133
0.0955206
0.0997604
-0.111616
-0.110091
-0.106844
-0.100025
-0.0889087
-0.0736725
-0.0550679
-0.0342018
-0.012334
0.00932474
0.0297634
0.0482535
0.0643666
0.0779405
0.0890171
0.0977732
0.10442
0.109176
0.112873
0.115703
-0.0631299
-0.0640278
-0.0623932
-0.0569277
-0.0471089
-0.0331826
-0.0159777
0.00333775
0.0234837
0.0432643
0.0617095
0.0781457
0.0922013
0.103763
0.11291
0.119842
0.124782
0.127976
0.130232
0.131549
-0.0131903
-0.0164208
-0.0164864
-0.0124434
-0.00401879
0.00847015
0.0241232
0.0417241
0.0599843
0.0777336
0.0940502
0.108319
0.120224
0.1297
0.13686
0.14192
0.145122
0.146758
0.147535
0.1471
0.0380084
0.0324021
0.0306067
0.0331719
0.0401126
0.0510445
0.065005
0.0807412
0.0969683
0.112551
0.126622
0.138627
0.148306
0.155637
0.160763
0.163914
0.165358
0.165447
0.164613
0.162116
0.0901572
0.0821513
0.0786065
0.0796449
0.0850199
0.0942857
0.106426
0.120164
0.134229
0.147531
0.159259
0.168923
0.176316
0.181458
0.184518
0.185733
0.185409
0.183909
0.1811
0.176549
0.142927
0.132523
0.127217
0.126687
0.130425
0.137928
0.148137
0.159761
0.171556
0.182481
0.191791
0.199055
0.204121
0.207047
0.208021
0.207295
0.205205
0.202028
0.196774
0.190643
0.195982
0.183196
0.176125
0.173996
0.176037
0.181696
0.18988
0.199296
0.208733
0.217209
0.224045
0.228871
0.231587
0.232284
0.231173
0.228516
0.224671
0.219878
0.213104
0.20653
0.248975
0.233839
0.225012
0.221261
0.22156
0.22531
0.231394
0.238528
0.245543
0.251521
0.255849
0.25822
0.258579
0.257052
0.253865
0.249295
0.243701
0.23729
0.229186
0.221912
0.301554
0.284113
0.273548
0.268167
0.266691
0.268485
0.272415
0.277216
0.28177
0.285223
0.287032
0.286948
0.284962
0.281229
0.275991
0.269532
0.262208
0.254196
0.244775
0.236565
0.353361
0.333675
0.3214
0.314393
0.311126
0.310934
0.312679
0.31512
0.317196
0.318122
0.317422
0.314906
0.310604
0.304699
0.297446
0.289134
0.28011
0.270535
0.259813
0.250508
0.404041
0.38218
0.368236
0.359617
0.35456
0.352374
0.351925
0.352003
0.351609
0.350029
0.346853
0.341944
0.335374
0.327346
0.318127
0.308009
0.297327
0.286232
0.274238
0.263763
0.453239
0.429288
0.413725
0.403524
0.396693
0.392525
0.389895
0.387633
0.384802
0.380759
0.37516
0.36792
0.359145
0.349058
0.337935
0.326069
0.313783
0.301218
0.287988
0.276323
0.500608
0.474662
0.457541
0.4458
0.43723
0.431113
0.426338
0.421781
0.416571
0.410133
0.402186
0.392693
0.381793
0.369726
0.356775
0.34323
0.329403
0.31543
0.301009
0.288162
0.545808
0.517976
0.49937
0.486143
0.475886
0.467872
0.461013
0.454232
0.446722
0.437978
0.427778
0.416129
0.4032
0.389246
0.374554
0.359413
0.344119
0.328808
0.313251
0.29925
0.588515
0.558913
0.538904
0.524261
0.512385
0.502548
0.493689
0.484776
0.47507
0.46413
0.451791
0.438101
0.423254
0.407518
0.391185
0.37454
0.357865
0.341295
0.324667
0.309557
0.628417
0.597175
0.575855
0.559877
0.546468
0.534902
0.524145
0.513217
0.501439
0.488434
0.474088
0.458487
0.441847
0.42445
0.406587
0.388539
0.370578
0.352837
0.335212
0.319051
0.665224
0.632477
0.609949
0.592729
0.577889
0.564707
0.552178
0.53937
0.525665
0.510745
0.494541
0.477175
0.458882
0.439953
0.420681
0.401344
0.382199
0.363383
0.344842
0.327702
0.698665
0.664559
0.640932
0.622577
0.606422
0.591754
0.577597
0.563066
0.547599
0.530929
0.513033
0.494061
0.474267
0.453948
0.433399
0.412892
0.392675
0.372886
0.353516
0.335479
0.728492
0.693181
0.668573
0.649199
0.631861
0.615854
0.600231
0.584151
0.567102
0.548866
0.529456
0.50905
0.487917
0.46636
0.444674
0.423126
0.401955
0.381302
0.361195
0.342353
0.754485
0.718127
0.692665
0.672398
0.65402
0.636836
0.619926
0.602487
0.584053
0.564447
0.543716
0.52206
0.49976
0.477125
0.454449
0.431996
0.409995
0.388592
0.367845
0.348297
0.77645
0.73921
0.713027
0.692001
0.672739
0.654553
0.636548
0.617954
0.598344
0.577578
0.555729
0.533016
0.50973
0.486185
0.462674
0.439457
0.416757
0.394722
0.373436
0.353289
0.794222
0.756272
0.729504
0.707863
0.687881
0.66888
0.649984
0.630451
0.609887
0.58818
0.565425
0.541856
0.517773
0.493492
0.469306
0.445472
0.422206
0.399661
0.377941
0.357308
0.807669
0.769182
0.741973
0.719864
0.699336
0.679715
0.660142
0.639897
0.618609
0.596188
0.572747
0.548531
0.523845
0.499007
0.47431
0.45001
0.426317
0.403387
0.381338
0.360336
0.81669
0.777844
0.750338
0.727915
0.707019
0.686981
0.666952
0.646228
0.624454
0.601554
0.577653
0.553002
0.527911
0.5027
0.477661
0.453049
0.429069
0.405881
0.383613
0.362363
0.821218
0.782192
0.754537
0.731956
0.710875
0.690627
0.670369
0.649405
0.627386
0.604245
0.580113
0.555244
0.52995
0.504552
0.479341
0.454572
0.430449
0.407132
0.384753
0.363378
0.821218
0.782192
0.754537
0.731956
0.710875
0.690627
0.670369
0.649405
0.627386
0.604245
0.580113
0.555244
0.52995
0.504552
0.479341
0.454572
0.430449
0.407132
0.384753
0.363378
0.81669
0.777844
0.750338
0.727915
0.707019
0.686981
0.666952
0.646228
0.624454
0.601554
0.577653
0.553002
0.527911
0.5027
0.477661
0.453049
0.429069
0.405881
0.383613
0.362363
0.807669
0.769182
0.741973
0.719864
0.699336
0.679715
0.660142
0.639897
0.618609
0.596188
0.572747
0.548531
0.523845
0.499007
0.47431
0.45001
0.426317
0.403387
0.381338
0.360336
0.794222
0.756272
0.729504
0.707863
0.687881
0.66888
0.649984
0.630451
0.609887
0.58818
0.565425
0.541856
0.517773
0.493492
0.469306
0.445472
0.422206
0.399661
0.377941
0.357308
0.77645
0.73921
0.713027
0.692001
0.672739
0.654553
0.636548
0.617954
0.598344
0.577578
0.555729
0.533016
0.50973
0.486185
0.462674
0.439457
0.416757
0.394722
0.373436
0.353289
0.754485
0.718127
0.692665
0.672398
0.65402
0.636836
0.619926
0.602487
0.584053
0.564447
0.543716
0.52206
0.49976
0.477125
0.454449
0.431996
0.409995
0.388592
0.367845
0.348297
0.728492
0.693181
0.668573
0.649199
0.631861
0.615854
0.600231
0.584151
0.567102
0.548866
0.529456
0.50905
0.487917
0.46636
0.444674
0.423126
0.401955
0.381302
0.361195
0.342353
0.698665
0.664559
0.640932
0.622577
0.606422
0.591754
0.577597
0.563066
0.547599
0.530929
0.513033
0.494061
0.474267
0.453948
0.433399
0.412892
0.392675
0.372886
0.353516
0.335479
0.665224
0.632477
0.609949
0.592729
0.577889
0.564707
0.552178
0.53937
0.525665
0.510745
0.494541
0.477175
0.458882
0.439953
0.420681
0.401344
0.382199
0.363383
0.344842
0.327702
0.628417
0.597175
0.575855
0.559877
0.546468
0.534902
0.524145
0.513217
0.501439
0.488434
0.474088
0.458487
0.441847
0.42445
0.406587
0.388539
0.370578
0.352837
0.335212
0.319051
0.588515
0.558913
0.538904
0.524261
0.512385
0.502548
0.493689
0.484776
0.47507
0.46413
0.451791
0.438101
0.423254
0.407518
0.391185
0.37454
0.357865
0.341295
0.324667
0.309557
0.545808
0.517976
0.49937
0.486143
0.475886
0.467872
0.461013
0.454232
0.446722
0.437978
0.427778
0.416129
0.4032
0.389246
0.374554
0.359413
0.344119
0.328808
0.313251
0.29925
0.500608
0.474662
0.457541
0.4458
0.43723
0.431113
0.426338
0.421781
0.416571
0.410133
0.402186
0.392693
0.381793
0.369726
0.356775
0.34323
0.329403
0.31543
0.301009
0.288162
0.453239
0.429288
0.413725
0.403524
0.396693
0.392525
0.389895
0.387633
0.384802
0.380759
0.37516
0.36792
0.359145
0.349058
0.337935
0.326069
0.313783
0.301218
0.287988
0.276323
0.404041
0.38218
0.368236
0.359617
0.35456
0.352374
0.351925
0.352003
0.351609
0.350029
0.346853
0.341944
0.335374
0.327346
0.318127
0.308009
0.297327
0.286232
0.274238
0.263763
0.353361
0.333675
0.3214
0.314393
0.311126
0.310934
0.312679
0.31512
0.317196
0.318122
0.317422
0.314906
0.310604
0.304699
0.297446
0.289134
0.28011
0.270535
0.259813
0.250508
0.301554
0.284113
0.273548
0.268167
0.266691
0.268485
0.272415
0.277216
0.28177
0.285223
0.287032
0.286948
0.284962
0.281229
0.275991
0.269532
0.262208
0.254196
0.244775
0.236565
0.248975
0.233839
0.225012
0.221261
0.22156
0.22531
0.231394
0.238528
0.245543
0.251521
0.255849
0.25822
0.258579
0.257052
0.253865
0.249295
0.243701
0.23729
0.229186
0.221912
0.195982
0.183196
0.176125
0.173996
0.176037
0.181696
0.18988
0.199296
0.208733
0.217209
0.224045
0.228871
0.231587
0.232284
0.231173
0.228516
0.224671
0.219878
0.213104
0.20653
0.142927
0.132523
0.127217
0.126687
0.130425
0.137928
0.148137
0.159762
0.171556
0.182481
0.191791
0.199055
0.204121
0.207047
0.208021
0.207295
0.205205
0.202028
0.196774
0.190643
0.0901572
0.0821513
0.0786066
0.0796449
0.0850199
0.0942857
0.106426
0.120164
0.134229
0.147531
0.159259
0.168923
0.176316
0.181458
0.184518
0.185733
0.185409
0.183909
0.1811
0.176549
0.0380084
0.0324021
0.0306067
0.033172
0.0401126
0.0510445
0.065005
0.0807412
0.0969683
0.112551
0.126622
0.138627
0.148306
0.155637
0.160763
0.163914
0.165358
0.165447
0.164613
0.162116
-0.0131903
-0.0164208
-0.0164864
-0.0124434
-0.00401878
0.00847016
0.0241232
0.0417241
0.0599843
0.0777336
0.0940502
0.108319
0.120224
0.1297
0.13686
0.14192
0.145122
0.146758
0.147535
0.1471
-0.0631299
-0.0640278
-0.0623932
-0.0569277
-0.0471089
-0.0331826
-0.0159777
0.00333776
0.0234837
0.0432643
0.0617095
0.0781457
0.0922013
0.103763
0.11291
0.119842
0.124782
0.127976
0.130232
0.131549
-0.111616
-0.110091
-0.106844
-0.100025
-0.0889087
-0.0736725
-0.0550679
-0.0342018
-0.012334
0.00932474
0.0297634
0.0482535
0.0643667
0.0779406
0.0890171
0.0977732
0.10442
0.109176
0.112873
0.115703
-0.158248
-0.154451
-0.1496
-0.141498
-0.129189
-0.112774
-0.0929308
-0.0706894
-0.0472778
-0.0239102
-0.00163022
0.0187831
0.0368456
0.0523442
0.0652804
0.0758049
0.0841166
0.0904133
0.0955206
0.0997604
-0.202837
-0.196841
-0.190444
-0.181131
-0.167732
-0.150287
-0.129367
-0.105933
-0.0811664
-0.0562735
-0.0323197
-0.0101293
0.00975978
0.0270824
0.0417971
0.0540251
0.0639498
0.0717533
0.0782341
0.0838214
-0.245176
-0.237056
-0.229182
-0.218737
-0.204357
-0.186015
-0.164191
-0.139757
-0.11383
-0.0876074
-0.0621606
-0.0383533
-0.0167742
0.00225928
0.0186607
0.032518
0.0439969
0.0532639
0.0610765
0.0679556
-0.285077
-0.274926
-0.265646
-0.254151
-0.238898
-0.219799
-0.197238
-0.171993
-0.145118
-0.117766
-0.0910167
-0.0657652
-0.0426451
-0.0220256
-0.00403975
0.0113638
0.0243304
0.03501
0.0441088
0.0522262
-0.322382
-0.310305
-0.299698
-0.287236
-0.271217
-0.251497
-0.228367
-0.202502
-0.174882
-0.146611
-0.118763
-0.0922492
-0.0677483
-0.0456784
-0.0262204
-0.00936204
0.00501779
0.0170515
0.0273863
0.0366889
-0.356962
-0.343077
-0.331229
-0.317883
-0.301202
-0.280993
-0.257455
-0.231159
-0.202999
-0.174022
-0.145281
-0.117698
-0.0919858
-0.0686114
-0.0478025
-0.0295895
-0.0138782
-0.000555891
0.010959
0.0213931
-0.388721
-0.373156
-0.360156
-0.34601
-0.328769
-0.308196
-0.284403
-0.257859
-0.229361
-0.199891
-0.170467
-0.142012
-0.115268
-0.0907427
-0.0687134
-0.0492536
-0.0323
-0.0177609
-0.00512821
0.0063832
-0.417591
-0.400484
-0.386428
-0.371567
-0.353861
-0.333042
-0.309139
-0.282517
-0.253877
-0.224123
-0.194228
-0.165105
-0.137513
-0.111999
-0.0888867
-0.0682942
-0.0501951
-0.0345151
-0.0208371
-0.00829939
-0.443536
-0.425034
-0.410019
-0.394527
-0.376448
-0.355491
-0.331611
-0.305074
-0.276477
-0.246642
-0.216485
-0.186896
-0.158646
-0.132312
-0.108262
-0.0866608
-0.0675148
-0.0507725
-0.0361336
-0.0226179
-0.466549
-0.446805
-0.430934
-0.414894
-0.396528
-0.375532
-0.351796
-0.325489
-0.29711
-0.267387
-0.237171
-0.207321
-0.178603
-0.151622
-0.126785
-0.104302
-0.0842201
-0.0665181
-0.0509344
-0.0365732
-0.486649
-0.465824
-0.449202
-0.432696
-0.414124
-0.393177
-0.369691
-0.343747
-0.315743
-0.286314
-0.256236
-0.226322
-0.197328
-0.169876
-0.144407
-0.121175
-0.10027
-0.081697
-0.0652527
-0.0502495
-0.503886
-0.482142
-0.464878
-0.447987
-0.429283
-0.408464
-0.38532
-0.359854
-0.332368
-0.303399
-0.273642
-0.243857
-0.214777
-0.18703
-0.161087
-0.137244
-0.11563
-0.0962848
-0.0790618
-0.0633772
-0.518331
-0.495834
-0.478036
-0.46084
-0.442075
-0.421452
-0.398729
-0.373838
-0.346992
-0.318633
-0.289368
-0.259894
-0.230912
-0.203047
-0.176791
-0.152475
-0.130274
-0.110256
-0.0923354
-0.0760119
-0.530079
-0.506997
-0.488775
-0.471352
-0.45259
-0.432222
-0.409983
-0.385748
-0.359647
-0.332027
-0.303408
-0.274416
-0.245709
-0.217898
-0.191488
-0.166843
-0.144176
-0.123589
-0.105057
-0.0881792
-0.539247
-0.515745
-0.497208
-0.479636
-0.460937
-0.440874
-0.419171
-0.395654
-0.37038
-0.34361
-0.315772
-0.287418
-0.259152
-0.231561
-0.205157
-0.180326
-0.157317
-0.136267
-0.117211
-0.0998619
-0.545966
-0.522207
-0.503464
-0.485819
-0.467239
-0.447524
-0.426394
-0.403642
-0.37926
-0.353428
-0.326487
-0.298908
-0.271236
-0.244026
-0.217781
-0.192906
-0.169683
-0.148277
-0.128782
-0.111043
-0.550384
-0.526527
-0.507685
-0.49004
-0.471633
-0.452301
-0.431773
-0.409816
-0.386371
-0.361544
-0.335593
-0.308908
-0.281969
-0.255287
-0.22935
-0.204572
-0.18126
-0.159608
-0.139762
-0.121715
-0.55266
-0.528858
-0.510022
-0.49245
-0.474265
-0.455346
-0.435438
-0.414293
-0.391811
-0.368035
-0.343146
-0.317454
-0.291368
-0.26535
-0.239862
-0.215317
-0.192042
-0.170253
-0.150143
-0.131874
-0.552962
-0.52936
-0.510631
-0.493202
-0.475287
-0.456808
-0.437529
-0.417201
-0.395694
-0.372995
-0.349217
-0.324593
-0.299462
-0.274229
-0.24932
-0.225138
-0.202023
-0.180208
-0.159923
-0.141518
-0.551464
-0.528198
-0.509672
-0.492455
-0.474856
-0.456839
-0.438195
-0.418679
-0.398141
-0.376528
-0.353889
-0.330388
-0.306292
-0.281946
-0.257733
-0.234039
-0.211203
-0.189471
-0.169101
-0.150653
-0.548344
-0.52554
-0.507308
-0.490368
-0.473128
-0.455594
-0.437585
-0.418869
-0.399286
-0.378748
-0.357257
-0.334912
-0.31191
-0.288534
-0.265121
-0.242026
-0.219584
-0.198044
-0.177679
-0.159287
-0.543777
-0.521551
-0.503698
-0.487099
-0.47026
-0.453227
-0.435851
-0.417917
-0.399263
-0.379779
-0.359426
-0.338247
-0.316376
-0.294035
-0.271507
-0.249113
-0.227173
-0.205931
-0.185661
-0.167434
-0.537941
-0.516394
-0.498999
-0.4828
-0.466403
-0.44989
-0.433143
-0.41597
-0.398213
-0.379749
-0.360509
-0.340487
-0.319764
-0.298499
-0.276924
-0.255317
-0.233978
-0.213138
-0.193055
-0.175113
-0.531004
-0.510227
-0.493362
-0.477618
-0.461702
-0.445727
-0.429606
-0.413171
-0.396275
-0.378789
-0.360622
-0.341734
-0.322153
-0.301986
-0.281411
-0.260662
-0.240012
-0.219672
-0.199868
-0.182353
-0.52313
-0.503202
-0.486931
-0.471693
-0.456295
-0.440876
-0.425378
-0.409659
-0.393585
-0.37703
-0.359889
-0.342093
-0.323632
-0.304563
-0.285014
-0.265177
-0.245291
-0.225545
-0.20611
-0.189186
-0.514475
-0.495461
-0.479839
-0.465155
-0.45031
-0.435464
-0.420589
-0.405564
-0.390275
-0.3746
-0.358429
-0.341675
-0.324294
-0.306304
-0.287789
-0.268896
-0.249833
-0.230764
-0.211789
-0.19565
-0.505185
-0.487136
-0.472212
-0.458124
-0.443865
-0.429611
-0.415358
-0.401009
-0.386467
-0.371623
-0.356363
-0.340589
-0.324237
-0.30729
-0.289793
-0.271857
-0.253659
-0.235341
-0.216914
-0.201784
-0.495392
-0.47835
-0.464165
-0.450711
-0.437067
-0.423423
-0.409793
-0.396104
-0.382277
-0.368212
-0.353803
-0.338946
-0.32356
-0.307604
-0.291093
-0.274103
-0.256792
-0.23928
-0.221483
-0.207622
-0.48522
-0.469215
-0.4558
-0.443012
-0.430011
-0.416993
-0.40399
-0.390949
-0.377806
-0.364476
-0.350858
-0.33685
-0.322362
-0.307334
-0.291757
-0.275683
-0.259254
-0.242585
-0.225489
-0.213176
-0.474778
-0.459829
-0.447211
-0.435115
-0.422781
-0.410405
-0.398033
-0.385629
-0.373145
-0.360508
-0.347626
-0.334401
-0.320737
-0.306565
-0.291858
-0.276649
-0.26107
-0.245251
-0.228909
-0.218418
-0.464163
-0.450282
-0.43848
-0.427098
-0.415449
-0.40373
-0.391994
-0.38022
-0.368372
-0.356391
-0.344194
-0.331687
-0.318776
-0.305384
-0.291471
-0.277055
-0.262268
-0.247263
-0.231698
-0.223228
-0.45346
-0.44065
-0.429676
-0.419025
-0.408078
-0.397028
-0.385932
-0.374782
-0.363553
-0.352196
-0.340638
-0.328791
-0.316563
-0.303873
-0.29067
-0.276961
-0.262876
-0.248603
-0.233792
-0.227332
-0.442743
-0.431001
-0.420861
-0.410952
-0.40072
-0.390347
-0.379896
-0.369366
-0.35874
-0.347979
-0.33702
-0.32578
-0.31417
-0.302108
-0.289532
-0.276433
-0.262932
-0.249254
-0.235143
-0.230266
-0.432073
-0.421392
-0.412089
-0.402929
-0.393418
-0.383729
-0.373924
-0.364009
-0.353974
-0.343787
-0.333391
-0.322712
-0.311663
-0.300159
-0.288128
-0.27554
-0.262479
-0.249204
-0.235715
-0.231235
-0.421505
-0.411872
-0.403403
-0.394994
-0.386209
-0.377206
-0.368047
-0.358742
-0.349286
-0.339652
-0.329791
-0.319633
-0.309095
-0.298089
-0.286531
-0.274358
-0.261577
-0.248423
-0.234894
-0.226791
-0.411084
-0.402484
-0.394842
-0.387182
-0.37912
-0.370803
-0.362288
-0.353587
-0.344698
-0.335599
-0.326247
-0.316577
-0.306509
-0.295951
-0.28481
-0.272982
-0.260357
-0.247085
-0.231991
-0.20488
-0.400848
-0.393265
-0.386439
-0.379521
-0.372179
-0.364541
-0.356663
-0.348557
-0.340224
-0.331644
-0.322778
-0.313568
-0.303936
-0.293791
-0.28303
-0.271526
-0.259071
-0.245828
-0.231401
-0.197844
-0.390834
-0.384246
-0.378225
-0.372038
-0.365404
-0.358437
-0.351187
-0.343665
-0.335873
-0.327795
-0.319396
-0.310621
-0.301399
-0.291639
-0.281239
-0.270069
-0.257881
-0.244918
-0.23189
-0.19851
-0.381071
-0.375459
-0.370225
-0.364755
-0.358816
-0.352506
-0.345869
-0.338917
-0.331652
-0.324059
-0.316107
-0.307746
-0.29891
-0.289513
-0.279459
-0.268627
-0.256771
-0.244187
-0.232095
-0.19984
-0.371592
-0.366931
-0.362465
-0.357694
-0.352432
-0.346762
-0.340721
-0.334322
-0.327565
-0.320439
-0.312914
-0.304946
-0.296474
-0.287422
-0.277699
-0.267197
-0.255689
-0.243507
-0.231938
-0.201165
-0.362425
-0.358691
-0.35497
-0.350877
-0.34627
-0.341218
-0.335752
-0.329884
-0.323616
-0.316935
-0.309818
-0.302223
-0.294096
-0.285369
-0.275962
-0.26578
-0.254618
-0.242853
-0.231634
-0.202693
-0.353602
-0.350768
-0.347768
-0.344327
-0.340349
-0.335889
-0.330974
-0.325614
-0.31981
-0.313553
-0.306821
-0.299579
-0.291778
-0.283358
-0.274253
-0.264378
-0.253561
-0.242215
-0.23127
-0.204394
-0.345158
-0.343192
-0.340885
-0.338067
-0.33469
-0.330794
-0.326401
-0.321521
-0.316157
-0.310299
-0.303929
-0.297018
-0.289523
-0.281394
-0.272575
-0.262998
-0.252521
-0.241584
-0.230874
-0.206171
-0.337128
-0.335996
-0.33435
-0.332124
-0.329315
-0.32595
-0.322048
-0.317619
-0.312666
-0.307181
-0.30115
-0.294547
-0.287338
-0.279482
-0.270935
-0.261644
-0.251501
-0.240958
-0.230468
-0.207959
-0.329552
-0.329214
-0.328193
-0.326525
-0.324248
-0.321379
-0.317935
-0.313925
-0.309352
-0.304213
-0.298494
-0.292177
-0.285233
-0.277632
-0.269343
-0.260326
-0.250509
-0.240338
-0.230074
-0.209709
-0.32247
-0.322883
-0.322448
-0.321299
-0.319516
-0.317106
-0.314082
-0.310457
-0.306234
-0.301411
-0.295978
-0.289922
-0.283223
-0.275858
-0.26781
-0.259056
-0.249553
-0.239731
-0.229705
-0.211382
-0.315927
-0.317039
-0.317147
-0.316476
-0.315146
-0.313155
-0.310514
-0.307238
-0.303331
-0.298794
-0.29362
-0.287801