/*--------------------------------*- C++ -*----------------------------------*\
  =========                 |
  \\      /  F ield         | OpenFOAM: The Open Source CFD Toolbox
   \\    /   O peration     | Website:  https://openfoam.org
    \\  /    A nd           | Version:  7
     \\/     M anipulation  |
\*---------------------------------------------------------------------------*/
FoamFile
{
    version     2.0;
    format      ascii;
    class       volScalarField;
    location    "6";
    object      p;
}
// * * * * * * * * * * * * * * * * * * * * * * * * * * * * * * * * * * * * * //

dimensions      [0 2 -2 0 0 0 0];

internalField   nonuniform List<scalar> 
435
(
-0.030674
-0.0259989
-0.021642
-0.0176537
-0.0140717
-0.0109265
-0.00822697
-0.00598259
-0.00416081
-0.00276258
-0.00169791
-0.00099146
-0.000489079
-0.000241358
-0.000154507
-0.0591201
-0.0543949
-0.0495612
-0.0446837
-0.0398291
-0.0350637
-0.030452
-0.0260551
-0.0219287
-0.0181219
-0.0146736
-0.0116147
-0.0089589
-0.00671636
-0.00486626
-0.00340326
-0.00226573
-0.00144514
-0.000859924
-0.000449136
-0.000306187
-0.056401
-0.0521458
-0.0477622
-0.0433095
-0.0388488
-0.0344418
-0.030149
-0.0260282
-0.022133
-0.0185111
-0.0152018
-0.0122366
-0.00963283
-0.0074015
-0.00553174
-0.00401368
-0.0028095
-0.00188413
-0.00121664
-0.000654125
-0.000445386
-0.0537017
-0.0498918
-0.0459372
-0.0418915
-0.0378107
-0.0337515
-0.0297705
-0.0259221
-0.0222573
-0.0188223
-0.0156563
-0.012791
-0.0102468
-0.00803545
-0.00615441
-0.00459077
-0.00332649
-0.0023057
-0.0015575
-0.000854498
-0.00057232
-0.0510363
-0.0476459
-0.0440978
-0.0404402
-0.0367237
-0.0330005
-0.0293227
-0.0257413
-0.0223047
-0.0190573
-0.0160377
-0.0132775
-0.0107995
-0.00861622
-0.00673194
-0.00513185
-0.00381424
-0.00270732
-0.00188093
-0.00104855
-0.000687301
-0.0484182
-0.0454209
-0.042256
-0.0389664
-0.0355975
-0.0321968
-0.0288122
-0.0254912
-0.0222792
-0.0192188
-0.0163474
-0.0136965
-0.0112904
-0.0091425
-0.00726254
-0.00563473
-0.00427068
-0.00308677
-0.00218554
-0.00123472
-0.000790712
-0.0458606
-0.0432296
-0.0404238
-0.0374811
-0.0344421
-0.0313494
-0.0282468
-0.025178
-0.0221859
-0.0193103
-0.0165878
-0.0140491
-0.0117198
-0.00961364
-0.00774502
-0.00609772
-0.0046941
-0.00344214
-0.00247015
-0.00141164
-0.000882993
-0.0433765
-0.0410846
-0.0386135
-0.035996
-0.033268
-0.0304677
-0.0276346
-0.0248089
-0.0220303
-0.0193363
-0.0167622
-0.0143375
-0.0120886
-0.0100297
-0.0081788
-0.00651965
-0.00508321
-0.00377189
-0.00273381
-0.00157813
-0.000964631
-0.0409788
-0.0389989
-0.0368376
-0.0345231
-0.0320866
-0.0295621
-0.026985
-0.0243918
-0.0218192
-0.0193023
-0.0168745
-0.0145644
-0.0123986
-0.0103916
-0.00856394
-0.00689994
-0.00543721
-0.00407486
-0.00297583
-0.00173323
-0.00103615
-0.0386801
-0.0369853
-0.0351089
-0.0330747
-0.0309097
-0.0286435
-0.0263078
-0.0239356
-0.0215602
-0.0192145
-0.0169298
-0.0147337
-0.0126525
-0.0107008
-0.00890119
-0.0072386
-0.00575574
-0.0043503
-0.0031958
-0.0018762
-0.00109809
-0.0364929
-0.0350569
-0.0334405
-0.0316638
-0.0297496
-0.0277236
-0.0256138
-0.0234498
-0.0212618
-0.01908
-0.0169341
-0.01485
-0.0128537
-0.0109597
-0.00919194
-0.00753621
-0.00603896
-0.00459788
-0.00339358
-0.00200652
-0.00115104
-0.0344299
-0.0332267
-0.0318458
-0.0303036
-0.0286192
-0.0268147
-0.0249145
-0.0229448
-0.0209331
-0.018907
-0.016894
-0.0149187
-0.0130063
-0.0111713
-0.00943826
-0.00779396
-0.0062875
-0.00481768
-0.00356929
-0.00212392
-0.00119559
-0.0325036
-0.0315079
-0.0303384
-0.0290077
-0.0275319
-0.0259296
-0.0242219
-0.0224319
-0.0205843
-0.0187042
-0.016817
-0.0149461
-0.0131154
-0.0113393
-0.00964283
-0.00801361
-0.00650246
-0.0050102
-0.00372336
-0.00222834
-0.00123236
-0.0307268
-0.0299143
-0.0289321
-0.0277903
-0.0265016
-0.0250818
-0.0235488
-0.0219229
-0.0202261
-0.0184811
-0.0167115
-0.0149389
-0.0131865
-0.0114681
-0.00980892
-0.00819742
-0.00668539
-0.00517628
-0.00385645
-0.0023199
-0.00126197
-0.0291125
-0.0284595
-0.0276415
-0.0266658
-0.0255428
-0.0242852
-0.0229084
-0.0214301
-0.0198697
-0.0182478
-0.0165861
-0.0149048
-0.0132258
-0.0115626
-0.00994029
-0.00834811
-0.0068382
-0.00531712
-0.00396944
-0.00239893
-0.00128507
-0.0276747
-0.0271582
-0.0264814
-0.0256494
-0.0246702
-0.0235543
-0.0223147
-0.0209665
-0.0195271
-0.0180151
-0.0164504
-0.0148516
-0.01324
-0.0116282
-0.0100411
-0.00846873
-0.0069631
-0.00543414
-0.00406337
-0.00246587
-0.00130227
-0.0264282
-0.0260258
-0.0254675
-0.0247568
-0.0238996
-0.0229042
-0.0217818
-0.0205455
-0.0192106
-0.0177939
-0.0163138
-0.0147878
-0.0132359
-0.0116704
-0.0101156
-0.00856257
-0.00706247
-0.00552893
-0.00413938
-0.00252128
-0.00131417
-0.025389
-0.0250787
-0.0246166
-0.0240046
-0.023247
-0.0223506
-0.0213246
-0.0201807
-0.0189326
-0.0175955
-0.0161864
-0.0147217
-0.0132206
-0.0116949
-0.0101684
-0.00863294
-0.00713874
-0.00560312
-0.00419861
-0.00256568
-0.00132131
-0.0245752
-0.0243352
-0.0239466
-0.0234103
-0.0227294
-0.0219095
-0.0209583
-0.0198863
-0.0187059
-0.017431
-0.0160778
-0.0146616
-0.0132009
-0.0117071
-0.0102037
-0.00868292
-0.00719414
-0.00565817
-0.00424217
-0.0025995
-0.00132388
-0.0240075
-0.0238155
-0.0234773
-0.0229931
-0.022365
-0.0215978
-0.0206984
-0.0196763
-0.0185429
-0.0173115
-0.0159974
-0.0146153
-0.013183
-0.011712
-0.010225
-0.00871516
-0.0072304
-0.00569535
-0.00427077
-0.002624
-0.00132102
-0.0237098
-0.0235426
-0.0232306
-0.0227734
-0.0221728
-0.0214331
-0.0205608
-0.0195647
-0.0184559
-0.0172474
-0.0159537
-0.0145896
-0.0131724
-0.0117135
-0.010235
-0.00873158
-0.00724807
-0.00571586
-0.00428312
-0.00264298
-0.00131115
)
;

boundaryField
{
    inlet
    {
        type            zeroGradient;
    }
    outlet
    {
        type            fixedValue;
        value           uniform 0;
    }
    cylinder
    {
        type            zeroGradient;
    }
    top
    {
        type            symmetryPlane;
    }
    bottom
    {
        type            symmetryPlane;
    }
    defaultFaces
    {
        type            empty;
    }
    procBoundary35to29
    {
        type            processor;
        value           nonuniform List<scalar> 
22
(
-0.0308103
-0.0258563
-0.0212712
-0.0171061
-0.0133972
-0.010174
-0.00743961
-0.00520334
-0.00341868
-0.00209509
-0.00110906
-0.000526042
-0.00010596
-3.27079e-05
9.76613e-06
-0.0618443
-0.0566259
-0.0513222
-0.0460039
-0.0407429
-0.0356101
-0.0356101
)
;
    }
    procBoundary35to34
    {
        type            processor;
        value           nonuniform List<scalar> 
20
(
-0.0636742
-0.0604714
-0.0573164
-0.0542241
-0.0512084
-0.0482827
-0.04546
-0.0427527
-0.0401729
-0.0377323
-0.0354427
-0.0333155
-0.0313626
-0.0295958
-0.0280282
-0.0266739
-0.0255478
-0.024668
-0.0240554
-0.0237345
)
;
    }
}


// ************************************************************************* //
