/*--------------------------------*- C++ -*----------------------------------*\
  =========                 |
  \\      /  F ield         | OpenFOAM: The Open Source CFD Toolbox
   \\    /   O peration     | Website:  https://openfoam.org
    \\  /    A nd           | Version:  7
     \\/     M anipulation  |
\*---------------------------------------------------------------------------*/
FoamFile
{
    version     2.0;
    format      ascii;
    class       surfaceScalarField;
    location    "0.4";
    object      phi;
}
// * * * * * * * * * * * * * * * * * * * * * * * * * * * * * * * * * * * * * //

dimensions      [0 3 -1 0 0 0 0];

internalField   nonuniform List<scalar> 
615
(
0.000148374
-1.05986e-10
0.000148374
-8.9811e-11
0.000148374
-7.63206e-11
0.000148374
-6.5067e-11
0.000148374
-5.56306e-11
0.000148374
-4.77226e-11
0.000148374
-4.10247e-11
0.000148374
-3.54261e-11
0.000148374
-2.96771e-11
0.000148374
-2.56905e-11
0.000148374
-2.36757e-11
0.000148374
-2.09797e-11
0.000148374
-1.81343e-11
0.000148374
-1.53139e-11
0.000148374
-1.25306e-11
0.000148374
-9.76169e-12
0.000148374
-7.02313e-12
0.000148374
-4.04883e-12
0.000148374
-1.53827e-12
0.000148374
8.22855e-14
0.000148374
1.42494e-12
0.000148374
2.50297e-12
0.000148374
3.36409e-12
0.000148374
4.09696e-12
0.000148374
4.77476e-12
0.000148374
5.47303e-12
0.000148374
6.26967e-12
0.000148374
7.36697e-12
8.98869e-12
0.000145034
-8.50239e-09
0.000145034
-9.43131e-09
0.000145035
-9.80165e-09
0.000145035
-9.77673e-09
0.000145035
-9.4799e-09
0.000145036
-9.00395e-09
0.000145035
-8.41789e-09
0.000145035
-7.77257e-09
0.000145035
-7.10463e-09
0.000145035
-6.43994e-09
0.000145035
-5.79633e-09
0.000145035
-5.1856e-09
0.000145034
-4.61494e-09
0.000145034
-4.08821e-09
0.000145034
-3.6069e-09
0.000145034
-3.17073e-09
0.000145034
-2.77822e-09
0.000145034
-2.42717e-09
0.000145034
-2.11482e-09
0.000145033
-1.83815e-09
0.000145033
-1.5941e-09
0.000145033
-1.37956e-09
0.000145033
-1.19157e-09
0.000145033
-1.02734e-09
0.000145033
-8.84254e-10
0.000145033
-7.59846e-10
0.000145033
-6.51875e-10
0.000145033
-5.58284e-10
0.000145033
-4.7721e-10
0.000145033
-4.07087e-10
0.000145033
-3.46817e-10
0.000145033
-2.95297e-10
0.000145033
-2.51313e-10
0.000145033
-2.13762e-10
0.000145033
-1.8175e-10
0.000145033
-1.54676e-10
0.000145033
-1.31679e-10
0.000145033
-1.13464e-10
0.000145033
-9.7562e-11
0.000145033
-8.23717e-11
0.000145033
-6.99723e-11
0.000145033
-5.97541e-11
0.000145033
-5.11745e-11
0.000145033
-4.39961e-11
0.000145033
-3.79801e-11
0.000145033
-3.30056e-11
0.000145033
-2.80846e-11
0.000145033
-2.49049e-11
0.000145033
-2.3167e-11
0.000145033
-2.04622e-11
0.000145033
-1.75786e-11
0.000145033
-1.47654e-11
0.000145033
-1.20329e-11
0.000145033
-9.31117e-12
0.000145033
-6.59267e-12
0.000145033
-3.55251e-12
0.000145033
-1.09613e-12
0.000145033
3.22166e-13
0.000145033
1.51148e-12
0.000145033
2.48368e-12
0.000145033
3.2944e-12
0.000145033
3.99296e-12
0.000145033
4.63043e-12
0.000145033
5.29699e-12
0.000145033
6.03745e-12
0.000145033
7.17319e-12
8.22344e-12
0.000140926
-9.3785e-09
0.000140927
-9.94944e-09
0.000140927
-1.00569e-08
0.000140927
-9.84268e-09
0.000140927
-9.41278e-09
0.000140927
-8.84642e-09
0.000140927
-8.20207e-09
0.000140926
-7.52235e-09
0.000140926
-6.83752e-09
0.000140926
-6.16859e-09
0.000140925
-5.52965e-09
0.000140925
-4.92963e-09
0.000140925
-4.37358e-09
0.000140925
-3.86379e-09
0.000140925
-3.40053e-09
0.000140924
-2.98269e-09
0.000140924
-2.60821e-09
0.000140924
-2.27444e-09
0.000140924
-1.97838e-09
0.000140924
-1.71686e-09
0.000140924
-1.48674e-09
0.000140924
-1.28489e-09
0.000140924
-1.10837e-09
0.000140923
-9.54449e-10
0.000140923
-8.2057e-10
0.000140923
-7.04338e-10
0.000140923
-6.036e-10
0.000140923
-5.16407e-10
0.000140923
-4.40965e-10
0.000140923
-3.75795e-10
0.000140923
-3.19835e-10
0.000140923
-2.72041e-10
0.000140923
-2.31274e-10
0.000140923
-1.96524e-10
0.000140923
-1.66944e-10
0.000140923
-1.41935e-10
0.000140923
-1.20658e-10
0.000140923
-1.03578e-10
0.000140923
-8.84066e-11
0.000140923
-7.43742e-11
0.000140923
-6.33252e-11
0.000140923
-5.41659e-11
0.000140923
-4.64848e-11
0.000140923
-4.0075e-11
0.000140923
-3.47925e-11
0.000140923
-3.05126e-11
0.000140923
-2.70037e-11
0.000140923
-2.46865e-11
0.000140923
-2.26341e-11
0.000140923
-1.97932e-11
0.000140923
-1.685e-11
0.000140923
-1.40715e-11
0.000140923
-1.14251e-11
0.000140923
-8.78183e-12
0.000140923
-6.11468e-12
0.000140923
-3.03242e-12
0.000140923
-6.88296e-13
0.000140923
4.64367e-13
0.000140923
1.49493e-12
0.000140923
2.37077e-12
0.000140923
3.13639e-12
0.000140923
3.80626e-12
0.000140923
4.40801e-12
0.000140923
5.03804e-12
0.000140923
5.71807e-12
0.000140923
6.87732e-12
7.85934e-12
0.00013601
-9.82879e-09
0.00013601
-1.01099e-08
0.00013601
-1.00124e-08
0.00013601
-9.65752e-09
0.00013601
-9.13533e-09
0.00013601
-8.51282e-09
0.000136009
-7.83893e-09
0.000136009
-7.1489e-09
0.000136009
-6.46741e-09
0.000136008
-5.81118e-09
0.000136008
-5.19111e-09
0.000136008
-4.6137e-09
0.000136007
-4.08223e-09
0.000136007
-3.59769e-09
0.000136007
-3.15946e-09
0.000136007
-2.76577e-09
0.000136006
-2.41416e-09
0.000136006
-2.10174e-09
0.000136006
-1.82535e-09
0.000136006
-1.5818e-09
0.000136006
-1.36795e-09
0.000136006
-1.18074e-09
0.000136006
-1.01732e-09
0.000136005
-8.75063e-10
0.000136005
-7.51522e-10
0.000136005
-6.44404e-10
0.000136005
-5.51681e-10
0.000136005
-4.71532e-10
0.000136005
-4.02266e-10
0.000136005
-3.42507e-10
0.000136005
-2.91232e-10
0.000136005
-2.4747e-10
0.000136005
-2.10171e-10
0.000136005
-1.78418e-10
0.000136005
-1.51426e-10
0.000136005
-1.286e-10
0.000136005
-1.0914e-10
0.000136005
-9.30375e-11
0.000136005
-7.88766e-11
0.000136005
-6.638e-11
0.000136005
-5.65533e-11
0.000136005
-4.84316e-11
0.000136005
-4.16515e-11
0.000136005
-3.60194e-11
0.000136005
-3.14866e-11
0.000136005
-2.79436e-11
0.000136005
-2.58066e-11
0.000136005
-2.43618e-11
0.000136005
-2.19147e-11
0.000136005
-1.88098e-11
0.000136005
-1.58755e-11
0.000136005
-1.31979e-11
0.000136005
-1.06946e-11
0.000136005
-8.17113e-12
0.000136005
-5.59883e-12
0.000136005
-2.52405e-12
0.000136005
-3.69292e-13
0.000136005
4.68415e-13
0.000136005
1.35477e-12
0.000136005
2.15569e-12
0.000136005
2.89345e-12
0.000136005
3.54279e-12
0.000136005
4.11186e-12
0.000136005
4.69833e-12
0.000136005
5.31159e-12
0.000136005
6.4594e-12
7.07566e-12
0.000130251
-9.88135e-09
0.000130251
-9.93816e-09
0.00013025
-9.69054e-09
0.00013025
-9.24081e-09
0.000130249
-8.66474e-09
0.000130249
-8.01817e-09
0.000130248
-7.34156e-09
0.000130248
-6.66366e-09
0.000130247
-6.00423e-09
0.000130247
-5.37634e-09
0.000130247
-4.7882e-09
0.000130246
-4.24429e-09
0.000130246
-3.74646e-09
0.000130246
-3.29474e-09
0.000130245
-2.88784e-09
0.000130245
-2.52354e-09
0.000130245
-2.19916e-09
0.000130245
-1.91171e-09
0.000130244
-1.65799e-09
0.000130244
-1.43491e-09
0.000130244
-1.2394e-09
0.000130244
-1.06856e-09
0.000130244
-9.19649e-10
0.000130244
-7.90224e-10
0.000130244
-6.78001e-10
0.000130244
-5.80801e-10
0.000130244
-4.96759e-10
0.000130244
-4.24208e-10
0.000130244
-3.61573e-10
0.000130244
-3.07603e-10
0.000130244
-2.61326e-10
0.000130244
-2.21855e-10
0.000130244
-1.88237e-10
0.000130244
-1.59645e-10
0.000130243
-1.3537e-10
0.000130243
-1.14833e-10
0.000130243
-9.72942e-11
0.000130243
-8.25089e-11
0.000130243
-6.95727e-11
0.000130243
-5.84797e-11
0.000130243
-4.9783e-11
0.000130243
-4.26582e-11
0.000130243
-3.6758e-11
0.000130243
-3.18874e-11
0.000130243
-2.80866e-11
0.000130243
-2.52569e-11
0.000130243
-2.46533e-11
0.000130243
0.000130243
0.000130243
0.000130243
0.000130243
0.000130243
0.000130243
0.000130243
0.000130243
0.000130243
0.000130243
0.000130243
0.000130243
0.000130243
0.000130243
0.000130243
0.000130243
0.000130243
0.000130243
0.000123618
0.000123617
0.000123617
0.000123616
0.000123615
0.000123615
0.000123614
0.000123614
0.000123613
0.000123613
0.000123612
0.000123612
0.000123611
0.000123611
0.000123611
0.00012361
0.00012361
0.00012361
0.00012361
0.00012361
0.000123609
0.000123609
0.000123609
0.000123609
0.000123609
0.000123609
0.000123609
0.000123609
0.000123609
0.000123609
0.000123609
0.000123609
0.000123609
0.000123609
0.000123609
0.000123609
0.000123609
0.000123609
0.000123609
0.000123609
0.000123609
0.000123609
0.000123609
0.000123609
0.000123609
0.000123609
)
;

boundaryField
{
    inlet
    {
        type            calculated;
        value           nonuniform 0();
    }
    outlet
    {
        type            calculated;
        value           nonuniform 0();
    }
    wall
    {
        type            calculated;
        value           nonuniform 0();
    }
    wedge1
    {
        type            wedge;
        value           nonuniform List<scalar> 
344
(
1.40109e-18
5.3146e-19
5.67984e-19
-3.79255e-18
1.68173e-18
1.62441e-18
5.79129e-19
5.95122e-19
-3.87221e-18
1.67998e-18
1.74084e-18
6.01242e-19
5.97596e-19
-3.81523e-18
1.62647e-18
1.76321e-18
5.94012e-19
5.82804e-19
-3.66685e-18
1.54793e-18
1.72757e-18
5.71331e-19
5.54594e-19
-3.45823e-18
1.4494e-18
1.65606e-18
5.41244e-19
5.20734e-19
-3.2135e-18
1.34183e-18
1.5587e-18
5.04975e-19
4.82672e-19
-2.95272e-18
1.22808e-18
1.44872e-18
4.66744e-19
4.43517e-19
-2.68673e-18
1.11623e-18
1.33047e-18
4.26568e-19
4.03952e-19
-2.42616e-18
1.00626e-18
1.21201e-18
3.87441e-19
3.65356e-19
-2.17612e-18
9.02535e-19
1.09389e-18
3.4854e-19
3.27952e-19
-1.94133e-18
8.03831e-19
9.89396e-19
3.1733e-19
2.93703e-19
-1.723e-18
7.09118e-19
8.81204e-19
2.81476e-19
2.6224e-19
-1.52319e-18
6.28148e-19
7.83009e-19
2.50016e-19
2.32923e-19
-1.33906e-18
5.55817e-19
6.91396e-19
2.20504e-19
2.05497e-19
-1.17436e-18
4.87972e-19
6.16749e-19
1.99421e-19
1.81873e-19
-1.02672e-18
4.2328e-19
5.40086e-19
1.74658e-19
1.60922e-19
-8.95192e-19
3.71105e-19
4.72835e-19
1.53256e-19
1.42136e-19
-7.76044e-19
3.26571e-19
4.11714e-19
1.33435e-19
1.24083e-19
-6.73083e-19
2.84088e-19
3.65031e-19
1.20874e-19
1.09006e-19
-5.81851e-19
2.4364e-19
3.15099e-19
1.04105e-19
9.59318e-20
-5.02606e-19
2.13085e-19
2.73108e-19
9.06576e-20
8.40581e-20
-4.31389e-19
1.8673e-19
2.34983e-19
7.81506e-20
7.34835e-20
-3.6999e-19
1.62772e-19
2.03356e-19
6.83268e-20
6.47481e-20
-3.16103e-19
1.42773e-19
1.74235e-19
5.88196e-20
5.62976e-20
-2.70222e-19
1.23888e-19
1.51109e-19
5.19492e-20
4.99258e-20
-2.29588e-19
1.08664e-19
1.28992e-19
4.4528e-20
4.33265e-20
-1.95944e-19
9.32613e-20
1.17319e-19
4.31683e-20
3.85715e-20
-1.665e-19
7.72985e-20
9.88866e-20
3.61674e-20
3.40392e-20
-1.42147e-19
6.74089e-20
8.25514e-20
2.99543e-20
2.89182e-20
-1.20284e-19
5.86461e-20
7.01999e-20
2.56115e-20
2.53624e-20
-1.0053e-19
5.25311e-20
5.90667e-20
2.21138e-20
2.27119e-20
-8.38772e-20
4.64634e-20
5.17209e-20
2.04287e-20
2.10995e-20
-6.89257e-20
4.19462e-20
4.35948e-20
1.77171e-20
1.87924e-20
-5.71955e-20
3.72837e-20
3.8091e-20
1.62209e-20
1.74683e-20
-4.67316e-20
3.39412e-20
3.20323e-20
1.41202e-20
1.54978e-20
-3.90044e-20
2.93591e-20
3.37663e-20
1.66811e-20
1.479e-20
-3.17225e-20
2.32001e-20
2.82964e-20
1.44811e-20
1.44359e-20
-2.63185e-20
2.17066e-20
1.03663e-20
2.50266e-20
1.32755e-20
1.37699e-20
-1.97149e-20
2.15424e-20
7.32941e-21
2.07268e-20
1.17088e-20
1.2797e-20
-1.52351e-20
1.95895e-20
1.27942e-20
2.38848e-20
1.47272e-20
1.24721e-20
-1.18642e-20
1.49972e-20
9.3845e-21
1.9434e-20
1.2404e-20
1.2255e-20
-9.47499e-21
1.48506e-20
7.84126e-21
1.6545e-20
1.0933e-20
1.14567e-20
-6.2896e-21
1.55329e-20
5.02482e-21
1.32219e-20
9.44136e-21
1.04156e-20
-4.63058e-21
1.43596e-20
9.49386e-21
1.64078e-20
1.17423e-20
9.65555e-21
-3.65084e-21
1.01862e-20
6.66949e-21
1.30984e-20
9.87661e-21
9.97371e-21
-3.02215e-21
1.1214e-20
5.76732e-21
1.12867e-20
9.06494e-21
9.7163e-21
-1.4232e-21
1.30025e-20
3.05228e-21
8.95172e-21
7.85614e-21
9.19638e-21
-9.76857e-22
3.10806e-21
8.49873e-21
7.61306e-21
9.20805e-21
6.45154e-22
1.28203e-21
6.9765e-21
6.81543e-21
8.61919e-21
1.65113e-21
1.82516e-21
6.73681e-21
6.88814e-21
8.63097e-21
3.17223e-21
2.27894e-22
5.31519e-21
5.99751e-21
7.73843e-21
3.31918e-21
5.45683e-21
9.41853e-21
8.76336e-21
7.63693e-21
3.69017e-21
3.17826e-21
6.7058e-21
6.90809e-21
7.49603e-21
3.58308e-21
2.55231e-22
3.94976e-21
5.15609e-21
6.2292e-21
4.40326e-21
9.6535e-23
3.11428e-21
4.52599e-21
6.00552e-21
5.96076e-21
-1.42162e-21
1.74385e-21
3.92126e-21
5.53808e-21
6.74465e-21
-9.4569e-22
1.49093e-21
3.78682e-21
5.69752e-21
7.42107e-21
-1.85589e-21
1.04462e-21
3.72145e-21
5.71913e-21
7.89611e-21
-1.00442e-21
1.18104e-21
3.69923e-21
5.6195e-21
8.22669e-21
-1.9008e-21
6.39687e-22
3.55216e-21
5.47788e-21
8.1684e-21
3.50499e-21
5.37715e-21
6.8158e-21
5.98579e-21
8.41179e-21
2.00699e-21
3.66901e-21
5.79832e-21
6.36841e-21
8.06743e-21
1.73785e-21
3.06824e-21
5.2118e-21
6.31015e-21
9.01748e-21
2.09541e-22
1.80443e-21
4.32211e-21
5.56426e-21
8.72798e-21
4.73939e-21
5.55345e-21
6.93739e-21
5.71653e-21
9.05369e-21
2.68072e-21
3.47e-21
5.72215e-21
6.14654e-21
9.06215e-21
)
;
    }
    wedge2
    {
        type            wedge;
        value           nonuniform List<scalar> 
344
(
1.39528e-18
5.17617e-19
5.48126e-19
-3.81805e-18
1.65197e-18
1.62053e-18
5.66807e-19
5.76442e-19
-3.89559e-18
1.65309e-18
1.72093e-18
5.78664e-19
5.78548e-19
-3.83738e-18
1.61012e-18
1.74948e-18
5.75602e-19
5.62797e-19
-3.68657e-18
1.52902e-18
1.72011e-18
5.57753e-19
5.37123e-19
-3.47776e-18
1.42898e-18
1.64844e-18
5.27603e-19
5.02541e-19
-3.23553e-18
1.31684e-18
1.55268e-18
4.91741e-19
4.64064e-19
-2.97528e-18
1.20261e-18
1.44056e-18
4.51684e-19
4.23278e-19
-2.71164e-18
1.08732e-18
1.32293e-18
4.1154e-19
3.82826e-19
-2.45176e-18
9.77195e-19
1.20267e-18
3.71216e-19
3.43622e-19
-2.20247e-18
8.71984e-19
1.08684e-18
3.33516e-19
3.06966e-19
-1.96674e-18
7.75406e-19
9.67299e-19
2.92268e-19
2.71846e-19
-1.74784e-18
6.8984e-19
8.64666e-19
2.60585e-19
2.39153e-19
-1.54589e-18
6.06044e-19
7.67156e-19
2.29831e-19
2.09747e-19
-1.36424e-18
5.29041e-19
6.7909e-19
2.02584e-19
1.83886e-19
-1.19851e-18
4.62498e-19
5.90267e-19
1.72303e-19
1.59501e-19
-1.04961e-18
4.06986e-19
5.19334e-19
1.50898e-19
1.3747e-19
-9.16517e-19
3.52209e-19
4.54185e-19
1.31045e-19
1.17977e-19
-8.00705e-19
3.02021e-19
3.97196e-19
1.14191e-19
1.02101e-19
-6.95946e-19
2.60955e-19
3.39027e-19
9.42916e-20
8.72278e-20
-6.04244e-19
2.27973e-19
2.96268e-19
8.2441e-20
7.39581e-20
-5.22924e-19
1.94198e-19
2.56624e-19
7.07437e-20
6.27353e-20
-4.53636e-19
1.64358e-19
2.23099e-19
6.12295e-20
5.31225e-20
-3.92437e-19
1.39358e-19
1.92027e-19
5.18216e-20
4.42594e-20
-3.39621e-19
1.16805e-19
1.66428e-19
4.4574e-20
3.74024e-20
-2.92827e-19
9.8784e-20
1.4191e-19
3.68802e-20
3.04879e-20
-2.53133e-19
8.20589e-20
1.22631e-19
3.16653e-20
2.55755e-20
-2.17266e-19
6.98482e-20
9.83862e-20
2.20768e-20
2.03695e-20
-1.86638e-19
6.19737e-20
8.56682e-20
1.95952e-20
1.62856e-20
-1.59093e-19
5.12951e-20
7.50277e-20
1.76076e-20
1.39646e-20
-1.36185e-19
4.23353e-20
6.41681e-20
1.49011e-20
1.11285e-20
-1.17514e-19
3.32504e-20
5.54485e-20
1.23739e-20
8.31941e-21
-1.01364e-19
2.63482e-20
4.58175e-20
8.91412e-21
5.27493e-21
-8.83629e-20
1.98217e-20
3.94438e-20
7.23925e-21
3.61744e-21
-7.63221e-20
1.5101e-20
3.25884e-20
5.0019e-21
1.57131e-21
-6.65955e-20
1.04778e-20
2.81773e-20
3.94292e-21
6.90364e-22
-5.72386e-20
8.31788e-21
1.75799e-20
-1.29786e-21
-1.02644e-21
-4.99615e-20
8.72257e-21
1.60412e-20
-1.24372e-21
-2.6578e-21
-4.31531e-20
5.31962e-21
3.50308e-21
1.32098e-20
-1.92704e-21
-3.74478e-21
-3.90517e-20
1.20976e-21
4.47409e-21
1.16482e-20
-2.13427e-21
-4.35334e-21
-3.42403e-20
-4.62523e-22
-2.76077e-21
3.60859e-21
-6.58776e-21
-5.28077e-21
-3.02913e-20
1.28453e-21
-8.2994e-22
4.03285e-21
-5.44319e-21
-6.09474e-21
-2.66702e-20
-8.87902e-22
-5.27982e-22
3.54529e-21
-4.96225e-21
-6.16178e-21
-2.48384e-20
-3.48803e-21
1.24364e-21
4.03035e-21
-4.30102e-21
-5.84327e-21
-2.23371e-20
-3.89006e-21
-4.11471e-21
-1.55224e-21
-7.29466e-21
-5.67511e-21
-1.99912e-20
-9.41539e-22
-2.04269e-21
-2.53944e-22
-6.00011e-21
-6.46497e-21
-1.81095e-20
-2.83177e-21
-1.89503e-21
-4.3706e-22
-5.70202e-21
-6.54306e-21
-1.86658e-20
-4.66251e-21
2.71779e-22
5.47595e-22
-4.82663e-21
-6.24215e-21
-1.82385e-20
-7.47987e-23
2.98811e-22
-4.8094e-21
-6.5175e-21
-1.76458e-20
1.41541e-21
8.49777e-22
-4.34112e-21
-6.28443e-21
-1.6129e-20
5.11173e-22
1.58526e-23
-4.76969e-21
-6.65051e-21
-1.53713e-20
1.74723e-21
3.69815e-22
-4.22399e-21
-6.08939e-21
-1.34454e-20
-3.83626e-21
-4.77532e-21
-7.322e-21
-6.30205e-21
-1.18714e-20
-1.90795e-21
-3.08942e-21
-5.79297e-21
-6.46957e-21
-9.85047e-21
6.68938e-22
-1.35621e-21
-4.36891e-21
-5.51652e-21
-8.68995e-21
4.61034e-22
-1.6387e-21
-4.10989e-21
-5.66084e-21
-7.84023e-21
1.6594e-21
-1.21044e-21
-3.80269e-21
-5.46863e-21
-6.98875e-21
9.62524e-22
-1.5465e-21
-3.83006e-21
-5.75067e-21
-7.12936e-21
1.69862e-21
-1.56346e-21
-3.89548e-21
-5.88133e-21
-6.98945e-21
7.05714e-22
-2.0853e-21
-3.98706e-21
-5.88389e-21
-6.6804e-21
1.48407e-21
-1.87145e-21
-3.93928e-21
-5.83451e-21
-6.02703e-21
-4.02242e-21
-6.88846e-21
-7.28872e-21
-6.42362e-21
-5.74601e-21
-2.61595e-21
-5.43621e-21
-6.34987e-21
-6.87958e-21
-4.9408e-21
-2.43949e-21
-5.10237e-21
-5.84671e-21
-6.89907e-21
-5.40902e-21
-1.01928e-21
-4.14133e-21
-5.04857e-21
-6.23547e-21
-4.6342e-21
-5.68488e-21
-8.30481e-21
-7.80067e-21
-6.52222e-21
-4.1059e-21
-3.85309e-21
-6.71418e-21
-6.70545e-21
-7.048e-21
-3.57006e-21
)
;
    }
    axis
    {
        type            empty;
        value           nonuniform 0();
    }
    procBoundary34to28
    {
        type            processor;
        value           nonuniform List<scalar> 
68
(
1.13197e-10
9.65004e-11
8.21025e-11
6.99862e-11
5.97891e-11
5.12069e-11
4.38841e-11
3.77168e-11
3.14963e-11
2.68765e-11
2.43342e-11
2.15098e-11
1.8612e-11
1.57338e-11
1.29114e-11
1.01207e-11
7.37748e-12
4.50387e-12
2.00225e-12
2.30522e-13
-1.20131e-12
-2.35371e-12
-3.30116e-12
-4.10234e-12
-4.82262e-12
-5.54264e-12
-6.40819e-12
-7.43697e-12
-9.48185e-12
7.18055e-09
8.53833e-09
9.23098e-09
9.44556e-09
9.32413e-09
8.97426e-09
8.47657e-09
7.89095e-09
7.26113e-09
6.61857e-09
5.98537e-09
5.37657e-09
4.80189e-09
4.26715e-09
3.77524e-09
3.327e-09
2.92174e-09
2.5578e-09
2.23283e-09
1.9441e-09
1.68868e-09
1.4636e-09
1.26594e-09
1.09291e-09
9.41849e-10
8.1028e-10
6.95937e-10
5.96711e-10
5.10646e-10
4.36074e-10
3.71898e-10
3.17019e-10
2.70061e-10
2.29931e-10
1.95708e-10
1.6671e-10
1.42116e-10
-0.000148374
1.22799e-10
)
;
    }
    procBoundary34to29
    {
        type            processor;
        value           uniform 0.000148374;
    }
    procBoundary34to33
    {
        type            processor;
        value           nonuniform List<scalar> 4(-0.000145032 -0.000140925 -0.00013601 -0.000130251);
    }
    procBoundary34to35
    {
        type            processor;
        value           nonuniform List<scalar> 4(0.000145033 0.000140923 0.000136005 0.000130243);
    }
    procBoundary34to39
    {
        type            processor;
        value           uniform -0.000123618;
    }
    procBoundary34to40
    {
        type            processor;
        value           nonuniform List<scalar> 
68
(
-2.37422e-11
-2.05028e-11
-1.73747e-11
-1.46408e-11
-1.21494e-11
-9.80711e-12
-7.49999e-12
-5.10553e-12
-2.08013e-12
-1.95231e-13
2.72347e-13
1.05226e-12
1.84078e-12
2.55878e-12
3.1835e-12
3.72306e-12
4.29483e-12
4.8331e-12
5.89606e-12
6.58287e-12
-9.5739e-09
-9.46678e-09
-9.11961e-09
-8.6173e-09
-8.02251e-09
-7.38119e-09
-6.72623e-09
-6.0807e-09
-5.46018e-09
-4.87466e-09
-4.33005e-09
-3.82926e-09
-3.37308e-09
-2.96078e-09
-2.59065e-09
-2.26028e-09
-1.96688e-09
-1.70747e-09
-1.479e-09
-1.27849e-09
-1.10306e-09
-9.50006e-10
-8.16814e-10
-7.01184e-10
-6.01011e-10
-5.14385e-10
-4.39588e-10
-3.75073e-10
-3.19447e-10
-2.7156e-10
-2.30522e-10
-1.9552e-10
-1.65732e-10
-1.40433e-10
-1.18952e-10
-1.00769e-10
-8.52457e-11
-7.20217e-11
-6.04753e-11
-5.07439e-11
-4.31536e-11
-3.69716e-11
-3.18907e-11
-2.77485e-11
-2.45945e-11
-2.23747e-11
0.000123609
-2.26784e-11
)
;
    }
}


// ************************************************************************* //
