/*--------------------------------*- C++ -*----------------------------------*\
  =========                 |
  \\      /  F ield         | OpenFOAM: The Open Source CFD Toolbox
   \\    /   O peration     | Website:  https://openfoam.org
    \\  /    A nd           | Version:  7
     \\/     M anipulation  |
\*---------------------------------------------------------------------------*/
FoamFile
{
    version     2.0;
    format      ascii;
    class       volScalarField;
    location    "74.000388";
    object      p;
}
// * * * * * * * * * * * * * * * * * * * * * * * * * * * * * * * * * * * * * //

dimensions      [0 2 -2 0 0 0 0];

internalField   nonuniform List<scalar> 
5800
(
-0.217653
-0.219427
-0.220502
-0.221343
-0.222078
-0.22273
-0.223335
-0.223922
-0.224501
-0.225069
0.674235
0.657449
0.647182
0.63632
0.622504
0.605649
0.586138
0.564566
0.541543
0.517604
0.493199
0.674231
0.657446
0.647179
0.636317
0.622501
0.605647
0.586136
0.564565
0.541542
0.517603
0.493198
0.4687
0.444411
0.420577
0.397388
0.374989
0.353486
0.33297
0.313521
0.295164
0.669531
0.652886
0.642836
0.632265
0.618773
0.602242
0.583039
0.561752
0.538992
0.515294
0.491109
0.466812
0.442705
0.419036
0.395996
0.373732
0.352348
0.33193
0.312574
0.294353
0.660176
0.643809
0.63419
0.624196
0.611348
0.59546
0.576867
0.556149
0.533911
0.510693
0.486946
0.463048
0.439305
0.415964
0.393222
0.371226
0.350078
0.329857
0.310686
0.292732
0.646246
0.630292
0.621312
0.612174
0.600283
0.585352
0.567668
0.547794
0.526336
0.503831
0.480738
0.457435
0.434232
0.41138
0.389081
0.367486
0.34669
0.326762
0.307867
0.290306
0.627863
0.612452
0.60431
0.596296
0.585664
0.571995
0.55551
0.53675
0.516319
0.494757
0.472526
0.450008
0.427519
0.405313
0.383599
0.362533
0.342204
0.322666
0.304133
0.28708
0.605185
0.590441
0.583325
0.576689
0.567605
0.555489
0.540481
0.523096
0.503931
0.483533
0.462365
0.440817
0.419209
0.397802
0.37681
0.356397
0.336646
0.317593
0.299504
0.283063
0.578409
0.56445
0.558533
0.553511
0.546245
0.535959
0.522693
0.50693
0.489261
0.470236
0.450325
0.429923
0.409356
0.388892
0.368754
0.349114
0.330049
0.311572
0.294005
0.278269
0.547768
0.534703
0.530139
0.526947
0.52175
0.513551
0.502277
0.488368
0.472411
0.454958
0.436485
0.417396
0.398022
0.378639
0.35948
0.340728
0.322451
0.30464
0.287667
0.272715
0.513528
0.501456
0.498382
0.497211
0.494311
0.488436
0.479382
0.467545
0.453501
0.437804
0.42094
0.403318
0.38528
0.367107
0.349045
0.331285
0.313895
0.296835
0.280522
0.266421
0.475988
0.464996
0.463527
0.464543
0.464139
0.460801
0.454179
0.44461
0.432662
0.418892
0.403793
0.387782
0.37121
0.354368
0.337509
0.320843
0.304431
0.288203
0.272609
0.259412
0.435476
0.425641
0.425869
0.429206
0.43147
0.430856
0.42685
0.419728
0.41004
0.39835
0.385157
0.370888
0.355901
0.340498
0.324944
0.30946
0.294111
0.27879
0.263968
0.251718
0.392344
0.383732
0.385723
0.391486
0.396558
0.398825
0.397596
0.393075
0.385794
0.376318
0.365156
0.352743
0.339449
0.325582
0.311421
0.297203
0.282994
0.268651
0.254645
0.243369
0.34697
0.339632
0.343429
0.351688
0.359674
0.364949
0.366631
0.364841
0.36009
0.352945
0.343921
0.333465
0.321955
0.309711
0.297021
0.284141
0.271142
0.25784
0.244689
0.2344
0.299752
0.293728
0.299345
0.310135
0.321105
0.329482
0.33418
0.335226
0.333106
0.328387
0.321591
0.313176
0.303528
0.292979
0.281827
0.270347
0.258621
0.246417
0.23415
0.224849
0.251102
0.246418
0.253843
0.267165
0.28115
0.29269
0.300477
0.304438
0.305027
0.302807
0.29831
0.292002
0.28428
0.275484
0.265926
0.255899
0.2455
0.234449
0.223087
0.214753
0.201446
0.198115
0.20731
0.223126
0.240121
0.254847
0.265767
0.272693
0.276043
0.276375
0.274227
0.270075
0.264327
0.257331
0.249407
0.240874
0.23185
0.222002
0.211557
0.204149
0.151218
0.14924
0.160141
0.178378
0.198335
0.216234
0.230296
0.24021
0.246348
0.249261
0.249493
0.247529
0.243786
0.238621
0.232363
0.225351
0.217745
0.209159
0.199638
0.193073
0.100856
0.100216
0.112736
0.133284
0.156116
0.177136
0.194318
0.207213
0.21614
0.221641
0.224263
0.224499
0.222778
0.219463
0.214887
0.209411
0.203252
0.195999
0.187421
0.181533
0.050798
0.0514665
0.0654977
0.0882096
0.113791
0.137842
0.158086
0.173925
0.185617
0.19369
0.198692
0.201123
0.201422
0.199961
0.197073
0.19313
0.188425
0.182604
0.17508
0.16956
0.00147881
0.00340554
0.0188248
0.0435209
0.071683
0.098637
0.121851
0.140568
0.154976
0.165581
0.172932
0.177535
0.179837
0.180221
0.179019
0.176595
0.17332
0.169018
0.162833
0.157079
-0.0466677
-0.0435619
-0.0268905
-0.000423136
0.0301147
0.0598042
0.085862
0.107362
0.12441
0.137486
0.147136
0.153869
0.158141
0.160345
0.160815
0.159892
0.157974
0.155164
0.150853
0.144548
-0.0932538
-0.0890164
-0.0712754
-0.0432735
-0.0106007
0.0216198
0.0503621
0.0745215
0.0941085
0.109572
0.121451
0.130256
0.136449
0.140433
0.142547
0.143112
0.142501
0.141041
0.138597
0.133937
-0.138169
-0.132421
-0.114004
-0.0846953
-0.0501607
-0.0156496
0.0155857
0.0422527
0.0642548
0.082001
0.0960196
0.106822
0.114872
0.120581
0.1243
0.126335
0.127017
0.126783
0.12595
0.123234
-0.1807
-0.173553
-0.154845
-0.124388
-0.0882799
-0.0517495
-0.0182432
0.0107532
0.0350232
0.0549274
0.0709794
0.0836879
0.0935177
0.100885
0.106153
0.109623
0.111589
0.112506
0.112952
0.1118
-0.220512
-0.212241
-0.193077
-0.162201
-0.124696
-0.0864383
-0.0509125
-0.01979
0.00657879
0.0284973
0.0464595
0.0609683
0.0724873
0.0814347
0.088181
0.0930339
0.0962573
0.0982825
0.0998117
0.0999071
-0.257374
-0.248162
-0.228618
-0.197528
-0.159233
-0.119492
-0.0822229
-0.0492024
-0.0209243
0.0028472
0.0225808
0.0387705
0.0518758
0.062314
0.0704601
0.0766276
0.0810646
0.0841673
0.086693
0.0878957
-0.2911
-0.281029
-0.261319
-0.230184
-0.191513
-0.150723
-0.111991
-0.0773223
-0.0473442
-0.0218976
-0.00054505
0.0171936
0.0317713
0.0436018
0.0530607
0.0604667
0.0660601
0.0702025
0.0736704
0.075908
-0.321504
-0.310631
-0.290964
-0.260083
-0.221307
-0.179912
-0.14005
-0.104004
-0.0725519
-0.045624
-0.0228168
-0.00367173
0.0122544
0.0253702
0.0360486
0.0446113
0.0512949
0.0564265
0.0607802
0.0639874
-0.34843
-0.336818
-0.317377
-0.287049
-0.248523
-0.206866
-0.166252
-0.129119
-0.0964323
-0.0682317
-0.0441439
-0.023744
-0.00660228
0.00768454
0.0194832
0.0291157
0.0368171
0.0428784
0.048056
0.0521683
-0.371775
-0.359497
-0.340433
-0.310929
-0.273026
-0.231483
-0.190472
-0.152573
-0.118882
-0.0896336
-0.0644471
-0.0429509
-0.0247356
-0.00939682
0.00341735
0.0140283
0.0226704
0.0295976
0.0355357
0.0404921
-0.391493
-0.378626
-0.360066
-0.331623
-0.294699
-0.253659
-0.212611
-0.174267
-0.139876
-0.109732
-0.08366
-0.0612296
-0.0420916
-0.0258219
-0.0121032
-0.000608365
0.00889417
0.016621
0.0232551
0.0289993
-0.407591
-0.394219
-0.376267
-0.349088
-0.313467
-0.273314
-0.232595
-0.194119
-0.159299
-0.128539
-0.101731
-0.0785275
-0.0586251
-0.0415455
-0.0270397
-0.0147561
-0.00447806
0.00398282
0.0112433
0.0177231
-0.420132
-0.406343
-0.389078
-0.363328
-0.3293
-0.290395
-0.250371
-0.212084
-0.177101
-0.145966
-0.118645
-0.0948597
-0.0742749
-0.0565322
-0.04136
-0.0283818
-0.0174194
-0.00828506
-0.000478445
0.00668815
-0.429234
-0.415122
-0.398597
-0.374396
-0.342207
-0.304886
-0.265912
-0.228136
-0.193264
-0.16198
-0.134349
-0.110149
-0.0890653
-0.0707892
-0.0550257
-0.0414609
-0.0299097
-0.0201535
-0.0118853
-0.00409764
-0.435064
-0.420728
-0.404972
-0.382398
-0.352242
-0.316801
-0.279213
-0.242269
-0.207781
-0.176575
-0.148825
-0.124376
-0.102955
-0.0842735
-0.0680497
-0.0540107
-0.0419167
-0.0316096
-0.0229283
-0.0146586
-0.437835
-0.423378
-0.4084
-0.387485
-0.359499
-0.32619
-0.290297
-0.254491
-0.220657
-0.189757
-0.162079
-0.137545
-0.115929
-0.096968
-0.0804026
-0.0659801
-0.0534571
-0.0426872
-0.0335149
-0.0250562
-0.437801
-0.423329
-0.409122
-0.389854
-0.364115
-0.333133
-0.29921
-0.26483
-0.231914
-0.201543
-0.174125
-0.149666
-0.127993
-0.108874
-0.092074
-0.07736
-0.0645047
-0.0533504
-0.0437632
-0.0351215
-0.435246
-0.420871
-0.407413
-0.389742
-0.366268
-0.337748
-0.306022
-0.273333
-0.241585
-0.21196
-0.184985
-0.160756
-0.139159
-0.120001
-0.10307
-0.0881555
-0.0750489
-0.0635895
-0.053668
-0.0447427
-0.43048
-0.416315
-0.403579
-0.387422
-0.366172
-0.340183
-0.310831
-0.280065
-0.249717
-0.221047
-0.194689
-0.17084
-0.149449
-0.130365
-0.113403
-0.098376
-0.0850936
-0.0733993
-0.063201
-0.0539769
-0.423828
-0.409985
-0.397941
-0.383191
-0.364072
-0.340616
-0.313757
-0.285107
-0.256372
-0.228851
-0.20328
-0.179951
-0.158889
-0.139986
-0.123089
-0.108033
-0.0946481
-0.082783
-0.0723646
-0.0628989
-0.415623
-0.40221
-0.390829
-0.377366
-0.360241
-0.339256
-0.314943
-0.288555
-0.261621
-0.235429
-0.210803
-0.18813
-0.16751
-0.148889
-0.132146
-0.117142
-0.103726
-0.0917527
-0.0811741
-0.0715424
-0.406192
-0.393313
-0.38257
-0.370267
-0.354969
-0.336333
-0.314555
-0.290524
-0.265542
-0.240846
-0.217313
-0.195423
-0.175353
-0.157107
-0.140602
-0.125724
-0.112343
-0.100324
-0.0896405
-0.0799128
-0.395852
-0.383602
-0.373479
-0.362212
-0.348555
-0.3321
-0.312779
-0.291142
-0.268228
-0.24517
-0.222867
-0.201878
-0.182459
-0.164675
-0.148484
-0.133801
-0.12052
-0.108514
-0.0977719
-0.088005
-0.384902
-0.373362
-0.363849
-0.353504
-0.341296
-0.326816
-0.309819
-0.290552
-0.269776
-0.248473
-0.227526
-0.207548
-0.188875
-0.171633
-0.155827
-0.141403
-0.128279
-0.116339
-0.10558
-0.0958194
-0.373613
-0.362853
-0.353943
-0.344424
-0.333476
-0.320748
-0.30589
-0.288911
-0.270295
-0.250834
-0.23135
-0.212487
-0.194648
-0.178023
-0.162666
-0.148558
-0.135643
-0.12382
-0.113081
-0.103365
-0.362227
-0.352298
-0.343993
-0.335218
-0.32536
-0.314153
-0.301217
-0.286388
-0.2699
-0.252331
-0.2344
-0.216747
-0.199825
-0.183887
-0.16904
-0.155298
-0.142639
-0.130979
-0.120295
-0.110657
-0.350953
-0.34189
-0.334192
-0.326097
-0.31718
-0.307274
-0.296023
-0.283161
-0.268717
-0.253051
-0.236738
-0.220379
-0.204452
-0.189268
-0.174985
-0.161659
-0.149296
-0.13784
-0.127243
-0.117712
-0.339963
-0.331783
-0.324694
-0.317233
-0.309132
-0.300326
-0.290522
-0.279414
-0.266881
-0.253082
-0.238425
-0.223429
-0.208573
-0.194206
-0.180541
-0.167674
-0.155643
-0.144429
-0.13395
-0.124548
-0.329397
-0.322098
-0.31562
-0.308758
-0.301373
-0.293496
-0.284911
-0.275327
-0.264533
-0.252521
-0.239522
-0.225943
-0.212224
-0.198739
-0.185743
-0.173378
-0.161713
-0.150773
-0.140438
-0.131185
-0.319359
-0.312925
-0.307052
-0.300765
-0.294021
-0.286929
-0.279362
-0.271074
-0.261819
-0.251469
-0.240094
-0.22796
-0.215439
-0.202899
-0.190625
-0.178804
-0.167534
-0.156898
-0.146731
-0.137643
-0.309924
-0.304323
-0.299046
-0.293313
-0.287155
-0.280737
-0.274015
-0.266809
-0.258883
-0.250037
-0.240209
-0.229521
-0.218245
-0.206709
-0.195212
-0.18398
-0.173138
-0.16283
-0.152854
-0.143943
-0.301142
-0.296329
-0.29163
-0.286433
-0.28082
-0.274992
-0.268976
-0.262664
-0.255858
-0.248337
-0.239943
-0.230668
-0.220663
-0.210187
-0.199526
-0.188931
-0.178549
-0.168597
-0.158832
-0.150106
-0.293036
-0.288957
-0.284813
-0.280133
-0.275033
-0.269733
-0.264316
-0.258741
-0.252867
-0.246481
-0.239379
-0.231446
-0.222712
-0.213342
-0.203575
-0.193673
-0.183792
-0.174221
-0.164689
-0.156155
-0.285615
-0.282207
-0.278586
-0.274402
-0.269789
-0.264974
-0.260076
-0.255115
-0.250006
-0.244574
-0.238603
-0.231909
-0.224415
-0.216177
-0.20736
-0.198212
-0.188878
-0.179723
-0.170447
-0.162109
-0.278868
-0.276063
-0.27293
-0.269218
-0.265068
-0.260705
-0.256271
-0.25183
-0.247351
-0.242707
-0.237701
-0.232117
-0.225796
-0.218691
-0.210869
-0.202539
-0.193813
-0.185116
-0.176121
-0.167994
-0.272774
-0.270502
-0.267817
-0.264548
-0.26084
-0.256904
-0.252895
-0.248906
-0.244952
-0.240956
-0.236755
-0.232136
-0.226889
-0.220886
-0.214086
-0.206636
-0.198582
-0.190401
-0.181728
-0.173826
-0.267301
-0.265491
-0.263212
-0.260357
-0.257066
-0.253537
-0.249925
-0.246342
-0.242836
-0.239374
-0.235835
-0.232031
-0.227738
-0.222769
-0.216989
-0.210466
-0.203159
-0.195564
-0.187252
-0.179657
-0.262407
-0.260991
-0.259076
-0.256603
-0.253707
-0.250565
-0.24733
-0.244122
-0.24101
-0.237994
-0.234997
-0.231867
-0.228392
-0.224359
-0.219562
-0.213991
-0.207491
-0.200575
-0.19268
-0.185462
-0.258046
-0.256958
-0.255366
-0.253244
-0.250718
-0.247946
-0.245073
-0.242218
-0.239462
-0.23683
-0.23428
-0.231698
-0.228904
-0.225685
-0.2218
-0.217163
-0.211533
-0.205346
-0.197975
-0.191356
-0.254162
-0.253346
-0.252036
-0.250236
-0.248056
-0.245636
-0.24311
-0.240594
-0.23817
-0.235878
-0.233702
-0.231566
-0.229324
-0.226787
-0.223711
-0.219953
-0.215203
-0.209846
-0.202967
-0.197097
-0.250698
-0.250103
-0.249042
-0.247533
-0.245675
-0.243589
-0.241398
-0.239207
-0.237098
-0.235117
-0.233266
-0.231495
-0.229695
-0.227711
-0.225321
-0.222339
-0.2185
-0.213774
-0.208343
-0.201425
-0.247593
-0.247181
-0.246335
-0.245091
-0.243531
-0.241762
-0.23989
-0.238013
-0.236206
-0.234517
-0.232955
-0.231491
-0.230048
-0.2285
-0.226673
-0.224319
-0.221442
-0.216998
-0.213687
-0.205138
-0.24479
-0.244526
-0.243871
-0.242866
-0.241583
-0.240109
-0.238541
-0.236965
-0.235449
-0.234036
-0.23274
-0.231544
-0.230393
-0.229187
-0.227812
-0.225921
-0.224028
-0.219455
-0.218532
-0.208346
-0.242228
-0.242095
-0.241606
-0.24082
-0.23979
-0.238592
-0.23731
-0.23602
-0.234781
-0.233631
-0.232584
-0.231629
-0.230724
-0.22979
-0.228774
-0.227203
-0.226238
-0.221227
-0.222896
-0.21077
-0.239858
-0.239839
-0.239506
-0.238915
-0.238117
-0.237175
-0.23616
-0.235138
-0.23416
-0.233259
-0.232445
-0.23171
-0.23102
-0.230313
-0.229576
-0.228238
-0.228044
-0.222538
-0.226727
-0.212344
-0.237633
-0.237726
-0.237535
-0.237123
-0.236535
-0.235826
-0.235057
-0.234283
-0.233549
-0.23288
-0.232284
-0.231752
-0.231255
-0.230743
-0.230218
-0.22909
-0.229409
-0.22367
-0.229744
-0.213344
-0.235517
-0.235725
-0.235666
-0.235418
-0.235023
-0.234524
-0.233978
-0.233431
-0.232919
-0.232463
-0.232067
-0.23172
-0.231397
-0.231058
-0.230694
-0.229786
-0.230328
-0.224806
-0.231689
-0.214257
-0.233486
-0.233815
-0.233882
-0.233783
-0.233561
-0.233253
-0.232906
-0.232562
-0.232251
-0.231986
-0.23177
-0.231591
-0.231423
-0.231235
-0.230998
-0.230315
-0.230849
-0.225952
-0.232568
-0.215457
-0.231522
-0.231982
-0.232171
-0.232209
-0.232143
-0.232004
-0.231834
-0.231669
-0.231533
-0.231437
-0.23138
-0.231348
-0.231316
-0.231257
-0.231126
-0.230648
-0.231057
-0.226986
-0.232633
-0.216985
-0.22962
-0.230221
-0.230528
-0.230693
-0.230766
-0.230775
-0.230759
-0.230749
-0.230766
-0.230816
-0.230895
-0.230989
-0.231073
-0.231122
-0.231081
-0.230766
-0.231031
-0.227768
-0.232209
-0.218623
-0.227785
-0.228535
-0.228956
-0.229237
-0.229434
-0.229573
-0.229689
-0.229811
-0.229957
-0.230129
-0.230323
-0.230522
-0.230702
-0.230837
-0.230872
-0.230659
-0.230849
-0.228207
-0.231556
-0.220117
-0.226028
-0.226932
-0.227464
-0.22785
-0.228157
-0.228408
-0.228636
-0.228869
-0.229122
-0.229395
-0.229683
-0.229966
-0.230223
-0.230425
-0.230513
-0.230349
-0.230552
-0.228291
-0.23086
-0.221316
-0.224369
-0.225428
-0.226065
-0.226547
-0.22695
-0.227296
-0.227619
-0.227943
-0.228282
-0.228638
-0.228999
-0.22935
-0.229665
-0.229915
-0.230045
-0.229993
-0.229978
-0.228226
-0.230161
-0.222162
-0.222831
-0.224042
-0.224777
-0.225345
-0.225832
-0.226258
-0.226657
-0.227056
-0.227465
-0.227884
-0.228303
-0.228704
-0.229062
-0.229346
-0.229507
-0.229506
-0.229347
-0.228209
-0.228979
-0.223155
-0.221442
-0.222796
-0.223621
-0.224264
-0.224821
-0.225314
-0.225776
-0.226233
-0.226696
-0.227165
-0.227627
-0.228066
-0.228454
-0.228761
-0.228942
-0.228959
-0.228748
-0.227981
-0.22795
-0.22403
-0.22023
-0.221713
-0.222616
-0.223323
-0.223939
-0.224486
-0.224998
-0.2255
-0.226005
-0.22651
-0.227005
-0.22747
-0.227879
-0.2282
-0.228393
-0.228416
-0.228197
-0.227618
-0.227171
-0.219223
-0.220816
-0.221785
-0.222544
-0.223207
-0.223796
-0.224345
-0.224883
-0.225418
-0.22595
-0.226467
-0.22695
-0.227373
-0.227702
-0.227901
-0.227925
-0.227714
-0.227224
-0.2266
-0.218444
-0.220125
-0.221145
-0.221944
-0.222642
-0.223262
-0.223839
-0.224401
-0.224958
-0.225509
-0.226041
-0.226536
-0.226966
-0.2273
-0.2275
-0.227524
-0.227321
-0.226871
-0.226189
-0.217915
-0.219656
-0.220711
-0.221537
-0.22226
-0.2229
-0.223495
-0.224073
-0.224644
-0.225206
-0.225748
-0.22625
-0.226684
-0.227019
-0.227218
-0.227239
-0.22704
-0.226605
-0.22591
-0.217648
-0.219421
-0.220495
-0.221335
-0.22207
-0.22272
-0.223325
-0.223911
-0.224489
-0.225057
-0.225604
-0.226108
-0.226543
-0.226877
-0.227073
-0.22709
-0.226888
-0.22645
-0.225748
0.136322
0.139426
0.146838
0.153498
0.162094
0.167842
0.173373
0.173483
0.172604
0.16299
0.137539
0.140712
0.148373
0.155342
0.164491
0.171052
0.1778
0.179482
0.180886
0.173747
0.138744
0.141926
0.149843
0.157095
0.166824
0.174144
0.182094
0.185197
0.188635
0.183878
0.139901
0.1431
0.151284
0.158813
0.169106
0.177151
0.186243
0.190733
0.196011
0.193627
0.14101
0.144221
0.152671
0.160459
0.171293
0.180029
0.190194
0.196048
0.203
0.202941
0.142069
0.145298
0.154001
0.162033
0.173383
0.182781
0.193945
0.20113
0.209608
0.211793
0.143074
0.146287
0.155278
0.163534
0.17537
0.185402
0.197482
0.20596
0.215839
0.220161
0.144025
0.147229
0.156458
0.164951
0.177244
0.187885
0.200799
0.210518
0.221685
0.228023
0.14492
0.14812
0.15766
0.166292
0.178998
0.190221
0.203889
0.214785
0.227138
0.235355
0.145755
0.148927
0.158577
0.167547
0.180629
0.192404
0.206748
0.218745
0.232186
0.242137
0.146527
0.149683
0.159628
0.168701
0.182126
0.194423
0.209369
0.222384
0.236818
0.24835
0.147231
0.150371
0.160483
0.169747
0.183487
0.196271
0.211749
0.225689
0.24102
0.253976
0.147866
0.150989
0.161286
0.170694
0.184707
0.197938
0.213882
0.228649
0.24478
0.259002
0.148428
0.151535
0.161985
0.17153
0.185782
0.199417
0.215764
0.231257
0.24809
0.263414
0.148914
0.152007
0.162592
0.172256
0.186711
0.2007
0.217389
0.233505
0.250939
0.267203
0.149323
0.152403
0.163101
0.172867
0.187489
0.20178
0.218754
0.235387
0.253321
0.270363
0.149653
0.152723
0.163511
0.173361
0.188115
0.202651
0.219852
0.236898
0.25523
0.272891
0.149902
0.152963
0.163819
0.173733
0.188587
0.203309
0.22068
0.238035
0.256665
0.274785
0.150068
0.153124
0.164025
0.173983
0.188902
0.20375
0.221235
0.238794
0.257622
0.276046
0.150152
0.153205
0.164129
0.174109
0.189061
0.203971
0.221513
0.239174
0.258101
0.276677
0.0300197
0.0286933
0.0265119
0.0239255
0.0212117
0.0185651
0.0160788
0.0138084
0.0117658
0.00995242
0.0301484
0.0288187
0.0266284
0.0240326
0.0213081
0.0186517
0.0161553
0.0138759
0.0118245
0.0100032
0.0303984
0.0290619
0.0268553
0.0242411
0.0214964
0.0188203
0.0163045
0.0140073
0.011939
0.0101032
0.0307631
0.0294167
0.027187
0.024546
0.0217718
0.0190671
0.0165229
0.0141994
0.0121069
0.0102501
0.0312365
0.0298775
0.0276184
0.0249427
0.0221304
0.0193882
0.0168072
0.0144497
0.0123257
0.0104415
0.0318132
0.0304392
0.0281446
0.0254271
0.0225684
0.0197808
0.0171547
0.0147558
0.0125932
0.0106756
0.0324883
0.0310972
0.0287615
0.0259954
0.0230827
0.0202419
0.0175632
0.0151155
0.0129076
0.0109507
0.033257
0.0318473
0.0294653
0.0266444
0.0236705
0.0207693
0.0180305
0.0155272
0.0132675
0.0112655
0.0341152
0.0326854
0.0302523
0.0273711
0.0243294
0.0213609
0.018555
0.0159893
0.0136714
0.0116188
0.0350587
0.0336081
0.0311195
0.0281727
0.025057
0.0220149
0.0191351
0.0165007
0.0141184
0.0120097
0.0360839
0.0346118
0.0320639
0.029047
0.0258515
0.0227299
0.0197695
0.0170602
0.0146074
0.0124373
0.0371872
0.0356936
0.0330826
0.0299917
0.0267111
0.0235043
0.0204573
0.017667
0.0151379
0.0129011
0.0383651
0.0368503
0.0341731
0.0310047
0.0276344
0.0243373
0.0211976
0.0183206
0.0157092
0.0134007
0.0396143
0.0380792
0.0353329
0.0320844
0.02862
0.0252278
0.0219897
0.0190203
0.016321
0.0139356
0.0409316
0.0393774
0.0365596
0.0332289
0.0296669
0.0261752
0.0228331
0.0197658
0.016973
0.0145059
0.042314
0.0407422
0.0378511
0.0344369
0.0307739
0.0271787
0.0237275
0.0205571
0.0176653
0.0151114
0.0437583
0.0421711
0.0392051
0.0357068
0.0319403
0.0282381
0.0246727
0.0213941
0.0183978
0.0157522
0.0452617
0.0436614
0.0406196
0.0370375
0.0331653
0.0293529
0.0256685
0.0222769
0.0191708
0.0164287
0.0468211
0.0452106
0.0420924
0.0384276
0.0344482
0.0305229
0.0267151
0.0232058
0.0199847
0.0171412
0.0484336
0.046816
0.0436215
0.0398761
0.0357885
0.0317481
0.0278127
0.0241812
0.0208398
0.0178902
0.0500962
0.048475
0.045205
0.0413819
0.0371857
0.0330284
0.0289615
0.0252036
0.0217369
0.0186764
0.0518062
0.0501851
0.0468408
0.0429441
0.0386394
0.034364
0.030162
0.0262736
0.0226766
0.0195005
0.0535604
0.0519434
0.048527
0.0445617
0.0401492
0.0357549
0.0314147
0.0273922
0.0236599
0.0203634
0.0553561
0.0537473
0.0502617
0.0462338
0.0417148
0.0372015
0.0327203
0.0285601
0.0246876
0.021266
0.0571903
0.055594
0.052043
0.0479595
0.0433358
0.038704
0.0340795
0.0297785
0.025761
0.0222097
0.05906
0.0574806
0.0538689
0.0497379
0.0450119
0.040263
0.0354932
0.0310485
0.0268813
0.0231955
0.0609623
0.0594042
0.0557376
0.0515681
0.0467428
0.0418787
0.0369624
0.0323713
0.0280499
0.0242249
0.0628941
0.0613618
0.0576471
0.053449
0.0485283
0.0435519
0.0384882
0.0337485
0.0292682
0.0252994
0.0648525
0.0633504
0.0595957
0.0553798
0.0503679
0.0452831
0.0400716
0.0351815
0.0305379
0.0264206
0.0668345
0.0653671
0.0615814
0.0573592
0.0522614
0.0470729
0.0417141
0.0366719
0.0318608
0.0275904
0.0688371
0.0674086
0.0636025
0.0593861
0.0542084
0.048922
0.0434168
0.0382214
0.0332386
0.0288106
0.0708571
0.0694719
0.0656569
0.0614592
0.0562086
0.0508313
0.0451812
0.0398319
0.0346735
0.0300833
0.0728916
0.0715538
0.0677429
0.0635772
0.0582615
0.0528015
0.0470086
0.0415052
0.0361675
0.0314107
0.0749375
0.0736513
0.0698584
0.0657384
0.0603668
0.0548333
0.0489007
0.0432435
0.037723
0.0327953
0.0769917
0.0757612
0.0720017
0.0679412
0.062524
0.0569275
0.0508588
0.0450487
0.0393423
0.0342394
0.0790513
0.0778804
0.0741705
0.0701839
0.0647327
0.0590849
0.0528845
0.0469232
0.0410281
0.0357457
0.0811131
0.0800059
0.0763631
0.0724645
0.0669925
0.0613062
0.0549794
0.0488692
0.042783
0.0373171
0.0831742
0.0821346
0.0785771
0.074781
0.0693027
0.0635919
0.057145
0.0508891
0.0446098
0.0389566
0.0852316
0.0842635
0.0808104
0.0771311
0.0716629
0.0659427
0.0593828
0.0529854
0.0465116
0.0406673
0.0872825
0.0863898
0.0830608
0.0795125
0.0740724
0.0683588
0.0616944
0.0551606
0.0484914
0.0424524
0.0893238
0.0885106
0.0853258
0.0819228
0.0765305
0.0708405
0.0640812
0.0574173
0.0505524
0.0443154
0.0913529
0.0906231
0.0876032
0.0843595
0.0790364
0.073388
0.0665447
0.0597582
0.052698
0.04626
0.093367
0.0927246
0.0898903
0.0868199
0.0815892
0.0760011
0.0690863
0.062186
0.0549317
0.0482898
0.0953633
0.0948126
0.0921845
0.0893013
0.0841878
0.0786795
0.0717075
0.0647034
0.0572569
0.0504088
0.0973394
0.0968845
0.0944832
0.0918008
0.0868309
0.0814226
0.0744094
0.0673132
0.0596773
0.0526211
0.0992927
0.0989379
0.0967835
0.0943156
0.0895174
0.0842297
0.0771934
0.0700182
0.0621967
0.0549309
0.101221
0.10097
0.0990827
0.0968427
0.0922455
0.0870998
0.0800605
0.072821
0.0648187
0.0573425
0.103122
0.10298
0.101378
0.0993791
0.0950134
0.0900314
0.0830119
0.0757242
0.0675472
0.0598604
0.104993
0.104964
0.103666
0.101922
0.0978192
0.0930232
0.0860484
0.0787305
0.0703859
0.0624895
0.106833
0.106922
0.105944
0.104468
0.100661
0.0960732
0.0891708
0.0818424
0.0733387
0.0652344
0.108639
0.10885
0.108209
0.107014
0.103535
0.0991792
0.0923798
0.085062
0.0764094
0.0681003
0.110411
0.110747
0.110458
0.109557
0.10644
0.102339
0.0956758
0.0883914
0.0796016
0.0710923
0.112146
0.112612
0.112688
0.112094
0.109372
0.10555
0.099059
0.0918325
0.0829193
0.0742159
0.113842
0.114442
0.114896
0.114622
0.112328
0.108808
0.102529
0.0953869
0.086366
0.0774765
0.115499
0.116237
0.117079
0.117138
0.115304
0.112111
0.106087
0.0990556
0.0899455
0.0808801
0.117116
0.117994
0.119234
0.119639
0.118297
0.115456
0.109731
0.102839
0.0936616
0.0844326
0.118691
0.119713
0.121359
0.122121
0.121302
0.118837
0.11346
0.106739
0.0975182
0.0881403
0.120223
0.121393
0.12345
0.124582
0.124314
0.122252
0.117274
0.110753
0.101519
0.0920095
0.121713
0.123031
0.125506
0.127018
0.12733
0.125696
0.12117
0.114882
0.105669
0.0960468
0.123158
0.124629
0.127523
0.129427
0.130344
0.129165
0.125147
0.119124
0.109973
0.100259
0.12456
0.126183
0.1295
0.131806
0.133351
0.132653
0.129201
0.123477
0.114436
0.104652
0.125917
0.127695
0.131435
0.134152
0.136345
0.136157
0.133329
0.127939
0.119065
0.109231
0.127229
0.129162
0.133324
0.136462
0.139322
0.13967
0.137527
0.132507
0.123869
0.114001
0.128497
0.130585
0.135168
0.138733
0.142275
0.143189
0.141788
0.137178
0.128858
0.118966
0.129719
0.131963
0.136963
0.140963
0.145199
0.146708
0.146107
0.141948
0.134047
0.124137
0.130898
0.133296
0.138709
0.143151
0.148089
0.150222
0.150478
0.146817
0.139451
0.129527
0.132032
0.134584
0.140407
0.145294
0.150944
0.153731
0.154896
0.151782
0.145073
0.1351
0.133122
0.135827
0.142053
0.147392
0.153753
0.157221
0.159332
0.15682
0.150899
0.140674
0.134167
0.137019
0.143636
0.149419
0.156482
0.160644
0.163726
0.161885
0.156995
0.146132
0.135172
0.138152
0.145141
0.151341
0.159098
0.163967
0.168107
0.167084
0.16382
0.152479
0.00874866
0.00805469
0.00735262
0.00664533
0.00593362
0.00521746
0.00449689
0.00377225
0.00304404
0.0023128
0.001579
0.000843097
0.000105512
-0.000633325
-0.00137298
-0.00211303
-0.00285303
-0.00359251
-0.00433097
-0.00506805
0.00879518
0.00810028
0.0073969
0.0066888
0.00597658
0.00525981
0.00453828
0.00381226
0.00308229
0.00234889
0.00161257
0.000873774
0.000132936
-0.000609496
-0.00135307
-0.00209733
-0.00284185
-0.00358624
-0.00433015
-0.00507326
0.00888778
0.00818919
0.00748061
0.0067674
0.00605038
0.00532877
0.00460206
0.00387048
0.00313459
0.00239502
0.00165231
0.000906905
0.000159273
-0.000590129
-0.00134083
-0.00209235
-0.00284421
-0.0035959
-0.00434689
-0.00509667
0.00902279
0.00831715
0.00759944
0.00687743
0.00615234
0.00542288
0.00468814
0.00394821
0.00320373
0.00245539
0.00170377
0.000949341
0.000192563
-0.000566094
-0.00132614
-0.00208706
-0.00284838
-0.00360959
-0.00437022
-0.0051299
0.00919818
0.00848234
0.00775195
0.00701788
0.00628178
0.00554171
0.00479619
0.00404515
0.0032893
0.00252945
0.00176621
0.00100008
0.000231496
-0.000539053
-0.00131107
-0.00208403
-0.00285743
-0.00363076
-0.00440348
-0.00517519
0.00941228
0.00868326
0.00793675
0.00718744
0.00643747
0.00568406
0.00492505
0.00416019
0.0033903
0.0026163
0.00183887
0.0010585
0.000275631
-0.00050925
-0.00129563
-0.00208298
-0.00287076
-0.00365845
-0.00444551
-0.00523155
0.00966363
0.00891851
0.00815257
0.00738493
0.00661834
0.00584899
0.00507391
0.00429265
0.00350616
0.0027155
0.00192141
0.00112439
0.000324849
-0.000476718
-0.00127979
-0.00208382
-0.00288826
-0.00369257
-0.00449622
-0.00529881
0.00995094
0.00918691
0.00839831
0.0076094
0.00682355
0.00603575
0.00524211
0.00444195
0.00363638
0.00282661
0.00201347
0.00119742
0.000378881
-0.000441675
-0.00126371
-0.00208667
-0.00291
-0.00373314
-0.00455555
-0.00537686
0.0102732
0.00948745
0.00867305
0.00786003
0.00705236
0.0062437
0.00542906
0.00460756
0.00378047
0.00294922
0.00211467
0.00127729
0.000437471
-0.000404326
-0.00124756
-0.00209165
-0.00293605
-0.00378018
-0.0046235
-0.00546566
0.0106294
0.0098193
0.00897603
0.0081361
0.00730416
0.00647226
0.00563425
0.00478901
0.00393803
0.00308295
0.0022247
0.00136372
0.00050038
-0.000364875
-0.00123149
-0.0020989
-0.00296651
-0.00383376
-0.0047001
-0.00556522
0.0110189
0.0101818
0.00930661
0.00843706
0.00757844
0.00672098
0.00585726
0.00498591
0.00410869
0.00322748
0.00234326
0.00145645
0.000567372
-0.000323533
-0.00121571
-0.00210856
-0.00300152
-0.003894
-0.00478546
-0.00567563
0.0114412
0.0105743
0.00966427
0.00876244
0.00787476
0.00698948
0.00609773
0.00519794
0.00429216
0.00338253
0.00247009
0.00155523
0.00063822
-0.000280508
-0.00120039
-0.00212084
-0.00304125
-0.00396106
-0.00487973
-0.00579702
0.0118959
0.0109966
0.0100486
0.00911187
0.00819282
0.00727746
0.00635539
0.00542481
0.00448816
0.00354784
0.00260496
0.00165984
0.00071271
-0.000236007
-0.00118575
-0.00213591
-0.00308589
-0.00403513
-0.00498307
-0.00592956
0.0123826
0.0114482
0.0104594
0.0094851
0.00853238
0.0075847
0.00663
0.00566632
0.00469649
0.00372321
0.00274765
0.00177007
0.000790641
-0.000190233
-0.00117198
-0.00215398
-0.00313565
-0.0041164
-0.0050957
-0.00607347
0.0129013
0.0119291
0.0108964
0.00988196
0.00889329
0.00791105
0.00692143
0.00592231
0.00491698
0.00390847
0.002898
0.00188574
0.000871821
-0.000143382
-0.00115928
-0.00217527
-0.00319073
-0.00420511
-0.00521787
-0.006229
0.0134519
0.0124392
0.0113596
0.0103024
0.00927548
0.00825644
0.00722959
0.00619267
0.00514951
0.00410349
0.00305585
0.0020067
0.000956077
-9.56443e-05
-0.00114788
-0.00219999
-0.00325139
-0.00430151
-0.00534982
-0.00639641
0.0140346
0.0129787
0.0118491
0.0107464
0.00967896
0.00862088
0.00755444
0.00647734
0.00539399
0.00430816
0.00322109
0.0021328
0.00104325
-4.72034e-05
-0.00113795
-0.00222837
-0.00331786
-0.00440586
-0.00549184
-0.00657603
0.0146496
0.0135477
0.0123649
0.0112141
0.0101038
0.00900443
0.00789604
0.00677632
0.00565041
0.00452242
0.00339363
0.00226392
0.00113318
1.76519e-06
-0.00112972
-0.00226064
-0.0033904
-0.00451845
-0.00564425
-0.00676817
0.0152974
0.0141465
0.0129073
0.0117058
0.0105503
0.00940724
0.00825446
0.00708968
0.00591876
0.00474625
0.0035734
0.00239997
0.00122575
5.10936e-05
-0.00112338
-0.00229704
-0.00346929
-0.00463957
-0.00580737
-0.00697321
0.0159784
0.0147756
0.0134768
0.0122216
0.0110186
0.00982951
0.00862986
0.00741749
0.0061991
0.00497965
0.00376038
0.00254086
0.00132083
0.000100621
-0.00111914
-0.0023378
-0.00355478
-0.00476955
-0.00598155
-0.00719152
0.0166932
0.0154356
0.0140736
0.012762
0.011509
0.0102715
0.00902247
0.00775992
0.00649153
0.00522267
0.00395455
0.00268655
0.00141833
0.000150195
-0.00111719
-0.00238318
-0.00364719
-0.0049087
-0.00616716
-0.00742351
0.0174427
0.016127
0.0146984
0.0133275
0.0120221
0.0107336
0.00943255
0.00811718
0.00679618
0.0054754
0.00415594
0.002837
0.00151814
0.000199668
-0.00111773
-0.00243341
-0.0037468
-0.00505738
-0.00636458
-0.00766962
0.0182275
0.0168508
0.0153518
0.0139186
0.0125581
0.0112163
0.00986043
0.0084895
0.00711324
0.00573794
0.00436459
0.00299219
0.00162018
0.0002489
-0.00112096
-0.00248876
-0.00385392
-0.00521594
-0.00657423