/*--------------------------------*- C++ -*----------------------------------*\
  =========                 |
  \\      /  F ield         | OpenFOAM: The Open Source CFD Toolbox
   \\    /   O peration     | Website:  https://openfoam.org
    \\  /    A nd           | Version:  7
     \\/     M anipulation  |
\*---------------------------------------------------------------------------*/
FoamFile
{
    version     2.0;
    format      ascii;
    class       surfaceScalarField;
    location    "8.6";
    object      phi;
}
// * * * * * * * * * * * * * * * * * * * * * * * * * * * * * * * * * * * * * //

dimensions      [0 3 -1 0 0 0 0];

internalField   nonuniform List<scalar> 
612
(
0.000412122
-4.23226e-05
0.000412881
-5.05635e-05
0.00041411
-6.0633e-05
0.000416074
-7.30297e-05
0.000419202
-8.84324e-05
0.000424227
-0.000107809
0.000432463
-0.000132516
0.000446328
-0.000164718
0.000470607
-0.000206836
0.00051232
-0.000263652
0.000581967
-0.000324539
-0.000401171
0.000660975
0.000412632
-1.31517e-06
0.000412511
-1.29583e-06
0.000412393
-1.27703e-06
0.000412276
-1.2588e-06
0.00041216
-1.24118e-06
0.000412047
-1.22417e-06
0.000411934
-1.20784e-06
0.000411824
-1.19222e-06
0.000411715
-1.17738e-06
0.000411607
-1.16338e-06
0.0004115
-1.15032e-06
0.000411395
-1.13828e-06
0.000411292
-1.1274e-06
0.000411189
-1.11782e-06
0.000411088
-1.10972e-06
0.000410987
-1.10328e-06
0.000410888
-1.09876e-06
0.000410789
-1.09645e-06
0.000410691
-1.09667e-06
0.000410594
-1.09984e-06
0.000410497
-1.10641e-06
0.000410401
-1.11696e-06
0.000410304
-1.13214e-06
0.000410207
-1.15272e-06
0.00041011
-1.17963e-06
0.000410012
-1.21395e-06
0.000409913
-1.25696e-06
0.000409812
-1.31018e-06
0.00040971
-1.37538e-06
0.000409604
-1.45467e-06
0.000409495
-1.55056e-06
0.000409382
-1.66597e-06
0.000409264
-1.8044e-06
0.000409139
-1.96996e-06
0.000409007
-2.16751e-06
0.000408866
-2.40284e-06
0.000408714
-2.68277e-06
0.00040855
-3.01542e-06
0.00040837
-3.41041e-06
0.000408172
-3.87918e-06
0.000407954
-4.43536e-06
0.00040771
-5.09516e-06
0.000407438
-5.87799e-06
0.000407132
-6.80703e-06
0.000406787
-7.91011e-06
0.000406398
-9.22074e-06
0.000405956
-1.07793e-05
0.000405455
-1.26349e-05
0.000404887
-1.48471e-05
0.000404243
-1.74891e-05
0.000403516
-2.06509e-05
0.000402697
-2.44444e-05
0.000401782
-2.90098e-05
0.000400769
-3.4525e-05
0.000399665
-4.1218e-05
0.000398488
-4.93868e-05
0.000397282
-5.94273e-05
0.000396133
-7.18809e-05
0.000395204
-8.75029e-05
0.000394809
-0.000107414
0.000395569
-0.000133276
0.000398789
-0.000167938
0.000407579
-0.000215626
0.000428816
-0.000284889
0.000477201
-0.000372924
0.000495838
-0.000419808
0.000617213
-0.000194371
0.000556647
-9.10973e-05
0.000501718
-4.17226e-05
-1.72725e-05
0.000301467
0.00021037
0.000168648
0.000140308
-1.26501e-06
0.000140259
-1.2464e-06
0.00014021
-1.22833e-06
0.000140162
-1.2108e-06
0.000140115
-1.19386e-06
0.000140068
-1.17752e-06
0.000140022
-1.16183e-06
0.000139976
-1.14684e-06
0.000139932
-1.1326e-06
0.000139887
-1.11919e-06
0.000139844
-1.10668e-06
0.000139801
-1.09517e-06
0.000139758
-1.08479e-06
0.000139716
-1.07568e-06
0.000139674
-1.068e-06
0.000139633
-1.06196e-06
0.000139592
-1.05779e-06
0.000139551
-1.05576e-06
0.000139511
-1.05622e-06
0.000139471
-1.05955e-06
0.00013943
-1.06622e-06
0.00013939
-1.07677e-06
0.00013935
-1.09184e-06
0.000139309
-1.1122e-06
0.000139268
-1.13874e-06
0.000139227
-1.17253e-06
0.000139185
-1.21481e-06
0.000139142
-1.26708e-06
0.000139097
-1.33107e-06
0.000139052
-1.40886e-06
0.000139004
-1.50287e-06
0.000138954
-1.61599e-06
0.000138901
-1.75163e-06
0.000138845
-1.91381e-06
0.000138785
-2.10733e-06
0.00013872
-2.33781e-06
0.000138649
-2.61197e-06
0.000138571
-2.93775e-06
0.000138486
-3.32459e-06
0.00013839
-3.78371e-06
0.000138283
-4.32847e-06
0.000138163
-4.9748e-06
0.000138027
-5.74174e-06
0.000137872
-6.65209e-06
0.000137695
-7.7332e-06
0.000137492
-9.01803e-06
0.000137259
-1.05464e-05
0.000136991
-1.23665e-05
0.000136681
-1.45373e-05
0.000136322
-1.71308e-05
0.000135908
-2.02361e-05
0.000135427
-2.39639e-05
0.00013487
-2.84529e-05
0.000134225
-3.38794e-05
0.000133477
-4.04699e-05
0.00013261
-4.85205e-05
0.000131608
-5.8425e-05
0.000130449
-7.07222e-05
0.00012911
-8.6164e-05
0.000127558
-0.000105861
0.000125734
-0.000131452
0.000123462
-0.000165666
0.000120106
-0.000212269
0.000112468
-0.000277251
8.82893e-05
-0.000348746
-0.000331519
0.000138919
-1.21099e-06
0.000138866
-1.19318e-06
0.000138814
-1.17588e-06
0.000138762
-1.15911e-06
0.000138711
-1.1429e-06
0.000138661
-1.12728e-06
0.000138611
-1.11229e-06
0.000138562
-1.09797e-06
0.000138514
-1.08438e-06
0.000138467
-1.07158e-06
0.00013842
-1.05967e-06
0.000138373
-1.04873e-06
0.000138327
-1.03888e-06
0.000138282
-1.03026e-06
0.000138237
-1.02303e-06
0.000138192
-1.01739e-06
0.000138148
-1.01357e-06
0.000138104
-1.01184e-06
0.00013806
-1.01252e-06
0.000138017
-1.01599e-06
0.000137973
-1.02271e-06
0.00013793
-1.03321e-06
0.000137886
-1.04811e-06
0.000137842
-1.06815e-06
0.000137797
-1.09421e-06
0.000137752
-1.12733e-06
0.000137706
-1.16873e-06
0.000137659
-1.21984e-06
0.00013761
-1.28237e-06
0.00013756
-1.35833e-06
0.000137507
-1.45009e-06
0.000137451
-1.56048e-06
0.000137393
-1.6928e-06
0.00013733
-1.85098e-06
0.000137262
-2.03969e-06
0.000137189
-2.26443e-06
0.000137109
-2.53174e-06
0.00013702
-2.84937e-06
0.000136922
-3.22653e-06
0.000136813
-3.67417e-06
0.000136689
-4.20534e-06
0.00013655
-4.83561e-06
0.000136392
-5.58357e-06
0.000136211
-6.47151e-06
0.000136004
-7.52618e-06
0.000135766
-8.77982e-06
0.000135491
-1.02714e-05
0.000135173
-1.20482e-05
0.000134804
-1.41679e-05
0.000134374
-1.67013e-05
0.000133874
-1.97356e-05
0.000133289
-2.33794e-05
0.000132605
-2.77692e-05
0.000131804
-3.30781e-05
0.000130863
-3.95285e-05
0.000129753
-4.74112e-05
0.000128441
-5.71124e-05
0.000126878
-6.91591e-05
0.000124997
-8.42836e-05
0.00012269
-0.000103554
0.000119758
-0.00012852
0.000115713
-0.000161622
0.000109297
-0.000205854
9.60143e-05
-0.000263967
6.47396e-05
-0.000317471
-0.000266779
0.000137216
-1.15348e-06
0.000137159
-1.13652e-06
0.000137104
-1.12004e-06
0.000137049
-1.10408e-06
0.000136994
-1.08866e-06
0.000136941
-1.0738e-06
0.000136888
-1.05955e-06
0.000136836
-1.04594e-06
0.000136785
-1.03303e-06
0.000136734
-1.0209e-06
0.000136684
-1.00961e-06
0.000136635
-9.99257e-07
0.000136586
-9.89962e-07
0.000136537
-9.81854e-07
0.000136489
-9.75093e-07
0.000136442
-9.69867e-07
0.000136395
-9.66399e-07
0.000136348
-9.64954e-07
0.000136301
-9.65844e-07
0.000136255
-9.69438e-07
0.000136208
-9.76173e-07
0.000136161
-9.86564e-07
0.000136114
-1.00122e-06
0.000136067
-1.02086e-06
0.000136019
-1.04634e-06
0.000135971
-1.07865e-06
0.000135921
-1.11898e-06
0.00013587
-1.16872e-06
0.000135817
-1.22954e-06
0.000135762
-1.30337e-06
0.000135704
-1.39253e-06
0.000135644
-1.49973e-06
0.000135579
-1.6282e-06
0.00013551
-1.78176e-06
0.000135435
-1.96492e-06
0.000135354
-2.18303e-06
0.000135264
-2.44243e-06
0.000135166
-2.75064e-06
0.000135056
-3.11661e-06
0.000134933
-3.55099e-06
0.000134794
-4.06644e-06
0.000134636
-4.67808e-06
0.000134457
-5.40401e-06
0.000134251
-6.26587e-06
0.000134014
-7.28971e-06
0.000133741
-8.50688e-06
0.000133425
-9.95531e-06
0.000133058
-1.1681e-05
0.00013263
-1.37402e-05
0.000132131
-1.62018e-05
0.000131546
-1.91507e-05
0.00013086
-2.26929e-05
0.000130051
-2.6961e-05
0.000129097
-3.21237e-05
0.000127966
-3.83971e-05
0.000126618
-4.60633e-05
0.000125001
-5.54959e-05
0.000123043
-6.72015e-05
0.000120638
-8.18783e-05
0.00011761
-0.000100526
0.000113644
0.000108043
9.92027e-05
8.25235e-05
4.99236e-05
0.00013519
0.000135131
0.000135072
0.000135014
0.000134957
0.0001349
0.000134845
0.00013479
0.000134736
0.000134682
0.00013463
0.000134577
0.000134526
0.000134475
0.000134424
0.000134374
0.000134324
0.000134275
0.000134225
0.000134176
0.000134127
0.000134078
0.000134028
0.000133978
0.000133927
0.000133875
0.000133822
0.000133767
0.00013371
0.000133651
0.000133589
0.000133523
0.000133453
0.000133378
0.000133297
0.000133208
0.00013311
0.000133001
0.00013288
0.000132743
0.000132589
0.000132414
0.000132214
0.000131984
0.000131719
0.000131412
0.000131056
0.000130642
0.000130157
0.00012959
0.000128923
0.000128137
0.000127208
0.000126105
0.000124789
0.000123211
0.000121301
0.000118966
0.000116064
)
;

boundaryField
{
    inlet
    {
        type            calculated;
        value           nonuniform 0();
    }
    outlet
    {
        type            calculated;
        value           nonuniform 0();
    }
    wall
    {
        type            calculated;
        value           uniform 0;
    }
    wedge1
    {
        type            wedge;
        value           nonuniform List<scalar> 
344
(
1.40316e-17
1.38522e-17
1.37214e-17
1.35561e-17
1.33649e-17
1.31938e-17
1.30288e-17
1.29057e-17
1.27542e-17
1.26572e-17
1.25321e-17
1.24551e-17
1.23616e-17
1.22577e-17
1.21566e-17
1.21165e-17
1.20684e-17
1.20716e-17
1.20683e-17
1.21363e-17
1.21987e-17
1.22896e-17
1.24214e-17
1.2639e-17
1.28803e-17
1.32338e-17
1.36385e-17
1.41715e-17
1.48003e-17
1.55418e-17
1.64289e-17
1.75037e-17
1.88577e-17
2.04316e-17
2.23666e-17
2.46325e-17
2.73635e-17
3.05845e-17
3.4412e-17
3.89492e-17
4.43794e-17
5.08005e-17
5.84692e-17
6.75488e-17
7.83896e-17
9.12491e-17
1.06552e-16
1.24757e-16
1.46496e-16
1.72454e-16
2.03544e-16
2.40763e-16
2.85549e-16
3.39538e-16
3.02633e-15
4.04909e-16
3.60625e-15
4.8449e-16
4.31071e-15
5.81981e-16
5.17162e-15
7.02438e-16
6.23112e-15
8.5274e-16
7.54731e-15
1.0431e-15
9.19723e-15
1.28827e-15
1.12998e-14
1.61334e-15
1.39682e-14
2.05451e-15
1.75691e-14
2.6899e-15
2.13928e-14
3.51918e-15
2.99495e-14
4.55981e-15
-5.29286e-17
-4.96819e-17
1.92336e-16
-4.31956e-17
-5.21397e-17
-4.89498e-17
1.89501e-16
-4.2557e-17
-5.13552e-17
-4.82028e-17
1.86788e-16
-4.19021e-17
-5.06146e-17
-4.75075e-17
1.84122e-16
-4.13039e-17
-4.99e-17
-4.68463e-17
1.81542e-16
-4.07233e-17
-4.92118e-17
-4.62028e-17
1.79051e-16
-4.01739e-17
-4.8552e-17
-4.55868e-17
1.76664e-16
-3.96416e-17
-4.78965e-17
-4.49616e-17
1.74419e-16
-3.90951e-17
-4.72923e-17
-4.44057e-17
1.72251e-16
-3.86092e-17
-4.67037e-17
-4.38444e-17
1.70243e-16
-3.81236e-17
-4.61686e-17
-4.33523e-17
1.68339e-16
-3.76986e-17
-4.56561e-17
-4.28675e-17
1.66622e-16
-3.7281e-17
-4.52075e-17
-4.24575e-17
1.65049e-16
-3.6924e-17
-4.48169e-17
-4.20964e-17
1.63665e-16
-3.6623e-17
-4.44883e-17
-4.1797e-17
1.62496e-16
-3.63745e-17
-4.41994e-17
-4.15249e-17
1.61613e-16
-3.61472e-17
-4.40068e-17
-4.13597e-17
1.60982e-16
-3.6012e-17
-4.38871e-17
-4.12494e-17
1.60711e-16
-3.59299e-17
-4.38787e-17
-4.12615e-17
1.60789e-16
-3.59583e-17
-4.39715e-17
-4.1356e-17
1.61339e-16
-3.60586e-17
-4.42156e-17
-4.16106e-17
1.62367e-16
-3.63006e-17
-4.46205e-17
-4.20135e-17
1.63988e-16
-3.66881e-17
-4.52146e-17
-4.25993e-17
1.66292e-16
-3.72396e-17
-4.59982e-17
-4.33578e-17
1.69441e-16
-3.79415e-17
-4.70486e-17
-4.43876e-17
1.73505e-16
-3.88823e-17
-4.8378e-17
-4.56688e-17
1.78706e-16
-4.00561e-17
-5.00669e-17
-4.73125e-17
1.85175e-16
-4.15548e-17
-5.21421e-17
-4.93103e-17
1.93205e-16
-4.33723e-17
-5.47087e-17
-5.17896e-17
2.02996e-16
-4.56345e-17
-5.78314e-17
-5.48143e-17
2.14898e-16
-4.83749e-17
-6.16207e-17
-5.84686e-17
2.29277e-16
-5.16954e-17
-6.6181e-17
-6.2867e-17
2.4658e-16
-5.56879e-17
-7.16274e-17
-6.81074e-17
2.67364e-16
-6.04367e-17
-7.81652e-17
-7.441e-17
2.92184e-16
-6.61408e-17
-8.59497e-17
-8.18982e-17
3.21831e-16
-7.2921e-17
-9.52491e-17
-9.08577e-17
3.57105e-16
-8.10306e-17
-1.06295e-16
-1.01481e-16
3.99105e-16
-9.06434e-17
-1.19442e-16
-1.14139e-16
4.48984e-16
-1.02096e-16
-1.35064e-16
-1.29174e-16
5.08214e-16
-1.15708e-16
-1.53612e-16
-1.47025e-16
5.78516e-16
-1.31866e-16
-1.75599e-16
-1.68173e-16
6.61979e-16
-1.51006e-16
-2.01708e-16
-1.93301e-16
7.60985e-16
-1.73747e-16
-2.32675e-16
-2.23091e-16
8.78514e-16
-2.00713e-16
-2.69447e-16
-2.58484e-16
1.01801e-15
-2.32761e-16
-3.13097e-16
-3.0049e-16
1.18373e-15
-2.70802e-16
-3.64983e-16
-3.50443e-16
1.38069e-15
-3.16055e-16
-4.26696e-16
-4.09868e-16
1.61501e-15
-3.69918e-16
-5.00178e-16
-4.80642e-16
1.89412e-15
-4.34089e-16
-5.87763e-16
-5.65019e-16
2.22711e-15
-5.10617e-16
-6.92376e-16
-6.65853e-16
2.625e-15
-6.02114e-16
-8.17549e-16
-7.86544e-16
3.10151e-15
-7.11683e-16
-9.6774e-16
-9.3144e-16
3.6736e-15
-8.4329e-16
-1.14844e-15
-1.10586e-15
4.36263e-15
-1.00178e-15
-1.36672e-15
-1.31668e-15
5.19556e-15
-1.19344e-15
-1.63153e-15
-1.57263e-15
6.20707e-15
-1.42618e-15
-1.9546e-15
-1.88511e-15
7.4423e-15
-1.71035e-15
-2.35147e-15
-2.26927e-15
8.96104e-15
-2.05958e-15
-2.84331e-15
-2.74571e-15
1.08444e-14
-2.49223e-15
-3.45962e-15
-3.34312e-15
1.32044e-14
-3.03348e-15
-4.24365e-15
-4.10326e-15
1.62019e-14
-3.71863e-15
-5.25921e-15
-5.08712e-15
2.00666e-14
-6.61185e-15
-6.39195e-15
2.51423e-14
-8.45056e-15
-8.14422e-15
3.18111e-14
-1.10212e-14
-1.04854e-14
4.01683e-14
-1.3946e-14
-1.27628e-14
4.67796e-14
-1.31903e-14
-1.08026e-14
3.58822e-14
2.01282e-14
2.27736e-15
1.14014e-14
7.60523e-16
6.24104e-15
2.26648e-16
3.17302e-15
4.65444e-17
)
;
    }
    wedge2
    {
        type            wedge;
        value           nonuniform List<scalar> 
344
(
1.42318e-17
1.3993e-17
1.3717e-17
1.34871e-17
1.32954e-17
1.30965e-17
1.29051e-17
1.26861e-17
1.25111e-17
1.22985e-17
1.21325e-17
1.19387e-17
1.17843e-17
1.16657e-17
1.1573e-17
1.14518e-17
1.13759e-17
1.12912e-17
1.12622e-17
1.12187e-17
1.12464e-17
1.1322e-17
1.14457e-17
1.15877e-17
1.18275e-17
1.20975e-17
1.24836e-17
1.29377e-17
1.35268e-17
1.42751e-17
1.5198e-17
1.63107e-17
1.759e-17
1.91758e-17
2.10223e-17
2.32737e-17
2.59304e-17
2.91281e-17
3.29407e-17
3.74917e-17
4.28678e-17
4.92934e-17
5.68957e-17
6.59703e-17
7.67176e-17
8.95407e-17
1.0481e-16
1.23028e-16
1.44732e-16
1.70658e-16
2.01643e-16
2.38852e-16
2.83543e-16
3.37481e-16
3.02464e-15
4.02822e-16
3.6045e-15
4.82366e-16
4.3089e-15
5.79823e-16
5.16971e-15
7.00181e-16
6.22914e-15
8.50431e-16
7.54519e-15
1.04062e-15
9.19499e-15
1.28569e-15
1.12974e-14
1.61054e-15
1.39655e-14
2.05156e-15
1.75663e-14
2.68692e-15
2.13898e-14
3.51642e-15
2.99467e-14
4.55786e-15
-5.29849e-17
-4.9798e-17
1.9215e-16
-4.3442e-17
-5.22127e-17
-4.90644e-17
1.8932e-16
-4.28046e-17
-5.14802e-17
-4.83875e-17
1.86532e-16
-4.22206e-17
-5.07496e-17
-4.77024e-17
1.83866e-16
-4.16182e-17
-5.00407e-17
-4.70283e-17
1.81291e-16
-4.10384e-17
-4.93556e-17
-4.63844e-17
1.78812e-16
-4.04697e-17
-4.86955e-17
-4.57637e-17
1.76428e-16
-3.99289e-17
-4.80881e-17
-4.52067e-17
1.74114e-16
-3.94509e-17
-4.74913e-17
-4.46391e-17
1.71954e-16
-3.89646e-17
-4.69463e-17
-4.41413e-17
1.69885e-16
-3.85354e-17
-4.64218e-17
-4.3645e-17
1.67988e-16
-3.81088e-17
-4.59568e-17
-4.32198e-17
1.66212e-16
-3.7745e-17
-4.55196e-17
-4.28076e-17
1.64636e-16
-3.73991e-17
-4.51276e-17
-4.24452e-17
1.63257e-16
-3.70858e-17
-4.47902e-17
-4.21328e-17
1.62102e-16
-3.68202e-17
-4.4546e-17
-4.19202e-17
1.61161e-16
-3.66477e-17
-4.43571e-17
-4.17465e-17
1.60539e-16
-3.65139e-17
-4.42699e-17
-4.16851e-17
1.60214e-16
-3.64776e-17
-4.42726e-17
-4.16943e-17
1.60298e-16
-3.65045e-17
-4.44066e-17
-4.18445e-17
1.60789e-16
-3.66606e-17
-4.46595e-17
-4.20938e-17
1.6182e-16
-3.69087e-17
-4.50657e-17
-4.24965e-17
1.63445e-16
-3.72831e-17
-4.56488e-17
-4.30682e-17
1.6577e-16
-3.78107e-17
-4.647e-17
-4.3878e-17
1.68867e-16
-3.85585e-17
-4.75249e-17
-4.48972e-17
1.72939e-16
-3.95012e-17
-4.88867e-17
-4.62282e-17
1.7809e-16
-4.0719e-17
-5.05762e-17
-4.78572e-17
1.84574e-16
-4.22081e-17
-5.26863e-17
-4.99076e-17
1.92548e-16
-4.40785e-17
-5.5253e-17
-5.23878e-17
2.0235e-16
-4.6327e-17
-5.83785e-17
-5.53944e-17
2.14259e-16
-4.90651e-17
-6.21494e-17
-5.90326e-17
2.28658e-16
-5.23624e-17
-6.66944e-17
-6.34121e-17
2.45983e-16
-5.63296e-17
-7.2174e-17
-6.87001e-17
2.6672e-16
-6.11219e-17
-7.87089e-17
-7.49896e-17
2.9155e-16
-6.68241e-17
-8.65297e-17
-8.25286e-17
3.21145e-16
-7.36511e-17
-9.58254e-17
-9.1471e-17
3.56438e-16
-8.17476e-17
-1.06906e-16
-1.02145e-16
3.98384e-16
-9.14115e-17
-1.20059e-16
-1.14799e-16
4.48268e-16
-1.02866e-16
-1.35676e-16
-1.29824e-16
5.07511e-16
-1.16458e-16
-1.5421e-16
-1.47655e-16
5.77836e-16
-1.3259e-16
-1.76228e-16
-1.68849e-16
6.61253e-16
-1.51772e-16
-2.02335e-16
-1.93963e-16
7.60271e-16
-1.74507e-16
-2.33329e-16
-2.23798e-16
8.77755e-16
-2.01518e-16
-2.70105e-16
-2.59183e-16
1.01726e-15
-2.33557e-16
-3.13793e-16
-3.01238e-16
1.18293e-15
-2.7165e-16
-3.65687e-16
-3.5119e-16
1.37989e-15
-3.16908e-16
-4.27399e-16
-4.10609e-16
1.61422e-15
-3.7075e-16
-5.00867e-16
-4.81369e-16
1.89335e-15
-4.34899e-16
-5.88482e-16
-5.65789e-16
2.22629e-15
-5.1147e-16
-6.931e-16
-6.66616e-16
2.62419e-15
-6.02964e-16
-8.18312e-16
-7.87355e-16
3.10065e-15
-7.12578e-16
-9.68503e-16
-9.32242e-16
3.67275e-15
-8.44176e-16
-1.14925e-15
-1.10672e-15
4.36173e-15
-1.00272e-15
-1.36753e-15
-1.31754e-15
5.19466e-15
-1.19437e-15
-1.63234e-15
-1.57348e-15
6.20618e-15
-1.4271e-15
-1.95541e-15
-1.88596e-15
7.44142e-15
-1.71126e-15
-2.35229e-15
-2.27012e-15
8.96017e-15
-2.06048e-15
-2.84418e-15
-2.74662e-15
1.08435e-14
-2.49319e-15
-3.46051e-15
-3.34404e-15
1.32034e-14
-3.03444e-15
-4.2446e-15
-4.10424e-15
1.62008e-14
-3.71966e-15
-5.26019e-15
-5.08812e-15
2.00655e-14
-6.6129e-15
-6.39303e-15
2.51412e-14
-8.45163e-15
-8.1453e-15
3.181e-14
-1.10222e-14
-1.04864e-14
4.01674e-14
-1.39468e-14
-1.27636e-14
4.67788e-14
-1.31907e-14
-1.0803e-14
3.58819e-14
2.01257e-14
2.27613e-15
1.13992e-14
7.59665e-16
6.23913e-15
2.25988e-16
3.17132e-15
4.59806e-17
)
;
    }
    axis
    {
        type            empty;
        value           nonuniform 0();
    }
    procBoundary20to14
    {
        type            processor;
        value           nonuniform List<scalar> 
71
(
4.18698e-05
4.98049e-05
5.94035e-05
7.10664e-05
8.53045e-05
0.000102783
0.000124281
0.000150852
0.000182557
0.000221939
0.000254891
0.000322163
1.43741e-06
1.41629e-06
1.39576e-06
1.37584e-06
1.35655e-06
1.33793e-06
1.32003e-06
1.30288e-06
1.28655e-06
1.27111e-06
1.25666e-06
1.2433e-06
1.23116e-06
1.22038e-06
1.21114e-06
1.20367e-06
1.1982e-06
1.19504e-06
1.19454e-06
1.19712e-06
1.20326e-06
1.21355e-06
1.22868e-06
1.24945e-06
1.27683e-06
1.31193e-06
1.3561e-06
1.41091e-06
1.47822e-06
1.56021e-06
1.65948e-06
1.77909e-06
1.92266e-06
2.09445e-06
2.29954e-06
2.54389e-06
2.83459e-06
3.18004e-06
3.59018e-06
4.07684e-06
4.65405e-06
5.33853e-06
6.15019e-06
7.11284e-06
8.25492e-06
9.61063e-06
1.12211e-05
1.31359e-05
1.54153e-05
1.81328e-05
2.13783e-05
2.52629e-05
2.99249e-05
-0.00041167
3.55379e-05
0.000238133
0.000151664
9.66511e-05
5.94893e-05
)
;
    }
    procBoundary20to15
    {
        type            processor;
        value           uniform 0.000459502;
    }
    procBoundary20to19
    {
        type            processor;
        value           nonuniform List<scalar> 5(-0.000412754 -0.000140358 -0.000138973 -0.000137274 -0.000135251);
    }
    procBoundary20to21
    {
        type            processor;
        value           uniform 0.000151375;
    }
    procBoundary20to26
    {
        type            processor;
        value           nonuniform List<scalar> 
67
(
-0.000124554
-0.00015602
-0.000197014
-0.000247288
-0.000284871
-0.000216856
-1.09287e-06
-1.0768e-06
-1.06121e-06
-1.0461e-06
-1.0315e-06
-1.01745e-06
-1.00397e-06
-9.91108e-07
-9.78922e-07
-9.67473e-07
-9.56836e-07
-9.47103e-07
-9.38383e-07
-9.30803e-07
-9.24519e-07
-9.19711e-07
-9.16595e-07
-9.15427e-07
-9.16506e-07
-9.20191e-07
-9.26901e-07
-9.37135e-07
-9.5148e-07
-9.70629e-07
-9.95401e-07
-1.02676e-06
-1.06586e-06
-1.11404e-06
-1.17289e-06
-1.24429e-06
-1.33048e-06
-1.43408e-06
-1.55819e-06
-1.70651e-06
-1.88339e-06
-2.09399e-06
-2.34444e-06
-2.64201e-06
-2.99533e-06
-3.41469e-06
-3.91233e-06
-4.50286e-06
-5.20377e-06
-6.036e-06
-7.02471e-06
-8.20025e-06
-9.59929e-06
-1.12664e-05
-1.32558e-05
-1.56343e-05
-1.84839e-05
-2.1907e-05
-2.60318e-05
-3.10206e-05
-3.70815e-05
-4.44847e-05
-5.35866e-05
-6.48663e-05
-7.89765e-05
0.000112367
-9.68283e-05
)
;
    }
}


// ************************************************************************* //
