/*--------------------------------*- C++ -*----------------------------------*\
  =========                 |
  \\      /  F ield         | OpenFOAM: The Open Source CFD Toolbox
   \\    /   O peration     | Website:  https://openfoam.org
    \\  /    A nd           | Version:  7
     \\/     M anipulation  |
\*---------------------------------------------------------------------------*/
FoamFile
{
    version     2.0;
    format      ascii;
    class       surfaceScalarField;
    location    "24.000396";
    object      phi;
}
// * * * * * * * * * * * * * * * * * * * * * * * * * * * * * * * * * * * * * //

dimensions      [0 3 -1 0 0 0 0];

internalField   nonuniform List<scalar> 
46020
(
-1.97284e-06
1.97284e-06
4.22338e-13
-7.25809e-06
5.28525e-06
9.66016e-13
-1.54784e-05
8.22032e-06
1.44714e-12
-2.61992e-05
1.07208e-05
1.90578e-12
-3.89191e-05
1.27199e-05
2.35425e-12
-5.30685e-05
1.41494e-05
2.78842e-12
-6.80049e-05
1.49363e-05
3.21503e-12
-8.3005e-05
1.50002e-05
3.65876e-12
-9.72562e-05
1.42512e-05
4.14057e-12
-0.000109844
1.25874e-05
4.64342e-12
-0.000119737
9.89306e-06
5.10921e-12
-0.000125775
6.0388e-06
5.55803e-12
-0.000126662
8.86298e-07
5.96232e-12
-0.000120966
-5.69557e-06
6.10789e-12
-0.000107166
-1.38005e-05
5.95528e-12
-8.3745e-05
-2.34207e-05
5.41078e-12
-4.94101e-05
-3.4335e-05
4.18484e-12
-3.48018e-06
-4.59299e-05
2.05122e-12
5.37145e-05
-5.71947e-05
-1.2254e-12
-6.62208e-05
-5.92892e-12
0.000119935
-1.93427e-06
3.90711e-06
-7.10619e-06
1.04572e-05
-1.51333e-05
1.62474e-05
-2.5574e-05
2.11615e-05
-3.79184e-05
2.50644e-05
-5.15864e-05
2.78174e-05
-6.59224e-05
2.92724e-05
-8.01883e-05
2.92661e-05
-9.35533e-05
2.76161e-05
-0.000105082
2.41156e-05
-0.000113718
1.85297e-05
-0.000118275
1.05954e-05
-0.000117419
3.02557e-08
-0.00010968
-1.34341e-05
-9.3484e-05
-2.99967e-05
-6.72484e-05
-4.96562e-05
-2.95928e-05
-7.19906e-05
2.02691e-05
-9.57918e-05
8.21007e-05
-0.000119026
-0.00013789
0.00015377
-1.85777e-06
5.76488e-06
-6.80473e-06
1.54041e-05
-1.44479e-05
2.38906e-05
-2.4332e-05
3.10456e-05
-3.59299e-05
3.66622e-05
-4.864e-05
4.05276e-05
-6.17816e-05
4.24139e-05
-7.45859e-05
4.20704e-05
-8.61865e-05
3.92166e-05
-9.56058e-05
3.3535e-05
-0.00010174
2.46642e-05
-0.000103345
1.21997e-05
-9.90205e-05
-4.29395e-06
-8.72144e-05
-2.52402e-05
-6.62511e-05
-5.096e-05
-3.44182e-05
-8.14891e-05
9.83482e-06
-0.000116244
6.75001e-05
-0.000153457
0.000138537
-0.000190063
-0.000220357
0.000221004
-1.7446e-06
7.50948e-06
-6.35825e-06
2.00178e-05
-1.34321e-05
3.09644e-05
-2.24898e-05
4.01034e-05
-3.29784e-05
4.71508e-05
-4.42647e-05
5.18138e-05
-5.56294e-05
5.37786e-05
-6.62587e-05
5.26997e-05
-7.52327e-05
4.81906e-05
-8.15118e-05
3.9814e-05
-8.39201e-05
2.70726e-05
-8.11282e-05
9.40785e-06
-7.16384e-05
-1.37837e-05
-5.3779e-05
-4.30996e-05
-2.57261e-05
-7.90129e-05
1.44226e-05
-0.000121638
6.84622e-05
-0.000170283
0.00013769
-0.000222685
0.000222353
-0.000274727
-0.000318781
0.000320777
-1.59658e-06
9.10606e-06
-5.77333e-06
2.41945e-05
-1.20996e-05
3.72907e-05
-2.00713e-05
4.80751e-05
-2.91004e-05
5.61799e-05
-3.85114e-05
6.12249e-05
-4.75346e-05
6.28018e-05
-5.52957e-05
6.04608e-05
-6.08044e-05
5.36994e-05
-6.29391e-05
4.19486e-05
-6.04287e-05
2.45622e-05
-5.18337e-05
8.12815e-07
-3.55275e-05
-3.00899e-05
-9.68479e-06
-6.89423e-05
2.77071e-05
-0.000116405
7.87912e-05
-0.000172722
0.000145679
-0.000237171
0.000230056
-0.000307062
0.000332546
-0.000377217
-0.000438039
0.000451804
-1.416e-06
1.05221e-05
-5.05826e-06
2.78368e-05
-1.04684e-05
4.27008e-05
-1.71067e-05
5.47134e-05
-2.43418e-05
6.34149e-05
-3.14454e-05
6.83285e-05
-3.75845e-05
6.89409e-05
-4.18106e-05
6.46869e-05
-4.30459e-05
5.49347e-05
-4.00675e-05
3.89703e-05
-3.14876e-05
1.59823e-05
-1.57323e-05
-1.49425e-05
8.98128e-06
-5.48035e-05
4.46617e-05
-0.000104623
9.35458e-05
-0.000165289
0.000158059
-0.000237235
0.000240681
-0.000319793
0.000343562
-0.000409942
0.00046778
-0.000501435
-0.000582625
0.000612367
-1.20552e-06
1.17276e-05
-4.22268e-06
3.08539e-05
-8.55893e-06
4.70371e-05
-1.36316e-05
5.97861e-05
-1.87568e-05
6.85401e-05
-2.31433e-05
7.27149e-05
-2.58828e-05
7.16805e-05
-2.59384e-05
6.47424e-05
-2.21291e-05
5.11254e-05
-1.31124e-05
2.99536e-05
2.63675e-06
2.33099e-07
2.68484e-05
-3.91541e-05
6.14856e-05
-8.94407e-05
0.000108766
-0.000151903
0.000171175
-0.000227698
0.000251449
-0.00031751
0.000352474
-0.000420818
0.000476921
-0.000534389
0.000626391
-0.000650905
-0.000756551
0.000800317
-9.68027e-07
1.26956e-05
-3.27718e-06
3.31631e-05
-6.39399e-06
5.01539e-05
-9.68509e-06
6.30772e-05
-1.24054e-05
7.12605e-05
-1.36905e-05
7.4e-05
-1.25454e-05
7.05354e-05
-7.83111e-06
6.00282e-05
1.75163e-06
4.15426e-05
1.76815e-05
1.40237e-05
4.16386e-05
-2.3724e-05
7.55308e-05
-7.30463e-05
0.000121519
-0.000135429
0.000182049
-0.000212432
0.000259871
-0.00030552
0.000358047
-0.000415686
0.000479882
-0.000542652
0.0006286
-0.000683107
0.000806381
-0.000828686
-0.00096324
0.00101307
-7.06536e-07
1.34021e-05
-2.23281e-06
3.46894e-05
-3.99743e-06
5.19185e-05
-5.30862e-06
6.43884e-05
-5.35145e-06
7.13033e-05
-3.17838e-06
7.18269e-05
2.30332e-06
6.50537e-05
1.23469e-05
4.99846e-05
2.8384e-05
2.55056e-05
5.20449e-05
-9.63715e-06
8.51815e-05
-5.68606e-05
0.000129894
-0.000117759
0.000188558
-0.000194093
0.000263856
-0.000287731
0.000358811
-0.000400475
0.000476804
-0.000533679
0.000621548
-0.000687396
0.000796822
-0.000858381
0.00100542
-0.00103728
-0.0012054
0.00124758
-4.2403e-07
1.38262e-05
-1.10066e-06
3.5366e-05
-1.39328e-06
5.22111e-05
-5.44149e-07
6.35392e-05
2.33996e-06
6.84192e-05
8.299e-06
6.58679e-05
1.85339e-05
5.48188e-05
3.44236e-05
3.40948e-05
5.75445e-05
2.38472e-06
8.96914e-05
-4.17841e-05
0.000132901
-0.000100071
0.000189479
-0.000174337
0.000262024
-0.000266638
0.000353461
-0.000379167
0.000467074
-0.000514088
0.000606541
-0.000673146
0.000775941
-0.000856796
0.000979567
-0.00106201
0.00122083
-0.00127855
-0.0014849
0.00150034
-1.23363e-07
1.39495e-05
1.08901e-07
3.51337e-05
1.39493e-06
5.09251e-05
4.56686e-06
6.03673e-05
1.06042e-05
6.23819e-05
2.06477e-05
5.58244e-05
3.60159e-05
3.94506e-05
5.82236e-05
1.18872e-05
8.90021e-05
-2.83938e-05
0.000130322
-8.31038e-05
0.000184414
-0.000154163
0.000253797
-0.000243719
0.000341294
-0.000354135
0.000450067
-0.00048794
0.00058364
-0.000647661
0.000745943
-0.000835449
0.000941348
-0.0010522
0.00117457
-0.00129523
0.00144963
-0.0015536
-0.00180266
0.00176738
1.92874e-07
1.37567e-05
1.38516e-06
3.39414e-05
4.3453e-06
4.7965e-05
9.98556e-06
5.4727e-05
1.93793e-05
5.29881e-05
3.37764e-05
4.14273e-05
5.46209e-05
1.86061e-05
8.35716e-05
-1.70635e-05
0.000122523
-6.73456e-05
0.000173629
-0.000134209
0.00023932
-0.000219855
0.000322328
-0.000326727
0.000425698
-0.000457506
0.000552809
-0.000615051
0.000707392
-0.000802244
0.000893563
-0.00102162
0.00111588
-0.00127452
0.00137934
-0.0015587
0.00168848
-0.00186274
-0.00215848
0.0020443
5.22441e-07
1.32342e-05
2.7204e-06
3.17435e-05
7.43822e-06
4.32471e-05
1.56759e-05
4.64893e-05
2.86075e-05
4.00565e-05
4.75982e-05
2.24366e-05
7.42246e-05
-8.02025e-06
0.000110295
-5.31344e-05
0.000157874
-0.000114924
0.0002193
-0.000195635
0.000297204
-0.000297759
0.000394526
-0.000424048
0.000514519
-0.000577498
0.000660751
-0.000761284
0.000837108
-0.000978602
0.00104781
-0.00123232
0.00129745
-0.00152416
0.00159112
-0.00185237
0.00193375
-0.00220536
-0.00255101
0.00232627
8.63549e-07
1.23707e-05
4.10676e-06
2.85003e-05
1.06564e-05
3.66975e-05
2.1606e-05
3.55397e-05
3.82358e-05
2.34267e-05
6.20322e-05
-1.35978e-06
9.47086e-05
-4.06966e-05
0.000138228
-9.66536e-05
0.000194823
-0.00017152
0.000267018
-0.00026783
0.000357638
-0.000388379
0.000469817
-0.000536227
0.000606991
-0.000714672
0.000772879
-0.000927171
0.000971454
-0.00117718
0.00120693
-0.00146779
0.00148379
-0.00180101
0.00180695
-0.00217553
0.00218154
-0.00257995
-0.00297759
0.00260812
1.2148e-06
1.11559e-05
5.53835e-06
2.41767e-05
1.39853e-05
2.82506e-05
2.77478e-05
2.17773e-05
4.82169e-05
2.95759e-06
7.70035e-05
-3.01464e-05
0.000115961
-7.96538e-05
0.000167206
-0.000147899
0.000233139
-0.000237454
0.000316462
-0.000351152
0.000420179
-0.000492096
0.000547596
-0.000663645
0.000702296
-0.000869372
0.000888093
-0.00111297
0.00110897
-0.00139806
0.00136902
-0.00172785
0.00167242
-0.00210441
0.00202365
-0.00252676
0.00242775
-0.00298406
-0.00343427
0.00288443
1.57524e-06
9.58064e-06
7.01063e-06
1.87413e-05
1.74132e-05
1.7848e-05
3.40775e-05
5.113e-06
5.85083e-05
-2.14733e-05
9.24432e-05
-6.40813e-05
0.000137874
-0.000125085
0.00019707
-0.000207094
0.000272591
-0.000312975
0.0003673
-0.000445862
0.000484362
-0.000609157
0.000627218
-0.000806501
0.000799549
-0.0010417
0.0010052
-0.00131862
0.00124807
-0.00164093
0.00153201
-0.00201178
0.00186069
-0.0024331
0.00223788
-0.00290395
0.00266817
-0.00341434
-0.00391579
0.00314969
1.94435e-06
7.63629e-06
8.52035e-06
1.21653e-05
2.09307e-05
5.43761e-06
4.05747e-05
-1.4531e-05
6.90722e-05
-4.99708e-05
0.000108286
-0.000103296
0.000160346
-0.000177144
0.000227661
-0.00027441
0.000312941
-0.000398255
0.00041919
-0.000552111
0.000549696
-0.000739663
0.000707993
-0.000964798
0.000897796
-0.00123151
0.0011229
-0.00154372
0.00138702
-0.00190505
0.00169363
-0.0023184
0.00204576
-0.00278523
0.00244618
-0.00330437
0.00289855
-0.00386671
-0.00441593
0.00339869
2.3219e-06
5.31438e-06
1.00653e-05
4.42198e-06
2.45302e-05
-9.02735e-06
4.72215e-05
-3.72222e-05
7.98732e-05
-8.26225e-05
0.000124471
-0.000147893
0.000183272
-0.000235945
0.000258819
-0.000349957
0.000353945
-0.000493381
0.000471769
-0.000669934
0.000615657
-0.000883552
0.000789178
-0.00113832
0.000996002
-0.00143833
0.00123978
-0.00178749
0.00152394
-0.00218921
0.00185149
-0.00264595
0.00222469
-0.00315843
0.00264512
-0.00372481
0.00311463
-0.00433621
-0.00492892
0.00362761
2.70791e-06
2.60647e-06
1.16438e-05
-4.51386e-06
2.82052e-05
-2.55888e-05
5.40012e-05
-6.30182e-05
9.08767e-05
-0.000119498
0.000140933
-0.00019795
0.000206546
-0.000301557
0.000290371
-0.000433781
0.000395341
-0.000598352
0.000524645
-0.000799238
0.000681679
-0.00104059
0.000869966
-0.00132661
0.00109305
-0.00166141
0.00135431
-0.00204875
0.0016568
-0.00249171
0.002003
-0.00299214
0.00239448
-0.00354991
0.00283183
-0.00416216
0.00331366
-0.00481804
-0.00544655
0.00383129
3.10249e-06
-4.9602e-07
1.32544e-05
-1.46658e-05
3.19492e-05
-4.42836e-05
6.08966e-05
-9.19656e-05
0.000102047
-0.000160648
0.000157607
-0.00025351
0.000230054
-0.000374005
0.000322134
-0.000525861
0.000436845
-0.000713063
0.000577398
-0.000939791
0.000747148
-0.00121034
0.000949492
-0.00152895
0.00118772
-0.00189964
0.00146486
-0.00232589
0.00178343
-0.00281028
0.00214534
-0.00335405
0.00255175
-0.00395633
0.00300324
-0.00461364
0.00349657
-0.00531137
-0.00597311
0.00402313
3.50569e-06
-4.00171e-06
1.48956e-05
-2.60556e-05
3.57549e-05
-6.51429e-05
6.78885e-05
-0.000124099
0.000113342
-0.000206102
0.000174416
-0.000314584
0.000253668
-0.000453257
0.000353905
-0.000626098
0.000478146
-0.000837304
0.000629567
-0.00109121
0.000811405
-0.00139217
0.00102683
-0.00174437
0.00127876
-0.00215158
0.00156971
-0.00261683
0.00190154
-0.00314211
0.00227539
-0.0037279
0.00269189
-0.00437283
0.00315197
-0.00507372
0.00366459
-0.00582399
-0.00661064
0.00430212
3.91744e-06
-7.91916e-06
1.65647e-05
-3.87029e-05
3.9613e-05
-8.81912e-05
7.49538e-05
-0.00015944
0.000124717
-0.000255864
0.000191276
-0.000381144
0.000277247
-0.000539228
0.000385459
-0.000734309
0.000518903
-0.000970748
0.000680654
-0.00125296
0.000873744
-0.00158526
0.001101
-0.00197163
0.00136487
-0.00241544
0.00166716
-0.00291913
0.0020089
-0.00348385
0.00239023
-0.00410923
0.00281059
-0.00479318
0.00326942
-0.00553256
0.00376966
-0.00632422
-0.00717155
0.00433056
4.3373e-06
-1.22565e-05
1.82582e-05
-5.26238e-05
4.35114e-05
-0.000113444
8.20639e-05
-0.000197993
0.000136114
-0.000309914
0.000208088
-0.000453118
0.000300628
-0.000631767
0.000416543
-0.000850224
0.000558741
-0.00111295
0.000730121
-0.00142434
0.00093342
-0.00178856
0.00117102
-0.00220924
0.00144475
-0.00268916
0.0017556
-0.00322998
0.0021036
-0.00383185
0.00248767
-0.0044933
0.00290576
-0.00521127
0.00335503
-0.00598183
0.00383239
-0.00680158
-0.00767844
0.00433929
4.7644e-06
-1.70209e-05
1.99705e-05
-6.78299e-05
4.7434e-05
-0.000140908
8.91836e-05
-0.000239742
0.000147467
-0.000368197
0.000224738
-0.000530389
0.000323626
-0.000730656
0.000446877
-0.000973474
0.000597253
-0.00126332
0.000777398
-0.00160449
0.000989663
-0.00200083
0.00123588
-0.00245546
0.00151714
-0.00297042
0.00183354
-0.00354637
0.002184
-0.00418231
0.0025662
-0.0048755
0.00297661
-0.00562169
0.00341057
-0.00641578
0.00386203
-0.00725304
-0.00814045
0.00432403
5.19735e-06
-2.22182e-05
2.16944e-05
-8.43269e-05
5.13607e-05
-0.000170574
9.627e-05
-0.000284651
0.000158697
-0.000430624
0.000241092
-0.000612785
0.000346037
-0.000835601
0.000476156
-0.00110359
0.000634002
-0.00142117
0.000821888
-0.00179238
0.00104169
-0.00222063
0.00129459
-0.00270836
0.00158087
-0.0032567
0.00189966
-0.00386516
0.00224878
-0.00453143
0.00262474
-0.00525146
0.00302279
-0.00601975
0.00343706
-0.00683004
0.00386028
-0.00767626
-0.00856275
0.00428258
5.63415e-06
-2.78524e-05
2.34202e-05
-0.000102113
5.52662e-05
-0.00020242
0.000103272
-0.000332657
0.000169712
-0.000497065
0.000257003
-0.000700076
0.000367631
-0.000946228
0.000504047
-0.00124001
0.000668527
-0.00158565
0.000862977
-0.00198682
0.00108871
-0.00244636
0.00134621
-0.00296586
0.00163487
-0.00354536
0.00195284
-0.00418313
0.00229692
-0.00487551
0.00266261
-0.00561715
0.00304429
-0.00640143
0.00343545
-0.0072212
0.00382872
-0.00806953
-0.00894821
0.00421418
6.07214e-06
-3.39245e-05
2.51359e-05
-0.000121177
5.91206e-05
-0.000236405
0.000110129
-0.000383666
0.000180411
-0.000567346
0.000272306
-0.000791972
0.000388162
-0.00106208
0.000530201
-0.00138205
0.000700354
-0.0017558
0.000900049
-0.00218652
0.00112998
-0.00267629
0.00138984
-0.00322572
0.00167817
-0.00383369
0.00199216
-0.00449712
0.0023277
-0.00521105
0.00267952
-0.00596897
0.00304148
-0.00676339
0.00340698
-0.0075867
0.00376919
-0.00843174
-0.00929855
0.00411953
6.50802e-06
-4.04325e-05
2.68272e-05
-0.000141496
6.2889e-05
-0.000272467
0.000116775
-0.000437552
0.000190677
-0.000641248
0.000286822
-0.000888117
0.000407369
-0.00118263
0.000554255
-0.00152893
0.000729004
-0.00193055
0.000932505
-0.00239002
0.00116477
-0.00290855
0.00142472
-0.00348567
0.00171
-0.00411897
0.00201697
-0.00480408
0.00234075
-0.00553484
0.00267557
-0.00630378
0.00301513
-0.00710296
0.00335314
-0.00792472
0.00368376
-0.00876236
-0.00961506
0.00400027
6.93788e-06
-4.73704e-05
2.84779e-05
-0.000163036
6.65321e-05
-0.000310521
0.000123135
-0.000494155
0.000200387
-0.000718499
0.000300362
-0.000988092
0.000424981
-0.00130725
0.000575842
-0.0016798
0.000754007
-0.00210871
0.000959776
-0.00259579
0.00119245
-0.00314123
0.00145017
-0.00374339
0.00172977
-0.00439857
0.00202685
-0.00510117
0.00233601
-0.005844
0.00265122
-0.00661899
0.00296635
-0.00741808
0.00327575
-0.00823412
0.00357476
-0.00906137
-0.00989896
0.00385866
7.35723e-06
-5.47276e-05
3.00694e-05
-0.000185748
7.00069e-05
-0.000350458
0.000129129
-0.000553277
0.00020941
-0.00079878
0.000312729
-0.00109141
0.000440725
-0.00143525
0.000594602
-0.00183367
0.000774915
-0.00228903
0.000981342
-0.00280222
0.00121247
-0.00337236
0.00146567
-0.00399659
0.00173706
-0.00466996
0.00202167
-0.00538578
0.00231375
-0.00613607
0.00260727
-0.00691251
0.00289655
-0.00770736
0.00317681
-0.00851437
0.00344464
-0.00932921
-0.0101516
0.00369724
7.7611e-06
-6.24887e-05
3.1582e-05
-0.000209569
7.32674e-05
-0.000392144
0.000134673
-0.000614682
0.000217611
-0.000881718
0.000323727
-0.00119753
0.00045433
-0.00156585
0.00061019
-0.00198953
0.00079132
-0.00247016
0.000996752
-0.00300765
0.00122438
-0.00359999
0.00147086
-0.00424307
0.00173172
-0.00493082
0.00200156
-0.00565561
0.00227451
-0.00640903
0.00254481
-0.00718281
0.0028074
-0.00796995
0.00305849
-0.00876546
0.00329595
-0.00956667
-0.0103742
0.00351862
8.14412e-06
-7.06329e-05
3.29943e-05
-0.000234419
7.62658e-05
-0.000435415
0.00013968
-0.000678097
0.000224855
-0.000966893
0.000333161
-0.00130583
0.000465539
-0.00169823
0.00062229
-0.00214628
0.000802857
-0.00265072
0.00100563
-0.00321043
0.00122785
-0.0038222
0.00146554
-0.00448077
0.00171376
-0.00517904
0.00196688
-0.00590873
0.00221911
-0.00666126
0.00246514
-0.00742884
0.00270069
-0.00820551
0.00292302
-0.00898779
0.00313117
-0.00977482
-0.0105684
0.00332535
8.50068e-06
-7.91335e-05
3.42847e-05
-0.000260203
7.89533e-05
-0.000480084
0.000144065
-0.000743209
0.000231009
-0.00105384
0.000340846
-0.00141567
0.000474114
-0.00183149
0.000630618
-0.00230279
0.000809226
-0.00282933
0.00100771
-0.00340891
0.00122269
-0.00403718
0.00144969
-0.00470777
0.00168343
-0.00541278
0.00191822
-0.00614352
0.00214856
-0.0068916
0.00236973
-0.00765001
0.00257832
-0.0084141
0.00277262
-0.00918209
0.00295269
-0.0099549
-0.0107355
0.00311984
8.82499e-06
-8.79585e-05
3.54311e-05
-0.000286809
8.12813e-05
-0.000525934
0.000147744
-0.000809671
0.000235946
-0.00114204
0.000346609
-0.00152633
0.000479841
-0.00196473
0.000634936
-0.00245788
0.000810192
-0.00300459
0.0010028
-0.00360152
0.00120883
-0.00424321
0.00142343
-0.00492237
0.00164113
-0.00563048
0.00185637
-0.00635875
0.00206404
-0.00709928
0.00226015
-0.00784611
0.00244219
-0.00859614
0.0026094
-0.0093493
0.00276273
-0.0101082
-0.0108771
0.00290425
9.11125e-06
-9.70698e-05
3.64117e-05
-0.00031411
8.32029e-05
-0.000572725
0.000150635
-0.000877103
0.000239549
-0.00123095
0.000350296
-0.00163708
0.000482539
-0.00209697
0.000635057
-0.0026104
0.000805597
-0.00317513
0.000990815
-0.00378673
0.00118635
-0.00443874
0.00138706
-0.00512308
0.00158746
-0.00583088
0.00178223
-0.00655352
0.00196683
-0.00728388
0.00213801
-0.0080173
0.00229417
-0.0087523
0.00243538
-0.00949052
0.0025633
-0.0102361
-0.0109943
0.00268051
9.35376e-06
-0.000106424
3.72055e-05
-0.000341961
8.46733e-05
-0.000620193
0.000152666
-0.000945095
0.000241712
-0.00132
0.000351775
-0.00174714
0.000482062
-0.00222726
0.000630846
-0.00275918
0.000795358
-0.00333964
0.000971789
-0.00396316
0.00115543
-0.00462239
0.001341
-0.00530865
0.00152311
-0.00601298
0.00169683
-0.00672724
0.00185825
-0.00744529
0.00200491
-0.00816396
0.00213602
-0.00888341
0.0022524
-0.0096069
0.00235619
-0.0103399
-0.0110884
0.00245031
9.54705e-06
-0.000115971
3.77926e-05
-0.000370207
8.56517e-05
-0.000668052
0.00015377
-0.00101321
0.000242344
-0.00140857
0.000350939
-0.00185574
0.000478304
-0.00235462
0.000622228
-0.00290311
0.000779472
-0.00349689
0.000945836
-0.00412953
0.00111638
-0.00479292
0.00128578
-0.00547806
0.00144889
-0.0061761
0.00160126
-0.00687961
0.00173965
-0.00758369
0.00186238
-0.00828669
0.0019694
-0.00899042
0.0020621
-0.00969961
0.002143
-0.0104208
-0.0111605
0.0022151
9.68599e-06
-0.000125657
3.81551e-05
-0.000398676
8.61013e-05
-0.000715999
0.00015389
-0.001081
0.000241372
-0.00149606
0.000347709
-0.00196208
0.000471202
-0.00247811
0.000609185
-0.00304109
0.000758008
-0.00364571
0.000913166
-0.00428469
0.00106958
-0.00494934
0.00122203
-0.00563051
0.00136569
-0.00631976
0.00149665
-0.00701057
0.00161238
-0.00769941
0.00171191
-0.00838621
0.00179582
-0.00907434
0.00186599
-0.00976977
0.00192509
-0.0104799
-0.0112116
0.00197613
9.76589e-06
-0.000135422
3.82768e-05
-0.000427187
8.5991e-05
-0.000763713
0.00015298
-0.00114799
0.000238742
-0.00158182
0.000342035
-0.00206537
0.000460734
-0.00259681
0.000591757
-0.00317211
0.00073111
-0.00378506
0.000874069
-0.00442765
0.00101552
-0.00509079
0.00115044
-0.00576543
0.00127442
-0.00644373
0.00138412
-0.00712028
0.0014777
-0.00779299
0.00155485
-0.00846336
0.00161667
-0.00913617
0.00166536
-0.00981846
0.00170367
-0.0105182
-0.0112423
0.00173446
9.78258e-06
-0.000145205
3.8144e-05
-0.000455548
8.52952e-05
-0.000810864
0.000151005
-0.0012137
0.000234417
-0.00166523
0.000333897
-0.00216485
0.00044692
-0.00270984
0.000570038
-0.00329523
0.000698983
-0.00391401
0.000828901
-0.00455756
0.000954745
-0.00521664
0.00107177
-0.00588245
0.00117601
-0.00654798
0.00126478
-0.00720905
0.00133684
-0.00786505
0.00139246
-0.00851898
0.00143317
-0.00917688
0.00146136
-0.00984665
0.00147976
-0.0105366
-0.0112536
0.00149099
9.73256e-06
-0.000154938
3.77457e-05
-0.000483562
8.3995e-05
-0.000857113
0.000147942
-0.00127765
0.000228382
-0.00174567
0.000323305
-0.00225977
0.000429821
-0.00281635
0.000544173
-0.00340958
0.00066189
-0.00403172
0.000778077
-0.00467375
0.000887837
-0.0053264
0.000986764
-0.00598138
0.00107142
-0.00663263
0.00113968
-0.00727731
0.00119092
-0.00791628
0.00122589
-0.00855394
0.00124642
-0.00919742
0.00125499
-0.00985522
0.00125424
-0.0105359
-0.0112459
0.00124653
9.61297e-06
-0.000164551
3.70736e-05
-0.000511022
8.20782e-05
-0.000902118
0.000143783
-0.00133935
0.000220642
-0.00182253
0.000310298
-0.00234943
0.000409536
-0.00291559
0.000514351
-0.0035144
0.000620143
-0.00413751
0.000722056
-0.00477566
0.000815417
-0.00541976
0.000896219
-0.00606218
0.000961544
-0.00669796
0.00100984
-0.00732561
0.001041
-0.00794744
0.00105616
-0.0085691
0.00105737
-0.00919863
0.00104713
-0.00984497
0.00102788
-0.0105166
-0.0112197
0.00100173
9.42172e-06
-0.000173972
3.61227e-05
-0.000537723
7.95394e-05
-0.000945535
0.000138529
-0.00139834
0.000211222
-0.00189522
0.000294942
-0.00243315
0.000386199
-0.00300685
0.0004808
-0.003609
0.000574091
-0.00423081
0.000661328
-0.0048629
0.000738125
-0.00549656
0.000800905
-0.00612496
0.000847273
-0.00674432
0.000876207
-0.00735455
0.000888037
-0.00795927
0.000884211
-0.00856528
0.000866894
-0.00918131
0.000838518
-0.00981659
0.000801344
-0.0104795
-0.0111756
0.000757196
9.1575e-06
-0.00018313
3.48909e-05
-0.000563457
7.63804e-05
-0.000987024
0.000132195
-0.00145416
0.000200164
-0.00196319
0.000277329
-0.00251031
0.000359974
-0.00308949
0.000443782
-0.00369281
0.000524115
-0.00431114
0.000596406
-0.00493519
0.000656601
-0.00555675
0.000701577
-0.00616994
0.000729442
-0.00677219
0.00073965
-0.00736475
0.000732903
-0.00795252
0.00071086
-0.00854323
0.00067573
-0.00914618
0.000629833
-0.0097707
0.000575222
-0.0104248
-0.0111138
0.000513469
8.81978e-06
-0.00019195
3.33791e-05
-0.000588016
7.26097e-05
-0.00102625
0.000124807
-0.00150635
0.000187529
-0.00202591
0.000257573
-0.00258036
0.000331051
-0.00316297
0.000403585
-0.00376534
0.000470617
-0.00437817
0.000527812
-0.00499239
0.000571483
-0.00560042
0.000598965
-0.00619742
0.000608841
-0.00678207
0.000600985
-0.0073569
0.00057639
-0.00792793
0.000536849
-0.00850369
0.000484549
-0.00909388
0.000421662
-0.00970781
0.000350001
-0.0103532
-0.0110348
0.000271014
8.40885e-06
-0.000200358
3.15915e-05
-0.000611199
6.82425e-05
-0.00106291
0.000116405
-0.00155452
0.000173394
-0.0020829
0.000235808
-0.00264277
0.000299643
-0.0032268
0.000360517
-0.00382622
0.000414012
-0.00443167
0.000456069
-0.00503444
0.000483392
-0.00562774
0.000493764
-0.00620779
0.000486208
-0.00677451
0.000460951
-0.00733164
0.00041921
-0.00788619
0.00036284
-0.00844732
0.000293951
-0.00902499
0.000214568
-0.00962843
0.000126229
-0.0102648
-0.010938
2.9387e-05
7.92582e-06
-0.000208284
2.95351e-05
-0.000632808
6.33003e-05
-0.00109667
0.000107036
-0.00159825
0.00015785
-0.00213372
0.000212187
-0.00269711
0.000265979
-0.0032806
0.000314902
-0.00387514
0.000354722
-0.00447149
0.000381695
-0.00506142
0.000392926
-0.00563898
0.000386629
-0.00620149
0.000362223
-0.0067501
0.000320228
-0.00728965
0.000262009
-0.00782797
0.000189426
-0.00837474
0.000104464
-0.00894003
8.92287e-06
-0.00953289
-9.55977e-05
-0.0101603
-0.0108249
-0.000208675
7.37254e-06
-0.000215657
2.72198e-05
-0.000652655
5.78105e-05
-0.00112726
9.67582e-05
-0.0016372
0.000141
-0.00217796
0.000186875
-0.00274298
0.000230304
-0.00332402
0.000267069
-0.0039119
0.000293169
-0.00449759
0.000305197
-0.00507344
0.000300658
-0.00563444
0.000278177
-0.00617901
0.000237517
-0.00670944
0.00017943
-0.00723156
0.000105368
-0.00775391
1.71363e-05
-0.00828651
-8.34095e-05
-0.00883948
-0.000194618
-0.00942168
-0.000315345
-0.0100396
-0.0106955
-0.000444802
6.75163e-06
-0.000222408
2.46582e-05
-0.000670562
5.18056e-05
-0.00115441
8.56363e-05
-0.00167103
0.000122957
-0.00221528
0.000160047
-0.00278007
0.000192867
-0.00335684
0.000217352
-0.00393639
0.000229769
-0.00451
0.000227061
-0.00507074
0.000207131
-0.00561451
0.000168979
-0.00614086
0.000112665
-0.00665313
3.91158e-05
-0.00715801
-5.01842e-05
-0.00766461
-0.000153522
-0.00818317
-0.000269237
-0.00872377
-0.000395875
-0.00929504
-0.000532395
-0.00990308
-0.0105497
-0.00067817
6.06638e-06
-0.000228475
2.1865e-05
-0.00068636
4.53228e-05
-0.00117787
7.37434e-05
-0.00169945
0.000103843
-0.00224538
0.000131888
-0.00280812
0.000153926
-0.00337888
0.000166085
-0.00394855
0.000164926
-0.00450884
0.000147755
-0.00505356
0.000112853
-0.00557961
5.95635e-05
-0.00608757
-1.18049e-05
-0.00658176
-0.000100203
-0.00706961
-0.000204168
-0.00756064
-0.000322124
-0.00806521
-0.000452608
-0.00859329
-0.000594369
-0.00915328
-0.000746469
-0.00975098
-0.0103878
-0.000908358
5.32074e-06
-0.000233796
1.88575e-05
-0.000699897
3.84037e-05
-0.00119741
6.11579e-05
-0.00172221
8.37868e-05
-0.00226801
0.000102589
-0.00282692
0.000113738
-0.00339003
0.000113596
-0.00394841
9.90341e-05
-0.00449428
6.7721e-05
-0.00502225
1.83009e-05
-0.00553019
-4.95809e-05
-0.00601969
-0.00013541
-0.00649593
-0.000238068
-0.00696695
-0.00035615
-0.00744256
-0.00048825
-0.00793312
-0.000633126
-0.00844841
-0.00078973
-0.00899668
-0.000957219
-0.00958349
-0.01021
-0.00113503
4.51926e-06
-0.000238315
1.56546e-05
-0.000711033
3.1093e-05
-0.00121285
4.79626e-05
-0.00173907
6.29209e-05
-0.00228297
7.23398e-05
-0.00283634
7.25616e-05
-0.00339025
6.02039e-05
-0.00393605
3.24684e-05
-0.00446655
-1.26219e-05
-0.00497716
-7.60863e-05
-0.00546672
-0.000158009
-0.00593777
-0.000257716
-0.00639622
-0.000374061
-0.00685061
-0.000505731
-0.00731089
-0.000651514
-0.00778733
-0.000810412
-0.00828951
-0.000981591
-0.0088255
-0.0011643
-0.00940078
-0.0100164
-0.00135785
3.66703e-06
-0.000241982
1.22769e-05
-0.000719642
2.34385e-05
-0.00122401
3.42439e-05
-0.00174988
4.1381e-05
-0.0022901
4.13343e-05
-0.00283629
3.06482e-05
-0.00337957
6.22375e-06
-0.00391162
-3.4415e-05
-0.00442591
-9.28873e-05
-0.00491869
-0.000169901
-0.00538971
-0.000265312
-0.00584235
-0.000378327
-0.00628321
-0.000507801
-0.00672114
-0.000652544
-0.00716615
-0.000811555
-0.00762832
-0.0009841
-0.00811697
-0.00116959
-0.00864001
-0.00136735
-0.00920302
-0.00980728
-0.0015765
2.76967e-06
-0.000244751
8.74646e-06
-0.000725619
1.54898e-05
-0.00123076
2.00906e-05
-0.00175448
1.93039e-05
-0.00228932
9.76478e-06
-0.00282675
-1.17562e-05
-0.00335805
-4.80632e-05
-0.00387532
-0.000101281
-0.00437269
-0.000172709
-0.00484726
-0.000262769
-0.00529965
-0.000371121
-0.005734
-0.000496885
-0.00615744
-0.000638947
-0.00657907
-0.000796256
-0.00700884
-0.000968035
-0.00745654
-0.00115383
-0.00793117
-0.00135333
-0.00844051
-0.00156602
-0.00899033
-0.00958262
-0.00179068
1.83378e-06
-0.000246585
5.08672e-06
-0.000728872
7.2983e-06
-0.00123297
5.59324e-06
-0.00175278
-3.17084e-06
-0.00228055
-2.21865e-05
-0.00280774
-5.44186e-05
-0.00332581
-0.00010236
-0.00382738
-0.00016781
-0.00430724
-0.00025175
-0.00476332
-0.000354348
-0.00519705
-0.000475098
-0.00561325
-0.000613067
-0.00601948
-0.000767191
-0.00642495
-0.000936564
-0.00683946
-0.00112064
-0.00727247
-0.00131926
-0.00773255
-0.00153245
-0.00822732
-0.00175992
-0.00876286
-0.0093425
-0.00200004
8.73785e-07
-0.000247459
1.31887e-06
-0.000729317
-1.08468e-06
-0.00123056
-9.16083e-06
-0.0017447
-2.59189e-05
-0.0022638
-5.43339e-05
-0.00277932
-9.71041e-05
-0.00328304
-0.000156405
-0.00376807
-0.000233709
-0.00422994
-0.000329702
-0.00466733
-0.000444326
-0.00508243
-0.000576941
-0.00548064
-0.000726583
-0.00586983
-0.000892255
-0.00625928
-0.0010732
-0.00665852
-0.00126908
-0.00707658
-0.00148005
-0.00752159
-0.00170652
-0.00800084
-0.00194863
-0.00852076
-0.00908685
-0.00220427
-1.51659e-07
-0.000247307
-2.53207e-06
-0.000726937
-9.60508e-06
-0.00122349
-2.40796e-05
-0.00173023
-4.87964e-05
-0.00223908
-8.64995e-05
-0.00274162
-0.000139597
-0.00322995
-0.000209945
-0.00369773
-0.000298702
-0.00414118
-0.000406278
-0.00455975
-0.000532417
-0.00495629
-0.000676374
-0.00533668
-0.000837174
-0.00570903
-0.0010139
-0.00608255
-0.00120592
-0.0064665
-0.00141311
-0.00686939
-0.00163588
-0.00729881
-0.00187513
-0.00776159
-0.00213165
-0.00826424
-0.00881543
-0.00240307
-1.15035e-06
-0.000246157
-6.43582e-06
-0.000721651
-1.82113e-05
-0.00121172
-3.90746e-05
-0.00170936
-7.16787e-05
-0.00220647
-0.000118515
-0.00269478
-0.000181691
-0.00316677
-0.000262746
-0.00361667
-0.000362534
-0.00404139
-0.000481217
-0.00444107
-0.000618364
-0.00481914
-0.000773149
-0.0051819
-0.000944608
-0.00553757
-0.0011319
-0.00589526
-0.00133453
-0.00626387
-0.00155251
-0.00665141
-0.00178649
-0.00706483
-0.00203786
-0.00751022
-0.00230844
-0.00799367
-0.00852778
-0.00259608
-2.18274e-06
-0.000243974
-1.03754e-05
-0.000713459
-2.68512e-05
-0.00119524
-5.40597e-05
-0.00168215
-9.4441e-05
-0.00216609
-0.000150217
-0.00263901
-0.000223191
-0.0030938
-0.000314587
-0.00352528
-0.000424972
-0.00393101
-0.00055428
-0.00431176
-0.00070193
-0.00467149
-0.000867042
-0.00501678
-0.00104867
-0.00535594
-0.00124607
-0.00569787
-0.00145884
-0.0060511
-0.00168711
-0.00642313
-0.00193167
-0.00682028
-0.00219429
-0.0072476
-0.00247804
-0.00770993
-0.0082233
-0.00278252
-3.22205e-06
-0.000240752
-1.4324e-05
-0.000702357
-3.54736e-05
-0.00117409
-6.89507e-05
-0.00164868
-0.000116964
-0.00211808
-0.000181453
-0.00257452
-0.000263913
-0.00301134
-0.000365263
-0.00342393
-0.000485798
-0.00381047
-0.000625245
-0.00417231
-0.000782901
-0.00451383
-0.000957847
-0.00484184
-0.00114918
-0.00516461
-0.00135623
-0.00549082
-0.00157872
-0.00582862
-0.00181683
-0.00618502
-0.00207134
-0.00656576
-0.00234402
-0.00697492
-0.002639
-0.00741494
-0.00789908
-0.00296321
-4.26143e-06
-0.000236491
-1.82569e-05
-0.000688361
-4.40282e-05
-0.00114832
-8.36661e-05
-0.00160904
-0.000139132
-0.00206261
-0.000212077
-0.00250157
-0.000303687
-0.00291973
-0.000414585
-0.00331303
-0.000544814
-0.00368024
-0.000693914