/*--------------------------------*- C++ -*----------------------------------*\
  =========                 |
  \\      /  F ield         | OpenFOAM: The Open Source CFD Toolbox
   \\    /   O peration     | Website:  https://openfoam.org
    \\  /    A nd           | Version:  7
     \\/     M anipulation  |
\*---------------------------------------------------------------------------*/
FoamFile
{
    version     2.0;
    format      ascii;
    class       volScalarField;
    location    "177";
    object      p;
}
// * * * * * * * * * * * * * * * * * * * * * * * * * * * * * * * * * * * * * //

dimensions      [0 2 -2 0 0 0 0];

internalField   nonuniform List<scalar> 
12400
(
-0.371936
-0.373674
-0.374647
-0.375253
-0.375779
-0.376409
-0.377331
-0.378706
-0.380666
-0.383345
-0.386909
-0.391585
-0.397676
-0.405553
-0.415613
-0.428188
-0.443355
-0.46068
-0.47911
-0.495246
-0.372078
-0.373242
-0.373855
-0.374183
-0.374458
-0.374865
-0.375606
-0.376864
-0.378807
-0.381613
-0.385511
-0.39081
-0.397915
-0.407314
-0.419518
-0.434956
-0.453742
-0.475219
-0.498543
-0.518907
-0.372385
-0.372971
-0.373217
-0.37326
-0.373274
-0.373444
-0.373982
-0.375094
-0.376976
-0.37985
-0.383995
-0.389787
-0.39771
-0.40834
-0.422267
-0.439964
-0.46161
-0.486263
-0.513276
-0.536568
-0.372727
-0.372756
-0.372641
-0.372396
-0.372137
-0.37205
-0.372354
-0.373273
-0.375035
-0.377894
-0.382174
-0.3883
-0.396813
-0.408346
-0.423536
-0.442866
-0.46652
-0.493237
-0.522957
-0.547886
-0.372996
-0.372509
-0.372051
-0.37152
-0.370977
-0.370607
-0.370635
-0.371303
-0.372866
-0.375611
-0.379895
-0.386177
-0.395034
-0.407129
-0.423113
-0.443427
-0.468341
-0.49602
-0.527519
-0.552914
-0.3731
-0.372167
-0.371392
-0.370581
-0.369744
-0.369061
-0.368763
-0.36911
-0.370385
-0.372902
-0.377047
-0.383302
-0.392258
-0.404585
-0.420931
-0.441633
-0.467157
-0.494842
-0.527254
-0.552012
-0.372982
-0.371686
-0.370634
-0.369553
-0.368414
-0.367388
-0.36671
-0.36666
-0.367548
-0.369718
-0.373578
-0.379626
-0.388455
-0.400719
-0.41706
-0.437649
-0.463256
-0.490212
-0.522822
-0.545919
-0.37261
-0.371051
-0.369769
-0.368436
-0.366988
-0.365589
-0.364479
-0.363955
-0.364358
-0.366063
-0.3695
-0.375177
-0.383685
-0.395645
-0.411696
-0.431801
-0.457088
-0.48285
-0.515059
-0.536024
-0.371987
-0.370269
-0.368809
-0.367246
-0.36549
-0.363694
-0.362104
-0.361038
-0.360866
-0.361998
-0.36489
-0.370062
-0.378095
-0.389575
-0.405139
-0.424532
-0.449209
-0.473562
-0.504937
-0.523346
-0.371141
-0.369371
-0.36779
-0.366021
-0.363961
-0.361753
-0.359648
-0.357983
-0.357165
-0.357639
-0.359892
-0.364458
-0.371916
-0.382808
-0.397771
-0.416358
-0.440211
-0.463135
-0.493032
-0.508673
-0.37013
-0.368412
-0.366761
-0.364813
-0.362458
-0.359833
-0.357193
-0.354897
-0.353387
-0.353148
-0.354704
-0.358609
-0.365442
-0.37571
-0.390026
-0.407804
-0.430654
-0.452166
-0.479752
-0.492379
-0.369039
-0.367463
-0.365789
-0.363686
-0.361052
-0.358015
-0.354838
-0.351905
-0.34969
-0.348724
-0.349569
-0.352804
-0.359015
-0.368676
-0.382347
-0.399347
-0.420999
-0.441005
-0.46533
-0.474542
-0.367977
-0.366613
-0.364953
-0.362716
-0.359819
-0.356388
-0.352695
-0.349147
-0.346252
-0.344586
-0.344751
-0.347356
-0.352991
-0.362097
-0.375138
-0.391336
-0.411532
-0.429684
-0.449897
-0.455144
-0.367077
-0.365969
-0.364345
-0.361989
-0.358848
-0.355052
-0.350883
-0.34677
-0.343256
-0.340957
-0.340517
-0.342569
-0.347699
-0.356303
-0.36869
-0.38394
-0.402307
-0.41799
-0.433548
-0.434353
-0.366486
-0.365647
-0.364064
-0.361599
-0.358236
-0.354112
-0.349525
-0.344923
-0.340883
-0.338053
-0.337111
-0.338707
-0.3434
-0.351511
-0.363121
-0.377125
-0.393146
-0.405667
-0.416403
-0.412679
-0.366363
-0.365772
-0.364218
-0.361647
-0.358084
-0.353679
-0.348745
-0.343751
-0.339296
-0.336056
-0.334728
-0.335957
-0.340242
-0.34778
-0.358356
-0.370674
-0.38374
-0.392599
-0.398685
-0.390841
-0.366867
-0.366467
-0.364915
-0.362233
-0.358492
-0.353858
-0.348657
-0.343376
-0.338626
-0.335098
-0.333485
-0.334397
-0.338226
-0.344995
-0.35415
-0.36427
-0.373808
-0.378852
-0.380662
-0.369496
-0.368143
-0.367845
-0.366253
-0.36345
-0.359552
-0.354739
-0.349352
-0.343884
-0.338951
-0.335235
-0.333397
-0.333972
-0.337203
-0.342898
-0.350177
-0.357608
-0.363248
-0.364616
-0.362451
-0.349018
-0.370307
-0.37
-0.368312
-0.365373
-0.361329
-0.356381
-0.350877
-0.345309
-0.340278
-0.336432
-0.33437
-0.334509
-0.336906
-0.341151
-0.34613
-0.350506
-0.352199
-0.350158
-0.343981
-0.329505
-0.373445
-0.373
-0.371149
-0.368048
-0.363862
-0.358808
-0.353237
-0.347625
-0.34254
-0.338571
-0.336216
-0.33574
-0.337008
-0.339424
-0.341789
-0.342937
-0.340985
-0.335854
-0.325617
-0.310938
-0.377598
-0.376882
-0.374796
-0.371496
-0.367154
-0.362004
-0.356389
-0.350756
-0.345617
-0.341473
-0.338689
-0.337363
-0.337186
-0.337456
-0.33704
-0.335003
-0.329909
-0.322102
-0.309023
-0.293534
-0.382772
-0.381653
-0.379262
-0.375713
-0.371187
-0.365928
-0.360263
-0.354593
-0.349354
-0.344928
-0.341527
-0.339084
-0.337172
-0.335078
-0.331863
-0.326871
-0.319136
-0.309039
-0.29472
-0.278931
-0.388953
-0.387307
-0.384532
-0.380679
-0.375927
-0.370527
-0.36478
-0.359025
-0.353594
-0.348728
-0.344483
-0.340654
-0.336768
-0.332211
-0.326313
-0.318699
-0.308769
-0.296977
-0.281799
-0.265748
-0.396099
-0.393828
-0.390592
-0.386376
-0.381347
-0.375759
-0.369874
-0.36395
-0.358191
-0.352687
-0.347344
-0.341875
-0.335855
-0.328847
-0.320476
-0.310602
-0.2989
-0.285783
-0.270053
-0.254068
-0.404172
-0.401191
-0.397427
-0.392792
-0.387432
-0.381597
-0.375498
-0.369284
-0.363019
-0.356636
-0.349933
-0.342613
-0.334379
-0.325025
-0.31444
-0.302655
-0.289514
-0.275384
-0.259282
-0.243287
-0.413142
-0.40938
-0.405033
-0.399927
-0.394182
-0.388033
-0.381617
-0.374956
-0.367961
-0.360432
-0.352114
-0.342784
-0.332339
-0.320804
-0.308277
-0.294887
-0.280578
-0.265641
-0.249261
-0.233293
-0.422983
-0.418384
-0.41341
-0.407793
-0.401611
-0.395067
-0.388201
-0.380892
-0.372903
-0.363944
-0.353784
-0.342352
-0.329763
-0.316246
-0.302031
-0.287291
-0.27202
-0.256427
-0.239844
-0.223873
-0.433673
-0.428195
-0.422564
-0.416403
-0.40973
-0.402693
-0.395208
-0.387005
-0.377726
-0.367057
-0.354874
-0.341311
-0.326693
-0.311397
-0.295721
-0.279839
-0.263763
-0.247625
-0.230881
-0.214907
-0.445191
-0.438798
-0.432492
-0.425762
-0.418538
-0.410881
-0.402568
-0.393185
-0.382304
-0.36967
-0.355341
-0.339674
-0.32317
-0.306288
-0.289341
-0.272482
-0.255722
-0.239125
-0.222259
-0.206275
-0.457499
-0.450169
-0.443179
-0.435856
-0.428003
-0.419567
-0.410174
-0.399296
-0.386506
-0.371697
-0.355159
-0.337461
-0.31922
-0.300925
-0.282868
-0.265165
-0.247818
-0.23083
-0.213872
-0.197882
-0.470539
-0.46226
-0.454584
-0.446637
-0.438057
-0.428645
-0.417883
-0.405181
-0.390202
-0.373065
-0.354311
-0.334682
-0.314855
-0.2953
-0.276265
-0.257828
-0.239972
-0.222653
-0.205633
-0.189641
-0.48422
-0.474992
-0.466634
-0.458023
-0.448586
-0.437963
-0.425515
-0.410665
-0.393264
-0.373709
-0.352782
-0.331341
-0.310069
-0.289387
-0.269488
-0.250408
-0.232111
-0.214519
-0.197463
-0.181479
-0.498416
-0.488255
-0.479217
-0.469884
-0.459429
-0.447325
-0.432861
-0.41557
-0.395571
-0.373571
-0.350551
-0.327425
-0.30484
-0.283149
-0.262484
-0.242844
-0.22417
-0.206356
-0.189294
-0.173331
-0.51296
-0.501896
-0.49218
-0.482045
-0.470377
-0.456497
-0.439695
-0.419712
-0.397011
-0.372593
-0.347587
-0.322909
-0.299136
-0.276542
-0.255201
-0.235076
-0.216085
-0.198103
-0.181066
-0.16514
-0.527642
-0.515722
-0.505324
-0.494284
-0.481179
-0.465214
-0.445778
-0.422919
-0.397477
-0.370718
-0.343853
-0.317755
-0.292912
-0.269516
-0.247584
-0.227047
-0.207801
-0.189704
-0.172724
-0.156857
-0.542213
-0.5295
-0.518409
-0.506336
-0.491547
-0.473195
-0.450872
-0.425021
-0.396866
-0.367881
-0.3393
-0.311917
-0.286119
-0.262018
-0.23958
-0.218705
-0.199264
-0.18111
-0.164221
-0.148439
-0.556387
-0.542955
-0.531151
-0.517896
-0.501166
-0.480146
-0.454747
-0.425865
-0.395082
-0.364017
-0.333875
-0.305342
-0.278703
-0.253996
-0.231137
-0.209999
-0.190429
-0.172275
-0.155513
-0.139848
-0.569844
-0.555781
-0.543232
-0.528629
-0.509703
-0.485778
-0.457186
-0.425306
-0.392031
-0.359058
-0.327516
-0.297974
-0.270612
-0.245398
-0.222207
-0.200884
-0.181254
-0.163161
-0.146565
-0.131052
-0.582237
-0.567638
-0.554306
-0.538179
-0.516823
-0.489812
-0.457988
-0.423211
-0.387623
-0.352934
-0.320164
-0.289755
-0.26179
-0.236174
-0.212745
-0.191319
-0.171701
-0.153734
-0.137345
-0.122028
-0.593202
-0.578169
-0.564005
-0.546182
-0.522194
-0.491987
-0.456972
-0.419461
-0.381774
-0.345575
-0.311755
-0.280628
-0.252188
-0.226281
-0.202711
-0.181269
-0.16174
-0.143963
-0.127832
-0.112766
-0.602365
-0.587001
-0.571953
-0.552276
-0.525503
-0.492066
-0.453976
-0.413948
-0.374403
-0.336916
-0.302232
-0.270543
-0.241759
-0.215678
-0.192071
-0.170702
-0.15134
-0.133823
-0.118005
-0.103254
-0.609351
-0.593761
-0.577779
-0.556109
-0.526461
-0.48984
-0.448864
-0.406578
-0.36544
-0.326897
-0.291542
-0.259452
-0.230464
-0.204331
-0.180794
-0.159593
-0.140481
-0.123296
-0.107844
-0.0934526
-0.613798
-0.598084
-0.581121
-0.55736
-0.524812
-0.485134
-0.44152
-0.397273
-0.354822
-0.315463
-0.279637
-0.247315
-0.21827
-0.192212
-0.168857
-0.14792
-0.129144
-0.112367
-0.097325
-0.0832924
-0.615362
-0.599623
-0.581646
-0.555737
-0.520337
-0.477801
-0.431851
-0.385969
-0.3425
-0.302572
-0.266481
-0.234102
-0.20515
-0.179299
-0.15624
-0.135669
-0.117318
-0.10103
-0.0864527
-0.0727517
-0.613729
-0.598061
-0.579053
-0.55099
-0.512861
-0.467732
-0.419791
-0.372618
-0.328436
-0.288192
-0.252045
-0.219788
-0.191084
-0.165576
-0.142933
-0.122836
-0.104999
-0.0892785
-0.0752173
-0.0619876
-0.608623
-0.593117
-0.573085
-0.542917
-0.502248
-0.45485
-0.405295
-0.357193
-0.312606
-0.272303
-0.236311
-0.204357
-0.176061
-0.151042
-0.128937
-0.109429
-0.0922103
-0.0771235
-0.0635928
-0.0510037
-0.599813
-0.584557
-0.563534
-0.531364
-0.48841
-0.439113
-0.388345
-0.339682
-0.295002
-0.254895
-0.219274
-0.18781
-0.160088
-0.135711
-0.114275
-0.0954452
-0.0789403
-0.0645548
-0.0516266
-0.0397436
-0.58712
-0.572198
-0.550244
-0.516232
-0.471302
-0.420511
-0.368948
-0.320093
-0.275624
-0.235965
-0.200951
-0.17017
-0.143199
-0.119586
-0.0989392
-0.0809008
-0.0651998
-0.0515885
-0.0393359
-0.0282093
-0.570418
-0.555913
-0.533119
-0.497472
-0.450922
-0.399071
-0.347135
-0.298453
-0.254494
-0.215538
-0.181386
-0.151469
-0.125389
-0.102687
-0.082952
-0.0658149
-0.0510076
-0.0382443
-0.0267338
-0.0164201
-0.549641
-0.535631
-0.512118
-0.475088
-0.427311
-0.374848
-0.322962
-0.274811
-0.23167
-0.193713
-0.160567
-0.131717
-0.106696
-0.0850458
-0.0663433
-0.0502139
-0.036389
-0.0245455
-0.0138402
-0.0044004
-0.52478
-0.511343
-0.487259
-0.449134
-0.400552
-0.347932
-0.296508
-0.249244
-0.207233
-0.170484
-0.13857
-0.110964
-0.0871624
-0.0667017
-0.0491499
-0.0341309
-0.0213747
-0.0105201
-0.000682399
0.0078208
-0.495887
-0.483095
-0.458613
-0.41972
-0.370774
-0.318437
-0.267875
-0.221846
-0.181235
-0.145932
-0.115459
-0.0892682
-0.0668409
-0.047702
-0.0314152
-0.0176053
-0.00600054
0.00379769
0.012704
0.0202085
-0.463069
-0.450987
-0.426308
-0.387016
-0.338137
-0.28648
-0.237186
-0.192718
-0.153774
-0.120145
-0.0913089
-0.0667017
-0.0457935
-0.0281024
-0.0131895
-0.000682773
0.00969238
0.018369
0.0262772
0.0327209
-0.426487
-0.415181
-0.39054
-0.351231
-0.30275
-0.252228
-0.20459
-0.161989
-0.124966
-0.0932243
-0.0662097
-0.0433442
-0.0240917
-0.0079664
0.00547036
0.0165856
0.0256587
0.033153
0.0399956
0.0453148
-0.386332
-0.375918
-0.351601
-0.312463
-0.264747
-0.215917
-0.170261
-0.129809
-0.0949403
-0.0652849
-0.0402622
-0.0192854
-0.0018153
0.0126351
0.0245007
0.0341423
0.0418487
0.04811
0.0538252
0.0579569
-0.342836
-0.333496
-0.309759
-0.270641
-0.224622
-0.177756
-0.134392
-0.0963437
-0.0638416
-0.0364534
-0.0135783
0.00537549
0.0209481
0.0336243
0.0438312
0.051924
0.0582099
0.0632001
0.0677273
0.0706082
-0.29624
-0.288175
-0.264661
-0.226919
-0.182561
-0.137976
-0.097189
-0.0617723
-0.031827
-0.00686831
0.0137197
0.0305308
0.0441035
0.054917
0.0633869
0.0698662
0.0746929
0.0783786
0.0816136
0.0831189
-0.246849
-0.240237
-0.217398
-0.181148
-0.138831
-0.0968291
-0.0588682
-0.0262858
0.000935015
0.0233218
0.0415008
0.0560651
0.0675493
0.0764235
0.0830898
0.0879088
0.0912585
0.0935892
0.0952978
0.0950892
-0.195336
-0.189957
-0.168197
-0.133651
-0.0937182
-0.0545782
-0.0196607
0.00991309
0.0342658
0.0539594
0.0696259
0.081856
0.0911775
0.0980486
0.10286
0.105995
0.107866
0.108748
0.108553
0.106195
-0.142008
-0.137776
-0.117369
-0.0847908
-0.0475336
-0.0114972
0.0201917
0.046612
0.0679779
0.0848789
0.0979493
0.107775
0.114875
0.119693
0.122617
0.12406
0.124436
0.123716
0.121337
0.117345
-0.0871766
-0.0841793
-0.0652985
-0.0349389
-0.000604401
0.0321283
0.0604385
0.0835901
0.101877
0.115909
0.12632
0.133688
0.138523
0.141255
0.142272
0.142014
0.140832
0.138341
0.133817
0.131026
-0.0312856
-0.0296041
-0.0123961
0.0155266
0.0467338
0.0760048
0.100822
0.120621
0.135762
0.146872
0.154581
0.159459
0.162002
0.162631
0.161737
0.159757
0.156935
0.152696
0.146795
0.144479
0.0252037
0.0255152
0.0409178
0.0662219
0.0941408
0.119834
0.141081
0.157473
0.16943
0.177589
0.182575
0.184947
0.185189
0.183714
0.180912
0.177198
0.172715
0.166881
0.159939
0.157218
0.0818291
0.0807354
0.0942199
0.116762
0.141275
0.163316
0.18095
0.193914
0.202676
0.207879
0.210141
0.210011
0.207961
0.204394
0.199696
0.194247
0.188127
0.180837
0.172938
0.169375
0.138128
0.13561
0.147088
0.166762
0.187796
0.206151
0.220166
0.22971
0.235292
0.237558
0.237118
0.234511
0.230194
0.224562
0.21799
0.210826
0.203116
0.194459
0.185577
0.180963
0.193639
0.189693
0.199103
0.215845
0.233369
0.248042
0.258468
0.26463
0.267074
0.266446
0.263348
0.258304
0.251763
0.244107
0.235698
0.226855
0.217611
0.207648
0.197761
0.191992
0.24791
0.242546
0.249855
0.263638
0.277663
0.2887
0.295598
0.298448
0.297821
0.294366
0.288672
0.281254
0.272546
0.262921
0.252725
0.242253
0.231533
0.220316
0.209416
0.202445
0.300499
0.29374
0.298943
0.309781
0.32036
0.327842
0.331307
0.33094
0.327338
0.321144
0.312939
0.303224
0.292424
0.2809
0.26898
0.25694
0.244807
0.232389
0.220487
0.212298
0.350976
0.342862
0.345983
0.353926
0.36115
0.365194
0.365352
0.361893
0.355433
0.346611
0.335998
0.324085
0.311282
0.29794
0.284374
0.270837
0.257362
0.243802
0.230924
0.221521
0.398932
0.389515
0.390606
0.395744
0.39974
0.400496
0.397502
0.391101
0.381925
0.370607
0.35771
0.34371
0.32901
0.313947
0.298821
0.28387
0.269128
0.254492
0.240677
0.230086
0.443978
0.433324
0.432464
0.434919
0.435851
0.433502
0.427539
0.418371
0.406642
0.39298
0.377937
0.361981
0.345502
0.328826
0.312241
0.295966
0.280043
0.264406
0.249701
0.237964
0.48575
0.473937
0.471231
0.47116
0.469225
0.46398
0.455257
0.44352
0.429421
0.413586
0.396555
0.378786
0.36066
0.342493
0.324557
0.307059
0.290048
0.273489
0.257954
0.245126
0.52391
0.511029
0.506607
0.504197
0.499619
0.491719
0.480467
0.466379
0.450115
0.432293
0.413446
0.394023
0.374394
0.354867
0.335699
0.317087
0.299088
0.281693
0.265395
0.251548
0.558152
0.544304
0.538319
0.533784
0.526818
0.516522
0.502996
0.486795
0.468586
0.44898
0.428503
0.407596
0.38662
0.365874
0.345604
0.325995
0.307114
0.288974
0.271987
0.257207
0.5882
0.573497
0.566121
0.559701
0.550624
0.538217
0.52269
0.504631
0.484711
0.463538
0.441631
0.419422
0.397265
0.375449
0.354213
0.333732
0.31408
0.295292
0.277697
0.262085
0.613813
0.598377
0.5898
0.581757
0.570867
0.556652
0.539413
0.519765
0.498385
0.475874
0.452745
0.429425
0.406261
0.383536
0.361477
0.340253
0.319948
0.300612
0.282498
0.266165
0.634787
0.618747
0.609174
0.599788
0.587401
0.571697
0.553049
0.532096
0.509515
0.485905
0.461775
0.437544
0.413555
0.390085
0.367353
0.345522
0.324685
0.304904
0.286363
0.269433
0.650953
0.634445
0.624094
0.61366
0.600108
0.583247
0.563504
0.541538
0.518027
0.493567
0.468661
0.443726
0.4191
0.395055
0.371805
0.349508
0.328263
0.30814
0.289271
0.271878
0.662183
0.645346
0.634447
0.623272
0.608897
0.591219
0.570706
0.548028
0.523863
0.498807
0.473358
0.447931
0.422861
0.398416
0.374806
0.352186
0.330659
0.310303
0.291207
0.273496
0.668388
0.651366
0.640153
0.628551
0.613704
0.595557
0.574604
0.55152
0.526984
0.50159
0.475835
0.450132
0.424813
0.400146
0.376338
0.353541
0.331861
0.31138
0.292169
0.274302
0.669517
0.652457
0.641167
0.629459
0.614493
0.59623
0.57517
0.551989
0.527367
0.501896
0.476074
0.450313
0.424944
0.400234
0.376389
0.353562
0.33186
0.311365
0.292157
0.274294
0.665561
0.648609
0.637482
0.625988
0.611259
0.593233
0.572398
0.54943
0.525007
0.499722
0.474072
0.44847
0.423249
0.398676
0.374958
0.352248
0.330652
0.310252
0.291144
0.273426
0.656552
0.639853
0.629126
0.618163
0.604022
0.586583
0.566307
0.543859
0.519919
0.495079
0.469839
0.444614
0.419737
0.395479
0.37205
0.349604
0.328242
0.308038
0.289115
0.271678
0.642561
0.626258
0.616161
0.60604
0.592835
0.576327
0.556935
0.535312
0.512133
0.487995
0.4634
0.438765
0.414428
0.390661
0.367679
0.345641
0.324642
0.304741
0.286103
0.269074
0.6237
0.607929
0.598687
0.589708
0.577774
0.562534
0.544345
0.523843
0.501699
0.478514
0.454793
0.430958
0.407351
0.384248
0.36187
0.340383
0.319871
0.300382
0.282136
0.265665
0.600118
0.585012
0.576835
0.569286
0.558946
0.545298
0.528622
0.509527
0.488683
0.466694
0.44407
0.421238
0.398546
0.376275
0.354654
0.333854
0.313953
0.294981
0.277227
0.261447
0.572003
0.557687
0.550772
0.544923
0.536484
0.524738
0.509869
0.492457
0.473169
0.452609
0.431297
0.409663
0.388064
0.366786
0.346069
0.326091
0.306919
0.288565
0.271393
0.256422
0.539579
0.526169
0.520697
0.516798
0.510546
0.500995
0.488214
0.472747
0.455254
0.436347
0.41655
0.396302
0.375965
0.355836
0.336163
0.317133
0.298805
0.281167
0.264662
0.250605
0.503104
0.490706
0.48684
0.485116
0.481317
0.474231
0.4638
0.450523
0.435055
0.41801
0.39992
0.381234
0.36232
0.343485
0.324988
0.307028
0.289655
0.272827
0.257068
0.244015
0.46287
0.45158
0.449459
0.45011
0.449001
0.444631
0.436792
0.425933
0.412699
0.397711
0.381508
0.364547
0.347207
0.329802
0.312607
0.29583
0.279514
0.263586
0.248644
0.236674
0.419198
0.4091
0.408841
0.412038
0.413829
0.412397
0.40737
0.399136
0.38833
0.375577
0.361425
0.34634
0.330712
0.314865
0.299086
0.283597
0.268436
0.253493
0.239432
0.228605
0.372438
0.363603
0.365298
0.371179
0.37605
0.377751
0.375731
0.370308
0.362103
0.351746
0.339793
0.326722
0.312931
0.298757
0.284498
0.270395
0.256478
0.242598
0.229472
0.219837
0.322964
0.315451
0.319165
0.327836
0.33593
0.34093
0.342085
0.339635
0.334184
0.326364
0.316742
0.305806
0.293965
0.281566
0.268923
0.256292
0.243702
0.230957
0.21881
0.210396
0.271174
0.265027
0.270798
0.282329
0.293755
0.302187
0.306656
0.307316
0.304748
0.299587
0.292409
0.283714
0.273921
0.263388
0.252443
0.241363
0.230174
0.218628
0.207494
0.200315
0.217482
0.212733
0.22057
0.234993
0.249823
0.261785
0.269679
0.273559
0.27398
0.271579
0.26694
0.260573
0.252911
0.244321
0.235145
0.225684
0.215966
0.205676
0.195572
0.189621
0.16232
0.158985
0.168871
0.186179
0.204445
0.22
0.231397
0.238581
0.242073
0.242509
0.240483
0.236517
0.231053
0.224469
0.21712
0.209334
0.201151
0.192175
0.1831
0.178341
0.10613
0.104212
0.1161
0.136249
0.157941
0.177115
0.192062
0.202603
0.209222
0.212551
0.213194
0.211681
0.208467
0.203939
0.198461
0.192395
0.185808
0.178211
0.170147
0.166492
0.0493619
0.0488495
0.0626652
0.0855726
0.11064
0.133419
0.151928
0.165852
0.175628
0.181884
0.185228
0.186203
0.185275
0.182838
0.179264
0.174945
0.170008
0.163882
0.156803
0.154054
-0.00753059
-0.00666407
0.00898124
0.0345245
0.0628736
0.0892067
0.111255
0.128557
0.141495
0.150686
0.156745
0.160224
0.1616
0.161277
0.159628
0.157062
0.153807
0.149293
0.143275
0.140995
-0.064094
-0.0618921
-0.0445377
-0.0165179
0.0149775
0.0447714
0.0703029
0.0909473
0.107024
0.119137
0.127903
0.133883
0.137566
0.139366
0.139653
0.138838
0.137253
0.134509
0.129877
0.127124
-0.119877
-0.116406
-0.0974789
-0.0671782
-0.0327152
0.000407033
0.0293293
0.0532512
0.0724187
0.0874155
0.0988601
0.10732
0.113295
0.117212
0.119438
0.120362
0.120371
0.119426
0.116947
0.112909
-0.174428
-0.169788
-0.149435
-0.117086
-0.079875
-0.043597
-0.0114111
0.015693
0.037876
0.0556964
0.0697709
0.0806716
0.0889076
0.0949179
0.099075
0.101737
0.10329
0.10399
0.103733
0.101374
-0.22734
-0.221604
-0.200015
-0.165881
-0.12618
-0.0869576
-0.0516701
-0.0215085
0.00358986
0.0241511
0.0407867
0.054072
0.0645223
0.0725882
0.078653
0.0830552
0.0861462
0.0883533
0.0900493
0.0898885
-0.278502
-0.271305
-0.248863
-0.213219
-0.171318
-0.129401
-0.0912076
-0.0581419
-0.0302531
-0.00705521
0.0120539
0.0276504
0.0402538
0.0503236
0.0582559
0.0643832
0.0690194
0.0726497
0.0759268
0.0775224
-0.327213
-0.318672
-0.295724
-0.258781
-0.214994
-0.170666
-0.129794
-0.0940053
-0.0634744
-0.0377647
-0.016288
0.00153034
0.0162116
0.0282209
0.0379655
0.0457803
0.0519508
0.0569615
0.0615967
0.0646229
-0.373094
-0.363443
-0.34004
-0.30234
-0.256931
-0.210503
-0.167212
-0.128908
-0.0959056
-0.0678282
-0.0441067
-0.0241712
-0.00750069
0.00637235
0.0178624
0.0273101
0.0349844
0.0413494
0.0472495
0.051595
-0.41589
-0.405292
-0.381493
-0.343521
-0.296892
-0.24868
-0.203258
-0.162671
-0.127389
-0.0971062
-0.0712786
-0.0493446
-0.0307859
-0.0151354
-0.00197512
0.00904125
0.0181746
0.0258635
0.0329765
0.0385871
-0.455369
-0.443951
-0.419968
-0.381849
-0.334679
-0.284982
-0.237743
-0.195131
-0.157781
-0.125471
-0.0976898
-0.0738884
-0.0535537
-0.0362215
-0.0214735
-0.00895915
0.00157852
0.0105489
0.0188206
0.0256413
-0.491333
-0.47918
-0.455251
-0.417303
-0.369834
-0.319268
-0.270496
-0.226138
-0.18695
-0.152805
-0.123237
-0.0977103
-0.0757216
-0.0568114
-0.0405652
-0.0266295
-0.0147496
-0.00454965
0.00482196
0.0127972
-0.523619
-0.510803
-0.487136
-0.449718
-0.402333
-0.351232
-0.301376
-0.255561
-0.21478
-0.179007
-0.147827
-0.120728
-0.0972152
-0.076838
-0.0591891
-0.043914
-0.0307594
-0.0193855
-0.00897161
0.000104124
-0.552105
-0.538698
-0.515474
-0.478912
-0.432037
-0.3808
-0.330225
-0.283282
-0.241171
-0.203986
-0.171378
-0.142871
-0.117969
-0.0962412
-0.0772906
-0.0607622
-0.0464044
-0.0339138
-0.022512
-0.0123903
-0.576721
-0.562803
-0.540174
-0.504758
-0.458806
-0.407865
-0.356952
-0.309219
-0.266042
-0.22767
-0.193822
-0.164079
-0.137924
-0.114969
-0.0948216
-0.0771291
-0.0616425
-0.0480941
-0.0357573
-0.0246447
-0.597453
-0.583106
-0.561203
-0.527187
-0.482542
-0.432331
-0.381478
-0.33329
-0.28934
-0.250015
-0.215103
-0.184302
-0.157031
-0.132979
-0.111741
-0.0929758
-0.0764365
-0.0618917
-0.0486722
-0.0366234
-0.614345
-0.599652
-0.578578
-0.546181
-0.503195
-0.454131
-0.403741
-0.355443
-0.311005
-0.270976
-0.235241
-0.203468
-0.175253
-0.150238
-0.128014
-0.10827
-0.0907526
-0.0752778
-0.0612273
-0.0482939
-0.627493
-0.612542
-0.592373
-0.561768
-0.520755
-0.473233
-0.423706
-0.375646
-0.331005
-0.290505
-0.254139
-0.221612
-0.192592
-0.166711
-0.143613
-0.122988
-0.104564
-0.0882257
-0.0733976
-0.059628
-0.637047
-0.621927
-0.602713
-0.574026
-0.53525
-0.489638
-0.441359
-0.393886
-0.349333
-0.308592
-0.271788
-0.238699
-0.209019
-0.182403
-0.158532
-0.137107
-0.117861
-0.100703
-0.0851548
-0.0706084
-0.643206
-0.628008
-0.609775
-0.583081
-0.546752
-0.503375
-0.456713
-0.410171
-0.365996
-0.325253
-0.288204
-0.254716
-0.224514
-0.197291
-0.172752
-0.150622
-0.130647
-0.11269
-0.0964688
-0.0812443
-0.646212
-0.631032
-0.613782
-0.589107
-0.555373
-0.514508
-0.469804
-0.424526
-0.381017
-0.340509
-0.303408
-0.269674
-0.239085
-0.211371
-0.186262
-0.16351
-0.142873
-0.124203
-0.107318
-0.0915727
-0.646343
-0.631278
-0.614997
-0.59232
-0.561265
-0.523133
-0.480692
-0.436994
-0.394432
-0.354391
-0.317425
-0.283598
-0.252751
-0.224654
-0.199068
-0.175768
-0.154534
-0.13523
-0.117719
-0.101428
-0.643907
-0.629056
-0.613717
-0.592975
-0.564619
-0.529374
-0.489458
-0.447636
-0.406292
-0.366943
-0.330293
-0.29652
-0.265537
-0.23716
-0.211184
-0.187409
-0.165641
-0.145757
-0.12765
-0.110801
-0.639232
-0.624696
-0.610264
-0.59136
-0.565658
-0.533389
-0.496207
-0.456526
-0.416658
-0.378219
-0.342061
-0.308482
-0.277477
-0.248916
-0.222629
-0.198447
-0.176202
-0.155779
-0.13711
-0.11973
-0.632659
-0.618537
-0.604973
-0.587784
-0.564638
-0.535362
-0.501064
-0.463755
-0.425603
-0.388286
-0.352788
-0.319535
-0.288615
-0.259955
-0.233427
-0.208897
-0.186223
-0.165302
-0.146105
-0.128237
-0.624531
-0.610917
-0.598183
-0.582572
-0.561837
-0.535504
-0.504177
-0.469427
-0.433212
-0.397216
-0.362541
-0.329739
-0.298998
-0.270316
-0.24361
-0.21878
-0.195718
-0.174334
-0.154633
-0.136312
-0.615183
-0.602168
-0.59023
-0.576051
-0.557547
-0.534044
-0.505708
-0.473656
-0.439572
-0.405088
-0.371391
-0.339158
-0.308685
-0.280046
-0.253213
-0.228124
-0.204704
-0.182883
-0.162693
-0.143939
-0.604937
-0.592601
-0.58143
-0.568541
-0.552067
-0.531229
-0.50584
-0.476571
-0.444782
-0.411985
-0.379416
-0.347864
-0.317739
-0.289199
-0.262278
-0.236958
-0.213203
-0.190963
-0.170287
-0.151108
-0.594094
-0.582506
-0.57208
-0.560348
-0.545693
-0.527316
-0.504767
-0.47831
-0.448941
-0.417993
-0.386695
-0.355932
-0.326227
-0.297833
-0.270852
-0.245317
-0.221236
-0.198585
-0.177421
-0.157816
-0.582925
-0.572141
-0.562441
-0.551748
-0.538707
-0.522562
-0.502695
-0.479019
-0.452156
-0.423196
-0.393307
-0.363439
-0.334221
-0.30601
-0.278986
-0.253242
-0.228829
-0.205766
-0.184103
-0.16406
-0.571672
-0.56173
-0.552745
-0.542988
-0.531368
-0.517218
-0.499834
-0.478856
-0.454538
-0.427682
-0.399332
-0.370461
-0.341794
-0.313795
-0.286736
-0.260772
-0.236013
-0.21252
-0.190338
-0.169835
-0.560542
-0.551464
-0.54318
-0.534278
-0.523906
-0.511518
-0.496395
-0.477981
-0.4562
-0.431534
-0.404843
-0.377072
-0.34902
-0.321258
-0.294158
-0.267955
-0.242816
-0.218866
-0.196132
-0.175135
-0.549707
-0.541496
-0.533902
-0.525786
-0.516516
-0.505674
-0.492581
-0.476561
-0.45726
-0.434837
-0.409912
-0.383342
-0.35597
-0.328467
-0.301313
-0.274836
-0.249271
-0.224818
-0.201489
-0.17995
-0.539305
-0.531945
-0.525027
-0.517645
-0.509355
-0.499868
-0.488579
-0.474757
-0.457839
-0.437672
-0.4146
-0.389333
-0.36271
-0.335487
-0.308261
-0.281464
-0.255411
-0.230392
-0.206408
-0.184268
-0.52944
-0.522899
-0.516638
-0.509949
-0.502545
-0.494251
-0.484556
-0.472728
-0.458057
-0.44012
-0.418964
-0.395097
-0.369297
-0.342382
-0.315061
-0.287887
-0.261267
-0.235603
-0.210888
-0.18807
-0.520184
-0.514413
-0.508787
-0.50276
-0.496169
-0.488938
-0.480651
-0.470614
-0.458031
-0.442259
-0.423053
-0.400672
-0.375777
-0.349205
-0.321768
-0.294152
-0.266873
-0.240461
-0.21492
-0.191331
-0.511575
-0.506513
-0.501497
-0.496109
-0.49028
-0.48401
-0.476974
-0.468537
-0.457868
-0.444161
-0.426905
-0.406083
-0.382179
-0.355997
-0.328429
-0.300303
-0.272257
-0.244976
-0.218492
-0.194018
-0.503618
-0.499198
-0.494764
-0.489999
-0.484898
-0.479515
-0.473603
-0.466594
-0.457661
-0.445892
-0.43055
-0.411339
-0.388512
-0.362781
-0.335081
-0.306379
-0.277447
-0.249153
-0.221578
-0.196084
-0.496286
-0.492438
-0.488559
-0.484404
-0.480011
-0.475466
-0.470579
-0.464848
-0.457478
-0.447501
-0.434005
-0.416428
-0.39476
-0.369557
-0.341743
-0.312407
-0.282467
-0.252994
-0.224151
-0.197464
-0.489517
-0.486177
-0.482828
-0.479276
-0.475581
-0.47184
-0.467904
-0.463327
-0.457361
-0.44902
-0.437273
-0.421324
-0.400885
-0.376297
-0.348411
-0.318403
-0.287334
-0.256498
-0.226163
-0.198086
-0.483223
-0.480336
-0.477497
-0.474542
-0.471537
-0.46858
-0.465541
-0.462018
-0.457312
-0.450452
-0.440336
-0.425979
-0.40682
-0.382943
-0.355055
-0.324366
-0.292061
-0.259674
-0.227585
-0.19781
-0.47729
-0.474817
-0.472468
-0.470105
-0.467787
-0.465597
-0.463413
-0.460864
-0.457295
-0.451768
-0.443152
-0.430324
-0.412475
-0.389407
-0.361613
-0.33027
-0.296658
-0.26253
-0.228401
-0.196609
-0.47159
-0.469507
-0.467638
-0.465858
-0.464216
-0.462775
-0.461409
-0.459765
-0.457228
-0.452901
-0.445653
-0.434271
-0.417739
-0.395568
-0.367991
-0.336068
-0.301119
-0.265137
-0.228721
-0.194241
-0.465988
-0.464294
-0.462894
-0.461684
-0.460699
-0.459979
-0.45939
-0.458589
-0.456993
-0.453747
-0.44774
-0.437712
-0.42248
-0.401287
-0.374067
-0.341683
-0.305455
-0.267454
-0.229179
-0.1917
-0.46036
-0.459067
-0.458129
-0.457467
-0.457109
-0.45707
-0.457206
-0.457182
-0.456442
-0.454171
-0.44929
-0.440519
-0.426556
-0.406406
-0.379696
-0.347013
-0.309666
-0.269571
-0.229661
-0.188741
-0.454597
-0.453732
-0.453249
-0.453106
-0.45333
-0.453916
-0.454711
-0.455389
-0.455417
-0.454022
-0.450159
-0.442551
-0.429817
-0.410761
-0.384721
-0.351938
-0.313701
-0.271469
-0.229752
-0.185427
-0.448621
-0.44822
-0.448181
-0.448518
-0.449266
-0.450405
-0.451778
-0.45307
-0.453774
-0.453154
-0.450206
-0.443669
-0.432116
-0.414194
-0.388982
-0.356337
-0.317493
-0.273168
-0.229625
-0.18134
-0.442391
-0.442487
-0.442879
-0.443649
-0.444853
-0.44646
-0.448316
-0.450122
-0.451398
-0.451448
-0.449309
-0.443749
-0.433323
-0.416565
-0.392335
-0.360097
-0.321003
-0.274762
-0.229687
-0.176769
-0.435906
-0.436529
-0.43733
-0.438479
-0.440062
-0.442044
-0.444279
-0.44649
-0.448225
-0.448832
-0.447391
-0.442711
-0.433351
-0.417775
-0.394668
-0.363142
-0.324211
-0.276432
-0.230366
-0.172308
-0.429206
-0.430373
-0.431556
-0.433025
-0.434905
-0.437165
-0.439673
-0.442173
-0.44425
-0.445298
-0.444438
-0.440534
-0.432172
-0.417785
-0.395929
-0.365444
-0.327117
-0.278452
-0.232
-0.168721
-0.422371
-0.42408
-0.42561
-0.427336
-0.429433
-0.431875
-0.434552
-0.437233
-0.439541
-0.440905
-0.440512
-0.437281
-0.429842
-0.416642
-0.396149
-0.367037
-0.329772
-0.281142
-0.234832
-0.166987
-0.415512
-0.417744
-0.419576
-0.421497
-0.423732
-0.426268
-0.429017
-0.431778
-0.434209
-0.435786
-0.435753
-0.433094
-0.426511
-0.414494
-0.39547
-0.368033
-0.332351
-0.284794
-0.239125
-0.168303
-0.408764
-0.411478
-0.413563
-0.415616
-0.417916
-0.420467
-0.423205
-0.42596
-0.428425
-0.430124
-0.430363
-0.428199
-0.422421
-0.411594
-0.394156
-0.368627
-0.335196
-0.289654
-0.245325
-0.173933
-0.402276
-0.405408
-0.407689
-0.409815
-0.412116
-0.414616
-0.417275
-0.419956
-0.422388
-0.424142
-0.424591
-0.422873
-0.417882
-0.408283
-0.392603
-0.369485
-0.338311
-0.29615
-0.253917
-0.185021
-0.396195
-0.399663