/*--------------------------------*- C++ -*----------------------------------*\
  =========                 |
  \\      /  F ield         | OpenFOAM: The Open Source CFD Toolbox
   \\    /   O peration     | Website:  https://openfoam.org
    \\  /    A nd           | Version:  7
     \\/     M anipulation  |
\*---------------------------------------------------------------------------*/
FoamFile
{
    version     2.0;
    format      ascii;
    class       volVectorField;
    location    "2";
    object      U;
}
// * * * * * * * * * * * * * * * * * * * * * * * * * * * * * * * * * * * * * //

dimensions      [0 1 -1 0 0 0 0];

internalField   nonuniform List<vector> 
433
(
(0.393737 0.445092 1.07457e-19)
(0.415104 0.454617 -1.4534e-19)
(0.436249 0.462235 1.02595e-19)
(0.457121 0.467921 -2.08138e-20)
(0.477676 0.471666 2.60989e-20)
(0.497869 0.473486 -1.09648e-20)
(0.343522 0.414534 -3.33105e-20)
(0.364393 0.425144 -6.32288e-20)
(0.385214 0.433956 1.2158e-19)
(0.405934 0.440932 -3.23344e-20)
(0.426506 0.446054 6.44925e-21)
(0.44688 0.449319 -3.15412e-20)
(0.467013 0.450746 -1.00101e-19)
(0.486863 0.450373 -4.69191e-20)
(0.506393 0.448257 -2.74534e-20)
(0.52557 0.444475 1.18492e-19)
(0.295774 0.381121 -8.24255e-20)
(0.315912 0.392602 5.27918e-20)
(0.336167 0.402412 2.03076e-20)
(0.356491 0.410506 -1.90912e-19)
(0.376834 0.416851 1.11328e-19)
(0.397147 0.421435 -8.77183e-21)
(0.417379 0.424259 8.68715e-20)
(0.437484 0.425344 8.90352e-20)
(0.457416 0.424731 -4.0348e-20)
(0.477132 0.422478 6.66104e-20)
(0.496595 0.418663 -9.31202e-20)
(0.51577 0.41338 2.08623e-20)
(0.534626 0.406738 -5.98865e-20)
(0.553138 0.39886 -4.43752e-21)
(0.571286 0.389879 5.20419e-20)
(0.232109 0.331796 -4.4872e-20)
(0.250975 0.345362 4.52431e-20)
(0.27016 0.357464 -1.11684e-19)
(0.289622 0.368039 1.42808e-19)
(0.309315 0.377033 1.43339e-20)
(0.329192 0.384407 -9.385e-21)
(0.349201 0.390135 -1.11389e-19)
(0.369293 0.394206 1.03631e-19)
(0.389416 0.396627 -2.21529e-20)
(0.409521 0.397421 3.09678e-20)
(0.429556 0.396629 -1.93192e-19)
(0.449474 0.394311 6.55671e-20)
(0.469232 0.390541 5.14553e-20)
(0.488786 0.38541 1.47679e-20)
(0.508098 0.379026 -1.1425e-19)
(0.527135 0.371504 6.59818e-20)
(0.545866 0.362971 -5.36589e-20)
(0.564265 0.353561 -2.62678e-20)
(0.58231 0.343408 5.1854e-20)
(0.599982 0.33265 4.33746e-20)
(0.191971 0.294097 -4.17061e-20)
(0.20955 0.307844 4.48328e-20)
(0.227589 0.320286 5.52758e-20)
(0.246051 0.331356 -6.03102e-20)
(0.264896 0.340998 3.91729e-20)
(0.28408 0.349164 -2.94689e-20)
(0.303556 0.355819 -3.34263e-20)
(0.323273 0.360943 -1.21308e-20)
(0.34318 0.364529 4.53117e-21)
(0.363223 0.366585 -1.38672e-20)
(0.383348 0.367137 -4.81985e-20)
(0.403502 0.366225 3.01578e-20)
(0.423631 0.363907 1.78614e-19)
(0.443684 0.360256 -2.22928e-19)
(0.463612 0.355359 7.04486e-20)
(0.48337 0.349316 7.0277e-20)
(0.502915 0.342238 4.42813e-20)
(0.522207 0.334242 -1.94141e-20)
(0.541213 0.325455 -2.85038e-20)
(0.559901 0.316002 -1.74605e-20)
(0.578244 0.306009 1.20325e-19)
(0.596213 0.295603 -8.76395e-20)
(0.613787 0.284901 1.30628e-19)
(0.630999 0.273996 -3.31709e-20)
(0.647885 0.262953 -5.1181e-20)
(0.155708 0.255609 -7.11465e-20)
(0.171853 0.269224 7.42201e-20)
(0.188582 0.281698 -1.17278e-19)
(0.205866 0.292966 9.90622e-21)
(0.223672 0.302968 1.07008e-19)
(0.24196 0.311653 -4.00786e-21)
(0.260688 0.31898 -6.56142e-20)
(0.279809 0.324919 -1.64485e-20)
(0.299273 0.329454 5.89207e-20)
(0.319026 0.33258 -7.3118e-20)
(0.339012 0.334309 4.15788e-20)
(0.359175 0.334665 1.96457e-20)
(0.379456 0.333688 -1.01731e-19)
(0.399796 0.331434 9.04032e-20)
(0.42014 0.327971 2.44739e-20)
(0.44043 0.323381 1.27992e-19)
(0.460615 0.317758 -2.32901e-19)
(0.480643 0.311203 1.23207e-19)
(0.500468 0.303826 -1.09626e-20)
(0.520046 0.295743 -2.57845e-20)
(0.53934 0.287069 -5.16765e-20)
(0.558313 0.27792 2.47477e-20)
(0.576931 0.268411 6.7852e-20)
(0.595167 0.25865 -1.40915e-19)
(0.613038 0.248723 -6.40584e-20)
(0.630565 0.238695 2.07257e-20)
(0.647308 0.228777 1.3983e-19)
(0.123551 0.217059 -7.85421e-20)
(0.138155 0.230212 2.11089e-20)
(0.153447 0.242393 1.3693e-19)
(0.169409 0.253538 -6.29609e-20)
(0.186013 0.263586 3.1387e-21)
(0.20323 0.272487 -1.66088e-20)
(0.221022 0.280195 5.45836e-20)
(0.239346 0.286675 -9.46354e-20)
(0.258158 0.291902 7.69388e-20)
(0.277404 0.295862 1.79478e-20)
(0.297031 0.298554 -1.19463e-20)
(0.316981 0.29999 -1.09057e-19)
(0.337192 0.300193 1.93014e-19)
(0.357603 0.299203 -4.164e-20)
(0.37815 0.297071 -4.21232e-20)
(0.398772 0.293859 -1.20668e-21)
(0.419405 0.289644 -6.80752e-20)
(0.439989 0.284511 -5.96858e-20)
(0.460469 0.278552 -2.8435e-20)
(0.480788 0.271868 1.91572e-19)
(0.500898 0.264561 -9.31401e-20)
(0.520752 0.256738 1.33508e-19)
(0.540307 0.248503 3.9898e-21)
(0.559524 0.239957 -1.77466e-19)
(0.57837 0.231198 1.26344e-19)
(0.596849 0.222306 7.13541e-20)
(0.614967 0.213343 -1.38202e-19)
(0.632363 0.204471 -6.25413e-21)
(0.108626 0.191558 -5.5501e-20)
(0.122397 0.203109 1.04075e-20)
(0.136932 0.213795 6.22313e-22)
(0.152213 0.223558 -4.13344e-20)
(0.168217 0.232347 4.58684e-20)
(0.184915 0.240118 2.61211e-20)
(0.202271 0.246831 -8.82318e-20)
(0.220245 0.252458 4.76012e-20)
(0.238789 0.256976 -6.21867e-20)
(0.257853 0.260376 3.94842e-20)
(0.277378 0.262657 6.32317e-20)
(0.297306 0.263832 -1.30059e-19)
(0.317572 0.263923 -9.95909e-21)
(0.33811 0.262966 5.97655e-20)
(0.358853 0.261008 -2.06765e-20)
(0.379733 0.258105 6.79458e-20)
(0.400682 0.254326 -9.19606e-21)
(0.421634 0.249745 -1.07865e-19)
(0.442525 0.244448 8.18027e-20)
(0.463295 0.238521 -3.56303e-20)
(0.483887 0.232056 1.5668e-19)
(0.504248 0.225148 -1.55626e-19)
(0.52433 0.217886 4.7324e-20)
(0.544088 0.210362 -1.36717e-20)
(0.563484 0.202661 -1.3592e-19)
(0.582511 0.194854 4.98679e-20)
(0.601164 0.186999 7.11755e-20)
(0.619152 0.179216 -6.41907e-20)
(0.0833364 0.154029 4.11961e-20)
(0.0955455 0.164612 -2.40342e-21)
(0.108592 0.174497 -3.75367e-20)
(0.122468 0.183632 6.48219e-20)
(0.137159 0.191969 -7.00745e-20)
(0.152644 0.199465 5.4943e-20)
(0.168895 0.206081 -6.4154e-21)
(0.185877 0.211786 -2.20002e-20)
(0.203552 0.216553 3.20948e-20)
(0.221871 0.220367 -1.21059e-19)
(0.240782 0.22322 5.62034e-20)
(0.260227 0.225112 5.98311e-20)
(0.280144 0.226054 -7.19679e-20)
(0.300466 0.226069 1.34749e-19)
(0.321124 0.225187 -8.78939e-20)
(0.342046 0.223448 -3.65197e-21)
(0.363159 0.220905 6.02958e-20)
(0.384391 0.217614 -8.05891e-20)
(0.405671 0.213643 2.21337e-20)
(0.426928 0.209063 6.5254e-20)
(0.448098 0.20395 -1.17659e-19)
(0.469116 0.198384 1.3968e-20)
(0.489925 0.192444 -4.85731e-21)
(0.510471 0.18621 3.13707e-20)
(0.530706 0.179758 7.21909e-20)
(0.550587 0.173161 -2.15617e-20)
(0.570096 0.166483 -1.33571e-19)
(0.589218 0.159773 6.81307e-20)
(0.607731 0.153119 4.97138e-20)
(0.062243 0.118389 -7.67176e-20)
(0.072896 0.127674 3.91818e-20)
(0.08444 0.13642 3.79154e-20)
(0.0968755 0.144584 -2.68551e-20)
(0.110197 0.152122 3.87423e-20)
(0.124391 0.158996 -6.26529e-20)
(0.139439 0.165169 1.42531e-20)
(0.155316 0.17061 2.86842e-20)
(0.171987 0.175293 -2.77181e-21)
(0.189413 0.179198 1.66928e-22)
(0.207547 0.182312 -4.35236e-20)
(0.226335 0.184629 1.79943e-20)
(0.245718 0.18615 -3.36588e-20)
(0.265632 0.186886 4.91728e-20)
(0.286008 0.186855 -2.09845e-20)
(0.306772 0.186083 -5.26447e-20)
(0.327851 0.184605 8.63833e-20)
(0.349168 0.182463 -1.06248e-19)
(0.370645 0.179708 -1.64848e-20)
(0.392206 0.176393 1.71904e-20)
(0.413778 0.172578 -6.99271e-21)
(0.435289 0.168329 2.5057e-21)
(0.456672 0.163709 6.88961e-20)
(0.477864 0.158785 1.07357e-20)
(0.498807 0.153623 2.62477e-20)
(0.519448 0.148286 -2.74039e-20)
(0.539742 0.142834 -4.06751e-20)
(0.559662 0.13732 -2.44349e-20)
(0.579184 0.131786 -4.25605e-20)
(0.598145 0.126295 -3.29356e-20)
(0.0543415 0.0930539 -8.6343e-21)
(0.0644147 0.100337 8.58572e-20)
(0.0754205 0.107195 -7.23383e-20)
(0.0873617 0.113592 1.55716e-20)
(0.100235 0.119495 4.30061e-20)
(0.114029 0.124874 -1.33767e-21)
(0.128726 0.1297 -8.6243e-21)
(0.144302 0.133949 -5.65313e-20)
(0.160724 0.137601 8.47172e-20)
(0.177952 0.140641 -2.13634e-20)
(0.195939 0.143059 -2.00145e-20)
(0.214631 0.14485 -3.66914e-20)
(0.233968 0.146016 2.25214e-20)
(0.253884 0.146566 -3.59618e-20)
(0.274306 0.146514 5.96268e-20)
(0.295162 0.145882 -5.85908e-20)
(0.316372 0.144698 8.04503e-20)
(0.337856 0.142995 8.76807e-21)
(0.359535 0.140812 8.08473e-21)
(0.381328 0.138192 7.12952e-20)
(0.403158 0.135184 -1.24604e-19)
(0.424949 0.131837 1.1588e-19)
(0.446629 0.128203 -7.10728e-20)
(0.468133 0.124333 5.88169e-21)
(0.4894 0.12028 2.61087e-20)
(0.510372 0.116092 -6.41017e-20)
(0.531002 0.111818 6.62628e-20)
(0.551256 0.107498 3.64832e-21)
(0.571104 0.103167 -1.635e-20)
(0.590431 0.098866 5.12043e-20)
(0.0396633 0.0614749 -3.29e-20)
(0.0483438 0.0669919 3.50762e-20)
(0.057978 0.0722274 2.28963e-21)
(0.0685765 0.0771552 1.1598e-20)
(0.080144 0.0817501 -3.54716e-20)
(0.0926783 0.0859883 2.34492e-20)
(0.10617 0.0898476 -6.78602e-22)
(0.120603 0.0933081 -2.16437e-20)
(0.135953 0.0963525 1.96346e-20)
(0.152188 0.0989664 -3.82642e-20)
(0.169269 0.101139 1.96882e-21)
(0.187147 0.102864 1.91303e-20)
(0.205768 0.104137 3.49281e-20)
(0.225072 0.104961 2.48198e-20)
(0.244991 0.105342 -7.58576e-21)
(0.265452 0.10529 -4.26479e-20)
(0.286378 0.104822 2.14575e-21)
(0.30769 0.103957 2.9085e-21)
(0.329304 0.10272 -5.57561e-20)
(0.351137 0.101139 3.85904e-21)
(0.373108 0.0992461 -1.9127e-20)
(0.395134 0.0970749 3.71447e-20)
(0.417139 0.0946618 -8.95439e-21)
(0.439046 0.0920439 -3.02709e-20)
(0.460788 0.0892585 3.48541e-20)
(0.4823 0.0863427 -1.07571e-20)
(0.503525 0.083332 9.4049e-21)
(0.524411 0.0802605 4.22978e-20)
(0.544918 0.0771586 -7.36966e-20)
(0.565014 0.0740503 -1.59703e-20)
(0.58462 0.0709619 -8.26788e-21)
(0.0359454 0.0370811 -3.16305e-21)
(0.0443111 0.0404061 9.24635e-21)
(0.0536506 0.0435607 -2.07055e-20)
(0.0639759 0.0465292 -4.16287e-21)
(0.0752929 0.0492964 1.14368e-20)
(0.0876003 0.051848 9.14467e-21)
(0.10089 0.0541705 1.46486e-20)
(0.115146 0.0562521 -2.80294e-20)
(0.130346 0.0580824 4.43229e-21)
(0.146456 0.0596529 1.57603e-20)
(0.163438 0.060957 -1.24031e-20)
(0.181244 0.0619907 -1.79677e-20)
(0.199819 0.0627524 1.76811e-20)
(0.219102 0.063243 -2.08831e-20)
(0.239024 0.0634665 2.74605e-20)
(0.259512 0.0634296 -2.13813e-20)
(0.280487 0.0631418 -1.02499e-21)
(0.301867 0.0626154 2.39239e-20)
(0.323569 0.0618651 -8.76928e-21)
(0.345507 0.060908 -2.5397e-21)
(0.367598 0.0597633 7.82515e-21)
(0.389758 0.0584517 -1.11128e-20)
(0.411906 0.0569948 7.16846e-21)
(0.433967 0.0554152 3.28398e-21)
(0.455869 0.0537354 -8.30801e-21)
(0.477547 0.0519777 -1.84811e-20)
(0.498941 0.0501635 3.81818e-20)
(0.519999 0.0483132 5.27576e-21)
(0.540677 0.0464454 1.52132e-21)
(0.56094 0.0445746 1.2696e-20)
(0.580734 0.0427151 -8.29149e-21)
(0.0514761 0.0145578 6.77377e-21)
(0.0616643 0.0155493 -6.8276e-21)
(0.0728555 0.0164734 3.48291e-21)
(0.0850492 0.0173253 9.55585e-22)
(0.0982377 0.0181007 -4.34257e-21)
(0.112405 0.0187954 1.10917e-20)
(0.127529 0.0194062 -2.68974e-21)
(0.143577 0.01993 -6.60527e-21)
(0.16051 0.0203648 6.06709e-21)
(0.17828 0.0207092 5.56763e-21)
(0.196832 0.0209626 -8.52126e-21)
(0.216105 0.0211256 -3.22306e-21)
(0.236029 0.0211992 9.41499e-21)
(0.25653 0.0211859 7.91554e-22)
(0.27753 0.0210889 2.52099e-21)
(0.298945 0.0209121 -2.17493e-21)
(0.320692 0.0206606 9.88985e-22)
(0.342683 0.0203402 6.68965e-21)
(0.364834 0.0199572 6.7751e-21)
(0.387061 0.0195184 -9.05654e-21)
(0.409282 0.0190313 -5.45351e-21)
(0.43142 0.0185033 6.72471e-21)
(0.453402 0.0179419 5.97088e-21)
(0.475163 0.0173547 -1.57287e-20)
(0.496643 0.0167486 -2.53113e-21)
(0.517788 0.0161306 4.43783e-21)
(0.538552 0.0155069 1.25065e-21)
(0.558898 0.0148824 2.31784e-21)
(0.578787 0.0142614 -5.47458e-21)
(0.999885 0.000133819 1.64252e-21)
(0.99253 0.000474538 -1.03797e-21)
(0.976381 0.000915676 5.68039e-23)
(0.95353 0.00149136 -7.89293e-22)
(0.922693 0.00220446 2.14201e-22)
(0.885969 0.00320668 3.65676e-22)
(0.839398 0.00458818 1.03073e-21)
(0.784709 0.00645671 9.17131e-22)
(0.717734 0.00925777 -5.77929e-22)
(0.636562 0.0124622 -5.03271e-22)
(0.999885 0.000401505 -2.48276e-21)
(0.992531 0.00142353 2.26951e-21)
(0.976394 0.00274685 1.83256e-22)
(0.95356 0.00447322 -2.14074e-21)
(0.922771 0.00661167 1.3588e-21)
(0.886122 0.0096176 -1.92503e-21)
(0.839675 0.0137569 -1.03647e-21)
(0.785257 0.0193598 2.20735e-21)
(0.718597 0.0277471 -2.87901e-21)
(0.638123 0.037332 1.22794e-21)
(0.999885 0.000669361 4.13842e-21)
(0.992533 0.00237237 -3.09409e-21)
(0.976421 0.00457761 -5.471e-22)
(0.953621 0.00745264 4.84721e-21)
(0.922929 0.011014 -2.12286e-21)
(0.886428 0.0160213 -1.26021e-21)
(0.840229 0.0229029 5.21382e-21)
(0.786354 0.0322322 -8.8997e-21)
(0.720323 0.0461576 2.02006e-21)
(0.641243 0.0620386 8.27398e-21)
(0.999885 0.000937494 -1.93745e-21)
(0.992537 0.00332094 6.76047e-21)
(0.976461 0.00640764 1.18063e-21)
(0.953714 0.010428 -6.37904e-21)
(0.923165 0.0154081 1.69973e-21)
(0.886887 0.0224129 -2.32433e-21)
(0.841065 0.0320113 3.28143e-22)
(0.787996 0.0450535 -1.66596e-21)
(0.722911 0.0644362 -5.48013e-21)
(0.645916 0.0864747 -4.11314e-21)
(0.999885 0.001206 1.48802e-22)
(0.992542 0.00426906 -4.38813e-21)
(0.976514 0.00823658 -4.68836e-21)
(0.953838 0.0133975 2.79288e-21)
(0.923483 0.019791 -5.29564e-21)
(0.887499 0.0287871 3.14255e-21)
(0.842186 0.0410675 4.63022e-21)
(0.790182 0.0578035 -7.70917e-21)
(0.726363 0.082528 5.94907e-21)
(0.652132 0.110535 2.13277e-20)
(0.999885 0.00147498 -6.29015e-21)
(0.992549 0.00521659 -2.81193e-21)
(0.976582 0.010064 5.90272e-21)
(0.953995 0.0163595 1.71022e-21)
(0.923884 0.0241596 -1.69615e-21)
(0.888264 0.0351381 -5.075e-21)
(0.843598 0.0500574 -4.43866e-21)
(0.792905 0.0704623 -1.29861e-20)
(0.730679 0.100377 -5.33972e-21)
(0.659878 0.134118 2.51006e-20)
(0.999885 0.00174448 1.1284e-20)
(0.992558 0.00616358 -6.77031e-21)
(0.976665 0.0118894 1.20703e-20)
(0.954188 0.019312 -4.01013e-21)
(0.92437 0.0285109 2.2354e-21)
(0.889184 0.0414599 5.02135e-22)
(0.845309 0.0589675 8.78616e-21)
(0.796162 0.0830097 -2.67976e-21)
(0.735861 0.117925 5.45732e-21)
(0.669141 0.157125 -1.67414e-20)
(0.999885 0.00201455 3.53425e-21)
(0.99257 0.00710988 1.32231e-20)
(0.976764 0.0137123 -1.27761e-20)
(0.954417 0.0222532 1.46393e-20)
(0.924944 0.0328421 8.61294e-21)
(0.890259 0.0477458 -1.76086e-20)
(0.847327 0.0677853 -1.26767e-21)
(0.799947 0.0954252 -3.37203e-21)
(0.741913 0.135113 -3.53495e-21)
(0.6799 0.179466 1.23174e-20)
(0.999885 0.00228521 -2.40143e-20)
(0.992585 0.00805172 -5.55113e-21)
(0.976879 0.0155318 1.02758e-20)
(0.954685 0.025181 1.7144e-21)
(0.925609 0.0371503 -2.90198e-21)
(0.891493 0.0539886 5.92006e-21)
(0.849661 0.076499 8.76696e-21)
(0.804253 0.107688 1.84853e-20)
(0.748843 0.151877 -2.09562e-20)
(0.692131 0.201057 -1.289e-20)
(0.999885 0.00255651 1.69244e-20)
(0.992605 0.00898002 -4.1597e-21)
(0.977014 0.0173471 -1.30407e-20)
(0.954996 0.0280932 -2.1261e-20)
)
;

boundaryField
{
    inlet
    {
        type            uniformFixedValue;
        uniformValue    constant (1 0 0);
        value           uniform (1 0 0);
    }
    outlet
    {
        type            pressureInletOutletVelocity;
        value           nonuniform 0();
    }
    cylinder
    {
        type            fixedValue;
        value           nonuniform 0();
    }
    top
    {
        type            symmetryPlane;
    }
    bottom
    {
        type            symmetryPlane;
    }
    defaultFaces
    {
        type            empty;
    }
    procBoundary18to12
    {
        type            processor;
        value           nonuniform List<vector> 
42
(
(0.0340769 0.0123932 -2.56778e-21)
(0.0422845 0.0135041 6.74076e-21)
(0.0422845 0.0135041 6.74076e-21)
(0.051476 -0.0145575 2.1805e-21)
(0.0616642 -0.015549 8.0473e-21)
(0.0728554 -0.0164731 -3.76307e-21)
(0.0850492 -0.0173251 -1.42458e-21)
(0.0982376 -0.0181004 5.50819e-21)
(0.112405 -0.0187952 -1.31819e-20)
(0.127529 -0.0194059 4.10419e-21)
(0.143577 -0.0199298 7.2751e-21)
(0.16051 -0.0203646 -4.73579e-21)
(0.17828 -0.020709 -3.12199e-21)
(0.196832 -0.0209625 2.99599e-21)
(0.216105 -0.0211254 3.04083e-21)
(0.236029 -0.0211991 -5.36129e-21)
(0.25653 -0.0211858 3.82231e-21)
(0.27753 -0.0210888 1.18786e-21)
(0.298945 -0.020912 4.62684e-21)
(0.320692 -0.0206606 6.01465e-21)
(0.342683 -0.0203401 2.21321e-21)
(0.364834 -0.0199571 -6.20082e-21)
(0.387061 -0.0195184 -2.57478e-21)
(0.409282 -0.0190313 9.34784e-21)
(0.43142 -0.0185033 -5.32537e-21)
(0.453402 -0.0179419 -6.88366e-21)
(0.475163 -0.0173546 1.26019e-20)
(0.496643 -0.0167486 -4.24638e-21)
(0.517788 -0.0161306 -4.09994e-22)
(0.538552 -0.0155069 -2.57246e-22)
(0.558898 -0.0148823 4.89694e-21)
(0.578787 -0.0142614 -9.77653e-21)
(0.999885 -0.00013381 1.63755e-21)
(0.99253 -0.000474507 -9.92341e-22)
(0.976381 -0.000915633 2.17523e-23)
(0.95353 -0.0014913 -9.53796e-22)
(0.922693 -0.0022044 7.90824e-22)
(0.885969 -0.00320661 9.88687e-23)
(0.839398 -0.00458812 1.21057e-22)
(0.784709 -0.00645664 1.58656e-21)
(0.717734 -0.00925771 4.45917e-22)
(0.636562 -0.0124621 -1.91691e-21)
)
;
    }
    procBoundary18to19
    {
        type            processor;
        value           nonuniform List<vector> 
25
(
(0.423933 0.46214 1.64124e-19)
(0.445897 0.472372 -6.96379e-20)
(0.372199 0.433702 2.30767e-21)
(0.372199 0.433702 2.30767e-21)
(0.322652 0.402178 -1.67985e-20)
(0.322652 0.402178 -1.67985e-20)
(0.256042 0.353395 7.02389e-20)
(0.275802 0.368029 -1.08529e-19)
(0.275802 0.368029 -1.08529e-19)
(0.213603 0.316841 3.16502e-20)
(0.213603 0.316841 3.16502e-20)
(0.174885 0.279119 -2.29622e-20)
(0.174885 0.279119 -2.29622e-20)
(0.140171 0.240928 -8.49887e-20)
(0.140171 0.240928 -8.49887e-20)
(0.109653 0.203003 -3.06384e-20)
(0.0956302 0.179201 -1.16132e-19)
(0.0956302 0.179201 -1.16132e-19)
(0.0719675 0.142801 1.64405e-20)
(0.0719675 0.142801 1.64405e-20)
(0.0524747 0.108613 -6.1778e-22)
(0.0451921 0.0853817 3.05985e-20)
(0.0451921 0.0853817 3.05985e-20)
(0.0319201 0.055703 1.27161e-21)
(0.0285358 0.0336018 -5.30901e-21)
)
;
    }
    procBoundary18to24
    {
        type            processor;
        value           nonuniform List<vector> 
35
(
(0.467513 0.480639 -2.95708e-20)
(0.488732 0.486911 1.49907e-20)
(0.509509 0.491173 -3.26432e-20)
(0.529802 0.493435 1.5018e-19)
(0.517665 0.473414 3.06345e-20)
(0.517665 0.473414 3.06345e-20)
(0.53703 0.471506 4.03205e-23)
(0.555938 0.467839 -9.27358e-20)
(0.544368 0.439123 2.07425e-20)
(0.544368 0.439123 2.07425e-20)
(0.562765 0.432314 -2.87006e-20)
(0.580744 0.424174 4.74949e-20)
(0.598294 0.414841 2.36134e-21)
(0.589052 0.379935 2.07227e-20)
(0.589052 0.379935 2.07227e-20)
(0.606425 0.369173 -7.31567e-20)
(0.623394 0.357736 9.79762e-21)
(0.61726 0.321422 8.81903e-21)
(0.61726 0.321422 8.81903e-21)
(0.634129 0.30985 -2.05593e-20)
(0.650636 0.298031 1.37498e-19)
(0.666839 0.286029 -4.76947e-20)
(0.663924 0.252039 -1.14096e-19)
(0.663924 0.252039 -1.14096e-19)
(0.926368 0.0414328 -8.09584e-21)
(0.892889 0.0601807 -4.27778e-21)
(0.852322 0.0850983 6.09952e-21)
(0.809073 0.119774 -3.63089e-21)
(0.756661 0.168156 -2.13738e-20)
(0.705805 0.221825 1.3903e-20)
(0.999884 0.00282844 -1.96813e-21)
(0.992629 0.00992236 2.33894e-21)
(0.977168 0.0191573 -6.58023e-21)
(0.926368 0.0414328 -8.09584e-21)
(0.955352 0.0309877 -1.73245e-20)
)
;
    }
}


// ************************************************************************* //
