/*--------------------------------*- C++ -*----------------------------------*\
  =========                 |
  \\      /  F ield         | OpenFOAM: The Open Source CFD Toolbox
   \\    /   O peration     | Website:  https://openfoam.org
    \\  /    A nd           | Version:  7
     \\/     M anipulation  |
\*---------------------------------------------------------------------------*/
FoamFile
{
    version     2.0;
    format      ascii;
    class       volScalarField;
    location    "79.000054";
    object      p;
}
// * * * * * * * * * * * * * * * * * * * * * * * * * * * * * * * * * * * * * //

dimensions      [0 2 -2 0 0 0 0];

internalField   nonuniform List<scalar> 
5800
(
-0.224449
-0.224237
-0.223995
-0.223681
-0.223224
-0.223869
-0.223372
-0.222816
-0.222212
-0.221555
-0.220843
-0.220076
-0.219251
-0.218367
-0.217423
-0.216416
-0.215346
-0.214209
-0.213004
-0.211726
-0.210375
-0.208944
-0.207431
-0.205831
-0.204139
-0.202349
-0.200452
-0.198437
-0.196289
-0.194029
-0.191644
-0.189125
-0.186465
-0.183655
-0.180689
-0.177559
-0.174259
-0.170786
-0.167136
-0.163307
-0.159301
-0.155117
-0.150757
-0.146225
-0.141523
-0.136652
-0.131614
-0.126409
-0.121043
-0.115555
-0.109914
-0.104113
-0.0981698
-0.0921235
-0.0859637
-0.0797526
-0.0735238
-0.0673333
-0.0612383
-0.0552993
-0.0495721
-0.0441038
-0.0389268
-0.0340607
-0.0294942
-0.0252323
-0.0212087
-0.0174627
-0.0138578
-0.0106603
-0.00732974
-0.00504539
-0.0016854
-0.00150875
0.00286587
-0.223799
-0.223314
-0.22277
-0.22219
-0.221562
-0.220885
-0.220158
-0.21938
-0.218549
-0.217665
-0.216724
-0.215726
-0.214667
-0.213544
-0.212355
-0.211094
-0.209756
-0.208336
-0.206828
-0.205224
-0.203516
-0.201694
-0.199745
-0.197651
-0.195426
-0.193058
-0.190534
-0.187844
-0.184975
-0.181918
-0.178666
-0.17521
-0.171546
-0.167671
-0.163587
-0.159295
-0.154801
-0.150112
-0.145238
-0.140193
-0.134988
-0.129637
-0.124155
-0.118562
-0.11289
-0.107139
-0.101314
-0.0954139
-0.0895313
-0.0836049
-0.0777237
-0.0719023
-0.0661841
-0.0606069
-0.0552125
-0.0500308
-0.045086
-0.0403821
-0.0359167
-0.0316578
-0.0275923
-0.0236562
-0.0198609
-0.016138
-0.0126633
-0.00906613
-0.00632489
-0.00263775
-0.00195823
0.00276713
-0.22384
-0.223359
-0.222817
-0.222257
-0.221655
-0.22101
-0.22032
-0.219586
-0.218805
-0.217978
-0.2171
-0.216171
-0.215188
-0.214146
-0.213041
-0.211868
-0.210621
-0.209293
-0.207875
-0.206358
-0.20473
-0.202982
-0.201105
-0.19906
-0.196873
-0.194524
-0.191997
-0.189277
-0.186352
-0.183209
-0.179837
-0.176229
-0.17238
-0.168288
-0.163954
-0.159385
-0.154588
-0.149578
-0.144373
-0.138993
-0.133462
-0.127805
-0.122051
-0.116232
-0.110381
-0.104519
-0.0986705
-0.0928899
-0.0871025
-0.0813889
-0.0758296
-0.070405
-0.0651492
-0.0600762
-0.0552112
-0.0505592
-0.0461182
-0.0418663
-0.0377773
-0.0338004
-0.0299023
-0.026027
-0.0221815
-0.0183161
-0.0145614
-0.0106967
-0.00752098
-0.00352298
-0.00237022
0.00263181
-0.223983
-0.223494
-0.222939
-0.222394
-0.221816
-0.221198
-0.220542
-0.219848
-0.219115
-0.21834
-0.217522
-0.216659
-0.215747
-0.214782
-0.213759
-0.212672
-0.211513
-0.210273
-0.208942
-0.207509
-0.205959
-0.204275
-0.202446
-0.200471
-0.198331
-0.196005
-0.193477
-0.190731
-0.187753
-0.184528
-0.181044
-0.177292
-0.173267
-0.168966
-0.164394
-0.15956
-0.154475
-0.149158
-0.143636
-0.137936
-0.132094
-0.126146
-0.120132
-0.114095
-0.108076
-0.10211
-0.0962325
-0.0904875
-0.0848616
-0.0793633
-0.0741223
-0.0690763
-0.0642681
-0.0596733
-0.0553132
-0.0511625
-0.0471945
-0.0433629
-0.0396158
-0.0358852
-0.0321193
-0.0282886
-0.0243619
-0.0203501
-0.016317
-0.0121871
-0.00860789
-0.00431855
-0.0027333
0.00246508
-0.224241
-0.223702
-0.223117
-0.222582
-0.222022
-0.221427
-0.220802
-0.220144
-0.219453
-0.218728
-0.217966
-0.217165
-0.216321
-0.215429
-0.214483
-0.213477
-0.212402
-0.211247
-0.21
-0.208648
-0.207173
-0.205554
-0.203754
-0.201868
-0.199771
-0.197467
-0.194939
-0.192172
-0.189146
-0.185846
-0.182258
-0.178373
-0.174182
-0.169687
-0.164892
-0.15981
-0.154454
-0.14885
-0.14303
-0.137032
-0.130899
-0.124679
-0.118423
-0.112183
-0.106009
-0.0999492
-0.0940457
-0.0883377
-0.0828662
-0.0775617
-0.0726529
-0.0679586
-0.0635557
-0.059416
-0.0555277
-0.0518408
-0.0483052
-0.044854
-0.0414045
-0.0378783
-0.0342184
-0.0304075
-0.0263793
-0.0222102
-0.0179056
-0.0135164
-0.00957099
-0.00501303
-0.0030419
0.00227255
-0.224688
-0.223957
-0.223326
-0.222798
-0.222249
-0.221672
-0.221072
-0.220448
-0.219796
-0.219117
-0.218407
-0.217663
-0.216882
-0.216058
-0.215185
-0.214255
-0.213259
-0.212184
-0.211017
-0.209743
-0.208342
-0.206791
-0.205087
-0.203221
-0.201158
-0.198875
-0.196351
-0.193565
-0.190498
-0.187131
-0.18345
-0.179442
-0.175101
-0.170428
-0.165427
-0.160118
-0.154513
-0.148645
-0.142552
-0.136281
-0.129883
-0.123415
-0.116938
-0.110514
-0.1042
-0.0980725
-0.0921635
-0.0864988
-0.081136
-0.076157
-0.071403
-0.0670544
-0.0630396
-0.059316
-0.0558569
-0.0525894
-0.0494362
-0.0463173
-0.0431156
-0.0397613
-0.0361911
-0.0323624
-0.028214
-0.0238786
-0.019315
-0.0146764
-0.0104062
-0.00560566
-0.0032963
0.00205979
-0.225492
-0.224208
-0.223535
-0.223015
-0.22247
-0.221905
-0.221327
-0.220732
-0.220117
-0.219479
-0.218817
-0.218126
-0.217403
-0.216643
-0.215837
-0.214979
-0.214056
-0.213056
-0.211964
-0.210764
-0.209436
-0.207956
-0.206324
-0.20449
-0.202459
-0.200196
-0.197678
-0.194878
-0.191777
-0.188352
-0.184588
-0.180472
-0.175997
-0.171164
-0.165972
-0.160463
-0.154638
-0.148535
-0.142202
-0.135689
-0.129057
-0.122371
-0.115701
-0.109119
-0.102693
-0.0964881
-0.0905609
-0.0849563
-0.0797208
-0.0749044
-0.0704754
-0.0663753
-0.0627223
-0.0593704
-0.0562925
-0.0533939
-0.0505664
-0.0477253
-0.0447385
-0.0415431
-0.0379948
-0.0341328
-0.0298532
-0.0253486
-0.0205439
-0.0156698
-0.0111183
-0.00610445
-0.00350188
0.00183182
-0.22588
-0.224621
-0.223766
-0.223199
-0.222657
-0.222102
-0.22154
-0.220969
-0.220386
-0.219787
-0.219168
-0.218526
-0.217857
-0.217153
-0.21641
-0.215615
-0.21476
-0.213829
-0.212806
-0.211673
-0.210404
-0.20898
-0.207405
-0.205625
-0.203631
-0.201392
-0.198883
-0.196076
-0.192948
-0.189477
-0.185644
-0.181437
-0.176849
-0.171879
-0.166536
-0.160844
-0.154823
-0.148514
-0.141969
-0.135245
-0.128409
-0.121534
-0.114699
-0.107981
-0.101459
-0.0952044
-0.0892786
-0.0837326
-0.0786143
-0.0739558
-0.0697577
-0.0659846
-0.062567
-0.0595489
-0.0568089
-0.0542248
-0.0516744
-0.0490839
-0.0462757
-0.0431592
-0.0396235
-0.0357074
-0.0312937
-0.0266218
-0.0215988
-0.0165076
-0.0117182
-0.00652331
-0.00366765
0.00159279
-0.225963
-0.225095
-0.22398
-0.223321
-0.222782
-0.222235
-0.221684
-0.221133
-0.220579
-0.220014
-0.219434
-0.218836
-0.218214
-0.217563
-0.216874
-0.216139
-0.215344
-0.214476
-0.213516
-0.212445
-0.211233
-0.209833
-0.208338
-0.20661
-0.204652
-0.202439
-0.199941
-0.197133
-0.193987
-0.19048
-0.186592
-0.182311
-0.177627
-0.172543
-0.167067
-0.161224
-0.15504
-0.14856
-0.141838
-0.134938
-0.127933
-0.120902
-0.113931
-0.107105
-0.100508
-0.0942179
-0.0883015
-0.082814
-0.0778033
-0.0732953
-0.0692873
-0.0657618
-0.0626694
-0.0599099
-0.0574321
-0.0551113
-0.0528259
-0.0503651
-0.0476736
-0.0446179
-0.0410683
-0.0370837
-0.0325385
-0.0277065
-0.022492
-0.0172062
-0.0122209
-0.00687905
-0.00380463
0.0013459
-0.225509
-0.224136
-0.223357
-0.222818
-0.222279
-0.221733
-0.221197
-0.220667
-0.220132
-0.219588
-0.219029
-0.218451
-0.217845
-0.217206
-0.216522
-0.215781
-0.214968
-0.214066
-0.213053
-0.211901
-0.2106
-0.209103
-0.207412
-0.205489
-0.203301
-0.20082
-0.198015
-0.19486
-0.191329
-0.187402
-0.183064
-0.178307
-0.173133
-0.167553
-0.161589
-0.155276
-0.148658
-0.141794
-0.134754
-0.127614
-0.120462
-0.113385
-0.106477
-0.0998257
-0.0935151
-0.0876154
-0.0821855
-0.0772722
-0.0728987
-0.0690616
-0.0657277
-0.0628407
-0.0603361
-0.058096
-0.0559761
-0.0538572
-0.05155
-0.048937
-0.0459083
-0.0423256
-0.0382641
-0.0335951
-0.0286151
-0.0232385
-0.0177843
-0.0126426
-0.00718875
-0.00392414
0.00109351
-0.225776
-0.2242
-0.223274
-0.222728
-0.2222
-0.221657
-0.221131
-0.22062
-0.220112
-0.219599
-0.219075
-0.218534
-0.21797
-0.217374
-0.216735
-0.216041
-0.215277
-0.214425
-0.213462
-0.212361
-0.211103
-0.209655
-0.208002
-0.206113
-0.203953
-0.201491
-0.198697
-0.195542
-0.192
-0.188049
-0.183673
-0.178866
-0.173628
-0.167971
-0.16192
-0.15551
-0.14879
-0.141821
-0.134677
-0.127438
-0.120196
-0.113044
-0.10608
-0.0993948
-0.093077
-0.0872002
-0.0818252
-0.0769982
-0.0727399
-0.0690454
-0.0658773
-0.0631752
-0.06085
-0.0587847
-0.0568265
-0.0548316
-0.0526217
-0.0500516
-0.0470243
-0.043396
-0.0392543
-0.0344738
-0.0293622
-0.0238547
-0.0182611
-0.0129991
-0.00746774
-0.00403642
0.00083749
-0.225723
-0.224081
-0.223015
-0.222459
-0.221949
-0.221412
-0.220892
-0.220398
-0.219914
-0.219429
-0.218937
-0.218431
-0.217903
-0.217345
-0.216747
-0.216094
-0.215373
-0.214563
-0.213643
-0.212584
-0.211365
-0.209963
-0.208351
-0.206497
-0.204366
-0.201929
-0.199153
-0.196008
-0.192467
-0.188508
-0.184115
-0.17928
-0.174005
-0.168302
-0.162195
-0.155723
-0.148937
-0.1419
-0.134688
-0.127385
-0.120086
-0.112889
-0.105892
-0.0991924
-0.0928795
-0.0870301
-0.0817061
-0.076953
-0.0727896
-0.0692092
-0.0661702
-0.0636071
-0.0614172
-0.0594794
-0.0576332
-0.0557197
-0.053565
-0.0510095
-0.0479641
-0.0442828
-0.0400627
-0.0351868
-0.0299638
-0.0243568
-0.0186546
-0.0133046
-0.00772843
-0.00414969
0.000579524
-0.223621
-0.222491
-0.221939
-0.221457
-0.220934
-0.220428
-0.219952
-0.219492
-0.219034
-0.218571
-0.218098
-0.217604
-0.217082
-0.216519
-0.215904
-0.21522
-0.214449
-0.213567
-0.212545
-0.211359
-0.209999
-0.208429
-0.206612
-0.204516
-0.202108
-0.199357
-0.196233
-0.192708
-0.188759
-0.184369
-0.179531
-0.174245
-0.168525
-0.162397
-0.155898
-0.149081
-0.142012
-0.134767
-0.127436
-0.120112
-0.112896
-0.10589
-0.0991928
-0.0928953
-0.0870761
-0.0817978
-0.0771052
-0.0730155
-0.0695202
-0.0665739
-0.0641073
-0.06201
-0.0601544
-0.058375
-0.0565046
-0.0543711
-0.0518067
-0.0487287
-0.0449923
-0.0407
-0.0357477
-0.0304358
-0.0247601
-0.0189807
-0.0135713
-0.00797989
-0.00426972
0.000321444
-0.22157
-0.221065
-0.220629
-0.220142
-0.219663
-0.219215
-0.218783
-0.218356
-0.217926
-0.217485
-0.217026
-0.216538
-0.216011
-0.215432
-0.214784
-0.214049
-0.213204
-0.212214
-0.211041
-0.20973
-0.208208
-0.206435
-0.204378
-0.202006
-0.19929
-0.196198
-0.192704
-0.188782
-0.184417
-0.1796
-0.174332
-0.168626
-0.162507
-0.156016
-0.149204
-0.142138
-0.134896
-0.127568
-0.120249
-0.113041
-0.106048
-0.0993681
-0.0930945
-0.0873069
-0.082068
-0.0774218
-0.0733843
-0.0699458
-0.0670582
-0.0646491
-0.0626033
-0.0607886
-0.0590367
-0.0571751
-0.0550346
-0.0524429
-0.0493229
-0.0455336
-0.041179
-0.0361707
-0.0307942
-0.0250788
-0.0192529
-0.0138086
-0.00822783
-0.00439975
6.53798e-05
-0.220111
-0.219714
-0.219354
-0.218935
-0.218513
-0.21811
-0.217719
-0.217332
-0.216941
-0.216539
-0.216118
-0.215668
-0.215179
-0.214637
-0.214026
-0.213328
-0.212521
-0.211576
-0.210469
-0.209148
-0.207668
-0.205945
-0.203933
-0.201605
-0.198933
-0.195887
-0.192439
-0.188563
-0.184245
-0.179473
-0.17425
-0.168588
-0.162512
-0.156061
-0.149288
-0.14226
-0.135054
-0.12776
-0.120474
-0.113299
-0.106337
-0.0996891
-0.0934468
-0.0876908
-0.0824839
-0.0778699
-0.0738638
-0.0704551
-0.0675942
-0.065207
-0.0631755
-0.0613648
-0.0596062
-0.0577247
-0.0555544
-0.0529221
-0.0497552
-0.0459185
-0.0415139
-0.0364706
-0.031054
-0.0253254
-0.0194819
-0.0140235
-0.00847494
-0.00454068
-0.000186174
-0.217768
-0.217526
-0.217219
-0.216888
-0.216558
-0.21623
-0.215898
-0.215559
-0.215206
-0.214832
-0.214427
-0.213982
-0.213482
-0.212913
-0.212257
-0.211491
-0.210586
-0.209494
-0.208165
-0.206745
-0.205098
-0.203153
-0.200883
-0.198271
-0.195287
-0.191902
-0.188092
-0.183842
-0.179141
-0.17399
-0.168401
-0.162399
-0.156021
-0.14932
-0.142362
-0.135224
-0.127993
-0.120766
-0.113646
-0.106733
-0.100127
-0.0939218
-0.0881965
-0.0830141
-0.0784183
-0.0744237
-0.0710198
-0.0681566
-0.0657591
-0.0637091
-0.0618706
-0.0600765
-0.0581515
-0.055934
-0.0532523
-0.0500372
-0.046161
-0.0417203
-0.0366621
-0.0312294
-0.0255106
-0.0196758
-0.0142207
-0.00872153
-0.00469153
-0.00043042
-0.215153
-0.215075
-0.214923
-0.214719
-0.214492
-0.214252
-0.213998
-0.213728
-0.213439
-0.213124
-0.212775
-0.212382
-0.211933
-0.211415
-0.210809
-0.210094
-0.209244
-0.208229
-0.207011
-0.205563
-0.203958
-0.202072
-0.199861
-0.197312
-0.1944
-0.191092
-0.187367
-0.183206
-0.178599
-0.173546
-0.168058
-0.162158
-0.155884
-0.149286
-0.142427
-0.135385
-0.128244
-0.1211
-0.114053
-0.107204
-0.100651
-0.0944871
-0.0887911
-0.0836261
-0.079036
-0.0750354
-0.0716144
-0.0687235
-0.0662885
-0.0641923
-0.0622998
-0.0604469
-0.0584601
-0.0561828
-0.0534467
-0.0501851
-0.0462785
-0.0418163
-0.0367616
-0.0313348
-0.0256457
-0.0198423
-0.0144043
-0.00896718
-0.00485056
-0.000664684
-0.212007
-0.212049
-0.212003
-0.211908
-0.211782
-0.211626
-0.211441
-0.211229
-0.210985
-0.210701
-0.210369
-0.209978
-0.209513
-0.208958
-0.208293
-0.207492
-0.206514
-0.205301
-0.203786
-0.202311
-0.200553
-0.198454
-0.196009
-0.193197
-0.189994
-0.186377
-0.182329
-0.177841
-0.172911
-0.167551
-0.161782
-0.155639
-0.14917
-0.142439
-0.135517
-0.128489
-0.121449
-0.114493
-0.107722
-0.101232
-0.0951135
-0.0894466
-0.0842939
-0.0796994
-0.0756784
-0.072222
-0.0692824
-0.0667869
-0.0646217
-0.0626535
-0.0607235
-0.0586614
-0.0563162
-0.053524
-0.0502201
-0.0462929
-0.0418235
-0.0367887
-0.0313874
-0.0257434
-0.0199899
-0.0145788
-0.00921224
-0.00501642
-0.000887027
-0.20863
-0.208787
-0.208869
-0.208893
-0.208865
-0.208792
-0.208677
-0.208519
-0.208316
-0.208061
-0.207743
-0.207352
-0.206871
-0.206285
-0.20557
-0.204705
-0.203667
-0.202404
-0.200718
-0.198952
-0.196913
-0.194545
-0.191823
-0.188721
-0.185219
-0.181296
-0.176943
-0.172157
-0.166946
-0.16133
-0.155342
-0.149028
-0.142446
-0.135668
-0.128774
-0.121853
-0.115002
-0.108317
-0.101894
-0.0958215
-0.0901789
-0.0850287
-0.0804157
-0.0763564
-0.0728438
-0.0698328
-0.0672537
-0.064997
-0.0629334
-0.06091
-0.0587612
-0.0563417
-0.0534931
-0.0501518
-0.0462134
-0.04175
-0.036749
-0.0313903
-0.0258039
-0.0201163
-0.0147403
-0.00945078
-0.00518485
-0.0010948
-0.204147
-0.204459
-0.204708
-0.204894
-0.20502
-0.205089
-0.205104
-0.205065
-0.20497
-0.204814
-0.204589
-0.204284
-0.203886
-0.203379
-0.202741
-0.201944
-0.200943
-0.199677
-0.19813
-0.196518
-0.194644
-0.192448
-0.189892
-0.186953
-0.183616
-0.179866
-0.17569
-0.171087
-0.166063
-0.160636
-0.154837
-0.148709
-0.142306
-0.135696
-0.128957
-0.122176
-0.115444
-0.108857
-0.102508
-0.0964856
-0.0908683
-0.0857189
-0.0810832
-0.0769797
-0.0734035
-0.0703133
-0.0676422
-0.0652855
-0.0631177
-0.0609921
-0.0587484
-0.0562484
-0.0533394
-0.0499606
-0.0460138
-0.0415646
-0.0366062
-0.0313054
-0.0257893
-0.0201852
-0.0148595
-0.00965669
-0.00534142
-0.0012805
-0.201366
-0.201718
-0.202005
-0.202227
-0.202386
-0.202484
-0.202523
-0.2025
-0.202412
-0.202251
-0.202008
-0.201671
-0.201225
-0.200653
-0.199935
-0.199056
-0.198007
-0.196688
-0.194852
-0.192876
-0.190687
-0.188156
-0.185256
-0.181971
-0.178283
-0.174181
-0.169662
-0.164732
-0.15941
-0.153725
-0.147719
-0.141446
-0.134971
-0.12837
-0.121727
-0.11513
-0.108672
-0.102442
-0.0965258
-0.0909983
-0.0859199
-0.081334
-0.0772578
-0.0736857
-0.070577
-0.0678667
-0.065454
-0.0632172
-0.0610167
-0.0586972
-0.0561286
-0.0531633
-0.0497471
-0.0457851
-0.0413449
-0.036419
-0.0311716
-0.0257189
-0.0201948
-0.0149226
-0.00979885
-0.0054588
-0.00141907
-0.197738
-0.198188
-0.198571
-0.198887
-0.199135
-0.199315
-0.19943
-0.199476
-0.199449
-0.199342
-0.199145
-0.198846
-0.198431
-0.197879
-0.197171
-0.196274
-0.195144
-0.1937
-0.192054
-0.19025
-0.18814
-0.185679
-0.182854
-0.179651
-0.176053
-0.172051
-0.167644
-0.162839
-0.157653
-0.152117
-0.146269
-0.140163
-0.13386
-0.127433
-0.120963
-0.114534
-0.108234
-0.10215
-0.0963617
-0.0909424
-0.0859491
-0.0814233
-0.077381
-0.0738168
-0.0706913
-0.0679422
-0.0654732
-0.0631679
-0.0608934
-0.0585018
-0.0558699
-0.0528579
-0.0494149
-0.0454526
-0.0410347
-0.0361562
-0.0309739
-0.0255945
-0.0201577
-0.0149428
-0.00990099
-0.00554215
-0.00153172
-0.19377
-0.194313
-0.194791
-0.195199
-0.195535
-0.195799
-0.19599
-0.196106
-0.196142
-0.196091
-0.195945
-0.19569
-0.195313
-0.194795
-0.194115
-0.193242
-0.192147
-0.190805
-0.189245
-0.187449
-0.185364
-0.182951
-0.180189
-0.177061
-0.173552
-0.169653
-0.165363
-0.16069
-0.15565
-0.150273
-0.144596
-0.138669
-0.132551
-0.126313
-0.120029
-0.113782
-0.107654
-0.101727
-0.0960785
-0.090777
-0.0858769
-0.0814174
-0.0774135
-0.0738595
-0.0707182
-0.0679298
-0.065403
-0.0630273
-0.060677
-0.0582127
-0.0555181
-0.0524627
-0.0489977
-0.0450424
-0.0406556
-0.0358345
-0.0307277
-0.0254316
-0.0200918
-0.0149416
-0.00998857
-0.00561548
-0.00163958
-0.189688
-0.190319
-0.190885
-0.19138
-0.191799
-0.192141
-0.192404
-0.192588
-0.192686
-0.192692
-0.192597
-0.192389
-0.192054
-0.191576
-0.190933
-0.190103
-0.189063
-0.187796
-0.186282
-0.184518
-0.182476
-0.180123
-0.177432
-0.174387
-0.170973
-0.167184
-0.163019
-0.158484
-0.153596
-0.148383
-0.142882
-0.137138
-0.13121
-0.125163
-0.119069
-0.113004
-0.107048
-0.101279
-0.0957688
-0.0905838
-0.085775
-0.0813795
-0.0774114
-0.0738653
-0.0707059
-0.0678763
-0.0652906
-0.0628443
-0.0604191
-0.0578839
-0.0551296
-0.0520342
-0.0485516
-0.0446077
-0.0402564
-0.0354965
-0.030469
-0.0252586
-0.0200178
-0.014934
-0.010069
-0.00568442
-0.00174153
-0.185521
-0.186233
-0.186879
-0.187454
-0.187949
-0.188364
-0.188696
-0.188943
-0.189101
-0.189161
-0.189116
-0.188954
-0.188663
-0.188226
-0.187625
-0.186839
-0.185848
-0.184631
-0.183168
-0.181458
-0.179475
-0.177191
-0.174579
-0.171624
-0.168315
-0.164642
-0.160608
-0.156218
-0.151489
-0.146446
-0.141125
-0.13557
-0.129835
-0.123982
-0.118079
-0.112198
-0.106415
-0.100803
-0.0954315
-0.0903618
-0.0856427
-0.0813094
-0.0773753
-0.0738354
-0.0706564
-0.0677849
-0.0651402
-0.062624
-0.0601256
-0.0575221
-0.0547113
-0.0515798
-0.0480836
-0.0441548
-0.0398429
-0.0351468
-0.0302013
-0.025078
-0.0199371
-0.0149203
-0.0101418
-0.00574847
-0.00183609
-0.181281
-0.182069
-0.18279
-0.183437
-0.184004
-0.184486
-0.184882
-0.185189
-0.185402
-0.185515
-0.185518
-0.185402
-0.185154
-0.184759
-0.1842
-0.183458
-0.182514
-0.181347
-0.179942
-0.17829
-0.176375
-0.174164
-0.171636
-0.168777
-0.165576
-0.162026
-0.158128
-0.153888
-0.149322
-0.144454
-0.139317
-0.133954
-0.128414
-0.122757
-0.117047
-0.111352
-0.105742
-0.100288
-0.0950548
-0.0900999
-0.0854701
-0.0811983
-0.0772977
-0.0737635
-0.070565
-0.0676521
-0.0649495
-0.0623654
-0.0597963
-0.0571279
-0.0542643
-0.0511005
-0.0475948
-0.0436845
-0.0394154
-0.0347855
-0.0299242
-0.0248888
-0.0198485
-0.0148993
-0.0102057
-0.00580663
-0.00192225
-0.176993
-0.177852
-0.178642
-0.179357
-0.179989
-0.180534
-0.18099
-0.181353
-0.18162
-0.181782
-0.181833
-0.181761
-0.181556
-0.181203
-0.180686
-0.179989
-0.179093
-0.177981
-0.176636
-0.175048
-0.173199
-0.171063
-0.168623
-0.165864
-0.162775
-0.159351
-0.155592
-0.151505
-0.147104
-0.142413
-0.137463
-0.132292
-0.12695
-0.121489
-0.115972
-0.110463
-0.105027
-0.0997302
-0.0946343
-0.0897939
-0.0852529
-0.0810425
-0.0771755
-0.0736476
-0.0704308
-0.0674781
-0.0647201
-0.0620709
-0.0594347
-0.0567051
-0.0537929
-0.0506008
-0.0470894
-0.0432007
-0.0389772
-0.0344149
-0.0296393
-0.0246921
-0.019752
-0.0148706
-0.0102598
-0.00585847
-0.0019994
-0.172675
-0.173602
-0.174457
-0.175236
-0.17593
-0.176534
-0.177046
-0.177463
-0.17778
-0.17799
-0.178086
-0.178058
-0.177895
-0.177584
-0.177111
-0.17646
-0.175613
-0.174556
-0.173272
-0.171748
-0.169968
-0.167911
-0.165561
-0.162903
-0.159929
-0.156632
-0.153014
-0.149082
-0.144848
-0.140334
-0.13557
-0.130592
-0.125446
-0.120182
-0.114857
-0.109531
-0.104268
-0.0991277
-0.0941686
-0.089442
-0.0849896
-0.0808407
-0.0770081
-0.0734879
-0.0702546
-0.0672649
-0.0644546
-0.0617442
-0.0590452
-0.0562587
-0.0533023
-0.0500857
-0.0465724
-0.0427077
-0.038532
-0.034038
-0.0293486
-0.024489
-0.0196482
-0.0148343
-0.0103037
-0.00590374
-0.00206721
-0.168341
-0.169334
-0.170251
-0.171091
-0.171843
-0.172503
-0.173069
-0.173537
-0.173902
-0.174159
-0.174299
-0.174314
-0.174193
-0.173925
-0.173495
-0.17289
-0.172094
-0.171092
-0.169868
-0.168409
-0.166701
-0.164725
-0.162466
-0.159911
-0.157052
-0.153884
-0.150407
-0.146629
-0.142561
-0.138223
-0.133644
-0.128858
-0.123906
-0.118836
-0.113701
-0.108558
-0.103466
-0.0984801
-0.0936565
-0.0890431
-0.084679
-0.0805923
-0.0767952
-0.0732846
-0.0700377
-0.0670143
-0.0641559
-0.0613888
-0.0586318
-0.0557931
-0.0527972
-0.04956
-0.046048
-0.0422092
-0.038083
-0.0336572
-0.0290538
-0.0242807
-0.0195374
-0.0147905
-0.0103372
-0.00594228
-0.00212555
-0.164002
-0.165059
-0.166035
-0.166932
-0.16774
-0.168455
-0.169072
-0.169589
-0.170001
-0.170303
-0.170487
-0.170545
-0.170466
-0.17024
-0.169855
-0.169296
-0.168551
-0.167604
-0.166441
-0.165048
-0.163413
-0.161519
-0.159352
-0.1569
-0.154157
-0.151117
-0.147781
-0.144155
-0.140251
-0.136089
-0.131692
-0.127094
-0.122334
-0.117455
-0.112508
-0.107544
-0.10262
-0.097787
-0.0930975
-0.0885964
-0.0843207
-0.0802968
-0.0765369
-0.0730385
-0.0697813
-0.0667284
-0.0638266
-0.0610079
-0.0581981
-0.0553123
-0.0522815
-0.0490273
-0.0455198
-0.0417086
-0.0376327
-0.0332747
-0.0287563
-0.0240681
-0.0194199
-0.0147394
-0.0103601
-0.00597399
-0.00217455
-0.159667
-0.160784
-0.161817
-0.162769
-0.163631
-0.164397
-0.165064
-0.165629
-0.166087
-0.166434
-0.166661
-0.166761
-0.166725
-0.166543
-0.166202
-0.165691
-0.164996
-0.164104
-0.163003
-0.161677
-0.160116
-0.158304
-0.15623
-0.153881
-0.151253
-0.14834
-0.145143
-0.141668
-0.137926
-0.133935
-0.129718
-0.125305
-0.120732
-0.116041
-0.111277
-0.106491
-0.101731
-0.0970487
-0.0924916
-0.088102
-0.0839147
-0.0799547
-0.0762339
-0.0727506
-0.0694869
-0.0664091
-0.0634691
-0.0606043
-0.0577472
-0.0548196
-0.0517586
-0.048491
-0.0449907
-0.0412084
-0.0371833
-0.0328921
-0.0284572
-0.0238519
-0.019296
-0.014681
-0.0103723
-0.00599887
-0.00221454
-0.155344
-0.156518
-0.157605
-0.15861
-0.159523
-0.160339
-0.161054
-0.161666
-0.162169
-0.16256
-0.16283
-0.162973
-0.16298
-0.162841
-0.162545
-0.162082
-0.161439
-0.160604
-0.159563
-0.158306
-0.156819
-0.15509
-0.153107
-0.150862
-0.148347
-0.145559
-0.142499
-0.139173
-0.13559
-0.131767
-0.127725
-0.123493
-0.119104
-0.114596
-0.110012
-0.105398
-0.1008
-0.096266
-0.0918395
-0.0875604
-0.0834616
-0.0795665
-0.0758872
-0.0724221
-0.0691562
-0.0660584
-0.0630857
-0.0601804
-0.057282
-0.0543176
-0.0512312
-0.0479538
-0.0444633
-0.0407106
-0.0367365
-0.0325107
-0.0281575
-0.0236328
-0.019166
-0.0146156
-0.010374
-0.00601698
-0.00224599
-0.151039
-0.152267
-0.153406
-0.154461
-0.155423
-0.156287
-0.157049
-0.157706
-0.158254
-0.158688
-0.159001
-0.159186
-0.159236
-0.159141
-0.158892
-0.158478
-0.157887
-0.157108
-0.15613
-0.15494
-0.153528
-0.151881
-0.149991
-0.147847
-0.145445
-0.142781
-0.139856
-0.136675
-0.133247
-0.129588
-0.125718
-0.121662
-0.117452
-0.113123
-0.108714
-0.104269
-0.0998293
-0.09544
-0.0911421
-0.0869725
-0.0829624
-0.0791333
-0.0754977
-0.0720544
-0.0687905
-0.0656778
-0.0626782
-0.0597384
-0.0568045
-0.0538087
-0.0507015
-0.0474175
-0.0439391
-0.040217
-0.0362935
-0.0321317
-0.0278577
-0.0234113
-0.0190303
-0.0145434
-0.0103655
-0.00602847
-0.0022695
-0.146759
-0.148038
-0.149226
-0.150328
-0.151337
-0.152247
-0.153054
-0.153755
-0.154346
-0.154823
-0.155179
-0.155407
-0.1555
-0.15545
-0.155248
-0.154883
-0.154344
-0.153623
-0.152707
-0.151585
-0.150248
-0.148684
-0.146885
-0.144843
-0.142551
-0.140009
-0.137216
-0.134177
-0.130901
-0.127402
-0.123698
-0.119814
-0.115778
-0.111623
-0.107385
-0.103104
-0.0988191
-0.0945719
-0.0904007
-0.0863396
-0.0824181
-0.0786564
-0.0750669
-0.0716488
-0.0683914
-0.0652691
-0.0622483
-0.05928
-0.0563163
-0.0532944
-0.0501709
-0.0468837
-0.0434196
-0.0397285
-0.0358552
-0.0317557
-0.0275585
-0.0231879
-0.0188891
-0.0144647
-0.0103471
-0.00603353
-0.00228575
-0.142512
-0.143838
-0.145071
-0.146218
-0.147271
-0.148225
-0.149075
-0.149819
-0.150452
-0.150971
-0.151369
-0.15164
-0.151777
-0.151772
-0.151616
-0.151301
-0.150816
-0.150152
-0.149298
-0.148245
-0.146982
-0.145501
-0.143793
-0.14185
-0.139669
-0.137245
-0.134581
-0.131681
-0.128553
-0.12521
-0.121669
-0.117951
-0.114084
-0.110098
-0.106026
-0.101905
-0.0977714
-0.0936633
-0.0896166
-0.085663
-0.0818301
-0.0781371
-0.074596
-0.0712066
-0.0679602
-0.0648335
-0.0617973
-0.0588063
-0.0558187
-0.0527759
-0.0496405
-0.0463532
-0.0429054
-0.0392459
-0.0354221
-0.0313833
-0.0272602
-0.0229629
-0.0187426
-0.0143798
-0.0103194
-0.00603241
-0.00229546
-0.138303
-0.139672
-0.140948
-0.142136
-0.14323
-0.144226
-0.145117
-0.145902
-0.146576
-0.147136
-0.147576
-0.147889
-0.148069
-0.148109
-0.148001
-0.147735
-0.147304
-0.146698
-0.145907
-0.144922
-0.143734
-0.142335
-0.140717
-0.138873
-0.136799
-0.134493
-0.131955
-0.12919
-0.126206
-0.123014
-0.119631
-0.116075
-0.112372
-0.10855
-0.104639
-0.100674
-0.0966876
-0.0927156
-0.0887914
-0.0849441
-0.0812
-0.0775768
-0.0740865
-0.0707291
-0.0674982
-0.0643722
-0.0613261
-0.0583183
-0.0553124
-0.0522538
-0.0491108
-0.0458265
-0.0423969
-0.0387695
-0.0349945
-0.0310147
-0.0269629
-0.0227366
-0.0185913
-0.014289
-0.0102828
-0.0060254
-0.00229936
-0.134138
-0.135547
-0.13686
-0.138087
-0.13922
-0.140254
-0.141185
-0.142009
-0.142723
-0.143323
-0.143803
-0.144158
-0.144382
-0.144467
-0.144405
-0.14419
-0.143813
-0.143264
-0.142536
-0.141619
-0.140506
-0.139188
-0.137659
-0.135912
-0.133944
-0.131752
-0.129338
-0.126706
-0.123861
-0.120816
-0.117586
-0.114187
-0.110643
-0.10698
-0.103226
-0.0994118
-0.0955694
-0.0917306
-0.0879266
-0.0841846
-0.0805292
-0.0769769
-0.0735397
-0.0702177
-0.0670064
-0.0638862
-0.0608358
-0.0578168
-0.0547981
-0.0517286
-0.0485822
-0.0453038
-0.0418941
-0.0382993
-0.0345724
-0.0306499
-0.0266667
-0.0225091
-0.0184354
-0.0141925
-0.0102379
-0.00601279
-0.00229815
-0.130023
-0.131467
-0.132815
-0.134076
-0.135245
-0.136316
-0.137283
-0.138145
-0.138897
-0.139535
-0.140056
-0.140452
-0.140718
-0.140847
-0.140833
-0.140668
-0.140344
-0.139853
-0.139187
-0.138338
-0.137299
-0.136062
-0.13462
-0.132969
-0.131104
-0.129025
-0.126732
-0.124228
-0.12152
-0.118618
-0.115535
-0.112289
-0.108899
-0.10539
-0.101788
-0.0981209
-0.0944184
-0.0907098
-0.087024
-0.0833861
-0.0798193
-0.0763389
-0.0729569
-0.0696735
-0.066486
-0.0633764
-0.060327
-0.0573022
-0.0542761
-0.0512004
-0.0480545
-0.044785
-0.041397
-0.0378353
-0.0341556
-0.030289
-0.0263718
-0.0222806
-0.0182751
-0.0140908
-0.0101854
-0.00599493
-0.00229253
-0.125963
-0.127437
-0.128817
-0.130109
-0.131311
-0.132414
-0.133416
-0.134313
-0.135101
-0.135777
-0.136336
-0.136772
-0.13708
-0.137254
-0.137286
-0.137171
-0.1369
-0.136466
-0.135862
-0.135081
-0.134115
-0.132957
-0.131602
-0.130045
-0.128282
-0.126313
-0.124137
-0.121758
-0.119182
-0.116419
-0.11348
-0.110381
-0.107141
-0.103781
-0.100327
-0.0968024
-0.0932363
-0.0896548
-0.0860851
-0.0825501
-0.0790718
-0.0756643
-0.0723395
-0.0690978
-0.0659379
-0.0628435
-0.0598001
-0.0567749
-0.0537463
-0.0506692
-0.0475275
-0.0442698
-0.0409051
-0.037377
-0.0337438
-0.0299317
-0.0260779
-0.0220512
-0.0181108
-0.0139841
-0.0101258
-0.00597214
-0.0022831
-0.121962
-0.123463
-0.124869
-0.126189
-0.12742
-0.128554
-0.129588
-0.130518
-0.131341
-0.132052
-0.132648
-0.133123
-0.133472
-0.133689
-0.133767
-0.133701
-0.133483
-0.133106
-0.132564
-0.131849
-0.130955
-0.129876
-0.128606
-0.127141
-0.125478
-0.123616
-0.121554
-0.119297
-0.11685
-0.114221
-0.111421
-0.108465
-0.10537
-0.102155
-0.0988433
-0.095458
-0.0920245
-0.0885674
-0.0851116
-0.0816784
-0.0782884
-0.0749546
-0.0716889
-0.0684917
-0.0653632
-0.0622883
-0.0592558
-0.0562351
-0.0532089
-0.0501346
-0.047001
-0.0437578
-0.0404179
-0.0369241
-0.0333366
-0.0295778
-0.0257851
-0.0218208
-0.0179427
-0.0138727
-0.0100598
-0.00594477
-0.00227044
-0.118025
-0.119548
-0.120977
-0.122322
-0.123578
-0.12474
-0.125803
-0.126763
-0.127618
-0.128364
-0.128996
-0.129508
-0.129897
-0.130156
-0.13028
-0.130262
-0.130095
-0.129775
-0.129293
-0.128644
-0.127821
-0.126819
-0.125633
-0.124258
-0.122693
-0.120935
-0.118985
-0.116847
-0.114524
-0.112025
-0.10936
-0.106542
-0.103587
-0.100513
-0.0973395
-0.0940891
-0.0907849
-0.0874492
-0.0841053
-0.0807726
-0.0774706
-0.0742113
-0.0710063
-0.0678563
-0.0647626
-0.0617115
-0.0586944
-0.0556829
-0.0526637
-0.0495966
-0.0464744
-0.0432485
-0.039935
-0.036476
-0.0329337
-0.029227
-0.0254932
-0.0215896
-0.0177711
-0.013757
-0.00998793
-0.00591316
-0.00225506
-0.114155
-0.115695
-0.117144
-0.118509
-0.119788
-0.120975
-0.122064
-0.123053
-0.123938
-0.124715
-0.125381
-0.12593
-0.126357
-0.126657
-0.126825
-0.126854
-0.126739
-0.126474
-0.126052
-0.125467
-0.124715
-0.123788
-0.122684
-0.121398
-0.119927
-0.118271
-0.11643
-0.114406
-0.112205
-0.109832
-0.107298
-0.104614
-0.101794
-0.0988555
-0.0958167
-0.0926974
-0.089519
-0.0863019
-0.0830678
-0.0798345
-0.0766201
-0.0734359
-0.0702933
-0.0671929
-0.0641373
-0.0611138
-0.0581163
-0.0551186
-0.0521108
-0.0490549
-0.0459474
-0.0427413
-0.0394557
-0.0360322
-0.0325345
-0.028879
-0.025202
-0.0213575
-0.0175963
-0.0136371
-0.0099108
-0.00587765
-0.00223738
-0.110356
-0.11191
-0.113373
-0.114756
-0.116054
-0.117262
-0.118375
-0.119389
-0.120302
-0.12111
-0.121807
-0.122391
-0.122855
-0.123195
-0.123406
-0.123482
-0.123417
-0.123206
-0.122842
-0.122321
-0.121637
-0.120785
-0.119761
-0.118561
-0.117183
-0.115626
-0.11389
-0.111978
-0.109894
-0.107643
-0.105235
-0.10268
-0.099992
-0.097185
-0.0942765
-0.0912844
-0.0882285
-0.0851273
-0.0820009
-0.0788656
-0.0757385
-0.0726299
-0.069551
-0.0665026
-0.063488
-0.0604958
-0.057522
-0.0545423
-0.0515499
-0.048509
-0.0454195
-0.0422357
-0.0389794
-0.0355922
-0.0321387
-0.0285334
-0.0249115
-0.0211246
-0.0174185
-0.0135135
-0.00982891
-0.00583854
-0.00221779
-0.106631
-0.108194
-0.109669
-0.111065
-0.112379
-0.113605
-0.114739
-0.115777
-0.116715
-0.11755
-0.118278
-0.118894
-0.119394
-0.119773
-0.120025
-0.120146
-0.12013
-0.119971
-0.119665