/*--------------------------------*- C++ -*----------------------------------*\
  =========                 |
  \\      /  F ield         | OpenFOAM: The Open Source CFD Toolbox
   \\    /   O peration     | Website:  https://openfoam.org
    \\  /    A nd           | Version:  7
     \\/     M anipulation  |
\*---------------------------------------------------------------------------*/
FoamFile
{
    version     2.0;
    format      ascii;
    class       surfaceScalarField;
    location    "97";
    object      phi;
}
// * * * * * * * * * * * * * * * * * * * * * * * * * * * * * * * * * * * * * //

dimensions      [0 3 -1 0 0 0 0];

internalField   nonuniform List<scalar> 
24510
(
-5.40774e-06
-4.83277e-05
5.37354e-05
-2.01223e-05
-0.000118459
0.000133173
-4.35451e-05
-0.000167737
0.000191159
-7.5133e-05
-0.000196072
0.00022766
-0.000114422
-0.000204796
0.000244085
-0.000161078
-0.000196289
0.000242945
-0.000214919
-0.000173211
0.000227052
-0.000275892
-0.0001375
0.000198473
-0.000344023
-8.9377e-05
0.000157507
-0.000419336
-2.66254e-05
0.000101939
-0.000501738
5.56486e-05
2.67529e-05
-0.000590906
0.000164885
-7.57165e-05
-0.000686068
0.000310676
-0.000215514
-0.000785703
0.000504361
-0.000404726
-0.000887152
0.000758485
-0.000657036
-0.000986145
0.00108573
-0.000986739
-0.00107639
0.00149679
-0.00140654
-0.00114968
0.00199659
-0.0019233
-0.0011957
0.00257852
-0.00253251
0.00322193
-0.00321593
-0.0012017
-5.56676e-06
-4.27609e-05
-2.05569e-05
-0.000103468
-4.41915e-05
-0.000144102
-7.57704e-05
-0.000164493
-0.000114705
-0.000165861
-0.000160568
-0.000150426
-0.000213095
-0.000120684
-0.000272138
-7.84575e-05
-0.000337578
-2.39374e-05
-0.000409201
4.49977e-05
-0.000486577
0.000133024
-0.000568883
0.000247191
-0.000654689
0.000396483
-0.000741638
0.000591309
-0.000826008
0.000842855
-0.000902217
0.00116194
-0.000962308
0.00155688
-0.000996089
0.00203037
-0.000991221
0.00257366
0.00315907
-0.000928356
-5.5831e-06
-3.71778e-05
-2.0496e-05
-8.85555e-05
-4.38104e-05
-0.000120787
-7.46789e-05
-0.000133625
-0.000112379
-0.000128161
-0.000156357
-0.000106448
-0.000206219
-7.08226e-05
-0.000261657
-2.30191e-05
-0.000322331
3.67361e-05
-0.00038771
0.000110377
-0.000456908
0.000202223
-0.000528491
0.000318774
-0.00060024
0.000468231
-0.000668812
0.000659881
-0.00072929
0.000903333
-0.000774673
0.00120732
-0.000795259
0.00157746
-0.00077851
0.00201362
-0.000711629
0.00250678
0.00301364
-0.000566206
-5.47957e-06
-3.16982e-05
-2.00202e-05
-7.40149e-05
-4.25711e-05
-9.82364e-05
-7.21449e-05
-0.000104051
-0.000107873
-9.24328e-05
-0.000149048
-6.52734e-05
-0.000195099
-2.4771e-05
-0.000245508
2.73894e-05
-0.000299651
9.08788e-05
-0.000356614
0.00016734
-0.000414989
0.000260598
-0.00047266
0.000376445
-0.000526541
0.000522113
-0.000572244
0.000705583
-0.000603614
0.000934704
-0.000612254
0.00121596
-0.000586923
0.00155213
-0.000512166
0.00193886
-0.000376358
0.00237097
0.00278469
-0.000147403
-5.28538e-06
-2.64129e-05
-1.92307e-05
-6.00696e-05
-4.06824e-05
-7.67847e-05
-6.85176e-05
-7.62157e-05
-0.00010171
-5.92403e-05
-0.00013937
-2.76136e-05
-0.000180715
1.65746e-05
-0.000224969
7.16433e-05
-0.000271183
0.000137092
-0.000318017
0.000214175
-0.000363511
0.000306091
-0.000404834
0.000417768
-0.000438025
0.000555304
-0.000457655
0.000725213
-0.000456387
0.000933436
-0.000424521
0.0011841
-0.000349766
0.00147738
-0.000213709
0.0018028
7.86813e-07
0.00215647
0.0024725
0.000312975
-5.03346e-06
-2.13794e-05
-1.82398e-05
-4.68633e-05
-3.83751e-05
-5.66494e-05
-6.41814e-05
-5.04095e-05
-9.44633e-05
-2.89584e-05
-0.000128127
6.04964e-06
-0.000164147
5.25952e-05
-0.000201457
0.000108953
-0.000238753
0.000174388
-0.000274253
0.000249675
-0.000305437
0.000337276
-0.000328781
0.000441112
-0.000339482
0.000566005
-0.000331142
0.000716872
-0.000295378
0.000897673
-0.000221334
0.00111005
-9.56669e-05
0.00135171
9.97408e-05
0.0016074
0.000375108
0.00188111
0.0020679
0.000779711
-4.7574e-06
-1.6622e-05
-1.71618e-05
-3.44589e-05
-3.58824e-05
-3.79288e-05
-5.95243e-05
-2.67676e-05
-8.67129e-05
-1.7698e-06
-0.000116133
3.54696e-05
-0.000146495
8.29577e-05
-0.000176421
0.000138878
-0.000204236
0.000202203
-0.000227718
0.000273157
-0.000243809
0.000353367
-0.000248341
0.000445643
-0.000235748
0.000553413
-0.000198781
0.000679906
-0.000128142
0.000827033
-1.22683e-05
0.000994178
0.000161797
0.00117765
0.000416844
0.00135235
0.000753443
0.00154451
0.00158612
0.00123522
-4.48832e-06
-1.21337e-05
-1.61017e-05
-2.28455e-05
-3.34186e-05
-2.06118e-05
-5.4903e-05
-5.28316e-06
-7.89938e-05
2.2321e-05
-0.000104143
6.0619e-05
-0.000128785
0.0001076
-0.000151217
0.00016131
-0.000169395
0.000220381
-0.000180667
0.000284429
-0.00018148
0.00035418
-0.000167086
0.000431249
-0.000131266
0.000517593
-6.6012e-05
0.000614652
3.84616e-05
0.00072256
0.0001946
0.00083804
0.000414687
0.000957559
0.00072521
0.00104182
0.00111591
0.00115381
0.00103418
0.00166785
-4.25187e-06
-7.88179e-06
-1.51453e-05
-1.19521e-05
-3.11584e-05
-4.5988e-06
-5.0608e-05
1.41665e-05
-7.17419e-05
4.34549e-05
-9.2775e-05
8.16522e-05
-0.000111859
0.000126684
-0.000126966
0.000176417
-0.000135684
0.0002291
-0.000134955
0.000283699
-0.000120767
0.000339992
-8.78626e-05
0.000398345
-2.94249e-05
0.000459155
6.29083e-05
0.000522319
0.000199727
0.000585741
0.000394013
0.000643754
0.000657116
0.000694456
0.00101958
0.000679357
0.00145887
0.000714514
0.000415661
0.0020774
-4.06545e-06
-3.81635e-06
-1.43501e-05
-1.66741e-06
-2.92168e-05
1.02679e-05
-4.68294e-05
3.1779e-05
-6.52413e-05
6.18668e-05
-8.24292e-05
9.88401e-05
-9.62612e-05
0.000140516
-0.000104384
0.000184539
-0.000104022
0.000228739
-9.17182e-05
0.000271395
-6.30243e-05
0.000311298
-1.21952e-05
0.000347516
6.79591e-05
0.000379001
0.000186604
0.000403674
0.000354612
0.000417732
0.000585623
0.000412743
0.00089086
0.000389219
0.00130394
0.000266274
0.00179341
0.000225051
-0.00027274
0.00248181
-3.93607e-06
1.19725e-07
-1.37374e-05
8.1339e-06
-2.76341e-05
2.41647e-05
-4.36294e-05
4.77743e-05
-5.95794e-05
7.78168e-05
-7.32206e-05
0.000112481
-8.21344e-05
0.00014943
-8.36337e-05
0.000186038
-7.45673e-05
0.000219672
-5.10563e-05
0.000247884
-8.17877e-06
0.00026842
6.02577e-05
0.00027908
0.000162167
0.000277092
0.000307262
0.000258579
0.000507184
0.00021781
0.000776302
0.000143625
0.00112755
3.79676e-05
0.00159439
-0.000200561
0.00214671
-0.00032727
-0.00104086
0.00291483
-3.85897e-06
3.97869e-06
-1.3288e-05
1.7563e-05
-2.63656e-05
3.72423e-05
-4.09242e-05
6.23329e-05
-5.46155e-05
9.15081e-05
-6.49268e-05
0.000122793
-6.91372e-05
0.00015364
-6.41972e-05
0.000181098
-4.65284e-05
0.000202003
-1.17458e-05
0.000213101
4.56084e-05
0.000211066
0.000132502
0.000192187
0.000257607
0.000151987
0.000431672
8.45134e-05
0.000667592
-1.81102e-05
0.000980678
-0.000169461
0.00138777
-0.000369124
0.00191676
-0.000729555
0.00255308
-0.000963587
-0.00189617
0.00340839
-3.8178e-06
7.79649e-06
-1.29423e-05
2.66875e-05
-2.52807e-05
4.95807e-05
-3.84804e-05
7.55325e-05
-4.99721e-05
0.000103
-5.69705e-05
0.000129791
-5.64126e-05
0.000153082
-4.48205e-05
0.000169506
-1.80836e-05
0.000175267
2.88195e-05
0.000166198
0.000102206
0.00013768
0.000210005
8.43878e-05
0.00036213
-1.38235e-07
0.000570803
-0.00012416
0.000850765
-0.000298072
0.00121829
-0.000536987
0.00169462
-0.000845458
0.00229669
-0.00133162
0.00303486
-0.00170176
-0.00282836
0.00396706
-3.78565e-06
1.15821e-05
-1.26044e-05
3.55062e-05
-2.41724e-05
6.11487e-05
-3.59298e-05
8.729e-05
-4.50567e-05
0.000112127
-4.8448e-05
0.000133182
-4.26257e-05
0.00014726
-2.35706e-05
0.000150451
1.35244e-05
0.000138172
7.45905e-05
0.000105132
0.000167064
4.52061e-05
0.000300279
-4.88274e-05
0.000485808
-0.000185667
0.000737647
-0.000375999
0.00107234
-0.000632765
0.00150674
-0.000971391
0.00206307
-0.00140178
0.00274452
-0.00201307
0.00358334
-0.00254058
-0.00379979
0.00455476
-3.72833e-06
1.53105e-05
-1.2153e-05
4.39309e-05
-2.2778e-05
7.17737e-05
-3.28055e-05
9.73175e-05
-3.9116e-05
0.000118437
-3.82115e-05
0.000132278
-2.60889e-05
0.000135137
1.97729e-06
0.000122385
5.1713e-05
8.84358e-05
0.000130241
2.66042e-05
0.000246467
-7.10204e-05
0.000411449
-0.000213809
0.000638579
-0.000412796
0.000943368
-0.000680789
0.00134289
-0.00103228
0.00185301
-0.00148152
0.00249007
-0.00203884
0.00324352
-0.00276652
0.00415262
-0.00344968
-0.00475337
0.00510621
-3.60875e-06
1.89192e-05
-1.14559e-05
5.17781e-05
-2.08105e-05
8.11282e-05
-2.85945e-05
0.000105102
-3.13224e-05
0.000121165
-2.5002e-05
0.000125957
-4.95665e-06
0.000115092
3.44151e-05
8.30133e-05
0.000100027
2.28237e-05
0.000200447
-7.38151e-05
0.000346269
-0.000216843
0.000550296
-0.000417836
0.000827313
-0.000689814
0.00119314
-0.00104662
0.00166265
-0.00150179
0.00224747
-0.00206634
0.00295109
-0.00274246
0.00375054
-0.00356597
0.00467373
-0.00437288
-0.00563395
0.00555432
-3.39232e-06
2.23115e-05
-1.03879e-05
5.87737e-05
-1.7995e-05
8.87353e-05
-2.28031e-05
0.00010991
-2.08778e-05
0.00011924
-7.61538e-06
0.000112695
2.2481e-05
8.49956e-05
7.61194e-05
2.93749e-05
0.000161558
-6.26151e-05
0.000288957
-0.000201214
0.000470538
-0.000398424
0.000720355
-0.000667654
0.00105333
-0.00102279
0.00148332
-0.0014766
0.00201939
-0.00203786
0.00266431
-0.00271126
0.00340543
-0.00348358
0.00420993
-0.00437047
0.00508332
-0.00524627
-0.00640673
0.00585609
-3.052e-06
2.53635e-05
-8.84789e-06
6.45695e-05
-1.41051e-05
9.39925e-05
-1.50201e-05
0.000110825
-7.11807e-06
0.000111338
1.49384e-05
9.06384e-05
5.76227e-05
4.23113e-05
0.000128869
-4.18712e-05
0.000238383
-0.000172129
0.000397812
-0.000360642
0.000620526
-0.000621138
0.000920694
-0.000967822
0.00131131
-0.0014134
0.00180113
-0.00196643
0.00239009
-0.00262682
0.00306822
-0.00338939
0.00380854
-0.0042239
0.00457311
-0.00513504
0.0053479
-0.00602106
-0.00706223
0.0060034
-2.57218e-06
2.79357e-05
-6.77176e-06
6.87691e-05
-8.99009e-06
9.62108e-05
-4.96576e-06
0.0001068
1.04062e-05
9.59657e-05
4.33087e-05
5.77359e-05
0.000101294
-1.56737e-05
0.000193577
-0.000134155
0.00033121
-0.000309762
0.000526908
-0.000556341
0.000794226
-0.000888456
0.0011457
-0.00131929
0.00158976
-0.00185746
0.00212696
-0.00250363
0.00274602
-0.00324588
0.0034238
-0.00406717
0.00412527
-0.00492538
0.00481357
-0.00582334
0.00546802
-0.00667551
-0.00761041
0.00601621
-1.95003e-06
2.98858e-05
-4.13776e-06
7.09569e-05
-2.58608e-06
9.46592e-05
7.48418e-06
9.67301e-05
3.18927e-05
7.15572e-05
7.77445e-05
1.18841e-05
0.000153708
-9.1637e-05
0.0002702
-0.000250647
0.000439285
-0.000478847
0.000673977
-0.000791033
0.000986574
-0.00120105
0.00138579
-0.0017185
0.00187287
-0.00234455
0.00243809
-0.00306885
0.00305929
-0.00386708
0.00370416
-0.00471203
0.00433823
-0.00555945
0.00493089
-0.00641599
0.00546482
-0.00720945
-0.00807672
0.00593114
-1.19408e-06
3.10798e-05
-9.59388e-07
7.07222e-05
5.08408e-06
8.86157e-05
2.23081e-05
7.95061e-05
5.72991e-05
3.65662e-05
0.000118117
-4.89341e-05
0.000214495
-0.000188014
0.000357808
-0.000393961
0.000560544
-0.000681582
0.000834879
-0.00106537
0.00119007
-0.00155624
0.00162872
-0.00215716
0.00214304
-0.00285887
0.00271296
-0.00363877
0.00330867
-0.00446279
0.0038958
-0.00529917
0.00444779
-0.00611144
0.00494452
-0.00691271
0.00538329
-0.00764822
-0.00846041
0.00576697
-3.22566e-07
3.14024e-05
2.70856e-06
6.7691e-05
1.39433e-05
7.7381e-05
3.93762e-05
5.40731e-05
8.63989e-05
-1.04565e-05
0.000164002
-0.000126537
0.000282817
-0.00030683
0.000454755
-0.000565899
0.000691863
-0.00091869
0.00100404
-0.00137755
0.00139557
-0.00194776
0.00186114
-0.00262273
0.00238352
-0.00338124
0.00293484
-0.00419009
0.00348297
-0.00501092
0.00399873
-0.00581494
0.00446673
-0.00657944
0.00487789
-0.00732388
0.0052478
-0.00801812
-0.00878868
0.00557607
6.5243e-07
3.075e-05
6.82601e-06
6.15175e-05
2.3888e-05
6.03189e-05
5.85008e-05
1.94604e-05
0.000118856
-7.08122e-05
0.000214778
-0.000222458
0.000357508
-0.00044956
0.00055886
-0.000767251
0.000829323
-0.00118915
0.0011749
-0.00172313
0.00159317
-0.00236603
0.0020702
-0.00309976
0.00258091
-0.00389195
0.00309413
-0.00470331
0.0035812
-0.005498
0.00402266
-0.00625639
0.00441401
-0.00697079
0.00475771
-0.00766758
0.00507084
-0.00833125
-0.00907437
0.00535652
1.71166e-06
2.90383e-05
1.13425e-05
5.18866e-05
3.48171e-05
3.68444e-05
7.9485e-05
-2.52076e-05
0.000154294
-0.000145621
0.000269715
-0.000337879
0.000437163
-0.000617009
0.000667516
-0.000997603
0.000968385
-0.00149002
0.0013403
-0.00209505
0.00177313
-0.00279885
0.00224512
-0.00357175
0.00272682
-0.00437365
0.00318881
-0.0051653
0.00361017
-0.00591936
0.00398213
-0.00662835
0.00430932
-0.00729799
0.00459995
-0.00795821
0.00487206
-0.00860336
-0.00933075
0.00512844
2.85193e-06
2.61864e-05
1.62308e-05
3.85077e-05
4.66554e-05
6.41983e-06
0.000102153
-8.07053e-05
0.000192324
-0.000235792
0.000328002
-0.000473556
0.000520169
-0.000809175
0.000777735
-0.00125517
0.00110405
-0.00181634
0.001493
-0.002484
0.00192686
-0.00323271
0.00237851
-0.0040234
0.00281841
-0.00481354
0.00322308
-0.00556997
0.00358098
-0.00627727
0.00389265
-0.00694001
0.00416827
-0.00757361
0.00441861
-0.00820855
0.00465971
-0.00884446
-0.00956271
0.00489167
4.07554e-06
2.21108e-05
2.14855e-05
2.10977e-05
5.93579e-05
-3.14526e-05
0.000126351
-0.000147699
0.000232544
-0.000341985
0.000388718
-0.000629731
0.000604657
-0.00102511
0.000886153
-0.00153667
0.00123109
-0.00216127
0.00162628
-0.00287919
0.0020479
-0.00365434
0.00246696
-0.00444246
0.00285779
-0.00520437
0.00320503
-0.00591721
0.00350602
-0.00657825
0.00376779
-0.00720179
0.00400303
-0.00780885
0.00422234
-0.00842785
0.00443885
-0.00906097
-0.00977447
0.00465062
5.3923e-06
1.67185e-05
2.71172e-05
-6.27186e-07
7.28961e-05
-7.72314e-05
0.000151921
-0.000226724
0.000274483
-0.000464547
0.000450771
-0.000806018
0.000688464
-0.00126281
0.000989108
-0.00183731
0.00134436
-0.00251652
0.00173462
-0.00326945
0.00213255
-0.00405228
0.0025109
-0.00482081
0.00285049
-0.00554396
0.00314438
-0.0062111
0.00339679
-0.00683066
0.00361841
-0.00742341
0.00382202
-0.00801246
0.00401678
-0.00862261
0.00421276
-0.00925695
-0.00996822
0.00440651
6.81528e-06
9.90326e-06
3.31392e-05
-2.69511e-05
8.72317e-05
-0.000131324
0.000178654
-0.000318146
0.000317546
-0.000603439
0.000512832
-0.0010013
0.000769128
-0.0015191
0.00108283
-0.00215101
0.00143934
-0.00287303
0.00181432
-0.00364443
0.00218001
-0.00441797
0.00251375
-0.00515454
0.0028039
-0.00583411
0.00305072
-0.00645792
0.00326295
-0.00704289
0.00345253
-0.00761299
0.00363092
-0.00819086
0.00380534
-0.00879703
0.00398314
-0.00943474
-0.0101452
0.00416012
8.3552e-06
1.54806e-06
3.95542e-05
-5.81501e-05
0.000102287
-0.000194057
0.000206249
-0.000422108
0.000360958
-0.000758148
0.000573319
-0.00121367
0.00084399
-0.00178977
0.00116375
-0.00247077
0.00151258
-0.00322186
0.00186377
-0.00399563
0.002192
-0.0047462
0.00248082
-0.00544337
0.00272579
-0.00607908
0.0029325
-0.00666463
0.00311197
-0.00722235
0.00327576
-0.00777679
0.00343336
-0.00834845
0.00359006
-0.00895373
0.00375105
-0.00959574
-0.0103061
0.00391195
1.00167e-05
-8.46866e-06
4.63374e-05
-9.44708e-05
0.000117921
-0.00026564
0.000234277
-0.000538465
0.000403749
-0.00092762
0.000630445
-0.00144036
0.000910391
-0.00206972
0.00122889
-0.00278927
0.00156206
-0.00355503
0.00188337
-0.00431694
0.002172
-0.00503483
0.00241818
-0.00568955
0.00262339
-0.00628429
0.0027966
-0.00683784
0.00294937
-0.00737511
0.00309191
-0.00791933
0.00323161
-0.00848815
0.00337216
-0.00909428
0.00351711
-0.00974069
-0.0104513
0.00366226
1.17953e-05
-2.02639e-05
5.34298e-05
-0.000136105
0.000133911
-0.000346122
0.000262177
-0.00066673
0.000444779
-0.00111022
0.000682333
-0.00167792
0.000965918
-0.0023533
0.00127614
-0.00309949
0.00158724
-0.00386613
0.00187511
-0.00460481
0.00212452
-0.00528424
0.00233186
-0.00589688
0.00250293
-0.00645536
0.00264836
-0.00698327
0.00277905
-0.0075058
0.00290348
-0.00804376
0.00302711
-0.00861178
0.00315239
-0.00921956
0.00328172
-0.00987001
-0.0105808
0.00341128
1.36753e-05
-3.39392e-05
6.07346e-05
-0.000183165
0.000149961
-0.000435348
0.00028927
-0.000806039
0.000482811
-0.00130376
0.000727179
-0.00192228
0.00100865
-0.00263477
0.00130442
-0.00339526
0.00158893
-0.00415064
0.00184205
-0.00485792
0.00205436
-0.00549656
0.0022273
-0.00606983
0.00236945
-0.00659751
0.00249172
-0.00710554
0.00260371
-0.00761779
0.0027121
-0.00815215
0.00282077
-0.00872045
0.00293128
-0.00933008
0.0030452
-0.00998393
-0.0106948
0.00315923
1.56308e-05
-4.957e-05
6.812e-05
-0.000235654
0.000165706
-0.000532935
0.000314801
-0.000955133
0.0005166
-0.00150556
0.000763417
-0.0021691
0.00103733
-0.00290868
0.00131371
-0.00367165
0.00156896
-0.00440589
0.00178779
-0.00507675
0.00196612
-0.00567489
0.00210915
-0.00621286
0.00222685
-0.0067152
0.00232951
-0.00720821
0.00242516
-0.00771344
0.00251884
-0.00824583
0.00261319
-0.0088148
0.00270919
-0.00942607
0.00280782
-0.0100826
-0.0107933
0.0029063
1.76273e-05
-6.71973e-05
7.5426e-05
-0.000293453
0.000180738
-0.000638247
0.000337993
-0.00111239
0.000545
-0.00171257
0.000789857
-0.00241396
0.00105141
-0.00317023
0.00130485
-0.00392509
0.00152982
-0.00463086
0.00171605
-0.00526298
0.00186394
-0.00582278
0.00198119
-0.00633011
0.00207808
-0.00681208
0.00216376
-0.00729389
0.00224466
-0.00779434
0.00232443
-0.00832561
0.00240484
-0.00889521
0.00248644
-0.00950767
0.00256984
-0.010166
-0.0108762
0.00265271
1.96229e-05
-8.68202e-05
8.24737e-05
-0.000356303
0.000194629
-0.000750402
0.000358098
-0.00127586
0.000567057
-0.00192153
0.000805767
-0.00265267
0.00105105
-0.00341552
0.00127935
-0.00415339
0.0014743
-0.00482582
0.00163034
-0.00541902
0.00175135
-0.00594378
0.00184639
-0.00642515
0.0019253
-0.006891
0.00199587
-0.00736447
0.00206304
-0.00786151
0.0021294
-0.00839196
0.00219605
-0.00896186
0.00226331
-0.00957493
0.00233151
-0.0102342
-0.0109434
0.00239872
2.15714e-05
-0.000108392
8.90752e-05
-0.000423807
0.000206959
-0.000868286
0.000374458
-0.00144336
0.000582074
-0.00212914
0.000810893
-0.00288149
0.00103697
-0.00364159
0.00123912
-0.00435554
0.00140523
-0.00499193
0.00153382
-0.00554761
0.00163123
-0.00604119
0.00170701
-0.00650093
0.00177008
-0.00695407
0.00182682
-0.00742121
0.00188092
-0.0079156
0.00193414
-0.00844518
0.00198713
-0.00901486
0.00204007
-0.00962787
0.00209308
-0.0102872
-0.0109949
0.00214455
2.34241e-05
-0.000131816
9.5044e-05
-0.000495427
0.000217345
-0.000990586
0.00038654
-0.00161255
0.000589645
-0.00233225
0.000805421
-0.00309726
0.00101033
-0.0038465
0.00118628
-0.00453148
0.00132529
-0.00513094
0.00142921
-0.00565153
0.00150591
-0.00611789
0.00156476
-0.00655979
0.00161356
-0.00700286
0.00165733
-0.00746498
0.00169875
-0.00795703
0.00173898
-0.0084854
0.00177837
-0.00905425
0.001817
-0.0096665
0.00185481
-0.010325
-0.0110306
0.0018905
2.51318e-05
-0.000156948
0.000100204
-0.0005705
0.000225455
-0.00111584
0.00039397
-0.00178107
0.000589662
-0.00252794
0.000789905
-0.00329751
0.000972544
-0.00402914
0.00112294
-0.00468189
0.00123689
-0.00524489
0.00131876
-0.0057334
0.00137719
-0.00617631
0.00142093
-0.00660353
0.00145655
-0.00703848
0.00148792
-0.00749635
0.0015169
-0.00798601
0.00154422
-0.00851272
0.00157004
-0.00908007
0.00159434
-0.0096908
0.00161697
-0.0103476
-0.0110504
0.00163683
2.66475e-05
-0.000183595
0.0001044
-0.000648252
0.000231033
-0.00124247
0.000396543
-0.00194658
0.000582285
-0.00271368
0.000765174
-0.0034804
0.000925161
-0.00418913
0.00105115
-0.00480787
0.00114215
-0.00533589
0.00120433
-0.00579557
0.00124647
-0.00621845
0.00127646
-0.00663353
0.00129967
-0.00706168
0.00131898
-0.00751567
0.00133566
-0.00800269
0.00135012
-0.00852718
0.00136238
-0.00909234
0.00137238
-0.0097008
0.00137984
-0.0103551
-0.0110544
0.00138385
2.79278e-05
-0.000211523
0.000107501
-0.000727825
0.000233903
-0.00136887
0.00039422
-0.00210689
0.0005679
-0.00288736
0.000732233
-0.00364473
0.000869752
-0.00432665
0.000972743
-0.00491086
0.00104286
-0.00540601
0.00108737
-0.00584008
0.00111481
-0.0062459
0.00113205
-0.00665077
0.00114336
-0.00707299
0.00115085
-0.00752315
0.00115531
-0.00800715
0.00115694
-0.0085288
0.00115566
-0.00909106
0.00115137
-0.0096965
0.0011437
-0.0103474
-0.0110426
0.00113185
2.89349e-05
-0.000240458
0.000109408
-0.000808298
0.000233975
-0.00149344
0.000387119
-0.00226004
0.000547066
-0.00304731
0.00069218
-0.00378984
0.000807824
-0.00444229
0.000889359
-0.0049924
0.000940484
-0.00545713
0.000969047
-0.00586865
0.000983018
-0.00625987
0.000988232
-0.00665598
0.000988004
-0.00707277
0.000983807
-0.00751896
0.000976103
-0.00799945
0.000964924
-0.00851762
0.000950132
-0.00907627
0.000931563
-0.00967793
0.000908823
-0.0103247
-0.0110149
0.00088117
2.96377e-05
-0.000270095
0.000110057
-0.000888717
0.000231245
-0.00161463
0.000375482
-0.00240428
0.000520454
-0.00319228
0.000646136
-0.00391552
0.00074077
-0.00453693
0.000802407
-0.00505404
0.000836244
-0.00549097
0.000850272
-0.00588267
0.000851717
-0.00626131
0.000845418
-0.00664968
0.000833885
-0.00706123
0.000818099
-0.00750317
0.000798273
-0.00797962
0.00077432
-0.00849367
0.000746039
-0.00904799
0.000713222
-0.00964512
0.000675483
-0.0102869
-0.0109715
0.000632074
3.00132e-05
-0.000300109
0.000109418
-0.000968122
0.000225782
-0.00173099
0.000359656
-0.00253815
0.000488804
-0.00332143
0.000595189
-0.00402191
0.000669843
-0.00461158
0.00071308
-0.00509727
0.000731109
-0.005509
0.000731744
-0.00588331
0.000721377
-0.00625094
0.000703933
-0.00663224
0.000681256
-0.00703856
0.00065395
-0.00747586
0.000622046
-0.00794772
0.000585364
-0.00845699
0.000543648
-0.00900627
0.00049663
-0.0095981
0.000443856
-0.0102341
-0.0109125
0.000384827
3.00465e-05
-0.000330155
0.000107494
-0.00104557
0.000217724
-0.00184122
0.000340054
-0.00266048
0.000452875
-0.00343425
0.000540358
-0.00410939
0.000596139
-0.00466736
0.000622368
-0.0051235
0.000625856
-0.00551248
0.000614011
-0.00587146
0.000592368
-0.0062293
0.000564043
-0.00660391
0.00053034
-0.00700485
0.000491573
-0.0074371
0.00044764
-0.00790378
0.000398281
-0.00840763
0.000343208
-0.0089512
0.000282144
-0.00953704
0.000214199
-0.0101662
-0.0108377
0.000139346
2.97311e-05
-0.000359886
0.00010432
-0.00112016
0.000207256
-0.00194416
0.000317136
-0.00277036
0.000413413
-0.00353053
0.000482575
-0.00417855
0.000520605
-0.00470539
0.000531087
-0.00513398
0.000521101
-0.0055025
0.000497498
-0.00584786
0.000464983
-0.00619679
0.000425971
-0.0065649
0.000381337
-0.00696022
0.000331173
-0.00738693
0.000275263
-0.00784787
0.000213289
-0.00834565
0.000144893
-0.0088828
6.983e-05
-0.00946197
-1.15454e-05
-0.0100848
-0.0107456
-0.000103629
2.90684e-05
-0.000388955
9.99571e-05
-0.00119105
0.000194606
-0.00203881
0.000291376
-0.00286713
0.00037113
-0.00361028
0.000422669
-0.00423009
0.00044404
-0.00472676
0.000439898
-0.00512984
0.000417327
-0.00547993
0.00038254
-0.00581308
0.000339462
-0.00615371
0.000289915
-0.00651536
0.000234428
-0.00690473
0.00017295
-0.00732545
0.000105094
-0.00778002
3.05117e-05
-0.00827107
-5.10763e-05
-0.00880122
-0.000139888
-0.00937316
-0.000237302
-0.0099874
-0.01064
-0.000342854
2.80672e-05
-0.000417022
9.44862e-05
-0.00125747
0.000180025
-0.00212434
0.000263249
-0.00295035
0.000326684
-0.00367372
0.000361367
-0.00426478
0.000367115
-0.00473251
0.000349336
-0.00511206
0.000314918
-0.00544551
0.000269402
-0.00576756
0.000216002
-0.00610031
0.000156052
-0.00645541
8.97571e-05
-0.00683844
1.69003e-05
-0.0072526
-6.26282e-05
-0.00770049
-0.000149476
-0.00818422
-0.000244077
-0.00870662
-0.000346878
-0.00927036
-0.00045869
-0.00987559
-0.0105193
-0.000579371
2.67424e-05
-0.000443764
8.80058e-05
-0.00131873
0.000163774
-0.00220011
0.000233213
-0.00301979
0.00028067
-0.00372117
0.000299296
-0.0042834
0.000290386
-0.0047236
0.000259827
-0.0050815
0.00021418
-0.00539986
0.000158299
-0.00571168
9.47625e-05
-0.00603677
2.44326e-05
-0.00638508
-5.24545e-05
-0.00676155
-0.000136265
-0.00716879
-0.000227581
-0.00760917
-0.000326778
-0.00808503
-0.000434355
-0.00859904
-0.000550858
-0.00915386
-0.000676863
-0.00974959
-0.0103836
-0.000812631
2.51144e-05
-0.000468879
8.06251e-05
-0.00137424
0.000146118
-0.00226561
0.000201696
-0.00307537
0.000233619
-0.0037531
0.000236988
-0.00428677
0.000214308
-0.00470092
0.000171718
-0.00503891
0.000115357
-0.0053435
4.93707e-05
-0.00564569
-2.41536e-05
-0.00596325
-0.000104494
-0.00630474
-0.000191959
-0.00667409
-0.000286874
-0.00707387
-0.000389757
-0.00750629
-0.000501128
-0.00797366
-0.000621528
-0.00847864
-0.000751533
-0.00902385
-0.000891645
-0.00960948
-0.010233
-0.00104222
2.32077e-05
-0.000492087
7.24602e-05
-0.00142349
0.000127319
-0.00232046
0.000169096
-0.00311715
0.000185999
-0.00377
0.000174893
-0.00427567
0.00013924
-0.00466527
8.53043e-05
-0.00498498
1.85621e-05
-0.00527676
-5.71514e-05
-0.00556998
-0.000140368
-0.00588003
-0.000230842
-0.00621426
-0.000328771
-0.00657616
-0.000434617
-0.00696802
-0.00054893
-0.00739197
-0.000672306
-0.00785028
-0.000805355
-0.00834559
-0.00094869
-0.00888052
-0.00110277
-0.0094554
-0.0100679
-0.00126789
2.10506e-05
-0.000513137
6.36305e-05
-0.00146607
0.000107624
-0.00236446
0.000135776
-0.0031453
0.000138223
-0.00377245
0.000113389
-0.00425083
6.54634e-05
-0.00461734
4.92071e-07
-0.00492001
-7.58771e-05
-0.00520039
-0.000161142
-0.00548471
-0.000254035
-0.00578714
-0.000354441
-0.00611386
-0.000462698
-0.0064679
-0.000579322
-0.0068514
-0.00070491
-0.00726639
-0.000840115
-0.00771508
-0.000985618
-0.00820009
-0.0011421
-0.00872404
-0.00130997
-0.00928752
-0.00988847
-0.00148937
1.86749e-05
-0.000531812
5.42569e-05
-0.00150165
8.72733e-05
-0.00239747
0.000102064
-0.00316009
9.06264e-05
-0.00376101
5.27889e-05
-0.004213
-6.65816e-06
-0.0045579
-8.17034e-05
-0.00484496
-0.000167897
-0.0051142
-0.000262565
-0.00539005
-0.000364957
-0.00568475
-0.000475156
-0.00600366
-0.000593594
-0.00634946
-0.000720837
-0.00672416
-0.000857525
-0.0071297
-0.00100436
-0.00756824
-0.0011621
-0.00804234
-0.00133152
-0.00855462
-0.00151299
-0.00910606
-0.00969507
-0.00170639
1.61176e-05
-0.00054793
4.44609e-05
-0.00153
6.64937e-05
-0.00241951
6.82545e-05
-0.00316185
4.34836e-05
-0.00373624
-6.52256e-06
-0.00416299
-7.7014e-05
-0.0044874
-0.000162006
-0.00475997
-0.000257458
-0.00501874
-0.000361303
-0.0052862
-0.000473029
-0.00557302
-0.000592867
-0.00588382
-0.000721324
-0.00622101
-0.000859011
-0.00658647
-0.00100661
-0.0069821
-0.00116486
-0.00740998
-0.00133461
-0.0078726
-0.00151673
-0.0083725
-0.00171158
-0.00891121
-0.00948797
-0.00191868
1.34228e-05
-0.000561352
3.43636e-05
-0.00155094
4.55e-05
-0.00243064
3.45843e-05
-0.00315093
-2.32316e-06
-0.00369933
-6.45609e-05
-0.00410075
-0.000145514
-0.00440645
-0.000239997
-0.00466549
-0.00034445
-0.00491429
-0.000457262
-0.00517339
-0.00057815
-0.00545213
-0.00070746
-0.00575451
-0.000845759
-0.00608271
-0.000993701
-0.00643853
-0.001152
-0.0068238
-0.00132145
-0.00724054
-0.00150295
-0.00769109
-0.00169753
-0.00817792
-0.00190552
-0.00870322
-0.00926748
-0.00212601
1.0627e-05
-0.000571979
2.40702e-05
-0.00156438
2.44814e-05
-0.00243105
2.03876e-06
-0.00312849
-4.82121e-05
-0.00364908
-0.000121179
-0.00402779
-0.000212001
-0.00431563
-0.000315586
-0.0045619
-0.000428788
-0.00480109
-0.000550361
-0.00505182
-0.000680228
-0.00532227
-0.000818826
-0.00561591
-0.000966776
-0.00593476
-0.00112477
-0.00628054
-0.00129355
-0.00665501
-0.00147395
-0.00706014
-0.00166695
-0.0074981
-0.00187372
-0.00797114
-0.00209461
-0.00848233
-0.00903405
-0.00232804
7.72922e-06
-0.000579709
1.36716e-05
-0.00157032
3.85261e-06
-0.00242124
-3.16308e-05
-0.00309301
-9.26699e-05
-0.00358804
-0.000176112
-0.00394434
-0.000276362
-0.00421538
-0.000388696
-0.00444957
-0.000510395
-0.00467939
-0.000640524
-0.00492169
-0.000779173
-0.00518362
-0.000926862
-0.00546822
-0.00108425
-0.00577736
-0.00125208
-0.00611271
-0.00143111
-0.00647598
-0.0016222
-0.00686906
-0.00182641
-0.00729389
-0.00204509
-0.00775247
-0.0022786
-0.00824883
-0.00878814
-0.00252451
4.74148e-06
-0.00058445
3.17453e-06
-0.00156876
-1.75244e-05
-0.00240054
-6.3881e-05
-0.00304665
-0.000135869
-0.00351605
-0.000229254
-0.00385096
-0.000338505
-0.00410613
-0.000459264
-0.00432881
-0.000589209
-0.00454944
-0.000727678
-0.00478322
-0.000874901
-0.00503639
-0.00103147
-0.00531166
-0.00119808
-0.00561075
-0.00137551
-0.00593528
-0.00156454
-0.00628694
-0.00176606
-0.00666754
-0.00198118
-0.00707877
-0.00221137
-0.00752227
-0.00245718
-0.00800302
-0.00852967
-0.00271564
1.4655e-06
-0.000585916
-7.46666e-06
-0.00155983
-3.82008e-05
-0.0023698
-9.53142e-05
-0.00298954
-0.000177691
-0.00343368
-0.000280521
-0.00374813
-0.000398363
-0.00398829
-0.000527233
-0.00419994
-0.000665173
-0.0044115
-0.000811754
-0.00463664
-0.000967328
-0.00488082
-0.00113254
-0.00514645
-0.00130814
-0.00543515
-0.00149492
-0.0057485
-0.00169371
-0.00608815
-0.00190541
-0.00645583
-0.00213117
-0.00685301
-0.00237247
-0.00728097
-0.00263019
-0.00774531
-0.00825833
-0.00290153
-1.69159e-06
-0.000584224
-1.80042e-05
-0.00154351
-5.83615e-05
-0.00232945
-0.000125817
-0.00292208
-0.000218051
-0.00334144
-0.000329841
-0.00363634
-0.000455883
-0.00386224
-0.000592555
-0.00406327
-0.000738233
-0.00426582
-0.00089269
-0.00448218
-0.00105637
-0.00471713
-0.00122999
-0.00497283
-0.00141431
-0.00525083
-0.00161018
-0.00555263
-0.00181847
-0.00587986
-0.00204014
-0.00623416
-0.00227639
-0.00661676
-0.00252859
-0.00702877
-0.00279705
-0.00747685
-0.00797581
-0.00307957
-4.63407e-06
-0.00057959
-2.82676e-05
-0.00151988
-7.79875e-05
-0.00227973
-0.000155301
-0.00284477
-0.000256872
-0.00323987
-0.000377155
-0.00351606
-0.000511018
-0.00372838
-0.000655189
-0.0039191
-0.000808341
-0.00411267
-0.000970421
-0.0043201
-0.00114196
-0.00454559
-0.00132371
-0.00479108
-0.00151649
-0.00505805
-0.00172117
-0.00534796
-0.00193866
-0.00566236
-0.00217006
-0.00600276
-0.00241661
-0.00637022
-0.00267956
-0.00676582
-0.00296106
-0.00719535
-0.00769182
-0.00324505
-7.6741e-06
-0.000571916
-3.83015e-05
-0.00148925
-9.70113e-05
-0.00222102
-0.000183694
-0.00275809
-0.000294093
-0.00312947
-0.000422418
-0.00338773
-0.000563732
-0.00358707
-0.000715097
-0.00376773
-0.00087545
-0.00395232
-0.00104489
-0.00415066
-0.00122402
-0.00436646
-0.00141363
-0.00460148
-0.00161457
-0.00485711
-0.00182775
-0.00513478
-0.00205415
-0.00543596