/*--------------------------------*- C++ -*----------------------------------*\
  =========                 |
  \\      /  F ield         | OpenFOAM: The Open Source CFD Toolbox
   \\    /   O peration     | Website:  https://openfoam.org
    \\  /    A nd           | Version:  7
     \\/     M anipulation  |
\*---------------------------------------------------------------------------*/
FoamFile
{
    version     2.0;
    format      ascii;
    class       volVectorField;
    location    "8";
    object      U;
}
// * * * * * * * * * * * * * * * * * * * * * * * * * * * * * * * * * * * * * //

dimensions      [0 1 -1 0 0 0 0];

internalField   nonuniform List<vector> 
433
(
(1.07516 0.000232859 0)
(1.07477 0.000334205 0)
(1.07424 0.000427973 0)
(1.07356 0.000513771 0)
(1.07273 0.00059175 0)
(1.07175 0.000662688 0)
(1.07064 0.000728004 0)
(1.06937 0.000789687 0)
(1.06796 0.000850103 0)
(1.0664 0.000911705 0)
(1.06466 0.000976584 0)
(1.06272 0.00104613 0)
(1.06059 0.00112041 0)
(1.0582 0.00119841 0)
(1.0556 0.00127707 0)
(1.05265 0.00135347 0)
(1.04959 0.00142181 0)
(1.04595 0.0014802 0)
(1.0427 0.00152131 0)
(1.03796 0.00154687 0)
(1.03548 0.00155254 0)
(1.02816 0.00153123 0)
(1.07601 0.000709425 0)
(1.0756 0.00101193 0)
(1.07503 0.00129178 0)
(1.07431 0.00154778 0)
(1.07345 0.00178034 0)
(1.07244 0.00199173 0)
(1.07128 0.00218615 0)
(1.06997 0.00236946 0)
(1.06851 0.00254869 0)
(1.06689 0.00273111 0)
(1.0651 0.00292298 0)
(1.06312 0.0031284 0)
(1.06094 0.00334776 0)
(1.0585 0.00357771 0)
(1.05585 0.00381005 0)
(1.05285 0.00403429 0)
(1.04975 0.00423703 0)
(1.04606 0.0044051 0)
(1.04278 0.00453132 0)
(1.03799 0.00459466 0)
(1.03549 0.00462703 0)
(1.02812 0.00454316 0)
(1.07763 0.00122219 0)
(1.07716 0.00172426 0)
(1.07654 0.00218863 0)
(1.07576 0.00261322 0)
(1.07483 0.0029986 0)
(1.07374 0.0033484 0)
(1.07249 0.0036694 0)
(1.0711 0.00397118 0)
(1.06955 0.00426526 0)
(1.06784 0.0045636 0)
(1.06596 0.00487658 0)
(1.06388 0.00521093 0)
(1.0616 0.00556767 0)
(1.05907 0.00594088 0)
(1.05632 0.00631833 0)
(1.05323 0.00668036 0)
(1.05004 0.00701012 0)
(1.04626 0.00727583 0)
(1.04291 0.00748518 0)
(1.03804 0.0075691 0)
(1.0355 0.00763846 0)
(1.02805 0.0074685 0)
(1.07995 0.00179886 0)
(1.07942 0.00250175 0)
(1.07871 0.00315165 0)
(1.07784 0.00374548 0)
(1.0768 0.00428382 0)
(1.0756 0.00477148 0)
(1.07424 0.00521764 0)
(1.07272 0.00563539 0)
(1.07104 0.00604056 0)
(1.0692 0.00644968 0)
(1.06718 0.00687724 0)
(1.06496 0.00733267 0)
(1.06254 0.00781776 0)
(1.05987 0.00832422 0)
(1.05699 0.00883612 0)
(1.05377 0.00932477 0)
(1.05046 0.00977032 0)
(1.04655 0.0101225 0)
(1.0431 0.0104041 0)
(1.03811 0.0104988 0)
(1.0355 0.0105947 0)
(1.02793 0.0103296 0)
(1.08293 0.0024627 0)
(1.0823 0.00336987 0)
(1.08148 0.00420829 0)
(1.08049 0.00497376 0)
(1.07932 0.00566669 0)
(1.07798 0.00629286 0)
(1.07647 0.00686361 0)
(1.07479 0.00739534 0)
(1.07294 0.00790802 0)
(1.07093 0.00842264 0)
(1.06873 0.0089578 0)
(1.06633 0.00952568 0)
(1.06373 0.0101291 0)
(1.06089 0.0107576 0)
(1.05783 0.0113918 0)
(1.05445 0.0119943 0)
(1.05097 0.0125425 0)
(1.04691 0.012968 0)
(1.04332 0.0133087 0)
(1.03818 0.0134014 0)
(1.03549 0.013512 0)
(1.02777 0.0131392 0)
(1.0865 0.00323349 0)
(1.08575 0.00435 0)
(1.08481 0.00538138 0)
(1.08367 0.00632215 0)
(1.08234 0.00717238 0)
(1.08083 0.00793858 0)
(1.07913 0.00863402 0)
(1.07726 0.00927816 0)
(1.07522 0.00989494 0)
(1.07299 0.0105097 0)
(1.07058 0.0111451 0)
(1.06797 0.0118162 0)
(1.06515 0.0125271 0)
(1.06209 0.0132654 0)
(1.05883 0.0140086 0)
(1.05524 0.0147108 0)
(1.05157 0.0153471 0)
(1.04732 0.0158307 0)
(1.04357 0.0162157 0)
(1.03826 0.0162911 0)
(1.03547 0.0164039 0)
(1.02757 0.0159065 0)
(1.09063 0.00412799 0)
(1.08975 0.00546002 0)
(1.08865 0.00668976 0)
(1.08734 0.00781036 0)
(1.08583 0.00882132 0)
(1.08411 0.00972968 0)
(1.0822 0.0105504 0)
(1.08011 0.0113057 0)
(1.07783 0.0120233 0)
(1.07536 0.0127328 0)
(1.0727 0.0134609 0)
(1.06984 0.0142256 0)
(1.06677 0.0150325 0)
(1.06346 0.0158675 0)
(1.05996 0.0167054 0)
(1.05613 0.017492 0)
(1.05224 0.0182003 0)
(1.04777 0.0187254 0)
(1.04383 0.0191385 0)
(1.03833 0.0191789 0)
(1.03541 0.0192807 0)
(1.02731 0.0186381 0)
(1.09528 0.00516094 0)
(1.09423 0.00671514 0)
(1.09296 0.00814909 0)
(1.09146 0.0094544 0)
(1.08973 0.0106299 0)
(1.08779 0.0116828 0)
(1.08564 0.0126296 0)
(1.08329 0.0134951 0)
(1.08074 0.0143104 0)
(1.078 0.0151093 0)
(1.07506 0.0159224 0)
(1.07191 0.0167709 0)
(1.06856 0.0176618 0)
(1.06497 0.0185797 0)
(1.06119 0.0194973 0)
(1.0571 0.0203518 0)
(1.05295 0.0211152 0)
(1.04824 0.0216636 0)
(1.04409 0.0220873 0)
(1.03837 0.0220732 0)
(1.03532 0.0221495 0)
(1.02701 0.0213387 0)
(1.1004 0.00634489 0)
(1.09917 0.00812798 0)
(1.0977 0.009772 0)
(1.09598 0.0112669 0)
(1.09402 0.0126107 0)
(1.09183 0.0138108 0)
(1.08941 0.0148847 0)
(1.08677 0.0158595 0)
(1.08393 0.0167696 0)
(1.08088 0.0176525 0)
(1.07763 0.0185429 0)
(1.07417 0.0194651 0)
(1.07051 0.020428 0)
(1.06661 0.0214147 0)
(1.06252 0.0223961 0)
(1.05812 0.0233013 0)
(1.0537 0.0241018 0)
(1.04872 0.0246542 0)
(1.04433 0.02507 0)
(1.03838 0.0249801 0)
(1.03518 0.0250156 0)
(1.02665 0.0240111 0)
(1.10595 0.00769055 0)
(1.10452 0.00970892 0)
(1.10283 0.0115685 0)
(1.10087 0.0132576 0)
(1.09865 0.0147733 0)
(1.09618 0.0161229 0)
(1.09347 0.0173248 0)
(1.09053 0.018408 0)
(1.08736 0.01941 0)
(1.08398 0.020372 0)
(1.08039 0.0213323 0)
(1.07659 0.0223183 0)
(1.07258 0.0233408 0)
(1.06833 0.0243819 0)
(1.06391 0.0254109 0)
(1.05919 0.0263488 0)
(1.05446 0.0271677 0)
(1.04919 0.0277034 0)
(1.04455 0.0280922 0)
(1.03836 0.0279035 0)
(1.03499 0.0278824 0)
(1.02623 0.0266565 0)
(1.11188 0.00920723 0)
(1.11024 0.0114664 0)
(1.1083 0.0135462 0)
(1.10609 0.0154334 0)
(1.10359 0.017124 0)
(1.10082 0.018625 0)
(1.09779 0.0199556 0)
(1.09452 0.0211466 0)
(1.09101 0.0222379 0)
(1.08727 0.023274 0)
(1.08331 0.0242971 0)
(1.07914 0.0253371 0)
(1.07475 0.026407 0)
(1.07014 0.0274879 0)
(1.06536 0.0285481 0)
(1.06029 0.0295001 0)
(1.05523 0.030318 0)
(1.04964 0.0308157 0)
(1.04473 0.0311574 0)
(1.03827 0.0308456 0)
(1.03474 0.0307515 0)
(1.02574 0.0292742 0)
(1.11816 0.0109028 0)
(1.11628 0.0134071 0)
(1.11408 0.0157108 0)
(1.11158 0.0177989 0)
(1.10879 0.0196665 0)
(1.1057 0.0213204 0)
(1.10233 0.0227802 0)
(1.09871 0.024078 0)
(1.09483 0.0252561 0)
(1.0907 0.026362 0)
(1.08636 0.027441 0)
(1.08178 0.0285257 0)
(1.077 0.0296312 0)
(1.07199 0.0307371 0)
(1.06682 0.0318119 0)
(1.06138 0.0327589 0)
(1.05597 0.0335561 0)
(1.05005 0.0339931 0)
(1.04485 0.0342674 0)
(1.03812 0.0338067 0)
(1.03441 0.0336232 0)
(1.02518 0.0318626 0)
(1.12474 0.012784 0)
(1.12259 0.0155362 0)
(1.12012 0.0180658 0)
(1.11732 0.0203564 0)
(1.1142 0.0224023 0)
(1.11077 0.0242097 0)
(1.10705 0.0257986 0)
(1.10305 0.0272023 0)
(1.09878 0.0284651 0)
(1.09425 0.0296366 0)
(1.08949 0.0307652 0)
(1.08449 0.0318857 0)
(1.07929 0.0330151 0)
(1.07386 0.0341318 0)
(1.06828 0.0352043 0)
(1.06244 0.0361267 0)
(1.05666 0.0368831 0)
(1.0504 0.0372361 0)
(1.04489 0.0374225 0)
(1.03789 0.0367855 0)
(1.03398 0.0364964 0)
(1.02453 0.0344181 0)
(1.13156 0.0148563 0)
(1.12913 0.0178576 0)
(1.12635 0.0206135 0)
(1.12323 0.0231069 0)
(1.11977 0.0253309 0)
(1.11599 0.0272916 0)
(1.11189 0.0290092 0)
(1.1075 0.0305177 0)
(1.10282 0.0318629 0)
(1.09787 0.0330963 0)
(1.09267 0.0342688 0)
(1.08723 0.0354167 0)
(1.08158 0.0365589 0)
(1.0757 0.0376718 0)
(1.06969 0.0387253 0)
(1.06344 0.0396032 0)
(1.05727 0.0402982 0)
(1.05066 0.0405429 0)
(1.04483 0.0406209 0)
(1.03755 0.0397787 0)
(1.03344 0.0393685 0)
(1.02379 0.0369361 0)
(1.13856 0.017125 0)
(1.13583 0.0203744 0)
(1.13272 0.0233554 0)
(1.12926 0.02605 0)
(1.12545 0.0284508 0)
(1.12129 0.0305637 0)
(1.1168 0.0324088 0)
(1.11199 0.0340207 0)
(1.10688 0.0354462 0)
(1.10149 0.0367381 0)
(1.09583 0.037949 0)
(1.08993 0.0391163 0)
(1.08381 0.0402604 0)
(1.07748 0.0413552 0)
(1.07101 0.0423726 0)
(1.06434 0.0431854 0)
(1.05776 0.0437985 0)
(1.05079 0.0439096 0)
(1.04464 0.0438589 0)
(1.03709 0.0427809 0)
(1.03278 0.0422353 0)
(1.02294 0.0394098 0)
(1.14567 0.0195955 0)
(1.14261 0.02309 0)
(1.13916 0.0262928 0)
(1.13534 0.0291855 0)
(1.13114 0.0317603 0)
(1.12659 0.0340229 0)
(1.12169 0.0359936 0)
(1.11645 0.0377071 0)
(1.11089 0.0392105 0)
(1.10504 0.0405575 0)
(1.09891 0.0418016 0)
(1.09253 0.0429802 0)
(1.08592 0.0441153 0)
(1.07911 0.0451773 0)
(1.07219 0.0461415 0)
(1.06507 0.046868 0)
(1.05808 0.047378 0)
(1.05075 0.0473293 0)
(1.04427 0.0471302 0)
(1.03647 0.0457846 0)
(1.03195 0.0450905 0)
(1.02197 0.041831 0)
(1.1528 0.0222743 0)
(1.14938 0.0260088 0)
(1.14556 0.0294281 0)
(1.14135 0.0325137 0)
(1.13676 0.0352581 0)
(1.13179 0.0376668 0)
(1.12645 0.0397599 0)
(1.12077 0.0415721 0)
(1.11475 0.0431506 0)
(1.10842 0.0445486 0)
(1.1018 0.0458203 0)
(1.09492 0.047002 0)
(1.08782 0.0481167 0)
(1.08052 0.0491307 0)
(1.07312 0.0500239 0)
(1.06557 0.050642 0)
(1.05817 0.0510279 0)
(1.05048 0.0507922 0)
(1.04369 0.0504257 0)
(1.03565 0.048779 0)
(1.03093 0.0479258 0)
(1.02085 0.0441892 0)
(1.15984 0.0251702 0)
(1.15603 0.0291371 0)
(1.1518 0.0327654 0)
(1.14718 0.0360368 0)
(1.14216 0.0389442 0)
(1.13675 0.0414933 0)
(1.13096 0.0437041 0)
(1.1248 0.0456107 0)
(1.11831 0.04726 0)
(1.11148 0.0487041 0)
(1.10436 0.0499967 0)
(1.09698 0.0511721 0)
(1.08938 0.0522542 0)
(1.08159 0.053204 0)
(1.07372 0.0540077 0)
(1.06574 0.0544944 0)
(1.05794 0.0547348 0)
(1.04992 0.0542843 0)
(1.04282 0.0537325 0)
(1.03459 0.0517504 0)
(1.02968 0.0507297 0)
(1.01957 0.0464718 0)
(1.16661 0.0282958 0)
(1.16237 0.0324848 0)
(1.1577 0.0363116 0)
(1.15263 0.0397589 0)
(1.14715 0.0428202 0)
(1.14127 0.0455014 0)
(1.13501 0.0478226 0)
(1.12837 0.0498171 0)
(1.12138 0.0515307 0)
(1.11406 0.0530138 0)
(1.10643 0.0543188 0)
(1.09854 0.055477 0)
(1.09045 0.0565129 0)
(1.08219 0.0573807 0)
(1.07386 0.0580755 0)
(1.06547 0.0584069 0)
(1.0573 0.0584808 0)
(1.04899 0.057787 0)
(1.04161 0.0570338 0)
(1.03323 0.0546811 0)
(1.02816 0.0534879 0)
(1.0181 0.0486635 0)
(1.17289 0.0316676 0)
(1.16817 0.036065 0)
(1.16303 0.0400762 0)
(1.15747 0.0436858 0)
(1.1515 0.0468881 0)
(1.14513 0.0496898 0)
(1.13837 0.0521107 0)
(1.13124 0.0541833 0)
(1.12375 0.0559517 0)
(1.11592 0.0574638 0)
(1.1078 0.0587701 0)
(1.09942 0.0598975 0)
(1.09084 0.0608714 0)
(1.08213 0.0616381 0)
(1.07339 0.0622036 0)
)
;

boundaryField
{
    inlet
    {
        type            uniformFixedValue;
        uniformValue    constant (1 0 0);
        value           nonuniform 0();
    }
    outlet
    {
        type            pressureInletOutletVelocity;
        value           nonuniform List<vector> 
19
(
(1.02816 0.00153123 0)
(1.02812 0.00454316 0)
(1.02805 0.0074685 0)
(1.02793 0.0103296 0)
(1.02777 0.0131392 0)
(1.02757 0.0159065 0)
(1.02731 0.0186381 0)
(1.02701 0.0213387 0)
(1.02665 0.0240111 0)
(1.02623 0.0266565 0)
(1.02574 0.0292742 0)
(1.02518 0.0318626 0)
(1.02453 0.0344181 0)
(1.02379 0.0369361 0)
(1.02294 0.0394098 0)
(1.02197 0.041831 0)
(1.02085 0.0441892 0)
(1.01957 0.0464718 0)
(1.0181 0.0486635 0)
)
;
    }
    cylinder
    {
        type            fixedValue;
        value           nonuniform 0();
    }
    top
    {
        type            symmetryPlane;
    }
    bottom
    {
        type            symmetryPlane;
    }
    defaultFaces
    {
        type            empty;
    }
    procBoundary5to4
    {
        type            processor;
        value           nonuniform List<vector> 
21
(
(1.0754 0.000124768 0)
(1.07627 0.000386773 0)
(1.07793 0.000686614 0)
(1.08032 0.00104894 0)
(1.08338 0.00149459 0)
(1.08706 0.00204161 0)
(1.09131 0.00270547 0)
(1.0961 0.0035004 0)
(1.10137 0.00443883 0)
(1.1071 0.00553168 0)
(1.11324 0.00678905 0)
(1.11974 0.00822002 0)
(1.12656 0.00983284 0)
(1.13364 0.011635 0)
(1.14093 0.0136335 0)
(1.14835 0.0158361 0)
(1.15583 0.0182515 0)
(1.16324 0.020891 0)
(1.17043 0.0237698 0)
(1.17719 0.026908 0)
(1.17839 0.0353061 0)
)
;
    }
    procBoundary5to11
    {
        type            processor;
        value           nonuniform List<vector> 
22
(
(1.06464 0.0623551 0)
(1.05613 0.0622416 0)
(1.04758 0.0612764 0)
(1.03997 0.0603075 0)
(1.03152 0.0575494 0)
(1.02631 0.0561823 0)
(1.01641 0.050747 0)
(1.17313 0.0398931 0)
(1.16746 0.0440701 0)
(1.16137 0.0478235 0)
(1.15488 0.0511493 0)
(1.148 0.054055 0)
(1.14074 0.0565604 0)
(1.1331 0.0586966 0)
(1.12511 0.0605062 0)
(1.1168 0.0620335 0)
(1.1082 0.0633266 0)
(1.09937 0.064407 0)
(1.09036 0.065301 0)
(1.08125 0.0659456 0)
(1.06464 0.0623551 0)
(1.07214 0.0663607 0)
)
;
    }
}


// ************************************************************************* //
