/*--------------------------------*- C++ -*----------------------------------*\
  =========                 |
  \\      /  F ield         | OpenFOAM: The Open Source CFD Toolbox
   \\    /   O peration     | Website:  https://openfoam.org
    \\  /    A nd           | Version:  7
     \\/     M anipulation  |
\*---------------------------------------------------------------------------*/
FoamFile
{
    version     2.0;
    format      ascii;
    class       volVectorField;
    location    "1";
    object      U;
}
// * * * * * * * * * * * * * * * * * * * * * * * * * * * * * * * * * * * * * //

dimensions      [0 1 -1 0 0 0 0];

internalField   nonuniform List<vector> 
433
(
(-0.569461 0.826357 2.0791e-20)
(-0.552775 0.802708 -2.01426e-20)
(-0.533083 0.765897 -2.52794e-20)
(-0.510549 0.717578 -8.04797e-21)
(-0.485334 0.660016 2.36479e-20)
(-0.457611 0.595818 6.82022e-21)
(-0.427579 0.527666 -3.30868e-20)
(-0.395451 0.458113 1.70842e-20)
(0.581959 0.480741 -1.57495e-19)
(0.598814 0.479113 -2.83487e-20)
(0.524837 0.488104 -1.00838e-20)
(0.536468 0.486143 1.35674e-20)
(0.550111 0.483578 -1.6426e-20)
(0.565808 0.480298 -9.95235e-21)
(0.583718 0.475935 -1.5411e-20)
(0.477817 0.498816 4.41247e-20)
(0.483658 0.496756 2.41449e-20)
(0.491431 0.493573 -2.49234e-20)
(0.50148 0.489369 2.27349e-21)
(0.513923 0.48418 6.24899e-20)
(0.528994 0.477805 -8.31114e-21)
(0.547283 0.469749 -2.52081e-20)
(0.565887 0.459979 9.22904e-20)
(0.440633 0.514848 3.53942e-20)
(0.440429 0.513131 1.46217e-19)
(0.441868 0.50936 -3.29227e-19)
(0.445555 0.503891 2.69794e-19)
(0.451904 0.497026 -1.65543e-19)
(0.461079 0.488995 -5.96394e-21)
(0.473365 0.479805 -5.62985e-20)
(0.489258 0.469245 2.03978e-19)
(0.506022 0.457303 2.36696e-20)
(0.410496 0.538438 7.96582e-20)
(0.404575 0.537595 -2.75603e-19)
(0.39983 0.533384 -2.11075e-19)
(0.397088 0.526416 1.84616e-19)
(0.397 0.517284 -2.80936e-20)
(0.400011 0.506522 -4.89893e-20)
(0.406305 0.494584 4.06783e-19)
(0.416192 0.481694 -2.06528e-19)
(0.430049 0.467899 -7.90665e-20)
(0.445329 0.453174 -4.51083e-20)
(0.381466 0.570871 3.57872e-19)
(0.370981 0.571638 -2.47742e-19)
(0.361093 0.56739 1.82916e-19)
(0.352746 0.558943 2.66414e-19)
(0.346776 0.54717 -1.27637e-19)
(0.343849 0.53294 -2.99039e-20)
(0.344416 0.517048 1.45251e-19)
(0.348659 0.500178 5.83292e-20)
(0.356892 0.482769 -3.02505e-19)
(0.369362 0.465075 1.10477e-19)
(0.383732 0.44703 1.13317e-19)
(0.344423 0.609911 5.48129e-19)
(0.331882 0.61396 -3.04624e-19)
(0.319033 0.610894 -1.69766e-19)
(0.306951 0.601687 9.99311e-20)
(0.296652 0.587491 1.14205e-19)
(0.289008 0.569533 4.77556e-20)
(0.284693 0.549006 -4.1602e-19)
(0.284149 0.52699 1.49108e-19)
(0.287538 0.504401 -4.62411e-19)
(0.295165 0.481874 8.73616e-20)
(0.307134 0.459818 2.2831e-19)
(0.321353 0.438089 -8.41922e-20)
(0.281422 0.660393 -1.14853e-18)
(0.267658 0.660771 1.21815e-18)
(0.253889 0.652457 -6.44597e-19)
(0.241249 0.636902 3.94137e-20)
(0.230735 0.615717 1.05155e-19)
(0.223164 0.590538 1.99342e-19)
(0.219141 0.562905 -9.5575e-20)
(0.219039 0.53417 -2.0666e-19)
(0.222968 0.505453 4.49914e-19)
(0.231197 0.477551 1.66349e-19)
(0.243688 0.450962 -6.81585e-20)
(0.258617 0.425439 -2.52224e-19)
(0.214738 0.709011 -3.16849e-19)
(0.201649 0.714136 4.12455e-19)
(0.188115 0.708125 3.01106e-19)
(0.17525 0.692501 9.47608e-20)
(0.164045 0.669103 -9.49047e-19)
(0.155334 0.639907 4.45785e-19)
(0.149778 0.606869 -5.54288e-19)
(0.147849 0.571791 2.2081e-20)
(0.149814 0.536222 6.48794e-19)
(0.155712 0.501415 -4.18954e-19)
(0.165764 0.468273 -1.86916e-19)
(0.179802 0.437313 3.6858e-19)
(0.196306 0.408163 3.97267e-22)
(0.118491 0.767807 -3.04471e-19)
(0.106228 0.7646 6.95996e-20)
(0.0948779 0.749963 6.18738e-19)
(0.0850751 0.725604 -4.43808e-19)
(0.0774509 0.693571 1.84674e-19)
(0.0725668 0.656055 -7.22556e-19)
(0.0708743 0.615199 6.9176e-19)
(0.0726893 0.572955 -1.87981e-19)
(0.078171 0.530975 6.21667e-20)
(0.0872911 0.490575 4.40246e-19)
(0.100229 0.452709 -1.72872e-19)
(0.116707 0.41785 -1.78768e-19)
(0.135545 0.385496 1.68848e-19)
(0.0163755 0.817234 3.6179e-19)
(0.00645985 0.816371 -3.78988e-19)
(-0.00170195 0.803498 4.94311e-19)
(-0.0081019 0.779629 -1.34604e-19)
(-0.0125007 0.74646 -3.40864e-19)
(-0.0145574 0.70611 6.057e-19)
(-0.0139244 0.660862 -6.3667e-20)
(-0.0103098 0.612951 3.23874e-20)
(-0.00351357 0.564395 -1.19363e-19)
(0.00654568 0.516886 -2.5453e-19)
(0.0197988 0.471753 8.55865e-20)
(0.0363903 0.429964 3.83217e-19)
(0.0559663 0.391908 -2.0757e-19)
(0.0777163 0.35696 -1.33832e-19)
(-0.110638 0.851762 2.58127e-20)
(-0.112905 0.843575 6.48382e-19)
(-0.11386 0.823199 8.07916e-20)
(-0.113289 0.791837 -1.11249e-19)
(-0.110891 0.751381 2.27029e-20)
(-0.106349 0.704124 -3.12563e-20)
(-0.0993819 0.652493 -3.24579e-19)
(-0.0897782 0.59882 -4.30019e-20)
(-0.07741 0.545179 -8.65312e-20)
(-0.0622492 0.493288 1.17559e-19)
(-0.0443922 0.444474 1.30153e-19)
(-0.0237321 0.399711 5.57531e-20)
(-0.000681203 0.359302 8.93418e-20)
(0.0243376 0.322515 4.85369e-20)
(-0.231243 0.861697 8.95059e-20)
(-0.227323 0.863029 -5.18013e-19)
(-0.223175 0.850242 -4.92524e-20)
(-0.218037 0.824348 -5.05082e-20)
(-0.211378 0.787103 -3.80512e-19)
(-0.202825 0.7408 6.34562e-19)
(-0.192119 0.688006 -5.61043e-19)
(-0.179093 0.631315 3.18897e-19)
(-0.163653 0.573151 -3.33232e-20)
(-0.145775 0.515627 -9.45363e-20)
(-0.125506 0.460468 2.16586e-19)
(-0.102983 0.408986 -1.95396e-19)
(-0.0781418 0.36215 8.88682e-21)
(-0.0514536 0.320167 4.0056e-20)
(-0.023135 0.282267 -9.44019e-20)
(-0.33437 0.86809 -1.0319e-19)
(-0.327383 0.863955 -1.47515e-20)
(-0.319527 0.845017 3.34625e-19)
(-0.310044 0.812857 -3.10469e-20)
(-0.298504 0.769615 9.43396e-20)
(-0.284691 0.717812 -1.81063e-19)
(-0.268524 0.660134 4.52645e-20)
(-0.250007 0.599216 1.2231e-19)
(-0.229193 0.537476 -1.41405e-19)
(-0.206176 0.476998 3.28986e-20)
(-0.181087 0.419464 -3.23186e-20)
(-0.154111 0.366145 -1.08226e-19)
(-0.125246 0.317987 1.8614e-19)
(-0.0950127 0.27508 3.04468e-20)
(-0.0634327 0.236646 7.102e-21)
(-0.420957 0.870552 1.90284e-19)
(-0.413562 0.857401 -1.45231e-19)
(-0.403168 0.83044 5.17316e-20)
(-0.389891 0.791215 1.2696e-20)
(-0.373838 0.74185 -3.79027e-20)
(-0.355136 0.684834 5.07288e-20)
(-0.333933 0.622799 -3.10242e-20)
(-0.310388 0.558304 -1.33907e-20)
(-0.284673 0.493684 3.1552e-20)
(-0.256962 0.430944 5.45485e-20)
(-0.227449 0.371699 -1.09801e-19)
(-0.196355 0.317167 -1.10684e-20)
(-0.16374 0.268259 2.40262e-22)
(-0.130156 0.224959 -1.68783e-20)
(-0.0954425 0.186505 1.5302e-20)
(-0.502285 0.859196 -4.55967e-20)
(-0.490858 0.837998 1.08594e-20)
(-0.475887 0.804204 -6.33077e-21)
(-0.457785 0.759115 -3.30352e-20)
(-0.436839 0.704733 -2.8983e-20)
(-0.413279 0.643479 3.86189e-20)
(-0.387317 0.577924 2.01853e-20)
(-0.359158 0.51057 -2.41728e-20)
(-0.329006 0.443687 -1.68269e-20)
(-0.297068 0.379221 4.47844e-20)
(-0.26356 0.318736 4.47382e-21)
(-0.228723 0.263412 -1.11563e-20)
(-0.192674 0.214141 -3.08718e-21)
(-0.155969 0.170817 -3.49071e-21)
(-0.118323 0.132728 5.72475e-21)
(0.576934 0.452948 5.62616e-21)
(0.591448 0.449848 -3.2073e-20)
(0.620587 0.430707 -7.56484e-22)
(0.645998 0.40259 1.02677e-21)
(0.670395 0.365915 -2.19408e-20)
(0.693997 0.32427 4.14687e-20)
(0.717087 0.281076 2.11909e-20)
(0.739845 0.238984 -3.78746e-20)
(0.762198 0.199871 9.7722e-22)
(0.783963 0.164878 -2.92082e-20)
(0.804899 0.134513 5.09073e-21)
(0.824762 0.108803 5.69691e-20)
(0.843344 0.0874504 -7.2529e-20)
(0.860501 0.0699787 -2.45335e-21)
(0.876162 0.0558386 7.35171e-21)
(0.890324 0.0444818 -8.90336e-21)
(0.903038 0.0354053 3.07707e-20)
(0.914389 0.028168 -1.47623e-20)
(0.51637 0.444797 -7.57878e-21)
(0.534015 0.436848 -1.13936e-20)
(0.569065 0.415129 -1.30847e-20)
(0.601658 0.385763 -3.13555e-22)
(0.633557 0.348788 1.31604e-20)
(0.664242 0.307529 -8.01132e-20)
(0.693613 0.265228 2.94619e-21)
(0.7217 0.224375 5.2568e-20)
(0.748423 0.186705 -3.44991e-20)
(0.773669 0.153233 4.96938e-20)
(0.797308 0.124373 3.93726e-20)
(0.819225 0.100086 2.10358e-20)
(0.839339 0.0800327 -6.52551e-21)
(0.857621 0.0637161 3.70426e-20)
(0.874097 0.0505807 -1.32832e-19)
(0.888846 0.0400828 6.05974e-20)
(0.901981 0.0317323 -2.10605e-20)
(0.913631 0.0251025 3.6959e-20)
(0.455711 0.43437 -3.36667e-20)
(0.477173 0.420928 -3.30011e-21)
(0.518189 0.396537 1.51052e-20)
(0.557967 0.366092 1.28308e-20)
(0.597338 0.329198 4.08531e-20)
(0.635076 0.288792 -7.03592e-21)
(0.670704 0.24784 -5.13207e-21)
(0.704093 0.208626 -2.05458e-20)
(0.73515 0.17272 -3.97321e-20)
(0.763832 0.141019 -1.47883e-20)
(0.790124 0.113849 3.54316e-20)
(0.814041 0.0911169 -4.92656e-20)
(0.835634 0.0724535 1.68161e-20)
(0.854992 0.0573523 -2.62783e-20)
(0.87224 0.0452604 4.1332e-20)
(0.887539 0.0356452 -2.8739e-20)
(0.901061 0.0280354 1.16704e-21)
(0.912985 0.0220211 4.26809e-20)
(0.395193 0.421252 -5.11229e-20)
(0.421414 0.401893 3.05639e-20)
(0.46857 0.374861 2.60799e-21)
(0.515526 0.343576 3.94077e-21)
(0.562248 0.307163 -1.51715e-20)
(0.606895 0.268072 -2.46811e-20)
(0.648648 0.228918 2.87807e-20)
(0.687223 0.191735 -1.05827e-19)
(0.72251 0.157916 6.16044e-20)
(0.754535 0.128234 1.77644e-21)
(0.783394 0.10294 1.58499e-20)
(0.809236 0.0818944 4.57906e-20)
(0.832241 0.0647122 -4.19907e-20)
(0.852617 0.0508874 3.11886e-20)
(0.870589 0.0398781 -2.15493e-20)
(0.886396 0.0311697 -7.05411e-21)
(0.900275 0.024315 2.39518e-20)
(0.912445 0.0189261 -2.42673e-21)
(0.335197 0.404964 1.63856e-20)
(0.367289 0.379545 -5.63348e-20)
(0.420818 0.350051 7.41359e-21)
(0.474908 0.318249 -5.65272e-20)
(0.528771 0.28274 3.97395e-20)
(0.58008 0.245421 2.06006e-20)
(0.627726 0.208499 -6.49694e-20)
(0.671286 0.173726 4.58735e-20)
(0.710634 0.142304 1.80336e-20)
(0.74586 0.114885 -6.18501e-20)
(0.777169 0.0916495 8.54221e-20)
(0.804837 0.0724224 -4.26841e-20)
(0.829173 0.0568116 6.42531e-21)
(0.850501 0.0443238 -3.91976e-20)
(0.869142 0.0344355 6.41941e-20)
(0.885416 0.0266567 -3.08521e-20)
(0.899616 0.0205746 -1.03386e-20)
(0.276282 0.385008 1.34321e-20)
(0.315404 0.353709 3.06641e-22)
(0.375535 0.322094 -3.47626e-21)
(0.436655 0.290178 -1.81076e-20)
(0.497363 0.256017 -1.6892e-20)
(0.55499 0.220918 6.96511e-20)
(0.608206 0.186642 -3.28221e-20)
(0.656473 0.154641 1.31489e-20)
(0.699652 0.125914 -1.6143e-20)
(0.737892 0.100993 -5.00058e-20)
(0.771499 0.0799913 2.96583e-20)
(0.800872 0.0627093 -2.6069e-20)
(0.826444 0.0487573 3.79638e-20)
(0.848648 0.0376644 -4.02466e-20)
(0.8679 0.0289359 3.79783e-20)
(0.884595 0.0221103 1.12994e-20)
(0.899085 0.0168284 -1.06475e-20)
(0.219197 0.360932 -2.46416e-20)
(0.266413 0.324259 1.62934e-20)
(0.333311 0.291019 -6.66221e-21)
(0.401273 0.259467 -1.74949e-21)
(0.468445 0.227116 8.84307e-21)
(0.531961 0.194669 -1.87964e-20)
(0.590345 0.163431 7.49137e-20)
(0.642971 0.134539 -3.77914e-20)
(0.689693 0.108788 7.23417e-21)
(0.730715 0.0865849 7.05876e-22)
(0.766437 0.0679835 5.37902e-20)
(0.797371 0.0527663 -6.38975e-20)
(0.824068 0.0405565 3.93605e-20)
(0.847065 0.0309162 -8.18141e-20)
(0.866863 0.0233894 1.78763e-20)
(0.883935 0.0175545 -1.22381e-20)
(0.89868 0.0130878 5.39659e-20)
(0.164872 0.332393 2.35585e-20)
(0.221005 0.291147 3.99468e-21)
(0.29472 0.256911 -2.40711e-20)
(0.369237 0.226261 1.62111e-20)
(0.442406 0.196187 3.85739e-20)
(0.511306 0.166804 -6.58913e-20)
(0.574384 0.138967 1.99594e-20)
(0.630956 0.113496 7.76017e-21)
(0.680881 0.0909782 6.13511e-21)
(0.724411 0.0716972 -8.63687e-21)
(0.762033 0.0556522 -5.36221e-20)
(0.794364 0.0426114 9.97413e-21)
(0.822062 0.0322222 2.56391e-20)
(0.84576 0.0240997 3.91175e-20)
(0.866037 0.0178138 -9.06655e-21)
(0.883434 0.0130252 -3.2781e-21)
(0.898385 0.00929258 -5.14594e-20)
(0.114361 0.299205 -4.97741e-20)
(0.179881 0.254412 1.97143e-20)
(0.260309 0.219913 1.03084e-20)
(0.340981 0.19074 -5.41564e-20)
(0.419599 0.163407 3.30282e-20)
(0.493308 0.137477 -1.54793e-21)
(0.560542 0.113372 1.78487e-20)
(0.620593 0.0916052 -6.67857e-20)
(0.673331 0.072552 9.68822e-20)
(0.719059 0.0563768 -3.32719e-20)
(0.758338 0.0430326 -5.0953e-21)
(0.791879 0.0322802 -3.87291e-21)
(0.820444 0.0237877 -6.48325e-21)
(0.844743 0.0172328 -3.01535e-20)
(0.865431 0.0122096 4.12021e-21)
(0.883075 0.00837707 2.75502e-20)
(0.898177 0.00542375 -8.92817e-21)
(0.0687447 0.261359 -5.60693e-20)
(0.143728 0.214191 -1.44749e-20)
(0.230594 0.180227 8.41721e-21)
(0.316901 0.153122 1.01026e-21)
(0.400341 0.128977 6.80018e-20)
(0.478221 0.106859 -1.10906e-19)
(0.549018 0.0867858 4.26066e-20)
(0.612029 0.0689728 -3.33833e-20)
(0.667147 0.0535941 5.23945e-21)
(0.714728 0.0406921 2.08658e-20)
(0.755399 0.0301671 8.93003e-21)
(0.789948 0.0218047 -1.90535e-20)
(0.819228 0.0152942 4.36752e-20)
(0.844016 0.0102576 -4.64526e-20)
(0.865007 0.00649185 5.60107e-21)
(0.882851 0.00360391 -3.01255e-21)
(0.898092 0.00153245 6.87157e-21)
(0.028996 0.219142 3.10024e-20)
(0.113202 0.170733 -7.51285e-21)
(0.206045 0.138112 -1.10797e-20)
(0.297347 0.113661 1.39676e-20)
(0.384907 0.0931258 1.31e-20)
(0.466264 0.0751442 -1.36449e-20)
(0.539982 0.0593619 -2.54263e-20)
(0.605394 0.0457145 4.06824e-20)
(0.662426 0.0341916 7.69429e-21)
(0.711481 0.02472 -1.86146e-20)
(0.753255 0.0170861 2.67058e-20)
(0.7886 0.0111425 -5.19471e-21)
(0.818406 0.00661988 -4.92234e-20)
(0.843551 0.00317088 5.33082e-20)
(0.864787 0.000643448 -4.15874e-20)
(0.882785 -0.00109371 -1.25404e-21)
(0.898133 -0.00229541 5.72326e-21)
(-0.00379483 0.172978 -1.39482e-20)
(0.0888575 0.124381 5.07746e-21)
(0.187075 0.0938758 2.65121e-20)
(0.282622 0.0726293 -3.88001e-20)
(0.373533 0.0560937 2.88364e-20)
(0.45762 0.0425471 -1.10904e-20)
(0.533574 0.0312683 4.66692e-20)
(0.600792 0.0219458 -3.46104e-20)
(0.659247 0.0143988 1.45898e-20)
(0.709366 0.0084182 -8.15364e-21)
(0.751914 0.00379135 3.16315e-20)
(0.787818 0.000328568 -6.12535e-20)
(0.818003 -0.00217429 4.18185e-20)
(0.843384 -0.00390816 -5.40453e-21)
(0.864794 -0.00509231 -1.29541e-20)
(0.882902 -0.00573637 7.49342e-21)
(0.898284 -0.00608806 1.95696e-20)
(-0.0287874 0.123358 1.87802e-21)
(0.0711778 0.0755426 2.03212e-21)
(0.174031 0.0478662 -1.07858e-20)
(0.272976 0.0303104 1.54094e-20)
(0.366413 0.018116 1.61914e-21)
(0.452438 0.00921946 -3.11874e-20)
(0.529898 0.00264974 1.94097e-20)
(0.598292 -0.00219019 -1.15875e-20)
(0.657638 -0.00565641 -5.25004e-21)
(0.708416 -0.00807152 1.98927e-21)
(0.751436 -0.00960502 1.4053e-20)
(0.787652 -0.0105078 -1.55313e-20)
(0.818041 -0.0109223 1.27646e-20)
(0.843544 -0.0109674 -1.51616e-20)
(0.865015 -0.0107579 7.34198e-21)
(0.88315 -0.0104021 -5.96491e-21)
(0.898537 -0.00992365 3.50456e-21)
(-0.0453233 0.0709262 5.97415e-22)
(0.0605669 0.0246657 7.7458e-23)
(0.167191 0.000472752 3.55431e-21)
(0.268596 -0.0129251 2.3889e-21)
(0.363673 -0.0204912 -1.2314e-20)
(0.450821 -0.0245436 8.30388e-21)
(0.529056 -0.0262861 3.10366e-21)
(0.597972 -0.0265337 -6.81817e-21)
(0.657667 -0.025833 1.37884e-21)
(0.708673 -0.0245781 2.9908e-21)
(0.751825 -0.0230193 -8.43473e-22)
(0.788102 -0.0213538 -8.15129e-21)
(0.81851 -0.0196826 5.13115e-21)
(0.844007 -0.0180549 9.3687e-22)
(0.865448 -0.016511 4.21433e-23)
(0.883545 -0.0150919 2.42013e-21)
(0.898895 -0.013768 -3.08777e-21)
)
;

boundaryField
{
    inlet
    {
        type            uniformFixedValue;
        uniformValue    constant (1 0 0);
        value           nonuniform 0();
    }
    outlet
    {
        type            pressureInletOutletVelocity;
        value           nonuniform 0();
    }
    cylinder
    {
        type            fixedValue;
        value           nonuniform 0();
    }
    top
    {
        type            symmetryPlane;
    }
    bottom
    {
        type            symmetryPlane;
    }
    defaultFaces
    {
        type            empty;
    }
    procBoundary16to9
    {
        type            processor;
        value           nonuniform List<vector> 9((0.628499 0.476396 6.47401e-21) (0.566964 0.482097 -2.42127e-19) (0.566964 0.482097 -2.42127e-19) (0.514975 0.489494 6.95867e-21) (0.514975 0.489494 6.95867e-21) (0.473398 0.499583 -3.38677e-20) (0.473398 0.499583 -3.38677e-20) (0.441711 0.514113 -8.55138e-20) (0.441711 0.514113 -8.55138e-20));
    }
    procBoundary16to10
    {
        type            processor;
        value           nonuniform List<vector> 
25
(
(0.648143 0.475237 2.20905e-20)
(0.61749 0.477038 -1.22502e-20)
(0.61749 0.477038 -1.22502e-20)
(0.638061 0.474053 1.79212e-21)
(0.604497 0.469702 -7.14518e-21)
(0.604497 0.469702 -7.14518e-21)
(0.625096 0.461517 2.5253e-20)
(0.637272 0.459139 -3.38976e-21)
(0.649033 0.460095 4.41418e-21)
(0.672152 0.443334 -2.41511e-21)
(0.690377 0.416588 -1.34941e-20)
(0.707327 0.380587 3.25172e-20)
(0.723936 0.339028 -2.40461e-20)
(0.740836 0.295403 1.04712e-20)
(0.75833 0.252469 -3.47786e-20)
(0.776347 0.212234 -5.42248e-21)
(0.794636 0.175965 -2.65147e-20)
(0.812851 0.144276 -4.16133e-21)
(0.830627 0.117272 1.13255e-19)
(0.847638 0.0947086 -9.04045e-20)
(0.863629 0.0761409 3.21582e-20)
(0.878435 0.0610338 8.8353e-21)
(0.891975 0.0488415 -1.73376e-21)
(0.904238 0.0390534 9.19845e-21)
(0.915264 0.0312168 -6.23188e-20)
)
;
    }
    procBoundary16to15
    {
        type            processor;
        value           nonuniform List<vector> 
17
(
(0.416624 0.53532 1.74815e-19)
(0.416624 0.53532 1.74815e-19)
(0.391574 0.564391 -5.88267e-20)
(0.391574 0.564391 -5.88267e-20)
(0.355644 0.598075 1.0817e-18)
(0.29398 0.650185 -1.42677e-19)
(0.29398 0.650185 -1.42677e-19)
(0.226163 0.691712 3.31958e-19)
(0.131128 0.758415 1.49031e-19)
(0.131128 0.758415 1.49031e-19)
(0.0284388 0.805964 5.87435e-19)
(-0.107094 0.847471 3.24481e-19)
(-0.107094 0.847471 3.24481e-19)
(-0.236033 0.846021 -4.26487e-19)
(-0.341727 0.856437 3.75823e-19)
(-0.425184 0.869028 1.48408e-19)
(-0.50952 0.867397 -7.58866e-21)
)
;
    }
    procBoundary16to17
    {
        type            processor;
        value           nonuniform List<vector> 
15
(
(0.924485 0.0223956 1.27178e-20)
(0.923941 0.0198354 2.45751e-20)
(0.923486 0.0172653 -2.97392e-21)
(0.923119 0.0146945 -1.1703e-20)
(0.912008 0.0158289 -1.80572e-20)
(0.912008 0.0158289 -1.80572e-20)
(0.911674 0.0127416 -4.19209e-21)
(0.911433 0.00962657 -1.63234e-20)
(0.911262 0.00643719 2.08098e-20)
(0.911175 0.00321245 1.71468e-22)
(0.911165 3.95109e-05 -1.44245e-20)
(0.911262 -0.00308589 2.20806e-20)
(0.911431 -0.00622477 -2.68232e-21)
(0.911675 -0.00938825 9.16278e-21)
(0.911995 -0.0125536 -1.79596e-22)
)
;
    }
    procBoundary16to21
    {
        type            processor;
        value           uniform (-0.582913 0.836005 -1.32042e-20);
    }
    procBoundary16to22
    {
        type            processor;
        value           nonuniform List<vector> 
33
(
(-0.609889 0.789335 -5.15606e-20)
(-0.59185 0.763386 2.6585e-20)
(-0.570446 0.723804 -5.1984e-20)
(-0.545749 0.672569 -4.57667e-20)
(-0.517959 0.612171 -1.13376e-20)
(-0.48735 0.545355 -3.65145e-20)
(-0.454226 0.474883 2.09443e-20)
(-0.361448 0.389448 2.68576e-20)
(-0.418898 0.403346 -3.72379e-21)
(-0.361448 0.389448 2.68576e-20)
(-0.325801 0.323613 -3.08598e-20)
(-0.288749 0.262166 1.00925e-20)
(-0.250551 0.206284 2.75328e-21)
(-0.211384 0.15686 1.32374e-21)
(-0.171796 0.113727 -2.51825e-21)
(-0.131445 0.0762641 4.83288e-21)
(-0.0528969 0.0164454 -1.49267e-21)
(0.0573387 -0.0277444 9.59859e-22)
(0.166798 -0.0478971 -3.64468e-21)
(0.269643 -0.056733 -5.14024e-22)
(0.365424 -0.0594305 1.06068e-20)
(0.452833 -0.0584719 -9.79459e-21)
(0.531071 -0.0553252 -5.17138e-22)
(0.599855 -0.0509462 8.69561e-21)
(0.659354 -0.0460516 -3.80406e-21)
(0.710144 -0.0411215 -4.9027e-21)
(0.753086 -0.0364605 2.56237e-22)
(0.789172 -0.0322202 3.19351e-21)
(0.819417 -0.0284551 -3.55595e-21)
(0.844774 -0.0251493 3.21257e-21)
(0.866094 -0.0222701 1.48508e-22)
(0.884092 -0.0197797 -2.61726e-21)
(0.89936 -0.0176086 5.95053e-21)
)
;
    }
}


// ************************************************************************* //
