/*--------------------------------*- C++ -*----------------------------------*\
  =========                 |
  \\      /  F ield         | OpenFOAM: The Open Source CFD Toolbox
   \\    /   O peration     | Website:  https://openfoam.org
    \\  /    A nd           | Version:  7
     \\/     M anipulation  |
\*---------------------------------------------------------------------------*/
FoamFile
{
    version     2.0;
    format      ascii;
    class       volVectorField;
    location    "23";
    object      U;
}
// * * * * * * * * * * * * * * * * * * * * * * * * * * * * * * * * * * * * * //

dimensions      [0 1 -1 0 0 0 0];

internalField   nonuniform List<vector> 
433
(
(0.490879 -0.514934 -8.11674e-19)
(0.524823 -0.535571 3.09312e-18)
(0.474706 -0.452154 5.07779e-18)
(0.507031 -0.482087 -2.99826e-18)
(0.538082 -0.50724 1.23965e-18)
(0.567571 -0.528176 -2.98291e-18)
(0.595328 -0.545197 4.42028e-18)
(0.621301 -0.558477 -1.80718e-18)
(0.486763 -0.345294 -4.45532e-18)
(0.507332 -0.386242 5.58739e-18)
(0.530918 -0.42302 5.4373e-18)
(0.556078 -0.455481 -1.26551e-17)
(0.58193 -0.483824 9.80556e-18)
(0.607804 -0.508205 -3.12379e-18)
(0.633179 -0.528693 -1.72815e-18)
(0.657671 -0.545318 1.28353e-18)
(0.681033 -0.558128 -4.98224e-18)
(0.70312 -0.567215 -1.12497e-18)
(0.411669 -0.192454 -3.57709e-18)
(0.441246 -0.229395 4.78852e-18)
(0.47621 -0.276236 -6.05765e-18)
(0.5108 -0.323962 3.42901e-18)
(0.543587 -0.368859 -7.54842e-18)
(0.574636 -0.409567 7.45518e-18)
(0.604267 -0.445634 -3.52307e-18)
(0.632668 -0.476928 -2.06099e-18)
(0.659863 -0.50344 1.02809e-17)
(0.685786 -0.525241 -3.80205e-18)
(0.710351 -0.542468 2.92687e-18)
(0.733493 -0.555313 -3.63982e-18)
(0.755188 -0.564004 -3.84302e-18)
(0.122767 -0.128248 -1.85241e-17)
(0.162427 -0.101629 2.95291e-18)
(0.238837 -0.124591 4.78127e-18)
(0.320388 -0.170265 6.86328e-18)
(0.394796 -0.223258 -4.00879e-18)
(0.458973 -0.276297 8.19245e-18)
(0.513655 -0.326326 -5.66678e-18)
(0.560781 -0.372055 -3.35802e-18)
(0.602197 -0.412945 3.5122e-18)
(0.639274 -0.448777 1.45507e-18)
(0.672918 -0.479496 -2.93766e-18)
(0.703702 -0.505153 2.10351e-18)
(0.731994 -0.525889 3.84751e-18)
(0.758051 -0.54191 -3.33905e-18)
(0.782075 -0.55347 6.7669e-18)
(0.804257 -0.560852 -2.99669e-18)
(0.824799 -0.564365 5.13158e-18)
(0.394546 -0.171115 1.56657e-19)
(0.182055 -0.148781 -1.06885e-18)
(0.106722 -0.121803 -3.46845e-19)
(0.115119 -0.11404 -3.33196e-19)
(0.167691 -0.12771 -1.20078e-18)
(0.238781 -0.155987 -1.61528e-18)
(0.313083 -0.192733 2.31498e-18)
(0.38302 -0.234199 -2.65635e-18)
(0.446398 -0.277346 5.84308e-18)
(0.503372 -0.319952 -9.35247e-18)
(0.554705 -0.360632 1.2053e-18)
(0.601183 -0.398475 1.98474e-19)
(0.643443 -0.432851 2.24835e-18)
(0.681963 -0.463327 -3.3361e-19)
(0.717117 -0.489631 -9.24741e-18)
(0.749214 -0.511627 9.07097e-18)
(0.77853 -0.529301 -4.54074e-18)
(0.80532 -0.542736 -3.38108e-18)
(0.829838 -0.552099 3.45192e-18)
(0.852341 -0.557622 -7.54893e-18)
(0.873104 -0.559595 9.90047e-18)
(0.892426 -0.55836 8.00168e-18)
(1.02344 0.00187099 -4.39667e-18)
(1.03294 -0.0184941 -8.57084e-19)
(0.923963 -0.00189567 2.45461e-18)
(0.767441 0.0125901 2.18497e-17)
(0.620351 0.00651963 -4.03312e-18)
(0.512644 -0.0212313 -4.25204e-18)
(0.450962 -0.0635445 7.80605e-19)
(0.428173 -0.113371 1.96595e-19)
(0.433143 -0.165479 -3.84213e-18)
(0.456056 -0.216209 -1.11918e-19)
(0.48968 -0.263743 1.00363e-18)
(0.529027 -0.307648 4.99157e-18)
(0.570835 -0.348006 3.37741e-18)
(0.612998 -0.384968 2.21755e-18)
(0.654165 -0.418566 -4.89615e-18)
(0.693496 -0.448703 -2.64424e-18)
(0.730503 -0.475209 6.11906e-19)
(0.764944 -0.497918 -7.79311e-19)
(0.796749 -0.51672 1.76799e-19)
(0.825964 -0.531585 5.80535e-18)
(0.852715 -0.542574 5.34713e-18)
(0.877184 -0.549835 1.98004e-18)
(0.899587 -0.553595 -6.57078e-18)
(0.920164 -0.554144 8.59857e-19)
(0.939099 -0.551897 -1.89182e-19)
(0.956697 -0.54694 -1.1068e-17)
(3.04142 -5.7147 1.48506e-18)
(2.97141 -4.3178 -1.57586e-18)
(2.62379 -2.99428 -1.55121e-18)
(2.1112 -1.89922 -2.07629e-18)
(1.57269 -1.10036 5.49961e-19)
(1.11461 -0.587877 2.51729e-18)
(0.784827 -0.301822 -8.96722e-19)
(0.580847 -0.169893 -1.0176e-18)
(0.474625 -0.13064 5.00188e-19)
(0.434926 -0.140204 -7.91305e-18)
(0.435673 -0.171972 4.6159e-18)
(0.458705 -0.211977 3.66112e-18)
(0.493175 -0.253673 -8.71173e-19)
(0.533218 -0.294275 3.40495e-18)
(0.575639 -0.332807 -3.257e-18)
(0.618624 -0.368897 -4.87633e-18)
(0.661032 -0.402289 1.31841e-18)
(0.702072 -0.43271 6.0047e-18)
(0.741181 -0.459876 -3.34728e-18)
(0.777979 -0.483538 3.18174e-18)
(0.812239 -0.503519 -6.84413e-18)
(0.843867 -0.519734 -4.91646e-20)
(0.872874 -0.532197 -4.4818e-18)
(0.899348 -0.54101 -8.73756e-19)
(0.923436 -0.546359 -9.29833e-18)
(0.945311 -0.548491 1.38793e-17)
(0.965102 -0.547766 2.4001e-18)
(0.983038 -0.544232 2.24965e-18)
(0.998819 -0.538348 -1.85699e-18)
(1.01143 -0.5321 -5.95311e-19)
(2.57713 -5.22107 -2.48128e-17)
(4.65448 -6.36852 4.55659e-17)
(5.52445 -6.34753 -1.38701e-17)
(5.27521 -5.47198 1.74676e-18)
(4.29856 -4.1967 -9.03655e-18)
(3.07307 -2.91456 -7.17419e-18)
(1.96829 -1.85537 2.98597e-18)
(1.16199 -1.09258 1.97422e-17)
(0.668278 -0.606154 2.85848e-18)
(0.417494 -0.334264 5.65576e-18)
(0.322508 -0.206954 -1.37641e-17)
(0.313661 -0.166657 5.88743e-18)
(0.346956 -0.172337 -5.96311e-18)
(0.397403 -0.199533 1.13324e-18)
(0.452548 -0.235586 2.14513e-18)
(0.507283 -0.274375 -1.99635e-18)
(0.559995 -0.312954 -4.46819e-18)
(0.610354 -0.349883 7.10811e-18)
(0.658329 -0.384376 -4.46197e-18)
(0.70386 -0.415934 5.32927e-18)
(0.746813 -0.444211 5.06947e-18)
(0.787027 -0.468971 -4.56228e-18)
(0.824376 -0.490072 -1.17795e-18)
(0.858791 -0.507459 5.88867e-18)
(0.890276 -0.521158 -3.35972e-18)
(0.918897 -0.531272 2.18376e-18)
(0.94477 -0.537965 1.16537e-18)
(0.968035 -0.541455 -2.74147e-18)
(0.988797 -0.542053 5.28328e-19)
(1.00725 -0.539777 1.82246e-18)
(1.02313 -0.535074 -5.86532e-18)
(1.03568 -0.529623 4.90712e-20)
(-1.48348 5.74282 -2.40741e-17)
(2.22009 2.92336 1.94943e-17)
(4.77645 0.550202 -1.30905e-17)
(5.74471 -0.95281 3.78039e-17)
(5.35109 -1.60428 -9.78017e-18)
(4.18272 -1.6591 -3.44772e-18)
(2.82921 -1.39932 -1.31087e-18)
(1.67575 -1.03534 -1.23396e-17)
(0.87308 -0.697518 8.06717e-18)
(0.408132 -0.446198 -3.07195e-18)
(0.196578 -0.289033 -1.02402e-17)
(0.144493 -0.208246 1.78907e-18)
(0.176149 -0.181031 4.12866e-18)
(0.243272 -0.186458 1.29037e-19)
(0.320682 -0.208902 1.98886e-18)
(0.396873 -0.239603 -2.00479e-19)
(0.467863 -0.273719 5.04374e-20)
(0.533106 -0.308573 -1.00845e-18)
(0.593179 -0.342662 1.21717e-20)
(0.648779 -0.375069 8.03936e-18)
(0.700408 -0.405175 -7.28276e-18)
(0.748347 -0.432543 -4.20177e-18)
(0.792732 -0.456863 4.44765e-18)
(0.833631 -0.47793 -8.1728e-18)
(0.871101 -0.495628 5.30434e-18)
(0.905216 -0.509924 1.84569e-18)
(0.936075 -0.520855 2.85851e-19)
(0.963803 -0.528526 -7.5641e-18)
(0.988539 -0.533092 5.28168e-18)
(1.01038 -0.5348 -6.8932e-19)
(1.02951 -0.533631 -2.24413e-18)
(1.04573 -0.53001 5.30411e-19)
(1.05849 -0.525363 1.36005e-18)
(-4.26889 6.6035 1.6849e-17)
(-3.53045 7.63338 1.53854e-17)
(-1.913 7.40998 3.23731e-19)
(0.0414637 6.1339 -1.92523e-17)
(1.598 4.39483 1.63638e-17)
(2.35016 2.74778 3.07336e-18)
(2.36425 1.48186 -1.95773e-18)
(1.95321 0.647569 -8.79937e-18)
(1.41706 0.172273 5.6581e-18)
(0.935916 -0.0565314 -3.01063e-18)
(0.582003 -0.14368 3.07505e-19)
(0.361254 -0.16444 5.92848e-19)
(0.249471 -0.165946 4.91661e-19)
(0.21636 -0.170074 -1.00126e-18)
(0.23423 -0.182219 -9.89949e-19)
(0.280307 -0.20196 1.07288e-18)
(0.339455 -0.227452 4.27152e-19)
(0.403252 -0.256119 3.86647e-19)
(0.46742 -0.285968 -2.39625e-18)
(0.529958 -0.315849 -4.15862e-18)
(0.589976 -0.345077 3.46373e-18)
(0.647054 -0.373184 -4.8462e-18)
(0.70095 -0.399775 1.6296e-18)
(0.751496 -0.424477 -2.60012e-18)
(0.79857 -0.446949 4.40681e-18)
(0.842096 -0.466893 -3.95444e-18)
(0.882047 -0.484081 8.58773e-18)
(0.918442 -0.498358 -4.00616e-18)
(0.95134 -0.50965 -1.17099e-18)
(0.980832 -0.517957 -4.66471e-19)
(1.00703 -0.523345 -1.44764e-18)
(1.03002 -0.52598 1.94647e-18)
(1.04996 -0.525798 3.05235e-18)
(1.06669 -0.52319 8.34106e-19)
(1.07986 -0.519353 3.08366e-18)
(2.88049 -4.67558 4.89928e-17)
(2.18052 -4.08323 -5.73989e-18)
(0.752204 -2.88552 1.43361e-17)
(-0.614959 -1.47187 -2.77307e-17)
(-1.35296 -0.290027 3.0515e-17)
(-1.32234 0.381704 -3.65296e-17)
(-0.765884 0.561243 -1.75118e-17)
(-0.0384099 0.455076 -1.19451e-17)
(0.586444 0.273601 4.5107e-18)
(0.970874 0.134937 1.17944e-17)
(1.09401 0.0657481 7.17141e-18)
(1.01709 0.039492 -4.21123e-18)
(0.837808 0.0216885 2.78889e-18)
(0.645696 -0.0060049 5.69522e-19)
(0.4947 -0.0466066 -1.13723e-18)
(0.402477 -0.0942793 1.38631e-19)
(0.364622 -0.141796 -1.97901e-18)
(0.367203 -0.185637 2.50335e-18)
(0.395473 -0.224926 1.44045e-18)
(0.438504 -0.259644 -3.07486e-18)
(0.48927 -0.290548 9.08755e-19)
(0.543527 -0.318701 4.83666e-18)
(0.59875 -0.344964 -3.71171e-18)
(0.653415 -0.369843 6.21247e-18)
(0.706527 -0.39348 -6.87761e-18)
(0.757384 -0.415761 5.23412e-18)
(0.805485 -0.436426 2.52744e-18)
(0.850476 -0.455166 -4.62327e-18)
(0.892122 -0.471691 -7.03783e-20)
(0.930285 -0.485766 4.19693e-18)
(0.96491 -0.497229 -1.69661e-18)
(0.995998 -0.505998 4.26783e-18)
(1.0236 -0.51206 -2.15949e-18)
(1.04776 -0.515507 9.97121e-19)
(1.0686 -0.51623 -7.28207e-18)
(1.08599 -0.514587 4.61236e-18)
(1.09971 -0.511578 -1.64075e-19)
(-2.89424 0.928235 9.36287e-18)
(-0.268578 -0.624331 1.35611e-18)
(1.31774 -2.46197 -1.37755e-17)
(1.47653 -4.07442 7.07713e-18)
(1.48268 -5.57364 -2.78473e-18)
(1.71392 -6.69723 6.78262e-19)
(2.16046 -7.23737 3.72517e-19)
(2.72621 -7.14593 -1.78674e-18)
(3.26363 -6.51173 1.01173e-18)
(3.59545 -5.5004 -1.48053e-18)
(3.59172 -4.31355 -1.86703e-19)
(3.2298 -3.14093 -5.54419e-18)
(2.61323 -2.12775 5.24412e-18)
(1.91807 -1.35116 -4.6342e-19)
(1.30218 -0.820738 9.31792e-19)
(0.847907 -0.500052 -6.58165e-18)
(0.564136 -0.330016 3.84488e-18)
(0.417727 -0.253702 1.46162e-18)
(0.364136 -0.230537 -2.33839e-18)
(0.366105 -0.234862 1.31045e-18)
(0.397711 -0.251337 5.0605e-19)
(0.443488 -0.272294 -7.97799e-20)
(0.495413 -0.294643 5.79954e-19)
(0.54965 -0.317237 -4.39678e-18)
(0.604373 -0.339711 5.12376e-18)
(0.658575 -0.361898 -9.30627e-18)
(0.711572 -0.383523 1.13773e-17)
(0.762776 -0.404263 -1.70173e-18)
(0.811665 -0.423773 4.02172e-18)
(0.857797 -0.441712 -6.31295e-18)
(0.900827 -0.457771 7.72362e-18)
(0.940505 -0.471696 -9.24106e-18)
(0.976672 -0.483297 3.52163e-18)
(1.00925 -0.492453 -8.50945e-19)
(1.03822 -0.499105 -2.32051e-18)
(1.06358 -0.503289 1.13525e-18)
(1.08541 -0.504854 3.9092e-18)
(1.10358 -0.504125 3.36986e-18)
(1.11796 -0.501988 4.74955e-19)
(-0.638973 1.0239 -1.07413e-17)
(-1.8151 2.52584 -4.36082e-17)
(-3.2445 3.94263 -6.11301e-18)
(-5.26312 4.67917 -2.27432e-17)
(-6.79218 4.34167 5.17845e-17)
(-6.61041 3.04637 3.9534e-17)
(-4.66638 1.01803 1.18031e-17)
(-1.63314 -1.21056 -8.34734e-17)
(1.56563 -3.07784 7.26806e-17)
(4.10774 -4.19626 -4.45204e-17)
(5.4856 -4.46228 4.28077e-18)
(5.62724 -4.05573 -3.48458e-18)
(4.84295 -3.28788 6.57361e-19)
(3.6203 -2.44525 2.43592e-17)
(2.39706 -1.70208 -1.35019e-17)
(1.43063 -1.12685 6.15033e-18)
(0.79406 -0.725655 1.00458e-17)
(0.443651 -0.473952 -1.01861e-17)
(0.293271 -0.334757 2.0745e-18)
(0.261545 -0.270787 2.7911e-18)
(0.290727 -0.251151 -3.86762e-18)
(0.346568 -0.253883 5.474e-18)
(0.410864 -0.267429 -7.61199e-19)
(0.47566 -0.286098 -1.912e-18)
(0.538377 -0.306896 -8.70446e-19)
(0.598565 -0.328372 5.07279e-18)
(0.65634 -0.349769 -3.82215e-18)
(0.711805 -0.370618 -2.52276e-18)
(0.764894 -0.390578 -5.44311e-18)
(0.815401 -0.409358 1.00311e-17)
(0.863058 -0.426692 -3.94155e-18)
(0.907595 -0.44234 -8.79212e-19)
(0.948782 -0.456089 1.15451e-18)
(0.986444 -0.467763 -1.80562e-19)
(1.02047 -0.477228 3.79183e-18)
(1.0508 -0.484399 -3.28451e-18)
(1.07741 -0.489264 -4.40405e-20)
(1.10035 -0.491631 -3.28617e-18)
(1.11952 -0.491797 1.09525e-18)
(1.13479 -0.490668 -3.15093e-18)
(-9.50527 7.58125 -4.0733e-18)
(-8.131 7.58507 1.05971e-17)
(-5.03642 6.49383 -2.31543e-17)
(-1.21014 4.68709 1.44655e-17)
(2.08016 2.77416 -7.84814e-18)
(3.98656 1.22768 8.52308e-18)
(4.41495 0.205667 5.44837e-18)
(3.81783 -0.354949 -6.57723e-18)
(2.78695 -0.589385 8.83346e-18)
(1.76969 -0.62283 -1.29061e-17)
(0.990182 -0.556305 1.23246e-17)
(0.497084 -0.462025 -2.29276e-18)
(0.245578 -0.37821 -4.57688e-18)
(0.160617 -0.319114 1.79841e-18)
(0.17229 -0.285595 -3.51195e-18)
(0.230089 -0.272225 9.01139e-19)
(0.304875 -0.272116 3.00186e-18)
(0.382281 -0.28004 -3.15703e-18)
(0.456375 -0.292816 9.05689e-19)
(0.525845 -0.308364 -9.60355e-19)
(0.590923 -0.325355 -4.0295e-21)
(0.652226 -0.34301 -2.32782e-18)
(0.710284 -0.360801 1.57668e-18)
(0.765361 -0.378315 1.28167e-18)
(0.817502 -0.395205 -1.85695e-18)
(0.866615 -0.411155 -1.23418e-19)
(0.912539 -0.42588 -2.60313e-18)
(0.955097 -0.439121 4.00089e-18)
(0.994131 -0.450654 -5.86044e-18)
(1.02952 -0.460296 4.72471e-18)
(1.06117 -0.467912 -1.42483e-18)
(1.08903 -0.473447 -1.23489e-18)
(1.11313 -0.476688 -3.34201e-18)
(1.13337 -0.477875 6.65166e-18)
(1.14973 -0.477545 3.22447e-19)
(0.466875 -0.0938645 -7.97996e-19)
(0.342221 -0.155621 5.66219e-19)
(0.286092 -0.193011 2.31961e-19)
(0.282752 -0.218896 1.44938e-18)
(0.313329 -0.238863 -4.77098e-19)
(0.362235 -0.256452 -1.0756e-18)
(0.419556 -0.27282 1.44732e-19)
(0.479731 -0.288536 -1.75688e-18)
(0.540104 -0.303928 3.83829e-19)
(0.599583 -0.318957 2.53965e-18)
(0.657613 -0.333988 -2.3548e-18)
(0.713883 -0.349152 2.00137e-18)
(0.768144 -0.364332 -3.70472e-19)
(0.820125 -0.379318 -5.02496e-20)
(0.86954 -0.393837 -4.34287e-19)
(0.916106 -0.40759 2.85809e-18)
(0.959556 -0.420282 7.75077e-20)
(0.99966 -0.431641 1.42968e-18)
(1.03623 -0.441434 1.6018e-18)
(1.06912 -0.449475 -6.93078e-19)
(1.09822 -0.455663 -2.96445e-18)
(1.12349 -0.459752 4.30001e-18)
(1.14483 -0.461914 -3.35154e-18)
(1.16226 -0.462482 -3.31541e-18)
(0.611284 -0.302323 -2.92554e-18)
(0.664824 -0.316779 9.3688e-19)
(0.718128 -0.331096 7.13719e-20)
(0.770576 -0.345375 -1.42188e-18)
(0.82162 -0.35953 -1.5501e-18)
(0.870762 -0.373371 -3.98817e-19)
(0.917557 -0.386652 1.95025e-18)
(0.961615 -0.399106 7.53214e-19)
(1.0026 -0.410474 1.33092e-19)
(1.04025 -0.42052 -2.58131e-18)
(1.07434 -0.429038 -7.23804e-19)
(1.10471 -0.435904 9.48274e-19)
(1.13124 -0.440848 -5.12412e-19)
(1.15382 -0.443994 -9.30531e-19)
(1.17248 -0.445561 -9.98524e-20)
(1.07652 -0.406743 -1.05022e-18)
(1.10821 -0.414295 -5.57593e-19)
(1.13611 -0.420096 1.06788e-18)
(1.16008 -0.42423 -2.1853e-18)
(1.18013 -0.426839 5.66388e-18)
(1.05271 -0.489892 -3.55453e-19)
(1.07412 -0.488674 -7.72244e-19)
(1.09508 -0.486064 3.15376e-18)
(1.11541 -0.482066 6.6038e-19)
(1.02683 -0.521355 -6.65827e-19)
(1.0507 -0.519588 1.80196e-18)
(1.07367 -0.516002 -7.7923e-19)
(1.09557 -0.510664 -3.08198e-19)
(1.11622 -0.503623 -1.62273e-19)
(1.1355 -0.494951 2.47038e-18)
(1.15326 -0.484693 6.59316e-19)
(1.16945 -0.472415 1.31868e-18)
)
;

boundaryField
{
    inlet
    {
        type            uniformFixedValue;
        uniformValue    constant (1 0 0);
        value           nonuniform 0();
    }
    outlet
    {
        type            pressureInletOutletVelocity;
        value           nonuniform 0();
    }
    cylinder
    {
        type            fixedValue;
        value           uniform (0 0 0);
    }
    top
    {
        type            symmetryPlane;
    }
    bottom
    {
        type            symmetryPlane;
    }
    defaultFaces
    {
        type            empty;
    }
    procBoundary7to1
    {
        type            processor;
        value           nonuniform List<vector> 
13
(
(1.18364 -0.458578 -6.84907e-19)
(1.19562 -0.443154 -2.38814e-18)
(1.20521 -0.42614 -8.52259e-20)
(1.0724 -0.461069 3.51224e-18)
(1.09159 -0.45979 -7.19059e-19)
(1.11045 -0.457526 1.38788e-18)
(1.12892 -0.454255 5.14119e-18)
(1.13503 -0.476687 -1.0168e-18)
(1.13503 -0.476687 -1.0168e-18)
(1.15372 -0.469938 -3.8439e-18)
(1.17112 -0.461829 -1.39343e-18)
(1.18732 -0.452287 1.58748e-18)
(1.18364 -0.458578 -6.84907e-19)
)
;
    }
    procBoundary7to6
    {
        type            processor;
        value           nonuniform List<vector> 
24
(
(0.461662 -0.520686 4.06358e-19)
(0.491591 -0.53978 2.71417e-18)
(0.555099 -0.551595 5.60379e-18)
(0.555099 -0.551595 5.60379e-18)
(0.582519 -0.563385 -6.73197e-18)
(0.645524 -0.568155 -3.65583e-18)
(0.645524 -0.568155 -3.65583e-18)
(0.668079 -0.574381 -1.27414e-18)
(0.723867 -0.572714 3.23327e-19)
(0.723867 -0.572714 3.23327e-19)
(0.775462 -0.568798 2.07588e-18)
(0.775462 -0.568798 2.07588e-18)
(0.794391 -0.56996 -5.73557e-18)
(0.843942 -0.564338 -2.91745e-18)
(0.843942 -0.564338 -2.91745e-18)
(0.861995 -0.561128 9.20393e-18)
(0.910561 -0.554391 5.34258e-18)
(0.910561 -0.554391 5.34258e-18)
(0.927954 -0.547812 -9.5031e-19)
(0.972654 -0.539749 -9.43947e-18)
(0.972654 -0.539749 -9.43947e-18)
(0.985687 -0.532714 1.17362e-18)
(1.03099 -0.489732 -4.09783e-18)
(1.00225 -0.521192 3.17499e-18)
)
;
    }
    procBoundary7to8
    {
        type            processor;
        value           nonuniform List<vector> 
24
(
(0.447919 -0.125455 -4.28352e-20)
(0.39907 -0.16759 -1.01386e-18)
(0.395465 -0.202249 -3.98637e-20)
(0.419791 -0.229984 1.11437e-18)
(0.459473 -0.252372 -2.19987e-18)
(0.507024 -0.271038 1.76283e-18)
(0.5583 -0.287341 -2.08916e-19)
(0.5583 -0.287341 -2.08916e-19)
(0.609457 -0.278314 8.31135e-19)
(0.66284 -0.293206 -1.10416e-19)
(0.715861 -0.307884 2.86073e-18)
(0.768112 -0.322335 -8.73553e-19)
(0.819142 -0.336487 -1.24545e-18)
(0.868505 -0.350232 -3.97969e-19)
(0.915769 -0.363418 -4.80727e-19)
(0.960534 -0.375863 -1.49137e-18)
(1.00244 -0.387366 3.19955e-18)
(1.04119 -0.397723 -5.55818e-18)
(1.04119 -0.397723 -5.55818e-18)
(1.07539 -0.382847 -6.86988e-19)
(1.10847 -0.391035 1.82706e-18)
(1.13783 -0.397657 -1.35385e-18)
(1.16331 -0.402753 4.84756e-19)
(1.18491 -0.406413 -1.78446e-18)
)
;
    }
    procBoundary7to13
    {
        type            processor;
        value           nonuniform List<vector> 
38
(
(0.406548 -0.457657 -2.67151e-18)
(0.452058 -0.489204 7.08632e-18)
(0.452058 -0.489204 7.08632e-18)
(0.408117 -0.373894 1.77846e-18)
(0.441512 -0.416494 -1.01156e-18)
(0.441512 -0.416494 -1.01156e-18)
(0.47079 -0.26176 -3.66667e-18)
(0.47225 -0.30186 3.98515e-18)
(0.47225 -0.30186 3.98515e-18)
(0.442147 -0.246448 -1.89755e-17)
(0.401568 -0.185805 8.4406e-18)
(0.401568 -0.185805 8.4406e-18)
(0.988724 -0.903192 3.5072e-17)
(0.431926 -0.486935 -2.63478e-17)
(0.181451 -0.241559 -6.88245e-18)
(0.181451 -0.241559 -6.88245e-18)
(1.40056 0.0487635 -4.95594e-18)
(0.795777 -0.135392 2.62915e-18)
(0.795777 -0.135392 2.62915e-18)
(0.456579 0.301942 -8.67376e-18)
(0.83788 0.103652 2.84261e-18)
(0.83788 0.103652 2.84261e-18)
(2.28284 -7.7813 -4.27267e-18)
(2.7952 -6.95538 1.98185e-18)
(2.7952 -6.95538 1.98185e-18)
(-0.362203 -2.9368 9.46582e-19)
(-0.362203 -2.9368 9.46582e-19)
(-7.91321 9.46833 2.07201e-17)
(-5.27355 8.19415 -1.93991e-17)
(-5.27355 8.19415 -1.93991e-17)
(-3.06344 2.29076 -1.07117e-17)
(-4.07509 4.64941 2.34169e-17)
(-4.07509 4.64941 2.34169e-17)
(0.432253 -2.2743 -2.31051e-17)
(2.21751 -3.9934 2.56309e-17)
(2.21751 -3.9934 2.56309e-17)
(-2.50986 1.01753 1.27746e-18)
(-2.50986 1.01753 1.27746e-18)
)
;
    }
    procBoundary7to14
    {
        type            processor;
        value           nonuniform List<vector> 
20
(
(2.37385 -0.369311 2.31132e-18)
(2.20003 0.287204 -7.54296e-18)
(-1.9329 2.43055 1.4997e-17)
(-6.28782 4.7741 8.54647e-18)
(-8.84605 6.53059 -8.12835e-18)
(-8.84605 6.53059 -8.12835e-18)
(-4.42964 3.8833 9.58793e-18)
(-5.19204 5.48792 1.51115e-17)
(-4.65036 6.17095 -2.68898e-18)
(-3.01172 5.8146 -1.51035e-18)
(-1.09737 4.73725 -6.1237e-18)
(0.357603 3.41111 1.08191e-17)
(1.11014 2.19312 -1.92662e-17)
(1.29795 1.25427 1.22995e-17)
(1.16765 0.620169 7.95803e-19)
(0.917102 0.235636 -5.70774e-18)
(0.664492 0.0206598 3.22611e-18)
(0.664492 0.0206598 3.22611e-18)
(0.74272 -0.0493484 -7.74009e-19)
(0.559459 -0.0815807 1.0878e-19)
)
;
    }
}


// ************************************************************************* //
