/*--------------------------------*- C++ -*----------------------------------*\
  =========                 |
  \\      /  F ield         | OpenFOAM: The Open Source CFD Toolbox
   \\    /   O peration     | Website:  https://openfoam.org
    \\  /    A nd           | Version:  7
     \\/     M anipulation  |
\*---------------------------------------------------------------------------*/
FoamFile
{
    version     2.0;
    format      ascii;
    class       volVectorField;
    location    "3.4";
    object      U;
}
// * * * * * * * * * * * * * * * * * * * * * * * * * * * * * * * * * * * * * //

dimensions      [0 1 -1 0 0 0 0];

internalField   nonuniform List<vector> 
344
(
(0.861337 -0.334114 -3.5634e-15)
(0.817789 -0.417509 -3.85543e-15)
(0.752854 -0.524586 -3.71485e-15)
(0.653274 -0.650922 -3.28385e-15)
(0.452144 -0.733614 -2.41938e-15)
(0.173189 -0.533258 -1.09631e-15)
(1.01731 -0.00284311 -1.19257e-15)
(1.01683 -0.00280132 -1.13907e-15)
(1.01636 -0.00276075 -1.41412e-15)
(1.01589 -0.00272147 -1.31016e-15)
(1.01543 -0.00268352 -1.36885e-15)
(1.01498 -0.00264699 -1.30602e-15)
(1.01453 -0.00261197 -1.23316e-15)
(1.01409 -0.00257857 -1.47084e-15)
(1.01366 -0.00254693 -1.47765e-15)
(1.01323 -0.00251723 -1.70829e-15)
(1.0128 -0.00248966 -1.65265e-15)
(1.01238 -0.00246445 -1.91071e-15)
(1.01197 -0.00244191 -1.90756e-15)
(1.01156 -0.00242236 -1.82544e-15)
(1.01115 -0.00240621 -1.72473e-15)
(1.01075 -0.00239393 -1.93028e-15)
(1.01035 -0.0023861 -1.92726e-15)
(1.00995 -0.00238339 -2.15003e-15)
(1.00955 -0.00238658 -2.06894e-15)
(1.00916 -0.00239662 -2.33862e-15)
(1.00876 -0.0024146 -2.32054e-15)
(1.00837 -0.00244184 -2.23133e-15)
(1.00797 -0.00247989 -2.12729e-15)
(1.00756 -0.00253055 -2.34018e-15)
(1.00716 -0.00259599 -2.32098e-15)
(1.00674 -0.00267874 -2.51448e-15)
(1.00632 -0.0027818 -2.43684e-15)
(1.00588 -0.00290872 -2.69331e-15)
(1.00543 -0.00306368 -2.5538e-15)
(1.00496 -0.00325162 -2.55408e-15)
(1.00447 -0.00347838 -2.47202e-15)
(1.00395 -0.00375087 -2.39271e-15)
(1.00339 -0.00407726 -2.57927e-15)
(1.0028 -0.00446721 -2.55346e-15)
(1.00215 -0.00493218 -2.74225e-15)
(1.00145 -0.00548573 -2.65609e-15)
(1.00068 -0.00614394 -2.89309e-15)
(0.999826 -0.00692592 -2.85918e-15)
(0.998873 -0.00785436 -2.74172e-15)
(0.997803 -0.00895627 -2.63832e-15)
(0.996594 -0.0102638 -2.836e-15)
(0.99522 -0.0118154 -2.81616e-15)
(0.993651 -0.013657 -2.98878e-15)
(0.99185 -0.0158437 -2.90792e-15)
(0.989775 -0.0184415 -3.16066e-15)
(0.987373 -0.0215303 -3.11322e-15)
(0.984583 -0.0252065 -3.01576e-15)
(0.981333 -0.0295871 -2.92868e-15)
(0.977534 -0.0348149 -3.10732e-15)
(0.97308 -0.0410651 -3.1016e-15)
(0.967843 -0.0485537 -3.28654e-15)
(0.961664 -0.0575492 -3.21748e-15)
(0.95435 -0.068388 -3.45621e-15)
(0.945657 -0.0814957 -3.34494e-15)
(0.935279 -0.0974171 -3.35721e-15)
(0.922819 -0.116858 -3.27151e-15)
(0.907747 -0.140747 -3.20762e-15)
(0.88935 -0.170326 -3.43859e-15)
(0.866573 -0.207274 -3.4725e-15)
(0.83793 -0.253901 -3.70401e-15)
(0.80067 -0.313285 -3.67683e-15)
(0.750914 -0.389204 -3.93496e-15)
(0.677883 -0.483656 -3.75728e-15)
(0.569624 -0.586707 -3.25052e-15)
(0.370023 -0.636363 -2.37225e-15)
(0.128475 -0.427891 -1.08366e-15)
(0.977503 -0.00261889 -1.33663e-15)
(0.977015 -0.00258041 -1.22893e-15)
(0.976534 -0.00254307 -1.60434e-15)
(0.97606 -0.00250693 -1.46289e-15)
(0.975592 -0.00247202 -1.4878e-15)
(0.975132 -0.00243843 -1.38396e-15)
(0.974678 -0.00240625 -1.32753e-15)
(0.974229 -0.00237557 -1.578e-15)
(0.973787 -0.00234654 -1.59107e-15)
(0.973351 -0.00231931 -1.84562e-15)
(0.97292 -0.00229407 -1.73653e-15)
(0.972494 -0.00227104 -2.08921e-15)
(0.972072 -0.0022505 -2.04804e-15)
(0.971655 -0.00223275 -1.90111e-15)
(0.971242 -0.00221819 -1.80174e-15)
(0.970832 -0.00220725 -2.02472e-15)
(0.970425 -0.00220047 -2.02702e-15)
(0.97002 -0.00219848 -2.26887e-15)
(0.969617 -0.00220202 -2.14486e-15)
(0.969214 -0.00221198 -2.48533e-15)
(0.968811 -0.00222938 -2.44316e-15)
(0.968407 -0.00225546 -2.29979e-15)
(0.968 -0.00229166 -2.18341e-15)
(0.967589 -0.0023397 -2.43106e-15)
(0.967172 -0.00240159 -2.41899e-15)
(0.966747 -0.00247972 -2.63118e-15)
(0.966312 -0.0025769 -2.50298e-15)
(0.965863 -0.00269645 -2.8158e-15)
(0.965398 -0.00284231 -2.66644e-15)
(0.964913 -0.0030191 -2.64342e-15)
(0.964403 -0.00323232 -2.52156e-15)
(0.963863 -0.00348844 -2.42809e-15)
(0.963286 -0.00379513 -2.64397e-15)
(0.962666 -0.00416148 -2.63124e-15)
(0.961994 -0.00459821 -2.83277e-15)
(0.961258 -0.00511808 -2.71019e-15)
(0.960448 -0.00573618 -3.01551e-15)
(0.959549 -0.00647046 -2.94763e-15)
(0.958544 -0.00734221 -2.79505e-15)
(0.957413 -0.00837682 -2.68272e-15)
(0.956132 -0.00960449 -2.90077e-15)
(0.954675 -0.0110613 -2.88859e-15)
(0.953007 -0.0127905 -3.07365e-15)
(0.951089 -0.0148436 -2.94988e-15)
(0.948875 -0.017283 -3.26515e-15)
(0.946309 -0.0201834 -3.18794e-15)
(0.943323 -0.0236354 -3.06126e-15)
(0.939839 -0.027749 -2.9456e-15)
(0.935759 -0.0326582 -3.15987e-15)
(0.930968 -0.0385272 -3.15819e-15)
(0.925322 -0.0455584 -3.343e-15)
(0.918649 -0.0540029 -3.23077e-15)
(0.910731 -0.0641749 -3.5396e-15)
(0.901299 -0.0764708 -3.39497e-15)
(0.890008 -0.091396 -3.37833e-15)
(0.876412 -0.109602 -3.26056e-15)
(0.859916 -0.131939 -3.1786e-15)
(0.83972 -0.159532 -3.44298e-15)
(0.814649 -0.193876 -3.45783e-15)
(0.783066 -0.236962 -3.68054e-15)
(0.74204 -0.291307 -3.59897e-15)
(0.687547 -0.359508 -3.88352e-15)
(0.609113 -0.441503 -3.63388e-15)
(0.4967 -0.523756 -3.05218e-15)
(0.30514 -0.548266 -2.17045e-15)
(0.096776 -0.344118 -9.93184e-16)
(0.936649 -0.00239799 -1.36884e-15)
(0.936157 -0.00236279 -1.33245e-15)
(0.935673 -0.00232863 -1.70944e-15)
(0.935195 -0.00229557 -1.61073e-15)
(0.934724 -0.00226366 -1.63441e-15)
(0.93426 -0.00223297 -1.4466e-15)
(0.933803 -0.00220357 -1.39191e-15)
(0.933351 -0.00217558 -1.58315e-15)
(0.932906 -0.0021491 -1.7267e-15)
(0.932466 -0.0021243 -1.83514e-15)
(0.932031 -0.00210133 -1.78355e-15)
(0.931602 -0.00208043 -2.16712e-15)
(0.931177 -0.00206183 -2.16289e-15)
(0.930756 -0.00204583 -1.94555e-15)
(0.930339 -0.00203279 -1.84824e-15)
(0.929926 -0.00202312 -2.02722e-15)
(0.929515 -0.00201732 -2.14272e-15)
(0.929106 -0.00201599 -2.26377e-15)
(0.928699 -0.0020198 -2.19613e-15)
(0.928292 -0.00202959 -2.53337e-15)
(0.927884 -0.00204632 -2.53695e-15)
(0.927475 -0.00207114 -2.34455e-15)
(0.927063 -0.00210539 -2.22832e-15)
(0.926646 -0.00215067 -2.40639e-15)
(0.926222 -0.00220887 -2.5143e-15)
(0.92579 -0.00228221 -2.60687e-15)
(0.925347 -0.00237331 -2.53091e-15)
(0.924889 -0.00248528 -2.86664e-15)
(0.924414 -0.00262179 -2.74094e-15)
(0.923917 -0.00278715 -2.72903e-15)
(0.923394 -0.00298648 -2.53859e-15)
(0.922838 -0.00322584 -2.43696e-15)
(0.922244 -0.00351238 -2.60641e-15)
(0.921603 -0.00385457 -2.71782e-15)
(0.920907 -0.00426244 -2.80592e-15)
(0.920143 -0.00474788 -2.73052e-15)
(0.919301 -0.00532499 -3.04581e-15)
(0.918364 -0.0060105 -3.03726e-15)
(0.917314 -0.00682431 -2.81234e-15)
(0.916131 -0.00779011 -2.7048e-15)
(0.914789 -0.0089361 -2.86402e-15)
(0.913258 -0.010296 -2.94195e-15)
(0.911504 -0.01191 -3.03619e-15)
(0.909484 -0.0138265 -2.96177e-15)
(0.907148 -0.0161034 -3.28102e-15)
(0.904437 -0.0188107 -3.26369e-15)
(0.901279 -0.0220328 -3.06283e-15)
(0.897589 -0.0258722 -2.95286e-15)
(0.893261 -0.0304537 -3.10736e-15)
(0.888172 -0.0359301 -3.20535e-15)
(0.882167 -0.0424896 -3.29308e-15)
(0.875058 -0.050365 -3.22245e-15)
(0.866611 -0.0598469 -3.52973e-15)
(0.856531 -0.0713009 -3.40999e-15)
(0.844442 -0.0851907 -3.39847e-15)
(0.829862 -0.10211 -3.21374e-15)
(0.812142 -0.122829 -3.12735e-15)
(0.790418 -0.148349 -3.3316e-15)
(0.763439 -0.17998 -3.44367e-15)
(0.729482 -0.219398 -3.54846e-15)
(0.685567 -0.268584 -3.50419e-15)
(0.627719 -0.329094 -3.75898e-15)
(0.546192 -0.399231 -3.49857e-15)
(0.433086 -0.463432 -2.84521e-15)
(0.253127 -0.469316 -1.99064e-15)
(0.0736899 -0.276658 -8.46699e-16)
(0.894758 -0.00218145 -1.61547e-15)
(0.894266 -0.00214945 -1.57613e-15)
(0.893781 -0.00211841 -1.88618e-15)
(0.893304 -0.00208838 -1.71359e-15)
(0.892833 -0.0020594 -1.77623e-15)
(0.892369 -0.00203154 -1.64701e-15)
(0.891911 -0.00200487 -1.59938e-15)
(0.89146 -0.00197949 -1.8068e-15)
(0.891014 -0.00195551 -1.87704e-15)
(0.890574 -0.00193306 -2.05791e-15)
(0.890139 -0.00191232 -1.99696e-15)
(0.889709 -0.00189347 -2.29604e-15)
(0.889284 -0.00187675 -2.27374e-15)
(0.888863 -0.00186244 -2.13898e-15)
(0.888446 -0.00185085 -2.02472e-15)
(0.888032 -0.00184239 -2.23888e-15)
(0.88762 -0.0018375 -2.28133e-15)
(0.88721 -0.00183674 -2.44766e-15)
(0.886802 -0.00184075 -2.38187e-15)
(0.886394 -0.00185029 -2.66538e-15)
(0.885984 -0.00186626 -2.64362e-15)
(0.885573 -0.00188971 -2.50188e-15)
(0.885158 -0.0019219 -2.40263e-15)
(0.884738 -0.00196432 -2.58765e-15)
(0.884311 -0.00201869 -2.63015e-15)
(0.883875 -0.0020871 -2.79251e-15)
(0.883427 -0.00217197 -2.71118e-15)
(0.882963 -0.00227618 -2.98378e-15)
(0.882482 -0.00240313 -2.78206e-15)
(0.881977 -0.00255682 -2.80413e-15)
(0.881444 -0.00274201 -2.67713e-15)
(0.880877 -0.0029643 -2.58445e-15)
(0.880269 -0.00323032 -2.76381e-15)
(0.879613 -0.00354794 -2.80573e-15)
(0.878898 -0.00392645 -2.95293e-15)
(0.878112 -0.00437687 -2.87886e-15)
(0.877243 -0.00491229 -3.13641e-15)
(0.876275 -0.00554822 -3.11457e-15)
(0.875189 -0.00630313 -2.95116e-15)
(0.873962 -0.00719895 -2.84111e-15)
(0.872568 -0.00826187 -3.02368e-15)
(0.870976 -0.00952312 -3.03683e-15)
(0.869149 -0.01102 -3.17927e-15)
(0.867043 -0.0127974 -3.11217e-15)
(0.864604 -0.0149089 -3.36017e-15)
(0.861769 -0.0174194 -3.33007e-15)
(0.858464 -0.020407 -3.17211e-15)
(0.854597 -0.0239665 -3.07555e-15)
(0.850058 -0.0282133 -3.25155e-15)
(0.844714 -0.0332884 -3.2725e-15)
(0.838402 -0.0393652 -3.41597e-15)
(0.830921 -0.0466576 -3.34798e-15)
(0.822022 -0.0554318 -3.59425e-15)
(0.811391 -0.0660214 -3.38786e-15)
(0.79863 -0.078847 -3.41449e-15)
(0.783225 -0.0944439 -3.27061e-15)
(0.764492 -0.113498 -3.20824e-15)
(0.741527 -0.136891 -3.41772e-15)
(0.713038 -0.16575 -3.44928e-15)
(0.677275 -0.201452 -3.61047e-15)
(0.631314 -0.245491 -3.53794e-15)
(0.571377 -0.298542 -3.69959e-15)
(0.488696 -0.357696 -3.38012e-15)
(0.377483 -0.406581 -2.77719e-15)
(0.210919 -0.399136 -1.96588e-15)
(0.0565686 -0.221962 -9.07684e-16)
(0.851835 -0.00197025 -1.75419e-15)
(0.851346 -0.00194138 -1.64015e-15)
(0.850865 -0.00191338 -1.96371e-15)
(0.850391 -0.0018863 -1.76304e-15)
(0.849924 -0.00186017 -1.72925e-15)
(0.849463 -0.00183507 -1.64638e-15)
(0.849008 -0.00181105 -1.61421e-15)
(0.84856 -0.00178821 -1.89252e-15)
(0.848117 -0.00176665 -1.86675e-15)
(0.84768 -0.00174649 -2.13262e-15)
(0.847248 -0.00172789 -2.0154e-15)
(0.846821 -0.00171103 -2.35572e-15)
(0.846399 -0.00169612 -2.25228e-15)
(0.84598 -0.00168341 -2.11454e-15)
(0.845566 -0.00167321 -2.02032e-15)
(0.845154 -0.00166587 -2.29924e-15)
(0.844744 -0.00166182 -2.24654e-15)
(0.844337 -0.00166156 -2.5095e-15)
(0.84393 -0.00166569 -2.38357e-15)
(0.843523 -0.00167489 -2.70203e-15)
(0.843115 -0.00169001 -2.58185e-15)
(0.842705 -0.00171201 -2.46346e-15)
(0.84229 -0.00174205 -2.38473e-15)
(0.841871 -0.00178149 -2.64987e-15)
(0.841443 -0.00183194 -2.59287e-15)
(0.841006 -0.0018953 -2.83176e-15)
(0.840556 -0.00197381 -2.7056e-15)
(0.840091 -0.00207012 -2.99961e-15)
(0.839605 -0.00218735 -2.78238e-15)
(0.839096 -0.0023292 -2.72671e-15)
(0.838557 -0.00250004 -2.62532e-15)
(0.837984 -0.00270503 -2.5498e-15)
(0.837367 -0.00295029 -2.79971e-15)
(0.8367 -0.00324303 -2.74641e-15)
(0.835971 -0.00359184 -2.98215e-15)
(0.835169 -0.00400685 -2.85996e-15)
(0.834281 -0.00450011 -3.14269e-15)
(0.833289 -0.00508591 -3.02936e-15)
(0.832174 -0.00578123 -2.88707e-15)
(0.830913 -0.0066063 -2.79924e-15)
(0.829478 -0.0075852 -3.04299e-15)
(0.827837 -0.00874668 -2.97151e-15)
(0.825951 -0.0101251 -3.20891e-15)
(0.823775 -0.0117616 -3.07174e-15)
(0.821252 -0.0137057 -3.35442e-15)
(0.818317 -0.0160168 -3.22574e-15)
(0.814891 -0.0187668 -3.09364e-15)
(0.810879 -0.0220426 -3.01482e-15)
(0.806167 -0.0259499 -3.27225e-15)
(0.800614 -0.0306177 -3.19506e-15)
(0.79405 -0.0362042 -3.42284e-15)
(0.786264 -0.0429042 -3.29332e-15)
(0.776997 -0.0509589 -3.56191e-15)
(0.765921 -0.0606693 -3.31897e-15)
(0.752619 -0.0724127 -3.27297e-15)
(0.736558 -0.0866652 -3.15633e-15)
(0.717034 -0.104031 -3.10514e-15)
(0.693121 -0.125273 -3.37845e-15)
(0.663524 -0.151347 -3.30815e-15)
(0.626514 -0.183356 -3.53718e-15)
(0.579302 -0.222366 -3.40127e-15)
(0.518408 -0.26834 -3.5507e-15)
(0.436172 -0.317542 -3.13485e-15)
(0.328749 -0.353681 -2.55861e-15)
(0.1763 -0.337123 -1.79848e-15)
(0.0436928 -0.17738 -8.87959e-16)
(0.807885 -0.00176537 -1.77887e-15)
(0.807403 -0.00173952 -1.67714e-15)
(0.806929 -0.00171447 -1.96702e-15)
(0.806462 -0.00169024 -1.8018e-15)
(0.806001 -0.00166688 -1.70357e-15)
(0.805547 -0.00164444 -1.64237e-15)
(0.805099 -0.00162299 -1.59968e-15)
(0.804657 -0.0016026 -1.89291e-15)
)
;

boundaryField
{
    inlet
    {
        type            uniformFixedValue;
        uniformValue    constant (1 0 0);
        value           nonuniform 0();
    }
    outlet
    {
        type            pressureInletOutletVelocity;
        value           nonuniform 0();
    }
    wall
    {
        type            fixedValue;
        value           uniform (0 0 0);
    }
    wedge1
    {
        type            wedge;
    }
    wedge2
    {
        type            wedge;
    }
    axis
    {
        type            empty;
    }
    procBoundary26to20
    {
        type            processor;
        value           nonuniform List<vector> 
67
(
(0.923852 -0.353382 -3.56194e-15)
(0.888028 -0.443678 -3.82975e-15)
(0.83425 -0.56293 -3.77141e-15)
(0.749143 -0.714361 -3.44133e-15)
(0.558097 -0.839681 -2.61407e-15)
(0.239232 -0.66931 -1.16989e-15)
(1.05608 -0.00306962 -8.89099e-16)
(1.05561 -0.00302448 -8.32155e-16)
(1.05515 -0.00298065 -1.12778e-15)
(1.05469 -0.0029382 -1.10822e-15)
(1.05424 -0.00289718 -1.05425e-15)
(1.0538 -0.00285767 -1.02867e-15)
(1.05336 -0.00281978 -9.80047e-16)
(1.05293 -0.00278362 -1.23926e-15)
(1.05251 -0.00274934 -1.18173e-15)
(1.05209 -0.00271713 -1.4646e-15)
(1.05167 -0.00268718 -1.35444e-15)
(1.05126 -0.00265976 -1.64308e-15)
(1.05086 -0.00263517 -1.60905e-15)
(1.05046 -0.00261377 -1.5513e-15)
(1.05006 -0.00259598 -1.46658e-15)
(1.04967 -0.00258232 -1.70292e-15)
(1.04928 -0.00257338 -1.6474e-15)
(1.04889 -0.00256987 -1.90716e-15)
(1.0485 -0.00257264 -1.81039e-15)
(1.04812 -0.00258267 -2.084e-15)
(1.04773 -0.00260114 -2.02637e-15)
(1.04735 -0.00262944 -1.95482e-15)
(1.04696 -0.00266919 -1.87413e-15)
(1.04657 -0.00272235 -2.1253e-15)
(1.04618 -0.00279117 -2.04006e-15)
(1.04577 -0.00287836 -2.29166e-15)
(1.04536 -0.00298709 -2.17822e-15)
(1.04494 -0.00312113 -2.44993e-15)
(1.04451 -0.0032849 -2.40689e-15)
(1.04406 -0.00348364 -2.30227e-15)
(1.04359 -0.00372355 -2.23226e-15)
(1.04309 -0.00401194 -2.16174e-15)
(1.04256 -0.00435748 -2.38217e-15)
(1.042 -0.0047704 -2.29881e-15)
(1.04139 -0.00526283 -2.53244e-15)
(1.04072 -0.00584915 -2.41884e-15)
(1.03999 -0.0065464 -2.66709e-15)
(1.03919 -0.0073748 -2.58756e-15)
(1.0383 -0.00835839 -2.50229e-15)
(1.0373 -0.00952577 -2.40504e-15)
(1.03617 -0.010911 -2.63779e-15)
(1.03489 -0.0125547 -2.56664e-15)
(1.03343 -0.0145056 -2.79181e-15)
(1.03176 -0.0168218 -2.67533e-15)
(1.02984 -0.0195735 -2.93777e-15)
(1.02762 -0.0228449 -2.85082e-15)
(1.02505 -0.026738 -2.78469e-15)
(1.02206 -0.0313768 -2.70825e-15)
(1.01857 -0.0369124 -2.92894e-15)
(1.01449 -0.0435301 -2.86355e-15)
(1.00971 -0.0514588 -3.09837e-15)
(1.00408 -0.060983 -2.99811e-15)
(0.997434 -0.07246 -3.26554e-15)
(0.989566 -0.0863424 -3.24914e-15)
(0.980208 -0.103211 -3.15998e-15)
(0.969022 -0.123822 -3.09418e-15)
(0.955558 -0.149176 -3.04498e-15)
(0.939216 -0.180622 -3.3123e-15)
(0.919098 -0.220011 -3.29921e-15)
(0.893945 -0.269964 -3.59277e-15)
(0.893945 -0.269964 -3.59277e-15)
)
;
    }
    procBoundary26to25
    {
        type            processor;
        value           nonuniform List<vector> 5((1.0178 -0.0028861 -9.15161e-16) (0.977999 -0.00265847 -1.09388e-15) (0.937148 -0.00243422 -1.24651e-15) (0.895257 -0.00221439 -1.44331e-15) (0.85233 -0.00199998 -1.46553e-15));
    }
    procBoundary26to31
    {
        type            processor;
        value           uniform (0.808373 -0.00179197 -1.493e-15);
    }
    procBoundary26to32
    {
        type            processor;
        value           nonuniform List<vector> 
67
(
(0.80422 -0.00158338 -1.84169e-15)
(0.803789 -0.00156542 -2.10205e-15)
(0.803363 -0.00154889 -2.01179e-15)
(0.802942 -0.00153393 -2.29424e-15)
(0.802526 -0.00152074 -2.18731e-15)
(0.802113 -0.00150956 -2.07642e-15)
(0.801703 -0.00150066 -1.99305e-15)
(0.801297 -0.00149437 -2.27915e-15)
(0.800892 -0.00149108 -2.20479e-15)
(0.800489 -0.00149124 -2.4762e-15)
(0.800087 -0.0014954 -2.35866e-15)
(0.799685 -0.00150419 -2.64046e-15)
(0.799281 -0.00151838 -2.50971e-15)
(0.798874 -0.00153885 -2.39854e-15)
(0.798464 -0.00156665 -2.34277e-15)
(0.798047 -0.00160304 -2.61696e-15)
(0.797622 -0.00164948 -2.53018e-15)
(0.797187 -0.0017077 -2.7834e-15)
(0.796739 -0.00177976 -2.66111e-15)
(0.796275 -0.00186806 -2.92531e-15)
(0.795789 -0.00197548 -2.72635e-15)
(0.79528 -0.00210538 -2.64774e-15)
(0.794739 -0.00226175 -2.55779e-15)
(0.794163 -0.00244932 -2.49977e-15)
(0.793542 -0.00267365 -2.75692e-15)
(0.792868 -0.00294137 -2.67116e-15)
(0.792132 -0.00326029 -2.92077e-15)
(0.79132 -0.00363968 -2.79606e-15)
(0.790419 -0.00409053 -3.05206e-15)
(0.78941 -0.00462592 -2.92317e-15)
(0.788276 -0.00526134 -2.80481e-15)
(0.78699 -0.00601526 -2.73312e-15)
(0.785526 -0.00690966 -2.99663e-15)
(0.783849 -0.0079708 -2.88933e-15)
(0.781919 -0.00923002 -3.13471e-15)
(0.77969 -0.0107249 -3.00757e-15)
(0.777103 -0.0125004 -3.25073e-15)
(0.774092 -0.0146109 -3.10767e-15)
(0.770574 -0.0171216 -3.00293e-15)
(0.766452 -0.0201117 -2.93757e-15)
(0.761606 -0.023677 -3.18778e-15)
(0.755893 -0.0279345 -3.08717e-15)
(0.749136 -0.0330269 -3.31835e-15)
(0.741119 -0.0391297 -3.20758e-15)
(0.731572 -0.0464592 -3.43168e-15)
(0.72016 -0.0552838 -3.21939e-15)
(0.706456 -0.0659377 -3.12369e-15)
(0.689916 -0.0788391 -3.02556e-15)
(0.669828 -0.0945128 -2.99651e-15)
(0.645267 -0.113611 -3.25206e-15)
(0.614961 -0.136928 -3.16525e-15)
(0.577244 -0.165328 -3.3841e-15)
(0.529517 -0.19951 -3.23281e-15)
(0.468667 -0.238892 -3.33077e-15)
(0.388174 -0.279238 -2.89394e-15)
(0.285897 -0.304963 -2.3412e-15)
(0.147632 -0.282599 -1.6407e-15)
(0.0338953 -0.140892 -8.09719e-16)
(0.762914 -0.00156771 -1.68908e-15)
(0.762443 -0.00154479 -1.6793e-15)
(0.761979 -0.00152258 -1.84994e-15)
(0.761522 -0.0015011 -1.77963e-15)
(0.761071 -0.0014804 -1.66566e-15)
(0.760627 -0.00146053 -1.63068e-15)
(0.760188 -0.00144154 -1.58065e-15)
(0.80422 -0.00158338 -1.84169e-15)
(0.759756 -0.00142351 -1.78476e-15)
)
;
    }
}


// ************************************************************************* //
