/*--------------------------------*- C++ -*----------------------------------*\
  =========                 |
  \\      /  F ield         | OpenFOAM: The Open Source CFD Toolbox
   \\    /   O peration     | Website:  https://openfoam.org
    \\  /    A nd           | Version:  7
     \\/     M anipulation  |
\*---------------------------------------------------------------------------*/
FoamFile
{
    version     2.0;
    format      ascii;
    class       volVectorField;
    location    "120.000314";
    object      U;
}
// * * * * * * * * * * * * * * * * * * * * * * * * * * * * * * * * * * * * * //

dimensions      [0 1 -1 0 0 0 0];

internalField   nonuniform List<vector> 
5800
(
(-0.152514 -0.111869 -1.10474e-20)
(-0.170211 -0.140143 1.20891e-21)
(-0.186701 -0.172353 -3.74613e-21)
(-0.201439 -0.208647 6.77928e-21)
(-0.213731 -0.248682 -8.64968e-21)
(-0.222692 -0.291438 -9.28837e-21)
(-0.22722 -0.334944 -2.66088e-21)
(-0.226217 -0.375949 1.44629e-20)
(-0.218564 -0.409714 -1.22618e-20)
(-0.00195826 0.0162316 -2.86707e-21)
(-0.00781841 0.0327153 -8.32625e-21)
(-0.0180394 0.0371165 7.2211e-21)
(-0.0309062 0.0323811 1.68278e-20)
(-0.045781 0.0212996 2.97308e-21)
(-0.0622343 0.00623227 5.68865e-22)
(-0.0798341 -0.0111644 -5.84901e-21)
(-0.0981869 -0.030084 3.2335e-21)
(-0.116926 -0.0505122 -1.81931e-20)
(-0.135697 -0.0730006 1.16652e-20)
(-0.154158 -0.0983559 4.16399e-20)
(-0.171964 -0.127356 -7.05858e-21)
(-0.188736 -0.160563 1.04065e-20)
(-0.204017 -0.198201 -6.1662e-21)
(-0.21724 -0.240033 1.64101e-20)
(-0.227692 -0.285158 -2.22901e-21)
(-0.2345 -0.331733 8.95091e-21)
(-0.236868 -0.376582 -5.47662e-20)
(-0.234298 -0.414901 5.37124e-21)
(-0.00281473 0.0188367 1.64098e-20)
(-0.0095893 0.0391892 1.62343e-20)
(-0.0201328 0.0464733 -3.50302e-21)
(-0.0329434 0.0438393 -7.87348e-21)
(-0.0475159 0.0342245 -2.78003e-21)
(-0.0635053 0.0201183 1.10581e-20)
(-0.0805284 0.00328847 1.62228e-20)
(-0.098209 -0.01537 -3.6225e-20)
(-0.116182 -0.0357782 1.01092e-20)
(-0.134099 -0.0584325 -1.25064e-20)
(-0.15163 -0.0841163 -2.22495e-20)
(-0.168451 -0.113615 -4.70939e-21)
(-0.184218 -0.14753 -7.03212e-21)
(-0.198538 -0.186155 -1.59126e-20)
(-0.210939 -0.229345 1.90953e-20)
(-0.220874 -0.276301 -1.79175e-20)
(-0.227692 -0.3253 2.33492e-21)
(-0.230888 -0.373275 5.4328e-20)
(-0.231004 -0.41526 -3.78645e-20)
(-0.00382217 0.0212651 -1.19498e-20)
(-0.011643 0.0453393 2.20915e-20)
(-0.0224317 0.0554945 -3.09839e-20)
(-0.034972 0.0550163 1.41249e-20)
(-0.0489184 0.0469449 -7.71899e-20)
(-0.064023 0.0338752 -4.73708e-20)
(-0.0799556 0.0176792 3.00781e-20)
(-0.0963613 -0.000648003 7.21539e-20)
(-0.112865 -0.0209432 -3.03749e-20)
(-0.129099 -0.0436548 -2.03955e-20)
(-0.144728 -0.0695083 -2.95355e-20)
(-0.159416 -0.0992951 6.107e-20)
(-0.17282 -0.133645 7.59339e-20)
(-0.184568 -0.172908 -6.09529e-20)
(-0.194251 -0.21701 -4.87624e-20)
(-0.20146 -0.265229 1.77151e-20)
(-0.205772 -0.31593 -4.0172e-20)
(-0.20683 -0.366205 -1.91852e-21)
(-0.207018 -0.41072 6.27746e-20)
(-0.00494893 0.0234177 4.89525e-20)
(-0.0139192 0.0509418 1.51357e-20)
(-0.024869 0.0638858 5.04792e-20)
(-0.0369268 0.0655818 -1.53351e-20)
(-0.0499268 0.0591165 7.65199e-20)
(-0.0637288 0.0471566 4.59791e-20)
(-0.0780606 0.0316652 -5.5436e-20)
(-0.0925807 0.0137357 -7.14488e-20)
(-0.106911 -0.00636931 6.5624e-20)
(-0.120638 -0.029019 -1.91959e-20)
(-0.133374 -0.0549139 2.85965e-20)
(-0.144761 -0.0848048 -1.12274e-19)
(-0.154411 -0.119347 4.06635e-20)
(-0.161933 -0.158928 1.35502e-20)
(-0.166932 -0.20352 8.13532e-21)
(-0.169105 -0.252435 3.11542e-20)
(-0.168289 -0.304072 7.95778e-20)
(-0.163906 -0.355738 1.92248e-21)
(-0.161621 -0.401488 -2.10506e-20)
(-0.00615291 0.0252068 3.45068e-20)
(-0.0163389 0.055792 1.65653e-20)
(-0.0273638 0.0713705 -8.24688e-20)
(-0.0387392 0.0752187 -4.95994e-20)
(-0.0504901 0.0704034 -1.88582e-20)
(-0.0625895 0.059621 6.4127e-20)
(-0.0748278 0.0449037 7.60747e-20)
(-0.0868754 0.0274384 -9.51249e-21)
(-0.0983243 0.0075874 -1.78515e-20)
(-0.108731 -0.0149183 -1.65125e-20)
(-0.117621 -0.0407366 -5.12706e-20)
(-0.124552 -0.0705801 1.17334e-19)
(-0.129078 -0.105114 -1.91359e-22)
(-0.130744 -0.144742 -4.71762e-20)
(-0.129126 -0.189449 -3.45046e-21)
(-0.12397 -0.238538 9.72189e-21)
(-0.115507 -0.290344 2.93829e-20)
(-0.102191 -0.342428 -1.03777e-19)
(-0.0952166 -0.388187 4.66775e-20)
(-0.0652534 -0.427798 -1.00986e-20)
(-0.00738455 0.0265624 -5.8243e-20)
(-0.0188096 0.0597172 3.24097e-20)
(-0.0298248 0.077704 3.81264e-20)
(-0.0403393 0.0836362 3.16568e-20)
(-0.0505677 0.0804893 6.92545e-20)
(-0.060596 0.0709404 1.0352e-20)
(-0.0702782 0.0570615 -8.79197e-21)
(-0.0792959 0.0401222 2.96706e-20)
(-0.0872079 0.0205863 -4.50779e-20)
(-0.0935021 -0.00172448 -5.06067e-21)
(-0.0976204 -0.0273673 2.26803e-20)
(-0.0990044 -0.0570647 -1.02778e-19)
(-0.0971133 -0.0914412 -3.53797e-20)
(-0.0913956 -0.130904 3.18966e-20)
(-0.0813649 -0.175421 -7.78036e-20)
(-0.0667414 -0.224241 8.69796e-20)
(-0.0484571 -0.275554 1.14823e-20)
(-0.0228836 -0.326873 -1.30815e-20)
(-0.0092636 -0.372312 -1.23295e-19)
(0.036996 -0.409197 6.45161e-20)
(-0.00859059 0.0274374 -2.37693e-20)
(-0.0212307 0.0625868 -2.39504e-20)
(-0.0321557 0.0826861 -1.12708e-19)
(-0.0416584 0.0905823 -4.99317e-20)
(-0.050129 0.0890882 -1.68448e-19)
(-0.0577592 0.0808085 -1.41823e-20)
(-0.0644648 0.0678207 -8.38694e-20)
(-0.0699365 0.051459 -6.02718e-20)
(-0.0736937 0.0322849 1.33485e-19)
(-0.0751431 0.0102208 2.29704e-20)
(-0.0736332 -0.0152161 5.93952e-20)
(-0.0684695 -0.0447 7.44931e-20)
(-0.0589766 -0.0788132 -2.62264e-20)
(-0.0445052 -0.117958 -8.64815e-20)
(-0.0245015 -0.162051 7.87854e-20)
(0.00143858 -0.210244 7.42376e-20)
(0.031306 -0.260708 -7.10573e-20)
(0.0713545 -0.309521 9.64059e-20)
(0.0941275 -0.356032 1.40604e-19)
(0.158332 -0.384467 3.37046e-20)
(-0.00971839 0.0278101 6.21765e-20)
(-0.0235013 0.0643204 7.25773e-20)
(-0.0342603 0.0861718 3.4645e-20)
(-0.0426307 0.0958548 8.62027e-20)
(-0.0491515 0.0959542 3.89115e-20)
(-0.0541052 0.0889506 1.05354e-19)
(-0.0574636 0.0768874 9.11536e-20)
(-0.0589238 0.0611401 -3.65834e-20)
(-0.0579643 0.0423586 -5.97445e-20)
(-0.0539063 0.0205606 1.07367e-19)
(-0.04598 -0.00465591 -6.7997e-20)
(-0.0333519 -0.033885 5.16227e-20)
(-0.0152175 -0.0676665 7.01572e-20)
(0.00919136 -0.106391 7.83061e-20)
(0.0404542 -0.149881 -2.31617e-19)
(0.0790902 -0.197125 -1.08128e-19)
(0.1221 -0.246613 -2.77692e-20)
(0.177178 -0.291572 1.16098e-19)
(0.21102 -0.339108 -2.37695e-19)
(0.29378 -0.357267 -7.94344e-20)
(-0.010721 0.0276872 9.40462e-20)
(-0.0255265 0.0648903 -1.08208e-19)
(-0.0360477 0.0880776 -1.12956e-19)
(-0.0431949 0.0993103 -1.16018e-19)
(-0.0476172 0.100892 -7.19699e-20)
(-0.0496663 0.0951322 -1.71102e-20)
(-0.0493593 0.0840005 -1.17384e-19)
(-0.0463946 0.0688865 1.47234e-19)
(-0.0402107 0.0505145 4.33061e-20)
(-0.0300404 0.0289906 4.40374e-20)
(-0.0149931 0.00400801 -1.75436e-19)
(0.00591947 -0.024945 2.79115e-20)
(0.0336311 -0.0583914 -2.19707e-20)
(0.0689822 -0.0966118 -8.60132e-21)
(0.112549 -0.139334 -8.92579e-20)
(0.164799 -0.185318 1.14398e-19)
(0.221715 -0.233574 -2.51231e-20)
(0.292333 -0.27414 -2.62277e-19)
(0.336231 -0.32088 3.58273e-20)
(0.437616 -0.330321 1.42569e-19)
(-0.0115616 0.0270979 6.80715e-20)
(-0.0272274 0.0643249 -2.09716e-20)
(-0.0374365 0.0883858 1.18573e-19)
(-0.0432943 0.100871 5.9015e-20)
(-0.045508 0.103766 8.46968e-20)
(-0.0444698 0.0991695 7.57195e-21)
(-0.0402274 0.0889431 1.59897e-19)
(-0.0324722 0.074462 -1.44318e-19)
(-0.0205982 0.0564946 -6.71023e-20)
(-0.00375441 0.0352428 -2.7442e-20)
(0.0190796 0.0104921 1.75596e-19)
(0.0490081 -0.0181851 -3.09867e-20)
(0.0871226 -0.0512622 2.77463e-20)
(0.134312 -0.0888748 1.13379e-19)
(0.190996 -0.130651 1.08409e-19)
(0.257489 -0.175005 -1.87716e-19)
(0.328322 -0.221571 -1.01774e-19)
(0.413699 -0.25736 4.99103e-20)
(0.466493 -0.302077 1.46018e-19)
(0.582105 -0.303589 -1.99747e-20)
(-0.0122117 0.0260956 -8.99342e-20)
(-0.0285413 0.0627041 -4.78663e-20)
(-0.0383609 0.0871434 -6.62144e-20)
(-0.0428752 0.100526 -6.32234e-20)
(-0.0427965 0.104504 7.2065e-20)
(-0.0385213 0.100937 -1.38186e-19)
(-0.0301061 0.0915495 1.36355e-19)
(-0.0172314 0.0776704 9.78431e-21)
(0.000767172 0.0600944 -1.18675e-19)
(0.024828 0.0391098 -2.76192e-20)
(0.0560921 0.0145886 -1.12802e-19)
(0.0957861 -0.0138013 5.16835e-20)
(0.14509 -0.0464078 -3.66227e-20)
(0.204898 -0.0832602 -2.19932e-19)
(0.275314 -0.123832 1.02009e-20)
(0.356207 -0.166032 6.69823e-20)
(0.440536 -0.210313 1.43673e-19)
(0.538079 -0.241042 2.37873e-19)
(0.598499 -0.282283 3.25579e-20)
(0.720784 -0.276822 -2.01022e-19)
(-0.0126602 0.0247529 -1.25587e-19)
(-0.0294282 0.0601481 -1.75672e-20)
(-0.0387688 0.0844572 2.35437e-19)
(-0.0418847 0.0983358 -1.05344e-19)
(-0.0394376 0.103105 5.79539e-21)
(-0.0317897 0.100379 -1.00507e-19)
(-0.0189785 0.0917174 -9.71957e-20)
(-0.000654181 0.0783823 1.55959e-20)
(0.0239092 0.0611829 5.14873e-20)
(0.0557481 0.0404666 1.95715e-19)
(0.0961181 0.0162066 -6.27579e-20)
(0.146354 -0.0118211 -2.73216e-19)
(0.207661 -0.043817 1.95657e-19)
(0.280791 -0.079643 1.70583e-19)
(0.365312 -0.118605 1.10962e-19)
(0.460109 -0.15805 2.74004e-19)
(0.556777 -0.199064 -8.32243e-20)
(0.662313 -0.224763 -3.64564e-19)
(0.728242 -0.261 5.67422e-20)
(0.847957 -0.24964 5.5391e-20)
(-0.0129097 0.0231523 -6.56447e-20)
(-0.029871 0.0568109 8.25454e-20)
(-0.0386204 0.0804843 -8.22443e-20)
(-0.0402631 0.0944224 1.29303e-19)
(-0.035355 0.0996427 -1.48384e-19)
(-0.0241833 0.0975153 1.36974e-19)
(-0.00673366 0.0894297 2.7732e-20)
(0.0174 0.0765614 -1.47449e-19)
(0.0490212 0.0597159 1.25326e-19)
(0.0892719 0.0392965 -1.36738e-19)
(0.139515 0.0153775 1.72387e-19)
(0.201145 -0.0121332 9.3274e-20)
(0.275285 -0.0432599 7.57217e-20)
(0.362296 -0.0776438 -1.16247e-19)
(0.460868 -0.114385 -1.91787e-20)
(0.568195 -0.150446 -1.4507e-19)
(0.674786 -0.186962 9.34999e-20)
(0.782998 -0.207857 1.14273e-21)
(0.850952 -0.237968 -1.38872e-19)
(0.958971 -0.222054 5.20698e-20)
(-0.0129757 0.0213806 1.49944e-20)
(-0.0298718 0.0528654 5.32204e-20)
(-0.037883 0.0754202 1.14623e-20)
(-0.0379341 0.0889663 4.33543e-20)
(-0.0304252 0.0942616 1.02624e-19)
(-0.0155268 0.092453 9.64036e-20)
(0.00686571 0.0847617 6.80788e-20)
(0.037247 0.0722705 8.54102e-20)
(0.0765219 0.0557707 -1.74921e-19)
(0.125941 0.0357198 -2.55256e-20)
(0.18695 0.0122993 -2.83668e-19)
(0.260911 -0.0144224 -9.00522e-20)
(0.348652 -0.0442614 -1.03223e-19)
(0.44976 -0.0766109 1.68245e-19)
(0.561561 -0.11032 -2.60171e-19)
(0.678881 -0.142344 4.97166e-20)
(0.791352 -0.173275 2.01612e-20)
(0.896322 -0.189709 2.16715e-19)
(0.961646 -0.213288 -9.49224e-20)
(1.05079 -0.194553 6.63081e-20)
(-0.0128832 0.0195217 1.97653e-19)
(-0.0294452 0.0484894 6.7764e-20)
(-0.036522 0.0694843 1.22085e-19)
(-0.0347934 0.0821935 1.09902e-19)
(-0.0244615 0.0871745 1.85966e-20)
(-0.00553902 0.085385 -2.32935e-19)
(0.0222111 0.0778944 -1.71435e-19)
(0.0594094 0.0656963 -1.56242e-19)
(0.107085 0.0495693 1.48126e-19)
(0.166591 0.0300271 8.97864e-20)
(0.239381 0.00737548 3.23087e-19)
(0.326609 -0.0181345 -2.66223e-19)
(0.42846 -0.0460864 9.94383e-20)
(0.543202 -0.0756456 -1.88592e-19)
(0.666212 -0.105418 1.38697e-19)
(0.789605 -0.132802 -5.03416e-20)
(0.902426 -0.157544 6.24869e-20)
(0.998311 -0.170094 -1.95158e-19)
(1.05615 -0.187465 1.52534e-19)
(1.12245 -0.167898 6.06503e-20)
(-0.0126618 0.0176498 -2.73173e-19)
(-0.0286083 0.0438511 1.06566e-19)
(-0.0344886 0.0629029 -1.66086e-19)
(-0.0306952 0.0743621 -1.54962e-19)
(-0.0171989 0.0786534 5.57896e-20)
(0.00618376 0.0765917 2.78798e-19)
(0.0398652 0.0691225 -2.03647e-19)
(0.0846285 0.0571678 2.54792e-20)
(0.141638 0.0415027 -5.8815e-20)
(0.212301 0.022709 -5.86426e-20)
(0.297937 0.00123464 1.50878e-19)
(0.399172 -0.0224747 3.35754e-19)
(0.515039 -0.0477797 -1.24787e-20)
(0.641852 -0.073705 2.90852e-20)
(0.772539 -0.0987445 -1.05433e-20)
(0.89676 -0.121104 -1.74436e-19)
(1.00366 -0.139704 1.65293e-19)
(1.08554 -0.149288 2.36557e-19)
(1.13212 -0.161234 5.56134e-20)
(1.17495 -0.142841 -1.07251e-19)
(-0.0123394 0.0158231 -7.05466e-20)
(-0.0273686 0.0390962 2.17392e-19)
(-0.0317068 0.0558942 -7.02762e-21)
(-0.02544 0.0657463 1.4939e-19)
(-0.00828438 0.0690175 6.90814e-20)
(0.0201737 0.0664331 6.62674e-20)
(0.0605597 0.058854 -8.23733e-20)
(0.113841 0.0471583 1.41692e-19)
(0.181295 0.032136 2.5632e-20)
(0.26427 0.0144569 -8.62074e-20)
(0.363679 -0.00528277 -5.10131e-20)
(0.479149 -0.0264589 -2.28165e-19)
(0.607919 -0.0482803 -2.28778e-19)
(0.74378 -0.069795 5.36062e-20)
(0.877124 -0.0896405 -1.94481e-20)
(0.996164 -0.106987 -6.95665e-20)
(1.09128 -0.120151 -2.17348e-19)
(1.156 -0.127927 -2.40973e-19)
(1.18941 -0.135232 -2.48481e-19)
(1.21069 -0.119964 2.74201e-20)
(-0.0119355 0.0140799 1.46525e-20)
(-0.0257118 0.0343388 -1.96382e-19)
(-0.0280608 0.0486542 -1.82417e-19)
(-0.0187663 0.0566217 -1.20599e-19)
(0.002724 0.0586172 2.1489e-19)
(0.0370787 0.0553347 -4.61167e-19)
(0.0851589 0.0475979 9.43288e-20)
(0.148108 0.0362744 -5.37242e-20)
(0.227229 0.0221966 1.56176e-19)
(0.32359 0.00613332 1.95008e-20)
(0.437276 -0.0111865 -2.4234e-19)
(0.566303 -0.0290286 1.0741e-19)
(0.705478 -0.046604 3.39097e-20)
(0.845844 -0.0632041 1.03166e-19)
(0.975865 -0.0778968 -1.05447e-19)
(1.08394 -0.0907 1.81948e-19)
(1.16296 -0.0996579 -7.04068e-20)
(1.20958 -0.106655 3.87674e-20)
(1.2297 -0.10979 -1.93431e-20)
(1.23272 -0.099885 -7.00611e-20)
(-0.0114549 0.0124371 2.29031e-19)
(-0.0235903 0.0296549 -4.09876e-20)
(-0.0233868 0.0413467 -2.54521e-20)
(-0.0103495 0.0472497 1.4489e-19)
(0.0163441 0.0478165 -7.35429e-20)
(0.0576284 0.0437684 4.15615e-19)
(0.114593 0.03594 1.97471e-20)
(0.188491 0.025227 1.28679e-19)
(0.280473 0.0125273 -2.15798e-19)
(0.390961 -0.00129945 -1.65513e-19)
(0.518651 -0.0154509 2.45625e-19)
(0.659295 -0.0292209 -2.00276e-19)
(0.804878 -0.0420468 1.61688e-19)
(0.944084 -0.0536795 -2.78705e-20)
(1.06479 -0.0637871 4.69266e-19)
(1.1574 -0.0729025 -9.31469e-21)
(1.21827 -0.0791323 1.47818e-19)
(1.24798 -0.0858204 1.96012e-19)
(1.25579 -0.0853006 1.08217e-19)
(1.24455 -0.0835054 1.49508e-19)
(-0.0108826 0.0108906 1.10274e-19)
(-0.0209162 0.0250825 -2.35349e-19)
(-0.0174696 0.0340979 7.79919e-20)
(0.000189906 0.0378672 1.25787e-19)
(0.0331442 0.0369753 1.05238e-19)
(0.082578 0.032225 -3.01469e-19)
(0.149756 0.0245078 1.35688e-19)
(0.235894 0.0147823 6.20724e-20)
(0.341685 0.0040159 2.6817e-20)
(0.466408 -0.00688465 1.11633e-19)
(0.606727 -0.0171633 -6.59603e-20)
(0.755631 -0.0263461 2.02411e-19)
(0.902408 -0.0343344 -1.6755e-19)
(1.03449 -0.0414602 -1.67192e-19)
(1.14094 -0.0479422 -2.8109e-19)
(1.21555 -0.0544427 -8.75169e-20)
(1.25849 -0.0592962 -1.72705e-19)
(1.2739 -0.0655215 -1.75312e-19)
(1.27126 -0.0631059 -1.43868e-19)
(1.24895 -0.074053 -7.08758e-20)
(-0.0101814 0.00941912 1.67299e-19)
(-0.0175581 0.0206263 -4.08512e-20)
(-0.0100472 0.0269969 -1.07872e-19)
(0.0132693 0.0286792 -3.45556e-19)
(0.0537026 0.0264337 -2.76149e-20)
(0.112637 0.0211893 3.60281e-19)
(0.191391 0.0139333 -8.1394e-20)
(0.290893 0.00570304 6.95305e-20)
(0.410945 -0.00249078 1.66157e-19)
(0.549084 -0.00979014 4.97946e-20)
(0.699374 -0.015668 -3.22355e-19)
(0.85193 -0.0201137 -7.87658e-20)
(0.994152 -0.0236527 -5.3739e-20)
(1.11384 -0.0271516 1.54469e-19)
(1.20287 -0.0311387 4.28392e-19)
(1.25905 -0.0361047 -1.29206e-19)
(1.28596 -0.0405011 -7.86748e-20)
(1.29002 -0.0461529 1.95445e-19)
(1.27924 -0.0454553 9.82811e-20)
(1.25829 -0.0524835 3.84556e-20)
(-0.00929228 0.00799006 -1.79294e-19)
(-0.013345 0.0162667 1.25471e-19)
(-0.000822326 0.020103 -2.51762e-19)
(0.0293175 0.0198615 2.82658e-20)
(0.0785616 0.016505 1.72847e-19)
(0.148392 0.0111216 -3.64256e-19)
(0.239976 0.00481558 -3.81181e-19)
(0.353591 -0.00130941 6.85848e-21)
(0.487611 -0.00627069 -2.26679e-19)
(0.637233 -0.00941442 -1.6024e-19)
(0.793621 -0.0106639 2.55726e-19)
(0.944491 -0.0106562 4.03232e-19)
(1.07675 -0.0105445 -1.54641e-19)
(1.18027 -0.0115162 -9.69226e-20)
(1.25071 -0.0141001 -2.36665e-19)
(1.28972 -0.0184199 1.69808e-20)
(1.30337 -0.0228286 -7.16515e-21)
(1.29879 -0.0285934 -8.76991e-21)
(1.2838 -0.028434 1.81642e-20)
(1.26153 -0.0368351 2.26748e-19)
(-0.00813733 0.00656701 1.78333e-19)
(-0.00807407 0.0119745 1.86897e-19)
(0.0105229 0.0134587 2.44032e-19)
(0.0487484 0.0115667 9.62072e-20)
(0.108181 0.0074739 -1.29925e-19)
(0.190237 0.00244437 -9.00121e-20)
(0.295635 -0.00230703 -1.21395e-20)
(0.423535 -0.00566225 1.29167e-19)
(0.5703 -0.00679324 1.19567e-19)
(0.728347 -0.00545378 7.74136e-20)
(0.886096 -0.00222276 -1.04294e-20)
(1.02994 0.00155533 -1.92673e-19)
(1.14796 0.0042718 1.53343e-19)
(1.23336 0.00472084 -2.12552e-20)
(1.28579 0.0026344 6.62396e-20)
(1.30997 -0.00164088 2.84859e-20)
(1.31324 -0.00642177 -1.83994e-20)
(1.30281 -0.0122814 5.22927e-20)
(1.28499 -0.0133658 -3.41944e-20)
(1.2629 -0.0216616 -2.31135e-19)
(-0.00662524 0.00511723 9.18288e-20)
(-0.00152294 0.00772438 -3.3586e-19)
(0.0243069 0.00710501 1.62305e-19)
(0.0719324 0.00393823 6.7572e-20)
(0.142897 -0.00039363 -1.9707e-19)
(0.238322 -0.00445891 1.92261e-19)
(0.358087 -0.00697258 1.08497e-19)
(0.499701 -0.00690365 -2.57287e-19)
(0.656996 -0.00375878 3.11615e-20)
(0.819489 0.00208454 -4.86436e-20)
(0.97356 0.00927337 1.14645e-19)
(1.10577 0.0158626 -8.76558e-20)
(1.20683 0.020081 -1.30231e-19)
(1.2739 0.0209927 1.90833e-19)
(1.3101 0.0187504 -8.91657e-20)
(1.32219 0.0141415 3.64635e-20)
(1.31784 0.00887945 -7.82586e-20)
(1.30354 0.00275737 9.97604e-22)
(1.28439 0.000746973 -6.5211e-20)
(1.26283 -0.00758405 6.41115e-20)
(-0.00465762 0.00361863 -2.36787e-20)
(0.00653656 0.00351085 -9.83713e-20)
(0.0408294 0.00110049 -1.10916e-19)
(0.0991695 -0.00287007 6.27641e-20)
(0.182895 -0.00683764 -1.84451e-20)
(0.292524 -0.00923934 1.1622e-19)
(0.426638 -0.00880327 8.27191e-20)
(0.580559 -0.00474061 7.95082e-20)
(0.745262 0.00289267 2.57651e-20)
(0.907689 0.0129234 6.86559e-20)
(1.05337 0.0232488 1.13638e-19)
(1.17057 0.031575 2.44505e-20)
(1.25359 0.0362898 -5.60656e-20)
(1.30341 0.036931 4.20173e-20)
(1.32583 0.0341167 1.34556e-19)
(1.32855 0.0289896 -2.34946e-19)
(1.31885 0.0231997 7.13511e-20)
(1.30224 0.0168343 8.01686e-20)
(1.28255 0.0139257 2.40424e-20)
(1.26163 0.00558114 4.64432e-20)
(-0.00213535 0.00206483 -3.66624e-20)
(0.0163246 -0.000640314 2.14813e-19)
(0.0603534 -0.00446263 7.42217e-20)
(0.130669 -0.00867846 -2.25436e-19)
(0.228181 -0.011591 -6.06888e-20)
(0.352436 -0.0115772 1.14032e-19)
(0.500215 -0.00751022 5.5095e-20)
(0.664206 0.000954704 1.92575e-19)
(0.832521 0.0130023 -7.10122e-21)
(0.990332 0.026596 8.68818e-21)
(1.12375 0.0390617 -9.73996e-20)
(1.22399 0.0480832 -1.50212e-19)
(1.28926 0.0524759 -1.54263e-20)
(1.32379 0.0523467 -9.22236e-20)
(1.33502 0.0487376 7.52244e-20)
(1.33078 0.0430205 3.55726e-19)
(1.31751 0.0367245 1.34654e-19)
(1.29963 0.0301039 -1.26659e-19)
(1.2799 0.0263893 -6.06223e-20)
(1.25974 0.0180704 2.30341e-20)
(0.00103613 0.000467869 1.77486e-19)
(0.028041 -0.00466407 -2.59377e-19)
(0.0830886 -0.00944729 -2.44831e-19)
(0.166531 -0.0132694 3.31427e-19)
(0.278576 -0.0143717 9.88436e-20)
(0.417372 -0.0111822 -6.07058e-20)
(0.577424 -0.00290011 -1.7719e-19)
(0.748532 0.010149 -2.19193e-19)
(0.916337 0.026238 1.45611e-19)
(1.06542 0.0425409 2.51464e-20)
(1.18385 0.0561063 7.63542e-20)
(1.26652 0.0649153 6.22858e-20)
(1.31533 0.068384 -2.644e-21)
(1.3369 0.0671866 -4.09774e-20)
(1.33941 0.0626933 -8.06563e-20)
(1.3302 0.0563809 -2.12027e-19)
(1.31466 0.0496068 -8.01041e-20)
(1.29619 0.042728 2.63092e-19)
(1.2767 0.038258 4.17714e-20)
(1.25724 0.0299238 -5.92644e-20)
(0.00494253 -0.00114087 -1.84015e-19)
(0.0418536 -0.00845284 1.81407e-19)
(0.109176 -0.0136668 4.9566e-21)
(0.206731 -0.016384 -7.50046e-20)
(0.333701 -0.0148847 -2.48206e-20)
(0.486396 -0.00780259 -2.0916e-20)
(0.656651 0.0051163 -1.28599e-19)
(0.831414 0.0226634 1.5575e-19)
(0.994653 0.0421548 -2.56891e-19)
(1.13168 0.060188 2.21425e-22)
(1.23362 0.0738751 -4.60887e-20)
(1.29921 0.0817484 -2.28843e-20)
(1.33345 0.0838953 5.08211e-20)
(1.34444 0.0814853 -1.10588e-19)
(1.34036 0.076099 -6.084e-21)
(1.32772 0.0692091 5.85861e-20)
(1.31082 0.0619805 -1.41288e-19)
(1.29218 0.054822 -8.98603e-22)
(1.27306 0.0496246 2.03143e-22)
(1.25426 0.0412562 1.05632e-19)
(0.00965715 -0.00271173 2.63619e-20)
(0.0578893 -0.0118583 4.95564e-20)
(0.138675 -0.0168874 9.65454e-20)
(0.251107 -0.0177287 -5.17087e-20)
(0.392986 -0.0128347 -1.67538e-19)
(0.558357 -0.00124225 4.30293e-20)
(0.73617 0.0165179 9.84797e-20)
(0.910901 0.0382018 5.29445e-20)
(1.06593 0.0602585 1.79762e-19)
(1.18857 0.07902 -4.87519e-20)
(1.27359 0.0919834 -2.90735e-20)
(1.32337 0.0983919 2.41524e-20)
(1.34519 0.0989883 -6.88115e-20)
(1.34781 0.0953244 -9.42715e-20)
(1.33891 0.0890739 -6.04162e-20)
(1.32398 0.081625 4.92747e-20)
(1.30633 0.0739488 1.19506e-19)
(1.28775 0.0664746 -5.68918e-20)
(1.26905 0.0605644 -8.61406e-20)
(1.25084 0.0521232 1.28516e-20)
(0.0152385 -0.004179 4.64939e-20)
(0.076225 -0.0146966 1.0499e-20)
(0.171551 -0.0188376 -1.28833e-19)
(0.299351 -0.0169896 1.69451e-19)
(0.455672 -0.00794696 3.78209e-20)
(0.631949 0.00862055 -1.95378e-19)
(0.81427 0.0311751 7.44441e-20)
(0.98535 0.0563881 -9.71981e-20)
(1.12921 0.0800601 4.69119e-21)
(1.23612 0.0986071 1.54217e-20)
(1.3047 0.110166 4.45566e-20)
(1.34038 0.114758 4.84236e-21)
(1.35193 0.113701 1.93227e-19)
(1.34811 0.108802 7.53786e-20)
(1.33578 0.101725 -3.52009e-20)
(1.31937 0.0937231 -4.02264e-20)
(1.30135 0.0855888 2.24027e-20)
(1.28297 0.0777514 2.29153e-20)
(1.2647 0.0711316 -3.72774e-20)
(1.24701 0.0625808 -3.98296e-20)
(0.0217281 -0.00546353 -5.44758e-20)
(0.0968803 -0.0167564 3.57625e-21)
(0.207664 -0.0192219 2.63545e-20)
(0.351007 -0.0138538 -7.13167e-20)
(0.520841 8.76848e-06 1.35818e-19)
(0.705785 0.021818 7.75736e-20)
(0.889368 0.0488629 -7.75449e-20)
(1.05352 0.076807 -5.10182e-20)
(1.18404 0.101115 4.58197e-20)
(1.27479 0.118618 -7.07825e-20)
(1.32803 0.128262 5.16441e-20)
(1.35154 0.130831 -1.20555e-21)
(1.35482 0.128102 1.56829e-21)
(1.34617 0.122011 -3.73336e-20)
(1.33145 0.114139 1.05262e-19)
(1.31412 0.105573 -8.63894e-21)
(1.29599 0.0969555 4.30098e-20)
(1.27786 0.0886995 -6.12011e-20)
(1.26001 0.0813686 4.57123e-20)
(1.24278 0.0726679 -1.85457e-20)
(0.0291474 -0.00647578 8.92339e-20)
(0.119812 -0.0178086 1.03016e-19)
(0.246769 -0.0177379 7.55425e-20)
(0.405477 -0.00803147 -1.07001e-20)
(0.587455 0.0111962 1.51928e-20)
(0.778479 0.0382874 1.27758e-21)
(0.960108 0.0692834 1.67749e-19)
(1.11457 0.0990406 -4.91048e-20)
(1.23042 0.123043 3.4283e-20)
(1.30533 0.138813 -1.70829e-19)
(1.34472 0.146188 2.44336e-20)
(1.358 0.146637 7.33688e-20)
(1.35477 0.142267 -3.31016e-20)
(1.34257 0.135033 6.74404e-20)
(1.32622 0.126377 -8.65707e-20)
(1.30837 0.117223 1.16674e-19)
(1.29026 0.108085 3.89116e-21)
(1.27243 0.0993519 -3.77148e-20)
(1.25498 0.0913061 1.35283e-21)
(1.23818 0.0824144 5.42917e-20)
(0.0374957 -0.00711895 -1.68339e-19)
(0.144907 -0.0176166 4.08687e-20)
(0.288509 -0.0140936 -1.58234e-20)
(0.462039 0.000722028 -1.14935e-19)
(0.654398 0.0256971 -4.23062e-20)
(0.848722 0.0578757 -7.97849e-20)
(1.02541 0.0920927 -6.86218e-20)
(1.16808 0.122695 -7.29032e-20)
(1.26868 0.145538 7.43142e-20)
(1.3286 0.159034 3.65383e-20)
(1.35584 0.163914 -1.05361e-19)
(1.36071 0.162224 -2.61043e-20)
(1.35247 0.156264 -1.22505e-20)
(1.3377 0.147925 -5.07727e-20)
(1.32029 0.138482 -8.57116e-21)
(1.30217 0.128701 -2.05412e-20)
(1.28419 0.119 -8.2101e-20)
(1.26666 0.10973 3.91526e-20)
(1.2496 0.100966 4.77755e-20)
(1.23319 0.0918408 -1.17002e-20)
(0.0467481 -0.00729246 6.03195e-21)
(0.171986 -0.0159472 -7.45295e-20)
(0.332426 -0.00802466 3.44545e-20)
(0.519874 0.0125884 -2.38872e-20)
(0.720542 0.0435034 2.9074e-20)
(0.915354 0.0803538 1.31488e-19)
(1.08451 0.116927 -5.61682e-20)
(1.21394 0.147417 1.38502e-19)
(1.29935 0.168362 6.71806e-21)
(1.34552 0.179181 6.75571e-20)
(1.36232 0.181445 5.85627e-21)
(1.36042 0.177641 4.58697e-20)
(1.3484 0.170148 9.50993e-21)
(1.33183 0.160725 4.55245e-21)
(1.31375 0.150475 -6.6311e-20)
(1.29553 0.140022 1.16678e-20)
(1.27774 0.129709 5.9593e-20)
(1.26053 0.119847 2.709e-21)
(1.24386 0.110361 -2.8426e-20)
(1.22782 0.10096 1.15429e-20)
(0.0568532 -0.00689553 2.04242e-20)
(0.200797 -0.0125817 6.01831e-20)
(0.377971 0.000690494 6.47602e-20)
(0.578095 0.0276739 -1.78183e-20)
(0.784792 0.0645192 8.2738e-20)
(0.977402 0.105434 -1.65229e-20)
(1.1369 0.143423 1.32429e-19)
(1.2523 0.1729 -1.66471e-19)
(1.32309 0.191334 -2.91789e-20)
(1.35693 0.199197 -2.9015e-20)
(1.36498 0.198798 -3.47754e-20)
(1.35774 0.192932 -8.31655e-21)
(1.34291 0.183952 1.17228e-20)
(1.32512 0.173452 -4.30944e-20)
(1.30665 0.162362 4.4143e-20)
(1.28846 0.151187 -1.91436e-20)
(1.27091 0.140213 -1.47072e-20)
(1.25403 0.129708 -1.3533e-20)
(1.23776 0.119499 -8.53698e-21)
(1.22208 0.109778 -2.67024e-20)
(0.0677328 -0.00583104 9.65155e-20)
(0.231023 -0.00732549 -9.2434e-20)
(0.42452 0.0122181 1.09207e-20)
(0.635791 0.0460024 -1.18836e-20)
(0.846141 0.0885682 -2.99981e-20)
(1.0341 0.132792 -6.1067e-20)
(1.18237 0.171233 -9.39044e-21)
(1.28349 0.198884 4.03255e-20)
(1.34058 0.214321 1.8537e-20)
(1.36362 0.219049 -2.22526e-20)
(1.36445 0.215995 2.49116e-20)
(1.35307 0.208124 -5.40726e-21)
(1.33623 0.197693 -4.95341e-20)
(1.31764 0.186105 7.23746e-20)
(1.29899 0.174134 2.009e-20)
(1.28094 0.162186 -1.08084e-20)
(1.26366 0.150504 1.31695e-20)
(1.24714 0.139309 2.01597e-20)
(1.23128 0.128379 1.98028e-20)
(1.21596 0.118296 2.08082e-20)
(0.0792823 -0.00400957 -1.00313e-19)
(0.262292 -1.83541e-05 7.67746e-20)
(0.471398 0.0266597 3.33037e-20)
(0.692058 0.0675144 -6.77658e-20)
(0.9037 0.115406 -1.44322e-20)
(1.08491 0.162078 -5.5487e-20)
(1.22088 0.200031 2.1921e-20)
(1.30794 0.225149 -3.60999e-20)
(1.3525 0.237222 2.8037e-21)
(1.36626 0.23872 5.80663e-21)
(1.36125 0.233047 1.09147e-20)
(1.34675 0.223229 -4.15386e-20)
(1.3285 0.211365 4.26492e-20)
(1.30944 0.198668 -3.03654e-20)
(1.29078 0.185772 -8.30328e-21)
(1.27293 0.173002 4.00641e-21)
(1.25598 0.160569 -9.15891e-21)
(1.23984 0.148646 -2.13719e-20)
(1.22441 0.136996 -9.18652e-22)
(1.20945 0.126508 -1.45009e-20)
(0.0913721 -0.00135328 -1.23396e-20)
(0.29418 0.0094579 -3.60496e-20)
(0.517898 0.0440457 -1.22608e-20)
(0.746035 0.09207 1.94817e-20)
(0.956723 0.144732 -1.19064e-20)
(1.12946 0.192937 1.2125e-20)
(1.25256 0.229518 2.83896e-20)
(1.32616 0.251509 2.50878e-20)
(1.35948 0.259957 1.98017e-20)
(1.36542 0.25819 -4.41242e-21)
(1.35579 0.249955 -1.16464e-20)
(1.33898 0.238239 1.37582e-20)
(1.31981 0.224949 -6.77441e-21)
(1.30052 0.211115 8.61636e-21)
(1.28199 0.197248 -5.25269e-21)
(1.26442 0.183611 1.13282e-20)
(1.24784 0.170387 -3.12318e-21)
(1.23212 0.157706 1.32876e-20)
(1.21714 0.14534 -3.28653e-21)
(1.20257 0.134406 1.96576e-21)
(0.10385 0.00220045 -2.84081e-22)
(0.326231 0.0211727 -1.90963e-22)
(0.563312 0.0643333 -4.28445e-21)
(0.796933 0.119457 2.11451e-20)
(1.00461 0.176208 1.35219e-20)
(1.16757 0.225012 -1.03158e-20)
(1.27766 0.25942 -7.71657e-21)
(1.33864 0.277804 -2.35904e-21)
(1.36208 0.282454 -1.10815e-20)
(1.36154 0.277435 -6.44736e-22)
(1.34833 0.266702 4.93364e-22)
(1.3299 0.253127 -4.81279e-21)
(1.31019 0.238409 -3.1134e-21)
(1.2909 0.223405 -7.11191e-21)
(1.27259 0.208525 -7.65219e-21)
(1.25538 0.193981 -6.70504e-22)
(1.23922 0.179933 2.85685e-21)
(1.22397 0.166471 3.10056e-21)
(1.20947 0.153391 3.59131e-21)
(1.19534 0.141975 5.13775e-21)
(0.116546 0.00669574 1.48825e-20)
(0.357965 0.0351421 -2.27293e-21)
(0.606948 0.0874069 -3.94761e-21)
(0.844052 0.149398 9.98962e-21)
(1.04692 0.209464 1.97761e-20)
(1.1992 0.257956 -8.65571e-21)
(1.29648 0.289483 -6.95902e-21)
(1.34589 0.303889 -1.29146e-20)
(1.36079 0.304646 -1.1517e-20)
(1.355 0.29642 2.16806e-21)
(1.33911 0.283255 -1.96667e-21)
(1.31961 0.267852 -8.22706e-22)
(1.29967 0.251696 -4.58973e-21)
(1.28054 0.235491 -7.38632e-21)
(1.26257 0.21956 -1.64973e-21)
(1.24579 0.204077 -5.81318e-22)
(1.23011 0.189178 -2.17732e-22)
(1.21537 0.174918 1.51573e-21)
(1.2014 0.16112 5.78934e-21)
(1.18777 0.149199 4.70319e-21)
(0.129276 0.0121557 -9.08689e-21)
(0.388896 0.0513266 -1.37276e-20)
(0.648153 0.113082 -1.8058e-20)
(0.886799 0.181565 2.37402e-20)
(1.08335 0.244113 2.22733e-20)
(1.2244 0.291429 2.62339e-22)
(1.30938 0.319474 8.12599e-21)
(1.34836 0.32963 2.2351e-20)
(1.35603 0.326462 2.41075e-20)
(1.34608 0.315096 1.53411e-20)
(1.32828 0.299564 -3.71895e-20)
(1.30816 0.282357 1.5352e-20)
(1.28825 0.264754 -6.82697e-21)
(1.26943 0.247318 1.59198e-20)
(1.25191 0.230307 -4.04562e-22)
(1.23562 0.213858 -2.62001e-21)
(1.22049 0.198091 1.49283e-21)
(1.20631 0.183017 1.37232e-20)
(1.19294 0.16849 -5.4444e-21)
(1.17984 0.156064 -3.68881e-22)
(0.141846 0.0185807 -2.94286e-20)
(0.418544 0.069631 6.58933e-20)
(0.686328 0.14111 6.37222e-21)
(0.924688 0.215584 -8.13401e-20)
(1.1137 0.27976 -1.45131e-20)
(1.24334 0.325104 3.3503e-20)
(1.31673 0.349171 -7.58332e-20)
(1.34647 0.354897 -6.01825e-22)
(1.34813 0.347823 6.19194e-21)
(1.33501 0.333399 -1.71516e-21)
(1.31593 0.315565 1.95538e-20)
(1.29559 0.296575 -3.15722e-20)
(1.27594 0.277513 4.83878e-21)
(1.25757 0.258826 -1.11729e-20)
(1.24058 0.240713 -8.60562e-21)
(1.22488 0.223282 8.24423e-21)
(1.21035 0.206636 -8.37376e-22)
(1.1968 0.19074 -2.14478e-20)
(1.18407 0.17548 8.17781e-22)
(1.17147 0.162558 -9.78178e-21)
(0.15406 0.0259473 2.22131e-20)
(0.44645 0.0899063 -3.7488e-20)
(0.720945 0.171187 -2.95426e-21)
(0.957346 0.251054 -6.8746e-20)
(1.1379 0.316004 -4.06617e-20)
(1.25621 0.358666 3.28876e-20)
(1.31889 0.378364 -3.74179e-20)
(1.34062 0.37956 4.06182e-21)
(1.33741 0.36864 2.94159e-20)
(1.32196 0.351253 -8.23029e-21)
(1.30216 0.331178 3.05528e-21)
(1.28191 0.310425 9.61092e-21)
(1.26271 0.289901 -3.2932e-20)
(1.24493 0.26995 4.19537e-20)
(1.22858 0.250722 3.88283e-20)
(1.21354 0.232303 -9.0172e-21)
(1.19968 0.214773 -1.36054e-20)
(1.18684 0.198051 1.54909e-20)
(1.17482 0.182103 8.82216e-21)
(1.16259 0.168656 1.9964e-20)
(0.165723 0.0342083 -8.53481e-20)
(0.472187 0.111953 3.74187e-20)
(0.751554 0.202963 -2.6654e-20)
(0.984506 0.287546 7.17131e-20)
(1.15598 0.352449 7.40003e-21)
(1.26329 0.391813 6.74748e-20)
(1.31623 0.406852 4.10108e-20)
(1.33112 0.403488 -4.57817e-20)
(1.32409 0.388814 -6.33939e-20)
(1.30707 0.368566 -3.49639e-20)