/*--------------------------------*- C++ -*----------------------------------*\
  =========                 |
  \\      /  F ield         | OpenFOAM: The Open Source CFD Toolbox
   \\    /   O peration     | Website:  https://openfoam.org
    \\  /    A nd           | Version:  7
     \\/     M anipulation  |
\*---------------------------------------------------------------------------*/
FoamFile
{
    version     2.0;
    format      ascii;
    class       surfaceScalarField;
    location    "4";
    object      phi;
}
// * * * * * * * * * * * * * * * * * * * * * * * * * * * * * * * * * * * * * //

dimensions      [0 3 -1 0 0 0 0];

internalField   nonuniform List<scalar> 
621
(
4.92414e-05
-1.011e-06
4.87894e-05
-1.18433e-06
4.82586e-05
-1.38959e-06
4.76343e-05
-1.63263e-06
4.68989e-05
-1.92029e-06
4.60313e-05
-2.26056e-06
4.50067e-05
-2.6627e-06
4.37954e-05
-3.13732e-06
4.23622e-05
-3.69656e-06
4.06655e-05
-4.35431e-06
3.86558e-05
-5.12665e-06
3.62749e-05
-6.03292e-06
3.34549e-05
-7.09565e-06
3.01189e-05
-8.33889e-06
2.61885e-05
-9.76706e-06
2.16068e-05
-1.13227e-05
1.64023e-05
-1.27384e-05
1.08008e-05
-1.34359e-05
5.42553e-06
-1.2179e-05
1.31746e-06
-8.16416e-06
-6.55637e-07
4.4315e-05
-6.62227e-08
4.42809e-05
-6.52907e-08
4.42473e-05
-6.43928e-08
4.42141e-05
-6.35311e-08
4.41814e-05
-6.27083e-08
4.4149e-05
-6.19276e-08
4.41171e-05
-6.11927e-08
4.40855e-05
-6.05083e-08
4.40543e-05
-5.988e-08
4.40234e-05
-5.93142e-08
4.39927e-05
-5.88189e-08
4.39623e-05
-5.84032e-08
4.3932e-05
-5.80784e-08
4.39019e-05
-5.78575e-08
4.38719e-05
-5.77559e-08
4.38418e-05
-5.7792e-08
4.38117e-05
-5.79875e-08
4.37814e-05
-5.83678e-08
4.37509e-05
-5.89633e-08
4.37199e-05
-5.98095e-08
4.36884e-05
-6.09487e-08
4.36562e-05
-6.24304e-08
4.3623e-05
-6.43134e-08
4.35887e-05
-6.66669e-08
4.3553e-05
-6.95725e-08
4.35155e-05
-7.31267e-08
4.34759e-05
-7.74433e-08
4.34337e-05
-8.26567e-08
4.33885e-05
-8.89255e-08
4.33395e-05
-9.64371e-08
4.3286e-05
-1.05413e-07
4.32273e-05
-1.16115e-07
4.31622e-05
-1.28851e-07
4.30896e-05
-1.43988e-07
4.30081e-05
-1.61958e-07
4.2916e-05
-1.83272e-07
4.28113e-05
-2.08535e-07
4.26917e-05
-2.38465e-07
4.25545e-05
-2.73911e-07
4.23964e-05
-3.15878e-07
4.22135e-05
-3.65558e-07
4.20012e-05
-4.24364e-07
4.17541e-05
-4.93969e-07
4.14659e-05
-5.76355e-07
4.11287e-05
-6.73867e-07
4.07337e-05
-7.89274e-07
4.02699e-05
-9.2584e-07
3.97247e-05
-1.08739e-06
3.90828e-05
-1.2784e-06
3.83263e-05
-1.50405e-06
3.74339e-05
-1.77028e-06
3.63804e-05
-2.08386e-06
3.51363e-05
-2.45243e-06
3.36667e-05
-2.88466e-06
3.19306e-05
-3.39057e-06
2.98801e-05
-3.98239e-06
2.74592e-05
-4.67481e-06
2.46049e-05
-5.48453e-06
2.12535e-05
-6.41567e-06
1.73629e-05
-7.4321e-06
1.29732e-05
-8.34862e-06
8.30831e-06
-8.77106e-06
3.94743e-06
-7.81808e-06
7.84927e-07
-5.00166e-06
1.2929e-07
3.52714e-05
-3.82351e-08
3.52438e-05
-3.76982e-08
3.52166e-05
-3.71811e-08
3.51898e-05
-3.66851e-08
3.51633e-05
-3.62118e-08
3.51371e-05
-3.57629e-08
3.51112e-05
-3.53408e-08
3.50857e-05
-3.49481e-08
3.50604e-05
-3.45881e-08
3.50353e-05
-3.42647e-08
3.50105e-05
-3.39825e-08
3.49858e-05
-3.37469e-08
3.49613e-05
-3.35644e-08
3.49369e-05
-3.34428e-08
3.49126e-05
-3.3391e-08
3.48882e-05
-3.34199e-08
3.48637e-05
-3.35421e-08
3.48391e-05
-3.37728e-08
3.48143e-05
-3.41295e-08
3.47891e-05
-3.46333e-08
3.47635e-05
-3.53088e-08
3.47372e-05
-3.61852e-08
3.47102e-05
-3.72969e-08
3.46822e-05
-3.86845e-08
3.46531e-05
-4.0396e-08
3.46224e-05
-4.24878e-08
3.459e-05
-4.50269e-08
3.45554e-05
-4.80919e-08
3.45183e-05
-5.1776e-08
3.44781e-05
-5.61889e-08
3.44341e-05
-6.14606e-08
3.43857e-05
-6.77442e-08
3.43321e-05
-7.5221e-08
3.42722e-05
-8.41051e-08
3.42049e-05
-9.46498e-08
3.41288e-05
-1.07154e-07
3.40422e-05
-1.21974e-07
3.39433e-05
-1.39526e-07
3.38297e-05
-1.60309e-07
3.36987e-05
-1.8491e-07
3.35472e-05
-2.14024e-07
3.33713e-05
-2.48476e-07
3.31666e-05
-2.8924e-07
3.29277e-05
-3.37468e-07
3.26483e-05
-3.94523e-07
3.23211e-05
-4.62007e-07
3.1937e-05
-5.41804e-07
3.14858e-05
-6.36118e-07
3.09549e-05
-7.47507e-07
3.03297e-05
-8.78918e-07
2.95932e-05
-1.0337e-06
2.87249e-05
-1.21564e-06
2.77014e-05
-1.42895e-06
2.64951e-05
-1.67834e-06
2.50738e-05
-1.96928e-06
2.34e-05
-2.30858e-06
2.143e-05
-2.70473e-06
1.91137e-05
-3.16831e-06
1.64011e-05
-3.70307e-06
1.32602e-05
-4.29118e-06
9.73201e-06
-4.82043e-06
6.01968e-06
-5.05873e-06
2.63726e-06
-4.43566e-06
3.32847e-07
-2.69725e-06
4.62137e-07
2.57749e-05
-1.74554e-08
2.57544e-05
-1.72109e-08
2.57342e-05
-1.69755e-08
2.57143e-05
-1.67497e-08
2.56946e-05
-1.65344e-08
2.56752e-05
-1.63304e-08
2.5656e-05
-1.61387e-08
2.5637e-05
-1.59606e-08
2.56182e-05
-1.57975e-08
2.55996e-05
-1.56514e-08
2.55811e-05
-1.55243e-08
2.55628e-05
-1.54187e-08
2.55446e-05
-1.53377e-08
2.55264e-05
-1.52849e-08
2.55083e-05
-1.52644e-08
2.54902e-05
-1.52813e-08
2.5472e-05
-1.53414e-08
2.54536e-05
-1.54518e-08
2.54351e-05
-1.56205e-08
2.54163e-05
-1.58574e-08
2.53972e-05
-1.6174e-08
2.53776e-05
-1.65836e-08
2.53574e-05
-1.71023e-08
2.53365e-05
-1.7749e-08
2.53146e-05
-1.85458e-08
2.52917e-05
-1.9519e-08
2.52673e-05
-2.06995e-08
2.52414e-05
-2.21238e-08
2.52134e-05
-2.38352e-08
2.51831e-05
-2.58844e-08
2.515e-05
-2.83318e-08
2.51135e-05
-3.12482e-08
2.5073e-05
-3.47176e-08
2.50277e-05
-3.88392e-08
2.49768e-05
-4.37302e-08
2.49192e-05
-4.95292e-08
2.48536e-05
-5.64001e-08
2.47786e-05
-6.45368e-08
2.46925e-05
-7.41687e-08
2.45931e-05
-8.5567e-08
2.44782e-05
-9.90528e-08
2.43447e-05
-1.15006e-07
2.41893e-05
-1.33874e-07
2.4008e-05
-1.56188e-07
2.37961e-05
-1.82571e-07
2.35478e-05
-2.13757e-07
2.32566e-05
-2.50606e-07
2.29146e-05
-2.94117e-07
2.25126e-05
-3.45448e-07
2.20396e-05
-4.05922e-07
2.14829e-05
-4.7703e-07
2.08277e-05
-5.60433e-07
2.00567e-05
-6.57952e-07
1.915e-05
-7.71612e-07
1.80844e-05
-9.03723e-07
1.68331e-05
-1.05729e-06
1.53646e-05
-1.23619e-06
1.36422e-05
-1.44597e-06
1.16284e-05
-1.68927e-06
9.29827e-06
-1.96101e-06
6.68504e-06
-2.2072e-06
3.95101e-06
-2.3247e-06
1.5209e-06
-2.00555e-06
2.09964e-09
-1.17844e-06
4.64236e-07
1.58189e-05
-4.50164e-09
1.58062e-05
-4.43876e-09
1.57936e-05
-4.37824e-09
1.57811e-05
-4.32024e-09
1.57689e-05
-4.26495e-09
1.57567e-05
-4.2126e-09
1.57448e-05
-4.16346e-09
1.57329e-05
-4.11787e-09
1.57212e-05
-4.07622e-09
1.57096e-05
-4.03898e-09
1.56981e-05
-4.00671e-09
1.56866e-05
-3.98009e-09
1.56753e-05
-3.9599e-09
1.56639e-05
-3.94708e-09
1.56526e-05
-3.94274e-09
1.56413e-05
-3.94819e-09
1.56299e-05
-3.96498e-09
1.56184e-05
-3.99493e-09
1.56069e-05
-4.04022e-09
1.55951e-05
-4.10337e-09
1.55831e-05
-4.18742e-09
1.55708e-05
-4.29589e-09
1.55582e-05
-4.433e-09
1.5545e-05
-4.60367e-09
1.55313e-05
-4.81374e-09
1.55168e-05
-5.0701e-09
1.55015e-05
-5.38087e-09
1.54851e-05
-5.75563e-09
1.54675e-05
-6.2057e-09
1.54484e-05
-6.74444e-09
1.54274e-05
-7.38761e-09
1.54043e-05
-8.15384e-09
1.53787e-05
-9.06513e-09
1.535e-05
-1.01475e-08
1.53177e-05
-1.14315e-08
1.52811e-05
-1.29536e-08
1.52395e-05
-1.47566e-08
1.51918e-05
-1.68913e-08
1.51371e-05
-1.94174e-08
1.50739e-05
-2.2406e-08
1.50008e-05
-2.59406e-08
1.49159e-05
-3.01201e-08
1.48171e-05
-3.50612e-08
1.47018e-05
-4.09013e-08
1.45671e-05
-4.78021e-08
1.44092e-05
-5.59529e-08
1.42242e-05
-6.55748e-08
1.4007e-05
-7.6924e-08
1.37519e-05
-9.02948e-08
1.3452e-05
-1.06021e-07
1.30994e-05
-1.24475e-07
1.2685e-05
-1.46063e-07
1.21983e-05
-1.71223e-07
1.16271e-05
-2.00432e-07
1.09576e-05
-2.3422e-07
1.01737e-05
-2.73326e-07
9.25622e-06
-3.18741e-07
8.18247e-06
-3.72215e-07
6.928e-06
-4.34801e-07
5.47396e-06
-5.06966e-07
3.84041e-06
-5.73652e-07
2.12819e-06
-6.12468e-07
6.41153e-07
-5.18514e-07
-2.40977e-07
-2.96313e-07
2.23259e-07
5.39674e-06
5.3923e-06
5.38793e-06
5.38361e-06
5.37934e-06
5.37513e-06
5.37097e-06
5.36685e-06
5.36277e-06
5.35873e-06
5.35473e-06
5.35075e-06
5.34679e-06
5.34284e-06
5.3389e-06
5.33495e-06
5.33098e-06
5.32699e-06
5.32295e-06
5.31884e-06
5.31466e-06
5.31036e-06
5.30593e-06
5.30132e-06
5.29651e-06
5.29144e-06
5.28606e-06
5.2803e-06
5.2741e-06
5.26735e-06
5.25997e-06
5.25181e-06
5.24275e-06
5.2326e-06
5.22117e-06
5.20821e-06
5.19346e-06
5.17657e-06
5.15715e-06
5.13474e-06
5.1088e-06
5.07868e-06
5.04362e-06
5.00272e-06
4.95492e-06
4.89897e-06
4.83339e-06
4.75647e-06
4.66617e-06
4.56015e-06
4.43568e-06
4.28961e-06
4.11839e-06
3.91796e-06
3.68374e-06
3.41041e-06
3.09167e-06
2.71945e-06
2.28465e-06
1.77769e-06
1.20404e-06
5.91568e-07
7.30536e-08
-2.23259e-07
)
;

boundaryField
{
    inlet
    {
        type            calculated;
        value           nonuniform 0();
    }
    outlet
    {
        type            calculated;
        value           nonuniform 0();
    }
    wall
    {
        type            calculated;
        value           uniform 0;
    }
    wedge1
    {
        type            wedge;
        value           nonuniform List<scalar> 
346
(
4.61209e-18
2.89209e-18
4.60715e-18
7.00673e-19
-9.44251e-19
4.55461e-18
2.85727e-18
4.55174e-18
6.95388e-19
-9.27692e-19
4.47211e-18
2.79981e-18
4.47742e-18
6.78896e-19
-9.17381e-19
4.39368e-18
2.74192e-18
4.39262e-18
6.51364e-19
-9.1349e-19
4.33833e-18
2.70952e-18
4.33717e-18
6.45382e-19
-9.01383e-19
4.29586e-18
2.68839e-18
4.29444e-18
6.45594e-19
-8.87539e-19
4.27587e-18
2.68629e-18
4.27305e-18
6.56904e-19
-8.68967e-19
4.21838e-18
2.64219e-18
4.20929e-18
6.35921e-19
-8.65525e-19
4.20077e-18
2.64308e-18
4.19195e-18
6.49583e-19
-8.48961e-19
4.15123e-18
2.60766e-18
4.13987e-18
6.34508e-19
-8.457e-19
4.12361e-18
2.58912e-18
4.11237e-18
6.30811e-19
-8.36601e-19
4.07158e-18
2.54704e-18
4.05844e-18
6.09275e-19
-8.38951e-19
4.04392e-18
2.53217e-18
4.03528e-18
6.07646e-19
-8.34305e-19
4.03662e-18
2.53246e-18
4.03069e-18
6.12748e-19
-8.29128e-19
4.05625e-18
2.5556e-18
4.05137e-18
6.29835e-19
-8.20331e-19
4.04663e-18
2.54126e-18
4.03745e-18
6.15837e-19
-8.2778e-19
4.08253e-18
2.57559e-18
4.07665e-18
6.37715e-19
-8.23358e-19
4.0958e-18
2.57931e-18
4.0897e-18
6.31562e-19
-8.34666e-19
4.14077e-18
2.60689e-18
4.13775e-18
6.39203e-19
-8.41992e-19
4.1728e-18
2.61802e-18
4.17235e-18
6.30793e-19
-8.62976e-19
4.24376e-18
2.66577e-18
4.25185e-18
6.45191e-19
-8.80171e-19
4.34814e-18
2.73619e-18
4.36441e-18
6.66684e-19
-9.00781e-19
4.49864e-18
2.84155e-18
4.5219e-18
7.03796e-19
-9.22228e-19
4.64353e-18
2.9249e-18
4.6697e-18
7.13865e-19
-9.6439e-19
4.85879e-18
3.07272e-18
4.8967e-18
7.62815e-19
-1.00109e-18
5.08347e-18
3.21027e-18
5.13082e-18
7.89759e-19
-1.06016e-18
5.37613e-18
3.39678e-18
5.44133e-18
8.38841e-19
-1.12215e-18
5.70013e-18
3.59595e-18
5.79113e-18
8.8459e-19
-1.2038e-18
6.09603e-18
3.83835e-18
6.20241e-18
9.30409e-19
-1.30664e-18
6.59535e-18
4.15707e-18
6.7266e-18
1.01114e-18
-1.41936e-18
7.20133e-18
4.54503e-18
7.36096e-18
1.11019e-18
-1.55226e-18
7.93852e-18
5.02095e-18
8.13108e-18
1.23757e-18
-1.70553e-18
8.7759e-18
5.54266e-18
9.00076e-18
1.35494e-18
-1.90271e-18
9.80443e-18
6.20505e-18
1.0077e-17
1.52965e-18
-2.12165e-18
1.09888e-17
6.94912e-18
1.13108e-17
1.70392e-18
-2.39525e-18
1.24116e-17
7.84802e-18
1.27951e-17
1.9236e-18
-2.71083e-18
1.40687e-17
8.88576e-18
1.45214e-17
2.16441e-18
-3.09396e-18
1.60562e-17
1.01451e-17
1.65953e-17
2.47327e-18
-3.53661e-18
1.8421e-17
1.16435e-17
1.90563e-17
2.84067e-18
-4.0577e-18
2.12374e-17
1.34329e-17
2.19827e-17
3.28541e-18
-4.66686e-18
2.45314e-17
1.55047e-17
2.53951e-17
3.7761e-18
-5.39906e-18
2.84664e-17
1.80003e-17
2.94736e-17
4.39085e-18
-6.24638e-18
3.30894e-17
2.09127e-17
3.42506e-17
5.08457e-18
-7.25625e-18
3.858e-17
2.43749e-17
3.99176e-17
5.91662e-18
-8.4344e-18
-4.34851e-16
4.505e-17
2.84444e-17
4.65805e-17
6.8791e-18
-9.82642e-18
-5.09467e-16
5.27344e-17
3.32874e-17
5.44799e-17
8.03525e-18
-1.14491e-17
-5.97856e-16
6.18424e-17
3.90238e-17
6.38144e-17
9.40036e-18
-1.33461e-17
-7.02552e-16
7.26387e-17
4.5821e-17
7.48436e-17
1.10158e-17
-1.55579e-17
-8.26594e-16
8.53714e-17
5.38073e-17
8.77988e-17
1.28785e-17
-1.81505e-17
-9.73424e-16
1.00462e-16
6.32806e-17
1.03105e-16
1.5099e-17
-2.11508e-17
-1.14717e-15
1.18249e-16
7.44059e-17
1.21055e-16
1.76628e-17
-2.4642e-17
-1.3525e-15
1.39245e-16
8.7518e-17
1.42143e-16
2.06701e-17
-2.86646e-17
-1.59486e-15
1.63934e-16
1.02888e-16
1.66795e-16
2.41508e-17
-3.32952e-17
-1.88045e-15
1.92952e-16
1.20893e-16
1.95552e-16
2.81693e-17
-3.85999e-17
-2.2165e-15
2.27014e-16
1.4197e-16
2.29071e-16
3.28334e-17
-4.46375e-17
-2.61164e-15
2.66951e-16
1.66604e-16
2.68096e-16
3.82177e-17
-5.15211e-17
-3.07575e-15
3.13756e-16
1.9541e-16
3.1361e-16
4.44561e-17
-5.93969e-17
-3.61886e-15
3.68418e-16
2.29014e-16
3.66766e-16
5.16781e-17
-6.85629e-17
-4.24223e-15
4.31162e-16
2.67659e-16
4.28102e-16
6.00399e-17
-7.91686e-17
-4.91917e-15
4.99179e-16
3.0965e-16
4.95407e-16
6.92739e-17
-9.13203e-17
-5.53681e-15
5.60419e-16
3.47185e-16
5.55665e-16
7.76037e-17
-1.02533e-16
-5.84542e-15
5.88387e-16
3.63267e-16
5.8143e-16
8.13838e-17
-1.08975e-16
-5.34645e-15
5.2935e-16
3.21676e-16
5.06995e-16
7.02956e-17
-9.29303e-17
-3.6605e-15
3.47546e-16
2.01982e-16
3.03951e-16
4.10394e-17
-5.36305e-17
-5.48572e-16
2.8154e-17
-3.6284e-18
-5.07177e-17
-1.29768e-17
3.65515e-17
)
;
    }
    wedge2
    {
        type            wedge;
        value           nonuniform List<scalar> 
346
(
4.3396e-18
2.67943e-18
4.4734e-18
6.21959e-19
-9.65773e-19
4.27082e-18
2.63586e-18
4.40147e-18
6.08739e-19
-9.5574e-19
4.23166e-18
2.6178e-18
4.35313e-18
6.07412e-19
-9.40455e-19
4.19329e-18
2.60321e-18
4.32027e-18
6.17856e-19
-9.19812e-19
4.13706e-18
2.56641e-18
4.26344e-18
6.07538e-19
-9.08529e-19
4.07357e-18
2.52188e-18
4.19968e-18
5.91879e-19
-9.0022e-19
3.99375e-18
2.46217e-18
4.12093e-18
5.66058e-19
-8.97998e-19
3.95818e-18
2.44872e-18
4.09155e-18
5.73553e-19
-8.82141e-19
3.89022e-18
2.39499e-18
4.02349e-18
5.47548e-19
-8.8107e-19
3.86256e-18
2.38283e-18
3.99885e-18
5.51554e-19
-8.68561e-19
3.82237e-18
2.35973e-18
3.9594e-18
5.45626e-19
-8.63992e-19
3.81725e-18
2.36687e-18
3.95745e-18
5.59163e-19
-8.50356e-19
3.79986e-18
2.35444e-18
3.93733e-18
5.54654e-19
-8.46436e-19
3.77596e-18
2.3356e-18
3.91308e-18
5.45544e-19
-8.46161e-19
3.74105e-18
2.30396e-18
3.88013e-18
5.26901e-19
-8.53089e-19
3.75373e-18
2.32139e-18
3.90094e-18
5.42163e-19
-8.47907e-19
3.74211e-18
2.30355e-18
3.89077e-18
5.24825e-19
-8.59388e-19
3.77776e-18
2.33188e-18
3.93249e-18
5.39314e-19
-8.60701e-19
3.81034e-18
2.35448e-18
3.96913e-18
5.44431e-19
-8.72473e-19
3.88926e-18
2.41463e-18
4.05409e-18
5.70751e-19
-8.78136e-19
3.96824e-18
2.4628e-18
4.13493e-18
5.80287e-19
-8.96409e-19
4.05941e-18
2.51715e-18
4.23036e-18
5.89771e-19
-9.21582e-19
4.15785e-18
2.57033e-18
4.3367e-18
5.91889e-19
-9.57998e-19
4.32452e-18
2.68511e-18
4.51818e-18
6.30717e-19
-9.87859e-19
4.4943e-18
2.78191e-18
4.69727e-18
6.42018e-19
-1.03979e-18
4.74098e-18
2.94355e-18
4.95944e-18
6.8865e-19
-1.08885e-18
5.02112e-18
3.1204e-18
5.25123e-18
7.28815e-19
-1.15789e-18
5.38926e-18
3.36007e-18
5.6284e-18
7.90729e-19
-1.23418e-18
5.82594e-18
3.64532e-18
6.09075e-18
8.74238e-19
-1.32091e-18
6.32459e-18
3.95885e-18
6.61283e-18
9.4834e-19
-1.43495e-18
6.91141e-18
4.32632e-18
7.22801e-18
1.03414e-18
-1.57253e-18
7.59666e-18
4.75103e-18
7.94688e-18
1.12697e-18
-1.74116e-18
8.45253e-18
5.30114e-18
8.84832e-18
1.27145e-18
-1.92637e-18
9.43668e-18
5.9125e-18
9.87577e-18
1.40766e-18
-2.16095e-18
1.0642e-17
6.6804e-18
1.11377e-17
1.60215e-18
-2.42448e-18
1.2054e-17
7.57471e-18
1.26115e-17
1.81938e-18
-2.74437e-18
1.37574e-17
8.66223e-18
1.43887e-17
2.09582e-18
-3.11224e-18
1.57516e-17
9.92037e-18
1.64617e-17
2.39891e-18
-3.55634e-18
1.81028e-17
1.14029e-17
1.89069e-17
2.75511e-18
-4.08137e-18
2.08708e-17
1.31424e-17
2.17829e-17
3.16558e-18
-4.70535e-18
2.41885e-17
1.52472e-17
2.52308e-17
3.68518e-18
-5.42553e-18
2.80809e-17
1.76942e-17
2.92614e-17
4.26344e-18
-6.2874e-18
3.27246e-17
2.06306e-17
3.40678e-17
4.97792e-18
-7.28714e-18
3.82046e-17
2.40888e-17
3.97243e-17
5.8073e-18
-8.46956e-18
-4.35275e-16
4.47229e-17
2.82076e-17
4.64384e-17
6.80398e-18
-9.84736e-18
-5.09878e-16
5.24155e-17
3.30517e-17
5.43379e-17
7.9566e-18
-1.14706e-17
-5.98276e-16
6.15111e-17
3.87728e-17
6.36556e-17
9.31e-18
-1.33721e-17
-7.03015e-16
7.22603e-17
4.55223e-17
7.46356e-17
1.08921e-17
-1.55978e-17
-8.27039e-16
8.50183e-17
5.35429e-17
8.76302e-17
1.27851e-17
-1.81782e-17
-9.73907e-16
1.00065e-16
6.2966e-17
1.02884e-16
1.49677e-17
-2.11932e-17
-1.14763e-15
1.17875e-16
7.41177e-17
1.20866e-16
1.75536e-17
-2.46745e-17
-1.35297e-15
1.38861e-16
8.72206e-17
1.41937e-16
2.05511e-17
-2.87035e-17
-1.59527e-15
1.63596e-16
1.02631e-16
1.66616e-16
2.40472e-17
-3.33291e-17
-1.88083e-15
1.92654e-16
1.20681e-16
1.95428e-16
2.81057e-17
-3.86177e-17
-2.21689e-15
2.26716e-16
1.41753e-16
2.28939e-16
3.27636e-17
-4.4657e-17
-2.61204e-15
2.66635e-16
1.66368e-16
2.67946e-16
3.81354e-17
-5.15453e-17
-3.0762e-15
3.13391e-16
1.95123e-16
3.13407e-16
4.43365e-17
-5.9436e-17
-3.61929e-15
3.68079e-16
2.28765e-16
3.66609e-16
5.15936e-17
-6.85886e-17
-4.24268e-15
4.30789e-16
2.67365e-16
4.27894e-16
5.99169e-17
-7.92087e-17
-4.91959e-15
4.98845e-16
3.09396e-16
4.95242e-16
6.91823e-17
-9.13481e-17
-5.53721e-15
5.60098e-16
3.46944e-16
5.55503e-16
7.75129e-17
-1.02563e-16
-5.84574e-15
5.88147e-16
3.63104e-16
5.81342e-16
8.13443e-17
-1.08986e-16
-5.34671e-15
5.29159e-16
3.21546e-16
5.06927e-16
7.02656e-17
-9.29369e-17
-3.66068e-15
3.47406e-16
2.01885e-16
3.03901e-16
4.10175e-17
-5.36345e-17
-5.48681e-16
2.80653e-17
-3.69713e-18
-5.07672e-17
-1.3005e-17
3.65432e-17
)
;
    }
    axis
    {
        type            empty;
        value           nonuniform 0();
    }
    procBoundary44to38
    {
        type            processor;
        value           nonuniform List<scalar> 
66
(
1.39661e-06
1.6363e-06
1.92033e-06
2.25693e-06
2.65575e-06
3.12813e-06
3.68732e-06
4.34863e-06
5.12974e-06
6.05106e-06
7.13634e-06
8.41378e-06
9.91562e-06
1.16749e-05
1.36974e-05
1.59044e-05
1.79429e-05
1.90374e-05
1.75543e-05
1.22722e-05
1.9731e-06
1.00808e-07
9.93857e-08
9.80152e-08
9.66996e-08
9.54426e-08
9.4249e-08
9.31246e-08
9.20763e-08
9.11122e-08
9.02422e-08
8.94781e-08
8.88338e-08
8.83258e-08
8.79737e-08
8.78006e-08
8.7834e-08
8.81063e-08
8.86557e-08
8.95275e-08
9.07751e-08
9.24614e-08
9.4661e-08
9.74615e-08
1.00967e-07
1.05299e-07
1.10602e-07
1.17047e-07
1.24836e-07
1.34205e-07
1.45435e-07
1.58858e-07
1.74867e-07
1.93923e-07
2.16576e-07
2.43473e-07
2.75382e-07
3.13211e-07
3.58037e-07
4.11134e-07
4.74014e-07
5.48471e-07
6.36631e-07
7.41018e-07
-4.9627e-05
8.64624e-07
)
;
    }
    procBoundary44to43
    {
        type            processor;
        value           nonuniform List<scalar> 5(-4.43496e-05 -3.52994e-05 -2.57957e-05 -1.58319e-05 -5.40125e-06);
    }
}


// ************************************************************************* //
