/*--------------------------------*- C++ -*----------------------------------*\
  =========                 |
  \\      /  F ield         | OpenFOAM: The Open Source CFD Toolbox
   \\    /   O peration     | Website:  https://openfoam.org
    \\  /    A nd           | Version:  7
     \\/     M anipulation  |
\*---------------------------------------------------------------------------*/
FoamFile
{
    version     2.0;
    format      ascii;
    class       volVectorField;
    location    "34.999328";
    object      U;
}
// * * * * * * * * * * * * * * * * * * * * * * * * * * * * * * * * * * * * * //

dimensions      [0 1 -1 0 0 0 0];

internalField   nonuniform List<vector> 
5800
(
(-0.105132 -0.0102047 -8.24866e-21)
(-0.133223 -0.00888655 -3.38319e-21)
(-0.153978 -0.0068999 2.07413e-20)
(-0.167704 -0.00436861 -8.13083e-21)
(-0.174542 -0.00149253 9.16649e-22)
(1.05059 -0.000769667 0)
(1.05116 -0.000752337 0)
(1.05174 -0.000734309 0)
(1.05231 -0.000715562 0)
(1.05288 -0.000696074 0)
(1.05345 -0.000675826 0)
(1.05401 -0.000654798 0)
(1.05456 -0.000632974 0)
(1.0551 -0.000610341 0)
(1.05564 -0.000586887 0)
(1.05616 -0.000562604 0)
(1.05667 -0.000537486 0)
(1.05717 -0.000511528 0)
(1.05766 -0.000484731 0)
(1.05812 -0.000457096 0)
(1.05857 -0.000428628 0)
(1.05899 -0.000399336 0)
(1.0594 -0.00036923 0)
(1.05978 -0.000338326 0)
(1.06013 -0.000306644 0)
(1.06045 -0.000274204 0)
(1.06075 -0.000241033 0)
(1.06101 -0.000207163 0)
(1.06123 -0.000172626 0)
(1.06142 -0.000137463 0)
(1.06157 -0.000101716 0)
(1.06167 -6.54319e-05 0)
(1.06173 -2.86622e-05 0)
(1.06175 8.53523e-06 0)
(1.06171 4.61023e-05 0)
(1.06162 8.39697e-05 0)
(1.06148 0.000122075 0)
(1.06128 0.000160335 0)
(1.06102 0.000198686 0)
(1.0607 0.000237027 0)
(1.06031 0.000275302 0)
(1.05986 0.000313385 0)
(1.05933 0.000351237 0)
(1.05874 0.000388697 0)
(1.05807 0.000425766 0)
(1.05734 0.000462218 0)
(1.05651 0.000498132 0)
(1.05563 0.00053318 0)
(1.05463 0.000567573 0)
(1.0536 0.000600814 0)
(1.05243 0.000633338 0)
(1.05125 0.000664371 0)
(1.04989 0.000694712 0)
(1.04857 0.000723142 0)
(1.04701 0.000751036 0)
(1.04556 0.000776484 0)
(1.04377 0.000801731 0)
(1.04223 0.00082383 0)
(1.04018 0.000846304 0)
(1.0386 0.000864711 0)
(1.03624 0.000884349 0)
(1.03467 0.000898749 0)
(1.03193 0.000915512 0)
(1.0305 0.000925662 0)
(1.02725 0.000939418 0)
(1.0261 0.000945264 0)
(1.02218 0.000955532 0)
(1.02154 0.000957623 0)
(1.01669 0.000963103 0)
(1.0508 -0.00228196 0)
(1.05138 -0.0022319 0)
(1.05196 -0.00217958 0)
(1.05254 -0.00212493 0)
(1.05311 -0.00206793 0)
(1.05368 -0.00200852 0)
(1.05424 -0.00194667 0)
(1.05479 -0.00188235 0)
(1.05534 -0.00181551 0)
(1.05587 -0.00174614 0)
(1.0564 -0.00167422 0)
(1.05691 -0.00159975 0)
(1.05741 -0.00152271 0)
(1.0579 -0.00144312 0)
(1.05836 -0.00136097 0)
(1.05881 -0.00127631 0)
(1.05924 -0.00118914 0)
(1.05964 -0.00109952 0)
(1.06002 -0.00100749 0)
(1.06038 -0.00091311 0)
(1.0607 -0.000816451 0)
(1.061 -0.000717593 0)
(1.06126 -0.000616631 0)
(1.06148 -0.00051367 0)
(1.06167 -0.000408829 0)
(1.06182 -0.000302236 0)
(1.06192 -0.000194038 0)
(1.06198 -8.43859e-05 0)
(1.06199 2.65445e-05 0)
(1.06195 0.000138582 0)
(1.06186 0.000251521 0)
(1.06172 0.000365166 0)
(1.06152 0.000479276 0)
(1.06125 0.000593646 0)
(1.06093 0.000707995 0)
(1.06054 0.000822126 0)
(1.06009 0.000935702 0)
(1.05956 0.00104856 0)
(1.05897 0.00116028 0)
(1.05829 0.00127077 0)
(1.05755 0.00137949 0)
(1.05672 0.00148649 0)
(1.05584 0.00159105 0)
(1.05484 0.00169346 0)
(1.0538 0.00179267 0)
(1.05263 0.00188943 0)
(1.05144 0.00198212 0)
(1.05008 0.00207225 0)
(1.04876 0.00215732 0)
(1.04719 0.00223995 0)
(1.04574 0.00231634 0)
(1.04395 0.0023908 0)
(1.04241 0.00245754 0)
(1.04035 0.00252331 0)
(1.03876 0.00257952 0)
(1.0364 0.00263627 0)
(1.03483 0.0026812 0)
(1.03208 0.00272864 0)
(1.03064 0.00276169 0)
(1.02739 0.00279942 0)
(1.02624 0.00282033 0)
(1.02232 0.00284737 0)
(1.02168 0.00285674 0)
(1.01682 0.00287088 0)
(1.05123 -0.00378165 0)
(1.05181 -0.00369847 0)
(1.0524 -0.00361149 0)
(1.05298 -0.00352066 0)
(1.05355 -0.00342591 0)
(1.05412 -0.00332718 0)
(1.05469 -0.00322441 0)
(1.05525 -0.00311754 0)
(1.0558 -0.00300654 0)
(1.05634 -0.00289135 0)
(1.05686 -0.00277196 0)
(1.05738 -0.00264835 0)
(1.05788 -0.00252051 0)
(1.05837 -0.00238846 0)
(1.05884 -0.00225221 0)
(1.05929 -0.0021118 0)
(1.05972 -0.00196727 0)
(1.06012 -0.0018187 0)
(1.06051 -0.00166615 0)
(1.06086 -0.00150973 0)
(1.06119 -0.00134956 0)
(1.06148 -0.00118578 0)
(1.06174 -0.00101853 0)
(1.06197 -0.000847986 0)
(1.06215 -0.000674354 0)
(1.0623 -0.000497843 0)
(1.0624 -0.000318696 0)
(1.06246 -0.000137166 0)
(1.06247 4.64602e-05 0)
(1.06243 0.000231892 0)
(1.06234 0.000418796 0)
(1.06219 0.000606839 0)
(1.06198 0.000795635 0)
(1.06171 0.00098483 0)
(1.06139 0.00117398 0)
(1.06099 0.00136273 0)
(1.06053 0.00155056 0)
(1.06 0.00173713 0)
(1.0594 0.00192185 0)
(1.05872 0.00210445 0)
(1.05798 0.00228419 0)
(1.05714 0.00246095 0)
(1.05625 0.00263379 0)
(1.05524 0.00280285 0)
(1.0542 0.00296687 0)
(1.05302 0.00312645 0)
(1.05182 0.00327978 0)
(1.05045 0.00342819 0)
(1.04912 0.00356906 0)
(1.04755 0.00370483 0)
(1.04609 0.0038316 0)
(1.04429 0.00395347 0)
(1.04274 0.00406469 0)
(1.04067 0.00417169 0)
(1.03908 0.0042661 0)
(1.0367 0.00435747 0)
(1.03513 0.00443404 0)
(1.03237 0.00450919 0)
(1.03093 0.00456707 0)
(1.02767 0.00462534 0)
(1.02652 0.00466395 0)
(1.02258 0.0047043 0)
(1.02194 0.00472347 0)
(1.01707 0.00474408 0)
(1.05185 -0.00526139 0)
(1.05244 -0.0051454 0)
(1.05303 -0.00502414 0)
(1.05362 -0.00489751 0)
(1.0542 -0.00476544 0)
(1.05478 -0.00462782 0)
(1.05535 -0.00448458 0)
(1.05591 -0.00433563 0)
(1.05646 -0.00418092 0)
(1.05701 -0.0040204 0)
(1.05754 -0.00385402 0)
(1.05806 -0.00368178 0)
(1.05857 -0.00350366 0)
(1.05906 -0.00331967 0)
(1.05953 -0.00312985 0)
(1.05999 -0.00293425 0)
(1.06042 -0.00273293 0)
(1.06083 -0.00252598 0)
(1.06121 -0.00231353 0)
(1.06157 -0.00209571 0)
(1.06189 -0.00187268 0)
(1.06219 -0.00164464 0)
(1.06245 -0.0014118 0)
(1.06267 -0.0011744 0)
(1.06286 -0.000932733 0)
(1.063 -0.000687088 0)
(1.0631 -0.000437803 0)
(1.06316 -0.000185237 0)
(1.06317 7.02126e-05 0)
(1.06312 0.000328134 0)
(1.06303 0.000588065 0)
(1.06287 0.000849539 0)
(1.06266 0.00111202 0)
(1.06239 0.00137501 0)
(1.06205 0.00163791 0)
(1.06165 0.00190019 0)
(1.06118 0.00216116 0)
(1.06064 0.00242033 0)
(1.06004 0.0026769 0)
(1.05935 0.00293043 0)
(1.05859 0.00317999 0)
(1.05775 0.0034253 0)
(1.05684 0.00366519 0)
(1.05583 0.00389968 0)
(1.05477 0.00412727 0)
(1.05358 0.00434844 0)
(1.05238 0.00456115 0)
(1.051 0.00476666 0)
(1.04965 0.00496208 0)
(1.04807 0.00514983 0)
(1.0466 0.00532575 0)
(1.04478 0.00549399 0)
(1.04322 0.00564847 0)
(1.04115 0.00579578 0)
(1.03954 0.00592719 0)
(1.03715 0.00605249 0)
(1.03557 0.00615947 0)
(1.0328 0.00626194 0)
(1.03135 0.00634338 0)
(1.02807 0.0064222 0)
(1.02692 0.00647721 0)
(1.02296 0.00653123 0)
(1.02232 0.00655913 0)
(1.01743 0.00658638 0)
(1.05266 -0.00673072 0)
(1.05326 -0.00658198 0)
(1.05386 -0.00642645 0)
(1.05445 -0.00626404 0)
(1.05504 -0.00609464 0)
(1.05562 -0.00591814 0)
(1.0562 -0.00573443 0)
(1.05677 -0.00554341 0)
(1.05733 -0.00534501 0)
(1.05788 -0.00513917 0)
(1.05842 -0.00492584 0)
(1.05895 -0.00470502 0)
(1.05946 -0.00447668 0)
(1.05996 -0.00424085 0)
(1.06044 -0.00399758 0)
(1.06089 -0.00374692 0)
(1.06133 -0.00348897 0)
(1.06174 -0.00322385 0)
(1.06213 -0.00295171 0)
(1.06248 -0.00267274 0)
(1.06281 -0.00238714 0)
(1.06311 -0.00209517 0)
(1.06337 -0.0017971 0)
(1.06359 -0.00149326 0)
(1.06377 -0.001184 0)
(1.06392 -0.000869702 0)
(1.06402 -0.000550806 0)
(1.06407 -0.000227771 0)
(1.06407 9.8889e-05 0)
(1.06402 0.000428646 0)
(1.06392 0.000760909 0)
(1.06376 0.00109507 0)
(1.06354 0.00143046 0)
(1.06326 0.00176643 0)
(1.06292 0.0021022 0)
(1.06251 0.0024371 0)
(1.06203 0.00277027 0)
(1.06148 0.00310104 0)
(1.06086 0.00342843 0)
(1.06016 0.00375184 0)
(1.0594 0.00407013 0)
(1.05854 0.00438286 0)
(1.05762 0.00468866 0)
(1.05659 0.00498742 0)
(1.05552 0.00527737 0)
(1.05432 0.00555894 0)
(1.0531 0.0058298 0)
(1.0517 0.00609119 0)
(1.05034 0.00633991 0)
(1.04874 0.00657847 0)
(1.04726 0.00680228 0)
(1.04543 0.00701576 0)
(1.04385 0.00721225 0)
(1.04176 0.00739887 0)
(1.04014 0.00756603 0)
(1.03774 0.00772444 0)
(1.03615 0.00786061 0)
(1.03335 0.00798982 0)
(1.0319 0.00809364 0)
(1.0286 0.00819272 0)
(1.02744 0.00826304 0)
(1.02346 0.00833068 0)
(1.02281 0.0083665 0)
(1.0179 0.0084004 0)
(1.05365 -0.00819346 0)
(1.05426 -0.00801172 0)
(1.05486 -0.0078217 0)
(1.05547 -0.00762329 0)
(1.05607 -0.00741636 0)
(1.05666 -0.00720077 0)
(1.05725 -0.0069764 0)
(1.05783 -0.00674314 0)
(1.05839 -0.00650089 0)
(1.05895 -0.00624958 0)
(1.0595 -0.00598918 0)
(1.06003 -0.00571966 0)
(1.06055 -0.00544101 0)
(1.06105 -0.00515326 0)
(1.06154 -0.00485647 0)
(1.062 -0.00455073 0)
(1.06244 -0.00423614 0)
(1.06285 -0.00391287 0)
(1.06324 -0.0035811 0)
(1.0636 -0.00324106 0)
(1.06393 -0.002893 0)
(1.06423 -0.00253725 0)
(1.06449 -0.00217414 0)
(1.06471 -0.00180407 0)
(1.06489 -0.00142747 0)
(1.06503 -0.00104482 0)
(1.06513 -0.00065666 0)
(1.06518 -0.000263546 0)
(1.06517 0.000133893 0)
(1.06512 0.000535005 0)
(1.06501 0.000939067 0)
(1.06484 0.00134534 0)
(1.06462 0.00175301 0)
(1.06433 0.00216126 0)
(1.06397 0.00256918 0)
(1.06355 0.00297593 0)
(1.06306 0.00338047 0)
(1.0625 0.00378197 0)
(1.06187 0.00417925 0)
(1.06115 0.00457157 0)
(1.06037 0.00495757 0)
(1.0595 0.00533668 0)
(1.05856 0.00570729 0)
(1.05752 0.00606918 0)
(1.05643 0.00642034 0)
(1.05521 0.00676112 0)
(1.05397 0.00708891 0)
(1.05256 0.00740497 0)
(1.05118 0.00770572 0)
(1.04956 0.00799387 0)
(1.04806 0.00826429 0)
(1.04621 0.00852182 0)
(1.04462 0.00875906 0)
(1.04251 0.00898385 0)
(1.04087 0.00918555 0)
(1.03845 0.00937605 0)
(1.03684 0.00954029 0)
(1.03403 0.00969537 0)
(1.03256 0.0098206 0)
(1.02924 0.00993924 0)
(1.02807 0.0100241 0)
(1.02407 0.0101049 0)
(1.02341 0.0101482 0)
(1.01847 0.0101884 0)
(1.05481 -0.00965329 0)
(1.05543 -0.00943822 0)
(1.05605 -0.00921339 0)
(1.05666 -0.00897866 0)
(1.05727 -0.00873387 0)
(1.05788 -0.00847888 0)
(1.05847 -0.00821352 0)
(1.05906 -0.00793769 0)
(1.05964 -0.00765127 0)
(1.06021 -0.0073542 0)
(1.06076 -0.00704641 0)
(1.06131 -0.00672789 0)
(1.06183 -0.00639865 0)
(1.06234 -0.00605872 0)
(1.06283 -0.00570817 0)
(1.0633 -0.0053471 0)
(1.06374 -0.00497567 0)
(1.06416 -0.00459406 0)
(1.06455 -0.0042025 0)
(1.06491 -0.00380126 0)
(1.06524 -0.00339065 0)
(1.06554 -0.00297106 0)
(1.0658 -0.00254289 0)
(1.06602 -0.0021066 0)
(1.0662 -0.00166273 0)
(1.06634 -0.00121185 0)
(1.06643 -0.000754569 0)
(1.06648 -0.00029158 0)
(1.06647 0.000176379 0)
(1.06641 0.000648534 0)
(1.06629 0.00112403 0)
(1.06611 0.001602 0)
(1.06587 0.00208146 0)
(1.06557 0.00256147 0)
(1.06521 0.00304094 0)
(1.06477 0.00351888 0)
(1.06427 0.00399408 0)
(1.06369 0.00446553 0)
(1.06304 0.00493188 0)
(1.06231 0.00539222 0)
(1.06151 0.005845 0)
(1.06062 0.00628949 0)
(1.05967 0.00672387 0)
(1.0586 0.0071478 0)
(1.0575 0.00755903 0)
(1.05625 0.00795786 0)
(1.055 0.00834135 0)
(1.05356 0.00871086 0)
(1.05216 0.00906238 0)
(1.05052 0.00939884 0)
(1.049 0.00971459 0)
(1.04713 0.0100149 0)
(1.04552 0.0102916 0)
(1.04338 0.0105533 0)
(1.04173 0.0107884 0)
(1.03928 0.0110098 0)
(1.03766 0.011201 0)
(1.03482 0.0113809 0)
(1.03334 0.0115266 0)
(1.02999 0.011664 0)
(1.02881 0.0117627 0)
(1.02478 0.011856 0)
(1.02412 0.0119063 0)
(1.01914 0.0119525 0)
(1.05613 -0.011114 0)
(1.05677 -0.0108651 0)
(1.0574 -0.010605 0)
(1.05803 -0.0103335 0)
(1.05865 -0.0100503 0)
(1.05926 -0.00975541 0)
(1.05987 -0.00944857 0)
(1.06047 -0.00912966 0)
(1.06106 -0.00879857 0)
(1.06164 -0.00845522 0)
(1.06221 -0.00809956 0)
(1.06276 -0.00773157 0)
(1.06329 -0.00735126 0)
(1.06381 -0.00695869 0)
(1.0643 -0.00655393 0)
(1.06478 -0.00613713 0)
(1.06523 -0.00570846 0)
(1.06565 -0.00526814 0)
(1.06605 -0.00481645 0)
(1.06641 -0.0043537 0)
(1.06674 -0.00388027 0)
(1.06704 -0.00339659 0)
(1.0673 -0.00290316 0)
(1.06752 -0.00240052 0)
(1.0677 -0.00188927 0)
(1.06783 -0.00137008 0)
(1.06792 -0.000843685 0)
(1.06796 -0.000310869 0)
(1.06794 0.000227506 0)
(1.06787 0.000770541 0)
(1.06774 0.00131725 0)
(1.06756 0.00186662 0)
(1.06731 0.00241753 0)
(1.06699 0.00296888 0)
(1.06661 0.00351942 0)
(1.06616 0.00406801 0)
(1.06564 0.00461324 0)
(1.06505 0.00515397 0)
(1.06438 0.00568864 0)
(1.06363 0.00621619 0)
(1.06281 0.00673485 0)
(1.0619 0.00724378 0)
(1.06093 0.00774092 0)
(1.05984 0.00822584 0)
(1.05871 0.00869601 0)
(1.05744 0.00915173 0)
(1.05616 0.00958972 0)
(1.0547 0.0100114 0)
(1.05328 0.0104124 0)
(1.05161 0.0107959 0)
(1.05007 0.0111557 0)
(1.04817 0.0114974 0)
(1.04653 0.0118123 0)
(1.04437 0.0121097 0)
(1.0427 0.0123767 0)
(1.04022 0.0126279 0)
(1.03858 0.0128449 0)
(1.03571 0.0130486 0)
(1.03422 0.0132137 0)
(1.03084 0.0133689 0)
(1.02965 0.0134807 0)
(1.02558 0.0135858 0)
(1.02492 0.0136428 0)
(1.0199 0.0136946 0)
(1.05762 -0.0125787 0)
(1.05826 -0.0122954 0)
(1.05891 -0.0119994 0)
(1.05955 -0.0116904 0)
(1.06019 -0.0113682 0)
(1.06082 -0.0110328 0)
(1.06144 -0.0106838 0)
(1.06205 -0.0103212 0)
(1.06266 -0.00994475 0)
(1.06325 -0.00955448 0)
(1.06382 -0.0091503 0)
(1.06438 -0.0087322 0)
(1.06493 -0.0083002 0)
(1.06545 -0.00785436 0)
(1.06596 -0.00739481 0)
(1.06644 -0.00692169 0)
(1.06689 -0.00643522 0)
(1.06732 -0.00593566 0)
(1.06772 -0.00542333 0)
(1.06809 -0.0048986 0)
(1.06842 -0.00436191 0)
(1.06872 -0.00381377 0)
(1.06898 -0.00325472 0)
(1.0692 -0.00268541 0)
(1.06937 -0.00210652 0)
(1.0695 -0.00151883 0)
(1.06958 -0.000923169 0)
(1.06961 -0.000320436 0)
(1.06959 0.000288384 0)
(1.06951 0.000902266 0)
(1.06937 0.00152008 0)
(1.06917 0.00214069 0)
(1.06891 0.00276281 0)
(1.06858 0.00338519 0)
(1.06818 0.00400642 0)
(1.06772 0.00462519 0)
(1.06718 0.00523993 0)
(1.06656 0.00584932 0)
(1.06588 0.00645163 0)
(1.0651 0.00704563 0)
(1.06426 0.00762935 0)
(1.06332 0.00820183 0)
(1.06233 0.00876075 0)
(1.06121 0.00930562 0)
(1.06006 0.00983364 0)
(1.05876 0.0103451 0)
(1.05746 0.0108364 0)
(1.05597 0.011309 0)
(1.05452 0.0117582 0)
(1.05282 0.0121874 0)
(1.05125 0.0125897 0)
(1.04933 0.0129716 0)
(1.04767 0.0133233 0)
(1.04548 0.013655 0)
(1.04378 0.0139527 0)
(1.04127 0.0142323 0)
(1.03962 0.0144739 0)
(1.03671 0.0147002 0)
(1.0352 0.0148837 0)
(1.03179 0.0150557 0)
(1.03059 0.0151798 0)
(1.02648 0.015296 0)
(1.02582 0.0153592 0)
(1.02075 0.0154162 0)
(1.05925 -0.0140502 0)
(1.05992 -0.0137318 0)
(1.06058 -0.0133991 0)
(1.06124 -0.0130519 0)
(1.06189 -0.01269 0)
(1.06254 -0.0123132 0)
(1.06317 -0.0119213 0)
(1.0638 -0.0115141 0)
(1.06442 -0.0110916 0)
(1.06502 -0.0106536 0)
(1.06561 -0.0102001 0)
(1.06618 -0.00973109 0)
(1.06673 -0.00924662 0)
(1.06726 -0.00874676 0)
(1.06778 -0.00823165 0)
(1.06826 -0.00770149 0)
(1.06873 -0.00715651 0)
(1.06916 -0.00659703 0)
(1.06956 -0.00602342 0)
(1.06993 -0.00543609 0)
(1.07027 -0.00483557 0)
(1.07057 -0.00422241 0)
(1.07083 -0.00359726 0)
(1.07104 -0.00296083 0)
(1.07121 -0.00231392 0)
(1.07134 -0.00165739 0)
(1.07141 -0.000992189 0)
(1.07143 -0.000319325 0)
(1.0714 0.000360088 0)
(1.07131 0.0010449 0)
(1.07116 0.00173383 0)
(1.07095 0.0024256 0)
(1.07067 0.00311879 0)
(1.07032 0.00381199 0)
(1.06991 0.00450361 0)
(1.06942 0.00519218 0)
(1.06887 0.00587596 0)
(1.06823 0.00655348 0)
(1.06752 0.00722279 0)
(1.06672 0.00788254 0)
(1.06586 0.00853053 0)
(1.06489 0.00916568 0)
(1.06387 0.00978544 0)
(1.06273 0.0103892 0)
(1.06154 0.010974 0)
(1.06022 0.01154 0)
(1.05888 0.0120833 0)
(1.05736 0.0126057 0)
(1.05589 0.0131017 0)
(1.05416 0.0135752 0)
(1.05256 0.0140188 0)
(1.0506 0.0144394 0)
(1.04891 0.0148264 0)
(1.04669 0.015191 0)
(1.04497 0.0155181 0)
(1.04243 0.0158248 0)
(1.04075 0.0160896 0)
(1.03781 0.0163373 0)
(1.03628 0.0165382 0)
(1.03283 0.016726 0)
(1.03162 0.0168616 0)
(1.02748 0.0169881 0)
(1.0268 0.0170571 0)
(1.02169 0.0171187 0)
(1.06104 -0.0155311 0)
(1.06173 -0.0151767 0)
(1.06241 -0.0148064 0)
(1.06308 -0.0144201 0)
(1.06375 -0.0140176 0)
(1.06441 -0.0135985 0)
(1.06506 -0.0131628 0)
(1.0657 -0.0127101 0)
(1.06633 -0.0122406 0)
(1.06695 -0.0117539 0)
(1.06755 -0.0112502 0)
(1.06813 -0.0107293 0)
(1.0687 -0.0101915 0)
(1.06924 -0.0096367 0)
(1.06976 -0.00906515 0)
(1.07026 -0.00847707 0)
(1.07073 -0.00787275 0)
(1.07117 -0.00725253 0)
(1.07157 -0.00661684 0)
(1.07195 -0.00596618 0)
(1.07228 -0.00530111 0)
(1.07258 -0.00462227 0)
(1.07284 -0.0039304 0)
(1.07305 -0.0032263 0)
(1.07322 -0.00251085 0)
(1.07334 -0.00178503 0)
(1.0734 -0.0010499 0)
(1.07342 -0.000306586 0)
(1.07337 0.00044367 0)
(1.07327 0.00119958 0)
(1.07311 0.00195973 0)
(1.07288 0.0027227 0)
(1.07259 0.00348689 0)
(1.07222 0.00425076 0)
(1.07179 0.00501254 0)
(1.07128 0.00577061 0)
(1.0707 0.00652303 0)
(1.07004 0.00726819 0)
(1.0693 0.00800393 0)
(1.06848 0.00872875 0)
(1.06759 0.00944025 0)
(1.06659 0.0101372 0)
(1.06554 0.0108169 0)
(1.06437 0.0114786 0)
(1.06315 0.012119 0)
(1.0618 0.0127384 0)
(1.06043 0.0133326 0)
(1.05888 0.0139033 0)
(1.05737 0.0144448 0)
(1.0556 0.0149613 0)
(1.05397 0.0154447 0)
(1.05198 0.0159025 0)
(1.05027 0.0163234 0)
(1.04801 0.0167195 0)
(1.04626 0.0170745 0)
(1.04368 0.0174069 0)
(1.04198 0.0176937 0)
(1.039 0.0179615 0)
(1.03746 0.0181785 0)
(1.03397 0.0183811 0)
(1.03274 0.0185273 0)
(1.02855 0.0186633 0)
(1.02787 0.0187376 0)
(1.02271 0.0188033 0)
(1.06297 -0.0170236 0)
(1.06368 -0.0166322 0)
(1.06438 -0.0162234 0)
(1.06507 -0.015797 0)
(1.06576 -0.0153527 0)
(1.06644 -0.0148904 0)
(1.06711 -0.0144097 0)
(1.06776 -0.0139106 0)
(1.06841 -0.0133929 0)
(1.06904 -0.0128566 0)
(1.06965 -0.0123015 0)
(1.07025 -0.0117278 0)
(1.07082 -0.0111355 0)
(1.07138 -0.0105248 0)
(1.07191 -0.00989579 0)
(1.07241 -0.00924881 0)
(1.07289 -0.00858417 0)
(1.07333 -0.00790227 0)
(1.07374 -0.00720361 0)
(1.07412 -0.00648874 0)
(1.07446 -0.0057583 0)
(1.07476 -0.00501302 0)
(1.07501 -0.0042537 0)
(1.07522 -0.00348125 0)
(1.07538 -0.00269666 0)
(1.07549 -0.001901 0)
(1.07555 -0.00109545 0)
(1.07556 -0.000281279 0)
(1.0755 0.00054016 0)
(1.07538 0.00136743 0)
(1.07521 0.00219898 0)
(1.07496 0.00303324 0)
(1.07465 0.00386846 0)
(1.07426 0.00470292 0)
(1.07381 0.00553469 0)
(1.07328 0.00636199 0)
(1.07267 0.0071827 0)
(1.07198 0.00799504 0)
(1.07122 0.00879666 0)
(1.07037 0.00958592 0)
(1.06945 0.0103602 0)
(1.06842 0.0111182 0)
(1.06733 0.0118568 0)
(1.06613 0.0125754 0)
(1.06488 0.0132704 0)
(1.06349 0.0139421 0)
(1.06209 0.0145858 0)
(1.0605 0.0152035 0)
(1.05896 0.0157892 0)
(1.05716 0.0163472 0)
(1.05549 0.0168689 0)
(1.05346 0.0173625 0)
(1.05172 0.0178158 0)
(1.04942 0.0182418 0)
(1.04764 0.0186232 0)
(1.04503 0.0189798 0)
(1.0433 0.0192872 0)
(1.04028 0.0195738 0)
(1.03871 0.0198058 0)
(1.03518 0.020022 0)
(1.03394 0.020178 0)
(1.02971 0.0203227 0)
(1.02902 0.0204017 0)
(1.0238 0.0204711 0)
(1.06505 -0.0185295 0)
(1.06577 -0.0181001 0)
(1.06649 -0.0176517 0)
(1.06721 -0.0171841 0)
(1.06791 -0.016697 0)
(1.06861 -0.0161902 0)
(1.0693 -0.0156635 0)
(1.06997 -0.0151167 0)
(1.07063 -0.0145497 0)
(1.07128 -0.0139625 0)
(1.07191 -0.013355 0)
(1.07252 -0.0127272 0)
(1.0731 -0.0120793 0)
(1.07367 -0.0114115 0)
(1.07421 -0.0107239 0)
(1.07472 -0.0100169 0)
(1.0752 -0.00929088 0)
(1.07565 -0.00854627 0)
(1.07607 -0.00778362 0)
(1.07645 -0.00700358 0)
(1.07678 -0.00620684 0)
(1.07708 -0.00539423 0)
(1.07734 -0.00456665 0)
(1.07754 -0.00372509 0)
(1.0777 -0.00287065 0)
(1.0778 -0.00200452 0)
(1.07785 -0.001128 0)
(1.07784 -0.000242462 0)
(1.07777 0.000650571 0)
(1.07764 0.00154953 0)
(1.07745 0.00245273 0)
(1.07718 0.00335844 0)
(1.07685 0.00426475 0)
(1.07645 0.00516977 0)
(1.07597 0.00607142 0)
(1.07541 0.00696774 0)
(1.07478 0.00785642 0)
(1.07406 0.00873553 0)
(1.07327 0.00960251 0)
(1.07238 0.0104556 0)
(1.07143 0.0112919 0)
(1.07037 0.0121101 0)
(1.06925 0.0129068 0)
(1.06801 0.0136813 0)
(1.06673 0.0144298 0)
(1.0653 0.0151524 0)
(1.06386 0.0158445 0)
(1.06223 0.0165079 0)
(1.06065 0.0171363 0)
(1.05881 0.0177343 0)
(1.05711 0.0182929 0)
(1.05504 0.0188207 0)
(1.05326 0.0193048 0)
(1.05092 0.0197592 0)
(1.04911 0.0201654 0)
(1.04646 0.0205448 0)
(1.0447 0.0208713 0)
(1.04165 0.0211753 0)
(1.04006 0.0214212 0)
(1.03648 0.0216498 0)
(1.03522 0.0218146 0)
(1.03094 0.0219671 0)
(1.03024 0.0220504 0)
(1.02497 0.0221229 0)
(1.06726 -0.0200507 0)
(1.06801 -0.019582 0)
(1.06875 -0.0190928 0)
(1.06949 -0.0185827 0)
(1.07021 -0.0180516 0)
(1.07093 -0.0174991 0)
(1.07163 -0.0169251 0)
(1.07233 -0.0163293 0)
(1.073 -0.0157118 0)
(1.07367 -0.0150724 0)
(1.07431 -0.0144111 0)
(1.07493 -0.013728 0)
(1.07553 -0.0130233 0)
(1.07611 -0.0122971 0)
(1.07666 -0.0115497 0)
(1.07718 -0.0107815 0)
(1.07767 -0.00999287 0)
(1.07812 -0.00918439 0)
(1.07854 -0.00835666 0)
(1.07892 -0.00751037 0)
(1.07926 -0.00664633 0)
(1.07956 -0.00576543 0)
(1.07981 -0.00486867 0)
(1.08001 -0.00395716 0)
(1.08016 -0.0030321 0)
(1.08025 -0.00209479 0)
(1.08029 -0.00114667 0)
(1.08027 -0.000189212 0)
(1.08019 0.000775896 0)
(1.08004 0.00174694 0)
(1.07983 0.00272209 0)
(1.07955 0.00369946 0)
(1.07919 0.00467697 0)
(1.07876 0.00565258 0)
(1.07826 0.00662401 0)
(1.07767 0.00758917 0)
(1.07701 0.00854554 0)
(1.07626 0.00949102 0)
(1.07544 0.0104229 0)
(1.07452 0.0113392 0)
(1.07353 0.0122369 0)
(1.07243 0.0131144 0)
(1.07128 0.0139683 0)
(1.07 0.0147977 0)
(1.06868 0.0155984 0)
(1.06721 0.0163709 0)
(1.06573 0.01711 0)
(1.06406 0.0178178 0)
(1.06244 0.0184874 0)
(1.06056 0.0191239 0)
(1.05882 0.0197178 0)
(1.05671 0.0202782 0)
(1.05489 0.0207915 0)
(1.05251 0.0212727 0)
(1.05067 0.0217023 0)
(1.04797 0.0221028 0)
(1.04619 0.022447 0)
(1.04309 0.022767 0)
(1.04148 0.0230253 0)
(1.03786 0.0232652 0)
(1.03658 0.0234378 0)
(1.03225 0.0235972 0)
(1.03154 0.0236842 0)
(1.02622 0.0237594 0)
(1.06961 -0.0215885 0)
(1.07038 -0.0210794 0)
(1.07114 -0.020548 0)
(1.0719 -0.0199941 0)
(1.07265 -0.0194176 0)
(1.07339 -0.018818 0)
(1.07411 -0.0181953 0)
(1.07482 -0.0175493 0)
(1.07552 -0.0168797 0)
(1.0762 -0.0161868 0)
(1.07686 -0.0154703 0)
(1.07749 -0.0147305 0)
(1.07811 -0.0139676 0)
(1.07869 -0.0131817 0)
(1.07925 -0.0123732 0)
(1.07978 -0.0115424 0)
(1.08028 -0.01069 0)
(1.08074 -0.0098164 0)
(1.08116 -0.00892239 0)
(1.08154 -0.00800872 0)
(1.08188 -0.00707628 0)
(1.08218 -0.00612606 0)
(1.08242 -0.00515915 0)
(1.08262 -0.00417678 0)
(1.08276 -0.00318024 0)
(1.08285 -0.002171 0)
(1.08287 -0.00115058 0)
(1.08284 -0.000120603 0)
(1.08274 0.00091704 0)
(1.08258 0.00196062 0)
(1.08234 0.0030081 0)
(1.08204 0.00405739 0)
(1.08166 0.00510626 0)
(1.0812 0.0061525 0)
(1.08067 0.00719368 0)
(1.08006 0.00822752 0)
(1.07937 0.0092513 0)
(1.07859 0.0102628 0)
(1.07773 0.011259 0)
(1.07677 0.0122379 0)
(1.07575 0.0131963 0)
(1.07461 0.0141324 0)
(1.07341 0.0150425 0)
(1.07209 0.0159257 0)
(1.07073 0.0167777 0)
(1.06922 0.0175988 0)
(1.0677 0.0183835 0)
(1.06599 0.0191343 0)
(1.06433 0.0198437 0)
(1.0624 0.0205172 0)
(1.06062 0.0211448 0)
(1.05846 0.0217362 0)
(1.05661 0.022277 0)
(1.05419 0.0227833 0)
(1.05231 0.0232345 0)
(1.04957 0.0236546 0)
(1.04775 0.0240149 0)
(1.04461 0.0243494 0)
(1.04297 0.0246189 0)
(1.03931 0.0248688 0)
(1.03801 0.0250483 0)
(1.03363 0.0252136 0)
(1.03292 0.0253038 0)
(1.02753 0.0253811 0)
(1.07209 -0.0231442 0)
(1.07288 -0.0225932 0)
(1.07367 -0.0220183 0)
(1.07445 -0.0214192 0)
(1.07522 -0.0207958 0)
(1.07598 -0.0201478 0)
(1.07673 -0.0194749 0)
(1.07746 -0.018777 0)
(1.07817 -0.018054 0)
(1.07887 -0.017306 0)
(1.07954 -0.0165329 0)
(1.08019 -0.0157349 0)
(1.08082 -0.0149123 0)
(1.08142 -0.0140653 0)
(1.08199 -0.0131942 0)
(1.08253 -0.0122996 0)
(1.08303 -0.0113819 0)
(1.08349 -0.010442 0)
(1.08392 -0.0094804 0)
(1.0843 -0.00849814 0)
(1.08464 -0.00749614 0)
(1.08494 -0.00647549 0)
(1.08518 -0.0054374 0)
(1.08537 -0.00438319 0)
(1.0855 -0.0033143 0)
(1.08557 -0.00223231 0)
(1.08559 -0.00113885 0)
(1.08554 -3.58214e-05 0)
(1.08542 0.00107504 0)
(1.08524 0.00219168 0)
(1.08499 0.00331185 0)
(1.08466 0.00443333 0)
(1.08425 0.00555372 0)
(1.08377 0.00667068 0)
(1.08321 0.00778157 0)
(1.08256 0.00888393 0)
(1.08184 0.00997488 0)
(1.08102 0.011052 0)
(1.08013 0.0121121 0)
(1.07913 0.0131531 0)
(1.07807 0.0141714 0)
(1.07689 0.0151652 0)
(1.07565 0.0161306 0)
(1.07429 0.0170666 0)
(1.07288 0.0179687 0)
(1.07133 0.0188372 0)
(1.06976 0.0196662 0)
(1.068 0.0204584 0)
(1.0663 0.0212061 0)
(1.06433 0.0219151 0)
(1.06251 0.0225747 0)
(1.0603 0.0231954 0)
(1.05841 0.0237621 0)
(1.05594 0.0242918 0)
(1.05403 0.0247629 0)
(1.05124 0.025201 0)
(1.04939 0.0255758 0)
(1.0462 0.0259233 0)
(1.04454 0.0262025 0)
(1.04082 0.0264612 0)
(1.03951 0.0266464 0)
(1.03508 0.0268168 0)
(1.03435 0.0269096 0)
(1.0289 0.0269884 0)
(1.07469 -0.0247189 0)
(1.07552 -0.0241245 0)
(1.07633 -0.0235045 0)
(1.07714 -0.0228588 0)
(1.07793 -0.0221869 0)
(1.07871 -0.0214888 0)
(1.07948 -0.0207641 0)
(1.08023 -0.0200128 0)
(1.08096 -0.0192348 0)
(1.08167 -0.0184302 0)
(1.08237 -0.0175989 0)
(1.08303 -0.0167412 0)
(1.08367 -0.0158574 0)
(1.08428 -0.0149477 0)
(1.08486 -0.0140126 0)
(1.08541 -0.0130526 0)
(1.08592 -0.0120684 0)
(1.08639 -0.0110606 0)
(1.08682 -0.0100302 0)
(1.0872 -0.00897805 0)
(1.08754 -0.00790528 0)
(1.08783 -0.00681306 0)
(1.08806 -0.0057027 0)
(1.08825 -0.00457564 0)
(1.08837 -0.00343346 0)
(1.08843 -0.00227782 0)
(1.08843 -0.00111057 0)
(1.08837 6.6337e-05 0)
(1.08823 0.001251 0)
(1.08803 0.00244112 0)
(1.08775 0.00363432 0)
(1.0874 0.00482827 0)
(1.08697 0.00602038 0)
(1.08645 0.00720814 0)
(1.08586 0.00838871 0)
(1.08518 0.00955947 0)
(1.08442 0.0107173 0)
(1.08357 0.0118597 0)
(1.08263 0.0129833 0)
(1.0816 0.0140857 0)
(1.08049 0.0151632 0)
(1.07927 0.0162139 0)
(1.07799 0.0172336 0)
(1.07658 0.0182215 0)
(1.07513 0.0191724 0)
(1.07352 0.020087 0)
(1.07191 0.020959 0)
(1.0701 0.0217912 0)
(1.06835 0.0225756 0)
(1.06633 0.0233184 0)
(1.06447 0.0240083 0)
(1.06222 0.0246566 0)
(1.06028 0.0252474 0)
(1.05776 0.0257988 0)
(1.05581 0.0262881 0)
(1.05298 0.0267423 0)
(1.0511 0.02713 0)
(1.04786 0.027489 0)
(1.04617 0.0277766 0)
(1.0424 0.0280427 0)
(1.04108 0.0282327 0)
(1.03659 0.0284071 0)
(1.03585 0.0285019 0)
(1.03034 0.0285817 0)
(1.07743 -0.0263133 0)
(1.07828 -0.025674 0)
(1.07912 -0.0250074 0)
(1.07995 -0.0243132 0)
(1.08077 -0.0235914 0)
(1.08157 -0.0228415 0)
(1.08236 -0.0220634 0)
(1.08313 -0.021257 0)
(1.08388 -0.0204224 0)
(1.08461 -0.0195594 0)
(1.08532 -0.0186683 0)
(1.086 -0.0177492 0)
(1.08666 -0.0168025 0)
(1.08728 -0.0158286 0)
(1.08787 -0.0148279 0)
(1.08842 -0.0138011 0)
(1.08894 -0.0127488 0)
(1.08941 -0.0116718 0)
(1.08984 -0.0105711 0)
(1.09023 -0.00944782 0)
(1.09057 -0.00830302 0)
(1.09085 -0.00713803 0)
(1.09108 -0.00595428 0)
(1.09125 -0.00475333 0)
(1.09137 -0.00353687 0)
(1.09142 -0.00230671 0)
(1.0914 -0.00106483 0)
(1.09132 0.000186748 0)
(1.09116 0.00144571 0)
(1.09094 0.00270976 0)
(1.09063 0.00397642 0)
(1.09025 0.00524317 0)
(1.08979 0.00650722 0)
(1.08925 0.00776587 0)
(1.08862 0.0090161 0)
(1.08791 0.0102551 0)
(1.08711 0.0114797 0)
(1.08621 0.012687 0)
(1.08524 0.0138735 0)
(1.08416 0.0150367 0)
(1.08301 0.0161727 0)
(1.08174 0.0172795 0)
(1.08041 0.0183526 0)
(1.07896 0.0193911 0)
(1.07746 0.0203897 0)
(1.0758 0.0213491 0)
(1.07414 0.0222626 0)
(1.07229 0.0231334 0)
(1.07049 0.0239529 0)
(1.06841 0.0247278 0)
(1.0665 0.0254464 0)
(1.0642 0.0261205 0)
(1.06222 0.0267336 0)
(1.05965 0.0273047 0)
(1.05766 0.0278105 0)
(1.05478 0.0282792 0)
(1.05287 0.0286781 0)
(1.04958 0.0290468 0)
(1.04786 0.0293413 0)
(1.04405 0.0296135 0)
(1.0427 0.0298071 0)
(1.03816 0.0299847 0)
(1.03742 0.0300808 0)
(1.03184 0.0301611 0)
(1.08028 -0.0279282 0)
(1.08116 -0.0272423 0)
(1.08203 -0.0265273 0)
(1.08289 -0.025783 0)
(1.08373 -0.0250094 0)
(1.08456 -0.024206 0)
(1.08537 -0.0233728 0)
(1.08616 -0.0225096 0)
(1.08693 -0.0216165 0)
(1.08768 -0.0206935 0)
(1.08841 -0.0197408 0)
(1.0891 -0.0187587 0)
(1.08977 -0.0177475 0)
(1.09041 -0.0167077 0)
(1.091 -0.0156398 0)
(1.09157 -0.0145445 0)
(1.09209 -0.0134226 0)
(1.09257 -0.0122749 0)
(1.093 -0.0111026 0)
(1.09338 -0.00990674 0)
(1.09372 -0.00868861 0)
(1.094 -0.00744963 0)
(1.09422 -0.00619134 0)
(1.09438 -0.00491543 0)
(1.09448 -0.00362371 0)
(1.09452 -0.00231814 0)
(1.09449 -0.00100083 0)
(1.09438 0.000326013 0)
(1.09421 0.00165995 0)
(1.09396 0.00299854 0)
(1.09363 0.00433911 0)
(1.09322 0.00567896 0)
(1.09273 0.00701515 0)
(1.09215 0.00834479 0)
(1.09149 0.00966466 0)
(1.09073 0.0109718 0)
(1.0899 0.0122628 0)
(1.08896 0.0135346 0)
(1.08794 0.0147836 0)
(1.08682 0.016007 0)
(1.08562 0.0172008 0)
(1.08431 0.0183627 0)
(1.08293 0.0194883 0)
(1.08142 0.0205763 0)
(1.07987 0.0216214 0)
(1.07816 0.0226242 0)
(1.07645 0.0235779 0)
(1.07454 0.0244857 0)
(1.07269 0.0253387 0)
(1.07057 0.026144 0)
(1.06861 0.0268894 0)
(1.06625 0.0275875 0)
(1.06423 0.0282211 0)
(1.06161 0.0288102 0)
(1.05958 0.0293305 0)
(1.05664 0.0298118 0)
(1.0547 0.0302202 0)
(1.05136 0.0305971 0)
(1.04962 0.030897 0)
(1.04575 0.0311739 0)
(1.04438 0.03137 0)
(1.03978 0.0315496 0)
(1.03903 0.0316464 0)
(1.03339 0.0317266 0)
(1.08326 -0.0295639 0)
(1.08417 -0.0288296 0)
(1.08506 -0.0280644 0)
(1.08595 -0.0272683 0)
(1.08681 -0.026441 0)
(1.08767 -0.0255824 0)
(1.0885 -0.0246922 0)
(1.08932 -0.0237703 0)
(1.09011 -0.0228169 0)
(1.09088 -0.0218321 0)
(1.09162 -0.0208161 0)
(1.09233 -0.0197691 0)
(1.09301 -0.0186917 0)
(1.09366 -0.0175843 0)
(1.09427 -0.0164475 0)
(1.09484 -0.0152822 0)
(1.09536 -0.0140891 0)
(1.09584 -0.0128693 0)
(1.09628 -0.0116238 0)
(1.09666 -0.010354 0)
(1.09699 -0.00906127 0)
(1.09726 -0.00774706 0)
(1.09748 -0.00641306 0)
(1.09763 -0.0050611 0)
(1.09772 -0.00369313 0)
(1.09774 -0.00231124 0)
(1.09769 -0.000917689 0)
(1.09756 0.00048515 0)
(1.09737 0.0018947 0)
(1.09709 0.00330834 0)
(1.09673 0.00472323 0)
(1.09629 0.00613651 0)
(1.09576 0.00754503 0)
(1.09515 0.00894574 0)
(1.09445 0.0103352 0)
(1.09366 0.0117104 0)
(1.09278 0.0130675 0)
(1.0918 0.0144035 0)
(1.09073 0.0157144 0)
(1.08956 0.0169974 0)
(1.08832 0.0182481 0)
(1.08695 0.0194645 0)
(1.08552 0.0206414 0)
(1.08396 0.0217779 0)
(1.08236 0.0228682 0)
(1.0806 0.0239131 0)
(1.07883 0.0249054 0)
(1.07687 0.0258486 0)
(1.07497 0.0267334 0)
(1.07279 0.0275674 0)
(1.07078 0.0283378 0)
(1.06837 0.0290581 0)
(1.0663 0.0297102 0)
(1.06362 0.0303154 0)
(1.06155 0.0308484 0)