/*--------------------------------*- C++ -*----------------------------------*\
  =========                 |
  \\      /  F ield         | OpenFOAM: The Open Source CFD Toolbox
   \\    /   O peration     | Website:  https://openfoam.org
    \\  /    A nd           | Version:  7
     \\/     M anipulation  |
\*---------------------------------------------------------------------------*/
FoamFile
{
    version     2.0;
    format      ascii;
    class       volVectorField;
    location    "11.000598";
    object      U;
}
// * * * * * * * * * * * * * * * * * * * * * * * * * * * * * * * * * * * * * //

dimensions      [0 1 -1 0 0 0 0];

internalField   nonuniform List<vector> 
5800
(
(0.017591 -0.00342458 -4.6152e-22)
(0.023915 -0.0102274 -1.41737e-20)
(0.0365301 -0.0168894 2.10253e-20)
(0.0553693 -0.0233111 6.77115e-21)
(0.0803281 -0.0293859 -1.78856e-20)
(0.0253111 -0.00307293 2.63279e-21)
(0.0303038 -0.0029021 2.42185e-21)
(0.0351465 -0.00280282 -4.51035e-21)
(0.0399769 -0.00274391 2.13689e-21)
(0.0448367 -0.00271326 -1.23726e-21)
(0.0497645 -0.00270524 -4.21634e-22)
(0.0547996 -0.00271474 2.40954e-21)
(0.0599738 -0.00273747 -3.47681e-21)
(0.065313 -0.00277018 1.51719e-21)
(0.070839 -0.00281031 1.38875e-21)
(0.0765702 -0.00285579 -2.85269e-21)
(0.0825222 -0.00290487 -4.06782e-23)
(0.0887078 -0.00295609 2.28885e-21)
(0.0951375 -0.00300817 -1.79818e-22)
(0.10182 -0.00306005 -9.32392e-22)
(0.108761 -0.00311077 8.14553e-22)
(0.115965 -0.00315956 -3.83102e-22)
(0.123436 -0.00320575 5.12246e-22)
(0.131174 -0.00324879 -3.77071e-22)
(0.139179 -0.00328825 -2.48548e-22)
(0.14745 -0.0033238 1.05668e-21)
(0.155985 -0.00335521 -3.16724e-22)
(0.16478 -0.00338234 -6.86383e-22)
(0.173831 -0.00340511 4.47239e-22)
(0.183133 -0.00342353 1.3974e-22)
(0.192681 -0.00343767 -5.31821e-22)
(0.20247 -0.00344764 6.05317e-22)
(0.212494 -0.00345362 -4.89312e-22)
(0.222746 -0.00345581 -3.30105e-22)
(0.233223 -0.00345444 9.48311e-22)
(0.243917 -0.00344977 -6.49882e-22)
(0.254823 -0.0034421 -1.05747e-22)
(0.265938 -0.00343172 1.31519e-22)
(0.277257 -0.00341894 7.13218e-24)
(0.288775 -0.00340407 3.16178e-22)
(0.300491 -0.00338741 -4.06938e-22)
(0.312401 -0.00336928 3.37334e-22)
(0.324505 -0.00334995 -3.69016e-24)
(0.336801 -0.0033297 -1.97756e-23)
(0.34929 -0.00330878 -3.45023e-23)
(0.361972 -0.0032874 2.08191e-22)
(0.374848 -0.00326575 -8.63281e-24)
(0.387922 -0.00324395 -8.17615e-23)
(0.401194 -0.00322212 -3.57279e-23)
(0.414669 -0.00320031 1.9605e-23)
(0.428348 -0.0031785 -9.97604e-23)
(0.442236 -0.00315665 1.22136e-22)
(0.456333 -0.00313466 -3.04596e-23)
(0.470644 -0.00311238 5.99497e-23)
(0.485168 -0.00308961 -1.97286e-23)
(0.499906 -0.00306611 1.46525e-24)
(0.514857 -0.00304163 5.97518e-24)
(0.530017 -0.00301589 -2.76386e-23)
(0.545383 -0.00298862 2.79444e-23)
(0.560947 -0.00295952 -2.21619e-23)
(0.576701 -0.00292833 1.88715e-24)
(0.592633 -0.00289483 9.26254e-24)
(0.608733 -0.00285882 -5.71191e-25)
(0.62498 -0.00282017 -1.43607e-24)
(0.641373 -0.00277873 -1.44082e-25)
(0.657856 -0.00273461 3.464e-25)
(0.674496 -0.00268743 -2.00516e-24)
(0.691085 -0.00263825 2.81545e-24)
(0.707999 -0.00258456 2.82072e-24)
(0.72438 -0.00253275 -2.62246e-24)
(0.741936 -0.00246793 8.60789e-24)
(0.75711 -0.00242433 -3.3509e-24)
(0.776965 -0.00232704 4.11102e-24)
(0.787489 -0.00233001 -3.19137e-25)
(0.815774 -0.00215239 -2.03281e-24)
(0.0317732 -0.0091745 -1.01295e-21)
(0.03666 -0.00867138 -1.72752e-21)
(0.0414113 -0.00837975 -1.59672e-21)
(0.046184 -0.00820598 2.56781e-22)
(0.0509955 -0.00811571 -1.09314e-21)
(0.0558783 -0.00809277 8.93345e-21)
(0.0608718 -0.00812196 -6.48442e-21)
(0.0660069 -0.0081906 4.6739e-21)
(0.0713086 -0.008289 -3.57099e-21)
(0.0767979 -0.00840958 -2.33395e-21)
(0.0824928 -0.00854611 2.36187e-21)
(0.0884083 -0.00869337 2.27861e-21)
(0.094557 -0.00884695 -5.07064e-21)
(0.100949 -0.00900308 1.16101e-21)
(0.107592 -0.00915849 -2.00821e-21)
(0.114493 -0.00931041 2.0917e-21)
(0.121655 -0.00945646 -4.84416e-22)
(0.129081 -0.00959467 3.71575e-21)
(0.136773 -0.00972341 -1.55516e-21)
(0.144729 -0.0098414 4.95402e-22)
(0.152949 -0.00994766 7.7538e-22)
(0.161429 -0.0100415 -2.45656e-21)
(0.170167 -0.0101225 3.01749e-22)
(0.179158 -0.0101905 -3.62654e-22)
(0.188398 -0.0102455 9.58736e-24)
(0.197881 -0.0102877 2.7385e-22)
(0.207602 -0.0103174 1.06064e-21)
(0.217556 -0.0103352 -3.74163e-22)
(0.227736 -0.0103417 -7.8601e-22)
(0.238138 -0.0103376 1.42605e-21)
(0.248755 -0.0103236 -2.35803e-21)
(0.259583 -0.0103006 5.92482e-22)
(0.270618 -0.0102696 1.89651e-21)
(0.281854 -0.0102313 -1.2569e-21)
(0.293289 -0.0101868 -4.82371e-22)
(0.304919 -0.010137 7.18934e-22)
(0.316742 -0.0100828 -1.16603e-21)
(0.328758 -0.010025 1.62429e-21)
(0.340964 -0.00996451 -6.7757e-22)
(0.353362 -0.00990196 -1.838e-22)
(0.365951 -0.00983804 1.41004e-22)
(0.378734 -0.00977329 -2.47212e-24)
(0.391712 -0.00970813 6.43637e-23)
(0.404888 -0.00964286 -2.43681e-23)
(0.418265 -0.00957762 1.4241e-22)
(0.431846 -0.0095124 -8.56521e-23)
(0.445634 -0.00944706 1.41254e-22)
(0.45963 -0.00938129 -1.96879e-22)
(0.473838 -0.00931464 -4.27724e-23)
(0.488258 -0.00924652 -6.0097e-23)
(0.502891 -0.00917624 1.62277e-22)
(0.517736 -0.00910304 -1.81168e-22)
(0.532789 -0.00902607 -3.93401e-23)
(0.548045 -0.0089445 4.67004e-23)
(0.5635 -0.00885747 -7.84806e-24)
(0.579143 -0.00876421 -9.22211e-24)
(0.594964 -0.00866403 -3.55672e-24)
(0.610952 -0.00855635 1.29456e-24)
(0.627086 -0.00844076 -7.76956e-24)
(0.643367 -0.00831688 1.8663e-24)
(0.659738 -0.00818496 -1.97131e-24)
(0.676265 -0.00804391 3.12038e-26)
(0.692743 -0.00789688 -8.68252e-24)
(0.709547 -0.00773638 6.09957e-24)
(0.725819 -0.00758155 9.30647e-25)
(0.743266 -0.00738779 9.89401e-25)
(0.75834 -0.00725757 -2.28155e-24)
(0.77808 -0.00696673 6.18905e-24)
(0.788531 -0.00697567 -6.16672e-25)
(0.81666 -0.00644511 1.71671e-23)
(0.0446552 -0.0151421 4.13731e-23)
(0.0493302 -0.0143342 5.26196e-21)
(0.0538971 -0.0138688 9.8719e-22)
(0.058552 -0.0135893 -1.02225e-20)
(0.0632643 -0.0134448 -6.14544e-21)
(0.068055 -0.0134104 5.65224e-21)
(0.0729631 -0.0134616 1.27866e-20)
(0.0780183 -0.0135777 -7.08212e-21)
(0.0832433 -0.0137428 -2.58737e-21)
(0.0886579 -0.0139445 1.45174e-21)
(0.0942789 -0.0141725 3.12029e-21)
(0.100121 -0.0144181 -4.23713e-21)
(0.106195 -0.0146739 4.60394e-21)
(0.11251 -0.0149337 -3.9821e-21)
(0.119075 -0.0151921 7.62893e-21)
(0.125893 -0.0154445 -7.24859e-21)
(0.13297 -0.0156869 1.20713e-21)
(0.140307 -0.0159161 -9.33712e-21)
(0.147904 -0.0161294 3.48973e-21)
(0.155761 -0.0163247 -2.33106e-21)
(0.163877 -0.0165006 1.11724e-21)
(0.172248 -0.0166558 8.17543e-21)
(0.180871 -0.0167896 -4.32525e-21)
(0.189742 -0.0169019 1.40201e-21)
(0.198857 -0.0169926 -3.68801e-21)
(0.20821 -0.0170622 3.10841e-21)
(0.217795 -0.0171111 -4.11277e-21)
(0.227609 -0.0171403 1.75574e-21)
(0.237644 -0.0171508 -4.50718e-22)
(0.247897 -0.0171437 1.25711e-21)
(0.258361 -0.0171204 1.17968e-21)
(0.269032 -0.0170822 1.49062e-21)
(0.279906 -0.0170306 -1.30132e-21)
(0.290978 -0.0169672 2.35088e-22)
(0.302245 -0.0168935 -6.23983e-22)
(0.313705 -0.016811 1.16419e-21)
(0.325355 -0.0167211 -6.34968e-22)
(0.337195 -0.0166254 2.72828e-22)
(0.349222 -0.0165252 -1.24414e-21)
(0.361439 -0.0164216 2.7785e-22)
(0.373844 -0.0163157 4.41027e-22)
(0.386441 -0.0162085 -7.87591e-22)
(0.399231 -0.0161006 5.88887e-22)
(0.412216 -0.0159925 6.12765e-22)
(0.425399 -0.0158844 -4.07612e-22)
(0.438784 -0.0157765 -1.13635e-22)
(0.452373 -0.0156683 -3.23197e-22)
(0.466169 -0.0155594 7.31549e-23)
(0.480173 -0.015449 9.37192e-23)
(0.494388 -0.0153362 1.82328e-22)
(0.508812 -0.0152199 -2.01614e-22)
(0.523446 -0.0150987 1.14329e-22)
(0.538285 -0.0149714 6.34562e-23)
(0.553327 -0.0148363 -7.52043e-23)
(0.568564 -0.0146923 4.68881e-24)
(0.583988 -0.014538 4.18197e-23)
(0.599588 -0.0143722 -1.39816e-23)
(0.615354 -0.014194 2.2859e-24)
(0.631266 -0.0140028 1.04853e-23)
(0.647324 -0.0137978 1.52947e-24)
(0.663472 -0.0135795 -8.5786e-24)
(0.679777 -0.0133461 8.80516e-24)
(0.696035 -0.0131029 8.97871e-24)
(0.712619 -0.0128374 -2.64088e-23)
(0.728677 -0.0125814 1.66291e-23)
(0.745907 -0.0122607 -2.18933e-23)
(0.760782 -0.0120456 -1.38165e-23)
(0.780293 -0.0115643 -2.38546e-23)
(0.790601 -0.0115793 7.33698e-24)
(0.81842 -0.0107025 -2.965e-23)
(0.0638718 -0.0208813 3.43111e-23)
(0.0682297 -0.0198133 -2.00392e-20)
(0.0725158 -0.019205 -4.24247e-21)
(0.076988 -0.0188358 2.19884e-20)
(0.0815458 -0.0186465 -1.5484e-20)
(0.0861928 -0.0186074 2.64858e-21)
(0.0909681 -0.0186852 9.10656e-21)
(0.095899 -0.0188518 -7.59364e-21)
(0.101005 -0.0190858 -6.99735e-21)
(0.106305 -0.0193701 1.1518e-20)
(0.111812 -0.0196904 3.52957e-21)
(0.11754 -0.0200347 -4.23673e-21)
(0.123499 -0.0203928 -4.13002e-21)
(0.129698 -0.0207558 3.02047e-22)
(0.136142 -0.0211163 8.85114e-21)
(0.142835 -0.0214679 -4.4958e-21)
(0.149782 -0.0218052 -4.89048e-22)
(0.156982 -0.0221237 -4.56049e-21)
(0.164435 -0.0224198 -2.48383e-22)
(0.172142 -0.0226907 1.80384e-21)
(0.180099 -0.0229343 4.20826e-21)
(0.188305 -0.0231491 -4.57497e-21)
(0.196754 -0.0233342 3.75401e-21)
(0.205444 -0.0234893 -2.11215e-21)
(0.214369 -0.0236145 -9.41375e-22)
(0.223525 -0.0237103 -4.10314e-22)
(0.232907 -0.0237777 2.33169e-21)
(0.24251 -0.0238177 2.42138e-21)
(0.252329 -0.0238318 -4.6496e-21)
(0.262358 -0.0238216 -8.98165e-22)
(0.272592 -0.0237889 4.10771e-21)
(0.283029 -0.0237358 -1.37589e-21)
(0.293662 -0.0236642 -2.33545e-21)
(0.304489 -0.0235761 1.00676e-21)
(0.315507 -0.0234738 -1.27252e-21)
(0.326713 -0.0233594 1.29055e-21)
(0.338105 -0.0232348 -6.97809e-22)
(0.349682 -0.0231021 2.60203e-21)
(0.361444 -0.0229631 2.59479e-22)
(0.373391 -0.0228195 -1.68804e-22)
(0.385524 -0.0226727 -7.82722e-22)
(0.397845 -0.0225241 -1.14312e-21)
(0.410355 -0.0223745 -2.51856e-22)
(0.423056 -0.0222246 1.20938e-21)
(0.435953 -0.0220749 1.27146e-22)
(0.449048 -0.0219252 -4.43496e-22)
(0.462343 -0.0217753 1.04329e-22)
(0.475841 -0.0216243 6.24535e-23)
(0.489545 -0.0214714 3.47293e-22)
(0.503454 -0.0213152 -1.87218e-22)
(0.517571 -0.021154 -1.06816e-22)
(0.531893 -0.0209862 2.36909e-23)
(0.546417 -0.0208097 2.64376e-22)
(0.561141 -0.0206227 -1.41019e-22)
(0.576056 -0.0204232 -1.27352e-22)
(0.591157 -0.0202095 3.79965e-23)
(0.606431 -0.0199799 7.73638e-24)
(0.62187 -0.0197331 -3.06538e-24)
(0.637453 -0.0194682 -2.9365e-23)
(0.653182 -0.0191844 9.88682e-25)
(0.669001 -0.0188821 -4.36602e-24)
(0.684978 -0.018559 -1.16132e-23)
(0.70091 -0.0182223 1.04251e-23)
(0.71717 -0.0178546 2.71962e-23)
(0.732911 -0.0175005 -1.93466e-23)
(0.74982 -0.0170562 1.61485e-23)
(0.764402 -0.0167592 1.46381e-23)
(0.783575 -0.0160923 2.80701e-23)
(0.793671 -0.0161135 -5.14408e-24)
(0.82103 -0.0149017 4.82464e-23)
(0.0892926 -0.0262894 2.11881e-20)
(0.0932294 -0.0250219 -7.84908e-21)
(0.0971343 -0.0243146 4.76588e-21)
(0.101352 -0.0238792 -3.25932e-20)
(0.105694 -0.0236602 1.51711e-20)
(0.11014 -0.0236271 -1.94764e-20)
(0.11473 -0.023739 2.15865e-20)
(0.119488 -0.0239615 -1.97296e-20)
(0.124429 -0.0242683 -4.59012e-21)
(0.129569 -0.024638 3.89155e-20)
(0.134919 -0.0250525 -2.12867e-20)
(0.140491 -0.0254965 1.75526e-20)
(0.146293 -0.025957 -3.97512e-21)
(0.152331 -0.0264229 -3.45137e-22)
(0.15861 -0.0268845 -1.02791e-20)
(0.165133 -0.0273338 -4.28246e-21)
(0.171901 -0.0277641 -1.94308e-21)
(0.178914 -0.0281697 5.01268e-21)
(0.186173 -0.0285463 -1.19588e-20)
(0.193675 -0.0288904 5.91722e-21)
(0.201418 -0.0291993 -3.08796e-21)
(0.209398 -0.0294715 1.60204e-21)
(0.217613 -0.0297058 3.12902e-21)
(0.226059 -0.0299019 5.88921e-21)
(0.23473 -0.0300601 -3.75453e-21)
(0.243622 -0.030181 -3.07173e-21)
(0.252731 -0.0302658 2.39741e-21)
(0.262052 -0.030316 3.67846e-22)
(0.271581 -0.0303335 2.3056e-21)
(0.281312 -0.0303202 -1.88605e-21)
(0.291242 -0.0302785 -2.3376e-21)
(0.301366 -0.0302109 3.69755e-21)
(0.311681 -0.0301199 -3.0809e-21)
(0.322184 -0.0300082 2.04967e-21)
(0.332871 -0.0298785 7.20403e-22)
(0.343742 -0.0297333 -1.22634e-21)
(0.354793 -0.0295753 -6.93534e-22)
(0.366025 -0.0294071 9.01994e-22)
(0.377437 -0.0292308 -1.51194e-21)
(0.38903 -0.0290487 4.02312e-22)
(0.400804 -0.0288627 -4.87476e-22)
(0.412762 -0.0286742 1.75733e-22)
(0.424904 -0.0284845 -1.54437e-22)
(0.437235 -0.0282945 7.07372e-22)
(0.449756 -0.0281046 -6.54667e-22)
(0.46247 -0.0279149 4.16635e-22)
(0.475381 -0.0277247 -7.59278e-22)
(0.48849 -0.0275334 2.7241e-22)
(0.5018 -0.0273395 6.57732e-22)
(0.515311 -0.0271415 -4.9413e-22)
(0.529025 -0.0269372 -2.86656e-22)
(0.54294 -0.0267245 3.52656e-22)
(0.557054 -0.0265009 -2.36062e-22)
(0.571362 -0.0262639 1.09253e-22)
(0.585858 -0.0260111 1.01496e-23)
(0.600536 -0.0257402 1.39929e-23)
(0.615385 -0.0254493 -9.24011e-23)
(0.630397 -0.0251365 3.01503e-23)
(0.645551 -0.0248009 4.95758e-24)
(0.66085 -0.0244412 7.82628e-24)
(0.67624 -0.0240583 1.09022e-23)
(0.691789 -0.0236489 -9.92965e-24)
(0.707295 -0.0232225 -1.03911e-23)
(0.723133 -0.0227565 -1.60351e-23)
(0.738459 -0.0223084 9.60641e-24)
(0.754949 -0.0217452 -1.23287e-23)
(0.769148 -0.0213702 -2.97019e-23)
(0.787878 -0.0205245 2.64639e-23)
(0.797698 -0.0205522 5.67906e-24)
(0.824455 -0.0190204 -1.18654e-22)
(0.120738 -0.0312535 -9.74107e-21)
(0.124152 -0.0298619 8.58641e-21)
(0.127571 -0.0291127 5.70841e-21)
(0.131457 -0.0286434 -3.76462e-20)
(0.135514 -0.0284163 3.84625e-20)
(0.139695 -0.0284052 -4.26277e-22)
(0.144041 -0.0285632 -2.53094e-20)
(0.148571 -0.0288504 1.55686e-20)
(0.153298 -0.0292364 4.46492e-21)
(0.158229 -0.0296962 4.55571e-21)
(0.163376 -0.030208 -1.78835e-20)
(0.168746 -0.0307537 -1.52344e-20)
(0.174344 -0.0313174 5.4924e-21)
(0.180175 -0.0318858 1.38718e-20)
(0.18624 -0.0324474 -8.19162e-21)
(0.192542 -0.0329927 2.17871e-20)
(0.199081 -0.0335138 -2.34378e-20)
(0.205855 -0.034004 2.51447e-20)
(0.212863 -0.0344584 -7.01024e-21)
(0.220104 -0.0348728 -1.69628e-20)
(0.227573 -0.0352445 1.43184e-20)
(0.235268 -0.0355715 -1.48929e-21)
(0.243185 -0.0358528 -2.24246e-21)
(0.25132 -0.036088 6.25868e-21)
(0.25967 -0.0362776 -4.5203e-21)
(0.268231 -0.0364225 -1.00287e-20)
(0.276997 -0.036524 8.03954e-21)
(0.285965 -0.0365841 -1.86309e-21)
(0.295131 -0.0366049 -1.59045e-21)
(0.304491 -0.0365889 3.10588e-21)
(0.314041 -0.0365389 5.82798e-21)
(0.323777 -0.0364579 -1.82467e-21)
(0.333697 -0.0363488 -1.02606e-20)
(0.343798 -0.0362149 7.50814e-21)
(0.354077 -0.0360594 -3.62152e-21)
(0.364533 -0.0358853 1.15001e-21)
(0.375165 -0.035696 2.62714e-21)
(0.385971 -0.0354942 -1.02397e-21)
(0.396953 -0.0352828 -4.47247e-23)
(0.40811 -0.0350644 6.01397e-22)
(0.419444 -0.0348412 -1.841e-21)
(0.430957 -0.0346151 -8.06534e-22)
(0.44265 -0.0343875 1.95007e-21)
(0.454525 -0.0341595 4.49306e-22)
(0.466587 -0.0339316 -1.19492e-21)
(0.478837 -0.0337039 4.23997e-22)
(0.491278 -0.0334757 -3.05278e-22)
(0.503912 -0.0332461 -7.0007e-22)
(0.516743 -0.0330134 -4.26976e-23)
(0.529769 -0.0327757 7.64181e-22)
(0.542993 -0.0325306 3.10907e-22)
(0.556412 -0.0322753 2.85053e-22)
(0.570025 -0.032007 -1.66698e-22)
(0.583828 -0.0317226 2.34059e-22)
(0.597815 -0.0314192 -3.0568e-22)
(0.611979 -0.0310942 1.32949e-22)
(0.626311 -0.030745 -9.94212e-23)
(0.640803 -0.0303696 1.0376e-23)
(0.655436 -0.0299668 2.86905e-23)
(0.670213 -0.0295351 -2.08726e-23)
(0.685081 -0.0290756 -9.62537e-24)
(0.700109 -0.0285842 4.1936e-24)
(0.715098 -0.0280728 3.59041e-23)
(0.73042 -0.0275134 2.7712e-23)
(0.745243 -0.0269765 -7.07852e-24)
(0.761221 -0.0263001 6.59723e-24)
(0.774955 -0.025852 2.11267e-23)
(0.793145 -0.0248361 2.31339e-23)
(0.802629 -0.0248705 -3.32217e-24)
(0.82865 -0.0230375 5.76492e-23)
(0.157975 -0.0356494 3.26076e-20)
(0.160769 -0.0342229 -2.44961e-20)
(0.163595 -0.0335023 4.0028e-20)
(0.167063 -0.0330412 -1.50225e-20)
(0.170761 -0.0328355 1.17273e-20)
(0.174607 -0.0328693 -3.02413e-20)
(0.178645 -0.0330909 4.83423e-21)
(0.18289 -0.033456 -1.03918e-21)
(0.187345 -0.0339311 6.64773e-21)
(0.192017 -0.0344881 1.77869e-20)
(0.196909 -0.0351023 -1.44107e-20)
(0.202026 -0.0357526 9.85935e-21)
(0.20737 -0.036421 5.65961e-21)
(0.212942 -0.0370921 1.98603e-21)
(0.218742 -0.0377528 -1.67177e-20)
(0.22477 -0.0383924 9.2528e-21)
(0.231024 -0.0390019 -1.34103e-20)
(0.237501 -0.039574 1.66204e-21)
(0.2442 -0.0401032 -2.83555e-22)
(0.251118 -0.0405851 1.62957e-20)
(0.258251 -0.0410168 -1.38624e-20)
(0.265596 -0.0413962 -1.78435e-21)
(0.273149 -0.0417224 -2.99406e-21)
(0.280908 -0.041995 1.33429e-20)
(0.288869 -0.0422148 -4.81891e-21)
(0.297027 -0.0423828 -4.43008e-21)
(0.30538 -0.0425007 -2.58298e-21)
(0.313924 -0.0425708 9.92019e-21)
(0.322655 -0.0425955 -3.59022e-21)
(0.33157 -0.0425778 -4.56914e-21)
(0.340667 -0.0425209 -3.62287e-21)
(0.349941 -0.042428 1.01114e-20)
(0.359392 -0.0423029 -2.75274e-21)
(0.369016 -0.042149 -9.37852e-22)
(0.378811 -0.0419701 -2.01484e-21)
(0.388778 -0.0417699 -1.57802e-21)
(0.398914 -0.0415518 1.623e-21)
(0.40922 -0.0413193 1.45959e-21)
(0.419695 -0.0410757 -1.56722e-21)
(0.430341 -0.0408239 -2.35524e-21)
(0.441158 -0.0405664 3.07391e-21)
(0.452149 -0.0403055 -4.70221e-22)
(0.463315 -0.0400429 7.76954e-25)
(0.474659 -0.0397797 -6.06918e-22)
(0.486184 -0.0395166 9.78974e-22)
(0.497892 -0.0392536 -1.17524e-21)
(0.509786 -0.0389901 1.34183e-21)
(0.521868 -0.0387248 -4.77113e-23)
(0.534139 -0.0384561 -1.18546e-22)
(0.546601 -0.0381815 -3.36942e-22)
(0.559255 -0.0378983 -3.80783e-22)
(0.572098 -0.0376034 1.2798e-22)
(0.58513 -0.0372933 2.74572e-22)
(0.598346 -0.0369647 -6.04501e-22)
(0.611742 -0.036614 3.89519e-22)
(0.62531 -0.0362382 -1.93613e-22)
(0.639042 -0.0358345 5.40136e-23)
(0.652932 -0.0354005 1.70772e-23)
(0.666959 -0.0349347 -3.82961e-23)
(0.68113 -0.0344354 -1.38588e-25)
(0.695392 -0.0339042 -1.75978e-24)
(0.709816 -0.033336 3.00944e-24)
(0.724204 -0.032745 -1.08548e-23)
(0.738928 -0.0320981 -6.21491e-23)
(0.753166 -0.0314784 -5.25407e-24)
(0.76855 -0.0306956 -1.97029e-23)
(0.781743 -0.0301801 -6.86463e-23)
(0.799303 -0.0290041 -6.27458e-24)
(0.808399 -0.0290454 -3.74853e-24)
(0.83356 -0.0269332 -3.03645e-24)
(0.200711 -0.0393462 1.73035e-20)
(0.20279 -0.0379849 3.51236e-20)
(0.204918 -0.0373758 -4.11349e-20)
(0.207881 -0.0369754 -9.81562e-22)
(0.21114 -0.0368297 8.88909e-21)
(0.214577 -0.0369394 -7.86569e-21)
(0.218238 -0.0372488 -1.59425e-20)
(0.222134 -0.0377103 -1.80746e-21)
(0.226261 -0.0382885 3.82465e-20)
(0.230615 -0.0389531 -1.48131e-21)
(0.235198 -0.0396768 -3.28621e-21)
(0.240008 -0.0404364 -5.7851e-21)
(0.245043 -0.0412118 5.09456e-21)
(0.250301 -0.0419862 -3.94836e-21)
(0.255779 -0.0427453 5.20488e-21)
(0.261474 -0.0434774 -1.40734e-20)
(0.267383 -0.044173 -1.12923e-20)
(0.273502 -0.0448243 1.61719e-20)
(0.279828 -0.0454256 1.03178e-21)
(0.286358 -0.0459724 -7.47183e-21)
(0.293088 -0.0464616 1.67749e-20)
(0.300016 -0.0468913 -2.65942e-21)
(0.307138 -0.0472606 -1.34746e-21)
(0.314451 -0.0475696 -1.38243e-20)
(0.321953 -0.0478189 1.09839e-21)
(0.329639 -0.0480099 1.15328e-20)
(0.337508 -0.0481447 -4.69916e-21)
(0.345556 -0.0482257 -7.22943e-21)
(0.353781 -0.0482558 4.67732e-21)
(0.36218 -0.0482382 -1.20208e-21)
(0.370751 -0.0481766 1.41773e-21)
(0.379492 -0.0480746 4.26866e-21)
(0.388401 -0.0479363 -1.15244e-21)
(0.397477 -0.0477656 -5.4095e-21)
(0.406718 -0.0475667 5.72056e-21)
(0.416124 -0.0473437 1.04669e-21)
(0.425693 -0.0471006 1.3611e-21)
(0.435427 -0.0468411 -6.76979e-22)
(0.445325 -0.046569 -6.13565e-21)
(0.455389 -0.0462874 2.92866e-21)
(0.46562 -0.0459994 4.66682e-22)
(0.476019 -0.0457074 -1.59497e-22)
(0.486589 -0.0454132 5.53902e-22)
(0.497332 -0.0451184 1.73375e-22)
(0.50825 -0.0448235 -3.47017e-22)
(0.519347 -0.0445286 1.70251e-22)
(0.530623 -0.0442331 2.54128e-22)
(0.542082 -0.0439356 -4.1956e-22)
(0.553725 -0.0436341 2.1416e-22)
(0.565552 -0.0433259 2.7682e-22)
(0.577565 -0.043008 -3.27407e-22)
(0.589762 -0.0426768 -2.55205e-22)
(0.602141 -0.0423286 1.14066e-22)
(0.614699 -0.0419593 5.77257e-23)
(0.627431 -0.0415652 2.00811e-23)
(0.640331 -0.0411427 9.66465e-23)
(0.653391 -0.0406887 -5.24049e-23)
(0.666604 -0.0402005 -2.00912e-22)
(0.679953 -0.0396765 -1.66187e-23)
(0.693445 -0.0391149 -4.45442e-25)
(0.707027 -0.0385174 7.77149e-24)
(0.720774 -0.0378781 -9.19151e-24)
(0.734488 -0.0372137 3.1416e-23)
(0.74854 -0.0364859 1.17282e-23)
(0.762121 -0.0357902 2.54248e-23)
(0.776836 -0.0349087 7.4086e-23)
(0.789422 -0.0343322 -2.79741e-23)
(0.806273 -0.0330077 4.7265e-23)
(0.814933 -0.0330559 -9.07506e-24)
(0.839123 -0.0306894 2.07576e-23)
(0.248584 -0.0422079 -3.42138e-20)
(0.249864 -0.0410203 4.19481e-20)
(0.251193 -0.0406167 5.33907e-20)
(0.253563 -0.0403403 -6.14802e-20)
(0.256302 -0.0403035 -3.78217e-20)
(0.259256 -0.0405293 2.722e-20)
(0.262471 -0.0409584 2.49797e-20)
(0.265954 -0.0415409 3.49576e-20)
(0.269689 -0.0422409 -4.11743e-20)
(0.273668 -0.0430267 -3.05343e-22)
(0.277883 -0.0438694 -3.08494e-20)
(0.282327 -0.0447443 8.88355e-21)
(0.286994 -0.04563 2.38615e-20)
(0.291877 -0.0465089 -1.85322e-21)
(0.29697 -0.0473661 -1.32853e-20)
(0.302269 -0.0481894 3.72109e-21)
(0.307767 -0.048969 7.49146e-21)
(0.313461 -0.0496972 -1.28449e-20)
(0.319347 -0.0503682 2.70739e-20)
(0.32542 -0.0509777 -1.25895e-20)
(0.331679 -0.0515226 -6.73719e-21)
(0.338119 -0.0520013 1.54709e-20)
(0.344739 -0.0524131 -1.47503e-20)
(0.351535 -0.0527581 4.96795e-21)
(0.358506 -0.0530373 1.88924e-21)
(0.36565 -0.0532524 5.72439e-21)
(0.372964 -0.0534056 -4.39646e-21)
(0.380446 -0.0534996 -6.44668e-21)
(0.388095 -0.0535377 1.82345e-21)
(0.395909 -0.0535233 -2.85153e-21)
(0.403886 -0.0534604 1.30086e-20)
(0.412025 -0.053353 -5.10733e-21)
(0.420325 -0.0532055 -7.95396e-21)
(0.428786 -0.0530224 1.04547e-20)
(0.437405 -0.052808 -6.34114e-21)
(0.446184 -0.0525668 -1.32004e-21)
(0.455121 -0.0523032 3.20126e-21)
(0.464219 -0.0520215 -1.16893e-21)
(0.473476 -0.0517255 2.48037e-21)
(0.482894 -0.0514189 -9.88148e-22)
(0.492475 -0.0511049 1.83826e-21)
(0.50222 -0.0507862 -3.98169e-21)
(0.512131 -0.050465 2.58296e-21)
(0.522211 -0.0501427 1.41228e-21)
(0.532461 -0.0498203 -2.64161e-21)
(0.542885 -0.0494977 -1.89131e-24)
(0.553483 -0.0491741 1.57223e-21)
(0.564258 -0.0488483 -1.89643e-21)
(0.575211 -0.0485179 2.01041e-21)
(0.586343 -0.04818 -5.19818e-22)
(0.597655 -0.0478313 8.38053e-23)
(0.609144 -0.0474678 -8.07553e-23)
(0.62081 -0.0470854 1.5312e-23)
(0.632648 -0.0466796 -2.63247e-22)
(0.644655 -0.0462464 3.09489e-22)
(0.656825 -0.0457817 8.70862e-23)
(0.669151 -0.0452822 3.09509e-23)
(0.681626 -0.0447449 -6.94021e-24)
(0.694235 -0.0441681 1.04294e-22)
(0.706984 -0.0435497 -5.72262e-23)
(0.719825 -0.0428919 1.96827e-23)
(0.73283 -0.0421879 7.61346e-24)
(0.745808 -0.0414569 -4.43105e-23)
(0.759126 -0.0406552 1.00332e-23)
(0.771988 -0.039891 7.38198e-24)
(0.785972 -0.0389192 -3.36027e-23)
(0.797894 -0.0382886 3.02727e-23)
(0.813964 -0.0368283 -5.60515e-23)
(0.822149 -0.0368835 -1.08054e-23)
(0.84527 -0.0342897 4.29488e-23)
(0.301567 -0.0431972 -5.19179e-21)
(0.302009 -0.0431039 -8.94957e-20)
(0.303704 -0.0430258 9.6613e-20)
(0.305848 -0.0431576 -4.87398e-20)
(0.308246 -0.0435496 -4.06906e-21)
(0.310949 -0.0441385 3.82033e-20)
(0.313955 -0.044873 -4.07241e-20)
(0.317238 -0.045718 -5.87386e-21)
(0.32078 -0.0466419 2.97786e-20)
(0.324565 -0.0476152 -6.71271e-21)
(0.328581 -0.0486127 -3.04065e-20)
(0.332816 -0.0496129 5.22427e-20)
(0.337258 -0.0505981 -1.42302e-20)
(0.341899 -0.0515534 -2.21823e-20)
(0.346731 -0.0524669 2.51862e-20)
(0.351748 -0.0533292 2.80398e-21)
(0.356945 -0.0541327 -1.13602e-20)
(0.362318 -0.0548719 -1.2927e-20)
(0.367862 -0.0555429 -1.50192e-20)
(0.373576 -0.056143 8.12728e-21)
(0.379456 -0.0566706 5.44012e-21)
(0.385501 -0.0571253 8.96744e-21)
(0.39171 -0.0575076 -1.29141e-20)
(0.398079 -0.0578186 7.47474e-21)
(0.40461 -0.0580602 -1.09889e-21)
(0.4113 -0.0582348 -6.3949e-21)
(0.418148 -0.0583454 4.3005e-21)
(0.425153 -0.0583954 4.2427e-22)
(0.432315 -0.0583887 -8.79026e-21)
(0.439633 -0.0583293 2.76178e-21)
(0.447106 -0.0582217 5.435e-21)
(0.454735 -0.0580705 -3.27867e-21)
(0.462517 -0.0578804 1.63029e-21)
(0.470454 -0.0576561 3.48985e-21)
(0.478546 -0.0574026 -5.50515e-21)
(0.486793 -0.0571244 2.66337e-21)
(0.495195 -0.0568261 2.89601e-21)
(0.503754 -0.056512 -2.52901e-21)
(0.512471 -0.056186 3.64574e-22)
(0.521346 -0.0558516 -3.23701e-21)
(0.530383 -0.0555117 1.78602e-21)
(0.539582 -0.0551686 1.01423e-21)
(0.548945 -0.0548241 3.9564e-22)
(0.558475 -0.0544791 -1.62636e-21)
(0.568173 -0.0541335 -3.56164e-22)
(0.578041 -0.0537867 2.94186e-21)
(0.588081 -0.053437 -2.80708e-22)
(0.598294 -0.0530823 -1.49087e-21)
(0.608681 -0.0527192 1.58076e-23)
(0.61924 -0.0523441 -2.26377e-22)
(0.629972 -0.0519528 2.07437e-22)
(0.640874 -0.0515407 9.72435e-23)
(0.651943 -0.0511031 1.71606e-22)
(0.663175 -0.0506356 -1.83318e-22)
(0.674565 -0.0501337 -1.75941e-23)
(0.686105 -0.0495938 -1.40021e-22)
(0.697792 -0.0490129 6.4837e-24)
(0.709609 -0.0483889 -6.41213e-24)
(0.721566 -0.0477198 6.19296e-24)
(0.733613 -0.047008 -1.66617e-23)
(0.745827 -0.0462462 6.97214e-24)
(0.758017 -0.0454557 -1.0365e-23)
(0.770548 -0.0445878 7.16005e-23)
(0.782642 -0.0437629 -7.59353e-23)
(0.79584 -0.0427098 -1.24056e-24)
(0.807052 -0.0420324 1.87893e-23)
(0.822283 -0.0404499 4.14287e-23)
(0.82996 -0.0405121 -3.63424e-24)
(0.851929 -0.0377197 -2.62726e-23)
(0.357399 -0.0443869 -5.12362e-20)
(0.356886 -0.0447176 2.21422e-20)
(0.357838 -0.0449232 -1.52512e-20)
(0.359323 -0.0452944 -1.36217e-20)
(0.361105 -0.0459125 3.19698e-21)
(0.363236 -0.0467088 -1.98471e-21)
(0.365707 -0.0476318 6.171e-21)
(0.368479 -0.048649 3.32296e-20)
(0.371522 -0.0497302 -5.19503e-20)
(0.374814 -0.0508472 3.844e-20)
(0.378335 -0.0519755 1.13314e-20)
(0.382067 -0.0530949 -5.82762e-20)
(0.385996 -0.0541886 5.40895e-20)
(0.39011 -0.0552428 -2.12822e-20)
(0.394401 -0.0562464 8.05812e-22)
(0.398861 -0.0571908 1.27971e-20)
(0.403485 -0.0580692 -2.02718e-20)
(0.408268 -0.0588766 8.95532e-21)
(0.413207 -0.0596096 -1.89042e-20)
(0.4183 -0.0602657 -6.98099e-21)
(0.423547 -0.060844 2.81517e-20)
(0.428944 -0.0613441 -4.274e-21)
(0.434493 -0.0617667 3.05307e-21)
(0.440192 -0.0621131 8.04026e-21)
(0.446041 -0.0623855 -1.83247e-21)
(0.45204 -0.0625864 -6.76213e-21)
(0.458188 -0.0627189 -8.55952e-21)
(0.464487 -0.0627866 9.49057e-21)
(0.470935 -0.0627937 5.93571e-23)
(0.477534 -0.0627443 -5.62809e-21)
(0.484282 -0.0626431 1.98813e-21)
(0.491181 -0.062495 5.8395e-21)
(0.49823 -0.0623048 -1.13999e-20)
(0.505431 -0.0620778 2.74253e-21)
(0.512783 -0.0618189 3.67328e-21)
(0.520287 -0.0615331 1.08414e-21)
(0.527944 -0.0612253 -4.43624e-21)
(0.535755 -0.0608999 1.51556e-23)
(0.543722 -0.0605612 -5.69587e-22)
(0.551846 -0.0602128 4.14532e-21)
(0.560127 -0.0598581 -2.58894e-21)
(0.568569 -0.0594993 -1.7976e-22)
(0.577171 -0.0591385 1.72655e-21)
(0.585937 -0.0587765 -2.69225e-23)
(0.594868 -0.0584136 -1.8316e-21)
(0.603965 -0.0580488 2.5159e-21)
(0.613229 -0.0576807 -3.97667e-22)
(0.622662 -0.0573066 -1.50879e-21)
(0.632262 -0.0569233 9.22044e-22)
(0.64203 -0.0565269 -3.5353e-22)
(0.651965 -0.0561127 -1.5126e-22)
(0.662064 -0.055676 -1.18772e-22)
(0.672325 -0.0552117 2.74574e-22)
(0.682743 -0.0547149 -4.68125e-22)
(0.693314 -0.0541812 9.6145e-23)
(0.704031 -0.0536065 -4.41033e-23)
(0.714891 -0.0529876 1.55361e-22)
(0.725877 -0.0523226 6.42959e-23)
(0.737002 -0.051609 -5.21925e-23)
(0.748217 -0.0508501 2.38612e-23)
(0.759599 -0.0500373 -1.65967e-24)
(0.770961 -0.0491949 2.22651e-23)
(0.782666 -0.0482687 -2.89133e-23)
(0.793951 -0.0473914 1.04208e-23)
(0.806322 -0.0462665 -1.06769e-23)
(0.816786 -0.0455496 -3.21224e-24)
(0.83113 -0.0438595 -3.33303e-23)
(0.838275 -0.0439282 -4.4122e-24)
(0.859021 -0.0409669 -1.40444e-23)
(0.41678 -0.0444721 2.92068e-20)
(0.415278 -0.0453482 -2.77981e-20)
(0.415445 -0.0459329 9.33407e-21)
(0.416227 -0.0466249 2.36975e-20)
(0.417348 -0.0475371 -4.40094e-20)
(0.418861 -0.0485944 1.31183e-20)
(0.420747 -0.0497458 6.32431e-20)
(0.422952 -0.0509642 -2.03263e-20)
(0.425435 -0.052223 -3.77776e-20)
(0.428167 -0.053497 3.2018e-20)
(0.43112 -0.0547645 -9.67102e-21)
(0.434273 -0.0560081 2.48049e-20)
(0.43761 -0.0572131 -3.21651e-20)
(0.441118 -0.0583677 -3.53294e-20)
(0.444786 -0.0594626 5.79666e-20)
(0.448607 -0.0604902 -5.35831e-20)
(0.452576 -0.0614449 3.1471e-20)
(0.45669 -0.0623224 2.57035e-20)
(0.460947 -0.0631199 -4.96125e-20)
(0.465344 -0.0638355 3.80091e-20)
(0.469882 -0.0644683 -1.85224e-20)
(0.474561 -0.0650185 -1.43273e-20)
(0.47938 -0.0654867 3.43938e-21)
(0.484341 -0.0658746 2.83333e-20)
(0.489443 -0.0661842 -3.40247e-20)
(0.494689 -0.0664182 3.11131e-20)
(0.500078 -0.06658 7.16062e-21)
(0.505611 -0.0666732 -5.68004e-21)
(0.51129 -0.0667019 -2.10554e-20)
(0.517115 -0.0666707 5.5376e-21)
(0.523086 -0.0665842 8.48382e-21)
(0.529205 -0.0664476 -8.33426e-21)
(0.535473 -0.0662659 6.05184e-21)
(0.54189 -0.0660445 -3.32228e-21)
(0.548457 -0.0657887 1.98315e-21)
(0.555175 -0.0655036 -1.95473e-21)
(0.562045 -0.0651943 1.17926e-21)
(0.569068 -0.0648655 3.59352e-22)
(0.576246 -0.0645218 -1.02204e-21)
(0.583579 -0.064167 2.49673e-21)
(0.591069 -0.0638046 -3.11332e-21)
(0.598718 -0.0634372 -1.10728e-21)
(0.606526 -0.0630668 3.75785e-22)
(0.614495 -0.0626944 3.95607e-23)
(0.622626 -0.0623202 -8.26859e-22)
(0.63092 -0.0619436 2.53522e-21)
(0.639377 -0.0615628 -5.42164e-22)
(0.647999 -0.0611751 -8.39168e-22)
(0.656784 -0.0607772 -9.02167e-22)
(0.665732 -0.0603648 1.66665e-21)
(0.674841 -0.0599332 -6.99018e-23)
(0.68411 -0.0594772 7.18741e-22)
(0.693535 -0.0589916 -1.3805e-21)
(0.703112 -0.0584712 7.63728e-22)
(0.712837 -0.0579112 9.3542e-23)
(0.722703 -0.0573075 -1.10421e-22)
(0.732708 -0.0566566 1.37106e-22)
(0.742838 -0.0559568 -1.65994e-22)
(0.753103 -0.0552054 5.56772e-24)
(0.763457 -0.0544061 -1.01864e-23)
(0.773979 -0.0535496 -9.95671e-24)
(0.784485 -0.0526628 -6.57912e-24)
(0.795335 -0.0516866 1.58553e-23)
(0.805784 -0.050765 -2.41133e-23)
(0.817295 -0.0495781 -4.44142e-24)
(0.826987 -0.0488291 -7.58118e-24)
(0.840405 -0.0470464 4.42224e-23)
(0.847001 -0.0471211 -1.81907e-23)
(0.866469 -0.0440213 8.5614e-24)
(0.476577 -0.0449064 -3.26765e-20)
(0.475954 -0.0459741 3.36412e-20)
(0.476023 -0.0470762 -7.2081e-20)
(0.476465 -0.0483556 1.06082e-20)
(0.477331 -0.0497289 2.85871e-20)
(0.478589 -0.0511489 -1.43262e-20)
(0.480173 -0.0525966 -8.28964e-21)
(0.482032 -0.0540519 1.08571e-20)
(0.484129 -0.055495 9.11917e-21)