/*--------------------------------*- C++ -*----------------------------------*\
  =========                 |
  \\      /  F ield         | OpenFOAM: The Open Source CFD Toolbox
   \\    /   O peration     | Website:  https://openfoam.org
    \\  /    A nd           | Version:  7
     \\/     M anipulation  |
\*---------------------------------------------------------------------------*/
FoamFile
{
    version     2.0;
    format      ascii;
    class       volVectorField;
    location    "24";
    object      U;
}
// * * * * * * * * * * * * * * * * * * * * * * * * * * * * * * * * * * * * * //

dimensions      [0 1 -1 0 0 0 0];

internalField   nonuniform List<vector> 
433
(
(-0.0353496 0.000952197 5.43723e-21)
(-0.0364423 0.000878027 -6.72718e-21)
(-0.0374682 0.000810828 2.26171e-21)
(-0.0384338 0.000752491 1.90406e-22)
(-0.0393462 0.000704647 1.2448e-22)
(-0.0402134 0.000669246 -2.82138e-21)
(-0.0410781 0.000648687 5.46688e-21)
(-0.0238965 0.00463483 -5.7285e-21)
(-0.0253554 0.00444764 3.19974e-21)
(-0.0267775 0.00424008 -6.09042e-21)
(-0.0281525 0.00401572 -5.90303e-21)
(-0.029471 0.0037787 -1.64118e-21)
(-0.0307248 0.00353367 -5.52722e-21)
(-0.0319073 0.00328583 3.29953e-21)
(-0.033014 0.00304083 -8.7889e-22)
(-0.0340427 0.00280469 6.91785e-21)
(-0.0349939 0.0025837 -1.57104e-20)
(-0.0358716 0.00238411 1.18827e-20)
(-0.0366832 0.0022117 -4.30703e-21)
(-0.0374353 0.00207157 1.35918e-21)
(-0.0381333 0.00196994 2.51434e-21)
(-0.0388294 0.00191382 -1.4285e-20)
(-0.0230136 0.00754572 1.2697e-21)
(-0.0243042 0.00723251 1.53312e-20)
(-0.0255443 0.00688584 -1.62823e-20)
(-0.0267232 0.00651171 1.19778e-20)
(-0.0278312 0.00611703 6.09068e-21)
(-0.02886 0.00570965 9.49652e-21)
(-0.0298029 0.00529831 -1.58433e-21)
(-0.0306553 0.00489257 -1.68582e-20)
(-0.0314153 0.00450268 -1.00941e-20)
(-0.0320837 0.00413933 9.3824e-21)
(-0.0326654 0.00381327 7.72535e-21)
(-0.033169 0.00353448 3.03197e-20)
(-0.0336007 0.0033121 -2.36338e-20)
(-0.0339604 0.0031578 4.32363e-20)
(-0.0343194 0.00308276 -3.80616e-20)
(-0.0226924 0.00975178 -2.03633e-20)
(-0.0236594 0.00926499 -2.4245e-20)
(-0.0245441 0.0087408 -1.95147e-20)
(-0.0253366 0.00818901 2.9046e-20)
(-0.0260281 0.00762071 -5.23905e-20)
(-0.0266118 0.00704835 4.37457e-20)
(-0.0270831 0.00648562 -2.30748e-20)
(-0.0274403 0.00594725 9.85954e-21)
(-0.0276849 0.00544874 1.01012e-20)
(-0.0278229 0.00500573 -3.82209e-21)
(-0.0278651 0.00463294 3.97986e-20)
(-0.0278168 0.00434441 -1.42953e-20)
(-0.0276695 0.00415909 -5.32795e-20)
(-0.0275217 0.00409221 4.81676e-20)
(-0.0204775 0.0119088 7.05135e-21)
(-0.0210802 0.0112805 -4.31883e-20)
(-0.0215728 0.010606 9.00981e-21)
(-0.0219448 0.00989783 4.51453e-21)
(-0.0221869 0.00917055 -1.04853e-20)
(-0.0222921 0.00844048 2.20563e-21)
(-0.0222558 0.00772572 8.88438e-21)
(-0.0220765 0.00704587 1.29192e-21)
(-0.0217566 0.00642175 3.50473e-20)
(-0.0213037 0.0058745 -2.00426e-20)
(-0.0207316 0.00542415 -2.72597e-20)
(-0.0200449 0.00509065 1.40669e-20)
(-0.0192226 0.00490238 1.19276e-20)
(-0.0183948 0.00487799 -3.27927e-20)
(-0.0176025 0.0136164 -3.20554e-20)
(-0.0177496 0.0128454 5.20466e-20)
(-0.0177522 0.0120203 -3.43642e-20)
(-0.0175987 0.0111567 7.73082e-21)
(-0.0172796 0.0102729 4.48433e-20)
(-0.0167872 0.00938909 -2.92588e-20)
(-0.0161171 0.00852824 5.71356e-20)
(-0.015268 0.00771536 -1.7797e-20)
(-0.0142432 0.00697729 -2.97958e-20)
(-0.0130527 0.00634152 -7.16551e-21)
(-0.0117144 0.00583434 1.18327e-20)
(-0.0102335 0.00548324 -7.40942e-20)
(-0.00857332 0.00533002 -1.37714e-20)
(-0.00689365 0.00539301 1.29884e-20)
(-0.0135953 0.0138852 -9.6942e-21)
(-0.0130098 0.0129096 8.24049e-21)
(-0.0122262 0.0118922 -1.40926e-20)
(-0.0112341 0.0108546 4.22098e-21)
(-0.0100255 0.00982157 -1.20334e-20)
(-0.00859548 0.00882117 3.90844e-20)
(-0.00694321 0.00788449 -3.57126e-20)
(-0.00507299 0.00704535 -3.31614e-20)
(-0.00299747 0.00633879 6.92296e-20)
(-0.00073926 0.00579875 -6.66822e-20)
(0.0016963 0.00546307 5.9621e-20)
(0.00436052 0.0053918 1.70043e-20)
(0.00703865 0.0055937 3.61837e-20)
(-0.00852952 0.0143416 5.49414e-20)
(-0.00725767 0.0132166 -3.95279e-20)
(-0.00573945 0.0120474 -6.96279e-20)
(-0.00396323 0.0108595 5.77894e-21)
(-0.00192012 0.00968204 1.26811e-19)
(0.000395191 0.00854875 -6.83085e-20)
(0.00298344 0.00749746 4.84912e-20)
(0.0058393 0.00657 2.33936e-20)
(0.00894703 0.00581039 -9.16157e-20)
(0.0122787 0.00526219 5.12474e-20)
(0.0158292 0.00497693 9.30649e-21)
(0.0196636 0.00503758 -8.0199e-20)
(0.0234899 0.00543932 4.84746e-20)
(-0.000392144 0.0129035 6.41078e-20)
(0.00196503 0.0115862 -1.61432e-19)
(0.00463603 0.0102523 5.82801e-20)
(0.00763098 0.00893597 1.10665e-22)
(0.010956 0.00767654 4.31603e-20)
(0.014612 0.00651929 1.22394e-20)
(0.0185928 0.00551525 6.87477e-20)
(0.0228794 0.00471925 2.6473e-20)
(0.0274373 0.00418706 -5.1261e-20)
(0.0322606 0.00398811 1.05882e-20)
(0.037429 0.00423598 -5.20134e-20)
(0.0425655 0.00491466 3.99177e-20)
(0.011007 0.0104968 3.93962e-20)
(0.0146826 0.00902358 -1.09297e-20)
(0.0187454 0.00757511 -2.864e-20)
(0.023203 0.00619666 2.68672e-20)
(0.0280569 0.00494137 -1.04543e-19)
(0.0333006 0.00387063 -2.67973e-20)
(0.0389118 0.00305204 -4.82811e-20)
(0.044849 0.00255664 3.87311e-20)
(0.0511042 0.00247755 -7.78882e-20)
(0.0577733 0.00297042 6.96554e-21)
(0.0643839 0.00400948 2.64056e-20)
(0.0215228 0.00879592 -2.45879e-20)
(0.0263117 0.00719363 6.95283e-20)
(0.0315567 0.0056226 7.57694e-21)
(0.0372673 0.00413366 5.9739e-20)
(0.0434468 0.00278785 -5.40565e-20)
(0.0500888 0.00165769 8.08252e-20)
(0.0571687 0.000825398 -6.28978e-20)
(0.0646377 0.000380633 1.77523e-20)
(0.0724856 0.000447169 9.10624e-20)
(0.0808261 0.00123676 -1.14548e-19)
(0.0890782 0.00271605 1.28302e-20)
(0.039675 0.00481678 -1.16018e-20)
(0.0462142 0.00313807 -8.26172e-20)
(0.0532953 0.00155074 1.07892e-19)
(0.0609239 0.00012301 -2.86541e-20)
(0.0690957 -0.00106155 8.7583e-21)
(0.0777849 -0.00190494 -2.09746e-20)
(0.0869363 -0.00229574 -1.27974e-19)
(0.0965384 -0.00207163 9.01149e-20)
(0.106725 -0.000947589 8.42265e-21)
(0.116792 0.00104046 -5.69391e-20)
(0.0628836 0.000221687 3.13751e-20)
(0.071448 -0.00144434 -9.22839e-20)
(0.0806439 -0.00294083 1.09007e-19)
(0.0904705 -0.00417472 1.4882e-22)
(0.100903 -0.00503264 -6.34527e-20)
(0.111883 -0.00537951 2.87196e-20)
(0.1234 -0.00500639 1.16878e-19)
(0.135611 -0.00353532 -1.08191e-19)
(0.147677 -0.00099806 -8.24391e-20)
(0.0919028 -0.00469519 -3.59098e-20)
(0.102777 -0.00623607 -7.92516e-21)
(0.114373 -0.00750821 -6.01416e-21)
(0.126673 -0.00838618 8.05696e-20)
(0.139618 -0.00871212 -3.88911e-20)
(0.153203 -0.00822406 -8.9639e-20)
(0.167615 -0.00642965 1.21201e-19)
(0.181865 -0.00334348 -1.12537e-19)
(0.127509 -0.00953615 -2.88477e-19)
(0.140979 -0.0108178 8.97165e-20)
(0.155255 -0.0117128 8.23408e-20)
(0.170286 -0.012047 -1.21988e-19)
(0.186082 -0.0115033 6.40211e-20)
(0.20287 -0.00945017 -1.15357e-19)
(0.219504 -0.00585109 4.49479e-20)
(0.170486 -0.0137867 -1.10325e-19)
(0.18683 -0.0146666 -5.98373e-20)
(0.204046 -0.0150281 -2.8585e-20)
(0.222182 -0.0145095 -2.39202e-20)
(0.221617 -0.016809 2.07484e-20)
(-0.0429582 0.000623543 1.00358e-21)
(-0.0449446 9.69036e-05 -6.64582e-22)
(-0.0442198 -0.00036761 5.87788e-22)
(-0.0415594 -0.000863178 -7.9532e-23)
(-0.0364808 -0.00131856 -1.46907e-21)
(-0.0291603 -0.001716 1.21047e-21)
(-0.0197379 -0.00204657 3.13816e-23)
(-0.00842375 -0.00230914 -9.24913e-22)
(0.00455466 -0.00250836 3.87123e-22)
(0.0189738 -0.00265143 4.70777e-22)
(0.0346237 -0.00274642 -3.31605e-23)
(0.0513139 -0.00280121 -3.01686e-22)
(0.0688751 -0.00282289 3.25703e-22)
(0.0871576 -0.00281765 -2.84861e-22)
(0.10603 -0.00279069 -1.35731e-23)
(0.125377 -0.00274635 2.24428e-22)
(0.145095 -0.00268822 -5.06863e-22)
(-0.0404823 0.00184561 4.20214e-21)
(-0.0423949 0.000259203 -3.24334e-21)
(-0.0414471 -0.00112659 -2.28838e-21)
(-0.0386309 -0.00260723 2.89011e-21)
(-0.0334162 -0.00396671 -4.22513e-21)
(-0.0259969 -0.0051525 -1.34104e-22)
(-0.0165137 -0.00613839 3.19997e-21)
(-0.00517441 -0.00692121 -4.77578e-22)
(0.00779747 -0.00751504 -7.45479e-22)
(0.0221837 -0.0079415 3.7776e-22)
(0.0377794 -0.00822461 1.7695e-21)
(0.0543991 -0.00838784 -2.30493e-21)
(0.0718774 -0.00845235 2.14264e-21)
(0.0900683 -0.0084365 -4.4669e-22)
(0.108843 -0.0083558 1.00385e-21)
(0.128088 -0.00822318 -2.29907e-22)
(0.147702 -0.00804935 1.08125e-21)
(-0.0355201 0.00299433 1.09936e-20)
(-0.0372882 0.000329815 -5.43765e-21)
(-0.0358968 -0.0019554 5.73032e-21)
(-0.0327725 -0.00440366 -9.76183e-21)
(-0.0272895 -0.00664734 4.64519e-21)
(-0.0196764 -0.00860192 -3.42236e-21)
(-0.0100753 -0.0102256 6.31032e-21)
(0.00131084 -0.0115141 -6.39206e-21)
(0.0142669 -0.0124913 6.92918e-22)
(0.0285851 -0.0131929 -6.91031e-22)
(0.0440709 -0.0136586 2.61187e-21)
(0.0605486 -0.0139269 -5.80846e-21)
(0.0778608 -0.0140327 4.0704e-21)
(0.0958682 -0.0140059 -1.15533e-21)
(0.114447 -0.013872 -1.8895e-21)
(0.133489 -0.0136524 -1.71545e-22)
(0.152896 -0.0133645 2.8391e-22)
(-0.0280497 0.00402583 -8.18584e-21)
(-0.0296096 0.000268942 -9.21308e-21)
(-0.0275596 -0.0028956 1.00736e-21)
(-0.0239812 -0.00628525 6.6924e-21)
(-0.0181055 -0.00938008 3.36678e-21)
(-0.0102115 -0.012071 -1.42159e-21)
(-0.000443006 -0.0143036 -4.05452e-21)
(0.0110052 -0.0160738 6.98732e-21)
(0.0239307 -0.0174158 3.05797e-21)
(0.0381415 -0.0183792 -3.81977e-21)
(0.0534589 -0.0190186 2.32283e-21)
(0.069721 -0.0193867 -4.71166e-22)
(0.0867827 -0.0195311 -4.89464e-21)
(0.104515 -0.0194929 4.03047e-21)
(0.122801 -0.019307 -3.87864e-21)
(0.141539 -0.0190024 1.22087e-21)
(0.160636 -0.0186034 2.57963e-21)
(-0.0180288 0.00488337 9.78284e-21)
(-0.0193351 5.45151e-06 -1.85909e-21)
(-0.016428 -0.00399355 9.95998e-21)
(-0.0122527 -0.00828123 -4.50923e-22)
(-0.00587042 -0.0121813 1.46806e-20)
(0.00237957 -0.0155634 -2.09688e-20)
(0.0123534 -0.018365 8.48675e-21)
(0.0238687 -0.0205842 7.49304e-22)
(0.0367406 -0.0222659 -6.98069e-21)
(0.0507985 -0.0234731 3.68841e-21)
(0.0658842 -0.0242743 1.0257e-21)
(0.0818546 -0.0247352 -1.62419e-21)
(0.0985799 -0.0249151 4.20834e-21)
(0.115943 -0.0248651 -4.76813e-21)
(0.13384 -0.0246288 6.74908e-22)
(0.152175 -0.0242424 -2.096e-21)
(0.170861 -0.0237364 5.27601e-22)
(-0.00542396 0.0054717 2.18991e-20)
(-0.00642603 -0.000487346 -2.11926e-20)
(-0.00247167 -0.00529592 1.19594e-20)
(0.00242398 -0.0104125 -1.91074e-20)
(0.00940805 -0.0150622 1.07133e-20)
(0.0180727 -0.0190786 -1.71614e-21)
(0.0282741 -0.0223992 1.38541e-21)
(0.0398477 -0.0250265 -8.39854e-21)
(0.0526322 -0.0270169 1.53286e-20)
(0.0664835 -0.028446 -3.60744e-21)
(0.0812689 -0.0293946 1.73983e-21)
(0.0968676 -0.0299402 -1.09752e-21)
(0.113169 -0.0301521 -1.78706e-21)
(0.130071 -0.0300903 -2.17318e-21)
(0.147481 -0.0298061 4.77083e-22)
(0.165314 -0.0293422 3.82736e-21)
(0.183491 -0.0287344 -1.25098e-21)
(0.00980938 0.00575861 -6.15493e-21)
(0.00918556 -0.00122275 -9.50694e-21)
(0.0143254 -0.00682437 -6.419e-21)
(0.0200669 -0.0127006 1.37741e-20)
(0.0277207 -0.0180293 1.09424e-20)
(0.036838 -0.0226112 -1.29903e-20)
(0.0472693 -0.026391 4.1646e-21)
(0.0588758 -0.0293786 9.96011e-22)
(0.0715254 -0.0316419 -1.0493e-20)
(0.0851065 -0.0332678 9.72134e-21)
(0.099516 -0.034348 -7.8541e-21)
(0.114659 -0.0349694 1.11418e-21)
(0.130446 -0.0352099 2.66254e-21)
(0.146794 -0.035137 4.65527e-21)
(0.163622 -0.0348083 -9.88287e-22)
(0.180857 -0.0342722 1.22732e-21)
(0.198428 -0.0335695 -4.0242e-22)
(0.0277472 0.00579442 1.0967e-20)
(0.0275716 -0.00229974 -1.71206e-20)
(0.0340024 -0.00859385 8.83682e-21)
(0.0406922 -0.0151613 -5.10586e-22)
(0.049061 -0.0210816 5.50801e-21)
(0.0586403 -0.0261487 8.07367e-21)
(0.0692791 -0.0303198 -1.20789e-20)
(0.0808724 -0.0336141 1.66963e-21)
(0.0933242 -0.0361108 -2.87154e-22)
(0.10656 -0.0379066 -3.84093e-21)
(0.120511 -0.0391017 7.82697e-21)
(0.135109 -0.0397903 -8.40181e-21)
(0.150291 -0.0400568 7.15305e-21)
(0.16599 -0.0399744 -9.36879e-21)
(0.182143 -0.0396059 1.639e-21)
(0.198685 -0.0390044 -2.04688e-21)
(0.215556 -0.0382149 3.98934e-21)
(0.048481 0.00557956 -4.11955e-21)
(0.0488034 -0.00374687 3.17641e-23)
(0.0566298 -0.0106221 -5.36885e-21)
(0.0643255 -0.0177925 -6.84728e-21)
(0.0734209 -0.0242076 -6.69408e-21)
(0.0834378 -0.0296705 2.02419e-20)
(0.0942325 -0.0341584 -9.82845e-21)
(0.105743 -0.0377019 3.67855e-21)
(0.117916 -0.0403907 3.59774e-22)
(0.130719 -0.042329 -3.54991e-21)
(0.144119 -0.0436227 4.26702e-21)
(0.158081 -0.0443706 -4.72704e-21)
(0.172563 -0.0446614 5.48085e-21)
(0.187521 -0.0445725 -5.11709e-21)
(0.202904 -0.0441704 5.68489e-21)
(0.218663 -0.0435119 1.17256e-22)
(0.234746 -0.0426453 -5.78998e-22)
(0.0721217 0.00507702 -1.69008e-20)
(0.0729807 -0.00553632 3.69429e-20)
(0.0822775 -0.0129119 -8.77765e-21)
(0.0909996 -0.0205828 -3.28779e-20)
(0.100791 -0.0273852 2.88007e-20)
(0.11118 -0.0331466 5.34304e-21)
(0.122046 -0.0378724 -1.43023e-20)
(0.133377 -0.0416058 1.40344e-20)
(0.145172 -0.0444454 1.85784e-21)
(0.157442 -0.0464997 -3.19999e-21)
(0.170192 -0.0478769 6.08027e-21)
(0.183419 -0.048678 -8.12559e-21)
(0.197107 -0.0489934 1.82276e-21)
(0.21123 -0.0489027 -5.73159e-21)
(0.225755 -0.048475 7.33097e-21)
(0.240643 -0.0477695 -3.52779e-21)
(0.255852 -0.0468372 3.22126e-22)
(0.0987976 0.00426225 2.28275e-20)
(0.100232 -0.00765841 -2.83452e-20)
(0.111028 -0.015452 4.42877e-20)
(0.120752 -0.0235078 -2.18466e-20)
(0.131156 -0.0305793 -1.05037e-20)
(0.141807 -0.0365366 -4.1178e-21)
(0.15262 -0.0414196 9.4819e-21)
(0.163649 -0.0452846 -2.45162e-20)
(0.174945 -0.0482356 1.30537e-20)
(0.186568 -0.0503818 -1.21361e-21)
(0.198562 -0.0518303 -2.45193e-22)
(0.210953 -0.0526808 7.95307e-21)
(0.22375 -0.0530234 -9.08092e-21)
(0.236947 -0.052938 5.32265e-21)
(0.250527 -0.0524945 2.67568e-22)
(0.264461 -0.0517539 5.1388e-22)
(0.278717 -0.0507687 -1.58875e-22)
(0.293258 -0.0495847 9.30943e-22)
(0.128656 0.00311119 1.8395e-20)
(0.130718 -0.010095 1.56207e-20)
(0.14298 -0.0182156 -2.10397e-20)
(0.153623 -0.0265267 1.10915e-20)
(0.164494 -0.0337404 1.47855e-20)
(0.175242 -0.0397884 -1.14661e-20)
(0.185838 -0.0447498 -7.01881e-21)
(0.196412 -0.0486917 -6.70845e-21)
(0.207072 -0.0517191 -7.68971e-21)
(0.217922 -0.0539374 8.43333e-22)
(0.229045 -0.0554486 7.82516e-21)
(0.240497 -0.0563483 -3.82901e-21)
(0.252308 -0.0567236 3.76555e-21)
(0.264491 -0.0566529 -4.43601e-21)
(0.277041 -0.0562057 7.33899e-21)
(0.289944 -0.0554436 -7.09573e-21)
(0.303173 -0.0544204 1.52586e-21)
(0.316698 -0.0531831 6.25918e-21)
(0.161861 0.00156335 -2.47603e-22)
(0.164634 -0.0128218 -8.66925e-21)
(0.178246 -0.0211589 5.95364e-20)
(0.189646 -0.0295797 -2.18822e-20)
(0.200768 -0.0368025 1.09286e-20)
(0.211388 -0.0428379 -3.74128e-20)
(0.221563 -0.0478048 9.78145e-21)
(0.231501 -0.051776 1.22912e-20)
(0.241367 -0.0548516 -9.30572e-21)
(0.25131 -0.0571282 1.23317e-20)
(0.261444 -0.0586987 8.99027e-21)
(0.271851 -0.0596513 -2.39878e-21)
(0.282582 -0.0600681 6.49325e-22)
(0.293666 -0.0600242 1.37399e-21)
(0.30511 -0.0595878 -2.63264e-20)
(0.316908 -0.05882 1.08968e-20)
(0.329043 -0.057775 -2.92838e-21)
(0.34149 -0.0565009 2.80933e-21)
(0.198591 -0.000394105 -6.36553e-21)
(0.202232 -0.0157847 4.01957e-20)
(0.216952 -0.0242133 1.371e-21)
(0.228844 -0.0325844 5.21012e-21)
(0.239913 -0.039682 -1.98602e-20)
(0.250122 -0.0456093 2.55126e-20)
(0.25963 -0.0505195 5.6977e-21)
(0.268726 -0.0544831 -1.16848e-20)
(0.277627 -0.057588 -2.34486e-20)
(0.286519 -0.0599164 1.47573e-20)
(0.295544 -0.0615486 2.58156e-21)
(0.304803 -0.0625627 1.38563e-20)
(0.314364 -0.0630335 -1.7007e-20)
(0.324268 -0.0630318 2.79504e-21)
(0.334534 -0.0626229 2.59731e-21)
(0.345162 -0.0618669 -8.71285e-22)
(0.356143 -0.0608181 6.10737e-21)
(0.367457 -0.0595251 -7.91987e-22)
(0.291283 -0.0480154 1.13049e-20)
(0.299843 -0.0528229 7.37586e-21)
(0.307872 -0.0567563 -1.18164e-20)
(0.315629 -0.0598829 1.44054e-22)
(0.323324 -0.0622658 -6.1018e-21)
(0.331119 -0.0639689 1.03599e-21)
(0.33913 -0.065058 2.62732e-20)
(0.347436 -0.0655995 -2.35655e-20)
(0.356086 -0.0656581 5.78171e-21)
(0.365109 -0.065296 4.40567e-21)
(0.374511 -0.0645714 -1.65549e-21)
(0.384286 -0.0635381 4.5654e-21)
(0.394419 -0.0622453 -9.72951e-21)
)
;

boundaryField
{
    inlet
    {
        type            uniformFixedValue;
        uniformValue    constant (1 0 0);
        value           nonuniform 0();
    }
    outlet
    {
        type            pressureInletOutletVelocity;
        value           nonuniform 0();
    }
    cylinder
    {
        type            fixedValue;
        value           nonuniform 0();
    }
    top
    {
        type            symmetryPlane;
    }
    bottom
    {
        type            symmetryPlane;
    }
    defaultFaces
    {
        type            empty;
    }
    procBoundary22to16
    {
        type            processor;
        value           nonuniform List<vector> 
33
(
(-0.024331 0.00156297 2.3566e-21)
(-0.025874 0.0015007 -2.22196e-21)
(-0.0273871 0.00143159 -2.94427e-21)
(-0.0288602 0.00135682 -1.10531e-21)
(-0.0302839 0.00127778 3.11737e-21)
(-0.0316503 0.001196 1.35027e-21)
(-0.0329527 0.00111321 -4.77587e-21)
(-0.0341866 0.00103128 2.75649e-21)
(-0.0341866 0.00103128 2.75649e-21)
(-0.0353496 -0.000952206 -3.18156e-21)
(-0.0364423 -0.000878036 8.40268e-21)
(-0.0374682 -0.000810836 1.42434e-21)
(-0.0384338 -0.000752499 -2.41474e-21)
(-0.0393462 -0.000704655 -6.8175e-22)
(-0.0402134 -0.000669253 -1.31155e-21)
(-0.0410781 -0.000648694 3.08686e-21)
(-0.0429582 -0.000623548 -1.03606e-21)
(-0.0449446 -9.69057e-05 4.77703e-22)
(-0.0442198 0.000367612 -6.70072e-22)
(-0.0415594 0.000863183 -2.36445e-22)
(-0.0364808 0.00131857 1.87126e-21)
(-0.0291603 0.00171601 -1.11615e-21)
(-0.0197379 0.0020466 -3.41161e-22)
(-0.00842374 0.00230916 7.72874e-22)
(0.00455466 0.00250839 -1.51078e-22)
(0.0189738 0.00265147 -2.98755e-22)
(0.0346237 0.00274647 9.37145e-23)
(0.0513139 0.00280126 7.94333e-22)
(0.0688751 0.00282295 -4.88293e-22)
(0.0871576 0.00281771 -8.87187e-23)
(0.10603 0.00279075 -3.24154e-24)
(0.125377 0.0027464 -2.14614e-22)
(0.145095 0.00268827 2.71518e-22)
)
;
    }
    procBoundary22to21
    {
        type            processor;
        value           nonuniform List<vector> 
16
(
(-0.0224115 0.00479859 -1.2062e-20)
(-0.0216834 0.00782037 -7.36102e-21)
(-0.0216543 0.0101928 -2.28046e-20)
(-0.0216543 0.0101928 -2.28046e-20)
(-0.0197764 0.0124798 -1.73104e-20)
(-0.0173232 0.01432 -5.80116e-20)
(-0.0139953 0.0148002 -2.04348e-20)
(-0.0139953 0.0148002 -2.04348e-20)
(-0.00956853 0.0154009 -2.16467e-20)
(-0.00244849 0.0141756 3.08045e-20)
(-0.00244849 0.0141756 3.08045e-20)
(0.00770693 0.0119563 3.65063e-20)
(0.00770693 0.0119563 3.65063e-20)
(0.0171762 0.0103874 1.17488e-20)
(0.0336654 0.00653166 -4.63834e-20)
(0.0336654 0.00653166 -4.63834e-20)
)
;
    }
    procBoundary22to23
    {
        type            processor;
        value           nonuniform List<vector> 
16
(
(0.165095 -0.00261927 -1.32886e-23)
(0.167597 -0.00784316 8.31634e-22)
(0.172582 -0.0130231 4.87157e-22)
(0.18001 -0.0181301 1.4216e-21)
(0.189821 -0.0231358 -1.41451e-21)
(0.201939 -0.0280127 2.5783e-22)
(0.216268 -0.0327342 -2.18321e-21)
(0.232698 -0.0372751 -1.95484e-21)
(0.251101 -0.0416116 6.20799e-23)
(0.271338 -0.0457215 9.6863e-22)
(0.271338 -0.0457215 9.6863e-22)
(0.308042 -0.048241 3.66517e-22)
(0.330484 -0.0517726 -1.12751e-21)
(0.354218 -0.0550401 4.60851e-21)
(0.379076 -0.0580316 -3.1817e-22)
(0.404886 -0.0607375 -1.26574e-20)
)
;
    }
    procBoundary22to27
    {
        type            processor;
        value           nonuniform List<vector> 
11
(
(0.0549409 0.00198396 -2.77291e-20)
(0.0549409 0.00198396 -2.77291e-20)
(0.0817468 -0.00298411 -1.63999e-20)
(0.0817468 -0.00298411 -1.63999e-20)
(0.114854 -0.00799734 -2.24588e-19)
(0.114854 -0.00799734 -2.24588e-19)
(0.155049 -0.0125611 -2.11602e-19)
(0.155049 -0.0125611 -2.11602e-19)
(0.203129 -0.0160415 -4.93342e-21)
(0.203129 -0.0160415 -4.93342e-21)
(0.259912 -0.0176436 -1.35349e-19)
)
;
    }
    procBoundary22to28
    {
        type            processor;
        value           nonuniform List<vector> 
26
(
(0.241536 -0.0123208 -2.00809e-20)
(0.260814 -0.00833349 -4.24251e-21)
(0.239061 -0.00262258 -5.02737e-21)
(0.241091 -0.0171684 1.05437e-19)
(0.241536 -0.0123208 -2.00809e-20)
(0.261658 -0.0167562 -1.23347e-19)
(0.241091 -0.0171684 1.05437e-19)
(0.239061 -0.00262258 -5.02737e-21)
(0.243783 -0.0188958 -1.54653e-20)
(0.259229 -0.0272783 1.03337e-20)
(0.271212 -0.0354307 -1.86606e-20)
(0.281832 -0.0422763 3.20739e-20)
(0.281832 -0.0422763 3.20739e-20)
(0.334667 -0.0499572 5.25651e-21)
(0.341973 -0.0546383 -1.46233e-20)
(0.348698 -0.0585363 2.19884e-21)
(0.355126 -0.0616902 3.2875e-21)
(0.361481 -0.0641397 2.67979e-20)
(0.367931 -0.06593 -1.85612e-21)
(0.374599 -0.0671133 -2.07225e-20)
(0.381572 -0.067746 3.64044e-21)
(0.388904 -0.0678863 3.69167e-21)
(0.396628 -0.0675925 -8.0137e-21)
(0.404754 -0.0669206 4.0108e-21)
(0.413281 -0.0659239 -2.35524e-21)
(0.422195 -0.0646516 6.15999e-21)
)
;
    }
}


// ************************************************************************* //
