/*--------------------------------*- C++ -*----------------------------------*\
  =========                 |
  \\      /  F ield         | OpenFOAM: The Open Source CFD Toolbox
   \\    /   O peration     | Website:  https://openfoam.org
    \\  /    A nd           | Version:  7
     \\/     M anipulation  |
\*---------------------------------------------------------------------------*/
FoamFile
{
    version     2.0;
    format      ascii;
    class       volScalarField;
    location    "0.2";
    object      T;
}
// * * * * * * * * * * * * * * * * * * * * * * * * * * * * * * * * * * * * * //

dimensions      [0 0 0 1 0 0 0];

internalField   nonuniform List<scalar> 
580608
(
1
1
1
1
1
1
1
1
1
1
1
1
1
1
1
1
1
1
1
1
1
1
1
1
1
1
1
1
1
1
1
1
1
1
1
1
1
1
1
1
1
1
1
1
1
1
1
1
1
1
1
1
1
1
1
1
1
1
1
1
1
1
1
1
1
1
1
1
1
1
1
1
1
1
1
1
1
1
1
1
1
1
1
1
1
1
1
1
1
1
1
1
1
1
1
1
1
1
1
1
1
1
1
1
1
1
1
1
1
1
1
1
1
1
1
1
1
1
1
1
1
1
1
1
1
1
1
1
1
1
1
1
1
1
1
1
1
1
1
1
1
1
1
1
1
1
1
1
1
1
1
1
1
1
1
1
1
1
1
1
1
1
1
1
1
1
1
1
1
1
1
1
1
1
1
1
1
1
1
1
1
1
1
1
1
1
1
1
1
1
1
1
1
1
1
1
1
1
1
1
1
1
1
1
1
1
1
1
1
1
1
1
1
1
1
1.44263
2.81131
3.23332
3.2497
3.24201
3.23219
3.23839
3.25356
3.26854
3.27827
3.28144
3.28072
3.28621
3.29915
3.31189
3.32193
3.32827
3.33269
3.34117
3.35424
3.36898
3.38444
3.40115
3.42194
3.44939
3.48148
3.51242
3.53649
3.55168
3.56072
3.56646
3.56922
3.56975
3.56927
3.56877
3.56885
3.56906
3.56889
3.56825
3.56753
3.56713
3.56703
3.56696
3.56673
3.56633
3.56597
3.56581
3.56587
3.56595
3.5659
3.56551
3.56463
3.56311
3.56102
3.55833
3.55462
3.55021
3.5461
3.54335
3.54214
3.54227
3.54466
3.5509
3.5615
3.57508
3.58852
3.5988
3.6048
3.60743
3.6085
3.60912
3.60942
3.60981
1
1
1
1
1
1
1
1
1
1
1
1
1
1
1
1
1
1
1
1
1
1
1
1
1
1
1
1
1
1
1
1
1
1
1
1
1
1
1
1
1
1
1
1
1
1
1
1
1
1
1
1
1
1
1
1
1
1
1
1
1
1
1
1
1
1
1
1
1
1
1
1
1
1
1
1
1
1
1
1
1
1
1
1
1
1
1
1
1
1
1
1
1
1
1
1
1
1
1
1
1
1
1
1
1
1
1
1
1
1
1
1
1
1
1
1
1
1
1
1
1
1
1
1
1
1
1
1
1
1
1
1
1
1
1
1
1
1
1
1
1
1
1
1
1
1
1
1
1
1
1
1
1
1
1
1
1
1
1
1
1
1
1
1
1
1
1
1
1
1
1
1
1
1
1
1
1
1
1
1
1
1
1
1
1
1
1
1
1
1
1
1
1
1
1
1
1
1
1
1
1
1
1
1
1
1
1
1
1
1
1
1
1
1
1
1.43551
2.8085
3.23358
3.24983
3.24167
3.23205
3.2385
3.25374
3.26864
3.27829
3.28135
3.28066
3.28628
3.29925
3.31196
3.32193
3.3282
3.33267
3.34124
3.35435
3.36909
3.38451
3.40121
3.42203
3.44953
3.48162
3.51252
3.5365
3.55157
3.56067
3.56647
3.56923
3.56972
3.56923
3.56876
3.56885
3.56907
3.56888
3.56822
3.5675
3.56712
3.56704
3.56697
3.56673
3.56634
3.56598
3.56582
3.56587
3.56594
3.56589
3.56551
3.56462
3.56309
3.56101
3.55831
3.55461
3.55021
3.54612
3.54337
3.54215
3.54225
3.54463
3.55086
3.56147
3.57506
3.58852
3.59881
3.6048
3.60743
3.60848
3.60909
3.60938
3.60977
1
1
1
1
1
1
1
1
1
1
1
1
1
1
1
1
1
1
1
1
1
1
1
1
1
1
1
1
1
1
1
1
1
1
1
1
1
1
1
1
1
1
1
1
1
1
1
1
1
1
1
1
1
1
1
1
1
1
1
1
1
1
1
1
1
1
1
1
1
1
1
1
1
1
1
1
1
1
1
1
1
1
1
1
1
1
1
1
1
1
1
1
1
1
1
1
1
1
1
1
1
1
1
1
1
1
1
1
1
1
1
1
1
1
1
1
1
1
1
1
1
1
1
1
1
1
1
1
1
1
1
1
1
1
1
1
1
1
1
1
1
1
1
1
1
1
1
1
1
1
1
1
1
1
1
1
1
1
1
1
1
1
1
1
1
1
1
1
1
1
1
1
1
1
1
1
1
1
1
1
1
1
1
1
1
1
1
1
1
1
1
1
1
1
1
1
1
1
1
1
1
1
1
1
1
1
1
1
1
1
1
1
1
1
1
1.4191
2.80195
3.23437
3.24961
3.24097
3.23163
3.23845
3.25386
3.26862
3.27817
3.28105
3.2804
3.28627
3.2993
3.31197
3.32181
3.32799
3.33251
3.34124
3.35443
3.36915
3.38452
3.40116
3.42203
3.44959
3.48166
3.51244
3.53624
3.55119
3.56042
3.56637
3.56915
3.56959
3.5691
3.56869
3.56882
3.56905
3.56883
3.56815
3.56743
3.56708
3.56701
3.56694
3.5667
3.56631
3.56594
3.56577
3.56581
3.56589
3.56584
3.56546
3.56457
3.56304
3.56095
3.55826
3.55458
3.5502
3.54612
3.54337
3.54213
3.54221
3.54456
3.55079
3.56142
3.57503
3.58851
3.59881
3.60481
3.60742
3.60846
3.60905
3.60933
3.60972
1
1
1
1
1
1
1
1
1
1
1
1
1
1
1
1
1
1
1
1
1
1
1
1
1
1
1
1
1
1
1
1
1
1
1
1
1
1
1
1
1
1
1
1
1
1
1
1
1
1
1
1
1
1
1
1
1
1
1
1
1
1
1
1
1
1
1
1
1
1
1
1
1
1
1
1
1
1
1
1
1
1
1
1
1
1
1
1
1
1
1
1
1
1
1
1
1
1
1
1
1
1
1
1
1
1
1
1
1
1
1
1
1
1
1
1
1
1
1
1
1
1
1
1
1
1
1
1
1
1
1
1
1
1
1
1
1
1
1
1
1
1
1
1
1
1
1
1
1
1
1
1
1
1
1
1
1
1
1
1
1
1
1
1
1
1
1
1
1
1
1
1
1
1
1
1
1
1
1
1
1
1
1
1
1
1
1
1
1
1
1
1
1
1
1
1
1
1
1
1
1
1
1
1
1
1
1
1
1
1
1
1
1
1
1
1.39525
2.79244
3.23561
3.24926
3.2399
3.23103
3.23847
3.25408
3.26869
3.278
3.28058
3.27999
3.28623
3.29937
3.31194
3.3216
3.32763
3.3322
3.34116
3.35446
3.36916
3.38443
3.40096
3.42182
3.4494
3.48138
3.51193
3.53547
3.55036
3.55985
3.56604
3.56891
3.56935
3.5689
3.56859
3.5688
3.56904
3.56881
3.5681
3.56739
3.56706
3.567
3.56693
3.56668
3.56628
3.56591
3.56574
3.56577
3.56584
3.56579
3.56542
3.56453
3.56298
3.5609
3.55822
3.55455
3.55019
3.54615
3.54339
3.54211
3.54215
3.54448
3.5507
3.56133
3.57498
3.58849
3.59881
3.60481
3.60741
3.60842
3.60899
3.60927
3.60966
1
1
1
1
1
1
1
1
1
1
1
1
1
1
1
1
1
1
1
1
1
1
1
1
1
1
1
1
1
1
1
1
1
1
1
1
1
1
1
1
1
1
1
1
1
1
1
1
1
1
1
1
1
1
1
1
1
1
1
1
1
1
1
1
1
1
1
1
1
1
1
1
1
1
1
1
1
1
1
1
1
1
1
1
1
1
1
1
1
1
1
1
1
1
1
1
1
1
1
1
1
1
1
1
1
1
1
1
1
1
1
1
1
1
1
1
1
1
1
1
1
1
1
1
1
1
1
1
1
1
1
1
1
1
1
1
1
1
1
1
1
1
1
1
1
1
1
1
1
1
1
1
1
1
1
1
1
1
1
1
1
1
1
1
1
1
1
1
1
1
1
1
1
1
1
1
1
1
1
1
1
1
1
1
1
1
1
1
1
1
1
1
1
1
1
1
1
1
1
1
1
1
1
1
1
1
1
1
1
1
1
1
1
1
1
1.36483
2.78039
3.23735
3.24884
3.23839
3.23025
3.2385
3.25442
3.26879
3.27777
3.27991
3.2794
3.28619
3.29943
3.31189
3.32133
3.32711
3.33173
3.34101
3.35447
3.36916
3.38427
3.40061
3.42137
3.44887
3.48059
3.51077
3.53403
3.54897
3.55885
3.56541
3.56846
3.56895
3.56858
3.56843
3.56872
3.56899
3.56873
3.568
3.56733
3.56702
3.56695
3.56687
3.56661
3.56622
3.56586
3.56568
3.56571
3.56577
3.56573
3.56536
3.56447
3.56291
3.56083
3.55817
3.55451
3.55019
3.54617
3.5434
3.54207
3.54207
3.54437
3.55057
3.56122
3.5749
3.58844
3.59879
3.60479
3.60737
3.60836
3.60892
3.60919
3.60959
1
1
1
1
1
1
1
1
1
1
1
1
1
1
1
1
1
1
1
1
1
1
1
1
1
1
1
1
1
1
1
1
1
1
1
1
1
1
1
1
1
1
1
1
1
1
1
1
1
1
1
1
1
1
1
1
1
1
1
1
1
1
1
1
1
1
1
1
1
1
1
1
1
1
1
1
1
1
1
1
1
1
1
1
1
1
1
1
1
1
1
1
1
1
1
1
1
1
1
1
1
1
1
1
1
1
1
1
1
1
1
1
1
1
1
1
1
1
1
1
1
1
1
1
1
1
1
1
1
1
1
1
1
1
1
1
1
1
1
1
1
1
1
1
1
1
1
1
1
1
1
1
1
1
1
1
1
1
1
1
1
1
1
1
1
1
1
1
1
1
1
1
1
1
1
1
1
1
1
1
1
1
1
1
1
1
1
1
1
1
1
1
1
1
1
1
1
1
1
1
1
1
1
1
1
1
1
1
1
1
1
1
1
1
1
1.32781
2.7656
3.23952
3.24829
3.23648
3.22948
3.23868
3.25495
3.26896
3.27751
3.27907
3.27872
3.28623
3.29957
3.31187
3.32102
3.32649
3.33119
3.34087
3.35453
3.36919
3.38412
3.40017
3.42074
3.448
3.47924
3.50885
3.53173
3.5468
3.55722
3.5643
3.5677
3.56837
3.56815
3.56821
3.56864
3.56891
3.56864
3.56792
3.56729
3.567
3.56691
3.5668
3.56653
3.56615
3.56581
3.56563
3.56564
3.5657
3.56565
3.56528
3.56439
3.56283
3.56075
3.55811
3.55447
3.55018
3.5462
3.54341
3.54202
3.54197
3.54424
3.55041
3.56107
3.57478
3.58837
3.59875
3.60475
3.60732
3.60828
3.60883
3.6091
3.60952
1
1
1
1
1
1
1
1
1
1
1
1
1
1
1
1
1
1
1
1
1
1
1
1
1
1
1
1
1
1
1
1
1
1
1
1
1
1
1
1
1
1
1
1
1
1
1
1
1
1
1
1
1
1
1
1
1
1
1
1
1
1
1
1
1
1
1
1
1
1
1
1
1
1
1
1
1
1
1
1
1
1
1
1
1
1
1
1
1
1
1
1
1
1
1
1
1
1
1
1
1
1
1
1
1
1
1
1
1
1
1
1
1
1
1
1
1
1
1
1
1
1
1
1
1
1
1
1
1
1
1
1
1
1
1
1
1
1
1
1
1
1
1
1
1
1
1
1
1
1
1
1
1
1
1
1
1
1
1
1
1
1
1
1
1
1
1
1
1
1
1
1
1
1
1
1
1
1
1
1
1
1
1
1
1
1
1
1
1
1
1
1
1
1
1
1
1
1
1
1
1
1
1
1
1
1
1
1
1
1
1
1
1
1
1
1.2847
2.74785
3.24194
3.24751
3.23417
3.2288
3.23902
3.25565
3.26915
3.27716
3.27804
3.27798
3.28637
3.29974
3.31186
3.32065
3.32574
3.33059
3.34076
3.35465
3.36929
3.384
3.39971
3.42005
3.44694
3.47748
3.50628
3.52866
3.5439
3.55496
3.56268
3.56657
3.56759
3.56766
3.56797
3.56851
3.56879
3.5685
3.56782
3.56725
3.56698
3.56686
3.5667
3.56641
3.56606
3.56574
3.56557
3.56556
3.56561
3.56555
3.56519
3.5643
3.56274
3.56066
3.55803
3.55442
3.55017
3.54621
3.5434
3.54196
3.54185
3.54408
3.55024
3.5609
3.57464
3.58827
3.59868
3.6047
3.60725
3.60818
3.60872
3.60901
3.60945
1
1
1
1
1
1
1
1
1
1
1
1
1
1
1
1
1
1
1
1
1
1
1
1
1
1
1
1
1
1
1
1
1
1
1
1
1
1
1
1
1
1
1
1
1
1
1
1
1
1
1
1
1
1
1
1
1
1
1
1
1
1
1
1
1
1
1
1
1
1
1
1
1
1
1
1
1
1
1
1
1
1
1
1
1
1
1
1
1
1
1
1
1
1
1
1
1
1
1
1
1
1
1
1
1
1
1
1
1
1
1
1
1
1
1
1
1
1
1
1
1
1
1
1
1
1
1
1
1
1
1
1
1
1
1
1
1
1
1
1
1
1
1
1
1
1
1
1
1
1
1
1
1
1
1
1
1
1
1
1
1
1
1
1
1
1
1
1
1
1
1
1
1
1
1
1
1
1
1
1
1
1
1
1
1
1
1
1
1
1
1
1
1
1
1
1
1
1
1
1
1
1
1
1
1
1
1
1
1
1
1
1
1
1
1
1.23677
2.72715
3.24441
3.24645
3.23142
3.22824
3.23947
3.25647
3.26932
3.27665
3.27682
3.27721
3.28662
3.29995
3.31183
3.32019
3.32484
3.32996
3.34071
3.35481
3.36944
3.38392
3.39929
3.41941
3.44585
3.47549
3.50327
3.52499
3.54037
3.55209
3.56053
3.56501
3.56655
3.56705
3.56768
3.56832
3.5686
3.56832
3.56771
3.56722
3.56696
3.5668
3.56658
3.56628
3.56595
3.56567
3.56549
3.56546
3.5655
3.56544
3.56509
3.56421
3.56265
3.56057
3.55794
3.55436
3.55014
3.5462
3.54338
3.54188
3.54172
3.54392
3.55004
3.5607
3.57447
3.58815
3.59859
3.60462
3.60716
3.60806
3.60861
3.6089
3.60937
1
1
1
1
1
1
1
1
1
1
1
1
1
1
1
1
1
1
1
1
1
1
1
1
1
1
1
1
1
1
1
1
1
1
1
1
1
1
1
1
1
1
1
1
1
1
1
1
1
1
1
1
1
1
1
1
1
1
1
1
1
1
1
1
1
1
1
1
1
1
1
1
1
1
1
1
1
1
1
1
1
1
1
1
1
1
1
1
1
1
1
1
1
1
1
1
1
1
1
1
1
1
1
1
1
1
1
1
1
1
1
1
1
1
1
1
1
1
1
1
1
1
1
1
1
1
1
1
1
1
1
1
1
1
1
1
1
1
1
1
1
1
1
1
1
1
1
1
1
1
1
1
1
1
1
1
1
1
1
1
1
1
1
1
1
1
1
1
1
1
1
1
1
1
1
1
1
1
1
1
1
1
1
1
1
1
1
1
1
1
1
1
1
1
1
1
1
1
1
1
1
1
1
1
1
1
1
1
1
1
1
1
1
1
1
1.18585
2.70366
3.24671
3.24497
3.22833
3.22777
3.2401
3.25732
3.26946
3.27594
3.27539
3.27647
3.28695
3.30018
3.31174
3.3196
3.3238
3.32931
3.34069
3.35501
3.36961
3.38384
3.39891
3.41886
3.4448
3.47339
3.49994
3.52085
3.53631
3.54869
3.5579
3.56308
3.56524
3.56629
3.56727
3.56805
3.56835
3.5681
3.56759
3.56718
3.56693
3.56672
3.56645
3.56615
3.56585
3.56558
3.56539
3.56534
3.56536
3.56532
3.56498
3.56412
3.56256
3.56047
3.55784
3.55428
3.55009
3.54617
3.54334
3.54179
3.54159
3.54374
3.54983
3.56049
3.57429
3.58801
3.59848
3.60452
3.60705
3.60793
3.60847
3.60879
3.60928
1
1
1
1
1
1
1
1
1
1
1
1
1
1
1
1
1
1
1
1
1
1
1
1
1
1
1
1
1
1
1
1
1
1
1
1
1
1
1
1
1
1
1
1
1
1
1
1
1
1
1
1
1
1
1
1
1
1
1
1
1
1
1
1
1
1
1
1
1
1
1
1
1
1
1
1
1
1
1
1
1
1
1
1
1
1
1
1
1
1
1
1
1
1
1
1
1
1
1
1
1
1
1
1
1
1
1
1
1
1
1
1
1
1
1
1
1
1
1
1
1
1
1
1
1
1
1
1
1
1
1
1
1
1
1
1
1
1
1
1
1
1
1
1
1
1
1
1
1
1
1
1
1
1
1
1
1
1
1
1
1
1
1
1
1
1
1
1
1
1
1
1
1
1
1
1
1
1
1
1
1
1
1
1
1
1
1
1
1
1
1
1
1
1
1
1
1
1
1
1
1
1
1
1
1
1
1
1
1
1
1
1
1
1
1
1.13402
2.67751
3.24859
3.2427
3.2252
3.22743
3.24096
3.25812
3.26954
3.27494
3.27375
3.2758
3.28735
3.30041
3.31157
3.31886
3.32262
3.32868
3.34073
3.3552
3.36974
3.38371
3.39855
3.41843
3.44382
3.47123
3.49637
3.51635
3.53183
3.54484
3.55483
3.56077
3.56363
3.56531
3.56671
3.56769
3.56804
3.56785
3.56745
3.56712
3.56688
3.56663
3.56632
3.56602
3.56574
3.56548
3.56527
3.56519
3.56521
3.56518
3.56488
3.56403
3.56247
3.56036
3.55772
3.55418
3.55001
3.54612
3.54329
3.5417
3.54144
3.54355
3.54961
3.56026
3.57408
3.58785
3.59836
3.60441
3.60692
3.60778
3.60832
3.60865
3.60917
1
1
1
1
1
1
1
1
1
1
1
1
1
1
1
1
1
1
1
1
1
1
1
1
1
1
1
1
1
1
1
1
1
1
1
1
1
1
1
1
1
1
1
1
1
1
1
1
1
1
1
1
1
1
1
1
1
1
1
1
1
1
1
1
1
1
1
1
1
1
1
1
1
1
1
1
1
1
1
1
1
1
1
1
1
1
1
1
1
1
1
1
1
1
1
1
1
1
1
1
1
1
1
1
1
1
1
1
1
1
1
1
1
1
1
1
1
1
1
1
1
1
1
1
1
1
1
1
1
1
1
1
1
1
1
1
1
1
1
1
1
1
1
1
1
1
1
1
1
1
1
1
1
1
1
1
1
1
1
1
1
1
1
1
1
1
1
1
1
1
1
1
1
1
1
1
1
1
1
1
1
1
1
1
1
1
1
1
1
1
1
1
1
1
1
1
1
1
1
1
1
1
1
1
1
1
1
1
1
1
1
1
1
1
1
1.08399
2.64869
3.24966
3.23946
3.22225
3.22734
3.24204
3.2588
3.26958
3.27361
3.27194
3.27529
3.28778
3.30063
3.31129
3.31794
3.32133
3.32811
3.34081
3.35538
3.36981
3.38351
3.39821
3.41811
3.4429
3.46902
3.49263
3.51158
3.52702
3.54061
3.55136
3.55809
3.56171
3.56408
3.56598
3.56724
3.56769
3.56756
3.56726
3.56701
3.56679
3.56652
3.5662
3.5659
3.56564
3.56536
3.56511
3.56501
3.56504
3.56503
3.56476
3.56393
3.56237
3.56025
3.55759
3.55406
3.54992
3.54604
3.54322
3.5416
3.54128
3.54335
3.54937
3.56002
3.57387
3.58767
3.59822
3.60428
3.60678
3.6076
3.60815
3.6085
3.60905
1
1
1
1
1
1
1
1
1
1
1
1
1
1
1
1
1
1
1
1
1
1
1
1
1
1
1
1
1
1
1
1
1
1
1
1
1
1
1
1
1
1
1
1
1
1
1
1
1
1
1
1
1
1
1
1
1
1
1
1
1
1
1
1
1
1
1
1
1
1
1
1
1
1
1
1
1
1
1
1
1
1
1
1
1
1
1
1
1
1
1
1
1
1
1
1
1
1
1
1
1
1
1
1
1
1
1
1
1
1
1
1
1
1
1
1
1
1
1
1
1
1
1
1
1
1
1
1
1
1
1
1
1
1
1
1
1
1
1
1
1
1
1
1
1
1
1
1
1
1
1
1
1
1
1
1
1
1
1
1
1
1
1
1
1
1
1
1
1
1
1
1
1
1
1
1
1
1
1
1
1
1
1
1
1
1
1
1
1
1
1
1
1
1
1
1
1
1
1
1
1
1
1
1
1
1
1
1
1
1
1
1
1
1
1
1.03978
2.61717
3.24946
3.23519
3.21965
3.22757
3.24339
3.25947
3.26938
3.27194
3.27001
3.27502
3.28819
3.30082
3.3109
3.31681
3.31998
3.32766
3.34092
3.35552
3.3698
3.3832
3.39788
3.41788
3.44203
3.46676
3.48875
3.50661
3.52195
3.53604
3.54749
3.55501
3.55945
3.56258
3.56507
3.56667
3.56727
3.56723
3.56702
3.56684
3.56666
3.5664
3.56608
3.5658
3.56554
3.56523
3.56494
3.56481
3.56485
3.56487
3.56463
3.56382
3.56227
3.56013
3.55744
3.55392
3.5498
3.54594
3.54313
3.54148
3.54112
3.54315
3.54913
3.55977
3.57364
3.58749
3.59806
3.60414
3.60662
3.60741
3.60795
3.60834
3.60891
1
1
1
1
1
1
1
1
1
1
1
1
1
1
1
1
1
1
1
1
1
1
1
1
1
1
1
1
1
1
1
1
1
1
1
1
1
1
1
1
1
1
1
1
1
1
1
1
1
1
1
1
1
1
1
1
1
1
1
1
1
1
1
1
1
1
1
1
1
1
1
1
1
1
1
1
1
1
1
1
1
1
1
1
1
1
1
1
1
1
1
1
1
1
1
1
1
1
1
1
1
1
1
1
1
1
1
1
1
1
1
1
1
1
1
1
1
1
1
1
1
1
1
1
1
1
1
1
1
1
1
1
1
1
1
1
1
1
1
1
1
1
1
1
1
1
1
1
1
1
1
1
1
1
1
1
1
1
1
1
1
1
1
1
1
1
1
1
1
1
1
1
1
1
1
1
1
1
1
1
1
1
1
1
1
1
1
1
1
1
1
1
1
1
1
1
1
1
1
1
1
1
1
1
1
1
1
1
1
1
1
1
1
1
1
1.00799
2.58294
3.24744
3.22992
3.21758
3.22817
3.24501
3.26008
3.26886
3.26988
3.26807
3.27503
3.2886
3.30097
3.31037
3.31544
3.3186
3.32734
3.34106
3.35561
3.36968
3.38279
3.3976
3.41775
3.44119
3.46446
3.48475
3.5015
3.51668
3.53117
3.54323
3.55153
3.55683
3.56082
3.56396
3.56597
3.56678
3.56684
3.56672
3.56661
3.56649
3.56627
3.56597
3.5657
3.56543
3.56508
3.56474
3.5646
3.56464
3.56469
3.56448
3.5637
3.56216
3.56
3.55728
3.55376
3.54967
3.54582
3.54302
3.54136
3.54094
3.54293
3.54887
3.5595
3.5734
3.58729
3.59789
3.60398
3.60643
3.6072
3.60774
3.60815
3.60876
1
1
1
1
1
1
1
1
1
1
1
1
1
1
1
1
1
1
1
1
1
1
1
1
1
1
1
1
1
1
1
1
1
1
1
1
1
1
1
1
1
1
1
1
1
1
1
1
1
1
1
1
1
1
1
1
1
1
1
1
1
1
1
1
1
1
1
1
1
1
1
1
1
1
1
1
1
1
1
1
1
1
1
1
1
1
1
1
1
1
1
1
1
1
1
1
1
1
1
1
1
1
1
1
1
1
1
1
1
1
1
1
1
1
1
1
1
1
1
1
1
1
1
1
1
1
1
1
1
1
1
1
1
1
1
1
1
1
1
1
1
1
1
1
1
1
1
1
1
1
1
1
1
1
1
1
1
1
1
1
1
1
1
1
1
1
1
1
1
1
1
1
1
1
1
1
1
1
1
1
1
1
1
1
1
1
1
1
1
1
1
1
1
1
1
1
1
1
1
1
1
1
1
1
1
1
1
1
1
1
1
1
1
1
1
1
2.54586
3.2432
3.22383
3.21618
3.2291
3.2469
3.26054
3.26794
3.26738
3.26627
3.27531
3.28903
3.30108
3.30969
3.31381
3.31726
3.32716
3.3412
3.35566
3.36944
3.38228
3.39739
3.4177
3.44036
3.46209
3.48066
3.49629
3.51125
3.52599
3.53857
3.54761
3.55384
3.55877
3.56265
3.5651
3.56617
3.56639
3.56635
3.56633
3.56628
3.56611
3.56584
3.56558
3.56531
3.56493
3.56455
3.56438
3.56443
3.56448
3.5643
3.56356
3.56204
3.55986
3.55711
3.5536
3.54952
3.54569
3.54291
3.54121
3.54074
3.54269
3.54859
3.55923
3.57315
3.58708
3.59771
3.60379
3.60622
3.60696
3.60751
3.60795
3.6086
1
1
1
1
1
1
1
1
1
1
1
1
1
1
1
1
1
1
1
1
1
1
1
1
1
1
1
1
1
1
1
1
1
1
1
1
1
1
1
1
1
1
1
1
1
1
1
1
1
1
1
1
1
1
1
1
1
1
1
1
1
1
1
1
1
1
1
1
1
1
1
1
1
1
1
1
1
1
1
1
1
1
1
1
1
1
1
1
1
1
1
1
1
1
1
1
1
1
1
1
1
1
1
1
1
1
1
1
1
1
1
1
1
1
1
1
1
1
1
1
1
1
1
1
1
1
1
1
1
1
1
1
1
1
1
1
1
1
1
1
1
1
1
1
1
1
1
1
1
1
1
1
1
1
1
1
1
1
1
1
1
1
1
1
1
1
1
1
1
1
1
1
1
1
1
1
1
1
1
1
1
1
1
1
1
1
1
1
1
1
1
1
1
1
1
1
1
1
1
1
1
1
1
1
1
1
1
1
1
1
1
1
1
1
1
1
2.50341
3.23614
3.2173
3.2155
3.23042
3.2489
3.26084
3.26652
3.26439
3.26477
3.27588
3.28948
3.30111
3.30877
3.31194
3.31604
3.32712
3.34134
3.35564
3.36907
3.38171
3.39729
3.41773
3.43953
3.45967
3.4765
3.49102
3.50569
3.52054
3.53352
3.54327
3.55048
3.55642
3.5611
3.56405
3.56541
3.56584
3.56596
3.56601
3.56603
3.56591
3.56567
3.56544
3.56518
3.56477
3.56435
3.56415
3.56419
3.56426
3.5641
3.56339
3.56189
3.55971
3.55693
3.55342
3.54936
3.54555
3.54278
3.54106
3.54053
3.54243
3.5483
3.55893
3.57288
3.58685
3.59751
3.60359
3.60598
3.60668
3.60725
3.60774
3.60844
1
1
1
1
1
1
1
1
1
1
1
1
1
1
1
1
1
1
1
1
1
1
1
1
1
1
1
1
1
1
1
1
1
1
1
1
1
1
1
1
1
1
1
1
1
1
1
1
1
1
1
1
1
1
1
1
1
1
1
1
1
1
1
1
1
1
1
1
1
1
1
1
1
1
1
1
1
1
1
1
1
1
1
1
1
1
1
1
1
1
1
1
1
1
1
1
1
1
1
1
1
1
1
1
1
1
1
1
1
1
1
1
1
1
1
1
1
1
1
1
1
1
1
1
1
1
1
1
1
1
1
1
1
1
1
1
1
1
1
1
1
1
1
1
1
1
1
1
1
1
1
1
1
1
1
1
1
1
1
1
1
1
1
1
1
1
1
1
1
1
1
1
1
1
1
1
1
1
1
1
1
1
1
1
1
1
1
1
1
1
1
1
1
1
1
1
1
1
1
1
1
1
1
1
1
1
1
1
1
1
1
1
1
1
1
1
2.45343
3.22518
3.21122
3.21526
3.23249
3.25055
3.26107
3.26441
3.26113
3.2638
3.27656
3.28993
3.30097
3.30755
3.30985
3.31505
3.32721
3.34145
3.35553
3.36855
3.3811
3.39732
3.41784
3.43869
3.45717
3.47227
3.48575
3.50004
3.51484
3.52807
3.5385
3.54672
3.55375
3.55927
3.56276
3.56448
3.56519
3.56552
3.56568
3.56573
3.56565
3.56545
3.56527
3.56504
3.56463
3.56417
3.56392
3.56394
3.56401
3.56388
3.5632
3.56173
3.55954
3.55674
3.55322
3.54919
3.5454
3.54264
3.54089
3.5403
3.54215
3.54798
3.55862
3.57259
3.58661
3.5973
3.60336
3.60571
3.60638
3.60697
3.60752
3.60827
1
1
1
1
1
1
1
1
1
1
1
1
1
1
1
1
1
1
1
1
1
1
1
1
1
1
1
1
1
1
1
1
1
1
1
1
1
1
1
1
1
1
1
1
1
1
1
1
1
1
1
1
1
1
1
1
1
1
1
1
1
1
1
1
1
1
1
1
1
1
1
1
1
1
1
1
1
1
1
1
1
1
1
1
1
1
1
1
1
1
1
1
1
1
1
1
1
1
1
1
1
1
1
1
1
1
1
1
1
1
1
1
1
1
1
1
1
1
1
1
1
1
1
1
1
1
1
1
1
1
1
1
1
1
1
1
1
1
1
1
1
1
1
1
1
1
1
1
1
1
1
1
1
1
1
1
1
1
1
1
1
1
1
1
1
1
1
1
1
1
1
1
1
1
1
1
1
1
1
1
1
1
1
1
1
1
1
1
1
1
1
1
1
1
1
1
1
1
1
1
1
1
1
1
1
1
1
1
1
1
1
1
1
1
1
1
2.39358
3.20841
3.20677
3.21586
3.23514
3.25182
3.26081
3.26158
3.25787
3.26348
3.27727
3.29035
3.30059
3.30592
3.30766
3.31439
3.32739
3.34152
3.3553
3.36786
3.3805
3.3975
3.418
3.43779
3.45459
3.46801
3.48051
3.49436
3.50894
3.52227
3.5333
3.54257
3.55072
3.55714
3.56123
3.56339
3.56445
3.56504
3.56531
3.56538
3.56532
3.56518
3.56507
3.56489
3.56448
3.56398
3.56369
3.56368
3.56375
3.56364
3.56299
3.56154
3.55935
3.55652
3.55302
3.54901
3.54524
3.54249
3.5407
3.54005
3.54186
3.54764
3.55828
3.57228
3.58634
3.59706
3.60311
3.60541
3.60605
3.60667
3.60729
3.60811
1
1
1
1
1
1
1
1
1
1
1
1
1
1
1
1
1
1
1
1
1
1
1
1
1
1
1
1
1
1
1
1
1
1
1
1
1
1
1
1
1
1
1
1
1
1
1
1
1
1
1
1
1
1
1
1
1
1
1
1
1
1
1
1
1
1
1
1
1
1
1
1
1
1
1
1
1
1
1
1
1
1
1
1
1
1
1
1
1
1
1
1
1
1
1
1
1
1
1
1
1
1
1
1
1
1
1
1
1
1
1
1
1
1
1
1
1
1
1
1
1
1
1
1
1
1
1
1
1
1
1
1
1
1
1
1
1
1
1
1
1
1
1
1
1
1
1
1
1
1
1
1
1
1
1
1
1
1
1
1
1
1
1
1
1
1
1
1
1
1
1
1
1
1
1
1
1
1
1
1
1
1
1
1
1
1
1
1
1
1
1
1
1
1
1
1
1
1
1
1
1
1
1
1
1
1
1
1
1
1
1
1
1
1
1
1
2.32539
3.18401
3.20407
3.21692
3.23829
3.2527
3.25966
3.25799
3.25505
3.26369
3.27805
3.2907
3.29992
3.3038
3.30552
3.3141
3.32761
3.34152
3.35492
3.36698
3.37997
3.39784
3.41817
3.43682
3.4519
3.46376
3.47538
3.4887
3.50288
3.51616
3.5277
3.53799
3.5473
3.55466
3.55944
3.56211
3.56361
3.5645
3.56489
3.56497
3.56493
3.56487
3.56485
3.56472
3.56433
3.56379
3.56344
3.56341
3.56348
3.56338
3.56275
3.56132
3.55913
3.55629
3.55279
3.54882
3.54507
3.54233
3.54051
3.53981
3.54154
3.54728
3.55791
3.57195
3.58605
3.5968
3.60283
3.60508
3.60568
3.60635
3.60705
3.60795
1
1
1
1
1
1
1
1
1
1
1
1
1
1
1
1
1
1
1
1
1
1
1
1
1
1
1
1
1
1
1
1
1
1
1
1
1
1
1
1
1
1
1
1
1
1
1
1
1
1
1
1
1
1
1
1
1
1
1
1
1
1
1
1
1
1
1
1
1
1
1
1
1
1
1
1
1
1
1
1
1
1
1
1
1
1
1
1
1
1
1
1
1
1
1
1
1
1
1
1
1
1
1
1
1
1
1
1
1
1
1
1
1
1
1
1
1
1
1
1
1
1
1
1
1
1
1
1
1
1
1
1
1
1
1
1
1
1
1
1
1
1
1
1
1
1
1
1
1
1
1
1
1
1
1
1
1
1
1
1
1
1
1
1
1
1
1
1
1
1
1
1
1
1
1
1
1
1
1
1
1
1
1
1
1
1
1
1
1
1
1
1
1
1
1
1
1
1
1
1
1
1
1
1
1
1
1
1
1
1
1
1
1
1
1
1
2.24643
3.15268
3.20201
3.21916
3.24132
3.25324
3.25755
3.25352
3.25307
3.26442
3.27883
3.29091
3.29888
3.30121
3.30367
3.31414
3.32783
3.34143
3.35433
3.36591
3.37959
3.39831
3.4183
3.43572
3.44909
3.45954
3.4704
3.48313
3.49674
3.50978
3.52171
3.53298
3.54346
3.55183
3.55736
3.56063
3.56264
3.56386
3.5644
3.5645
3.5645
3.56453
3.5646
3.56453
3.56415
3.56358
3.56319
3.56312
3.56319
3.5631
3.56249
3.56108
3.55889
3.55604
3.55255
3.54861
3.54489
3.54216
3.54032
3.53956
3.54122
3.54689
3.5575
3.57157
3.58572
3.5965
3.60252
3.60471
3.60529
3.60601
3.60682
3.60779
1
1
1
1
1
1
1
1
1
1
1
1
1
1
1
1
1
1
1
1
1
1
1
1
1
1
1
1
1
1
1
1
1
1
1
1
1
1
1
1
1
1
1
1
1
1
1
1
1
1
1
1
1
1
1
1
1
1
1
1
1
1
1
1
1
1
1
1
1
1
1
1
1
1
1
1
1
1
1
1
1
1
1
1
1
1
1
1
1
1
1
1
1
1
1
1
1
1
1
1
1
1
1
1
1
1
1
1
1
1
1
1
1
1
1
1
1
1
1
1
1
1
1
1
1
1
1
1
1
1
1
1
1
1
1
1
1
1
1
1
1
1
1
1
1
1
1
1
1
1
1
1
1
1
1
1
1
1
1
1
1
1
1
1
1
1
1
1
1
1
1
1
1
1
1
1
1
1
1
1
1
1
1
1
1
1
1
1
1
1
1
1
1
1
1
1
1
1
1
1
1
1
1
1
1
1
1
1
1
1
1
1
1
1
1
1
2.15432
3.11371
3.20078
3.22297
3.24341
3.25355
3.25428
3.24871
3.25213
3.26538
3.27951
3.29085
3.29732
3.29827
3.30237
3.31442
3.32798
3.34121
3.35347
3.36472
3.37942
3.39887
3.41833
3.43444
3.44615
3.45542
3.46565
3.47771
3.49058
3.5032
3.51538
3.52757
3.53919
3.54859
3.55496
3.55893
3.56151
3.56311
3.56383
3.564
3.56404
3.56417
3.56433
3.5643
3.56394
3.56335
3.56293
3.56284
3.5629
3.56281
3.56221
3.56083
3.55864
3.55577
3.5523
3.54839
3.54469
3.54198
3.54013
3.53931
3.54089
3.54648
3.55707
3.57117
3.58536
3.59617
3.60218
3.60432
3.60488
3.60565
3.60657
3.60762
1
1
1
1
1
1
1
1
1
1
1
1
1
1
1
1
1
1
1
1
1
1
1
1
1
1
1
1
1
1
1
1
1
1
1
1
1
1
1
1
1
1
1
1
1
1
1
1
1
1
1
1
1
1
1
1
1
1
1
1
1
1
1
1
1
1
1
1
1
1
1
1
1
1
1
1
1
1
1
1
1
1
1
1
1
1
1
1
1
1
1
1
1
1
1
1
1
1
1
1
1
1
1
1
1
1
1
1
1
1
1
1
1
1
1
1
1
1
1
1
1
1
1
1
1
1
1
1
1
1
1
1
1
1
1
1
1
1
1
1
1
1
1
1
1
1
1
1
1
1
1
1
1
1
1
1
1
1
1
1
1
1
1
1
1
1
1
1
1
1
1
1
1
1
1
1
1
1
1
1
1
1
1
1
1
1
1
1
1
1
1
1
1
1
1
1
1
1
1
1
1
1
1
1
1
1
1
1
1
1
1
1
1
1
1
1
2.04693
3.06632
3.20068
3.22814
3.24474
3.25255
3.24969
3.24461
3.2521
3.26657
3.2801
3.29036
3.29503
3.29527
3.30177
3.31482
3.32805
3.3408
3.3523
3.36349
3.3795
3.39945
3.41821
3.43291
3.44307
3.45144
3.46115
3.47247
3.48445
3.49649
3.50878
3.52178
3.53448
3.54491
3.55219
3.55696
3.56018
3.56221
3.56317
3.56346
3.56357
3.56379
3.56402
3.56404
3.56369
3.56311
3.56266
3.56254
3.56259
3.56249
3.56191
3.56056
3.55838
3.5555
3.55202
3.54814
3.54448
3.54179
3.53993
3.53907
3.54055
3.54605
3.5566
3.57072
3.58496
3.59581
3.6018
3.6039
3.60444
3.60528
3.60633
3.60744
1
1
1
1
1
1
1
1
1
1
1
1
1
1
1
1
1
1
1
1
1
1
1
1
1
1
1
1
1
1
1
1
1
1
1
1
1
1
1
1
1
1
1
1
1
1
1
1
1
1
1
1
1
1
1
1
1
1
1
1
1
1
1
1
1
1
1
1
1
1
1
1
1
1
1
1
1
1
1
1
1
1
1
1
1
1
1
1
1
1
1
1
1
1
1
1
1
1
1
1
1
1
1
1
1
1
1
1
1
1
1
1
1
1
1
1
1
1
1
1
1
1
1
1
1
1
1
1
1
1
1
1
1
1
1
1
1
1
1
1
1
1
1
1
1
1
1
1
1
1
1
1
1
1
1
1
1
1
1
1
1
1
1
1
1
1
1
1
1
1
1
1
1
1
1
1
1
1
1
1
1
1
1
1
1
1
1
1
1
1
1
1
1
1
1
1
1
1
1
1
1
1
1
1
1
1
1
1
1
1
1
1
1
1
1
1
1.9216
3.01084
3.20246
3.23385
3.24546
3.24973
3.2437
3.24199
3.25287
3.26793
3.28055
3.28932
3.29192
3.29258
3.3018
3.31523
3.328
3.34015
3.35079
3.36239
3.37983
3.39997
3.41784
3.43109
3.43988
3.44764
3.45693
3.46743
3.47841
3.48972
3.50201
3.51568
3.52933
3.54077
3.54901
3.55467
3.55864
3.56118
3.56242
3.56286
3.56307
3.56338
3.56369
3.56374
3.56341
3.56284
3.56238
3.56223
3.56225
3.56214
3.56159
3.56028
3.55812
3.55522
3.55174
3.54788
3.54424
3.54158
3.53973
3.53884
3.54021
3.5456
3.55611
3.57024
3.58453
3.59541
3.6014
3.60345
3.604
3.6049
3.60607
3.60725
1
1
1
1
1
1
1
1
1
1
1
1
1
1
1
1
1
1
1
1
1
1
1
1
1
1
1
1
1
1
1
1
1
1
1
1
1
1
1
1
1
1
1
1
1
1
1
1
1
1
1
1
1
1
1
1
1
1
1
1
1
1
1
1
1
1
1
1
1
1
1
1
1
1
1
1
1
1
1
1
1
1
1
1
1
1
1
1
1
1
1
1
1
1
1
1
1
1
1
1
1
1
1
1
1
1
1
1
1
1
1
1
1
1
1
1
1
1
1
1
1
1
1
1
1
1
1
1
1
1
1
1
1
1
1
1
1
1
1
1
1
1
1
1
1
1
1
1
1
1
1
1
1
1
1
1
1
1
1
1
1
1
1
1
1
1
1
1
1
1
1
1
1
1
1
1
1
1
1
1
1
1
1
1
1
1
1
1
1
1
1
1
1
1
1
1
1
1
1
1
1
1
1
1
1
1
1
1
1
1
1
1
1
1
1
1
1.77621
2.9477
3.20686
3.23883
3.24561
3.24504
3.23732
3.24095
3.25421
3.26915
3.28071
3.28761
3.2882
3.29064
3.30226
3.31557
3.3278
3.33916
3.34898
3.3616
3.38034
3.40034
3.41717
3.42893
3.43662
3.44407
3.45297
3.46259
3.47248
3.48298
3.49516
3.50933
3.52377
3.53611
3.54534
3.55202
3.55686
3.55998
3.56158
3.56221
3.56253
3.56293
3.56331
3.56341
3.56311
3.56256
3.56209
3.56191
3.56189
3.56178
3.56126
3.56001
3.55787
3.55494
3.55144
3.5476
3.54399
3.54135
3.53952
3.5386
3.53986
3.54514
3.55558
3.56972
3.58405
3.59498
3.60097
3.603
3.60355
3.60452
3.60579
3.60702
1
1
1
1
1
1
1
1
1
1
1
1
1
1
1
1
1
1
1
1
1
1
1
1
1
1
1
1
1
1
1
1
1
1
1
1
1
1
1
1
1
1
1
1
1
1
1
1
1
1
1
1
1
1
1
1
1
1
1
1
1
1
1
1
1
1
1
1
1
1
1
1
1
1
1
1
1
1
1
1
1
1
1
1
1
1
1
1
1
1
1
1
1
1
1
1
1
1
1
1
1
1
1
1
1
1
1
1
1
1
1
1
1
1
1
1
1
1
1
1
1
1
1
1
1
1
1
1
1
1
1
1
1
1
1
1
1
1
1
1
1
1
1
1
1
1
1
1
1
1
1
1
1
1
1
1
1
1
1
1
1
1
1
1
1
1
1
1
1
1
1
1
1
1
1
1
1
1
1
1
1
1
1
1
1
1
1
1
1
1
1
1
1
1
1
1
1
1
1
1
1
1
1
1
1
1
1
1
1
1
1
1
1
1
1
1
1.61029
2.87866
3.21418
3.24269
3.24368
3.23793
3.23269
3.24117
3.25602
3.27009
3.28034
3.28483
3.28428
3.2898
3.3029
3.31578
3.32742
3.33774
3.34703
3.3612
3.38095
3.4005
3.41613
3.42641
3.43336
3.44073
3.44924
3.45794
3.46669
3.47636
3.48836
3.50284
3.51782
3.53092
3.54115
3.54896
3.55479
3.5586
3.5606
3.56147
3.56195
3.56244
3.56291
3.56306
3.5628
3.56227
3.56178
3.56155
3.5615
3.56139
3.56093
3.55974
3.55763
3.55467
3.55114
3.5473
3.54372
3.54108
3.53928
3.53834
3.5395
3.54465
3.55502
3.56916
3.58354
3.59452
3.60051
3.60254
3.60311
3.60413
3.60549
3.60674
1
1
1
1
1
1
1
1
1
1
1
1
1
1
1
1
1
1
1
1
1
1
1
1
1
1
1
1
1
1
1
1
1
1
1
1
1
1
1
1
1
1
1
1
1
1
1
1
1
1
1
1
1
1
1
1
1
1
1
1
1
1
1
1
1
1
1
1
1
1
1
1
1
1
1
1
1
1
1
1
1
1
1
1
1
1
1
1
1
1
1
1
1
1
1
1
1
1
1
1
1
1
1
1
1
1
1
1
1
1
1
1
1
1
1
1
1
1
1
1
1
1
1
1
1
1
1
1
1
1
1
1
1
1
1
1
1
1
1
1
1
1
1
1
1
1
1
1
1
1
1
1
1
1
1
1
1
1
1
1
1
1
1
1
1
1
1
1
1
1
1
1
1
1
1
1
1
1
1
1
1
1
1
1
1
1
1
1
1
1
1
1
1
1
1
1
1
1
1
1
1
1
1
1
1
1
1
1
1
1
1
1
1
1
1
1
1.43194
2.80719
3.22423
3.24416
3.23855
3.22993
3.23045
3.24241
3.25813
3.27077
3.27914
3.28085
3.28077
3.28994
3.30358
3.31583
3.32675
3.33581
3.3452
3.36125
3.38155
3.40039
3.41465
3.42357
3.43016
3.43761
3.44568
3.45342
3.46106
3.46993
3.48172
3.49629
3.51153
3.5252
3.5364
3.54543
3.55238
3.55699
3.55946
3.56063
3.5613
3.56193
3.56247
3.56267
3.56245
3.56196
3.56145
3.56118
3.56109
3.56099
3.56059
3.55948
3.5574
3.55442
3.55085
3.54699
3.54342
3.54079
3.53902
3.53808
3.53913
3.54415
3.55444
3.56857
3.58299
3.59402
3.60004
3.60209
3.6027
3.60374
3.60516
3.60641
1
1
1
1
1
1
1
1
1
1
1
1
1
1
1
1
1
1
1
1
1
1
1
1
1
1
1
1
1
1
1
1
1
1
1
1
1
1
1
1
1
1
1
1
1
1
1
1
1
1
1
1
1
1
1
1
1
1
1
1
1
1
1
1
1
1
1
1
1
1
1
1
1
1
1
1
1
1
1
1
1
1
1
1
1
1
1
1
1
1
1
1
1
1
1
1
1
1
1
1
1
1
1
1
1
1
1
1
1
1
1
1
1
1
1
1
1
1
1
1
1
1
1
1
1
1
1
1
1
1
1
1
1
1
1
1
1
1
1
1
1
1
1
1
1
1
1
1
1
1
1
1
1
1
1
1
1
1
1
1
1
1
1
1
1
1
1
1
1
1
1
1
1
1
1
1
1
1
1
1
1
1
1
1
1
1
1
1
1
1
1
1
1
1
1
1
1
1
1
1
1
1
1
1
1
1
1
1
1
1
1
1
1
1
1
1
1.25843
2.73648
3.23356
3.24234
3.2306
3.22382
3.23015
3.24438
3.25993
3.27101
3.27674
3.2761
3.27847
3.2907
3.30417
3.31569
3.32563
3.3334
3.34382
3.36167
3.38202
3.39988
3.41267
3.42046
3.42709
3.43467
3.44223
3.449
3.45559
3.46378
3.47533
3.48977
3.50496
3.51898
3.53108
3.54139
3.54958
3.55509
3.55814
3.55967
3.5606
3.56137
3.562
3.56225
3.56208
3.56162
3.56109
3.56079
3.56067
3.56059
3.56025
3.55921
3.55717
3.55417
3.55056
3.54666
3.54309
3.54045
3.53873
3.5378
3.53876
3.54365
3.55382
3.56793
3.5824
3.59349
3.59957
3.60166
3.60231
3.60335
3.6048
3.60602
1
1
1
1
1
1
1
1
1
1
1
1
1
1
1
1
1
1
1
1
1
1
1
1
1
1
1
1
1
1
1
1
1
1
1
1
1
1
1
1
1
1
1
1
1
1
1
1
1
1
1
1
1
1
1
1
1
1
1
1
1
1
1
1
1
1
1
1
1
1
1
1
1
1
1
1
1
1
1
1
1
1
1
1
1
1
1
1
1
1
1
1
1
1
1
1
1
1
1
1
1
1
1
1
1
1
1
1
1
1
1
1
1
1
1
1
1
1
1
1
1
1
1
1
1
1
1
1
1
1
1
1
1
1
1
1
1
1
1
1
1
1
1
1
1
1
1
1
1
1
1
1
1
1
1
1
1
1
1
1
1
1
1
1
1
1
1
1
1
1
1
1
1
1
1
1
1
1
1
1
1
1
1
1
1
1
1
1
1
1
1
1
1
1
1
1
1
1
1
1
1
1
1
1
1
1
1
1
1
1
1
1
1
1
1
1
1.11054
2.66404
3.23966
3.2368
3.22109
3.22047
3.23129
3.24714
3.2612
3.27049
3.27277
3.27125
3.27776
3.29161
3.30459
3.31525
3.32386
3.33072
3.34313
3.36235
3.38229
3.39893
3.41018
3.41722
3.42418
3.43185
3.43881
3.44463
3.45027
3.45797
3.46928
3.48335
3.4982
3.51231
3.52521
3.53681
3.54631
3.55283
3.55658
3.55857
3.55982
3.56077
3.56149
3.56179
3.56168
3.56126
3.56073
3.56039
3.56024
3.56016
3.55988
3.55893
3.55695
3.55394
3.55027
3.54632
3.54272
3.54007
3.53841
3.53752
3.53839
3.54314
3.55317
3.56723
3.58174
3.59292
3.59908
3.60127
3.60198
3.60298
3.6044
3.60554
1
1
1
1
1
1
1
1
1
1
1
1
1
1
1
1
1
1
1
1
1
1
1
1
1
1
1
1
1
1
1
1
1
1
1
1
1
1
1
1
1
1
1
1
1
1
1
1
1
1
1
1
1
1
1
1
1
1
1
1
1
1
1
1
1
1
1
1
1
1
1
1
1
1
1
1
1
1
1
1
1
1
1
1
1
1
1
1
1
1
1
1
1
1
1
1
1
1
1
1
1
1
1
1
1
1
1
1
1
1
1
1
1
1
1
1
1
1
1
1
1
1
1
1
1
1
1
1
1
1
1
1
1
1
1
1
1
1
1
1
1
1
1
1
1
1
1
1
1
1
1
1
1
1
1
1
1
1
1
1
1
1
1
1
1
1
1
1
1
1
1
1
1
1
1
1
1
1
1
1
1
1
1
1
1
1
1
1
1
1
1
1
1
1
1
1
1
1
1
1
1
1
1
1
1
1
1
1
1
1
1
1
1
1
1
1
1.01132
2.58687
3.23864
3.22713
3.21345
3.21988
3.23344
3.25001
3.2619
3.26842
3.26734
3.26747
3.2783
3.29255
3.30478
3.31441
3.32129
3.32827
3.34315
3.3631
3.38228
3.39745
3.40721
3.41397
3.42144
3.42906
3.43534
3.44025
3.44514
3.45255
3.4636
3.47709
3.49133
3.50529
3.51884
3.53168
3.54251
3.55014
3.55471
3.5573
3.55895
3.56012
3.56093
3.56129
3.56125
3.56088
3.56036
3.55998
3.5598
3.55972
3.55949
3.55865
3.55674
3.55373
3.54999
3.54597
3.54232
3.53966
3.53806
3.53723
3.53804
3.54263
3.5525
3.56648
3.58103
3.59231
3.5986
3.60092
3.60169
3.60262
3.60396
3.60499
1
1
1
1
1
1
1
1
1
1
1
1
1
1
1
1
1
1
1
1
1
1
1
1
1
1
1
1
1
1
1
1
1
1
1
1
1
1
1
1
1
1
1
1
1
1
1
1
1
1
1
1
1
1
1
1
1
1
1
1
1
1
1
1
1
1
1
1
1
1
1
1
1
1
1
1
1
1
1
1
1
1
1
1
1
1
1
1
1
1
1
1
1
1
1
1
1
1
1
1
1
1
1
1
1
1
1
1
1
1
1
1
1
1
1
1
1
1
1
1
1
1
1
1
1
1
1
1
1
1
1
1
1
1
1
1
1
1
1
1
1
1
1
1
1
1
1
1
1
1
1
1
1
1
1
1
1
1
1
1
1
1
1
1
1
1
1
1
1
1
1
1
1
1
1
1
1
1
1
1
1
1
1
1
1
1
1
1
1
1
1
1
1
1
1
1
1
1
1
1
1
1
1
1
1
1
1
1
1
1
1
1
1
1
1
1
1
2.50284
3.2275
3.21425
3.20929
3.22132
3.2368
3.25209
3.26201
3.26421
3.26129
3.26579
3.27945
3.29336
3.30461
3.3129
3.31799
3.32664
3.34377
3.36375
3.38187
3.39538
3.40387
3.4109
3.41884
3.42624
3.43177
3.43581
3.4402
3.44754
3.4583
3.47102
3.48441
3.49802
3.51205
3.526
3.53813
3.54694
3.55248
3.55582
3.55796
3.55938
3.56029
3.56074
3.5608
3.56049
3.56
3.55957
3.55934
3.55925
3.55909
3.55834
3.55652
3.55352
3.54971
3.54561
3.5419
3.53921
3.53769
3.53694
3.53771
3.54212
3.55179
3.56566
3.58024
3.59165
3.59811
3.6006
3.60145
3.60228
3.60349
3.60436
1
1
1
1
1
1
1
1
1
1
1
1
1
1
1
1
1
1
1
1
1
1
1
1
1
1
1
1
1
1
1
1
1
1
1
1
1
1
1
1
1
1
1
1
1
1
1
1
1
1
1
1
1
1
1
1
1
1
1
1
1
1
1
1
1
1
1
1
1
1
1
1
1
1
1
1
1
1
1
1
1
1
1
1
1
1
1
1
1
1
1
1
1
1
1
1
1
1
1
1
1
1
1
1
1
1
1
1
1
1
1
1
1
1
1
1
1
1
1
1
1
1
1
1
1