/*--------------------------------*- C++ -*----------------------------------*\
  =========                 |
  \\      /  F ield         | OpenFOAM: The Open Source CFD Toolbox
   \\    /   O peration     | Website:  https://openfoam.org
    \\  /    A nd           | Version:  7
     \\/     M anipulation  |
\*---------------------------------------------------------------------------*/
FoamFile
{
    version     2.0;
    format      ascii;
    class       surfaceScalarField;
    location    "3.8";
    object      phi;
}
// * * * * * * * * * * * * * * * * * * * * * * * * * * * * * * * * * * * * * //

dimensions      [0 3 -1 0 0 0 0];

internalField   nonuniform List<scalar> 
616
(
1.49559e-05
1.46314e-05
1.63499e-05
1.49897e-05
1.77369e-05
1.52677e-05
1.91153e-05
1.54753e-05
2.04835e-05
1.56213e-05
2.18401e-05
1.57132e-05
2.3184e-05
1.57578e-05
2.4514e-05
1.5761e-05
2.58295e-05
1.5728e-05
2.71296e-05
1.56634e-05
2.84137e-05
1.55713e-05
2.96812e-05
1.54554e-05
3.09318e-05
1.53188e-05
3.21651e-05
1.51646e-05
3.33807e-05
1.49951e-05
3.45785e-05
1.48128e-05
3.57583e-05
1.46196e-05
3.69199e-05
1.44173e-05
3.80635e-05
1.42076e-05
3.91888e-05
1.39918e-05
4.02959e-05
1.37712e-05
4.1385e-05
1.35471e-05
4.2456e-05
1.33203e-05
4.3509e-05
1.30917e-05
4.45443e-05
1.28621e-05
4.55619e-05
1.26323e-05
4.65621e-05
1.24028e-05
4.75449e-05
1.21741e-05
4.85106e-05
1.19468e-05
4.94594e-05
1.17212e-05
5.03916e-05
1.14976e-05
5.13073e-05
1.12764e-05
5.22068e-05
1.10579e-05
5.30904e-05
1.08422e-05
5.39582e-05
1.06296e-05
5.48106e-05
1.04202e-05
5.56477e-05
1.02142e-05
5.64699e-05
1.00116e-05
5.72774e-05
9.81249e-06
5.80704e-05
9.61701e-06
5.88493e-05
9.42517e-06
5.96142e-05
9.23701e-06
6.03655e-05
9.05254e-06
8.87178e-06
-2.8404e-06
-2.35101e-05
-5.78788e-06
-4.22652e-05
-7.98186e-06
-4.65024e-05
-9.27096e-06
-4.28547e-05
-9.89987e-06
-3.6436e-05
-1.0068e-05
-2.93973e-05
-9.90865e-06
-2.27671e-05
-9.50496e-06
-1.68932e-05
-8.90971e-06
-1.18381e-05
-8.15929e-06
-7.5432e-06
-7.28084e-06
-3.91214e-06
-6.29588e-06
-8.45308e-07
-5.22204e-06
1.74705e-06
-4.0743e-06
3.94058e-06
-2.86529e-06
5.79846e-06
-1.60587e-06
7.37227e-06
-3.05391e-07
8.70438e-06
1.02807e-06
9.82974e-06
2.3875e-06
1.07773e-05
3.76683e-06
1.15714e-05
5.16074e-06
1.22323e-05
6.56461e-06
1.27774e-05
7.97439e-06
1.32216e-05
9.38654e-06
1.35775e-05
1.0798e-05
1.38562e-05
1.2206e-05
1.40673e-05
1.36082e-05
1.4219e-05
1.50026e-05
1.43188e-05
1.63873e-05
1.43731e-05
1.77608e-05
1.43875e-05
1.91217e-05
1.43671e-05
2.04688e-05
1.43162e-05
2.18013e-05
1.42389e-05
2.31181e-05
1.41386e-05
2.44185e-05
1.40184e-05
2.57021e-05
1.3881e-05
2.69682e-05
1.3729e-05
2.82164e-05
1.35645e-05
2.94465e-05
1.33895e-05
3.06581e-05
1.32057e-05
3.18511e-05
1.30146e-05
3.30253e-05
1.28175e-05
3.41808e-05
1.26158e-05
3.53174e-05
1.24105e-05
3.64351e-05
1.22025e-05
3.75341e-05
1.19927e-05
3.86144e-05
1.17818e-05
3.96762e-05
1.15706e-05
4.07195e-05
1.13595e-05
4.17445e-05
1.11491e-05
4.27514e-05
1.09398e-05
4.37405e-05
1.07321e-05
4.47119e-05
1.05262e-05
4.56658e-05
1.03225e-05
4.66026e-05
1.01212e-05
4.75224e-05
9.92246e-06
4.84254e-05
9.72655e-06
4.93121e-05
9.53359e-06
5.01825e-05
9.34371e-06
5.10371e-05
9.157e-06
5.1876e-05
8.97355e-06
5.26996e-05
8.79343e-06
5.35081e-05
8.61667e-06
5.43018e-05
8.44331e-06
5.5081e-05
8.27337e-06
8.10686e-06
-2.77832e-06
-2.07318e-05
-6.19259e-06
-3.8851e-05
-9.11397e-06
-4.35811e-05
-1.11981e-05
-4.07706e-05
-1.25754e-05
-3.50587e-05
-1.34007e-05
-2.8572e-05
-1.38004e-05
-2.23673e-05
-1.3865e-05
-1.68286e-05
-1.36593e-05
-1.20438e-05
-1.32319e-05
-7.97065e-06
-1.26206e-05
-4.52339e-06
-1.18562e-05
-1.60972e-06
-1.09638e-05
8.54656e-07
-9.96452e-06
2.9413e-06
-8.87605e-06
4.70999e-06
-7.71342e-06
6.20964e-06
-6.48946e-06
7.48042e-06
-5.21514e-06
8.55542e-06
-3.89993e-06
9.46211e-06
-2.55201e-06
1.02234e-05
-1.17847e-06
1.08587e-05
2.14533e-07
1.13844e-05
1.62161e-06
1.18145e-05
3.03807e-06
1.21611e-05
4.45981e-06
1.24345e-05
5.88325e-06
1.26438e-05
7.30525e-06
1.2797e-05
8.72307e-06
1.2901e-05
1.01343e-05
1.29619e-05
1.15369e-05
1.29849e-05
1.2929e-05
1.2975e-05
1.43091e-05
1.29361e-05
1.56758e-05
1.28722e-05
1.70279e-05
1.27864e-05
1.83645e-05
1.26818e-05
1.96846e-05
1.25609e-05
2.09877e-05
1.2426e-05
2.2273e-05
1.22792e-05
2.35401e-05
1.21224e-05
2.47887e-05
1.19571e-05
2.60183e-05
1.17849e-05
2.72288e-05
1.1607e-05
2.84201e-05
1.14245e-05
2.9592e-05
1.12386e-05
3.07445e-05
1.105e-05
3.18776e-05
1.08596e-05
3.29912e-05
1.06682e-05
3.40856e-05
1.04762e-05
3.51609e-05
1.02843e-05
3.62171e-05
1.00929e-05
3.72544e-05
9.90252e-06
3.8273e-05
9.71346e-06
3.92732e-05
9.52605e-06
4.02551e-05
9.34057e-06
4.1219e-05
9.15725e-06
4.21652e-05
8.9763e-06
4.30939e-05
8.79788e-06
4.40053e-05
8.62214e-06
4.48998e-05
8.44921e-06
4.57777e-05
8.27916e-06
4.66391e-05
8.1121e-06
4.74845e-05
7.94806e-06
4.83141e-05
7.78711e-06
4.91281e-05
7.62926e-06
4.99269e-05
7.47454e-06
7.32296e-06
-2.69588e-06
-1.80359e-05
-6.43466e-06
-3.51122e-05
-9.92394e-06
-4.00918e-05
-1.26709e-05
-3.80236e-05
-1.4698e-05
-3.30316e-05
-1.61101e-05
-2.71599e-05
-1.7019e-05
-2.14585e-05
-1.75167e-05
-1.6331e-05
-1.76759e-05
-1.18845e-05
-1.75549e-05
-8.09168e-06
-1.72005e-05
-4.8778e-06
-1.66511e-05
-2.15911e-06
-1.59385e-05
1.42032e-07
-1.50891e-05
2.09193e-06
-1.41252e-05
3.74608e-06
-1.30655e-05
5.14992e-06
-1.19259e-05
6.34081e-06
-1.072e-05
7.34952e-06
-9.45947e-06
8.2016e-06
-8.15439e-06
8.91837e-06
-6.81347e-06
9.51783e-06
-5.44426e-06
1.00152e-05
-4.05336e-06
1.04236e-05
-2.6465e-06
1.07542e-05
-1.2287e-06
1.10167e-05
1.95641e-07
1.12195e-05
1.6227e-06
1.137e-05
3.0491e-06
1.14746e-05
4.47193e-06
1.1539e-05
5.88862e-06
1.15682e-05
7.29694e-06
1.15666e-05
8.69494e-06
1.15381e-05
1.0081e-05
1.14862e-05
1.14535e-05
1.14139e-05
1.28114e-05
1.13239e-05
1.41536e-05
1.12188e-05
1.5479e-05
1.11005e-05
1.67871e-05
1.09712e-05
1.80771e-05
1.08324e-05
1.93486e-05
1.06857e-05
2.06011e-05
1.05324e-05
2.18343e-05
1.03738e-05
2.3048e-05
1.02108e-05
2.4242e-05
1.00446e-05
2.54162e-05
9.87581e-06
2.65706e-05
9.70528e-06
2.77051e-05
9.53363e-06
2.88199e-05
9.36145e-06
2.99149e-05
9.18925e-06
3.09903e-05
9.01747e-06
3.20463e-05
8.84651e-06
3.30831e-05
8.6767e-06
3.41008e-05
8.50834e-06
3.50997e-05
8.34169e-06
3.608e-05
8.17696e-06
3.70419e-05
8.01434e-06
3.79858e-05
7.854e-06
3.89119e-05
7.69607e-06
3.98205e-05
7.54065e-06
4.07118e-05
7.38783e-06
4.15862e-05
7.2377e-06
4.2444e-05
7.0903e-06
4.32854e-05
6.94567e-06
4.41108e-05
6.80386e-06
4.49205e-05
6.66486e-06
6.5287e-06
-2.59775e-06
-1.54382e-05
-6.54024e-06
-3.11697e-05
-1.04513e-05
-3.61807e-05
-1.37298e-05
-3.47452e-05
-1.63012e-05
-3.04602e-05
-1.82193e-05
-2.52418e-05
-1.95764e-05
-2.01013e-05
-2.04617e-05
-1.54457e-05
-2.09524e-05
-1.13938e-05
-2.11136e-05
-7.93054e-06
-2.09991e-05
-4.9923e-06
-2.06537e-05
-2.50448e-06
-2.01146e-05
-3.97037e-07
-1.94129e-05
1.3902e-06
-1.85745e-05
2.90768e-06
-1.76213e-05
4.19675e-06
-1.6572e-05
5.29144e-06
-1.54422e-05
6.21979e-06
-1.42457e-05
7.00508e-06
-1.29941e-05
7.66676e-06
-1.16975e-05
8.22124e-06
-1.03647e-05
8.68243e-06
-9.00337e-06
9.06225e-06
-7.6201e-06
9.37094e-06
-6.22075e-06
9.61733e-06
-4.8104e-06
9.80915e-06
-3.39351e-06
9.9531e-06
-1.97397e-06
1.00551e-05
-5.55192e-07
1.01203e-05
8.59845e-07
1.01532e-05
2.26854e-06
1.01579e-05
3.66864e-06
1.0138e-05
5.05817e-06
1.00967e-05
6.43544e-06
1.00366e-05
7.79897e-06
9.96039e-06
9.14752e-06
9.87021e-06
1.048e-05
1.17955e-05
1.30933e-05
1.43728e-05
1.56334e-05
1.68747e-05
1.80965e-05
1.92985e-05
2.04806e-05
2.16425e-05
2.27845e-05
2.39063e-05
2.50082e-05
2.60902e-05
2.71524e-05
2.8195e-05
2.92183e-05
3.02223e-05
3.12075e-05
3.21739e-05
3.31219e-05
3.40517e-05
3.49637e-05
3.58581e-05
3.67352e-05
3.75954e-05
3.8439e-05
3.92662e-05
4.00773e-05
-2.4836e-06
-6.52423e-06
-1.07224e-05
-1.44031e-05
-1.74087e-05
-1.9744e-05
-2.14796e-05
-2.26983e-05
-2.3479e-05
-2.38912e-05
-2.39938e-05
-2.38365e-05
-2.34607e-05
-2.29009e-05
-2.21862e-05
-2.1341e-05
-2.0386e-05
-1.93388e-05
-1.82146e-05
-1.70264e-05
-1.57854e-05
-1.45014e-05
-1.3183e-05
-1.18374e-05
-1.04713e-05
-9.09031e-06
-7.69932e-06
-6.30273e-06
-4.90433e-06
-3.50744e-06
-2.11498e-06
-7.29468e-07
6.46887e-07
2.01218e-06
3.36476e-06
)
;

boundaryField
{
    inlet
    {
        type            calculated;
        value           nonuniform 0();
    }
    outlet
    {
        type            calculated;
        value           nonuniform 0();
    }
    wall
    {
        type            calculated;
        value           uniform 0;
    }
    wedge1
    {
        type            wedge;
        value           nonuniform List<scalar> 
344
(
4.42612e-15
1.28003e-15
1.10592e-15
-6.33782e-15
2.38413e-15
8.03046e-15
2.42144e-15
2.17106e-15
-1.28685e-14
5.00715e-15
8.80409e-15
2.70853e-15
2.47321e-15
-1.49071e-14
5.8925e-15
8.08385e-15
2.52543e-15
2.33854e-15
-1.42762e-14
5.70937e-15
6.84365e-15
2.16328e-15
2.02458e-15
-1.24782e-14
5.03308e-15
5.49685e-15
1.75605e-15
1.65889e-15
-1.0309e-14
4.18835e-15
4.23257e-15
1.36791e-15
1.30505e-15
-8.17911e-15
3.34735e-15
3.11443e-15
1.02207e-15
9.87399e-16
-6.25335e-15
2.58183e-15
2.15267e-15
7.23497e-16
7.1214e-16
-4.5785e-15
1.91375e-15
1.3357e-15
4.69401e-16
4.77422e-16
-3.14757e-15
1.34187e-15
6.45158e-16
2.54371e-16
2.78568e-16
-1.93407e-15
8.56242e-16
6.29481e-17
7.26743e-17
1.10397e-16
-9.07574e-16
4.44909e-16
-4.32324e-16
-8.11814e-17
-3.19749e-17
-4.27296e-17
9.67371e-17
-8.50378e-16
-2.11488e-16
-1.52776e-16
7.02143e-16
-2.00074e-16
-1.2041e-15
-3.21855e-16
-2.55151e-16
1.33032e-15
-4.52241e-16
-1.50356e-15
-4.15378e-16
-3.41978e-16
1.86298e-15
-6.66307e-16
-1.75688e-15
-4.94584e-16
-4.1559e-16
2.31489e-15
-8.48112e-16
-1.97074e-15
-5.61545e-16
-4.77901e-16
2.69783e-15
-1.00235e-15
-2.15067e-15
-6.17979e-16
-5.30496e-16
3.0215e-15
-1.13288e-15
-2.30128e-15
-6.65315e-16
-5.74699e-16
3.29399e-15
-1.24295e-15
-2.42647e-15
-7.04769e-16
-6.11627e-16
3.52208e-15
-1.33526e-15
-2.52954e-15
-7.37366e-16
-6.42226e-16
3.71156e-15
-1.41211e-15
-9.6858e-16
-2.61333e-15
-7.6398e-16
-6.67303e-16
3.86736e-15
-1.47548e-15
-9.91069e-16
-2.68026e-15
-7.85367e-16
-6.87555e-16
3.99371e-15
-1.52705e-15
-1.00842e-15
-2.73243e-15
-8.02175e-16
-7.03582e-16
4.09427e-15
-1.56831e-15
-1.02127e-15
-2.77168e-15
-8.14974e-16
-7.15907e-16
4.17224e-15
-1.60051e-15
-1.03019e-15
-2.7996e-15
-8.24258e-16
-7.24986e-16
4.2304e-15
-1.62478e-15
-1.03565e-15
-2.81758e-15
-8.30463e-16
-7.3122e-16
4.27118e-15
-1.64208e-15
-1.03808e-15
-2.82686e-15
-8.33964e-16
-7.3496e-16
4.29673e-15
-1.65328e-15
-1.03786e-15
-2.82853e-15
-8.35101e-16
-7.36515e-16
4.30894e-15
-1.65913e-15
-1.03533e-15
-2.82353e-15
-8.34171e-16
-7.36158e-16
4.30947e-15
-1.6603e-15
-1.03079e-15
-2.81273e-15
-8.31437e-16
-7.34134e-16
4.2998e-15
-1.65738e-15
-1.02448e-15
-2.79686e-15
-8.27129e-16
-7.30654e-16
4.28125e-15
-1.6509e-15
-1.01665e-15
-2.77661e-15
-8.21456e-16
-7.25912e-16
4.25496e-15
-1.64131e-15
-1.0075e-15
-2.75255e-15
-8.14601e-16
-7.20075e-16
4.22199e-15
-1.62904e-15
-9.97224e-16
-2.72523e-15
-8.06729e-16
-7.13296e-16
4.18323e-15
-1.61445e-15
-9.85976e-16
-2.6951e-15
-7.97982e-16
-7.05707e-16
4.13952e-15
-9.73906e-16
-2.66259e-15
-7.88493e-16
-6.97427e-16
4.09158e-15
-9.61142e-16
-2.62808e-15
-7.78375e-16
-6.88564e-16
4.04005e-15
-9.47803e-16
-2.59188e-15
-7.67732e-16
-6.79211e-16
3.98551e-15
-9.33988e-16
-2.5543e-15
-7.56653e-16
-6.69453e-16
3.92847e-15
-9.19791e-16
-2.5156e-15
-7.45221e-16
-6.59363e-16
3.86939e-15
-9.05293e-16
-2.47601e-15
-7.33508e-16
-6.49009e-16
3.80867e-15
-8.90566e-16
-2.43574e-15
-7.21577e-16
-6.3845e-16
3.74667e-15
-8.75672e-16
-2.39497e-15
-7.09485e-16
-6.27736e-16
3.6837e-15
-8.60671e-16
-2.35386e-15
-6.97282e-16
-6.16915e-16
3.62005e-15
-8.45611e-16
-2.31256e-15
-6.85012e-16
-6.06028e-16
3.55597e-15
-8.30537e-16
-2.2712e-15
-6.72715e-16
-5.95109e-16
3.49167e-15
-8.15488e-16
-2.22988e-15
-6.60426e-16
-5.84192e-16
3.42735e-15
-8.00498e-16
-2.1887e-15
-6.48173e-16
-5.73304e-16
3.36318e-15
-7.85596e-16
-2.14775e-15
-6.35984e-16
-5.62468e-16
3.2993e-15
-7.7081e-16
-2.1071e-15
-6.23882e-16
-5.51707e-16
3.23584e-15
-7.5616e-16
-2.06682e-15
-6.11887e-16
-5.41039e-16
3.17292e-15
-7.41668e-16
-2.02697e-15
-6.00015e-16
-5.3048e-16
3.11064e-15
-7.2735e-16
-1.98758e-15
-5.88283e-16
-5.20042e-16
3.04906e-15
-7.1322e-16
-1.94871e-15
-5.76702e-16
-5.09739e-16
2.98828e-15
-6.9929e-16
-1.91039e-15
-5.65284e-16
-4.9958e-16
2.92834e-15
-6.8557e-16
-1.87264e-15
-5.54037e-16
-4.89574e-16
2.8693e-15
-6.7207e-16
-1.8355e-15
-5.42969e-16
-4.79726e-16
2.8112e-15
-6.58795e-16
-1.79897e-15
-5.32087e-16
-4.70043e-16
2.75408e-15
-6.4575e-16
-1.76309e-15
-5.21393e-16
-4.6053e-16
2.69795e-15
-6.32942e-16
-1.72785e-15
-5.10895e-16
-4.51189e-16
2.64285e-15
-6.20371e-16
-1.69326e-15
-5.00592e-16
-4.42024e-16
2.58879e-15
-6.08041e-16
-1.65934e-15
-4.90488e-16
-4.33036e-16
2.53578e-15
-5.95952e-16
-1.62609e-15
-4.80583e-16
-4.24227e-16
2.48382e-15
-5.84105e-16
-1.59351e-15
-4.70878e-16
-4.15596e-16
2.43292e-15
)
;
    }
    wedge2
    {
        type            wedge;
        value           nonuniform List<scalar> 
344
(
4.42611e-15
1.28002e-15
1.10592e-15
-6.33782e-15
2.38413e-15
8.03045e-15
2.42142e-15
2.17105e-15
-1.28685e-14
5.00714e-15
8.80407e-15
2.70851e-15
2.47318e-15
-1.49071e-14
5.89247e-15
8.0838e-15
2.52539e-15
2.3385e-15
-1.42763e-14
5.70933e-15
6.84358e-15
2.16322e-15
2.02453e-15
-1.24782e-14
5.03304e-15
5.49677e-15
1.75598e-15
1.65883e-15
-1.0309e-14
4.1883e-15
4.23249e-15
1.36783e-15
1.30497e-15
-8.17918e-15
3.34728e-15
3.11432e-15
1.02197e-15
9.87313e-16
-6.25343e-15
2.58176e-15
2.15256e-15
7.23394e-16
7.12045e-16
-4.57858e-15
1.91367e-15
1.33558e-15
4.69289e-16
4.77318e-16
-3.14767e-15
1.34178e-15
6.45036e-16
2.54256e-16
2.78458e-16
-1.93417e-15
8.56144e-16
6.28102e-17
7.25459e-17
1.10279e-16
-9.07683e-16
4.44809e-16
-4.32472e-16
-8.13181e-17
-3.21008e-17
-4.2842e-17
9.6634e-17
-8.50532e-16
-2.1163e-16
-1.52908e-16
7.02021e-16
-2.00186e-16
-1.20426e-15
-3.21999e-16
-2.55288e-16
1.33019e-15
-4.52361e-16
-1.50373e-15
-4.15532e-16
-3.42121e-16
1.86285e-15
-6.66428e-16
-1.75706e-15
-4.94744e-16
-4.15738e-16
2.31476e-15
-8.48235e-16
-1.97092e-15
-5.61708e-16
-4.78052e-16
2.69769e-15
-1.00248e-15
-2.15085e-15
-6.18142e-16
-5.30651e-16
3.02136e-15
-1.13302e-15
-2.30146e-15
-6.65488e-16
-5.74859e-16
3.29384e-15
-1.24308e-15
-2.42666e-15
-7.04945e-16
-6.11789e-16
3.52194e-15
-1.33539e-15
-2.52973e-15
-7.37543e-16
-6.42389e-16
3.71141e-15
-1.41224e-15
-9.68786e-16
-2.61352e-15
-7.64158e-16
-6.67468e-16
3.86721e-15
-1.47561e-15
-9.91271e-16
-2.68045e-15
-7.85543e-16
-6.8772e-16
3.99355e-15
-1.52719e-15
-1.00863e-15
-2.73263e-15
-8.02354e-16
-7.03748e-16
4.09412e-15
-1.56845e-15
-1.02148e-15
-2.77187e-15
-8.15155e-16
-7.16074e-16
4.17209e-15
-1.60065e-15
-1.0304e-15
-2.79979e-15
-8.2444e-16
-7.25154e-16
4.23025e-15
-1.62492e-15
-1.03585e-15
-2.81777e-15
-8.30642e-16
-7.31388e-16
4.27103e-15
-1.64222e-15
-1.03829e-15
-2.82706e-15
-8.34146e-16
-7.35128e-16
4.29658e-15
-1.65342e-15
-1.03807e-15
-2.82872e-15
-8.35284e-16
-7.36683e-16
4.30879e-15
-1.65927e-15
-1.03554e-15
-2.82373e-15
-8.34353e-16
-7.36326e-16
4.30932e-15
-1.66044e-15
-1.03099e-15
-2.81292e-15
-8.31616e-16
-7.34301e-16
4.29965e-15
-1.65752e-15
-1.02469e-15
-2.79706e-15
-8.27309e-16
-7.30821e-16
4.28109e-15
-1.65104e-15
-1.01686e-15
-2.7768e-15
-8.21636e-16
-7.26078e-16
4.25481e-15
-1.64145e-15
-1.00771e-15
-2.75274e-15
-8.1478e-16
-7.20241e-16
4.22183e-15
-1.62918e-15
-9.97428e-16
-2.72542e-15
-8.06906e-16
-7.13461e-16
4.18308e-15
-1.61459e-15
-9.8618e-16
-2.69529e-15
-7.98159e-16
-7.05871e-16
4.13937e-15
-9.74109e-16
-2.66278e-15
-7.88669e-16
-6.9759e-16
4.09143e-15
-9.61344e-16
-2.62826e-15
-7.7855e-16
-6.88726e-16
4.0399e-15
-9.48002e-16
-2.59207e-15
-7.67905e-16
-6.79372e-16
3.98536e-15
-9.34187e-16
-2.55449e-15
-7.56826e-16
-6.69612e-16
3.92832e-15
-9.19988e-16
-2.51578e-15
-7.45392e-16
-6.59522e-16
3.86924e-15
-9.05488e-16
-2.47619e-15
-7.33678e-16
-6.49166e-16
3.80853e-15
-8.90758e-16
-2.43592e-15
-7.21745e-16
-6.38605e-16
3.74652e-15
-8.75863e-16
-2.39515e-15
-7.09651e-16
-6.2789e-16
3.68356e-15
-8.6086e-16
-2.35404e-15
-6.97447e-16
-6.17068e-16
3.61991e-15
-8.45798e-16
-2.31274e-15
-6.85176e-16
-6.06179e-16
3.55583e-15
-8.30723e-16
-2.27137e-15
-6.72877e-16
-5.95259e-16
3.49154e-15
-8.15671e-16
-2.23005e-15
-6.60586e-16
-5.8434e-16
3.42722e-15
-8.00679e-16
-2.18887e-15
-6.48331e-16
-5.7345e-16
3.36304e-15
-7.85775e-16
-2.14792e-15
-6.3614e-16
-5.62613e-16
3.29917e-15
-7.70986e-16
-2.10727e-15
-6.24036e-16
-5.5185e-16
3.23571e-15
-7.56335e-16
-2.06699e-15
-6.12039e-16
-5.4118e-16
3.17279e-15
-7.41841e-16
-2.02713e-15
-6.00166e-16
-5.30619e-16
3.11051e-15
-7.2752e-16
-1.98774e-15
-5.88432e-16
-5.2018e-16
3.04894e-15
-7.13388e-16
-1.94887e-15
-5.76849e-16
-5.09876e-16
2.98815e-15
-6.99456e-16
-1.91055e-15
-5.65429e-16
-4.99715e-16
2.92822e-15
-6.85734e-16
-1.8728e-15
-5.54181e-16
-4.89706e-16
2.86918e-15
-6.72231e-16
-1.83565e-15
-5.43111e-16
-4.79857e-16
2.81108e-15
-6.58954e-16
-1.79912e-15
-5.32226e-16
-4.70173e-16
2.75396e-15
-6.45908e-16
-1.76323e-15
-5.21532e-16
-4.60658e-16
2.69783e-15
-6.33097e-16
-1.72799e-15
-5.11031e-16
-4.51316e-16
2.64273e-15
-6.20524e-16
-1.69341e-15
-5.00726e-16
-4.42149e-16
2.58867e-15
-6.08191e-16
-1.65949e-15
-4.9062e-16
-4.33159e-16
2.53566e-15
-5.961e-16
-1.62623e-15
-4.80713e-16
-4.24348e-16
2.48371e-15
-5.8425e-16
-1.59365e-15
-4.71007e-16
-4.15716e-16
2.43281e-15
)
;
    }
    axis
    {
        type            empty;
        value           nonuniform 0();
    }
    procBoundary33to27
    {
        type            processor;
        value           nonuniform List<scalar> 
67
(
-1.60302e-05
-1.63836e-05
-1.66547e-05
-1.68537e-05
-1.69894e-05
-1.70698e-05
-1.71017e-05
-1.70911e-05
-1.70435e-05
-1.69635e-05
-1.68554e-05
-1.67229e-05
-1.65694e-05
-1.63978e-05
-1.62108e-05
-1.60106e-05
-1.57994e-05
-1.5579e-05
-1.53511e-05
-1.51171e-05
-1.48784e-05
-1.46361e-05
-1.43913e-05
-1.41448e-05
-1.38974e-05
-1.36499e-05
-1.34029e-05
-1.3157e-05
-1.29125e-05
-1.267e-05
-1.24298e-05
-1.21922e-05
-1.19574e-05
-1.17258e-05
-1.14975e-05
-1.12726e-05
-1.10513e-05
-1.08338e-05
-1.062e-05
-1.04101e-05
-1.0204e-05
-1.00019e-05
-9.80382e-06
-9.60965e-06
2.63505e-05
4.52127e-05
4.86964e-05
4.41438e-05
3.70649e-05
2.95654e-05
2.26078e-05
1.64895e-05
1.12428e-05
6.79278e-06
3.03368e-06
-1.39654e-07
-2.82089e-06
-5.08833e-06
-7.00747e-06
-8.63169e-06
-1.00049e-05
-1.11632e-05
-1.21368e-05
-1.29507e-05
-1.36262e-05
-1.35571e-05
-1.41813e-05
)
;
    }
    procBoundary33to28
    {
        type            processor;
        value           uniform 6.11034e-05;
    }
    procBoundary33to34
    {
        type            processor;
        value           nonuniform List<scalar> 4(5.58459e-05 5.07108e-05 4.57147e-05 4.08728e-05);
    }
    procBoundary33to39
    {
        type            processor;
        value           nonuniform List<scalar> 
67
(
9.76804e-06
9.65563e-06
9.53456e-06
9.4062e-06
9.27178e-06
9.13241e-06
8.98906e-06
8.8426e-06
8.69378e-06
8.54328e-06
8.39171e-06
8.23959e-06
8.08738e-06
7.93549e-06
7.78428e-06
7.63406e-06
7.4851e-06
7.33762e-06
7.19184e-06
7.04792e-06
6.90601e-06
6.76622e-06
6.62867e-06
6.49342e-06
6.36055e-06
6.23012e-06
6.10214e-06
5.97667e-06
5.8537e-06
5.73325e-06
-1.29546e-05
-2.71291e-05
-3.19826e-05
-3.10644e-05
-2.74547e-05
-2.29065e-05
-1.83657e-05
-1.4227e-05
-1.0613e-05
-7.5184e-06
-4.88967e-06
-2.66176e-06
-7.7287e-07
8.3044e-07
2.19297e-06
3.35153e-06
4.33642e-06
5.17262e-06
5.88086e-06
6.47853e-06
6.98025e-06
7.39846e-06
7.7438e-06
8.02541e-06
8.25122e-06
8.42812e-06
8.56212e-06
8.65848e-06
8.72185e-06
8.75631e-06
8.76547e-06
8.75252e-06
8.7203e-06
8.67132e-06
8.60781e-06
4.70321e-06
8.53176e-06
)
;
    }
}


// ************************************************************************* //
