/*--------------------------------*- C++ -*----------------------------------*\
  =========                 |
  \\      /  F ield         | OpenFOAM: The Open Source CFD Toolbox
   \\    /   O peration     | Website:  https://openfoam.org
    \\  /    A nd           | Version:  7
     \\/     M anipulation  |
\*---------------------------------------------------------------------------*/
FoamFile
{
    version     2.0;
    format      ascii;
    class       volScalarField;
    location    "38.999394";
    object      p;
}
// * * * * * * * * * * * * * * * * * * * * * * * * * * * * * * * * * * * * * //

dimensions      [0 2 -2 0 0 0 0];

internalField   nonuniform List<scalar> 
5800
(
-0.217593
-0.218331
-0.218885
-0.219253
-0.219437
-0.000705443
-0.00133061
-0.0019555
-0.00257933
-0.00320129
-0.0038205
-0.00443607
-0.00504703
-0.00565241
-0.00625115
-0.00684218
-0.00742439
-0.00799662
-0.00855769
-0.00910636
-0.00964139
-0.0101615
-0.0106654
-0.0111517
-0.0116192
-0.0120665
-0.0124921
-0.0128949
-0.0132735
-0.0136265
-0.0139526
-0.0142506
-0.0145192
-0.0147573
-0.0149637
-0.0151373
-0.0152771
-0.0153821
-0.0154516
-0.0154846
-0.0154806
-0.0154389
-0.015359
-0.0152405
-0.0150832
-0.0148868
-0.0146514
-0.0143769
-0.0140636
-0.0137117
-0.0133216
-0.0128937
-0.0124287
-0.0119273
-0.0113901
-0.010818
-0.0102118
-0.00957267
-0.00890144
-0.00819914
-0.00746702
-0.00670568
-0.00591747
-0.00510046
-0.00426334
-0.00338917
-0.00252175
-0.00156009
-0.000715894
-0.000794981
-0.00142148
-0.00204763
-0.00267266
-0.00329573
-0.00391597
-0.00453246
-0.00514425
-0.00575032
-0.00634965
-0.00694115
-0.00752368
-0.0080961
-0.00865721
-0.00920579
-0.00974057
-0.0102603
-0.0107636
-0.0112492
-0.0117158
-0.0121621
-0.0125866
-0.012988
-0.0133651
-0.0137164
-0.0140407
-0.0143368
-0.0146033
-0.0148392
-0.0150433
-0.0152144
-0.0153517
-0.0154541
-0.0155208
-0.015551
-0.0155441
-0.0154994
-0.0154166
-0.0152951
-0.0151347
-0.0149354
-0.014697
-0.0144195
-0.0141033
-0.0137485
-0.0133556
-0.012925
-0.0124573
-0.0119533
-0.0114136
-0.0108392
-0.0102308
-0.00958955
-0.00891634
-0.00821217
-0.00747831
-0.00671531
-0.00592565
-0.00510704
-0.00426898
-0.00339253
-0.00252581
-0.00155777
-0.000723081
-0.000968826
-0.0015981
-0.00222685
-0.00285431
-0.00347962
-0.0041019
-0.00472023
-0.00533363
-0.00594109
-0.00654155
-0.00713393
-0.0077171
-0.00828988
-0.00885106
-0.00939943
-0.00993371
-0.0104526
-0.0109549
-0.0114391
-0.011904
-0.0123482
-0.0127703
-0.0131692
-0.0135433
-0.0138914
-0.0142122
-0.0145044
-0.0147669
-0.0149985
-0.015198
-0.0153643
-0.0154966
-0.0155938
-0.0156552
-0.0156799
-0.0156674
-0.015617
-0.0155283
-0.015401
-0.0152348
-0.0150296
-0.0147854
-0.0145022
-0.0141802
-0.0138198
-0.0134214
-0.0129855
-0.0125127
-0.0120037
-0.0114593
-0.0108803
-0.0102676
-0.00962222
-0.00894515
-0.00823736
-0.00750012
-0.00673394
-0.00594139
-0.00511994
-0.00427951
-0.00340012
-0.00253211
-0.00155992
-0.000728686
-0.00122402
-0.00185727
-0.00248977
-0.00312072
-0.00374925
-0.00437447
-0.00499543
-0.00561114
-0.00622057
-0.00682266
-0.00741629
-0.00800032
-0.00857357
-0.00913482
-0.00968283
-0.0102163
-0.010734
-0.0112346
-0.0117167
-0.012179
-0.0126202
-0.0130389
-0.0134338
-0.0138036
-0.0141469
-0.0144625
-0.0147492
-0.0150057
-0.0152309
-0.0154236
-0.015583
-0.0157079
-0.0157975
-0.015851
-0.0158677
-0.0158469
-0.0157882
-0.0156911
-0.0155552
-0.0153804
-0.0151666
-0.0149139
-0.0146222
-0.014292
-0.0139234
-0.013517
-0.0130734
-0.012593
-0.0120768
-0.0115254
-0.0109398
-0.0103208
-0.00966948
-0.00898682
-0.00827376
-0.00753163
-0.00676086
-0.0059641
-0.00513859
-0.00429467
-0.00341137
-0.00254107
-0.00156401
-0.000734088
-0.00155744
-0.00219587
-0.00283323
-0.00346871
-0.00410142
-0.00473042
-0.00535475
-0.00597342
-0.00658535
-0.00718948
-0.00778467
-0.00836975
-0.00894353
-0.00950477
-0.0100522
-0.0105846
-0.0111006
-0.0115989
-0.0120782
-0.0125371
-0.0129742
-0.0133883
-0.013778
-0.0141421
-0.0144791
-0.0147878
-0.0150671
-0.0153157
-0.0155325
-0.0157165
-0.0158666
-0.0159819
-0.0160615
-0.0161048
-0.0161109
-0.0160794
-0.0160097
-0.0159015
-0.0157546
-0.0155686
-0.0153437
-0.0150798
-0.0147772
-0.0144361
-0.014057
-0.0136402
-0.0131865
-0.0126964
-0.0121708
-0.0116105
-0.0110163
-0.0103892
-0.00973013
-0.00904024
-0.00832042
-0.00757197
-0.00679531
-0.00599313
-0.00516245
-0.00431404
-0.00342582
-0.00255241
-0.00156936
-0.000740024
-0.00196714
-0.00261184
-0.00325508
-0.00389602
-0.00453374
-0.00516728
-0.00579565
-0.00641782
-0.00703271
-0.00763922
-0.00823618
-0.00882242
-0.00939672
-0.00995783
-0.0105045
-0.0110353
-0.0115491
-0.0120445
-0.0125201
-0.0129747
-0.0134068
-0.0138151
-0.0141983
-0.0145551
-0.0148843
-0.0151845
-0.0154546
-0.0156934
-0.0158999
-0.016073
-0.0162117
-0.0163152
-0.0163826
-0.0164132
-0.0164064
-0.0163617
-0.0162786
-0.0161568
-0.0159962
-0.0157966
-0.015558
-0.0152806
-0.0149646
-0.0146104
-0.0142183
-0.0137889
-0.013323
-0.0128211
-0.0122841
-0.0117128
-0.0111082
-0.0104713
-0.00980294
-0.00910431
-0.00837632
-0.00762027
-0.00683652
-0.00602784
-0.00519096
-0.00433714
-0.00344312
-0.00256584
-0.00157589
-0.000746593
-0.00245155
-0.00310354
-0.00375359
-0.00440085
-0.00504435
-0.0056831
-0.00631608
-0.00694223
-0.00756045
-0.00816959
-0.00876848
-0.00935591
-0.00993063
-0.0104914
-0.0110369
-0.0115658
-0.0120768
-0.0125685
-0.0130396
-0.0134888
-0.0139148
-0.0143161
-0.0146914
-0.0150396
-0.0153593
-0.0156493
-0.0159085
-0.0161357
-0.0163298
-0.0164899
-0.0166151
-0.0167045
-0.0167574
-0.016773
-0.016751
-0.0166906
-0.0165917
-0.016454
-0.0162773
-0.0160617
-0.0158071
-0.0155138
-0.0151821
-0.0148124
-0.0144052
-0.0139611
-0.0134808
-0.0129651
-0.0124148
-0.0118309
-0.0112142
-0.0105658
-0.00988666
-0.00917791
-0.00844046
-0.00767563
-0.0068837
-0.00606753
-0.00522354
-0.00436351
-0.00346288
-0.00258109
-0.00158344
-0.000753754
-0.00300967
-0.00366989
-0.00432761
-0.00498195
-0.00563192
-0.00627647
-0.00691455
-0.00754507
-0.00816689
-0.00877883
-0.0093797
-0.00996824
-0.0105432
-0.0111033
-0.0116472
-0.0121736
-0.0126811
-0.0131684
-0.0136341
-0.0140769
-0.0144955
-0.0148885
-0.0152546
-0.0155926
-0.0159013
-0.0161793
-0.0164257
-0.0166393
-0.0168192
-0.0169643
-0.0170738
-0.0171469
-0.017183
-0.0171814
-0.0171417
-0.0170635
-0.0169464
-0.0167904
-0.0165953
-0.0163612
-0.0160883
-0.0157769
-0.0154272
-0.0150399
-0.0146155
-0.0141546
-0.0136581
-0.0131267
-0.0125614
-0.011963
-0.0113327
-0.0106713
-0.00998005
-0.00925991
-0.00851182
-0.00773715
-0.00693606
-0.00611152
-0.00525962
-0.00439268
-0.00348474
-0.0025979
-0.00159183
-0.000761457
-0.00364094
-0.00431025
-0.00497641
-0.00563852
-0.00629554
-0.00694639
-0.00758996
-0.00822514
-0.00885073
-0.00946555
-0.0100683
-0.0106579
-0.0112328
-0.0117918
-0.0123336
-0.0128568
-0.01336
-0.013842
-0.0143013
-0.0147366
-0.0151466
-0.0155299
-0.0158853
-0.0162116
-0.0165074
-0.0167718
-0.0170035
-0.0172016
-0.0173651
-0.0174931
-0.0175848
-0.0176395
-0.0176565
-0.0176355
-0.0175758
-0.0174774
-0.0173398
-0.0171632
-0.0169474
-0.0166927
-0.0163992
-0.0160674
-0.0156977
-0.0152908
-0.0148471
-0.0143676
-0.0138529
-0.0133041
-0.012722
-0.0121077
-0.0114622
-0.0107866
-0.0100819
-0.00934918
-0.0085894
-0.00780391
-0.0069928
-0.00615912
-0.0052986
-0.00442416
-0.00350832
-0.00261602
-0.00160091
-0.00076965
-0.00434518
-0.00502434
-0.00569963
-0.00637012
-0.0070347
-0.00769224
-0.0083416
-0.00898162
-0.00961108
-0.0102287
-0.0108333
-0.0114235
-0.011998
-0.0125554
-0.0130945
-0.0136137
-0.0141119
-0.0145875
-0.0150392
-0.0154658
-0.0158658
-0.0162381
-0.0165812
-0.016894
-0.0171754
-0.0174242
-0.0176394
-0.01782
-0.017965
-0.0180738
-0.0181455
-0.0181795
-0.0181753
-0.0181325
-0.0180506
-0.0179296
-0.0177694
-0.0175698
-0.0173311
-0.0170535
-0.0167374
-0.0163832
-0.0159914
-0.0155628
-0.015098
-0.0145979
-0.0140634
-0.0134955
-0.0128952
-0.0122635
-0.0116015
-0.0109103
-0.0101909
-0.00944462
-0.0086722
-0.00787504
-0.00705314
-0.00620966
-0.00533992
-0.00445749
-0.00353325
-0.00263517
-0.00161048
-0.000778277
-0.00512254
-0.00581226
-0.00649728
-0.00717665
-0.00784919
-0.00851373
-0.00916908
-0.00981403
-0.0104473
-0.0110677
-0.0116737
-0.0122642
-0.0128378
-0.013393
-0.0139286
-0.014443
-0.014935
-0.0154032
-0.0158462
-0.0162627
-0.0166513
-0.0170109
-0.0173401
-0.0176378
-0.0179028
-0.0181342
-0.0183308
-0.0184918
-0.0186164
-0.0187037
-0.0187533
-0.0187644
-0.0187367
-0.0186698
-0.0185635
-0.0184178
-0.0182325
-0.0180078
-0.0177441
-0.0174415
-0.0171005
-0.0167218
-0.016306
-0.0158538
-0.0153661
-0.0148437
-0.0142878
-0.0136992
-0.0130791
-0.0124286
-0.0117489
-0.011041
-0.010306
-0.00954514
-0.00875922
-0.00794965
-0.00711631
-0.00626247
-0.00538301
-0.0044922
-0.00355915
-0.0026551
-0.0016204
-0.000787284
-0.00597351
-0.00667438
-0.00736965
-0.00805831
-0.00873913
-0.00941086
-0.0100723
-0.0107221
-0.0113591
-0.0119819
-0.0125891
-0.0131794
-0.0137514
-0.0143036
-0.0148348
-0.0153435
-0.0158283
-0.0162878
-0.0167207
-0.0171256
-0.0175013
-0.0178466
-0.0181601
-0.0184408
-0.0186876
-0.0188995
-0.0190755
-0.0192148
-0.0193167
-0.0193805
-0.0194056
-0.0193916
-0.0193381
-0.019245
-0.019112
-0.0189392
-0.0187267
-0.0184748
-0.0181838
-0.0178541
-0.0174863
-0.0170812
-0.0166394
-0.0161618
-0.0156494
-0.0151032
-0.0145242
-0.0139135
-0.0132724
-0.0126018
-0.0119032
-0.0111775
-0.0104259
-0.00964967
-0.00884951
-0.00802688
-0.00718153
-0.00631687
-0.0054273
-0.00452783
-0.00358568
-0.00267554
-0.0016305
-0.000796619
-0.0068988
-0.00761136
-0.00831728
-0.00901555
-0.00970485
-0.0103839
-0.0110513
-0.011706
-0.0123463
-0.0129712
-0.013579
-0.0141685
-0.0147381
-0.0152865
-0.0158123
-0.0163141
-0.0167904
-0.0172399
-0.0176612
-0.0180531
-0.0184142
-0.0187433
-0.0190393
-0.0193011
-0.0195276
-0.019718
-0.0198713
-0.0199868
-0.0200638
-0.0201017
-0.0201002
-0.0200587
-0.0199772
-0.0198555
-0.0196935
-0.0194915
-0.0192497
-0.0189683
-0.0186479
-0.0182891
-0.0178926
-0.0174591
-0.0169895
-0.0164849
-0.0159461
-0.0153744
-0.0147709
-0.0141368
-0.0134733
-0.0127816
-0.012063
-0.0113186
-0.0105496
-0.00975716
-0.00894212
-0.00810588
-0.00724808
-0.00637225
-0.00547226
-0.00456395
-0.00361248
-0.00269627
-0.00164062
-0.000806239
-0.00789941
-0.00862406
-0.00934097
-0.0100491
-0.0107469
-0.0114332
-0.0121066
-0.0127657
-0.0134091
-0.0140355
-0.0146433
-0.0152311
-0.0157975
-0.0163411
-0.0168604
-0.017354
-0.0178204
-0.0182584
-0.0186666
-0.0190436
-0.0193883
-0.0196995
-0.019976
-0.0202168
-0.020421
-0.0205877
-0.0207161
-0.0208055
-0.0208553
-0.0208651
-0.0208346
-0.0207634
-0.0206516
-0.020499
-0.0203058
-0.0200724
-0.0197989
-0.019486
-0.0191343
-0.0187444
-0.0183171
-0.0178534
-0.0173544
-0.0168209
-0.0162543
-0.0156557
-0.0150263
-0.0143675
-0.0136804
-0.0129665
-0.0122269
-0.011463
-0.0106758
-0.00986661
-0.00903613
-0.00818585
-0.00731523
-0.00642796
-0.00551735
-0.00460012
-0.00363921
-0.00271705
-0.00165061
-0.000816105
-0.0089765
-0.00971359
-0.0104417
-0.0111597
-0.0118661
-0.0125595
-0.0132386
-0.0139017
-0.0145477
-0.0151749
-0.0157819
-0.0163672
-0.0169294
-0.0174669
-0.0179784
-0.0184624
-0.0189175
-0.0193423
-0.0197355
-0.020096
-0.0204223
-0.0207135
-0.0209685
-0.0211862
-0.0213658
-0.0215066
-0.0216077
-0.0216687
-0.0216891
-0.0216684
-0.0216065
-0.0215033
-0.0213588
-0.0211731
-0.0209465
-0.0206794
-0.0203723
-0.0200257
-0.0196406
-0.0192176
-0.0187578
-0.0182622
-0.0177319
-0.0171681
-0.0165721
-0.0159452
-0.0152887
-0.0146039
-0.0138923
-0.0131552
-0.0123939
-0.0116096
-0.0108036
-0.00997703
-0.00913068
-0.00826599
-0.00738228
-0.00648341
-0.00556207
-0.00463593
-0.00366556
-0.00273765
-0.00166033
-0.000826189
-0.0101315
-0.0108812
-0.0116206
-0.0123486
-0.0130634
-0.0137636
-0.0144479
-0.0151146
-0.0157624
-0.0163896
-0.0169949
-0.0175766
-0.0181333
-0.0186635
-0.0191658
-0.0196386
-0.0200806
-0.0204906
-0.020867
-0.0212088
-0.0215148
-0.0217839
-0.0220151
-0.0222075
-0.0223603
-0.0224727
-0.0225443
-0.0225745
-0.0225629
-0.0225094
-0.0224138
-0.0222762
-0.0220967
-0.0218756
-0.0216133
-0.0213103
-0.0209674
-0.0205852
-0.0201647
-0.0197068
-0.0192126
-0.0186834
-0.0181203
-0.0175246
-0.0168979
-0.0162413
-0.0155565
-0.0148447
-0.0141076
-0.0133464
-0.0125625
-0.0117573
-0.0109318
-0.0100875
-0.00922489
-0.00834554
-0.00744857
-0.00653803
-0.00560591
-0.00467099
-0.0036912
-0.00275787
-0.00166964
-0.000836476
-0.0113659
-0.0121284
-0.0128791
-0.0136168
-0.0143398
-0.0150465
-0.0157354
-0.016405
-0.0170538
-0.0176801
-0.0182825
-0.0188594
-0.0194093
-0.0199307
-0.0204221
-0.0208821
-0.0213092
-0.0217023
-0.0220599
-0.022381
-0.0226645
-0.0229092
-0.0231143
-0.023279
-0.0234025
-0.0234842
-0.0235237
-0.0235207
-0.0234748
-0.023386
-0.0232543
-0.0230798
-0.022863
-0.0226042
-0.022304
-0.021963
-0.0215821
-0.0211622
-0.0207044
-0.0202098
-0.0196795
-0.019115
-0.0185175
-0.0178886
-0.0172298
-0.0165424
-0.0158281
-0.0150884
-0.0143248
-0.0135387
-0.0127316
-0.0119049
-0.0110596
-0.0101971
-0.00931796
-0.00842377
-0.00751344
-0.00659124
-0.00564842
-0.00470491
-0.00371583
-0.00277752
-0.00167841
-0.000846963
-0.0126814
-0.0134567
-0.0142186
-0.0149658
-0.0156965
-0.016409
-0.017102
-0.0177736
-0.0184224
-0.0190467
-0.019645
-0.0202157
-0.0207573
-0.0212682
-0.0217469
-0.0221921
-0.0226024
-0.0229766
-0.0233132
-0.0236114
-0.0238699
-0.0240879
-0.0242645
-0.0243989
-0.0244907
-0.0245392
-0.0245441
-0.0245053
-0.0244225
-0.0242959
-0.0241256
-0.023912
-0.0236555
-0.0233566
-0.0230163
-0.0226351
-0.0222143
-0.0217548
-0.0212577
-0.0207245
-0.0201565
-0.0195551
-0.0189219
-0.0182584
-0.0175662
-0.0168469
-0.0161021
-0.0153335
-0.0145427
-0.0137311
-0.0129002
-0.0120514
-0.0111859
-0.0103049
-0.0094091
-0.00849999
-0.00757629
-0.00664254
-0.00568914
-0.00473734
-0.00373918
-0.0027964
-0.00168652
-0.000857667
-0.0140799
-0.0148679
-0.0156407
-0.0163969
-0.0171348
-0.0178525
-0.0185486
-0.0192212
-0.0198689
-0.0204899
-0.0210827
-0.0216456
-0.0221771
-0.0226757
-0.0231399
-0.0235683
-0.0239596
-0.0243125
-0.0246259
-0.0248986
-0.0251298
-0.0253185
-0.025464
-0.0255657
-0.025623
-0.0256357
-0.0256035
-0.0255262
-0.025404
-0.0252371
-0.0250257
-0.0247705
-0.0244719
-0.0241308
-0.023748
-0.0233246
-0.0228618
-0.0223606
-0.0218226
-0.0212492
-0.0206418
-0.0200021
-0.0193316
-0.0186322
-0.0179055
-0.0171532
-0.0163771
-0.0155788
-0.01476
-0.0139222
-0.0130671
-0.0121958
-0.0113098
-0.0104102
-0.00949756
-0.00857353
-0.00763653
-0.0066914
-0.00572764
-0.00476793
-0.00376096
-0.00281437
-0.00169384
-0.000868622
-0.0155634
-0.0163637
-0.017147
-0.0179117
-0.0186561
-0.0193781
-0.0200762
-0.0207487
-0.021394
-0.0220102
-0.0225958
-0.0231492
-0.0236687
-0.024153
-0.0246005
-0.0250099
-0.0253798
-0.0257092
-0.0259967
-0.0262416
-0.0264428
-0.0265995
-0.0267113
-0.0267775
-0.0267977
-0.0267719
-0.0266997
-0.0265814
-0.0264172
-0.0262074
-0.0259524
-0.0256531
-0.0253101
-0.0249244
-0.0244971
-0.0240293
-0.0235225
-0.0229779
-0.0223971
-0.0217817
-0.0211334
-0.0204539
-0.019745
-0.0190085
-0.0182462
-0.01746
-0.0166516
-0.0158229
-0.0149755
-0.0141111
-0.0132312
-0.0123373
-0.0114305
-0.0105121
-0.00958265
-0.00864375
-0.0076936
-0.00673735
-0.0057635
-0.00479636
-0.00378091
-0.00283126
-0.00170026
-0.000879884
-0.0171338
-0.0179461
-0.0187393
-0.0195119
-0.0202617
-0.0209871
-0.0216861
-0.0223571
-0.0229983
-0.0236081
-0.0241847
-0.0247266
-0.0252322
-0.0256999
-0.0261284
-0.0265164
-0.0268625
-0.0271656
-0.0274247
-0.0276389
-0.0278074
-0.0279295
-0.0280047
-0.0280326
-0.028013
-0.0279457
-0.027831
-0.0276689
-0.02746
-0.0272046
-0.0269036
-0.0265577
-0.0261679
-0.0257354
-0.0252613
-0.0247472
-0.0241943
-0.0236044
-0.0229791
-0.0223202
-0.0216295
-0.0209089
-0.0201603
-0.0193856
-0.0185868
-0.0177657
-0.0169244
-0.0160646
-0.0151881
-0.0142966
-0.0133917
-0.0124748
-0.0115471
-0.0106099
-0.00966368
-0.00871007
-0.00774697
-0.00677994
-0.00579635
-0.00482233
-0.00379878
-0.00284695
-0.00170565
-0.00089153
-0.0187934
-0.0196171
-0.0204195
-0.021199
-0.0219533
-0.0226806
-0.0233791
-0.0240471
-0.0246826
-0.025284
-0.0258497
-0.026378
-0.0268673
-0.0273161
-0.0277231
-0.0280871
-0.0284067
-0.0286809
-0.0289087
-0.0290894
-0.0292223
-0.0293068
-0.0293425
-0.0293292
-0.0292668
-0.0291553
-0.0289951
-0.0287866
-0.0285302
-0.0282267
-0.027877
-0.0274821
-0.0270432
-0.0265616
-0.0260386
-0.025476
-0.0248753
-0.0242384
-0.0235669
-0.022863
-0.0221285
-0.0213655
-0.020576
-0.0197621
-0.0189258
-0.0180692
-0.0171942
-0.0163027
-0.0153967
-0.0144777
-0.0135475
-0.0126075
-0.0116589
-0.010703
-0.00974004
-0.00877193
-0.00779616
-0.00681874
-0.00582582
-0.00484555
-0.00381435
-0.00286131
-0.00170992
-0.000903664
-0.0205443
-0.0213787
-0.0221894
-0.0229747
-0.0237323
-0.0244602
-0.0251566
-0.0258196
-0.0264476
-0.0270386
-0.0275911
-0.0281033
-0.0285739
-0.0290013
-0.0293841
-0.0297212
-0.0300115
-0.0302538
-0.0304475
-0.0305917
-0.0306859
-0.0307298
-0.030723
-0.0306654
-0.0305573
-0.0303987
-0.0301902
-0.0299322
-0.0296257
-0.0292714
-0.0288705
-0.0284242
-0.0279338
-0.0274008
-0.0268269
-0.0262139
-0.0255635
-0.0248777
-0.0241586
-0.0234081
-0.0226285
-0.0218219
-0.0209905
-0.0201364
-0.0192619
-0.018369
-0.0174597
-0.0165362
-0.0156002
-0.0146536
-0.0136979
-0.0127347
-0.0117651
-0.0107905
-0.00981114
-0.0088288
-0.00784069
-0.00685336
-0.00585156
-0.00486575
-0.00382737
-0.00287424
-0.00171295
-0.000916411
-0.0223889
-0.0232331
-0.024051
-0.0248408
-0.0256001
-0.026327
-0.0270194
-0.0276756
-0.0282938
-0.0288722
-0.029409
-0.0299027
-0.0303518
-0.0307549
-0.0311107
-0.0314181
-0.0316759
-0.0318833
-0.0320396
-0.0321442
-0.0321967
-0.0321967
-0.0321443
-0.0320394
-0.0318824
-0.0316737
-0.0314139
-0.0311038
-0.0307444
-0.0303367
-0.029882
-0.0293818
-0.0288376
-0.0282511
-0.0276242
-0.0269588
-0.0262569
-0.0255206
-0.0247522
-0.0239539
-0.023128
-0.0222767
-0.0214023
-0.0205073
-0.0195937
-0.0186639
-0.0177199
-0.0167639
-0.0157977
-0.0148231
-0.0138419
-0.0128555
-0.0118651
-0.0108721
-0.00987642
-0.00888019
-0.00788015
-0.00688343
-0.00587325
-0.00488269
-0.00383764
-0.00288565
-0.00171462
-0.000929916
-0.0243295
-0.0251823
-0.0260061
-0.0267989
-0.0275583
-0.0282822
-0.0289687
-0.0296159
-0.0302219
-0.0307851
-0.0313036
-0.031776
-0.0322008
-0.0325766
-0.0329023
-0.0331767
-0.0333989
-0.0335682
-0.0336839
-0.0337455
-0.0337529
-0.0337059
-0.0336046
-0.0334492
-0.0332403
-0.0329784
-0.0326644
-0.0322992
-0.031884
-0.0314202
-0.0309092
-0.0303527
-0.0297524
-0.0291103
-0.0284283
-0.0277087
-0.0269536
-0.0261653
-0.0253462
-0.0244987
-0.0236252
-0.0227282
-0.0218101
-0.0208733
-0.0199201
-0.0189528
-0.0179737
-0.0169848
-0.0159882
-0.0149857
-0.0139789
-0.0129694
-0.0119583
-0.010947
-0.00993538
-0.00892567
-0.00791412
-0.0069086
-0.00589059
-0.00489613
-0.00384494
-0.00289544
-0.00171482
-0.000944344
-0.0263684
-0.0272285
-0.0280566
-0.0288508
-0.0296084
-0.0303273
-0.0310055
-0.0316411
-0.0322324
-0.0327776
-0.033275
-0.033723
-0.0341204
-0.0344657
-0.034758
-0.0349961
-0.0351793
-0.035307
-0.0353786
-0.0353939
-0.0353528
-0.0352554
-0.0351019
-0.0348928
-0.0346287
-0.0343105
-0.0339392
-0.0335161
-0.0330424
-0.0325199
-0.03195
-0.0313348
-0.0306762
-0.0299763
-0.0292373
-0.0284617
-0.0276517
-0.0268099
-0.0259387
-0.0250409
-0.0241188
-0.0231751
-0.0222124
-0.0212331
-0.0202397
-0.0192346
-0.01822
-0.0171981
-0.016171
-0.0151404
-0.0141081
-0.0130756
-0.012044
-0.0110147
-0.00998757
-0.00896481
-0.00794226
-0.00692856
-0.00590331
-0.00490587
-0.00384909
-0.00290355
-0.00171344
-0.000959872
-0.028508
-0.0293739
-0.0302046
-0.0309981
-0.0317516
-0.0324631
-0.0331306
-0.033752
-0.0343257
-0.0348499
-0.035323
-0.0357435
-0.03611
-0.0364215
-0.0366768
-0.0368751
-0.0370158
-0.0370983
-0.0371223
-0.0370877
-0.0369946
-0.0368433
-0.0366342
-0.036368
-0.0360455
-0.0356679
-0.0352363
-0.0347523
-0.0342174
-0.0336334
-0.0330022
-0.032326
-0.0316068
-0.0308471
-0.0300493
-0.0292158
-0.0283494
-0.0274526
-0.0265282
-0.0255788
-0.0246072
-0.023616
-0.0226079
-0.0215856
-0.0205516
-0.0195082
-0.0184579
-0.0174029
-0.0163451
-0.0152866
-0.0142289
-0.0131736
-0.0121218
-0.0110749
-0.0100326
-0.00899725
-0.00796421
-0.00694302
-0.00591114
-0.00491169
-0.00384989
-0.0029099
-0.00171035
-0.000976678
-0.0307506
-0.0316204
-0.0324517
-0.0332423
-0.0339895
-0.034691
-0.0353448
-0.0359491
-0.0365021
-0.0370021
-0.0374474
-0.0378369
-0.0381691
-0.038443
-0.0386578
-0.0388126
-0.038907
-0.0389406
-0.0389133
-0.0388251
-0.0386764
-0.0384676
-0.0381994
-0.0378726
-0.0374885
-0.0370483
-0.0365534
-0.0360056
-0.0354067
-0.0347587
-0.0340637
-0.0333241
-0.0325422
-0.0317207
-0.0308622
-0.0299694
-0.029045
-0.0280919
-0.0271129
-0.026111
-0.0250889
-0.0240495
-0.0229955
-0.0219296
-0.0208546
-0.0197727
-0.0186866
-0.0175983
-0.01651
-0.0154235
-0.0143406
-0.0132628
-0.0121912
-0.011127
-0.01007
-0.00902266
-0.0079797
-0.00695173
-0.00591385
-0.00491342
-0.00384717
-0.00291443
-0.00170544
-0.00099494
-0.0330986
-0.0339703
-0.0347999
-0.0355851
-0.0363231
-0.0370117
-0.0376489
-0.0382328
-0.0387617
-0.0392339
-0.039648
-0.0400027
-0.0402968
-0.0405293
-0.0406996
-0.040807
-0.0408512
-0.040832
-0.0407496
-0.040604
-0.040396
-0.040126
-0.0397952
-0.0394046
-0.0389555
-0.0384495
-0.0378882
-0.0372737
-0.0366081
-0.0358934
-0.0351322
-0.034327
-0.0334804
-0.0325952
-0.0316742
-0.0307203
-0.0297366
-0.028726
-0.0276914
-0.026636
-0.0255626
-0.0244743
-0.0233739
-0.0222641
-0.0211477
-0.0200272
-0.0189051
-0.0177836
-0.0166648
-0.0155507
-0.0144428
-0.0133429
-0.0122517
-0.0111708
-0.0100995
-0.00904074
-0.00798845
-0.00695445
-0.00591123
-0.00491089
-0.00384077
-0.00291705
-0.00169858
-0.00101482
-0.0355542
-0.0364254
-0.0372508
-0.0380278
-0.0387537
-0.0394262
-0.0400433
-0.0406033
-0.0411045
-0.0415452
-0.0419241
-0.0422401
-0.042492
-0.0426792
-0.0428009
-0.0428569
-0.0428468
-0.0427709
-0.0426292
-0.0424225
-0.0421512
-0.0418165
-0.0414194
-0.0409614
-0.040444
-0.039869
-0.0392384
-0.0385544
-0.0378192
-0.0370354
-0.0362056
-0.0353326
-0.0344192
-0.0334685
-0.0324834
-0.0314671
-0.0304226
-0.0293533
-0.0282621
-0.0271524
-0.0260271
-0.0248893
-0.0237419
-0.0225879
-0.02143
-0.0202708
-0.0191127
-0.0179581
-0.016809
-0.0156675
-0.014535
-0.0134132
-0.012303
-0.0112058
-0.0101208
-0.00905124
-0.00799024
-0.00695099
-0.00590311
-0.00490395
-0.00383053
-0.0029177
-0.00168965
-0.00103644
-0.0381197
-0.0389878
-0.039806
-0.0405717
-0.0412822
-0.0419351
-0.0425285
-0.0430608
-0.0435303
-0.0439355
-0.0442751
-0.0445482
-0.0447538
-0.0448912
-0.0449602
-0.0449604
-0.044892
-0.0447551
-0.0445502
-0.0442782
-0.04394
-0.0435367
-0.0430697
-0.0425408
-0.0419518
-0.0413046
-0.0406016
-0.0398451
-0.0390378
-0.0381824
-0.0372817
-0.0363388
-0.0353568
-0.0343387
-0.033288
-0.0322078
-0.0311014
-0.0299723
-0.0288237
-0.0276589
-0.026481
-0.0252933
-0.0240987
-0.0229002
-0.0217007
-0.0205027
-0.0193088
-0.0181212
-0.0169421
-0.0157734
-0.0146167
-0.0134735
-0.0123447
-0.0112318
-0.0101337
-0.00905395
-0.00798488
-0.00694118
-0.00588931
-0.00489245
-0.00381631
-0.00291627
-0.00167852
-0.00105989
-0.0407972
-0.0416592
-0.042467
-0.0432181
-0.0439094
-0.0445389
-0.0451047
-0.0456052
-0.0460388
-0.0464041
-0.0467001
-0.0469258
-0.0470806
-0.047164
-0.0471757
-0.0471158
-0.0469846
-0.0467825
-0.0465103
-0.046169
-0.0457597
-0.0452841
-0.0447436
-0.0441403
-0.0434763
-0.0427538
-0.0419754
-0.0411437
-0.0402617
-0.0393322
-0.0383585
-0.0373436
-0.036291
-0.035204
-0.0340861
-0.0329408
-0.0317714
-0.0305816
-0.0293747
-0.0281541
-0.0269232
-0.0256852
-0.0244432
-0.0232001
-0.021959
-0.0207223
-0.0194927
-0.0182724
-0.0170636
-0.0158682
-0.0146876
-0.0135236
-0.0123767
-0.0112486
-0.0101379
-0.0090487
-0.00797222
-0.00692488
-0.00586972
-0.00487627
-0.00379798
-0.00291267
-0.00166509
-0.00108521
-0.0435888
-0.0444413
-0.0452352
-0.0459678
-0.0466361
-0.0472381
-0.0477719
-0.0482362
-0.0486293
-0.0489502
-0.0491979
-0.0493717
-0.049471
-0.0494956
-0.0494455
-0.049321
-0.0491226
-0.0488509
-0.0485071
-0.0480923
-0.0476081
-0.0470562
-0.0464386
-0.0457574
-0.045015
-0.0442141
-0.0433574
-0.0424478
-0.0414885
-0.0404826
-0.0394336
-0.0383449
-0.03722
-0.0360626
-0.0348762
-0.0336645
-0.0324311
-0.0311797
-0.0299138
-0.028637
-0.0273527
-0.0260641
-0.0247744
-0.0234868
-0.0222041
-0.0209289
-0.0196639
-0.0184112
-0.0171731
-0.0159513
-0.0147474
-0.013563
-0.0123986
-0.011256
-0.0101334
-0.00903535
-0.00795215
-0.00690198
-0.00584422
-0.00485531
-0.00377545
-0.00290678
-0.00164926
-0.00111235
-0.0464963
-0.0473357
-0.0481117
-0.0488217
-0.0494626
-0.0500326
-0.0505299
-0.0509532
-0.0513011
-0.0515728
-0.0517673
-0.0518842
-0.0519232
-0.0518843
-0.0517676
-0.0515738
-0.0513035
-0.0509578
-0.050538
-0.0500457
-0.0494825
-0.0488505
-0.048152
-0.0473895
-0.0465655
-0.0456831
-0.0447451
-0.043755
-0.0427159
-0.0416314
-0.0405052
-0.0393407
-0.0381419
-0.0369125
-0.0356564
-0.0343772
-0.0330789
-0.0317652
-0.0304399
-0.0291064
-0.0277683
-0.026429
-0.0250917
-0.0237595
-0.0224354
-0.021122
-0.0198218
-0.0185372
-0.0172701
-0.0160226
-0.0147959
-0.0135917
-0.0124104
-0.0112538
-0.01012
-0.00901383
-0.00792458
-0.0068724
-0.00581274
-0.00482945
-0.00374862
-0.00289846
-0.00163093
-0.00114118
-0.0495216
-0.0503438
-0.0510976
-0.0517804
-0.0523892
-0.0529223
-0.0533782
-0.0537555
-0.0540532
-0.0542704
-0.0544067
-0.0544616
-0.0544353
-0.0543277
-0.0541396
-0.0538717
-0.0535249
-0.0531007
-0.0526006
-0.0520264
-0.0513802
-0.0506643
-0.0498813
-0.0490339
-0.0481252
-0.0471582
-0.0461362
-0.0450629
-0.0439417
-0.0427765
-0.0415709
-0.0403291
-0.0390548
-0.0377522
-0.0364251
-0.0350776
-0.0337136
-0.032337
-0.0309516
-0.0295611
-0.0281691
-0.026779
-0.0253942
-0.0240176
-0.0226523
-0.021301
-0.0199661
-0.0186499
-0.0173545
-0.0160817
-0.0148328
-0.0136094
-0.0124119
-0.0112421
-0.0100977
-0.00898409
-0.0078895
-0.0068361
-0.00577525
-0.00479862
-0.00371743
-0.00288755
-0.00161004
-0.0011715
-0.0526663
-0.0534666
-0.0541935
-0.0548442
-0.0554159
-0.0559069
-0.056316
-0.056642
-0.0568841
-0.0570416
-0.0571142
-0.0571019
-0.0570049
-0.0568237
-0.0565591
-0.0562121
-0.0557841
-0.0552768
-0.0546919
-0.0540316
-0.0532984
-0.0524948
-0.0516236
-0.0506881
-0.0496913
-0.0486368
-0.0475282
-0.0463692
-0.0451636
-0.0439155
-0.042629
-0.041308
-0.0399569
-0.0385798
-0.0371808
-0.035764
-0.0343337
-0.0328937
-0.0314479
-0.0300003
-0.0285543
-0.0271135
-0.0256812
-0.0242605
-0.0228544
-0.0214655
-0.0200964
-0.0187492
-0.017426
-0.0161285
-0.0148581
-0.0136162
-0.0124031
-0.0112207
-0.0100664
-0.00894613
-0.0078469
-0.00679306
-0.00573173
-0.00476275
-0.00368185
-0.00287387
-0.00158656
-0.00120296
-0.0559316
-0.0567051
-0.0573998
-0.0580131
-0.0585423
-0.0589857
-0.0593424
-0.0596114
-0.0597922
-0.0598844
-0.0598878
-0.0598028
-0.0596298
-0.0593696
-0.0590233
-0.0585924
-0.0580783
-0.0574832
-0.0568091
-0.0560585
-0.0552342
-0.0543391
-0.0533763
-0.0523492
-0.0512613
-0.0501165
-0.0489185
-0.0476714
-0.0463793
-0.0450465
-0.0436771
-0.0422757
-0.0408464
-0.0393937
-0.0379219
-0.0364352
-0.034938
-0.0334342
-0.0319279
-0.0304229
-0.028923
-0.0274316
-0.0259521
-0.0244877
-0.0230411
-0.0216153
-0.0202124
-0.0188349
-0.0174845
-0.016163
-0.0148717
-0.013612
-0.012384
-0.0111897
-0.0100263
-0.0089
-0.00779683
-0.00674332
-0.00568222
-0.00472178
-0.00364187
-0.00285722
-0.00156047
-0.00123514
-0.0593187
-0.0600599
-0.0607169
-0.061287
-0.0617677
-0.0621576
-0.062456
-0.0626621
-0.0627757
-0.0627967
-0.0627252
-0.0625617
-0.0623072
-0.0619626
-0.0615295
-0.0610094
-0.0604045
-0.0597169
-0.0589492
-0.0581041
-0.0571848
-0.0561943
-0.0551364
-0.0540145
-0.0528325
-0.0515946
-0.0503047
-0.0489673
-0.0475866
-0.0461672
-0.0447135
-0.0432301
-0.0417216
-0.0401923
-0.038647
-0.0370898
-0.0355252
-0.0339574
-0.0323904
-0.0308282
-0.0292744
-0.0277327
-0.0262064
-0.0246986
-0.0232122
-0.0217499
-0.020314
-0.0189067
-0.0175298
-0.016185
-0.0148736
-0.0135968
-0.0123546
-0.0111492
-0.00997733
-0.00884579
-0.00773939
-0.00668692
-0.00562676
-0.00467569
-0.0035975
-0.00283738
-0.00153181
-0.00126749
-0.0628284
-0.0635313
-0.0641445
-0.0646652
-0.0650912
-0.0654213
-0.065655
-0.0657921
-0.0658324
-0.065776
-0.0656236
-0.0653759
-0.0650341
-0.0645997
-0.0640744
-0.0634602
-0.0627594
-0.0619747
-0.0611089
-0.0601652
-0.0591468
-0.0580575
-0.0569009
-0.0556811
-0.0544021
-0.0530684
-0.0516843
-0.0502544
-0.0487832
-0.0472756
-0.0457361
-0.0441696
-0.0425807
-0.0409742
-0.0393546
-0.0377265
-0.0360943
-0.0344623
-0.0328347
-0.0312153
-0.029608
-0.0280164
-0.0264437
-0.0248931
-0.0233674
-0.0218692
-0.0204009
-0.0189646
-0.017562
-0.0161947
-0.0148638
-0.0135707
-0.0123152
-0.0110994
-0.00991973
-0.00878364
-0.0076747
-0.00662397
-0.00556547
-0.00462446
-0.0035488
-0.00281411
-0.00150063
-0.00129934
-0.0664611
-0.0671193
-0.067682
-0.0681467
-0.0685113
-0.068775
-0.0689376
-0.068999
-0.0689595
-0.0688196
-0.0685801
-0.0682422
-0.0678075
-0.0672776
-0.0666547
-0.0659412
-0.0651397
-0.0642533
-0.0632851
-0.0622385
-0.0611173
-0.0599254
-0.0586669
-0.0573461
-0.0559674
-0.0545354
-0.0530548
-0.0515303
-0.049967
-0.0483695
-0.046743
-0.0450923
-0.0434222
-0.0417377
-0.0400434
-0.0383441
-0.0366442
-0.034948
-0.0332598
-0.0315836
-0.0299232
-0.028282
-0.0266635
-0.0250707
-0.0235064
-0.0219731
-0.0204732
-0.0190086
-0.0175811
-0.0161921
-0.0148426
-0.0135339
-0.0122657
-0.0110403
-0.00985366
-0.00871371
-0.00760296
-0.00655458
-0.00549847
-0.00456809
-0.00349587
-0.00278716
-0.00146706
-0.00132995
-0.0702168
-0.0708231
-0.0713284
-0.07173
-0.0720262
-0.0722165
-0.0723011
-0.0722801
-0.0721543
-0.0719243
-0.0715915
-0.0711573
-0.0706237
-0.0699927
-0.0692669
-0.0684489
-0.0675419
-0.0665491
-0.0654741
-0.0643207
-0.0630929
-0.061795
-0.0604314
-0.0590067
-0.0575255
-0.0559928
-0.0544136
-0.0527928
-0.0511356
-0.0494471
-0.0477323
-0.0459965
-0.0442445
-0.0424815
-0.0407122
-0.0389415
-0.0371738
-0.0354136
-0.0336652
-0.0319325
-0.0302194
-0.0285293
-0.0268656
-0.0252313
-0.0236291
-0.0220616
-0.0205308
-0.0190389
-0.0175872
-0.0161773
-0.01481
-0.0134866
-0.0122066
-0.0109723
-0.00977938
-0.00863625
-0.00752436
-0.00647893
-0.00542593
-0.00450662
-0.00343881
-0.00275628
-0.00143123
-0.00135844
-0.0746419
-0.0750821
-0.0754132