/*--------------------------------*- C++ -*----------------------------------*\
  =========                 |
  \\      /  F ield         | OpenFOAM: The Open Source CFD Toolbox
   \\    /   O peration     | Website:  https://openfoam.org
    \\  /    A nd           | Version:  7
     \\/     M anipulation  |
\*---------------------------------------------------------------------------*/
FoamFile
{
    version     2.0;
    format      ascii;
    class       volScalarField;
    location    "4";
    object      p;
}
// * * * * * * * * * * * * * * * * * * * * * * * * * * * * * * * * * * * * * //

dimensions      [0 2 -2 0 0 0 0];

internalField   nonuniform List<scalar> 
435
(
-0.104662
-0.105129
-0.105358
-0.104881
-0.103631
-0.101673
-0.0990385
-0.0957406
-0.0918055
-0.0872775
-0.0822154
-0.0766909
-0.0707888
-0.0646059
-0.0582486
-0.0518299
-0.0454657
-0.0903397
-0.092895
-0.0935582
-0.0942735
-0.0947844
-0.0946723
-0.0938652
-0.092419
-0.0903535
-0.0876785
-0.0844135
-0.0805935
-0.0762668
-0.0714938
-0.0663465
-0.0609082
-0.0552716
-0.0495363
-0.0438054
-0.0799624
-0.0824863
-0.0833521
-0.0842579
-0.0849902
-0.0851778
-0.0847496
-0.083738
-0.0821688
-0.0800443
-0.0773771
-0.0741938
-0.0705337
-0.0664463
-0.0619925
-0.057243
-0.052278
-0.0471844
-0.0420536
-0.0705177
-0.0729794
-0.0739963
-0.0750444
-0.0759464
-0.0763748
-0.0762578
-0.0756221
-0.0744841
-0.072843
-0.0707055
-0.0680914
-0.0650315
-0.0615662
-0.0577457
-0.0536299
-0.0492872
-0.044793
-0.0402274
-0.0619352
-0.0643141
-0.0654404
-0.0665915
-0.0676205
-0.0682403
-0.0683813
-0.0680626
-0.0672957
-0.0660751
-0.0644035
-0.0622947
-0.0597721
-0.0568677
-0.0536226
-0.0500865
-0.0463174
-0.0423799
-0.0383439
-0.0541479
-0.056431
-0.0576334
-0.0588557
-0.0599769
-0.0607465
-0.0610988
-0.0610468
-0.0605943
-0.0597368
-0.0584723
-0.0568092
-0.0547646
-0.0523631
-0.0496376
-0.046629
-0.0433857
-0.0399626
-0.0364199
-0.0470931
-0.0492731
-0.0505252
-0.0517933
-0.0529781
-0.0538625
-0.0543849
-0.0545524
-0.0543666
-0.0538209
-0.0529101
-0.0516378
-0.0500157
-0.0480624
-0.0458036
-0.0432723
-0.0405083
-0.0375579
-0.0344723
-0.0407128
-0.0427863
-0.0440675
-0.0453614
-0.0465868
-0.0475565
-0.048214
-0.048562
-0.0485998
-0.0483198
-0.0477134
-0.0467811
-0.0455302
-0.0439741
-0.042132
-0.0400301
-0.0377007
-0.0351822
-0.0325178
-0.0349535
-0.0369201
-0.0382145
-0.0395185
-0.0407661
-0.0417972
-0.0425604
-0.0430553
-0.0432797
-0.0432228
-0.0428765
-0.0422382
-0.0413115
-0.040105
-0.0386328
-0.0369151
-0.0349775
-0.0328513
-0.0305728
-0.0297661
-0.0316278
-0.0329231
-0.0342251
-0.0354806
-0.0365535
-0.0373975
-0.0380101
-0.0383868
-0.038517
-0.0383921
-0.0380068
-0.0373613
-0.0364608
-0.035315
-0.0339388
-0.0323523
-0.0305806
-0.0286535
-0.025106
-0.0268662
-0.0281532
-0.0294442
-0.0306964
-0.0317953
-0.0326995
-0.0334047
-0.0339056
-0.0341915
-0.0342532
-0.0340835
-0.0336803
-0.0330458
-0.0321862
-0.0311119
-0.0298382
-0.0283847
-0.0267755
-0.0209323
-0.0225958
-0.0238678
-0.0251411
-0.0263818
-0.0274941
-0.0284417
-0.029219
-0.0298201
-0.0302345
-0.0304516
-0.0304642
-0.0302682
-0.0298636
-0.0292533
-0.0284441
-0.0274472
-0.0262775
-0.0249542
-0.0172084
-0.0187808
-0.020033
-0.0212842
-0.0225073
-0.0236233
-0.0246007
-0.0254329
-0.0261134
-0.0266317
-0.0269774
-0.0271435
-0.0271242
-0.0269168
-0.0265222
-0.0259443
-0.0251906
-0.0242724
-0.0232043
-0.0139015
-0.0153891
-0.0166184
-0.0178446
-0.0190461
-0.0201586
-0.0211547
-0.0220275
-0.0227698
-0.0233716
-0.0238229
-0.0241175
-0.0242472
-0.0242079
-0.0239985
-0.0236208
-0.0230794
-0.0223821
-0.0215401
-0.0109825
-0.012392
-0.0135968
-0.0147965
-0.0159742
-0.0170779
-0.0180844
-0.0189864
-0.0197764
-0.0204443
-0.0209787
-0.0213822
-0.0216368
-0.0217392
-0.0216875
-0.0214816
-0.0211237
-0.0206191
-0.0199755
-0.00842638
-0.0097649
-0.0109447
-0.0121176
-0.0132705
-0.0143621
-0.0153728
-0.0162954
-0.0171228
-0.0178465
-0.0184587
-0.0189396
-0.0192936
-0.0195133
-0.0195942
-0.0195343
-0.0193337
-0.0189952
-0.0185242
-0.00621175
-0.00748671
-0.00864186
-0.00978884
-0.010917
-0.0119943
-0.0130044
-0.01394
-0.0147938
-0.015557
-0.0162203
-0.0167745
-0.0172137
-0.0175318
-0.0177238
-0.0177867
-0.0177193
-0.0175226
-0.0171997
-0.00432156
-0.00554063
-0.0066725
-0.00779506
-0.00889966
-0.00996195
-0.0109682
-0.0119113
-0.0127838
-0.0135774
-0.0142834
-0.0148935
-0.015401
-0.0157992
-0.0160825
-0.0162473
-0.016291
-0.0162134
-0.0160157
-0.0027431
-0.00391428
-0.00502497
-0.00612551
-0.00720867
-0.00825631
-0.00925708
-0.0102038
-0.0110894
-0.0119058
-0.0126448
-0.0132983
-0.0138597
-0.0143216
-0.0146785
-0.0149258
-0.0150603
-0.0150804
-0.0149861
-0.00146895
-0.00260054
-0.00369288
-0.00477448
-0.00583909
-0.00687345
-0.00786815
-0.00881619
-0.00971051
-0.0105434
-0.0113072
-0.0119942
-0.0125962
-0.0131073
-0.0135214
-0.0138336
-0.0140398
-0.0141375
-0.0141259
-0.000496361
-0.00159732
-0.0026749
-0.0037414
-0.00479116
-0.00581455
-0.00680364
-0.00775156
-0.00865133
-0.00949552
-0.0102765
-0.0109869
-0.0116191
-0.0121668
-0.0126237
-0.0129842
-0.0132442
-0.0134004
-0.0134512
0.000167649
-0.000911646
-0.00197851
-0.00303417
-0.00407325
-0.00508856
-0.00607319
-0.00702038
-0.00792319
-0.00877435
-0.00956647
-0.0102922
-0.0109444
-0.0115163
-0.0120017
-0.0123948
-0.012691
-0.0128868
-0.01298
0.000514802
-0.000554139
-0.00161575
-0.00266605
-0.00369982
-0.00471108
-0.00569342
-0.0066402
-0.00754449
-0.00839915
-0.0091969
-0.00993045
-0.0105928
-0.011177
-0.011677
-0.0120867
-0.0124016
-0.0126177
-0.0127327
)
;

boundaryField
{
    inlet
    {
        type            zeroGradient;
    }
    outlet
    {
        type            fixedValue;
        value           nonuniform 0();
    }
    cylinder
    {
        type            zeroGradient;
    }
    top
    {
        type            symmetryPlane;
    }
    bottom
    {
        type            symmetryPlane;
    }
    defaultFaces
    {
        type            empty;
    }
    procBoundary34to28
    {
        type            processor;
        value           nonuniform List<scalar> 
20
(
-0.116702
-0.116853
-0.116729
-0.115812
-0.114041
-0.111496
-0.108216
-0.104218
-0.0995373
-0.0942277
-0.0883591
-0.0820162
-0.0752974
-0.0683142
-0.0611878
-0.0540458
-0.0470169
-0.101722
-0.104263
-0.104263
)
;
    }
    procBoundary34to29
    {
        type            processor;
        value           nonuniform List<scalar> 3(-0.0392699 -0.038182 -0.0369779);
    }
    procBoundary34to33
    {
        type            processor;
        value           nonuniform List<scalar> 
22
(
-0.0838624
-0.0741153
-0.0652587
-0.0572177
-0.049925
-0.04332
-0.0373473
-0.0319561
-0.0271003
-0.0227375
-0.0188297
-0.0153422
-0.0122443
-0.00950884
-0.00711232
-0.00503496
-0.00326088
-0.00177833
-0.000580721
0.000334663
0.000959883
0.00128991
)
;
    }
    procBoundary34to35
    {
        type            processor;
        value           nonuniform List<scalar> 
20
(
-0.0356727
-0.0342818
-0.0328211
-0.0313067
-0.0297549
-0.0281821
-0.0266045
-0.0250385
-0.0234999
-0.0220045
-0.0205674
-0.0192039
-0.0179286
-0.0167563
-0.0157015
-0.0147794
-0.0140055
-0.0133962
-0.0129696
-0.0127454
)
;
    }
}


// ************************************************************************* //
