/*--------------------------------*- C++ -*----------------------------------*\
  =========                 |
  \\      /  F ield         | OpenFOAM: The Open Source CFD Toolbox
   \\    /   O peration     | Website:  https://openfoam.org
    \\  /    A nd           | Version:  7
     \\/     M anipulation  |
\*---------------------------------------------------------------------------*/
FoamFile
{
    version     2.0;
    format      ascii;
    class       volVectorField;
    location    "5.4";
    object      U;
}
// * * * * * * * * * * * * * * * * * * * * * * * * * * * * * * * * * * * * * //

dimensions      [0 1 -1 0 0 0 0];

internalField   nonuniform List<vector> 
350
(
(0.256678 0.000499994 3.61291e-17)
(0.257156 0.000493706 3.63006e-17)
(0.257628 0.000487564 3.548e-17)
(0.258094 0.000481598 3.62884e-17)
(0.258554 0.000475867 3.59343e-17)
(0.259009 0.000470449 3.69771e-17)
(0.259459 0.000465537 3.79557e-17)
(0.259905 0.000461322 3.83121e-17)
(0.260347 0.000458594 3.92587e-17)
(0.260784 0.000457688 3.96438e-17)
(0.261227 0.000462499 3.99862e-17)
(0.261657 0.000471882 3.99771e-17)
(0.262139 0.000506133 3.93521e-17)
(0.262499 0.000542024 3.99633e-17)
(0.263277 0.000661588 4.03584e-17)
(0.180321 0.000698339 -1.3252e-17)
(0.181148 0.000687569 -8.01683e-18)
(0.181961 0.000677021 -5.12547e-18)
(0.182763 0.000666689 -6.49414e-18)
(0.183552 0.000656566 -9.54539e-18)
(0.18433 0.000646648 -6.65659e-18)
(0.185096 0.000636928 -8.86923e-18)
(0.18585 0.000627402 -5.69559e-18)
(0.186594 0.000618065 -7.75351e-18)
(0.187326 0.000608912 -2.9402e-18)
(0.188048 0.000599938 5.49028e-19)
(0.188759 0.000591138 2.75934e-18)
(0.18946 0.000582508 3.14429e-18)
(0.190151 0.000574044 -9.66741e-20)
(0.190832 0.000565742 2.26361e-18)
(0.191503 0.000557597 -4.09193e-19)
(0.192165 0.000549606 3.39908e-18)
(0.192817 0.000541764 1.5608e-18)
(0.19346 0.000534068 6.9966e-18)
(0.194094 0.000526514 9.74457e-18)
(0.194719 0.000519098 1.07638e-17)
(0.195335 0.000511818 8.05706e-18)
(0.195943 0.00050467 1.16968e-17)
(0.196543 0.00049765 1.37474e-17)
(0.197134 0.000490756 1.45973e-17)
(0.197717 0.000483985 1.1711e-17)
(0.198292 0.000477332 1.51203e-17)
(0.198859 0.000470797 1.68136e-17)
(0.199419 0.000464375 1.66971e-17)
(0.199971 0.000458063 1.39637e-17)
(0.200516 0.000451861 1.5663e-17)
(0.201053 0.000445763 1.41427e-17)
(0.201583 0.000439769 1.56138e-17)
(0.202106 0.000433876 1.49112e-17)
(0.202622 0.000428081 1.81717e-17)
(0.203132 0.000422381 2.08865e-17)
(0.203634 0.000416775 2.17951e-17)
(0.20413 0.00041126 2.19276e-17)
(0.20462 0.000405834 1.96199e-17)
(0.205103 0.000400495 2.12712e-17)
(0.205579 0.000395241 2.00367e-17)
(0.20605 0.000390069 2.20475e-17)
(0.206514 0.000384978 2.16608e-17)
(0.206973 0.000379965 2.40729e-17)
(0.207425 0.000375029 2.57757e-17)
(0.207872 0.000370168 2.62756e-17)
(0.208313 0.000365381 2.51136e-17)
(0.208748 0.000360666 2.70831e-17)
(0.209178 0.000356022 2.81714e-17)
(0.209602 0.000351449 2.82823e-17)
(0.210021 0.000346949 2.7192e-17)
(0.210434 0.000342522 2.84037e-17)
(0.210843 0.000338174 2.90547e-17)
(0.211246 0.000333912 2.94154e-17)
(0.211644 0.00032975 2.85672e-17)
(0.212037 0.00032571 2.9503e-17)
(0.212425 0.000321832 2.90513e-17)
(0.212809 0.00031817 3.01477e-17)
(0.213189 0.000314867 3.068e-17)
(0.213565 0.000312044 3.11656e-17)
(0.213938 0.000310322 3.18758e-17)
(0.214307 0.000309854 3.20839e-17)
(0.214682 0.000313942 3.23121e-17)
(0.215047 0.000321069 3.2226e-17)
(0.215463 0.000350191 3.15295e-17)
(0.215774 0.000377722 3.2208e-17)
(0.216487 0.000491874 3.25634e-17)
(0.140151 0.000425907 -8.93609e-19)
(0.140815 0.000419312 -5.11981e-18)
(0.14147 0.000412854 -3.95218e-18)
(0.142114 0.000406529 -4.2805e-18)
(0.142748 0.000400332 4.62952e-19)
(0.143373 0.000394261 -2.96291e-18)
(0.143989 0.000388313 9.7182e-19)
(0.144595 0.000382483 -2.31795e-18)
(0.145192 0.000376769 1.35325e-18)
(0.145781 0.000371169 -1.34923e-18)
(0.14636 0.000365678 4.53244e-19)
(0.146932 0.000360295 2.35789e-18)
(0.147495 0.000355016 2.79105e-18)
(0.148049 0.000349839 6.91518e-18)
(0.148596 0.000344761 3.48744e-18)
(0.149135 0.00033978 7.10694e-18)
(0.149666 0.000334893 4.14235e-18)
(0.15019 0.000330098 7.65939e-18)
(0.150706 0.000325393 6.27175e-18)
(0.151215 0.000320775 7.34214e-18)
(0.151717 0.000316242 8.54389e-18)
(0.152212 0.000311792 1.22378e-17)
(0.152699 0.000307423 1.00446e-17)
(0.15318 0.000303133 1.12317e-17)
(0.153655 0.00029892 1.21918e-17)
(0.154123 0.000294782 1.4942e-17)
(0.154584 0.000290717 1.21116e-17)
(0.155039 0.000286724 1.28719e-17)
(0.155488 0.0002828 1.34725e-17)
(0.155931 0.000278945 1.59795e-17)
(0.156368 0.000275156 1.27911e-17)
(0.156799 0.000271432 1.57802e-17)
(0.157224 0.000267771 1.32066e-17)
(0.157643 0.000264172 1.63079e-17)
(0.158057 0.000260633 1.45261e-17)
(0.158466 0.000257152 1.60945e-17)
(0.158869 0.00025373 1.70483e-17)
(0.159266 0.000250363 1.70196e-17)
(0.159659 0.00024705 1.95276e-17)
(0.160046 0.000243791 1.75748e-17)
(0.160428 0.000240583 1.9398e-17)
(0.160805 0.000237427 1.74346e-17)
(0.161177 0.000234319 2.02497e-17)
(0.161545 0.00023126 1.88462e-17)
(0.161907 0.000228248 1.9803e-17)
(0.162265 0.000225281 2.03651e-17)
(0.162619 0.00022236 2.24578e-17)
(0.162967 0.000219483 2.12369e-17)
(0.163312 0.00021665 2.17101e-17)
(0.163652 0.00021386 2.20963e-17)
(0.163987 0.000211115 2.33132e-17)
(0.164318 0.000208415 2.21513e-17)
(0.164645 0.000205763 2.21659e-17)
(0.164968 0.000203164 2.275e-17)
(0.165287 0.000200627 2.3737e-17)
(0.165602 0.000198165 2.30462e-17)
(0.165913 0.000195803 2.4031e-17)
(0.166221 0.000193574 2.34626e-17)
(0.166525 0.000191573 2.38822e-17)
(0.166826 0.000189859 2.55062e-17)
(0.167125 0.000188885 2.46759e-17)
(0.167421 0.000188626 2.47573e-17)
(0.167722 0.000191696 2.47991e-17)
(0.168017 0.000196177 2.47684e-17)
(0.168357 0.000218777 2.41924e-17)
(0.168612 0.000235443 2.47135e-17)
(0.169245 0.000337869 2.50149e-17)
(0.100043 0.000215927 1.9585e-18)
(0.100533 0.000212571 -2.39075e-18)
(0.101015 0.000209284 -2.49123e-18)
(0.10149 0.000206064 -2.16759e-18)
(0.101958 0.000202911 2.32804e-18)
(0.102419 0.000199822 -7.33496e-19)
(0.102873 0.000196795 3.60152e-18)
(0.10332 0.000193829 -2.28497e-19)
(0.10376 0.000190922 3.11526e-18)
(0.104194 0.000188074 -5.81194e-19)
(0.104621 0.000185281 5.78838e-19)
(0.105042 0.000182543 1.89529e-18)
(0.105457 0.000179859 2.28851e-18)
(0.105865 0.000177226 6.89842e-18)
(0.106268 0.000174645 3.59659e-18)
(0.106665 0.000172112 7.27205e-18)
(0.107057 0.000169628 4.03324e-18)
(0.107442 0.000167191 7.7549e-18)
(0.107822 0.000164799 4.62467e-18)
(0.108197 0.000162452 5.15827e-18)
(0.108567 0.000160148 5.95931e-18)
(0.108931 0.000157887 1.04031e-17)
(0.10929 0.000155667 7.75711e-18)
(0.109644 0.000153487 8.44136e-18)
(0.109994 0.000151347 8.79586e-18)
(0.110338 0.000149245 1.2429e-17)
(0.110678 0.00014718 9.17375e-18)
(0.111013 0.000145152 9.3397e-18)
(0.111343 0.00014316 1.00634e-17)
(0.111669 0.000141202 1.25299e-17)
(0.11199 0.000139278 1.01537e-17)
(0.112308 0.000137387 1.26443e-17)
(0.11262 0.000135528 9.99049e-18)
(0.112929 0.000133701 1.29672e-17)
(0.113234 0.000131904 1.05599e-17)
(0.113534 0.000130138 1.13381e-17)
(0.11383 0.0001284 1.20203e-17)
(0.114123 0.000126691 1.25814e-17)
(0.114412 0.00012501 1.49865e-17)
(0.114696 0.000123356 1.31553e-17)
(0.114977 0.000121729 1.4735e-17)
(0.115255 0.000120127 1.3408e-17)
(0.115529 0.00011855 1.544e-17)
(0.115799 0.000116998 1.36772e-17)
(0.116065 0.00011547 1.40454e-17)
(0.116329 0.000113965 1.45016e-17)
(0.116588 0.000112484 1.67996e-17)
(0.116845 0.000111024 1.56202e-17)
(0.117098 0.000109587 1.53601e-17)
(0.117348 0.000108173 1.56762e-17)
(0.117594 0.00010678 1.71544e-17)
(0.117838 0.000105411 1.57993e-17)
(0.118078 0.000104067 1.57708e-17)
(0.118316 0.000102749 1.62768e-17)
(0.11855 0.000101463 1.73736e-17)
(0.118781 0.000100215 1.65602e-17)
(0.11901 9.90192e-05 1.75022e-17)
(0.119236 9.78885e-05 1.66492e-17)
(0.11946 9.68798e-05 1.70726e-17)
(0.119681 9.60043e-05 1.91374e-17)
(0.119901 9.55534e-05 1.76899e-17)
(0.120119 9.53728e-05 1.75658e-17)
(0.120341 9.73148e-05 1.75412e-17)
(0.120558 9.92384e-05 1.75028e-17)
(0.120814 0.00011441 1.69238e-17)
(0.121003 0.000119446 1.74244e-17)
(0.121533 0.000201832 1.76608e-17)
(0.0599822 7.44128e-05 5.58667e-18)
(0.0602857 7.32503e-05 -1.37218e-18)
(0.0605844 7.21121e-05 -1.29966e-18)
(0.0608786 7.09974e-05 -6.85646e-19)
(0.0611682 6.99057e-05 5.07396e-18)
(0.0614534 6.88364e-05 -4.73141e-19)
(0.0617343 6.77888e-05 6.27626e-18)
(0.0620109 6.67624e-05 4.75921e-19)
(0.0622834 6.57566e-05 6.38088e-18)
(0.0625518 6.47709e-05 -9.38346e-19)
(0.0628162 6.38047e-05 6.82245e-20)
(0.0630767 6.28577e-05 1.17984e-18)
(0.0633334 6.19291e-05 1.9799e-18)
(0.0635863 6.10187e-05 8.09182e-18)
(0.0638355 6.01259e-05 3.04424e-18)
(0.0640811 5.92502e-05 7.96051e-18)
(0.0643231 5.83913e-05 3.46617e-18)
(0.0645617 5.75487e-05 7.59049e-18)
(0.0647968 5.67219e-05 2.73748e-18)
(0.0650286 5.59107e-05 2.99453e-18)
(0.0652571 5.51145e-05 3.96187e-18)
(0.0654823 5.43331e-05 9.79263e-18)
(0.0657044 5.3566e-05 4.95741e-18)
(0.0659233 5.28129e-05 5.11647e-18)
(0.0661393 5.20735e-05 5.69247e-18)
(0.0663522 5.13473e-05 1.07624e-17)
(0.0665621 5.06342e-05 5.75844e-18)
(0.0667692 4.99337e-05 5.38059e-18)
(0.0669734 4.92455e-05 5.77102e-18)
(0.0671748 4.85695e-05 1.04967e-17)
(0.0673734 4.79051e-05 6.79306e-18)
(0.0675694 4.72523e-05 1.03831e-17)
(0.0677627 4.66106e-05 6.43986e-18)
(0.0679534 4.59799e-05 1.01145e-17)
(0.0681415 4.53598e-05 6.66323e-18)
(0.0683271 4.475e-05 6.66539e-18)
(0.0685103 4.41505e-05 7.40966e-18)
(0.0686909 4.35608e-05 7.3086e-18)
(0.0688692 4.29807e-05 1.09176e-17)
(0.0690452 4.24101e-05 8.5426e-18)
(0.0692188 4.18486e-05 1.12069e-17)
(0.0693901 4.1296e-05 8.14085e-18)
(0.0695591 4.07522e-05 1.13166e-17)
(0.069726 4.02168e-05 8.40143e-18)
(0.0698906 3.96898e-05 8.49708e-18)
(0.0700532 3.91709e-05 8.80885e-18)
(0.0702136 3.86599e-05 1.14814e-17)
(0.0703719 3.81567e-05 9.35454e-18)
(0.0705282 3.76613e-05 9.08892e-18)
(0.0706824 3.71735e-05 9.4016e-18)
(0.0708347 3.66936e-05 1.14048e-17)
(0.070985 3.62216e-05 9.58877e-18)
(0.0711334 3.57581e-05 9.45755e-18)
(0.0712799 3.53039e-05 9.78182e-18)
(0.0714245 3.48608e-05 1.12655e-17)
(0.0715674 3.44303e-05 1.0094e-17)
(0.0717085 3.40184e-05 1.12605e-17)
(0.0718479 3.36271e-05 1.00663e-17)
(0.0719859 3.32819e-05 1.0284e-17)
(0.0721224 3.29694e-05 1.1873e-17)
(0.0722581 3.28382e-05 1.05894e-17)
(0.0723927 3.27033e-05 1.04624e-17)
(0.07253 3.36129e-05 1.04055e-17)
(0.0726639 3.37461e-05 1.03435e-17)
(0.0728263 4.14766e-05 1.00951e-17)
(0.0729398 3.82566e-05 1.03415e-17)
(0.0733273 9.10648e-05 1.04829e-17)
(0.0199554 1.09226e-05 2.21738e-18)
(0.0200603 1.07504e-05 -5.35019e-19)
(0.0201636 1.05819e-05 1.99445e-19)
(0.0202653 1.04168e-05 -2.62213e-19)
(0.0203654 1.02552e-05 1.65315e-18)
(0.020464 1.0097e-05 -1.18551e-19)
(0.0205611 9.94197e-06 1.71053e-18)
(0.0206567 9.79013e-06 2.43794e-19)
(0.0207508 9.64137e-06 1.74829e-18)
(0.0208435 9.49561e-06 -2.49929e-19)
(0.0209349 9.35278e-06 4.52861e-19)
(0.0210249 9.21278e-06 5.56836e-19)
(0.0211135 9.07556e-06 7.34533e-19)
(0.0212009 8.94104e-06 2.22441e-18)
(0.0212869 8.80914e-06 9.4436e-19)
(0.0213718 8.67981e-06 2.59395e-18)
(0.0214553 8.55297e-06 1.33696e-18)
(0.0215377 8.42856e-06 2.28689e-18)
(0.0216189 8.30652e-06 1.09938e-18)
(0.0216989 8.18679e-06 8.25749e-19)
(0.0217777 8.06931e-06 1.60591e-18)
(0.0218555 7.95402e-06 2.84602e-18)
(0.0219321 7.84086e-06 1.71648e-18)
(0.0220077 7.72979e-06 1.67114e-18)
(0.0220822 7.62076e-06 2.01712e-18)
(0.0221557 7.5137e-06 3.58907e-18)
(0.0222281 7.40857e-06 1.9144e-18)
(0.0222995 7.30533e-06 1.8293e-18)
(0.02237 7.20393e-06 1.78073e-18)
(0.0224395 7.10432e-06 3.44988e-18)
(0.022508 7.00646e-06 2.39608e-18)
(0.0225756 6.91031e-06 3.40101e-18)
(0.0226422 6.81582e-06 2.23056e-18)
(0.022708 6.72295e-06 3.47831e-18)
(0.0227729 6.63166e-06 1.99599e-18)
(0.0228369 6.54192e-06 2.19677e-18)
(0.0229 6.45368e-06 2.34445e-18)
(0.0229623 6.36691e-06 2.61681e-18)
(0.0230238 6.28158e-06 3.5383e-18)
(0.0230844 6.19763e-06 2.91527e-18)
(0.0231443 6.11505e-06 3.62507e-18)
(0.0232033 6.03379e-06 2.74011e-18)
(0.0232616 5.95383e-06 3.71673e-18)
(0.0233191 5.87513e-06 2.72763e-18)
(0.0233758 5.79766e-06 2.89667e-18)
(0.0234318 5.72139e-06 3.01065e-18)
(0.0234871 5.6463e-06 3.73934e-18)
(0.0235417 5.57236e-06 3.00237e-18)
(0.0235955 5.49957e-06 2.98769e-18)
(0.0236486 5.42792e-06 3.10141e-18)
(0.0237011 5.35741e-06 3.68067e-18)
(0.0237529 5.28809e-06 3.18543e-18)
(0.023804 5.22001e-06 3.06985e-18)
(0.0238544 5.15328e-06 3.36995e-18)
(0.0239043 5.08819e-06 3.73518e-18)
(0.0239535 5.02484e-06 3.39103e-18)
(0.0240021 4.96439e-06 3.66193e-18)
(0.0240501 4.90612e-06 3.34997e-18)
(0.0240976 4.85619e-06 3.41016e-18)
(0.0241446 4.80526e-06 3.94926e-18)
(0.0241913 4.79462e-06 3.52692e-18)
(0.0242376 4.74066e-06 3.4414e-18)
(0.024285 4.96238e-06 3.4498e-18)
(0.0243306 4.72786e-06 3.40614e-18)
(0.0243887 6.79871e-06 3.3258e-18)
(0.0244227 3.92122e-06 3.40886e-18)
(0.0245952 2.16554e-05 3.4501e-18)
)
;

boundaryField
{
    inlet
    {
        type            uniformFixedValue;
        uniformValue    constant (1 0 0);
        value           nonuniform 0();
    }
    outlet
    {
        type            pressureInletOutletVelocity;
        value           nonuniform List<vector> 6((0.263277 0.000661588 4.03584e-17) (0.216487 0.000491874 3.25634e-17) (0.169245 0.000337869 2.50149e-17) (0.121533 0.000201832 1.76608e-17) (0.0733273 9.10648e-05 1.04829e-17) (0.0245952 2.16554e-05 3.4501e-18));
    }
    wall
    {
        type            fixedValue;
        value           uniform (0 0 0);
    }
    wedge1
    {
        type            wedge;
    }
    wedge2
    {
        type            wedge;
    }
    axis
    {
        type            empty;
    }
    procBoundary47to41
    {
        type            processor;
        value           nonuniform List<vector> 
68
(
(0.302162 0.000689931 4.37414e-17)
(0.302709 0.000681272 4.36193e-17)
(0.303249 0.00067281 4.25127e-17)
(0.303782 0.000664587 4.33796e-17)
(0.30431 0.000656678 4.27763e-17)
(0.30483 0.000649188 4.43293e-17)
(0.305346 0.000642363 4.53509e-17)
(0.305855 0.000636462 4.56536e-17)
(0.306361 0.000632432 4.68142e-17)
(0.306861 0.000630775 4.7447e-17)
(0.307365 0.000635858 4.78827e-17)
(0.307853 0.000646789 4.79751e-17)
(0.308396 0.000684479 4.7237e-17)
(0.308798 0.000725792 4.79903e-17)
(0.309632 0.000845834 4.84148e-17)
(0.22057 0.00103005 -1.60588e-17)
(0.221546 0.00101423 -1.00318e-17)
(0.222507 0.000998734 -5.53032e-18)
(0.223454 0.000983552 -8.15981e-18)
(0.224386 0.000968677 -1.20023e-17)
(0.225305 0.0009541 -8.50459e-18)
(0.226209 0.000939815 -1.18547e-17)
(0.227101 0.000925813 -7.66457e-18)
(0.227979 0.000912088 -9.61089e-18)
(0.228845 0.000898631 -3.51914e-18)
(0.229698 0.000885437 1.41895e-18)
(0.230539 0.000872498 3.60022e-18)
(0.231367 0.000859808 3.33598e-18)
(0.232184 0.00084736 -1.15646e-19)
(0.232989 0.000835149 1.74486e-18)
(0.233782 0.000823169 -1.20346e-19)
(0.234565 0.000811413 3.75587e-18)
(0.235336 0.000799876 2.25679e-18)
(0.236097 0.000788553 8.00288e-18)
(0.236846 0.000777438 1.26156e-17)
(0.237586 0.000766526 1.35034e-17)
(0.238315 0.000755813 1.00934e-17)
(0.239034 0.000745293 1.36006e-17)
(0.239743 0.000734961 1.73978e-17)
(0.240443 0.000724813 1.79782e-17)
(0.241133 0.000714844 1.46783e-17)
(0.241813 0.000705051 1.79921e-17)
(0.242485 0.000695428 2.12201e-17)
(0.243147 0.000685972 2.04656e-17)
(0.243801 0.000676678 1.78532e-17)
(0.244445 0.000667544 1.88007e-17)
(0.245081 0.000658564 1.72246e-17)
(0.245709 0.000649735 1.92987e-17)
(0.246328 0.000641055 1.85748e-17)
(0.246939 0.000632518 2.23885e-17)
(0.247543 0.000624121 2.60437e-17)
(0.248138 0.000615862 2.75926e-17)
(0.248725 0.000607736 2.68349e-17)
(0.249305 0.000599741 2.44091e-17)
(0.249877 0.000591874 2.58688e-17)
(0.250442 0.000584131 2.5127e-17)
(0.250999 0.000576508 2.70047e-17)
(0.251549 0.000569005 2.67725e-17)
(0.252092 0.000561616 2.93816e-17)
(0.252628 0.00055434 3.21084e-17)
(0.253158 0.000547174 3.22173e-17)
(0.25368 0.000540117 3.11849e-17)
(0.254196 0.000533165 3.32487e-17)
(0.254705 0.000526318 3.47169e-17)
(0.255208 0.000519575 3.48704e-17)
(0.255704 0.000512937 3.38646e-17)
(0.256194 0.000506408 3.52372e-17)
(0.256194 0.000506408 3.52372e-17)
)
;
    }
    procBoundary47to46
    {
        type            processor;
        value           nonuniform List<vector> 5((0.179482 0.000709335 -8.57238e-18) (0.139476 0.00043264 -5.56926e-18) (0.0995453 0.000219355 -3.10019e-18) (0.059674 7.56001e-05 -1.50695e-18) (0.0198488 1.10985e-05 -6.4507e-19));
    }
}


// ************************************************************************* //
