/*--------------------------------*- C++ -*----------------------------------*\
  =========                 |
  \\      /  F ield         | OpenFOAM: The Open Source CFD Toolbox
   \\    /   O peration     | Website:  https://openfoam.org
    \\  /    A nd           | Version:  7
     \\/     M anipulation  |
\*---------------------------------------------------------------------------*/
FoamFile
{
    version     2.0;
    format      ascii;
    class       volVectorField;
    location    "3";
    object      U;
}
// * * * * * * * * * * * * * * * * * * * * * * * * * * * * * * * * * * * * * //

dimensions      [0 1 -1 0 0 0 0];

internalField   nonuniform List<vector> 
344
(
(0.0960097 0.244061 -4.061e-15)
(-0.0773569 0.155938 -3.73386e-15)
(-0.315305 -0.0620132 -3.74226e-15)
(-0.613523 -0.421295 -4.36388e-15)
(-0.910275 -0.873011 -4.52297e-15)
(-1.18391 -1.3096 -5.21661e-15)
(-1.3399 -1.60134 -6.529e-15)
(-1.29871 -1.69554 -5.04951e-15)
(-1.28443 -1.69895 -5.27458e-15)
(-1.36596 -1.64689 -6.95981e-15)
(-1.42605 -1.48529 -6.5821e-15)
(-1.5055 -1.23053 -8.16428e-15)
(-1.5541 -0.930888 -8.44682e-15)
(-1.6224 -0.615989 -1.04391e-14)
(-1.62439 -0.289387 -7.99722e-15)
(-1.6194 0.00105617 -9.90456e-15)
(-1.55669 0.241522 -9.53337e-15)
(-1.42026 0.397018 -9.838e-15)
(-1.38415 0.492298 -9.41234e-15)
(-1.24758 0.563371 -6.90281e-15)
(-1.24955 0.628266 -8.05784e-15)
(-1.14956 0.737202 -7.60165e-15)
(-1.12781 0.832525 -6.50672e-15)
(-0.995002 0.927132 -3.99758e-15)
(-0.871064 0.956639 -5.023e-15)
(-0.655911 0.960548 -2.18694e-15)
(-0.276317 0.748556 -3.7758e-15)
(-0.0118878 0.644482 -7.69452e-15)
(0.19644 0.566747 -5.99858e-15)
(0.300167 0.496566 -4.96938e-15)
(0.587001 0.208744 -4.16948e-15)
(0.483658 0.465562 -1.69519e-15)
(0.410885 0.25742 -1.19512e-15)
(0.449698 -0.0546174 -5.22549e-16)
(0.333873 -0.443646 -3.04388e-15)
(0.296221 -0.272553 -4.99267e-15)
(0.146728 -0.111249 -4.62179e-15)
(0.0496117 -0.036925 -2.26478e-15)
(-0.152564 -0.220915 -4.8573e-15)
(-0.265925 -0.376097 -2.58741e-15)
(-0.501232 -0.486975 -9.95787e-16)
(-0.582232 -0.60398 -1.57118e-15)
(-0.778999 -0.702494 -3.96981e-15)
(-0.965914 -0.723196 -3.39867e-15)
(-1.1548 -0.623139 -4.14963e-15)
(-1.4004 -0.539661 -1.53678e-15)
(-1.49789 -0.397015 -5.85829e-15)
(-1.62008 -0.188771 -2.83235e-15)
(-1.59014 0.0137488 -3.8396e-15)
(-1.63965 0.252281 -4.02241e-15)
(-1.533 0.365028 -8.47311e-16)
(-1.44152 0.55729 -1.77833e-15)
(-1.27402 0.638455 -5.62403e-16)
(-1.0298 0.729386 5.75545e-16)
(-0.847107 0.92761 -3.5465e-15)
(-0.821434 1.12271 -2.40605e-15)
(-0.815933 1.12591 -1.56577e-15)
(-0.724463 1.00007 -2.85587e-15)
(-0.574902 0.845586 -3.00796e-15)
(-0.370513 0.454467 -2.27366e-15)
(-0.022891 0.0757417 -3.24933e-15)
(0.310914 -0.00753436 -3.85479e-15)
(0.499735 0.0751285 -3.24175e-15)
(0.495701 0.173466 -2.91973e-15)
(0.420404 0.244118 -2.30359e-15)
(0.354162 0.295173 -2.86547e-15)
(0.269765 0.307474 -3.10042e-15)
(0.118948 0.236364 -2.90004e-15)
(-0.0914061 0.0442321 -3.16875e-15)
(-0.352648 -0.293512 -2.53082e-15)
(-0.65087 -0.736306 -3.24385e-15)
(-1.01048 -1.19018 -4.48457e-15)
(-1.30809 -1.53046 -4.88965e-15)
(-1.38632 -1.66268 -5.06796e-15)
(-1.35641 -1.64565 -3.65492e-15)
(-1.46318 -1.57829 -6.44152e-15)
(-1.55281 -1.42486 -6.29107e-15)
(-1.67465 -1.18217 -7.49098e-15)
(-1.72024 -0.892308 -9.01082e-15)
(-1.79406 -0.59184 -8.8482e-15)
(-1.80274 -0.280751 -9.12035e-15)
(-1.79485 -0.0141926 -9.33648e-15)
(-1.72184 0.203155 -9.33813e-15)
(-1.61304 0.35324 -9.3832e-15)
(-1.57411 0.445553 -6.90752e-15)
(-1.42297 0.521591 -7.86382e-15)
(-1.43448 0.598866 -8.49921e-15)
(-1.31108 0.705973 -7.2032e-15)
(-1.28684 0.791346 -5.20012e-15)
(-1.11568 0.875087 -2.39652e-15)
(-0.952609 0.847761 -1.11438e-15)
(-0.590748 0.836365 -2.34982e-15)
(-0.288743 0.629128 -6.24337e-15)
(-0.038533 0.555958 -7.34494e-15)
(0.170867 0.484795 -4.6628e-15)
(0.271392 0.438812 -3.6505e-15)
(0.025843 0.0542894 -3.22275e-15)
(0.566653 0.541459 -2.61097e-15)
(0.316673 0.268785 -1.97424e-15)
(0.53715 -0.0350401 -1.51388e-15)
(0.311101 -0.421795 -3.11566e-15)
(0.284515 -0.243174 -5.00072e-15)
(0.0953222 -0.0851164 -3.69724e-15)
(0.0660014 0.00611248 -2.27745e-15)
(-0.138234 -0.176797 -4.88314e-15)
(-0.224123 -0.309704 -2.99037e-15)
(-0.476821 -0.423683 -6.82081e-16)
(-0.587612 -0.544552 -3.29876e-16)
(-0.790738 -0.621984 -3.37695e-15)
(-0.993141 -0.641543 -3.3525e-15)
(-1.16937 -0.543132 -5.37535e-15)
(-1.37031 -0.467946 -3.68841e-15)
(-1.46909 -0.35395 -5.10994e-15)
(-1.55325 -0.162487 -3.19992e-15)
(-1.58115 0.0154705 -3.95002e-15)
(-1.59278 0.249545 -3.54843e-15)
(-1.50706 0.314478 -1.7065e-15)
(-1.40548 0.516518 -1.78223e-15)
(-1.22 0.554364 -7.64411e-16)
(-0.949011 0.642578 -2.37864e-15)
(-0.820864 0.872458 -4.16183e-15)
(-0.825101 1.08625 -2.95443e-15)
(-0.728358 1.06844 -2.00066e-15)
(-0.494472 0.928409 -2.48707e-15)
(-0.431541 0.784376 -2.22886e-15)
(-0.0940579 0.349377 -2.29344e-15)
(0.284503 -0.0365774 -3.17759e-15)
(0.5597 -0.110784 -3.74068e-15)
(0.724408 0.0384761 -3.79498e-15)
(0.706874 0.188948 -2.702e-15)
(0.593639 0.253942 -1.68343e-15)
(0.521005 0.287808 -2.42146e-15)
(0.463124 0.309723 -3.03155e-15)
(0.351785 0.267943 -3.34748e-15)
(0.209662 0.102256 -2.7911e-15)
(0.000359023 -0.202399 -2.77175e-15)
(-0.282446 -0.612557 -2.61124e-15)
(-0.689725 -1.05428 -3.2459e-15)
(-1.14573 -1.43606 -5.24715e-15)
(-1.39893 -1.63736 -5.68208e-15)
(-1.4115 -1.62734 -4.55211e-15)
(-1.51476 -1.53112 -5.96735e-15)
(-1.65203 -1.36331 -6.97275e-15)
(-1.80898 -1.12467 -5.33976e-15)
(-1.88908 -0.847611 -8.39076e-15)
(-1.95426 -0.557376 -8.58183e-15)
(-1.96916 -0.270618 -1.00202e-14)
(-1.95462 -0.0265623 -1.01062e-14)
(-1.89006 0.171378 -1.006e-14)
(-1.80424 0.319145 -7.91767e-15)
(-1.76289 0.406692 -8.79341e-15)
(-1.62072 0.492344 -8.68315e-15)
(-1.63987 0.578097 -7.64601e-15)
(-1.47388 0.673983 -4.19763e-15)
(-1.43154 0.734039 -2.25181e-15)
(-1.17355 0.791043 -2.35648e-15)
(-0.919067 0.708674 -3.45529e-15)
(-0.545407 0.721949 -5.08938e-15)
(-0.319264 0.522696 -6.40439e-15)
(-0.0571854 0.478773 -5.16239e-15)
(0.122101 0.436345 -3.53054e-15)
(0.18522 0.405669 -3.42564e-15)
(-0.252946 -0.0183576 -1.48325e-15)
(0.600634 0.471845 -1.99294e-15)
(0.115914 0.224077 -1.20998e-15)
(0.61581 -0.0456518 -2.63523e-15)
(0.312436 -0.351682 -2.17438e-15)
(0.303244 -0.190479 -4.9327e-15)
(0.0995818 -0.0437592 -3.23981e-15)
(0.0905416 0.0478641 -1.9302e-15)
(-0.105732 -0.123156 -4.87998e-15)
(-0.163847 -0.245776 -3.92338e-15)
(-0.433075 -0.351857 -1.72941e-15)
(-0.583371 -0.475543 1.00678e-16)
(-0.781356 -0.545041 -2.93908e-15)
(-0.99571 -0.561398 -3.94146e-15)
(-1.17466 -0.474624 -4.07864e-15)
(-1.30977 -0.408254 -4.95861e-15)
(-1.43651 -0.315072 -3.03209e-15)
(-1.49247 -0.134046 -3.86947e-15)
(-1.57399 0.0153468 -1.69636e-15)
(-1.50795 0.239144 -3.24826e-15)
(-1.48943 0.265936 -1.09614e-16)
(-1.33832 0.458174 -1.36673e-15)
(-1.14512 0.460756 -1.63432e-15)
(-0.859747 0.560748 -3.64167e-15)
(-0.752716 0.83497 -4.40721e-15)
(-0.798893 1.07455 -2.4303e-15)
(-0.607832 0.954476 -2.27009e-15)
(-0.275303 0.857017 -2.20513e-15)
(-0.164745 0.717549 -1.11944e-15)
(0.212501 0.228057 -2.27999e-15)
(0.647507 -0.13848 -3.41011e-15)
(0.892114 -0.173205 -3.55625e-15)
(0.977821 0.0183945 -3.4417e-15)
(0.983211 0.207215 -3.30282e-15)
(0.912895 0.29015 -2.82959e-15)
(0.813597 0.330118 -2.5929e-15)
(0.715031 0.358643 -3.13468e-15)
(0.618878 0.321267 -2.4878e-15)
(0.539006 0.170379 -2.00355e-15)
(0.388344 -0.0976031 -2.14794e-15)
(0.173162 -0.456237 -8.89185e-16)
(-0.248638 -0.843135 -1.51269e-15)
(-0.837048 -1.23958 -2.73555e-15)
(-1.31781 -1.51688 -4.26458e-15)
(-1.46003 -1.56279 -3.75543e-15)
(-1.54045 -1.46259 -4.1145e-15)
(-1.72356 -1.28696 -7.21887e-15)
(-1.90772 -1.05842 -5.37591e-15)
(-2.04188 -0.801016 -5.34235e-15)
(-2.11675 -0.526459 -7.15994e-15)
(-2.14247 -0.261027 -7.04548e-15)
(-2.14079 -0.0386699 -8.0964e-15)
(-2.08604 0.146447 -6.49192e-15)
(-2.01884 0.287328 -6.94665e-15)
(-1.95913 0.37116 -6.07501e-15)
(-1.82997 0.460567 -5.90263e-15)
(-1.81479 0.54022 -3.2825e-15)
(-1.58543 0.614526 -1.45466e-15)
(-1.4884 0.641608 -2.17337e-15)
(-1.1407 0.678734 -4.13372e-15)
(-0.923603 0.576486 -5.51872e-15)
(-0.548862 0.616649 -5.69605e-15)
(-0.355018 0.423561 -3.18134e-15)
(-0.13371 0.393394 -3.92972e-15)
(0.075092 0.38007 -3.03703e-15)
(0.1164 0.356743 -3.69716e-15)
(-0.333272 -0.0745604 -1.60452e-15)
(0.551018 0.422973 -2.51878e-15)
(-0.0861399 0.220906 -1.07753e-15)
(0.648372 -0.0573483 -1.46253e-15)
(0.194252 -0.314792 -3.01471e-15)
(0.255555 -0.153727 -4.29244e-15)
(0.0560474 -0.0196468 -2.37271e-15)
(0.104186 0.0817164 -1.44375e-15)
(-0.0830807 -0.0853006 -4.77333e-15)
(-0.105021 -0.183542 -3.976e-15)
(-0.362644 -0.277002 -3.77908e-15)
(-0.544845 -0.403083 -5.36052e-17)
(-0.750496 -0.465737 -2.47047e-15)
(-0.966753 -0.478314 -5.14999e-15)
(-1.15724 -0.41864 -4.41997e-15)
(-1.25668 -0.353456 -4.10856e-15)
(-1.40011 -0.270333 -2.09643e-15)
(-1.44728 -0.104102 -3.90798e-15)
(-1.53585 0.0198265 -2.91675e-15)
(-1.43919 0.220087 -4.2439e-15)
(-1.42295 0.231253 -4.34738e-16)
(-1.27892 0.398001 -2.36901e-15)
(-1.08157 0.381391 -2.25057e-15)
(-0.803095 0.497667 -3.77221e-15)
(-0.708465 0.792555 -2.92839e-15)
(-0.639355 1.03301 -2.38473e-15)
(-0.380466 0.85844 -1.93695e-15)
(-0.102221 0.752647 -1.79436e-15)
(0.129144 0.600235 -1.13905e-15)
(0.534083 0.0853825 -2.61188e-15)
(0.962996 -0.278495 -3.8418e-15)
(1.18784 -0.251762 -3.29043e-15)
(1.25049 0.000734386 -3.56199e-15)
(1.22809 0.22023 -3.68537e-15)
(1.1222 0.311364 -3.08556e-15)
(0.987352 0.343651 -2.91545e-15)
(0.902802 0.358054 -3.30933e-15)
(0.884559 0.314392 -2.53105e-15)
(0.880909 0.180482 -2.37874e-15)
(0.830541 -0.0547807 -1.42324e-15)
(0.727332 -0.351729 -1.40101e-15)
(0.347121 -0.655574 -8.63268e-16)
(-0.343387 -1.02219 -1.80407e-15)
(-1.0545 -1.3661 -4.35098e-15)
(-1.43912 -1.49644 -5.74585e-15)
(-1.54703 -1.39863 -3.83611e-15)
(-1.75405 -1.20189 -5.88431e-15)
(-1.96344 -0.9739 -7.06479e-15)
(-2.16101 -0.732481 -6.08971e-15)
(-2.26572 -0.481162 -5.80414e-15)
(-2.31283 -0.237899 -5.98732e-15)
(-2.32556 -0.0382005 -5.51442e-15)
(-2.27277 0.133428 -5.84624e-15)
(-2.20931 0.258687 -5.43628e-15)
(-2.11905 0.335688 -4.79924e-15)
(-1.97842 0.421608 -4.16188e-15)
(-1.89619 0.481095 -2.87669e-15)
(-1.62282 0.536372 -4.98339e-15)
(-1.48628 0.539349 -5.19446e-15)
(-1.08019 0.578376 -6.05835e-15)
(-0.945092 0.467793 -3.62801e-15)
(-0.563896 0.521545 -6.28698e-15)
(-0.401798 0.346982 -3.68381e-15)
(-0.196044 0.324222 -5.02047e-15)
(-0.0325744 0.337629 -4.60711e-15)
(-0.0260369 0.339625 -5.42993e-15)
(-0.362609 -0.0989352 -1.44471e-15)
(0.433965 0.386494 -2.11154e-15)
(-0.31364 0.148386 -1.69491e-15)
(0.563881 -0.142499 -8.44185e-16)
(0.0697595 -0.246976 -2.72548e-15)
(0.178004 -0.120284 -3.88511e-15)
(-0.00684771 -0.000580749 -7.6358e-16)
(0.0963083 0.0987049 -1.00793e-15)
(-0.0586105 -0.054068 -3.58429e-15)
(-0.0586073 -0.134448 -3.62234e-15)
(-0.273013 -0.202604 -4.99286e-15)
(-0.460386 -0.327389 -1.97942e-15)
(-0.699521 -0.385876 -7.84197e-16)
(-0.902166 -0.401931 -3.71226e-15)
(-1.11849 -0.358856 -3.57191e-15)
(-1.23032 -0.306411 -4.42509e-15)
(-1.34537 -0.228154 -3.26071e-15)
(-1.40092 -0.0851513 -3.17942e-15)
(-1.44931 0.0171425 -1.60992e-15)
(-1.38106 0.186528 -3.45632e-15)
(-1.33114 0.192642 -9.73813e-16)
(-1.2282 0.32759 -2.41029e-15)
(-0.972376 0.289552 -2.63112e-15)
(-0.736113 0.39989 -4.78571e-15)
(-0.515015 0.72094 -2.54541e-15)
(-0.548202 0.975456 -1.73061e-15)
(-0.076556 0.746053 -1.96125e-15)
(0.168464 0.645381 -1.23548e-15)
(0.405808 0.486361 -1.6476e-16)
(0.911935 -0.0493187 -1.85982e-15)
(1.30034 -0.385626 -3.35631e-15)
(1.41909 -0.300205 -3.47136e-15)
(1.42583 0.0040924 -2.94019e-15)
(1.38199 0.242593 -3.5662e-15)
(1.28044 0.346759 -3.28637e-15)
(1.17531 0.378855 -2.84587e-15)
(1.15554 0.372247 -2.62772e-15)
(1.18927 0.315746 -2.05171e-15)
(1.22175 0.19024 -1.5626e-15)
(1.23601 -0.0161791 -9.10583e-16)
(1.23481 -0.242358 -1.4194e-15)
(0.964934 -0.428759 -3.80371e-16)
(0.262369 -0.706366 -6.66288e-16)
(-0.626868 -1.0955 -8.53186e-16)
(-1.29144 -1.35425 -3.5461e-15)
(-1.5398 -1.32004 -4.96912e-15)
(-1.75173 -1.11866 -4.67278e-15)
(-1.97567 -0.8878 -5.55015e-15)
(-2.21494 -0.661207 -6.25756e-15)
(-2.35419 -0.435831 -5.82079e-15)
)
;

boundaryField
{
    inlet
    {
        type            uniformFixedValue;
        uniformValue    constant (1 0 0);
        value           nonuniform 0();
    }
    outlet
    {
        type            pressureInletOutletVelocity;
        value           nonuniform 0();
    }
    wall
    {
        type            fixedValue;
        value           uniform (0 0 0);
    }
    wedge1
    {
        type            wedge;
    }
    wedge2
    {
        type            wedge;
    }
    axis
    {
        type            empty;
    }
    procBoundary39to33
    {
        type            processor;
        value           nonuniform List<vector> 
67
(
(-0.0392723 0.216125 -3.1416e-15)
(-0.240306 0.0978509 -4.07219e-15)
(-0.489447 -0.149696 -3.9255e-15)
(-0.784104 -0.521816 -4.83757e-15)
(-1.04774 -0.96805 -5.00934e-15)
(-1.2459 -1.37271 -5.19299e-15)
(-1.28628 -1.61645 -4.74099e-15)
(-1.19556 -1.69724 -4.15437e-15)
(-1.2045 -1.72285 -4.69608e-15)
(-1.24218 -1.67358 -7.95814e-15)
(-1.27274 -1.51579 -8.26056e-15)
(-1.31324 -1.27088 -9.82362e-15)
(-1.37467 -0.969582 -1.01012e-14)
(-1.40736 -0.644935 -9.45551e-15)
(-1.43434 -0.309654 -7.27263e-15)
(-1.41617 0.00615939 -7.95644e-15)
(-1.37923 0.276373 -9.14834e-15)
(-1.22553 0.440279 -9.47339e-15)
(-1.17079 0.529122 -9.63963e-15)
(-1.04637 0.590936 -8.03965e-15)
(-1.03849 0.646608 -7.29008e-15)
(-0.971017 0.7555 -7.7888e-15)
(-0.96924 0.871018 -8.17448e-15)
(-0.884728 0.984414 -4.85766e-15)
(-0.718636 1.02766 -4.35186e-15)
(-0.620735 1.06178 -4.81968e-15)
(-0.297613 0.893879 -8.39386e-16)
(0.0216899 0.738211 -6.47943e-15)
(0.228768 0.619424 -6.79871e-15)
(0.338789 0.537862 -6.43027e-15)
(0.41742 0.48625 -2.36595e-15)
(0.263861 0.495573 -8.34166e-16)
(0.29855 0.287866 -6.82514e-16)
(0.368796 -0.0762645 -6.26986e-16)
(0.263734 -0.499097 -2.40954e-15)
(0.227818 -0.323057 -4.27504e-15)
(0.084918 -0.177626 -3.81925e-15)
(-0.00687491 -0.111786 -2.20678e-15)
(-0.201281 -0.296887 -4.34498e-15)
(-0.295193 -0.443703 -1.86963e-15)
(-0.503341 -0.544389 -9.02786e-17)
(-0.572319 -0.66426 -2.11974e-15)
(-0.769019 -0.77863 -3.93485e-15)
(-0.937037 -0.801764 -2.19543e-15)
(-1.14261 -0.71587 -2.66685e-15)
(-1.41862 -0.621164 -1.08267e-15)
(-1.54832 -0.45219 -4.18962e-15)
(-1.67447 -0.215377 -2.72884e-15)
(-1.65711 0.0127105 -2.73893e-15)
(-1.64045 0.260202 -4.20545e-15)
(-1.55945 0.412368 -2.09542e-15)
(-1.44871 0.606212 -2.5538e-15)
(-1.28748 0.715582 -9.4277e-16)
(-1.10685 0.821092 1.46178e-15)
(-0.889285 0.980519 -1.90118e-15)
(-0.862403 1.12389 -3.2408e-15)
(-0.870024 1.14134 -2.18553e-15)
(-0.837237 1.07828 -3.10267e-15)
(-0.656183 0.916288 -2.6114e-15)
(-0.541318 0.549075 -2.62909e-15)
(-0.209543 0.201677 -2.73886e-15)
(0.107939 0.0836178 -3.43226e-15)
(0.265205 0.101395 -2.9559e-15)
(0.284265 0.150493 -2.62887e-15)
(0.25208 0.20531 -3.5038e-15)
(0.200524 0.246841 -3.43624e-15)
(0.200524 0.246841 -3.43624e-15)
)
;
    }
    procBoundary39to34
    {
        type            processor;
        value           uniform (0.466152 0.467843 -3.61003e-15);
    }
    procBoundary39to40
    {
        type            processor;
        value           nonuniform List<vector> 4((0.393321 0.430326 -3.72503e-15) (0.351934 0.378495 -3.82086e-15) (0.258868 0.354269 -5.3469e-15) (0.193063 0.2811 -5.85126e-15));
    }
    procBoundary39to45
    {
        type            processor;
        value           nonuniform List<vector> 
67
(
(-2.4386 -0.219816 -5.8772e-15)
(-2.45753 -0.0460295 -6.16997e-15)
(-2.40555 0.105739 -6.11434e-15)
(-2.32973 0.214923 -6.09212e-15)
(-2.21101 0.282684 -5.72736e-15)
(-2.0497 0.359413 -5.08343e-15)
(-1.90299 0.395867 -5.68078e-15)
(-1.62181 0.443387 -5.76283e-15)
(-1.47313 0.427872 -4.81221e-15)
(-1.05389 0.465431 -4.98363e-15)
(-0.971356 0.373925 -1.4048e-15)
(-0.621844 0.422127 -6.99196e-15)
(-0.533041 0.274417 -3.10531e-15)
(-0.332804 0.270753 -5.6086e-15)
(-0.137775 0.298591 -5.063e-15)
(-0.0826558 0.265861 -5.20241e-15)
(-0.384918 -0.103929 -1.14705e-15)
(0.369399 0.367928 -1.00236e-15)
(-0.181529 0.132481 -4.80132e-17)
(0.429736 -0.16424 -1.566e-15)
(-0.0562383 -0.196974 -2.86338e-15)
(0.115248 -0.106817 -2.69874e-15)
(-0.0835302 0.0036754 8.90086e-16)
(0.0989187 0.102068 -7.20749e-16)
(-0.051893 -0.0317791 -2.43241e-15)
(-0.029151 -0.0975308 -2.58266e-15)
(-0.19299 -0.138172 -5.77106e-15)
(-0.356027 -0.244985 -4.89747e-15)
(-0.609243 -0.304561 -2.89365e-15)
(-0.818833 -0.320448 -2.62911e-15)
(-1.05068 -0.294255 -2.38843e-15)
(-1.19606 -0.257917 -2.33504e-15)
(-1.30625 -0.187861 -4.8915e-15)
(-1.36019 -0.0688702 -3.88541e-15)
(-1.36511 0.0194915 -1.96009e-15)
(-1.29176 0.165818 -2.9301e-15)
(-1.23295 0.166267 -1.00176e-15)
(-1.15127 0.265976 -1.10861e-15)
(-0.914894 0.216901 -3.36766e-15)
(-0.635355 0.342044 -3.85941e-15)
(-0.474398 0.670678 -1.68766e-15)
(-0.361775 0.875758 -1.31848e-15)
(0.191977 0.595379 -1.72143e-15)
(0.499494 0.541539 -9.11061e-16)
(0.661028 0.3686 -1.12759e-16)
(1.27859 -0.199913 -2.79431e-15)
(1.54312 -0.476681 -3.84798e-15)
(1.55244 -0.310647 -3.37875e-15)
(1.51211 0.0222833 -2.6626e-15)
(1.4467 0.257088 -3.51462e-15)
(1.39024 0.364584 -3.42343e-15)
(1.37024 0.387784 -2.9451e-15)
(1.43042 0.358254 -2.67521e-15)
(1.48541 0.28917 -1.01814e-15)
(1.54731 0.165231 -1.12409e-15)
(1.60395 -0.0348145 -1.11208e-15)
(1.68233 -0.230347 -1.72075e-15)
(1.58942 -0.302566 -2.4305e-15)
(0.975617 -0.437927 -1.29005e-15)
(-0.0105387 -0.781451 -1.2551e-15)
(-0.937913 -1.13127 -1.96077e-15)
(-1.47039 -1.20011 -3.71358e-15)
(-1.72842 -1.02414 -5.19481e-15)
(-1.98001 -0.789485 -5.46316e-15)
(-2.22659 -0.575458 -5.74785e-15)
(-2.4386 -0.219816 -5.8772e-15)
(-2.38341 -0.376572 -5.87751e-15)
)
;
    }
}


// ************************************************************************* //
