/*--------------------------------*- C++ -*----------------------------------*\
  =========                 |
  \\      /  F ield         | OpenFOAM: The Open Source CFD Toolbox
   \\    /   O peration     | Website:  https://openfoam.org
    \\  /    A nd           | Version:  7
     \\/     M anipulation  |
\*---------------------------------------------------------------------------*/
FoamFile
{
    version     2.0;
    format      ascii;
    class       volVectorField;
    location    "14";
    object      U;
}
// * * * * * * * * * * * * * * * * * * * * * * * * * * * * * * * * * * * * * //

dimensions      [0 1 -1 0 0 0 0];

internalField   nonuniform List<vector> 
433
(
(0.280064 -0.0240134 -2.09547e-18)
(0.206406 -0.0200325 9.62621e-20)
(0.233383 -0.0189034 4.41412e-19)
(0.125983 -0.0249304 1.66739e-19)
(0.14651 -0.0231129 1.63962e-18)
(0.16886 -0.02204 -2.10907e-18)
(0.192404 -0.0221446 -2.22012e-18)
(0.0813102 -0.0307586 -1.65793e-19)
(0.0977924 -0.0288589 1.38344e-19)
(0.115728 -0.0273637 5.81554e-19)
(0.13511 -0.0269014 9.90489e-19)
(0.155257 -0.0279409 1.3219e-18)
(0.0732822 -0.0338397 5.40595e-19)
(0.0886726 -0.0326246 3.113e-19)
(0.105179 -0.0324746 -1.02787e-18)
(0.122249 -0.0337702 2.09014e-19)
(0.0788237 -0.0380359 -3.62273e-19)
(0.093168 -0.0392833 1.3704e-19)
(1.23348 0.0228313 0)
(1.22603 0.0297217 0)
(1.21803 0.0360432 0)
(1.27443 -0.117371 0)
(1.27639 -0.1084 0)
(1.27747 -0.0992454 0)
(1.27837 -0.089922 0)
(1.27876 -0.0804667 0)
(1.27838 -0.0709195 0)
(1.27724 -0.0613131 0)
(1.27537 -0.0516828 0)
(1.27279 -0.0420697 0)
(1.26948 -0.0325178 0)
(1.26545 -0.0230738 0)
(1.26073 -0.013787 0)
(1.25531 -0.0047071 0)
(1.24923 0.00410238 0)
(1.24251 0.0125855 0)
(1.23516 0.0206764 0)
(1.22722 0.028304 0)
(1.21872 0.0353924 0)
(1.20971 0.041861 0)
(1.28305 -0.120215 0)
(1.28394 -0.110348 0)
(1.2839 -0.100285 0)
(1.28359 -0.0900905 0)
(1.28268 -0.0798317 0)
(1.28095 -0.0695424 0)
(1.27843 -0.0592478 0)
(1.27515 -0.0489829 0)
(1.27114 -0.0387903 0)
(1.26642 -0.0287144 0)
(1.261 -0.0188012 0)
(1.25491 -0.00909925 0)
(1.24818 0.000344811 0)
(1.24084 0.0094674 0)
(1.23291 0.0182151 0)
(1.22443 0.0265237 0)
(1.21544 0.0343235 0)
(1.20595 0.041539 0)
(1.19603 0.048089 0)
(1.28813 -0.121492 0)
(1.28752 -0.110752 0)
(1.28598 -0.0997741 0)
(1.28403 -0.0887187 0)
(1.28143 -0.0776898 0)
(1.278 -0.0667076 0)
(1.27379 -0.0557861 0)
(1.26884 -0.0449602 0)
(1.2632 -0.0342728 0)
(1.25689 -0.0237662 0)
(1.24996 -0.0134835 0)
(1.24244 -0.003466 0)
(1.23437 0.00622801 0)
(1.22579 0.0155591 0)
(1.21673 0.0244693 0)
(1.20722 0.0328985 0)
(1.1973 0.0407802 0)
(1.187 0.0480408 0)
(1.17635 0.0545995 0)
(1.28783 -0.120698 0)
(1.28527 -0.109178 0)
(1.28184 -0.0973404 0)
(1.27786 -0.0854943 0)
(1.27319 -0.0737889 0)
(1.26776 -0.0622195 0)
(1.26162 -0.0507861 0)
(1.25482 -0.0395239 0)
(1.24742 -0.0284745 0)
(1.23947 -0.0176748 0)
(1.23102 -0.00716075 0)
(1.22212 0.00302639 0)
(1.21281 0.0128416 0)
(1.20314 0.0222498 0)
(1.19313 0.0312012 0)
(1.18282 0.0396406 0)
(1.17223 0.0475059 0)
(1.16137 0.054726 0)
(1.15027 0.0612208 0)
(1.27992 -0.117357 0)
(1.27505 -0.105242 0)
(1.26945 -0.0926779 0)
(1.26309 -0.0801923 0)
(1.25608 -0.0679772 0)
(1.24847 -0.0559902 0)
(1.2403 -0.0442185 0)
(1.23161 -0.0326984 0)
(1.22248 -0.0214676 0)
(1.21298 -0.0105532 0)
(1.20316 1.46508e-05 0)
(1.19307 0.0102019 0)
(1.18277 0.0199864 0)
(1.17229 0.0293303 0)
(1.16165 0.0381941 0)
(1.15087 0.0465308 0)
(1.13995 0.0542832 0)
(1.12889 0.0613826 0)
(1.1177 0.0677491 0)
(1.26203 -0.111125 0)
(1.25467 -0.0986949 0)
(1.24677 -0.0856288 0)
(1.23785 -0.0727446 0)
(1.22841 -0.0602605 0)
(1.21863 -0.0480868 0)
(1.2085 -0.0362042 0)
(1.19807 -0.0246509 0)
(1.18742 -0.0134566 0)
(1.17664 -0.00263667 0)
(1.16577 0.00778805 0)
(1.15486 0.0178027 0)
(1.14396 0.02739 0)
(1.13308 0.036525 0)
(1.12223 0.0451778 0)
(1.1114 0.0533083 0)
(1.10058 0.0608636 0)
(1.08975 0.0677767 0)
(1.07888 0.0739667 0)
(1.23185 -0.101909 0)
(1.22217 -0.0895151 0)
(1.2121 -0.0762565 0)
(1.20067 -0.0632957 0)
(1.18894 -0.0508421 0)
(1.17723 -0.0387584 0)
(1.16545 -0.0270308 0)
(1.15364 -0.0156977 0)
(1.14188 -0.0047742 0)
(1.13026 0.005729 0)
(1.11882 0.0158142 0)
(1.1076 0.0254793 0)
(1.0966 0.0347174 0)
(1.08582 0.0435161 0)
(1.07526 0.0518537 0)
(1.06487 0.0596958 0)
(1.05462 0.066992 0)
(1.04446 0.0736754 0)
(1.03435 0.0796618 0)
(1.1876 -0.0899479 0)
(1.17616 -0.0779709 0)
(1.16433 -0.0648893 0)
(1.15071 -0.0522247 0)
(1.13712 -0.0401294 0)
(1.12396 -0.0284329 0)
(1.11106 -0.0171406 0)
(1.09843 -0.00628771 0)
(1.08616 0.00412703 0)
(1.07431 0.0141103 0)
(1.06291 0.0236793 0)
(1.05196 0.0328446 0)
(1.04144 0.0416115 0)
(1.03133 0.0499773 0)
(1.02158 0.0579266 0)
(1.01214 0.0654281 0)
(1.00292 0.0724319 0)
(0.993876 0.0788684 0)
(0.98492 0.0846484 0)
(1.12833 -0.0758528 0)
(1.11613 -0.0646332 0)
(1.10322 -0.0521139 0)
(1.088 -0.0401229 0)
(1.07323 -0.0287038 0)
(1.05935 -0.0176822 0)
(1.04605 -0.00709221 0)
(1.03333 0.00304224 0)
(1.02127 0.0127421 0)
(1.0099 0.0220391 0)
(0.9992 0.0309559 0)
(0.989152 0.0395151 0)
(0.979708 0.047732 0)
(0.970808 0.0556097 0)
(0.962379 0.0631357 0)
(0.954336 0.070279 0)
(0.946588 0.0769875 0)
(0.939042 0.0831867 0)
(0.931605 0.0887803 0)
(1.05419 -0.0605546 0)
(1.0426 -0.0503241 0)
(1.02947 -0.0387183 0)
(1.01348 -0.0277345 0)
(0.99843 -0.0172644 0)
(0.984702 -0.00716802 0)
(0.971864 0.0024943 0)
(0.959886 0.0117245 0)
(0.948822 0.0205672 0)
(0.938654 0.0290649 0)
(0.929331 0.0372505 0)
(0.920791 0.0451532 0)
(0.91296 0.0527921 0)
(0.905754 0.0601717 0)
(0.899077 0.0672788 0)
(0.892825 0.07408 0)
(0.886889 0.0805184 0)
(0.881159 0.0865133 0)
(0.875526 0.0919597 0)
(0.966519 -0.0451848 0)
(0.957104 -0.0360128 0)
(0.944697 -0.0255979 0)
(0.928918 -0.0158807 0)
(0.914639 -0.00656133 0)
(0.902057 0.00242129 0)
(0.8906 0.0110013 0)
(0.880214 0.0192193 0)
(0.870909 0.0271371 0)
(0.862618 0.0348005 0)
(0.855252 0.0422457 0)
(0.848725 0.049502 0)
(0.842944 0.0565863 0)
(0.837809 0.0635004 0)
(0.83321 0.0702279 0)
(0.829034 0.0767309 0)
(0.825161 0.0829469 0)
(0.821468 0.0887879 0)
(0.817837 0.0941399 0)
(0.867661 -0.0309185 0)
(0.861961 -0.0226942 0)
(0.851204 -0.013657 0)
(0.836757 -0.00535843 0)
(0.824394 0.00268013 0)
(0.813967 0.0104421 0)
(0.804784 0.0178843 0)
(0.796766 0.0250822 0)
(0.789872 0.0320999 0)
(0.783994 0.0389759 0)
(0.779027 0.0457401 0)
(0.774875 0.0524147 0)
(0.77144 0.0590108 0)
(0.76862 0.0655255 0)
(0.766303 0.0719381 0)
(0.764374 0.078206 0)
(0.762708 0.0842613 0)
(0.761178 0.0900087 0)
(0.759658 0.095326 0)
(0.760641 -0.0188116 0)
(0.759991 -0.011283 0)
(0.751805 -0.00372838 0)
(0.739921 0.00310122 0)
(0.730625 0.00982423 0)
(0.723296 0.0163726 0)
(0.717155 0.0227443 0)
(0.71211 0.0290255 0)
(0.708085 0.0352603 0)
(0.704965 0.041468 0)
(0.702654 0.0476645 0)
(0.701069 0.0538617 0)
(0.700123 0.0600643 0)
(0.699724 0.0662654 0)
(0.69977 0.0724411 0)
(0.700147 0.0785457 0)
(0.700733 0.0845069 0)
(0.7014 0.0902235 0)
(0.70202 0.0955655 0)
(0.648606 -0.00966767 0)
(0.654173 -0.00253452 0)
(0.64961 0.00345924 0)
(0.641634 0.0088589 0)
(0.636467 0.01435 0)
(0.632989 0.0198268 0)
(0.630419 0.0253232 0)
(0.628692 0.0308921 0)
(0.62775 0.0365341 0)
(0.627512 0.0422416 0)
(0.627921 0.0480153 0)
(0.628926 0.0538591 0)
(0.630467 0.0597744 0)
(0.632471 0.0657539 0)
(0.634849 0.071774 0)
(0.637496 0.0777882 0)
(0.640294 0.0837219 0)
(0.643116 0.0894697 0)
(0.645832 0.094895 0)
(0.534614 -0.00448936 0)
(0.547489 0.00252604 0)
(0.547978 0.00660086 0)
(0.545279 0.010778 0)
(0.54503 0.0154177 0)
(0.545822 0.0202203 0)
(0.547019 0.0252164 0)
(0.548652 0.030395 0)
(0.550746 0.0357087 0)
(0.553298 0.0411306 0)
(0.556314 0.0466549 0)
(0.559787 0.0522871 0)
(0.563692 0.0580335 0)
(0.567978 0.0638927 0)
(0.572572 0.0698462 0)
(0.577376 0.0758506 0)
(0.582279 0.081832 0)
(0.587153 0.0876827 0)
(0.59187 0.0932608 0)
(0.421773 -0.00352425 0)
(0.443169 0.00238153 0)
(0.450534 0.00432242 0)
(0.454436 0.00815812 0)
(0.459383 0.0129051 0)
(0.464332 0.0178006 0)
(0.469059 0.0228556 0)
(0.473763 0.0280462 0)
(0.478595 0.0333256 0)
(0.483656 0.0386796 0)
(0.489018 0.0441189 0)
(0.494723 0.049666 0)
(0.500776 0.0553434 0)
(0.507148 0.0611637 0)
(0.513776 0.0671192 0)
(0.520571 0.0731736 0)
(0.527421 0.0792563 0)
(0.534203 0.0852592 0)
(0.540782 0.0910362 0)
(0.342709 -0.00599757 3.2553e-19)
(0.367113 0.00527347 -1.35978e-19)
(0.381236 0.00916984 -4.85287e-19)
(0.390647 0.0131325 2.7377e-19)
(0.399138 0.0171836 1.99588e-19)
(0.406699 0.021472 2.44102e-20)
(0.413636 0.0259682 2.52428e-19)
(0.42028 0.030609 -3.86236e-19)
(0.426867 0.0353585 1.5859e-19)
(0.43356 0.0402178 -1.52094e-19)
(0.440475 0.045207 2.284e-19)
(0.44768 0.0503559 -7.77599e-20)
(0.455196 0.0556923 1.59734e-19)
(0.463003 0.0612307 -7.60185e-20)
(0.471044 0.0669629 -2.24504e-20)
(0.47923 0.0728498 2.261e-20)
(0.487451 0.0788159 -1.13977e-19)
(0.495578 0.0847465 1.77445e-19)
(0.286839 -0.0176321 -1.72545e-19)
(0.308978 -0.00473569 7.08907e-20)
(0.327588 0.00193505 -1.57599e-19)
(0.340376 0.0082614 5.82516e-19)
(0.351345 0.0134111 -2.70771e-19)
(0.360894 0.0183531 4.46841e-19)
(0.369575 0.0232858 -2.71703e-19)
(0.377792 0.0282246 -1.00074e-19)
(0.385838 0.0331721 3.71115e-20)
(0.393915 0.0381671 -5.21403e-20)
(0.402163 0.0432539 -5.76874e-20)
(0.410668 0.0484803 -1.53914e-21)
(0.419459 0.0538859 4.77801e-20)
(0.42852 0.0594931 9.55352e-20)
(0.437798 0.0652974 -9.01594e-20)
(0.447203 0.0712614 -4.42466e-20)
(0.456621 0.0773092 6.84142e-20)
(0.465923 0.0833243 4.15742e-20)
(0.237208 -0.0266188 1.34843e-18)
(0.256368 -0.0110243 -4.14961e-19)
(0.27769 -0.00391764 -2.75164e-19)
(0.292681 0.00393643 -3.79513e-19)
(0.305413 0.0100293 2.24024e-19)
(0.31655 0.015574 2.26889e-19)
(0.32669 0.0208612 1.09546e-19)
(0.336262 0.0260404 -5.10366e-19)
(0.345592 0.0311385 3.77725e-19)
(0.354911 0.036227 -1.11938e-19)
(0.364378 0.0413745 6.74714e-20)
(0.374086 0.0466457 7.58898e-22)
(0.384069 0.0520918 -1.78532e-19)
(0.394315 0.0577419 6.45148e-20)
(0.404769 0.0635955 3.27798e-20)
(0.415341 0.069616 1.51047e-19)
(0.425915 0.0757269 -4.14237e-20)
(0.436358 0.0818098 -1.04294e-19)
(0.1937 -0.0341743 -7.13489e-19)
(0.209623 -0.0162721 2.34638e-19)
(0.231646 -0.00866768 3.33116e-19)
(0.247898 -0.000250144 -1.1468e-19)
(0.261732 0.00661549 -7.32764e-20)
(0.274027 0.0127482 -2.08711e-19)
(0.285293 0.0183593 4.17952e-19)
(0.295973 0.0237427 -4.55068e-19)
(0.30639 0.0289652 6.12336e-20)
(0.316794 0.034123 5.34803e-20)
(0.327348 0.0393107 -6.41161e-20)
(0.338147 0.0446102 -6.51391e-20)
(0.349229 0.050084 1.6702e-19)
(0.360579 0.0557683 -9.40431e-20)
(0.372138 0.061666 7.96381e-20)
(0.383817 0.0677417 -2.4843e-20)
(0.395494 0.0739181 7.11485e-20)
(0.407035 0.0800748 -8.45869e-20)
(0.155419 -0.0401338 8.86308e-20)
(0.168346 -0.022138 3.57913e-19)
(0.189713 -0.0132779 -9.84879e-20)
(0.206237 -0.00501745 -3.24771e-19)
(0.220622 0.00278285 1.72591e-19)
(0.233621 0.00941748 -4.10365e-20)
(0.24566 0.0153863 1.63483e-19)
(0.257186 0.0209672 1.13082e-20)
(0.268481 0.0263197 -5.99313e-20)
(0.2798 0.0315555 -2.79539e-19)
(0.291299 0.0367932 -2.45824e-21)
(0.303071 0.0421325 1.94043e-19)
(0.315148 0.047647 -2.39313e-20)
(0.32751 0.0533795 -4.01182e-20)
(0.340097 0.059337 9.00629e-20)
(0.352813 0.0654848 -3.31956e-20)
(0.365534 0.0717452 2.67562e-20)
(0.378124 0.0779953 -6.12427e-20)
(0.121686 -0.0450481 -2.07698e-19)
(0.131913 -0.0277909 1.89319e-19)
(0.151716 -0.017928 -1.20992e-19)
(0.167747 -0.00954794 2.16154e-19)
(0.182323 -0.00123032 -3.85233e-19)
(0.195499 0.00574198 1.86679e-19)
(0.207991 0.0120831 -5.15902e-20)
(0.220096 0.0178394 1.26855e-19)
(0.232064 0.0232998 1.17946e-21)
(0.244125 0.0286055 5.59186e-20)
(0.256426 0.0338898 -5.64409e-21)
(0.269048 0.03927 -2.45525e-19)
(0.282011 0.0448294 1.82616e-19)
(0.295291 0.0506172 -6.20671e-20)
(0.308821 0.0566434 -1.56648e-20)
(0.3225 0.0628745 3.90852e-21)
(0.336202 0.0692315 -1.48032e-20)
(0.349783 0.0755893 1.00111e-19)
)
;

boundaryField
{
    inlet
    {
        type            uniformFixedValue;
        uniformValue    constant (1 0 0);
        value           nonuniform 0();
    }
    outlet
    {
        type            pressureInletOutletVelocity;
        value           nonuniform 0();
    }
    cylinder
    {
        type            fixedValue;
        value           nonuniform 0();
    }
    top
    {
        type            symmetryPlane;
    }
    bottom
    {
        type            symmetryPlane;
    }
    defaultFaces
    {
        type            empty;
    }
    procBoundary10to3
    {
        type            processor;
        value           nonuniform List<vector> 
13
(
(1.26724 -0.123358 1.07989e-18)
(1.27644 -0.126864 -1.10768e-19)
(1.28271 -0.128802 -1.13179e-19)
(1.28437 -0.128602 -3.20034e-19)
(1.27934 -0.125698 2.68078e-19)
(1.26529 -0.11964 -2.01627e-19)
(1.23987 -0.110232 9.50274e-19)
(1.20107 -0.0976502 -6.37966e-19)
(1.14763 -0.0825054 -9.94303e-19)
(1.07927 -0.0658177 1.83055e-18)
(0.996913 -0.0489017 -3.5211e-19)
(0.902528 -0.0331973 -1.58598e-18)
(0.798818 -0.0200502 1.02379e-18)
)
;
    }
    procBoundary10to4
    {
        type            processor;
        value           nonuniform List<vector> 
20
(
(1.23517 0.0179575 0)
(1.22877 0.0245943 0)
(1.22179 0.0307149 0)
(1.26368 -0.113423 0)
(1.26634 -0.105318 0)
(1.26819 -0.097031 0)
(1.26995 -0.0885479 0)
(1.27127 -0.079887 0)
(1.2719 -0.0710888 0)
(1.27183 -0.0621899 0)
(1.27108 -0.0532255 0)
(1.26965 -0.0442346 0)
(1.26753 -0.0352601 0)
(1.26471 -0.0263475 0)
(1.26119 -0.0175456 0)
(1.25699 -0.0089069 0)
(1.2521 -0.000485221 0)
(1.24653 0.00765544 0)
(1.24032 0.0154509 0)
(1.24032 0.0154509 0)
)
;
    }
    procBoundary10to9
    {
        type            processor;
        value           nonuniform List<vector> 
12
(
(0.364219 -0.0358801 1.24534e-18)
(0.250487 -0.0249701 -3.27845e-18)
(0.250487 -0.0249701 -3.27845e-18)
(0.158376 -0.0230256 -1.18335e-18)
(0.181423 -0.0214162 6.40839e-19)
(0.181423 -0.0214162 6.40839e-19)
(0.107123 -0.0269027 1.39647e-18)
(0.107123 -0.0269027 1.39647e-18)
(0.0661603 -0.0326998 -7.29496e-21)
(0.688731 -0.0108114 4.34118e-19)
(0.575105 -0.00706323 -2.31107e-19)
(0.455784 -0.0104989 4.45566e-19)
)
;
    }
    procBoundary10to11
    {
        type            processor;
        value           nonuniform List<vector> 
19
(
(1.20952 0.041714 0)
(1.20023 0.0476256 0)
(1.1857 0.0538878 0)
(1.16538 0.0603695 0)
(1.13895 0.0669023 0)
(1.10638 0.0732928 0)
(1.06796 0.0793398 0)
(1.02423 0.0848521 0)
(0.975989 0.089665 0)
(0.924192 0.0936522 0)
(0.86989 0.0967314 0)
(0.814157 0.0988661 0)
(0.758031 0.100066 0)
(0.702469 0.100376 0)
(0.648317 0.0998317 0)
(0.596299 0.0983924 0)
(0.547028 0.096406 0)
(0.503476 0.090488 1.55718e-19)
(0.503476 0.090488 1.55718e-19)
)
;
    }
    procBoundary10to16
    {
        type            processor;
        value           nonuniform List<vector> 
25
(
(0.0591129 -0.0355815 2.60562e-19)
(0.0591129 -0.0355815 2.60562e-19)
(0.0520317 -0.039094 1.1651e-18)
(0.064981 -0.0380759 -1.04884e-18)
(0.064981 -0.0380759 -1.04884e-18)
(0.0556543 -0.0431423 -6.24511e-19)
(0.0675345 -0.0442514 1.74682e-18)
(0.0919279 -0.049453 4.15071e-20)
(0.0997859 -0.0328899 -4.63124e-19)
(0.11761 -0.0227143 5.49776e-21)
(0.132522 -0.0135257 -2.40404e-20)
(0.146722 -0.0054827 1.56553e-19)
(0.15977 0.00195337 -2.40044e-19)
(0.172449 0.0085107 -5.15079e-20)
(0.184869 0.014438 1.36097e-19)
(0.19731 0.0199704 1.5016e-21)
(0.209949 0.0253262 6.77295e-20)
(0.22291 0.0306466 -1.25764e-20)
(0.236257 0.0360627 -1.04037e-19)
(0.249999 0.0416663 1.27667e-19)
(0.2641 0.0475118 -1.63875e-22)
(0.278486 0.0536121 -1.32153e-20)
(0.293049 0.0599341 1.14321e-20)
(0.307661 0.0663973 -4.50369e-20)
(0.322174 0.0728742 2.05168e-20)
)
;
    }
    procBoundary10to17
    {
        type            processor;
        value           nonuniform List<vector> 5((0.47497 0.089151 7.9885e-20) (0.446528 0.0877066 -5.01125e-20) (0.418296 0.0860506 -3.09231e-20) (0.390433 0.0840711 -5.34836e-20) (0.363095 0.0817806 1.12796e-19));
    }
}


// ************************************************************************* //
