0.218136 	0.461342 	-2.5327e-18 	4.74637
0.219895 	0.465063 	3.04833e-19 	4.74356
0.221549 	0.468562 	7.73156e-19 	4.72099
0.224753 	0.475337 	1.16933e-18 	4.71848
0.228062 	0.482335 	1.49981e-18 	4.71583
0.23137 	0.489332 	2.09984e-18 	4.71281
0.234679 	0.49633 	2.24803e-18 	4.70932
