/*--------------------------------*- C++ -*----------------------------------*\
  =========                 |
  \\      /  F ield         | OpenFOAM: The Open Source CFD Toolbox
   \\    /   O peration     | Website:  https://openfoam.org
    \\  /    A nd           | Version:  7
     \\/     M anipulation  |
\*---------------------------------------------------------------------------*/
FoamFile
{
    version     2.0;
    format      ascii;
    class       volVectorField;
    location    "3";
    object      U;
}
// * * * * * * * * * * * * * * * * * * * * * * * * * * * * * * * * * * * * * //

dimensions      [0 1 -1 0 0 0 0];

internalField   nonuniform List<vector> 
344
(
(1.07765 -0.00618349 9.85725e-15)
(1.07795 -0.00706356 1.40104e-14)
(1.07525 -0.0075479 1.03209e-14)
(1.07608 -0.00864961 1.31779e-14)
(1.07325 -0.00960195 1.07043e-14)
(1.07388 -0.0107756 1.22831e-14)
(1.07149 -0.0124547 9.60367e-15)
(1.07144 -0.0136163 1.16738e-14)
(1.06948 -0.0161594 9.98749e-15)
(1.06908 -0.0175236 1.12355e-14)
(1.06653 -0.0207792 8.83089e-15)
(1.06713 -0.0228249 1.15422e-14)
(1.06244 -0.0266172 9.16934e-15)
(1.06489 -0.0298455 1.11875e-14)
(1.05806 -0.0340571 8.20122e-15)
(1.0614 -0.0390047 1.01496e-14)
(1.05315 -0.0436596 8.44443e-15)
(1.05735 -0.0507358 8.87149e-15)
(1.04623 -0.0559304 6.80574e-15)
(1.05298 -0.0657892 8.06172e-15)
(1.03704 -0.0713448 6.30334e-15)
(1.04654 -0.0846051 4.81835e-15)
(1.02625 -0.0907094 3.67219e-15)
(1.03487 -0.107578 7.68063e-17)
(1.01316 -0.114422 1.1518e-15)
(1.01573 -0.134139 -5.84543e-15)
(0.992094 -0.144127 -4.54887e-15)
(0.983964 -0.161603 -1.08884e-14)
(0.958238 -0.179032 -1.08365e-14)
(0.924951 -0.188143 -1.42695e-14)
(0.89696 -0.213386 -1.40332e-14)
(0.819431 -0.207358 -1.61706e-14)
(0.778224 -0.233918 -8.24527e-15)
(0.634988 -0.202016 -6.5023e-15)
(0.552087 -0.209534 -1.95054e-15)
(0.343143 -0.138647 -1.88654e-15)
(0.215393 -0.124708 1.25693e-15)
(0.158807 -0.094892 -3.84018e-15)
(0.102163 -0.0168519 -3.59624e-15)
(0.030001 0.127341 -3.66515e-15)
(1.09003 -0.0011828 6.78869e-15)
(1.08961 -0.000980176 7.01611e-15)
(1.08955 -0.00179264 6.44075e-15)
(1.08885 -0.000711287 6.51906e-15)
(1.08892 -0.00181406 6.49938e-15)
(1.08817 -0.000969529 6.74979e-15)
(1.08845 -0.00128469 6.69244e-15)
(1.08788 -0.00166609 6.49907e-15)
(1.08823 -0.000895731 6.73065e-15)
(1.0879 -0.00226474 6.19759e-15)
(1.08804 -0.00130087 6.47637e-15)
(1.0878 -0.00239988 6.05125e-15)
(1.08752 -0.00236475 6.6132e-15)
(1.08702 -0.00239869 6.14832e-15)
(1.0864 -0.00325468 6.4653e-15)
(1.08531 -0.0027903 6.1595e-15)
(1.08462 -0.00351018 6.90536e-15)
(1.08285 -0.00353356 6.02589e-15)
(1.08221 -0.00344324 7.08693e-15)
(1.08016 -0.00422551 5.88386e-15)
(1.07937 -0.00360072 7.23851e-15)
(1.07754 -0.00464479 6.15434e-15)
(1.07654 -0.00425365 7.11554e-15)
(1.07498 -0.00499177 6.25993e-15)
(1.07409 -0.0052998 7.28561e-15)
(1.07245 -0.0056973 6.33483e-15)
(1.07193 -0.00658247 6.88237e-15)
(1.07011 -0.00701639 6.13652e-15)
(1.06977 -0.00820635 6.35503e-15)
(1.06791 -0.00897293 5.65224e-15)
(1.06756 -0.0103709 5.6644e-15)
(1.06548 -0.0116334 4.69218e-15)
(1.06529 -0.0132627 5.00757e-15)
(1.06258 -0.0150871 4.04402e-15)
(1.06271 -0.0171479 4.4023e-15)
(1.05929 -0.0194616 3.4012e-15)
(1.0592 -0.0223423 3.37031e-15)
(1.05593 -0.0250314 2.26048e-15)
(1.05423 -0.02907 2.88688e-15)
(1.05211 -0.0324596 1.54636e-15)
(1.04823 -0.0373309 1.79369e-15)
(1.04669 -0.0425381 2.20729e-16)
(1.04102 -0.0476288 4.05162e-16)
(1.03981 -0.0553617 -1.41718e-15)
(1.03107 -0.0610648 -1.63844e-15)
(1.03108 -0.0710801 -3.90362e-15)
(1.01767 -0.0781003 -4.46977e-15)
(1.01814 -0.0903359 -6.72092e-15)
(0.999991 -0.098746 -8.29483e-15)
(0.996912 -0.113308 -9.75752e-15)
(0.975573 -0.123106 -1.23039e-14)
(0.96182 -0.138085 -1.24953e-14)
(0.936603 -0.151483 -1.56753e-14)
(0.903178 -0.161223 -1.40472e-14)
(0.871089 -0.179375 -1.49414e-14)
(0.802193 -0.178582 -1.29099e-14)
(0.753964 -0.195423 -1.00014e-14)
(0.634849 -0.177026 -5.40477e-15)
(0.546201 -0.176852 -4.86206e-15)
(0.375561 -0.13327 -9.87397e-16)
(0.236122 -0.0979511 -6.66693e-15)
(0.127114 -0.0887204 -6.33197e-15)
(0.120671 -0.0826484 -8.77382e-15)
(0.0827022 0.00233466 -5.3369e-15)
(0.019082 0.144051 -3.80292e-15)
(1.08133 -0.0010637 2.87803e-15)
(1.08091 -0.000912653 2.33831e-15)
(1.0806 -0.00154255 2.12981e-15)
(1.0801 -0.000668379 1.99108e-15)
(1.07986 -0.00158797 1.9487e-15)
(1.07936 -0.000914597 1.61086e-15)
(1.07938 -0.00119375 2.11728e-15)
(1.0789 -0.00158165 1.40735e-15)
(1.0791 -0.000900759 1.87483e-15)
(1.07865 -0.00214658 9.69908e-16)
(1.07862 -0.00125721 1.47574e-15)
(1.07817 -0.00222699 1.0076e-15)
(1.07762 -0.00216527 1.38261e-15)
(1.07695 -0.00210799 1.00296e-15)
(1.07602 -0.00290806 1.12067e-15)
(1.07483 -0.00233931 9.46477e-16)
(1.07386 -0.00307245 1.30258e-15)
(1.0721 -0.00295724 6.78066e-16)
(1.07125 -0.0029675 1.46411e-15)
(1.06927 -0.00359407 4.89732e-16)
(1.06836 -0.00312902 1.39199e-15)
(1.06662 -0.00401109 5.82327e-16)
(1.06553 -0.00381691 1.19831e-15)
(1.06409 -0.00436734 4.42458e-16)
(1.06302 -0.00490021 1.24104e-15)
(1.06162 -0.00509656 1.87102e-16)
(1.06075 -0.00613861 8.05822e-16)
(1.05918 -0.00651382 -5.9907e-16)
(1.05848 -0.00756377 5.96866e-17)
(1.05665 -0.00862552 -1.42259e-15)
(1.05602 -0.00946636 -7.37394e-16)
(1.05389 -0.0113266 -2.35757e-15)
(1.05305 -0.0121938 -1.2382e-15)
(1.0508 -0.0146058 -3.03245e-15)
(1.04933 -0.0159985 -2.0498e-15)
(1.04705 -0.0186972 -4.12034e-15)
(1.04481 -0.0210004 -3.11258e-15)
(1.04204 -0.0240663 -5.10904e-15)
(1.03961 -0.0272917 -3.61996e-15)
(1.03509 -0.0312449 -6.08282e-15)
(1.03328 -0.0352377 -4.75264e-15)
(1.02617 -0.040447 -7.62549e-15)
(1.02453 -0.0456685 -6.15922e-15)
(1.01494 -0.0518027 -8.85127e-15)
(1.01262 -0.0590755 -8.33817e-15)
(0.99953 -0.066035 -1.04786e-14)
(0.996409 -0.075326 -1.08071e-14)
(0.978062 -0.0837258 -1.17566e-14)
(0.972395 -0.0943073 -1.32477e-14)
(0.947766 -0.104491 -1.25887e-14)
(0.934555 -0.115456 -1.4978e-14)
(0.903018 -0.127152 -1.25821e-14)
(0.873578 -0.135918 -1.57699e-14)
(0.831747 -0.149156 -1.02206e-14)
(0.774769 -0.150597 -1.2934e-14)
(0.714577 -0.161651 -6.13872e-15)
(0.616225 -0.150019 -6.34832e-15)
(0.523499 -0.147579 -1.73527e-15)
(0.378103 -0.115133 -1.59927e-15)
(0.253175 -0.0892014 -1.97773e-15)
(0.115484 -0.0528089 -1.13271e-14)
(0.087619 -0.0822264 -3.57821e-15)
(0.0871528 -0.0767964 -8.80725e-15)
(0.0640683 0.0205003 -5.06562e-15)
(0.00840668 0.15528 -3.77678e-15)
(1.06265 -0.000917671 -6.93861e-15)
(1.06223 -0.000813014 -7.52492e-15)
(1.06166 -0.00127766 -7.88791e-15)
(1.0614 -0.000620927 -6.96849e-15)
(1.06086 -0.00135397 -8.12174e-15)
(1.06056 -0.000850504 -7.32949e-15)
(1.06039 -0.00109489 -8.17144e-15)
(1.05979 -0.00144331 -7.58219e-15)
(1.05995 -0.000883184 -8.41952e-15)
(1.0591 -0.00193205 -8.05426e-15)
(1.05899 -0.00115339 -8.85455e-15)
(1.05819 -0.00196518 -7.98088e-15)
(1.05736 -0.0018604 -9.01328e-15)
(1.05663 -0.00177944 -8.09484e-15)
(1.05525 -0.00244492 -8.9828e-15)
(1.05428 -0.0018959 -8.38955e-15)
(1.05289 -0.00255451 -9.03079e-15)
(1.05145 -0.00241608 -8.90723e-15)
(1.05033 -0.00244822 -8.97078e-15)
(1.04866 -0.00303099 -9.20134e-15)
(1.04761 -0.00260995 -9.18701e-15)
(1.04616 -0.00349051 -9.50591e-15)
(1.04491 -0.00329255 -9.14681e-15)
(1.04379 -0.00388883 -1.00875e-14)
(1.04245 -0.0043806 -9.14258e-15)
(1.04133 -0.00461168 -1.07514e-14)
(1.04016 -0.00562028 -9.61019e-15)
(1.03867 -0.00596832 -1.19114e-14)
(1.03775 -0.00703237 -9.28932e-15)
(1.03574 -0.00792843 -1.261e-14)
(1.03484 -0.00895268 -9.97814e-15)
(1.03246 -0.0103416 -1.32659e-14)
(1.03114 -0.0117024 -1.03826e-14)
(1.02847 -0.0132925 -1.36444e-14)
(1.02658 -0.0153657 -1.10109e-14)
(1.02325 -0.017161 -1.44914e-14)
(1.02095 -0.01997 -1.15685e-14)
(1.01643 -0.0223383 -1.53226e-14)
(1.0136 -0.0257754 -1.19587e-14)
(1.00783 -0.0290882 -1.56659e-14)
(1.0036 -0.0332342 -1.2473e-14)
(0.99686 -0.0376965 -1.63315e-14)
(0.990213 -0.0427701 -1.30657e-14)
(0.981952 -0.0485491 -1.66778e-14)
(0.972501 -0.0547329 -1.34877e-14)
(0.961243 -0.061887 -1.6919e-14)
(0.948088 -0.0693758 -1.4044e-14)
(0.932031 -0.0776293 -1.63921e-14)
(0.913459 -0.0864318 -1.38162e-14)
(0.889145 -0.0950842 -1.49886e-14)
(0.862887 -0.104766 -1.29912e-14)
(0.824195 -0.112148 -1.26932e-14)
(0.786412 -0.121599 -1.12623e-14)
(0.724487 -0.124486 -7.24257e-15)
(0.667704 -0.130308 -8.23084e-15)
(0.573201 -0.12391 -1.7222e-15)
(0.486633 -0.118403 -3.96945e-15)
(0.357129 -0.0964129 2.08296e-15)
(0.242538 -0.0728508 -3.67254e-15)
(0.126597 -0.0426794 -7.03871e-15)
(0.0448887 -0.0340448 -1.74328e-14)
(0.0555163 -0.0816439 -4.8958e-15)
(0.0458728 -0.0715066 -1.04135e-14)
(0.0419493 0.0325078 -1.37554e-14)
(-0.00215799 0.161538 -2.62524e-15)
(1.02777 -0.000763234 -4.93069e-15)
(1.0273 -0.000678448 -2.17052e-15)
(1.02657 -0.00101765 -6.93989e-15)
(1.02654 -0.000570121 -1.84441e-15)
(1.02569 -0.0011021 -6.87594e-15)
(1.02552 -0.0007788 -1.05083e-15)
(1.02517 -0.00094837 -7.07375e-15)
(1.0243 -0.00124492 -1.47039e-15)
(1.0245 -0.000804624 -6.77393e-15)
(1.02308 -0.00160501 -1.92666e-15)
(1.02306 -0.000988291 -6.95825e-15)
(1.02183 -0.00159489 -2.04757e-15)
(1.02088 -0.00149495 -6.69536e-15)
(1.02017 -0.00140581 -1.37665e-15)
(1.01849 -0.00193518 -6.27334e-15)
(1.01783 -0.00146935 -2.11404e-15)
(1.01627 -0.00204037 -6.22831e-15)
(1.01508 -0.00190318 -3.11055e-15)
(1.01412 -0.00200214 -5.73831e-15)
(1.01245 -0.00247008 -4.51443e-15)
(1.01178 -0.00220661 -5.45584e-15)
(1.01021 -0.00294984 -4.57519e-15)
(1.00925 -0.00286681 -4.60824e-15)
(1.00809 -0.00339664 -6.22163e-15)
(1.00675 -0.00389107 -4.08668e-15)
(1.00566 -0.0041336 -8.08714e-15)
(1.00427 -0.00504406 -4.03691e-15)
(1.00275 -0.0054552 -1.02321e-14)
(1.00142 -0.00632134 -3.71579e-15)
(0.99938 -0.00734577 -1.06697e-14)
(0.997707 -0.00803795 -3.46536e-15)
(0.99541 -0.00964953 -1.07204e-14)
(0.992848 -0.0105112 -4.20433e-15)
(0.990351 -0.0124303 -1.08182e-14)
(0.986726 -0.0138344 -4.84296e-15)
(0.98361 -0.0160155 -1.10565e-14)
(0.978931 -0.0180563 -5.55918e-15)
(0.974761 -0.0207389 -1.08297e-14)
(0.968678 -0.0234048 -4.45262e-15)
(0.963185 -0.02686 -1.03797e-14)
(0.955132 -0.0302223 -5.23993e-15)
(0.947687 -0.0346388 -9.81391e-15)
(0.937191 -0.0388779 -5.28167e-15)
(0.926723 -0.044279 -9.13622e-15)
(0.912794 -0.0496475 -5.36814e-15)
(0.898223 -0.0559434 -8.45262e-15)
(0.878913 -0.0623505 -3.85259e-15)
(0.858517 -0.0695582 -7.18215e-15)
(0.831137 -0.0762471 -3.85996e-15)
(0.801864 -0.0839896 -5.12882e-15)
(0.762305 -0.0897556 -3.34053e-15)
(0.719499 -0.0965418 -2.60038e-15)
(0.661955 -0.0992665 -2.37356e-15)
(0.598795 -0.102138 8.66887e-16)
(0.517154 -0.0976211 4.09659e-16)
(0.426493 -0.091752 6.7282e-15)
(0.321092 -0.0747724 3.11378e-15)
(0.210979 -0.0569433 9.04175e-15)
(0.119219 -0.033122 -1.98741e-15)
(0.0427868 -0.0167777 -6.59999e-16)
(0.00967324 -0.027522 -1.0623e-14)
(0.0246683 -0.0813852 3.20253e-15)
(0.00333644 -0.0686142 -4.56346e-15)
(0.0183452 0.0386033 -1.13735e-14)
(-0.0134162 0.162987 -7.54638e-15)
(0.968944 -0.000619815 7.57992e-17)
(0.968314 -0.00051034 7.16199e-16)
(0.967605 -0.000785731 -5.60338e-16)
(0.967642 -0.000490596 1.95964e-16)
(0.966538 -0.000832903 -6.08089e-16)
(0.966484 -0.000675771 -1.18242e-16)
(0.965857 -0.000729837 -8.45059e-16)
(0.964844 -0.000991604 -3.90919e-16)
(0.965032 -0.000645495 -6.04212e-16)
(0.963187 -0.00119984 -1.35786e-16)
(0.963423 -0.000782746 -4.69654e-16)
(0.961819 -0.00116235 -2.8128e-16)
(0.961076 -0.0011309 -5.4176e-16)
(0.960419 -0.0010412 -4.57592e-16)
(0.958711 -0.00143982 -2.52651e-16)
(0.958473 -0.00113249 -7.52034e-16)
(0.95685 -0.00154894 -3.88446e-16)
(0.956016 -0.00150725 -1.37346e-15)
(0.95525 -0.00160064 -4.18936e-16)
(0.953606 -0.00199848 -1.91303e-15)
(0.953324 -0.00185871 -5.45224e-16)
(0.951587 -0.00245977 -2.84436e-15)
(0.95088 -0.00246818 -6.10136e-16)
(0.949616 -0.00293132 -3.46172e-15)
(0.948186 -0.00337758 -8.87184e-16)
(0.947062 -0.00363844 -4.17687e-15)
(0.945352 -0.00443481 -1.68544e-15)
(0.943625 -0.00480205 -4.9597e-15)
(0.941967 -0.0056472 -2.22807e-15)
(0.939351 -0.00642391 -5.14877e-15)
(0.937406 -0.00726546 -2.77169e-15)
(0.934124 -0.00840127 -5.38196e-15)
(0.931299 -0.00953796 -3.07253e-15)
(0.927353 -0.0108183 -5.28636e-15)
(0.923459 -0.012526 -3.31124e-15)
(0.918285 -0.0139745 -5.32338e-15)
(0.913358 -0.0162617 -3.54714e-15)
(0.906294 -0.0181538 -5.23321e-15)
(0.900005 -0.0209444 -3.80055e-15)
(0.890547 -0.0235381 -5.02358e-15)
(0.882192 -0.0268811 -3.80552e-15)
(0.869646 -0.0302832 -5.03469e-15)
(0.858299 -0.0343408 -4.03425e-15)
(0.84163 -0.0385109 -5.0243e-15)
)
;

boundaryField
{
    inlet
    {
        type            uniformFixedValue;
        uniformValue    constant (1 0 0);
        value           nonuniform 0();
    }
    outlet
    {
        type            pressureInletOutletVelocity;
        value           nonuniform 0();
    }
    wall
    {
        type            fixedValue;
        value           uniform (0 0 0);
    }
    wedge1
    {
        type            wedge;
    }
    wedge2
    {
        type            wedge;
    }
    axis
    {
        type            empty;
    }
    procBoundary38to32
    {
        type            processor;
        value           nonuniform List<vector> 
66
(
(1.08018 -0.00682903 8.8688e-15)
(1.08069 -0.00744266 1.04143e-14)
(1.07785 -0.00802579 8.70518e-15)
(1.07925 -0.00923652 9.8607e-15)
(1.07565 -0.00989878 8.48215e-15)
(1.07771 -0.0115851 9.08e-15)
(1.07365 -0.012683 8.30794e-15)
(1.07587 -0.0145678 8.79992e-15)
(1.07191 -0.0164532 8.69741e-15)
(1.0734 -0.0186396 9.0017e-15)
(1.07037 -0.0211009 8.65633e-15)
(1.07055 -0.0242169 8.8089e-15)
(1.06822 -0.0271218 9.14642e-15)
(1.06796 -0.0311626 8.75474e-15)
(1.0652 -0.0354291 9.78075e-15)
(1.0648 -0.0396363 8.87114e-15)
(1.06251 -0.0464741 1.03429e-14)
(1.05978 -0.0504539 8.66574e-15)
(1.06025 -0.0604732 1.0704e-14)
(1.05353 -0.064527 8.03009e-15)
(1.05642 -0.0779715 1.13544e-14)
(1.04748 -0.0822906 7.51718e-15)
(1.04911 -0.100103 1.05456e-14)
(1.04061 -0.104081 6.11331e-15)
(1.03911 -0.126818 8.25541e-15)
(1.02818 -0.132221 3.50857e-15)
(1.02396 -0.156175 3.55011e-15)
(1.00985 -0.167961 -8.63366e-16)
(0.993293 -0.187423 -3.17853e-15)
(0.978135 -0.209343 -8.49918e-15)
(0.935442 -0.218269 -9.44555e-15)
(0.916312 -0.250371 -1.64547e-14)
(0.822914 -0.240149 -1.35448e-14)
(0.791496 -0.272246 -1.14649e-14)
(0.613577 -0.232794 -6.57021e-15)
(0.537748 -0.227846 -3.68469e-15)
(0.280069 -0.151589 3.35152e-16)
(0.218383 -0.126771 -2.65924e-15)
(0.14208 -0.0500047 -3.3412e-15)
(0.043617 0.100018 -4.0824e-15)
(1.09315 -0.00126112 8.24844e-15)
(1.09266 -0.00103432 1.22017e-14)
(1.0929 -0.00200588 8.49277e-15)
(1.09196 -0.000752658 1.19068e-14)
(1.09243 -0.00202827 9.71612e-15)
(1.09133 -0.00101023 1.18195e-14)
(1.092 -0.00139305 9.51175e-15)
(1.09111 -0.00169813 1.15075e-14)
(1.09179 -0.000913282 1.04374e-14)
(1.09127 -0.0022978 1.11405e-14)
(1.09175 -0.00132944 9.84834e-15)
(1.09137 -0.00249108 1.18027e-14)
(1.09157 -0.00249331 1.08774e-14)
(1.09089 -0.00262825 1.16294e-14)
(1.09088 -0.00352125 1.06168e-14)
(1.08957 -0.00316854 1.11025e-14)
(1.08949 -0.00393487 1.21433e-14)
(1.08748 -0.00399116 1.04467e-14)
(1.08741 -0.00399823 1.20437e-14)
(1.08505 -0.00470379 1.09541e-14)
(1.08482 -0.00420637 1.3278e-14)
(1.08261 -0.0051227 1.04253e-14)
(1.08214 -0.00483725 1.30153e-14)
(1.08017 -0.00546763 1.02511e-14)
(1.07983 -0.00583292 1.44676e-14)
(1.07983 -0.00583292 1.44676e-14)
)
;
    }
    procBoundary38to37
    {
        type            processor;
        value           nonuniform List<vector> 4((1.09009 -0.00132407 7.24014e-15) (1.08151 -0.00121028 2.8765e-15) (1.06289 -0.00104899 -6.87979e-15) (1.02796 -0.000836222 -2.30025e-15));
    }
    procBoundary38to43
    {
        type            processor;
        value           uniform (0.968948 -0.000599654 1.08742e-15);
    }
    procBoundary38to44
    {
        type            processor;
        value           nonuniform List<vector> 
66
(
(0.825901 -0.0434038 -3.88764e-15)
(0.803612 -0.0482135 -5.04926e-15)
(0.781574 -0.0537486 -3.86515e-15)
(0.75125 -0.0588991 -4.72567e-15)
(0.720233 -0.0644529 -3.71637e-15)
(0.678424 -0.0690162 -3.58862e-15)
(0.634539 -0.0733797 -2.74546e-15)
(0.576784 -0.0754558 -1.99016e-15)
(0.515447 -0.076228 -1.39671e-15)
(0.437554 -0.0727507 -1.20784e-16)
(0.356303 -0.0663509 1.25873e-15)
(0.260713 -0.0542111 3.61723e-15)
(0.172973 -0.0390633 3.54836e-15)
(0.092748 -0.0252709 2.33575e-15)
(0.0401088 -0.0102517 -3.61441e-15)
(-0.0042147 -0.003957 -2.44198e-15)
(-0.00951036 -0.0267231 -3.06595e-15)
(-0.00752601 -0.0773156 9.47743e-16)
(-0.0408437 -0.066306 -8.97837e-15)
(-0.00622729 0.0388296 -7.29533e-15)
(-0.0245884 0.158226 -4.67784e-15)
(0.877849 -0.000476677 -3.90771e-15)
(0.877014 -0.00032415 -4.06101e-15)
(0.876547 -0.000583823 -4.21297e-15)
(0.876391 -0.000352977 -3.28184e-15)
(0.875301 -0.000566719 -4.18055e-15)
(0.875308 -0.000523778 -3.36499e-15)
(0.874433 -0.000463301 -4.02916e-15)
(0.873641 -0.00073037 -3.58609e-15)
(0.873657 -0.000429515 -3.87389e-15)
(0.871906 -0.000818066 -3.40019e-15)
(0.872343 -0.000577697 -3.84123e-15)
(0.870636 -0.000762098 -3.86102e-15)
(0.870336 -0.000841914 -3.94389e-15)
(0.86966 -0.00072539 -4.15648e-15)
(0.868235 -0.00104402 -3.8286e-15)
(0.8683 -0.000880638 -4.59003e-15)
(0.86665 -0.00113343 -4.0921e-15)
(0.866273 -0.00121113 -5.19296e-15)
(0.865399 -0.00125179 -4.33227e-15)
(0.864003 -0.00159213 -5.76676e-15)
(0.863749 -0.00155426 -4.25112e-15)
(0.861936 -0.00197575 -6.75114e-15)
(0.861286 -0.00208984 -4.27818e-15)
(0.859832 -0.00243108 -7.49262e-15)
(0.858205 -0.00282123 -4.3808e-15)
(0.856976 -0.00310075 -8.18865e-15)
(0.854727 -0.00368712 -4.63425e-15)
(0.852894 -0.0041127 -8.30436e-15)
(0.850504 -0.00472152 -3.44115e-15)
(0.847573 -0.00548097 -8.70229e-15)
(0.844791 -0.00609155 -3.6477e-15)
(0.840943 -0.00717378 -8.70292e-15)
(0.837023 -0.00796247 -3.65018e-15)
(0.832388 -0.00927242 -8.52209e-15)
(0.826878 -0.010405 -3.58805e-15)
(0.820981 -0.0119744 -8.64235e-15)
(0.813726 -0.013489 -3.70034e-15)
(0.805855 -0.0154664 -8.71367e-15)
(0.796376 -0.0173719 -3.64471e-15)
(0.78594 -0.0198855 -8.26189e-15)
(0.773314 -0.0222457 -3.18358e-15)
(0.759525 -0.0253306 -7.89e-15)
(0.742617 -0.0282431 -3.03828e-15)
(0.825901 -0.0434038 -3.88764e-15)
(0.724198 -0.0318092 -7.51948e-15)
)
;
    }
}


// ************************************************************************* //
