/*--------------------------------*- C++ -*----------------------------------*\
  =========                 |
  \\      /  F ield         | OpenFOAM: The Open Source CFD Toolbox
   \\    /   O peration     | Website:  https://openfoam.org
    \\  /    A nd           | Version:  7
     \\/     M anipulation  |
\*---------------------------------------------------------------------------*/
FoamFile
{
    version     2.0;
    format      ascii;
    class       volScalarField;
    location    "24";
    object      p;
}
// * * * * * * * * * * * * * * * * * * * * * * * * * * * * * * * * * * * * * //

dimensions      [0 2 -2 0 0 0 0];

internalField   nonuniform List<scalar> 
13200
(
-0.291649
-0.293315
-0.294817
-0.296069
-0.297179
-0.298159
-0.29899
-0.29966
-0.300159
-0.30048
-0.300616
-0.300559
-0.300303
-0.299843
-0.299175
-0.298296
-0.297204
-0.295898
-0.294379
-0.292651
-0.290717
-0.288585
-0.28625
-0.28371
-0.281096
-0.292389
-0.294024
-0.295497
-0.296722
-0.297806
-0.298759
-0.299563
-0.300205
-0.300678
-0.300972
-0.301081
-0.300998
-0.300715
-0.300229
-0.299534
-0.298629
-0.29751
-0.296178
-0.294634
-0.292881
-0.290924
-0.288771
-0.286415
-0.283842
-0.281231
-0.293862
-0.295438
-0.296853
-0.298024
-0.299055
-0.299954
-0.300705
-0.301294
-0.301713
-0.301953
-0.302009
-0.301871
-0.301535
-0.300996
-0.300248
-0.29929
-0.298118
-0.296735
-0.29514
-0.293337
-0.291333
-0.289138
-0.28674
-0.284099
-0.281492
-0.296059
-0.297546
-0.298876
-0.299968
-0.300919
-0.301739
-0.302409
-0.302918
-0.303256
-0.303417
-0.303392
-0.303174
-0.302758
-0.302138
-0.30131
-0.300272
-0.299021
-0.297559
-0.295887
-0.294008
-0.291932
-0.289674
-0.287211
-0.284468
-0.281862
-0.298966
-0.300337
-0.301553
-0.30254
-0.303387
-0.304101
-0.304665
-0.305067
-0.305299
-0.305353
-0.305221
-0.304896
-0.304372
-0.303645
-0.30271
-0.301565
-0.300208
-0.29864
-0.296863
-0.294882
-0.292708
-0.290362
-0.287811
-0.284928
-0.282309
-0.302566
-0.303793
-0.304871
-0.305728
-0.306446
-0.307028
-0.307461
-0.30773
-0.307829
-0.30775
-0.307484
-0.307025
-0.306368
-0.305506
-0.304437
-0.303157
-0.301666
-0.299963
-0.298053
-0.295941
-0.293641
-0.291182
-0.288517
-0.285449
-0.282771
-0.306838
-0.307897
-0.30881
-0.309515
-0.310078
-0.310505
-0.310781
-0.310893
-0.310833
-0.310594
-0.310168
-0.309549
-0.30873
-0.307707
-0.306476
-0.305034
-0.303379
-0.301514
-0.299441
-0.297167
-0.294712
-0.292112
-0.289305
-0.286019
-0.283331
-0.311761
-0.312627
-0.313353
-0.313881
-0.314268
-0.314515
-0.314609
-0.314538
-0.314295
-0.313871
-0.313259
-0.312453
-0.311447
-0.310235
-0.308814
-0.307181
-0.305334
-0.303276
-0.30101
-0.298543
-0.2959
-0.293126
-0.29014
-0.286591
-0.283929
-0.317314
-0.317965
-0.318479
-0.318809
-0.318997
-0.319041
-0.318929
-0.318651
-0.318199
-0.317564
-0.316741
-0.315723
-0.314503
-0.313076
-0.311438
-0.309586
-0.307519
-0.305237
-0.302745
-0.300051
-0.297184
-0.294201
-0.290998
-0.287129
-0.284458
-0.323476
-0.323889
-0.324169
-0.32428
-0.324245
-0.324063
-0.323723
-0.323214
-0.322528
-0.32166
-0.320601
-0.319345
-0.317885
-0.316218
-0.314337
-0.312239
-0.309922
-0.307386
-0.304636
-0.301678
-0.298548
-0.295315
-0.291849
-0.287595
-0.284881
-0.330227
-0.330379
-0.330404
-0.330273
-0.329995
-0.329565
-0.328972
-0.328209
-0.327268
-0.326141
-0.324822
-0.323305
-0.321583
-0.31965
-0.317501
-0.315131
-0.312537
-0.309718
-0.306676
-0.303418
-0.299982
-0.296452
-0.29267
-0.287948
-0.285144
-0.337547
-0.337416
-0.337163
-0.33677
-0.336227
-0.335526
-0.33466
-0.33362
-0.332401
-0.330994
-0.329393
-0.327593
-0.325586
-0.323366
-0.320926
-0.318261
-0.315365
-0.312235
-0.308869
-0.305273
-0.301485
-0.297605
-0.29344
-0.288149
-0.2852
-0.345416
-0.344979
-0.344426
-0.343749
-0.34292
-0.341928
-0.340766
-0.33943
-0.337911
-0.336203
-0.334301
-0.332197
-0.329885
-0.327358
-0.324609
-0.321629
-0.318409
-0.314945
-0.311228
-0.307257
-0.303072
-0.298781
-0.294151
-0.288168
-0.285004
-0.353813
-0.353046
-0.35217
-0.35119
-0.350054
-0.34875
-0.347273
-0.345619
-0.343781
-0.341754
-0.339532
-0.337107
-0.334475
-0.331626
-0.328551
-0.325241
-0.321684
-0.317866
-0.313776
-0.3094
-0.304771
-0.300003
-0.294811
-0.287972
-0.28433
-0.362712
-0.361594
-0.360372
-0.359067
-0.357605
-0.355969
-0.354158
-0.352169
-0.349995
-0.347632
-0.345074
-0.342315
-0.339349
-0.336166
-0.332757
-0.329109
-0.325205
-0.321027
-0.316551
-0.311749
-0.306641
-0.301334
-0.295474
-0.287579
-0.283297
-0.372085
-0.370591
-0.369003
-0.367354
-0.365547
-0.363561
-0.361399
-0.359058
-0.356533
-0.353819
-0.350913
-0.347809
-0.344501
-0.340979
-0.337232
-0.333245
-0.328997
-0.324463
-0.319605
-0.314375
-0.308768
-0.302872
-0.29623
-0.287015
-0.281684
-0.381896
-0.380004
-0.378028
-0.376018
-0.373849
-0.371498
-0.368969
-0.366262
-0.363373
-0.360298
-0.357035
-0.353578
-0.349923
-0.346061
-0.341979
-0.337662
-0.333085
-0.328215
-0.323001
-0.317371
-0.311283
-0.30479
-0.297297
-0.286486
-0.279461
-0.3921
-0.38979
-0.387409
-0.385021
-0.382476
-0.379746
-0.376838
-0.373754
-0.37049
-0.367046
-0.363419
-0.359607
-0.355605
-0.351406
-0.347
-0.34237
-0.33749
-0.332324
-0.326807
-0.320841
-0.314339
-0.307294
-0.298898
-0.28604
-0.276129
-0.402644
-0.399902
-0.3971
-0.394322
-0.39139
-0.388269
-0.384972
-0.381502
-0.377858
-0.374039
-0.370045
-0.365876
-0.36153
-0.357003
-0.352287
-0.347369
-0.342228
-0.336826
-0.331098
-0.324923
-0.318167
-0.310705
-0.3013
-0.285447
-0.270137
-0.41347
-0.410282
-0.407049
-0.403873
-0.400544
-0.397026
-0.393334
-0.389473
-0.385444
-0.381247
-0.376885
-0.372361
-0.367676
-0.36283
-0.357822
-0.352648
-0.347297
-0.341749
-0.335962
-0.329853
-0.323319
-0.316173
-0.306937
-0.290487
-0.270852
-0.424511
-0.42087
-0.4172
-0.413619
-0.40989
-0.405972
-0.401881
-0.397627
-0.393211
-0.388636
-0.383907
-0.37903
-0.374009
-0.368852
-0.363565
-0.358156
-0.352634
-0.347013
-0.341313
-0.335581
-0.32993
-0.324522
-0.319441
-0.316633
-0.326399
-0.435697
-0.431601
-0.427492
-0.423506
-0.419376
-0.415056
-0.410568
-0.405922
-0.40112
-0.396169
-0.391074
-0.385845
-0.38049
-0.375021
-0.369453
-0.363802
-0.358095
-0.352368
-0.346683
-0.341151
-0.33596
-0.331317
-0.327745
-0.328609
-0.338078
-0.446955
-0.442406
-0.43786
-0.433472
-0.428944
-0.424227
-0.419345
-0.414311
-0.409128
-0.403803
-0.398345
-0.392766
-0.387076
-0.381292
-0.375431
-0.369519
-0.363589
-0.357688
-0.351892
-0.346324
-0.341161
-0.336541
-0.332932
-0.333369
-0.338809
-0.458212
-0.453214
-0.448238
-0.443454
-0.438535
-0.433427
-0.428159
-0.422743
-0.417185
-0.411494
-0.405678
-0.39975
-0.393725
-0.387619
-0.381454
-0.375256
-0.369061
-0.36292
-0.356904
-0.351128
-0.345733
-0.340791
-0.336654
-0.33587
-0.338038
-0.46939
-0.463953
-0.458554
-0.453383
-0.448083
-0.442595
-0.43695
-0.431163
-0.42524
-0.41919
-0.413023
-0.406751
-0.40039
-0.393957
-0.387473
-0.380964
-0.374463
-0.368016
-0.361685
-0.355561
-0.349744
-0.344241
-0.339297
-0.337051
-0.336357
-0.480411
-0.474545
-0.468735
-0.463187
-0.457517
-0.451662
-0.445654
-0.439509
-0.433233
-0.426834
-0.420324
-0.413714
-0.407017
-0.400251
-0.393434
-0.386588
-0.379741
-0.37293
-0.3662
-0.359616
-0.353235
-0.34701
-0.341106
-0.337347
-0.334181
-0.49119
-0.484905
-0.478696
-0.472786
-0.466761
-0.460553
-0.454197
-0.447709
-0.441094
-0.43436
-0.427516
-0.420573
-0.413542
-0.406437
-0.399272
-0.392065
-0.384835
-0.377606
-0.370407
-0.363275
-0.356232
-0.349191
-0.342262
-0.337021
-0.331702
-0.501634
-0.494943
-0.488349
-0.482092
-0.475729
-0.469185
-0.462498
-0.455684
-0.448746
-0.44169
-0.434523
-0.427254
-0.41989
-0.412441
-0.404915
-0.397322
-0.389673
-0.381979
-0.374252
-0.366506
-0.358731
-0.350819
-0.342844
-0.336174
-0.328944
-0.511638
-0.504556
-0.497594
-0.491006
-0.484323
-0.477463
-0.470466
-0.463344
-0.4561
-0.448737
-0.441259
-0.43367
-0.425974
-0.418174
-0.410273
-0.402273
-0.394174
-0.385973
-0.377668
-0.369255
-0.360701
-0.351886
-0.342868
-0.33483
-0.325883
-0.521088
-0.513631
-0.506319
-0.49942
-0.492437
-0.485284
-0.477996
-0.470587
-0.463056
-0.455402
-0.447624
-0.439723
-0.431696
-0.42354
-0.415251
-0.406821
-0.398241
-0.389498
-0.380576
-0.371454
-0.362089
-0.352359
-0.342311
-0.33297
-0.322476
-0.529854
-0.522042
-0.514401
-0.507213
-0.499954
-0.49253
-0.484976
-0.477302
-0.469503
-0.461574
-0.453509
-0.445302
-0.436945
-0.428428
-0.419737
-0.410858
-0.401771
-0.392455
-0.382882
-0.373023
-0.362826
-0.352178
-0.341126
-0.330547
-0.318665
-0.537795
-0.529651
-0.521706
-0.514254
-0.506745
-0.499075
-0.49128
-0.483365
-0.475319
-0.467132
-0.458792
-0.450287
-0.441601
-0.432716
-0.423612
-0.414266
-0.404649
-0.394733
-0.384484
-0.373867
-0.36283
-0.351272
-0.339245
-0.327497
-0.314373
-0.544756
-0.536309
-0.528088
-0.520401
-0.512669
-0.504784
-0.496775
-0.488643
-0.480373
-0.471945
-0.463344
-0.454547
-0.445534
-0.436276
-0.426748
-0.416918
-0.406752
-0.396215
-0.385271
-0.373884
-0.362006
-0.349555
-0.336591
-0.323746
-0.309519
-0.550574
-0.541855
-0.533392
-0.525501
-0.51758
-0.509509
-0.501315
-0.492994
-0.484522
-0.475873
-0.467023
-0.457943
-0.448603
-0.43897
-0.429008
-0.41868
-0.407949
-0.396777
-0.385127
-0.372966
-0.360256
-0.346936
-0.333077
-0.31921
-0.304013
-0.555076
-0.546122
-0.537455
-0.529396
-0.521319
-0.513098
-0.504751
-0.496268
-0.487618
-0.478768
-0.469683
-0.460328
-0.450665
-0.440652
-0.430249
-0.419414
-0.408107
-0.39629
-0.383929
-0.370999
-0.357474
-0.343318
-0.328614
-0.313804
-0.297764
-0.558081
-0.548937
-0.540107
-0.53192
-0.523726
-0.515389
-0.506923
-0.498309
-0.489507
-0.480475
-0.471171
-0.461551
-0.451567
-0.441175
-0.430327
-0.418979
-0.40709
-0.394624
-0.381557
-0.367871
-0.353558
-0.338607
-0.323114
-0.307442
-0.290683
-0.559409
-0.550122
-0.541177
-0.532904
-0.524634
-0.516222
-0.507672
-0.498958
-0.49003
-0.480838
-0.471331
-0.461455
-0.451158
-0.440388
-0.429094
-0.417231
-0.404761
-0.391653
-0.377891
-0.363472
-0.348406
-0.33271
-0.316491
-0.300044
-0.282686
-0.558877
-0.5495
-0.540491
-0.532178
-0.523877
-0.51543
-0.506834
-0.498053
-0.489028
-0.479699
-0.470005
-0.459887
-0.449285
-0.438141
-0.426405
-0.414032
-0.400988
-0.38725
-0.372816
-0.357696
-0.341922
-0.32554
-0.308666
-0.291535
-0.273696
-0.556307
-0.546898
-0.53788
-0.529576
-0.521289
-0.51285
-0.504248
-0.495434
-0.486341
-0.476899
-0.467038
-0.456692
-0.445796
-0.434289
-0.42212
-0.409247
-0.395644
-0.3813
-0.366224
-0.350446
-0.33402
-0.317019
-0.299568
-0.281846
-0.263645
-0.551525
-0.542146
-0.533177
-0.524935
-0.51671
-0.508325
-0.499756
-0.490946
-0.481815
-0.472285
-0.462279
-0.451723
-0.440547
-0.428691
-0.416104
-0.40275
-0.388613
-0.373693
-0.358017
-0.341635
-0.324622
-0.307079
-0.289137
-0.270924
-0.252478
-0.54437
-0.535086
-0.526227
-0.518099
-0.509987
-0.501702
-0.493208
-0.484438
-0.475302
-0.465712
-0.455584
-0.444838
-0.433402
-0.421216
-0.408233
-0.394426
-0.379787
-0.364334
-0.348111
-0.331188
-0.313663
-0.295664
-0.277324
-0.258723
-0.240149
-0.534693
-0.52557
-0.516885
-0.508927
-0.500978
-0.492839
-0.484464
-0.475771
-0.466664
-0.457043
-0.446819
-0.435908
-0.424237
-0.411747
-0.398398
-0.384171
-0.369074
-0.35314
-0.336433
-0.319044
-0.301092
-0.28273
-0.264092
-0.245212
-0.226625
-0.52236
-0.513469
-0.505021
-0.497288
-0.489554
-0.481609
-0.473395
-0.464819
-0.455774
-0.446155
-0.435865
-0.424818
-0.412941
-0.400179
-0.386501
-0.3719
-0.356397
-0.340045
-0.322928
-0.305156
-0.286873
-0.26825
-0.24942
-0.230369
-0.211887
-0.507258
-0.498668
-0.490523
-0.483071
-0.475603
-0.4679
-0.45989
-0.451471
-0.442525
-0.432941
-0.422618
-0.411468
-0.39942
-0.386427
-0.372466
-0.357543
-0.341698
-0.325002
-0.307557
-0.289497
-0.270982
-0.252207
-0.233297
-0.214189
-0.195925
-0.489296
-0.481078
-0.4733
-0.466184
-0.459032
-0.451618
-0.443857
-0.435634
-0.426826
-0.417313
-0.406993
-0.395778
-0.383602
-0.370424
-0.356234
-0.341053
-0.324937
-0.307979
-0.2903
-0.272052
-0.253415
-0.234602
-0.215727
-0.196676
-0.178742
-0.468408
-0.460632
-0.453282
-0.446557
-0.439772
-0.432693
-0.425223
-0.417238
-0.408606
-0.399204
-0.388928
-0.377691
-0.365434
-0.352126
-0.337769
-0.322401
-0.306097
-0.288967
-0.271154
-0.252826
-0.234183
-0.215449
-0.196727
-0.17785
-0.160358
-0.444556
-0.437287
-0.430429
-0.424145
-0.417775
-0.411077
-0.403942
-0.396236
-0.387821
-0.378571
-0.368382
-0.357172
-0.344888
-0.331511
-0.317057
-0.301582
-0.285178
-0.267976
-0.250135
-0.231842
-0.213309
-0.194774
-0.176326
-0.157744
-0.140798
-0.417729
-0.411032
-0.404724
-0.398932
-0.393022
-0.386749
-0.379991
-0.372605
-0.364449
-0.355395
-0.345342
-0.334212
-0.321961
-0.308584
-0.29411
-0.278614
-0.262206
-0.245036
-0.227281
-0.209139
-0.190835
-0.172617
-0.154562
-0.136381
-0.120032
-0.387947
-0.381884
-0.37618
-0.370927
-0.365522
-0.359716
-0.353375
-0.346351
-0.338497
-0.329687
-0.31982
-0.308827
-0.296676
-0.283372
-0.268962
-0.253538
-0.237229
-0.220201
-0.202646
-0.184774
-0.166819
-0.149037
-0.131485
-0.113784
-0.0979616
-0.355261
-0.349889
-0.34484
-0.34017
-0.33531
-0.330011
-0.324129
-0.317508
-0.310001
-0.301482
-0.291857
-0.281064
-0.269082
-0.25593
-0.241675
-0.226421
-0.210317
-0.193544
-0.176307
-0.158825
-0.14134
-0.124113
-0.107182
-0.090088
-0.0750239
-0.319754
-0.315124
-0.310778
-0.306731
-0.302454
-0.2977
-0.292314
-0.286138
-0.279022
-0.270846
-0.26152
-0.250992
-0.239254
-0.226341
-0.212332
-0.197352
-0.181562
-0.165159
-0.148357
-0.131385
-0.114487
-0.0979288
-0.0817088
-0.0653038
-0.0513159
-0.281539
-0.277698
-0.274096
-0.270707
-0.267049
-0.262875
-0.258023
-0.252332
-0.245654
-0.237873
-0.228906
-0.218713
-0.207298
-0.19471
-0.181045
-0.166443
-0.151079
-0.135161
-0.118912
-0.102564
-0.0863661
-0.0705823
-0.0551788
-0.0395657
-0.0266071
-0.240758
-0.237747
-0.234927
-0.232229
-0.22922
-0.225659
-0.221378
-0.216212
-0.210018
-0.202684
-0.194138
-0.184352
-0.17334
-0.161169
-0.147947
-0.133829
-0.119003
-0.103684
-0.0881029
-0.0724914
-0.0570989
-0.0421881
-0.0276954
-0.0129534
-0.00102191
-0.197585
-0.19544
-0.193433
-0.191453
-0.189121
-0.186203
-0.182525
-0.177924
-0.172259
-0.165428
-0.157367
-0.148059
-0.137535
-0.125872
-0.113195
-0.0996687
-0.0854915
-0.0708854
-0.0560826
-0.0413143
-0.0268263
-0.012878
0.000623281
0.0144326
0.0253348
-0.152218
-0.150968
-0.149802
-0.148563
-0.146932
-0.144685
-0.141643
-0.137643
-0.132554
-0.126279
-0.118766
-0.110012
-0.100058
-0.0889968
-0.0769649
-0.0641372
-0.0507195
-0.0369371
-0.0230218
-0.00919978
0.00429022
0.0171946
0.0296345
0.042465
0.052372
-0.104884
-0.104553
-0.104248
-0.10377
-0.102861
-0.101309
-0.0989313
-0.0955699
-0.0910994
-0.0854341
-0.0785335
-0.0704052
-0.0611055
-0.0507386
-0.0394518
-0.0274285
-0.0148791
-0.00203021
0.0108904
0.0236648
0.0360653
0.0478472
0.0591604
0.070979
0.0799757
-0.0558305
-0.056438
-0.0570098
-0.0573079
-0.0571381
-0.0563017
-0.0546153
-0.0519259
-0.0481168
-0.0431131
-0.0368861
-0.029456
-0.0208919
-0.0113094
-0.000865116
0.0102508
0.021825
0.0336326
0.0454518
0.0570762
0.0682929
0.078873
0.0889969
0.0997641
0.107912
-0.00533045
-0.00688823
-0.0083486
-0.0094332
-0.0100157
-0.00991253
-0.00894126
-0.00695492
-0.00384693
0.000446105
0.00594056
0.0126037
0.0203545
0.0290666
0.0385752
0.048685
0.0591812
0.069842
0.0804533
0.0908209
0.100754
0.110058
0.118944
0.12857
0.135897
0.0463258
0.0438105
0.0414554
0.0395777
0.0382336
0.0375895
0.0378255
0.0390811
0.0414517
0.0449887
0.049696
0.0555285
0.0623937
0.0701559
0.0786427
0.0876547
0.0969763
0.106388
0.115681
0.12467
0.133191
0.141113
0.148623
0.156733
0.16357
0.0988294
0.0953549
0.0921039
0.089431
0.0873201
0.0859186
0.085403
0.085904
0.0875054
0.090246
0.0941171
0.0990619
0.104977
0.111719
0.119109
0.126943
0.135006
0.143076
0.150942
0.15841
0.165327
0.171589
0.177071
0.181968
0.187437
0.151856
0.147427
0.143284
0.139818
0.136939
0.134774
0.133495
0.133222
0.134028
0.135937
0.13893
0.142939
0.147851
0.153514
0.159747
0.166343
0.173087
0.179759
0.186139
0.192015
0.197225
0.201602
0.204178
0.202679
0.203486
0.20507
0.199695
0.194669
0.190417
0.186773
0.183843
0.181793
0.180733
0.180722
0.181772
0.183853
0.186886
0.190751
0.195291
0.200323
0.205643
0.21104
0.216304
0.221226
0.225617
0.229355
0.232344
0.233717
0.231887
0.234474
0.258124
0.251819
0.245925
0.240897
0.236497
0.232805
0.229982
0.228126
0.227282
0.227453
0.228595
0.230622
0.233407
0.236791
0.24059
0.244606
0.248637
0.252483
0.255955
0.258889
0.261194
0.2628
0.262995
0.260829
0.26355
0.310667
0.303453
0.29671
0.290924
0.285778
0.281333
0.277739
0.275084
0.2734
0.272677
0.272863
0.273862
0.275544
0.277748
0.280293
0.282988
0.285639
0.288063
0.290088
0.291574
0.292453
0.292666
0.291608
0.288641
0.29042
0.362345
0.354248
0.346682
0.340156
0.334283
0.329097
0.32474
0.321289
0.318763
0.317141
0.31636
0.31632
0.316885
0.317897
0.319178
0.320543
0.321812
0.322814
0.323398
0.323443
0.3229
0.321727
0.319396
0.315448
0.315914
0.412805
0.403859
0.395498
0.388258
0.381677
0.375768
0.370662
0.366424
0.363062
0.360543
0.358795
0.357712
0.357159
0.356976
0.356992
0.357031
0.356922
0.356513
0.355666
0.354281
0.352322
0.349759
0.346135
0.341114
0.340116
0.461701
0.451942
0.442821
0.434896
0.427634
0.421023
0.415187
0.410178
0.405992
0.402585
0.399878
0.397762
0.396098
0.39473
0.393492
0.392218
0.39075
0.388947
0.38669
0.383894
0.380534
0.37659
0.371667
0.365531
0.363
0.508694
0.498164
0.488321
0.479743
0.47183
0.464545
0.458003
0.452246
0.447255
0.442978
0.439331
0.436199
0.433444
0.430912
0.428444
0.425884
0.423085
0.41992
0.416285
0.412109
0.407378
0.402079
0.395875
0.388614
0.384533
0.553459
0.542204
0.53168
0.522486
0.513955
0.506029
0.498811
0.492332
0.486564
0.481445
0.476885
0.472765
0.468948
0.465286
0.461624
0.457817
0.453729
0.449246
0.444279
0.43877
0.432712
0.4261
0.418654
0.410287
0.404672
0.595684
0.583752
0.572594
0.562823
0.553712
0.545179
0.537321
0.530155
0.523644
0.517719
0.512282
0.507214
0.502378
0.49763
0.492823
0.48782
0.482498
0.476756
0.470515
0.463732
0.456407
0.44854
0.439908
0.430472
0.423367
0.635075
0.622518
0.610774
0.600469
0.590818
0.581721
0.573261
0.56545
0.558238
0.551548
0.545281
0.539314
0.533512
0.527735
0.521843
0.515709
0.509222
0.50229
0.494849
0.486864
0.478344
0.469297
0.459547
0.449098
0.440569
0.671357
0.65823
0.645951
0.635157
0.625012
0.615393
0.606378
0.597967
0.590102
0.5827
0.575657
0.56885
0.562145
0.555407
0.548504
0.541316
0.533742
0.525703
0.517145
0.508045
0.498416
0.488273
0.477488
0.466093
0.456228
0.704276
0.690637
0.677876
0.666642
0.656049
0.645957
0.636436
0.627476
0.619014
0.610959
0.603203
0.595624
0.58809
0.580469
0.572637
0.564483
0.555914
0.546863
0.537285
0.527165
0.516522
0.505381
0.493652
0.481391
0.470295
0.733603
0.719511
0.706324
0.6947
0.683708
0.673195
0.663221
0.653771
0.644771
0.636128
0.627731
0.619457
0.611176
0.602761
0.594094
0.585071
0.575609
0.565649
0.555156
0.544123
0.532574
0.520539
0.507968
0.494929
0.482724
0.759132
0.744649
0.731093
0.719131
0.707794
0.696913
0.686544
0.676664
0.667193
0.658035
0.649074
0.640189
0.631253
0.622141
0.61274
0.602956
0.592711
0.581955
0.570662
0.55883
0.546489
0.533674
0.520369
0.50665
0.493469
0.780686
0.765874
0.752009
0.739762
0.728133
0.716943
0.706239
0.695994
0.686124
0.676526
0.667087
0.657682
0.648188
0.638483
0.62846
0.618028
0.607119
0.595689
0.583717
0.571209
0.558197
0.544723
0.530798
0.516502
0.50249
0.798112
0.783036
0.768922
0.756445
0.744581
0.73314
0.722165
0.711624
0.701429
0.691475
0.681646
0.671819
0.661871
0.651684
0.641154
0.630197
0.618749
0.606771
0.594249
0.581194
0.567638
0.55363
0.539203
0.524439
0.509753
0.81129
0.796015
0.781713
0.769063
0.757021
0.74539
0.734211
0.723445
0.713003
0.702779
0.692654
0.682506
0.672212
0.661659
0.650745
0.63939
0.627532
0.615139
0.6022
0.588729
0.574763
0.56035
0.545544
0.530426
0.515226
0.820127
0.804718
0.790291
0.777525
0.765365
0.753606
0.742288
0.731372
0.720765
0.710358
0.700034
0.68967
0.679144
0.668345
0.657173
0.645549
0.633417
0.620745
0.607526
0.593776
0.579533
0.56485
0.549789
0.534433
0.518888
0.824561
0.809086
0.794595
0.781771
0.769551
0.757729
0.746342
0.73535
0.724659
0.714161
0.703736
0.693264
0.682622
0.671699
0.660397
0.648638
0.636368
0.623555
0.610196
0.596306
0.581925
0.567106
0.551917
0.536441
0.520723
0.824561
0.809086
0.794595
0.781771
0.769551
0.757729
0.746342
0.73535
0.724659
0.714161
0.703736
0.693264
0.682622
0.671699
0.660397
0.648638
0.636368
0.623555
0.610196
0.596306
0.581925
0.567106
0.551917
0.536441
0.520723
0.820127
0.804718
0.790291
0.777525
0.765365
0.753606
0.742288
0.731372
0.720765
0.710358
0.700034
0.68967
0.679144
0.668345
0.657173
0.645549
0.633417
0.620745
0.607526
0.593776
0.579533
0.56485
0.549789
0.534433
0.518888
0.81129
0.796015
0.781713
0.769063
0.757021
0.74539
0.734211
0.723445
0.713003
0.702779
0.692654
0.682506
0.672212
0.661659
0.650745
0.63939
0.627532
0.615139
0.6022
0.588729
0.574763
0.56035
0.545544
0.530426
0.515226
0.798112
0.783036
0.768922
0.756445
0.744581
0.73314
0.722166
0.711624
0.701429
0.691475
0.681646
0.671819
0.661871
0.651684
0.641154
0.630197
0.618749
0.606771
0.594249
0.581194
0.567638
0.55363
0.539203
0.524439
0.509753
0.780686
0.765874
0.752009
0.739762
0.728133
0.716943
0.706239
0.695994
0.686124
0.676526
0.667087
0.657682
0.648188
0.638483
0.62846
0.618028
0.607119
0.595689
0.583717
0.571209
0.558197
0.544723
0.530798
0.516502
0.50249
0.759132
0.744649
0.731093
0.719131
0.707794
0.696913
0.686544
0.676664
0.667193
0.658035
0.649074
0.640189
0.631253
0.622141
0.61274
0.602956
0.592711
0.581955
0.570662
0.55883
0.546489
0.533674
0.520369
0.50665
0.493469
0.733603
0.719511
0.706324
0.6947
0.683708
0.673195
0.663221
0.653771
0.644771
0.636128
0.627731
0.619457
0.611176
0.602761
0.594094
0.585071
0.575609
0.565649
0.555156
0.544123
0.532574
0.520539
0.507968
0.494929
0.482724
0.704276
0.690637
0.677876
0.666642
0.656049
0.645957
0.636436
0.627476
0.619014
0.610959
0.603203
0.595624
0.58809
0.580469
0.572637
0.564483
0.555914
0.546863
0.537285
0.527165
0.516522
0.505381
0.493652
0.481391
0.470295
0.671357
0.65823
0.645951
0.635157
0.625012
0.615393
0.606378
0.597967
0.590102
0.5827
0.575657
0.56885
0.562145
0.555407
0.548504
0.541316
0.533742
0.525703
0.517145
0.508045
0.498416
0.488273
0.477488
0.466093
0.456228
0.635075
0.622518
0.610774
0.600469
0.590818
0.581721
0.573261
0.56545
0.558238
0.551548
0.545281
0.539314
0.533512
0.527735
0.521843
0.515709
0.509222
0.50229
0.494849
0.486864
0.478344
0.469297
0.459547
0.449098
0.440569
0.595684
0.583752
0.572594
0.562823
0.553712
0.545179
0.537321
0.530155
0.523644
0.517719
0.512282
0.507214
0.502378
0.49763
0.492823
0.48782
0.482498
0.476756
0.470515
0.463732
0.456407
0.44854
0.439908
0.430472
0.423367
0.553459
0.542204
0.53168
0.522486
0.513955
0.506029
0.498811
0.492332
0.486564
0.481445
0.476885
0.472765
0.468949
0.465286
0.461624
0.457817
0.453729
0.449246
0.444279
0.43877
0.432712
0.4261
0.418654
0.410287
0.404672
0.508694
0.498164
0.488321
0.479743
0.47183
0.464545
0.458004
0.452246
0.447255
0.442978
0.439331
0.436199
0.433444
0.430912
0.428444
0.425884
0.423085
0.41992
0.416285
0.412109
0.407378
0.402079
0.395875
0.388614
0.384533
0.461701
0.451942
0.442821
0.434896
0.427634
0.421023
0.415187
0.410178
0.405992
0.402585
0.399878
0.397762
0.396098
0.39473
0.393492
0.392218
0.39075
0.388947
0.38669
0.383894
0.380534
0.37659
0.371667
0.365531
0.363
0.412805
0.403859
0.395498
0.388258
0.381677
0.375768
0.370662
0.366424
0.363062
0.360543
0.358795
0.357712
0.357159
0.356976
0.356992
0.357031
0.356923
0.356513
0.355666
0.354281
0.352322
0.349759
0.346135
0.341114
0.340116
0.362345
0.354248
0.346682
0.340156
0.334283
0.329097
0.32474
0.321289
0.318763
0.317141
0.31636
0.31632
0.316885
0.317897
0.319178
0.320543
0.321812
0.322814
0.323398
0.323443
0.3229
0.321727
0.319396
0.315448
0.315914
0.310667
0.303453
0.29671
0.290924
0.285778
0.281333
0.277739
0.275084
0.2734
0.272677
0.272863
0.273862
0.275544
0.277748
0.280293
0.282988
0.285639
0.288063
0.290088
0.291574
0.292453
0.292666
0.291608
0.288641
0.29042
0.258124
0.251819
0.245925
0.240897
0.236497
0.232805
0.229982
0.228126
0.227282
0.227453
0.228595
0.230622
0.233407
0.236791
0.24059
0.244606
0.248637
0.252483
0.255955
0.258889
0.261194
0.2628
0.262995
0.260829
0.26355
0.20507
0.199695
0.194669
0.190417
0.186773
0.183843
0.181793
0.180733
0.180722
0.181772
0.183853
0.186886
0.190751
0.195291
0.200323
0.205643
0.21104
0.216304
0.221226
0.225617
0.229356
0.232344
0.233717
0.231887
0.234474
0.151856
0.147427
0.143284
0.139818
0.136939
0.134774
0.133495
0.133222
0.134028
0.135937
0.13893
0.142939
0.147851
0.153514
0.159747
0.166343
0.173087
0.179759
0.186139
0.192015
0.197225
0.201602
0.204178
0.202679
0.203486
0.0988295
0.095355
0.092104
0.0894311
0.0873201
0.0859186
0.085403
0.0859041
0.0875055
0.090246
0.0941171
0.0990619
0.104977
0.111719
0.119109
0.126943
0.135006
0.143076
0.150942
0.15841
0.165327
0.171589
0.177071
0.181968
0.187437
0.0463258
0.0438105
0.0414554
0.0395778
0.0382337
0.0375896
0.0378256
0.0390811
0.0414517
0.0449888
0.049696
0.0555285
0.0623938
0.0701559
0.0786427
0.0876547
0.0969763
0.106388
0.115681
0.12467
0.133191
0.141113
0.148623
0.156733
0.16357
-0.00533041
-0.00688819
-0.00834857
-0.00943316
-0.0100157
-0.0099125
-0.00894122
-0.00695488
-0.00384689
0.000446146
0.0059406
0.0126038
0.0203545
0.0290667
0.0385753
0.048685
0.0591813
0.0698421
0.0804533
0.0908209
0.100754
0.110058
0.118944
0.12857
0.135897
-0.0558304
-0.056438
-0.0570098
-0.0573078
-0.0571381
-0.0563016
-0.0546153
-0.0519259
-0.0481167
-0.043113
-0.0368861
-0.029456
-0.0208919
-0.0113093
-0.000865075
0.0102508
0.021825
0.0336326
0.0454519
0.0570762
0.0682929
0.0788731
0.0889969
0.0997641
0.107912
-0.104884
-0.104553
-0.104248
-0.10377
-0.102861
-0.101309
-0.0989312
-0.0955698
-0.0910993
-0.0854341
-0.0785335
-0.0704051
-0.0611055
-0.0507386
-0.0394518
-0.0274284
-0.0148791
-0.00203017
0.0108904
0.0236649
0.0360653
0.0478472
0.0591604
0.070979
0.0799758
-0.152218
-0.150968
-0.149801
-0.148563
-0.146932
-0.144685
-0.141643
-0.137643
-0.132554
-0.126279
-0.118766
-0.110012
-0.100058
-0.0889968
-0.0769649
-0.0641372
-0.0507194
-0.0369371
-0.0230218
-0.00919974
0.00429026
0.0171946
0.0296346
0.0424651
0.052372
-0.197585
-0.19544
-0.193433
-0.191453
-0.189121
-0.186203
-0.182525
-0.177924
-0.172259
-0.165428
-0.157367
-0.148059
-0.137535
-0.125872
-0.113195
-0.0996687
-0.0854914
-0.0708853
-0.0560825
-0.0413142
-0.0268262
-0.0128779
0.000623322
0.0144326
0.0253348
-0.240758
-0.237747
-0.234927
-0.232229
-0.22922
-0.225659
-0.221378
-0.216212
-0.210018
-0.202684
-0.194138
-0.184352
-0.17334
-0.161169
-0.147947
-0.133829
-0.119003
-0.103684
-0.0881029
-0.0724913
-0.0570988
-0.0421881
-0.0276954
-0.0129534
-0.00102187
-0.281539
-0.277698
-0.274096
-0.270707
-0.267049
-0.262875
-0.258023
-0.252332
-0.245654
-0.237873
-0.228906
-0.218713
-0.207298
-0.19471
-0.181045
-0.166443
-0.151079
-0.135161
-0.118912
-0.102564
-0.086366
-0.0705822
-0.0551787
-0.0395657
-0.026607
-0.319754
-0.315124
-0.310778
-0.306731
-0.302454
-0.2977
-0.292314
-0.286138
-0.279022
-0.270846
-0.26152
-0.250992
-0.239254
-0.226341
-0.212332
-0.197352
-0.181562
-0.165159
-0.148357
-0.131385
-0.114487
-0.0979287
-0.0817087
-0.0653038
-0.0513158
-0.355261
-0.349889
-0.34484
-0.34017
-0.33531
-0.330011
-0.324128
-0.317508
-0.31
-0.301482
-0.291856
-0.281064
-0.269081
-0.25593
-0.241674
-0.226421
-0.210317
-0.193544
-0.176307
-0.158825
-0.14134
-0.124113
-0.107182
-0.090088
-0.0750238
-0.387947
-0.381884
-0.37618
-0.370927
-0.365522
-0.359716
-0.353375
-0.346351
-0.338497
-0.329687
-0.31982
-0.308827
-0.296676
-0.283372
-0.268962
-0.253538
-0.237229
-0.220201
-0.202646
-0.184774
-0.166819
-0.149037
-0.131485
-0.113784
-0.0979616
-0.417729
-0.411032
-0.404724
-0.398932
-0.393022
-0.386749
-0.379991
-0.372605
-0.364449
-0.355395
-0.345342
-0.334212
-0.321961
-0.308583
-0.29411
-0.278614
-0.262206
-0.245036
-0.227281
-0.209139
-0.190835
-0.172617
-0.154561
-0.136381
-0.120032
-0.444556
-0.437287
-0.430429
-0.424145
-0.417775
-0.411077
-0.403942
-0.396236
-0.387821
-0.378571
-0.368382
-0.357172
-0.344888
-0.331511
-0.317057
-0.301582
-0.285178
-0.267975
-0.250135
-0.231842
-0.213309
-0.194774
-0.176326
-0.157743
-0.140798
-0.468408
-0.460632
-0.453282
-0.446557
-0.439771
-0.432693
-0.425223
-0.417238
-0.408606
-0.399204
-0.388928
-0.377691
-0.365434
-0.352126
-0.337769
-0.322401
-0.306096
-0.288967
-0.271154
-0.252826
-0.234182
-0.215448
-0.196727
-0.17785
-0.160358
-0.489296
-0.481078
-0.4733
-0.466184
-0.459032
-0.451618
-0.443857
-0.435634
-0.426826
-0.417313
-0.406993
-0.395778
-0.383602
-0.370424
-0.356234
-0.341053
-0.324937
-0.307979
-0.2903
-0.272052
-0.253415
-0.234602
-0.215727
-0.196676
-0.178742
-0.507258
-0.498668
-0.490523
-0.483071
-0.475603
-0.4679
-0.45989
-0.451471
-0.442525
-0.432941
-0.422618
-0.411468
-0.39942
-0.386427
-0.372466
-0.357543
-0.341698
-0.325002
-0.307557
-0.289497
-0.270982
-0.252207
-0.233297
-0.214189
-0.195924
-0.52236
-0.513469
-0.505021
-0.497288
-0.489554
-0.481609
-0.473395
-0.464819
-0.455774
-0.446155
-0.435865
-0.424818
-0.412941
-0.400179
-0.386501
-0.371899
-0.356397
-0.340045
-0.322928
-0.305156
-0.286872
-0.26825
-0.24942
-0.230369
-0.211886
-0.534693
-0.52557
-0.516885
-0.508927
-0.500978
-0.492839
-0.484464
-0.475771
-0.466663
-0.457043
-0.446819
-0.435908
-0.424237
-0.411747
-0.398397
-0.384171
-0.369073
-0.35314
-0.336433
-0.319044
-0.301092
-0.28273
-0.264092
-0.245212
-0.226625
-0.54437
-0.535086
-0.526227
-0.518099
-0.509987
-0.501702
-0.493208
-0.484438
-0.475302
-0.465712
-0.455584
-0.444838
-0.433402
-0.421216
-0.408233
-0.394426
-0.379787
-0.364334
-0.348111
-0.331188
-0.313663
-0.295664
-0.277324
-0.258723
-0.240149
-0.551525
-0.542146
-0.533177
-0.524935
-0.51671
-0.508325
-0.499756
-0.490946
-0.481815
-0.472285
-0.462279
-0.451723
-0.440547
-0.428691
-0.416104
-0.40275
-0.388613
-0.373693
-0.358017
-0.341635
-0.324622
-0.307079
-0.289137
-0.270924
-0.252478
-0.556307
-0.546898
-0.53788
-0.529576
-0.521289
-0.51285
-0.504248
-0.495434
-0.486341
-0.476899
-0.467038
-0.456692
-0.445796
-0.434289
-0.42212
-0.409247
-0.395644
-0.3813
-0.366224
-0.350446
-0.33402
-0.317019
-0.299568
-0.281846
-0.263645
-0.558877
-0.5495
-0.540491
-0.532178