/*--------------------------------*- C++ -*----------------------------------*\
  =========                 |
  \\      /  F ield         | OpenFOAM: The Open Source CFD Toolbox
   \\    /   O peration     | Website:  https://openfoam.org
    \\  /    A nd           | Version:  7
     \\/     M anipulation  |
\*---------------------------------------------------------------------------*/
FoamFile
{
    version     2.0;
    format      ascii;
    class       surfaceScalarField;
    location    "24";
    object      phi;
}
// * * * * * * * * * * * * * * * * * * * * * * * * * * * * * * * * * * * * * //

dimensions      [0 3 -1 0 0 0 0];

internalField   nonuniform List<scalar> 
26110
(
-2.92844e-07
2.92844e-07
1.1846e-13
-1.16763e-06
8.74786e-07
4.10927e-13
-2.65065e-06
1.48302e-06
7.03615e-13
-4.76388e-06
2.11323e-06
1.01702e-12
-7.52391e-06
2.76002e-06
1.35827e-12
-1.0941e-05
3.41709e-06
1.73107e-12
-1.50183e-05
4.07731e-06
2.15334e-12
-1.97511e-05
4.73275e-06
2.63949e-12
-2.51258e-05
5.37477e-06
3.18603e-12
-3.112e-05
5.99416e-06
3.80059e-12
-3.77014e-05
6.58134e-06
4.51451e-12
-4.48281e-05
7.12669e-06
5.34094e-12
-5.2449e-05
7.62092e-06
6.23567e-12
-6.05046e-05
8.05561e-06
7.1804e-12
-6.89285e-05
8.42388e-06
8.25035e-12
-7.76498e-05
8.72128e-06
9.47976e-12
-8.65966e-05
8.94679e-06
1.08011e-11
-9.57006e-05
9.10405e-06
1.2213e-11
-0.000104903
9.2027e-06
1.37281e-11
-0.000114163
9.25973e-06
1.5278e-11
-0.000123464
9.30065e-06
1.68758e-11
-0.000132823
9.35956e-06
1.85185e-11
-0.0001423
9.47683e-06
2.01629e-11
-0.000152003
9.70317e-06
2.17793e-11
1.01247e-05
2.3264e-11
-0.000162128
-2.87848e-07
5.80693e-07
-1.14708e-06
1.73402e-06
-2.60272e-06
2.93866e-06
-4.67534e-06
4.18585e-06
-7.37993e-06
5.46461e-06
-1.0725e-05
6.76218e-06
-1.47118e-05
8.06409e-06
-1.93333e-05
9.35423e-06
-2.45736e-05
1.06151e-05
-3.04072e-05
1.18278e-05
-3.67989e-05
1.2973e-05
-4.3703e-05
1.40309e-05
-5.10646e-05
1.49824e-05
-5.88191e-05
1.58102e-05
-6.6895e-05
1.64997e-05
-7.52151e-05
1.70414e-05
-8.37007e-05
1.74324e-05
-9.22758e-05
1.76791e-05
-0.000100873
1.78002e-05
-0.000109443
1.78291e-05
-0.000117959
1.78166e-05
-0.00012643
1.78313e-05
-0.000134909
1.79553e-05
-0.000143498
1.8292e-05
1.90181e-05
-0.000152391
-2.77934e-07
8.58626e-07
-1.10628e-06
2.56237e-06
-2.50753e-06
4.33991e-06
-4.49942e-06
6.17774e-06
-7.09381e-06
8.059e-06
-1.02957e-05
9.96409e-06
-1.41024e-05
1.18708e-05
-1.85025e-05
1.37544e-05
-2.34753e-05
1.55878e-05
-2.89896e-05
1.73421e-05
-3.50038e-05
1.89872e-05
-4.14653e-05
2.04924e-05
-4.83106e-05
2.18278e-05
-5.54663e-05
2.29658e-05
-6.28497e-05
2.38831e-05
-7.03716e-05
2.45634e-05
-7.79395e-05
2.50003e-05
-8.54619e-05
2.52015e-05
-9.28547e-05
2.5193e-05
-0.000100049
2.50236e-05
-0.000107002
2.47691e-05
-0.000113704
2.45335e-05
-0.000120191
2.44427e-05
-0.000126556
2.4657e-05
2.5453e-05
-0.000132991
-2.63247e-07
1.12187e-06
-1.0458e-06
3.34492e-06
-2.36634e-06
5.66045e-06
-4.23837e-06
8.04977e-06
-6.66905e-06
1.04897e-05
-9.65818e-06
1.29532e-05
-1.31972e-05
1.54098e-05
-1.72681e-05
1.78253e-05
-2.18429e-05
2.01626e-05
-2.68823e-05
2.23814e-05
-3.23351e-05
2.444e-05
-3.81382e-05
2.62955e-05
-4.42159e-05
2.79055e-05
-5.04808e-05
2.92307e-05
-5.68344e-05
3.02368e-05
-6.31694e-05
3.08983e-05
-6.93723e-05
3.12032e-05
-7.53285e-05
3.11577e-05
-8.09283e-05
3.07928e-05
-8.60756e-05
3.01709e-05
-9.06985e-05
2.9392e-05
-9.47615e-05
2.85965e-05
-9.82769e-05
2.79581e-05
-0.000101319
2.76989e-05
2.82077e-05
-0.000104073
-2.43992e-07
1.36587e-06
-9.66413e-07
4.06734e-06
-2.18088e-06
6.87492e-06
-3.89526e-06
9.76415e-06
-6.11047e-06
1.27049e-05
-8.81937e-06
1.56621e-05
-1.20057e-05
1.85961e-05
-1.56429e-05
2.14625e-05
-1.96932e-05
2.42128e-05
-2.41064e-05
2.67947e-05
-2.88192e-05
2.91529e-05
-3.37544e-05
3.12307e-05
-3.88205e-05
3.29716e-05
-4.39116e-05
3.43218e-05
-4.89083e-05
3.52335e-05
-5.36792e-05
3.56692e-05
-5.80835e-05
3.56075e-05
-6.19754e-05
3.50496e-05
-6.52108e-05
3.40282e-05
-6.76563e-05
3.26164e-05
-6.92017e-05
3.09374e-05
-6.97746e-05
2.91694e-05
-6.93556e-05
2.75391e-05
-6.79947e-05
2.63381e-05
2.6059e-05
-6.5846e-05
-2.20402e-07
1.58627e-06
-8.69033e-07
4.71597e-06
-1.95317e-06
7.95905e-06
-3.47367e-06
1.12846e-05
-5.42369e-06
1.46549e-05
-7.7875e-06
1.80259e-05
-1.05393e-05
2.13479e-05
-1.36419e-05
2.45651e-05
-1.70456e-05
2.76166e-05
-2.0687e-05
3.0436e-05
-2.44876e-05
3.29535e-05
-2.83531e-05
3.50962e-05
-3.21725e-05
3.6791e-05
-3.58176e-05
3.79669e-05
-3.91432e-05
3.85591e-05
-4.19881e-05
3.85141e-05
-4.41775e-05
3.77968e-05
-4.55266e-05
3.63988e-05
-4.5848e-05
3.43496e-05
-4.4961e-05
3.17293e-05
-4.27057e-05
2.86821e-05
-3.89619e-05
2.54256e-05
-3.36699e-05
2.22471e-05
-2.68636e-05
1.95318e-05
1.79292e-05
-1.87339e-05
-1.92723e-07
1.77899e-06
-7.54603e-07
5.27785e-06
-1.68532e-06
8.88977e-06
-2.97735e-06
1.25767e-05
-4.61459e-06
1.62922e-05
-6.57112e-06
1.99824e-05
-8.8098e-06
2.35865e-05
-1.12809e-05
2.70363e-05
-1.39209e-05
3.02565e-05
-1.66505e-05
3.31656e-05
-1.93737e-05
3.56767e-05
-2.19762e-05
3.76987e-05
-2.43242e-05
3.9139e-05
-2.62633e-05
3.9906e-05
-2.76181e-05
3.99139e-05
-2.81926e-05
3.90886e-05
-2.77713e-05
3.73755e-05
-2.61233e-05
3.47507e-05
-2.30081e-05
3.12344e-05
-1.81865e-05
2.69078e-05
-1.1437e-05
2.19326e-05
-2.57788e-06
1.65665e-05
8.50607e-06
1.11631e-05
2.18168e-05
6.22106e-06
2.57899e-06
3.7167e-05
-1.61179e-07
1.94017e-06
-6.23993e-07
5.74067e-06
-1.37927e-06
9.64505e-06
-2.40976e-06
1.36072e-05
-3.68866e-06
1.75711e-05
-5.17825e-06
2.1472e-05
-6.82842e-06
2.52367e-05
-8.57513e-06
2.8783e-05
-1.03388e-05
3.20201e-05
-1.20224e-05
3.48492e-05
-1.35099e-05
3.71643e-05
-1.46646e-05
3.88534e-05
-1.53268e-05
3.98012e-05
-1.53127e-05
3.98919e-05
-1.44129e-05
3.90141e-05
-1.23915e-05
3.70672e-05
-8.98703e-06
3.39711e-05
-3.91469e-06
2.96784e-05
3.12791e-06
2.41918e-05
1.24499e-05
1.75858e-05
2.43487e-05
1.00338e-05
3.90825e-05
1.83265e-06
5.68318e-05
-6.58618e-06
7.76476e-05
-1.45947e-05
-2.11365e-05
0.000101363
-1.25949e-07
2.06612e-06
-4.77903e-07
6.09262e-06
-1.0366e-06
1.02037e-05
-1.77372e-06
1.43443e-05
-2.65036e-06
1.84477e-05
-3.6155e-06
2.24372e-05
-4.60444e-06
2.62256e-05
-5.53704e-06
2.97156e-05
-6.31589e-06
3.2799e-05
-6.82433e-06
3.53577e-05
-6.92427e-06
3.72642e-05
-6.454e-06
3.83831e-05
-5.2258e-06
3.8573e-05
-3.02355e-06
3.76897e-05
3.99503e-07
3.5591e-05
5.32264e-06
3.21441e-05
1.20585e-05
2.72352e-05
2.09523e-05
2.07847e-05
3.23769e-05
1.27671e-05
4.67232e-05
3.23952e-06
6.43798e-05
-7.62275e-06
8.56997e-05
-1.94873e-05
0.000110951
-3.18378e-05
0.000140243
-4.38862e-05
-5.42764e-05
0.000173383
-8.71438e-08
2.15326e-06
-3.16776e-07
6.32225e-06
-6.58323e-07
1.05453e-05
-1.07111e-06
1.47571e-05
-1.50273e-06
1.88793e-05
-1.88741e-06
2.28219e-05
-2.1443e-06
2.64825e-05
-2.17555e-06
2.97468e-05
-1.86426e-06
3.24877e-05
-1.07221e-06
3.45656e-05
3.62587e-07
3.58294e-05
2.62862e-06
3.61171e-05
5.94379e-06
3.52578e-05
1.05586e-05
3.30748e-05
1.67596e-05
2.93901e-05
2.48723e-05
2.40314e-05
3.52641e-05
1.68433e-05
4.83456e-05
7.70316e-06
6.4568e-05
-3.45529e-06
8.44151e-05
-1.66075e-05
0.000108383
-3.15904e-05
0.000136941
-4.8046e-05
0.000170473
-6.53696e-05
0.000209168
-8.25805e-05
-9.79353e-05
0.000252826
-4.47943e-08
2.19805e-06
-1.40759e-07
6.41822e-06
-2.44816e-07
1.06494e-05
-3.02668e-07
1.48149e-05
-2.47065e-07
1.88237e-05
3.93872e-09
2.25709e-05
5.48857e-07
2.59376e-05
1.50482e-06
2.87909e-05
3.00986e-06
3.09826e-05
5.22539e-06
3.23501e-05
8.339e-06
3.27158e-05
1.25676e-05
3.18885e-05
1.81608e-05
2.96646e-05
2.54052e-05
2.58305e-05
3.46282e-05
2.0167e-05
4.62033e-05
1.24562e-05
6.05547e-05
2.49192e-06
7.81612e-05
-9.9033e-06
9.95576e-05
-2.48516e-05
0.00012533
-4.23798e-05
0.000156098
-6.23585e-05
0.000192475
-8.44234e-05
0.000234994
-0.000107888
0.000283965
-0.000131552
-0.000153182
0.000339212
1.13982e-09
2.19691e-06
5.02898e-08
6.36907e-06
2.04169e-07
1.04955e-05
5.31923e-07
1.44872e-05
1.11696e-06
1.82387e-05
2.05881e-06
2.1629e-05
3.47512e-06
2.45213e-05
5.50385e-06
2.67621e-05
8.30577e-06
2.81807e-05
1.20671e-05
2.85887e-05
1.70027e-05
2.77802e-05
2.33593e-05
2.5532e-05
3.14196e-05
2.16043e-05
4.15069e-05
1.57431e-05
5.39905e-05
7.68347e-06
6.92917e-05
-2.84493e-06
8.7891e-05
-1.61074e-05
0.000110336
-3.2348e-05
0.000137246
-5.17616e-05
0.000169315
-7.44491e-05
0.000207301
-0.000100345
0.000251988
-0.000129111
0.000304104
-0.000160003
0.000364143
-0.000191591
-0.000221044
0.000432005
5.07853e-08
2.14613e-06
2.56735e-07
6.16312e-06
6.89327e-07
1.00629e-05
1.43375e-06
1.37427e-05
2.59084e-06
1.70816e-05
4.2791e-06
1.99407e-05
6.63679e-06
2.21636e-05
9.82433e-06
2.35746e-05
1.40269e-05
2.39782e-05
1.94571e-05
2.31585e-05
2.63588e-05
2.08786e-05
3.501e-05
1.68807e-05
4.57277e-05
1.08865e-05
5.88728e-05
2.59803e-06
7.4856e-05
-8.29969e-06
9.41452e-05
-2.21342e-05
0.000117275
-3.92372e-05
0.000144857
-5.993e-05
0.000177592
-8.44971e-05
0.000216282
-0.000113139
0.000261829
-0.000145891
0.00031521
-0.000182492
0.000377397
-0.00022219
0.00044915
-0.000263345
-0.000302511
0.000530617
1.04255e-07
2.04187e-06
4.79e-07
5.78837e-06
1.21148e-06
9.3304e-06
2.40406e-06
1.25502e-05
4.17629e-06
1.53094e-05
6.667e-06
1.745e-05
1.00366e-05
1.8794e-05
1.44697e-05
1.91416e-05
2.01774e-05
1.82704e-05
2.74011e-05
1.59348e-05
3.6415e-05
1.18647e-05
4.75305e-05
5.76519e-06
6.11004e-05
-2.68337e-06
7.75238e-05
-1.38254e-05
9.72527e-05
-2.80286e-05
0.0001208
-4.56812e-05
0.000148749
-6.71863e-05
0.000181769
-9.29501e-05
0.000220632
-0.00012336
0.000266234
-0.000158741
0.000319616
-0.000199273
0.000381959
-0.000244834
0.000454528
-0.00029476
0.000538448
-0.000347265
-0.000398073
0.00063401
1.61663e-07
1.88021e-06
7.17385e-07
5.23265e-06
1.77113e-06
8.27665e-06
3.4435e-06
1.08778e-05
5.87395e-06
1.28789e-05
9.22308e-06
1.41009e-05
1.3675e-05
1.4342e-05
1.94401e-05
1.33764e-05
2.67579e-05
1.09527e-05
3.59e-05
6.7927e-06
4.7174e-05
5.90749e-07
6.09266e-05
-7.98744e-06
7.75486e-05
-1.93054e-05
9.74792e-05
-3.3756e-05
0.000121212
-5.17616e-05
0.000149304
-7.37727e-05
0.000182382
-0.000100265
0.000221164
-0.000131732
0.000266475
-0.000168671
0.000319284
-0.000211551
0.000380744
-0.000260732
0.000452234
-0.000316324
0.000535361
-0.000377887
0.000631784
-0.000443688
-0.00050873
0.000742442
2.23016e-07
1.6572e-06
9.71801e-07
4.48387e-06
2.36787e-06
6.88058e-06
4.55105e-06
8.69462e-06
7.68187e-06
9.74809e-06
1.1944e-05
9.83876e-06
1.75469e-05
8.73914e-06
2.47287e-05
6.19471e-06
3.3759e-05
1.92238e-06
4.49426e-05
-4.39094e-06
5.86229e-05
-1.30895e-05
7.51854e-05
-2.45499e-05
9.5062e-05
-3.9182e-05
0.000118735
-5.74294e-05
0.000146744
-7.97703e-05
0.000179689
-0.000106717
0.00021824
-0.000138816
0.000263153
-0.000176645
0.000315288
-0.000220807
0.000375651
-0.000271914
0.000445455
-0.000330537
0.000526219
-0.000397087
0.000619875
-0.000471542
0.000728761
-0.000552574
-0.00063482
0.00085485
2.88167e-07
1.36903e-06
1.24155e-06
3.53049e-06
2.99991e-06
5.12222e-06
5.72317e-06
5.97136e-06
9.59399e-06
5.87727e-06
1.48204e-05
4.61238e-06
2.16385e-05
1.92096e-06
3.03161e-05
-2.48282e-06
4.11552e-05
-8.91674e-06
5.44963e-05
-1.77321e-05
7.07218e-05
-2.9315e-05
9.02597e-05
-4.40879e-05
0.000113588
-6.25102e-05
0.000141238
-8.50795e-05
0.000173799
-0.000112331
0.000211922
-0.00014484
0.000256325
-0.000183219
0.000307801
-0.00022812
0.000367231
-0.000280238
0.000435623
-0.000340305
0.000514176
-0.000409089
0.000604424
-0.000487335
0.000708488
-0.000575607
0.000829417
-0.000673503
-0.000776225
0.000970822
3.56766e-07
1.01226e-06
1.52513e-06
2.36212e-06
3.66367e-06
2.98368e-06
6.95311e-06
2.68192e-06
1.1599e-05
1.23134e-06
1.78348e-05
-1.62342e-06
2.59248e-05
-6.16901e-06
3.61676e-05
-1.27256e-05
4.88998e-05
-2.16489e-05
6.45e-05
-3.33322e-05
8.33927e-05
-4.82077e-05
0.000106053
-6.6748e-05
0.00013301
-8.94669e-05
0.00016485
-0.00011692
0.000202225
-0.000149706
0.000245847
-0.000188462
0.000296497
-0.000233869
0.00035502
-0.000286644
0.000422333
-0.000347551
0.000499431
-0.000417403
0.000587434
-0.000497092
0.00068772
-0.000587622
0.000802266
-0.000690153
0.000934564
-0.0008058
-0.000932646
0.00109098
4.28252e-07
5.84011e-07
1.82023e-06
9.70147e-07
4.35372e-06
4.50187e-07
8.23069e-06
-1.19506e-06
1.36803e-05
-4.21824e-06
2.09619e-05
-8.90505e-06
3.03688e-05
-1.55759e-05
4.22316e-05
-2.45884e-05
5.69226e-05
-3.634e-05
7.48604e-05
-5.127e-05
9.6514e-05
-6.98613e-05
0.000122408
-9.26422e-05
0.000153129
-0.000120187
0.000189326
-0.000153118
0.000231722
-0.000192102
0.000281112
-0.000237852
0.000338364
-0.000291121
0.000404419
-0.0003527
0.000480285
-0.000423416
0.000567013
-0.000504131
0.000665692
-0.000595772
0.000777468
-0.000699398
0.000903664
-0.000816349
0.00104695
-0.000949085
-0.00110402
0.00121833
5.01879e-07
8.2132e-08
2.12383e-06
-6.51799e-07
5.06302e-06
-2.489e-06
9.54288e-06
-5.67492e-06
1.58163e-05
-1.04916e-05
2.41688e-05
-1.72576e-05
3.49227e-05
-2.63298e-05
4.84411e-05
-3.81067e-05
6.5132e-05
-5.3031e-05
8.5454e-05
-7.1592e-05
0.000109921
-9.43286e-05
0.00013911
-0.000121831
0.000173663
-0.000154741
0.0002143
-0.000193755
0.000261821
-0.000239624
0.000317118
-0.000293149
0.000381181
-0.000355183
0.000455105
-0.000426624
0.000540101
-0.000508411
0.000637491
-0.000601521
0.00074871
-0.000706991
0.00087528
-0.000825968
0.00101846
-0.00095953
0.00117796
-0.00110859
-0.00128217
0.00135611
5.76798e-07
-4.94666e-07
2.43249e-06
-2.50749e-06
5.7836e-06
-5.84012e-06
1.08749e-05
-1.07662e-05
1.79827e-05
-1.75994e-05
2.74184e-05
-2.66933e-05
3.95326e-05
-3.8444e-05
5.47196e-05
-5.32937e-05
7.34222e-05
-7.17335e-05
9.61371e-05
-9.4307e-05
0.000123421
-0.000121613
0.000155898
-0.000154307
0.000194266
-0.000193108
0.000239307
-0.000238795
0.000291896
-0.000292213
0.000353019
-0.000354272
0.000423788
-0.000425953
0.000505475
-0.000508311
0.000599557
-0.000602494
0.000707815
-0.000709778
0.000832512
-0.000831688
0.000976778
-0.000970235
0.00114572
-0.00112847
0.00135037
-0.00131324
-0.00154807
0.00161628
6.52165e-07
-1.14683e-06
2.74279e-06
-4.59811e-06
6.5075e-06
-9.60483e-06
1.22119e-05
-1.64706e-05
2.0155e-05
-2.55425e-05
3.0673e-05
-3.72112e-05
4.41432e-05
-5.19143e-05
6.09892e-05
-7.01397e-05
8.16853e-05
-9.24296e-05
0.000106762
-0.000119384
0.000136814
-0.000151665
0.000172505
-0.000189998
0.000214576
-0.000235179
0.000263855
-0.000288075
0.000321273
-0.00034963
0.000387871
-0.00042087
0.000464831
-0.000502912
0.000553501
-0.000596981
0.000655452
-0.000704445
0.000772561
-0.000826888
0.000907137
-0.000966263
0.00106211
-0.00112521
0.00124133
-0.00130769
0.00144897
-0.00152089
-0.00177882
0.00167972
7.27246e-07
-1.87408e-06
3.05171e-06
-6.92257e-06
7.22759e-06
-1.37807e-05
1.35405e-05
-2.27836e-05
2.23111e-05
-3.43131e-05
3.38985e-05
-4.87986e-05
4.87047e-05
-6.67206e-05
6.71792e-05
-8.86142e-05
8.98237e-05
-0.000115074
0.000117197
-0.000146758
0.000149923
-0.000184391
0.000188694
-0.000228769
0.000234279
-0.000280764
0.000287533
-0.000341329
0.000349404
-0.000411502
0.000420948
-0.000492414
0.000503337
-0.000585301
0.000597883
-0.000691527
0.000706057
-0.000812619
0.00082951
-0.000950341
0.000970073
-0.00110683
0.00112968
-0.00128481
0.00131004
-0.00148805
0.00151127
-0.00172212
-0.00199461
0.00172706
8.01486e-07
-2.67556e-06
3.35688e-06
-9.47797e-06
7.93822e-06
-1.83621e-05
1.48501e-05
-2.96955e-05
2.4433e-05
-4.3896e-05
3.70671e-05
-6.14327e-05
5.31762e-05
-8.28296e-05
7.32319e-05
-0.00010867
9.77581e-05
-0.0001396
0.000127336
-0.000176336
0.000162608
-0.000219663
0.000204284
-0.000270445
0.000253145
-0.000329626
0.00031005
-0.000398234
0.000375938
-0.000477389
0.000451831
-0.000568307
0.000538841
-0.000672311
0.000638164
-0.00079085
0.000751069
-0.000925524
0.000878869
-0.00107814
0.00102284
-0.00125079
0.00118401
-0.00144598
0.00136278
-0.00166682
0.0015579
-0.00191724
-0.00220141
0.0017647
8.74523e-07
-3.55009e-06
3.65669e-06
-1.22601e-05
8.63534e-06
-2.33407e-05
1.61326e-05
-3.71928e-05
2.65073e-05
-5.42706e-05
4.01579e-05
-7.50833e-05
5.75268e-05
-0.000100199
7.91036e-05
-0.000130247
0.000105429
-0.000165926
0.0001371
-0.000208006
0.000174768
-0.000257331
0.000219151
-0.000314827
0.000271026
-0.0003815
0.000331235
-0.000458444
0.000400686
-0.00054684
0.000480341
-0.000647963
0.000571216
-0.000763186
0.000674354
-0.000893988
0.000790798
-0.00104197
0.000921526
-0.00120887
0.00106734
-0.00139661
0.00122867
-0.00160731
0.00140524
-0.00184338
0.00159548
-0.00210749
-0.00240185
0.00179593
9.46147e-07
-4.49623e-06
3.95006e-06
-1.5264e-05
9.31619e-06
-2.87068e-05
1.73826e-05
-4.52592e-05
2.85241e-05
-6.54121e-05
4.31553e-05
-8.97145e-05
6.17335e-05
-0.000118777
8.47623e-05
-0.000153276
0.000112794
-0.000193958
0.000146433
-0.000241644
0.000186335
-0.000297234
0.000233212
-0.000361704
0.000287826
-0.000436114
0.00035099
-0.000521608
0.000423561
-0.00061941
0.000506426
-0.000730828
0.000600485
-0.000857246
0.000706625
-0.00100013
0.000825667
-0.00116101
0.000958301
-0.0013415
0.00110497
-0.00154328
0.00126571
-0.00176805
0.00143991
-0.00201758
0.00162598
-0.00229356
-0.00259701
0.00182114
1.01622e-06
-5.51246e-06
4.23627e-06
-1.84841e-05
9.9787e-06
-3.44493e-05
1.85958e-05
-5.38763e-05
3.0476e-05
-7.72924e-05
4.60471e-05
-0.000105286
6.57781e-05
-0.000138508
9.01822e-05
-0.00017768
0.000119818
-0.000223594
0.000155291
-0.000277118
0.000197254
-0.000339196
0.000246403
-0.000410853
0.000303477
-0.000493188
0.000369248
-0.000587379
0.00044451
-0.000694673
0.000530065
-0.000816382
0.000626694
-0.000953875
0.000735126
-0.00110856
0.000855982
-0.00128187
0.000989709
-0.00147523
0.00113648
-0.00169005
0.00129605
-0.00192763
0.00146763
-0.00218916
0.00164966
-0.00247559
-0.00278706
0.0018397
1.08462e-06
-6.59708e-06
4.51456e-06
-2.1914e-05
1.06208e-05
-4.05556e-05
1.97678e-05
-6.30233e-05
3.23555e-05
-8.988e-05
4.88214e-05
-0.000121751
6.9643e-05
-0.000159329
9.53387e-05
-0.000203375
0.000126468
-0.000254723
0.000163633
-0.000314283
0.000207474
-0.000383037
0.000258666
-0.000462045
0.000317914
-0.000552436
0.00038594
-0.000655405
0.00046347
-0.000772203
0.000551213
-0.000904125
0.000649829
-0.00105249
0.000759894
-0.00121862
0.00088185
-0.00140382
0.00101593
-0.00160931
0.0011621
-0.00183621
0.0013199
-0.00208544
0.00148842
-0.00235767
0.00166608
-0.00265325
-0.00297162
0.00185065
1.15113e-06
-7.74821e-06
4.78392e-06
-2.55468e-05
1.124e-05
-4.70117e-05
2.08937e-05
-7.26769e-05
3.41536e-05
-0.00010314
5.14644e-05
-0.000139062
7.33079e-05
-0.000181173
0.000100203
-0.000230271
0.000132707
-0.000287227
0.00017141
-0.000352986
0.000216934
-0.000428562
0.000269928
-0.000515038
0.000331053
-0.000613561
0.000400975
-0.000725327
0.000480344
-0.000851572
0.000569771
-0.000993551
0.000669795
-0.00115251
0.000780846
-0.00132968
0.000903195
-0.00152617
0.0010369
-0.00174301
0.00118171
-0.00198103
0.00133704
-0.00224077
0.00150184
-0.00252247
0.00167453
-0.00282594
-0.00315005
0.00185296
1.21541e-06
-8.96361e-06
5.04289e-06
-2.93743e-05
1.18327e-05
-5.38014e-05
2.19665e-05
-8.28108e-05
3.5859e-05
-0.000117032
5.39585e-05
-0.000157162
7.67473e-05
-0.000203962
0.000104741
-0.000258265
0.000138488
-0.000320973
0.000178562
-0.00039306
0.000225561
-0.000475561
0.000280098
-0.000569575
0.000342787
-0.00067625
0.000414229
-0.000796769
0.000494991
-0.000932335
0.000585584
-0.00108414
0.000686422
-0.00125335
0.000797794
-0.00144105
0.00091981
-0.00164819
0.00105235
-0.00187556
0.00119502
-0.00212369
0.00134707
-0.00239281
0.00150735
-0.00268275
0.00167427
-0.00299286
-0.00332152
0.00184574
1.27698e-06
-1.02406e-05
5.28943e-06
-3.33868e-05
1.23939e-05
-6.09059e-05
2.29772e-05
-9.3394e-05
3.74568e-05
-0.000131512
5.62813e-05
-0.000175986
7.99297e-05
-0.00022761
0.00010891
-0.000287245
0.000143754
-0.000355818
0.000185017
-0.000434323
0.000233265
-0.000523809
0.000289069
-0.000625378
0.000352986
-0.000740167
0.000425548
-0.000869331
0.000507235
-0.00101402
0.00059845
-0.00117536
0.000699485
-0.00135439
0.000810485
-0.00155205
0.000931409
-0.00176911
0.00106198
-0.00200613
0.00120164
-0.00226336
0.00134953
-0.0025407
0.0015044
-0.00283763
0.00166465
-0.00315311
-0.00348512
0.00182825
1.33521e-06
-1.15758e-05
5.52097e-06
-3.75725e-05
1.29179e-05
-6.83028e-05
2.39149e-05
-0.000104391
3.89294e-05
-0.000146526
5.84064e-05
-0.000195463
8.28176e-05
-0.000252021
0.000112658
-0.000317085
0.00014844
-0.000391601
0.000190692
-0.000476574
0.000239942
-0.00057306
0.000296713
-0.000682149
0.0003615
-0.000804954
0.000434758
-0.000942589
0.000516874
-0.00109614
0.000608141
-0.00126663
0.000708726
-0.00145497
0.000818636
-0.00166196
0.00093768
-0.00188816
0.00106543
-0.00213388
0.00120121
-0.00239913
0.00134401
-0.0026835
0.00149255
-0.00298616
0.00164519
-0.00330575
-0.00363993
0.00180001
1.38934e-06
-1.29651e-05
5.73444e-06
-4.19176e-05
1.33974e-05
-7.59658e-05
2.47666e-05
-0.00011576
4.02559e-05
-0.000162016
6.03033e-05
-0.000215511
8.53684e-05
-0.000277086
0.000115928
-0.000347645
0.000152473
-0.000428145
0.000195494
-0.000519596
0.000245479
-0.000623045
0.000302894
-0.000739564
0.000368168
-0.000870228
0.000441672
-0.00101609
0.000523696
-0.00117816
0.000614421
-0.00135735
0.000713888
-0.00155444
0.000821966
-0.00177004
0.000938325
-0.00200451
0.0010624
-0.00225796
0.00119338
-0.00253011
0.00133019
-0.00282031
0.00147147
-0.00312745
0.00161562
-0.0034499
-0.0037851
0.00176078
1.4385e-06
-1.44036e-05
5.92639e-06
-4.64055e-05
1.38247e-05
-8.38641e-05
2.55183e-05
-0.000127454
4.1414e-05
-0.000177912
6.19389e-05
-0.000236036
8.75365e-05
-0.000302684
0.000118662
-0.00037877
0.000155773
-0.000465257
0.000199326
-0.000563149
0.000249758
-0.000673476
0.000307473
-0.000797279
0.000372827
-0.000935583
0.000446105
-0.00108937
0.000527495
-0.00125955
0.000617063
-0.00144692
0.000714727
-0.0016521
0.000820224
-0.00187553
0.000933091
-0.00211738
0.00105264
-0.00237751
0.00117795
-0.00265542
0.00130787
-0.00295023
0.00144103
-0.0032606
0.00157583
-0.00358471
-0.00391984
0.00171057
1.48179e-06
-1.58854e-05
6.09316e-06
-5.10169e-05
1.41915e-05
-9.19624e-05
2.61548e-05
-0.000139417
4.23799e-05
-0.000194137
6.32788e-05
-0.000256935
8.92744e-05
-0.00032868
0.000120795
-0.00041029
0.000158264
-0.000502726
0.000202092
-0.000606977
0.000252661
-0.000724046
0.000310312
-0.00085493
0.000375322
-0.00100059
0.000447882
-0.00116193
0.00052808
-0.00133975
0.000615868
-0.00153471
0.00071104
-0.00174728
0.000813209
-0.0019777
0.000921791
-0.00222596
0.00103599
-0.00249171
0.0011548
-0.00277423
0.001277
-0.00307244
0.00140123
-0.00338483
0.00152596
-0.00370944
-0.00404349
0.00164961
1.51823e-06
-1.74037e-05
6.23097e-06
-5.57296e-05
1.44891e-05
-0.000100221
2.66611e-05
-0.000151589
4.31298e-05
-0.000210605
6.42884e-05
-0.000278093
9.05354e-05
-0.000354927
0.000122267
-0.000442021
0.000159867
-0.000540326
0.000203697
-0.000650807
0.000254081
-0.000774429
0.000311287
-0.000912136
0.00037551
-0.00106482
0.000446851
-0.00123327
0.000525292
-0.00141819
0.000610672
-0.00162009
0.00070267
-0.00183927
0.000800785
-0.00207582
0.00090432
-0.0023295
0.00101239
-0.00259977
0.00112391
-0.00288575
0.00123766
-0.00318618
0.00135227
-0.00349944
0.0014663
-0.00382347
-0.00415551
0.00157833
1.5469e-06
-1.89506e-05
6.33611e-06
-6.05188e-05
1.47094e-05
-0.000108594
2.70223e-05
-0.000163902
4.36406e-05
-0.000227224
6.49349e-05
-0.000299388
9.12749e-05
-0.000381267
0.000123021
-0.000473767
0.000160512
-0.000577818
0.000204058
-0.000694352
0.000253917
-0.000824289
0.000310285
-0.000968504
0.000373273
-0.0011278
0.000442886
-0.00130289
0.000519005
-0.00149431
0.000601361
-0.00170244
0.000689523
-0.00192744
0.000782885
-0.00216918
0.000880658
-0.00242727
0.000981879
-0.00270099
0.00108543
-0.0029893
0.00119007
-0.00329082
0.00129447
-0.00360384
0.0013973
-0.0039263
-0.0042555
0.0014973
1.56687e-06
-2.05174e-05
6.40504e-06
-6.5357e-05
1.48443e-05
-0.000117033
2.72245e-05
-0.000176282
4.38907e-05
-0.00024389
6.51876e-05
-0.000320684
9.14522e-05
-0.000407531
0.000123005
-0.00050532
0.000160137
-0.00061495
0.0002031
-0.000737315
0.000252088
-0.000873276
0.000307218
-0.00102363
0.000368518
-0.0011891
0.000435898
-0.00137027
0.000509139
-0.00156755
0.000587873
-0.00178118
0.000671567
-0.00201113
0.000759522
-0.00225714
0.000850873
-0.00251862
0.000944604
-0.00279473
0.00103957
-0.00308427
0.00113455
-0.0033858
0.00122828
-0.00369758
0.00131955
-0.00401757
-0.0043432
0.00140724
1.57731e-06
-2.20947e-05
6.43449e-06
-7.02142e-05
1.48868e-05
-0.000125485
2.72552e-05
-0.000188651
4.38611e-05
-0.000260496
6.50198e-05
-0.000341843
9.10321e-05
-0.000433543
0.000122175
-0.000536463
0.00015869
-0.000651465
0.000200766
-0.000779392
0.000248529
-0.000921039
0.000302021
-0.00107713
0.000361183
-0.00124826
0.000425834
-0.00143492
0.000495662
-0.00163738
0.000570202
-0.00185572
0.000648834
-0.00208976
0.000730781
-0.00233908
0.000815119
-0.00260296
0.000900797
-0.0028804
0.00098667
-0.00317014
0.00107155
-0.00347068
0.00115426
-0.00378029
0.00123371
-0.00409702
-0.00441845
0.00130897
1.57746e-06
-2.36722e-05
6.4216e-06
-7.50583e-05
1.48305e-05
-0.000133894
2.71035e-05
-0.000200924
4.35354e-05
-0.000276928
6.44089e-05
-0.000362717
8.9986e-05
-0.000459121
0.000120497
-0.000566974
0.00015613
-0.000687097
0.000197012
-0.000820274
0.000243199
-0.000967226
0.000294656
-0.00112858
0.000351239
-0.00130485
0.000412683
-0.00149636
0.000478585
-0.00170328
0.000548397
-0.00192553
0.000621422
-0.00216279
0.000696821
-0.00241448
0.000773627
-0.00267977
0.000850775
-0.00295755
0.000927141
-0.00324651
0.00100159
-0.00354513
0.00107305
-0.00385175
0.00114055
-0.00416452
-0.00448123
0.00120333
1.56669e-06
-2.52389e-05
6.36394e-06
-7.98556e-05
1.46701e-05
-0.000142201
2.67606e-05
-0.000213014
4.29006e-05
-0.000293068
6.33377e-05
-0.000383154
8.82924e-05
-0.000484075
0.000117947
-0.000596628
0.000152432
-0.000721582
0.000191814
-0.000859656
0.000236077
-0.00101149
0.000285111
-0.00117762
0.000338693
-0.00135843
0.000396474
-0.00155414
0.000457972
-0.00176478
0.000522565
-0.00199012
0.000589491
-0.00222971
0.000657865
-0.00248286
0.000726698
-0.0027486
0.000794927
-0.00302578
0.000861468
-0.00331305
0.000925258
-0.00360892
0.000985326
-0.00391181
0.00104084
-0.00422004
-0.0045316
0.00109122
1.54447e-06
-2.67833e-05
6.25963e-06
-8.45707e-05
1.44019e-05
-0.000150343
2.622e-05
-0.000224832
4.19475e-05
-0.000308795
6.17947e-05
-0.000403001
8.59383e-05
-0.000508219
0.00011451
-0.0006252
0.000147585
-0.000754657
0.000185165
-0.000897236
0.000227167
-0.00105349
0.000273406
-0.00122386
0.000323583
-0.00140861
0.000377277
-0.00160784
0.000433931
-0.00182143
0.00049286
-0.00204905
0.000553254
-0.00229011
0.000614197
-0.0025438
0.000674691
-0.00280909
0.000733699
-0.00308479
0.000790187
-0.00336954
0.000843179
-0.00366192
0.000891818
-0.00396045
0.000935414
-0.00426363
-0.00456971
0.000973521
1.51044e-06
-2.82938e-05
6.10735e-06
-8.91676e-05
1.4023e-05
-0.000158258
2.54776e-05
-0.000236287
4.06711e-05
-0.000323989
5.97742e-05
-0.000422104
8.29188e-05
-0.000531363
0.000110186
-0.000652467
0.000141592
-0.000786064
0.000177079
-0.000932722
0.000216495
-0.00109291
0.000259587
-0.00126695
0.000305985
-0.001455
0.000355198
-0.00165705
0.000406611
-0.00187284
0.000459485
-0.00210192
0.000512975
-0.0023436
0.000566148
-0.00259697
0.000618017
-0.00286096
0.000667581
-0.00313435
0.000713873
-0.00341583
0.000756013
-0.00370406
0.000793262
-0.0039977
0.000825067
-0.00429544
-0.00459576
0.00085112
1.46437e-06
-2.97582e-05
5.9064e-06
-9.36097e-05
1.35324e-05
-0.000165885
2.45322e-05
-0.000247287
3.90702e-05
-0.000338527
5.72769e-05
-0.000440311
7.9238e-05
-0.000553325
0.000104983
-0.000678212
0.000134473
-0.000815554
0.000167588
-0.000965837
0.000204112
-0.00112943
0.000243728
-0.00130656
0.000286002
-0.00149728
0.000330383
-0.00170143
0.000376203
-0.00191866
0.000422685
-0.00214841
0.00046896
-0.00238987
0.000514094
-0.00264211
0.000557124
-0.00290399
0.000597097
-0.00317433
0.000633125
-0.00345186
0.000664431
-0.00373536
0.000690395
-0.00402367
0.000710597
-0.00431564
-0.00461002
0.000724856
1.4062e-06
-3.11644e-05
5.65671e-06
-9.78602e-05
1.29303e-05
-0.000173158
2.33848e-05
-0.000257741
3.71482e-05
-0.00035229
5.43096e-05
-0.000457472
7.49084e-05
-0.000573923
9.89233e-05
-0.000702227
0.00012626
-0.00084289
0.00015674
-0.000996317
0.00019009
-0.00116278
0.000225929
-0.0013424
0.000263768
-0.00153512
0.000303005
-0.00174067
0.000342931
-0.00195859
0.000382739
-0.00218821
0.000421551
-0.00242869
0.000458443
-0.002679
0.000492487
-0.00293804
0.000522792
-0.00320463
0.000548554
-0.00347762
0.000569102
-0.00375591
0.000583939
-0.0040385
0.00059277
-0.00432447
-0.00461278
0.000595528
1.33601e-06
-3.25004e-05
5.35886e-06
-0.000101883
1.22184e-05
-0.000180018
2.20394e-05
-0.000267562
3.49126e-05
-0.000365163
5.08853e-05
-0.000473445
6.9951e-05
-0.000592989
9.20386e-05
-0.000724315
0.000117001
-0.000867853
0.000144605
-0.00102392
0.00017452
-0.0011927
0.000206313
-0.0013742
0.000239445
-0.00156825
0.00027327
-0.00177449
0.000307049
-0.00199237
0.000339958
-0.00222112
0.000371118
-0.00245985
0.000399629
-0.00270751
0.000424605
-0.00296301
0.000445224
-0.00322525
0.000460772
-0.00349317
0.000470689
-0.00376583
0.000474594
-0.00404241
0.000472312
-0.00432219
-0.00460435
0.000463882
1.25406e-06
-3.37544e-05
5.01405e-06
-0.000105643
1.13998e-05
-0.000186403
2.05024e-05
-0.000276665
3.23748e-05
-0.000377036
4.70228e-05
-0.000488093
6.43949e-05
-0.000610361
8.43717e-05
-0.000744292
0.000106756
-0.000890237
0.000131263
-0.00104843
0.000157512
-0.00121895
0.000185023
-0.00140171
0.000213213
-0.00159644
0.000241406
-0.00180269
0.000268837
-0.0020198
0.000294676
-0.00224696
0.000318055
-0.00248323
0.000338103
-0.00272756
0.000353986
-0.00297889
0.000364955
-0.00323622
0.000370389
-0.0034986
0.000369834
-0.00376527
0.000363026
-0.0040356
0.000349904
-0.00430907
-0.00458505
0.000330605
1.16075e-06
-3.49152e-05
4.6241e-06
-0.000109106
1.04792e-05
-0.000192259
1.87827e-05
-0.000284968
2.95502e-05
-0.000387803
4.27464e-05
-0.000501289
5.82762e-05
-0.000625891
7.59744e-05
-0.00076199
9.55966e-05
-0.000909859
0.000116811
-0.00106964
0.000139193
-0.00124133
0.00016222
-0.00142473
0.000185277
-0.0016195
0.000207661
-0.00182507
0.000228593
-0.00204073
0.000247247
-0.00226562
0.000262771
-0.00249875
0.00027433
-0.00273912