/*--------------------------------*- C++ -*----------------------------------*\
  =========                 |
  \\      /  F ield         | OpenFOAM: The Open Source CFD Toolbox
   \\    /   O peration     | Website:  https://openfoam.org
    \\  /    A nd           | Version:  7
     \\/     M anipulation  |
\*---------------------------------------------------------------------------*/
FoamFile
{
    version     2.0;
    format      ascii;
    class       surfaceScalarField;
    location    "21";
    object      phi;
}
// * * * * * * * * * * * * * * * * * * * * * * * * * * * * * * * * * * * * * //

dimensions      [0 3 -1 0 0 0 0];

internalField   nonuniform List<scalar> 
804
(
0.00121434
0.00156214
0.0017352
0.000793088
0.000906154
0.00088334
0.00102489
0.000980957
0.00115471
0.00108596
0.00129622
0.0011982
0.0014499
0.00131733
0.00161606
0.00179585
0.000491808
0.000476851
0.000550229
0.000550927
0.00061629
0.000633086
0.000690062
0.000724049
0.000771654
0.000824562
0.000861165
0.000935377
0.00095865
0.00105723
0.00106407
0.0011908
0.00117727
0.0013367
0.00129792
0.00149542
0.00142544
0.00166833
0.00185691
0.000334517
0.000233322
0.000357734
0.000273833
0.000388633
0.000319498
0.000427702
0.000371127
0.000475062
0.000429491
0.00053069
0.000495299
0.000594548
0.000569228
0.000666638
0.000651958
0.00074701
0.00074419
0.000835733
0.000846654
0.000932854
0.000960105
0.00103835
0.0010853
0.00115209
0.00122296
0.00127377
0.00137374
0.00140285
0.00153925
0.00172109
0.00014913
7.85181e-05
0.000182215
0.000100933
0.000212722
0.00013369
0.000242515
0.000167357
0.000273986
0.000201851
0.000308824
0.000238995
0.00034823
0.000280092
0.000393055
0.000326303
0.00044395
0.000378596
0.000501458
0.000437791
0.000566061
0.000504626
0.000638198
0.000579821
0.000718265
0.000664122
0.000806601
0.000758319
0.000903455
0.000863252
0.00100895
0.000979802
0.00112305
0.00110886
0.00124552
0.00125127
0.0013758
0.00140897
0.00158359
0.00151331
0.000284339
0.000709716
0.000137185
0.000377918
6.32418e-05
0.000190218
3.80705e-05
0.000101393
4.42381e-05
7.23505e-05
6.92549e-05
7.59167e-05
0.000109624
9.33213e-05
0.000155295
0.000121686
0.000202579
0.000154568
0.000250826
0.000190748
0.000300482
0.000230436
0.00035249
0.000274296
0.000407973
0.000323113
0.000468071
0.000377693
0.000533845
0.000438852
0.000606238
0.000507428
0.000686058
0.000584301
0.00077397
0.000670407
0.000870478
0.000766745
0.000975894
0.000874385
0.0010903
0.000994451
0.00121351
0.00112807
0.00134492
0.00127756
0.00144463
0.00148388
-0.00093302
0.00222508
-0.000253913
0.00193773
0.000120925
0.00150337
0.000292
0.00104945
0.000324569
0.000677146
0.000291248
0.000411239
0.000239948
0.000241519
0.000196136
0.000145205
0.000169495
9.89918e-05
0.00016092
8.44917e-05
0.000167467
8.67733e-05
0.000186541
0.000102612
0.000214184
0.000126925
0.000248418
0.000156514
0.000288248
0.000190606
0.000333389
0.000229154
0.000384002
0.000272501
0.000440519
0.000321176
0.000503534
0.000375837
0.000573712
0.000437249
0.000651736
0.000506277
0.000738255
0.000583889
0.000833828
0.000671171
0.000938865
0.000769348
0.00105353
0.000879787
0.00117762
0.00100397
0.00131038
0.0011448
0.00130415
0.00145086
-0.00917072
-0.00205464
-0.00788188
-0.00133435
-0.00605629
-0.000450698
-0.00420607
0.000266042
-0.00266896
0.000687964
-0.0015601
0.000828871
-0.00082639
0.000769667
-0.000381083
0.000604143
-0.000130304
0.000426367
7.62014e-06
0.000273315
8.38962e-05
0.000165243
0.000127215
0.000101886
0.000153526
7.26806e-05
0.000172098
6.59193e-05
0.000186829
7.20424e-05
0.000202125
8.7316e-05
0.000221872
0.000107178
0.000247105
0.000131281
0.000278499
0.000159212
0.000316401
0.000191252
0.000361051
0.000227852
0.000412715
0.000269511
0.000471751
0.000316801
0.000538622
0.000370378
0.000613894
0.000431006
0.000698203
0.000499581
0.000792198
0.000577176
0.000896451
0.000665095
0.00101131
0.00076493
0.00113666
0.000878629
0.00127146
0.00101
0.00116157
0.00141403
0.00680647
0.000784095
0.00719398
0.000589334
0.00687486
5.9904e-05
0.00580992
-0.000433832
0.00428992
-0.000661078
0.00277413
-0.000538849
0.00154856
-0.000108779
0.00066081
0.000437056
4.54739e-05
0.000881378
-0.000351633
0.00108507
-0.000552344
0.00102958
-0.000579979
0.000797302
-0.000505204
0.000529368
-0.000372411
0.000293575
-0.000230253
0.000131157
-0.000107353
4.23429e-05
-1.3124e-05
7.65743e-06
5.41945e-05
5.36184e-06
0.000100702
1.94113e-05
0.000133381
3.93641e-05
0.000160612
6.00852e-05
0.000187703
8.00866e-05
0.000215965
0.000103018
0.00024828
0.000126897
0.000285688
0.000153844
0.000328834
0.000184707
0.000378271
0.000220073
0.000434583
0.000260489
0.000498431
0.00030653
0.000570584
0.000358853
0.000651917
0.000418248
0.000743386
0.000485706
0.000845969
0.000562512
0.000960513
0.000650386
0.00108741
0.000751737
0.00122557
0.000871836
0.00101549
0.00137166
-0.000804969
-0.000565631
-0.00123442
-0.000899021
-7.09019e-05
-0.00108796
0.00247697
-0.00176377
0.00561368
-0.00254738
0.00847406
-0.00280048
0.0103735
-0.00233332
0.0109614
-0.00124896
0.0102443
0.000178259
0.00859445
0.0015411
0.00651262
0.00251888
0.00446803
0.00292597
0.00277493
0.00277817
0.00154902
0.00225549
0.000751705
0.00159462
0.000296531
0.000984543
7.21776e-05
0.000517929
-2.18247e-05
0.000225159
-4.88972e-05
6.94154e-05
-4.06862e-05
-5.53566e-07
-1.56828e-05
-1.96417e-05
1.7305e-05
-1.35766e-05
5.38407e-05
2.82831e-06
9.12962e-05
2.26294e-05
0.000127995
4.33869e-05
0.000166205
6.4809e-05
0.000205202
8.78998e-05
0.000246264
0.000112783
0.000290491
0.00014048
0.000338994
0.00017157
0.000392867
0.000206616
0.000453206
0.000246192
0.000521144
0.000290915
0.000597898
0.000341494
0.00068482
0.000398785
0.000783436
0.000463896
0.000895444
0.000538379
0.00102248
0.000624698
0.00116455
0.000729771
0.000861922
0.00131812
-0.00196305
0.00139742
-0.00452774
0.00166566
-0.00577447
0.000158782
-0.00579112
-0.00174713
-0.00507079
-0.00326771
-0.0037387
-0.00413257
-0.00201348
-0.00405853
-0.000338457
-0.00292399
0.000892288
-0.00105249
0.00147855
0.000954833
0.00155361
0.00244382
0.00137658
0.00310299
0.00113799
0.00301677
0.000908278
0.0024852
0.000684811
0.00181808
0.000484755
0.0011846
0.000313006
0.000689678
0.000183256
0.000354909
9.96523e-05
0.000153019
5.38934e-05
4.52052e-05
3.75901e-05
-3.33844e-06
4.19963e-05
-1.79826e-05
5.97039e-05
-1.48791e-05
8.54992e-05
-3.16609e-06
0.00011553
1.33557e-05
0.000147602
3.27381e-05
0.000182321
5.31807e-05
0.000219146
7.59583e-05
0.000258857
0.000100769
0.000302416
0.000128011
0.000350828
0.000158205
0.00040512
0.0001919
0.000466359
0.000229675
0.000535704
0.00027215
0.000614482
0.000320006
0.000704332
0.000374046
0.000807387
0.000435323
0.000926564
0.000505521
0.00106756
0.000588772
0.00123952
-1.63651e-05
-0.000527242
-0.00196981
-0.00426938
-0.00688608
-0.00907863
-0.00194002
-0.0102334
-0.00290376
-0.0101141
-0.00304324
-0.0089714
-0.00219523
-0.00718087
-0.000835692
-0.00515486
0.0004178
-0.00325413
0.00120227
-0.00172614
0.00148879
-0.000665289
0.00142435
-3.28294e-05
0.00118562
0.000273199
0.000878569
0.000373644
0.000589234
0.000367751
0.000360802
0.000322793
0.000197977
0.000270751
9.72472e-05
0.000226266
4.11469e-05
0.000194075
1.42085e-05
0.000174299
4.89642e-06
0.000165147
5.98615e-06
0.000165257
1.32456e-05
0.000173618
2.43768e-05
0.000188569
3.82291e-05
0.000210001
5.45269e-05
0.000237525
7.32436e-05
0.000270974
9.45631e-05
0.000310411
0.000118768
0.000356079
0.000146232
0.000408371
0.000177384
0.000467809
0.000212712
0.000535042
0.000252773
0.000610871
0.000298218
0.000696334
0.000349861
0.000793006
0.000408849
-0.00149204
-0.00368707
-0.00525289
-0.00583147
-0.00545905
-0.00120812
-0.00448491
-0.000556332
-0.00333617
5.35177e-05
-0.00230949
0.000462106
-0.00151287
0.000627733
-0.000920879
0.00059363
-0.000509826
0.000467516
-0.000231921
0.000311329
-4.82267e-05
0.000177108
6.39977e-05
8.57527e-05
0.000125735
3.55102e-05
0.000154729
1.21526e-05
0.00016378
5.15729e-06
0.000162967
5.70944e-06
0.000159583
9.37078e-06
0.000158279
1.45491e-05
0.000161597
2.10591e-05
0.000170642
2.91844e-05
0.000185767
3.9402e-05
0.000206944
5.20666e-05
0.000234048
6.74591e-05
0.000266982
8.58342e-05
0.000305758
0.000107455
0.000350514
0.000132627
0.000401525
0.000161701
0.000459201
0.000195096
0.000524123
0.000233295
0.000597168
0.00610212
0.00427123
0.00267634
0.00143768
0.00059572
0.00146969
0.000111634
0.00107772
-9.52876e-05
0.000674438
-0.000143757
0.000359798
-0.000116853
0.000150203
-6.61163e-05
3.50167e-05
-1.61305e-05
-1.44752e-05
2.28522e-05
-2.683e-05
4.84906e-05
-2.04808e-05
6.59585e-05
-1.17585e-05
7.95187e-05
-4.18945e-06
9.22252e-05
1.84253e-06
0.00010612
7.16369e-06
0.000122257
1.30471e-05
0.000141349
2.03098e-05
0.000163867
2.95491e-05
0.000190154
4.11721e-05
0.000220518
5.5471e-05
0.000255283
7.26912e-05
0.00029483
9.30798e-05
0.000339616
0.000116916
0.00039021
0.000144502
0.00169664
0.000951585
0.000468073
0.000174147
1.05172e-05
0.000313833
-6.7823e-05
0.000113357
-9.56956e-05
1.33972e-05
-9.42097e-05
-2.83158e-05
-7.43525e-05
-4.03378e-05
-4.6479e-05
-3.96322e-05
-1.63799e-05
-3.42889e-05
1.30419e-05
-2.75793e-05
4.08738e-05
-2.06681e-05
6.73749e-05
-1.34541e-05
9.32356e-05
-5.55094e-06
0.000119327
3.45739e-06
0.000146554
1.39446e-05
0.00017577
2.62549e-05
0.000207768
4.06929e-05
0.000243287
5.75611e-05
0.000283054
7.71481e-05
0.000190966
0.000113568
5.33976e-05
1.52997e-05
9.78204e-06
-2.16651e-06
-2.28716e-05
-3.64613e-06
-3.81524e-05
4.45325e-06
-4.23881e-05
1.77907e-05
-4.09167e-05
3.40578e-05
-3.69351e-05
5.21157e-05
-3.15118e-05
7.15612e-05
-2.49962e-05
9.24333e-05
-1.74141e-05
0.000115029
-8.65065e-06
0.000139794
1.48957e-06
0.000167245
1.3242e-05
0.000197947
2.6859e-05
7.77881e-05
6.69053e-05
5.66119e-05
4.96501e-05
4.71294e-05
-3.8396e-05
4.88757e-05
-3.86815e-05
5.45332e-05
-3.71691e-05
6.37385e-05
-3.42017e-05
7.62431e-05
-2.9919e-05
9.18805e-05
-2.42881e-05
0.000110624
-1.72541e-05
0.000132574
-8.70758e-06
3.46454e-05
3.67144e-05
4.05621e-05
4.68904e-05
-4.05298e-05
5.59324e-05
-3.8961e-05
6.77996e-05
-3.61552e-05
8.25334e-05
-3.1988e-05
1.89619e-05
2.94774e-05
4.10158e-05
-0.00179253
0.00463976
-0.00168005
0.00437101
-0.00163862
0.0040991
-0.0015817
-0.00150311
0.00459726
0.00433564
0.00407125
0.00380523
0.00353826
0.00327467
)
;

boundaryField
{
    inlet
    {
        type            calculated;
        value           nonuniform 0();
    }
    outlet
    {
        type            calculated;
        value           nonuniform 0();
    }
    cylinder
    {
        type            calculated;
        value           uniform 0;
    }
    top
    {
        type            symmetryPlane;
        value           nonuniform 0();
    }
    bottom
    {
        type            symmetryPlane;
        value           nonuniform 0();
    }
    defaultFaces
    {
        type            empty;
        value           nonuniform 0();
    }
    procBoundary9to3
    {
        type            processor;
        value           nonuniform List<scalar> 
16
(
0.00133128
-0.00192128
0.00144276
-0.00199062
0.00155914
0.00153867
0.00207904
0.00194575
0.00190737
-0.00494149
0.00185361
0.00177033
0.0017455
-0.00490546
0.00171524
-0.00485428
)
;
    }
    procBoundary9to8
    {
        type            processor;
        value           nonuniform List<scalar> 
17
(
-0.00167272
-0.00185213
-0.000989222
-0.00111514
-0.00125233
-0.00110376
-0.00140122
-0.000527632
-0.000609347
-0.000699147
-0.000710019
-0.000797821
-0.000250065
-0.00029705
-0.000350397
-0.000441027
-0.000410197
)
;
    }
    procBoundary9to10
    {
        type            processor;
        value           nonuniform List<scalar> 
12
(
0.00068996
0.000901876
0.000479903
0.000276816
0.00067996
0.000326056
0.000447362
0.000176144
0.00032784
0.00465498
0.00380969
0.00301109
)
;
    }
    procBoundary9to14
    {
        type            processor;
        value           nonuniform List<scalar> 
30
(
-0.000116478
-0.000134019
-0.000164197
-0.000317774
-0.00019715
-0.000454865
-0.000230764
-0.000116275
-0.000111171
-7.62217e-05
-0.0032219
-0.00261684
-0.00187821
-0.000539189
-0.00122053
0.00180313
4.55006e-05
-0.00137489
0.00192984
-0.00211626
-0.00172051
-0.000976843
0.000259221
0.00149877
0.00942223
0.00218108
0.0013706
0.00132847
-0.00587006
-7.55628e-05
)
;
    }
    procBoundary9to15
    {
        type            processor;
        value           nonuniform List<scalar> 
37
(
0.00141379
0.00217654
0.00160135
0.000552433
-0.000651009
-0.000867676
0.000419702
-0.000708732
-0.00147743
-0.00161665
-0.00797283
0.000662598
0.00127456
0.00164841
0.00170077
-0.0027705
0.00254355
0.00182277
0.00115795
0.000653724
-0.000265796
0.000388662
0.000190756
7.35672e-05
-8.65517e-05
1.85462e-05
-1.19886e-05
-2.78591e-05
-3.5426e-05
-3.29092e-05
-4.01311e-05
-4.07503e-05
-4.1017e-05
-8.96622e-06
-5.05268e-05
-4.94766e-05
-4.76932e-05
)
;
    }
    procBoundary9to16
    {
        type            processor;
        value           nonuniform List<scalar> 9(9.97172e-05 0.000232517 4.2579e-05 0.000157955 1.47941e-06 0.000100219 -2.63927e-05 5.40267e-05 -4.50004e-05);
    }
}


// ************************************************************************* //
