/*--------------------------------*- C++ -*----------------------------------*\
  =========                 |
  \\      /  F ield         | OpenFOAM: The Open Source CFD Toolbox
   \\    /   O peration     | Website:  https://openfoam.org
    \\  /    A nd           | Version:  7
     \\/     M anipulation  |
\*---------------------------------------------------------------------------*/
FoamFile
{
    version     2.0;
    format      ascii;
    class       volScalarField;
    location    "20";
    object      p;
}
// * * * * * * * * * * * * * * * * * * * * * * * * * * * * * * * * * * * * * //

dimensions      [0 2 -2 0 0 0 0];

internalField   nonuniform List<scalar> 
435
(
-5.95609
-5.47283
-5.55997
-5.62953
-5.69102
-5.74512
-5.30591
-5.38114
-5.44095
-5.49405
-5.54077
-5.14088
-5.20589
-5.25744
-5.30344
-5.34392
-4.97918
-5.03543
-5.07999
-5.11995
-5.15518
-4.82194
-4.87066
-4.90928
-4.94412
-4.97488
-4.66998
-4.71223
-4.74579
-4.77624
-4.8032
-4.52388
-4.56056
-4.5898
-4.61648
-4.64017
-4.38407
-4.41593
-4.44147
-4.46489
-4.48576
-4.25082
-4.27851
-4.30084
-4.32144
-4.33985
-4.12429
-4.14836
-4.16791
-4.18603
-4.20229
-4.00456
-4.02546
-4.04258
-4.05852
-4.07286
-3.89162
-3.90975
-3.92473
-3.93874
-3.95138
-3.78543
-3.80112
-3.81423
-3.82651
-3.83763
-3.68591
-3.69946
-3.71089
-3.72163
-3.73137
-3.59295
-3.60461
-3.61455
-3.6239
-3.63239
-3.50643
-3.51642
-3.52501
-3.53311
-3.54048
-3.42622
-3.43472
-3.44212
-3.44908
-3.45542
-3.35218
-3.35936
-3.36568
-3.37162
-3.37703
-3.28419
-3.2902
-3.29555
-3.30057
-3.30513
-3.22212
-3.22711
-3.23159
-3.23577
-3.23956
-3.16591
-3.16997
-3.17368
-3.17712
-3.18022
-3.11546
-3.11873
-3.12175
-3.12452
-3.12701
-3.07077
-3.07334
-3.07575
-3.07793
-3.07987
-3.03183
-3.0338
-3.03569
-3.03736
-3.03881
-2.9987
-3.00017
-3.00161
-3.00284
-3.00389
-2.97153
-2.97258
-2.97365
-2.97452
-2.97523
-2.95052
-2.95126
-2.95203
-2.95262
-2.95306
-2.93601
-2.93651
-2.93708
-2.93747
-2.93772
-2.92845
-2.92883
-2.92929
-2.92956
-2.92971
-1.27355
-1.55355
-1.93763
-2.40936
-2.95029
-3.53434
-4.13164
-4.70805
-5.22824
-1.21334
-1.3733
-1.65337
-2.03321
-2.49331
-3.01213
-3.56181
-4.112
-4.63189
-5.09202
-1.31127
-1.47153
-1.74998
-2.12327
-2.56903
-3.06323
-3.57708
-4.08094
-4.54781
-4.95389
-1.40826
-1.56788
-1.84305
-2.20756
-2.63659
-3.1042
-3.58153
-4.04049
-4.45814
-4.81574
-1.50395
-1.66199
-1.93223
-2.28591
-2.69615
-3.13576
-3.57652
-3.99254
-4.36482
-4.6791
-1.59796
-1.75348
-2.01725
-2.35824
-2.74798
-3.1587
-3.5634
-3.93877
-4.26951
-4.54516
-1.68992
-1.84204
-2.09786
-2.42452
-2.79244
-3.17385
-3.54343
-3.88067
-4.17357
-4.41485
-1.77948
-1.92733
-2.17387
-2.4848
-2.82995
-3.18206
-3.51783
-3.81955
-4.07815
-4.2889
-1.86629
-2.00907
-2.24514
-2.53921
-2.86098
-3.18418
-3.4877
-3.75656
-3.98415
-4.16781
-1.95002
-2.08701
-2.31158
-2.58791
-2.88604
-3.18103
-3.45405
-3.69267
-3.89234
-4.05199
-2.03035
-2.16092
-2.37314
-2.63113
-2.90567
-3.17342
-3.41782
-3.62874
-3.80332
-3.9417
-2.107
-2.23061
-2.42984
-2.66915
-2.92042
-3.1621
-3.3798
-3.56546
-3.71755
-3.8371
-2.17973
-2.29596
-2.48171
-2.70226
-2.93083
-3.14777
-3.34073
-3.50344
-3.63541
-3.73829
-2.24831
-2.35684
-2.52887
-2.7308
-2.93744
-3.13108
-3.30124
-3.44317
-3.55718
-3.64531
-2.31258
-2.41321
-2.57144
-2.75511
-2.94077
-3.11262
-3.26188
-3.38507
-3.48306
-3.55815
-2.3724
-2.46506
-2.60958
-2.77555
-2.94133
-3.09294
-3.22314
-3.32946
-3.4132
-3.47679
-2.42768
-2.51239
-2.6435
-2.79248
-2.93957
-3.07252
-3.18542
-3.27663
-3.34773
-3.40115
-2.47838
-2.55529
-2.67342
-2.80626
-2.93594
-3.05181
-3.14908
-3.22681
-3.2867
-3.33117
-2.52449
-2.59384
-2.69956
-2.81726
-2.93086
-3.03119
-3.11444
-3.18017
-3.23017
-3.26677
-2.56604
-2.62818
-2.7222
-2.82583
-2.92472
-3.01103
-3.08176
-3.13688
-3.17818
-3.20789
-2.60311
-2.65845
-2.74158
-2.8323
-2.91788
-2.99165
-3.05129
-3.09708
-3.13077
-3.15447
-2.63577
-2.68483
-2.75798
-2.837
-2.91067
-2.97333
-3.02325
-3.0609
-3.08799
-3.10648
-2.66416
-2.7075
-2.77166
-2.84025
-2.90341
-2.95637
-2.99784
-3.02847
-3.04988
-3.06391
-2.68839
-2.72664
-2.78286
-2.84235
-2.8964
-2.94102
-2.97528
-2.99993
-3.01654
-3.02678
-2.70857
-2.74243
-2.79184
-2.84356
-2.88993
-2.92754
-2.95578
-2.97546
-2.98807
-2.99518
-2.7248
-2.75502
-2.7988
-2.84416
-2.88425
-2.91619
-2.93956
-2.95525
-2.96465
-2.96924
-2.73712
-2.7645
-2.80391
-2.84436
-2.87963
-2.90723
-2.9269
-2.93954
-2.9465
-2.94918
-2.74552
-2.77092
-2.80731
-2.84436
-2.87632
-2.90094
-2.91807
-2.92864
-2.93395
-2.93533
-2.74985
-2.77423
-2.80903
-2.84431
-2.87456
-2.89763
-2.91345
-2.92294
-2.9274
-2.92811
)
;

boundaryField
{
    inlet
    {
        type            zeroGradient;
    }
    outlet
    {
        type            fixedValue;
        value           nonuniform 0();
    }
    cylinder
    {
        type            zeroGradient;
    }
    top
    {
        type            symmetryPlane;
    }
    bottom
    {
        type            symmetryPlane;
    }
    defaultFaces
    {
        type            empty;
    }
    procBoundary30to24
    {
        type            processor;
        value           nonuniform List<scalar> 
17
(
-6.17232
-5.63973
-5.74074
-5.82181
-5.89321
-5.89321
-1.17268
-1.45094
-1.83684
-2.31725
-2.87722
-3.49336
-4.13764
-4.77359
-5.36014
-1.11483
-1.11483
)
;
    }
    procBoundary30to31
    {
        type            processor;
        value           nonuniform List<scalar> 
30
(
-6.01408
-5.79496
-5.58378
-5.38122
-5.18766
-5.00328
-4.82811
-4.6621
-4.50511
-4.35695
-4.21739
-4.08621
-3.96316
-3.84798
-3.74044
-3.6403
-3.54732
-3.4613
-3.38202
-3.30931
-3.24302
-3.18302
-3.12921
-3.08156
-3.04004
-3.00473
-2.97574
-2.95332
-2.93779
-2.92969
)
;
    }
}


// ************************************************************************* //
