/*--------------------------------*- C++ -*----------------------------------*\
  =========                 |
  \\      /  F ield         | OpenFOAM: The Open Source CFD Toolbox
   \\    /   O peration     | Website:  https://openfoam.org
    \\  /    A nd           | Version:  7
     \\/     M anipulation  |
\*---------------------------------------------------------------------------*/
FoamFile
{
    version     2.0;
    format      ascii;
    class       surfaceScalarField;
    location    "3.000466";
    object      phi;
}
// * * * * * * * * * * * * * * * * * * * * * * * * * * * * * * * * * * * * * //

dimensions      [0 3 -1 0 0 0 0];

internalField   nonuniform List<scalar> 
11438
(
-0.000186775
0.000461106
-0.000380964
0.000512063
-0.000589558
0.000612077
-0.000818758
0.000757495
0.000943161
0.000548449
-8.73439e-05
0.0006393
-9.08515e-05
0.000734739
-9.54404e-05
0.000835389
-0.000100651
0.000941647
-0.000106259
0.00105379
-0.000112149
0.00117199
-0.000118197
0.00129627
-0.000124283
0.00142656
-0.00013029
0.00156267
-0.000136109
0.0017043
-0.000141631
0.00185105
-0.00014675
0.00200241
-0.000151363
0.00215778
-0.000155374
0.00231647
-0.000158693
0.00247771
-0.000161241
0.00264066
-0.000162951
0.00280443
-0.000163769
0.00296808
-0.000163658
0.00313068
-0.000162597
0.00329126
-0.000160585
0.0034489
-0.000157637
0.00360269
-0.000153788
0.00375178
-0.000149091
0.00389539
-0.000143615
0.00403284
-0.000137444
0.00416351
-0.000130676
0.00428693
-0.00012342
0.00440273
-0.000115793
0.00451064
-0.000107916
0.00461055
-9.99125e-05
0.00470246
-9.19028e-05
0.00478646
-8.40001e-05
0.00486277
-7.63074e-05
0.00493168
-6.89134e-05
0.00499357
-6.18905e-05
0.00504886
-5.52926e-05
0.00509802
-4.9155e-05
0.00514151
-4.3495e-05
0.00517983
-3.83136e-05
0.00521343
-3.35985e-05
0.00524276
-2.9327e-05
0.00526822
-2.54695e-05
0.00529022
-2.19922e-05
0.00530908
-1.886e-05
0.00532512
-1.60382e-05
0.00533861
-1.34935e-05
0.00534981
-1.11949e-05
0.00535892
-9.11411e-06
0.00536615
-7.22529e-06
-2.69703e-10
0.00537165
-5.50514e-06
-2.58092e-10
0.00537558
-3.93289e-06
-2.47557e-10
0.00537807
-2.48994e-06
-2.3731e-10
0.00537923
-1.15975e-06
-2.27338e-10
0.00537916
7.67448e-08
-2.13599e-10
0.00537794
1.21796e-06
-2.08041e-10
0.00537565
2.28777e-06
-1.98835e-10
0.00537236
3.29125e-06
-1.89533e-10
0.00536812
4.2366e-06
-1.80397e-10
0.00536299
5.13042e-06
-1.71924e-10
0.00535702
5.97871e-06
-1.6332e-10
0.00535023
6.78642e-06
-1.54476e-10
0.00534267
7.55828e-06
-1.466e-10
0.00533437
8.29783e-06
-1.38644e-10
0.00532537
9.00872e-06
-1.30226e-10
0.00531567
9.69488e-06
-1.21829e-10
0.00530532
1.0354e-05
-1.13762e-10
0.00529431
1.10076e-05
-1.05115e-10
0.00528271
1.15952e-05
-9.80505e-11
1.23159e-05
-8.65112e-11
0.000598107
-0.000173388
0.000687672
-0.000180417
0.000781823
-0.000189591
0.000881135
-0.000199963
0.000985981
-0.000211105
0.00109663
-0.000222798
0.00121324
-0.000234806
0.00133584
-0.000246888
0.00146437
-0.000258817
0.00159864
-0.000270374
0.00173835
-0.000281344
0.00188311
-0.000291515
0.00203244
-0.000300685
0.00218572
-0.000308661
0.00234229
-0.000315265
0.00250139
-0.00032034
0.0026622
-0.000323752
0.00282382
-0.000325396
0.00298536
-0.000325196
0.00314588
-0.000323114
0.00330444
-0.000319145
0.00346012
-0.000313321
0.00361204
-0.000305709
0.00375937
-0.000296415
0.00390132
-0.000285573
0.00403723
-0.000273351
0.0041665
-0.000259943
0.00428864
-0.000245563
0.00440329
-0.000230443
0.0045102
-0.000214823
0.00460923
-0.000198948
0.00470039
-0.000183054
0.00478375
-0.000167367
0.00485954
-0.000152092
0.00492803
-0.000137404
0.00498959
-0.000123449
0.00504463
-0.000110333
0.0050936
-9.81274e-05
0.00513697
-8.68673e-05
0.00517521
-7.65557e-05
0.00520878
-6.71685e-05
0.00523812
-5.86614e-05
0.00526362
-5.0976e-05
0.00528568
-4.4046e-05
0.00530462
-3.78018e-05
0.00532076
-3.21748e-05
0.00533436
-2.7099e-05
0.00534568
-2.25134e-05
0.00535493
-1.83614e-05
0.00536229
-1.45919e-05
0.00536795
-1.11587e-05
0.00537203
-8.02038e-06
0.00537468
-5.14013e-06
0.00537601
-2.48526e-06
0.0053761
-1.6481e-08
0.00537506
2.26095e-06
0.00537295
4.39644e-06
0.00536984
6.39897e-06
0.0053658
8.28539e-06
0.00536086
1.00688e-05
0.00535507
1.17611e-05
0.00534849
1.33722e-05
0.00534114
1.49116e-05
0.00533305
1.63863e-05
0.00532425
1.78036e-05
0.00531478
1.91714e-05
0.00530464
2.04852e-05
0.00529386
2.17875e-05
0.0052825
2.29581e-05
2.43946e-05
0.000695549
-0.00025686
0.000782561
-0.000267429
0.000874149
-0.00028118
0.000970807
-0.00029662
0.00107285
-0.000313152
0.00118054
-0.000330486
0.00129402
-0.000348283
0.00141332
-0.00036619
0.00153838
-0.000383874
0.00166902
-0.000401013
0.00180496
-0.000417287
0.00194583
-0.000432384
0.00209115
-0.000446
0.00224034
-0.000457851
0.00239275
-0.000467674
0.00254764
-0.000475235
0.00270422
-0.000480335
0.00286165
-0.00048282
0.00301903
-0.000482578
0.00317547
-0.000479552
0.00333006
-0.000473735
0.00348191
-0.000465173
0.00363017
-0.000453968
0.00377402
-0.00044027
0.00391273
-0.000424281
0.00404563
-0.000406246
0.00417213
-0.000386448
0.00429177
-0.000365204
0.00440419
-0.000342855
0.00450912
-0.000319755
0.00460643
-0.000296264
0.00469611
-0.000272732
0.00477824
-0.000249494
0.004853
-0.000226851
0.00492066
-0.000205068
0.00498157
-0.000184356
0.00503612
-0.00016488
0.00508473
-0.000146743
0.00512787
-0.000130001
0.00516597
-0.00011466
0.00519949
-0.000100685
0.00522884
-8.80131e-05
0.00525442
-7.65585e-05
0.0052766
-6.62241e-05
0.00529571
-5.69078e-05
0.00531204
-4.85084e-05
0.00532587
-4.09288e-05
0.00533743
-3.40787e-05
0.00534695
-2.78746e-05
0.0053546
-2.22407e-05
0.00536055
-1.71084e-05
0.00536494
-1.24164e-05
0.00536791
-8.10991e-06
0.00536957
-4.13973e-06
0.00537
-4.5292e-07
0.00536931
2.95661e-06
0.00536756
6.14772e-06
0.00536481
9.14037e-06
0.00536114
1.19593e-05
0.00535659
1.46237e-05
0.0053512
1.71514e-05
0.00534501
1.95573e-05
0.00533807
2.18556e-05
0.0053304
2.40566e-05
0.00532203
2.61715e-05
0.00531299
2.82117e-05
0.0053033
3.0171e-05
0.00529298
3.21127e-05
0.00528208
3.38568e-05
3.59993e-05
0.000837168
-0.000336533
0.000920389
-0.00035065
0.00100817
-0.000368965
0.0011009
-0.000389348
0.00119882
-0.000411072
0.00130216
-0.000433819
0.00141104
-0.000457164
0.0015255
-0.000480655
0.00164549
-0.000503861
0.00177084
-0.000526359
0.00190128
-0.000547733
0.00203647
-0.000567571
0.00217595
-0.000585477
0.00231917
-0.000601076
0.00246552
-0.000614022
0.00261429
-0.00062401
0.00276474
-0.00063078
0.00291605
-0.000634129
0.00306738
-0.000633915
0.00321789
-0.000630059
0.00336671
-0.000622554
0.00351299
-0.00061146
0.00365593
-0.000596907
0.00379475
-0.000579091
0.00392875
-0.000558273
0.00405727
-0.000534769
0.00417977
-0.000508947
0.00429578
-0.000481218
0.00440495
-0.000452023
0.00450702
-0.000421824
0.00460184
-0.00039109
0.00468939
-0.000360278
0.00476972
-0.000329826
0.004843
-0.00030013
0.00490947
-0.000271536
0.00496944
-0.000244326
0.00502327
-0.000218717
0.00507138
-0.000194849
0.00511417
-0.000172797
0.00515209
-0.000152572
0.00518553
-0.000134133
0.00521492
-0.000117399
0.00524062
-0.000102261
0.00526299
-8.85932e-05
0.00528235
-7.62632e-05
0.00529898
-6.51396e-05
0.00531315
-5.50963e-05
0.00532508
-4.6015e-05
0.00533499
-3.77869e-05
0.00534307
-3.03126e-05
0.00534946
-2.35022e-05
0.00535432
-1.72749e-05
0.00535777
-1.15587e-05
0.00535992
-6.28807e-06
0.00536086
-1.40073e-06
0.00536069
3.13081e-06
0.00535947
7.36356e-06
0.00535728
1.13331e-05
0.00535417
1.50716e-05
0.00535019
1.86043e-05
0.00534538
2.19546e-05
0.0053398
2.51424e-05
0.00533347
2.81865e-05
0.00532642
3.11006e-05
0.0053187
3.38997e-05
0.00531031
3.65988e-05
0.00530129
3.91899e-05
0.00529165
4.17566e-05
0.00528144
4.40602e-05
4.68939e-05
0.00101787
-0.000411245
0.00109612
-0.000428897
0.00117891
-0.000451758
0.0012665
-0.000476934
0.00135904
-0.000503615
0.00145672
-0.000531501
0.00155966
-0.000560104
0.00166789
-0.000588884
0.00178135
-0.000617322
0.0018999
-0.000644905
0.00202329
-0.000671124
0.00215119
-0.000695476
0.00228319
-0.000717474
0.00241878
-0.000736661
0.00255737
-0.000752612
0.00269831
-0.000764955
0.00284091
-0.000773375
0.0029844
-0.000777623
0.00312801
-0.000777526
0.00327094
-0.00077299
0.0034124
-0.000764006
0.00355158
-0.000750644
0.00368774
-0.000733062
0.00382014
-0.000711495
0.00394812
-0.000686256
0.00407108
-0.000657726
0.00418848
-0.000626347
0.00429988
-0.000592616
0.00440492
-0.000557065
0.00450335
-0.000520255
0.00459502
-0.000482753
0.00467985
-0.000445118
0.00475791
-0.000407882
0.00482931
-0.000371532
0.00489427
-0.000336492
0.00495306
-0.000303114
0.005006
-0.000271662
0.00505347
-0.000242318
0.00509585
-0.000215175
0.00513353
-0.000190254
0.00516691
-0.00016751
0.00519636
-0.000146847
0.00522223
-0.000128136
0.00524486
-0.000111225
0.00526456
-9.5957e-05
0.00528159
-8.21717e-05
0.00529621
-6.97164e-05
0.00530864
-5.84474e-05
0.00531909
-4.82319e-05
0.00532772
-3.89486e-05
0.00533471
-3.04874e-05
0.00534018
-2.27491e-05
0.00534427
-1.5645e-05
0.00534708
-9.09495e-06
0.0053487
-3.02603e-06
0.00534922
2.60982e-06
0.00534872
7.86689e-06
0.00534726
1.27958e-05
0.00534489
1.74368e-05
0.00534167
2.18206e-05
0.00533765
2.59766e-05
0.00533287
2.9929e-05
0.00532735
3.37016e-05
0.00532114
3.73112e-05
0.00531426
4.07768e-05
0.00530675
4.41164e-05
0.00529861
4.73211e-05
0.00528988
5.04939e-05
0.0052806
5.33383e-05
5.68435e-05
0.00123143
-0.000479919
0.00130359
-0.000501064
0.00138028
-0.000528443
0.0014616
-0.000558252
0.00154761
-0.000589633
0.00163847
-0.000622358
0.00173427
-0.000655898
0.00183502
-0.000689639
0.00194068
-0.000722982
0.00205111
-0.000755338
0.0021661
-0.000786112
0.00228534
-0.000814715
0.00240845
-0.000840581
0.00253496
-0.000863171
0.00266434
-0.000881993
0.00279599
-0.000896611
0.00292928
-0.000906661
0.00306351
-0.000911853
0.00319797
-0.000911988
0.00333194
-0.000906956
0.00346468
-0.000896745
0.00359547
-0.000881436
0.00372361
-0.000861207
0.00384845
-0.000836328
0.00396935
-0.000807155
0.00408574
-0.000774125
0.00419714
-0.000737745
0.00430311
-0.000698584
0.0044033
-0.000657257
0.00449746
-0.00061441
0.00458541
-0.000570702
0.00466707
-0.000526782
0.00474246
-0.000483271
0.00481167
-0.000440739
0.00487486
-0.000399686
0.00493228
-0.000360526
0.00498419
-0.000323578
0.00503093
-0.000289058
0.00507284
-0.000257086
0.00511028
-0.000227692
0.0051436
-0.00020083
0.00517315
-0.000176396
0.00519925
-0.000154242
0.00522223
-0.000134199
0.00524235
-0.000116083
0.00525989
-9.97109e-05
0.00527508
-8.49061e-05
0.00528814
-7.15019e-05
0.00529925
-5.93437e-05
0.00530859
-4.82898e-05
0.00531631
-3.82112e-05
0.00532256
-2.89917e-05
0.00532744
-2.05268e-05
0.00533107
-1.2723e-05
0.00533354
-5.49558e-06
0.00533492
1.22245e-06
0.00533531
7.48151e-06
0.00533476
1.33485e-05
0.00533332
1.88706e-05
0.00533106
2.40844e-05
0.00532801
2.90245e-05
0.00532422
3.37202e-05
0.00531972
3.81995e-05
0.00531455
4.24826e-05
0.00530873
4.65924e-05
0.0053023
5.055e-05
0.00529528
5.43455e-05
0.00528767
5.81006e-05
0.00527955
6.14626e-05
6.56146e-05
0.00147083
-0.000541586
0.00153591
-0.000566142
0.00160547
-0.000598001
0.0016795
-0.000632279
0.00175797
-0.000668102
0.00184097
-0.00070536
0.00192858
-0.000743508
0.0020208
-0.000781864
0.00211759
-0.000819769
0.00221882
-0.000856564
0.00232428
-0.000891579
0.00243372
-0.000924151
0.00254677
-0.000953636
0.00266303
-0.000979431
0.00278202
-0.00100098
0.0029032
-0.00101779
0.003026
-0.00102946
0.0031498
-0.00103565
0.00327397
-0.00103616
0.00339786
-0.00103085
0.00352081
-0.0010197
0.00364219
-0.00100281
0.00376136
-0.000980377
0.00387772
-0.000952686
0.0039907
-0.000920133
0.00409977
-0.000883198
0.00420447
-0.000842443
0.00430438
-0.000798498
0.00439917
-0.000752047
0.00448857
-0.00070381
0.0045724
-0.000654526
0.00465054
-0.000604925
0.00472298
-0.000555708
0.00478976
-0.000507522
0.00485101
-0.000460938
0.00490692
-0.000416432
0.00495771
-0.000374373
0.00500367
-0.000335017
0.00504509
-0.000298508
0.00508229
-0.000264892
0.00511559
-0.000234125
0.00514529
-0.000206098
0.0051717
-0.000180653
0.0051951
-0.0001576
0.00521576
-0.00013674
0.00523392
-0.000117867
0.00524979
-0.000100785
0.0052636
-8.53061e-05
0.00527551
-7.12568e-05
0.0052857
-5.84769e-05
0.00529431
-4.68202e-05
0.00530147
-3.61544e-05
0.0053073
-2.63607e-05
0.00531191
-1.73329e-05
0.00531539
-8.9759e-06
0.00531782
-1.20119e-06
0.00531927
6.03289e-06
0.0053198
1.28127e-05
0.00531948
1.91903e-05
0.00531836
2.52085e-05
0.00531648
3.09073e-05
0.00531388
3.63204e-05
0.00531059
4.14807e-05
0.00530667
4.64108e-05
0.00530212
5.11384e-05
0.00529698
5.56865e-05
0.00529128
6.00457e-05
0.00528503
6.43547e-05
0.00527829
6.82064e-05
7.29755e-05
0.0017287
-0.000595398
0.00178581
-0.000623248
0.00184734
-0.000659534
0.00191319
-0.000698122
0.00198323
-0.000738141
0.00205751
-0.00077964
0.00213607
-0.000822071
0.00221891
-0.000864701
0.00230596
-0.000906821
0.00239711
-0.000947713
0.00249217
-0.000986646
0.00259091
-0.00102289
0.00269302
-0.00105574
0.00279812
-0.00108453
0.0029058
-0.00110866
0.0030156
-0.00112759
0.00312701
-0.00114087
0.00323951
-0.00114815
0.00335253
-0.00114918
0.00346553
-0.00114384
0.00357792
-0.0011321
0.00368915
-0.00111404
0.00379866
-0.00108988
0.0039059
-0.00105993
0.00401037
-0.0010246
0.00411159
-0.000984416
0.00420912
-0.000939968
0.00430255
-0.000891938
0.00439157
-0.000841066
0.0044759
-0.000788137
0.00455533
-0.000733955
0.00462973
-0.000679322
0.00469903
-0.000625012
0.00476325
-0.000571741
0.00482246
-0.000520147
0.00487679
-0.000470764
0.00492643
-0.000424011
0.0049716
-0.000380184
0.00501254
-0.000339456
0.00504954
-0.00030189
0.00508287
-0.000267449
0.00511279
-0.000236024
0.00513959
-0.000207449
0.00516351
-0.000181524
0.0051848
-0.000158032
0.00520369
-0.000136754
0.00522038
-0.000117474
0.00523506
-9.99886e-05
0.00524791
-8.41062e-05
0.00525909
-6.96506e-05
0.00526873
-5.64602e-05
0.00527696
-4.43882e-05
0.0052839
-3.33022e-05
0.00528965
-2.30841e-05
0.0052943
-1.36269e-05
0.00529794
-4.83812e-06
0.00530062
3.354e-06
0.00530242
1.10108e-05
0.0053034
1.82153e-05
0.0053036
2.50083e-05
0.00530307
3.14359e-05
0.00530185
3.75365e-05
0.00529998
4.33474e-05
0.0052975
4.88939e-05
0.00529443
5.42082e-05
0.0052908
5.93152e-05
0.00528664
6.42065e-05
0.00528196
6.90361e-05
0.00527682
7.33452e-05
7.86967e-05
0.00199762
0.00204601
-0.000671639
0.00209876
-0.000712286
0.00215568
-0.000755035
0.00221656
-0.000799028
0.00228142
-0.0008445
0.00235027
-0.000890913
0.00242306
-0.000937493
0.00249973
-0.000983489
0.00258016
-0.00102814
0.00266418
-0.00107067
0.00275158
-0.00111029
0.00284208
-0.00114625
0.00293538
-0.00117783
0.00303112
-0.0012044
0.00312891
-0.00122537
0.00322832
-0.00124028
0.00332892
-0.00124875
0.00343024
-0.0012505
0.00353181
-0.00124541
0.00363314
-0.00123343
0.00373377
-0.00121466
0.00383319
-0.00118931
0.00393095
-0.00115769
0.00402658
-0.00112023
0.00411964
-0.00107748
0.00420973
-0.00103006
0.00429648
-0.00097868
0.00437954
-0.000924128
0.00445864
-0.000867236
0.00453355
-0.000808865
0.0046041
-0.000749879
0.00467021
-0.000691114
0.00473182
-0.000633351
0.00478896
-0.000577289
0.00484171
-0.000523518
0.00489021
-0.000472507
0.00493462
-0.000424592
0.00497514
-0.000379977
0.00501199
-0.000338746
0.00504542
-0.000300875
0.00507565
-0.000266257
0.00510293
-0.000234725
0.00512748
-0.000206073
0.00514952
-0.000180072
0.00516925
-0.00015649
0.00518688
-0.000135099
0.00520257
-0.00011568
0.00521649
-9.80273e-05
0.00522879
-8.19513e-05
0.00523961
-6.72764e-05
0.00524906
-5.38425e-05
0.00525726
-4.1505e-05
0.00526431
-3.01347e-05
0.0052703
-1.96147e-05
0.00527531
-9.84752e-06
0.00527939
-7.28957e-07
0.00528264
7.76782e-06
0.00528509
1.57671e-05
0.00528679
2.33009e-05
0.00528781
3.04235e-05
0.00528816
3.71773e-05
0.00528791
4.36044e-05
0.00528707
4.97322e-05
0.00528568
5.5598e-05
0.00528377
6.12277e-05
0.00528136
6.66149e-05
0.00527847
7.19274e-05
0.00527516
7.66572e-05
8.25514e-05
0.00230951
-0.000710734
0.00235288
-0.000755664
0.00240029
-0.000802439
0.00245148
-0.000850215
0.00250641
-0.00089943
0.00256505
-0.000949556
0.00262734
-0.000999781
0.00269318
-0.00104933
0.00276246
-0.00109742
0.00283501
-0.00114322
0.00291065
-0.00118593
0.00298914
-0.00122474
0.00307023
-0.00125893
0.00315364
-0.0012878
0.00323904
-0.00131078
0.00332611
-0.00132735
0.00341449
-0.00133713
0.00350382
-0.00133983
0.00359371
-0.0013353
0.00368376
-0.00132349
0.00377359
-0.00130449
0.00386277
-0.00127849
0.00395091
-0.00124583
0.0040376
-0.00120692
0.00412244
-0.00116232
0.00420504
-0.00111266
0.00428506
-0.00105869
0.00436215
-0.00100122
0.00443602
-0.000941106
0.00450642
-0.000879269
0.00457316
-0.000816619
0.00463609
-0.000754048
0.00469514
-0.000692395
0.00475026
-0.000632415
0.0048015
-0.000574754
0.00484892
-0.000519928
0.00489264
-0.000468315
0.00493282
-0.000420152
0.00496962
-0.000375549
0.00500324
-0.000334497
0.00503389
-0.000296898
0.00506175
-0.000262589
0.00508703
-0.000231359
0.00510994
-0.000202975
0.00513065
-0.000177197
0.00514933
-0.000153785
0.00516616
-0.000132511
0.00518129
-0.000113156
0.00519486
-9.55193e-05
0.005207
-7.9413e-05
0.00521782
-6.46657e-05
0.00522744
-5.11217e-05
0.00523594
-3.86414e-05
0.00524343
-2.70991e-05
0.00524997
-1.63854e-05
0.00525564
-6.3999e-06
0.00526048
2.91972e-06
0.00526458
1.1669e-05
0.00526798
1.99063e-05
0.00527071
2.76856e-05
0.00527284
3.50543e-05
0.00527438
4.2059e-05
0.00527539
4.87288e-05
0.00527588
5.51066e-05
0.00527589
6.12182e-05
0.00527544
6.70611e-05
0.00527455
7.28138e-05
0.00527329
7.79234e-05
8.43154e-05
0.00256977
-0.000740122
0.00260336
-0.000789256
0.00264086
-0.000839941
0.002682
-0.000891347
0.00272668
-0.00094411
0.00277483
-0.000997708
0.00282635
-0.0010513
0.00288112
-0.0011041
0.002939
-0.0011553
0.00299986
-0.00120408
0.00306352
-0.00124959
0.0031298
-0.00129102
0.0031985
-0.00132763
0.00326942
-0.00135871
0.0033423
-0.00138367
0.00341693
-0.00140197
0.00349302
-0.00141322
0.00357031
-0.00141712
0.00364851
-0.0014135
0.00372732
-0.00140229
0.0038064
-0.00138357
0.00388542
-0.00135752
0.00396404
-0.00132445
0.0040419
-0.00128478
0.00411864
-0.00123906
0.00419389
-0.00118792
0.00426731
-0.00113211
0.00433857
-0.00107247
0.00440735
-0.00100989
0.00447338
-0.000945302
0.00453643
-0.000879674
0.00459633
-0.000813943
0.00465293
-0.000748998
0.00470616
-0.000685647
0.004756
-0.000624589
0.00480246
-0.000566388
0.00484561
-0.000511465
0.00488555
-0.000460094
0.00492241
-0.000412411
0.00495634
-0.000368428
0.00498751
-0.000328063
0.00501608
-0.000291157
0.00504222
-0.000257502
0.00506611
-0.000226866
0.00508791
-0.000199001
0.00510779
-0.000173663
0.0051259
-0.000150615
0.00514237
-0.000129629
0.00515734
-0.000110494
0.00517094
-9.30134e-05
0.00518328
-7.70048e-05
0.00519446
-6.23029e-05
0.00520458
-4.87585e-05
0.00521372
-3.62376e-05
0.00522196
-2.46219e-05
0.00522937
-1.38086e-05
0.005236
-3.71266e-06
0.00524192
5.74904e-06
0.00524718
1.46463e-05
0.00525182
2.30407e-05
0.00525589
3.09818e-05
0.00525943
3.85213e-05
0.00526247
4.56897e-05
0.00526504
5.25355e-05
0.00526718
5.90842e-05
0.0052689
6.53379e-05
0.00527023
7.14837e-05
0.00527123
7.6928e-05
8.37678e-05
0.00282093
0.00284452
-0.000812849
0.00287193
-0.000867352
0.00290286
-0.000922269
0.00293716
-0.000978417
0.00297472
-0.00103527
0.00301538
-0.00109196
0.003059
-0.00114771
0.00310542
-0.00120173
0.00315452
-0.00125318
0.00320617
-0.00130123
0.00326022
-0.00134507
0.00331654
-0.00138395
0.003375
-0.00141717
0.00343545
-0.00144412
0.00349774
-0.00146426
0.0035617
-0.00147718
0.00362715
-0.00148257
0.00369388
-0.00148023
0.00376168
-0.00147009
0.00383029
-0.00145218
0.00389943
-0.00142667
0.00396883
-0.00139385
0.00403816
-0.00135411
0.00410709
-0.00130799
0.00417529
-0.00125611
0.0042424
-0.00119922
0.00430809
-0.00113816
0.00437204
-0.00107383
0.00443394
-0.00100721
0.00449354
-0.00093927
0.0045506
-0.000871006
0.00460495
-0.000803352
0.00465647
-0.000737164
0.00470507
-0.00067319
0.00475073
-0.000612044
0.00479345
-0.000554191
0.0048333
-0.000499943
0.00487036
-0.000449467
0.00490473
-0.000402801
0.00493655
-0.00035988
0.00496595
-0.000320556
0.00499307
-0.000284631
0.00501808
-0.000251872
0.00504111
-0.000222032
0.00506231
-0.000194864
0.00508182
-0.000170125
0.00509978
-0.000147582
0.0051163
-0.000127015
0.0051315
-0.00010822
0.0051455
-9.10052e-05
0.0051584
-7.51972e-05
0.00517028
-6.06383e-05
0.00518123
-4.71864e-05
0.00519132
-3.4716e-05
0.00520063
-2.31167e-05
0.00520922
-1.22986e-05
0.00521713
-2.16256e-06
0.00522443
7.34671e-06
0.00523116
1.63098e-05
0.00523736
2.47771e-05
0.00524308
3.28046e-05
0.00524834
4.04238e-05
0.00525319
4.76898e-05
0.00525765
5.46263e-05
0.00526174
6.12418e-05
0.0052655
6.77291e-05
0.00526897
7.34587e-05
8.06912e-05
0.00307146
0.00308881
-0.000884703
0.00310958
-0.000943035
0.00313358
-0.00100241
0.00316061
-0.0010623
0.00319047
-0.00112182
0.00322298
-0.00118023
0.00325801
-0.00123676
0.00329544
-0.00129061
0.00333517
-0.00134096
0.00337712
-0.00138703
0.00342124
-0.00142807
0.00346747
-0.0014634
0.00351576
-0.0014924
0.00356602
-0.00151453
0.0036182
-0.00152936
0.00367219
-0.00153656
0.00372788
-0.00153591
0.0037851
-0.00152731
0.00384369
-0.00151076
0.00390342
-0.0014864
0.00396405
-0.00145448
0.0040253
-0.00141536
0.00408687
-0.00136956
0.00414843
-0.00131767
0.00420963
-0.00126043
0.00427014
-0.00119867
0.00432961
-0.0011333
0.00438771
-0.00106531
0.00444414
-0.000995707
0.00449865
-0.000925515
0.00455101
-0.000855709
0.00460104
-0.000787194
0.00464862
-0.000720766
0.00469366
-0.000657088
0.00473614
-0.000596669
0.00477606
-0.000539862
0.00481346
-0.000486871
0.00484842
-0.000437761
0.00488103
-0.000392489
0.0049114
-0.000350925
0.00493965
-0.000312879
0.0049659
-0.000278126
0.00499029
-0.000246423
0.00501295
-0.000217522
0.005034
-0.000191177
0.00505357
-0.000167152
0.00507178
-0.000145221
0.00508873
-0.000125173
0.00510454
-0.000106811
0.00511929
-8.99516e-05
0.00513309
-7.44308e-05
0.005146
-6.0099e-05
0.00515811
-4.68237e-05
0.00516948
-3.44879e-05
0.00518017
-2.29935e-05
0.00519025
-1.22435e-05
0.00519976
-2.1602e-06
0.00520875
7.31738e-06
0.00521727
1.62611e-05
0.00522535
2.47257e-05
0.00523303
3.27438e-05
0.00524034
4.03779e-05
0.00524732
4.76487e-05
0.00525399
5.45729e-05
0.00526037
6.13454e-05
0.00526652
6.73074e-05
7.4872e-05
0.00328768
-0.000892258
0.00329854
-0.000953901
0.00331246
-0.00101633
0.00332915
-0.00107899
0.00334838
-0.00114105
0.00336996
-0.00120181
0.00339376
-0.00126056
0.0034197
-0.00131654
0.00344774
-0.001369
0.00347787
-0.00141716
0.00351011
-0.00146032
0.00354449
-0.00149778
0.00358103
-0.00152894
0.00361976
-0.00155326
0.00366068
-0.00157028
0.00370378
-0.00157966
0.00374899
-0.00158113
0.00379625
-0.00157456
0.00384541
-0.00155993
0.00389633
-0.00153732
0.00394878
-0.00150693
0.00400253
-0.00146911
0.00405728
-0.00142431
0.00411273
-0.00137311
0.00416851
-0.00131622
0.00422429
-0.00125445
0.0042797
-0.00118871
0.00433439
-0.00112
0.00438803
-0.00104934
0.00444031
-0.000977794
0.00449097
-0.000906365
0.00453978
-0.000836006
0.00458657
-0.00076756
0.00463122
-0.000701738
0.00467365
-0.000639098
0.00471383
-0.000580037
0.00475175
-0.000524793
0.00478746
-0.000473468
0.00482101
-0.000426043
0.00485249
-0.000382407
0.004882
-0.000342386
0.00490964
-0.000305766
0.00493552
-0.000272309
0.00495977
-0.00024177
0.0049825
-0.000213905
0.00500382
-0.000188474
0.00502385
-0.000165249
0.00504269
-0.000144014
0.00506044
-0.000124563
0.0050772
-0.000106711
0.00509306
-9.02836e-05
0.00510808
-7.5126e-05
0.00512236
-6.10991e-05
0.00513595
-4.80797e-05
0.00514892
-3.59623e-05
0.00516132
-2.46472e-05
0.00517322
-1.40531e-05
0.00518464
-4.10542e-06
0.00519564
5.25736e-06
0.00520626
1.41049e-05
0.00521654
2.24658e-05
0.00522651
3.0412e-05
0.0052362
3.79596e-05
0.00524563
4.51352e-05
0.00525485
5.21322e-05
0.00526388
5.82697e-05
6.61009e-05
0.0034656
0.003467
-0.000955298
0.00347118
-0.00102051
0.00347781
-0.00108563
0.00348664
-0.00114988
0.00349749
-0.00121266
0.00351029
-0.00127336
0.003525
-0.00133126
0.00354168
-0.00138567
0.00356038
-0.00143586
0.0035812
-0.00148114
0.00360425
-0.00152083
0.00362964
-0.00155433
0.00365747
-0.00158109
0.00368781
-0.00160062
0.0037207
-0.00161255
0.00375617
-0.0016166
0.00379418
-0.00161257
0.00383464
-0.0016004
0.00387745
-0.00158012
0.00392242
-0.0015519
0.00396931
-0.00151601
0.00401788
-0.00147287
0.00406779
-0.00142303
0.00411872
-0.00136714
0.00417028
-0.00130601
0.00422211
-0.00124054
0.00427382
-0.00117171
0.00432505
-0.00110057
0.00437546
-0.0010282
0.00442474
-0.000955646
0.00447263
-0.000883893
0.00451891
-0.000813836
0.00456341
-0.000746235
0.004606
-0.000681697
0.00464663
-0.000620663
0.00468525
-0.000563416
0.00472187
-0.00051009
0.00475653
-0.000460697
0.00478927
-0.000415151
0.00482018
-0.000373297
0.00484935
-0.000334931
0.00487687
-0.000299827
0.00490284
-0.000267746
0.00492738
-0.000238444
0.00495059
-0.000211685
0.00497258
-0.000187236
0.00499344
-0.000164879
0.00501328
-0.000144403
0.00503219
-0.000125617
0.00505025
-0.000108342
0.00506754
-9.24155e-05
0.00508413
-7.76933e-05
0.0051001
-6.40463e-05
0.0051155
-5.13627e-05
0.00513039
-3.95385e-05
0.00514483
-2.84886e-05
0.00515885
-1.81325e-05
0.00517252
-8.40569e-06
0.00518586
7.66689e-07
0.00519891
9.4098e-06
0.00521171
1.76084e-05
0.0052243
2.53709e-05
0.0052367
3.27367e-05
0.00524894
3.98935e-05
0.00526106
4.6146e-05
5.41728e-05
0.00361309
-0.000947746
0.00360791
-0.00101533
0.00360473
-0.00108245
0.00360337
-0.00114851
0.00360372
-0.00121301
0.00360578
-0.00127542
0.00360962
-0.0013351
0.00361535
-0.0013914
0.00362313
-0.00144364
0.00363312
-0.00149113
0.00364551
-0.00153322
0.00366047
-0.00156929
0.00367816
-0.00159878
0.00369872
-0.00162118
0.00372224
-0.00163607
0.00374879
-0.00164314
0.00377837
-0.00164215
0.00381094
-0.00163297
0.00384642
-0.0016156
0.00388464
-0.00159012
0.0039254
-0.00155677
0.00396845
-0.00151592
0.00401346
-0.00146804
0.00406011
-0.00141378
0.004108
-0.0013539
0.00415674
-0.00128928
0.00420593
-0.0012209
0.00425518
-0.00114982
0.00430409
-0.00107712
0.00435234
-0.00100389
0.00439961
-0.000931164
0.00444565
-0.000859873
0.00449024
-0.00079083
0.00453324
-0.000724691
0.00457452
-0.000661947
0.00461403
-0.000602925
0.00465174
-0.0005478
0.00468766
-0.000496615
0.00472182
-0.000449312
0.00475428
-0.000405756
0.00478511
-0.000365762
0.0048144
-0.000329115
0.00484224
-0.000295583
0.00486872
-0.00026493
0.00489395
-0.000236918
0.00491804
-0.000211317
0.00494106
-0.000187905
0.00496313
-0.000166469
0.00498432
-0.000146811
0.00500473
-0.000128748
0.00502442
-0.000112113
0.00504348
-9.67545e-05
0.00506198
-8.25391e-05
0.00507996
-6.93488e-05
0.0050975
-5.70755e-05
0.00511464
-4.56293e-05
0.00513143
-3.49255e-05
0.00514792
-2.48963e-05
0.00516416
-1.54641e-05
0.00518016
-6.59855e-06
0.00519598
1.78756e-06
0.00521166
9.69932e-06
0.0052272
1.71904e-05
0.00524266
2.44374e-05
0.00525806
3.07412e-05
3.88875e-05
0.00373568
0.00372133
-0.00100098
0.00370849
-0.00106961
0.00369708
-0.0011371
0.00368714
-0.00120308
0.00367879
-0.00126706
0.00367218
-0.00132849
0.00366751
-0.00138673
0.00366501
-0.00144113
0.0036649
-0.00149103
0.00366743
-0.00153575
0.00367281
-0.00157468
0.00368126
-0.00160722
0.00369294
-0.00163286
0.00370801
-0.00165114
0.00372654
-0.00166167
0.00374858
-0.00166419
0.00377412
-0.00165852
0.00380309
-0.00164456
0.00383535
-0.00162238
0.00387072
-0.00159214
0.00390893
-0.00155413
0.0039497
-0.00150881
0.00399266
-0.00145674
0.00403743
-0.00139867
0.00408359
-0.00133544
0.00413072
-0.00126803
0.0041784
-0.00119749
0.00422621
-0.00112493
0.00427377
-0.00105146
0.00432075
-0.000978136
0.00436683
-0.000905957
0.00441178
-0.000835779
0.0044554
-0.000768313
0.00449756
-0.000704101
0.00453815
-0.000643517
0.00457712
-0.000586777
0.00461447
-0.000533962
0.0046502
-0.000485044
0.00468436
-0.000439912
0.004717
-0.000398401
0.00474819
-0.000360311
0.00477803
-0.000325418
0.00480659
-0.000293495
0.00483398
-0.000264307
0.00486029
-0.000237625
0.00488561
-0.000213226
0.00491004
-0.000190895
0.00493366
-0.000170429
0.00495655
-0.000151642
0.0049788
-0.00013436
0.00500047
-0.000118428
0.00502164
-0.000103706
0.00504236
-9.00714e-05
0.0050627
-7.7412e-05
0.0050827
-6.56331e-05
0.00510242
-5.46454e-05
0.0051219
-4.43793e-05
0.00514119
-3.47524e-05
0.00516032
-2.57322e-05
0.00517934
-1.72263e-05
0.00519827
-9.23399e-06
0.00521715
-1.68645e-06
0.00523601
5.57708e-06
0.00525488
1.18656e-05
2.00497e-05
0.00381042
0.00378786
-0.00104705
0.0037665
-0.00111573
0.00374653
-0.00118311
0.00372817
-0.00124871
0.00371167
-0.00131199
0.00369728
-0.00137234
0.00368528
-0.00142913
0.00367593
-0.00148168
0.00366951
-0.00152933
0.00366627
-0.00157144
0.00366644
-0.0016074
0.00367023
-0.00163665
0.0036778
-0.0016587
0.00368926
-0.00167313
0.00370468
-0.00167961
0.00372406
-0.0016779
0.00374735
-0.00166786
0.00377444
-0.00164947
0.00380514
-0.00162284
0.00383921
-0.00158821
0.00387636
-0.00154595
0.00391623
-0.00149661
0.00395842
-0.00144086
0.00400251
-0.00137954
0.00404805
-0.00131358
0.00409459
-0.00124404
0.00414169
-0.00117203
0.00418894
-0.0010987
0.00423594
-0.00102514
0.00428237
-0.00095239
0.00432795
-0.000881361
0.00437246
-0.000812817
0.00441571
-0.000747355
0.00445759
-0.000685399
0.00449803
-0.000627213
0.00453698
-0.000572916
0.00457445
-0.000522513
0.00461046
-0.000475922
0.00464506
-0.000432998
0.00467831
-0.000393557
0.00471028
-0.000357391
0.00474106
-0.000324277
0.00477074
-0.000293987
0.00479941
-0.000266295
0.00482716
-0.000240977
0.00485408
-0.000217817
0.00488026
-0.000196609
0.00490578
-0.000177161
0.00493072
-0.000159297
0.00495515
-0.000142855
0.00497913
-0.000127692
0.00500274
-0.000113678
0.00502603
-0.000100699
0.00504905
-8.86537e-05
0.00507185
-7.74497e-05
0.00509449
-6.7015e-05
0.005117
-5.72622e-05
0.00513942
-4.81581e-05
0.0051618
-3.96031e-05
0.00518417
-3.16031e-05
0.00520655
-2.40728e-05
0.005229
-1.68685e-05
0.00525153
-1.0666e-05
-2.53024e-06
0.00384329
-0.00101459
0.00381206
-0.0010845
0.00378237
-0.00115342
0.00375451
-0.00122085
0.00372877
-0.00128625
0.00370542
-0.001349
0.00368477
-0.00140847
0.00366709
-0.001464
0.00365266
-0.0015149
0.00364175
-0.00156053
0.00363461
-0.00160026
0.00363145
-0.00163349