/*--------------------------------*- C++ -*----------------------------------*\
  =========                 |
  \\      /  F ield         | OpenFOAM: The Open Source CFD Toolbox
   \\    /   O peration     | Website:  https://openfoam.org
    \\  /    A nd           | Version:  7
     \\/     M anipulation  |
\*---------------------------------------------------------------------------*/
FoamFile
{
    version     2.0;
    format      ascii;
    class       surfaceScalarField;
    location    "0.9996";
    object      phi;
}
// * * * * * * * * * * * * * * * * * * * * * * * * * * * * * * * * * * * * * //

dimensions      [0 3 -1 0 0 0 0];

internalField   nonuniform List<scalar> 
11411
(
-2.54366e-05
-1.41043e-11
-8.42237e-05
-1.4893e-11
-0.000162953
5.31191e-13
-0.000248373
2.42152e-11
-0.000327287
5.05792e-11
-0.000386353
7.51738e-11
-0.00041195
9.3897e-11
-0.000390486
1.06022e-10
-0.000309263
1.10645e-10
1.08556e-10
-4.3861e-05
-7.34863e-13
-0.000150884
-2.73245e-12
-0.000302205
-4.80232e-12
-0.000481888
-6.79256e-12
-0.000678962
-8.76612e-12
-0.0008875
-1.03642e-11
-0.00110526
-1.13004e-11
-0.00133201
-1.1535e-11
-0.00156831
-1.14466e-11
-0.00181496
-1.131e-11
-1.0897e-11
-4.3861e-05
4.3861e-05
-0.000150884
0.000107023
-0.000302205
0.000151321
-0.000481888
0.000179683
-0.000678962
0.000197075
-0.0008875
0.000208538
-0.00110526
0.000217763
-0.00133201
0.000226749
-0.00156831
0.000236294
-0.00181496
0.000246649
-0.00207287
0.000257916
-0.00234305
0.000270182
-0.00262659
0.000283539
-0.00292468
0.000298088
-0.00323862
0.000313935
-0.00356982
0.0003312
-0.00391982
0.000350001
-0.00429019
0.000370376
-0.00468245
0.000392259
0.000415974
-0.00509843
-4.36823e-05
8.75433e-05
-0.000150356
0.000213696
-0.000301278
0.000302243
-0.000480573
0.000358979
-0.000677288
0.000393789
-0.000885483
0.000416733
-0.00110291
0.000435186
-0.00132931
0.000453152
-0.00156524
0.00047223
-0.00181152
0.000492926
-0.00206905
0.000515445
-0.00233883
0.00053996
-0.00262195
0.000566656
-0.00291959
0.000595732
-0.00323306
0.000627404
-0.00356377
0.000661909
-0.00391325
0.000699484
-0.00428309
0.000740213
-0.00467479
0.000783964
0.000831369
-0.00509019
-4.33256e-05
0.000130869
-0.000149302
0.000319673
-0.000299425
0.000452366
-0.000477946
0.0005375
-0.00067394
0.000589783
-0.000881451
0.000624243
-0.0010982
0.00065193
-0.00132391
0.000678862
-0.00155913
0.000707451
-0.00180466
0.000738461
-0.00206142
0.000772201
-0.00233039
0.00080893
-0.00261266
0.000848927
-0.00290942
0.000892489
-0.00322195
0.000939939
-0.00355168
0.000991634
-0.00390013
0.00104793
-0.00426888
0.00110897
-0.00465947
0.00117456
0.0012456
-0.0050737
-4.27921e-05
0.000173661
-0.000147724
0.000424604
-0.00029665
0.000601292
-0.000474009
0.000714859
-0.000668923
0.000784697
-0.000875407
0.000830727
-0.00109113
0.000867658
-0.00131581
0.000903535
-0.00154996
0.0009416
-0.00179438
0.000982884
-0.00204998
0.0010278
-0.00231774
0.00107669
-0.00259874
0.00112993
-0.00289417
0.00118792
-0.00320531
0.00125108
-0.00353356
0.00131989
-0.00388045
0.00139483
-0.00424759
0.0014761
-0.0046365
0.00156347
0.00165805
-0.00504896
-4.20836e-05
0.000215745
-0.000145625
0.000528146
-0.000292957
0.000748624
-0.000468767
0.000890669
-0.000662241
0.000978172
-0.000867358
0.00103584
-0.00108173
0.00108203
-0.00130502
0.00112683
-0.00153775
0.00117432
-0.00178069
0.00122583
-0.00203475
0.00128186
-0.0023009
0.00134284
-0.00258022
0.00140925
-0.00287388
0.00148157
-0.00318315
0.00156035
-0.00350944
0.00164617
-0.00385426
0.00173965
-0.00421922
0.00184106
-0.00460588
0.00195014
0.00206813
-0.00501596
-4.12024e-05
0.000256947
-0.000143011
0.000629955
-0.000288352
0.000893964
-0.000462225
0.00106454
-0.000653901
0.00116985
-0.00085731
0.00123925
-0.00107
0.00129472
-0.00129157
0.0013484
-0.00152251
0.00140527
-0.00176361
0.00146692
-0.00201575
0.00153399
-0.00227989
0.00160699
-0.00255711
0.00168647
-0.00284856
0.00177302
-0.00315551
0.0018673
-0.00347934
0.00197
-0.00382157
0.00208188
-0.00418381
0.0022033
-0.00456765
0.00233397
0.00247519
-0.00497471
-4.01515e-05
0.000297098
-0.000139888
0.000729692
-0.000282842
0.00103692
-0.000454392
0.00123609
-0.00064391
0.00135936
-0.000845273
0.00144062
-0.00105594
0.00150538
-0.00127545
0.00156791
-0.00150427
0.00163409
-0.00174316
0.00170581
-0.001993
0.00178383
-0.00225474
0.00186873
-0.00252945
0.00196117
-0.00281825
0.00206183
-0.00312242
0.00217146
-0.00344331
0.0022909
-0.00378243
0.002421
-0.0041414
0.00256227
-0.00452183
0.0027144
0.00287862
-0.00492525
-3.89347e-05
0.000336033
-0.000136263
0.00082702
-0.000276436
0.00117709
-0.000445277
0.00140493
-0.000632278
0.00154636
-0.000831258
0.0016396
-0.00103957
0.00171369
-0.00125669
0.00178503
-0.00148304
0.00186044
-0.00171937
0.00194214
-0.00196654
0.002031
-0.00222549
0.00212769
-0.00249727
0.00223295
-0.002783
0.00234756
-0.00308393
0.00247239
-0.00340139
0.00260836
-0.00373689
0.0027565
-0.00409205
0.00291742
-0.00446847
0.00309082
0.00327779
-0.00486764
-3.75561e-05
0.000373589
-0.000132144
0.000921607
-0.000269145
0.00131409
-0.000434891
0.00157068
-0.000619016
0.00173049
-0.000815278
0.00183586
-0.00102091
0.00191933
-0.00123531
0.00199943
-0.00145885
0.00208398
-0.00169226
0.00217555
-0.00193639
0.00227513
-0.00219217
0.00238347
-0.00246063
0.0025014
-0.00274286
0.0026298
-0.00304009
0.00276962
-0.00335366
0.00292192
-0.00368502
0.00308786
-0.00403581
0.00326821
-0.00440766
0.00346267
0.00367207
-0.00480193
-3.60206e-05
0.00040961
-0.000127542
0.00101313
-0.000260981
0.00144753
-0.000423245
0.00173294
-0.000604137
0.00191138
-0.000797348
0.00202907
-0.000999983
0.00212196
-0.00121133
0.00221078
-0.00143173
0.00230438
-0.00166188
0.0024057
-0.00190261
0.00251586
-0.00215484
0.0026357
-0.00241956
0.00276613
-0.00269788
0.00290812
-0.00299098
0.00306272
-0.00330017
0.00323111
-0.00362689
0.00341458
-0.00397277
0.0036141
-0.00433946
0.00382936
0.00406084
-0.00472823
-3.43336e-05
0.000443944
-0.000122467
0.00110126
-0.000251958
0.00157702
-0.000410355
0.00189134
-0.000587656
0.00208868
-0.000777485
0.0022189
-0.0009768
0.00232128
-0.00118478
0.00241877
-0.00140171
0.0025213
-0.00162825
0.00263224
-0.00186522
0.00275283
-0.00211353
0.00288401
-0.00237415
0.00302674
-0.00264814
0.00318211
-0.00293667
0.00335125
-0.00324101
0.00353545
-0.00356259
0.00373616
-0.00390302
0.00395454
-0.00426398
0.00419031
0.00444351
-0.00464665
-3.25014e-05
0.000476445
-0.000116934
0.00118569
-0.000242093
0.00170218
-0.000396236
0.00204548
-0.00056959
0.00226204
-0.000755706
0.00240501
-0.000951387
0.00251696
-0.00115569
0.00262307
-0.00136882
0.00273443
-0.00159142
0.00285484
-0.00182429
0.00298571
-0.00206832
0.00312803
-0.00232444
0.00328287
-0.0025937
0.00345137
-0.00287723
0.00363478
-0.00317628
0.00383449
-0.00349222
0.0040521
-0.00382668
0.004289
-0.00418133
0.00454497
0.00481948
-0.00455731
-3.05307e-05
0.000506976
-0.000110956
0.00126612
-0.000231402
0.00182263
-0.000380908
0.00219499
-0.000549956
0.00243109
-0.000732033
0.00258709
-0.000923769
0.0027087
-0.00112408
0.00282338
-0.0013331
0.00294345
-0.00155144
0.00307318
-0.00177987
0.00321414
-0.00201925
0.00336741
-0.00227051
0.00353412
-0.00253465
0.00371551
-0.00281278
0.00391291
-0.00310608
0.00412779
-0.0034159
0.00436193
-0.00374385
0.00461695
-0.00409166
0.00489277
0.0051882
-0.00446038
-2.84288e-05
0.000535404
-0.000104549
0.00134224
-0.000219906
0.00193798
-0.000364389
0.00233947
-0.000528775
0.00259547
-0.000706487
0.0027648
-0.000893973
0.00289618
-0.00108999
0.0030194
-0.0012946
0.00314805
-0.00150836
0.00328694
-0.00173202
0.0034378
-0.00196641
0.00360181
-0.00221245
0.00378015
-0.00247109
0.00397416
-0.00274341
0.00418523
-0.00303053
0.00441492
-0.00333376
0.00466515
-0.00365469
0.00493788
-0.00399511
0.00523319
0.00554914
-0.00435605
-2.62041e-05
0.000561608
-9.77307e-05
0.00141377
-0.000207628
0.00204788
-0.000346703
0.00247855
-0.000506068
0.00275484
-0.000679093
0.00293783
-0.000862027
0.00307911
-0.00105346
0.00321084
-0.00125335
0.00334794
-0.00146222
0.00349581
-0.00168079
0.00365637
-0.00190987
0.00383088
-0.00215033
0.00402061
-0.00240311
0.00422693
-0.00266923
0.00445135
-0.00294978
0.00469547
-0.00324595
0.00496132
-0.00355933
0.00525126
-0.00389184
0.00556571
0.00590185
-0.00424455
-2.38651e-05
0.000585474
-9.05205e-05
0.00148042
-0.000194591
0.00215195
-0.000327875
0.00261183
-0.000481861
0.00290882
-0.000649876
0.00310584
-0.000827964
0.0032572
-0.00101453
0.0033974
-0.00120942
0.00354283
-0.0014131
0.00369949
-0.00162627
0.00386955
-0.00184971
0.00405432
-0.00208425
0.00425515
-0.00233081
0.0044735
-0.00259038
0.00471092
-0.00286397
0.00496906
-0.00315265
0.00525
-0.00345794
0.00555655
-0.00378203
0.0058898
0.00624596
-0.00412614
-2.14214e-05
0.000606895
-8.29397e-05
0.00154194
-0.000180822
0.00224983
-0.000307932
0.00273894
-0.000456179
0.00305707
-0.000618864
0.00326853
-0.000791815
0.00343015
-0.000973232
0.00357882
-0.00116284
0.00373243
-0.00136104
0.0038977
-0.00156851
0.00407702
-0.001786
0.0042718
-0.0020143
0.00448346
-0.0022543
0.0047135
-0.00250696
0.00496357
-0.00277324
0.00523534
-0.00305402
0.00553079
-0.00335061
0.00585313
-0.00366566
0.00620485
0.00658133
-0.00400104
-1.8883e-05
0.000625778
-7.50114e-05
0.00159807
-0.000166353
0.00234118
-0.000286905
0.00285949
-0.000429053
0.00319922
-0.000586088
0.00342556
-0.000753616
0.00359768
-0.000929615
0.00375482
-0.00111367
0.00391649
-0.00130612
0.00409015
-0.0015076
0.0042785
-0.00171883
0.00448303
-0.00194059
0.00470521
-0.00217371
0.00494662
-0.00241912
0.00520899
-0.0026778
0.00549402
-0.00295047
0.00580346
-0.00323785
0.00614051
-0.00354296
0.00650996
0.00690799
-0.00386962
-1.62606e-05
0.000642039
-6.67611e-05
0.00164857
-0.000151216
0.00242563
-0.000264827
0.00297311
-0.000400513
0.0033349
-0.00055158
0.00357663
-0.000713404
0.0037595
-0.000883723
0.00392514
-0.00106196
0.00409473
-0.0012484
0.00427659
-0.00144362
0.00447371
-0.0016483
0.00468772
-0.00186321
0.00492012
-0.00208914
0.00517255
-0.00232698
0.00544682
-0.00257769
0.00574472
-0.00284195
0.00606772
-0.00311951
0.00641807
-0.00341251
0.00680296
0.00722695
-0.00373147
-1.35654e-05
0.000655604
-5.82166e-05
0.00169322
-0.000135446
0.00250286
-0.000241736
0.00307939
-0.000370596
0.00346376
-0.000515375
0.00372141
-0.000671219
0.00391535
-0.000835605
0.00408952
-0.00100779
0.00426691
-0.00118795
0.00445675
-0.00137663
0.0046624
-0.0015745
0.00488559
-0.00178228
0.0051279
-0.00200072
0.00539099
-0.00223067
0.00567677
-0.0024731
0.00598716
-0.00272897
0.00632359
-0.00299776
0.00668686
-0.00327607
0.00708128
0.00753876
-0.00358788
-1.08094e-05
0.000666413
-4.9408e-05
0.00173182
-0.000119085
0.00257254
-0.000217673
0.00317798
-0.00033934
0.00358543
-0.000477512
0.00385958
-0.000627103
0.00406494
-0.000785312
0.00424773
-0.000951198
0.00443279
-0.00112485
0.0046304
-0.00130675
0.0048443
-0.00149753
0.00507637
-0.00169789
0.00532825
-0.00190856
0.00560167
-0.00213034
0.00589856
-0.00236417
0.00622098
-0.00261112
0.00657054
-0.00287226
0.00694801
-0.00314955
0.00735856
0.00781713
-0.00342791
-8.00714e-06
0.000674421
-4.0368e-05
0.00176418
-0.000102174
0.00263434
-0.000192683
0.00326849
-0.000306788
0.00369954
-0.000438031
0.00399082
-0.000581101
0.00420801
-0.000732897
0.00439953
-0.000892263
0.00459216
-0.00105917
0.0047973
-0.00123404
0.00501918
-0.00141748
0.00525981
-0.00161015
0.00552092
-0.00181276
0.00580428
-0.0020261
0.0061119
-0.00225107
0.00644595
-0.00248873
0.0068082
-0.00274031
0.00719959
-0.00300594
0.00762419
0.0080937
-0.00328251
-5.18165e-06
0.000679602
-3.11286e-05
0.00179013
-8.47564e-05
0.00268797
-0.000166815
0.00335055
-0.000272988
0.00380571
-0.000396978
0.00411481
-0.000533261
0.00434429
-0.000678418
0.00454469
-0.000831051
0.00474479
-0.000990996
0.00495725
-0.00115862
0.0051868
-0.00133447
0.00543566
-0.00151917
0.00570562
-0.00171344
0.00599854
-0.00191803
0.00631649
-0.0021338
0.00666172
-0.00236176
0.00703617
-0.00260311
0.00744093
-0.00285821
0.0078793
0.0083597
-0.00312422
-2.39999e-06
0.000682002
-2.17088e-05
0.00180944
-6.68778e-05
0.00273314
-0.000140125
0.0034238
-0.00023799
0.00390357
-0.000354403
0.00423123
-0.000483636
0.00447353
-0.000621935
0.00468298
-0.000767636
0.00489049
-0.000920421
0.00511003
-0.00108058
0.00534695
-0.0012486
0.00560369
-0.00142509
0.00588211
-0.00161071
0.00618416
-0.00180619
0.00651198
-0.00201235
0.00686787
-0.0022301
0.00725392
-0.00246054
0.00767137
-0.00270384
0.00812259
0.00861331
-0.00295744
1.795e-07
0.000681823
-1.20805e-05
0.0018217
-4.85852e-05
0.00276964
-0.000112669
0.00348788
-0.000201853
0.00399276
-0.000310361
0.00433973
-0.000432282
0.00459545
-0.000563515
0.00481422
-0.000702098
0.00502908
-0.000847538
0.00525547
-0.00100003
0.00549945
-0.00116002
0.00576367
-0.00132804
0.00605013
-0.0015047
0.00636083
-0.0016907
0.00669797
-0.00188674
0.00706391
-0.00209367
0.00746086
-0.00231252
0.00789022
-0.00254352
0.00835359
0.00885458
-0.00278479
3.50668e-06
0.000678316
-2.04491e-06
0.00182725
-2.99004e-05
0.0027975
-8.44976e-05
0.00354248
-0.000164639
0.0040729
-0.000264912
0.00444001
-0.000379262
0.0047098
-0.000503225
0.00493818
-0.000634519
0.00516037
-0.000772449
0.0053934
-0.000917101
0.0056441
-0.00106885
0.00591542
-0.00122816
0.00620944
-0.00139558
0.00652825
-0.00157168
0.00687407
-0.00175712
0.00724934
-0.00195268
0.00765642
-0.00215945
0.00809699
-0.00237793
0.00857207
0.00908367
-0.00260702
6.30601e-06
0.00067201
7.29728e-06
0.00182626
-1.06898e-05
0.00281549
-5.57161e-05
0.00358751
-0.000126428
0.00414361
-0.000218129
0.00453171
-0.000324645
0.00481631
-0.000441142
0.00505468
-0.000564989
0.00528422
-0.000695261
0.00552368
-0.000831917
0.00578076
-0.000975246
0.00605875
-0.00112563
0.00635983
-0.00128352
0.00668613
-0.00144938
0.00703994
-0.00162381
0.00742377
-0.00180765
0.00784026
-0.00200212
0.00829146
-0.00220801
0.00877796
0.00930032
-0.00242466
9.00138e-06
0.000663009
1.68244e-05
0.00181843
8.4317e-06
0.00282388
-2.63731e-05
0.00362231
-8.72957e-05
0.00420453
-0.0001701
0.00461451
-0.000268508
0.00491472
-0.000377346
0.00516351
-0.000493601
0.00540047
-0.000616089
0.00564616
-0.000744618
0.00590928
-0.000879375
0.0061935
-0.00102065
0.00650111
-0.00116878
0.00683425
-0.00132414
0.0071953
-0.00148732
0.00758695
-0.00165928
0.00801223
-0.00184146
0.00847364
-0.00203476
0.00897127
0.00950421
-0.00223866
1.162e-05
0.000651389
2.62298e-05
0.00180382
2.7072e-05
0.00282304
4.07155e-06
0.00364531
-4.73796e-05
0.00425599
-0.000120899
0.00468803
-0.00021093
0.00500475
-0.000311921
0.00526451
-0.000420455
0.00550901
-0.000535053
0.00576076
-0.000655351
0.00602958
-0.000781424
0.00631958
-0.000913461
0.00663315
-0.00105169
0.00697248
-0.00119644
0.00734005
-0.00134833
0.00773883
-0.00150846
0.00817236
-0.00167837
0.00864355
-0.00185903
0.00915192
0.00969501
-0.00204982
1.41515e-05
0.000637237
3.55054e-05
0.00178247
4.59117e-05
0.00281263
3.30388e-05
0.00365818
-6.43294e-06
0.00429546
-7.06164e-05
0.00475222
-0.00015201
0.00508615
-0.000244962
0.00535746
-0.000345654
0.0056097
-0.000452277
0.00586738
-0.000564274
0.00614158
-0.000681598
0.0064369
-0.000804344
0.00675589
-0.000932661
0.0071008
-0.00106686
0.00747425
-0.0012076
0.00787957
-0.00135605
0.00832082
-0.00151373
0.00880122
-0.0016815
0.0093197
0.00987225
-0.00185873
1.65834e-05
0.000620654
4.46044e-05
0.00175445
6.46901e-05
0.00279255
6.29397e-05
0.00365993
3.41326e-05
0.00432426
-1.95035e-05
0.00480585
-9.18667e-05
0.00515851
-0.000176572
0.00544216
-0.000269305
0.00570243
-0.000367891
0.00596597
-0.000471553
0.00624524
-0.000580117
0.00654547
-0.000693602
0.00686938
-0.000812117
0.00721931
-0.000935968
0.0075981
-0.00106583
0.00800944
-0.00120282
0.0084578
-0.00134819
0.0089466
-0.00150271
0.00947421
0.0100354
-0.00166583
1.88923e-05
0.000601761
5.34746e-05
0.00171987
8.33037e-05
0.00276272
9.29291e-05
0.00365031
7.55014e-05
0.00434169
3.24031e-05
0.00484895
-3.06217e-05
0.00522153
-0.000106859
0.0055184
-0.000191519
0.00578709
-0.000282024
0.00605648
-0.000377349
0.00634056
-0.000477195
0.00664531
-0.000581525
0.00697371
-0.000690437
0.00732822
-0.000804243
0.0077119
-0.000923556
0.00812875
-0.00104923
0.00858348
-0.00118216
0.00907953
-0.00132294
0.00961499
0.0101838
-0.00147138
2.10889e-05
0.000580672
6.20377e-05
0.00167892
0.000101612
0.00272314
0.000122833
0.00362909
0.000117232
0.00434729
8.49794e-05
0.0048812
3.16482e-05
0.00527487
-3.59606e-05
0.00558601
-0.000112414
0.00586355
-0.000194803
0.00613887
-0.000281813
0.00642757
-0.000373021
0.00673652
-0.000468343
0.00706903
-0.000567887
0.00742777
-0.000671945
0.00781596
-0.000780967
0.00823777
-0.000895404
0.00869791
-0.00101566
0.00919978
-0.00114224
0.00974158
0.010317
-0.00127545
2.3132e-05
0.00055754
7.02103e-05
0.00163184
0.000119465
0.00267389
0.000152477
0.00359607
0.000159073
0.0043407
0.000138173
0.0049021
9.48578e-05
0.00531818
3.61183e-05
0.00564475
-3.21831e-05
0.00593185
-0.000106365
0.00621305
-0.000185075
0.00650628
-0.000267748
0.00681919
-0.000354201
0.00715548
-0.000444575
0.00751814
-0.000539089
0.00791048
-0.000637945
0.00833663
-0.000741089
0.00880106
-0.000848423
0.00930711
-0.000960441
0.0098536
0.0104346
-0.00107799
2.4994e-05
0.000532546
7.79155e-05
0.00157892
0.000136715
0.00261509
0.000181662
0.00355113
0.000200821
0.00432154
0.000191725
0.0049112
0.000158843
0.00535106
0.000109304
0.00569429
4.93324e-05
0.00599182
-1.70005e-05
0.00627938
-8.72856e-05
0.00657657
-0.000161504
0.00689341
-0.000239149
0.00723313
-0.00032047
0.00759946
-0.000405481
0.00799549
-0.000494119
0.00842527
-0.0005858
0.00889274
-0.000680005
0.00940132
-0.000777266
0.00995086
0.0105362
-0.000878886
2.66551e-05
0.000505891
8.50786e-05
0.00152049
0.000153213
0.00254695
0.000210171
0.00349417
0.000242244
0.00428946
0.000245422
0.00490802
0.000223401
0.00537308
0.000183324
0.00573436
0.000131966
0.00604318
7.38394e-05
0.00633751
1.10975e-05
0.00663931
-5.44053e-05
0.00695891
-0.000123219
0.00730194
-0.000195471
0.00767172
-0.000270804
0.00807082
-0.000349032
0.00850349
-0.000429007
0.00897271
-0.000509942
0.00948225
-0.000592473
0.0100334
0.0106218
-0.000678115
2.80986e-05
0.000477793
9.16278e-05
0.00145697
0.000168803
0.00246978
0.000237778
0.00342519
0.000283084
0.00424416
0.000299021
0.00489208
0.000288333
0.00538377
0.000258053
0.00576464
0.00021541
0.00608582
0.000165581
0.00638734
0.000111391
0.0066935
5.37544e-05
0.00701655
-6.77212e-06
0.00736247
-6.95232e-05
0.00773447
-0.000134813
0.00813611
-0.000202334
0.00857102
-0.000270331
0.00904071
-0.00033792
0.00954984
-0.000405964
0.0101014
0.0106917
-0.000475779
2.93108e-05
0.000448482
9.7494e-05
0.00138878
0.000183329
0.00238394
0.000264244
0.00334428
0.000323054
0.00418535
0.000352243
0.0048629
0.000353399
0.00538262
0.000333307
0.00578474
0.000299594
0.00611953
0.000258071
0.00642886
0.000212051
0.00673952
0.000163049
0.00706555
0.000111564
0.00741395
5.7666e-05
0.00778837
1.74711e-06
0.00819203
-5.39706e-05
0.00862673
-0.000109747
0.00909649
-0.000164029
0.00960412
-0.000217823
0.0101552
0.010746
-0.000272148
3.02806e-05
0.000418201
0.000102613
0.00131645
0.000196634
0.00228992
0.000289316
0.0032516
0.000361844
0.00411282
0.00040477
0.00481997
0.000418323
0.00536906
0.000408859
0.0057942
0.000384337
0.00614405
0.000351216
0.00646198
0.000313434
0.0067773
0.000272904
0.00710608
0.00023042
0.00745644
0.000186412
0.00783237
0.000141579
0.00823686
9.64965e-05
0.00867182
5.26512e-05
0.00914033
1.06108e-05
0.00964616
-2.80637e-05
0.0101939
0.0107857
-6.7754e-05
3.09995e-05
0.000387202
0.000106928
0.00124052
0.000208564
0.00218829
0.000312729
0.00314743
0.000399115
0.00402644
0.000456247
0.00476284
0.000482781
0.00534253
0.000484446
0.00579254
0.000469433
0.00615907
0.000444859
0.00648655
0.000415361
0.0068068
0.00038333
0.00713811
0.000349923
0.00748984
0.000315766
0.00786653
0.00028162
0.00827101
0.00024833
0.00870511
0.000217027
0.00917163
0.000188442
0.00967475
0.000162157
0.0102202
0.0108102
0.000137602
3.14628e-05
0.000355739
0.00011039
0.00116159
0.000218974
0.0020797
0.000334216
0.00303219
0.0004345
0.00392615
0.000506274
0.00469106
0.000546403
0.0053024
0.000559759
0.00577918
0.000554631
0.0061642
0.000538788
0.0065024
0.000517622
0.00682797
0.000494118
0.00716162
0.000469813
0.00751415
0.000445568
0.00789078
0.00042225
0.00829432
0.000400663
0.00872669
0.000381661
0.00919064
0.000365735
0.00969068
0.000352893
0.010233
0.0108207
0.000342412
3.16691e-05
0.00032407
0.000112961
0.0010803
0.000227727
0.00196494
0.000353503
0.00290641
0.000467612
0.00381204
0.00055441
0.00460427
0.000608762
0.00524805
0.000634431
0.00575351
0.000639631
0.006159
0.000632743
0.00650928
0.000619969
0.00684074
0.00060498
0.00717661
0.000589749
0.00752938
0.0005754
0.00790512
0.000562854
0.00830687
0.000552834
0.00873671
0.000545949
0.00919752
0.000542583
0.00969404
0.000542893
0.0102327
0.0108171
0.000546478
3.16212e-05
0.000292449
0.000114614
0.000997309
0.000234704
0.00184485
0.000370329
0.00277079
0.000498048
0.00368433
0.000600171
0.00450214
0.000669373
0.00517884
0.000708031
0.00571485
0.000724074
0.00614295
0.000726418
0.00650694
0.00072211
0.00684505
0.000715589
0.00718313
0.000709334
0.00753563
0.000704748
0.00790971
0.000702793
0.00830882
0.000704123
0.00873538
0.000709163
0.00919248
0.00071823
0.00968497
0.000731644
0.0102193
0.0107995
0.000749274
3.13264e-05
0.000261122
0.000115341
0.000913294
0.000239813
0.00172037
0.00038445
0.00262615
0.000525397
0.00354338
0.000643038
0.0043845
0.000727695
0.00509419
0.000780064
0.00566248
0.00080754
0.00611548
0.000819453
0.00649503
0.000823709
0.0068408
0.000825587
0.00718125
0.000828144
0.00753308
0.000833095
0.00790476
0.000841466
0.00830045
0.000853866
0.00872299
0.000870613
0.00917573
0.000892004
0.00966358
0.000918548
0.0101928
0.0107678
0.000950238
3.07966e-05
0.000230326
0.000115149
0.000828942
0.000242993
0.00159253
0.000395648
0.0024735
0.000549258
0.00338977
0.000682468
0.00425129
0.00078313
0.00499352
0.000849967
0.00559565
0.000889542
0.0060759
0.000911436
0.00647313
0.000924391
0.00682784
0.000934592
0.00717105
0.000945757
0.00752191
0.000959958
0.00789056
0.000978336
0.00828207
0.0010015
0.00869983
0.00102972
0.0091475
0.00106335
0.00962995
0.00110307
0.010153
0.010722
0.00114889
3.0048e-05
0.000200278
0.000114064
0.000744925
0.000244217
0.00146238
0.000403749
0.00231397
0.000569248
0.00322427
0.000717898
0.00410264
0.000835031
0.00487639
0.000917105
0.00551357
0.000969521
0.00602349
0.00100189
0.00644076
0.00102374
0.00680599
0.00104221
0.00715258
0.00106176
0.00750236
0.0010849
0.00786742
0.00111294
0.00825403
0.00114655
0.00866622
0.00118605
0.00910801
0.00123184
0.00958416
0.00128475
0.0101001
0.0106619
0.0013448
2.91008e-05
0.000171177
0.00011213
0.000661896
0.000243498
0.00133101
0.000408632
0.00214883
0.000585024
0.00304788
0.000748771
0.00393889
0.000882712
0.00474245
0.000980774
0.00541551
0.00104684
0.00595742
0.00109029
0.00639731
0.0011213
0.00677498
0.00114802
0.00712587
0.00117575
0.00747463
0.00120751
0.00783565
0.00124489
0.00821665
0.00128866
0.00862246
0.00133923
0.00905743
0.0013971
0.00952629
0.00146322
0.010034
0.0105876
0.00153756
2.79793e-05
0.000143198
0.00010941
0.000580465
0.000240892
0.00119953
0.000410237
0.00197949
0.000596305
0.00286181
0.000774554
0.00376064
0.000925462
0.00459154
0.00104021
0.00530076
0.00112079
0.00587684
0.001176
0.0063421
0.00121656
0.00673442
0.00125158
0.00709084
0.00128732
0.0074389
0.00132743
0.00779554
0.00137384
0.00817025
0.0014275
0.0085688
0.00148897
0.00899595
0.00155884
0.00945642
0.00163813
0.00995473
0.0104989
0.00172681
2.6711e-05
0.000116487
0.000105982
0.000501194
0.000236503
0.00106901
0.000408579
0.00180741
0.000602883
0.0026675
0.000794757
0.00356877
0.000962564
0.00442374
0.00109459
0.00516874
0.00119056
0.00578088
0.00125834
0.00627431
0.00130893
0.00668382
0.00135242
0.00704736
0.00139606
0.00739525
0.00144428
0.00774732
0.00149945
0.00811508
0.00156278
0.00850547
0.001635
0.00892373
0.00171675
0.00937467
0.00180917
0.00986231
0.0103959
0.00191219
2.53261e-05
9.11606e-05
0.000101943
0.000424578
0.000230475
0.000940475
0.000403757
0.00163413
0.000604657
0.0024666
0.000808971
0.00336446
0.000993323
0.00423938
0.00114306
0.005019
0.00125528
0.00566865
0.00133652
0.00619308
0.00139777
0.00662257
0.00144999
0.00699515
0.00150153
0.00734372
0.00155768
0.00769116
0.00162139
0.00805137
0.00169419
0.00843267
0.00177701
0.00884092
0.00187054
0.00928113
0.001976
0.00975685
0.0102785
0.00209336
2.38571e-05
6.73035e-05
9.74017e-05
0.000351033
0.000222997
0.00081488
0.000395953
0.00146117
0.000601635
0.00226092
0.000816889
0.0031492
0.0010171
0.00403918
0.00118475
0.00485135
0.00131402
0.00553938
0.00140965
0.00609745
0.00148232
0.0065499
0.00154369
0.00693378
0.00160322
0.00728419
0.00166722
0.00762716
0.0017393
0.00797928
0.00182141
0.00835056
0.00191468
0.00874764
0.00201989
0.00917593
0.00213828
0.00963846
0.0101468
0.00226997
2.23382e-05
4.49653e-05
9.24791e-05
0.000280892
0.000214293
0.000693066
0.000385434
0.00129003
0.000593954
0.0020524
0.000818339
0.00292482
0.00103333
0.00382418
0.00121879
0.00466589
0.00136576
0.00539241
0.00147677
0.00598644
0.00156173
0.00646493
0.00163282
0.00686269
0.00170059
0.00721642
0.00177243
0.00755532
0.00185278
0.00789893
0.00194406
0.00825929
0.00204767
0.00864403
0.00216444
0.00905916
0.00229564
0.00950726
0.0100008
0.00244165
2.08045e-05
2.41608e-05
8.73031e-05
0.000214394
0.000204619
0.00057575
0.000372537
0.00112211
0.000581885
0.00184305
0.000813305
0.0026934
0.0010416
0.00359589
0.00124439
0.0044631
0.00140949
0.0052273
0.0015368
0.00585913
0.00163505
0.00636669
0.00171658
0.00678116
0.00179297
0.00714003
0.00187278
0.00747551
0.00196137
0.00781035
0.00206172
0.00815893
0.00217557
0.00853019
0.00230382
0.00893091
0.00244772
0.00936335
0.00984052
0.00260804
1.92916e-05
4.86914e-06
8.20057e-05
0.00015168
0.000194246
0.000463509
0.000357667
0.000958694
0.000565823
0.0016349
0.000801945
0.00245728
0.00104163
0.00335621
0.00126082
0.00424391
0.00144419
0.00504394
0.00158862
0.0057147
0.00170118
0.00625412
0.00179405
0.0066883
0.00187962
0.00705446
0.00196766
0.00738747
0.00206454
0.00771346
0.00217394
0.00804953
0.00229795
0.00840618
0.00243759
0.00879127
0.00259412
0.00920683
0.00966585
0.00276878
1.7835e-05
-1.29658e-05
7.6718e-05
9.27966e-05
0.000183459
0.000356769
0.000341266
0.000800887
0.000546274
0.00142989
0.000784591
0.00221896
0.00103335
0.00310745
0.00126753
0.00400972
0.00146888
0.00484259
0.00163106
0.00555252
0.00175898
0.0061262
0.00186419
0.00658309
0.00195969
0.00695896
0.00205637
0.00729079
0.00216172
0.00760811
0.00228019
0.00793106
0.00241432
0.00827205
0.00256533
0.00864026
0.00273437
0.00903779
0.00947668
0.00292354
1.64661e-05
-2.94319e-05
7.15629e-05
3.76997e-05
0.000172528
0.000255803
0.000323793
0.000649623
0.000523819
0.00122986
0.000761738
0.00198104
0.00101688
0.00285231
0.0012641
0.0037625
0.00148267
0.00462402
0.00166294
0.00537225
0.00180718
0.00598196
0.00192585
0.00646442
0.00203219
0.00685262
0.00213812
0.00718486
0.00225226
0.00749397
0.00237993
0.00780339
0.00252419
0.00812779
0.00268651
0.00847794
0.00286814
0.00885616
0.009273
0.00307182
1.52139e-05
-4.46458e-05
6.66481e-05
-1.37344e-05
0.000161703
0.000160749
0.000305687
0.000505638
0.000499076
0.00103647
0.000734008
0.00174611
0.000992575
0.00259374
0.00125037
0.0035047
0.00148485
0.00438954
0.00168312
0.00517399
0.0018445
0.00582058
0.00197778
0.00633114
0.00209605
0.00673435
0.00221202
0.0070689
0.00233543
0.00737055
0.00247254
0.00766628
0.002627
0.00797333
0.00280067
0.00830428
0.00299457
0.00866226
0.00905355
0.00321402
1.40997e-05
-5.87455e-05
6.20547e-05
-6.16895e-05
0.000151179
7.16244e-05
0.000287331
0.000369486
0.000472638
0.000851168
0.000702094
0.00151665
0.000960937
0.0023349
0.00122638
0.00323926
0.00147488
0.00414104
0.0016906
0.00495827
0.00186965
0.00564153
0.00201866
0.00618212
0.00215007
0.00660294
0.00227708
0.00694189
0.00241045
0.00723718
0.00255739
0.00751934
0.00272223
0.00780849
0.00290717
0.00811934
0.00311364
0.00845578
0.00882008
0.00334712
1.31337e-05
-7.18793e-05
5.78256e-05
-0.000106381
0.00014108
-1.16301e-05
0.000269006
0.000241561
0.000445011
0.000675162
0.000666686
0.00129498
0.000922609
0.00207898
0.0011924
0.00296947
0.00145245
0.00388099
0.0016845
0.00472622
0.00188139
0.00544464
0.00204716
0.00601636
0.00219301
0.00645709
0.00233224
0.00680265
0.00247646
0.00709296
0.00263381
0.00736199
0.00280933
0.00763297
0.00300555
0.00792312
0.00322303
0.0082383
0.00856313
0.00347998
1.23114e-05
-8.41906e-05
5.39544e-05
-0.000148024
0.000131434
-8.91092e-05
0.000250853
0.000122141
0.000416554
0.000509461
0.000628387
0.00108314
0.000878281
0.00182908
0.00114889
0.00269886
0.00141751
0.00361237
0.0016642
0.00447953
0.00187865
0.00523019
0.00206195
0.00583306
0.00222356
0.00629548
0.00237638
0.00664983
0.00253257
0.00693678
0.00270113
0.00719342
0.00288773
0.00744637
0.00309592
0.00771494
0.00332085
0.00801337
0.00830275
0.00358123
1.16101e-05
-9.58007e-05
5.03759e-05
-0.00018679
0.000122153
-0.000160887
0.000232845
1.14498e-05
0.000387423
0.000354884
0.000587635
0.000882932
0.000828606
0.00158811
0.00109643
0.00243104
0.00137025
0.00333855
0.00162932
0.00422047
0.00186055
0.00499896
0.00206187
0.00563174
0.00224047
0.00611688
0.00240835
0.00648195
0.00257783
0.0067673
0.00275866
0.0070126
0.00295696
0.00724807
0.0031773
0.0074946
0.00341408
0.00777659
0.00805593
0.0036609
1.09881e-05
-0.000106789
4.69635e-05
-0.000222766
0.000113035
-0.000226959
0.000214772
-9.02871e-05
0.000357542
0.000212114
0.000544642
0.000695832
0.000774115
0.00135864
0.00103568
0.00216947
0.00131111
0.00306312
0.0015798
0.00395178
0.00182647
0.00475228
0.0020459
0.00541231
0.00224258
0.0059202
0.00242702
0.0062975
0.00261131
0.00658301
0.0028057
0.0068182
0.0030168
0.00703697
0.00324993
0.00726146
0.00350383
0.00752269
0.00779556
0.00376421
1.03845e-05
-0.000117173
4.35333e-05
-0.000255914
0.000103767
-0.000287192
0.000196259
-0.000182779
0.000326616
8.17567e-05
0.000499377
0.000523071
0.000715158
0.00114286
0.000967276
0.00191735
0.00124069
0.0027897
0.0015159
0.00367657
0.00177618
0.004492
0.00201334
0.00517515
0.00222891
0.00570464
0.00243139