/*--------------------------------*- C++ -*----------------------------------*\
  =========                 |
  \\      /  F ield         | OpenFOAM: The Open Source CFD Toolbox
   \\    /   O peration     | Website:  https://openfoam.org
    \\  /    A nd           | Version:  7
     \\/     M anipulation  |
\*---------------------------------------------------------------------------*/
FoamFile
{
    version     2.0;
    format      ascii;
    class       volScalarField;
    location    "28.000462";
    object      p;
}
// * * * * * * * * * * * * * * * * * * * * * * * * * * * * * * * * * * * * * //

dimensions      [0 2 -2 0 0 0 0];

internalField   nonuniform List<scalar> 
5800
(
-0.250041
-0.250567
-0.251026
-0.251382
-0.251599
-0.251634
-0.251444
-0.251012
-0.250304
-0.242205
-0.243974
-0.245045
-0.245883
-0.246617
-0.247269
-0.247877
-0.24847
-0.249058
-0.249639
-0.250202
-0.250725
-0.251181
-0.251536
-0.251752
-0.251786
-0.251588
-0.251143
-0.250423
-0.242751
-0.244459
-0.245494
-0.246306
-0.247016
-0.247648
-0.248239
-0.248816
-0.249391
-0.249961
-0.250515
-0.251031
-0.251482
-0.251835
-0.252048
-0.252078
-0.251868
-0.251394
-0.250668
-0.243552
-0.245171
-0.246155
-0.246927
-0.247601
-0.248202
-0.248766
-0.24932
-0.249873
-0.250426
-0.250965
-0.251469
-0.251912
-0.252259
-0.252468
-0.252494
-0.252267
-0.251737
-0.251057
-0.244587
-0.246094
-0.247011
-0.24773
-0.248357
-0.248916
-0.249443
-0.249962
-0.250486
-0.251012
-0.251529
-0.252016
-0.252445
-0.252782
-0.252983
-0.253003
-0.252761
-0.252126
-0.251622
-0.245831
-0.247206
-0.248043
-0.248697
-0.249265
-0.249771
-0.250247
-0.250722
-0.251204
-0.251694
-0.252179
-0.25264
-0.253048
-0.25337
-0.253557
-0.253567
-0.253329
-0.252486
-0.252411
-0.248203
-0.247255
-0.248484
-0.24923
-0.249808
-0.250305
-0.250743
-0.251157
-0.251572
-0.252001
-0.252442
-0.252884
-0.253307
-0.253685
-0.253982
-0.254147
-0.254136
-0.25395
-0.252705
-0.253462
-0.247262
-0.248831
-0.249904
-0.25055
-0.251041
-0.251453
-0.25181
-0.252146
-0.252488
-0.252847
-0.253223
-0.253607
-0.25398
-0.254314
-0.254576
-0.254708
-0.254644
-0.254602
-0.252707
-0.254662
-0.246272
-0.25053
-0.251444
-0.251982
-0.252375
-0.25269
-0.252951
-0.253192
-0.253441
-0.253713
-0.254007
-0.254316
-0.254621
-0.254896
-0.255109
-0.255197
-0.255026
-0.255177
-0.252794
-0.255355
-0.245387
-0.252327
-0.253083
-0.253508
-0.253793
-0.253997
-0.254144
-0.254272
-0.254409
-0.254572
-0.254765
-0.254979
-0.255198
-0.255395
-0.25554
-0.255571
-0.255337
-0.255496
-0.252703
-0.256062
-0.244174
-0.254202
-0.254806
-0.255114
-0.255281
-0.255358
-0.255374
-0.255367
-0.25537
-0.255403
-0.255471
-0.25557
-0.255682
-0.255781
-0.255837
-0.255792
-0.255445
-0.255689
-0.252246
-0.25671
-0.242677
-0.256142
-0.256602
-0.25679
-0.256828
-0.256763
-0.256628
-0.256465
-0.256311
-0.256189
-0.25611
-0.25607
-0.256054
-0.256034
-0.25598
-0.255842
-0.255325
-0.255712
-0.251447
-0.257099
-0.241058
-0.258144
-0.25847
-0.258534
-0.258432
-0.258209
-0.257902
-0.257559
-0.257223
-0.256922
-0.256671
-0.25647
-0.256305
-0.256146
-0.25596
-0.255713
-0.254983
-0.255488
-0.250401
-0.256952
-0.239572
-0.260213
-0.260415
-0.26035
-0.260096
-0.259696
-0.259196
-0.25865
-0.258108
-0.257604
-0.257158
-0.256774
-0.256439
-0.256122
-0.25578
-0.255402
-0.254442
-0.25493
-0.249249
-0.25594
-0.238407
-0.262365
-0.26245
-0.26225
-0.26183
-0.261234
-0.260519
-0.259747
-0.258974
-0.258244
-0.257582
-0.256995
-0.256471
-0.255977
-0.255458
-0.254911
-0.253725
-0.253957
-0.248097
-0.253831
-0.237475
-0.264626
-0.264597
-0.264253
-0.26365
-0.26284
-0.261888
-0.260866
-0.259841
-0.258864
-0.257967
-0.257159
-0.256428
-0.255738
-0.255016
-0.254246
-0.252841
-0.252521
-0.246918
-0.250655
-0.236366
-0.267034
-0.266887
-0.266386
-0.265583
-0.264538
-0.263326
-0.262033
-0.260736
-0.259494
-0.258344
-0.257299
-0.256344
-0.255432
-0.254476
-0.253412
-0.251755
-0.25063
-0.245505
-0.24669
-0.234601
-0.269634
-0.269354
-0.268683
-0.26766
-0.266356
-0.264865
-0.263282
-0.261694
-0.260171
-0.258755
-0.257457
-0.256256
-0.255089
-0.253847
-0.252404
-0.250401
-0.248317
-0.243576
-0.2422
-0.231928
-0.272479
-0.272046
-0.271182
-0.269915
-0.268332
-0.26654
-0.264649
-0.262757
-0.26094
-0.259243
-0.257674
-0.256197
-0.254726
-0.253125
-0.251204
-0.248705
-0.245607
-0.240925
-0.237205
-0.228432
-0.275627
-0.27501
-0.273926
-0.272391
-0.270506
-0.268394
-0.266179
-0.263969
-0.261846
-0.259853
-0.257987
-0.256192
-0.254349
-0.252288
-0.249773
-0.246608
-0.242514
-0.237492
-0.231676
-0.224411
-0.279138
-0.278297
-0.276962
-0.275131
-0.27292
-0.27047
-0.267917
-0.265378
-0.262935
-0.260625
-0.258426
-0.256251
-0.253943
-0.251301
-0.248063
-0.244085
-0.23905
-0.233362
-0.226099
-0.219763
-0.283075
-0.281959
-0.280336
-0.278181
-0.275619
-0.272814
-0.26991
-0.267029
-0.264248
-0.26159
-0.259003
-0.256364
-0.253477
-0.250119
-0.246036
-0.241145
-0.235202
-0.228667
-0.220899
-0.213851
-0.287494
-0.286045
-0.284096
-0.281585
-0.27865
-0.275471
-0.272202
-0.268963
-0.265819
-0.262766
-0.259717
-0.256505
-0.252906
-0.248697
-0.243669
-0.237814
-0.230984
-0.22371
-0.215421
-0.207798
-0.292452
-0.290603
-0.288287
-0.28539
-0.282057
-0.278487
-0.274837
-0.271217
-0.267671
-0.264157
-0.260544
-0.256629
-0.252178
-0.246998
-0.240956
-0.234128
-0.226479
-0.218525
-0.209824
-0.201844
-0.297995
-0.295679
-0.292952
-0.289638
-0.285884
-0.281903
-0.277851
-0.273818
-0.269813
-0.265746
-0.261444
-0.256682
-0.251242
-0.244995
-0.237908
-0.230137
-0.221738
-0.213199
-0.204144
-0.19587
-0.304166
-0.30131
-0.298131
-0.29437
-0.290171
-0.285759
-0.281277
-0.276782
-0.272235
-0.267498
-0.26236
-0.256598
-0.250049
-0.242673
-0.234546
-0.225886
-0.216813
-0.207762
-0.198393
-0.189904
-0.310994
-0.307529
-0.303858
-0.299622
-0.294956
-0.290088
-0.285134
-0.280107
-0.27491
-0.269356
-0.26322
-0.256313
-0.24856
-0.240028
-0.230892
-0.22141
-0.211733
-0.202227
-0.192584
-0.18389
-0.318503
-0.31436
-0.310162
-0.305427
-0.30027
-0.294912
-0.289428
-0.28377
-0.277783
-0.271243
-0.263941
-0.255762
-0.246743
-0.237062
-0.226968
-0.216731
-0.206508
-0.196591
-0.1867
-0.177816
-0.3267
-0.321817
-0.317061
-0.311805
-0.306131
-0.300237
-0.294141
-0.287725
-0.280777
-0.273067
-0.264438
-0.254886
-0.244575
-0.233777
-0.222785
-0.211855
-0.201135
-0.19084
-0.180724
-0.171654
-0.335577
-0.329901
-0.324562
-0.318768
-0.312544
-0.306049
-0.29923
-0.291894
-0.283792
-0.274722
-0.264624
-0.253635
-0.242037
-0.230171
-0.218342
-0.206776
-0.195599
-0.184954
-0.174633
-0.165383
-0.345109
-0.338594
-0.332657
-0.326304
-0.319488
-0.312306
-0.304621
-0.296172
-0.286706
-0.276095
-0.264421
-0.251965
-0.239112
-0.226237
-0.21363
-0.201477
-0.189876
-0.178907
-0.168403
-0.158982
-0.355244
-0.34786
-0.341315
-0.334384
-0.326916
-0.318932
-0.310203
-0.300424
-0.289382
-0.277075
-0.263753
-0.249836
-0.235778
-0.221956
-0.208628
-0.195934
-0.183941
-0.172673
-0.162008
-0.152428
-0.365905
-0.357636
-0.350478
-0.342943
-0.334747
-0.325814
-0.315835
-0.304495
-0.291677
-0.277554
-0.262553
-0.247209
-0.232008
-0.217305
-0.203309
-0.190116
-0.177762
-0.166226
-0.155423
-0.1457
-0.376986
-0.367831
-0.360061
-0.351886
-0.342859
-0.3328
-0.32134
-0.308209
-0.293446
-0.27743
-0.260759
-0.244044
-0.227771
-0.21225
-0.197639
-0.183991
-0.171309
-0.159537
-0.148624
-0.138777
-0.388343
-0.378322
-0.369942
-0.361077
-0.351092
-0.339703
-0.326521
-0.311385
-0.294547
-0.27661
-0.258309
-0.240296
-0.223027
-0.206754
-0.191582
-0.177523
-0.16455
-0.152579
-0.141586
-0.13164
-0.399801
-0.388949
-0.379962
-0.370342
-0.359246
-0.346303
-0.331162
-0.313841
-0.294849
-0.275004
-0.255143
-0.235919
-0.217734
-0.200777
-0.1851
-0.170677
-0.157455
-0.145327
-0.134287
-0.12427
-0.411149
-0.399519
-0.389925
-0.379467
-0.367084
-0.352356
-0.335038
-0.315399
-0.294227
-0.272528
-0.251201
-0.230862
-0.211846
-0.194275
-0.178152
-0.16342
-0.149994
-0.137757
-0.126704
-0.116649
-0.422142
-0.409804
-0.399596
-0.3882
-0.374341
-0.357602
-0.337926
-0.31589
-0.292564
-0.269104
-0.246421
-0.225072
-0.205314
-0.187205
-0.170703
-0.155718
-0.142141
-0.129845
-0.118817
-0.108763
-0.432505
-0.419542
-0.408709
-0.396258
-0.380729
-0.361775
-0.33961
-0.315158
-0.289755
-0.264654
-0.240742
-0.218496
-0.198091
-0.179526
-0.162715
-0.147541
-0.133872
-0.121571
-0.110609
-0.100602
-0.441937
-0.428445
-0.416966
-0.403336
-0.38595
-0.364613
-0.339887
-0.313063
-0.285701
-0.259106
-0.234104
-0.21108
-0.190131
-0.171197
-0.154154
-0.138861
-0.125164
-0.112918
-0.102069
-0.0921668
-0.45012
-0.436201
-0.424052
-0.409115
-0.389704
-0.365866
-0.338573
-0.309476
-0.280313
-0.252391
-0.226449
-0.202776
-0.181391
-0.162182
-0.144992
-0.129655
-0.115998
-0.103868
-0.0931886
-0.0834621
-0.456722
-0.442487
-0.429637
-0.413271
-0.391701
-0.365305
-0.335503
-0.304286
-0.273511
-0.244445
-0.217725
-0.193538
-0.171832
-0.152449
-0.135203
-0.119903
-0.106357
-0.0944068
-0.0839562
-0.0744818
-0.461412
-0.446972
-0.43339
-0.415488
-0.391669
-0.362722
-0.330536
-0.297395
-0.265224
-0.235213
-0.207882
-0.183324
-0.161421
-0.141973
-0.124766
-0.109588
-0.0962276
-0.0845217
-0.0743559
-0.0651882
-0.463862
-0.449331
-0.434989
-0.41547
-0.389364
-0.357939
-0.323551
-0.288724
-0.255394
-0.224646
-0.196882
-0.172104
-0.150133
-0.130733
-0.113666
-0.0986977
-0.0855999
-0.0742091
-0.0643852
-0.0555019
-0.463765
-0.449252
-0.43413
-0.412945
-0.384573
-0.350812
-0.314456
-0.278209
-0.243973
-0.212707
-0.184694
-0.15985
-0.137947
-0.118715
-0.101892
-0.0872244
-0.0744689
-0.0634716
-0.0540732
-0.0453724
-0.460834
-0.446446
-0.430537
-0.407678
-0.377121
-0.341225
-0.303178
-0.265805
-0.230926
-0.199367
-0.171294
-0.146547
-0.124851
-0.105908
-0.0894379
-0.0751663
-0.0628432
-0.0523162
-0.0434215
-0.0349348
-0.454818
-0.440659
-0.423972
-0.399472
-0.366874
-0.329098
-0.289675
-0.251484
-0.216236
-0.184612
-0.15667
-0.132184
-0.110838
-0.0923145
-0.0763137
-0.0625352
-0.0507501
-0.0407899
-0.032315
-0.0243267
-0.445506
-0.431674
-0.414239
-0.388179
-0.353739
-0.314386
-0.273925
-0.235237
-0.199896
-0.168437
-0.140817
-0.11676
-0.0959225
-0.0779516
-0.0625471
-0.0493618
-0.0381851
-0.0288535
-0.0208491
-0.0134916
-0.432732
-0.41932
-0.401193
-0.373697
-0.337666
-0.297073
-0.255933
-0.217074
-0.181912
-0.150844
-0.123756
-0.100301
-0.080146
-0.0628505
-0.0481296
-0.0356449
-0.0251692
-0.0165197
-0.00907055
-0.00240788
-0.416381
-0.403477
-0.384738
-0.355976
-0.318646
-0.277181
-0.23573
-0.197022
-0.162306
-0.131867
-0.105542
-0.0828645
-0.0634936
-0.0470152
-0.0330959
-0.0214097
-0.0117226
-0.00381688
0.00299675
0.00891569
-0.396394
-0.384081
-0.364835
-0.335012
-0.296713
-0.254761
-0.213368
-0.175127
-0.141135
-0.111601
-0.0861751
-0.0644489
-0.0460181
-0.030481
-0.0174789
-0.00668794
0.00212728
0.00922301
0.0153317
0.0204543
-0.372764
-0.36112
-0.341497
-0.310854
-0.271944
-0.229899
-0.188924
-0.151471
-0.118498
-0.090037
-0.0657201
-0.0451066
-0.0277654
-0.0132926
-0.00131807
0.00848284
0.0163462
0.022566
0.0279052
0.0321747
-0.345543
-0.334639
-0.314793
-0.283603
-0.24446
-0.202695
-0.162496
-0.126151
-0.0944337
-0.0672663
-0.0442439
-0.0249008
-0.00879018
0.00449838
0.0153405
0.02406
0.0308948
0.0361749
0.0406811
0.0440367
-0.314835
-0.304734
-0.28485
-0.253418
-0.214395
-0.173254
-0.134212
-0.0992674
-0.0690439
-0.0433772
-0.0218255
-0.00390416
0.0108434
0.0228334
0.0324437
0.0399951
0.045729
0.0500101
0.0536216
0.0559988
-0.280798
-0.27156
-0.251849
-0.22047
-0.181833
-0.141779
-0.104222
-0.0709471
-0.0424442
-0.0184714
0.00144469
0.0178016
0.0310625
0.0416469
0.0499322
0.0562338
0.0608008
0.0640326
0.0666929
0.0680266
-0.243621
-0.235329
-0.216002
-0.184837
-0.147036
-0.108483
-0.0726919
-0.0413376
-0.0147643
0.00733715
0.0254649
0.0401257
0.0517859
0.0608664
0.06774
0.0727158
0.076059
0.0782038
0.0798589
0.080077
-0.20349
-0.196331
-0.177452
-0.14675
-0.110356
-0.073554
-0.039807
-0.0106009
0.0138534
0.0339223
0.0501232
0.0629684
0.0729254
0.0804131
0.085796
0.0893783
0.0914538
0.0924814
0.093045
0.0920077
-0.160644
-0.154884
-0.136321
-0.106774
-0.0719766
-0.0372193
-0.00576739
0.0210874
0.0432542
0.061147
0.0752981
0.0862221
0.0943857
0.100202
0.104025
0.106161
0.106943
0.106812
0.106088
0.103478
-0.115431
-0.111169
-0.093296
-0.0650739
-0.0321629
0.000278823
0.0292142
0.05354
0.0732722
0.0888647
0.10086
0.109772
0.116065
0.120144
0.122351
0.123007
0.122488
0.121121
0.118778
0.114214
-0.0685375
-0.0654194
-0.0486212
-0.0219534
0.00879863
0.0386849
0.0649128
0.0865585
0.103732
0.11692
0.126671
0.133497
0.137856
0.140143
0.140694
0.139853
0.138018
0.135294
0.131072
0.124855
-0.0200939
-0.0181627
-0.00262528
0.0222518
0.0506046
0.0777316
0.101093
0.119936
0.134451
0.145152
0.152589
0.15727
0.159647
0.160103
0.158971
0.156619
0.153419
0.149193
0.143085
0.137415
0.0295111
0.0301793
0.044318
0.0671916
0.0929404
0.117142
0.137512
0.153457
0.16524
0.173392
0.178465
0.180961
0.181322
0.179922
0.177095
0.173214
0.168576
0.162821
0.155365
0.149925
0.0798437
0.0791998
0.0918156
0.112506
0.135484
0.156632
0.17392
0.186902
0.195903
0.201468
0.204147
0.204436
0.202765
0.1995
0.194975
0.189553
0.183452
0.176258
0.16774
0.161927
0.130468
0.128482
0.139467
0.157828
0.17791
0.195916
0.210065
0.220049
0.226244
0.229207
0.229482
0.227558
0.223855
0.21873
0.212514
0.205548
0.197991
0.189456
0.17999
0.173495
0.180945
0.177603
0.18687
0.202793
0.219892
0.234705
0.245693
0.252673
0.256065
0.256432
0.254316
0.250193
0.244474
0.237508
0.229617
0.221122
0.21214
0.202336
0.19194
0.184597
0.230836
0.226138
0.233624
0.247035
0.261105
0.272713
0.280552
0.28455
0.285167
0.28297
0.278493
0.272202
0.2645
0.255725
0.246192
0.236195
0.22583
0.214817
0.203499
0.195226
0.279707
0.273665
0.279332
0.290195
0.301232
0.30966
0.314393
0.315462
0.313358
0.308649
0.301861
0.293454
0.283816
0.273279
0.262145
0.250688
0.23899
0.226819
0.214591
0.205345
0.327131
0.319773
0.323608
0.331924
0.339961
0.345271
0.346973
0.345192
0.340444
0.333298
0.324272
0.313815
0.302306
0.290067
0.277387
0.264523
0.251547
0.238272
0.225155
0.214917
0.372695
0.364059
0.36608
0.371885
0.376992
0.379279
0.378056
0.373532
0.366243
0.356756
0.345582
0.33316
0.319858
0.305989
0.291832
0.277624
0.263432
0.249111
0.235136
0.223904
0.416001
0.40614
0.406388
0.409754
0.412039
0.411431
0.407419
0.400283
0.390577
0.378865
0.365652
0.351365
0.336364
0.320952
0.305395
0.289917
0.274579
0.259276
0.244481
0.23227
0.456672
0.445651
0.444193
0.445226
0.44483
0.441486
0.434846
0.425254
0.413277
0.399478
0.38435
0.368314
0.351721
0.334864
0.317998
0.301331
0.284926
0.268712
0.253141
0.23998
0.494354
0.48225
0.479179
0.478016
0.475111
0.469219
0.460139
0.448268
0.434187
0.418453
0.401554
0.3839
0.365835
0.347643
0.329567
0.311803
0.294415
0.277366
0.261072
0.247002
0.528719
0.515621
0.511053
0.507859
0.502648
0.494422
0.483111
0.469161
0.45316
0.435663
0.417149
0.398022
0.378616
0.359208
0.340032
0.32127
0.302993
0.285189
0.268232
0.253308
0.55947
0.545476
0.539549
0.534516
0.527227
0.516905
0.503596
0.487783
0.470064
0.450989
0.431031
0.410587
0.389984
0.369491
0.349332
0.32968
0.31061
0.292138
0.274585
0.258873
0.586339
0.571559
0.564428
0.557774
0.548659
0.5365
0.521442
0.504002
0.484781
0.464328
0.443108
0.421514
0.399866
0.378426
0.357409
0.336981
0.317224
0.298172
0.280095
0.263676
0.609094
0.593645
0.585484
0.577446
0.566777
0.55306
0.536519
0.517699
0.497207
0.475586
0.4533
0.430732
0.4082
0.385959
0.364217
0.343133
0.322795
0.303257
0.284733
0.2677
0.627538
0.611545
0.602543
0.593375
0.581442
0.566459
0.548715
0.528778
0.507255
0.484688
0.461536
0.43818
0.414932
0.392042
0.369714
0.348099
0.327292
0.307363
0.288475
0.270932
0.641512
0.625105
0.615462
0.605435
0.592542
0.576598
0.557942
0.537157
0.514853
0.49157
0.467763
0.44381
0.420019
0.396638
0.373865
0.351848
0.330688
0.310464
0.2913
0.273363
0.650896
0.63421
0.624134
0.613529
0.599989
0.5834
0.564131
0.542777
0.519949
0.496184
0.471937
0.447584
0.423429
0.399719
0.376647
0.354361
0.332963
0.312542
0.293192
0.274986
0.449477
0.425139
0.401264
0.378043
0.355621
0.334104
0.313584
0.294141
0.275799
-0.252208
-0.251927
-0.25113
-0.249729
-0.251134
-0.247763
-0.249602
-0.248381
-0.245286
-0.247236
-0.246446
-0.242294
-0.244037
-0.243712
-0.243168
-0.238697
-0.240089
-0.240228
-0.240045
-0.234514
-0.2356
-0.236114
-0.236212
-0.236241
-0.230076
-0.230943
-0.231554
-0.231782
-0.232041
-0.232303
-0.225945
-0.226531
-0.22671
-0.226731
-0.227012
-0.22736
-0.220135
-0.222314
-0.222682
-0.222903
-0.223354
-0.223827
-0.224188
-0.215132
-0.217857
-0.218312
-0.218547
-0.219088
-0.219686
-0.220162
-0.210166
-0.213215
-0.213654
-0.213865
-0.21448
-0.215196
-0.215781
-0.205207
-0.208429
-0.208883
-0.20911
-0.2098
-0.210624
-0.211311
-0.20011
-0.203506
-0.204042
-0.204316
-0.205077
-0.205994
-0.206776
-0.194907
-0.198493
-0.19915
-0.199487
-0.200313
-0.201313
-0.202184
-0.189688
-0.193429
-0.194222
-0.194636
-0.195524
-0.196602
-0.197557
-0.184485
-0.188339
-0.189274
-0.189776
-0.190728
-0.191877
-0.192913
-0.179311
-0.183251
-0.184324
-0.18492
-0.185936
-0.187153
-0.188265
-0.174185
-0.178184
-0.179388
-0.180078
-0.181159
-0.18244
-0.183623
-0.169119
-0.173156
-0.174478
-0.175262
-0.176404
-0.177746
-0.178997
-0.164117
-0.168175
-0.169606
-0.170479
-0.171681
-0.173079
-0.174393
-0.159187
-0.163251
-0.16478
-0.165738
-0.166996
-0.168446
-0.169818
-0.154333
-0.158391
-0.16001
-0.161046
-0.162357
-0.163855
-0.16528
-0.149565
-0.153604
-0.155301
-0.156412
-0.157772
-0.159311
-0.160785
-0.144888
-0.148895
-0.150663
-0.151843
-0.153246
-0.154822
-0.156339
-0.140308
-0.144273
-0.146102
-0.147344
-0.148785
-0.150394
-0.151948
-0.135831
-0.139743
-0.141623
-0.142921
-0.144396
-0.146031
-0.147617
-0.131461
-0.135311
-0.137232
-0.138578
-0.140082
-0.141738
-0.143351
-0.127199
-0.13098
-0.132933
-0.134321
-0.135848
-0.13752
-0.139154
-0.123049
-0.126754
-0.128729
-0.130152
-0.131697
-0.13338
-0.13503
-0.119009
-0.122634
-0.124623
-0.126075
-0.127632
-0.129322
-0.130983
-0.115082
-0.118622
-0.120618
-0.122091
-0.123656
-0.125347
-0.127014
-0.111267
-0.114718
-0.116713
-0.118203
-0.119771
-0.12146
-0.123128
-0.107565
-0.110924
-0.112912
-0.114412
-0.11598
-0.117662
-0.119327
-0.103975
-0.10724
-0.109216
-0.11072
-0.112284
-0.113955
-0.115613
-0.100498
-0.103666
-0.105623
-0.107129
-0.108684
-0.11034
-0.111988
-0.0971314
-0.100202
-0.102136
-0.103638
-0.105181
-0.10682
-0.108453
-0.0938756
-0.0968467
-0.0987542
-0.100248
-0.101776
-0.103395
-0.10501
-0.0907288
-0.0936003
-0.095477
-0.0969592
-0.0984689
-0.100065
-0.101659
-0.0876898
-0.0904614
-0.092304
-0.0937714
-0.0952605
-0.0968308
-0.0984016
-0.0847568
-0.0874289
-0.0892346
-0.090684
-0.0921503
-0.093693
-0.095238
-0.081928
-0.0845014
-0.0862676
-0.0876964
-0.0891379
-0.0906511
-0.0921682
-0.0792015
-0.0816771
-0.0834019
-0.0848078
-0.0862226
-0.0877048
-0.0891922
-0.0765753
-0.0789544
-0.0806361
-0.0820171
-0.0834037
-0.0848535
-0.0863097
-0.0740473
-0.0763315
-0.0779688
-0.0793231
-0.0806803
-0.0820965
-0.0835202
-0.0716154
-0.0738064
-0.0753983
-0.0767244
-0.0780511
-0.079433
-0.080823
-0.0692772
-0.0713771
-0.072923
-0.0742196
-0.075515
-0.0768618
-0.0782174
-0.0670307
-0.0690417
-0.070541
-0.0718073
-0.0730706
-0.0743819
-0.0757024
-0.0648737
-0.0667979
-0.0682506
-0.0694857
-0.0707167
-0.0719921
-0.0732771
-0.0628039
-0.0646438
-0.0660498
-0.0672533
-0.0684516
-0.0696911
-0.0709403
-0.0608192
-0.0625774
-0.063937
-0.0651084
-0.0662738
-0.0674775
-0.0686909
-0.0589176
-0.0605965
-0.0619101
-0.0630494
-0.064182
-0.0653499
-0.0665275
-0.0570968
-0.0586992
-0.0599674
-0.0610745
-0.0621744
-0.0633069
-0.064449
-0.055355
-0.0568834
-0.0581071
-0.059182
-0.0602496
-0.0613472
-0.062454
-0.0536902
-0.0551474
-0.0563273
-0.0573704
-0.0584061
-0.0594692
-0.0605413
-0.0521005
-0.0534893
-0.0546263
-0.055638
-0.0566423
-0.0576716
-0.0587096
-0.0505842
-0.0519072
-0.0530025
-0.0539833
-0.0549567
-0.055953
-0.0569575
-0.0491395
-0.0503996
-0.0514543
-0.0524048
-0.0533481
-0.054312
-0.0552839
-0.0477649
-0.0489647
-0.0499801
-0.050901
-0.0518149
-0.0527475
-0.0536875
-0.0464589
-0.0476012
-0.0485785
-0.0494706
-0.050356
-0.0512582
-0.0521673
-0.04522
-0.0463075
-0.0472482
-0.0481123
-0.0489701
-0.049843
-0.0507222
-0.044047
-0.0450825
-0.045988
-0.0468251
-0.0476562
-0.0485007
-0.0493512
-0.0429388
-0.0439249
-0.0447967
-0.0456077
-0.0464132
-0.0472306
-0.0480533
-0.0418943
-0.0428337
-0.0436733
-0.0444594
-0.0452403
-0.0460318
-0.046828
-0.0409126
-0.0418081
-0.0426171
-0.0433793
-0.0441368
-0.0449035
-0.0456744
-0.0399931
-0.0408472
-0.0416273
-0.0423667
-0.0431021
-0.0438453
-0.0445922
-0.0391351
-0.0399506
-0.0407033
-0.0414213
-0.0421356
-0.0428567
-0.0435809
-0.0383382
-0.0391177
-0.0398449
-0.0405426
-0.0412372
-0.0419375
-0.0426404
-0.0376022
-0.0383485
-0.0390518
-0.0397306
-0.0404068
-0.0410877
-0.0417707
-0.0369272
-0.0376428
-0.038324
-0.0389854
-0.0396445
-0.0403074
-0.0409721
-0.0363132
-0.037001
-0.037662
-0.0383073
-0.0389507
-0.0395972
-0.040245
-0.0357608
-0.0364235
-0.0370662
-0.0376969
-0.0383262
-0.0389578
-0.0395903
-0.0352708
-0.0359111
-0.0365375
-0.0371551
-0.0377717
-0.03839
-0.0390089
-0.0348441
-0.035465
-0.036077
-0.0366832
-0.0372887
-0.0378954
-0.0385024
-0.0344821
-0.0350865
-0.0356864
-0.0362828
-0.0368789
-0.0374757
-0.0380725
-0.0341866
-0.0347775
-0.0353674
-0.0359559
-0.0365443
-0.037133
-0.0377215
-0.0339597
-0.0345401
-0.0351224
-0.0357048
-0.0362873
-0.0368699
-0.037452
-0.0338056
-0.034379
-0.0349561
-0.0355343
-0.0361127
-0.036691
-0.0372687
-0.0337211
-0.0342919
-0.0348671
-0.0354438
-0.0360207
-0.0365972
-0.037173
-0.0863522
-0.0945516
-0.102528
-0.110283
-0.117823
-0.125161
-0.132308
-0.139279
-0.146089
-0.152753
-0.159288
-0.165709
-0.17203
-0.17826
-0.184409
-0.190478
-0.196437
-0.202432
-0.208014
-0.215
-0.0833069
-0.0912474
-0.098985
-0.106526
-0.113877
-0.12105
-0.128056
-0.134904
-0.141609
-0.148183
-0.154638
-0.160987
-0.167238
-0.173404
-0.179477
-0.185506
-0.191362
-0.197519
-0.202943
-0.210412
-0.0803952
-0.0880312
-0.0954811
-0.102753
-0.109855
-0.116797
-0.123586
-0.130234
-0.13675
-0.143145
-0.149429
-0.155613
-0.161703
-0.167724
-0.173651
-0.179611
-0.18536
-0.191627
-0.197039
-0.204442
-0.0775988
-0.0849576
-0.0921502
-0.0991839
-0.106066
-0.112805
-0.119409
-0.125887
-0.132248
-0.138503
-0.144658
-0.150731
-0.15672
-0.162672
-0.16853
-0.174497
-0.180208
-0.186504
-0.191973
-0.199016
-0.0749353
-0.0820352
-0.0889888
-0.0958021
-0.102482
-0.109037
-0.115474
-0.121803
-0.128032
-0.134171
-0.140228
-0.146223
-0.152146
-0.158061
-0.163874
-0.169833
-0.175492
-0.18169
-0.187169
-0.193756
-0.0724035
-0.0792526
-0.0859724
-0.0925685
-0.0990473
-0.105417
-0.111685
-0.11786
-0.123949
-0.129966
-0.135912
-0.141813
-0.147646
-0.153489
-0.159214
-0.165091
-0.170663
-0.176685
-0.182174
-0.188419
-0.0699928
-0.0765972
-0.0830872
-0.0894677
-0.0957448
-0.101926
-0.108019
-0.114031
-0.11997
-0.125847
-0.131662
-0.137442
-0.143155
-0.148887
-0.154497
-0.160252
-0.16575
-0.171601
-0.177132
-0.183145
-0.0676941
-0.0740609
-0.0803263
-0.0864948
-0.0925721
-0.0985654
-0.104481
-0.110327
-0.116108
-0.121838
-0.12751
-0.133158
-0.13874
-0.14435
-0.14985
-0.155482
-0.160929
-0.166626
-0.172166
-0.177978
-0.0655012
-0.0716377
-0.0776843
-0.0836453
-0.0895259
-0.0953328
-0.101072
-0.106751
-0.112373
-0.117952
-0.12348
-0.128992
-0.134446
-0.139931
-0.14533
-0.150835
-0.156219
-0.161754
-0.167246
-0.17288
-0.063409
-0.0693222
-0.0751556
-0.0809137
-0.0866009
-0.0922237
-0.0977869
-0.103299
-0.108762
-0.114189
-0.119573
-0.124946
-0.130271
-0.135625
-0.140915
-0.146279
-0.151574
-0.156948
-0.16236
-0.167847
-0.0614118
-0.0671086
-0.0727348
-0.0782944
-0.0837916
-0.0892327
-0.0946219
-0.0999675
-0.10527
-0.110544
-0.115782
-0.121011
-0.126204
-0.131417
-0.136588
-0.141804
-0.146995
-0.152221
-0.157537
-0.16289
-0.0595046
-0.0649919
-0.0704164
-0.0757823
-0.0810933
-0.0863553
-0.0915722
-0.0967518
-0.101895
-0.107014
-0.112103
-0.117186
-0.122241
-0.127309
-0.132354
-0.137425
-0.142504
-0.147591
-0.152794
-0.15801
-0.0576826
-0.0629669
-0.0681957
-0.0733726
-0.0785012
-0.0835871
-0.0886339
-0.0936487
-0.0986326
-0.103597
-0.108536
-0.11347
-0.118386
-0.123309
-0.128225
-0.133154
-0.138109
-0.143056
-0.148133
-0.153208
-0.0559411
-0.0610292
-0.066068
-0.0710608
-0.0760111
-0.0809241
-0.0858033
-0.0906551
-0.0954809
-0.10029
-0.10508
-0.109865
-0.11464
-0.119418
-0.124201
-0.128987
-0.133811
-0.138616
-0.143561
-0.148493
-0.0542759
-0.0591744
-0.0640289
-0.0688426
-0.0736188
-0.0783624
-0.0830768
-0.0877677
-0.0924369
-0.0970921
-0.101733
-0.10637
-0.111002
-0.115636
-0.120281
-0.124924
-0.129612
-0.134276
-0.139086
-0.143873
-0.0526835
-0.0573986
-0.0620744
-0.0667138
-0.0713203
-0.0758982
-0.080451
-0.0849834
-0.089498
-0.0940007
-0.0984936
-0.102982
-0.107471
-0.11196
-0.116465
-0.120966
-0.125517
-0.13004
-0.134712
-0.139353
-0.0511596
-0.0556978
-0.0602002
-0.0646704
-0.0691117
-0.0735279
-0.0779223
-0.082299
-0.0866612
-0.0910134
-0.0953589
-0.0997011
-0.104046
-0.108392
-0.112756
-0.117116
-0.121527
-0.12591
-0.130441
-0.134938
-0.0497011
-0.0540685
-0.058403
-0.062709
-0.0669895
-0.0712479
-0.0754873
-0.0797115
-0.0839238
-0.0881277
-0.0923273
-0.0965245
-0.100727
-0.10493
-0.109154
-0.113372
-0.117644
-0.121886
-0.126275
-0.130629
-0.0483059
-0.0525079
-0.0566797
-0.0608262
-0.0649503
-0.0690549
-0.073143
-0.0772178
-0.0812829
-0.085341
-0.0893968
-0.0934509
-0.097512
-0.101574
-0.105657
-0.109736
-0.113867
-0.11797
-0.122216
-0.126429
-0.0469709
-0.0510127
-0.055027
-0.0590189
-0.0629909
-0.0669457
-0.070886
-0.0748149
-0.0787358
-0.0826509
-0.0865651
-0.0904783
-0.0943994
-0.0983217
-0.102266
-0.106206
-0.110197
-0.114162
-0.118264
-0.122338
-0.0456923
-0.0495794
-0.0534417
-0.0572836
-0.061108
-0.064917
-0.0687135
-0.0724999
-0.0762797
-0.0800548
-0.0838299
-0.0876047
-0.0913879
-0.0951726
-0.098979
-0.102782
-0.106634
-0.110462
-0.114422
-0.118356
-0.0444678
-0.0482055
-0.0519207
-0.0556174
-0.0592985
-0.062966
-0.0666223
-0.0702699
-0.0739119
-0.0775501
-0.0811889
-0.0848279
-0.0884754
-0.0921249
-0.0957953
-0.0994628
-0.103177
-0.10687
-0.110688
-0.114483
-0.043295
-0.0468882
-0.0504612
-0.0540174
-0.0575596
-0.0610895
-0.0646097
-0.0681221
-0.0716297
-0.0751342
-0.0786397
-0.0821458
-0.0856602
-0.0891769
-0.0927135
-0.0962477
-0.0998264
-0.103385
-0.107063
-0.110721
-0.0421712
-0.045625
-0.0490604
-0.0524808
-0.0558883
-0.0592849
-0.0626727
-0.0660537
-0.0694305
-0.0728046
-0.0761799
-0.0795561
-0.0829402
-0.0863267
-0.089732
-0.0931353
-0.0965806
-0.100007
-0.103548
-0.107068
-0.041094
-0.0444133
-0.0477159
-0.0510048
-0.0542821
-0.0575494
-0.0608088
-0.064062
-0.0673116
-0.0705587
-0.0738072
-0.0770564
-0.0803133
-0.0835724
-0.0868492
-0.0901242
-0.0934386
-0.0967353
-0.10014
-0.103526
-0.0400613
-0.0432508
-0.0464252
-0.0495871
-0.0527383
-0.0558805
-0.0590153
-0.0621445
-0.0652704
-0.0683941
-0.071519
-0.0746447
-0.0777774
-0.0809121
-0.0840633
-0.0872127
-0.090399
-0.0935683
-0.0968406
-0.100094
-0.0390709
-0.0421354
-0.045186
-0.0482252
-0.0512545
-0.0542755
-0.0572897
-0.0602987
-0.0633045
-0.0663083
-0.069313
-0.0723184
-0.0753302
-0.0783437
-0.0813724
-0.0843991
-0.0874604
-0.0905051
-0.0936476
-0.0967711
-0.038121
-0.0410649
-0.0439961
-0.0469168
-0.0498284
-0.0527321
-0.0556296
-0.0585221
-0.0614115
-0.0642989
-0.067187
-0.0700755
-0.0729696
-0.0758652
-0.0787745
-0.0816817
-0.084621
-0.0875441
-0.0905598
-0.0935565
-0.0372097
-0.0400375
-0.0428535
-0.0456598
-0.0484576
-0.0512481
-0.0540326
-0.0568123
-0.059589
-0.0623635
-0.0651385
-0.0679135
-0.0706934
-0.0734743
-0.0762677
-0.0790586
-0.0818791
-0.0846838
-0.087576
-0.090449
-0.0363353
-0.0390512
-0.0417562
-0.0444521
-0.0471402
-0.0498212
-0.0524965
-0.0551672
-0.0578347
-0.0605
-0.0631652
-0.0658302
-0.0684994
-0.071169
-0.0738497
-0.0765276
-0.0792328
-0.0819224
-0.0846943
-0.0874472
-0.0354964
-0.0381044
-0.0407024
-0.0432919
-0.045874
-0.0484494
-0.0510192
-0.0535844
-0.0561464
-0.0587059
-0.061265
-0.0638235
-0.0663852
-0.068947
-0.0715185
-0.0740868
-0.0766801
-0.079258
-0.0819131
-0.0845493
-0.0346912
-0.0371953
-0.0396902
-0.0421772
-0.0446572
-0.0471306
-0.0495986
-0.0520619
-0.0545219
-0.0569792
-0.0594357
-0.061891
-0.0643489
-0.0668062
-0.069272
-0.0717342
-0.074219
-0.0766886
-0.0792305
-0.0817536
-0.0339184
-0.0363224
-0.0387181
-0.0411064
-0.0434878
-0.045863
-0.0482327
-0.0505977
-0.0529593
-0.0553178
-0.057675
-0.0600307
-0.0623882
-0.0647445
-0.067108
-0.0694674
-0.0718473
-0.0742122
-0.0766444
-0.0790581
-0.0331765
-0.0354844
-0.0377846
-0.0400778
-0.0423643
-0.0446447
-0.0469196
-0.0491899
-0.0514564
-0.0537196
-0.0559811
-0.0582405
-0.0605009
-0.0627597
-0.0650244
-0.0672846
-0.0695631
-0.0718267
-0.0741529
-0.0764608
-0.0324624
-0.0346791
-0.036888
-0.0390898
-0.0412849
-0.0434739
-0.0456577
-0.0478365
-0.0500114
-0.0521827
-0.0543518
-0.0565183
-0.0586851
-0.0608497
-0.063019
-0.0651834
-0.067364
-0.06953
-0.0717538
-0.0739596
-0.0317752
-0.0339056
-0.036027
-0.0381408
-0.0402479
-0.0423491
-0.044445
-0.0465358
-0.0486225
-0.0507051
-0.0527851
-0.0548622
-0.0569388
-0.0590125
-0.0610899
-0.0631619
-0.0652481
-0.0673199
-0.0694449
-0.0715525
-0.0311185
-0.0331642
-0.0352009
-0.0372299
-0.0392523
-0.041269
-0.0432802
-0.0452862
-0.0472878
-0.0492852
-0.0512794
-0.0532702
-0.0552598
-0.0572461
-0.0592349
-0.0612179
-0.0632132
-0.0651943
-0.0672242
-0.0692371
-0.0304907
-0.0324538
-0.0344086
-0.0363559
-0.0382968
-0.040232
-0.0421617
-0.0440861
-0.0460058
-0.047921
-0.0498326
-0.0517404
-0.0536464
-0.0555484
-0.057452
-0.0593494
-0.0612573
-0.063151
-0.0650895
-0.0670114
-0.0298886
-0.0317723
-0.0336483
-0.0355172
-0.0373799
-0.0392367
-0.041088
-0.0429339
-0.0447749
-0.046611
-0.0484432
-0.0502712
-0.0520966
-0.0539177
-0.0557393
-0.0575544
-0.0593782
-0.0611881
-0.0630387
-0.0648731
-0.0293114
-0.0311189
-0.0329193
-0.0347129
-0.0365002
-0.0382818
-0.0400577
-0.0418282
-0.0435934
-0.0453536
-0.0471095
-0.0488607
-0.0506087
-0.052352
-0.0540949
-0.0558309
-0.057574
-0.0593034
-0.0610696
-0.06282
-0.0287583
-0.0304928
-0.0322205
-0.0339417
-0.0356568
-0.037366
-0.0390695
-0.0407675
-0.04246
-0.0441472
-0.0458297