/*--------------------------------*- C++ -*----------------------------------*\
  =========                 |
  \\      /  F ield         | OpenFOAM: The Open Source CFD Toolbox
   \\    /   O peration     | Website:  https://openfoam.org
    \\  /    A nd           | Version:  7
     \\/     M anipulation  |
\*---------------------------------------------------------------------------*/
FoamFile
{
    version     2.0;
    format      ascii;
    class       volScalarField;
    location    "4";
    object      p;
}
// * * * * * * * * * * * * * * * * * * * * * * * * * * * * * * * * * * * * * //

dimensions      [0 2 -2 0 0 0 0];

internalField   nonuniform List<scalar> 
433
(
0.411214
0.417945
0.411834
0.405187
0.398196
0.393785
0.413099
0.409094
0.404779
0.400157
0.395257
0.390038
0.384222
0.378003
0.374827
0.39245
0.390216
0.387738
0.384985
0.381936
0.378575
0.374902
0.370945
0.366658
0.361711
0.356289
0.354382
0.363345
0.362578
0.361757
0.360834
0.359761
0.358495
0.356997
0.355231
0.353172
0.350796
0.348103
0.345118
0.341791
0.337737
0.33312
0.332498
0.325402
0.32528
0.325289
0.325379
0.325501
0.325601
0.325628
0.325528
0.325253
0.324759
0.324005
0.322959
0.321592
0.319896
0.3179
0.315545
0.312388
0.308563
0.309213
0.284236
0.28507
0.286025
0.287047
0.28808
0.28907
0.289958
0.290691
0.291218
0.291493
0.291474
0.291128
0.290439
0.289432
0.288042
0.285763
0.282685
0.284558
0.245533
0.247458
0.24943
0.251389
0.253273
0.255024
0.256583
0.257897
0.258917
0.259598
0.259914
0.259886
0.259434
0.257983
0.255555
0.258546
0.206986
0.209895
0.212824
0.215708
0.218482
0.221082
0.223447
0.225517
0.227235
0.228562
0.229508
0.229981
0.229303
0.227334
0.231166
0.173619
0.177502
0.181304
0.184954
0.188385
0.191526
0.194306
0.196666
0.198598
0.199978
0.199921
0.19779
0.201432
0.14371
0.148416
0.152923
0.157153
0.161015
0.164417
0.167286
0.169392
0.169592
0.166498
0.168104
0.117396
0.122848
0.128043
0.132939
0.13752
0.141771
0.145735
0.150123
0.155666
0.0882908
0.0946951
0.100874
0.106789
0.112436
0.118228
0.125192
0.130609
0.0682328
0.0751894
0.0818154
0.0885508
0.0963226
0.101292
0.0508855
0.0584806
0.0668971
0.0721712
0.0374604
0.0432464
0.168153
0.17502
0.188477
0.205712
0.226242
0.24631
0.264148
0.270377
0.265534
0.225981
0.168879
0.175823
0.189503
0.207147
0.228461
0.249924
0.270152
0.280421
0.280553
0.253894
0.169548
0.176491
0.190258
0.208094
0.229849
0.252217
0.274113
0.287662
0.291752
0.276019
0.170182
0.177142
0.191017
0.20908
0.231321
0.254644
0.278198
0.295
0.302851
0.29649
0.170793
0.177774
0.191771
0.210081
0.232827
0.257127
0.282306
0.302319
0.313847
0.315747
0.17137
0.178374
0.192488
0.211034
0.234255
0.259485
0.286181
0.30925
0.32436
0.333596
0.171911
0.178939
0.193163
0.211929
0.235592
0.261699
0.2898
0.315741
0.334352
0.350092
0.172417
0.179469
0.193797
0.21277
0.236845
0.263779
0.293186
0.321802
0.343839
0.365327
0.172887
0.179965
0.194388
0.213555
0.238013
0.265723
0.296342
0.327425
0.352794
0.379358
0.173321
0.180427
0.194935
0.214284
0.239093
0.267524
0.299263
0.332595
0.361176
0.392222
0.214952
0.240084
0.269177
0.301944
0.337303
0.368944
0.40394
0.145518
0.147317
0.150011
0.150939
0.148642
0.140707
0.126745
0.105869
0.080066
0.0511242
0.148378
0.150691
0.154407
0.156699
0.156001
0.149491
0.136562
0.115522
0.0887772
0.0571042
0.151084
0.153912
0.15867
0.162396
0.163446
0.158609
0.147043
0.126125
0.0987114
0.0640956
0.15363
0.15697
0.162782
0.167996
0.17093
0.168014
0.158162
0.137712
0.109979
0.0722191
0.156016
0.159861
0.166726
0.173469
0.178404
0.177653
0.16988
0.150308
0.122681
0.0816034
0.158242
0.162579
0.170487
0.178785
0.185819
0.187467
0.182146
0.16394
0.136937
0.0924355
0.160308
0.165124
0.174057
0.183919
0.193132
0.197402
0.194915
0.178651
0.152905
0.105041
0.162218
0.167493
0.177426
0.188846
0.200293
0.207385
0.208088
0.194394
0.170559
0.119566
0.163972
0.169681
0.180572
0.193515
0.207192
0.217215
0.221327
0.210723
0.189024
0.134786
0.165572
0.171675
0.183453
0.197832
0.213648
0.226582
0.23415
0.227035
0.207249
0.148967
0.167034
0.173512
0.186135
0.201921
0.219949
0.236093
0.247899
0.245887
0.230432
0.172031
0.0307587
0.0214332
0.0350679
0.0245167
0.0154893
0.00750889
-0.000362594
0.0404161
0.0284794
0.0180876
0.00897205
3.8611e-05
0.0470118
0.0335141
0.021522
0.011082
0.000919752
0.0550945
0.0398458
0.0259801
0.0139969
0.00241108
0.0649444
0.0477317
0.031679
0.0179034
0.00466971
0.0769469
0.0575132
0.0389022
0.0230429
0.00789992
0.0915677
0.0696406
0.048011
0.0297049
0.0123267
0.109028
0.0844283
0.0593178
0.0382329
0.018278
0.130148
0.102663
0.0738839
0.0498204
0.0268745
0.15275
0.1194
0.0865389
0.0585587
0.0316551
)
;

boundaryField
{
    inlet
    {
        type            zeroGradient;
    }
    outlet
    {
        type            fixedValue;
        value           nonuniform 0();
    }
    cylinder
    {
        type            zeroGradient;
    }
    top
    {
        type            symmetryPlane;
    }
    bottom
    {
        type            symmetryPlane;
    }
    defaultFaces
    {
        type            empty;
    }
    procBoundary6to0
    {
        type            processor;
        value           nonuniform List<scalar> 
16
(
0.142506
0.143799
0.145501
0.145148
0.141412
0.132295
0.117604
0.0971214
0.0724618
0.0460395
0.0273131
0.0190696
0.0135701
0.0135701
0.00656439
-0.000387045
)
;
    }
    procBoundary6to1
    {
        type            processor;
        value           nonuniform List<scalar> 8(-0.00821546 -0.00886035 -0.00918948 -0.00910215 -0.00847447 -0.00714028 -0.00493772 -0.00156995);
    }
    procBoundary6to7
    {
        type            processor;
        value           nonuniform List<scalar> 
24
(
0.165886
0.169724
0.169724
0.134009
0.138883
0.138883
0.105951
0.111742
0.111742
0.081694
0.081694
0.0535303
0.0609894
0.0609894
0.0354257
0.0433353
0.0433353
0.0199531
0.028388
0.028388
0.00829573
0.0147314
0.00400613
0.00524449
)
;
    }
    procBoundary6to12
    {
        type            processor;
        value           nonuniform List<scalar> 
35
(
0.427066
0.43891
0.43196
0.424529
0.416802
0.416802
0.43942
0.434502
0.429276
0.423748
0.423748
0.423398
0.42023
0.416805
0.416805
0.399682
0.398044
0.396322
0.394472
0.394472
0.365818
0.364918
0.364109
0.364109
0.173717
0.180835
0.195437
0.195437
0.21556
0.240981
0.270676
0.30438
0.341543
0.376056
0.414523
)
;
    }
    procBoundary6to13
    {
        type            processor;
        value           nonuniform List<scalar> 8(0.325699 0.283573 0.283573 0.242052 0.243712 0.243712 0.204161 0.204161);
    }
}


// ************************************************************************* //
