/*--------------------------------*- C++ -*----------------------------------*\
  =========                 |
  \\      /  F ield         | OpenFOAM: The Open Source CFD Toolbox
   \\    /   O peration     | Website:  https://openfoam.org
    \\  /    A nd           | Version:  7
     \\/     M anipulation  |
\*---------------------------------------------------------------------------*/
FoamFile
{
    version     2.0;
    format      ascii;
    class       volVectorField;
    location    "4";
    object      U;
}
// * * * * * * * * * * * * * * * * * * * * * * * * * * * * * * * * * * * * * //

dimensions      [0 1 -1 0 0 0 0];

internalField   nonuniform List<vector> 
433
(
(0.660936 -0.254639 7.60456e-20)
(0.613043 -0.323314 6.78068e-20)
(0.630076 -0.312042 2.92642e-21)
(0.646766 -0.300504 -1.27899e-19)
(0.663164 -0.288768 1.04171e-19)
(0.678676 -0.277156 -1.67698e-20)
(0.566002 -0.390581 9.96927e-20)
(0.583853 -0.38102 -2.02855e-19)
(0.601336 -0.370633 2.18676e-20)
(0.618441 -0.359561 -4.33458e-20)
(0.635152 -0.347945 2.76729e-20)
(0.651462 -0.335918 1.68308e-19)
(0.667429 -0.323574 -1.19778e-19)
(0.683126 -0.310972 -1.3344e-20)
(0.697879 -0.298508 7.84809e-20)
(0.538247 -0.438681 3.20912e-20)
(0.556657 -0.432295 -1.16735e-20)
(0.57468 -0.424585 3.21454e-20)
(0.592303 -0.415685 -9.39743e-20)
(0.609521 -0.405734 1.1525e-19)
(0.626329 -0.394879 -1.34902e-19)
(0.642727 -0.383267 9.05813e-22)
(0.658707 -0.371046 7.73964e-20)
(0.674271 -0.358356 -3.65505e-20)
(0.689492 -0.345288 -1.43556e-19)
(0.704466 -0.331896 1.31921e-19)
(0.718443 -0.318647 1.03488e-19)
(0.491152 -0.471341 -1.7742e-20)
(0.51084 -0.47166 -6.34026e-20)
(0.530131 -0.470172 -4.11145e-20)
(0.548999 -0.466948 9.11081e-20)
(0.567424 -0.462078 -8.7418e-20)
(0.585392 -0.455671 -6.10073e-20)
(0.602898 -0.44785 7.75443e-20)
(0.619937 -0.438752 6.26348e-20)
(0.636515 -0.428521 -2.72006e-20)
(0.652638 -0.417308 1.01274e-20)
(0.668315 -0.405264 7.44374e-21)
(0.683551 -0.392545 -9.3949e-20)
(0.698354 -0.379294 4.54141e-20)
(0.712814 -0.3656 1.06777e-19)
(0.727052 -0.3515 -1.41948e-19)
(0.740247 -0.337541 1.30638e-19)
(0.460384 -0.477244 3.0432e-20)
(0.481395 -0.483831 -4.2906e-20)
(0.501995 -0.488453 7.83468e-20)
(0.522147 -0.491117 -9.3256e-20)
(0.541816 -0.491847 -2.31124e-20)
(0.560977 -0.49069 5.99998e-20)
(0.579609 -0.487716 -2.20756e-20)
(0.597699 -0.483011 5.11138e-20)
(0.615242 -0.476685 4.89229e-20)
(0.632239 -0.468861 -5.48074e-20)
(0.6487 -0.459678 -5.45783e-20)
(0.664637 -0.449283 1.93482e-19)
(0.680071 -0.437831 7.4304e-21)
(0.695022 -0.425476 -9.54812e-20)
(0.709505 -0.412378 -8.61074e-20)
(0.723539 -0.398685 1.30082e-19)
(0.73723 -0.384477 -6.96636e-20)
(0.750728 -0.369767 1.25623e-19)
(0.763145 -0.355183 -5.3479e-20)
(0.512707 -0.499584 -2.20098e-20)
(0.533569 -0.5048 -4.33801e-20)
(0.553862 -0.508 -9.01472e-20)
(0.573554 -0.509204 7.9482e-20)
(0.592623 -0.508455 1.44465e-20)
(0.611053 -0.505815 -3.18478e-20)
(0.628837 -0.501371 -2.72855e-20)
(0.645978 -0.495229 7.98589e-20)
(0.662485 -0.487513 -1.47262e-19)
(0.678378 -0.478361 7.78985e-20)
(0.69368 -0.467925 -7.88105e-20)
(0.708425 -0.456361 2.11492e-19)
(0.722647 -0.443827 -1.38174e-19)
(0.736372 -0.430485 5.86529e-20)
(0.749632 -0.416485 2.50525e-20)
(0.762552 -0.401895 2.16159e-20)
(0.775314 -0.386695 -8.48991e-20)
(0.786964 -0.371585 -3.09666e-20)
(0.586027 -0.521902 -4.53026e-20)
(0.605792 -0.523639 -1.40126e-20)
(0.624815 -0.523368 2.45299e-20)
(0.643085 -0.521146 4.11078e-21)
(0.660601 -0.517055 4.71306e-20)
(0.677372 -0.511198 8.86946e-21)
(0.693414 -0.503699 -1.73961e-20)
(0.708756 -0.494696 -4.76223e-20)
(0.723434 -0.484342 1.69004e-19)
(0.737493 -0.472797 -7.87481e-20)
(0.750981 -0.460223 6.44448e-22)
(0.763941 -0.446785 -4.88519e-20)
(0.776418 -0.432637 -1.24704e-19)
(0.788563 -0.417828 5.89216e-20)
(0.8006 -0.402292 -1.5943e-20)
(0.811511 -0.38678 5.17302e-20)
(0.638265 -0.535077 1.82645e-21)
(0.657298 -0.535349 2.93199e-20)
(0.675462 -0.533621 -7.79877e-21)
(0.692759 -0.52997 8.28735e-22)
(0.709201 -0.524493 7.79713e-21)
(0.724814 -0.517313 -2.32014e-21)
(0.739634 -0.508567 5.2242e-20)
(0.753706 -0.498412 -6.66103e-20)
(0.767087 -0.48701 1.44756e-20)
(0.779839 -0.474533 -6.16923e-20)
(0.792021 -0.461153 1.05092e-19)
(0.803698 -0.447035 -1.31779e-19)
(0.815054 -0.432222 1.22485e-19)
(0.826381 -0.416582 -3.31504e-20)
(0.836607 -0.400863 4.95298e-21)
(0.707948 -0.543172 4.72329e-20)
(0.725089 -0.540036 -5.90803e-20)
(0.741264 -0.535023 8.23667e-20)
(0.756502 -0.528249 -7.25015e-20)
(0.770847 -0.519852 5.7035e-20)
(0.784351 -0.509989 -1.09123e-19)
(0.797079 -0.498829 -8.30284e-21)
(0.809105 -0.486553 3.69462e-20)
(0.820501 -0.473354 1.99141e-20)
(0.83134 -0.459424 1.31394e-19)
(0.841835 -0.444818 -7.14174e-20)
(0.852397 -0.429323 -1.65305e-20)
(0.862007 -0.41363 -4.89008e-20)
(0.77338 -0.542719 -2.88204e-20)
(0.78833 -0.53642 -1.01839e-20)
(0.802283 -0.528434 -4.02427e-20)
(0.815298 -0.518912 4.80965e-20)
(0.827445 -0.508021 -2.06825e-20)
(0.838803 -0.495941 -6.41478e-20)
(0.849443 -0.482867 -3.18025e-20)
(0.859431 -0.46899 9.86081e-20)
(0.868943 -0.454351 2.67532e-20)
(0.878482 -0.438708 -1.23245e-19)
(0.88747 -0.422982 4.03309e-20)
(0.833929 -0.534296 4.78552e-21)
(0.84666 -0.525156 -6.68664e-21)
(0.8585 -0.514546 -2.49544e-21)
(0.869578 -0.502626 -3.51061e-20)
(0.880071 -0.489563 -1.007e-20)
(0.890236 -0.475511 9.15976e-20)
(0.900506 -0.460607 -5.65288e-20)
(0.911702 -0.445263 -2.26024e-20)
(0.925491 -0.430869 3.73724e-20)
(0.878224 -0.529013 1.1356e-20)
(0.889978 -0.518871 -2.86843e-20)
(0.901024 -0.50737 1.9954e-20)
(0.911608 -0.494697 1.95487e-20)
(0.922062 -0.48106 -9.85868e-21)
(0.93279 -0.466775 1.72222e-20)
(0.944168 -0.452559 1.85955e-20)
(0.956883 -0.439189 -6.09071e-20)
(0.93231 -0.510298 -1.11386e-20)
(0.942858 -0.498298 3.15349e-20)
(0.953219 -0.485386 -5.97782e-20)
(0.963644 -0.47194 2.50135e-20)
(0.974132 -0.45867 2.85512e-20)
(0.98485 -0.44583 -3.13378e-20)
(0.983139 -0.487972 9.44153e-21)
(0.992833 -0.475301 -4.9887e-21)
(1.0021 -0.462684 2.93437e-20)
(1.01096 -0.450075 -2.06526e-21)
(1.02868 -0.464593 -1.89578e-20)
(1.03606 -0.452204 1.93156e-21)
(0.999834 -0.00616275 -1.03258e-21)
(0.992024 -0.0186772 1.52094e-21)
(0.979102 -0.0335923 1.44587e-21)
(0.961667 -0.0535453 -4.38313e-21)
(0.941983 -0.0806745 1.53238e-20)
(0.919915 -0.118341 -8.51863e-21)
(0.900986 -0.166851 5.19956e-21)
(0.885415 -0.230873 4.35943e-21)
(0.885011 -0.302966 -5.81372e-21)
(0.894422 -0.388497 3.09024e-21)
(0.999825 -0.00585669 4.80311e-21)
(0.991873 -0.0177814 -1.20383e-20)
(0.978597 -0.0319827 -5.98442e-22)
(0.960592 -0.0510051 -1.38653e-21)
(0.939814 -0.07682 9.56718e-21)
(0.916143 -0.112874 5.22131e-21)
(0.894292 -0.15937 -2.05638e-20)
(0.875304 -0.221658 6.05046e-21)
(0.867736 -0.292686 1.28533e-20)
(0.874129 -0.376312 -1.74092e-20)
(0.99982 -0.00554153 3.36246e-21)
(0.991749 -0.0168548 4.11783e-21)
(0.978156 -0.030313 1.11756e-20)
(0.959645 -0.0483636 2.89211e-21)
(0.93787 -0.0728061 -6.38315e-21)
(0.912739 -0.107135 -2.00162e-20)
(0.888145 -0.151465 1.69235e-20)
(0.865841 -0.211583 1.50644e-20)
(0.851396 -0.281349 4.09037e-21)
(0.852682 -0.362361 8.35222e-21)
(0.999817 -0.00522786 3.39014e-21)
(0.991646 -0.015931 -3.81969e-21)
(0.977767 -0.0286564 -8.85941e-21)
(0.958804 -0.0457542 -4.55364e-21)
(0.936117 -0.0688625 -3.45632e-21)
(0.909655 -0.101494 1.49364e-20)
(0.882485 -0.143707 -9.98876e-21)
(0.856984 -0.201481 -8.14772e-21)
(0.836062 -0.269896 2.3074e-20)
(0.831113 -0.348084 -4.07032e-20)
(0.999817 -0.00491428 -1.13924e-20)
(0.99156 -0.0150021 1.4557e-20)
(0.977424 -0.0269911 2.91267e-21)
(0.958055 -0.0431296 2.45416e-21)
(0.934531 -0.0649008 2.66418e-21)
(0.906854 -0.0958009 1.48365e-20)
(0.877274 -0.135869 -3.3698e-20)
(0.848699 -0.191067 1.5694e-20)
(0.82175 -0.257871 1.60713e-20)
(0.809955 -0.333175 2.25531e-21)
(0.999817 -0.00459851 6.12957e-21)
(0.99149 -0.0140642 4.33133e-21)
(0.97712 -0.0253078 -4.87051e-21)
(0.95739 -0.0404706 -5.12329e-21)
(0.933097 -0.0608874 -8.08944e-21)
(0.904311 -0.0900009 1.73666e-22)
(0.872487 -0.127864 -6.36001e-21)
(0.840961 -0.180247 2.56392e-20)
(0.808456 -0.245085 6.05345e-21)
(0.789517 -0.317419 -2.84773e-20)
(0.999819 -0.00428139 -1.64395e-21)
(0.991431 -0.0131187 -4.44969e-21)
(0.97685 -0.0236093 -1.46312e-20)
(0.956799 -0.0377823 2.3689e-20)
(0.931801 -0.056832 1.49168e-20)
(0.902005 -0.08411 4.86678e-21)
(0.868104 -0.119713 -1.53916e-20)
(0.83375 -0.169078 1.72703e-21)
(0.796163 -0.231556 -5.26858e-21)
(0.770004 -0.30077 -2.18858e-20)
(0.999821 -0.00396366 5.60363e-21)
(0.991383 -0.0121667 -5.98779e-21)
(0.976612 -0.0218986 2.82585e-21)
(0.956274 -0.0350702 6.097e-21)
(0.930632 -0.0527438 -2.20106e-20)
(0.899916 -0.078144 -5.68808e-21)
(0.864107 -0.111434 3.04759e-21)
(0.827053 -0.157612 -3.34221e-22)
(0.784847 -0.217317 7.10463e-22)
(0.751566 -0.283203 -1.65881e-20)
(0.999823 -0.00364564 -5.34926e-21)
(0.991344 -0.0112082 -7.71275e-21)
(0.976401 -0.0201777 1.09372e-20)
(0.955809 -0.0323369 -2.70729e-21)
(0.929579 -0.0486269 1.82804e-21)
(0.898027 -0.0721106 3.92752e-21)
(0.86048 -0.103033 -1.16461e-20)
(0.820859 -0.145883 1.33584e-20)
(0.774484 -0.202405 4.02705e-20)
(0.734309 -0.264702 -3.99345e-20)
(0.999826 -0.00332753 -7.31059e-21)
(0.991312 -0.0102419 1.27729e-20)
(0.976214 -0.0184478 3.44409e-21)
(0.955398 -0.0295845 -1.26177e-20)
(0.928635 -0.0444839 9.71701e-21)
(0.896325 -0.0660165 5.8213e-21)
(0.85721 -0.0945138 -2.96359e-21)
(0.815165 -0.13392 1.39575e-20)
(0.765048 -0.186864 -3.05791e-20)
(0.718314 -0.245275 9.09103e-21)
(0.955038 -0.0268151 -1.56723e-20)
(0.927794 -0.0403175 -8.53769e-21)
(0.894798 -0.059869 6.82056e-21)
(0.854284 -0.0858826 -8.2719e-21)
(0.80997 -0.121751 8.97535e-21)
(0.756516 -0.170746 8.78206e-21)
(0.70364 -0.224948 -2.37623e-20)
(1.00003 -0.00985902 0)
(0.997663 -0.0288048 0)
(0.995042 -0.0489944 0)
(0.993247 -0.0715862 0)
(0.995017 -0.0977991 0)
(1.00066 -0.125935 0)
(1.01252 -0.154932 0)
(1.02959 -0.182114 0)
(1.05162 -0.203573 0)
(1.07715 -0.226283 0)
(1.00002 -0.00965729 0)
(0.997043 -0.0283034 0)
(0.993414 -0.0484494 0)
(0.990125 -0.0714186 0)
(0.990342 -0.0986116 0)
(0.99413 -0.128471 0)
(1.00499 -0.160139 0)
(1.02117 -0.190435 0)
(1.04424 -0.215547 0)
(1.07076 -0.242006 0)
(1.00001 -0.00941707 0)
(0.996424 -0.0276861 0)
(0.991763 -0.0476811 0)
(0.986922 -0.0709087 0)
(0.985437 -0.0989315 0)
(0.987128 -0.13045 0)
(0.996701 -0.164795 0)
(1.01153 -0.198417 0)
(1.03556 -0.22768 0)
(1.06272 -0.258333 0)
(1 -0.00914144 0)
(0.995813 -0.0269605 0)
(0.990103 -0.0466999 0)
(0.983677 -0.0700603 0)
(0.980351 -0.0987443 0)
(0.979723 -0.13183 0)
(0.987678 -0.168796 0)
(1.00066 -0.205962 0)
(1.02555 -0.239854 0)
(1.05279 -0.275153 0)
(0.999985 -0.00883372 0)
(0.995215 -0.0261351 0)
(0.988452 -0.0455188 0)
(0.980431 -0.068882 0)
(0.975139 -0.0980446 0)
(0.972006 -0.132571 0)
(0.977966 -0.172043 0)
(0.988605 -0.212964 0)
(1.01412 -0.25191 0)
(1.04071 -0.292325 0)
(0.999968 -0.00849737 0)
(0.994637 -0.0252195 0)
(0.98683 -0.0441535 0)
(0.977225 -0.0673863 0)
(0.969864 -0.0968355 0)
(0.964079 -0.132641 0)
(0.967625 -0.174441 0)
(0.97545 -0.219302 0)
(1.00119 -0.263617 0)
(1.0262 -0.309647 0)
(0.999948 -0.00813583 0)
(0.994085 -0.024223 0)
(0.985256 -0.0426201 0)
(0.974103 -0.0655876 0)
(0.964596 -0.0951235 0)
(0.956053 -0.132 0)
(0.956734 -0.175886 0)
(0.961328 -0.224805 0)
(0.986618 -0.274613 0)
(1.00899 -0.326785 0)
(0.999926 -0.00775252 0)
(0.993566 -0.0231554 0)
(0.983753 -0.0409351 0)
(0.971107 -0.063501 0)
(0.959413 -0.0929183 0)
(0.94805 -0.130611 0)
(0.945405 -0.176287 0)
(0.946425 -0.22927 0)
(0.970217 -0.284483 0)
(0.988857 -0.343382 0)
(0.999903 -0.00735238 0)
(0.993086 -0.022031 0)
(0.982343 -0.0391253 0)
(0.968284 -0.0611643 0)
(0.9544 -0.0902765 0)
(0.940193 -0.128521 0)
(0.933778 -0.17572 0)
(0.93095 -0.232717 0)
(0.95175 -0.293308 0)
(0.965773 -0.359942 0)
(0.999878 -0.00694424 0)
(0.992653 -0.0208787 0)
(0.98105 -0.03725 0)
(0.965673 -0.0586818 0)
(0.949634 -0.0873791 0)
(0.932584 -0.125993 0)
(0.921977 -0.174608 0)
(0.914999 -0.23561 0)
(0.930725 -0.30205 0)
(0.940365 -0.378446 0)
(0.999853 -0.00653168 0)
(0.992275 -0.019716 0)
(0.979891 -0.0353492 0)
(0.963304 -0.0561166 0)
(0.945168 -0.0842845 0)
(0.925269 -0.123008 0)
(0.910076 -0.172692 0)
(0.898458 -0.23709 0)
(0.906292 -0.309135 0)
(0.914611 -0.395953 0)
(1.09454 -0.221918 3.36325e-22)
(1.10142 -0.220078 -3.74174e-21)
(1.09028 -0.237826 5.86314e-21)
(1.09816 -0.236012 3.18974e-21)
(1.10531 -0.23403 -5.89892e-24)
(1.11217 -0.231918 1.4786e-21)
(1.11902 -0.229683 1.37784e-24)
(1.08454 -0.254539 -3.85615e-21)
(1.09356 -0.25282 -4.00942e-21)
(1.10176 -0.250877 2.37237e-21)
(1.1096 -0.248761 6.98863e-22)
(1.11739 -0.246482 4.52374e-23)
(1.0771 -0.272016 -8.41554e-21)
(1.08741 -0.270485 5.51208e-21)
(1.09682 -0.268659 2.63983e-21)
(1.10577 -0.266602 7.05126e-22)
(1.11464 -0.264332 -2.28214e-22)
(1.06768 -0.290193 4.34271e-21)
(1.07946 -0.288974 -2.08099e-21)
(1.09025 -0.28737 -4.89356e-22)
(1.10047 -0.285463 -2.77549e-21)
(1.11059 -0.283278 3.34102e-22)
(1.05597 -0.308982 1.13865e-20)
(1.06941 -0.308242 6.5301e-22)
(1.0818 -0.307002 -4.01231e-21)
(1.09347 -0.305371 -1.7086e-21)
(1.10501 -0.303378 -1.1309e-22)
(1.04168 -0.328254 -2.13794e-20)
(1.05699 -0.328231 4.42411e-21)
(1.0712 -0.327558 4.82785e-21)
(1.08454 -0.326375 4.09448e-21)
(1.09771 -0.324722 1.44524e-21)
(1.02454 -0.347907 1.56671e-20)
(1.04198 -0.348923 -3.77579e-21)
(1.05828 -0.349089 -1.43684e-20)
(1.07351 -0.348589 1.64774e-21)
(1.08856 -0.347474 -2.21707e-21)
(1.00433 -0.368247 1.70444e-21)
(1.02419 -0.370554 1.32626e-21)
(1.04287 -0.371821 1.81568e-20)
(1.06025 -0.372258 -4.55554e-21)
(1.07746 -0.371891 3.35631e-21)
(0.981446 -0.389521 -4.1348e-20)
(1.00409 -0.392975 4.80165e-21)
(1.02537 -0.395526 -7.31373e-21)
(1.0452 -0.39713 1.04277e-20)
(1.06488 -0.397695 -4.78308e-21)
(0.956279 -0.410748 4.96392e-20)
(0.98098 -0.416947 -2.97734e-21)
(1.00435 -0.42228 -5.0892e-21)
(1.02678 -0.42595 -3.55596e-21)
(1.04915 -0.427914 4.89125e-21)
)
;

boundaryField
{
    inlet
    {
        type            uniformFixedValue;
        uniformValue    constant (1 0 0);
        value           uniform (1 0 0);
    }
    outlet
    {
        type            pressureInletOutletVelocity;
        value           nonuniform 0();
    }
    cylinder
    {
        type            fixedValue;
        value           nonuniform 0();
    }
    top
    {
        type            symmetryPlane;
    }
    bottom
    {
        type            symmetryPlane;
    }
    defaultFaces
    {
        type            empty;
    }
    procBoundary6to0
    {
        type            processor;
        value           nonuniform List<vector> 
16
(
(1.00004 -0.0100195 0)
(0.998279 -0.0291837 0)
(0.996628 -0.049309 0)
(0.996253 -0.0714119 0)
(0.999421 -0.0965164 0)
(1.00665 -0.122889 0)
(1.01925 -0.149274 0)
(1.0368 -0.173555 0)
(1.05776 -0.191839 0)
(1.08207 -0.211235 0)
(1.09753 -0.206832 1.23185e-21)
(1.10354 -0.205014 -2.96766e-21)
(1.10766 -0.218112 1.19711e-21)
(1.10766 -0.218112 1.19711e-21)
(1.11368 -0.216049 1.6188e-21)
(1.11969 -0.213892 2.30897e-23)
)
;
    }
    procBoundary6to1
    {
        type            processor;
        value           nonuniform List<vector> 8((1.12583 -0.227322 -1.02482e-21) (1.12513 -0.244039 1.10408e-21) (1.12345 -0.261849 1.07073e-22) (1.12061 -0.280815 -5.35913e-22) (1.11645 -0.301025 3.71605e-22) (1.11079 -0.3226 8.37272e-22) (1.10352 -0.345744 -2.1839e-22) (1.09459 -0.370717 -5.03697e-22));
    }
    procBoundary6to7
    {
        type            processor;
        value           nonuniform List<vector> 
24
(
(0.670713 -0.543464 -7.75927e-21)
(0.689825 -0.544338 2.68383e-20)
(0.689825 -0.544338 2.68383e-20)
(0.740318 -0.549755 3.2004e-20)
(0.757388 -0.5472 -1.06469e-20)
(0.757388 -0.5472 -1.06469e-20)
(0.805402 -0.547574 -2.60566e-20)
(0.820202 -0.541814 -7.94511e-21)
(0.820202 -0.541814 -7.94511e-21)
(0.865581 -0.537624 -1.58741e-20)
(0.865581 -0.537624 -1.58741e-20)
(0.909532 -0.530616 -6.70505e-21)
(0.921282 -0.521143 1.5774e-20)
(0.921282 -0.521143 1.5774e-20)
(0.96284 -0.511285 1.561e-20)
(0.973183 -0.500085 2.00669e-20)
(0.973183 -0.500085 2.00669e-20)
(1.01173 -0.488598 5.95746e-21)
(1.02059 -0.476659 -1.58079e-20)
(1.02059 -0.476659 -1.58079e-20)
(1.05413 -0.464464 1.07024e-21)
(1.06032 -0.452388 1.0679e-21)
(1.08443 -0.397214 -1.06014e-22)
(1.07124 -0.428286 -5.97572e-22)
)
;
    }
    procBoundary6to12
    {
        type            processor;
        value           nonuniform List<vector> 
35
(
(0.644745 -0.231023 -6.08446e-20)
(0.592522 -0.297238 7.10814e-20)
(0.610246 -0.2868 -5.68824e-20)
(0.627625 -0.276144 1.15337e-19)
(0.644693 -0.265337 -1.05956e-20)
(0.644693 -0.265337 -1.05956e-20)
(0.541224 -0.363554 -1.00409e-20)
(0.559693 -0.354482 -8.47761e-20)
(0.577833 -0.344663 7.79638e-20)
(0.595624 -0.33423 -1.15499e-19)
(0.595624 -0.33423 -1.15499e-19)
(0.510396 -0.412939 -3.41031e-20)
(0.529255 -0.406673 1.09127e-19)
(0.547797 -0.399178 -4.47901e-21)
(0.547797 -0.399178 -4.47901e-21)
(0.461141 -0.448778 5.00646e-20)
(0.480885 -0.448752 6.85652e-21)
(0.500337 -0.447008 -8.5604e-21)
(0.519467 -0.443621 -7.51753e-20)
(0.519467 -0.443621 -7.51753e-20)
(0.430034 -0.459132 -1.03091e-19)
(0.45071 -0.465097 7.11701e-20)
(0.471096 -0.469163 -3.01035e-20)
(0.471096 -0.469163 -3.01035e-20)
(0.999829 -0.00300946 1.15936e-20)
(0.991286 -0.00927321 4.32823e-21)
(0.976049 -0.0167102 -1.69105e-22)
(0.976049 -0.0167102 -1.69105e-22)
(0.954722 -0.0240305 -2.47122e-20)
(0.927051 -0.0361303 -6.15242e-21)
(0.893438 -0.0536754 2.08235e-20)
(0.851689 -0.0771463 8.27798e-21)
(0.805277 -0.109402 -1.63786e-20)
(0.74887 -0.154112 1.51327e-20)
(0.690334 -0.203766 1.11124e-20)
)
;
    }
    procBoundary6to13
    {
        type            processor;
        value           nonuniform List<vector> 8((0.439006 -0.468708 8.98857e-20) (0.491312 -0.492355 1.62779e-20) (0.491312 -0.492355 1.62779e-20) (0.544364 -0.512279 1.02815e-19) (0.565541 -0.518119 -9.66358e-20) (0.565541 -0.518119 -9.66358e-20) (0.61837 -0.532752 2.15641e-20) (0.61837 -0.532752 2.15641e-20));
    }
}


// ************************************************************************* //
