/*--------------------------------*- C++ -*----------------------------------*\
  =========                 |
  \\      /  F ield         | OpenFOAM: The Open Source CFD Toolbox
   \\    /   O peration     | Website:  https://openfoam.org
    \\  /    A nd           | Version:  7
     \\/     M anipulation  |
\*---------------------------------------------------------------------------*/
FoamFile
{
    version     2.0;
    format      ascii;
    class       volScalarField;
    location    "1.9992";
    object      p;
}
// * * * * * * * * * * * * * * * * * * * * * * * * * * * * * * * * * * * * * //

dimensions      [0 2 -2 0 0 0 0];

internalField   nonuniform List<scalar> 
5800
(
-0.148004
-0.143049
-0.139156
-0.136473
-0.135104
0.0105175
0.0101292
0.00974262
0.00935806
0.00897601
0.00859692
0.00822126
0.0078495
0.00748211
0.00711958
0.00676238
0.00641099
0.00606589
0.00572753
0.00539638
0.00507287
0.00475744
0.0044505
0.00415244
0.00386362
0.00358438
0.00331504
0.00305586
0.00280711
0.00256897
0.00234164
0.00212522
0.00191983
0.00172549
0.00154222
0.00136998
0.00120869
0.00105822
0.000918415
0.000789066
0.000669934
0.000560741
0.000461179
0.000370908
0.000289562
0.00021675
0.000152064
9.50768e-05
4.53518e-05
2.44222e-06
-3.41028e-05
-6.47351e-05
-8.99042e-05
-0.000110054
-0.000125618
-0.000137021
-0.00014467
-0.000148958
-0.000150262
-0.000148931
-0.00014532
-0.000139695
-0.000132504
-0.0001236
-0.000114464
-0.000101997
-9.54385e-05
-7.03242e-05
-8.35222e-05
0.0104547
0.0100663
0.00967963
0.00929507
0.0089131
0.00853417
0.00815877
0.00778735
0.0074204
0.0070584
0.00670184
0.00635117
0.00600689
0.00566945
0.00533931
0.00501691
0.00470268
0.00439702
0.00410032
0.00381294
0.00353522
0.00326746
0.00300993
0.00276287
0.00252648
0.00230093
0.00208634
0.00188278
0.0016903
0.00150889
0.00133851
0.00117907
0.00103044
0.000892442
0.000764868
0.00064747
0.000539965
0.000442036
0.00035334
0.000273504
0.000202135
0.000138819
8.31293e-05
3.46248e-05
-7.14144e-06
-4.26209e-05
-7.22651e-05
-9.65226e-05
-0.000115836
-0.000130637
-0.000141346
-0.000148369
-0.000152094
-0.000152895
-0.000151117
-0.00014711
-0.000141133
-0.000133642
-0.00012444
-0.000115123
-0.00010224
-9.58577e-05
-6.9293e-05
-8.51224e-05
0.0103327
0.00994394
0.00955702
0.0091724
0.00879055
0.00841192
0.00803699
0.00766624
0.00730015
0.00693921
0.00658388
0.00623464
0.00589198
0.00555635
0.00522821
0.00490798
0.0045961
0.00429295
0.00399893
0.00371438
0.00343963
0.00317496
0.00292065
0.00267691
0.00244394
0.00222188
0.00201083
0.00181087
0.00162201
0.00144424
0.00127749
0.00112166
0.000976595
0.000842117
0.000717998
0.000603973
0.000499748
0.000404994
0.000319356
0.000242453
0.000173883
0.000113227
6.00513e-05
1.39126e-05
-2.56388e-05
-5.90549e-05
-8.67867e-05
-0.000109281
-0.000126976
-0.000140301
-0.000149671
-0.000155484
-0.000158124
-0.000157954
-0.000155313
-0.000150544
-0.000143891
-0.000135812
-0.000126072
-0.000116321
-0.000102932
-9.63569e-05
-6.90827e-05
-8.59198e-05
0.0101536
0.00976426
0.00937707
0.00899243
0.0086108
0.00823267
0.0078585
0.00748879
0.007124
0.00676464
0.00641118
0.0060641
0.00572386
0.00539093
0.00506575
0.00474876
0.00444036
0.00414095
0.00385089
0.00357052
0.00330015
0.00304007
0.0027905
0.00255165
0.0023237
0.00210677
0.00190094
0.00170625
0.00152271
0.00135027
0.00118883
0.00103829
0.000898452
0.000769121
0.000650046
0.000540946
0.000441504
0.000351376
0.000270192
0.000197557
0.000133059
7.6267e-05
2.67422e-05
-1.5964e-05
-5.2304e-05
-8.27305e-05
-0.000107693
-0.000127636
-0.000142993
-0.000154186
-0.000161621
-0.00016569
-0.000166764
-0.000165198
-0.000161316
-0.00015545
-0.000147828
-0.000138904
-0.000128404
-0.00011802
-0.000103981
-9.70421e-05
-6.90455e-05
-8.63137e-05
0.00991926
0.00952933
0.00914184
0.00875722
0.00837596
0.00799853
0.00762543
0.00725714
0.00689415
0.00653694
0.006186
0.0058418
0.00550481
0.00517549
0.00485427
0.00454158
0.00423781
0.00394335
0.00365854
0.0033837
0.00311913
0.00286507
0.00262175
0.00238934
0.00216799
0.00195779
0.00175879
0.00157102
0.00139442
0.00122894
0.00107445
0.000930792
0.000797764
0.000675129
0.000562612
0.000459905
0.000366668
0.000282536
0.000207117
0.000140002
8.07624e-05
2.89584e-05
-1.5859e-05
-5.41437e-05
-8.63511e-05
-0.000112934
-0.000134341
-0.000151011
-0.00016337
-0.000171832
-0.000176794
-0.000178634
-0.00017771
-0.000174362
-0.000168899
-0.000161638
-0.000152786
-0.000142788
-0.000131332
-0.000120145
-0.000105311
-9.7864e-05
-6.90281e-05
-8.65125e-05
0.00963105
0.00924047
0.00885272
0.00846824
0.00808754
0.00771111
0.00733944
0.00697302
0.00661235
0.00625792
0.0059102
0.00556968
0.00523681
0.00491205
0.00459581
0.00428852
0.00399055
0.00370228
0.00342401
0.00315606
0.00289869
0.00265212
0.00241655
0.00219211
0.00197891
0.00177702
0.00158645
0.00140718
0.00123913
0.00108219
0.000936211
0.000800986
0.000676281
0.000561823
0.000457303
0.000362383
0.000276695
0.000199847
0.000131425
7.09994e-05
1.81259e-05
-2.76483e-05
-6.67815e-05
-9.9734e-05
-0.000126964
-0.000148924
-0.000166058
-0.000178799
-0.000187566
-0.000192759
-0.000194763
-0.000193942
-0.000190635
-0.000185165
-0.000177823
-0.000168905
-0.000158597
-0.000147329
-0.000134747
-0.000122607
-0.000106855
-9.87709e-05
-6.90253e-05
-8.65497e-05
0.00928988
0.00889867
0.00851076
0.00812662
0.00774675
0.00737166
0.00700185
0.00663782
0.00628007
0.0059291
0.00558537
0.00524937
0.00492154
0.00460234
0.00429216
0.00399142
0.00370047
0.00341965
0.00314927
0.0028896
0.00264086
0.00240325
0.00217692
0.00196198
0.0017585
0.00156648
0.00138591
0.0012167
0.00105876
0.000911912
0.00077596
0.000650662
0.000535739
0.000430876
0.000335728
0.00024992
0.00017305
0.000104698
4.44254e-05
-8.22059e-06
-5.37013e-05
-9.24835e-05
-0.000125036
-0.000151823
-0.000173307
-0.000189937
-0.000202153
-0.000210379
-0.000215022
-0.000216471
-0.000215091
-0.000211228
-0.000205203
-0.000197318
-0.000187839
-0.000177042
-0.000165084
-0.000152381
-0.000138531
-0.000125318
-0.000108546
-9.972e-05
-6.90194e-05
-8.64236e-05
0.00889627
0.00850453
0.00811665
0.0077331
0.00735441
0.00698109
0.00661365
0.00625261
0.00589846
0.0055517
0.00521281
0.00488225
0.00456046
0.00424789
0.00394492
0.00365193
0.00336927
0.00309724
0.00283612
0.00258615
0.00234751
0.00212036
0.00190481
0.00170091
0.00150869
0.00132811
0.00115909
0.00100151
0.000855208
0.000719962
0.000595524
0.000481601
0.000377866
0.000283961
0.000199494
0.000124052
5.71993e-05
-1.51815e-06
-5.25665e-05
-9.6421e-05
-0.000133562
-0.00016447
-0.000189623
-0.000209491
-0.000224536
-0.000235205
-0.000241929
-0.000245122
-0.000245177
-0.000242464
-0.000237331
-0.000230102
-0.000221075
-0.000210526
-0.000198695
-0.000185835
-0.00017207
-0.000157797
-0.000142568
-0.000128183
-0.000110316
-0.000100667
-6.89849e-05
-8.61288e-05
0.00845044
0.00805836
0.00767078
0.00728817
0.00691108
0.00654005
0.00617559
0.00581822
0.00546844
0.00512674
0.00479361
0.0044695
0.00415484
0.00385005
0.00355551
0.00327156
0.00299853
0.00273668
0.00248626
0.00224746
0.00202044
0.00180529
0.00160206
0.00141078
0.00123139
0.00106382
0.000907913
0.000763499
0.000630348
0.000508188
0.00039671
0.000295568
0.000204379
0.000122735
5.01993e-05
-1.36854e-05
-6.93937e-05
-0.000117412
-0.000158237
-0.000192367
-0.0002203
-0.000242531
-0.000259546
-0.000271819
-0.00027981
-0.00028396
-0.00028469
-0.0002824
-0.000277467
-0.000270239
-0.000261043
-0.000250177
-0.000237912
-0.000224496
-0.000210142
-0.000195071
-0.000179377
-0.000163433
-0.00014674
-0.000131114
-0.000112099
-0.000101565
-6.88978e-05
-8.56582e-05
0.00795233
0.00756019
0.00717326
0.00679204
0.00641708
0.00604895
0.00568817
0.00533525
0.00499071
0.00465504
0.0043287
0.00401214
0.00370578
0.00341002
0.00312522
0.00285168
0.00258969
0.0023395
0.00210129
0.00187521
0.00166136
0.00145979
0.00127049
0.00109341
0.000928458
0.000775467
0.000634237
0.000504521
0.000386024
0.000278411
0.00018131
9.43127e-05
1.69806e-05
-5.11504e-05
-0.000110566
-0.000161769
-0.000205274
-0.000241604
-0.000271281
-0.000294831
-0.000312768
-0.000325599
-0.000333817
-0.000337897
-0.000338295
-0.000335442
-0.000329749
-0.000321596
-0.000311339
-0.000299304
-0.000285791
-0.000271069
-0.000255381
-0.000238942
-0.000221933
-0.000204545
-0.000186832
-0.000169145
-0.000150933
-0.000134021
-0.000113829
-0.000102371
-6.87353e-05
-8.50035e-05
0.00740163
0.0070098
0.00662399
0.00624469
0.00587251
0.005508
0.00515171
0.00480415
0.00446583
0.00413723
0.00381883
0.00351104
0.00321428
0.0029289
0.00265524
0.00239357
0.00214415
0.00190716
0.00168274
0.00147099
0.00127194
0.00108559
0.000911854
0.00075062
0.000601711
0.0004649
0.000339911
0.000226422
0.000124067
3.24407e-05
-4.88993e-05
-0.000120426
-0.000182638
-0.000236059
-0.000281226
-0.000318688
-0.000349002
-0.000372725
-0.000390409
-0.000402601
-0.000409834
-0.000412622
-0.000411464
-0.000406831
-0.000399173
-0.00038891
-0.000376433
-0.000362104
-0.000346253
-0.00032918
-0.000311153
-0.00029241
-0.000273161
-0.000253587
-0.000233833
-0.000214054
-0.000194269
-0.000174799
-0.000155039
-0.000136819
-0.000115445
-0.000103043
-6.84766e-05
-8.41558e-05
0.00679783
0.00640678
0.00602265
0.00564595
0.00527729
0.00491725
0.00456637
0.00422518
0.00389419
0.00357386
0.00326465
0.00296697
0.0026812
0.00240767
0.00214668
0.00189846
0.0016632
0.00144106
0.0012321
0.00103637
0.000853821
0.00068438
0.000527898
0.000384177
0.000252961
0.000133945
2.67705e-05
-6.89634e-05
-0.000153702
-0.000227926
-0.000292152
-0.000346922
-0.0003928
-0.000430368
-0.000460218
-0.000482948
-0.000499154
-0.000509428
-0.000514351
-0.000514489
-0.000510388
-0.000502571
-0.000491536
-0.000477751
-0.000461651
-0.000443642
-0.000424093
-0.000403342
-0.00038169
-0.000359405
-0.000336722
-0.000313845
-0.000290944
-0.000268166
-0.000245615
-0.000223411
-0.00020153
-0.000180264
-0.000158954
-0.000139428
-0.000116887
-0.000103539
-6.81026e-05
-8.31065e-05
0.00614019
0.00575052
0.00536877
0.00499544
0.00463118
0.00427658
0.00393219
0.00359853
0.00327609
0.00296535
0.00266673
0.00238063
0.00210738
0.00184729
0.0016006
0.0013675
0.00114813
0.000942578
0.000750846
0.000572894
0.000408617
0.000257847
0.000120356
-4.1411e-06
-0.000115987
-0.000215577
-0.000303354
-0.000379808
-0.000445469
-0.000500899
-0.00054669
-0.00058346
-0.000611839
-0.000632469
-0.000645999
-0.000653073
-0.000654327
-0.000650388
-0.00064186
-0.000629327
-0.000613347
-0.000594444
-0.000573113
-0.000549811
-0.000524959
-0.000498941
-0.000472103
-0.000444749
-0.000417151
-0.00038954
-0.000362114
-0.000335038
-0.000308441
-0.00028243
-0.000257068
-0.000232436
-0.000208468
-0.000185421
-0.000162583
-0.000141775
-0.000118104
-0.000103822
-6.75962e-05
-8.18474e-05
0.00542784
0.00504027
0.00466171
0.00429268
0.00393383
0.00358579
0.00324908
0.00292424
0.00261175
0.00231206
0.00202557
0.00175264
0.00149358
0.00124864
0.00101802
0.000801851
0.000600203
0.000413082
0.000240429
8.21151e-05
-6.2051e-05
-0.000192327
-0.000309035
-0.000412555
-0.000503325
-0.000581837
-0.000648629
-0.000704285
-0.000749422
-0.000784691
-0.000810766
-0.000828336
-0.000838104
-0.000840773
-0.000837045
-0.000827611
-0.000813147
-0.000794308
-0.000771721
-0.000745984
-0.000717659
-0.00068727
-0.000655303
-0.0006222
-0.000588361
-0.000554145
-0.000519866
-0.000485795
-0.000452166
-0.000419172
-0.000386967
-0.000355674
-0.000325379
-0.000296147
-0.000267996
-0.000240967
-0.000214946
-0.000190158
-0.000165838
-0.000143791
-0.000119046
-0.000103861
-6.69428e-05
-8.03711e-05
0.00465976
0.00427514
0.00390073
0.00353704
0.00318478
0.00284455
0.00251689
0.00220232
0.00190131
0.00161427
0.0013416
0.0010836
0.000840538
0.000612616
0.000399965
0.00020265
2.06669e-05
-0.000146061
-0.000297681
-0.000434414
-0.000556549
-0.000664444
-0.000758522
-0.000839271
-0.000907231
-0.000962999
-0.00100722
-0.00104056
-0.00106375
-0.00107752
-0.00108264
-0.00107986
-0.00106996
-0.00105371
-0.00103186
-0.00100514
-0.000974267
-0.000939923
-0.000902752
-0.000863359
-0.000822308
-0.000780116
-0.000737253
-0.000694142
-0.000651157
-0.000608624
-0.00056682
-0.000525981
-0.000486295
-0.000447912
-0.000410943
-0.000375461
-0.00034151
-0.000309105
-0.00027822
-0.000248852
-0.000220841
-0.000194377
-0.00016864
-0.000145417
-0.000119671
-0.000103625
-6.61302e-05
-7.86713e-05
0.00383477
0.0034541
0.00308494
0.00272783
0.00238347
0.00205247
0.00173538
0.0014327
0.00114486
0.000872263
0.000615251
0.000374094
0.000148997
-5.99038e-05
-0.000252547
-0.000428947
-0.000589195
-0.000733461
-0.000861992
-0.000975111
-0.00107322
-0.00115678
-0.00122633
-0.00128247
-0.00132587
-0.00135721
-0.00137726
-0.0013868
-0.00138664
-0.00137762
-0.00136057
-0.00133635
-0.00130579
-0.00126973
-0.00122896
-0.00118426
-0.00113637
-0.001086
-0.00103381
-0.000980394
-0.00092632
-0.000872089
-0.000818152
-0.000764903
-0.000712684
-0.000661784
-0.00061244
-0.00056484
-0.000519128
-0.000475405
-0.000433732
-0.000394135
-0.000356604
-0.00032111
-0.000287578
-0.000255958
-0.000226045
-0.000197989
-0.000170921
-0.0001466
-0.000119942
-0.000103089
-6.51489e-05
-7.67424e-05
0.0029516
0.00257604
0.00221341
0.00186424
0.00152927
0.00120911
0.000904284
0.000615269
0.000342481
8.62776e-05
-0.000153051
-0.00037529
-0.000580299
-0.000768017
-0.000938468
-0.00109176
-0.00122807
-0.00134769
-0.00145097
-0.00153835
-0.00161036
-0.00166757
-0.00171065
-0.00174032
-0.00175736
-0.0017626
-0.0017569
-0.00174115
-0.00171627
-0.00168319
-0.00164284
-0.00159614
-0.001544
-0.00148731
-0.0014269
-0.00136361
-0.00129819
-0.00123136
-0.00116379
-0.00109607
-0.00102876
-0.000962341
-0.00089723
-0.00083379
-0.000772323
-0.000713075
-0.000656235
-0.000601943
-0.00055029
-0.000501324
-0.000455054
-0.000411452
-0.000370459
-0.000331991
-0.000295926
-0.000262166
-0.00023046
-0.000200918
-0.00017262
-0.000147294
-0.000119827
-0.000102232
-6.3992e-05
-7.45802e-05
0.00200887
0.00163974
0.00128507
0.000945417
0.000621509
0.000313964
2.32879e-05
-0.000250079
-0.000505755
-0.000743432
-0.000962878
-0.00116395
-0.00134657
-0.00151079
-0.00165671
-0.00178455
-0.00189461
-0.00198728
-0.00206304
-0.00212248
-0.00216622
-0.00219501
-0.00220963
-0.00221093
-0.00219983
-0.00217727
-0.00214425
-0.00210176
-0.00205083
-0.00199248
-0.00192774
-0.00185759
-0.00178302
-0.00170495
-0.00162429
-0.00154187
-0.00145848
-0.00137485
-0.00129163
-0.00120942
-0.00112875
-0.00105007
-0.000973767
-0.000900157
-0.000829499
-0.000761987
-0.000697759
-0.000636899
-0.000579441
-0.000525376
-0.000474657
-0.000427201
-0.000382893
-0.000341597
-0.000303139
-0.000267376
-0.000234006
-0.000203098
-0.00017369
-0.000147463
-0.000119303
-0.000101036
-6.26552e-05
-7.21814e-05
0.00100511
0.000643904
0.000298837
-2.95573e-05
-0.00034053
-0.000633478
-0.000907924
-0.00116347
-0.00139977
-0.00161659
-0.00181377
-0.00199123
-0.002149
-0.00228723
-0.00240613
-0.00250603
-0.00258738
-0.00265068
-0.00269657
-0.00272575
-0.00273902
-0.00273725
-0.00272138
-0.00269239
-0.00265134
-0.00259931
-0.00253741
-0.00246676
-0.00238849
-0.00230372
-0.00221356
-0.00211907
-0.00202129
-0.0019212
-0.00181973
-0.00171775
-0.00161605
-0.00151536
-0.00141633
-0.00131953
-0.00122546
-0.00113453
-0.00104709
-0.000963405
-0.000883681
-0.000808055
-0.000736605
-0.000669353
-0.000606275
-0.0005473
-0.00049232
-0.000441194
-0.00039375
-0.000349798
-0.000309113
-0.0002715
-0.000236613
-0.000204477
-0.000174088
-0.000147076
-0.000118349
-9.94882e-05
-6.11369e-05
-6.9544e-05
-6.12533e-05
-0.000412823
-0.000746459
-0.00106163
-0.00135759
-0.00163375
-0.00188967
-0.002125
-0.00233947
-0.0025329
-0.00270521
-0.00285644
-0.00298671
-0.00309629
-0.00318551
-0.00325486
-0.00330489
-0.0033363
-0.00334984
-0.00334639
-0.00332689
-0.00329238
-0.00324395
-0.00318274
-0.00310993
-0.00302676
-0.00293446
-0.00283427
-0.00272743
-0.00261515
-0.00249862
-0.00237897
-0.0022573
-0.00213462
-0.0020119
-0.00189002
-0.00176977
-0.00165186
-0.00153694
-0.00142553
-0.0013181
-0.00121502
-0.00111658
-0.00102299
-0.000934389
-0.000850858
-0.000772407
-0.000698993
-0.000630525
-0.000566868
-0.00050785
-0.00045327
-0.000402897
-0.000356487
-0.000313758
-0.00027447
-0.000238227
-0.000205011
-0.000173783
-0.000146111
-0.000116952
-9.75803e-05
-5.94378e-05
-6.66671e-05
-0.00119184
-0.00153186
-0.00185202
-0.00215179
-0.00243043
-0.00268738
-0.00292225
-0.00313476
-0.0033247
-0.00349199
-0.00363665
-0.00375881
-0.00385875
-0.00393684
-0.00399357
-0.00402958
-0.00404559
-0.00404244
-0.00402107
-0.00398252
-0.00392791
-0.00385844
-0.00377535
-0.00367997
-0.00357362
-0.00345767
-0.00333348
-0.00320242
-0.00306584
-0.00292503
-0.00278126
-0.00263572
-0.00248956
-0.00234384
-0.00219952
-0.00205748
-0.00191853
-0.00178336
-0.00165255
-0.00152662
-0.00140596
-0.0012909
-0.00118167
-0.00107841
-0.00098119
-0.000890022
-0.000804845
-0.000725544
-0.000651959
-0.000583885
-0.000521087
-0.000463297
-0.000410227
-0.000361574
-0.000317005
-0.000276229
-0.000238806
-0.00020467
-0.000172755
-0.000144553
-0.000115106
-9.53066e-05
-5.75612e-05
-6.35508e-05
-0.00238833
-0.00271467
-0.00301906
-0.00330102
-0.00355979
-0.00379488
-0.00400594
-0.00419278
-0.00435528
-0.00449345
-0.00460744
-0.00469751
-0.00476407
-0.00480765
-0.00482892
-0.00482867
-0.00480779
-0.00476732
-0.00470839
-0.0046322
-0.00454007
-0.00443338
-0.00431354
-0.00418204
-0.00404036
-0.00389002
-0.00373252
-0.00356933
-0.0034019
-0.00323162
-0.00305983
-0.00288778
-0.00271665
-0.00254751
-0.00238134
-0.00221902
-0.00206132
-0.00190891
-0.00176233
-0.00162203
-0.00148837
-0.00136159
-0.00124184
-0.00112922
-0.0010237
-0.000925219
-0.00083364
-0.000748772
-0.000670381
-0.000598191
-0.000531896
-0.000471168
-0.000415653
-0.000364994
-0.000318803
-0.00027674
-0.000238321
-0.000203434
-0.00017099
-0.000142392
-0.000112805
-9.26653e-05
-5.55124e-05
-6.01965e-05
-0.00365248
-0.00396274
-0.00424885
-0.00451032
-0.00474643
-0.00495673
-0.00514097
-0.00529904
-0.00543093
-0.00553678
-0.00561685
-0.00567159
-0.00570154
-0.00570742
-0.00569008
-0.00565048
-0.00558975
-0.00550909
-0.00540984
-0.00529341
-0.00516132
-0.00501511
-0.00485641
-0.00468686
-0.00450811
-0.00432182
-0.00412962
-0.00393311
-0.00373382
-0.00353324
-0.00333275
-0.00313365
-0.00293715
-0.00274434
-0.00255619
-0.00237355
-0.00219716
-0.00202764
-0.00186549
-0.00171109
-0.00156472
-0.00142655
-0.00129665
-0.00117503
-0.00106159
-0.000956168
-0.000858556
-0.000768482
-0.000685631
-0.000609654
-0.000540176
-0.0004768
-0.000419112
-0.000366697
-0.000319116
-0.000275977
-0.000236756
-0.000201291
-0.000168482
-0.000139628
-0.000110054
-8.96578e-05
-5.32989e-05
-5.66063e-05
-0.00498607
-0.00527761
-0.00554263
-0.00578067
-0.00599104
-0.00617338
-0.00632752
-0.00645345
-0.00655131
-0.00662138
-0.00666408
-0.00668
-0.00666991
-0.00663471
-0.00657543
-0.00649329
-0.00638958
-0.00626576
-0.00612337
-0.00596404
-0.00578949
-0.00560148
-0.00540181
-0.0051923
-0.00497477
-0.00475103
-0.00452283
-0.00429188
-0.00405982
-0.00382818
-0.00359842
-0.00337187
-0.00314973
-0.00293311
-0.00272294
-0.00252006
-0.00232515
-0.00213876
-0.00196134
-0.00179318
-0.00163448
-0.00148532
-0.00134569
-0.0012155
-0.00109456
-0.000982632
-0.000879401
-0.000784516
-0.000697583
-0.000618176
-0.000545848
-0.000480136
-0.000420562
-0.000366655
-0.000317924
-0.000273928
-0.000234104
-0.00019824
-0.000165234
-0.000136263
-0.000106859
-8.62888e-05
-5.09299e-05
-5.27835e-05
-0.00639092
-0.00666082
-0.00690165
-0.00711303
-0.00729431
-0.0074452
-0.00756567
-0.00765584
-0.00771599
-0.00774656
-0.00774816
-0.0077216
-0.00766782
-0.00758795
-0.00748328
-0.00735521
-0.00720531
-0.00703526
-0.00684684
-0.0066419
-0.00642238
-0.00619026
-0.00594753
-0.00569619
-0.00543824
-0.00517561
-0.0049102
-0.0046438
-0.00437814
-0.00411482
-0.00385533
-0.00360102
-0.00335309
-0.00311263
-0.00288054
-0.0026576
-0.00244443
-0.00224152
-0.00204921
-0.00186773
-0.00169716
-0.00153749
-0.00138863
-0.00125035
-0.0011224
-0.00100442
-0.000896021
-0.000796755
-0.000706145
-0.000623689
-0.000548864
-0.000481141
-0.000419981
-0.000364855
-0.000315222
-0.000270594
-0.000230371
-0.000194289
-0.000161255
-0.000132307
-0.000103229
-8.25656e-05
-4.84164e-05
-4.87322e-05
-0.00786888
-0.0081139
-0.00832716
-0.00850834
-0.00865685
-0.00877252
-0.00885545
-0.00890593
-0.0089244
-0.0089115
-0.00886805
-0.00879508
-0.00869376
-0.00856548
-0.00841175
-0.00823427
-0.00803484
-0.00781541
-0.00757799
-0.00732469
-0.00705769
-0.00677916
-0.00649132
-0.00619634
-0.00589638
-0.00559352
-0.00528976
-0.00498701
-0.00468706
-0.00439155
-0.00410199
-0.00381975
-0.00354601
-0.0032818
-0.003028
-0.0027853
-0.00255426
-0.00233525
-0.00212855
-0.00193425
-0.00175235
-0.00158272
-0.00142516
-0.00127935
-0.00114491
-0.00102139
-0.000908305
-0.000805115
-0.000711258
-0.000626151
-0.000549199
-0.000479803
-0.000417366
-0.000361301
-0.00031102
-0.000265987
-0.000225571
-0.000189452
-0.00015656
-0.000127772
-9.91807e-05
-7.8498e-05
-4.57706e-05
-4.44572e-05
-0.00942183
-0.0096384
-0.00982038
-0.00996749
-0.0100792
-0.0101556
-0.0101968
-0.0102033
-0.0101759
-0.0101153
-0.0100226
-0.00989901
-0.0097461
-0.00956545
-0.00935889
-0.00912835
-0.00887596
-0.0086039
-0.00831448
-0.00801006
-0.00769304
-0.00736585
-0.00703088
-0.00669052
-0.00634705
-0.00600271
-0.0056596
-0.00531971
-0.00498488
-0.0046568
-0.00433698
-0.00402677
-0.00372731
-0.00343959
-0.0031644
-0.00290236
-0.00265392
-0.00241936
-0.00219883
-0.00199231
-0.00179969
-0.00162072
-0.00145507
-0.00130231
-0.00116195
-0.00103344
-0.000916178
-0.000809547
-0.000712892
-0.000625549
-0.00054685
-0.000476129
-0.00041273
-0.000356012
-0.000305339
-0.000260129
-0.000219727
-0.000183752
-0.000151171
-0.000122678
-9.47307e-05
-7.40981e-05
-4.30062e-05
-3.9964e-05
-0.0110516
-0.0112359
-0.0113825
-0.0114913
-0.0115619
-0.0115945
-0.0115895
-0.0115476
-0.0114696
-0.0113568
-0.0112103
-0.0110318
-0.010823
-0.0105859
-0.0103225
-0.0100352
-0.00972631
-0.00939833
-0.00905386
-0.00869554
-0.00832601
-0.00794793
-0.0075639
-0.00717647
-0.0067881
-0.00640114
-0.00601779
-0.00564011
-0.00526997
-0.00490908
-0.00455894
-0.00422085
-0.00389591
-0.00358503
-0.0032889
-0.00300805
-0.0027428
-0.00249332
-0.00225962
-0.00204157
-0.00183891
-0.00165126
-0.00147818
-0.0013191
-0.00117343
-0.00104049
-0.000919605
-0.000810035
-0.000711046
-0.000621894
-0.000541838
-0.000470147
-0.000406105
-0.000349019
-0.000298211
-0.000253053
-0.000212869
-0.000177216
-0.000145114
-0.000117046
-8.98997e-05
-6.93795e-05
-4.01379e-05
-3.52588e-05
-0.0127602
-0.0129078
-0.0130146
-0.0130805
-0.0131053
-0.0130894
-0.0130333
-0.012938
-0.0128047
-0.0126348
-0.0124299
-0.0121918
-0.0119227
-0.0116247
-0.0113005
-0.0109525
-0.0105834
-0.0101962
-0.00979361
-0.00937861
-0.0089541
-0.00852296
-0.008088
-0.00765194
-0.00721739
-0.0067868
-0.00636246
-0.00594647
-0.00554074
-0.00514695
-0.00476657
-0.00440084
-0.0040508
-0.00371724
-0.00340075
-0.00310172
-0.00282036
-0.00255668
-0.00231056
-0.00208172
-0.00186976
-0.00167418
-0.00149436
-0.00132964
-0.0011793
-0.00104254
-0.000918583
-0.000806593
-0.000705748
-0.000615222
-0.000534204
-0.000461899
-0.000397534
-0.000340368
-0.00028968
-0.0002448
-0.000205036
-0.000169878
-0.00013842
-0.000110901
-8.47109e-05
-6.43577e-05
-3.71811e-05
-3.03485e-05
-0.0145493
-0.0146556
-0.0147178
-0.0147358
-0.0147098
-0.0146401
-0.0145277
-0.0143739
-0.0141801
-0.0139479
-0.0136795
-0.013377
-0.0130428
-0.0126797
-0.0122902
-0.0118776
-0.0114447
-0.0109948
-0.0105311
-0.0100567
-0.00957475
-0.00908846
-0.0086008
-0.00811466
-0.00763277
-0.00715769
-0.00669176
-0.00623711
-0.00579565
-0.00536902
-0.00495865
-0.00456568
-0.00419104
-0.00383542
-0.00349926
-0.00318281
-0.00288613
-0.00260908
-0.00235136
-0.00211256
-0.0018921
-0.00168935
-0.00150355
-0.0013339
-0.00117955
-0.0010396
-0.000913143
-0.000799265
-0.000697047
-0.000605589
-0.000524007
-0.000451445
-0.000387077
-0.000330114
-0.000279798
-0.000235417
-0.000196271
-0.000161777
-0.000131122
-0.000104271
-7.91895e-05
-5.90493e-05
-3.41521e-05
-2.52402e-05
-0.0164209
-0.0164808
-0.0164931
-0.0164579
-0.0163754
-0.0162464
-0.0160721
-0.0158542
-0.0155943
-0.0152946
-0.0149575
-0.0145854
-0.0141813
-0.0137482
-0.0132893
-0.0128079
-0.0123075
-0.0117916
-0.0112636
-0.010727
-0.0101854
-0.00964193
-0.00909992
-0.00856238
-0.00803215
-0.00751186
-0.0070039
-0.00651041
-0.00603325
-0.00557402
-0.00513404
-0.00471437
-0.0043158
-0.00393885
-0.00358384
-0.00325084
-0.00293973
-0.0026502
-0.0023818
-0.00213391
-0.00190582
-0.00169672
-0.00150573
-0.00133188
-0.00117421
-0.00103171
-0.000903348
-0.000788119
-0.000685019
-0.00059307
-0.000511322
-0.000438858
-0.000374803
-0.000318322
-0.000268626
-0.00022496
-0.000186623
-0.000152955
-0.000123259
-9.71866e-05
-7.33621e-05
-5.34721e-05
-3.10676e-05
-1.99416e-05
-0.0183768
-0.0183847
-0.0183414
-0.0182471
-0.0181023
-0.017908
-0.0176659
-0.0173779
-0.0170461
-0.0166731
-0.0162616
-0.0158147
-0.0153356
-0.0148278
-0.0142949
-0.0137407
-0.013169
-0.0125835
-0.0119883
-0.0113869
-0.0107833
-0.0101808
-0.00958296
-0.00899285
-0.00841344
-0.00784741
-0.00729716
-0.0067648
-0.00625215
-0.00576071
-0.0052917
-0.00484602
-0.00442431
-0.00402693
-0.003654
-0.00330542
-0.00298087
-0.00267985
-0.00240172
-0.00214569
-0.00191088
-0.0016963
-0.00150092
-0.00132365
-0.00116337
-0.00101896
-0.000889287
-0.00077325
-0.000669759
-0.00057776
-0.000496239
-0.000424224
-0.000360793
-0.000305066
-0.00025623
-0.000213486
-0.000176145
-0.000143458
-0.000114869
-8.9679e-05
-6.72569e-05
-4.76443e-05
-2.79444e-05
-1.44606e-05
-0.0204188
-0.0203687
-0.0202635
-0.0201039
-0.0198903
-0.0196244
-0.0193081
-0.0189437
-0.0185338
-0.0180815
-0.0175899
-0.0170625
-0.0165032
-0.0159157
-0.0153043
-0.014673
-0.0140261
-0.0133678
-0.0127023
-0.0120337
-0.0113659
-0.0107026
-0.0100475
-0.00940385
-0.0087746
-0.00816247
-0.00756986
-0.00699881
-0.00645107
-0.005928
-0.00543067
-0.00495983
-0.00451592
-0.00409911
-0.00370932
-0.00334623
-0.00300931
-0.00269786
-0.00241104
-0.00214787
-0.00190728
-0.00168812
-0.0014892
-0.00130928
-0.00114711
-0.00100145
-0.000871076
-0.000754774
-0.00065138
-0.000559768
-0.000478862
-0.000407639
-0.000345133
-0.000290427
-0.000242682
-0.000201062
-0.000164894
-0.000133334
-0.000105996
-8.17816e-05
-6.0903e-05
-4.1585e-05
-2.47996e-05
-8.80536e-06
-0.0225486
-0.022434
-0.0222603
-0.0220285
-0.0217394
-0.0213949
-0.0209975
-0.0205501
-0.0200556
-0.0195176
-0.0189398
-0.0183263
-0.0176812
-0.017009
-0.0163143
-0.0156017
-0.0148759
-0.0141414
-0.0134027
-0.0126643
-0.0119304
-0.0112048
-0.0104913
-0.00979322
-0.00911365
-0.00845527
-0.00782042
-0.00721106
-0.00662879
-0.00607484
-0.00555009
-0.00505509
-0.00459007
-0.00415497
-0.00374948
-0.00337304
-0.00302491
-0.00270417
-0.00240975
-0.00214048
-0.0018951
-0.00167229
-0.00147068
-0.0012889
-0.00112558
-0.000979339
-0.000848854
-0.000732828
-0.000630013
-0.000539216
-0.000459306
-0.000389208
-0.000327921
-0.00027449
-0.00022806
-0.000187754
-0.000152929
-0.000122633
-9.66823e-05
-7.35285e-05
-5.433e-05
-3.53135e-05
-2.16501e-05
-2.98424e-06
-0.0247679
-0.0245817
-0.0243323
-0.024021
-0.023649
-0.0232187
-0.022733
-0.0221954
-0.0216095
-0.0209791
-0.0203088
-0.019603
-0.0188667
-0.0181046
-0.0173219
-0.0165238
-0.0157152
-0.0149012
-0.0140866
-0.0132761
-0.0124741
-0.0116848
-0.0109119
-0.0101588
-0.00942867
-0.0087241
-0.00804735
-0.00740024
-0.00678422
-0.00620033
-0.00564922
-0.00513122
-0.0046463
-0.00419417
-0.00377424
-0.00338572
-0.00302762
-0.00269877
-0.0023979
-0.00212362
-0.00187446
-0.00164894
-0.00144553
-0.0012627
-0.00109894
-0.000952781
-0.000822783
-0.000707563
-0.000605801
-0.000516239
-0.000437693
-0.000369045
-0.000309258
-0.000257346
-0.000212443
-0.000173633
-0.00014031
-0.000111408
-8.69721e-05
-6.49543e-05
-4.75677e-05
-2.88489e-05
-1.85127e-05
2.9942e-06
-0.0270784
-0.0268129
-0.0264801
-0.0260814
-0.0256186
-0.0250947
-0.0245131
-0.0238778
-0.0231931
-0.0224635
-0.0216941
-0.0208899
-0.0200565
-0.0191992
-0.0183238
-0.0174358
-0.0165408
-0.0156441
-0.0147509
-0.0138661
-0.0129945
-0.0121401
-0.011307
-0.0104986
-0.00971784
-0.00896735
-0.00824924
-0.00756517
-0.00691637
-0.00630365
-0.00572741
-0.00518771
-0.00468426
-0.00421646
-0.00378347
-0.00338421
-0.00301744
-0.00268174
-0.0023756
-0.00209742
-0.00184553
-0.00161826
-0.00141392
-0.00123084
-0.00106739
-0.000921963
-0.000793038
-0.000679149
-0.000578901
-0.000490981
-0.000414156
-0.000347267
-0.000289251
-0.000239091
-0.000195916
-0.00015877
-0.000127101
-9.97089e-05
-7.69101e-05
-5.60937e-05
-4.06461e-05
-2.22108e-05
-1.54038e-05
9.12117e-06
-0.0294816
-0.0291285
-0.0287039
-0.0282094
-0.0276475
-0.0270217
-0.0263361
-0.0255952
-0.0248041
-0.0239681
-0.0230926
-0.0221837
-0.0212473
-0.0202895
-0.0193166
-0.0183345
-0.0173494
-0.0163668
-0.0153925
-0.0144315
-0.0134887
-0.0125684
-0.0116745
-0.0108105
-0.00997939
-0.00918351
-0.00842482
-0.00770478
-0.00702436
-0.00638411
-0.00578414
-0.0052242
-0.00470368
-0.0042217
-0.00377711
-0.00336854
-0.00299446
-0.00265321
-0.00234303
-0.00206208
-0.00180852
-0.00158047
-0.00137609
-0.00119357
-0.00103113
-0.000887091
-0.000759816
-0.000647764
-0.00054948
-0.000463594
-0.000388831
-0.000323998
-0.000268009
-0.000219819
-0.000178562
-0.000143239
-0.000113364
-8.75896e-05
-6.65411e-05
-4.69814e-05
-3.3595e-05
-1.54183e-05
-1.23394e-05
1.53877e-05
-0.0319789
-0.0315295
-0.031004
-0.0304048
-0.0297348
-0.0289982
-0.0282
-0.0273453
-0.0264399
-0.0254898
-0.0245013
-0.023481
-0.0224356
-0.0213719
-0.0202966
-0.0192163
-0.0181375
-0.0170662
-0.0160084
-0.0149694
-0.0139542
-0.0129671
-0.0120122
-0.0110928
-0.0102117
-0.00937116
-0.0085729
-0.0078181
-0.00710744
-0.00644114
-0.00581899
-0.0052404
-0.00470443
-0.00420985
-0.00375521
-0.00333881
-0.00295885
-0.00261339
-0.00230041
-0.00201786
-0.00176369
-0.00153584
-0.0013323
-0.00115112
-0.000990416
-0.000848388
-0.000723322
-0.000613601
-0.000517712
-0.000434235
-0.000361861
-0.000299365
-0.000245643
-0.00019963
-0.000160466
-0.000127113
-9.91616e-05
-7.51019e-05
-5.59094e-05
-3.76517e-05
-2.64434e-05
-8.49041e-06
-9.33459e-06
2.17849e-05
-0.0345719
-0.0340164
-0.0333805
-0.0326669
-0.0318793
-0.0310227
-0.0301028
-0.0291255
-0.0280975
-0.0270255