/*--------------------------------*- C++ -*----------------------------------*\
  =========                 |
  \\      /  F ield         | OpenFOAM: The Open Source CFD Toolbox
   \\    /   O peration     | Website:  https://openfoam.org
    \\  /    A nd           | Version:  7
     \\/     M anipulation  |
\*---------------------------------------------------------------------------*/
FoamFile
{
    version     2.0;
    format      ascii;
    class       surfaceScalarField;
    location    "12.999798";
    object      phi;
}
// * * * * * * * * * * * * * * * * * * * * * * * * * * * * * * * * * * * * * //

dimensions      [0 3 -1 0 0 0 0];

internalField   nonuniform List<scalar> 
11438
(
0.000159362
-0.00139497
0.000298823
-0.0013095
0.000400444
-0.00114481
0.000449868
-0.000912079
-0.000625034
-0.00144328
4.83162e-05
-0.00149371
5.04278e-05
-0.00154525
5.15449e-05
-0.00159766
5.24102e-05
-0.00165075
5.30882e-05
-0.00170432
5.35697e-05
-0.00175814
5.38221e-05
-0.00181193
5.37954e-05
-0.00186536
5.34315e-05
-0.00191802
5.26665e-05
-0.00196946
5.14329e-05
-0.00201911
4.96603e-05
-0.00206639
4.72788e-05
-0.00211062
4.42321e-05
-0.00215107
4.04479e-05
-0.00218689
3.58166e-05
-0.00221714
3.0251e-05
-0.00224081
2.367e-05
-0.00225681
1.60013e-05
-0.00226398
7.17343e-06
-0.00226125
-2.73458e-06
-0.0022478
-1.34523e-05
-0.00222239
-2.54038e-05
-0.0021839
-3.84965e-05
-0.00213124
-5.2667e-05
-0.00206341
-6.78331e-05
-0.00197952
-8.38872e-05
-0.00187881
-0.000100714
-0.00176077
-0.000118049
-0.00162502
-0.000135752
-0.00147152
-0.000153508
-0.00130045
-0.000171076
-0.00111246
-0.000187989
-0.000908553
-0.000203916
-0.000689872
-0.000218686
-0.000458448
-0.000231428
-0.000215929
-0.000242522
3.5072e-05
-0.000251003
0.000291988
-0.000256917
0.000552258
-0.000260272
0.000813231
-0.000260973
0.00107235
-0.000259114
0.00132724
-0.000254889
0.00157581
-0.000248568
0.00181629
-0.000240479
0.00204727
-0.000230975
0.00226769
-0.000220422
0.00247686
-0.000209161
0.00267438
-0.000197515
0.00286007
-0.000185689
-3.98338e-09
0.00303403
-0.000173951
-3.85343e-09
0.00319646
-0.000162427
-3.63961e-09
0.00334783
-0.000151365
-3.35332e-09
0.00348856
-0.000140729
-3.00252e-09
0.00361936
-0.000130803
-2.60512e-09
0.00374071
-0.000121344
-2.17704e-09
0.00385346
-0.000112754
-1.73199e-09
0.00395798
-0.000104516
-1.28611e-09
0.00405524
-9.72527e-05
-8.47455e-10
0.00414529
-9.00529e-05
-4.36062e-10
0.00422925
-8.39633e-05
-4.65558e-11
0.00430672
-7.74634e-05
2.87136e-10
0.00437914
-7.24301e-05
5.98679e-10
0.00444543
-6.62865e-05
8.23389e-10
0.00450782
-6.23883e-05
1.04588e-09
0.00456408
-5.62633e-05
1.14137e-09
0.0046178
-5.37261e-05
1.28043e-09
0.00466505
-4.72415e-05
1.24242e-09
0.00471143
-4.63823e-05
1.31912e-09
-3.95414e-05
1.17029e-09
-0.00135439
9.32025e-05
-0.00140145
9.74937e-05
-0.00144965
9.97396e-05
-0.0014987
0.00010146
-0.0015484
0.000102791
-0.00159855
0.000103723
-0.00164893
0.0001042
-0.00169926
0.000104126
-0.00174922
0.000103385
-0.0017984
0.000101852
-0.00184636
9.93914e-05
-0.00189256
9.58638e-05
-0.00193641
9.1129e-05
-0.00197724
8.50623e-05
-0.00201435
7.75528e-05
-0.00204691
6.83741e-05
-0.002074
5.73458e-05
-0.00209464
4.43045e-05
-0.00210774
2.91095e-05
-0.00211215
1.1577e-05
-0.00210697
-7.91565e-06
-0.00209123
-2.91894e-05
-0.00206377
-5.28626e-05
-0.00202349
-7.87784e-05
-0.00196934
-0.000106819
-0.00190035
-0.000136823
-0.00181567
-0.000168568
-0.00171453
-0.000201853
-0.00159648
-0.000236097
-0.00146116
-0.000271074
-0.00130853
-0.000306135
-0.00113879
-0.000340815
-0.000952607
-0.000374175
-0.000750987
-0.000405536
-0.000535058
-0.000434615
-0.000306859
-0.000459627
-6.7873e-05
-0.000481509
0.000178739
-0.000497615
0.000431009
-0.000509187
0.000686293
-0.000515556
0.000941961
-0.000516642
0.0011955
-0.000512658
0.00144462
-0.000503999
0.00168726
-0.000491215
0.00192175
-0.000474963
0.00214672
-0.000455948
0.00236119
-0.000434898
0.00256452
-0.000412484
0.00275635
-0.000389348
0.00293655
-0.00036589
0.00310524
-0.000342638
0.00326264
-0.000319832
0.00340924
-0.000297961
0.00354546
-0.000276953
0.00367202
-0.00025736
0.00378938
-0.000238708
0.00389841
-0.000221778
0.00399945
-0.000205556
0.00409345
-0.00019126
0.0041805
-0.000177101
0.00426166
-0.000165122
0.00433654
-0.000152346
0.00440655
-0.00014244
0.00447064
-0.000130371
0.00453094
-0.000122688
0.00458534
-0.000110668
0.00463727
-0.000105648
0.00468297
-9.29414e-05
0.00472779
-9.12072e-05
-7.78253e-05
-0.00118327
0.000131659
-0.00122391
0.00013813
-0.00126569
0.000141521
-0.00130832
0.000144094
-0.00135158
0.000146044
-0.00139523
0.000147381
-0.00143908
0.000148041
-0.00148284
0.000147891
-0.00152622
0.000146761
-0.00156883
0.000144466
-0.00161024
0.000140806
-0.00164995
0.000135574
-0.00168739
0.00012856
-0.00172189
0.000119563
-0.00175277
0.000108433
-0.00177929
9.48961e-05
-0.00180057
7.86241e-05
-0.00181563
5.93703e-05
-0.00182346
3.69341e-05
-0.00182293
1.10457e-05
-0.00181334
-1.74992e-05
-0.00179355
-4.89805e-05
-0.00176251
-8.39047e-05
-0.00171918
-0.000122111
-0.00166256
-0.000163436
-0.00159174
-0.000207645
-0.00150592
-0.000254383
-0.00140433
-0.000303445
-0.00128664
-0.000353791
-0.00115248
-0.000405233
-0.00100184
-0.000456776
-0.000834932
-0.000507719
-0.000652406
-0.0005567
-0.000455308
-0.000602633
-0.00024466
-0.000645263
-2.20889e-05
-0.000682199
0.000208687
-0.000712285
0.000447284
-0.000736212
0.000690844
-0.000752747
0.000936747
-0.000761458
0.00118246
-0.00076236
0.00142559
-0.000755782
0.00166392
-0.000742335
0.00189556
-0.000722852
0.00211892
-0.000698324
0.00233278
-0.000669802
0.00253625
-0.000638366
0.00272877
-0.000605006
0.00291009
-0.000570669
0.00308014
-0.000535941
0.00323908
-0.000501582
0.00338719
-0.000467939
0.00352495
-0.000435724
0.00365282
-0.000404822
0.0037715
-0.000376039
0.00388147
-0.000348674
0.00398355
-0.000323864
0.00407812
-0.000300124
0.00416608
-0.000279218
0.00424752
-0.00025854
0.00432344
-0.00024104
0.00439349
-0.000222404
0.00445897
-0.000207919
0.00451893
-0.000190327
0.00457531
-0.000179065
0.00462622
-0.00016158
0.00467474
-0.000154174
0.00471754
-0.000135734
0.00475942
-0.000133091
-0.000113728
-0.000941939
0.000161519
-0.000973649
0.00016984
-0.00100649
0.000174364
-0.00104022
0.000177817
-0.00107454
0.000180367
-0.00110923
0.00018207
-0.00114407
0.000182879
-0.00117881
0.000182634
-0.00121317
0.00018112
-0.0012468
0.000178096
-0.0012793
0.000173303
-0.00131019
0.000166469
-0.00133895
0.000157316
-0.00136496
0.000145574
-0.00138753
0.000131003
-0.00140602
0.000113393
-0.00141964
9.22448e-05
-0.00142747
6.71913e-05
-0.00142853
3.79936e-05
-0.00142156
4.08124e-06
-0.00140646
-3.26021e-05
-0.0013817
-7.37349e-05
-0.00134637
-0.000119237
-0.00129952
-0.000168966
-0.00124022
-0.000222733
-0.00116762
-0.000280249
-0.00108098
-0.000341018
-0.0009795
-0.000404925
-0.000862989
-0.000470303
-0.000731125
-0.000537097
-0.000583855
-0.000604046
-0.000421426
-0.000670148
-0.000244291
-0.000733835
-5.34454e-05
-0.000793479
0.000148263
-0.000846972
0.000360526
-0.000894461
0.000581727
-0.000933486
0.000809295
-0.00096378
0.00104082
-0.000984271
0.00127387
-0.000994504
0.00150603
-0.000994523
0.00173504
-0.000984794
0.00195886
-0.000966151
0.00217572
-0.000939718
0.00238422
-0.000906818
0.00258326
-0.000868842
0.0027721
-0.000827208
0.0029503
-0.000783206
0.0031177
-0.000738071
0.00327432
-0.000692562
0.00342038
-0.000647642
0.00355619
-0.000603749
0.00368227
-0.000561798
0.00379907
-0.000521627
0.0039073
-0.000484272
0.00400745
-0.000448819
0.00410031
-0.000416721
0.00418625
-0.000386068
0.00426613
-0.0003591
0.00434007
-0.000332482
0.00440898
-0.000309941
0.00447256
-0.00028599
0.00453195
-0.000267306
0.00458635
-0.000244726
0.00463743
-0.000230146
0.00468362
-0.000207768
0.00472753
-0.00019809
0.00476637
-0.000174574
0.00480425
-0.000170967
-0.000146366
-0.000645206
0.000181692
-0.000666312
0.000190946
-0.000688498
0.00019655
-0.000711601
0.00020092
-0.000735297
0.000204064
-0.000759346
0.000206119
-0.000783529
0.000207062
-0.000807618
0.000206722
-0.000831351
0.000204853
-0.000854423
0.000201168
-0.000876473
0.000195353
-0.00089708
0.000187076
-0.000915762
0.000175998
-0.000931968
0.000161781
-0.000945067
0.000144102
-0.000954397
0.000122724
-0.000959356
9.72033e-05
-0.000959045
6.68808e-05
-0.000952474
3.14219e-05
-0.000939177
-9.2154e-06
-0.000918011
-5.37677e-05
-0.000888061
-0.000103686
-0.000848452
-0.000158845
-0.0007983
-0.000219118
-0.000736755
-0.000284279
-0.000663018
-0.000353986
-0.000576364
-0.000427672
-0.000476025
-0.000505264
-0.000361751
-0.000584578
-0.000233368
-0.000665479
-9.06974e-05
-0.000746717
6.51875e-05
-0.000826033
0.000233409
-0.000902057
0.000413965
-0.000974034
0.000605746
-0.00103875
0.000806844
-0.00109556
0.00101551
-0.00114215
0.00122944
-0.00117771
0.00144635
-0.00120118
0.00166394
-0.00121209
0.00187996
-0.00121054
0.00209229
-0.00119713
0.00229908
-0.00117294
0.00249874
-0.00113938
0.00269004
-0.00109811
0.00287204
-0.00105084
0.00304415
-0.000999314
0.00320603
-0.000945091
0.00335763
-0.000889673
0.00349906
-0.000833984
0.00363057
-0.000779154
0.00375251
-0.000725695
0.00386542
-0.000674702
0.00396976
-0.000625967
0.00406622
-0.000580729
0.00415528
-0.000537883
0.00423771
-0.000499152
0.0043139
-0.000462255
0.00438463
-0.000429829
0.00445006
-0.000397913
0.00451098
-0.000370859
0.00456719
-0.000342204
0.00461962
-0.000319734
0.00466766
-0.000292765
0.00471265
-0.000275141
0.0047534
-0.000248518
0.00479199
-0.000236677
0.00482624
-0.000208828
0.00485946
-0.00020418
-0.000175181
-0.000307213
0.000191489
-0.000317076
0.000200808
-0.000328116
0.000207591
-0.00033991
0.000212714
-0.00035224
0.000216394
-0.000364921
0.000218801
-0.000377736
0.000219877
-0.000390466
0.000219453
-0.000402882
0.000217269
-0.000414718
0.000213005
-0.00042567
0.000206305
-0.000435378
0.000196784
-0.000443423
0.000184043
-0.000449327
0.000167685
-0.000452549
0.000147323
-0.000452434
0.000122609
-0.000448498
9.32675e-05
-0.000439967
5.83494e-05
-0.000425824
1.72792e-05
-0.000406004
-2.90351e-05
-0.000379077
-8.06955e-05
-0.000344314
-0.000138448
-0.000300897
-0.000202262
-0.000247998
-0.000272017
-0.000184807
-0.00034747
-0.000110586
-0.000428207
-2.43835e-05
-0.000513874
7.2689e-05
-0.000602336
0.00018225
-0.000694138
0.000304488
-0.000787718
0.000439374
-0.000881602
0.000586709
-0.000973368
0.000746036
-0.00106138
0.000916053
-0.00114405
0.00109581
-0.00121851
0.00128356
-0.00128331
0.00147762
-0.00133621
0.00167588
-0.00137596
0.00187618
-0.00140149
0.00207638
-0.00141229
0.0022744
-0.00140856
0.00246833
-0.00139106
0.00265651
-0.00136112
0.00283756
-0.00132043
0.00301041
-0.00127096
0.0031743
-0.00121474
0.00332878
-0.00115379
0.00347361
-0.00108992
0.00360881
-0.00102487
0.00373455
-0.000959724
0.00385112
-0.000895733
0.0039589
-0.000833469
0.00405839
-0.000774188
0.00415005
-0.000717636
0.00423456
-0.00066523
0.00431237
-0.0006157
0.00438422
-0.000570998
0.0044505
-0.000528533
0.00451192
-0.00049125
0.00456869
-0.000454683
0.00462147
-0.000423641
0.00467016
-0.000390899
0.00471548
-0.000365046
0.004757
-0.000334293
0.00479574
-0.000313879
0.00483089
-0.000283666
0.00486396
-0.000269746
0.00489345
-0.000238319
0.0049218
-0.00023253
-0.000199968
6.35049e-05
0.000186964
6.24642e-05
0.000201849
6.16372e-05
0.000208418
6.07343e-05
0.000213617
5.93573e-05
0.00021777
5.76597e-05
0.000220498
5.5878e-05
0.000221659
5.42083e-05
0.000221122
5.28389e-05
0.000218638
5.19812e-05
0.000213862
5.18918e-05
0.000206394
5.28684e-05
0.000195807
5.52502e-05
0.000181661
5.94299e-05
0.000163506
6.58589e-05
0.000140894
7.50615e-05
0.000113406
8.75628e-05
8.07662e-05
0.000103874
4.20382e-05
0.000124928
-3.77443e-06
0.000150712
-5.48196e-05
0.000182616
-0.000112599
0.000221269
-0.000177101
0.000267386
-0.00024838
0.000321699
-0.00032633
0.000384915
-0.000410686
0.000457687
-0.000500979
0.000540555
-0.000596742
0.000634341
-0.000696122
0.000739226
-0.000799024
0.000855257
-0.000903749
0.000982341
-0.00100869
0.00112035
-0.00111138
0.00126875
-0.00120979
0.00142647
-0.00130176
0.00159248
-0.00138452
0.00176519
-0.00145602
0.00194298
-0.001514
0.00212391
-0.0015569
0.00230601
-0.00158359
0.00248732
-0.0015936
0.00266598
-0.00158722
0.00284032
-0.0015654
0.0030089
-0.0015297
0.00317056
-0.00148209
0.00332444
-0.00142484
0.00346992
-0.00136022
0.00360666
-0.00129053
0.00373453
-0.00121779
0.0038536
-0.00114394
0.00396407
-0.00107019
0.00406623
-0.000997897
0.00416044
-0.000927674
0.00424716
-0.00086091
0.00432684
-0.000797318
0.00440008
-0.000738467
0.00446733
-0.000682957
0.00452926
-0.000632922
0.00458626
-0.000585536
0.00463898
-0.000543964
0.00468765
-0.000503362
0.00473283
-0.000468819
0.00477451
-0.000432575
0.00481317
-0.000403703
0.00484861
-0.000369733
0.00488147
-0.00034674
0.00491135
-0.000313548
0.0049392
-0.0002976
0.00496418
-0.000263289
0.00498789
-0.000256249
-0.000220871
0.000461596
0.000181035
0.000468389
0.000195055
0.000475484
0.000201324
0.000483025
0.000206076
0.000490591
0.000210204
0.00049814
0.000212949
0.000505809
0.00021399
0.000513738
0.000213193
0.000522064
0.000210313
0.000530939
0.000204987
0.000540539
0.000196794
0.000551072
0.000185274
0.000562789
0.000169945
0.000575987
0.000150308
0.00059102
0.000125862
0.000608312
9.61137e-05
0.000628388
6.06907e-05
0.000651769
1.86565e-05
0.000678352
-3.03569e-05
0.000709494
-8.59621e-05
0.000745643
-0.000148748
0.000787466
-0.000218924
0.000835626
-0.00029654
0.000890785
-0.000381489
0.000953583
-0.000473483
0.00102462
-0.000572019
0.00110435
-0.000676472
0.00119355
-0.000785322
0.00129233
-0.000897802
0.0014008
-0.00101222
0.00151883
-0.00112672
0.00164624
-0.00123878
0.00178246
-0.00134601
0.00192655
-0.00144585
0.00207746
-0.00153544
0.00223375
-0.00161232
0.00239389
-0.00167414
0.00255615
-0.00171915
0.00271876
-0.00174619
0.00288
-0.00175485
0.00303829
-0.00174551
0.00319221
-0.00171932
0.0033406
-0.00167809
0.00348253
-0.00162402
0.00361733
-0.00155963
0.00374455
-0.00148744
0.00386396
-0.00140994
0.00397549
-0.00132932
0.00407921
-0.00124766
0.00417534
-0.00116632
0.00426414
-0.0010867
0.00434592
-0.00100945
0.00442108
-0.000936068
0.00449
-0.000866242
0.00455321
-0.000801674
0.00461113
-0.000740876
0.00466433
-0.000686121
0.00471321
-0.000634423
0.00475833
-0.000589085
0.00479998
-0.000545014
0.00483858
-0.000507411
0.0048742
-0.0004682
0.00490712
-0.000436625
0.00493733
-0.000399944
0.00496513
-0.000374537
0.00499048
-0.000338898
0.00501382
-0.00032094
0.00503487
-0.000284336
0.00505455
-0.000275932
-0.000238341
0.000893559
0.000903209
0.000185406
0.000914291
0.000190241
0.00092671
0.000193657
0.000939887
0.000197027
0.000953607
0.000199229
0.000967883
0.000199714
0.00098277
0.000198307
0.000998328
0.000194754
0.00101464
0.000188678
0.0010318
0.000179633
0.00104994
0.000167135
0.00106921
0.000150668
0.00108983
0.000129695
0.00111202
0.000103667
0.0011361
7.20312e-05
0.00116249
3.43049e-05
0.00119146
-1.03161e-05
0.00122318
-6.20712e-05
0.00125846
-0.000121249
0.00129785
-0.000188133
0.0013419
-0.000262972
0.00139119
-0.00034583
0.0014463
-0.000436605
0.00150781
-0.000534993
0.00157625
-0.000640455
0.00165203
-0.000752255
0.00173575
-0.000869037
0.00182755
-0.000989611
0.00192754
-0.0011122
0.00203555
-0.00123473
0.00215134
-0.00135457
0.00227434
-0.00146901
0.00240369
-0.0015752
0.00253837
-0.00167011
0.00267708
-0.00175102
0.00281842
-0.00181548
0.00296089
-0.00186163
0.00310299
-0.00188829
0.0032433
-0.00189515
0.00338051
-0.00188272
0.00351354
-0.00185236
0.00364151
-0.00180605
0.00376372
-0.00174624
0.00387972
-0.00167563
0.0039892
-0.00159692
0.00409201
-0.00151276
0.00418812
-0.00142543
0.0042776
-0.00133714
0.00436061
-0.00124933
0.00443738
-0.00116348
0.00450814
-0.0010802
0.00457319
-0.00100112
0.00463284
-0.000925892
0.00468751
-0.000856341
0.00473757
-0.000790936
0.00478349
-0.000732046
0.00482568
-0.000676609
0.00486458
-0.000627985
0.00490053
-0.000580964
0.00493381
-0.000540697
0.00496461
-0.000498999
0.00499299
-0.000464997
0.00501909
-0.000426045
0.0050429
-0.000398352
0.00506471
-0.000360708
0.00508451
-0.000340738
0.00510248
-0.000302305
0.00511898
-0.000292438
-0.000253056
0.00137477
0.000177075
0.0013852
0.00017981
0.00139791
0.000180946
0.00141226
0.000182675
0.00142793
0.000183557
0.00144483
0.000182818
0.00146291
0.000180226
0.00148215
0.00017551
0.00150256
0.00016827
0.00152416
0.000158039
0.00154698
0.000144312
0.0015711
0.000126549
0.00159661
0.000104183
0.00162365
7.66289e-05
0.00165243
4.3247e-05
0.00168318
3.55718e-06
0.00171603
-4.31653e-05
0.00175133
-9.73664e-05
0.00178948
-0.000159401
0.00183094
-0.000229592
0.00187615
-0.000308182
0.00192557
-0.000395256
0.00197969
-0.000490722
0.00203897
-0.000594274
0.00210388
-0.000705367
0.00217481
-0.000823181
0.00225217
-0.000946395
0.00233611
-0.00107356
0.00242669
-0.00120278
0.00252372
-0.00133176
0.00262691
-0.00145776
0.0027357
-0.0015778
0.00284928
-0.00168879
0.0029667
-0.00178753
0.0030868
-0.00187113
0.00320839
-0.00193707
0.00333023
-0.00198346
0.00345111
-0.00200917
0.00356994
-0.00201397
0.00368577
-0.00199856
0.00379785
-0.00196443
0.00390557
-0.00191377
0.0040085
-0.00184917
0.00410636
-0.00177349
0.00419896
-0.00168952
0.00428622
-0.00160002
0.0043681
-0.00150731
0.00444464
-0.00141369
0.00451594
-0.00132063
0.00458215
-0.00122969
0.0046434
-0.00114145
0.00469988
-0.0010576
0.0047518
-0.000977816
0.00479947
-0.000904014
0.0048432
-0.000834664
0.00488336
-0.000772204
0.00492031
-0.000713566
0.00495443
-0.000662102
0.00498607
-0.000612602
0.0050154
-0.000570032
0.00504268
-0.00052628
0.00506779
-0.0004901
0.005091
-0.000449257
0.00511203
-0.000419387
0.00513142
-0.00038009
0.00514879
-0.000358107
0.00516466
-0.000318176
0.005179
-0.000306777
-0.000265847
0.00189158
0.000174698
0.00189657
0.00017482
0.00190463
0.00017288
0.00191523
0.000172074
0.00192804
0.000170752
0.00194289
0.000167969
0.00195967
0.000163447
0.00197829
0.000156893
0.00199867
0.00014788
0.00202079
0.000135927
0.00204459
0.000120512
0.00207006
0.000101076
0.00209721
7.70378e-05
0.00212606
4.77782e-05
0.00215661
1.26943e-05
0.00218925
-2.90876e-05
0.00222372
-7.76305e-05
0.00226035
-0.000133994
0.00229939
-0.000198441
0.00234114
-0.000271347
0.00238593
-0.000352974
0.0024341
-0.000443425
0.002486
-0.000542618
0.00254197
-0.000650241
0.00260232
-0.000765721
0.00266732
-0.000888182
0.00273724
-0.00101632
0.00281223
-0.00114855
0.0028923
-0.00128284
0.00297725
-0.00141671
0.00306675
-0.00154726
0.00316027
-0.00167132
0.00325707
-0.00178558
0.00335627
-0.00188673
0.00345692
-0.00197178
0.00355804
-0.00203819
0.00365868
-0.00208411
0.00375801
-0.0021085
0.00385528
-0.00211124
0.0039499
-0.00209319
0.00404145
-0.00205598
0.00412961
-0.00200193
0.00421416
-0.00193372
0.00429496
-0.00185429
0.00437192
-0.00176648
0.00444498
-0.00167307
0.00451407
-0.0015764
0.00457917
-0.00147878
0.00464027
-0.00138173
0.00469745
-0.00128687
0.00475071
-0.00119471
0.00480014
-0.00110702
0.00484584
-0.00102352
0.004888
-0.000946175
0.00492686
-0.000873517
0.00496267
-0.000808022
0.00499579
-0.000746685
0.00502649
-0.000692794
0.00505513
-0.000641246
0.00508181
-0.000596709
0.00510682
-0.000551295
0.0051299
-0.000513173
0.00515141
-0.000470772
0.00517086
-0.000438834
0.00518893
-0.000398162
0.005205
-0.000374179
0.00521979
-0.000332968
0.00523302
-0.000320007
-0.000277614
0.00245647
0.00245177
0.000179528
0.00245063
0.000174011
0.00245285
0.000169854
0.00245816
0.000165449
0.00246635
0.000159775
0.00247728
0.000152523
0.0024908
0.000143366
0.00250682
0.000131862
0.00252523
0.000117521
0.00254593
9.98119e-05
0.00256884
7.81653e-05
0.00259386
5.20106e-05
0.0026209
2.07473e-05
0.00265028
-1.66947e-05
0.00268141
-6.02141e-05
0.00271462
-0.000110843
0.00274988
-0.000169253
0.00278731
-0.000235872
0.00282707
-0.000311108
0.00286934
-0.000395241
0.00291431
-0.000488396
0.0029622
-0.000590502
0.0030132
-0.000701245
0.00306751
-0.000820029
0.00312526
-0.000945934
0.00318657
-0.00107762
0.00325143
-0.00121341
0.00331975
-0.00135116
0.00339137
-0.00148833
0.003466
-0.0016219
0.00354316
-0.00174848
0.00362219
-0.00186462
0.00370237
-0.00196691
0.00378294
-0.00205234
0.00386319
-0.00211844
0.00394252
-0.00216344
0.00402044
-0.00218642
0.00409659
-0.0021874
0.00417075
-0.00216734
0.00424277
-0.002128
0.00431257
-0.00207174
0.00438013
-0.00200128
0.00444539
-0.00191955
0.0045083
-0.00182939
0.00456878
-0.00173355
0.00462672
-0.00163434
0.00468199
-0.00153406
0.0047345
-0.00143423
0.00478419
-0.00133656
0.00483097
-0.00124149
0.0048748
-0.00115086
0.00491569
-0.00106441
0.00495371
-0.000984194
0.00498902
-0.000908823
0.00502178
-0.000840788
0.00505231
-0.000777216
0.0050808
-0.000721278
0.00510763
-0.000668075
0.0051328
-0.00062188
0.00515666
-0.000575162
0.00517882
-0.00053533
0.00519972
-0.000491666
0.00521867
-0.000457784
0.00523646
-0.000415956
0.0052523
-0.00039002
0.00526699
-0.000347652
0.00528013
-0.000333151
-0.000289254
0.00304273
0.00302917
0.000187578
0.00301959
0.000179434
0.00301383
0.000171204
0.0030117
0.000161909
0.00301302
0.000151206
0.00301765
0.000138729
0.00302548
0.000124037
0.00303636
0.000106641
0.00305017
8.60025e-05
0.00306679
6.15419e-05
0.00308613
3.26675e-05
0.00310787
-9.92995e-07
0.00313232
-4.11378e-05
0.00315886
-8.67573e-05
0.00318765
-0.000139637
0.00321857
-0.000200172
0.0032516
-0.000268903
0.00328675
-0.000346256
0.00332405
-0.000432538
0.00336354
-0.000527892
0.0034053
-0.000632257
0.00344937
-0.000745317
0.0034958
-0.000866461
0.0035446
-0.000994733
0.00359574
-0.00112877
0.00364913
-0.00126679
0.00370455
-0.00140659
0.00376175
-0.00154553
0.0038204
-0.00168055
0.00388021
-0.00180829
0.0039407
-0.00192511
0.00400132
-0.00202754
0.00406156
-0.00211258
0.00412102
-0.00217789
0.00417944
-0.00222186
0.00423671
-0.00224369
0.00429282
-0.00224351
0.00434784
-0.00222236
0.0044019
-0.00218205
0.00445509
-0.00212493
0.00450749
-0.00205367
0.00455909
-0.00197116
0.00460982
-0.00188012
0.00465956
-0.00178328
0.00470812
-0.00168289
0.00475527
-0.00158121
0.00480078
-0.00147975
0.00484449
-0.00138027
0.00488623
-0.00128323
0.00492583
-0.00119046
0.0049632
-0.00110178
0.0049983
-0.0010193
0.00503123
-0.000941752
0.00506207
-0.00087163
0.00509109
-0.000806239
0.00511842
-0.000748599
0.00514443
-0.000694091
0.00516908
-0.000646528
0.00519275
-0.000598828
0.00521494
-0.000557522
0.00523614
-0.000512863
0.00525554
-0.000477184
0.00527396
-0.000434377
0.00529051
-0.000406575
0.00530597
-0.000363107
0.00531995
-0.000347132
-0.00030161
0.00361941
0.000214633
0.00359664
0.000202195
0.00357817
0.000189677
0.00356379
0.000176295
0.00355335
0.000161641
0.00354677
0.000145315
0.0035439
0.0001269
0.00354462
0.000105922
0.00354878
8.1841e-05
0.00355624
5.40847e-05
0.00356684
2.2066e-05
0.00358088
-1.50347e-05
0.00359718
-5.74294e-05
0.00361629
-0.000105872
0.00363784
-0.000161182
0.00366167
-0.000224008
0.00368765
-0.000294881
0.00371565
-0.000374255
0.00374557
-0.000462457
0.00377732
-0.000559641
0.00381081
-0.000665749
0.00384596
-0.000780468
0.00388267
-0.000903172
0.00392082
-0.00103288
0.00396026
-0.0011682
0.00400077
-0.00130731
0.00404212
-0.00144793
0.00408397
-0.00158738
0.004126
-0.00172257
0.00416787
-0.00185017
0.00420944
-0.00196668
0.00425046
-0.00206856
0.00429069
-0.00215281
0.00433005
-0.00221725
0.00436863
-0.00226045
0.00440666
-0.00228172
0.00444443
-0.00228127
0.00448226
-0.00226019
0.00452044
-0.00222023
0.00455918
-0.00216367
0.00459859
-0.00209309
0.00463867
-0.00201123
0.00467928
-0.00192073
0.00472021
-0.00182422
0.0047612
-0.00172388
0.0048019
-0.00162192
0.00484199
-0.00151983
0.00488117
-0.00141945
0.00491919
-0.00132125
0.00495578
-0.00122705
0.00499077
-0.00113677
0.00502404
-0.00105256
0.00505561
-0.000973321
0.00508549
-0.000901513
0.00511392
-0.00083467
0.00514096
-0.000775638
0.00516701
-0.000720134
0.00519195
-0.000671468
0.00521619
-0.000623076
0.0052392
-0.000580529
0.00526146
-0.000535119
0.00528209
-0.000497816
0.00530189
-0.00045418
0.00531995
-0.000424636
0.00533693
-0.000380088
0.00535255
-0.000362751
-0.000315443
0.00418781
0.00415296
0.000237055
0.00412245
0.000220187
0.00409611
0.000202626
0.00407391
0.000183848
0.00405578
0.00016344
0.00404163
0.000141051
0.00403133
0.000116223
0.00402475
8.84197e-05
0.00402179
5.70436e-05
0.00402238
2.14787e-05
0.00402627
-1.89261e-05
0.00403319
-6.43542e-05
0.00404297
-0.000115647
0.00405537
-0.000173584
0.00407017
-0.000238806
0.00408713
-0.000311844
0.00410604
-0.000393166
0.0041267
-0.000483109
0.00414888
-0.000581825
0.00417239
-0.000689255
0.004197
-0.000805082
0.0042225
-0.000928671
0.00424864
-0.00105902
0.00427517
-0.00119473
0.0043018
-0.00133394
0.00432823
-0.00147436
0.00435414
-0.00161329
0.00437925
-0.00174768
0.00440333
-0.00187425
0.0044263
-0.00198964
0.00444833
-0.00209059
0.00446956
-0.00217404
0.00449024
-0.00223793
0.00451076
-0.00228097
0.00453163
-0.00230258
0.00455335
-0.002303
0.00457642
-0.00228326
0.00460121
-0.00224502
0.00462796
-0.00219042
0.00465676
-0.00212189
0.00468755
-0.00204201
0.00472012
-0.0019533
0.00475417
-0.00185828
0.00478934
-0.00175904
0.00482519
-0.00165777
0.00486129
-0.00155594
0.00489725
-0.00145541
0.00493274
-0.00135675
0.00496742
-0.00126172
0.00500104
-0.00117039
0.0050334
-0.00108493
0.00506448
-0.0010044
0.00509422
-0.000931253
0.00512283
-0.000863279
0.00515031
-0.000803124
0.00517707
-0.000746892
0.00520296
-0.000697362
0.00522842
-0.000648535
0.00525287
-0.000604978
0.0052768
-0.000559041
0.00529929
-0.000520308
0.00532108
-0.000475975
0.0053413
-0.000444852
0.00536043
-0.000399222
0.00537835
-0.000380669
-0.000331408
0.00465119
0.000280625
0.00461155
0.000259834
0.00457576
0.000238414
0.0045439
0.000215704
0.004516
0.000191341
0.00449199
0.000165059
0.00447179
0.000136427
0.00445526
0.000104951
0.00444227
7.00378e-05
0.00443288
3.08647e-05
0.00442712
-1.31685e-05
0.00442427
-6.15028e-05
0.0044243
-0.000115677
0.00442696
-0.000176241
0.00443198
-0.000243824
0.00443908
-0.000318946
0.00444799
-0.000402076
0.00445842
-0.00049354
0.00447007
-0.000593478
0.00448265
-0.000701827
0.00449582
-0.000818258
0.00450928
-0.000942128
0.00452269
-0.00107243
0.00453571
-0.00120776
0.00454803
-0.00134625
0.00455933
-0.00148566
0.00456934
-0.00162331
0.00457788
-0.00175623
0.0045849
-0.00188126
0.00459046
-0.00199521
0.00459497
-0.0020951
0.00459902
-0.00217809
0.00460316
-0.00224207
0.00460807
-0.00228588
0.00461441
-0.00230893
0.00462285
-0.00231143
0.00463391
-0.00229433
0.004648
-0.00225911
0.00466532
-0.00220775
0.0046859
-0.00214246
0.00470959
-0.0020657
0.00473611
-0.00197982
0.00476508
-0.00188724
0.00479603
-0.00178999
0.00482846
-0.0016902
0.00486186
-0.00158934
0.00489576
-0.0014893
0.00492975
-0.00139074
0.00496345
-0.00129542
0.00499655
-0.00120349
0.0050288
-0.00111717
0.00506011
-0.00103571
0.00509039
-0.000961532
0.00511981
-0.000892701
0.00514835
-0.000831661
0.00517639
-0.000774929
0.00520377
-0.000724749
0.00523095
-0.000675711
0.00525734
-0.000631368
0.00528341
-0.000585109
0.00530826
-0.000545157
0.00533253
-0.000500249
0.00535541
-0.000467735
0.00537721
-0.000421019
0.00539796
-0.000401421
-0.00035006
0.00505687
0.00501255
0.00030415
0.00497145
0.000279512
0.00493376
0.000253393
0.00489953
0.000225578
0.00486874
0.000195846
0.00484138
0.000163786
0.00481743
0.000128905
0.00479679
9.06794e-05
0.00477931
4.83446e-05
0.00476559
5.47612e-07
0.00475419
-5.01033e-05
0.00474541
-0.000106897
0.00473904
-0.000169869
0.00473482
-0.000239604
0.00473244
-0.000316565
0.00473158
-0.000401215
0.0047319
-0.000493862
0.00473305
-0.000594628
0.00473466
-0.000703435
0.00473635
-0.000819947
0.00473773
-0.000943516
0.00473844
-0.00107314
0.00473812
-0.00120743
0.00473643
-0.00134457
0.00473314
-0.00148236
0.00472807
-0.00161824
0.0047212
-0.00174936
0.00471266
-0.00187272
0.00470279
-0.00198534
0.00469212
-0.00208443
0.00468154
-0.00216751
0.00467195
-0.00223249
0.00466419
-0.00227811
0.00465903
-0.00230377
0.00465714
-0.00230955
0.00465906
-0.00229625
0.00466514
-0.00226518
0.0046755
-0.00221811
0.0046901
-0.00215706
0.00470871
-0.00208432
0.00473098
-0.00200209
0.00475644
-0.0019127
0.00478457
-0.00181812
0.00481482
-0.00172045
0.00484662
-0.00162114
0.00487944
-0.00152212
0.00491282
-0.00142412
0.00494634
-0.00132894
0.00497964
-0.0012368
0.00501243
-0.00114996
0.00504459
-0.00106787
0.00507598
-0.000992921
0.00510675
-0.000923468
0.00513684
-0.000861748
0.00516661
-0.000804708
0.00519593
-0.000754069
0.00522524
-0.000705013
0.00525396
-0.000660097
0.00528256
-0.000613703
0.00531015
-0.000572752
0.00533729
-0.000527384
0.00536324
-0.000493684
0.00538811
-0.000445887
0.00541211
-0.000425428
-0.000371857
0.00530374
0.00526218
0.000321073
0.00522322
0.000292351
0.00518695
0.000261849
0.00515345
0.000229351
0.00512275
0.000194479
0.00509486
0.000156796
0.00506971
0.000115827
0.00504721
7.08451e-05
0.00502712
2.06466e-05
0.00501015
-3.31334e-05
0.00499476
-9.15117e-05
0.00498122
-0.000156333
0.00496931
-0.000227688
0.00495873
-0.000305991
0.0049492
-0.00039168
0.00494035
-0.000485015
0.00493181
-0.000586089
0.00492319
-0.00069481
0.00491407
-0.000810836
0.00490408
-0.000933526
0.00489285
-0.0010619
0.00488004
-0.00119462
0.00486541
-0.00132995
0.00484883
-0.00146578
0.00483028
-0.00159969
0.00480994
-0.00172901
0.00478813
-0.00185092
0.00476544
-0.00196265
0.00474258
-0.00206157
0.00472058
-0.0021455
0.00470051
-0.00221242
0.00468333
-0.00226093
0.0046698
-0.00229025
0.00466058
-0.00230033
0.00465613
-0.0022918
0.00465671
-0.00226576
0.00466239
-0.00222378
0.00467303
-0.0021677
0.00468834
-0.00209963
0.00470792
-0.00202167
0.00473126
-0.00193604
0.00475779
-0.00184465
0.00478692
-0.00174959
0.00481807
-0.00165229
0.00485065
-0.0015547
0.00488415
-0.00145762
0.00491816
-0.00136295
0.00495229
-0.00127093
0.00498619
-0.00118386
0.00501972
-0.0011014
0.0050527
-0.0010259
0.00508526
-0.000956026
0.00511732
-0.000893803
0.00514923
-0.000836618
0.00518084
-0.000785684
0.0052126
-0.000736775
0.005244
-0.000691489
0.00527542
-0.00064513
0.00530607
-0.000603401
0.00533637
-0.000557684
0.0053657
-0.000523014
0.00539397
-0.000474154
0.00542156
-0.00045302
-0.000397177
0.00544475
0.000358564
0.00540875
0.000328346
0.00537445