/*--------------------------------*- C++ -*----------------------------------*\
  =========                 |
  \\      /  F ield         | OpenFOAM: The Open Source CFD Toolbox
   \\    /   O peration     | Website:  https://openfoam.org
    \\  /    A nd           | Version:  7
     \\/     M anipulation  |
\*---------------------------------------------------------------------------*/
FoamFile
{
    version     2.0;
    format      ascii;
    class       volScalarField;
    location    "14";
    object      p;
}
// * * * * * * * * * * * * * * * * * * * * * * * * * * * * * * * * * * * * * //

dimensions      [0 2 -2 0 0 0 0];

internalField   nonuniform List<scalar> 
433
(
0.0248502
0.0241111
0.0233715
0.0226316
0.0218916
0.0211517
0.0204123
0.0196735
0.0189356
0.0181988
0.0174633
0.0167295
0.0248582
0.0241134
0.0233673
0.0226201
0.0218721
0.0211237
0.0203749
0.0196262
0.0188779
0.0181302
0.0173833
0.0166377
0.0248338
0.0240739
0.0233122
0.0225491
0.0217849
0.0210197
0.020254
0.0194881
0.0187222
0.0179568
0.0171922
0.0164287
0.0247941
0.0240117
0.0232272
0.0224408
0.0216529
0.0208637
0.0200737
0.0192831
0.0184924
0.0177019
0.016912
0.0161231
0.0247309
0.0239185
0.0231035
0.0222864
0.0214676
0.0206472
0.0198257
0.0190035
0.0181809
0.0173584
0.0165364
0.0157152
0.023797
0.0229444
0.0220895
0.0212325
0.0203739
0.0195138
0.0186529
0.0177915
0.0169301
0.016069
0.0152087
0.0236442
0.0227466
0.0218466
0.0209444
0.0200402
0.0191345
0.0182278
0.0173204
0.016413
0.0155058
0.0145993
0.0234599
0.0225098
0.0215573
0.0206024
0.0196454
0.0186867
0.0177268
0.0167663
0.0158056
0.0148451
0.0138853
0.0232419
0.0222315
0.0212187
0.0202033
0.0191856
0.0181661
0.0171455
0.016124
0.0151023
0.0140808
0.0130601
0.0229899
0.021911
0.0208296
0.0197456
0.0186593
0.0175711
0.0164816
0.0153914
0.0143009
0.0132107
0.0121213
0.0227023
0.0215458
0.020387
0.0192255
0.0180616
0.0168958
0.0157287
0.0145609
0.0133929
0.0122251
0.0110581
0.0223794
0.0211357
0.0198898
0.0186414
0.0173905
0.0161377
0.0148837
0.0136291
0.0123743
0.0111199
0.00986642
0.0220209
0.0206792
0.0193357
0.0179898
0.0166416
0.0152916
0.0139405
0.0125889
0.0112373
0.0098862
0.00853622
0.0216276
0.0201761
0.0187235
0.0172687
0.0158117
0.0143532
0.0128938
0.0114342
0.00997478
0.00851619
0.00705891
0.0212007
0.0196265
0.0180517
0.0164752
0.0148969
0.0133175
0.0117376
0.0101577
0.00857855
0.00700049
0.00542407
0.0207424
0.0190307
0.0173194
0.0156071
0.0138936
0.0121794
0.0104654
0.00875201
0.00703975
0.00532911
0.00362058
0.0202554
0.0183897
0.0165259
0.0146621
0.0127978
0.0109337
0.0090705
0.0072087
0.00534875
0.0034911
0.00163617
0.0197433
0.0177052
0.0156709
0.0136378
0.0116054
0.00957436
0.00754528
0.00551862
0.00349478
0.00147416
-0.000542953
0.0192106
0.0169794
0.0147543
0.0125323
0.0103125
0.00809556
0.00588207
0.00367237
0.0014668
-0.000734343
-0.00293106
0.0186626
0.0162148
0.0137761
0.0113429
0.00891402
0.00648994
0.00407115
0.00165787
-0.000749715
-0.00315151
-0.0055482
0.0181058
0.0154151
0.0127374
0.0100683
0.00740648
0.00475215
0.00210576
-0.000532569
-0.00316282
-0.00578493
-0.00839793
0.0175468
0.0145831
0.0116372
0.00870402
0.0057816
0.00287003
-3.04357e-05
-0.00291992
-0.00579862
-0.00866679
-0.0115244
0.0169947
0.0137241
0.0104773
0.00724865
0.0040353
0.000837176
-0.00234571
-0.0055137
-0.00866727
-0.0118069
-0.014933
0.0164586
0.0128424
0.0092578
0.0056979
0.00215919
-0.00135875
-0.00485621
-0.00833384
-0.0117924
-0.0152329
-0.018656
0.0159494
0.0119438
0.00797929
0.00404786
0.00014509
-0.0037299
-0.00757771
-0.0113994
-0.015196
-0.0189692
-0.0227206
0.0154796
0.0110342
0.00664186
0.00229299
-0.0020179
-0.00629228
-0.0105313
-0.0147365
-0.0189099
-0.0230558
-0.0271789
0.0150641
0.0101214
0.00524633
0.00042806
-0.00434023
-0.00906055
-0.0137344
-0.018364
-0.0229517
-0.027499
-0.0320046
0.0147203
0.00921309
0.00379162
-0.00155667
-0.00684011
-0.0120614
-0.0172227
-0.0223268
-0.0273768
-0.0323737
-0.0373122
0.0144712
0.00832161
0.0022798
-0.00366853
-0.00953352
-0.0153188
-0.0210271
-0.026662
-0.0322276
-0.0377272
-0.0431522
0.0143464
0.00746327
0.000714786
-0.00591506
-0.0124384
-0.01886
-0.0251828
-0.0314105
-0.0375488
-0.0436049
-0.0495492
0.0143849
0.00666046
-0.000896638
-0.00830426
-0.0155773
-0.0227221
-0.0297436
-0.0366497
-0.0434631
-0.0502124
-0.0566654
0.014639
0.00594598
-0.00253934
-0.0108359
-0.0189602
-0.0269186
-0.0347151
-0.0423547
-0.0498292
-0.057104
-0.0644364
0.0151762
0.00536091
-0.00419931
-0.0135245
-0.0226346
-0.0315371
-0.0402371
-0.0487435
-0.0570616
-0.0651517
-0.0731442
0.016092
0.00497294
-0.00583442
-0.0163509
-0.0265995
-0.0365883
-0.0463233
-0.055821
-0.0650968
-0.0740159
-0.0828059
0.0175018
0.00486484
-0.00739463
-0.0192971
-0.0308675
-0.0421129
-0.053039
-0.0636594
-0.0739619
-0.0839223
-0.0936519
0.0195594
0.00515118
-0.00880518
-0.0223294
-0.0354464
-0.0481575
-0.0604648
-0.0723642
-0.0837244
-0.0949798
-0.105818
0.0224203
0.005932
-0.0100186
-0.025454
-0.0404001
-0.0548624
-0.0688844
-0.0825059
-0.0951326
-0.107583
-0.119591
0.026366
0.00746863
-0.0107989
-0.0284624
-0.0455396
-0.0620256
-0.0778772
-0.0928154
-0.107601
-0.121675
-0.135032
-0.0504045
-0.0693957
-0.0876823
-0.104845
-0.121691
-0.137599
-0.152582
-0.140454
-0.15794
-0.174354
)
;

boundaryField
{
    inlet
    {
        type            zeroGradient;
    }
    outlet
    {
        type            fixedValue;
        value           nonuniform 0();
    }
    cylinder
    {
        type            zeroGradient;
    }
    top
    {
        type            symmetryPlane;
    }
    bottom
    {
        type            symmetryPlane;
    }
    defaultFaces
    {
        type            empty;
    }
    procBoundary1to0
    {
        type            processor;
        value           nonuniform List<scalar> 
31
(
0.0255883
0.025601
0.025591
0.025573
0.025539
0.0246467
0.0246467
0.0245386
0.0244065
0.0242487
0.0240652
0.0238551
0.0236195
0.023359
0.0230758
0.0227723
0.0224523
0.0221203
0.021782
0.0214443
0.0211153
0.0208047
0.0205227
0.0202826
0.0200983
0.0199864
0.0199661
0.0200601
0.0202954
0.0207065
0.0213367
)
;
    }
    procBoundary1to2
    {
        type            processor;
        value           nonuniform List<scalar> 
33
(
0.0159974
0.0158936
0.0156666
0.0153354
0.0148953
0.0143496
0.0136941
0.0129267
0.0120403
0.0110333
0.00989255
0.0086144
0.00718786
0.00560347
0.0038498
0.00191461
-0.00021563
-0.00255626
-0.00512351
-0.00794067
-0.0109999
-0.0143704
-0.0180444
-0.0220593
-0.026443
-0.031243
-0.036485
-0.0422312
-0.048535
-0.0554489
-0.0631093
-0.0715726
-0.0809566
)
;
    }
    procBoundary1to6
    {
        type            processor;
        value           nonuniform List<scalar> 8(0.0222419 0.0234947 0.0251889 0.0274474 0.0304179 0.0342928 0.0392888 0.0457128);
    }
    procBoundary1to7
    {
        type            processor;
        value           nonuniform List<scalar> 
13
(
-0.149233
-0.16874
-0.187078
0.0324074
0.010676
-0.0103637
-0.0307264
-0.0307264
-0.0601435
-0.081633
-0.101981
-0.121805
-0.121805
)
;
    }
    procBoundary1to8
    {
        type            processor;
        value           nonuniform List<scalar> 7(-0.0913963 -0.103099 -0.116236 -0.131089 -0.147755 -0.166721 -0.189689);
    }
}


// ************************************************************************* //
