/*--------------------------------*- C++ -*----------------------------------*\
  =========                 |
  \\      /  F ield         | OpenFOAM: The Open Source CFD Toolbox
   \\    /   O peration     | Website:  https://openfoam.org
    \\  /    A nd           | Version:  7
     \\/     M anipulation  |
\*---------------------------------------------------------------------------*/
FoamFile
{
    version     2.0;
    format      ascii;
    class       volVectorField;
    location    "55.999258";
    object      U;
}
// * * * * * * * * * * * * * * * * * * * * * * * * * * * * * * * * * * * * * //

dimensions      [0 1 -1 0 0 0 0];

internalField   nonuniform List<vector> 
5800
(
(0.0154666 -0.0032494 -4.19484e-22)
(0.0215668 -0.00970203 -1.28845e-20)
(0.0337422 -0.0160144 1.91014e-20)
(0.0519413 -0.0220875 6.14038e-21)
(0.076082 -0.0278153 -1.6262e-20)
(0.0227658 -0.0028986 2.39005e-21)
(0.0274631 -0.0027264 2.19418e-21)
(0.0320012 -0.00262379 -4.08613e-21)
(0.0365131 -0.00256061 1.93372e-21)
(0.0410392 -0.00252515 -1.11826e-21)
(0.0456172 -0.00251189 -3.79864e-22)
(0.0502849 -0.0025158 2.17169e-21)
(0.0550731 -0.00253263 -3.12999e-21)
(0.0600063 -0.00255916 1.36552e-21)
(0.0651052 -0.00259284 1.24644e-21)
(0.0703869 -0.00263156 -2.55687e-21)
(0.0758655 -0.00267359 -3.39254e-23)
(0.0815524 -0.00271741 2.04655e-21)
(0.0874565 -0.00276176 -1.60953e-22)
(0.0935844 -0.00280553 -8.30209e-22)
(0.0999407 -0.00284778 7.2473e-22)
(0.106528 -0.00288769 -3.39931e-22)
(0.113347 -0.00292458 4.53752e-22)
(0.120396 -0.00295791 -3.33723e-22)
(0.127674 -0.00298721 -2.19178e-22)
(0.135176 -0.00301214 9.30109e-22)
(0.142898 -0.00303246 -2.79474e-22)
(0.150832 -0.00304798 -6.02043e-22)
(0.158972 -0.00305863 3.91559e-22)
(0.16731 -0.00306436 1.21603e-22)
(0.175838 -0.00306521 -4.63343e-22)
(0.184545 -0.00306125 5.26179e-22)
(0.193422 -0.00305259 -4.24604e-22)
(0.202458 -0.00303939 -2.85088e-22)
(0.211644 -0.00302181 8.19029e-22)
(0.220969 -0.00300006 -5.6032e-22)
(0.23042 -0.00297435 -9.05339e-23)
(0.239989 -0.0029449 1.13261e-22)
(0.249662 -0.00291195 6.31366e-24)
(0.25943 -0.00287573 2.70606e-22)
(0.269281 -0.00283651 -3.47869e-22)
(0.279204 -0.00279451 2.8824e-22)
(0.289188 -0.00274999 -3.16454e-24)
(0.299224 -0.00270318 -1.68901e-23)
(0.3093 -0.00265434 -2.95437e-23)
(0.319406 -0.00260368 1.78481e-22)
(0.329532 -0.00255144 -7.16201e-24)
(0.339669 -0.00249784 -7.04949e-23)
(0.349808 -0.00244309 -3.11219e-23)
(0.359939 -0.0023874 1.72511e-23)
(0.370054 -0.00233096 -8.84446e-23)
(0.380145 -0.00227396 1.09259e-22)
(0.390204 -0.00221657 -2.76284e-23)
(0.400223 -0.00215897 5.60322e-23)
(0.410196 -0.0021013 -1.83569e-23)
(0.420115 -0.00204373 1.58041e-24)
(0.429975 -0.00198638 6.59679e-24)
(0.43977 -0.00192939 -2.98059e-23)
(0.449495 -0.00187288 3.2731e-23)
(0.459144 -0.00181696 -2.77246e-23)
(0.468714 -0.00176173 2.42406e-24)
(0.478199 -0.00170728 1.61987e-23)
(0.487597 -0.00165371 -7.24855e-25)
(0.496903 -0.00160108 -5.94402e-24)
(0.506119 -0.00154946 -2.9467e-24)
(0.515231 -0.00149893 -1.33246e-24)
(0.524263 -0.00144945 3.22418e-24)
(0.533156 -0.00140126 -2.48358e-24)
(0.542034 -0.00135371 -1.45561e-24)
(0.550618 -0.00130851 2.83085e-25)
(0.559514 -0.00126093 -2.47732e-25)
(0.567406 -0.00122215 -5.47856e-26)
(0.577078 -0.00116386 8.85493e-25)
(0.582677 -0.00115009 3.0146e-25)
(0.596236 -0.00103736 -9.18669e-25)
(0.0289929 -0.00865113 -9.2114e-22)
(0.0335829 -0.00814343 -1.56724e-21)
(0.0380278 -0.00784152 -1.44542e-21)
(0.0424789 -0.00765486 2.33955e-22)
(0.0469532 -0.00755012 -9.85793e-22)
(0.0514827 -0.00751145 8.06137e-21)
(0.0561051 -0.00752388 -5.8492e-21)
(0.0608504 -0.00757484 4.20528e-21)
(0.0657422 -0.00765474 -3.21411e-21)
(0.0708005 -0.00775596 -2.0953e-21)
(0.0760418 -0.00787225 2.11747e-21)
(0.0814799 -0.00799835 2.03645e-21)
(0.0871256 -0.00812979 -4.53292e-21)
(0.0929877 -0.00826272 1.03742e-21)
(0.0990722 -0.00839386 -1.7866e-21)
(0.105384 -0.00852036 1.862e-21)
(0.111924 -0.00863981 -4.28991e-22)
(0.118694 -0.00875018 3.29008e-21)
(0.125692 -0.00884982 -1.37847e-21)
(0.132916 -0.00893738 4.34809e-22)
(0.140362 -0.00901186 6.79498e-22)
(0.148024 -0.0090725 -2.16056e-21)
(0.155897 -0.00911881 2.65016e-22)
(0.163973 -0.00915051 -3.167e-22)
(0.172245 -0.00916753 9.42419e-24)
(0.180703 -0.00916995 2.3928e-22)
(0.189338 -0.009158 9.21216e-22)
(0.198141 -0.00913202 -3.25789e-22)
(0.207102 -0.00909246 -6.80306e-22)
(0.216211 -0.00903984 1.23052e-21)
(0.225456 -0.00897474 -2.0319e-21)
(0.234827 -0.00889781 5.10962e-22)
(0.244313 -0.00880973 1.62729e-21)
(0.253903 -0.00871118 -1.07789e-21)
(0.263586 -0.00860289 -4.12514e-22)
(0.273352 -0.0084856 6.14436e-22)
(0.283189 -0.00836004 -9.95606e-22)
(0.293087 -0.00822693 1.38662e-21)
(0.303036 -0.008087 -5.78491e-22)
(0.313024 -0.00794097 -1.57273e-22)
(0.323043 -0.00778953 1.20479e-22)
(0.333083 -0.00763336 -2.22211e-24)
(0.343133 -0.00747313 5.56583e-23)
(0.353185 -0.00730945 -2.09211e-23)
(0.36323 -0.00714296 1.25123e-22)
(0.37326 -0.00697423 -7.51857e-23)
(0.383266 -0.00680381 1.27869e-22)
(0.393241 -0.00663224 -1.77353e-22)
(0.403177 -0.00646002 -3.95275e-23)
(0.413067 -0.00628762 -5.81814e-23)
(0.422906 -0.00611548 1.61146e-22)
(0.432686 -0.00594402 -1.85035e-22)
(0.442402 -0.00577362 -4.64467e-23)
(0.452048 -0.00560465 5.159e-23)
(0.461621 -0.00543744 -9.50235e-24)
(0.471115 -0.00527229 -1.34039e-23)
(0.480526 -0.00510949 -5.95975e-24)
(0.489852 -0.00494929 5.75844e-24)
(0.499086 -0.00479192 -2.72586e-23)
(0.508232 -0.00463756 1.93742e-23)
(0.517276 -0.00448645 2.78001e-24)
(0.52624 -0.00433847 -8.24591e-25)
(0.535068 -0.00419439 5.66769e-24)
(0.543882 -0.00405219 -3.44518e-24)
(0.552403 -0.00391702 -1.07508e-25)
(0.561238 -0.00377473 -6.94219e-26)
(0.569072 -0.00365882 -4.95758e-25)
(0.578682 -0.00348448 1.40534e-24)
(0.584237 -0.00344346 8.64425e-25)
(0.597715 -0.0031068 7.94341e-24)
(0.0414139 -0.0142685 3.74569e-23)
(0.0457892 -0.0134514 4.76916e-21)
(0.0500459 -0.0129679 8.88287e-22)
(0.0543733 -0.0126666 -9.25069e-21)
(0.0587419 -0.0124978 -5.54636e-21)
(0.0631724 -0.0124372 5.10993e-21)
(0.0677024 -0.0124605 1.15243e-20)
(0.0723604 -0.0125471 -6.38221e-21)
(0.0771681 -0.0126814 -2.32635e-21)
(0.082144 -0.0128509 1.30404e-21)
(0.0873036 -0.0130452 2.79469e-21)
(0.0926597 -0.0132555 -3.79454e-21)
(0.0982225 -0.0134745 4.11182e-21)
(0.104 -0.0136957 -3.55572e-21)
(0.109997 -0.0139137 6.78915e-21)
(0.116218 -0.0141238 -6.45081e-21)
(0.122664 -0.014322 1.06975e-21)
(0.129335 -0.0145049 -8.26551e-21)
(0.13623 -0.0146699 3.09545e-21)
(0.143346 -0.0148147 -2.0477e-21)
(0.150679 -0.0149378 9.93772e-22)
(0.158223 -0.0150379 7.1847e-21)
(0.165972 -0.0151142 -3.79488e-21)
(0.17392 -0.0151663 1.2268e-21)
(0.182057 -0.0151941 -3.21698e-21)
(0.190377 -0.0151977 2.70998e-21)
(0.19887 -0.0151776 -3.57034e-21)
(0.207526 -0.0151343 1.52803e-21)
(0.216335 -0.0150686 -3.85581e-22)
(0.225289 -0.0149812 1.0885e-21)
(0.234375 -0.0148733 1.01703e-21)
(0.243585 -0.0147458 1.27977e-21)
(0.252907 -0.0145999 -1.11767e-21)
(0.262331 -0.0144367 2.00931e-22)
(0.271846 -0.0142574 -5.33439e-22)
(0.281442 -0.0140632 9.94084e-22)
(0.291108 -0.0138554 -5.41981e-22)
(0.300834 -0.013635 2.32733e-22)
(0.31061 -0.0134034 -1.06137e-21)
(0.320426 -0.0131618 2.36824e-22)
(0.330272 -0.0129111 3.77277e-22)
(0.340138 -0.0126527 -6.76168e-22)
(0.350016 -0.0123875 5.06164e-22)
(0.359897 -0.0121166 5.32416e-22)
(0.369771 -0.011841 -3.52838e-22)
(0.379631 -0.0115618 -9.82821e-23)
(0.389469 -0.0112797 -2.88773e-22)
(0.399277 -0.0109957 6.45466e-23)
(0.409048 -0.0107106 8.72896e-23)
(0.418775 -0.0104253 1.77505e-22)
(0.428452 -0.0101403 -1.93665e-22)
(0.438073 -0.00985646 1.20453e-22)
(0.447633 -0.00957437 7.64162e-23)
(0.457125 -0.00929462 -8.05873e-23)
(0.466545 -0.00901778 5.14638e-24)
(0.47589 -0.00874434 5.92289e-23)
(0.485154 -0.00847477 -2.15581e-23)
(0.494335 -0.0082095 1.33216e-24)
(0.503428 -0.00794891 2.98567e-23)
(0.512435 -0.0076933 -5.35137e-25)
(0.521343 -0.00744306 2.99704e-23)
(0.530174 -0.007198 -2.14836e-23)
(0.538871 -0.00695941 -6.13017e-24)
(0.547558 -0.0067239 1.25741e-23)
(0.555955 -0.00650013 -3.46661e-24)
(0.564668 -0.00626443 8.54227e-25)
(0.572387 -0.00607272 3.65075e-25)
(0.581874 -0.0057839 -5.84268e-24)
(0.587343 -0.00571642 -2.17038e-24)
(0.60066 -0.0051604 -1.37097e-23)
(0.0599606 -0.0196557 2.31318e-23)
(0.0640143 -0.0185716 -1.81784e-20)
(0.0679852 -0.0179364 -3.83454e-21)
(0.0721215 -0.0175358 1.98959e-20)
(0.0763263 -0.0173124 -1.39983e-20)
(0.0806034 -0.0172364 2.39378e-21)
(0.0849906 -0.017275 8.20597e-21)
(0.0895141 -0.0174004 -6.84111e-21)
(0.0941925 -0.0175913 -6.28659e-21)
(0.0990421 -0.0178306 1.03418e-20)
(0.104077 -0.0181038 3.15541e-21)
(0.109308 -0.0183989 -3.79972e-21)
(0.114744 -0.0187054 -3.69178e-21)
(0.120393 -0.0190145 2.71059e-22)
(0.126257 -0.0193186 7.8768e-21)
(0.13234 -0.0196112 -4.00573e-21)
(0.138643 -0.0198868 -4.38854e-22)
(0.145165 -0.0201408 -4.03992e-21)
(0.151904 -0.0203696 -2.16125e-22)
(0.158856 -0.0205702 1.59377e-21)
(0.166018 -0.0207403 3.70208e-21)
(0.173384 -0.0208785 -4.02093e-21)
(0.180947 -0.0209836 3.28909e-21)
(0.188701 -0.0210551 -1.85043e-21)
(0.196638 -0.021093 -8.21326e-22)
(0.20475 -0.0210974 -3.55428e-22)
(0.213028 -0.0210689 2.02501e-21)
(0.221463 -0.0210083 2.09327e-21)
(0.230047 -0.0209167 -4.02261e-21)
(0.238769 -0.0207953 -7.71573e-22)
(0.247619 -0.0206455 3.53621e-21)
(0.256588 -0.0204686 -1.18384e-21)
(0.265666 -0.0202662 -2.00078e-21)
(0.274842 -0.02004 8.63189e-22)
(0.284107 -0.0197915 -1.08562e-21)
(0.29345 -0.0195224 1.10215e-21)
(0.302862 -0.0192345 -5.9414e-22)
(0.312333 -0.0189293 2.21671e-21)
(0.321852 -0.0186085 2.21278e-22)
(0.331411 -0.0182737 -1.43118e-22)
(0.341 -0.0179265 -6.67421e-22)
(0.35061 -0.0175685 -9.79709e-22)
(0.360232 -0.0172011 -2.20295e-22)
(0.369858 -0.0168259 1.04267e-21)
(0.379479 -0.0164442 1.12146e-22)
(0.389088 -0.0160573 -3.89854e-22)
(0.398676 -0.0156665 9.09868e-23)
(0.408237 -0.015273 5.44371e-23)
(0.417764 -0.014878 3.20179e-22)
(0.42725 -0.0144826 -1.75033e-22)
(0.436688 -0.0140877 -1.06618e-22)
(0.446074 -0.0136943 1.87156e-23)
(0.455401 -0.0133033 2.83954e-22)
(0.464664 -0.0129156 -1.52537e-22)
(0.47386 -0.0125318 -1.5778e-22)
(0.482983 -0.0121528 5.25852e-23)
(0.49203 -0.0117791 1.7706e-23)
(0.500997 -0.0114113 4.34199e-24)
(0.509881 -0.01105 -7.92978e-23)
(0.518682 -0.0106956 3.6938e-23)
(0.527389 -0.0103486 -8.06403e-24)
(0.536023 -0.0100088 8.23967e-24)
(0.544528 -0.009678 -1.44555e-23)
(0.553026 -0.00935139 -1.17505e-23)
(0.56124 -0.00904124 4.85383e-24)
(0.569771 -0.00871429 -7.37483e-25)
(0.577322 -0.00844898 -1.96992e-24)
(0.586625 -0.00804827 5.89578e-24)
(0.591966 -0.00795562 1.03388e-24)
(0.605047 -0.00718775 2.23458e-23)
(0.0845275 -0.0247101 1.92289e-20)
(0.0881539 -0.0234171 -7.1414e-21)
(0.0917372 -0.0226724 4.29665e-21)
(0.0956093 -0.0221954 -2.95004e-20)
(0.0995867 -0.0219318 1.37163e-20)
(0.103651 -0.021851 -1.75746e-20)
(0.107841 -0.0219126 1.9466e-20)
(0.112178 -0.0220822 -1.77577e-20)
(0.116679 -0.0223337 -4.10639e-21)
(0.121356 -0.0226455 3.4933e-20)
(0.12622 -0.0229996 -1.90951e-20)
(0.131281 -0.0233804 1.56966e-20)
(0.136545 -0.0237748 -3.57472e-21)
(0.142018 -0.0241715 -3.28102e-22)
(0.147702 -0.0245608 -9.16535e-21)
(0.153599 -0.0249346 -3.80776e-21)
(0.159708 -0.0252859 -1.72054e-21)
(0.166028 -0.0256091 4.43965e-21)
(0.172556 -0.0258996 -1.05612e-20)
(0.179288 -0.0261539 5.23131e-21)
(0.18622 -0.0263693 -2.70723e-21)
(0.193345 -0.0265438 1.4191e-21)
(0.200659 -0.0266762 2.74958e-21)
(0.208154 -0.026766 5.14799e-21)
(0.215822 -0.0268131 -3.27802e-21)
(0.223657 -0.0268178 -2.66965e-21)
(0.231649 -0.0267808 2.08556e-21)
(0.239791 -0.0267034 3.19815e-22)
(0.248074 -0.0265867 1.99081e-21)
(0.256488 -0.0264323 -1.62786e-21)
(0.265026 -0.0262419 -2.00877e-21)
(0.273676 -0.0260174 3.1734e-21)
(0.282431 -0.0257607 -2.63847e-21)
(0.29128 -0.0254738 1.75296e-21)
(0.300215 -0.0251587 6.13289e-22)
(0.309225 -0.0248177 -1.04575e-21)
(0.318302 -0.0244527 -5.90403e-22)
(0.327436 -0.0240659 7.67072e-22)
(0.336618 -0.0236593 -1.28568e-21)
(0.34584 -0.023235 3.42125e-22)
(0.355091 -0.022795 -4.15174e-22)
(0.364364 -0.0223413 1.50088e-22)
(0.373651 -0.0218757 -1.32637e-22)
(0.382943 -0.0214001 6.10158e-22)
(0.392232 -0.0209162 -5.66983e-22)
(0.401512 -0.0204257 3.64554e-22)
(0.410774 -0.0199303 -6.76073e-22)
(0.420011 -0.0194314 2.3597e-22)
(0.429218 -0.0189305 6.01854e-22)
(0.438387 -0.018429 -4.60738e-22)
(0.447513 -0.0179282 -2.8235e-22)
(0.45659 -0.0174292 3.51048e-22)
(0.465613 -0.0169332 -2.49044e-22)
(0.474578 -0.0164413 1.24363e-22)
(0.483479 -0.0159544 1.91762e-23)
(0.492313 -0.0154735 2.77938e-23)
(0.501075 -0.0149993 -1.45204e-22)
(0.509763 -0.0145325 4.66091e-23)
(0.518373 -0.014074 -2.03515e-24)
(0.526906 -0.0136241 5.37797e-23)
(0.53535 -0.0131837 -8.03464e-23)
(0.543726 -0.0127524 2.96094e-23)
(0.551979 -0.0123325 8.13888e-24)
(0.56023 -0.0119178 5.98451e-24)
(0.568205 -0.0115243 -5.72934e-25)
(0.576499 -0.0111091 2.15361e-24)
(0.583828 -0.0107732 -1.13499e-24)
(0.592892 -0.0102642 4.81528e-24)
(0.598066 -0.0101481 -4.92034e-24)
(0.610836 -0.00917862 -5.5251e-23)
(0.114967 -0.029319 -8.84442e-21)
(0.118063 -0.0278899 7.7856e-21)
(0.121153 -0.0270911 5.15863e-21)
(0.124681 -0.0265691 -3.40672e-20)
(0.128361 -0.0262866 3.47704e-20)
(0.132148 -0.0262168 -4.03449e-22)
(0.13608 -0.0263131 -2.2821e-20)
(0.140177 -0.0265357 1.40189e-20)
(0.144447 -0.0268542 4.0039e-21)
(0.148901 -0.0272433 4.07369e-21)
(0.153546 -0.0276814 -1.6036e-20)
(0.158389 -0.0281499 -1.36161e-20)
(0.163433 -0.0286331 4.9317e-21)
(0.168682 -0.0291172 1.23823e-20)
(0.174136 -0.0295908 -7.28772e-21)
(0.179795 -0.0300442 1.93579e-20)
(0.185657 -0.0304694 -2.0792e-20)
(0.191719 -0.0308596 2.22575e-20)
(0.197979 -0.0312096 -6.21344e-21)
(0.204432 -0.0315153 -1.49544e-20)
(0.211072 -0.0317738 1.26006e-20)
(0.217895 -0.0319828 -1.31713e-21)
(0.224894 -0.032141 -1.97089e-21)
(0.232063 -0.0322479 5.45795e-21)
(0.239395 -0.0323035 -3.95375e-21)
(0.246882 -0.0323083 -8.71982e-21)
(0.254518 -0.0322632 6.98033e-21)
(0.262294 -0.0321696 -1.61447e-21)
(0.270203 -0.0320289 -1.37205e-21)
(0.278236 -0.0318432 2.67479e-21)
(0.286386 -0.0316144 4.9988e-21)
(0.294642 -0.0313448 -1.57663e-21)
(0.302998 -0.0310366 -8.77724e-21)
(0.311443 -0.0306922 6.41156e-21)
(0.319971 -0.0303142 -3.08564e-21)
(0.328571 -0.029905 9.79899e-22)
(0.337236 -0.029467 2.23129e-21)
(0.345956 -0.0290029 -8.69901e-22)
(0.354724 -0.0285151 -3.79169e-23)
(0.363531 -0.028006 5.11325e-22)
(0.372369 -0.027478 -1.56314e-21)
(0.38123 -0.0269334 -6.88283e-22)
(0.390106 -0.0263746 1.6638e-21)
(0.398989 -0.0258036 3.88542e-22)
(0.407872 -0.0252227 -1.03017e-21)
(0.416749 -0.0246338 3.70447e-22)
(0.425611 -0.0240389 -2.66168e-22)
(0.434454 -0.0234397 -6.26927e-22)
(0.443269 -0.0228381 -4.78611e-23)
(0.452052 -0.0222356 7.0396e-22)
(0.460797 -0.0216339 2.98149e-22)
(0.469498 -0.0210343 2.92697e-22)
(0.478151 -0.0204383 -1.60105e-22)
(0.48675 -0.019847 2.73563e-22)
(0.495292 -0.0192617 -3.53999e-22)
(0.503773 -0.0186835 1.76686e-22)
(0.512189 -0.0181133 -1.53705e-22)
(0.520537 -0.017552 8.73565e-24)
(0.528812 -0.0170006 9.15903e-23)
(0.537018 -0.0164595 -7.95091e-23)
(0.54514 -0.0159298 4.07857e-23)
(0.553203 -0.0154109 -2.82949e-23)
(0.561148 -0.0149059 -4.2159e-23)
(0.569099 -0.014407 -1.41342e-23)
(0.576782 -0.0139341 1.93992e-24)
(0.584786 -0.0134343 -2.34391e-25)
(0.591847 -0.0130315 -1.8142e-24)
(0.600618 -0.0124188 5.59022e-24)
(0.605589 -0.0122813 3.00165e-24)
(0.617978 -0.0111231 2.66718e-23)
(0.151082 -0.0333596 2.96063e-20)
(0.153548 -0.0318809 -2.22245e-20)
(0.156037 -0.0310969 3.62805e-20)
(0.159137 -0.0305712 -1.36127e-20)
(0.162445 -0.0302986 1.05892e-20)
(0.165883 -0.0302623 -2.73039e-20)
(0.169493 -0.0304106 4.37315e-21)
(0.173289 -0.0306992 -9.22562e-22)
(0.177273 -0.0310945 5.98586e-21)
(0.181451 -0.0315682 1.59592e-20)
(0.185825 -0.0320953 -1.29261e-20)
(0.190398 -0.0326548 8.81476e-21)
(0.195171 -0.0332282 5.03664e-21)
(0.200144 -0.0338001 1.74638e-21)
(0.205314 -0.0343573 -1.48952e-20)
(0.210681 -0.0348889 8.21365e-21)
(0.216239 -0.0353858 -1.18973e-20)
(0.221987 -0.0358407 1.47698e-21)
(0.227919 -0.0362478 -2.4525e-22)
(0.234031 -0.0366027 1.43536e-20)
(0.240317 -0.0369021 -1.22037e-20)
(0.246772 -0.0371439 -1.56156e-21)
(0.25339 -0.0373267 -2.61143e-21)
(0.260166 -0.0374499 1.1654e-20)
(0.267092 -0.0375138 -4.20917e-21)
(0.274164 -0.0375189 -3.85162e-21)
(0.281372 -0.0374665 -2.23316e-21)
(0.288712 -0.037358 8.57784e-21)
(0.296175 -0.0371954 -3.10647e-21)
(0.303754 -0.0369808 -3.93263e-21)
(0.311443 -0.0367165 -3.10264e-21)
(0.319232 -0.0364051 8.65841e-21)
(0.327115 -0.0360493 -2.35923e-21)
(0.335084 -0.0356517 -8.03399e-22)
(0.343131 -0.0352152 -1.71527e-21)
(0.351249 -0.0347426 -1.33822e-21)
(0.359429 -0.0342368 1.37726e-21)
(0.367663 -0.0337008 1.23599e-21)
(0.375945 -0.0331372 -1.32637e-21)
(0.384266 -0.032549 -1.99337e-21)
(0.392619 -0.0319389 2.60232e-21)
(0.400997 -0.0313095 -3.98488e-22)
(0.409392 -0.0306635 8.91411e-25)
(0.417798 -0.0300034 -5.17869e-22)
(0.426207 -0.0293317 8.42414e-22)
(0.434613 -0.0286505 -1.0168e-21)
(0.443009 -0.0279623 1.17499e-21)
(0.45139 -0.027269 -3.47494e-23)
(0.45975 -0.0265728 -1.00606e-22)
(0.468083 -0.0258754 -3.04903e-22)
(0.476383 -0.0251788 -3.59188e-22)
(0.484646 -0.0244845 1.24825e-22)
(0.492867 -0.0237943 2.90648e-22)
(0.501041 -0.0231094 -6.53643e-22)
(0.509165 -0.0224314 4.50446e-22)
(0.517235 -0.0217614 -2.37145e-22)
(0.525247 -0.0211006 8.6836e-23)
(0.533198 -0.0204502 4.82117e-23)
(0.541085 -0.019811 -7.96177e-23)
(0.54891 -0.0191838 -1.56378e-23)
(0.556659 -0.0185697 4.49283e-23)
(0.564356 -0.017968 -1.47285e-23)
(0.571944 -0.0173826 1.84498e-23)
(0.579545 -0.016804 3.76142e-23)
(0.586887 -0.0162562 3.02576e-24)
(0.594555 -0.0156762 1.29681e-24)
(0.601304 -0.015211 5.47862e-25)
(0.609734 -0.0145 -3.87331e-24)
(0.614469 -0.0143435 -2.78227e-24)
(0.626413 -0.0130116 -1.64564e-24)
(0.192622 -0.0367023 1.57091e-20)
(0.194361 -0.0352723 3.18707e-20)
(0.196144 -0.0345844 -3.73113e-20)
(0.198727 -0.0341063 -8.78373e-22)
(0.201583 -0.0338818 8.04218e-21)
(0.2046 -0.0339096 -7.09744e-21)
(0.207819 -0.0341338 -1.43543e-20)
(0.211252 -0.0345068 -1.59594e-21)
(0.214892 -0.0349929 3.43912e-20)
(0.218737 -0.0355613 -1.34776e-21)
(0.222786 -0.0361847 -2.95928e-21)
(0.227035 -0.0368396 -5.18327e-21)
(0.231482 -0.0375058 4.54402e-21)
(0.236123 -0.0381663 -3.52871e-21)
(0.240953 -0.0388066 4.62307e-21)
(0.245968 -0.0394151 -1.25056e-20)
(0.251164 -0.0399819 -9.99435e-21)
(0.256535 -0.0404993 1.43234e-20)
(0.262076 -0.0409613 9.08683e-22)
(0.267782 -0.0413633 -6.5796e-21)
(0.273649 -0.0417021 1.47429e-20)
(0.27967 -0.0419753 -2.35278e-21)
(0.28584 -0.0421819 -1.19565e-21)
(0.292154 -0.0423213 -1.20693e-20)
(0.298607 -0.0423938 9.69965e-22)
(0.305192 -0.0424004 1.00176e-20)
(0.311904 -0.0423423 -4.07972e-21)
(0.318737 -0.0422214 -6.24157e-21)
(0.325685 -0.0420397 4.04146e-21)
(0.332741 -0.0417996 -1.02654e-21)
(0.339899 -0.0415038 1.2219e-21)
(0.347152 -0.0411551 3.65134e-21)
(0.354493 -0.0407564 -9.85816e-22)
(0.361917 -0.0403109 -4.59981e-21)
(0.369415 -0.0398215 4.86085e-21)
(0.376982 -0.0392915 8.84338e-22)
(0.384609 -0.0387242 1.14785e-21)
(0.392291 -0.0381226 -5.74934e-22)
(0.40002 -0.0374901 -5.17866e-21)
(0.40779 -0.0368296 2.47128e-21)
(0.415593 -0.0361443 3.9444e-22)
(0.423424 -0.0354372 -1.35335e-22)
(0.431275 -0.0347111 4.69607e-22)
(0.43914 -0.033969 1.4846e-22)
(0.447013 -0.0332136 -2.98162e-22)
(0.454888 -0.0324474 1.46027e-22)
(0.462758 -0.031673 2.21865e-22)
(0.470619 -0.0308928 -3.6888e-22)
(0.478464 -0.030109 1.9253e-22)
(0.486289 -0.0293238 2.57842e-22)
(0.494089 -0.0285392 -3.02703e-22)
(0.501858 -0.0277571 -2.51571e-22)
(0.509593 -0.0269793 1.0788e-22)
(0.517289 -0.0262074 5.48745e-23)
(0.524942 -0.0254431 1.73166e-23)
(0.532549 -0.0246877 1.27256e-22)
(0.540107 -0.0239425 -5.00407e-23)
(0.547612 -0.0232089 -3.20282e-22)
(0.555062 -0.0224878 -5.01801e-23)
(0.562457 -0.0217802 -3.5943e-23)
(0.569787 -0.0210874 4.27688e-23)
(0.577072 -0.0204085 3.00829e-23)
(0.584258 -0.019748 -4.34169e-23)
(0.591466 -0.0190949 -4.21092e-24)
(0.598426 -0.0184773 -1.10435e-23)
(0.605715 -0.0178223 -6.68849e-24)
(0.612111 -0.0172997 -1.64996e-24)
(0.620157 -0.0164965 8.15974e-24)
(0.624629 -0.0163237 -1.01347e-24)
(0.636069 -0.0148349 9.33209e-24)
(0.239269 -0.0392124 -3.11015e-20)
(0.240195 -0.0379386 3.81241e-20)
(0.24117 -0.03744 4.83798e-20)
(0.24315 -0.037072 -5.57048e-20)
(0.245475 -0.0369437 -3.41714e-20)
(0.247995 -0.0370754 2.46194e-20)
(0.250756 -0.0374073 2.25294e-20)
(0.253762 -0.037889 3.14408e-20)
(0.256998 -0.0384843 -3.70486e-20)
(0.260452 -0.0391611 -2.7602e-22)
(0.264117 -0.0398902 -2.76262e-20)
(0.267985 -0.0406467 7.98615e-21)
(0.272047 -0.0414092 2.13249e-20)
(0.276296 -0.0421596 -1.6568e-21)
(0.280725 -0.0428831 -1.18143e-20)
(0.285327 -0.0435674 3.32252e-21)
(0.290096 -0.0442026 6.64875e-21)
(0.295025 -0.0447808 -1.13498e-20)
(0.300109 -0.045296 2.39009e-20)
(0.305343 -0.0457438 -1.11022e-20)
(0.310722 -0.0461208 -5.9137e-21)
(0.31624 -0.0464251 1.35645e-20)
(0.321894 -0.0466556 -1.29032e-20)
(0.327678 -0.046812 4.34457e-21)
(0.333589 -0.0468948 1.64743e-21)
(0.33962 -0.046905 4.96384e-21)
(0.345768 -0.0468442 -3.81413e-21)
(0.352027 -0.0467143 -5.56206e-21)
(0.358392 -0.0465176 1.57983e-21)
(0.364857 -0.0462567 -2.43792e-21)
(0.371419 -0.0459346 1.11402e-20)
(0.37807 -0.0455542 -4.37311e-21)
(0.384806 -0.0451188 -6.77219e-21)
(0.39162 -0.0446317 8.88617e-21)
(0.398507 -0.0440963 -5.37754e-21)
(0.40546 -0.0435161 -1.11233e-21)
(0.412474 -0.0428945 2.70517e-21)
(0.419542 -0.042235 -9.8421e-22)
(0.426659 -0.0415411 2.08786e-21)
(0.433819 -0.0408163 -8.31183e-22)
(0.441014 -0.0400638 1.54716e-21)
(0.448241 -0.039287 -3.35383e-21)
(0.455491 -0.0384891 2.17664e-21)
(0.462761 -0.0376732 1.19667e-21)
(0.470043 -0.0368422 -2.24581e-21)
(0.477333 -0.0359991 -8.37186e-24)
(0.484625 -0.0351467 1.35433e-21)
(0.491914 -0.0342875 -1.66061e-21)
(0.499194 -0.0334241 1.77599e-21)
(0.506462 -0.0325588 -4.62633e-22)
(0.513711 -0.031694 8.07405e-23)
(0.520939 -0.0308316 -7.4071e-23)
(0.52814 -0.0299737 1.38079e-23)
(0.535311 -0.0291222 -2.83436e-22)
(0.542448 -0.0282787 3.37057e-22)
(0.549548 -0.0274449 1.11731e-22)
(0.556608 -0.0266223 4.92709e-23)
(0.563625 -0.0258121 -5.59511e-24)
(0.570595 -0.0250158 2.29615e-22)
(0.577521 -0.0242341 -1.52458e-22)
(0.58439 -0.0234687 1.2217e-22)
(0.591225 -0.0227185 -1.72719e-23)
(0.59797 -0.021989 5.8957e-23)
(0.604746 -0.0212671 -1.1646e-23)
(0.611288 -0.0205856 -2.35488e-24)
(0.618161 -0.0198611 2.84065e-24)
(0.624173 -0.0192865 -8.0396e-25)
(0.631796 -0.0183982 -1.20934e-23)
(0.635981 -0.0182117 2.39325e-24)
(0.646866 -0.0165846 1.95988e-23)
(0.29067 -0.0397509 -4.77748e-21)
(0.290749 -0.039546 -8.11934e-20)
(0.292044 -0.0393619 8.75122e-20)
(0.293764 -0.0393891 -4.41178e-20)
(0.295718 -0.0396744 -3.67281e-21)
(0.297955 -0.0401535 3.44334e-20)
(0.300472 -0.0407746 -3.66923e-20)
(0.303244 -0.0415023 -5.26922e-21)
(0.306248 -0.0423042 2.67257e-20)
(0.30947 -0.0431506 -6.03922e-21)
(0.312896 -0.0440162 -2.71991e-20)
(0.316511 -0.0448792 4.66446e-20)
(0.320305 -0.0457217 -1.27304e-20)
(0.324267 -0.0465288 -1.9752e-20)
(0.328388 -0.0472886 2.2351e-20)
(0.332661 -0.0479912 2.44426e-21)
(0.337079 -0.0486293 -1.00816e-20)
(0.341636 -0.0491969 -1.14212e-20)
(0.346328 -0.04969 -1.32123e-20)
(0.351149 -0.0501056 7.15828e-21)
(0.356096 -0.0504419 4.77082e-21)
(0.361164 -0.0506979 7.82751e-21)
(0.366351 -0.0508736 -1.12714e-20)
(0.371651 -0.0509696 6.49842e-21)
(0.377062 -0.0509872 -9.63003e-22)
(0.382579 -0.0509279 -5.53367e-21)
(0.388199 -0.0507939 3.71181e-21)
(0.393918 -0.0505878 3.60542e-22)
(0.399732 -0.0503123 -7.53506e-21)
(0.405636 -0.0499704 2.37668e-21)
(0.411625 -0.0495654 4.6401e-21)
(0.417696 -0.0491007 -2.78851e-21)
(0.423843 -0.0485798 1.38544e-21)
(0.430061 -0.0480065 2.94978e-21)
(0.436346 -0.0473843 -4.6486e-21)
(0.442692 -0.0467169 2.2444e-21)
(0.449093 -0.0460083 2.43118e-21)
(0.455546 -0.0452619 -2.12591e-21)
(0.462044 -0.0444816 3.0493e-22)
(0.468582 -0.043671 -2.71324e-21)
(0.475154 -0.0428336 1.49607e-21)
(0.481756 -0.0419728 8.52316e-22)
(0.488383 -0.0410921 3.34341e-22)
(0.495028 -0.0401947 -1.37421e-21)
(0.501688 -0.0392836 -3.07376e-22)
(0.508357 -0.038362 2.52416e-21)
(0.51503 -0.0374327 -2.24791e-22)
(0.521703 -0.0364983 -1.29692e-21)
(0.528371 -0.0355616 1.47853e-23)
(0.53503 -0.0346249 -2.07466e-22)
(0.541675 -0.0336905 1.93142e-22)
(0.548304 -0.0327607 9.69034e-23)
(0.554911 -0.0318374 1.85177e-22)
(0.561495 -0.0309225 -1.90338e-22)
(0.568051 -0.0300179 -1.64274e-23)
(0.574576 -0.0291252 -1.81085e-22)
(0.581069 -0.0282458 3.01137e-24)
(0.587525 -0.0273812 -1.92676e-23)
(0.593947 -0.0265324 3.41511e-23)
(0.600323 -0.0257012 -7.0395e-23)
(0.606675 -0.0248863 -7.15431e-23)
(0.612948 -0.024094 2.08722e-23)
(0.619262 -0.0233097 -5.03607e-23)
(0.625355 -0.0225703 3.68031e-23)
(0.631782 -0.0217825 -2.033e-24)
(0.637383 -0.0211618 -3.80411e-24)
(0.644551 -0.0201959 8.27587e-24)
(0.64843 -0.0199984 1.14129e-24)
(0.658715 -0.0182527 -1.20628e-23)
(0.345332 -0.0405829 -4.66199e-20)
(0.344446 -0.0407861 2.00781e-20)
(0.34499 -0.0408711 -1.38402e-20)
(0.346042 -0.0411244 -1.23249e-20)
(0.34737 -0.0416227 2.89576e-21)
(0.349026 -0.0422964 -1.78286e-21)
(0.350999 -0.0430932 5.56255e-21)
(0.353248 -0.0439801 2.98555e-20)
(0.355744 -0.0449264 -4.66466e-20)
(0.358461 -0.0459032 3.44503e-20)
(0.36138 -0.0468862 1.00991e-20)
(0.364481 -0.0478547 -5.20451e-20)
(0.36775 -0.048792 4.82173e-20)
(0.371174 -0.0496839 -1.89615e-20)
(0.374742 -0.0505195 7.05501e-22)
(0.378447 -0.0512898 1.13166e-20)
(0.382281 -0.051988 -1.79413e-20)
(0.386239 -0.0526088 7.89678e-21)
(0.390316 -0.0531485 -1.66341e-20)
(0.394509 -0.0536046 -6.09422e-21)
(0.398814 -0.0539754 2.46811e-20)
(0.403228 -0.0542603 -3.74433e-21)
(0.407749 -0.0544595 2.65384e-21)
(0.412374 -0.0545736 6.97079e-21)
(0.417101 -0.054604 -1.61534e-21)
(0.421926 -0.0545524 -5.86271e-21)
(0.426847 -0.0544212 -7.37615e-21)
(0.431861 -0.0542129 8.16024e-21)
(0.436965 -0.0539304 3.95185e-23)
(0.442156 -0.0535769 -4.81405e-21)
(0.44743 -0.0531557 1.69489e-21)
(0.452783 -0.0526706 4.95255e-21)
(0.458212 -0.0521251 -9.6581e-21)
(0.463712 -0.0515231 2.32615e-21)
(0.46928 -0.0508684 3.0969e-21)
(0.474911 -0.0501651 9.08509e-22)
(0.4806 -0.049417 -3.72115e-21)
(0.486344 -0.0486281 1.44589e-23)
(0.492137 -0.0478023 -4.75224e-22)
(0.497975 -0.0469435 3.46236e-21)
(0.503853 -0.0460554 -2.16238e-21)
(0.509767 -0.0451417 -1.512e-22)
(0.515712 -0.044206 1.44604e-21)
(0.521683 -0.0432519 -1.84637e-23)
(0.527676 -0.0422826 -1.54596e-21)
(0.533686 -0.0413013 2.14308e-21)
(0.539708 -0.0403113 -3.29633e-22)
(0.545739 -0.0393153 -1.30958e-21)
(0.551774 -0.0383162 8.12034e-22)
(0.55781 -0.0373166 -3.14819e-22)
(0.563842 -0.0363191 -1.40753e-22)
(0.569867 -0.0353259 -1.1565e-22)
(0.57588 -0.0343394 2.78222e-22)
(0.58188 -0.0333615 -4.87897e-22)
(0.587863 -0.0323941 1.06999e-22)
(0.593826 -0.0314392 -6.14692e-23)
(0.599767 -0.0304982 2.16146e-22)
(0.605682 -0.0295729 1.28108e-22)
(0.611574 -0.0286642 -1.13334e-22)
(0.61743 -0.0277743 5.27528e-23)
(0.623274 -0.0269016 8.25414e-23)
(0.62905 -0.0260534 -4.63418e-23)
(0.634877 -0.0252131 3.04918e-23)
(0.640498 -0.0244225 -1.85006e-24)
(0.646456 -0.0235778 2.76044e-24)
(0.651624 -0.0229172 -2.06013e-24)
(0.658312 -0.0218819 -9.29832e-24)
(0.661871 -0.0216759 -1.52556e-24)
(0.67152 -0.0198319 -6.12694e-24)
(0.403642 -0.04032 2.65814e-20)
(0.401757 -0.0410539 -2.52298e-20)
(0.401508 -0.0415037 8.48429e-21)
(0.401851 -0.0420644 2.14477e-20)
(0.402511 -0.0428438 -3.97541e-20)
(0.403542 -0.0437654 1.18713e-20)
(0.404922 -0.0447777 5.69466e-20)
(0.406596 -0.0458528 -1.83306e-20)
(0.408523 -0.0469636 -3.39237e-20)
(0.410671 -0.0480844 2.86925e-20)
(0.413014 -0.0491933 -8.67305e-21)
(0.415529 -0.0502728 2.21194e-20)
(0.418197 -0.0513079 -2.86959e-20)
(0.421006 -0.0522868 -3.13969e-20)
(0.423945 -0.0532 5.14789e-20)
(0.427004 -0.0540397 -4.74646e-20)
(0.430178 -0.0548002 2.78544e-20)
(0.433461 -0.0554769 2.26483e-20)
(0.436851 -0.0560668 -4.36673e-20)
(0.440344 -0.0565675 3.3379e-20)
(0.443938 -0.0569779 -1.62373e-20)
(0.447631 -0.0572974 -1.24933e-20)
(0.451423 -0.0575264 3.03394e-21)
(0.455311 -0.0576656 2.46196e-20)
(0.459293 -0.0577164 -2.94775e-20)
(0.463369 -0.0576808 2.68938e-20)
(0.467536 -0.0575609 6.13112e-21)
(0.471792 -0.0573595 -4.91919e-21)
(0.476136 -0.0570795 -1.80353e-20)
(0.480565 -0.0567242 4.74442e-21)
(0.485076 -0.0562971 7.2186e-21)
(0.489667 -0.0558017 -7.0734e-21)
(0.494334 -0.0552421 5.12062e-21)
(0.499075 -0.0546221 -2.80443e-21)
(0.503886 -0.0539457 1.66716e-21)
(0.508764 -0.0532172 -1.63908e-21)
(0.513704 -0.0524405 9.88074e-22)
(0.518704 -0.0516199 2.99529e-22)
(0.523758 -0.0507595 -8.53217e-22)
(0.528863 -0.0498632 2.07759e-21)
(0.534015 -0.0489352 -2.59103e-21)
(0.53921 -0.0479793 -9.22262e-22)
(0.544444 -0.0469992 3.11393e-22)
(0.549711 -0.0459988 2.9872e-23)
(0.555009 -0.0449815 -7.00071e-22)
(0.560333 -0.0439508 2.13655e-21)
(0.565679 -0.04291 -4.57869e-22)
(0.571043 -0.0418622 -7.23018e-22)
(0.576421 -0.0408103 -8.01818e-22)
(0.581809 -0.0397574 1.47436e-21)
(0.587204 -0.0387059 -5.76453e-23)
(0.592602 -0.0376584 6.92471e-22)
(0.598 -0.0366174 -1.3447e-21)
(0.603395 -0.035585 7.72124e-22)
(0.608784 -0.0345634 1.10569e-22)
(0.614164 -0.0335544 -1.29147e-22)
(0.619533 -0.0325599 1.86988e-22)
(0.624887 -0.0315816 -2.60094e-22)
(0.63023 -0.0306207 3.3033e-24)
(0.635548 -0.0296795 -9.40686e-24)
(0.640866 -0.0287562 -1.00978e-22)
(0.646127 -0.0278592 2.27605e-23)
(0.65145 -0.0269697 -1.77574e-23)
(0.656583 -0.0261347 1.34691e-23)
(0.662055 -0.0252399 -2.91961e-24)
(0.666776 -0.0245456 1.93198e-24)
(0.672964 -0.0234494 8.71463e-24)
(0.676195 -0.0232374 -2.97026e-24)
(0.685181 -0.0213158 3.23028e-24)
(0.462113 -0.040263 -2.97612e-20)
(0.46107 -0.0411825 3.04513e-20)
(0.460693 -0.0421401 -6.52826e-20)
(0.460668 -0.0432737 9.60862e-21)
(0.461047 -0.0444984 2.57889e-20)
(0.461794 -0.0457663 -1.29253e-20)
(0.462842 -0.0470577 -7.45688e-21)
(0.464139 -0.0483521 9.74578e-21)