/*--------------------------------*- C++ -*----------------------------------*\
  =========                 |
  \\      /  F ield         | OpenFOAM: The Open Source CFD Toolbox
   \\    /   O peration     | Website:  https://openfoam.org
    \\  /    A nd           | Version:  7
     \\/     M anipulation  |
\*---------------------------------------------------------------------------*/
FoamFile
{
    version     2.0;
    format      ascii;
    class       volScalarField;
    location    "2.3";
    object      T;
}
// * * * * * * * * * * * * * * * * * * * * * * * * * * * * * * * * * * * * * //

dimensions      [0 0 0 1 0 0 0];

internalField   nonuniform List<scalar> 
4116
(
1.20019
1.19976
1.19915
1.19812
1.19575
1.19004
1.18154
1.17795
1.17728
1.17684
1.1768
1.17684
1.17696
1.17718
1.17748
1.17744
1.17728
1.1772
1.17711
1.17691
1.17649
1.17583
1.17479
1.17326
1.17152
1.17062
1.17023
1.16975
1.16911
1.16841
1.16761
1.16626
1.16243
1.15583
1.1514
1.15009
1.14981
1.14975
1.14976
1.14979
1.14977
1.14955
1.14932
1.14936
1.14956
1.14977
1.14999
1.15031
1.15057
1.15073
1.15099
1.1511
1.15076
1.14993
1.14829
1.1444
1.13726
1.1313
1.1293
1.12882
1.1288
1.12889
1.12916
1.12931
1.12924
1.12927
1.12958
1.1299
1.12936
1.12806
1.12762
1.12765
1.12784
1.1282
1.12859
1.12867
1.12852
1.12742
1.12409
1.11933
1.11679
1.1163
1.11574
1.11461
1.11278
1.11081
1.10964
1.10877
1.10798
1.1078
1.10785
1.10783
1.10755
1.1072
1.10697
1.10679
1.1068
1.10744
1.10792
1.10744
1.10639
1.1055
1.10477
1.10361
1.10061
1.09457
1.09028
1.0898
1.0899
1.09045
1.09139
1.09202
1.09218
1.09211
1.09189
1.09192
1.09205
1.09273
1.09792
1.11606
1.16961
1.24284
1.32766
1.39612
1.45037
1.46584
1.46533
1.46878
1.47799
1.4849
1.48474
1.48241
1.47564
1.4727
1.47305
1.47545
1.47628
1.47344
1.46823
1.46516
1.46482
1.46604
1.47157
1.47604
1.47923
1.47988
1.4786
1.2006
1.20012
1.19946
1.19844
1.19604
1.18994
1.18205
1.17903
1.17818
1.17799
1.17802
1.17809
1.17824
1.17851
1.17854
1.17848
1.17837
1.17825
1.17811
1.17786
1.17736
1.17636
1.17461
1.17262
1.17177
1.17135
1.17112
1.17059
1.16995
1.16924
1.16806
1.16557
1.16069
1.15448
1.15127
1.15055
1.15035
1.15026
1.1502
1.15019
1.15016
1.15013
1.15015
1.15033
1.15037
1.15011
1.1498
1.14967
1.14965
1.14979
1.14995
1.15009
1.14993
1.14928
1.14781
1.14523
1.14068
1.13379
1.12943
1.12885
1.12888
1.12894
1.12915
1.12963
1.12964
1.12931
1.12942
1.13036
1.13054
1.12941
1.12887
1.1289
1.12897
1.12892
1.12885
1.12885
1.12878
1.12821
1.12602
1.12127
1.11693
1.1154
1.11482
1.1141
1.11283
1.11127
1.11035
1.1096
1.10881
1.10842
1.10837
1.10849
1.1083
1.10802
1.10782
1.10761
1.10753
1.10792
1.10809
1.10742
1.10643
1.1057
1.10509
1.104
1.1008
1.09431
1.08975
1.08925
1.08941
1.09007
1.09092
1.09144
1.09163
1.09164
1.09154
1.09156
1.09157
1.0916
1.09186
1.09199
1.09466
1.10687
1.14898
1.2163
1.30338
1.37587
1.43306
1.44722
1.45553
1.46479
1.4768
1.47928
1.47819
1.47315
1.46929
1.46951
1.47275
1.47491
1.47257
1.46781
1.46533
1.4655
1.46737
1.47398
1.47905
1.47983
1.47901
1.20204
1.20144
1.20075
1.19965
1.19699
1.19062
1.18167
1.1779
1.17739
1.17722
1.17721
1.17725
1.17741
1.17771
1.17774
1.17771
1.17763
1.17753
1.17743
1.17723
1.17671
1.17558
1.17411
1.17319
1.17272
1.17228
1.17184
1.17113
1.17033
1.16945
1.16808
1.16508
1.15914
1.15393
1.15238
1.15185
1.15155
1.15134
1.1512
1.15121
1.15122
1.15113
1.15111
1.15124
1.15117
1.15093
1.15066
1.15021
1.14929
1.14882
1.14883
1.14878
1.14874
1.14849
1.14791
1.14671
1.14358
1.13747
1.13111
1.12918
1.12906
1.12899
1.1289
1.12883
1.12874
1.1285
1.12812
1.12823
1.12903
1.12887
1.12826
1.12837
1.12865
1.12904
1.1292
1.12921
1.12919
1.12887
1.1274
1.12361
1.11834
1.11539
1.11415
1.11317
1.11258
1.11211
1.11157
1.11104
1.11047
1.10987
1.10938
1.10916
1.10911
1.10883
1.10855
1.10833
1.10847
1.10886
1.10857
1.10771
1.10693
1.10638
1.10579
1.10464
1.10135
1.09501
1.09075
1.09031
1.09052
1.09121
1.09187
1.09219
1.09231
1.09231
1.09219
1.09215
1.09207
1.09192
1.09197
1.09202
1.09137
1.09
1.09128
1.09933
1.13076
1.18803
1.26699
1.34514
1.40421
1.42744
1.44265
1.45983
1.47289
1.47415
1.47172
1.46808
1.4681
1.47085
1.47381
1.47267
1.46918
1.46659
1.46722
1.4695
1.47508
1.47928
1.47884
1.20123
1.20065
1.20001
1.19908
1.19695
1.19123
1.18226
1.17791
1.17744
1.17737
1.17737
1.17745
1.1777
1.17797
1.17808
1.17809
1.17807
1.17799
1.17786
1.17753
1.17689
1.17574
1.17467
1.17403
1.17347
1.17298
1.17266
1.17193
1.17121
1.17049
1.16896
1.16502
1.15812
1.15311
1.15175
1.15133
1.15122
1.15127
1.15141
1.15161
1.15187
1.15218
1.152
1.15193
1.152
1.15195
1.15167
1.15086
1.14947
1.14831
1.14809
1.14818
1.14818
1.14791
1.14713
1.14584
1.14401
1.14047
1.13517
1.13065
1.12924
1.1292
1.12921
1.1292
1.12912
1.1288
1.12817
1.12787
1.12836
1.12914
1.1288
1.12865
1.12892
1.12961
1.13021
1.13046
1.13048
1.13027
1.12922
1.12591
1.11993
1.11519
1.11355
1.11265
1.11178
1.11108
1.11056
1.11013
1.10986
1.10972
1.10968
1.10986
1.10993
1.10963
1.10942
1.10983
1.11046
1.11035
1.10959
1.10877
1.10812
1.1075
1.10672
1.10525
1.10196
1.0961
1.09226
1.09196
1.09227
1.093
1.09351
1.0937
1.09377
1.09377
1.09369
1.09372
1.09365
1.0934
1.09328
1.09318
1.09198
1.09011
1.08902
1.0887
1.08904
1.09358
1.11143
1.15397
1.22468
1.30978
1.37038
1.40479
1.43422
1.46174
1.47166
1.47186
1.4672
1.4666
1.46926
1.47424
1.47465
1.4727
1.46969
1.46904
1.47018
1.47431
1.47731
1.2015
1.20095
1.20032
1.19936
1.19731
1.19218
1.18367
1.17878
1.17817
1.17803
1.17793
1.17814
1.17908
1.17912
1.17918
1.17925
1.17922
1.17906
1.17835
1.17729
1.1767
1.17621
1.17564
1.17504
1.17451
1.17439
1.17373
1.1725
1.17148
1.17035
1.16816
1.16334
1.15691
1.15336
1.15231
1.15211
1.15215
1.15225
1.15239
1.15253
1.15284
1.15333
1.15304
1.15296
1.15298
1.15281
1.1524
1.1518
1.15092
1.14948
1.14764
1.14709
1.14696
1.14669
1.14608
1.14509
1.14366
1.14189
1.13892
1.13399
1.13031
1.12976
1.12972
1.12963
1.12946
1.12914
1.1289
1.12866
1.12854
1.12918
1.12983
1.1296
1.12957
1.12964
1.12989
1.13018
1.13035
1.13039
1.12995
1.12755
1.12155
1.11506
1.11298
1.1125
1.11204
1.11145
1.11091
1.11053
1.11028
1.11016
1.11035
1.11113
1.11177
1.11132
1.1107
1.11029
1.11012
1.10963
1.10892
1.10823
1.1076
1.10699
1.10628
1.10494
1.10152
1.09544
1.09174
1.09156
1.09193
1.09266
1.09309
1.09324
1.09326
1.09324
1.09312
1.09314
1.09308
1.09282
1.09268
1.09263
1.09147
1.08998
1.08931
1.08919
1.08875
1.08766
1.08297
1.08214
1.09151
1.12456
1.19135
1.27614
1.34307
1.39515
1.43997
1.46566
1.47022
1.46566
1.46501
1.46759
1.47458
1.47655
1.47513
1.47156
1.46906
1.46956
1.47188
1.20237
1.20185
1.20119
1.20017
1.19808
1.19324
1.18529
1.18057
1.17983
1.17959
1.17928
1.1788
1.17869
1.17869
1.17863
1.17856
1.17849
1.17834
1.17793
1.17744
1.17713
1.17677
1.17628
1.17605
1.17674
1.17678
1.17558
1.1742
1.17305
1.17159
1.16834
1.16158
1.15582
1.15425
1.15384
1.15388
1.154
1.15421
1.15446
1.15472
1.15525
1.15492
1.15447
1.15447
1.15439
1.15404
1.15348
1.15285
1.15203
1.15054
1.14833
1.14643
1.1458
1.14555
1.14527
1.14488
1.14452
1.1438
1.14173
1.13732
1.13233
1.13085
1.13071
1.13061
1.13048
1.13026
1.12981
1.12904
1.12843
1.12875
1.13051
1.13115
1.13061
1.13037
1.13049
1.13078
1.13117
1.13131
1.13093
1.12869
1.12306
1.11624
1.11356
1.11312
1.11278
1.11231
1.11181
1.11133
1.11084
1.11034
1.11
1.11023
1.11151
1.11193
1.11144
1.11082
1.11047
1.10998
1.10942
1.10885
1.10828
1.1077
1.10696
1.10558
1.10229
1.09643
1.09291
1.09277
1.09317
1.0938
1.09408
1.09413
1.09412
1.09406
1.09389
1.09387
1.09376
1.09343
1.09334
1.09336
1.09234
1.09073
1.09024
1.09018
1.08997
1.08868
1.08403
1.07791
1.07466
1.0754
1.08306
1.10858
1.17034
1.25303
1.33262
1.39267
1.43827
1.46507
1.46442
1.46367
1.46581
1.47153
1.47539
1.47496
1.47258
1.46889
1.46797
1.20126
1.20074
1.20007
1.19911
1.19748
1.19397
1.18715
1.18083
1.1792
1.17892
1.17891
1.17907
1.17932
1.1794
1.1794
1.17935
1.17922
1.17872
1.17833
1.17822
1.17796
1.17756
1.1774
1.17775
1.17777
1.17663
1.17518
1.17399
1.1729
1.17133
1.16764
1.16021
1.15459
1.15341
1.15328
1.15331
1.15347
1.15381
1.15429
1.15479
1.15561
1.15669
1.15689
1.15659
1.15625
1.15574
1.15512
1.15449
1.15373
1.15245
1.15
1.14726
1.14583
1.14522
1.14476
1.14423
1.14369
1.14313
1.14199
1.13975
1.13602
1.13262
1.13186
1.13179
1.13163
1.13127
1.13066
1.12982
1.12911
1.12911
1.1308
1.13298
1.13276
1.13219
1.13206
1.13221
1.13261
1.13271
1.13237
1.13048
1.12506
1.11733
1.11432
1.11395
1.11365
1.11327
1.11282
1.11229
1.11169
1.11114
1.11085
1.11105
1.11236
1.1131
1.1127
1.112
1.11141
1.11096
1.11056
1.11011
1.10956
1.10891
1.10796
1.10632
1.10311
1.09775
1.09458
1.0945
1.09495
1.09547
1.09562
1.09561
1.0956
1.09553
1.09535
1.09528
1.09507
1.09469
1.0947
1.09484
1.09398
1.09244
1.09188
1.09173
1.09143
1.09004
1.08531
1.07809
1.07417
1.07252
1.0721
1.07267
1.07856
1.09911
1.15491
1.23438
1.31437
1.38061
1.43545
1.46561
1.46146
1.46182
1.46512
1.4716
1.47343
1.47321
1.46946
1.2021
1.2016
1.20095
1.19997
1.19828
1.19509
1.18895
1.18219
1.18015
1.17967
1.1796
1.17983
1.18039
1.18076
1.1808
1.18049
1.17975
1.17961
1.17957
1.17951
1.17955
1.18005
1.18034
1.17983
1.17874
1.17751
1.17628
1.17514
1.17393
1.17174
1.16643
1.15861
1.15468
1.1541
1.15401
1.15403
1.15419
1.15468
1.15551
1.15646
1.1576
1.15892
1.15893
1.15845
1.15795
1.15737
1.15665
1.15589
1.15496
1.15334
1.15036
1.14717
1.14555
1.14484
1.14445
1.14423
1.14398
1.14362
1.14319
1.14209
1.13908
1.13478
1.1334
1.13343
1.1333
1.13297
1.13237
1.13155
1.13062
1.12993
1.13001
1.13187
1.13346
1.13331
1.13337
1.1337
1.13397
1.13398
1.13365
1.13188
1.12625
1.11807
1.11505
1.11471
1.11444
1.11409
1.1137
1.11339
1.11299
1.11236
1.11186
1.11203
1.11348
1.11466
1.11438
1.11356
1.11286
1.11242
1.11204
1.11161
1.11112
1.11053
1.10958
1.10758
1.10337
1.09723
1.09424
1.09423
1.0947
1.09517
1.09523
1.09522
1.09518
1.09506
1.09488
1.09469
1.09433
1.09398
1.09406
1.0944
1.09383
1.09277
1.09246
1.09243
1.09227
1.09112
1.08677
1.07896
1.07392
1.07214
1.07128
1.071
1.07141
1.07299
1.07836
1.09409
1.13837
1.20989
1.29651
1.3715
1.43435
1.45065
1.45138
1.4587
1.47015
1.47242
1.47087
1.20349
1.20302
1.20241
1.2015
1.19997
1.1971
1.1917
1.18507
1.18163
1.18099
1.18071
1.18067
1.18084
1.18111
1.18118
1.18102
1.18096
1.18099
1.18093
1.1807
1.18042
1.18088
1.18211
1.18182
1.18074
1.17962
1.1784
1.17707
1.17542
1.17239
1.16562
1.15752
1.15544
1.15511
1.15496
1.15504
1.15532
1.15585
1.15668
1.15803
1.16014
1.16146
1.16126
1.16072
1.1603
1.15981
1.15912
1.15831
1.15723
1.15527
1.15163
1.14765
1.14616
1.14576
1.14553
1.14534
1.14493
1.14408
1.14316
1.14239
1.14102
1.13825
1.13503
1.13399
1.13393
1.13378
1.13346
1.13287
1.13199
1.13117
1.13101
1.13196
1.13431
1.13506
1.13515
1.1354
1.13561
1.13566
1.13543
1.13369
1.12773
1.11905
1.11604
1.11574
1.11551
1.11519
1.11473
1.11441
1.11444
1.1142
1.11336
1.11294
1.11317
1.11393
1.11375
1.11296
1.11224
1.11178
1.11142
1.11108
1.11077
1.11041
1.10978
1.10821
1.10444
1.09866
1.09584
1.09587
1.09636
1.09664
1.09663
1.09655
1.0964
1.09616
1.09585
1.09539
1.09476
1.09437
1.09441
1.09473
1.09441
1.0936
1.0935
1.09356
1.09354
1.09274
1.08886
1.08079
1.07439
1.07212
1.07111
1.07077
1.07087
1.07157
1.07247
1.07414
1.07849
1.0904
1.1259
1.18566
1.27145
1.35417
1.40588
1.42835
1.45192
1.46673
1.46731
1.20285
1.20236
1.20178
1.20096
1.19967
1.19755
1.19384
1.18806
1.18347
1.18243
1.18243
1.18237
1.18222
1.1821
1.18204
1.18223
1.18261
1.18271
1.18265
1.18239
1.18215
1.1825
1.18377
1.18392
1.18316
1.18201
1.18061
1.17921
1.17739
1.17367
1.16586
1.15732
1.15509
1.15497
1.15498
1.15522
1.15588
1.1571
1.15821
1.15909
1.16025
1.1612
1.16097
1.16061
1.16048
1.16026
1.15978
1.15912
1.15815
1.15645
1.15347
1.15004
1.14811
1.14731
1.14666
1.14601
1.14549
1.14501
1.14448
1.14399
1.14338
1.1415
1.13787
1.13603
1.13588
1.13582
1.13561
1.13521
1.13459
1.13371
1.13291
1.1328
1.13373
1.13524
1.13517
1.13515
1.13535
1.13568
1.13571
1.13471
1.12981
1.12121
1.11749
1.11721
1.11704
1.11675
1.11623
1.11541
1.11463
1.11437
1.11394
1.11349
1.1136
1.11428
1.11392
1.11306
1.11262
1.1124
1.11224
1.1121
1.11192
1.1116
1.11094
1.10952
1.10618
1.1006
1.09807
1.0981
1.09841
1.09852
1.09849
1.09835
1.09809
1.09779
1.09735
1.09655
1.09569
1.0955
1.09544
1.09469
1.09357
1.09317
1.09318
1.09336
1.09349
1.09315
1.09057
1.0837
1.07581
1.07211
1.07115
1.07093
1.07105
1.07177
1.07254
1.07369
1.07579
1.07818
1.0809
1.08782
1.11164
1.16264
1.24222
1.31914
1.38018
1.42277
1.44906
1.20445
1.20398
1.20346
1.20279
1.2017
1.19973
1.19643
1.19164
1.18732
1.1855
1.18459
1.18395
1.18363
1.18358
1.18358
1.18376
1.18415
1.18446
1.18459
1.18449
1.18448
1.18489
1.18572
1.18561
1.1841
1.18215
1.18059
1.17928
1.17752
1.17377
1.16578
1.15786
1.15603
1.15594
1.15597
1.1562
1.15706
1.15964
1.16167
1.16205
1.16246
1.16278
1.16247
1.16227
1.16222
1.16209
1.16175
1.16128
1.16054
1.15908
1.15639
1.1523
1.14917
1.14834
1.14785
1.14723
1.14687
1.14682
1.14673
1.1463
1.14518
1.14367
1.14158
1.13934
1.13827
1.13806
1.13785
1.13742
1.13674
1.13592
1.13502
1.13464
1.13495
1.13619
1.13663
1.13641
1.13652
1.13697
1.1372
1.13656
1.13268
1.12441
1.11957
1.11912
1.11899
1.11875
1.11828
1.11744
1.11646
1.11599
1.11568
1.11542
1.11571
1.1159
1.11501
1.11386
1.11332
1.11321
1.11323
1.11325
1.1132
1.11293
1.11222
1.11081
1.1081
1.10326
1.09918
1.09862
1.09858
1.09853
1.09843
1.09821
1.09785
1.09742
1.09675
1.09568
1.09517
1.0952
1.09553
1.09528
1.09479
1.09473
1.09477
1.09488
1.09487
1.09439
1.09226
1.08653
1.07789
1.07249
1.07158
1.07156
1.07183
1.07252
1.0731
1.07407
1.07591
1.07841
1.08037
1.08101
1.08192
1.08593
1.10187
1.13893
1.20824
1.28067
1.38004
1.20669
1.20614
1.20559
1.20496
1.20397
1.20207
1.19897
1.19584
1.19313
1.18962
1.18699
1.18608
1.1859
1.18585
1.18586
1.18603
1.18627
1.18642
1.18675
1.18775
1.1882
1.18841
1.1887
1.18831
1.18639
1.18425
1.18264
1.18126
1.1795
1.17562
1.16744
1.15983
1.15804
1.15791
1.15794
1.15814
1.15851
1.15961
1.16207
1.16393
1.16506
1.16526
1.1649
1.16458
1.1644
1.16423
1.16398
1.16364
1.16324
1.16224
1.15966
1.15514
1.15103
1.14933
1.14916
1.14925
1.14945
1.14942
1.14891
1.14779
1.14653
1.14532
1.14394
1.14254
1.14144
1.14068
1.1403
1.1399
1.1393
1.13872
1.13804
1.137
1.13654
1.13705
1.13815
1.13809
1.13815
1.13869
1.13939
1.1394
1.13708
1.12947
1.12269
1.12161
1.12144
1.12119
1.12067
1.11979
1.11862
1.11756
1.11681
1.1165
1.11669
1.11678
1.11581
1.11484
1.11463
1.11464
1.11472
1.11488
1.11491
1.1147
1.11386
1.1124
1.10996
1.10576
1.10185
1.10082
1.10065
1.10051
1.1003
1.09996
1.09937
1.09852
1.09738
1.09594
1.09547
1.09591
1.09609
1.09588
1.09611
1.09639
1.09639
1.09636
1.09625
1.09557
1.09323
1.08845
1.08109
1.07393
1.07155
1.07141
1.07144
1.07172
1.07236
1.07383
1.07609
1.079
1.0811
1.08173
1.08209
1.08241
1.0827
1.08398
1.09227
1.11455
1.22251
1.20962
1.2091
1.20856
1.20795
1.20703
1.20569
1.20413
1.20189
1.19769
1.19247
1.18998
1.18966
1.18948
1.18935
1.18938
1.1894
1.18937
1.18923
1.18904
1.18949
1.19023
1.19027
1.19013
1.18959
1.18778
1.18593
1.18468
1.18368
1.18219
1.17833
1.16988
1.16229
1.16075
1.16068
1.16074
1.16108
1.16158
1.16227
1.16368
1.16578
1.16788
1.16801
1.16749
1.16711
1.16686
1.16659
1.16622
1.16578
1.16508
1.16382
1.16144
1.15773
1.15415
1.1524
1.1515
1.15091
1.15061
1.15034
1.1498
1.14887
1.14789
1.14726
1.14681
1.14611
1.14509
1.1441
1.14344
1.14293
1.14228
1.1413
1.14006
1.13889
1.13833
1.1388
1.14017
1.14024
1.14026
1.14066
1.14118
1.1412
1.13959
1.13288
1.12571
1.12427
1.12402
1.1237
1.12308
1.12207
1.1207
1.11917
1.11832
1.11833
1.11882
1.11859
1.11713
1.1166
1.11671
1.11699
1.11715
1.11714
1.11693
1.11635
1.11538
1.11415
1.11251
1.10948
1.10521
1.10338
1.10311
1.10289
1.10252
1.10192
1.10102
1.09965
1.09788
1.09663
1.09662
1.09692
1.09652
1.09663
1.09738
1.09792
1.09792
1.09786
1.09768
1.09702
1.09498
1.09052
1.08355
1.07581
1.07239
1.07221
1.07229
1.07254
1.07319
1.07468
1.07725
1.0806
1.08258
1.08298
1.083
1.08286
1.08275
1.08235
1.08124
1.07903
1.09747
1.2137
1.21331
1.21279
1.21201
1.21097
1.20982
1.20864
1.20675
1.20234
1.19643
1.19456
1.19436
1.19414
1.19395
1.19386
1.19372
1.19344
1.19307
1.19284
1.19334
1.19403
1.19403
1.19374
1.19302
1.19128
1.18952
1.18826
1.18716
1.18555
1.18171
1.17334
1.16588
1.16448
1.16442
1.16448
1.1648
1.16529
1.16571
1.16607
1.1674
1.17012
1.17072
1.1701
1.16973
1.16949
1.16916
1.16882
1.16844
1.16781
1.16673
1.16464
1.16165
1.15874
1.15609
1.15401
1.15279
1.152
1.15148
1.15119
1.15093
1.15021
1.14884
1.1481
1.14792
1.14775
1.14753
1.14688
1.14586
1.14481
1.14372
1.14249
1.14132
1.1407
1.14091
1.14207
1.14233
1.14234
1.14281
1.14368
1.14394
1.14272
1.13665
1.1291
1.12706
1.12668
1.12625
1.12552
1.12436
1.12292
1.12146
1.11993
1.11948
1.12
1.12022
1.11929
1.1186
1.1186
1.11872
1.11889
1.1189
1.11879
1.11841
1.11767
1.11646
1.11457
1.11135
1.1071
1.10555
1.10531
1.10503
1.10453
1.1037
1.10253
1.10082
1.09831
1.09647
1.09638
1.09708
1.09711
1.09744
1.09872
1.09987
1.10022
1.10021
1.09976
1.09828
1.0953
1.09077
1.08439
1.07765
1.07406
1.07339
1.07341
1.07375
1.07487
1.07692
1.07936
1.08209
1.08334
1.08354
1.08363
1.0836
1.08341
1.08278
1.08122
1.0788
1.07492
1.2185
1.21795
1.21717
1.21629
1.21571
1.21545
1.21504
1.21317
1.20763
1.20142
1.19991
1.19966
1.19944
1.19918
1.19886
1.19843
1.19785
1.19725
1.19689
1.19706
1.19746
1.19776
1.19784
1.19705
1.19504
1.19337
1.19216
1.19106
1.18954
1.18619
1.17857
1.17044
1.16853
1.16837
1.16836
1.16845
1.16862
1.16875
1.16885
1.16932
1.17142
1.17344
1.17316
1.17262
1.17237
1.17207
1.17171
1.17128
1.17075
1.17008
1.169
1.16681
1.1633
1.15951
1.15674
1.15529
1.15453
1.15397
1.15348
1.1529
1.15184
1.15049
1.15042
1.15078
1.15083
1.1505
1.14973
1.14874
1.14762
1.1464
1.14526
1.14428
1.14355
1.14323
1.14372
1.1445
1.14459
1.14514
1.14623
1.14681
1.14619
1.14086
1.13236
1.12958
1.12911
1.12861
1.12776
1.12649
1.1249
1.1234
1.12185
1.12101
1.12117
1.12168
1.12125
1.12072
1.12075
1.12092
1.12112
1.12123
1.12123
1.12095
1.11998
1.1185
1.11676
1.11407
1.11029
1.10799
1.10746
1.10708
1.10644
1.10532
1.10351
1.10088
1.0981
1.09726
1.09768
1.09824
1.09835
1.099
1.10042
1.1015
1.10187
1.10189
1.10139
1.0996
1.09631
1.0917
1.0857
1.0791
1.07469
1.07379
1.07392
1.07458
1.07611
1.07829
1.08057
1.08326
1.08463
1.08475
1.08467
1.0845
1.08409
1.08309
1.08132
1.07885
1.07392
1.22387
1.22315
1.2225
1.22217
1.22212
1.22211
1.22167
1.219
1.21217
1.20633
1.20522
1.20495
1.20473
1.20448
1.20412
1.20361
1.20288
1.20202
1.20136
1.20129
1.20152
1.20215
1.20211
1.2006
1.19862
1.1972
1.19613
1.19515
1.19389
1.19125
1.18473
1.17601
1.17287
1.17255
1.17239
1.1723
1.17226
1.17226
1.17228
1.17232
1.17298
1.17513
1.1764
1.17588
1.17543
1.17522
1.17498
1.17465
1.17418
1.17343
1.17223
1.1703
1.16727
1.16364
1.16083
1.1591
1.15765
1.15641
1.15546
1.15463
1.15391
1.1536
1.15346
1.15314
1.15252
1.1523
1.15206
1.15139
1.1503
1.14888
1.14741
1.14649
1.14594
1.14569
1.14609
1.147
1.14727
1.14794
1.14901
1.14938
1.14861
1.14336
1.13471
1.13179
1.13134
1.13082
1.12991
1.12867
1.12726
1.12531
1.12314
1.1221
1.12219
1.12316
1.12335
1.12329
1.12353
1.12385
1.1239
1.12377
1.12342
1.12282
1.12177
1.12034
1.11895
1.11724
1.11405
1.11061
1.1095
1.10897
1.10815
1.1067
1.10454
1.10151
1.09911
1.09868
1.09911
1.09942
1.09976
1.10081
1.10223
1.10326
1.10369
1.10369
1.10323
1.10145
1.09784
1.09289
1.08706
1.08107
1.07661
1.07516
1.07524
1.07603
1.07774
1.07979
1.08227
1.0851
1.08589
1.08581
1.08564
1.08533
1.08493
1.08402
1.08211
1.07925
1.0736
1.22996
1.2293
1.22892
1.22873
1.22858
1.22832
1.22739
1.2239
1.21643
1.21154
1.21096
1.21075
1.21052
1.21023
1.20988
1.20945
1.20865
1.20724
1.20574
1.20532
1.20552
1.20608
1.20565
1.20386
1.20221
1.2011
1.20023
1.1994
1.19835
1.19638
1.19143
1.18295
1.17777
1.17696
1.1766
1.17631
1.17605
1.17587
1.17577
1.17572
1.17571
1.17645
1.17872
1.1797
1.17914
1.17877
1.17855
1.17822
1.17768
1.17694
1.17589
1.17437
1.17229
1.16956
1.16637
1.1631
1.16054
1.15894
1.15801
1.15746
1.15707
1.15674
1.15643
1.15608
1.15567
1.1553
1.1548
1.15393
1.15276
1.1515
1.15021
1.14929
1.14892
1.14884
1.14955
1.14997
1.15015
1.15086
1.15175
1.15199
1.15121
1.14629
1.13791
1.13443
1.13378
1.13312
1.13197
1.13018
1.128
1.12588
1.12442
1.12416
1.12439
1.12535
1.12546
1.12535
1.12546
1.12573
1.12584
1.1258
1.12552
1.12488
1.12382
1.12248
1.12107
1.1192
1.11589
1.11249
1.11141
1.11076
1.10964
1.1077
1.1054
1.10272
1.10116
1.10118
1.10115
1.10109
1.10155
1.10292
1.10426
1.10513
1.10533
1.10522
1.10469
1.10335
1.09995
1.09471
1.08898
1.08382
1.07972
1.07716
1.07682
1.07741
1.0791
1.08118
1.08379
1.08618
1.08656
1.08648
1.08616
1.08565
1.08545
1.08509
1.0834
1.08014
1.07395
1.23625
1.23563
1.23527
1.23502
1.23476
1.23428
1.23292
1.22894
1.22168
1.21751
1.21694
1.21663
1.21626
1.21577
1.21513
1.21431
1.21322
1.21191
1.21029
1.20954
1.20967
1.2098
1.20877
1.20715
1.20603
1.20523
1.2045
1.20369
1.20266
1.20102
1.19766
1.19044
1.18295
1.1808
1.18036
1.17997
1.17963
1.17941
1.17934
1.17931
1.17929
1.17931
1.18016
1.1824
1.18304
1.18239
1.18187
1.18144
1.18099
1.18044
1.17969
1.17855
1.17665
1.17378
1.17015
1.16653
1.16381
1.16223
1.16137
1.16078
1.1603
1.15981
1.15914
1.15852
1.1582
1.15779
1.15722
1.15645
1.15536
1.1544
1.15358
1.15288
1.15269
1.15291
1.15281
1.15268
1.15282
1.15335
1.15405
1.15425
1.15359
1.14917
1.14092
1.13705
1.13619
1.13535
1.13397
1.13189
1.12962
1.12776
1.12659
1.12626
1.12633
1.12706
1.12734
1.12717
1.12727
1.12757
1.12785
1.12797
1.12785
1.1271
1.12576
1.12453
1.12339
1.12171
1.11858
1.11487
1.11328
1.11238
1.11095
1.10852
1.10531
1.10262
1.10202
1.10244
1.10259
1.10262
1.10324
1.10454
1.10606
1.10681
1.10685
1.10669
1.10578
1.1036
1.09965
1.0944
1.08939
1.08555
1.08226
1.07942
1.07861
1.07904
1.0807
1.08283
1.08549
1.08733
1.08747
1.08733
1.08684
1.08637
1.08602
1.08518
1.08326
1.08001
1.07384
1.2424
1.24191
1.24164
1.24139
1.24109
1.2405
1.23869
1.23365
1.22623
1.22279
1.22208
1.22153
1.22089
1.22008
1.21903
1.21786
1.21693
1.21615
1.21542
1.21449
1.21395
1.21331
1.2118
1.21069
1.20997
1.20928
1.20847
1.20752
1.20644
1.20505
1.20262
1.19725
1.18928
1.18515
1.18459
1.18423
1.18389
1.18359
1.1833
1.18303
1.18281
1.18264
1.18259
1.1834
1.18572
1.18598
1.18525
1.18483
1.18455
1.18412
1.18349
1.18247
1.18075
1.178
1.17424
1.17048
1.16777
1.16604
1.16502
1.16423
1.16321
1.16195
1.16111
1.16078
1.16045
1.16
1.15942
1.15889
1.15795
1.15708
1.15666
1.15641
1.15585
1.15557
1.15544
1.15523
1.15514
1.15543
1.15604
1.15623
1.15563
1.15181
1.14414
1.13963
1.13843
1.1374
1.13584
1.13361
1.13096
1.12887
1.12818
1.12818
1.12865
1.12933
1.12953
1.12944
1.12947
1.12961
1.12973
1.12975
1.12954
1.12869
1.12741
1.12656
1.12607
1.12513
1.12226
1.11756
1.11501
1.11375
1.11198
1.10916
1.10575
1.10391
1.10364
1.104
1.10411
1.10428
1.10513
1.1068
1.10822
1.10858
1.10856
1.10814
1.10686
1.1044
1.10023
1.09499
1.09037
1.08702
1.08434
1.08208
1.0814
1.08161
1.08267
1.08438
1.08695
1.08837
1.08844
1.08829
1.08776
1.08721
1.08664
1.08566
1.08357
1.07984
1.07354
1.24844
1.24813
1.2479
1.24761
1.24712
1.24604
1.24313
1.23635
1.22914
1.22706
1.22647
1.22581
1.22495
1.22393
1.22275
1.22164
1.22113
1.22047
1.21913
1.21779
1.2172
1.21635
1.21488
1.21397
1.21332
1.21252
1.21159
1.21068
1.2098
1.20876
1.20708
1.20353
1.19682
1.19044
1.18849
1.18799
1.18747
1.18689
1.18642
1.18604
1.1857
1.18539
1.18515
1.18511
1.18647
1.18883
1.18877
1.1881
1.18775
1.18732
1.18669
1.18568
1.18409
1.18169
1.1784
1.17484
1.17202
1.17021
1.16869
1.16673
1.16457
1.16339
1.16296
1.16256
1.16206
1.1615
1.16115
1.16089
1.16038
1.15963
1.15943
1.1589
1.15828
1.15825
1.15827
1.15826
1.15813
1.15796
1.15798
1.1579
1.15707
1.15357
1.14662
1.14196
1.14058
1.13944
1.13773
1.13533
1.13259
1.13066
1.13028
1.13087
1.13149
1.13122
1.13112
1.1311
1.13101
1.13105
1.13118
1.13123
1.13107
1.13036
1.12948
1.12891
1.12831
1.12701
1.12385
1.11922
1.11662
1.11513
1.11301
1.10996
1.10677
1.10545
1.10555
1.10555
1.10555
1.10588
1.10719
1.10906
1.11007
1.11018
1.11008
1.10947
1.10796
1.10526
1.10107
1.09596
1.0917
1.08891
1.08664
1.08421
1.08307
1.0831
1.08356
1.0854
1.08813
1.08922
1.08925
1.08909
1.08854
1.08809
1.08763
1.08654
1.08407
1.07974
1.07349
1.25432
1.2539
1.25347
1.25291
1.252
1.25017
1.24585
1.23789
1.2323
1.23128
1.23078
1.23011
1.22915
1.22809
1.22725
1.22628
1.22482
1.22311
1.2212
1.21984
1.21942
1.21843
1.21712
1.21646
1.21597
1.21539
1.21477
1.21412
1.21341
1.21251
1.21102
1.2082
1.20261
1.1954
1.1918
1.19111
1.19061
1.19001
1.18946
1.18902
1.18861
1.18821
1.18781
1.18749
1.18757
1.18961
1.19169
1.19127
1.1906
1.19009
1.18947
1.1885
1.1869
1.18469
1.1821
1.1795
1.17703
1.1743
1.17052
1.16696
1.16554
1.16509
1.16463
1.16401
1.16326
1.16264
1.1626
1.16263
1.16243
1.16208
1.16178
1.161
1.16083
1.16099
1.16122
1.16123
1.16079
1.1597
1.15887
1.15833
1.15732
1.15434
1.14831
1.14387
1.14243
1.14126
1.13958
1.13731
1.13496
1.13326
1.13235
1.13224
1.13257
1.13231
1.13213
1.13218
1.13226
1.13238
1.13244
1.1324
1.13226
1.13212
1.1318
1.1314
1.13082
1.12945
1.12594
1.121
1.11828
1.11651
1.11405
1.11109
1.10881
1.10738
1.1068
1.1066
1.10659
1.10716
1.10891
1.11092
1.11164
1.1117
1.11147
1.11061
1.10896
1.1062
1.10208
1.09703
1.0929
1.09052
1.08877
1.08641
1.08474
1.08451
1.08477
1.08678
1.08946
1.09005
1.08999
1.08968
1.089
1.08849
1.08812
1.08727
1.08464
1.08012
1.07466
1.25938
1.25871
1.25795
1.25703
1.25575
1.25328
1.24774
1.23973
1.23587
1.23511
1.23452
1.23371
1.23262
1.23138
1.23016
1.22872
1.22691
1.22464
1.22281
1.22209
1.22178
1.22061
1.21948
1.21913
1.21894
1.21873
1.21836
1.21769
1.21676
1.21564
1.21415
1.21171
1.20693
1.19978
1.19541
1.19428
1.19373
1.1931
1.19229
1.19153
1.19094
1.19041
1.18994
1.18956
1.18935
1.19017
1.19286
1.19369
1.19296
1.1922
1.19153
1.19072
1.18948
1.18764
1.18566
1.18375
1.18121
1.17692
1.17102
1.16779
1.16715
1.16671
1.16611
1.16533
1.16451
1.16381
1.1635
1.16341
1.16346
1.16382
1.16365
1.16308
1.16309
1.16328
1.16339
1.16331
1.16278
1.16152
1.15999
1.15862
1.15702
1.15442
1.15017
1.14585
1.14326
1.14139
1.13951
1.13746
1.13558
1.13437
1.1337
1.13344
1.1335
1.13318
1.13309
1.13322
1.13332
1.13327
1.13303
1.13288
1.13294
1.13342
1.13399
1.13405
1.13388
1.13275
1.12904
1.12284
1.11866
1.1163
1.11352
1.11054
1.10879
1.10785
1.1074
1.10739
1.10756
1.10821
1.1099
1.11186
1.11256
1.11259
1.11241
1.1116
1.10996
1.1073
1.10338
1.09847
1.09445
1.0921
1.09049
1.0888
1.08716
1.08594
1.08585
1.0874
1.08987
1.09043
1.09037
1.09
1.08938
1.08888
1.08811
1.08687
1.08428
1.07989
1.07466
1.26303
1.26228
1.26146
1.26046
1.25896
1.25559
1.24842
1.24088
1.23843
1.23769
1.23691
1.23586
1.23456
1.23324
1.2321
1.23076
1.2291
1.22704
1.22537
1.22496
1.22456
1.22323
1.22251
1.22223
1.2219
1.22135
1.22054
1.21955
1.2185
1.21739
1.21599
1.21387
1.2103
1.20487
1.1994
1.19675
1.1957
1.19492
1.19419
1.19344
1.19277
1.19217
1.19174
1.19159
1.19145
1.19138
1.1923
1.19453
1.19476
1.19393
1.19318
1.19253
1.19173
1.19072
1.1896
1.18793
1.18482
1.17857
1.17131
1.16864
1.16806
1.16757
1.16691
1.16609
1.1652
1.16446
1.16427
1.1644
1.16505
1.16598
1.16561
1.16519
1.16524
1.16537
1.16538
1.16523
1.16463
1.16345
1.16137
1.15861
1.15586
1.15315
1.15036
1.14732
1.14465
1.14249
1.14055
1.13877
1.1372
1.13595
1.13504
1.13484
1.13483
1.13409
1.13382
1.13378
1.13363
1.13344
1.1334
1.13348
1.13365
1.13379
1.13406
1.1343
1.13427
1.1335
1.13022
1.12406
1.11967
1.11706
1.11417
1.11139
1.10993
1.10892
1.10822
1.10822
1.10842
1.10889
1.11029
1.11205
1.1128
1.1129
1.11295
1.11258
1.11124
1.10889
1.10522
1.10037
1.09635
1.09413
1.09273
1.09088
1.08823
1.08622
1.08616
1.08787
1.09031
1.09087
1.09083
1.0905
1.08988
1.08921
1.08828
1.08683
1.08398
1.07982
1.07527
1.26589
1.26523
1.26449
1.26351
1.26158
1.25664
1.24768
1.24161
1.24028
1.23954
1.23858
1.23733
1.23586
1.2345
1.23342
1.23238
1.23136
1.23035
1.2295
1.22797
1.22628
1.22529
1.22473
1.22421
1.22354
1.22266
1.22165
1.22061
1.21958
1.21848
1.21714
1.21544
1.213
1.20852
1.20238
1.1987
1.19746
1.19656
1.19569
1.19515
1.1947
1.19417
1.19358
1.19304
1.19254
1.19212
1.19213
1.19378
1.19573
1.19559
1.19487
1.19427
1.19387
1.19353
1.1928
1.19114
1.18708
1.1788
1.17115
1.16912
1.16865
1.16816
1.16753
1.16673
1.16576
1.16484
1.16451
1.16487
1.16692
1.16814
1.16759
1.16738
1.16747
1.16762
1.16767
1.16758
1.16699
1.16524
1.16219
1.15845
1.15501
1.15208
1.14966
1.14806
1.14634
1.14429
1.14256
1.14112
1.13973
1.13833
1.13706
1.13608
1.13527
1.13439
1.13392
1.13386
1.13382
1.1338
1.13384
1.13391
1.13402
1.1343
1.13473
1.13499
1.135
1.13436
1.13115
1.12525
1.12101
1.11836
1.11549
1.11283
1.11144
1.11029
1.10926
1.10902
1.10903
1.1094
1.11087
1.11262
1.11315
1.1131
1.11262
1.11174
1.11036
1.10813
1.10464
1.09989
1.09598
1.09404
1.09289
1.09107
1.08847
1.08667
1.08673
1.08864
1.09096
1.09137
1.0913
1.09088
1.09005
1.08937
1.08876
1.0875
1.08478
1.08084
1.07672
1.26832
1.26762
1.26685
1.26574
1.26318
1.25655
1.24685
1.24268
1.24179
1.241
1.23989
1.23849
1.23696
1.23575
1.23478
1.23363
1.23238
1.23148
1.23071
1.22901
1.2274
1.22656
1.22597
1.22533
1.22452
1.22356
1.22258
1.22167
1.22074
1.21965
1.2183
1.21669
1.21453
1.21061
1.2045
1.20034
1.19915
1.1985
1.19779
1.19673
1.19548
1.19487
1.19443
1.19394
1.1934
1.19291
1.1927
1.19349
1.19559
1.19668
1.19651
1.19622
1.19612
1.19565
1.19484
1.19321
1.18865
1.17918
1.17165
1.16976
1.16907
1.16846
1.16772
1.16678
1.16571
1.16479
1.16465
1.16532
1.16744
1.16783
1.16717
1.16707
1.16717
1.1674
1.16765
1.16774
1.1675
1.16611
1.16307
1.15856
1.15403
1.15117
1.14944
1.14792
1.14636
1.14472
1.14284
1.14119
1.13969
1.13832
1.13714
1.1362
1.13552
1.13489
1.13437
1.1342
1.1341
1.13403
1.13406
1.13423
1.13464
1.13517
1.1355
1.1356
1.13557
1.13497
1.13213
1.12582
1.12052
1.1176
1.11478
1.1122
1.11075
1.10938
1.10857
1.1086
1.10883
1.10947
1.11118
1.11276
1.11306
1.113
1.11262
1.11188
1.11051
1.10828
1.10488
1.10025
1.09649
1.09469
1.09368
1.0921
1.08931
1.08706
1.08717
1.08919
1.09135
1.09166
1.09159
1.09116
1.09035
1.08943
1.08824
1.08657
1.0837
1.08001
1.07615
1.27019
1.26937
1.26847
1.26701
1.26349
1.25572
1.24695
1.24402
1.24325
1.2424
1.24122
1.23981
1.23832
1.23714
1.23612
1.23492
1.2338
1.23317
1.23206
1.22993
1.22848
1.22771
1.22711
1.22644
1.22561
1.22466
1.22373
1.22283
1.22186
1.22073
1.21939
1.21777
1.21551
1.2119
1.2068
1.20253
1.20072
1.19981
1.19899
1.1978
1.19639
1.19578