/*--------------------------------*- C++ -*----------------------------------*\
  =========                 |
  \\      /  F ield         | OpenFOAM: The Open Source CFD Toolbox
   \\    /   O peration     | Website:  https://openfoam.org
    \\  /    A nd           | Version:  7
     \\/     M anipulation  |
\*---------------------------------------------------------------------------*/
FoamFile
{
    version     2.0;
    format      ascii;
    class       surfaceScalarField;
    location    "13";
    object      phi;
}
// * * * * * * * * * * * * * * * * * * * * * * * * * * * * * * * * * * * * * //

dimensions      [0 3 -1 0 0 0 0];

internalField   nonuniform List<scalar> 
816
(
0.000285026
-0.00026263
0.000307575
-0.000315331
0.000338978
-0.000374016
0.000378503
-0.000438311
-0.000508482
0.000117922
-0.000279609
0.000179259
-0.000323966
0.000239322
-0.000375394
0.000298789
-0.000433484
0.000358829
-0.000498351
0.000420749
-0.000570402
0.000485821
-0.000650204
0.00055518
-0.000738374
0.000629776
-0.000835521
-0.00094222
7.71451e-05
-0.000308785
0.000140845
-0.00034331
0.000202246
-0.000385366
0.000261979
-0.000435128
0.000321176
-0.000492681
0.000381121
-0.000558296
0.000443131
-0.000632412
0.000508436
-0.000715509
0.00057811
-0.000808048
0.000653028
-0.000910438
0.000733853
-0.00102305
0.000821045
-0.0011462
0.000914871
-0.00128018
0.00101542
-0.00142525
-0.00158159
0.000300047
-0.000296748
0.00031276
-0.000321499
0.000326632
-0.000357181
0.000344971
-0.000403705
0.000369775
-0.000459932
0.000402053
-0.000524958
0.000442194
-0.000598437
0.000490246
-0.000680463
0.000546095
-0.000771359
0.000609576
-0.000871528
0.000680516
-0.000981378
0.000758751
-0.00110128
0.000844111
-0.00123156
0.000936404
-0.00137247
0.00103539
-0.00152423
0.00114073
-0.00168694
0.00125202
-0.00186059
0.00136868
-0.0020451
0.00149002
-0.00224101
-0.00244834
0.00161519
0.000490325
-0.000248339
0.000456034
-0.000262456
0.000429108
-0.000294573
0.000413718
-0.000341791
0.000410954
-0.000400941
0.000420711
-0.000469689
0.000442393
-0.00054664
0.000475205
-0.000631249
0.00051829
-0.000723549
0.000570832
-0.000823901
0.000632103
-0.000932799
0.000701482
-0.00105076
0.000778454
-0.00117825
0.000862571
-0.00131567
0.000953426
-0.00146333
0.00105061
-0.00162141
0.00115366
-0.00178999
0.00126205
-0.00196898
0.00137516
-0.0021582
0.00149219
-0.00235804
-0.00256842
0.00161227
0.000311453
-0.000199497
0.000291096
-0.000227983
0.000284958
-0.000256319
0.000292418
-0.000302032
0.000310816
-0.000360189
0.00033796
-0.000428085
0.000372491
-0.00050422
0.000413616
-0.000587766
0.000461015
-0.000678648
0.000514593
-0.000777127
0.000574346
-0.000883654
0.000640285
-0.000998738
0.000712394
-0.00112287
0.000790605
-0.00125646
0.000874784
-0.00139985
0.000964718
-0.00155326
0.0010601
-0.0017168
0.00116054
-0.00189042
0.00126551
-0.00207395
0.00137438
-0.00226707
0.00148636
-0.00247002
-0.00268261
0.00160055
-8.33086e-05
-0.000248512
-2.77853e-05
-0.000283506
3.93235e-05
-0.000323428
0.000109215
-0.000371924
0.000178504
-0.000429478
0.000245976
-0.000495557
0.000311506
-0.000569749
0.000375886
-0.000652146
0.000440202
-0.000742965
0.000505661
-0.000842585
0.000573395
-0.000951388
0.000644358
-0.0010697
0.000719262
-0.00119777
0.000798566
-0.00133577
0.000882493
-0.00148378
0.00097106
-0.00164183
0.0010641
-0.00180983
0.00116127
-0.0019876
0.0012621
-0.00217479
0.00136597
-0.00237093
0.0014721
-0.00257615
-0.00279011
0.00157959
-3.70899e-05
-0.000259941
2.22217e-05
-0.000307824
8.27779e-05
-0.000344062
0.000141319
-0.000381969
0.00019651
-0.000427114
0.000249196
-0.000482165
0.000300994
-0.000547355
0.00035344
-0.000622196
0.00040766
-0.000706365
0.00046454
-0.000799845
0.000524757
-0.000902803
0.000588814
-0.00101544
0.000657054
-0.00113794
0.000729674
-0.00127039
0.000806733
-0.00141282
0.000888158
-0.00156521
0.000973753
-0.00172743
0.0010632
-0.00189928
0.00115608
-0.00208048
0.00125184
-0.00227055
0.00134983
-0.00246892
0.00144927
-0.00267559
-0.0028901
0.00154926
0.000269015
-0.000296814
0.000304409
-0.000343217
0.0003292
-0.000368853
0.000345289
-0.000398058
0.000358804
-0.000440629
0.000374617
-0.000497978
0.00039568
-0.000568418
0.000423575
-0.000650091
0.000458975
-0.000741765
0.000501917
-0.000842787
0.000552053
-0.000952938
0.000608845
-0.00107224
0.000671696
-0.00120079
0.000740018
-0.00133871
0.000813253
-0.00148606
0.000890877
-0.00164283
0.000972377
-0.00180892
0.00105723
-0.00198413
0.00114486
-0.00216811
0.00123466
-0.00236035
0.00132593
-0.00256019
0.00141788
-0.00276754
-0.00298184
0.00150962
0.000488726
-0.00026688
0.000452117
-0.000306609
0.000418995
-0.000335731
0.000394639
-0.000373702
0.000384748
-0.000430739
0.000388606
-0.000501836
0.000404593
-0.000584405
0.000431099
-0.000676597
0.000466685
-0.000777352
0.00051014
-0.000886242
0.00056046
-0.00100326
0.000616795
-0.00112857
0.000678418
-0.00126242
0.000744703
-0.001405
0.000815094
-0.00155645
0.000889081
-0.00171682
0.000966159
-0.001886
0.00104581
-0.00206378
0.00112747
-0.00224977
0.00121054
-0.00244341
0.00129432
-0.00264397
0.00137805
-0.00285127
-0.00306466
0.00146086
0.000134682
-0.000256055
0.000129811
-0.000301738
0.000144221
-0.000350141
0.000177892
-0.000407372
0.000222182
-0.000475029
0.000272561
-0.000552215
0.000326188
-0.000638032
0.000381587
-0.000731996
0.000438214
-0.000833979
0.00049608
-0.000944108
0.000555434
-0.00106261
0.000616601
-0.00118974
0.000679861
-0.00132568
0.000745394
-0.00147053
0.000813244
-0.0016243
0.00088332
-0.00178689
0.000955396
-0.00195808
0.00102912
-0.00213751
0.00110405
-0.0023247
0.00117961
-0.00251898
0.00125519
-0.00271955
0.00133005
-0.00292613
-0.00313796
0.00140336
-0.000191216
-0.00025134
-0.000125619
-0.000321652
-5.07426e-05
-0.000376614
2.88964e-05
-0.00042978
0.000108637
-0.000487114
0.000185263
-0.000551654
0.00025765
-0.000624603
0.000325698
-0.000706081
0.000389922
-0.00079622
0.000451184
-0.00089524
0.000510568
-0.00100349
0.000569166
-0.00112121
0.000627929
-0.0012485
0.000687579
-0.00138533
0.00074859
-0.00153154
0.000811185
-0.0016869
0.000875365
-0.00185107
0.000940943
-0.00202366
0.00100758
-0.00220415
0.00107481
-0.00239193
0.00114209
-0.00258626
0.0012088
-0.00278625
0.0012742
-0.00299154
-0.00320129
0.00133753
0.000193319
0.000267317
-0.00039565
0.000328606
-0.000437903
0.000373676
-0.00047485
0.000405563
-0.000519
0.000430101
-0.000576193
0.000452352
-0.000646853
0.000476079
-0.000729807
0.000503063
-0.000823204
0.000534321
-0.000926498
0.000570179
-0.00103935
0.000610531
-0.00116156
0.000655045
-0.00129301
0.000703265
-0.00143355
0.000754675
-0.00158295
0.000808726
-0.00174095
0.000864849
-0.0019072
0.000922458
-0.00208127
0.000980947
-0.00226264
0.00103969
-0.00245067
0.00109804
-0.00264461
0.00115534
-0.00284355
0.00121087
-0.00304707
-0.0032543
0.00126388
0.000663473
-0.000445383
0.000668903
-0.000443333
0.000649326
-0.000455272
0.00062259
-0.000492264
0.000598374
-0.000551976
0.000581438
-0.000629917
0.000573484
-0.000721853
0.000575586
-0.000825306
0.000587398
-0.00093831
0.000607965
-0.00105992
0.000636105
-0.0011897
0.00067055
-0.00132746
0.000710069
-0.00147307
0.000753533
-0.00162641
0.000799936
-0.00178735
0.000848384
-0.00195565
0.000898076
-0.00213096
0.000948269
-0.00231283
0.000998266
-0.00250067
0.00104739
-0.00269373
0.001095
-0.00289116
0.00114041
-0.00309247
-0.00329679
0.0011829
0.000675778
-0.000412088
0.000631287
-0.000398843
0.000585623
-0.000409608
0.000553161
-0.000459802
0.000535287
-0.000534103
0.000530218
-0.000624848
0.000535886
-0.000727521
0.000550078
-0.000839499
0.000571181
-0.000959412
0.000597901
-0.00108664
0.000629155
-0.00122096
0.000664022
-0.00136233
0.000701704
-0.00151075
0.000741493
-0.0016662
0.000782746
-0.0018286
0.00082486
-0.00199776
0.000867254
-0.00217335
0.000909351
-0.00235493
0.000950576
-0.00254189
0.000990353
-0.00273351
0.00102812
-0.00292893
0.00106326
-0.00312761
-0.0033287
0.00109516
0.000288129
-0.000373742
0.000270588
-0.000381301
0.000283941
-0.000422961
0.000313968
-0.000489829
0.000353561
-0.000573696
0.000397762
-0.00066905
0.000443084
-0.000772842
0.000487594
-0.00088401
0.000530477
-0.0010023
0.000571602
-0.00112776
0.000611195
-0.00126055
0.000649611
-0.00140074
0.000687177
-0.00154831
0.000724113
-0.00170314
0.000760493
-0.00186498
0.000796244
-0.00203351
0.00083116
-0.00220827
0.000864923
0.00089714
0.000927367
0.000955145
0.000979949
0.00100126
0.000197032
0.000236901
-0.00042117
0.000288072
-0.000474132
0.000340236
-0.000541994
0.000389766
-0.000623226
0.000435663
-0.000714946
0.000478028
-0.000815208
0.000517169
-0.000923151
0.000553515
0.000587573
0.000619847
0.000650771
0.000680664
0.000709703
0.000737912
0.000765175
0.000558027
0.000581939
0.000592789
0.000597378
0.000600207
0.000604
0.00704587
0.00138299
-0.00709133
0.00697956
0.00146967
0.00689216
0.00154827
0.00678365
0.00161813
0.00665427
0.00167864
0.00650453
0.00172933
0.0063352
0.00176988
0.00614734
0.00180014
0.00182022
0.00751384
0.00140214
-0.00753299
0.00747624
0.00150726
0.00741947
0.00160504
0.00734298
0.00169461
0.00724641
0.00177521
0.00712962
0.00184612
0.00699274
0.00190676
0.00683617
0.00195671
0.00199574
0.00792255
0.00139708
-0.0079175
0.0079121
0.00151772
0.00788507
0.00163206
0.0078405
0.00173918
0.00777753
0.00183818
0.00769546
0.00192819
0.00759378
0.00200844
0.00747224
0.00207825
0.00213711
0.00828102
0.00137179
-0.00825573
0.00829406
0.00150467
0.00829364
0.00163249
0.00827851
0.00175431
0.0082475
0.00186919
0.0081995
0.0019762
0.00813352
0.00207442
0.00804874
0.00216302
0.00224126
0.00860041
0.00133109
-0.00855971
0.00863218
0.0014729
0.00865379
0.00161088
0.00866395
0.00174415
0.00866134
0.0018718
0.00864462
0.00199291
0.00861252
0.00210653
0.00856381
0.00221173
0.00230762
0.00889242
-0.00884117
0.0089378
0.00897621
0.00900644
0.00171392
0.0090272
0.00185104
0.00903713
0.00198298
0.00903483
0.00210883
0.0090189
0.00222766
0.00233855
0.00931716
0.00935575
0.00938677
0.00940888
0.00942067
0.00710845
0.000970104
0.00712182
0.00108179
0.00711641
0.00118831
0.00128896
0.00748882
0.00092499
0.00751947
0.00105114
0.00753454
0.00117324
0.00129051
0.00782036
0.000869045
0.00786527
0.00100623
0.00789802
0.00114048
0.00127104
0.00811822
0.000806374
0.00817319
0.000951264
0.00821939
0.00109428
0.00123471
0.00839509
0.000740545
0.00845604
0.000890314
0.00851123
0.00103908
0.00118623
0.00866153
0.000674608
0.0087249
0.00878504
)
;

boundaryField
{
    inlet
    {
        type            calculated;
        value           nonuniform 0();
    }
    outlet
    {
        type            calculated;
        value           nonuniform 0();
    }
    cylinder
    {
        type            calculated;
        value           nonuniform 0();
    }
    top
    {
        type            symmetryPlane;
        value           nonuniform 0();
    }
    bottom
    {
        type            symmetryPlane;
        value           nonuniform 0();
    }
    defaultFaces
    {
        type            empty;
        value           nonuniform 0();
    }
    procBoundary26to20
    {
        type            processor;
        value           nonuniform List<scalar> 
28
(
0.000250053
-0.000272449
0.000217236
-5.55495e-05
0.000243331
-1.16912e-05
0.00028082
-0.00028412
0.000279071
-0.000521058
0.000232151
-0.000344107
0.000132323
0.000211053
8.59777e-05
-0.000232143
-0.00051866
-0.000145507
0.000197333
0.000245223
-0.000121744
-0.000322915
-0.000613741
-0.000709072
-0.000326475
-0.000188147
-0.000382627
-0.000512162
)
;
    }
    procBoundary26to25
    {
        type            processor;
        value           nonuniform List<scalar> 
23
(
-0.00238869
-0.00257411
-0.00276374
-0.00295671
-0.00315242
-0.00103864
-0.00116182
-0.00129282
-0.00143167
-0.00157821
-0.00173218
-0.00189319
-0.00206078
0.00079126
-0.00223435
-0.000467036
-0.000498044
-0.000552844
-0.000627815
-0.000717775
-0.000819001
0.000610128
-0.000929276
)
;
    }
    procBoundary26to27
    {
        type            processor;
        value           nonuniform List<scalar> 
17
(
0.000292782
0.000342612
0.000398786
0.00046125
0.000425736
0.000585132
0.000669015
0.000760925
0.000861643
0.000710353
0.001059
0.00118635
0.0013247
0.0014744
0.00112261
0.0017493
0.00192843
)
;
    }
    procBoundary26to31
    {
        type            processor;
        value           nonuniform List<scalar> 8(-0.00335 -0.0070773 -0.00744371 -0.00776442 -0.00805555 -0.00832926 -0.0085956 -0.0088606);
    }
    procBoundary26to32
    {
        type            processor;
        value           nonuniform List<scalar> 
15
(
0.00127984
0.00142753
0.00157247
-0.00927223
0.00166899
0.00181244
0.00195196
0.00208672
0.00221587
0.00233852
0.000826946
0.000978945
0.0011301
0.00892476
0.000610454
)
;
    }
    procBoundary26to33
    {
        type            processor;
        value           nonuniform List<scalar> 9(0.00211967 0.00232317 0.00594231 0.00666064 0.00733087 0.00794459 0.00849745 0.00898797 0.0094207);
    }
}


// ************************************************************************* //
