0.0285166 	0.499829 	-5.29264e-19 	0.905091 	-0.0345808 	-3.50671e-17
