0.255495 	0.438912 	1.36526e-18 	0.529302
0.259111 	0.445124 	1.22223e-18 	0.528209
0.261839 	0.44981 	1.72137e-18 	0.527027
0.266406 	0.457656 	1.84328e-18 	0.525946
0.269567 	0.463086 	2.37683e-18 	0.524825
0.272295 	0.467771 	2.91919e-18 	0.52391
0.277295 	0.476361 	3.69672e-18 	0.523004
0.280022 	0.481047 	4.51934e-18 	0.522216
0.282772 	0.485771 	4.1901e-18 	0.521777
0.28775 	0.494322 	3.59892e-18 	0.521326
0.290478 	0.499008 	3.84708e-18 	0.520657
