0.11487 	0.495143 	-1.25107e-18 	0.468784 	-0.0199629 	8.96398e-17
