0.157454 	0.485771 	-1.32092e-18 	0.541871
0.159487 	0.492041 	3.78815e-19 	0.540075
0.161005 	0.496727 	8.20594e-19 	0.536161
