/*--------------------------------*- C++ -*----------------------------------*\
  =========                 |
  \\      /  F ield         | OpenFOAM: The Open Source CFD Toolbox
   \\    /   O peration     | Website:  https://openfoam.org
    \\  /    A nd           | Version:  7
     \\/     M anipulation  |
\*---------------------------------------------------------------------------*/
FoamFile
{
    version     2.0;
    format      ascii;
    class       volScalarField;
    location    "21";
    object      p;
}
// * * * * * * * * * * * * * * * * * * * * * * * * * * * * * * * * * * * * * //

dimensions      [0 2 -2 0 0 0 0];

internalField   nonuniform List<scalar> 
13200
(
-0.292764
-0.29443
-0.295932
-0.297184
-0.298294
-0.299274
-0.300105
-0.300775
-0.301274
-0.301595
-0.30173
-0.301672
-0.301416
-0.300955
-0.300286
-0.299406
-0.298312
-0.297005
-0.295484
-0.293754
-0.291819
-0.289684
-0.287347
-0.284805
-0.282189
-0.293503
-0.295139
-0.296612
-0.297837
-0.298921
-0.299874
-0.300678
-0.301321
-0.301793
-0.302087
-0.302196
-0.302111
-0.301828
-0.301341
-0.300645
-0.299738
-0.298618
-0.297285
-0.29574
-0.293985
-0.292026
-0.289871
-0.287513
-0.284937
-0.282323
-0.294977
-0.296553
-0.297969
-0.299141
-0.300171
-0.301071
-0.301821
-0.30241
-0.302828
-0.303069
-0.303123
-0.302985
-0.302649
-0.302108
-0.301359
-0.3004
-0.299227
-0.297842
-0.296245
-0.294441
-0.292435
-0.290238
-0.287837
-0.285194
-0.282584
-0.297176
-0.298663
-0.299993
-0.301085
-0.302036
-0.302856
-0.303526
-0.304034
-0.304373
-0.304533
-0.304507
-0.304289
-0.303872
-0.303251
-0.302422
-0.301383
-0.300131
-0.298667
-0.296993
-0.295112
-0.293035
-0.290774
-0.288309
-0.285564
-0.282955
-0.300085
-0.301455
-0.302672
-0.303659
-0.304506
-0.30522
-0.305783
-0.306185
-0.306417
-0.30647
-0.306337
-0.306011
-0.305487
-0.304759
-0.303823
-0.302677
-0.301318
-0.299748
-0.29797
-0.295987
-0.293811
-0.291463
-0.288909
-0.286024
-0.283402
-0.303686
-0.304913
-0.305991
-0.306849
-0.307566
-0.308148
-0.30858
-0.30885
-0.308948
-0.308868
-0.308601
-0.308142
-0.307483
-0.306621
-0.30555
-0.304269
-0.302776
-0.301072
-0.299161
-0.297046
-0.294745
-0.292283
-0.289616
-0.286545
-0.283865
-0.30796
-0.309019
-0.309932
-0.310637
-0.3112
-0.311627
-0.311902
-0.312013
-0.311953
-0.311713
-0.311287
-0.310667
-0.309847
-0.308823
-0.307591
-0.306147
-0.304491
-0.302624
-0.300549
-0.298274
-0.295816
-0.293214
-0.290405
-0.287116
-0.284426
-0.312886
-0.313752
-0.314477
-0.315006
-0.315392
-0.315639
-0.315732
-0.315661
-0.315417
-0.314992
-0.314379
-0.313572
-0.312565
-0.311352
-0.30993
-0.308295
-0.306447
-0.304387
-0.302119
-0.29965
-0.297005
-0.294229
-0.29124
-0.287688
-0.285024
-0.318442
-0.319092
-0.319606
-0.319936
-0.320123
-0.320167
-0.320054
-0.319775
-0.319322
-0.318687
-0.317863
-0.316844
-0.315623
-0.314195
-0.312555
-0.310702
-0.308633
-0.306349
-0.303855
-0.301159
-0.29829
-0.295305
-0.292099
-0.288227
-0.285554
-0.324607
-0.325019
-0.325299
-0.325409
-0.325374
-0.325191
-0.32485
-0.32434
-0.323654
-0.322785
-0.321724
-0.320467
-0.319007
-0.317338
-0.315455
-0.313356
-0.311037
-0.3085
-0.305747
-0.302787
-0.299654
-0.296419
-0.292951
-0.288694
-0.285978
-0.331361
-0.331512
-0.331537
-0.331405
-0.331126
-0.330695
-0.330102
-0.329338
-0.328396
-0.327268
-0.325948
-0.32443
-0.322706
-0.320772
-0.318621
-0.31625
-0.313654
-0.310833
-0.307789
-0.304528
-0.301089
-0.297557
-0.293772
-0.289047
-0.286241
-0.338684
-0.338552
-0.338298
-0.337905
-0.337361
-0.336659
-0.335792
-0.334752
-0.333531
-0.332123
-0.330521
-0.328719
-0.326711
-0.324489
-0.322048
-0.319381
-0.316483
-0.313351
-0.309983
-0.306384
-0.302594
-0.298712
-0.294543
-0.289249
-0.286298
-0.346557
-0.346118
-0.345564
-0.344887
-0.344057
-0.343064
-0.341902
-0.340564
-0.339044
-0.337335
-0.335431
-0.333326
-0.331012
-0.328484
-0.325733
-0.322751
-0.319529
-0.316062
-0.312343
-0.30837
-0.304182
-0.299888
-0.295256
-0.289269
-0.286103
-0.354957
-0.354189
-0.353312
-0.352331
-0.351194
-0.349889
-0.348411
-0.346756
-0.344917
-0.342888
-0.340664
-0.338238
-0.335604
-0.332753
-0.329677
-0.326365
-0.322805
-0.318986
-0.314893
-0.310514
-0.305883
-0.301112
-0.295917
-0.289074
-0.285429
-0.36386
-0.36274
-0.361518
-0.360211
-0.358748
-0.357111
-0.355299
-0.353308
-0.351133
-0.348768
-0.346209
-0.343448
-0.34048
-0.337296
-0.333885
-0.330235
-0.326329
-0.322149
-0.31767
-0.312866
-0.307754
-0.302444
-0.296581
-0.288682
-0.284398
-0.373237
-0.371741
-0.370152
-0.368501
-0.366693
-0.364707
-0.362543
-0.3602
-0.357673
-0.354959
-0.352051
-0.348945
-0.345635
-0.342111
-0.338362
-0.334373
-0.330123
-0.325586
-0.320725
-0.315493
-0.309883
-0.303984
-0.297338
-0.288119
-0.282786
-0.383051
-0.381158
-0.379181
-0.377169
-0.374999
-0.372646
-0.370116
-0.367407
-0.364516
-0.36144
-0.358175
-0.354717
-0.35106
-0.347195
-0.343112
-0.338793
-0.334213
-0.32934
-0.324124
-0.318491
-0.3124
-0.305904
-0.298407
-0.287591
-0.280563
-0.393258
-0.390948
-0.388565
-0.386176
-0.383629
-0.380897
-0.377988
-0.374902
-0.371637
-0.368191
-0.364563
-0.360748
-0.356744
-0.352543
-0.348135
-0.343503
-0.338621
-0.333452
-0.327933
-0.321964
-0.315458
-0.30841
-0.30001
-0.287146
-0.277231
-0.403807
-0.401062
-0.398259
-0.39548
-0.392546
-0.389424
-0.386126
-0.382654
-0.379008
-0.375187
-0.371191
-0.36702
-0.362672
-0.358143
-0.353425
-0.348505
-0.343361
-0.337957
-0.332226
-0.326048
-0.319289
-0.311823
-0.302414
-0.286556
-0.271241
-0.414636
-0.411446
-0.408212
-0.405034
-0.401704
-0.398184
-0.394491
-0.390628
-0.386597
-0.382398
-0.378034
-0.373508
-0.368821
-0.363973
-0.358963
-0.353786
-0.348432
-0.342882
-0.337092
-0.330981
-0.324443
-0.317294
-0.308055
-0.2916
-0.271958
-0.425681
-0.422038
-0.418367
-0.414784
-0.411053
-0.407133
-0.403041
-0.398785
-0.394367
-0.38979
-0.385059
-0.38018
-0.375157
-0.369998
-0.364708
-0.359297
-0.353772
-0.348148
-0.342446
-0.336711
-0.331057
-0.325646
-0.320562
-0.317751
-0.327518
-0.436871
-0.432772
-0.428662
-0.424674
-0.420542
-0.416221
-0.411731
-0.407083
-0.402279
-0.397326
-0.392229
-0.386997
-0.381641
-0.37617
-0.370599
-0.364946
-0.359236
-0.353507
-0.347819
-0.342284
-0.33709
-0.332444
-0.328869
-0.32973
-0.339199
-0.448132
-0.443581
-0.439033
-0.434644
-0.430114
-0.425395
-0.420511
-0.415475
-0.41029
-0.404963
-0.399503
-0.393921
-0.38823
-0.382443
-0.37658
-0.370666
-0.364733
-0.35883
-0.35303
-0.347459
-0.342293
-0.33767
-0.334058
-0.334492
-0.33993
-0.459392
-0.454393
-0.449414
-0.444628
-0.439708
-0.434598
-0.429328
-0.42391
-0.418351
-0.412657
-0.406839
-0.400909
-0.394882
-0.388774
-0.382606
-0.376405
-0.370208
-0.364064
-0.358045
-0.352266
-0.346868
-0.341922
-0.337782
-0.336994
-0.339159
-0.470574
-0.465135
-0.459734
-0.454561
-0.449259
-0.443769
-0.438122
-0.432333
-0.426409
-0.420356
-0.414187
-0.407913
-0.40155
-0.395114
-0.388628
-0.382116
-0.375613
-0.369163
-0.362829
-0.356701
-0.35088
-0.345373
-0.340426
-0.338175
-0.337477
-0.481598
-0.47573
-0.469917
-0.464368
-0.458696
-0.452839
-0.446829
-0.440682
-0.434404
-0.428003
-0.421491
-0.414878
-0.40818
-0.401411
-0.394591
-0.387742
-0.380893
-0.374079
-0.367345
-0.360758
-0.354373
-0.348144
-0.342235
-0.338471
-0.335299
-0.49238
-0.486093
-0.479882
-0.47397
-0.467943
-0.461733
-0.455375
-0.448885
-0.442268
-0.435532
-0.428686
-0.42174
-0.414707
-0.4076
-0.400432
-0.393222
-0.385989
-0.378757
-0.371554
-0.364419
-0.357371
-0.350326
-0.343391
-0.338144
-0.332819
-0.502826
-0.496133
-0.489538
-0.483278
-0.476913
-0.470368
-0.463679
-0.456863
-0.449923
-0.442864
-0.435695
-0.428424
-0.421057
-0.413605
-0.406077
-0.398481
-0.390829
-0.383132
-0.3754
-0.36765
-0.35987
-0.351953
-0.343972
-0.337296
-0.330058
-0.512832
-0.505749
-0.498784
-0.492195
-0.485509
-0.478648
-0.471648
-0.464525
-0.457279
-0.449914
-0.442433
-0.434842
-0.427144
-0.419341
-0.411437
-0.403434
-0.395331
-0.387127
-0.378818
-0.370399
-0.36184
-0.35302
-0.343995
-0.335951
-0.326995
-0.522284
-0.514825
-0.507511
-0.50061
-0.493625
-0.48647
-0.47918
-0.47177
-0.464237
-0.45658
-0.4488
-0.440896
-0.432867
-0.424709
-0.416416
-0.407983
-0.3994
-0.390653
-0.381726
-0.372599
-0.363228
-0.353491
-0.343437
-0.334088
-0.323586
-0.531051
-0.523238
-0.515594
-0.508405
-0.501144
-0.493717
-0.486162
-0.478486
-0.470685
-0.462754
-0.454687
-0.446477
-0.438118
-0.429597
-0.420904
-0.412021
-0.40293
-0.39361
-0.384032
-0.374167
-0.363964
-0.353309
-0.34225
-0.331662
-0.319771
-0.538993
-0.530847
-0.5229
-0.515447
-0.507935
-0.500264
-0.492467
-0.48455
-0.476503
-0.468313
-0.459971
-0.451463
-0.442775
-0.433887
-0.424779
-0.415429
-0.405808
-0.395887
-0.385633
-0.37501
-0.363966
-0.352401
-0.340367
-0.32861
-0.315476
-0.545955
-0.537505
-0.529282
-0.521594
-0.51386
-0.505973
-0.497962
-0.489829
-0.481556
-0.473127
-0.464523
-0.455724
-0.446707
-0.437447
-0.427915
-0.418081
-0.40791
-0.397369
-0.386419
-0.375026
-0.363141
-0.350682
-0.337709
-0.324855
-0.310618
-0.551772
-0.543051
-0.534586
-0.526694
-0.518771
-0.510698
-0.502503
-0.49418
-0.485705
-0.477055
-0.468202
-0.45912
-0.449777
-0.44014
-0.430174
-0.419842
-0.409106
-0.397929
-0.386272
-0.374105
-0.361387
-0.348059
-0.334192
-0.320315
-0.305108
-0.556272
-0.547317
-0.538648
-0.530588
-0.52251
-0.514286
-0.505938
-0.497453
-0.488801
-0.479949
-0.470862
-0.461504
-0.451838
-0.441821
-0.431414
-0.420575
-0.409263
-0.397439
-0.385072
-0.372135
-0.358602
-0.344438
-0.329725
-0.314905
-0.298855
-0.559276
-0.55013
-0.541299
-0.53311
-0.524915
-0.516577
-0.508109
-0.499493
-0.490689
-0.481655
-0.472348
-0.462725
-0.452739
-0.442343
-0.43149
-0.420137
-0.408242
-0.395771
-0.382697
-0.369004
-0.354682
-0.339723
-0.32422
-0.308539
-0.291769
-0.560602
-0.551312
-0.542366
-0.534092
-0.525821
-0.517407
-0.508856
-0.50014
-0.49121
-0.482016
-0.472506
-0.462628
-0.452328
-0.441553
-0.430255
-0.418387
-0.40591
-0.392796
-0.379027
-0.3646
-0.349526
-0.333821
-0.317592
-0.301136
-0.283767
-0.560066
-0.550688
-0.541678
-0.533363
-0.525061
-0.516612
-0.508015
-0.499232
-0.490205
-0.480874
-0.471178
-0.461057
-0.450451
-0.439303
-0.427563
-0.415184
-0.402133
-0.38839
-0.373947
-0.35882
-0.343037
-0.326646
-0.309762
-0.292621
-0.274772
-0.557492
-0.548081
-0.539062
-0.530758
-0.52247
-0.51403
-0.505426
-0.496611
-0.487515
-0.478071
-0.468208
-0.457858
-0.446958
-0.435447
-0.423273
-0.410395
-0.396786
-0.382434
-0.36735
-0.351565
-0.33513
-0.318119
-0.300658
-0.282927
-0.264716
-0.552706
-0.543325
-0.534355
-0.526112
-0.517887
-0.5095
-0.50093
-0.492118
-0.482986
-0.473453
-0.463444
-0.452885
-0.441705
-0.429844
-0.417252
-0.403893
-0.389749
-0.374822
-0.359138
-0.342748
-0.325726
-0.308173
-0.290221
-0.271999
-0.253543
-0.545545
-0.536259
-0.5274
-0.519271
-0.511159
-0.502872
-0.494377
-0.485606
-0.476468
-0.466875
-0.456744
-0.445995
-0.434555
-0.422365
-0.409377
-0.395563
-0.380917
-0.365457
-0.349226
-0.332295
-0.314761
-0.296752
-0.278402
-0.259792
-0.241208
-0.535861
-0.526738
-0.518052
-0.510093
-0.502144
-0.494004
-0.485627
-0.476934
-0.467824
-0.458201
-0.447974
-0.43706
-0.425384
-0.41289
-0.399535
-0.385302
-0.370198
-0.354257
-0.337541
-0.320144
-0.302183
-0.283812
-0.265165
-0.246274
-0.227678
-0.523521
-0.51463
-0.506182
-0.498448
-0.490713
-0.482768
-0.474552
-0.465976
-0.456929
-0.447307
-0.437014
-0.425963
-0.414082
-0.401315
-0.387632
-0.373024
-0.357514
-0.341155
-0.32403
-0.306249
-0.287957
-0.269325
-0.250486
-0.231425
-0.212934
-0.508412
-0.499822
-0.491676
-0.484224
-0.476755
-0.469052
-0.461041
-0.452621
-0.443673
-0.434087
-0.42376
-0.412606
-0.400555
-0.387556
-0.373589
-0.35866
-0.342808
-0.326104
-0.308652
-0.290582
-0.272059
-0.253275
-0.234356
-0.215239
-0.196966
-0.490442
-0.482224
-0.474445
-0.467329
-0.460177
-0.452762
-0.445
-0.436776
-0.427966
-0.418451
-0.408128
-0.396909
-0.384729
-0.371546
-0.35735
-0.342162
-0.32604
-0.309074
-0.291387
-0.27313
-0.254485
-0.235663
-0.216779
-0.197719
-0.179777
-0.469545
-0.461768
-0.454419
-0.447693
-0.440908
-0.433829
-0.426358
-0.418372
-0.409738
-0.400334
-0.390055
-0.378814
-0.366553
-0.35324
-0.338877
-0.323502
-0.307191
-0.290054
-0.272233
-0.253897
-0.235245
-0.216502
-0.197772
-0.178887
-0.161387
-0.445684
-0.438415
-0.431557
-0.425273
-0.418903
-0.412205
-0.405068
-0.397361
-0.388944
-0.379692
-0.3695
-0.358287
-0.345999
-0.332617
-0.318157
-0.302675
-0.286264
-0.269054
-0.251206
-0.232905
-0.214364
-0.195821
-0.177365
-0.158774
-0.141821
-0.418847
-0.412151
-0.405842
-0.400051
-0.394141
-0.387868
-0.381108
-0.373721
-0.365564
-0.356508
-0.346451
-0.335318
-0.323063
-0.30968
-0.295201
-0.279698
-0.263284
-0.246107
-0.228344
-0.210194
-0.191882
-0.173657
-0.155593
-0.137405
-0.121048
-0.389055
-0.382992
-0.377289
-0.372036
-0.366631
-0.360825
-0.354483
-0.347458
-0.339603
-0.33079
-0.32092
-0.309924
-0.297768
-0.284459
-0.270044
-0.254614
-0.238298
-0.221263
-0.203701
-0.185821
-0.167859
-0.150069
-0.132511
-0.114801
-0.0989722
-0.356359
-0.350987
-0.345939
-0.341269
-0.336409
-0.33111
-0.325227
-0.318605
-0.311096
-0.302575
-0.292947
-0.282151
-0.270164
-0.257008
-0.242747
-0.227488
-0.211377
-0.194597
-0.177353
-0.159864
-0.142372
-0.125139
-0.108201
-0.0910992
-0.0760306
-0.320841
-0.316211
-0.311866
-0.307819
-0.303543
-0.298789
-0.293402
-0.287225
-0.280108
-0.27193
-0.262601
-0.25207
-0.240328
-0.227409
-0.213395
-0.198409
-0.182614
-0.166204
-0.149396
-0.132416
-0.115512
-0.0989474
-0.0827209
-0.0663094
-0.0523164
-0.282614
-0.278774
-0.275174
-0.271786
-0.268127
-0.263954
-0.259102
-0.25341
-0.24673
-0.238946
-0.229977
-0.219781
-0.208361
-0.195769
-0.182099
-0.167491
-0.152121
-0.136197
-0.119942
-0.103588
-0.0873839
-0.071594
-0.0561846
-0.0405654
-0.0276018
-0.241823
-0.238813
-0.235994
-0.233297
-0.230288
-0.226727
-0.222445
-0.217279
-0.211083
-0.203747
-0.195199
-0.185409
-0.174394
-0.162218
-0.148992
-0.134869
-0.120037
-0.104712
-0.0891251
-0.0735078
-0.0581095
-0.0431931
-0.0286949
-0.0139473
-0.00201123
-0.198638
-0.196494
-0.194489
-0.19251
-0.190178
-0.187261
-0.183583
-0.17898
-0.173314
-0.166481
-0.158418
-0.149107
-0.138579
-0.126912
-0.11423
-0.100699
-0.0865165
-0.0719051
-0.0570969
-0.0423232
-0.0278299
-0.0138765
-0.000370156
0.0134443
0.0243507
-0.153261
-0.152012
-0.150847
-0.149609
-0.147979
-0.145732
-0.14269
-0.138689
-0.133599
-0.127322
-0.119807
-0.111049
-0.101092
-0.0900271
-0.0779909
-0.0651586
-0.051736
-0.0379487
-0.0240284
-0.0102014
0.00329347
0.0162025
0.028647
0.0414824
0.0513931
-0.105915
-0.105586
-0.105282
-0.104805
-0.103897
-0.102345
-0.0999674
-0.0966054
-0.0921338
-0.0864669
-0.0795641
-0.071433
-0.0621301
-0.0517596
-0.0404687
-0.0284411
-0.0158873
-0.00303383
0.00989132
0.0226703
0.0350752
0.0468614
0.0581787
0.0700017
0.0790018
-0.0568512
-0.0574603
-0.0580334
-0.0583325
-0.0581635
-0.0573274
-0.0556411
-0.0529511
-0.049141
-0.0441358
-0.0379068
-0.0304741
-0.021907
-0.0123211
-0.00187319
0.00924666
0.0208249
0.0326367
0.0444601
0.0560885
0.0673092
0.0778932
0.0880208
0.098792
0.106943
-0.0063406
-0.00789995
-0.00936173
-0.0104474
-0.0110307
-0.010928
-0.00995675
-0.00797001
-0.00486112
-0.000566706
0.00492961
0.0115951
0.0193486
0.0280638
0.0375758
0.0476891
0.058189
0.0688536
0.0794686
0.0898399
0.0997765
0.109084
0.117973
0.127603
0.134932
0.045326
0.0428091
0.0404525
0.0385737
0.0372288
0.0365842
0.0368201
0.0380759
0.0404473
0.0439856
0.0486945
0.0545291
0.0613968
0.0691617
0.0776516
0.0866668
0.0959917
0.105407
0.114703
0.123695
0.13222
0.140144
0.147657
0.155771
0.162611
0.0978397
0.0943635
0.091111
0.088437
0.0863251
0.0849231
0.0844073
0.0849085
0.0865106
0.0892522
0.0931248
0.0980715
0.103989
0.110733
0.118126
0.125963
0.134028
0.142102
0.149971
0.157441
0.164361
0.170626
0.17611
0.181011
0.186483
0.150876
0.146445
0.1423
0.138833
0.135953
0.133788
0.132509
0.132236
0.133042
0.134953
0.137947
0.141957
0.146871
0.152536
0.158771
0.16537
0.172117
0.178791
0.185173
0.191052
0.196264
0.200643
0.203221
0.201724
0.202533
0.204099
0.198722
0.193695
0.189442
0.185797
0.182867
0.180816
0.179756
0.179745
0.180796
0.182878
0.185912
0.189779
0.194321
0.199355
0.204677
0.210077
0.215342
0.220266
0.224659
0.2284
0.23139
0.232765
0.230936
0.233524
0.257162
0.250855
0.24496
0.239931
0.235529
0.231837
0.229013
0.227157
0.226314
0.226486
0.227629
0.229656
0.232442
0.235828
0.239629
0.243647
0.247679
0.251527
0.255001
0.257936
0.260243
0.26185
0.262047
0.259881
0.262604
0.309714
0.302498
0.295754
0.289966
0.284819
0.280373
0.276779
0.274123
0.27244
0.271718
0.271904
0.272904
0.274587
0.276792
0.279339
0.282035
0.284688
0.287113
0.289139
0.290626
0.291506
0.291721
0.290664
0.287697
0.289477
0.361399
0.353302
0.345733
0.339207
0.333332
0.328145
0.323788
0.320336
0.317811
0.316189
0.315409
0.315369
0.315935
0.316948
0.31823
0.319596
0.320866
0.321869
0.322454
0.3225
0.321958
0.320785
0.318455
0.314507
0.314974
0.411867
0.40292
0.394557
0.387316
0.380734
0.374824
0.369717
0.36548
0.362117
0.359598
0.35785
0.356768
0.356216
0.356034
0.35605
0.356089
0.355982
0.355573
0.354727
0.353342
0.351384
0.348821
0.345197
0.340177
0.339179
0.46077
0.45101
0.441887
0.433961
0.426698
0.420086
0.414249
0.40924
0.405054
0.401646
0.39894
0.396824
0.395161
0.393793
0.392556
0.391282
0.389814
0.388012
0.385755
0.382959
0.3796
0.375655
0.370733
0.364596
0.362066
0.507771
0.497239
0.487394
0.478815
0.4709
0.463615
0.457072
0.451314
0.446323
0.442046
0.438399
0.435267
0.432512
0.42998
0.427513
0.424952
0.422153
0.418989
0.415354
0.411178
0.406447
0.401147
0.394944
0.387682
0.383602
0.552542
0.541284
0.530759
0.521564
0.513032
0.505104
0.497886
0.491406
0.485638
0.480519
0.475958
0.471838
0.468022
0.464359
0.460698
0.45689
0.452802
0.448319
0.443352
0.437842
0.431784
0.425171
0.417725
0.409357
0.403742
0.594772
0.582838
0.571678
0.561907
0.552794
0.544261
0.536401
0.529235
0.522724
0.516798
0.51136
0.506292
0.501456
0.496708
0.491901
0.486897
0.481575
0.475832
0.469591
0.462807
0.455481
0.447615
0.438981
0.429545
0.422439
0.634168
0.621609
0.609864
0.599558
0.589906
0.580807
0.572347
0.564535
0.557322
0.550632
0.544364
0.538397
0.532594
0.526817
0.520925
0.51479
0.508302
0.501369
0.493928
0.485942
0.477421
0.468374
0.458623
0.448173
0.439643
0.670454
0.657326
0.645045
0.634251
0.624104
0.614484
0.605468
0.597056
0.589191
0.581788
0.574745
0.567937
0.561231
0.554493
0.547589
0.5404
0.532825
0.524786
0.516227
0.507126
0.497495
0.487352
0.476566
0.46517
0.455304
0.703378
0.689737
0.676975
0.66574
0.655145
0.645052
0.63553
0.62657
0.618106
0.610051
0.602294
0.594714
0.58718
0.579558
0.571726
0.56357
0.555001
0.545948
0.536369
0.526248
0.515604
0.504462
0.492732
0.48047
0.469373
0.732708
0.718615
0.705426
0.693801
0.682808
0.672294
0.662319
0.652867
0.643867
0.635223
0.626826
0.618551
0.610269
0.601853
0.593185
0.584161
0.574698
0.564736
0.554242
0.543208
0.531658
0.519621
0.507049
0.494009
0.481803
0.75824
0.743756
0.730199
0.718235
0.706896
0.696015
0.685645
0.675763
0.666292
0.657133
0.648171
0.639286
0.630348
0.621235
0.611834
0.602048
0.591802
0.581045
0.56975
0.557917
0.545574
0.532758
0.519452
0.505731
0.492549
0.779796
0.764983
0.751117
0.738868
0.727238
0.716047
0.705342
0.695096
0.685225
0.675627
0.666186
0.656781
0.647285
0.637579
0.627555
0.617122
0.606212
0.59478
0.582806
0.570297
0.557284
0.543808
0.529881
0.515584
0.501571
0.797225
0.782147
0.768032
0.755554
0.743689
0.732246
0.721271
0.710729
0.700533
0.690578
0.680748
0.67092
0.66097
0.650782
0.640251
0.629293
0.617843
0.605863
0.59334
0.580283
0.566726
0.552716
0.538287
0.523522
0.508834
0.810404
0.795127
0.780824
0.768173
0.75613
0.744498
0.733317
0.722551
0.712108
0.701882
0.691756
0.681607
0.671313
0.660758
0.649843
0.638486
0.626627
0.614232
0.601292
0.587819
0.573851
0.559437
0.544629
0.529509
0.514308
0.819242
0.803832
0.789403
0.776636
0.764475
0.752715
0.741396
0.730479
0.719871
0.709463
0.699137
0.688772
0.678246
0.667445
0.656271
0.644646
0.632512
0.619839
0.606618
0.592867
0.578622
0.563937
0.548875
0.533517
0.51797
0.823677
0.8082
0.793708
0.780883
0.768661
0.756838
0.74545
0.734457
0.723765
0.713266
0.70284
0.692366
0.681723
0.670799
0.659496
0.647735
0.635464
0.62265
0.609288
0.595397
0.581014
0.566193
0.551003
0.535525
0.519805
0.823677
0.8082
0.793708
0.780883
0.768661
0.756838
0.74545
0.734457
0.723765
0.713266
0.70284
0.692366
0.681723
0.670799
0.659496
0.647735
0.635464
0.62265
0.609288
0.595397
0.581014
0.566193
0.551003
0.535525
0.519805
0.819242
0.803832
0.789403
0.776636
0.764475
0.752715
0.741396
0.730479
0.719871
0.709463
0.699137
0.688772
0.678246
0.667445
0.656271
0.644646
0.632512
0.619839
0.606618
0.592867
0.578622
0.563937
0.548875
0.533517
0.51797
0.810404
0.795127
0.780824
0.768173
0.75613
0.744498
0.733317
0.722551
0.712108
0.701882
0.691756
0.681607
0.671313
0.660758
0.649843
0.638486
0.626627
0.614232
0.601292
0.587819
0.573851
0.559437
0.544629
0.529509
0.514308
0.797225
0.782147
0.768032
0.755554
0.743689
0.732246
0.721271
0.710729
0.700533
0.690578
0.680748
0.67092
0.66097
0.650782
0.640251
0.629293
0.617843
0.605863
0.59334
0.580283
0.566726
0.552716
0.538287
0.523522
0.508834
0.779796
0.764983
0.751117
0.738868
0.727238
0.716047
0.705342
0.695096
0.685225
0.675627
0.666186
0.656781
0.647285
0.637579
0.627555
0.617122
0.606212
0.59478
0.582806
0.570297
0.557284
0.543808
0.529881
0.515584
0.501571
0.75824
0.743756
0.730199
0.718235
0.706896
0.696015
0.685645
0.675763
0.666292
0.657133
0.648171
0.639286
0.630348
0.621235
0.611834
0.602048
0.591802
0.581045
0.56975
0.557917
0.545574
0.532758
0.519452
0.505731
0.492549
0.732708
0.718615
0.705426
0.693801
0.682808
0.672294
0.662319
0.652867
0.643867
0.635223
0.626826
0.618551
0.610269
0.601853
0.593185
0.584161
0.574698
0.564736
0.554242
0.543208
0.531658
0.519621
0.507049
0.494009
0.481803
0.703378
0.689737
0.676975
0.66574
0.655145
0.645052
0.63553
0.62657
0.618106
0.610051
0.602294
0.594714
0.58718
0.579558
0.571726
0.56357
0.555001
0.545948
0.536369
0.526248
0.515604
0.504461
0.492732
0.48047
0.469373
0.670454
0.657326
0.645045
0.634251
0.624104
0.614484
0.605468
0.597056
0.589191
0.581788
0.574745
0.567937
0.561231
0.554493
0.547589
0.5404
0.532825
0.524786
0.516227
0.507126
0.497495
0.487352
0.476566
0.46517
0.455304
0.634168
0.621609
0.609864
0.599558
0.589906
0.580807
0.572347
0.564535
0.557322
0.550632
0.544364
0.538397
0.532594
0.526817
0.520925
0.51479
0.508302
0.501369
0.493928
0.485942
0.477421
0.468374
0.458623
0.448173
0.439643
0.594772
0.582838
0.571678
0.561906
0.552794
0.544261
0.536401
0.529235
0.522724
0.516798
0.51136
0.506292
0.501456
0.496708
0.491901
0.486897
0.481575
0.475832
0.469591
0.462807
0.455481
0.447615
0.438981
0.429545
0.422439
0.552542
0.541284
0.530759
0.521564
0.513032
0.505104
0.497886
0.491406
0.485638
0.480519
0.475958
0.471838
0.468022
0.464359
0.460698
0.45689
0.452802
0.448319
0.443352
0.437842
0.431784
0.425171
0.417725
0.409357
0.403742
0.507771
0.497239
0.487394
0.478815
0.4709
0.463615
0.457072
0.451314
0.446323
0.442046
0.438399
0.435267
0.432512
0.42998
0.427513
0.424952
0.422153
0.418989
0.415354
0.411178
0.406447
0.401147
0.394944
0.387682
0.383601
0.46077
0.45101
0.441887
0.433961
0.426698
0.420086
0.414249
0.40924
0.405054
0.401646
0.39894
0.396824
0.395161
0.393793
0.392556
0.391282
0.389814
0.388012
0.385755
0.382959
0.3796
0.375655
0.370733
0.364596
0.362066
0.411867
0.40292
0.394557
0.387316
0.380734
0.374824
0.369717
0.36548
0.362117
0.359598
0.35785
0.356768
0.356216
0.356034
0.35605
0.356089
0.355982
0.355573
0.354727
0.353342
0.351384
0.348821
0.345197
0.340177
0.339179
0.361399
0.353302
0.345733
0.339207
0.333332
0.328145
0.323788
0.320336
0.317811
0.316189
0.315409
0.315369
0.315935
0.316948
0.31823
0.319596
0.320866
0.321869
0.322454
0.3225
0.321958
0.320785
0.318455
0.314507
0.314974
0.309714
0.302498
0.295754
0.289966
0.284819
0.280373
0.276779
0.274123
0.27244
0.271718
0.271904
0.272904
0.274587
0.276792
0.279339
0.282035
0.284688
0.287113
0.289139
0.290626
0.291506
0.291721
0.290663
0.287697
0.289477
0.257162
0.250855
0.24496
0.239931
0.235529
0.231837
0.229013
0.227157
0.226314
0.226486
0.227629
0.229656
0.232442
0.235828
0.239629
0.243647
0.247679
0.251527
0.255001
0.257936
0.260243
0.26185
0.262047
0.259881
0.262604
0.204099
0.198722
0.193695
0.189442
0.185797
0.182867
0.180816
0.179756
0.179745
0.180796
0.182878
0.185912
0.189779
0.194321
0.199355
0.204677
0.210077
0.215342
0.220266
0.224659
0.2284
0.23139
0.232765
0.230936
0.233524
0.150876
0.146445
0.1423
0.138833
0.135953
0.133788
0.132509
0.132236
0.133042
0.134953
0.137947
0.141957
0.146871
0.152536
0.158771
0.16537
0.172117
0.178791
0.185173
0.191052
0.196264
0.200643
0.203221
0.201724
0.202533
0.0978397
0.0943635
0.091111
0.088437
0.0863251
0.0849231
0.0844073
0.0849085
0.0865106
0.0892522
0.0931248
0.0980715
0.103989
0.110733
0.118126
0.125963
0.134028
0.142102
0.149971
0.157441
0.164361
0.170626
0.17611
0.181011
0.186483
0.045326
0.0428091
0.0404525
0.0385737
0.0372288
0.0365842
0.0368201
0.0380759
0.0404473
0.0439855
0.0486945
0.0545291
0.0613968
0.0691617
0.0776516
0.0866668
0.0959917
0.105407
0.114703
0.123695
0.13222
0.140144
0.147657
0.155771
0.162611
-0.00634061
-0.00789995
-0.00936173
-0.0104474
-0.0110307
-0.010928
-0.00995676
-0.00797002
-0.00486114
-0.000566719
0.0049296
0.0115951
0.0193486
0.0280638
0.0375757
0.0476891
0.058189
0.0688536
0.0794686
0.0898399
0.0997765
0.109084
0.117973
0.127603
0.134932
-0.0568512
-0.0574603
-0.0580334
-0.0583325
-0.0581635
-0.0573275
-0.0556411
-0.0529511
-0.049141
-0.0441358
-0.0379068
-0.0304741
-0.0219071
-0.0123211
-0.0018732
0.00924665
0.0208249
0.0326367
0.0444601
0.0560885
0.0673092
0.0778932
0.0880208
0.098792
0.106943
-0.105915
-0.105586
-0.105282
-0.104805
-0.103897
-0.102345
-0.0999674
-0.0966054
-0.0921338
-0.0864669
-0.0795641
-0.071433
-0.0621301
-0.0517596
-0.0404687
-0.0284411
-0.0158873
-0.00303384
0.00989132
0.0226703
0.0350752
0.0468614
0.0581787
0.0700017
0.0790018
-0.153261
-0.152012
-0.150847
-0.149609
-0.147979
-0.145732
-0.14269
-0.138689
-0.133599
-0.127322
-0.119807
-0.111049
-0.101092
-0.0900271
-0.0779909
-0.0651586
-0.051736
-0.0379487
-0.0240284
-0.0102014
0.00329347
0.0162025
0.028647
0.0414824
0.0513931
-0.198638
-0.196494
-0.194489
-0.19251
-0.190178
-0.187261
-0.183583
-0.17898
-0.173314
-0.166481
-0.158418
-0.149107
-0.138579
-0.126912
-0.11423
-0.100699
-0.0865166
-0.0719051
-0.0570969
-0.0423232
-0.0278299
-0.0138765
-0.000370159
0.0134443
0.0243507
-0.241823
-0.238813
-0.235994
-0.233297
-0.230288
-0.226727
-0.222445
-0.217279
-0.211083
-0.203747
-0.195199
-0.185409
-0.174394
-0.162218
-0.148992
-0.134869
-0.120037
-0.104712
-0.0891251
-0.0735078
-0.0581095
-0.0431931
-0.0286949
-0.0139473
-0.00201123
-0.282614
-0.278774
-0.275174
-0.271786
-0.268127
-0.263954
-0.259102
-0.25341
-0.24673
-0.238947
-0.229977
-0.219781
-0.208361
-0.195769
-0.182099
-0.167491
-0.152121
-0.136197
-0.119942
-0.103588
-0.0873839
-0.071594
-0.0561846
-0.0405654
-0.0276018
-0.320841
-0.316211
-0.311866
-0.307819
-0.303543
-0.298789
-0.293403
-0.287225
-0.280108
-0.27193
-0.262601
-0.25207
-0.240328
-0.227409
-0.213395
-0.198409
-0.182614
-0.166204
-0.149396
-0.132416
-0.115512
-0.0989474
-0.0827209
-0.0663094
-0.0523164
-0.356359
-0.350987
-0.345939
-0.341269
-0.336409
-0.33111
-0.325227
-0.318605
-0.311096
-0.302576
-0.292947
-0.282151
-0.270164
-0.257008
-0.242747
-0.227488
-0.211377
-0.194597
-0.177353
-0.159864
-0.142372
-0.125139
-0.108201
-0.0910992
-0.0760306
-0.389055
-0.382992
-0.377289
-0.372036
-0.366631
-0.360825
-0.354483
-0.347458
-0.339603
-0.33079
-0.32092
-0.309924
-0.297768
-0.284459
-0.270044
-0.254614
-0.238298
-0.221263
-0.203701
-0.185821
-0.167859
-0.150069
-0.132511
-0.114802
-0.0989722
-0.418847
-0.412151
-0.405842
-0.400051
-0.394141
-0.387868
-0.381108
-0.373721
-0.365564
-0.356508
-0.346451
-0.335318
-0.323063
-0.30968
-0.295201
-0.279698
-0.263284
-0.246107
-0.228344
-0.210194
-0.191882
-0.173657
-0.155593
-0.137405
-0.121048
-0.445684
-0.438415
-0.431557
-0.425273
-0.418903
-0.412205
-0.405069
-0.397361
-0.388944
-0.379692
-0.3695
-0.358287
-0.345999
-0.332617
-0.318157
-0.302675
-0.286264
-0.269054
-0.251206
-0.232905
-0.214364
-0.195821
-0.177365
-0.158774
-0.141821
-0.469545
-0.461768
-0.454419
-0.447693
-0.440908
-0.433829
-0.426358
-0.418372
-0.409738
-0.400334
-0.390055
-0.378814
-0.366553
-0.35324
-0.338877
-0.323502
-0.307191
-0.290054
-0.272233
-0.253897
-0.235245
-0.216502
-0.197772
-0.178887
-0.161387
-0.490442
-0.482224
-0.474445
-0.467329
-0.460177
-0.452762
-0.445
-0.436776
-0.427966
-0.418451
-0.408128
-0.396909
-0.384729
-0.371546
-0.35735
-0.342162
-0.32604
-0.309074
-0.291387
-0.27313
-0.254485
-0.235663
-0.216779
-0.197719
-0.179777
-0.508412
-0.499822
-0.491676
-0.484224
-0.476755
-0.469052
-0.461041
-0.452621
-0.443673
-0.434087
-0.42376
-0.412606
-0.400555
-0.387556
-0.373589
-0.35866
-0.342808
-0.326104
-0.308652
-0.290582
-0.272059
-0.253275
-0.234356
-0.215239
-0.196966
-0.523521
-0.51463
-0.506182
-0.498448
-0.490713
-0.482768
-0.474552
-0.465976
-0.456929
-0.447307
-0.437014
-0.425963
-0.414082
-0.401315
-0.387632
-0.373024
-0.357514
-0.341155
-0.32403
-0.306249
-0.287957
-0.269325
-0.250486
-0.231425
-0.212934
-0.535861
-0.526738
-0.518052
-0.510093
-0.502144
-0.494004
-0.485627
-0.476934
-0.467824
-0.458201
-0.447974
-0.43706
-0.425384
-0.41289
-0.399535
-0.385302
-0.370198
-0.354257
-0.337541
-0.320144
-0.302183
-0.283812
-0.265165
-0.246274
-0.227678
-0.545545
-0.536259
-0.5274
-0.519272
-0.511159
-0.502872
-0.494377
-0.485606
-0.476468
-0.466875
-0.456744
-0.445995
-0.434555
-0.422365
-0.409377
-0.395563
-0.380917
-0.365457
-0.349226
-0.332295
-0.314761
-0.296752
-0.278402
-0.259792
-0.241208
-0.552706
-0.543325
-0.534355
-0.526112
-0.517887
-0.5095
-0.50093
-0.492118
-0.482986
-0.473453
-0.463444
-0.452885
-0.441705
-0.429844
-0.417252
-0.403893
-0.389749
-0.374822
-0.359138
-0.342748
-0.325726
-0.308173
-0.290221
-0.271999
-0.253543
-0.557492
-0.548081
-0.539062
-0.530758
-0.52247
-0.51403
-0.505426
-0.496611
-0.487515
-0.478071
-0.468208
-0.457858
-0.446958
-0.435447
-0.423273
-0.410395
-0.396786
-0.382434
-0.36735
-0.351565
-0.33513
-0.318119
-0.300658
-0.282927