/*--------------------------------*- C++ -*----------------------------------*\
  =========                 |
  \\      /  F ield         | OpenFOAM: The Open Source CFD Toolbox
   \\    /   O peration     | Website:  https://openfoam.org
    \\  /    A nd           | Version:  7
     \\/     M anipulation  |
\*---------------------------------------------------------------------------*/
FoamFile
{
    version     2.0;
    format      ascii;
    class       volScalarField;
    location    "4";
    object      p;
}
// * * * * * * * * * * * * * * * * * * * * * * * * * * * * * * * * * * * * * //

dimensions      [0 2 -2 0 0 0 0];

internalField   nonuniform List<scalar> 
15600
(
-0.349148
-0.350123
-0.351069
-0.351922
-0.352742
-0.353541
-0.35431
-0.355045
-0.355741
-0.356393
-0.356998
-0.35755
-0.358046
-0.358481
-0.358849
-0.359147
-0.35937
-0.359513
-0.359571
-0.359539
-0.359414
-0.35919
-0.358863
-0.35843
-0.357885
-0.357225
-0.356445
-0.355543
-0.354515
-0.353358
-0.352069
-0.350646
-0.349088
-0.347391
-0.345557
-0.343583
-0.341468
-0.339197
-0.33677
-0.334344
-0.350048
-0.351004
-0.35193
-0.352765
-0.353567
-0.354347
-0.355098
-0.355814
-0.356491
-0.357124
-0.357709
-0.358243
-0.358719
-0.359134
-0.359484
-0.359762
-0.359965
-0.360088
-0.360127
-0.360076
-0.359931
-0.359688
-0.359342
-0.358889
-0.358325
-0.357646
-0.356847
-0.355926
-0.35488
-0.353704
-0.352397
-0.350957
-0.349382
-0.347669
-0.34582
-0.343833
-0.341708
-0.339423
-0.336973
-0.334583
-0.35184
-0.352757
-0.353644
-0.354443
-0.355208
-0.355951
-0.356665
-0.357344
-0.357983
-0.358578
-0.359126
-0.359621
-0.360059
-0.360435
-0.360746
-0.360986
-0.36115
-0.361234
-0.361234
-0.361144
-0.360961
-0.360679
-0.360294
-0.359803
-0.3592
-0.358483
-0.357646
-0.356687
-0.355603
-0.354391
-0.353048
-0.351572
-0.349963
-0.348218
-0.346337
-0.344324
-0.342177
-0.339863
-0.337364
-0.335047
-0.354505
-0.355363
-0.356193
-0.356938
-0.35765
-0.358339
-0.358998
-0.359621
-0.360204
-0.360743
-0.361234
-0.361672
-0.362053
-0.362373
-0.362626
-0.362808
-0.362914
-0.36294
-0.362882
-0.362734
-0.362492
-0.362152
-0.36171
-0.36116
-0.3605
-0.359724
-0.358831
-0.357815
-0.356674
-0.355406
-0.354008
-0.352478
-0.350816
-0.349021
-0.347094
-0.345039
-0.342859
-0.340503
-0.33793
-0.335711
-0.358015
-0.358799
-0.359554
-0.360229
-0.360871
-0.361488
-0.362075
-0.362626
-0.363136
-0.363601
-0.364017
-0.364381
-0.364686
-0.36493
-0.365107
-0.365212
-0.365242
-0.365191
-0.365055
-0.36483
-0.364511
-0.364094
-0.363574
-0.362947
-0.362209
-0.361356
-0.360385
-0.359293
-0.358076
-0.356732
-0.355259
-0.353656
-0.351923
-0.350059
-0.348066
-0.345952
-0.343726
-0.341317
-0.338618
-0.336429
-0.362338
-0.363031
-0.363696
-0.364286
-0.364842
-0.365373
-0.365872
-0.366333
-0.366753
-0.367128
-0.367453
-0.367724
-0.367936
-0.368086
-0.368169
-0.36818
-0.368114
-0.367968
-0.367737
-0.367415
-0.367
-0.366486
-0.365869
-0.365145
-0.36431
-0.36336
-0.362292
-0.361103
-0.359789
-0.358349
-0.356781
-0.355085
-0.353259
-0.351305
-0.349223
-0.347027
-0.344727
-0.342229
-0.33926
-0.336594
-0.367438
-0.368026
-0.368585
-0.369076
-0.369533
-0.369962
-0.370358
-0.370715
-0.37103
-0.371297
-0.371515
-0.371677
-0.37178
-0.371819
-0.37179
-0.371688
-0.37151
-0.37125
-0.370904
-0.370468
-0.369938
-0.369308
-0.368575
-0.367735
-0.366783
-0.365716
-0.364531
-0.363225
-0.361794
-0.360238
-0.358554
-0.356743
-0.354806
-0.352744
-0.350562
-0.348279
-0.345909
-0.34332
-0.340315
-0.338417
-0.373276
-0.373745
-0.374185
-0.374564
-0.374909
-0.375223
-0.375502
-0.375741
-0.375935
-0.376081
-0.376175
-0.376213
-0.37619
-0.376102
-0.375945
-0.375714
-0.375405
-0.375014
-0.374536
-0.373968
-0.373303
-0.372539
-0.371672
-0.370696
-0.369608
-0.368405
-0.367082
-0.365638
-0.364069
-0.362374
-0.360552
-0.358604
-0.356531
-0.354337
-0.352028
-0.349631
-0.34716
-0.344443
-0.341273
-0.339668
-0.37981
-0.380149
-0.380459
-0.380715
-0.380935
-0.381122
-0.381271
-0.381378
-0.381439
-0.381449
-0.381406
-0.381304
-0.38114
-0.380909
-0.380608
-0.380232
-0.379776
-0.379237
-0.37861
-0.377891
-0.377076
-0.37616
-0.375139
-0.374009
-0.372766
-0.371406
-0.369927
-0.368324
-0.366595
-0.364739
-0.362756
-0.360646
-0.358412
-0.356058
-0.353595
-0.351055
-0.348457
-0.34559
-0.342198
-0.340816
-0.387004
-0.387202
-0.387371
-0.387492
-0.387577
-0.387625
-0.387633
-0.387596
-0.38751
-0.387371
-0.387177
-0.386922
-0.386602
-0.386214
-0.385754
-0.385217
-0.384599
-0.383896
-0.383104
-0.382218
-0.381235
-0.38015
-0.378958
-0.377656
-0.37624
-0.374706
-0.373049
-0.371267
-0.369358
-0.367319
-0.36515
-0.362853
-0.360431
-0.357888
-0.355239
-0.352523
-0.349766
-0.346712
-0.34305
-0.3419
-0.394821
-0.394868
-0.394885
-0.394863
-0.394802
-0.394701
-0.394555
-0.394362
-0.394118
-0.393818
-0.39346
-0.393038
-0.39255
-0.391991
-0.391358
-0.390646
-0.389851
-0.388969
-0.387997
-0.386929
-0.385762
-0.384492
-0.383114
-0.381624
-0.380018
-0.378291
-0.376439
-0.37446
-0.37235
-0.370106
-0.367728
-0.365218
-0.362578
-0.359814
-0.356942
-0.354011
-0.351052
-0.347763
-0.343767
-0.342834
-0.403226
-0.403113
-0.402969
-0.402793
-0.402577
-0.402316
-0.402007
-0.401648
-0.401234
-0.400761
-0.400227
-0.399627
-0.398957
-0.398215
-0.397395
-0.396495
-0.39551
-0.394436
-0.393269
-0.392006
-0.390642
-0.389172
-0.387594
-0.385901
-0.384089
-0.382155
-0.380093
-0.377899
-0.37557
-0.373101
-0.370492
-0.367743
-0.364856
-0.361837
-0.358703
-0.35551
-0.352299
-0.348714
-0.344309
-0.343586
-0.412188
-0.411905
-0.411591
-0.411252
-0.410872
-0.410441
-0.409959
-0.409423
-0.408828
-0.408172
-0.40745
-0.40666
-0.405798
-0.40486
-0.403843
-0.402742
-0.401555
-0.400277
-0.398904
-0.397433
-0.395859
-0.394179
-0.392388
-0.39048
-0.388452
-0.386297
-0.384012
-0.38159
-0.379027
-0.376317
-0.373457
-0.370445
-0.367283
-0.363973
-0.360532
-0.357024
-0.353497
-0.349538
-0.344617
-0.34406
-0.421676
-0.421214
-0.42072
-0.42021
-0.419655
-0.419046
-0.418381
-0.417657
-0.416872
-0.416022
-0.415104
-0.414113
-0.413048
-0.411904
-0.410678
-0.409366
-0.407966
-0.406473
-0.404885
-0.403196
-0.401403
-0.399503
-0.397489
-0.395358
-0.393104
-0.390721
-0.388203
-0.385544
-0.382737
-0.379773
-0.376648
-0.373356
-0.369894
-0.366259
-0.362465
-0.358581
-0.35466
-0.35022
-0.34464
-0.344159
-0.431658
-0.431008
-0.430323
-0.429633
-0.428896
-0.428099
-0.427241
-0.426322
-0.425337
-0.424284
-0.423158
-0.421958
-0.42068
-0.419321
-0.417877
-0.416346
-0.414725
-0.413009
-0.411196
-0.409281
-0.407262
-0.405134
-0.402893
-0.400532
-0.398048
-0.395432
-0.392678
-0.389779
-0.386723
-0.383503
-0.380106
-0.376523
-0.372743
-0.368755
-0.364565
-0.360239
-0.355828
-0.350768
-0.344325
-0.343752
-0.442098
-0.44125
-0.440367
-0.439488
-0.438559
-0.437566
-0.436508
-0.435384
-0.434191
-0.432925
-0.431585
-0.430167
-0.428669
-0.427086
-0.425417
-0.423659
-0.421809
-0.419864
-0.41782
-0.415675
-0.413425
-0.411066
-0.408593
-0.406002
-0.403286
-0.400439
-0.397452
-0.394315
-0.391017
-0.387544
-0.383881
-0.380009
-0.375909
-0.371555
-0.366935
-0.362104
-0.357094
-0.351233
-0.343633
-0.342669
-0.452955
-0.451901
-0.45081
-0.449735
-0.448607
-0.44741
-0.446144
-0.444807
-0.443399
-0.441915
-0.440353
-0.43871
-0.436984
-0.435172
-0.433272
-0.431281
-0.429197
-0.427018
-0.42474
-0.422361
-0.419878
-0.417287
-0.414583
-0.411763
-0.408821
-0.405748
-0.402536
-0.399175
-0.39565
-0.391944
-0.388037
-0.3839
-0.379502
-0.374798
-0.369749
-0.364379
-0.358685
-0.35184
-0.342702
-0.340811
-0.464182
-0.462914
-0.461609
-0.46033
-0.458997
-0.457589
-0.456108
-0.454553
-0.452923
-0.451214
-0.449425
-0.447552
-0.445594
-0.443548
-0.441413
-0.439185
-0.436865
-0.434448
-0.431934
-0.429321
-0.426604
-0.423783
-0.420852
-0.417809
-0.414648
-0.411361
-0.407941
-0.404376
-0.400651
-0.396747
-0.392638
-0.38829
-0.383656
-0.378669
-0.373251
-0.367384
-0.360996
-0.353016
-0.341761
-0.337832
-0.475724
-0.474236
-0.47271
-0.471222
-0.469679
-0.468055
-0.466355
-0.464578
-0.462721
-0.460784
-0.458763
-0.456657
-0.454463
-0.45218
-0.449806
-0.447341
-0.444782
-0.442128
-0.439378
-0.43653
-0.433583
-0.430534
-0.427382
-0.424124
-0.420754
-0.417268
-0.41366
-0.409918
-0.406029
-0.401975
-0.397728
-0.39325
-0.388481
-0.383328
-0.377662
-0.37138
-0.364254
-0.354695
-0.339816
-0.33109
-0.487519
-0.485805
-0.484055
-0.482354
-0.480597
-0.478756
-0.476833
-0.47483
-0.472745
-0.470577
-0.468323
-0.465981
-0.463551
-0.46103
-0.458418
-0.455714
-0.452916
-0.450026
-0.447041
-0.443961
-0.440786
-0.437515
-0.434148
-0.430682
-0.427116
-0.423448
-0.419673
-0.415787
-0.41178
-0.407642
-0.403352
-0.398883
-0.394184
-0.389167
-0.383695
-0.377597
-0.370418
-0.360024
-0.342311
-0.327178
-0.499497
-0.497558
-0.495581
-0.493666
-0.491694
-0.489632
-0.487486
-0.485257
-0.482944
-0.480545
-0.478057
-0.475481
-0.472814
-0.470056
-0.467206
-0.464265
-0.461231
-0.458105
-0.454888
-0.451579
-0.44818
-0.444691
-0.441112
-0.437446
-0.433694
-0.429855
-0.425934
-0.42193
-0.417849
-0.413695
-0.409477
-0.405208
-0.400912
-0.396632
-0.392457
-0.38856
-0.38512
-0.382337
-0.382715
-0.395128
-0.511586
-0.50942
-0.507217
-0.505089
-0.502903
-0.500623
-0.498254
-0.495801
-0.493261
-0.490632
-0.487913
-0.485104
-0.482203
-0.479211
-0.476126
-0.47295
-0.469682
-0.466325
-0.462877
-0.459342
-0.455721
-0.452015
-0.448227
-0.444361
-0.440419
-0.436407
-0.432331
-0.428197
-0.424018
-0.419808
-0.415592
-0.411402
-0.407291
-0.403342
-0.399694
-0.396534
-0.394054
-0.392984
-0.396437
-0.405499
-0.523712
-0.521321
-0.518894
-0.516555
-0.514157
-0.511661
-0.509073
-0.506398
-0.503634
-0.50078
-0.497834
-0.494796
-0.491666
-0.488443
-0.485128
-0.481721
-0.478224
-0.474638
-0.470965
-0.467205
-0.463364
-0.459442
-0.455444
-0.451374
-0.447237
-0.443041
-0.438793
-0.434504
-0.43019
-0.42587
-0.421571
-0.417334
-0.413213
-0.409291
-0.40569
-0.402536
-0.399927
-0.398499
-0.400707
-0.40471
-0.535797
-0.533186
-0.530539
-0.527993
-0.525387
-0.522679
-0.519877
-0.516985
-0.514002
-0.510927
-0.507759
-0.504497
-0.501143
-0.497695
-0.494156
-0.490525
-0.486804
-0.482994
-0.479098
-0.475119
-0.471058
-0.466921
-0.46271
-0.458432
-0.454091
-0.449696
-0.445256
-0.440782
-0.43629
-0.4318
-0.427339
-0.422942
-0.418657
-0.414552
-0.410715
-0.40722
-0.404085
-0.401797
-0.402274
-0.402798
-0.547757
-0.54493
-0.542067
-0.539319
-0.536511
-0.533598
-0.530588
-0.527487
-0.524293
-0.521005
-0.517622
-0.514145
-0.510574
-0.506909
-0.503151
-0.499301
-0.495362
-0.491334
-0.487221
-0.483024
-0.478748
-0.474394
-0.469968
-0.465475
-0.46092
-0.456311
-0.451655
-0.446964
-0.442251
-0.437532
-0.432831
-0.428173
-0.423594
-0.41914
-0.414866
-0.410797
-0.406894
-0.403542
-0.402313
-0.40013
-0.559505
-0.556467
-0.553395
-0.550451
-0.547447
-0.544335
-0.541124
-0.537821
-0.534424
-0.530931
-0.527344
-0.523661
-0.519883
-0.516011
-0.512044
-0.507985
-0.503835
-0.499596
-0.49527
-0.490859
-0.486367
-0.481797
-0.477152
-0.472437
-0.467656
-0.462815
-0.45792
-0.45298
-0.448004
-0.443005
-0.437996
-0.432996
-0.428024
-0.423106
-0.418271
-0.413504
-0.408736
-0.404288
-0.4015
-0.39715
-0.570949
-0.567707
-0.564432
-0.561298
-0.558105
-0.554803
-0.551399
-0.547903
-0.544311
-0.540624
-0.53684
-0.532961
-0.528986
-0.524916
-0.520751
-0.516492
-0.512141
-0.507699
-0.503167
-0.498547
-0.493842
-0.489055
-0.484187
-0.479241
-0.474222
-0.469132
-0.463975
-0.458755
-0.453479
-0.448151
-0.442779
-0.43737
-0.431932
-0.426474
-0.421001
-0.415478
-0.409818
-0.404306
-0.400101
-0.393959
-0.581986
-0.578546
-0.575076
-0.57176
-0.568387
-0.564902
-0.561316
-0.557636
-0.553861
-0.549989
-0.546021
-0.541956
-0.537795
-0.533537
-0.529183
-0.524733
-0.520189
-0.515551
-0.51082
-0.505996
-0.501081
-0.496076
-0.490982
-0.485799
-0.480529
-0.475173
-0.469731
-0.464204
-0.458591
-0.452895
-0.447112
-0.441244
-0.435285
-0.429234
-0.423079
-0.416773
-0.410227
-0.4037
-0.39819
-0.390521
-0.592503
-0.588873
-0.585215
-0.581726
-0.578182
-0.574525
-0.570766
-0.566914
-0.562966
-0.558922
-0.554782
-0.550544
-0.546208
-0.541774
-0.537242
-0.532612
-0.527884
-0.523057
-0.518132
-0.513108
-0.507985
-0.502761
-0.497436
-0.49201
-0.486478
-0.48084
-0.475092
-0.469231
-0.463252
-0.45715
-0.450919
-0.44455
-0.438032
-0.431352
-0.424492
-0.417398
-0.409985
-0.402493
-0.395777
-0.38679
-0.602375
-0.598563
-0.594727
-0.591073
-0.587368
-0.58355
-0.579631
-0.575618
-0.571511
-0.567308
-0.563008
-0.558609
-0.554112
-0.549515
-0.544817
-0.540018
-0.535115
-0.530108
-0.524995
-0.519775
-0.514444
-0.509
-0.50344
-0.49776
-0.491955
-0.486018
-0.479945
-0.473727
-0.467355
-0.460819
-0.454109
-0.447209
-0.440103
-0.432774
-0.425198
-0.417321
-0.409069
-0.400664
-0.39283
-0.382702
-0.611461
-0.607477
-0.603474
-0.599667
-0.595813
-0.591846
-0.587779
-0.58362
-0.579367
-0.575019
-0.570573
-0.566028
-0.561383
-0.556636
-0.551785
-0.546827
-0.54176
-0.536581
-0.531287
-0.525873
-0.520337
-0.514671
-0.508871
-0.50293
-0.496838
-0.490589
-0.484172
-0.477575
-0.470787
-0.463794
-0.456579
-0.449126
-0.441415
-0.433426
-0.425135
-0.416491
-0.407432
-0.398166
-0.389298
-0.378184
-0.61961
-0.615466
-0.611308
-0.607361
-0.603371
-0.599269
-0.595069
-0.590778
-0.586395
-0.581917
-0.577341
-0.572666
-0.567888
-0.563004
-0.558012
-0.552907
-0.547686
-0.542343
-0.536874
-0.531272
-0.525531
-0.519643
-0.513598
-0.507387
-0.501
-0.494424
-0.487647
-0.480655
-0.473431
-0.46596
-0.458223
-0.450202
-0.441876
-0.433224
-0.424226
-0.414836
-0.405008
-0.394932
-0.385111
-0.373152
-0.626658
-0.622369
-0.618071
-0.613999
-0.609887
-0.605666
-0.601349
-0.596944
-0.592447
-0.587856
-0.583167
-0.578377
-0.573481
-0.568476
-0.563357
-0.558117
-0.552752
-0.547255
-0.541617
-0.535831
-0.529887
-0.523773
-0.51748
-0.510994
-0.504301
-0.497388
-0.490238
-0.482834
-0.47516
-0.467197
-0.458925
-0.450327
-0.441383
-0.432075
-0.422384
-0.412276
-0.401718
-0.390887
-0.380194
-0.367516
-0.632432
-0.628015
-0.623594
-0.619413
-0.615197
-0.610876
-0.60646
-0.601958
-0.597366
-0.592681
-0.587896
-0.583008
-0.578012
-0.572901
-0.567668
-0.562307
-0.55681
-0.551166
-0.545367
-0.5394
-0.533254
-0.526916
-0.520371
-0.513603
-0.506598
-0.499337
-0.491803
-0.483978
-0.475842
-0.467378
-0.458566
-0.44939
-0.439832
-0.429879
-0.419519
-0.408726
-0.397483
-0.385951
-0.374464
-0.361187
-0.636752
-0.632226
-0.627701
-0.62343
-0.619131
-0.614727
-0.610233
-0.605655
-0.600988
-0.596227
-0.591367
-0.5864
-0.58132
-0.576119
-0.570789
-0.56532
-0.559701
-0.553921
-0.547967
-0.541825
-0.535481
-0.528917
-0.522118
-0.515066
-0.507742
-0.500127
-0.492202
-0.483948
-0.475345
-0.466376
-0.457024
-0.447275
-0.437115
-0.426537
-0.415535
-0.404095
-0.392215
-0.380043
-0.367841
-0.354073
-0.639433
-0.634819
-0.630214
-0.625874
-0.621511
-0.617049
-0.612498
-0.607865
-0.603145
-0.59833
-0.593414
-0.588388
-0.583243
-0.57797
-0.572558
-0.566995
-0.561267
-0.55536
-0.54926
-0.542949
-0.536409
-0.529622
-0.522569
-0.51523
-0.507584
-0.499612
-0.491292
-0.482606
-0.473535
-0.464064
-0.454179
-0.443868
-0.433125
-0.421948
-0.410339
-0.398297
-0.385834
-0.373081
-0.360245
-0.346089
-0.640288
-0.635611
-0.63095
-0.626565
-0.622162
-0.617664
-0.61308
-0.608417
-0.603666
-0.59882
-0.59387
-0.588806
-0.583616
-0.578289
-0.572811
-0.567168
-0.561344
-0.555322
-0.549084
-0.54261
-0.53588
-0.528873
-0.521568
-0.513942
-0.505975
-0.497645
-0.488931
-0.479816
-0.470283
-0.460318
-0.449912
-0.439059
-0.427759
-0.416016
-0.403843
-0.391249
-0.37826
-0.364991
-0.351601
-0.337157
-0.639133
-0.63442
-0.629729
-0.625324
-0.620907
-0.616398
-0.611807
-0.607137
-0.602381
-0.597528
-0.592567
-0.587486
-0.582271
-0.576909
-0.571383
-0.565677
-0.55977
-0.553645
-0.547279
-0.54065
-0.533737
-0.526515
-0.518962
-0.511054
-0.502768
-0.494085
-0.484983
-0.475447
-0.465462
-0.455019
-0.444113
-0.432745
-0.420921
-0.408654
-0.395964
-0.382875
-0.369421
-0.355704
-0.341841
-0.327204
-0.635787
-0.631067
-0.626376
-0.621977
-0.617573
-0.61308
-0.608509
-0.60386
-0.599123
-0.594288
-0.589339
-0.584264
-0.579047
-0.573669
-0.568114
-0.56236
-0.556387
-0.550171
-0.543689
-0.536916
-0.529827
-0.522398
-0.514604
-0.50642
-0.497824
-0.488796
-0.479318
-0.469374
-0.458956
-0.448058
-0.436681
-0.424831
-0.412524
-0.39978
-0.386629
-0.373106
-0.359256
-0.345163
-0.330909
-0.316171
-0.63008
-0.625384
-0.620723
-0.61636
-0.611996
-0.607548
-0.603023
-0.598422
-0.593732
-0.58894
-0.584029
-0.578984
-0.573785
-0.568414
-0.562848
-0.557064
-0.551039
-0.544747
-0.538162
-0.531256
-0.524004
-0.516378
-0.508354
-0.499905
-0.491012
-0.481654
-0.471815
-0.461486
-0.450659
-0.439336
-0.427522
-0.415234
-0.402492
-0.389327
-0.375776
-0.361886
-0.347711
-0.333318
-0.318756
-0.30401
-0.621851
-0.617211
-0.612612
-0.608315
-0.604021
-0.599647
-0.595198
-0.590673
-0.586057
-0.581334
-0.576487
-0.571495
-0.566339
-0.560994
-0.555437
-0.549643
-0.543583
-0.53723
-0.530557
-0.523533
-0.51613
-0.508322
-0.500082
-0.491385
-0.482211
-0.472543
-0.462368
-0.45168
-0.440477
-0.428765
-0.41656
-0.403882
-0.390761
-0.377237
-0.363354
-0.34917
-0.334747
-0.320131
-0.305347
-0.290681
-0.610955
-0.606405
-0.601901
-0.5977
-0.593506
-0.589235
-0.584892
-0.580471
-0.575957
-0.571331
-0.566573
-0.561659
-0.556568
-0.551272
-0.545746
-0.53996
-0.533884
-0.527489
-0.520745
-0.513619
-0.506084
-0.49811
-0.489672
-0.480747
-0.471316
-0.461364
-0.450883
-0.43987
-0.42833
-0.416276
-0.403729
-0.390718
-0.377282
-0.363467
-0.349326
-0.334925
-0.320334
-0.305578
-0.290657
-0.276159
-0.597264
-0.592838
-0.588464
-0.584389
-0.580326
-0.576189
-0.57198
-0.567693
-0.563309
-0.558807
-0.554163
-0.549353
-0.54435
-0.539127
-0.533652
-0.527895
-0.521825
-0.515407
-0.508611
-0.501403
-0.493755
-0.485638
-0.477026
-0.467898
-0.458238
-0.448035
-0.437284
-0.425988
-0.414158
-0.401813
-0.388982
-0.375703
-0.36202
-0.347988
-0.333667
-0.319132
-0.304458
-0.289646
-0.274673
-0.26043
-0.580673
-0.576406
-0.572195
-0.568278
-0.564376
-0.560403
-0.556359
-0.552234
-0.548008
-0.543656
-0.539153
-0.534471
-0.529582
-0.524453
-0.519053
-0.513347
-0.507302
-0.500884
-0.494057
-0.486791
-0.479054
-0.470818
-0.46206
-0.452761
-0.442906
-0.43249
-0.421512
-0.409981
-0.397914
-0.385338
-0.372289
-0.358811
-0.344956
-0.330786
-0.316369
-0.301785
-0.287114
-0.272333
-0.257395
-0.243488
-0.561098
-0.557025
-0.553012
-0.549284
-0.545572
-0.541793
-0.537942
-0.534008
-0.529967
-0.525793
-0.521456
-0.516928
-0.512176
-0.507167
-0.501864
-0.496233
-0.490237
-0.483841
-0.477009
-0.469708
-0.46191
-0.453586
-0.444714
-0.435279
-0.425271
-0.414686
-0.40353
-0.391819
-0.379576
-0.366834
-0.353636
-0.340034
-0.326088
-0.311864
-0.297435
-0.28289
-0.26831
-0.253647
-0.238828
-0.225339
-0.538485
-0.534639
-0.530856
-0.527347
-0.523856
-0.520299
-0.51667
-0.512954
-0.509125
-0.505154
-0.50101
-0.496661
-0.492071
-0.487204
-0.482023
-0.476491
-0.47057
-0.464222
-0.457412
-0.450108
-0.442279
-0.4339
-0.424953
-0.415423
-0.405306
-0.394602
-0.383324
-0.371493
-0.359138
-0.3463
-0.33303
-0.319384
-0.305429
-0.291237
-0.276885
-0.262468
-0.248068
-0.233612
-0.219001
-0.20601
-0.512801
-0.509216
-0.505696
-0.502436
-0.499193
-0.495887
-0.492507
-0.489036
-0.485446
-0.481705
-0.477779
-0.473633
-0.46923
-0.464531
-0.459498
-0.454091
-0.44827
-0.441998
-0.435239
-0.427962
-0.420137
-0.411742
-0.40276
-0.393182
-0.383005
-0.372239
-0.360899
-0.349012
-0.336616
-0.323758
-0.310493
-0.296887
-0.283009
-0.268937
-0.254752
-0.240553
-0.226427
-0.212285
-0.197995
-0.185565
-0.484056
-0.480764
-0.477537
-0.474553
-0.471586
-0.468556
-0.465452
-0.462251
-0.458924
-0.455437
-0.451752
-0.447834
-0.443642
-0.439135
-0.434274
-0.429017
-0.423324
-0.417158
-0.410482
-0.403266
-0.395484
-0.387115
-0.378144
-0.368568
-0.358388
-0.347619
-0.336282
-0.32441
-0.312048
-0.299248
-0.286071
-0.272588
-0.258873
-0.245006
-0.231071
-0.21717
-0.203403
-0.189672
-0.175732
-0.163679
-0.452275
-0.449305
-0.4464
-0.443719
-0.441052
-0.438324
-0.435519
-0.432613
-0.429573
-0.426362
-0.422943
-0.419275
-0.415318
-0.411029
-0.406366
-0.401287
-0.395752
-0.389724
-0.383166
-0.376051
-0.368353
-0.360055
-0.351146
-0.341626
-0.331502
-0.320794
-0.309528
-0.297746
-0.285494
-0.272833
-0.259827
-0.246552
-0.233085
-0.219507
-0.205898
-0.192359
-0.178997
-0.165667
-0.151757
-0.138901
-0.417518
-0.414898
-0.412342
-0.409988
-0.407646
-0.405243
-0.40276
-0.400171
-0.397441
-0.39453
-0.391399
-0.388006
-0.384308
-0.380262
-0.375824
-0.370952
-0.365606
-0.359749
-0.353347
-0.346372
-0.338802
-0.330623
-0.321829
-0.312423
-0.302418
-0.291838
-0.280717
-0.269099
-0.257038
-0.244599
-0.231851
-0.218874
-0.205747
-0.192553
-0.179376
-0.166322
-0.153483
-0.140672
-0.127516
-0.116754
-0.379887
-0.377643
-0.375461
-0.373456
-0.371458
-0.369401
-0.367262
-0.36501
-0.36261
-0.36002
-0.357198
-0.354102
-0.350687
-0.346909
-0.342723
-0.338087
-0.332962
-0.327311
-0.321102
-0.31431
-0.306915
-0.298907
-0.290284
-0.281052
-0.271231
-0.260849
-0.249946
-0.23857
-0.226781
-0.214647
-0.202242
-0.189646
-0.176943
-0.164215
-0.151548
-0.139047
-0.126793
-0.114562
-0.102043
-0.0923387
-0.339507
-0.337661
-0.335875
-0.334238
-0.332604
-0.330912
-0.329134
-0.327239
-0.325187
-0.322937
-0.320446
-0.317668
-0.314558
-0.311072
-0.307166
-0.302796
-0.297925
-0.292516
-0.286541
-0.279976
-0.272805
-0.265021
-0.256626
-0.247632
-0.238062
-0.22795
-0.217339
-0.206284
-0.194847
-0.1831
-0.171121
-0.158991
-0.146794
-0.134613
-0.122532
-0.110659
-0.0990684
-0.0875117
-0.0756463
-0.0667883
-0.296535
-0.295108
-0.293736
-0.292485
-0.291232
-0.28992
-0.28852
-0.286997
-0.285311
-0.283419
-0.281276
-0.278837
-0.276055
-0.272886
-0.269285
-0.265212
-0.260627
-0.255498
-0.249798
-0.243506
-0.236609
-0.229104
-0.220997
-0.212305
-0.203055
-0.193284
-0.183042
-0.172385
-0.161381
-0.150102
-0.138629
-0.127044
-0.11543
-0.10387
-0.0924458
-0.0812632
-0.0703974
-0.0595703
-0.0483883
-0.0403653
-0.251154
-0.250162
-0.249221
-0.24837
-0.247511
-0.246595
-0.245588
-0.244452
-0.243147
-0.241629
-0.239852
-0.23777
-0.235337
-0.232509
-0.229241
-0.225493
-0.22123
-0.216418
-0.211035
-0.205063
-0.198491
-0.191321
-0.183563
-0.175237
-0.166375
-0.157019
-0.14722
-0.13704
-0.126546
-0.115815
-0.104926
-0.0939619
-0.0830049
-0.0721336
-0.0614282
-0.0509929
-0.0409006
-0.0308447
-0.0203686
-0.0131661
-0.203575
-0.203033
-0.202536
-0.202097
-0.201645
-0.201135
-0.200532
-0.199797
-0.198887
-0.197757
-0.196362
-0.194656
-0.192593
-0.190128
-0.187219
-0.183827
-0.179917
-0.175462
-0.170437
-0.164831
-0.158636
-0.151857
-0.144508
-0.136614
-0.12821
-0.11934
-0.11006
-0.100432
-0.0905274
-0.0804209
-0.0701921
-0.0599222
-0.0496907
-0.0395725
-0.0296427
-0.0200028
-0.0107232
-0.00146824
0.00829552
0.0147312
-0.154035
-0.153954
-0.153912
-0.153894
-0.153857
-0.153763
-0.153574
-0.15325
-0.152746
-0.152018
-0.15102
-0.149707
-0.148032
-0.145953
-0.143428
-0.140421
-0.136899
-0.132836
-0.128212
-0.123018
-0.117251
-0.110919
-0.10404
-0.0966416
-0.0887624
-0.0804505
-0.0717626
-0.0627634
-0.0535235
-0.044118
-0.0346246
-0.0251214
-0.0156839
-0.00638128
0.00271817
0.0115186
0.0199529
0.0283878
0.0374602
0.0432462
-0.102793
-0.103181
-0.103602
-0.104013
-0.104398
-0.104727
-0.10496
-0.105054
-0.104966
-0.104651
-0.104063
-0.103158
-0.10189
-0.100217
-0.098101
-0.0955062
-0.0924032
-0.0887689
-0.0845873
-0.079851
-0.0745616
-0.0687304
-0.062379
-0.0555388
-0.048251
-0.040566
-0.0325425
-0.0242457
-0.0157462
-0.00711775
0.00156456
0.0102265
0.018798
0.0272174
0.0354255
0.0433351
0.0508853
0.0584804
0.0668969
0.072171
-0.0501293
-0.0509933
-0.0518829
-0.0527263
-0.0535388
-0.0542962
-0.0549562
-0.0554753
-0.0558102
-0.0559165
-0.0557496
-0.055265
-0.0544198
-0.0531734
-0.0514885
-0.0493328
-0.0466794
-0.043508
-0.0398065
-0.0355707
-0.030806
-0.0255273
-0.0197593
-0.0135365
-0.00690295
8.90067e-05
0.00737947
0.0149026
0.0225884
0.0303647
0.0381593
0.0459024
0.0535301
0.0609892
0.0682326
0.0751892
0.0818152
0.0885507
0.0963225
0.101292
0.0036557
0.00231264
0.000951476
-0.000327505
-0.00156938
-0.00275758
-0.00384803
-0.0047964
-0.00555978
-0.00609474
-0.00635753
-0.00630517
-0.00589643
-0.00509281
-0.00385955
-0.00216692
9.1418e-06
0.00268549
0.00587122
0.00956674
0.0137632
0.0184423
0.023576
0.0291269
0.0350488
0.0412873
0.0477814
0.054465
0.0612682
0.06812
0.0749507
0.0816939
0.0882907
0.094695
0.100874
0.106789
0.112435
0.118227
0.125192
0.130609
0.0582446
0.0564218
0.0545887
0.0528741
0.0512028
0.0495834
0.0480615
0.0466818
0.0454867
0.0445183
0.0438189
0.04343
0.0433907
0.0437371
0.0445013
0.0457102
0.0473845
0.0495378
0.0521759
0.0552957
0.0588851
0.0629225
0.067377
0.0722085
0.0773686
0.0828014
0.0884445
0.0942309
0.10009
0.105951
0.111742
0.117396
0.122848
0.128042
0.132939
0.13752
0.141771
0.145734
0.150122
0.155666
0.113305
0.111004
0.108702
0.106554
0.104456
0.102407
0.100455
0.0986442
0.0970164
0.0956121
0.0944718
0.093635
0.0931386
0.0930162
0.0932968
0.0940044
0.0951564
0.0967631
0.0988267
0.101341
0.104291
0.107651
0.111389
0.115463
0.119822
0.124408
0.12916
0.134008
0.138883
0.14371
0.148415
0.152923
0.157153
0.161015
0.164417
0.167286
0.169392
0.169592
0.166498
0.168104
0.168493
0.165719
0.162952
0.160376
0.157855
0.155381
0.153003
0.150764
0.148705
0.146865
0.145282
0.143993
0.143034
0.142434
0.14222
0.142412
0.143025
0.144066
0.145534
0.147419
0.149703
0.15236
0.155354
0.158641
0.162171
0.165886
0.169724
0.173619
0.177502
0.181304
0.184954
0.188385
0.191526
0.194306
0.196666
0.198598
0.199978
0.199921
0.19779
0.201432
0.223453
0.220215
0.216991
0.213994
0.211058
0.208166
0.205367
0.202705
0.200219
0.197945
0.195921
0.19418
0.192754
0.191671
0.190955
0.190623
0.190685
0.191146
0.192001
0.193239
0.194838
0.196771
0.198999
0.20148
0.204161
0.206986
0.209895
0.212824
0.215708
0.218482
0.221082
0.223447
0.225517
0.227235
0.228562
0.229508
0.229981
0.229302
0.227334
0.231166
0.277828
0.274135
0.270465
0.267057
0.263715
0.260414
0.257204
0.254127
0.25122
0.248519
0.246056
0.243865
0.241973
0.240406
0.239184
0.238321
0.237825
0.237696
0.237928
0.238507
0.239408
0.240603
0.242052
0.243712
0.245532
0.247458
0.24943
0.251389
0.253273
0.255024
0.256583
0.257897
0.258917
0.259598
0.259914
0.259886
0.259434
0.257982
0.255555
0.258546
0.331256
0.327122
0.32302
0.319213
0.315477
0.311779
0.308168
0.304686
0.301368
0.298247
0.295353
0.292716
0.290362
0.288313
0.286586
0.285191
0.284133
0.283411
0.283014
0.282927
0.283123
0.283573
0.284236
0.28507
0.286024
0.287046
0.28808
0.289069
0.289958
0.29069
0.291217
0.291492
0.291474
0.291128
0.290439
0.289432
0.288041
0.285763
0.282685
0.284558
0.383378
0.378819
0.374301
0.37011
0.365995
0.361914
0.357915
0.354041
0.350324
0.346793
0.343478
0.340404
0.337595
0.33507
0.332841
0.330917
0.329301
0.327986
0.326961
0.326207
0.325698
0.325402
0.32528
0.325288
0.325379
0.325501
0.325601
0.325627
0.325528
0.325253
0.324759
0.324005
0.322959
0.321591
0.319896
0.3179
0.315545
0.312388
0.308563
0.309213
0.433842
0.428877
0.423962
0.419404
0.414926
0.410478
0.406107
0.401856
0.397753
0.393827
0.390102
0.386603
0.38335
0.380357
0.377636
0.375192
0.373023
0.371122
0.369475
0.368061
0.366853
0.365818
0.364918
0.364109
0.363345
0.362578
0.361757
0.360834
0.359761
0.358495
0.356996
0.355231
0.353172
0.350796
0.348103
0.345118
0.341791
0.337737
0.33312
0.332497
0.482305
0.476956
0.471662
0.466757
0.461935
0.457138
0.452413
0.447802
0.443331
0.439024
0.434906
0.430997
0.427312
0.423866
0.420666
0.417713
0.415003
0.412528
0.410271
0.40821
0.406316
0.404557
0.402893
0.401283
0.399682
0.398044
0.396322
0.394472
0.392449
0.390216
0.387738
0.384985
0.381936
0.378575
0.374902
0.370945
0.366658
0.361711
0.356289
0.354382
0.528436
0.522725
0.517077
0.511844
0.506698
0.501572
0.496514
0.491562
0.486741
0.482074
0.47758
0.473277
0.46918
0.465297
0.461634
0.45819
0.454958
0.451927
0.449078
0.446388
0.443828
0.441365
0.43896
0.436573
0.434161
0.431679
0.429086
0.426338
0.423398
0.42023
0.416805
0.413099
0.409094
0.404779
0.400157
0.395257
0.390038
0.384222
0.378003
0.374826
0.571921
0.565873
0.559894
0.554356
0.548908
0.543475
0.538104
0.532833
0.527684
0.522676
0.517828
0.513153
0.508663
0.504365
0.500261
0.496347
0.492614
0.48905
0.485634
0.482341
0.479142
0.476003
0.472888
0.469755
0.466565
0.463277
0.459848
0.456243
0.452425
0.448365
0.444036
0.43942
0.434502
0.429276
0.423748
0.417945
0.411834
0.405187
0.398196
0.393785
0.612462
0.606103
0.59982
0.594001
0.588273
0.582556
0.576896
0.571329
0.565875
0.56055
0.55537
0.550347
0.545488
0.5408
0.536279
0.531922
0.527717
0.523648
0.519694
0.515831
0.512026
0.508248
0.504459
0.500621
0.496695
0.492643
0.488426
0.484011
0.479365
0.474462
0.469282
0.463807
0.45803
0.451946
0.445564
0.43891
0.43196
0.424529
0.416802
0.411213
0.649782
0.64314
0.636579
0.630503
0.624521
0.618545
0.612621
0.606782
0.601048
0.595431
0.589945
0.5846
0.579401
0.574349
0.569442
0.564672
0.560026
0.555487
0.551032
0.546635
0.542265
0.537889
0.533472
0.528976
0.524364
0.5196
0.514649
0.509479
0.504063
0.498378
0.492406
0.486135
0.479559
0.472678
0.465504
0.45806
0.450332
0.442175
0.433759
0.427066
0.683627
0.67673
0.66992
0.663613
0.657402
0.651193
0.64503
0.638946
0.632958
0.627077
0.621314
0.615675
0.610165
0.604782
0.599521
0.594373
0.589323
0.584352
0.579437
0.57455
0.569661
0.564737
0.559742
0.554643
0.549402
0.543985
0.538361
0.532502
0.526381
0.51998
0.513285
0.506286
0.498981
0.491374
0.483476
0.475312
0.466874
0.458057
0.449008
0.441296
0.713764
0.706643
0.699612
0.693102
0.686688
0.680273
0.673899
0.667598
0.661384
0.655268
0.649256
0.643356
0.637567
0.631887
0.626309
0.620822
0.615408
0.610049
0.604719
0.599391
0.594035
0.588618
0.583105
0.577462
0.571655
0.565653
0.559425
0.552945
0.546192
0.53915
0.531806
0.524156
0.516198
0.50794
0.499396
0.490588
0.481516
0.472109
0.462491
0.453862
0.73999
0.732673
0.725453
0.718767
0.712178
0.705584
0.699026
0.692537
0.686127
0.679806
0.673579
0.667449
0.661417
0.655478
0.649622
0.643837
0.638104
0.632404
0.626711
0.620996
0.61523
0.609379
0.60341
0.597291
0.590988
0.584472
0.577714
0.570692
0.563386
0.555782
0.547871
0.539651
0.531124
0.522297
0.513188
0.503818
0.494194
0.484273
0.474156
0.46472
0.762123
0.754644
0.747264
0.74043
0.733694
0.72695
0.720238
0.71359
0.707015
0.700521
0.694112
0.687789
0.681551