/*--------------------------------*- C++ -*----------------------------------*\
  =========                 |
  \\      /  F ield         | OpenFOAM: The Open Source CFD Toolbox
   \\    /   O peration     | Website:  https://openfoam.org
    \\  /    A nd           | Version:  7
     \\/     M anipulation  |
\*---------------------------------------------------------------------------*/
FoamFile
{
    version     2.0;
    format      ascii;
    class       volScalarField;
    location    "84.99932";
    object      p;
}
// * * * * * * * * * * * * * * * * * * * * * * * * * * * * * * * * * * * * * //

dimensions      [0 2 -2 0 0 0 0];

internalField   nonuniform List<scalar> 
5800
(
-0.225344
-0.225799
-0.226194
-0.226465
-0.226523
-0.224839
-0.22439
-0.223881
-0.223326
-0.222718
-0.222054
-0.221332
-0.220549
-0.219703
-0.218791
-0.217811
-0.216758
-0.215622
-0.214401
-0.213095
-0.211695
-0.210195
-0.20859
-0.206873
-0.20504
-0.203088
-0.201013
-0.198814
-0.196491
-0.194044
-0.191478
-0.188794
-0.185999
-0.183097
-0.180093
-0.176992
-0.173796
-0.170501
-0.167103
-0.163586
-0.15993
-0.156105
-0.152071
-0.147774
-0.143227
-0.138453
-0.133394
-0.128043
-0.122421
-0.116571
-0.110576
-0.104543
-0.0985947
-0.0928565
-0.0874343
-0.0823871
-0.07775
-0.0734743
-0.0694428
-0.0655184
-0.0614326
-0.0570334
-0.0521079
-0.0466459
-0.0405794
-0.0341705
-0.0274654
-0.0209661
-0.0147337
-0.00941102
-0.00475405
-0.0020155
0.0010719
-0.000327474
0.0035088
-0.225569
-0.225211
-0.224795
-0.224345
-0.223847
-0.223297
-0.222691
-0.222026
-0.221296
-0.220497
-0.219624
-0.218667
-0.217618
-0.216453
-0.215195
-0.21382
-0.212319
-0.21068
-0.208896
-0.206957
-0.204857
-0.20259
-0.200151
-0.197539
-0.194755
-0.191801
-0.188683
-0.185407
-0.181984
-0.178427
-0.174749
-0.170962
-0.167077
-0.163104
-0.159047
-0.154902
-0.150664
-0.146314
-0.141825
-0.137168
-0.132494
-0.127689
-0.122761
-0.117737
-0.112656
-0.107589
-0.102615
-0.0978302
-0.0933267
-0.0891638
-0.0853352
-0.0818376
-0.0785448
-0.0752822
-0.0718922
-0.0680449
-0.0636034
-0.0583705
-0.0523654
-0.0455396
-0.0382598
-0.0305734
-0.0230772
-0.015833
-0.0095108
-0.00401
-0.000350062
0.00299601
0.00205688
0.00496037
-0.226376
-0.2261
-0.225764
-0.225414
-0.225021
-0.224581
-0.224087
-0.223535
-0.222918
-0.222229
-0.221459
-0.220596
-0.219627
-0.21853
-0.217323
-0.215976
-0.214475
-0.212806
-0.210957
-0.208917
-0.206674
-0.204219
-0.201547
-0.198654
-0.19554
-0.192208
-0.188663
-0.184916
-0.180983
-0.176882
-0.172637
-0.16827
-0.163806
-0.159268
-0.154678
-0.150054
-0.145407
-0.140744
-0.136057
-0.131286
-0.126721
-0.122159
-0.117643
-0.113205
-0.108878
-0.104721
-0.100789
-0.0971447
-0.0938504
-0.0909173
-0.0882585
-0.0858444
-0.0834628
-0.0809172
-0.0779852
-0.0742952
-0.0697568
-0.0641702
-0.0575957
-0.0500103
-0.0418827
-0.0332686
-0.024847
-0.0166874
-0.00946802
-0.00322492
0.00125862
0.00481223
0.00432033
0.00627511
-0.227238
-0.227023
-0.226749
-0.226492
-0.226198
-0.225861
-0.225474
-0.225031
-0.224522
-0.223939
-0.22327
-0.222501
-0.221611
-0.220565
-0.21943
-0.218115
-0.216616
-0.214922
-0.213015
-0.21088
-0.208503
-0.205872
-0.202978
-0.199816
-0.196386
-0.192692
-0.188738
-0.184538
-0.180113
-0.175489
-0.170696
-0.16577
-0.160747
-0.155665
-0.150562
-0.145475
-0.140436
-0.135472
-0.130603
-0.125677
-0.121266
-0.116927
-0.112805
-0.108931
-0.105333
-0.102054
-0.0991279
-0.0965818
-0.0944469
-0.0926903
-0.091116
-0.0897157
-0.0881803
-0.0862568
-0.0837084
-0.0800873
-0.0754525
-0.0694399
-0.0622791
-0.0539478
-0.045009
-0.0355323
-0.0262657
-0.0172945
-0.0092876
-0.00241273
0.00277869
0.00648178
0.00638338
0.00739692
-0.228151
-0.22794
-0.22771
-0.227537
-0.227333
-0.227091
-0.226804
-0.226464
-0.22606
-0.22558
-0.22501
-0.224338
-0.22355
-0.222647
-0.221487
-0.220189
-0.218695
-0.216981
-0.215025
-0.212806
-0.210307
-0.207513
-0.204414
-0.201001
-0.197276
-0.193242
-0.188904
-0.184276
-0.179387
-0.174268
-0.168958
-0.163503
-0.157952
-0.152355
-0.146769
-0.141245
-0.135836
-0.130593
-0.125593
-0.121065
-0.116261
-0.11209
-0.108341
-0.105005
-0.102098
-0.0996525
-0.0976819
-0.0961719
-0.0951212
-0.0944343
-0.0939145
-0.0934165
-0.0926271
-0.0912287
-0.0889944
-0.0853462
-0.0805817
-0.0741364
-0.0663888
-0.0573405
-0.0476404
-0.0373767
-0.0273523
-0.0176763
-0.00899398
-0.00159958
0.00417503
0.00796859
0.00817948
0.00828318
-0.229193
-0.228795
-0.228603
-0.228509
-0.228383
-0.228225
-0.228031
-0.227787
-0.227481
-0.227099
-0.226625
-0.226041
-0.22533
-0.224464
-0.223392
-0.222137
-0.220658
-0.218933
-0.216937
-0.214648
-0.212043
-0.209105
-0.20582
-0.20218
-0.198186
-0.193841
-0.189148
-0.184127
-0.178808
-0.173232
-0.167444
-0.1615
-0.155459
-0.149387
-0.143352
-0.137424
-0.131674
-0.12617
-0.120994
-0.116266
-0.1117
-0.107715
-0.104327
-0.101494
-0.0992331
-0.0975658
-0.0964833
-0.0959235
-0.0958755
-0.0961734
-0.0965927
-0.0968969
-0.0967506
-0.0957721
-0.0937931
-0.0903488
-0.0851373
-0.0782414
-0.0699228
-0.0602017
-0.049803
-0.0388367
-0.0281475
-0.0178737
-0.00862685
-0.000820845
0.00541144
0.00924129
0.00966075
0.00890948
-0.23061
-0.229534
-0.229398
-0.229372
-0.229304
-0.229221
-0.229109
-0.228953
-0.228738
-0.228447
-0.228063
-0.227565
-0.22693
-0.226134
-0.225121
-0.22391
-0.222451
-0.220724
-0.218701
-0.216355
-0.213662
-0.210601
-0.207156
-0.203317
-0.199084
-0.194463
-0.189453
-0.184077
-0.178372
-0.172383
-0.166163
-0.159777
-0.153293
-0.14679
-0.14035
-0.134057
-0.127997
-0.122255
-0.11691
-0.112091
-0.107672
-0.103873
-0.100843
-0.0984619
-0.0967875
-0.0958135
-0.0955221
-0.0958493
-0.0967022
-0.0978795
-0.0991189
-0.100119
-0.100511
-0.0998324
-0.0980327
-0.094509
-0.0890843
-0.0817547
-0.0728972
-0.0625619
-0.0515388
-0.0399623
-0.0287052
-0.0179386
-0.00823488
-0.000116605
0.00645355
0.010275
0.0108007
0.00927169
-0.231075
-0.230407
-0.230092
-0.23006
-0.230055
-0.230036
-0.229994
-0.229916
-0.229784
-0.229578
-0.229278
-0.228862
-0.228306
-0.227586
-0.226674
-0.225463
-0.224027
-0.222308
-0.220271
-0.217886
-0.215125
-0.211965
-0.208387
-0.20438
-0.199944
-0.195083
-0.189796
-0.184111
-0.178069
-0.171719
-0.165121
-0.158346
-0.151474
-0.144593
-0.137798
-0.131186
-0.124857
-0.11891
-0.113434
-0.10857
-0.104327
-0.100601
-0.0978295
-0.0958828
-0.0947435
-0.0944042
-0.0948318
-0.0959384
-0.0975778
-0.0995183
-0.101459
-0.103047
-0.103877
-0.10336
-0.101747
-0.0980989
-0.0924302
-0.0846903
-0.0753402
-0.0644614
-0.0528982
-0.0408093
-0.0290842
-0.0179268
-0.00786896
0.000473423
0.00727188
0.0110525
0.011594
0.00938476
-0.231414
-0.231179
-0.230638
-0.230558
-0.230605
-0.23064
-0.230654
-0.23064
-0.23058
-0.230449
-0.230226
-0.229884
-0.229398
-0.228737
-0.227858
-0.226723
-0.225329
-0.223631
-0.221594
-0.219188
-0.216381
-0.213149
-0.209471
-0.205333
-0.200732
-0.19567
-0.190156
-0.184217
-0.177893
-0.171239
-0.16432
-0.157214
-0.150009
-0.142803
-0.1357
-0.128811
-0.122249
-0.116122
-0.110534
-0.105611
-0.101394
-0.0978912
-0.0953735
-0.0937998
-0.0931237
-0.0933443
-0.0943937
-0.0961647
-0.0984742
-0.101058
-0.103581
-0.105648
-0.106837
-0.106304
-0.104912
-0.101113
-0.0951876
-0.0870712
-0.0772865
-0.0659455
-0.0539339
-0.0414339
-0.0293418
-0.017891
-0.00757594
0.000914498
0.00784464
0.0115655
0.0120538
0.00927887
-0.231764
-0.231011
-0.230844
-0.230924
-0.231004
-0.23106
-0.231097
-0.231095
-0.231029
-0.230872
-0.230597
-0.230175
-0.229571
-0.228743
-0.227665
-0.226317
-0.224649
-0.222626
-0.220215
-0.217385
-0.214107
-0.210359
-0.206125
-0.2014
-0.196184
-0.190493
-0.184352
-0.177805
-0.170907
-0.163729
-0.156354
-0.148877
-0.141405
-0.134052
-0.126937
-0.120182
-0.113909
-0.108229
-0.103259
-0.099056
-0.0957638
-0.0934455
-0.092196
-0.0919187
-0.0926084
-0.094178
-0.096499
-0.0993605
-0.102467
-0.105452
-0.107889
-0.109398
-0.109798
-0.107577
-0.103555
-0.0973745
-0.0889261
-0.0787749
-0.0670599
-0.0546967
-0.0418882
-0.0295287
-0.0178764
-0.00739411
0.00118013
0.00815991
0.0118144
0.0122068
0.00899374
-0.232087
-0.231172
-0.230886
-0.230981
-0.231096
-0.231182
-0.231254
-0.231297
-0.231283
-0.231182
-0.230966
-0.230603
-0.230059
-0.229293
-0.228244
-0.226949
-0.225322
-0.223325
-0.220928
-0.218095
-0.214798
-0.211011
-0.206719
-0.201912
-0.196594
-0.190777
-0.184491
-0.177779
-0.1707
-0.163326
-0.155746
-0.148061
-0.140383
-0.132834
-0.125542
-0.118637
-0.112249
-0.1065
-0.10151
-0.0973802
-0.0942591
-0.0920052
-0.0910415
-0.0910984
-0.0921637
-0.0941507
-0.096908
-0.100204
-0.103715
-0.107046
-0.109746
-0.111435
-0.111705
-0.109626
-0.105426
-0.0990139
-0.090288
-0.0798454
-0.0678497
-0.0552336
-0.0422174
-0.0296869
-0.0179181
-0.0073506
0.00125403
0.00821671
0.0118081
0.012089
0.00857249
-0.231989
-0.231034
-0.230627
-0.230728
-0.230874
-0.230979
-0.231073
-0.23115
-0.231176
-0.231121
-0.230954
-0.230645
-0.230158
-0.229458
-0.228519
-0.227206
-0.225611
-0.223653
-0.221285
-0.218473
-0.215184
-0.211392
-0.207079
-0.202235
-0.196863
-0.190976
-0.184602
-0.177786
-0.170588
-0.163083
-0.155363
-0.147532
-0.139708
-0.132019
-0.124598
-0.117584
-0.111113
-0.105316
-0.100321
-0.0962382
-0.093149
-0.0909973
-0.0903036
-0.0906219
-0.0919716
-0.0942725
-0.0973547
-0.100971
-0.104775
-0.10834
-0.111221
-0.112964
-0.113153
-0.111096
-0.106742
-0.100134
-0.0911928
-0.0805389
-0.0683572
-0.0555863
-0.0424593
-0.0298484
-0.0180403
-0.00746056
0.00113063
0.00802457
0.0115631
0.0117408
0.00805639
-0.230447
-0.229985
-0.230097
-0.230272
-0.230395
-0.230508
-0.23061
-0.230668
-0.23065
-0.230526
-0.230264
-0.229826
-0.229172
-0.228244
-0.226983
-0.225461
-0.223566
-0.221253
-0.218487
-0.215235
-0.211471
-0.207176
-0.202339
-0.196961
-0.191056
-0.184652
-0.177793
-0.170538
-0.162966
-0.15517
-0.147256
-0.139345
-0.13157
-0.124069
-0.116984
-0.11046
-0.104633
-0.0996353
-0.0955771
-0.0925268
-0.0903116
-0.0899537
-0.0904438
-0.091987
-0.0945015
-0.0978015
-0.101631
-0.10562
-0.109327
-0.112273
-0.114038
-0.114119
-0.112016
-0.107531
-0.10077
-0.0916791
-0.0808964
-0.0686223
-0.055791
-0.0426436
-0.0300355
-0.0182565
-0.00772794
0.000814485
0.00760214
0.0111025
0.0112029
0.00748121
-0.228843
-0.228995
-0.229207
-0.229358
-0.229495
-0.229622
-0.22971
-0.229726
-0.229641
-0.229423
-0.229035
-0.228434
-0.227581
-0.226429
-0.224888
-0.223049
-0.220809
-0.218111
-0.214925
-0.211222
-0.206982
-0.202195
-0.196861
-0.19099
-0.184611
-0.177767
-0.170519
-0.162942
-0.15513
-0.147193
-0.139253
-0.131444
-0.123908
-0.116791
-0.110241
-0.104399
-0.0994026
-0.0953747
-0.0924535
-0.0910017
-0.0899854
-0.0905127
-0.0921609
-0.0947946
-0.0982108
-0.10215
-0.106236
-0.110018
-0.112887
-0.114633
-0.114597
-0.112418
-0.107825
-0.100958
-0.0917881
-0.080959
-0.0686819
-0.0558785
-0.042793
-0.0302618
-0.018571
-0.00814702
0.000318781
0.00697507
0.0104543
0.0105146
0.00687553
-0.227072
-0.22731
-0.22758
-0.227783
-0.227964
-0.228127
-0.228249
-0.228303
-0.228261
-0.22809
-0.227755
-0.227216
-0.226422
-0.225315
-0.223837
-0.222066
-0.219928
-0.21733
-0.214239
-0.21063
-0.206481
-0.201785
-0.196539
-0.190753
-0.184453
-0.177681
-0.170496
-0.162974
-0.155207
-0.147304
-0.139389
-0.131595
-0.124066
-0.116951
-0.110399
-0.104556
-0.0995618
-0.0955467
-0.0926403
-0.0909914
-0.0902163
-0.0907695
-0.0924411
-0.0951063
-0.098541
-0.102499
-0.106689
-0.110148
-0.113099
-0.114761
-0.114605
-0.11234
-0.107666
-0.100745
-0.0915633
-0.080767
-0.0685696
-0.0558742
-0.042923
-0.0305329
-0.0189801
-0.00870408
-0.000336375
0.00617395
0.00964962
0.00971196
0.00626071
-0.224941
-0.225302
-0.225595
-0.225847
-0.226066
-0.226239
-0.226343
-0.226352
-0.226237
-0.225963
-0.225492
-0.22478
-0.223773
-0.222388
-0.220505
-0.218517
-0.216082
-0.213137
-0.209663
-0.205647
-0.201084
-0.195973
-0.190321
-0.184152
-0.177506
-0.17044
-0.163028
-0.155361
-0.147546
-0.139704
-0.131971
-0.124489
-0.117407
-0.110875
-0.105042
-0.100049
-0.0960257
-0.0930918
-0.0913449
-0.0906364
-0.0911921
-0.0928016
-0.0954118
-0.0987838
-0.10272
-0.106349
-0.110112
-0.112924
-0.114455
-0.114175
-0.111825
-0.1071
-0.100176
-0.091049
-0.0803582
-0.0683147
-0.0557971
-0.0430421
-0.0308469
-0.019473
-0.00937914
-0.0011258
0.00523215
0.00872115
0.00882744
0.00565198
-0.221836
-0.222329
-0.222748
-0.223099
-0.223399
-0.223643
-0.223814
-0.223889
-0.223842
-0.223643
-0.223256
-0.222638
-0.221747
-0.220536
-0.218966
-0.216772
-0.214451
-0.211681
-0.208372
-0.204514
-0.200113
-0.195171
-0.189691
-0.183696
-0.177223
-0.170326
-0.163074
-0.155556
-0.147877
-0.140155
-0.132523
-0.125123
-0.118101
-0.111609
-0.105794
-0.100799
-0.0967526
-0.0937698
-0.0919305
-0.0911755
-0.0915539
-0.0931685
-0.0957055
-0.0988809
-0.102407
-0.106249
-0.109751
-0.112387
-0.113758
-0.113351
-0.110925
-0.106182
-0.0993048
-0.0902938
-0.0797725
-0.0679467
-0.0556654
-0.0431576
-0.0312006
-0.0200378
-0.0101514
-0.00202378
0.00418224
0.00770029
0.00788973
0.00505994
-0.218696
-0.219276
-0.219756
-0.220162
-0.220499
-0.220752
-0.220904
-0.220934
-0.220813
-0.220508
-0.219981
-0.219186
-0.218067
-0.216565
-0.21464
-0.212246
-0.209661
-0.206594
-0.202964
-0.198787
-0.194068
-0.188814
-0.183043
-0.176791
-0.17011
-0.163065
-0.155743
-0.148243
-0.140681
-0.133187
-0.125899
-0.118963
-0.112527
-0.106738
-0.10174
-0.0976594
-0.0946101
-0.0926654
-0.0918147
-0.0920744
-0.093418
-0.0957015
-0.0987782
-0.10226
-0.10582
-0.109079
-0.11151
-0.112705
-0.112181
-0.109702
-0.10498
-0.0981971
-0.0893581
-0.0790627
-0.0675084
-0.0555104
-0.0432892
-0.0316018
-0.0206724
-0.0110081
-0.00301128
0.00305063
0.00661288
0.00692183
0.00449138
-0.215206
-0.215853
-0.216412
-0.216883
-0.217257
-0.217522
-0.217663
-0.217658
-0.217477
-0.217086
-0.216446
-0.215513
-0.214237
-0.212535
-0.210318
-0.207693
-0.204763
-0.201324
-0.197351
-0.19285
-0.187823
-0.182289
-0.176279
-0.169839
-0.163031
-0.155934
-0.148644
-0.141272
-0.133943
-0.126792
-0.11996
-0.113594
-0.107838
-0.102835
-0.0987117
-0.0955805
-0.0935151
-0.0925304
-0.0925916
-0.0937357
-0.0958168
-0.0986087
-0.101818
-0.105111
-0.108106
-0.110306
-0.111309
-0.110679
-0.108175
-0.103517
-0.0968801
-0.0882667
-0.0782473
-0.06701
-0.055333
-0.0434289
-0.0320351
-0.0213557
-0.0119231
-0.00406074
0.00186701
0.00548396
0.00594182
0.00395066
-0.210114
-0.210866
-0.211545
-0.212136
-0.212628
-0.213007
-0.213259
-0.213364
-0.213296
-0.213026
-0.212518
-0.211732
-0.210619
-0.209126
-0.207187
-0.204695
-0.201973
-0.198856
-0.195239
-0.191089
-0.186404
-0.181207
-0.17553
-0.169414
-0.162917
-0.156113
-0.149093
-0.141962
-0.13484
-0.127856
-0.121148
-0.114861
-0.109139
-0.104118
-0.0999259
-0.0966752
-0.0944456
-0.0932664
-0.0931541
-0.0940281
-0.0958022
-0.0982924
-0.10122
-0.104242
-0.106973
-0.10893
-0.109713
-0.10893
-0.106376
-0.101772
-0.0952843
-0.0869067
-0.0771823
-0.0662838
-0.0549589
-0.0434027
-0.0323399
-0.0219449
-0.0127762
-0.00507706
0.000703858
0.00436384
0.00497417
0.00344631
-0.207397
-0.208153
-0.208822
-0.20939
-0.209844
-0.210168
-0.210345
-0.21035
-0.210157
-0.209732
-0.20904
-0.208046
-0.206713
-0.205016
-0.202898
-0.200064
-0.1968
-0.193206
-0.189137
-0.184561
-0.179495
-0.173965
-0.16801
-0.161687
-0.155066
-0.148236
-0.141297
-0.134366
-0.127569
-0.121039
-0.114915
-0.109336
-0.104436
-0.100338
-0.0971496
-0.0949454
-0.0937522
-0.0935679
-0.0943451
-0.0959856
-0.0982923
-0.100994
-0.103753
-0.106209
-0.107915
-0.108499
-0.107555
-0.104896
-0.100261
-0.0938254
-0.0855822
-0.0760659
-0.0654303
-0.0544064
-0.0431599
-0.0324098
-0.022292
-0.0133843
-0.00586119
-0.000228267
0.00344841
0.00417443
0.00304916
-0.203448
-0.20426
-0.204982
-0.205601
-0.2061
-0.206464
-0.206673
-0.206705
-0.206533
-0.206124
-0.205442
-0.204449
-0.203096
-0.201331
-0.199077
-0.196411
-0.193493
-0.19009
-0.186188
-0.181795
-0.176927
-0.17161
-0.165883
-0.159801
-0.153433
-0.146861
-0.140185
-0.133513
-0.126968
-0.120676
-0.114771
-0.109386
-0.104649
-0.100677
-0.0975697
-0.0953982
-0.0941885
-0.0939388
-0.0946044
-0.0960793
-0.0981692
-0.100619
-0.103101
-0.105273
-0.106709
-0.107062
-0.105941
-0.103178
-0.098532
-0.0921753
-0.0841023
-0.0748243
-0.0644808
-0.0537744
-0.0428493
-0.0324114
-0.0225649
-0.0139054
-0.00654499
-0.0010412
0.00264969
0.0034947
0.00270199
-0.199151
-0.200012
-0.200782
-0.201446
-0.201986
-0.202386
-0.202628
-0.202689
-0.202545
-0.202164
-0.201513
-0.200556
-0.199251
-0.197558
-0.195454
-0.192981
-0.190115
-0.186811
-0.183044
-0.178816
-0.174138
-0.169034
-0.163541
-0.157709
-0.151603
-0.145305
-0.138905
-0.13251
-0.126234
-0.120198
-0.11453
-0.109353
-0.104792
-0.100955
-0.0979362
-0.0958011
-0.0945772
-0.0942593
-0.0947978
-0.0960869
-0.0979401
-0.100116
-0.1023
-0.104167
-0.105314
-0.10542
-0.104116
-0.101256
-0.0966138
-0.0903561
-0.0824777
-0.0734619
-0.0634355
-0.053068
-0.0424853
-0.0323765
-0.0228166
-0.0144161
-0.00722668
-0.00185422
0.00184899
0.00282351
0.0023543
-0.19473
-0.195636
-0.196452
-0.197159
-0.19774
-0.198178
-0.198455
-0.198551
-0.198441
-0.198098
-0.197491
-0.196587
-0.19535
-0.193754
-0.19178
-0.189415
-0.186648
-0.183468
-0.179854
-0.175802
-0.171323
-0.166438
-0.161182
-0.155603
-0.149764
-0.14374
-0.137619
-0.131499
-0.12549
-0.119708
-0.11427
-0.109298
-0.104905
-0.101195
-0.0982554
-0.0961479
-0.094899
-0.0944998
-0.0948984
-0.0959917
-0.0976005
-0.0994969
-0.10138
-0.102943
-0.103808
-0.103678
-0.10221
-0.0992672
-0.0946457
-0.0885016
-0.0808301
-0.0720859
-0.0623837
-0.0523599
-0.0421232
-0.0323448
-0.0230728
-0.0149294
-0.0079096
-0.00266211
0.00105708
0.00216921
0.00201481
-0.190224
-0.191172
-0.192028
-0.192775
-0.193394
-0.193868
-0.194181
-0.194312
-0.19424
-0.193938
-0.193377
-0.19253
-0.191365
-0.189857
-0.187984
-0.185727
-0.183086
-0.180051
-0.176601
-0.172734
-0.16846
-0.1638
-0.158787
-0.153467
-0.147897
-0.14215
-0.136308
-0.130465
-0.124722
-0.11919
-0.113981
-0.109207
-0.104976
-0.101386
-0.0985179
-0.0964292
-0.0951446
-0.0946531
-0.0949027
-0.0957927
-0.0971526
-0.0987668
-0.100351
-0.101616
-0.10221
-0.101858
-0.10024
-0.0972311
-0.0926439
-0.0866254
-0.0791701
-0.0707045
-0.0613311
-0.0516535
-0.0417646
-0.0323161
-0.0233316
-0.0154417
-0.00858925
-0.00345895
0.000278991
0.00153579
0.00168555
-0.18565
-0.186638
-0.187531
-0.188315
-0.188969
-0.189477
-0.189824
-0.189991
-0.189956
-0.189696
-0.189185
-0.188396
-0.187303
-0.18588
-0.184108
-0.181969
-0.179461
-0.176574
-0.173293
-0.169614
-0.165548
-0.161116
-0.156348
-0.151288
-0.145989
-0.140519
-0.134956
-0.129388
-0.12391
-0.118626
-0.113642
-0.109062
-0.104989
-0.101513
-0.0987109
-0.0966344
-0.0953069
-0.0947165
-0.0948111
-0.0954939
-0.0966029
-0.0979358
-0.0992247
-0.100201
-0.100535
-0.0999728
-0.0982176
-0.0951566
-0.0906161
-0.0847331
-0.0775016
-0.0693191
-0.0602775
-0.0509468
-0.0414058
-0.0322854
-0.0235873
-0.0159465
-0.00925928
-0.00423839
-0.000480731
0.000926427
0.00136785
-0.181035
-0.18206
-0.182989
-0.183807
-0.184495
-0.185036
-0.185417
-0.185618
-0.185622
-0.185405
-0.184945
-0.184216
-0.183196
-0.18186
-0.180191
-0.178173
-0.1758
-0.173062
-0.169949
-0.166459
-0.162602
-0.158398
-0.153874
-0.149071
-0.144042
-0.138847
-0.13356
-0.128263
-0.123047
-0.118007
-0.113244
-0.108854
-0.104934
-0.101567
-0.0988252
-0.0967563
-0.0953814
-0.094688
-0.0946252
-0.0951
-0.0959601
-0.0970158
-0.0980171
-0.0987132
-0.0987994
-0.0980406
-0.0961625
-0.0930614
-0.0885779
-0.0828379
-0.0758348
-0.0679373
-0.0592272
-0.0502415
-0.0410461
-0.0322501
-0.0238357
-0.0164385
-0.00991421
-0.00499481
-0.0012176
0.000344019
0.00106333
-0.176399
-0.177462
-0.178425
-0.179277
-0.179998
-0.180572
-0.180986
-0.181223
-0.181266
-0.181094
-0.180686
-0.180019
-0.179072
-0.177824
-0.176258
-0.17436
-0.172121
-0.169532
-0.166588
-0.163286
-0.159636
-0.155656
-0.151374
-0.146826
-0.14206
-0.137136
-0.13212
-0.12709
-0.12213
-0.117329
-0.11278
-0.108575
-0.104802
-0.10154
-0.0988547
-0.0967901
-0.0953655
-0.0945679
-0.0943481
-0.0946176
-0.0952339
-0.09602
-0.0967437
-0.0971719
-0.0970236
-0.0960816
-0.0940936
-0.0909635
-0.0865451
-0.0809531
-0.0741799
-0.0665663
-0.0581849
-0.0495396
-0.0406855
-0.0322082
-0.0240737
-0.0169134
-0.0105493
-0.00572335
-0.00192762
-0.000209078
0.000773456
-0.171759
-0.172859
-0.173856
-0.174741
-0.175495
-0.176103
-0.176551
-0.176825
-0.176908
-0.176782
-0.176427
-0.175823
-0.17495
-0.17379
-0.172327
-0.170547
-0.16844
-0.166
-0.163222
-0.160106
-0.15666
-0.1529
-0.148854
-0.144555
-0.140048
-0.135387
-0.130636
-0.125866
-0.121154
-0.116586
-0.112246
-0.108219
-0.104589
-0.101428
-0.0987958
-0.0967336
-0.0952587
-0.0943579
-0.0939844
-0.0940541
-0.0944347
-0.0949613
-0.0954196
-0.0955937
-0.0952252
-0.0941138
-0.0920281
-0.0888786
-0.0845313
-0.0790897
-0.0725456
-0.0652122
-0.0571541
-0.0488427
-0.0403236
-0.0321579
-0.0242982
-0.0173671
-0.0111603
-0.00641992
-0.00260735
-0.00073115
0.000499346
-0.167124
-0.168262
-0.169294
-0.170212
-0.171
-0.171641
-0.172125
-0.172437
-0.172562
-0.172483
-0.172183
-0.171642
-0.170844
-0.169771
-0.168409
-0.166745
-0.16477
-0.162477
-0.159862
-0.156928
-0.153681
-0.150137
-0.146321
-0.142264
-0.138008
-0.133603
-0.129109
-0.12459
-0.12012
-0.115776
-0.111638
-0.107785
-0.104292
-0.101227
-0.0986464
-0.0965861
-0.095062
-0.0940613
-0.0935394
-0.0934173
-0.0935724
-0.093852
-0.0940589
-0.0939937
-0.0934199
-0.0921527
-0.0899806
-0.0868198
-0.0825479
-0.0772571
-0.0709388
-0.0638799
-0.0561377
-0.0481519
-0.03996
-0.0320974
-0.0245064
-0.0177964
-0.0117435
-0.00708122
-0.00325402
-0.00122108
0.000241827
-0.162505
-0.163681
-0.164747
-0.165699
-0.166521
-0.167197
-0.167717
-0.168069
-0.168237
-0.168207
-0.167962
-0.167486
-0.166763
-0.165777
-0.164515
-0.162965
-0.161119
-0.15897
-0.156516
-0.153759
-0.150706
-0.147371
-0.143778
-0.139955
-0.135942
-0.131785
-0.127538
-0.123263
-0.119026
-0.114899
-0.110955
-0.107269
-0.103909
-0.100938
-0.0984065
-0.0963485
-0.0947779
-0.093682
-0.0930189
-0.0927148
-0.0926566
-0.0927032
-0.0926739
-0.092385
-0.0916209
-0.0902111
-0.087963
-0.0847978
-0.0806038
-0.0754626
-0.0693652
-0.0625733
-0.055138
-0.0474679
-0.0395942
-0.0320252
-0.024696
-0.0181984
-0.012296
-0.0077047
-0.00386542
-0.0016783
1.42566e-06
-0.15791
-0.159123
-0.160223
-0.161209
-0.162065
-0.162778
-0.163336
-0.163727
-0.16394
-0.16396
-0.163772
-0.163361
-0.162713
-0.161814
-0.160651
-0.159213
-0.157494
-0.155486
-0.153189
-0.150604
-0.147739
-0.144607
-0.141229
-0.137633
-0.133854
-0.129935
-0.125927
-0.121885
-0.117872
-0.113954
-0.110198
-0.106672
-0.103441
-0.10056
-0.0980772
-0.0960228
-0.0944093
-0.0932243
-0.0924288
-0.0919538
-0.0916957
-0.0915243
-0.0912749
-0.0907784
-0.089839
-0.0882994
-0.0859848
-0.0828209
-0.0787061
-0.0737117
-0.0678288
-0.0612952
-0.0541566
-0.0467914
-0.0392257
-0.03194
-0.0248651
-0.0185708
-0.0128153
-0.00828852
-0.00443995
-0.00210271
-0.000221607
-0.153346
-0.154595
-0.155729
-0.156749
-0.15764
-0.158389
-0.158985
-0.159418
-0.159676
-0.159747
-0.159617
-0.159272
-0.158699
-0.157885
-0.15682
-0.155493
-0.153898
-0.152028
-0.149884
-0.147466
-0.144783
-0.141846
-0.138676
-0.135298
-0.131744
-0.128054
-0.124275
-0.120458
-0.11666
-0.112942
-0.109367
-0.105996
-0.102888
-0.100095
-0.0976606
-0.0956118
-0.0939598
-0.0926928
-0.0917744
-0.0911407
-0.0906969
-0.0903233
-0.0898702
-0.0891823
-0.0880822
-0.0864252
-0.0840528
-0.0808951
-0.0768597
-0.0720084
-0.0663327
-0.0600476
-0.0531945
-0.0461225
-0.0388539
-0.0318408
-0.0250121
-0.0189122
-0.0132995
-0.00883153
-0.00497654
-0.00249463
-0.000427278
-0.14882
-0.150104
-0.151272
-0.152325
-0.153251
-0.154036
-0.154671
-0.155146
-0.155451
-0.155573
-0.155501
-0.155222
-0.154724
-0.153996
-0.153027
-0.151808
-0.150334
-0.148599
-0.146603
-0.144348
-0.14184
-0.139092
-0.136122
-0.132952
-0.129615
-0.126144
-0.122585
-0.118983
-0.115391
-0.111865
-0.108463
-0.105241
-0.102253
-0.099546
-0.0971596
-0.0951188
-0.0934334
-0.0920918
-0.0910608
-0.090281
-0.0896662
-0.0891063
-0.088466
-0.0876028
-0.0863564
-0.0845938
-0.0821718
-0.0790243
-0.0750677
-0.0703551
-0.0648785
-0.0588317
-0.0522523
-0.0454614
-0.0384786
-0.0317268
-0.0251358
-0.0192212
-0.0137475
-0.00933318
-0.00547465
-0.00285473
-0.000615824
-0.144339
-0.145656
-0.146856
-0.147942
-0.148902
-0.149724
-0.150398
-0.150915
-0.151266
-0.15144
-0.151427
-0.151213
-0.15079
-0.150146
-0.149272
-0.14816
-0.146804
-0.1452
-0.143348
-0.14125
-0.138912
-0.136345
-0.133567
-0.130598
-0.127467
-0.124207
-0.120858
-0.117462
-0.114067
-0.110726
-0.10749
-0.104411
-0.101538
-0.0989153
-0.0965774
-0.0945472
-0.0928337
-0.0914255
-0.0902924
-0.0893794
-0.0886083
-0.0878783
-0.087067
-0.0860442
-0.0846654
-0.0828085
-0.0803443
-0.0772106
-0.0733318
-0.068753
-0.063467
-0.0576479
-0.0513302
-0.044808
-0.0380992
-0.0315975
-0.0252354
-0.0194972
-0.0141582
-0.00979341
-0.00593418
-0.00318394
-0.00078767
-0.139909
-0.141257
-0.142488
-0.143606
-0.144599
-0.145456
-0.146169
-0.146729
-0.147126
-0.147353
-0.147397
-0.147249
-0.1469
-0.146339
-0.145558
-0.14455
-0.143309
-0.141833
-0.14012
-0.138173
-0.135999
-0.133607
-0.131013
-0.128236
-0.125304
-0.122245
-0.119096
-0.115896
-0.112691
-0.109526
-0.106449
-0.103508
-0.100747
-0.0982062
-0.0959174
-0.0939008
-0.0921645
-0.0906979
-0.0894732
-0.0884398
-0.087527
-0.0866425
-0.0856762
-0.0845092
-0.0830114
-0.0810709
-0.0785716
-0.0754547
-0.0716523
-0.0672023
-0.0620984
-0.0564962
-0.050428
-0.044162
-0.0377154
-0.0314524
-0.0253104
-0.0197401
-0.0145314
-0.0102126
-0.00635543
-0.0034834
-0.0009434
-0.135536
-0.136913
-0.138173
-0.13932
-0.140346
-0.141238
-0.141989
-0.142591
-0.143035
-0.143312
-0.143415
-0.143332
-0.143055
-0.142575
-0.141885
-0.140979
-0.13985
-0.138497
-0.13692
-0.135119
-0.133102
-0.130877
-0.12846
-0.125868
-0.123124
-0.120258
-0.117301
-0.114289
-0.111264
-0.108268
-0.105344
-0.102535
-0.099883
-0.0974224
-0.0951831
-0.0931831
-0.0914296
-0.0899126
-0.0886067
-0.0874655
-0.0864252
-0.0854016
-0.0842957
-0.0829991
-0.0813952
-0.0793812
-0.0768534
-0.0737561
-0.0700287
-0.0657023
-0.0607719
-0.0553762
-0.0495455
-0.0435233
-0.037327
-0.0312915
-0.0253604
-0.0199498
-0.0148671
-0.0105916
-0.00673902
-0.00375439
-0.00108372
-0.131226
-0.132628
-0.133915
-0.135091
-0.136147
-0.137073
-0.137861
-0.138504
-0.138993
-0.139322
-0.139481
-0.139462
-0.139256
-0.138856
-0.138256
-0.137448
-0.136428
-0.135195
-0.133747
-0.132088
-0.130222
-0.128158
-0.12591
-0.123494
-0.120931
-0.118248
-0.115474
-0.112643
-0.10979
-0.106955
-0.104177
-0.101496
-0.0989488
-0.0965672
-0.0943782
-0.0923978
-0.0906326
-0.0890729
-0.087696
-0.0864592
-0.0853052
-0.0841572
-0.0829265
-0.0815144
-0.0798166
-0.0777389
-0.0751887
-0.0721135
-0.0684595
-0.0642518
-0.0594866
-0.054287
-0.0486819
-0.0428915
-0.0369337
-0.0311147
-0.0253856
-0.0201267
-0.0151656
-0.0109313
-0.00708588
-0.00399831
-0.00120941
-0.126982
-0.128408
-0.129719
-0.130921
-0.132007
-0.132965
-0.133789
-0.134471
-0.135005
-0.135384
-0.135598
-0.135642
-0.135506
-0.135184
-0.13467
-0.133958
-0.133044
-0.131926
-0.130604
-0.12908
-0.127359
-0.125449
-0.123363
-0.121115
-0.118726
-0.116218
-0.113619
-0.110958
-0.10827
-0.105589
-0.102952
-0.100394
-0.0979483
-0.0956444
-0.0935064
-0.0915485
-0.0897768
-0.0881821
-0.0867439
-0.0854233
-0.0841687
-0.0829104
-0.081569
-0.0800548
-0.0782747
-0.0761425
-0.0735758
-0.0705252
-0.0669429
-0.0628491
-0.0582411
-0.0532277
-0.0478367
-0.0422662
-0.0365353
-0.0309222
-0.025386
-0.0202714
-0.0154275
-0.0112331
-0.00739713
-0.00421656
-0.00132133
-0.122811
-0.124256
-0.125589
-0.126815
-0.127928
-0.128917
-0.129775
-0.130496
-0.131073
-0.1315
-0.131769
-0.131873
-0.131805
-0.131559
-0.131128
-0.130509
-0.129697
-0.128691
-0.12749
-0.126096
-0.124514
-0.122752
-0.120821
-0.118734
-0.116509
-0.114168
-0.111735
-0.109238
-0.106707
-0.104174
-0.101672
-0.0992317
-0.096885
-0.0946575
-0.0925711
-0.0906387
-0.0888655
-0.0872431
-0.0857531
-0.0843598
-0.0830172
-0.081662
-0.0802233
-0.0786196
-0.0767682
-0.0745903
-0.0720126
-0.0689888
-0.0654769
-0.0614922
-0.0570339
-0.052197
-0.0470089
-0.041647
-0.0361317
-0.0307141
-0.025362
-0.0203848
-0.0156536
-0.0114983
-0.00767408
-0.00441058
-0.00142034
-0.118714
-0.120177
-0.121529
-0.122776
-0.123913
-0.124931
-0.125822
-0.126579
-0.127198
-0.127672
-0.127994
-0.128157
-0.128155
-0.127982
-0.127633
-0.127103
-0.12639
-0.125491
-0.124406
-0.123137
-0.121688
-0.120068
-0.118284
-0.11635
-0.114283
-0.112101
-0.109827
-0.107486
-0.105105
-0.102713
-0.100339
-0.0980132
-0.0957624
-0.0936101
-0.0915762
-0.089672
-0.0879022
-0.0862591
-0.084726
-0.0832707
-0.0818519
-0.0804124
-0.078889
-0.0772079
-0.0752955
-0.0730801
-0.0704967
-0.0675019
-0.0640589
-0.0601792
-0.0558631
-0.0511937
-0.0461979
-0.0410335
-0.0357229
-0.0304909
-0.0253142
-0.0204678
-0.0158451
-0.0117284
-0.00791818
-0.0045818
-0.00150734
-0.114696
-0.116173
-0.117541
-0.118807
-0.119967
-0.121011
-0.121932
-0.122725
-0.123383
-0.123902
-0.124275
-0.124495
-0.124556
-0.124454
-0.124184
-0.12374
-0.123122
-0.122325
-0.121352
-0.120203
-0.118882
-0.117396
-0.115753
-0.113966
-0.112048
-0.110018
-0.107895
-0.105703
-0.103465
-0.101208
-0.0989579
-0.0967417
-0.0945841
-0.092506
-0.0905252
-0.0886517
-0.08689
-0.0852327
-0.083665
-0.0821577
-0.080674
-0.079162
-0.0775658
-0.0758185
-0.073855
-0.0716098
-0.0690256
-0.0660619
-0.0626866
-0.0589078
-0.0547269
-0.0502164
-0.0454026
-0.0404253
-0.0353088
-0.0302528
-0.0252432
-0.0205214
-0.016003
-0.0119252
-0.00813097
-0.00473159
-0.00158319
-0.110761
-0.112247
-0.113628
-0.114911
-0.116091
-0.117159
-0.118109
-0.118934
-0.119631
-0.120192
-0.120613
-0.120888
-0.121011
-0.120977
-0.120782
-0.120422
-0.119894
-0.119196
-0.11833
-0.117295
-0.116096
-0.114738
-0.11323
-0.111582
-0.109807
-0.107922
-0.105943
-0.103892
-0.10179
-0.0996619
-0.0975311
-0.0954209
-0.0933538
-0.0913487
-0.0894216
-0.0875814
-0.0858321
-0.0841667
-0.0825724
-0.0810225
-0.0794843
-0.0779111
-0.0762532
-0.0744503
-0.0724447
-0.0701771
-0.0675968
-0.0646662
-0.0613575
-0.0576757
-0.0536237
-0.0492638
-0.0446223
-0.0398221
-0.0348894
-0.0300005
-0.0251497
-0.0205469
-0.0161287
-0.0120901
-0.00831403
-0.00486131
-0.00164874
-0.10691
-0.108403
-0.109795
-0.111091
-0.112288
-0.113378
-0.114354
-0.11521
-0.115942
-0.116544
-0.117012
-0.117339
-0.11752
-0.117552
-0.117429
-0.117148
-0.116707
-0.116104
-0.115339
-0.114414
-0.113331