/*--------------------------------*- C++ -*----------------------------------*\
  =========                 |
  \\      /  F ield         | OpenFOAM: The Open Source CFD Toolbox
   \\    /   O peration     | Website:  https://openfoam.org
    \\  /    A nd           | Version:  7
     \\/     M anipulation  |
\*---------------------------------------------------------------------------*/
FoamFile
{
    version     2.0;
    format      ascii;
    class       surfaceScalarField;
    location    "22";
    object      phi;
}
// * * * * * * * * * * * * * * * * * * * * * * * * * * * * * * * * * * * * * //

dimensions      [0 3 -1 0 0 0 0];

internalField   nonuniform List<scalar> 
824
(
0.0266338
-1.7408e-05
0.0266482
-1.44542e-05
0.0266595
-1.13206e-05
0.0266676
-8.02799e-06
0.0266722
-4.60093e-06
0.0266732
-1.06662e-06
0.0266707
2.54491e-06
0.0266645
6.20297e-06
0.0266546
9.87501e-06
0.0266411
1.35307e-05
0.0266239
1.71373e-05
0.0266033
2.06736e-05
0.0265792
2.41032e-05
0.0265517
2.7435e-05
0.0265211
3.0601e-05
0.0264874
3.3706e-05
0.0264509
3.65393e-05
0.0264114
3.95028e-05
0.0263695
4.19035e-05
0.0263245
4.49652e-05
0.0262778
4.67567e-05
5.01857e-05
0.0257246
-3.38978e-05
0.0257382
-2.80531e-05
0.0257487
-2.18594e-05
0.025756
-1.53586e-05
0.02576
-8.59949e-06
0.0257606
-1.63617e-06
0.0257577
5.47214e-06
0.0257512
1.26646e-05
0.0257412
1.98777e-05
0.0257277
2.70512e-05
0.0257107
3.41229e-05
0.0256903
4.10482e-05
0.0256667
4.77635e-05
0.0256398
5.42724e-05
0.02561
6.04737e-05
0.0255772
6.65101e-05
0.0255416
7.20988e-05
0.0255033
7.77806e-05
0.0254626
8.26712e-05
0.0254192
8.83347e-05
0.0253735
9.2421e-05
9.84675e-05
0.0248646
-4.92237e-05
0.0248771
-4.05157e-05
0.0248865
-3.13038e-05
0.0248928
-2.16518e-05
0.0248959
-1.16331e-05
0.0248956
-1.32852e-06
0.0248919
9.1736e-06
0.0248847
1.97832e-05
0.0248742
3.04065e-05
0.0248603
4.09554e-05
0.0248431
5.13393e-05
0.0248227
6.14929e-05
0.0247991
7.13273e-05
0.0247725
8.08429e-05
0.0247431
8.99087e-05
0.0247109
9.87071e-05
0.0246761
0.000106885
0.0246387
0.000115132
0.0245991
0.000122353
0.0245569
0.000130514
0.0245126
0.000136685
0.00014536
0.0240494
-6.31705e-05
0.0240605
-5.15992e-05
0.0240686
-3.93867e-05
0.0240735
-2.66198e-05
0.0240753
-1.33972e-05
0.0240738
1.72891e-07
0.024069
1.39737e-05
0.0240609
2.7886e-05
0.0240495
4.17876e-05
0.0240349
5.55634e-05
0.0240171
6.90973e-05
0.0239963
8.2305e-05
0.0239726
9.50756e-05
0.023946
0.000107409
0.0239168
0.000119148
0.023885
0.000130518
0.0238507
0.0001411
0.0238141
0.000151732
0.0237754
0.000161117
0.0237343
0.000171627
0.0236912
0.000179743
0.000190964
0.0232748
-7.55416e-05
0.0232843
-6.10861e-05
0.0232908
-4.58729e-05
0.0232942
-3.0013e-05
0.0232944
-1.36315e-05
0.0232914
3.13547e-06
0.0232853
2.01432e-05
0.0232759
3.72439e-05
0.0232634
5.42879e-05
0.0232478
7.11356e-05
0.0232293
8.76472e-05
0.0232079
0.000103723
0.0231837
0.000119232
0.0231569
0.00013418
0.0231277
0.000148383
0.0230961
0.000162118
0.0230623
0.000174897
0.0230263
0.000187728
0.0229883
0.000199086
0.0229482
0.0002118
0.0229062
0.000221712
0.000235391
0.0225373
-8.6151e-05
0.022545
-6.87762e-05
0.0225497
-5.05506e-05
0.0225513
-3.16112e-05
0.0225498
-1.21104e-05
0.0225451
7.7874e-06
0.0225373
2.79095e-05
0.0225265
4.80806e-05
0.0225127
6.81253e-05
0.0224959
8.78818e-05
0.0224764
0.000107189
0.0224542
0.000125935
0.0224294
0.000143974
0.0224023
0.000161319
0.0223729
0.000177762
0.0223414
0.000193646
0.0223079
0.0002084
0.0222724
0.000223233
0.0222351
0.000236361
0.0221958
0.00025113
0.0221548
0.000262684
0.00027874
0.0218338
-9.48191e-05
0.0218395
-7.44811e-05
0.0218422
-5.32257e-05
0.0218418
-3.12173e-05
0.0218383
-8.63655e-06
0.0218317
1.43237e-05
0.0218222
3.74632e-05
0.0218097
6.05805e-05
0.0217943
8.34763e-05
0.0217763
0.000105969
0.0217556
0.00012788
0.0217324
0.000149089
0.021707
0.000169435
0.0216793
0.00018895
0.0216497
0.000207401
0.0216181
0.000225205
0.0215848
0.000241706
0.0215497
0.000258337
0.021513
0.000273027
0.0214745
0.000289703
0.0214344
0.000302735
0.000321101
0.0211613
-0.00010137
0.0211648
-7.8022e-05
0.0211653
-5.37188e-05
0.0211628
-2.86538e-05
0.0211572
-3.03689e-06
0.0211486
2.29115e-05
0.0211371
4.89636e-05
0.0211228
7.48941e-05
0.0211058
0.000100482
0.0210862
0.000125528
0.0210642
0.00014984
0.02104
0.000173295
0.0210138
0.000195719
0.0209855
0.00021717
0.0209555
0.000237388
0.0209239
0.000256881
0.0208907
0.000274893
0.0208559
0.00029312
0.0208198
0.000309154
0.0207819
0.000327598
0.0207427
0.000341941
0.000362572
0.0205173
-0.000105631
0.0205185
-7.92279e-05
0.0205167
-5.18633e-05
0.0205118
-2.37607e-05
0.0205039
4.84044e-06
0.0204931
3.36931e-05
0.0204795
6.25428e-05
0.0204633
9.11427e-05
0.0204445
0.000119252
0.0204234
0.000146661
0.0204001
0.000173163
0.0203747
0.000198638
0.0203475
0.000222906
0.0203186
0.000246053
0.0202882
0.000267797
0.0202564
0.000288745
0.0202232
0.000308034
0.0201887
0.000327656
0.020153
0.000344822
0.0201157
0.000364903
0.0200773
0.000380386
0.000403263
0.0198994
-0.000107433
0.0198981
-7.79359e-05
0.0198938
-4.75051e-05
0.0198864
-1.63942e-05
0.0198761
1.51286e-05
0.019863
4.67891e-05
0.0198472
7.83099e-05
0.019829
0.000109424
0.0198083
0.000139876
0.0197856
0.000169446
0.0197608
0.000197921
0.0197342
0.000225187
0.0197061
0.000251062
0.0196765
0.000275665
0.0196456
0.000298695
0.0196135
0.000320871
0.0195803
0.00034121
0.0195459
0.000362034
0.0195106
0.000380125
0.0194738
0.000401727
0.019436
0.00041818
0.000443314
0.0193054
-0.00010661
0.0193015
-7.39908e-05
0.0192945
-4.05006e-05
0.0192845
-6.42427e-06
0.0192717
2.79445e-05
0.0192562
6.23038e-05
0.0192381
9.63565e-05
0.0192177
0.00012982
0.0191952
0.000162426
0.0191707
0.00019395
0.0191444
0.000224178
0.0191166
0.000253005
0.0190874
0.000280253
0.019057
0.000306079
0.0190255
0.000330167
0.0189931
0.000353349
0.0189597
0.000374528
0.0189254
0.000396369
0.0188903
0.000415199
0.0188538
0.000438216
0.0188165
0.000455478
0.000482901
0.0187333
-0.000103
0.0187266
-6.72437e-05
0.0187168
-3.07152e-05
0.0187041
6.27031e-06
0.0186887
4.33945e-05
0.0186706
8.0331e-05
0.0186502
0.000116766
0.0186276
0.000152404
0.0186031
0.000186971
0.0185768
0.000220241
0.018549
0.000252003
0.0185198
0.000282166
0.0184895
0.000310564
0.0184582
0.000337388
0.018426
0.000362324
0.0183931
0.000386304
0.0183595
0.000408139
0.018325
0.000430822
0.01829
0.000450231
0.0182536
0.000474559
0.0182166
0.000492491
0.000522246
0.0181812
-9.64409e-05
0.0181715
-5.75471e-05
0.0181588
-1.80175e-05
0.0181433
2.1809e-05
0.0181251
6.15843e-05
0.0181044
0.000100966
0.0180816
0.000139627
0.0180567
0.000177262
0.0180301
0.000213596
0.0180019
0.000248405
0.0179725
0.000281491
0.0179418
0.000312777
0.0179103
0.000342115
0.0178779
0.000369732
0.0178449
0.000395327
0.0178113
0.000419915
0.0177772
0.000442252
0.0177424
0.000465608
0.0177072
0.00048548
0.0176707
0.000511003
0.0176337
0.0005295
0.00056161
0.0176473
-8.67644e-05
0.0176345
-4.47461e-05
0.0176187
-2.26668e-06
0.0176002
4.03203e-05
0.0175791
8.2634e-05
0.0175558
0.000124323
0.0175304
0.000165049
0.0175031
0.000204504
0.0174743
0.000242416
0.0174441
0.00027857
0.0174128
0.000312783
0.0173806
0.000344993
0.0173477
0.000375086
0.0173141
0.000403306
0.01728
0.000429403
0.0172455
0.000454422
0.0172106
0.000477147
0.0171752
0.000501007
0.0171394
0.000521275
0.0171026
0.000547841
0.0170652
0.000566851
0.000601283
0.0171297
-7.37823e-05
0.0171136
-2.86669e-05
0.0170946
1.67098e-05
0.017073
6.19612e-05
0.0170489
0.000106698
0.0170227
0.000150555
0.0169946
0.000193189
0.0169648
0.000234295
0.0169336
0.000273607
0.0169012
0.000310923
0.0168679
0.000346083
0.0168339
0.00037904
0.0167992
0.000409724
0.0167642
0.000438382
0.0167287
0.00046485
0.016693
0.000490139
0.016657
0.000513173
0.0166206
0.000537355
0.0165839
0.000558005
0.0165463
0.000585403
0.0165082
0.000604941
0.000641555
0.0166267
-5.72649e-05
0.0166071
-9.08543e-06
0.0165847
3.91235e-05
0.0165597
8.69478e-05
0.0165324
0.000133991
0.0165031
0.000179881
0.016472
0.000224273
0.0164394
0.000266869
0.0164056
0.000307418
0.0163708
0.000345729
0.0163352
0.000381675
0.016299
0.000415219
0.0162624
0.000446353
0.0162255
0.000475298
0.0161883
0.00050203
0.016151
0.000527431
0.0161135
0.000550728
0.0160758
0.000575022
0.0160377
0.000596097
0.0159991
0.000624023
0.0159599
0.000644183
0.000682685
0.0161363
-3.69158e-05
0.0161129
1.42941e-05
0.0160868
6.52674e-05
0.0160581
0.000115574
0.0160273
0.000164812
0.0159946
0.000212604
0.0159602
0.000258613
0.0159246
0.000302549
0.0158878
0.000344181
0.0158502
0.000383335
0.015812
0.000419918
0.0157733
0.000453901
0.0157343
0.000485354
0.0156951
0.000514443
0.0156558
0.000541344
0.0156166
0.000566692
0.0155771
0.000590224
0.0155377
0.000614378
0.0154978
0.000635965
0.0154579
0.000663995
0.0154171
0.000684965
0.000724852
0.0156562
-1.23396e-05
0.0156286
4.18662e-05
0.0155983
9.55367e-05
0.0155656
0.000148237
0.0155309
0.000199557
0.0154944
0.000249124
0.0154564
0.000296611
0.0154172
0.00034174
0.0153771
0.000384305
0.0153363
0.000424148
0.015295
0.000461222
0.0152534
0.000495494
0.0152116
0.000527134
0.0151698
0.000556216
0.015128
0.000583186
0.0150864
0.000608294
0.0150446
0.000632033
0.0150032
0.000655737
0.0149612
0.000677956
0.0149197
0.000705526
0.0148771
0.000727584
0.000768113
0.0151835
1.69832e-05
0.0151513
7.41414e-05
0.0151164
0.000130439
0.0150792
0.000185434
0.01504
0.000238718
0.0149992
0.000289924
0.0149571
0.000338738
0.0149139
0.000384902
0.01487
0.000428236
0.0148255
0.000468601
0.0147807
0.000506
0.0147358
0.000540393
0.0146909
0.000572066
0.0146462
0.000600963
0.0146015
0.000627878
0.0145572
0.0145129
0.0144693
0.014425
0.0143818
0.0143372
0.014715
0.0146774
0.0146373
0.014595
0.0145509
0.0145053
0.0144585
0.0144109
0.0143628
0.0143143
0.0142657
0.0142172
0.0141688
0.0141209
)
;

boundaryField
{
    inlet
    {
        type            calculated;
        value           nonuniform 0();
    }
    outlet
    {
        type            calculated;
        value           nonuniform List<scalar> 
19
(
0.0262276
0.0253252
0.0244657
0.0236456
0.0228618
0.0221115
0.0213921
0.0207012
0.0200366
0.0193959
0.018777
0.0181773
0.0175944
0.0170255
0.016468
0.0159187
0.0153749
0.0148338
0.014293
)
;
    }
    cylinder
    {
        type            calculated;
        value           nonuniform 0();
    }
    top
    {
        type            symmetryPlane;
        value           nonuniform 0();
    }
    bottom
    {
        type            symmetryPlane;
        value           uniform 0;
    }
    defaultFaces
    {
        type            empty;
        value           nonuniform 0();
    }
    procBoundary5to4
    {
        type            processor;
        value           nonuniform List<scalar> 
21
(
-0.0266164
-0.0257081
-0.0248493
-0.0240354
-0.0232624
-0.0225267
-0.0218251
-0.0211547
-0.020513
-0.0198976
-0.0193063
-0.0187369
-0.0181878
-0.0176569
-0.0171427
-0.0166432
-0.0161566
-0.0156807
-0.0152129
-0.0147498
5.16957e-05
)
;
    }
    procBoundary5to11
    {
        type            processor;
        value           nonuniform List<scalar> 
22
(
0.000652521
0.000676421
0.000699295
0.000722284
0.000748681
0.000772197
0.000812362
0.000111745
0.000170577
0.000227745
0.000282847
0.000335525
0.000385486
0.000432491
0.000476393
0.000517076
0.000554597
0.000588902
0.000620413
0.000648905
0.0140732
0.000675597
)
;
    }
}


// ************************************************************************* //
