0.11487 	0.495143 	-1.25107e-18 	0.468283 	-0.0200243 	7.64433e-17
