0.168689 	0.484853 	-1.15726e-18 	0.83663 	-0.0334964 	1.16965e-17
0.170319 	0.489539 	-7.78055e-19 	0.816801 	-0.0295425 	2.9073e-17
0.172269 	0.495143 	-1.42632e-18 	0.304173 	-0.00400918 	1.24016e-16
