0.206637 	0.462342 	-3.4679e-19 	0.436863
0.208319 	0.466103 	2.41535e-18 	0.434978
0.210413 	0.470789 	2.48285e-18 	0.433294
0.21292 	0.476399 	2.81025e-18 	0.431502
0.217109 	0.485771 	3.53742e-18 	0.429975
0.219602 	0.491348 	4.38184e-18 	0.428747
0.221696 	0.496034 	3.45072e-18 	0.427882
