0.126079 	0.495143 	1.04971e-18 	0.431795 	-0.0169953 	7.93574e-17
