/*--------------------------------*- C++ -*----------------------------------*\
  =========                 |
  \\      /  F ield         | OpenFOAM: The Open Source CFD Toolbox
   \\    /   O peration     | Website:  https://openfoam.org
    \\  /    A nd           | Version:  7
     \\/     M anipulation  |
\*---------------------------------------------------------------------------*/
FoamFile
{
    version     2.0;
    format      ascii;
    class       surfaceScalarField;
    location    "11";
    object      phi;
}
// * * * * * * * * * * * * * * * * * * * * * * * * * * * * * * * * * * * * * //

dimensions      [0 3 -1 0 0 0 0];

internalField   nonuniform List<scalar> 
819
(
0.000467042
0.000913428
0.000698426
0.00030366
0.00036368
0.000801788
0.000463158
0.000139507
0.000532512
0.000179922
0.000612333
0.000223839
0.000269427
0.000706587
0.000342627
0.000397059
8.50746e-05
0.000459752
0.00011723
0.000532283
0.000151308
0.000185113
0.000616596
0.000336968
0.000392329
0.000456176
8.74615e-05
0.000111792
0.000529497
0.000383117
0.000445273
0.0130559
0.000336166
0.0129795
0.000411636
0.000481053
0.0132059
-0.000905219
0.0132203
-0.000852001
0.0132268
-0.000793667
0.013225
-0.000729177
0.0132149
-0.000658679
0.0131963
-0.000582463
0.0131693
-0.000500825
0.013134
-0.000414239
0.0130903
-0.000323396
0.0130388
-0.000229168
0.0129797
-0.000132593
0.0129137
-3.48756e-05
0.0128416
6.26524e-05
0.0127643
0.000158559
0.0126828
0.000251362
0.0125984
0.00033963
0.0125125
0.000422059
0.0124266
0.000497594
0.000565557
0.0128322
-0.000916169
0.0128352
-0.000855032
0.0128296
-0.000788041
0.012815
-0.000714637
0.0127917
-0.000635312
0.0127596
-0.000550341
0.0127187
-0.000460003
0.0126694
-0.000364867
0.0126117
-0.000265757
0.0125462
-0.000163682
0.0124735
-5.98302e-05
0.0123942
4.44417e-05
0.0123092
0.000147632
0.0122196
0.000248145
0.0121266
0.000344354
0.0120315
0.000434681
0.0119359
0.000517703
0.0118412
0.000592274
0.000657666
0.0124352
-0.000912324
0.0124234
-0.000843207
0.0124025
-0.000767169
0.0123725
-0.000684558
0.0123335
-0.000596308
0.0122857
-0.000502599
0.0122294
-0.00040368
0.0121648
-0.000300233
0.0120922
-0.000193225
0.0120123
-8.37961e-05
0.0119258
2.67267e-05
0.0118334
0.000136831
0.0117362
0.000244858
0.0116352
0.000349071
0.0115319
0.0004477
0.0114275
0.000539038
0.0113237
0.000621551
0.011222
0.000694007
0.000755628
0.0120018
-0.000889798
0.0119718
-0.000813235
0.0119329
-0.000728248
0.011885
-0.000636671
0.0118286
-0.000539931
0.011764
-0.000438007
0.0116914
-0.000331113
0.0116113
-0.000220077
0.0115241
-0.000106011
0.0114304
9.84496e-06
0.0113311
0.000126039
0.0112271
0.000240884
0.0111193
0.000352621
0.011009
0.000459372
0.0108975
0.000559241
0.0107861
0.000650403
0.0106764
0.000731218
0.0105701
0.000800371
0.000857027
0.0115175
-0.000845374
0.0114669
-0.000762614
0.0114081
-0.000669433
0.0113412
-0.000569837
0.011267
-0.000465678
0.0111856
-0.000356625
0.0110974
-0.000242903
0.0110028
-0.000125503
0.0109025
-5.70575e-06
0.0107971
0.000115299
0.0106873
0.000235759
0.0105742
0.000353992
0.0104588
0.00046809
0.0103421
0.000576067
0.0102254
0.00067591
0.0101101
0.000765682
0.00999769
0.000843637
0.00988969
0.000908368
0.000958972
0.0109692
-0.000777393
0.0108969
-0.000690385
0.010818
-0.000590511
0.0107328
-0.000484609
0.0106418
-0.000374729
0.0105454
-0.000260167
0.0104437
-0.000141258
0.0103374
-1.92015e-05
0.010227
0.000104771
0.0101131
0.000229175
0.0099965
0.000352349
0.00987804
0.000472453
0.00975864
0.000587492
0.00963933
0.000695375
0.00952126
0.000793979
0.00940569
0.000881248
0.00929401
0.000955322
0.00918769
0.00101469
0.00105835
0.0103468
-0.000686591
0.0102542
-0.00059778
0.0101571
-0.000493411
0.010056
-0.000383582
0.00995147
-0.000270154
0.00984341
-0.000152105
0.00973218
-3.00275e-05
0.00961819
9.47895e-05
0.00950198
0.000220975
0.0093841
0.000347055
0.00926515
0.000471302
0.00914581
0.000591794
0.00902685
0.000706449
0.00890916
0.000813069
0.00879373
0.00090941
0.00868169
0.000993286
0.00857431
0.0010627
0.00847299
0.00111601
0.0011521
0.00964595
-0.000576631
0.00953674
-0.00048857
0.00942571
-0.000382382
0.00931352
-0.000271395
0.00920017
-0.000156807
0.00908556
-3.74865e-05
0.00896989
8.56385e-05
0.00885355
0.000211129
0.00873685
0.00033767
0.00862015
0.000463755
0.00850386
0.000587602
0.00838843
0.00070722
0.00827445
0.000820429
0.00816261
0.000924906
0.00805376
0.00101827
0.00794888
0.00109816
0.00784913
0.00116245
0.00775583
0.00120931
0.0012375
0.00886968
-0.000454098
0.00875004
-0.000368926
0.00863137
-0.000263715
0.00851431
-0.000154332
0.00839839
-4.08947e-05
0.00828336
7.75526e-05
0.00816938
0.000199618
0.00805659
0.000323912
0.00794507
0.000449191
0.00783491
0.000573918
0.00772625
0.000696258
0.00761934
0.000814128
0.00751455
0.000925221
0.0074124
0.00102706
0.00731359
0.00111708
0.00721899
0.00119276
0.00712968
0.00125176
0.0070469
0.00129208
0.00131231
0.00802883
-0.000327866
0.0079067
-0.000246794
0.00778806
-0.000145072
0.00767338
-3.96481e-05
0.00756183
7.065e-05
0.00745308
0.000186306
0.00734714
0.000305552
0.00724386
0.000427198
0.00714297
0.000550076
0.00704429
0.000672602
0.0069477
0.000792846
0.00685324
0.000908587
0.00676111
0.00101735
0.00667171
0.00111646
0.00658564
0.00120315
0.0065037
0.0012747
0.00642692
0.00132855
0.0063565
0.0013625
0.00137495
0.00714113
-0.000207973
0.00702525
-0.000130915
0.00691476
-3.45773e-05
0.00681006
6.50533e-05
0.00670989
0.000170816
0.00661401
0.000282187
0.00652213
0.000397433
0.00643368
0.000515645
0.00634809
0.00063567
0.00626489
0.000755802
0.00618379
0.000873951
0.00610467
0.0009877
0.00602767
0.00109435
0.00595311
0.00119101
0.00588156
0.0012747
0.0058138
0.00134246
0.00575083
0.00139152
0.00569386
0.00141947
0.0014245
0.00622892
-0.000104352
0.00612783
-2.98224e-05
0.00603352
5.9737e-05
0.00594591
0.000152658
0.00586377
0.000252952
0.00578668
0.000359284
0.00571389
0.000470217
0.00564445
0.000585086
0.00557752
0.000702605
0.00551248
0.00082084
0.00544897
0.000937462
0.00538687
0.0010498
0.0053263
0.00115492
0.00526762
0.00124969
0.00521142
0.0013309
0.0051585
0.00139539
0.00510986
0.00144015
0.00506674
0.00146259
0.00146067
0.00531606
-2.5899e-05
0.00523777
4.84667e-05
0.00516697
0.000130533
0.00510309
0.00021654
0.0050447
0.000311345
0.00499103
0.000412951
0.00494085
0.000520389
0.00489295
0.00063299
0.00484642
0.000749131
0.00480071
0.000866558
0.00475552
0.000982649
0.00471085
0.00109447
0.00466693
0.00119884
0.0046242
0.00129242
0.00458331
0.00137179
0.00454511
0.00143359
0.00451063
0.00147463
0.00448115
0.00149207
0.00148373
0.00442566
1.91337e-05
0.00437742
9.67027e-05
0.00433718
0.000170775
0.0043027
0.000251022
0.0042723
0.000341743
0.00424483
0.000440421
0.00421879
0.000546424
0.00419307
0.000658717
0.004167
0.000775203
0.00414027
0.000893283
0.00411286
0.00101006
0.00408496
0.00112237
0.00405696
0.00122684
0.00402943
0.00131995
0.00400311
0.00139812
0.00397888
0.00145782
0.00395785
0.00149566
0.00394127
0.00150865
0.00149439
0.00357787
2.1015e-05
0.00356748
0.000107095
0.00356451
0.000173742
0.00356374
0.000251797
0.00356339
0.000342093
0.00356245
0.000441358
0.00355985
0.000549024
0.00355506
0.000663512
0.00354795
0.000782313
0.00353864
0.000902584
0.00352746
0.00102125
0.00351483
0.001135
0.00350133
0.00124033
0.00348765
0.00133363
0.00347461
0.00141116
0.00346317
0.00146926
0.00345443
0.0015044
0.00344968
0.0015134
0.0014937
0.00278852
-4.39638e-05
0.00282877
6.68486e-05
0.00287012
0.000132385
0.00290416
0.000217757
0.00293242
0.000313841
0.00295533
0.000418444
0.00297313
0.000531229
0.00298628
0.000650358
0.00299535
0.000773244
0.00300092
0.00089701
0.00300364
0.00101853
0.00300416
0.00113447
0.00300322
0.00124128
0.0030016
0.00133525
0.00300017
0.00141259
0.00299993
0.00146951
0.003002
0.00150233
0.00300767
0.00150773
0.000984585
-0.00011512
0.0010342
1.72331e-05
0.00105931
0.000107271
0.00107373
0.000203338
0.00108202
0.000305552
0.00108595
0.000414519
0.00108694
0.00053024
0.00108633
0.000650959
0.00108529
0.000774286
0.00108481
0.000897496
0.00108576
0.00101759
0.00108891
0.00113132
0.00109495
0.00123524
0.00110447
0.00132572
0.00111802
0.00139905
0.00113606
0.00145146
0.00115904
0.00147935
0.00147944
0.000868782
-0.000182115
0.000920454
-3.44392e-05
0.0009531
7.46255e-05
0.00097452
0.000181918
0.000988876
0.000291196
0.000998135
0.000405259
0.00100401
0.000524368
0.00100796
0.000647009
0.00101118
0.000771061
0.00101471
0.000893967
0.00101943
0.00101287
0.00102611
0.00112464
0.00103543
0.00122592
0.00104798
0.00131318
0.0010643
0.00138273
0.00108488
0.00143088
0.00111017
0.00145406
0.00144904
0.000766468
-0.000241996
0.000814189
-8.21607e-05
0.000849484
3.93305e-05
0.000875127
0.000156275
0.000893821
0.000272502
0.000907356
0.000391725
0.000917442
0.000514282
0.000925522
0.00063893
0.000932772
0.00076381
0.000940199
0.00088654
0.00094867
0.0010044
0.000958926
0.00111438
0.00097162
0.00121323
0.000987335
0.00129746
0.0010066
0.00136346
0.00102991
0.00140757
0.0010577
0.00142627
0.00141635
0.000664689
-0.000290089
0.000708651
-0.000126123
0.000744467
3.51371e-06
0.000772717
0.000128025
0.000794694
0.000250525
0.000811856
0.000374563
0.000825762
0.000500376
0.000837752
0.00062694
0.000848932
0.000752631
0.000860257
0.000875214
0.000872549
0.000992104
0.000886508
0.00110042
0.000902753
0.00119698
0.000921842
0.00127837
0.000944288
0.00134101
0.000970571
0.00138129
0.00100114
0.0013957
0.00138106
0.00056697
-0.000327562
0.000606216
-0.000165369
0.000641112
-3.13821e-05
0.000670286
9.8851e-05
0.000694357
0.000226455
0.000714299
0.000354621
0.000731428
0.000483247
0.000746913
0.000611455
0.000761743
0.000737801
0.000776796
0.000860162
0.000792824
0.000976075
0.00081047
0.00108277
0.000830307
0.00117714
0.000852859
0.00125582
0.000878617
0.00131526
0.000908045
0.00135186
0.000941591
0.00136215
0.00134297
0.000473664
0.000507254
0.000539842
0.000568767
0.000593888
0.000615825
0.000635602
0.000654173
0.000672373
0.000690974
0.000710642
0.000731945
0.000755399
0.000781484
0.00081066
0.000843373
0.000880056
)
;

boundaryField
{
    inlet
    {
        type            calculated;
        value           nonuniform 0();
    }
    outlet
    {
        type            calculated;
        value           nonuniform 0();
    }
    cylinder
    {
        type            calculated;
        value           nonuniform 0();
    }
    top
    {
        type            symmetryPlane;
        value           nonuniform 0();
    }
    bottom
    {
        type            symmetryPlane;
        value           nonuniform 0();
    }
    defaultFaces
    {
        type            empty;
        value           nonuniform 0();
    }
    procBoundary10to3
    {
        type            processor;
        value           nonuniform List<scalar> 
13
(
-0.0131839
-0.0128212
-0.0124391
-0.0120243
-0.0115619
-0.0110372
-0.0104376
-0.00975591
-0.00899221
-0.00815507
-0.00726103
-0.00633254
-0.00539451
)
;
    }
    procBoundary10to4
    {
        type            processor;
        value           nonuniform List<scalar> 
20
(
-0.000260711
-0.000335268
-0.000405168
0.000883305
0.000837539
0.000787175
0.000730965
0.000668825
0.000601009
0.000527809
0.000449621
0.000367015
0.000280729
0.000191659
0.000100846
9.47963e-06
-8.12171e-05
-0.000169887
-0.0131314
-0.000255263
)
;
    }
    procBoundary10to9
    {
        type            processor;
        value           nonuniform List<scalar> 
12
(
-0.000566004
-0.000814466
-0.000387668
-0.000200324
-0.000614418
-0.000249276
-0.000402341
-0.000104475
-0.000295067
-0.00447069
-0.00357975
-0.00272354
)
;
    }
    procBoundary10to11
    {
        type            processor;
        value           nonuniform List<scalar> 
19
(
0.0129037
0.0123421
0.0117491
0.011124
0.0104687
0.00978775
0.00908831
0.00837924
0.00767044
0.00697209
0.00629386
0.00564431
0.00503057
0.00445809
0.00393061
0.00345036
0.00301836
0.00148301
0.00118734
)
;
    }
    procBoundary10to16
    {
        type            processor;
        value           nonuniform List<scalar> 
25
(
5.69154e-05
-0.000289054
3.7161e-05
6.18689e-05
-0.000328474
3.28197e-05
4.96366e-05
-0.000355954
-0.000198959
-6.39691e-05
6.99254e-05
0.000201332
0.000332685
0.000463468
0.000592883
0.000719603
0.000841562
0.000956405
0.00106147
0.00115369
0.00122973
0.00128608
0.00131915
0.00132546
0.0013019
)
;
    }
    procBoundary10to17
    {
        type            processor;
        value           nonuniform List<scalar> 5(0.00114056 0.0010904 0.00103643 0.00097968 0.000921132);
    }
}


// ************************************************************************* //
