0.135798 	0.489332 	-2.04203e-18 	0.949514 	-0.0311835 	3.69002e-16
0.13774 	0.49633 	-1.23965e-18 	0.560132 	-0.0143132 	5.96175e-16
