0.24776 	0.447347 	-2.12142e-18 	1.0539 	-0.0205294 	-7.85184e-16
0.251636 	0.454344 	-8.5807e-19 	1.05805 	-0.0210843 	-1.33014e-15
0.255511 	0.461342 	-6.5148e-19 	1.06244 	-0.0216508 	3.63477e-16
0.258725 	0.467144 	3.16609e-19 	1.065 	-0.0222321 	-5.40922e-17
0.260662 	0.470642 	1.21712e-18 	1.06637 	-0.0198661 	3.36053e-15
0.263262 	0.475337 	1.30048e-18 	1.05306 	-0.0197554 	2.83656e-16
0.267138 	0.482335 	1.01688e-18 	0.983513 	-0.0174736 	-1.26556e-16
0.271014 	0.489332 	1.48427e-18 	0.759934 	-0.011495 	-1.9781e-16
0.274889 	0.49633 	1.14087e-18 	0.26922 	-0.000353955 	3.99922e-16
