0.226831 	0.454344 	4.53601e-19 	1.05477 	-0.0239169 	-1.4067e-16
0.230324 	0.461342 	5.04337e-19 	1.0592 	-0.0246657 	1.60078e-15
0.233818 	0.468339 	3.09629e-18 	1.0624 	-0.025452 	1.8743e-15
0.237312 	0.475337 	2.68295e-18 	1.05552 	-0.0258956 	-3.91731e-17
0.239529 	0.479779 	2.43382e-18 	1.00358 	-0.0241786 	-2.94333e-16
0.241276 	0.483278 	2.16253e-18 	0.992934 	-0.0211602 	1.02982e-16
0.244299 	0.489332 	1.92419e-18 	0.781544 	-0.0150358 	2.40196e-16
0.247792 	0.49633 	2.08359e-18 	0.284934 	-0.00173056 	-6.52416e-16
