0.197421 	0.468339 	-4.33681e-19 	2.41147
0.199448 	0.473148 	-4.28297e-20 	2.41087
0.200923 	0.476646 	1.47591e-18 	2.4062
0.203321 	0.482335 	2.45052e-18 	2.40539
0.20627 	0.489332 	3.16114e-18 	2.40457
0.20922 	0.49633 	4.17885e-18 	2.40409
