0.167813 	0.482335 	-1.86263e-18 	1.02729 	-0.0313877 	8.93671e-17
0.170247 	0.489332 	-2.17926e-18 	0.89554 	-0.0278621 	3.77572e-16
0.172682 	0.49633 	-2.19785e-18 	0.439143 	-0.0104473 	-5.75327e-16
