0.0929957 	0.49633 	-3.06307e-18 	0.697747 	-0.0168013 	3.39742e-16
