0.0826367 	0.499829 	1.00497e-18 	0.697747 	-0.0168013 	3.39742e-16
