/*--------------------------------*- C++ -*----------------------------------*\
  =========                 |
  \\      /  F ield         | OpenFOAM: The Open Source CFD Toolbox
   \\    /   O peration     | Website:  https://openfoam.org
    \\  /    A nd           | Version:  7
     \\/     M anipulation  |
\*---------------------------------------------------------------------------*/
FoamFile
{
    version     2.0;
    format      ascii;
    class       volVectorField;
    location    "91.999852";
    object      U;
}
// * * * * * * * * * * * * * * * * * * * * * * * * * * * * * * * * * * * * * //

dimensions      [0 1 -1 0 0 0 0];

internalField   nonuniform List<vector> 
5800
(
(-0.000631925 0.00243088 -2.11113e-21)
(-0.00368877 0.00654677 -7.44667e-21)
(-0.00992319 0.0101133 1.35497e-21)
(-0.0181936 0.0131456 5.13167e-21)
(-0.0279798 0.0156614 2.18669e-21)
(-0.0388689 0.017706 -5.33152e-21)
(-0.0504586 0.0193536 -1.69467e-21)
(-0.0624074 0.020702 -6.65887e-22)
(-0.0744378 0.0218619 -6.13012e-21)
(-0.0863293 0.0229408 -1.18167e-21)
(0.00709273 0.00912454 -6.33667e-21)
(0.0375395 0.0204536 -2.15589e-20)
(0.0935172 0.0262491 3.94533e-21)
(0.158495 0.0281429 1.43236e-20)
(0.225178 0.0276748 5.87865e-21)
(0.290052 0.0260611 -1.40446e-20)
(0.35138 0.024073 -4.26412e-21)
(0.408683 0.0220828 -1.7127e-21)
(0.46201 0.0202183 -8.60086e-21)
(0.511542 0.0185033 -7.64314e-21)
(0.557484 0.016932 -9.57607e-21)
(0.00707466 -0.00818157 6.33892e-21)
(0.037499 -0.0182491 2.15648e-20)
(0.0934647 -0.0232911 -3.94666e-21)
(0.158438 -0.024829 -1.4327e-20)
(0.225121 -0.024266 -5.87998e-21)
(0.289997 -0.0226969 1.40475e-20)
(0.351328 -0.0208104 4.26556e-21)
(0.408634 -0.0189362 1.71343e-21)
(0.461963 -0.0171866 1.43785e-20)
(0.511498 -0.0155818 2.52791e-21)
(0.557442 -0.0141158 9.57853e-21)
(0.6 -0.0127788 -1.3824e-21)
(0.639377 -0.0115608 4.503e-21)
(0.675768 -0.0104522 -7.58439e-21)
(0.709364 -0.00944372 9.10211e-21)
(0.740351 -0.00852703 9.27534e-21)
(0.768909 -0.00769428 2.58974e-21)
(0.79519 -0.006934 -1.31316e-20)
(0.819311 -0.00623041 1.0557e-20)
(0.841425 -0.00558917 -1.51802e-21)
(0.00838877 -0.0254067 -9.31866e-21)
(0.040365 -0.0567924 -1.39968e-20)
(0.0970435 -0.0726498 -4.28325e-21)
(0.162193 -0.0776263 -1.23895e-20)
(0.228747 -0.0760499 2.73553e-21)
(0.293353 -0.071317 -1.78998e-20)
(0.354374 -0.0655722 -6.51357e-21)
(0.411377 -0.0598474 -1.39449e-20)
(0.464427 -0.0544959 7.65049e-21)
(0.513707 -0.049582 -1.80253e-20)
(0.559421 -0.0450884 -5.47732e-20)
(0.601772 -0.0409852 8.68429e-21)
(0.640962 -0.0372421 -1.20294e-20)
(0.677185 -0.0338298 7.10113e-21)
(0.710631 -0.0307199 -1.68567e-20)
(0.741482 -0.0278871 1.73988e-21)
(0.76992 -0.0253073 -8.6235e-21)
(0.796102 -0.0229448 4.88697e-20)
(0.820133 -0.020751 -4.74573e-21)
(0.842115 -0.0187437 5.99518e-21)
(0.0110174 -0.0423859 -2.85449e-20)
(0.0461049 -0.094851 -2.78915e-20)
(0.104218 -0.121457 6.3854e-21)
(0.169728 -0.129894 1.35458e-20)
(0.236028 -0.127358 5.63826e-21)
(0.300096 -0.119518 -1.74093e-20)
(0.360497 -0.109965 -2.49138e-20)
(0.416894 -0.100431 5.24629e-20)
(0.469383 -0.0915147 -1.42445e-20)
(0.518155 -0.0833244 1.84235e-20)
(0.563408 -0.0758326 2.87366e-20)
(0.605344 -0.0689896 4.90167e-21)
(0.64416 -0.0627452 8.04374e-21)
(0.680047 -0.0570502 1.73452e-20)
(0.71319 -0.0518579 -1.78416e-20)
(0.743769 -0.0471262 1.6869e-20)
(0.771966 -0.0428143 -1.98573e-21)
(0.797949 -0.0388627 -4.77667e-20)
(0.8218 -0.0351926 3.17251e-20)
(0.843516 -0.031841 -2.57668e-20)
(0.0149254 -0.0589567 2.19286e-20)
(0.054653 -0.132105 -3.50309e-20)
(0.114917 -0.169347 5.1504e-20)
(0.180977 -0.181279 -2.3232e-20)
(0.246907 -0.177874 1.21885e-19)
(0.310176 -0.167022 7.15167e-20)
(0.369654 -0.153743 -4.37059e-20)
(0.425147 -0.140471 -1.02502e-19)
(0.476801 -0.12805 4.00579e-20)
(0.524812 -0.116638 2.69799e-20)
(0.569378 -0.106197 3.58314e-20)
(0.610694 -0.096658 -6.98471e-20)
(0.648951 -0.0879514 -8.08486e-20)
(0.684337 -0.0800091 6.08195e-20)
(0.717028 -0.0727659 4.71001e-20)
(0.747199 -0.0661634 -1.6053e-20)
(0.775036 -0.0601443 3.48032e-20)
(0.800721 -0.0546246 2.09773e-21)
(0.824301 -0.0494995 -5.16077e-20)
(0.845626 -0.044834 -1.62142e-20)
(0.0200604 -0.0749616 -8.08675e-20)
(0.0659114 -0.16824 -2.23698e-20)
(0.129033 -0.215963 -7.76387e-20)
(0.195841 -0.231438 2.22685e-20)
(0.261298 -0.227287 -1.15574e-19)
(0.323521 -0.213556 -6.82753e-20)
(0.381782 -0.196666 7.95441e-20)
(0.436081 -0.179754 9.75957e-20)
(0.486629 -0.163913 -8.64516e-20)
(0.533635 -0.149355 2.25865e-20)
(0.577292 -0.136032 -3.16089e-20)
(0.617787 -0.123859 1.21722e-19)
(0.655305 -0.112745 -3.8498e-20)
(0.690027 -0.102604 -1.35286e-20)
(0.722121 -0.0933535 -7.82157e-21)
(0.751752 -0.0849196 -2.71878e-20)
(0.779111 -0.0772278 -6.63697e-20)
(0.804398 -0.0701692 -1.36449e-21)
(0.827621 -0.0636183 1.83538e-20)
(0.848438 -0.0576796 -1.73036e-20)
(0.0263531 -0.0902492 -5.27707e-20)
(0.0797506 -0.202956 -2.2272e-20)
(0.146426 -0.260957 1.25469e-19)
(0.214189 -0.280034 6.89318e-20)
(0.279088 -0.275296 2.84253e-20)
(0.340033 -0.258853 -8.7521e-20)
(0.396796 -0.238501 -1.0048e-19)
(0.449621 -0.218072 1.1931e-20)
(0.498802 -0.19892 2.30084e-20)
(0.544565 -0.181312 1.73271e-20)
(0.587098 -0.165195 5.64221e-20)
(0.626578 -0.150464 -1.24257e-19)
(0.663183 -0.137012 1.76487e-21)
(0.697083 -0.124734 4.32483e-20)
(0.728437 -0.113533 2.61097e-21)
(0.757401 -0.103317 -8.49391e-21)
(0.784167 -0.0939967 -2.1935e-20)
(0.808959 -0.0854368 8.13118e-20)
(0.83174 -0.0774957 -3.51302e-20)
(0.851944 -0.0703319 2.85955e-20)
(0.0337186 -0.104676 8.36603e-20)
(0.0960107 -0.235961 -4.42161e-20)
(0.166919 -0.303994 -5.09234e-20)
(0.23586 -0.326743 -4.71478e-20)
(0.300136 -0.321608 -9.31263e-20)
(0.359591 -0.302657 -1.19941e-20)
(0.414592 -0.27902 1.59862e-20)
(0.465675 -0.255226 -3.64402e-20)
(0.513239 -0.232893 5.23112e-20)
(0.557531 -0.212351 4.40065e-21)
(0.598733 -0.193544 -2.21135e-20)
(0.637013 -0.176349 1.00838e-19)
(0.672535 -0.160643 2.97944e-20)
(0.705463 -0.146304 -2.90999e-20)
(0.735941 -0.133218 6.46684e-20)
(0.764113 -0.121281 -6.83674e-20)
(0.790176 -0.110385 -7.36484e-21)
(0.814376 -0.100369 8.55044e-21)
(0.836635 -0.0910794 9.49917e-20)
(0.856133 -0.0827443 -5.31784e-20)
(0.0420569 -0.11811 2.863e-20)
(0.114503 -0.266985 3.34968e-20)
(0.190307 -0.344755 1.47298e-19)
(0.26066 -0.371255 6.22738e-20)
(0.324274 -0.365942 2.13361e-19)
(0.382052 -0.344721 1.78937e-20)
(0.435046 -0.318008 9.96581e-20)
(0.484135 -0.291024 6.92097e-20)
(0.529845 -0.265663 -1.48312e-19)
(0.572449 -0.242322 -2.35852e-20)
(0.612123 -0.220946 -5.52182e-20)
(0.649024 -0.201397 -6.85078e-20)
(0.683305 -0.183534 2.25961e-20)
(0.715115 -0.167221 7.05413e-20)
(0.744587 -0.152328 -6.19936e-20)
(0.77185 -0.13874 -5.45989e-20)
(0.797102 -0.12633 5.33531e-20)
(0.820616 -0.114911 -7.13542e-20)
(0.842279 -0.104319 -1.02843e-19)
(0.860991 -0.09487 -2.77859e-20)
(0.0512541 -0.130427 -8.22259e-20)
(0.13501 -0.295772 -8.39101e-20)
(0.216349 -0.382943 -4.38492e-20)
(0.288368 -0.413274 -1.04027e-19)
(0.35131 -0.408031 -5.0893e-20)
(0.407251 -0.384811 -1.20877e-19)
(0.458015 -0.355259 -1.04911e-19)
(0.504875 -0.325285 3.92422e-20)
(0.548509 -0.297069 6.06255e-20)
(0.589221 -0.271083 -1.06175e-19)
(0.627183 -0.247275 6.62078e-20)
(0.662538 -0.225495 -4.44068e-20)
(0.695425 -0.205586 -5.94335e-20)
(0.725981 -0.187397 -6.23594e-20)
(0.754325 -0.170786 1.7549e-19)
(0.780568 -0.155625 7.81555e-20)
(0.804906 -0.141772 1.89206e-20)
(0.827645 -0.12901 -8.14043e-20)
(0.848641 -0.117166 1.70705e-19)
(0.866501 -0.106663 6.36761e-20)
(0.0611839 -0.14152 -1.07076e-19)
(0.157289 -0.32209 1.22673e-19)
(0.244777 -0.418278 1.2034e-19)
(0.318733 -0.452526 1.26345e-19)
(0.381027 -0.447627 7.59915e-20)
(0.435003 -0.422706 1.84015e-20)
(0.483339 -0.39058 1.21214e-19)
(0.527757 -0.35784 -1.46949e-19)
(0.569108 -0.32696 -4.11344e-20)
(0.607739 -0.2985 -3.46622e-20)
(0.643816 -0.272413 1.53368e-19)
(0.677469 -0.248538 -2.13017e-20)
(0.708822 -0.226705 1.80591e-20)
(0.737998 -0.20675 3.90272e-21)
(0.765099 -0.188517 6.24934e-20)
(0.790218 -0.171871 -7.82106e-20)
(0.813546 -0.156654 1.57615e-20)
(0.835423 -0.142616 1.78982e-19)
(0.855688 -0.129575 -2.56962e-20)
(0.872644 -0.11808 -1.15325e-19)
(0.0717085 -0.151292 -6.40232e-20)
(0.181076 -0.34573 2.13971e-20)
(0.275295 -0.450507 -1.27801e-19)
(0.35148 -0.488757 -6.28433e-20)
(0.413183 -0.484496 -8.35153e-20)
(0.465103 -0.458204 -6.75298e-21)
(0.510842 -0.423795 -1.62495e-19)
(0.552626 -0.388533 1.43211e-19)
(0.591507 -0.355199 6.27365e-20)
(0.627882 -0.324449 2.65259e-20)
(0.661918 -0.29625 -1.489e-19)
(0.693726 -0.270429 2.65486e-20)
(0.723415 -0.246806 -1.8817e-20)
(0.751093 -0.225202 -8.10004e-20)
(0.776845 -0.205455 -7.5735e-20)
(0.800744 -0.187418 1.24407e-19)
(0.822973 -0.170922 6.30489e-20)
(0.843907 -0.155684 -3.62761e-20)
(0.863383 -0.141505 -1.01458e-19)
(0.879396 -0.129077 1.51048e-20)
(0.0826808 -0.159665 8.66636e-20)
(0.206081 -0.366511 3.9502e-20)
(0.307581 -0.479402 4.87362e-20)
(0.386304 -0.521735 5.44255e-20)
(0.447517 -0.518425 -5.79395e-20)
(0.497326 -0.491116 1.27546e-19)
(0.540333 -0.454739 -1.26382e-19)
(0.579315 -0.41722 -5.19013e-21)
(0.615558 -0.381658 1.00784e-19)
(0.649523 -0.348819 2.11413e-20)
(0.681374 -0.318685 8.87339e-20)
(0.711208 -0.291079 -3.73595e-20)
(0.739116 -0.265808 2.34059e-20)
(0.765189 -0.242685 1.4937e-19)
(0.789497 -0.221537 -8.8998e-21)
(0.812089 -0.202212 -4.39436e-20)
(0.833137 -0.18453 -9.30397e-20)
(0.853052 -0.168172 -1.53057e-19)
(0.871688 -0.152917 -2.37568e-20)
(0.886732 -0.139619 1.54114e-19)
(0.0939458 -0.166574 1.01119e-19)
(0.231999 -0.384278 3.97535e-21)
(0.341289 -0.504763 -1.86922e-19)
(0.422882 -0.551252 7.46472e-20)
(0.483744 -0.549223 1.71199e-22)
(0.531432 -0.521275 7.96024e-20)
(0.571604 -0.483268 7.59835e-20)
(0.607646 -0.443774 -6.88369e-21)
(0.641106 -0.406227 -4.28179e-20)
(0.672522 -0.37151 -1.49152e-19)
(0.702063 -0.339631 4.55892e-20)
(0.729808 -0.310409 1.88492e-19)
(0.755831 -0.283643 -1.3241e-19)
(0.780206 -0.259135 -1.09508e-19)
(0.802984 -0.236706 -6.8753e-20)
(0.82419 -0.216201 -1.64696e-19)
(0.843982 -0.197432 4.84987e-20)
(0.862807 -0.180043 2.30609e-19)
(0.88056 -0.163779 -3.46825e-20)
(0.894625 -0.149669 -4.34301e-20)
(0.105342 -0.171974 4.24664e-20)
(0.258508 -0.398908 -6.66673e-20)
(0.376051 -0.526423 5.83029e-20)
(0.460865 -0.57713 -9.43117e-20)
(0.521562 -0.576721 1.04019e-19)
(0.567164 -0.548532 -1.04019e-19)
(0.604439 -0.509252 -2.5378e-20)
(0.63743 -0.468084 1.12045e-19)
(0.667985 -0.428805 -8.63615e-20)
(0.696735 -0.392434 9.58262e-20)
(0.723857 -0.35901 -1.13588e-19)
(0.749414 -0.32835 -6.55205e-20)
(0.773462 -0.300247 -4.63115e-20)
(0.796056 -0.274497 7.1856e-20)
(0.817229 -0.250914 1.4444e-20)
(0.836981 -0.229341 8.83522e-20)
(0.855449 -0.209589 -5.92196e-20)
(0.87312 -0.191264 -4.01073e-21)
(0.889952 -0.174063 9.05568e-20)
(0.903044 -0.1592 -4.10969e-20)
(0.116706 -0.175837 -9.90959e-21)
(0.285272 -0.410309 -3.96783e-20)
(0.411484 -0.544245 -7.54304e-21)
(0.499887 -0.599217 -2.20337e-20)
(0.56065 -0.600775 -7.12865e-20)
(0.604253 -0.57276 -6.16759e-20)
(0.638608 -0.532583 -4.0742e-20)
(0.668468 -0.490055 -5.64162e-20)
(0.696021 -0.449311 1.16574e-19)
(0.722009 -0.411518 1.25796e-20)
(0.746622 -0.376754 1.79466e-19)
(0.76991 -0.344841 5.54986e-20)
(0.791906 -0.315567 6.04801e-20)
(0.812649 -0.288723 -9.66978e-20)
(0.832155 -0.264117 1.47273e-19)
(0.850395 -0.241594 -2.637e-20)
(0.867479 -0.220967 -1.52336e-20)
(0.883934 -0.201809 -1.29809e-19)
(0.899816 -0.183751 6.033e-20)
(0.911957 -0.168191 -4.84719e-20)
(0.127869 -0.178154 -8.11286e-20)
(0.311947 -0.418423 -3.56541e-20)
(0.447187 -0.558129 -5.34965e-20)
(0.539564 -0.617392 -4.66572e-20)
(0.600674 -0.621264 -1.1927e-20)
(0.642413 -0.593851 1.24924e-19)
(0.67387 -0.553171 1.06211e-19)
(0.700555 -0.50961 9.01479e-20)
(0.725035 -0.467677 -9.15694e-20)
(0.748186 -0.428701 -5.29477e-20)
(0.77022 -0.392811 -1.88536e-19)
(0.791172 -0.359835 1.47224e-19)
(0.811056 -0.32956 -5.64102e-20)
(0.829893 -0.301773 1.02213e-19)
(0.84768 -0.276278 -7.59195e-20)
(0.864361 -0.252923 2.78935e-20)
(0.880007 -0.231527 -3.68323e-20)
(0.895186 -0.21164 1.1601e-19)
(0.910094 -0.192815 -9.15573e-20)
(0.921334 -0.176619 -4.03536e-20)
(0.138665 -0.178934 9.13006e-20)
(0.338183 -0.423227 -3.42554e-20)
(0.482745 -0.568008 6.44444e-20)
(0.579496 -0.631563 6.70029e-20)
(0.641282 -0.638095 -2.06603e-20)
(0.681351 -0.611723 -1.34383e-19)
(0.709978 -0.570944 9.64408e-20)
(0.73348 -0.526692 -1.87598e-20)
(0.754844 -0.483851 2.98358e-20)
(0.775106 -0.443938 3.58583e-20)
(0.794509 -0.407139 -7.42061e-20)
(0.813078 -0.373294 -1.74689e-19)
(0.830805 -0.342191 7.57944e-21)
(0.847691 -0.313615 -1.72262e-20)
(0.863721 -0.28737 5.09414e-21)
(0.878808 -0.263306 8.85235e-20)
(0.892973 -0.241258 -8.53477e-20)
(0.906809 -0.220764 -1.30812e-19)
(0.920719 -0.201292 -3.42288e-20)
(0.931149 -0.184527 6.88355e-20)
(0.148929 -0.178206 7.87021e-21)
(0.363626 -0.424734 -3.93055e-20)
(0.517739 -0.573854 8.54585e-21)
(0.619272 -0.641675 -5.07862e-20)
(0.682111 -0.651202 -2.04634e-20)
(0.720761 -0.626316 -1.41918e-20)
(0.746678 -0.585854 2.23776e-20)
(0.767026 -0.541258 -6.85236e-20)
(0.78526 -0.497801 -1.59176e-20)
(0.802605 -0.457198 4.45017e-20)
(0.819346 -0.419709 2.97085e-20)
(0.835501 -0.385192 1.09276e-19)
(0.851041 -0.353436 1.08293e-19)
(0.865948 -0.324228 -2.75645e-20)
(0.880194 -0.297369 7.58297e-21)
(0.89367 -0.272712 3.02428e-20)
(0.906325 -0.250105 1.11486e-19)
(0.918742 -0.229081 1.30633e-19)
(0.931608 -0.209034 1.46164e-19)
(0.941398 -0.191801 -1.85372e-20)
(0.158501 -0.176018 -1.25381e-20)
(0.387927 -0.422993 2.45962e-20)
(0.55174 -0.575677 2.51892e-20)
(0.658469 -0.647703 1.87385e-20)
(0.722789 -0.660547 -4.25764e-20)
(0.760329 -0.637592 1.36348e-19)
(0.783709 -0.597872 -3.98523e-20)
(0.800974 -0.553287 1.13097e-20)
(0.816095 -0.509507 -5.89958e-20)
(0.830517 -0.468466 -6.01862e-21)
(0.844586 -0.430508 9.98096e-20)
(0.858314 -0.395513 -5.01308e-20)
(0.871654 -0.363279 -1.81167e-20)
(0.884565 -0.333596 -4.51704e-20)
(0.89701 -0.306265 4.32578e-20)
(0.908868 -0.281143 -8.58851e-20)
(0.920004 -0.2581 3.33685e-20)
(0.930901 -0.236708 -2.15897e-20)
(0.942575 -0.216359 9.52153e-21)
(0.952038 -0.198968 4.24042e-20)
(0.167229 -0.172437 -6.58352e-21)
(0.410738 -0.418091 8.91041e-22)
(0.584321 -0.573524 -2.50425e-21)
(0.696659 -0.649656 -9.4798e-21)
(0.762932 -0.66612 1.79554e-20)
(0.799736 -0.645538 -8.56378e-20)
(0.820807 -0.606989 -8.85563e-21)
(0.835103 -0.562777 -4.80162e-20)
(0.847159 -0.518969 7.42167e-20)
(0.85868 -0.47774 5.6668e-20)
(0.870085 -0.439532 -9.52172e-20)
(0.881392 -0.404255 7.3225e-20)
(0.892534 -0.371718 -6.1597e-20)
(0.903448 -0.341714 1.39553e-20)
(0.914086 -0.314048 -1.94703e-19)
(0.924331 -0.288573 6.66271e-21)
(0.933988 -0.265158 -6.67184e-20)
(0.943337 -0.243366 -9.66098e-20)
(0.953588 -0.222534 -5.75913e-20)
(0.963355 -0.204767 -9.30244e-20)
(0.174979 -0.167556 1.46688e-20)
(0.431718 -0.410142 -2.14522e-20)
(0.615058 -0.567484 9.37892e-21)
(0.733409 -0.647583 1.11186e-20)
(0.802152 -0.667939 2.40189e-22)
(0.838656 -0.650165 3.96863e-20)
(0.857705 -0.613217 -2.05952e-20)
(0.869191 -0.569741 -1.54131e-20)
(0.878265 -0.526203 -8.70366e-21)
(0.886928 -0.485034 -3.49889e-20)
(0.895701 -0.446792 2.4765e-20)
(0.904609 -0.411426 -7.00399e-20)
(0.913572 -0.378756 6.0174e-20)
(0.922503 -0.348586 6.03137e-20)
(0.931339 -0.320723 1.08194e-19)
(0.939979 -0.295016 3.66476e-20)
(0.948219 -0.271334 7.45001e-20)
(0.95609 -0.249343 8.20295e-20)
(0.964418 -0.228956 7.36044e-20)
(0.973946 -0.212371 3.68859e-20)
(0.181676 -0.161486 4.14866e-20)
(0.450531 -0.399273 -1.35349e-20)
(0.64353 -0.55769 -1.6995e-20)
(0.768285 -0.641563 -2.89395e-20)
(0.840056 -0.666051 6.94929e-21)
(0.876757 -0.651506 -1.32021e-20)
(0.894134 -0.616588 1.68335e-20)
(0.903019 -0.574213 -6.81736e-21)
(0.909226 -0.531239 -3.02852e-20)
(0.915102 -0.490376 -1.01192e-20)
(0.921292 -0.452313 8.19259e-20)
(0.927843 -0.417046 1.91332e-20)
(0.934659 -0.38441 1.33203e-20)
(0.941637 -0.354222 -4.89763e-20)
(0.94869 -0.326298 -1.47597e-19)
(0.95573 -0.300484 4.60497e-20)
(0.96259 -0.276642 3.04136e-20)
(0.969134 -0.254546 -8.53142e-20)
(0.975695 -0.234391 -4.78555e-20)
(0.983633 -0.217017 -2.30764e-20)
(0.187182 -0.154212 -4.82898e-20)
(0.466901 -0.385613 3.20248e-20)
(0.669329 -0.544346 -6.82413e-20)
(0.800865 -0.631716 2.73131e-21)
(0.876248 -0.660535 1.83619e-20)
(0.913708 -0.649617 -1.37774e-20)
(0.929826 -0.617151 8.45504e-21)
(0.936368 -0.576241 1.11871e-21)
(0.939861 -0.534126 3.00145e-20)
(0.943047 -0.493809 2.66843e-20)
(0.946724 -0.45613 -5.43047e-20)
(0.950973 -0.421144 -9.54115e-20)
(0.955693 -0.388705 3.5212e-20)
(0.960758 -0.358644 2.87163e-20)
(0.966062 -0.330789 7.66604e-20)
(0.971519 -0.304983 -9.83308e-21)
(0.977013 -0.281074 8.39022e-22)
(0.982358 -0.258913 2.83559e-21)
(0.987468 -0.23887 -7.50664e-21)
(0.993534 -0.221039 -1.12315e-19)
(0.191317 -0.145913 6.69974e-20)
(0.480583 -0.369534 7.25575e-20)
(0.692013 -0.527627 7.1882e-20)
(0.830768 -0.618191 1.72749e-20)
(0.910343 -0.651492 -2.50254e-20)
(0.949174 -0.644576 -1.99432e-20)
(0.964511 -0.614976 -1.15292e-20)
(0.969023 -0.575891 2.15538e-22)
(0.969992 -0.534924 -8.77288e-21)
(0.970609 -0.495387 -1.36673e-20)
(0.971864 -0.458292 5.00095e-21)
(0.973885 -0.423761 4.11713e-20)
(0.97657 -0.391676 -3.56668e-20)
(0.979779 -0.36188 2.78125e-21)
(0.983384 -0.334215 -1.8946e-20)
(0.987292 -0.30853 -1.06423e-20)
(0.991435 -0.284656 5.85159e-21)
(0.995644 -0.262502 -1.80982e-20)
(0.999562 -0.242585 1.74291e-20)
(1.004 -0.224566 1.04294e-19)
(0.194025 -0.136822 4.83792e-20)
(0.49134 -0.351267 -1.4017e-19)
(0.711188 -0.507764 7.24207e-20)
(0.857489 -0.601201 2.11217e-20)
(0.941983 -0.639038 -4.95962e-20)
(0.982825 -0.636478 2.54911e-20)
(0.997921 -0.610145 1.91224e-21)
(1.00077 -0.573242 -1.38393e-20)
(0.999447 -0.533709 2.03622e-21)
(0.997647 -0.49518 4.07184e-22)
(0.996587 -0.458858 -5.27539e-21)
(0.996469 -0.424948 1.22966e-20)
(0.997196 -0.393364 2.20911e-20)
(0.998615 -0.363965 -3.68257e-20)
(1.00058 -0.336609 1.9766e-20)
(1.00299 -0.311154 -6.66854e-21)
(1.00581 -0.287423 2.04916e-20)
(1.00891 -0.265361 -3.27745e-22)
(1.01174 -0.245595 2.36097e-20)
(1.01477 -0.227534 -3.06342e-20)
(0.195284 -0.127111 -6.21803e-21)
(0.498943 -0.331074 -5.42639e-20)
(0.726628 -0.485059 -4.51318e-20)
(0.880551 -0.580945 2.70926e-20)
(0.970719 -0.623353 -5.40448e-21)
(1.01434 -0.625427 2.691e-20)
(1.02979 -0.602758 1.28397e-20)
(1.0314 -0.568387 3.29838e-21)
(1.02806 -0.530567 1.41453e-21)
(1.02402 -0.493266 -1.87478e-21)
(1.02078 -0.457898 -7.35493e-22)
(1.01862 -0.424765 -4.35475e-21)
(1.01748 -0.393821 6.86172e-21)
(1.01719 -0.364944 -3.19381e-22)
(1.01759 -0.338009 -2.6847e-20)
(1.01857 -0.312887 4.90732e-20)
(1.0201 -0.289401 -2.4163e-20)
(1.02208 -0.267514 -2.33848e-20)
(1.02387 -0.247912 -1.03972e-20)
(1.02559 -0.229905 -1.82071e-20)
(0.195073 -0.116915 -1.86913e-20)
(0.503213 -0.309258 1.16309e-19)
(0.738059 -0.459818 3.88996e-20)
(0.899654 -0.557692 -1.06871e-19)
(0.996091 -0.604622 -1.94465e-20)
(1.04335 -0.611566 3.21839e-20)
(1.05984 -0.592919 1.38176e-20)
(1.06071 -0.561429 3.51642e-20)
(1.05567 -0.525598 -2.18529e-21)
(1.0496 -0.489735 3.22409e-21)
(1.04432 -0.45549 1.98519e-21)
(1.04025 -0.423281 8.30111e-21)
(1.03733 -0.393107 1.15956e-21)
(1.03542 -0.364868 1.37906e-20)
(1.03433 -0.338459 -9.36988e-21)
(1.03394 -0.313765 -6.23692e-20)
(1.03425 -0.290618 -2.9464e-20)
(1.03513 -0.268979 3.07178e-20)
(1.0359 -0.249557 1.56176e-20)
(1.03638 -0.231688 -6.80679e-21)
(0.193378 -0.106376 1.09431e-19)
(0.504032 -0.286149 -1.55792e-19)
(0.745196 -0.432389 -1.39017e-19)
(0.914505 -0.53172 1.67711e-19)
(1.01775 -0.583057 4.17841e-20)
(1.06949 -0.595063 -2.65842e-20)
(1.08781 -0.580755 -4.61893e-20)
(1.0885 -0.552481 -4.5236e-20)
(1.08213 -0.518908 2.82369e-20)
(1.07426 -0.484687 7.13714e-21)
(1.06712 -0.451724 7.89742e-21)
(1.06126 -0.420571 4.52271e-21)
(1.05668 -0.391285 -3.56799e-21)
(1.05323 -0.363793 2.96713e-21)
(1.05074 -0.338004 1.1036e-20)
(1.04907 -0.313827 3.31925e-20)
(1.04819 -0.291104 1.54552e-20)
(1.04802 -0.269781 -5.27598e-20)
(1.04779 -0.250572 -1.08804e-20)
(1.04713 -0.232923 1.57478e-20)
(0.190212 -0.095651 -1.19468e-19)
(0.501334 -0.26209 1.15471e-19)
(0.747807 -0.40315 -5.14619e-22)
(0.924766 -0.503338 -3.81376e-20)
(1.03538 -0.55889 -6.02176e-21)
(1.09242 -0.576085 -8.45557e-21)
(1.1134 -0.566412 -4.36896e-20)
(1.11455 -0.541665 4.27291e-20)
(1.10727 -0.510611 -5.17036e-20)
(1.0979 -0.478228 3.18447e-21)
(1.08907 -0.446695 -2.54681e-21)
(1.08157 -0.416719 -8.01262e-22)
(1.07546 -0.388428 -2.89371e-21)
(1.07058 -0.361778 -2.37386e-22)
(1.06677 -0.336698 1.95134e-21)
(1.06389 -0.313118 -5.46322e-21)
(1.06189 -0.290895 1.38745e-20)
(1.06069 -0.269955 3.24567e-21)
(1.05953 -0.250996 1.15984e-21)
(1.05782 -0.233643 -2.6156e-20)
(0.185617 -0.0849045 1.84218e-20)
(0.495106 -0.237436 3.34737e-20)
(0.745729 -0.372498 6.1514e-20)
(0.93013 -0.472885 -3.23174e-20)
(1.04862 -0.532373 -8.88072e-20)
(1.11181 -0.554819 2.45096e-20)
(1.13634 -0.550036 3.80487e-20)
(1.13866 -0.529111 2.19474e-20)
(1.13097 -0.500829 4.58663e-20)
(1.12038 -0.470469 -9.88184e-21)
(1.1101 -0.440501 -3.58345e-21)
(1.10111 -0.411812 3.986e-21)
(1.09358 -0.384612 -9.17666e-21)
(1.08739 -0.358889 -7.67404e-21)
(1.08236 -0.334596 -2.04955e-22)
(1.07836 -0.311683 4.52271e-22)
(1.0753 -0.290028 -1.37389e-20)
(1.07313 -0.269534 7.33118e-21)
(1.07108 -0.250864 1.31765e-20)
(1.06841 -0.233868 -9.9414e-22)
(0.179662 -0.0742979 3.36892e-20)
(0.485393 -0.212549 6.80575e-21)
(0.738867 -0.340848 -8.60939e-20)
(0.930343 -0.440727 1.04836e-19)
(1.05713 -0.503782 1.91337e-20)
(1.12732 -0.531463 -9.7954e-20)
(1.15634 -0.53178 3.07468e-20)
(1.16063 -0.514954 -3.24398e-20)
(1.15309 -0.48968 3.95075e-22)
(1.14164 -0.461526 4.74044e-21)
(1.13011 -0.433254 1.05009e-20)
(1.11981 -0.40594 2.74945e-21)
(1.11102 -0.379917 1.85196e-20)
(1.10362 -0.355195 1.34816e-21)
(1.09748 -0.331757 -4.28757e-21)
(1.09242 -0.309573 8.28327e-22)
(1.08839 -0.288546 -2.4734e-21)
(1.0853 -0.268555 -2.73311e-22)
(1.08242 -0.25021 1.68941e-21)
(1.07888 -0.233618 6.06418e-21)
(0.172442 -0.0639858 -3.92141e-20)
(0.472296 -0.187787 2.04676e-21)
(0.727195 -0.30863 1.80057e-20)
(0.925211 -0.407255 -4.32987e-20)
(1.06059 -0.473412 8.20124e-20)
(1.13863 -0.506225 4.01719e-20)
(1.17311 -0.511796 -3.75313e-20)
(1.18022 -0.499324 -2.11322e-20)
(1.17346 -0.477294 1.61701e-20)
(1.16159 -0.451511 -1.92582e-20)
(1.14906 -0.425045 1.50187e-20)
(1.13763 -0.399211 8.45673e-22)
(1.1277 -0.374429 9.24798e-22)
(1.11922 -0.350764 -5.72067e-21)
(1.11206 -0.328241 1.06443e-20)
(1.10606 -0.306839 -1.48497e-21)
(1.10111 -0.286492 1.07903e-22)
(1.09716 -0.267056 1.94297e-21)
(1.09353 -0.249069 -3.91455e-21)
(1.0892 -0.232914 -2.64832e-22)
(0.164076 -0.0541114 6.49017e-20)
(0.455984 -0.163504 7.37454e-20)
(0.710762 -0.27628 5.2028e-20)
(0.914597 -0.372877 -8.47131e-21)
(1.05873 -0.441581 8.39722e-21)
(1.14538 -0.479326 -7.90943e-22)
(1.18634 -0.490239 8.0583e-20)
(1.19721 -0.482346 -2.16522e-20)
(1.19194 -0.463788 1.20222e-20)
(1.1801 -0.440542 -5.82194e-20)
(1.1669 -0.415999 1.01476e-20)
(1.15453 -0.391712 1.88719e-20)
(1.1436 -0.368224 -5.98206e-21)
(1.13416 -0.34568 1.24165e-20)
(1.12609 -0.324114 -9.49171e-21)
(1.11922 -0.303531 1.23698e-20)
(1.11345 -0.28391 1.35092e-21)
(1.10869 -0.265081 -2.07923e-21)
(1.10439 -0.247477 -5.12359e-22)
(1.09934 -0.231782 -2.99939e-21)
(0.154706 -0.0448039 -1.22434e-19)
(0.436682 -0.140034 2.95918e-20)
(0.689701 -0.244237 -1.18774e-20)
(0.898436 -0.338015 -7.68711e-20)
(1.05128 -0.408622 -2.41543e-20)
(1.14723 -0.450998 -4.5979e-20)
(1.19571 -0.467267 -3.6101e-20)
(1.21135 -0.464139 -3.4794e-20)
(1.20835 -0.449273 3.05074e-20)
(1.19708 -0.428734 1.12711e-20)
(1.18355 -0.406219 -3.42329e-20)
(1.17046 -0.38354 -4.30671e-21)
(1.1587 -0.361396 -2.16284e-21)
(1.14843 -0.340008 -1.07646e-20)
(1.13954 -0.319435 -1.24104e-21)
(1.1319 -0.299714 -2.02074e-21)
(1.12538 -0.280845 -1.02141e-20)
(1.11986 -0.262663 1.95092e-21)
(1.11497 -0.245473 3.29081e-21)
(1.1093 -0.230238 -5.94619e-22)
(0.144491 -0.0361749 4.20868e-21)
(0.41468 -0.11769 -5.32259e-20)
(0.664228 -0.212929 2.38297e-20)
(0.876741 -0.303102 -1.60537e-20)
(1.03806 -0.374883 1.88506e-20)
(1.14388 -0.421481 7.58522e-20)
(1.20088 -0.443038 -3.26882e-20)
(1.22237 -0.44482 6.9023e-20)
(1.22252 -0.43385 2.43798e-21)
(1.21243 -0.416188 2.72336e-20)
(1.19894 -0.395808 2.76139e-21)
(1.18537 -0.374795 1.62416e-20)
(1.17296 -0.354031 2.81045e-21)
(1.16198 -0.333824 4.13029e-22)
(1.1524 -0.314274 -1.65167e-20)
(1.14408 -0.295436 2.5872e-21)
(1.13689 -0.277334 1.00281e-20)
(1.13069 -0.259861 3.73348e-22)
(1.12522 -0.243096 -2.06534e-21)
(1.1191 -0.228333 9.21174e-22)
(0.133607 -0.0283162 1.46328e-20)
(0.390319 -0.0967511 4.24644e-20)
(0.634645 -0.182766 4.46385e-20)
(0.849616 -0.268573 -1.26254e-20)
(1.01893 -0.340728 5.26101e-20)
(1.135 -0.391029 -1.02575e-20)
(1.2015 -0.417712 7.43394e-20)
(1.22996 -0.424497 -8.64378e-20)
(1.23425 -0.417612 -1.41704e-20)
(1.22603 -0.402998 -1.28005e-20)
(1.21302 -0.38486 -1.37991e-20)
(1.19925 -0.36557 -1.92043e-21)
(1.18635 -0.346213 5.8187e-21)
(1.17481 -0.327205 -1.50506e-20)
(1.16463 -0.308694 1.13499e-20)
(1.15573 -0.290755 -4.81398e-21)
(1.14796 -0.273439 -2.45635e-21)
(1.14117 -0.256674 -3.325e-21)
(1.1351 -0.240398 -2.32648e-21)
(1.12874 -0.226076 -4.34858e-21)
(0.12224 -0.0212976 6.75175e-20)
(0.36399 -0.0774587 -6.42939e-20)
(0.601343 -0.154131 7.61004e-21)
(0.817263 -0.23486 -8.51727e-21)
(0.993813 -0.306532 -1.99554e-20)
(1.12032 -0.359906 -3.73828e-20)
(1.19719 -0.391451 -4.51698e-21)
(1.23379 -0.403267 2.17479e-20)
(1.24328 -0.400636 8.40534e-21)
(1.23775 -0.389241 -1.08688e-20)
(1.22574 -0.373461 1.16694e-20)
(1.21207 -0.355952 -1.01127e-21)
(1.19888 -0.338023 -1.92539e-20)
(1.1869 -0.320223 2.60332e-20)
(1.17625 -0.302759 6.9503e-21)
(1.16685 -0.285727 -3.40081e-21)
(1.15858 -0.269203 4.25827e-21)
(1.15128 -0.253147 4.75614e-21)
(1.1447 -0.237447 4.1793e-21)
(1.13808 -0.223581 3.93757e-21)
(0.110582 -0.0151656 -6.94057e-20)
(0.336124 -0.0600085 5.2434e-20)
(0.564797 -0.127371 2.22491e-20)
(0.779992 -0.202383 -4.49117e-20)
(0.96274 -0.27268 -9.49743e-21)
(1.0996 -0.328391 -3.41575e-20)
(1.18758 -0.364419 1.3259e-20)
(1.23347 -0.381222 -2.10173e-20)
(1.24933 -0.382983 1.12463e-21)
(1.24739 -0.374982 2.71024e-21)
(1.23699 -0.361684 5.88861e-21)
(1.22379 -0.346018 -1.8791e-20)
(1.21053 -0.32954 1.85844e-20)
(1.19826 -0.312949 -1.2491e-20)
(1.18723 -0.296529 -2.6846e-21)
(1.17743 -0.280406 9.5801e-22)
(1.16874 -0.264676 -3.08973e-21)
(1.16101 -0.249332 -7.54637e-21)
(1.154 -0.234235 -1.61973e-22)
(1.14705 -0.220803 -4.06968e-21)
(0.098825 -0.0099428 -8.30249e-21)
(0.307181 -0.0445459 -2.42484e-20)
(0.525557 -0.102784 -8.25477e-21)
(0.738224 -0.171543 1.29344e-20)
(0.925838 -0.239561 -7.41802e-21)
(1.07264 -0.296775 7.78173e-21)
(1.17227 -0.336789 1.73044e-20)
(1.22858 -0.358444 1.46826e-20)
(1.25204 -0.364697 1.13015e-20)
(1.25473 -0.360262 -2.45489e-21)
(1.24666 -0.349586 -5.63504e-21)
(1.23436 -0.335837 6.93872e-21)
(1.22129 -0.320833 -3.06168e-21)
(1.20889 -0.30545 4.24493e-21)
(1.1976 -0.290065 -1.95211e-21)
(1.18748 -0.274844 4.82931e-21)
(1.17845 -0.259901 -1.4058e-21)
(1.17035 -0.245267 4.48756e-21)
(1.16297 -0.230765 -1.33655e-21)
(1.1557 -0.21775 2.28097e-22)
(0.0871565 -0.00562813 -1.0357e-22)
(0.277635 -0.0311623 -1.0111e-22)
(0.484237 -0.0806145 -2.76725e-21)
(0.692496 -0.142707 1.36152e-20)
(0.883358 -0.207567 8.61945e-21)
(1.03936 -0.265367 -6.44538e-21)
(1.15091 -0.308745 -4.71757e-21)
(1.21865 -0.335015 -1.36578e-21)
(1.251 -0.345806 -6.5086e-21)
(1.25948 -0.345103 -4.20031e-22)
(1.25459 -0.337204 2.71773e-22)
(1.24373 -0.325463 -2.63519e-21)
(1.23114 -0.311964 -1.59601e-21)
(1.21878 -0.297788 -3.55814e-21)
(1.20735 -0.283423 -3.78078e-21)
(1.197 -0.269089 -2.94008e-22)
(1.1877 -0.254922 1.3445e-21)
(1.1793 -0.240987 1.3623e-21)
(1.17161 -0.227071 1.44063e-21)
(1.16409 -0.21446 2.07128e-21)
(0.0757524 -0.00219806 9.40813e-21)
(0.247963 -0.0198936 -1.45323e-21)
(0.441501 -0.0610417 -2.4621e-21)
(0.643453 -0.116203 6.17795e-21)
(0.83569 -0.177083 1.23746e-20)
(0.999743 -0.234493 -5.45258e-21)
(1.12316 -0.280488 -4.41983e-21)
(1.20318 -0.311017 -8.18397e-21)
(1.24572 -0.326324 -7.33295e-21)
(1.26128 -0.329502 1.36889e-21)
(1.26055 -0.32455 -1.20586e-21)
(1.25178 -0.314931 -5.51814e-22)
(1.24006 -0.302985 -2.83108e-21)
(1.22795 -0.290017 -4.53983e-21)
(1.21649 -0.276657 -1.10323e-21)
(1.206 -0.263191 -3.6384e-22)
(1.1965 -0.249781 -7.6255e-23)
(1.18788 -0.236532 9.40882e-22)
(1.17994 -0.223196 3.39374e-21)
(1.17225 -0.210966 2.79929e-21)
(0.0647731 0.000391499 -5.64341e-21)
(0.218627 -0.0107209 -8.20534e-21)
(0.39804 -0.0441768 -1.09259e-20)
(0.591839 -0.0923051 1.43404e-20)
(0.783373 -0.148478 1.38183e-20)
(0.953941 -0.204497 2.61227e-22)
(1.08875 -0.252245 5.24907e-21)
(1.18165 -0.286546 1.45304e-20)
(1.23564 -0.306257 1.57071e-20)
(1.25966 -0.313434 1.01719e-20)
(1.26426 -0.311612 -2.4781e-20)
(1.25837 -0.304255 1.01402e-20)
(1.24797 -0.29393 -4.74932e-21)
(1.23637 -0.282184 1.01971e-20)
(1.22504 -0.269813 -6.73838e-22)
(1.21451 -0.257192 -1.60012e-21)
(1.20488 -0.244516 1.04646e-21)
(1.19608 -0.231935 9.80884e-21)
(1.18796 -0.219179 -3.3906e-21)
(1.18015 -0.207296 3.25516e-22)
(0.0543589 0.00220233 -1.73763e-20)
(0.190061 -0.00357325 3.95636e-20)
(0.354553 -0.0300586 3.92855e-21)
(0.53848 -0.071223 -4.94049e-20)
(0.727101 -0.122097 -9.20312e-21)
(0.902261 -0.175734 2.13235e-20)
(1.04754 -0.224271 -4.92163e-20)
(1.15357 -0.261715 -4.38569e-22)
(1.22013 -0.285607 4.56569e-21)
(1.25406 -0.296853 -9.19943e-22)
(1.26531 -0.298346 1.316e-20)
(1.26326 -0.293423 -2.29072e-20)
(1.25479 -0.284817 3.66529e-21)
(1.24402 -0.274323 -8.62624e-21)
(1.233 -0.262934 -7.13976e-21)
(1.22252 -0.251135 6.55671e-21)
(1.21284 -0.239168 -7.65965e-22)
(1.20393 -0.227231 -1.54525e-20)
(1.19567 -0.215056 4.36376e-22)
(1.1878 -0.203479 -7.73265e-21)
(0.0446263 0.00331055 1.34758e-20)
(0.162659 0.00166692 -2.19475e-20)
(0.311721 -0.0186541 -1.73844e-21)
(0.484253 -0.0530937 -4.07561e-20)
(0.667713 -0.0982421 -2.53745e-20)