/*--------------------------------*- C++ -*----------------------------------*\
  =========                 |
  \\      /  F ield         | OpenFOAM: The Open Source CFD Toolbox
   \\    /   O peration     | Website:  https://openfoam.org
    \\  /    A nd           | Version:  7
     \\/     M anipulation  |
\*---------------------------------------------------------------------------*/
FoamFile
{
    version     2.0;
    format      ascii;
    class       volScalarField;
    location    "4";
    object      p;
}
// * * * * * * * * * * * * * * * * * * * * * * * * * * * * * * * * * * * * * //

dimensions      [0 2 -2 0 0 0 0];

internalField   nonuniform List<scalar> 
433
(
-2.84135
-2.63446
-2.52205
-2.46193
-2.42901
-0.897417
-1.59286
-1.98781
-2.19738
-2.29853
-2.34
-2.35108
-2.34839
-2.34074
-2.33244
0.122413
-0.987937
-1.63474
-1.98907
-2.1701
-2.2536
-2.28582
-2.29352
-2.29121
-2.28615
-2.28164
-2.27892
-2.27829
-2.27966
-2.28282
-5.01285
-3.96257
-3.26763
-2.82456
-2.5523
-2.39365
-2.30492
-2.25803
-2.23519
-2.22566
-2.22336
-2.22505
-2.22914
-2.23488
-2.24194
-2.25015
-2.25927
-2.26944
-2.28161
-2.28918
-11.6745
-7.9976
-5.60818
-4.1126
-3.21096
-2.69732
-2.417
-2.27264
-2.20429
-2.17622
-2.16848
-2.17055
-2.17731
-2.18644
-2.19698
-2.20856
-2.22104
-2.2342
-2.24829
-2.26428
-2.27619
-1.29037
-1.44913
-1.61074
-1.7574
-1.87621
-1.9646
-2.0262
-2.06625
-2.09102
-2.10624
-2.11645
-2.1248
-2.13326
-2.14292
-2.15421
-2.16718
-2.18167
-2.19741
-2.21402
-2.23172
-2.25137
-2.26752
13.1432
7.61035
3.88141
1.44739
-0.0821512
-1.00091
-1.52707
-1.81351
-1.96128
-2.03376
-2.06861
-2.0869
-2.09962
-2.11192
-2.12584
-2.14188
-2.15983
-2.17925
-2.19959
-2.22104
-2.24443
-2.26485
6.98805
3.67636
1.45343
0.0141556
-0.879447
-1.40914
-1.70752
-1.86679
-1.94833
-1.98948
-2.01198
-2.0276
-2.04216
-2.05815
-2.07638
-2.09681
-2.11909
-2.14272
-2.16724
-2.19216
-2.21783
-2.24518
-2.2699
-21.233
-14.7088
-10.1682
-7.07906
-5.03229
-3.72501
-2.92364
-2.45236
-2.19438
-2.06414
-2.00827
-1.99409
-2.00223
-2.02186
-2.04721
-2.07533
-2.10476
-2.13471
-2.16473
-2.19444
-2.22443
-2.25573
-2.28461
-19.284
-13.2221
-9.01387
-6.22482
-4.41901
-3.29542
-2.63151
-2.26109
-2.06913
-1.98184
-1.95348
-1.95691
-1.9768
-2.00493
-2.03707
-2.0711
-2.1059
-2.14084
-2.17548
-2.20943
-2.24335
-2.27831
-2.31101
9.6699
6.00938
3.35332
1.50844
0.245532
-0.590615
-1.12593
-1.45904
-1.66242
-1.78705
-1.86669
-1.92253
-1.96704
-2.00702
-2.04575
-2.08454
-2.12363
-2.16273
-2.20142
-2.23919
-2.27672
-2.31499
-2.35105
31.7047
21.0548
13.3281
7.93605
4.26049
1.83548
0.295253
-0.649611
-1.21056
-1.53551
-1.72414
-1.83783
-1.91289
-1.96968
-2.01876
-2.06506
-2.11054
-2.15562
-2.20007
-2.24347
-2.28533
-2.3264
-2.36773
-2.40662
-1.81679
-2.06515
-2.1233
-2.09094
-2.02704
-1.95162
-1.88607
-1.84286
-1.8251
-1.83043
-1.8546
-1.89218
-1.93848
-1.98986
-2.04371
-2.09823
-2.15226
-2.205
-2.25586
-2.30445
-2.35044
-2.39482
-2.43874
-2.4797
-25.0307
-17.0053
-11.4658
-7.72606
-5.28493
-3.75887
-2.85155
-2.3461
-2.09062
-1.98578
-1.9663
-1.99241
-2.0411
-2.09953
-2.16091
-2.22183
-2.28062
-2.3365
-2.38908
-2.43814
-2.48483
-2.53037
-2.57227
-10.6067
-7.32984
-5.10611
-3.68779
-2.81602
-2.31276
-2.05176
-1.9405
-1.91699
-1.9429
-1.99429
-2.0577
-2.12571
-2.1944
-2.26171
-2.32656
-2.38831
-2.44652
-2.50095
-2.55134
-2.59887
-2.64471
-2.68608
17.3671
11.229
6.80892
3.71436
1.59775
0.194001
-0.711818
-1.28581
-1.6481
-1.88158
-2.03892
-2.15385
-2.24574
-2.3251
-2.39723
-2.46444
-2.52752
-2.58651
-2.64128
-2.69157
-2.73852
-2.78323
-2.82243
17.0389
10.7175
6.26433
3.20452
1.1659
-0.152425
-0.98545
-1.50596
-1.83388
-2.04799
-2.19727
-2.31096
-2.40474
-2.48728
-2.56258
-2.63227
-2.69689
-7.76391
-5.81213
-4.45483
-3.5474
-2.97462
-2.64162
-2.47372
-2.46333
-2.40253
-2.35587
-2.32171
-2.29836
-2.2841
-2.27725
-2.27619
-2.27931
-2.53757
-2.47404
-2.42224
-2.38096
-2.34895
-2.32486
-2.30733
-2.29496
-2.28636
-2.59439
-2.52989
-2.47458
-2.42764
-2.38817
-2.35514
-2.3275
-2.30412
-2.28384
-2.62714
-2.56346
-2.50664
-2.45616
-2.41141
-2.37168
-2.33618
-2.30407
-2.27448
-2.63626
-2.57491
-2.51846
-2.46662
-2.41901
-2.37516
-2.33453
-2.29657
-2.26067
-2.62635
-2.56827
-2.51352
-2.46197
-2.41342
-2.36758
-2.32415
-2.28277
-2.2431
-2.4452
-2.39716
-2.35102
-2.30661
-2.26377
-2.22232
-2.87754
-2.74586
-2.63362
-2.53986
-2.92755
-2.80829
-2.70387
-2.61387
-2.95529
-2.84894
-2.75347
-2.66874
-2.95601
-2.86248
-2.77648
-2.69807
-2.93283
-2.85108
-2.77432
-2.70271
-2.89227
-2.82092
-2.75273
-2.68784
-2.83948
)
;

boundaryField
{
    inlet
    {
        type            zeroGradient;
    }
    outlet
    {
        type            fixedValue;
        value           nonuniform 0();
    }
    cylinder
    {
        type            zeroGradient;
    }
    top
    {
        type            symmetryPlane;
    }
    bottom
    {
        type            symmetryPlane;
    }
    defaultFaces
    {
        type            empty;
    }
    procBoundary26to20
    {
        type            processor;
        value           nonuniform List<scalar> 
28
(
-3.54475
-3.20897
-3.20897
0.259948
0.259948
1.93367
1.93367
-6.55953
-6.55953
-17.1863
-17.1863
-1.1679
21.0773
21.0773
11.7368
-30.2419
-27.7323
14.629
14.629
45.895
-1.32566
-36.2113
-36.2113
-15.2532
25.6646
25.7384
-10.5171
-10.5171
)
;
    }
    procBoundary26to25
    {
        type            processor;
        value           nonuniform List<scalar> 
23
(
-2.75645
-2.81085
-2.85995
-2.90499
-2.94706
-2.41439
-2.42258
-2.46985
-2.53741
-2.61342
-2.69092
-2.76594
-2.83637
-2.75645
-2.90116
-17.2522
-11.8141
-8.16286
-5.80287
-4.34607
-3.49609
-2.41439
-3.03796
)
;
    }
    procBoundary26to27
    {
        type            processor;
        value           nonuniform List<scalar> 
17
(
-3.03606
-2.75415
-2.60287
-2.52319
-2.4093
-2.4093
-2.3956
-2.38453
-2.37478
-2.32536
-2.32536
-2.32016
-2.31697
-2.3157
-2.28743
-2.28743
-2.29338
)
;
    }
    procBoundary26to31
    {
        type            processor;
        value           nonuniform List<scalar> 8(-2.98224 -3.02922 -3.06173 -3.07248 -3.05682 -3.01931 -2.96655 -2.90345);
    }
    procBoundary26to32
    {
        type            processor;
        value           nonuniform List<scalar> 
15
(
-2.60172
-2.54742
-2.49526
-2.49526
-2.41898
-2.37251
-2.3273
-2.2833
-2.24047
-2.19875
-2.77715
-2.71666
-2.65815
-2.77715
-2.77846
)
;
    }
    procBoundary26to33
    {
        type            processor;
        value           nonuniform List<scalar> 9(-2.30155 -2.30476 -2.28502 -2.2801 -2.26548 -2.24653 -2.22624 -2.20477 -2.1821);
    }
}


// ************************************************************************* //
