/*--------------------------------*- C++ -*----------------------------------*\
  =========                 |
  \\      /  F ield         | OpenFOAM: The Open Source CFD Toolbox
   \\    /   O peration     | Website:  https://openfoam.org
    \\  /    A nd           | Version:  7
     \\/     M anipulation  |
\*---------------------------------------------------------------------------*/
FoamFile
{
    version     2.0;
    format      ascii;
    class       surfaceScalarField;
    location    "11";
    object      phi;
}
// * * * * * * * * * * * * * * * * * * * * * * * * * * * * * * * * * * * * * //

dimensions      [0 3 -1 0 0 0 0];

internalField   nonuniform List<scalar> 
810
(
0.00180297
0.00320188
0.0016576
0.0030731
0.00198712
0.00203188
0.00251926
0.000688874
0.00287963
-0.00060191
-0.00170505
-0.000773569
-0.000169714
-0.00175075
0.000658469
-0.00192364
0.00199854
-0.0011868
0.00246504
0.000131596
0.00175469
0.00170353
0.000459953
0.00315275
-0.000760353
0.00411356
-0.00156272
-0.00195344
-0.00170821
0.00153849
-0.00388947
0.00283973
-0.00463583
0.0027449
-0.00421768
0.0020469
-0.00358971
0.00112672
-0.00310543
-2.43264e-05
-0.00267087
-0.00119491
-0.0021121
-0.00212149
-0.00262149
-0.000347533
0.00188603
-0.000567498
0.0030597
-0.000412655
0.00259006
-0.000313881
0.00194813
-0.000703057
0.0015159
-0.00163444
0.000907056
-0.00282334
-6.01258e-06
-0.0038276
-0.00111723
-0.00425737
-0.00219171
-0.00290428
0.00180056
8.54653e-05
0.00405482
0.000805436
0.00477644
0.00186843
0.00403282
0.00269175
0.00264261
0.00290611
0.00113708
0.00241259
-0.000221026
0.00135209
-0.00129975
-3.85078e-05
-0.00200193
-0.00148954
-0.0026751
0.0010113
-0.000925839
0.00209582
-0.000279077
0.00207008
0.00189417
0.00143033
0.0033315
0.00110524
0.0032312
0.00134894
0.00216889
0.00191156
0.00078947
0.00238487
-0.000511818
0.00251501
-0.00161968
0.00220541
-0.00236551
-0.00273257
-0.000751871
-0.000173968
-0.00175946
0.000728513
-0.00209468
0.00222938
-0.00158627
0.00282309
-0.000442663
0.00208759
0.00109804
0.000628192
0.00268419
-0.000796681
0.0039059
-0.00173353
0.00445607
-0.00216985
0.00430298
-0.00221241
0.00356965
-0.00199924
-0.00164571
-0.00166508
0.00149111
-0.00378594
0.00284937
-0.00445951
0.00290296
-0.0039608
0.00232438
-0.00326576
0.00139255
-0.00276291
0.00012534
-0.00234716
-0.00121243
-0.00179982
-0.00228087
-0.00111779
-0.00285187
-0.000436916
-0.00289328
7.93697e-05
-0.00251553
-0.00189703
-0.000405236
0.00189634
-0.000572699
0.00301684
-0.000150458
0.00248072
0.000367083
0.00180684
0.000377761
0.00138187
-0.000315521
0.000818622
-0.00150751
-2.04383e-05
-0.00272665
-0.00106173
-0.003494
-0.00208452
-0.00354422
-0.00284307
-0.00297645
-0.00308331
-0.00207491
-0.00279857
-0.00216161
0.00180771
8.86378e-05
0.00413402
0.000690523
0.00503868
0.00157606
0.00452544
0.00232008
0.00333058
0.00257673
0.00195323
0.00219596
0.000644372
0.00128842
-0.000488393
7.10366e-05
-0.00133217
-0.00124075
-0.00176684
-0.00240839
-0.00171763
-0.00313252
-0.0012811
-0.00323509
-0.000673771
-0.00276894
-0.00198506
0.00104956
-0.000960918
0.00202908
-0.000288999
0.00168614
0.001919
0.000591764
0.00341446
-0.000129084
0.00329758
-2.60906e-05
0.00209297
0.000717456
0.000544878
0.00159073
-0.000802242
0.0021852
-0.00183522
0.00226864
-0.00249183
0.00196325
-0.00282712
0.00149466
-0.0027665
0.0010562
-0.00233049
0.000746363
-0.00167522
0.00057485
-0.000999079
-0.000446973
-0.000888764
-7.21542e-05
-0.00222715
0.00104939
-0.00310882
0.00280067
-0.00322322
0.00352885
-0.00257032
0.00264468
-0.00122287
0.000745518
0.00057391
-0.0012519
0.00236023
-0.00258856
0.00362848
-0.00310346
0.00418578
-0.00304913
0.00402375
-0.00266509
0.00336261
-0.00210537
0.00254227
-0.00151014
0.00180207
-0.000935023
0.00125272
-0.000449722
0.000900456
-9.4711e-05
0.000130869
-0.00168984
0.00161769
-0.00376336
0.0031229
-0.00429515
0.00333246
-0.00364058
0.00287428
-0.00286474
0.00186884
-0.00242301
0.000303786
-0.00222161
-0.00145329
-0.00190639
-0.00290379
-0.00130719
-0.00370266
-0.000547118
-0.00380921
0.000131719
-0.00334393
0.000585168
-0.00255882
0.000770517
-0.00169549
0.000762229
-0.000926735
0.00066437
-0.000351863
0.000549883
1.97767e-05
0.000449899
0.000230853
0.000339006
-0.000185958
0.00180365
0.000179228
0.00275772
0.0013606
0.0021511
0.0027564
0.00147848
0.00356126
0.00106397
0.00335046
0.00051459
0.00218664
-0.000289479
0.000552184
-0.00126933
-0.000918495
-0.00223198
-0.00178981
-0.00293789
-0.00194012
-0.00319361
-0.00155774
-0.0029412
-0.000970158
-0.00228307
-0.000422375
-0.00147452
-3.24815e-05
-0.000741756
0.000185268
-0.000197973
0.000275129
0.000140992
0.000294855
0.00031928
0.000412086
0.00202051
-0.000216867
0.0046729
0.000105334
0.00592886
0.000895135
0.00576891
0.00163843
0.00489571
0.00193717
0.00379069
0.00161961
0.00270885
0.000792362
0.001704
-0.000264475
0.000773946
-0.00130193
7.30033e-06
-0.00217125
-0.000465696
-0.00272062
-0.000598451
-0.00280845
-0.000455192
-0.00242632
-0.000184519
-0.00174519
8.1956e-05
-0.00100823
0.000279384
-0.000395401
0.00039346
2.6916e-05
0.000433369
0.000279372
0.000425182
0.000420273
0.000389237
0.000505646
0.000572395
0.000800626
-0.00101749
0.00124456
-0.000338601
0.00023341
0.00190629
-0.00163951
0.00351136
-0.00317668
0.00347433
-0.00363555
0.00207849
-0.00292304
7.98525e-05
-0.00152308
-0.00166443
-0.000106445
-0.00271857
0.000873733
-0.00315143
0.00125031
-0.00309719
0.00117874
-0.00273688
0.000931507
-0.00217909
0.000692141
-0.00150583
0.000534153
-0.000850243
0.000454525
-0.000315772
0.000421987
5.94542e-05
0.000404381
0.000296978
0.000380728
0.000443925
0.000342362
0.000544013
0.000288723
0.000626034
0.000704762
-0.00127352
0.000256023
-0.0032388
0.00162669
-0.00477187
0.00343935
-0.00567095
0.00441044
-0.00593161
0.00373499
-0.00542662
0.0015735
-0.004208
-0.00113877
-0.00250102
-0.00337142
-0.000729292
-0.0044903
0.000647646
-0.00452836
0.00145334
-0.00390289
0.00171826
-0.0030018
0.00159537
-0.0020562
0.00128853
-0.00119898
0.000966904
-0.000528616
0.000702507
-5.13756e-05
0.000506614
0.000255347
0.000365646
0.000437946
0.000262434
0.000547137
0.000182431
0.000624016
0.000115834
0.000692632
5.63087e-05
0.000764287
6.87708e-08
0.000842389
0.000926291
-0.00163714
0.00189317
-0.0034442
0.00343374
-0.00348687
0.00348202
-0.00213442
0.00305798
-0.000580609
0.00218118
0.000384161
0.000608727
0.000585333
-0.00133994
0.000328383
-0.00311447
3.72144e-05
-0.00419913
-4.55036e-05
-0.00444565
4.49743e-05
-0.00399337
0.000157101
-0.00311392
0.000190052
-0.00208915
0.000157572
-0.0011665
7.73972e-05
-0.000448441
-1.00109e-05
3.60321e-05
-7.78161e-05
0.000323152
-0.000123746
0.000483876
-0.000152089
0.00057548
-0.000169133
0.000641059
-0.000180657
0.000704156
-0.000191204
0.000774834
-0.000203925
0.000855111
-0.000221132
0.000943498
0.00103744
0.000473764
0.0014194
0.00189203
0.00201548
0.00406388
0.00131018
0.00645926
0.000662604
0.00835002
0.000290425
0.00910233
-0.000143586
0.00849778
-0.00073539
0.00678965
-0.00140633
0.00459375
-0.00200324
0.00252439
-0.00237628
0.000955802
-0.00242478
-2.11932e-05
-0.00213693
-0.000502262
-0.00160808
-0.000672476
-0.000996291
-0.000676257
-0.00044466
-0.000611331
-2.88946e-05
-0.000532325
0.000244145
-0.000456709
0.00040826
-0.000393304
0.000512075
-0.000345695
0.00059345
-0.000314024
0.000672485
-0.000296483
0.000757294
-0.000290919
0.000849546
-0.000295463
0.0022446
-0.000825196
0.00517785
-0.000917771
0.00655474
-6.67184e-05
0.00637572
0.000841626
0.00532645
0.0013397
0.00387288
0.00130998
0.00240735
0.000730138
0.00115674
-0.000155719
0.000177924
-0.00102442
-0.000563024
-0.00163534
-0.0010734
-0.00191441
-0.00136324
-0.00184708
-0.00142813
-0.0015432
-0.00131991
-0.00110451
-0.00111714
-0.000647423
-0.000891776
-0.000254263
-0.000691103
4.34724e-05
-0.000537853
0.00025501
-0.000433705
0.000407928
-0.000369379
0.000529124
-0.000334167
0.000637273
-0.000319286
0.000295352
-0.00112055
5.42299e-05
-0.000676649
-0.00152666
0.00151417
-0.0041267
0.00344167
-0.00680534
0.00401834
-0.00867247
0.00317711
-0.0092294
0.00128707
-0.00850754
-0.000877585
-0.00692872
-0.00260324
-0.00508068
-0.00348338
-0.00343333
-0.00356176
-0.00216546
-0.00311495
-0.00131857
-0.00239009
-0.000796188
-0.00162689
-0.000494357
-0.000949254
-0.000341203
-0.000407418
-0.000275075
-2.26551e-05
-0.000258813
0.000238749
-0.000268533
0.000417648
-0.000289046
-0.00162985
0.000509299
-0.00405332
0.00174682
-0.00574561
0.00320646
-0.00667291
0.00436897
-0.00710989
0.00445532
-0.0070511
0.00311832
-0.00650925
0.000745217
-0.00555024
-0.00183659
-0.00434716
-0.00380632
-0.00308206
-0.00474847
-0.0019461
-0.00469772
-0.00108796
-0.0039731
-0.000530201
-0.00294784
-0.000240631
-0.00191647
-0.000138916
-0.00105097
-0.000155073
-0.000391261
-0.000224637
4.69088e-05
-0.000304707
-0.00144544
0.00195474
-0.00290074
0.00320212
-0.00248659
0.00279231
-0.00038447
0.00226685
0.00237541
0.00169544
0.00483098
0.000662755
0.00627801
-0.000701821
0.00650367
-0.00206225
0.00574261
-0.00304527
0.00445325
-0.00345911
0.00308177
-0.00332624
0.00189628
-0.0027876
0.000986699
-0.00203827
0.000324485
-0.00125425
-0.000124061
-0.000400437
0.00108531
0.00086943
0.00324184
0.0010456
0.00573395
0.00030019
0.0082483
-0.0002475
0.0103468
-0.000403027
0.0114225
-0.000412948
0.0111676
-0.000446958
0.00967963
-0.000574266
0.00739006
-0.000755697
0.00486751
-0.000936562
0.00258205
-0.00104078
0.000809916
-0.00101547
-0.00037534
0.00206706
-0.00119763
0.00465534
-0.00154269
0.00552194
-0.000566404
0.00467743
0.000597008
0.00286992
0.00140448
0.000621955
0.00183502
-0.00156967
0.00174467
-0.0033039
0.00115996
-0.0043071
0.00024751
-0.00459123
-0.000652441
-0.00435797
-2.57743e-05
-0.00117185
-0.000591785
-0.000976679
-0.00221663
0.00105844
-0.00483037
0.00321074
-0.00784476
0.00441888
-0.0104535
0.00444372
-0.012014
0.00330518
-0.0122133
0.00135925
-0.0112045
-0.00180772
0.00063587
-0.00440685
0.00162245
-0.0059841
0.00263569
-0.00653832
0.00376497
-0.00649244
0.00437299
-0.00595531
0.00390659
-0.00505606
0.00240594
-0.00115803
0.0017939
-0.00218384
0.00264826
-0.00145658
0.00190842
0.000942835
0.00136555
0.00416301
0.00115282
0.00729109
0.00140319
0.00039071
0.00380049
0.000250968
0.00610285
-0.000393943
0.00815221
0.00178582
-0.00139511
0.00385464
)
;

boundaryField
{
    inlet
    {
        type            calculated;
        value           nonuniform 0();
    }
    outlet
    {
        type            calculated;
        value           nonuniform 0();
    }
    cylinder
    {
        type            calculated;
        value           uniform 0;
    }
    top
    {
        type            symmetryPlane;
        value           nonuniform 0();
    }
    bottom
    {
        type            symmetryPlane;
        value           nonuniform 0();
    }
    defaultFaces
    {
        type            empty;
        value           nonuniform 0();
    }
    procBoundary13to6
    {
        type            processor;
        value           nonuniform List<scalar> 8(0.000329623 -0.000640118 0.000224079 -0.000786149 -0.000871015 -5.52076e-05 -0.00101431 -0.00024426);
    }
    procBoundary13to7
    {
        type            processor;
        value           nonuniform List<scalar> 
38
(
0.000948043
-0.000308824
0.0010508
0.000742412
-0.000318343
0.000848602
0.000549636
-0.00031211
0.000660337
0.000318819
-0.000373742
0.000486682
-0.000602423
-0.000114885
-0.000563375
0.000209848
-0.000853009
-0.00101908
-0.000610512
-0.00127403
-0.00384761
-0.00152583
-0.000761271
-0.0093547
-0.00250223
-0.00401816
0.000321339
0.000778506
0.00951947
0.000177566
-0.000683804
0.00977003
-0.000465
-0.00181785
0.00412091
-0.000660215
-0.00031265
-0.00108246
)
;
    }
    procBoundary13to12
    {
        type            processor;
        value           nonuniform List<scalar> 
26
(
0.00285015
0.00436194
-0.00144405
0.0026478
-0.00400089
-0.00223111
0.00330246
0.00163553
0.00263852
0.00257684
0.000330686
0.00124034
-0.00115364
0.00141902
-0.000107736
0.00117059
0.000517416
0.000504407
7.39887e-05
0.000695597
-0.000259463
0.000370354
-0.000394679
0.000277448
-0.000469701
-0.000512781
)
;
    }
    procBoundary13to19
    {
        type            processor;
        value           nonuniform List<scalar> 10(-0.00275978 -0.00292772 -0.00236141 -0.00122102 0.000241538 0.00173453 0.000943283 0.000318711 -0.00224507 -0.00182565);
    }
}


// ************************************************************************* //
