/*--------------------------------*- C++ -*----------------------------------*\
  =========                 |
  \\      /  F ield         | OpenFOAM: The Open Source CFD Toolbox
   \\    /   O peration     | Website:  https://openfoam.org
    \\  /    A nd           | Version:  7
     \\/     M anipulation  |
\*---------------------------------------------------------------------------*/
FoamFile
{
    version     2.0;
    format      ascii;
    class       volVectorField;
    location    "2";
    object      U;
}
// * * * * * * * * * * * * * * * * * * * * * * * * * * * * * * * * * * * * * //

dimensions      [0 1 -1 0 0 0 0];

internalField   nonuniform List<vector> 
344
(
(1.06345 -0.0013702 1.64695e-14)
(1.06805 -0.000296068 2.18998e-14)
(1.0644 -0.0013624 1.5782e-14)
(1.06659 -3.09006e-05 2.07798e-14)
(1.06508 -0.000862525 1.47371e-14)
(1.06583 -0.000390471 1.95622e-14)
(1.06501 -7.72816e-05 1.4442e-14)
(1.06592 -0.000960303 1.90303e-14)
(1.06432 0.000587828 1.50383e-14)
(1.06644 -0.00127919 1.89434e-14)
(1.06362 0.000820469 1.52743e-14)
(1.0667 -0.00116099 1.79275e-14)
(1.06351 0.000642221 1.52792e-14)
(1.06633 -0.00078265 1.71443e-14)
(1.06406 0.000294042 1.53562e-14)
(1.06553 -0.000408821 1.66547e-14)
(1.06486 -3.63053e-05 1.58757e-14)
(1.06477 -0.000200342 1.58778e-14)
(1.06537 -0.000209546 1.57301e-14)
(1.06444 -0.000288304 1.43976e-14)
(1.06534 -7.83515e-05 1.51553e-14)
(1.06459 -0.000740717 1.28742e-14)
(1.07093 -0.00150176 8.75078e-15)
(1.07101 -0.00153645 1.04706e-14)
(1.07108 -0.00153414 9.639e-15)
(1.0712 -0.00142637 1.06427e-14)
(1.07126 -0.00130304 1.07237e-14)
(1.07139 -0.00113701 1.0908e-14)
(1.07137 -0.00114082 1.17594e-14)
(1.0715 -0.0011092 1.08684e-14)
(1.07138 -0.00134598 1.24535e-14)
(1.07161 -0.00126438 1.08199e-14)
(1.07138 -0.00155501 1.30685e-14)
(1.07181 -0.00107639 1.10352e-14)
(1.07136 -0.00148108 1.36136e-14)
(1.07206 -0.000519888 1.14613e-14)
(1.07124 -0.00156719 1.41587e-14)
(1.0723 -6.49449e-05 1.17022e-14)
(1.07096 -0.00236258 1.33497e-14)
(1.07255 0.00023841 1.14452e-14)
(1.07065 -0.00374547 1.30004e-14)
(1.07279 0.00100089 1.28756e-14)
(1.07045 -0.0051997 1.33966e-14)
(1.0729 0.00269104 1.39422e-14)
(1.0705 -0.00656864 1.32966e-14)
(1.07261 0.00493724 1.50568e-14)
(1.07097 -0.00813111 1.34215e-14)
(1.0717 0.00673867 1.59386e-14)
(1.07195 -0.00997179 1.36366e-14)
(1.07014 0.00720254 1.62664e-14)
(1.07333 -0.011551 1.35117e-14)
(1.06823 0.00607791 1.57514e-14)
(1.07466 -0.0120363 1.38017e-14)
(1.06645 0.0038164 1.53629e-14)
(1.07534 -0.011041 1.45652e-14)
(1.06523 0.00130008 1.51896e-14)
(1.07505 -0.00898781 1.53764e-14)
(1.06464 -0.000592952 1.51711e-14)
(1.07402 -0.00673355 1.63758e-14)
(1.0643 -0.00145478 1.57645e-14)
(1.0728 -0.0048604 1.74682e-14)
(1.06385 -0.00152444 1.58634e-14)
(1.07178 -0.00336923 1.78436e-14)
(1.06333 -0.00138945 1.60176e-14)
(1.07081 -0.00203361 1.81556e-14)
(1.06318 -0.00140884 1.60018e-14)
(1.06956 -0.00087086 1.77578e-14)
(1.06365 -0.00147617 1.55126e-14)
(1.06802 -0.000143355 1.68886e-14)
(1.06446 -0.00129767 1.53432e-14)
(1.06664 -1.57876e-05 1.63158e-14)
(1.06501 -0.000774432 1.4781e-14)
(1.06594 -0.00035513 1.57133e-14)
(1.06489 -9.10903e-05 1.4916e-14)
(1.06601 -0.000805384 1.59039e-14)
(1.06425 0.000422685 1.56008e-14)
(1.06643 -0.000996895 1.60634e-14)
(1.06366 0.000540545 1.58377e-14)
(1.06657 -0.000819911 1.57116e-14)
(1.06365 0.000333264 1.59058e-14)
(1.06611 -0.000470847 1.54715e-14)
(1.06424 3.86571e-05 1.58915e-14)
(1.06532 -0.000190694 1.54896e-14)
(1.06495 -0.00018146 1.60712e-14)
(1.06467 -9.71788e-05 1.51419e-14)
(1.06532 -0.000246321 1.58083e-14)
(1.06447 -0.000252577 1.42788e-14)
(1.06518 -8.8309e-05 1.51306e-14)
(1.06468 -0.00065797 1.35479e-14)
(1.07271 -0.00150028 6.93426e-15)
(1.07278 -0.00153666 8.59569e-15)
(1.07285 -0.00153761 7.69705e-15)
(1.07295 -0.00143416 8.49521e-15)
(1.07301 -0.0013085 8.41244e-15)
(1.07313 -0.0011407 8.68905e-15)
(1.07311 -0.00113304 9.39685e-15)
(1.07324 -0.00110262 8.6651e-15)
(1.07314 -0.00132572 9.99104e-15)
(1.07334 -0.00126219 8.46401e-15)
(1.07312 -0.00153077 1.04721e-14)
(1.07349 -0.00109362 8.675e-15)
(1.07309 -0.00144298 1.09458e-14)
(1.07369 -0.000561529 8.96934e-15)
(1.07299 -0.00148555 1.14147e-14)
(1.0739 -0.000144119 9.13805e-15)
(1.07279 -0.00220103 1.07972e-14)
(1.0741 8.27892e-05 8.94089e-15)
(1.07253 -0.00346169 1.0507e-14)
(1.07422 0.000705615 9.9406e-15)
(1.07234 -0.0047384 1.0967e-14)
(1.07417 0.00218332 1.08303e-14)
(1.07239 -0.00586637 1.10088e-14)
(1.07379 0.00415938 1.15338e-14)
(1.07284 -0.00714122 1.11351e-14)
(1.07292 0.00568483 1.22369e-14)
(1.07377 -0.00870208 1.13359e-14)
(1.07155 0.00595271 1.26085e-14)
(1.07499 -0.0100913 1.12695e-14)
(1.06987 0.00479406 1.24775e-14)
(1.07601 -0.0105419 1.15508e-14)
(1.06821 0.00267728 1.23513e-14)
(1.07632 -0.00966105 1.2101e-14)
(1.0669 0.000404979 1.2355e-14)
(1.07572 -0.00778474 1.25086e-14)
(1.06599 -0.00127538 1.2378e-14)
(1.07449 -0.00566938 1.33177e-14)
(1.06524 -0.00203077 1.25814e-14)
(1.07314 -0.00388168 1.39545e-14)
(1.06445 -0.00205712 1.25655e-14)
(1.07199 -0.00250285 1.43577e-14)
(1.06373 -0.00183271 1.2688e-14)
(1.07089 -0.00138042 1.4558e-14)
(1.06346 -0.00166718 1.26822e-14)
(1.06956 -0.000507866 1.42455e-14)
(1.06382 -0.00151019 1.22476e-14)
(1.06803 -4.19804e-05 1.34957e-14)
(1.0645 -0.00117418 1.21176e-14)
(1.06671 -5.48587e-05 1.30462e-14)
(1.06496 -0.000619 1.17903e-14)
(1.06603 -0.000393347 1.25706e-14)
(1.06482 -1.75775e-05 1.18953e-14)
(1.06606 -0.000745656 1.28258e-14)
(1.06425 0.000361174 1.25871e-14)
(1.06638 -0.000822196 1.2983e-14)
(1.06376 0.000367416 1.28694e-14)
(1.06641 -0.000580266 1.26655e-14)
(1.06384 0.000115676 1.30389e-14)
(1.06591 -0.000235988 1.25782e-14)
(1.06441 -0.000152535 1.29756e-14)
(1.06518 -1.92815e-05 1.26676e-14)
(1.06501 -0.000287862 1.32083e-14)
(1.06465 -2.26146e-05 1.24037e-14)
(1.06525 -0.000253165 1.30727e-14)
(1.06454 -0.000251442 1.17036e-14)
(1.06507 -5.11342e-05 1.24848e-14)
(1.06473 -0.000636633 1.10096e-14)
(1.06467 0.000214318 1.19861e-14)
(1.07466 -0.00149956 7.20982e-15)
(1.07474 -0.00153517 1.31881e-14)
(1.07479 -0.00153707 6.17631e-15)
(1.07488 -0.00143761 1.25558e-14)
(1.07492 -0.00131125 6.51775e-15)
(1.07502 -0.0011448 1.20165e-14)
(1.07502 -0.00112758 7.97158e-15)
(1.07515 -0.00109879 1.13449e-14)
(1.07507 -0.00130526 8.37874e-15)
(1.07524 -0.00125686 1.04509e-14)
(1.07504 -0.00149957 9.37934e-15)
(1.07533 -0.00110425 9.71312e-15)
(1.07497 -0.00139942 9.9985e-15)
(1.07548 -0.000602465 8.99477e-15)
(1.07488 -0.00140691 1.1454e-14)
(1.07567 -0.000227069 8.90396e-15)
(1.07475 -0.0020454 1.1316e-14)
(1.07584 -6.72266e-05 8.90023e-15)
(1.07455 -0.00317999 1.115e-14)
(1.07586 0.000435978 9.86727e-15)
(1.07434 -0.00428418 1.18733e-14)
(1.07565 0.00172094 1.08307e-14)
(1.07433 -0.00519918 1.22326e-14)
(1.07517 0.00344504 1.16014e-14)
(1.07476 -0.00623372 1.24638e-14)
(1.07437 0.00472079 1.22548e-14)
(1.07565 -0.00756253 1.295e-14)
(1.07321 0.00483228 1.144e-14)
(1.07674 -0.00878857 1.22262e-14)
(1.07175 0.00368189 1.12398e-14)
(1.07749 -0.00919991 1.17361e-14)
(1.07016 0.00173517 1.19988e-14)
(1.07744 -0.00840401 1.13012e-14)
(1.06869 -0.000294165 1.26444e-14)
(1.07649 -0.00666955 1.1338e-14)
(1.0674 -0.00178274 1.17936e-14)
(1.07501 -0.0046755 1.16642e-14)
(1.06621 -0.00245092 1.10844e-14)
(1.07349 -0.00297489 1.19187e-14)
(1.06505 -0.00244959 1.02984e-14)
(1.07219 -0.00171311 1.20783e-14)
(1.06409 -0.00215819 9.54859e-15)
(1.07097 -0.000796169 1.22891e-14)
(1.06369 -0.00183819 8.96909e-15)
(1.06958 -0.000194653 1.22883e-14)
(1.06393 -0.00148802 7.75197e-15)
(1.06806 2.45272e-05 1.18555e-14)
(1.06452 -0.00100849 7.24975e-15)
(1.06676 -0.000132133 1.10992e-14)
(1.06491 -0.000413148 6.87475e-15)
(1.06608 -0.000489019 1.05373e-14)
(1.06479 0.000126622 6.73378e-15)
(1.06604 -0.000766442 1.0379e-14)
(1.06429 0.000388959 7.33558e-15)
(1.06626 -0.000741841 1.0209e-14)
(1.0639 0.000287306 7.57885e-15)
(1.06621 -0.000426154 9.68205e-15)
(1.06401 -2.96033e-05 7.80985e-15)
(1.06572 -5.56598e-05 9.43086e-15)
(1.06452 -0.000303211 7.95424e-15)
(1.06508 0.000130243 9.1379e-15)
(1.06499 -0.000383298 8.44114e-15)
(1.06467 4.66343e-05 8.61533e-15)
(1.06514 -0.000252119 8.52448e-15)
(1.06459 -0.000266704 7.79865e-15)
(1.06499 1.4522e-05 8.32448e-15)
(1.0647 -0.000658435 6.86386e-15)
(1.0647 0.000236766 8.28039e-15)
(1.07678 -0.00150054 4.04131e-15)
(1.07686 -0.00153211 5.62061e-15)
(1.0769 -0.00153146 5.05439e-15)
(1.07696 -0.00143487 5.43503e-15)
(1.07698 -0.00130964 5.41528e-15)
(1.07707 -0.00114862 5.56339e-15)
(1.07708 -0.00112499 6.3416e-15)
(1.07721 -0.00109873 5.73672e-15)
(1.07715 -0.00128536 6.66374e-15)
(1.0773 -0.00124776 5.41512e-15)
(1.07709 -0.00145986 6.86014e-15)
(1.07732 -0.00110565 5.47788e-15)
(1.07697 -0.00134877 7.26723e-15)
(1.0774 -0.000641544 5.85484e-15)
(1.07689 -0.00133258 7.71844e-15)
(1.07759 -0.000314868 6.17735e-15)
(1.07683 -0.00189822 7.22433e-15)
(1.07774 -0.000211469 5.97122e-15)
(1.07666 -0.00290038 6.94481e-15)
(1.07766 0.000195316 6.66962e-15)
(1.07639 -0.00383444 7.27796e-15)
(1.0773 0.00130722 7.12045e-15)
(1.0763 -0.00456478 7.3804e-15)
(1.07674 0.00279262 7.58482e-15)
(1.07668 -0.00540793 7.32843e-15)
(1.07603 0.00383901 7.85185e-15)
(1.07756 -0.00655116 7.74889e-15)
(1.07508 0.00383131 8.58666e-15)
(1.07855 -0.00763606 7.54619e-15)
(1.0738 0.0027348 7.93814e-15)
(1.07905 -0.00799954 7.79827e-15)
(1.07221 0.000991253 7.75696e-15)
(1.07863 -0.00726053 8.25346e-15)
(1.07049 -0.000788871 7.85309e-15)
(1.0773 -0.00563962 8.82421e-15)
(1.06878 -0.00209909 7.86363e-15)
(1.07551 -0.00375342 9.41166e-15)
(1.06711 -0.00270208 7.94774e-15)
(1.07379 -0.00214133 9.76102e-15)
(1.06557 -0.00269701 7.97395e-15)
(1.07234 -0.00099577 1.00656e-14)
(1.06437 -0.00236986 8.27997e-15)
(1.071 -0.000270625 1.03335e-14)
(1.06381 -0.00193348 8.60896e-15)
(1.06955 8.32431e-05 1.01485e-14)
(1.06395 -0.00142708 8.27737e-15)
(1.06802 7.45812e-05 9.54761e-15)
(1.06445 -0.000821298 8.02087e-15)
(1.06672 -0.000226344 9.12585e-15)
(1.06482 -0.000179845 7.95574e-15)
(1.06601 -0.000619621 8.85452e-15)
(1.06473 0.000318242 7.99251e-15)
(1.0659 -0.000847795 8.95066e-15)
(1.06431 0.000487336 8.57696e-15)
(1.06602 -0.000738772 8.75908e-15)
(1.064 0.000284199 8.85191e-15)
(1.06593 -0.000342875 8.57865e-15)
(1.06411 -0.000115803 9.02979e-15)
(1.0655 8.28315e-05 8.44386e-15)
(1.06451 -0.000430395 9.25022e-15)
(1.06498 0.000271747 8.37572e-15)
(1.06486 -0.000482327 9.47048e-15)
(1.06465 0.000124668 8.13337e-15)
(1.06497 -0.000259419 9.28575e-15)
(1.06455 -0.000280236 7.84364e-15)
(1.06488 8.67697e-05 9.01573e-15)
(1.06457 -0.000698407 7.35624e-15)
(1.06468 0.000284929 8.71373e-15)
(1.079 -0.00150302 3.33736e-15)
(1.07906 -0.00152642 1.85596e-15)
(1.07908 -0.00151872 3.49328e-15)
(1.07911 -0.00142336 1.8555e-15)
(1.0791 -0.00130157 3.96318e-15)
(1.07917 -0.00115106 2.68906e-15)
(1.07918 -0.00112528 4.56447e-15)
(1.07932 -0.00110255 2.97491e-15)
(1.07926 -0.00126565 4.78022e-15)
(1.07939 -0.00123294 3.52926e-15)
(1.07917 -0.00140894 4.70944e-15)
(1.07932 -0.00109432 3.68991e-15)
(1.07897 -0.00128894 5.15251e-15)
(1.07932 -0.000677195 4.8187e-15)
(1.07888 -0.00126351 5.43659e-15)
(1.07951 -0.00040781 5.22977e-15)
(1.07887 -0.00176097 5.03907e-15)
(1.07967 -0.00034841 5.15934e-15)
(1.0787 -0.00262141 4.80832e-15)
(1.07949 -1.21296e-05 5.64567e-15)
(1.07833 -0.00338537 5.09538e-15)
(1.07897 0.000944816 6.13559e-15)
(1.07811 -0.0039601 5.12841e-15)
(1.07834 0.00219907 6.44797e-15)
(1.07843 -0.00466133 4.87872e-15)
(1.07774 0.00303059 6.55264e-15)
(1.0793 -0.00566172 4.96404e-15)
(1.077 0.00293973 6.6712e-15)
(1.0802 -0.0066208 4.8051e-15)
(1.07583 0.00194669 6.20773e-15)
(1.08045 -0.00692379 5.6039e-15)
(1.07413 0.000446263 6.3123e-15)
(1.07963 -0.00621674 6.06989e-15)
(1.07206 -0.00107121 6.52996e-15)
(1.0779 -0.00469095 7.14991e-15)
(1.06986 -0.00221077 6.57213e-15)
(1.0758 -0.00290716 7.44767e-15)
(1.06771 -0.00277129 6.73092e-15)
(1.07385 -0.00138576 8.21384e-15)
(1.06579 -0.00279334 6.73061e-15)
(1.07223 -0.000353017 8.49873e-15)
(1.06436 -0.00246774 7.0588e-15)
(1.07079 0.000199067 9.48142e-15)
(1.06367 -0.00196523 7.49262e-15)
(1.06929 0.00033768 9.51709e-15)
(1.06372 -0.00134501 7.03766e-15)
(1.06773 0.000126513 9.09368e-15)
(1.06417 -0.000636646 7.34976e-15)
(1.06642 -0.000312053 8.82965e-15)
(1.06454 5.25795e-05 7.20247e-15)
(1.06567 -0.000757313 8.72497e-15)
)
;

boundaryField
{
    inlet
    {
        type            uniformFixedValue;
        uniformValue    constant (1 0 0);
        value           nonuniform 0();
    }
    outlet
    {
        type            pressureInletOutletVelocity;
        value           nonuniform 0();
    }
    wall
    {
        type            fixedValue;
        value           nonuniform 0();
    }
    wedge1
    {
        type            wedge;
    }
    wedge2
    {
        type            wedge;
    }
    axis
    {
        type            empty;
    }
    procBoundary31to25
    {
        type            processor;
        value           nonuniform List<vector> 
68
(
(1.06322 -0.00117851 1.93555e-14)
(1.06815 -0.000511117 2.47445e-14)
(1.06435 -0.00135714 1.81986e-14)
(1.06657 -0.000109795 2.32955e-14)
(1.0652 -0.000874286 1.6873e-14)
(1.06572 -0.00050753 2.17381e-14)
(1.06521 3.09918e-05 1.63879e-14)
(1.06581 -0.00121758 2.0999e-14)
(1.06449 0.000863485 1.67861e-14)
(1.06641 -0.00167603 2.07741e-14)
(1.06369 0.00121697 1.681e-14)
(1.06681 -0.00161649 1.96607e-14)
(1.06345 0.00106165 1.6591e-14)
(1.06656 -0.00119643 1.87782e-14)
(1.06393 0.000642119 1.65888e-14)
(1.0658 -0.000708372 1.82252e-14)
(1.06475 0.000181967 1.7044e-14)
(1.06498 -0.00036687 1.73704e-14)
(1.0654 -0.000111603 1.67862e-14)
(1.06449 -0.000384941 1.56155e-14)
(1.06555 -6.33939e-07 1.60094e-14)
(1.06451 -0.000902881 1.39979e-14)
(1.0693 -0.00150314 1.38606e-14)
(1.06939 -0.00153448 2.2096e-14)
(1.06947 -0.00152759 1.33212e-14)
(1.0696 -0.00141572 2.14981e-14)
(1.06966 -0.00129598 1.44985e-14)
(1.0698 -0.0011339 2.08646e-14)
(1.06977 -0.00114998 1.61962e-14)
(1.06991 -0.00111724 1.98528e-14)
(1.06977 -0.00136504 1.7118e-14)
(1.07003 -0.00126374 1.89903e-14)
(1.06978 -0.00157344 1.86881e-14)
(1.07028 -0.00105472 1.79772e-14)
(1.06977 -0.00151492 1.95299e-14)
(1.07058 -0.0004785 1.73774e-14)
(1.06961 -0.00165028 2.10141e-14)
(1.07087 1.14148e-05 1.70061e-14)
(1.06927 -0.00252707 2.03128e-14)
(1.07118 0.000399368 1.68987e-14)
(1.06889 -0.00403012 2.0377e-14)
(1.07156 0.00131827 1.88237e-14)
(1.06865 -0.00566889 2.09044e-14)
(1.07184 0.00323978 2.03691e-14)
(1.06868 -0.00730604 2.09603e-14)
(1.07167 0.00577793 2.20526e-14)
(1.06913 -0.0092015 2.14142e-14)
(1.07074 0.00788704 2.35405e-14)
(1.07017 -0.0113703 2.18623e-14)
(1.06902 0.00858944 2.27623e-14)
(1.07174 -0.0131706 2.08887e-14)
(1.06686 0.00753915 2.25001e-14)
(1.0734 -0.0136902 2.04849e-14)
(1.06491 0.00515178 2.30466e-14)
(1.07447 -0.0125505 2.07572e-14)
(1.06372 0.00238234 2.32485e-14)
(1.07448 -0.0102819 2.13579e-14)
(1.06339 0.000250631 2.21583e-14)
(1.07361 -0.00786653 2.23392e-14)
(1.06344 -0.00073275 2.1683e-14)
(1.07249 -0.005911 2.32476e-14)
(1.0633 -0.000853028 2.06688e-14)
(1.07159 -0.00432079 2.3309e-14)
(1.06295 -0.000819517 1.95732e-14)
(1.07077 -0.00276976 2.35366e-14)
(1.06287 -0.00105126 1.83802e-14)
(1.06961 -0.00129905 2.29143e-14)
(1.06961 -0.00129905 2.29143e-14)
)
;
    }
    procBoundary31to26
    {
        type            processor;
        value           uniform (1.06487 0.000354168 1.49091e-14);
    }
    procBoundary31to30
    {
        type            processor;
        value           nonuniform List<vector> 4((1.07086 -0.00147136 1.05789e-14) (1.07264 -0.00147328 8.6628e-15) (1.07458 -0.00147707 1.29698e-14) (1.0767 -0.00148357 5.62152e-15));
    }
    procBoundary31to32
    {
        type            processor;
        value           nonuniform List<vector> 5((1.06471 0.000245888 1.45724e-14) (1.06471 0.000245888 1.45724e-14) (1.06496 -0.000987486 1.05189e-14) (1.06482 -0.00090084 6.07722e-15) (1.06464 -0.000850262 7.20711e-15));
    }
    procBoundary31to36
    {
        type            processor;
        value           uniform (1.07891 -0.00149257 2.03171e-15);
    }
    procBoundary31to37
    {
        type            processor;
        value           nonuniform List<vector> 
69
(
(1.0645 0.000530937 7.7561e-15)
(1.06549 -0.000964354 8.77434e-15)
(1.06416 0.000633015 8.04926e-15)
(1.06555 -0.00079302 8.77044e-15)
(1.06389 0.000341304 8.6714e-15)
(1.06545 -0.000318019 8.62336e-15)
(1.06394 -0.000151257 8.54409e-15)
(1.06511 0.000183016 8.47821e-15)
(1.06423 -0.00053483 9.12612e-15)
(1.06471 0.000405291 8.50974e-15)
(1.06448 -0.000584052 9.19487e-15)
(1.06443 0.000214038 8.34973e-15)
(1.06459 -0.000281899 9.50845e-15)
(1.06428 -0.000277322 7.83412e-15)
(1.06456 0.00014434 9.20705e-15)
(1.06424 -0.000730921 7.43245e-15)
(1.0644 0.000333977 9.4592e-15)
(1.08097 -0.00150412 3.04098e-15)
(1.08102 -0.00151432 2.53485e-15)
(1.08099 -0.00149432 3.07703e-15)
(1.08097 -0.00139848 2.65496e-15)
(1.08091 -0.00128323 3.36727e-15)
(1.08095 -0.00114928 2.82499e-15)
(1.08095 -0.00112646 3.8575e-15)
(1.08107 -0.00110796 3.20373e-15)
(1.08101 -0.0012433 4.02784e-15)
(1.0811 -0.00120817 3.19285e-15)
(1.08083 -0.00134268 4.13817e-15)
(1.08091 -0.0010656 3.4422e-15)
(1.08052 -0.00121736 4.57335e-15)
(1.08083 -0.000706614 3.85646e-15)
(1.08039 -0.00119929 4.97119e-15)
(1.08101 -0.000503099 4.35064e-15)
(1.0804 -0.00163236 4.70592e-15)
(1.08115 -0.000472599 4.17895e-15)
(1.08017 -0.0023396 4.70435e-15)
(1.08086 -0.000180131 4.59621e-15)
(1.07963 -0.00293379 5.00524e-15)
(1.08019 0.000636043 5.04372e-15)
(1.07923 -0.00338365 5.08284e-15)
(1.07954 0.00166048 5.16664e-15)
(1.07948 -0.00398984 4.98138e-15)
(1.07907 0.00228843 5.42747e-15)
(1.08031 -0.00488114 5.22476e-15)
(1.07847 0.00215119 5.66869e-15)
(1.08108 -0.00571948 5.3023e-15)
(1.07729 0.00131347 5.42719e-15)
(1.08103 -0.0059459 5.66851e-15)
(1.07533 9.90739e-05 5.77524e-15)
(1.07982 -0.00525352 6.25578e-15)
(1.07279 -0.00113786 6.06516e-15)
(1.07772 -0.00381687 6.83273e-15)
(1.07005 -0.00211261 6.14337e-15)
(1.07533 -0.00214328 7.18717e-15)
(1.06743 -0.00265018 6.18157e-15)
(1.07318 -0.00072252 7.12834e-15)
(1.06518 -0.00273031 6.22166e-15)
(1.07143 0.000200854 7.30047e-15)
(1.06358 -0.00245318 6.6312e-15)
(1.06989 0.000607911 7.50569e-15)
(1.06282 -0.00193876 7.15315e-15)
(1.06833 0.000573138 7.50128e-15)
(1.06284 -0.00125599 6.82298e-15)
(1.06675 0.000195957 6.96261e-15)
(1.06329 -0.000478094 6.68179e-15)
(1.06542 -0.000363271 6.6257e-15)
(1.06368 0.000251758 6.53458e-15)
(1.0645 0.000530937 7.7561e-15)
(1.06463 -0.000870589 6.2847e-15)
)
;
    }
}


// ************************************************************************* //
