/*--------------------------------*- C++ -*----------------------------------*\
  =========                 |
  \\      /  F ield         | OpenFOAM: The Open Source CFD Toolbox
   \\    /   O peration     | Website:  https://openfoam.org
    \\  /    A nd           | Version:  7
     \\/     M anipulation  |
\*---------------------------------------------------------------------------*/
FoamFile
{
    version     2.0;
    format      ascii;
    class       surfaceScalarField;
    location    "44.000726";
    object      phi;
}
// * * * * * * * * * * * * * * * * * * * * * * * * * * * * * * * * * * * * * //

dimensions      [0 3 -1 0 0 0 0];

internalField   nonuniform List<scalar> 
11413
(
-0.000357959
5.69706e-05
-0.000419203
6.11832e-05
-0.000484565
6.52935e-05
-0.000553866
6.92239e-05
-0.000626803
7.28494e-05
-0.00070293
7.60306e-05
-0.000781721
7.86839e-05
-0.000862941
8.11036e-05
8.40225e-05
-3.75081e-06
7.57012e-06
-1.41155e-05
2.09068e-05
-3.07761e-05
3.35969e-05
-5.33893e-05
4.55953e-05
-8.15933e-05
5.68708e-05
-0.000115031
6.74379e-05
-0.000153369
7.73526e-05
-0.000196319
8.67076e-05
-0.000243646
9.56194e-05
-0.000295172
0.000104207
-0.000350762
0.000112561
-0.000410294
0.000120715
-0.000473616
0.000128615
-0.000540486
0.000136094
-0.000610522
0.000142886
-0.000683173
0.000148682
-0.000757721
0.000153231
-0.000833604
0.000156987
0.00016169
-3.61208e-06
1.11822e-05
-1.36151e-05
3.09098e-05
-2.97107e-05
4.96925e-05
-5.15643e-05
6.74489e-05
-7.88121e-05
8.41186e-05
-0.000111083
9.97089e-05
-0.000148019
0.000114289
-0.000189293
0.000127982
-0.00023462
0.000140946
-0.000283755
0.000153342
-0.000336487
0.000165292
-0.0003926
0.000176829
-0.000451838
0.000187852
-0.000513834
0.00019809
-0.00057805
0.000207102
-0.000643727
0.000214359
-0.000709794
0.000219298
-0.000774984
0.000222177
0.000226607
-3.41195e-06
1.45941e-05
-1.2891e-05
4.03889e-05
-2.81649e-05
6.49663e-05
-4.89093e-05
8.81933e-05
-7.47555e-05
0.000109965
-0.000105311
0.000130264
-0.000140178
0.000149156
-0.000178971
0.000166775
-0.000221327
0.000183302
-0.000266905
0.00019892
-0.00031537
0.000213758
-0.000366369
0.000227828
-0.000419476
0.00024096
-0.000474136
0.000252749
-0.000529568
0.000262534
-0.000584716
0.000269506
-0.000638058
0.00027264
-0.000687103
0.000271222
0.000272776
-3.15952e-06
1.77537e-05
-1.19736e-05
4.9203e-05
-2.61986e-05
7.91913e-05
-4.55192e-05
0.000107514
-6.95562e-05
0.000134002
-9.78854e-05
0.000158593
-0.000130055
0.000181326
-0.000165602
0.000202321
-0.000204056
0.000221756
-0.000244942
0.000239806
-0.000287762
0.000256578
-0.000331963
0.000272029
-0.00037689
0.000285887
-0.000421715
0.000297574
-0.000465325
0.000306145
-0.000506264
0.000310445
-0.000542583
0.00030896
-0.000569826
0.000298465
0.00029421
-2.86621e-06
2.06199e-05
-1.09011e-05
5.72379e-05
-2.38874e-05
9.21776e-05
-4.15137e-05
0.00012514
-6.33821e-05
0.00015587
-8.90249e-05
0.000184236
-0.00011792
0.000210221
-0.000149503
0.000233904
-0.00018317
0.000255423
-0.000218274
0.00027491
-0.000254103
0.000292407
-0.000289845
0.000307771
-0.000324534
0.000320576
-0.000356977
0.000330017
-0.000385618
0.000334785
-0.000408446
0.000333273
-0.000423273
0.000323787
-0.000422821
0.000298013
-0.00041271
0.0002841
0.000200292
-2.54511e-06
2.3165e-05
-9.71726e-06
6.441e-05
-2.13183e-05
0.000103779
-3.70311e-05
0.000140853
-5.64273e-05
0.000175266
-7.89814e-05
0.00020679
-0.000104083
0.000235322
-0.000131042
0.000260863
-0.000159092
0.000283473
-0.000187372
0.00030319
-0.000214903
0.000319938
-0.000240542
0.00033341
-0.000262923
0.000342957
-0.000280375
0.00034747
-0.000290758
0.000345168
-0.000291227
0.000333742
-0.000279618
0.000312177
-0.000245754
0.000264149
-0.000194443
0.000232789
0.000102579
-2.21027e-06
2.53752e-05
-8.4692e-06
7.0669e-05
-1.85848e-05
0.000113894
-3.22201e-05
0.000154488
-4.89011e-05
0.000191947
-6.80271e-05
0.000225916
-8.88781e-05
0.000256173
-0.000110615
0.000282601
-0.000132273
0.00030513
-0.000152734
0.000323651
-0.000170692
0.000337896
-0.000184595
0.000347313
-0.00019257
0.000350932
-0.00019233
0.000347229
-0.000181033
0.000333871
-0.000154525
0.000307234
-0.000110019
0.000267671
-3.98807e-05
0.000194011
6.61607e-05
0.000126747
-5.42445e-05
-1.87587e-06
2.72511e-05
-7.20443e-06
7.59975e-05
-1.57813e-05
0.000122471
-2.7231e-05
0.000165938
-4.10147e-05
0.000205731
-5.6436e-05
0.000241338
-7.26419e-05
0.000272379
-8.86154e-05
0.000298574
-0.000103154
0.000319669
-0.000114835
0.000335332
-0.000121959
0.00034502
-0.000122474
0.000347828
-0.000113875
0.000342333
-9.30803e-05
0.000326435
-5.63853e-05
0.000297176
2.23337e-07
0.000250626
8.5969e-05
0.000181925
0.00020586
7.41201e-05
0.00036198
-2.93731e-05
-0.000291585
-1.55533e-06
2.88064e-05
-5.96773e-06
8.04099e-05
-1.29967e-05
0.0001295
-2.22049e-05
0.000175146
-3.29655e-05
0.000216492
-4.4462e-05
0.000252834
-5.56808e-05
0.000283598
-6.53924e-05
0.000308286
-7.2116e-05
0.000326393
-7.40639e-05
0.00033728
-6.90647e-05
0.000340021
-5.44596e-05
0.000333223
-2.69704e-05
0.000314843
1.74544e-05
0.00028201
8.38469e-05
0.000230783
0.000178872
0.000155601
0.000308354
5.24436e-05
0.000487945
-0.000105471
0.000709193
-0.000250621
-0.000618765
0.00103637
-1.26037e-06
3.00668e-05
-4.79788e-06
8.39474e-05
-1.03072e-05
0.000135009
-1.72617e-05
0.000182101
-2.49191e-05
0.000224149
-3.23136e-05
0.000260228
-3.82379e-05
0.000289522
-4.12095e-05
0.000311257
-3.94158e-05
0.000324599
-3.06351e-05
0.000328499
-1.21299e-05
0.000321516
1.94914e-05
0.000301602
6.84483e-05
0.000265886
0.000139989
0.000210469
0.000240549
0.000130223
0.000378579
1.75707e-05
0.000562135
-0.000131112
0.000809246
-0.000352582
0.0011099
-0.000551275
-0.00104743
0.00153857
-1.00008e-06
3.10669e-05
-3.72428e-06
8.66716e-05
-7.76943e-06
0.000139055
-1.24883e-05
0.000186819
-1.69907e-05
0.000228651
-2.01268e-05
0.000263365
-2.04554e-05
0.000289851
-1.61898e-05
0.000306992
-5.11972e-06
0.000313529
1.54982e-05
0.000307881
4.90833e-05
0.000287931
9.99088e-05
0.000250776
0.00017332
0.000192475
0.000275983
0.000107806
0.000416009
-9.80297e-06
0.000603569
-0.000169989
0.000850165
-0.000377709
0.00117289
-0.000675305
0.00156568
-0.000944065
-0.00158588
0.00210413
-7.80013e-07
3.18469e-05
-2.76371e-06
8.86553e-05
-5.41353e-06
0.000141704
-7.92593e-06
0.000189332
-9.2259e-06
0.000229951
-7.93739e-06
0.000262076
-2.33466e-06
0.000284248
9.73649e-06
0.00029492
3.0969e-05
0.000292296
6.47379e-05
0.000274113
0.000115285
0.000237383
0.000187941
0.00017812
0.000289375
9.10411e-05
0.000427873
-3.06918e-05
0.000613436
-0.000195365
0.000857522
-0.000414075
0.00117585
-0.000696033
0.0015808
-0.00108026
0.00207439
-0.00143765
-0.00223272
0.00272122
-6.01375e-07
3.24483e-05
-1.91752e-06
8.99715e-05
-3.23682e-06
0.000143024
-3.55997e-06
0.000189655
-1.58227e-06
0.000227974
4.34422e-06
0.00025615
1.62965e-05
0.000272296
3.68789e-05
0.000274338
6.93706e-05
0.000259805
0.000117914
0.00022557
0.000187739
0.000167558
0.00028542
8.04384e-05
0.000419131
-4.26695e-05
0.000598873
-0.000210433
0.000836572
-0.000433065
0.00114427
-0.000721771
0.00154084
-0.00109261
0.00203145
-0.00157086
0.00262693
-0.00203313
-0.00297064
0.00336485
-4.60465e-07
3.29087e-05
-1.16955e-06
9.06806e-05
-1.19866e-06
0.000143053
6.90857e-07
0.000187765
6.07506e-06
0.00022259
1.69499e-05
0.000245275
3.58141e-05
0.000253431
6.58212e-05
0.000244331
0.000110966
0.000214659
0.000176315
0.000160221
0.000268262
7.56112e-05
0.000394791
-4.60908e-05
0.00056567
-0.000213549
0.000792484
-0.000437248
0.00108862
-0.000729204
0.00146598
-0.00109913
0.00194261
-0.00156924
0.00251611
-0.00214437
0.00320317
-0.00272019
-0.00376432
0.00399686
-3.48457e-07
3.32572e-05
-4.84486e-07
9.08166e-05
7.78482e-07
0.00014179
4.96387e-06
0.00018358
1.39944e-05
0.000213559
3.02683e-05
0.000229001
5.68051e-05
0.000226895
9.74282e-05
0.000203708
0.000156994
0.000155094
0.000241653
7.55618e-05
0.000359116
-4.1852e-05
0.000518855
-0.000205829
0.000732117
-0.000426811
0.00101157
-0.000716698
0.00137074
-0.00108837
0.00182046
-0.00154885
0.00237185
-0.00212063
0.00301598
-0.00278849
0.00376972
-0.00347394
-0.00456599
0.00457139
-2.51578e-07
3.35088e-05
1.90744e-07
9.03743e-05
2.80912e-06
0.000139171
9.48085e-06
0.000176908
2.25237e-05
0.000200516
4.48327e-05
0.000206692
8.00554e-05
0.000191672
0.000132817
0.000150947
0.000208982
7.89283e-05
0.000315927
-3.13832e-05
0.000462746
-0.000188671
0.000660281
-0.000403364
0.000920793
-0.000687323
0.00125698
-0.00105289
0.0016803
-0.00151169
0.00219863
-0.00206719
0.00281078
-0.00273278
0.00350227
-0.00347999
0.00428322
-0.00425488
-0.00532697
0.0050442
-1.52052e-07
3.36608e-05
9.14972e-07
8.93072e-05
5.04783e-06
0.000135039
1.45102e-05
0.000167446
3.20988e-05
0.000182928
6.13001e-05
0.000177491
0.000106507
0.000146465
0.000173279
8.4175e-05
0.000268616
-1.64091e-05
0.000401181
-0.000163948
0.00058135
-0.00036884
0.000820911
-0.000642925
0.00113215
-0.000998558
0.00152608
-0.00144682
0.00200936
-0.00199497
0.00258367
-0.0026415
0.0032336
-0.00338271
0.00394037
-0.00418676
0.00470055
-0.00501506
-0.00600952
0.0053831
-2.78181e-08
3.36886e-05
1.7815e-06
8.74979e-05
7.67125e-06
0.000129149
2.03657e-05
0.000154751
4.32181e-05
0.000160075
8.04067e-05
0.000140302
0.000137187
8.96849e-05
0.00022016
1.20169e-06
0.000337528
-0.000133777
0.000499153
-0.000325574
0.00071633
-0.000586017
0.00100093
-0.000927521
0.00136367
-0.0013613
0.00181155
-0.0018947
0.00234389
-0.00252731
0.00295269
-0.00325029
0.00361084
-0.00404086
0.00429711
-0.00487304
0.00499162
-0.00570957
-0.00659416
0.00557626
1.48463e-07
3.35402e-05
2.87359e-06
8.47728e-05
1.08694e-05
0.000121153
2.73827e-05
0.000138238
5.6406e-05
0.000131052
0.000102907
9.3801e-05
0.000173098
1.94934e-05
0.000274695
-0.000100395
0.000417022
-0.000276104
0.000610859
-0.000519411
0.000867678
-0.000842836
0.00119806
-0.00125791
0.00160912
-0.00177236
0.00210126
-0.00238683
0.00266479
-0.00309084
0.00328071
-0.00386621
0.00391637
-0.00467652
0.00454937
-0.00550605
0.00514633
-0.00630652
-0.0070918
0.00564397
3.96034e-07
3.31441e-05
4.27844e-06
8.08904e-05
1.48324e-05
0.000110599
3.58921e-05
0.000117178
7.21684e-05
9.47757e-05
0.000129501
3.64682e-05
0.000215119
-6.61243e-05
0.000337804
-0.00022308
0.000507791
-0.000446091
0.000736165
-0.000747785
0.00103344
-0.00114011
0.00140711
-0.00163158
0.00185844
-0.00222369
0.00237934
-0.00290773
0.002951
-0.0036625
0.00354598
-0.0044612
0.00413329
-0.00526382
0.00469132
-0.00606407
0.00518816
-0.00680337
-0.00755504
0.0056514
7.40272e-07
3.24039e-05
6.07881e-06
7.55519e-05
1.97365e-05
9.69414e-05
4.61936e-05
9.07213e-05
9.09456e-05
5.00237e-05
0.000160756
-3.33418e-05
0.000263852
-0.000169221
0.000409917
-0.000369145
0.000609627
-0.000645801
0.000873441
-0.0010116
0.00120938
-0.00147605
0.00161991
-0.00204211
0.00209864
-0.00270242
0.00262863
-0.00343772
0.00318405
-0.00421792
0.00373484
-0.00501199
0.00425664
-0.00578562
0.00473093
-0.00653836
0.00515862
-0.00723106
-0.00795261
0.00555619
1.20059e-06
3.12033e-05
8.3459e-06
6.84066e-05
2.57309e-05
7.95564e-05
5.85309e-05
5.79212e-05
0.000113069
-4.51457e-06
0.000197031
-0.000117304
0.000319529
-0.000291718
0.000490797
-0.000540413
0.000721217
-0.00087622
0.00101937
-0.00130975
0.00138907
-0.00184576
0.00182604
-0.00247908
0.00231567
-0.00319205
0.00283387
-0.00395592
0.00335203
-0.00473609
0.00384371
-0.00550367
0.00429324
-0.00623515
0.00469408
-0.0069392
0.00505723
-0.00759421
-0.00828692
0.00539155
1.79271e-06
2.94106e-05
1.11353e-05
5.9064e-05
3.2927e-05
5.77647e-05
7.3071e-05
1.77772e-05
0.000138725
-7.01684e-05
0.000238421
-0.000217
0.000381908
-0.000435205
0.000579417
-0.000737922
0.000840031
-0.00113683
0.00116899
-0.00163871
0.00156434
-0.0022411
0.00201422
-0.00292896
0.00249689
-0.00367472
0.00298471
-0.00444373
0.0034513
-0.00520268
0.00387799
-0.00593036
0.00425933
-0.00661649
0.00459806
-0.00727794
0.00490966
-0.00790581
-0.00858213
0.00520486
2.52801e-06
2.68826e-05
1.44848e-05
4.71072e-05
4.1393e-05
3.08565e-05
8.98906e-05
-3.07203e-05
0.000167925
-0.000148202
0.000284707
-0.000333783
0.000450218
-0.000600716
0.000673913
-0.000961617
0.000962375
-0.0014253
0.00131607
-0.0019924
0.00172624
-0.00265128
0.002174
-0.00337672
0.00263325
-0.00413397
0.00307715
-0.00488763
0.00348561
-0.00561113
0.00384936
-0.00629411
0.00417153
-0.00693866
0.00446073
-0.00756714
0.00473398
-0.00817905
-0.00884718
0.00499903
3.41359e-06
2.3469e-05
1.84138e-05
3.2107e-05
5.11492e-05
-1.87891e-06
0.000108966
-8.85371e-05
0.000200491
-0.000239728
0.000335335
-0.000468627
0.000523136
-0.000788517
0.000771617
-0.0012101
0.0010836
-0.00173728
0.00145367
-0.00236247
0.0018663
-0.00306391
0.00229751
-0.00380793
0.00272054
-0.004557
0.00311325
-0.00528034
0.00346376
-0.00596165
0.00377143
-0.00660178
0.00404513
-0.00721236
0.00429608
-0.00781808
0.00453984
-0.00842281
-0.00908856
0.00478122
4.45261e-06
1.90164e-05
2.29235e-05
1.3636e-05
6.21675e-05
-4.11229e-05
0.000130169
-0.000156539
0.000236047
-0.000345605
0.000389401
-0.000621982
0.000598802
-0.000997918
0.000869182
-0.00148048
0.00119849
-0.00206659
0.00157504
-0.00273902
0.00197771
-0.00346658
0.00238041
-0.00421063
0.00275933
-0.00493592
0.00309932
-0.00562034
0.00339665
-0.00625897
0.00365705
-0.00686218
0.00389226
-0.00744756
0.00411355
-0.00803938
0.00433399
-0.00864326
-0.00931041
0.00455585
5.64469e-06
1.33717e-05
2.79971e-05
-8.71633e-06
7.43701e-05
-8.7496e-05
0.000153264
-0.000235432
0.000274011
-0.000466352
0.000445671
-0.000793642
0.000674901
-0.00122715
0.000962819
-0.0017684
0.00130183
-0.0024056
0.00167445
-0.00311164
0.0020562
-0.00384832
0.0024221
-0.00457653
0.00275385
-0.00526766
0.00304386
-0.00591035
0.00329501
-0.00651013
0.00351688
-0.00708404
0.0037217
-0.00765239
0.00391946
-0.00823713
0.00412039
-0.00884419
-0.00951469
0.00432466
6.98599e-06
6.38568e-06
3.35992e-05
-3.53296e-05
8.76283e-05
-0.000141525
0.000177905
-0.000325709
0.000313605
-0.000602052
0.00050261
-0.000982647
0.000748781
-0.00147332
0.00104862
-0.00206823
0.00138893
-0.00274591
0.0017479
-0.00347061
0.00210033
-0.00420076
0.00242507
-0.00490127
0.00271046
-0.00555306
0.00295569
-0.00615558
0.00316817
-0.0067226
0.00335901
-0.00727488
0.00353951
-0.00783289
0.00371773
-0.00841534
0.0039013
-0.00902777
-0.0097025
0.00408912
8.46874e-06
-2.08306e-06
3.96755e-05
-6.65363e-05
0.000101761
-0.00020361
0.000203639
-0.000427587
0.000353869
-0.000752282
0.000558449
-0.00118723
0.000817645
-0.00173251
0.00112292
-0.00237351
0.00145621
-0.0030792
0.00179339
-0.00380778
0.00211117
-0.00451854
0.00239382
-0.00518392
0.00263627
-0.00579551
0.00284288
-0.0063622
0.00302353
-0.00690325
0.00318926
-0.00744062
0.00334963
-0.00799326
0.00351075
-0.00857646
0.00367815
-0.00919517
-0.0098743
0.00384995
1.00806e-05
-1.21637e-05
4.61505e-05
-0.000102606
0.000116533
-0.000273993
0.000229908
-0.000540962
0.00039369
-0.000916064
0.000611287
-0.00140482
0.000878771
-0.002
0.0011827
-0.00267744
0.00150147
-0.00339797
0.00181092
-0.00411723
0.00209162
-0.00479924
0.00233383
-0.00542613
0.00253808
-0.00599976
0.00271213
-0.00653625
0.00286665
-0.00705777
0.0030116
-0.00758556
0.00315458
-0.00813624
0.00330002
-0.0087219
0.0034518
-0.00934695
-0.0100303
0.00360775
1.1805e-05
-2.39686e-05
5.29265e-05
-0.000143728
0.000131656
-0.000352722
0.000256063
-0.000665369
0.000431852
-0.00109185
0.000659212
-0.00163218
0.000929754
-0.00227054
0.0012258
-0.00297349
0.00152397
-0.00369614
0.0018021
-0.00439536
0.00204571
-0.00504285
0.00225072
-0.00563114
0.00242187
-0.0061709
0.0025687
-0.00668308
0.0027015
-0.00719057
0.00282866
-0.00771273
0.00295596
-0.00826353
0.00308645
-0.0088524
0.00322285
-0.00948334
-0.0101704
0.00336295
1.36185e-05
-3.75872e-05
5.98833e-05
-0.000189993
0.000146793
-0.000439632
0.000281388
-0.000799964
0.000467103
-0.00127757
0.000700449
-0.00186553
0.000968706
-0.0025388
0.00125111
-0.00325589
0.00152431
-0.00396935
0.00176964
-0.00464068
0.00197785
-0.00525107
0.00214965
-0.00580294
0.00229252
-0.00631377
0.00241652
-0.00680708
0.00253084
-0.0073049
0.0026422
-0.00782409
0.00275479
-0.00837612
0.00287071
-0.00896831
0.00299177
-0.00960441
-0.0102945
0.00311595
1.54921e-05
-5.30792e-05
6.68789e-05
-0.000241379
0.000161568
-0.000534321
0.000305128
-0.000943524
0.000498232
-0.00147067
0.00073349
-0.00210079
0.000994393
-0.0027997
0.00125848
-0.00351998
0.00150409
-0.00421495
0.00171682
-0.00485342
0.00189238
-0.00542663
0.00203508
-0.00594563
0.00215389
-0.00643259
0.00225846
-0.00691165
0.00235657
-0.007403
0.00245336
-0.00792088
0.00255179
-0.00847455
0.00265325
-0.00906978
0.00275897
-0.00971013
-0.0104027
0.00286712
1.73907e-05
-7.04699e-05
7.37537e-05
-0.000297742
0.00017558
-0.000636147
0.000326535
-0.00109448
0.00052415
-0.00166829
0.000757208
-0.00233385
0.00100628
-0.00304877
0.00124867
-0.00376237
0.00146555
-0.00443184
0.00164711
-0.00503497
0.00179322
-0.00557275
0.00191067
-0.00606309
0.00200889
-0.0065308
0.00209655
-0.00699931
0.00217996
-0.00748641
0.00226292
-0.00800384
0.00234746
-0.00855909
0.0024345
-0.00915682
0.00252481
-0.00980044
-0.0104947
0.00261682
1.92742e-05
-8.97441e-05
8.03357e-05
-0.000358804
0.000188423
-0.000744235
0.000344906
-0.00125096
0.000543968
-0.00186735
0.000770917
-0.00256079
0.00100447
-0.00328233
0.00122301
-0.00398091
0.0014113
-0.00462012
0.00156381
-0.00518748
0.00168376
-0.0056927
0.00177933
-0.00615865
0.00185966
-0.00661114
0.00193222
-0.00707187
0.00200191
-0.00755609
0.00207146
-0.00807339
0.00214222
-0.00862985
0.00221479
-0.00922939
0.00228964
-0.00987529
-0.0105705
0.00236539
2.1099e-05
-0.000110843
8.64479e-05
-0.000424153
0.000199704
-0.000857491
0.00035963
-0.00141089
0.000557045
-0.00206476
0.000774381
-0.00277813
0.000989644
-0.00349759
0.0011833
-0.00417457
0.00134397
-0.00478079
0.00146994
-0.00531345
0.00156679
-0.00578955
0.00164328
-0.00623514
0.00170779
-0.00667565
0.00176648
-0.00713057
0.00182305
-0.00761265
0.0018794
-0.00812974
0.00193641
-0.00868686
0.00199446
-0.00928745
0.00205378
-0.00993461
-0.0106299
0.00211321
2.28191e-05
-0.000133662
9.19161e-05
-0.00049325
0.000209068
-0.000974643
0.000370222
-0.00157204
0.000563016
-0.00225756
0.000767779
-0.00298289
0.000962858
-0.00369267
0.0011315
-0.00434321
0.0012661
-0.0049154
0.00136809
-0.00541544
0.00144457
-0.00586602
0.00150422
-0.0062948
0.00155441
-0.00672585
0.00160006
-0.00717621
0.00164386
-0.00765646
0.00168712
-0.00817299
0.00173037
-0.00873011
0.00177385
-0.00933093
0.00181759
-0.00997835
-0.0106729
0.00186063
2.43888e-05
-0.000158051
9.65775e-05
-0.000565438
0.000216212
-0.00109428
0.000376344
-0.00173217
0.000561793
-0.00244301
0.000751633
-0.00317273
0.000925442
-0.00386648
0.00106961
-0.00448737
0.00118
-0.00502579
0.00126045
-0.00549589
0.00131886
-0.00592443
0.00136341
-0.00633935
0.00140035
-0.00676278
0.00143348
-0.00720934
0.00146473
-0.00768771
0.00149493
-0.0082032
0.0015244
-0.00875958
0.00155326
-0.00935979
0.0015814
-0.0100065
-0.0106995
0.00160802
2.57638e-05
-0.000183815
0.000100288
-0.000639963
0.000220903
-0.00121489
0.000377818
-0.00188909
0.000553539
-0.00261873
0.000726723
-0.00334592
0.000878853
-0.00401861
0.000999545
-0.00460806
0.00108768
-0.00511393
0.00114881
-0.00555701
0.00119104
-0.00596666
0.0012218
-0.00637011
0.00124623
-0.00678721
0.00126718
-0.0072303
0.00128597
-0.0077065
0.00130313
-0.00822035
0.0013188
-0.00877525
0.00133301
-0.009374
0.00134555
-0.010019
-0.0107097
0.00135577
2.69041e-05
-0.000210719
0.00010293
-0.000715989
0.000222988
-0.00133495
0.000374623
-0.00204072
0.000538626
-0.00278273
0.000693999
-0.00350129
0.000824573
-0.00414918
0.000923075
-0.00470656
0.000990865
-0.00518172
0.00103458
-0.00560073
0.00106216
-0.00599424
0.0010801
-0.00638805
0.00109251
-0.00679962
0.00110149
-0.00723927
0.00110789
-0.0077129
0.001112
-0.00822445
0.00111384
-0.00877709
0.0011134
-0.00937356
0.00111038
-0.010016
-0.0107036
0.00110428
2.77746e-05
-0.000238494
0.000104414
-0.000792628
0.00022239
-0.00145293
0.00036688
-0.00218521
0.000517586
-0.00293344
0.000654498
-0.0036382
0.00076403
-0.00425871
0.000841758
-0.00478429
0.000890979
-0.00523094
0.000918917
-0.00562867
0.000933025
-0.00600835
0.000938842
-0.00639386
0.000939579
-0.00680036
0.000936712
-0.00723641
0.000930754
-0.00770694
0.00092181
-0.00821551
0.000909821
-0.0087651
0.000894703
-0.00935844
0.000876201
-0.00999752
-0.0106812
0.000853781
2.83473e-05
-0.000266841
0.000104684
-0.000868965
0.000219114
-0.00156736
0.000354827
-0.00232093
0.000491059
-0.00306967
0.000609279
-0.00375642
0.000698549
-0.00434798
0.000756948
-0.00484269
0.000789199
-0.00526319
0.000802705
-0.00564217
0.000804251
-0.0060099
0.000798449
-0.00638806
0.000787737
-0.00678964
0.000773107
-0.00722178
0.000754815
-0.00768865
0.000732834
-0.00819353
0.000707017
-0.00873929
0.000677213
-0.00932864
0.000643217
-0.00996353
-0.0106425
0.000604502
2.86013e-05
-0.000295442
0.000103716
-0.00094408
0.000213235
-0.00167688
0.000338798
-0.00244649
0.000459745
-0.00319062
0.000559376
-0.00385605
0.000629327
-0.00441793
0.000669793
-0.00488316
0.000686476
-0.00527988
0.000686643
-0.00564234
0.000676318
-0.00599957
0.000659257
-0.006371
0.00063725
-0.00676764
0.000610919
-0.00719545
0.000580326
-0.00765806
0.000545333
-0.00815854
0.000505732
-0.00869969
0.000461297
-0.0092842
0.000411648
-0.00991388
-0.0105874
0.000356552
2.85241e-05
-0.000323966
0.00010152
-0.00101708
0.000204888
-0.00178024
0.00031919
-0.00256079
0.000424366
-0.00329579
0.000505758
-0.00393744
0.000557414
-0.00446959
0.000581253
-0.004907
0.00058357
-0.00528219
0.000571276
-0.00563005
0.000549604
-0.0059779
0.000521542
-0.00634294
0.000488356
-0.00673445
0.000450378
-0.00715747
0.000407529
-0.00761521
0.000359569
-0.00811058
0.000306229
-0.00864635
0.000247356
-0.00922533
0.000182146
-0.00984867
-0.0105148
0.000109521
2.81109e-05
-0.000352077
9.81307e-05
-0.0010871
0.000194257
-0.00187637
0.000296441
-0.00266297
0.000385632
-0.00338499
0.000449314
-0.00400113
0.000483719
-0.00450399
0.00049212
-0.0049154
0.000481088
-0.00527116
0.000457033
-0.00560599
0.00042441
-0.00594528
0.000385539
-0.00630407
0.00034127
-0.00669018
0.000291703
-0.0071079
0.000236642
-0.00756015
0.000175802
-0.00804974
0.000108689
-0.00857923
3.50851e-05
-0.00915172
-4.40716e-05
-0.00976951
-0.010425
-0.000133808
2.73644e-05
-0.000379442
9.36105e-05
-0.00115334
0.00018156
-0.00196432
0.000271004
-0.00275242
0.00034422
-0.0034582
0.000390838
-0.00404774
0.000409015
-0.00452217
0.000403042
-0.00490943
0.000379514
-0.00524763
0.000344252
-0.00557073
0.000300986
-0.00590201
0.000251461
-0.00625454
0.000196187
-0.00663491
0.000135098
-0.00704681
6.78118e-05
-0.00749286
-6.04025e-06
-0.00797589
-8.64111e-05
-0.00849886
-0.000173829
-0.00906431
-0.000269532
-0.00967381
-0.0103212
-0.000373405
2.62943e-05
-0.000405736
8.80402e-05
-0.00121509
0.000167038
-0.00204332
0.000243333
-0.00282871
0.000300758
-0.00351563
0.000331027
-0.00407801
0.000333952
-0.00452509
0.000314542
-0.00489002
0.00027923
-0.00521232
0.00023321
-0.00552471
0.000179535
-0.00584833
0.000119495
-0.0061945
5.32034e-05
-0.00656862
-1.94087e-05
-0.0069742
-9.84768e-05
-0.00741379
-0.000184716
-0.00788965
-0.000278666
-0.00840491
-0.000380441
-0.00896253
-0.0004912
-0.00956305
-0.0102019
-0.000610432
2.4916e-05
-0.000430652
8.15157e-05
-0.00127169
0.000150945
-0.00211275
0.000213863
-0.00289163
0.000255817
-0.00355758
0.000270485
-0.00409268
0.00025907
-0.00451368
0.000227046
-0.00485799
0.000180545
-0.00516582
0.000124137
-0.0054683
6.01743e-05
-0.00578437
-1.04398e-05
-0.00612389
-8.72468e-05
-0.00649181
-0.000170969
-0.00689048
-0.000262098
-0.00732267
-0.00036098
-0.00779076
-0.000468182
-0.00829771
-0.000584153
-0.00884656
-0.000709585
-0.00943762
-0.0100672
-0.000844313
2.32499e-05
-0.000453902
7.41433e-05
-0.00132258
0.000133534
-0.00217214
0.000183008
-0.00294111
0.000209907
-0.00358448
0.000209731
-0.00409251
0.000184817
-0.00448877
0.000140892
-0.00481407
8.37008e-05
-0.00510863
1.70495e-05
-0.00540165
-5.67677e-05
-0.00571055
-0.000137368
-0.00604329
-0.000225066
-0.00640411
-0.000320065
-0.00679548
-0.000422968
-0.00721976
-0.000534298
-0.00767943
-0.000654625
-0.00817738
-0.000784542
-0.00871664
-0.000924525
-0.00929763
-0.00991718
-0.00107456
2.13204e-05
-0.000475222
6.60353e-05
-0.00136729
0.000115056
-0.00222116
0.00015115
-0.0029772
0.000163482
-0.00359681
0.000149203
-0.00407823
0.000111561
-0.00445112
5.63445e-05
-0.00475885
-1.12261e-05
-0.00504106
-8.74139e-05
-0.00532546
-0.000171128
-0.00562684
-0.000261959
-0.00595246
-0.000360217
-0.00630585
-0.000466319
-0.00668938
-0.000580847
-0.00710524
-0.000704429
-0.00755585
-0.000837712
-0.0080441
-0.000981359
-0.008573
-0.00113577
-0.00914322
-0.00975209
-0.00130085
1.91553e-05
-0.000494378
5.73068e-05
-0.00140545
9.57508e-05
-0.0022596
0.000118638
-0.00300009
0.000116935
-0.00359511
8.92715e-05
-0.00405056
3.96063e-05
-0.00440146
-2.63371e-05
-0.00469291
-0.000103594
-0.0049638
-0.000189519
-0.00523954
-0.000282947
-0.00553341
-0.000383817
-0.00585159
-0.000492504
-0.00619717
-0.000609534
-0.00657235
-0.000735523
-0.00697925
-0.000871163
-0.00742021
-0.00101719
-0.00789808
-0.00117435
-0.00841583
-0.00134302
-0.00897455
-0.00957222
-0.00152289
1.67856e-05
-0.000511163
4.8073e-05
-0.00143673
7.58497e-05
-0.00228738
8.579e-05
-0.00301003
7.06067e-05
-0.00357993
3.02821e-05
-0.00401024
-3.0789e-05
-0.00434039
-0.000106916
-0.00461678
-0.000193784
-0.00487693
-0.000289087
-0.00514424
-0.000392054
-0.00543045
-0.000502792
-0.00574085
-0.000621759
-0.0060782
-0.000749542
-0.00644456
-0.000886805
-0.00684198
-0.00103429
-0.00727273
-0.00119281
-0.00773955
-0.00136325
-0.00824539
-0.00154599
-0.00879182
-0.00937784
-0.00174037
1.4247e-05
-0.00052541
3.84459e-05
-0.00146093
5.55695e-05
-0.0023045
5.28902e-05
-0.00300735
2.48901e-05
-0.00355192
-2.75823e-05
-0.00395777
-9.94612e-05
-0.00426851
-0.000185382
-0.00453086
-0.000281518
-0.0047808
-0.000385987
-0.00503977
-0.000498317
-0.00531812
-0.000618755
-0.00562041
-0.00074783
-0.00594912
-0.000886178
-0.00630622
-0.00103451
-0.00669365
-0.0011936
-0.00711363
-0.00136437
-0.00756879
-0.00154783
-0.00806192
-0.00174441
-0.00859524
-0.00916924
-0.00195301
1.15892e-05
-0.000536999
2.85532e-05
-0.0014779
3.51099e-05
-0.00231106
2.02901e-05
-0.00299253
-2.01815e-05
-0.00351145
-8.41312e-05
-0.00389382
-0.000166264
-0.00418638
-0.000261571
-0.00443555
-0.000366685
-0.00467568
-0.000480113
-0.00492634
-0.000601622
-0.00519661
-0.000731578
-0.00549046
-0.000870571
-0.00581013
-0.00101928
-0.00615751
-0.00117845
-0.00653448
-0.00134891
-0.00694318
-0.00153165
-0.00738605
-0.00172786
-0.00786571
-0.00193804
-0.00838506
-0.00894684
-0.00216044
8.86857e-06
-0.000545868
1.8505e-05
-0.00148753
1.46998e-05
-0.00230725
-1.19908e-05
-0.00296584
-6.4489e-05
-0.00345896
-0.000139184
-0.00381912
-0.00023106
-0.0040945
-0.000335377
-0.00433123
-0.000449197
-0.00456186
-0.00057137
-0.00480417
-0.000701862
-0.00506611
-0.000841139
-0.00535118
-0.000989843
-0.00566143
-0.0011487
-0.00599865
-0.00131848
-0.0063647
-0.00150004
-0.00676161
-0.00169444
-0.00719165
-0.00190309
-0.00765707
-0.00212655
-0.0081616
-0.00871101
-0.00236238
6.03797e-06
-0.000551906
8.34107e-06
-0.00148984
-5.50081e-06
-0.00229341
-4.41838e-05
-0.00292715
-0.000107653
-0.00339549
-0.000192579
-0.0037342
-0.000293736
-0.00399334
-0.00040671
-0.00421826
-0.000528971
-0.0044396
-0.000659669
-0.00467347
-0.000798936
-0.00492685
-0.000947319
-0.0052028
-0.00110551
-0.00550323
-0.00127428
-0.00582989
-0.00145442
-0.00618456
-0.00164681
-0.00656922
-0.00185257
-0.00698589
-0.00207326
-0.00743637
-0.0023097
-0.00792516
-0.00846173
-0.00255898
3.07858e-06
-0.000554984
-1.71364e-06
-0.00148504
-2.61975e-05
-0.00226893
-7.55041e-05
-0.00287785
-0.000149563
-0.00332143
-0.000244198
-0.00363956
-0.000354199
-0.00388334
-0.000475495
-0.00409696
-0.000605934
-0.00430916
-0.000744927
-0.00453448
-0.000892745
-0.00477903
-0.00105001
-0.00504554
-0.00121745
-0.00533579
-0.00139587
-0.00565146
-0.00158612
-0.00599432
-0.00178908
-0.00636626
-0.00200592
-0.00676905
-0.00223824
-0.00720405
-0.00248726
-0.00767615
-0.00819895
-0.00275004
-3.09569e-07
-0.000554675
-1.22329e-05
-0.00147312
-4.62072e-05
-0.00223495
-0.00010597
-0.00281808
-0.000190097
-0.0032373
-0.000293941
-0.00353572
-0.000412373
-0.00376491
-0.000541668
-0.00396767
-0.000680019
-0.00417081
-0.000827065
-0.00438743
-0.000983194
-0.0046229
-0.00114908
-0.00487965
-0.00132552
-0.00515935
-0.00151334
-0.00546364
-0.00171342
-0.00579424
-0.00192672
-0.00615297
-0.00215445
-0.00654131
-0.0023981
-0.0069604
-0.00265826
-0.00741599
-0.00792397
-0.00293323
-3.06439e-06
-0.00055161
-2.23786e-05
-0.00145381
-6.57121e-05
-0.00219162
-0.000135472
-0.00274832
-0.000229155
-0.00314362
-0.000341728
-0.00342314
-0.000468195
-0.00363844
-0.00060517
-0.00383069
-0.000751163
-0.00402482
-0.000906008
-0.00423259
-0.00107019
-0.00445872
-0.00124445
-0.00470539
-0.0014296
-0.0049742
-0.00162653
-0.00526672
-0.00183615
-0.00558462
-0.00205953
-0.00592958
-0.00229797
-0.00630288
-0.00255278
-0.00670559
-0.00282579
-0.00714298
-0.00764471
-0.00310506
-6.03107e-06
-0.000545579
-3.22997e-05
-0.00142754
-8.46603e-05
-0.00213926
-0.000163935
-0.00266905
-0.000266658
-0.00304089
-0.000387496
-0.00330231
-0.000521611
-0.00350433
-0.000665951
-0.00368635
-0.000819306
-0.00387146
-0.000981682
-0.00407021
-0.00115365
-0.00428675
-0.00133599
-0.00452305
-0.00152957
-0.00478062
-0.00173529
-0.00506099
-0.00195415
-0.00536576
-0.00218729
-0.00569644
-0.00243596
-0.00605421
-0.00270031
-0.00644124
-0.00297864
-0.00686464
-0.00732752
-0.00329582
-8.98506e-06
-0.000536594
-4.19772e-05
-0.00139455
-0.000102983
-0.00207825
-0.000191285
-0.00258075
-0.000302542
-0.00292964
-0.000431191
-0.00317366
-0.000572578
-0.00336294
-0.000723964
-0.00353497
-0.000884394
-0.00371103
-0.00105402
-0.00390059
-0.00123348
-0.00410729
-0.00142361
-0.00433292
-0.0016253
-0.00457894
-0.0018395
-0.00484679
-0.00206727
-0.00513799
-0.00230975
-0.00545396
-0.00256785
-0.0057961
-0.00284176
-0.00616733
-0.00313424
-0.00657216
-0.00700526
-0.00345651
-1.18847e-05
-0.00052471
-5.13688e-05
-0.00135506
-0.000120618
-0.002009
-0.000217455
-0.00248391
-0.00033675