/*--------------------------------*- C++ -*----------------------------------*\
  =========                 |
  \\      /  F ield         | OpenFOAM: The Open Source CFD Toolbox
   \\    /   O peration     | Website:  https://openfoam.org
    \\  /    A nd           | Version:  7
     \\/     M anipulation  |
\*---------------------------------------------------------------------------*/
FoamFile
{
    version     2.0;
    format      ascii;
    class       volScalarField;
    location    "58.999724";
    object      p;
}
// * * * * * * * * * * * * * * * * * * * * * * * * * * * * * * * * * * * * * //

dimensions      [0 2 -2 0 0 0 0];

internalField   nonuniform List<scalar> 
5800
(
-0.22711
-0.227615
-0.228051
-0.228385
-0.22858
-0.228594
-0.228387
-0.227942
-0.227228
-0.219412
-0.221157
-0.222215
-0.223044
-0.223768
-0.22441
-0.225007
-0.225587
-0.22616
-0.226724
-0.227267
-0.227769
-0.228202
-0.228534
-0.228727
-0.228739
-0.228523
-0.228064
-0.227334
-0.219947
-0.221633
-0.222657
-0.223459
-0.22416
-0.224782
-0.225362
-0.225927
-0.226487
-0.227039
-0.227573
-0.228068
-0.228496
-0.228824
-0.229014
-0.229021
-0.228791
-0.228301
-0.227562
-0.220733
-0.222333
-0.223306
-0.224069
-0.224735
-0.225327
-0.225881
-0.226421
-0.22696
-0.227495
-0.228014
-0.228497
-0.228916
-0.229238
-0.229421
-0.229422
-0.229174
-0.22863
-0.227927
-0.221748
-0.223239
-0.224147
-0.224859
-0.225479
-0.22603
-0.226546
-0.227053
-0.227562
-0.228071
-0.228568
-0.229032
-0.229438
-0.229749
-0.229923
-0.229917
-0.229652
-0.229005
-0.228462
-0.22297
-0.224332
-0.225163
-0.225811
-0.226373
-0.22687
-0.227338
-0.227801
-0.228269
-0.228742
-0.229207
-0.229646
-0.23003
-0.230325
-0.230485
-0.230468
-0.230203
-0.229358
-0.229211
-0.225142
-0.22437
-0.22559
-0.226331
-0.226905
-0.227396
-0.227829
-0.228234
-0.228639
-0.229054
-0.229479
-0.229902
-0.230303
-0.230657
-0.230929
-0.231067
-0.231028
-0.230807
-0.229583
-0.230223
-0.224233
-0.225921
-0.226989
-0.227632
-0.22812
-0.228529
-0.228882
-0.229211
-0.229543
-0.22989
-0.230252
-0.230618
-0.23097
-0.231281
-0.231518
-0.231624
-0.231531
-0.231449
-0.229606
-0.231416
-0.223183
-0.227594
-0.228507
-0.229045
-0.229437
-0.229751
-0.230009
-0.230245
-0.230487
-0.230748
-0.231029
-0.231322
-0.231608
-0.231861
-0.232051
-0.232114
-0.231906
-0.232045
-0.229664
-0.232121
-0.222319
-0.229367
-0.230125
-0.230552
-0.230838
-0.231042
-0.231189
-0.231314
-0.231447
-0.231602
-0.231783
-0.231984
-0.232186
-0.232364
-0.232487
-0.232496
-0.232237
-0.23236
-0.229596
-0.232822
-0.221117
-0.231218
-0.231827
-0.232139
-0.232309
-0.23239
-0.232408
-0.232401
-0.232402
-0.23243
-0.23249
-0.232577
-0.232675
-0.232758
-0.232795
-0.232729
-0.232366
-0.232561
-0.229174
-0.233483
-0.219626
-0.233137
-0.233604
-0.233797
-0.233841
-0.233782
-0.233652
-0.233492
-0.233339
-0.233215
-0.233131
-0.233083
-0.233056
-0.233023
-0.232953
-0.232796
-0.23227
-0.232603
-0.228409
-0.233914
-0.217997
-0.235118
-0.235452
-0.235524
-0.23543
-0.235215
-0.234916
-0.234581
-0.234249
-0.23395
-0.233698
-0.233493
-0.233319
-0.23315
-0.232951
-0.232687
-0.231955
-0.23241
-0.227389
-0.233851
-0.216482
-0.237167
-0.237378
-0.237322
-0.237079
-0.236691
-0.236202
-0.235667
-0.235133
-0.234635
-0.234192
-0.233807
-0.233467
-0.233142
-0.232792
-0.232399
-0.23144
-0.231897
-0.226254
-0.232969
-0.215296
-0.239298
-0.239393
-0.239205
-0.238798
-0.238217
-0.237517
-0.236759
-0.235999
-0.235278
-0.234623
-0.234038
-0.233513
-0.233014
-0.23249
-0.231934
-0.230753
-0.230981
-0.225121
-0.231016
-0.214393
-0.241539
-0.241521
-0.241189
-0.240602
-0.23981
-0.238877
-0.237873
-0.236864
-0.235901
-0.235013
-0.234211
-0.233482
-0.23279
-0.232068
-0.231297
-0.229903
-0.229613
-0.223986
-0.22799
-0.213399
-0.243924
-0.243789
-0.243301
-0.242518
-0.241494
-0.240304
-0.239034
-0.237756
-0.236531
-0.235394
-0.234358
-0.233408
-0.232499
-0.231548
-0.230495
-0.228862
-0.227799
-0.222664
-0.224152
-0.211829
-0.246498
-0.246232
-0.245576
-0.244574
-0.243296
-0.24183
-0.240272
-0.238708
-0.237205
-0.235804
-0.234519
-0.233327
-0.232169
-0.230942
-0.229527
-0.22757
-0.225576
-0.220876
-0.219782
-0.209406
-0.249313
-0.248896
-0.24805
-0.246807
-0.245252
-0.243489
-0.241626
-0.239761
-0.237966
-0.236288
-0.234734
-0.233272
-0.23182
-0.230248
-0.228376
-0.225952
-0.222974
-0.218401
-0.214931
-0.206197
-0.252427
-0.251828
-0.250764
-0.249256
-0.247401
-0.245322
-0.243138
-0.240957
-0.23886
-0.236889
-0.235043
-0.233271
-0.23146
-0.229448
-0.227009
-0.223953
-0.220013
-0.21516
-0.209582
-0.20249
-0.255899
-0.255078
-0.253766
-0.251965
-0.249787
-0.247372
-0.244853
-0.242345
-0.239931
-0.237647
-0.235475
-0.233335
-0.231077
-0.228508
-0.225379
-0.221545
-0.216696
-0.21122
-0.204205
-0.19818
-0.259789
-0.258696
-0.257101
-0.254978
-0.252453
-0.249685
-0.246817
-0.24397
-0.241221
-0.238595
-0.236046
-0.233457
-0.230642
-0.227387
-0.223446
-0.218733
-0.213007
-0.20671
-0.199217
-0.192469
-0.264157
-0.262734
-0.260816
-0.258341
-0.255445
-0.252306
-0.249075
-0.245873
-0.242766
-0.239753
-0.236755
-0.233613
-0.230114
-0.22604
-0.221186
-0.215539
-0.20895
-0.201932
-0.193929
-0.1866
-0.269055
-0.267239
-0.264957
-0.262099
-0.258808
-0.255279
-0.25167
-0.248091
-0.244589
-0.241126
-0.237582
-0.233763
-0.229441
-0.224429
-0.21859
-0.211994
-0.204603
-0.196916
-0.188508
-0.180817
-0.274532
-0.272255
-0.269566
-0.266294
-0.262584
-0.258648
-0.25464
-0.250653
-0.2467
-0.242701
-0.23849
-0.233851
-0.228573
-0.222523
-0.215665
-0.208145
-0.200014
-0.191749
-0.18299
-0.175003
-0.280631
-0.27782
-0.274683
-0.270967
-0.266815
-0.262451
-0.258017
-0.253575
-0.249094
-0.244444
-0.239424
-0.233816
-0.227459
-0.220307
-0.212428
-0.204032
-0.195234
-0.186461
-0.177389
-0.169187
-0.287382
-0.283967
-0.280342
-0.276155
-0.271539
-0.266721
-0.261822
-0.256859
-0.251744
-0.246301
-0.240312
-0.233591
-0.226058
-0.217773
-0.2089
-0.19969
-0.190291
-0.181066
-0.17172
-0.163314
-0.294807
-0.290722
-0.286573
-0.281889
-0.276786
-0.271483
-0.266062
-0.260483
-0.254599
-0.248198
-0.241074
-0.233111
-0.224337
-0.214919
-0.205099
-0.195139
-0.185196
-0.175563
-0.165967
-0.157371
-0.302917
-0.298098
-0.293395
-0.288193
-0.282576
-0.276743
-0.270722
-0.264402
-0.257584
-0.250043
-0.241624
-0.232315
-0.222269
-0.211747
-0.201035
-0.190386
-0.179947
-0.169937
-0.160114
-0.151332
-0.311703
-0.306096
-0.300814
-0.295077
-0.288914
-0.28249
-0.275761
-0.268544
-0.260601
-0.251732
-0.241875
-0.231151
-0.219834
-0.208253
-0.196708
-0.185425
-0.17453
-0.164169
-0.15414
-0.145177
-0.321142
-0.314702
-0.308824
-0.302532
-0.295783
-0.288684
-0.281107
-0.272804
-0.263529
-0.253152
-0.241745
-0.229574
-0.217013
-0.204428
-0.192108
-0.180239
-0.168921
-0.158235
-0.148019
-0.138884
-0.331184
-0.323879
-0.317395
-0.310528
-0.303137
-0.29525
-0.286653
-0.277051
-0.266233
-0.254191
-0.241158
-0.227541
-0.213783
-0.200256
-0.187216
-0.174806
-0.163095
-0.152109
-0.141728
-0.132432
-0.341754
-0.333567
-0.326473
-0.319006
-0.310897
-0.30208
-0.29226
-0.28113
-0.26857
-0.254739
-0.240047
-0.225013
-0.210117
-0.19571
-0.182003
-0.169094
-0.157021
-0.145764
-0.135242
-0.125799
-0.352746
-0.343676
-0.335973
-0.327872
-0.318945
-0.309026
-0.297756
-0.284869
-0.270395
-0.254695
-0.238346
-0.221949
-0.205984
-0.19076
-0.176438
-0.163072
-0.150669
-0.139173
-0.128537
-0.118967
-0.364022
-0.354086
-0.345776
-0.336993
-0.327125
-0.315902
-0.302943
-0.288086
-0.271565
-0.253961
-0.235994
-0.218304
-0.201344
-0.185369
-0.170484
-0.156705
-0.144008
-0.13231
-0.121589
-0.111915
-0.375408
-0.364641
-0.355726
-0.346199
-0.335239
-0.322491
-0.307608
-0.290598
-0.271947
-0.25245
-0.232929
-0.214031
-0.196155
-0.179494
-0.164102
-0.149958
-0.137007
-0.125149
-0.114376
-0.104626
-0.386696
-0.37515
-0.365631
-0.355277
-0.343053
-0.328552
-0.311527
-0.292227
-0.271415
-0.250076
-0.229092
-0.209079
-0.190371
-0.173095
-0.157255
-0.142797
-0.129639
-0.117666
-0.106875
-0.0970827
-0.397643
-0.385387
-0.375258
-0.363981
-0.350306
-0.333827
-0.314475
-0.292803
-0.269853
-0.246758
-0.224421
-0.203397
-0.183945
-0.166127
-0.149904
-0.135189
-0.121876
-0.109839
-0.0990664
-0.0892698
-0.407978
-0.395094
-0.384345
-0.372029
-0.356712
-0.33805
-0.316238
-0.292171
-0.267153
-0.242421
-0.218853
-0.196929
-0.176828
-0.15855
-0.142014
-0.127106
-0.113695
-0.101647
-0.0909343
-0.0811786
-0.417403
-0.403986
-0.392597
-0.37912
-0.361974
-0.340959
-0.316612
-0.290187
-0.263216
-0.23699
-0.21233
-0.189625
-0.168975
-0.150323
-0.133551
-0.118518
-0.105073
-0.0930726
-0.0824669
-0.0728088
-0.4256
-0.411752
-0.399701
-0.384936
-0.365792
-0.342305
-0.31541
-0.286723
-0.257953
-0.230397
-0.204794
-0.181435
-0.160343
-0.141411
-0.124486
-0.109403
-0.0959913
-0.0841001
-0.0736562
-0.0641656
-0.43224
-0.418072
-0.405328
-0.389154
-0.367878
-0.341856
-0.312468
-0.281665
-0.251283
-0.222579
-0.196191
-0.172312
-0.150893
-0.131781
-0.114793
-0.0997399
-0.0864324
-0.0747136
-0.0644911
-0.0552436
-0.436993
-0.422616
-0.409149
-0.391459
-0.367958
-0.339404
-0.307642
-0.274917
-0.243134
-0.213478
-0.186473
-0.162216
-0.140593
-0.121409
-0.104452
-0.0895135
-0.0763832
-0.0649007
-0.0549564
-0.0460089
-0.439533
-0.425059
-0.410842
-0.391554
-0.365787
-0.334771
-0.300811
-0.266396
-0.233448
-0.203047
-0.1756
-0.151114
-0.129416
-0.110273
-0.0934488
-0.0787119
-0.0658345
-0.0546585
-0.0450497
-0.0363864
-0.439551
-0.425091
-0.410103
-0.389167
-0.361151
-0.327808
-0.29188
-0.25604
-0.222175
-0.191246
-0.163541
-0.138982
-0.117342
-0.0983578
-0.0817699
-0.0673258
-0.0547823
-0.043992
-0.0347992
-0.0263197
-0.436761
-0.422422
-0.406655
-0.38406
-0.353873
-0.318399
-0.280777
-0.2438
-0.209282
-0.178049
-0.150274
-0.125802
-0.104358
-0.0856546
-0.0694098
-0.0553508
-0.0432366
-0.0329104
-0.02421
-0.0159221
-0.43091
-0.416796
-0.400259
-0.376037
-0.343817
-0.306463
-0.267456
-0.22965
-0.194749
-0.16344
-0.135785
-0.111563
-0.0904581
-0.0721619
-0.0563786
-0.0427962
-0.0312239
-0.0214505
-0.0131644
-0.00536005
-0.421785
-0.407995
-0.390719
-0.364945
-0.330887
-0.291951
-0.251895
-0.213579
-0.17857
-0.147412
-0.120069
-0.0962622
-0.0756576
-0.0578969
-0.0427055
-0.0297104
-0.0187293
-0.00957839
-0.00175501
0.00542728
-0.40922
-0.395847
-0.377884
-0.350682
-0.315032
-0.274848
-0.234099
-0.195596
-0.160752
-0.12997
-0.103142
-0.0799197
-0.0599974
-0.0429012
-0.0283781
-0.0160782
-0.00578354
0.00269313
0.00996927
0.0164639
-0.393098
-0.38023
-0.361658
-0.333193
-0.29624
-0.255172
-0.214095
-0.175726
-0.141313
-0.111149
-0.0850586
-0.0626102
-0.0434545
-0.027169
-0.0134345
-0.0019243
0.00759335
0.015335
0.0219837
0.027742
-0.373355
-0.361076
-0.341999
-0.312474
-0.274544
-0.232973
-0.191936
-0.154016
-0.120305
-0.0910358
-0.0658329
-0.0443203
-0.0260891
-0.0107354
0.0020932
0.0127183
0.0213744
0.0283152
0.0342671
0.0392368
-0.349983
-0.338371
-0.318917
-0.288569
-0.250017
-0.208335
-0.167698
-0.130544
-0.0978386
-0.0696204
-0.0455172
-0.0251024
-0.00794636
0.00635414
0.0181661
0.0278116
0.0355258
0.0415998
0.0467903
0.0509149
-0.32303
-0.312157
-0.292479
-0.261577
-0.222778
-0.181359
-0.141476
-0.105411
-0.0739427
-0.0469993
-0.0241779
-0.00501943
0.0109196
0.0240478
0.0347384
0.043313
0.0500083
0.0551516
0.0595173
0.0627361
-0.2926
-0.282529
-0.262808
-0.231654
-0.192961
-0.152149
-0.113399
-0.0787131
-0.04872
-0.0232597
-0.00189437
0.0158563
0.0304456
0.0422873
0.0517572
0.059174
0.0647782
0.0689313
0.0724103
0.0746587
-0.258847
-0.249636
-0.230082
-0.198973
-0.160657
-0.120898
-0.0836122
-0.0505769
-0.0222856
0.00149806
0.021243
0.0374433
0.0505589
0.0610072
0.0691631
0.0753405
0.0797873
0.0828999
0.0854357
0.0866484
-0.221959
-0.213688
-0.194516
-0.163621
-0.126099
-0.0878249
-0.0522841
-0.0211487
0.00523162
0.0271607
0.0451328
0.059651
0.071179
0.0801353
0.0868905
0.0917522
0.0949845
0.0970186
0.0985573
0.0986619
-0.182121
-0.174976
-0.156257
-0.125787
-0.0896623
-0.0531171
-0.0195978
0.00940973
0.0336896
0.0536029
0.0696634
0.08238
0.0922177
0.099593
0.104868
0.108346
0.11032
0.111245
0.1117
0.110557
-0.139566
-0.133818
-0.115393
-0.0860716
-0.0515228
-0.0169989
0.0142474
0.0409238
0.0629343
0.0806881
0.0947139
0.105523
0.11358
0.119296
0.123022
0.125063
0.125752
0.125527
0.124701
0.121993
-0.0946277
-0.0903895
-0.0726421
-0.0446284
-0.0119434
0.020288
0.0490394
0.0732066
0.0928005
0.10827
0.120155
0.128966
0.135165
0.139154
0.141275
0.141845
0.141241
0.139787
0.137351
0.132698
-0.0480181
-0.0449128
-0.0282353
-0.00175777
0.0287904
0.0584889
0.0845541
0.106061
0.123114
0.136195
0.145849
0.152587
0.156864
0.159073
0.159547
0.15863
0.156718
0.153914
0.149609
0.143311
0.000150454
0.00207596
0.0175007
0.0422054
0.0703761
0.0973374
0.120557
0.139279
0.153691
0.1643
0.171654
0.176261
0.178567
0.178955
0.177757
0.175338
0.172067
0.167771
0.161592
0.155844
0.0494903
0.0501571
0.064193
0.0869121
0.1125
0.136557
0.156805
0.172647
0.184343
0.192418
0.197423
0.199856
0.200158
0.198701
0.195816
0.191876
0.187176
0.181359
0.173841
0.168327
0.0995676
0.0989259
0.11145
0.132003
0.154841
0.175865
0.19305
0.205947
0.214875
0.220378
0.223002
0.22324
0.22152
0.218208
0.213634
0.208161
0.202006
0.194758
0.186184
0.180301
0.149947
0.147967
0.158871
0.177113
0.197074
0.214975
0.229039
0.238954
0.245092
0.248006
0.248239
0.246276
0.242534
0.237371
0.231115
0.224106
0.216503
0.20792
0.198403
0.191843
0.200192
0.196859
0.206056
0.221875
0.238872
0.2536
0.26452
0.271447
0.274796
0.275128
0.27298
0.268828
0.26308
0.256085
0.248163
0.239632
0.230611
0.220766
0.210324
0.20292
0.249862
0.245176
0.252602
0.265927
0.279913
0.291454
0.29924
0.3032
0.303788
0.301567
0.297069
0.29076
0.283039
0.274243
0.264686
0.25466
0.244263
0.233214
0.221855
0.213526
0.298526
0.292499
0.298117
0.308908
0.319879
0.328255
0.332951
0.333996
0.331874
0.327153
0.320356
0.31194
0.302291
0.291741
0.28059
0.269111
0.257386
0.245185
0.232921
0.223623
0.345756
0.338416
0.342213
0.350471
0.358457
0.363731
0.36541
0.363617
0.358864
0.351717
0.342691
0.332234
0.320722
0.308477
0.295787
0.282908
0.26991
0.25661
0.243461
0.233176
0.39114
0.382525
0.384516
0.390278
0.39535
0.397614
0.396382
0.391858
0.384574
0.375095
0.363931
0.351516
0.338219
0.324352
0.31019
0.295972
0.281764
0.267422
0.253419
0.242145
0.434281
0.424444
0.424671
0.428006
0.430269
0.429651
0.425642
0.418516
0.408825
0.397132
0.383935
0.369664
0.354675
0.33927
0.323715
0.308232
0.292883
0.277563
0.262743
0.250495
0.474802
0.463807
0.462336
0.46335
0.462944
0.459602
0.452976
0.443404
0.431451
0.417677
0.402575
0.386561
0.369987
0.353143
0.336284
0.319616
0.303204
0.286977
0.271385
0.25819
0.512348
0.500272
0.497197
0.496024
0.49312
0.487241
0.478184
0.466342
0.452294
0.436593
0.419725
0.402101
0.384059
0.365885
0.347821
0.330061
0.31267
0.295611
0.279299
0.2652
0.546592
0.533524
0.528958
0.525764
0.520564
0.512361
0.501082
0.487169
0.471207
0.45375
0.435273
0.41618
0.396804
0.377418
0.358258
0.339504
0.321227
0.303417
0.286445
0.271494
0.577237
0.563276
0.557356
0.552331
0.545062
0.534771
0.521501
0.505732
0.488059
0.46903
0.449114
0.428709
0.408139
0.387673
0.367533
0.347892
0.328827
0.31035
0.292784
0.277049
0.604015
0.589269
0.582151
0.575512
0.566424
0.554303
0.539291
0.5219
0.502731
0.482328
0.461156
0.439605
0.417994
0.396584
0.37559
0.355176
0.335424
0.316371
0.298283
0.281843
0.626695
0.611281
0.603137
0.59512
0.584484
0.570811
0.554321
0.535556
0.51512
0.493554
0.471318
0.448797
0.426305
0.404097
0.38238
0.361313
0.340983
0.321445
0.302912
0.28586
0.645078
0.629121
0.620139
0.610998
0.599103
0.584168
0.56648
0.546601
0.525137
0.502629
0.479531
0.456224
0.433018
0.410164
0.387862
0.366266
0.345469
0.325542
0.306647
0.289086
0.659007
0.642637
0.633016
0.623019
0.610167
0.594276
0.575678
0.554955
0.532713
0.50949
0.48574
0.461838
0.438092
0.414748
0.392004
0.370007
0.348858
0.328636
0.309466
0.291513
0.66836
0.651712
0.64166
0.631087
0.617591
0.601056
0.581849
0.560558
0.537794
0.514091
0.489903
0.465601
0.441492
0.41782
0.394779
0.372513
0.351128
0.33071
0.311354
0.293134
0.467489
0.443198
0.419361
0.39617
0.37377
0.352266
0.33175
0.312301
0.293945
-0.229043
-0.228817
-0.228101
-0.226795
-0.228126
-0.224934
-0.226741
-0.225438
-0.22258
-0.224551
-0.223668
-0.219744
-0.221553
-0.22113
-0.220519
-0.216339
-0.217819
-0.217859
-0.217615
-0.212375
-0.213535
-0.213955
-0.214017
-0.214034
-0.208193
-0.209066
-0.209608
-0.209828
-0.210076
-0.210308
-0.204237
-0.20482
-0.20499
-0.205026
-0.205295
-0.205621
-0.198518
-0.200652
-0.201082
-0.201342
-0.20179
-0.202249
-0.202597
-0.193726
-0.196361
-0.196883
-0.197166
-0.19771
-0.198298
-0.198765
-0.188989
-0.191927
-0.19242
-0.192678
-0.1933
-0.194008
-0.194588
-0.184241
-0.187348
-0.187841
-0.188114
-0.188815
-0.189634
-0.19032
-0.179347
-0.182629
-0.183193
-0.183509
-0.184284
-0.1852
-0.185985
-0.174341
-0.177816
-0.178493
-0.17887
-0.179712
-0.180716
-0.181592
-0.169313
-0.172947
-0.173757
-0.174209
-0.175116
-0.176199
-0.177163
-0.164296
-0.16805
-0.169
-0.169539
-0.170511
-0.171669
-0.172716
-0.159307
-0.163151
-0.164239
-0.164872
-0.16591
-0.167139
-0.168264
-0.154365
-0.158273
-0.159492
-0.16022
-0.161324
-0.162619
-0.163819
-0.149481
-0.15343
-0.154769
-0.155592
-0.156759
-0.158117
-0.159387
-0.144661
-0.148634
-0.150082
-0.150995
-0.152225
-0.153642
-0.154976
-0.13991
-0.143893
-0.145441
-0.146439
-0.147728
-0.149199
-0.150594
-0.135235
-0.139216
-0.140853
-0.141932
-0.143275
-0.144796
-0.146247
-0.130642
-0.134608
-0.136326
-0.13748
-0.138874
-0.14044
-0.141942
-0.126139
-0.130078
-0.131867
-0.133091
-0.134531
-0.136136
-0.137683
-0.121731
-0.125632
-0.127483
-0.128771
-0.130251
-0.131891
-0.133478
-0.117424
-0.121276
-0.12318
-0.124525
-0.126041
-0.127709
-0.129331
-0.113222
-0.117016
-0.118962
-0.120358
-0.121904
-0.123596
-0.125247
-0.109126
-0.112855
-0.114834
-0.116273
-0.117845
-0.119556
-0.12123
-0.105139
-0.108796
-0.1108
-0.112275
-0.113867
-0.115591
-0.117283
-0.101262
-0.104842
-0.106861
-0.108366
-0.109973
-0.111705
-0.113411
-0.0974938
-0.100993
-0.10302
-0.104549
-0.106165
-0.107902
-0.109616
-0.0938365
-0.0972514
-0.0992793
-0.100825
-0.102447
-0.104183
-0.1059
-0.0902895
-0.0936165
-0.095639
-0.0971966
-0.0988194
-0.100551
-0.102267
-0.0868527
-0.0900892
-0.0921005
-0.0936647
-0.0952844
-0.0970071
-0.0987181
-0.0835258
-0.0866696
-0.0886644
-0.0902303
-0.0918433
-0.0935537
-0.0952557
-0.0803079
-0.0833574
-0.085331
-0.0868943
-0.0884969
-0.0901917
-0.0918809
-0.0771982
-0.0801523
-0.0821003
-0.0836568
-0.0852458
-0.086922
-0.0885952
-0.0741953
-0.0770534
-0.078972
-0.080518
-0.0820905
-0.0837453
-0.0853994
-0.0712977
-0.0740596
-0.0759456
-0.0774777
-0.0790309
-0.0806618
-0.0822942
-0.0685038
-0.0711698
-0.0730201
-0.0745352
-0.076067
-0.0776717
-0.0792798
-0.0658118
-0.0683824
-0.0701947
-0.0716901
-0.0731981
-0.0747749
-0.0763565
-0.0632197
-0.0656959
-0.067468
-0.0689413
-0.0704238
-0.0719708
-0.0735242
-0.0607255
-0.0631085
-0.0648388
-0.0662878
-0.0677431
-0.069259
-0.0707824
-0.058327
-0.0606182
-0.0623054
-0.0637283
-0.0651552
-0.0666387
-0.0681307
-0.056022
-0.0582233
-0.0598662
-0.0612616
-0.0626587
-0.064109
-0.0655685
-0.0538084
-0.0559216
-0.0575195
-0.058886
-0.0602526
-0.0616688
-0.0630949
-0.0516839
-0.0537111
-0.0552635
-0.0566002
-0.0579354
-0.059317
-0.060709
-0.0496463
-0.0515896
-0.0530964
-0.0544023
-0.0557058
-0.0570524
-0.0584097
-0.0476934
-0.0495552
-0.0510163
-0.0522909
-0.0535622
-0.0548736
-0.056196
-0.0458229
-0.0476056
-0.0490213
-0.0502641
-0.051503
-0.0527793
-0.0540665
-0.0440328
-0.0457389
-0.0471094
-0.0483204
-0.0495268
-0.0507679
-0.0520201
-0.0423208
-0.0439529
-0.0452789
-0.0464578
-0.047632
-0.0488382
-0.0500554
-0.0406851
-0.0422456
-0.0435278
-0.0446748
-0.0458169
-0.0469886
-0.0481711
-0.0391235
-0.0406152
-0.0418543
-0.0429696
-0.04408
-0.0452176
-0.0463659
-0.0376342
-0.0390597
-0.0402567
-0.0413407
-0.0424197
-0.0435239
-0.0446384
-0.0362153
-0.0375773
-0.0387332
-0.0397863
-0.0408346
-0.041906
-0.0429874
-0.0348651
-0.0361662
-0.0372822
-0.0383049
-0.0393232
-0.0403626
-0.0414116
-0.0335819
-0.0348248
-0.035902
-0.0368952
-0.037884
-0.0388923
-0.0399097
-0.0323642
-0.0335515
-0.0345913
-0.0355555
-0.0365158
-0.0374938
-0.0384805
-0.0312105
-0.0323449
-0.0333485
-0.0342847
-0.0352174
-0.0361661
-0.037123
-0.0301195
-0.0312035
-0.0321725
-0.0330815
-0.0339874
-0.0349079
-0.0358361
-0.0290898
-0.0301262
-0.0310619
-0.0319448
-0.0328249
-0.0337183
-0.0346189
-0.0281205
-0.0291119
-0.0300157
-0.0308735
-0.031729
-0.0325963
-0.0334705
-0.0272105
-0.0281594
-0.0290331
-0.0298668
-0.0306987
-0.0315412
-0.0323901
-0.0263591
-0.027268
-0.0281131
-0.0289239
-0.0297334
-0.0305524
-0.0313773
-0.0255654
-0.0264371
-0.0272551
-0.0280443
-0.0288326
-0.0296294
-0.0304316
-0.024829
-0.025666
-0.0264588
-0.0272276
-0.0279959
-0.0287718
-0.0295526
-0.0241496
-0.0249544
-0.0257236
-0.0264734
-0.0272231
-0.0279795
-0.0287404
-0.023527
-0.0243023
-0.0250497
-0.0257817
-0.0265142
-0.0272525
-0.027995
-0.0229612
-0.0237096
-0.024437
-0.0251528
-0.0258694
-0.0265912
-0.0273167
-0.0224526
-0.0231768
-0.0238861
-0.0245871
-0.0252893
-0.0259961
-0.0267063
-0.0220017
-0.0227043
-0.0233974
-0.0240853
-0.0247747
-0.025468
-0.0261645
-0.0216093
-0.0222931
-0.0229721
-0.0236484
-0.0243265
-0.0250082
-0.0256926
-0.0212766
-0.0219445
-0.0226115
-0.0232779
-0.0239465
-0.0246181
-0.0252923
-0.0210051
-0.02166
-0.0223171
-0.0229755
-0.0236362
-0.0242998
-0.0249656
-0.0207966
-0.0214414
-0.022091
-0.0227432
-0.023398
-0.0240553
-0.0247147
-0.0206552
-0.0212933
-0.0219377
-0.0225857
-0.0232363
-0.0238892
-0.0245443
-0.0205768
-0.0212124
-0.0218551
-0.0225016
-0.0231507
-0.0238019
-0.024455
-0.0671549
-0.0752964
-0.0832112
-0.0909003
-0.0983709
-0.105634
-0.112701
-0.119587
-0.126305
-0.132871
-0.1393
-0.145606
-0.151804
-0.1579
-0.163903
-0.169815
-0.175603
-0.18142
-0.186809
-0.19365
-0.0641995
-0.0720865
-0.0797672
-0.087247
-0.0945339
-0.101637
-0.108568
-0.115337
-0.121955
-0.128436
-0.134791
-0.141031
-0.147165
-0.153203
-0.159138
-0.165019
-0.170715
-0.176716
-0.181956
-0.189318
-0.0613773
-0.0689639
-0.0763611
-0.0835766
-0.0906185
-0.097495
-0.104215
-0.110788
-0.117223
-0.123532
-0.129722
-0.135806
-0.141787
-0.147692
-0.153492
-0.159322
-0.164927
-0.17106
-0.176289
-0.18358
-0.05867
-0.0659835
-0.0731272
-0.0801085
-0.0869347
-0.0936132
-0.100152
-0.10656
-0.112845
-0.119018
-0.125086
-0.131064
-0.136951
-0.142794
-0.148535
-0.154381
-0.159953
-0.166121
-0.171405
-0.178327
-0.056095
-0.0631536
-0.0700622
-0.0768271
-0.0834551
-0.0899536
-0.09633
-0.102593
-0.108751
-0.114814
-0.120787
-0.126693
-0.132519
-0.138332
-0.144031
-0.149873
-0.155393
-0.161468
-0.166769
-0.173237
-0.0536511
-0.0604628
-0.0671417
-0.0736934
-0.0801243
-0.0864418
-0.0926532
-0.0987672
-0.10479
-0.110735
-0.116603
-0.122419
-0.12816
-0.133906
-0.139521
-0.145286
-0.150725
-0.156631
-0.161956
-0.168078
-0.0513279
-0.0578988
-0.0643518
-0.0706919
-0.076925
-0.0830585
-0.0890989
-0.0950549
-0.100931
-0.106742
-0.112482
-0.118184
-0.123809
-0.129449
-0.134955
-0.140606
-0.145979
-0.15172
-0.157097
-0.162979
-0.0491169
-0.0554536
-0.0616858
-0.0678178
-0.073855
-0.0798044
-0.0856718
-0.0914656
-0.0971891
-0.102856
-0.10846
-0.114033
-0.119533
-0.125057
-0.130459
-0.135994
-0.141322
-0.14691
-0.152306
-0.157985
-0.0470117
-0.0531215
-0.0591384
-0.0650666
-0.0709109
-0.0766779
-0.0823726
-0.0880034
-0.0935721
-0.0990932
-0.104557
-0.11
-0.115377
-0.120782
-0.126088
-0.131501
-0.136772
-0.142201
-0.147559
-0.153063
-0.0450069
-0.0508968
-0.0567041
-0.0624329
-0.0680875
-0.0736741
-0.0791973
-0.0846651
-0.0900785
-0.0954523
-0.100776
-0.106085
-0.111339
-0.116617
-0.121821
-0.127096
-0.132287
-0.137559
-0.142846
-0.148206
-0.0430972
-0.048774
-0.0543773
-0.0599111
-0.0653793
-0.070788
-0.0761408
-0.0814461
-0.0867039
-0.0919287
-0.097111
-0.102281
-0.107407
-0.112549
-0.117639
-0.122771
-0.127866
-0.132994
-0.138194
-0.143424
-0.0412777
-0.046748
-0.0521529
-0.0574963
-0.0627817
-0.0680148
-0.0731991
-0.0783423
-0.0834445
-0.0885188
-0.0935572
-0.098585
-0.103578
-0.10858
-0.11355
-0.118543
-0.123531
-0.128525
-0.133619
-0.138717
-0.0395435
-0.0448138
-0.0500259
-0.0551835
-0.0602899
-0.0653504
-0.0703682
-0.0753504
-0.0802974
-0.0852204
-0.0901139
-0.0949973
-0.0998554
-0.104717
-0.109564
-0.114419
-0.119291
-0.124149
-0.129124
-0.134087
-0.0378901
-0.0429667
-0.0479918
-0.0529684
-0.0578997
-0.0627907
-0.0676444
-0.0724672
-0.0772599
-0.082032
-0.0867803
-0.0915192
-0.0962412
-0.100963
-0.105682
-0.110398
-0.115145
-0.119867
-0.124717
-0.129543
-0.036313
-0.0412025
-0.0460461
-0.0508466
-0.055607
-0.0603318
-0.0650241
-0.0696895
-0.0743295
-0.0789515
-0.083555
-0.0881497
-0.092734
-0.0973156
-0.101901
-0.10648
-0.111097
-0.115684
-0.120404
-0.125091
-0.0348082
-0.0395169
-0.0441848
-0.048814
-0.0534076
-0.0579699
-0.0625039
-0.0670144
-0.0715034
-0.0759768
-0.0804359
-0.0848868
-0.0893324
-0.0937738
-0.0982248
-0.102667
-0.107151
-0.111603
-0.116191
-0.120738
-0.0333726
-0.0379066
-0.0424039
-0.0468667
-0.0512979
-0.0557014
-0.0600803
-0.0644385
-0.0687787
-0.0731052
-0.0774209
-0.0817292
-0.0860357
-0.0903379
-0.0946532
-0.0989589
-0.103309
-0.107625
-0.112079
-0.116487
-0.032002
-0.0363675
-0.0406997
-0.0450009
-0.0492741
-0.0535229
-0.0577499
-0.0619588
-0.0661525
-0.0703344
-0.0745081
-0.0786753
-0.0828434
-0.0870074
-0.0911868
-0.0953563
-0.0995714
-0.103753
-0.10807
-0.112342
-0.030693
-0.0348964
-0.0390685
-0.043213
-0.0473328
-0.0514308
-0.0555096
-0.0595723
-0.0636222
-0.0676618
-0.0716953
-0.0757234
-0.0797541
-0.0837813
-0.0878249
-0.0918591
-0.095939
-0.0999864
-0.104166
-0.108303
-0.0294441
-0.0334904
-0.0375075
-0.0415002
-0.0454708
-0.0494219
-0.053356
-0.057276
-0.0611849
-0.065085
-0.0689805
-0.0728715
-0.0767663
-0.0806581
-0.0845669
-0.0884671
-0.0924121
-0.0963265
-0.100368
-0.10437
-0.0282533
-0.0321471
-0.0360142
-0.0398594
-0.0436851
-0.0474932
-0.0512863
-0.0550669
-0.058838
-0.0626013
-0.0663613
-0.0701176
-0.0738782
-0.0776366
-0.081412
-0.0851795
-0.0889905
-0.0927729
-0.0966774
-0.100546
-0.0271158
-0.0308625
-0.034585
-0.0382875
-0.0419724
-0.0456416
-0.0492975
-0.0529421
-0.0565785
-0.0602082
-0.0638353
-0.0674594
-0.0710882
-0.0747153
-0.0783589
-0.0819956
-0.0856736
-0.0893254
-0.0930936
-0.0968285
-0.0260297
-0.0296344
-0.033217
-0.0367814
-0.0403299
-0.0438642
-0.0473866
-0.0508989
-0.054404
-0.0579031
-0.0614002
-0.0648948
-0.0683943
-0.0718924
-0.0754063
-0.078914
-0.082461
-0.0859835
-0.089617
-0.0932193
-0.0249929
-0.0284603
-0.0319077
-0.0353384
-0.0387547
-0.0421582
-0.0455509
-0.0489345
-0.0523116
-0.0556834
-0.0590536
-0.0624216
-0.0657944
-0.069166
-0.0725526
-0.0759336
-0.0793516
-0.0827467
-0.0862473
-0.0897182
-0.0240028
-0.0273377
-0.0306544
-0.0339559
-0.0372442
-0.0405208
-0.0437876
-0.0470462
-0.0502988
-0.0535466
-0.056793
-0.0600375
-0.0632864
-0.0665343
-0.0697963
-0.0730529
-0.0763443
-0.079614
-0.0829842
-0.0863253
-0.0230571
-0.0262641
-0.0294546
-0.0326312
-0.0357957
-0.0389495
-0.0420942
-0.0452313
-0.048363
-0.0514902
-0.054616
-0.0577401
-0.0608682
-0.0639953
-0.0671353
-0.0702703
-0.0734378
-0.0765845
-0.0798267
-0.0830401
-0.0221536
-0.0252374
-0.0283061
-0.031362
-0.0344067
-0.0374416
-0.0404681
-0.0434874
-0.0465017
-0.0495117
-0.0525203
-0.0555271
-0.0585375
-0.0615469
-0.064568
-0.0675841
-0.0706306
-0.0736569
-0.0767738
-0.0798621
-0.0212904
-0.0242554
-0.0272066
-0.030146
-0.033075
-0.0359948
-0.0389068
-0.0418121
-0.0447124
-0.0476087
-0.0505035
-0.0533964
-0.0562923
-0.0591869
-0.0620922
-0.0649925
-0.0679209
-0.0708296
-0.0738242
-0.0767903
-0.0204656
-0.0233162
-0.0261541
-0.0289809
-0.0317982
-0.0346068
-0.037408
-0.0402028
-0.0429928
-0.0457788
-0.0485632
-0.0513454
-0.0541301
-0.0569133
-0.059706
-0.0624934
-0.0653069
-0.0681012
-0.0709765
-0.0738234
-0.0196775
-0.0224179
-0.0251465
-0.0278648
-0.0305741
-0.0332753
-0.0359694
-0.0386574
-0.0413406
-0.0440198
-0.0466971
-0.049372
-0.0520489
-0.0547238
-0.0574071
-0.060085
-0.0627868
-0.0654697
-0.0682289
-0.07096
-0.0189245
-0.0215588
-0.024182
-0.0267956
-0.0294008
-0.0319982
-0.0345889
-0.0371735
-0.0397535
-0.0423293
-0.0449029
-0.047474
-0.0500463
-0.0526163
-0.0551936
-0.0577651
-0.0603585
-0.0629334
-0.0655798
-0.0681984
-0.0182051
-0.0207371
-0.0232588
-0.0257715
-0.0282762
-0.0307736
-0.0332643
-0.0357491
-0.0382293
-0.0407051
-0.0431785
-0.045649
-0.0481201
-0.0505885
-0.0530631
-0.0555316
-0.0580199
-0.0604901
-0.0630271
-0.0655367
-0.0175178
-0.0199513
-0.0223752
-0.0247907
-0.0271986
-0.0295993
-0.0319936
-0.0343821
-0.0367658
-0.0391452
-0.0415217
-0.0438949
-0.0462682
-0.0486383
-0.0510135
-0.0533824
-0.055769
-0.0581378
-0.0605689
-0.062973
-0.0168612
-0.0191998
-0.0215295
-0.0238514
-0.026166
-0.0284737
-0.030775
-0.0330706
-0.0353612
-0.0376473
-0.0399303
-0.0422097
-0.0444884
-0.0467636
-0.0490427
-0.0513153
-0.0536036
-0.0558745
-0.0582031
-0.0605053
-0.016234
-0.0184811
-0.0207202
-0.022952
-0.0251768
-0.0273948
-0.0296065
-0.0318124
-0.0340134
-0.0362096
-0.0384023
-0.0405911
-0.0427786
-0.0449621
-0.0471486
-0.0493282
-0.0515216
-0.0536979
-0.0559275
-0.0581314
-0.0156356
-0.0177945
-0.0199463
-0.0220913
-0.0242295
-0.026361
-0.0284864
-0.030606
-0.0327205
-0.03483
-0.0369357
-0.0390371
-0.0411366
-0.0432318
-0.0453289
-0.0474188
-0.0495208
-0.0516059
-0.0537401
-0.0558492
-0.0150619
-0.0171374
-0.0192058
-0.0212675
-0.0233224
-0.0253708
-0.0274131
-0.0294496
-0.0314807
-0.0335068
-0.0355286
-0.0375459
-0.0395607
-0.0415707
-0.0435816
-0.0455852
-0.047599
-0.0495963
-0.0516386
-0.0536565
-0.0145104
-0.016508
-0.0184972
-0.0204788
-0.0224537
-0.0244222
-0.0263847
-0.0283412
-0.0302923
-0.032238
-0.0341792
-0.0361154
-0.0380486
-0.0399767
-0.0419047
-0.0438252
-0.0457542
-0.047667
-0.0496208
-0.051551
-0.0139872
-0.0159081
-0.0178203
-0.0197249
-0.0216227
-0.0235144
-0.0254
-0.0272796
-0.0291536
-0.031022
-0.0328855
-0.0347439
-0.0365986
-0.0384478
-0.0402962
-0.0421367
-0.0439842
-0.0458157
-0.0476846
-0.0495306
-0.0134915
-0.0153369
-0.0171745
-0.0190047
-0.0208284
-0.0226461
-0.0244577
-0.0262633
-0.0280631
-0.0298571
-0.0316461
-0.0334295
-0.0352088
-0.0369823
-0.0387541
-0.0405178
-0.0422869
-0.0440406
-0.0458279