/*--------------------------------*- C++ -*----------------------------------*\
  =========                 |
  \\      /  F ield         | OpenFOAM: The Open Source CFD Toolbox
   \\    /   O peration     | Website:  https://openfoam.org
    \\  /    A nd           | Version:  7
     \\/     M anipulation  |
\*---------------------------------------------------------------------------*/
FoamFile
{
    version     2.0;
    format      ascii;
    class       volVectorField;
    location    "96.999518";
    object      U;
}
// * * * * * * * * * * * * * * * * * * * * * * * * * * * * * * * * * * * * * //

dimensions      [0 1 -1 0 0 0 0];

internalField   nonuniform List<vector> 
5800
(
(-0.000699653 0.00529105 -2.31525e-21)
(-0.00387322 0.0125678 -8.1532e-21)
(-0.0102429 0.0172906 1.485e-21)
(-0.0186549 0.0198501 5.6148e-21)
(-0.0285886 0.0206568 2.39226e-21)
(-0.0396339 0.0201217 -5.8317e-21)
(-0.0513923 0.0186158 -1.85907e-21)
(-0.0635271 0.0164313 -7.32701e-22)
(-0.0757669 0.0137552 -6.70669e-21)
(-0.0878975 0.0106593 -1.2919e-21)
(0.00714306 0.00938781 -6.29268e-21)
(0.0377679 0.0209111 -2.14029e-20)
(0.0940364 0.0266961 3.9169e-21)
(0.159311 0.0284808 1.42144e-20)
(0.226259 0.0278784 5.83083e-21)
(0.291362 0.0261378 -1.39264e-20)
(0.352885 0.0240344 -4.22476e-21)
(0.410353 0.0219344 -1.6972e-21)
(0.463817 0.019961 -8.51518e-21)
(0.51346 0.0181369 -7.56079e-21)
(0.559486 0.0164576 -9.46271e-21)
(0.00711407 -0.00802002 6.29763e-21)
(0.0377019 -0.0179965 2.14163e-20)
(0.0939453 -0.0230786 -3.91993e-21)
(0.159205 -0.0247131 -1.42226e-20)
(0.226147 -0.0242554 -5.8343e-21)
(0.291246 -0.0227826 1.39343e-20)
(0.352769 -0.0209842 4.22902e-21)
(0.410237 -0.0191961 1.69947e-21)
(0.463702 -0.017534 1.42388e-20)
(0.513347 -0.0160181 2.49978e-21)
(0.559376 -0.0146411 9.47224e-21)
(0.601995 -0.0133917 -1.36457e-21)
(0.641408 -0.0122581 4.44627e-21)
(0.677813 -0.0112293 -7.48101e-21)
(0.711401 -0.0102943 8.96669e-21)
(0.742359 -0.00944348 9.13062e-21)
(0.77087 -0.00866736 2.54763e-21)
(0.797084 -0.00795333 -1.29022e-20)
(0.821124 -0.00728517 1.03618e-20)
(0.843141 -0.00666669 -1.4898e-21)
(0.00842513 -0.0253416 -9.25829e-21)
(0.0405588 -0.0567348 -1.39014e-20)
(0.0975052 -0.0726617 -4.25492e-21)
(0.162932 -0.077724 -1.23017e-20)
(0.229737 -0.0762259 2.71084e-21)
(0.294561 -0.0715603 -1.77627e-20)
(0.355768 -0.0658779 -6.45936e-21)
(0.412929 -0.0602168 -1.38179e-20)
(0.466113 -0.0549322 7.57861e-21)
(0.515502 -0.0500878 -1.78462e-20)
(0.5613 -0.045665 -5.41721e-20)
(0.603712 -0.0416321 8.58202e-21)
(0.642939 -0.0379574 -1.18756e-20)
(0.679178 -0.0346099 7.00548e-21)
(0.712617 -0.0315597 -1.66086e-20)
(0.743442 -0.0287803 1.71289e-21)
(0.771835 -0.0262458 -8.48434e-21)
(0.797953 -0.0239195 4.80257e-20)
(0.821904 -0.0217527 -4.66036e-21)
(0.843793 -0.0197624 5.87884e-21)
(0.011058 -0.0424117 -2.83561e-20)
(0.0463045 -0.0949785 -2.77003e-20)
(0.104679 -0.121683 6.34128e-21)
(0.170458 -0.130196 1.34511e-20)
(0.237001 -0.127714 5.5973e-21)
(0.301279 -0.119914 -1.72728e-20)
(0.36186 -0.110398 -2.47064e-20)
(0.418411 -0.100907 5.19933e-20)
(0.471031 -0.0920378 -1.41002e-20)
(0.519908 -0.0838985 1.8241e-20)
(0.565245 -0.0764599 2.84195e-20)
(0.607241 -0.0696707 4.84169e-21)
(0.646094 -0.063479 7.94883e-21)
(0.681997 -0.0578344 1.71245e-20)
(0.715135 -0.0526885 -1.75812e-20)
(0.745689 -0.0479977 1.66193e-20)
(0.773843 -0.04372 -1.95397e-21)
(0.799764 -0.0397944 -4.69461e-20)
(0.823536 -0.036142 3.11556e-20)
(0.845163 -0.0327986 -2.52771e-20)
(0.0149768 -0.0590678 2.17879e-20)
(0.0548723 -0.132407 -3.47787e-20)
(0.115395 -0.169776 5.11435e-20)
(0.181716 -0.181777 -2.30619e-20)
(0.24788 -0.178402 1.20963e-19)
(0.311351 -0.167564 7.09401e-20)
(0.371002 -0.1543 -4.33441e-20)
(0.426644 -0.14105 -1.01584e-19)
(0.478422 -0.128658 3.96811e-20)
(0.526537 -0.117278 2.67106e-20)
(0.571184 -0.106874 3.54378e-20)
(0.612558 -0.0973727 -6.90401e-20)
(0.650852 -0.088704 -7.9832e-20)
(0.686253 -0.0807979 6.00199e-20)
(0.71894 -0.0735881 4.64366e-20)
(0.749087 -0.0670146 -1.58011e-20)
(0.776883 -0.0610188 3.42538e-20)
(0.802507 -0.0555153 2.06862e-21)
(0.826009 -0.0503992 -5.06828e-20)
(0.847247 -0.0457341 -1.59088e-20)
(0.0201286 -0.0751521 -8.03179e-20)
(0.0661633 -0.168706 -2.22035e-20)
(0.129544 -0.216584 -7.70673e-20)
(0.196605 -0.232121 2.20962e-20)
(0.262287 -0.22798 -1.14684e-19)
(0.324703 -0.214238 -6.77254e-20)
(0.383129 -0.197342 7.88811e-20)
(0.43757 -0.180432 9.67197e-20)
(0.488238 -0.164602 -8.56332e-20)
(0.535343 -0.150059 2.2357e-20)
(0.579078 -0.136757 -3.12569e-20)
(0.619629 -0.124606 1.20303e-19)
(0.657183 -0.113515 -3.79987e-20)
(0.69192 -0.103397 -1.33253e-20)
(0.724009 -0.0941678 -7.71141e-21)
(0.753616 -0.0857513 -2.67865e-20)
(0.780934 -0.0780722 -6.53096e-20)
(0.806162 -0.0710203 -1.33832e-21)
(0.829307 -0.0644699 1.80187e-20)
(0.850039 -0.0585237 -1.69894e-20)
(0.0264435 -0.0905133 -5.23897e-20)
(0.0800467 -0.203574 -2.20899e-20)
(0.146984 -0.261758 1.24539e-19)
(0.214995 -0.280893 6.83788e-20)
(0.280108 -0.276145 2.82048e-20)
(0.341236 -0.25967 -8.67829e-20)
(0.398157 -0.239289 -9.95923e-20)
(0.451116 -0.218844 1.18257e-20)
(0.500411 -0.199686 2.27955e-20)
(0.546269 -0.182078 1.71419e-20)
(0.588875 -0.165965 5.57902e-20)
(0.628409 -0.151242 -1.22811e-19)
(0.665047 -0.1378 1.7553e-21)
(0.698961 -0.125532 4.26792e-20)
(0.73031 -0.114339 2.55509e-21)
(0.759249 -0.10413 -8.37838e-21)
(0.785975 -0.0948117 -2.15721e-20)
(0.810707 -0.0862491 7.99391e-20)
(0.83341 -0.0783003 -3.45196e-20)
(0.853531 -0.0711214 2.80581e-20)
(0.0338361 -0.105008 8.30195e-20)
(0.0963617 -0.236722 -4.38606e-20)
(0.167539 -0.304963 -5.05027e-20)
(0.236721 -0.327767 -4.67928e-20)
(0.301202 -0.322604 -9.23572e-20)
(0.36083 -0.3036 -1.18835e-20)
(0.415979 -0.279915 1.58724e-20)
(0.467188 -0.256087 -3.60921e-20)
(0.514861 -0.233732 5.17967e-20)
(0.559242 -0.213175 4.35697e-21)
(0.600513 -0.194357 -2.18517e-20)
(0.638842 -0.177157 9.96316e-20)
(0.674396 -0.161447 2.93914e-20)
(0.707334 -0.147106 -2.87161e-20)
(0.737806 -0.134016 6.37424e-20)
(0.765953 -0.122075 -6.73398e-20)
(0.791974 -0.111171 -7.24654e-21)
(0.816114 -0.101143 8.40521e-21)
(0.838296 -0.0918378 9.33008e-20)
(0.85771 -0.0834801 -5.21836e-20)
(0.0422057 -0.118503 2.8371e-20)
(0.114918 -0.267876 3.32329e-20)
(0.191 -0.345882 1.46053e-19)
(0.261591 -0.372433 6.17254e-20)
(0.3254 -0.367076 2.11501e-19)
(0.383339 -0.345783 1.77324e-20)
(0.43647 -0.319003 9.87233e-20)
(0.485678 -0.291969 6.85337e-20)
(0.531489 -0.26657 -1.46798e-19)
(0.574176 -0.2432 -2.33169e-20)
(0.613915 -0.2218 -5.45623e-20)
(0.650862 -0.202231 -6.76595e-20)
(0.68517 -0.184352 2.232e-20)
(0.716989 -0.168024 6.95753e-20)
(0.746452 -0.153117 -6.11178e-20)
(0.773689 -0.139514 -5.37689e-20)
(0.798898 -0.127087 5.24948e-20)
(0.822353 -0.115647 -7.01473e-20)
(0.843936 -0.105031 -1.00995e-19)
(0.862564 -0.0955529 -2.72602e-20)
(0.051438 -0.130876 -8.15457e-20)
(0.135498 -0.296783 -8.31063e-20)
(0.217127 -0.384215 -4.34667e-20)
(0.289381 -0.414596 -1.03079e-19)
(0.352508 -0.409295 -5.04633e-20)
(0.408599 -0.385983 -1.19723e-19)
(0.459489 -0.356348 -1.03901e-19)
(0.50646 -0.326308 3.88407e-20)
(0.550187 -0.298039 5.99642e-20)
(0.590976 -0.27201 -1.04997e-19)
(0.628997 -0.248166 6.54432e-20)
(0.664393 -0.226353 -4.38468e-20)
(0.697303 -0.206416 -5.86551e-20)
(0.727866 -0.188201 -6.14865e-20)
(0.756199 -0.171564 1.7293e-19)
(0.782413 -0.156378 7.69271e-20)
(0.806708 -0.142499 1.85881e-20)
(0.829386 -0.129708 -7.99924e-20)
(0.850301 -0.117833 1.67633e-19)
(0.868076 -0.107293 6.24796e-20)
(0.061406 -0.142018 -1.06039e-19)
(0.157859 -0.32321 1.21474e-19)
(0.245651 -0.419683 1.19088e-19)
(0.319841 -0.453982 1.25069e-19)
(0.382309 -0.44901 7.52061e-20)
(0.436423 -0.423982 1.82148e-20)
(0.484874 -0.391756 1.19938e-19)
(0.529393 -0.358935 -1.45354e-19)
(0.570829 -0.327989 -4.06654e-20)
(0.60953 -0.299472 -3.42034e-20)
(0.645661 -0.273336 1.51485e-19)
(0.67935 -0.249417 -2.1013e-20)
(0.710722 -0.227544 1.78179e-20)
(0.7399 -0.207552 3.83126e-21)
(0.766987 -0.189284 6.15533e-20)
(0.792076 -0.172603 -7.69691e-20)
(0.815359 -0.15735 1.5497e-20)
(0.837174 -0.143275 1.75845e-19)
(0.857357 -0.130196 -2.52456e-20)
(0.874226 -0.118657 -1.13116e-19)
(0.0719715 -0.151834 -6.32585e-20)
(0.181733 -0.346947 2.11655e-20)
(0.276274 -0.452033 -1.26491e-19)
(0.352692 -0.490334 -6.2198e-20)
(0.41456 -0.485989 -8.25887e-20)
(0.466605 -0.459574 -6.66742e-21)
(0.512448 -0.42505 -1.60763e-19)
(0.554323 -0.389692 1.41649e-19)
(0.593281 -0.35628 6.20153e-20)
(0.629719 -0.325462 2.62246e-20)
(0.663801 -0.297201 -1.47031e-19)
(0.69564 -0.271325 2.62149e-20)
(0.725344 -0.247651 -1.85307e-20)
(0.753021 -0.226 -7.98096e-20)
(0.778756 -0.206208 -7.45852e-20)
(0.802622 -0.188127 1.22399e-19)
(0.824804 -0.171587 6.19522e-20)
(0.845675 -0.156303 -3.56488e-20)
(0.865068 -0.142078 -9.95501e-20)
(0.880991 -0.129602 1.48332e-20)
(0.0829867 -0.160244 8.56554e-20)
(0.206832 -0.367814 3.89527e-20)
(0.308674 -0.481036 4.79785e-20)
(0.387631 -0.523422 5.37225e-20)
(0.448998 -0.520019 -5.71425e-20)
(0.49892 -0.492572 1.26043e-19)
(0.542019 -0.456066 -1.24911e-19)
(0.581082 -0.418438 -5.08731e-21)
(0.617394 -0.382786 9.95235e-20)
(0.651413 -0.349867 2.0852e-20)
(0.683305 -0.319661 8.75534e-20)
(0.713164 -0.291989 -3.68275e-20)
(0.741082 -0.266657 2.30364e-20)
(0.76715 -0.243477 1.47102e-19)
(0.791438 -0.222274 -8.78919e-21)
(0.813994 -0.202896 -4.32226e-20)
(0.834992 -0.185161 -9.14529e-20)
(0.854842 -0.16875 -1.50266e-19)
(0.873394 -0.153443 -2.32782e-20)
(0.888345 -0.140089 1.51072e-19)
(0.0942963 -0.167185 9.96811e-20)
(0.232848 -0.385656 3.75562e-21)
(0.342503 -0.506494 -1.84238e-19)
(0.424332 -0.553039 7.34456e-20)
(0.48534 -0.550908 2.36291e-22)
(0.533128 -0.522809 7.8498e-20)
(0.57338 -0.484658 7.4935e-20)
(0.609491 -0.445043 -6.71192e-21)
(0.643011 -0.407394 -4.22686e-20)
(0.674474 -0.372588 -1.47103e-19)
(0.704048 -0.340627 4.49393e-20)
(0.731813 -0.311329 1.85692e-19)
(0.757841 -0.284492 -1.30412e-19)
(0.782207 -0.259918 -1.0777e-19)
(0.80496 -0.237425 -6.76169e-20)
(0.826128 -0.216859 -1.61838e-19)
(0.845867 -0.198029 4.75818e-20)
(0.864626 -0.18058 2.26272e-19)
(0.882293 -0.164256 -3.40058e-20)
(0.896262 -0.150085 -4.25924e-20)
(0.105739 -0.172611 4.16944e-20)
(0.259459 -0.400349 -6.57249e-20)
(0.377393 -0.528238 5.73485e-20)
(0.462446 -0.579006 -9.28433e-20)
(0.523281 -0.578487 1.02357e-19)
(0.56897 -0.550134 -1.02516e-19)
(0.606312 -0.510698 -2.50906e-20)
(0.639361 -0.469398 1.10461e-19)
(0.669966 -0.430007 -8.5036e-20)
(0.698756 -0.393536 9.43967e-20)
(0.725904 -0.36002 -1.11813e-19)
(0.751475 -0.329275 -6.45612e-20)
(0.775523 -0.301092 -4.55436e-20)
(0.798103 -0.275267 7.06775e-20)
(0.819248 -0.251612 1.42424e-20)
(0.838958 -0.22997 8.68357e-20)
(0.857371 -0.210149 -5.81559e-20)
(0.874973 -0.191756 -3.95174e-21)
(0.891718 -0.174489 8.87362e-20)
(0.904711 -0.159559 -4.02806e-20)
(0.117148 -0.176494 -9.73503e-21)
(0.286328 -0.411803 -3.90618e-20)
(0.412959 -0.546132 -7.40565e-21)
(0.501607 -0.601169 -2.15254e-20)
(0.5625 -0.602611 -7.01434e-20)
(0.606176 -0.574421 -6.06123e-20)
(0.640585 -0.534077 -3.99893e-20)
(0.670492 -0.491406 -5.54875e-20)
(0.698086 -0.45054 1.14716e-19)
(0.724105 -0.412638 1.23069e-20)
(0.748737 -0.377774 1.7654e-19)
(0.772033 -0.345767 5.45827e-20)
(0.794024 -0.316405 5.94367e-20)
(0.814748 -0.289477 -9.49944e-20)
(0.834222 -0.264791 1.44604e-19)
(0.852416 -0.242191 -2.58569e-20)
(0.869442 -0.221488 -1.5017e-20)
(0.885827 -0.202256 -1.27156e-19)
(0.90162 -0.184126 5.90427e-20)
(0.91366 -0.168492 -4.74693e-20)
(0.128357 -0.178825 -7.86995e-20)
(0.313111 -0.419958 -3.48392e-20)
(0.448799 -0.560075 -5.20188e-20)
(0.541428 -0.619409 -4.53486e-20)
(0.602661 -0.623161 -1.17222e-20)
(0.644461 -0.595564 1.2228e-19)
(0.675958 -0.554704 1.04321e-19)
(0.702679 -0.510992 8.84492e-20)
(0.72719 -0.468927 -8.9991e-20)
(0.750364 -0.429834 -5.19999e-20)
(0.77241 -0.393836 -1.85194e-19)
(0.793363 -0.360758 1.44502e-19)
(0.813237 -0.330387 -5.53997e-20)
(0.83205 -0.302508 1.00295e-19)
(0.849801 -0.276926 -7.44928e-20)
(0.866433 -0.253487 2.73818e-20)
(0.882018 -0.232008 -3.61517e-20)
(0.897124 -0.212039 1.13584e-19)
(0.911941 -0.193136 -8.95824e-20)
(0.923077 -0.176862 -3.94651e-20)
(0.139199 -0.179614 8.78903e-20)
(0.339455 -0.424793 -3.2919e-20)
(0.484499 -0.570002 6.24211e-20)
(0.58151 -0.633635 6.51664e-20)
(0.643413 -0.640044 -1.999e-20)
(0.68353 -0.613478 -1.31192e-19)
(0.712184 -0.57251 9.41585e-20)
(0.735709 -0.528096 -1.84814e-20)
(0.757094 -0.485117 2.92065e-20)
(0.777371 -0.445078 3.52523e-20)
(0.796779 -0.408163 -7.26296e-20)
(0.815343 -0.37421 -1.71247e-19)
(0.833053 -0.343003 7.45196e-21)
(0.849911 -0.314329 -1.69357e-20)
(0.865901 -0.287989 4.98097e-21)
(0.880936 -0.263833 8.66204e-20)
(0.895036 -0.241696 -8.35046e-20)
(0.908797 -0.221114 -1.27878e-19)
(0.922615 -0.201557 -3.33797e-20)
(0.932938 -0.18471 6.7204e-20)
(0.149507 -0.178889 6.94813e-21)
(0.365006 -0.426319 -3.6505e-20)
(0.519636 -0.575883 8.47812e-21)
(0.621441 -0.64379 -4.89725e-20)
(0.684392 -0.653192 -1.96501e-20)
(0.723077 -0.628105 -1.34096e-20)
(0.749006 -0.587444 2.14247e-20)
(0.769366 -0.542677 -6.69617e-20)
(0.787611 -0.499074 -1.5659e-20)
(0.804962 -0.45834 4.35848e-20)
(0.821701 -0.420729 2.91849e-20)
(0.837844 -0.386095 1.06915e-19)
(0.853363 -0.354229 1.05935e-19)
(0.868237 -0.324916 -2.70156e-20)
(0.882438 -0.297956 7.38658e-21)
(0.895859 -0.273201 2.94689e-20)
(0.908446 -0.250498 1.08967e-19)
(0.920784 -0.229379 1.2758e-19)
(0.933555 -0.209242 1.4263e-19)
(0.943234 -0.191924 -1.8175e-20)
(0.159123 -0.176699 -1.23748e-20)
(0.389413 -0.424586 2.20317e-20)
(0.553781 -0.577728 2.28304e-20)
(0.660796 -0.649849 1.72227e-20)
(0.725223 -0.662569 -3.99403e-20)
(0.762787 -0.639406 1.30885e-19)
(0.786165 -0.599479 -3.87841e-20)
(0.803429 -0.554716 1.06876e-20)
(0.818551 -0.510782 -5.72783e-20)
(0.832971 -0.469603 -5.80992e-21)
(0.847031 -0.431517 9.72336e-20)
(0.860741 -0.396401 -4.90219e-20)
(0.874054 -0.36405 -1.77725e-20)
(0.886928 -0.334256 -4.40839e-20)
(0.899324 -0.306817 4.2105e-20)
(0.911122 -0.28159 -8.38585e-20)
(0.922187 -0.258445 3.2497e-20)
(0.933004 -0.236951 -2.11544e-20)
(0.94458 -0.216505 9.1876e-21)
(0.953925 -0.199027 4.11788e-20)
(0.167891 -0.173111 -3.5405e-21)
(0.412329 -0.419681 3.49089e-22)
(0.586507 -0.575586 -2.8339e-21)
(0.699145 -0.651823 -7.60355e-21)
(0.765524 -0.668163 1.70655e-20)
(0.802339 -0.647369 -8.06486e-20)
(0.823394 -0.608605 -8.64009e-21)
(0.837677 -0.564207 -4.65802e-20)
(0.849724 -0.52024 7.18195e-20)
(0.861234 -0.478867 5.48663e-20)
(0.872624 -0.440525 -9.26003e-20)
(0.883907 -0.405122 7.1099e-20)
(0.895016 -0.372462 -5.98913e-20)
(0.905889 -0.342342 1.36555e-20)
(0.916474 -0.314562 -1.89569e-19)
(0.926656 -0.288975 6.5618e-21)
(0.936238 -0.265453 -6.4959e-20)
(0.945502 -0.243553 -9.40559e-20)
(0.955646 -0.222623 -5.60652e-20)
(0.965272 -0.20478 -9.05961e-20)
(0.175679 -0.168218 1.61807e-20)
(0.43341 -0.411719 -2.46528e-20)
(0.617385 -0.569544 1.04507e-20)
(0.736056 -0.649759 1.27983e-20)
(0.804905 -0.669995 1.58671e-21)
(0.841408 -0.652004 3.6011e-20)
(0.860428 -0.614835 -1.89895e-20)
(0.871888 -0.571166 -1.47005e-20)
(0.880942 -0.527463 -8.40353e-21)
(0.889586 -0.486146 -3.3765e-20)
(0.898336 -0.447766 2.40665e-20)
(0.907215 -0.412268 -6.7878e-20)
(0.91614 -0.379471 5.8384e-20)
(0.925025 -0.349177 5.84846e-20)
(0.933806 -0.321195 1.0506e-19)
(0.942379 -0.295372 3.56702e-20)
(0.950541 -0.271575 7.23567e-20)
(0.958322 -0.249469 7.96418e-20)
(0.966539 -0.228973 7.14198e-20)
(0.975928 -0.212286 3.56522e-20)
(0.182411 -0.162129 4.38254e-20)
(0.452319 -0.400825 -1.41171e-20)
(0.645997 -0.559737 -1.8476e-20)
(0.771094 -0.643737 -3.34988e-20)
(0.842971 -0.668111 6.62884e-21)
(0.879662 -0.653346 -8.74098e-21)
(0.896996 -0.6182 1.58735e-20)
(0.905841 -0.575626 -6.002e-21)
(0.912018 -0.532483 -2.8395e-20)
(0.917868 -0.491467 -9.56571e-21)
(0.924028 -0.453262 7.83893e-20)
(0.930543 -0.417858 1.82674e-20)
(0.937318 -0.385091 1.27173e-20)
(0.944245 -0.354775 -4.72781e-20)
(0.951238 -0.326726 -1.42709e-19)
(0.958209 -0.30079 4.44968e-20)
(0.964988 -0.276826 2.93761e-20)
(0.971438 -0.254608 -8.26638e-20)
(0.977887 -0.234338 -4.6399e-20)
(0.98569 -0.216855 -2.25174e-20)
(0.187947 -0.154834 -5.0802e-20)
(0.468778 -0.387132 3.37795e-20)
(0.671931 -0.546368 -7.17379e-20)
(0.803833 -0.633878 3.12174e-21)
(0.879328 -0.662588 2.06002e-20)
(0.916768 -0.651451 -1.83595e-20)
(0.932829 -0.618752 3.8319e-21)
(0.939318 -0.577637 1.20498e-21)
(0.94277 -0.535347 2.7398e-20)
(0.945921 -0.494874 2.48754e-20)
(0.949563 -0.45705 -5.14718e-20)
(0.953771 -0.421923 -9.09589e-20)
(0.958444 -0.389349 3.34729e-20)
(0.963455 -0.359155 2.76279e-20)
(0.968697 -0.33117 7.39223e-20)
(0.974081 -0.305236 -9.6607e-21)
(0.979491 -0.2812 7.23444e-22)
(0.984739 -0.258911 2.74356e-21)
(0.989735 -0.238748 -7.17516e-21)
(0.995669 -0.220801 -1.08447e-19)
(0.192108 -0.146508 6.95343e-20)
(0.482542 -0.371008 7.52223e-20)
(0.694744 -0.529612 7.52748e-20)
(0.833892 -0.62033 1.85476e-20)
(0.913588 -0.653532 -2.6745e-20)
(0.952391 -0.646397 -2.10934e-20)
(0.967658 -0.616558 -1.16872e-20)
(0.972103 -0.577263 1.76634e-21)
(0.97302 -0.536117 -7.38065e-21)
(0.973595 -0.496422 -1.27982e-20)
(0.974808 -0.459178 4.89468e-21)
(0.976784 -0.424503 3.90296e-20)
(0.979418 -0.392279 -3.39499e-20)
(0.982569 -0.362346 2.51649e-21)
(0.986108 -0.334547 -1.81408e-20)
(0.989941 -0.308729 -1.02992e-20)
(0.993998 -0.284722 5.54569e-21)
(0.998107 -0.262434 -1.73971e-20)
(1.00191 -0.242392 1.68814e-20)
(1.00622 -0.224249 1.00318e-19)
(0.194838 -0.137386 4.97062e-20)
(0.493372 -0.352687 -1.44977e-19)
(0.714042 -0.509701 7.47319e-20)
(0.860768 -0.603306 2.20361e-20)
(0.94539 -0.641055 -5.21972e-20)
(0.986201 -0.638279 2.79481e-20)
(1.00121 -0.611705 3.23004e-21)
(1.00398 -0.574586 -1.69313e-20)
(1.0026 -0.53487 2.40737e-21)
(1.00075 -0.496179 -1.57802e-22)
(0.999639 -0.459706 -3.9474e-21)
(0.999471 -0.42565 1.13041e-20)
(1.00014 -0.393923 2.05723e-20)
(1.0015 -0.364384 -3.45822e-20)
(1.0034 -0.33689 1.86416e-20)
(1.00573 -0.311296 -6.21792e-21)
(1.00846 -0.287426 1.93512e-20)
(1.01145 -0.265226 -3.27711e-22)
(1.01417 -0.245328 2.25835e-20)
(1.01707 -0.227136 -2.95557e-20)
(0.196111 -0.127641 -6.55488e-21)
(0.501037 -0.332431 -5.56832e-20)
(0.729591 -0.486938 -4.66971e-20)
(0.883979 -0.583006 2.796e-20)
(0.974289 -0.625339 -5.64832e-21)
(1.01787 -0.627201 2.84241e-20)
(1.03323 -0.604289 1.38742e-20)
(1.03475 -0.569698 4.25241e-21)
(1.03133 -0.531691 1.71958e-21)
(1.02723 -0.494225 -1.08102e-21)
(1.02394 -0.458704 6.03343e-22)
(1.02173 -0.425424 -4.05894e-21)
(1.02053 -0.394335 6.19745e-21)
(1.02017 -0.365314 1.93285e-22)
(1.0205 -0.338236 -2.5175e-20)
(1.0214 -0.31297 4.59583e-20)
(1.02284 -0.289341 -2.31778e-20)
(1.02472 -0.267309 -2.21373e-20)
(1.02639 -0.247568 -9.9892e-21)
(1.02798 -0.229424 -1.73705e-20)
(0.195907 -0.117407 -1.92186e-20)
(0.505357 -0.310546 1.19409e-19)
(0.741121 -0.461628 3.99514e-20)
(0.903221 -0.5597 -1.10012e-19)
(0.999823 -0.60657 -2.02454e-20)
(1.04705 -0.613308 3.36559e-20)
(1.06343 -0.594418 1.45011e-20)
(1.06419 -0.562703 3.75188e-20)
(1.05907 -0.526681 -2.27446e-21)
(1.05293 -0.490652 3.33393e-21)
(1.04759 -0.456252 8.54509e-22)
(1.04346 -0.423893 6.52219e-21)
(1.04048 -0.393571 9.58585e-22)
(1.0385 -0.365186 1.26751e-20)
(1.03734 -0.33863 -8.39639e-21)
(1.03688 -0.313788 -5.75452e-20)
(1.03708 -0.290492 -2.75467e-20)
(1.03787 -0.268701 2.87647e-20)
(1.03851 -0.249135 1.45991e-20)
(1.03887 -0.231122 -6.377e-21)
(0.194214 -0.106829 1.11984e-19)
(0.506213 -0.287358 -1.59532e-19)
(0.748344 -0.43412 -1.42504e-19)
(0.918201 -0.533666 1.72321e-19)
(1.02164 -0.584958 4.3085e-20)
(1.07335 -0.596768 -2.73901e-20)
(1.09155 -0.582217 -4.84067e-20)
(1.09211 -0.553714 -4.79102e-20)
(1.08564 -0.519947 3.00015e-20)
(1.0777 -0.485557 7.44762e-21)
(1.07049 -0.452439 8.8154e-21)
(1.06458 -0.421135 5.28224e-21)
(1.05994 -0.391699 -3.63308e-21)
(1.05642 -0.364057 2.4497e-21)
(1.05385 -0.338118 9.9838e-21)
(1.0521 -0.313789 3.02378e-20)
(1.05113 -0.290911 1.42299e-20)
(1.05085 -0.269431 -4.86186e-20)
(1.0505 -0.25007 -1.01778e-20)
(1.04972 -0.23227 1.46465e-20)
(0.191043 -0.0960631 -1.22101e-19)
(0.503537 -0.263215 1.18076e-19)
(0.751027 -0.404792 -4.30721e-22)
(0.92858 -0.505213 -3.91718e-20)
(1.03941 -0.56074 -6.3455e-21)
(1.09643 -0.577748 -8.71692e-21)
(1.11729 -0.567833 -4.53016e-20)
(1.1183 -0.542856 4.46568e-20)
(1.11091 -0.511603 -5.48163e-20)
(1.10145 -0.47905 3.19626e-21)
(1.09256 -0.44736 -3.08887e-21)
(1.085 -0.417232 -1.05933e-21)
(1.07882 -0.38879 -2.25282e-21)
(1.07387 -0.361987 -1.70912e-21)
(1.06999 -0.336754 1.86561e-21)
(1.06703 -0.313017 -4.61054e-21)
(1.06493 -0.290633 1.16977e-20)
(1.06363 -0.26953 3.28009e-21)
(1.06234 -0.250413 1.20158e-21)
(1.06051 -0.232901 -2.41865e-20)
(0.186436 -0.0852742 1.87906e-20)
(0.497316 -0.238472 3.41752e-20)
(0.749002 -0.374044 6.28823e-20)
(0.934049 -0.474681 -3.30308e-20)
(1.0528 -0.534165 -9.10648e-20)
(1.11597 -0.556437 2.50899e-20)
(1.14037 -0.551416 3.93137e-20)
(1.14255 -0.530257 2.26118e-20)
(1.13473 -0.501772 4.80649e-20)
(1.12405 -0.47124 -1.04775e-20)
(1.1137 -0.441116 -3.93732e-21)
(1.10465 -0.412272 4.29931e-21)
(1.09705 -0.38492 -1.0073e-20)
(1.09079 -0.359043 -8.95834e-21)
(1.08569 -0.334593 -1.08132e-21)
(1.0816 -0.31152 1.182e-21)
(1.07845 -0.289699 -1.18987e-20)
(1.07618 -0.269033 6.41551e-21)
(1.074 -0.250198 1.16515e-20)
(1.07121 -0.233035 -7.11923e-22)
(0.180461 -0.0746246 3.43294e-20)
(0.48759 -0.21349 6.95777e-21)
(0.742173 -0.34229 -8.78974e-20)
(0.934352 -0.442436 1.07166e-19)
(1.06144 -0.505509 1.96359e-20)
(1.13164 -0.533033 -1.00498e-19)
(1.16052 -0.533116 3.16898e-20)
(1.16465 -0.516054 -3.36433e-20)
(1.15698 -0.490573 4.53341e-22)
(1.14543 -0.462246 4.93171e-21)
(1.13382 -0.433817 1.10568e-20)
(1.12346 -0.406346 2.82248e-21)
(1.11459 -0.38017 2.10702e-20)
(1.10713 -0.355293 2.38946e-21)
(1.10091 -0.331695 -4.80268e-21)
(1.09578 -0.309346 2.27207e-22)
(1.09165 -0.288148 -2.11916e-21)
(1.08845 -0.26798 1.39084e-22)
(1.08546 -0.249461 9.67982e-22)
(1.0818 -0.232694 5.28766e-21)
(0.173213 -0.0642695 -3.99607e-20)
(0.474464 -0.188633 2.09854e-21)
(0.730512 -0.309963 1.83782e-20)
(0.929291 -0.40887 -4.42632e-20)
(1.06502 -0.47507 8.38233e-20)
(1.14309 -0.507743 4.11794e-20)
(1.17744 -0.513087 -3.85118e-20)
(1.18438 -0.500379 -2.17713e-20)
(1.17748 -0.478138 1.67414e-20)
(1.16549 -0.452179 -2.01386e-20)
(1.15288 -0.425554 1.5686e-20)
(1.14138 -0.399563 8.37695e-22)
(1.13138 -0.374627 9.55891e-22)
(1.12284 -0.350807 -6.26507e-21)
(1.11561 -0.328121 1.21955e-20)
(1.10952 -0.306549 -1.63527e-21)
(1.10449 -0.286026 8.3225e-22)
(1.10043 -0.266406 8.79323e-22)
(1.09669 -0.248236 -3.07579e-21)
(1.09224 -0.231897 -6.73527e-22)
(0.164812 -0.0543531 6.61025e-20)
(0.458103 -0.164252 7.51431e-20)
(0.714067 -0.277499 5.3042e-20)
(0.918726 -0.374392 -8.62361e-21)
(1.06326 -0.443164 8.57884e-21)
(1.14998 -0.480791 -7.84748e-22)
(1.19082 -0.491486 8.26995e-20)
(1.20151 -0.483355 -2.22698e-20)
(1.19607 -0.464584 1.24543e-20)
(1.18412 -0.441158 -6.03974e-20)
(1.17083 -0.416453 1.04739e-20)
(1.15839 -0.392009 1.9879e-20)
(1.14739 -0.368369 -6.42394e-21)
(1.13789 -0.345668 1.33865e-20)
(1.12975 -0.323935 -1.08205e-20)
(1.12281 -0.30318 1.424e-20)
(1.11695 -0.283376 1.42877e-21)
(1.11208 -0.264356 -2.78869e-21)
(1.10767 -0.246562 -4.96366e-22)
(1.10251 -0.230671 -1.87405e-21)
(0.155399 -0.0450052 -1.24679e-19)
(0.438735 -0.140685 3.01242e-20)
(0.692968 -0.245339 -1.21027e-20)
(0.902589 -0.339424 -7.8392e-20)
(1.05591 -0.410125 -2.47003e-20)
(1.15197 -0.452407 -4.69946e-20)
(1.20034 -0.46847 -3.69691e-20)
(1.21579 -0.465106 -3.57138e-20)
(1.21261 -0.450022 3.14464e-20)
(1.20122 -0.429298 1.17399e-20)
(1.18758 -0.40662 -3.56303e-20)
(1.17442 -0.383785 -4.66729e-21)
(1.1626 -0.361489 -2.33604e-21)
(1.15226 -0.339941 -1.1507e-20)
(1.14331 -0.319201 -1.3765e-21)
(1.1356 -0.299303 -2.36287e-21)
(1.129 -0.280244 -1.16792e-20)
(1.12339 -0.261866 2.67916e-21)
(1.11839 -0.244476 4.29789e-21)
(1.11261 -0.229033 -8.34686e-22)
(0.145136 -0.0363381 4.28173e-21)
(0.416646 -0.118246 -5.42035e-20)
(0.667429 -0.213912 2.42834e-20)
(0.880892 -0.304401 -1.63706e-20)
(1.04276 -0.376304 1.92285e-20)
(1.14874 -0.422833 7.75245e-20)
(1.20565 -0.444199 -3.33988e-20)
(1.22695 -0.445748 7.07777e-20)
(1.22692 -0.434556 2.52766e-21)
(1.21668 -0.416704 2.81236e-20)
(1.20309 -0.396158 2.84385e-21)
(1.18944 -0.37499 1.6898e-20)
(1.17697 -0.354072 2.96466e-21)
(1.16593 -0.333705 4.81304e-22)
(1.15629 -0.313987 -1.75957e-20)
(1.1479 -0.294967 2.79137e-21)
(1.14063 -0.27667 1.11155e-20)
(1.13435 -0.258994 3.99771e-22)
(1.12878 -0.242021 -2.67715e-21)
(1.12255 -0.227035 1.18118e-21)
(0.134198 -0.0284444 1.48876e-20)
(0.39218 -0.0972158 4.32278e-20)
(0.637752 -0.183631 4.54722e-20)
(0.853735 -0.269759 -1.28693e-20)
(1.02367 -0.342062 5.36591e-20)
(1.13998 -0.392323 -1.04686e-20)
(1.20642 -0.418832 7.60109e-20)
(1.2347 -0.425388 -8.85529e-20)
(1.23878 -0.418278 -1.45541e-20)
(1.23041 -0.403468 -1.31828e-20)
(1.21728 -0.385161 -1.42696e-20)
(1.20343 -0.365716 -2.03491e-21)
(1.19047 -0.346204 6.00327e-21)
(1.17887 -0.327036 -1.57598e-20)
(1.16864 -0.308356 1.20726e-20)
(1.15968 -0.290233 -5.14948e-21)
(1.15184 -0.272717 -2.72645e-21)
(1.14498 -0.255742 -3.60974e-21)
(1.13881 -0.23924 -2.52318e-21)
(1.13234 -0.224678 -4.99924e-21)
(0.122773 -0.0213945 6.8699e-20)
(0.36573 -0.0778379 -6.54444e-20)
(0.604329 -0.154881 7.7471e-21)
(0.821317 -0.235931 -8.68058e-21)
(0.998577 -0.307776 -2.03333e-20)
(1.12539 -0.36114 -3.81508e-20)
(1.20225 -0.392532 -4.63644e-21)
(1.23867 -0.404127 2.22646e-20)
(1.24795 -0.401268 8.64592e-21)
(1.24224 -0.389671 -1.11768e-20)
(1.23011 -0.373718 1.20195e-20)
(1.21635 -0.356051 -1.07613e-21)
(1.20311 -0.337969 -2.0022e-20)
(1.19108 -0.320009 2.72166e-20)
(1.18037 -0.302374 7.2957e-21)
(1.17093 -0.285157 -3.62295e-21)
(1.1626 -0.268428 4.52596e-21)
(1.15523 -0.252153 5.19553e-21)
(1.14857 -0.236212 4.64716e-21)
(1.14185 -0.222097 4.46758e-21)
(0.111052 -0.0152352 -7.06182e-20)
(0.337728 -0.0603092 5.33633e-20)
(0.567634 -0.128009 2.26537e-20)
(0.783947 -0.20334 -4.57442e-20)
(0.967492 -0.273831 -9.67236e-21)
(1.10474 -0.329563 -3.48512e-20)
(1.19276 -0.365463 1.35358e-20)
(1.2385 -0.382055 -2.14807e-20)
(1.25414 -0.383586 1.1593e-21)
(1.252 -0.375377 2.78878e-21)
(1.24147 -0.361901 6.05076e-21)
(1.22818 -0.346075 -1.94188e-20)
(1.21486 -0.329444 1.9271e-20)
(1.20255 -0.312694 -1.29929e-20)
(1.19148 -0.296103 -2.81894e-21)
(1.18163 -0.279792 1.03553e-21)
(1.1729 -0.263853 -3.28097e-21)
(1.16511 -0.24828 -8.04656e-21)
(1.15802 -0.23293 -1.80024e-22)
(1.15099 -0.219236 -4.46424e-21)
(0.0992309 -0.00998968 -8.44518e-21)
(0.308635 -0.0447767 -2.46778e-20)
(0.528219 -0.103318 -8.40424e-21)
(0.742044 -0.172386 1.31756e-20)
(0.930543 -0.240617 -7.56168e-21)
(1.07784 -0.297884 7.92893e-21)
(1.17758 -0.337798 1.76628e-20)
(1.23376 -0.359255 1.50097e-20)
(1.257 -0.365278 1.15693e-20)
(1.25948 -0.360629 -2.52229e-21)
(1.25125 -0.349768 -5.80776e-21)
(1.23886 -0.335857 7.15338e-21)
(1.22573 -0.320699 -3.17004e-21)
(1.21328 -0.305159 4.39761e-21)
(1.20196 -0.289604 -2.05038e-21)
(1.19181 -0.274193 5.0598e-21)
(1.18275 -0.259037 -1.47265e-21)
(1.1746 -0.244166 4.78998e-21)
(1.16716 -0.229399 -1.43111e-21)
(1.15982 -0.216104 2.74926e-22)
(0.0874965 -0.00565704 -1.06216e-22)
(0.27893 -0.0313329 -1.04298e-22)
(0.486699 -0.081052 -2.81848e-21)
(0.696144 -0.14344 1.38667e-20)
(0.887977 -0.208526 8.78345e-21)
(1.04457 -0.266411 -6.57363e-21)
(1.15632 -0.309718 -4.81647e-21)
(1.22398 -0.335808 -1.39605e-21)
(1.25611 -0.346372 -6.65766e-21)
(1.26437 -0.345449 -4.27889e-22)
(1.2593 -0.337358 2.81044e-22)
(1.24834 -0.325451 -2.71082e-21)
(1.23569 -0.311799 -1.64746e-21)
(1.22329 -0.297467 -3.68462e-21)
(1.21183 -0.282933 -3.93062e-21)
(1.20146 -0.26841 -3.10477e-22)
(1.19214 -0.254026 1.40979e-21)
(1.18372 -0.239846 1.44179e-21)
(1.17599 -0.225651 1.53824e-21)
(1.16841 -0.212742 2.2251e-21)
(0.076027 -0.00221376 9.57311e-21)
(0.249091 -0.0200145 -1.47781e-21)
(0.443743 -0.0613934 -2.50577e-21)
(0.646893 -0.116831 6.293e-21)
(0.840179 -0.177945 1.26097e-20)
(1.00494 -0.235469 -5.55822e-21)
(1.12866 -0.281426 -4.50798e-21)
(1.20865 -0.311797 -8.35754e-21)
(1.251 -0.326883 -7.49829e-21)
(1.26632 -0.329836 1.39939e-21)
(1.2654 -0.324685 -1.2386e-21)
(1.2565 -0.314896 -5.67744e-22)
(1.2447 -0.302795 -2.91537e-21)
(1.23256 -0.289673 -4.68695e-21)
(1.22109 -0.276147 -1.13997e-21)
(1.2106 -0.262491 -3.7489e-22)
(1.2011 -0.248862 -7.96766e-23)
(1.19246 -0.23536 9.83334e-22)
(1.18451 -0.221733 3.57651e-21)
(1.17677 -0.209184 2.96988e-21)
(0.0649839 0.00038432 -5.74358e-21)
(0.219586 -0.0108031 -8.35459e-21)
(0.400045 -0.0444544 -1.1126e-20)
(0.595037 -0.0928352 1.46078e-20)
(0.787688 -0.149244 1.4084e-20)
(0.959077 -0.205401 2.70742e-22)
(1.09431 -0.253146 5.35639e-21)
(1.18726 -0.287313 1.48339e-20)
(1.24108 -0.306815 1.60526e-20)
(1.26486 -0.313765 1.04119e-20)
(1.26924 -0.311737 -2.53886e-20)
(1.2632 -0.304204 1.04007e-20)
(1.25272 -0.293724 -4.88628e-21)
(1.24109 -0.281826 1.05129e-20)
(1.22976 -0.269293 -6.84582e-22)
(1.21924 -0.256484 -1.66164e-21)
(1.20963 -0.243588 1.08327e-21)
(1.20084 -0.230747 1.02378e-20)
(1.19272 -0.217686 -3.56983e-21)
(1.18489 -0.205463 3.27621e-22)
(0.0545088 0.00219927 -1.76863e-20)
(0.190851 -0.00362788 4.02766e-20)
(0.35631 -0.0302752 3.99933e-21)
(0.541406 -0.0716646 -5.03301e-20)
(0.731194 -0.122767 -9.38151e-21)
(0.907288 -0.176564 2.17433e-20)
(1.05311 -0.22513 -5.02045e-20)
(1.1593 -0.262471 -4.53395e-22)
(1.22574 -0.28617 4.66162e-21)
(1.25943 -0.29719 -9.4402e-22)
(1.27044 -0.298472 1.34812e-20)
(1.26821 -0.293366 -2.34805e-20)
(1.25965 -0.284603 3.75615e-21)
(1.24885 -0.273962 -8.88523e-21)
(1.23783 -0.262414 -7.36448e-21)
(1.22738 -0.250432 6.7709e-21)
(1.21774 -0.238244 -7.93121e-22)
(1.20887 -0.226042 -1.61288e-20)
(1.20064 -0.213548 4.58161e-22)
(1.19278 -0.201608 -8.14526e-21)
(0.0447194 0.00330759 1.3712e-20)
(0.163284 0.0016291 -2.23476e-20)
(0.313223 -0.0188233 -1.76871e-21)
(0.486883 -0.0534576 -4.15293e-20)
(0.671541 -0.0988218 -2.58677e-20)