/*--------------------------------*- C++ -*----------------------------------*\
  =========                 |
  \\      /  F ield         | OpenFOAM: The Open Source CFD Toolbox
   \\    /   O peration     | Website:  https://openfoam.org
    \\  /    A nd           | Version:  7
     \\/     M anipulation  |
\*---------------------------------------------------------------------------*/
FoamFile
{
    version     2.0;
    format      ascii;
    class       volScalarField;
    location    "11";
    object      p;
}
// * * * * * * * * * * * * * * * * * * * * * * * * * * * * * * * * * * * * * //

dimensions      [0 2 -2 0 0 0 0];

internalField   nonuniform List<scalar> 
15600
(
-476.223
-450.572
-425.15
-393.693
-352.143
-303.984
-254.927
-210.959
-174.967
-146.298
-122.492
-101.267
-81.5787
-63.5162
-47.6548
-34.5063
-24.174
-16.408
-10.7964
-6.87261
-4.22217
-2.49592
-1.41439
-0.761669
-0.380336
-0.164337
-0.0448859
0.021013
0.058802
0.0825652
0.0995443
0.113127
0.124713
0.134774
0.143406
0.150599
0.156336
0.16069
0.163718
0.165542
136.828
133.507
133.417
135.608
140.366
147.474
153.124
152.529
143.051
125.637
103.791
81.396
61.251
44.6607
31.7503
22.1115
15.0595
10.0011
6.46255
4.06597
2.50437
1.53016
0.950984
0.63096
0.466427
0.393105
0.369441
0.370986
0.383827
0.400384
0.416867
0.431576
0.443882
0.453669
0.461046
0.46619
0.469281
0.470511
0.47003
0.467476
524.829
504.555
486.567
460.144
422.431
378.733
332.614
286.567
242.251
200.737
163.09
129.989
101.56
77.5968
57.796
41.8526
29.4534
20.1093
13.3065
8.55066
5.36703
3.33549
2.10381
1.39211
1.00738
0.818539
0.739453
0.717523
0.722027
0.736205
0.751932
0.765692
0.776302
0.783632
0.787947
0.789598
0.788899
0.786081
0.781337
0.773712
80.0201
78.2124
72.3113
57.5847
37.0832
15.7618
-3.18531
-18.2062
-28.5149
-33.2141
-32.4782
-27.8083
-21.2998
-14.8
-9.42326
-5.49792
-2.85479
-1.20608
-0.226408
0.33801
0.659646
0.832936
0.925481
0.981952
1.02056
1.04929
1.07175
1.08953
1.10336
1.11374
1.12108
1.12573
1.12793
1.12788
1.12572
1.12157
1.11549
1.1075
1.09766
1.08425
-488.549
-462.051
-438.132
-412.49
-380.797
-344.884
-307.069
-270.888
-237.118
-204.968
-173.38
-142.232
-112.549
-85.6354
-62.6484
-44.0836
-29.8563
-19.4002
-11.9876
-6.89549
-3.5393
-1.40144
-0.089984
0.680069
1.11007
1.3361
1.44586
1.49304
1.50875
1.50988
1.5049
1.4976
1.48936
1.48045
1.47072
1.45989
1.44773
1.43397
1.4185
1.39876
-293.238
-275.903
-257.425
-232.898
-199.338
-159.67
-119.186
-84.0094
-58.4263
-42.5179
-33.5561
-28.069
-23.5543
-19.0052
-14.4723
-10.3367
-6.86025
-4.09566
-2.0139
-0.536252
0.464428
1.10663
1.50023
1.7279
1.84834
1.90309
1.92049
1.91849
1.90763
1.89347
1.87857
1.86375
1.84903
1.83406
1.81845
1.80183
1.78394
1.76443
1.74321
1.71683
381.75
368.664
359.336
347.5
331.371
313.227
291.907
265.759
234.427
199.436
163.75
130.228
100.736
76.0312
56.123
40.6437
28.9062
20.234
14.0148
9.69556
6.80833
4.95585
3.80822
3.12122
2.72497
2.50424
2.38441
2.31957
2.28286
2.2593
2.24104
2.22416
2.20687
2.18839
2.16842
2.14682
2.12354
2.09837
2.07136
2.03813
451.18
432.249
412.74
382.771
341.225
295.262
249.947
208.162
170.885
138.394
110.911
88.2611
69.7373
54.4876
41.8707
31.5313
23.2903
16.9131
12.1603
8.76556
6.43804
4.91248
3.95541
3.37375
3.03819
2.8509
2.74862
2.69227
2.65864
2.63486
2.6143
2.5938
2.57204
2.54854
2.52316
2.4959
2.46678
2.43567
2.40269
2.36234
-173.198
-163.48
-158.036
-157.568
-157.966
-156.365
-151.413
-143.77
-133.95
-121.193
-105.124
-86.6549
-67.6418
-50.0172
-35.0841
-23.3342
-14.626
-8.39953
-4.10763
-1.24653
0.587765
1.71462
2.37532
2.74708
2.94286
3.03457
3.0674
3.06857
3.05361
3.03079
3.00425
2.9758
2.94606
2.9151
2.88276
2.84886
2.81327
2.77574
2.73641
2.68859
-518.372
-490.204
-463.104
-431.253
-390.333
-343.582
-295.469
-251.137
-212.77
-179.832
-150.461
-123.133
-97.5
-74.169
-53.9936
-37.5087
-24.7681
-15.3531
-8.63941
-4.0417
-0.996692
0.945348
2.13056
2.81764
3.19019
3.37314
3.44759
3.4636
3.45026
3.42339
3.3908
3.3559
3.31981
3.28265
3.24415
3.20398
3.16193
3.11769
3.07153
3.01562
-33.9753
-29.3865
-22.501
-11.3945
5.54156
27.1606
49.0425
65.4004
72.043
68.9115
59.1269
46.8146
35.1966
25.8295
18.8917
13.9498
10.5418
8.20975
6.63759
5.60759
4.94712
4.52753
4.26917
4.11216
4.01439
3.94967
3.90261
3.86425
3.82978
3.7963
3.76222
3.72662
3.68895
3.64887
3.60618
3.56075
3.51257
3.46146
3.40796
3.3433
510.654
491.741
476.097
454.038
422.621
385.922
345.634
303.242
260.152
217.88
178.265
142.587
111.639
85.6151
64.3254
47.4311
34.3794
24.6104
17.5422
12.6114
9.30967
7.20004
5.89713
5.12399
4.68469
4.44459
4.31613
4.24449
4.2011
4.1676
4.13539
4.10071
4.06213
4.01927
3.97224
3.92122
3.86646
3.80797
3.74656
3.67251
249.26
239.29
226.262
203.091
171.345
137.357
105.372
77.5995
55.0543
38.2802
27.2469
20.8422
17.3781
15.2932
13.6237
11.9672
10.3803
8.91028
7.65295
6.66349
5.93851
5.43964
5.11308
4.90973
4.78769
4.71489
4.66874
4.63452
4.6035
4.57141
4.53565
4.49532
4.45024
4.4005
4.34627
4.28772
4.22503
4.15813
4.08802
4.00382
-394.182
-372.709
-354.587
-337.17
-316.195
-291.704
-264.336
-236.525
-209.402
-182.361
-154.692
-126.58
-99.2697
-74.3936
-53.1495
-36.0704
-23.066
-13.5553
-6.84671
-2.27228
0.721229
2.60864
3.75733
4.42376
4.78688
4.9668
5.04036
5.05452
5.03647
5.00124
4.95639
4.90556
4.85022
4.79085
4.72748
4.66
4.5883
4.51212
4.43257
4.33741
-420.237
-396.286
-372.299
-342.435
-302.797
-256.591
-208.852
-165.559
-130.589
-104.227
-84.3463
-68.1808
-53.8633
-40.8204
-29.2734
-19.636
-12.024
-6.28212
-2.1252
0.77031
2.70629
3.94737
4.70893
5.15049
5.38549
5.49267
5.52428
5.51302
5.47833
5.43088
5.37603
5.31625
5.25238
5.18458
5.11268
5.03643
4.95559
4.86977
4.78029
4.67343
242.305
235.331
231.581
227.748
223.285
219.512
214.033
203.5
185.985
162.188
135.075
108.118
83.901
63.6708
47.5957
35.3073
26.1587
19.4866
14.7577
11.5131
9.36457
7.99626
7.15248
6.64539
6.34563
6.16713
6.05512
5.97614
5.91174
5.85134
5.78976
5.72466
5.65505
5.5806
5.50117
5.41664
5.32683
5.23132
5.13169
5.01251
518.62
497.926
478.449
449.429
408.227
361.157
312.848
266.574
223.744
184.905
150.43
120.62
95.3975
74.3861
57.1341
43.239
32.3742
24.1565
18.1443
13.9026
11.0412
9.18571
8.02841
7.32765
6.91461
6.67341
6.52781
6.43077
6.35515
6.28629
6.21699
6.14406
6.06618
5.9832
5.89503
5.80156
5.70259
5.59747
5.48793
5.35625
-1.53814
-0.243994
-3.18098
-13.6561
-28.3035
-42.3352
-52.9248
-59.5221
-62.1392
-60.4288
-54.2902
-44.808
-33.8417
-23.2202
-14.1676
-7.15733
-2.10312
1.38742
3.69847
5.17008
6.07441
6.59248
6.86238
6.98646
7.02316
7.00818
6.96341
6.90123
6.82881
6.7499
6.66629
6.57876
6.48766
6.3928
6.29393
6.19066
6.08248
5.96847
5.85062
5.70787
-505.172
-477.32
-451.497
-422.814
-387.09
-346.521
-303.875
-263.198
-226.104
-192.27
-160.525
-130.181
-101.566
-75.6903
-53.5431
-35.6159
-21.8574
-11.8013
-4.70734
0.0960885
3.22721
5.18563
6.34693
6.98719
7.30137
7.42089
7.43215
7.38246
7.30367
7.21134
7.11288
7.0114
6.90778
6.80187
6.69318
6.58109
6.46498
6.34423
6.2224
6.0725
-201.12
-187.882
-173.44
-153.89
-126.57
-93.2743
-58.4278
-27.7098
-5.93711
5.84215
9.73503
9.32438
7.73253
6.60273
6.27542
6.44357
6.84722
7.30105
7.68847
7.97535
8.15063
8.23287
8.24435
8.2057
8.13665
8.0497
7.95172
7.84944
7.74523
7.6399
7.53355
7.42578
7.31605
7.20382
7.08866
6.97018
6.84834
6.72382
6.60569
6.46176
447.832
432.308
420.191
403.638
380.381
353.787
324.053
290.814
254.435
216.245
178.578
143.71
113.129
87.4094
66.5311
50.1352
37.5802
28.2237
21.4619
16.7395
13.5589
11.4907
10.1891
9.38738
8.90306
8.60356
8.40806
8.26586
8.14878
8.0413
7.93537
7.82727
7.71548
7.59958
7.47961
7.35592
7.22929
7.10022
6.9702
6.87166
395.696
378.68
360.014
330.742
290.45
246.61
204.412
166.638
134.058
106.83
84.9728
67.9748
54.8251
44.421
35.9572
29.0148
23.4242
19.0543
15.7578
13.3673
11.7008
10.5847
9.86205
9.4044
9.11356
8.92037
8.77954
8.66416
8.55847
8.45392
8.34639
8.23424
8.11704
7.99492
7.86823
7.73737
7.60295
7.46443
7.3214
7.20826
-250.902
-237.45
-227.88
-221.624
-214.547
-204.641
-191.077
-175.382
-158.615
-140.34
-119.999
-98.0204
-75.8817
-55.3626
-37.7857
-23.7075
-13.0622
-5.35441
0.0433123
3.68737
6.05098
7.52092
8.38383
8.85563
9.07707
9.15077
9.13923
9.07818
8.989
8.88375
8.76878
8.6472
8.52043
8.38911
8.2535
8.11377
7.97014
7.82165
7.66752
7.53926
-491.728
-464.49
-438.05
-406.347
-365.039
-317.14
-267.214
-220.799
-181.252
-148.771
-121.613
-97.7011
-75.883
-56.1381
-39.0077
-24.9644
-14.0941
-6.03887
-0.317936
3.59408
6.16784
7.78507
8.74221
9.25963
9.51101
9.59601
9.58369
9.51652
9.41914
9.30518
9.18162
9.05167
8.91668
8.77715
8.63323
8.48503
8.33275
8.17548
8.01279
7.87292
77.027
77.0991
79.6008
84.7009
93.4574
105.859
118.38
125.867
124.634
114.482
98.3069
80.0859
63.04
48.8415
37.7984
29.5262
23.4799
19.129
16.0603
13.9517
12.543
11.6232
11.03
10.656
10.405
10.2239
10.0798
9.9522
9.82952
9.70554
9.57722
9.44334
9.3036
9.15816
9.00737
8.85169
8.69167
8.52672
8.35681
8.20736
533.333
513.545
496.279
471.005
434.788
392.65
347.604
302.165
257.816
215.72
177.019
142.681
113.164
88.449
68.2372
52.1297
39.6773
30.3407
23.5622
18.8181
15.6289
13.568
12.2856
11.4982
11.0188
10.721
10.5219
10.3706
10.2379
10.1087
9.97583
9.83649
9.69017
9.53728
9.37854
9.21476
9.0468
8.87431
8.69743
8.53901
154.277
148.719
139.274
120.377
94.5857
67.6517
43.2706
23.222
8.30296
-0.908594
-4.51541
-3.84655
-0.818644
2.82329
5.99167
8.28644
9.77433
10.6286
11.0701
11.2683
11.3313
11.3239
11.2806
11.2152
11.1329
11.037
10.9292
10.8101
10.6808
10.5422
10.3956
10.2419
10.0821
9.91694
9.74721
9.57359
9.39675
9.21625
9.03219
8.86487
-448.873
-424.368
-402.695
-380.032
-352.116
-320.031
-285.372
-251.388
-219.173
-188.181
-157.572
-127.289
-98.324
-72.1212
-49.729
-31.6734
-17.8628
-7.75804
-0.626891
4.20709
7.35204
9.29784
10.4331
11.0468
11.3316
11.4131
11.377
11.275
11.1376
10.9816
10.8156
10.6439
10.4683
10.2895
10.108
9.92416
9.73826
9.5497
9.35838
9.1823
-329.081
-309.627
-289.579
-263.512
-227.924
-185.595
-141.536
-101.872
-71.3369
-50.5085
-37.135
-27.941
-20.4063
-13.4526
-7.0687
-1.55922
2.83452
6.15736
8.53478
10.142
11.1605
11.7482
12.0436
12.1479
12.1299
12.0366
11.8999
11.7398
11.5675
11.3888
11.2064
11.0216
10.8346
10.6456
10.4546
10.2619
10.0678
9.87169
9.67345
9.48891
354.839
343.618
335.877
326.203
313.407
299.686
283.412
262.22
235.158
203.293
169.636
137.401
108.81
84.8431
65.5624
50.5728
39.211
30.791
24.7113
20.4467
17.5458
15.6305
14.3803
13.5632
13.0242
12.6523
12.3752
12.1486
11.9463
11.7538
11.5637
11.3725
11.179
10.9829
10.7845
10.5844
10.383
10.18
9.97527
9.78272
487.863
468.23
448.309
417.832
375.521
328.518
281.804
238.222
198.752
163.726
133.501
108.153
87.2158
69.9821
55.8445
44.4052
35.3938
28.4988
23.3956
19.7563
17.2641
15.5972
14.4997
13.7822
13.3051
12.9707
12.7149
12.4984
12.2987
12.1038
11.9083
11.7101
11.5089
11.3049
11.0987
10.8911
10.6827
10.4731
10.2622
10.0621
-128.86
-121.134
-117.742
-119.742
-123.088
-124.751
-123.255
-118.825
-111.648
-100.878
-86.3357
-69.2211
-51.5299
-35.1817
-21.3861
-10.576
-2.56972
3.1476
7.08137
9.68655
11.3351
12.3168
12.8561
13.1059
13.1696
13.1179
12.9966
12.8347
12.6494
12.4512
12.2457
12.036
11.8239
11.6102
11.3955
11.1803
10.9651
10.7493
10.5327
10.3256
-507.913
-480.912
-455.083
-424.379
-384.429
-338.442
-290.942
-247.191
-208.963
-175.489
-145.028
-116.443
-89.6566
-65.3579
-44.4444
-27.4187
-14.312
-4.66623
2.1561
6.77787
9.75311
11.5904
12.6517
13.202
13.4169
13.4326
13.3337
13.172
12.978
12.7685
12.552
12.3327
12.1122
11.8913
11.6701
11.4489
11.2281
11.007
10.7855
10.5721
-48.1618
-43.3392
-36.2981
-24.2538
-5.08906
19.6317
44.6467
63.5706
72.0037
70.2917
62.0116
51.3877
41.4575
33.5426
27.8422
23.8454
21.0705
19.1045
17.6835
16.6432
15.8739
15.3037
14.8643
14.5114
14.2136
13.9504
13.7081
13.4779
13.2539
13.0326
12.8118
12.5904
12.368
12.1445
11.9202
11.6953
11.4705
11.2454
11.0196
10.8008
523.639
505.162
490.266
469.31
439.513
404.57
365.709
323.918
280.533
237.331
196.541
159.817
127.87
100.82
78.5438
60.7647
47.0083
36.6788
29.1756
23.8918
20.3088
17.9238
16.3699
15.3706
14.722
14.2836
13.9636
13.7052
13.4754
13.2565
13.0395
12.8208
12.5992
12.375
12.1486
11.921
11.693
11.4643
11.2351
11.0113
261.325
252.42
240.502
218.466
188.36
155.668
124.127
95.941
72.5631
55.1151
43.5887
36.6938
32.5431
29.5667
26.9033
24.3791
22.0541
20.0364
18.3908
17.1347
16.2394
15.5939
15.1298
14.7892
14.5237
14.2989
14.0922
13.8901
13.6858
13.4763
13.2611
13.0408
12.8163
12.5886
12.3588
12.1278
11.8963
11.6643
11.4317
11.2036
-407.452
-385.001
-365.844
-346.813
-323.511
-296.823
-268.14
-239.568
-211.172
-181.974
-151.654
-121.127
-92.0926
-66.1591
-44.3567
-27.0279
-13.8475
-4.19145
2.63745
7.28717
10.316
12.2212
13.356
13.9632
14.2327
14.2916
14.2235
14.0815
13.8979
13.6913
13.4722
13.2461
13.016
12.7836
12.5496
12.315
12.0802
11.8451
11.6096
11.3776
-392.942
-372.333
-351.168
-323.016
-284.288
-239.173
-194.084
-155.182
-125.054
-101.853
-82.6378
-65.4329
-49.5787
-35.1626
-22.5119
-11.9689
-3.64179
2.63502
7.15123
10.2422
12.2511
13.4973
14.206
14.549
14.6527
14.6099
14.4807
14.3027
14.0982
13.8797
13.6535
13.4231
13.1899
12.9548
12.7185
12.4814
12.2442
12.0066
11.7686
11.5334
278.145
268.515
262.797
257.935
253.126
248.283
239.861
224.478
201.741
174.208
145.618
118.716
94.9402
74.9368
58.8463
46.434
37.149
30.3043
25.3558
21.8704
19.4781
17.8428
16.7344
15.9805
15.4542
15.0675
14.7621
14.5007
14.261
14.0301
13.8011
13.5709
13.3383
13.1032
12.8662
12.6278
12.3888
12.1492
11.9091
11.671
533.637
514.018
495.815
468.094
429.124
384.487
337.654
291.066
246.735
206.308
171.072
140.985
115.17
92.8933
73.9073
58.1781
45.7069
36.2147
29.2584
24.3505
20.969
18.7022
17.2194
16.26
15.6323
15.203
14.8845
14.623
14.3871
14.16
13.9334
13.7041
13.4712
13.2351
12.9965
12.7562
12.5152
12.2735
12.0314
11.7908
-69.9293
-61.7653
-57.4923
-59.6002
-64.6894
-70.468
-74.844
-76.3634
-73.8894
-66.557
-55.0118
-41.1177
-27.1284
-14.8555
-5.17812
1.92043
6.8145
10.0874
12.2282
13.5863
14.414
14.8855
15.1181
15.1908
15.1565
15.0509
14.898
14.714
14.5094
14.2912
14.0639
13.8305
13.593
13.3527
13.1106
12.8674
12.6239
12.38
12.1359
11.893
-529.083
-501.105
-474.792
-444.313
-405.469
-361.926
-318.003
-277.14
-239.278
-203.191
-168.115
-134.395
-103.06
-75.2121
-51.5272
-32.3857
-17.6038
-6.60954
1.25622
6.64929
10.236
12.5195
13.8789
14.6178
14.9543
15.0399
14.9759
14.8266
14.6306
14.41
14.1769
13.9375
13.6949
13.4506
13.2054
12.9597
12.7141
12.4683
12.2226
11.9778
-117.274
-110.29
-100.88
-85.7791
-63.6527
-37.9472
-14.5071
1.44614
8.67033
10.3288
9.84646
9.17098
8.894
9.18667
10.0602
11.2924
12.612
13.7888
14.6936
15.3058
15.66
15.823
15.8423
15.7594
15.6091
15.4173
15.2016
14.973
14.7376
14.4986
14.2573
14.0144
13.7702
13.5249
13.2788
13.0321
12.7853
12.5384
12.2914
12.0453
503.924
484.76
470.076
451.19
424.819
393.134
356.229
315.002
272.247
230.948
193.24
159.588
129.578
103.278
81.0353
63.0688
49.1726
38.7725
31.2199
25.903
22.2346
19.7493
18.0946
16.9992
16.2653
15.7547
15.3757
15.0698
14.8019
14.5516
14.308
14.0659
13.823
13.5785
13.3327
13.0858
12.8385
12.5907
12.3429
12.0958
355.266
343.808
331.184
309.123
278.128
242.86
206.766
172.44
142.068
117.565
99.1362
85.2026
73.6283
63.0018
53.0133
44.0354
36.4526
30.3913
25.7865
22.4464
20.0778
18.4359
17.3188
16.5599
16.0321
15.6448
15.3373
15.0713
14.8244
14.5844
14.3454
14.1048
13.8619
13.617
13.3704
13.1228
12.8747
12.6261
12.3776
12.1297
-354.474
-331.719
-312.405
-294.833
-275.012
-253.547
-230.697
-206.836
-181.524
-154.4
-126.063
-97.9843
-71.9628
-49.4633
-31.1883
-17.0974
-6.61487
0.96961
6.29907
9.89813
12.2632
13.7539
14.6322
15.0926
15.2785
15.2893
15.1917
15.029
14.8284
14.6062
14.372
14.1311
13.8865
13.6397
13.3917
13.143
12.8941
12.6448
12.3956
12.1473
-463.705
-439.386
-415.339
-385.669
-347.359
-305.173
-263.951
-226.932
-193.99
-163.441
-134.398
-107.078
-82.0932
-59.963
-41.0176
-25.4445
-13.1859
-3.88586
2.89839
7.64934
10.8703
12.9473
14.2054
14.8884
15.1957
15.2665
15.1942
15.0393
14.8389
14.6145
14.3779
14.1352
13.8895
13.6423
13.3941
13.1453
12.8962
12.6466
12.3971
12.1487
152.968
147.156
144.92
144.824
145.458
145.138
140.401
129.509
114.039
97.4624
82.0173
68.1754
55.9033
45.4475
37.1154
30.9173
26.4473
23.2743
21.0252
19.428
18.2811
17.4491
16.8319
16.3567
15.9745
15.6516
15.3653
15.1006
14.8481
14.6015
14.3574
14.1137
13.8693
13.624
13.3775
13.1299
12.8816
12.6323
12.3826
12.1345
562.667
539.964
520.951
495.169
458.725
415.439
367.808
319.219
273.372
232.507
196.91
165.277
136.414
110.156
87.1973
68.1165
53.0582
41.6219
33.2535
27.312
23.1685
20.349
18.468
17.2243
16.3963
15.8282
15.4154
15.0907
14.8132
14.5588
14.3144
14.0732
13.832
13.5895
13.3453
13.0994
12.8521
12.6032
12.3537
12.1061
146.426
145.953
143.309
132.838
115.85
95.4637
75.0238
57.1667
43.9775
36.551
33.9895
33.981
34.1956
33.3101
31.198
28.4354
25.6122
23.0779
20.9926
19.3887
18.1778
17.2888
16.6378
16.1539
15.7802
15.4746
15.2081
14.962
14.725
14.4911
14.2569
14.0212
13.7832
13.5429
13.3003
13.0557
12.8093
12.5607
12.3113
12.0639
-478.587
-449.217
-422.652
-395.33
-363.212
-328.603
-293.242
-258.188
-223.411
-188.755
-154.483
-121.698
-91.7668
-65.8036
-44.3436
-27.3465
-14.332
-4.65157
2.31738
7.16413
10.4307
12.5369
13.8161
14.528
14.8655
14.9653
14.9199
14.7896
14.6102
14.4041
14.1835
13.9546
13.7206
13.4831
13.2425
12.9993
12.7538
12.5055
12.2559
12.0084
-344.5
-326.077
-307.182
-283.543
-253.383
-220.792
-189.445
-161.631
-136.936
-114.072
-92.6215
-72.8901
-55.2051
-39.6723
-26.3229
-15.2395
-6.36474
0.479125
5.53298
9.12654
11.5837
13.1751
14.1338
14.6514
14.8754
14.9126
14.836
14.6927
14.5114
14.3086
14.0935
13.8706
13.6421
13.409
13.1719
12.931
12.6867
12.4385
12.1882
11.9404
290.21
277.094
267.832
258.176
244.878
228.04
207.051
183.346
159.457
137.43
117.435
98.7906
81.3614
65.7549
52.6455
42.3048
34.4625
28.6319
24.3911
21.3724
19.2462
17.7691
16.7518
16.0466
15.5497
15.1828
14.8935
14.6475
14.4231
14.2072
13.9925
13.775
13.5527
13.3251
13.092
12.8535
12.6102
12.3617
12.1098
11.8611
539.191
516.499
496.586
469.17
430.361
384.742
336.229
289.35
247.658
212.098
181.424
153.568
127.387
103.188
81.8065
63.9393
49.7781
39.0596
31.2303
25.6581
21.7921
19.1812
17.4636
16.35
15.6264
15.1437
14.802
14.5372
14.3103
14.0989
13.8906
13.6795
13.4626
13.2389
13.0083
12.7711
12.5276
12.2774
12.0228
11.7722
29.0529
35.0608
38.1479
33.8882
23.9277
11.1784
-0.624091
-8.77246
-11.8046
-9.68862
-4.18388
2.28043
7.7912
11.5251
13.6172
14.6336
15.0548
15.1911
15.2169
15.1886
15.1385
15.0735
14.9939
14.8984
14.7858
14.6561
14.5103
14.3498
14.1762
13.991
13.7954
13.5903
13.3764
13.1542
12.924
12.6862
12.4412
12.188
11.9293
11.6758
-522.492
-490.096
-460.174
-428.857
-392.357
-353.534
-314.261
-275.553
-237.508
-200.115
-163.844
-129.691
-98.8428
-72.1807
-50.0077
-32.2385
-18.4263
-8.00294
-0.385504
5.02035
8.7261
11.1601
12.6788
13.5644
14.0294
14.2251
14.2544
14.1839
14.0544
13.8899
13.7037
13.5028
13.2907
13.0689
12.8384
12.5993
12.3521
12.0952
11.8314
11.5748
-262.814
-249.347
-234.857
-216.43
-193.377
-168.674
-144.549
-122.475
-102.239
-83.6288
-66.7505
-51.6619
-38.2437
-26.3965
-16.2387
-7.81802
-1.10202
4.02072
7.74351
10.342
12.0878
13.1958
13.8466
14.1848
14.3186
14.3234
14.2491
14.1265
13.9738
13.8009
13.6132
13.4132
13.2022
12.9811
12.7503
12.5102
12.2608
12.0006
11.7321
11.4735
376.772
358.002
342.932
325.099
300.104
270.65
239.603
210.109
184.007
160.675
138.409
116.421
95.391
76.5755
60.885
48.401
38.7293
31.4209
26.0505
22.1925
19.4736
17.6055
16.3514
15.5215
14.9711
14.5954
14.3218
14.1023
13.907
13.7181
13.5258
13.3253
13.1145
12.8928
12.6607
12.4187
12.1673
11.9048
11.6345
11.3793
489.74
471.031
454.33
428.863
390.753
345.493
299.094
257.493
223.306
195.042
169.466
144.216
119.173
95.6369
75.1125
58.3091
45.2351
35.4522
28.3853
23.4117
20.0163
17.7732
16.3335
15.4272
14.8571
14.4862
14.2245
14.0161
13.8281
13.6425
13.4502
13.2474
13.0329
12.8068
12.5699
12.3234
12.0687
11.8045
11.5371
11.2939
-143.786
-129.428
-118.176
-111.578
-107.699
-104.825
-99.9157
-90.6187
-76.2844
-58.4163
-40.2771
-24.8404
-13.3935
-5.56916
-0.303614
3.44289
6.30473
8.56519
10.2987
11.6078
12.5696
13.2416
13.6795
13.9349
14.0524
14.0686
14.0118
13.9029
13.7567
13.5834
13.3895
13.1792
12.9554
12.7198
12.4738
12.2188
11.9567
11.6863
11.4222
11.207
-547.887
-517.355
-489.215
-458.869
-423.798
-386.266
-346.938
-306.29
-264.4
-222.012
-180.597
-142.097
-107.996
-79.0003
-55.1355
-36.0342
-21.1718
-9.96474
-1.7785
4.04492
8.03326
10.6463
12.272
13.217
13.711
13.9168
13.9443
13.8643
13.7204
13.5379
13.3309
13.1073
12.8707
12.6233
12.3662
12.1003
11.8266
11.5415
11.2605
10.9838
-49.5433
-49.6822
-49.4583
-49.432
-50.5698
-51.7135
-51.429
-48.7907
-44.188
-38.3421
-31.6047
-24.2537
-16.6916
-9.45644
-3.02544
2.29902
6.47181
9.54707
11.6941
13.0545
13.8776
14.321
14.5041
14.5206
14.436
14.2927
14.1157
13.9187
13.7083
13.4875
13.2571
13.0174
12.7685
12.5103
12.2431
11.9672
11.6829
11.3849
11.0852
10.7879
510.503
487.816
467.972
441.071
402.704
359.271
316.438
277.691
243.081
210.645
179.032
148.667
120.727
96.321
75.9715
59.6212
46.8606
37.1635
29.9999
24.8523
21.2139
18.7038
17.0097
15.8796
15.1227
14.601
14.2196
13.916
13.651
13.4014
13.1541
12.9026
12.6435
12.3758
12.0991
11.8135
11.5191
11.2105
10.8991
10.5913
322.99
315.165
307.194
290.722
264.244
234.2
206.878
186.165
171.368
158.553
143.873
125.916
105.829
85.9496
68.1076
53.3536
41.8233
33.1817
26.9325
22.5389
19.5209
17.5034
16.182
15.3212
14.7488
14.3461
14.0356
13.7698
13.5212
13.2748
13.0236
12.7642
12.4959
12.2185
11.9324
11.638
11.3355
11.0196
10.7014
10.3881
-374.601
-350.484
-329.754
-309.769
-287.448
-262.338
-233.09
-199.27
-162.057
-124.335
-90.1336
-62.4614
-41.9514
-27.2969
-16.6098
-8.4706
-2.13859
2.75786
6.44291
9.11346
10.9959
12.2634
13.0634
13.5195
13.7303
13.7711
13.6971
13.5473
13.3483
13.1172
12.8648
12.5976
12.3194
12.0324
11.7378
11.4362
11.1281
10.8082
10.4872
10.1712
-441.453
-419.852
-400.608
-380.259
-356.785
-330.908
-302.294
-270.985
-237.478
-202.873
-168.674
-136
-105.963
-79.2767
-56.3219
-37.2748
-22.0841
-10.491
-2.06002
3.84497
7.86017
10.468
12.066
12.9694
13.4123
13.5607
13.527
13.3842
13.1775
12.9339
12.6686
12.39
12.1024
11.8078
11.5074
11.2017
10.8911
10.5703
10.2495
9.93317
188.417
177.773
166.942
151.218
128.539
103.414
80.0733
60.4058
44.4737
32.0979
23.2624
17.6091
14.6605
13.7763
14.0418
14.6934
15.2767
15.6144
15.7207
15.6435
15.4287
15.1455
14.8309
14.5075
14.1882
13.8781
13.5776
13.2845
12.9957
12.7083
12.4201
12.1294
11.8353
11.5372
11.2351
10.929
10.6193
10.3006
9.98259
9.66794
546.379
524.26
504.897
478.016
439.763
396.792
353.627
312.503
273.536
236.069
200.079
166.168
135.415
108.523
85.8589
67.3702
52.6922
41.391
32.9397
26.768
22.343
19.2397
17.1068
15.656
14.6649
13.9706
13.4599
13.0572
12.7143
12.4021
12.1035
11.8094
11.515
11.2182
10.9183
10.6152
10.3093
9.99526
9.68223
9.37118
150.884
150.407
148.91
142.362
131.548
121.725
116.312
115.985
117.894
117.69
112.422
101.741
87.4988
72.3637
58.3882
46.5772
37.2485
30.1212
24.8427
21.0486
18.3655
16.5047
15.2301
14.3533
13.7337
13.272
12.902
12.5816
12.2856
11.9995
11.7157
11.4305
11.1424
10.8508
10.556
10.2584
9.95869
9.65153
9.34547
9.0399
-471.984
-444.097
-419.397
-393.628
-363.05
-327.454
-286.83
-242.618
-197.525
-154.846
-117.717
-87.5534
-64.017
-45.7028
-31.141
-19.4144
-10.1675
-3.08802
2.12529
5.83272
8.39686
10.0975
11.1632
11.7756
12.0728
12.1568
12.101
11.9557
11.7546
11.5192
11.2629
10.9937
10.7162
10.4332
10.1464
9.85686
9.56559
9.26744
8.97032
8.67218
-349.438
-331.482
-315.989
-301.322
-285.271
-267.512
-246.889
-223.377
-197.976
-172.376
-147.243
-122.733
-99.0148
-76.5317
-56.0342
-38.3219
-23.8483
-12.616
-4.34559
1.50706
5.50628
8.14304
9.79902
10.77
11.2786
11.4848
11.4992
11.3953
11.22
11.0025
10.7601
10.5028
10.2365
9.96427
9.68813
9.40933
9.12896
8.84202
8.55579
8.26709
251.181
238.7
225.478
205.47
177.008
145.724
116.251
90.7442
69.4248
52.2764
38.9241
29.182
22.91
19.3504
17.4918
16.4597
15.7107
15.0168
14.3654
13.7694
13.2372
12.7755
12.3801
12.0387
11.7374
11.4633
11.206
10.9574
10.7117
10.4654
10.2163
9.9635
9.70677
9.44638
9.18289
8.91698
8.64953
8.37568
8.10208
7.8247
530.716
508.383
488.781
462.761
426.492
385.8
344.176
303.524
264.397
226.93
191.526
158.742
129.162
103.386
81.6529
63.835
49.6069
38.5292
30.1698
24.0171
19.6012
16.4969
14.364
12.9217
11.9486
11.2814
10.8049
10.4418
10.1421
9.87536
9.62376
9.37755
9.13179
8.88437
8.63466
8.38281
8.12948
7.86998
7.61032
7.34587
124.159
123.522
122.82
119.27
113.651
110.024
109.935
112.287
114.04
111.996
104.546
92.6047
78.4342
64.2761
51.5765
40.96
32.547
26.0654
21.2065
17.6605
15.1283
13.3594
12.1418
11.305
10.7198
10.2931
9.96172
9.68473
9.43664
9.20229
8.97309
8.74448
8.51428
8.28171
8.0467
7.80962
7.57114
7.32684
7.08211
6.83197
-471.558
-443.852
-418.927
-392.176
-359.463
-320.895
-277.425
-231.712
-187.292
-147.473
-114.04
-87.2374
-65.9894
-48.8012
-34.5886
-22.8831
-13.5961
-6.48998
-1.26898
2.44213
5.00387
6.70527
7.78135
8.41532
8.74498
8.87105
8.86476
8.77478
8.6332
8.46035
8.26865
8.06538
7.85476
7.63924
7.42032
7.19902
6.97627
6.74803
6.51914
6.28459
-357.268
-337.496
-320.366
-304.44
-286.994
-267.676
-245.492
-220.97
-195.656
-171.097
-147.366
-124.11
-101.191
-79.1056
-58.8305
-41.3285
-27.0955
-16.0991
-7.99368
-2.22706
1.72349
4.34813
6.02615
7.04197
7.60981
7.88382
7.97055
7.94101
7.84084
7.69847
7.53103
7.34854
7.15676
6.95901
6.75729
6.55287
6.34682
6.13553
5.92336
5.70558
221.452
210.362
197.837
178.001
150.116
120.166
92.7682
69.762
51.0857
36.3342
25.0971
17.4382
13.0341
11.0095
10.3125
10.106
9.932
9.65225
9.31218
8.96309
8.64651
8.36472
8.12579
7.9225
7.74339
7.57899
7.42155
7.26549
7.10729
6.94494
6.77756
6.60507
6.42783
6.24649
6.06182
5.87461
5.68573
5.49194
5.29714
5.09708
528.307
505.268
484.816
457.768
420.262
378.035
334.605
292.179
251.771
213.898
178.785
146.704
118.172
93.5979
73.0272
56.2258
42.8301
32.4179
24.5517
18.7899
14.6798
11.8297
9.89696
8.61432
7.77349
7.21932
6.84287
6.57128
6.35798
6.1746
6.00475
5.83953
5.67453
5.5079
5.33916
5.16849
4.99649
4.82021
4.64303
4.46141
146.817
144.648
143.114
139.357
133.862
130.28
129.335
129.25
126.992
120.036
108.02
92.6564
76.3332
61.0004
47.7293
36.851
28.3214
21.7748
16.8765
13.3153
10.7899
9.04408
7.86207
7.0707
6.53824
6.17031
5.90267
5.69338
5.51618
5.35528
5.20161
5.05026
4.89882
4.74631
4.59248
4.4375
4.28184
4.12285
3.9634
3.80078
-465.035
-437.427
-412.132
-384.449
-350.146
-309.594
-264.352
-217.763
-173.867
-135.808
-104.988
-80.9793
-62.1776
-46.9179
-34.1978
-23.6809
-15.3569
-9.01361
-4.35792
-1.06774
1.20265
2.71693
3.68239
4.26052
4.5733
4.70997
4.73374
4.68781
4.60048
4.48938
4.36505
4.2335
4.09802
3.96042
3.82168
3.68239
3.54309
3.40154
3.26009
3.11709
-374.11
-353.353
-335.434
-318.681
-300.043
-279.096
-255.033
-228.786
-202.26
-176.919
-152.59
-128.775
-105.351
-82.8563
-62.3795
-44.8715
-30.7611
-19.9364
-11.9731
-6.33267
-2.45834
0.10783
1.74913
2.75269
3.32638
3.62003
3.73763
3.7485
3.69707
3.61068
3.50545
3.39049
3.27073
3.14881
3.02611
2.90337
2.78114
2.6576
2.53474
2.41212
200.861
190.243
177.546
157.085
128.748
99.0034
72.4677
50.6915
33.4056
20.1452
10.5181
4.64466
2.01341
1.57492
2.18387
2.99593
3.59633
3.89736
3.98076
3.93289
3.82328
3.69724
3.55804
3.42183
3.29452
3.17511
3.06167
2.95216
2.84487
2.73852
2.63237
2.52613
2.41975
2.31343
2.20743
2.10203
1.99761
1.89279
1.78917
1.68776
525.583
502.436
481.674
453.982
415.506
372.207
327.736
284.462
243.525
205.455
170.43
138.623
110.539
86.4968
66.4604
50.1409
37.1425
27.041
19.4039
13.8078
9.82301
7.06393
5.20779
3.9844
3.19207
2.68355
2.35396
2.13222
1.97314
1.84818
1.74116
1.6432
1.54973
1.45866
1.36922
1.28124
1.19491
1.10922
1.02539
0.946021
158.444
156.068
154.42
150.28
144.132
139.668
137.592
136.148
132.353
123.776
110.202
93.4196
75.8391
59.4351
45.291
33.724
24.653
17.7306
12.5595
8.80485
6.16113
4.35109
3.14344
2.35354
1.84205
1.51186
1.29282
1.13582
1.01461
0.914071
0.824885
0.742091
0.663273
0.587382
0.514054
0.443207
0.374972
0.308718
0.245202
0.188666
-462.88
-435.564
-410.666
-383.622
-350.166
-310.457
-265.69
-219.041
-174.636
-135.946
-104.79
-80.9749
-62.8592
-48.5548
-36.8052
-27.0968
-19.3404
-13.3939
-8.99328
-5.8347
-3.64155
-2.16004
-1.19152
-0.587937
-0.234258
-0.0533028
0.017319
0.0243246
-0.00606686
-0.0566247
-0.11652
-0.179433
-0.241853
-0.301935
-0.358783
-0.412056
-0.461593
-0.507658
-0.550001
-0.582653
-386.23
-365.599
-347.827
-331.082
-312.351
-291.257
-266.99
-240.338
-213.081
-186.825
-161.658
-137.282
-113.459
-90.6668
-69.8568
-51.9443
-37.4031
-26.1772
-17.8617
-11.9312
-7.83875
-5.10082
-3.33335
-2.24103
-1.59748
-1.24351
-1.07115
-1.00704
-1.00388
-1.0324
-1.07522
-1.12256
-1.16919
-1.21252
-1.2514
-1.28551
-1.3148
-1.3392
-1.35899
-1.36637
180.806
170.477
158.054
138.371
111.216
82.9678
58.0691
37.8274
21.7546
9.32073
0.253919
-5.15186
-7.24427
-7.01932
-5.66796
-4.12819
-2.89274
-2.09341
-1.66059
-1.4638
-1.40323
-1.4259
-1.48906
-1.56529
-1.65024
-1.73476
-1.81343
-1.88434
-1.94702
-2.00159
-2.04836
-2.08769
-2.11991
-2.14531
-2.1642
-2.17695
-2.18391
-2.18472
-2.18022
-2.16068
517.399
494.368
473.528
445.65
406.996
363.963
320.373
278.515
239.004
202.068
167.772
136.294
108.208
83.9626
63.6291
46.9832
33.6631
23.2552
15.3371
9.49038
5.30208
2.38584
0.408462
-0.897781
-1.73932
-2.26962
-2.59842
-2.80059
-2.92493
-3.00182
-3.04937
-3.07795
-3.09328
-3.09846
-3.09517
-3.08446
-3.06703
-3.04227
-3.01163
-2.96343
182.697
179.813
177.076
170.349
160
150.669
144.18
139.7
134.474
125.748
112.382
95.5193
77.3602
59.9752
44.6961
32.0436
22.0369
14.3921
8.68461
4.5253
1.5767
-0.449879
-1.79315
-2.67173
-3.23532
-3.58967
-3.80906
-3.943
-4.02299
-4.06831
-4.09036
-4.09572
-4.08814
-4.06978
-4.04198
-4.00577
-3.96196
-3.90961
-3.8509
-3.7722
-457.979
-431.504
-407.874
-382.905
-352.582
-316.576
-275.271
-230.842
-186.728
-146.694
-113.375
-87.5977
-68.3249
-53.65
-41.9674
-32.4326
-24.778
-18.8667
-14.4613
-11.2908
-9.08104
-7.58939
-6.62316
-6.01056
-5.63636
-5.42274
-5.30689
-5.24657
-5.21401
-5.19177
-5.16951
-5.1416
-5.10528