/*--------------------------------*- C++ -*----------------------------------*\
  =========                 |
  \\      /  F ield         | OpenFOAM: The Open Source CFD Toolbox
   \\    /   O peration     | Website:  https://openfoam.org
    \\  /    A nd           | Version:  7
     \\/     M anipulation  |
\*---------------------------------------------------------------------------*/
FoamFile
{
    version     2.0;
    format      ascii;
    class       surfaceScalarField;
    location    "58.999724";
    object      phi;
}
// * * * * * * * * * * * * * * * * * * * * * * * * * * * * * * * * * * * * * //

dimensions      [0 3 -1 0 0 0 0];

internalField   nonuniform List<scalar> 
46020
(
-3.81031e-06
3.79262e-06
1.76895e-08
-1.43294e-05
1.04651e-05
5.40176e-08
-3.12308e-05
1.68076e-05
9.37482e-08
-5.41675e-05
2.28004e-05
1.3629e-07
-8.27794e-05
2.84309e-05
1.81046e-07
-0.000116716
3.3709e-05
2.27708e-07
-0.000155658
3.8665e-05
2.76461e-07
-0.000199333
4.33469e-05
3.28162e-07
-0.000247531
4.78139e-05
3.84393e-07
-0.000300104
5.2126e-05
4.47354e-07
-0.000356953
5.6329e-05
5.19624e-07
-0.000417996
6.04398e-05
6.03816e-07
-0.00048313
6.44314e-05
7.02222e-07
-0.000552171
6.82244e-05
8.16438e-07
-0.000624811
7.16935e-05
9.46937e-07
-0.000700604
7.47004e-05
1.09255e-06
-0.000779019
7.71652e-05
1.24946e-06
-0.000859819
7.93908e-05
1.40963e-06
-0.000943493
8.21127e-05
1.56114e-06
8.54801e-05
1.68202e-06
-0.00103066
-3.74016e-06
7.53278e-06
-1.40768e-05
2.08017e-05
-3.06936e-05
3.34244e-05
-5.32487e-05
4.53555e-05
-8.13812e-05
5.65634e-05
-0.000114734
6.70621e-05
-0.000152976
7.69062e-05
-0.000195815
8.61864e-05
-0.000243018
9.50165e-05
-0.000294403
0.000103512
-0.000349835
0.000111761
-0.000409188
0.000119793
-0.000472306
0.00012755
-0.000538948
0.000134866
-0.000608728
0.000141474
-0.000681094
0.000147066
-0.000755325
0.000151397
-0.000830868
0.000154933
-0.000908159
0.000159404
0.000163251
-0.00098593
-3.60266e-06
1.11354e-05
-1.35807e-05
3.07798e-05
-2.96373e-05
4.9481e-05
-5.1439e-05
6.71572e-05
-7.86232e-05
8.37476e-05
-0.00011082
9.92584e-05
-0.00014767
0.000113757
-0.000188848
0.000127364
-0.000234067
0.000140235
-0.000283084
0.000152528
-0.000335683
0.00016436
-0.000391652
0.000175761
-0.000450729
0.000186628
-0.000512551
0.000196687
-0.000576579
0.000205501
-0.000642056
0.000212543
-0.000707912
0.000217254
-0.000772899
0.000219921
-0.000837605
0.000224109
0.000222318
-0.000896672
-3.40408e-06
1.45395e-05
-1.28621e-05
4.02378e-05
-2.8103e-05
6.47219e-05
-4.88036e-05
8.78578e-05
-7.45962e-05
0.00010954
-0.000105089
0.000129751
-0.000139886
0.000148554
-0.000178602
0.00016608
-0.000220873
0.000182507
-0.000266361
0.000198016
-0.000314731
0.00021273
-0.00036563
0.00022666
-0.000418635
0.000239633
-0.000473194
0.000251246
-0.000528531
0.000260839
-0.000583596
0.000267608
-0.000636871
0.000270529
-0.000685906
0.000268955
-0.000732086
0.00027029
0.000253601
-0.000763369
-3.15344e-06
1.7693e-05
-1.19511e-05
4.90355e-05
-2.61501e-05
7.89209e-05
-4.54363e-05
0.000107144
-6.94317e-05
0.000133536
-9.77134e-05
0.000158033
-0.000129831
0.000180671
-0.000165322
0.000201571
-0.00020372
0.000220905
-0.00024455
0.000238846
-0.000287319
0.000255499
-0.000331476
0.000270817
-0.000376371
0.000284529
-0.000421184
0.000296058
-0.000464813
0.000304467
-0.000505814
0.000308609
-0.000542238
0.000306954
-0.000569705
0.000296422
-0.000591425
0.00029201
0.000248479
-0.000586303
-2.86205e-06
2.0555e-05
-1.08854e-05
5.70588e-05
-2.38535e-05
9.1889e-05
-4.14558e-05
0.000124746
-6.32957e-05
0.000155376
-8.89073e-05
0.000183645
-0.00011777
0.000209535
-0.000149323
0.000233123
-0.000182965
0.000254547
-0.000218052
0.000273934
-0.000253879
0.000291325
-0.000289639
0.000306577
-0.000324376
0.000319266
-0.000356909
0.000328591
-0.000385696
0.000333255
-0.000408754
0.000331666
-0.000423877
0.000322078
-0.000423911
0.000296456
-0.000414411
0.00028251
0.00019938
-0.000365313
-2.54287e-06
2.30979e-05
-9.7085e-06
6.42245e-05
-2.12992e-05
0.00010348
-3.69987e-05
0.000140446
-5.63803e-05
0.000174757
-7.89206e-05
0.000206185
-0.000104011
0.000234625
-0.000130967
0.000260079
-0.000159025
0.000282604
-0.00018733
0.000302239
-0.000214911
0.000318906
-0.000240636
0.000332301
-0.00026315
0.00034178
-0.000280799
0.00034624
-0.000291466
0.000343922
-0.000292351
0.000332551
-0.000281243
0.00031097
-0.000248126
0.000263338
-0.000197851
0.000232235
0.000102807
-0.000101277
-2.20984e-06
2.53077e-05
-8.46706e-06
7.04817e-05
-1.858e-05
0.000113593
-3.22127e-05
0.000154079
-4.8893e-05
0.000191437
-6.80227e-05
0.000225315
-8.88852e-05
0.000255488
-0.000110646
0.000281841
-0.000132346
0.000304304
-0.000152875
0.000322768
-0.000170938
0.000336969
-0.000184995
0.000346358
-0.000193189
0.000349974
-0.000193255
0.000346306
-0.000182376
0.000333043
-0.000156493
0.000306668
-0.000112724
0.000267201
-4.34548e-05
0.000194069
6.1296e-05
0.000127485
-5.20427e-05
0.000216145
-1.87703e-06
2.71848e-05
-7.20824e-06
7.58129e-05
-1.57896e-05
0.000122174
-2.72468e-05
0.000165536
-4.10431e-05
0.000205234
-5.64852e-05
0.000240757
-7.27242e-05
0.000271727
-8.87486e-05
0.000297865
-0.000103364
0.000318919
-0.000115156
0.000334561
-0.000122438
0.000344251
-0.000123175
0.000347095
-0.000114882
0.000341681
-9.45041e-05
0.000325929
-5.83594e-05
0.000296898
-2.31071e-06
0.000250619
8.22674e-05
0.000182623
0.000200753
7.55834e-05
0.000355308
-2.70706e-05
-0.000287078
0.000590343
-1.55778e-06
2.87425e-05
-5.97653e-06
8.02316e-05
-1.30162e-05
0.000129214
-2.2241e-05
0.000174761
-3.30266e-05
0.000216019
-4.45599e-05
0.00025229
-5.58323e-05
0.000282999
-6.5621e-05
0.000307654
-7.24537e-05
0.000325752
-7.45544e-05
0.000336661
-6.97666e-05
0.000339463
-5.54508e-05
0.000332779
-2.83538e-05
0.000314584
1.5544e-05
0.000282031
8.12328e-05
0.000231209
0.000175266
0.000156586
0.000303576
5.43131e-05
0.000481525
-0.000102366
0.0007008
-0.000246346
-0.000611546
0.00102527
-1.26376e-06
3.00063e-05
-4.81051e-06
8.37784e-05
-1.03357e-05
0.000134739
-1.73147e-05
0.00018174
-2.50079e-05
0.000223713
-3.24538e-05
0.000259736
-3.84509e-05
0.000288996
-4.15242e-05
0.000310727
-3.98712e-05
0.000324099
-3.12836e-05
0.000328074
-1.30416e-05
0.000321221
1.82238e-05
0.000301514
6.67024e-05
0.000266105
0.000137605
0.000211129
0.000237315
0.000131498
0.000374208
1.96934e-05
0.000556324
-0.000127802
0.000801536
-0.000347579
0.00109984
-0.000544653
-0.00103714
0.00152544
-1.00403e-06
3.10103e-05
-3.73949e-06
8.65138e-05
-7.80452e-06
0.000138804
-1.25542e-05
0.000186489
-1.71018e-05
0.00022826
-2.03025e-05
0.000262936
-2.07213e-05
0.000289415
-1.65805e-05
0.000306586
-5.6816e-06
0.0003132
1.47035e-05
0.000307689
4.79738e-05
0.000287951
9.83761e-05
0.000251111
0.000171221
0.00019326
0.000273132
0.000109219
0.000412162
-7.53241e-06
0.000598416
-0.000166561
0.000843331
-0.000372717
0.00116393
-0.000668176
0.00155406
-0.000934781
-0.00157232
0.00208924
-7.84139e-07
3.17945e-05
-2.7803e-06
8.851e-05
-5.45282e-06
0.000141476
-8.00113e-06
0.000189038
-9.35425e-06
0.000229613
-8.1419e-06
0.000261724
-2.64574e-06
0.000283919
9.27834e-06
0.000294662
3.03098e-05
0.000292169
6.38057e-05
0.000274193
0.000113985
0.000237772
0.000186146
0.00017895
0.000286921
9.24851e-05
0.000424546
-2.84054e-05
0.000608959
-0.000191946
0.000851565
-0.000409167
0.00116799
-0.000689144
0.00157064
-0.00107082
0.00206137
-0.00142551
-0.00221599
0.00270504
-6.05361e-07
3.23998e-05
-1.93444e-06
8.98391e-05
-3.27827e-06
0.00014282
-3.64135e-06
0.000189401
-1.7237e-06
0.000227696
4.11615e-06
0.000255884
1.59461e-05
0.000272089
3.63591e-05
0.000274249
6.86186e-05
0.000259909
0.000116846
0.000225966
0.000186244
0.000168373
0.000283353
8.18404e-05
0.000416302
-4.04636e-05
0.00059504
-0.000207144
0.000831433
-0.000428338
0.00113748
-0.00071521
0.00153201
-0.00108368
0.00202021
-0.00155902
0.00261285
-0.00201815
-0.00295128
0.00334814
-4.64073e-07
3.28639e-05
-1.18606e-06
9.05611e-05
-1.24087e-06
0.000142875
6.059e-07
0.000187554
5.92362e-06
0.000222378
1.67011e-05
0.000245107
3.54269e-05
0.000253363
6.52407e-05
0.000244435
0.000110119
0.00021503
0.000175104
0.000160981
0.000266559
7.6919e-05
0.000392428
-4.40286e-05
0.000562432
-0.000210468
0.000788108
-0.00043282
0.00108279
-0.000723025
0.00145836
-0.00109077
0.0019329
-0.00155822
0.00250408
-0.0021302
0.00318862
-0.00270269
-0.00374327
0.00398062
-3.51559e-07
3.32155e-05
-5.00303e-07
9.07098e-05
7.36289e-07
0.000141638
4.87535e-06
0.000183415
1.38331e-05
0.00021342
2.99985e-05
0.000228941
5.63791e-05
0.000226983
9.67819e-05
0.000204032
0.000156042
0.000155771
0.000240282
7.67405e-05
0.000357178
-3.99769e-05
0.000516159
-0.00020301
0.00072843
-0.000422739
0.00100662
-0.000711005
0.00136423
-0.00108064
0.00181211
-0.00153865
0.00236154
-0.00210766
0.00300366
-0.00277232
0.00375558
-0.00345462
-0.00454439
0.0045567
-2.5415e-07
3.34696e-05
1.76039e-07
9.02796e-05
2.76639e-06
0.000139048
9.38821e-06
0.000176793
2.23507e-05
0.000200458
4.4538e-05
0.000206754
7.95833e-05
0.000191937
0.000132093
0.000151523
0.000207907
7.99564e-05
0.00031437
-2.97222e-05
0.000460538
-0.000186145
0.000657215
-0.000399687
0.000916626
-0.00068215
0.00125146
-0.00104584
0.00167319
-0.00150237
0.00218978
-0.00205524
0.00280028
-0.00271816
0.00349037
-0.0034624
0.00427052
-0.00423477
-0.00530582
0.00503195
-1.54256e-07
3.36239e-05
9.00075e-07
8.92253e-05
5.00327e-06
0.000134945
1.44108e-05
0.000167385
3.19096e-05
0.000182959
6.0973e-05
0.000177691
0.000105977
0.000146933
0.00017246
8.50406e-05
0.000267393
-1.49765e-05
0.000399405
-0.000161735
0.000578838
-0.000365578
0.000817446
-0.000638295
0.0011275
-0.000992204
0.00152005
-0.00143838
0.00200183
-0.00198416
0.0025747
-0.00262811
0.0032235
-0.00336696
0.00392967
-0.00416858
0.00469018
-0.00499528
-0.00598943
0.00537379
-3.01465e-08
3.3654e-05
1.76572e-06
8.74294e-05
7.62266e-06
0.000129088
2.02556e-05
0.000154752
4.30058e-05
0.000160209
8.00366e-05
0.00014066
0.000136583
9.03865e-05
0.000219224
2.39959e-06
0.000336128
-0.000131881
0.000497128
-0.000322735
0.000713488
-0.000581938
0.000997062
-0.000921869
0.0013586
-0.00135374
0.00180517
-0.00188495
0.00233626
-0.00251525
0.00294409
-0.00323593
0.00360177
-0.00402463
0.00428831
-0.00485511
0.00498404
-0.00569102
-0.0065753
0.00556992
1.46031e-07
3.3508e-05
2.85563e-06
8.47198e-05
1.08138e-05
0.00012113
2.72565e-05
0.00013831
5.61622e-05
0.000131303
0.000102481
9.43407e-05
0.000172405
2.0463e-05
0.000273619
-9.88144e-05
0.000415422
-0.000273684
0.000608564
-0.000515877
0.000864505
-0.000837878
0.00119385
-0.00125121
0.00160376
-0.00176365
0.00209478
-0.00237598
0.00265745
-0.00307791
0.00327298
-0.00385147
0.00390885
-0.0046605
0.00454284
-0.00548911
0.00514145
-0.00628962
-0.00707395
0.00564009
3.92829e-07
3.31151e-05
4.25669e-06
8.0856e-05
1.47664e-05
0.00011062
3.57437e-05
0.000117333
7.18835e-05
9.51631e-05
0.000129006
3.72179e-05
0.000214317
-6.48472e-05
0.000336569
-0.000221067
0.000505974
-0.000443089
0.000733599
-0.000743502
0.00102997
-0.00113424
0.00140264
-0.00162388
0.00185298
-0.002214
0.00237309
-0.00289609
0.00294435
-0.00364918
0.00353953
-0.00444664
0.00412762
-0.00524859
0.00468704
-0.00604853
0.00518543
-0.00678802
-0.00753908
0.00565056
7.35858e-07
3.23793e-05
6.0516e-06
7.55402e-05
1.96566e-05
9.70151e-05
4.60169e-05
9.09722e-05
9.06106e-05
5.05695e-05
0.000160179
-3.2351e-05
0.000262927
-0.000167595
0.000408512
-0.000366651
0.000607591
-0.000642168
0.000870629
-0.00100654
0.00120569
-0.00146931
0.00161533
-0.00203352
0.00209333
-0.00269199
0.00262292
-0.00342569
0.00317844
-0.0042047
0.00372989
-0.00499809
0.00425282
-0.00577152
0.00472857
-0.00652427
0.00515771
-0.00721715
-0.00793829
0.00555691
1.19453e-06
3.11848e-05
8.31165e-06
6.84231e-05
2.56336e-05
7.96931e-05
5.83204e-05
5.82854e-05
0.000112676
-3.78614e-06
0.000196364
-0.000116039
0.000318473
-0.000289704
0.000489219
-0.000537397
0.00071898
-0.000871929
0.00101637
-0.00130393
0.00138528
-0.00183822
0.00182155
-0.0024698
0.00231077
-0.00318121
0.00282898
-0.0039439
0.00334766
-0.00472338
0.00384029
-0.00549073
0.00429106
-0.00622228
0.00469324
-0.00692646
0.00505766
-0.00758157
-0.00827383
0.0053932
1.78462e-06
2.94001e-05
1.10926e-05
5.91151e-05
3.28097e-05
5.79761e-05
7.2822e-05
1.82731e-05
0.000138268
-6.92318e-05
0.000237657
-0.000215429
0.00038072
-0.000432767
0.000577679
-0.000734356
0.000837634
-0.00113188
0.00116589
-0.00163218
0.00156058
-0.00223291
0.00201002
-0.00291924
0.00249262
-0.00366381
0.00298081
-0.00443208
0.00344818
-0.00519076
0.00387595
-0.00591849
0.00425847
-0.0066048
0.00459835
-0.00726634
0.00491097
-0.00789418
-0.00857
0.00520713
2.51757e-06
2.68826e-05
1.44326e-05
4.72001e-05
4.12533e-05
3.11554e-05
8.96002e-05
-3.00738e-05
0.000167401
-0.000147032
0.000283848
-0.000331876
0.000448908
-0.000597827
0.000672043
-0.000957491
0.000959878
-0.00141972
0.00131296
-0.00198526
0.00172268
-0.00264264
0.00217029
-0.00336684
0.00262977
-0.00412329
0.0030743
-0.00487661
0.00348367
-0.00560013
0.00384847
-0.00628329
0.00417168
-0.00692801
0.00446182
-0.00755649
0.00473589
-0.00816825
-0.00883585
0.00500174
3.40056e-06
2.3482e-05
1.83514e-05
3.22493e-05
5.09859e-05
-1.47914e-06
0.000108633
-8.77208e-05
0.000199901
-0.0002383
0.000334385
-0.00046636
0.000521721
-0.000785163
0.000769657
-0.00120543
0.00108108
-0.00173114
0.00145069
-0.00235487
0.00186308
-0.00305504
0.0022944
-0.00379816
0.00271791
-0.00454679
0.00311138
-0.00527008
0.00346282
-0.00595156
0.00377143
-0.00659191
0.004046
-0.00720258
0.00429772
-0.00780821
0.00454217
-0.00841269
-0.00907792
0.00478423
4.43685e-06
1.90451e-05
2.28504e-05
1.38358e-05
6.19802e-05
-4.06089e-05
0.000129794
-0.000155534
0.000235393
-0.0003439
0.000388373
-0.000619339
0.000597311
-0.000994102
0.000867188
-0.0014753
0.00119604
-0.00205999
0.0015723
-0.00273112
0.00197495
-0.00345769
0.00237798
-0.00420119
0.00275752
-0.00492633
0.00309832
-0.00561088
0.00339651
-0.00624975
0.00365772
-0.00685312
0.00389364
-0.00743851
0.00411558
-0.00803015
0.00433661
-0.00863372
-0.00930039
0.00455908
5.62613e-06
1.3419e-05
2.79131e-05
-8.45125e-06
7.41591e-05
-8.68549e-05
0.000152849
-0.000234224
0.000273302
-0.000464354
0.000444582
-0.000790619
0.000673371
-0.00122289
0.000960852
-0.00176279
0.00129953
-0.00239867
0.00167205
-0.00310364
0.00205398
-0.00383963
0.00242036
-0.00456757
0.00275279
-0.00525876
0.00304357
-0.00590167
0.00329548
-0.00650166
0.00351803
-0.00707566
0.00372346
-0.00764393
0.00392175
-0.00822845
0.00412321
-0.00883518
-0.00950524
0.00432806
6.96461e-06
6.45441e-06
3.35048e-05
-3.49914e-05
8.7395e-05
-0.000140745
0.000177454
-0.000324283
0.000312852
-0.000599752
0.000501484
-0.00097925
0.000747254
-0.00146866
0.00104674
-0.00206227
0.00138687
-0.0027388
0.0017459
-0.00346267
0.00209867
-0.0041924
0.00242396
-0.00489286
0.00271004
-0.00554484
0.00295598
-0.0061476
0.0031691
-0.00671478
0.00336052
-0.00726707
0.00354152
-0.00782494
0.00372022
-0.00840714
0.00390428
-0.00901925
-0.0096936
0.00409264
8.44459e-06
-1.99018e-06
3.95711e-05
-6.61179e-05
0.000101508
-0.000202682
0.000203159
-0.000425934
0.000353086
-0.00074968
0.000557314
-0.00118348
0.000816167
-0.00172751
0.0011212
-0.00236731
0.00145444
-0.00307204
0.00179182
-0.00380004
0.00211004
-0.00451061
0.00239328
-0.0051761
0.00263637
-0.00578793
0.0028436
-0.00635483
0.0030248
-0.00689598
0.00319101
-0.00743329
0.00335183
-0.00798576
0.00351339
-0.0085687
0.00368125
-0.00918711
-0.00986593
0.00385358
1.00538e-05
-1.2044e-05
4.6037e-05
-0.000102101
0.000116263
-0.000272907
0.000229406
-0.000539078
0.000392895
-0.000913168
0.000610173
-0.00140076
0.000877387
-0.00199473
0.00118118
-0.00267111
0.00150003
-0.00339089
0.00180979
-0.0041098
0.00209098
-0.00479181
0.00233377
-0.00541889
0.0025386
-0.00599276
0.00271318
-0.00652941
0.00286816
-0.00705096
0.00301353
-0.00757866
0.00315691
-0.00812914
0.00330276
-0.00871455
0.00345499
-0.00933934
-0.0100224
0.00361145
1.17757e-05
-2.38197e-05
5.28052e-05
-0.000143131
0.000131373
-0.000351475
0.00025555
-0.000663255
0.000431063
-0.00108868
0.00065815
-0.00162784
0.000928502
-0.00226508
0.00122452
-0.00296713
0.00152288
-0.00368924
0.00180138
-0.00438831
0.0020455
-0.00503592
0.00225105
-0.00562444
0.0024227
-0.00616441
0.00256998
-0.00667669
0.00270319
-0.00718417
0.00283073
-0.0077062
0.00295839
-0.0082568
0.00308928
-0.00884544
0.00322611
-0.00947616
-0.010163
0.0033667
1.35871e-05
-3.74067e-05
5.97558e-05
-0.000189299
0.000146501
-0.00043822
0.000280873
-0.000797627
0.000466338
-0.00127415
0.000699466
-0.00186097
0.000967618
-0.00253323
0.00125009
-0.0032496
0.00152356
-0.00396272
0.00176929
-0.00463404
0.001978
-0.00524462
0.00215028
-0.00579672
0.0022936
-0.00630773
0.00241799
-0.00680108
0.00253266
-0.00729884
0.00264436
-0.00781789
0.0027573
-0.00836974
0.00287359
-0.00896174
0.00299508
-0.00959765
-0.0102876
0.00311973
1.54588e-05
-5.28656e-05
6.67471e-05
-0.000240587
0.000161274
-0.000532747
0.000304624
-0.000940977
0.000497511
-0.00146703
0.000732612
-0.00209607
0.00099349
-0.00279411
0.00125773
-0.00351384
0.00150365
-0.00420863
0.0017168
-0.00484719
0.00189282
-0.00542064
0.00203595
-0.00593985
0.00215514
-0.00642693
0.00226006
-0.006906
0.00235848
-0.00739726
0.00245559
-0.007915
0.00255435
-0.00846851
0.00265619
-0.00906357
0.00276231
-0.00970378
-0.0103962
0.00287091
1.7356e-05
-7.02216e-05
7.36198e-05
-0.000296851
0.000175289
-0.000634416
0.000326052
-0.00109174
0.00052349
-0.00166447
0.000756453
-0.00232904
0.00100557
-0.00304323
0.00124817
-0.00375644
0.0014654
-0.00442586
0.00164736
-0.00502915
0.00179389
-0.00556717
0.00191172
-0.00605768
0.00201027
-0.00652548
0.00209824
-0.00699397
0.00218194
-0.00748096
0.0022652
-0.00799826
0.00235006
-0.00855337
0.00243745
-0.00915096
0.00252816
-0.00979448
-0.0104887
0.0026206
1.92388e-05
-8.94603e-05
8.02021e-05
-0.000357815
0.000188141
-0.000742355
0.000344455
-0.00124805
0.000543384
-0.0018634
0.000770298
-0.00255595
0.00100396
-0.00327689
0.00122275
-0.00397523
0.00141139
-0.0046145
0.00156429
-0.00518205
0.00168461
-0.00568749
0.00178051
-0.00615359
0.00186115
-0.00660611
0.00193398
-0.0070668
0.00200394
-0.00755092
0.00207377
-0.0080681
0.00214484
-0.00862444
0.00221776
-0.00922388
0.00229298
-0.00986971
-0.0105648
0.00236916
2.10633e-05
-0.000110524
8.63171e-05
-0.000423068
0.000199437
-0.000855475
0.000359222
-0.00140784
0.000556547
-0.00206072
0.000773903
-0.00277331
0.000989322
-0.00349231
0.00118325
-0.00416916
0.00134427
-0.00477551
0.00147059
-0.00530838
0.00156778
-0.00578467
0.00164456
-0.00623037
0.00170934
-0.00667089
0.00176829
-0.00712575
0.00182511
-0.00760774
0.00188174
-0.00812472
0.00193905
-0.00868175
0.00199744
-0.00928226
0.00205712
-0.00992939
-0.0106247
0.00211694
2.27838e-05
-0.000133307
9.17906e-05
-0.000492075
0.00020882
-0.000972504
0.000369863
-0.00156888
0.000562611
-0.00225347
0.000767442
-0.00297814
0.000962712
-0.00368758
0.00113164
-0.00433809
0.00126657
-0.00491044
0.00136889
-0.0054107
0.00144566
-0.00586144
0.00150557
-0.00629029
0.00155601
-0.00672133
0.00160189
-0.00717163
0.00164595
-0.0076518
0.00168947
-0.00816825
0.00173301
-0.00872529
0.00177681
-0.00932606
0.0018209
-0.00997348
-0.0106681
0.00186431
2.43544e-05
-0.000157662
9.64597e-05
-0.00056418
0.000215989
-0.00109203
0.00037604
-0.00172893
0.000561485
-0.00243892
0.000751431
-0.00316808
0.000925455
-0.0038616
0.00106991
-0.00448254
0.00118061
-0.00502115
0.00126136
-0.00549144
0.00132003
-0.00592011
0.00136482
-0.00633508
0.00140198
-0.00675849
0.00143534
-0.00720499
0.00146683
-0.00768328
0.00149728
-0.00819871
0.00152703
-0.00875504
0.0015562
-0.00935523
0.00158468
-0.010002
-0.010695
0.00161165
2.57311e-05
-0.000183393
0.00010018
-0.00063863
0.000220709
-0.00121256
0.000377574
-0.0018858
0.000553327
-0.00261467
0.000726648
-0.0033414
0.000879006
-0.00401396
0.000999977
-0.00460351
0.0010884
-0.00510957
0.00114979
-0.00555283
0.00119227
-0.00596259
0.00122324
-0.00636606
0.00124788
-0.00678313
0.00126905
-0.00722616
0.00128807
-0.00770231
0.00130548
-0.00821611
0.00132141
-0.00877098
0.00133592
-0.00936974
0.00134878
-0.0100148
-0.0107056
0.00135933
2.68735e-05
-0.000210266
0.000102833
-0.000714589
0.000222825
-0.00133255
0.000374439
-0.00203741
0.000538506
-0.00277874
0.000694038
-0.00349694
0.000824845
-0.00414477
0.000923614
-0.00470228
0.000991668
-0.00517763
0.00103563
-0.00559679
0.00106342
-0.00599038
0.00108156
-0.0063842
0.00109417
-0.00679574
0.00110336
-0.00723535
0.00110999
-0.00770893
0.00111433
-0.00822045
0.00111644
-0.00877308
0.00111627
-0.00936957
0.00111356
-0.0100121
-0.0106998
0.00110778
2.77467e-05
-0.000238013
0.00010433
-0.000791173
0.00022226
-0.00145048
0.000366756
-0.00218191
0.000517552
-0.00292953
0.000654638
-0.00363402
0.000764402
-0.00425453
0.000842383
-0.00478026
0.000891846
-0.00522709
0.000920004
-0.00562495
0.00093431
-0.00600469
0.000940316
-0.0063902
0.000941244
-0.00679667
0.000938578
-0.00723268
0.000932834
-0.00770319
0.000924123
-0.00821174
0.000912382
-0.00876134
0.000897531
-0.00935472
0.000879314
-0.00999389
-0.0106777
0.000857196
2.83225e-05
-0.000266336
0.000104614
-0.000867465
0.000219018
-0.00156489
0.000354761
-0.00231765
0.000491103
-0.00306588
0.000609507
-0.00375243
0.000699004
-0.00434403
0.00075764
-0.0048389
0.000790113
-0.00525956
0.000803819
-0.00563865
0.000805549
-0.00600642
0.000799927
-0.00638458
0.000789398
-0.00678614
0.000774962
-0.00721825
0.000756877
-0.0076851
0.000735118
-0.00818998
0.000709539
-0.00873576
0.00067999
-0.00932517
0.000646265
-0.00996016
-0.0106393
0.000607832
2.858e-05
-0.000294916
0.000103662
-0.000942547
0.000213173
-0.0016744
0.000338786
-0.00244327
0.00045986
-0.00318695
0.000559678
-0.00385224
0.000629848
-0.0044142
0.000670535
-0.00487958
0.000687422
-0.00527645
0.000687774
-0.00563901
0.000677622
-0.00599627
0.000660731
-0.00636769
0.000638901
-0.00676431
0.000612757
-0.0071921
0.000582364
-0.00765471
0.000547584
-0.00815521
0.000508211
-0.00869639
0.000464016
-0.00928098
0.000414627
-0.00991077
-0.0105844
0.0003598
2.85065e-05
-0.000323422
0.00010148
-0.00101552
0.000204857
-0.00177778
0.000319228
-0.00255764
0.000424542
-0.00329226
0.000506122
-0.00393382
0.000557987
-0.00446606
0.000582031
-0.00490363
0.000584536
-0.00527895
0.000572414
-0.00562688
0.000550905
-0.00597476
0.000523006
-0.00633979
0.00048999
-0.00673129
0.000452193
-0.0071543
0.000409537
-0.00761206
0.000361783
-0.00810745
0.00030866
-0.00864327
0.000250012
-0.00922233
0.000185037
-0.0098458
-0.0105121
0.000112711
2.80971e-05
-0.000351519
9.81056e-05
-0.00108553
0.000194256
-0.00187393
0.000296524
-0.0026599
0.00038586
-0.0033816
0.000449728
-0.00399769
0.000484331
-0.00450067
0.000492923
-0.00491222
0.000482066
-0.0052681
0.000458171
-0.00560299
0.000425703
-0.00594229
0.00038699
-0.00630108
0.000342885
-0.00668719
0.000293492
-0.00710491
0.000238615
-0.00755718
0.000177979
-0.00804682
0.000111069
-0.00857636
3.7696e-05
-0.00914896
-4.12259e-05
-0.00976687
-0.0104226
-0.000130771
2.73545e-05
-0.000378874
9.35995e-05
-0.00115177
0.000181587
-0.00196191
0.000271127
-0.00274944
0.000344492
-0.00345496
0.000391291
-0.00404449
0.000409656
-0.00451903
0.00040386
-0.00490643
0.000380495
-0.00524473
0.000345385
-0.00556788
0.000302267
-0.00589917
0.000252894
-0.00625171
0.000197778
-0.00663207
0.000136859
-0.00704399
6.97451e-05
-0.00749006
-3.95047e-06
-0.00797312
-8.41001e-05
-0.00849621
-0.000171313
-0.00906174
-0.000266797
-0.00967139
-0.0103189
-0.000370454
2.62881e-05
-0.000405162
8.80426e-05
-0.00121353
0.000167091
-0.00204096
0.000243489
-0.00282584
0.000301065
-0.00351254
0.000331509
-0.00407494
0.000334612
-0.00452213
0.000315369
-0.00488718
0.000280209
-0.00520957
0.000234331
-0.005522
0.000180798
-0.00584564
0.00012091
-0.00619182
5.47685e-05
-0.00656593
-1.76946e-05
-0.00697153
-9.65877e-05
-0.00741117
-0.000182636
-0.00788707
-0.00027641
-0.00840243
-0.000377992
-0.00896016
-0.000488552
-0.00956083
-0.0101999
-0.000607576
2.49135e-05
-0.000430075
8.15306e-05
-0.00127015
0.00015102
-0.00211045
0.000214049
-0.00288887
0.000256152
-0.00355464
0.000270989
-0.00408977
0.000259742
-0.00451089
0.000227874
-0.00485531
0.000181517
-0.00516322
0.000125244
-0.00546573
6.14187e-05
-0.00578181
-9.06817e-06
-0.00612133
-8.57178e-05
-0.00648928
-0.000169279
-0.00688797
-0.000260249
-0.0073202
-0.000358957
-0.00778836
-0.000465987
-0.0082954
-0.000581776
-0.00884437
-0.000707021
-0.00943559
-0.0100654
-0.000841556
2.32509e-05
-0.000453326
7.41695e-05
-0.00132106
0.000133628
-0.00216991
0.000183217
-0.00293846
0.000210265
-0.00358169
0.00021025
-0.00408976
0.000185494
-0.00448613
0.000141716
-0.00481154
8.46637e-05
-0.00510616
1.81467e-05
-0.00539921
-5.55464e-05
-0.00570812
-0.000136006
-0.00604087
-0.000223566
-0.00640172
-0.000318415
-0.00679312
-0.000421163
-0.00721745
-0.000532331
-0.0076772
-0.000652493
-0.00817524
-0.000782239
-0.00871463
-0.000922047
-0.00929578
-0.00991551
-0.0010719
2.13247e-05
-0.000474651
6.60715e-05
-0.00136581
0.000115167
-0.00221901
0.000151378
-0.00297467
0.000163856
-0.00359417
0.000149731
-0.00407563
0.000112238
-0.00444864
5.71594e-05
-0.00475646
-1.02885e-05
-0.00503871
-8.63468e-05
-0.00532315
-0.000169929
-0.00562454
-0.000260627
-0.00595017
-0.00035875
-0.0063036
-0.00046471
-0.00668716
-0.000579089
-0.00710307
-0.000702519
-0.00755377
-0.000835645
-0.00804211
-0.000979131
-0.00857114
-0.00113338
-0.00914153
-0.00975059
-0.0012983
1.91625e-05
-0.000493813
5.73519e-05
-0.001404
9.58756e-05
-0.00225753
0.000118881
-0.00299768
0.00011732
-0.00359261
8.98039e-05
-0.00404812
4.02794e-05
-0.00439911
-2.55341e-05
-0.00469064
-0.000102664
-0.00496158
-0.000188471
-0.00523735
-0.000281775
-0.00553124
-0.000382517
-0.00584943
-0.000491073
-0.00619504
-0.000607966
-0.00657027
-0.000733815
-0.00697723
-0.000869309
-0.00741827
-0.00101518
-0.00789624
-0.0011722
-0.00841413
-0.00134071
-0.00897301
-0.00957087
-0.00152043
1.67955e-05
-0.000510609
4.81257e-05
-0.00143533
7.59856e-05
-0.00228539
8.6044e-05
-0.00300773
7.09984e-05
-0.00357756
3.08135e-05
-0.00400793
-3.01232e-05
-0.00433818
-0.000106126
-0.00461464
-0.000192874
-0.00487484
-0.000288061
-0.00514216
-0.000390909
-0.00542839
-0.000501525
-0.00573882
-0.000620365
-0.0060762
-0.000748018
-0.00644261
-0.000885146
-0.0068401
-0.00103249
-0.00727093
-0.00119088
-0.00773786
-0.00136118
-0.00824383
-0.00154377
-0.00879042
-0.00937663
-0.00173801
1.42592e-05
-0.000524868
3.85049e-05
-0.00145958
5.57141e-05
-0.0023026
5.31517e-05
-0.00300517
2.52821e-05
-0.00354969
-2.70525e-05
-0.0039556
-9.88047e-05
-0.00426642
-0.000184607
-0.00452884
-0.000280629
-0.00477881
-0.000384985
-0.00503781
-0.0004972
-0.00531617
-0.000617521
-0.0056185
-0.000746474
-0.00594725
-0.000884698
-0.00630439
-0.0010329
-0.0066919
-0.00119186
-0.00711196
-0.0013625
-0.00756722
-0.00154583
-0.00806049
-0.00174228
-0.00859397
-0.00916817
-0.00195074
1.16029e-05
-0.000536471
2.86172e-05
-0.00147659
3.52609e-05
-0.00230924
2.05532e-05
-0.00299046
-1.97828e-05
-0.00350936
-8.36068e-05
-0.00389177
-0.00016562
-0.00418441
-0.000260813
-0.00443364
-0.000365818
-0.00467381
-0.000479137
-0.00492449
-0.000600535
-0.00519477
-0.000730377
-0.00548865
-0.000869254
-0.00580837
-0.00101785
-0.0061558
-0.0011769
-0.00653284
-0.00134723
-0.00694163
-0.00152984
-0.00738461
-0.00172594
-0.0078644
-0.00193599
-0.00838392
-0.00894588
-0.00215827
8.88423e-06
-0.000545355
1.85732e-05
-0.00148628
1.48532e-05
-0.00230552
-1.17147e-05
-0.0029639
-6.40938e-05
-0.00345698
-0.000138667
-0.0038172
-0.000230428
-0.00409265
-0.000334637
-0.00432944
-0.000448352
-0.00456009
-0.00057042
-0.00480242
-0.000700805
-0.00506439
-0.000839973
-0.00534949
-0.000988565
-0.00565978
-0.00114731
-0.00599706
-0.00131697
-0.00636318
-0.00149842
-0.00676018
-0.00169271
-0.00719032
-0.00190124
-0.00765587
-0.00212459
-0.00816056
-0.00871017
-0.0023603
6.05616e-06
-0.000551411
8.41287e-06
-0.00148864
-5.33285e-06
-0.00229178
-4.39111e-05
-0.00292532
-0.000107262
-0.00339363
-0.000192072
-0.00373239
-0.000293119
-0.0039916
-0.000405989
-0.00421657
-0.000528149
-0.00443793
-0.000658745
-0.00467182
-0.00079791
-0.00492522
-0.000946188
-0.00520121
-0.00110427
-0.00550169
-0.00127293
-0.0058284
-0.00145296
-0.00618314
-0.00164524
-0.0065679
-0.0018509
-0.00698467
-0.00207148
-0.00743528
-0.00230781
-0.00792423
-0.00846099
-0.002557
3.10066e-06
-0.000554512
-1.63408e-06
-0.0014839
-2.60338e-05
-0.00226738
-7.52326e-05
-0.00287612
-0.000149178
-0.00331968
-0.000243702
-0.00363787
-0.000353598
-0.00388171
-0.000474794
-0.00409537
-0.000605135
-0.00430759
-0.00074403
-0.00453293
-0.000891749
-0.00477751
-0.00104891
-0.00504405
-0.00121625
-0.00533435
-0.00139457
-0.00565008
-0.00158471
-0.00599301
-0.00178757
-0.00636504
-0.00200431
-0.00676793
-0.00223653
-0.00720306
-0.00248545
-0.00767531
-0.00819829
-0.00274815
-2.92502e-07
-0.00055422
-1.21562e-05
-0.00147204
-4.6043e-05
-0.00223349
-0.000105701
-0.00281646
-0.000189718
-0.00323566
-0.000293456
-0.00353413
-0.000411788
-0.00376338
-0.000540987
-0.00396617
-0.000679244
-0.00416934
-0.000826195
-0.00438598
-0.000982228
-0.00462147
-0.00114802
-0.00487825
-0.00132436
-0.00515801
-0.00151208
-0.00546236
-0.00171206
-0.00579303
-0.00192526
-0.00615184
-0.00215291
-0.00654029
-0.00239646
-0.0069595
-0.00265653
-0.00741524
-0.00792339
-0.00293142
-3.043e-06
-0.000551177
-2.23005e-05
-0.00145278
-6.5548e-05
-0.00219024
-0.000135207
-0.0027468
-0.000228784
-0.00314209
-0.000341256
-0.00342166
-0.000467626
-0.00363701
-0.000604509
-0.00382929
-0.00075041
-0.00402343
-0.000905164
-0.00423122
-0.00106926
-0.00445738
-0.00124342
-0.00470409
-0.00142848
-0.00497295
-0.00162531
-0.00526552
-0.00183484
-0.0055835
-0.00205814
-0.00592855
-0.00229648
-0.00630194
-0.00255121
-0.00670478
-0.00282414
-0.00714231
-0.00764419
-0.00310334
-6.00926e-06
-0.000545167
-3.22207e-05
-0.00142657
-8.44971e-05
-0.00213797
-0.000163674
-0.00266763
-0.000266296
-0.00303946
-0.000387036
-0.00330092
-0.000521059
-0.00350298
-0.000665309
-0.00368504
-0.000818577
-0.00387017
-0.000980864
-0.00406893
-0.00115274
-0.0042855
-0.00133499
-0.00452184
-0.00152848
-0.00477946
-0.00173412
-0.00505989
-0.00195289