/*--------------------------------*- C++ -*----------------------------------*\
  =========                 |
  \\      /  F ield         | OpenFOAM: The Open Source CFD Toolbox
   \\    /   O peration     | Website:  https://openfoam.org
    \\  /    A nd           | Version:  7
     \\/     M anipulation  |
\*---------------------------------------------------------------------------*/
FoamFile
{
    version     2.0;
    format      ascii;
    class       volScalarField;
    location    "99.000384";
    object      p;
}
// * * * * * * * * * * * * * * * * * * * * * * * * * * * * * * * * * * * * * //

dimensions      [0 2 -2 0 0 0 0];

internalField   nonuniform List<scalar> 
5800
(
-0.239785
-0.244144
-0.248762
-0.253573
-0.258467
0.000237777
-0.000163361
-0.000559505
-0.000949739
-0.00133312
-0.00170869
-0.00207546
-0.00243238
-0.00277838
-0.00311231
-0.00343303
-0.00373931
-0.00402993
-0.00430362
-0.0045591
-0.00479506
-0.00501021
-0.00520321
-0.00537278
-0.00551761
-0.00563647
-0.00572813
-0.00579144
-0.00582533
-0.0058288
-0.00580098
-0.00574113
-0.00564866
-0.00552317
-0.00536445
-0.0051725
-0.0049475
-0.00469018
-0.00440148
-0.00408261
-0.00373519
-0.0033612
-0.00296311
-0.00254374
-0.00210655
-0.00165523
-0.00119428
-0.000728242
-0.000262701
0.000197123
0.0006445
0.00107388
0.00147735
0.00184957
0.0021817
0.00246983
0.00270359
0.00288165
0.00299217
0.00303831
0.00300667
0.00290628
0.00272214
0.00247217
0.00213965
0.00175188
0.00129263
0.000796648
0.000252594
0.00014801
-0.000254327
-0.000651615
-0.00104292
-0.0014273
-0.00180379
-0.00217138
-0.00252904
-0.00287564
-0.00321007
-0.00353112
-0.0038376
-0.00412826
-0.00440182
-0.00465698
-0.00489244
-0.00510687
-0.00529895
-0.00546736
-0.00561081
-0.00572803
-0.00581779
-0.00587894
-0.00591038
-0.00591113
-0.00588029
-0.00581712
-0.00572103
-0.00559162
-0.00542872
-0.00523247
-0.0050024
-0.00473993
-0.00444585
-0.00412133
-0.00376802
-0.00338791
-0.00298351
-0.00255769
-0.00211394
-0.001656
-0.00118843
-0.000715821
-0.000243852
0.000222214
0.000675527
0.00111051
0.00151909
0.00189593
0.00223199
0.00252342
0.00275952
0.00293919
0.00305012
0.00309593
0.00306239
0.00295974
0.00277132
0.00251693
0.00217775
0.0017836
0.00131546
0.000811498
0.000256986
-2.44481e-05
-0.000429547
-0.000829414
-0.0012231
-0.00160966
-0.00198813
-0.00235751
-0.00271671
-0.00306462
-0.00340008
-0.0037219
-0.00402883
-0.00431961
-0.00459295
-0.00484754
-0.00508204
-0.00529511
-0.00548541
-0.00565159
-0.00579234
-0.00590638
-0.00599246
-0.0060494
-0.0060761
-0.00607153
-0.00603481
-0.00596517
-0.005862
-0.00572486
-0.0055535
-0.00534781
-0.00510898
-0.00483676
-0.00453224
-0.00419672
-0.00383191
-0.00343987
-0.00302317
-0.00258475
-0.00212818
-0.00165732
-0.00117682
-0.000691396
-0.000206863
0.000271374
0.000736298
0.00118218
0.00160076
0.00198658
0.00233037
0.00262815
0.00286893
0.00305162
0.00316352
0.00320845
0.00317167
0.00306391
0.00286789
0.00260401
0.00225273
0.00184504
0.00136085
0.000839955
0.000266431
-0.000278126
-0.00068719
-0.00109076
-0.00148785
-0.00187753
-0.00225885
-0.00263077
-0.00299219
-0.00334195
-0.00367889
-0.00400176
-0.00430931
-0.00460024
-0.00487324
-0.00512696
-0.00536003
-0.00557108
-0.00575874
-0.00592164
-0.00605843
-0.0061678
-0.00624847
-0.00629924
-0.00631896
-0.00630662
-0.00626128
-0.00618216
-0.00606865
-0.0059203
-0.00573692
-0.00551855
-0.00526565
-0.00497874
-0.00465878
-0.00430706
-0.00392534
-0.00351576
-0.00308099
-0.00262406
-0.00214868
-0.00165883
-0.00115933
-0.000655068
-0.000152071
0.000344054
0.000826041
0.00128793
0.00172115
0.00212021
0.00247536
0.00278246
0.0030301
0.00321717
0.00333051
0.0033741
0.00333228
0.00321738
0.00301009
0.00273216
0.00236314
0.00193538
0.00142781
0.000881731
0.000280622
-0.000609082
-0.00102335
-0.00143177
-0.00183333
-0.00222711
-0.00261216
-0.00298742
-0.00335174
-0.00370395
-0.00404281
-0.00436708
-0.00467544
-0.00496658
-0.00523914
-0.00549172
-0.00572293
-0.00593135
-0.00611557
-0.00627419
-0.0064058
-0.00650907
-0.00658268
-0.00662539
-0.00663602
-0.00661351
-0.00655692
-0.00646543
-0.00633842
-0.00617543
-0.00597624
-0.00574097
-0.00547001
-0.00516394
-0.00482375
-0.00445082
-0.00404697
-0.00361443
-0.00315599
-0.00267481
-0.00217477
-0.00166003
-0.00113563
-0.000606692
-7.94924e-05
0.000440079
0.000944435
0.00142729
0.00187957
0.00229612
0.00266615
0.00298542
0.003242
0.00343479
0.00354999
0.00359181
0.00354406
0.00341926
0.00319695
0.00290044
0.00250816
0.00205401
0.00151581
0.000936604
0.000299375
-0.00101523
-0.00143589
-0.00185027
-0.00225732
-0.00265614
-0.00304576
-0.0034251
-0.00379299
-0.00414817
-0.0044894
-0.00481536
-0.00512471
-0.00541609
-0.00568809
-0.00593927
-0.00616818
-0.00637336
-0.00655336
-0.0067067
-0.00683197
-0.00692774
-0.00699268
-0.00702548
-0.00702495
-0.00698996
-0.00691955
-0.00681287
-0.00666928
-0.0064883
-0.00626966
-0.0060136
-0.00572044
-0.00539083
-0.00502577
-0.00462673
-0.00419564
-0.00373483
-0.00324723
-0.00273619
-0.00220578
-0.00166038
-0.00110529
-0.00054592
1.11177e-05
0.000559598
0.00109154
0.00160031
0.00207648
0.00251423
0.00290248
0.00323666
0.00350422
0.00370398
0.0038214
0.00386099
0.00380579
0.00366913
0.00342788
0.00310832
0.00268735
0.00220056
0.00162458
0.00100443
0.000322615
-0.00149486
-0.00192305
-0.00234445
-0.00275796
-0.0031627
-0.0035577
-0.00394185
-0.00431391
-0.00467259
-0.00501658
-0.00534452
-0.00565502
-0.00594666
-0.00621798
-0.00646748
-0.00669367
-0.00689502
-0.00707001
-0.00721713
-0.00733489
-0.00742182
-0.00747651
-0.00749762
-0.00748389
-0.00743417
-0.00734743
-0.0072228
-0.00705958
-0.00685731
-0.00661581
-0.00633515
-0.0060157
-0.00565817
-0.00526367
-0.00483372
-0.00437034
-0.00387603
-0.00335388
-0.00280743
-0.00224099
-0.00165921
-0.00106771
-0.000472233
0.00012022
0.000703015
0.0012677
0.00180725
0.00231175
0.00277465
0.00318446
0.00353626
0.00381678
0.0040247
0.00414461
0.00418133
0.004117
0.00396721
0.00370247
0.00335558
0.00290053
0.00237492
0.00175405
0.00108515
0.000350325
-0.00204664
-0.00248347
-0.00291291
-0.00333382
-0.00374533
-0.00414649
-0.00453614
-0.00491297
-0.00527565
-0.00562278
-0.00595297
-0.00626477
-0.00655668
-0.0068272
-0.00707476
-0.0072978
-0.00749473
-0.00766395
-0.00780391
-0.00791302
-0.00798977
-0.00803268
-0.00804034
-0.00801143
-0.00794475
-0.00783922
-0.00769392
-0.00750814
-0.00728138
-0.00701341
-0.00670441
-0.0063547
-0.00596501
-0.00553653
-0.00507088
-0.00457024
-0.00403723
-0.00347515
-0.00288778
-0.00227968
-0.00165584
-0.00102222
-0.000384973
0.000248457
0.000870958
0.00147354
0.00204867
0.00258581
0.00307785
0.00351258
0.00388473
0.00418013
0.00439738
0.00452
0.00455309
0.00447681
0.00430366
0.00402009
0.00364233
0.0031478
0.00257718
0.00190426
0.00117882
0.000382527
-0.00266969
-0.00311623
-0.00355471
-0.00398393
-0.00440304
-0.00481111
-0.00520691
-0.00558909
-0.00595623
-0.00630688
-0.00663957
-0.00695279
-0.00724498
-0.00751457
-0.00775991
-0.00797937
-0.00817129
-0.008334
-0.00846585
-0.00856521
-0.00863046
-0.00866007
-0.00865255
-0.00860651
-0.00852068
-0.00839392
-0.00822527
-0.00801396
-0.0077594
-0.00746164
-0.00712059
-0.00673664
-0.00631055
-0.00584359
-0.00533752
-0.00479462
-0.00421774
-0.00361036
-0.00297655
-0.00232116
-0.00164954
-0.000968074
-0.000283368
0.000396622
0.00106424
0.00170988
0.00232541
0.00289957
0.00342468
0.0038877
0.00428288
0.00459513
0.00482285
0.00494844
0.00497735
0.00488865
0.00469803
0.00438424
0.0039693
0.00342951
0.00280759
0.00207542
0.00128557
0.000419268
-0.00336345
-0.00382075
-0.00426923
-0.00470762
-0.00513515
-0.00555084
-0.00595344
-0.00634152
-0.00671356
-0.00706807
-0.00740349
-0.00771825
-0.00801072
-0.00827923
-0.00852207
-0.00873753
-0.00892385
-0.0090793
-0.00920213
-0.00929062
-0.00934309
-0.0093579
-0.00933349
-0.00926839
-0.00916126
-0.00901088
-0.00881622
-0.00857645
-0.00829111
-0.00796006
-0.00758323
-0.00716101
-0.00669425
-0.00618431
-0.00563305
-0.00504293
-0.00441696
-0.00375888
-0.00307306
-0.0023647
-0.00163956
-0.000904462
-0.000166554
0.000565637
0.00128384
0.00197775
0.00263855
0.00325417
0.00381631
0.00431097
0.00473189
0.00506288
0.00530219
0.00543093
0.00545501
0.00535208
0.00513967
0.00479511
0.00433661
0.00374601
0.00306653
0.00226778
0.00140557
0.000460614
-0.00412765
-0.00459673
-0.00505613
-0.00550456
-0.00594127
-0.00636528
-0.0067753
-0.00716979
-0.00754717
-0.00790586
-0.00824423
-0.00856063
-0.00885335
-0.00912063
-0.00936069
-0.00957171
-0.00975186
-0.0098993
-0.0100122
-0.0100887
-0.0101271
-0.0101257
-0.0100827
-0.00999661
-0.00986602
-0.00968964
-0.00946636
-0.00919527
-0.00887598
-0.0085082
-0.00809191
-0.00762745
-0.00711577
-0.00655832
-0.0059571
-0.0053147
-0.00463439
-0.00392016
-0.00317671
-0.00240962
-0.00162512
-0.000830532
-3.35933e-05
0.000756529
0.00153087
0.00227834
0.00298935
0.00365094
0.00425411
0.00478378
0.00523314
0.00558473
0.00583671
0.00596871
0.00598717
0.00586784
0.00562884
0.0052384
0.00474363
0.00409783
0.00335446
0.00248169
0.00153906
0.000506644
-0.00496226
-0.00544411
-0.00591535
-0.00637464
-0.00682127
-0.00725428
-0.00767229
-0.00807369
-0.00845682
-0.00881999
-0.00916151
-0.00947963
-0.00977256
-0.0100385
-0.0102754
-0.0104816
-0.010655
-0.0107937
-0.0108957
-0.0109592
-0.0109823
-0.0109631
-0.0108999
-0.0107909
-0.0106348
-0.01043
-0.0101754
-0.00987025
-0.00951395
-0.00910603
-0.00864647
-0.00813578
-0.00757491
-0.0069654
-0.00630937
-0.00560962
-0.00486964
-0.00409372
-0.00328693
-0.00245526
-0.00160545
-0.000745403
0.000116509
0.000970406
0.00180654
0.00261299
0.00337925
0.00409137
0.00473963
0.00530773
0.00578821
0.00616227
0.00642794
0.00656324
0.00657523
0.00643769
0.00617067
0.0057425
0.00519474
0.00448606
0.00367198
0.00271754
0.00168627
0.000557446
-0.00586747
-0.00636306
-0.00684702
-0.00731795
-0.00777522
-0.00821786
-0.00864444
-0.00905323
-0.00944248
-0.00981041
-0.0101552
-0.0104752
-0.0107683
-0.0110326
-0.0112662
-0.011467
-0.0116331
-0.0117623
-0.0118526
-0.011902
-0.0119085
-0.0118701
-0.011785
-0.0116514
-0.0114676
-0.0112322
-0.0109437
-0.0106015
-0.010205
-0.00975348
-0.00924699
-0.00868603
-0.00807165
-0.00740547
-0.00668976
-0.00592749
-0.00512243
-0.00427918
-0.00340321
-0.00250098
-0.0015798
-0.000648176
0.00028479
0.00120844
0.00211217
0.00298313
0.00380987
0.00457719
0.00527462
0.00588458
0.0063989
0.00679726
0.00707762
0.00721615
0.0072207
0.00706285
0.00676487
0.0062929
0.00568944
0.00491122
0.00401961
0.0029757
0.00184746
0.000613106
-0.00684366
-0.00735392
-0.00785144
-0.00833478
-0.00880338
-0.00925627
-0.00969193
-0.0101086
-0.0105043
-0.0108772
-0.0112255
-0.0115473
-0.0118405
-0.0121031
-0.012333
-0.0125281
-0.0126862
-0.0128053
-0.012883
-0.0129172
-0.0129059
-0.0128469
-0.0127382
-0.012578
-0.0123645
-0.012096
-0.0117713
-0.0113894
-0.0109494
-0.0104508
-0.0098936
-0.00927835
-0.00860612
-0.00787861
-0.00709825
-0.00626822
-0.00539256
-0.00447622
-0.00352512
-0.00254621
-0.00154743
-0.000537948
0.000472318
0.00147186
0.00244912
0.00339024
0.00428305
0.00511019
0.00586098
0.00651624
0.00706713
0.00749163
0.00778756
0.00792917
0.00792515
0.00774469
0.0074124
0.0068912
0.0062249
0.00537361
0.00439786
0.00325653
0.00202287
0.000673706
-0.00789134
-0.00841717
-0.00892906
-0.00942555
-0.00990612
-0.0103698
-0.0108151
-0.01124
-0.0116425
-0.0120207
-0.0123726
-0.0126962
-0.0129894
-0.0132501
-0.013476
-0.0136649
-0.0138146
-0.0139227
-0.0139869
-0.014005
-0.0139746
-0.0138936
-0.0137599
-0.0135713
-0.013326
-0.0130223
-0.0126586
-0.012234
-0.0117474
-0.0111984
-0.0105867
-0.00991312
-0.00917863
-0.00838506
-0.007535
-0.00663185
-0.00567995
-0.00468463
-0.00365228
-0.0025904
-0.00150761
-0.00041382
0.000680181
0.00176193
0.00281884
0.00383581
0.00479934
0.00569199
0.00650062
0.00720478
0.00779498
0.00824738
0.00855975
0.00870412
0.00869028
0.00848465
0.0081146
0.00753952
0.00680813
0.00587452
0.00480727
0.00356034
0.0022127
0.000739315
-0.00901115
-0.00955343
-0.0100805
-0.0105908
-0.0110839
-0.011559
-0.0120143
-0.0124478
-0.0128574
-0.0132411
-0.0135967
-0.0139222
-0.0142153
-0.0144739
-0.0146955
-0.0148778
-0.0150184
-0.0151149
-0.0151648
-0.0151657
-0.0151151
-0.0150107
-0.0148503
-0.0146315
-0.0143523
-0.0140109
-0.013606
-0.0131359
-0.0125997
-0.0119967
-0.0113269
-0.0105908
-0.00978962
-0.00892519
-0.00800029
-0.00701855
-0.00598464
-0.00490428
-0.00378439
-0.00263307
-0.00145967
-0.000274908
0.000909471
0.00207996
0.00322286
0.00432183
0.00536215
0.00632476
0.00719559
0.0079523
0.00858459
0.00906665
0.00939623
0.00954291
0.00951779
0.00928424
0.00887272
0.00823871
0.00743641
0.00641417
0.0052482
0.00388738
0.00241711
0.000809985
-0.0102038
-0.0107634
-0.0113063
-0.0118311
-0.0123374
-0.0128244
-0.0132901
-0.0137326
-0.0141495
-0.0145388
-0.0148982
-0.0152256
-0.0155186
-0.0157748
-0.0159918
-0.016167
-0.016298
-0.0163822
-0.0164169
-0.0163997
-0.0163278
-0.0161987
-0.01601
-0.0157594
-0.0154445
-0.0150632
-0.0146143
-0.014096
-0.013507
-0.0128466
-0.0121148
-0.0113121
-0.0104397
-0.00949952
-0.00849454
-0.00742861
-0.00630676
-0.00513515
-0.00392125
-0.00267381
-0.00140297
-0.000120355
0.00116127
0.00242728
0.00366271
0.0048499
0.00597274
0.00701055
0.00794809
0.00876104
0.00943822
0.00995166
0.0102991
0.0104475
0.0104094
0.0101449
0.00968799
0.00898979
0.00811054
0.00699281
0.00572085
0.00423776
0.00263619
0.000885737
-0.0114703
-0.0120479
-0.0126073
-0.0131472
-0.0136672
-0.0141664
-0.0146431
-0.0150948
-0.0155193
-0.0159143
-0.0162776
-0.0166068
-0.0168994
-0.0171531
-0.0173651
-0.0175329
-0.0176538
-0.017725
-0.0177438
-0.0177074
-0.0176131
-0.0174581
-0.0172398
-0.0169555
-0.0166029
-0.0161799
-0.0156845
-0.015115
-0.0144701
-0.0137489
-0.0129514
-0.0120779
-0.0111296
-0.0101087
-0.0090183
-0.00786245
-0.00664658
-0.00537731
-0.00406272
-0.00271226
-0.00133695
5.0657e-05
0.00143664
0.00280517
0.00413994
0.00542175
0.00663307
0.00775147
0.00876037
0.0096333
0.0103582
0.0109047
0.0112706
0.0114199
0.011367
0.0110681
0.0105615
0.00979358
0.00883117
0.00761065
0.00622534
0.00461147
0.00286995
0.000966563
-0.0128113
-0.0134077
-0.0139843
-0.0145398
-0.0150739
-0.0155859
-0.0160737
-0.0165349
-0.0169672
-0.017368
-0.0177352
-0.0180661
-0.0183584
-0.0186092
-0.018816
-0.0189759
-0.0190862
-0.0191438
-0.0191459
-0.0190896
-0.0189718
-0.0187896
-0.0185402
-0.0182206
-0.0178284
-0.0173615
-0.0168174
-0.0161941
-0.0154901
-0.0147047
-0.0138376
-0.012889
-0.0118603
-0.0107536
-0.00957229
-0.00832064
-0.0070045
-0.00563096
-0.0042088
-0.00274818
-0.00126109
0.000238898
0.00173662
0.00321492
0.00465607
0.00603916
0.00734512
0.0085497
0.00963472
0.0105714
0.0113469
0.011928
0.0123128
0.012462
0.0123921
0.0120552
0.0114944
0.0106507
0.00959872
0.00826787
0.00676161
0.00500835
0.0031183
0.00105241
-0.0142279
-0.0148437
-0.0154381
-0.0160096
-0.0165583
-0.0170833
-0.0175825
-0.0180535
-0.0184936
-0.0189003
-0.0192713
-0.019604
-0.0198956
-0.0201435
-0.0203447
-0.0204964
-0.0205955
-0.020639
-0.0206237
-0.0205465
-0.0204043
-0.0201938
-0.019912
-0.0195559
-0.0191224
-0.0186093
-0.018014
-0.0173342
-0.0165682
-0.0157152
-0.0147746
-0.0137467
-0.0126329
-0.0114353
-0.0101574
-0.00880389
-0.00738104
-0.00589643
-0.00435955
-0.00278139
-0.00117496
0.000445076
0.00206218
0.00365782
0.00521261
0.00670388
0.00811093
0.0094074
0.0105734
0.0115778
0.0124067
0.013024
0.013428
0.0135759
0.0134864
0.0131075
0.0124876
0.0115616
0.0104133
0.00896428
0.00732931
0.00542803
0.00338098
0.00114316
-0.015721
-0.0163568
-0.0169694
-0.0175574
-0.018121
-0.0186593
-0.0191702
-0.0196509
-0.020099
-0.0205116
-0.0208864
-0.0212206
-0.0215115
-0.0217561
-0.0219515
-0.0220946
-0.0221821
-0.0222109
-0.0221776
-0.0220789
-0.0219113
-0.0216715
-0.021356
-0.0209617
-0.0204855
-0.0199244
-0.0192756
-0.0185366
-0.0177057
-0.0167816
-0.0157637
-0.0146523
-0.0134485
-0.0121547
-0.0107746
-0.00931308
-0.00777688
-0.00617416
-0.0045152
-0.00281183
-0.0010782
0.000669831
0.00241427
0.00413506
0.00581107
0.0074177
0.00893248
0.0103267
0.0115788
0.0126549
0.01354
0.014195
0.0146183
0.0147633
0.0146517
0.0142262
0.0135416
0.0125265
0.0112748
0.00969933
0.0079278
0.00586989
0.00365762
0.00123864
-0.0172916
-0.017948
-0.0185792
-0.0191839
-0.0197626
-0.0203144
-0.020837
-0.0213277
-0.0217837
-0.0222022
-0.0225807
-0.0229164
-0.0232063
-0.0234474
-0.0236367
-0.0237707
-0.0238463
-0.02386
-0.0238081
-0.0236872
-0.0234936
-0.0232235
-0.0228733
-0.0224395
-0.0219188
-0.0213079
-0.0206034
-0.0198029
-0.0189041
-0.0179055
-0.0168066
-0.0156072
-0.0143087
-0.0129134
-0.0114251
-0.00984922
-0.00819284
-0.00646475
-0.00467606
-0.00283955
-0.000970573
0.000913718
0.00279375
0.00464783
0.00645289
0.00818235
0.00981175
0.0113099
0.0126532
0.0138051
0.0147493
0.0154433
0.0158859
0.0160263
0.0158892
0.0154122
0.0146571
0.0135454
0.0121828
0.0104722
0.00855607
0.00633304
0.0039476
0.00133861
-0.0189407
-0.019618
-0.0202681
-0.0208898
-0.0214838
-0.0220492
-0.0225836
-0.0230842
-0.023548
-0.0239723
-0.0243543
-0.0246912
-0.02498
-0.0252174
-0.0254003
-0.0255251
-0.0255884
-0.0255865
-0.0255157
-0.025372
-0.0251516
-0.0248506
-0.0244648
-0.0239903
-0.0234237
-0.0227611
-0.021999
-0.0211344
-0.0201649
-0.0190887
-0.0179048
-0.0166132
-0.0152151
-0.0137128
-0.0121104
-0.0104135
-0.00862991
-0.00676893
-0.0048426
-0.00286472
-0.00085193
0.0011772
0.00320141
0.00519722
0.0071395
0.00899953
0.0107507
0.012359
0.0137989
0.0150307
0.016037
0.0167712
0.017233
0.0173665
0.0172004
0.0166663
0.0158343
0.0146179
0.0131363
0.0112818
0.0092148
0.00681629
0.00425011
0.00144271
-0.0206693
-0.0213678
-0.0220369
-0.0226757
-0.023285
-0.0238639
-0.0244101
-0.0249204
-0.025392
-0.0258219
-0.0262073
-0.0265453
-0.0268327
-0.0270662
-0.0272424
-0.0273577
-0.0274084
-0.0273907
-0.0273005
-0.0271337
-0.0268861
-0.0265533
-0.0261311
-0.0256152
-0.0250015
-0.0242857
-0.023464
-0.022533
-0.02149
-0.0203329
-0.0190603
-0.0176721
-0.0161694
-0.0145546
-0.0128319
-0.0110074
-0.00908926
-0.00708761
-0.00501544
-0.00288763
-0.000722251
0.00146063
0.00363793
0.00578424
0.00787222
0.00987085
0.0117511
0.0134761
0.0150182
0.0163342
0.0174054
0.0181811
0.0186615
0.0187857
0.0185866
0.0179892
0.0170731
0.0157431
0.014134
0.0121259
0.00989845
0.00731765
0.004564
0.00155049
-0.0224782
-0.0231982
-0.0238864
-0.0245422
-0.0251667
-0.0257591
-0.0263168
-0.0268367
-0.0273157
-0.027751
-0.0281395
-0.0284783
-0.0287641
-0.0289935
-0.0291629
-0.0292685
-0.0293065
-0.0292727
-0.029163
-0.0289728
-0.0286975
-0.0283326
-0.0278732
-0.0273151
-0.0266533
-0.0258829
-0.0249999
-0.0240005
-0.0228814
-0.0216402
-0.0202752
-0.0187861
-0.0171738
-0.0154407
-0.0135915
-0.0116324
-0.00957222
-0.00742185
-0.00519535
-0.00290873
-0.000581644
0.00176426
0.00410391
0.00640981
0.0086523
0.0107978
0.0128149
0.0146633
0.0163133
0.0177178
0.0188569
0.0196751
0.0201735
0.0202854
0.0200487
0.0193811
0.0183731
0.01692
0.0151741
0.0130024
0.0106066
0.0078351
0.00488788
0.00166138
-0.0243685
-0.0251098
-0.025817
-0.0264897
-0.0271291
-0.0277347
-0.0283037
-0.0288329
-0.0293191
-0.0297594
-0.0301507
-0.0304901
-0.030774
-0.0309991
-0.0311615
-0.0312573
-0.0312824
-0.0312326
-0.0311032
-0.0308895
-0.0305867
-0.0301893
-0.0296925
-0.0290914
-0.0283805
-0.0275545
-0.0266087
-0.0255388
-0.0243412
-0.0230128
-0.0215517
-0.0199573
-0.0182304
-0.0163734
-0.0143912
-0.0122903
-0.0100803
-0.00777291
-0.00538325
-0.00292863
-0.000430363
0.00208818
0.00459978
0.00707474
0.00948086
0.0117819
0.0139436
0.0159225
0.0176862
0.0191838
0.0203937
0.0212553
0.0217707
0.0218671
0.0215876
0.0208422
0.0197336
0.0181469
0.0162544
0.0139083
0.0113362
0.00836594
0.00521999
0.00177465
-0.0263408
-0.0271034
-0.0278293
-0.0285185
-0.0291726
-0.0297909
-0.0303707
-0.0309087
-0.0314016
-0.0318465
-0.0322404
-0.0325799
-0.0328618
-0.0330823
-0.0332376
-0.0333236
-0.033336
-0.0332701
-0.0331212
-0.0328842
-0.0325537
-0.0321241
-0.0315898
-0.0309454
-0.0301848
-0.0293022
-0.0282923
-0.0271502
-0.0258717
-0.0244532
-0.0228924
-0.0211884
-0.0193417
-0.017355
-0.0152331
-0.0129831
-0.0106154
-0.00814223
-0.00558027
-0.00294809
-0.000268813
0.00243235
0.00512586
0.00777967
0.0103589
0.0128244
0.0151389
0.0172555
0.0191391
0.0207342
0.0220179
0.0229238
0.0234551
0.0235321
0.0232039
0.0223722
0.0211534
0.0194214
0.0173717
0.0148403
0.0120836
0.00890687
0.00555815
0.00188943
-0.028396
-0.0291795
-0.0299236
-0.0306288
-0.0312969
-0.0319274
-0.0325175
-0.0330637
-0.0335629
-0.0340119
-0.0344078
-0.0347472
-0.0350268
-0.0352426
-0.0353908
-0.035467
-0.0354667
-0.0353851
-0.035217
-0.0349568
-0.0345989
-0.0341374
-0.0335662
-0.0328784
-0.0320677
-0.0311279
-0.0300529
-0.0288371
-0.0274755
-0.0259641
-0.0243001
-0.022482
-0.0205105
-0.018388
-0.0161198
-0.0137131
-0.0111792
-0.00853146
-0.00578771
-0.00296806
-9.75736e-05
0.00279655
0.00568229
0.0085251
0.0112872
0.0139264
0.0164023
0.0186639
0.0206737
0.0223711
0.0237315
0.0246823
0.0252281
0.0252813
0.0248982
0.0239705
0.0226309
0.020741
0.0185224
0.0157937
0.0128446
0.00945413
0.0058998
0.00200462
-0.0305347
-0.0313385
-0.0321002
-0.0328206
-0.0335021
-0.034144
-0.0347436
-0.0352973
-0.035802
-0.0362546
-0.0366519
-0.0369909
-0.0372678
-0.0374788
-0.0376199
-0.0376865
-0.0376739
-0.037577
-0.0373902
-0.0371077
-0.0367231
-0.0362302
-0.0356221
-0.0348913
-0.0340308
-0.0330336
-0.0318927
-0.0306018
-0.0291553
-0.0275483
-0.0257776
-0.0238413
-0.0217398
-0.0194755
-0.0170538
-0.0144827
-0.0117741
-0.00894243
-0.00600707
-0.00298966
8.25964e-05
0.00318039
0.00626905
0.00931134
0.0122664
0.0150889
0.0177349
0.0201494
0.0222918
0.0240963
0.0255364
0.0265327
0.0270913
0.0271159
0.0266704
0.0256364
0.0241641
0.0221021
0.0197021
0.0167634
0.0136137
0.0100029
0.00624174
0.00211895
-0.0327575
-0.0335808
-0.0343592
-0.0350939
-0.0357876
-0.0364401
-0.0370482
-0.0376086
-0.0381179
-0.0385733
-0.0389716
-0.0393096
-0.0395837
-0.0397898
-0.0399239
-0.0399812
-0.0399568
-0.0398452
-0.0396406
-0.0393367
-0.0389264
-0.0384028
-0.0377586
-0.0369858
-0.0360759
-0.0350213
-0.0338142
-0.0324473
-0.0309141
-0.0292091
-0.0273284
-0.0252696
-0.0230328
-0.0206204
-0.0180382
-0.0152946
-0.0124024
-0.00937722
-0.00624004
-0.00301423
0.000270744
0.0035833
0.0068859
0.0101385
0.013297
0.0163125
0.0191376
0.021713
0.0239947
0.0259112
0.0274341
0.0284765
0.0290458
0.0290363
0.0285205
0.0273684
0.0257504
0.0235008
0.0209054
0.0177431
0.0143847
0.0105474
0.0065802
0.00223086
-0.0350647
-0.0359065
-0.0367004
-0.0374482
-0.0381531
-0.0388148
-0.0394303
-0.0399963
-0.0405093
-0.0409667
-0.0413653
-0.0417018
-0.0419727
-0.042174
-0.0423012
-0.0423497
-0.0423141
-0.0421888
-0.0419676
-0.0416434
-0.0412087
-0.040656
-0.0399773
-0.0391632
-0.0382049
-0.0370933
-0.0358199
-0.0343763
-0.0327551
-0.0309498
-0.0289559
-0.0267703
-0.024393
-0.0218263
-0.0190762
-0.0161517
-0.0130668
-0.00983812
-0.00648856
-0.0030433
0.000465708
0.00400447
0.00753239
0.0110065
0.0143791
0.0175977
0.0206113
0.0233557
0.0257837
0.0278173
0.0294262
0.030515
0.0310927
0.0310431
0.030448
0.0291648
0.0273864
0.024932
0.022126
0.0187252
0.0151501
0.0110812
0.00691084
0.00233856
-0.0374567
-0.0383156
-0.0391236
-0.0398829
-0.0405975
-0.041267
-0.0418887
-0.0424589
-0.0429745
-0.0434329
-0.043831
-0.0441656
-0.044433
-0.0446294
-0.0447501
-0.0447903
-0.0447446
-0.0446067
-0.0443702
-0.0440274
-0.0435704
-0.0429905
-0.0422788
-0.0414251
-0.0404195
-0.039252
-0.0379127
-0.0363921
-0.0346817
-0.0327741
-0.0306639
-0.0283474
-0.0258243
-0.0230968
-0.0201712
-0.0170573
-0.0137701
-0.0103277
-0.00675476
-0.00307862
0.000666112
0.00444287
0.00820783
0.0119148
0.0155127
0.0189448
0.0221564
0.0250782
0.0276596
0.0298156
0.0315136
0.0326492
0.0332328
0.0331364
0.0324521
0.0310234
0.0290684
0.02639
0.0233565
0.0197013
0.0159014
0.0115967
0.00722847
0.0024399
-0.0399335
-0.0408079
-0.0416282
-0.0423974
-0.0431198
-0.0437955
-0.0444216
-0.0449946
-0.0455115
-0.0459698
-0.0463665
-0.0466985
-0.0469623
-0.0471538
-0.0472685
-0.0473013
-0.0472465
-0.0470976
-0.0468474
-0.0464881
-0.0460111
-0.0454064
-0.0446639
-0.0437728
-0.0427219
-0.0414999
-0.0400955
-0.0384981
-0.0366978
-0.0346861
-0.0324566
-0.0300052
-0.0273309
-0.0244359
-0.0213272
-0.0180149
-0.0145155
-0.0108486
-0.00704101
-0.00312219
0.000870349
0.00489727
0.00891128
0.0128629
0.0166972
0.0203535
0.0237729
0.0268809
0.0296229
0.0319067
0.0336973
0.0348798
0.0354666
0.0353161
0.0345318
0.0329416
0.0307919
0.0278681
0.0245885
0.0206616
0.0166285
0.0120846
0.00752702
0.00253241
-0.0424952
-0.043383
-0.0442135
-0.0449904
-0.0457187
-0.0463986
-0.0470272
-0.0476012
-0.0481179
-0.0485748
-0.0489691
-0.049298
-0.0495579
-0.0497447
-0.0498539
-0.0498803
-0.0498178
-0.0496597
-0.0493983
-0.049025
-0.0485303
-0.0479036
-0.0471335
-0.0462078
-0.0451141
-0.0438396
-0.0423716
-0.0406979
-0.0388073
-0.03669
-0.0343386
-0.031748
-0.0289172
-0.025848
-0.0225481
-0.0190282
-0.0153065
-0.0114039
-0.00734991
-0.00317619
0.00107658
0.00536612
0.00964151
0.0138498
0.017932
0.0218233
0.0254605
0.0287635
0.0316737
0.034091
0.0359776
0.0372073
0.037794
0.0375816
0.0366853
0.034916
0.0325515
0.0293586
0.0258119
0.0215944
0.0173199
0.0125349
0.00779961
0.00261322
-0.0451414
-0.0460404
-0.0468785
-0.0476607
-0.0483924
-0.0490742
-0.0497032
-0.0502763
-0.050791
-0.051245
-0.0516359
-0.0519609
-0.0522166
-0.052399
-0.0525034
-0.0525246
-0.0524563
-0.0522913
-0.0520213
-0.051637
-0.0511279
-0.0504827
-0.0496885
-0.0487317
-0.0475984
-0.046274
-0.0447444
-0.0429955
-0.0410146
-0.0387904
-0.0363145
-0.0335809
-0.030588
-0.0273378
-0.0238383
-0.0201014
-0.0161466
-0.0119969
-0.0076843
-0.00324308
0.00128271
0.00584767
0.010397
0.0148742
0.019216
0.0233533
0.0272185
0.0307255
0.0338117
0.0363683
0.0383545
0.0396316
0.0402151
0.0399321
0.0389107
0.0369429
0.034341
0.0308526
0.0270156
0.0224864
0.0179623
0.0129358
0.00803824
0.00267902
-0.0478718
-0.0487791
-0.049622
-0.0504066
-0.051139
-0.0518199
-0.0524468
-0.0530168
-0.0535275
-0.0539771
-0.0543634
-0.0546838
-0.054935
-0.0551132
-0.0552139
-0.0552313
-0.0551592
-0.0549899
-0.0547145
-0.0543228
-0.0538035
-0.0531439
-0.0523299
-0.0513461
-0.050177
-0.0488062
-0.0472175
-0.045395
-0.0433242
-0.0409924
-0.0383896
-0.035509
-0.0323486
-0.0289102
-0.0252026
-0.0212387
-0.0170398
-0.0126311
-0.00804725
-0.00332555
0.00148639
0.00633984
0.0111759
0.0159343
0.0205476
0.024942
0.0290455
0.0327658
0.0360359
0.0387378
0.0408274
0.0421522
0.0427289
0.0423662
0.0412053
0.0390178
0.0361536
0.0323401
0.0281866
0.0233229
0.0185404
0.0132735
0.00823371
0.002726
-0.0506857
-0.051598
-0.0524424
-0.0532261
-0.0539561
-0.0546332
-0.0552552
-0.0558193
-0.0563238
-0.0567672
-0.0571475
-0.0574625
-0.0577091
-0.0578836
-0.0579814
-0.057997
-0.0579236
-0.0577531
-0.057476
-0.0570813
-0.0565564
-0.0558874
-0.0550585
-0.0540528
-0.0528525
-0.0514393
-0.0497948
-0.0479009
-0.0457413
-0.0433012
-0.0405694
-0.037538
-0.0342044
-0.0305706
-0.026646
-0.0224447
-0.0179903
-0.0133101
-0.00844207
-0.00342651
0.00168504
0.0068403
0.0119761
0.0170283
0.0219249
0.0265876
0.0309399
0.0348828
0.0383449
0.0411983
0.0433952
0.0447681
0.0453343
0.0448821
0.0435663
0.0411354
0.037981
0.0338096
0.0293103
0.0240866
0.0190368
0.0135327
0.00837554
0.00274983
-0.0535822
-0.0544958
-0.0553379
-0.056117
-0.0568409
-0.0575108
-0.0581246
-0.0586802
-0.059176
-0.059611
-0.0599839
-0.0602926
-0.0605344
-0.0607057
-0.0608021
-0.0608178
-0.0607459
-0.0605778
-0.0603034
-0.0599105
-0.0593856
-0.058713
-0.0578752
-0.0568534
-0.0556275
-0.0541768
-0.0524805
-0.0505182
-0.0482712
-0.0457227
-0.04286
-0.0396739
-0.0361615
-0.0323246
-0.0281738
-0.0237245
-0.0190026
-0.014038
-0.00887231
-0.00354914
0.0018758
0.0073464
0.0127951
0.0181535
0.0233454
0.0282877
0.0328992
0.037074
0.0407364
0.0437478
0.0460562
0.0474777
0.0480296
0.0474775
0.0459897
0.0432899
0.0398143
0.0352482
0.03037
0.0247583
0.0194317
0.0136957
0.00845187
0.00274556
-0.0565602
-0.0574708
-0.0583064
-0.0590767
-0.0597904
-0.0604493
-0.0610514
-0.0615951
-0.0620794
-0.0625039
-0.0628677
-0.0631691
-0.0634059
-0.0635747
-0.063671
-0.0636893
-0.0636223
-0.0634608
-0.063194
-0.0628088
-0.0622901
-0.0616206
-0.0607808
-0.0597496
-0.0585046
-0.0570223
-0.0552791
-0.0532519
-0.0509196
-0.048263
-0.0452677
-0.0419232
-0.0382261
-0.0341784
-0.0297917
-0.0250832
-0.0200813
-0.0148191
-0.00934175
-0.00369682
0.00205556
0.00785519
0.0136299
0.0193073
0.0248063
0.0300392
0.0349205
0.0393366
0.0432076
0.0463835
0.0488078
0.0502786
0.0508123
0.0501494
0.0484713
0.0454744
0.0416429
0.0366413
0.0313471
0.0253159
0.0197028
0.0137427
0.00844921
0.0027076
-0.0596182
-0.0605212
-0.0613453
-0.0621021
-0.0628012
-0.0634447
-0.0640311
-0.0645593
-0.0650291
-0.0654406
-0.0657934
-0.0660866
-0.0663181
-0.0664851
-0.0665833
-0.0666069
-0.0665485
-0.0663984
-0.0661449
-0.0657739
-0.0652686
-0.0646098
-0.063776
-0.0627434
-0.0614867
-0.0599796
-0.0581953
-0.0561077
-0.0536926
-0.0509287
-0.0477994
-0.0442928
-0.040405
-0.0361384
-0.0315058
-0.0265263
-0.0212315
-0.0156577
-0.00985436
-0.00387318
0.00222093
0.00836346
0.0144775
0.0204862
0.0263042
0.0318386
0.0369982
0.0416666
0.0457549
0.0491021
0.0516469
0.0531678
0.0536793
0.0528942
0.0510057
0.0476812
0.0434553
0.0379726
0.0322203
0.0257348
0.0198244
0.0136511
0.00835233
0.00262963
-0.0627546
-0.0636445
-0.0644519
-0.06519
-0.0658693
-0.0664926
-0.067059
-0.0675677
-0.0680195
-0.0684152
-0.0687551
-0.0690389
-0.0692652
-0.0694312
-0.0695332
-0.0695652
-0.0695197
-0.0693864
-0.0691528
-0.0688033
-0.0683196
-0.0676803
-0.0668615
-0.0658365
-0.064577
-0.0630529
-0.0612343
-0.0590914
-0.056597
-0.0537269
-0.0504623
-0.0467899
-0.0427054
-0.0382114
-0.0333224
-0.0280597
-0.0224584
-0.0165586
-0.0104144
-0.00408209
0.00236831
0.00886766
0.0153342
0.0216867
0.0278352
0.0336819
0.0391319
0.04406
0.0483737
0.0518992
0.0545693
0.0561414
0.0566267
0.0557074
0.0535871
0.0499014
0.0452381
0.0392238
0.0329655
0.025987
0.019768
0.0133955
0.00814407
0.00250453
-0.0668383
-0.0676229
-0.0683365
-0.0689906
-0.0695884
-0.0701297
-0.0706146
-0.0710447
-0.0714215
-0.0717464
-0.0720196
-0.0722403
-0.0724065
-0.0725145
-0.0725586
-0.0725308
-0.0724204
-0.0722139
-0.0718943
-0.0714415
-0.0708317
-0.0700382
-0.0690311
-0.0677785
-0.0662466
-0.0644014
-0.0622094
-0.0596398