0.103183 	0.492331 	-9.64294e-19 	0.626192 	-0.0117117 	-8.79281e-18
0.104231 	0.49733 	-9.51725e-19 	0.212505 	-0.000190732 	-2.75774e-18
