0.165102 	0.474544 	-2.27096e-18 	0.425025
0.166074 	0.477336 	-1.31868e-18 	0.424388
0.167813 	0.482335 	-9.72025e-20 	0.423805
0.169341 	0.486727 	-1.80583e-19 	0.423337
0.170211 	0.489227 	-2.95087e-19 	0.422522
0.171291 	0.492331 	1.106e-19 	0.422181
0.17303 	0.49733 	-5.27309e-19 	0.421782
