/*--------------------------------*- C++ -*----------------------------------*\
  =========                 |
  \\      /  F ield         | OpenFOAM: The Open Source CFD Toolbox
   \\    /   O peration     | Website:  https://openfoam.org
    \\  /    A nd           | Version:  7
     \\/     M anipulation  |
\*---------------------------------------------------------------------------*/
FoamFile
{
    version     2.0;
    format      ascii;
    class       volVectorField;
    location    "66.999856";
    object      U;
}
// * * * * * * * * * * * * * * * * * * * * * * * * * * * * * * * * * * * * * //

dimensions      [0 1 -1 0 0 0 0];

internalField   nonuniform List<vector> 
5800
(
(-0.172624 0.000635136 -4.56045e-22)
(-0.16605 0.00342747 -1.39065e-20)
(-0.152775 0.00589887 2.0785e-20)
(-0.132635 0.00786054 6.8342e-21)
(-0.1053 0.00919442 -1.74487e-20)
(-0.176324 0.000871558 2.70317e-21)
(-0.179303 0.000843687 2.58254e-21)
(-0.182248 0.000748131 -4.80519e-21)
(-0.185086 0.000641144 2.31239e-21)
(-0.187811 0.00053677 -1.36172e-21)
(-0.190411 0.00044174 -4.85818e-22)
(-0.19288 0.000360388 2.75681e-21)
(-0.195217 0.000295452 -4.04007e-21)
(-0.197421 0.000248961 1.76669e-21)
(-0.199495 0.000222628 1.68128e-21)
(-0.201436 0.00021796 -3.51686e-21)
(-0.203246 0.000236283 -9.99944e-23)
(-0.204923 0.000278697 2.9122e-21)
(-0.206466 0.000346015 -2.25024e-22)
(-0.207873 0.000438678 -1.25421e-21)
(-0.209139 0.000556691 1.10601e-21)
(-0.210261 0.000699566 -5.39242e-22)
(-0.211232 0.000865444 7.37129e-22)
(-0.212048 0.00104882 -5.48212e-22)
(-0.212706 0.00124746 -3.79128e-22)
(-0.213201 0.00146137 1.65027e-21)
(-0.213528 0.00168905 -4.77687e-22)
(-0.213679 0.00192744 -1.12201e-21)
(-0.213645 0.002172 7.48884e-22)
(-0.213417 0.00241704 2.5326e-22)
(-0.212983 0.00265541 -9.49786e-22)
(-0.212331 0.0028801 1.11475e-21)
(-0.211448 0.00308141 -9.22692e-22)
(-0.210317 0.00324827 -6.66235e-22)
(-0.208919 0.00336934 1.9139e-21)
(-0.207237 0.00343469 -1.34656e-21)
(-0.20525 0.00343226 -2.46149e-22)
(-0.202935 0.00334978 2.75873e-22)
(-0.200264 0.00317777 4.46653e-24)
(-0.197214 0.00291435 7.5446e-22)
(-0.193759 0.0025503 -1.00986e-21)
(-0.189873 0.00207041 8.50286e-22)
(-0.185513 0.00147034 -9.74911e-24)
(-0.180656 0.000722569 -5.57042e-23)
(-0.175277 -0.000141159 -1.00752e-22)
(-0.169335 -0.00111387 6.1969e-22)
(-0.162799 -0.00218421 -1.59416e-23)
(-0.155635 -0.00333495 -2.57984e-22)
(-0.147814 -0.00453676 -1.21126e-22)
(-0.139309 -0.00576298 6.87076e-23)
(-0.130094 -0.00697844 -3.62433e-22)
(-0.12015 -0.00814643 4.57453e-22)
(-0.109459 -0.00921715 -1.18425e-22)
(-0.0980043 -0.0101438 2.50737e-22)
(-0.0857793 -0.0108834 -8.17981e-23)
(-0.0727808 -0.0113934 7.85559e-24)
(-0.0590086 -0.0116342 3.26908e-23)
(-0.0444721 -0.0115817 -1.45991e-22)
(-0.0291866 -0.0112098 1.64409e-22)
(-0.0131679 -0.0105214 -1.41259e-22)
(0.00355476 -0.0095146 1.24241e-23)
(0.0209488 -0.00823462 8.59292e-23)
(0.0389759 -0.00670002 -3.88332e-24)
(0.0575811 -0.00498793 -3.26432e-23)
(0.0767667 -0.00314131 -1.63944e-23)
(0.0963565 -0.00128309 -7.72453e-24)
(0.116594 0.00055952 1.91436e-23)
(0.136779 0.0022071 -1.5283e-23)
(0.158244 0.00367714 -9.81308e-24)
(0.178163 0.00475628 3.28028e-24)
(0.20192 0.00546313 -8.28189e-24)
(0.21944 0.00574779 2.24279e-24)
(0.248695 0.00512618 -3.15441e-25)
(0.259081 0.00474933 4.17675e-25)
(0.300859 0.00124853 -5.21664e-25)
(-0.169181 0.00425177 -1.01078e-21)
(-0.172098 0.00422816 -1.80314e-21)
(-0.174946 0.00398909 -1.7209e-21)
(-0.177677 0.00370051 2.48846e-22)
(-0.180303 0.00340097 -1.243e-21)
(-0.182808 0.00310831 1.00479e-20)
(-0.185186 0.00283289 -7.32306e-21)
(-0.187435 0.00257987 5.47138e-21)
(-0.189554 0.00235195 -4.1524e-21)
(-0.191543 0.00215083 -2.81283e-21)
(-0.193401 0.00197757 2.89864e-21)
(-0.195129 0.00183283 2.91745e-21)
(-0.196725 0.00171693 -6.46235e-21)
(-0.198186 0.00162983 1.48711e-21)
(-0.19951 0.0015711 -2.72833e-21)
(-0.200694 0.00153987 2.81547e-21)
(-0.201733 0.00153483 -6.98465e-22)
(-0.20262 0.00155375 5.36594e-21)
(-0.203351 0.00159274 -2.21077e-21)
(-0.203922 0.00164978 8.00363e-22)
(-0.204326 0.00172314 1.27803e-21)
(-0.204557 0.00181047 -3.86664e-21)
(-0.204609 0.00190845 4.82619e-22)
(-0.204472 0.00201224 -6.26071e-22)
(-0.204137 0.00211559 -1.20546e-23)
(-0.203592 0.00220907 4.69077e-22)
(-0.202823 0.0022844 1.96948e-21)
(-0.201818 0.00233064 -6.69651e-22)
(-0.200561 0.00233671 -1.53196e-21)
(-0.199031 0.00229409 2.90905e-21)
(-0.197209 0.00219923 -4.91277e-21)
(-0.195076 0.00203981 1.21218e-21)
(-0.192609 0.00179724 4.2501e-21)
(-0.189776 0.00145715 -2.84357e-21)
(-0.186554 0.000998414 -1.16548e-21)
(-0.182925 0.0004145 1.77089e-21)
(-0.178863 -0.000289304 -3.0065e-21)
(-0.174342 -0.00111546 4.30928e-21)
(-0.169323 -0.00208766 -1.82727e-21)
(-0.163764 -0.00318119 -5.38451e-22)
(-0.157648 -0.00438942 4.03532e-22)
(-0.150948 -0.00569882 -1.10897e-23)
(-0.14363 -0.00709224 2.0899e-22)
(-0.135671 -0.00853577 -7.61672e-23)
(-0.127049 -0.0100031 5.0299e-22)
(-0.117744 -0.0114576 -3.00543e-22)
(-0.10774 -0.0128586 5.49545e-22)
(-0.0970213 -0.0141578 -7.56438e-22)
(-0.085579 -0.0153035 -1.75119e-22)
(-0.0734103 -0.0162509 -2.69405e-22)
(-0.0605137 -0.0169562 7.587e-22)
(-0.0468911 -0.0173786 -8.84736e-22)
(-0.0325501 -0.0174907 -2.33994e-22)
(-0.0175047 -0.0172665 2.54351e-22)
(-0.00176467 -0.0167081 -4.75808e-23)
(0.0146454 -0.0158144 -6.94406e-23)
(0.0317062 -0.0146265 -3.14526e-23)
(0.0493887 -0.0131628 3.12304e-23)
(0.0676538 -0.0115033 -1.47472e-22)
(0.0865117 -0.00968548 1.0717e-22)
(0.105808 -0.00784329 1.63118e-23)
(0.125792 -0.00598706 -5.07668e-24)
(0.145777 -0.00433127 3.65412e-23)
(0.167113 -0.00279332 -2.23663e-23)
(0.186949 -0.00172447 -1.17549e-24)
(0.210741 -0.000857091 -6.12058e-25)
(0.228276 -0.000694674 7.2432e-25)
(0.257707 -0.000996596 -8.09494e-25)
(0.268189 -0.00170722 1.26844e-24)
(0.310038 -0.00488515 4.42251e-24)
(-0.154798 0.00740011 4.43827e-23)
(-0.157599 0.00740016 5.57181e-21)
(-0.160259 0.00703827 1.15933e-21)
(-0.162776 0.00658603 -1.10461e-20)
(-0.165206 0.00610344 -6.89961e-21)
(-0.167527 0.00562149 6.17754e-21)
(-0.169727 0.00515835 1.46029e-20)
(-0.171804 0.00472228 -8.0899e-21)
(-0.173756 0.00431711 -3.05049e-21)
(-0.175582 0.0039447 1.73265e-21)
(-0.177281 0.00360586 3.8749e-21)
(-0.178851 0.00330075 -5.26314e-21)
(-0.18029 0.00302905 5.93193e-21)
(-0.181596 0.00279002 -5.13945e-21)
(-0.182766 0.00258245 1.02965e-20)
(-0.183794 0.0024047 -9.76967e-21)
(-0.184676 0.00225467 1.71989e-21)
(-0.185406 0.00212968 -1.34853e-20)
(-0.185977 0.00202647 4.89872e-21)
(-0.186384 0.00194255 -3.71439e-21)
(-0.18662 0.00187601 1.49493e-21)
(-0.186677 0.00182452 1.29538e-20)
(-0.18655 0.00178414 -6.9984e-21)
(-0.186228 0.00174625 2.34822e-21)
(-0.185704 0.0017029 -6.43615e-21)
(-0.184964 0.00164647 5.46093e-21)
(-0.183994 0.00158023 -7.64963e-21)
(-0.182781 0.00148903 3.14505e-21)
(-0.181306 0.00135817 -1.01916e-21)
(-0.179543 0.0011725 2.41555e-21)
(-0.177476 0.000909012 2.4194e-21)
(-0.175094 0.000558404 3.26698e-21)
(-0.172376 0.00011823 -2.8325e-21)
(-0.169297 -0.000423479 5.59936e-22)
(-0.165829 -0.00108618 -1.49839e-21)
(-0.161938 -0.00187944 2.88824e-21)
(-0.157598 -0.00280325 -1.5882e-21)
(-0.152791 -0.00386195 7.56736e-22)
(-0.147487 -0.00503859 -3.42022e-21)
(-0.141655 -0.00634771 7.53644e-22)
(-0.135271 -0.00777895 1.30753e-21)
(-0.128311 -0.00931578 -2.44479e-21)
(-0.120747 -0.0109406 1.85081e-21)
(-0.112561 -0.012613 2.07723e-21)
(-0.103738 -0.014308 -1.35866e-21)
(-0.0942624 -0.0159859 -3.80997e-22)
(-0.0841244 -0.0176028 -1.2204e-21)
(-0.0733139 -0.0191128 2.66515e-22)
(-0.0618263 -0.0204589 3.90838e-22)
(-0.0496657 -0.0215952 8.29172e-22)
(-0.0368332 -0.022478 -8.94523e-22)
(-0.0233337 -0.0230651 5.84385e-22)
(-0.00917376 -0.0233269 3.86538e-22)
(0.00563174 -0.0232377 -3.93752e-22)
(0.0210793 -0.0227995 2.56354e-23)
(0.0371475 -0.0220091 3.04235e-22)
(0.0538297 -0.0209078 -1.11575e-22)
(0.0711036 -0.0195132 5.86946e-24)
(0.0889466 -0.0179109 1.59335e-22)
(0.107378 -0.0161293 -3.65333e-24)
(0.126259 -0.0143157 1.67928e-22)
(0.145859 -0.0124599 -1.22235e-22)
(0.16548 -0.0108172 -3.8276e-23)
(0.186532 -0.00922629 8.34539e-23)
(0.206076 -0.00818691 -2.90249e-23)
(0.229722 -0.0071761 2.14034e-23)
(0.247038 -0.00714503 1.03703e-23)
(0.276405 -0.00715087 7.81859e-25)
(0.286809 -0.00816402 -5.35798e-24)
(0.328303 -0.0110142 -7.3984e-24)
(-0.133088 0.0102039 1.99198e-22)
(-0.135752 0.0102336 -2.09189e-20)
(-0.138145 0.00977826 -4.66876e-21)
(-0.140355 0.00919303 2.37727e-20)
(-0.142504 0.00854924 -1.69307e-20)
(-0.14456 0.00789406 2.90344e-21)
(-0.146508 0.00725579 1.04121e-20)
(-0.148342 0.00664691 -8.69754e-21)
(-0.150059 0.00607288 -8.32353e-21)
(-0.151658 0.00553609 1.37998e-20)
(-0.153134 0.00503729 4.48301e-21)
(-0.154486 0.00457631 -5.14342e-21)
(-0.15571 0.00415234 -5.24364e-21)
(-0.156802 0.00376407 3.6213e-22)
(-0.157758 0.00340968 1.19062e-20)
(-0.158573 0.0030869 -5.94255e-21)
(-0.159241 0.00279301 -5.80008e-22)
(-0.159754 0.0025249 -6.49912e-21)
(-0.160105 0.00227933 -4.379e-22)
(-0.160287 0.002054 2.65333e-21)
(-0.160292 0.00184742 6.54932e-21)
(-0.160113 0.00165594 -7.20168e-21)
(-0.159745 0.00147356 6.1503e-21)
(-0.159178 0.00129941 -3.46127e-21)
(-0.1584 0.00113134 -1.62837e-21)
(-0.157388 0.000951327 -7.75162e-22)
(-0.156132 0.000732692 4.2805e-21)
(-0.15463 0.000473034 4.72519e-21)
(-0.152862 0.000168447 -8.98484e-21)
(-0.150813 -0.000194636 -1.9215e-21)
(-0.148459 -0.000639693 8.52682e-21)
(-0.145768 -0.00117798 -2.87753e-21)
(-0.142719 -0.00181528 -5.24663e-21)
(-0.139294 -0.00256217 2.22178e-21)
(-0.135471 -0.0034193 -3.13512e-21)
(-0.131225 -0.00439529 3.07973e-21)
(-0.126531 -0.00550954 -1.87643e-21)
(-0.121366 -0.00676513 6.89737e-21)
(-0.115703 -0.00815647 8.40051e-22)
(-0.109516 -0.00968138 -3.69614e-22)
(-0.102785 -0.0113297 -2.2659e-21)
(-0.0954926 -0.013084 -3.56868e-21)
(-0.0876104 -0.0149301 -9.30062e-22)
(-0.0791273 -0.0168165 3.96614e-21)
(-0.0700387 -0.0187227 4.67853e-22)
(-0.0603318 -0.0206062 -1.60152e-21)
(-0.0500053 -0.0224207 3.66857e-22)
(-0.0390535 -0.0241229 2.23828e-22)
(-0.0274773 -0.0256475 1.42899e-21)
(-0.0152892 -0.0269502 -7.9356e-22)
(-0.00249361 -0.0279878 -5.05285e-22)
(0.010901 -0.0287152 7.79296e-23)
(0.0248884 -0.0291061 1.38498e-21)
(0.0394509 -0.0291317 -7.46858e-22)
(0.0545914 -0.0287962 -7.93384e-22)
(0.0702893 -0.0280941 2.68244e-22)
(0.0865505 -0.0270703 9.22197e-23)
(0.103357 -0.0257379 2.49204e-23)
(0.120703 -0.0241913 -4.178e-22)
(0.138617 -0.0224465 1.99135e-22)
(0.156968 -0.0206692 -4.23058e-23)
(0.176061 -0.0188198 4.97134e-23)
(0.19516 -0.0172043 -8.25994e-23)
(0.215777 -0.0155727 -7.91275e-23)
(0.234825 -0.0145827 3.80383e-23)
(0.258144 -0.0134432 -1.70298e-23)
(0.275014 -0.0135456 -1.65062e-23)
(0.304067 -0.0132861 -4.07698e-24)
(0.314229 -0.0145515 3.36042e-24)
(0.354946 -0.017088 1.12776e-23)
(-0.103859 0.012622 2.18283e-20)
(-0.106429 0.0126211 -7.8245e-21)
(-0.108488 0.0121042 5.42718e-21)
(-0.110314 0.0114287 -3.50279e-20)
(-0.112114 0.0106554 1.65481e-20)
(-0.113846 0.00985141 -2.18175e-20)
(-0.115487 0.00905745 2.43701e-20)
(-0.117028 0.00829138 -2.28511e-20)
(-0.118466 0.0075612 -5.76542e-21)
(-0.119794 0.00687041 4.66547e-20)
(-0.121007 0.00622015 -2.57305e-20)
(-0.122102 0.00561024 2.21084e-20)
(-0.123073 0.00503968 -4.6186e-21)
(-0.123915 0.00450681 -5.41792e-23)
(-0.124622 0.00400938 -1.34185e-20)
(-0.125188 0.00354461 -5.79535e-21)
(-0.125605 0.00310927 -2.77221e-21)
(-0.125866 0.00269986 7.12653e-21)
(-0.125961 0.00231325 -1.76325e-20)
(-0.12588 0.00194736 8.58957e-21)
(-0.125616 0.00159959 -4.98929e-21)
(-0.125162 0.0012658 2.2526e-21)
(-0.124506 0.000963887 4.89808e-21)
(-0.123634 0.000657131 9.85996e-21)
(-0.122547 0.000330061 -6.38001e-21)
(-0.121244 -1.72778e-05 -5.53335e-21)
(-0.119698 -0.000405433 4.26542e-21)
(-0.117878 -0.000837711 6.53625e-22)
(-0.11577 -0.00132185 4.52612e-21)
(-0.113362 -0.00186849 -3.72217e-21)
(-0.110636 -0.00248352 -4.91404e-21)
(-0.107569 -0.00318174 7.92282e-21)
(-0.104142 -0.00398384 -6.8409e-21)
(-0.100329 -0.00490442 4.66488e-21)
(-0.0961065 -0.00594892 1.79959e-21)
(-0.0914539 -0.00712182 -2.93426e-21)
(-0.0863501 -0.00843573 -1.74903e-21)
(-0.0807721 -0.00989217 2.42875e-21)
(-0.0746979 -0.0114882 -4.14359e-21)
(-0.0681063 -0.0132192 1.12914e-21)
(-0.0609789 -0.0150738 -1.44727e-21)
(-0.0533077 -0.0170326 5.26689e-22)
(-0.0450644 -0.0190927 -5.05994e-22)
(-0.0362422 -0.0211772 2.36998e-21)
(-0.0268497 -0.0232765 -2.23926e-21)
(-0.0168773 -0.0253465 1.49544e-21)
(-0.00633333 -0.0273399 -2.89065e-21)
(0.00478412 -0.0292024 9.6528e-22)
(0.0164701 -0.0308824 2.68067e-21)
(0.0287007 -0.0323289 -2.09676e-21)
(0.0414689 -0.0334968 -1.33543e-21)
(0.0547605 -0.0343392 1.66648e-21)
(0.0685698 -0.0348349 -1.20871e-21)
(0.0828762 -0.0349515 6.14436e-22)
(0.0976876 -0.0346973 1.00649e-22)
(0.112982 -0.0340642 1.45616e-22)
(0.128779 -0.0331034 -7.43361e-22)
(0.145061 -0.031821 2.38008e-22)
(0.161837 -0.0303236 -1.12248e-23)
(0.179148 -0.0286105 2.84161e-22)
(0.196864 -0.0268727 -4.3406e-22)
(0.215334 -0.0250305 1.61965e-22)
(0.233763 -0.0234539 4.87566e-23)
(0.253801 -0.0217864 4.12298e-23)
(0.272163 -0.0208604 -1.11287e-23)
(0.294974 -0.0196043 2.0455e-23)
(0.311194 -0.0198357 2.07442e-23)
(0.339675 -0.0193477 -6.98163e-24)
(0.349447 -0.0208035 -1.14437e-23)
(0.388987 -0.0230536 -2.63074e-23)
(-0.0667296 0.0146462 -9.90711e-21)
(-0.0693639 0.0144745 9.00359e-21)
(-0.0710096 0.0139402 6.27366e-21)
(-0.0724071 0.0132246 -4.05079e-20)
(-0.0738295 0.0123634 4.19384e-20)
(-0.0752122 0.0114452 -1.46035e-22)
(-0.0765234 0.010523 -2.85446e-20)
(-0.0777549 0.00962148 1.78708e-20)
(-0.0788983 0.00875252 5.4159e-21)
(-0.079945 0.00792165 5.73154e-21)
(-0.0808873 0.00713107 -2.16596e-20)
(-0.0817179 0.00638114 -1.92528e-20)
(-0.0824299 0.00567107 6.50529e-21)
(-0.083016 0.00499918 1.77956e-20)
(-0.0834687 0.00436308 -1.09647e-20)
(-0.0837802 0.00375966 2.96259e-20)
(-0.0839415 0.00318525 -3.24895e-20)
(-0.0839428 0.00263587 3.58101e-20)
(-0.0837729 0.00210781 -9.79962e-21)
(-0.0834215 0.00159814 -2.53907e-20)
(-0.0828802 0.001112 2.1896e-20)
(-0.0821234 0.00066941 -2.12486e-21)
(-0.0811686 0.000203341 -3.47536e-21)
(-0.0800251 -0.000278082 1.0701e-20)
(-0.0786492 -0.000781712 -7.43356e-21)
(-0.0770182 -0.00130464 -1.77881e-20)
(-0.0751254 -0.00184575 1.45126e-20)
(-0.0729555 -0.00242349 -3.4466e-21)
(-0.0704916 -0.00305549 -3.11963e-21)
(-0.067717 -0.00375665 6.23573e-21)
(-0.0646116 -0.00453886 1.23759e-20)
(-0.0611531 -0.00541522 -3.44818e-21)
(-0.057323 -0.00639847 -2.27172e-20)
(-0.0530989 -0.00750676 1.7089e-20)
(-0.0484543 -0.00874207 -8.58545e-21)
(-0.0433737 -0.0101023 2.7256e-21)
(-0.0378394 -0.0116078 6.75904e-21)
(-0.0318291 -0.0132587 -2.57545e-21)
(-0.025325 -0.0150518 -4.47722e-23)
(-0.0183105 -0.0169806 1.83e-21)
(-0.0107703 -0.0190321 -5.38104e-21)
(-0.00271093 -0.02119 -2.57534e-21)
(0.00590129 -0.0234212 6.15902e-21)
(0.0150742 -0.0256916 1.57222e-21)
(0.0247756 -0.0279688 -4.07196e-21)
(0.0350141 -0.0302066 1.52946e-21)
(0.0457779 -0.0323572 -1.09768e-21)
(0.0570564 -0.034357 -2.73946e-21)
(0.0688389 -0.0361676 -2.61152e-22)
(0.081099 -0.0377314 3.18661e-21)
(0.0938241 -0.0390024 1.39214e-21)
(0.106992 -0.0399344 1.41058e-21)
(0.120599 -0.0405071 -7.53428e-22)
(0.134619 -0.0406887 1.35694e-21)
(0.149066 -0.0404923 -1.75155e-21)
(0.163914 -0.0399061 8.87479e-22)
(0.179195 -0.0389903 -7.79935e-22)
(0.194892 -0.0377417 4.23773e-23)
(0.211028 -0.0362836 4.76538e-22)
(0.227654 -0.0345926 -4.14103e-22)
(0.244635 -0.0328937 2.20773e-22)
(0.262374 -0.0310542 -1.51737e-22)
(0.279998 -0.0295251 -2.39701e-22)
(0.299319 -0.0278212 -9.09458e-23)
(0.316826 -0.0269691 1.4766e-23)
(0.33895 -0.0256066 -6.63315e-24)
(0.354343 -0.0259559 -2.37175e-23)
(0.381996 -0.025279 -4.29923e-24)
(0.391257 -0.0268585 6.46181e-24)
(0.429246 -0.0288566 1.27345e-23)
(-0.0210327 0.0159054 3.31356e-20)
(-0.0239703 0.0158014 -2.54403e-20)
(-0.0251623 0.015312 4.20721e-20)
(-0.0261616 0.0145678 -1.58156e-20)
(-0.0272393 0.0136595 1.29715e-20)
(-0.0283037 0.0126697 -3.34418e-20)
(-0.0293177 0.0116527 5.18881e-21)
(-0.030271 0.0106419 -1.42246e-21)
(-0.0311531 0.00965502 7.59833e-21)
(-0.0319522 0.00870054 2.13113e-20)
(-0.0326575 0.00778249 -1.73101e-20)
(-0.0332589 0.00690251 1.23552e-20)
(-0.0337467 0.00606058 7.51636e-21)
(-0.0341116 0.00525551 3.03291e-21)
(-0.0343442 0.0044851 -2.18314e-20)
(-0.0344348 0.00374625 1.26538e-20)
(-0.0343728 0.00303509 -1.84653e-20)
(-0.0341469 0.00234724 2.23503e-21)
(-0.0337445 0.00167832 -5.17192e-22)
(-0.0331468 0.00103112 2.44773e-20)
(-0.0323283 0.000428321 -2.09457e-20)
(-0.0313328 -0.000193869 -2.89574e-21)
(-0.0301482 -0.000846279 -5.05908e-21)
(-0.0287163 -0.00149056 2.21719e-20)
(-0.0270407 -0.00213408 -7.98506e-21)
(-0.0251086 -0.002798 -7.77858e-21)
(-0.0229051 -0.00349543 -4.85556e-21)
(-0.0204105 -0.00423811 1.86368e-20)
(-0.0176072 -0.00503858 -6.66896e-21)
(-0.0144785 -0.00590948 -9.09276e-21)
(-0.0110059 -0.006863 -7.71273e-21)
(-0.0071688 -0.00791323 2.15722e-20)
(-0.00295342 -0.00907534 -5.78804e-21)
(0.00166273 -0.0103592 -1.97008e-21)
(0.0067155 -0.0117694 -4.70226e-21)
(0.0122128 -0.013317 -3.96784e-21)
(0.0181625 -0.0150107 4.01462e-21)
(0.0245883 -0.0168504 3.88341e-21)
(0.0315041 -0.0188326 -4.23774e-21)
(0.0389218 -0.0209492 -6.84386e-21)
(0.0468512 -0.023186 8.90927e-21)
(0.055289 -0.0255279 -1.42691e-21)
(0.0642456 -0.0279148 5.94388e-24)
(0.0737261 -0.0303546 -1.99518e-21)
(0.0837055 -0.0327898 3.38531e-21)
(0.0941768 -0.0351732 -4.16972e-21)
(0.105123 -0.0374557 4.97537e-21)
(0.116523 -0.0395768 -9.08904e-23)
(0.128361 -0.0414913 -4.11052e-22)
(0.140607 -0.0431431 -1.36567e-21)
(0.153242 -0.0444888 -1.66585e-21)
(0.166239 -0.0454816 5.89945e-22)
(0.179593 -0.0461042 1.41166e-21)
(0.193274 -0.046324 -3.18657e-21)
(0.207302 -0.0461608 2.21955e-21)
(0.221645 -0.0455981 -1.17777e-21)
(0.236349 -0.0447077 4.3842e-22)
(0.251393 -0.0434744 2.47644e-22)
(0.266814 -0.0420431 -4.05067e-22)
(0.282673 -0.040361 -8.15972e-23)
(0.298822 -0.0386975 2.37116e-22)
(0.31573 -0.0368524 -7.87487e-23)
(0.332425 -0.0353753 1.01275e-22)
(0.350901 -0.0336314 2.34297e-22)
(0.367408 -0.0328578 1.96122e-23)
(0.38867 -0.0313988 2.45627e-23)
(0.403095 -0.031848 6.37467e-23)
(0.429668 -0.0310227 -7.13864e-24)
(0.438325 -0.0326602 -3.58591e-24)
(0.474423 -0.0344424 -4.31533e-25)
(0.0343997 0.016627 1.75164e-20)
(0.0312779 0.0168353 3.63582e-20)
(0.0299544 0.0163108 -4.27212e-20)
(0.0291638 0.015525 -1.2172e-21)
(0.0283284 0.0146057 9.53833e-21)
(0.0274663 0.0135841 -8.74633e-21)
(0.0266366 0.0125051 -1.82313e-20)
(0.0258575 0.0114112 -2.60707e-21)
(0.0251385 0.0103273 4.43915e-20)
(0.0244919 0.00926546 -1.44069e-21)
(0.0239312 0.00823222 -3.72342e-21)
(0.0234694 0.00723121 -7.01571e-21)
(0.0231182 0.0062639 6.54149e-21)
(0.0228892 0.00533005 -4.93477e-21)
(0.0227936 0.0044281 7.0338e-21)
(0.0228432 0.00355529 -1.88914e-20)
(0.0230501 0.00270769 -1.59139e-20)
(0.0234273 0.00188022 2.25653e-20)
(0.0239929 0.00106926 1.53996e-21)
(0.0247792 0.000284026 -1.11736e-20)
(0.0257511 -0.000495043 2.56633e-20)
(0.0269113 -0.001307 -3.72963e-21)
(0.0283157 -0.00209102 -1.807e-21)
(0.0299625 -0.00287809 -2.28529e-20)
(0.0318633 -0.00367938 1.56325e-21)
(0.0340356 -0.00450541 2.02447e-20)
(0.0364953 -0.00536524 -8.28786e-21)
(0.0392598 -0.00627118 -1.36409e-20)
(0.0423467 -0.00723711 8.72597e-21)
(0.0457735 -0.00827668 -2.57798e-21)
(0.0495583 -0.00940279 2.71028e-21)
(0.0537205 -0.0106289 9.04908e-21)
(0.0582761 -0.0119696 -2.44157e-21)
(0.0632427 -0.0134265 -1.24668e-20)
(0.0686453 -0.0150092 1.33435e-20)
(0.0744985 -0.0167407 2.6963e-21)
(0.0808115 -0.0186165 3.70414e-21)
(0.0875994 -0.0206375 -1.47209e-21)
(0.0948719 -0.0227989 -1.67448e-20)
(0.102636 -0.0250914 8.0537e-21)
(0.110896 -0.0274986 1.34552e-21)
(0.119646 -0.0300024 -5.00632e-22)
(0.128885 -0.0325562 1.73731e-21)
(0.138611 -0.0351424 5.8897e-22)
(0.148799 -0.0377125 -1.19884e-21)
(0.159431 -0.0402179 5.79701e-22)
(0.170484 -0.0426081 9.46069e-22)
(0.18193 -0.0448234 -1.59167e-21)
(0.193748 -0.0468157 8.60691e-22)
(0.205899 -0.0485289 1.19475e-21)
(0.218366 -0.0499223 -1.39108e-21)
(0.231112 -0.0509485 -1.19693e-21)
(0.244136 -0.0515944 5.06083e-22)
(0.257399 -0.0518261 2.60185e-22)
(0.270932 -0.0516719 8.1307e-23)
(0.284693 -0.0511091 6.33179e-22)
(0.298744 -0.0502244 -2.43007e-22)
(0.313057 -0.048987 -1.60514e-21)
(0.327681 -0.0475691 -2.55395e-22)
(0.342688 -0.0458808 -1.8612e-22)
(0.357913 -0.044247 2.20516e-22)
(0.373891 -0.0423853 1.61344e-22)
(0.389549 -0.040961 -2.43305e-22)
(0.407058 -0.0391725 -2.92883e-23)
(0.422445 -0.0384762 -7.24841e-23)
(0.442676 -0.0369312 -1.0206e-22)
(0.456031 -0.0374569 2.38721e-23)
(0.481279 -0.0365227 -2.07875e-23)
(0.48927 -0.0381581 4.18044e-24)
(0.523181 -0.039758 3.42676e-24)
(0.100725 0.0176635 -3.44263e-20)
(0.0976533 0.0178813 4.25018e-20)
(0.0956135 0.0171644 5.60914e-20)
(0.0946593 0.0163124 -6.4562e-20)
(0.093815 0.0153875 -4.12491e-20)
(0.0929217 0.0143484 2.9198e-20)
(0.0920554 0.0132244 2.78131e-20)
(0.0912491 0.0120636 4.03521e-20)
(0.0905075 0.0108962 -4.71781e-20)
(0.089839 0.00973724 -3.29239e-22)
(0.0892571 0.00859591 -3.75352e-20)
(0.0887762 0.00747823 1.02514e-20)
(0.0884094 0.00638761 2.9726e-20)
(0.0881697 0.00532524 -2.29425e-21)
(0.0880697 0.00429058 -1.75718e-20)
(0.0881222 0.00328157 4.66903e-21)
(0.0883405 0.00229439 1.01338e-20)
(0.0887394 0.00132337 -1.83186e-20)
(0.0893417 0.000363967 3.8994e-20)
(0.0901661 -0.000585968 -1.83555e-20)
(0.0911941 -0.00155574 -1.03709e-20)
(0.0924432 -0.0025031 2.41116e-20)
(0.0939366 -0.00344553 -2.35972e-20)
(0.0956884 -0.00439476 7.96468e-21)
(0.0977121 -0.00535841 3.13671e-21)
(0.100023 -0.00634739 1.01335e-20)
(0.102639 -0.00737317 -7.72542e-21)
(0.105575 -0.008448 -1.20879e-20)
(0.10885 -0.00958485 3.23056e-21)
(0.112482 -0.0107968 -5.9408e-21)
(0.116487 -0.0120968 2.66358e-20)
(0.120883 -0.0134978 -1.04659e-20)
(0.125686 -0.0150138 -1.75525e-20)
(0.130911 -0.0166514 2.36098e-20)
(0.136578 -0.018418 -1.47802e-20)
(0.142701 -0.0203263 -3.43704e-21)
(0.149286 -0.0223778 7.90444e-21)
(0.156345 -0.0245721 -3.13855e-21)
(0.163881 -0.0269036 6.67027e-21)
(0.171897 -0.029361 -2.75364e-21)
(0.180391 -0.0319267 5.41717e-21)
(0.189354 -0.0345789 -1.21076e-20)
(0.198775 -0.0372766 7.94179e-21)
(0.208644 -0.0399915 4.66366e-21)
(0.218933 -0.0426774 -8.90585e-21)
(0.229617 -0.0452838 -1.57524e-22)
(0.240667 -0.0477592 5.66303e-21)
(0.252047 -0.0500439 -7.21788e-21)
(0.263732 -0.0520892 7.83022e-21)
(0.275676 -0.0538384 -2.06244e-21)
(0.287864 -0.0552539 3.83802e-22)
(0.300248 -0.0562877 -3.41103e-22)
(0.312836 -0.0569322 6.40924e-23)
(0.325576 -0.0571514 -1.37648e-21)
(0.338514 -0.0569837 1.63851e-21)
(0.351596 -0.0563989 5.52222e-22)
(0.364901 -0.0555014 2.46594e-22)
(0.378392 -0.0542412 -2.45682e-23)
(0.39213 -0.0528236 1.15593e-21)
(0.406198 -0.051114 -7.7074e-22)
(0.420407 -0.049503 6.27293e-22)
(0.435362 -0.0476134 -9.39987e-23)
(0.449887 -0.0462395 3.32831e-22)
(0.466311 -0.044402 -6.56176e-23)
(0.480489 -0.0437763 -1.90777e-23)
(0.499526 -0.0421576 4.57085e-23)
(0.511742 -0.0427325 -3.39303e-23)
(0.535441 -0.041726 1.87112e-23)
(0.542731 -0.0433081 1.56461e-23)
(0.574202 -0.0447545 5.77796e-24)
(0.176271 0.0193493 -4.43831e-21)
(0.173163 0.0183198 -9.23863e-20)
(0.171561 0.0173217 1.01612e-19)
(0.170299 0.0163379 -5.16534e-20)
(0.169011 0.0152509 -4.47411e-21)
(0.16777 0.0140664 4.27557e-20)
(0.166624 0.0128305 -4.57241e-20)
(0.165572 0.0115741 -6.97491e-21)
(0.164614 0.0103132 3.50967e-20)
(0.16376 0.00905841 -7.6511e-21)
(0.163022 0.00781775 -3.72858e-20)
(0.162414 0.0065965 6.55156e-20)
(0.161949 0.0053974 -1.73785e-20)
(0.161638 0.00422119 -2.86968e-20)
(0.161496 0.00306674 3.39182e-20)
(0.161535 0.00193088 4.58802e-21)
(0.161771 0.00080792 -1.52563e-20)
(0.162226 -0.000309265 -1.83015e-20)
(0.16292 -0.00143837 -2.23469e-20)
(0.163839 -0.00257072 1.19069e-20)
(0.165007 -0.00369282 8.37829e-21)
(0.166441 -0.00480832 1.45549e-20)
(0.16815 -0.00592935 -2.09696e-20)
(0.17015 -0.00706588 1.26831e-20)
(0.172458 -0.00822896 -1.67991e-21)
(0.175089 -0.00943027 -1.14257e-20)
(0.178061 -0.010682 7.90725e-21)
(0.18139 -0.011997 9.16541e-22)
(0.185095 -0.0133878 -1.74821e-20)
(0.189191 -0.0148673 5.22787e-21)
(0.193693 -0.0164481 1.13256e-20)
(0.198617 -0.0181428 -7.1664e-21)
(0.203975 -0.0199594 3.60223e-21)
(0.209782 -0.0219049 8.27602e-21)
(0.216049 -0.0239886 -1.32507e-20)
(0.222781 -0.0262123 6.60954e-21)
(0.229983 -0.0285744 7.70779e-21)
(0.237655 -0.0310679 -6.59599e-21)
(0.245793 -0.0336804 1.11202e-21)
(0.25439 -0.0363924 -9.43539e-21)
(0.263431 -0.0391798 5.19614e-21)
(0.272898 -0.0420038 3.16461e-21)
(0.282771 -0.0448299 1.34846e-21)
(0.293021 -0.0476124 -5.42216e-21)
(0.303613 -0.050299 -1.34299e-21)
(0.314515 -0.0528379 1.06164e-20)
(0.325684 -0.0551692 -8.01352e-22)
(0.33709 -0.0572442 -5.63908e-21)
(0.348684 -0.0590059 7.18157e-23)
(0.36045 -0.0604205 -9.55028e-22)
(0.372335 -0.0614388 8.98401e-22)
(0.384352 -0.0620602 4.61806e-22)
(0.396443 -0.0622455 8.97615e-22)
(0.408665 -0.0620449 -9.15932e-22)
(0.420953 -0.061419 -7.83362e-23)
(0.433404 -0.060493 -8.89603e-22)
(0.445972 -0.0591937 1.51926e-23)
(0.458726 -0.0577649 -9.74835e-23)
(0.471763 -0.0560202 1.74982e-22)
(0.484869 -0.054425 -3.58704e-22)
(0.498707 -0.0524976 -3.76299e-22)
(0.51202 -0.0511688 1.15277e-22)
(0.527249 -0.0492804 -3.15534e-22)
(0.540154 -0.0487137 2.53104e-22)
(0.557845 -0.0470357 -8.4781e-24)
(0.568888 -0.0476303 -3.67178e-23)
(0.59084 -0.0465845 -1.86549e-23)
(0.597415 -0.0480727 7.909e-24)
(0.626245 -0.0493887 -3.38544e-24)
(0.268245 0.0217987 -5.09962e-20)
(0.263711 0.0203347 2.29338e-20)
(0.260896 0.0190643 -1.56042e-20)
(0.258699 0.0179198 -1.44732e-20)
(0.256551 0.0167069 3.33956e-21)
(0.254494 0.0154028 -2.3077e-21)
(0.252594 0.0140468 6.86009e-21)
(0.250848 0.0126662 3.84852e-20)
(0.249242 0.0112736 -6.05596e-20)
(0.24778 0.00987911 4.58417e-20)
(0.246471 0.00849128 1.44563e-20)
(0.245324 0.00711654 -7.24264e-20)
(0.24435 0.00575877 6.86799e-20)
(0.24356 0.00441974 -2.71677e-20)
(0.242967 0.00309928 1.24794e-21)
(0.242581 0.00179489 1.78192e-20)
(0.242418 0.000500231 -2.79335e-20)
(0.24249 -0.000799172 1.28651e-20)
(0.24283 -0.00213226 -2.78115e-20)
(0.243435 -0.00344223 -1.1204e-20)
(0.244322 -0.00474291 4.3087e-20)
(0.245499 -0.00604292 -6.58872e-21)
(0.246976 -0.00735061 5.13502e-21)
(0.248769 -0.00867429 1.38903e-20)
(0.250893 -0.0100249 -2.56999e-21)
(0.253365 -0.0114142 -1.16746e-20)
(0.2562 -0.0128546 -1.57948e-20)
(0.259416 -0.0143584 1.79363e-20)
(0.263029 -0.0159376 4.05483e-22)
(0.267053 -0.0176048 -1.12626e-20)
(0.271501 -0.0193718 4.12061e-21)
(0.276387 -0.0212504 1.28838e-20)
(0.28172 -0.023249 -2.5475e-20)
(0.28751 -0.0253742 6.01382e-21)
(0.293765 -0.0276326 8.73112e-21)
(0.300486 -0.0300257 2.84332e-21)
(0.307673 -0.0325505 -1.13976e-20)
(0.315321 -0.035199 -1.13112e-22)
(0.323419 -0.0379571 -1.76177e-21)
(0.331955 -0.0408042 1.18724e-20)
(0.340907 -0.0437138 -7.62572e-21)
(0.350252 -0.0466483 -6.40997e-22)
(0.35996 -0.0495688 5.50552e-21)
(0.369998 -0.0524297 3.63571e-23)
(0.380325 -0.0551771 -6.24807e-21)
(0.390904 -0.0577595 8.97586e-21)
(0.401686 -0.0601163 -1.29121e-21)
(0.412641 -0.0622004 -5.72334e-21)
(0.423714 -0.063954 3.62531e-21)
(0.434892 -0.0653477 -1.42255e-21)
(0.446115 -0.0663311 -6.5533e-22)
(0.457409 -0.0669114 -5.47713e-22)
(0.468703 -0.0670455 1.32791e-21)
(0.480071 -0.0667969 -2.34068e-21)
(0.491437 -0.066115 5.18827e-22)
(0.502916 -0.0651486 -3.01961e-22)
(0.514452 -0.0637973 1.06098e-21)
(0.526126 -0.0623487 6.37481e-22)
(0.538038 -0.0605584 -5.66118e-22)
(0.549959 -0.0589727 2.63032e-22)
(0.562592 -0.0570007 4.31739e-22)
(0.57463 -0.0557099 -2.57383e-22)
(0.588562 -0.0537721 1.8147e-22)
(0.600156 -0.0532494 -1.83485e-23)
(0.616368 -0.0515284 2.45962e-23)
(0.62623 -0.0521138 -5.85409e-24)
(0.646269 -0.0510567 8.58872e-24)
(0.652133 -0.0524217 1.01877e-24)
(0.678178 -0.0536245 -3.6807e-25)
(0.373812 0.0258419 2.89195e-20)
(0.367564 0.0238045 -2.84026e-20)
(0.362998 0.0221208 9.32939e-21)
(0.359305 0.0206825 2.49933e-20)
(0.355783 0.0192224 -4.75419e-20)
(0.352423 0.017695 1.38089e-20)
(0.349303 0.0161337 7.09682e-20)
(0.34642 0.0145573 -2.23162e-20)
(0.343751 0.0129717 -4.37728e-20)
(0.341291 0.0113836 3.80157e-20)
(0.33904 0.00980053 -1.13554e-20)
(0.337006 0.00822856 3.12112e-20)
(0.335194 0.00667167 -4.02026e-20)
(0.333612 0.00513207 -4.62021e-20)
(0.332268 0.00361023 7.63482e-20)
(0.331173 0.00210458 -7.2641e-20)
(0.330333 0.000610687 4.3028e-20)
(0.329749 -0.000882672 3.69415e-20)
(0.329493 -0.00236749 -7.21286e-20)
(0.329552 -0.00391904 5.66144e-20)
(0.329918 -0.00545591 -2.81276e-20)
(0.330608 -0.00697584 -2.30356e-20)
(0.331634 -0.00849641 4.81449e-21)
(0.333009 -0.0100297 4.72521e-20)
(0.334744 -0.0115879 -5.85371e-20)
(0.336856 -0.0131836 5.48107e-20)
(0.339359 -0.0148294 1.39275e-20)
(0.342269 -0.016537 -9.74848e-21)
(0.3456 -0.0183181 -4.08178e-20)
(0.349365 -0.0201844 1.06803e-20)
(0.353575 -0.0221474 1.76551e-20)
(0.358239 -0.0242178 -1.78431e-20)
(0.363364 -0.0264039 1.33995e-20)
(0.368956 -0.0287116 -7.56902e-21)
(0.375016 -0.0311459 4.73814e-21)
(0.381543 -0.0337072 -4.81497e-21)
(0.388531 -0.0363913 2.97089e-21)
(0.395968 -0.0391889 1.01403e-21)
(0.403839 -0.0420847 -2.74272e-21)
(0.412124 -0.0450568 7.27549e-21)
(0.420795 -0.0480767 -8.99297e-21)
(0.429822 -0.0511073 -3.43236e-21)
(0.439169 -0.0541068 1.07637e-21)
(0.448798 -0.0570294 4.75223e-24)
(0.458661 -0.0598202 -2.97515e-21)
(0.468719 -0.0624282 8.78468e-21)
(0.478918 -0.0647926 -1.90865e-21)
(0.489228 -0.0668682 -3.15226e-21)
(0.499589 -0.0685966 -3.63682e-21)
(0.509996 -0.0699537 6.64446e-21)
(0.520382 -0.0708873 -2.49307e-22)
(0.530784 -0.0714135 3.26299e-21)
(0.541124 -0.0714841 -6.34698e-21)
(0.551494 -0.0711776 3.67386e-21)
(0.561805 -0.0704299 5.35934e-22)
(0.572192 -0.0694158 -6.2535e-22)
(0.582587 -0.0680047 9.11598e-22)
(0.593084 -0.0665311 -1.27742e-21)
(0.603783 -0.0646893 1.50433e-23)
(0.614449 -0.0631083 -4.3359e-23)
(0.625798 -0.0610892 -5.23655e-22)
(0.636517 -0.0598284 1.24305e-22)