/*--------------------------------*- C++ -*----------------------------------*\
  =========                 |
  \\      /  F ield         | OpenFOAM: The Open Source CFD Toolbox
   \\    /   O peration     | Website:  https://openfoam.org
    \\  /    A nd           | Version:  7
     \\/     M anipulation  |
\*---------------------------------------------------------------------------*/
FoamFile
{
    version     2.0;
    format      ascii;
    class       volScalarField;
    location    "65.000656";
    object      p;
}
// * * * * * * * * * * * * * * * * * * * * * * * * * * * * * * * * * * * * * //

dimensions      [0 2 -2 0 0 0 0];

internalField   nonuniform List<scalar> 
5800
(
-0.225319
-0.225272
-0.225194
-0.225042
-0.224743
-0.224728
-0.224221
-0.223653
-0.223035
-0.222361
-0.221629
-0.220839
-0.219988
-0.219075
-0.218098
-0.217055
-0.215944
-0.214762
-0.213509
-0.21218
-0.210774
-0.209286
-0.207714
-0.206054
-0.204303
-0.202456
-0.200511
-0.198462
-0.196305
-0.194034
-0.191643
-0.189128
-0.186493
-0.183723
-0.18081
-0.177749
-0.174531
-0.171151
-0.167598
-0.163873
-0.159968
-0.155876
-0.151593
-0.147114
-0.142439
-0.137567
-0.132498
-0.127238
-0.121792
-0.116166
-0.110384
-0.104456
-0.0984012
-0.0922426
-0.0860075
-0.0797258
-0.0734316
-0.0671607
-0.0609507
-0.0548417
-0.0488737
-0.0430858
-0.0375211
-0.0322168
-0.0271979
-0.0225191
-0.0181539
-0.0142458
-0.0105854
-0.0076353
-0.00458161
-0.00296388
-0.00011942
-0.000720714
0.00295467
-0.224804
-0.224291
-0.223713
-0.223093
-0.222417
-0.221685
-0.220894
-0.220044
-0.219132
-0.218157
-0.217118
-0.216012
-0.214837
-0.21359
-0.21227
-0.210873
-0.209397
-0.207837
-0.20619
-0.204453
-0.20262
-0.200689
-0.198654
-0.196509
-0.19425
-0.191875
-0.189389
-0.186762
-0.183997
-0.181089
-0.178029
-0.17481
-0.171425
-0.167864
-0.164125
-0.1602
-0.156083
-0.15177
-0.147258
-0.142545
-0.137632
-0.13252
-0.127215
-0.121724
-0.116058
-0.110235
-0.104271
-0.0981872
-0.0920087
-0.0857636
-0.0794824
-0.0732001
-0.066952
-0.0607759
-0.0547102
-0.0487941
-0.0430647
-0.0375549
-0.032303
-0.0273367
-0.0227033
-0.0183834
-0.0144987
-0.0108576
-0.00790692
-0.00485093
-0.00320212
-0.000331175
-0.00086511
0.00285991
-0.224991
-0.224464
-0.223868
-0.223242
-0.222563
-0.221827
-0.221035
-0.220183
-0.219272
-0.218299
-0.217262
-0.216161
-0.214991
-0.213752
-0.212441
-0.211055
-0.209589
-0.208042
-0.206409
-0.204685
-0.202867
-0.20095
-0.198928
-0.196797
-0.194557
-0.192208
-0.189725
-0.18711
-0.184356
-0.181455
-0.178399
-0.17518
-0.171791
-0.168223
-0.164471
-0.160528
-0.156389
-0.152049
-0.147504
-0.142754
-0.1378
-0.132645
-0.127296
-0.12176
-0.116052
-0.110189
-0.104189
-0.0980764
-0.0918764
-0.0856189
-0.0793353
-0.0730609
-0.0668309
-0.0606827
-0.0546529
-0.0487792
-0.0430959
-0.0376401
-0.0324413
-0.0275236
-0.0229316
-0.0186486
-0.014789
-0.0111651
-0.00821079
-0.00515047
-0.00346518
-0.000571242
-0.00101918
0.00272615
-0.225281
-0.224729
-0.2241
-0.223467
-0.222782
-0.222042
-0.221246
-0.220393
-0.219481
-0.218509
-0.217475
-0.216377
-0.215213
-0.213981
-0.212679
-0.211302
-0.209848
-0.208314
-0.206694
-0.204984
-0.20318
-0.201275
-0.199267
-0.197155
-0.19494
-0.192599
-0.190132
-0.18753
-0.184786
-0.181893
-0.178842
-0.175625
-0.172234
-0.16866
-0.164897
-0.160939
-0.156778
-0.152412
-0.147837
-0.143053
-0.138061
-0.132865
-0.127472
-0.121894
-0.116144
-0.110242
-0.104208
-0.0980656
-0.0918437
-0.0855727
-0.079285
-0.0730165
-0.0668016
-0.0606781
-0.0546807
-0.0488463
-0.0432064
-0.0377959
-0.032642
-0.0277671
-0.0232115
-0.0189577
-0.0151162
-0.0115041
-0.00854198
-0.00547387
-0.00374747
-0.000832938
-0.00117778
0.00255777
-0.225684
-0.225067
-0.224391
-0.223747
-0.223055
-0.222309
-0.221509
-0.220653
-0.219741
-0.21877
-0.217738
-0.216644
-0.215486
-0.214262
-0.212968
-0.211602
-0.21016
-0.208638
-0.207031
-0.205336
-0.203547
-0.201657
-0.199664
-0.19758
-0.195374
-0.193048
-0.190595
-0.188006
-0.185273
-0.182389
-0.179344
-0.17613
-0.172738
-0.16916
-0.165387
-0.161415
-0.157236
-0.152846
-0.148243
-0.143427
-0.138399
-0.133164
-0.127732
-0.122114
-0.116325
-0.110386
-0.104318
-0.0981482
-0.0919049
-0.0856206
-0.0793281
-0.0730635
-0.0668615
-0.0607593
-0.0547901
-0.0489901
-0.043388
-0.0380168
-0.032901
-0.0280623
-0.0235365
-0.0193055
-0.0154761
-0.0118698
-0.00889572
-0.00581545
-0.00404407
-0.00111041
-0.0013365
0.00235991
-0.226271
-0.225452
-0.224715
-0.224059
-0.223357
-0.222602
-0.221797
-0.22094
-0.220028
-0.219059
-0.218031
-0.216942
-0.21579
-0.214574
-0.21329
-0.211934
-0.210505
-0.208996
-0.207404
-0.205723
-0.203944
-0.202057
-0.200109
-0.198033
-0.195844
-0.193534
-0.191095
-0.188519
-0.185798
-0.182924
-0.179886
-0.176676
-0.173284
-0.169703
-0.165924
-0.16194
-0.157744
-0.153333
-0.148705
-0.14386
-0.1388
-0.133531
-0.128062
-0.122404
-0.116581
-0.110608
-0.10451
-0.0983145
-0.0920519
-0.085755
-0.0794576
-0.0731962
-0.067005
-0.0609212
-0.0549763
-0.0492058
-0.0436357
-0.038298
-0.0332138
-0.0284045
-0.0239016
-0.0196871
-0.0158641
-0.0122575
-0.00926785
-0.00617059
-0.00435087
-0.00139913
-0.00149208
0.00213823
-0.227205
-0.225829
-0.225036
-0.224374
-0.223658
-0.222892
-0.222084
-0.221226
-0.220316
-0.21935
-0.218328
-0.217246
-0.216103
-0.214896
-0.213622
-0.212279
-0.210862
-0.209368
-0.207792
-0.206125
-0.204366
-0.202535
-0.200569
-0.198506
-0.196332
-0.194037
-0.191614
-0.189052
-0.186344
-0.18348
-0.18045
-0.177246
-0.173858
-0.170274
-0.166479
-0.162489
-0.158281
-0.153853
-0.149203
-0.144332
-0.139244
-0.133944
-0.128443
-0.122755
-0.116899
-0.110896
-0.104771
-0.0985532
-0.0922735
-0.085966
-0.0796646
-0.0734064
-0.0672248
-0.0611572
-0.0552332
-0.049488
-0.0439446
-0.0386347
-0.0335757
-0.0287892
-0.0243026
-0.0200984
-0.0162765
-0.0126635
-0.00965498
-0.00653596
-0.00466461
-0.00169602
-0.00164252
0.00189875
-0.227758
-0.226354
-0.225373
-0.224653
-0.223926
-0.223153
-0.222339
-0.221481
-0.220575
-0.219617
-0.218602
-0.217529
-0.216397
-0.215201
-0.213941
-0.212611
-0.211209
-0.209731
-0.208169
-0.206516
-0.204775
-0.202945
-0.201011
-0.198969
-0.196813
-0.194534
-0.192126
-0.189579
-0.186884
-0.18403
-0.18101
-0.177811
-0.174424
-0.170842
-0.167053
-0.163052
-0.158832
-0.154389
-0.149721
-0.144828
-0.139715
-0.134389
-0.128861
-0.123145
-0.117262
-0.111234
-0.105087
-0.0988509
-0.0925576
-0.0862421
-0.0799384
-0.0736841
-0.0675117
-0.0614588
-0.0555529
-0.0498294
-0.0443081
-0.0390208
-0.0339813
-0.0292115
-0.0247354
-0.0205353
-0.0167099
-0.0130848
-0.0100544
-0.00690936
-0.00498283
-0.00199924
-0.00178714
0.00164755
-0.227935
-0.226938
-0.225685
-0.224863
-0.224128
-0.22335
-0.222531
-0.221675
-0.220776
-0.219827
-0.218824
-0.217764
-0.216645
-0.215464
-0.214218
-0.212905
-0.211519
-0.210058
-0.208515
-0.206881
-0.205172
-0.20335
-0.20143
-0.199405
-0.197266
-0.195005
-0.192613
-0.190081
-0.187399
-0.184558
-0.181547
-0.178356
-0.174975
-0.171394
-0.167603
-0.163598
-0.15937
-0.154916
-0.150234
-0.145325
-0.140193
-0.134846
-0.129296
-0.123559
-0.117654
-0.111607
-0.105443
-0.0991937
-0.0928911
-0.0865711
-0.0802676
-0.0740185
-0.0678556
-0.0618166
-0.0559269
-0.0502221
-0.044719
-0.0394498
-0.0344247
-0.0296663
-0.0251955
-0.0209942
-0.0171612
-0.0135189
-0.0104638
-0.00728956
-0.00530374
-0.00230788
-0.00192639
0.00139044
-0.227438
-0.22592
-0.224971
-0.224231
-0.223453
-0.222629
-0.221776
-0.220886
-0.219949
-0.218961
-0.217918
-0.216816
-0.215653
-0.214426
-0.213131
-0.211764
-0.210321
-0.208794
-0.207164
-0.205479
-0.203685
-0.201788
-0.199784
-0.197664
-0.195421
-0.193046
-0.19053
-0.187863
-0.185035
-0.182036
-0.178854
-0.17548
-0.171903
-0.168114
-0.164108
-0.159876
-0.155415
-0.150724
-0.145803
-0.140658
-0.135296
-0.129731
-0.123978
-0.11806
-0.111999
-0.105825
-0.0995676
-0.0932607
-0.0869404
-0.0806402
-0.0743986
-0.0682462
-0.0622208
-0.056346
-0.0506577
-0.0451697
-0.0399147
-0.0349
-0.0301481
-0.0256787
-0.0214712
-0.0176275
-0.0139638
-0.0108814
-0.0076759
-0.00562611
-0.00262142
-0.00206154
0.0011327
-0.22776
-0.226038
-0.22494
-0.224191
-0.223421
-0.222595
-0.221745
-0.220866
-0.219947
-0.218978
-0.217955
-0.216874
-0.215734
-0.214529
-0.213256
-0.211913
-0.210493
-0.208992
-0.207394
-0.205707
-0.203934
-0.202061
-0.200078
-0.197979
-0.195756
-0.1934
-0.190901
-0.18825
-0.185437
-0.182451
-0.179281
-0.175916
-0.172346
-0.168563
-0.164559
-0.160328
-0.155865
-0.15117
-0.146243
-0.141091
-0.135722
-0.130148
-0.124388
-0.118462
-0.112396
-0.106217
-0.0999589
-0.0936533
-0.0873375
-0.0810445
-0.0748131
-0.0686728
-0.0626616
-0.0568012
-0.0511277
-0.0456526
-0.0404087
-0.0354012
-0.0306519
-0.0261805
-0.0219631
-0.0181059
-0.0144179
-0.0113054
-0.00806798
-0.00594907
-0.00293939
-0.00219434
0.000878841
-0.227725
-0.225944
-0.224708
-0.223951
-0.2232
-0.222381
-0.221537
-0.220674
-0.219776
-0.21883
-0.217833
-0.21678
-0.215666
-0.214489
-0.213244
-0.211928
-0.210535
-0.209061
-0.2075
-0.205814
-0.204063
-0.202216
-0.200258
-0.198182
-0.19598
-0.193645
-0.191166
-0.188534
-0.185737
-0.182767
-0.17961
-0.176258
-0.172699
-0.168925
-0.164928
-0.160703
-0.156244
-0.151551
-0.146626
-0.141474
-0.136104
-0.130531
-0.124771
-0.118845
-0.112781
-0.106607
-0.100354
-0.0940563
-0.0877505
-0.0814691
-0.0752513
-0.0691252
-0.0631294
-0.0572834
-0.0516239
-0.0461601
-0.040925
-0.0359222
-0.0311726
-0.0266968
-0.0224665
-0.0185936
-0.0148793
-0.0117341
-0.00846533
-0.00627205
-0.00326107
-0.00232662
0.00063253
-0.225474
-0.224184
-0.223436
-0.222717
-0.221919
-0.221094
-0.220254
-0.219383
-0.218469
-0.217504
-0.216484
-0.215405
-0.214262
-0.21305
-0.211766
-0.210404
-0.208956
-0.207409
-0.205737
-0.204023
-0.202213
-0.200287
-0.198239
-0.196063
-0.193752
-0.191295
-0.188684
-0.185908
-0.182957
-0.179818
-0.176482
-0.172939
-0.169179
-0.165195
-0.16098
-0.156532
-0.151849
-0.146933
-0.141789
-0.136428
-0.130863
-0.125112
-0.119197
-0.113143
-0.106981
-0.100741
-0.094458
-0.088168
-0.0819032
-0.0757028
-0.0695938
-0.063615
-0.0577842
-0.0521383
-0.046685
-0.0414571
-0.0364575
-0.0317053
-0.0272234
-0.0229781
-0.0190878
-0.0153465
-0.0121657
-0.00886723
-0.00659456
-0.00358534
-0.00245999
0.000396558
-0.223236
-0.222543
-0.221879
-0.221126
-0.220339
-0.219537
-0.218706
-0.217833
-0.21691
-0.215934
-0.214897
-0.213797
-0.212627
-0.211383
-0.210061
-0.208651
-0.207146
-0.205518
-0.203794
-0.202012
-0.200125
-0.198114
-0.19597
-0.193688
-0.191258
-0.188673
-0.185922
-0.182994
-0.179878
-0.176564
-0.173042
-0.169302
-0.165337
-0.161141
-0.156711
-0.152046
-0.147147
-0.142021
-0.136678
-0.131131
-0.125398
-0.119502
-0.113469
-0.107327
-0.101109
-0.0948476
-0.0885799
-0.0823369
-0.0761583
-0.0700695
-0.0641098
-0.0582955
-0.0526636
-0.0472206
-0.0419989
-0.0370016
-0.0322453
-0.0277562
-0.0234949
-0.0195856
-0.0158176
-0.0125984
-0.00927257
-0.00691614
-0.00391067
-0.0025957
0.000172914
-0.221725
-0.22115
-0.220576
-0.219905
-0.219189
-0.218448
-0.217674
-0.216857
-0.215991
-0.215069
-0.214088
-0.213041
-0.211923
-0.210731
-0.209457
-0.208095
-0.206635
-0.205057
-0.203327
-0.201589
-0.199751
-0.197781
-0.195675
-0.193427
-0.191029
-0.188474
-0.185753
-0.182855
-0.179768
-0.176482
-0.172987
-0.169275
-0.165337
-0.161168
-0.156765
-0.152126
-0.147255
-0.142157
-0.136841
-0.131322
-0.125619
-0.119752
-0.113748
-0.107636
-0.101448
-0.095216
-0.0889772
-0.0827618
-0.0766094
-0.0705445
-0.0646063
-0.0588102
-0.053193
-0.0477608
-0.0425448
-0.0375495
-0.0327884
-0.0282912
-0.0240137
-0.0200842
-0.0162905
-0.0130304
-0.00967974
-0.00723618
-0.00423519
-0.0027344
-3.70954e-05
-0.219147
-0.218707
-0.218165
-0.217559
-0.21691
-0.216219
-0.21548
-0.214689
-0.213839
-0.212927
-0.211947
-0.210895
-0.209764
-0.20855
-0.207247
-0.205846
-0.204333
-0.202687
-0.200832
-0.199065
-0.197175
-0.19513
-0.19293
-0.190575
-0.188061
-0.185379
-0.182517
-0.179467
-0.176217
-0.172759
-0.169082
-0.16518
-0.161048
-0.156681
-0.15208
-0.147246
-0.142185
-0.136909
-0.131429
-0.125765
-0.119938
-0.113974
-0.1079
-0.101751
-0.0955556
-0.0893523
-0.0831702
-0.0770487
-0.0710114
-0.0650973
-0.0593214
-0.05372
-0.0482993
-0.0430894
-0.0380959
-0.0333301
-0.0288245
-0.0245313
-0.0205804
-0.0167628
-0.0134595
-0.0100867
-0.00755393
-0.00455681
-0.00287623
-0.00023271
-0.216466
-0.216207
-0.215841
-0.215383
-0.214859
-0.214281
-0.213646
-0.212951
-0.212193
-0.211369
-0.210473
-0.209502
-0.20845
-0.207312
-0.206083
-0.204754
-0.203318
-0.201767
-0.200091
-0.198176
-0.19632
-0.194346
-0.192203
-0.189894
-0.187424
-0.184786
-0.181969
-0.178963
-0.175758
-0.172344
-0.168713
-0.164857
-0.16077
-0.156451
-0.151897
-0.147111
-0.1421
-0.136873
-0.131443
-0.125829
-0.120051
-0.114137
-0.108112
-0.102009
-0.0958582
-0.0896972
-0.0835541
-0.0774682
-0.0714625
-0.0655757
-0.0598223
-0.0542385
-0.0488306
-0.0436276
-0.0386367
-0.0338668
-0.0293528
-0.0250451
-0.0210721
-0.0172328
-0.0138845
-0.010492
-0.00786906
-0.00487398
-0.00302114
-0.000413732
-0.213092
-0.212938
-0.212657
-0.212289
-0.211848
-0.211337
-0.210756
-0.210106
-0.209383
-0.208584
-0.207704
-0.20674
-0.205685
-0.204535
-0.203281
-0.201914
-0.200419
-0.198777
-0.196992
-0.195103
-0.193201
-0.19115
-0.18892
-0.18652
-0.183945
-0.181189
-0.178241
-0.175093
-0.171736
-0.168161
-0.164362
-0.160333
-0.156072
-0.151577
-0.146851
-0.1419
-0.136734
-0.131366
-0.125813
-0.120096
-0.11424
-0.108272
-0.102225
-0.0961268
-0.0900148
-0.0839166
-0.0778714
-0.0719013
-0.066045
-0.0603167
-0.0547522
-0.0493583
-0.0441631
-0.0391751
-0.0344017
-0.0298789
-0.0255576
-0.0215612
-0.0177017
-0.0143066
-0.0108958
-0.00818221
-0.00518616
-0.00316927
-0.00058059
-0.209516
-0.209464
-0.209301
-0.209041
-0.208689
-0.208252
-0.207732
-0.207132
-0.206448
-0.205679
-0.20482
-0.203868
-0.202817
-0.201661
-0.200395
-0.199009
-0.197491
-0.195803
-0.193903
-0.191996
-0.189987
-0.187812
-0.185468
-0.18295
-0.180251
-0.177364
-0.174278
-0.170984
-0.167474
-0.163742
-0.15978
-0.155587
-0.151162
-0.146508
-0.141628
-0.136534
-0.131237
-0.125755
-0.120107
-0.114319
-0.108416
-0.10243
-0.0963895
-0.0903305
-0.08428
-0.0782772
-0.0723437
-0.0665181
-0.0608144
-0.0552683
-0.0498869
-0.0446983
-0.0397113
-0.0349335
-0.0304
-0.0260652
-0.0220434
-0.0181649
-0.0147212
-0.0112934
-0.00849027
-0.00548988
-0.00331932
-0.000733362
-0.204988
-0.205111
-0.205139
-0.205069
-0.204902
-0.20464
-0.204288
-0.203844
-0.203311
-0.202684
-0.201963
-0.201143
-0.200219
-0.199186
-0.198038
-0.196765
-0.195357
-0.1938
-0.19207
-0.190083
-0.188184
-0.186145
-0.183926
-0.181517
-0.178916
-0.176121
-0.173124
-0.169917
-0.166492
-0.162843
-0.158965
-0.154856
-0.150514
-0.145942
-0.141146
-0.136133
-0.130917
-0.125515
-0.119945
-0.114232
-0.108401
-0.102483
-0.0965061
-0.0905063
-0.0845096
-0.0785553
-0.0726643
-0.0668755
-0.0612025
-0.0556815
-0.0503193
-0.0451444
-0.0401652
-0.0353908
-0.0308534
-0.0265133
-0.0224731
-0.0185834
-0.0150988
-0.011659
-0.00877723
-0.0057707
-0.00346519
-0.000869803
-0.201999
-0.202141
-0.202184
-0.202128
-0.201972
-0.20172
-0.201373
-0.200931
-0.200393
-0.199756
-0.199018
-0.198175
-0.197222
-0.196154
-0.194966
-0.193653
-0.192211
-0.190636
-0.188901
-0.186812
-0.184715
-0.182513
-0.180133
-0.177569
-0.174814
-0.17186
-0.168698
-0.16532
-0.161721
-0.157895
-0.153841
-0.149556
-0.145044
-0.14031
-0.135363
-0.130215
-0.124883
-0.119386
-0.113747
-0.10799
-0.102147
-0.0962441
-0.0903168
-0.0843898
-0.0785023
-0.0726735
-0.0669427
-0.0613218
-0.0558478
-0.0505257
-0.0453856
-0.0404335
-0.0356816
-0.0311575
-0.0268283
-0.0227855
-0.0188969
-0.0153884
-0.0119431
-0.00900577
-0.00599118
-0.00358511
-0.00097477
-0.198293
-0.198538
-0.198686
-0.198733
-0.19868
-0.198526
-0.198273
-0.19792
-0.197467
-0.196911
-0.196249
-0.195477
-0.19459
-0.193582
-0.192447
-0.191175
-0.189753
-0.188159
-0.186368
-0.184511
-0.182561
-0.180443
-0.178139
-0.175645
-0.172958
-0.170071
-0.166975
-0.163665
-0.160134
-0.156378
-0.152395
-0.148185
-0.143751
-0.139098
-0.134234
-0.129172
-0.123929
-0.118521
-0.112974
-0.107309
-0.101557
-0.0957434
-0.0899033
-0.0840603
-0.0782525
-0.0724986
-0.0668372
-0.0612795
-0.0558624
-0.0505903
-0.045494
-0.0405782
-0.0358573
-0.031355
-0.0270453
-0.0230078
-0.0191294
-0.0156049
-0.0121636
-0.00918043
-0.00616648
-0.00367563
-0.00105881
-0.194237
-0.194583
-0.194834
-0.194986
-0.195036
-0.194982
-0.194826
-0.194567
-0.194205
-0.193736
-0.193157
-0.192465
-0.191654
-0.190721
-0.189657
-0.188453
-0.1871
-0.185587
-0.183923
-0.182144
-0.180233
-0.178161
-0.175912
-0.173479
-0.170855
-0.168032
-0.165002
-0.16176
-0.1583
-0.154618
-0.150712
-0.146583
-0.142233
-0.137667
-0.132895
-0.127928
-0.122782
-0.117473
-0.112027
-0.106463
-0.100812
-0.0950978
-0.0893547
-0.0836052
-0.0778867
-0.0722168
-0.0666336
-0.0611479
-0.0557961
-0.0505822
-0.0455374
-0.0406652
-0.0359825
-0.0315083
-0.0272248
-0.0231979
-0.0193358
-0.0157994
-0.0123673
-0.00934147
-0.00633206
-0.00375955
-0.00113894
-0.190084
-0.190525
-0.190874
-0.191126
-0.191273
-0.191316
-0.191254
-0.191088
-0.190814
-0.190431
-0.189936
-0.189325
-0.188594
-0.187738
-0.186749
-0.185622
-0.184348
-0.182925
-0.181354
-0.179638
-0.17778
-0.175765
-0.173579
-0.17121
-0.168652
-0.165897
-0.162937
-0.159767
-0.156382
-0.152778
-0.148954
-0.14491
-0.140648
-0.136175
-0.131498
-0.12663
-0.121585
-0.11638
-0.111037
-0.105578
-0.100031
-0.0944193
-0.0887759
-0.0831225
-0.0774955
-0.071912
-0.0664091
-0.0609973
-0.0557125
-0.0505585
-0.0455668
-0.0407397
-0.0360966
-0.0316518
-0.0273957
-0.0233802
-0.0195355
-0.015988
-0.0125654
-0.00949853
-0.00649251
-0.00384165
-0.00121516
-0.185858
-0.186389
-0.186829
-0.187173
-0.187413
-0.187547
-0.187574
-0.187495
-0.187307
-0.187008
-0.186595
-0.186064
-0.185411
-0.184631
-0.183719
-0.182668
-0.181472
-0.180128
-0.178633
-0.176988
-0.175199
-0.173251
-0.171134
-0.168835
-0.166347
-0.163664
-0.160779
-0.157686
-0.154381
-0.15086
-0.147123
-0.143168
-0.139
-0.134623
-0.130047
-0.125281
-0.120342
-0.115244
-0.110009
-0.104658
-0.0992184
-0.0937118
-0.0881708
-0.082616
-0.0770828
-0.0715877
-0.066167
-0.0608309
-0.0556148
-0.0505221
-0.0455849
-0.0408039
-0.0362017
-0.031787
-0.0275594
-0.0235561
-0.0197292
-0.0161714
-0.0127581
-0.00965184
-0.00664758
-0.00392206
-0.00128669
-0.181569
-0.182184
-0.182709
-0.183139
-0.183465
-0.183685
-0.183797
-0.183802
-0.183696
-0.183478
-0.183144
-0.182691
-0.182114
-0.18141
-0.180573
-0.179597
-0.178478
-0.17721
-0.175791
-0.174222
-0.172503
-0.170629
-0.168582
-0.166356
-0.163943
-0.161336
-0.158529
-0.155517
-0.152296
-0.148862
-0.145215
-0.141354
-0.137284
-0.133008
-0.128536
-0.123877
-0.119046
-0.114059
-0.108936
-0.103696
-0.0983666
-0.0929683
-0.0875324
-0.0820789
-0.076642
-0.0712377
-0.0659014
-0.0606429
-0.0554975
-0.0504679
-0.0455871
-0.0408538
-0.036294
-0.0319108
-0.0277129
-0.0237228
-0.0199145
-0.0163477
-0.0129436
-0.00980017
-0.00679627
-0.00400022
-0.00135302
-0.177239
-0.177934
-0.178539
-0.17905
-0.179458
-0.179758
-0.179951
-0.180034
-0.180007
-0.179866
-0.179609
-0.179231
-0.178729
-0.1781
-0.177337
-0.176435
-0.175391
-0.174199
-0.172858
-0.171365
-0.16972
-0.167917
-0.165943
-0.163791
-0.161454
-0.158925
-0.156199
-0.153271
-0.150137
-0.146793
-0.143239
-0.139476
-0.135506
-0.131335
-0.12697
-0.122421
-0.117702
-0.112828
-0.10782
-0.102694
-0.0974773
-0.0921897
-0.0868613
-0.0815113
-0.0761728
-0.0708613
-0.0656115
-0.0604326
-0.0553598
-0.050395
-0.0455724
-0.0408882
-0.0363725
-0.0320219
-0.0278551
-0.0238794
-0.0200906
-0.0165162
-0.0131212
-0.00994297
-0.00693803
-0.00407595
-0.00141392
-0.172888
-0.17366
-0.174341
-0.174929
-0.175413
-0.17579
-0.176059
-0.176218
-0.176265
-0.176199
-0.176015
-0.17571
-0.175281
-0.174724
-0.174033
-0.173205
-0.172235
-0.171118
-0.169852
-0.168435
-0.166864
-0.165134
-0.163233
-0.161157
-0.158897
-0.156449
-0.153806
-0.150963
-0.147918
-0.144666
-0.141209
-0.137545
-0.133678
-0.129613
-0.125357
-0.12092
-0.116316
-0.111558
-0.106666
-0.101656
-0.0965541
-0.091379
-0.0861599
-0.0809151
-0.0756769
-0.0704598
-0.0652982
-0.0602005
-0.055202
-0.0503035
-0.0455405
-0.040907
-0.0364367
-0.0321202
-0.0279855
-0.0240255
-0.0202568
-0.0166764
-0.0132903
-0.01008
-0.0070725
-0.00414913
-0.00146931
-0.168528
-0.169375
-0.170129
-0.170789
-0.171347
-0.171797
-0.172138
-0.17237
-0.172489
-0.172493
-0.17238
-0.172146
-0.171787
-0.171301
-0.170681
-0.169925
-0.169027
-0.167984
-0.166792
-0.165449
-0.163951
-0.162293
-0.160469
-0.158469
-0.156288
-0.15392
-0.151361
-0.148606
-0.14565
-0.142493
-0.139132
-0.13557
-0.131807
-0.12785
-0.123706
-0.119383
-0.114894
-0.110253
-0.105478
-0.100586
-0.0956
-0.0905388
-0.0854304
-0.0802921
-0.0751554
-0.0700342
-0.0649622
-0.059947
-0.0550242
-0.0501935
-0.0454916
-0.04091
-0.0364865
-0.0322052
-0.0281038
-0.0241607
-0.0204126
-0.016828
-0.0134506
-0.0102108
-0.00719939
-0.00421963
-0.00151923
-0.16417
-0.165088
-0.165912
-0.166642
-0.16727
-0.16779
-0.168201
-0.168502
-0.16869
-0.168763
-0.168719
-0.168553
-0.168263
-0.167845
-0.167295
-0.166608
-0.165781
-0.16481
-0.163691
-0.162421
-0.160996
-0.159412
-0.157663
-0.155739
-0.153637
-0.151352
-0.148877
-0.146209
-0.143345
-0.140282
-0.13702
-0.133559
-0.129902
-0.126054
-0.122021
-0.117813
-0.113441
-0.108917
-0.104261
-0.0994869
-0.094618
-0.0896715
-0.0846745
-0.0796437
-0.0746096
-0.0695853
-0.0646039
-0.0596726
-0.0548267
-0.0500649
-0.0454255
-0.040897
-0.0365215
-0.0322766
-0.0282094
-0.0242845
-0.0205577
-0.0169705
-0.0136014
-0.0103353
-0.00731847
-0.00428726
-0.00156382
-0.159821
-0.160808
-0.161699
-0.162497
-0.163192
-0.163779
-0.164257
-0.164624
-0.164879
-0.165019
-0.165041
-0.164942
-0.164719
-0.164368
-0.163885
-0.163267
-0.16251
-0.161609
-0.160562
-0.159364
-0.158012
-0.156501
-0.154826
-0.152979
-0.150957
-0.148753
-0.146363
-0.143783
-0.14101
-0.138042
-0.134879
-0.13152
-0.127969
-0.12423
-0.12031
-0.116216
-0.111961
-0.107556
-0.103018
-0.0983623
-0.0936106
-0.0887791
-0.0838942
-0.0789714
-0.0740406
-0.0691139
-0.0642242
-0.0593775
-0.0546097
-0.0499178
-0.045342
-0.0408677
-0.0365413
-0.0323341
-0.028302
-0.0243967
-0.0206914
-0.0171036
-0.0137426
-0.010453
-0.0074296
-0.00435186
-0.00160333
-0.155489
-0.156542
-0.157498
-0.158359
-0.159118
-0.15977
-0.160313
-0.160745
-0.161064
-0.161268
-0.161355
-0.161321
-0.161163
-0.160877
-0.160461
-0.15991
-0.159221
-0.15839
-0.157413
-0.156286
-0.155006
-0.153568
-0.151967
-0.150198
-0.148254
-0.146132
-0.143827
-0.141335
-0.138653
-0.13578
-0.132715
-0.129459
-0.126014
-0.122384
-0.118576
-0.114597
-0.110458
-0.106171
-0.101752
-0.0972147
-0.0925801
-0.0878639
-0.0830911
-0.0782766
-0.0734494
-0.068621
-0.0638235
-0.0590622
-0.0543733
-0.0497524
-0.0452411
-0.0408222
-0.0365458
-0.0323774
-0.0283811
-0.0244969
-0.0208135
-0.017227
-0.0138737
-0.0105638
-0.0075327
-0.00441325
-0.00163805
-0.151181
-0.152297
-0.153313
-0.154235
-0.155056
-0.15577
-0.156375
-0.156869
-0.15725
-0.157517
-0.157666
-0.157695
-0.157601
-0.15738
-0.157029
-0.156544
-0.155922
-0.155159
-0.154251
-0.153194
-0.151986
-0.150621
-0.149094
-0.147401
-0.145536
-0.143495
-0.141275
-0.138871
-0.13628
-0.133502
-0.130536
-0.127381
-0.124042
-0.12052
-0.116824
-0.112959
-0.108936
-0.104767
-0.100466
-0.0960465
-0.0915288
-0.0869274
-0.0822667
-0.0775606
-0.0728372
-0.0681072
-0.0634025
-0.0587272
-0.0541179
-0.0495687
-0.0451229
-0.0407602
-0.0365348
-0.0324063
-0.0284465
-0.0245848
-0.0209236
-0.0173404
-0.0139946
-0.0106674
-0.00762775
-0.00447127
-0.00166835
-0.146903
-0.148077
-0.149151
-0.150132
-0.151011
-0.151784
-0.152448
-0.153001
-0.153443
-0.153771
-0.153981
-0.154072
-0.15404
-0.153881
-0.153594
-0.153174
-0.152618
-0.151922
-0.151082
-0.150095
-0.148957
-0.147664
-0.146211
-0.144594
-0.142808
-0.140848
-0.138712
-0.136395
-0.133896
-0.131212
-0.128343
-0.12529
-0.122056
-0.118642
-0.115057
-0.111305
-0.107398
-0.103345
-0.0991618
-0.0948597
-0.0904583
-0.0859714
-0.0814224
-0.0768243
-0.0722047
-0.0675733
-0.0629616
-0.0583727
-0.0538436
-0.0493669
-0.0449872
-0.0406817
-0.036508
-0.0324206
-0.028498
-0.0246601
-0.0210214
-0.0174435
-0.0141051
-0.0107636
-0.00771481
-0.00452576
-0.00169459
-0.142661
-0.14389
-0.145018
-0.146053
-0.146988
-0.147817
-0.148537
-0.149148
-0.149648
-0.150034
-0.150303
-0.150454
-0.150482
-0.150386
-0.150161
-0.149804
-0.149313
-0.148682
-0.14791
-0.146992
-0.145924
-0.144703
-0.143323
-0.141782
-0.140074
-0.138195
-0.136143
-0.133913
-0.131504
-0.128914
-0.126142
-0.12319
-0.120059
-0.116753
-0.113277
-0.109638
-0.105846
-0.101909
-0.0978418
-0.0936561
-0.0893702
-0.084997
-0.0805592
-0.0760689
-0.0715529
-0.0670199
-0.0625013
-0.0579992
-0.0535507
-0.049147
-0.0448341
-0.0405867
-0.0364653
-0.0324201
-0.0285352
-0.0247226
-0.0211068
-0.0175361
-0.0142051
-0.0108522
-0.00779395
-0.00457659
-0.00171714
-0.138461
-0.139741
-0.140919
-0.142005
-0.142991
-0.143873
-0.144648
-0.145313
-0.145869
-0.146311
-0.146637
-0.146846
-0.146933
-0.146897
-0.146733
-0.146439
-0.146011
-0.145445
-0.144739
-0.143889
-0.14289
-0.14174
-0.140433
-0.138967
-0.137337
-0.135539
-0.133569
-0.131426
-0.129107
-0.126609
-0.123934
-0.121082
-0.118054
-0.114854
-0.111488
-0.10796
-0.104281
-0.100459
-0.0965075
-0.0924371
-0.0882658
-0.0840056
-0.0796782
-0.0752951
-0.0708823
-0.0664477
-0.0620222
-0.057607
-0.0532394
-0.0489092
-0.0446636
-0.0404751
-0.0364066
-0.0324046
-0.0285581
-0.0247721
-0.0211795
-0.0176181
-0.0142945
-0.0109331
-0.0078653
-0.00462363
-0.00173637
-0.134308
-0.135634
-0.136859
-0.137992
-0.139027
-0.139959
-0.140784
-0.141501
-0.142109
-0.142606
-0.142987
-0.143252
-0.143396
-0.143418
-0.143314
-0.143081
-0.142715
-0.142213
-0.141572
-0.140789
-0.139859
-0.138779
-0.137545
-0.136153
-0.1346
-0.132881
-0.130995
-0.128937
-0.126707
-0.124302
-0.121723
-0.118969
-0.116044
-0.112949
-0.10969
-0.106273
-0.102706
-0.0989974
-0.09516
-0.0912039
-0.0871462
-0.0829979
-0.0787803
-0.0745037
-0.0701936
-0.065857
-0.0615245
-0.0571964
-0.0529098
-0.0486536
-0.0444757
-0.0403468
-0.0363319
-0.0323741
-0.0285664
-0.0248085
-0.0212395
-0.0176893
-0.0143732
-0.0110061
-0.007929
-0.00466677
-0.00175261
-0.130208
-0.131576
-0.132843
-0.134019
-0.135099
-0.136077
-0.13695
-0.137716
-0.138374
-0.138922
-0.139357
-0.139675
-0.139875
-0.139953
-0.139907
-0.139733
-0.139428
-0.138989
-0.138412
-0.137694
-0.136832
-0.135822
-0.134659
-0.133341
-0.131864
-0.130225
-0.128421
-0.126448
-0.124306
-0.121993
-0.119508
-0.116853
-0.114028
-0.111038
-0.107886
-0.104577
-0.101121
-0.097525
-0.0938006
-0.0899576
-0.0860122
-0.0819749
-0.0778661
-0.0736953
-0.0694873
-0.0652485
-0.0610088
-0.0567676
-0.0525622
-0.0483804
-0.0442705
-0.040202
-0.036241
-0.0323285
-0.0285601
-0.0248316
-0.0212866
-0.0177494
-0.0144414
-0.0110711
-0.00798522
-0.00470595
-0.00176617
-0.126165
-0.127569
-0.128875
-0.13009
-0.131211
-0.132232
-0.133149
-0.133962
-0.134668
-0.135264
-0.135749
-0.136119
-0.136372
-0.136506
-0.136516
-0.136399
-0.136154
-0.135776
-0.135262
-0.134609
-0.133813
-0.132871
-0.13178
-0.130535
-0.129134
-0.127573
-0.125849
-0.123961
-0.121906
-0.119684
-0.117293
-0.114734
-0.11201
-0.109122
-0.106075
-0.102875
-0.0995284
-0.096043
-0.0924302
-0.088699
-0.0848648
-0.0809375
-0.0769364
-0.0728706
-0.0687642
-0.0646225
-0.0604752
-0.056321
-0.0521968
-0.0480896
-0.0440481
-0.0400405
-0.036134
-0.0322677
-0.028539
-0.0248413
-0.0213209
-0.0177985
-0.014499
-0.011128
-0.00803413
-0.00474111
-0.00177731
-0.122183
-0.12362
-0.124959
-0.12621
-0.127368
-0.128428
-0.129387
-0.130242
-0.130992
-0.131635
-0.132168
-0.132588
-0.132892
-0.133078
-0.133142
-0.133082
-0.132895
-0.132576
-0.132124
-0.131534
-0.130804
-0.12993
-0.128908
-0.127735
-0.126409
-0.124926
-0.123283
-0.121478
-0.119509
-0.117376
-0.115078
-0.112615
-0.109989
-0.107203
-0.104261
-0.101166
-0.0979282
-0.0945523
-0.0910498
-0.0874291
-0.0837048
-0.0798862
-0.0759919
-0.0720302
-0.0680245
-0.0639795
-0.0599243
-0.0558568
-0.0518138
-0.0477815
-0.0438085
-0.0398624
-0.0360108
-0.0321916
-0.0285033
-0.0248375
-0.0213422
-0.0178364
-0.0145461
-0.0111768
-0.00807591
-0.0047722
-0.00178629
-0.118266
-0.119731
-0.1211
-0.122381
-0.123573
-0.124669
-0.125665
-0.12656
-0.127352
-0.128038
-0.128616
-0.129083
-0.129437
-0.129673
-0.12979
-0.129784
-0.129653
-0.129393
-0.129001
-0.128473
-0.127807
-0.126999
-0.126046
-0.124945
-0.123692
-0.122285
-0.120722
-0.118999
-0.117116
-0.115071
-0.112865
-0.110496
-0.107968
-0.105282
-0.102442
-0.0994532
-0.0963217
-0.0930538
-0.0896602
-0.0861485
-0.0825329
-0.0788217
-0.0750332
-0.0711746
-0.0672689
-0.06332
-0.0593564
-0.0553755
-0.0514135
-0.0474562
-0.043552
-0.0396678
-0.0358715
-0.0321002
-0.0284528
-0.0248202
-0.0213506
-0.0178631
-0.0145828
-0.0112174
-0.00811072
-0.00479923
-0.00179327
-0.114419
-0.115906
-0.1173
-0.118608
-0.11983
-0.120957
-0.121988
-0.12292
-0.123751
-0.124477
-0.125098
-0.12561
-0.126009
-0.126294
-0.126462
-0.126509
-0.126432
-0.126228
-0.125894
-0.125427
-0.124824
-0.124082
-0.123196
-0.122165
-0.120985
-0.119654
-0.118169
-0.116527
-0.114729
-0.112771
-0.110655
-0.10838
-0.105947
-0.10336
-0.100622
-0.0977361
-0.0947097
-0.0915485
-0.0882622
-0.0848582
-0.0813498
-0.0777449
-0.0740608
-0.0703045
-0.0664978
-0.0626444
-0.0587719
-0.0548772
-0.0509961
-0.0471139
-0.0432786
-0.0394569
-0.0357161
-0.0319936
-0.0283875
-0.0247894
-0.0213462
-0.0178785
-0.0146091
-0.0112498
-0.00813873
-0.00482219
-0.00179845
-0.110643
-0.112148
-0.113563
-0.114895
-0.116141
-0.117298
-0.11836
-0.119324
-0.12019
-0.120955
-0.121616
-0.122169
-0.122613
-0.122944
-0.12316
-0.123257
-0.123233
-0.123084
-0.122807
-0.1224
-0.121858
-0.121179
-0.12036
-0.119398
-0.11829
-0.117033
-0.115625
-0.114063
-0.112348
-0.110476
-0.108449
-0.106266
-0.103928
-0.101438
-0.0987998
-0.096016
-0.0930933
-0.0900371
-0.0868567
-0.0835588
-0.0801563
-0.0766563
-0.0730756
-0.0694204
-0.0657119
-0.0619532
-0.0581711
-0.0543624
-0.0505619
-0.0467548
-0.0429885
-0.0392296
-0.0355449
-0.0318718
-0.0283077
-0.024745
-0.021329
-0.0178826
-0.0146253
-0.0112741
-0.00816012
-0.00484111
-0.00180193
-0.106941
-0.108461
-0.109892
-0.111243
-0.112512
-0.113693
-0.114782
-0.115777
-0.116675
-0.117474
-0.118172
-0.118765
-0.119251
-0.119626
-0.119888
-0.120034
-0.12006
-0.119964
-0.119743
-0.119393
-0.118911
-0.118295
-0.11754