/*--------------------------------*- C++ -*----------------------------------*\
  =========                 |
  \\      /  F ield         | OpenFOAM: The Open Source CFD Toolbox
   \\    /   O peration     | Website:  https://openfoam.org
    \\  /    A nd           | Version:  7
     \\/     M anipulation  |
\*---------------------------------------------------------------------------*/
FoamFile
{
    version     2.0;
    format      ascii;
    class       volScalarField;
    location    "3.6";
    object      rho;
}
// * * * * * * * * * * * * * * * * * * * * * * * * * * * * * * * * * * * * * //

dimensions      [1 -3 0 0 0 0 0];

internalField   nonuniform List<scalar> 
100800
(
1.40001
1.40001
1.40001
1.40001
1.40001
1.40001
1.40001
1.40001
1.40001
1.40001
1.40001
1.40001
1.40001
1.40001
1.40001
1.40001
1.40001
1.40001
1.40001
1.40001
1.40001
1.40001
1.40001
1.40001
1.40001
1.40001
1.40001
1.40001
1.40001
1.40001
1.40001
1.40001
1.40001
1.40001
1.40001
1.40001
1.40001
1.40001
1.40001
1.40001
1.40001
1.40001
1.40001
1.40001
1.40001
1.40001
1.40001
1.40001
1.40001
1.40001
1.40001
1.40001
1.40001
1.40001
1.40001
1.40001
1.40001
1.40001
1.40001
1.40001
1.40001
3.05202
5.30393
5.40679
5.41805
5.43681
5.45674
5.4782
5.5013
5.52561
5.54972
5.57137
5.58845
5.60026
5.60855
5.61562
5.62383
5.63592
5.65192
5.66896
5.68627
5.70371
5.7217
5.73851
5.75127
5.76044
5.76857
5.77884
5.79256
5.80736
5.8215
5.8352
5.84711
5.85652
5.86421
5.87163
5.87976
5.88875
5.89846
5.90849
5.9181
5.92666
5.93396
5.94032
5.9464
5.95282
5.95992
5.96723
5.97377
5.97884
5.98278
5.98673
5.99129
5.99585
5.99878
5.99932
5.99795
5.99612
5.99544
5.99502
1.40001
1.40001
1.40001
1.40001
1.40001
1.40001
1.40001
1.40001
1.40001
1.40001
1.40001
1.40001
1.40001
1.40001
1.40001
1.40001
1.40001
1.40001
1.40001
1.40001
1.40001
1.40001
1.40001
1.40001
1.40001
1.40001
1.40001
1.40001
1.40001
1.40001
1.40001
1.40001
1.40001
1.40001
1.40001
1.40001
1.40001
1.40001
1.40001
1.40001
1.40001
1.40001
1.40001
1.40001
1.40001
1.40001
1.40001
1.40001
1.40001
1.40001
1.40001
1.40001
1.40001
1.40001
1.40001
1.40001
1.40001
1.40001
1.40001
1.40001
1.40001
3.03595
5.29804
5.40692
5.41829
5.43766
5.45757
5.47889
5.50167
5.52566
5.54953
5.57106
5.5881
5.5998
5.60783
5.61503
5.62349
5.63566
5.65165
5.66866
5.68602
5.70349
5.72149
5.73841
5.75122
5.76019
5.76809
5.77808
5.79182
5.80682
5.8213
5.83507
5.84679
5.85592
5.86349
5.87111
5.87962
5.88883
5.89836
5.90788
5.91696
5.9254
5.93315
5.94021
5.94668
5.95294
5.95937
5.96599
5.97237
5.97794
5.98257
5.98673
5.99085
5.99476
5.99752
5.99845
5.99766
5.99599
5.99481
5.99384
1.40001
1.40001
1.40001
1.40001
1.40001
1.40001
1.40001
1.40001
1.40001
1.40001
1.40001
1.40001
1.40001
1.40001
1.40001
1.40001
1.40001
1.40001
1.40001
1.40001
1.40001
1.40001
1.40001
1.40001
1.40001
1.40001
1.40001
1.40001
1.40001
1.40001
1.40001
1.40001
1.40001
1.40001
1.40001
1.40001
1.40001
1.40001
1.40001
1.40001
1.40001
1.40001
1.40001
1.40001
1.40001
1.40001
1.40001
1.40001
1.40001
1.40001
1.40001
1.40001
1.40001
1.40001
1.40001
1.40001
1.40001
1.40001
1.40001
1.40001
1.40001
3.00416
5.29251
5.40707
5.41795
5.43764
5.4576
5.47905
5.50147
5.52502
5.54865
5.5702
5.5874
5.59922
5.60718
5.61444
5.62299
5.63527
5.65114
5.66804
5.68535
5.70285
5.72098
5.73807
5.75086
5.75958
5.76716
5.77676
5.79054
5.80589
5.8209
5.83484
5.84633
5.85498
5.86219
5.86991
5.87893
5.88861
5.89816
5.9072
5.91557
5.92358
5.93159
5.93947
5.94671
5.95312
5.95892
5.96456
5.9704
5.97633
5.98181
5.98645
5.99024
5.99336
5.9957
5.99699
5.99693
5.99554
5.99382
5.99204
1.40001
1.40001
1.40001
1.40001
1.40001
1.40001
1.40001
1.40001
1.40001
1.40001
1.40001
1.40001
1.40001
1.40001
1.40001
1.40001
1.40001
1.40001
1.40001
1.40001
1.40001
1.40001
1.40001
1.40001
1.40001
1.40001
1.40001
1.40001
1.40001
1.40001
1.40001
1.40001
1.40001
1.40001
1.40001
1.40001
1.40001
1.40001
1.40001
1.40001
1.40001
1.40001
1.40001
1.40001
1.40001
1.40001
1.40001
1.40001
1.40001
1.40001
1.40001
1.40001
1.40001
1.40001
1.40001
1.40001
1.40001
1.40001
1.40001
1.40001
1.40001
2.95782
5.2838
5.40913
5.41803
5.43743
5.45721
5.47861
5.50078
5.52374
5.54712
5.56885
5.58649
5.59881
5.60692
5.61417
5.62268
5.63483
5.65031
5.66703
5.68427
5.70194
5.72028
5.73754
5.75022
5.75855
5.76571
5.77487
5.78874
5.80458
5.82029
5.83452
5.84586
5.85399
5.86065
5.86819
5.87752
5.88773
5.89754
5.90637
5.91424
5.92175
5.92965
5.93797
5.94593
5.95265
5.95805
5.96293
5.96821
5.97422
5.98028
5.98538
5.98898
5.99152
5.99349
5.99511
5.9956
5.99436
5.99222
5.98979
1.40001
1.40001
1.40001
1.40001
1.40001
1.40001
1.40001
1.40001
1.40001
1.40001
1.40001
1.40001
1.40001
1.40001
1.40001
1.40001
1.40001
1.40001
1.40001
1.40001
1.40001
1.40001
1.40001
1.40001
1.40001
1.40001
1.40001
1.40001
1.40001
1.40001
1.40001
1.40001
1.40001
1.40001
1.40001
1.40001
1.40001
1.40001
1.40001
1.40001
1.40001
1.40001
1.40001
1.40001
1.40001
1.40001
1.40001
1.40001
1.40001
1.40001
1.40001
1.40001
1.40001
1.40001
1.40001
1.40001
1.40001
1.40001
1.40001
1.40001
1.40001
2.89979
5.26623
5.41248
5.41768
5.43633
5.45596
5.47744
5.49952
5.52192
5.54502
5.56716
5.58553
5.59863
5.60718
5.61431
5.62267
5.63441
5.64929
5.66584
5.68304
5.70088
5.71937
5.73672
5.74921
5.75709
5.76383
5.77257
5.78638
5.80256
5.81893
5.83356
5.84493
5.85271
5.8588
5.86586
5.87507
5.88561
5.89593
5.90505
5.91288
5.92009
5.92763
5.93588
5.94417
5.95133
5.9569
5.96155
5.96637
5.97204
5.97811
5.9834
5.98708
5.98947
5.9913
5.99294
5.99354
5.99232
5.98995
5.98731
1.40001
1.40001
1.40001
1.40001
1.40001
1.40001
1.40001
1.40001
1.40001
1.40001
1.40001
1.40001
1.40001
1.40001
1.40001
1.40001
1.40001
1.40001
1.40001
1.40001
1.40001
1.40001
1.40001
1.40001
1.40001
1.40001
1.40001
1.40001
1.40001
1.40001
1.40001
1.40001
1.40001
1.40001
1.40001
1.40001
1.40001
1.40001
1.40001
1.40001
1.40001
1.40001
1.40001
1.40001
1.40001
1.40001
1.40001
1.40001
1.40001
1.40001
1.40001
1.40001
1.40001
1.40001
1.40001
1.40001
1.40001
1.40001
1.40001
1.40001
1.40001
2.83064
5.23817
5.41547
5.41699
5.43499
5.45416
5.47521
5.49741
5.51995
5.54293
5.56544
5.58464
5.59862
5.60768
5.61455
5.62257
5.63357
5.64781
5.6644
5.6817
5.69976
5.71827
5.73555
5.74783
5.7554
5.76198
5.77051
5.78411
5.80027
5.81694
5.83189
5.84353
5.85137
5.85722
5.86374
5.87234
5.88262
5.89324
5.90299
5.91133
5.91861
5.92569
5.93324
5.94115
5.94862
5.95487
5.95994
5.96462
5.96968
5.97516
5.98032
5.98434
5.98713
5.98909
5.99043
5.99064
5.98928
5.98702
5.98471
1.40001
1.40001
1.40001
1.40001
1.40001
1.40001
1.40001
1.40001
1.40001
1.40001
1.40001
1.40001
1.40001
1.40001
1.40001
1.40001
1.40001
1.40001
1.40001
1.40001
1.40001
1.40001
1.40001
1.40001
1.40001
1.40001
1.40001
1.40001
1.40001
1.40001
1.40001
1.40001
1.40001
1.40001
1.40001
1.40001
1.40001
1.40001
1.40001
1.40001
1.40001
1.40001
1.40001
1.40001
1.40001
1.40001
1.40001
1.40001
1.40001
1.40001
1.40001
1.40001
1.40001
1.40001
1.40001
1.40001
1.40001
1.40001
1.40001
1.40001
1.40001
2.748
5.20292
5.4174
5.41618
5.43423
5.45258
5.4728
5.49481
5.5177
5.54093
5.5637
5.58371
5.5987
5.60837
5.615
5.62245
5.63252
5.64627
5.66304
5.68045
5.69855
5.71672
5.73363
5.74573
5.75324
5.76007
5.76874
5.7821
5.79787
5.81427
5.82917
5.84107
5.84934
5.85542
5.86172
5.86964
5.87921
5.88965
5.89989
5.90904
5.91685
5.92379
5.93058
5.93768
5.94501
5.9519
5.95776
5.96264
5.96712
5.97171
5.97646
5.98084
5.98432
5.98659
5.98755
5.98713
5.98557
5.98372
5.98219
1.40001
1.40001
1.40001
1.40001
1.40001
1.40001
1.40001
1.40001
1.40001
1.40001
1.40001
1.40001
1.40001
1.40001
1.40001
1.40001
1.40001
1.40001
1.40001
1.40001
1.40001
1.40001
1.40001
1.40001
1.40001
1.40001
1.40001
1.40001
1.40001
1.40001
1.40001
1.40001
1.40001
1.40001
1.40001
1.40001
1.40001
1.40001
1.40001
1.40001
1.40001
1.40001
1.40001
1.40001
1.40001
1.40001
1.40001
1.40001
1.40001
1.40001
1.40001
1.40001
1.40001
1.40001
1.40001
1.40001
1.40001
1.40001
1.40001
1.40001
1.40001
2.64794
5.16619
5.41933
5.41694
5.43511
5.45173
5.47067
5.49187
5.51487
5.53844
5.5616
5.58245
5.59858
5.60909
5.6158
5.62253
5.63169
5.64497
5.66174
5.67916
5.69704
5.71465
5.73104
5.74312
5.7509
5.75835
5.76741
5.7806
5.79577
5.8114
5.82573
5.83758
5.84637
5.85312
5.85971
5.86727
5.87602
5.88572
5.89585
5.90558
5.91418
5.92146
5.92789
5.93419
5.94096
5.94805
5.95465
5.96004
5.96432
5.96821
5.97244
5.97695
5.98097
5.9835
5.98411
5.98308
5.98135
5.98
5.97929
1.40001
1.40001
1.40001
1.40001
1.40001
1.40001
1.40001
1.40001
1.40001
1.40001
1.40001
1.40001
1.40001
1.40001
1.40001
1.40001
1.40001
1.40001
1.40001
1.40001
1.40001
1.40001
1.40001
1.40001
1.40001
1.40001
1.40001
1.40001
1.40001
1.40001
1.40001
1.40001
1.40001
1.40001
1.40001
1.40001
1.40001
1.40001
1.40001
1.40001
1.40001
1.40001
1.40001
1.40001
1.40001
1.40001
1.40001
1.40001
1.40001
1.40001
1.40001
1.40001
1.40001
1.40001
1.40001
1.40001
1.40001
1.40001
1.40001
1.40001
1.40001
2.53122
5.13078
5.42211
5.42023
5.43745
5.4519
5.46946
5.48927
5.51164
5.53512
5.55842
5.57995
5.5973
5.60907
5.6164
5.62272
5.63113
5.6436
5.65991
5.67734
5.69485
5.71192
5.72778
5.74
5.74823
5.75642
5.76593
5.77906
5.79372
5.80849
5.82192
5.83327
5.84226
5.8498
5.85718
5.86501
5.87331
5.8821
5.89144
5.90106
5.91029
5.9184
5.92518
5.93114
5.93715
5.94374
5.95049
5.9564
5.96094
5.9646
5.96838
5.97268
5.97679
5.9794
5.97987
5.97857
5.97683
5.97592
5.97576
1.40001
1.40001
1.40001
1.40001
1.40001
1.40001
1.40001
1.40001
1.40001
1.40001
1.40001
1.40001
1.40001
1.40001
1.40001
1.40001
1.40001
1.40001
1.40001
1.40001
1.40001
1.40001
1.40001
1.40001
1.40001
1.40001
1.40001
1.40001
1.40001
1.40001
1.40001
1.40001
1.40001
1.40001
1.40001
1.40001
1.40001
1.40001
1.40001
1.40001
1.40001
1.40001
1.40001
1.40001
1.40001
1.40001
1.40001
1.40001
1.40001
1.40001
1.40001
1.40001
1.40001
1.40001
1.40001
1.40001
1.40001
1.40001
1.40001
1.40001
1.40001
2.40286
5.08588
5.427
5.42636
5.44122
5.45303
5.46881
5.48708
5.50852
5.53158
5.55464
5.57636
5.59481
5.60823
5.61682
5.62342
5.6313
5.64259
5.65779
5.6748
5.69187
5.70865
5.72418
5.73669
5.74539
5.75407
5.76383
5.77695
5.79147
5.80578
5.81846
5.829
5.83755
5.84535
5.85353
5.86216
5.87067
5.87885
5.88708
5.8958
5.905
5.91395
5.92171
5.92801
5.93353
5.93924
5.94547
5.95158
5.9567
5.96068
5.9643
5.96816
5.97191
5.97442
5.97496
5.97381
5.97222
5.97151
5.9715
1.40001
1.40001
1.40001
1.40001
1.40001
1.40001
1.40001
1.40001
1.40001
1.40001
1.40001
1.40001
1.40001
1.40001
1.40001
1.40001
1.40001
1.40001
1.40001
1.40001
1.40001
1.40001
1.40001
1.40001
1.40001
1.40001
1.40001
1.40001
1.40001
1.40001
1.40001
1.40001
1.40001
1.40001
1.40001
1.40001
1.40001
1.40001
1.40001
1.40001
1.40001
1.40001
1.40001
1.40001
1.40001
1.40001
1.40001
1.40001
1.40001
1.40001
1.40001
1.40001
1.40001
1.40001
1.40001
1.40001
1.40001
1.40001
1.40001
1.40001
1.40001
2.26945
5.01861
5.43087
5.43306
5.4466
5.45624
5.46929
5.48532
5.50512
5.52747
5.55011
5.57174
5.59103
5.60624
5.61675
5.62422
5.63183
5.64183
5.65545
5.67156
5.68834
5.70512
5.72064
5.73364
5.74285
5.75158
5.76105
5.77382
5.7884
5.80283
5.81532
5.82525
5.83301
5.84027
5.84861
5.85806
5.8674
5.8757
5.88318
5.89071
5.89912
5.90832
5.91713
5.92435
5.92991
5.93481
5.94008
5.94589
5.95149
5.95612
5.95985
5.96322
5.96633
5.96857
5.96936
5.96871
5.96744
5.96664
5.96643
1.40001
1.40001
1.40001
1.40001
1.40001
1.40001
1.40001
1.40001
1.40001
1.40001
1.40001
1.40001
1.40001
1.40001
1.40001
1.40001
1.40001
1.40001
1.40001
1.40001
1.40001
1.40001
1.40001
1.40001
1.40001
1.40001
1.40001
1.40001
1.40001
1.40001
1.40001
1.40001
1.40001
1.40001
1.40001
1.40001
1.40001
1.40001
1.40001
1.40001
1.40001
1.40001
1.40001
1.40001
1.40001
1.40001
1.40001
1.40001
1.40001
1.40001
1.40001
1.40001
1.40001
1.40001
1.40001
1.40001
1.40001
1.40001
1.40001
1.40001
1.40001
2.13334
4.93214
5.43301
5.43702
5.45075
5.45995
5.47099
5.48467
5.50213
5.52305
5.54504
5.56647
5.58641
5.6033
5.61592
5.6247
5.63229
5.64124
5.6531
5.66786
5.6843
5.70118
5.71704
5.73078
5.74069
5.7492
5.7579
5.76964
5.784
5.7989
5.81194
5.82191
5.82915
5.83551
5.84312
5.85267
5.86287
5.87195
5.87942
5.88608
5.89329
5.90186
5.91112
5.91936
5.92555
5.9302
5.93466
5.93983
5.94554
5.95074
5.95475
5.95773
5.96017
5.96213
5.96321
5.96317
5.96234
5.9613
5.96075
1.40001
1.40001
1.40001
1.40001
1.40001
1.40001
1.40001
1.40001
1.40001
1.40001
1.40001
1.40001
1.40001
1.40001
1.40001
1.40001
1.40001
1.40001
1.40001
1.40001
1.40001
1.40001
1.40001
1.40001
1.40001
1.40001
1.40001
1.40001
1.40001
1.40001
1.40001
1.40001
1.40001
1.40001
1.40001
1.40001
1.40001
1.40001
1.40001
1.40001
1.40001
1.40001
1.40001
1.40001
1.40001
1.40001
1.40001
1.40001
1.40001
1.40001
1.40001
1.40001
1.40001
1.40001
1.40001
1.40001
1.40001
1.40001
1.40001
1.40001
1.40001
1.99583
4.83046
5.43194
5.43739
5.45214
5.46211
5.47262
5.48459
5.50001
5.519
5.53992
5.56098
5.58121
5.59928
5.61354
5.62387
5.63199
5.64035
5.65071
5.66396
5.67967
5.6965
5.7128
5.7275
5.7385
5.74706
5.75506
5.76524
5.77854
5.79349
5.80742
5.81824
5.82571
5.83149
5.83794
5.84658
5.85691
5.86692
5.87514
5.8817
5.88797
5.89537
5.90415
5.91292
5.92003
5.92511
5.92926
5.93377
5.93908
5.94439
5.9486
5.9514
5.95339
5.95514
5.95654
5.95706
5.95658
5.95536
5.9546
1.40001
1.40001
1.40001
1.40001
1.40001
1.40001
1.40001
1.40001
1.40001
1.40001
1.40001
1.40001
1.40001
1.40001
1.40001
1.40001
1.40001
1.40001
1.40001
1.40001
1.40001
1.40001
1.40001
1.40001
1.40001
1.40001
1.40001
1.40001
1.40001
1.40001
1.40001
1.40001
1.40001
1.40001
1.40001
1.40001
1.40001
1.40001
1.40001
1.40001
1.40001
1.40001
1.40001
1.40001
1.40001
1.40001
1.40001
1.40001
1.40001
1.40001
1.40001
1.40001
1.40001
1.40001
1.40001
1.40001
1.40001
1.40001
1.40001
1.40001
1.40001
1.86031
4.71514
5.42857
5.43556
5.45109
5.4623
5.47346
5.48512
5.4991
5.51612
5.53551
5.55577
5.57577
5.59434
5.6099
5.62179
5.63091
5.63924
5.64858
5.66033
5.67481
5.69104
5.70746
5.72307
5.73559
5.74487
5.75277
5.7615
5.77296
5.78679
5.80106
5.81317
5.82185
5.82794
5.83356
5.84074
5.85011
5.86039
5.86964
5.87692
5.8829
5.88916
5.89676
5.90525
5.91307
5.91907
5.92356
5.92771
5.93235
5.93724
5.94141
5.94421
5.94606
5.94775
5.94935
5.95022
5.95002
5.94879
5.94808
1.40001
1.40001
1.40001
1.40001
1.40001
1.40001
1.40001
1.40001
1.40001
1.40001
1.40001
1.40001
1.40001
1.40001
1.40001
1.40001
1.40001
1.40001
1.40001
1.40001
1.40001
1.40001
1.40001
1.40001
1.40001
1.40001
1.40001
1.40001
1.40001
1.40001
1.40001
1.40001
1.40001
1.40001
1.40001
1.40001
1.40001
1.40001
1.40001
1.40001
1.40001
1.40001
1.40001
1.40001
1.40001
1.40001
1.40001
1.40001
1.40001
1.40001
1.40001
1.40001
1.40001
1.40001
1.40001
1.40001
1.40001
1.40001
1.40001
1.40001
1.40001
1.73131
4.58331
5.42723
5.43393
5.44934
5.46146
5.47349
5.48552
5.49885
5.51442
5.53227
5.55141
5.57073
5.58911
5.60521
5.61822
5.62849
5.63742
5.64655
5.65737
5.67059
5.68569
5.70144
5.71712
5.73106
5.74166
5.75039
5.75851
5.76823
5.78009
5.79349
5.80635
5.81668
5.82404
5.82968
5.83561
5.84334
5.85284
5.86263
5.87099
5.87748
5.88313
5.88943
5.89696
5.90493
5.9119
5.91721
5.92139
5.92536
5.92945
5.93324
5.93611
5.93809
5.93983
5.94153
5.94255
5.94257
5.94155
5.94116
1.40001
1.40001
1.40001
1.40001
1.40001
1.40001
1.40001
1.40001
1.40001
1.40001
1.40001
1.40001
1.40001
1.40001
1.40001
1.40001
1.40001
1.40001
1.40001
1.40001
1.40001
1.40001
1.40001
1.40001
1.40001
1.40001
1.40001
1.40001
1.40001
1.40001
1.40001
1.40001
1.40001
1.40001
1.40001
1.40001
1.40001
1.40001
1.40001
1.40001
1.40001
1.40001
1.40001
1.40001
1.40001
1.40001
1.40001
1.40001
1.40001
1.40001
1.40001
1.40001
1.40001
1.40001
1.40001
1.40001
1.40001
1.40001
1.40001
1.40001
1.40001
1.61589
4.43748
5.4246
5.43007
5.44411
5.45731
5.47071
5.48387
5.49775
5.51296
5.52976
5.54765
5.56581
5.58336
5.59933
5.61299
5.62443
5.63461
5.64451
5.65524
5.66753
5.68121
5.69546
5.70988
5.72436
5.7365
5.74698
5.75573
5.76463
5.77457
5.78608
5.79833
5.80965
5.81867
5.82529
5.83083
5.8371
5.84514
5.85455
5.86366
5.87105
5.87678
5.88217
5.88853
5.89605
5.90361
5.90987
5.91444
5.91796
5.92119
5.92438
5.92721
5.92945
5.93132
5.93296
5.934
5.93423
5.93352
5.93367
1.40001
1.40001
1.40001
1.40001
1.40001
1.40001
1.40001
1.40001
1.40001
1.40001
1.40001
1.40001
1.40001
1.40001
1.40001
1.40001
1.40001
1.40001
1.40001
1.40001
1.40001
1.40001
1.40001
1.40001
1.40001
1.40001
1.40001
1.40001
1.40001
1.40001
1.40001
1.40001
1.40001
1.40001
1.40001
1.40001
1.40001
1.40001
1.40001
1.40001
1.40001
1.40001
1.40001
1.40001
1.40001
1.40001
1.40001
1.40001
1.40001
1.40001
1.40001
1.40001
1.40001
1.40001
1.40001
1.40001
1.40001
1.40001
1.40001
1.40001
1.40001
1.5026
4.268
5.42052
5.42741
5.43881
5.45286
5.46732
5.4815
5.49589
5.51081
5.52668
5.54342
5.56045
5.57715
5.59282
5.60668
5.61871
5.62991
5.64095
5.6524
5.66461
5.67745
5.69032
5.70282
5.71642
5.72918
5.74141
5.75179
5.7612
5.77021
5.77984
5.79038
5.80129
5.81131
5.81937
5.82556
5.83122
5.83787
5.84614
5.85515
5.86324
5.86952
5.87465
5.88013
5.88689
5.89448
5.90141
5.90651
5.90987
5.9124
5.91492
5.91758
5.92003
5.92206
5.92359
5.92454
5.92498
5.92473
5.92551
1.40001
1.40001
1.40001
1.40001
1.40001
1.40001
1.40001
1.40001
1.40001
1.40001
1.40001
1.40001
1.40001
1.40001
1.40001
1.40001
1.40001
1.40001
1.40001
1.40001
1.40001
1.40001
1.40001
1.40001
1.40001
1.40001
1.40001
1.40001
1.40001
1.40001
1.40001
1.40001
1.40001
1.40001
1.40001
1.40001
1.40001
1.40001
1.40001
1.40001
1.40001
1.40001
1.40001
1.40001
1.40001
1.40001
1.40001
1.40001
1.40001
1.40001
1.40001
1.40001
1.40001
1.40001
1.40001
1.40001
1.40001
1.40001
1.40001
1.40001
1.40001
1.407
4.08036
5.38727
5.40775
5.42388
5.44125
5.45799
5.47401
5.48935
5.50457
5.52021
5.53648
5.55312
5.56958
5.5852
5.59927
5.61161
5.62321
5.63504
5.64752
5.66054
5.67364
5.68605
5.69717
5.70888
5.72073
5.73344
5.7455
5.75658
5.76616
5.77486
5.78352
5.79278
5.80245
5.81148
5.81897
5.82511
5.83106
5.83798
5.84603
5.85414
5.86101
5.86647
5.87161
5.87765
5.8848
5.89188
5.8974
5.90085
5.903
5.90499
5.90735
5.90984
5.91197
5.91337
5.91417
5.91477
5.91504
5.91637
1.40001
1.40001
1.40001
1.40001
1.40001
1.40001
1.40001
1.40001
1.40001
1.40001
1.40001
1.40001
1.40001
1.40001
1.40001
1.40001
1.40001
1.40001
1.40001
1.40001
1.40001
1.40001
1.40001
1.40001
1.40001
1.40001
1.40001
1.40001
1.40001
1.40001
1.40001
1.40001
1.40001
1.40001
1.40001
1.40001
1.40001
1.40001
1.40001
1.40001
1.40001
1.40001
1.40001
1.40001
1.40001
1.40001
1.40001
1.40001
1.40001
1.40001
1.40001
1.40001
1.40001
1.40001
1.40001
1.40001
1.40001
1.40001
1.40001
1.40001
1.40001
1.40007
3.83204
5.34405
5.38739
5.41001
5.43125
5.44958
5.46613
5.48161
5.49689
5.5124
5.52847
5.54503
5.56168
5.57785
5.59242
5.60481
5.61597
5.62739
5.63998
5.65373
5.66787
5.68113
5.69224
5.70251
5.71275
5.7244
5.73692
5.74956
5.76076
5.76988
5.77744
5.78481
5.79307
5.80207
5.81072
5.81804
5.82415
5.83007
5.83675
5.84414
5.85124
5.85731
5.86264
5.86825
5.87472
5.88147
5.8871
5.89075
5.89282
5.89446
5.89647
5.89882
5.90091
5.90224
5.90296
5.90373
5.90445
5.90615
1.40001
1.40001
1.40001
1.40001
1.40001
1.40001
1.40001
1.40001
1.40001
1.40001
1.40001
1.40001
1.40001
1.40001
1.40001
1.40001
1.40001
1.40001
1.40001
1.40001
1.40001
1.40001
1.40001
1.40001
1.40001
1.40001
1.40001
1.40001
1.40001
1.40001
1.40001
1.40001
1.40001
1.40001
1.40001
1.40001
1.40001
1.40001
1.40001
1.40001
1.40001
1.40001
1.40001
1.40001
1.40001
1.40001
1.40001
1.40001
1.40001
1.40001
1.40001
1.40001
1.40001
1.40001
1.40001
1.40001
1.40001
1.40001
1.40001
1.40001
1.40001
1.4
3.55235
5.30717
5.37274
5.396
5.41914
5.43956
5.45779
5.47419
5.48959
5.50451
5.51989
5.53608
5.5527
5.56911
5.58427
5.59728
5.60852
5.61927
5.63081
5.64402
5.65871
5.67352
5.68615
5.69647
5.70569
5.71572
5.72732
5.74027
5.75293
5.76344
5.77119
5.77738
5.78396
5.79202
5.80105
5.80956
5.81644
5.82199
5.82741
5.83365
5.8405
5.84709
5.85294
5.85844
5.86424
5.87032
5.87574
5.87954
5.88171
5.8832
5.88489
5.88693
5.88885
5.89011
5.89083
5.89174
5.89276
5.89462
1.40001
1.40001
1.40001
1.40001
1.40001
1.40001
1.40001
1.40001
1.40001
1.40001
1.40001
1.40001
1.40001
1.40001
1.40001
1.40001
1.40001
1.40001
1.40001
1.40001
1.40001
1.40001
1.40001
1.40001
1.40001
1.40001
1.40001
1.40001
1.40001
1.40001
1.40001
1.40001
1.40001
1.40001
1.40001
1.40001
1.40001
1.40001
1.40001
1.40001
1.40001
1.40001
1.40001
1.40001
1.40001
1.40001
1.40001
1.40001
1.40001
1.40001
1.40001
1.40001
1.40001
1.40001
1.40001
1.40001
1.40001
1.40001
1.40001
1.40001
1.40001
1.40001
3.25246
5.27356
5.36588
5.38989
5.41176
5.43174
5.44981
5.46637
5.48172
5.49624
5.51093
5.52658
5.54315
5.55991
5.57586
5.58963
5.60107
5.61131
5.62176
5.63374
5.64763
5.66301
5.67738
5.68915
5.69873
5.70775
5.71801
5.72998
5.74287
5.75459
5.76342
5.76959
5.77514
5.78201
5.79064
5.79975
5.80748
5.81316
5.81778
5.82287
5.82912
5.83594
5.84233
5.84795
5.85321
5.85848
5.86339
5.86718
5.86952
5.871
5.8724
5.87408
5.87575
5.87694
5.87773
5.87879
5.87999
5.88189
1.40001
1.40001
1.40001
1.40001
1.40001
1.40001
1.40001
1.40001
1.40001
1.40001
1.40001
1.40001
1.40001
1.40001
1.40001
1.40001
1.40001
1.40001
1.40001
1.40001
1.40001
1.40001
1.40001
1.40001
1.40001
1.40001
1.40001
1.40001
1.40001
1.40001
1.40001
1.40001
1.40001
1.40001
1.40001
1.40001
1.40001
1.40001
1.40001
1.40001
1.40001
1.40001
1.40001
1.40001
1.40001
1.40001
1.40001
1.40001
1.40001
1.40001
1.40001
1.40001
1.40001
1.40001
1.40001
1.40001
1.40001
1.40001
1.40001
1.40001
1.40001
1.40001
2.93745
5.22385
5.37195
5.39042
5.40941
5.42821
5.44612
5.46217
5.47646
5.48983
5.50312
5.51743
5.53296
5.54941
5.56597
5.58104
5.59362
5.60447
5.61431
5.62463
5.63647
5.65063
5.66566
5.67913
5.69034
5.6996
5.709
5.71953
5.73149
5.74349
5.75349
5.7606
5.76609
5.77211
5.77989
5.78883
5.79706
5.80315
5.80751
5.8118
5.81732
5.82402
5.83073
5.83652
5.8414
5.84589
5.85016
5.85377
5.85623
5.85775
5.85893
5.86022
5.86157
5.86266
5.86351
5.86467
5.86592
5.86772
1.40001
1.40001
1.40001
1.40001
1.40001
1.40001
1.40001
1.40001
1.40001
1.40001
1.40001
1.40001
1.40001
1.40001
1.40001
1.40001
1.40001
1.40001
1.40001
1.40001
1.40001
1.40001
1.40001
1.40001
1.40001
1.40001
1.40001
1.40001
1.40001
1.40001
1.40001
1.40001
1.40001
1.40001
1.40001
1.40001
1.40001
1.40001
1.40001
1.40001
1.40001
1.40001
1.40001
1.40001
1.40001
1.40001
1.40001
1.40001
1.40001
1.40001
1.40001
1.40001
1.40001
1.40001
1.40001
1.40001
1.40001
1.40001
1.40001
1.40001
1.40001
1.40001
2.6121
5.1362
5.38754
5.40072
5.41663
5.43191
5.44731
5.46176
5.47506
5.48759
5.49986
5.51254
5.52614
5.54032
5.55525
5.57067
5.58466
5.59682
5.60711
5.61669
5.62657
5.63841
5.6528
5.66707
5.68002
5.69042
5.6997
5.70904
5.71957
5.73096
5.7416
5.74992
5.75611
5.76185
5.76877
5.77707
5.78535
5.7919
5.79644
5.80032
5.80516
5.81141
5.8181
5.82397
5.82859
5.83245
5.83605
5.83931
5.84176
5.84327
5.84421
5.84513
5.84617
5.84718
5.8481
5.84933
5.85056
5.85221
1.40001
1.40001
1.40001
1.40001
1.40001
1.40001
1.40001
1.40001
1.40001
1.40001
1.40001
1.40001
1.40001
1.40001
1.40001
1.40001
1.40001
1.40001
1.40001
1.40001
1.40001
1.40001
1.40001
1.40001
1.40001
1.40001
1.40001
1.40001
1.40001
1.40001
1.40001
1.40001
1.40001
1.40001
1.40001
1.40001
1.40001
1.40001
1.40001
1.40001
1.40001
1.40001
1.40001
1.40001
1.40001
1.40001
1.40001
1.40001
1.40001
1.40001
1.40001
1.40001
1.40001
1.40001
1.40001
1.40001
1.40001
1.40001
1.40001
1.40001
1.40001
1.40001
2.29804
5.00331
5.41017
5.41714
5.42887
5.43986
5.45195
5.46424
5.47666
5.48893
5.50078
5.51213
5.52376
5.53598
5.54823
5.56144
5.57521
5.58838
5.59989
5.60929
5.61786
5.62743
5.64018
5.65441
5.66819
5.67977
5.68947
5.69804
5.70723
5.71764
5.72833
5.73763
5.74479
5.75069
5.75696
5.76444
5.77244
5.77937
5.78436
5.78821
5.7925
5.79809
5.80443
5.81019
5.81464
5.81803
5.82103
5.82384
5.82611
5.82751
5.82819
5.82876
5.8295
5.83041
5.83136
5.83255
5.83362
5.83502
1.40001
1.40001
1.40001
1.40001
1.40001
1.40001
1.40001
1.40001
1.40001
1.40001
1.40001
1.40001
1.40001
1.40001
1.40001
1.40001
1.40001
1.40001
1.40001
1.40001
1.40001
1.40001
1.40001
1.40001
1.40001
1.40001
1.40001
1.40001
1.40001
1.40001
1.40001
1.40001
1.40001
1.40001
1.40001
1.40001
1.40001
1.40001
1.40001
1.40001
1.40001
1.40001
1.40001
1.40001
1.40001
1.40001
1.40001
1.40001
1.40001
1.40001
1.40001
1.40001
1.40001
1.40001
1.40001
1.40001
1.40001
1.40001
1.40001
1.40001
1.40001
1.40001
1.99683
4.83585
5.43957
5.43406
5.44546
5.45351
5.46228
5.47043
5.47953
5.49057
5.50326
5.51579
5.52655
5.53591
5.5451
5.5555
5.56715
5.5799
5.5924
5.60285
5.61094
5.61855
5.62856
5.64168
5.65535
5.66758
5.67776
5.68619
5.69437
5.70378
5.71421
5.72408
5.73207
5.7383
5.74417
5.7509
5.75849
5.76567
5.77122
5.77529
5.77918
5.78402
5.78972
5.79516
5.79942
5.80248
5.80496
5.80724
5.80914
5.81023
5.81059
5.81082
5.81134
5.8122
5.81318
5.81426
5.81508
5.81621
1.40001
1.40001
1.40001
1.40001
1.40001
1.40001
1.40001
1.40001
1.40001
1.40001
1.40001
1.40001
1.40001
1.40001
1.40001
1.40001
1.40001
1.40001
1.40001
1.40001
1.40001
1.40001
1.40001
1.40001
1.40001
1.40001
1.40001
1.40001
1.40001
1.40001
1.40001
1.40001
1.40001
1.40001
1.40001
1.40001
1.40001
1.40001
1.40001
1.40001
1.40001
1.40001
1.40001
1.40001
1.40001
1.40001
1.40001
1.40001
1.40001
1.40001
1.40001
1.40001
1.40001
1.40001
1.40001
1.40001
1.40001
1.40001
1.40001
1.40001
1.40001
1.40001
1.71913
4.63252
5.46458
5.43657
5.44629
5.45329
5.46428
5.47407
5.48261
5.49207
5.5037
5.51733
5.53079
5.54098
5.54776
5.55372
5.56166
5.57215
5.58461
5.59625
5.60515
5.612
5.61964
5.63004
5.64244
5.65452
5.66492
5.67326
5.68092
5.68957
5.69945
5.70944
5.71797
5.72456
5.73023
5.73641
5.74356
5.75084
5.75689
5.76129
5.76493
5.76903
5.77392
5.77886
5.78286
5.78566
5.78771
5.78943
5.79082
5.79147
5.79143
5.79134
5.79168
5.79245
5.79334
5.79414
5.79456
5.79531
1.40001
1.40001
1.40001
1.40001
1.40001
1.40001
1.40001
1.40001
1.40001
1.40001
1.40001
1.40001
1.40001
1.40001
1.40001
1.40001
1.40001
1.40001
1.40001
1.40001
1.40001
1.40001
1.40001
1.40001
1.40001
1.40001
1.40001
1.40001
1.40001
1.40001
1.40001
1.40001
1.40001
1.40001
1.40001
1.40001
1.40001
1.40001
1.40001
1.40001
1.40001
1.40001
1.40001
1.40001
1.40001
1.40001
1.40001
1.40001
1.40001
1.40001
1.40001
1.40001
1.40001
1.40001
1.40001
1.40001
1.40001
1.40001
1.40001
1.40001
1.40001
1.40001
1.49949
4.35064
5.4381
5.42325
5.43913
5.45121
5.46252
5.4709
5.47795
5.48742
5.50009
5.51586
5.53195
5.54474
5.55283
5.55694
5.56077
5.56716
5.5775
5.58958
5.59971
5.60671
5.61276
5.62063
5.6308
5.64182
5.65204
5.6603
5.66718
5.67486
5.68417
5.69396
5.70263
5.70945
5.7151
5.72095
5.72773
5.73495
5.74131
5.74601
5.74952
5.75298
5.75704
5.76131
5.76493
5.76744
5.76905
5.77019
5.77088
5.77087
5.77035
5.76995
5.77016
5.77085
5.77163
5.77206
5.77203
5.77248
1.40001
1.40001
1.40001
1.40001
1.40001
1.40001
1.40001
1.40001
1.40001
1.40001
1.40001
1.40001
1.40001
1.40001
1.40001
1.40001
1.40001
1.40001
1.40001
1.40001
1.40001
1.40001
1.40001
1.40001
1.40001
1.40001
1.40001
1.40001
1.40001
1.40001
1.40001
1.40001
1.40001
1.40001
1.40001
1.40001
1.40001
1.40001
1.40001
1.40001
1.40001
1.40001
1.40001
1.40001
1.40001
1.40001
1.40001
1.40001
1.40001
1.40001
1.40001
1.40001
1.40001
1.40001
1.40001
1.40001
1.40001
1.40001
1.40001
1.40001
1.40001
1.40001
1.40427
3.99737
5.35261
5.37023
5.39493
5.41989
5.44459
5.46392
5.47632
5.484
5.49336
5.50818
5.52657
5.5436
5.555
5.55994
5.56212
5.56542
5.57255
5.58355
5.5945
5.60233
5.60758
5.61313
5.62084
5.63023
5.63966
5.64759
5.65389
5.66029
5.66841
5.67766
5.68629
5.69319
5.69883
5.7045
5.71098
5.71799
5.72441
5.72926
5.73269
5.73566
5.73895
5.74249
5.74559
5.74769
5.7488
5.74932
5.7493
5.74859
5.74756
5.74684
5.74682
5.74724
5.74759
5.74745
5.74694
5.74704
1.40001
1.40001
1.40001
1.40001
1.40001
1.40001
1.40001
1.40001
1.40001
1.40001
1.40001
1.40001
1.40001
1.40001
1.40001
1.40001
1.40001
1.40001
1.40001
1.40001
1.40001
1.40001
1.40001
1.40001
1.40001
1.40001
1.40001
1.40001
1.40001
1.40001
1.40001
1.40001
1.40001
1.40001
1.40001
1.40001
1.40001
1.40001
1.40001
1.40001
1.40001
1.40001
1.40001
1.40001
1.40001
1.40001
1.40001
1.40001
1.40001
1.40001
1.40001
1.40001
1.40001
1.40001
1.40001
1.40001
1.40001
1.40001
1.40001
1.40001
1.40001
1.40001
1.40003
3.59905
5.28078
5.32984
5.36214
5.39607
5.42649
5.44968
5.46488
5.47337
5.48291
5.49756
5.51572
5.53475
5.54967
5.55801
5.56163
5.56426
5.56931
5.57871
5.58961
5.59818
5.60338
5.60737
5.61265
5.62003
5.62818
5.63531
5.6409
5.64615
5.65296
5.66129
5.66944
5.67618
5.68173
5.68718
5.69331
5.69995
5.70615
5.71095
5.71427
5.71687
5.71953
5.72235
5.7248
5.7263
5.72678
5.7266
5.7257
5.7242
5.72255
5.72138
5.72101
5.72105
5.72089
5.72023
5.71928
5.71918
1.40001
1.40001
1.40001
1.40001
1.40001
1.40001
1.40001
1.40001
1.40001
1.40001
1.40001
1.40001
1.40001
1.40001
1.40001
1.40001
1.40001
1.40001
1.40001
1.40001
1.40001
1.40001
1.40001
1.40001
1.40001
1.40001
1.40001
1.40001
1.40001
1.40001
1.40001
1.40001
1.40001
1.40001
1.40001
1.40001
1.40001
1.40001
1.40001
1.40001
1.40001
1.40001
1.40001
1.40001
1.40001
1.40001
1.40001
1.40001
1.40001
1.40001
1.40001
1.40001
1.40001
1.40001
1.40001
1.40001
1.40001
1.40001
1.40001
1.40001
1.40001
1.40001
1.40001
3.19899
5.19822
5.30347
5.33319
5.36946
5.40407
5.43181
5.45053
5.4604
5.46812
5.48212
5.5018
5.5222
5.53904
5.5502
5.55571
5.55993
5.56511
5.57391
5.5847
5.59382
5.59925
5.6024
5.60586
5.61123
5.61778
5.62379
5.62844
5.63253
5.63794
5.64521
5.6528
5.6591
5.66416
5.66915
5.67477
5.68085
5.68655
5.69105
5.69418
5.6965
5.69865
5.70078
5.70246
5.70318
5.7029
5.70183
5.70005
5.69784
5.69562
5.69391
5.69288
5.6921
5.69107
5.68963
5.6881
5.68767
1.40001
1.40001
1.40001
1.40001
1.40001
1.40001
1.40001
1.40001
1.40001
1.40001
1.40001
1.40001
1.40001
1.40001
1.40001
1.40001
1.40001
1.40001
1.40001
1.40001
1.40001
1.40001
1.40001
1.40001
1.40001
1.40001
1.40001
1.40001
1.40001
1.40001
1.40001
1.40001
1.40001
1.40001
1.40001
1.40001
1.40001
1.40001
1.40001
1.40001
1.40001
1.40001
1.40001
1.40001
1.40001
1.40001
1.40001
1.40001
1.40001
1.40001
1.40001
1.40001
1.40001
1.40001
1.40001
1.40001
1.40001
1.40001
1.40001
1.40001
1.40001
1.40001
1.40001
2.78039
5.10311
5.31781
5.34014
5.3701
5.39512
5.41731
5.43497
5.44432
5.45175
5.46693
5.48848
5.50936
5.52695
5.53916
5.54622
5.55079
5.55752
5.56721
5.57839
5.58805
5.59408
5.5972
5.59969
5.60352