/*--------------------------------*- C++ -*----------------------------------*\
  =========                 |
  \\      /  F ield         | OpenFOAM: The Open Source CFD Toolbox
   \\    /   O peration     | Website:  https://openfoam.org
    \\  /    A nd           | Version:  7
     \\/     M anipulation  |
\*---------------------------------------------------------------------------*/
FoamFile
{
    version     2.0;
    format      ascii;
    class       volVectorField;
    location    "3.6";
    object      U;
}
// * * * * * * * * * * * * * * * * * * * * * * * * * * * * * * * * * * * * * //

dimensions      [0 1 -1 0 0 0 0];

internalField   nonuniform List<vector> 
100800
(
(3 -2.19465e-17 0)
(3 2.80181e-17 0)
(3 -2.76013e-18 0)
(3 1.42194e-16 0)
(3 -6.24235e-16 0)
(3 -8.3381e-16 0)
(3 -9.55667e-16 0)
(3 -6.41586e-16 0)
(3 -7.34517e-16 0)
(3 -1.33349e-15 0)
(3 -1.33827e-15 0)
(3 -1.21956e-15 0)
(3 -1.0866e-15 0)
(3 -3.57953e-16 0)
(3 8.18265e-18 0)
(3 -3.0609e-16 0)
(3 -6.03723e-17 0)
(3 6.69353e-17 0)
(3 -8.62002e-17 0)
(3 -9.48215e-16 0)
(3 -1.75585e-15 0)
(3 -1.51415e-15 0)
(3 -8.36167e-16 0)
(3 -1.49301e-16 0)
(3 6.33203e-16 0)
(3 8.75109e-16 0)
(3 3.83431e-16 0)
(3 4.45733e-16 0)
(3 1.00391e-15 0)
(3 1.88339e-15 0)
(3 2.15332e-15 0)
(3 1.66186e-15 0)
(3 9.77296e-16 0)
(3 8.62401e-16 0)
(3 1.11505e-15 0)
(3 1.39877e-15 0)
(3 1.18961e-15 0)
(3 1.95233e-16 0)
(3 -5.28442e-16 0)
(3 -7.3338e-16 0)
(3 -1.09901e-15 0)
(3 -1.25247e-15 0)
(3 -1.21364e-15 0)
(3 -1.6981e-15 0)
(3 -2.63395e-15 0)
(3 -2.34972e-15 0)
(3 -1.76532e-15 0)
(3 -1.52328e-15 0)
(3 -1.21694e-15 0)
(3 -1.50286e-15 0)
(3 -9.70152e-16 0)
(3 -6.91335e-16 0)
(3 -8.80848e-16 0)
(3 -1.51939e-15 0)
(3 -1.59755e-15 0)
(3 -1.50457e-15 0)
(3 -8.23462e-16 0)
(3 2.2842e-16 0)
(3 5.16922e-16 0)
(3 8.00213e-16 0)
(3 1.02729e-15 0)
(1.64967 0.00376918 0)
(0.798551 0.00362184 0)
(0.752283 0.00645396 0)
(0.739629 0.00446863 0)
(0.728514 0.00401473 0)
(0.719385 0.00409107 0)
(0.710308 0.00449578 0)
(0.700065 0.00507377 0)
(0.687995 0.00573598 0)
(0.674085 0.00637186 0)
(0.658826 0.00685445 0)
(0.642999 0.00693618 0)
(0.627719 0.00626918 0)
(0.614484 0.0048581 0)
(0.603849 0.00379837 0)
(0.594618 0.00381437 0)
(0.585195 0.00445802 0)
(0.574502 0.00535266 0)
(0.561992 0.00633748 0)
(0.547708 0.00696679 0)
(0.532487 0.00670559 0)
(0.518574 0.00558486 0)
(0.506663 0.00469671 0)
(0.496037 0.00468897 0)
(0.485296 0.0053401 0)
(0.473249 0.00627411 0)
(0.459517 0.00679059 0)
(0.445218 0.00638425 0)
(0.431524 0.00571937 0)
(0.41876 0.0056135 0)
(0.406104 0.0059261 0)
(0.393258 0.00624129 0)
(0.380433 0.00636966 0)
(0.36776 0.00636432 0)
(0.355112 0.0063583 0)
(0.342258 0.0063973 0)
(0.329132 0.00645916 0)
(0.315777 0.0065264 0)
(0.302221 0.00657582 0)
(0.288536 0.00658958 0)
(0.27477 0.00658936 0)
(0.260913 0.00661918 0)
(0.246971 0.00669569 0)
(0.233017 0.00679539 0)
(0.219134 0.00688637 0)
(0.205333 0.00692895 0)
(0.191512 0.00692779 0)
(0.177487 0.00692347 0)
(0.163123 0.0069666 0)
(0.148443 0.00707098 0)
(0.133593 0.00720099 0)
(0.118723 0.00734589 0)
(0.103927 0.0074899 0)
(0.0891261 0.00765564 0)
(0.0739243 0.00786105 0)
(0.0584351 0.00807234 0)
(0.0423225 0.00823563 0)
(0.0257407 0.00826002 0)
(0.00860315 0.00824365 0)
(3 -1.26236e-16 0)
(3 -1.71353e-16 0)
(3 -3.75582e-17 0)
(3 -4.93083e-17 0)
(3 -4.18757e-16 0)
(3 -1.16501e-15 0)
(3 -1.56543e-15 0)
(3 -1.89755e-15 0)
(3 -1.86184e-15 0)
(3 -1.99377e-15 0)
(3 -1.718e-15 0)
(3 -1.16231e-15 0)
(3 -3.00011e-16 0)
(3 -3.06459e-16 0)
(3 1.48869e-16 0)
(3 -8.11543e-17 0)
(3 2.25437e-16 0)
(3 -5.05838e-16 0)
(3 -1.00944e-15 0)
(3 -2.67394e-15 0)
(3 -3.31742e-15 0)
(3 -3.0625e-15 0)
(3 -1.72243e-15 0)
(3 -8.20447e-16 0)
(3 2.27884e-16 0)
(3 7.25698e-16 0)
(3 6.55622e-16 0)
(3 6.47966e-16 0)
(3 1.08797e-15 0)
(3 2.04501e-15 0)
(3 2.27834e-15 0)
(3 2.09527e-15 0)
(3 1.55886e-15 0)
(3 1.33333e-15 0)
(3 5.24187e-16 0)
(3 5.82146e-16 0)
(3 8.04335e-16 0)
(3 2.7251e-16 0)
(3 -8.00852e-16 0)
(3 -1.36166e-15 0)
(3 -2.08091e-15 0)
(3 -1.58911e-15 0)
(3 -1.29292e-15 0)
(3 -3.10459e-15 0)
(3 -4.31049e-15 0)
(3 -4.13947e-15 0)
(3 -3.11992e-15 0)
(3 -2.60229e-15 0)
(3 -2.69958e-15 0)
(3 -3.13673e-15 0)
(3 -3.01032e-15 0)
(3 -2.17618e-15 0)
(3 -1.80582e-15 0)
(3 -2.16741e-15 0)
(3 -2.77795e-15 0)
(3 -1.1306e-15 0)
(3 1.86926e-16 0)
(3 1.18418e-15 0)
(3 1.83608e-15 0)
(3 2.26684e-15 0)
(3 1.90265e-15 0)
(1.65854 0.0172836 0)
(0.797491 0.0147609 0)
(0.750167 0.0193483 0)
(0.737626 0.0140959 0)
(0.725422 0.0117731 0)
(0.715502 0.0107828 0)
(0.706247 0.0118648 0)
(0.696221 0.0138648 0)
(0.6846 0.0160959 0)
(0.671347 0.0181866 0)
(0.656914 0.0197509 0)
(0.641943 0.0201789 0)
(0.627198 0.0187333 0)
(0.613768 0.0154106 0)
(0.602235 0.0121707 0)
(0.592048 0.011372 0)
(0.582253 0.0129024 0)
(0.571588 0.0154807 0)
(0.559447 0.0183536 0)
(0.545782 0.0201564 0)
(0.53122 0.0196321 0)
(0.517576 0.016963 0)
(0.505232 0.0145205 0)
(0.493925 0.0141706 0)
(0.482804 0.015844 0)
(0.470781 0.0184527 0)
(0.457311 0.019941 0)
(0.443409 0.0189252 0)
(0.429917 0.0172105 0)
(0.417029 0.0168969 0)
(0.404229 0.0177444 0)
(0.391291 0.0186303 0)
(0.378439 0.0190258 0)
(0.365797 0.019047 0)
(0.353197 0.0190232 0)
(0.340375 0.0190874 0)
(0.327228 0.0192476 0)
(0.313789 0.0194783 0)
(0.300106 0.0197106 0)
(0.286303 0.0198338 0)
(0.272509 0.0198283 0)
(0.258757 0.0198041 0)
(0.244991 0.0199076 0)
(0.231167 0.0201616 0)
(0.217318 0.020481 0)
(0.203477 0.0207608 0)
(0.189625 0.0209008 0)
(0.175681 0.0209124 0)
(0.161526 0.020944 0)
(0.147082 0.0211371 0)
(0.132414 0.0215078 0)
(0.117668 0.0220299 0)
(0.102978 0.0225695 0)
(0.0883423 0.0230813 0)
(0.0734797 0.0236275 0)
(0.0581914 0.0241908 0)
(0.0422662 0.0246966 0)
(0.0257452 0.0249234 0)
(0.00858635 0.0250302 0)
(3 -7.49189e-17 0)
(3 -2.23175e-16 0)
(3 -1.81284e-16 0)
(3 -4.74293e-16 0)
(3 -2.6378e-16 0)
(3 -8.58479e-16 0)
(3 -1.43935e-15 0)
(3 -1.95348e-15 0)
(3 -2.06438e-15 0)
(3 -1.95548e-15 0)
(3 -2.08825e-15 0)
(3 -1.35501e-15 0)
(3 -8.15826e-16 0)
(3 -4.08143e-16 0)
(3 1.34702e-16 0)
(3 1.02127e-15 0)
(3 8.33395e-16 0)
(3 -3.38472e-16 0)
(3 -9.90821e-16 0)
(3 -1.99755e-15 0)
(3 -2.79401e-15 0)
(3 -2.80899e-15 0)
(3 -2.47293e-15 0)
(3 -1.87004e-15 0)
(3 -6.73758e-16 0)
(3 7.97646e-16 0)
(3 1.14767e-15 0)
(3 1.84576e-15 0)
(3 1.2318e-15 0)
(3 1.26028e-15 0)
(3 1.52176e-15 0)
(3 1.42013e-15 0)
(3 1.00879e-15 0)
(3 4.90861e-16 0)
(3 -3.24382e-16 0)
(3 -1.00196e-15 0)
(3 -7.46361e-16 0)
(3 -1.77558e-16 0)
(3 -3.27056e-16 0)
(3 -1.0111e-15 0)
(3 -1.20483e-15 0)
(3 -7.80792e-16 0)
(3 -1.42582e-15 0)
(3 -2.89828e-15 0)
(3 -3.09834e-15 0)
(3 -3.50835e-15 0)
(3 -3.69643e-15 0)
(3 -3.3611e-15 0)
(3 -3.44666e-15 0)
(3 -3.1527e-15 0)
(3 -3.29992e-15 0)
(3 -2.5782e-15 0)
(3 -2.59206e-15 0)
(3 -2.4128e-15 0)
(3 -1.71798e-15 0)
(3 -1.43521e-15 0)
(3 -1.20539e-15 0)
(3 -7.69147e-16 0)
(3 1.98845e-16 0)
(3 2.18004e-15 0)
(3 1.81212e-15 0)
(1.6831 0.0293322 0)
(0.800706 0.024615 0)
(0.753554 0.0313427 0)
(0.740604 0.0249546 0)
(0.726249 0.0218537 0)
(0.713944 0.0196362 0)
(0.702993 0.0201468 0)
(0.692555 0.0227562 0)
(0.681234 0.026019 0)
(0.668781 0.0291699 0)
(0.655516 0.0316152 0)
(0.641816 0.0324517 0)
(0.62807 0.0307227 0)
(0.614859 0.0264489 0)
(0.602545 0.0218031 0)
(0.59104 0.0201729 0)
(0.580296 0.0220956 0)
(0.569239 0.0258374 0)
(0.557236 0.0301091 0)
(0.544055 0.0327651 0)
(0.530161 0.0321063 0)
(0.51699 0.0285029 0)
(0.504496 0.024987 0)
(0.492582 0.0243127 0)
(0.480974 0.0266959 0)
(0.468849 0.0305658 0)
(0.455457 0.032742 0)
(0.441832 0.031239 0)
(0.428562 0.0287658 0)
(0.415614 0.0283774 0)
(0.402733 0.0296935 0)
(0.389707 0.0310355 0)
(0.376765 0.0316514 0)
(0.36407 0.0317565 0)
(0.351471 0.0318005 0)
(0.338701 0.0319106 0)
(0.325605 0.0320911 0)
(0.312142 0.0323905 0)
(0.298336 0.0327442 0)
(0.284335 0.0330123 0)
(0.270364 0.0331329 0)
(0.256553 0.0331776 0)
(0.242849 0.0332773 0)
(0.22911 0.033544 0)
(0.215247 0.0339384 0)
(0.201271 0.0343413 0)
(0.187232 0.0346264 0)
(0.173181 0.0347697 0)
(0.159092 0.0348902 0)
(0.144859 0.0351515 0)
(0.130428 0.035623 0)
(0.11586 0.0363732 0)
(0.10128 0.0372222 0)
(0.0867853 0.0381183 0)
(0.0722985 0.0390968 0)
(0.0573031 0.0400667 0)
(0.0417895 0.0409334 0)
(0.0255151 0.0413583 0)
(0.00847899 0.0416683 0)
(3 -1.30946e-16 0)
(3 -1.8526e-16 0)
(3 -1.73999e-16 0)
(3 -5.39075e-16 0)
(3 -6.33936e-16 0)
(3 -4.9871e-16 0)
(3 -2.51008e-16 0)
(3 -8.24149e-16 0)
(3 -1.3992e-15 0)
(3 -2.38588e-15 0)
(3 -2.02867e-15 0)
(3 -1.84533e-15 0)
(3 -1.4123e-15 0)
(3 -5.87203e-16 0)
(3 3.69423e-16 0)
(3 9.72879e-16 0)
(3 1.13988e-15 0)
(3 8.81914e-16 0)
(3 -1.74155e-17 0)
(3 -4.50393e-16 0)
(3 -1.72738e-15 0)
(3 -2.06184e-15 0)
(3 -2.27587e-15 0)
(3 -2.83933e-15 0)
(3 -2.2454e-15 0)
(3 -3.18873e-16 0)
(3 6.09807e-16 0)
(3 7.87446e-16 0)
(3 1.06661e-15 0)
(3 1.64345e-15 0)
(3 1.67742e-15 0)
(3 1.55528e-15 0)
(3 1.45512e-15 0)
(3 5.76324e-16 0)
(3 -4.24553e-16 0)
(3 -9.89529e-16 0)
(3 -8.01248e-16 0)
(3 -1.52555e-16 0)
(3 -1.3286e-16 0)
(3 1.63627e-16 0)
(3 4.18926e-16 0)
(3 1.58462e-16 0)
(3 -3.7465e-16 0)
(3 -1.77351e-15 0)
(3 -1.91926e-15 0)
(3 -2.58827e-15 0)
(3 -2.61986e-15 0)
(3 -3.1167e-15 0)
(3 -3.13636e-15 0)
(3 -2.65622e-15 0)
(3 -1.79543e-15 0)
(3 -1.49047e-15 0)
(3 -9.17468e-16 0)
(3 -3.27222e-16 0)
(3 -5.59332e-16 0)
(3 -1.382e-15 0)
(3 -8.51012e-16 0)
(3 2.86399e-16 0)
(3 1.47591e-15 0)
(3 2.35282e-15 0)
(3 4.15375e-17 0)
(1.71909 0.0382967 0)
(0.804849 0.032006 0)
(0.757718 0.0421102 0)
(0.744646 0.0367249 0)
(0.728953 0.033865 0)
(0.71457 0.0307699 0)
(0.701463 0.0296934 0)
(0.690135 0.031656 0)
(0.679305 0.0352323 0)
(0.667976 0.0389816 0)
(0.656127 0.0420255 0)
(0.643806 0.0433005 0)
(0.631033 0.0418832 0)
(0.617857 0.0378061 0)
(0.604753 0.0325749 0)
(0.591976 0.0300921 0)
(0.580183 0.0320022 0)
(0.568694 0.0364257 0)
(0.556892 0.0415833 0)
(0.544277 0.0447396 0)
(0.531074 0.0440415 0)
(0.518227 0.0400936 0)
(0.505508 0.035964 0)
(0.492969 0.0350067 0)
(0.480826 0.0378748 0)
(0.468586 0.0426702 0)
(0.455256 0.0453318 0)
(0.441842 0.0434993 0)
(0.428714 0.0405259 0)
(0.415672 0.0401289 0)
(0.402723 0.0418233 0)
(0.389608 0.0435109 0)
(0.376552 0.0443039 0)
(0.363745 0.044542 0)
(0.351064 0.0447295 0)
(0.338285 0.0449133 0)
(0.325236 0.0450853 0)
(0.311795 0.0453943 0)
(0.297918 0.0458499 0)
(0.283737 0.0462956 0)
(0.269524 0.0466241 0)
(0.255499 0.0468278 0)
(0.241679 0.0469803 0)
(0.227888 0.0472021 0)
(0.213919 0.0475501 0)
(0.199727 0.0479771 0)
(0.18542 0.0483881 0)
(0.171137 0.0487027 0)
(0.156944 0.0489507 0)
(0.142763 0.0492669 0)
(0.128459 0.0497427 0)
(0.113998 0.0505596 0)
(0.0995059 0.0516038 0)
(0.085145 0.0528534 0)
(0.0709002 0.054271 0)
(0.0562397 0.0556804 0)
(0.0410977 0.0569418 0)
(0.0251185 0.0575513 0)
(0.00832687 0.0581046 0)
(3 -1.58107e-17 0)
(3 2.39581e-16 0)
(3 6.04228e-16 0)
(3 7.04614e-16 0)
(3 -4.88436e-18 0)
(3 -2.72601e-16 0)
(3 -1.65816e-16 0)
(3 -2.85586e-16 0)
(3 -9.40064e-16 0)
(3 -1.38957e-15 0)
(3 -1.12575e-15 0)
(3 -1.29959e-15 0)
(3 -1.15957e-15 0)
(3 -6.02633e-16 0)
(3 -3.99858e-16 0)
(3 3.39325e-16 0)
(3 1.24123e-15 0)
(3 8.43024e-16 0)
(3 -3.92482e-16 0)
(3 -3.12009e-16 0)
(3 -4.01901e-16 0)
(3 -7.70189e-16 0)
(3 -1.30102e-15 0)
(3 -1.65022e-15 0)
(3 -9.44636e-16 0)
(3 -2.87381e-17 0)
(3 9.57971e-16 0)
(3 4.85359e-16 0)
(3 3.14701e-16 0)
(3 -4.40114e-16 0)
(3 -1.67701e-16 0)
(3 1.04341e-15 0)
(3 1.69756e-15 0)
(3 1.56899e-15 0)
(3 1.05893e-15 0)
(3 5.20719e-16 0)
(3 2.69675e-16 0)
(3 1.22144e-16 0)
(3 4.04951e-16 0)
(3 8.23572e-16 0)
(3 8.19982e-16 0)
(3 3.37697e-16 0)
(3 -3.61663e-16 0)
(3 -1.12139e-15 0)
(3 -1.36879e-15 0)
(3 -1.48918e-15 0)
(3 -9.83412e-16 0)
(3 -1.63161e-15 0)
(3 -2.08792e-15 0)
(3 -1.81655e-15 0)
(3 -9.60216e-16 0)
(3 1.95299e-16 0)
(3 9.4557e-16 0)
(3 1.19538e-15 0)
(3 8.08858e-16 0)
(3 -7.03795e-16 0)
(3 -1.27516e-15 0)
(3 -3.59834e-16 0)
(3 2.94843e-16 0)
(3 2.10396e-15 0)
(3 8.02744e-16 0)
(1.76241 0.0451439 0)
(0.807369 0.0386849 0)
(0.759915 0.052044 0)
(0.747079 0.0492045 0)
(0.730972 0.0472504 0)
(0.715461 0.0438832 0)
(0.700811 0.0408798 0)
(0.687984 0.0405354 0)
(0.677143 0.0433411 0)
(0.666879 0.0473099 0)
(0.656466 0.0509278 0)
(0.645474 0.0530022 0)
(0.633531 0.0526708 0)
(0.620397 0.0496601 0)
(0.606633 0.0446549 0)
(0.592863 0.0412421 0)
(0.580153 0.042442 0)
(0.568454 0.046898 0)
(0.557132 0.0524331 0)
(0.545295 0.0559202 0)
(0.532786 0.0554936 0)
(0.520118 0.0517854 0)
(0.507182 0.0474045 0)
(0.494139 0.0460787 0)
(0.481604 0.0491151 0)
(0.469454 0.0544988 0)
(0.456375 0.0575271 0)
(0.44323 0.0556117 0)
(0.430279 0.0524093 0)
(0.417245 0.0520515 0)
(0.404359 0.0539883 0)
(0.391312 0.0558499 0)
(0.378283 0.0567381 0)
(0.365437 0.0571458 0)
(0.352674 0.0575839 0)
(0.339838 0.0579435 0)
(0.326809 0.0581409 0)
(0.313426 0.0584293 0)
(0.299558 0.0589532 0)
(0.28526 0.0595916 0)
(0.270781 0.0601998 0)
(0.256391 0.0606834 0)
(0.242209 0.0609988 0)
(0.228123 0.0612099 0)
(0.213896 0.0614643 0)
(0.199409 0.0618714 0)
(0.184753 0.0623786 0)
(0.170093 0.0628474 0)
(0.155559 0.0632132 0)
(0.141157 0.0635447 0)
(0.12677 0.0639344 0)
(0.112309 0.0647075 0)
(0.0978514 0.0658359 0)
(0.0835654 0.0673607 0)
(0.0694398 0.0691645 0)
(0.0550142 0.0709823 0)
(0.0401837 0.072634 0)
(0.0245412 0.0734414 0)
(0.0081331 0.0742936 0)
(3 4.02835e-16 0)
(3 8.95241e-16 0)
(3 4.10448e-16 0)
(3 5.96507e-16 0)
(3 4.06534e-16 0)
(3 -8.77757e-16 0)
(3 -7.89742e-16 0)
(3 -7.54986e-16 0)
(3 -1.07348e-15 0)
(3 -1.12279e-15 0)
(3 -1.16818e-15 0)
(3 -9.73207e-16 0)
(3 -8.29589e-16 0)
(3 -5.70112e-16 0)
(3 -6.87252e-16 0)
(3 -4.68924e-16 0)
(3 6.01812e-16 0)
(3 9.41012e-16 0)
(3 2.78804e-16 0)
(3 -3.8915e-17 0)
(3 5.73122e-16 0)
(3 4.12442e-16 0)
(3 7.60321e-17 0)
(3 -7.71337e-17 0)
(3 1.58137e-16 0)
(3 1.03494e-15 0)
(3 1.16663e-15 0)
(3 1.10083e-15 0)
(3 -3.89848e-16 0)
(3 -9.27091e-16 0)
(3 -1.0103e-15 0)
(3 -3.78494e-16 0)
(3 2.30036e-16 0)
(3 1.1608e-15 0)
(3 1.85305e-15 0)
(3 1.68196e-15 0)
(3 1.27379e-15 0)
(3 1.18296e-15 0)
(3 1.52215e-15 0)
(3 2.17732e-15 0)
(3 2.51658e-15 0)
(3 2.08337e-15 0)
(3 5.90181e-16 0)
(3 -3.03012e-16 0)
(3 -6.35675e-16 0)
(3 2.69774e-16 0)
(3 4.43299e-16 0)
(3 1.48894e-16 0)
(3 1.64516e-17 0)
(3 -3.63296e-16 0)
(3 -9.0866e-16 0)
(3 7.32045e-17 0)
(3 1.35104e-15 0)
(3 2.20519e-15 0)
(3 2.19964e-15 0)
(3 1.26407e-15 0)
(3 -1.8547e-16 0)
(3 -9.15764e-17 0)
(3 1.22766e-15 0)
(3 1.77507e-15 0)
(3 3.68397e-15 0)
(1.81264 0.0524353 0)
(0.809338 0.0453843 0)
(0.760631 0.0608297 0)
(0.748625 0.0613354 0)
(0.732823 0.0605111 0)
(0.717284 0.0576255 0)
(0.701871 0.0535649 0)
(0.687713 0.0506361 0)
(0.675637 0.0513635 0)
(0.665466 0.0548106 0)
(0.655757 0.0588156 0)
(0.645582 0.0619889 0)
(0.634193 0.0632231 0)
(0.621277 0.0617758 0)
(0.607342 0.0575668 0)
(0.593195 0.0533472 0)
(0.579924 0.0532309 0)
(0.568207 0.0570756 0)
(0.557472 0.0625649 0)
(0.546448 0.0664039 0)
(0.53446 0.0666511 0)
(0.521758 0.0636754 0)
(0.508511 0.0593444 0)
(0.494989 0.0575175 0)
(0.482073 0.0603532 0)
(0.470055 0.0659997 0)
(0.457262 0.0693621 0)
(0.444252 0.0676667 0)
(0.431279 0.064529 0)
(0.418115 0.0642626 0)
(0.405179 0.0663179 0)
(0.392167 0.0681983 0)
(0.379175 0.0690924 0)
(0.366266 0.0696576 0)
(0.353326 0.070394 0)
(0.340252 0.0710405 0)
(0.327039 0.0713979 0)
(0.313607 0.0717452 0)
(0.299792 0.0723252 0)
(0.285523 0.0730911 0)
(0.270937 0.0739147 0)
(0.256282 0.074666 0)
(0.241762 0.0752136 0)
(0.227417 0.0755231 0)
(0.213106 0.0757368 0)
(0.198644 0.0760779 0)
(0.183977 0.076596 0)
(0.169193 0.0771473 0)
(0.154438 0.0775981 0)
(0.139812 0.0779553 0)
(0.125316 0.0782663 0)
(0.110883 0.0789599 0)
(0.0964977 0.0800833 0)
(0.0822667 0.0817545 0)
(0.0681762 0.0838249 0)
(0.0538003 0.0859718 0)
(0.0391932 0.0879932 0)
(0.0238786 0.0890197 0)
(0.00793589 0.0901967 0)
(3 2.03749e-17 0)
(3 -1.19513e-16 0)
(3 -5.54679e-16 0)
(3 -7.09713e-16 0)
(3 -2.46939e-16 0)
(3 3.07771e-17 0)
(3 1.67584e-16 0)
(3 -7.15466e-17 0)
(3 -8.83089e-16 0)
(3 -1.02369e-15 0)
(3 -1.18262e-15 0)
(3 -7.88135e-16 0)
(3 -2.42191e-16 0)
(3 -4.5255e-16 0)
(3 -6.04612e-16 0)
(3 -5.61516e-16 0)
(3 -5.91493e-16 0)
(3 -8.65696e-18 0)
(3 7.51778e-16 0)
(3 4.79249e-16 0)
(3 6.82505e-16 0)
(3 5.61241e-16 0)
(3 -1.3143e-16 0)
(3 2.03322e-16 0)
(3 1.99974e-16 0)
(3 2.1677e-16 0)
(3 -1.84801e-16 0)
(3 -2.10914e-16 0)
(3 -5.96678e-16 0)
(3 -1.03955e-15 0)
(3 -1.41133e-15 0)
(3 -1.12169e-15 0)
(3 -2.10884e-16 0)
(3 7.33304e-16 0)
(3 2.0547e-15 0)
(3 1.8458e-15 0)
(3 1.80123e-15 0)
(3 2.11166e-15 0)
(3 2.10373e-15 0)
(3 2.40464e-15 0)
(3 2.65721e-15 0)
(3 2.56246e-15 0)
(3 2.1156e-15 0)
(3 9.69032e-16 0)
(3 1.29791e-16 0)
(3 -6.99834e-16 0)
(3 -5.75155e-16 0)
(3 3.57305e-16 0)
(3 4.09213e-16 0)
(3 -7.85528e-17 0)
(3 -2.00709e-16 0)
(3 -1.0424e-16 0)
(3 3.47889e-16 0)
(3 7.86731e-16 0)
(3 7.55725e-16 0)
(3 6.1111e-16 0)
(3 8.80658e-16 0)
(3 8.50505e-16 0)
(3 -5.63416e-16 0)
(3 -6.04498e-16 0)
(3 -1.85655e-15 0)
(1.87337 0.0620103 0)
(0.812736 0.0533501 0)
(0.760121 0.0686183 0)
(0.749564 0.0726644 0)
(0.734295 0.0728119 0)
(0.719543 0.0709158 0)
(0.704166 0.0669538 0)
(0.689266 0.0622569 0)
(0.675735 0.0604509 0)
(0.664491 0.0625329 0)
(0.654657 0.0665129 0)
(0.644781 0.0705659 0)
(0.633813 0.0733328 0)
(0.621284 0.0735409 0)
(0.607544 0.0705039 0)
(0.593462 0.0659027 0)
(0.5799 0.0642458 0)
(0.568003 0.0670206 0)
(0.557465 0.072186 0)
(0.54694 0.0765057 0)
(0.535143 0.0777388 0)
(0.52224 0.0757817 0)
(0.508663 0.0717177 0)
(0.494802 0.0692648 0)
(0.481615 0.0715452 0)
(0.469819 0.0771831 0)
(0.457401 0.0809125 0)
(0.444497 0.079691 0)
(0.431407 0.0768504 0)
(0.418028 0.0767436 0)
(0.404956 0.0788503 0)
(0.39197 0.080637 0)
(0.3791 0.0814409 0)
(0.36626 0.0820953 0)
(0.353283 0.0830897 0)
(0.340068 0.0840498 0)
(0.326703 0.0846802 0)
(0.313248 0.0852175 0)
(0.299591 0.0859011 0)
(0.285575 0.086729 0)
(0.271162 0.087656 0)
(0.256494 0.0885904 0)
(0.241805 0.0893684 0)
(0.22728 0.0898809 0)
(0.212943 0.0901889 0)
(0.198637 0.0905111 0)
(0.184163 0.0909786 0)
(0.169455 0.0915165 0)
(0.154606 0.091993 0)
(0.139782 0.0923994 0)
(0.125122 0.0927154 0)
(0.110658 0.0933868 0)
(0.0963085 0.0944774 0)
(0.0820505 0.0961726 0)
(0.0677988 0.0983782 0)
(0.0533475 0.100782 0)
(0.0386926 0.103141 0)
(0.023504 0.104425 0)
(0.00786324 0.105934 0)
(3 -1.0811e-16 0)
(3 -2.23654e-16 0)
(3 -2.30759e-16 0)
(3 -4.19769e-16 0)
(3 -3.76085e-16 0)
(3 -1.78081e-17 0)
(3 -1.3745e-16 0)
(3 -6.44625e-16 0)
(3 -4.05574e-16 0)
(3 3.76137e-16 0)
(3 2.85242e-16 0)
(3 5.89655e-16 0)
(3 5.05405e-16 0)
(3 -4.0232e-16 0)
(3 -1.17769e-15 0)
(3 -7.39113e-16 0)
(3 -6.18153e-16 0)
(3 -5.11554e-16 0)
(3 4.99664e-16 0)
(3 1.02424e-15 0)
(3 7.15972e-16 0)
(3 1.17834e-15 0)
(3 1.38191e-15 0)
(3 1.40285e-15 0)
(3 1.16573e-15 0)
(3 7.12043e-16 0)
(3 2.30477e-16 0)
(3 -2.42926e-16 0)
(3 -7.88254e-17 0)
(3 1.00597e-16 0)
(3 2.80237e-16 0)
(3 -7.03744e-16 0)
(3 -6.77243e-16 0)
(3 -5.33077e-16 0)
(3 1.03001e-15 0)
(3 1.81478e-15 0)
(3 2.00076e-15 0)
(3 2.08462e-15 0)
(3 2.01695e-15 0)
(3 1.52728e-15 0)
(3 1.78814e-15 0)
(3 2.556e-15 0)
(3 2.73823e-15 0)
(3 2.08841e-15 0)
(3 1.30854e-15 0)
(3 -6.62112e-16 0)
(3 -9.17169e-16 0)
(3 -8.98167e-17 0)
(3 6.66737e-17 0)
(3 5.28345e-16 0)
(3 9.46099e-16 0)
(3 1.1591e-15 0)
(3 1.62945e-15 0)
(3 1.35614e-15 0)
(3 8.46369e-16 0)
(3 6.04042e-16 0)
(3 1.17105e-15 0)
(3 4.59479e-16 0)
(3 -1.55954e-15 0)
(3 -2.14111e-15 0)
(3 -3.69334e-15 0)
(1.95145 0.0737013 0)
(0.820191 0.0637561 0)
(0.757516 0.0756183 0)
(0.749221 0.0829742 0)
(0.734892 0.0840069 0)
(0.721336 0.0831983 0)
(0.706704 0.0801008 0)
(0.69188 0.074918 0)
(0.677605 0.0710011 0)
(0.665048 0.0712494 0)
(0.654449 0.0746207 0)
(0.64446 0.0791389 0)
(0.63374 0.083063 0)
(0.621578 0.084803 0)
(0.608136 0.0830386 0)
(0.594251 0.0786622 0)
(0.580618 0.0756837 0)
(0.568361 0.077169 0)
(0.557688 0.0817697 0)
(0.547347 0.0865023 0)
(0.535657 0.0887735 0)
(0.522655 0.0879122 0)
(0.50888 0.0843107 0)
(0.494886 0.0812586 0)
(0.481532 0.0827532 0)
(0.469929 0.0881605 0)
(0.457913 0.0922804 0)
(0.445124 0.0916887 0)
(0.431927 0.0892763 0)
(0.418346 0.0893738 0)
(0.405123 0.0915115 0)
(0.392159 0.093178 0)
(0.37947 0.093857 0)
(0.366822 0.0945291 0)
(0.353945 0.0956958 0)
(0.340693 0.0969231 0)
(0.327183 0.0978663 0)
(0.313612 0.0987064 0)
(0.300007 0.099591 0)
(0.286232 0.10047 0)
(0.272116 0.101387 0)
(0.257628 0.10238 0)
(0.242936 0.103336 0)
(0.228303 0.104107 0)
(0.213891 0.104642 0)
(0.199645 0.10505 0)
(0.185324 0.10547 0)
(0.170697 0.105931 0)
(0.155755 0.106389 0)
(0.140682 0.106867 0)
(0.125716 0.107277 0)
(0.111017 0.108014 0)
(0.096534 0.109086 0)
(0.0821412 0.110716 0)
(0.067617 0.112949 0)
(0.0530609 0.115543 0)
(0.0383101 0.118216 0)
(0.0231869 0.119799 0)
(0.00782495 0.121642 0)
(3 -1.37376e-17 0)
(3 -2.96914e-16 0)
(3 -1.12537e-16 0)
(3 1.49857e-16 0)
(3 2.10618e-16 0)
(3 -8.35791e-17 0)
(3 -6.44107e-16 0)
(3 -5.22892e-16 0)
(3 3.2268e-17 0)
(3 5.97168e-16 0)
(3 1.07062e-15 0)
(3 1.14762e-15 0)
(3 7.6093e-16 0)
(3 -3.19736e-16 0)
(3 -1.3006e-15 0)
(3 -1.69763e-15 0)
(3 -7.2938e-16 0)
(3 -2.37554e-16 0)
(3 1.17979e-16 0)
(3 1.00143e-15 0)
(3 1.53225e-15 0)
(3 2.08084e-15 0)
(3 2.62858e-15 0)
(3 2.65714e-15 0)
(3 2.61537e-15 0)
(3 1.71783e-15 0)
(3 1.10138e-15 0)
(3 4.60105e-16 0)
(3 8.11035e-16 0)
(3 1.2906e-15 0)
(3 1.48999e-15 0)
(3 1.44621e-16 0)
(3 -7.13645e-16 0)
(3 -1.06445e-15 0)
(3 -4.54475e-16 0)
(3 1.06722e-15 0)
(3 8.84446e-16 0)
(3 3.35963e-16 0)
(3 5.41478e-16 0)
(3 4.77718e-16 0)
(3 8.13397e-16 0)
(3 2.1861e-15 0)
(3 2.33887e-15 0)
(3 1.45202e-15 0)
(3 3.47903e-16 0)
(3 -3.3977e-16 0)
(3 -2.26935e-16 0)
(3 4.37732e-17 0)
(3 2.63694e-16 0)
(3 6.40886e-16 0)
(3 6.595e-16 0)
(3 1.10023e-15 0)
(3 1.49733e-15 0)
(3 1.36477e-15 0)
(3 1.35408e-15 0)
(3 1.3219e-15 0)
(3 8.9105e-16 0)
(3 -1.92916e-16 0)
(3 -1.51768e-15 0)
(3 -2.47875e-15 0)
(3 -8.86659e-16 0)
(2.05005 0.0846361 0)
(0.83331 0.0775096 0)
(0.753458 0.0815788 0)
(0.747987 0.0913296 0)
(0.735199 0.0937512 0)
(0.722995 0.0944746 0)
(0.709302 0.0924381 0)
(0.694912 0.0877272 0)
(0.680549 0.0826194 0)
(0.667136 0.0809422 0)
(0.655674 0.0832714 0)
(0.645438 0.087776 0)
(0.634968 0.0924577 0)
(0.623265 0.0952968 0)
(0.610214 0.094869 0)
(0.596573 0.0912053 0)
(0.583014 0.0873528 0)
(0.570399 0.0875438 0)
(0.559459 0.0914427 0)
(0.54908 0.0963746 0)
(0.537498 0.0995985 0)
(0.524482 0.0998375 0)
(0.510577 0.0969244 0)
(0.496525 0.0934523 0)
(0.48299 0.0940517 0)
(0.471398 0.0990331 0)
(0.459732 0.103496 0)
(0.447092 0.103581 0)
(0.433887 0.101624 0)
(0.420206 0.101916 0)
(0.406856 0.104083 0)
(0.393833 0.105701 0)
(0.381186 0.106345 0)
(0.368641 0.107037 0)
(0.355847 0.108293 0)
(0.342566 0.109702 0)
(0.328873 0.110923 0)
(0.315043 0.112112 0)
(0.301247 0.113303 0)
(0.287478 0.11431 0)
(0.273569 0.115185 0)
(0.259325 0.116135 0)
(0.244742 0.117187 0)
(0.230027 0.118206 0)
(0.215417 0.11905 0)
(0.200983 0.119692 0)
(0.18658 0.120182 0)
(0.171943 0.120598 0)
(0.156936 0.121018 0)
(0.141675 0.121554 0)
(0.126407 0.122071 0)
(0.111377 0.122907 0)
(0.0966312 0.123966 0)
(0.0820456 0.125463 0)
(0.0673076 0.127618 0)
(0.0526678 0.130309 0)
(0.0378967 0.133252 0)
(0.0228674 0.135124 0)
(0.00777157 0.137277 0)
(3 1.45344e-16 0)
(3 -2.29109e-16 0)
(3 -3.06256e-16 0)
(3 -4.47831e-17 0)
(3 1.19923e-16 0)
(3 1.37288e-16 0)
(3 1.88302e-16 0)
(3 4.62179e-16 0)
(3 4.97355e-16 0)
(3 2.98332e-16 0)
(3 5.20033e-16 0)
(3 1.09778e-16 0)
(3 -6.84005e-16 0)
(3 -2.42586e-16 0)
(3 -4.40119e-16 0)
(3 -9.11862e-16 0)
(3 -6.49167e-16 0)
(3 -7.6516e-16 0)
(3 -4.7527e-16 0)
(3 -1.99595e-16 0)
(3 6.32894e-16 0)
(3 1.85126e-15 0)
(3 2.17213e-15 0)
(3 2.36649e-15 0)
(3 2.11172e-15 0)
(3 9.79615e-16 0)
(3 -2.0571e-16 0)
(3 2.15116e-17 0)
(3 2.35728e-15 0)
(3 3.43823e-15 0)
(3 3.43303e-15 0)
(3 2.0484e-15 0)
(3 8.32144e-16 0)
(3 5.0514e-16 0)
(3 1.14901e-16 0)
(3 6.73792e-17 0)
(3 -4.39413e-16 0)
(3 -1.04789e-15 0)
(3 -1.03167e-15 0)
(3 -8.63779e-16 0)
(3 -3.67252e-17 0)
(3 7.3525e-16 0)
(3 1.21646e-15 0)
(3 4.2362e-16 0)
(3 -6.8367e-16 0)
(3 -1.276e-15 0)
(3 -8.39117e-17 0)
(3 -1.19845e-16 0)
(3 2.22964e-16 0)
(3 3.29026e-16 0)
(3 5.22049e-17 0)
(3 8.64039e-16 0)
(3 1.00288e-15 0)
(3 7.41154e-16 0)
(3 9.8035e-16 0)
(3 1.35592e-15 0)
(3 1.16941e-15 0)
(3 1.11066e-15 0)
(3 1.84298e-16 0)
(3 5.29905e-16 0)
(3 -1.28698e-15 0)
(2.16413 0.0919731 0)
(0.850828 0.0944123 0)
(0.751835 0.0880758 0)
(0.746931 0.098129 0)
(0.735216 0.10236 0)
(0.724223 0.104734 0)
(0.711443 0.104004 0)
(0.697676 0.100226 0)
(0.683437 0.0948725 0)
(0.669508 0.0915677 0)
(0.657037 0.0924758 0)
(0.646193 0.0964833 0)
(0.635731 0.10154 0)
(0.624349 0.105377 0)
(0.611662 0.106253 0)
(0.598216 0.103576 0)
(0.584721 0.0995177 0)
(0.571825 0.0984088 0)
(0.560513 0.101386 0)
(0.549986 0.106224 0)
(0.538676 0.110215 0)
(0.525945 0.111484 0)
(0.51222 0.10943 0)
(0.498333 0.105822 0)
(0.484746 0.105525 0)
(0.473053 0.109956 0)
(0.461697 0.114715 0)
(0.449267 0.115453 0)
(0.436199 0.113893 0)
(0.422562 0.1143 0)
(0.409138 0.116458 0)
(0.395973 0.118135 0)
(0.383153 0.118964 0)
(0.370518 0.11983 0)
(0.357769 0.121166 0)
(0.344589 0.122625 0)
(0.33091 0.12397 0)
(0.316968 0.125405 0)
(0.303016 0.126911 0)
(0.289186 0.128149 0)
(0.275432 0.129073 0)
(0.261515 0.129967 0)
(0.247219 0.131032 0)
(0.232564 0.132228 0)
(0.21777 0.133385 0)
(0.203025 0.13436 0)
(0.188353 0.135073 0)
(0.173604 0.135557 0)
(0.158579 0.135966 0)
(0.143234 0.136531 0)
(0.12773 0.137112 0)
(0.112316 0.138022 0)
(0.0971405 0.139069 0)
(0.0821967 0.140429 0)
(0.0672371 0.142463 0)
(0.0524405 0.145165 0)
(0.0376516 0.14831 0)
(0.0226672 0.150397 0)
(0.00772091 0.152806 0)
(3 6.31764e-17 0)
(3 4.1328e-16 0)
(3 2.83581e-16 0)
(3 9.19022e-17 0)
(3 1.95209e-16 0)
(3 -2.21695e-17 0)
(3 -1.57879e-16 0)
(3 9.33282e-17 0)
(3 1.88778e-16 0)
(3 2.64652e-16 0)
(3 9.20361e-17 0)
(3 -6.07692e-16 0)
(3 -8.67413e-16 0)
(3 -3.08675e-16 0)
(3 3.16947e-17 0)
(3 9.5749e-17 0)
(3 -7.19734e-16 0)
(3 -1.4166e-15 0)
(3 -1.05041e-15 0)
(3 -4.62697e-16 0)
(3 4.41979e-16 0)
(3 1.00323e-15 0)
(3 1.02823e-15 0)
(3 8.95041e-17 0)
(3 3.05634e-17 0)
(3 7.19842e-18 0)
(3 -1.00728e-15 0)
(3 1.94909e-16 0)
(3 1.76617e-15 0)
(3 2.5515e-15 0)
(3 3.15064e-15 0)
(3 3.38936e-15 0)
(3 3.03645e-15 0)
(3 1.97967e-15 0)
(3 1.71718e-16 0)
(3 -1.07999e-15 0)
(3 -1.88432e-15 0)
(3 -1.95509e-15 0)
(3 -1.70942e-15 0)
(3 -1.16553e-15 0)
(3 -9.91288e-16 0)
(3 -1.16285e-15 0)
(3 -9.71871e-16 0)
(3 -8.83218e-16 0)
(3 -1.01042e-15 0)
(3 -8.57363e-16 0)
(3 -1.59696e-15 0)
(3 -1.25831e-15 0)
(3 -3.2999e-16 0)
(3 2.90305e-16 0)
(3 3.38456e-16 0)
(3 3.32299e-16 0)
(3 4.1175e-16 0)
(3 5.08581e-16 0)
(3 6.54467e-16 0)
(3 6.28793e-16 0)
(3 8.41014e-16 0)
(3 5.51744e-16 0)
(3 8.37299e-16 0)
(3 1.61789e-15 0)
(3 -4.88745e-16 0)
(2.28483 0.0972896 0)
(0.86954 0.113701 0)
(0.753972 0.095914 0)
(0.746866 0.105279 0)
(0.735118 0.110525 0)
(0.724539 0.114283 0)
(0.712358 0.11507 0)
(0.699299 0.112327 0)
(0.685649 0.107262 0)
(0.671836 0.10293 0)
(0.658765 0.102326 0)
(0.64722 0.105462 0)
(0.636581 0.110563 0)
(0.625479 0.115209 0)
(0.613244 0.117237 0)
(0.600177 0.115693 0)
(0.586972 0.111808 0)
(0.574051 0.10957 0)
(0.562321 0.111432 0)
(0.551586 0.11593 0)
(0.540484 0.12045 0)
(0.528089 0.122684 0)
(0.51461 0.121619 0)
(0.500862 0.118192 0)
(0.48716 0.117103 0)
(0.475076 0.12093 0)
(0.46377 0.12598 0)
(0.451425 0.127411 0)
(0.438508 0.126217 0)
(0.425031 0.126639 0)
(0.411635 0.128691 0)
(0.398358 0.130434 0)
(0.385286 0.13158 0)
(0.372424 0.1328 0)
(0.359652 0.134309 0)
(0.34667 0.135747 0)
(0.333241 0.13703 0)
(0.319406 0.138529 0)
(0.305393 0.140259 0)
(0.291417 0.141791 0)
(0.277593 0.14294 0)
(0.263798 0.143932 0)
(0.249737 0.14504 0)
(0.235211 0.146352 0)
(0.220295 0.147753 0)
(0.205238 0.149061 0)
(0.190223 0.150098 0)
(0.175278 0.150799 0)
(0.160253 0.151285 0)
(0.144945 0.151872 0)
(0.129322 0.152458 0)
(0.113579 0.153383 0)
(0.0979329 0.154415 0)
(0.0825455 0.155658 0)
(0.0673693 0.157576 0)
(0.0523583 0.160212 0)
(0.0375527 0.163462 0)
(0.0225644 0.165664 0)
(0.00766902 0.168259 0)
(3 -1.87433e-17 0)
(3 4.09311e-16 0)
(3 2.92742e-16 0)
(3 1.71311e-16 0)
(3 5.37744e-16 0)
(3 3.14024e-16 0)
(3 -1.64729e-16 0)
(3 2.01831e-17 0)
(3 2.56718e-16 0)
(3 6.79331e-16 0)
(3 2.17702e-16 0)
(3 -3.5439e-16 0)
(3 -7.15955e-16 0)
(3 -7.48136e-16 0)
(3 -5.932e-16 0)
(3 -9.88644e-16 0)
(3 -1.52863e-15 0)
(3 -1.38457e-15 0)
(3 -1.07508e-15 0)
(3 -7.76034e-16 0)
(3 -6.07316e-17 0)
(3 -4.42473e-16 0)
(3 -2.30099e-16 0)
(3 -7.29439e-16 0)
(3 -6.93505e-16 0)
(3 -2.22193e-16 0)
(3 -5.51453e-17 0)
(3 1.24348e-15 0)
(3 9.18425e-16 0)
(3 1.41524e-15 0)
(3 1.77476e-15 0)
(3 2.49244e-15 0)
(3 2.40535e-15 0)
(3 2.09946e-15 0)
(3 1.44085e-15 0)
(3 3.18156e-16 0)
(3 -7.48442e-16 0)
(3 -8.08339e-16 0)
(3 -6.39795e-16 0)
(3 -8.17632e-16 0)
(3 -1.6687e-15 0)
(3 -3.45529e-15 0)
(3 -3.7702e-15 0)
(3 -2.71988e-15 0)
(3 -1.51242e-15 0)
(3 -1.20542e-15 0)
(3 -1.35519e-15 0)
(3 -8.47632e-16 0)
(3 -6.48783e-16 0)
(3 -6.44094e-16 0)
(3 -7.53346e-16 0)
(3 -7.97902e-16 0)
(3 -5.39639e-16 0)
(3 -1.3558e-16 0)
(3 -4.22078e-16 0)
(3 -5.95895e-16 0)
(3 -7.75157e-16 0)
(3 -9.56249e-16 0)
(3 1.12339e-16 0)
(3 2.38157e-16 0)
(3 5.66112e-16 0)
(2.41322 0.10059 0)
(0.892371 0.130521 0)
(0.760087 0.105711 0)
(0.749914 0.113804 0)
(0.737312 0.119125 0)
(0.726562 0.123594 0)
(0.714873 0.125333 0)
(0.702529 0.123558 0)
(0.689571 0.1191 0)
(0.676021 0.114355 0)
(0.662479 0.112577 0)
(0.650057 0.114818 0)
(0.638875 0.119743 0)
(0.627826 0.124921 0)
(0.615992 0.127832 0)
(0.603372 0.127391 0)
(0.590471 0.124019 0)
(0.577524 0.120999 0)
(0.565192 0.121741 0)
(0.553905 0.125768 0)
(0.542714 0.130608 0)
(0.530583 0.13371 0)
(0.517373 0.133656 0)
(0.503782 0.130637 0)
(0.490038 0.12886 0)
(0.47748 0.131982 0)
(0.466046 0.137271 0)
(0.453671 0.139498 0)
(0.440833 0.13874 0)
(0.427578 0.139108 0)
(0.414329 0.14092 0)
(0.401056 0.142632 0)
(0.387792 0.144068 0)
(0.374648 0.145714 0)
(0.361699 0.147541 0)
(0.348793 0.149049 0)
(0.335643 0.150215 0)
(0.322057 0.151626 0)
(0.308101 0.153452 0)
(0.293995 0.155253 0)
(0.279977 0.15674 0)
(0.26611 0.15801 0)
(0.252185 0.159262 0)
(0.237876 0.16065 0)
(0.223039 0.162183 0)
(0.207849 0.163745 0)
(0.192584 0.165129 0)
(0.177415 0.16617 0)
(0.162311 0.166868 0)