/*--------------------------------*- C++ -*----------------------------------*\
  =========                 |
  \\      /  F ield         | OpenFOAM: The Open Source CFD Toolbox
   \\    /   O peration     | Website:  https://openfoam.org
    \\  /    A nd           | Version:  7
     \\/     M anipulation  |
\*---------------------------------------------------------------------------*/
FoamFile
{
    version     2.0;
    format      ascii;
    class       volVectorField;
    location    "23";
    object      U;
}
// * * * * * * * * * * * * * * * * * * * * * * * * * * * * * * * * * * * * * //

dimensions      [0 1 -1 0 0 0 0];

internalField   nonuniform List<vector> 
433
(
(-2.15256 3.42163 2.83027e-17)
(-1.45178 3.14945 2.89181e-17)
(-0.808859 2.03266 2.81459e-17)
(0.245053 0.557369 -1.07145e-17)
(-1.71062 3.14869 -8.62198e-18)
(-4.80492 6.2392 5.2998e-17)
(-6.09402 7.60909 -4.42721e-17)
(-5.04407 6.86998 2.29979e-17)
(-2.51951 4.94195 2.22102e-17)
(0.351553 2.47553 -8.391e-17)
(2.6137 0.160671 2.65501e-17)
(0.822269 -0.904829 -1.75949e-17)
(-0.584388 -0.147606 -2.06168e-17)
(-3.52325 2.00822 1.80524e-17)
(-4.43774 3.61721 2.09742e-17)
(-3.25159 4.3172 -2.80934e-17)
(-1.5811 4.64055 -2.64952e-18)
(-0.158213 4.63791 3.85907e-18)
(0.780961 4.24276 2.48609e-18)
(1.12982 3.58064 1.92504e-18)
(0.906648 2.86616 -8.04013e-19)
(0.315818 2.23985 9.4431e-19)
(-0.345987 1.73311 -9.21944e-19)
(-0.83702 1.31717 -1.68353e-19)
(-1.45682 0.0797822 1.88988e-17)
(-2.63673 -0.2927 -4.55185e-17)
(-2.19854 -1.51884 7.10172e-17)
(-0.617498 -2.75023 2.39456e-18)
(1.12092 -3.42333 -1.4577e-17)
(2.15805 -3.50794 -1.33573e-17)
(2.24917 -2.84326 2.73205e-17)
(1.59783 -1.63595 -4.89587e-17)
(0.612252 -0.322266 1.20641e-17)
(-0.330498 0.699377 -1.13303e-17)
(-0.988171 1.2348 -1.29658e-17)
(-1.26391 1.31625 5.4946e-18)
(-1.20255 1.10674 -7.41034e-18)
(-0.940564 0.781543 6.5157e-18)
(-0.62646 0.463274 -4.15024e-18)
(-0.35902 0.213525 1.92404e-17)
(-0.172996 0.0478171 -6.63309e-18)
(-2.5995 1.52097 -6.14931e-19)
(-3.4076 1.92561 2.59853e-18)
(-0.986571 0.119486 -2.88075e-18)
(1.57297 -2.13403 -6.20827e-19)
(3.20599 -4.08697 4.00177e-18)
(4.50215 -5.823 8.88085e-19)
(5.39941 -6.98931 -2.77035e-18)
(5.5147 -7.12697 6.6955e-19)
(4.66915 -6.13688 -1.22956e-17)
(3.20953 -4.44515 1.78383e-17)
(1.77516 -2.69573 -3.48124e-18)
(0.809351 -1.34109 1.24362e-18)
(0.359128 -0.50169 -4.29563e-19)
(0.239276 -0.0835826 1.25842e-18)
(0.255376 0.0671926 8.64099e-20)
(0.292271 0.0818605 -1.4033e-19)
(0.306143 0.0450722 -1.30506e-18)
(0.292944 0.00321738 -1.88744e-18)
(0.262459 -0.0251982 3.82526e-18)
(0.225876 -0.03843 -2.28719e-18)
(0.191756 -0.041592 1.99405e-18)
(-0.996111 1.34443 2.70754e-17)
(-2.53817 3.23217 -4.67057e-17)
(-3.71668 4.29189 5.92333e-17)
(-4.0989 4.10799 -1.2084e-17)
(-3.28919 2.66893 -6.18227e-18)
(-1.1768 0.509876 -2.71293e-17)
(1.48263 -1.8636 2.75499e-17)
(3.65517 -3.7599 2.51158e-17)
(4.60418 -4.62329 -2.43225e-17)
(4.3135 -4.38761 2.01226e-17)
(3.31734 -3.44873 -4.70815e-17)
(2.18479 -2.31602 1.30731e-17)
(1.23721 -1.33481 5.56384e-18)
(0.576903 -0.640566 2.67611e-18)
(0.194411 -0.223283 1.34171e-17)
(0.0267422 -0.010828 -1.03909e-17)
(-0.00957492 0.0733915 2.60504e-18)
(0.0127661 0.0902142 9.61203e-18)
(0.048187 0.0785018 -1.91754e-18)
(0.0768955 0.0582702 -4.20105e-18)
(0.0960141 0.0384055 -2.76297e-19)
(0.109364 0.0214352 -2.84768e-18)
(0.121327 0.00743372 2.13529e-18)
(0.135037 -0.00376711 -1.6401e-19)
(0.843543 -0.0605526 7.59224e-18)
(-1.4005 1.68388 -3.18621e-17)
(-5.57168 4.35172 2.34689e-17)
(-7.28494 5.97371 -7.5274e-18)
(-6.01471 6.14866 2.05958e-17)
(-3.36686 5.54226 -2.56352e-17)
(-0.576647 4.42171 1.9784e-17)
(1.5689 3.07218 -1.78954e-18)
(2.64265 1.86108 -2.89119e-17)
(2.63969 1.03386 2.32573e-17)
(1.91582 0.608324 2.21749e-18)
(0.93578 0.44736 -6.57958e-18)
(0.0672068 0.398777 -1.78205e-17)
(-0.496259 0.366421 1.38565e-17)
(-0.729969 0.320036 -6.37556e-18)
(-0.719353 0.25884 -7.56041e-20)
(-0.582329 0.193733 1.87056e-18)
(-0.412285 0.136027 -3.57556e-18)
(-0.259381 0.0910064 2.87508e-18)
(-0.140311 0.0576127 9.80426e-19)
(-0.0534719 0.0318806 -1.53456e-18)
(0.0098323 0.0115286 -5.67136e-19)
(0.0588263 -0.0040351 -3.12149e-19)
(0.339175 -0.804521 -2.00964e-17)
(-0.857357 -1.05606 1.9781e-17)
(-2.866 -0.652522 -2.13715e-17)
(-3.21118 -0.0637737 -9.43435e-18)
(-2.08057 0.613736 6.03052e-18)
(-0.944798 1.41403 -1.02709e-17)
(-0.296861 2.24989 2.27509e-17)
(-0.0991253 2.86606 -2.21544e-17)
(-0.238581 3.11354 2.53259e-17)
(-0.624509 3.00617 1.19215e-17)
(-1.10503 2.63654 5.80145e-18)
(-1.48371 2.11529 -3.85756e-18)
(-1.61852 1.5529 -6.69754e-18)
(-1.49568 1.03716 -3.66455e-18)
(-1.20789 0.621901 3.3446e-18)
(-0.875598 0.320454 -2.28342e-18)
(-0.582554 0.123322 -1.00203e-18)
(-0.361111 0.00729674 2.79836e-19)
(-0.207017 -0.0531671 -2.44396e-20)
(-0.101796 -0.0795791 1.88253e-18)
(-0.0273294 -0.0866476 -2.24255e-18)
(0.0293808 -0.0840074 -1.18887e-18)
(-2.56836 0.410397 7.17747e-18)
(-3.792 0.0668444 1.13412e-17)
(-1.70853 -1.54245 -3.72936e-18)
(1.34436 -3.19752 -6.39704e-17)
(3.89556 -4.2946 5.15803e-17)
(5.62642 -4.96779 -2.3698e-17)
(6.18176 -4.93802 2.33469e-17)
(5.45006 -4.11995 2.00798e-17)
(3.77594 -2.77838 -3.77235e-17)
(1.82449 -1.37745 -5.40561e-19)
(0.229664 -0.306872 3.74316e-19)
(-0.683692 0.295246 1.43361e-17)
(-0.946582 0.503382 -2.21414e-17)
(-0.801758 0.470523 1.4616e-17)
(-0.507819 0.32959 -1.24112e-18)
(-0.230654 0.17047 1.00266e-18)
(-0.0337411 0.0406436 -4.1846e-18)
(0.0803972 -0.0466891 1.41122e-18)
(0.1341 -0.0960713 1.16614e-19)
(0.154387 -0.116424 7.42127e-19)
(0.162049 -0.117997 -6.05236e-19)
(-2.43939 1.2449 5.52394e-18)
(-3.34764 2.04411 2.17877e-17)
(-1.45285 1.41203 8.81592e-19)
(0.626333 0.0980845 1.09792e-17)
(2.26735 -1.55056 -2.40125e-17)
(4.10625 -3.30031 -1.70198e-17)
(5.80053 -4.77707 -2.32535e-18)
(6.59777 -5.49315 2.70131e-17)
(6.06332 -5.21888 -2.13011e-17)
(4.51888 -4.17247 1.28367e-17)
(2.74673 -2.8338 7.26578e-19)
(1.36032 -1.63058 3.26503e-18)
(0.533845 -0.767625 6.64891e-19)
(0.153634 -0.252899 -1.00086e-17)
(0.0385328 -0.00339238 5.86437e-18)
(0.0460104 0.0788424 -2.05271e-18)
(0.0927062 0.0752361 -4.85882e-18)
(0.139925 0.0429736 4.76218e-18)
(0.173274 0.0100596 -9.91717e-19)
(0.191965 -0.0158769 -1.59994e-18)
(-0.433156 0.878705 -3.89325e-18)
(-2.87795 2.72835 1.90379e-17)
(-5.85149 4.35873 -3.14039e-17)
(-6.85023 4.9083 -2.05938e-17)
(-5.42077 4.24145 1.8472e-17)
(-2.36955 2.92478 8.31021e-18)
(1.0926 1.25585 -1.92371e-17)
(3.73986 -0.304118 4.2906e-17)
(4.84163 -1.32053 -2.60929e-17)
(4.48692 -1.66013 1.55155e-17)
(3.30348 -1.49149 -1.49196e-17)
(1.9354 -1.09348 -8.87745e-18)
(0.787604 -0.689533 1.35532e-17)
(0.0262775 -0.38582 -1.80305e-17)
(-0.348204 -0.19284 2.21372e-17)
(-0.434283 -0.0837563 -2.00104e-17)
(-0.361043 -0.0295066 4.25232e-18)
(-0.231231 -0.00733607 6.30802e-18)
(-0.103199 -0.00230831 -2.2512e-18)
(1.47884 -0.434526 5.06649e-19)
(0.0880095 0.12936 -2.60486e-18)
(-3.58861 1.58056 1.57772e-18)
(-5.20757 3.13775 8.38544e-20)
(-4.5079 4.39991 1.16187e-18)
(-3.12642 5.34561 -3.23397e-19)
(-1.74725 5.72564 -1.72592e-19)
(-0.672529 5.45905 -2.10124e-19)
(-0.159987 4.73087 7.06339e-19)
(-0.270522 3.79902 -3.41122e-18)
(-0.7882 2.86587 4.74581e-18)
(-1.36894 2.03654 -7.81514e-18)
(-1.73561 1.35314 4.51416e-18)
(-1.77661 0.827347 1.15382e-18)
(-1.54796 0.453067 -3.77266e-18)
(-1.18482 0.211768 2.25748e-18)
(-0.811323 0.0724852 -1.95219e-18)
(-0.498412 -0.00161789 3.84132e-18)
(-0.240902 -0.711623 1.90209e-17)
(-0.389715 -1.66569 -3.42459e-17)
(0.23953 -2.57964 2.82871e-17)
(1.82946 -2.89428 -3.31979e-17)
(3.38022 -2.46432 3.37348e-17)
(3.80108 -1.56369 -2.81421e-17)
(2.95778 -0.320735 1.95561e-17)
(1.34699 0.930304 9.80074e-18)
(-0.431147 1.85412 -3.07437e-17)
(-1.92703 2.27607 1.67418e-17)
(-2.86206 2.21305 8.04691e-18)
(-3.13234 1.82549 -3.80746e-18)
(-2.83152 1.32189 2.22978e-19)
(-2.19722 0.849093 3.48462e-18)
(-1.48703 0.473447 -5.35511e-18)
(-0.87759 0.20402 1.34047e-18)
(-0.43621 0.0287927 6.58937e-19)
(-0.153458 -0.0720267 1.0836e-19)
(-2.83035 0.260606 -1.39573e-18)
(-3.34221 -0.0489507 -1.64604e-17)
(0.234955 -1.31905 1.34696e-17)
(4.25669 -2.78641 -2.25242e-18)
(7.03446 -4.0449 2.57034e-18)
(8.7476 -5.0102 -9.42835e-18)
(9.08047 -5.3578 2.15546e-18)
(7.78095 -4.91658 5.78594e-19)
(5.21523 -3.86014 -2.68378e-19)
(2.34317 -2.59163 -9.92102e-19)
(0.12575 -1.47377 1.2635e-18)
(-1.02165 -0.671749 -5.3567e-18)
(-1.25716 -0.183665 -1.75491e-18)
(-0.98792 0.0611387 1.44213e-18)
(-0.568929 0.141571 -3.87039e-19)
(-0.199547 0.129886 3.41304e-19)
(0.0536387 0.0808061 -3.70114e-19)
(-1.78077 0.895124 2.79307e-18)
(-3.04097 1.91249 4.00724e-18)
(-2.63442 2.14429 1.22425e-19)
(-1.4599 1.50143 -7.56599e-19)
(0.35759 0.122553 3.77331e-19)
(2.8919 -1.48027 2.90663e-18)
(5.27725 -2.96556 -6.60837e-18)
(6.42784 -3.9149 1.93298e-17)
(5.93634 -4.08882 -1.55676e-17)
(4.35422 -3.58917 8.78535e-18)
(2.58218 -2.73803 -9.79597e-18)
(1.20015 -1.85742 6.67211e-18)
(0.343702 -1.14231 -2.67175e-18)
(-0.0826225 -0.653581 3.03874e-18)
(-0.221374 -0.360567 -1.7553e-18)
(-0.19697 -0.201485 -2.84483e-19)
(-0.100797 -0.123648 3.43795e-18)
(0.690861 0.477201 -6.7751e-18)
(-1.61453 1.67149 -1.83432e-18)
(-5.7225 2.97946 1.06748e-17)
(-7.55826 4.02392 -1.79115e-17)
(-6.60633 4.54261 6.81981e-18)
(-4.20464 4.66078 7.25009e-18)
(-1.42636 4.24758 -7.12052e-18)
(0.799488 3.42801 -6.3294e-19)
(1.8846 2.49962 4.76656e-19)
(1.84045 1.69017 2.13356e-18)
(1.104 1.06926 9.95335e-19)
(0.184133 0.606922 4.45056e-19)
(-0.550638 0.260593 -3.90776e-18)
(-0.936188 0.0140968 2.9551e-18)
(-0.985184 -0.134839 -9.12783e-19)
(-0.815161 -0.201356 -1.8319e-18)
(-0.559833 -0.21108 9.87441e-19)
(1.79366 -0.552724 2.87187e-18)
(1.85971 -0.979454 -7.0169e-19)
(0.00219188 -0.95161 3.87374e-19)
(-0.70312 -0.0727084 -8.53067e-19)
(-0.432823 1.41599 5.81543e-18)
(-0.567319 3.02047 -1.88944e-18)
(-1.20864 4.32024 -4.1146e-18)
(-2.04027 5.02036 2.4613e-18)
(-2.88412 5.0475 5.14003e-19)
(-3.63746 4.51076 -9.59339e-19)
(-4.14349 3.62275 3.84162e-19)
(-4.2362 2.61723 1.60954e-19)
(-3.85816 1.69283 5.15353e-20)
(-3.12225 0.967152 -7.24071e-19)
(-2.24677 0.464561 -2.7077e-20)
(-1.43479 0.153351 1.0029e-19)
(-0.799255 -0.0177907 1.8595e-20)
(-1.27602 -0.663794 1.47074e-18)
(-0.96613 -1.62949 -5.66604e-18)
(2.05082 -2.599 1.56217e-18)
(5.79194 -3.0862 -1.42768e-19)
(8.5011 -3.01085 2.26634e-18)
(9.40517 -2.66894 -1.62989e-18)
(8.23645 -2.02071 3.54615e-18)
(5.46228 -1.19271 -3.65062e-18)
(2.03331 -0.421426 3.37812e-18)
(-1.04452 0.105228 -2.76824e-18)
(-3.06961 0.342221 1.7125e-18)
(-3.83274 0.379272 -2.46843e-19)
(-3.57097 0.336544 -1.17248e-18)
(-2.74294 0.277001 4.12943e-19)
(-1.78036 0.211895 -4.88413e-19)
(-0.953109 0.14181 5.04623e-19)
(-2.66359 0.0827454 4.89266e-19)
(-2.87989 0.171341 -1.56367e-18)
(0.736208 -0.0785955 4.28253e-19)
(4.57895 -0.830539 4.55723e-19)
(7.27822 -1.98143 5.1329e-19)
(9.14108 -3.16472 -2.27698e-19)
(9.71074 -4.06228 6.12633e-19)
(8.51828 -4.42516 -4.03694e-19)
(5.85526 -4.20911 3.31255e-19)
(2.78411 -3.56422 -3.88116e-19)
(0.373905 -2.70661 4.44529e-19)
(-0.933916 -1.83267 2.63614e-19)
(-1.3022 -1.08126 -2.89243e-19)
(-1.12611 -0.525158 1.78469e-19)
(-0.747069 -0.173285 -4.53586e-19)
(-0.366251 0.00989374 6.61632e-19)
(-0.905168 0.723527 5.38146e-18)
(-2.72625 1.74476 -1.25537e-18)
(-4.2092 2.34949 5.59708e-19)
(-4.14857 2.36969 -2.96055e-18)
(-2.37879 1.81535 1.14762e-17)
(0.471959 1.0719 -1.13658e-17)
(3.29189 0.170076 -1.73153e-18)
(4.95675 -0.712104 5.6702e-18)
(5.03998 -1.33705 2.15222e-18)
(3.97256 -1.59008 -3.29731e-18)
(2.50111 -1.5236 1.35535e-18)
(1.17823 -1.28396 2.74123e-19)
(0.244351 -1.00813 1.61424e-19)
(-0.273698 -0.76632 -3.17384e-18)
(-0.453199 -0.568105 -7.45555e-19)
(-0.410916 -0.404973 1.73143e-18)
(-0.26173 -0.274252 -7.31098e-20)
(1.90874 0.400102 2.26203e-18)
(0.847954 0.878341 2.29519e-19)
(-3.03981 1.29316 -3.40626e-18)
(-5.3705 2.29939 6.90109e-18)
(-5.6081 3.59911 -2.48528e-18)
(-5.0488 4.76981 -3.33379e-18)
(-4.18802 5.39395 3.55291e-18)
(-3.35793 5.35488 1.19099e-19)
(-2.8588 4.75753 -5.11801e-18)
(-2.75894 3.81062 4.1159e-18)
(-2.886 2.73884 -3.0386e-19)
(-2.98465 1.72065 6.08655e-19)
(-2.86314 0.883462 2.23699e-18)
(-2.47447 0.293376 -1.92941e-18)
(-1.90786 -0.0505006 5.59457e-19)
(-1.30442 -0.199175 1.49327e-18)
(-0.775285 -0.225886 -5.21441e-19)
(1.48144 -0.508337 2.56167e-18)
(2.87269 -1.22364 5.26881e-18)
(3.65269 -1.7541 -1.88541e-19)
(4.83884 -1.28131 9.73899e-19)
(5.58817 -0.0113356 -2.04163e-18)
(4.79605 1.32585 1.38788e-18)
(2.62363 2.41934 -5.25733e-18)
(-0.152822 3.056 1.65107e-17)
(-2.8019 3.14966 -1.55743e-17)
(-4.81117 2.76524 7.97508e-18)
(-5.87632 2.08061 -9.56992e-18)
(-5.93193 1.3392 4.9875e-18)
(-5.17344 0.73336 -1.1936e-18)
(-3.96468 0.338748 1.79144e-18)
(-2.6828 0.125721 -9.47334e-19)
(-1.58659 0.0220392 3.15618e-19)
(-0.780733 -0.0276372 6.54931e-19)
(-2.01621 -0.831549 2.77246e-18)
(-1.48257 -1.45386 3.21367e-17)
(2.98779 -1.50941 -2.691e-17)
(7.89362 -1.39619 3.37795e-18)
(11.1029 -1.37716 -3.23854e-18)
(12.2965 -1.5792 1.52785e-17)
(11.186 -1.8472 -3.22588e-18)
(8.09019 -2.0798 -2.85101e-19)
(4.01775 -2.22721 -9.94218e-19)
(0.242278 -2.23474 2.8632e-20)
(-2.31187 -2.06186 -2.55015e-18)
(-3.39497 -1.7096 6.98205e-18)
(-3.31669 -1.23925 2.54381e-18)
(-2.60098 -0.76119 -2.73559e-18)
(-1.70668 -0.37487 9.35188e-19)
(-0.914402 -0.119921 -5.54634e-19)
(-0.333419 0.0178509 9.56893e-20)
(-2.15137 -0.0132804 1.28073e-17)
(-2.49518 0.453395 -2.6815e-17)
(0.0486249 1.03745 2.0341e-17)
(2.97738 0.925517 -2.43905e-17)
(5.40683 0.0614342 2.29526e-17)
(7.41457 -1.02737 -1.84685e-17)
(8.3922 -2.12617 1.09123e-17)
(7.78025 -3.02331 5.19387e-18)
(5.78432 -3.53108 -2.05449e-17)
(3.30335 -3.55761 2.22641e-17)
(1.22472 -3.15243 -1.59902e-17)
(-0.0648069 -2.49083 9.00962e-18)
(-0.631239 -1.77685 7.147e-20)
(-0.721419 -1.15844 3.66556e-18)
(-0.57059 -0.696139 -8.56559e-18)
(-0.338423 -0.386236 8.72032e-19)
(-0.110659 -0.1959 2.57843e-18)
(0.0765988 -0.0854225 8.49775e-19)
(0.124218 0.791643 1.81796e-17)
(-1.73601 1.54545 -2.66645e-17)
(-4.6195 1.80686 1.91855e-17)
(-5.81864 2.10238 3.06083e-18)
(-4.91448 2.36743 3.33828e-17)
(-2.86353 2.60084 -1.4299e-17)
(-0.566413 2.52167 -1.95467e-17)
(1.12567 2.0755 7.26107e-18)
(1.77668 1.39845 -2.85274e-18)
(1.51775 0.687813 1.17089e-17)
(0.790427 0.0794999 -2.19034e-17)
(0.0260757 -0.372757 3.29292e-17)
(-0.512776 -0.657781 -2.53893e-17)
(-0.741514 -0.781476 -1.98734e-18)
(-0.707162 -0.766493 1.88474e-17)
(-0.518598 -0.65753 -8.84116e-18)
(2.70039 0.681485 -1.53084e-19)
(3.31924 0.943482 2.33193e-18)
(0.829497 0.60892 -6.07687e-18)
(-1.14445 1.22145 -2.63047e-18)
)
;

boundaryField
{
    inlet
    {
        type            uniformFixedValue;
        uniformValue    constant (1 0 0);
        value           nonuniform 0();
    }
    outlet
    {
        type            pressureInletOutletVelocity;
        value           nonuniform 0();
    }
    cylinder
    {
        type            fixedValue;
        value           uniform (0 0 0);
    }
    top
    {
        type            symmetryPlane;
    }
    bottom
    {
        type            symmetryPlane;
    }
    defaultFaces
    {
        type            empty;
    }
    procBoundary20to14
    {
        type            processor;
        value           uniform (-1.44763 1.91099 2.55997e-17);
    }
    procBoundary20to25
    {
        type            processor;
        value           nonuniform List<vector> 
20
(
(-0.281945 -0.506954 6.65216e-18)
(-0.0631982 -0.355799 -1.33592e-17)
(-2.177 2.55768 -3.77094e-18)
(-3.27888 3.82581 -1.14973e-18)
(-4.42463 4.58377 -2.03085e-18)
(-5.37662 4.68442 1.80475e-18)
(-6.0227 4.16505 -4.3101e-19)
(-6.31245 3.20754 -2.03258e-18)
(-6.19004 2.07735 1.30512e-18)
(-5.63383 1.03473 9.18671e-19)
(-4.70838 0.257862 -2.27567e-18)
(-3.57775 -0.198404 2.57966e-18)
(-2.44859 -0.383246 -3.51775e-18)
(-0.281945 -0.506954 6.65216e-18)
(-1.48603 -0.393229 5.04718e-18)
(0.871485 -0.490472 9.93453e-18)
(2.8809 -0.899557 4.03467e-17)
(5.59271 -0.884644 1.60867e-18)
(-2.177 2.55768 -3.77094e-18)
(8.31559 -0.0692181 2.31358e-17)
)
;
    }
    procBoundary20to26
    {
        type            processor;
        value           nonuniform List<vector> 
28
(
(0.100023 -0.0156093 2.6614e-18)
(0.100023 -0.0156093 2.6614e-18)
(0.0764532 -0.0779406 -1.95069e-18)
(0.0764532 -0.0779406 -1.95069e-18)
(0.168932 -0.110546 3.32369e-19)
(0.168932 -0.110546 3.32369e-19)
(0.20246 -0.0340463 1.89726e-19)
(0.20246 -0.0340463 1.89726e-19)
(0.000348374 -0.0061451 1.25625e-18)
(0.000348374 -0.0061451 1.25625e-18)
(-0.264642 -0.0379856 2.48558e-18)
(-0.264642 -0.0379856 2.48558e-18)
(0.0129815 -0.119623 -5.14918e-20)
(0.19766 0.0264488 -1.27388e-19)
(0.19766 0.0264488 -1.27388e-19)
(0.00851333 -0.0885152 -6.95963e-19)
(-0.31126 -0.18859 -7.44905e-19)
(-0.358099 -0.100333 -1.4342e-19)
(-0.359838 0.0742492 9.82932e-20)
(-0.359838 0.0742492 9.82932e-20)
(-0.0662031 0.0801379 -5.41476e-21)
(-0.0662031 0.0801379 -5.41476e-21)
(-0.0881302 -0.175204 3.13498e-19)
(-0.368996 -0.19464 1.05795e-18)
(-0.253233 -0.0489339 3.61498e-19)
(0.0397619 0.0719128 4.44901e-19)
(0.0397619 0.0719128 4.44901e-19)
(0.217173 -0.0240989 -6.38445e-19)
)
;
    }
    procBoundary20to27
    {
        type            processor;
        value           nonuniform List<vector> 
29
(
(-3.82154 2.1888 -1.29712e-17)
(-2.14316 -0.0566462 -7.57124e-18)
(0.166271 -2.73687 -6.0238e-18)
(-0.293104 0.3366 3.20803e-17)
(-0.293104 0.3366 3.20803e-17)
(0.799882 -1.86762 4.09361e-17)
(2.25741 -4.17115 -2.61439e-17)
(3.46924 -5.85676 -5.76789e-18)
(3.70869 -1.41392 -1.71754e-17)
(3.70869 -1.41392 -1.71754e-17)
(3.63594 -2.03134 8.47513e-18)
(2.8094 -1.88535 1.69685e-17)
(1.72792 -1.35141 9.96593e-18)
(0.756834 -0.75963 -2.85807e-17)
(-1.05267 0.966048 -6.62033e-19)
(-1.05267 0.966048 -6.62033e-19)
(-1.0266 0.672497 -3.23253e-19)
(-0.857918 0.440748 1.23956e-18)
(-0.643483 0.273219 5.45577e-19)
(-0.0615618 -0.0456334 4.87727e-18)
(-0.0615618 -0.0456334 4.87727e-18)
(-0.00248901 -0.0876075 -5.63977e-19)
(0.0263733 -0.0978318 9.71562e-19)
(0.041848 -0.0906319 -9.23784e-19)
(0.165654 -0.0400115 2.30358e-18)
(0.165654 -0.0400115 2.30358e-18)
(0.150079 -0.0368696 -1.1074e-18)
(0.144959 -0.0337403 1.24101e-18)
(0.15198 -0.0125299 2.6152e-18)
)
;
    }
}


// ************************************************************************* //
