/*--------------------------------*- C++ -*----------------------------------*\
  =========                 |
  \\      /  F ield         | OpenFOAM: The Open Source CFD Toolbox
   \\    /   O peration     | Website:  https://openfoam.org
    \\  /    A nd           | Version:  7
     \\/     M anipulation  |
\*---------------------------------------------------------------------------*/
FoamFile
{
    version     2.0;
    format      ascii;
    class       volScalarField;
    location    "45.999926";
    object      p;
}
// * * * * * * * * * * * * * * * * * * * * * * * * * * * * * * * * * * * * * //

dimensions      [0 2 -2 0 0 0 0];

internalField   nonuniform List<scalar> 
5800
(
-0.287776
-0.291965
-0.294416
-0.295768
-0.296328
-0.296065
-0.294992
-0.29313
-0.290498
-0.287108
0.821307
0.782281
0.754627
0.732046
0.710965
0.690718
0.67046
0.649496
0.627478
0.604337
0.580205
0.821307
0.782281
0.754627
0.732046
0.710965
0.690718
0.67046
0.649496
0.627478
0.604337
0.580205
0.555336
0.530043
0.504645
0.479435
0.454665
0.430543
0.407225
0.384846
0.363472
0.81678
0.777934
0.750428
0.728005
0.70711
0.687072
0.667043
0.64632
0.624546
0.601646
0.577745
0.553094
0.528004
0.502793
0.477755
0.453142
0.429163
0.405975
0.383706
0.362456
0.807758
0.769272
0.742063
0.719954
0.699427
0.679806
0.660233
0.639988
0.618701
0.59628
0.572839
0.548623
0.523938
0.4991
0.474404
0.450104
0.426411
0.403481
0.381432
0.36043
0.794311
0.756362
0.729595
0.707953
0.687972
0.668971
0.650075
0.630543
0.609979
0.588272
0.565517
0.541949
0.517866
0.493585
0.469399
0.445566
0.4223
0.399755
0.378035
0.357402
0.776539
0.7393
0.713118
0.692092
0.67283
0.654644
0.636639
0.618045
0.598436
0.57767
0.555821
0.533109
0.509824
0.486278
0.462767
0.439551
0.41685
0.394816
0.37353
0.353383
0.754575
0.718217
0.692756
0.672489
0.654112
0.636927
0.620017
0.602578
0.584145
0.564539
0.543809
0.522153
0.499853
0.477218
0.454542
0.43209
0.410089
0.388686
0.367939
0.348391
0.728583
0.693271
0.668665
0.64929
0.631953
0.615945
0.600323
0.584243
0.567194
0.548958
0.529549
0.509143
0.488011
0.466454
0.444767
0.42322
0.402049
0.381396
0.361289
0.342447
0.698756
0.664651
0.641024
0.622669
0.606514
0.591846
0.577689
0.563158
0.547691
0.531022
0.513126
0.494154
0.47436
0.454041
0.433493
0.412986
0.392769
0.37298
0.35361
0.335573
0.665316
0.632569
0.610041
0.592822
0.577982
0.564799
0.55227
0.539463
0.525758
0.510838
0.494634
0.477268
0.458976
0.440047
0.420776
0.401438
0.382294
0.363478
0.344937
0.327796
0.628509
0.597267
0.575948
0.55997
0.546561
0.534995
0.524238
0.51331
0.501532
0.488528
0.474181
0.45858
0.441941
0.424544
0.406681
0.388634
0.370672
0.352931
0.335307
0.319145
0.588607
0.559006
0.538997
0.524355
0.512479
0.502642
0.493782
0.48487
0.475164
0.464224
0.451885
0.438195
0.423348
0.407613
0.391279
0.374634
0.35796
0.341389
0.324762
0.309651
0.545901
0.51807
0.499463
0.486237
0.47598
0.467966
0.461107
0.454326
0.446816
0.438073
0.427872
0.416224
0.403294
0.38934
0.374648
0.359507
0.344214
0.328902
0.313345
0.299344
0.500702
0.474757
0.457636
0.445895
0.437325
0.431207
0.426433
0.421876
0.416666
0.410228
0.402281
0.392788
0.381888
0.369821
0.356869
0.343325
0.329498
0.315525
0.301103
0.288256
0.453334
0.429384
0.41382
0.403619
0.396789
0.392621
0.38999
0.387728
0.384897
0.380854
0.375256
0.368015
0.35924
0.349153
0.33803
0.326164
0.313877
0.301313
0.288083
0.276418
0.404137
0.382277
0.368332
0.359714
0.354657
0.352471
0.352021
0.352099
0.351705
0.350125
0.346949
0.34204
0.33547
0.327442
0.318222
0.308104
0.297422
0.286327
0.274333
0.263858
0.353458
0.333772
0.321497
0.31449
0.311223
0.311031
0.312776
0.315217
0.317292
0.318218
0.317518
0.315002
0.3107
0.304795
0.297542
0.289229
0.280205
0.27063
0.259908
0.250602
0.301651
0.284211
0.273646
0.268266
0.26679
0.268583
0.272513
0.277313
0.281867
0.28532
0.287128
0.287044
0.285059
0.281325
0.276087
0.269628
0.262303
0.254292
0.24487
0.236659
0.249073
0.233938
0.225111
0.221361
0.221659
0.225409
0.231493
0.238626
0.245641
0.251619
0.255946
0.258317
0.258675
0.257148
0.253961
0.249391
0.243797
0.237385
0.229281
0.222007
0.196081
0.183296
0.176226
0.174096
0.176137
0.181796
0.18998
0.199395
0.208832
0.217307
0.224142
0.228969
0.231684
0.232381
0.23127
0.228612
0.224767
0.219973
0.213199
0.206626
0.143028
0.132624
0.127318
0.126788
0.130526
0.138029
0.148238
0.159861
0.171655
0.18258
0.191889
0.199153
0.204218
0.207144
0.208118
0.207392
0.205301
0.202124
0.196869
0.190739
0.0902592
0.0822537
0.0787092
0.0797475
0.0851222
0.0943876
0.106528
0.120265
0.13433
0.14763
0.159358
0.169021
0.176414
0.181556
0.184615
0.18583
0.185506
0.184005
0.181196
0.176645
0.0381116
0.0325057
0.0307105
0.0332757
0.040216
0.0511475
0.0651074
0.0808429
0.0970693
0.112652
0.126722
0.138726
0.148404
0.155735
0.160861
0.164011
0.165455
0.165544
0.164709
0.162212
-0.0130859
-0.0163159
-0.0163814
-0.0123384
-0.00391417
0.00857425
0.0242267
0.0418268
0.0600862
0.0778348
0.0941506
0.108418
0.120323
0.129799
0.136958
0.142018
0.145219
0.146855
0.147631
0.147195
-0.0630242
-0.0639217
-0.062287
-0.0568216
-0.0470031
-0.0330774
-0.0158732
0.00344144
0.0235865
0.0433663
0.0618107
0.0782462
0.092301
0.103862
0.113009
0.11994
0.12488
0.128073
0.130328
0.131645
-0.111509
-0.109984
-0.106736
-0.099918
-0.0888017
-0.0735661
-0.0549623
-0.0340971
-0.0122303
0.00942758
0.0298653
0.0483546
0.064467
0.0780402
0.0891161
0.0978716
0.104518
0.109273
0.112969
0.115799
-0.15814
-0.154342
-0.149492
-0.14139
-0.129081
-0.112667
-0.0928241
-0.0705836
-0.047173
-0.0238065
-0.00152748
0.0188849
0.0369466
0.0524444
0.0653798
0.0759038
0.0842147
0.0905109
0.0956176
0.0998567
-0.202727
-0.196731
-0.190334
-0.181021
-0.167623
-0.150178
-0.129259
-0.105826
-0.0810606
-0.0561689
-0.0322161
-0.0100268
0.00986141
0.0271831
0.0418971
0.0541243
0.0640483
0.0718512
0.0783313
0.0839178
-0.245065
-0.236945
-0.22907
-0.218626
-0.204246
-0.185905
-0.164082
-0.139649
-0.113724
-0.0875019
-0.0620562
-0.03825
-0.0166719
0.00236063
0.0187612
0.0326177
0.0440958
0.0533621
0.061174
0.0680522
-0.284965
-0.274813
-0.265533
-0.254039
-0.238786
-0.219687
-0.197128
-0.171884
-0.14501
-0.117659
-0.0909115
-0.0656611
-0.0425422
-0.0219237
-0.00393874
0.011464
0.0244297
0.0351085
0.0442066
0.052323
-0.322268
-0.310191
-0.299585
-0.287122
-0.271104
-0.251385
-0.228255
-0.202392
-0.174773
-0.146504
-0.118656
-0.0921444
-0.0676446
-0.0455759
-0.0261188
-0.00926144
0.0051175
0.0171504
0.0274843
0.036786
-0.356848
-0.342962
-0.331114
-0.317768
-0.301088
-0.28088
-0.257342
-0.231048
-0.202889
-0.173914
-0.145174
-0.117592
-0.0918814
-0.0685082
-0.0477004
-0.0294884
-0.0137781
-0.000456678
0.0110573
0.0214904
-0.388605
-0.37304
-0.36004
-0.345895
-0.328653
-0.308082
-0.28429
-0.257746
-0.22925
-0.199782
-0.170359
-0.141906
-0.115163
-0.0906388
-0.0686107
-0.049152
-0.0321995
-0.0176613
-0.00502959
0.0064808
-0.417474
-0.400367
-0.38631
-0.37145
-0.353744
-0.332926
-0.309024
-0.282404
-0.253765
-0.224013
-0.194119
-0.164997
-0.137407
-0.111894
-0.0887834
-0.0681921
-0.0500941
-0.0344152
-0.0207382
-0.00820156
-0.443418
-0.424916
-0.409901
-0.394409
-0.376331
-0.355374
-0.331496
-0.304959
-0.276364
-0.246531
-0.216375
-0.186788
-0.158539
-0.132207
-0.108158
-0.0865581
-0.0674134
-0.0506722
-0.0360343
-0.02252
-0.466429
-0.446686
-0.430815
-0.414775
-0.39641
-0.375414
-0.351679
-0.325374
-0.296996
-0.267275
-0.237061
-0.207212
-0.178495
-0.151516
-0.12668
-0.104199
-0.0841182
-0.0664173
-0.0508347
-0.0364752
-0.486529
-0.465703
-0.449082
-0.432576
-0.414005
-0.393058
-0.369573
-0.343631
-0.315628
-0.286201
-0.256124
-0.226212
-0.19722
-0.169769
-0.144302
-0.121071
-0.100167
-0.0815957
-0.0651527
-0.0501513
-0.503764
-0.482021
-0.464756
-0.447866
-0.429163
-0.408344
-0.385202
-0.359737
-0.332252
-0.303285
-0.273529
-0.243746
-0.214668
-0.186923
-0.160981
-0.137139
-0.115527
-0.0961832
-0.0789613
-0.0632784
-0.518208
-0.495712
-0.477914
-0.460718
-0.441953
-0.421331
-0.398609
-0.37372
-0.346875
-0.318518
-0.289254
-0.259783
-0.230802
-0.202939
-0.176684
-0.15237
-0.13017
-0.110154
-0.0922346
-0.0759125
-0.529956
-0.506874
-0.488652
-0.47123
-0.452468
-0.432101
-0.409863
-0.385629
-0.359529
-0.331911
-0.303294
-0.274304
-0.245598
-0.217789
-0.191381
-0.166738
-0.144072
-0.123486
-0.104956
-0.0880795
-0.539123
-0.515621
-0.497084
-0.479513
-0.460814
-0.440752
-0.41905
-0.395534
-0.370262
-0.343493
-0.315657
-0.287305
-0.25904
-0.231452
-0.205049
-0.18022
-0.157213
-0.136164
-0.117109
-0.0997618
-0.545841
-0.522083
-0.50334
-0.485695
-0.467116
-0.447401
-0.426273
-0.403522
-0.379141
-0.35331
-0.326371
-0.298794
-0.271124
-0.243916
-0.217672
-0.192799
-0.169578
-0.148173
-0.12868
-0.110943
-0.550258
-0.526402
-0.507561
-0.489916
-0.47151
-0.452178
-0.431651
-0.409695
-0.386251
-0.361425
-0.335476
-0.308793
-0.281856
-0.255176
-0.229241
-0.204465
-0.181155
-0.159504
-0.139659
-0.121614
-0.552534
-0.528732
-0.509897
-0.492325
-0.474141
-0.455223
-0.435315
-0.414171
-0.391691
-0.367916
-0.343029
-0.317338
-0.291254
-0.265239
-0.239752
-0.215209
-0.191936
-0.170148
-0.15004
-0.131772
-0.552836
-0.529234
-0.510505
-0.493077
-0.475163
-0.456684
-0.437406
-0.41708
-0.395573
-0.372876
-0.349099
-0.324477
-0.299348
-0.274116
-0.249209
-0.22503
-0.201916
-0.180103
-0.15982
-0.141417
-0.551338
-0.528072
-0.509547
-0.49233
-0.474731
-0.456715
-0.438072
-0.418557
-0.39802
-0.376408
-0.353771
-0.330272
-0.306178
-0.281833
-0.257622
-0.23393
-0.211096
-0.189365
-0.168997
-0.150551
-0.548217
-0.525414
-0.507182
-0.490243
-0.473004
-0.45547
-0.437462
-0.418746
-0.399164
-0.378628
-0.357138
-0.334794
-0.311794
-0.28842
-0.265009
-0.241916
-0.219476
-0.197938
-0.177574
-0.159184
-0.543651
-0.521425
-0.503572
-0.486974
-0.470135
-0.453103
-0.435728
-0.417795
-0.399141
-0.379659
-0.359307
-0.338129
-0.31626
-0.293921
-0.271395
-0.249002
-0.227064
-0.205824
-0.185556
-0.16733
-0.537814
-0.516268
-0.498874
-0.482674
-0.466278
-0.449765
-0.43302
-0.415847
-0.398091
-0.379629
-0.360389
-0.340369
-0.319647
-0.298384
-0.276811
-0.255206
-0.233868
-0.21303
-0.192949
-0.17501
-0.530877
-0.510101
-0.493237
-0.477493
-0.461577
-0.445602
-0.429483
-0.413048
-0.396153
-0.378668
-0.360503
-0.341615
-0.322036
-0.30187
-0.281297
-0.260551
-0.239902
-0.219564
-0.199762
-0.182249
-0.523003
-0.503076
-0.486805
-0.471568
-0.45617
-0.440751
-0.425255
-0.409536
-0.393463
-0.376909
-0.359769
-0.341974
-0.323514
-0.304447
-0.2849
-0.265065
-0.245181
-0.225436
-0.206003
-0.189081
-0.514349
-0.495335
-0.479713
-0.46503
-0.450186
-0.435341
-0.420465
-0.405442
-0.390153
-0.374479
-0.358309
-0.341556
-0.324176
-0.306188
-0.287674
-0.268783
-0.249722
-0.230655
-0.211682
-0.195545
-0.505058
-0.48701
-0.472087
-0.458
-0.443741
-0.429488
-0.415234
-0.400887
-0.386345
-0.371501
-0.356242
-0.34047
-0.324119
-0.307173
-0.289678
-0.271743
-0.253548
-0.235231
-0.216806
-0.201678
-0.495266
-0.478225
-0.46404
-0.450586
-0.436943
-0.423299
-0.40967
-0.395982
-0.382155
-0.368091
-0.353683
-0.338827
-0.323442
-0.307487
-0.290977
-0.273989
-0.25668
-0.23917
-0.221375
-0.207515
-0.485094
-0.46909
-0.455676
-0.442888
-0.429887
-0.41687
-0.403867
-0.390827
-0.377684
-0.364355
-0.350738
-0.336731
-0.322243
-0.307217
-0.291641
-0.275569
-0.259141
-0.242474
-0.225381
-0.21307
-0.474653
-0.459704
-0.447087
-0.434992
-0.422657
-0.410282
-0.397911
-0.385508
-0.373023
-0.360387
-0.347506
-0.334281
-0.320619
-0.306448
-0.291742
-0.276534
-0.260958
-0.245139
-0.2288
-0.218311
-0.464038
-0.450157
-0.438355
-0.426974
-0.415326
-0.403608
-0.391872
-0.380098
-0.368251
-0.35627
-0.344074
-0.331568
-0.318658
-0.305267
-0.291355
-0.27694
-0.262155
-0.247152
-0.231589
-0.22312
-0.453335
-0.440526
-0.429552
-0.418901
-0.407956
-0.396905
-0.38581
-0.374661
-0.363432
-0.352075
-0.340518
-0.328672
-0.316445
-0.303755
-0.290554
-0.276846
-0.262762
-0.248491
-0.233682
-0.227225
-0.442618
-0.430877
-0.420738
-0.410829
-0.400598
-0.390225
-0.379775
-0.369245
-0.358619
-0.347859
-0.3369
-0.325661
-0.314052
-0.30199
-0.289415
-0.276318
-0.262818
-0.249142
-0.235032
-0.230157
-0.431949
-0.421268
-0.411966
-0.402806
-0.393296
-0.383608
-0.373803
-0.363888
-0.353854
-0.343667
-0.333272
-0.322593
-0.311546
-0.300042
-0.288012
-0.275425
-0.262365
-0.249091
-0.235604
-0.231126
-0.421381
-0.411749
-0.40328
-0.394872
-0.386087
-0.377085
-0.367927
-0.358622
-0.349166
-0.339532
-0.329672
-0.319514
-0.308978
-0.297972
-0.286415
-0.274243
-0.261462
-0.24831
-0.234782
-0.226681
-0.41096
-0.402362
-0.39472
-0.38706
-0.378999
-0.370682
-0.362167
-0.353467
-0.344578
-0.33548
-0.326128
-0.316459
-0.306391
-0.295835
-0.284693
-0.272866
-0.260243
-0.246972
-0.231879
-0.204769
-0.400726
-0.393143
-0.386318
-0.3794
-0.372058
-0.364421
-0.356543
-0.348438
-0.340104
-0.331525
-0.32266
-0.31345
-0.303819
-0.293674
-0.282914
-0.271411
-0.258956
-0.245714
-0.231289
-0.197733
-0.390712
-0.384125
-0.378103
-0.371917
-0.365283
-0.358317
-0.351067
-0.343545
-0.335754
-0.327677
-0.319278
-0.310504
-0.301282
-0.291522
-0.281123
-0.269954
-0.257767
-0.244804
-0.231778
-0.198399
-0.38095
-0.375338
-0.370104
-0.364634
-0.358696
-0.352386
-0.34575
-0.338798
-0.331533
-0.323941
-0.315989
-0.307629
-0.298793
-0.289397
-0.279343
-0.268512
-0.256657
-0.244074
-0.231984
-0.19973
-0.37147
-0.36681
-0.362344
-0.357573
-0.352312
-0.346642
-0.340602
-0.334203
-0.327447
-0.320321
-0.312796
-0.304829
-0.296358
-0.287306
-0.277583
-0.267082
-0.255575
-0.243395
-0.231826
-0.201055
-0.362304
-0.35857
-0.35485
-0.350757
-0.34615
-0.341099
-0.335633
-0.329766
-0.323498
-0.316818
-0.3097
-0.302106
-0.29398
-0.285253
-0.275847
-0.265665
-0.254505
-0.24274
-0.231522
-0.202583
-0.353482
-0.350648
-0.347648
-0.344207
-0.34023
-0.335771
-0.330856
-0.325496
-0.319692
-0.313436
-0.306704
-0.299462
-0.291662
-0.283243
-0.274138
-0.264264
-0.253448
-0.242103
-0.231159
-0.204284
-0.345038
-0.343072
-0.340765
-0.337948
-0.334571
-0.330675
-0.326282
-0.321403
-0.316039
-0.310182
-0.303813
-0.296901
-0.289407
-0.281279
-0.272461
-0.262884
-0.252408
-0.241472
-0.230763
-0.206062
-0.337009
-0.335877
-0.334231
-0.332006
-0.329197
-0.325832
-0.32193
-0.317501
-0.312548
-0.307064
-0.301033
-0.294431
-0.287222
-0.279367
-0.270821
-0.261531
-0.251388
-0.240846
-0.230357
-0.20785
-0.329433
-0.329096
-0.328074
-0.326407
-0.32413
-0.321262
-0.317817
-0.313807
-0.309235
-0.304096
-0.298378
-0.292061
-0.285118
-0.277518
-0.269229
-0.260213
-0.250397
-0.240227
-0.229964
-0.209601
-0.322352
-0.322764
-0.32233
-0.321181
-0.319398
-0.316988
-0.313965
-0.31034
-0.306117
-0.301294
-0.295862
-0.289807
-0.283108
-0.275744
-0.267697
-0.258943
-0.249441
-0.23962
-0.229596
-0.211274
-0.315809
-0.316921
-0.317029
-0.316359
-0.315028
-0.313037
-0.310397
-0.307121
-0.303215
-0.298678
-0.293504
-0.287686
-0.281209
-0.274063
-0.26624
-0.257733
-0.24853
-0.239033
-0.229261
-0.212836
-0.309848
-0.311603
-0.312208
-0.311971
-0.311049
-0.309435
-0.307139
-0.304175
-0.300551
-0.296268
-0.291326
-0.285719
-0.279442
-0.272492
-0.264875
-0.256598
-0.247675
-0.238474
-0.228963
-0.214259
-0.304513
-0.306849
-0.307899
-0.308048
-0.307489
-0.306208
-0.304215
-0.301526
-0.298149
-0.29409
-0.28935
-0.283929
-0.277829
-0.271054
-0.263622
-0.255554
-0.246889
-0.237952
-0.228702
-0.215526
-0.299847
-0.302695
-0.304134
-0.30462
-0.304377
-0.303384
-0.301652
-0.299198
-0.296034
-0.292167
-0.2876
-0.282339
-0.276391
-0.26977
-0.262501
-0.25462
-0.246184
-0.237479
-0.22848
-0.216624
-0.295889
-0.299174
-0.300945
-0.301716
-0.301737
-0.300987
-0.299473
-0.297217
-0.29423
-0.290522
-0.2861
-0.280972
-0.275153
-0.268661
-0.261531
-0.25381
-0.245572
-0.237064
-0.228296
-0.292676
-0.296318
-0.298358
-0.299359
-0.299595
-0.299039
-0.297701
-0.295602
-0.292757
-0.289177
-0.28487
-0.27985
-0.274134
-0.267746
-0.26073
-0.253142
-0.245065
-0.236717
-0.228149
-0.290239
-0.294152
-0.296396
-0.297572
-0.29797
-0.29756
-0.296354
-0.294374
-0.291635
-0.28815
-0.283931
-0.278991
-0.273352
-0.267044
-0.260114
-0.252627
-0.244675
-0.236449
-0.228039
-0.2886
-0.292697
-0.295078
-0.296371
-0.296877
-0.296565
-0.295447
-0.293547
-0.290879
-0.287457
-0.283295
-0.278409
-0.272822
-0.266568
-0.259696
-0.252278
-0.24441
-0.236265
-0.227966
-0.287776
-0.291965
-0.294416
-0.295768
-0.296328
-0.296065
-0.294992
-0.29313
-0.290498
-0.287108
-0.282975
-0.278116
-0.272555
-0.266327
-0.259485
-0.252101
-0.244276
-0.236172
-0.22793
0.176906
0.180993
0.188587
0.197207
0.206352
0.213564
0.219057
0.218967
0.217153
0.203695
0.178439
0.182633
0.190537
0.199649
0.209542
0.217813
0.224735
0.22661
0.226912
0.217408
0.179868
0.18411
0.192204
0.201649
0.212106
0.221226
0.229378
0.233004
0.235303
0.229179
0.181266
0.185548
0.193848
0.203649
0.214702
0.22472
0.234137
0.23957
0.24389
0.240927
0.182603
0.186943
0.195455
0.205617
0.217261
0.228167
0.238803
0.245994
0.252234
0.252169
0.183873
0.188283
0.196992
0.207499
0.219701
0.23145
0.243226
0.252081
0.260138
0.262761
0.185074
0.18956
0.198452
0.209285
0.222012
0.234562
0.247405
0.257835
0.267623
0.272754
0.186203
0.190685
0.199832
0.210974
0.224194
0.237502
0.251346
0.263257
0.27469
0.282152
0.18726
0.191826
0.201126
0.21256
0.22624
0.240262
0.255037
0.26833
0.281313
0.290938
0.18824
0.192873
0.202328
0.214038
0.228143
0.242829
0.258466
0.273036
0.287469
0.299092
0.189141
0.193829
0.203436
0.215401
0.229896
0.245195
0.261622
0.277361
0.293135
0.306593
0.189959
0.1947
0.204445
0.216645
0.231493
0.24735
0.264496
0.281294
0.298294
0.31342
0.190693
0.195482
0.205352
0.217765
0.232928
0.249287
0.267077
0.284822
0.302927
0.319551
0.19134
0.196173
0.206155
0.218756
0.234196
0.250998
0.269356
0.287934
0.307017
0.324964
0.191898
0.196769
0.206859
0.219615
0.235292
0.252477
0.271325
0.290621
0.310551
0.329641
0.192365
0.197268
0.207375
0.220336
0.236212
0.253718
0.272978
0.292873
0.313515
0.333565
0.192741
0.197671
0.207877
0.220916
0.236953
0.254717
0.274308
0.294684
0.315899
0.336721
0.193024
0.197975
0.20823
0.221352
0.237511
0.25547
0.27531
0.296048
0.317694
0.339098
0.193213
0.198178
0.208466
0.221644
0.237884
0.255973
0.27598
0.296959
0.318895
0.340688
0.193308
0.19828
0.208585
0.22179
0.238071
0.256225
0.276315
0.297416
0.319496
0.341485
0.0532152
0.0518959
0.0496245
0.0469139
0.0440924
0.0413439
0.0387707
0.0364256
0.034325
0.0324696
0.0533538
0.0520305
0.0497483
0.047026
0.044192
0.0414309
0.0388455
0.0364894
0.0343786
0.0325145
0.0536241
0.0522912
0.0499892
0.0472444
0.0443861
0.0416004
0.0389914
0.0366137
0.034483
0.0326021
0.0540189
0.0526716
0.0503416
0.0475638
0.0446698
0.0418482
0.0392047
0.0367955
0.0346357
0.03273
0.054532
0.053166
0.0508
0.0479794
0.045039
0.0421708
0.0394824
0.0370321
0.0348344
0.0328966
0.0551578
0.0537692
0.0513597
0.0484872
0.0454903
0.0425651
0.0398219
0.0373214
0.0350771
0.0330999
0.0558913
0.0544765
0.0520167
0.0490835
0.0460204
0.0430285
0.0402209
0.0376612
0.0353621
0.0333386
0.056728
0.0552835
0.052767
0.0497652
0.0466268
0.0435588
0.0406774
0.03805
0.0356879
0.0336114
0.0576636
0.0561865
0.0536074
0.0505295
0.0473071
0.0441539
0.0411898
0.0384864
0.0360533
0.0339172
0.0586943
0.0571819
0.0545349
0.0513738
0.0480592
0.0448123
0.0417567
0.0389691
0.0364572
0.034255
0.0598164
0.0582663
0.0555467
0.0522961
0.0488815
0.0455325
0.042377
0.0394973
0.0368987
0.0346241
0.0610264
0.0594367
0.0566403
0.0532943
0.0497725
0.0463136
0.0430499
0.0400702
0.0373772
0.0350238
0.0623212
0.0606902
0.0578134
0.0543668
0.0507309
0.0471545
0.0437746
0.0406872
0.0378921
0.0354538
0.0636976
0.062024
0.0590639
0.0555121
0.0517558
0.0480547
0.0445507
0.0413481
0.0384431
0.0359137
0.0651526
0.0634356
0.0603898
0.0567288
0.0528463
0.0490137
0.0453779
0.0420526
0.0390301
0.0364033
0.0666832
0.0649224
0.0617892
0.0580157
0.0540017
0.0500311
0.0462562
0.0428009
0.0396531
0.0369228
0.0682865
0.0664818
0.0632605
0.0593717
0.0552215
0.0511069
0.0471857
0.0435931
0.0403123
0.0374721
0.0699596
0.0681115
0.0648017
0.0607959
0.0565054
0.0522412
0.0481666
0.0444296
0.0410079
0.0380518
0.0716996
0.069809
0.0664114
0.0622873
0.0578531
0.0534342
0.0491994
0.0453111
0.0417406
0.0386621
0.0735036
0.0715717
0.0680879
0.0638452
0.0592645
0.0546862
0.0502848
0.0462382
0.042511
0.0393039
0.0753687
0.0733974
0.0698295
0.0654687
0.0607395
0.0559978
0.0514235
0.0472118
0.04332
0.0399777
0.0772918
0.0752834
0.0716346
0.0671572
0.0622783
0.0573695
0.0526165
0.0482331
0.0441687
0.0406846
0.0792699
0.0772272
0.0735017
0.0689099
0.063881
0.0588022
0.0538649
0.0493034
0.0450583
0.0414257
0.0813
0.0792263
0.0754291
0.0707261
0.0655478
0.0602967
0.05517
0.050424
0.0459901
0.0422023
0.0833789
0.081278
0.077415
0.0726052
0.067279
0.061854
0.0565332
0.0515966
0.0469659
0.0430158
0.0855033
0.0833796
0.0794579
0.0745465
0.0690749
0.0634753
0.0579562
0.0528231
0.0479874
0.0438679
0.0876701
0.0855284
0.0815557
0.0765492
0.070936
0.0651616
0.0594406
0.0541053
0.0490566
0.0447603
0.0898759
0.0877215
0.0837068
0.0786126
0.0728627
0.0669143
0.0609883
0.0554455
0.0501757
0.0456951
0.0921172
0.0899561
0.0859092
0.0807358
0.0748552
0.0687347
0.0626014
0.056846
0.0513472
0.0466745
0.0943908
0.092229
0.0881608
0.082918
0.0769142
0.0706241
0.064282
0.0583092
0.0525737
0.0477008
0.0966929
0.0945375
0.0904595
0.0851584
0.0790399
0.072584
0.0660325
0.0598379
0.0538581
0.0487767
0.0990202
0.0968782
0.0928033
0.0874557
0.0812327
0.074616
0.0678553
0.0614349
0.0552034
0.049905
0.101369
0.0992481
0.0951897
0.0898091
0.0834929
0.0767213
0.0697528
0.0631032
0.0566131
0.0510887
0.103736
0.101644
0.0976164
0.0922171
0.0858209
0.0789017
0.0717279
0.0648459
0.0580906
0.052331
0.106117
0.104063
0.100081
0.0946786
0.0882167
0.0811584
0.0737832
0.0666665
0.0596398
0.0536354
0.108509
0.1065
0.102581
0.0971921
0.0906804
0.083493
0.0759216
0.0685682
0.0612647
0.0550055
0.110908
0.108954
0.105113
0.099756
0.0932121
0.085907
0.078146
0.0705548
0.0629698
0.0564454
0.113311
0.111421
0.107675
0.102369
0.0958114
0.0884015
0.0804593
0.0726299
0.0647595
0.0579591
0.115714
0.113897
0.110264
0.105028
0.0984781
0.0909778
0.0828645
0.0747973
0.0666387
0.0595512
0.118113
0.116379
0.112876
0.107732
0.101212
0.0936371
0.0853647
0.077061
0.0686125
0.0612261
0.120506
0.118864
0.11551
0.110479
0.104011
0.0963803
0.0879627
0.0794249
0.0706863
0.0629889
0.122888
0.121347
0.118161
0.113266
0.106876
0.0992084
0.0906615
0.0818932
0.0728657
0.0648447
0.125256
0.123826
0.120826
0.116091
0.109805
0.102122
0.093464
0.0844698
0.0751566
0.0667988
0.127608
0.126298
0.123502
0.118952
0.112797
0.105121
0.0963728
0.087159
0.077565
0.068857
0.129939
0.128759
0.126186
0.121844
0.115849
0.108207
0.0993905
0.0899649
0.0800972
0.0710251
0.132248
0.131206
0.128875
0.124766
0.118961
0.111378
0.102519
0.0928915
0.0827599
0.0733092
0.13453
0.133636
0.131564
0.127714
0.122129
0.114635
0.105762
0.0959429
0.0855596
0.0757157
0.136785
0.136045
0.13425
0.130684
0.125352
0.117978
0.109119
0.099123
0.0885032
0.0782512
0.139007
0.138431
0.136931
0.133674
0.128626
0.121404
0.112594
0.102436
0.0915976
0.0809226
0.141196
0.140791
0.139601
0.13668
0.131949
0.124913
0.116186
0.105885
0.0948497
0.0837367
0.143349
0.143122
0.142259
0.139697
0.135317
0.128504
0.119897
0.109474
0.0982666
0.0867009
0.145464
0.145421
0.1449
0.142722
0.138726
0.132173
0.123727
0.113206
0.101855
0.0898225
0.147538
0.147686
0.14752
0.145752
0.142172
0.135919
0.127675
0.117084
0.105622
0.0931089
0.14957
0.149914
0.150118
0.148781
0.145652
0.139738
0.131742
0.121112
0.109574
0.0965678
0.151558
0.152103
0.152688
0.151805
0.14916
0.143628
0.135925
0.125291
0.113717
0.100207
0.1535
0.154251
0.155229
0.154821
0.152691
0.147584
0.140223
0.129624
0.118056
0.104034
0.155396
0.156356
0.157736
0.157824
0.156242
0.151602
0.144632
0.134112
0.122598
0.108057
0.157244
0.158416
0.160208
0.160809
0.159805
0.155678
0.149151
0.138756
0.127347
0.112284
0.159042
0.160429
0.16264
0.163773
0.163377
0.159806
0.153775
0.143558
0.132306
0.116722
0.160791
0.162394
0.16503
0.166712
0.166951
0.163981
0.158499
0.148518
0.137479
0.12138
0.162488
0.164309
0.167376
0.16962
0.170522
0.168196
0.163318
0.153636
0.142868
0.126265
0.164135
0.166173
0.169675
0.172494
0.174083
0.172446
0.168227
0.15891
0.148474
0.131385
0.165729
0.167986
0.171925
0.175329
0.177629
0.176724
0.173217
0.164339
0.154296
0.136746
0.167272
0.169746
0.174123
0.178123
0.181153
0.181022
0.178281
0.169921
0.160332
0.142353
0.168762
0.171453
0.176268
0.18087
0.184652
0.185334
0.183414
0.17566
0.16659
0.148225
0.1702
0.173106
0.17836
0.183571
0.188121
0.189659
0.188618
0.181565
0.173088
0.154404
0.171586
0.174705
0.180395
0.186221
0.191554
0.193983
0.193869
0.187611
0.179779
0.160831
0.172918
0.176243
0.18236
0.188792
0.194904
0.198231
0.199048
0.19363
0.186395
0.167071
0.174195
0.177714
0.184238
0.191252
0.198116
0.202326
0.204065
0.19953
0.192852
0.17293
0.175437
0.179169
0.186115
0.193752
0.20147
0.206759
0.209774
0.206664
0.201367
0.182106
0.0312395
0.0305353
0.0298278
0.0291162
0.0284002
0.02768
0.0269563
0.0262295
0.0255
0.0247683
0.0240347
0.0232997
0.0225636
0.0218269
0.02109
0.0203533
0.0196172
0.018882
0.0181482
0.0174162
0.031279
0.0305744
0.0298666
0.0291545
0.0284375
0.027716
0.0269906
0.0262616
0.0255296
0.0247949
0.0240579
0.0233192
0.0225791
0.0218381
0.0210967
0.0203552
0.0196141
0.0188739
0.0181349
0.0173976
0.0313539
0.0306443
0.0299319
0.0292152
0.0284933
0.0277666
0.0270356
0.0263009
0.0255628
0.0248219
0.0240786
0.0233333
0.0225865
0.0218387
0.0210903
0.0203418
0.0195936
0.0188463
0.0181002
0.0173558
0.0314626
0.0307443
0.030024
0.0292997
0.0285699
0.027835
0.0270956
0.0263523
0.0256055
0.0248557
0.0241032
0.0233487
0.0225926
0.0218353
0.0210773
0.0203192
0.0195614
0.0188044
0.0180487
0.0172947
0.0316034
0.0308727
0.0301413
0.0294063
0.0286657
0.0279196
0.0271689
0.0264142
0.0256558
0.0248943
0.02413
0.0233636
0.0225955
0.0218262
0.0210563
0.0202861
0.0195162
0.0187472
0.0179794
0.0172135
0.0317747
0.0310281
0.0302825
0.029534
0.0287796
0.0280196
0.0272548
0.0264859
0.0257133
0.0249374
0.0241589
0.023378
0.0225955
0.0218118
0.0210273
0.0202427
0.0194584
0.018675
0.017893
0.0171129
0.0319752
0.0312092
0.0304464
0.0296816
0.0289108
0.0281341
0.0273525
0.0265668
0.0257774
0.0249847
0.0241892
0.0233915
0.0225921
0.0217915
0.0209902
0.0201888
0.0193878
0.0185878
0.0177892
0.0169927
0.0322038
0.031415
0.0306321
0.0298483
0.0290584
0.0282623
0.0274613
0.0266562
0.0258474
0.0250354
0.0242206
0.0234036
0.0225849
0.0217651
0.0209447
0.0201242
0.0193042
0.0184853
0.017668
0.0168528
0.0324592
0.0316444
0.0308387
0.0300333
0.0292215
0.0284035
0.0275806
0.0267535
0.0259229
0.025089
0.0242525
0.0234138
0.0225735
0.0217321
0.0208903
0.0200485
0.0192073
0.0183672
0.0175289
0.0166929
0.0327407
0.0318965
0.0310652
0.0302357
0.0293996
0.028557
0.0277095
0.0268581
0.0260031
0.025145
0.0242843
0.0234216
0.0225573
0.0216921
0.0208265
0.0199611
0.0190965
0.0182331
0.0173717
0.0165127
0.0330475
0.0321707
0.0313111
0.0304548
0.0295919
0.0287222
0.0278477
0.0269693
0.0260876
0.0252028
0.0243156
0.0234264
0.0225359
0.0216445
0.0207529
0.0198617
0.0189713
0.0180825
0.0171957
0.0163115
0.033379
0.0324663
0.0315757
0.0306902
0.0297978
0.0288984
0.0279944
0.0270867
0.0261757
0.0252619
0.0243457
0.0234277
0.0225086
0.0215888
0.0206689
0.0197495
0.0188312
0.0179147
0.0170004
0.0160889
0.0337347
0.0327829
0.0318585
0.0309412
0.0300169
0.0290853
0.0281492
0.0272097
0.026267
0.0253216
0.0243741
0.023425
0.0224749
0.0215243
0.0205738
0.0196241
0.0186756
0.0177291
0.016785
0.015844
0.0341143
0.0331199
0.0321591
0.0312076
0.0302487
0.0292824
0.0283117
0.0273377
0.0263609
0.0253816
0.0244003
0.0234176
0.0224342
0.0214504
0.0204671
0.0194846
0.0185037
0.0175249
0.0165489
0.0155761
0.0345176
0.0334773
0.0324773
0.0314891
0.030493
0.0294893
0.0284814
0.0274705
0.0264571
0.0254413
0.0244238
0.0234051
0.0223859
0.0213666
0.020348
0.0193305
0.0183148
0.0173015
0.0162912
0.0152844
0.0349445
0.033855
0.032813
0.0317853
0.0307495
0.0297057
0.028658
0.0276077
0.026555
0.0255002
0.024444
0.0233868
0.0223294
0.0212722
0.0202159
0.019161
0.0181082
0.017058
0.0160111
0.014968
0.0353952
0.0342528
0.0331661
0.0320963
0.031018
0.0299315
0.0288413
0.0277488
0.0266543
0.0255579
0.0244604
0.0233623
0.0222641
0.0211665
0.0200701
0.0189754
0.017883
0.0167936
0.0157077
0.0146259
0.0358699
0.0346711
0.0335366
0.0324221
0.0312985
0.0301665
0.029031
0.0278937
0.0267546
0.0256141
0.0244727
0.023331
0.0221895
0.021049
0.0199099
0.0187728
0.0176384
0.0165073
0.01538
0.0142572
0.0363691
0.0351101
0.0339249
0.0327627
0.0315911
0.0304106
0.0292271
0.0280421
0.0268558
0.0256683
0.0244803
0.0232923
0.022105
0.0209189
0.0197345
0.0185526
0.0173737
0.0161983
0.0150272
0.0138607
0.0368932
0.0355703
0.0343311
0.0331185
0.0318958
0.030664
0.0294294
0.028194
0.0269575
0.0257203
0.0244829
0.0232459
0.02201
0.0207756
0.0195434
0.0183139
0.0170878
0.0158656
0.0146481
0.0134355
0.0374431
0.0360523
0.034756
0.0334898
0.0322129
0.0309266
0.0296381
0.0283492
0.0270597
0.0257698
0.0244801
0.0231913
0.0219039
0.0206185
0.0193357
0.018056
0.01678
0.0155083
0.0142417
0.0129804
0.0380196
0.0365568
0.0351999
0.033877
0.0325428
0.0311989
0.0298532
0.0285077
0.027162
0.0258165
0.0244716
0.023128
0.0217863
0.020447
0.0191106
0.0177779
0.0164493
0.0151254
0.0138069
0.0124942
0.0386238
0.0370848
0.0356637
0.0342808
0.0328859
0.031481
0.0300749
0.0286696
0.0272647
0.0258603
0.0244571
0.0230556
0.0216566
0.0202604
0.0188676
0.0174789
0.0160948
0.0147158
0.0133427
0.0119757
0.0392571
0.0376374
0.0361484
0.034702
0.0332428
0.0317734
0.0303034
0.028835
0.0273675
0.025901
0.0244363
0.0229738
0.0215142
0.0200581
0.0186059
0.0171582
0.0157155
0.0142785
0.0128479
0.0114237
0.0399207
0.0382158
0.0366548
0.0351412
0.0336141
0.0320767
0.0305393
0.0290041
0.0274706
0.0259386
0.024409
0.0228822
0.0213589
0.0198395
0.0183246
0.0168148
0.0153106
0.0138124
0.0123212
0.0108369
0.0406165
0.0388215
0.0371843
0.0355996
0.0340008
0.0323914
0.0307828
0.0291773
0.027574
0.0259731
0.024375
0.0227805
0.02119
0.019604
0.0180232
0.016448
0.0148789
0.0133164
0.0117615
0.010214
0.0413462
0.0394561
0.0377382
0.0360783
0.0344036
0.0327183
0.0310346
0.0293548
0.0276781
0.0260044
0.0243342
0.0226683
0.0210071
0.0193511
0.0177008
0.0160568