/*--------------------------------*- C++ -*----------------------------------*\
  =========                 |
  \\      /  F ield         | OpenFOAM: The Open Source CFD Toolbox
   \\    /   O peration     | Website:  https://openfoam.org
    \\  /    A nd           | Version:  7
     \\/     M anipulation  |
\*---------------------------------------------------------------------------*/
FoamFile
{
    version     2.0;
    format      ascii;
    class       volScalarField;
    location    "20";
    object      p;
}
// * * * * * * * * * * * * * * * * * * * * * * * * * * * * * * * * * * * * * //

dimensions      [0 2 -2 0 0 0 0];

internalField   nonuniform List<scalar> 
433
(
-0.358069
-0.322457
-0.320129
-0.284129
-0.282187
-0.280306
-0.278582
-0.243226
-0.241693
-0.240215
-0.238868
-0.237524
-0.236128
-0.199922
-0.198815
-0.197759
-0.196804
-0.195847
-0.194839
-0.19375
-0.192547
-0.154417
-0.153751
-0.153131
-0.152581
-0.152023
-0.151415
-0.150725
-0.149915
-0.148949
-0.147784
-0.106935
-0.106723
-0.106552
-0.106416
-0.106269
-0.106071
-0.105788
-0.105384
-0.104817
-0.104047
-0.103031
-0.101727
-0.0577259
-0.0579772
-0.0582636
-0.0585514
-0.0588211
-0.0590415
-0.0591756
-0.0591847
-0.0590283
-0.0586648
-0.0580519
-0.0571472
-0.0559095
-0.0542992
-0.00706117
-0.007783
-0.00853303
-0.00924967
-0.00994203
-0.0105862
-0.0111431
-0.0115725
-0.011834
-0.0118863
-0.0116876
-0.0111963
-0.0103723
-0.00917749
-0.00757695
-0.00553993
0.0447683
0.0435716
0.0423542
0.0412056
0.0400874
0.0390162
0.0380328
0.0371785
0.0364933
0.0360179
0.0357934
0.03586
0.0362565
0.0370193
0.0381809
0.0397698
0.0418088
0.0443141
0.0974532
0.0957802
0.0940942
0.092513
0.0909684
0.0894691
0.0880577
0.086776
0.0856636
0.0847602
0.0841055
0.0837385
0.0836961
0.0840125
0.084718
0.0858383
0.0873932
0.0893961
0.0918526
0.0947605
0.098109
0.150669
0.148521
0.146368
0.144356
0.142386
0.140461
0.138622
0.136913
0.135372
0.134038
0.132949
0.132141
0.131651
0.13151
0.131745
0.132379
0.13343
0.134907
0.136813
0.139142
0.14188
0.145006
0.148487
0.204077
0.201458
0.198843
0.196404
0.194014
0.191666
0.189403
0.187269
0.185301
0.183536
0.18201
0.180759
0.179815
0.179207
0.178961
0.179096
0.179626
0.180558
0.181891
0.183618
0.185721
0.188176
0.190949
0.194
0.197279
0.25733
0.254248
0.251177
0.248319
0.245515
0.24275
0.24007
0.237516
0.235124
0.232931
0.230969
0.229273
0.227872
0.226793
0.226058
0.225683
0.22568
0.226053
0.226798
0.227904
0.229352
0.231115
0.233158
0.235439
0.237911
0.310075
0.306539
0.303023
0.299755
0.296547
0.293374
0.290284
0.287317
0.284509
0.281892
0.279498
0.277359
0.275501
0.273948
0.272721
0.271831
0.271288
0.271092
0.271237
0.271709
0.272488
0.273545
0.274843
0.276342
0.361954
0.357978
0.354031
0.350364
0.346763
0.343194
0.339704
0.336335
0.333119
0.330086
0.327267
0.324689
0.322378
0.320354
0.318634
0.317228
0.316141
0.315371
0.31491
0.314743
0.314845
0.315187
0.412614
0.408213
0.40385
0.399799
0.395819
0.391868
0.387992
0.384233
0.38062
0.377182
0.373947
0.370939
0.368181
0.365691
0.363483
0.361563
0.359933
0.358591
0.357524
0.356715
0.356139
0.461705
0.456898
0.452136
0.447719
0.443376
0.439058
0.434812
0.430677
0.426682
0.422852
0.419212
0.415786
0.412592
0.409645
0.406956
0.404529
0.402365
0.400455
0.398787
0.508887
0.503694
0.498555
0.493789
0.489101
0.484435
0.479836
0.475343
0.470981
0.466775
0.462747
0.458916
0.4553
0.451909
0.448751
0.44583
0.443141
0.440675
0.553832
0.548276
0.542781
0.537687
0.532675
0.52768
0.522748
0.517915
0.513207
0.508643
0.504243
0.500026
0.496003
0.492185
0.488576
0.485176
0.481979
0.596226
0.590332
0.584506
0.579106
0.573791
0.568489
0.563245
0.558094
0.553059
0.548158
0.543408
0.538824
0.534416
0.530191
0.526151
0.635773
0.629568
0.623435
0.617754
0.612159
0.606573
0.60104
0.595594
0.590256
0.58504
0.579963
0.575035
0.570265
0.565657
0.672198
0.665708
0.659297
0.653358
0.647508
0.641663
0.635865
0.630149
0.624532
0.619027
0.613647
0.608402
0.603297
0.705246
0.698501
0.691839
0.685669
0.679589
0.67351
0.667474
0.661514
0.655644
0.649877
0.644223
0.638688
0.734687
0.727716
0.720833
0.714457
0.708175
0.701889
0.695642
0.689465
0.683371
0.67737
0.671471
0.665678
0.760315
0.753148
0.746074
0.739522
0.733064
0.726599
0.720168
0.713803
0.707514
0.70131
0.695198
0.781951
0.77462
0.767385
0.760685
0.754079
0.747464
0.740879
0.734355
0.727903
0.721527
0.799444
0.791981
0.784617
0.777797
0.771072
0.764336
0.757628
0.750976
0.74439
0.737876
0.812672
0.80511
0.797648
0.790738
0.783924
0.777096
0.770294
0.763546
0.75686
0.821542
0.813913
0.806386
0.799416
0.792542
0.785653
0.778789
0.771976
0.765223
0.825993
0.818331
0.810771
0.803771
0.796867
0.789947
0.783051
0.776206
0.76942
0.825993
0.818331
0.810771
)
;

boundaryField
{
    inlet
    {
        type            zeroGradient;
    }
    outlet
    {
        type            fixedValue;
        value           nonuniform 0();
    }
    cylinder
    {
        type            zeroGradient;
    }
    top
    {
        type            symmetryPlane;
    }
    bottom
    {
        type            symmetryPlane;
    }
    defaultFaces
    {
        type            empty;
    }
    procBoundary19to12
    {
        type            processor;
        value           uniform 0.762695;
    }
    procBoundary19to13
    {
        type            processor;
        value           nonuniform List<scalar> 10(0.803771 0.796867 0.789947 0.783051 0.776206 0.76942 0.821542 0.813913 0.803771 0.806386);
    }
    procBoundary19to18
    {
        type            processor;
        value           nonuniform List<scalar> 
25
(
0.397341
0.396092
0.397341
0.438418
0.438418
0.478974
0.522293
0.478974
0.51861
0.522293
0.561211
0.561211
0.598334
0.598334
0.633277
0.633277
0.659993
0.689179
0.689179
0.715234
0.715234
0.731437
0.750241
0.750241
0.758534
)
;
    }
    procBoundary19to24
    {
        type            processor;
        value           nonuniform List<scalar> 8(0.240519 0.277992 0.315733 0.277992 0.316441 0.315733 0.355765 0.355765);
    }
    procBoundary19to25
    {
        type            processor;
        value           nonuniform List<scalar> 
38
(
-0.39085
-0.355378
-0.355378
-0.317863
-0.317863
-0.315781
-0.276866
-0.276866
-0.275097
-0.234654
-0.234654
-0.233071
-0.191193
-0.191193
-0.189645
-0.146377
-0.146377
-0.144687
-0.100091
-0.100091
-0.0980838
-0.0522796
-0.0522796
-0.0498177
-0.0030409
-0.0030409
-6.04872e-05
0.0472949
0.0472949
0.0507521
0.0546781
0.101878
0.101878
0.10604
0.152285
0.152285
0.156352
0.200734
)
;
    }
}


// ************************************************************************* //
