/*--------------------------------*- C++ -*----------------------------------*\
  =========                 |
  \\      /  F ield         | OpenFOAM: The Open Source CFD Toolbox
   \\    /   O peration     | Website:  https://openfoam.org
    \\  /    A nd           | Version:  7
     \\/     M anipulation  |
\*---------------------------------------------------------------------------*/
FoamFile
{
    version     2.0;
    format      ascii;
    class       volScalarField;
    location    "223";
    object      p;
}
// * * * * * * * * * * * * * * * * * * * * * * * * * * * * * * * * * * * * * //

dimensions      [0 2 -2 0 0 0 0];

internalField   nonuniform List<scalar> 
12400
(
-0.372081
-0.374528
-0.375945
-0.376887
-0.377697
-0.37853
-0.379544
-0.38086
-0.382559
-0.384704
-0.387365
-0.390647
-0.394706
-0.399757
-0.406063
-0.413894
-0.423441
-0.434668
-0.446852
-0.458177
-0.373845
-0.37674
-0.378455
-0.379654
-0.380721
-0.381807
-0.383054
-0.384559
-0.386367
-0.388485
-0.390909
-0.393635
-0.396677
-0.400075
-0.403893
-0.408205
-0.413073
-0.418453
-0.423674
-0.427643
-0.376223
-0.379485
-0.381459
-0.382895
-0.384213
-0.385553
-0.387041
-0.388748
-0.390681
-0.392791
-0.394992
-0.397165
-0.399172
-0.400861
-0.402072
-0.402654
-0.402494
-0.401484
-0.398989
-0.394396
-0.379297
-0.382829
-0.385013
-0.386664
-0.388222
-0.389817
-0.391555
-0.393481
-0.395562
-0.397693
-0.399703
-0.401356
-0.402354
-0.402342
-0.400924
-0.3977
-0.392344
-0.384653
-0.374028
-0.359928
-0.383117
-0.386809
-0.389148
-0.390985
-0.39277
-0.394617
-0.396612
-0.398773
-0.401027
-0.403213
-0.405077
-0.406262
-0.406309
-0.404658
-0.400673
-0.393695
-0.38316
-0.368756
-0.35003
-0.325816
-0.387691
-0.391428
-0.393861
-0.395851
-0.397842
-0.399932
-0.402187
-0.404594
-0.407044
-0.409318
-0.411081
-0.411859
-0.411035
-0.407846
-0.401418
-0.390845
-0.375316
-0.354395
-0.328091
-0.293553
-0.392991
-0.396654
-0.399117
-0.401221
-0.403391
-0.405709
-0.408215
-0.410871
-0.413528
-0.415915
-0.417616
-0.418046
-0.416434
-0.411824
-0.403117
-0.389182
-0.368994
-0.341916
-0.309016
-0.264323
-0.398945
-0.40242
-0.404849
-0.407022
-0.409336
-0.411854
-0.414594
-0.417488
-0.42035
-0.422857
-0.424518
-0.424642
-0.422313
-0.416396
-0.405585
-0.388563
-0.364169
-0.33138
-0.293308
-0.2387
-0.405449
-0.408633
-0.410961
-0.413154
-0.415567
-0.418247
-0.421187
-0.424291
-0.427335
-0.429947
-0.431565
-0.431398
-0.428396
-0.421262
-0.408513
-0.388687
-0.360627
-0.322471
-0.281295
-0.216944
-0.412372
-0.415173
-0.417338
-0.419496
-0.421954
-0.424745
-0.427835
-0.4311
-0.434282
-0.436958
-0.438498
-0.438019
-0.434349
-0.426053
-0.411509
-0.389152
-0.35802
-0.314642
-0.272524
-0.201072
-0.419566
-0.421913
-0.423854
-0.425917
-0.428358
-0.431193
-0.434369
-0.437727
-0.440975
-0.443645
-0.445041
-0.444191
-0.439819
-0.430373
-0.414153
-0.389497
-0.355814
-0.309747
-0.264301
-0.190986
-0.426877
-0.428718
-0.430384
-0.43229
-0.434641
-0.437442
-0.440618
-0.443982
-0.447206
-0.449773
-0.450927
-0.449615
-0.44447
-0.433859
-0.416037
-0.38936
-0.353604
-0.305523
-0.2582
-0.185704
-0.43416
-0.435468
-0.43681
-0.438495
-0.440678
-0.443356
-0.446435
-0.4497
-0.452791
-0.455138
-0.45593
-0.454045
-0.448037
-0.436219
-0.416872
-0.388433
-0.351097
-0.301885
-0.253673
-0.184204
-0.441291
-0.442057
-0.443038
-0.444437
-0.44637
-0.448828
-0.451701
-0.45475
-0.45759
-0.459589
-0.459888
-0.457301
-0.45033
-0.437266
-0.416469
-0.386559
-0.348089
-0.298756
-0.250346
-0.185356
-0.448173
-0.44841
-0.448998
-0.450052
-0.45165
-0.453787
-0.456344
-0.459061
-0.46151
-0.463033
-0.462708
-0.459295
-0.451261
-0.43692
-0.41476
-0.38369
-0.34452
-0.295963
-0.248012
-0.188106
-0.454745
-0.454481
-0.454657
-0.455307
-0.45649
-0.458208
-0.460337
-0.4626
-0.464538
-0.465456
-0.464378
-0.46002
-0.450834
-0.4352
-0.411781
-0.379863
-0.340431
-0.2933
-0.246476
-0.191605
-0.460992
-0.460264
-0.460012
-0.46021
-0.460904
-0.46211
-0.463706
-0.465404
-0.466717
-0.46691
-0.46496
-0.459545
-0.449127
-0.432196
-0.407645
-0.375174
-0.335896
-0.290597
-0.245446
-0.195175
-0.466938
-0.465787
-0.465097
-0.464801
-0.464942
-0.465557
-0.466528
-0.467562
-0.468145
-0.467504
-0.464568
-0.457989
-0.446268
-0.428054
-0.402514
-0.369763
-0.331002
-0.28775
-0.244536
-0.198256
-0.472648
-0.471109
-0.469977
-0.469154
-0.468691
-0.468646
-0.468919
-0.469205
-0.468966
-0.467387
-0.463352
-0.455503
-0.442417
-0.422948
-0.396578
-0.363795
-0.325853
-0.284726
-0.243378
-0.200591
-0.478221
-0.47632
-0.47474
-0.473367
-0.472263
-0.471513
-0.471026
-0.470492
-0.469346
-0.466724
-0.461473
-0.452246
-0.437741
-0.417067
-0.390035
-0.357442
-0.320572
-0.281558
-0.241869
-0.20264
-0.48378
-0.481528
-0.479494
-0.477555
-0.475787
-0.474298
-0.473007
-0.471592
-0.469451
-0.465674
-0.45908
-0.448368
-0.432408
-0.410598
-0.383076
-0.350859
-0.315251
-0.278297
-0.24053
-0.204477
-0.489464
-0.486851
-0.484355
-0.48184
-0.479395
-0.477148
-0.475016
-0.472659
-0.469431
-0.464373
-0.456299
-0.444002
-0.426573
-0.403718
-0.375869
-0.344173
-0.309905
-0.274859
-0.239509
-0.206379
-0.495414
-0.492411
-0.489438
-0.486342
-0.483216
-0.480196
-0.477191
-0.473824
-0.469398
-0.462919
-0.453227
-0.43926
-0.420375
-0.396585
-0.368553
-0.337473
-0.30453
-0.27129
-0.238112
-0.207171
-0.50176
-0.49832
-0.494852
-0.49117
-0.48736
-0.483554
-0.479635
-0.475176
-0.469425
-0.46137
-0.449926
-0.434231
-0.413934
-0.389326
-0.361228
-0.330808
-0.299128
-0.267505
-0.2362
-0.207101
-0.508615
-0.504676
-0.50069
-0.496417
-0.491917
-0.487305
-0.482416
-0.47676
-0.469536
-0.459746
-0.446434
-0.428985
-0.407344
-0.382033
-0.353958
-0.3242
-0.293677
-0.263481
-0.23377
-0.206176
-0.516064
-0.511555
-0.507022
-0.502149
-0.496949
-0.491496
-0.485561
-0.47858
-0.469718
-0.458037
-0.442765
-0.423569
-0.400673
-0.374765
-0.346768
-0.31764
-0.288155
-0.259194
-0.230838
-0.20453
-0.524159
-0.519008
-0.513899
-0.508413
-0.502488
-0.496141
-0.489056
-0.480596
-0.469922
-0.456206
-0.438916
-0.418012
-0.393959
-0.367546
-0.339654
-0.311104
-0.282532
-0.254633
-0.227441
-0.202232
-0.532923
-0.527059
-0.521345
-0.515225
-0.508539
-0.501219
-0.492851
-0.482737
-0.470071
-0.454199
-0.434866
-0.412321
-0.387215
-0.360371
-0.33259
-0.304553
-0.276772
-0.249786
-0.223599
-0.199342
-0.542343
-0.535705
-0.529357
-0.522578
-0.515075
-0.506676
-0.496862
-0.484898
-0.470069
-0.451949
-0.430587
-0.406489
-0.380427
-0.353208
-0.32553
-0.297939
-0.27084
-0.244637
-0.21933
-0.195901
-0.552375
-0.544914
-0.537909
-0.530436
-0.52204
-0.512424
-0.500974
-0.486955
-0.469806
-0.449382
-0.426038
-0.400488
-0.373563
-0.346012
-0.31842
-0.29121
-0.264697
-0.239173
-0.214641
-0.191939
-0.562942
-0.554626
-0.546945
-0.538734
-0.529343
-0.518343
-0.505042
-0.488763
-0.469164
-0.446421
-0.421171
-0.394276
-0.366572
-0.338722
-0.311196
-0.284312
-0.258305
-0.233374
-0.209536
-0.187477
-0.573935
-0.56475
-0.556377
-0.547373
-0.536862
-0.52428
-0.508898
-0.490164
-0.468024
-0.442986
-0.415929
-0.3878
-0.359393
-0.331271
-0.303793
-0.277189
-0.251624
-0.227221
-0.204013
-0.182532
-0.585212
-0.575162
-0.566085
-0.556216
-0.544432
-0.530047
-0.51235
-0.490995
-0.466267
-0.438996
-0.410247
-0.380994
-0.351955
-0.323586
-0.296147
-0.269789
-0.244618
-0.220695
-0.198068
-0.177112
-0.596597
-0.585705
-0.575911
-0.565091
-0.551856
-0.535432
-0.515197
-0.491093
-0.463776
-0.434368
-0.404055
-0.373787
-0.344184
-0.315596
-0.288193
-0.26206
-0.23725
-0.213775
-0.191694
-0.171226
-0.607879
-0.596186
-0.58566
-0.573784
-0.558901
-0.540196
-0.517228
-0.490296
-0.460438
-0.429018
-0.397277
-0.366102
-0.336003
-0.307228
-0.279869
-0.253953
-0.229486
-0.206443
-0.184883
-0.164879
-0.618814
-0.606376
-0.595099
-0.582045
-0.565304
-0.54409
-0.518234
-0.488451
-0.456145
-0.422858
-0.389834
-0.357861
-0.327337
-0.298414
-0.271117
-0.245424
-0.221295
-0.198679
-0.177628
-0.158072
-0.629126
-0.616013
-0.603961
-0.589592
-0.570782
-0.546855
-0.518009
-0.485411
-0.450791
-0.415805
-0.381645
-0.348985
-0.318111
-0.289089
-0.261883
-0.236429
-0.212648
-0.190467
-0.16992
-0.150809
-0.638512
-0.624805
-0.611948
-0.59612
-0.575038
-0.548235
-0.516361
-0.481041
-0.444276
-0.407771
-0.372629
-0.339398
-0.308256
-0.279192
-0.25212
-0.226933
-0.203521
-0.18179
-0.16175
-0.143091
-0.646648
-0.632437
-0.618739
-0.601305
-0.577771
-0.547986
-0.51311
-0.475213
-0.436504
-0.398675
-0.36271
-0.329028
-0.297707
-0.26867
-0.241782
-0.216903
-0.19389
-0.172637
-0.153117
-0.134928
-0.653197
-0.638577
-0.623999
-0.60482
-0.578691
-0.545877
-0.508094
-0.467815
-0.427386
-0.388437
-0.351813
-0.317807
-0.286407
-0.257473
-0.230831
-0.20631
-0.183737
-0.162996
-0.144019
-0.126331
-0.657815
-0.642885
-0.627386
-0.606339
-0.57752
-0.541702
-0.501168
-0.458743
-0.41684
-0.376983
-0.339873
-0.305677
-0.274304
-0.245561
-0.219238
-0.195133
-0.173049
-0.152857
-0.134455
-0.117308
-0.66016
-0.645019
-0.628564
-0.605553
-0.574005
-0.535277
-0.492209
-0.447909
-0.404793
-0.36425
-0.326829
-0.292586
-0.261355
-0.232899
-0.206975
-0.183354
-0.161814
-0.142218
-0.124419
-0.107842
-0.659904
-0.644652
-0.627213
-0.602178
-0.567925
-0.526448
-0.481114
-0.435237
-0.391182
-0.350181
-0.312634
-0.278492
-0.247527
-0.219462
-0.194023
-0.170957
-0.150023
-0.131081
-0.11392
-0.0979018
-0.656741
-0.641473
-0.623037
-0.595959
-0.55909
-0.515092
-0.467802
-0.42067
-0.375959
-0.334733
-0.297247
-0.263361
-0.232792
-0.205227
-0.180367
-0.157932
-0.137672
-0.119459
-0.102979
-0.0874903
-0.650392
-0.635204
-0.615774
-0.586683
-0.547352
-0.501115
-0.452215
-0.404163
-0.359087
-0.317873
-0.280643
-0.24717
-0.217132
-0.190185
-0.166004
-0.144284
-0.124768
-0.107357
-0.0915597
-0.0767644
-0.640619
-0.625602
-0.605205
-0.574179
-0.532601
-0.484457
-0.434319
-0.385695
-0.340544
-0.299582
-0.262802
-0.229908
-0.200543
-0.174337
-0.150943
-0.130035
-0.111352
-0.0947602
-0.0796936
-0.0656886
-0.627224
-0.612466
-0.591153
-0.558323
-0.514769
-0.465089
-0.414103
-0.365257
-0.320324
-0.279848
-0.243714
-0.211583
-0.18304
-0.157707
-0.135196
-0.115183
-0.097414
-0.0816982
-0.0674164
-0.0542573
-0.61006
-0.595649
-0.573498
-0.539041
-0.493828
-0.443013
-0.39158
-0.342863
-0.298435
-0.258682
-0.223394
-0.192226
-0.164642
-0.140291
-0.118775
-0.0997521
-0.0829702
-0.0681968
-0.0547537
-0.0424884
-0.589033
-0.575051
-0.552169
-0.516306
-0.469792
-0.418262
-0.366789
-0.318545
-0.274909
-0.23613
-0.201912
-0.171821
-0.14536
-0.12212
-0.101707
-0.0837671
-0.0680485
-0.0542815
-0.0417299
-0.03041
-0.564104
-0.550633
-0.52715
-0.49014
-0.442713
-0.390905
-0.339791
-0.292357
-0.249808
-0.21223
-0.179265
-0.150429
-0.12523
-0.10323
-0.0840257
-0.0672605
-0.0526813
-0.0399819
-0.028374
-0.0180541
-0.535288
-0.522406
-0.498479
-0.460615
-0.412692
-0.361042
-0.310665
-0.264382
-0.223182
-0.187032
-0.155509
-0.128099
-0.104302
-0.0836634
-0.0657724
-0.0502713
-0.0369058
-0.0253326
-0.0147211
-0.00545645
-0.502658
-0.490438
-0.466248
-0.427862
-0.379874
-0.32878
-0.279501
-0.234701
-0.195113
-0.160609
-0.130714
-0.104891
-0.0826314
-0.0634722
-0.0469953
-0.0328445
-0.0207641
-0.0103742
-0.000813327
0.00734174
-0.466338
-0.454852
-0.430612
-0.392068
-0.344397
-0.294175
-0.246467
-0.203433
-0.165704
-0.133052
-0.104961
-0.0808778
-0.0602854
-0.0427163
-0.027749
-0.0150304
-0.00430241
0.00484846
0.0133012
0.0202926
-0.426494
-0.41583
-0.39178
-0.353395
-0.306263
-0.257569
-0.2117
-0.170713
-0.135071
-0.104464
-0.0783423
-0.0561411
-0.0373381
-0.021463
-0.00809478
0.00311509
0.0124287
0.020289
0.0275746
0.0333467
-0.383323
-0.373612
-0.349964
-0.311844
-0.265973
-0.219086
-0.175372
-0.136688
-0.103345
-0.0749611
-0.050962
-0.0307739
-0.0138724
0.000213118
0.0118999
0.0215304
0.0293751
0.0359024
0.0419669
0.0464644
-0.337063
-0.328468
-0.305267
-0.267937
-0.223705
-0.178942
-0.137671
-0.101524
-0.0706718
-0.0446728
-0.0229342
-0.00487765
0.0100214
0.0222312
0.0321613
0.0401484
0.0464797
0.0516439
0.0564352
0.0596037
-0.28797
-0.280723
-0.258039
-0.222022
-0.179699
-0.137371
-0.098802
-0.0653992
-0.0372083
-0.0137383
0.00561713
0.0214377
0.0342459
0.0445043
0.0526112
0.0589005
0.0636879
0.0674635
0.070888
0.0726153
-0.236436
-0.23064
-0.208821
-0.174331
-0.134232
-0.0946237
-0.0589833
-0.0285054
-0.00312359
0.0176929
0.0345595
0.048055
0.0586975
0.0669404
0.0731688
0.0777231
0.0809566
0.0833009
0.0851337
0.0850895
-0.183143
-0.178448
-0.157874
-0.125187
-0.0876012
-0.050961
-0.0184448
0.00895526
0.0314035
0.0494626
0.0637531
0.0748504
0.0832663
0.0894422
0.0937524
0.0965573
0.0982445
0.0990738
0.0989395
0.0966728
-0.128214
-0.124691
-0.105553
-0.0749329
-0.0401184
-0.00665752
0.022573
0.046771
0.0661859
0.0814054
0.0930515
0.101695
0.107838
0.111909
0.114278
0.115335
0.115472
0.114648
0.112274
0.108308
-0.0720576
-0.069806
-0.0522505
-0.0239305
0.00789359
0.0380032
0.0638215
0.0847228
0.10103
0.11335
0.122303
0.128454
0.132293
0.134237
0.134656
0.133967
0.132502
0.129868
0.125322
0.12266
-0.0151245
-0.0142105
0.00162473
0.0274493
0.0561049
0.0827312
0.105046
0.122586
0.135737
0.145121
0.151353
0.15499
0.156511
0.156322
0.154796
0.152347
0.149204
0.144788
0.138847
0.13667
0.042133
0.0416656
0.0556599
0.0788299
0.104182
0.127233
0.145988
0.160132
0.170106
0.176539
0.180044
0.181165
0.18037
0.178057
0.174598
0.170386
0.165553
0.159515
0.152507
0.149866
0.0992609
0.0973854
0.10944
0.129834
0.151789
0.171214
0.186388
0.197132
0.203932
0.207425
0.208216
0.206837
0.203746
0.199332
0.19396
0.187994
0.181502
0.173986
0.165988
0.162441
0.155805
0.15251
0.162551
0.180086
0.198594
0.21438
0.225986
0.233356
0.237015
0.237601
0.235711
0.231868
0.226517
0.220037
0.212785
0.205092
0.196995
0.188092
0.179081
0.174425
0.211316
0.206603
0.214585
0.229216
0.244269
0.256443
0.264527
0.268578
0.269151
0.266887
0.262371
0.256118
0.248559
0.240064
0.230977
0.2216
0.211961
0.201738
0.191693
0.185841
0.26535
0.259238
0.265141
0.276863
0.288493
0.297118
0.30176
0.302576
0.300146
0.295109
0.288044
0.279451
0.269752
0.259306
0.248441
0.237439
0.226322
0.214836
0.203755
0.196671
0.317477
0.309996
0.313831
0.322676
0.330955
0.33613
0.337442
0.335133
0.329807
0.322099
0.312579
0.301735
0.289979
0.277659
0.265089
0.252528
0.240003
0.227312
0.215215
0.20689
0.367282
0.358476
0.360281
0.36632
0.371358
0.373216
0.371338
0.366041
0.357949
0.347693
0.335831
0.322843
0.309129
0.295025
0.280832
0.266792
0.252933
0.239101
0.22602
0.216468
0.414367
0.404295
0.404136
0.407474
0.409416
0.408124
0.403224
0.395103
0.384398
0.371734
0.357664
0.342653
0.327092
0.311308
0.295587
0.280155
0.265045
0.250145
0.236124
0.225375
0.458359
0.447093
0.44506
0.445837
0.444862
0.440616
0.43289
0.422131
0.408986
0.394077
0.377946
0.36105
0.343769
0.32642
0.309276
0.292549
0.276279
0.260388
0.245481
0.233581
0.498909
0.486532
0.482743
0.48113
0.477448
0.470472
0.460139
0.44695
0.431559
0.414583
0.396556
0.377926
0.359065
0.340278
0.321826
0.303909
0.286575
0.269779
0.25405
0.241061
0.535694
0.522302
0.516899
0.513095
0.506945
0.497488
0.484792
0.4694
0.451974
0.433127
0.413383
0.393184
0.372892
0.352803
0.333169
0.314176
0.295882
0.27827
0.261792
0.24779
0.568425
0.554124
0.547267
0.5415
0.533147
0.521481
0.506684
0.489335
0.470103
0.449593
0.428326
0.406734
0.385171
0.363929
0.343244
0.323297
0.304153
0.285821
0.26867
0.253746
0.596843
0.58175
0.57362
0.566139
0.55587
0.542289
0.525671
0.506628
0.485831
0.463882
0.441296
0.418497
0.395835
0.373592
0.351998
0.331223
0.311345
0.29239
0.274653
0.258911
0.620725
0.604964
0.595759
0.586835
0.574957
0.55977
0.541628
0.521166
0.499058
0.475905
0.452213
0.428404
0.404821
0.38174
0.359383
0.337915
0.317421
0.297945
0.279712
0.263271
0.639883
0.623587
0.613519
0.603438
0.590275
0.573806
0.554449
0.532856
0.509703
0.485589
0.461015
0.436398
0.412079
0.388328
0.365361
0.343337
0.32235
0.302459
0.283829
0.266819
0.654169
0.637475
0.626767
0.615831
0.601718
0.584305
0.564051
0.541623
0.517699
0.492874
0.467648
0.442434
0.417569
0.39332
0.3699
0.347463
0.32611
0.305912
0.286993
0.269567
0.663471
0.646521
0.635404
0.623924
0.609209
0.591196
0.570372
0.547413
0.522998
0.497718
0.472074
0.446477
0.421261
0.396691
0.372977
0.350272
0.328679
0.308281
0.289175
0.271472
0.667719
0.650659
0.63937
0.627663
0.612697
0.594434
0.573373
0.55019
0.525567
0.500094
0.47427
0.448506
0.423136
0.398424
0.374577
0.351749
0.330046
0.309551
0.290343
0.272489
0.666882
0.649858
0.638636
0.627022
0.612161
0.594002
0.573036
0.54994
0.525393
0.499988
0.474224
0.448512
0.423185
0.39851
0.374695
0.351891
0.330206
0.30972
0.290508
0.272642
0.66097
0.644128
0.633211
0.62201
0.607608
0.589904
0.569367
0.546666
0.522482
0.497406
0.471941
0.446498
0.421413
0.396954
0.373332
0.3507
0.329163
0.308798
0.289697
0.271977
0.650033
0.633517
0.62314
0.612667
0.599074
0.582173
0.562394
0.540396
0.516855
0.492368
0.467437
0.442479
0.417832
0.393767
0.370499
0.348184
0.326924
0.30679
0.28791
0.270498
0.634162
0.618111
0.608502
0.599064
0.586622
0.570866
0.552169
0.531173
0.508553
0.484908
0.460745
0.436483
0.412467
0.388971
0.366215
0.344361
0.323504
0.303706
0.28515
0.268191
0.613484
0.598036
0.589412
0.581304
0.570344
0.556064
0.538764
0.519063
0.497633
0.475078
0.451909
0.428552
0.405353
0.382596
0.360507
0.339255
0.318924
0.299568
0.281433
0.265061
0.58817
0.573452
0.56602
0.559521
0.55036
0.537874
0.522274
0.50415
0.484171
0.462945
0.440989
0.418735
0.396537
0.374683
0.353411
0.332895
0.313212
0.294399
0.276779
0.261119
0.558424
0.544558
0.538507
0.53388
0.526815
0.516426
0.502815
0.486537
0.468258
0.44859
0.428056
0.407097
0.386073
0.365281
0.344969
0.32532
0.306402
0.288232
0.271215
0.256379
0.524488
0.511586
0.507089
0.504572
0.49988
0.491871
0.480522
0.466345
0.450001
0.432107
0.413195
0.393712
0.374027
0.354448
0.335232
0.316574
0.298532
0.281101
0.264768
0.250857
0.486637
0.474801
0.47201
0.471817
0.469752
0.464385
0.45555
0.443712
0.429523
0.413606
0.3965
0.378664
0.360474
0.342248
0.324257
0.306706
0.289647
0.273046
0.257472
0.244572
0.44518
0.434499
0.433543
0.435862
0.436648
0.434161
0.428072
0.418791
0.40696
0.393207
0.37808
0.362047
0.345497
0.328755
0.312107
0.295774
0.279796
0.264112
0.249364
0.237547
0.400452
0.391007
0.391991
0.396977
0.40081
0.401412
0.398278
0.391751
0.382462
0.371042
0.358051
0.343965
0.329186
0.31405
0.298855
0.283838
0.269035
0.254347
0.240483
0.229807
0.35282
0.344675
0.347679
0.355454
0.362498
0.366371
0.366374
0.362775
0.35619
0.347255
0.336539
0.32453
0.31164
0.298217
0.284574
0.270965
0.257421
0.243804
0.230872
0.221379
0.302673
0.29588
0.300955
0.311608
0.321989
0.329284
0.332578
0.332057
0.328317
0.321998
0.313679
0.30386
0.292964
0.28135
0.269347
0.257227
0.24502
0.232538
0.220577
0.212291
0.250419
0.245018
0.252187
0.265769
0.279579
0.29041
0.297121
0.299802
0.299025
0.295433
0.289614
0.282081
0.273268
0.263546
0.253258
0.242698
0.231897
0.22061
0.209647
0.202573
0.196489
0.192502
0.201763
0.218286
0.235575
0.250024
0.260246
0.266225
0.268504
0.267726
0.264492
0.259324
0.252667
0.244905
0.236396
0.227458
0.218125
0.208086
0.198131
0.192255
0.141323
0.138763
0.15008
0.169519
0.190298
0.208409
0.222203
0.231547
0.236949
0.239053
0.238466
0.235723
0.231281
0.225534
0.218854
0.211587
0.203781
0.19504
0.186086
0.18136
0.0853768
0.0842385
0.0975502
0.119838
0.144077
0.165854
0.183248
0.195996
0.204563
0.20959
0.211693
0.211417
0.209232
0.20554
0.200724
0.195165
0.18894
0.18156
0.173584
0.169907
0.0291086
0.0293733
0.0445917
0.069624
0.0972468
0.122656
0.143643
0.159803
0.17155
0.179519
0.184332
0.186546
0.186642
0.185032
0.182105
0.178272
0.173676
0.167744
0.160722
0.157884
-0.0270186
-0.0253859
-0.0083732
0.0192592
0.0501488
0.0791143
0.103653
0.1232
0.138116
0.149021
0.156544
0.161252
0.163638
0.164122
0.163093
0.160986
0.158042
0.153696
0.14771
0.145281
-0.082543
-0.0795963
-0.0609218
-0.030871
0.00312407
0.0355292
0.06354
0.0864222
0.104466
0.118278
0.128489
0.135675
0.140342
0.142918
0.143792
0.143397
0.142086
0.139476
0.134857
0.131969
-0.137004
-0.132823
-0.112635
-0.0803833
-0.0434877
-0.0078014
0.0235669
0.0496985
0.0708044
0.08747
0.100327
0.109956
0.116876
0.121528
0.124298
0.125597
0.125835
0.124985
0.122494
0.118424
-0.18996
-0.184631
-0.163102
-0.1289
-0.0893511
-0.0505843
-0.0160093
0.0132559
0.0373308
0.0567729
0.0722109
0.084232
0.0933615
0.100055
0.104703
0.107684
0.109411
0.110154
0.109828
0.107371
-0.24111
-0.234529
-0.211941
-0.176052
-0.134139
-0.0925343
-0.0549385
-0.0226851
0.00423956
0.0263584
0.0442937
0.0586355
0.0699152
0.0786006
0.0850918
0.0897478
0.0929448
0.0951288
0.0966926
0.0963605
-0.290117
-0.282092
-0.258844
-0.221475
-0.177542
-0.133378
-0.0929794
-0.0579126
-0.0282821
-0.00360834
0.0167207
0.0332952
0.0466507
0.0572636
0.0655474
0.0718536
0.0765187
0.0800496
0.0831291
0.0844954
-0.336334
-0.32705
-0.303562
-0.264852
-0.21927
-0.172852
-0.129902
-0.0922242
-0.060056
-0.03297
-0.0103696
0.00833343
0.0236757
0.0361393
0.046149
0.0540582
0.0601729
0.065
0.0693628
0.0720939
-0.379457
-0.369105
-0.345036
-0.30633
-0.259057
-0.210708
-0.165489
-0.125429
-0.0909141
-0.0615783
-0.0368461
-0.0161346
0.00109189
0.0153175
0.0269744
0.0364218
0.0439472
0.0500364
0.0555789
0.0595509
-0.419244
-0.408002
-0.383613
-0.344728
-0.296748
-0.246716
-0.199536
-0.15735
-0.1207
-0.0892953
-0.0625872
-0.0400015
-0.0210061
-0.005118
0.00809862
0.0190088
0.0278908
0.0352038
0.0418654
0.0470154
-0.455467
-0.44345
-0.419026
-0.380163
-0.331802
-0.280667
-0.231852
-0.18782
-0.149269
-0.115994
-0.0874809
-0.0631682
-0.0425307
-0.0250894
-0.0104082
0.00188251
0.0120562
0.0205423
0.0282609
0.0345262
-0.487935
-0.475207
-0.450983
-0.412528
-0.364113
-0.312318
-0.262262
-0.21669
-0.176491
-0.141562
-0.111426
-0.0855451
-0.0634023
-0.0445259
-0.0284825
-0.0148997
-0.00350675
0.00609132
0.0147997
0.0221167
-0.51649
-0.503116
-0.47929
-0.441609
-0.393571
-0.341512
-0.290617
-0.243832
-0.202253
-0.165897
-0.134335
-0.107052
-0.0835499
-0.0633641
-0.0460673
-0.0312865
-0.0187528
-0.00810822
0.00152305
0.00982976
-0.541028
-0.527081
-0.503822
-0.467237
-0.420016
-0.368133
-0.316797
-0.269147
-0.226455
-0.188914
-0.156129
-0.12762
-0.102912
-0.0815485
-0.0631126
-0.0472326
-0.033641
-0.0220174
-0.0115273
-0.00229296
-0.5615
-0.547056
-0.524512
-0.489307
-0.443322
-0.392067
-0.340701
-0.29254
-0.249051
-0.210527
-0.176746
-0.147188
-0.121435
-0.0990313
-0.0795748
-0.0626984
-0.0481351
-0.0356023
-0.0243161
-0.0142166
-0.577917
-0.563057
-0.541344
-0.507768
-0.463406
-0.413225
-0.362251
-0.313935
-0.269952
-0.230735
-0.196122
-0.165709
-0.139078
-0.115773
-0.0954177
-0.0776505
-0.0622046
-0.0488346
-0.0368165
-0.0259124
-0.590348
-0.575154
-0.554362
-0.522619
-0.480231
-0.431553
-0.381391
-0.333285
-0.289106
-0.249456
-0.214256
-0.183173
-0.1558
-0.131741
-0.110612
-0.0920624
-0.0758242
-0.0616904
-0.0490095
-0.0373558
-0.598922
-0.583478
-0.563666
-0.53391
-0.493801
-0.447028
-0.398091
-0.350563
-0.306495
-0.266663
-0.231103
-0.199542
-0.171606
-0.146922
-0.125133
-0.105914
-0.0889754
-0.0741487
-0.0608822
-0.0485312
-0.603821
-0.588216
-0.569415
-0.541745
-0.504164
-0.459661
-0.412347
-0.365762
-0.322114
-0.282355
-0.24665
-0.214797
-0.186465
-0.161305
-0.138987
-0.119194
-0.101648
-0.0861925
-0.072417
-0.0594413
-0.605277
-0.589604
-0.571818
-0.54628
-0.511412
-0.469495
-0.424178
-0.378895
-0.335974
-0.296543
-0.260904
-0.22894
-0.200371
-0.174878
-0.152154
-0.1319
-0.113849
-0.0978411
-0.0835452
-0.070165
-0.603569
-0.587923
-0.571137
-0.547721
-0.51568
-0.47661
-0.433629
-0.38999
-0.348097
-0.309246
-0.273882
-0.241985
-0.213333
-0.187643
-0.164632
-0.144023
-0.125559
-0.109075
-0.0943109
-0.0806218
-0.599011
-0.583493
-0.567672
-0.546319
-0.517148
-0.481118
-0.44077
-0.399095
-0.358523
-0.320496
-0.285613
-0.253957
-0.225371
-0.199615
-0.176432
-0.155569
-0.136779
-0.119901
-0.104737
-0.0906669
-0.591948
-0.57666
-0.561759
-0.542367
-0.516039
-0.483165
-0.445693
-0.406275
-0.367302
-0.330339
-0.296133
-0.264885
-0.236511
-0.210815
-0.187572
-0.166551
-0.147522
-0.130325
-0.114812
-0.100372
-0.582742
-0.56779
-0.553758
-0.536191
-0.512608
-0.482933
-0.448516
-0.41161
-0.374496
-0.338825
-0.305489
-0.274809
-0.246785
-0.221271
-0.198074
-0.17699
-0.157804
-0.14036
-0.124549
-0.109804
-0.571768
-0.557254
-0.544042
-0.52814
-0.507148
-0.480631
-0.449379
-0.415194
-0.380177
-0.346017
-0.313734
-0.283776
-0.256233
-0.231017
-0.207969
-0.18691
-0.167649
-0.150026
-0.133972
-0.11899
-0.559397
-0.545424
-0.532986
-0.518576
-0.499973
-0.476497
-0.448444
-0.417137
-0.384426
-0.35198
-0.320927
-0.291838
-0.264901
-0.240091
-0.217289
-0.196343
-0.177081
-0.159348
-0.143102
-0.127937
-0.545993
-0.532655
-0.520952
-0.507864
-0.491413
-0.470795
-0.445894
-0.41756
-0.387326
-0.356783
-0.327127
-0.299048
-0.272837
-0.248538
-0.226074
-0.205323
-0.186133
-0.168354
-0.151959
-0.136658
-0.531898
-0.519283
-0.508286
-0.496357
-0.481806
-0.463804
-0.441933
-0.416596
-0.38897
-0.360496
-0.332397
-0.305464
-0.280093
-0.256404
-0.234367
-0.213888
-0.19484
-0.177076
-0.160573
-0.145174
-0.51743
-0.505613
-0.495303
-0.484386
-0.47148
-0.455815
-0.436779
-0.414392
-0.389451
-0.363187
-0.336794
-0.311142
-0.286723
-0.26374
-0.242215
-0.222083
-0.203243
-0.185554
-0.168979
-0.153516
-0.502872
-0.491913
-0.482282
-0.472253
-0.46075
-0.44712
-0.430664
-0.411104
-0.388869
-0.364923
-0.340373
-0.316131
-0.292778
-0.270597
-0.249667
-0.229956
-0.211385
-0.193829
-0.17722
-0.161721
-0.48847
-0.478415
-0.469459
-0.460219
-0.4499
-0.438
-0.423826
-0.406903
-0.387326
-0.365765
-0.343181
-0.320479
-0.298306
-0.277024
-0.256773
-0.237556
-0.219317
-0.20195
-0.185342
-0.169832
-0.474429
-0.465307
-0.457029
-0.448501
-0.439177
-0.428718
-0.416505
-0.401965
-0.384932
-0.365776
-0.345256
-0.324219
-0.303346
-0.283069
-0.263585
-0.244938
-0.227093
-0.20997
-0.193396
-0.177896
-0.460912
-0.452737
-0.445141
-0.437272
-0.428785
-0.419504
-0.408925
-0.396472
-0.381801
-0.365012
-0.346628
-0.327375
-0.307931
-0.288772
-0.270153
-0.252158
-0.234771
-0.217948
-0.201442
-0.18597
-0.448043
-0.440814
-0.433903
-0.426654
-0.418883
-0.410549
-0.401295
-0.390605
-0.378058
-0.363536
-0.347317
-0.329959
-0.312078
-0.294166
-0.276524
-0.259272
-0.242414
-0.225951
-0.209546
-0.194116
-0.435908
-0.429612
-0.423385
-0.416728
-0.409578
-0.402002
-0.393789
-0.384538
-0.37383
-0.361413
-0.347341
-0.331966
-0.315788
-0.299272
-0.282736
-0.266338
-0.25009
-0.234051
-0.217782
-0.202407
-0.424563
-0.419176
-0.413624
-0.407538
-0.400936
-0.393965
-0.386549
-0.378426
-0.369249
-0.358718
-0.346717
-0.333384
-0.319049
-0.304093
-0.28882
-0.27341
-0.257871
-0.242331
-0.226237
-0.210927
-0.414039
-0.409528
-0.404634
-0.399093
-0.392982
-0.386497
-0.379676
-0.372401
-0.364446
-0.355541
-0.345475
-0.334195
-0.321829
-0.308617
-0.294794
-0.280535
-0.26583
-0.250881
-0.235009
-0.21977
-0.404357
-0.400679
-0.396412
-0.391387
-0.385716
-0.379623
-0.373233
-0.366568
-0.359544
-0.351983
-0.34366
-0.334388
-0.324089
-0.312809
-0.300653
-0.287751
-0.274043
-0.259803
-0.244209
-0.229053
-0.395535
-0.392635
-0.388953
-0.384403
-0.379122
-0.373343
-0.367258
-0.361009
-0.354658
-0.348158
-0.341345
-0.333971
-0.325786
-0.316617
-0.306371
-0.295079
-0.282575
-0.269207
-0.25398
-0.238895
-0.387595
-0.385405
-0.382254
-0.378129
-0.373184
-0.367654
-0.361777
-0.355791
-0.349896
-0.344194
-0.338632
-0.332985
-0.326894
-0.31998
-0.311897
-0.302512
-0.291486
-0.279207
-0.26446
-0.249505
-0.380567
-0.379004
-0.376317
-0.372561
-0.3679
-0.362561
-0.356816
-0.35098
-0.345368
-0.34023
-0.335659
-0.331518
-0.327423
-0.32284
-0.317155
-0.310011
-0.300796
-0.289925
-0.275864
-0.260997
-0.374487
-0.373457
-0.371155
-0.36771
-0.36328
-0.358086
-0.35242
-0.346652
-0.341195
-0.336429
-0.3326
-0.32971
-0.327433
-0.325166
-0.322058
-0.317493
-0.310501
-0.30142
-0.288372
-0.273955
-0.369397
-0.368787
-0.366781
-0.363595
-0.359356
-0.354272
-0.348651
-0.342904
-0.337514
-0.332971
-0.329665
-0.327759
-0.327055
-0.32698
-0.326528
-0.32484
-0.320498
-0.313795
-0.302169
-0.288299
-0.365313
-0.364977
-0.363229
-0.36024
-0.356158
-0.35117
-0.345588
-0.339847
-0.33448
-0.330059
-0.327097
-0.325918
-0.326495
-0.328378
-0.33053
-0.331901
-0.330674
-0.326721
-0.318086
-0.305276
-0.362235
-0.36205
-0.360475
-0.357648
-0.35371
-0.348825
-0.343302
-0.337587
-0.332244
-0.327899
-0.325156
-0.32448
-0.326031
-0.329547
-0.334106
-0.338531
-0.340868
-0.340045
-0.335572
-0.323267
-0.360125
-0.359966
-0.358495
-0.355806
-0.352012
-0.347256
-0.341837
-0.336203
-0.330929
-0.326668
-0.324084
-0.323748
-0.325992
-0.330769
-0.337402
-0.344663
-0.350797
-0.353375
-0.353011
-0.342063
-0.358907
-0.358663
-0.357238
-0.354673
-0.351032
-0.346446
-0.341198
-0.335727
-0.330604
-0.326489
-0.32407
-0.323987
-0.326708
-0.332387
-0.340671
-0.350369
-0.360187
-0.366361
-0.370054
-0.361681
-0.358469
-0.358054
-0.35663
-0.354178
-0.350709
-0.34634
-0.341339
-0.336129
-0.331266
-0.327397
-0.32521
-0.325372
-0.328447
-0.334745
-0.344243
-0.355879
-0.368959
-0.378775
-0.386775
-0.381996
-0.358672
-0.358026
-0.356583
-0.354236
-0.350959
-0.346855
-0.342178
-0.33733
-0.332845
-0.329343
-0.327492
-0.327959
-0.331357
-0.338106
-0.348458
-0.361533
-0.377288
-0.390491
-0.403096
-0.402606
-0.359366
-0.358469
-0.356992
-0.354751
-0.351687
-0.347892
-0.343607
-0.339214
-0.335217
-0.332203
-0.330806
-0.331673
-0.335436
-0.342581
-0.353564
-0.367668
-0.385506
-0.401524
-0.418826
-0.422862
-0.360399
-0.359262
-0.357755
-0.355629
-0.352796
-0.349347
-0.345509
-0.341645
-0.338227
-0.335802
-0.334965
-0.336335
-0.340542
-0.348108
-0.35963
-0.374504
-0.393949
-0.412076
-0.433832
-0.442115
-0.361628
-0.360294
-0.358778
-0.356782
-0.354198
-0.35112
-0.347768
-0.344483
-0.341705
-0.339939
-0.339738
-0.341692
-0.346422
-0.354475
-0.366535
-0.382072
-0.402789
-0.422472
-0.448057
-0.459988
-0.362929
-0.361467
-0.359977
-0.358129
-0.355811
-0.353122
-0.350275
-0.347593
-0.345481
-0.344404
-0.344875
-0.347457
-0.35276
-0.361361
-0.373987
-0.390207
-0.411961
-0.432952
-0.461455
-0.476456
-0.364199
-0.362699
-0.361279
-0.359603
-0.357565
-0.35527
-0.35293
-0.350847
-0.349394
-0.348996
-0.350131
-0.353339
-0.359225
-0.368398
-0.381601
-0.398552
-0.421188
-0.443472
-0.473955
-0.491706
-0.365363
-0.363923
-0.362626
-0.361149
-0.3594