/*--------------------------------*- C++ -*----------------------------------*\
  =========                 |
  \\      /  F ield         | OpenFOAM: The Open Source CFD Toolbox
   \\    /   O peration     | Website:  https://openfoam.org
    \\  /    A nd           | Version:  7
     \\/     M anipulation  |
\*---------------------------------------------------------------------------*/
FoamFile
{
    version     2.0;
    format      ascii;
    class       surfaceScalarField;
    location    "24";
    object      phi;
}
// * * * * * * * * * * * * * * * * * * * * * * * * * * * * * * * * * * * * * //

dimensions      [0 3 -1 0 0 0 0];

internalField   nonuniform List<scalar> 
823
(
0.0264028
-4.25515e-05
0.0264458
-4.29675e-05
0.026489
-4.32463e-05
0.0265324
-4.33884e-05
0.0265758
-4.33754e-05
0.026619
-4.31895e-05
0.0266618
-4.28146e-05
0.026704
-4.22347e-05
0.0267454
-4.14339e-05
0.0267858
-4.0397e-05
0.0268249
-3.91102e-05
0.0268625
-3.75615e-05
0.0268983
-3.57412e-05
0.0269319
-3.36429e-05
0.0269632
-3.12631e-05
0.0269918
-2.8603e-05
0.0270174
-2.56678e-05
-2.24684e-05
0.0255048
-8.40443e-05
0.0255467
-8.48539e-05
0.0255888
-8.53865e-05
0.0256311
-8.56448e-05
0.0256733
-8.55927e-05
0.0257153
-8.51952e-05
0.0257569
-8.44212e-05
0.0257979
-8.32397e-05
0.0258381
-8.16194e-05
0.0258773
-7.95308e-05
0.0259151
-7.69471e-05
0.0259514
-7.38451e-05
0.0259858
-7.02068e-05
0.0260182
-6.60196e-05
0.0260482
-6.12781e-05
0.0260756
-5.59849e-05
0.0261001
-5.01517e-05
-4.38007e-05
0.0246587
-0.000124901
0.0246999
-0.000126056
0.0247413
-0.000126793
0.0247828
-0.000127117
0.0248242
-0.000126973
0.0248653
-0.000126309
0.0249059
-0.000125079
0.0249459
-0.000123239
0.024985
-0.000120741
0.0250231
-0.000117544
0.0250597
-0.000113607
0.0250948
-0.000108899
0.025128
-0.000103393
0.025159
-9.70729e-05
0.0251877
-8.99326e-05
0.0252137
-8.19777e-05
0.0252367
-7.32281e-05
-6.37188e-05
0.0238594
-0.000165461
0.0239003
-0.000166905
0.0239413
-0.000167783
0.0239823
-0.000168103
0.0240231
-0.000167791
0.0240636
-0.00016678
0.0241035
-0.000165009
0.0241427
-0.00016242
0.0241809
-0.000158952
0.0242179
-0.000154549
0.0242534
-0.000149163
0.0242873
-0.000142752
0.0243192
-0.000135285
0.0243489
-0.000126742
0.024376
-0.000117119
0.0244005
-0.000106428
0.024422
-9.46972e-05
-8.19781e-05
0.023103
-0.000206012
0.0231438
-0.000207674
0.0231846
-0.000208614
0.0232253
-0.000208841
0.0232658
-0.000208265
0.0233058
-0.000206802
0.0233452
-0.000204379
0.0233837
-0.000200921
0.0234211
-0.000196357
0.0234572
-0.000190621
0.0234917
-0.000183653
0.0235243
-0.000175406
0.0235549
-0.000165845
0.0235831
-0.000154951
0.0236087
-0.000142723
0.0236315
-0.000129181
0.0236511
-0.000114368
-9.83516e-05
0.0223858
-0.000246792
0.0224267
-0.000248588
0.0224676
-0.000249493
0.0225083
-0.000249522
0.0225486
-0.000248566
0.0225883
-0.000246523
0.0226273
-0.000243309
0.0226652
-0.000238837
0.0227018
-0.000233023
0.022737
-0.000225792
0.0227704
-0.000217078
0.0228019
-0.000206829
0.022831
-0.00019501
0.0228577
-0.000181603
0.0228816
-0.000166615
0.0229025
-0.000150078
0.0229201
-0.00013205
-0.000112621
0.0217048
-0.000287997
0.0217461
-0.000289828
0.0217872
-0.000290588
0.0218279
-0.000290294
0.0218682
-0.000288817
0.0219077
-0.000286045
0.0219463
-0.000281877
0.0219836
-0.000276217
0.0220196
-0.000268973
0.0220539
-0.000260059
0.0220862
-0.000249406
0.0221163
-0.000236961
0.022144
-0.000222688
0.022169
-0.000206579
0.022191
-0.00018865
0.0222099
-0.000168947
0.0222254
-0.000147549
-0.000124572
0.0210572
-0.00032979
0.0210989
-0.000331543
0.0211404
-0.000332026
0.0211813
-0.000331262
0.0212216
-0.000329107
0.021261
-0.000325429
0.0212993
-0.00032012
0.0213361
-0.000313075
0.0213713
-0.000304191
0.0214047
-0.00029338
0.0214358
-0.000280568
0.0214646
-0.000265705
0.0214906
-0.000248762
0.0215138
-0.000229739
0.0215338
-0.000208665
0.0215505
-0.000185607
0.0215636
-0.000160668
-0.000133991
0.0204406
-0.000372303
0.0204829
-0.000373844
0.0205248
-0.000373899
0.020566
-0.0003725
0.0206064
-0.00036948
0.0206456
-0.000364698
0.0206836
-0.000358036
0.0207199
-0.00034938
0.0207543
-0.000338624
0.0207866
-0.000325674
0.0208165
-0.000310461
0.0208437
-0.000292938
0.020868
-0.000273085
0.0208892
-0.000250917
0.020907
-0.00022648
0.0209213
-0.000199865
0.0209318
-0.000171201
-0.000140666
0.0198527
-0.000415635
0.0198956
-0.000416812
0.019938
-0.000416267
0.0199795
-0.00041404
0.02002
-0.000409948
0.0200592
-0.000403837
0.0200967
-0.000395583
0.0201324
-0.000385067
0.0201659
-0.000372179
0.0201971
-0.000356829
0.0202256
-0.00033895
0.0202511
-0.000318504
0.0202736
-0.000295486
0.0202926
-0.000269928
0.020308
-0.000241899
0.0203196
-0.000211516
0.0203274
-0.00017894
-0.000144385
0.0192915
-0.00045986
0.0193351
-0.000460496
0.019378
-0.000459153
0.0194199
-0.000455881
0.0194604
-0.000450482
0.0194994
-0.000442791
0.0195365
-0.00043268
0.0195714
-0.00042003
0.019604
-0.000404729
0.0196338
-0.000386693
0.0196607
-0.000365865
0.0196845
-0.000342219
0.0197047
-0.000315769
0.0197214
-0.000286567
0.0197342
-0.00025471
0.019743
-0.000220346
0.0197478
-0.000183671
-0.000144937
0.0187551
-0.00050502
0.0187995
-0.000504914
0.0188429
-0.000502547
0.018885
-0.000497986
0.0189255
-0.000491015
0.0189642
-0.000481466
0.0190007
-0.000469208
0.0190348
-0.000454123
0.0190662
-0.000436107
0.0190946
-0.000415083
0.0191197
-0.000391006
0.0191414
-0.000363871
0.0191593
-0.000333713
0.0191734
-0.00030061
0.0191834
-0.000264691
0.0191892
-0.000226135
0.0191907
-0.000185178
-0.000142114
0.0182419
-0.00055113
0.018287
-0.000550049
0.0183308
-0.000546404
0.0183731
-0.000540278
0.0184136
-0.000531444
0.0184518
-0.000519728
0.0184876
-0.000505006
0.0185207
-0.000487165
0.0185507
-0.00046611
0.0185774
-0.000441778
0.0186005
-0.000414143
0.0186199
-0.000383223
0.0186352
-0.000349078
0.0186464
-0.000311817
0.0186533
-0.000271602
0.0186559
-0.00022865
0.0186539
-0.000183238
-0.000135701
0.0177502
-0.000598173
0.017796
-0.000595853
0.0178402
-0.000590641
0.0178826
-0.000582642
0.0179228
-0.000571618
0.0179604
-0.0005574
0.0179953
-0.000539871
0.0180271
-0.000518929
0.0180554
-0.000494495
0.0180802
-0.000466523
0.0181011
-0.000435012
0.0181178
-0.000400005
0.0181304
-0.000361595
0.0181385
-0.000319922
0.018142
-0.000275187
0.018141
-0.000227645
0.0181354
-0.000177613
-0.000125473
0.0172786
-0.000646099
0.017325
-0.000642236
0.0173695
-0.00063513
0.0174117
-0.000624914
0.0174515
-0.000611344
0.0174883
-0.000594257
0.017522
-0.000573553
0.0175522
-0.000549146
0.0175787
-0.000520976
0.0176012
-0.000489022
0.0176195
-0.000453311
0.0176334
-0.000413916
0.0176428
-0.000370964
0.0176475
-0.000324633
0.0176475
-0.000275159
0.0176427
-0.000222841
0.0176331
-0.000168036
-0.00011117
0.0168258
-0.000694817
0.0168726
-0.000689064
0.0169172
-0.000679698
0.0169591
-0.000666882
0.0169982
-0.000650372
0.0170339
-0.00063002
0.0170661
-0.000605747
0.0170945
-0.000577491
0.0171187
-0.000545214
0.0171386
-0.000508926
0.017154
-0.000468685
0.0171647
-0.000424601
0.0171705
-0.000376834
0.0171715
-0.000325601
0.0171675
-0.000271179
0.0171586
-0.000213905
0.0171447
-0.000154179
-9.24698e-05
0.0163905
-0.000744188
0.0164376
-0.000736149
0.016482
-0.000724108
0.0165234
-0.000708266
0.0165614
-0.000688384
0.0165957
-0.000664338
0.016626
-0.000636077
0.0166521
-0.000603565
0.0166737
-0.000566796
0.0166906
-0.000525813
0.0167026
-0.000480708
0.0167096
-0.000431628
0.0167116
-0.000378773
0.0167084
-0.000322399
0.0167
-0.00026282
0.0166865
-0.000200414
0.016668
-0.000135623
-6.89556e-05
0.0159715
-0.000794006
0.0160186
-0.000783226
0.0160626
-0.000768041
0.016103
-0.000748697
0.0161396
-0.000724969
0.016172
-0.000696764
0.0162
-0.000664064
0.0162233
-0.000626868
0.0162417
-0.000585203
0.016255
-0.000539147
0.0162632
-0.000488835
0.016266
-0.000434449
0.0162634
-0.000376229
0.0162555
-0.000314469
0.0162422
-0.000249525
0.0162236
-0.000181813
0.0161998
-0.000111813
-4.00745e-05
0.0155678
-0.000843967
0.0156145
-0.00082992
0.0156575
-0.000811058
0.0156965
-0.000787679
0.0157311
-0.000759579
0.015761
-0.000726706
0.0157861
-0.000689082
0.0158059
-0.000646743
0.0158205
-0.000599754
0.0158296
-0.000548232
0.0158331
-0.000492352
0.015831
-0.000432338
0.0158232
-0.000368469
0.0158098
-0.00030108
0.0157909
-0.000230563
0.0157664
-0.000157375
0.0157366
-8.20345e-05
-5.12482e-06
0.015178
-0.000893614
0.0152237
-0.000875692
0.0152652
-0.000852545
0.0153021
-0.000824527
0.015334
-0.00079147
0.0153606
-0.000753369
0.0153818
-0.000710293
0.0153974
-0.000662316
0.0154072
-0.000609545
0.0154111
-0.000552141
0.0154091
-0.000490319
0.0154011
-0.000424346
0.0153872
-0.000354542
0.0153674
-0.000281283
0.0153418
-0.000205
0.0153106
-0.000126187
0.015274
-4.54041e-05
3.67362e-05
0.0148005
-0.000942256
0.0148446
-0.00091976
0.0148837
-0.000891628
0.0149174
-0.000858284
0.0149456
-0.000819611
0.0149679
-0.000775665
0.0149841
-0.000726562
0.0149942
-0.000672416
0.0149981
-0.000613377
0.0149956
-0.000549655
0.0149868
-0.00048151
0.0149717
-0.000409254
0.0149504
-0.000333249
0.014923
-0.000253911
0.0148897
-0.000171712
0.0148507
-8.71804e-05
0.0148063
-9.33659e-07
0.0147566
8.64359e-05
0.00017413
0.0144334
-0.000988852
0.0144746
-0.00096098
0.01451
-0.000927064
0.0145394
-0.000887612
0.0145623
-0.000842592
0.0145788
-0.000792128
0.0145886
-0.00073638
0.0145917
-0.000675505
0.014588
-0.000609704
0.0145776
-0.000539236
0.0145605
-0.000464413
0.0145368
-0.000385591
0.0145068
-0.000303178
0.0144705
-0.000217634
0.0144283
-0.000129468
0.0143803
-3.92475e-05
0.014327
5.24045e-05
0.0142686
0.000144817
0.000237211
0.0140734
-0.00103186
0.0141101
-0.000997722
0.0141402
-0.000957119
0.0141632
-0.000910688
0.0141792
-0.00085853
0.0141879
-0.000800841
0.0141893
-0.000737819
0.0141835
-0.000669666
0.0141704
-0.000596639
0.0141502
-0.000519056
0.0141231
-0.00043728
0.0140892
-0.000351718
0.0140489
-0.000262823
0.0140023
-0.000171095
0.01395
-7.7076e-05
0.0138921
1.86274e-05
0.0138291
0.0137614
0.013716
0.013746
0.0137683
0.0137828
0.0137893
0.0137879
0.0137786
0.0137616
0.013737
0.0137051
0.0136661
0.0136204
0.0135684
0.0135104
0.013447
)
;

boundaryField
{
    inlet
    {
        type            calculated;
        value           nonuniform 0();
    }
    outlet
    {
        type            calculated;
        value           nonuniform 0();
    }
    cylinder
    {
        type            calculated;
        value           nonuniform 0();
    }
    top
    {
        type            symmetryPlane;
        value           nonuniform 0();
    }
    bottom
    {
        type            symmetryPlane;
        value           uniform 0;
    }
    defaultFaces
    {
        type            empty;
        value           nonuniform 0();
    }
    procBoundary4to3
    {
        type            processor;
        value           nonuniform List<scalar> 
24
(
-0.0263602
-0.0254633
-0.0246178
-0.0238189
-0.0230625
-0.0223451
-0.0216636
-0.0210154
-0.0203981
-0.0198093
-0.0192472
-0.0187099
-0.0181957
-0.0177031
-0.0172307
-0.0167771
-0.0163411
-0.0159217
-0.0155178
-0.0151283
-0.0147519
-0.0143868
-0.0140304
-0.0136787
)
;
    }
    procBoundary4to5
    {
        type            processor;
        value           nonuniform List<scalar> 
21
(
0.0270399
0.0261214
0.0252567
0.0244402
0.0236675
0.0229344
0.0222373
0.021573
0.0209385
0.0203311
0.0197483
0.0191878
0.0186475
0.0181252
0.0176188
0.017126
0.0166444
0.0161709
0.0157017
0.0152321
-0.000119527
)
;
    }
    procBoundary4to10
    {
        type            processor;
        value           nonuniform List<scalar> 
20
(
0.000115398
0.000212505
0.000309187
-0.00106907
-0.00102774
-0.000979473
-0.000925135
-0.000865035
-0.000799435
-0.000728559
-0.000652659
-0.000572057
-0.000487133
-0.000398303
-0.000306023
-0.00021079
-0.000113139
-1.36353e-05
0.0133785
8.71096e-05
)
;
    }
    procBoundary4to11
    {
        type            processor;
        value           nonuniform List<scalar> 3(0.014702 0.0142055 0.0136894);
    }
}


// ************************************************************************* //
