/*--------------------------------*- C++ -*----------------------------------*\
  =========                 |
  \\      /  F ield         | OpenFOAM: The Open Source CFD Toolbox
   \\    /   O peration     | Website:  https://openfoam.org
    \\  /    A nd           | Version:  7
     \\/     M anipulation  |
\*---------------------------------------------------------------------------*/
FoamFile
{
    version     2.0;
    format      ascii;
    class       volScalarField;
    location    "63.99939";
    object      p;
}
// * * * * * * * * * * * * * * * * * * * * * * * * * * * * * * * * * * * * * //

dimensions      [0 2 -2 0 0 0 0];

internalField   nonuniform List<scalar> 
5800
(
-0.218437
-0.220212
-0.221286
-0.222127
-0.222863
-0.223514
-0.224119
-0.224706
-0.225285
-0.225853
0.673599
0.656812
0.646544
0.635681
0.621864
0.605007
0.585495
0.563921
0.540896
0.516955
0.492548
0.673597
0.656811
0.646542
0.63568
0.621862
0.605006
0.585494
0.56392
0.540895
0.516954
0.492547
0.468047
0.443757
0.419921
0.396731
0.374332
0.352828
0.332312
0.312863
0.294507
0.668899
0.652252
0.642201
0.631629
0.618135
0.601602
0.582396
0.561107
0.538345
0.514645
0.490458
0.466158
0.44205
0.418379
0.395339
0.373074
0.351689
0.331271
0.311915
0.293695
0.659545
0.643176
0.633556
0.62356
0.61071
0.59482
0.576225
0.555503
0.533264
0.510043
0.486294
0.462394
0.438649
0.415306
0.392563
0.370567
0.349418
0.329197
0.310026
0.292073
0.645616
0.629659
0.620679
0.611538
0.599645
0.584712
0.567025
0.547148
0.525687
0.50318
0.480084
0.456779
0.433575
0.410721
0.388421
0.366825
0.346029
0.326101
0.307206
0.289646
0.627232
0.611819
0.603676
0.59566
0.585026
0.571354
0.554866
0.536103
0.515669
0.494105
0.471871
0.449351
0.42686
0.404653
0.382938
0.361871
0.341542
0.322004
0.303471
0.286419
0.604553
0.589808
0.58269
0.576052
0.566965
0.554847
0.539836
0.522447
0.50328
0.482879
0.461709
0.440159
0.418549
0.39714
0.376147
0.355734
0.335983
0.31693
0.298841
0.282401
0.577775
0.563815
0.557896
0.552872
0.545604
0.535314
0.522046
0.506279
0.488608
0.46958
0.449667
0.429263
0.408694
0.388229
0.36809
0.34845
0.329384
0.310908
0.293341
0.277606
0.547132
0.534065
0.529499
0.526305
0.521106
0.512905
0.501627
0.487716
0.471756
0.4543
0.435825
0.416734
0.397358
0.377974
0.358814
0.340061
0.321785
0.303974
0.287002
0.272051
0.512889
0.500814
0.497739
0.496566
0.493664
0.487786
0.47873
0.46689
0.452843
0.437144
0.420278
0.402654
0.384614
0.36644
0.348377
0.330617
0.313227
0.296168
0.279856
0.265756
0.475344
0.46435
0.46288
0.463894
0.463489
0.460148
0.453523
0.443952
0.432001
0.418229
0.403127
0.387115
0.370541
0.353698
0.33684
0.320173
0.303761
0.287534
0.271941
0.258746
0.434826
0.42499
0.425217
0.428553
0.430816
0.430199
0.42619
0.419065
0.409376
0.397684
0.384488
0.370218
0.35523
0.339826
0.324271
0.308788
0.293439
0.27812
0.263299
0.25105
0.391688
0.383074
0.385065
0.390827
0.395898
0.398163
0.396932
0.392408
0.385125
0.375648
0.364484
0.35207
0.338774
0.324907
0.310746
0.296529
0.28232
0.267978
0.253974
0.2427
0.346308
0.338968
0.342764
0.351023
0.359008
0.364282
0.365962
0.36417
0.359417
0.352271
0.343246
0.332789
0.321278
0.309033
0.296344
0.283464
0.270466
0.257165
0.244016
0.23373
0.299081
0.293055
0.298672
0.309463
0.320432
0.328809
0.333505
0.334549
0.332428
0.327708
0.320911
0.312495
0.302848
0.292298
0.281147
0.269668
0.257942
0.245741
0.233476
0.224177
0.250421
0.245736
0.253161
0.266484
0.28047
0.29201
0.299796
0.303756
0.304344
0.302123
0.297626
0.291317
0.283596
0.2748
0.265242
0.255217
0.244819
0.23377
0.22241
0.214079
0.200755
0.197422
0.206618
0.222436
0.239432
0.254159
0.265078
0.272004
0.275353
0.275685
0.273537
0.269385
0.263638
0.256643
0.24872
0.240189
0.231167
0.221321
0.210879
0.203474
0.150515
0.148536
0.159438
0.177678
0.197637
0.215537
0.2296
0.239515
0.245652
0.248566
0.248798
0.246834
0.243093
0.237929
0.231673
0.224663
0.217059
0.208476
0.198958
0.192397
0.100141
0.0994993
0.112022
0.132572
0.155408
0.17643
0.193614
0.206509
0.215437
0.22094
0.223563
0.2238
0.22208
0.218767
0.214193
0.208719
0.202563
0.195314
0.186739
0.180854
0.0500687
0.0507358
0.0647698
0.0874861
0.113071
0.137126
0.157372
0.173213
0.184907
0.192981
0.197985
0.200418
0.200719
0.199261
0.196375
0.192435
0.187734
0.181915
0.174396
0.16888
0.000734579
0.00266019
0.0180828
0.0427843
0.0709516
0.09791
0.121127
0.139847
0.154257
0.164865
0.172219
0.176824
0.179129
0.179516
0.178317
0.175897
0.172625
0.168328
0.162147
0.156397
-0.0474281
-0.0443228
-0.0276476
-0.0011738
0.0293705
0.0590656
0.085128
0.106632
0.123683
0.136763
0.146416
0.153152
0.157428
0.159635
0.160108
0.15919
0.157276
0.154471
0.150164
0.143864
-0.0940314
-0.0897936
-0.0720487
-0.0440391
-0.0113585
0.0208689
0.049617
0.0737814
0.0933729
0.108841
0.120723
0.129533
0.13573
0.139718
0.141837
0.142406
0.1418
0.140344
0.137906
0.133251
-0.138963
-0.133216
-0.114794
-0.0854768
-0.0509329
-0.0164135
0.0148289
0.041502
0.0635097
0.0812611
0.0952846
0.106092
0.114147
0.119861
0.123585
0.125625
0.126312
0.126084
0.125257
0.122546
-0.181513
-0.174367
-0.155652
-0.125186
-0.0890672
-0.0525271
-0.0190123
0.00999154
0.0342682
0.0541786
0.0702365
0.0829507
0.0927862
0.100159
0.105433
0.108909
0.11088
0.111804
0.112256
0.111111
-0.221344
-0.213073
-0.193904
-0.163015
-0.125499
-0.0872302
-0.0516944
-0.0205632
0.00581342
0.0277393
0.0457083
0.0602238
0.0717494
0.0807033
0.0874562
0.0923156
0.0955457
0.0975776
0.099114
0.0992162
-0.258226
-0.249015
-0.229464
-0.198361
-0.160051
-0.120298
-0.0830182
-0.0499876
-0.0217004
0.00207951
0.0218211
0.0380184
0.0511312
0.0615768
0.0697301
0.075905
0.0803494
0.0834596
0.0859929
0.0872031
-0.291972
-0.281901
-0.262184
-0.231036
-0.19235
-0.151545
-0.1128
-0.0781199
-0.0481315
-0.0226752
-0.00131361
0.0164337
0.0310198
0.0428586
0.0523256
0.0597398
0.0653413
0.0694918
0.072968
0.0752138
-0.322396
-0.311523
-0.291849
-0.260953
-0.222161
-0.18075
-0.140873
-0.104814
-0.0733506
-0.0464118
-0.0235945
-0.0044397
0.0114959
0.0246208
0.0353083
0.0438799
0.0505724
0.0557129
0.0600756
0.0632915
-0.349343
-0.337731
-0.318281
-0.287939
-0.249395
-0.207721
-0.16709
-0.129943
-0.097243
-0.0690298
-0.044931
-0.0245203
-0.00736801
0.00692895
0.0187376
0.0283799
0.036091
0.0421619
0.0473493
0.0514709
-0.372709
-0.36043
-0.341357
-0.311838
-0.273916
-0.232354
-0.191325
-0.153411
-0.119705
-0.0904422
-0.0652439
-0.0437356
-0.0255086
-0.0101588
0.00266626
0.0132879
0.0219406
0.0288782
0.0348268
0.0397933
-0.392446
-0.379579
-0.361011
-0.332552
-0.295608
-0.254547
-0.213479
-0.175117
-0.14071
-0.110552
-0.0844667
-0.0620231
-0.0428719
-0.0265904
-0.0128598
-0.00135332
0.00816075
0.0158989
0.0225442
0.0282991
-0.408564
-0.395191
-0.377231
-0.350036
-0.314394
-0.274219
-0.233479
-0.194983
-0.160146
-0.12937
-0.102547
-0.0793299
-0.0594127
-0.0423206
-0.0278018
-0.0155057
-0.00521499
0.00325803
0.0105305
0.0170217
-0.421124
-0.407335
-0.390061
-0.364294
-0.330245
-0.291317
-0.251271
-0.212962
-0.177961
-0.146808
-0.119471
-0.0956702
-0.0750706
-0.0573143
-0.0421275
-0.0291364
-0.0181597
-0.00901247
-0.00119293
0.00598573
-0.430244
-0.416131
-0.399598
-0.375381
-0.34317
-0.305825
-0.266827
-0.229029
-0.194136
-0.162834
-0.135185
-0.110968
-0.0898689
-0.0715775
-0.0557988
-0.0422205
-0.030653
-0.0208835
-0.0126014
-0.00480087
-0.436091
-0.421754
-0.40599
-0.3834
-0.353222
-0.317757
-0.280144
-0.243176
-0.208666
-0.17744
-0.149671
-0.125205
-0.103767
-0.0850683
-0.0688284
-0.0547739
-0.0426643
-0.0323423
-0.023646
-0.0153622
-0.438878
-0.424419
-0.409434
-0.388504
-0.360496
-0.327161
-0.291243
-0.255412
-0.221555
-0.190634
-0.162936
-0.138382
-0.116748
-0.0977695
-0.0811868
-0.0667475
-0.0542084
-0.0434226
-0.0342342
-0.0257593
-0.438858
-0.424385
-0.41017
-0.390888
-0.365128
-0.334121
-0.30017
-0.265765
-0.232825
-0.202431
-0.174992
-0.150512
-0.12882
-0.109682
-0.0928639
-0.078132
-0.0652593
-0.0540879
-0.0444836
-0.035825
-0.436315
-0.421939
-0.408475
-0.39079
-0.367296
-0.338751
-0.306998
-0.274282
-0.242508
-0.21286
-0.185862
-0.161611
-0.139995
-0.120816
-0.103866
-0.0889321
-0.0758067
-0.064329
-0.0543893
-0.0454464
-0.431561
-0.417394
-0.404652
-0.388482
-0.367213
-0.341199
-0.311821
-0.281027
-0.250653
-0.221958
-0.195577
-0.171705
-0.150293
-0.131187
-0.114205
-0.0991569
-0.0858545
-0.0741406
-0.0639229
-0.0546801
-0.424919
-0.411073
-0.399024
-0.384263
-0.365126
-0.341646
-0.31476
-0.286082
-0.257321
-0.229773
-0.204178
-0.180826
-0.15974
-0.140815
-0.123896
-0.108818
-0.0954121
-0.083526
-0.073087
-0.0636012
-0.416722
-0.403306
-0.39192
-0.378446
-0.361305
-0.340298
-0.315959
-0.289544
-0.262581
-0.236364
-0.211712
-0.189014
-0.16837
-0.149725
-0.132959
-0.117932
-0.104493
-0.0924972
-0.0818966
-0.0722434
-0.407297
-0.394415
-0.383668
-0.371355
-0.356043
-0.337387
-0.315583
-0.291525
-0.266516
-0.241792
-0.218233
-0.196316
-0.176221
-0.15795
-0.141421
-0.126518
-0.113113
-0.10107
-0.0903628
-0.0806121
-0.396963
-0.384709
-0.374582
-0.363306
-0.349636
-0.333163
-0.313819
-0.292155
-0.269213
-0.246127
-0.223798
-0.202781
-0.183336
-0.165526
-0.149309
-0.1346
-0.121293
-0.109261
-0.0984938
-0.0887022
-0.386016
-0.374472
-0.364955
-0.354603
-0.342383
-0.327887
-0.310868
-0.291576
-0.270773
-0.249442
-0.228467
-0.208462
-0.189761
-0.172492
-0.156658
-0.142206
-0.129055
-0.117087
-0.106301
-0.096514
-0.374729
-0.363964
-0.355051
-0.345526
-0.334569
-0.321826
-0.306949
-0.289946
-0.271303
-0.251814
-0.232302
-0.213412
-0.195543
-0.17889
-0.163504
-0.149366
-0.136422
-0.124569
-0.113801
-0.104056
-0.363344
-0.353411
-0.345102
-0.336321
-0.326456
-0.315236
-0.302283
-0.287433
-0.27092
-0.253324
-0.235365
-0.217683
-0.200731
-0.184762
-0.169884
-0.156112
-0.143421
-0.131729
-0.121013
-0.111344
-0.35207
-0.343002
-0.3353
-0.327201
-0.318277
-0.308361
-0.297096
-0.284215
-0.269748
-0.254056
-0.237715
-0.221326
-0.205369
-0.190153
-0.175837
-0.162478
-0.150081
-0.138591
-0.12796
-0.118395
-0.34108
-0.332895
-0.325802
-0.318337
-0.31023
-0.301416
-0.2916
-0.280475
-0.267922
-0.254098
-0.239414
-0.224389
-0.209501
-0.195101
-0.181402
-0.168499
-0.156432
-0.145181
-0.134664
-0.125226
-0.330512
-0.323208
-0.316726
-0.309861
-0.302471
-0.294587
-0.285993
-0.276396
-0.265584
-0.253549
-0.240524
-0.226915
-0.213165
-0.199645
-0.186613
-0.17421
-0.162505
-0.151525
-0.141149
-0.131857
-0.320472
-0.314033
-0.308157
-0.301866
-0.295119
-0.288021
-0.280447
-0.272148
-0.262879
-0.252509
-0.241109
-0.228946
-0.216393
-0.203817
-0.191504
-0.179642
-0.16833
-0.15765
-0.147439
-0.138308
-0.311035
-0.305429
-0.300149
-0.294412
-0.288251
-0.281829
-0.275102
-0.267888
-0.25995
-0.251087
-0.241237
-0.230522
-0.219213
-0.20764
-0.196103
-0.184827
-0.173938
-0.163583
-0.153559
-0.1446
-0.30225
-0.297432
-0.292731
-0.28753
-0.281914
-0.276083
-0.270064
-0.263747
-0.256933
-0.249398
-0.240985
-0.231685
-0.221647
-0.211133
-0.200429
-0.189788
-0.179356
-0.169351
-0.159533
-0.150755
-0.294142
-0.290058
-0.285911
-0.281228
-0.276125
-0.270824
-0.265405
-0.259828
-0.253948
-0.247552
-0.240435
-0.232479
-0.223714
-0.214305
-0.204493
-0.194541
-0.184605
-0.174977
-0.165386
-0.156793
-0.286719
-0.283305
-0.279681
-0.275495
-0.27088
-0.266063
-0.261166
-0.256204
-0.251093
-0.245655
-0.239672
-0.232959
-0.225435
-0.217158
-0.208294
-0.199092
-0.189699
-0.180481
-0.171139
-0.162736
-0.279969
-0.277159
-0.274023
-0.270308
-0.266157
-0.261794
-0.257361
-0.252922
-0.248444
-0.243798
-0.238784
-0.233184
-0.226835
-0.219692
-0.211823
-0.203435
-0.194643
-0.185877
-0.176809
-0.168609
-0.273873
-0.271596
-0.268907
-0.265636
-0.261927
-0.257992
-0.253985
-0.25
-0.24605
-0.242055
-0.23785
-0.233218
-0.227949
-0.221909
-0.21506
-0.207548
-0.199424
-0.191165
-0.182411
-0.174426
-0.268397
-0.266582
-0.264299
-0.261442
-0.258152
-0.254624
-0.251016
-0.247439
-0.243939
-0.240481
-0.236943
-0.23313
-0.228817
-0.223814
-0.217986
-0.211399
-0.204015
-0.196334
-0.18793
-0.180241
-0.2635
-0.262078
-0.26016
-0.257686
-0.25479
-0.251651
-0.248422
-0.245221
-0.242117
-0.239109
-0.236116
-0.232981
-0.229491
-0.225427
-0.220582
-0.214945
-0.208364
-0.201353
-0.193353
-0.186025
-0.259135
-0.258042
-0.256446
-0.254324
-0.251799
-0.249031
-0.246165
-0.243319
-0.240574
-0.237951
-0.235408
-0.232826
-0.23002
-0.226775
-0.222844
-0.218141
-0.212424
-0.206133
-0.198644
-0.191897
-0.255246
-0.254424
-0.253112
-0.251311
-0.249134
-0.246719
-0.244202
-0.241696
-0.239284
-0.237004
-0.234838
-0.232705
-0.230456
-0.227897
-0.224779
-0.220955
-0.216116
-0.210647
-0.203636
-0.19761
-0.251775
-0.251175
-0.250112
-0.248603
-0.246749
-0.24467
-0.242487
-0.240308
-0.238214
-0.236247
-0.234408
-0.232643
-0.23084
-0.228838
-0.226411
-0.223366
-0.219436
-0.214591
-0.209018
-0.201923
-0.248662
-0.248244
-0.247398
-0.246155
-0.2446
-0.242837
-0.240976
-0.239113
-0.237321
-0.235647
-0.2341
-0.232645
-0.231202
-0.229641
-0.22778
-0.225368
-0.222401
-0.217836
-0.214373
-0.205634
-0.245848
-0.245581
-0.244925
-0.243923
-0.242644
-0.241179
-0.239622
-0.238061
-0.236561
-0.235165
-0.233885
-0.232701
-0.231553
-0.230337
-0.228933
-0.226989
-0.225007
-0.220316
-0.219231
-0.208849
-0.243275
-0.243138
-0.24265
-0.241866
-0.240842
-0.239654
-0.238384
-0.237109
-0.235887
-0.234755
-0.233725
-0.232783
-0.231884
-0.230944
-0.229903
-0.228284
-0.227234
-0.222108
-0.223608
-0.211279
-0.24089
-0.24087
-0.240538
-0.239951
-0.239159
-0.238226
-0.237224
-0.236218
-0.235258
-0.234375
-0.233579
-0.232858
-0.232176
-0.231465
-0.230707
-0.229327
-0.229051
-0.223435
-0.227451
-0.212855
-0.238649
-0.238742
-0.238553
-0.238146
-0.237565
-0.236866
-0.23611
-0.235352
-0.234635
-0.233985
-0.233406
-0.232889
-0.2324
-0.231888
-0.231345
-0.230178
-0.23042
-0.224574
-0.23048
-0.213856
-0.236517
-0.236726
-0.23667
-0.236427
-0.236038
-0.23555
-0.235017
-0.234486
-0.233991
-0.233553
-0.233174
-0.232843
-0.232528
-0.232189
-0.23181
-0.230866
-0.231337
-0.225709
-0.232434
-0.214765
-0.234467
-0.2348
-0.23487
-0.234777
-0.234562
-0.234264
-0.23393
-0.233601
-0.233306
-0.233058
-0.232859
-0.232694
-0.232535
-0.232347
-0.232096
-0.231379
-0.231849
-0.226846
-0.233316
-0.215956
-0.232485
-0.232949
-0.233142
-0.233186
-0.233127
-0.232998
-0.23284
-0.232689
-0.232569
-0.232489
-0.232448
-0.232429
-0.232406
-0.232347
-0.232202
-0.231692
-0.23204
-0.227863
-0.233378
-0.217472
-0.230564
-0.231171
-0.231482
-0.231652
-0.231733
-0.231751
-0.231747
-0.23175
-0.231781
-0.231846
-0.231939
-0.232045
-0.232137
-0.232185
-0.232131
-0.231783
-0.231993
-0.228624
-0.232943
-0.219098
-0.22871
-0.229466
-0.229893
-0.230179
-0.230383
-0.230531
-0.230657
-0.230792
-0.23095
-0.231136
-0.231342
-0.231552
-0.231738
-0.231872
-0.231893
-0.231649
-0.231786
-0.229038
-0.232275
-0.220582
-0.226935
-0.227846
-0.228383
-0.228775
-0.229088
-0.229347
-0.229585
-0.229829
-0.230093
-0.230378
-0.230676
-0.230969
-0.231231
-0.23143
-0.231504
-0.23131
-0.231462
-0.229097
-0.231566
-0.221775
-0.225257
-0.226324
-0.226967
-0.227454
-0.227864
-0.228217
-0.228547
-0.228881
-0.229231
-0.229596
-0.229967
-0.230325
-0.230644
-0.23089
-0.231007
-0.230925
-0.230857
-0.229028
-0.230849
-0.222626
-0.223703
-0.224921
-0.225662
-0.226235
-0.226727
-0.22716
-0.227567
-0.227973
-0.228391
-0.228818
-0.229245
-0.229652
-0.230013
-0.230293
-0.23044
-0.230412
-0.230202
-0.228991
-0.229641
-0.223663
-0.222299
-0.22366
-0.224489
-0.225137
-0.225699
-0.226197
-0.226666
-0.22713
-0.2276
-0.228076
-0.228545
-0.228988
-0.229378
-0.22968
-0.229848
-0.22984
-0.229585
-0.228751
-0.228613
-0.224555
-0.221072
-0.222562
-0.223469
-0.22418
-0.224801
-0.225352
-0.225868
-0.226377
-0.226888
-0.227399
-0.227898
-0.228367
-0.228777
-0.229093
-0.229275
-0.229276
-0.229019
-0.228382
-0.227846
-0.220052
-0.22165
-0.222623
-0.223386
-0.224052
-0.224644
-0.225198
-0.225739
-0.22628
-0.226816
-0.227337
-0.227823
-0.228246
-0.228572
-0.228761
-0.228767
-0.228525
-0.227988
-0.227292
-0.219261
-0.220946
-0.221969
-0.22277
-0.223471
-0.224094
-0.224674
-0.225239
-0.225799
-0.226353
-0.226889
-0.227385
-0.227816
-0.228147
-0.22834
-0.228351
-0.228125
-0.227641
-0.226906
-0.21872
-0.220464
-0.221521
-0.22235
-0.223073
-0.223715
-0.224313
-0.224893
-0.225466
-0.22603
-0.226574
-0.227077
-0.227512
-0.227845
-0.22804
-0.228054
-0.227841
-0.227384
-0.226658
-0.218443
-0.220217
-0.221292
-0.222133
-0.222869
-0.22352
-0.224126
-0.224713
-0.225292
-0.225861
-0.226409
-0.226914
-0.22735
-0.227684
-0.227879
-0.227894
-0.227687
-0.227243
-0.22653
0.135686
0.138788
0.146198
0.152854
0.161445
0.167189
0.172715
0.172819
0.171934
0.162314
0.136902
0.140074
0.147732
0.154697
0.163842
0.170399
0.177142
0.178818
0.180217
0.173073
0.138107
0.141287
0.149202
0.15645
0.166175
0.173491
0.181436
0.184534
0.187967
0.183206
0.139264
0.142461
0.150643
0.158168
0.168457
0.176497
0.185585
0.19007
0.195344
0.192956
0.140372
0.143581
0.152029
0.159814
0.170644
0.179375
0.189537
0.195386
0.202334
0.202271
0.141431
0.144658
0.153359
0.161388
0.172734
0.182128
0.193288
0.200469
0.208943
0.211124
0.142436
0.145646
0.154635
0.162888
0.174721
0.184749
0.196825
0.2053
0.215174
0.219493
0.143386
0.146588
0.155817
0.164305
0.176594
0.187232
0.200143
0.209858
0.221021
0.227356
0.144281
0.147479
0.157013
0.165647
0.178349
0.189569
0.203233
0.214125
0.226475
0.234689
0.145116
0.148286
0.157938
0.1669
0.179979
0.191751
0.206092
0.218086
0.231524
0.241472
0.145887
0.149042
0.158983
0.168054
0.181476
0.193771
0.208713
0.221725
0.236156
0.247686
0.146591
0.14973
0.15984
0.1691
0.182837
0.195619
0.211093
0.225031
0.240359
0.253313
0.147226
0.150347
0.160642
0.170047
0.184057
0.197286
0.213227
0.227992
0.24412
0.25834
0.147787
0.150893
0.161341
0.170883
0.185133
0.198765
0.215109
0.2306
0.24743
0.262753
0.148274
0.151365
0.161948
0.171609
0.186061
0.200048
0.216735
0.232848
0.25028
0.266543
0.148682
0.151761
0.162457
0.17222
0.18684
0.201128
0.218099
0.23473
0.252662
0.269703
0.149012
0.15208
0.162866
0.172714
0.187466
0.201999
0.219198
0.236242
0.254573
0.272232
0.14926
0.15232
0.163175
0.173086
0.187938
0.202658
0.220026
0.237379
0.256008
0.274127
0.149427
0.152481
0.163381
0.173336
0.188253
0.203099
0.220581
0.238139
0.256965
0.275389
0.14951
0.152562
0.163484
0.173462
0.188411
0.20332
0.22086
0.23852
0.257445
0.27602
0.0294517
0.0281265
0.0259475
0.0233639
0.0206531
0.0180096
0.0155263
0.0132588
0.0112188
0.00940793
0.0295802
0.0282519
0.0260639
0.0234709
0.0207494
0.018096
0.0156026
0.0133261
0.0112774
0.00945851
0.02983
0.0284948
0.0262905
0.0236791
0.0209374
0.0182644
0.0157516
0.0134572
0.0113916
0.00955828
0.0301943
0.0288492
0.0266219
0.0239836
0.0212124
0.0185107
0.0159695
0.0136489
0.0115591
0.00970472
0.0306673
0.0293095
0.0270527
0.0243798
0.0215705
0.0188314
0.0162533
0.0138987
0.0117773
0.00989557
0.0312434
0.0298707
0.0275783
0.0248636
0.0220079
0.0192233
0.0166002
0.0142041
0.0120441
0.0101289
0.0319177
0.030528
0.0281945
0.0254312
0.0225215
0.0196837
0.0170079
0.014563
0.0123578
0.0104033
0.0326857
0.0312773
0.0288975
0.0260793
0.0231085
0.0202103
0.0174744
0.0149739
0.0127168
0.0107171
0.033543
0.0321145
0.0296837
0.0268051
0.0237664
0.0208009
0.0179979
0.0154351
0.0131197
0.0110695
0.0344856
0.0330363
0.0305499
0.0276058
0.024493
0.0214539
0.018577
0.0159454
0.0135656
0.0114593
0.0355099
0.034039
0.0314933
0.028479
0.0252864
0.0221678
0.0192103
0.0165038
0.0140535
0.0118857
0.036612
0.0351197
0.0325109
0.0294226
0.0261449
0.0229411
0.019897
0.0171094
0.0145828
0.0123483
0.0377888
0.0362753
0.0336002
0.0304344
0.027067
0.0237728
0.020636
0.0177617
0.0151528
0.0128466
0.0390369
0.037503
0.0347588
0.0315128
0.0280513
0.024662
0.0214268
0.01846
0.0157633
0.0133802
0.040353
0.0388
0.0359843
0.0326561
0.0290968
0.025608
0.0222688
0.0192042
0.0164139
0.013949
0.0417341
0.0401635
0.0372744
0.0338627
0.0302025
0.0266102
0.0231618
0.0199941
0.0171047
0.014553
0.0431772
0.0415911
0.0386271
0.0351312
0.0313674
0.027668
0.0241054
0.0208295
0.0178358
0.0151924
0.0446792
0.0430801
0.0400401
0.0364604
0.0325909
0.0287813
0.0250998
0.0217108
0.0186072
0.0158673
0.0462372
0.0446279
0.0415115
0.0378491
0.0338723
0.0299498
0.0261448
0.0226381
0.0194194
0.0165782
0.0478483
0.0462319
0.0430392
0.0392961
0.035211
0.0311734
0.0272407
0.0236118
0.0202729
0.0173255
0.0495096
0.0478895
0.0446212
0.0408003
0.0366066
0.032452
0.0283878
0.0246325
0.0211683
0.01811
0.0512181
0.0495981
0.0462555
0.042361
0.0380587
0.0337859
0.0295866
0.0257008
0.0221062
0.0189323
0.052971
0.051355
0.0479402
0.0439769
0.0395668
0.0351751
0.0308375
0.0268176
0.0230877
0.0197933
0.0547652
0.0531574
0.0496734
0.0456474
0.0411307
0.0366199
0.0321413
0.0279837
0.0241136
0.0206942
0.056598
0.0550026
0.0514531
0.0473715
0.04275
0.0381206
0.0334986
0.0292002
0.0251852
0.0216359
0.0584662
0.0568877
0.0532774
0.0491482
0.0444243
0.0396777
0.0349105
0.0304682
0.0263035
0.0226198
0.0603671
0.0588098
0.0551445
0.0509766
0.0461535
0.0412917
0.0363778
0.0317892
0.0274701
0.0236472
0.0622975
0.0607659
0.0570525
0.0528559
0.0479372
0.042963
0.0379016
0.0331643
0.0286864
0.0247196
0.0642545
0.0627531
0.0589995
0.0547849
0.049775
0.0446922
0.0394831
0.0345953
0.029954
0.0258387
0.0662351
0.0647683
0.0609836
0.0567627
0.0516667
0.0464801
0.0411235
0.0360836
0.0312748
0.0270063
0.0682362
0.0668083
0.0630031
0.0587879
0.0536119
0.0483273
0.0428242
0.037631
0.0326504
0.0282243
0.0702549
0.0688702
0.0650559
0.0608593
0.0556102
0.0502346
0.0445865
0.0392393
0.0340831
0.0294948
0.072288
0.0709507
0.0671403
0.0629755
0.0576612
0.0522028
0.0464119
0.0409104
0.0355749
0.0308199
0.0743325
0.0730467
0.0692544
0.0651351
0.0597647
0.0542326
0.0483018
0.0426465
0.0371281
0.0322021
0.0763854
0.0751552
0.0713961
0.0673362
0.0619201
0.0563249
0.0502578
0.0444495
0.038745
0.0336438
0.0784437
0.077273
0.0735635
0.0695773
0.064127
0.0584803
0.0522814
0.0463217
0.0404284
0.0351476
0.0805042
0.0793971
0.0757545
0.0718562
0.0663849
0.0606995
0.0543741
0.0482654
0.0421809
0.0367165
0.0825641
0.0815245
0.077967
0.074171
0.0686934
0.0629833
0.0565376
0.050283
0.0440053
0.0383534
0.0846203
0.0836521
0.0801989
0.0765195
0.0710518
0.065332
0.0587732
0.0523769
0.0459045
0.0400614
0.0866699
0.0857771
0.0824479
0.0788993
0.0734595
0.0677462
0.0610826
0.0545498
0.0478818
0.0418439
0.0887101
0.0878966
0.0847115
0.0813081
0.0759158
0.0702259
0.0634672
0.0568041
0.0499403
0.0437042
0.090738
0.0900078
0.0869875
0.0837432
0.07842
0.0727715
0.0659286
0.0591426
0.0520833
0.045646
0.092751
0.0921082
0.0892733
0.0862021
0.080971
0.0753826
0.068468
0.0615681
0.0543144
0.0476731
0.0947462
0.094195
0.0915662
0.088682
0.0835679
0.0780591
0.071087
0.0640831
0.0566371
0.0497893
0.0967212
0.0962657
0.0938636
0.0911801
0.0862095
0.0808003
0.0737868
0.0666906
0.0590549
0.0519988
0.0986735
0.098318
0.0961627
0.0936935
0.0888943
0.0836056
0.0765687
0.0693932
0.0615717
0.0543057
0.100601
0.10035
0.0984607
0.0962192
0.0916208
0.0864738
0.0794338
0.0721936
0.0641911
0.0567145
0.102501
0.102358
0.100755
0.0987543
0.0943872
0.0894037
0.0823831
0.0750946
0.066917
0.0592297
0.104371
0.104341
0.103042
0.101296
0.0971915
0.0923938
0.0854176
0.0780986
0.0697532
0.0618559
0.10621
0.106298
0.105318
0.103841
0.100031
0.0954421
0.0885381
0.0812082
0.0727034
0.064598
0.108016
0.108225
0.107582
0.106386
0.102905
0.0985465
0.0917452
0.0844256
0.0757716
0.0674612
0.109786
0.110121
0.10983
0.108928
0.105808
0.101705
0.0950393
0.087753
0.0789614
0.0704504
0.11152
0.111985
0.112059
0.111464
0.108739
0.104914
0.0984207
0.091192
0.0822767
0.0735713
0.113216
0.113814
0.114266
0.113991
0.111693
0.108171
0.101889
0.0947443
0.0857211
0.0768293
0.114872
0.115608
0.116448
0.116505
0.114669
0.111473
0.105445
0.0984111
0.0892984
0.0802303
0.116488
0.117365
0.118603
0.119005
0.11766
0.114816
0.109087
0.102193
0.0930123
0.0837803
0.118062
0.119083
0.120727
0.121486
0.120664
0.118196
0.112815
0.106091
0.0968667
0.0874856
0.119594
0.120762
0.122817
0.123946
0.123675
0.121609
0.116628
0.110103
0.100866
0.0913525
0.121083
0.1224
0.124872
0.126381
0.12669
0.125052
0.120523
0.114231
0.105014
0.0953875
0.122528
0.123997
0.126889
0.128789
0.129703
0.12852
0.124498
0.118471
0.109316
0.0995972
0.123929
0.125551
0.128865
0.131167
0.132708
0.132007
0.128551
0.122823
0.113777
0.103988
0.125285
0.127061
0.130799
0.133513
0.135702
0.13551
0.132678
0.127283
0.118405
0.108566
0.126597
0.128528
0.132688
0.135822
0.138678
0.139022
0.136874
0.13185
0.123207
0.113334
0.127864
0.129951
0.134531
0.138093
0.14163
0.14254
0.141134
0.13652
0.128194
0.118297
0.129086
0.131328
0.136326
0.140322
0.144554
0.146058
0.145452
0.141289
0.133382
0.123466
0.130264
0.132661
0.138071
0.142509
0.147443
0.149572
0.149823
0.146157
0.138785
0.128855
0.131398
0.133948
0.139768
0.144652
0.150297
0.15308
0.154239
0.15112
0.144406
0.134426
0.132487
0.13519
0.141414
0.146749
0.153106
0.156569
0.158675
0.156157
0.150231
0.14
0.133532
0.136382
0.142997
0.148776
0.155834
0.159992
0.163068
0.161222
0.156326
0.145456
0.134537
0.137515
0.144501
0.150697
0.158449
0.163315
0.167449
0.166421
0.163151
0.151803
0.00820584
0.00751285
0.00681179
0.00610553
0.00539487
0.00467979
0.00396032
0.0032368
0.00250974
0.00177966
0.00104705
0.000312362
-0.000423987
-0.00116156
-0.00189994
-0.00263868
-0.00337735
-0.00411547
-0.00485256
-0.00558823
0.0082522
0.00755827
0.00685591
0.00614883
0.00543766
0.00472196
0.00400153
0.00327663
0.0025478
0.00181557
0.00108044
0.000342849
-0.000396754
-0.00113793
-0.00188021
-0.00262317
-0.00336635
-0.00410938
-0.00485191
-0.00559361
0.00834449
0.00764687
0.0069393
0.00622712
0.00551115
0.00479061
0.004065
0.00333453
0.00259978
0.00186138
0.00111985
0.000375663
-0.000370733
-0.00111887
-0.00186829
-0.0026185
-0.00336903
-0.00411936
-0.00486897
-0.00561734
0.00847905
0.00777437
0.00705767
0.0063367
0.00561266
0.00488427
0.00415063
0.00341181
0.00266847
0.0019213
0.00117086
0.000417646
-0.000337897
-0.00109529
-0.00185405
-0.00261367
-0.00337366
-0.00413351
-0.00489277
-0.00565103
0.00865385
0.00793897
0.0072096
0.00647658
0.00574154
0.00500254
0.0042581
0.00350818
0.00275347
0.00199478
0.00123273
0.000467808
-0.000299538
-0.00106883
-0.00183956
-0.00261122
-0.00338329
-0.00415526
-0.00492662
-0.00569692
0.00886725
0.00813919
0.00739371
0.00664545
0.00589653
0.0051442
0.00438628
0.00362253
0.00285378
0.00208095
0.0013047
0.000525543
-0.000256089
-0.00103971
-0.00182481
-0.00261086
-0.00339732
-0.00418365
-0.00496935
-0.00575399
0.00911777
0.00837362
0.00760873
0.00684215
0.00607662
0.00530834
0.00453435
0.00375421
0.00296886
0.00217936
0.00138646
0.000590646
-0.000207659
-0.00100797
-0.00180976
-0.00261249
-0.00341561
-0.00421858
-0.00502087
-0.00582207
0.00940417
0.00864111
0.00785356
0.00706573
0.00628094
0.00549422
0.00470167
0.00390263
0.00309819
0.0022896
0.00147764
0.000662803
-0.000154506
-0.000973809
-0.00179457
-0.00261624
-0.00343825
-0.00426005
-0.00508111
-0.00590104
0.00972537
0.00894063
0.00812731
0.00731537
0.00650878
0.00570119
0.00488765
0.00406727
0.00324132
0.00241124
0.00157788
0.000741715
-9.68753e-05
-0.000937422
-0.00177938
-0.00262219
-0.00346527
-0.00430807
-0.00515004
-0.00599083
0.0100805
0.00927138
0.00842921
0.00759039
0.00675953
0.0059287
0.00509179
0.00424767
0.00339784
0.00254394
0.00168688
0.000827114
-3.49993e-05
-0.000899005
-0.00176435
-0.00263047
-0.00349677
-0.0043627
-0.0052277
-0.00609146
0.0104689
0.00963267
0.00875864
0.00789021
0.00703267
0.0061763
0.00531368
0.00444346
0.0035674
0.00268736
0.00180434
0.000918744
3.08956e-05
-0.000858759
-0.00174967
-0.00264124
-0.00353289
-0.00442405
-0.00531418
-0.006203
0.0108899
0.010024
0.00911507
0.00821439
0.00732781
0.00644361
0.00555297
0.00465432
0.0037497
0.00284125
0.00193001
0.00101637
0.000100592
-0.000816886
-0.0017355
-0.00265466
-0.00357378
-0.00449228
-0.00540962
-0.00632558
0.0113432
0.0104449
0.00949814
0.00856255
0.00764462
0.00673035
0.00580939
0.00487996
0.00394448
0.00300535
0.00206367
0.00111977
0.000173881
-0.000773583
-0.00172206
-0.00267093
-0.00361962
-0.00456755
-0.00551418
-0.00645934
0.0118286
0.0108952
0.00990757
0.00893446
0.00798287
0.00703629
0.00608272
0.0051202
0.00415154
0.00317946
0.00220511
0.00122876
0.00025057
-0.000729047
-0.00170952
-0.00269024
-0.00367061
-0.00465007
-0.00562806
-0.0066045
0.0123458
0.0113746
0.0103432
0.00932995
0.00834242
0.00736129
0.00637281
0.00537486
0.00437072
0.00336342
0.00235417
0.00134315
0.000330474
-0.000683467
-0.0016981
-0.00271279
-0.00372697
-0.00474004
-0.00575149
-0.0067613
0.012895
0.0118833
0.010805
0.00974896
0.00872321
0.0077053
0.00667959
0.00564385
0.0046019
0.0035571
0.0025107
0.00146279
0.000413424
-0.000637028
-0.00168798
-0.0027388
-0.00378891
-0.00483773
-0.00588472
-0.00693001
0.0134761
0.0124212
0.0112929
0.0101915
0.00912525
0.00806831
0.00700303
0.00592712
0.004845
0.0037604
0.00267458
0.00158755
0.000499263
-0.000589908
-0.00167937
-0.00276849
-0.00385668
-0.00494338
-0.00602805
-0.00711092
0.0140896
0.0129886
0.0118072
0.0106577
0.00954864
0.00845039
0.00734317
0.00622468
0.0051
0.00397326
0.00284574
0.0017173
0.000587846
-0.000542279
-0.00167247
-0.00280208
-0.00393053
-0.00505727
-0.00618176
-0.00730436
0.0147357
0.0135859
0.0123481
0.0111478
0.00999357
0.00885169
0.0077001
0.00653656
0.00536691
0.00419567
0.00302411
0.00185196
0.000679045
-0.000494305
-0.00166747
-0.00283981
-0.00401073
-0.0051797
-0.00634618
-0.00751069
0.015415
0.0142133
0.0129159
0.0116621
0.0104603
0.00927242
0.00807399
0.00686288
0.00564578
0.00442762
0.00320966
0.00199145
0.000772742
-0.000446144
-0.00166457
-0.0028819
-0.00409754
-0.00531097
-0.00652165
-0.00773028
0.0161281
0.0148716
0.013511
0.0122009
0.0109491
0.00971286
0.00846504
0.00720379
0.0059367
0.00466917
0.00340238
0.00213572
0.000868833
-0.000397949
-0.00166398
-0.00292861
-0.00419127
-0.00545142
-0.00670854
-0.00796355
0.0168757
0.0155612
0.0141341
0.0127647
0.0114605
0.0101734
0.00887354
0.00755949
0.00623983
0.0049204
0.0036023
0.00228472
0.000967228
-0.000349864
-0.00166588
-0.00298018
-0.00429219
-0.0056014
-0.00690724
-0.00821092
0.0176588
0.0162832
0.0147858
0.013354
0.0119949
0.0106543
0.0092998
0.00793023
0.00655533
0.00518142
0.00380946
0.00243845
0.00106785
-0.00030203
-0.00167048
-0.00303687
-0.00440063