/*--------------------------------*- C++ -*----------------------------------*\
  =========                 |
  \\      /  F ield         | OpenFOAM: The Open Source CFD Toolbox
   \\    /   O peration     | Website:  https://openfoam.org
    \\  /    A nd           | Version:  7
     \\/     M anipulation  |
\*---------------------------------------------------------------------------*/
FoamFile
{
    version     2.0;
    format      ascii;
    class       surfaceScalarField;
    location    "3";
    object      phi;
}
// * * * * * * * * * * * * * * * * * * * * * * * * * * * * * * * * * * * * * //

dimensions      [0 3 -1 0 0 0 0];

internalField   nonuniform List<scalar> 
615
(
0.000241158
-6.31726e-06
0.000240761
6.5688e-06
0.000241475
-7.28118e-06
0.000240759
6.7759e-06
0.000241476
-6.73196e-06
0.000241018
5.90232e-06
0.000241306
-5.9997e-06
0.000241345
5.69663e-06
0.000241205
-6.32159e-06
0.00024143
6.38226e-06
0.000241517
-6.98793e-06
0.000240961
7.07976e-06
0.00024228
-7.65333e-06
0.000240331
8.00609e-06
0.000242715
-8.52451e-06
0.000240399
8.49252e-06
0.000242351
-7.88763e-06
0.000240928
6.49986e-06
0.000242005
-4.74947e-06
0.000241046
2.92435e-06
0.000241955
-1.5836e-06
0.000241391
4.14547e-07
0.000241162
2.02015e-07
0.000242796
-1.02131e-06
0.000239989
9.67162e-07
0.000243862
-5.33984e-07
0.000240105
-1.4814e-06
0.000243243
4.17994e-06
0.00024137
-7.27724e-06
0.000241875
9.84015e-06
0.000242403
-1.12655e-05
0.000240979
1.17768e-05
0.0002426
-1.17296e-05
0.000241136
1.14242e-05
0.000241858
-1.11573e-05
0.000241971
1.0663e-05
0.000241331
-1.03107e-05
0.000241837
1.03598e-05
0.000242199
-1.11341e-05
0.00024078
1.2666e-05
0.000243252
-1.39757e-05
0.000240331
1.48848e-05
0.00024352
-1.40179e-05
0.000240491
1.29478e-05
0.000243226
-1.05099e-05
0.000241144
9.04178e-06
0.000242464
-6.85217e-06
0.000242209
5.43971e-06
-3.43932e-06
0.000262903
-1.8899e-06
0.000263577
1.90384e-06
0.000263013
-4.35428e-06
0.000263749
4.41792e-06
0.000263264
-6.12861e-06
0.000263687
5.22977e-06
0.000263728
-5.76064e-06
0.000263453
4.08575e-06
0.000264217
-4.18675e-06
0.000263355
2.68951e-06
0.000264382
-3.13592e-06
0.00026366
2.16785e-06
0.000264138
-2.8943e-06
0.000264225
2.17171e-06
0.000263838
-2.98901e-06
0.000264627
2.63616e-06
0.000263851
-3.87502e-06
0.00026467
4.19636e-06
0.000264153
-5.79964e-06
0.000264529
6.19285e-06
0.000264486
-7.23856e-06
0.000264435
6.82684e-06
0.000264678
-6.9746e-06
0.000264506
6.07416e-06
0.000264677
-6.17098e-06
0.000264748
5.62548e-06
0.000264577
-6.15073e-06
0.000264963
5.99684e-06
0.000264658
-6.68351e-06
0.000264928
6.81032e-06
0.000265026
-7.75162e-06
0.000264837
8.19535e-06
0.000265419
-9.10686e-06
0.000264996
8.91611e-06
0.000265694
-8.58644e-06
0.000265215
6.97898e-06
0.000265967
-5.50118e-06
0.000265335
3.5564e-06
0.000266056
-2.30465e-06
0.000265692
7.78449e-07
0.000265729
1.65354e-07
0.000266224
-1.51649e-06
0.000265477
1.71409e-06
0.00026638
-1.43725e-06
0.000265678
-7.78913e-07
0.000266239
3.6186e-06
0.000265822
-6.85986e-06
0.000266232
9.42946e-06
0.000265678
-1.07113e-05
0.000266151
1.13035e-05
0.000265556
-1.11345e-05
0.000265999
1.09817e-05
0.000265389
-1.05473e-05
0.000265981
1.00712e-05
0.00026526
-9.58987e-06
0.000265919
9.70028e-06
0.000265333
-1.05478e-05
0.000265997
1.20017e-05
0.000265576
-1.35543e-05
0.000266069
1.43915e-05
0.000266543
-1.44915e-05
0.000265811
1.36802e-05
0.000267483
-1.21819e-05
0.000266411
1.01137e-05
0.000267122
-7.5636e-06
0.000267834
4.72794e-06
-2.24798e-06
0.000286242
-1.62385e-06
0.000287107
1.03863e-06
0.000286123
-3.36977e-06
0.000287544
2.99671e-06
0.00028633
-4.91455e-06
0.000287487
4.07227e-06
0.000286968
-5.24094e-06
0.000287103
3.95011e-06
0.000287629
-4.71231e-06
0.000286949
3.36941e-06
0.000287838
-4.02505e-06
0.000287282
2.72377e-06
0.000287661
-3.27261e-06
0.00028779
2.04217e-06
0.00028752
-2.71892e-06
0.00028814
2.01647e-06
0.00028755
-3.28518e-06
0.000288387
3.35945e-06
0.000287614
-5.02719e-06
0.000288588
5.21906e-06
0.000287777
-6.42702e-06
0.000288579
6.02442e-06
0.000288115
-6.51078e-06
0.000288467
5.7223e-06
0.000288322
-6.02618e-06
0.000288658
5.2895e-06
0.000288142
-5.63452e-06
0.00028917
4.969e-06
0.000287851
-5.36453e-06
0.000289627
5.03455e-06
0.000287792
-5.9174e-06
0.000289866
6.12222e-06
0.000288007
-7.2483e-06
0.000289882
7.04134e-06
0.000288521
-7.22609e-06
0.000289587
5.9131e-06
0.000289313
-5.22687e-06
0.000289096
3.77306e-06
0.000290095
-3.30343e-06
0.000288665
2.20857e-06
0.000290612
-1.78173e-06
0.000288446
6.49301e-07
0.000290669
-5.08302e-07
0.000288685
5.46615e-07
0.000290128
-2.2222e-06
0.000289557
4.18976e-06
0.000289444
-6.74676e-06
0.000290447
8.42648e-06
0.000289349
-9.61391e-06
0.000290714
9.93858e-06
0.000289686
-1.01059e-05
0.00029074
9.92733e-06
0.000289764
-9.57136e-06
0.000291017
8.81821e-06
0.000289497
-8.06968e-06
0.000291639
7.55829e-06
0.000288975
-7.88356e-06
0.000292507
8.46938e-06
0.000288725
-9.77224e-06
0.000292625
1.04914e-05
0.000289628
-1.14948e-05
0.000291895
1.14138e-05
0.000290849
-1.11361e-05
0.00029159
9.37296e-06
0.000291529
-7.5026e-06
0.000291482
4.77476e-06
-2.9971e-06
0.000309771
-1.68234e-06
0.000310223
5.86809e-07
0.000309713
-2.85975e-06
0.000310713
1.99684e-06
0.000309828
-4.02957e-06
0.000310903
2.99761e-06
0.000310204
-4.54269e-06
0.000310904
3.25039e-06
0.000310568
-4.37649e-06
0.000311029
2.9089e-06
0.000310741
-3.73689e-06
0.000311267
2.19789e-06
0.000310919
-2.92457e-06
0.000311378
1.58249e-06
0.000311219
-2.55957e-06
0.000311467
1.7682e-06
0.000311356
-3.17419e-06
0.000311856
2.85985e-06
0.000311216
-4.38717e-06
0.000312375
4.05976e-06
0.000311218
-5.27039e-06
0.000312556
4.68692e-06
0.000311564
-5.51902e-06
0.000312527
4.75971e-06
0.000311821
-5.32017e-06
0.000312755
4.35501e-06
0.000311776
-4.65515e-06
0.000313154
3.59096e-06
0.000311725
-3.93575e-06
0.000313475
3.28464e-06
0.000311676
-4.11876e-06
0.000313836
3.96271e-06
0.000311549
-4.9612e-06
0.000313993
4.59686e-06
0.000311827
-5.05955e-06
0.000313513
4.22696e-06
0.00031261
-4.32353e-06
0.000312883
3.49983e-06
0.000313207
-3.62758e-06
0.00031266
2.75503e-06
0.000313523
-2.64444e-06
0.000312611
1.56101e-06
0.000313691
-1.58801e-06
0.000312972
1.26551e-06
0.000313236
-2.48601e-06
0.000314042
3.38431e-06
0.000312733
-5.43846e-06
0.000314774
6.38572e-06
0.000313162
-8.00194e-06
0.000314927
8.17352e-06
0.000313663
-8.84236e-06
0.000315441
8.14942e-06
0.000313754
-7.8837e-06
0.000315862
6.70955e-06
0.000314136
-6.34362e-06
0.000316064
5.63084e-06
0.000314224
-6.04363e-06
0.000316823
5.87039e-06
0.000313845
-6.79424e-06
0.000317501
6.83533e-06
0.000313806
-7.80016e-06
0.000317596
7.62461e-06
0.000314206
-7.74654e-06
0.000317077
6.50203e-06
0.000315211
-5.63699e-06
0.000316208
3.77809e-06
-3.05312e-06
0.000333221
-1.73151e-06
0.000333495
3.13316e-07
0.000333314
-2.67878e-06
0.000333918
1.39218e-06
0.00033337
-3.48135e-06
0.000334284
2.08402e-06
0.0003335
-3.75931e-06
0.000334557
2.19363e-06
0.000333679
-3.49823e-06
0.00033476
1.82761e-06
0.0003339
-2.87625e-06
0.000334856
1.24192e-06
0.000334199
-2.26791e-06
0.000334879
9.0196e-07
0.000334471
-2.1513e-06
0.000335025
1.21479e-06
0.000334543
-2.69253e-06
0.000335362
2.04113e-06
0.000334508
-3.5331e-06
0.000335674
2.89335e-06
0.000334605
-4.20166e-06
0.000335828
3.4638e-06
0.000334785
-4.47603e-06
0.000335981
3.56447e-06
0.000334879
-4.21828e-06
0.000336159
3.07456e-06
0.000335026
-3.52241e-06
0.000336184
0.000335304
0.000336203
0.000335382
0.000336483
0.000335247
0.000336718
0.000335356
0.000336639
0.000335604
0.000336666
0.000335598
0.000336848
0.000335729
0.000336751
0.000336098
0.000336805
0.00033598
0.000337409
0.000335596
0.000337851
0.000335603
0.000338037
0.000335698
0.000338203
0.000335983
0.00033796
0.000336566
0.000337767
0.000336749
0.000338054
0.000336652
0.000338475
0.000336464
0.000339035
0.000336228
0.000339275
0.000336447
0.000338988
0.000356839
0.000357326
0.000356929
0.000357739
0.00035703
0.000358061
0.000357216
0.000358268
0.000357477
0.000358387
0.000357766
0.000358466
0.000358013
0.000358604
0.000358146
0.00035885
0.000358183
0.000359113
0.000358231
0.000359307
0.000358326
0.000359484
0.000358399
0.000359666
0.000358483
0.000359761
)
;

boundaryField
{
    inlet
    {
        type            calculated;
        value           nonuniform 0();
    }
    outlet
    {
        type            calculated;
        value           nonuniform 0();
    }
    wall
    {
        type            calculated;
        value           nonuniform 0();
    }
    wedge1
    {
        type            wedge;
        value           nonuniform List<scalar> 
344
(
-4.18807e-16
1.54162e-16
1.86302e-17
1.40734e-16
1.73797e-17
4.57767e-16
-1.23056e-16
-4.10222e-18
-4.07213e-17
9.21799e-19
-9.59323e-16
3.45975e-16
3.2818e-17
2.23261e-16
2.5026e-17
9.98659e-16
-3.28367e-16
-2.55161e-17
-1.33661e-16
-8.38054e-18
-1.31718e-15
4.92404e-16
4.94224e-17
2.95039e-16
3.1327e-17
1.14067e-15
-4.19262e-16
-3.83594e-17
-1.9321e-16
-1.43229e-17
-1.17043e-15
4.87805e-16
5.71859e-17
3.18851e-16
3.34376e-17
8.15194e-16
-3.68676e-16
-4.44818e-17
-2.01829e-16
-1.571e-17
-7.52723e-16
4.01862e-16
5.70332e-17
2.9365e-16
3.08248e-17
4.40431e-16
-2.87608e-16
-4.0519e-17
-1.70575e-16
-1.30436e-17
-5.02667e-16
3.35962e-16
4.98818e-17
2.37811e-16
2.48903e-17
3.38035e-16
-2.3568e-16
-3.2853e-17
-1.2076e-16
-8.47438e-18
-5.18039e-16
2.88169e-16
3.93838e-17
1.86704e-16
1.91269e-17
4.31124e-16
-1.8896e-16
-2.1781e-17
-9.35889e-17
-5.50522e-18
-6.38343e-16
2.45751e-16
3.17606e-17
1.81725e-16
1.60507e-17
6.10162e-16
-1.87794e-16
-2.08836e-17
-1.24624e-16
-6.93141e-18
-8.6361e-16
3.0082e-16
3.84379e-17
2.35298e-16
2.06942e-17
9.41703e-16
-3.19874e-16
-3.51172e-17
-1.98956e-16
-1.38762e-17
6.74524e-16
-1.22631e-15
4.7699e-16
5.61368e-17
3.06265e-16
2.78971e-17
-6.92184e-16
1.31327e-15
-5.17349e-16
-5.32522e-17
-2.68007e-16
-2.22727e-17
7.52046e-16
-1.46557e-15
6.21089e-16
6.90613e-17
3.53749e-16
3.46326e-17
-6.91473e-16
1.40211e-15
-5.98191e-16
-6.31023e-17
-3.08656e-16
-2.84443e-17
6.86136e-16
-1.37651e-15
6.1084e-16
7.1491e-17
3.71436e-16
3.72268e-17
-5.98011e-16
1.22751e-15
-5.44724e-16
-6.41831e-17
-3.17993e-16
-2.9379e-17
6.20094e-16
-1.20739e-15
5.43517e-16
6.89031e-17
3.55056e-16
3.3694e-17
-5.97247e-16
1.14461e-15
-4.99499e-16
-6.01218e-17
-2.84907e-16
-2.39213e-17
6.72064e-16
-1.22576e-15
5.29266e-16
6.35574e-17
3.04006e-16
2.66216e-17
-6.85301e-16
1.25473e-15
-5.1264e-16
-5.10791e-17
-2.34138e-16
7.37355e-16
-1.37264e-15
5.52919e-16
4.9902e-17
2.66346e-16
-7.26816e-16
1.4556e-15
-5.67083e-16
-4.49941e-17
-2.2689e-16
7.6746e-16
-1.61195e-15
6.27567e-16
5.18115e-17
2.85303e-16
-7.59974e-16
1.74366e-15
-6.88894e-16
-5.61136e-17
-2.6316e-16
8.33262e-16
-1.87668e-15
7.4346e-16
6.51466e-17
3.18075e-16
-7.84696e-16
1.86399e-15
-7.69917e-16
-6.79057e-17
-2.79281e-16
7.76271e-16
-1.74422e-15
7.1176e-16
6.84506e-17
3.10762e-16
-5.91141e-16
1.44132e-15
-6.14576e-16
-6.11956e-17
-2.55885e-16
4.44688e-16
-1.10755e-15
4.59668e-16
5.71813e-17
2.73906e-16
-2.24391e-16
7.32642e-16
-3.17013e-16
-4.86021e-17
-2.11478e-16
1.15131e-16
-4.44351e-16
1.98115e-16
4.99749e-17
2.16022e-16
-1.7507e-17
1.33455e-16
-9.18672e-17
-3.97322e-17
-1.37908e-16
1.70097e-17
1.25825e-16
2.2544e-17
3.98687e-17
1.34844e-16
-9.6026e-19
-4.22205e-16
6.16193e-17
-2.17207e-17
-6.47347e-17
5.08587e-17
5.35789e-16
-6.41885e-17
2.23578e-17
9.38486e-17
-1.26799e-16
-4.81131e-16
1.93917e-17
-1.17773e-17
-8.09107e-17
3.0819e-16
3.07976e-17
1.7122e-16
3.21289e-17
1.69061e-16
-5.70087e-16
5.60911e-16
-3.92342e-16
-3.90077e-17
-2.16991e-16
8.27073e-16
-1.31909e-15
6.62145e-16
7.37618e-17
3.40521e-16
-1.08564e-15
1.86796e-15
-8.27276e-16
-8.40243e-17
-4.05537e-16
1.17447e-15
-2.24625e-15
9.18388e-16
1.06211e-16
5.08276e-16
-1.23057e-15
2.39259e-15
-9.44487e-16
-1.07091e-16
-5.32511e-16
1.20554e-15
-2.35409e-15
9.1064e-16
1.15797e-16
5.60163e-16
-1.18948e-15
2.31875e-15
-9.38986e-16
-1.07827e-16
-5.24051e-16
1.19827e-15
-2.11948e-15
8.91199e-16
1.01704e-16
4.98409e-16
-1.1624e-15
2.04828e-15
-9.07103e-16
-8.39183e-17
-4.6084e-16
1.13486e-15
-1.88812e-15
8.22745e-16
7.2998e-17
4.55773e-16
-1.11284e-15
2.03757e-15
-8.43049e-16
-6.20274e-17
-4.41667e-16
1.14562e-15
-2.22019e-15
8.297e-16
6.61282e-17
4.60446e-16
-1.26168e-15
2.67487e-15
-9.69559e-16
-6.86587e-17
-4.37144e-16
1.40868e-15
-2.91726e-15
1.02157e-15
8.28342e-17
4.72037e-16
-1.43807e-15
3.16499e-15
-1.19842e-15
-8.87844e-17
-4.52248e-16
1.42591e-15
-2.96527e-15
1.15884e-15
1.03136e-16
4.94552e-16
-1.20195e-15
2.81658e-15
-1.23781e-15
-1.07193e-16
-4.50021e-16
1.0216e-15
-2.36758e-15
1.04282e-15
1.11698e-16
4.26534e-16
-7.97505e-16
2.04537e-15
-9.28986e-16
-1.00561e-16
-3.1715e-16
6.62945e-16
-1.55696e-15
6.03918e-16
9.01189e-17
2.49787e-16
-5.50031e-16
1.10046e-15
-3.76635e-16
-6.40884e-17
-1.28403e-16
4.46492e-16
-5.13377e-16
1.34679e-16
5.34775e-17
1.14241e-16
)
;
    }
    wedge2
    {
        type            wedge;
        value           nonuniform List<scalar> 
344
(
-4.22833e-16
1.50017e-16
1.81248e-17
1.38401e-16
1.76624e-17
4.55695e-16
-1.24612e-16
-9.41082e-18
-4.25748e-17
1.04702e-19
-9.6246e-16
3.41194e-16
3.37938e-17
2.21297e-16
2.6421e-17
9.98384e-16
-3.29382e-16
-2.51545e-17
-1.35861e-16
-9.36273e-18
-1.32065e-15
4.87466e-16
4.93026e-17
2.93724e-16
3.32641e-17
1.14034e-15
-4.19739e-16
-4.04641e-17
-1.95485e-16
-1.54655e-17
-1.17284e-15
4.83451e-16
5.71879e-17
3.17705e-16
3.53981e-17
8.14821e-16
-3.68897e-16
-4.4075e-17
-2.03904e-16
-1.66123e-17
-7.54552e-16
3.98075e-16
5.58193e-17
2.9264e-16
3.29018e-17
4.39492e-16
-2.87589e-16
-4.34608e-17
-1.72334e-16
-1.37222e-17
-5.04381e-16
3.32476e-16
4.87581e-17
2.36878e-16
2.71268e-17
3.36832e-16
-2.35637e-16
-3.23387e-17
-1.21999e-16
-8.48886e-18
-5.19597e-16
2.84839e-16
3.64807e-17
1.85903e-16
2.11099e-17
4.29529e-16
-1.89201e-16
-2.42839e-17
-9.51554e-17
-5.12193e-18
-6.39923e-16
2.45587e-16
2.89958e-17
1.8251e-16
2.10433e-17
6.07927e-16
-1.89214e-16
-2.41286e-17
-1.27588e-16
-8.19194e-18
-8.65935e-16
2.96607e-16
3.53745e-17
2.34687e-16
2.37026e-17
9.39929e-16
-3.208e-16
-3.80996e-17
-2.02466e-16
-1.57191e-17
6.76849e-16
-1.22927e-15
4.72741e-16
5.20537e-17
3.06161e-16
3.14123e-17
-6.97502e-16
1.3116e-15
-5.17979e-16
-5.57712e-17
-2.7146e-16
-2.45235e-17
7.55393e-16
-1.46849e-15
6.15922e-16
6.43492e-17
3.53914e-16
3.8496e-17
-6.97018e-16
1.40021e-15
-5.9938e-16
-6.41732e-17
-3.12553e-16
-3.09129e-17
6.89972e-16
-1.37953e-15
6.05677e-16
6.66131e-17
3.71516e-16
4.11162e-17
-6.04416e-16
1.22522e-15
-5.46129e-16
-6.43808e-17
-3.21515e-16
-3.12784e-17
6.23307e-16
-1.21095e-15
5.38642e-16
6.37866e-17
3.55243e-16
3.70858e-17
-6.0272e-16
1.14236e-15
-5.0074e-16
-5.94556e-17
-2.88174e-16
-2.53683e-17
6.74594e-16
-1.23243e-15
5.24166e-16
5.46148e-17
3.03657e-16
2.90668e-17
-6.85722e-16
1.25383e-15
-5.14013e-16
-4.82885e-17
-2.37293e-16
7.34169e-16
-1.37666e-15
5.47446e-16
4.61542e-17
2.65705e-16
-7.26698e-16
1.45505e-15
-5.68099e-16
-4.29108e-17
-2.29953e-16
7.62626e-16
-1.61581e-15
6.22161e-16
4.544e-17
2.84876e-16
-7.58327e-16
1.74329e-15
-6.8943e-16
-5.30086e-17
-2.66359e-16
8.28165e-16
-1.88065e-15
7.37875e-16
6.04139e-17
3.18693e-16
-7.84954e-16
1.86373e-15
-7.70049e-16
-6.59738e-17
-2.82321e-16
7.71312e-16
-1.74808e-15
7.06783e-16
6.3552e-17
3.11215e-16
-5.9134e-16
1.44101e-15
-6.1558e-16
-6.17236e-17
-2.58659e-16
4.40697e-16
-1.11136e-15
4.55389e-16
5.36242e-17
2.74177e-16
-2.25616e-16
7.3189e-16
-3.18682e-16
-5.18995e-17
-2.1398e-16
1.12063e-16
-4.47641e-16
1.94569e-16
4.762e-17
2.16945e-16
-1.83567e-17
1.32218e-16
-9.34643e-17
-4.59112e-17
-1.40547e-16
1.35949e-17
1.22332e-16
1.92842e-17
3.84391e-17
1.3499e-16
-1.50729e-18
-4.23613e-16
5.96287e-17
-3.01618e-17
-6.64833e-17
4.68505e-17
5.31811e-16
-6.77586e-17
2.19694e-17
9.33729e-17
-1.27212e-16
-4.82236e-16
1.78621e-17
-2.33339e-17
-8.29867e-17
3.02802e-16
2.57729e-17
1.66476e-16
3.19354e-17
1.683e-16
-5.6962e-16
5.59437e-16
-3.92448e-16
-5.40794e-17
-2.19519e-16
8.22712e-16
-1.32321e-15
6.564e-16
7.27449e-17
3.41058e-16
-1.08348e-15
1.86782e-15
-8.26232e-16
-9.42732e-17
-4.08662e-16
1.1702e-15
-2.25035e-15
9.11702e-16
1.04444e-16
5.10339e-16
-1.22865e-15
2.39217e-15
-9.43233e-16
-1.18351e-16
-5.36453e-16
1.20191e-15
-2.35746e-15
9.04072e-16
1.13676e-16
5.61527e-16
-1.18832e-15
2.31791e-15
-9.37764e-16
-1.19484e-16
-5.28289e-16
1.19479e-15
-2.12353e-15
8.84696e-16
9.88033e-17
4.98605e-16
-1.16118e-15
2.0483e-15
-9.05648e-16
-9.59369e-17
-4.64209e-16
1.13173e-15
-1.89157e-15
8.17039e-16
7.01439e-17
4.55731e-16
-1.11171e-15
2.03717e-15
-8.41802e-16
-7.37855e-17
-4.44691e-16
1.1425e-15
-2.22371e-15
8.23997e-16
6.3002e-17
4.60658e-16
-1.26117e-15
2.67444e-15
-9.68159e-16
-7.96954e-17
-4.40983e-16
1.40481e-15
-2.92108e-15
1.01499e-15
7.76941e-17
4.72272e-16
-1.43821e-15
3.16396e-15
-1.19612e-15
-9.91989e-17
-4.56702e-16
1.42177e-15
-2.96952e-15
1.1517e-15
9.65684e-17
4.9532e-16
-1.20323e-15
2.8145e-15
-1.23594e-15
-1.17002e-16
-4.54386e-16
1.01829e-15
-2.37111e-15
1.03682e-15
1.03795e-16
4.27001e-16
-7.98922e-16
2.04333e-15
-9.28051e-16
-1.09458e-16
-3.20476e-16
6.60096e-16
-1.56036e-15
6.00248e-16
8.15359e-17
2.49437e-16
-5.52295e-16
1.09754e-15
-3.76977e-16
-7.24417e-17
-1.30641e-16
4.43495e-16
-5.16643e-16
1.31454e-16
4.40592e-17
1.13095e-16
)
;
    }
    axis
    {
        type            empty;
        value           nonuniform 0();
    }
    procBoundary13to7
    {
        type            processor;
        value           nonuniform List<scalar> 
68
(
6.18516e-06
-6.17164e-06
6.56761e-06
-6.06041e-06
6.01539e-06
-5.44453e-06
5.71192e-06
-5.7357e-06
6.46175e-06
-6.6073e-06
6.90114e-06
-6.52427e-06
6.33407e-06
-6.05624e-06
6.14003e-06
-6.1765e-06
5.93541e-06
-5.07618e-06
3.67221e-06
-1.96519e-06
6.73776e-07
1.49459e-07
2.76694e-08
-6.13036e-07
1.84009e-06
-3.33942e-06
5.23838e-06
-7.31766e-06
9.15073e-06
-1.03459e-05
1.07373e-05
-1.0352e-05
1.01085e-05
-9.95998e-06
1.04351e-05
-1.07763e-05
1.09503e-05
-1.08658e-05
1.07722e-05
-1.12464e-05
1.15031e-05
-1.19638e-05
1.08293e-05
-9.9189e-06
7.77455e-06
-6.95964e-06
5.53218e-06
-5.18484e-06
3.96376e-06
2.26787e-06
-2.57737e-06
4.91802e-06
-5.15383e-06
6.61351e-06
-5.65293e-06
5.72019e-06
-3.81083e-06
3.42217e-06
-1.82738e-06
2.10925e-06
-1.44638e-06
2.41677e-06
-2.25898e-06
3.37623e-06
-3.42498e-06
4.65126e-06
-0.000241026
-5.01591e-06
)
;
    }
    procBoundary13to12
    {
        type            processor;
        value           nonuniform List<scalar> 4(-0.000263281 -0.000286508 -0.000309713 -0.000333172);
    }
    procBoundary13to14
    {
        type            processor;
        value           nonuniform List<scalar> 5(0.000241685 0.000266643 0.000292231 0.000316264 0.000337066);
    }
    procBoundary13to18
    {
        type            processor;
        value           uniform -0.000356935;
    }
    procBoundary13to19
    {
        type            processor;
        value           nonuniform List<scalar> 
68
(
2.43371e-06
-3.05599e-06
2.38582e-06
-3.29801e-06
2.86196e-06
-3.72506e-06
3.12588e-06
-3.69792e-06
2.94356e-06
-3.28784e-06
2.43757e-06
-2.55974e-06
1.50501e-06
-1.52555e-06
5.39355e-07
-9.35067e-07
5.58027e-07
-1.66064e-06
1.95583e-06
-3.62574e-06
4.13057e-06
-5.7544e-06
5.73994e-06
-6.50308e-06
5.64432e-06
-5.66358e-06
4.73216e-06
-4.94941e-06
4.42926e-06
-5.02523e-06
4.56576e-06
-5.39263e-06
5.01255e-06
-5.78893e-06
5.05321e-06
-4.93941e-06
3.45481e-06
-2.80872e-06
1.23705e-06
-1.1314e-06
-1.63473e-06
-1.73875e-07
-2.28204e-06
5.81862e-07
-2.77151e-06
1.05272e-06
-2.91438e-06
1.14136e-06
-2.70702e-06
9.17693e-07
-2.25487e-06
5.41474e-07
-1.81453e-06
3.10839e-07
-1.69367e-06
5.11005e-07
-2.02518e-06
1.11117e-06
-2.65168e-06
1.81791e-06
-3.22062e-06
2.30566e-06
-3.39152e-06
2.29803e-06
-3.03615e-06
1.79655e-06
0.000358657
-2.41751e-06
)
;
    }
}


// ************************************************************************* //
