/*--------------------------------*- C++ -*----------------------------------*\
  =========                 |
  \\      /  F ield         | OpenFOAM: The Open Source CFD Toolbox
   \\    /   O peration     | Website:  https://openfoam.org
    \\  /    A nd           | Version:  7
     \\/     M anipulation  |
\*---------------------------------------------------------------------------*/
FoamFile
{
    version     2.0;
    format      ascii;
    class       volScalarField;
    location    "2.9";
    object      T;
}
// * * * * * * * * * * * * * * * * * * * * * * * * * * * * * * * * * * * * * //

dimensions      [0 0 0 1 0 0 0];

internalField   nonuniform List<scalar> 
12096
(
1.35318
1.35498
1.35689
1.3599
1.36364
1.36581
1.36595
1.36514
1.36279
1.35892
1.35374
1.34746
1.34058
1.3346
1.32974
1.32492
1.32038
1.31655
1.31316
1.30919
1.30425
1.29872
1.29174
1.28408
1.2779
1.27368
1.27098
1.26917
1.26677
1.26341
1.25999
1.25651
1.25388
1.25182
1.24965
1.24765
1.2462
1.24538
1.24531
1.24562
1.24729
1.25184
1.25957
1.26958
1.28062
1.29172
1.30333
1.31858
1.33719
1.38211
1.47855
1.62775
1.73271
1.80065
1.83881
1.83979
1.83791
1.83643
1.83147
1.82516
1.8224
1.82108
1.81997
1.81524
1.80612
1.79543
1.78404
1.77165
1.75947
1.75081
1.7444
1.7358
1.72435
1.71105
1.69636
1.67978
1.66088
1.64144
1.62354
1.60697
1.59261
1.58264
1.5793
1.58093
1.58279
1.57878
1.57065
1.56159
1.54877
1.53317
1.52413
1.5211
1.51957
1.51973
1.52415
1.53315
1.53637
1.53524
1.5325
1.52723
1.5173
1.51006
1.50927
1.50935
1.50984
1.51352
1.52153
1.52772
1.52834
1.52718
1.52531
1.52335
1.52235
1.52184
1.52169
1.52194
1.52322
1.52319
1.52231
1.52084
1.51828
1.51296
1.50487
1.49847
1.49644
1.49582
1.4957
1.49718
1.50263
1.50726
1.50761
1.50655
1.50517
1.50376
1.50203
1.49952
1.49635
1.49343
1.49199
1.49185
1.49224
1.49314
1.49431
1.4954
1.49627
1.49755
1.49844
1.49837
1.49794
1.49739
1.49759
1.50012
1.50536
1.50824
1.50817
1.50713
1.5055
1.50183
1.49255
1.48083
1.47695
1.4769
1.47762
1.47859
1.47977
1.4811
1.48205
1.48241
1.48254
1.48278
1.48318
1.48318
1.48239
1.48148
1.48049
1.47954
1.47884
1.47863
1.47864
1.47893
1.4798
1.48193
1.48597
1.4912
1.49531
1.49608
1.49596
1.49553
1.4936
1.48737
1.47592
1.46823
1.46707
1.46689
1.46692
1.468
1.46936
1.46938
1.46903
1.46783
1.46561
1.46326
1.4607
1.45838
1.45707
1.45676
1.4569
1.45873
1.46531
1.47875
1.48797
1.48913
1.48877
1.48849
1.48823
1.4867
1.48074
1.46829
1.4586
1.45656
1.45621
1.45627
1.45595
1.45494
1.4542
1.4543
1.45665
1.46389
1.4731
1.4771
1.47839
1.47953
1.48023
1.48004
1.47715
1.46444
1.44376
1.43437
1.43181
1.42977
1.42865
1.42898
1.43166
1.44213
1.47646
1.54386
1.62427
1.69324
1.75948
1.82011
1.83592
1.83947
1.36617
1.36657
1.36694
1.36797
1.37029
1.37321
1.37408
1.37337
1.37024
1.36527
1.35978
1.3536
1.34636
1.33869
1.3326
1.32766
1.32285
1.31835
1.31444
1.31094
1.30718
1.30265
1.2974
1.29126
1.2852
1.27992
1.27563
1.2721
1.26907
1.2661
1.26315
1.26017
1.25768
1.25596
1.2544
1.25348
1.25353
1.25428
1.25611
1.25873
1.26204
1.26803
1.27876
1.2917
1.30458
1.31712
1.33032
1.34385
1.3576
1.37421
1.39935
1.45903
1.57725
1.70634
1.7945
1.82308
1.83983
1.8396
1.83088
1.82361
1.82082
1.82115
1.82125
1.81662
1.80646
1.79586
1.78592
1.77652
1.7702
1.76582
1.75964
1.74985
1.7397
1.72904
1.71658
1.70277
1.69004
1.67687
1.66011
1.63936
1.61919
1.60269
1.59289
1.59174
1.59396
1.59157
1.58173
1.5715
1.55946
1.54312
1.52883
1.52277
1.5203
1.51929
1.5206
1.52801
1.53624
1.53691
1.53524
1.53184
1.52524
1.51551
1.511
1.51071
1.51074
1.51164
1.51593
1.52314
1.52677
1.52632
1.52461
1.52224
1.52064
1.5199
1.51941
1.51921
1.52
1.52159
1.52136
1.52049
1.5185
1.51471
1.50823
1.50094
1.49811
1.49786
1.49831
1.50107
1.50459
1.50634
1.50639
1.50512
1.50358
1.50196
1.49873
1.49314
1.48918
1.48831
1.48831
1.48882
1.49055
1.49187
1.49293
1.49416
1.49523
1.4964
1.49747
1.49752
1.4973
1.49689
1.4972
1.49995
1.50465
1.50651
1.50613
1.50459
1.5029
1.49927
1.48942
1.47707
1.4737
1.47408
1.4754
1.47681
1.47843
1.48026
1.4819
1.48277
1.4831
1.483
1.48224
1.48099
1.47964
1.47838
1.47738
1.4768
1.47664
1.47674
1.47711
1.47767
1.47892
1.48196
1.48748
1.49286
1.49398
1.49403
1.494
1.49349
1.49106
1.48479
1.4751
1.46675
1.46386
1.46336
1.46309
1.46315
1.46387
1.46397
1.46358
1.46308
1.46263
1.46188
1.46067
1.45917
1.4581
1.45775
1.45826
1.46169
1.47042
1.47971
1.48448
1.48624
1.4864
1.48606
1.48463
1.47887
1.4664
1.45714
1.45516
1.45484
1.45512
1.45573
1.45597
1.45614
1.45706
1.46016
1.46709
1.47402
1.47554
1.47531
1.47526
1.4755
1.47534
1.47295
1.463
1.44505
1.43573
1.43353
1.43295
1.43463
1.4414
1.45797
1.4947
1.55666
1.63527
1.70484
1.75848
1.8032
1.83833
1.84697
1.84633
1.83792
1.37635
1.37532
1.37414
1.37357
1.3739
1.37609
1.37823
1.37815
1.37551
1.37009
1.36416
1.35826
1.35152
1.34369
1.33581
1.33001
1.32522
1.32049
1.31597
1.31193
1.30837
1.30496
1.30122
1.29699
1.29239
1.28735
1.28171
1.27619
1.272
1.26922
1.26683
1.26465
1.2626
1.2612
1.26095
1.26119
1.2625
1.26577
1.27108
1.2771
1.28251
1.28981
1.30226
1.31649
1.32968
1.34243
1.35588
1.3698
1.38347
1.39377
1.40509
1.41539
1.44037
1.50479
1.62676
1.75588
1.82233
1.81527
1.81311
1.81181
1.81093
1.81358
1.81442
1.8096
1.80129
1.79438
1.78828
1.78223
1.77668
1.76976
1.76037
1.75037
1.73986
1.73075
1.72271
1.71625
1.71217
1.7062
1.69165
1.66928
1.64745
1.6284
1.61376
1.60662
1.60658
1.60594
1.5966
1.58388
1.57192
1.55637
1.53807
1.52634
1.52182
1.51968
1.51948
1.52325
1.53347
1.53918
1.53853
1.53629
1.53224
1.52449
1.51554
1.51261
1.51205
1.51182
1.51269
1.51679
1.52249
1.52404
1.52275
1.52013
1.51815
1.51729
1.51677
1.51659
1.51774
1.52088
1.52175
1.52107
1.51986
1.5176
1.5131
1.50617
1.50152
1.5011
1.50159
1.50211
1.50341
1.50482
1.50471
1.50315
1.50134
1.49891
1.49383
1.48751
1.48528
1.48522
1.48535
1.48608
1.48795
1.49056
1.49254
1.49382
1.49497
1.4959
1.4968
1.49708
1.49694
1.49676
1.49737
1.50019
1.50313
1.50384
1.50297
1.50095
1.49931
1.49627
1.48753
1.47568
1.47202
1.4724
1.47389
1.47547
1.4776
1.48053
1.48242
1.48257
1.48222
1.48144
1.48003
1.478
1.47615
1.47498
1.47432
1.47418
1.47438
1.47506
1.47598
1.47728
1.47974
1.4843
1.48906
1.49094
1.49139
1.49154
1.4915
1.49047
1.48696
1.48114
1.47467
1.46786
1.4622
1.45958
1.45861
1.45813
1.45788
1.45781
1.4587
1.45974
1.46007
1.46037
1.46031
1.45994
1.45967
1.46017
1.46301
1.46899
1.47491
1.47738
1.47911
1.48106
1.48204
1.48136
1.47715
1.46657
1.45693
1.45444
1.45404
1.45405
1.45438
1.45504
1.45602
1.45784
1.46196
1.46955
1.47607
1.47713
1.47653
1.47476
1.47303
1.47139
1.46773
1.45824
1.44241
1.43536
1.43655
1.44391
1.46259
1.49612
1.54979
1.61332
1.67445
1.72316
1.76117
1.7968
1.82452
1.83536
1.84404
1.84309
1.8367
1.82658
1.38364
1.38127
1.37865
1.3765
1.37585
1.37672
1.37955
1.38064
1.3792
1.37404
1.36765
1.36185
1.35587
1.34864
1.34025
1.33255
1.32727
1.32268
1.318
1.3134
1.30924
1.30587
1.3036
1.30195
1.29963
1.29517
1.28942
1.28313
1.27727
1.27345
1.27152
1.2703
1.26925
1.26873
1.26893
1.27032
1.27403
1.2807
1.28996
1.29979
1.30789
1.31639
1.32909
1.34275
1.3547
1.36552
1.37712
1.38942
1.40075
1.40913
1.41421
1.41774
1.41947
1.42489
1.45606
1.54763
1.6704
1.74343
1.80721
1.8061
1.80326
1.80424
1.80139
1.79581
1.79278
1.79114
1.78875
1.78397
1.77584
1.76592
1.75474
1.74381
1.73544
1.72922
1.7258
1.72459
1.72345
1.71994
1.70854
1.69165
1.67408
1.65648
1.63988
1.627
1.62118
1.61999
1.61442
1.60017
1.58607
1.57095
1.55172
1.5341
1.52567
1.52218
1.52112
1.52225
1.52974
1.54049
1.54289
1.54139
1.53816
1.53268
1.52317
1.51524
1.51322
1.51236
1.51183
1.51236
1.51533
1.51926
1.51973
1.51831
1.51645
1.51528
1.51463
1.51438
1.51541
1.5194
1.52271
1.52295
1.52247
1.52121
1.51848
1.51299
1.50593
1.50301
1.50198
1.50173
1.50211
1.50256
1.50218
1.50022
1.49771
1.4945
1.49064
1.4871
1.4842
1.48326
1.48333
1.48385
1.48526
1.48832
1.49227
1.49431
1.49513
1.49585
1.49665
1.49702
1.49703
1.49724
1.49847
1.50014
1.50089
1.50086
1.49925
1.49671
1.49488
1.49241
1.48653
1.47679
1.47174
1.47181
1.47313
1.47476
1.47651
1.47882
1.48083
1.48084
1.4803
1.47937
1.47765
1.47504
1.47296
1.47206
1.47169
1.47173
1.47239
1.47389
1.47595
1.47896
1.48325
1.48621
1.48727
1.48788
1.4883
1.48839
1.48786
1.48566
1.48218
1.47886
1.47516
1.46976
1.46235
1.45644
1.45424
1.45331
1.4527
1.45264
1.45354
1.45575
1.45781
1.45917
1.46008
1.46113
1.46284
1.46591
1.47043
1.47401
1.47505
1.47513
1.47497
1.4748
1.47401
1.47057
1.46354
1.45786
1.45588
1.45484
1.4543
1.45413
1.45423
1.4549
1.45693
1.46206
1.47101
1.47801
1.47917
1.47872
1.47727
1.47443
1.47041
1.46539
1.45401
1.43859
1.43927
1.45497
1.48878
1.54446
1.60707
1.66955
1.71796
1.74986
1.77552
1.7983
1.81923
1.83226
1.8366
1.83483
1.82794
1.81871
1.8124
1.8082
1.38839
1.38496
1.38124
1.37794
1.37623
1.37634
1.37905
1.38206
1.38176
1.37767
1.37111
1.36519
1.35967
1.35339
1.34556
1.3367
1.32955
1.3247
1.32009
1.31536
1.31089
1.30742
1.30609
1.30628
1.30634
1.30387
1.29863
1.29274
1.28624
1.2806
1.278
1.27773
1.27779
1.27812
1.27931
1.28267
1.28936
1.29955
1.31219
1.32493
1.33521
1.34442
1.35598
1.3675
1.377
1.38497
1.39305
1.40168
1.40973
1.41565
1.41814
1.41871
1.41852
1.41824
1.41406
1.42146
1.46835
1.57172
1.69609
1.74888
1.78185
1.79738
1.79374
1.78848
1.78783
1.78838
1.78758
1.77988
1.76685
1.75382
1.74324
1.73547
1.73063
1.72763
1.72571
1.72443
1.72321
1.72019
1.71486
1.70716
1.69505
1.67956
1.6629
1.64724
1.63665
1.63345
1.63138
1.61987
1.60231
1.58659
1.56843
1.5473
1.53251
1.52667
1.52412
1.52389
1.52753
1.53882
1.54664
1.54636
1.54316
1.53852
1.53087
1.52035
1.51434
1.51232
1.51087
1.50985
1.50995
1.51212
1.51597
1.51698
1.51616
1.51505
1.5143
1.51394
1.51461
1.51849
1.52437
1.52709
1.52727
1.52637
1.52417
1.51933
1.5106
1.50353
1.50173
1.50095
1.50002
1.49894
1.49802
1.49627
1.49405
1.49212
1.49026
1.4878
1.4852
1.48313
1.48251
1.48258
1.48322
1.48521
1.48903
1.4927
1.49432
1.49548
1.49634
1.49682
1.49753
1.49884
1.4997
1.49928
1.49841
1.49724
1.49489
1.49202
1.49002
1.48815
1.48498
1.47891
1.47251
1.47106
1.47178
1.4732
1.47455
1.47631
1.47837
1.47905
1.47862
1.47774
1.4762
1.47373
1.47138
1.47034
1.47001
1.47007
1.47104
1.4739
1.47865
1.4827
1.48401
1.48436
1.48464
1.48474
1.48451
1.48374
1.48234
1.48081
1.47976
1.47847
1.47621
1.47159
1.46285
1.45354
1.44972
1.44852
1.44792
1.44783
1.44869
1.45142
1.45526
1.45841
1.46102
1.46449
1.46917
1.47329
1.47473
1.47458
1.4737
1.47247
1.47056
1.46703
1.46134
1.45575
1.45408
1.45468
1.45555
1.45556
1.45518
1.4548
1.45485
1.45624
1.46137
1.47155
1.4793
1.48036
1.48029
1.47973
1.47763
1.47535
1.4647
1.4498
1.45117
1.47486
1.52268
1.58942
1.64928
1.71008
1.73991
1.75971
1.77944
1.8006
1.82093
1.83053
1.83302
1.83423
1.83171
1.82053
1.80739
1.80053
1.79731
1.79481
1.39129
1.3872
1.3828
1.37879
1.37619
1.37575
1.37801
1.38298
1.38385
1.38098
1.37461
1.3686
1.36324
1.35769
1.35102
1.34245
1.33352
1.32711
1.32264
1.31838
1.31429
1.31125
1.3101
1.31046
1.31194
1.31173
1.30904
1.30458
1.29916
1.29254
1.28809
1.28743
1.28785
1.28969
1.29343
1.29965
1.30903
1.32155
1.33597
1.34971
1.36047
1.36967
1.37918
1.38777
1.39442
1.39957
1.40442
1.40879
1.41273
1.41669
1.41836
1.41857
1.41794
1.41608
1.41278
1.40606
1.39932
1.41792
1.48886
1.60463
1.71352
1.74984
1.75746
1.76609
1.77371
1.77882
1.77803
1.76943
1.75711
1.74474
1.7335
1.72534
1.72202
1.72079
1.7195
1.71761
1.71638
1.71785
1.7188
1.71633
1.70719
1.69335
1.67842
1.66353
1.65109
1.64519
1.644
1.63815
1.62074
1.60294
1.5855
1.56438
1.54412
1.53399
1.52973
1.52781
1.52869
1.53619
1.54778
1.55043
1.54796
1.54298
1.53658
1.52663
1.51665
1.51238
1.51047
1.50889
1.50782
1.50821
1.51134
1.51587
1.5169
1.51618
1.51527
1.51486
1.51537
1.5188
1.52654
1.53173
1.53188
1.53089
1.52907
1.52454
1.51489
1.50469
1.50041
1.49844
1.49656
1.49496
1.49397
1.49378
1.49364
1.49278
1.49148
1.48984
1.48747
1.48463
1.48307
1.48292
1.48315
1.48408
1.48629
1.48998
1.49354
1.49548
1.49645
1.49752
1.49926
1.50013
1.49944
1.49772
1.49543
1.49333
1.49081
1.48789
1.48604
1.48504
1.48377
1.48053
1.47405
1.47017
1.47025
1.47134
1.47255
1.47378
1.47563
1.47735
1.47745
1.47675
1.47549
1.47333
1.47088
1.46956
1.46912
1.46917
1.47094
1.47654
1.48104
1.48186
1.48187
1.48182
1.48141
1.48027
1.47901
1.47838
1.47831
1.47879
1.47877
1.47843
1.4772
1.47317
1.46372
1.45154
1.44545
1.44431
1.4439
1.44383
1.4449
1.44847
1.45376
1.45964
1.46609
1.47237
1.4759
1.47652
1.4763
1.47463
1.47151
1.46743
1.46151
1.45384
1.44862
1.44764
1.44848
1.4519
1.4553
1.4561
1.45605
1.45612
1.45727
1.46186
1.47168
1.47896
1.48002
1.47995
1.48009
1.48076
1.4797
1.47677
1.48858
1.51772
1.57182
1.62913
1.68451
1.7338
1.74814
1.75823
1.77263
1.79128
1.812
1.82785
1.83099
1.83136
1.83098
1.82786
1.81912
1.80766
1.79778
1.79044
1.7867
1.78568
1.39316
1.38876
1.38404
1.37971
1.37663
1.37575
1.37738
1.38312
1.38561
1.3839
1.37832
1.37235
1.36713
1.36205
1.35642
1.34918
1.34
1.33159
1.32649
1.32282
1.3194
1.31683
1.31582
1.31612
1.31812
1.31911
1.31853
1.31682
1.31413
1.3091
1.30284
1.30042
1.301
1.30466
1.31156
1.3208
1.33213
1.34535
1.35948
1.37197
1.38122
1.38933
1.39617
1.40216
1.40686
1.4094
1.41174
1.41329
1.41426
1.41527
1.41618
1.41656
1.41653
1.41492
1.41107
1.40524
1.40061
1.38881
1.39068
1.42578
1.51034
1.61692
1.699
1.76128
1.75831
1.75883
1.75794
1.75161
1.74249
1.73171
1.7209
1.71148
1.70692
1.70644
1.70577
1.70543
1.70804
1.71595
1.71888
1.71636
1.70928
1.69859
1.686
1.67373
1.66203
1.6539
1.65159
1.64993
1.63854
1.6195
1.60207
1.58271
1.56075
1.54462
1.53719
1.53308
1.53174
1.53447
1.54492
1.5523
1.5516
1.54685
1.54016
1.53089
1.51937
1.5127
1.51045
1.50907
1.50805
1.50775
1.50922
1.51363
1.51742
1.51815
1.51764
1.51699
1.51728
1.5199
1.52597
1.53174
1.53271
1.53234
1.53106
1.52725
1.51794
1.50507
1.49828
1.49608
1.49463
1.49339
1.49299
1.49378
1.49473
1.4944
1.49338
1.49242
1.49081
1.48787
1.48479
1.48372
1.4837
1.48384
1.48455
1.48683
1.49117
1.49585
1.49838
1.50029
1.50074
1.50009
1.49855
1.49587
1.49269
1.49004
1.48766
1.48514
1.48383
1.48361
1.48332
1.48154
1.47576
1.46957
1.4686
1.46928
1.47042
1.47133
1.47295
1.47545
1.47636
1.47595
1.47498
1.47344
1.47143
1.47002
1.46959
1.47008
1.47305
1.47663
1.47847
1.47884
1.47855
1.47756
1.47555
1.47412
1.47402
1.47464
1.47679
1.47865
1.479
1.47868
1.47775
1.47443
1.46528
1.45173
1.44416
1.4424
1.44198
1.44189
1.44294
1.44696
1.455
1.46577
1.47351
1.47593
1.4764
1.47656
1.4759
1.47287
1.46634
1.4567
1.44774
1.44377
1.44311
1.44328
1.44467
1.44763
1.4518
1.45514
1.45693
1.4589
1.4635
1.47234
1.47861
1.47904
1.47966
1.482
1.48738
1.50566
1.53989
1.58079
1.63085
1.67835
1.72475
1.73777
1.74459
1.75339
1.76409
1.77789
1.79723
1.81675
1.82787
1.82967
1.82924
1.82656
1.8219
1.81518
1.80865
1.80222
1.79246
1.78397
1.78193
1.78197
1.39454
1.3902
1.38554
1.3812
1.37801
1.37687
1.37774
1.38277
1.38719
1.38679
1.38265
1.37695
1.37194
1.3672
1.36218
1.35625
1.34836
1.33916
1.33247
1.32896
1.32625
1.32438
1.32399
1.32481
1.32727
1.3284
1.32829
1.32805
1.32786
1.3265
1.3219
1.31818
1.31844
1.32308
1.33243
1.34378
1.35594
1.36862
1.38045
1.38929
1.39611
1.40153
1.40556
1.40968
1.4135
1.41452
1.41491
1.41492
1.41475
1.41436
1.41379
1.41338
1.41328
1.41289
1.41025
1.40516
1.40006
1.39421
1.38573
1.37514
1.38231
1.43564
1.53447
1.64419
1.70399
1.74528
1.74449
1.73743
1.72985
1.72168
1.71132
1.69893
1.6898
1.68864
1.68861
1.68948
1.69597
1.70895
1.71285
1.7108
1.70608
1.69815
1.68869
1.67845
1.66749
1.65786
1.65439
1.65471
1.65102
1.63532
1.61719
1.59911
1.57788
1.55741
1.546
1.53981
1.53587
1.53571
1.54135
1.55111
1.55292
1.54945
1.54296
1.53412
1.52213
1.51399
1.51148
1.51019
1.50915
1.50863
1.50922
1.512
1.51632
1.51915
1.51968
1.51962
1.51967
1.52102
1.52555
1.53138
1.53296
1.53255
1.53171
1.52892
1.52008
1.50569
1.49779
1.496
1.49493
1.49392
1.49378
1.49528
1.49721
1.4973
1.49677
1.49591
1.49436
1.49146
1.4879
1.48596
1.48523
1.48502
1.48518
1.48636
1.48945
1.49479
1.49999
1.50116
1.50101
1.49989
1.49764
1.49441
1.4908
1.48779
1.48553
1.48367
1.4828
1.4828
1.48289
1.48165
1.47628
1.4686
1.46625
1.46662
1.46762
1.46848
1.46994
1.47283
1.47529
1.47547
1.4749
1.47384
1.47271
1.4721
1.47218
1.47297
1.47376
1.47385
1.47391
1.47342
1.47211
1.47014
1.46918
1.46938
1.47072
1.47325
1.47621
1.47813
1.4783
1.47813
1.47725
1.47436
1.46692
1.45438
1.44472
1.44187
1.44123
1.44106
1.44218
1.44798
1.46034
1.47068
1.47424
1.47499
1.47532
1.47538
1.47431
1.46846
1.45573
1.44526
1.44232
1.44151
1.44125
1.44137
1.44235
1.44484
1.44879
1.45357
1.45881
1.46606
1.47461
1.47897
1.48137
1.48743
1.5033
1.53744
1.58874
1.64693
1.69103
1.71811
1.73254
1.74825
1.75934
1.76342
1.76596
1.77011
1.78294
1.80315
1.81897
1.82366
1.82347
1.82218
1.81729
1.81142
1.80755
1.80496
1.80272
1.79866
1.79152
1.78351
1.78001
1.78112
1.39669
1.39237
1.38819
1.38422
1.3812
1.37984
1.37996
1.38286
1.38808
1.3894
1.38745
1.38262
1.37779
1.37337
1.36883
1.36379
1.3576
1.34955
1.34151
1.3371
1.33505
1.33402
1.33417
1.3363
1.33923
1.33984
1.34034
1.34143
1.34267
1.34313
1.34219
1.3401
1.34007
1.344
1.35374
1.36572
1.37746
1.38805
1.39592
1.4012
1.4053
1.4081
1.41018
1.41281
1.41601
1.41738
1.41705
1.41639
1.41559
1.41448
1.41289
1.41123
1.41025
1.40984
1.4091
1.40637
1.40201
1.39711
1.39049
1.38154
1.36846
1.369
1.38629
1.45285
1.55858
1.65948
1.68552
1.70298
1.7127
1.70978
1.70219
1.69044
1.67974
1.67405
1.6737
1.67462
1.68104
1.6949
1.69834
1.70103
1.70138
1.69798
1.6903
1.68023
1.66886
1.65886
1.65374
1.65347
1.65376
1.64589
1.62917
1.61226
1.5931
1.57184
1.55553
1.54644
1.54013
1.53757
1.53913
1.54725
1.55246
1.55095
1.54527
1.53742
1.52649
1.51699
1.51386
1.51254
1.5115
1.5109
1.51114
1.51285
1.5159
1.51893
1.5207
1.52133
1.52171
1.52278
1.52617
1.53143
1.53347
1.53309
1.53236
1.53013
1.5227
1.50912
1.49996
1.49808
1.49743
1.49689
1.49704
1.49904
1.50161
1.50207
1.50173
1.50092
1.49956
1.49697
1.49305
1.4902
1.48899
1.48818
1.48776
1.48826
1.49053
1.49472
1.49911
1.50125
1.50132
1.49995
1.49708
1.49333
1.48954
1.48646
1.48426
1.48271
1.48185
1.4818
1.4818
1.48078
1.47597
1.46777
1.46377
1.46383
1.46471
1.46565
1.46704
1.46992
1.47379
1.47551
1.47552
1.4755
1.47573
1.47597
1.47584
1.47468
1.47243
1.47012
1.46771
1.46551
1.46426
1.46417
1.46515
1.46706
1.4696
1.47347
1.47659
1.47688
1.477
1.47693
1.47616
1.47353
1.46751
1.4574
1.44729
1.44291
1.44183
1.44166
1.44354
1.45186
1.46349
1.46912
1.47121
1.47243
1.47309
1.47309
1.47054
1.46004
1.44688
1.44228
1.44101
1.4405
1.44031
1.44042
1.44134
1.4438
1.4481
1.45467
1.46514
1.47611
1.48647
1.50384
1.53614
1.59329
1.66193
1.71903
1.75301
1.76258
1.75838
1.76317
1.76774
1.76807
1.77077
1.77503
1.78086
1.7912
1.80647
1.81656
1.81753
1.81711
1.81513
1.8091
1.80019
1.79744
1.79758
1.79711
1.79526
1.79156
1.78758
1.78588
1.78549
1.79057
1.40077
1.39572
1.39203
1.38874
1.38608
1.38443
1.384
1.38479
1.38836
1.39191
1.39199
1.38931
1.38489
1.3807
1.37667
1.37238
1.36752
1.36142
1.35397
1.34797
1.34589
1.34542
1.34614
1.34937
1.35208
1.35307
1.35449
1.35649
1.35855
1.36048
1.36187
1.36252
1.36318
1.36587
1.37332
1.38398
1.39393
1.40133
1.40577
1.40863
1.41052
1.41154
1.41222
1.41364
1.41616
1.41817
1.41823
1.4172
1.41573
1.41404
1.41214
1.41013
1.40844
1.40758
1.40704
1.4057
1.40285
1.39924
1.39447
1.38757
1.37639
1.36642
1.35879
1.36221
1.38963
1.46505
1.56781
1.65023
1.69051
1.68734
1.6826
1.67743
1.67144
1.66438
1.66187
1.6623
1.66739
1.67811
1.6859
1.68992
1.69178
1.69037
1.68513
1.67676
1.66721
1.65817
1.65092
1.6489
1.6496
1.64758
1.63622
1.62077
1.60429
1.58472
1.56539
1.55303
1.54519
1.53983
1.53882
1.54248
1.54991
1.55085
1.54746
1.54119
1.53229
1.52197
1.51689
1.51546
1.51451
1.51385
1.5138
1.51448
1.51642
1.51906
1.52132
1.52278
1.52378
1.52501
1.52772
1.53254
1.53494
1.53468
1.5343
1.53305
1.52831
1.51747
1.50647
1.50365
1.50348
1.5034
1.50379
1.50618
1.50939
1.5102
1.5099
1.50916
1.50789
1.50538
1.50125
1.49761
1.49592
1.49462
1.49343
1.49329
1.494
1.49604
1.49832
1.50007
1.50062
1.4999
1.49687
1.49279
1.48921
1.48635
1.48422
1.48265
1.48144
1.48101
1.48079
1.47971
1.4754
1.46744
1.46288
1.4626
1.46323
1.46419
1.46563
1.46871
1.47306
1.47662
1.47853
1.47959
1.4799
1.47934
1.47731
1.4738
1.46906
1.46369
1.45962
1.45791
1.45774
1.45916
1.46257
1.46587
1.46948
1.47358
1.47514
1.47509
1.47512
1.47506
1.47431
1.47214
1.46783
1.46043
1.45094
1.44522
1.44411
1.44426
1.44712
1.4543
1.46156
1.46574
1.46779
1.4688
1.46909
1.46798
1.46164
1.45161
1.44568
1.44232
1.44071
1.44025
1.44005
1.44029
1.44198
1.44595
1.4517
1.46069
1.48221
1.52571
1.58292
1.65145
1.71144
1.77179
1.80806
1.81019
1.79922
1.78934
1.78326
1.77876
1.77603
1.77467
1.77555
1.77976
1.79005
1.80446
1.81278
1.81422
1.8138
1.81158
1.80521
1.79544
1.78866
1.7877
1.78753
1.78653
1.78491
1.78433
1.78418
1.78562
1.79171
1.80883
1.40709
1.401
1.39687
1.39409
1.39173
1.39004
1.38921
1.38914
1.39031
1.39375
1.39635
1.39601
1.39313
1.3892
1.38555
1.38189
1.37797
1.37361
1.36823
1.36238
1.35893
1.35851
1.35941
1.36254
1.36493
1.36674
1.36915
1.37182
1.37444
1.37715
1.38005
1.38278
1.38497
1.38723
1.39106
1.39785
1.40499
1.40959
1.4117
1.41267
1.41308
1.41304
1.4128
1.413
1.41462
1.41725
1.41817
1.41745
1.41564
1.41379
1.41201
1.41015
1.40827
1.40699
1.40627
1.40517
1.40316
1.40062
1.3979
1.39296
1.38416
1.37154
1.36135
1.35576
1.34624
1.35163
1.39855
1.48809
1.58021
1.63868
1.67756
1.67541
1.6688
1.65888
1.65213
1.65125
1.65477
1.66402
1.67217
1.67519
1.67666
1.67711
1.6757
1.67091
1.66336
1.65404
1.64488
1.64081
1.64067
1.64133
1.63672
1.62451
1.61072
1.59454
1.57572
1.55966
1.54973
1.54227
1.53834
1.53894
1.54485
1.54913
1.54805
1.54405
1.53787
1.52921
1.52152
1.51869
1.51763
1.5168
1.51648
1.51676
1.51798
1.5202
1.52269
1.52477
1.52641
1.52813
1.53113
1.53626
1.53946
1.5396
1.53978
1.53958
1.53745
1.52996
1.51821
1.51352
1.5136
1.51439
1.51562
1.51809
1.52156
1.52308
1.52292
1.52217
1.52075
1.51832
1.51449
1.5104
1.50761
1.50542
1.50342
1.50163
1.50048
1.5
1.49985
1.49959
1.49938
1.49854
1.49588
1.49246
1.4893
1.48661
1.48474
1.48324
1.4818
1.48091
1.48013
1.47856
1.47462
1.46777
1.46284
1.46222
1.46265
1.46353
1.46501
1.46837
1.47453
1.48063
1.48264
1.48249
1.48144
1.47958
1.47611
1.46962
1.46093
1.45528
1.45356
1.45321
1.45359
1.45616
1.46107
1.46683
1.47061
1.47171
1.47264
1.4732
1.47326
1.47324
1.47278
1.4712
1.46805
1.4631
1.45623
1.44961
1.44776
1.44817
1.45071
1.45503
1.45894
1.46163
1.463
1.46325
1.46232
1.4575
1.45092
1.44789
1.44606
1.44372
1.44143
1.44093
1.4414
1.44334
1.44811
1.45847
1.48481
1.53371
1.60981
1.68624
1.74922
1.79646
1.81252
1.82001
1.81859
1.81551
1.81351
1.80534
1.7931
1.78216
1.77699
1.77696
1.77925
1.78735
1.80093
1.80999
1.81209
1.81164
1.80979
1.80491
1.7958
1.78561
1.77872
1.77392
1.77167
1.7723
1.77568
1.78003
1.78539
1.79657
1.81329
1.82715
1.41429
1.40831
1.40317
1.40001
1.39803
1.39652
1.39552
1.39503
1.39509
1.39649
1.39997
1.40217
1.40155
1.39869
1.39535
1.39219
1.38893
1.38569
1.38251
1.37871
1.3746
1.37286
1.37314
1.375
1.37732
1.38006
1.38317
1.38629
1.38927
1.39221
1.39543
1.3989
1.40186
1.40363
1.40504
1.40767
1.41124
1.41359
1.41412
1.41407
1.41389
1.41331
1.41242
1.41199
1.41271
1.41571
1.41801
1.41766
1.41586
1.41393
1.41212
1.41031
1.40857
1.40723
1.4065
1.40554
1.40403
1.40213
1.39981
1.39682
1.39035
1.37902
1.36588
1.35739
1.34896
1.33989
1.33347
1.34652
1.40671
1.4984
1.59299
1.6348
1.66267
1.66199
1.6545
1.65182
1.65177
1.65477
1.65854
1.66041
1.66117
1.66175
1.66125
1.65826
1.65286
1.64594
1.6399
1.63405
1.6315
1.63197
1.6316
1.62441
1.61258
1.59976
1.58421
1.56677
1.55372
1.54537
1.53938
1.53781
1.54048
1.54612
1.54701
1.54529
1.54173
1.53574
1.52826
1.52276
1.52068
1.51985
1.51945
1.51963
1.52071
1.52304
1.52611
1.52912
1.53179
1.53464
1.53892
1.5451
1.54935
1.55012
1.55089
1.55132
1.55081
1.5468
1.53692
1.5304
1.53058
1.53301
1.53573
1.53812
1.54128
1.5437
1.54407
1.54324
1.54133
1.5384
1.53431
1.52942
1.52493
1.5212
1.51785
1.51456
1.51088
1.50718
1.50418
1.50176
1.4995
1.497
1.49441
1.49179
1.48917
1.48706
1.48579
1.48442
1.48257
1.48115
1.47993
1.47808
1.47434
1.46833
1.46359
1.46267
1.46292
1.46368
1.46553
1.47012
1.4779
1.48221
1.48248
1.48187
1.4806
1.47808
1.47178
1.46109
1.45446
1.45297
1.45244
1.45221
1.45264
1.45526
1.46139
1.46771
1.46947
1.46961
1.4702
1.47149
1.47202
1.472
1.4718
1.47078
1.46852
1.46547
1.46162
1.45615
1.45196
1.45169
1.45238
1.454
1.45577
1.45638
1.45633
1.45469
1.45029
1.44704
1.44678
1.44663
1.44643
1.44584
1.4455
1.44707
1.45371
1.47417
1.51215
1.56961
1.6408
1.70716
1.75856
1.77507
1.79627
1.81633
1.8273
1.82892
1.82754
1.82459
1.81987
1.80896
1.79313
1.78366
1.78266
1.7835
1.78897
1.80011
1.80841
1.8111
1.81105
1.80956
1.80553
1.79763
1.78642
1.77491
1.76562
1.76222
1.76279
1.76632
1.77167
1.78022
1.79678
1.8178
1.82819
1.82822
1.42094
1.41647
1.41122
1.40696
1.40472
1.40339
1.40243
1.40171
1.40137
1.40159
1.40346
1.40731
1.40917
1.40829
1.40565
1.40283
1.40012
1.39781
1.39605
1.39424
1.39143
1.38805
1.38666
1.38717
1.38909
1.39202
1.39534
1.39871
1.40187
1.40464
1.40738
1.41032
1.41319
1.41517
1.41582
1.41576
1.41542
1.41523
1.41522
1.41499
1.41441
1.41335
1.41206
1.41115
1.41125
1.41313
1.41662
1.41722
1.41591
1.41396
1.41223
1.41071
1.4094
1.40832
1.40769
1.40682
1.40546
1.40388
1.40188
1.39906
1.39468
1.38611
1.37345
1.36103
1.3521
1.34281
1.33373
1.32179
1.32413
1.34646
1.4262
1.52678
1.61751
1.63455
1.64098
1.6499
1.65195
1.65074
1.65061
1.65105
1.65156
1.65173
1.6491
1.64473
1.64026
1.63663
1.63281
1.62748
1.623
1.62215
1.62279
1.62118
1.61318
1.60195
1.58914
1.57413
1.55949
1.54984
1.54313
1.54008
1.54045
1.54364
1.54579
1.54508
1.54295
1.54025
1.53565
1.52995
1.52547
1.5239
1.52381
1.52421
1.52623
1.53
1.53456
1.53925
1.54369
1.54821
1.55408
1.56138
1.56626
1.56737
1.56866
1.57036
1.57129
1.5705
1.56483
1.55751
1.5573
1.56149
1.56581
1.5682
1.57089
1.57336
1.57412
1.57374
1.5717
1.56766
1.56256
1.55698
1.55104
1.54484
1.53877
1.53307
1.52659
1.51907
1.51257
1.50708
1.50216
1.49816
1.49473
1.49154
1.48899
1.48759
1.48706
1.48611
1.48405
1.48199
1.48032
1.47837
1.47514
1.46992
1.46529
1.4643
1.4644
1.46526
1.46809
1.47346
1.4784
1.48065
1.48092
1.48025
1.4785
1.47393
1.4639
1.45558
1.45344
1.45265
1.4522
1.45198
1.45258
1.45596
1.46214
1.46594
1.46708
1.46758
1.46825
1.46934
1.47079
1.47132
1.47125
1.47088
1.46983
1.46849
1.46614
1.46218
1.45691
1.45263
1.45171
1.45154
1.45115
1.44974
1.44672
1.44331
1.44245
1.44319
1.445
1.44773
1.45133
1.45938
1.47967
1.51643
1.56864
1.63333
1.69472
1.74157
1.75993
1.77923
1.79126
1.79825
1.80981
1.82494
1.83032
1.83048
1.82939
1.82559
1.81877
1.80734
1.79501
1.78993
1.7906
1.79523
1.80252
1.80685
1.8089
1.80977
1.80898
1.8059
1.79953
1.79026
1.77841
1.7668
1.76161
1.76073
1.7623
1.76612
1.7744
1.79237
1.81425
1.82532
1.82704
1.82629
1.42627
1.42359
1.41981
1.41524
1.41197
1.41053
1.40954
1.40886
1.40844
1.40833
1.40885
1.41125
1.41509
1.41647
1.41542
1.41321
1.41115
1.40975
1.4088
1.40788
1.40646
1.40371
1.40023
1.39907
1.39968
1.40175
1.40483
1.40821
1.41127
1.41383
1.41608
1.41823
1.42033
1.42192
1.42227
1.42168
1.41921
1.41712
1.41639
1.41578
1.41485
1.41348
1.41197
1.41068
1.41019
1.41078
1.41386
1.41657
1.41613
1.41449
1.41303
1.41212
1.41137
1.41059
1.40971
1.4086
1.40715
1.40544
1.40359
1.40093
1.39711
1.39108
1.38118
1.36859
1.3571
1.34784
1.33869
1.32841
1.31896
1.31291
1.32291
1.36394
1.45713
1.55425
1.63707
1.65205
1.64594
1.64159
1.63947
1.64212
1.6456
1.64555
1.64318
1.64073
1.63679
1.63134
1.62609
1.62078
1.61536
1.61276
1.61286
1.61415
1.61236
1.60426
1.59269
1.58051
1.56701
1.55598
1.54925
1.54479
1.54345
1.54444
1.54582
1.5455
1.54435
1.5431
1.54162
1.53882
1.53503
1.53288
1.53274
1.53443
1.53918
1.54559
1.55238
1.55904
1.56501
1.57057
1.57732
1.58519
1.59073
1.59254
1.59454
1.59767
1.6015
1.60389
1.60325
1.59855
1.59753
1.60215
1.60699
1.60876
1.6107
1.61246
1.61305
1.61277
1.61069
1.60593
1.59939
1.59229
1.58479
1.57654
1.56778
1.55908
1.54956
1.53822
1.52689
1.51725
1.50933
1.50295
1.49734
1.49258
1.48964
1.48894
1.48935
1.48947
1.48792
1.48524
1.4828
1.48036
1.47733
1.47319
1.46895
1.4678
1.46801
1.46915
1.47129
1.47394
1.47722
1.4787
1.47839
1.47702
1.47386
1.4668
1.45835
1.45459
1.45334
1.45271
1.45227
1.45223
1.4534
1.45722
1.46138
1.46357
1.46476
1.46579
1.46692
1.46824
1.46975
1.47084
1.47185
1.47252
1.47268
1.47238
1.4704
1.46649
1.46002
1.45295
1.44911
1.44651
1.44351
1.43993
1.43801
1.43824
1.44051
1.44511
1.45473
1.47715
1.51888
1.57501
1.64191
1.702
1.74995
1.76769
1.78161
1.79004
1.79421
1.79671
1.80021
1.80547
1.81188
1.82093
1.82503
1.82532
1.82463
1.82134
1.81471
1.80617
1.80311
1.80229
1.80279
1.80475
1.80617
1.80733
1.8071
1.80653
1.80413
1.79874
1.79075
1.7808
1.77306
1.76816
1.76529
1.76527
1.76767
1.77459
1.78967
1.80889
1.81895
1.82252
1.82321
1.82029
1.43127
1.42939
1.42733
1.42401
1.41982
1.41731
1.4164
1.41574
1.41519
1.415
1.41517
1.41619
1.41881
1.42239
1.42365
1.42287
1.42171
1.42097
1.4204
1.41997
1.4194
1.41781
1.41417
1.41028
1.40928
1.4098
1.4116
1.41441
1.41741
1.41999
1.42202
1.42346
1.42452
1.42532
1.42569
1.42526
1.42291
1.41917
1.41707
1.41601
1.41487
1.41346
1.41194
1.41061
1.40972
1.40969
1.41135
1.41532
1.41648
1.4156
1.41449
1.41382
1.41329
1.41254
1.41162
1.41051
1.40918
1.4075
1.40546
1.40277
1.39904
1.39415
1.38726
1.37783
1.36618
1.35464
1.34522
1.3362
1.32716
1.31901
1.31339
1.31461
1.33482
1.4013
1.5126
1.59057
1.65298
1.65527
1.64779
1.64363
1.6393
1.63743
1.63778
1.63823
1.63635
1.63204
1.62704
1.6197
1.61248
1.60725
1.60483
1.60522
1.60736
1.60629
1.59829
1.5869
1.57593
1.56467
1.5567
1.55192
1.5488
1.54793
1.54809
1.54791
1.54739
1.54737
1.54774
1.54851
1.54928
1.5501
1.55189
1.55636
1.56374
1.57247
1.5816
1.58949
1.59561
1.60128
1.60782
1.61564
1.62226
1.62512
1.62816
1.63342
1.64103
1.64884
1.65227
1.6503
1.6481
1.65129
1.65481
1.65564
1.65669
1.65745
1.6576
1.65702
1.65432
1.64893
1.64164
1.63339
1.62444
1.6147
1.60397
1.59242
1.5798
1.56487
1.54863
1.53409
1.52225
1.51219
1.50301
1.49617
1.49274
1.49212
1.49353
1.49515
1.49383
1.49045
1.48706
1.48407
1.48134
1.47836
1.47488
1.47236
1.47188
1.47173
1.47183
1.47326
1.47522
1.47554
1.47434
1.47144
1.46669
1.46128
1.45734
1.45493
1.45393
1.45335
1.45303
1.45328
1.45511
1.45823
1.46023
1.46155
1.46295
1.46456
1.4662
1.46793
1.46968
1.47173
1.47422
1.47564