/*--------------------------------*- C++ -*----------------------------------*\
  =========                 |
  \\      /  F ield         | OpenFOAM: The Open Source CFD Toolbox
   \\    /   O peration     | Website:  https://openfoam.org
    \\  /    A nd           | Version:  7
     \\/     M anipulation  |
\*---------------------------------------------------------------------------*/
FoamFile
{
    version     2.0;
    format      ascii;
    class       volScalarField;
    location    "1.7";
    object      rho;
}
// * * * * * * * * * * * * * * * * * * * * * * * * * * * * * * * * * * * * * //

dimensions      [1 -3 0 0 0 0 0];

internalField   nonuniform List<scalar> 
4116
(
1.21171
1.19976
1.19022
1.1874
1.18631
1.18557
1.18534
1.18592
1.18507
1.18346
1.18195
1.18034
1.17841
1.17602
1.17298
1.16947
1.16591
1.16194
1.15503
1.14472
1.1385
1.1371
1.13653
1.13628
1.13611
1.13536
1.13437
1.13294
1.12984
1.12392
1.11681
1.11178
1.10856
1.10608
1.10402
1.10207
1.10003
1.09793
1.09589
1.09435
1.09379
1.09323
1.09231
1.09089
1.08922
1.08778
1.0862
1.08413
1.08142
1.07671
1.06886
1.06324
1.06146
1.06024
1.05892
1.05751
1.05582
1.05363
1.05055
1.04582
1.04134
1.03893
1.03745
1.03597
1.03436
1.03292
1.03133
1.02936
1.02743
1.02558
1.02323
1.01999
1.01595
1.01204
1.00866
1.00525
1.00219
0.99913
0.994371
0.989483
0.98771
0.987033
0.986476
0.986074
0.98592
0.986115
0.987809
0.991319
0.992701
0.991916
0.989534
0.985945
0.981639
0.977841
0.975297
0.972267
0.966543
0.956267
0.945069
0.941551
0.94095
0.940605
0.940546
0.940912
0.941194
0.942377
0.946957
0.949658
0.948904
0.947358
0.945593
0.943369
0.941006
0.9374
0.929145
0.915354
0.907831
0.906617
0.906198
0.905915
0.905759
0.906108
0.907736
0.912002
0.91389
0.912474
0.911237
0.910355
0.909456
0.908309
0.906371
0.902616
0.894521
0.882408
0.874579
0.872826
0.872261
0.871823
0.87155
0.87156
0.872578
0.874714
0.876591
0.878104
0.879523
0.879297
0.876745
1.21182
1.20526
1.19625
1.19078
1.1894
1.1886
1.18825
1.18827
1.18711
1.18545
1.1838
1.18197
1.17984
1.1774
1.17475
1.17223
1.17009
1.16736
1.16188
1.15203
1.14167
1.13813
1.13723
1.13661
1.13599
1.13548
1.13486
1.13407
1.13237
1.12744
1.11872
1.11224
1.10867
1.106
1.10385
1.10195
1.10008
1.09801
1.09583
1.09485
1.09439
1.0938
1.09295
1.09177
1.08973
1.08787
1.08689
1.08603
1.08473
1.08117
1.07275
1.06475
1.06203
1.06058
1.05924
1.05789
1.05614
1.05332
1.04986
1.04714
1.04484
1.04286
1.04091
1.03884
1.03655
1.03403
1.03131
1.02893
1.02695
1.02493
1.02257
1.01942
1.01574
1.01292
1.01084
1.00835
1.00477
1.0005
0.996188
0.992441
0.990808
0.99016
0.98965
0.989254
0.989073
0.989186
0.990511
0.993387
0.994546
0.993825
0.991561
0.987961
0.983379
0.978467
0.974196
0.970868
0.967455
0.96179
0.952243
0.943967
0.942092
0.941609
0.941177
0.940907
0.940833
0.941311
0.944434
0.949642
0.949817
0.948441
0.947
0.945583
0.943492
0.939727
0.933409
0.923729
0.913284
0.90933
0.908852
0.908424
0.907912
0.907305
0.906895
0.907338
0.911076
0.911745
0.910867
0.9108
0.910247
0.909169
0.907589
0.904954
0.899431
0.890365
0.879529
0.874272
0.873206
0.872728
0.87246
0.872422
0.873051
0.874543
0.87607
0.877324
0.878693
0.879283
0.877219
1.211
1.20769
1.20324
1.19583
1.18927
1.18676
1.18582
1.18483
1.18351
1.18204
1.18048
1.1787
1.1766
1.17429
1.17205
1.16993
1.16773
1.16524
1.16245
1.15756
1.14934
1.14252
1.14078
1.14002
1.13945
1.139
1.13834
1.13752
1.13587
1.13114
1.12172
1.11283
1.10904
1.10752
1.10594
1.10393
1.10202
1.10015
1.09877
1.09792
1.09718
1.09632
1.09504
1.09302
1.09099
1.08974
1.08879
1.08761
1.08585
1.0826
1.07581
1.0678
1.0647
1.06335
1.06156
1.0593
1.05677
1.05367
1.0499
1.04641
1.04407
1.04216
1.04017
1.03836
1.03719
1.03597
1.0336
1.02952
1.02594
1.02368
1.02141
1.01852
1.0158
1.01408
1.01267
1.01093
1.00812
1.00427
1.00065
0.996748
0.991661
0.988903
0.988259
0.987785
0.987457
0.987433
0.988692
0.991443
0.992285
0.991645
0.989596
0.986239
0.982205
0.978017
0.974174
0.97097
0.968164
0.964832
0.959144
0.949793
0.942965
0.941489
0.940987
0.940719
0.940899
0.94163
0.942603
0.945204
0.946753
0.945755
0.944154
0.94258
0.940587
0.937802
0.934425
0.930178
0.922895
0.913295
0.908743
0.907793
0.907246
0.906673
0.906091
0.905804
0.906862
0.908609
0.907597
0.906469
0.906181
0.9056
0.904538
0.902652
0.899726
0.894841
0.887027
0.878851
0.87633
0.875875
0.87558
0.875416
0.87537
0.875706
0.876757
0.877904
0.879198
0.880615
0.879202
1.21471
1.21227
1.20836
1.20092
1.19213
1.18777
1.18594
1.18444
1.18306
1.18166
1.18021
1.17851
1.17651
1.17431
1.17227
1.17034
1.16824
1.1659
1.16342
1.16079
1.15663
1.14875
1.1411
1.13834
1.13743
1.13661
1.13571
1.13465
1.13311
1.13036
1.12484
1.11738
1.11144
1.10743
1.10425
1.10147
1.09933
1.09761
1.09637
1.09541
1.0946
1.09407
1.09368
1.0924
1.09103
1.09029
1.08981
1.08895
1.08778
1.08562
1.08081
1.073
1.06634
1.06293
1.06094
1.059
1.05664
1.05366
1.05001
1.04673
1.04457
1.04283
1.04118
1.03944
1.03693
1.03343
1.03021
1.02721
1.0249
1.02331
1.02147
1.01935
1.01773
1.01626
1.01438
1.01204
1.00951
1.00699
1.00448
1.00088
0.99445
0.989586
0.988484
0.988003
0.987629
0.98752
0.988765
0.99167
0.992363
0.991849
0.989909
0.986448
0.982234
0.978066
0.974421
0.971434
0.969292
0.967285
0.963941
0.956806
0.946771
0.942374
0.941579
0.941289
0.941341
0.941582
0.941733
0.942513
0.945097
0.945383
0.94404
0.942187
0.939943
0.93773
0.93625
0.934223
0.929747
0.920525
0.911102
0.908587
0.908083
0.907351
0.906106
0.905054
0.904456
0.905157
0.906483
0.905481
0.904618
0.904152
0.903489
0.902188
0.899686
0.897085
0.893567
0.88669
0.878112
0.874798
0.874347
0.874132
0.874038
0.874025
0.87423
0.87494
0.875619
0.876977
0.877105
1.21178
1.20905
1.20636
1.20326
1.19804
1.19171
1.18812
1.18657
1.1851
1.1836
1.18226
1.18081
1.17896
1.17689
1.17526
1.17381
1.17215
1.17035
1.16862
1.16665
1.16283
1.15486
1.14426
1.13922
1.13747
1.13639
1.13538
1.13417
1.13252
1.13007
1.12653
1.12146
1.11542
1.10958
1.10472
1.10144
1.09925
1.09729
1.09585
1.09502
1.09434
1.09386
1.09389
1.09373
1.09276
1.0921
1.09131
1.09021
1.08876
1.08686
1.08373
1.0776
1.06984
1.06505
1.06254
1.06031
1.05768
1.05478
1.05188
1.04882
1.04619
1.04414
1.04243
1.04062
1.038
1.03295
1.02742
1.02607
1.0258
1.02527
1.02431
1.02262
1.02032
1.01835
1.01658
1.01471
1.01263
1.01008
1.00677
1.00276
0.997413
0.992333
0.990883
0.990385
0.990026
0.989914
0.991035
0.993349
0.993887
0.993473
0.991492
0.987789
0.983414
0.97922
0.97552
0.972794
0.970855
0.969045
0.966411
0.961317
0.952401
0.945195
0.943719
0.943225
0.942904
0.942486
0.942033
0.941762
0.942153
0.944254
0.94405
0.942617
0.940857
0.939247
0.937298
0.934984
0.932298
0.927754
0.919466
0.911098
0.907608
0.906428
0.905275
0.904265
0.903576
0.903279
0.904869
0.905659
0.904532
0.903301
0.90243
0.901611
0.901161
0.900447
0.898452
0.893154
0.882473
0.875612
0.87459
0.874347
0.874202
0.874192
0.874256
0.874527
0.875028
0.875501
0.876322
1.21163
1.209
1.20629
1.20396
1.20186
1.19834
1.19212
1.18578
1.1822
1.18007
1.17835
1.17712
1.17588
1.17442
1.17315
1.17185
1.17033
1.16866
1.16693
1.16492
1.16254
1.15826
1.1505
1.14295
1.13981
1.13849
1.13744
1.13615
1.13455
1.13262
1.12976
1.12504
1.11796
1.10987
1.10468
1.10169
1.0986
1.0964
1.0954
1.09475
1.0943
1.09448
1.096
1.09579
1.09485
1.09414
1.09319
1.09219
1.09113
1.08966
1.08672
1.08068
1.07154
1.06417
1.06064
1.0582
1.05539
1.05226
1.0504
1.04937
1.04815
1.04672
1.04503
1.04279
1.03887
1.03202
1.0263
1.0245
1.02371
1.02338
1.02302
1.02184
1.02056
1.01904
1.01708
1.01504
1.01337
1.01188
1.00983
1.00662
1.00223
0.996132
0.990408
0.988816
0.988486
0.988374
0.988671
0.989286
0.989904
0.989659
0.987851
0.984517
0.980727
0.977427
0.975106
0.973368
0.971707
0.969878
0.967626
0.964475
0.958916
0.949828
0.942912
0.941302
0.94098
0.941014
0.941112
0.940867
0.940732
0.942026
0.945
0.945067
0.943721
0.941671
0.939327
0.937006
0.93478
0.931967
0.926258
0.915911
0.908413
0.906255
0.905332
0.904348
0.903227
0.902494
0.902304
0.902623
0.902397
0.902137
0.902484
0.902207
0.901295
0.900214
0.898925
0.896101
0.888682
0.87924
0.876581
0.876245
0.87595
0.875866
0.875813
0.875095
0.874286
0.873764
0.874489
1.21386
1.21168
1.21005
1.2089
1.20735
1.20391
1.19682
1.1878
1.1825
1.17991
1.17782
1.17618
1.17512
1.17433
1.17343
1.17218
1.17074
1.16917
1.16747
1.16548
1.16248
1.15901
1.15521
1.14917
1.14161
1.13601
1.13369
1.13257
1.13153
1.13018
1.12861
1.12627
1.12046
1.11124
1.10524
1.10215
1.09892
1.09699
1.09622
1.09568
1.09523
1.09495
1.09527
1.09637
1.09569
1.09458
1.09402
1.09334
1.09212
1.09074
1.08869
1.08363
1.0738
1.06466
1.06041
1.0579
1.05523
1.05262
1.05113
1.04994
1.04879
1.0477
1.04644
1.04435
1.03962
1.03094
1.02541
1.02424
1.02366
1.02318
1.02292
1.02224
1.02123
1.02016
1.0189
1.01737
1.01548
1.01321
1.01109
1.00903
1.00614
1.00043
0.992348
0.989293
0.988921
0.988839
0.989143
0.989051
0.988586
0.988046
0.98644
0.983464
0.980024
0.977183
0.975451
0.974055
0.972482
0.971039
0.969758
0.967935
0.963945
0.955129
0.944453
0.940992
0.940506
0.940395
0.940696
0.940411
0.939925
0.939841
0.940905
0.943067
0.942915
0.941384
0.939378
0.937911
0.936522
0.934371
0.93025
0.922143
0.912784
0.908267
0.905553
0.903672
0.902879
0.902184
0.901356
0.900663
0.900481
0.900974
0.902419
0.903036
0.902455
0.901577
0.900566
0.898596
0.893758
0.884418
0.876295
0.874057
0.87369
0.873472
0.873298
0.873027
0.872585
0.872288
0.87299
1.21159
1.20966
1.20834
1.20705
1.20548
1.20364
1.20018
1.19336
1.18512
1.18018
1.17782
1.17631
1.17542
1.17477
1.17401
1.17283
1.17125
1.16928
1.16683
1.16483
1.16378
1.16283
1.16053
1.15474
1.14506
1.13698
1.13338
1.13191
1.13109
1.13019
1.12892
1.12643
1.12063
1.11166
1.10603
1.10343
1.10138
1.10032
1.09959
1.09892
1.09823
1.09761
1.09751
1.09857
1.09841
1.09738
1.09702
1.09696
1.09574
1.09403
1.09154
1.08583
1.0743
1.06483
1.0617
1.05977
1.05749
1.05547
1.0543
1.05323
1.05216
1.05103
1.04954
1.04669
1.04
1.03017
1.02565
1.0248
1.02416
1.02369
1.02394
1.02364
1.02265
1.0218
1.02073
1.01928
1.01759
1.01572
1.01383
1.01161
1.00845
1.00323
0.99568
0.991703
0.991326
0.991293
0.990974
0.990016
0.987742
0.985701
0.985193
0.984056
0.981347
0.978718
0.9772
0.975825
0.974311
0.972689
0.971158
0.969384
0.966468
0.960692
0.950531
0.942293
0.940548
0.940109
0.939825
0.939499
0.938988
0.939114
0.940435
0.942578
0.943582
0.942606
0.94087
0.938835
0.936654
0.934604
0.932172
0.927656
0.918967
0.910461
0.906629
0.904281
0.902321
0.90102
0.900041
0.899401
0.899167
0.900532
0.904168
0.90567
0.90524
0.904478
0.903584
0.901849
0.897983
0.889537
0.87837
0.873939
0.873349
0.873041
0.872661
0.872364
0.872035
0.871604
0.871803
1.2122
1.20999
1.20847
1.20704
1.20549
1.20374
1.2016
1.1978
1.19072
1.18301
1.17877
1.17675
1.17564
1.17477
1.17399
1.17313
1.17168
1.16976
1.16775
1.16592
1.16392
1.16159
1.15893
1.15561
1.14936
1.14035
1.13474
1.13347
1.13274
1.13195
1.13068
1.12812
1.1225
1.11467
1.10819
1.10492
1.10262
1.10009
1.09809
1.09722
1.09658
1.09592
1.09547
1.09546
1.09568
1.09523
1.09486
1.0949
1.0944
1.0931
1.09101
1.08647
1.07649
1.06595
1.06102
1.0585
1.05605
1.05395
1.05276
1.05172
1.05064
1.04945
1.04785
1.04502
1.03887
1.03022
1.02665
1.02581
1.02515
1.02449
1.02388
1.0234
1.0231
1.02227
1.02098
1.01925
1.01727
1.01597
1.01499
1.0138
1.01137
1.00715
1.00107
0.993663
0.989678
0.989282
0.989061
0.988316
0.98672
0.984216
0.981776
0.980393
0.978929
0.977074
0.975866
0.975277
0.974963
0.974083
0.972986
0.971651
0.969428
0.965119
0.956606
0.945478
0.940767
0.939791
0.939371
0.939944
0.940091
0.939338
0.938773
0.938704
0.940584
0.942141
0.941022
0.939058
0.937404
0.936041
0.934519
0.931624
0.924631
0.914124
0.907284
0.90362
0.900896
0.899576
0.898693
0.898049
0.897739
0.898132
0.90042
0.903398
0.904139
0.903657
0.902668
0.901376
0.899249
0.89409
0.883479
0.875144
0.873467
0.87305
0.872473
0.871974
0.871479
0.870921
0.871247
1.21098
1.20911
1.20773
1.20639
1.20511
1.20399
1.20275
1.2005
1.19562
1.18834
1.182
1.17887
1.17779
1.17688
1.17611
1.17557
1.17454
1.1729
1.17104
1.16882
1.16584
1.16229
1.15886
1.15544
1.15184
1.14709
1.14065
1.13411
1.12936
1.12732
1.12641
1.12552
1.12381
1.11887
1.11222
1.1077
1.10441
1.10128
1.09901
1.09771
1.09692
1.09623
1.09568
1.09551
1.09548
1.09519
1.09507
1.09471
1.09374
1.09299
1.09197
1.0886
1.07956
1.06802
1.0621
1.05913
1.05645
1.0543
1.05288
1.05176
1.0507
1.04949
1.04779
1.04487
1.03901
1.03136
1.02806
1.0271
1.02625
1.02517
1.02424
1.02365
1.02314
1.02227
1.02141
1.02049
1.01944
1.01804
1.01608
1.01398
1.01211
1.01005
1.00616
0.998561
0.990776
0.987856
0.987257
0.986692
0.98548
0.983373
0.981079
0.979522
0.978342
0.977193
0.976231
0.975759
0.975653
0.974972
0.974021
0.973008
0.971515
0.968378
0.961371
0.950024
0.943237
0.941727
0.940678
0.939201
0.938157
0.937755
0.937572
0.93773
0.94013
0.942724
0.942154
0.940424
0.938876
0.937604
0.936347
0.934319
0.928941
0.917832
0.907806
0.902971
0.900289
0.898763
0.897796
0.897094
0.89673
0.897014
0.899324
0.903078
0.904707
0.90436
0.903286
0.901839
0.899832
0.896321
0.888775
0.878855
0.874909
0.874044
0.873348
0.87273
0.872173
0.871696
0.872245
1.21074
1.2095
1.20843
1.20728
1.20615
1.205
1.20353
1.20163
1.19894
1.19327
1.18304
1.17599
1.17445
1.17349
1.17257
1.17196
1.17149
1.17028
1.16824
1.16616
1.1642
1.16153
1.15842
1.15595
1.15411
1.15173
1.14666
1.13767
1.13034
1.12653
1.12468
1.12284
1.12013
1.11715
1.11405
1.11046
1.10622
1.10292
1.10172
1.10125
1.1007
1.09996
1.09932
1.09883
1.0982
1.09775
1.09765
1.09675
1.09532
1.09351
1.09087
1.08612
1.07781
1.06953
1.06494
1.06213
1.05966
1.05714
1.05513
1.05354
1.05217
1.05073
1.04886
1.04587
1.0406
1.03394
1.03051
1.02924
1.02801
1.02659
1.02572
1.02466
1.02321
1.02224
1.02172
1.02086
1.01992
1.019
1.0179
1.01645
1.01436
1.0115
1.00781
1.00146
0.991548
0.986286
0.985684
0.985522
0.985234
0.983929
0.981939
0.980853
0.980183
0.979873
0.979129
0.978437
0.978321
0.977834
0.976902
0.975854
0.974325
0.97138
0.965627
0.954987
0.943389
0.93914
0.938153
0.93738
0.936957
0.936808
0.936963
0.93828
0.941212
0.943849
0.943398
0.942104
0.94068
0.939394
0.938201
0.936471
0.931911
0.921042
0.909338
0.903443
0.900137
0.898456
0.89753
0.896782
0.89626
0.896283
0.899416
0.905331
0.907659
0.907197
0.905782
0.903911
0.901675
0.898617
0.893511
0.884152
0.875166
0.871862
0.870954
0.870204
0.869548
0.869032
0.869405
1.21187
1.21094
1.21031
1.20989
1.20929
1.20851
1.20759
1.20633
1.204
1.19772
1.18521
1.17626
1.17403
1.17306
1.17219
1.17154
1.17102
1.17013
1.16827
1.16544
1.16376
1.16276
1.16149
1.16014
1.15838
1.15559
1.15072
1.14315
1.13386
1.12648
1.12267
1.12069
1.11883
1.11695
1.11531
1.11315
1.11036
1.10801
1.10556
1.10248
1.09994
1.09877
1.09797
1.09688
1.0955
1.09447
1.09382
1.09308
1.09179
1.0901
1.08776
1.08373
1.07776
1.07281
1.06891
1.06469
1.05997
1.05572
1.05274
1.05049
1.04851
1.04667
1.04486
1.04249
1.03846
1.03411
1.03203
1.03098
1.0299
1.02864
1.02757
1.02615
1.0247
1.02404
1.02355
1.02246
1.0213
1.02025
1.01916
1.01785
1.01603
1.01342
1.00969
1.00339
0.993396
0.986129
0.984625
0.983882
0.982872
0.981063
0.97919
0.978193
0.977373
0.976801
0.976573
0.976552
0.976908
0.976795
0.975834
0.974766
0.973704
0.972204
0.968777
0.96008
0.945589
0.938201
0.937264
0.936975
0.936882
0.936617
0.936269
0.936068
0.937235
0.940779
0.943416
0.942961
0.941662
0.940634
0.939766
0.938444
0.934643
0.924777
0.912119
0.903905
0.89968
0.898423
0.897627
0.896913
0.896391
0.896169
0.897344
0.902231
0.905693
0.905469
0.904104
0.902301
0.900614
0.899099
0.896409
0.889236
0.877519
0.872017
0.870799
0.870021
0.869353
0.868921
0.869263
1.21247
1.21117
1.21033
1.20974
1.2088
1.20766
1.20637
1.20488
1.20264
1.19811
1.18865
1.17914
1.17614
1.17511
1.17423
1.17344
1.17269
1.17154
1.16965
1.16717
1.16459
1.16194
1.15976
1.15786
1.15582
1.15342
1.1507
1.14617
1.13779
1.12743
1.12207
1.11987
1.11834
1.11758
1.11682
1.11567
1.11429
1.11244
1.10942
1.10519
1.10179
1.10007
1.09874
1.09734
1.09581
1.09454
1.09345
1.0922
1.0909
1.08888
1.08524
1.08097
1.07797
1.07562
1.07307
1.06874
1.06229
1.0564
1.05269
1.05039
1.04825
1.04604
1.04357
1.04107
1.0385
1.03596
1.0341
1.0325
1.03077
1.02977
1.02931
1.02946
1.02928
1.02822
1.02725
1.02608
1.025
1.02411
1.0231
1.02182
1.02004
1.01744
1.01349
1.0064
0.994218
0.985734
0.984061
0.983405
0.982463
0.980683
0.978801
0.977875
0.977079
0.97645
0.976252
0.976525
0.977192
0.977225
0.976325
0.975301
0.974311
0.972938
0.970112
0.962973
0.948947
0.93893
0.937177
0.936648
0.936138
0.935709
0.935443
0.935428
0.936873
0.941566
0.944356
0.943422
0.941833
0.940755
0.939792
0.938589
0.935985
0.928516
0.915305
0.904608
0.900035
0.898851
0.898058
0.897295
0.896678
0.896384
0.897288
0.90158
0.905477
0.905439
0.904191
0.902419
0.900913
0.899494
0.897483
0.892799
0.882828
0.874618
0.872525
0.871626
0.871033
0.87057
0.87072
1.21438
1.2136
1.21336
1.21269
1.21162
1.21034
1.20876
1.20686
1.20428
1.19996
1.19298
1.18434
1.17646
1.17248
1.17144
1.17062
1.16991
1.1698
1.16964
1.16779
1.16506
1.16258
1.16025
1.15778
1.15546
1.15332
1.15096
1.14739
1.14087
1.13054
1.12399
1.12267
1.12212
1.12162
1.12081
1.11932
1.11737
1.1148
1.1109
1.10679
1.1048
1.10371
1.10244
1.10053
1.09854
1.09684
1.09543
1.09376
1.09111
1.08724
1.08201
1.07846
1.07776
1.07741
1.07591
1.07242
1.06645
1.05877
1.05295
1.05037
1.04916
1.04735
1.04429
1.03987
1.03721
1.03676
1.0361
1.03513
1.03416
1.03337
1.0326
1.03139
1.02885
1.02694
1.02576
1.02441
1.02336
1.02256
1.02162
1.02036
1.01864
1.01608
1.01192
1.00455
0.99326
0.985718
0.984124
0.98342
0.982476
0.980804
0.978813
0.977774
0.977041
0.976726
0.977537
0.978536
0.979802
0.980058
0.979147
0.977891
0.976623
0.974921
0.971984
0.965732
0.952954
0.940379
0.936885
0.936181
0.935695
0.935338
0.935067
0.935269
0.938461
0.944808
0.946626
0.945244
0.943471
0.942352
0.941442
0.940404
0.938211
0.931725
0.91884
0.906299
0.901022
0.89974
0.898953
0.89818
0.897497
0.897096
0.897538
0.901807
0.906978
0.907318
0.906156
0.904463
0.9029
0.901354
0.899386
0.895876
0.88903
0.879066
0.872471
0.870042
0.869213
0.868599
0.868458
1.21821
1.21364
1.21165
1.21056
1.20943
1.20803
1.2062
1.20383
1.20087
1.19777
1.19453
1.18867
1.17916
1.17294
1.17133
1.17058
1.17001
1.17012
1.17051
1.169
1.16606
1.16332
1.16082
1.15803
1.15519
1.1531
1.15111
1.14845
1.14409
1.13614
1.12601
1.12116
1.12009
1.11936
1.11875
1.11862
1.11801
1.11583
1.11299
1.11092
1.10883
1.1058
1.1021
1.09896
1.09634
1.09393
1.09191
1.08998
1.08696
1.08279
1.07967
1.0783
1.07736
1.07604
1.07426
1.07183
1.06833
1.06305
1.05692
1.05163
1.04728
1.04387
1.04054
1.03755
1.03627
1.0357
1.03548
1.03591
1.03654
1.03696
1.03657
1.03444
1.03043
1.02769
1.02618
1.02474
1.02366
1.02286
1.02183
1.02048
1.01877
1.01627
1.01198
1.00349
0.992105
0.98639
0.985073
0.98425
0.983251
0.981759
0.979971
0.978607
0.977642
0.976847
0.976438
0.976352
0.976743
0.977981
0.977595
0.976433
0.975281
0.973861
0.971446
0.96666
0.956607
0.942956
0.937195
0.936294
0.935891
0.935606
0.935406
0.935391
0.937207
0.942507
0.944372
0.943054
0.941132
0.939632
0.938438
0.937263
0.93552
0.931775
0.923071
0.909478
0.901968
0.900727
0.900056
0.899339
0.898699
0.898303
0.898157
0.899402
0.90376
0.905247
0.904236
0.902459
0.900857
0.899504
0.898393
0.897139
0.8937
0.884995
0.87464
0.870587
0.869539
0.86896
0.868767
1.2228
1.21712
1.21302
1.21115
1.20979
1.20826
1.20634
1.20382
1.20062
1.1973
1.19398
1.18988
1.18327
1.17611
1.17395
1.17321
1.17278
1.17298
1.1733
1.17186
1.16879
1.16551
1.16263
1.15956
1.15615
1.15365
1.15166
1.14949
1.14676
1.14115
1.12997
1.12216
1.12032
1.11963
1.11914
1.11894
1.1188
1.1174
1.11561
1.11406
1.11196
1.10837
1.10344
1.09931
1.09652
1.09384
1.0911
1.08834
1.08447
1.07961
1.0776
1.07728
1.07689
1.07605
1.07476
1.07284
1.06994
1.06611
1.06134
1.05512
1.04767
1.04201
1.03888
1.03739
1.03667
1.03617
1.03595
1.03659
1.038
1.03848
1.03801
1.03621
1.03313
1.03095
1.02933
1.0277
1.02661
1.02558
1.02434
1.02286
1.02114
1.01859
1.0132
1.00147
0.989271
0.986342
0.985952
0.985646
0.985395
0.984876
0.983707
0.98191
0.979272
0.977336
0.976746
0.976625
0.97681
0.977684
0.977884
0.977134
0.976203
0.974941
0.972758
0.968508
0.959763
0.946529
0.938761
0.937356
0.936912
0.93657
0.936332
0.936209
0.937704
0.942547
0.944331
0.94304
0.941194
0.939603
0.938095
0.936364
0.934036
0.930978
0.925755
0.915677
0.905451
0.901778
0.900712
0.899935
0.899162
0.89854
0.898225
0.898737
0.902493
0.905175
0.904452
0.902563
0.900867
0.899562
0.898445
0.897155
0.895041
0.889775
0.879866
0.872928
0.871434
0.870854
0.870325
1.22449
1.22028
1.2162
1.21366
1.21189
1.21018
1.20819
1.20561
1.20245
1.19915
1.19596
1.19252
1.18766
1.18082
1.17387
1.17157
1.17103
1.1709
1.17049
1.16878
1.16571
1.16228
1.15909
1.15751
1.15695
1.15608
1.15452
1.15273
1.15014
1.14484
1.13483
1.12556
1.12329
1.12289
1.1225
1.12237
1.12299
1.12229
1.12027
1.11789
1.11524
1.11153
1.10639
1.1005
1.09646
1.09491
1.0927
1.0879
1.08092
1.07703
1.07619
1.07579
1.07589
1.07666
1.07627
1.07503
1.07294
1.06915
1.06249
1.05362
1.046
1.04092
1.03925
1.03855
1.03792
1.03748
1.03722
1.03773
1.0401
1.04138
1.04112
1.03971
1.03675
1.03256
1.0283
1.0255
1.02435
1.02346
1.02232
1.02073
1.01884
1.01632
1.01102
0.99989
0.98939
0.987308
0.987004
0.986731
0.986229
0.985116
0.983112
0.98093
0.97883
0.977548
0.976871
0.976675
0.977552
0.977663
0.97647
0.974868
0.973642
0.972323
0.970328
0.966701
0.960304
0.950146
0.941101
0.938582
0.938192
0.938077
0.938071
0.938491
0.940335
0.944611
0.946006
0.944681
0.942798
0.940943
0.938738
0.936126
0.932855
0.9288
0.924335
0.919146
0.911591
0.904304
0.901332
0.90034
0.899633
0.899082
0.898745
0.898847
0.90125
0.905818
0.905956
0.904239
0.90242
0.901084
0.89985
0.898564
0.896787
0.893286
0.886358
0.876363
0.870865
0.869848
0.869584
1.2275
1.22286
1.21689
1.2123
1.20977
1.20769
1.20534
1.20253
1.19928
1.19584
1.19261
1.18975
1.18731
1.18329
1.17613
1.17215
1.17149
1.17121
1.17049
1.1686
1.16547
1.16221
1.15968
1.15769
1.15564
1.15372
1.15196
1.15015
1.14788
1.14453
1.1393
1.13105
1.12408
1.12189
1.1214
1.12118
1.12148
1.12066
1.11865
1.11626
1.11373
1.11152
1.10856
1.1039
1.0982
1.09244
1.08834
1.08395
1.07891
1.07685
1.07637
1.07611
1.07672
1.07812
1.07768
1.07635
1.07448
1.07101
1.06392
1.05304
1.04509
1.04376
1.04321
1.04265
1.04214
1.04166
1.04125
1.04117
1.04227
1.044
1.04399
1.04301
1.04028
1.03513
1.02928
1.02536
1.0238
1.02313
1.02226
1.02082
1.01867
1.01549
1.00927
0.99848
0.991563
0.990258
0.989612
0.988936
0.988069
0.986648
0.984146
0.98165
0.979894
0.978364
0.977503
0.97728
0.977494
0.977462
0.976499
0.975068
0.97358
0.971856
0.969618
0.966535
0.9621
0.954788
0.946159
0.940798
0.939428
0.939137
0.938986
0.938811
0.939225
0.941921
0.942935
0.941557
0.93958
0.937893
0.936325
0.934471
0.931938
0.928517
0.924938
0.921269
0.916489
0.910118
0.90371
0.901143
0.900396
0.899928
0.899667
0.899651
0.900217
0.901567
0.902708
0.902028
0.90032
0.898738
0.897541
0.896529
0.895539
0.894305
0.890876
0.882075
0.87242
0.870123
0.869748
1.23063
1.22656
1.21923
1.21316
1.21012
1.20786
1.20534
1.20242
1.19922
1.19589
1.19265
1.18988
1.18746
1.18436
1.17924
1.17537
1.17447
1.17382
1.17279
1.17078
1.16776
1.16487
1.16226
1.15947
1.15658
1.15402
1.15186
1.14974
1.14786
1.14614
1.14265
1.13592
1.12769
1.12341
1.12238
1.1221
1.12192
1.12064
1.11851
1.11629
1.11407
1.11172
1.10896
1.10524
1.09999
1.092
1.08355
1.08041
1.07972
1.07923
1.0789
1.07883
1.0801
1.08158
1.08099
1.07951
1.07732
1.07321
1.06523
1.05418
1.04642
1.04333
1.04239
1.04174
1.04113
1.04053
1.04008
1.04
1.0416
1.04479
1.04508
1.04389
1.04151
1.0379
1.03287
1.02754
1.02406
1.0226
1.02128
1.01922
1.01628
1.01269
1.0073
0.99841
0.99115
0.989456
0.988785
0.988111
0.987362
0.986391
0.985161
0.984329
0.983325
0.981276
0.97973
0.979162
0.979036
0.978831
0.977887
0.976494
0.974936
0.972742
0.96938
0.9648
0.959728
0.955088
0.949708
0.944782
0.941951
0.940882
0.940443
0.9402
0.940308
0.941812
0.942455
0.940968
0.938688
0.936678
0.934964
0.933245
0.93089
0.927209
0.92298
0.919745
0.917317
0.913825
0.90803
0.90397
0.903073
0.902517
0.901966
0.901356
0.900699
0.900275
0.900566
0.901453
0.900471
0.898628
0.897335
0.896414
0.895601
0.894587
0.892466
0.887212
0.877994
0.872783
0.871638
1.23008
1.22506
1.21892
1.21483
1.21261
1.21034
1.20755
1.20446
1.20124
1.19817
1.19547
1.19293
1.19043
1.18729
1.18245
1.17673
1.17354
1.17244
1.17125
1.16905
1.16581
1.16262
1.15967
1.15698
1.15475
1.15287
1.15098
1.14863
1.14541
1.14204
1.13932
1.13711
1.13317
1.12865
1.12655
1.12595
1.12494
1.12264
1.11968
1.11728
1.11486
1.11201
1.10985
1.10764
1.10207
1.09159
1.08213
1.07865
1.07753
1.07686
1.07642
1.07631
1.07731
1.07814
1.07736
1.07602
1.07418
1.07059
1.06429
1.05686
1.04996
1.04538
1.04359
1.04264
1.04184
1.04117
1.04068
1.04051
1.042
1.04572
1.04646
1.04553
1.04376
1.04105
1.03654
1.0301
1.02444
1.02144
1.01977
1.01766
1.01449
1.01068
1.00634
0.99929
0.992049
0.990157
0.989783
0.989476
0.988809
0.987875
0.987047
0.985918
0.983977
0.981203
0.978314
0.976963
0.976215
0.975435
0.974238
0.972812
0.97166
0.970188
0.967568
0.96346
0.958377
0.953729
0.950615
0.948246
0.946004
0.944052
0.942956
0.942402
0.942105
0.942431
0.942546
0.940927
0.938002
0.935236
0.9331
0.931105
0.928761
0.925952
0.922907
0.92071
0.918966
0.916478
0.912712
0.907172
0.902296
0.901028
0.900548
0.900029
0.899529
0.899136
0.899501
0.901716
0.901702
0.900068
0.898631
0.897808
0.897005
0.895817
0.893953
0.890786
0.884701
0.87638
0.870466
1.23114
1.2259
1.22048
1.21587
1.21229
1.20919
1.20587
1.20228
1.19862
1.19498
1.19217
1.19033
1.18824
1.18639
1.184
1.17886
1.17475
1.17336
1.17216
1.16994
1.16643
1.16303
1.1599
1.15704
1.1548
1.15276
1.15039
1.14776
1.14461
1.14051
1.13687
1.13488
1.1341
1.13269
1.13127
1.13026
1.1287
1.12632
1.12354
1.12063
1.11792
1.11503
1.11108
1.10592
1.09888
1.08896
1.08127
1.07859
1.07751
1.07679
1.07633
1.07624
1.07736
1.0778
1.0767
1.07483
1.07259
1.06954
1.06471
1.05854
1.05294
1.04888
1.04676
1.04581
1.04544
1.04504
1.04454
1.04424
1.04509
1.04738
1.04776
1.04711
1.04594
1.04377
1.03964
1.03283
1.02539
1.0206
1.01819
1.01646
1.01402
1.00977
1.00314
0.995257
0.992682
0.992449
0.992394
0.991999
0.991194
0.990555
0.989786
0.988353
0.985964
0.982713
0.979137
0.977084
0.976039
0.975089
0.973925
0.972299
0.970596
0.968868
0.966274
0.962431
0.957347
0.953223
0.951204
0.950101
0.948808
0.947636
0.947153
0.946724
0.945484
0.943686
0.942497
0.940873
0.937794
0.934612
0.932358
0.929632
0.926018
0.923734
0.92319
0.922912
0.922048
0.920156
0.916943
0.910789
0.903333
0.901132
0.900566
0.900017
0.899529
0.899125
0.898623
0.898261
0.898538
0.89781
0.896549
0.895889
0.89543
0.895093
0.894717
0.893625
0.890129
0.881619
0.871475
1.22962
1.22722
1.2232
1.21819
1.21384
1.21032
1.20664
1.20262
1.19876
1.19508
1.19163
1.18984
1.18883
1.18623
1.18103
1.17667
1.17565
1.17526
1.17466
1.17297
1.16979
1.16602
1.16244
1.15867
1.15599
1.15424
1.15203
1.14813
1.14285
1.13797
1.13578
1.13528
1.13517
1.13585
1.1366
1.13617
1.13372
1.12914
1.12343
1.11864
1.11527
1.11241
1.10891
1.10346
1.09515
1.08655
1.08312
1.08168
1.08042
1.07949
1.07898
1.07888
1.07952
1.07932
1.07796
1.07541
1.07174
1.06636
1.06084
1.05628
1.05402
1.05288
1.05118
1.04791
1.04527
1.04444
1.04398
1.0437
1.04451
1.04747
1.0483
1.04747
1.04602
1.04384
1.04013
1.03445
1.02776
1.02197
1.01786
1.01517
1.01273
1.00844
1.00135
0.994927
0.992199
0.991799
0.991854
0.991766
0.991095
0.990347
0.989438
0.98818
0.986604
0.984631
0.981922
0.979246
0.97743
0.976031
0.974818
0.973461
0.971509
0.968826
0.965058
0.960475
0.956472
0.953778
0.953045
0.952592
0.952315
0.951943
0.950573
0.947724
0.944407
0.941479
0.940262
0.939398
0.938213
0.935738
0.931404
0.926792
0.924267
0.92379
0.923753
0.923261
0.921991
0.920324
0.918211
0.914015
0.906693
0.903101
0.902343
0.901745
0.901035
0.899896
0.898618
0.897886
0.897606
0.897149
0.896534
0.895983
0.895688
0.895329
0.894597
0.893571
0.891564
0.886063
0.874813
1.2276
1.22319
1.21939
1.21716
1.21543
1.21329
1.21044
1.20676
1.20229
1.19824
1.195
1.19166
1.18766
1.18353
1.17891
1.17677
1.17686
1.1775
1.17719
1.17487
1.16952
1.16381
1.16033
1.15748
1.15461
1.15153
1.14808
1.14375
1.13918
1.13701
1.13629
1.13587
1.13617
1.13861
1.1406
1.14051
1.1388
1.13373
1.12581
1.11952
1.11552
1.11171
1.10704
1.10032
1.09148
1.08469
1.0822
1.08087
1.07941
1.07766
1.07655
1.07594
1.07577
1.07561
1.07453
1.0723
1.06893
1.06355
1.05913
1.05829
1.05769
1.05663
1.05484
1.0515
1.04779
1.04595
1.04535
1.04502
1.04554
1.04891
1.05023
1.04939
1.04783
1.0457
1.04216
1.03644
1.02961
1.02297
1.01819
1.0147
1.01108
1.0061
0.999724
0.994594
0.992876
0.992398
0.99231
0.992172
0.991717
0.991184
0.990472
0.989372
0.987818
0.98573
0.982619
0.978367
0.974628
0.972198
0.970318
0.969271
0.967896
0.965715
0.962997
0.959102
0.95617
0.955417
0.955156
0.955593
0.956114
0.955812
0.954147
0.950203
0.945411
0.941106
0.939502
0.938426
0.936073
0.932701
0.928371
0.924993
0.92408
0.923932
0.924355
0.924229
0.923009
0.921714
0.920148
0.91678
0.90932
0.90194
0.900025
0.899458
0.898942
0.898364
0.89765
0.896854
0.896159
0.89576
0.89629
0.896791
0.89647
0.895807
0.895079
0.894218
0.892633
0.889022
0.877888
1.22574
1.22207
1.2194
1.21798
1.21672
1.21484
1.21159
1.20638
1.20071
1.19605
1.19246
1.18813
1.18271
1.18036
1.17983
1.17957
1.18016
1.18103
1.18049
1.17785
1.17166
1.16445
1.16024
1.15853
1.15648
1.15221
1.14468
1.13917
1.13746
1.13696
1.13679
1.13692
1.13797
1.1406
1.1421
1.14165
1.14033
1.13684
1.12968
1.12197
1.11696
1.11221
1.10504
1.09682
1.0888
1.08386
1.08254
1.08152
1.08007
1.07822
1.07683
1.07591
1.07509
1.07458
1.07372
1.07111
1.06643
1.06236
1.05922
1.05685
1.05572
1.05462
1.05356
1.05267
1.05114
1.04926
1.04838
1.04821
1.04868
1.04816
1.0474
1.04652
1.0452
1.04322
1.04059
1.03708
1.03154
1.02505
1.01957
1.01494
1.0091
1.00297
0.999451
0.997235
0.996162
0.995666
0.99555
0.99559
0.995287
0.994646
0.993717
0.992407
0.990592
0.98809
0.984238
0.979179
0.974558
0.97162
0.969601
0.967431
0.965346
0.962947
0.96098
0.959379
0.957991
0.957088
0.956862
0.957386
0.957535
0.957247
0.956495
0.95361
0.949038
0.94499
0.941059
0.936845
0.931722
0.927476
0.926401
0.926057
0.925843
0.926028
0.927604
0.927652
0.926533
0.925454
0.923935
0.920403
0.911914
0.902289
0.899499
0.8989
0.898359
0.897704
0.896881
0.896128
0.895634
0.895747