/*--------------------------------*- C++ -*----------------------------------*\
  =========                 |
  \\      /  F ield         | OpenFOAM: The Open Source CFD Toolbox
   \\    /   O peration     | Website:  https://openfoam.org
    \\  /    A nd           | Version:  7
     \\/     M anipulation  |
\*---------------------------------------------------------------------------*/
FoamFile
{
    version     2.0;
    format      ascii;
    class       volScalarField;
    location    "2.8";
    object      p;
}
// * * * * * * * * * * * * * * * * * * * * * * * * * * * * * * * * * * * * * //

dimensions      [0 2 -2 0 0 0 0];

internalField   nonuniform List<scalar> 
344
(
-1.12275
-1.11137
-1.1296
-1.18511
0.121148
0.129513
0.137576
0.145342
0.15282
-1.1721
-1.06193
-1.00432
-0.966457
-0.937457
-0.91323
-0.891196
-0.869725
-0.847991
-0.825636
-0.802551
-0.778754
-0.754326
-0.729375
-0.70402
-0.678378
-0.652559
-0.626662
-0.600779
-0.574989
-0.549364
-0.523964
-0.498843
-0.474047
-0.449615
-0.42558
-0.401968
-0.378804
-0.356105
-0.333886
-0.312158
-0.290929
-0.270206
-0.24999
-0.230285
-0.211089
-0.1924
-0.174216
-0.156531
-0.139342
-0.122641
-0.106423
-0.0906791
-0.0754023
-0.0605843
-0.0462167
-0.0322909
-0.0187979
-0.00572876
0.00692548
0.0191739
0.0310256
0.0424896
0.0535748
0.0642902
0.0746445
0.0846463
0.0943043
0.103627
0.112622
0.121298
0.129663
0.137724
0.145489
0.152966
-1.33141
-1.05761
-1.0048
-0.965437
-0.938257
-0.915213
-0.8938
-0.872547
-0.850817
-0.828352
-0.805098
-0.781104
-0.756472
-0.731322
-0.705778
-0.679958
-0.653975
-0.627929
-0.601909
-0.575996
-0.550258
-0.524756
-0.499544
-0.474665
-0.450157
-0.426054
-0.402382
-0.379163
-0.356414
-0.33415
-0.312382
-0.291117
-0.27036
-0.250115
-0.230383
-0.211163
-0.192453
-0.17425
-0.156549
-0.139344
-0.122629
-0.106399
-0.0906439
-0.0753573
-0.0605307
-0.0461555
-0.0322228
-0.0187239
-0.00564957
0.00700923
0.0192616
0.0311167
0.0425837
0.0536714
0.0643888
0.0747448
0.0847481
0.0944072
0.103731
0.112726
0.121403
0.129768
0.137829
0.145594
0.153071
-1.26715
-1.05152
-1.00662
-0.966339
-0.939567
-0.916764
-0.895408
-0.874143
-0.852343
-0.829778
-0.806411
-0.782303
-0.757559
-0.732304
-0.706663
-0.680755
-0.654691
-0.628571
-0.602485
-0.576511
-0.550719
-0.525168
-0.499911
-0.474992
-0.450448
-0.426313
-0.402611
-0.379364
-0.356592
-0.334306
-0.312518
-0.291235
-0.270462
-0.250203
-0.230457
-0.211226
-0.192505
-0.174292
-0.156581
-0.139369
-0.122647
-0.10641
-0.0906496
-0.0753579
-0.0605266
-0.0461472
-0.0322108
-0.0187085
-0.00563123
0.00703022
0.019285
0.0311422
0.0426109
0.0537003
0.0644191
0.0747764
0.0847807
0.0944407
0.103765
0.112761
0.121438
0.129804
0.137865
0.145631
0.153108
-1.19962
-1.04336
-1.00511
-0.966379
-0.940521
-0.917999
-0.896767
-0.8755
-0.853645
-0.830997
-0.807536
-0.783332
-0.758496
-0.733154
-0.707432
-0.68145
-0.655318
-0.629137
-0.602995
-0.576971
-0.551133
-0.525541
-0.500246
-0.475293
-0.450719
-0.426554
-0.402827
-0.379557
-0.356763
-0.334458
-0.312653
-0.291354
-0.270567
-0.250294
-0.230537
-0.211294
-0.192564
-0.174342
-0.156623
-0.139403
-0.122675
-0.106432
-0.0906658
-0.0753691
-0.0605333
-0.0461498
-0.0322097
-0.0187041
-0.00562379
0.00704037
0.0192976
0.0311569
0.0426277
0.0537188
0.0644392
0.0747978
0.0848034
0.0944645
0.10379
0.112787
0.121465
0.129831
0.137893
0.145659
0.153136
0.160331
-1.14654
-1.03303
-1.00047
-0.96494
-0.940466
-0.918488
-0.897515
-0.876346
-0.85451
-0.831838
-0.808333
-0.784076
-0.759185
-0.733787
-0.708012
-0.68198
-0.655802
-0.629578
-0.603397
-0.577336
-0.551465
-0.525842
-0.500519
-0.47554
-0.450941
-0.426755
-0.403008
-0.37972
-0.356909
-0.334588
-0.312769
-0.291457
-0.270658
-0.250374
-0.230607
-0.211355
-0.192616
-0.174386
-0.156661
-0.139435
-0.122701
-0.106452
-0.0906809
-0.0753797
-0.0605398
-0.0461526
-0.0322091
-0.0187004
-0.00561726
0.00704947
0.019309
0.0311705
0.0426431
0.0537359
0.0644579
0.074818
0.0848248
0.094487
0.103813
0.112811
0.12149
0.129857
0.137919
0.145686
0.153163
0.160359
-1.1025
-1.02106
-0.993937
-0.962308
-0.939453
-0.918236
-0.897654
-0.876679
)
;

boundaryField
{
    inlet
    {
        type            zeroGradient;
    }
    outlet
    {
        type            fixedValue;
        value           nonuniform 0();
    }
    wall
    {
        type            zeroGradient;
    }
    wedge1
    {
        type            wedge;
    }
    wedge2
    {
        type            wedge;
    }
    axis
    {
        type            empty;
    }
    procBoundary21to15
    {
        type            processor;
        value           nonuniform List<scalar> 
70
(
-1.03165
-1.05964
-1.08968
-1.119
0.120908
0.129277
0.137343
0.145114
0.152596
-1.10906
-1.04009
-0.985881
-0.951075
-0.92493
-0.902228
-0.881064
-0.860356
-0.839393
-0.817807
-0.795466
-0.772377
-0.748611
-0.724272
-0.699475
-0.674339
-0.648976
-0.62349
-0.597974
-0.572514
-0.547183
-0.522046
-0.49716
-0.472573
-0.448328
-0.424459
-0.400996
-0.377964
-0.355383
-0.333269
-0.311635
-0.290489
-0.26984
-0.24969
-0.230043
-0.210898
-0.192256
-0.174112
-0.156463
-0.139306
-0.122633
-0.106438
-0.090716
-0.0754578
-0.0606561
-0.0463025
-0.0323888
-0.0189062
-0.00584592
0.00680083
0.019043
0.0308895
0.0423493
0.0534311
0.0641439
0.0744963
0.0844968
0.094154
0.103476
0.112471
0.112471
)
;
    }
    procBoundary21to16
    {
        type            processor;
        value           nonuniform List<scalar> 2(0.160017 0.160162);
    }
    procBoundary21to20
    {
        type            processor;
        value           uniform -1.15545;
    }
    procBoundary21to22
    {
        type            processor;
        value           nonuniform List<scalar> 5(0.160266 0.160303 0.160303 0.167252 0.167281);
    }
    procBoundary21to27
    {
        type            processor;
        value           nonuniform List<scalar> 
67
(
-0.854936
-0.832302
-0.808804
-0.784537
-0.759626
-0.734205
-0.708404
-0.682346
-0.656143
-0.629894
-0.603688
-0.577604
-0.551711
-0.526068
-0.500726
-0.475729
-0.451114
-0.426912
-0.40315
-0.379849
-0.357025
-0.334693
-0.312862
-0.29154
-0.270732
-0.25044
-0.230665
-0.211405
-0.192659
-0.174423
-0.156692
-0.13946
-0.122721
-0.106468
-0.0906923
-0.0753872
-0.0605436
-0.0461531
-0.0322065
-0.018695
-0.00560924
0.00705986
0.0193215
0.031185
0.0426595
0.0537539
0.0644774
0.0748388
0.0848469
0.0945102
0.103837
0.112836
0.121516
0.129883
0.137947
0.145714
0.153192
0.160388
-1.06397
-1.00937
-0.986336
-0.958751
-0.937626
-0.917321
-0.897239
-0.854936
-0.876543
)
;
    }
}


// ************************************************************************* //
