/*--------------------------------*- C++ -*----------------------------------*\
  =========                 |
  \\      /  F ield         | OpenFOAM: The Open Source CFD Toolbox
   \\    /   O peration     | Website:  https://openfoam.org
    \\  /    A nd           | Version:  7
     \\/     M anipulation  |
\*---------------------------------------------------------------------------*/
FoamFile
{
    version     2.0;
    format      ascii;
    class       volVectorField;
    location    "3.4";
    object      U;
}
// * * * * * * * * * * * * * * * * * * * * * * * * * * * * * * * * * * * * * //

dimensions      [0 1 -1 0 0 0 0];

internalField   nonuniform List<vector> 
16528
(
(1.00014 -0.000244853 7.84932e-16)
(1.00145 -0.000722192 2.10648e-16)
(1.00426 -0.00119827 1.50575e-15)
(1.00852 -0.00165953 2.08102e-15)
(1.0141 -0.00209531 2.68392e-15)
(1.02092 -0.00250064 2.69599e-15)
(1.02889 -0.00287138 -1.14469e-15)
(1.03791 -0.00320403 1.55076e-15)
(1.04785 -0.00349646 1.8038e-15)
(1.0586 -0.00374796 -1.34518e-15)
(1.07003 -0.00395903 -1.37273e-15)
(1.08202 -0.00413113 -7.59202e-16)
(1.09447 -0.00426645 -2.50448e-15)
(1.10727 -0.00436774 -2.2897e-15)
(1.12031 -0.00443812 -2.98188e-15)
(1.13352 -0.00448088 -3.23493e-15)
(1.14681 -0.00449934 -4.51044e-15)
(1.16013 -0.0044968 -3.47255e-15)
(1.17341 -0.00447635 -3.8822e-15)
(1.1866 -0.00444093 -4.97803e-15)
(1.19967 -0.00439319 -4.23684e-15)
(1.21258 -0.00433554 -5.02347e-15)
(1.2253 -0.00427011 -5.07062e-15)
(1.23783 -0.00419876 -1.12664e-14)
(1.25013 -0.00412312 -7.6816e-15)
(1.2622 -0.00404455 -6.41979e-15)
(1.27404 -0.00396422 -6.1572e-15)
(1.28564 -0.00388309 -5.90763e-15)
(1.297 -0.00380194 -5.64743e-15)
(1.30811 -0.00372142 -5.14481e-15)
(1.31899 -0.00364203 -5.51118e-15)
(1.32964 -0.00356415 -5.9636e-15)
(1.34006 -0.00348807 -5.47062e-15)
(1.35026 -0.00341402 -5.991e-15)
(1.36024 -0.00334211 -5.49082e-15)
(1.37001 -0.00327246 -5.63016e-15)
(1.37958 -0.00320508 -5.17955e-15)
(1.38895 -0.00313998 -5.0879e-15)
(1.39813 -0.00307714 -5.41586e-15)
(1.40713 -0.00301651 -6.0646e-15)
(1.41596 -0.00295803 -5.41288e-15)
(1.42461 -0.0029016 -5.14685e-15)
(1.4331 -0.00284716 -5.50801e-15)
(1.44143 -0.00279461 -5.67475e-15)
(1.44961 -0.00274384 -6.20576e-15)
(1.45764 -0.00269478 -6.8665e-15)
(1.46552 -0.00264732 -6.3464e-15)
(1.47327 -0.00260138 -6.01947e-15)
(1.48088 -0.00255686 -5.44031e-15)
(1.48837 -0.00251368 -6.51303e-15)
(1.49573 -0.00247176 -5.76321e-15)
(1.50296 -0.00243103 -6.18174e-15)
(1.51008 -0.00239141 -7.01018e-15)
(1.51708 -0.00235284 -6.71073e-15)
(1.52397 -0.00231525 -6.53646e-15)
(1.53075 -0.00227859 -7.19854e-15)
(1.53742 -0.0022428 -5.70825e-15)
(1.54398 -0.00220783 -5.37077e-15)
(1.55044 -0.00217365 -5.04961e-15)
(1.55681 -0.0021402 -5.35994e-15)
(1.56307 -0.00210745 -5.96881e-15)
(1.56924 -0.00207537 -6.19103e-15)
(1.57532 -0.00204392 -6.35025e-15)
(1.5813 -0.00201307 -6.95212e-15)
(1.58719 -0.0019828 -6.34657e-15)
(1.59299 -0.00195309 -6.4943e-15)
(1.59871 -0.00192391 -6.16054e-15)
(1.60434 -0.00189524 -6.47393e-15)
(1.60989 -0.00186706 -5.09043e-15)
(1.61535 -0.00183936 -4.07318e-15)
(1.62073 -0.00181213 -4.08149e-15)
(1.62603 -0.00178533 -5.15181e-15)
(1.63126 -0.00175898 -4.79544e-15)
(1.6364 -0.00173305 -4.14881e-15)
(1.64147 -0.00170752 -4.53109e-15)
(1.64647 -0.0016824 -4.75491e-15)
(1.65139 -0.00165767 -4.25809e-15)
(1.65624 -0.00163333 -4.6183e-15)
(1.66102 -0.00160936 -4.18978e-15)
(1.66573 -0.00158576 -4.56302e-15)
(1.67036 -0.00156252 -4.18067e-15)
(1.67493 -0.00153963 -3.70557e-15)
(1.67944 -0.00151709 -2.9829e-15)
(1.68387 -0.00149489 -3.70113e-15)
(1.68824 -0.00147302 -3.48686e-15)
(1.69255 -0.00145148 -3.46125e-15)
(1.6968 -0.00143027 -4.03214e-15)
(1.70098 -0.00140938 -4.96604e-15)
(1.7051 -0.0013888 -4.34324e-15)
(1.70916 -0.00136853 -5.18739e-15)
(1.71316 -0.00134857 -4.44167e-15)
(1.7171 -0.00132891 -4.28719e-15)
(1.72099 -0.00130954 -6.00067e-15)
(1.72482 -0.00129046 -4.48916e-15)
(1.72859 -0.00127167 -3.58709e-15)
(1.73231 -0.00125316 -3.77763e-15)
(1.73597 -0.00123494 -4.5735e-15)
(1.73958 -0.00121698 -4.22509e-15)
(1.74314 -0.0011993 -3.40169e-15)
(1.74664 -0.00118188 -4.11792e-15)
(1.7501 -0.00116473 -3.17297e-15)
(1.7535 -0.00114784 -3.41636e-15)
(1.75686 -0.0011312 -2.81467e-15)
(1.76016 -0.00111481 -3.18223e-15)
(1.76342 -0.00109867 -2.90195e-15)
(1.76663 -0.00108278 -2.68946e-15)
(1.7698 -0.00106712 -2.1793e-15)
(1.77291 -0.00105171 -2.62333e-15)
(1.77599 -0.00103653 -2.41838e-15)
(1.77902 -0.00102158 -2.28583e-15)
(1.782 -0.00100685 -2.27125e-15)
(1.78494 -0.000992356 -2.04686e-15)
(1.78784 -0.000978078 -1.80391e-15)
(1.7907 -0.000964019 -1.27118e-15)
(1.79352 -0.000950175 -1.34879e-15)
(1.7963 -0.000936543 -3.98979e-16)
(1.79903 -0.00092312 -2.01684e-15)
(1.80173 -0.000909904 -1.59351e-15)
(1.80439 -0.000896892 -1.02582e-15)
(1.80701 -0.000884081 -8.64924e-16)
(1.80959 -0.000871469 -1.4145e-15)
(1.81214 -0.000859055 -1.26778e-15)
(1.81465 -0.000846835 -1.72092e-15)
(1.81712 -0.000834809 -9.93177e-16)
(1.81956 -0.000822974 -1.10688e-15)
(1.82197 -0.000811329 -9.34212e-16)
(1.82434 -0.000799875 -1.4387e-15)
(1.82668 -0.000788608 -3.41907e-16)
(1.82898 -0.000777531 -1.51141e-15)
(1.83125 -0.000766643 -1.14107e-15)
(1.83349 -0.000755944 -6.69444e-16)
(1.8357 -0.000745438 -5.07403e-16)
(1.83788 -0.000735125 -9.02303e-16)
(1.84003 -0.000725009 -4.13683e-17)
(1.84215 -0.000715095 -1.12127e-15)
(1.84424 -0.000705388 -1.21034e-16)
(1.8463 -0.000695895 -6.04798e-16)
(1.84833 -0.000686625 5.29839e-17)
(1.85034 -0.000677589 -1.00487e-17)
(1.85232 -0.0006688 -2.71226e-16)
(1.85427 -0.000660274 2.69701e-16)
(1.8562 -0.00065203 1.66649e-16)
(1.85811 -0.000644091 -1.41696e-16)
(1.85999 -0.000636485 -1.61584e-16)
(1.86186 -0.000629244 1.47221e-16)
(1.8637 -0.000622408 -4.183e-16)
(1.86552 -0.000616023 -5.93707e-16)
(1.86732 -0.000610145 -1.15314e-16)
(1.86911 -0.000604838 1.34029e-15)
(1.87088 -0.00060018 -1.86892e-16)
(1.87264 -0.000596262 -5.64144e-16)
(1.87439 -0.000593192 8.02886e-18)
(1.87613 -0.000591097 4.75946e-16)
(1.87787 -0.000590129 -1.10728e-17)
(1.87961 -0.000590462 3.93393e-16)
(1.88135 -0.000592308 8.86203e-16)
(1.88309 -0.000595911 7.90162e-16)
(1.88485 -0.000601561 -2.7164e-16)
(1.88663 -0.000609599 5.13284e-16)
(1.88844 -0.000620426 1.5876e-16)
(1.89028 -0.000634514 5.79493e-16)
(1.89218 -0.000652416 -1.77813e-16)
(1.89413 -0.000674783 6.25474e-16)
(1.89615 -0.00070238 1.00927e-15)
(1.89826 -0.0007361 1.02097e-15)
(1.90048 -0.000776994 6.58885e-16)
(1.90284 -0.000826288 -2.20022e-17)
(1.90535 -0.000885417 3.30804e-16)
(1.90805 -0.000956055 -4.18577e-16)
(1.91098 -0.00104015 8.59978e-16)
(1.91418 -0.00113997 1.59841e-16)
(1.9177 -0.00125814 7.94279e-16)
(1.92159 -0.0013977 5.07212e-16)
(1.92593 -0.00156215 6.49297e-16)
(1.9308 -0.0017555 4.59224e-16)
(1.93628 -0.00198233 1.13621e-15)
(1.94248 -0.00224783 6.12898e-16)
(1.94953 -0.00255783 3.88408e-16)
(1.95756 -0.00291886 4.14188e-16)
(1.96673 -0.00333807 4.13112e-16)
(1.97724 -0.00382324 6.75123e-16)
(1.98927 -0.00438264 7.50584e-16)
(2.00308 -0.00502483 -1.68123e-16)
(2.0189 -0.00575837 2.59242e-16)
(2.03704 -0.00659132 3.99651e-16)
(2.05778 -0.00753067 8.63185e-16)
(2.08146 -0.00858143 1.86994e-16)
(2.1084 -0.00974557 7.70625e-17)
(2.13895 -0.0110207 9.33286e-16)
(2.17343 -0.0123985 6.12713e-16)
(2.21212 -0.013863 4.217e-16)
(2.25525 -0.0153891 8.84441e-16)
(2.30296 -0.0169408 1.24465e-15)
(2.35527 -0.018471 7.59924e-16)
(2.41205 -0.019921 9.94993e-16)
(2.47295 -0.0212232 7.35398e-16)
(2.53745 -0.0223038 9.41352e-16)
(2.6048 -0.0230894 6.83492e-16)
(2.674 -0.0235145 1.13432e-15)
(2.74392 -0.0235296 1.11768e-15)
(1.00014 -0.000568189 2.70485e-16)
(1.00147 -0.00169332 4.09961e-16)
(1.0043 -0.00280669 4.86369e-15)
(1.00858 -0.00388364 6.41868e-15)
(1.01421 -0.00490282 2.66021e-15)
(1.02108 -0.00585089 5.54483e-15)
(1.02911 -0.00671746 -1.47678e-15)
(1.03819 -0.00749446 3.81818e-15)
(1.04819 -0.0081771 1.53238e-15)
(1.059 -0.00876381 -3.31411e-15)
(1.07049 -0.00925581 -2.3501e-15)
(1.08255 -0.00965658 -1.90901e-15)
(1.09505 -0.00997132 -5.60059e-15)
(1.1079 -0.0102065 -7.68278e-15)
(1.12099 -0.0103696 -6.25915e-15)
(1.13424 -0.0104681 -9.0147e-15)
(1.14758 -0.01051 -1.06132e-14)
(1.16093 -0.010503 -8.11339e-15)
(1.17425 -0.0104542 -1.06424e-14)
(1.18747 -0.0103706 -1.20339e-14)
(1.20056 -0.0102583 -9.07583e-15)
(1.2135 -0.010123 -1.16954e-14)
(1.22624 -0.00996964 -1.29317e-14)
(1.23878 -0.00980252 -1.10401e-14)
(1.2511 -0.00962543 -1.27359e-14)
(1.26319 -0.00944156 -1.32386e-14)
(1.27504 -0.00925361 -1.37167e-14)
(1.28665 -0.00906381 -1.43894e-14)
(1.29802 -0.008874 -1.04811e-14)
(1.30914 -0.00868565 -1.18687e-14)
(1.32003 -0.00849994 -1.25007e-14)
(1.33068 -0.00831775 -1.2866e-14)
(1.3411 -0.00813978 -1.33948e-14)
(1.3513 -0.0079665 -1.43072e-14)
(1.36128 -0.00779824 -1.07956e-14)
(1.37105 -0.0076352 -1.19074e-14)
(1.38061 -0.00747747 -1.28641e-14)
(1.38998 -0.00732505 -1.33473e-14)
(1.39916 -0.00717789 -1.35181e-14)
(1.40815 -0.00703588 -1.42749e-14)
(1.41696 -0.00689885 -1.0905e-14)
(1.4256 -0.00676664 -1.21869e-14)
(1.43407 -0.00663904 -1.29207e-14)
(1.44239 -0.00651584 -1.3578e-14)
(1.45055 -0.00639683 -1.38155e-14)
(1.45856 -0.00628178 -1.42074e-14)
(1.46642 -0.00617049 -1.43584e-14)
(1.47415 -0.00606273 -1.43842e-14)
(1.48173 -0.00595831 -1.46157e-14)
(1.48919 -0.00585703 -1.46409e-14)
(1.49652 -0.00575869 -1.43976e-14)
(1.50373 -0.00566314 -1.45954e-14)
(1.51081 -0.0055702 -1.50434e-14)
(1.51778 -0.00547971 -1.46737e-14)
(1.52463 -0.00539154 -1.47559e-14)
(1.53137 -0.00530554 -1.56457e-14)
(1.538 -0.0052216 -1.1572e-14)
(1.54453 -0.0051396 -1.22392e-14)
(1.55095 -0.00505944 -1.25555e-14)
(1.55727 -0.00498102 -1.28514e-14)
(1.5635 -0.00490425 -1.31651e-14)
(1.56962 -0.00482905 -1.34493e-14)
(1.57565 -0.00475535 -1.35562e-14)
(1.58159 -0.00468308 -1.4035e-14)
(1.58743 -0.00461218 -1.37369e-14)
(1.59319 -0.00454258 -1.41798e-14)
(1.59886 -0.00447425 -1.34728e-14)
(1.60444 -0.00440713 -1.50625e-14)
(1.60993 -0.00434118 -8.63398e-15)
(1.61535 -0.00427636 -1.02627e-14)
(1.62068 -0.00421263 -1.12065e-14)
(1.62593 -0.00414996 -1.20336e-14)
(1.6311 -0.00408832 -9.35308e-15)
(1.6362 -0.00402768 -1.05244e-14)
(1.64121 -0.00396802 -1.08502e-14)
(1.64616 -0.00390931 -1.156e-14)
(1.65102 -0.00385153 -8.6456e-15)
(1.65582 -0.00379465 -9.9727e-15)
(1.66054 -0.00373867 -1.06113e-14)
(1.6652 -0.00368355 -1.1128e-14)
(1.66978 -0.00362929 -8.89131e-15)
(1.6743 -0.00357586 -6.33868e-15)
(1.67875 -0.00352325 -7.66937e-15)
(1.68313 -0.00347145 -8.60479e-15)
(1.68745 -0.00342044 -9.061e-15)
(1.6917 -0.00337021 -9.60824e-15)
(1.69589 -0.00332074 -1.02733e-14)
(1.70002 -0.00327202 -1.09059e-14)
(1.70409 -0.00322405 -1.09905e-14)
(1.70809 -0.00317681 -1.11819e-14)
(1.71204 -0.00313028 -1.14845e-14)
(1.71593 -0.00308446 -1.15465e-14)
(1.71976 -0.00303934 -1.30303e-14)
(1.72354 -0.0029949 -6.78717e-15)
(1.72726 -0.00295114 -8.5129e-15)
(1.73093 -0.00290804 -9.59547e-15)
(1.73454 -0.0028656 -1.05244e-14)
(1.7381 -0.0028238 -7.9457e-15)
(1.7416 -0.00278264 -8.70721e-15)
(1.74506 -0.00274211 -9.75344e-15)
(1.74846 -0.00270219 -6.9875e-15)
(1.75182 -0.00266288 -8.59261e-15)
(1.75512 -0.00262417 -6.2191e-15)
(1.75838 -0.00258605 -8.03528e-15)
(1.76159 -0.00254851 -5.40101e-15)
(1.76475 -0.00251155 -7.292e-15)
(1.76787 -0.00247515 -4.56695e-15)
(1.77094 -0.0024393 -6.67611e-15)
(1.77396 -0.00240401 -4.39363e-15)
(1.77695 -0.00236925 -5.85856e-15)
(1.77989 -0.00233503 -3.65713e-15)
(1.78278 -0.00230133 -5.37379e-15)
(1.78564 -0.00226815 -3.3955e-15)
(1.78845 -0.00223548 -1.84441e-15)
(1.79122 -0.00220331 -4.0948e-15)
(1.79395 -0.00217163 -1.84297e-15)
(1.79665 -0.00214045 -4.05822e-15)
(1.7993 -0.00210975 -2.10289e-15)
(1.80192 -0.00207952 -3.74963e-15)
(1.8045 -0.00204976 -1.75536e-15)
(1.80704 -0.00202047 -3.74232e-15)
(1.80954 -0.00199164 -1.45133e-15)
(1.81201 -0.00196326 -3.24335e-15)
(1.81445 -0.00193534 -1.0081e-15)
(1.81685 -0.00190786 -3.14715e-15)
(1.81921 -0.00188082 -1.21349e-15)
(1.82154 -0.00185423 -3.43998e-15)
(1.82384 -0.00182808 -1.07207e-15)
(1.82611 -0.00180236 -2.8743e-15)
(1.82834 -0.00177709 -7.08e-16)
(1.83054 -0.00175226 -2.41107e-15)
(1.83271 -0.00172787 -3.38836e-16)
(1.83486 -0.00170394 -2.0569e-15)
(1.83697 -0.00168046 -2.01963e-17)
(1.83905 -0.00165745 -2.18585e-15)
(1.84111 -0.00163493 -2.33013e-16)
(1.84313 -0.0016129 -1.93574e-15)
(1.84513 -0.00159139 -2.75412e-16)
(1.8471 -0.00157043 4.18228e-16)
(1.84905 -0.00155004 8.00059e-16)
(1.85097 -0.00153026 1.50466e-15)
(1.85287 -0.00151113 -9.03316e-16)
(1.85474 -0.00149271 7.95833e-16)
(1.85659 -0.00147507 -1.00282e-15)
(1.85842 -0.00145827 7.82681e-16)
(1.86023 -0.00144242 -1.04899e-15)
(1.86202 -0.00142761 -7.33035e-17)
(1.8638 -0.00141398 6.67381e-16)
(1.86555 -0.00140167 2.02881e-15)
(1.86729 -0.00139087 -4.38877e-16)
(1.86902 -0.00138179 1.33119e-15)
(1.87074 -0.00137467 -6.85897e-16)
(1.87245 -0.00136982 1.24323e-15)
(1.87416 -0.00136758 -6.1313e-16)
(1.87587 -0.00136836 4.06992e-16)
(1.87758 -0.00137265 1.53309e-15)
(1.87929 -0.00138101 2.34733e-15)
(1.88102 -0.00139413 -1.86707e-16)
(1.88278 -0.00141278 1.71867e-15)
(1.88455 -0.0014379 -6.67146e-16)
(1.88637 -0.00147059 1.36832e-15)
(1.88823 -0.00151213 -4.68818e-16)
(1.89014 -0.00156403 6.34065e-16)
(1.89213 -0.00162807 1.57038e-15)
(1.89421 -0.00170631 2.14295e-15)
(1.8964 -0.00180119 2.82162e-15)
(1.89872 -0.00191558 1.53886e-16)
(1.90119 -0.00205278 1.79344e-15)
(1.90385 -0.0022167 -1.16687e-16)
(1.90674 -0.00241185 1.76081e-15)
(1.90989 -0.00264351 -3.38722e-17)
(1.91336 -0.00291778 1.22772e-15)
(1.9172 -0.00324173 1.70319e-15)
(1.92148 -0.00362347 3.05329e-15)
(1.92628 -0.00407237 8.5241e-16)
(1.93169 -0.00459906 2.18671e-15)
(1.93782 -0.00521566 1.76191e-16)
(1.94478 -0.00593577 1.61428e-15)
(1.95271 -0.00677459 2.75433e-16)
(1.96178 -0.00774887 1.13272e-15)
(1.97217 -0.00887682 2.0164e-15)
(1.98408 -0.0101778 2.8847e-15)
(1.99775 -0.0116721 9.6526e-16)
(2.01342 -0.0133797 2.18507e-15)
(2.03139 -0.0153199 7.2871e-16)
(2.05197 -0.0175095 2.18529e-15)
(2.07547 -0.0199606 7.01893e-16)
(2.10224 -0.0226785 1.95602e-15)
(2.13263 -0.0256586 2.35714e-15)
(2.16695 -0.0288821 2.69048e-15)
(2.20552 -0.0323126 3.26088e-15)
(2.24857 -0.035892 1.69763e-15)
(2.29626 -0.0395368 2.81442e-15)
(2.34862 -0.0431364 1.51752e-15)
(2.40552 -0.0465527 2.60987e-15)
(2.46666 -0.0496256 1.67202e-15)
(2.53149 -0.0521796 2.29755e-15)
(2.59925 -0.0540393 2.68334e-15)
(2.66896 -0.0550477 3.17556e-15)
(2.73944 -0.0550858 2.4987e-15)
(1.00015 -0.000928354 1.3066e-16)
(1.0015 -0.0027836 2.92492e-15)
(1.00437 -0.00461125 2.58148e-15)
(1.00873 -0.00637593 4.92029e-16)
(1.01445 -0.00804666 -2.39484e-15)
(1.02144 -0.00960001 -2.62754e-16)
(1.02959 -0.0110179 -1.23662e-15)
(1.0388 -0.0122873 -2.76689e-17)
(1.04895 -0.0134006 1.1971e-16)
(1.0599 -0.0143557 -1.67498e-15)
(1.07152 -0.0151549 -2.1855e-15)
(1.08371 -0.0158041 -2.11016e-15)
(1.09634 -0.0163123 -3.39747e-15)
(1.1093 -0.0166904 -5.04999e-15)
(1.12251 -0.0169505 -7.58115e-15)
(1.13586 -0.0171056 -7.30753e-15)
(1.14929 -0.0171686 -7.69553e-15)
(1.16272 -0.0171519 -9.81866e-15)
(1.17611 -0.0170678 -9.41366e-15)
(1.1894 -0.0169272 -9.77503e-15)
(1.20255 -0.0167403 -1.13921e-14)
(1.21554 -0.0165162 -1.1008e-14)
(1.22833 -0.016263 -1.11781e-14)
(1.24091 -0.0159878 -1.06461e-14)
(1.25327 -0.0156966 -1.06673e-14)
(1.26539 -0.0153945 -1.10003e-14)
(1.27726 -0.015086 -1.17211e-14)
(1.2889 -0.0147746 -1.24909e-14)
(1.30028 -0.0144632 -9.02387e-15)
(1.31142 -0.0141543 -9.82168e-15)
(1.32232 -0.0138497 -1.03565e-14)
(1.33298 -0.0135508 -1.10137e-14)
(1.3434 -0.0132588 -1.13831e-14)
(1.3536 -0.0129744 -1.18366e-14)
(1.36358 -0.0126982 -1.11284e-14)
(1.37334 -0.0124304 -1.10279e-14)
(1.38289 -0.0121712 -1.10559e-14)
(1.39224 -0.0119206 -1.14675e-14)
(1.40139 -0.0116785 -1.17946e-14)
(1.41036 -0.0114448 -1.2111e-14)
(1.41915 -0.0112192 -1.14679e-14)
(1.42775 -0.0110014 -1.13085e-14)
(1.43619 -0.0107911 -1.15414e-14)
(1.44447 -0.010588 -1.18213e-14)
(1.45258 -0.0103918 -1.20319e-14)
(1.46054 -0.0102019 -1.22184e-14)
(1.46835 -0.0100183 -1.23454e-14)
(1.47602 -0.0098404 -1.25471e-14)
(1.48355 -0.009668 -1.27267e-14)
(1.49094 -0.00950076 -1.29499e-14)
(1.4982 -0.00933837 -1.30348e-14)
(1.50534 -0.00918058 -1.27909e-14)
(1.51235 -0.00902709 -1.30593e-14)
(1.51924 -0.00887768 -1.29476e-14)
(1.52601 -0.00873211 -1.28973e-14)
(1.53267 -0.00859016 -1.38329e-14)
(1.53921 -0.00845164 -1.0529e-14)
(1.54565 -0.00831636 -1.08645e-14)
(1.55198 -0.00818415 -1.1327e-14)
(1.55821 -0.00805486 -1.14539e-14)
(1.56433 -0.00792835 -1.17702e-14)
(1.57036 -0.00780447 -1.18286e-14)
(1.57628 -0.00768312 -1.18581e-14)
(1.58212 -0.00756418 -1.19871e-14)
(1.58786 -0.00744754 -1.2131e-14)
(1.59351 -0.00733312 -1.22181e-14)
(1.59906 -0.00722084 -1.21826e-14)
(1.60454 -0.0071106 -1.25754e-14)
(1.60992 -0.00700235 -1.15219e-14)
(1.61522 -0.00689601 -1.05316e-14)
(1.62044 -0.00679152 -1.05561e-14)
(1.62557 -0.00668882 -9.89706e-15)
(1.63063 -0.00658788 -9.83819e-15)
(1.63561 -0.00648862 -9.06793e-15)
(1.64051 -0.00639102 -9.13246e-15)
(1.64533 -0.00629503 -8.57691e-15)
(1.65008 -0.00620061 -8.38576e-15)
(1.65476 -0.00610773 -7.96724e-15)
(1.65937 -0.00601634 -8.27146e-15)
(1.6639 -0.00592643 -7.96527e-15)
(1.66837 -0.00583795 -8.13737e-15)
(1.67276 -0.00575088 -5.23598e-15)
(1.67709 -0.00566519 -5.77232e-15)
(1.68136 -0.00558086 -6.28891e-15)
(1.68556 -0.00549785 -6.83447e-15)
(1.68969 -0.00541616 -7.19557e-15)
(1.69376 -0.00533574 -7.92435e-15)
(1.69777 -0.00525659 -8.24604e-15)
(1.70172 -0.00517867 -8.49854e-15)
(1.70561 -0.00510198 -8.91364e-15)
(1.70945 -0.00502648 -9.29933e-15)
(1.71322 -0.00495216 -9.29007e-15)
(1.71694 -0.004879 -1.00266e-14)
(1.7206 -0.00480698 -8.94448e-15)
(1.7242 -0.00473608 -8.01566e-15)
(1.72776 -0.00466629 -8.24332e-15)
(1.73125 -0.00459758 -7.8199e-15)
(1.7347 -0.00452995 -7.74231e-15)
(1.7381 -0.00446336 -6.92464e-15)
(1.74144 -0.00439782 -7.17193e-15)
(1.74473 -0.00433329 -6.56437e-15)
(1.74798 -0.00426976 -6.49645e-15)
(1.75118 -0.00420723 -5.55848e-15)
(1.75433 -0.00414567 -5.19512e-15)
(1.75743 -0.00408506 -4.30519e-15)
(1.76049 -0.0040254 -4.01462e-15)
(1.7635 -0.00396667 -3.2446e-15)
(1.76647 -0.00390885 -3.1858e-15)
(1.76939 -0.00385193 -2.54438e-15)
(1.77227 -0.00379589 -2.37139e-15)
(1.77511 -0.00374073 -1.65557e-15)
(1.77791 -0.00368643 -1.25564e-15)
(1.78066 -0.00363298 -1.17054e-15)
(1.78338 -0.00358035 -5.50065e-16)
(1.78605 -0.00352855 -8.07415e-16)
(1.78869 -0.00347756 -2.85525e-16)
(1.79129 -0.00342737 -2.09795e-16)
(1.79385 -0.00337796 2.21498e-16)
(1.79637 -0.00332934 8.92547e-17)
(1.79886 -0.00328147 6.89321e-16)
(1.80131 -0.00323437 4.61911e-16)
(1.80372 -0.00318801 9.56487e-16)
(1.8061 -0.00314239 9.35745e-16)
(1.80845 -0.0030975 1.43443e-15)
(1.81076 -0.00305334 1.32729e-15)
(1.81304 -0.0030099 1.87706e-15)
(1.81528 -0.00296718 1.57468e-15)
(1.8175 -0.00292517 2.08179e-15)
(1.81968 -0.00288387 1.69085e-15)
(1.82183 -0.00284329 2.27917e-15)
(1.82395 -0.00280342 2.1813e-15)
(1.82604 -0.00276427 2.83453e-15)
(1.82811 -0.00272586 2.5868e-15)
(1.83014 -0.00268819 3.02683e-15)
(1.83214 -0.00265127 2.66905e-15)
(1.83412 -0.00261513 3.01846e-15)
(1.83607 -0.0025798 2.99439e-15)
(1.838 -0.0025453 2.94542e-15)
(1.83989 -0.00251168 3.09201e-15)
(1.84177 -0.00247898 3.20036e-15)
(1.84362 -0.00244727 3.60789e-15)
(1.84544 -0.00241661 3.48255e-15)
(1.84725 -0.0023871 3.82524e-15)
(1.84903 -0.00235883 3.69505e-15)
(1.85079 -0.00233192 3.98162e-15)
(1.85253 -0.00230653 3.89001e-15)
(1.85425 -0.00228282 3.67703e-15)
(1.85595 -0.00226099 3.98228e-15)
(1.85764 -0.00224131 4.31923e-15)
(1.85932 -0.00222404 4.20001e-15)
(1.86098 -0.00220953 4.42195e-15)
(1.86264 -0.00219818 4.25029e-15)
(1.86428 -0.00219048 4.59995e-15)
(1.86593 -0.00218696 4.42197e-15)
(1.86757 -0.00218831 4.46816e-15)
(1.86921 -0.00219528 4.54916e-15)
(1.87086 -0.00220881 4.87776e-15)
(1.87253 -0.00222997 4.60116e-15)
(1.87422 -0.00226004 5.08998e-15)
(1.87593 -0.0023005 4.48797e-15)
(1.87767 -0.00235311 4.91069e-15)
(1.87947 -0.00241995 4.84224e-15)
(1.88132 -0.00250344 4.4107e-15)
(1.88324 -0.00260643 4.58005e-15)
(1.88524 -0.00273226 4.71679e-15)
(1.88735 -0.00288485 4.91866e-15)
(1.88959 -0.00306879 4.74056e-15)
(1.89198 -0.00328943 4.97822e-15)
(1.89456 -0.00355304 4.96205e-15)
(1.89735 -0.00386691 5.08225e-15)
(1.9004 -0.00423953 4.84705e-15)
(1.90376 -0.00468075 4.88801e-15)
(1.90749 -0.00520198 4.89213e-15)
(1.91164 -0.00581635 5.4677e-15)
(1.9163 -0.00653898 5.22603e-15)
(1.92156 -0.00738713 5.46894e-15)
(1.92751 -0.00838044 5.26338e-15)
(1.93429 -0.00954103 5.4344e-15)
(1.94201 -0.0108937 5.13223e-15)
(1.95085 -0.0124658 5.22665e-15)
(1.96099 -0.0142872 5.22404e-15)
(1.97262 -0.0163898 5.34619e-15)
(1.98598 -0.0188072 5.32624e-15)
(2.00133 -0.021573 5.49158e-15)
(2.01895 -0.0247197 5.33723e-15)
(2.03915 -0.0282762 5.4592e-15)
(2.06227 -0.0322646 5.4277e-15)
(2.08866 -0.0366961 5.45974e-15)
(2.11868 -0.0415658 5.61705e-15)
(2.15267 -0.0468468 5.65887e-15)
(2.19096 -0.0524827 5.85224e-15)
(2.23383 -0.0583817 5.60415e-15)
(2.28146 -0.0644087 5.98095e-15)
(2.33392 -0.0703833 5.74246e-15)
(2.39112 -0.0760759 5.78696e-15)
(2.45276 -0.081219 5.64832e-15)
(2.51832 -0.0855139 5.68861e-15)
(2.58704 -0.0886603 5.7724e-15)
(2.65788 -0.0903856 5.84906e-15)
(2.72959 -0.0904797 5.72435e-15)
(1.00015 -0.00130711 -1.16948e-16)
(1.00154 -0.00392477 5.85322e-16)
(1.00449 -0.00649999 2.05399e-15)
(1.00897 -0.0089833 8.45514e-16)
(1.01484 -0.0113323 -2.66451e-15)
(1.022 -0.0135131 -3.63461e-16)
(1.03035 -0.0154997 -2.70785e-15)
(1.03977 -0.0172742 -6.67083e-16)
(1.05012 -0.0188264 -7.64343e-16)
(1.06129 -0.0201539 -3.31116e-15)
(1.07313 -0.0212607 -2.93895e-15)
(1.08552 -0.022156 -2.82761e-15)
(1.09835 -0.0228531 -4.85545e-15)
(1.11149 -0.0233678 -6.3816e-15)
(1.12486 -0.0237177 -5.57e-15)
(1.13837 -0.0239213 -7.27975e-15)
(1.15194 -0.023997 -8.15706e-15)
(1.1655 -0.0239625 -7.72103e-15)
(1.179 -0.0238347 -9.21066e-15)
(1.19239 -0.0236292 -1.01518e-14)
(1.20563 -0.02336 -9.33532e-15)
(1.2187 -0.0230399 -1.06102e-14)
(1.23156 -0.02268 -1.15279e-14)
(1.24421 -0.0222901 -1.05983e-14)
(1.25662 -0.0218785 -1.14503e-14)
(1.26878 -0.0214522 -1.19542e-14)
(1.2807 -0.0210172 -1.23146e-14)
(1.29236 -0.0205785 -1.29e-14)
(1.30377 -0.02014 -1.08039e-14)
(1.31493 -0.0197051 -1.12788e-14)
(1.32583 -0.0192762 -1.18761e-14)
(1.3365 -0.0188553 -1.21273e-14)
(1.34692 -0.0184439 -1.23688e-14)
(1.35711 -0.0180431 -1.27763e-14)
(1.36707 -0.0176536 -1.12256e-14)
(1.37681 -0.0172757 -1.17497e-14)
(1.38633 -0.0169098 -1.22057e-14)
(1.39565 -0.0165558 -1.24835e-14)
(1.40476 -0.0162136 -1.27157e-14)
(1.41368 -0.015883 -1.30251e-14)
(1.42241 -0.0155636 -1.15416e-14)
(1.43096 -0.0152552 -1.20722e-14)
(1.43933 -0.0149572 -1.22291e-14)
(1.44753 -0.0146692 -1.26262e-14)
(1.45556 -0.0143907 -1.27834e-14)
(1.46344 -0.0141213 -1.30054e-14)
(1.47116 -0.0138606 -1.32568e-14)
(1.47873 -0.013608 -1.33199e-14)
(1.48615 -0.0133631 -1.33747e-14)
(1.49344 -0.0131256 -1.34869e-14)
(1.50059 -0.0128949 -1.36023e-14)
(1.5076 -0.0126708 -1.36099e-14)
(1.51449 -0.0124528 -1.36171e-14)
(1.52125 -0.0122407 -1.37107e-14)
(1.52788 -0.0120341 -1.36688e-14)
(1.5344 -0.0118327 -1.42151e-14)
(1.54081 -0.0116362 -1.2014e-14)
(1.5471 -0.0114444 -1.21201e-14)
(1.55328 -0.0112571 -1.22788e-14)
(1.55935 -0.0110741 -1.22124e-14)
(1.56532 -0.0108951 -1.23456e-14)
(1.57119 -0.0107199 -1.26467e-14)
(1.57695 -0.0105484 -1.26961e-14)
(1.58262 -0.0103805 -1.28322e-14)
(1.58819 -0.010216 -1.27592e-14)
(1.59367 -0.0100547 -1.28862e-14)
(1.59906 -0.00989652 -1.28802e-14)
(1.60436 -0.00974138 -1.32247e-14)
(1.60957 -0.00958917 -1.21638e-14)
(1.61469 -0.00943977 -9.39116e-15)
(1.61973 -0.00929311 -1.10131e-14)
(1.62469 -0.00914909 -8.53009e-15)
(1.62957 -0.00900764 -1.01319e-14)
(1.63436 -0.00886869 -7.47849e-15)
(1.63908 -0.00873216 -9.28332e-15)
(1.64373 -0.00859801 -6.94419e-15)
(1.64829 -0.00846616 -8.57143e-15)
(1.65279 -0.00833657 -6.26922e-15)
(1.65721 -0.00820917 -8.00915e-15)
(1.66156 -0.00808392 -5.80878e-15)
(1.66585 -0.00796077 -7.5805e-15)
(1.67006 -0.00783968 -6.13311e-15)
(1.67421 -0.00772061 -6.73217e-15)
(1.67829 -0.00760351 -7.22351e-15)
(1.68231 -0.00748834 -7.53821e-15)
(1.68627 -0.00737506 -8.05274e-15)
(1.69016 -0.00726365 -8.46322e-15)
(1.69399 -0.00715406 -8.80362e-15)
(1.69776 -0.00704626 -9.12341e-15)
(1.70147 -0.00694021 -9.28786e-15)
(1.70513 -0.0068359 -9.56836e-15)
(1.70873 -0.00673327 -9.75644e-15)
(1.71227 -0.00663231 -1.02462e-14)
(1.71576 -0.00653299 -9.29908e-15)
(1.71919 -0.00643527 -6.83478e-15)
(1.72257 -0.00633913 -8.30517e-15)
(1.7259 -0.00624454 -6.05316e-15)
(1.72918 -0.00615148 -7.72224e-15)
(1.7324 -0.00605991 -5.4431e-15)
(1.73558 -0.00596982 -7.0905e-15)
(1.73871 -0.00588117 -5.38379e-15)
(1.74179 -0.00579394 -4.26575e-15)
(1.74483 -0.00570812 -3.33636e-15)
(1.74782 -0.00562367 -2.53045e-15)
(1.75076 -0.00554057 -1.88996e-15)
(1.75366 -0.0054588 -1.39954e-15)
(1.75652 -0.00537834 -7.44283e-16)
(1.75933 -0.00529917 -2.35131e-16)
(1.7621 -0.00522126 2.11292e-16)
(1.76483 -0.00514459 6.61125e-16)
(1.76751 -0.00506914 1.06677e-15)
(1.77016 -0.0049949 1.53559e-15)
(1.77277 -0.00492185 6.82385e-16)
(1.77534 -0.00484996 1.41132e-15)
(1.77787 -0.00477921 1.89178e-15)
(1.78036 -0.0047096 2.2577e-15)
(1.78282 -0.00464109 2.66193e-15)
(1.78524 -0.00457369 3.01554e-15)
(1.78762 -0.00450736 3.16244e-15)
(1.78997 -0.0044421 3.59342e-15)
(1.79229 -0.00437789 3.71303e-15)
(1.79457 -0.00431472 3.97706e-15)
(1.79682 -0.00425257 4.19047e-15)
(1.79903 -0.00419144 4.51129e-15)
(1.80121 -0.00413131 4.57831e-15)
(1.80336 -0.00407218 4.74597e-15)
(1.80548 -0.00401403 4.99159e-15)
(1.80757 -0.00395688 5.2203e-15)
(1.80963 -0.0039007 5.26853e-15)
(1.81166 -0.00384551 5.58298e-15)
(1.81366 -0.00379131 5.66128e-15)
(1.81563 -0.0037381 5.91216e-15)
(1.81758 -0.0036859 5.84731e-15)
(1.81949 -0.00363471 6.06739e-15)
(1.82138 -0.00358457 6.06493e-15)
(1.82325 -0.00353549 6.18452e-15)
(1.82508 -0.00348751 6.64359e-15)
(1.8269 -0.00344068 5.34422e-15)
(1.82868 -0.00339505 5.72873e-15)
(1.83045 -0.00335069 6.04024e-15)
(1.83219 -0.00330767 6.34469e-15)
(1.83391 -0.0032661 6.62159e-15)
(1.83561 -0.00322608 6.73639e-15)
(1.83728 -0.00318777 6.82569e-15)
(1.83894 -0.00315131 7.01079e-15)
(1.84058 -0.00311692 7.12946e-15)
(1.8422 -0.00308483 7.1847e-15)
(1.84381 -0.00305531 7.25503e-15)
(1.8454 -0.0030287 7.50794e-15)
(1.84697 -0.00300539 7.44193e-15)
(1.84854 -0.00298585 7.62377e-15)
(1.8501 -0.00297061 7.73144e-15)
(1.85165 -0.00296032 7.91315e-15)
(1.85319 -0.00295576 7.90828e-15)
(1.85474 -0.00295781 7.92799e-15)
(1.85629 -0.00296754 7.98916e-15)
(1.85785 -0.0029862 8.15028e-15)
(1.85942 -0.00301525 8.1577e-15)
(1.86101 -0.00305644 8.29262e-15)
(1.86262 -0.00311179 8.18421e-15)
(1.86427 -0.00318371 8.23807e-15)
(1.86596 -0.00327502 8.44739e-15)
(1.86771 -0.00338902 7.19492e-15)
(1.86952 -0.0035296 7.61968e-15)
(1.87142 -0.00370133 7.91051e-15)
(1.87342 -0.00390955 7.94366e-15)
(1.87554 -0.00416053 7.9705e-15)
(1.87781 -0.00446159 8.38446e-15)
(1.88026 -0.00482129 8.24936e-15)
(1.88291 -0.00524963 8.25751e-15)
(1.88581 -0.00575821 8.38088e-15)
(1.88901 -0.00636055 8.39077e-15)
(1.89257 -0.00707229 8.43949e-15)
(1.89653 -0.0079115 8.5841e-15)
(1.90098 -0.00889899 8.60508e-15)
(1.90601 -0.0100586 8.74174e-15)
(1.91171 -0.0114174 8.73041e-15)
(1.9182 -0.0130061 8.80948e-15)
(1.92562 -0.0148592 8.66546e-15)
(1.93411 -0.017015 8.58733e-15)
(1.94387 -0.0195154 8.53668e-15)
(1.95508 -0.0224057 8.70505e-15)
(1.96798 -0.0257335 8.68791e-15)
(1.98282 -0.0295476 8.67743e-15)
(1.99991 -0.0338957 8.74e-15)
(2.01954 -0.0388214 8.61159e-15)
(2.04207 -0.04436 8.78991e-15)
(2.06787 -0.0505323 7.95714e-15)
(2.09731 -0.0573383 8.21046e-15)
(2.13077 -0.0647474 8.21156e-15)
(2.16862 -0.0726885 8.54765e-15)
(2.21118 -0.0810403 8.51657e-15)
(2.25869 -0.0896177 8.47265e-15)
(2.31127 -0.0981703 8.42913e-15)
(2.36889 -0.106369 8.51306e-15)
(2.4313 -0.11383 8.45812e-15)
(2.498 -0.120107 8.30818e-15)
(2.5682 -0.124752 8.19291e-15)
(2.64081 -0.127347 8.11972e-15)
(2.7145 -0.12756 7.89685e-15)
(1.00016 -0.00170623 7.93931e-18)
(1.00159 -0.00512507 -3.68112e-16)
(1.00466 -0.00848603 -1.56502e-15)
(1.0093 -0.0117228 -1.11338e-15)
(1.01537 -0.0147795 -2.1959e-15)
(1.02278 -0.0176111 -2.25368e-15)
(1.0314 -0.0201836 -2.99733e-15)
(1.04111 -0.0224739 -2.47064e-15)
(1.05176 -0.02447 -2.29088e-15)
(1.06323 -0.0261699 -2.76001e-15)
(1.07536 -0.0275803 -2.95893e-15)
(1.08803 -0.0287144 -3.31286e-15)
(1.10112 -0.0295907 -3.8839e-15)
(1.11452 -0.0302309 -4.44302e-15)
(1.12812 -0.0306587 -3.41435e-15)
(1.14184 -0.0308985 -4.36362e-15)
(1.1556 -0.0309746 -5.15272e-15)
(1.16933 -0.0309102 -5.75954e-15)
(1.18299 -0.0307273 -6.27938e-15)
(1.19652 -0.030446 -6.79462e-15)
(1.20988 -0.0300844 -7.25393e-15)
(1.22306 -0.0296587 -7.62581e-15)
(1.23601 -0.0291831 -7.86336e-15)
(1.24874 -0.0286699 -9.1689e-15)
(1.26121 -0.0281297 -8.9074e-15)
(1.27344 -0.0275714 -8.87558e-15)
(1.2854 -0.0270025 -8.93243e-15)
(1.29709 -0.0264292 -9.15599e-15)
(1.30852 -0.0258565 -8.893e-15)
(1.31969 -0.0252885 -8.70642e-15)
(1.3306 -0.0247284 -8.77299e-15)
(1.34126 -0.0241787 -8.85105e-15)
(1.35166 -0.0236411 -8.89713e-15)
(1.36182 -0.0231171 -9.13101e-15)
(1.37175 -0.0226075 -8.87298e-15)
(1.38144 -0.0221129 -8.74807e-15)
(1.3909 -0.0216336 -8.90152e-15)
(1.40015 -0.0211695 -8.88388e-15)
(1.40919 -0.0207207 -9.1337e-15)
(1.41802 -0.0202867 -9.33155e-15)
(1.42665 -0.0198672 -9.09284e-15)
(1.43509 -0.0194618 -9.00256e-15)
(1.44335 -0.0190699 -9.13614e-15)
(1.45143 -0.018691 -9.21839e-15)
(1.45933 -0.0183245 -9.29933e-15)
(1.46707 -0.0179698 -9.42769e-15)
(1.47464 -0.0176265 -9.43037e-15)
(1.48206 -0.0172938 -9.47949e-15)
(1.48932 -0.0169713 -9.52682e-15)
(1.49644 -0.0166585 -9.65443e-15)
(1.50341 -0.0163547 -9.70338e-15)
(1.51024 -0.0160597 -9.69641e-15)
(1.51694 -0.0157729 -9.7661e-15)
(1.5235 -0.0154939 -9.77306e-15)
(1.52994 -0.0152222 -9.77373e-15)
(1.53626 -0.0149576 -1.01295e-14)
(1.54245 -0.0146997 -8.58438e-15)
(1.54853 -0.0144481 -8.7525e-15)
(1.5545 -0.0142026 -8.96767e-15)
(1.56035 -0.0139628 -8.92167e-15)