/*--------------------------------*- C++ -*----------------------------------*\
  =========                 |
  \\      /  F ield         | OpenFOAM: The Open Source CFD Toolbox
   \\    /   O peration     | Website:  https://openfoam.org
    \\  /    A nd           | Version:  7
     \\/     M anipulation  |
\*---------------------------------------------------------------------------*/
FoamFile
{
    version     2.0;
    format      ascii;
    class       volScalarField;
    location    "1.2";
    object      p;
}
// * * * * * * * * * * * * * * * * * * * * * * * * * * * * * * * * * * * * * //

dimensions      [0 2 -2 0 0 0 0];

internalField   nonuniform List<scalar> 
344
(
-0.406271
-0.381071
-0.356166
-0.331568
-0.307284
-0.283316
-0.259666
-0.236335
-0.213324
-0.190638
-0.168284
-0.146276
-0.124633
-0.103382
-0.0825555
-0.0621937
-0.0423431
-0.0230561
-0.0043898
0.0135951
0.030836
0.0472702
0.0628366
0.0774776
0.0911411
0.103782
0.115365
0.125865
0.135269
0.143576
0.150804
0.156981
0.162157
0.166394
0.169776
0.172403
0.174392
0.175879
0.177015
0.177968
0.178918
0.180058
0.181589
0.183718
-0.858088
-0.860633
-0.852304
-0.84073
-0.827496
-0.812329
-0.795459
-0.776884
-0.756748
-0.735222
-0.712506
-0.6888
-0.664297
-0.639174
-0.613592
-0.587695
-0.561607
-0.535437
-0.509277
-0.483204
-0.457282
-0.43156
-0.406078
-0.380865
-0.355942
-0.331323
-0.307016
-0.283026
-0.259356
-0.236008
-0.212985
-0.190292
-0.167941
-0.145945
-0.124324
-0.103106
-0.082324
-0.0620181
-0.0422345
-0.0230247
-0.00444483
0.0134461
0.0305876
0.0469189
0.0623816
0.0769208
0.0904871
0.103039
0.114542
0.124976
0.13433
0.142605
0.149821
0.15601
0.16122
0.165518
0.168986
0.171725
0.173852
0.175502
0.176826
0.177989
0.17917
0.180558
0.182352
0.184754
-0.846543
-0.852481
-0.845777
-0.836071
-0.823964
-0.809642
-0.793361
-0.775218
-0.755405
-0.734127
-0.711605
-0.688054
-0.663674
-0.638652
-0.613152
-0.58732
-0.561283
-0.535152
-0.50902
-0.482965
-0.457052
-0.431331
-0.405843
-0.380619
-0.355681
-0.331043
-0.306716
-0.282706
-0.259017
-0.235653
-0.212619
-0.189923
-0.167574
-0.14559
-0.123992
-0.102807
-0.0820687
-0.0618177
-0.0420996
-0.0229653
-0.00446961
0.0133299
0.0303745
0.0466058
0.0619675
0.0764074
0.0898789
0.102343
0.113769
0.124137
0.133441
0.141684
0.148887
0.155084
0.160326
0.164679
0.168228
0.171073
0.173332
0.175139
0.176642
0.178007
0.17941
0.181037
0.183084
0.18575
-0.837313
-0.845454
-0.840038
-0.831829
-0.820672
-0.807085
-0.791331
-0.773582
-0.754068
-0.733022
-0.710684
-0.68728
-0.66302
-0.638095
-0.612674
-0.586906
-0.56092
-0.534827
-0.508723
-0.482687
-0.456783
-0.431065
-0.405573
-0.38034
-0.355387
-0.330733
-0.306387
-0.282358
-0.258652
-0.235274
-0.212231
-0.18953
-0.167186
-0.145214
-0.123637
-0.102484
-0.0817882
-0.0615902
-0.0419352
-0.0228735
-0.00445879
0.0132528
0.0302042
0.0463392
0.0616037
0.0759478
0.0893276
0.101706
0.113056
0.123361
0.132614
0.140824
0.148012
0.154214
0.159484
0.163887
0.16751
0.170454
0.172836
0.174789
0.176463
0.178019
0.179633
0.181488
0.183776
0.186694
-0.83007
-0.839535
-0.835127
-0.828095
-0.817724
-0.804758
-0.789456
-0.772051
-0.7528
-0.731961
-0.709788
-0.686517
-0.662366
-0.63753
-0.612181
-0.586472
-0.560532
-0.534476
-0.508398
-0.482379
-0.456485
-0.430769
-0.405274
-0.380031
-0.355066
-0.330396
-0.306033
-0.281987
-0.258265
-0.234873
-0.211821
-0.189117
-0.166776
-0.144816
-0.12326
-0.102137
-0.0814811
-0.0613331
-0.041738
-0.022745
-0.00440712
0.013221
0.0300839
0.0461272
0.0612989
0.0755514
0.088843
0.10114
0.112416
0.122657
0.131861
0.140036
0.147206
0.15341
0.158701
0.163149
0.166839
0.169872
0.172366
0.174455
0.176287
0.178022
0.179833
0.181902
0.184419
0.187574
-0.824545
-0.834684
-0.831061
-0.824936
-0.815199
-0.802738
-0.787808
-0.770688
-0.751657
-0.730991
-0.708957
-0.685798
-0.66174
-0.63698
-0.611693
-0.586034
-0.560135
-0.53411
-0.508054
-0.48205
-0.456164
-0.430449
-0.40495
-0.379698
-0.354721
-0.330035
-0.305656
-0.281593
-0.257856
-0.234452
-0.21139
-0.188683
-0.166345
-0.144396
-0.122859
-0.101764
)
;

boundaryField
{
    inlet
    {
        type            zeroGradient;
    }
    outlet
    {
        type            fixedValue;
        value           nonuniform 0();
    }
    wall
    {
        type            zeroGradient;
    }
    wedge1
    {
        type            wedge;
    }
    wedge2
    {
        type            wedge;
    }
    axis
    {
        type            empty;
    }
    procBoundary33to27
    {
        type            processor;
        value           nonuniform List<scalar> 
67
(
-0.406416
-0.381233
-0.356349
-0.331774
-0.307514
-0.283571
-0.259944
-0.236632
-0.213635
-0.190956
-0.168601
-0.146582
-0.124918
-0.103635
-0.0827641
-0.0623464
-0.0424284
-0.0230635
-0.00430984
0.0137702
0.0311121
0.0476508
0.0633226
0.0780671
0.0918294
0.104562
0.116225
0.126791
0.136245
0.144585
0.151822
0.157987
0.163125
0.1673
0.170592
0.173103
0.17495
0.176268
0.177211
0.177947
0.17866
0.179545
0.180807
0.182656
-0.872359
-0.869902
-0.85954
-0.845683
-0.831147
-0.815038
-0.797529
-0.778498
-0.758028
-0.73625
-0.713339
-0.68948
-0.664853
-0.639632
-0.613971
-0.588011
-0.561875
-0.535669
-0.509483
-0.483395
-0.457466
-0.431745
-0.431745
)
;
    }
    procBoundary33to28
    {
        type            processor;
        value           uniform 0.186653;
    }
    procBoundary33to34
    {
        type            processor;
        value           nonuniform List<scalar> 4(0.187968 0.189234 0.190436 0.19156);
    }
    procBoundary33to39
    {
        type            processor;
        value           nonuniform List<scalar> 
67
(
-0.0811452
-0.0610438
-0.0415044
-0.0225756
-0.00430952
0.0132404
0.0300202
0.0459771
0.0610611
0.0752267
0.0884343
0.100652
0.111857
0.122037
0.13119
0.139329
0.146479
0.15268
0.157987
0.162471
0.166218
0.16933
0.171926
0.174138
0.176113
0.178012
0.180006
0.182274
0.185002
0.188379
-0.820517
-0.830846
-0.827831
-0.822394
-0.813154
-0.80109
-0.786449
-0.769549
-0.750686
-0.730154
-0.708226
-0.685154
-0.661167
-0.636467
-0.611229
-0.585609
-0.559741
-0.533739
-0.507701
-0.481707
-0.455825
-0.43011
-0.404605
-0.379344
-0.354354
-0.329654
-0.305259
-0.28118
-0.257428
-0.234011
-0.210941
-0.18823
-0.165894
-0.143954
-0.122433
-0.0811452
-0.101363
)
;
    }
}


// ************************************************************************* //
