/*--------------------------------*- C++ -*----------------------------------*\
  =========                 |
  \\      /  F ield         | OpenFOAM: The Open Source CFD Toolbox
   \\    /   O peration     | Website:  https://openfoam.org
    \\  /    A nd           | Version:  7
     \\/     M anipulation  |
\*---------------------------------------------------------------------------*/
FoamFile
{
    version     2.0;
    format      ascii;
    class       volScalarField;
    location    "16.999864";
    object      p;
}
// * * * * * * * * * * * * * * * * * * * * * * * * * * * * * * * * * * * * * //

dimensions      [0 2 -2 0 0 0 0];

internalField   nonuniform List<scalar> 
5800
(
-0.273932
-0.273872
-0.273731
-0.273468
-0.273008
-0.273849
-0.27373
-0.273597
-0.273465
-0.273333
-0.273203
-0.273077
-0.272958
-0.272848
-0.272746
-0.272653
-0.272566
-0.27248
-0.272388
-0.272281
-0.272142
-0.271955
-0.271693
-0.271327
-0.270818
-0.270119
-0.269178
-0.267929
-0.266301
-0.26421
-0.261564
-0.258264
-0.25423
-0.249361
-0.243553
-0.236709
-0.228747
-0.2196
-0.209224
-0.197607
-0.184771
-0.170778
-0.155735
-0.139791
-0.123166
-0.106093
-0.0888489
-0.0717456
-0.055087
-0.039173
-0.0242902
-0.0106693
0.00150227
0.0121007
0.021065
0.0283948
0.0341441
0.0384072
0.0413169
0.0430108
0.043661
0.0433941
0.0424023
0.0407511
0.038664
0.0360881
0.0333284
0.0301322
0.026994
0.0233152
0.0199844
0.0157758
0.0123606
0.00732353
0.00382319
-0.273939
-0.273811
-0.273667
-0.273531
-0.273394
-0.27326
-0.273132
-0.273011
-0.2729
-0.272798
-0.272707
-0.272623
-0.272542
-0.272458
-0.27236
-0.272233
-0.27206
-0.271815
-0.271468
-0.270981
-0.270308
-0.269395
-0.268176
-0.26658
-0.264523
-0.261908
-0.258635
-0.254656
-0.24983
-0.244061
-0.237255
-0.229328
-0.220213
-0.209866
-0.198272
-0.185453
-0.171472
-0.156436
-0.140486
-0.123852
-0.106763
-0.0894966
-0.0723684
-0.0556758
-0.0397228
-0.0248052
-0.0111475
0.0010607
0.0116946
0.0206927
0.0280544
0.0338335
0.0381245
0.0410602
0.0427784
0.0434513
0.0432055
0.0422331
0.0406001
0.0385294
0.0359691
0.0332229
0.0300403
0.0269127
0.0232467
0.0199235
0.015729
0.0123171
0.00730028
0.00379436
-0.274114
-0.273966
-0.273797
-0.273651
-0.273507
-0.273365
-0.273231
-0.273105
-0.272992
-0.272891
-0.272802
-0.272725
-0.272653
-0.272582
-0.272501
-0.272397
-0.272249
-0.272036
-0.271725
-0.27128
-0.270654
-0.269793
-0.268632
-0.267099
-0.265107
-0.262564
-0.259391
-0.255468
-0.250712
-0.245016
-0.238281
-0.230422
-0.221371
-0.211079
-0.199531
-0.18675
-0.172794
-0.157773
-0.141815
-0.125169
-0.108058
-0.0907514
-0.0735688
-0.0568099
-0.0408015
-0.0258152
-0.0120885
0.0001882
0.010889
0.0199513
0.0273742
0.0332112
0.0375568
0.0405439
0.0423103
0.0430284
0.0428252
0.0418921
0.0402958
0.0382583
0.0357295
0.0330107
0.0298557
0.0267497
0.0231095
0.0198018
0.0156353
0.0122306
0.00725395
0.00373795
-0.274368
-0.27418
-0.273968
-0.273807
-0.27365
-0.273498
-0.273354
-0.273222
-0.273105
-0.273003
-0.272918
-0.272847
-0.272788
-0.272734
-0.272675
-0.272599
-0.272486
-0.272314
-0.272053
-0.271664
-0.271102
-0.270311
-0.269229
-0.267779
-0.265875
-0.263423
-0.260355
-0.256545
-0.251896
-0.246305
-0.239673
-0.231911
-0.222951
-0.212741
-0.201262
-0.188539
-0.174624
-0.159636
-0.143677
-0.127028
-0.109885
-0.0925015
-0.075272
-0.0584497
-0.0423575
-0.0272824
-0.0134647
-0.00109604
0.00969584
0.018847
0.0263559
0.0322756
0.0367005
0.039763
0.0416013
0.0423873
0.0422483
0.0413748
0.0398343
0.0378476
0.0353669
0.03269
0.0295771
0.0265043
0.0229031
0.0196194
0.015495
0.0121019
0.00718489
0.00365634
-0.274715
-0.274433
-0.27416
-0.273977
-0.273803
-0.273634
-0.273478
-0.273337
-0.273214
-0.27311
-0.273027
-0.272963
-0.272915
-0.272879
-0.272844
-0.272799
-0.272725
-0.2726
-0.272394
-0.272069
-0.271581
-0.270873
-0.269882
-0.268532
-0.266733
-0.264393
-0.261454
-0.25777
-0.25325
-0.247787
-0.241282
-0.233642
-0.224798
-0.214701
-0.203318
-0.190677
-0.176829
-0.16192
-0.145876
-0.129261
-0.112101
-0.0947053
-0.077406
-0.0605084
-0.0443297
-0.0291588
-0.0152398
-0.0027664
0.0081318
0.0173893
0.0250035
0.0310268
0.0355527
0.0387134
0.0406461
0.0415227
0.0414697
0.0406769
0.0392118
0.0372942
0.0348788
0.0322593
0.0292032
0.0261759
0.0226274
0.0193768
0.0153086
0.0119327
0.00709367
0.00355288
-0.275274
-0.27468
-0.274346
-0.274141
-0.273941
-0.273752
-0.27358
-0.273427
-0.273295
-0.273187
-0.273103
-0.273044
-0.273006
-0.272986
-0.272973
-0.272958
-0.272922
-0.272843
-0.272692
-0.272433
-0.272021
-0.271398
-0.270504
-0.269256
-0.267563
-0.26539
-0.262563
-0.259016
-0.25464
-0.249324
-0.242967
-0.235474
-0.226775
-0.216794
-0.205502
-0.19297
-0.179205
-0.164327
-0.148427
-0.131799
-0.11463
-0.0972121
-0.0798664
-0.0629076
-0.046652
-0.0313912
-0.0173728
-0.00479253
0.00621816
0.015592
0.0233252
0.0294685
0.0341145
0.0373939
0.0394427
0.0404318
0.0404866
0.0397957
0.0384263
0.0365967
0.0342642
0.0317179
0.028734
0.0257651
0.0222828
0.0190752
0.015077
0.0117249
0.00698107
0.00343161
-0.27638
-0.274826
-0.274523
-0.274283
-0.274045
-0.273829
-0.273638
-0.27347
-0.273327
-0.273212
-0.273126
-0.273067
-0.273036
-0.273027
-0.273032
-0.273041
-0.273038
-0.273
-0.272901
-0.272704
-0.272361
-0.271818
-0.271017
-0.269866
-0.268323
-0.266243
-0.263557
-0.260155
-0.255928
-0.250767
-0.244566
-0.237229
-0.228678
-0.218857
-0.207731
-0.195321
-0.181668
-0.166875
-0.15106
-0.134477
-0.117337
-0.0999267
-0.0825641
-0.0655688
-0.0492579
-0.0339248
-0.0198197
-0.00714002
0.0039811
0.0134746
0.0213348
0.0276108
0.0323926
0.0358092
0.0379942
0.039117
0.0393007
0.0387327
0.0374789
0.0357562
0.0335242
0.0310673
0.0281707
0.0252734
0.021871
0.0187167
0.0148019
0.0114813
0.00684815
0.00329692
-0.276287
-0.27535
-0.274686
-0.27435
-0.27409
-0.273849
-0.273634
-0.273448
-0.273293
-0.273168
-0.273075
-0.273014
-0.272984
-0.27298
-0.272996
-0.273022
-0.273043
-0.273036
-0.272976
-0.272828
-0.272547
-0.272078
-0.271353
-0.270312
-0.268867
-0.26691
-0.264357
-0.261098
-0.257024
-0.252023
-0.245989
-0.238823
-0.230442
-0.220786
-0.209823
-0.197567
-0.184057
-0.169388
-0.153692
-0.137194
-0.120121
-0.102756
-0.0854146
-0.0684176
-0.0520829
-0.0367047
-0.0225344
-0.00977052
0.00145221
0.011063
0.0190537
0.0254709
0.0304014
0.0339714
0.0363106
0.0375866
0.0379191
0.0374941
0.0363751
0.0347774
0.0326631
0.0303113
0.0275169
0.0247043
0.0213948
0.0183044
0.0144854
0.0112051
0.00669627
0.0031532
-0.276317
-0.275775
-0.274803
-0.274344
-0.27406
-0.273794
-0.273551
-0.273345
-0.273174
-0.273037
-0.272934
-0.272866
-0.272831
-0.272827
-0.272847
-0.27288
-0.272914
-0.272928
-0.272896
-0.272785
-0.272549
-0.272134
-0.271492
-0.270539
-0.269173
-0.267324
-0.264892
-0.261767
-0.25784
-0.252997
-0.247131
-0.24014
-0.231941
-0.222469
-0.211691
-0.199613
-0.186276
-0.171767
-0.156225
-0.139856
-0.122894
-0.105619
-0.0883421
-0.0713857
-0.0550661
-0.0396767
-0.025469
-0.0126421
-0.00133166
0.0083895
0.0165103
0.023074
0.0281629
0.0318997
0.0344091
0.0358555
0.036355
0.0360911
0.0351248
0.033669
0.0316885
0.0294564
0.0267783
0.0240627
0.0208585
0.0178424
0.0141308
0.0109
0.00652707
0.00300448
-0.276083
-0.274851
-0.274239
-0.273925
-0.273638
-0.273366
-0.273135
-0.272947
-0.272796
-0.272681
-0.272602
-0.272558
-0.272546
-0.272561
-0.272593
-0.272629
-0.272651
-0.272634
-0.272543
-0.272333
-0.271977
-0.271384
-0.270477
-0.269194
-0.267439
-0.265114
-0.262111
-0.25832
-0.253628
-0.247927
-0.241115
-0.233104
-0.223828
-0.213253
-0.201378
-0.188242
-0.17393
-0.158579
-0.142384
-0.12558
-0.108443
-0.0912805
-0.0744116
-0.0581503
-0.0427881
-0.028575
-0.0157098
-0.00432917
0.00549225
0.0137396
0.0204522
0.0257064
0.0296205
0.0323131
0.0339447
0.0346265
0.0345397
0.0337418
0.0324431
0.0306107
0.0285117
0.0259625
0.0233553
0.0202675
0.0173359
0.0137416
0.0105701
0.00634244
0.00285423
-0.276174
-0.274769
-0.273988
-0.273641
-0.273339
-0.273041
-0.272785
-0.272578
-0.272412
-0.272283
-0.27219
-0.272133
-0.272108
-0.272111
-0.272132
-0.272161
-0.272178
-0.272161
-0.272074
-0.271905
-0.271552
-0.27098
-0.270125
-0.268902
-0.267222
-0.264986
-0.26209
-0.258424
-0.253874
-0.248332
-0.241695
-0.233876
-0.224806
-0.214448
-0.202798
-0.189893
-0.175813
-0.160691
-0.144716
-0.128119
-0.111171
-0.0941735
-0.077441
-0.0612835
-0.0459887
-0.0318042
-0.0189275
-0.00749605
0.0024133
0.0107813
0.0176423
0.0230661
0.0271651
0.0300509
0.0318793
0.0327562
0.0328595
0.0322434
0.0311144
0.0294424
0.0274878
0.0250788
0.0225901
0.0196284
0.0167904
0.0133222
0.0102196
0.00614447
0.00270519
-0.275835
-0.27443
-0.273514
-0.273138
-0.272831
-0.272515
-0.272238
-0.272014
-0.271834
-0.271691
-0.271584
-0.271511
-0.27147
-0.271456
-0.27146
-0.271472
-0.271477
-0.271455
-0.271386
-0.27118
-0.270831
-0.270279
-0.26945
-0.268267
-0.266642
-0.264479
-0.261674
-0.258118
-0.253699
-0.248309
-0.241846
-0.234221
-0.225364
-0.215236
-0.20383
-0.191181
-0.177367
-0.162515
-0.146806
-0.130465
-0.113756
-0.0969744
-0.0804273
-0.0644189
-0.0492317
-0.0351098
-0.0222488
-0.0107868
-0.000803154
0.00767769
0.0146845
0.0202792
0.0245677
0.0276537
0.0296873
0.0307688
0.031072
0.0306482
0.0296991
0.0281976
0.026397
0.0241371
0.0217756
0.0189482
0.016212
0.0128771
0.00985273
0.00593534
0.00255938
-0.273635
-0.272694
-0.272312
-0.272017
-0.271699
-0.271413
-0.27118
-0.270991
-0.270838
-0.27072
-0.270634
-0.270577
-0.270544
-0.270526
-0.270514
-0.270491
-0.270473
-0.27036
-0.270147
-0.269794
-0.26924
-0.268421
-0.267261
-0.265674
-0.263567
-0.260837
-0.257378
-0.25308
-0.247835
-0.241542
-0.234113
-0.225477
-0.215593
-0.204451
-0.192083
-0.178564
-0.164019
-0.148621
-0.132583
-0.116164
-0.0996466
-0.0833318
-0.0675158
-0.0524748
-0.038448
-0.025629
-0.0141565
-0.00411294
0.00447164
0.0116195
0.0173839
0.0218635
0.0251533
0.0273974
0.0286897
0.0291995
0.0289758
0.0282141
0.0268909
0.0252514
0.0231479
0.0209206
0.0182341
0.015607
0.0124109
0.00947344
0.00571727
0.00241814
-0.271366
-0.271033
-0.270772
-0.27048
-0.27021
-0.269984
-0.269797
-0.269644
-0.269522
-0.269428
-0.269359
-0.269309
-0.269272
-0.26924
-0.269202
-0.269129
-0.268998
-0.26877
-0.268396
-0.267828
-0.267006
-0.265855
-0.264293
-0.262228
-0.259561
-0.256189
-0.252003
-0.246897
-0.240773
-0.233541
-0.225134
-0.215506
-0.204648
-0.192587
-0.179395
-0.16519
-0.15014
-0.134453
-0.11837
-0.102163
-0.0861243
-0.0705406
-0.0556808
-0.0417793
-0.0290268
-0.0175632
-0.00747413
0.00120399
0.00848624
0.0144169
0.0190862
0.0225807
0.0250372
0.0265435
0.0272636
0.0272449
0.0266757
0.0255361
0.0240631
0.0221214
0.0200338
0.0174932
0.0149812
0.011928
0.00908537
0.00549237
0.00228227
-0.269379
-0.269154
-0.268965
-0.26874
-0.268519
-0.268324
-0.268159
-0.26802
-0.267907
-0.267816
-0.267744
-0.267685
-0.26763
-0.267567
-0.267474
-0.267391
-0.267248
-0.266997
-0.266598
-0.26601
-0.265177
-0.264026
-0.262479
-0.260447
-0.257835
-0.254542
-0.250463
-0.245494
-0.239539
-0.232511
-0.22434
-0.214984
-0.204429
-0.1927
-0.179863
-0.166032
-0.151366
-0.136067
-0.120362
-0.104509
-0.088784
-0.0734676
-0.0588201
-0.0450702
-0.0324062
-0.0209695
-0.010849
-0.00208805
0.00532063
0.0114119
0.0162674
0.0199647
0.0226329
0.0243535
0.025285
0.0254733
0.0250993
0.0241466
0.0228434
0.0210672
0.0191233
0.016732
0.0143401
0.0114325
0.00869171
0.00526254
0.00215215
-0.266557
-0.266487
-0.266377
-0.266244
-0.266112
-0.265996
-0.265895
-0.265808
-0.265736
-0.265674
-0.265617
-0.265557
-0.265482
-0.265373
-0.265212
-0.265051
-0.264789
-0.26437
-0.263763
-0.262916
-0.261763
-0.260227
-0.258224
-0.255664
-0.252447
-0.248473
-0.243642
-0.23786
-0.231042
-0.22312
-0.21405
-0.203817
-0.192443
-0.17999
-0.166564
-0.152314
-0.137433
-0.122141
-0.106675
-0.0912967
-0.0762765
-0.0618667
-0.0482905
-0.0357341
-0.02434
-0.0142016
-0.00536907
0.00215675
0.00840122
0.0134368
0.0173323
0.0202088
0.0221415
0.023283
0.0236777
0.0234994
0.0227347
0.0216028
0.0199939
0.0181962
0.0159565
0.0136885
0.0109283
0.0082952
0.00502949
0.00202786
-0.263186
-0.263285
-0.263334
-0.263323
-0.263287
-0.263249
-0.263212
-0.263175
-0.26314
-0.263107
-0.26307
-0.263022
-0.262952
-0.262835
-0.262638
-0.262456
-0.262173
-0.261729
-0.261098
-0.260235
-0.259076
-0.257549
-0.255574
-0.253064
-0.249924
-0.246058
-0.241369
-0.235767
-0.229168
-0.221506
-0.212737
-0.202845
-0.191848
-0.179802
-0.166804
-0.152997
-0.138559
-0.123702
-0.108649
-0.093643
-0.0789419
-0.0647906
-0.0514069
-0.0389751
-0.0276395
-0.0174973
-0.00860615
-0.000974796
0.00541266
0.0106196
0.0147058
0.0177845
0.0199248
0.0212724
0.0218713
0.0218883
0.0213115
0.0203511
0.01891
0.0172599
0.0151726
0.0130312
0.010419
0.00789838
0.00479495
0.00190937
-0.259412
-0.259647
-0.259783
-0.25987
-0.259935
-0.259979
-0.260008
-0.260025
-0.26003
-0.260018
-0.25998
-0.259894
-0.259739
-0.259482
-0.259272
-0.259015
-0.258596
-0.25798
-0.257127
-0.25598
-0.254475
-0.252538
-0.250087
-0.247032
-0.243281
-0.238742
-0.233328
-0.226958
-0.219569
-0.211116
-0.201581
-0.190978
-0.179358
-0.16681
-0.153464
-0.139489
-0.125084
-0.110462
-0.0958482
-0.0814851
-0.0676091
-0.0544334
-0.0421405
-0.0308764
-0.0207428
-0.0118038
-0.00407672
0.00244527
0.00781617
0.0120873
0.0153633
0.0177074
0.0192581
0.0200584
0.0202699
0.0198818
0.0190937
0.0178208
0.0163192
0.0143849
0.012372
0.00990783
0.00750342
0.00456065
0.00179682
-0.255404
-0.255732
-0.255991
-0.256199
-0.256361
-0.256487
-0.256586
-0.25666
-0.256709
-0.256732
-0.256722
-0.256673
-0.256524
-0.256163
-0.255794
-0.255319
-0.25467
-0.253799
-0.252647
-0.251155
-0.249253
-0.246862
-0.243896
-0.240268
-0.235889
-0.230677
-0.224553
-0.217455
-0.209338
-0.200181
-0.189995
-0.178824
-0.166747
-0.153883
-0.140386
-0.126442
-0.112257
-0.0980422
-0.0840236
-0.0704269
-0.0574604
-0.045306
-0.0341121
-0.0239852
-0.0149968
-0.00717279
-0.000515612
0.00501917
0.00947459
0.0129464
0.0154928
0.0172441
0.0182428
0.0186442
0.0184437
0.0178282
0.0167244
0.0153728
0.0135922
0.0117101
0.00939429
0.00710969
0.00432622
0.0016901
-0.250043
-0.250507
-0.250915
-0.251267
-0.251563
-0.251809
-0.25201
-0.252169
-0.252285
-0.252352
-0.252354
-0.252262
-0.252038
-0.251677
-0.25143
-0.251034
-0.250458
-0.249647
-0.248547
-0.247111
-0.245277
-0.242972
-0.240117
-0.236631
-0.232431
-0.227436
-0.221573
-0.214779
-0.20701
-0.198243
-0.188483
-0.177767
-0.166166
-0.153787
-0.140773
-0.127293
-0.113542
-0.0997254
-0.0860604
-0.0727629
-0.0600319
-0.0480475
-0.0369592
-0.0268776
-0.0178801
-0.0100001
-0.00324774
0.00241264
0.00701684
0.0106524
0.0133727
0.0153004
0.0164769
0.0170504
0.0170213
0.0165681
0.0156259
0.0144212
0.0127914
0.0110417
0.00887269
0.00671332
0.00408669
0.00158772
-0.24685
-0.247347
-0.247785
-0.248165
-0.248489
-0.248762
-0.248987
-0.249166
-0.249297
-0.249379
-0.24942
-0.249429
-0.249296
-0.248663
-0.248094
-0.247467
-0.246614
-0.245479
-0.244016
-0.242163
-0.239849
-0.236998
-0.233531
-0.22937
-0.224436
-0.218662
-0.211988
-0.204372
-0.195795
-0.186262
-0.175809
-0.164506
-0.152454
-0.139789
-0.126674
-0.113294
-0.0998442
-0.086531
-0.0735593
-0.0611209
-0.0493882
-0.0385055
-0.0285811
-0.0196922
-0.0118742
-0.0051412
0.000537225
0.00519159
0.00890259
0.0117186
0.0137558
0.0150526
0.0157502
0.0158489
0.0155196
0.0147028
0.0136157
0.0121072
0.0104691
0.00842099
0.00637255
0.00387568
0.00150129
-0.242602
-0.243177
-0.243693
-0.244147
-0.24454
-0.244872
-0.245147
-0.245363
-0.245517
-0.245603
-0.245602
-0.245475
-0.245145
-0.244757
-0.244295
-0.243668
-0.242798
-0.24164
-0.240151
-0.238271
-0.235935
-0.23307
-0.229605
-0.225464
-0.220577
-0.214879
-0.208318
-0.200855
-0.192474
-0.18318
-0.173011
-0.162031
-0.150338
-0.13806
-0.12535
-0.112383
-0.0993434
-0.0864259
-0.0738243
-0.0617212
-0.0502807
-0.0396419
-0.0299106
-0.0211638
-0.0134394
-0.00675507
-0.00108591
0.0035932
0.00735604
0.0102462
0.0123723
0.0137702
0.0145737
0.0147845
0.0145653
0.0138626
0.0128825
0.0114865
0.00994987
0.00801464
0.00606527
0.00368854
0.0014227
-0.237989
-0.238641
-0.239234
-0.239763
-0.240225
-0.240619
-0.240946
-0.241205
-0.241391
-0.241495
-0.241497
-0.241376
-0.241126
-0.240757
-0.240254
-0.239571
-0.238656
-0.237458
-0.235929
-0.234013
-0.231648
-0.228767
-0.225301
-0.221183
-0.216346
-0.210732
-0.204292
-0.196992
-0.188818
-0.179778
-0.169905
-0.159264
-0.147945
-0.136069
-0.123779
-0.111239
-0.0986247
-0.0861181
-0.0739025
-0.0621509
-0.0510196
-0.0406425
-0.0311225
-0.0225363
-0.0149238
-0.00830573
-0.00266249
0.00202618
0.00582722
0.00877983
0.010985
0.0124764
0.0133802
0.0137
0.013589
0.0130006
0.0121281
0.0108473
0.00941423
0.00759605
0.00574839
0.00349748
0.00134187
-0.233269
-0.233993
-0.234657
-0.235254
-0.23578
-0.236231
-0.236609
-0.236909
-0.237128
-0.237255
-0.237278
-0.237184
-0.236963
-0.236588
-0.23605
-0.235332
-0.234383
-0.233152
-0.231592
-0.229649
-0.227266
-0.224379
-0.220926
-0.216842
-0.212068
-0.206549
-0.200242
-0.193115
-0.185156
-0.176374
-0.166803
-0.156501
-0.145556
-0.134078
-0.122204
-0.110087
-0.0978915
-0.0857898
-0.0739545
-0.0625498
-0.0517244
-0.0416071
-0.0322982
-0.0238738
-0.0163755
-0.00982716
-0.00421392
0.000479946
0.00431468
0.00732547
0.00960581
0.0111876
0.0121889
0.0126156
0.0126113
0.0121364
0.011371
0.0102051
0.00887627
0.00717568
0.00543086
0.00330696
0.0012614
-0.228467
-0.229257
-0.229984
-0.230643
-0.231226
-0.231728
-0.232151
-0.232489
-0.232738
-0.232889
-0.232931
-0.23285
-0.232631
-0.232251
-0.231702
-0.230963
-0.22999
-0.228734
-0.227151
-0.225191
-0.222799
-0.219918
-0.216487
-0.21245
-0.207749
-0.202335
-0.196168
-0.189222
-0.181484
-0.172966
-0.163697
-0.153736
-0.143162
-0.13208
-0.120618
-0.108919
-0.097137
-0.0854352
-0.0739758
-0.0629144
-0.0523927
-0.0425344
-0.0334369
-0.0251761
-0.0177947
-0.0113194
-0.0057401
-0.00104514
0.00281919
0.0058843
0.00823632
0.00990549
0.0110019
0.0115335
0.0116344
0.0112716
0.0106129
0.00956168
0.00833729
0.00675455
0.00511343
0.00311706
0.00118141
-0.223593
-0.224443
-0.225229
-0.225943
-0.226577
-0.227126
-0.227589
-0.227962
-0.228238
-0.22841
-0.228467
-0.228395
-0.228177
-0.227797
-0.227243
-0.226488
-0.225495
-0.22422
-0.222622
-0.220652
-0.21826
-0.215392
-0.211993
-0.20801
-0.203391
-0.19809
-0.192071
-0.185311
-0.177799
-0.169546
-0.160582
-0.15096
-0.140755
-0.130066
-0.119011
-0.107724
-0.0963513
-0.0850444
-0.0739567
-0.0632356
-0.0530157
-0.043416
-0.0345312
-0.0264362
-0.0191752
-0.0127772
-0.00723648
-0.00254531
0.00134377
0.00445866
0.00687823
0.00863118
0.00981974
0.0104537
0.010658
0.0104061
0.0098535
0.00891655
0.00779693
0.00633234
0.00479574
0.00292743
0.00110188
-0.218669
-0.219577
-0.220416
-0.221181
-0.221862
-0.222453
-0.222953
-0.223357
-0.223659
-0.22385
-0.223921
-0.223857
-0.223644
-0.223266
-0.222706
-0.221938
-0.22093
-0.219642
-0.218033
-0.21606
-0.213676
-0.210829
-0.20747
-0.203549
-0.199018
-0.193837
-0.187972
-0.181402
-0.174118
-0.166132
-0.157471
-0.148185
-0.138345
-0.128043
-0.117389
-0.106508
-0.0955374
-0.0846193
-0.073898
-0.063513
-0.0535924
-0.0442503
-0.0355788
-0.0276516
-0.0205143
-0.0141976
-0.00870016
-0.00401771
-0.000108855
0.00305105
0.00553382
0.00736671
0.00864418
0.0093779
0.00968364
0.00954112
0.00909366
0.00827047
0.00725574
0.00590946
0.00447805
0.00273813
0.00102296
-0.213716
-0.214679
-0.215567
-0.216379
-0.217103
-0.217734
-0.218267
-0.2187
-0.219026
-0.219236
-0.21932
-0.219265
-0.219058
-0.218681
-0.218117
-0.217341
-0.216322
-0.215026
-0.213414
-0.211444
-0.209074
-0.206255
-0.202943
-0.19909
-0.194654
-0.189597
-0.18389
-0.177512
-0.170458
-0.162737
-0.154376
-0.145422
-0.135942
-0.12602
-0.115759
-0.105276
-0.0946992
-0.0841625
-0.0738014
-0.0637477
-0.0541232
-0.0450371
-0.0365789
-0.028821
-0.0218101
-0.0155786
-0.010129
-0.00546007
-0.00153636
0.00166379
0.00420532
0.00611418
0.00747718
0.00830783
0.00871279
0.00867793
0.00833463
0.00762446
0.00671458
0.00548652
0.00416082
0.00254931
0.000944848
-0.208746
-0.209761
-0.210697
-0.211553
-0.212317
-0.212984
-0.21355
-0.21401
-0.214359
-0.214587
-0.214684
-0.214639
-0.214438
-0.214063
-0.213497
-0.212717
-0.211693
-0.210394
-0.208784
-0.206824
-0.204474
-0.20169
-0.19843
-0.194652
-0.190316
-0.185387
-0.17984
-0.173656
-0.16683
-0.159372
-0.151307
-0.14268
-0.133551
-0.124001
-0.114124
-0.104031
-0.0938393
-0.083676
-0.0736682
-0.0639402
-0.0546079
-0.0457757
-0.0375305
-0.0299432
-0.0230613
-0.0169185
-0.0115209
-0.00687033
-0.00293665
0.000298949
0.00289477
0.00487553
0.00632057
0.00724512
0.00774699
0.00781787
0.00757756
0.00697946
0.00617419
0.00506408
0.00384446
0.00236113
0.000867649
-0.20377
-0.204835
-0.205816
-0.206713
-0.207516
-0.208218
-0.208814
-0.2093
-0.209671
-0.209916
-0.210028
-0.209993
-0.209799
-0.209429
-0.208864
-0.208083
-0.20706
-0.205763
-0.204161
-0.202217
-0.199893
-0.197149
-0.193948
-0.190248
-0.186016
-0.181218
-0.175832
-0.169842
-0.163242
-0.156044
-0.148271
-0.139963
-0.131178
-0.121991
-0.112489
-0.102775
-0.0929596
-0.0831612
-0.0734992
-0.064091
-0.0550466
-0.046466
-0.0384329
-0.0310172
-0.0242664
-0.0182157
-0.0128743
-0.00824664
-0.00430781
-0.00104156
0.00160404
0.00365254
0.00517601
0.00619131
0.00678761
0.00696216
0.00682349
0.00633634
0.00563532
0.00464265
0.00352934
0.00217371
0.000791459
-0.198797
-0.19991
-0.200933
-0.201869
-0.202709
-0.203443
-0.204069
-0.204581
-0.204973
-0.205237
-0.205363
-0.20534
-0.205154
-0.20479
-0.20423
-0.203453
-0.202434
-0.201145
-0.199556
-0.197633
-0.195341
-0.192644
-0.189505
-0.185889
-0.181763
-0.177099
-0.171875
-0.166077
-0.159702
-0.152759
-0.145271
-0.137276
-0.128827
-0.119992
-0.110855
-0.10151
-0.0920618
-0.0826193
-0.0732953
-0.0642007
-0.0554397
-0.0471077
-0.0392858
-0.0320421
-0.0254245
-0.0194689
-0.0141876
-0.00958739
-0.00564813
-0.00235599
0.000334858
0.00244686
0.00404509
0.00514785
0.00583599
0.00611197
0.00607345
0.00569596
0.00509866
0.00422274
0.00321584
0.00198718
0.000716354
-0.193837
-0.194993
-0.196056
-0.19703
-0.197904
-0.19867
-0.199323
-0.19986
-0.200274
-0.200556
-0.200698
-0.200688
-0.200513
-0.200158
-0.199605
-0.198836
-0.197826
-0.19655
-0.194979
-0.193082
-0.190827
-0.188181
-0.185109
-0.18158
-0.177564
-0.173035
-0.167974
-0.162367
-0.156214
-0.149522
-0.142312
-0.134622
-0.126499
-0.118008
-0.109225
-0.100239
-0.0911472
-0.0820515
-0.0730576
-0.06427
-0.0557875
-0.047701
-0.0400889
-0.0330174
-0.0265346
-0.020677
-0.0154597
-0.0108912
-0.00695608
-0.00364275
-0.000911169
0.00126008
0.0029293
0.00411615
0.00489341
0.00526845
0.00532846
0.00505916
0.0045649
0.00380485
0.00290431
0.0018017
0.000642392
-0.188896
-0.190094
-0.191194
-0.192202
-0.193108
-0.193904
-0.194585
-0.195146
-0.195581
-0.195882
-0.196041
-0.196045
-0.195882
-0.195539
-0.194997
-0.194239
-0.193243
-0.191984
-0.190436
-0.188571
-0.186358
-0.183766
-0.180766
-0.177328
-0.173424
-0.169031
-0.164132
-0.158715
-0.152779
-0.146333
-0.139396
-0.132002
-0.124196
-0.116039
-0.1076
-0.0989629
-0.0902171
-0.0814588
-0.0727869
-0.0642995
-0.0560903
-0.0482461
-0.0408421
-0.0339429
-0.0275963
-0.0218393
-0.0166893
-0.0121567
-0.00823028
-0.00490039
-0.00213255
9.36664e-05
0.00183007
0.00309754
0.00396111
0.0044327
0.00458949
0.00442675
0.00403471
0.00338948
0.0025951
0.00161742
0.00056962
-0.183982
-0.185218
-0.186353
-0.187393
-0.188329
-0.189154
-0.18986
-0.190445
-0.190901
-0.191222
-0.191397
-0.191417
-0.191269
-0.190939
-0.190412
-0.189669
-0.188691
-0.187453
-0.185933
-0.184103
-0.181937
-0.179405
-0.17648
-0.173134
-0.169344
-0.165088
-0.16035
-0.155121
-0.1494
-0.143194
-0.136523
-0.129417
-0.12192
-0.114086
-0.105981
-0.0976818
-0.0892722
-0.0808421
-0.0724839
-0.0642899
-0.0563489
-0.0487433
-0.0415456
-0.0348183
-0.0286091
-0.0229551
-0.0178757
-0.0133829
-0.00946948
-0.00612758
-0.0033279
-0.001051
0.000748769
0.00209332
0.00304029
0.00360581
0.00385749
0.00379955
0.00350876
0.0029771
0.00228857
0.0014345
0.000498077
-0.179104
-0.180374
-0.18154
-0.18261
-0.183574
-0.184425
-0.185156
-0.185764
-0.186241
-0.186581
-0.186775
-0.186811
-0.18668
-0.186366
-0.185856
-0.185131
-0.184174
-0.182962
-0.181474
-0.179684
-0.177568
-0.175099
-0.172252
-0.169002
-0.165328
-0.161209
-0.156632
-0.151588
-0.146076
-0.140105
-0.133693
-0.126868
-0.11967
-0.112149
-0.104368
-0.0963968
-0.0883136
-0.0802023
-0.0721495
-0.0642421
-0.0565638
-0.049193
-0.0421995
-0.0356436
-0.0295727
-0.0240237
-0.019018
-0.0145688
-0.0106726
-0.00732308
-0.00449592
-0.00217259
-0.000313323
0.00110472
0.00213211
0.00278883
0.00313341
0.00317834
0.0029877
0.00256821
0.00198504
0.00125312
0.000427794
-0.174267
-0.175568
-0.176762
-0.177858
-0.178848
-0.179724
-0.180478
-0.181108
-0.181606
-0.181966
-0.182178
-0.182232
-0.182118
-0.181823
-0.181332
-0.180629
-0.179696
-0.178514
-0.177061
-0.175316
-0.173253
-0.170851
-0.168085
-0.164933
-0.161375
-0.157393
-0.152975
-0.148114
-0.142809
-0.137068
-0.130908
-0.124355
-0.117447
-0.11023
-0.102762
-0.0951085
-0.0873418
-0.0795401
-0.0717846
-0.0641567
-0.0567357
-0.0495959
-0.0428042
-0.036419
-0.030487
-0.0250448
-0.0201156
-0.0157136
-0.0118386
-0.00848578
-0.00563542
-0.00326989
-0.00135497
0.000132933
0.00123769
0.00198279
0.00241816
0.0025639
0.00247218
0.00216329
0.00168485
0.00107345
0.000358799
-0.169479
-0.170807
-0.172026
-0.173145
-0.174159
-0.175056
-0.175833
-0.176483
-0.177002
-0.177381
-0.177612
-0.177685
-0.177591
-0.177315
-0.176846
-0.176167
-0.175262
-0.174113
-0.172699
-0.171001
-0.168996
-0.166663
-0.16398
-0.160927
-0.157486
-0.153641
-0.149381
-0.1447
-0.139597
-0.13408
-0.128166
-0.121878
-0.115251
-0.108328
-0.101164
-0.0938175
-0.0863575
-0.0788563
-0.0713899
-0.0640347
-0.0568653
-0.0499524
-0.0433602
-0.0371446
-0.0313519
-0.0260182
-0.0211681
-0.0168166
-0.0129666
-0.00961464
-0.00674526
-0.00434171
-0.00237498
-0.000820891
0.000358129
0.00118869
0.00171263
0.00195701
0.00196281
0.00176281
0.00138832
0.000895686
0.00029112
-0.164746
-0.166096
-0.167336
-0.168477
-0.16951
-0.170429
-0.171225
-0.171895
-0.172433
-0.172831
-0.173082
-0.173175
-0.173101
-0.172847
-0.172402
-0.171749
-0.170875
-0.169761
-0.168389
-0.166741
-0.164796
-0.162535
-0.159938
-0.156986
-0.153662
-0.149954
-0.14585
-0.141346
-0.136441
-0.131143
-0.125467
-0.119436
-0.113081
-0.106444
-0.0995727
-0.0925242
-0.0853613
-0.0781517
-0.0709663
-0.0638768
-0.0569535
-0.0502634
-0.0438678
-0.0378207
-0.0321674
-0.0269437
-0.022175
-0.0178772
-0.0140558
-0.0107087
-0.0078244
-0.00538695
-0.00337225
-0.00175564
-0.000505523
0.000407511
0.0010177
0.00135843
0.00146024
0.00136726
0.00109577
0.000720008
0.000224784
-0.160074
-0.161442
-0.1627
-0.163858
-0.164909
-0.165846
-0.166661
-0.167349
-0.167906
-0.168323
-0.168593
-0.168706
-0.168653
-0.168423
-0.168002
-0.167379
-0.166537
-0.165461
-0.164135
-0.162539
-0.160657
-0.158469
-0.155959
-0.153108
-0.149903
-0.14633
-0.142381
-0.13805
-0.133339
-0.128255
-0.12281
-0.117028
-0.110938
-0.104576
-0.0979894
-0.0912291
-0.0843539
-0.0774271
-0.0705147
-0.0636839
-0.0570011
-0.0505295
-0.0443278
-0.0384478
-0.0329339
-0.0278212
-0.0231359
-0.0188947
-0.0151054
-0.0117672
-0.00887188
-0.00640457
-0.00434569
-0.00267026
-0.00135224
-0.000359792
0.000334226
0.000768888
0.000965053
0.000977109
0.00080752
0.000546613
0.000159819
-0.155467
-0.156849
-0.158121
-0.159294
-0.16036
-0.161313
-0.162144
-0.16285
-0.163424
-0.163859
-0.164148
-0.164282
-0.164251
-0.164045
-0.163652
-0.163059
-0.162252
-0.161216
-0.159937
-0.158396
-0.156578
-0.154466
-0.152044
-0.149296
-0.146208
-0.14277
-0.138973
-0.134813
-0.130291
-0.125415
-0.120196
-0.114656
-0.108821
-0.102726
-0.096414
-0.0899324
-0.0833359
-0.0766831
-0.0700358
-0.0634569
-0.0570089
-0.0507515
-0.0447408
-0.0390263
-0.0336515
-0.0286506
-0.0240508
-0.0198689
-0.016115
-0.0127892
-0.0098868
-0.00739359
-0.0052943
-0.00356373
-0.00218104
-0.00111229
-0.000336948
0.000189128
0.000477864
0.000592828
0.000523884
0.000375697
9.62531e-05
-0.15093
-0.152322
-0.153605
-0.154789
-0.155868
-0.156834
-0.157681
-0.158402
-0.158992
-0.159445
-0.159753
-0.159908
-0.1599
-0.159719
-0.159353
-0.158792
-0.158022
-0.157029
-0.155798
-0.154314
-0.152562
-0.150527
-0.148194
-0.145548
-0.142578
-0.139272
-0.135625
-0.131633
-0.127297
-0.122623
-0.117623
-0.112317
-0.10673
-0.100893
-0.0948467
-0.0886347
-0.0823078
-0.0759206
-0.0695306
-0.0631968
-0.0569779
-0.0509303
-0.0451075
-0.0395568
-0.0343205
-0.0294323
-0.0249195
-0.0207994
-0.0170839
-0.0137741
-0.0108683
-0.0083531
-0.00621711
-0.00443507
-0.00299098
-0.00184909
-0.000995013
-0.000380136
-7.42509e-07
0.000214884
0.000245169
0.000207458
3.41181e-05
-0.146468
-0.147866
-0.149157
-0.150349
-0.151438
-0.152415
-0.153274
-0.154009
-0.154615
-0.155085
-0.155412
-0.155587
-0.155601
-0.155446
-0.15511
-0.154582
-0.15385
-0.1529
-0.151719
-0.150294
-0.14861
-0.146653
-0.144409
-0.141865
-0.139011
-0.135838
-0.132339
-0.12851
-0.124355
-0.119878
-0.115092
-0.110013
-0.104665
-0.0990777
-0.0932877
-0.0873363
-0.0812703
-0.0751403
-0.069
-0.0629045
-0.0569091
-0.0510668
-0.0454286
-0.0400398
-0.0349415
-0.0301662
-0.0257419
-0.0216859
-0.0180118
-0.0147213
-0.0118157
-0.00928226
-0.00711322
-0.00528335
-0.00378113
-0.00256933
-0.00163918
-0.000938206
-0.000470194
-0.000156265
-2.83213e-05
4.20947e-05
-2.65539e-05
-0.142085
-0.143485
-0.14478
-0.145977
-0.147073
-0.148059
-0.148929
-0.149676
-0.150296
-0.150782
-0.151127
-0.151322
-0.15136
-0.151231
-0.150925
-0.150431
-0.149737
-0.148832
-0.147703
-0.146338
-0.144722
-0.142843
-0.140689
-0.138248
-0.135509
-0.132466
-0.129112
-0.125444
-0.121465
-0.11718
-0.1126
-0.107741
-0.102625
-0.0972791
-0.0917373
-0.0860378
-0.080224
-0.074343
-0.068445
-0.0625811
-0.0568034
-0.0511619
-0.0457051
-0.0404761
-0.0355148
-0.0308528
-0.0265182
-0.0225282
-0.0188982
-0.0156303
-0.0127283
-0.0101803
-0.00798179
-0.00610771
-0.00455065
-0.00327216
-0.00226869
-0.00148441
-0.000929934
-0.000520168
-0.000296291
-0.000120197
-8.57297e-05
-0.137785
-0.139184
-0.140479
-0.141678
-0.142778
-0.143771
-0.144649
-0.145407
-0.14604
-0.146541
-0.146903
-0.147118
-0.147179
-0.147076
-0.1468
-0.146341
-0.145687
-0.144828
-0.143752
-0.142446
-0.140899
-0.139099
-0.137035
-0.134695
-0.132071
-0.129156
-0.125944
-0.122434
-0.118627
-0.114528
-0.110148
-0.105502
-0.10061
-0.0954978
-0.0901956
-0.0847395
-0.0791697
-0.0735297
-0.0678663
-0.0622274
-0.0566618
-0.0512166
-0.0459378