0.146059 	0.485771 	-9.52745e-19 	0.877133 	-0.0417738 	1.7154e-19
0.148734 	0.494668 	4.1443e-19 	0.369926 	-0.0110461 	6.6076e-17
0.150143 	0.499354 	1.23955e-18 	0.344571 	-0.00835735 	6.52222e-17
