0.216245 	0.457343 	7.53464e-19 	1.06317 	-0.0185776 	-3.17627e-15
0.218608 	0.462342 	9.51306e-19 	1.06634 	-0.0188807 	-3.74175e-15
0.220972 	0.46734 	4.02018e-19 	1.06932 	-0.0191691 	-5.55137e-15
0.223335 	0.472338 	-2.11073e-19 	1.06948 	-0.019347 	-7.90575e-17
0.225698 	0.477336 	-1.04316e-18 	1.05718 	-0.0190748 	1.72141e-15
0.228062 	0.482335 	-2.0078e-18 	1.00727 	-0.0175231 	7.72294e-16
0.230425 	0.487333 	-1.97437e-18 	0.87262 	-0.0132891 	1.20053e-15
0.232788 	0.492331 	-1.22696e-18 	0.599638 	-0.00574665 	3.59539e-16
0.235152 	0.49733 	-1.23955e-18 	0.202213 	-0.000267552 	1.3342e-16
