0.156341 	0.482335 	5.68942e-19 	1.03474 	-0.0235354 	5.32612e-16
0.157961 	0.487333 	1.34445e-18 	0.931751 	-0.019934 	-1.83988e-15
0.159581 	0.492331 	1.51624e-18 	0.680508 	-0.0113775 	-9.57233e-16
0.161201 	0.49733 	5.41057e-19 	0.240591 	-0.00144068 	-6.8722e-16
