/*--------------------------------*- C++ -*----------------------------------*\
  =========                 |
  \\      /  F ield         | OpenFOAM: The Open Source CFD Toolbox
   \\    /   O peration     | Website:  https://openfoam.org
    \\  /    A nd           | Version:  7
     \\/     M anipulation  |
\*---------------------------------------------------------------------------*/
FoamFile
{
    version     2.0;
    format      ascii;
    class       volVectorField;
    location    "5.4";
    object      U;
}
// * * * * * * * * * * * * * * * * * * * * * * * * * * * * * * * * * * * * * //

dimensions      [0 1 -1 0 0 0 0];

internalField   nonuniform List<vector> 
346
(
(0.292475 -0.00246474 -1.51967e-15)
(0.290015 -0.00288752 -1.47006e-15)
(0.287128 -0.00338832 -1.50552e-15)
(0.283736 -0.00398149 -1.66093e-15)
(0.279743 -0.00468389 -1.6035e-15)
(0.275036 -0.00551523 -1.73745e-15)
(0.26948 -0.00649838 -1.67426e-15)
(0.262915 -0.00765975 -1.68545e-15)
(0.255151 -0.00902955 -1.46981e-15)
(0.245961 -0.0106426 -1.39064e-15)
(0.235079 -0.0125391 -1.37705e-15)
(0.222188 -0.0147674 -1.44135e-15)
(0.206917 -0.0173828 -1.59946e-15)
(0.188829 -0.0204434 -1.53088e-15)
(0.167461 -0.0239588 -1.62406e-15)
(0.142322 -0.0277871 -1.51128e-15)
(0.1133 -0.0312878 -1.44642e-15)
(0.0806256 -0.0330674 -1.14583e-15)
(0.0473761 -0.0301828 -9.1567e-16)
(0.0161734 -0.0206035 -6.79893e-16)
(0.000495491 -0.00243119 -3.75095e-16)
(0.258292 -0.000166687 -1.03476e-15)
(0.258092 -0.000164339 -1.08383e-15)
(0.257895 -0.000162077 -8.67982e-16)
(0.2577 -0.000159905 -7.41816e-16)
(0.257508 -0.000157832 -7.732e-16)
(0.257319 -0.000155863 -8.57161e-16)
(0.257132 -0.00015401 -1.06848e-15)
(0.256947 -0.000152283 -1.00135e-15)
(0.256764 -0.000150697 -1.17848e-15)
(0.256583 -0.000149268 -1.08021e-15)
(0.256403 -0.000148015 -1.12515e-15)
(0.256225 -0.000146961 -9.63628e-16)
(0.256049 -0.000146136 -9.3909e-16)
(0.255873 -0.00014557 -9.88426e-16)
(0.255698 -0.000145303 -1.20676e-15)
(0.255523 -0.000145381 -1.11464e-15)
(0.255348 -0.000145857 -1.28317e-15)
(0.255172 -0.000146796 -1.19722e-15)
(0.254995 -0.000148274 -1.23722e-15)
(0.254816 -0.000150379 -1.07691e-15)
(0.254634 -0.000153218 -1.03985e-15)
(0.254449 -0.000156913 -1.08807e-15)
(0.254258 -0.000161613 -1.28282e-15)
(0.254062 -0.000167489 -1.19632e-15)
(0.253859 -0.000174748 -1.34754e-15)
(0.253646 -0.000183629 -1.28419e-15)
(0.253422 -0.000194417 -1.3223e-15)
(0.253185 -0.00020745 -1.11925e-15)
(0.252931 -0.000223123 -1.02997e-15)
(0.252657 -0.000241906 -1.02552e-15)
(0.25236 -0.000264353 -1.09765e-15)
(0.252034 -0.000291118 -1.28887e-15)
(0.251675 -0.000322976 -1.20747e-15)
(0.251276 -0.00036084 -1.37317e-15)
(0.250829 -0.000405794 -1.29764e-15)
(0.250326 -0.000459117 -1.33391e-15)
(0.249756 -0.000522327 -1.16557e-15)
(0.249106 -0.000597218 -1.149e-15)
(0.248362 -0.000685917 -1.19861e-15)
(0.247507 -0.000790946 -1.37024e-15)
(0.246519 -0.000915291 -1.2945e-15)
(0.245375 -0.00106249 -1.45465e-15)
(0.244046 -0.00123676 -1.36876e-15)
(0.242496 -0.00144305 -1.39503e-15)
(0.240686 -0.00168727 -1.2275e-15)
(0.238568 -0.00197638 -1.19476e-15)
(0.236083 -0.00231859 -1.23914e-15)
(0.233163 -0.00272355 -1.41163e-15)
(0.229729 -0.00320257 -1.32809e-15)
(0.225683 -0.00376875 -1.47748e-15)
(0.220913 -0.0044372 -1.40492e-15)
(0.215284 -0.00522518 -1.41908e-15)
(0.208637 -0.00615226 -1.20064e-15)
(0.200787 -0.00724073 -1.11092e-15)
(0.191512 -0.00851636 -1.10862e-15)
(0.180557 -0.0100104 -1.18427e-15)
(0.16762 -0.0117598 -1.35287e-15)
(0.152347 -0.0138053 -1.26454e-15)
(0.134364 -0.0161553 -1.38423e-15)
(0.113282 -0.0187152 -1.25518e-15)
(0.0890602 -0.0210277 -1.19633e-15)
(0.062022 -0.0221128 -9.08603e-16)
(0.0350004 -0.0198377 -7.22463e-16)
(0.0105273 -0.0129368 -5.58618e-16)
(-0.000554272 -0.000292365 -3.46859e-16)
(0.202556 -0.000101104 -7.07681e-16)
(0.202396 -9.96832e-05 -7.8432e-16)
(0.202239 -9.83147e-05 -6.53866e-16)
(0.202084 -9.70018e-05 -4.06428e-16)
(0.201931 -9.57486e-05 -4.59687e-16)
(0.20178 -9.456e-05 -5.34957e-16)
(0.201631 -9.34418e-05 -8.02071e-16)
(0.201483 -9.24013e-05 -6.35807e-16)
(0.201337 -9.14469e-05 -8.93167e-16)
(0.201193 -9.05888e-05 -7.35784e-16)
(0.20105 -8.98392e-05 -8.20494e-16)
(0.200908 -8.92124e-05 -5.80418e-16)
(0.200766 -8.87254e-05 -5.74091e-16)
(0.200626 -8.83985e-05 -6.6062e-16)
(0.200486 -8.82556e-05 -9.09736e-16)
(0.200346 -8.83249e-05 -7.34388e-16)
(0.200206 -8.86399e-05 -9.79066e-16)
(0.200066 -8.92401e-05 -8.24099e-16)
(0.199924 -9.0172e-05 -8.97746e-16)
(0.199781 -9.14908e-05 -6.71916e-16)
(0.199635 -9.32614e-05 -6.60944e-16)
(0.199486 -9.55606e-05 -7.25056e-16)
(0.199334 -9.84788e-05 -9.74406e-16)
(0.199176 -0.000102123 -7.97731e-16)
(0.199012 -0.000106619 -1.0301e-15)
(0.198841 -0.000112116 -9.03252e-16)
(0.19866 -0.000118789 -9.81069e-16)
(0.198469 -0.000126845 -8.50285e-16)
(0.198264 -0.000136531 -6.35248e-16)
(0.198042 -0.000148133 -6.54333e-16)
(0.197802 -0.000161995 -7.33009e-16)
(0.197538 -0.000178519 -9.81195e-16)
(0.197246 -0.000198183 -8.07151e-16)
(0.196922 -0.000221549 -1.04815e-15)
(0.196559 -0.000249285 -9.06094e-16)
(0.196149 -0.000282178 -9.70849e-16)
(0.195685 -0.000321162 -7.48231e-16)
(0.195155 -0.000367341 -7.4455e-16)
(0.194549 -0.000422022 -8.04002e-16)
(0.193851 -0.000486754 -1.04266e-15)
(0.193045 -0.000563371 -8.78972e-16)
(0.192111 -0.000654043 -1.11404e-15)
(0.191025 -0.000761343 -9.66027e-16)
(0.18976 -0.000888312 -1.02754e-15)
(0.188282 -0.00103855 -7.96619e-16)
(0.186553 -0.00121628 -7.91089e-16)
(0.184525 -0.00142651 -8.44764e-16)
(0.182143 -0.00167506 -1.07659e-15)
(0.179343 -0.00196873 -9.05407e-16)
(0.176048 -0.00231536 -1.13124e-15)
(0.172166 -0.0027239 -9.92343e-16)
(0.167591 -0.00320447 -1.06286e-15)
(0.162197 -0.00376842 -9.17405e-16)
(0.15584 -0.00442853 -7.03676e-16)
(0.148348 -0.00519956 -7.22109e-16)
(0.139522 -0.00609977 -7.95831e-16)
(0.129132 -0.00715152 -1.02459e-15)
(0.116903 -0.00838159 -8.52004e-16)
(0.102542 -0.00979796 -1.05139e-15)
(0.0857458 -0.0113487 -8.70022e-16)
(0.0665059 -0.012742 -8.61293e-16)
(0.0451488 -0.0133649 -5.36387e-16)
(0.0241519 -0.011787 -4.17361e-16)
(0.00578192 -0.00730798 -2.97658e-16)
(-0.00137834 0.000788398 -2.50308e-16)
(0.145873 -5.0967e-05 -4.88268e-16)
(0.145757 -5.02525e-05 -5.3541e-16)
(0.145641 -4.95646e-05 -4.34044e-16)
(0.145528 -4.89049e-05 -1.95837e-16)
(0.145416 -4.82756e-05 -2.67646e-16)
(0.145305 -4.76791e-05 -3.39068e-16)
(0.145196 -4.71185e-05 -5.9933e-16)
(0.145088 -4.65975e-05 -3.5361e-16)
(0.144981 -4.61204e-05 -6.70761e-16)
(0.144875 -4.56924e-05 -4.82302e-16)
(0.144771 -4.53198e-05 -5.32136e-16)
(0.144667 -4.501e-05 -2.89391e-16)
(0.144563 -4.47717e-05 -3.6722e-16)
(0.14446 -4.46153e-05 -4.33973e-16)
(0.144358 -4.4553e-05 -6.8442e-16)
(0.144255 -4.45993e-05 -4.38858e-16)
(0.144153 -4.47714e-05 -7.18424e-16)
(0.144049 -4.50895e-05 -5.58386e-16)
(0.143945 -4.55775e-05 -6.03934e-16)
(0.14384 -4.62637e-05 -3.64175e-16)
(0.143733 -4.71814e-05 -4.2131e-16)
(0.143623 -4.83699e-05 -4.79935e-16)
(0.143511 -4.98755e-05 -7.21038e-16)
(0.143395 -5.17532e-05 -4.82862e-16)
(0.143274 -5.40674e-05 -7.67219e-16)
(0.143148 -5.68944e-05 -6.235e-16)
(0.143014 -6.03243e-05 -6.7696e-16)
(0.142872 -6.44633e-05 -5.87383e-16)
(0.14272 -6.94367e-05 -3.50047e-16)
(0.142556 -7.53928e-05 -4.06044e-16)
(0.142377 -8.25063e-05 -4.79642e-16)
(0.142181 -9.09839e-05 -7.33553e-16)
(0.141965 -0.00010107 -4.9454e-16)
(0.141723 -0.000113052 -7.68597e-16)
(0.141452 -0.000127272 -6.14471e-16)
(0.141147 -0.000144134 -6.54668e-16)
(0.1408 -0.000164113 -4.22216e-16)
(0.140405 -0.000187774 -4.7094e-16)
(0.139952 -0.000215786 -5.38791e-16)
(0.13943 -0.000248937 -7.65132e-16)
(0.138828 -0.000288164 -5.46778e-16)
(0.138129 -0.000334571 -8.17617e-16)
(0.137317 -0.000389467 -6.58577e-16)
(0.136371 -0.000454397 -6.93874e-16)
(0.135266 -0.000531181 -4.61839e-16)
(0.133973 -0.000621964 -5.07982e-16)
(0.132457 -0.000729256 -5.64608e-16)
(0.130678 -0.000855989 -7.88696e-16)
(0.128587 -0.00100555 -5.7029e-16)
(0.126128 -0.00118183 -8.3413e-16)
(0.123235 -0.00138923 -6.816e-16)
(0.119829 -0.00163265 -7.27615e-16)
(0.115821 -0.00191753 -6.32511e-16)
(0.111106 -0.00224991 -3.95165e-16)
(0.105562 -0.00263672 -4.6294e-16)
(0.0990498 -0.00308685 -5.25216e-16)
(0.0914053 -0.0036116 -7.54815e-16)
(0.0824327 -0.00422626 -5.23353e-16)
(0.0719189 -0.00493733 -7.72422e-16)
(0.0596339 -0.00572536 -5.84099e-16)
(0.0455727 -0.00643568 -5.73663e-16)
(0.0299912 -0.006759 -2.65119e-16)
(0.014883 -0.00586095 -2.38894e-16)
(0.00207189 -0.00346001 -1.73028e-16)
(-0.00188437 0.00104413 -2.10774e-16)
(0.0882476 -1.74415e-05 -2.31123e-16)
(0.0881759 -1.71977e-05 -3.0231e-16)
(0.0881051 -1.69631e-05 -2.48561e-16)
(0.0880354 -1.67382e-05 -6.4327e-17)
(0.0879665 -1.65238e-05 -7.89729e-17)
(0.0878985 -1.63208e-05 -1.27938e-16)
(0.0878314 -1.61302e-05 -3.27752e-16)
(0.087765 -1.59533e-05 -1.55979e-16)
(0.0876993 -1.57916e-05 -3.74318e-16)
(0.0876343 -1.56471e-05 -2.21857e-16)
(0.0875698 -1.55217e-05 -2.93755e-16)
(0.0875058 -1.54181e-05 -1.1762e-16)
(0.0874422 -1.53394e-05 -1.4468e-16)
(0.0873789 -1.52892e-05 -1.82441e-16)
(0.0873158 -1.52718e-05 -3.70816e-16)
(0.0872526 -1.52922e-05 -2.13852e-16)
(0.0871894 -1.53564e-05 -4.04656e-16)
(0.0871258 -1.54714e-05 -2.76121e-16)
(0.0870616 -1.56457e-05 -3.4447e-16)
(0.0869966 -1.58891e-05 -1.62765e-16)
(0.0869305 -1.62131e-05 -1.81037e-16)
(0.0868629 -1.66315e-05 -2.18806e-16)
(0.0867935 -1.71605e-05 -3.99744e-16)
(0.0867216 -1.78192e-05 -2.40537e-16)
(0.0866468 -1.86302e-05 -4.31081e-16)
(0.0865685 -1.96199e-05 -3.12293e-16)
(0.0864857 -2.08198e-05 -3.9169e-16)
(0.0863976 -2.2267e-05 -3.42106e-16)
(0.0863031 -2.40051e-05 -1.44411e-16)
(0.086201 -2.60858e-05 -1.63632e-16)
(0.0860896 -2.85699e-05 -2.15837e-16)
(0.0859673 -3.15295e-05 -4.01518e-16)
(0.085832 -3.50496e-05 -2.4658e-16)
(0.0856812 -3.92306e-05 -4.27904e-16)
(0.085512 -4.41912e-05 -3.02487e-16)
(0.0853209 -5.00716e-05 -3.70287e-16)
(0.085104 -5.70376e-05 -1.93335e-16)
(0.0848564 -6.52854e-05 -2.16493e-16)
(0.0845726 -7.50466e-05 -2.62541e-16)
(0.0842457 -8.65953e-05 -4.30758e-16)
(0.083868 -0.000100255 -2.74565e-16)
(0.0834302 -0.00011641 -4.57656e-16)
(0.0829212 -0.000135509 -3.28011e-16)
(0.082328 -0.000158087 -3.95653e-16)
(0.0816352 -0.000184769 -2.15649e-16)
(0.0808247 -0.000216291 -2.34262e-16)
(0.079875 -0.00025351 -2.80164e-16)
(0.0787608 -0.000297421 -4.40474e-16)
(0.0774524 -0.00034917 -2.91331e-16)
(0.0759148 -0.000410058 -4.70547e-16)
(0.0741074 -0.000481539 -3.54228e-16)
(0.0719826 -0.000565214 -4.19166e-16)
(0.0694858 -0.000662806 -3.69141e-16)
(0.0665542 -0.000776209 -1.76374e-16)
(0.0631159 -0.000907557 -2.01202e-16)
(0.0590877 -0.00105975 -2.4707e-16)
(0.0543732 -0.00123666 -4.24044e-16)
(0.0488541 -0.00144463 -2.63419e-16)
(0.0423973 -0.00168736 -4.32833e-16)
(0.0348483 -0.00196372 -2.90686e-16)
(0.0261915 -0.00221713 -3.21074e-16)
(0.016563 -0.00235105 -1.01845e-16)
(0.00731667 -0.00199999 -7.38386e-17)
(-0.000330022 -0.00113674 -3.65628e-17)
(-0.00188637 0.000731361 -1.06619e-16)
(0.0296821 -2.52655e-06 -7.9034e-17)
(0.0296575 -2.49143e-06 -1.01318e-16)
(0.0296333 -2.45765e-06 -8.31156e-17)
(0.0296094 -2.42531e-06 -1.87596e-17)
(0.0295858 -2.39451e-06 -2.18824e-17)
(0.0295625 -2.36539e-06 -5.26811e-17)
(0.0295394 -2.3381e-06 -1.04791e-16)
(0.0295167 -2.31283e-06 -5.72544e-17)
(0.0294942 -2.28983e-06 -1.10056e-16)
(0.0294719 -2.26936e-06 -7.646e-17)
(0.0294498 -2.25175e-06 -8.6422e-17)
(0.0294278 -2.23738e-06 -3.86774e-17)
(0.029406 -2.22671e-06 -5.04026e-17)
(0.0293843 -2.22029e-06 -6.44513e-17)
(0.0293626 -2.21875e-06 -1.13507e-16)
(0.0293409 -2.22286e-06 -7.42515e-17)
(0.0293192 -2.23351e-06 -1.3092e-16)
(0.0292973 -2.25175e-06 -9.64359e-17)
(0.0292752 -2.27885e-06 -1.06419e-16)
(0.0292529 -2.31626e-06 -5.42929e-17)
(0.0292301 -2.36574e-06 -5.88058e-17)
(0.0292068 -2.42933e-06 -7.95737e-17)
(0.0291829 -2.50946e-06 -1.26098e-16)
(0.0291581 -2.60898e-06 -8.16416e-17)
(0.0291323 -2.73127e-06 -1.40898e-16)
(0.0291052 -2.8803e-06 -1.0094e-16)
(0.0290765 -3.06076e-06 -1.24961e-16)
(0.029046 -3.27819e-06 -1.11712e-16)
(0.0290132 -3.53913e-06 -5.12753e-17)
(0.0289777 -3.85128e-06 -5.68505e-17)
(0.028939 -4.22374e-06 -7.44431e-17)
(0.0288965 -4.66725e-06 -1.3288e-16)
(0.0288494 -5.19451e-06 -8.57489e-17)
(0.0287968 -5.82047e-06 -1.38088e-16)
(0.0287377 -6.56283e-06 -1.02474e-16)
(0.0286711 -7.44245e-06 -1.1857e-16)
(0.0285953 -8.48401e-06 -6.80098e-17)
(0.0285087 -9.7166e-06 -6.90693e-17)
(0.0284095 -1.11746e-05 -8.83229e-17)
(0.0282952 -1.28986e-05 -1.35162e-16)
(0.0281631 -1.49364e-05 -9.76735e-17)
(0.0280099 -1.73444e-05 -1.45605e-16)
(0.0278318 -2.01891e-05 -1.09346e-16)
(0.0276242 -2.35482e-05 -1.31293e-16)
(0.0273819 -2.75132e-05 -6.97935e-17)
(0.0270985 -3.21904e-05 -7.58374e-17)
(0.0267665 -3.77035e-05 -9.77668e-17)
(0.0263773 -4.41944e-05 -1.43856e-16)
(0.0259205 -5.18244e-05 -1.00213e-16)
(0.0253842 -6.07738e-05 -1.52035e-16)
(0.0247545 -7.1239e-05 -1.19903e-16)
(0.0240154 -8.3429e-05 -1.35659e-16)
(0.0231484 -9.75565e-05 -1.19248e-16)
(0.0221327 -0.000113845 -6.29048e-17)
(0.0209447 -0.000132531 -6.27722e-17)
(0.0195575 -0.000153994 -8.4961e-17)
(0.0179398 -0.000178783 -1.36306e-16)
(0.0160516 -0.000208213 -9.05215e-17)
(0.0138456 -0.000243282 -1.34143e-16)
(0.0112584 -0.00028606 -9.25535e-17)
(0.00827298 -0.000327148 -1.04566e-16)
(0.00490423 -0.000357924 -3.25186e-17)
(0.0016843 -0.000294647 -2.45782e-17)
(-0.000955399 -0.000161698 -1.55643e-17)
(-0.00107876 0.000231518 -3.34156e-17)
)
;

boundaryField
{
    inlet
    {
        type            uniformFixedValue;
        uniformValue    constant (1 0 0);
        value           nonuniform 0();
    }
    outlet
    {
        type            pressureInletOutletVelocity;
        value           nonuniform 0();
    }
    wall
    {
        type            fixedValue;
        value           uniform (0 0 0);
    }
    wedge1
    {
        type            wedge;
    }
    wedge2
    {
        type            wedge;
    }
    axis
    {
        type            empty;
    }
    procBoundary44to38
    {
        type            processor;
        value           nonuniform List<vector> 
66
(
(0.343642 -0.00335853 -1.7983e-15)
(0.340887 -0.00393517 -1.73768e-15)
(0.337655 -0.00461871 -1.76954e-15)
(0.333854 -0.00542902 -1.94068e-15)
(0.329378 -0.00638958 -1.87396e-15)
(0.324097 -0.00752798 -2.0273e-15)
(0.317859 -0.0088765 -1.9357e-15)
(0.310477 -0.0104727 -1.98403e-15)
(0.301734 -0.0123599 -1.71841e-15)
(0.291365 -0.0145887 -1.65105e-15)
(0.279056 -0.0172177 -1.6345e-15)
(0.264432 -0.0203163 -1.69801e-15)
(0.247053 -0.0239634 -1.88433e-15)
(0.226393 -0.0282388 -1.7944e-15)
(0.201892 -0.033157 -1.90449e-15)
(0.172934 -0.0385306 -1.76052e-15)
(0.139292 -0.0435294 -1.72595e-15)
(0.101005 -0.0463143 -1.38295e-15)
(0.0612891 -0.0430184 -1.10485e-15)
(0.0226839 -0.0305841 -8.18146e-16)
(0.00173925 -0.00582863 -4.57468e-16)
(0.313077 -0.000247215 -1.20862e-15)
(0.312839 -0.000243725 -1.25607e-15)
(0.312604 -0.000240361 -1.04383e-15)
(0.312372 -0.00023713 -9.56257e-16)
(0.312144 -0.000234043 -9.53292e-16)
(0.311918 -0.000231111 -1.04441e-15)
(0.311695 -0.000228348 -1.23094e-15)
(0.311475 -0.000225771 -1.19578e-15)
(0.311257 -0.000223399 -1.34294e-15)
(0.311042 -0.000221257 -1.28729e-15)
(0.310829 -0.000219373 -1.34631e-15)
(0.310617 -0.000217782 -1.18867e-15)
(0.310407 -0.000216523 -1.15579e-15)
(0.310198 -0.000215644 -1.2099e-15)
(0.30999 -0.000215201 -1.39131e-15)
(0.309782 -0.000215262 -1.34464e-15)
(0.309574 -0.000215904 -1.48346e-15)
(0.309365 -0.000217223 -1.42853e-15)
(0.309155 -0.000219327 -1.4705e-15)
(0.308942 -0.000222346 -1.32852e-15)
(0.308727 -0.000226434 -1.28136e-15)
(0.308508 -0.000231773 -1.32405e-15)
(0.308283 -0.000238576 -1.49524e-15)
(0.308051 -0.000247096 -1.4397e-15)
(0.307811 -0.00025763 -1.57476e-15)
(0.30756 -0.000270531 -1.52364e-15)
(0.307296 -0.000286213 -1.56022e-15)
(0.307017 -0.000305167 -1.36423e-15)
(0.306718 -0.000327972 -1.28471e-15)
(0.306397 -0.000355311 -1.2679e-15)
(0.306049 -0.000387993 -1.33266e-15)
(0.305668 -0.000426973 -1.51128e-15)
(0.305248 -0.00047338 -1.46459e-15)
(0.304782 -0.000528549 -1.61146e-15)
(0.304261 -0.00059406 -1.54622e-15)
(0.303674 -0.000671784 -1.59673e-15)
(0.30301 -0.000763935 -1.44246e-15)
(0.302255 -0.000873138 -1.40961e-15)
(0.30139 -0.0010025 -1.44745e-15)
(0.300396 -0.00115572 -1.61481e-15)
(0.299248 -0.00133716 -1.56138e-15)
(0.29792 -0.00155202 -1.69811e-15)
(0.296376 -0.00180647 -1.63446e-15)
(0.294577 -0.00210782 -1.67266e-15)
(0.294577 -0.00210782 -1.67266e-15)
)
;
    }
    procBoundary44to43
    {
        type            processor;
        value           nonuniform List<vector> 5((0.258495 -0.000169117 -1.13118e-15) (0.202718 -0.000102575 -8.73155e-16) (0.145992 -5.17067e-05 -6.47219e-16) (0.0883203 -1.76939e-05 -3.64756e-16) (0.029707 -2.56295e-06 -1.04503e-16));
    }
}


// ************************************************************************* //
