/*--------------------------------*- C++ -*----------------------------------*\
  =========                 |
  \\      /  F ield         | OpenFOAM: The Open Source CFD Toolbox
   \\    /   O peration     | Website:  https://openfoam.org
    \\  /    A nd           | Version:  7
     \\/     M anipulation  |
\*---------------------------------------------------------------------------*/
FoamFile
{
    version     2.0;
    format      ascii;
    class       volVectorField;
    location    "45.000326";
    object      U;
}
// * * * * * * * * * * * * * * * * * * * * * * * * * * * * * * * * * * * * * //

dimensions      [0 1 -1 0 0 0 0];

internalField   nonuniform List<vector> 
5800
(
(-0.10506 -0.0100752 -7.99325e-21)
(-0.132718 -0.00876176 -3.27903e-21)
(-0.153132 -0.00680106 2.01045e-20)
(-0.166621 -0.00431369 -7.88084e-21)
(-0.173338 -0.00149322 8.88643e-22)
(1.05171 -0.000808852 0)
(1.05231 -0.00079214 0)
(1.05292 -0.000774746 0)
(1.05353 -0.000756648 0)
(1.05413 -0.000737826 0)
(1.05473 -0.000718258 0)
(1.05532 -0.000697926 0)
(1.05591 -0.000676814 0)
(1.0565 -0.000654907 0)
(1.05707 -0.000632194 0)
(1.05764 -0.000608666 0)
(1.05819 -0.000584317 0)
(1.05874 -0.000559143 0)
(1.05926 -0.000533142 0)
(1.05978 -0.000506316 0)
(1.06028 -0.00047867 0)
(1.06075 -0.00045021 0)
(1.06121 -0.000420949 0)
(1.06165 -0.0003909 0)
(1.06206 -0.000360081 0)
(1.06244 -0.000328513 0)
(1.0628 -0.000296222 0)
(1.06312 -0.000263237 0)
(1.06341 -0.000229592 0)
(1.06367 -0.000195323 0)
(1.06389 -0.000160472 0)
(1.06407 -0.000125087 0)
(1.06421 -8.9215e-05 0)
(1.0643 -5.29136e-05 0)
(1.06435 -1.62379e-05 0)
(1.06434 2.07437e-05 0)
(1.06429 5.797e-05 0)
(1.06418 9.53614e-05 0)
(1.06401 0.000132854 0)
(1.06379 0.000170352 0)
(1.0635 0.000207796 0)
(1.06316 0.000245068 0)
(1.06274 0.000282122 0)
(1.06226 0.000318808 0)
(1.06171 0.000355114 0)
(1.06109 0.000390836 0)
(1.06039 0.000426025 0)
(1.05963 0.000460389 0)
(1.05877 0.000494088 0)
(1.05786 0.000526693 0)
(1.05683 0.000558545 0)
(1.05579 0.000588989 0)
(1.05458 0.000618658 0)
(1.0534 0.000646545 0)
(1.052 0.000673734 0)
(1.05071 0.00069868 0)
(1.04909 0.000723141 0)
(1.0477 0.000744781 0)
(1.04585 0.000766319 0)
(1.04441 0.000784311 0)
(1.04227 0.000802773 0)
(1.04085 0.000816817 0)
(1.03835 0.00083205 0)
(1.03705 0.000841926 0)
(1.0341 0.000853664 0)
(1.03305 0.000859349 0)
(1.0295 0.000866978 0)
(1.02891 0.00086902 0)
(1.02452 0.000871146 0)
(1.05192 -0.0023983 0)
(1.05253 -0.00235014 0)
(1.05314 -0.00229974 0)
(1.05375 -0.00224707 0)
(1.05435 -0.00219209 0)
(1.05496 -0.00213474 0)
(1.05555 -0.002075 0)
(1.05614 -0.00201282 0)
(1.05673 -0.00194817 0)
(1.05731 -0.00188103 0)
(1.05787 -0.00181138 0)
(1.05843 -0.00173922 0)
(1.05898 -0.00166453 0)
(1.05951 -0.00158733 0)
(1.06002 -0.00150761 0)
(1.06052 -0.0014254 0)
(1.061 -0.00134073 0)
(1.06146 -0.00125364 0)
(1.06189 -0.00116416 0)
(1.0623 -0.00107237 0)
(1.06269 -0.000978314 0)
(1.06305 -0.000882085 0)
(1.06337 -0.00078377 0)
(1.06366 -0.000683471 0)
(1.06392 -0.000581301 0)
(1.06414 -0.000477386 0)
(1.06432 -0.000371868 0)
(1.06445 -0.000264895 0)
(1.06455 -0.000156635 0)
(1.06459 -4.72606e-05 0)
(1.06459 6.30314e-05 0)
(1.06453 0.000174052 0)
(1.06442 0.00028557 0)
(1.06425 0.000397383 0)
(1.06403 0.000509217 0)
(1.06374 0.000620872 0)
(1.06339 0.000732028 0)
(1.06297 0.000842506 0)
(1.06249 0.000951916 0)
(1.06193 0.00106014 0)
(1.06131 0.00116668 0)
(1.0606 0.00127153 0)
(1.05984 0.00137404 0)
(1.05898 0.00147441 0)
(1.05807 0.0015717 0)
(1.05704 0.00166648 0)
(1.05599 0.00175741 0)
(1.05478 0.00184556 0)
(1.05359 0.00192898 0)
(1.05219 0.00200957 0)
(1.05089 0.00208441 0)
(1.04927 0.00215661 0)
(1.04788 0.00222188 0)
(1.04602 0.002285 0)
(1.04458 0.00233983 0)
(1.04243 0.00239326 0)
(1.04101 0.00243691 0)
(1.03851 0.00248006 0)
(1.0372 0.002512 0)
(1.03425 0.00254406 0)
(1.0332 0.00256412 0)
(1.02964 0.00258367 0)
(1.02905 0.00259257 0)
(1.02465 0.00259695 0)
(1.05235 -0.00397393 0)
(1.05296 -0.00389386 0)
(1.05357 -0.00381007 0)
(1.05419 -0.0037225 0)
(1.05479 -0.00363109 0)
(1.0554 -0.00353576 0)
(1.056 -0.00343647 0)
(1.0566 -0.00333314 0)
(1.05719 -0.00322575 0)
(1.05777 -0.00311424 0)
(1.05834 -0.0029986 0)
(1.0589 -0.00287881 0)
(1.05944 -0.00275486 0)
(1.05998 -0.00262676 0)
(1.06049 -0.00249452 0)
(1.061 -0.00235817 0)
(1.06148 -0.00221777 0)
(1.06194 -0.00207337 0)
(1.06237 -0.00192505 0)
(1.06279 -0.0017729 0)
(1.06317 -0.00161704 0)
(1.06353 -0.0014576 0)
(1.06385 -0.00129473 0)
(1.06415 -0.00112859 0)
(1.0644 -0.000959375 0)
(1.06462 -0.000787294 0)
(1.0648 -0.000612579 0)
(1.06493 -0.000435477 0)
(1.06502 -0.000256268 0)
(1.06507 -7.52356e-05 0)
(1.06506 0.000107295 0)
(1.065 0.000291003 0)
(1.06489 0.000475517 0)
(1.06472 0.000660486 0)
(1.06449 0.000845481 0)
(1.06419 0.00103014 0)
(1.06384 0.00121397 0)
(1.06341 0.00139663 0)
(1.06293 0.00157754 0)
(1.06236 0.0017564 0)
(1.06174 0.00193254 0)
(1.06102 0.00210576 0)
(1.06025 0.00227522 0)
(1.05938 0.00244092 0)
(1.05847 0.00260179 0)
(1.05743 0.00275813 0)
(1.05637 0.00290852 0)
(1.05515 0.00305374 0)
(1.05396 0.00319184 0)
(1.05255 0.00332432 0)
(1.05124 0.00344847 0)
(1.04962 0.00356674 0)
(1.04822 0.00367544 0)
(1.04635 0.00377822 0)
(1.0449 0.00387019 0)
(1.04275 0.00395634 0)
(1.04132 0.00403054 0)
(1.03881 0.00409894 0)
(1.03749 0.00415462 0)
(1.03453 0.00420396 0)
(1.03348 0.00424073 0)
(1.02991 0.00426917 0)
(1.02931 0.00428717 0)
(1.02491 0.00429194 0)
(1.05297 -0.00552801 0)
(1.05359 -0.00541636 0)
(1.05421 -0.00529954 0)
(1.05482 -0.00517745 0)
(1.05544 -0.00505001 0)
(1.05605 -0.00491712 0)
(1.05666 -0.00477871 0)
(1.05726 -0.0046347 0)
(1.05785 -0.00448501 0)
(1.05844 -0.00432961 0)
(1.05901 -0.00416846 0)
(1.05958 -0.00400152 0)
(1.06013 -0.0038288 0)
(1.06067 -0.00365031 0)
(1.06119 -0.00346607 0)
(1.06169 -0.00327612 0)
(1.06217 -0.00308054 0)
(1.06264 -0.0028794 0)
(1.06308 -0.00267283 0)
(1.06349 -0.00246095 0)
(1.06388 -0.00224391 0)
(1.06423 -0.00202192 0)
(1.06456 -0.00179516 0)
(1.06485 -0.00156389 0)
(1.06511 -0.00132836 0)
(1.06533 -0.00108888 0)
(1.0655 -0.000845752 0)
(1.06563 -0.000599342 0)
(1.06572 -0.00035003 0)
(1.06576 -9.82196e-05 0)
(1.06575 0.00015564 0)
(1.06569 0.000411095 0)
(1.06557 0.000667635 0)
(1.06539 0.000924761 0)
(1.06515 0.00118189 0)
(1.06485 0.0014385 0)
(1.06449 0.00169393 0)
(1.06406 0.00194767 0)
(1.06357 0.00219895 0)
(1.06299 0.00244732 0)
(1.06236 0.0026919 0)
(1.06164 0.00293231 0)
(1.06086 0.00316755 0)
(1.05997 0.0033974 0)
(1.05905 0.00362064 0)
(1.058 0.00383736 0)
(1.05693 0.00404601 0)
(1.0557 0.00424714 0)
(1.0545 0.00443874 0)
(1.05308 0.004622 0)
(1.05176 0.00479429 0)
(1.05012 0.00495762 0)
(1.04871 0.00510859 0)
(1.04683 0.00525017 0)
(1.04537 0.00537814 0)
(1.0432 0.00549635 0)
(1.04176 0.00559996 0)
(1.03924 0.00569326 0)
(1.03792 0.00577152 0)
(1.03494 0.00583816 0)
(1.03388 0.00589045 0)
(1.0303 0.00592814 0)
(1.0297 0.00595428 0)
(1.02527 0.00595968 0)
(1.05377 -0.00707031 0)
(1.0544 -0.00692711 0)
(1.05503 -0.00677725 0)
(1.05565 -0.00662064 0)
(1.05628 -0.00645717 0)
(1.0569 -0.00628671 0)
(1.05751 -0.00610917 0)
(1.05812 -0.00592446 0)
(1.05872 -0.00573248 0)
(1.05931 -0.00553319 0)
(1.05989 -0.00532653 0)
(1.06046 -0.0051125 0)
(1.06102 -0.00489106 0)
(1.06156 -0.00466225 0)
(1.06209 -0.0044261 0)
(1.06259 -0.00418267 0)
(1.06308 -0.00393206 0)
(1.06355 -0.00367436 0)
(1.06399 -0.00340974 0)
(1.06441 -0.00313836 0)
(1.06479 -0.00286043 0)
(1.06515 -0.00257618 0)
(1.06548 -0.00228589 0)
(1.06577 -0.00198987 0)
(1.06602 -0.00168845 0)
(1.06624 -0.00138202 0)
(1.06641 -0.001071 0)
(1.06654 -0.000755825 0)
(1.06663 -0.000437 0)
(1.06666 -0.000115042 0)
(1.06665 0.000209472 0)
(1.06658 0.000535961 0)
(1.06645 0.000863768 0)
(1.06627 0.00119225 0)
(1.06602 0.00152068 0)
(1.06572 0.00184836 0)
(1.06534 0.00217447 0)
(1.0649 0.00249833 0)
(1.0644 0.00281901 0)
(1.06381 0.00313586 0)
(1.06317 0.00344782 0)
(1.06243 0.00375436 0)
(1.06164 0.00405425 0)
(1.06074 0.00434714 0)
(1.05981 0.00463159 0)
(1.05874 0.00490755 0)
(1.05766 0.00517328 0)
(1.05642 0.00542918 0)
(1.0552 0.00567308 0)
(1.05376 0.005906 0)
(1.05243 0.00612523 0)
(1.05078 0.00633256 0)
(1.04935 0.00652462 0)
(1.04745 0.00670406 0)
(1.04598 0.00686686 0)
(1.0438 0.00701637 0)
(1.04235 0.00714826 0)
(1.03981 0.0072659 0)
(1.03848 0.00736566 0)
(1.03548 0.00744934 0)
(1.03441 0.00751617 0)
(1.03081 0.00756311 0)
(1.03021 0.00759665 0)
(1.02575 0.00760277 0)
(1.05475 -0.00860464 0)
(1.05539 -0.00842963 0)
(1.05603 -0.00824651 0)
(1.05667 -0.00805515 0)
(1.0573 -0.00785542 0)
(1.05793 -0.00764718 0)
(1.05855 -0.00743032 0)
(1.05917 -0.00720471 0)
(1.05978 -0.00697028 0)
(1.06038 -0.00672694 0)
(1.06096 -0.00647464 0)
(1.06154 -0.00621337 0)
(1.0621 -0.00594312 0)
(1.06265 -0.00566391 0)
(1.06318 -0.00537578 0)
(1.0637 -0.00507883 0)
(1.06419 -0.00477316 0)
(1.06466 -0.00445892 0)
(1.0651 -0.00413628 0)
(1.06552 -0.00380547 0)
(1.06591 -0.00346674 0)
(1.06627 -0.00312038 0)
(1.0666 -0.00276672 0)
(1.06689 -0.00240616 0)
(1.06714 -0.0020391 0)
(1.06736 -0.00166601 0)
(1.06753 -0.00128741 0)
(1.06765 -0.000903846 0)
(1.06773 -0.000515924 0)
(1.06776 -0.00012428 0)
(1.06774 0.000270381 0)
(1.06766 0.000667345 0)
(1.06753 0.00106581 0)
(1.06734 0.001465 0)
(1.06708 0.00186402 0)
(1.06676 0.00226203 0)
(1.06638 0.00265803 0)
(1.06593 0.00305117 0)
(1.06541 0.00344035 0)
(1.06481 0.00382474 0)
(1.06415 0.00420312 0)
(1.0634 0.00457477 0)
(1.06259 0.00493827 0)
(1.06168 0.00529312 0)
(1.06073 0.00563768 0)
(1.05965 0.00597175 0)
(1.05855 0.0062934 0)
(1.05729 0.0066029 0)
(1.05605 0.00689791 0)
(1.0546 0.00717934 0)
(1.05324 0.00744431 0)
(1.05157 0.00769451 0)
(1.05013 0.00792648 0)
(1.04821 0.00814271 0)
(1.04673 0.00833922 0)
(1.04452 0.00851906 0)
(1.04306 0.00867819 0)
(1.0405 0.00881939 0)
(1.03915 0.00893974 0)
(1.03613 0.00903984 0)
(1.03506 0.00912051 0)
(1.03142 0.0091763 0)
(1.03082 0.00921681 0)
(1.02634 0.00922347 0)
(1.05591 -0.0101347 0)
(1.05656 -0.00992757 0)
(1.05721 -0.00971085 0)
(1.05785 -0.00948441 0)
(1.0585 -0.0092481 0)
(1.05914 -0.00900175 0)
(1.05977 -0.00874523 0)
(1.0604 -0.00847841 0)
(1.06102 -0.00820118 0)
(1.06163 -0.00791347 0)
(1.06222 -0.00761523 0)
(1.06281 -0.00730642 0)
(1.06338 -0.00698706 0)
(1.06393 -0.00665717 0)
(1.06447 -0.00631681 0)
(1.06499 -0.0059661 0)
(1.06549 -0.00560516 0)
(1.06596 -0.00523417 0)
(1.06641 -0.00485336 0)
(1.06683 -0.00446298 0)
(1.06722 -0.00406334 0)
(1.06758 -0.0036548 0)
(1.06791 -0.00323775 0)
(1.0682 -0.00281265 0)
(1.06845 -0.00238 0)
(1.06866 -0.00194035 0)
(1.06883 -0.00149432 0)
(1.06895 -0.00104255 0)
(1.06903 -0.000585778 0)
(1.06905 -0.000124743 0)
(1.06902 0.000339716 0)
(1.06893 0.000806751 0)
(1.06879 0.00127543 0)
(1.06859 0.00174481 0)
(1.06832 0.00221385 0)
(1.06799 0.00268156 0)
(1.06759 0.00314676 0)
(1.06713 0.00360844 0)
(1.06659 0.00406533 0)
(1.06598 0.00451644 0)
(1.0653 0.00496033 0)
(1.06453 0.00539614 0)
(1.06371 0.00582226 0)
(1.06278 0.00623803 0)
(1.06181 0.00664161 0)
(1.0607 0.00703269 0)
(1.05959 0.00740911 0)
(1.0583 0.00777106 0)
(1.05705 0.00811599 0)
(1.05557 0.00844473 0)
(1.0542 0.00875422 0)
(1.0525 0.00904611 0)
(1.05104 0.00931679 0)
(1.0491 0.00956866 0)
(1.0476 0.00979773 0)
(1.04537 0.0100069 0)
(1.04389 0.0101922 0)
(1.0413 0.010356 0)
(1.03995 0.0104961 0)
(1.0369 0.0106118 0)
(1.03581 0.0107057 0)
(1.03215 0.0107698 0)
(1.03154 0.0108169 0)
(1.02702 0.0108238 0)
(1.05723 -0.0116644 0)
(1.05789 -0.0114246 0)
(1.05855 -0.0111738 0)
(1.05921 -0.0109118 0)
(1.05987 -0.0106384 0)
(1.06052 -0.0103534 0)
(1.06117 -0.0100567 0)
(1.0618 -0.00974818 0)
(1.06243 -0.00942765 0)
(1.06305 -0.00909507 0)
(1.06366 -0.00875038 0)
(1.06425 -0.00839356 0)
(1.06483 -0.00802461 0)
(1.0654 -0.00764358 0)
(1.06594 -0.00725055 0)
(1.06647 -0.00684564 0)
(1.06697 -0.00642904 0)
(1.06745 -0.00600093 0)
(1.0679 -0.0055616 0)
(1.06833 -0.00511133 0)
(1.06872 -0.00465051 0)
(1.06908 -0.00417954 0)
(1.06941 -0.00369889 0)
(1.0697 -0.0032091 0)
(1.06995 -0.00271075 0)
(1.07016 -0.00220447 0)
(1.07032 -0.001691 0)
(1.07043 -0.00117107 0)
(1.0705 -0.000645531 0)
(1.07052 -0.000115253 0)
(1.07048 0.000418797 0)
(1.07038 0.000955634 0)
(1.07023 0.00149418 0)
(1.07001 0.00203336 0)
(1.06973 0.00257197 0)
(1.06939 0.00310885 0)
(1.06898 0.00364267 0)
(1.06849 0.00417225 0)
(1.06794 0.00469613 0)
(1.06731 0.00521317 0)
(1.06661 0.00572174 0)
(1.06582 0.00622083 0)
(1.06498 0.00670861 0)
(1.06403 0.00718431 0)
(1.06303 0.00764586 0)
(1.06191 0.00809284 0)
(1.06077 0.0085229 0)
(1.05946 0.00893613 0)
(1.05818 0.00932976 0)
(1.05668 0.0097046 0)
(1.05528 0.0100574 0)
(1.05356 0.0103897 0)
(1.05208 0.0106979 0)
(1.05011 0.0109842 0)
(1.04859 0.0112446 0)
(1.04633 0.0114819 0)
(1.04483 0.0116924 0)
(1.04222 0.0118778 0)
(1.04085 0.0120367 0)
(1.03777 0.0121673 0)
(1.03667 0.0122736 0)
(1.03297 0.0123454 0)
(1.03236 0.0123988 0)
(1.0278 0.0124057 0)
(1.0587 -0.0131968 0)
(1.05938 -0.0129238 0)
(1.06006 -0.0126383 0)
(1.06073 -0.01234 0)
(1.0614 -0.0120289 0)
(1.06207 -0.0117046 0)
(1.06273 -0.0113671 0)
(1.06338 -0.0110162 0)
(1.06402 -0.0106517 0)
(1.06465 -0.0102736 0)
(1.06527 -0.00988183 0)
(1.06587 -0.00947634 0)
(1.06646 -0.00905717 0)
(1.06704 -0.00862439 0)
(1.06759 -0.00817808 0)
(1.06812 -0.00771841 0)
(1.06863 -0.00724558 0)
(1.06911 -0.00675982 0)
(1.06957 -0.00626146 0)
(1.07 -0.00575084 0)
(1.07039 -0.0052284 0)
(1.07076 -0.00469461 0)
(1.07108 -0.00415001 0)
(1.07137 -0.00359521 0)
(1.07162 -0.00303089 0)
(1.07182 -0.00245779 0)
(1.07198 -0.00187671 0)
(1.07209 -0.00128853 0)
(1.07215 -0.000694193 0)
(1.07216 -9.46976e-05 0)
(1.07211 0.000508854 0)
(1.072 0.00111535 0)
(1.07183 0.00172355 0)
(1.0716 0.00233225 0)
(1.07131 0.00294005 0)
(1.07095 0.00354568 0)
(1.07052 0.0041476 0)
(1.07002 0.00474451 0)
(1.06944 0.00533474 0)
(1.06879 0.005917 0)
(1.06807 0.00648946 0)
(1.06726 0.00705097 0)
(1.06639 0.0075995 0)
(1.06542 0.00813414 0)
(1.0644 0.00865263 0)
(1.06325 0.00915443 0)
(1.06208 0.00963698 0)
(1.06074 0.0101003 0)
(1.05944 0.0105414 0)
(1.05791 0.0109611 0)
(1.05649 0.0113559 0)
(1.05474 0.0117275 0)
(1.05323 0.0120718 0)
(1.05124 0.0123913 0)
(1.04969 0.0126819 0)
(1.0474 0.0129462 0)
(1.04589 0.0131806 0)
(1.04324 0.0133866 0)
(1.04185 0.0135633 0)
(1.03874 0.0137079 0)
(1.03763 0.013826 0)
(1.03389 0.0139049 0)
(1.03327 0.0139641 0)
(1.02867 0.0139706 0)
(1.06033 -0.0147348 0)
(1.06103 -0.0144278 0)
(1.06172 -0.0141068 0)
(1.06241 -0.0137716 0)
(1.0631 -0.0134219 0)
(1.06378 -0.0130576 0)
(1.06445 -0.0126785 0)
(1.06512 -0.0122844 0)
(1.06577 -0.0118752 0)
(1.06642 -0.0114508 0)
(1.06705 -0.0110111 0)
(1.06766 -0.0105561 0)
(1.06826 -0.010086 0)
(1.06884 -0.00960068 0)
(1.0694 -0.00910035 0)
(1.06994 -0.00858519 0)
(1.07046 -0.00805542 0)
(1.07095 -0.00751133 0)
(1.07141 -0.00695329 0)
(1.07184 -0.00638171 0)
(1.07224 -0.00579707 0)
(1.0726 -0.00519992 0)
(1.07293 -0.00459088 0)
(1.07322 -0.00397064 0)
(1.07346 -0.00333996 0)
(1.07366 -0.00269969 0)
(1.07381 -0.00205073 0)
(1.07391 -0.00139408 0)
(1.07396 -0.000730803 0)
(1.07396 -6.19985e-05 0)
(1.0739 0.000611054 0)
(1.07378 0.00128714 0)
(1.0736 0.00196488 0)
(1.07335 0.00264289 0)
(1.07304 0.00331963 0)
(1.07266 0.00399364 0)
(1.07221 0.00466325 0)
(1.07169 0.00532698 0)
(1.0711 0.00598297 0)
(1.07042 0.00662978 0)
(1.06968 0.00726539 0)
(1.06884 0.00788851 0)
(1.06795 0.0084969 0)
(1.06694 0.00908953 0)
(1.0659 0.00966392 0)
(1.06472 0.0102195 0)
(1.06352 0.0107534 0)
(1.06216 0.0112656 0)
(1.06083 0.011753 0)
(1.05926 0.0122163 0)
(1.05782 0.0126518 0)
(1.05604 0.0130612 0)
(1.0545 0.0134404 0)
(1.05248 0.0137919 0)
(1.0509 0.0141113 0)
(1.04858 0.0144013 0)
(1.04704 0.0146585 0)
(1.04436 0.014884 0)
(1.04295 0.0150775 0)
(1.0398 0.0152351 0)
(1.03868 0.0153643 0)
(1.0349 0.0154496 0)
(1.03428 0.0155142 0)
(1.02962 0.0155199 0)
(1.06211 -0.0162809 0)
(1.06282 -0.0159391 0)
(1.06354 -0.0155818 0)
(1.06424 -0.0152087 0)
(1.06495 -0.0148196 0)
(1.06564 -0.0144144 0)
(1.06633 -0.0139927 0)
(1.06701 -0.0135545 0)
(1.06768 -0.0130996 0)
(1.06834 -0.0126279 0)
(1.06898 -0.0121394 0)
(1.06961 -0.0116341 0)
(1.07022 -0.0111121 0)
(1.07081 -0.0105733 0)
(1.07138 -0.0100181 0)
(1.07193 -0.00944656 0)
(1.07245 -0.00885902 0)
(1.07295 -0.0082558 0)
(1.07342 -0.0076373 0)
(1.07385 -0.00700401 0)
(1.07425 -0.00635647 0)
(1.07461 -0.0056953 0)
(1.07494 -0.0050212 0)
(1.07522 -0.00433495 0)
(1.07546 -0.00363741 0)
(1.07566 -0.00292953 0)
(1.0758 -0.00221231 0)
(1.0759 -0.00148687 0)
(1.07594 -0.000754392 0)
(1.07592 -1.61707e-05 0)
(1.07585 0.000726527 0)
(1.07572 0.00147228 0)
(1.07552 0.00221952 0)
(1.07526 0.00296672 0)
(1.07493 0.00371217 0)
(1.07453 0.00445429 0)
(1.07406 0.0051912 0)
(1.07351 0.00592128 0)
(1.07289 0.00664248 0)
(1.07219 0.00735322 0)
(1.07142 0.00805128 0)
(1.07056 0.0087352 0)
(1.06963 0.00940259 0)
(1.0686 0.0100523 0)
(1.06752 0.0106815 0)
(1.06631 0.0112897 0)
(1.06509 0.0118738 0)
(1.06369 0.0124338 0)
(1.06233 0.0129661 0)
(1.06073 0.0134717 0)
(1.05926 0.0139466 0)
(1.05744 0.0143926 0)
(1.05588 0.0148054 0)
(1.05381 0.0151873 0)
(1.05221 0.0155343 0)
(1.04986 0.0158487 0)
(1.04829 0.0161275 0)
(1.04557 0.0163713 0)
(1.04415 0.0165806 0)
(1.04096 0.0167503 0)
(1.03982 0.0168897 0)
(1.036 0.0169806 0)
(1.03537 0.0170503 0)
(1.03066 0.0170548 0)
(1.06403 -0.0178373 0)
(1.06477 -0.0174598 0)
(1.0655 -0.0170651 0)
(1.06623 -0.0166532 0)
(1.06695 -0.0162237 0)
(1.06766 -0.0157764 0)
(1.06837 -0.0153112 0)
(1.06906 -0.0148279 0)
(1.06975 -0.0143262 0)
(1.07042 -0.0138062 0)
(1.07108 -0.0132679 0)
(1.07172 -0.0127112 0)
(1.07234 -0.0121362 0)
(1.07294 -0.011543 0)
(1.07352 -0.0109318 0)
(1.07408 -0.010303 0)
(1.07461 -0.0096567 0)
(1.07511 -0.0089934 0)
(1.07558 -0.00831356 0)
(1.07602 -0.0076177 0)
(1.07642 -0.00690644 0)
(1.07678 -0.00618048 0)
(1.07711 -0.00544061 0)
(1.07739 -0.00468769 0)
(1.07762 -0.00392268 0)
(1.07781 -0.00314663 0)
(1.07795 -0.00236067 0)
(1.07804 -0.00156602 0)
(1.07807 -0.000763999 0)
(1.07804 4.39704e-05 0)
(1.07795 0.000856497 0)
(1.0778 0.00167199 0)
(1.07759 0.00248872 0)
(1.07731 0.00330502 0)
(1.07696 0.00411904 0)
(1.07653 0.00492901 0)
(1.07604 0.0057329 0)
(1.07547 0.00652891 0)
(1.07482 0.00731482 0)
(1.07409 0.00808888 0)
(1.0733 0.0088487 0)
(1.0724 0.00959267 0)
(1.07145 0.0103182 0)
(1.07038 0.011024 0)
(1.06927 0.0117071 0)
(1.06803 0.0123669 0)
(1.06677 0.013 0)
(1.06534 0.0136064 0)
(1.06394 0.0141825 0)
(1.06231 0.014729 0)
(1.0608 0.015242 0)
(1.05895 0.0157231 0)
(1.05735 0.016168 0)
(1.05525 0.0165791 0)
(1.05362 0.0169523 0)
(1.05123 0.0172898 0)
(1.04964 0.0175889 0)
(1.04688 0.0178497 0)
(1.04543 0.0180737 0)
(1.0422 0.0182545 0)
(1.04105 0.0184032 0)
(1.03718 0.0184992 0)
(1.03654 0.0185733 0)
(1.03178 0.0185762 0)
(1.0661 -0.0194061 0)
(1.06685 -0.0189917 0)
(1.0676 -0.0185587 0)
(1.06835 -0.0181067 0)
(1.06909 -0.0176357 0)
(1.06982 -0.0171453 0)
(1.07055 -0.0166354 0)
(1.07126 -0.0161057 0)
(1.07196 -0.0155561 0)
(1.07265 -0.0149867 0)
(1.07332 -0.0143973 0)
(1.07397 -0.013788 0)
(1.07461 -0.0131589 0)
(1.07522 -0.0125102 0)
(1.07581 -0.011842 0)
(1.07638 -0.0111547 0)
(1.07692 -0.0104486 0)
(1.07742 -0.0097242 0)
(1.0779 -0.00898201 0)
(1.07834 -0.00822262 0)
(1.07874 -0.00744673 0)
(1.0791 -0.00665512 0)
(1.07943 -0.00584866 0)
(1.0797 -0.00502832 0)
(1.07994 -0.00419515 0)
(1.08012 -0.0033503 0)
(1.08025 -0.00249504 0)
(1.08032 -0.00163069 0)
(1.08034 -0.000758704 0)
(1.0803 0.000119409 0)
(1.0802 0.00100197 0)
(1.08003 0.00188731 0)
(1.0798 0.00277359 0)
(1.07949 0.00365899 0)
(1.07912 0.00454147 0)
(1.07867 0.0054191 0)
(1.07816 0.00628968 0)
(1.07756 0.00715124 0)
(1.07688 0.00800139 0)
(1.07612 0.00883821 0)
(1.0753 0.00965911 0)
(1.07437 0.0104624 0)
(1.07338 0.0112452 0)
(1.07228 0.0120061 0)
(1.07114 0.0127421 0)
(1.06986 0.0134523 0)
(1.06856 0.0141333 0)
(1.06709 0.0147849 0)
(1.06566 0.0154034 0)
(1.06399 0.0159896 0)
(1.06244 0.0165392 0)
(1.06055 0.017054 0)
(1.05892 0.0175296 0)
(1.05679 0.0179685 0)
(1.05512 0.0183664 0)
(1.05269 0.0187256 0)
(1.05107 0.0190437 0)
(1.04827 0.0193203 0)
(1.0468 0.0195578 0)
(1.04353 0.0197486 0)
(1.04236 0.0199059 0)
(1.03844 0.020006 0)
(1.03779 0.0200842 0)
(1.03297 0.0200851 0)
(1.0683 -0.020989 0)
(1.06908 -0.0205365 0)
(1.06985 -0.0200639 0)
(1.07062 -0.0195707 0)
(1.07138 -0.0190569 0)
(1.07213 -0.0185221 0)
(1.07287 -0.0179662 0)
(1.0736 -0.0173889 0)
(1.07432 -0.0167902 0)
(1.07503 -0.01617 0)
(1.07571 -0.0155283 0)
(1.07638 -0.0148652 0)
(1.07703 -0.0141807 0)
(1.07765 -0.0134752 0)
(1.07825 -0.0127487 0)
(1.07883 -0.0120018 0)
(1.07937 -0.0112348 0)
(1.07988 -0.0104481 0)
(1.08036 -0.00964249 0)
(1.08081 -0.00881852 0)
(1.08121 -0.007977 0)
(1.08157 -0.00711879 0)
(1.08189 -0.00624485 0)
(1.08217 -0.00535625 0)
(1.08239 -0.00445415 0)
(1.08257 -0.00353982 0)
(1.08269 -0.00261462 0)
(1.08275 -0.00168003 0)
(1.08276 -0.00073762 0)
(1.0827 0.000210946 0)
(1.08258 0.00116386 0)
(1.0824 0.0021193 0)
(1.08214 0.00307528 0)
(1.08182 0.0040298 0)
(1.08142 0.00498068 0)
(1.08095 0.00592581 0)
(1.0804 0.00686282 0)
(1.07977 0.00778957 0)
(1.07907 0.00870348 0)
(1.07828 0.00960249 0)
(1.07741 0.0104838 0)
(1.07645 0.0113456 0)
(1.07543 0.0121848 0)
(1.07429 0.013 0)
(1.07311 0.0137878 0)
(1.07179 0.0145473 0)
(1.07046 0.015275 0)
(1.06895 0.0159706 0)
(1.06748 0.0166302 0)
(1.06577 0.0172546 0)
(1.06418 0.0178394 0)
(1.06225 0.0183865 0)
(1.06059 0.0188913 0)
(1.05841 0.0193564 0)
(1.05671 0.0197776 0)
(1.05424 0.0201571 0)
(1.05259 0.0204928 0)
(1.04975 0.0207839 0)
(1.04825 0.0210338 0)
(1.04493 0.0212334 0)
(1.04374 0.0213984 0)
(1.03977 0.0215018 0)
(1.03912 0.0215836 0)
(1.03424 0.021582 0)
(1.07063 -0.0225874 0)
(1.07143 -0.0220956 0)
(1.07223 -0.021582 0)
(1.07302 -0.0210464 0)
(1.0738 -0.0204884 0)
(1.07458 -0.0199079 0)
(1.07534 -0.0193046 0)
(1.07609 -0.0186784 0)
(1.07682 -0.0180291 0)
(1.07755 -0.0173568 0)
(1.07825 -0.0166614 0)
(1.07893 -0.015943 0)
(1.07959 -0.0152019 0)
(1.08023 -0.0144382 0)
(1.08084 -0.0136522 0)
(1.08142 -0.0128443 0)
(1.08197 -0.0120151 0)
(1.08249 -0.011165 0)
(1.08297 -0.0102947 0)
(1.08342 -0.00940505 0)
(1.08383 -0.00849683 0)
(1.08419 -0.00757099 0)
(1.08451 -0.00662862 0)
(1.08477 -0.00567086 0)
(1.08499 -0.00469901 0)
(1.08516 -0.00371443 0)
(1.08527 -0.00271863 0)
(1.08532 -0.00171319 0)
(1.08531 -0.000699849 0)
(1.08524 0.000319606 0)
(1.0851 0.00134322 0)
(1.08489 0.00236902 0)
(1.08462 0.00339484 0)
(1.08427 0.00441855 0)
(1.08384 0.00543778 0)
(1.08334 0.00645027 0)
(1.08277 0.00745345 0)
(1.08211 0.00844504 0)
(1.08137 0.00942227 0)
(1.08054 0.0103829 0)
(1.07965 0.011324 0)
(1.07865 0.0122436 0)
(1.07759 0.0131384 0)
(1.07641 0.0140068 0)
(1.07519 0.0148454 0)
(1.07383 0.0156531 0)
(1.07246 0.0164262 0)
(1.0709 0.0171645 0)
(1.06939 0.0178638 0)
(1.06764 0.018525 0)
(1.06601 0.0191435 0)
(1.06404 0.0197214 0)
(1.06234 0.0202539 0)
(1.06011 0.0207437 0)
(1.05838 0.0211867 0)
(1.05586 0.0215849 0)
(1.05418 0.0219369 0)
(1.0513 0.0222411 0)
(1.04978 0.0225021 0)
(1.04641 0.0227095 0)
(1.0452 0.0228813 0)
(1.04118 0.0229872 0)
(1.04051 0.023072 0)
(1.03557 0.0230675 0)
(1.07309 -0.0242025 0)
(1.07392 -0.0236701 0)
(1.07474 -0.0231142 0)
(1.07556 -0.0225346 0)
(1.07636 -0.021931 0)
(1.07716 -0.0213033 0)
(1.07794 -0.0206512 0)
(1.07871 -0.0199745 0)
(1.07947 -0.0192732 0)
(1.0802 -0.0185473 0)
(1.08092 -0.0177968 0)
(1.08162 -0.0170217 0)
(1.08229 -0.0162224 0)
(1.08294 -0.0153992 0)
(1.08356 -0.0145522 0)
(1.08416 -0.0136821 0)
(1.08471 -0.0127893 0)
(1.08524 -0.0118744 0)
(1.08573 -0.0109383 0)
(1.08617 -0.00998177 0)
(1.08658 -0.00900569 0)
(1.08694 -0.00801116 0)
(1.08725 -0.00699933 0)
(1.08752 -0.00597147 0)
(1.08773 -0.00492898 0)
(1.08788 -0.00387336 0)
(1.08798 -0.00280623 0)
(1.08802 -0.00172932 0)
(1.08799 -0.000644487 0)
(1.0879 0.000446322 0)
(1.08774 0.00154101 0)
(1.08751 0.00263743 0)
(1.08721 0.00373328 0)
(1.08684 0.00482625 0)
(1.08639 0.00591381 0)
(1.08586 0.00699353 0)
(1.08525 0.00806266 0)
(1.08455 0.00911876 0)
(1.08378 0.0101589 0)
(1.08292 0.0111806 0)
(1.08199 0.0121808 0)
(1.08095 0.0131574 0)
(1.07985 0.0141069 0)
(1.07863 0.0150277 0)
(1.07737 0.0159159 0)
(1.07596 0.0167707 0)
(1.07455 0.017588 0)
(1.07295 0.0183676 0)
(1.0714 0.0191052 0)
(1.06959 0.0198018 0)
(1.06793 0.0204526 0)
(1.06591 0.0210597 0)
(1.06417 0.0216183 0)
(1.0619 0.0221312 0)
(1.06013 0.0225944 0)
(1.05756 0.0230099 0)
(1.05585 0.0233766 0)
(1.05292 0.0236925 0)
(1.05137 0.0239634 0)
(1.04795 0.0241774 0)
(1.04673 0.0243549 0)
(1.04266 0.0244626 0)
(1.04198 0.0245499 0)
(1.03697 0.0245419 0)
(1.07569 -0.0258355 0)
(1.07654 -0.0252609 0)
(1.07739 -0.0246612 0)
(1.07823 -0.0240361 0)
(1.07905 -0.0233855 0)
(1.07987 -0.022709 0)
(1.08068 -0.0220065 0)
(1.08147 -0.0212778 0)
(1.08224 -0.0205229 0)
(1.083 -0.0197418 0)
(1.08373 -0.0189346 0)
(1.08444 -0.0181013 0)
(1.08513 -0.0172424 0)
(1.08579 -0.016358 0)
(1.08642 -0.0154486 0)
(1.08703 -0.0145148 0)
(1.08759 -0.013557 0)
(1.08812 -0.0125761 0)
(1.08861 -0.0115729 0)
(1.08906 -0.0105481 0)
(1.08947 -0.00950302 0)
(1.08982 -0.00843866 0)
(1.09013 -0.00735631 0)
(1.09039 -0.00625736 0)
(1.09059 -0.00514333 0)
(1.09074 -0.00401582 0)
(1.09082 -0.00287661 0)
(1.09084 -0.00172756 0)
(1.0908 -0.000570655 0)
(1.09069 0.000591993 0)
(1.09051 0.00175813 0)
(1.09026 0.00292548 0)
(1.08993 0.00409155 0)
(1.08953 0.00525388 0)
(1.08905 0.00640974 0)
(1.08848 0.00755658 0)
(1.08784 0.00869143 0)
(1.08711 0.0098117 0)
(1.08631 0.0109142 0)
(1.0854 0.0119965 0)
(1.08443 0.0130552 0)
(1.08335 0.014088 0)
(1.0822 0.0150914 0)
(1.08094 0.0160634 0)
(1.07963 0.0170003 0)
(1.07818 0.017901 0)
(1.07672 0.0187612 0)
(1.07508 0.0195808 0)
(1.07348 0.0203553 0)
(1.07163 0.0210858 0)
(1.06992 0.0217672 0)
(1.06786 0.0224019 0)
(1.06607 0.022985 0)
(1.06375 0.0235195 0)
(1.06195 0.0240013 0)
(1.05934 0.0244325 0)
(1.0576 0.0248124 0)
(1.05461 0.0251386 0)
(1.05304 0.0254181 0)
(1.04957 0.0256375 0)
(1.04833 0.0258198 0)
(1.04419 0.0259282 0)
(1.04351 0.0260174 0)
(1.03844 0.0260056 0)
(1.0784 -0.0274871 0)
(1.07929 -0.0268688 0)
(1.08016 -0.0262237 0)
(1.08102 -0.0255515 0)
(1.08187 -0.0248521 0)
(1.08271 -0.0241253 0)
(1.08354 -0.0233707 0)
(1.08435 -0.0225884 0)
(1.08515 -0.0217782 0)
(1.08592 -0.0209403 0)
(1.08667 -0.0200747 0)
(1.0874 -0.0191817 0)
(1.0881 -0.0182615 0)
(1.08878 -0.0173145 0)
(1.08942 -0.0163411 0)
(1.09003 -0.0153421 0)
(1.0906 -0.0143179 0)
(1.09113 -0.0132695 0)
(1.09163 -0.0121977 0)
(1.09208 -0.0111036 0)
(1.09248 -0.00998817 0)
(1.09284 -0.00885281 0)
(1.09314 -0.00769884 0)
(1.09339 -0.00652778 0)
(1.09358 -0.00534125 0)
(1.09371 -0.00414101 0)
(1.09378 -0.00292894 0)
(1.09379 -0.00170706 0)
(1.09373 -0.000477489 0)
(1.0936 0.000757496 0)
(1.09339 0.00199549 0)
(1.09312 0.00323407 0)
(1.09276 0.00447056 0)
(1.09233 0.00570234 0)
(1.09182 0.00692651 0)
(1.09122 0.00814033 0)
(1.09054 0.00934067 0)
(1.08977 0.0105248 0)
(1.08893 0.0116893 0)
(1.08798 0.0128316 0)
(1.08697 0.0139481 0)
(1.08584 0.0150363 0)
(1.08465 0.0160926 0)
(1.08334 0.017115 0)
(1.08199 0.0180994 0)
(1.08049 0.0190448 0)
(1.07899 0.0199466 0)
(1.07729 0.0208049 0)
(1.07565 0.0216148 0)
(1.07375 0.0223775 0)
(1.072 0.023088 0)
(1.06988 0.0237488 0)
(1.06805 0.0243547 0)
(1.06568 0.024909 0)
(1.06384 0.0254078 0)
(1.06118 0.0258531 0)
(1.0594 0.0262446 0)
(1.05637 0.0265797 0)
(1.05477 0.0268664 0)
(1.05124 0.0270899 0)
(1.04999 0.027276 0)
(1.0458 0.0273842 0)
(1.0451 0.0274749 0)
(1.03997 0.0274587 0)
(1.08124 -0.0291581 0)
(1.08215 -0.0284943 0)
(1.08305 -0.0278021 0)
(1.08394 -0.0270812 0)
(1.08482 -0.0263313 0)
(1.08568 -0.0255523 0)
(1.08653 -0.024744 0)
(1.08737 -0.0239063 0)
(1.08818 -0.0230391 0)
(1.08897 -0.0221427 0)
(1.08974 -0.021217 0)
(1.09049 -0.0202625 0)
(1.0912 -0.0192794 0)
(1.09189 -0.0182681 0)
(1.09254 -0.0172292 0)
(1.09316 -0.0161634 0)
(1.09374 -0.0150713 0)
(1.09428 -0.013954 0)
(1.09477 -0.0128123 0)
(1.09522 -0.0116473 0)
(1.09562 -0.0104604 0)
(1.09597 -0.00925286 0)
(1.09627 -0.00802616 0)
(1.09651 -0.00678195 0)
(1.09669 -0.00552197 0)
(1.09681 -0.00424811 0)
(1.09687 -0.0029624 0)
(1.09685 -0.00166699 0)
(1.09677 -0.000364147 0)
(1.09662 0.000943676 0)
(1.09639 0.00225394 0)
(1.09608 0.00356404 0)
(1.0957 0.00487115 0)
(1.09524 0.00617248 0)
(1.09469 0.00746494 0)
(1.09406 0.00874563 0)
(1.09334 0.0100112 0)
(1.09253 0.0112588 0)
(1.09165 0.0124849 0)
(1.09066 0.0136866 0)
(1.0896 0.0148601 0)
(1.08843 0.0160031 0)
(1.08719 0.0171114 0)
(1.08583 0.0181831 0)
(1.08443 0.0192139 0)
(1.08288 0.0202027 0)
(1.08133 0.0211448 0)
(1.07958 0.0220403 0)
(1.07789 0.0228841 0)
(1.07594 0.0236776 0)
(1.07414 0.0244156 0)
(1.07197 0.0251007 0)
(1.07009 0.0257278 0)
(1.06768 0.0263002 0)
(1.06579 0.0268142 0)
(1.06308 0.0272719 0)
(1.06127 0.0276736 0)
(1.05818 0.0280159 0)
(1.05656 0.0283085 0)
(1.05298 0.0285348 0)
(1.0517 0.0287236 0)
(1.04745 0.0288308 0)
(1.04675 0.0289223 0)
(1.04155 0.0289012 0)
(1.0842 -0.0308487 0)
(1.08514 -0.0301379 0)
(1.08607 -0.0293967 0)
(1.08699 -0.0286252 0)
(1.08789 -0.0278231 0)
(1.08878 -0.0269902 0)
(1.08965 -0.0261263 0)
(1.0905 -0.0252313 0)
(1.09134 -0.0243054 0)
(1.09215 -0.0233486 0)
(1.09294 -0.0223612 0)
(1.0937 -0.0213434 0)
(1.09443 -0.0202956 0)
(1.09512 -0.0192184 0)
(1.09579 -0.0181123 0)
(1.09641 -0.0169781 0)
(1.097 -0.0158167 0)
(1.09754 -0.0146289 0)
(1.09804 -0.0134158 0)
(1.09849 -0.0121788 0)
(1.09889 -0.010919 0)
(1.09923 -0.00963805 0)
(1.09952 -0.00833748 0)
(1.09975 -0.00701905 0)
(1.09992 -0.00568465 0)
(1.10002 -0.0043363 0)
(1.10006 -0.00297617 0)
(1.10003 -0.00160654 0)
(1.09993 -0.000229824 0)
(1.09975 0.00115133 0)
(1.09949 0.00253427 0)
(1.09916 0.00391621 0)
(1.09874 0.00529413 0)
(1.09824 0.00666508 0)
(1.09766 0.0080258 0)
(1.09699 0.00937323 0)
(1.09624 0.0107038 0)
(1.09539 0.0120146 0)
(1.09445 0.0133017 0)
(1.09342 0.0145622 0)
(1.09231 0.0157921 0)
(1.09109 0.0169889 0)
(1.08981 0.0181483 0)
(1.0884 0.0192683 0)
(1.08695 0.0203443 0)
(1.08535 0.0213753 0)
(1.08374 0.0223564 0)
(1.08194 0.0232876 0)
(1.0802 0.0241639 0)
(1.07819 0.0249866 0)
(1.07634 0.0257503 0)
(1.07412 0.026458 0)
(1.0722 0.0271045 0)