/*--------------------------------*- C++ -*----------------------------------*\
  =========                 |
  \\      /  F ield         | OpenFOAM: The Open Source CFD Toolbox
   \\    /   O peration     | Website:  https://openfoam.org
    \\  /    A nd           | Version:  7
     \\/     M anipulation  |
\*---------------------------------------------------------------------------*/
FoamFile
{
    version     2.0;
    format      ascii;
    class       surfaceScalarField;
    location    "4";
    object      phi;
}
// * * * * * * * * * * * * * * * * * * * * * * * * * * * * * * * * * * * * * //

dimensions      [0 3 -1 0 0 0 0];

internalField   nonuniform List<scalar> 
819
(
0.000880394
-0.000519917
-0.000574508
0.000986739
0.000788397
-0.000496609
0.000881835
-0.000558586
0.000986681
-0.000624763
-0.000692198
0.00110437
0.000881486
0.000982203
0.00109521
-0.000737769
-0.000820693
0.0012237
0.00120904
-0.000959987
0.00134833
0.00148542
0.000906219
-0.000139423
0.000947454
-0.00029783
0.00099037
-0.000425862
0.00103296
-0.000561544
-0.000703805
0.00102763
-0.000180317
0.00107017
-0.000340369
0.00111158
-0.000467273
0.00115065
-0.000600611
0.00118781
-0.000740967
0.0012244
-0.000889562
0.0012619
-0.00104711
0.00130174
-0.00121206
0.00134518
-0.00138197
0.0013933
-0.0015536
0.00144702
-0.00172316
0.00150702
-0.00188644
0.0015738
-0.00203913
0.00164757
-0.00217699
0.00172831
-0.00229606
0.00181576
-0.00239281
0.0019094
-0.00246415
-0.00250747
0.00115067
-0.000226617
0.00119357
-0.000383265
0.00123156
-0.000505269
0.00126527
-0.000634318
0.00129603
-0.000771731
0.00132557
-0.000919098
0.00135552
-0.00107706
0.00138738
-0.00124392
0.00142245
-0.00141703
0.00146187
-0.00159302
0.00150663
-0.00176791
0.00155751
-0.00193733
0.00161512
-0.00209673
0.00167978
-0.00224165
0.0017516
-0.00236789
0.00183043
-0.00247163
0.00191584
-0.00254957
-0.00259884
0.00127516
-0.000278075
0.00131687
-0.000424973
0.00134904
-0.000537443
0.00137528
-0.000660551
0.00139818
-0.000794634
0.0014197
-0.000940621
0.00144148
-0.00109884
0.00146498
-0.00126742
0.0014915
-0.00144355
0.00152219
-0.00162372
0.00155809
-0.00180381
0.00160005
-0.00197929
0.00164876
-0.00214544
0.00170466
-0.00229755
0.00176795
-0.00243117
0.00183856
-0.00254225
0.0019162
-0.0026272
-0.00268295
0.00140285
-0.000332589
0.00143978
-0.00046191
0.00146264
-0.000560304
0.00147897
-0.00067688
0.00149258
-0.000808242
0.00150526
-0.000953298
0.00151839
-0.00111197
0.00153331
-0.00128234
0.00155124
-0.00146148
0.0015733
-0.00164578
0.00160055
-0.00183106
0.0016339
-0.00201264
0.0016741
-0.00218563
0.00172166
-0.00234512
0.00177689
-0.0024864
0.0018398
-0.00260516
0.00191016
-0.00269757
-0.00276029
0.00153849
-0.000385656
0.00156167
-0.000485096
0.00157008
-0.000568713
0.0015741
-0.000680902
0.0015772
-0.000811342
0.00158048
-0.000956571
0.00158479
-0.00111628
0.00159118
-0.00128874
0.00160075
-0.00147104
0.00161454
-0.00165957
0.00163359
-0.00185011
0.00165883
-0.00203789
0.00169107
-0.00221787
0.00173088
-0.00238493
0.00177863
-0.00253414
0.0018344
-0.00266093
0.00189805
-0.00276121
-0.00283141
0.00419024
-0.000332171
0.00417397
-0.000468824
0.00418259
-0.000577339
0.00420017
-0.00069848
0.00422352
-0.00083469
0.00425115
-0.000984205
0.00428193
-0.00114706
0.00431527
-0.00132208
0.00435097
-0.00150673
0.00438903
-0.00169763
0.00442966
-0.00189074
0.00447322
-0.00208145
0.00452013
-0.00226478
0.00457084
-0.00243564
0.00462575
-0.00258906
0.00468516
-0.00272035
0.00474922
-0.00282527
0.00481789
-0.00290008
-0.00294151
0.00504377
-0.000263579
0.00498066
-0.000405715
0.00494352
-0.000540199
0.00492214
-0.000677099
0.00491174
-0.000824287
0.0049097
-0.000982169
0.00491375
-0.0011511
0.00492231
-0.00133064
0.00493446
-0.00151889
0.00494974
-0.00171291
0.00496798
-0.00190898
0.0049893
-0.00210277
0.00501399
-0.00228947
0.00504244
-0.0024641
0.00507508
-0.00262169
0.00511227
-0.00275754
0.00515428
-0.00286728
0.00520125
-0.00294705
-0.0029934
0.0058844
-0.000180456
0.00580136
-0.000322683
0.00573448
-0.000473315
0.00568204
-0.000624659
0.00564139
-0.000783633
0.0056106
-0.000951387
0.00558755
-0.00112804
0.00557037
-0.00131347
0.00555779
-0.00150631
0.00554897
-0.00170409
0.00554347
-0.00190348
0.00554118
-0.00210048
0.00554226
-0.00229055
0.00554703
-0.00246886
0.0055559
-0.00263057
0.00556932
-0.00277095
0.00558767
-0.00288564
0.00561127
-0.00297064
-0.00302241
0.006711
-8.64007e-05
0.00661612
-0.000227794
0.00653056
-0.000387758
0.00645593
-0.000550031
0.00639117
-0.000718875
0.00633544
-0.000895656
0.0062874
-0.00108
0.00624554
-0.00127161
0.00620859
-0.00146936
0.00617564
-0.00167114
0.00614612
-0.00187397
0.00611981
-0.00207417
0.00609675
-0.00226749
0.00607723
-0.00244934
0.00606167
-0.00261501
0.00605058
-0.00275986
0.00604446
-0.00287953
0.0060438
-0.00296998
-0.00302758
0.00750814
1.50524e-05
0.0074072
-0.000126847
0.00731111
-0.000291675
0.0072222
-0.000461121
0.00714021
-0.000636882
0.00706497
-0.000820415
0.00699597
-0.001011
0.00693228
-0.00120792
0.00687298
-0.00141006
0.0068173
-0.00161546
0.00676475
-0.00182142
0.0067151
-0.00202451
0.0066684
-0.00222078
0.00662493
-0.00240587
0.00658516
-0.00257524
0.00654968
-0.00272439
0.00651914
-0.00284898
0.00649415
-0.00294499
-0.00300874
0.00826067
0.000117933
0.00815893
-2.51089e-05
0.00805882
-0.000191566
0.0079624
-0.000364696
0.00786976
-0.000544242
0.00778099
-0.000731652
0.00769613
-0.000926135
0.00761481
-0.00112661
0.00753655
-0.00133179
0.00746089
-0.0015398
0.00738753
-0.00174806
0.00731639
-0.00195337
0.0072476
-0.00215199
0.00718152
-0.0023398
0.00711872
-0.00251244
0.00705989
-0.00266555
0.0070058
-0.00279488
0.00695725
-0.00289644
-0.00296652
0.00895566
0.000215713
0.00885833
7.22265e-05
0.00875981
-9.30427e-05
0.00866171
-0.000266599
0.00856435
-0.000446887
0.0084679
-0.000635194
0.00837261
-0.000830849
0.00827856
-0.00103255
0.00818565
-0.00123888
0.00809376
-0.00144792
0.00800289
-0.00165719
0.00791314
-0.00186362
0.00782482
-0.00206367
0.00773845
-0.00225342
0.0076547
-0.00242869
0.0075744
-0.00258526
0.00749849
-0.00271897
0.00742793
-0.00282588
-0.00290231
0.00958452
0.000302608
0.00949632
0.00016043
0.0094042
-9.23693e-07
0.00930946
-0.000171861
0.00921255
-0.000349979
0.00911369
-0.000536336
0.00901324
-0.000730392
0.00891149
-0.000930808
0.00880865
-0.00113604
0.00870492
-0.00134418
0.00860052
-0.00155279
0.00849583
-0.00175893
0.00839136
-0.0019592
0.00828778
-0.00214984
0.00818595
-0.00232686
0.00808685
-0.00248616
0.00799158
-0.0026237
0.00790129
-0.00273559
-0.00281817
0.0101443
0.000374508
0.0100687
0.000236017
0.00998698
8.08451e-05
0.00989959
-8.44729e-05
0.00980741
-0.000257795
0.00971067
-0.000439598
0.00960974
-0.00062946
0.00950503
-0.000826102
0.00939694
-0.00102796
0.00928588
-0.00123312
0.00917229
-0.00143921
0.00905677
-0.0016434
0.00894001
-0.00184244
0.00882289
-0.00203272
0.00870642
-0.00221039
0.00859176
-0.0023715
0.00848018
-0.00251211
0.00837298
-0.0026284
-0.00271673
0.0106381
0.000429404
0.0105772
0.000296922
0.010508
0.000150023
0.0104309
-7.3639e-06
0.0103467
-0.000173566
0.0102556
-0.000348547
0.0101581
-0.000531932
0.0100545
-0.000722546
0.00994544
-0.000918857
0.00983133
-0.001119
0.00971281
-0.0013207
0.00959063
-0.00152122
0.00946566
-0.00171746
0.00933891
-0.00190597
0.00921157
-0.00208305
0.00908494
-0.00224488
0.00896045
-0.00238762
0.00883957
-0.00250752
-0.00260099
0.0110737
0.000467329
0.0110278
0.000342831
0.0109722
0.000205701
0.0109069
5.78978e-05
0.0108326
-9.93049e-05
0.0107497
-0.000265653
0.0106585
-0.000440697
0.0105593
-0.000623385
0.0104528
-0.000812269
0.0103393
-0.00100557
0.0102197
-0.00120111
0.0100948
-0.0013963
0.00996553
-0.00158819
0.00983304
-0.00177348
0.00969862
-0.00194863
0.00956371
-0.00210997
0.00942986
-0.00225376
0.00929868
-0.00237635
-0.00247417
0.0114624
0.000489929
0.0114304
0.000374756
0.0113879
0.000248247
0.0113347
0.000111091
0.0112713
-3.5876e-05
0.0111979
-0.000192276
0.0111148
-0.000357596
0.0110223
-0.000530898
0.0109209
-0.000710851
0.0108111
-0.000895782
0.0106937
-0.00108365
0.0105694
-0.00127203
0.0104393
-0.00145812
0.0103046
-0.0016388
0.0101667
-0.00181071
0.010027
-0.00197031
0.0098873
-0.00211401
0.00974918
-0.00223823
-0.00233947
0.0118165
0.00049979
0.0117966
0.000394601
0.0117659
0.000279004
0.011724
0.000152951
0.0116712
1.68853e-05
0.0116077
-0.000128772
0.0115336
-0.000283479
0.0114491
-0.000446403
0.0113546
-0.000616343
0.0112506
-0.000791761
0.0111377
-0.000970764
0.0110168
-0.0011511
0.0108888
-0.00133014
0.010755
-0.00150498
0.0106167
-0.00167242
0.0104755
-0.00182909
0.010333
-0.00197154
0.0101911
-0.00209629
-0.00219994
0.0121482
0.000499804
0.0121381
0.000404676
0.0121173
0.000299836
0.0120854
0.000184852
0.0120424
5.98591e-05
0.0119884
-7.47296e-05
0.0119233
-0.000218391
0.0118473
-0.000370387
0.0117606
-0.000529655
0.0116636
-0.0006948
0.0115569
-0.000864094
0.0114413
-0.00103546
0.0113176
-0.00120649
0.0111871
-0.00137444
0.011051
-0.00153634
0.0109109
-0.00168899
0.0107685
-0.00182908
0.0106255
-0.00195329
-0.00205829
0.0124682
0.000492684
0.0124656
0.000407279
0.0124527
0.00031273
0.0124291
0.000208438
0.0123946
9.43252e-05
0.0123492
-2.92594e-05
0.0122926
-0.000161814
0.0122249
-0.000302714
0.0121463
-0.000451024
0.012057
-0.000605498
0.0119575
-0.000764575
0.0118484
-0.00092637
0.0117305
-0.00108867
0.011605
-0.00124895
0.0114731
-0.00140443
0.0113363
-0.00155211
0.0111961
-0.00168888
0.0110543
-0.00181153
-0.00191688
0.012785
0.000480694
0.0127879
0.000404421
0.0127811
0.000319517
0.0127642
0.000225336
0.0127368
0.000121667
0.0126989
8.73219e-06
0.01265
-0.000112917
0.0125901
-0.000242853
0.0125193
-0.00038022
0.0124377
-0.000523927
0.0123457
-0.000672579
0.0122438
-0.000824475
0.0121328
-0.000977605
0.0120135
-0.00112966
0.0118871
-0.00127807
0.011755
-0.00142004
0.0116188
-0.00155264
0.0114801
-0.00167283
-0.00177757
0.0131052
0.00046556
0.0131119
0.000397706
0.0131097
0.013098
0.0130766
0.0130449
0.0130028
0.01295
0.0128866
0.0128125
0.012728
0.0126335
0.0125296
0.0124172
0.0122973
0.012171
0.01204
0.0119057
0.0134332
)
;

boundaryField
{
    inlet
    {
        type            calculated;
        value           nonuniform 0();
    }
    outlet
    {
        type            calculated;
        value           nonuniform 0();
    }
    cylinder
    {
        type            calculated;
        value           nonuniform 0();
    }
    top
    {
        type            symmetryPlane;
        value           nonuniform 0();
    }
    bottom
    {
        type            symmetryPlane;
        value           nonuniform 0();
    }
    defaultFaces
    {
        type            empty;
        value           nonuniform 0();
    }
    procBoundary28to22
    {
        type            processor;
        value           nonuniform List<scalar> 
26
(
0.000424294
0.000468163
-0.000870336
0.000412924
-0.000784771
0.000465148
-0.000704711
0.00010354
0.000256595
0.000382946
0.000518956
0.000661677
0.00107509
0.000852978
0.0010096
0.00117222
0.00133853
0.00150548
0.00166944
0.00182644
0.00197236
0.00210322
0.00221532
0.00230536
0.00237051
0.00240837
)
;
    }
    procBoundary28to23
    {
        type            processor;
        value           nonuniform List<scalar> 3(0.0020085 0.00200722 0.0020003);
    }
    procBoundary28to27
    {
        type            processor;
        value           nonuniform List<scalar> 10(-0.000790745 -0.000587351 -0.000659303 -0.00108892 -0.000857885 -0.00134128 -0.00110413 -0.00424372 -0.00511236 -0.00596752);
    }
    procBoundary28to29
    {
        type            processor;
        value           nonuniform List<scalar> 
20
(
0.00198751
0.00196916
0.00286847
0.00489092
0.00525314
0.00564028
0.00604897
0.00647531
0.00691503
0.00736372
0.00781715
0.00827154
0.00872384
0.00917186
0.00961448
0.0100515
0.0104838
0.0109129
0.0113408
0.0117699
)
;
    }
    procBoundary28to33
    {
        type            processor;
        value           nonuniform List<scalar> 
15
(
-0.00680506
-0.0076096
-0.00836355
-0.00905344
-0.00967142
-0.0102162
-0.010693
-0.0111117
-0.011485
-0.0118263
-0.0121482
-0.0124611
-0.012773
-0.01309
-0.0134161
)
;
    }
    procBoundary28to34
    {
        type            processor;
        value           nonuniform List<scalar> 
20
(
0.000321721
0.000236963
0.000143137
4.04145e-05
-7.08039e-05
-0.000190094
-0.000316754
-0.000449827
-0.000588081
-0.000729992
-0.000873746
-0.00101724
-0.00115813
-0.00129382
-0.00142157
-0.00153854
-0.00164183
0.0004485
0.0134426
0.000388321
)
;
    }
}


// ************************************************************************* //
