/*--------------------------------*- C++ -*----------------------------------*\
  =========                 |
  \\      /  F ield         | OpenFOAM: The Open Source CFD Toolbox
   \\    /   O peration     | Website:  https://openfoam.org
    \\  /    A nd           | Version:  7
     \\/     M anipulation  |
\*---------------------------------------------------------------------------*/
FoamFile
{
    version     2.0;
    format      ascii;
    class       volVectorField;
    location    "4";
    object      U;
}
// * * * * * * * * * * * * * * * * * * * * * * * * * * * * * * * * * * * * * //

dimensions      [0 1 -1 0 0 0 0];

internalField   nonuniform List<vector> 
433
(
(0.286966 -0.0248395 -2.4223e-20)
(0.309561 -0.0212944 -5.27818e-21)
(0.283723 -0.029783 1.27486e-19)
(0.307552 -0.0301287 -1.49123e-19)
(0.333028 -0.0286769 2.48892e-20)
(0.358645 -0.0251429 -6.53489e-20)
(0.327819 -0.0317453 7.0663e-20)
(0.354195 -0.0322342 -1.92312e-19)
(0.382584 -0.0311532 5.48197e-20)
(0.411563 -0.0281092 -8.3286e-21)
(0.435629 -0.0304962 -1.30464e-20)
(0.468271 -0.0282011 7.30497e-20)
(0.529817 -0.0216556 1.67575e-19)
(0.288605 -0.0149063 -6.0896e-21)
(0.299389 -0.0349463 -1.86421e-20)
(0.322377 -0.0477111 1.24757e-20)
(0.342744 -0.0612035 -2.2456e-20)
(0.362477 -0.0742955 3.85093e-20)
(0.33747 -0.019335 -1.24473e-20)
(0.350069 -0.0399653 -3.76213e-20)
(0.373559 -0.0524853 8.60198e-21)
(0.39367 -0.065604 2.98986e-20)
(0.412565 -0.0783508 -1.45511e-20)
(0.430704 -0.0908934 6.28656e-21)
(0.448424 -0.103274 -1.71843e-20)
(0.466107 -0.115308 2.8778e-21)
(0.484003 -0.126765 4.06654e-21)
(0.502309 -0.137379 2.91652e-20)
(0.521173 -0.146872 -2.96554e-21)
(0.540704 -0.15498 -2.11622e-20)
(0.560981 -0.161474 3.36044e-21)
(0.58205 -0.166174 2.81402e-21)
(0.603923 -0.168959 -6.10947e-21)
(0.62658 -0.169764 2.94069e-21)
(0.649959 -0.168581 -9.98751e-22)
(0.673957 -0.165445 2.88247e-21)
(0.390406 -0.0242952 6.43878e-20)
(0.405032 -0.0449499 -1.92688e-20)
(0.428074 -0.0568901 -3.0666e-20)
(0.447026 -0.0694119 1.13453e-20)
(0.464375 -0.0816874 9.17619e-21)
(0.480797 -0.0939431 1.87895e-20)
(0.496698 -0.106206 -1.1588e-20)
(0.512465 -0.118263 7.42283e-21)
(0.528341 -0.129853 -5.21721e-21)
(0.54451 -0.140683 -1.18498e-21)
(0.561116 -0.150452 7.8714e-21)
(0.578274 -0.158874 6.6449e-21)
(0.596074 -0.165699 -1.78133e-20)
(0.614581 -0.170725 8.32562e-21)
(0.633831 -0.173813 -8.26399e-21)
(0.653831 -0.174883 5.99012e-22)
(0.674547 -0.173912 1.28745e-21)
(0.695907 -0.170926 -1.23429e-21)
(0.447907 -0.0299749 -1.10392e-19)
(0.464587 -0.0498066 3.62656e-20)
(0.485826 -0.0606864 2.2042e-20)
(0.502484 -0.0723929 3.55684e-20)
(0.517506 -0.0841251 -2.0173e-20)
(0.531664 -0.0960702 -2.25281e-20)
(0.545349 -0.108205 -9.22394e-21)
(0.558909 -0.120279 5.42201e-20)
(0.57255 -0.131999 -7.53592e-21)
(0.586428 -0.143047 -2.11059e-20)
(0.600672 -0.153101 -6.00116e-21)
(0.615394 -0.161853 -6.80544e-22)
(0.630687 -0.169032 1.74998e-20)
(0.646629 -0.174417 -6.93334e-21)
(0.663275 -0.177848 -2.75595e-21)
(0.680651 -0.179227 -1.01096e-20)
(0.698748 -0.178519 9.28214e-21)
(0.71752 -0.175737 -3.11947e-22)
(0.510744 -0.0363447 1.35568e-20)
(0.528971 -0.0542132 -6.54165e-21)
(0.546555 -0.0634755 1.58209e-20)
(0.559572 -0.0742497 -5.02034e-20)
(0.571472 -0.0854687 2.26064e-20)
(0.582859 -0.0971513 -4.30224e-20)
(0.593971 -0.1092 2.66923e-20)
(0.605068 -0.121327 1.18293e-20)
(0.616292 -0.133211 -4.27369e-21)
(0.627756 -0.144511 6.23449e-21)
(0.639563 -0.154887 5.34389e-21)
(0.651811 -0.164009 -2.06687e-20)
(0.664592 -0.171585 1.39725e-20)
(0.67799 -0.177374 -7.05633e-21)
(0.692071 -0.181195 6.66127e-21)
(0.706878 -0.182933 3.87293e-21)
(0.72242 -0.182536 -4.33366e-21)
(0.738672 -0.180008 -2.06433e-21)
(0.58016 -0.0418865 -2.09414e-20)
(0.597991 -0.0567926 1.16336e-20)
(0.609633 -0.0646225 4.09513e-20)
(0.617607 -0.0747007 -2.17183e-20)
(0.625687 -0.0856192 -1.64983e-20)
(0.63389 -0.0971826 -1.84383e-21)
(0.642145 -0.109233 -2.45583e-20)
(0.650574 -0.121473 3.76131e-20)
(0.659243 -0.133563 -1.55688e-20)
(0.668206 -0.145151 1.485e-20)
(0.67753 -0.155878 -2.15168e-20)
(0.687296 -0.165401 7.4668e-21)
(0.697588 -0.173406 -1.37622e-20)
(0.708487 -0.179633 6.56938e-21)
(0.720066 -0.18388 2.29875e-21)
(0.732377 -0.186015 -1.8005e-21)
(0.745446 -0.18597 6.4671e-21)
(0.759262 -0.183738 -8.29392e-21)
(0.675745 -0.0459525 0)
(0.684457 -0.056526 0)
(0.686921 -0.0639822 0)
(0.688017 -0.0737393 0)
(0.691302 -0.0846918 0)
(0.695647 -0.0962895 0)
(0.700486 -0.108373 0)
(0.705766 -0.120706 0)
(0.711445 -0.13296 0)
(0.717503 -0.144789 0)
(0.723959 -0.155835 0)
(0.730859 -0.165751 0)
(0.738272 -0.174211 0)
(0.746272 -0.180936 0)
(0.754932 -0.185705 0)
(0.76431 -0.188362 0)
(0.774446 -0.188817 0)
(0.785349 -0.187041 0)
(0.796998 -0.183057 0)
(0.787985 -0.0366702 0)
(0.791723 -0.0509417 0)
(0.787177 -0.0626469 0)
(0.781257 -0.0742237 0)
(0.778617 -0.0861874 0)
(0.777879 -0.0984199 0)
(0.778138 -0.110878 0)
(0.779181 -0.123424 0)
(0.780858 -0.1358 0)
(0.783052 -0.147699 0)
(0.785714 -0.158797 0)
(0.788845 -0.168763 0)
(0.792481 -0.177289 0)
(0.796678 -0.184102 0)
(0.801505 -0.188979 0)
(0.807026 -0.19176 0)
(0.813294 -0.192348 0)
(0.820344 -0.190702 0)
(0.828182 -0.186834 0)
(0.892123 -0.0269131 0)
(0.891182 -0.0422564 0)
(0.882947 -0.0568661 0)
(0.87257 -0.0704584 0)
(0.865216 -0.0838622 0)
(0.859988 -0.0971789 0)
(0.855988 -0.110407 0)
(0.852968 -0.123488 0)
(0.85074 -0.136244 0)
(0.849137 -0.148424 0)
(0.848059 -0.159744 0)
(0.847468 -0.169906 0)
(0.84737 -0.178621 0)
(0.847805 -0.185627 0)
(0.848833 -0.190708 0)
(0.850523 -0.193702 0)
(0.85294 -0.194506 0)
(0.85614 -0.193073 0)
(0.86016 -0.189406 0)
(0.986027 -0.0161425 0)
(0.981151 -0.0318308 0)
(0.970933 -0.0481032 0)
(0.958082 -0.0633497 0)
(0.947463 -0.0781617 0)
(0.938743 -0.0926706 0)
(0.93119 -0.106843 0)
(0.924605 -0.120643 0)
(0.918836 -0.13395 0)
(0.913715 -0.146565 0)
(0.909127 -0.158247 0)
(0.905016 -0.168731 0)
(0.901369 -0.177753 0)
(0.898216 -0.185068 0)
(0.895612 -0.190467 0)
(0.893627 -0.193789 0)
(0.89234 -0.194927 0)
(0.891826 -0.19383 0)
(0.892148 -0.190492 0)
(1.0679 -0.00428821 0)
(1.06012 -0.0204006 0)
(1.04883 -0.0377779 0)
(1.03492 -0.0543254 0)
(1.02238 -0.0703275 0)
(1.01129 -0.0859171 0)
(1.0011 -0.101021 0)
(0.991683 -0.115582 0)
(0.982959 -0.129503 0)
(0.974803 -0.142619 0)
(0.967115 -0.154725 0)
(0.959844 -0.165588 0)
(0.952979 -0.17497 0)
(0.946546 -0.182644 0)
(0.9406 -0.188413 0)
(0.935221 -0.192119 0)
(0.930497 -0.193657 0)
(0.926521 -0.192969 0)
(0.923382 -0.190044 0)
(1.13633 0.00811112 0)
(1.12682 -0.00857413 0)
(1.11512 -0.0267108 0)
(1.10113 -0.0442143 0)
(1.08782 -0.0611212 0)
(1.0754 -0.0775674 0)
(1.06352 -0.0934626 0)
(1.05212 -0.108715 0)
(1.04117 -0.123223 0)
(1.03061 -0.136841 0)
(1.02038 -0.149385 0)
(1.01045 -0.160649 0)
(1.00083 -0.170415 0)
(0.991543 -0.178477 0)
(0.982665 -0.184647 0)
(0.97428 -0.188777 0)
(0.966492 -0.190761 0)
(0.959411 -0.190538 0)
(0.953148 -0.188094 0)
(1.19047 0.0202799 0)
(1.18043 0.00303436 0)
(1.16894 -0.0155401 0)
(1.15561 -0.0336461 0)
(1.14241 -0.0511508 0)
(1.12957 -0.0681807 0)
(1.11688 -0.0846496 0)
(1.10433 -0.100438 0)
(1.09193 -0.115432 0)
(1.07968 -0.129488 0)
(1.06756 -0.142435 0)
(1.05557 -0.154083 0)
(1.04375 -0.164232 0)
(1.03214 -0.172688 0)
(1.02083 -0.179278 0)
(1.00992 -0.183858 0)
(0.999532 -0.186324 0)
(0.989785 -0.186614 0)
(0.980816 -0.184708 0)
(1.23037 0.0314372 0)
(1.22085 0.01383 0)
(1.21013 -0.00485428 0)
(1.19801 -0.0231978 0)
(1.18558 -0.0409855 0)
(1.17305 -0.0583111 0)
(1.1603 -0.0750996 0)
(1.14735 -0.0912183 0)
(1.13425 -0.106538 0)
(1.12102 -0.120914 0)
(1.10769 -0.134181 0)
(1.09429 -0.146155 0)
(1.08088 -0.156649 0)
(1.06754 -0.165481 0)
(1.05436 -0.172484 0)
(1.04147 -0.177521 0)
(1.02899 -0.180489 0)
(1.01707 -0.181322 0)
(1.00587 -0.179996 0)
(1.25695 0.0409745 0)
(1.24869 0.0233229 0)
(1.23921 0.00487009 0)
(1.22865 -0.0133601 0)
(1.21748 -0.0311196 0)
(1.20581 -0.0484558 0)
(1.19359 -0.0653013 0)
(1.18087 -0.0815209 0)
(1.16771 -0.0969757 0)
(1.15416 -0.111517 0)
(1.14026 -0.12498 0)
(1.12609 -0.137186 0)
(1.11171 -0.147957 0)
(1.09724 -0.157114 0)
(1.08277 -0.1645 0)
(1.06845 -0.169977 0)
(1.05443 -0.173444 0)
(1.04088 -0.174832 0)
(1.02795 -0.174109 0)
(1.27189 0.048529 0)
(1.26528 0.031188 0)
(1.25732 0.013285 0)
(1.24851 -0.00451018 0)
(1.23888 -0.0219458 0)
(1.22842 -0.0390225 0)
(1.21717 -0.0556726 0)
(1.20516 -0.0717637 0)
(1.19246 -0.0871518 0)
(1.17913 -0.101685 0)
(1.16524 -0.1152 0)
(1.15086 -0.12752 0)
(1.1361 -0.138471 0)
(1.12105 -0.14788 0)
(1.10586 -0.155591 0)
(1.09068 -0.16147 0)
(1.07566 -0.165411 0)
(1.06099 -0.167343 0)
(1.04684 -0.167227 0)
(1.27728 0.0539981 0)
(1.27242 0.0372948 0)
(1.26607 0.0201978 0)
(1.25901 0.00311673 0)
(1.25103 -0.0137347 0)
(1.24199 -0.0303126 0)
(1.23195 -0.0465405 0)
(1.22097 -0.0622907 0)
(1.20911 -0.0774184 0)
(1.19643 -0.0917708 0)
(1.18299 -0.105184 0)
(1.16889 -0.117488 0)
(1.15423 -0.128508 0)
(1.13913 -0.138077 0)
(1.12373 -0.146038 0)
(1.10819 -0.152258 0)
(1.09268 -0.156629 0)
(1.07738 -0.159074 0)
(1.06248 -0.159548 0)
(1.27538 0.0575049 0)
(1.27215 0.0416985 0)
(1.26732 0.0255983 0)
(1.2619 0.00943382 0)
(1.2555 -0.00662966 0)
(1.24791 -0.0225136 0)
(1.2392 -0.0381307 0)
(1.22942 -0.0533579 0)
(1.21864 -0.0680531 0)
(1.20688 -0.0820648 0)
(1.19424 -0.0952323 0)
(1.18078 -0.107388 0)
(1.16662 -0.118361 0)
(1.15188 -0.127986 0)
(1.1367 -0.136111 0)
(1.12124 -0.142599 0)
(1.10567 -0.147339 0)
(1.09019 -0.150249 0)
(1.07499 -0.151276 0)
(1.26832 0.0593258 0)
(1.26645 0.0445861 0)
(1.26296 0.0295973 0)
(1.25895 0.0144741 0)
(1.25398 -0.000658594 0)
(1.24777 -0.0157048 0)
(1.24037 -0.0305679 0)
(1.23184 -0.0451289 0)
(1.22223 -0.0592512 0)
(1.21157 -0.0727868 0)
(1.19992 -0.0855792 0)
(1.18736 -0.0974652 0)
(1.17398 -0.108279 0)
(1.15991 -0.11786 0)
(1.14529 -0.126055 0)
(1.13026 -0.132728 0)
(1.11501 -0.137766 0)
(1.09971 -0.14108 0)
(1.08458 -0.14261 0)
(1.25791 0.0598066 0)
(1.25709 0.0462166 0)
(1.2547 0.0323862 0)
(1.25185 0.0183643 0)
(1.24808 0.00424315 0)
(1.24309 -0.0098751 0)
(1.23691 -0.0238882 0)
(1.22959 -0.0376823 0)
(1.22116 -0.0511272 0)
(1.21164 -0.0640812 0)
(1.20109 -0.0763936 0)
(1.18956 -0.0879074 0)
(1.17715 -0.0984631 0)
(1.16396 -0.107903 0)
(1.15013 -0.116078 0)
(1.1358 -0.122853 0)
(1.12114 -0.128112 0)
(1.10632 -0.131761 0)
(1.09155 -0.133734 0)
(1.24557 0.0592928 0)
(1.2455 0.0468662 0)
(1.24397 0.0341892 0)
(1.24203 0.0212766 0)
(1.23923 0.00819645 0)
(1.23528 -0.00495091 0)
(1.23017 -0.0180617 0)
(1.22395 -0.0310278 0)
(1.21663 -0.0437272 0)
(1.20823 -0.0560256 0)
(1.19879 -0.0677798 0)
(1.18835 -0.0788406 0)
(1.17699 -0.0890551 0)
(1.16481 -0.0982719 0)
(1.15192 -0.106346 0)
(1.13846 -0.113142 0)
(1.12459 -0.118545 0)
(1.11046 -0.122457 0)
(1.09628 -0.124807 0)
(1.23231 0.0580853 0)
(1.23277 0.0467879 0)
(1.23187 0.0352241 0)
(1.23061 0.0233927 0)
(1.22858 0.0113451 0)
(1.22547 -0.000824029 0)
(1.22127 -0.0130166 0)
(1.21601 -0.0251286 0)
(1.20971 -0.0370462 0)
(1.20236 -0.0486443 0)
(1.19398 -0.0597884 0)
(1.18462 -0.0703378 0)
(1.17433 -0.0801478 0)
(1.1632 -0.0890737 0)
(1.15133 -0.0969754 0)
(1.13884 -0.103722 0)
(1.12587 -0.109197 0)
(1.11258 -0.113303 0)
(1.09914 -0.115961 0)
(1.21883 0.0564207 0)
(1.21961 0.0461905 0)
(1.21918 0.0356789 0)
(1.21843 0.0248786 0)
(1.21698 0.0138291 0)
(1.21454 0.00261711 0)
(1.2111 -0.00866595 0)
(1.20668 -0.0199226 0)
(1.20127 -0.0310476 0)
(1.19486 -0.041925 0)
(1.18748 -0.0524299 0)
(1.17914 -0.0624306 0)
(1.16989 -0.0717912 0)
(1.15981 -0.0803747 0)
(1.14898 -0.0880474 0)
(1.1375 -0.0946828 0)
(1.12549 -0.100166 0)
(1.11311 -0.104399 0)
(1.10051 -0.107301 0)
(1.20554 0.0544707 0)
(1.20652 0.0452323 0)
)
;

boundaryField
{
    inlet
    {
        type            uniformFixedValue;
        uniformValue    constant (1 0 0);
        value           nonuniform 0();
    }
    outlet
    {
        type            pressureInletOutletVelocity;
        value           nonuniform 0();
    }
    cylinder
    {
        type            fixedValue;
        value           nonuniform 0();
    }
    top
    {
        type            symmetryPlane;
    }
    bottom
    {
        type            symmetryPlane;
    }
    defaultFaces
    {
        type            empty;
    }
    procBoundary28to22
    {
        type            processor;
        value           nonuniform List<vector> 
26
(
(0.244244 -0.0203928 -1.3929e-19)
(0.264068 -0.0171521 5.43082e-20)
(0.264068 -0.0171521 5.43082e-20)
(0.243032 -0.0262725 -3.46023e-20)
(0.264319 -0.0264473 -2.90868e-20)
(0.264319 -0.0264473 -2.90868e-20)
(0.261107 -0.0286405 2.50634e-20)
(0.243504 -0.0109563 -7.56903e-21)
(0.252685 -0.0300253 4.82359e-20)
(0.274522 -0.042774 1.65299e-21)
(0.294468 -0.0564126 6.26627e-21)
(0.314433 -0.069685 -2.37168e-20)
(0.381791 -0.0870519 1.35664e-20)
(0.381791 -0.0870519 1.35664e-20)
(0.400919 -0.0995009 8.68278e-21)
(0.420204 -0.111478 -1.35669e-20)
(0.439884 -0.122778 4.67994e-22)
(0.460151 -0.133159 -6.12329e-21)
(0.481145 -0.142368 1.83393e-21)
(0.502963 -0.150165 2.57921e-20)
(0.525663 -0.156343 -2.16145e-20)
(0.549267 -0.160741 5.30784e-21)
(0.573759 -0.163256 3.34255e-21)
(0.599084 -0.163837 -1.06129e-21)
(0.625149 -0.16249 2.27916e-21)
(0.651815 -0.159258 -3.7442e-21)
)
;
    }
    procBoundary28to23
    {
        type            processor;
        value           nonuniform List<vector> 3((0.698428 -0.160428 1.70281e-21) (0.717795 -0.16599 8.62487e-22) (0.736878 -0.17094 2.68263e-21));
    }
    procBoundary28to27
    {
        type            processor;
        value           nonuniform List<vector> 10((0.3028 -0.030732 -1.63288e-19) (0.375634 -0.0313576 -1.42937e-19) (0.404463 -0.0315079 1.01473e-19) (0.404463 -0.0315079 1.01473e-19) (0.49371 -0.0239565 2.74997e-19) (0.49371 -0.0239565 2.74997e-19) (0.616367 -0.014337 -1.16181e-19) (0.716243 -0.0253137 -3.36416e-20) (0.82735 -0.0258702 -1.53606e-20) (0.927133 -0.0196756 3.73118e-21));
    }
    procBoundary28to29
    {
        type            processor;
        value           nonuniform List<vector> 
20
(
(0.75557 -0.175397 -4.01357e-24)
(0.773783 -0.179357 -2.68228e-21)
(0.773783 -0.179357 -2.68228e-21)
(0.809337 -0.176929 0)
(0.836791 -0.180798 0)
(0.865017 -0.183551 0)
(0.893357 -0.18495 0)
(0.92116 -0.184912 0)
(0.94781 -0.183449 0)
(0.972753 -0.18062 0)
(0.995534 -0.17652 0)
(1.01581 -0.17128 0)
(1.03339 -0.165059 0)
(1.04819 -0.158037 0)
(1.06027 -0.150398 0)
(1.0698 -0.142326 0)
(1.07702 -0.133992 0)
(1.08222 -0.125547 0)
(1.08574 -0.117121 0)
(1.08787 -0.108817 0)
)
;
    }
    procBoundary28to33
    {
        type            processor;
        value           nonuniform List<vector> 
15
(
(1.01682 -0.00882466 3.78233e-20)
(1.09391 0.00417627 -9.03749e-20)
(1.1572 0.0179092 -1.45553e-20)
(1.20619 0.0312426 8.82231e-20)
(1.24122 0.0431846 -4.57071e-20)
(1.26348 0.0530537 -2.37779e-20)
(1.27484 0.0605142 3.52375e-20)
(1.27747 0.0655483 -6.1669e-21)
(1.27362 0.0683849 7.86943e-21)
(1.2653 0.0694017 -9.16425e-21)
(1.25419 0.0690265 -2.21414e-21)
(1.24155 0.0676629 -2.12779e-21)
(1.22827 0.0656467 2.08548e-20)
(1.21493 0.063232 -2.52698e-20)
(1.20187 0.060596 1.92687e-20)
)
;
    }
    procBoundary28to34
    {
        type            processor;
        value           nonuniform List<vector> 
20
(
(1.20642 0.0357021 0)
(1.20603 0.0258715 0)
(1.20503 0.0157712 0)
(1.20314 0.00547792 0)
(1.20033 -0.00492166 0)
(1.19661 -0.0153395 0)
(1.19198 -0.0256795 0)
(1.18642 -0.0358346 0)
(1.17993 -0.0456893 0)
(1.17254 -0.0551212 0)
(1.16428 -0.0640038 0)
(1.1552 -0.0722083 0)
(1.14538 -0.079608 0)
(1.1349 -0.0860817 0)
(1.12388 -0.091518 0)
(1.11244 -0.0958193 0)
(1.10073 -0.098905 0)
(1.19268 0.0523518 0)
(1.20642 0.0357021 0)
(1.19378 0.044026 0)
)
;
    }
}


// ************************************************************************* //
