/*--------------------------------*- C++ -*----------------------------------*\
  =========                 |
  \\      /  F ield         | OpenFOAM: The Open Source CFD Toolbox
   \\    /   O peration     | Website:  https://openfoam.org
    \\  /    A nd           | Version:  7
     \\/     M anipulation  |
\*---------------------------------------------------------------------------*/
FoamFile
{
    version     2.0;
    format      ascii;
    class       surfaceScalarField;
    location    "26.999196";
    object      phi;
}
// * * * * * * * * * * * * * * * * * * * * * * * * * * * * * * * * * * * * * //

dimensions      [0 3 -1 0 0 0 0];

internalField   nonuniform List<scalar> 
11438
(
9.01464e-05
-0.00105372
0.000170192
-0.00100613
0.000230238
-0.000911531
0.000260757
-0.000770808
-0.000584756
-0.00107119
1.74808e-05
-0.00108906
1.78821e-05
-0.00110656
1.75026e-05
-0.00112345
1.69025e-05
-0.00113964
1.62062e-05
-0.0011551
1.54668e-05
-0.0011698
1.47142e-05
-0.00118375
1.39606e-05
-0.00119695
1.32103e-05
-0.0012094
1.24633e-05
-0.00122111
1.17175e-05
-0.00123207
1.09694e-05
-0.00124227
1.02143e-05
-0.00125171
9.44687e-06
-0.00126036
8.66156e-06
-0.00126821
7.85281e-06
-0.00127522
7.01558e-06
-0.00128137
6.1456e-06
-0.00128661
5.23919e-06
-0.00129091
4.29215e-06
-0.00129422
3.29814e-06
-0.00129649
2.24837e-06
-0.00129765
1.13632e-06
-0.00129761
-6.21162e-08
-0.0012964
-1.24484e-06
-0.00129386
-2.57583e-06
-0.00128987
-4.02958e-06
-0.00128431
-5.61474e-06
-0.00127702
-7.34555e-06
-0.00126784
-9.23827e-06
-0.0012566
-1.13071e-05
-0.0012431
-1.3577e-05
-0.0012271
-1.60681e-05
-0.00120837
-1.88025e-05
-0.00118665
-2.18027e-05
-0.00116163
-2.50907e-05
-0.00113301
-2.86882e-05
-0.00110046
-3.26149e-05
-0.00106363
-3.68879e-05
-0.00102214
-4.15276e-05
-0.000975656
-4.65133e-05
-0.000923787
-5.18811e-05
-0.000866158
-5.76227e-05
-0.000802403
-6.37275e-05
-0.000732169
-7.01842e-05
-0.00065518
-7.69169e-05
-0.000571167
-8.39197e-05
-0.000479922
-9.11301e-05
-0.000381284
-9.85042e-05
-0.000275245
-0.00010589
-1.48862e-07
-0.000161796
-0.000113289
-1.59829e-07
-4.11188e-05
-0.000120511
-1.65506e-07
8.65508e-05
-0.000127504
-1.65273e-07
0.000220838
-0.000134128
-1.58718e-07
0.000361322
-0.000140339
-1.45756e-07
0.000507371
-0.000145922
-1.26594e-07
0.000658439
-0.000150966
-1.02023e-07
0.000813617
-0.000155105
-7.27977e-08
0.000972437
-0.00015878
-4.0644e-08
0.00113357
-0.000161124
-6.4719e-09
0.00129709
-0.000163546
2.71833e-08
0.00146078
-0.000163752
5.95108e-08
0.0016262
-0.00016551
8.84274e-08
0.00178927
-0.000163181
1.11776e-07
0.00195455
-0.000165417
1.31703e-07
0.00211461
-0.000160191
1.39196e-07
0.00227889
-0.000164436
1.5001e-07
0.00243559
-0.000156832
1.34977e-07
0.00259933
-0.000163887
1.40757e-07
-0.000160038
9.64335e-08
-0.00102275
3.40965e-05
-0.00103985
3.4986e-05
-0.00105663
3.42828e-05
-0.00107286
3.31288e-05
-0.00108842
3.17645e-05
-0.00110325
3.03015e-05
-0.00111734
2.88052e-05
-0.00113069
2.7303e-05
-0.00114328
2.5804e-05
-0.00115513
2.43091e-05
-0.00116622
2.28143e-05
-0.00117657
2.13125e-05
-0.00118615
1.97946e-05
-0.00119495
1.82501e-05
-0.00120296
1.66677e-05
-0.00121014
1.50363e-05
-0.00121647
1.33458e-05
-0.00122191
1.15879e-05
-0.00122643
9.75553e-06
-0.00122998
7.84026e-06
-0.00123251
5.82848e-06
-0.00123396
3.70616e-06
-0.00123429
1.45894e-06
-0.00123345
-8.99316e-07
-0.00123135
-3.33975e-06
-0.0012279
-6.02735e-06
-0.00122297
-8.95868e-06
-0.00121644
-1.21529e-05
-0.00120814
-1.56382e-05
-0.00119793
-1.94473e-05
-0.00118564
-2.36052e-05
-0.00117105
-2.81642e-05
-0.00115395
-3.31636e-05
-0.00113411
-3.86472e-05
-0.00111125
-4.46587e-05
-0.0010851
-5.1242e-05
-0.00105535
-5.84397e-05
-0.00102167
-6.62908e-05
-0.000983734
-7.48281e-05
-0.000941165
-8.40965e-05
-0.000893636
-9.4042e-05
-0.000840774
-0.000104744
-0.000782214
-0.000116183
-0.000717605
-0.000128336
-0.000646605
-0.000141185
-0.000568954
-0.000154568
-0.0004844
-0.000168474
-0.00039275
-0.00018278
-0.000293856
-0.000197398
-0.000187724
-0.000212022
-7.43527e-05
-0.00022666
4.60475e-05
-0.000240912
0.000173232
-0.000254689
0.000306839
-0.000267735
0.000446437
-0.000279936
0.000591385
-0.00029087
0.000741153
-0.000300734
0.000894821
-0.000308774
0.00105195
-0.000315912
0.00121121
-0.000320379
0.0013727
-0.000325039
0.00153422
-0.000325274
0.00169735
-0.000328633
0.00185806
-0.000323893
0.00202083
-0.000328191
0.00217848
-0.000317833
0.00234008
-0.000326041
0.00249444
-0.000311194
0.00265536
-0.000324799
-0.000317476
-0.000926544
4.911e-05
-0.000942164
5.06064e-05
-0.000957556
4.9674e-05
-0.000972487
4.80602e-05
-0.000986812
4.60896e-05
-0.00100045
4.39406e-05
-0.00101337
4.17244e-05
-0.00102556
3.94876e-05
-0.001037
3.72469e-05
-0.00104769
3.50048e-05
-0.00105764
3.27562e-05
-0.00106681
3.04909e-05
-0.00107521
2.81955e-05
-0.00108282
2.58544e-05
-0.0010896
2.34507e-05
-0.00109553
2.09674e-05
-0.00110058
1.83894e-05
-0.00110469
1.57049e-05
-0.00110784
1.29045e-05
-0.00110998
9.9761e-06
-0.00111106
6.90518e-06
-0.00111104
3.6889e-06
-0.00110971
1.34456e-07
-0.00110734
-3.27333e-06
-0.00110361
-7.06707e-06
-0.00109845
-1.11868e-05
-0.00109175
-1.56594e-05
-0.00108338
-2.05213e-05
-0.0010732
-2.58173e-05
-0.00106105
-3.15986e-05
-0.00104677
-3.78924e-05
-0.00103015
-4.47841e-05
-0.00101098
-5.23292e-05
-0.000989036
-6.05914e-05
-0.000964061
-6.96345e-05
-0.000935781
-7.95219e-05
-0.000903905
-9.03151e-05
-0.000868125
-0.000102071
-0.000828117
-0.000114836
-0.000783524
-0.00012869
-0.000734051
-0.000143515
-0.000679342
-0.000159452
-0.000619061
-0.000176464
-0.000552881
-0.000194515
-0.000480478
-0.000213588
-0.000401626
-0.00023342
-0.000316107
-0.000253993
-0.000223752
-0.000275135
-0.000124421
-0.000296729
-1.8117e-05
-0.000318326
9.49253e-05
-0.000339703
0.00021469
-0.000360676
0.000340903
-0.000380903
0.000473138
-0.000399969
0.000610971
-0.000417769
0.00075375
-0.000433649
0.000900968
-0.000447952
0.00105169
-0.000459499
0.00120555
-0.000469765
0.00136117
-0.000475999
0.00151875
-0.000482619
0.00167609
-0.000482615
0.00183478
-0.00048733
0.00199097
-0.000480077
0.00214892
-0.000486144
0.00230194
-0.000470849
0.0024584
-0.000482504
0.00260827
-0.000461062
0.00276376
-0.000480291
-0.00047009
-0.000783711
6.20131e-05
-0.000797248
6.41433e-05
-0.000810651
6.30767e-05
-0.000823735
6.11447e-05
-0.000836313
5.86679e-05
-0.000848274
5.59008e-05
-0.000859561
5.30113e-05
-0.000870144
5.00708e-05
-0.000880003
4.71066e-05
-0.000889124
4.41252e-05
-0.000897489
4.11215e-05
-0.000905081
3.80833e-05
-0.000911879
3.49936e-05
-0.000917857
3.1832e-05
-0.000922982
2.85758e-05
-0.000927217
2.52023e-05
-0.000930519
2.1691e-05
-0.00093284
1.80265e-05
-0.000934134
1.41979e-05
-0.000934351
1.01935e-05
-0.00093345
6.00373e-06
-0.000931279
1.51872e-06
-0.00092811
-3.03508e-06
-0.000923536
-7.8469e-06
-0.000917557
-1.3046e-05
-0.000910075
-1.86688e-05
-0.000900976
-2.47583e-05
-0.000890133
-3.13643e-05
-0.000877405
-3.85452e-05
-0.000862627
-4.63768e-05
-0.000845652
-5.48681e-05
-0.000826285
-6.41504e-05
-0.000804324
-7.42905e-05
-0.000779546
-8.53695e-05
-0.000751712
-9.74687e-05
-0.000720565
-0.000110668
-0.000685834
-0.000125046
-0.000647231
-0.000140674
-0.000604459
-0.000157609
-0.000557166
-0.000175982
-0.000505108
-0.000195573
-0.000447959
-0.000216602
-0.000385416
-0.000239007
-0.00031719
-0.000262741
-0.000242981
-0.000287796
-0.000162598
-0.000313803
-7.58542e-05
-0.000340737
1.73965e-05
-0.000368385
0.000116981
-0.000396314
0.000223123
-0.000424468
0.000335701
-0.00045228
0.00045446
-0.000479435
0.000579133
-0.000505575
0.000709281
-0.000530117
0.000844485
-0.000552974
0.00098408
-0.000573244
0.00112759
-0.000591466
0.00127408
-0.000605982
0.00142323
-0.000618918
0.00157367
-0.00062644
0.00172569
-0.000634639
0.00187712
-0.000634042
0.00202956
-0.000639775
0.00217937
-0.000629885
0.00233054
-0.000637312
0.00247706
-0.000617364
0.00262631
-0.000631757
0.00276984
-0.000604597
0.00291778
-0.000628226
-0.000615896
-0.000595498
7.27553e-05
-0.000606481
7.51265e-05
-0.000617429
7.40245e-05
-0.000628241
7.19568e-05
-0.000638689
6.91154e-05
-0.000648628
6.58397e-05
-0.000657973
6.23569e-05
-0.000666671
5.87683e-05
-0.000674681
5.51169e-05
-0.000681973
5.14167e-05
-0.000688516
4.76651e-05
-0.000694283
4.38496e-05
-0.00069924
3.9951e-05
-0.000703353
3.59447e-05
-0.00070658
3.18029e-05
-0.000708874
2.74964e-05
-0.000710182
2.29991e-05
-0.000710448
1.82919e-05
-0.000709617
1.33676e-05
-0.000707651
8.22701e-06
-0.000704436
2.78923e-06
-0.000700089
-2.82879e-06
-0.000694485
-8.63916e-06
-0.000687452
-1.48798e-05
-0.000678914
-2.15834e-05
-0.000668777
-2.88064e-05
-0.00065693
-3.66051e-05
-0.000643251
-4.50433e-05
-0.000627603
-5.41937e-05
-0.000609807
-6.41721e-05
-0.000589746
-7.49297e-05
-0.000567229
-8.66675e-05
-0.000542062
-9.94573e-05
-0.000514037
-0.000113394
-0.000482932
-0.000128574
-0.000448511
-0.00014509
-0.000410525
-0.000163032
-0.000368716
-0.000182483
-0.000322815
-0.00020351
-0.000272481
-0.000226316
-0.00021752
-0.000250534
-0.000157643
-0.000276479
-9.25731e-05
-0.000304077
-2.20198e-05
-0.000333295
5.39846e-05
-0.000363801
0.000135797
-0.000395615
0.000223573
-0.000428513
0.000317367
-0.00046218
0.00041723
-0.000496176
0.000523033
-0.000530271
0.000634671
-0.000563919
0.000751877
-0.000596641
0.000874367
-0.000628065
0.00100168
-0.00065743
0.00113341
-0.0006847
0.00126886
-0.0007087
0.00140763
-0.000730229
0.00154873
-0.000747086
0.00169196
-0.000762152
0.00183594
-0.000770414
0.00198105
-0.000779749
0.00212517
-0.000778163
0.00226991
-0.000784517
0.0024119
-0.000771879
0.00255477
-0.000780175
0.00269334
-0.000755937
0.00283381
-0.000772231
0.00296958
-0.00074036
0.00310838
-0.000767027
-0.000753351
-0.000362584
8.15828e-05
-0.000370672
8.32143e-05
-0.000378998
8.23504e-05
-0.000387341
8.03008e-05
-0.000395483
7.72566e-05
-0.00040327
7.36276e-05
-0.000410582
6.9668e-05
-0.000417327
6.5514e-05
-0.000423443
6.12329e-05
-0.000428877
5.68501e-05
-0.00043358
5.23687e-05
-0.00043751
4.77789e-05
-0.00044062
4.30614e-05
-0.000442864
3.8189e-05
-0.000444191
3.31293e-05
-0.000444541
2.78466e-05
-0.000443849
2.2307e-05
-0.000442043
1.64858e-05
-0.000439067
1.03921e-05
-0.000434851
4.01037e-06
-0.000429429
-2.63226e-06
-0.000422852
-9.40542e-06
-0.000414813
-1.6679e-05
-0.000405263
-2.4429e-05
-0.000394117
-3.273e-05
-0.000381276
-4.16472e-05
-0.000366632
-5.12491e-05
-0.000350064
-6.16116e-05
-0.000331435
-7.28222e-05
-0.000310566
-8.50415e-05
-0.000287352
-9.81435e-05
-0.000261615
-0.000112404
-0.000233174
-0.000127899
-0.000201833
-0.000144735
-0.000167388
-0.000163018
-0.000129622
-0.000182856
-8.83049e-05
-0.00020435
-4.31898e-05
-0.000227598
6.00734e-06
-0.000252707
5.91279e-05
-0.000279437
0.000116825
-0.000308231
0.000179246
-0.0003389
0.000246586
-0.000371416
0.000319019
-0.000405729
0.000396755
-0.000441537
0.000479895
-0.000478754
0.0005685
-0.000517119
0.000662591
-0.000556271
0.000762171
-0.000595755
0.000867083
-0.000635184
0.000977186
-0.000674021
0.00109218
-0.000711632
0.00121176
-0.000747647
0.00133545
-0.000781118
0.00146285
-0.000812102
0.00159326
-0.000839117
0.00172633
-0.000863295
0.00186107
-0.000881826
0.00199737
-0.000898452
0.00213385
-0.000906888
0.00227099
-0.000916889
0.00240676
-0.000913936
0.00254272
-0.000920483
0.00267588
-0.000905032
0.00280936
-0.000913661
0.002939
-0.00088557
0.00306964
-0.000902878
0.00319664
-0.000867353
0.00332531
-0.000895702
-0.000881397
-8.24696e-05
8.43766e-05
-8.90255e-05
8.97701e-05
-9.5356e-05
8.86809e-05
-0.000101423
8.63677e-05
-0.000107443
8.3277e-05
-0.000113288
7.9472e-05
-0.000118783
7.51636e-05
-0.000123809
7.05395e-05
-0.000128274
6.56979e-05
-0.000132102
6.06781e-05
-0.000135225
5.54918e-05
-0.000137581
5.01349e-05
-0.00013911
4.45908e-05
-0.000139753
3.88317e-05
-0.000139445
3.28211e-05
-0.000138114
2.65158e-05
-0.000135676
1.98688e-05
-0.000132047
1.28568e-05
-0.000127181
5.52583e-06
-0.000121022
-2.148e-06
-0.000113801
-9.85293e-06
-0.000105082
-1.81251e-05
-9.48622e-05
-2.68986e-05
-8.30425e-05
-3.62487e-05
-6.95276e-05
-4.62449e-05
-5.42144e-05
-5.69604e-05
-3.6988e-05
-6.84754e-05
-1.77209e-05
-8.08787e-05
3.7232e-06
-9.42663e-05
2.72631e-05
-0.000108581
5.32882e-05
-0.000124169
8.19179e-05
-0.000141034
0.000113312
-0.000159293
0.00014764
-0.000179063
0.000185081
-0.00020046
0.000225822
-0.000223597
0.000270056
-0.000248583
0.000317972
-0.000275514
0.000369758
-0.000304493
0.000425695
-0.000335374
0.000485898
-0.000368434
0.000550553
-0.000403555
0.000619821
-0.000440685
0.000693833
-0.00047974
0.000772735
-0.000520439
0.000856583
-0.000562602
0.000945398
-0.000605933
0.00103914
-0.000650016
0.00113777
-0.000694378
0.00124108
-0.000738497
0.0013489
-0.00078184
0.00146089
-0.000823627
0.00157676
-0.00086351
0.00169599
-0.000900349
0.00181821
-0.00093433
0.00194273
-0.000963637
0.00206924
-0.000989804
0.00219677
-0.00100935
0.00232529
-0.00102698
0.00245346
-0.00103506
0.00258183
-0.00104526
0.00270852
-0.00104062
0.00283498
-0.00104694
0.00295864
-0.00102869
0.0030821
-0.00103712
0.0032022
-0.00100567
0.00332246
-0.00102313
0.00344009
-0.000984986
0.00355819
-0.0010138
-0.00099945
0.00024568
8.85232e-05
0.000240178
9.52717e-05
0.000235118
9.37413e-05
0.000230412
9.10739e-05
0.000225744
8.79449e-05
0.000221159
8.40569e-05
0.000216829
7.94934e-05
0.000212895
7.44733e-05
0.000209466
6.91269e-05
0.000206638
6.35065e-05
0.000204497
5.76326e-05
0.000203123
5.1509e-05
0.000202589
4.51244e-05
0.000202968
3.84526e-05
0.000204335
3.14543e-05
0.000206774
2.40767e-05
0.000210383
1.62604e-05
0.00021525
7.98971e-06
0.000221604
-8.28259e-07
0.000228803
-9.34714e-06
0.000237554
-1.86034e-05
0.000247796
-2.83675e-05
0.000259632
-3.87345e-05
0.000273153
-4.97702e-05
0.000288455
-6.15463e-05
0.000305638
-7.41437e-05
0.000324811
-8.76486e-05
0.000346089
-0.000102156
0.000369588
-0.000117766
0.000395493
-0.000134487
0.000423895
-0.00015257
0.000454937
-0.000172076
0.000488772
-0.000193128
0.000525556
-0.000215847
0.000565448
-0.000240352
0.000608612
-0.000266761
0.00065521
-0.000295181
0.000705403
-0.000325707
0.000759341
-0.000358431
0.000817241
-0.000393273
0.000879199
-0.000430392
0.00094535
-0.000469706
0.00101581
-0.00051114
0.00109064
-0.000554574
0.00116994
-0.000599735
0.0012537
-0.000646369
0.00134191
-0.000694143
0.00143448
-0.000742582
0.00153129
-0.000791195
0.00163214
-0.000839344
0.0017368
-0.000886501
0.00184492
-0.000931748
0.00195619
-0.000974779
0.0020701
-0.00101425
0.0021863
-0.00105053
0.0023041
-0.00108144
0.00242326
-0.00110896
0.00254284
-0.00112893
0.00266288
-0.00114702
0.00278213
-0.0011543
0.00290116
-0.00116429
0.00301828
-0.00115774
0.00313479
-0.00116345
0.00324861
-0.00114251
0.00336173
-0.00115024
0.00347206
-0.00111601
0.00358177
-0.00113284
0.00368982
-0.00109303
0.00379734
-0.00112132
-0.00110735
0.000628439
0.000621633
0.000102078
0.00061583
9.95449e-05
0.000610726
9.61772e-05
0.000605867
9.28041e-05
0.000601181
8.87426e-05
0.000596782
8.38922e-05
0.000592791
7.84649e-05
0.000589311
7.26068e-05
0.000586443
6.63742e-05
0.000584284
5.97918e-05
0.000582923
5.28704e-05
0.000582443
4.56041e-05
0.000582926
3.79692e-05
0.000584458
2.99231e-05
0.000587133
2.14014e-05
0.000591071
1.23222e-05
0.000596525
2.53625e-06
0.000602823
-7.12665e-06
0.000610758
-1.7282e-05
0.00062016
-2.80051e-05
0.00063115
-3.93577e-05
0.000643821
-5.14062e-05
0.000658266
-6.4215e-05
0.000674583
-7.78633e-05
0.000692875
-9.24361e-05
0.00071325
-0.000108023
0.000735817
-0.000124723
0.00076069
-0.000142639
0.000788032
-0.000161829
0.000817935
-0.000182473
0.000850532
-0.000204673
0.000885957
-0.000228552
0.000924344
-0.000254234
0.000965832
-0.00028184
0.00101056
-0.000311484
0.00105865
-0.000343273
0.00111023
-0.000377294
0.00116543
-0.000413628
0.00122439
-0.000452233
0.00128719
-0.000493188
0.0013539
-0.000536423
0.0014246
-0.000581837
0.0014993
-0.000629274
0.00157803
-0.000678461
0.00166074
-0.00072908
0.00174736
-0.000780765
0.00183776
-0.000832981
0.00193179
-0.000885221
0.00202919
-0.000936745
0.00212972
-0.000987037
0.00223302
-0.00103505
0.00233877
-0.00108053
0.00244647
-0.00112195
0.00255581
-0.00115987
0.00266611
-0.00119174
0.0027772
-0.00122006
0.0028882
-0.00123992
0.00299921
-0.00125803
0.00310907
-0.00126417
0.00321836
-0.00127359
0.00332565
-0.00126502
0.00343201
-0.00126981
0.00353589
-0.0012464
0.00363867
-0.00125302
0.00373926
-0.00121659
0.0038386
-0.00123218
0.00393713
-0.00119156
0.0040344
-0.00121859
-0.0012053
0.00105968
0.000112825
0.00105043
0.000108788
0.00104243
0.000104179
0.00103512
0.000100118
0.00102828
9.55845e-05
0.00102193
9.02363e-05
0.00101615
8.42431e-05
0.00101101
7.77477e-05
0.00100659
7.07956e-05
0.00100298
6.34056e-05
0.00100026
5.55899e-05
0.000998517
4.73459e-05
0.000997835
3.86517e-05
0.000998295
2.94627e-05
0.000999994
1.97025e-05
0.00100308
9.24089e-06
0.00100761
-1.9985e-06
0.00101343
-1.29451e-05
0.00102079
-2.46437e-05
0.00102977
-3.69882e-05
0.00104046
-5.00463e-05
0.00105294
-6.38798e-05
0.00106729
-7.85648e-05
0.00108361
-9.41879e-05
0.00110201
-0.000110836
0.00112259
-0.000128602
0.00114545
-0.000147585
0.0011707
-0.000167893
0.00119848
-0.000189609
0.00122889
-0.000212879
0.00126204
-0.00023782
0.00129804
-0.000264556
0.00133701
-0.000293208
0.00137907
-0.000323896
0.00142432
-0.000356731
0.00147286
-0.000391813
0.00152478
-0.00042922
0.00158017
-0.000469018
0.00163912
-0.000511184
0.00170167
-0.000555741
0.00176786
-0.000602612
0.0018377
-0.000651674
0.00191116
-0.000702735
0.00198821
-0.00075551
0.00206876
-0.000809629
0.00215269
-0.000864697
0.00223983
-0.000920122
0.00233
-0.000975383
0.0024229
-0.00102965
0.00251829
-0.00108243
0.00261579
-0.00113254
0.00271511
-0.00117985
0.00281573
-0.00122257
0.00291741
-0.00126155
0.00301951
-0.00129384
0.00312191
-0.00132246
0.00322381
-0.00134181
0.00332535
-0.00135958
0.00342554
-0.00136435
0.00352489
-0.00137294
0.00362226
-0.0013624
0.00371847
-0.00136603
0.00381254
-0.00134046
0.0039052
-0.00134569
0.0039963
-0.00130768
0.0040857
-0.00132158
0.00417503
-0.0012809
0.00426265
-0.00130621
-0.00129379
0.0015567
0.000130361
0.00154103
0.000124455
0.00152717
0.000118044
0.00151457
0.000112713
0.00150295
0.000107208
0.00149223
0.000100953
0.00148242
9.40592e-05
0.00147352
8.6646e-05
0.00146558
7.87325e-05
0.00145867
7.03201e-05
0.00145284
6.14142e-05
0.00144818
5.20102e-05
0.00144475
4.2085e-05
0.00144262
3.15912e-05
0.00144188
2.04393e-05
0.00144268
8.43913e-06
0.00144491
-4.22844e-06
0.0014488
-1.68375e-05
0.00145438
-3.02202e-05
0.00146172
-4.43252e-05
0.00147089
-5.92161e-05
0.00148197
-7.49597e-05
0.00149505
-9.16428e-05
0.00151022
-0.000109359
0.00152758
-0.000128196
0.00154722
-0.000148247
0.00156925
-0.000169612
0.00159376
-0.000192401
0.00162086
-0.00021671
0.00165065
-0.000242668
0.00168322
-0.000270394
0.00171868
-0.00030001
0.0017571
-0.000331634
0.00179859
-0.000365381
0.00184321
-0.000401353
0.00189104
-0.000439644
0.00194214
-0.000480318
0.00199655
-0.000523426
0.00205431
-0.000568945
0.00211543
-0.000616861
0.0021799
-0.000667081
0.00224768
-0.000719455
0.0023187
-0.000773759
0.00239289
-0.000829693
0.0024701
-0.000886839
0.00255018
-0.000944779
0.00263292
-0.00100287
0.00271811
-0.00106058
0.00280546
-0.001117
0.0028947
-0.00117167
0.00298545
-0.00122329
0.00307744
-0.00127184
0.00317021
-0.00131534
0.00326353
-0.00135488
0.00335683
-0.00138714
0.00345005
-0.00141568
0.00354249
-0.00143424
0.00363431
-0.0014514
0.00372469
-0.00145474
0.00381409
-0.00146233
0.00390165
-0.00144996
0.00398795
-0.00145232
0.0040725
-0.00142502
0.00415548
-0.00142867
0.00423753
-0.00138973
0.00431762
-0.00140167
0.00439828
-0.00136156
0.00447702
-0.00138495
-0.00137351
0.00211024
0.0020852
0.000149502
0.00206245
0.000140788
0.00204161
0.000133552
0.00202239
0.000126434
0.00200463
0.000118707
0.00198827
0.000110421
0.00197326
0.000101658
0.00195959
9.23988e-05
0.00194729
8.26211e-05
0.00193639
7.23149e-05
0.00192694
6.14668e-05
0.00191897
5.00497e-05
0.00191255
3.8015e-05
0.00190771
2.52767e-05
0.00190451
1.1637e-05
0.00190323
-2.94355e-06
0.00190369
-1.72957e-05
0.00190604
-3.25767e-05
0.00191035
-4.86377e-05
0.00191668
-6.55398e-05
0.00192507
-8.33561e-05
0.00193562
-0.000102189
0.0019484
-0.000122141
0.00196351
-0.000143303
0.00198102
-0.000165762
0.00200103
-0.000189621
0.00202362
-0.00021499
0.00204888
-0.000241969
0.00207689
-0.000270677
0.00210773
-0.000301232
0.00214147
-0.000333749
0.00217817
-0.000368342
0.00221791
-0.000405117
0.00226072
-0.000444167
0.00230665
-0.000485572
0.00235572
-0.000529385
0.00240793
-0.000575637
0.00246328
-0.000624299
0.00252175
-0.000675326
0.00258327
-0.0007286
0.00264777
-0.000783954
0.00271513
-0.000841126
0.00278524
-0.000899803
0.00285793
-0.000959523
0.002933
-0.00101985
0.00301023
-0.00108009
0.00308939
-0.00113973
0.00317016
-0.00119777
0.00325231
-0.00125382
0.00333546
-0.00130644
0.00341937
-0.00135575
0.00350362
-0.00139958
0.00358803
-0.0014393
0.00367212
-0.00147122
0.00375585
-0.00149942
0.00383866
-0.00151705
0.00392071
-0.00153345
0.00400139
-0.00153541
0.00408102
-0.00154196
0.0041591
-0.00152805
0.00423589
-0.00152912
0.00431143
-0.00150056
0.00438536
-0.00150259
0.00445897
-0.00146334
0.00453055
-0.00147325
0.00460325
-0.00143426
0.004674
-0.0014557
-0.00144536
0.00267235
0.00263834
0.000174801
0.00260682
0.000165073
0.00257758
0.00015567
0.00255045
0.000145842
0.00252527
0.000135595
0.00250197
0.000124955
0.0024805
0.000113868
0.00246084
0.000102285
0.00244298
9.01747e-05
0.00242694
7.75102e-05
0.00241273
6.42556e-05
0.00240039
5.03605e-05
0.00238991
3.57491e-05
0.00238129
2.02648e-05
0.00237483
3.5105e-06
0.00237051
-1.2975e-05
0.00236828
-3.03406e-05
0.00236825
-4.86094e-05
0.00237046
-6.77482e-05
0.00237493
-8.78322e-05
0.00238174
-0.000108993
0.00239094
-0.00013135
0.00240263
-0.000154989
0.00241687
-0.000179997
0.00243372
-0.000206475
0.00245326
-0.000234529
0.00247555
-0.000264262
0.00250066
-0.000295786
0.00252864
-0.000329211
0.00255954
-0.000364647
0.0025934
-0.000402199
0.00263024
-0.000441962
0.00267009
-0.00048402
0.00271296
-0.000528437
0.00275883
-0.000575251
0.00280766
-0.000624474
0.00285943
-0.000676063
0.00291405
-0.000729949
0.00297144
-0.000785988
0.00303148
-0.000843993
0.00309402
-0.00090367
0.00315891
-0.000964694
0.00322595
-0.00102657
0.00329495
-0.00108885
0.00336564
-0.00115079
0.00343781
-0.00121189
0.00351114
-0.0012711
0.00358541
-0.00132808
0.00366027
-0.0013813
0.00373553
-0.00143101
0.00381081
-0.00147486
0.003886
-0.00151449
0.00396068
-0.0015459
0.00403487
-0.00157361
0.00410812
-0.0015903
0.0041806
-0.00160593
0.00425189
-0.0016067
0.0043222
-0.00161226
0.00439133
-0.00159718
0.00445927
-0.00159705
0.00452648
-0.00156777
0.00459216
-0.00156828
0.00465812
-0.0015293
0.00472213
-0.00153726
0.0047877
-0.00149983
0.00485147
-0.00151947
-0.00151031
0.00323478
0.000221014
0.00319148
0.000208372
0.00315101
0.000196142
0.00311316
0.000183683
0.00307781
0.000170953
0.00304484
0.000157924
0.00301419
0.00014452
0.0029858
0.000130673
0.00295964
0.00011633
0.00293571
0.000101444
0.00291399
8.59708e-05
0.0028945
6.98548e-05
0.00287722
5.30234e-05
0.00286212
3.53704e-05
0.00284897
1.66574e-05
0.0028391
-3.1006e-06
0.00283118
-2.24256e-05
0.00282572
-4.3148e-05
0.00282276
-6.47881e-05
0.0028223
-8.7368e-05
0.00282436
-0.000111058
0.00282901
-0.000136001
0.00283631
-0.000162284
0.0028463
-0.000189987
0.00285903
-0.000219209
0.00287456
-0.000250055
0.00289292
-0.000282624
0.00291415
-0.000317021
0.00293829
-0.000353349
0.00296536
-0.00039171
0.00299535
-0.000432198
0.00302829
-0.000474897
0.00306415
-0.000519877
0.0031029
-0.000567189
0.0031445
-0.000616853
0.00318889
-0.000668864
0.00323599
-0.000723161
0.00328569
-0.000779653
0.00333788
-0.000838172
0.0033924
-0.000898516
0.00344909
-0.000960359
0.00350776
-0.00102337
0.00356821
-0.00108702
0.00363022
-0.00115086
0.00369355
-0.00121412
0.00375797
-0.00127632
0.00382321
-0.00133634
0.00388905
-0.00139393
0.0039552
-0.00144745
0.00402151
-0.00149732
0.00408765
-0.00154101
0.00415357
-0.00158041
0.00421895
-0.00161128
0.00428383
-0.00163849
0.00434789
-0.00165437
0.00441128
-0.00166932
0.00447376
-0.00166918
0.00453543
-0.00167393
0.00459636
-0.00165811
0.00465629
-0.00165698
0.00471603
-0.00162752
0.00477445
-0.00162669
0.00483368
-0.00158853
0.00489117
-0.00159475
0.00495058
-0.00155924
0.00500845
-0.00157734
-0.00156944
0.00382142
0.00376726
0.000262536
0.00371616
0.000247243
0.00366796
0.000231881
0.00362257
0.000216342
0.00357993
0.000200563
0.00353998
0.000184475
0.00350265
0.000168001
0.00346791
0.000151067
0.00343574
0.000133614
0.00340613
0.000115587
0.00337906
9.69256e-05
0.00335452
7.75565e-05
0.0033325
5.73964e-05
0.00331289
3.62641e-05
0.00329575
1.40436e-05
0.00328206
-8.7356e-06
0.00327066
-3.17515e-05
0.00326196
-5.60903e-05
0.00325597
-8.13769e-05
0.0032527
-0.000107785
0.00325218
-0.000135486
0.00325446
-0.000164562
0.00325956
-0.000195088
0.00326751
-0.000227162
0.00327835
-0.000260886
0.00329207
-0.000296351
0.00330871
-0.000333656
0.00332825
-0.000372895
0.00335071
-0.000414162
0.00337605
-0.000457538
0.00340425
-0.000503097
0.00343526
-0.000550894
0.00346904
-0.000600965
0.0035055
-0.000653313
0.00354455
-0.000707918
0.00358609
-0.000764699
0.00362999
-0.00082355
0.00367609
-0.00088428
0.00372425
-0.000946671
0.00377427
-0.00101038
0.00382596
-0.00107506
0.0038791
-0.00114016
0.0039335
-0.00120526
0.00398891
-0.00126952
0.00404514
-0.00133254
0.00410193
-0.00139313
0.00415912
-0.00145112
0.00421646
-0.00150479
0.00427384
-0.0015547
0.00433102
-0.00159819
0.00438798
-0.00163736
0.00444448
-0.00166778
0.00450059
-0.0016946
0.00455612
-0.00170991
0.00461117
-0.00172436
0.00466568
-0.0017237
0.00471963
-0.00172787
0.00477332
-0.0017118
0.00482628
-0.00170993
0.00487958
-0.00168082
0.00493182
-0.00167893
0.00498537
-0.00164208
0.00503746
-0.00164685
0.00509178
-0.00161356
0.00514485
-0.00163042
-0.00162388
0.00429929
0.000324463
0.00424024
0.000306288
0.00418401
0.000288113
0.00413061
0.000269741
0.00408005
0.000251122
0.0040323
0.000232225
0.00398734
0.000212967
0.00394514
0.000193266
0.00390569
0.000173058
0.003869
0.000152283
0.00383504
0.000130879
0.00380382
0.000108775
0.00377532
8.58975e-05
0.00374946
6.21321e-05
0.00372616
3.73399e-05
0.00370612
1.13008e-05
0.00368921
-1.48347e-05
0.0036749
-4.17829e-05
0.0036634
-6.98815e-05
0.00365475
-9.9132e-05
0.00364896
-0.000129699
0.00364606
-0.000161661
0.00364606
-0.000195086
0.00364897
-0.000230071
0.00365479
-0.000266707
0.00366352
-0.000305082
0.00367515
-0.000345284
0.00368965
-0.0003874
0.003707
-0.000431512
0.00372716
-0.000477692
0.00375006
-0.000526001
0.00377565
-0.000576479
0.00380383
-0.000629151
0.00383452
-0.000684003
0.00386761
-0.000741
0.00390295
-0.000800046
0.00394042
-0.00086102
0.00397986
-0.000923713
0.00402108
-0.000987899
0.00406392
-0.00105321
0.00410817
-0.00111931
0.00415364
-0.00118563
0.00420013
-0.00125175
0.00424744
-0.00131683
0.00429539
-0.00138049
0.00434377
-0.00144152
0.00439247
-0.00149982
0.00444128
-0.00155361
0.00449015
-0.00160356
0.0045389
-0.00164693
0.00458753
-0.001686
0.00463592
-0.00171617
0.00468412
-0.00174279
0.00473206
-0.00175785
0.00477979
-0.00177209
0.0048274
-0.00177132
0.00487475
-0.00177522
0.00492233
-0.00175938
0.00496948
-0.00175709
0.00501748
-0.00172883
0.00506474
-0.00172618
0.00511372
-0.00169106
0.0051616
-0.00169472
0.00521192
-0.00166387
0.00526133
-0.00167983
-0.00167474
0.00475261
0.00469005
0.000368848
0.00462988
0.000348283
0.00457223
0.000327384
0.00451718
0.00030617
0.00446476
0.000284646
0.004415
0.000262732
0.00436791
0.000240353
0.00432352
0.000217448
0.00428185
0.000193958
0.0042429
0.000169821
0.00420671
0.00014497
0.00417327
0.000119337
0.00414257
9.28347e-05
0.00411454
6.53639e-05
0.00408902
3.68245e-05
0.00406739
6.78797e-06
0.0040483
-2.2685e-05
0.00403187
-5.34578e-05
0.00401835
-8.56136e-05
0.00400774
-0.000119084
0.00400001
-0.000153935
0.00399517
-0.000190241
0.0039932
-0.000228102
0.0039941
-0.000267606
0.00399784
-0.000308827
0.00400441
-0.000351846
0.00401375
-0.000396741
0.00402582
-0.000443585
0.00404056
-0.000492436
0.00405791
-0.000543345
0.00407777
-0.00059634
0.00410005
-0.000651434
0.00412465
-0.000708599
0.00415144
-0.000767787
0.00418028
-0.000828891
0.00421104
-0.000891778
0.00424355
-0.000956224
0.00427765
-0.001022
0.00431317
-0.00108873
0.00434993
-0.00115607
0.00438774
-0.00122345
0.00442646
-0.00129046
0.00446589
-0.00135626
0.0045059
-0.0014205
0.00454633
-0.00148195
0.0045871
-0.00154059
0.00462807
-0.00159458
0.00466921
-0.00164471
0.00471042
-0.00168814
0.00475172
-0.0017273
0.00479306
-0.0017575
0.00483448
-0.00178421
0.00487601
-0.00179938
0.00491764
-0.00181372
0.00495959
-0.00181327
0.0050016
-0.00181723
0.00504432
-0.0018021
0.00508693
-0.0017997
0.00513085
-0.00177274
0.00517435
-0.00176969
0.00521993
-0.00173664
0.00526475
-0.00173955
0.00531219
-0.00171131
0.00535905
-0.0017267
-0.00172313
0.00503985
0.00498084
0.000407296
0.00492373
0.000384485
0.00486867
0.000361236
0.00481574
0.000337572
0.00476504
0.000313432
0.00471664
0.000288757
0.00467059
0.000263496
0.00462696
0.000237593
0.00458579
0.00021099
0.00454713
0.00018363
0.00451101
0.000155451
0.00447746
0.000126387
0.00444647
9.63574e-05
0.00441798
6.53126e-05
0.00439171
3.30587e-05
0.00437033
-1.30548e-06
0.00435032
-3.34449e-05
0.0043329
-6.81984e-05
0.00431824
-0.000104422
0.00430636
-0.000142057
0.00429725
-0.000181132
0.0042909
-0.000221749
0.00428728
-0.000263986
0.00428636
-0.000307909
0.00428811
-0.000353592
0.00429247
-0.000401104
0.00429939
-0.000450507
0.00430881
-0.000501853
0.00432064
-0.00055518
0.00433481
-0.000610506
0.00435121
-0.000667833
0.00436973
-0.000727123
0.00439026
-0.000788318
0.00441267
-0.000851299
0.00443682
-0.000915929
0.00446257
-0.000981972
0.00448977
-0.0010492
0.00451826
-0.00111722
0.00454791
-0.00118572
0.00457854
-0.00125408
0.00461005
-0.00132197
0.00464227
-0.00138848
0.00467512
-0.00145335
0.00470847
-0.0015153
0.00474229
-0.0015744
0.00477647
-0.00162876
0.00481103
-0.00167927
0.00484591
-0.00172302
0.00488115
-0.00176253
0.00491674
-0.00179309
0.00495273
-0.0018202
0.0049892
-0.00183586
0.0050261
-0.00185062