/*--------------------------------*- C++ -*----------------------------------*\
  =========                 |
  \\      /  F ield         | OpenFOAM: The Open Source CFD Toolbox
   \\    /   O peration     | Website:  https://openfoam.org
    \\  /    A nd           | Version:  7
     \\/     M anipulation  |
\*---------------------------------------------------------------------------*/
FoamFile
{
    version     2.0;
    format      ascii;
    class       volScalarField;
    location    "3";
    object      p;
}
// * * * * * * * * * * * * * * * * * * * * * * * * * * * * * * * * * * * * * //

dimensions      [0 2 -2 0 0 0 0];

internalField   nonuniform List<scalar> 
435
(
-3.31133
-3.19734
-3.08139
-2.96334
-2.84353
-2.72253
-2.60085
-2.47901
-2.35753
-2.23694
-2.11775
-2.00043
-1.88544
-1.77321
-1.6641
-1.55842
-1.45645
-3.50166
-3.40124
-3.29527
-3.18751
-3.07764
-2.96552
-2.85147
-2.73594
-2.61942
-2.50236
-2.38524
-2.26855
-2.15277
-2.03836
-1.92577
-1.81541
-1.70766
-1.60283
-1.50122
-3.47166
-3.37719
-3.27738
-3.17558
-3.07153
-2.96512
-2.85661
-2.74641
-2.63493
-2.52259
-2.40981
-2.29706
-2.18476
-2.07338
-1.96332
-1.85501
-1.7488
-1.64504
-1.54402
-3.44068
-3.35184
-3.25786
-3.16174
-3.06327
-2.96234
-2.85917
-2.75412
-2.64755
-2.53984
-2.43136
-2.32254
-2.21378
-2.10549
-1.99809
-1.89196
-1.78748
-1.68497
-1.58474
-3.40898
-3.32544
-3.23698
-3.14625
-3.05308
-2.95739
-2.85935
-2.75927
-2.65746
-2.55427
-2.45002
-2.3451
-2.23989
-2.13476
-2.03009
-1.92628
-1.82366
-1.72257
-1.62332
-3.37682
-3.29824
-3.21497
-3.12934
-3.04121
-2.9505
-2.85736
-2.76205
-2.66485
-2.56604
-2.46594
-2.36487
-2.26319
-2.16123
-2.05937
-1.95795
-1.85732
-1.75779
-1.65968
-3.34447
-3.27052
-3.1921
-3.11127
-3.02789
-2.94191
-2.85343
-2.76269
-2.66991
-2.57535
-2.47927
-2.38198
-2.28379
-2.18501
-2.08597
-1.98702
-1.88846
-1.79062
-1.69379
-3.31218
-3.24253
-3.16864
-3.0923
-3.01339
-2.93187
-2.84781
-2.7614
-2.67285
-2.58237
-2.49019
-2.39658
-2.30181
-2.20618
-2.10998
-2.01352
-1.91711
-1.82105
-1.72561
-3.28023
-3.21455
-3.14485
-3.07269
-2.99797
-2.92063
-2.84073
-2.75843
-2.6739
-2.58732
-2.49889
-2.40884
-2.31741
-2.22486
-2.13147
-2.03753
-1.94331
-1.84909
-1.75515
-3.24886
-3.18682
-3.12099
-3.05271
-2.98188
-2.90844
-2.83245
-2.75401
-2.67328
-2.5904
-2.50555
-2.41892
-2.33072
-2.24119
-2.15057
-2.05912
-1.9671
-1.87477
-1.7824
-3.21831
-3.1596
-3.09732
-3.03261
-2.96538
-2.89556
-2.8232
-2.74839
-2.67123
-2.59185
-2.51039
-2.42702
-2.34193
-2.25531
-2.16739
-2.0784
-1.98857
-1.89815
-1.80739
-3.18879
-3.13311
-3.07407
-3.01264
-2.94871
-2.88225
-2.81325
-2.7418
-2.66797
-2.59187
-2.51361
-2.43334
-2.3512
-2.26738
-2.18207
-2.09547
-2.0078
-1.91928
-1.83015
-3.16054
-3.10759
-3.05149
-2.99304
-2.93214
-2.86874
-2.80284
-2.73449
-2.66375
-2.5907
-2.51543
-2.43806
-2.35872
-2.27756
-2.19474
-2.11045
-2.02488
-1.93824
-1.85073
-3.13375
-3.08326
-3.02981
-2.97405
-2.91589
-2.85528
-2.79221
-2.7267
-2.6588
-2.58857
-2.51607
-2.44141
-2.36468
-2.28602
-2.20556
-2.12347
-2.03992
-1.9551
-1.86919
-3.10862
-3.06033
-3.00924
-2.9559
-2.9002
-2.84211
-2.78159
-2.71867
-2.65336
-2.5857
-2.51575
-2.44358
-2.36927
-2.29294
-2.21469
-2.13468
-2.05304
-1.96996
-1.88559
-3.08535
-3.03899
-2.99
-2.93881
-2.88531
-2.82947
-2.77124
-2.71063
-2.64765
-2.58232
-2.51468
-2.44478
-2.37269
-2.29849
-2.22229
-2.1442
-2.06436
-1.9829
-1.9
-3.06413
-3.01947
-2.97232
-2.923
-2.87144
-2.81757
-2.76137
-2.70282
-2.64191
-2.57865
-2.51308
-2.44521
-2.37511
-2.30285
-2.2285
-2.15218
-2.07398
-1.99404
-1.9125
-3.04518
-3.00197
-2.95639
-2.90871
-2.85881
-2.80667
-2.75222
-2.69545
-2.63635
-2.57491
-2.51115
-2.44508
-2.37674
-2.30619
-2.2335
-2.15874
-2.08203
-2.00346
-1.92316
-3.02869
-2.98671
-2.94246
-2.89614
-2.84766
-2.79697
-2.74401
-2.68876
-2.6312
-2.57131
-2.5091
-2.44457
-2.37775
-2.30868
-2.23742
-2.16403
-2.0886
-2.01123
-1.93204
-3.0149
-2.97391
-2.93075
-2.88555
-2.83822
-2.78871
-2.73698
-2.68297
-2.62668
-2.56806
-2.50713
-2.44387
-2.37831
-2.31047
-2.2404
-2.16815
-2.0938
-2.01745
-1.93918
-3.00407
-2.96384
-2.92151
-2.87717
-2.83073
-2.78214
-2.73134
-2.6783
-2.62298
-2.56536
-2.50541
-2.44314
-2.37856
-2.31168
-2.24254
-2.17119
-2.0977
-2.02213
-1.9446
-2.99647
-2.95677
-2.91502
-2.87128
-2.82545
-2.77749
-2.72735
-2.67497
-2.62033
-2.56339
-2.50413
-2.44255
-2.37864
-2.31243
-2.24394
-2.17322
-2.10032
-2.02531
-1.9483
-2.99244
-2.95303
-2.91159
-2.86816
-2.82266
-2.77503
-2.72523
-2.6732
-2.61891
-2.56233
-2.50343
-2.4422
-2.37865
-2.31279
-2.24464
-2.17425
-2.10166
-2.02695
-1.95021
)
;

boundaryField
{
    inlet
    {
        type            zeroGradient;
    }
    outlet
    {
        type            fixedValue;
        value           nonuniform 0();
    }
    cylinder
    {
        type            zeroGradient;
    }
    top
    {
        type            symmetryPlane;
    }
    bottom
    {
        type            symmetryPlane;
    }
    defaultFaces
    {
        type            empty;
    }
    procBoundary34to28
    {
        type            processor;
        value           nonuniform List<scalar> 
20
(
-3.32535
-3.20486
-3.08259
-2.95837
-2.83263
-2.706
-2.57907
-2.45241
-2.32658
-2.20215
-2.07964
-1.95956
-1.84236
-1.72845
-1.6182
-1.5119
-1.4098
-3.53046
-3.42375
-3.42375
)
;
    }
    procBoundary34to29
    {
        type            processor;
        value           nonuniform List<scalar> 3(-1.35836 -1.40304 -1.44597);
    }
    procBoundary34to33
    {
        type            processor;
        value           nonuniform List<scalar> 
22
(
-3.56166
-3.52821
-3.49398
-3.45925
-3.42427
-3.38931
-3.35462
-3.32048
-3.2871
-3.25473
-3.22358
-3.19386
-3.16576
-3.13947
-3.11519
-3.0931
-3.07341
-3.05631
-3.04203
-3.03084
-3.02301
-3.01889
)
;
    }
    procBoundary34to35
    {
        type            processor;
        value           nonuniform List<scalar> 
20
(
-1.48704
-1.52615
-1.56324
-1.59823
-1.63108
-1.66175
-1.69023
-1.71652
-1.74063
-1.76257
-1.78239
-1.80012
-1.81582
-1.82952
-1.84129
-1.85114
-1.85912
-1.8652
-1.86937
-1.87152
)
;
    }
}


// ************************************************************************* //
