/*--------------------------------*- C++ -*----------------------------------*\
  =========                 |
  \\      /  F ield         | OpenFOAM: The Open Source CFD Toolbox
   \\    /   O peration     | Website:  https://openfoam.org
    \\  /    A nd           | Version:  7
     \\/     M anipulation  |
\*---------------------------------------------------------------------------*/
FoamFile
{
    version     2.0;
    format      ascii;
    class       volScalarField;
    location    "4.6";
    object      p;
}
// * * * * * * * * * * * * * * * * * * * * * * * * * * * * * * * * * * * * * //

dimensions      [0 2 -2 0 0 0 0];

internalField   nonuniform List<scalar> 
344
(
-0.375696
-0.518724
-0.628165
-0.708102
-0.54533
-0.669912
-0.761262
-0.823682
-0.732293
-0.828412
-0.896139
-0.93912
-0.908177
-0.968703
-1.01289
-1.04142
-1.03287
-1.06105
-1.09126
-1.12072
0.123341
0.131397
0.139159
0.146632
-0.761851
-0.793763
-0.809924
-0.816547
-0.81757
-0.814403
-0.807503
-0.797692
-0.785489
-0.771223
-0.755143
-0.737483
-0.718466
-0.698307
-0.6772
-0.655324
-0.632842
-0.609902
-0.586635
-0.56316
-0.539581
-0.515991
-0.492468
-0.469085
-0.4459
-0.422967
-0.400329
-0.378023
-0.356083
-0.334534
-0.313397
-0.29269
-0.272427
-0.252618
-0.233271
-0.214392
-0.195983
-0.178045
-0.160579
-0.143582
-0.127052
-0.110984
-0.0953731
-0.0802144
-0.0655013
-0.0512269
-0.0373839
-0.023965
-0.0109621
0.00163268
0.0138276
0.0256309
0.037051
0.0480962
0.0587749
0.0690954
0.079066
0.0886949
0.0979902
0.10696
0.115612
0.123954
0.131993
0.139737
0.147194
-0.859711
-0.872666
-0.871511
-0.865
-0.856202
-0.845557
-0.833062
-0.818916
-0.803283
-0.786245
-0.767883
-0.748316
-0.727691
-0.70616
-0.683875
-0.660983
-0.637621
-0.613916
-0.589985
-0.565932
-0.541851
-0.517823
-0.49392
-0.470206
-0.446735
-0.423553
-0.4007
-0.378209
-0.356109
-0.334423
-0.313168
-0.292362
-0.272014
-0.252134
-0.232728
-0.213799
-0.19535
-0.17738
-0.159889
-0.142872
-0.126328
-0.11025
-0.0946343
-0.0794735
-0.0647611
-0.0504901
-0.0366527
-0.0232411
-0.0102472
0.00233732
0.0145208
0.0263119
0.0377189
0.0487505
0.0594151
0.0697213
0.0796772
0.0892913
0.0985717
0.107526
0.116163
0.12449
0.132515
0.140245
0.147687
-0.955528
-0.945514
-0.924639
-0.90489
-0.887718
-0.871147
-0.854224
-0.836717
-0.818457
-0.799287
-0.779143
-0.75806
-0.736126
-0.713456
-0.690174
-0.666405
-0.642271
-0.617888
-0.593361
-0.568783
-0.544241
-0.519808
-0.495551
-0.471526
-0.447783
-0.424363
-0.401302
-0.378631
-0.356374
-0.334551
-0.313179
-0.29227
-0.271835
-0.25188
-0.232411
-0.213428
-0.194934
-0.176927
-0.159404
-0.142363
-0.125799
-0.109706
-0.0940791
-0.0789105
-0.0641934
-0.0499202
-0.0360829
-0.0226734
-0.00968326
0.00289605
0.0150732
0.0268567
0.0382554
0.049278
0.059933
0.070229
0.0801745
0.0897778
0.0990472
0.107991
0.116617
0.124932
0.132946
0.140664
0.148095
-1.04082
-1.00291
-0.962787
-0.933447
-0.91068
-0.890194
-0.870468
-0.85088
-0.830944
-0.810334
-0.78892
-0.766701
-0.743747
-0.720157
-0.696048
-0.671538
-0.646741
-0.621767
-0.596712
-0.571667
-0.54671
-0.521911
-0.497329
-0.473017
-0.44902
-0.425378
-0.402121
-0.379277
-0.356868
-0.334912
-0.313424
-0.292415
-0.271892
-0.25186
-0.232325
-0.213285
-0.194742
-0.176693
-0.159136
-0.142065
-0.125476
-0.109363
-0.093719
-0.0785372
-0.0638099
-0.0495292
-0.0356866
-0.0222739
-0.00928221
0.0032971
0.0154729
0.027254
0.0386493
0.0496676
0.0603176
0.0706081
0.0805475
0.0901444
0.099407
0.108343
0.116962
0.12527
0.133276
0.140987
0.148411
-1.11092
-1.04202
-0.98785
-0.953056
-0.926917
-0.904214
-0.883044
-0.862328
-0.841357
-0.819762
-0.797414
-0.774318
-0.750547
-0.726203
-0.701405
-0.676268
-0.650907
-0.625425
-0.599916
-0.574464
-0.549145
-0.524022
-0.499153
-0.474586
-0.450363
-0.42652
-0.403085
-0.380083
-0.357535
-0.335457
-0.31386
-0.292754
-0.272147
-0.252042
-0.232441
-0.213345
-0.194752
-0.17666
-0.159065
-0.141962
-0.125345
-0.109208
-0.093544
-0.0783452
-0.0636036
-0.049311
-0.0354588
-0.0220383
-0.00904067
0.00354313
0.0157221
0.0275052
0.0389015
0.0499199
0.0605693
0.0708584
0.0807959
0.0903903
0.0996501
0.108583
)
;

boundaryField
{
    inlet
    {
        type            zeroGradient;
    }
    outlet
    {
        type            fixedValue;
        value           nonuniform 0();
    }
    wall
    {
        type            zeroGradient;
    }
    wedge1
    {
        type            wedge;
    }
    wedge2
    {
        type            wedge;
    }
    axis
    {
        type            empty;
    }
    procBoundary15to9
    {
        type            processor;
        value           nonuniform List<scalar> 
70
(
-0.230238
-0.384299
-0.506488
-0.600287
0.122679
0.130755
0.138535
0.146027
-0.668576
-0.715622
-0.746221
-0.764987
-0.775483
-0.779771
-0.779179
-0.774245
-0.765905
-0.754788
-0.741315
-0.72583
-0.70864
-0.690026
-0.670235
-0.649485
-0.627971
-0.605863
-0.583314
-0.56046
-0.537417
-0.51429
-0.491168
-0.46813
-0.445243
-0.422566
-0.400148
-0.378031
-0.356252
-0.33484
-0.313819
-0.29321
-0.273029
-0.253289
-0.233998
-0.215163
-0.19679
-0.17888
-0.161435
-0.144453
-0.127932
-0.111869
-0.0962591
-0.081098
-0.0663794
-0.0520972
-0.0382443
-0.0248137
-0.0117977
0.000811481
0.0130217
0.0248412
0.0362781
0.0473405
0.0580368
0.0683752
0.0783638
0.0880107
0.097324
0.106312
0.114981
0.114981
)
;
    }
    procBoundary15to10
    {
        type            processor;
        value           nonuniform List<scalar> 2(0.153824 0.15437);
    }
    procBoundary15to14
    {
        type            processor;
        value           nonuniform List<scalar> 4(-0.192663 -0.380479 -0.600325 -0.823052);
    }
    procBoundary15to16
    {
        type            processor;
        value           nonuniform List<scalar> 3(0.154849 0.155246 0.155554);
    }
    procBoundary15to20
    {
        type            processor;
        value           uniform -0.999306;
    }
    procBoundary15to21
    {
        type            processor;
        value           nonuniform List<scalar> 
70
(
-1.12383
-1.1127
-1.13114
-1.18682
0.117198
0.125503
0.133505
0.141212
0.148631
-1.17397
-1.06387
-1.0063
-0.968429
-0.939433
-0.915206
-0.893167
-0.871689
-0.849946
-0.827584
-0.804492
-0.780689
-0.756255
-0.731301
-0.705944
-0.680302
-0.654485
-0.628593
-0.602717
-0.576937
-0.551324
-0.525939
-0.500835
-0.47606
-0.45165
-0.42764
-0.404057
-0.380924
-0.358258
-0.336075
-0.314385
-0.293196
-0.272515
-0.252345
-0.232686
-0.213538
-0.1949
-0.176767
-0.159137
-0.142002
-0.125358
-0.109197
-0.0935112
-0.0782938
-0.0635361
-0.0492296
-0.0353654
-0.0219346
-0.00892818
0.00366305
0.0158482
0.0276365
0.0390369
0.0500587
0.0607106
0.0710016
0.0809404
0.0905357
0.0997958
0.117198
0.108729
)
;
    }
}


// ************************************************************************* //
