/*--------------------------------*- C++ -*----------------------------------*\
  =========                 |
  \\      /  F ield         | OpenFOAM: The Open Source CFD Toolbox
   \\    /   O peration     | Website:  https://openfoam.org
    \\  /    A nd           | Version:  7
     \\/     M anipulation  |
\*---------------------------------------------------------------------------*/
FoamFile
{
    version     2.0;
    format      ascii;
    class       volVectorField;
    location    "4";
    object      U;
}
// * * * * * * * * * * * * * * * * * * * * * * * * * * * * * * * * * * * * * //

dimensions      [0 1 -1 0 0 0 0];

internalField   nonuniform List<vector> 
344
(
(1.78702 -0.00513772 4.1039e-15)
(1.78856 -0.00506649 4.77479e-15)
(1.79008 -0.00499691 4.39739e-15)
(1.79158 -0.00492903 4.21172e-15)
(1.79305 -0.00486294 4.78041e-15)
(1.79451 -0.00479872 5.1927e-15)
(1.79595 -0.0047365 5.68021e-15)
(1.79737 -0.00467641 5.03441e-15)
(1.79877 -0.00461862 5.62589e-15)
(1.80015 -0.00456333 5.10264e-15)
(1.80152 -0.00451079 5.70438e-15)
(1.80287 -0.00446129 5.23794e-15)
(1.8042 -0.00441516 5.72065e-15)
(1.80553 -0.00437283 6.02543e-15)
(1.80684 -0.00433476 6.48017e-15)
(1.80814 -0.00430154 5.87562e-15)
(1.80943 -0.00427384 6.43012e-15)
(1.81072 -0.00425246 5.82828e-15)
(1.81199 -0.00423836 6.38546e-15)
(1.81327 -0.00423265 5.94181e-15)
(1.81455 -0.00423665 6.35029e-15)
(1.81583 -0.00425192 6.49013e-15)
(1.81712 -0.00428029 6.8897e-15)
(1.81842 -0.00432392 6.15468e-15)
(1.81974 -0.00438537 6.77133e-15)
(1.82108 -0.00446761 6.32247e-15)
(1.82245 -0.00457419 6.78311e-15)
(1.82386 -0.00470926 6.46344e-15)
(1.82531 -0.00487768 6.14038e-15)
(1.82683 -0.0050852 6.6752e-15)
(1.82842 -0.00533854 6.93562e-15)
(1.83011 -0.00564561 7.26946e-15)
(1.83189 -0.00601566 6.60645e-15)
(1.83381 -0.00645955 7.13978e-15)
(1.83589 -0.00698999 6.65515e-15)
(1.83814 -0.00762181 7.15011e-15)
(1.84062 -0.00837234 6.63496e-15)
(1.84336 -0.00926176 7.08982e-15)
(1.84641 -0.0103135 7.15789e-15)
(1.84983 -0.0115549 7.64237e-15)
(1.85367 -0.0130172 6.94293e-15)
(1.85803 -0.0147368 7.49261e-15)
(1.863 -0.0167552 6.9515e-15)
(1.86867 -0.0191198 7.45536e-15)
(1.87517 -0.0218844 6.7403e-15)
(1.88265 -0.0251093 7.0803e-15)
(1.89127 -0.0288618 7.40717e-15)
(1.90122 -0.0332156 7.69081e-15)
(1.91274 -0.0382505 7.1021e-15)
(1.92608 -0.0440506 7.46901e-15)
(1.94152 -0.0507018 6.96672e-15)
(1.95939 -0.058288 7.3202e-15)
(1.98008 -0.0668851 6.95546e-15)
(2.00398 -0.0765527 6.68416e-15)
(2.03154 -0.0873222 7.08404e-15)
(2.06322 -0.0991834 7.21772e-15)
(2.09952 -0.112064 7.51189e-15)
(2.1409 -0.12581 6.97609e-15)
(2.18779 -0.140158 7.28437e-15)
(2.2405 -0.15473 6.79087e-15)
(2.29922 -0.168968 7.02293e-15)
(2.36386 -0.18223 6.62267e-15)
(2.43405 -0.193646 6.66067e-15)
(2.50899 -0.202393 6.6214e-15)
(2.58746 -0.207541 6.65369e-15)
(2.66775 -0.208367 6.40957e-15)
(1.76255 -0.0057126 2.97648e-15)
(1.76389 -0.00563282 3.06613e-15)
(1.76522 -0.00555491 3.00072e-15)
(1.76652 -0.00547894 3.67313e-15)
(1.76781 -0.00540499 3.6059e-15)
(1.76907 -0.00533318 3.68257e-15)
(1.77032 -0.00526363 3.77549e-15)
(1.77156 -0.0051965 3.66677e-15)
(1.77278 -0.00513198 3.87088e-15)
(1.77398 -0.0050703 3.82963e-15)
(1.77517 -0.00501172 3.97359e-15)
(1.77634 -0.00495658 3.93219e-15)
(1.77751 -0.00490526 4.07786e-15)
(1.77866 -0.00485823 4.16288e-15)
(1.7798 -0.00481602 4.36989e-15)
(1.78093 -0.00477929 4.39737e-15)
(1.78205 -0.0047488 4.48424e-15)
(1.78317 -0.00472547 4.39709e-15)
(1.78429 -0.00471035 4.51272e-15)
(1.7854 -0.00470471 4.55985e-15)
(1.78651 -0.00471005 4.60095e-15)
(1.78763 -0.00472812 4.55551e-15)
(1.78875 -0.004761 4.78269e-15)
(1.78988 -0.00481113 4.78552e-15)
(1.79104 -0.0048814 4.84824e-15)
(1.79221 -0.00497518 4.80495e-15)
(1.79341 -0.00509648 4.98474e-15)
(1.79465 -0.00524999 4.772e-15)
(1.79593 -0.00544124 5.3691e-15)
(1.79726 -0.00567672 5.30458e-15)
(1.79867 -0.00596407 5.26692e-15)
(1.80015 -0.00631224 5.35898e-15)
(1.80173 -0.00673176 5.25834e-15)
(1.80343 -0.00723496 5.32881e-15)
(1.80528 -0.00783629 5.24232e-15)
(1.80729 -0.00855266 5.33685e-15)
(1.8095 -0.00940384 5.27107e-15)
(1.81195 -0.0104129 5.31159e-15)
(1.81469 -0.0116066 5.38894e-15)
(1.81776 -0.0130164 5.47631e-15)
(1.82123 -0.0146783 5.39649e-15)
(1.82516 -0.0166342 5.52983e-15)
(1.82965 -0.0189324 5.38655e-15)
(1.8348 -0.0216282 5.44087e-15)
(1.84071 -0.0247844 5.34956e-15)
(1.84753 -0.0284726 5.30392e-15)
(1.85542 -0.0327728 5.31e-15)
(1.86455 -0.037774 5.44817e-15)
(1.87516 -0.0435735 5.40156e-15)
(1.88748 -0.0502762 5.44596e-15)
(1.90181 -0.0579916 5.4445e-15)
(1.91848 -0.0668304 5.48601e-15)
(1.93788 -0.0768981 5.28246e-15)
(1.96043 -0.0882861 5.70377e-15)
(1.98662 -0.101058 5.53732e-15)
(2.01697 -0.115235 5.49723e-15)
(2.05203 -0.130765 5.49653e-15)
(2.0924 -0.147507 5.36569e-15)
(2.13862 -0.165177 5.30846e-15)
(2.19118 -0.183353 5.20107e-15)
(2.25042 -0.20135 5.11822e-15)
(2.31644 -0.218402 4.98618e-15)
(2.38899 -0.2333 4.90267e-15)
(2.46731 -0.24503 4.77507e-15)
(2.55016 -0.252143 4.70698e-15)
(2.63549 -0.253645 4.59483e-15)
(1.73255 -0.00613254 2.12975e-15)
(1.73368 -0.00604623 2.24172e-15)
(1.73479 -0.00596197 2.1776e-15)
(1.73588 -0.00587985 2.48629e-15)
(1.73696 -0.00579996 2.60171e-15)
(1.73802 -0.00572241 2.70748e-15)
(1.73907 -0.00564735 2.77041e-15)
(1.74011 -0.00557494 2.76738e-15)
(1.74113 -0.00550539 2.86586e-15)
(1.74214 -0.00543896 2.84804e-15)
(1.74313 -0.00537592 2.89759e-15)
(1.74412 -0.00531666 2.98019e-15)
(1.74509 -0.00526157 3.04119e-15)
(1.74606 -0.00521118 3.14586e-15)
(1.74702 -0.00516607 3.25738e-15)
(1.74796 -0.00512695 3.20619e-15)
(1.74891 -0.00509466 3.2865e-15)
(1.74985 -0.0050702 3.25054e-15)
(1.75078 -0.00505473 3.27891e-15)
(1.75171 -0.00504963 3.33407e-15)
(1.75265 -0.00505654 3.31953e-15)
(1.75359 -0.00507739 3.35977e-15)
(1.75453 -0.00511444 3.4034e-15)
(1.75549 -0.00517037 3.472e-15)
(1.75646 -0.00524833 3.45442e-15)
(1.75745 -0.00535205 3.54812e-15)
(1.75847 -0.0054859 3.62058e-15)
(1.75952 -0.00565503 3.56472e-15)
(1.76061 -0.00586549 3.78399e-15)
(1.76175 -0.00612443 3.89043e-15)
(1.76294 -0.00644022 3.91586e-15)
(1.76422 -0.00682272 3.95898e-15)
(1.76557 -0.00728349 3.98227e-15)
(1.76704 -0.00783612 4.0207e-15)
(1.76863 -0.00849654 4.06425e-15)
(1.77037 -0.00928342 4.06048e-15)
(1.77229 -0.0102186 4.03947e-15)
(1.77443 -0.0113276 4.05844e-15)
(1.77681 -0.0126404 4.04138e-15)
(1.7795 -0.0141915 4.1013e-15)
(1.78255 -0.0160216 4.10171e-15)
(1.78601 -0.0181775 4.09161e-15)
(1.78998 -0.0207135 4.05924e-15)
(1.79453 -0.0236922 4.13828e-15)
(1.79978 -0.0271854 4.00382e-15)
(1.80585 -0.031275 3.92706e-15)
(1.8129 -0.0360539 3.95099e-15)
(1.82109 -0.0416264 4.02428e-15)
(1.83064 -0.0481086 4.06386e-15)
(1.84179 -0.0556274 4.00778e-15)
(1.85481 -0.0643189 4.03231e-15)
(1.87006 -0.0743254 4.10936e-15)
(1.8879 -0.0857892 3.99885e-15)
(1.90881 -0.0988438 4.03479e-15)
(1.93328 -0.1136 4.05312e-15)
(1.96191 -0.130125 4.01712e-15)
(1.99534 -0.148417 3.95571e-15)
(2.03427 -0.16837 3.94319e-15)
(2.07943 -0.18971 3.8327e-15)
(2.13152 -0.212004 3.75038e-15)
(2.19109 -0.234435 3.6573e-15)
(2.25856 -0.256152 3.54295e-15)
(2.33383 -0.27544 3.41838e-15)
(2.41633 -0.291207 3.30504e-15)
(2.50481 -0.301008 3.16384e-15)
(2.59675 -0.303688 3.06957e-15)
(1.69646 -0.00638949 1.67193e-15)
(1.69737 -0.00629884 1.67394e-15)
(1.69826 -0.0062104 1.63523e-15)
(1.69913 -0.00612425 2.31675e-15)
(1.69999 -0.00604048 2.23143e-15)
(1.70085 -0.00595921 2.15598e-15)
(1.70168 -0.0058806 2.15119e-15)
(1.70251 -0.00580481 2.20778e-15)
(1.70333 -0.00573208 2.26284e-15)
(1.70414 -0.00566266 2.23826e-15)
(1.70493 -0.00559687 2.2054e-15)
(1.70572 -0.00553509 2.2524e-15)
(1.7065 -0.00547777 2.36505e-15)
(1.70727 -0.00542544 2.35359e-15)
(1.70804 -0.00537874 2.40099e-15)
(1.7088 -0.00533842 2.3765e-15)
(1.70955 -0.00530537 2.5221e-15)
(1.7103 -0.00528065 2.5138e-15)
(1.71105 -0.00526551 2.52065e-15)
(1.7118 -0.00526142 2.54533e-15)
(1.71255 -0.00527011 2.54228e-15)
(1.7133 -0.00529365 2.49463e-15)
(1.71407 -0.00533444 2.55494e-15)
(1.71484 -0.00539536 2.59292e-15)
(1.71562 -0.00547975 2.48866e-15)
(1.71642 -0.00559159 2.55968e-15)
(1.71725 -0.00573555 2.66998e-15)
(1.7181 -0.00591712 2.53824e-15)
(1.71899 -0.00614279 3.11993e-15)
(1.71992 -0.00642017 3.03379e-15)
(1.7209 -0.00675823 3.03141e-15)
(1.72195 -0.00716751 2.99313e-15)
(1.72307 -0.00766042 3.03258e-15)
(1.72428 -0.00825151 3.05587e-15)
(1.72561 -0.0089579 3.03846e-15)
(1.72706 -0.00979964 3.02564e-15)
(1.72867 -0.0108003 3.0307e-15)
(1.73047 -0.0119874 3.03519e-15)
(1.73248 -0.0133933 3.04638e-15)
(1.73476 -0.0150556 3.06015e-15)
(1.73735 -0.0170185 3.01629e-15)
(1.7403 -0.0193331 3.02283e-15)
(1.7437 -0.022059 2.96303e-15)
(1.74761 -0.0252654 2.94564e-15)
(1.75213 -0.029032 2.85479e-15)
(1.75738 -0.0334507 2.86783e-15)
(1.7635 -0.0386265 2.89897e-15)
(1.77064 -0.0446789 2.9093e-15)
(1.779 -0.0517427 2.94574e-15)
(1.78881 -0.0599682 2.88362e-15)
(1.80035 -0.0695205 2.85923e-15)
(1.81393 -0.0805778 2.89606e-15)
(1.82996 -0.0933259 2.65589e-15)
(1.84888 -0.107951 3.12089e-15)
(1.87125 -0.124627 2.95937e-15)
(1.89771 -0.143492 2.91112e-15)
(1.929 -0.164621 2.85302e-15)
(1.96595 -0.187984 2.75921e-15)
(2.00948 -0.213363 2.61526e-15)
(2.06058 -0.240361 2.53503e-15)
(2.1201 -0.268059 2.41828e-15)
(2.18889 -0.295592 2.27633e-15)
(2.26716 -0.320503 2.12574e-15)
(2.35471 -0.341948 1.98474e-15)
(2.45039 -0.355405 1.8036e-15)
(2.55095 -0.360248 1.64875e-15)
(1.65375 -0.00648152 1.43651e-15)
(1.65443 -0.00638886 1.44338e-15)
(1.65509 -0.00629851 1.39441e-15)
(1.65575 -0.00621053 1.68518e-15)
(1.65639 -0.00612504 1.76175e-15)
(1.65703 -0.00604215 1.83741e-15)
(1.65766 -0.00596202 1.79332e-15)
(1.65828 -0.00588484 1.83748e-15)
(1.65889 -0.00581083 1.82572e-15)
(1.65949 -0.00574026 1.81526e-15)
(1.66009 -0.00567347 1.83029e-15)
(1.66068 -0.00561084 1.83972e-15)
(1.66126 -0.00555284 1.8203e-15)
(1.66184 -0.00550004 1.85154e-15)
(1.66241 -0.00545308 1.88942e-15)
(1.66298 -0.00541275 1.89376e-15)
(1.66354 -0.00537999 1.9163e-15)
(1.6641 -0.00535588 1.88768e-15)
(1.66467 -0.00534173 1.91338e-15)
(1.66523 -0.00533906 1.83374e-15)
(1.66579 -0.0053497 1.90397e-15)
(1.66636 -0.00537577 1.87032e-15)
(1.66694 -0.0054198 1.84489e-15)
(1.66752 -0.00548475 1.86889e-15)
(1.66812 -0.00557415 1.86193e-15)
(1.66873 -0.00569211 1.83229e-15)
(1.66936 -0.00584351 1.90515e-15)
(1.67001 -0.00603408 1.75824e-15)
(1.67069 -0.00627058 2.03196e-15)
(1.67141 -0.00656097 2.13885e-15)
(1.67218 -0.00691463 2.20199e-15)
(1.67299 -0.00734256 2.20096e-15)
(1.67388 -0.00785775 2.16361e-15)
(1.67483 -0.00847547 2.17973e-15)
(1.67588 -0.00921364 2.19188e-15)
(1.67704 -0.0100934 2.15347e-15)
(1.67833 -0.0111394 2.11782e-15)
(1.67977 -0.0123809 2.16716e-15)
(1.6814 -0.0138518 2.15192e-15)
(1.68325 -0.0155923 2.11574e-15)
(1.68535 -0.0176491 2.08303e-15)
(1.68777 -0.0200769 2.0583e-15)
(1.69056 -0.0229397 2.02748e-15)
(1.69379 -0.0263121 2.0082e-15)
(1.69753 -0.0302807 1.97318e-15)
(1.7019 -0.0349461 1.97422e-15)
(1.70701 -0.0404244 1.92148e-15)
(1.71301 -0.0468493 1.95629e-15)
(1.72007 -0.0543739 1.92421e-15)
(1.72841 -0.063172 1.86634e-15)
(1.73827 -0.0734389 1.84627e-15)
(1.74997 -0.0853914 1.82218e-15)
(1.76389 -0.0992652 1.70017e-15)
(1.7805 -0.11531 1.85951e-15)
(1.80034 -0.133776 1.8272e-15)
(1.82412 -0.154902 1.82057e-15)
(1.85264 -0.178873 1.77637e-15)
(1.8869 -0.205787 1.69794e-15)
(1.92802 -0.235551 1.59779e-15)
(1.97732 -0.26788 1.46573e-15)
(2.77066 -0.163546 7.34544e-15)
(2.84561 -0.15684 7.16457e-15)
(2.91633 -0.146956 6.93222e-15)
(2.98127 -0.134671 6.84569e-15)
(2.74841 -0.204462 6.19567e-15)
(2.82711 -0.195644 5.93125e-15)
(2.9009 -0.18256 5.82637e-15)
(2.9679 -0.166409 5.64215e-15)
(2.7215 -0.248868 4.46669e-15)
(2.80527 -0.237398 4.23418e-15)
(2.88305 -0.220257 4.04541e-15)
(2.95255 -0.199354 3.96346e-15)
(2.69001 -0.297999 2.75306e-15)
(2.78067 -0.283007 2.718e-15)
(2.86357 -0.26051 2.55948e-15)
(2.93588 -0.233611 2.42117e-15)
(2.65428 -0.353597 1.43273e-15)
(2.75445 -0.333554 1.20561e-15)
(2.8437 -0.303683 1.02575e-15)
(2.91863 -0.269048 8.98774e-16)
)
;

boundaryField
{
    inlet
    {
        type            uniformFixedValue;
        uniformValue    constant (1 0 0);
        value           nonuniform 0();
    }
    outlet
    {
        type            pressureInletOutletVelocity;
        value           nonuniform 0();
    }
    wall
    {
        type            fixedValue;
        value           nonuniform 0();
    }
    wedge1
    {
        type            wedge;
    }
    wedge2
    {
        type            wedge;
    }
    axis
    {
        type            empty;
    }
    procBoundary8to2
    {
        type            processor;
        value           nonuniform List<vector> 
71
(
(1.80647 -0.00442184 4.79165e-15)
(1.80819 -0.00436095 4.99107e-15)
(1.80988 -0.00430144 5.1615e-15)
(1.81155 -0.00424337 4.89547e-15)
(1.8132 -0.00418681 4.94755e-15)
(1.81482 -0.00413183 5.09592e-15)
(1.81642 -0.00407853 5.42081e-15)
(1.81801 -0.00402704 5.46671e-15)
(1.81957 -0.0039775 5.69655e-15)
(1.82111 -0.00393008 5.63839e-15)
(1.82264 -0.00388498 5.70785e-15)
(1.82414 -0.00384246 5.70279e-15)
(1.82563 -0.0038028 5.85387e-15)
(1.82711 -0.00376636 6.12266e-15)
(1.82857 -0.00373354 6.36825e-15)
(1.83002 -0.00370484 6.4754e-15)
(1.83146 -0.00368082 6.58285e-15)
(1.8329 -0.00366217 6.54556e-15)
(1.83432 -0.0036497 6.67471e-15)
(1.83575 -0.00364435 6.63013e-15)
(1.83717 -0.00364725 6.63859e-15)
(1.8386 -0.00365972 6.78257e-15)
(1.84003 -0.00368331 6.90526e-15)
(1.84148 -0.00371986 6.82257e-15)
(1.84294 -0.00377153 6.90566e-15)
(1.84443 -0.00384087 6.97542e-15)
(1.84595 -0.00393086 7.00013e-15)
(1.84752 -0.00404503 7.13399e-15)
(1.84913 -0.0041875 6.90189e-15)
(1.85081 -0.00436313 6.87528e-15)
(1.85257 -0.00457764 6.96586e-15)
(1.85442 -0.00483769 7.021e-15)
(1.85639 -0.00515113 7.05987e-15)
(1.8585 -0.00552713 7.17743e-15)
(1.86078 -0.0059764 7.14186e-15)
(1.86325 -0.00651148 7.26781e-15)
(1.86596 -0.00714695 7.32076e-15)
(1.86895 -0.00789979 7.43441e-15)
(1.87228 -0.00878969 7.44945e-15)
(1.87599 -0.00983944 7.66664e-15)
(1.88017 -0.0110753 7.51694e-15)
(1.8849 -0.0125275 7.73128e-15)
(1.89026 -0.0142305 7.61848e-15)
(1.89638 -0.0162235 7.71431e-15)
(1.90339 -0.0185506 7.54723e-15)
(1.91143 -0.0212611 7.54079e-15)
(1.92067 -0.0244095 7.68037e-15)
(1.93133 -0.028055 7.84717e-15)
(1.94361 -0.0322606 7.75335e-15)
(1.95779 -0.0370919 7.80532e-15)
(1.97414 -0.0426142 7.77943e-15)
(1.993 -0.0488892 7.71501e-15)
(2.01473 -0.0559697 7.75628e-15)
(2.0397 -0.0638922 7.51099e-15)
(2.06833 -0.0726678 7.46709e-15)
(2.10104 -0.0822706 7.51384e-15)
(2.13824 -0.0926226 7.61441e-15)
(2.18033 -0.103581 7.50744e-15)
(2.22761 -0.114915 7.66419e-15)
(2.2803 -0.126307 7.54242e-15)
(2.33845 -0.137321 7.60167e-15)
(2.40187 -0.147443 7.47966e-15)
(2.47011 -0.156047 7.43829e-15)
(2.54236 -0.162508 7.38873e-15)
(2.61748 -0.166205 7.45262e-15)
(2.69397 -0.16664 7.25199e-15)
(2.69397 -0.16664 7.25199e-15)
(2.78828 -0.125218 7.84465e-15)
(2.86048 -0.120273 7.57792e-15)
(2.92893 -0.113026 7.22978e-15)
(2.99226 -0.103983 7.13065e-15)
)
;
    }
    procBoundary8to3
    {
        type            processor;
        value           uniform (3.03943 -0.120906 6.63761e-15);
    }
    procBoundary8to7
    {
        type            processor;
        value           nonuniform List<vector> 5((1.78546 -0.00521054 4.54058e-15) (1.76119 -0.0057942 2.90506e-15) (1.7314 -0.00622087 2.05306e-15) (1.69555 -0.00648228 1.61835e-15) (1.65307 -0.00657643 1.4848e-15));
    }
    procBoundary8to9
    {
        type            processor;
        value           nonuniform List<vector> 4((3.0271 -0.148529 5.46798e-15) (3.01283 -0.1766 3.84549e-15) (2.997 -0.204978 2.2891e-15) (2.97957 -0.23318 7.88193e-16));
    }
    procBoundary8to14
    {
        type            processor;
        value           nonuniform List<vector> 
71
(
(2.03609 -0.301831 1.32902e-15)
(2.10577 -0.336645 1.14204e-15)
(2.18706 -0.368857 9.63284e-16)
(2.28063 -0.398585 7.65752e-16)
(2.38539 -0.416951 5.40526e-16)
(2.49733 -0.426241 3.40893e-16)
(1.60389 -0.00641292 1.31488e-15)
(1.60434 -0.00632058 1.27882e-15)
(1.60479 -0.00623058 1.20126e-15)
(1.60523 -0.00614301 1.77935e-15)
(1.60566 -0.00605796 1.67937e-15)
(1.60609 -0.00597555 1.61616e-15)
(1.60651 -0.00589594 1.56112e-15)
(1.60693 -0.00581933 1.53569e-15)
(1.60734 -0.00574594 1.52572e-15)
(1.60774 -0.00567604 1.54363e-15)
(1.60814 -0.00560998 1.51849e-15)
(1.60854 -0.00554815 1.47366e-15)
(1.60893 -0.00549102 1.45188e-15)
(1.60931 -0.00543917 1.43685e-15)
(1.6097 -0.00539325 1.46333e-15)
(1.61008 -0.00535408 1.40169e-15)
(1.61046 -0.00532259 1.4006e-15)
(1.61084 -0.00529991 1.37334e-15)
(1.61122 -0.00528734 1.36573e-15)
(1.6116 -0.00528646 1.37123e-15)
(1.61199 -0.00529911 1.33358e-15)
(1.61237 -0.00532747 1.32227e-15)
(1.61277 -0.0053741 1.25292e-15)
(1.61317 -0.00544204 1.2782e-15)
(1.61358 -0.00553486 1.22243e-15)
(1.614 -0.00565677 1.22274e-15)
(1.61444 -0.00581275 1.24812e-15)
(1.6149 -0.00600865 1.13108e-15)
(1.61538 -0.00625137 1.63486e-15)
(1.61589 -0.00654903 1.60121e-15)
(1.61644 -0.00691123 1.54381e-15)
(1.61703 -0.00734925 1.52409e-15)
(1.61767 -0.00787636 1.449e-15)
(1.61837 -0.00850823 1.40393e-15)
(1.61914 -0.00926326 1.39622e-15)
(1.62 -0.0101631 1.41261e-15)
(1.62097 -0.0112334 1.43162e-15)
(1.62205 -0.012504 1.35365e-15)
(1.62329 -0.0140103 1.36924e-15)
(1.6247 -0.0157937 1.30371e-15)
(1.62631 -0.0179029 1.26581e-15)
(1.62818 -0.0203952 1.26569e-15)
(1.63034 -0.0233377 1.21361e-15)
(1.63285 -0.0268089 1.18164e-15)
(1.63579 -0.0309011 1.16546e-15)
(1.63923 -0.0357217 1.10147e-15)
(1.64328 -0.0413965 1.11963e-15)
(1.64807 -0.0480716 1.10034e-15)
(1.65373 -0.0559165 1.06008e-15)
(1.66047 -0.0651272 1.00514e-15)
(1.6685 -0.0759289 9.46352e-16)
(1.67811 -0.0885778 8.90068e-16)
(1.68966 -0.103363 7.53699e-16)
(1.70359 -0.120604 1.18213e-15)
(1.72046 -0.140647 1.04101e-15)
(1.74097 -0.163848 9.56791e-16)
(1.766 -0.19055 8.27583e-16)
(1.79667 -0.221038 7.41262e-16)
(1.83435 -0.255441 6.26031e-16)
(2.03609 -0.301831 1.32902e-15)
(1.88067 -0.293696 4.66654e-16)
(2.61538 -0.418333 1.10492e-17)
(2.72867 -0.390207 -1.30803e-16)
(2.82473 -0.349621 -3.16624e-16)
(2.90034 -0.304679 -4.5647e-16)
)
;
    }
}


// ************************************************************************* //
