/*--------------------------------*- C++ -*----------------------------------*\
  =========                 |
  \\      /  F ield         | OpenFOAM: The Open Source CFD Toolbox
   \\    /   O peration     | Website:  https://openfoam.org
    \\  /    A nd           | Version:  7
     \\/     M anipulation  |
\*---------------------------------------------------------------------------*/
FoamFile
{
    version     2.0;
    format      ascii;
    class       surfaceScalarField;
    location    "10";
    object      phi;
}
// * * * * * * * * * * * * * * * * * * * * * * * * * * * * * * * * * * * * * //

dimensions      [0 3 -1 0 0 0 0];

internalField   nonuniform List<scalar> 
828
(
0.0136275
0.000691501
0.0136476
0.000653424
0.0136616
0.000610087
0.0136695
0.000561568
0.0136712
0.000508
0.0136666
0.000449515
0.0136557
0.000386291
0.0136385
0.000318561
0.0136153
0.00024661
0.0135862
0.000170763
0.0135514
9.13729e-05
0.0135114
8.83189e-06
0.0134663
-7.64787e-05
0.0134167
-0.000164136
0.0133629
-0.00025375
0.0133055
-0.000344937
-0.000437334
0.0139309
0.000714664
0.0139646
0.000690818
0.0139935
0.000662604
0.0140173
0.000629639
0.0140357
0.000591677
0.0140485
0.000548737
0.0140556
0.000500901
0.0140569
0.000448256
0.0140522
0.000390926
0.0140417
0.000329088
0.0140253
0.00026297
0.0140033
0.000192838
0.0139756
0.000118996
0.0139427
4.17739e-05
0.0139047
-3.84787e-05
0.0138619
-0.000121395
0.0138148
-0.000206609
0.0137636
-0.000293762
-0.000382506
0.0143018
0.000675611
0.0143369
0.00065566
0.0143679
0.000631647
0.0143943
0.000603203
0.0144159
0.000570053
0.0144325
0.000532166
0.0144438
0.000489576
0.0144498
0.000442328
0.0144502
0.000390497
0.0144451
0.00033421
0.0144344
0.000273642
0.0144182
0.000209009
0.0143967
0.000140561
0.0143699
6.85808e-05
0.014338
-6.62568e-06
0.0143014
-8.47356e-05
0.0142602
-0.000165416
0.0142147
-0.000248333
-0.000333155
0.0146849
0.000636294
0.0147208
0.0006197
0.0147531
0.000599357
0.0147814
0.000574907
0.0148054
0.000546061
0.0148248
0.000512743
0.0148395
0.000474948
0.0148491
0.000432679
0.0148537
0.000385969
0.014853
0.000334898
0.014847
0.000279595
0.0148358
0.000220226
0.0148194
0.000156993
0.0147978
9.01342e-05
0.0147713
1.9911e-05
0.0147399
-5.33925e-05
0.014704
-0.000129478
0.0146637
-0.000208039
-0.000288764
0.0150815
0.000597101
0.0151178
0.000583395
0.0151509
0.000566252
0.0151805
0.000545326
0.0152062
0.000520322
0.0152278
0.000491133
0.0152451
0.000457713
0.0152577
0.000420031
0.0152656
0.000378083
0.0152686
0.000331907
0.0152666
0.000281587
0.0152596
0.000227245
0.0152476
0.00016904
0.0152305
0.000107163
0.0152086
4.18351e-05
0.0151819
-2.66974e-05
0.0151506
-9.81704e-05
0.0151149
-0.000172306
-0.000248815
0.0154927
0.000558297
0.015529
0.000547067
0.0155626
0.000532706
0.015593
0.000514884
0.01562
0.000493305
0.0156433
0.000467834
0.0156627
0.000438398
0.0156778
0.000404935
0.0156884
0.000367407
0.0156945
0.000325816
0.0156959
0.000280205
0.0156925
0.000230656
0.0156842
0.000177284
0.0156712
0.000120242
0.0156533
5.97084e-05
0.0156307
-4.10839e-06
0.0156035
-7.09762e-05
0.0155719
-0.000140649
-0.000212858
0.0159195
0.000520064
0.0159556
0.000510949
0.0159893
0.000498999
0.0160203
0.000483902
0.0160482
0.000465364
0.0160728
0.000443234
0.0160938
0.000417415
0.0161109
0.00038782
0.016124
0.000354384
0.0161327
0.000317077
0.016137
0.000275906
0.0161367
0.000230915
0.0161318
0.000182182
0.0161223
0.000129819
0.016108
7.39678e-05
0.0160891
1.47979e-05
0.0160656
-4.74888e-05
0.0160376
-0.000112679
-0.000180527
0.0163628
0.000482527
0.0163986
0.000475211
0.0164322
0.000465343
0.0164635
0.000452627
0.0164921
0.000436781
0.0165177
0.000417642
0.01654
0.000395095
0.0165588
0.000369035
0.0165738
0.000339373
0.0165848
0.000306055
0.0165917
0.000269056
0.0165942
0.000228387
0.0165923
0.000184092
0.0165859
0.000136246
0.0165749
8.4954e-05
0.0165593
3.03516e-05
0.0165392
-2.73954e-05
0.0165147
-8.8099e-05
-0.000151544
0.0168238
0.000445773
0.016859
0.000439978
0.0168925
0.000431896
0.0169239
0.000421254
0.0169529
0.00040778
0.0169792
0.000391307
0.0170026
0.000371708
0.0170228
0.000348865
0.0170395
0.000322674
0.0170525
0.000293056
0.0170615
0.000259963
0.0170666
0.000223379
0.0170673
0.000183314
0.0170638
0.000139812
0.0170558
9.29448e-05
0.0170433
4.28142e-05
0.0170264
-1.04496e-05
0.0170049
-6.66776e-05
-0.000125691
0.0173035
0.000409855
0.0173382
0.000405337
0.0173713
0.000398781
0.0174026
0.000389935
0.0174318
0.000378543
0.0174587
0.000364436
0.0174829
0.000347484
0.0175042
0.000327557
0.0175224
0.000304542
0.0175371
0.000278344
0.0175481
0.000248895
0.0175554
0.000216153
0.0175586
0.000180106
0.0175576
0.000140766
0.0175524
9.81777e-05
0.0175428
5.24114e-05
0.0175288
3.55162e-06
0.0175103
-4.82233e-05
-0.000102799
0.0178032
0.000374802
0.0178372
0.000371346
0.0178699
0.000366084
0.017901
0.000358785
0.0179304
0.000349211
0.0179576
0.000337198
0.0179825
0.00032261
0.0180047
0.000305318
0.018024
0.0002852
0.0180402
0.000262151
0.018053
0.000236087
0.0180623
0.000206949
0.0180677
0.000174702
0.0180691
0.000139336
0.0180664
0.000100866
0.0180595
5.93364e-05
0.0180482
1.48144e-05
0.0180326
-3.25753e-05
-8.27162e-05
0.0183241
0.000340615
0.0183574
0.000338034
0.0183897
0.000333861
0.0184206
0.000327888
0.0184499
0.000319895
0.0184773
0.000309725
0.0185027
0.000297245
0.0185257
0.000282325
0.0185461
0.00026484
0.0185635
0.00024468
0.0185779
0.000221752
0.0185888
0.000195982
0.0185962
0.000167318
0.0185998
0.00013573
0.0185995
0.000101214
0.018595
6.3788e-05
0.0185863
2.34988e-05
0.0185733
-1.95661e-05
-6.5298e-05
0.0188678
0.000307276
0.0189004
0.000305405
0.0189321
0.000302141
0.0189627
0.000297298
0.0189919
0.000290674
0.0190195
0.000282121
0.0190453
0.000271513
0.0190689
0.000258722
0.0190901
0.000243625
0.0191087
0.00022611
0.0191243
0.000206078
0.0191369
0.000183447
0.019146
0.000158152
0.0191516
0.00013015
0.0191534
9.94163e-05
0.0191512
6.59519e-05
0.019145
2.97822e-05
0.0191344
-9.03436e-06
-5.03962e-05
0.0194357
0.000274743
0.0194676
0.000273441
0.0194988
0.000270928
0.0195291
0.000267039
0.0195582
0.000261595
0.0195858
0.000254458
0.0196118
0.000245508
0.0196359
0.000234625
0.0196579
0.000221691
0.0196774
0.000206593
0.0196942
0.000189232
0.0197082
0.000169521
0.0197189
0.000147389
0.0197263
0.000122781
0.0197301
9.566e-05
0.01973
6.60116e-05
0.0197259
3.38443e-05
0.0197177
-8.15256e-07
-3.78535e-05
0.0200295
0.000242954
0.0200608
0.000242096
0.0200916
0.000240197
0.0201215
0.000237112
0.0201504
0.00023268
0.0201781
0.000226779
0.0202043
0.000219297
0.0202288
0.000210122
0.0202514
0.000199142
0.0202717
0.000186252
0.0202896
0.000171354
0.0203047
0.00015436
0.0203169
0.000135195
0.0203259
0.000113798
0.0203314
9.01235e-05
0.0203333
6.41462e-05
0.0203313
3.58608e-05
0.0203252
5.27542e-06
-2.75074e-05
0.0206511
0.000211826
0.0206819
0.000211306
0.0207121
0.000209901
0.0207418
0.000207486
0.0207705
0.000203921
0.0207982
0.000199097
0.0208246
0.000192913
0.0208495
0.000185268
0.0208725
0.000176059
0.0208936
0.000165188
0.0209124
0.000152562
0.0209287
0.000138097
0.0209421
0.000121718
0.0209526
0.000103361
0.0209597
8.29764e-05
0.0209633
6.05313e-05
0.0209632
3.60105e-05
0.020959
9.41758e-06
-1.91809e-05
0.0213024
0.000181253
0.0213327
0.000180979
0.0213626
0.000179965
0.021392
0.000178106
0.0214207
0.000175282
0.0214484
0.000171397
0.0214749
0.000166364
0.0215001
0.000160092
0.0215237
0.000152491
0.0215454
0.000143472
0.021565
0.000132949
0.0215822
0.000120845
0.0215969
0.000107088
0.0216086
9.16158e-05
0.0216172
7.43785e-05
0.0216224
5.53386e-05
0.0216239
3.44756e-05
0.0216216
1.17866e-05
-1.26846e-05
0.0219856
0.000151104
0.0220156
0.000150999
0.0220453
0.000150289
0.0220745
0.000148888
0.0221031
0.000146696
0.0221309
0.000143634
0.0221576
0.000139625
0.0221831
0.000134593
0.0222071
0.00012846
0.0222295
0.000121147
0.0222498
0.000112581
0.022268
0.000102692
0.0222837
9.14153e-05
0.0222966
7.86933e-05
0.0223065
6.4478e-05
0.0223131
4.87323e-05
0.0223161
3.14329e-05
0.0223153
1.25725e-05
-7.82111e-06
0.0227033
0.000121222
0.0227331
0.000121221
0.0227626
0.000120742
0.0227918
0.000119718
0.0228204
0.00011807
0.0228483
0.000115732
0.0228753
0.000112642
0.0229012
0.000108739
0.0229257
0.000103956
0.0229486
9.82313e-05
0.0229697
9.15009e-05
0.0229886
8.37061e-05
0.0230053
7.47918e-05
0.0230193
6.47083e-05
0.0230303
5.34126e-05
0.0230382
4.08707e-05
0.0230426
2.706e-05
0.0230432
1.19707e-05
-4.38122e-06
0.0234581
9.142e-05
0.0234878
9.14686e-05
0.0235174
9.11622e-05
0.0235467
9.04504e-05
0.0235755
8.92737e-05
0.0236036
8.75822e-05
0.0236309
8.5329e-05
0.0236572
8.2466e-05
0.0236822
7.89437e-05
0.0237057
7.47123e-05
0.0237275
6.97232e-05
0.0237473
6.39301e-05
0.0237648
5.72893e-05
0.0237798
4.97608e-05
0.0237919
4.131e-05
0.0238008
3.19085e-05
0.0238063
2.15365e-05
0.0238081
1.01844e-05
-2.14043e-06
0.0242531
6.1471e-05
0.0242831
6.15288e-05
0.0243129
6.13496e-05
0.0243424
6.09006e-05
0.0243716
6.01422e-05
0.0244001
5.90403e-05
0.0244279
5.75633e-05
0.0244547
5.56786e-05
0.0244803
5.33523e-05
0.0245044
5.05503e-05
0.0245269
4.72392e-05
0.0245474
4.33869e-05
0.0245658
3.89631e-05
0.0245816
3.39396e-05
0.0245946
2.8292e-05
0.0246045
2.19998e-05
0.024611
1.50484e-05
0.0246138
7.43006e-06
-8.53483e-07
0.025092
3.11078e-05
0.0251224
3.11422e-05
0.0251527
3.10584e-05
0.0251828
3.08396e-05
0.0252125
3.04657e-05
0.0252416
2.99192e-05
0.02527
2.9184e-05
0.0252974
2.82432e-05
0.0253237
2.70797e-05
0.0253485
2.56758e-05
0.0253718
2.40146e-05
0.0253931
2.20793e-05
0.0254122
1.98544e-05
0.0254288
1.73251e-05
0.0254426
1.44788e-05
0.0254533
1.13046e-05
0.0254606
7.79469e-06
0.025464
3.94483e-06
-2.45805e-07
0.0259791
0.0260102
0.0260413
0.0260721
0.0261026
0.0261325
0.0261617
0.02619
0.026217
0.0262427
0.0262667
0.0262888
0.0263087
0.026326
0.0263405
0.0263518
0.0263596
0.0263635
)
;

boundaryField
{
    inlet
    {
        type            calculated;
        value           nonuniform 0();
    }
    outlet
    {
        type            calculated;
        value           nonuniform 0();
    }
    cylinder
    {
        type            calculated;
        value           nonuniform 0();
    }
    top
    {
        type            symmetryPlane;
        value           uniform 0;
    }
    bottom
    {
        type            symmetryPlane;
        value           nonuniform 0();
    }
    defaultFaces
    {
        type            empty;
        value           nonuniform 0();
    }
    procBoundary34to28
    {
        type            processor;
        value           nonuniform List<scalar> 
20
(
-0.000717322
-0.00067347
-0.00062414
-0.000569478
-0.000509665
-0.000444883
-0.000375369
-0.000301421
-0.000223387
-0.000141652
-5.66302e-05
3.12432e-05
0.00012152
0.000213752
0.000307516
0.00040241
0.000498064
-0.000752874
-0.0136017
-0.000724522
)
;
    }
    procBoundary34to29
    {
        type            processor;
        value           nonuniform List<scalar> 3(0.0132447 0.0137088 0.0141654);
    }
    procBoundary34to33
    {
        type            processor;
        value           nonuniform List<scalar> 
22
(
-0.0138927
-0.0142627
-0.0146456
-0.0150423
-0.0154539
-0.0158813
-0.0163253
-0.0167871
-0.0172676
-0.0177681
-0.0182899
-0.0188344
-0.0194031
-0.0199977
-0.0206199
-0.0212718
-0.0219555
-0.0226734
-0.0234283
-0.0242232
-0.0250617
-0.025948
)
;
    }
    procBoundary34to35
    {
        type            processor;
        value           nonuniform List<scalar> 
20
(
0.0146193
0.0150749
0.0155359
0.0160053
0.0164857
0.0169791
0.0174874
0.0180125
0.0185559
0.0191195
0.0197052
0.0203149
0.0209507
0.0216151
0.0223105
0.0230397
0.0238059
0.0246125
0.0254634
0.0263633
)
;
    }
}


// ************************************************************************* //
