/*--------------------------------*- C++ -*----------------------------------*\
  =========                 |
  \\      /  F ield         | OpenFOAM: The Open Source CFD Toolbox
   \\    /   O peration     | Website:  https://openfoam.org
    \\  /    A nd           | Version:  7
     \\/     M anipulation  |
\*---------------------------------------------------------------------------*/
FoamFile
{
    version     2.0;
    format      ascii;
    class       volScalarField;
    location    "8";
    object      p;
}
// * * * * * * * * * * * * * * * * * * * * * * * * * * * * * * * * * * * * * //

dimensions      [0 2 -2 0 0 0 0];

internalField   nonuniform List<scalar> 
433
(
0.173989
0.17763
0.125016
0.12916
0.133523
0.138044
0.142658
0.147295
0.0740425
0.0782816
0.0828815
0.0877963
0.0929724
0.09835
0.103865
0.109449
0.115033
0.120548
0.0223234
0.0263208
0.0307787
0.0356707
0.0409615
0.0466071
0.0525559
0.0587496
0.0651246
0.0716141
0.0781497
0.0846637
0.0910921
-0.0290912
-0.0255575
-0.021516
-0.0169713
-0.011937
-0.00643648
-0.000502068
0.00582473
0.0124942
0.0194493
0.0266272
0.033961
0.0413815
0.0488191
0.0562066
0.0634822
0.0705941
-0.0819414
-0.0794453
-0.0764686
-0.072989
-0.0689908
-0.0644666
-0.0594174
-0.0538534
-0.0477945
-0.0412702
-0.0343191
-0.026989
-0.0193354
-0.0114202
-0.00331082
0.00492224
0.013207
0.0214722
0.0296502
0.0376813
0.0455083
0.0530472
-0.130318
-0.128293
-0.125848
-0.122949
-0.119564
-0.115669
-0.111244
-0.106279
-0.100771
-0.094728
-0.0881653
-0.0811093
-0.073596
-0.0656704
-0.0573863
-0.0488046
-0.0399927
-0.0310221
-0.021967
-0.0129023
-0.00390061
0.00497142
0.0136477
0.0220356
0.030069
0.0380963
-0.17715
-0.175457
-0.173429
-0.171025
-0.168204
-0.164929
-0.161167
-0.156891
-0.152079
-0.146717
-0.1408
-0.13433
-0.12732
-0.119794
-0.111783
-0.103331
-0.094487
-0.0853122
-0.0758728
-0.0662405
-0.0564909
-0.0467015
-0.0369489
-0.0273048
-0.0178422
-0.00865866
0.000176321
0.00898109
0.0182714
0.024389
-0.222492
-0.220953
-0.219174
-0.21711
-0.214719
-0.211957
-0.208784
-0.205162
-0.201055
-0.196434
-0.191275
-0.185562
-0.179284
-0.172442
-0.165044
-0.15711
-0.148669
-0.139759
-0.130428
-0.120735
-0.110744
-0.100526
-0.0901566
-0.0797153
-0.0692808
-0.0589285
-0.0487356
-0.0388025
-0.0292008
-0.01964
-0.00967875
-0.00283755
-0.2649
-0.263183
-0.261275
-0.259135
-0.256718
-0.253983
-0.250887
-0.247387
-0.243446
-0.239027
-0.234098
-0.228634
-0.222613
-0.216025
-0.208865
-0.201139
-0.19286
-0.184055
-0.174758
-0.165014
-0.154877
-0.144411
-0.133683
-0.12277
-0.111751
-0.100704
-0.0897081
-0.0788428
-0.0682097
-0.0578823
-0.0475977
-0.0369743
-0.0293552
-0.307433
-0.305608
-0.303674
-0.301596
-0.299336
-0.296851
-0.294101
-0.291043
-0.287635
-0.283836
-0.279605
-0.274906
-0.269706
-0.263976
-0.257694
-0.250845
-0.243421
-0.235424
-0.226863
-0.217761
-0.208148
-0.198064
-0.18756
-0.176695
-0.165537
-0.154156
-0.142634
-0.131048
-0.119477
-0.108003
-0.0967275
-0.0857258
-0.0747634
-0.0635056
-0.0550902
-0.348618
-0.346567
-0.344461
-0.34228
-0.339996
-0.337575
-0.334979
-0.33217
-0.329107
-0.325748
-0.322053
-0.317979
-0.313488
-0.308541
-0.303105
-0.29715
-0.29065
-0.283588
-0.275953
-0.267742
-0.258962
-0.249629
-0.239769
-0.229418
-0.218623
-0.207438
-0.195927
-0.18416
-0.172212
-0.160164
-0.148092
-0.136079
-0.124226
-0.112612
-0.101032
-0.0891799
-0.0799474
-0.388714
-0.386105
-0.383702
-0.381313
-0.378869
-0.376351
-0.373735
-0.37099
-0.368079
-0.364965
-0.36161
-0.357973
-0.354015
-0.349693
-0.344971
-0.339808
-0.334171
-0.328029
-0.321354
-0.314126
-0.30633
-0.297961
-0.289021
-0.279522
-0.269484
-0.258938
-0.247927
-0.2365
-0.224717
-0.212643
-0.200352
-0.18792
-0.175426
-0.16295
-0.150592
-0.138437
-0.126316
-0.113911
-0.103787
-0.424702
-0.421688
-0.41874
-0.416018
-0.413313
-0.410551
-0.407717
-0.404792
-0.401743
-0.398538
-0.395141
-0.391516
-0.387624
-0.383427
-0.378884
-0.373958
-0.36861
-0.362806
-0.356513
-0.349703
-0.342353
-0.334447
-0.325973
-0.316931
-0.307327
-0.297177
-0.286508
-0.275356
-0.263764
-0.251788
-0.23949
-0.226938
-0.214206
-0.201371
-0.188513
-0.175729
-0.163104
-0.150499
-0.137635
-0.126748
-0.43943
-0.436305
-0.433092
-0.429763
-0.426286
-0.422629
-0.418758
-0.414635
-0.410223
-0.405485
-0.400383
-0.39488
-0.388941
-0.382533
-0.375626
-0.368196
-0.360224
-0.351695
-0.342606
-0.332956
-0.322759
-0.312035
-0.300813
-0.289133
-0.277044
-0.264603
-0.251874
-0.238928
-0.225838
-0.212685
-0.199562
-0.186554
-0.173546
-0.160365
-0.149157
-0.418578
-0.412534
-0.406043
-0.399076
-0.391605
-0.38361
-0.375074
-0.365987
-0.356349
-0.346165
-0.33545
-0.324228
-0.312533
-0.300409
-0.287905
-0.275082
-0.262005
-0.248745
-0.235378
-0.221996
-0.20868
-0.195337
-0.181842
-0.170142
-0.367351
-0.356706
-0.345551
-0.333912
-0.321825
-0.309337
-0.296501
-0.283376
-0.27003
-0.256535
-0.242978
-0.229437
-0.215843
-0.2021
-0.189899
-0.262467
-0.248788
-0.23503
-0.221125
-0.208485
0.0133858
-0.00849389
-0.0296834
-0.0501967
0.0151785
-0.00985996
-0.0340749
-0.0574883
-0.0800778
-0.101792
-0.122465
-0.142326
)
;

boundaryField
{
    inlet
    {
        type            zeroGradient;
    }
    outlet
    {
        type            fixedValue;
        value           nonuniform 0();
    }
    cylinder
    {
        type            zeroGradient;
    }
    top
    {
        type            symmetryPlane;
    }
    bottom
    {
        type            symmetryPlane;
    }
    defaultFaces
    {
        type            empty;
    }
    procBoundary7to1
    {
        type            processor;
        value           nonuniform List<scalar> 
13
(
-0.161155
-0.17885
-0.195469
0.0074458
-0.0115746
-0.0299673
-0.0477598
-0.0700215
-0.0700215
-0.0891364
-0.107493
-0.124826
-0.161155
)
;
    }
    procBoundary7to6
    {
        type            processor;
        value           nonuniform List<scalar> 
24
(
0.214122
0.216867
0.181326
0.181326
0.185009
0.151885
0.151885
0.156355
0.125927
0.125927
0.0973774
0.0973774
0.103474
0.0774968
0.0774968
0.0841221
0.0602379
0.0602379
0.0674654
0.0467345
0.0467345
0.0522438
0.0357855
0.04102
)
;
    }
    procBoundary7to8
    {
        type            processor;
        value           nonuniform List<scalar> 
24
(
-0.427029
-0.420034
-0.412558
-0.404579
-0.396078
-0.387043
-0.377466
-0.377466
-0.386303
-0.375784
-0.364756
-0.353238
-0.341261
-0.328863
-0.316091
-0.303001
-0.289653
-0.276114
-0.276114
-0.280435
-0.266702
-0.252866
-0.238881
-0.225877
)
;
    }
    procBoundary7to13
    {
        type            processor;
        value           nonuniform List<scalar> 
38
(
0.167119
0.170465
0.170465
0.117596
0.121145
0.121145
0.0667905
0.0702025
0.0702025
0.0157691
0.0188036
0.0188036
-0.036728
-0.0346605
-0.0321215
-0.0321215
-0.0856111
-0.0839856
-0.0839856
-0.133268
-0.131962
-0.131962
-0.179706
-0.178552
-0.178552
-0.223832
-0.223832
-0.267919
-0.266466
-0.266466
-0.310874
-0.309181
-0.309181
-0.352923
-0.35068
-0.35068
-0.391386
-0.391386
)
;
    }
    procBoundary7to14
    {
        type            processor;
        value           nonuniform List<scalar> 
20
(
-0.455086
-0.451761
-0.448499
-0.445484
-0.442486
-0.442486
-0.465463
-0.462071
-0.458595
-0.455009
-0.451285
-0.447392
-0.443297
-0.438967
-0.434366
-0.429458
-0.424208
-0.424208
-0.439692
-0.433572
)
;
    }
}


// ************************************************************************* //
