/*--------------------------------*- C++ -*----------------------------------*\
  =========                 |
  \\      /  F ield         | OpenFOAM: The Open Source CFD Toolbox
   \\    /   O peration     | Website:  https://openfoam.org
    \\  /    A nd           | Version:  7
     \\/     M anipulation  |
\*---------------------------------------------------------------------------*/
FoamFile
{
    version     2.0;
    format      ascii;
    class       volVectorField;
    location    "3.7";
    object      U;
}
// * * * * * * * * * * * * * * * * * * * * * * * * * * * * * * * * * * * * * //

dimensions      [0 1 -1 0 0 0 0];

internalField   nonuniform List<vector> 
12096
(
(2.19134 0.505434 0)
(2.19257 0.504267 0)
(2.19424 0.502906 0)
(2.19668 0.500927 0)
(2.19915 0.498258 0)
(2.20037 0.496492 0)
(2.20094 0.495412 0)
(2.20068 0.494715 0)
(2.19877 0.495709 0)
(2.19546 0.499414 0)
(2.19254 0.503751 0)
(2.19224 0.506128 0)
(2.19341 0.507202 0)
(2.19476 0.507978 0)
(2.19864 0.507862 0)
(2.20616 0.506055 0)
(2.21643 0.503419 0)
(2.22387 0.503089 0)
(2.2264 0.50454 0)
(2.22745 0.506217 0)
(2.22849 0.508193 0)
(2.22886 0.510747 0)
(2.22783 0.513652 0)
(2.22452 0.516463 0)
(2.21912 0.518132 0)
(2.21166 0.516284 0)
(2.20281 0.510327 0)
(2.19784 0.505003 0)
(2.19789 0.502887 0)
(2.19911 0.501962 0)
(2.20082 0.501114 0)
(2.20263 0.500518 0)
(2.20431 0.500315 0)
(2.20594 0.50003 0)
(2.2072 0.499275 0)
(2.2084 0.49842 0)
(2.20977 0.497934 0)
(2.21135 0.497772 0)
(2.21389 0.498459 0)
(2.21601 0.499966 0)
(2.21739 0.501845 0)
(2.21861 0.504074 0)
(2.21981 0.506687 0)
(2.22109 0.509393 0)
(2.22277 0.51245 0)
(2.22556 0.516926 0)
(2.23062 0.52439 0)
(2.2379 0.533992 0)
(2.24424 0.541657 0)
(2.24763 0.545555 0)
(2.24967 0.54649 0)
(2.24853 0.543901 0)
(2.2413 0.53554 0)
(2.23362 0.524971 0)
(2.23207 0.51904 0)
(2.23338 0.515984 0)
(2.23467 0.512533 0)
(2.23485 0.507395 0)
(2.23288 0.501218 0)
(2.23065 0.497201 0)
(2.23131 0.497715 0)
(2.23304 0.501175 0)
(2.23519 0.506198 0)
(2.23819 0.51138 0)
(2.24338 0.518351 0)
(2.25116 0.527116 0)
(2.26187 0.536356 0)
(2.27378 0.544619 0)
(2.28425 0.55116 0)
(2.2925 0.554838 0)
(2.29944 0.555997 0)
(2.30352 0.555232 0)
(2.30494 0.551259 0)
(2.30154 0.540285 0)
(2.28989 0.524743 0)
(2.28166 0.520435 0)
(2.28154 0.525892 0)
(2.28356 0.531081 0)
(2.28454 0.531423 0)
(2.26831 0.500504 0)
(2.21445 0.402333 0)
(2.10087 0.234324 0)
(2.02718 0.103616 0)
(2.00877 0.0499382 0)
(1.97637 -0.004643 0)
(1.96324 -0.0266659 0)
(1.97223 -0.0353609 0)
(1.97272 -0.0343368 0)
(1.97287 -0.0375163 0)
(1.97371 -0.0426312 0)
(1.97325 -0.0414555 0)
(1.97285 -0.033134 0)
(1.97606 -0.0213064 0)
(1.98063 -0.0125049 0)
(1.98654 -0.00815523 0)
(1.99179 -0.00757478 0)
(1.9937 -0.00929801 0)
(1.99348 -0.0144524 0)
(1.98943 -0.0220347 0)
(1.98219 -0.0303501 0)
(1.97606 -0.0353996 0)
(1.97524 -0.0347746 0)
(1.97731 -0.0278208 0)
(1.98296 -0.0159142 0)
(1.99255 -0.00195777 0)
(2.0017 0.0119496 0)
(2.00786 0.0202541 0)
(2.01118 0.0229209 0)
(2.01219 0.0223072 0)
(2.01219 0.0182925 0)
(2.01215 0.0113683 0)
(2.01316 0.00609453 0)
(2.01472 0.00320258 0)
(2.01663 0.00176434 0)
(2.01873 0.00128616 0)
(2.02079 0.00117255 0)
(2.02277 0.00112014 0)
(2.02453 0.00111174 0)
(2.02591 0.000303819 0)
(2.02645 -0.00323632 0)
(2.02568 -0.0109211 0)
(2.02299 -0.0212001 0)
(2.01973 -0.0299295 0)
(2.02004 -0.0322502 0)
(2.02292 -0.02781 0)
(2.03133 -0.0162787 0)
(2.04578 -0.00157348 0)
(2.06194 0.0162265 0)
(2.07243 0.0296552 0)
(2.07741 0.0357912 0)
(2.07905 0.0371181 0)
(2.07922 0.0362675 0)
(2.07339 0.0283541 0)
(2.05866 0.0110207 0)
(2.04051 -0.00841147 0)
(2.03119 -0.0185755 0)
(2.03056 -0.0207358 0)
(2.03162 -0.0216674 0)
(2.03411 -0.0232656 0)
(2.03801 -0.0241502 0)
(2.04371 -0.0230334 0)
(2.05226 -0.0182913 0)
(2.06496 -0.00888725 0)
(2.08177 0.00394122 0)
(2.09709 0.0169916 0)
(2.10701 0.0267443 0)
(2.11176 0.0309944 0)
(2.11308 0.0319327 0)
(2.11349 0.0320238 0)
(2.11137 0.0291098 0)
(2.10407 0.0190962 0)
(2.09032 0.00141243 0)
(2.07702 -0.0149087 0)
(2.07364 -0.0211914 0)
(2.07463 -0.0220969 0)
(2.07738 -0.020762 0)
(2.08368 -0.0133942 0)
(2.09438 -0.00141134 0)
(2.1051 0.0110163 0)
(2.11304 0.022038 0)
(2.11731 0.0294547 0)
(2.11852 0.0314959 0)
(2.11884 0.0309631 0)
(2.11741 0.0281148 0)
(2.11337 0.0217706 0)
(2.10621 0.0108755 0)
(2.09529 -0.00410388 0)
(2.08388 -0.0186383 0)
(2.07821 -0.0269333 0)
(2.07844 -0.0299156 0)
(2.08013 -0.0312411 0)
(2.084 -0.0307025 0)
(2.09176 -0.0237993 0)
(2.10281 -0.0119135 0)
(2.1119 -0.000894359 0)
(2.11588 0.006368 0)
(2.1165 0.0106267 0)
(2.11597 0.01356 0)
(2.11287 0.0126865 0)
(2.10547 0.00283169 0)
(2.09261 -0.0182378 0)
(2.08007 -0.0422359 0)
(2.0768 -0.0572819 0)
(2.07923 -0.0641927 0)
(2.08501 -0.0676895 0)
(2.09467 -0.062776 0)
(2.10681 -0.0517081 0)
(2.11874 -0.0365669 0)
(2.12995 -0.0183141 0)
(2.13772 -0.00372176 0)
(2.13943 0.00245124 0)
(2.13903 0.00447469 0)
(2.13415 0.00151448 0)
(2.12033 -0.0129783 0)
(2.09854 -0.0371962 0)
(2.08187 -0.0583915 0)
(2.07873 -0.0675419 0)
(2.08122 -0.0697742 0)
(2.09056 -0.0681176 0)
(2.1079 -0.0609882 0)
(2.13157 -0.0498336 0)
(2.15589 -0.034134 0)
(2.17982 -0.0127713 0)
(2.20261 0.0106295 0)
(2.2151 0.0245039 0)
(2.21629 0.0308991 0)
(2.21475 0.0330059 0)
(2.20853 0.0310627 0)
(2.19169 0.0160917 0)
(2.1619 -0.0131164 0)
(2.13528 -0.0385043 0)
(2.12844 -0.0463092 0)
(2.12956 -0.0458008 0)
(2.13574 -0.0400098 0)
(2.14735 -0.0305165 0)
(2.16341 -0.0185262 0)
(2.18536 -0.00240688 0)
(2.20924 0.0116274 0)
(2.22261 0.0157044 0)
(2.22662 0.0139452 0)
(2.22853 0.0106993 0)
(2.22905 0.00775234 0)
(2.22796 0.00215437 0)
(2.22011 -0.00953154 0)
(2.20165 -0.0273714 0)
(2.18621 -0.0394118 0)
(2.18402 -0.040786 0)
(2.18482 -0.0403443 0)
(2.18578 -0.0401829 0)
(2.1869 -0.0401091 0)
(2.18813 -0.0398257 0)
(2.19102 -0.0379488 0)
(2.19678 -0.0319996 0)
(2.20489 -0.0233693 0)
(2.21066 -0.0174899 0)
(2.21266 -0.0159522 0)
(2.21384 -0.0136724 0)
(2.21368 -0.0113662 0)
(2.21261 -0.0106597 0)
(2.21003 -0.0135476 0)
(2.20423 -0.0226128 0)
(2.19502 -0.0382896 0)
(2.18573 -0.0535034 0)
(2.18393 -0.060513 0)
(2.18723 -0.061543 0)
(2.19081 -0.0619746 0)
(2.19466 -0.0626678 0)
(2.19932 -0.0617792 0)
(2.20644 -0.0577637 0)
(2.21874 -0.0461962 0)
(2.23361 -0.0349258 0)
(2.24776 -0.0269443 0)
(2.19092 0.506859 0)
(2.19212 0.50681 0)
(2.19339 0.506117 0)
(2.19501 0.504723 0)
(2.1971 0.502063 0)
(2.1988 0.498712 0)
(2.19946 0.496849 0)
(2.19987 0.496104 0)
(2.19972 0.496157 0)
(2.19852 0.4976 0)
(2.19615 0.501288 0)
(2.19447 0.505866 0)
(2.19508 0.509048 0)
(2.19639 0.511242 0)
(2.1993 0.51357 0)
(2.20465 0.514818 0)
(2.21283 0.51328 0)
(2.22174 0.509579 0)
(2.2264 0.508201 0)
(2.22761 0.508419 0)
(2.2288 0.509092 0)
(2.22991 0.510181 0)
(2.22971 0.511939 0)
(2.22651 0.514087 0)
(2.21885 0.514517 0)
(2.20618 0.510944 0)
(2.19662 0.50626 0)
(2.19552 0.504614 0)
(2.1966 0.50424 0)
(2.19786 0.503787 0)
(2.19945 0.50286 0)
(2.20106 0.501566 0)
(2.2026 0.500504 0)
(2.20406 0.499779 0)
(2.2055 0.499403 0)
(2.20693 0.499337 0)
(2.20853 0.49946 0)
(2.21112 0.500089 0)
(2.21415 0.50119 0)
(2.21697 0.502913 0)
(2.219 0.505539 0)
(2.22046 0.508922 0)
(2.2218 0.512767 0)
(2.22343 0.51718 0)
(2.22614 0.522787 0)
(2.23077 0.530025 0)
(2.2367 0.536897 0)
(2.24143 0.540807 0)
(2.24433 0.542291 0)
(2.24628 0.541931 0)
(2.24522 0.538815 0)
(2.23778 0.531265 0)
(2.22849 0.522438 0)
(2.22492 0.517544 0)
(2.22505 0.51463 0)
(2.22549 0.511035 0)
(2.2251 0.505762 0)
(2.22415 0.500374 0)
(2.22442 0.497407 0)
(2.22576 0.497257 0)
(2.22859 0.499255 0)
(2.23201 0.503028 0)
(2.23536 0.507883 0)
(2.23978 0.515218 0)
(2.24636 0.525988 0)
(2.25545 0.539585 0)
(2.26552 0.552985 0)
(2.27351 0.562055 0)
(2.27955 0.564324 0)
(2.28423 0.562383 0)
(2.28734 0.557385 0)
(2.28849 0.548181 0)
(2.28523 0.532591 0)
(2.27729 0.514781 0)
(2.2765 0.508202 0)
(2.27725 0.511552 0)
(2.27842 0.521203 0)
(2.27182 0.51107 0)
(2.23421 0.45119 0)
(2.13963 0.309214 0)
(2.06598 0.188739 0)
(1.96738 0.0733874 0)
(1.94614 0.0263568 0)
(1.94502 0.00715671 0)
(1.94617 -0.0154027 0)
(1.93838 -0.0281272 0)
(1.94286 -0.0367798 0)
(1.95206 -0.0454232 0)
(1.95742 -0.0480337 0)
(1.95754 -0.0442349 0)
(1.95708 -0.0352465 0)
(1.95803 -0.0236026 0)
(1.95958 -0.0136405 0)
(1.9628 -0.00825692 0)
(1.96528 -0.00804732 0)
(1.96744 -0.0126643 0)
(1.96711 -0.0215172 0)
(1.96281 -0.030832 0)
(1.95632 -0.0380339 0)
(1.9536 -0.0398682 0)
(1.95433 -0.0360911 0)
(1.95843 -0.0266684 0)
(1.96559 -0.0147731 0)
(1.974 0.000794962 0)
(1.97943 0.0155258 0)
(1.98175 0.0238525 0)
(1.98249 0.0263341 0)
(1.98238 0.0249532 0)
(1.98057 0.0188662 0)
(1.97871 0.0107614 0)
(1.97966 0.00523747 0)
(1.98208 0.00215568 0)
(1.98538 0.000308474 0)
(1.98921 0.000164932 0)
(1.99258 0.000783443 0)
(1.9952 0.000967133 0)
(1.99766 0.000734547 0)
(1.99952 -0.00136116 0)
(1.99872 -0.00768317 0)
(1.99494 -0.0181111 0)
(1.99037 -0.0285164 0)
(1.98971 -0.033409 0)
(1.99181 -0.0319614 0)
(1.99807 -0.0236009 0)
(2.00819 -0.011753 0)
(2.02039 0.00327137 0)
(2.0343 0.0206969 0)
(2.04387 0.0328781 0)
(2.04738 0.0378386 0)
(2.04848 0.038635 0)
(2.04745 0.0358219 0)
(2.04021 0.0250888 0)
(2.02442 0.00643793 0)
(2.00643 -0.0122165 0)
(1.99815 -0.0211807 0)
(1.99799 -0.0229934 0)
(1.99879 -0.0234938 0)
(2.00023 -0.024033 0)
(2.00301 -0.0234684 0)
(2.00835 -0.0206246 0)
(2.01689 -0.0147401 0)
(2.02915 -0.00585693 0)
(2.04515 0.00587855 0)
(2.06041 0.0176845 0)
(2.07098 0.0258849 0)
(2.07637 0.0288748 0)
(2.07804 0.0293796 0)
(2.07875 0.0290766 0)
(2.07678 0.0259206 0)
(2.06856 0.0156147 0)
(2.05352 -0.00186297 0)
(2.04008 -0.0171977 0)
(2.03678 -0.0227641 0)
(2.03761 -0.0231669 0)
(2.04092 -0.0191031 0)
(2.04924 -0.00861587 0)
(2.06115 0.0041788 0)
(2.07171 0.0159794 0)
(2.07892 0.0251464 0)
(2.08266 0.02962 0)
(2.08376 0.0302373 0)
(2.08421 0.0295005 0)
(2.08227 0.0269354 0)
(2.0773 0.0211543 0)
(2.06916 0.0111853 0)
(2.05843 -0.00243906 0)
(2.04854 -0.0158298 0)
(2.044 -0.0244789 0)
(2.0443 -0.0284914 0)
(2.04586 -0.0300222 0)
(2.05071 -0.0272302 0)
(2.06143 -0.0174918 0)
(2.07601 -0.00500307 0)
(2.08735 0.00602389 0)
(2.09221 0.0128645 0)
(2.09332 0.0158314 0)
(2.0932 0.0169052 0)
(2.08983 0.0142145 0)
(2.07987 0.00165713 0)
(2.0628 -0.0212163 0)
(2.04694 -0.0439273 0)
(2.04236 -0.0558559 0)
(2.04313 -0.0597606 0)
(2.0488 -0.0612014 0)
(2.06234 -0.0572865 0)
(2.07942 -0.0495652 0)
(2.09581 -0.0372763 0)
(2.10983 -0.0205469 0)
(2.11717 -0.00785824 0)
(2.1181 -0.00278276 0)
(2.11661 -0.000886956 0)
(2.10929 -0.00542564 0)
(2.09211 -0.0228591 0)
(2.06782 -0.050315 0)
(2.04997 -0.0699675 0)
(2.04717 -0.074851 0)
(2.04946 -0.0733366 0)
(2.05616 -0.0677494 0)
(2.06995 -0.0588325 0)
(2.09041 -0.0470718 0)
(2.11608 -0.0316152 0)
(2.14517 -0.0109546 0)
(2.17194 0.0115312 0)
(2.18559 0.0244138 0)
(2.18718 0.0303994 0)
(2.18617 0.0312232 0)
(2.18049 0.0261782 0)
(2.16319 0.00790068 0)
(2.13267 -0.0237715 0)
(2.10717 -0.0477164 0)
(2.10188 -0.0536024 0)
(2.10385 -0.0511824 0)
(2.11103 -0.0426052 0)
(2.12292 -0.0307983 0)
(2.13795 -0.0161226 0)
(2.15818 0.00243878 0)
(2.17954 0.0186314 0)
(2.19148 0.0241148 0)
(2.19603 0.0220693 0)
(2.19901 0.0167421 0)
(2.20051 0.0107636 0)
(2.19985 0.00298553 0)
(2.19482 -0.0105783 0)
(2.18113 -0.0294896 0)
(2.16693 -0.0426513 0)
(2.16361 -0.0438875 0)
(2.16401 -0.0423886 0)
(2.16425 -0.0412949 0)
(2.16442 -0.0404364 0)
(2.16514 -0.0395923 0)
(2.16677 -0.0376475 0)
(2.17235 -0.0306584 0)
(2.18143 -0.0200442 0)
(2.18766 -0.0127817 0)
(2.18966 -0.0106095 0)
(2.19105 -0.00813594 0)
(2.19093 -0.00604986 0)
(2.18921 -0.00599811 0)
(2.18472 -0.0101827 0)
(2.17609 -0.0210086 0)
(2.16355 -0.0375698 0)
(2.15299 -0.0514384 0)
(2.15166 -0.0564941 0)
(2.15484 -0.0571512 0)
(2.15848 -0.0580391 0)
(2.16247 -0.0597484 0)
(2.16745 -0.059809 0)
(2.17503 -0.0542731 0)
(2.18715 -0.0451317 0)
(2.20059 -0.0342358 0)
(2.21056 -0.0289442 0)
(2.21841 -0.0279177 0)
(2.19168 0.507241 0)
(2.19146 0.507909 0)
(2.19245 0.507415 0)
(2.19364 0.506306 0)
(2.19487 0.504728 0)
(2.19629 0.502798 0)
(2.19803 0.499916 0)
(2.19915 0.497905 0)
(2.1999 0.497594 0)
(2.20049 0.498012 0)
(2.19978 0.500416 0)
(2.19811 0.505546 0)
(2.19789 0.510788 0)
(2.19928 0.514099 0)
(2.20183 0.517509 0)
(2.20542 0.5198 0)
(2.21036 0.519371 0)
(2.21708 0.516097 0)
(2.22408 0.511783 0)
(2.22761 0.510132 0)
(2.22887 0.51011 0)
(2.23037 0.510093 0)
(2.2307 0.510057 0)
(2.22774 0.509839 0)
(2.21798 0.508747 0)
(2.20285 0.507382 0)
(2.1949 0.506524 0)
(2.19481 0.506013 0)
(2.19583 0.505665 0)
(2.19698 0.505169 0)
(2.19821 0.50438 0)
(2.19958 0.503367 0)
(2.20111 0.502395 0)
(2.20279 0.501642 0)
(2.20457 0.501213 0)
(2.20644 0.501211 0)
(2.20875 0.501705 0)
(2.2117 0.502772 0)
(2.21525 0.504623 0)
(2.21871 0.507499 0)
(2.22149 0.511464 0)
(2.22359 0.516348 0)
(2.22567 0.521974 0)
(2.22838 0.528158 0)
(2.23188 0.534064 0)
(2.23557 0.538071 0)
(2.23869 0.540079 0)
(2.24093 0.540558 0)
(2.24267 0.539089 0)
(2.24139 0.534025 0)
(2.23491 0.524495 0)
(2.22674 0.515189 0)
(2.22226 0.511373 0)
(2.22032 0.510108 0)
(2.21879 0.508153 0)
(2.21743 0.5051 0)
(2.21708 0.50243 0)
(2.21783 0.501273 0)
(2.21908 0.501073 0)
(2.22225 0.501641 0)
(2.22689 0.503503 0)
(2.23174 0.507114 0)
(2.23726 0.514133 0)
(2.24495 0.526326 0)
(2.25467 0.542874 0)
(2.26296 0.557976 0)
(2.26722 0.566398 0)
(2.26963 0.569159 0)
(2.27068 0.56882 0)
(2.27104 0.562982 0)
(2.26956 0.547517 0)
(2.26539 0.526378 0)
(2.26278 0.507986 0)
(2.26637 0.501767 0)
(2.2693 0.50663 0)
(2.26994 0.507827 0)
(2.24683 0.462879 0)
(2.19286 0.350237 0)
(2.09846 0.205226 0)
(1.98674 0.0806507 0)
(1.95187 0.0540911 0)
(1.93572 0.0351487 0)
(1.91987 0.0045689 0)
(1.91352 -0.0042972 0)
(1.91444 -0.0138677 0)
(1.91718 -0.0216055 0)
(1.92431 -0.0317191 0)
(1.9352 -0.0399798 0)
(1.94385 -0.0408353 0)
(1.9464 -0.0349766 0)
(1.94591 -0.02601 0)
(1.94634 -0.0179479 0)
(1.94716 -0.0142666 0)
(1.9481 -0.0152406 0)
(1.94782 -0.0210901 0)
(1.94441 -0.0299988 0)
(1.93921 -0.038125 0)
(1.93599 -0.0415359 0)
(1.93573 -0.0400251 0)
(1.93843 -0.03291 0)
(1.94403 -0.0235987 0)
(1.95116 -0.0119638 0)
(1.95879 0.00296394 0)
(1.96279 0.015082 0)
(1.96308 0.0217356 0)
(1.96259 0.0239643 0)
(1.9603 0.0227934 0)
(1.95592 0.0170669 0)
(1.95246 0.00964621 0)
(1.95281 0.00483598 0)
(1.95493 0.00259791 0)
(1.9586 0.00123048 0)
(1.96439 0.00138071 0)
(1.96966 0.00174283 0)
(1.97296 0.00105473 0)
(1.97516 -0.000395766 0)
(1.97687 -0.00483327 0)
(1.9754 -0.0140215 0)
(1.97001 -0.025501 0)
(1.96615 -0.0329152 0)
(1.96726 -0.0334489 0)
(1.97134 -0.0287167 0)
(1.97958 -0.0201592 0)
(1.98976 -0.00888017 0)
(2.0017 0.00713208 0)
(2.01458 0.0252103 0)
(2.02175 0.0365607 0)
(2.02319 0.0404452 0)
(2.02345 0.0399853 0)
(2.02052 0.0337872 0)
(2.01111 0.0197512 0)
(1.99493 -0.00140448 0)
(1.97861 -0.0199801 0)
(1.97132 -0.0271964 0)
(1.97082 -0.0273928 0)
(1.97134 -0.0260233 0)
(1.97269 -0.0236434 0)
(1.97519 -0.02069 0)
(1.97984 -0.0165046 0)
(1.98703 -0.010821 0)
(1.99758 -0.00306457 0)
(2.01158 0.00749647 0)
(2.02593 0.0182537 0)
(2.03681 0.025503 0)
(2.04295 0.027623 0)
(2.04534 0.0273448 0)
(2.0464 0.0258289 0)
(2.04495 0.0201423 0)
(2.03709 0.00688345 0)
(2.02198 -0.0116206 0)
(2.00811 -0.0245888 0)
(2.00458 -0.0265837 0)
(2.00538 -0.0232314 0)
(2.00992 -0.0136625 0)
(2.01943 -0.000942914 0)
(2.03088 0.0122552 0)
(2.03965 0.0233857 0)
(2.04575 0.0301797 0)
(2.04931 0.032236 0)
(2.05037 0.031959 0)
(2.05104 0.0300764 0)
(2.04974 0.0259988 0)
(2.04557 0.0187381 0)
(2.03812 0.00755165 0)
(2.02831 -0.00650213 0)
(2.01951 -0.0191356 0)
(2.01573 -0.0258445 0)
(2.01615 -0.0272759 0)
(2.01851 -0.0251765 0)
(2.02582 -0.0178123 0)
(2.03794 -0.00796581 0)
(2.05303 0.00265975 0)
(2.06538 0.0119448 0)
(2.072 0.015623 0)
(2.07461 0.0155732 0)
(2.07545 0.0141714 0)
(2.07389 0.00792019 0)
(2.06384 -0.00766639 0)
(2.04346 -0.0311596 0)
(2.02536 -0.0494349 0)
(2.02119 -0.0538936 0)
(2.02185 -0.0527474 0)
(2.02623 -0.0489035 0)
(2.03659 -0.0434628 0)
(2.05271 -0.0367931 0)
(2.07225 -0.026582 0)
(2.08912 -0.0157858 0)
(2.0979 -0.011475 0)
(2.09968 -0.0103632 0)
(2.09868 -0.0110956 0)
(2.09176 -0.0181849 0)
(2.07138 -0.037581 0)
(2.04164 -0.065575 0)
(2.02432 -0.0809186 0)
(2.02335 -0.0821487 0)
(2.0257 -0.0783995 0)
(2.03185 -0.0702393 0)
(2.04105 -0.0590303 0)
(2.05415 -0.0452856 0)
(2.07546 -0.0286526 0)
(2.10496 -0.00741824 0)
(2.13479 0.0137456 0)
(2.15033 0.024026 0)
(2.15312 0.0277051 0)
(2.15298 0.0263766 0)
(2.148 0.0179132 0)
(2.13061 -0.00338138 0)
(2.10021 -0.0363554 0)
(2.07684 -0.0578773 0)
(2.07318 -0.0614588 0)
(2.07607 -0.0572135 0)
(2.08423 -0.0466422 0)
(2.09604 -0.0328195 0)
(2.11053 -0.015869 0)
(2.13021 0.00465938 0)
(2.14975 0.0228927 0)
(2.15936 0.0304474 0)
(2.16227 0.0302629 0)
(2.16387 0.0263941 0)
(2.16442 0.0197743 0)
(2.16329 0.00840683 0)
(2.15912 -0.00906811 0)
(2.14904 -0.0300034 0)
(2.13849 -0.0446201 0)
(2.13706 -0.0468969 0)
(2.13829 -0.0452087 0)
(2.13877 -0.0429611 0)
(2.13838 -0.0406374 0)
(2.13882 -0.0385015 0)
(2.14034 -0.0362551 0)
(2.14582 -0.0282581 0)
(2.15543 -0.0161775 0)
(2.16232 -0.00829064 0)
(2.16439 -0.00585728 0)
(2.16602 -0.003466 0)
(2.16651 -0.00131446 0)
(2.16502 -0.00116596 0)
(2.15931 -0.00562311 0)
(2.14832 -0.0176195 0)
(2.13346 -0.0352048 0)
(2.1226 -0.0493622 0)
(2.12097 -0.0553802 0)
(2.12355 -0.0577387 0)
(2.12621 -0.0603242 0)
(2.12931 -0.0621339 0)
(2.13466 -0.0598509 0)
(2.14355 -0.0519342 0)
(2.15626 -0.0399885 0)
(2.16905 -0.0313729 0)
(2.17744 -0.0245262 0)
(2.18279 -0.0239278 0)
(2.18542 -0.0268814 0)
(2.19327 0.506604 0)
(2.19201 0.507688 0)
(2.1916 0.508093 0)
(2.19213 0.507466 0)
(2.1929 0.506392 0)
(2.1939 0.505365 0)
(2.19542 0.503901 0)
(2.19795 0.501618 0)
(2.20046 0.500721 0)
(2.20134 0.501551 0)
(2.20188 0.502755 0)
(2.202 0.505963 0)
(2.20138 0.511797 0)
(2.20208 0.517303 0)
(2.20382 0.520384 0)
(2.20605 0.52253 0)
(2.20916 0.52341 0)
(2.21338 0.521605 0)
(2.21967 0.516619 0)
(2.2262 0.511404 0)
(2.22875 0.509655 0)
(2.23031 0.508752 0)
(2.23081 0.507457 0)
(2.22788 0.506612 0)
(2.21849 0.506908 0)
(2.20361 0.507519 0)
(2.19503 0.507756 0)
(2.19444 0.507656 0)
(2.19527 0.507414 0)
(2.19618 0.506987 0)
(2.19717 0.506315 0)
(2.19834 0.505604 0)
(2.19968 0.504921 0)
(2.20144 0.504267 0)
(2.20366 0.503763 0)
(2.20629 0.503887 0)
(2.20945 0.504797 0)
(2.21323 0.506954 0)
(2.21767 0.510639 0)
(2.22217 0.515525 0)
(2.2258 0.520816 0)
(2.22843 0.526104 0)
(2.23065 0.531062 0)
(2.23276 0.535079 0)
(2.23475 0.537752 0)
(2.23667 0.53916 0)
(2.23849 0.539133 0)
(2.23909 0.536366 0)
(2.23656 0.529292 0)
(2.23049 0.518616 0)
(2.22449 0.510297 0)
(2.22156 0.507803 0)
(2.21997 0.507846 0)
(2.21796 0.508051 0)
(2.21533 0.507867 0)
(2.21365 0.507303 0)
(2.21388 0.506959 0)
(2.21465 0.507002 0)
(2.21626 0.507225 0)
(2.22027 0.507905 0)
(2.22667 0.51016 0)
(2.23492 0.516955 0)
(2.24608 0.530532 0)
(2.25822 0.548251 0)
(2.26537 0.560673 0)
(2.26713 0.565015 0)
(2.26751 0.567578 0)
(2.26558 0.567605 0)
(2.26037 0.560538 0)
(2.25128 0.542739 0)
(2.24331 0.519343 0)
(2.24393 0.505151 0)
(2.24815 0.500531 0)
(2.25606 0.502479 0)
(2.25114 0.481421 0)
(2.21654 0.402619 0)
(2.12042 0.216403 0)
(2.05854 0.0988547 0)
(1.99022 0.0382589 0)
(1.94641 0.0354573 0)
(1.92091 0.0264533 0)
(1.91315 0.00858567 0)
(1.90055 0.00078692 0)
(1.89737 -0.0082089 0)
(1.89921 -0.0122151 0)
(1.90205 -0.0139416 0)
(1.90814 -0.0188894 0)
(1.91748 -0.0255061 0)
(1.9272 -0.0288585 0)
(1.93338 -0.0267276 0)
(1.93676 -0.0236733 0)
(1.93837 -0.0231212 0)
(1.93857 -0.025396 0)
(1.93568 -0.0318884 0)
(1.9291 -0.0401635 0)
(1.92344 -0.0438755 0)
(1.92207 -0.0425063 0)
(1.92303 -0.0368922 0)
(1.9272 -0.0289072 0)
(1.93352 -0.0199602 0)
(1.94108 -0.00777019 0)
(1.94758 0.00566237 0)
(1.95 0.0146271 0)
(1.94943 0.0193332 0)
(1.94821 0.0211504 0)
(1.94442 0.0195007 0)
(1.93807 0.0135347 0)
(1.9331 0.00677806 0)
(1.93296 0.00308513 0)
(1.93516 0.00197628 0)
(1.93802 0.00194981 0)
(1.94388 0.00388913 0)
(1.95002 0.00463657 0)
(1.9535 0.00303683 0)
(1.95517 -0.000357857 0)
(1.95603 -0.00792419 0)
(1.95379 -0.0190262 0)
(1.94901 -0.0299187 0)
(1.94811 -0.0344999 0)
(1.9505 -0.0331121 0)
(1.95659 -0.0271879 0)
(1.96487 -0.0184371 0)
(1.97506 -0.0052123 0)
(1.98794 0.0126613 0)
(2.00076 0.0292577 0)
(2.00649 0.0368459 0)
(2.0065 0.0387871 0)
(2.0054 0.0360536 0)
(1.99959 0.0269369 0)
(1.98713 0.00950558 0)
(1.97028 -0.0125123 0)
(1.95676 -0.02671 0)
(1.95191 -0.0300013 0)
(1.95145 -0.0285146 0)
(1.95212 -0.0244884 0)
(1.95331 -0.0205072 0)
(1.95521 -0.016738 0)
(1.95854 -0.0123911 0)
(1.96381 -0.007011 0)
(1.97199 8.52113e-05 0)
(1.98391 0.00980593 0)
(1.99718 0.0199701 0)
(2.00751 0.0268993 0)
(2.01372 0.0287323 0)
(2.01614 0.0279552 0)
(2.01741 0.0245662 0)
(2.01554 0.0149421 0)
(2.00775 -0.0020723 0)
(1.99418 -0.0207053 0)
(1.98408 -0.0295405 0)
(1.98276 -0.0278581 0)
(1.98446 -0.0191782 0)
(1.98923 -0.00683848 0)
(1.99749 0.00625024 0)
(2.00674 0.020073 0)
(2.01328 0.0302723 0)
(2.01791 0.035142 0)
(2.02043 0.0358703 0)
(2.02142 0.0346714 0)
(2.02206 0.0307298 0)
(2.0214 0.0240512 0)
(2.0188 0.0138687 0)
(2.01346 0.000348129 0)
(2.00557 -0.0139354 0)
(1.99808 -0.0234304 0)
(1.99596 -0.0257341 0)
(1.99696 -0.0240249 0)
(2.00145 -0.0180589 0)
(2.00948 -0.0101614 0)
(2.02076 -0.00142605 0)
(2.03469 0.0090755 0)
(2.04724 0.0184883 0)
(2.0541 0.0215297 0)
(2.05667 0.0207478 0)
(2.05743 0.017607 0)
(2.05542 0.00766925 0)
(2.0452 -0.0109625 0)
(2.0258 -0.0363471 0)
(2.01083 -0.0525496 0)
(2.00943 -0.0543815 0)
(2.01109 -0.0513086 0)
(2.01503 -0.0450108 0)
(2.02158 -0.0366473 0)
(2.03267 -0.0255677 0)
(2.04845 -0.0123947 0)
(2.06526 -0.00271021 0)
(2.07402 -0.00175623 0)
(2.07511 -0.0051309 0)
(2.07466 -0.0106608 0)
(2.06966 -0.0235418 0)
(2.05196 -0.0482057 0)
(2.02305 -0.0772572 0)
(2.00597 -0.088085 0)
(2.00454 -0.0868974 0)
(2.00604 -0.0824923 0)
(2.01012 -0.0735543 0)
(2.01647 -0.0614882 0)
(2.02672 -0.0465516 0)
(2.04341 -0.0274862 0)
(2.06791 -0.00401928 0)
(2.09555 0.0169105 0)
(2.11163 0.0253228 0)
(2.11489 0.0267772 0)
(2.11565 0.0221118 0)
(2.11116 0.00892813 0)
(2.09447 -0.0168785 0)
(2.06625 -0.0499976 0)
(2.04684 -0.0675586 0)
(2.04505 -0.0685448 0)
(2.04833 -0.0619201 0)
(2.0566 -0.0498168 0)
(2.0677 -0.0350552 0)
(2.08231 -0.0172394 0)
(2.10213 0.00453034 0)
(2.12007 0.0238696 0)
(2.12726 0.0331257 0)
(2.12825 0.0353156 0)
(2.12832 0.0341143 0)
(2.12686 0.0282236 0)
(2.12299 0.0153872 0)
(2.11615 -0.00468384 0)
(2.10724 -0.0273328 0)
(2.10299 -0.0423542 0)
(2.10415 -0.0462585 0)
(2.10646 -0.0464764 0)
(2.10855 -0.046135 0)
(2.11 -0.0453009 0)
(2.11129 -0.0432359 0)
(2.11313 -0.0393928 0)
(2.11937 -0.0280378 0)
(2.12988 -0.0131995 0)
(2.13707 -0.00367186 0)
(2.13927 0.000424622 0)
(2.14124 0.00361393 0)
(2.14241 0.0059326 0)
(2.14155 0.00566035 0)
(2.13572 -0.000211611 0)
(2.12367 -0.0148698 0)
(2.10721 -0.0353023 0)
(2.09576 -0.051013 0)
(2.09433 -0.0578591 0)
(2.09675 -0.0606761 0)
(2.09923 -0.0621123 0)
(2.10255 -0.0604468 0)
(2.10852 -0.054579 0)
(2.11822 -0.0459416 0)
(2.13088 -0.0358871 0)
(2.14131 -0.0252356 0)
(2.14735 -0.0215563 0)
(2.15015 -0.0205162 0)
(2.15094 -0.0229441 0)
(2.15023 -0.0355896 0)
(2.19456 0.505955 0)
(2.19301 0.507424 0)
(2.19174 0.508384 0)
(2.19097 0.508707 0)
(2.19132 0.508688 0)
(2.1921 0.508401 0)
(2.19297 0.507873 0)
(2.19476 0.506916 0)
(2.19852 0.505408 0)
(2.20294 0.505402 0)
(2.20453 0.507576 0)
(2.20524 0.509975 0)
(2.2059 0.512854 0)
(2.20536 0.516912 0)
(2.20552 0.520783 0)
(2.20713 0.521936 0)
(2.20901 0.522452 0)
(2.21124 0.52239 0)
(2.21559 0.520413 0)
(2.22236 0.514939 0)
(2.22784 0.509926 0)
(2.22937 0.508437 0)
(2.2302 0.506974 0)
(2.22843 0.506203 0)
(2.22018 0.506723 0)
(2.20516 0.508339 0)
(2.19558 0.509353 0)
(2.19439 0.509524 0)
(2.19489 0.509402 0)
(2.19551 0.50909 0)
(2.19622 0.508579 0)
(2.19716 0.508138 0)
(2.19826 0.507795 0)
(2.20004 0.507481 0)
(2.2029 0.507391 0)
(2.20677 0.508124 0)
(2.21141 0.510721 0)
(2.21694 0.515507 0)
(2.22241 0.521004 0)
(2.22654 0.525284 0)
(2.22937 0.528308 0)
(2.23145 0.530842 0)
(2.23297 0.533243 0)
(2.2344 0.535663 0)
(2.23603 0.537247 0)
(2.23683 0.537287 0)
(2.23522 0.533735 0)
(2.23072 0.525458 0)
(2.22504 0.515538 0)
(2.22171 0.509568 0)
(2.22081 0.507861 0)
(2.22044 0.507629 0)
(2.2195 0.507854 0)
(2.21759 0.508477 0)
(2.2152 0.509639 0)
(2.21359 0.511415 0)
(2.21371 0.513061 0)
(2.21441 0.513771 0)
(2.21614 0.514508 0)
(2.22098 0.516464 0)
(2.23071 0.523216 0)
(2.24611 0.537728 0)
(2.26021 0.552928 0)
(2.26587 0.559383 0)
(2.26742 0.560974 0)
(2.26845 0.562751 0)
(2.26678 0.563291 0)
(2.25732 0.554589 0)
(2.24017 0.533187 0)
(2.22808 0.514244 0)
(2.2282 0.507651 0)
(2.23091 0.506471 0)
(2.23386 0.497073 0)
(2.21395 0.446298 0)
(2.1453 0.300903 0)
(2.06633 0.139192 0)
(2.03296 0.0465891 0)
(1.97902 0.0131468 0)
(1.95868 0.0130005 0)
(1.93532 0.00863325 0)
(1.91084 0.00580791 0)
(1.89641 -0.00637888 0)
(1.89019 -0.0118115 0)
(1.89045 -0.013576 0)
(1.89031 -0.0132811 0)
(1.89059 -0.0112263 0)
(1.89449 -0.00991759 0)
(1.90205 -0.0121188 0)
(1.91148 -0.0170046 0)
(1.92098 -0.0227214 0)
(1.92668 -0.0282807 0)
(1.92815 -0.0334126 0)
(1.9266 -0.0404798 0)
(1.92104 -0.047177 0)
(1.91751 -0.0477503 0)
(1.91655 -0.0429819 0)
(1.91705 -0.0345269 0)
(1.92007 -0.0258255 0)
(1.92614 -0.0152405 0)
(1.93455 -0.00213089 0)
(1.94045 0.00873097 0)
(1.94146 0.0143716 0)
(1.94035 0.0171097 0)
(1.9384 0.0173113 0)
(1.93347 0.0130037 0)
(1.92613 0.00499735 0)
(1.92014 -0.00189127 0)
(1.91914 -0.0041383 0)
(1.92103 -0.00361935 0)
(1.92337 -0.000567212 0)
(1.92862 0.0040857 0)
(1.93397 0.00621433 0)
(1.93627 0.00546925 0)
(1.93734 0.000654346 0)
(1.93661 -0.00907869 0)
(1.93349 -0.0210826 0)
(1.93134 -0.0307055 0)
(1.93229 -0.033614 0)
(1.93591 -0.0320262 0)
(1.94322 -0.0271801 0)
(1.9521 -0.0188015 0)
(1.96407 -0.0040705 0)
(1.97894 0.0155685 0)
(1.99084 0.0311251 0)
(1.99443 0.037069 0)
(1.99392 0.0376905 0)
(1.99106 0.0317317 0)
(1.98246 0.0170618 0)
(1.96771 -0.00511572 0)
(1.95146 -0.0231612 0)
(1.94208 -0.0294857 0)
(1.93963 -0.0286333 0)
(1.93947 -0.0249479 0)
(1.93996 -0.0202751 0)
(1.94059 -0.0163126 0)
(1.94164 -0.0125614 0)
(1.94363 -0.00836171 0)
(1.94695 -0.00327191 0)
(1.95259 0.00350358 0)
(1.96238 0.0125049 0)
(1.9744 0.0219748 0)
(1.98395 0.0279969 0)
(1.98944 0.0289987 0)
(1.99166 0.0274056 0)
(1.99263 0.0205718 0)
(1.98961 0.00706402 0)
(1.98091 -0.0114645 0)
(1.97027 -0.0271109 0)
(1.96679 -0.0312815 0)
(1.96785 -0.0271549 0)
(1.97188 -0.016384 0)
(1.97738 -0.00364089 0)
(1.98383 0.0112141 0)
(1.98989 0.0257459 0)
(1.99399 0.0348075 0)
(1.99679 0.0386034 0)
(1.99796 0.0390093 0)
(1.99878 0.0370414 0)
(1.99861 0.0317724 0)
(1.99749 0.0231166 0)
(1.9952 0.0107279 0)
(1.99109 -0.00385473 0)
(1.98553 -0.0168474 0)
(1.98265 -0.023748 0)
(1.98337 -0.0242763 0)
(1.98621 -0.0203804 0)
(1.99144 -0.0140128 0)
(1.99817 -0.00708026 0)
(2.00733 0.0022077 0)
(2.01913 0.013978 0)
(2.03093 0.0234258 0)
(2.03737 0.0254404 0)
(2.03919 0.0238846 0)
(2.03969 0.0178481 0)
(2.03664 0.00495179 0)
(2.02552 -0.0166135 0)
(2.00738 -0.042756 0)
(1.99697 -0.0561459 0)
(1.99731 -0.0570757 0)
(2.00003 -0.0547544 0)
(2.00461 -0.0493608 0)
(2.01038 -0.0399653 0)
(2.01966 -0.0254738 0)
(2.03272 -0.00702569 0)
(2.04504 0.00763825 0)
(2.04992 0.0114527 0)
(2.04938 0.00977119 0)
(2.04737 0.000784318 0)
(2.04047 -0.0194242 0)
(2.02484 -0.0525531 0)
(2.00172 -0.0850186 0)
(1.99001 -0.0961142 0)
(1.98988 -0.0949932 0)
(1.99066 -0.0868114 0)
(1.99216 -0.0754921 0)
(1.99641 -0.0630273 0)
(2.00527 -0.0477619 0)
(2.02062 -0.0273115 0)
(2.04213 -0.00182991 0)
(2.06421 0.01947 0)
(2.07559 0.0280031 0)
(2.07697 0.0278297 0)
(2.07711 0.0186493 0)
(2.07151 -0.000934884 0)
(2.05584 -0.0319333 0)
(2.03244 -0.0626073 0)
(2.01953 -0.0752226 0)
(2.01958 -0.0744023 0)
(2.02366 -0.0652684 0)
(2.03145 -0.0517478 0)
(2.04095 -0.0360424 0)
(2.05481 -0.0176553 0)
(2.07427 0.00442936 0)
(2.09122 0.023679 0)
(2.09642 0.0335196 0)
(2.09662 0.0361774 0)
(2.09614 0.0362725 0)
(2.09224 0.0319387 0)
(2.08425 0.0195435 0)
(2.073 -0.000658793 0)
(2.0633 -0.0213134 0)
(2.06146 -0.0334042 0)
(2.064 -0.0386533 0)
(2.07016 -0.044144 0)
(2.07675 -0.0481514 0)
(2.0806 -0.0496142 0)
(2.08362 -0.0486629 0)
(2.08838 -0.0419494 0)
(2.09796 -0.0268444 0)
(2.10874 -0.0108199 0)
(2.11467 -0.000979389 0)
(2.11679 0.00394334 0)
(2.1189 0.00771913 0)
(2.12053 0.0101035 0)
(2.12051 0.00989113 0)
(2.11557 0.00373632 0)
(2.10296 -0.0125939 0)
(2.08501 -0.0349265 0)
(2.07306 -0.051175 0)
(2.07156 -0.0578407 0)
(2.07317 -0.0600463 0)
(2.07581 -0.0604068 0)
(2.08117 -0.0574267 0)
(2.08901 -0.0517416 0)
(2.09791 -0.043349 0)
(2.10765 -0.0327954 0)
(2.11715 -0.0223228 0)
(2.12171 -0.0166574 0)
(2.12251 -0.0159686 0)
(2.1209 -0.0178798 0)
(2.11689 -0.0266998 0)
(2.11029 -0.0493173 0)
(2.19537 0.505908 0)
(2.19454 0.50697 0)
(2.19272 0.508795 0)
(2.19089 0.5105 0)
(2.19046 0.511409 0)
(2.19112 0.511807 0)
(2.19177 0.511964 0)
(2.19292 0.512131 0)
(2.19612 0.511564 0)
(2.20139 0.510215 0)
(2.20547 0.510035 0)
(2.20692 0.510771 0)
(2.20831 0.512654 0)
(2.2089 0.515026 0)
(2.20837 0.517914 0)
(2.20795 0.520032 0)
(2.20944 0.520345 0)
(2.21135 0.519969 0)
(2.21372 0.519219 0)
(2.21889 0.517023 0)
(2.22556 0.512883 0)
(2.22846 0.510351 0)
(2.22927 0.50918 0)
(2.22849 0.507816 0)
(2.22226 0.507574 0)
(2.20794 0.50927 0)
(2.19654 0.511135 0)
(2.19451 0.511712 0)
(2.19481 0.5119 0)
(2.1952 0.511935 0)
(2.19571 0.511778 0)
(2.19644 0.511688 0)
(2.19735 0.511603 0)
(2.19935 0.511714 0)
(2.20326 0.512259 0)
(2.20912 0.515023 0)
(2.21642 0.520707 0)
(2.22243 0.526002 0)
(2.22577 0.528465 0)
(2.2279 0.529445 0)
(2.23012 0.530288 0)
(2.23241 0.531375 0)
(2.23415 0.532417 0)
(2.23606 0.533399 0)
(2.23632 0.533847 0)
(2.23274 0.531002 0)
(2.22568 0.523237 0)
(2.22016 0.515411 0)
(2.21871 0.511685 0)
(2.21897 0.510257 0)
(2.21935 0.50946 0)
(2.21933 0.509028 0)
(2.21859 0.509027 0)
(2.21726 0.509546 0)
(2.21612 0.510892 0)
(2.21584 0.513546 0)
(2.21608 0.516719 0)
(2.2169 0.519544 0)
(2.21951 0.523581 0)
(2.2271 0.531634 0)
(2.24297 0.545906 0)
(2.25812 0.557594 0)
(2.26351 0.560168 0)
(2.26512 0.560469 0)
(2.26683 0.560389 0)
(2.26605 0.557556 0)
(2.25657 0.547121 0)
(2.23588 0.525934 0)
(2.22444 0.514629 0)
(2.22355 0.512584 0)