0.245684 	0.443598 	8.12425e-19 	0.331089
0.247842 	0.447494 	-2.09886e-18 	0.329997
0.250437 	0.45218 	-1.72557e-18 	0.328727
0.25347 	0.457656 	-1.90861e-18 	0.327642
0.258032 	0.465894 	-1.6515e-18 	0.326496
0.260628 	0.47058 	-9.85672e-19 	0.325547
0.263851 	0.476399 	-8.79282e-19 	0.324617
0.268223 	0.484294 	-9.62669e-21 	0.324045
0.270818 	0.48898 	-9.22483e-20 	0.323366
0.274232 	0.495143 	-6.36709e-19 	0.322821
