0.195473 	0.463718 	-2.14436e-18 	0.997632
0.197 	0.46734 	1.28604e-18 	0.997308
0.199027 	0.472148 	5.9588e-19 	0.996977
0.20008 	0.474647 	6.53781e-19 	0.996645
0.201214 	0.477336 	3.40967e-19 	0.996341
0.203321 	0.482335 	7.16746e-19 	0.996089
0.204687 	0.485576 	2.07386e-18 	0.995926
0.205741 	0.488075 	2.20942e-18 	0.995635
0.207535 	0.492331 	2.30397e-18 	0.995574
0.209294 	0.496505 	2.56024e-18 	0.995544
0.210348 	0.499004 	2.21372e-18 	0.995251
