0.18435 	0.464841 	3.15184e-19 	0.998706
0.184675 	0.46566 	-1.32854e-18 	0.998271
0.185666 	0.468159 	-1.35459e-18 	0.997963
0.187323 	0.472338 	-1.14996e-18 	0.997572
0.189157 	0.476962 	-2.64411e-18 	0.997183
0.190148 	0.479462 	-4.12785e-18 	0.996937
0.191288 	0.482335 	-4.89132e-18 	0.996629
0.19327 	0.487333 	-5.44245e-18 	0.996417
0.194631 	0.490764 	-5.02884e-18 	0.996308
0.195622 	0.493263 	-5.12132e-18 	0.996103
0.197235 	0.49733 	-6.50035e-18 	0.996061
