0.0285166 	0.499829 	-8.25202e-19 	0.306974 	-0.0316676 	4.00977e-18
