0.218136 	0.461342 	-2.5327e-18 	4.77853
0.219895 	0.465063 	3.04833e-19 	4.77572
0.221549 	0.468562 	7.73156e-19 	4.75315
0.224753 	0.475337 	1.16933e-18 	4.75064
0.228062 	0.482335 	1.49981e-18 	4.74799
0.23137 	0.489332 	2.09984e-18 	4.74497
0.234679 	0.49633 	2.24803e-18 	4.74148
