/*--------------------------------*- C++ -*----------------------------------*\
  =========                 |
  \\      /  F ield         | OpenFOAM: The Open Source CFD Toolbox
   \\    /   O peration     | Website:  https://openfoam.org
    \\  /    A nd           | Version:  7
     \\/     M anipulation  |
\*---------------------------------------------------------------------------*/
FoamFile
{
    version     2.0;
    format      ascii;
    class       volVectorField;
    location    "3.6";
    object      U;
}
// * * * * * * * * * * * * * * * * * * * * * * * * * * * * * * * * * * * * * //

dimensions      [0 1 -1 0 0 0 0];

internalField   nonuniform List<vector> 
30686
(
(1 -9.55638e-06 5.76692e-16)
(1.00006 -2.86016e-05 -9.44376e-16)
(1.00017 -4.74562e-05 7.51313e-16)
(1.00034 -6.60956e-05 5.55055e-15)
(1.00057 -8.44837e-05 5.83724e-15)
(1.00086 -0.000102549 3.29564e-15)
(1.00119 -0.000120203 3.75085e-15)
(1.00158 -0.000137362 1.72814e-15)
(1.00203 -0.000153955 2.09637e-15)
(1.00252 -0.000169925 5.94059e-16)
(1.00306 -0.000185225 1.18136e-15)
(1.00364 -0.000199813 1.57157e-15)
(1.00427 -0.000213656 1.65593e-16)
(1.00494 -0.000226725 -3.56112e-16)
(1.00565 -0.000238998 -1.5039e-16)
(1.00639 -0.000250458 5.6142e-16)
(1.00717 -0.000261096 1.14505e-15)
(1.00798 -0.000270911 -2.65633e-17)
(1.00881 -0.000279906 2.14642e-15)
(1.00968 -0.000288089 -8.35916e-16)
(1.01056 -0.000295476 -8.29263e-16)
(1.01147 -0.000302087 3.08889e-16)
(1.0124 -0.000307943 4.37794e-16)
(1.01334 -0.000313073 -1.00019e-15)
(1.0143 -0.000317504 1.10751e-15)
(1.01527 -0.00032127 -1.52591e-15)
(1.01625 -0.000324404 3.81581e-15)
(1.01724 -0.000326941 -1.0159e-15)
(1.01824 -0.000328916 4.22965e-15)
(1.01924 -0.000330367 2.43336e-15)
(1.02025 -0.00033133 2.42397e-15)
(1.02125 -0.000331841 2.40827e-15)
(1.02226 -0.000331934 2.02572e-15)
(1.02327 -0.000331646 2.33707e-15)
(1.02428 -0.000331009 2.18123e-15)
(1.02528 -0.000330056 1.22751e-15)
(1.02628 -0.000328817 2.07021e-15)
(1.02728 -0.000327322 1.80523e-15)
(1.02827 -0.000325599 6.83887e-16)
(1.02925 -0.000323674 1.39953e-15)
(1.03023 -0.000321571 1.06739e-15)
(1.03121 -0.000319313 1.73949e-15)
(1.03217 -0.000316921 1.82548e-15)
(1.03313 -0.000314415 7.3673e-16)
(1.03408 -0.000311812 3.36141e-16)
(1.03503 -0.00030913 7.92797e-16)
(1.03596 -0.000306383 4.23707e-16)
(1.03689 -0.000303585 1.07442e-15)
(1.0378 -0.000300749 9.23298e-16)
(1.03871 -0.000297885 1.18206e-15)
(1.03961 -0.000295004 -8.80402e-16)
(1.04051 -0.000292114 1.40309e-15)
(1.04139 -0.000289224 -4.64899e-16)
(1.04226 -0.000286341 2.21267e-15)
(1.04313 -0.000283471 -1.6874e-15)
(1.04398 -0.000280619 2.14603e-15)
(1.04483 -0.000277791 -2.34967e-15)
(1.04567 -0.00027499 -1.59001e-15)
(1.0465 -0.000272221 -2.08673e-15)
(1.04732 -0.000269485 -1.52054e-15)
(1.04814 -0.000266787 -1.59047e-15)
(1.04894 -0.000264127 -1.53742e-15)
(1.04974 -0.000261507 -7.86661e-18)
(1.05053 -0.00025893 -7.57259e-16)
(1.05131 -0.000256396 -7.83967e-16)
(1.05209 -0.000253905 -6.42126e-16)
(1.05286 -0.000251459 5.12479e-16)
(1.05362 -0.000249058 -4.30827e-16)
(1.05437 -0.000246702 -2.2012e-16)
(1.05511 -0.00024439 -5.01361e-17)
(1.05585 -0.000242124 8.81199e-17)
(1.05659 -0.000239902 -1.06055e-18)
(1.05731 -0.000237724 5.02589e-16)
(1.05803 -0.000235589 -7.75883e-16)
(1.05874 -0.000233497 5.38367e-16)
(1.05945 -0.000231448 -1.48402e-16)
(1.06015 -0.00022944 6.78316e-16)
(1.06084 -0.000227473 -8.6013e-16)
(1.06153 -0.000225546 8.0329e-16)
(1.06221 -0.000223658 -1.32905e-15)
(1.06289 -0.000221808 2.73065e-15)
(1.06356 -0.000219995 -2.92717e-15)
(1.06422 -0.000218219 -2.40552e-15)
(1.06488 -0.000216478 -2.01506e-15)
(1.06554 -0.000214772 -1.73083e-15)
(1.06619 -0.000213099 -1.1191e-15)
(1.06683 -0.00021146 -9.89337e-16)
(1.06747 -0.000209851 -2.98698e-16)
(1.06811 -0.000208274 -8.16933e-16)
(1.06874 -0.000206727 -1.34136e-15)
(1.06936 -0.000205208 -6.30368e-16)
(1.06998 -0.000203718 -3.44142e-16)
(1.0706 -0.000202255 -2.57144e-16)
(1.07121 -0.000200819 -3.87225e-16)
(1.07182 -0.000199408 -2.30972e-16)
(1.07242 -0.000198022 3.19548e-16)
(1.07302 -0.00019666 -1.46294e-16)
(1.07362 -0.00019532 -5.5158e-16)
(1.07421 -0.000194003 -3.55452e-16)
(1.07479 -0.000192708 4.43963e-16)
(1.07538 -0.000191434 -3.47008e-16)
(1.07596 -0.000190179 7.24776e-16)
(1.07653 -0.000188944 6.02689e-17)
(1.0771 -0.000187728 -1.50956e-16)
(1.07767 -0.000186529 1.69915e-16)
(1.07824 -0.000185348 6.74302e-18)
(1.0788 -0.000184183 -1.14435e-16)
(1.07935 -0.000183035 5.56134e-16)
(1.07991 -0.000181901 -1.35044e-16)
(1.08046 -0.000180783 1.2722e-16)
(1.08101 -0.000179679 -3.85627e-16)
(1.08155 -0.000178588 9.61641e-16)
(1.08209 -0.00017751 8.77041e-16)
(1.08263 -0.000176445 3.70465e-16)
(1.08316 -0.000175391 -1.40222e-16)
(1.08369 -0.000174349 -1.74494e-16)
(1.08422 -0.000173318 -1.64619e-16)
(1.08475 -0.000172298 2.81724e-16)
(1.08527 -0.000171287 -7.38798e-18)
(1.08579 -0.000170285 -3.48207e-18)
(1.0863 -0.000169293 3.87512e-16)
(1.08681 -0.000168309 4.46166e-16)
(1.08732 -0.000167333 3.84442e-16)
(1.08783 -0.000166364 2.17249e-16)
(1.08833 -0.000165403 2.72624e-16)
(1.08884 -0.000164448 -4.75045e-16)
(1.08933 -0.0001635 1.34696e-16)
(1.08983 -0.000162558 4.86705e-16)
(1.09032 -0.000161622 9.2455e-16)
(1.09081 -0.00016069 5.14306e-16)
(1.0913 -0.000159764 9.81221e-16)
(1.09178 -0.000158842 1.59068e-16)
(1.09226 -0.000157924 7.73389e-16)
(1.09274 -0.00015701 8.51318e-16)
(1.09321 -0.0001561 2.36188e-16)
(1.09369 -0.000155193 8.06494e-16)
(1.09416 -0.000154288 7.92985e-16)
(1.09462 -0.000153387 5.54383e-16)
(1.09509 -0.000152488 2.96293e-16)
(1.09555 -0.000151591 3.84466e-16)
(1.09601 -0.000150696 9.32121e-16)
(1.09647 -0.000149803 5.55587e-16)
(1.09692 -0.000148911 7.05218e-16)
(1.09737 -0.000148021 5.62752e-16)
(1.09782 -0.000147131 1.16875e-15)
(1.09826 -0.000146243 3.8866e-16)
(1.09871 -0.000145355 1.38116e-15)
(1.09915 -0.000144468 1.11509e-15)
(1.09958 -0.000143582 9.08931e-16)
(1.10002 -0.000142697 6.96171e-16)
(1.10045 -0.000141811 -6.82315e-17)
(1.10088 -0.000140926 5.59807e-16)
(1.10131 -0.000140042 7.9544e-16)
(1.10173 -0.000139158 1.17827e-15)
(1.10215 -0.000138274 1.10649e-15)
(1.10257 -0.000137391 1.28655e-15)
(1.10299 -0.000136509 1.17076e-15)
(1.1034 -0.000135627 8.88634e-16)
(1.10381 -0.000134746 7.19515e-16)
(1.10422 -0.000133866 1.113e-15)
(1.10462 -0.000132987 1.32715e-15)
(1.10502 -0.00013211 1.28485e-15)
(1.10542 -0.000131235 5.34623e-16)
(1.10582 -0.000130362 8.34445e-16)
(1.10622 -0.000129491 1.37135e-15)
(1.10661 -0.000128623 1.37178e-15)
(1.107 -0.000127759 1.52824e-15)
(1.10738 -0.000126899 1.14676e-15)
(1.10777 -0.000126044 1.10909e-15)
(1.10815 -0.000125193 1.24062e-15)
(1.10853 -0.000124349 6.00539e-16)
(1.1089 -0.000123511 1.66804e-15)
(1.10928 -0.000122681 1.52705e-15)
(1.10965 -0.00012186 1.66994e-15)
(1.11002 -0.000121048 1.17271e-15)
(1.11038 -0.000120246 1.19794e-15)
(1.11075 -0.000119456 1.49676e-15)
(1.11111 -0.000118679 1.90074e-15)
(1.11147 -0.000117916 1.49585e-15)
(1.11183 -0.000117169 1.67061e-15)
(1.11218 -0.000116439 2.09942e-15)
(1.11253 -0.000115727 1.67373e-15)
(1.11288 -0.000115037 1.71981e-15)
(1.11323 -0.000114368 1.95656e-15)
(1.11358 -0.000113724 2.28826e-15)
(1.11392 -0.000113106 2.20343e-15)
(1.11426 -0.000112516 2.47185e-15)
(1.11461 -0.000111958 1.99594e-15)
(1.11494 -0.000111433 1.71267e-15)
(1.11528 -0.000110945 2.51411e-15)
(1.11562 -0.000110495 1.82273e-15)
(1.11595 -0.000110088 1.4153e-15)
(1.11629 -0.000109725 1.43092e-15)
(1.11662 -0.000109412 1.56354e-15)
(1.11695 -0.00010915 1.3189e-15)
(1.11728 -0.000108945 2.16849e-15)
(1.11761 -0.000108799 1.61884e-15)
(1.11794 -0.000108718 2.20714e-15)
(1.11827 -0.000108706 1.77722e-15)
(1.1186 -0.000108767 2.14251e-15)
(1.11893 -0.000108907 1.16156e-15)
(1.11926 -0.00010913 1.7522e-15)
(1.1196 -0.000109443 1.09111e-15)
(1.11993 -0.000109851 1.29241e-15)
(1.12026 -0.000110361 1.24504e-15)
(1.1206 -0.00011098 1.73176e-15)
(1.12094 -0.000111713 9.17091e-16)
(1.12128 -0.00011257 1.78132e-15)
(1.12162 -0.000113557 1.26868e-15)
(1.12197 -0.000114682 1.83626e-15)
(1.12232 -0.000115956 1.00805e-15)
(1.12267 -0.000117385 2.3181e-15)
(1.12303 -0.000118982 8.87193e-16)
(1.12339 -0.000120755 1.71478e-15)
(1.12376 -0.000122716 7.59456e-16)
(1.12414 -0.000124876 1.72106e-15)
(1.12452 -0.000127247 1.33121e-15)
(1.12491 -0.000129842 1.6159e-15)
(1.12531 -0.000132676 7.79102e-16)
(1.12572 -0.000135761 1.01992e-15)
(1.12613 -0.000139113 1.01961e-15)
(1.12656 -0.000142749 8.98943e-16)
(1.127 -0.000146684 1.23453e-15)
(1.12745 -0.000150938 9.2643e-16)
(1.12792 -0.000155528 1.16663e-15)
(1.1284 -0.000160476 4.41666e-16)
(1.12889 -0.000165801 1.1326e-15)
(1.1294 -0.000171526 6.9869e-16)
(1.12993 -0.000177674 7.50902e-16)
(1.13048 -0.000184271 3.4099e-16)
(1.13105 -0.000191342 1.41482e-15)
(1.13164 -0.000198914 1.19702e-16)
(1.13226 -0.000207017 9.04899e-16)
(1.1329 -0.000215681 -2.77222e-16)
(1.13357 -0.000224938 4.39001e-16)
(1.13427 -0.000234821 1.39493e-16)
(1.13499 -0.000245367 1.31418e-16)
(1.13576 -0.000256611 5.91158e-16)
(1.13655 -0.000268593 8.39394e-17)
(1.13739 -0.000281353 1.74041e-16)
(1.13826 -0.000294934 3.61158e-16)
(1.13918 -0.00030938 -1.23393e-17)
(1.14014 -0.000324738 3.17097e-16)
(1.14115 -0.000341055 3.59455e-16)
(1.14221 -0.000358382 -7.4317e-17)
(1.14332 -0.00037677 -8.43645e-16)
(1.1445 -0.000396273 1.07012e-16)
(1.14573 -0.000416947 6.14325e-16)
(1.14703 -0.000438848 -3.26347e-16)
(1.14839 -0.000462034 5.54162e-16)
(1.14983 -0.000486566 -8.47807e-16)
(1.15135 -0.000512504 4.58154e-16)
(1.15294 -0.000539909 -7.08482e-16)
(1.15462 -0.000568844 -3.16031e-17)
(1.1564 -0.000599371 -4.99417e-16)
(1.15826 -0.000631552 6.95056e-16)
(1.16023 -0.000665448 -2.6617e-16)
(1.1623 -0.000701119 -3.48573e-16)
(1.16449 -0.000738623 -6.39946e-16)
(1.16679 -0.000778016 -1.04284e-17)
(1.16921 -0.000819349 -3.5652e-16)
(1.17176 -0.00086267 3.02403e-16)
(1.17444 -0.000908022 -9.3892e-16)
(1.17727 -0.000955439 -3.22745e-16)
(1.18024 -0.00100495 -2.76049e-16)
(1.18337 -0.00105657 -2.39776e-16)
(1.18666 -0.00111032 -4.61286e-16)
(1.19011 -0.00116618 -7.50266e-16)
(1.19373 -0.00122415 -2.28519e-16)
(1.19754 -0.00128418 1.09207e-16)
(1.20153 -0.00134624 -1.02655e-15)
(1.20571 -0.00141026 -8.91078e-16)
(1.21008 -0.00147614 -9.28452e-16)
(1.21467 -0.00154379 -7.40791e-16)
(1.21945 -0.00161306 -1.15822e-16)
(1.22445 -0.00168381 -1.91423e-16)
(1.22967 -0.00175585 -3.28868e-16)
(1.23511 -0.00182898 -9.43245e-16)
(1.24077 -0.00190294 -2.7759e-16)
(1.24666 -0.00197748 -6.18533e-16)
(1.25277 -0.00205231 -7.16125e-16)
(1.25911 -0.0021271 -8.11012e-16)
(1.26568 -0.0022015 -4.80192e-16)
(1.27247 -0.00227514 -2.98087e-16)
(1.27949 -0.00234762 -3.28959e-16)
(1.28672 -0.00241852 -9.12102e-16)
(1.29416 -0.00248741 -5.74702e-16)
(1.30181 -0.00255385 -9.07924e-16)
(1.30966 -0.00261736 -1.55153e-16)
(1.3177 -0.00267751 -7.63142e-16)
(1.32592 -0.00273383 -3.3096e-16)
(1.3343 -0.00278589 -6.38463e-16)
(1.34283 -0.00283325 -2.14247e-16)
(1.35149 -0.00287552 -5.15879e-16)
(1.36028 -0.00291232 -3.00406e-16)
(1.36918 -0.00294332 -5.94755e-16)
(1.37816 -0.00296823 -2.80496e-16)
(1.3872 -0.00298682 -4.84263e-16)
(1.39629 -0.00299891 -1.79053e-16)
(1.40542 -0.00300437 -4.10106e-16)
(1 -2.22719e-05 4.99571e-16)
(1.00006 -6.66924e-05 -7.06423e-16)
(1.00017 -0.000110764 7.88526e-16)
(1.00035 -0.00015435 -1.17284e-15)
(1.00057 -0.000197315 -9.29511e-16)
(1.00086 -0.00023949 -2.76831e-15)
(1.0012 -0.000280687 -2.21476e-15)
(1.00159 -0.000320726 -1.98202e-15)
(1.00203 -0.000359448 -1.25089e-15)
(1.00252 -0.00039672 -1.90916e-15)
(1.00306 -0.000432427 -1.01853e-15)
(1.00365 -0.000466474 -2.00737e-15)
(1.00428 -0.00049878 -5.31679e-16)
(1.00495 -0.000529275 -1.85658e-15)
(1.00566 -0.000557909 1.06817e-16)
(1.0064 -0.000584645 6.18023e-16)
(1.00718 -0.000609462 1.87156e-16)
(1.00799 -0.000632354 6.28056e-16)
(1.00883 -0.000653332 1.82982e-15)
(1.00969 -0.000672416 -3.2203e-16)
(1.01058 -0.000689641 2.08696e-15)
(1.01149 -0.000705053 1.55865e-15)
(1.01242 -0.000718706 1.81109e-15)
(1.01336 -0.000730661 7.8503e-16)
(1.01432 -0.000740989 1.84339e-15)
(1.01529 -0.000749763 1.10354e-16)
(1.01627 -0.000757063 1.62019e-15)
(1.01726 -0.000762971 -4.27484e-16)
(1.01826 -0.000767569 2.29663e-15)
(1.01926 -0.000770944 1.25333e-15)
(1.02027 -0.000773181 2.27769e-15)
(1.02128 -0.000774363 9.5423e-16)
(1.02229 -0.000774573 2.44963e-15)
(1.02329 -0.000773893 5.07346e-16)
(1.0243 -0.0007724 2.34284e-15)
(1.02531 -0.00077017 1.66704e-15)
(1.02631 -0.000767274 1.79963e-15)
(1.0273 -0.000763782 1.34247e-15)
(1.0283 -0.000759757 2.01201e-15)
(1.02928 -0.000755261 7.60981e-16)
(1.03026 -0.000750351 2.00979e-15)
(1.03124 -0.000745079 2.20925e-15)
(1.0322 -0.000739496 1.92389e-15)
(1.03316 -0.000733647 1.20832e-15)
(1.03411 -0.000727573 1.20371e-15)
(1.03506 -0.000721314 1.42045e-15)
(1.03599 -0.000714903 9.00546e-16)
(1.03692 -0.000708374 7.12734e-16)
(1.03783 -0.000701755 8.54293e-16)
(1.03874 -0.000695072 4.28249e-16)
(1.03964 -0.000688349 5.95119e-16)
(1.04053 -0.000681607 6.41559e-16)
(1.04142 -0.000674863 4.21626e-16)
(1.04229 -0.000668136 3.21263e-16)
(1.04316 -0.000661439 -3.04436e-16)
(1.04401 -0.000654786 1.50778e-16)
(1.04486 -0.000648187 1.99987e-16)
(1.0457 -0.000641652 -1.79611e-16)
(1.04653 -0.00063519 -3.6173e-16)
(1.04735 -0.000628807 -3.05044e-16)
(1.04817 -0.00062251 -2.69338e-16)
(1.04897 -0.000616304 -8.25802e-16)
(1.04977 -0.000610192 1.28905e-16)
(1.05056 -0.000604178 -9.38668e-16)
(1.05134 -0.000598265 2.27805e-16)
(1.05212 -0.000592454 -7.01407e-16)
(1.05289 -0.000586747 4.47454e-17)
(1.05365 -0.000581145 -1.34137e-15)
(1.0544 -0.000575647 6.84387e-16)
(1.05514 -0.000570254 1.76163e-16)
(1.05588 -0.000564965 2.83935e-16)
(1.05661 -0.00055978 2.62464e-17)
(1.05734 -0.000554698 4.19329e-17)
(1.05806 -0.000549717 -2.0793e-16)
(1.05877 -0.000544837 -3.54084e-16)
(1.05948 -0.000540055 -3.31082e-16)
(1.06017 -0.00053537 -3.87536e-16)
(1.06087 -0.00053078 -5.33507e-16)
(1.06156 -0.000526283 -1.21323e-16)
(1.06224 -0.000521878 -3.98657e-16)
(1.06291 -0.000517561 -1.52647e-16)
(1.06358 -0.000513332 -3.43365e-16)
(1.06425 -0.000509187 -3.46711e-16)
(1.06491 -0.000505126 -4.2184e-17)
(1.06556 -0.000501145 -4.85017e-16)
(1.06621 -0.000497242 -2.19087e-16)
(1.06686 -0.000493416 -5.51272e-16)
(1.0675 -0.000489663 -1.98259e-16)
(1.06813 -0.000485983 -6.20628e-16)
(1.06876 -0.000482372 7.28029e-17)
(1.06939 -0.00047883 -9.81485e-16)
(1.07001 -0.000475353 1.90522e-16)
(1.07063 -0.000471939 -1.11837e-15)
(1.07124 -0.000468587 3.82716e-16)
(1.07185 -0.000465295 3.86514e-16)
(1.07245 -0.000462061 2.67884e-16)
(1.07305 -0.000458882 2.21957e-16)
(1.07364 -0.000455757 1.88886e-16)
(1.07423 -0.000452685 2.35074e-17)
(1.07482 -0.000449662 1.5641e-16)
(1.0754 -0.000446688 1.94724e-16)
(1.07598 -0.000443761 3.04812e-16)
(1.07656 -0.000440879 6.24305e-17)
(1.07713 -0.000438041 2.89193e-16)
(1.0777 -0.000435244 -2.25303e-16)
(1.07826 -0.000432488 -4.59234e-17)
(1.07882 -0.000429771 -4.76416e-16)
(1.07938 -0.00042709 5.79524e-16)
(1.07994 -0.000424446 -3.93098e-16)
(1.08049 -0.000421837 7.52258e-16)
(1.08103 -0.00041926 -1.9491e-16)
(1.08158 -0.000416715 1.44144e-15)
(1.08212 -0.0004142 -6.2271e-16)
(1.08266 -0.000411714 -1.96728e-16)
(1.08319 -0.000409256 -4.83325e-16)
(1.08372 -0.000406825 2.29852e-18)
(1.08425 -0.000404419 5.85525e-17)
(1.08477 -0.000402037 4.91105e-16)
(1.08529 -0.000399679 -1.16563e-16)
(1.08581 -0.000397342 5.65217e-16)
(1.08633 -0.000395026 5.32176e-16)
(1.08684 -0.00039273 8.81218e-16)
(1.08735 -0.000390453 4.73103e-16)
(1.08786 -0.000388193 7.60582e-16)
(1.08836 -0.00038595 1.0424e-15)
(1.08886 -0.000383723 8.29822e-16)
(1.08936 -0.000381511 1.07306e-15)
(1.08986 -0.000379312 9.1987e-16)
(1.09035 -0.000377127 1.17678e-15)
(1.09084 -0.000374954 1.0055e-15)
(1.09132 -0.000372792 1.47458e-15)
(1.09181 -0.000370641 8.08832e-16)
(1.09229 -0.000368499 1.96084e-15)
(1.09277 -0.000366367 1.51664e-15)
(1.09324 -0.000364243 2.41134e-15)
(1.09371 -0.000362126 1.16044e-15)
(1.09418 -0.000360016 2.84914e-15)
(1.09465 -0.000357913 9.94252e-16)
(1.09512 -0.000355815 9.04681e-16)
(1.09558 -0.000353722 9.43352e-16)
(1.09604 -0.000351634 1.52312e-15)
(1.09649 -0.000349549 1.38462e-15)
(1.09695 -0.000347469 1.75211e-15)
(1.0974 -0.000345391 1.37957e-15)
(1.09784 -0.000343316 2.04746e-15)
(1.09829 -0.000341243 2.01182e-15)
(1.09873 -0.000339172 2.20833e-15)
(1.09917 -0.000337102 2.12013e-15)
(1.09961 -0.000335035 2.34915e-15)
(1.10004 -0.000332968 2.42771e-15)
(1.10048 -0.000330902 2.50287e-15)
(1.10091 -0.000328837 2.5801e-15)
(1.10133 -0.000326773 2.51399e-15)
(1.10176 -0.00032471 2.74756e-15)
(1.10218 -0.000322648 2.56849e-15)
(1.1026 -0.000320588 3.10906e-15)
(1.10301 -0.000318528 2.62415e-15)
(1.10343 -0.00031647 3.36692e-15)
(1.10384 -0.000314415 2.62179e-15)
(1.10424 -0.000312361 3.59317e-15)
(1.10465 -0.000310311 2.23626e-15)
(1.10505 -0.000308264 3.83478e-15)
(1.10545 -0.000306221 2.13886e-15)
(1.10585 -0.000304183 2.41137e-15)
(1.10624 -0.000302152 2.31324e-15)
(1.10663 -0.000300127 2.93766e-15)
(1.10702 -0.00029811 2.71733e-15)
(1.10741 -0.000296103 3.02718e-15)
(1.10779 -0.000294106 2.73349e-15)
(1.10818 -0.000292121 3.02459e-15)
(1.10855 -0.000290151 2.55191e-15)
(1.10893 -0.000288196 3.10615e-15)
(1.1093 -0.000286258 3.00497e-15)
(1.10968 -0.000284341 3.36882e-15)
(1.11004 -0.000282445 3.45797e-15)
(1.11041 -0.000280574 3.53146e-15)
(1.11077 -0.00027873 3.50177e-15)
(1.11114 -0.000276916 3.92053e-15)
(1.1115 -0.000275134 3.43644e-15)
(1.11185 -0.00027339 3.58082e-15)
(1.11221 -0.000271685 3.83764e-15)
(1.11256 -0.000270024 3.71669e-15)
(1.11291 -0.00026841 3.90368e-15)
(1.11326 -0.000266849 3.32896e-15)
(1.1136 -0.000265344 4.1081e-15)
(1.11395 -0.000263901 3.46542e-15)
(1.11429 -0.000262524 4.42512e-15)
(1.11463 -0.00026122 3.2527e-15)
(1.11497 -0.000259994 2.88134e-15)
(1.11531 -0.000258852 3.44868e-15)
(1.11564 -0.000257801 3.02973e-15)
(1.11598 -0.000256848 3.8637e-15)
(1.11631 -0.000256 3.03088e-15)
(1.11665 -0.000255266 4.37593e-15)
(1.11698 -0.000254653 2.80464e-15)
(1.11731 -0.000254171 4.39065e-15)
(1.11764 -0.000253829 2.77949e-15)
(1.11797 -0.000253636 5.27562e-15)
(1.1183 -0.000253604 2.28191e-15)
(1.11863 -0.000253743 5.88779e-15)
(1.11896 -0.000254066 1.51762e-15)
(1.11929 -0.000254583 5.09503e-15)
(1.11962 -0.000255309 -5.26139e-16)
(1.11995 -0.000256258 4.90071e-15)
(1.12029 -0.000257444 1.51845e-16)
(1.12062 -0.000258882 4.63551e-15)
(1.12096 -0.000260588 -3.8473e-16)
(1.1213 -0.000262581 4.23387e-15)
(1.12165 -0.000264878 8.41073e-16)
(1.12199 -0.000267499 3.61241e-15)
(1.12234 -0.000270463 -1.36913e-15)
(1.1227 -0.000273793 3.57453e-15)
(1.12305 -0.000277511 -3.34916e-16)
(1.12342 -0.000281641 3.31914e-15)
(1.12379 -0.000286208 -6.9124e-16)
(1.12416 -0.000291239 3.18627e-15)
(1.12454 -0.000296763 7.48551e-16)
(1.12493 -0.00030281 2.41163e-15)
(1.12533 -0.00030941 -1.1287e-15)
(1.12574 -0.000316598 2.31539e-15)
(1.12616 -0.000324409 4.50427e-16)
(1.12658 -0.00033288 1.50461e-15)
(1.12702 -0.000342051 3.58323e-16)
(1.12747 -0.000351963 6.21024e-16)
(1.12794 -0.00036266 2.57212e-15)
(1.12842 -0.000374189 -1.37521e-15)
(1.12891 -0.000386599 1.96925e-15)
(1.12942 -0.000399941 -3.17811e-15)
(1.12995 -0.00041427 1.88791e-15)
(1.1305 -0.000429643 -2.40533e-15)
(1.13107 -0.000446123 2.02989e-15)
(1.13166 -0.000463771 -2.38284e-15)
(1.13227 -0.000482657 2.03208e-15)
(1.13291 -0.00050285 -1.51846e-15)
(1.13358 -0.000524425 1.51799e-15)
(1.13428 -0.000547461 -3.41385e-15)
(1.13501 -0.000572041 1.86603e-15)
(1.13577 -0.00059825 -2.30037e-15)
(1.13656 -0.000626179 1.52729e-15)
(1.13739 -0.000655922 -2.46525e-15)
(1.13827 -0.00068758 1.16026e-15)
(1.13918 -0.000721255 -1.51464e-15)
(1.14014 -0.000757056 3.17785e-16)
(1.14115 -0.000795094 -3.23109e-15)
(1.14221 -0.000835486 1.13685e-16)
(1.14332 -0.000878354 -2.1049e-15)
(1.1445 -0.000923822 -5.68494e-16)
(1.14573 -0.00097202 -1.5754e-15)
(1.14702 -0.00102308 -1.11439e-15)
(1.14839 -0.00107714 3.62875e-16)
(1.14982 -0.00113434 -2.62487e-15)
(1.15134 -0.00119481 3.94414e-16)
(1.15293 -0.00125871 -4.63094e-15)
(1.15461 -0.00132618 5.88362e-16)
(1.15638 -0.00139737 -3.31475e-15)
(1.15825 -0.00147241 5.67705e-16)
(1.16021 -0.00155146 -3.54648e-15)
(1.16228 -0.00163465 5.2927e-16)
(1.16446 -0.00172212 -2.39272e-15)
(1.16676 -0.001814 -1.59694e-16)
(1.16918 -0.00191041 -4.32135e-15)
(1.17173 -0.00201146 -2.23785e-18)
(1.17441 -0.00211725 -3.18285e-15)
(1.17723 -0.00222787 -5.3136e-17)
(1.1802 -0.00234338 -3.05016e-15)
(1.18333 -0.00246382 -3.51573e-16)
(1.18661 -0.00258923 -1.71273e-15)
(1.19006 -0.00271958 -1.03287e-15)
(1.19368 -0.00285485 -2.8705e-15)
(1.19748 -0.00299497 -1.19832e-15)
(1.20147 -0.00313981 -2.85996e-15)
(1.20565 -0.00328923 -1.80434e-15)
(1.21002 -0.00344303 -2.21723e-15)
(1.2146 -0.00360096 -2.0922e-15)
(1.21939 -0.0037627 -1.54729e-15)
(1.22439 -0.00392789 -3.08497e-15)
(1.2296 -0.00409612 -2.04361e-15)
(1.23504 -0.00426688 -3.6863e-15)
(1.2407 -0.00443963 -1.92793e-15)
(1.24658 -0.00461375 -3.42672e-15)
(1.2527 -0.00478855 -1.46756e-15)
(1.25904 -0.00496327 -3.27581e-15)
(1.26561 -0.0051371 -1.31416e-15)
(1.2724 -0.00530916 -2.89715e-15)
(1.27942 -0.00547853 -1.32546e-15)
(1.28665 -0.00564423 -3.79728e-15)
(1.2941 -0.00580523 -1.10407e-15)
(1.30175 -0.0059605 -2.6834e-15)
(1.30961 -0.00610896 -1.05746e-15)
(1.31765 -0.00624955 -2.6891e-15)
(1.32587 -0.0063812 -9.40042e-16)
(1.33425 -0.00650288 -1.88616e-15)
(1.34279 -0.00661358 -1.05085e-15)
(1.35147 -0.00671237 -2.29172e-15)
(1.36026 -0.00679838 -9.20472e-16)
(1.36916 -0.00687082 -1.96125e-15)
(1.37815 -0.00692903 -7.77975e-16)
(1.38721 -0.00697245 -1.72066e-15)
(1.39631 -0.00700064 -6.95323e-16)
(1.40544 -0.00701333 -1.28153e-15)
(1 -3.63069e-05 -9.44137e-16)
(1.00006 -0.000108748 1.22741e-15)
(1.00017 -0.0001807 9.49692e-18)
(1.00035 -0.000251882 -7.33615e-18)
(1.00058 -0.000322018 -8.57889e-18)
(1.00086 -0.000390822 4.25743e-17)
(1.0012 -0.000458006 5.54845e-17)
(1.00159 -0.000523291 8.48056e-18)
(1.00204 -0.000586429 -4.39071e-17)
(1.00253 -0.000647201 -4.54739e-16)
(1.00308 -0.00070542 -6.6594e-17)
(1.00366 -0.000760924 -7.08153e-17)
(1.00429 -0.00081358 -2.83296e-16)
(1.00497 -0.000863275 4.25069e-17)
(1.00568 -0.000909926 -3.94578e-16)
(1.00643 -0.000953474 -7.64206e-17)
(1.00721 -0.000993886 -5.55878e-16)
(1.00802 -0.00103116 -8.23457e-17)
(1.00886 -0.0010653 -5.55468e-16)
(1.00972 -0.00109635 6.63193e-17)
(1.01062 -0.00112436 -5.85761e-16)
(1.01153 -0.00114942 2.88676e-16)
(1.01246 -0.00117161 -8.39796e-16)
(1.0134 -0.00119103 4.93845e-16)
(1.01436 -0.00120779 2.576e-16)
(1.01534 -0.00122203 5.97983e-16)
(1.01632 -0.00123386 -4.07302e-16)
(1.01731 -0.00124342 7.421e-16)
(1.01831 -0.00125085 -7.97548e-16)
(1.01932 -0.00125629 -6.94855e-16)
(1.02032 -0.00125987 -8.59478e-16)
(1.02133 -0.00126174 -3.57227e-16)
(1.02234 -0.00126203 -1.09451e-15)
(1.02335 -0.00126087 -8.58704e-17)
(1.02436 -0.00125839 -1.56621e-15)
(1.02536 -0.00125471 -9.88638e-16)
(1.02637 -0.00124995 -1.28468e-15)
(1.02736 -0.00124422 -1.01136e-15)
(1.02836 -0.00123762 -1.56545e-15)
(1.02934 -0.00123026 -6.32469e-16)
(1.03032 -0.00122223 -1.83842e-15)
(1.0313 -0.00121362 -1.80311e-15)
(1.03226 -0.0012045 -1.41697e-15)
(1.03322 -0.00119494 -1.61317e-15)
(1.03418 -0.00118503 -1.59669e-15)
(1.03512 -0.00117481 -1.66592e-15)
(1.03605 -0.00116435 -1.47754e-15)
(1.03698 -0.0011537 -1.77091e-15)
(1.0379 -0.00114291 -1.39576e-15)
(1.03881 -0.00113201 -1.5167e-15)
(1.03971 -0.00112105 -1.3992e-15)
(1.0406 -0.00111006 -1.5508e-15)
(1.04148 -0.00109907 -1.40405e-15)
(1.04236 -0.0010881 -1.56455e-15)
(1.04322 -0.00107719 -1.47694e-15)
(1.04408 -0.00106635 -1.29671e-15)
(1.04492 -0.00105559 -1.38033e-15)
(1.04576 -0.00104495 -1.48424e-15)
(1.04659 -0.00103442 -1.61718e-15)
(1.04742 -0.00102402 -1.66511e-15)
(1.04823 -0.00101376 -1.48184e-15)
(1.04904 -0.00100365 -1.63292e-15)
(1.04983 -0.000993697 -1.64463e-15)
(1.05062 -0.000983902 -1.70232e-15)
(1.05141 -0.000974271 -1.58176e-15)
(1.05218 -0.000964807 -1.55425e-15)
(1.05295 -0.000955512 -1.55507e-15)
(1.05371 -0.000946388 -1.74242e-15)
(1.05446 -0.000937434 -1.44011e-15)
(1.05521 -0.000928652 -1.87357e-15)
(1.05594 -0.000920039 -1.31366e-15)
(1.05668 -0.000911596 -2.13914e-15)
(1.0574 -0.00090332 -8.64767e-16)
(1.05812 -0.000895209 -1.39006e-15)
(1.05883 -0.000887262 -7.6535e-16)
(1.05954 -0.000879475 -1.71555e-15)
(1.06024 -0.000871846 -2.81561e-16)
(1.06093 -0.000864373 -8.27972e-16)
(1.06162 -0.00085705 -4.50753e-16)
(1.0623 -0.000849877 -1.24917e-15)
(1.06298 -0.000842848 -1.18918e-16)
(1.06365 -0.000835962 -2.89793e-16)
(1.06431 -0.000829213 -1.57756e-16)
(1.06497 -0.0008226 -3.28952e-16)
(1.06563 -0.000816118 -3.11774e-16)
(1.06627 -0.000809763 -5.79396e-16)
(1.06692 -0.000803533 -3.96711e-16)
(1.06756 -0.000797423 -6.65382e-16)
(1.06819 -0.000791431 -2.19825e-16)
(1.06882 -0.000785552 -6.71412e-16)
(1.06945 -0.000779784 -4.5117e-16)
(1.07007 -0.000774122 -7.87314e-16)
(1.07069 -0.000768564 -4.38083e-16)
(1.0713 -0.000763107 -9.28897e-16)
(1.07191 -0.000757746 -5.24643e-16)
(1.07251 -0.00075248 -8.38498e-16)
(1.07311 -0.000747304 -5.3577e-16)
(1.0737 -0.000742216 -7.27259e-16)
(1.07429 -0.000737213 6.65379e-16)
(1.07488 -0.000732292 -1.15795e-15)
(1.07546 -0.00072745 1.20354e-15)
(1.07604 -0.000722684 -5.27702e-16)
(1.07662 -0.000717991 1.3749e-15)
(1.07719 -0.000713369 2.02207e-16)
(1.07776 -0.000708816 1.66868e-15)
(1.07832 -0.000704328 5.9101e-16)
(1.07888 -0.000699904 1.72598e-15)
(1.07944 -0.00069554 1.30346e-15)
(1.08 -0.000691234 1.83e-15)
(1.08055 -0.000686985 2.303e-15)
(1.08109 -0.000682789 1.41811e-15)
(1.08164 -0.000678645 3.51726e-15)
(1.08218 -0.00067455 8.86181e-16)
(1.08271 -0.000670503 3.65385e-15)
(1.08325 -0.000666501 1.23538e-15)
(1.08378 -0.000662542 4.06751e-15)
(1.08431 -0.000658624 1.60546e-15)
(1.08483 -0.000654746 3.91115e-15)
(1.08535 -0.000650906 1.6677e-15)
(1.08587 -0.000647101 4.34057e-15)
(1.08639 -0.00064333 1.96059e-15)
(1.0869 -0.000639591 4.63177e-15)
(1.08741 -0.000635883 2.49159e-15)
(1.08792 -0.000632203 4.79581e-15)
(1.08842 -0.000628551 2.79472e-15)
(1.08892 -0.000624925 4.82083e-15)
(1.08942 -0.000621322 2.89862e-15)
(1.08991 -0.000617743 4.85924e-15)
(1.09041 -0.000614184 3.48258e-15)
(1.0909 -0.000610645 5.00317e-15)
(1.09138 -0.000607125 3.60623e-15)
(1.09187 -0.000603622 4.96445e-15)
(1.09235 -0.000600135 4.15478e-15)
(1.09282 -0.000596663 4.7582e-15)
(1.0933 -0.000593204 4.73787e-15)
(1.09377 -0.000589757 4.29926e-15)
(1.09424 -0.000586321 5.44066e-15)
(1.09471 -0.000582896 3.7897e-15)
(1.09517 -0.00057948 5.2267e-15)
(1.09564 -0.000576072 4.15433e-15)
(1.09609 -0.000572671 6.43085e-15)
(1.09655 -0.000569277 4.35341e-15)
(1.097 -0.000565888 6.43691e-15)
(1.09746 -0.000562505 4.51815e-15)
(1.0979 -0.000559125 6.23793e-15)
(1.09835 -0.00055575 4.58918e-15)
(1.09879 -0.000552377 5.97221e-15)
(1.09923 -0.000549007 5.12475e-15)
(1.09967 -0.000545639 7.1008e-15)
(1.1001 -0.000542273 5.17245e-15)
(1.10054 -0.000538909 6.85521e-15)
(1.10096 -0.000535546 5.54014e-15)
(1.10139 -0.000532185 6.92552e-15)
(1.10182 -0.000528825 5.89276e-15)
(1.10224 -0.000525467 6.65131e-15)
(1.10266 -0.00052211 6.33171e-15)
(1.10307 -0.000518756 7.37671e-15)
(1.10348 -0.000515404 6.53883e-15)
(1.10389 -0.000512056 6.96518e-15)
(1.1043 -0.000508711 6.81892e-15)
(1.10471 -0.000505371 6.3046e-15)
(1.10511 -0.000502037 7.26103e-15)
(1.10551 -0.000498709 5.53299e-15)
(1.10591 -0.00049539 7.30722e-15)
(1.1063 -0.00049208 5.88316e-15)
(1.10669 -0.000488781 8.14474e-15)
(1.10708 -0.000485496 6.07171e-15)
(1.10747 -0.000482226 8.00668e-15)
(1.10785 -0.000478972 6.09604e-15)
(1.10823 -0.000475739 7.67085e-15)
(1.10861 -0.000472528 5.97331e-15)
(1.10899 -0.000469342 7.37078e-15)
(1.10936 -0.000466185 6.25892e-15)
(1.10973 -0.00046306 8.30899e-15)
(1.1101 -0.000459971 6.3979e-15)
(1.11047 -0.000456921 8.31541e-15)
(1.11083 -0.000453915 6.59627e-15)
(1.1112 -0.000450958 7.94249e-15)
(1.11155 -0.000448055 6.85015e-15)
(1.11191 -0.00044521 7.43862e-15)
(1.11227 -0.000442431 7.01675e-15)
(1.11262 -0.000439722 8.08061e-15)
(1.11297 -0.000437091 7.07796e-15)
(1.11332 -0.000434544 7.76588e-15)
(1.11366 -0.000432089 7.42337e-15)
(1.11401 -0.000429734 7.44518e-15)
(1.11435 -0.000427487 8.12729e-15)
(1.11469 -0.000425358 6.60969e-15)
(1.11503 -0.000423356 7.47129e-15)
(1.11537 -0.00042149 6.8396e-15)
(1.1157 -0.000419773 8.26271e-15)
(1.11604 -0.000418214 7.04112e-15)
(1.11637 -0.000416827 8.08601e-15)
(1.1167 -0.000415624 7.07067e-15)
(1.11703 -0.000414619 7.73205e-15)
(1.11737 -0.000413825 7.41335e-15)
(1.1177 -0.00041326 7.41225e-15)
(1.11803 -0.000412937 8.10022e-15)
(1.11836 -0.000412875 7.88564e-15)
(1.11869 -0.000413092 8.18576e-15)
(1.11902 -0.000413606 7.20422e-15)
(1.11935 -0.000414438 7.74544e-15)
(1.11968 -0.000415609 6.67377e-15)
(1.12001 -0.000417141 7.12726e-15)
(1.12034 -0.000419059 6.22069e-15)
(1.12068 -0.000421386 6.6454e-15)
(1.12102 -0.000424151 5.65728e-15)
(1.12136 -0.000427381 6.05489e-15)
(1.1217 -0.000431105 5.39662e-15)
(1.12204 -0.000435356 5.80636e-15)
(1.12239 -0.000440165 5.0191e-15)
(1.12275 -0.000445568 5.4408e-15)
(1.12311 -0.000451602 4.83096e-15)
(1.12347 -0.000458306 4.96436e-15)
(1.12384 -0.000465721 4.69889e-15)
(1.12421 -0.000473891 4.69692e-15)
(1.12459 -0.000482861 4.54766e-15)
(1.12498 -0.000492681 4.55905e-15)
(1.12538 -0.000503401 4.43226e-15)
(1.12579 -0.000515077 4.1278e-15)
(1.1262 -0.000527766 4.25702e-15)
(1.12663 -0.000541527 3.77464e-15)
(1.12707 -0.000556427 4.13494e-15)
(1.12752 -0.000572531 3.33238e-15)
(1.12798 -0.000589912 4.05839e-15)
(1.12846 -0.000608645 3.16315e-15)
(1.12895 -0.00062881 3.75034e-15)
(1.12946 -0.000650491 2.92495e-15)
(1.12999 -0.000673777 3.44423e-15)
(1.13054 -0.000698762 2.825e-15)
(1.1311 -0.000725545 3.52188e-15)
(1.13169 -0.000754228 2.88022e-15)
(1.13231 -0.000784923 3.23247e-15)
(1.13295 -0.000817745 2.81673e-15)
(1.13361 -0.000852814 3.08693e-15)
(1.13431 -0.000890259 2.38175e-15)
(1.13503 -0.000930213 2.79713e-15)
(1.13579 -0.000972818 2.36838e-15)
(1.13658 -0.00101822 2.6095e-15)
(1.13741 -0.00106657 2.26277e-15)