/*--------------------------------*- C++ -*----------------------------------*\
  =========                 |
  \\      /  F ield         | OpenFOAM: The Open Source CFD Toolbox
   \\    /   O peration     | Website:  https://openfoam.org
    \\  /    A nd           | Version:  7
     \\/     M anipulation  |
\*---------------------------------------------------------------------------*/
FoamFile
{
    version     2.0;
    format      ascii;
    class       volScalarField;
    location    "160";
    object      p;
}
// * * * * * * * * * * * * * * * * * * * * * * * * * * * * * * * * * * * * * //

dimensions      [0 2 -2 0 0 0 0];

internalField   nonuniform List<scalar> 
15000
(
-0.411043
-0.411317
-0.411585
-0.411832
-0.412073
-0.412311
-0.412542
-0.412766
-0.41298
-0.413185
-0.413382
-0.413572
-0.413756
-0.413936
-0.414117
-0.414301
-0.414492
-0.414696
-0.414917
-0.41516
-0.415429
-0.415732
-0.416072
-0.416454
-0.416884
-0.417367
-0.417907
-0.418511
-0.419184
-0.419934
-0.420769
-0.421699
-0.422736
-0.423896
-0.425194
-0.426656
-0.428316
-0.43015
-0.432037
-0.434612
-0.407571
-0.407895
-0.40821
-0.408499
-0.40878
-0.409055
-0.409321
-0.409577
-0.409822
-0.410055
-0.410277
-0.410488
-0.410691
-0.410886
-0.411078
-0.411269
-0.411462
-0.411662
-0.411873
-0.412099
-0.412344
-0.412613
-0.412908
-0.413235
-0.413597
-0.413997
-0.414438
-0.414925
-0.41546
-0.416049
-0.416697
-0.417411
-0.418199
-0.419071
-0.420039
-0.421122
-0.422348
-0.42368
-0.424988
-0.426928
-0.404168
-0.40454
-0.4049
-0.405229
-0.405547
-0.405857
-0.406157
-0.406444
-0.406718
-0.406977
-0.407222
-0.407453
-0.407673
-0.407882
-0.408083
-0.408278
-0.408472
-0.408666
-0.408864
-0.409071
-0.409289
-0.40952
-0.409769
-0.410037
-0.410327
-0.41064
-0.410977
-0.411341
-0.411732
-0.412153
-0.412606
-0.413094
-0.413621
-0.414194
-0.414818
-0.415507
-0.416282
-0.417096
-0.417801
-0.419085
-0.400862
-0.40128
-0.401684
-0.40205
-0.402403
-0.402747
-0.403079
-0.403395
-0.403695
-0.403978
-0.404244
-0.404494
-0.404729
-0.404949
-0.405158
-0.405357
-0.405548
-0.405735
-0.405919
-0.406104
-0.406292
-0.406485
-0.406685
-0.406891
-0.407106
-0.407329
-0.407559
-0.407796
-0.408039
-0.408286
-0.408538
-0.408794
-0.409054
-0.409319
-0.40959
-0.409875
-0.410189
-0.410473
-0.410561
-0.41118
-0.397683
-0.398145
-0.39859
-0.398991
-0.399377
-0.399753
-0.400113
-0.400456
-0.400781
-0.401086
-0.401372
-0.401638
-0.401886
-0.402117
-0.402331
-0.402531
-0.402719
-0.402897
-0.403066
-0.403228
-0.403385
-0.403537
-0.403686
-0.403829
-0.403967
-0.404097
-0.404218
-0.404326
-0.404418
-0.404489
-0.404537
-0.404557
-0.404546
-0.404498
-0.40441
-0.404286
-0.404135
-0.403885
-0.403352
-0.403307
-0.394661
-0.395163
-0.395646
-0.39608
-0.396497
-0.396901
-0.397288
-0.397656
-0.398003
-0.398328
-0.398631
-0.398912
-0.399172
-0.39941
-0.399629
-0.399829
-0.400012
-0.400179
-0.400331
-0.40047
-0.400594
-0.400705
-0.400801
-0.400881
-0.400941
-0.400978
-0.400988
-0.400966
-0.400906
-0.4008
-0.400642
-0.400425
-0.40014
-0.399778
-0.399331
-0.398797
-0.398182
-0.397402
-0.396251
-0.395551
-0.391824
-0.392362
-0.392879
-0.393344
-0.393788
-0.394218
-0.39463
-0.395019
-0.395386
-0.395729
-0.396048
-0.396341
-0.396611
-0.396855
-0.397077
-0.397276
-0.397452
-0.397608
-0.397742
-0.397856
-0.397948
-0.398017
-0.39806
-0.398075
-0.398057
-0.398002
-0.397901
-0.397749
-0.397537
-0.397254
-0.396891
-0.396437
-0.395879
-0.395205
-0.394401
-0.393461
-0.392387
-0.391085
-0.389328
-0.387993
-0.389197
-0.389769
-0.390317
-0.390808
-0.391277
-0.39173
-0.392163
-0.392572
-0.392956
-0.393314
-0.393646
-0.39395
-0.394227
-0.394477
-0.3947
-0.394896
-0.395065
-0.395208
-0.395324
-0.395412
-0.395471
-0.395497
-0.395488
-0.395439
-0.395344
-0.395196
-0.394986
-0.394705
-0.394342
-0.393885
-0.393319
-0.39263
-0.391802
-0.390819
-0.389663
-0.388323
-0.3868
-0.384991
-0.382644
-0.380702
-0.386805
-0.387407
-0.387982
-0.388496
-0.388986
-0.389459
-0.38991
-0.390336
-0.390735
-0.391107
-0.391449
-0.391762
-0.392045
-0.392297
-0.39252
-0.392712
-0.392873
-0.393002
-0.393099
-0.393161
-0.393187
-0.393171
-0.39311
-0.392998
-0.392826
-0.392587
-0.39227
-0.391863
-0.391352
-0.390721
-0.389956
-0.389036
-0.387943
-0.386656
-0.385154
-0.383424
-0.381464
-0.379165
-0.376252
-0.373735
-0.384673
-0.385299
-0.385897
-0.38643
-0.386938
-0.387428
-0.387894
-0.388334
-0.388745
-0.389126
-0.389477
-0.389796
-0.390083
-0.390337
-0.390557
-0.390744
-0.390895
-0.391011
-0.391088
-0.391124
-0.391116
-0.391059
-0.390947
-0.390773
-0.390527
-0.3902
-0.389778
-0.389247
-0.388591
-0.387792
-0.386831
-0.385685
-0.384333
-0.382749
-0.380909
-0.378799
-0.376415
-0.373646
-0.370193
-0.367137
-0.382819
-0.383465
-0.384081
-0.384631
-0.385153
-0.385655
-0.386133
-0.386583
-0.387003
-0.387392
-0.387748
-0.388071
-0.38836
-0.388613
-0.388831
-0.389011
-0.389152
-0.389252
-0.38931
-0.38932
-0.38928
-0.389182
-0.38902
-0.388786
-0.388468
-0.388054
-0.38753
-0.38688
-0.386084
-0.385121
-0.38397
-0.382605
-0.381
-0.379126
-0.376957
-0.374476
-0.371684
-0.368463
-0.364497
-0.360939
-0.381262
-0.381924
-0.382553
-0.383114
-0.383646
-0.384158
-0.384644
-0.3851
-0.385526
-0.385919
-0.386279
-0.386603
-0.386892
-0.387143
-0.387355
-0.387527
-0.387657
-0.387742
-0.38778
-0.387764
-0.387692
-0.387555
-0.387345
-0.387052
-0.386665
-0.386169
-0.385547
-0.384782
-0.383851
-0.382731
-0.381397
-0.379819
-0.377967
-0.375812
-0.373323
-0.370482
-0.367293
-0.36364
-0.359186
-0.355163
-0.380018
-0.380688
-0.381326
-0.381893
-0.382431
-0.382948
-0.383438
-0.383898
-0.384326
-0.384721
-0.385081
-0.385404
-0.38569
-0.385937
-0.386143
-0.386306
-0.386423
-0.386493
-0.38651
-0.38647
-0.386366
-0.386191
-0.385935
-0.385587
-0.385134
-0.38456
-0.383846
-0.382971
-0.381912
-0.380642
-0.379131
-0.377348
-0.375259
-0.37283
-0.370029
-0.366837
-0.363262
-0.359191
-0.35427
-0.349812
-0.379097
-0.379771
-0.380412
-0.380981
-0.38152
-0.382037
-0.382527
-0.382987
-0.383414
-0.383807
-0.384164
-0.384483
-0.384764
-0.385005
-0.385202
-0.385355
-0.38546
-0.385513
-0.38551
-0.385445
-0.385311
-0.3851
-0.384801
-0.384402
-0.383887
-0.383239
-0.382438
-0.381461
-0.380281
-0.378868
-0.37719
-0.37521
-0.372893
-0.3702
-0.367094
-0.363558
-0.359605
-0.355128
-0.349756
-0.344882
-0.378507
-0.379179
-0.379817
-0.380383
-0.380918
-0.381431
-0.381917
-0.382372
-0.382794
-0.383182
-0.383533
-0.383846
-0.38412
-0.384352
-0.384539
-0.38468
-0.384771
-0.384808
-0.384785
-0.384696
-0.384535
-0.38429
-0.38395
-0.383503
-0.382931
-0.382215
-0.381334
-0.380262
-0.378969
-0.377423
-0.375587
-0.373422
-0.370886
-0.367938
-0.364536
-0.360663
-0.356336
-0.351458
-0.345643
-0.340355
-0.378254
-0.378916
-0.379545
-0.380102
-0.380629
-0.381134
-0.381611
-0.382057
-0.382471
-0.38285
-0.383192
-0.383496
-0.383759
-0.38398
-0.384156
-0.384284
-0.38436
-0.38438
-0.384338
-0.384227
-0.384038
-0.383761
-0.383385
-0.382893
-0.382269
-0.381491
-0.380537
-0.379378
-0.377982
-0.376313
-0.374331
-0.371992
-0.36925
-0.366057
-0.362369
-0.358163
-0.353462
-0.348184
-0.341928
-0.336196
-0.378341
-0.378987
-0.3796
-0.380143
-0.380657
-0.381147
-0.381611
-0.382044
-0.382445
-0.382811
-0.38314
-0.383431
-0.383682
-0.38389
-0.384052
-0.384165
-0.384225
-0.384227
-0.384165
-0.384032
-0.383817
-0.383511
-0.3831
-0.382569
-0.381897
-0.381065
-0.380045
-0.378808
-0.377319
-0.375539
-0.373424
-0.370925
-0.36799
-0.364565
-0.3606
-0.356066
-0.350987
-0.3453
-0.338586
-0.332294
-0.378757
-0.379381
-0.379973
-0.380497
-0.380992
-0.381464
-0.38191
-0.382325
-0.382708
-0.383057
-0.38337
-0.383645
-0.38388
-0.384072
-0.384218
-0.384314
-0.384357
-0.384341
-0.384259
-0.384104
-0.383865
-0.383532
-0.38309
-0.382522
-0.381809
-0.380927
-0.37985
-0.378544
-0.376973
-0.375095
-0.37286
-0.370216
-0.367104
-0.363463
-0.359234
-0.354377
-0.348913
-0.342806
-0.335612
-0.328459
-0.379494
-0.38009
-0.380655
-0.381154
-0.381624
-0.382073
-0.382496
-0.382889
-0.383251
-0.38358
-0.383873
-0.384128
-0.384344
-0.384517
-0.384645
-0.384723
-0.384747
-0.384711
-0.384609
-0.384432
-0.38417
-0.38381
-0.383339
-0.382739
-0.381989
-0.381064
-0.379936
-0.378571
-0.376929
-0.374964
-0.372625
-0.369851
-0.366579
-0.36274
-0.358264
-0.3531
-0.347262
-0.340745
-0.333133
-0.324945
-0.380544
-0.381105
-0.381636
-0.382105
-0.382546
-0.382967
-0.383363
-0.383729
-0.384065
-0.384369
-0.384638
-0.38487
-0.385063
-0.385214
-0.38532
-0.385377
-0.385379
-0.385322
-0.385198
-0.384999
-0.384713
-0.384329
-0.383831
-0.3832
-0.382417
-0.381454
-0.380281
-0.378864
-0.37716
-0.375121
-0.37269
-0.369804
-0.36639
-0.362372
-0.35767
-0.352221
-0.346032
-0.339067
-0.330802
-0.322645
-0.381891
-0.382411
-0.382903
-0.383337
-0.383745
-0.384132
-0.384495
-0.384831
-0.385136
-0.385411
-0.385651
-0.385856
-0.386022
-0.386147
-0.386228
-0.38626
-0.386238
-0.386157
-0.386009
-0.385786
-0.385475
-0.385065
-0.38454
-0.383881
-0.383066
-0.382068
-0.380856
-0.379393
-0.377635
-0.37553
-0.37302
-0.370035
-0.366497
-0.36232
-0.357413
-0.3517
-0.345179
-0.337775
-0.328899
-0.320453
-0.38352
-0.383995
-0.384443
-0.384836
-0.385205
-0.385554
-0.385879
-0.386178
-0.386449
-0.386689
-0.386896
-0.387069
-0.387204
-0.387298
-0.38735
-0.387353
-0.387304
-0.387195
-0.38702
-0.386769
-0.386432
-0.385994
-0.385441
-0.384752
-0.383906
-0.382874
-0.381624
-0.380119
-0.378311
-0.376149
-0.373568
-0.370496
-0.366847
-0.362529
-0.357438
-0.351482
-0.344643
-0.336825
-0.327362
-0.318318
-0.385409
-0.385833
-0.386232
-0.386582
-0.386907
-0.387214
-0.387497
-0.387755
-0.387985
-0.388186
-0.388355
-0.388491
-0.38859
-0.38865
-0.388666
-0.388636
-0.388554
-0.388413
-0.388207
-0.387925
-0.387557
-0.387088
-0.386504
-0.385783
-0.384903
-0.383836
-0.382548
-0.381001
-0.379146
-0.376928
-0.374282
-0.37113
-0.367382
-0.362936
-0.357677
-0.351498
-0.344358
-0.336146
-0.326107
-0.316277
-0.387536
-0.387905
-0.388251
-0.388553
-0.388832
-0.389092
-0.38933
-0.389542
-0.389728
-0.389885
-0.390011
-0.390104
-0.390162
-0.390181
-0.390158
-0.390089
-0.389968
-0.38979
-0.389546
-0.389228
-0.388823
-0.388319
-0.387698
-0.386941
-0.386023
-0.384917
-0.383588
-0.381996
-0.380092
-0.377819
-0.375108
-0.371879
-0.368037
-0.363473
-0.358061
-0.351675
-0.344251
-0.335665
-0.325065
-0.314293
-0.389878
-0.39019
-0.39048
-0.390731
-0.39096
-0.39117
-0.391358
-0.391522
-0.391658
-0.391767
-0.391845
-0.391891
-0.391901
-0.391874
-0.391805
-0.39169
-0.391525
-0.391302
-0.391015
-0.390653
-0.390206
-0.389659
-0.388995
-0.388195
-0.387233
-0.386082
-0.384706
-0.383064
-0.381107
-0.378774
-0.375997
-0.37269
-0.368756
-0.364078
-0.358522
-0.351945
-0.344254
-0.335313
-0.32418
-0.312332
-0.392417
-0.392669
-0.392902
-0.393098
-0.393274
-0.393431
-0.393565
-0.393676
-0.39376
-0.393815
-0.393841
-0.393833
-0.393791
-0.393711
-0.393589
-0.393422
-0.393205
-0.392931
-0.392592
-0.392179
-0.391681
-0.391083
-0.390369
-0.389517
-0.388504
-0.3873
-0.38587
-0.384171
-0.382153
-0.379755
-0.376906
-0.373519
-0.369493
-0.364706
-0.359015
-0.35226
-0.344321
-0.335055
-0.32344
-0.310423
-0.395135
-0.395326
-0.395499
-0.39564
-0.39576
-0.395861
-0.395939
-0.395992
-0.396018
-0.396016
-0.395983
-0.395918
-0.395817
-0.395677
-0.395497
-0.39527
-0.394993
-0.394659
-0.39426
-0.393788
-0.39323
-0.392572
-0.391797
-0.390886
-0.389812
-0.388546
-0.387052
-0.385288
-0.383202
-0.380733
-0.377808
-0.374339
-0.370221
-0.36533
-0.359516
-0.352602
-0.344441
-0.334881
-0.322847
-0.308603
-0.398016
-0.398147
-0.398259
-0.398343
-0.398406
-0.398448
-0.398466
-0.398459
-0.398424
-0.398359
-0.398262
-0.398132
-0.397966
-0.397761
-0.397514
-0.39722
-0.396875
-0.396473
-0.396006
-0.395464
-0.394837
-0.39411
-0.393266
-0.392284
-0.39114
-0.389803
-0.388237
-0.386399
-0.384238
-0.381691
-0.378687
-0.375135
-0.370933
-0.365953
-0.36004
-0.353002
-0.344654
-0.334805
-0.322246
-0.306558
-0.401051
-0.401121
-0.401173
-0.401199
-0.401203
-0.401184
-0.40114
-0.401069
-0.400968
-0.400836
-0.400671
-0.40047
-0.400233
-0.399955
-0.399634
-0.399265
-0.398845
-0.398366
-0.397821
-0.397201
-0.396495
-0.395689
-0.394765
-0.393704
-0.392479
-0.391062
-0.389415
-0.387495
-0.385252
-0.382625
-0.37954
-0.375914
-0.371643
-0.366607
-0.360653
-0.353586
-0.345192
-0.335134
-0.321734
-0.304149
-0.404234
-0.404243
-0.404234
-0.404201
-0.404146
-0.404064
-0.403956
-0.403817
-0.403647
-0.403444
-0.403205
-0.402929
-0.402614
-0.402256
-0.401853
-0.401402
-0.400897
-0.400333
-0.399703
-0.398996
-0.398202
-0.397307
-0.396294
-0.395144
-0.39383
-0.392322
-0.390586
-0.388578
-0.386248
-0.383537
-0.380376
-0.376685
-0.372372
-0.36733
-0.361434
-0.354535
-0.346476
-0.336857
-0.32371
-0.306991
-0.407562
-0.407511
-0.407442
-0.407351
-0.407234
-0.407088
-0.406912
-0.406704
-0.406462
-0.406183
-0.405866
-0.405509
-0.40511
-0.404667
-0.404176
-0.403634
-0.403037
-0.402379
-0.401654
-0.400851
-0.399961
-0.398969
-0.397859
-0.39661
-0.395197
-0.393592
-0.391759
-0.389655
-0.387233
-0.384436
-0.3812
-0.377454
-0.373119
-0.368116
-0.362364
-0.355804
-0.348433
-0.340205
-0.331301
-0.330079
-0.41104
-0.410931
-0.410801
-0.41065
-0.410471
-0.410259
-0.410014
-0.409734
-0.409415
-0.409057
-0.408658
-0.408215
-0.407727
-0.407192
-0.406606
-0.405967
-0.405271
-0.404512
-0.403683
-0.402777
-0.401782
-0.400685
-0.399469
-0.398114
-0.396595
-0.394884
-0.392946
-0.390741
-0.388221
-0.385333
-0.38202
-0.37822
-0.373869
-0.368913
-0.363314
-0.357084
-0.350331
-0.343241
-0.336438
-0.33714
-0.414677
-0.414509
-0.414318
-0.414108
-0.413865
-0.413586
-0.413269
-0.412913
-0.412516
-0.412075
-0.411589
-0.411056
-0.410474
-0.409841
-0.409156
-0.408414
-0.407612
-0.406745
-0.405806
-0.404789
-0.403681
-0.402471
-0.401142
-0.399673
-0.398041
-0.396217
-0.394166
-0.391851
-0.389225
-0.386239
-0.382841
-0.378976
-0.374597
-0.369667
-0.364181
-0.358189
-0.351844
-0.34541
-0.339412
-0.339002
-0.418486
-0.418259
-0.418007
-0.417735
-0.417427
-0.417079
-0.416688
-0.416254
-0.415775
-0.415247
-0.41467
-0.414043
-0.413363
-0.412628
-0.411838
-0.410987
-0.410074
-0.409094
-0.40804
-0.406905
-0.405679
-0.404348
-0.402898
-0.401308
-0.399554
-0.397609
-0.395438
-0.393002
-0.39026
-0.387163
-0.383664
-0.379715
-0.375278
-0.370332
-0.364885
-0.359002
-0.352836
-0.346627
-0.340725
-0.338661
-0.422484
-0.422196
-0.421881
-0.421546
-0.421172
-0.420752
-0.420285
-0.41977
-0.419205
-0.418588
-0.417918
-0.417192
-0.416409
-0.415569
-0.414668
-0.413705
-0.412677
-0.411578
-0.410404
-0.409146
-0.407795
-0.406339
-0.404761
-0.403042
-0.401158
-0.399082
-0.396779
-0.394212
-0.391338
-0.388111
-0.384488
-0.380424
-0.375889
-0.370866
-0.365371
-0.359464
-0.35327
-0.346973
-0.34077
-0.337007
-0.426687
-0.426338
-0.425958
-0.425558
-0.425115
-0.424621
-0.424076
-0.423477
-0.422824
-0.422114
-0.421346
-0.420519
-0.419631
-0.418681
-0.417667
-0.416588
-0.415439
-0.414218
-0.412919
-0.411534
-0.410054
-0.408465
-0.406753
-0.404898
-0.402875
-0.400657
-0.398209
-0.395493
-0.392467
-0.389087
-0.385309
-0.381093
-0.376409
-0.371244
-0.365611
-0.359558
-0.353177
-0.346593
-0.339901
-0.334621
-0.431118
-0.430703
-0.430256
-0.429789
-0.429274
-0.428703
-0.428076
-0.427391
-0.426647
-0.425842
-0.424974
-0.424042
-0.423045
-0.421983
-0.420853
-0.419654
-0.418383
-0.417036
-0.415607
-0.414091
-0.412475
-0.410749
-0.408896
-0.406896
-0.404724
-0.402349
-0.399739
-0.396854
-0.393652
-0.390088
-0.386119
-0.381707
-0.376821
-0.371448
-0.365595
-0.359297
-0.352617
-0.345634
-0.338387
-0.331836
-0.435794
-0.435312
-0.434794
-0.434255
-0.433665
-0.433015
-0.432303
-0.431529
-0.430692
-0.429788
-0.428817
-0.427779
-0.426671
-0.425493
-0.424245
-0.422924
-0.421527
-0.42005
-0.418489
-0.416836
-0.415081
-0.413211
-0.411208
-0.409052
-0.406717
-0.404171
-0.401379
-0.398301
-0.394893
-0.39111
-0.38691
-0.382254
-0.377111
-0.371467
-0.365324
-0.358707
-0.351657
-0.344224
-0.336423
-0.328851
-0.440736
-0.44018
-0.439587
-0.438974
-0.438306
-0.437572
-0.436773
-0.435907
-0.434973
-0.433968
-0.432893
-0.431745
-0.430524
-0.42923
-0.427861
-0.426415
-0.424889
-0.423281
-0.421583
-0.419789
-0.417888
-0.415865
-0.413703
-0.411378
-0.408864
-0.406126
-0.403128
-0.399828
-0.396182
-0.392143
-0.387668
-0.382719
-0.377267
-0.371297
-0.364808
-0.357819
-0.350361
-0.342468
-0.334148
-0.325776
-0.445958
-0.445324
-0.444651
-0.44396
-0.44321
-0.44239
-0.4415
-0.440539
-0.439505
-0.438397
-0.437215
-0.435956
-0.434621
-0.433207
-0.431716
-0.430143
-0.428486
-0.426742
-0.424904
-0.422963
-0.420908
-0.418724
-0.416389
-0.41388
-0.411166
-0.408214
-0.404982
-0.401428
-0.397506
-0.393169
-0.388375
-0.383087
-0.377278
-0.370934
-0.364057
-0.356663
-0.348781
-0.34044
-0.331652
-0.322663
-0.451473
-0.450756
-0.449998
-0.449224
-0.448388
-0.447478
-0.446494
-0.445435
-0.4443
-0.443087
-0.441795
-0.440424
-0.438972
-0.437438
-0.435821
-0.434119
-0.432329
-0.430445
-0.428461
-0.426367
-0.424149
-0.42179
-0.419268
-0.416555
-0.41362
-0.410425
-0.406928
-0.403084
-0.398846
-0.39417
-0.389013
-0.383342
-0.377133
-0.370379
-0.363083
-0.355267
-0.346959
-0.338195
-0.328993
-0.319531
-0.457289
-0.456483
-0.455635
-0.454774
-0.453848
-0.452844
-0.451763
-0.450604
-0.449365
-0.448045
-0.446642
-0.445157
-0.443586
-0.44193
-0.440187
-0.438353
-0.436425
-0.434397
-0.43226
-0.430004
-0.427611
-0.425063
-0.422335
-0.419396
-0.416213
-0.412744
-0.408947
-0.404774
-0.40018
-0.395121
-0.389559
-0.383465
-0.376822
-0.369628
-0.361895
-0.35365
-0.344928
-0.335769
-0.326203
-0.316376
-0.463409
-0.462508
-0.461565
-0.460613
-0.459594
-0.458493
-0.457312
-0.456049
-0.454705
-0.453276
-0.451761
-0.450159
-0.448469
-0.446688
-0.444815
-0.442846
-0.440776
-0.438598
-0.4363
-0.433869
-0.431288
-0.428533
-0.425577
-0.422386
-0.418924
-0.415148
-0.411012
-0.406471
-0.401479
-0.395996
-0.38999
-0.383438
-0.376332
-0.368679
-0.360499
-0.351827
-0.342706
-0.333183
-0.323297
-0.31318
-0.46983
-0.468829
-0.467786
-0.466738
-0.465622
-0.464421
-0.463138
-0.461771
-0.460318
-0.458778
-0.45715
-0.45543
-0.453618
-0.451711
-0.449705
-0.447597
-0.445379
-0.443042
-0.440572
-0.437954
-0.435166
-0.432183
-0.428974
-0.425502
-0.421727
-0.417606
-0.413092
-0.408141
-0.40271
-0.396765
-0.39028
-0.383242
-0.375652
-0.367528
-0.358898
-0.349808
-0.340306
-0.330446
-0.320277
-0.309922
-0.476542
-0.475435
-0.474288
-0.473142
-0.471926
-0.470623
-0.469235
-0.467761
-0.4662
-0.464548
-0.462803
-0.460964
-0.459028
-0.456992
-0.454851
-0.452598
-0.450224
-0.447717
-0.445062
-0.44224
-0.439225
-0.435989
-0.432497
-0.428711
-0.424587
-0.420082
-0.41515
-0.409748
-0.40384
-0.397398
-0.390405
-0.382858
-0.374771
-0.366169
-0.357094
-0.347597
-0.337734
-0.327563
-0.317139
-0.306579
-0.483529
-0.482313
-0.481058
-0.47981
-0.478492
-0.477085
-0.475591
-0.474009
-0.472337
-0.470572
-0.468711
-0.466751
-0.464689
-0.46252
-0.460237
-0.457832
-0.455292
-0.452604
-0.449748
-0.446702
-0.443436
-0.439919
-0.436113
-0.431976
-0.427465
-0.422535
-0.417144
-0.411253
-0.404832
-0.397862
-0.390338
-0.382267
-0.373674
-0.364596
-0.355084
-0.345195
-0.334991
-0.32453
-0.313874
-0.30313
-0.490771
-0.489441
-0.488074
-0.486722
-0.485301
-0.483789
-0.482188
-0.480497
-0.478714
-0.476834
-0.474855
-0.472773
-0.470582
-0.468275
-0.465844
-0.463278
-0.460561
-0.457676
-0.4546
-0.451306
-0.447762
-0.443933
-0.439777
-0.435252
-0.430313
-0.424919
-0.419029
-0.412612
-0.405648
-0.398126
-0.390052
-0.381448
-0.372348
-0.362801
-0.352863
-0.342598
-0.332071
-0.32134
-0.310469
-0.299553
-0.498235
-0.496789
-0.495309
-0.493852
-0.492326
-0.490708
-0.488999
-0.4872
-0.485306
-0.483312
-0.481214
-0.479006
-0.476682
-0.474232
-0.471645
-0.468906
-0.465997
-0.462897
-0.459579
-0.456012
-0.45216
-0.447984
-0.443441
-0.438488
-0.433082
-0.427183
-0.420758
-0.413784
-0.406249
-0.398156
-0.389522
-0.380381
-0.370779
-0.360772
-0.350424
-0.339801
-0.328967
-0.317983
-0.306912
-0.295831
-0.505888
-0.504324
-0.502728
-0.501166
-0.499536
-0.497812
-0.495996
-0.494088
-0.492082
-0.489973
-0.487754
-0.485419
-0.482956
-0.480356
-0.477602
-0.474678
-0.471561
-0.468226
-0.46464
-0.460771
-0.456577
-0.452018
-0.44705
-0.44163
-0.435716
-0.429276
-0.422283
-0.414724
-0.406598
-0.39792
-0.388722
-0.379047
-0.368952
-0.358499
-0.347756
-0.336792
-0.325671
-0.314449
-0.303188
-0.291948
-0.513684
-0.512001
-0.51029
-0.508623
-0.506888
-0.50506
-0.503138
-0.501122
-0.499005
-0.49678
-0.494438
-0.491971
-0.489365
-0.486606
-0.483675
-0.48055
-0.477205
-0.473611
-0.469731
-0.465527
-0.460957
-0.455977
-0.450544
-0.444617
-0.438159
-0.431144
-0.423554
-0.415387
-0.406656
-0.397389
-0.387627
-0.377426
-0.36685
-0.355968
-0.344849
-0.333563
-0.322169
-0.310724
-0.299283
-0.287889
-0.521571
-0.519769
-0.517944
-0.516173
-0.514336
-0.512405
-0.510379
-0.508257
-0.506029
-0.503688
-0.501222
-0.498618
-0.495861
-0.492933
-0.48981
-0.486467
-0.482873
-0.478994
-0.474789
-0.470217
-0.465234
-0.459796
-0.45386
-0.447388
-0.440351
-0.432731
-0.424522
-0.415732
-0.406389
-0.396531
-0.386212
-0.375498
-0.364458
-0.353165
-0.341689
-0.330098
-0.318449
-0.306794
-0.295183
-0.28364
-0.529491
-0.527571
-0.525634
-0.523762
-0.521826
-0.519795
-0.517667
-0.51544
-0.513103
-0.510644
-0.50805
-0.505305
-0.502389
-0.499279
-0.49595
-0.492369
-0.488502
-0.48431
-0.479748
-0.474774
-0.469341
-0.463406
-0.456929
-0.449879
-0.442234
-0.433984
-0.425138
-0.415717
-0.405758
-0.395316
-0.384453
-0.373242
-0.361757
-0.350073
-0.338261
-0.326384
-0.314496
-0.302644
-0.290872
-0.279189
-0.537377
-0.535343
-0.533298
-0.531327
-0.529297
-0.527168
-0.524942
-0.522612
-0.520166
-0.517589
-0.514863
-0.51197
-0.508885
-0.505581
-0.502027
-0.498188
-0.494022
-0.489486
-0.484536
-0.479123
-0.473204
-0.466735
-0.459684
-0.452025
-0.443746
-0.434849
-0.425355
-0.415299
-0.404732
-0.393716
-0.382325
-0.370637
-0.358729
-0.346677
-0.334549
-0.322404
-0.310293
-0.298259
-0.286336
-0.27452
-0.545149
-0.543005
-0.540856
-0.538793
-0.536671
-0.534452
-0.532131
-0.529702
-0.527148
-0.524451
-0.521591
-0.518543
-0.515279
-0.511766
-0.507969
-0.503846
-0.499354
-0.494445
-0.489071
-0.483186
-0.476744
-0.46971
-0.462054
-0.45376
-0.444828
-0.435273
-0.425128
-0.414441
-0.403275
-0.391703
-0.379804
-0.367662
-0.355355
-0.342958
-0.330535
-0.318142
-0.305825
-0.293623
-0.281559
-0.269622
-0.552735
-0.550488
-0.54824
-0.54609
-0.543882
-0.541575
-0.539162
-0.536634
-0.533972
-0.531153
-0.528152
-0.524941
-0.521486
-0.517749
-0.513688
-0.509259
-0.504413
-0.4991
-0.493271
-0.48688
-0.479885
-0.472254
-0.463968
-0.455021
-0.445424
-0.435206
-0.424412
-0.413104
-0.401356
-0.389248
-0.376867
-0.364296
-0.351615
-0.338896
-0.326201
-0.31358
-0.301075
-0.288719
-0.276526
-0.264481
-0.560055
-0.55771
-0.555372
-0.553141
-0.550854
-0.548464
-0.545963
-0.543338
-0.540566
-0.53762
-0.534472
-0.531087
-0.527426
-0.523447
-0.519102
-0.514342
-0.509114
-0.503368
-0.497053
-0.490124
-0.482547
-0.474296
-0.46536
-0.455746
-0.445478
-0.434598
-0.423166
-0.411253
-0.398944
-0.386326
-0.373488
-0.360516
-0.347489
-0.334473
-0.321529
-0.3087
-0.296024
-0.283531
-0.271222
-0.259084
-0.567011
-0.564576
-0.562154
-0.55985
-0.557491
-0.555024
-0.552441
-0.549723
-0.546842
-0.543769
-0.540467
-0.536898
-0.533018
-0.528777
-0.524126
-0.519008
-0.513371
-0.507162
-0.500331
-0.492838
-0.484654
-0.475762
-0.466163
-0.455876
-0.444938
-0.433406
-0.42135
-0.408855
-0.39601
-0.38291
-0.369646
-0.356302
-0.342955
-0.32967
-0.316499
-0.303483
-0.290656
-0.278043
-0.265631
-0.253417
-0.573508
-0.570991
-0.568496
-0.566126
-0.563701
-0.561164
-0.558502
-0.555693
-0.552704
-0.549499
-0.546037
-0.542274
-0.538159
-0.53364
-0.52866
-0.523161
-0.517089
-0.510389
-0.503017
-0.494938
-0.486128
-0.476582
-0.466313
-0.455353
-0.443754
-0.431585
-0.418928
-0.405876
-0.392526
-0.378975
-0.365316
-0.351631
-0.337994
-0.324465
-0.311092
-0.297912
-0.284953
-0.272239
-0.25974
-0.247469
-0.579447
-0.576859
-0.574299
-0.571872
-0.569389
-0.566789
-0.564053
-0.561154
-0.558056
-0.554715
-0.551086
-0.547117
-0.542753
-0.537937
-0.532607
-0.526705
-0.520173
-0.512961
-0.505026
-0.496341
-0.486893
-0.476686
-0.465748
-0.454124
-0.441879
-0.429094
-0.415863
-0.402286
-0.388464
-0.374497
-0.360476
-0.346483
-0.332585
-0.31884
-0.30529
-0.291968
-0.2789
-0.266103
-0.253534
-0.241225
-0.584726
-0.582078
-0.579463
-0.576988
-0.574456
-0.571798
-0.568992
-0.566006
-0.562796
-0.559316
-0.555511
-0.551326
-0.5467
-0.54157
-0.535872
-0.529545
-0.522532
-0.514788
-0.506274
-0.496972
-0.486878
-0.476012
-0.464412
-0.452139
-0.439269
-0.425897
-0.412124
-0.398056
-0.383799
-0.369451
-0.355105
-0.340835
-0.326709
-0.312776
-0.299076
-0.285636
-0.272479
-0.25962
-0.246999
-0.234675
-0.589243
-0.586546
-0.583888
-0.581375
-0.578801
-0.576091
-0.57322
-0.570149
-0.566828
-0.563203
-0.559216
-0.554804
-0.549901
-0.54444
-0.538355
-0.531586
-0.524076
-0.515785
-0.506681
-0.496756
-0.486018
-0.474499
-0.462252
-0.449351
-0.435886
-0.421958
-0.407679
-0.393159
-0.378506
-0.363817
-0.34918
-0.33467
-0.320346
-0.306255
-0.292431
-0.278898
-0.265676
-0.252776
-0.240123
-0.227807
-0.592894
-0.590161
-0.587471
-0.584929
-0.582322
-0.579569
-0.576637
-0.573482
-0.570048
-0.566275
-0.562098
-0.557448
-0.552255
-0.54645
-0.539964
-0.532737
-0.524718
-0.515869
-0.506171
-0.495623
-0.484249
-0.472092
-0.45922
-0.445719
-0.431691
-0.417247
-0.402502
-0.387572
-0.372563
-0.357572
-0.342684
-0.327968
-0.313479
-0.299259
-0.285339
-0.271739
-0.258477
-0.245559
-0.232895
-0.220609
-0.595577
-0.592819
-0.59011
-0.587549
-0.584917
-0.582126
-0.579138
-0.575902
-0.572355
-0.568429
-0.564056
-0.559159
-0.553666
-0.547504
-0.540605
-0.53291
-0.524373
-0.514964
-0.504673
-0.493511
-0.481514
-0.46874
-0.455272
-0.441205
-0.426653
-0.411734
-0.396568
-0.381271
-0.36595
-0.350698
-0.335597
-0.320711
-0.306091
-0.291774
-0.277787
-0.264147
-0.25087
-0.237957
-0.225302
-0.213074
-0.597189
-0.594421
-0.591704
-0.589136
-0.586487
-0.583665
-0.580625
-0.577309
-0.573648
-0.569567
-0.564991
-0.559841
-0.554039
-0.547511
-0.54019
-0.532022
-0.522965
-0.512997
-0.502121
-0.490359
-0.477761
-0.4644
-0.450369
-0.435776
-0.420744
-0.405395
-0.389854
-0.374236
-0.358647
-0.343178
-0.327904
-0.312885
-0.298168
-0.283786
-0.269761
-0.256108
-0.242842
-0.229958
-0.217337
-0.205192
-0.597636
-0.59487
-0.592158
-0.589591
-0.586935
-0.584089
-0.581002
-0.577608
-0.573832
-0.569594
-0.564811
-0.559401
-0.553283
-0.546384
-0.538639
-0.529995
-0.520421
-0.509904
-0.498457
-0.486117
-0.472946
-0.459031
-0.444477
-0.429403
-0.413937
-0.398208
-0.382341
-0.366451
-0.35064
-0.334996
-0.31959
-0.304477
-0.289698
-0.275283
-0.26125
-0.247613
-0.234384
-0.221555
-0.208991
-0.196955
-0.596822
-0.594073
-0.591378
-0.588824
-0.586168
-0.583305
-0.580175
-0.576706
-0.572816
-0.568418
-0.563425
-0.557752
-0.551316
-0.544044
-0.535873
-0.52676
-0.516677
-0.505626
-0.493629
-0.480738
-0.467029
-0.452601
-0.437569
-0.422062
-0.406213
-0.390155
-0.374012
-0.357899
-0.341914
-0.32614
-0.310643
-0.295474
-0.280669
-0.266254
-0.252246
-0.238653
-0.225489
-0.212739
-0.200257
-0.188356
-0.594664
-0.591944
-0.589279
-0.586747
-0.584101
-0.581227
-0.578059
-0.574518
-0.570515
-0.565957
-0.560754
-0.554816
-0.548061
-0.540417
-0.531827
-0.522252
-0.511677
-0.500111
-0.487592
-0.474184
-0.459977
-0.445081
-0.429621
-0.413733
-0.397555
-0.381221
-0.364856
-0.348571
-0.332459
-0.3166
-0.301054
-0.285868
-0.271074
-0.256694
-0.24274
-0.229221
-0.216149
-0.203505
-0.191132
-0.179383
-0.59108
-0.588403
-0.58578
-0.58328
-0.580651
-0.577774
-0.574573
-0.570963
-0.566849
-0.562133
-0.55672
-0.55052
-0.543449
-0.53544
-0.52644
-0.516419
-0.50537
-0.493317
-0.48031
-0.466425
-0.451764
-0.436449
-0.420615
-0.404401
-0.38795
-0.371397
-0.354863
-0.338456
-0.322267
-0.306368
-0.290817
-0.275653
-0.260907
-0.246596
-0.23273
-0.219315
-0.206361
-0.193847
-0.181607
-0.170018
-0.585998
-0.583377
-0.580808
-0.57835
-0.575747
-0.572872
-0.569644
-0.565969
-0.561747
-0.556876
-0.551257
-0.544798
-0.537419
-0.529055
-0.51966
-0.509213
-0.497718
-0.48521
-0.471752
-0.457435
-0.442371
-0.426691
-0.410538
-0.394057
-0.377391
-0.360673
-0.344025
-0.32755
-0.311333
-0.295441
-0.279927
-0.264828
-0.250167
-0.235961
-0.222216
-0.208933
-0.196123
-0.183761
-0.171656
-0.160204
-0.579354
-0.576803
-0.574299
-0.571892
-0.569323
-0.566458
-0.563208
-0.559473
-0.555148
-0.550126
-0.544306
-0.537597
-0.529921
-0.521216
-0.511446
-0.500597
-0.488687
-0.475762
-0.461898
-0.447197
-0.431784
-0.415796
-0.399383
-0.382694
-0.365872
-0.349049
-0.332342
-0.31585
-0.299655
-0.283817
-0.268385
-0.253391
-0.238856
-0.224792
-0.211201
-0.198084
-0.185449
-0.17326
-0.161283
-0.149885
-0.571096
-0.568626
-0.566199
-0.563852
-0.561324
-0.558476
-0.55521
-0.551421
-0.546999
-0.541832
-0.53582
-0.528872
-0.520912
-0.511886
-0.501764
-0.490544
-0.478255
-0.464955
-0.450733
-0.435702
-0.419996
-0.40376
-0.387149
-0.370312
-0.353394
-0.336523
-0.319814
-0.303359
-0.287235
-0.271499
-0.256193
-0.241347
-0.226977
-0.213093
-0.199694
-0.186779
-0.174356
-0.162379
-0.150581
-0.139375
-0.561177
-0.558801
-0.556461
-0.554183
-0.551705
-0.54888
-0.545605
-0.541769
-0.537255
-0.531954
-0.52576
-0.518586
-0.510361
-0.501037
-0.490592
-0.479036
-0.466408
-0.45278
-0.438252
-0.422947
-0.407007
-0.390585
-0.373837
-0.356915
-0.339961
-0.323102
-0.306445
-0.29008
-0.274078
-0.258491
-0.243357
-0.2287
-0.214537
-0.200872
-0.187703
-0.175028
-0.162854
-0.151116
-0.139532
-0.128729
-0.549566
-0.547294
-0.545051
-0.542851
-0.54043
-0.537635
-0.534358
-0.530482
-0.525887
-0.52046
-0.514099
-0.506717
-0.498248
-0.488651
-0.477916
-0.466062
-0.453141
-0.439235
-0.424456
-0.408935
-0.392824
-0.376278
-0.359457
-0.342512
-0.325583
-0.308793
-0.292244
-0.276022
-0.260191
-0.244801
-0.229883
-0.21546
-0.201544
-0.188138
-0.175238
-0.16284
-0.150951
-0.139491
-0.12818
-0.117774
-0.536239
-0.534082
-0.531946
-0.529831
-0.527474
-0.524717
-0.521446
-0.517538
-0.512872
-0.507332
-0.500819
-0.493248
-0.48456
-0.474723
-0.463734
-0.451624
-0.438457
-0.424326
-0.409353
-0.393678
-0.377458
-0.360852
-0.344022
-0.327116
-0.310272
-0.293608
-0.277223
-0.261196
-0.245587
-0.230439
-0.215783
-0.201637
-0.18801
-0.174903
-0.16231
-0.150226
-0.138658
-0.127514
-0.116514
-0.106498
-0.521184
-0.519152
-0.517132