/*--------------------------------*- C++ -*----------------------------------*\
  =========                 |
  \\      /  F ield         | OpenFOAM: The Open Source CFD Toolbox
   \\    /   O peration     | Website:  https://openfoam.org
    \\  /    A nd           | Version:  7
     \\/     M anipulation  |
\*---------------------------------------------------------------------------*/
FoamFile
{
    version     2.0;
    format      ascii;
    class       volScalarField;
    location    "2";
    object      p;
}
// * * * * * * * * * * * * * * * * * * * * * * * * * * * * * * * * * * * * * //

dimensions      [0 2 -2 0 0 0 0];

internalField   nonuniform List<scalar> 
344
(
-1.34859
-1.48884
-1.58058
-1.60975
-1.46412
-1.61913
-1.7323
-1.78282
-1.6238
-1.73288
-1.75524
-1.73449
-1.8463
-1.99131
-2.05616
-2.04239
-2.05065
-2.03469
-1.96551
-1.88986
-3.55441
-3.39546
-3.17611
-1.60578
-1.6073
-1.59857
-1.5758
-1.55496
-1.52496
-1.4757
-1.42283
-1.34646
-1.24983
-1.16454
-1.072
-0.986002
-0.950285
-0.936431
-0.942611
-1.02548
-1.16019
-1.31198
-1.52193
-1.80138
-2.11753
-2.44969
-2.78702
-3.13412
-3.46072
-3.70581
-3.86756
-3.95419
-3.94166
-3.8432
-3.65804
-3.38593
-3.06463
-2.71911
-2.33897
-1.95371
-1.6178
-1.34154
-1.11217
-0.924233
-0.771894
-0.67242
-0.627321
-0.617369
-0.664676
-0.748891
-0.866329
-1.01753
-1.21011
-1.44099
-1.69989
-1.99009
-2.30414
-2.61986
-2.93242
-3.22934
-3.47402
-3.6573
-3.7951
-3.86236
-3.8375
-3.73651
-3.56916
-3.33943
-1.77646
-1.76913
-1.7401
-1.6834
-1.64264
-1.59903
-1.54935
-1.49634
-1.40063
-1.28425
-1.17653
-1.05983
-0.953739
-0.889519
-0.852965
-0.866434
-0.958142
-1.09117
-1.26317
-1.50573
-1.8084
-2.1547
-2.52315
-2.91172
-3.30782
-3.65591
-3.93328
-4.1324
-4.23388
-4.23355
-4.11547
-3.89585
-3.60333
-3.23685
-2.84054
-2.44261
-2.03433
-1.63179
-1.28295
-1.02745
-0.848841
-0.71756
-0.633774
-0.59313
-0.581689
-0.601633
-0.68209
-0.804243
-0.962024
-1.17021
-1.42009
-1.70003
-2.01865
-2.36354
-2.70903
-3.05658
-3.38193
-3.64573
-3.85318
-4.01084
-4.09674
-4.07518
-3.96612
-3.79731
-3.54875
-1.73046
-1.71576
-1.67081
-1.63731
-1.61978
-1.59162
-1.55517
-1.49703
-1.38237
-1.25311
-1.12575
-0.986312
-0.873894
-0.795172
-0.728485
-0.751764
-0.862635
-0.994282
-1.18511
-1.48154
-1.8259
-2.20109
-2.62958
-3.08646
-3.53765
-3.92854
-4.22538
-4.45296
-4.59031
-4.58794
-4.46168
-4.23542
-3.89243
-3.47086
-3.0213
-2.55011
-2.09448
-1.6809
-1.30501
-0.999103
-0.748972
-0.56043
-0.454569
-0.414084
-0.412253
-0.474472
-0.580367
-0.715803
-0.888621
-1.12132
-1.39432
-1.70089
-2.05811
-2.44157
-2.82626
-3.21495
-3.57631
-3.86741
-4.10263
-4.28518
-4.36992
-4.36525
-4.26556
-4.07973
-3.81191
-1.9672
-1.90035
-1.82569
-1.76076
-1.72837
-1.69921
-1.6705
-1.59397
-1.46174
-1.32122
-1.16763
-0.981496
-0.806117
-0.693531
-0.637008
-0.657419
-0.750281
-0.8902
-1.12591
-1.45301
-1.8303
-2.26656
-2.76463
-3.29952
-3.81902
-4.265
-4.62214
-4.87865
-5.01593
-5.0241
-4.88695
-4.61779
-4.2414
-3.7919
-3.29298
-2.75008
-2.19938
-1.68142
-1.25034
-0.936125
-0.719239
-0.565053
-0.463875
-0.40847
-0.380153
-0.391221
-0.482106
-0.62841
-0.819575
-1.07215
-1.37181
-1.70746
-2.10434
-2.53806
-2.96818
-3.40343
-3.80878
-4.13713
-4.41448
-4.62745
-4.72985
-4.71673
-4.6177
-4.4281
-4.13902
-1.82636
-1.77879
-1.70879
-1.69488
-1.69745
-1.70212
-1.69671
-1.62057
-1.49625
-1.31957
-1.11392
-0.911655
-0.709492
-0.510875
-0.423529
-0.47986
-0.604479
-0.755807
-1.04141
-1.4349
-1.83208
-2.31603
-2.93013
-3.54195
-4.10441
-4.6419
-5.07265
-5.36951
-5.54234
-5.53203
-5.38848
-5.10324
-4.63129
-4.10747
-3.59465
-3.01688
-2.39017
-1.79016
-1.27371
-0.857182
-0.544624
-0.332353
-0.213516
-0.183166
-0.200873
-0.28176
-0.392486
-0.547074
-0.755147
-1.02924
-1.35655
-1.72658
-2.16716
-2.65169
-3.13391
-3.61828
-4.07118
-4.44534
-4.76503
-5.01015
-5.11763
)
;

boundaryField
{
    inlet
    {
        type            zeroGradient;
    }
    outlet
    {
        type            fixedValue;
        value           nonuniform 0();
    }
    wall
    {
        type            zeroGradient;
    }
    wedge1
    {
        type            wedge;
    }
    wedge2
    {
        type            wedge;
    }
    axis
    {
        type            empty;
    }
    procBoundary9to3
    {
        type            processor;
        value           nonuniform List<scalar> 
70
(
-1.26113
-1.39684
-1.51231
-1.58967
-3.42093
-3.26091
-3.04897
-1.6219
-1.63921
-1.64622
-1.61138
-1.57331
-1.53741
-1.48488
-1.4321
-1.37226
-1.28311
-1.19688
-1.11885
-1.04764
-1.01067
-1.00812
-1.0224
-1.08585
-1.20705
-1.36342
-1.55625
-1.79975
-2.09005
-2.39727
-2.70029
-3.00937
-3.29788
-3.52084
-3.6713
-3.74189
-3.73805
-3.6476
-3.46624
-3.22674
-2.94095
-2.60781
-2.26299
-1.93514
-1.63668
-1.36917
-1.13804
-0.963703
-0.842277
-0.765824
-0.728825
-0.721358
-0.752544
-0.824438
-0.931886
-1.07221
-1.25293
-1.46596
-1.70501
-1.97499
-2.26288
-2.55251
-2.84068
-3.1122
-3.33778
-3.50616
-3.62298
-3.68161
-3.65818
-3.65818
)
;
    }
    procBoundary9to4
    {
        type            processor;
        value           nonuniform List<scalar> 2(-2.89658 -3.0482);
    }
    procBoundary9to8
    {
        type            processor;
        value           nonuniform List<scalar> 4(-1.17876 -1.28691 -1.43582 -1.62301);
    }
    procBoundary9to10
    {
        type            processor;
        value           nonuniform List<scalar> 3(-3.23356 -3.47225 -3.77005);
    }
    procBoundary9to14
    {
        type            processor;
        value           uniform -1.90377;
    }
    procBoundary9to15
    {
        type            processor;
        value           nonuniform List<scalar> 
70
(
-2.59245
-2.63666
-2.53849
-2.31131
-5.11504
-5.02499
-4.81642
-4.50622
-2.13156
-2.00541
-1.89219
-1.84618
-1.85697
-1.88323
-1.86529
-1.77767
-1.65645
-1.45595
-1.14965
-0.836765
-0.613195
-0.504476
-0.389482
-0.378105
-0.493179
-0.670032
-0.977447
-1.39405
-1.85148
-2.41885
-3.10552
-3.80681
-4.45666
-5.04789
-5.54574
-5.90237
-6.09279
-6.10008
-5.93457
-5.6054
-5.1005
-4.51256
-3.92306
-3.28063
-2.57051
-1.90312
-1.34208
-0.897574
-0.608242
-0.450173
-0.352112
-0.290414
-0.298159
-0.286034
-0.354225
-0.508283
-0.717618
-0.992195
-1.34533
-1.76038
-2.24749
-2.78721
-3.32993
-3.86805
-4.37127
-4.79929
-5.15911
-5.41903
-5.11504
-5.55075
)
;
    }
}


// ************************************************************************* //
