/*--------------------------------*- C++ -*----------------------------------*\
  =========                 |
  \\      /  F ield         | OpenFOAM: The Open Source CFD Toolbox
   \\    /   O peration     | Website:  https://openfoam.org
    \\  /    A nd           | Version:  7
     \\/     M anipulation  |
\*---------------------------------------------------------------------------*/
FoamFile
{
    version     2.0;
    format      ascii;
    class       surfaceScalarField;
    location    "2";
    object      phi;
}
// * * * * * * * * * * * * * * * * * * * * * * * * * * * * * * * * * * * * * //

dimensions      [0 3 -1 0 0 0 0];

internalField   nonuniform List<scalar> 
613
(
0.000328358
-1.89842e-05
0.000330355
-1.16532e-05
0.000329847
-6.69628e-06
-2.92137e-06
0.000328286
0.000393198
-2.45816e-05
0.000396948
-1.54033e-05
0.000399424
-9.17148e-06
-1.17024e-06
0.000397673
0.000457598
-2.85088e-05
0.000456776
-1.45813e-05
0.000456019
-8.41432e-06
2.06142e-07
0.000454642
0.000535687
-3.96328e-05
0.000540089
-1.89826e-05
0.000538283
-6.60901e-06
3.90052e-06
0.000534589
0.000614554
0.000608606
0.000603124
0.00059724
0.000381419
1.5368e-05
0.000373853
2.16668e-05
2.90506e-05
0.000327129
-2.02244e-06
0.000327249
-1.55959e-06
0.000327797
9.26716e-07
0.000328548
2.21356e-06
0.000328596
4.0921e-06
0.000327489
5.75243e-06
0.000325734
5.13618e-06
0.000322948
4.88523e-06
0.000319742
4.63862e-06
0.000317212
3.01306e-06
0.000315518
1.09889e-06
0.000315344
-1.56292e-06
0.000316544
-5.61342e-06
0.000319401
-1.10514e-05
0.000325809
-1.98057e-05
0.0003355
-2.92473e-05
0.000346899
-3.58138e-05
0.000360883
-4.30179e-05
0.000377752
-5.05228e-05
0.000395918
-5.45263e-05
0.000414514
-5.63559e-05
0.000433885
-5.73834e-05
0.000453376
-5.64501e-05
0.000471331
-5.30369e-05
0.000487697
-4.72974e-05
0.000501418
-3.89886e-05
0.000511188
-2.91429e-05
0.00051805
-1.90164e-05
0.000520493
-6.72513e-06
0.000517989
6.21375e-06
0.000512284
1.75674e-05
0.000501979
2.96044e-05
0.000487124
4.10937e-05
0.000469879
4.88807e-05
0.000450623
5.5427e-05
0.000429473
6.13515e-05
0.000406507
6.43744e-05
0.000385357
6.17367e-05
0.000368134
5.46093e-05
0.000351252
4.89168e-05
0.000334767
4.30276e-05
0.000323306
3.25305e-05
0.0003168
2.07258e-05
0.000313905
1.01548e-05
0.000316069
-1.10542e-06
0.00032046
-1.06554e-05
0.000326722
-1.90457e-05
0.000336791
-2.77845e-05
0.000348689
-3.45393e-05
0.000361356
-3.97297e-05
0.000377684
-4.54693e-05
0.000393943
-4.7372e-05
0.000409486
-4.8018e-05
0.000426844
-4.82172e-05
0.00044136
-4.39751e-05
0.000454743
-4.02414e-05
0.000467067
-3.40407e-05
0.000474923
-2.53531e-05
0.000482033
-1.86838e-05
0.00048489
-7.74992e-06
0.00048365
2.42952e-06
0.000481332
1.12326e-05
0.000472956
2.37444e-05
0.000462498
3.21245e-05
4.17309e-05
0.000394661
9.89288e-07
0.000392288
8.13711e-07
0.00039146
1.75436e-06
0.000391676
1.99759e-06
0.000392756
3.01151e-06
0.00039263
5.87877e-06
0.000389475
8.29158e-06
0.000384917
9.44253e-06
0.000378827
1.07288e-05
0.000371956
9.88461e-06
0.000366966
6.08856e-06
0.000363882
1.52064e-06
0.000362748
-4.47851e-06
0.000366126
-1.44299e-05
0.000376229
-2.99083e-05
0.000387882
-4.09004e-05
0.000401335
-4.92673e-05
0.000421651
-6.33339e-05
0.000443768
-7.264e-05
0.00046561
-7.63678e-05
0.000490472
-8.12177e-05
0.000515564
-8.24751e-05
0.000540308
-8.11947e-05
0.000564402
-7.71311e-05
0.000584694
-6.75891e-05
0.000602597
-5.68912e-05
0.000617059
-4.36055e-05
0.000625441
-2.73978e-05
0.000629274
-1.05585e-05
0.000627326
8.16152e-06
0.000618823
2.60707e-05
0.000605436
4.2991e-05
0.0005874
5.913e-05
0.000564685
7.15955e-05
0.000538563
8.15496e-05
0.000511559
8.83552e-05
0.000481946
9.39874e-05
0.000448412
9.52704e-05
0.000418564
8.4458e-05
0.000399543
6.79371e-05
0.000386026
5.65453e-05
0.000374883
4.3673e-05
0.000368462
2.71467e-05
0.000363075
1.55424e-05
0.000358312
3.65781e-06
0.000363636
-1.59798e-05
0.00037397
-2.93795e-05
0.000384978
-3.87925e-05
0.00040178
-5.13411e-05
0.000421697
-5.96466e-05
0.00044112
-6.48925e-05
0.000463196
-6.94481e-05
0.000484628
-6.94506e-05
0.000505458
-6.90467e-05
0.000525652
-6.41691e-05
0.000542127
-5.67166e-05
0.000557878
-4.97915e-05
0.000569467
-3.69425e-05
0.00057722
-2.64368e-05
0.000582687
-1.32163e-05
0.000581609
3.50673e-06
0.000577899
1.4943e-05
0.000570012
3.16317e-05
0.000555516
4.66201e-05
5.75234e-05
0.000451782
3.84945e-06
0.000450291
2.3048e-06
0.000448139
3.90682e-06
0.000448175
1.96129e-06
0.000451256
-6.98188e-08
0.000451514
5.62119e-06
0.000448992
1.08136e-05
0.000445711
1.27233e-05
0.000438674
1.77655e-05
0.000429474
1.90849e-05
0.000423258
1.23048e-05
0.000420399
4.37912e-06
0.000417898
-1.97699e-06
0.000418622
-1.51543e-05
0.00042761
-3.88963e-05
0.000441403
-5.46934e-05
0.000455576
-6.34397e-05
0.000477569
-8.53277e-05
0.000506856
-0.000101926
0.000534474
-0.000103986
0.00056405
-0.000110794
0.000596866
-0.000115291
0.000627456
-0.000111784
0.000655583
-0.000105259
0.000681967
-9.39724e-05
0.000704508
-7.9432e-05
0.000720871
-5.99688e-05
0.000732859
-3.93861e-05
0.000738246
-1.59458e-05
0.000735723
1.06846e-05
0.000728255
3.35392e-05
0.00071214
5.91057e-05
0.000688662
8.26086e-05
0.000661307
9.89503e-05
0.00062831
0.000114547
0.000592143
0.000124522
0.000558819
0.000127311
0.000525544
0.000128546
0.000487736
0.000122265
0.000454662
0.000101012
0.000430653
8.05545e-05
0.000411701
6.26245e-05
0.000402663
3.61843e-05
0.000402948
1.52579e-05
0.000405736
8.69623e-07
0.000411878
-2.21218e-05
0.000426359
-4.386e-05
0.000439554
-5.19878e-05
0.000457745
-6.95324e-05
0.000483619
-8.55201e-05
0.000505435
-8.67088e-05
0.000531489
-9.55015e-05
0.000560822
-9.87843e-05
0.000582771
-9.09955e-05
0.000608672
-9.00702e-05
0.000631202
-7.92463e-05
0.000646797
-6.53867e-05
0.000664801
-5.49468e-05
0.000673187
-3.48223e-05
0.000678498
-1.85274e-05
0.00068189
1.14781e-07
0.000674315
2.25175e-05
0.000667342
3.86047e-05
0.000651975
6.19874e-05
8.06038e-05
0.000530166
8.27265e-06
0.000525873
6.59721e-06
0.000523069
6.71157e-06
0.000516023
9.00729e-06
0.000513396
2.55662e-06
0.000510532
8.48577e-06
0.00050552
1.5825e-05
0.000502082
1.61616e-05
0.000493496
2.63519e-05
0.000482104
3.04761e-05
0.000469431
2.49786e-05
0.000456852
1.6958e-05
0.000450716
4.15917e-06
0.000448752
-1.31903e-05
0.000454447
-4.45918e-05
0.000472147
-7.23928e-05
0.000494618
-8.59113e-05
0.000522564
-0.000113273
0.000559634
-0.000138996
0.000594927
-0.00013928
0.000629792
-0.000145658
0.000668882
-0.000154382
0.000703635
-0.000146537
0.000739013
-0.000140637
0.00077157
-0.000126529
0.000796171
-0.000104032
0.000819177
-8.29748e-05
0.000831252
-5.14619e-05
0.00083621
-2.09032e-05
0.00083745
9.44427e-06
0.00082479
4.61997e-05
0.000808559
7.53361e-05
0.000787753
0.000103415
0.000755037
0.000131666
0.00071767
0.000151914
0.000670452
0.00017174
0.000617731
0.000180033
0.000572191
0.000174085
0.000532477
0.00016198
0.000497892
0.000135596
0.000470219
0.000108227
0.000450354
8.24898e-05
0.000438332
4.82063e-05
0.000432599
2.0991e-05
0.000428555
4.9138e-06
0.000432076
-2.56427e-05
0.00044801
-5.97938e-05
0.000472302
-7.62802e-05
0.000495193
-9.24238e-05
0.000524839
-0.000115165
0.000560071
-0.000121941
0.000590772
-0.000126203
0.00062328
-0.000131292
0.000656143
-0.000123858
0.000684824
-0.000118751
0.00071191
-0.000106333
0.000733799
-8.72759e-05
0.000751906
-7.30533e-05
0.000764905
-4.78209e-05
0.000771043
-2.46656e-05
0.000774421
-3.2631e-06
0.000770129
0.000759717
0.000746663
0.000587037
0.000583864
0.000584018
0.000581734
0.000588983
0.000585639
0.000580994
0.000579173
0.000560663
0.00054409
0.00053286
0.000510988
0.000495412
0.000493727
0.000493802
0.0005077
0.000537314
0.000568834
0.000606592
0.000645598
0.000677188
0.000720942
0.00076536
0.000799482
0.000841936
0.000874549
0.000895279
0.000915587
0.000920507
0.000916159
0.000908248
0.000884047
0.000854718
0.000832677
0.000796081
0.000748937
0.000702673
0.000638548
0.000570064
0.000519011
0.000477579
0.000443721
0.000424555
0.000419916
0.000427461
0.000443551
0.000470586
0.000501231
0.000532055
0.000568798
0.000607182
0.000639922
0.000678121
0.000717275
0.000748819
0.00078133
0.000807318
0.000826766
0.000843234
0.00084957
)
;

boundaryField
{
    inlet
    {
        type            calculated;
        value           nonuniform 0();
    }
    outlet
    {
        type            calculated;
        value           nonuniform 0();
    }
    wall
    {
        type            calculated;
        value           nonuniform 0();
    }
    wedge1
    {
        type            wedge;
        value           nonuniform List<scalar> 
344
(
5.35864e-16
4.17427e-15
6.94502e-16
5.06408e-15
8.15352e-16
3.87452e-16
2.75536e-15
3.87409e-16
3.16344e-15
2.50216e-16
2.61953e-16
1.77534e-15
1.87133e-16
2.60492e-15
-1.13281e-16
1.22181e-16
1.13704e-15
-7.03903e-17
1.32709e-15
-3.00328e-16
4.73909e-17
1.23191e-15
-1.77344e-16
1.21568e-15
-4.76799e-16
-2.299e-17
1.45719e-15
-2.10425e-16
1.6827e-15
-4.83811e-16
-1.40213e-16
1.27325e-15
-2.50872e-16
1.52715e-15
-4.77163e-16
-2.15994e-16
1.39077e-15
-2.75784e-16
2.16387e-15
-6.31704e-16
-2.73907e-16
1.16806e-15
-2.88601e-16
2.7585e-15
-4.38883e-16
-2.96322e-16
6.69319e-16
-3.53932e-16
1.92571e-15
-5.36276e-16
-2.60532e-16
6.20636e-16
-4.53689e-16
1.33488e-15
-7.14622e-16
-2.27496e-16
4.38348e-16
-4.91593e-16
9.72973e-16
-6.80963e-16
-2.09797e-16
2.38123e-16
-5.44267e-16
-1.8543e-16
-8.86749e-16
-2.02686e-16
4.33574e-16
-5.69893e-16
-5.28811e-16
-1.02391e-15
-1.74317e-16
7.002e-16
-4.71903e-16
1.21119e-16
-1.04383e-15
-1.20857e-16
1.17905e-15
-3.41285e-16
9.36441e-16
-8.85212e-16
-2.66927e-17
2.00731e-15
-2.14425e-16
1.5313e-15
-5.03762e-16
1.03545e-16
2.87658e-15
8.47884e-17
3.0531e-15
-1.96005e-16
3.25711e-16
4.32348e-15
4.98735e-16
6.6051e-15
2.71327e-16
5.58839e-16
6.07633e-15
7.41159e-16
8.95419e-15
8.99399e-16
7.31739e-16
7.19596e-15
9.65729e-16
9.41047e-15
1.32483e-15
9.25407e-16
8.4024e-15
1.39856e-15
1.24271e-14
1.84917e-15
1.10343e-15
1.00423e-14
1.66237e-15
1.5538e-14
2.44744e-15
1.23634e-15
1.13879e-14
1.85649e-15
1.59973e-14
2.61722e-15
1.36213e-15
1.17498e-14
2.09834e-15
1.72059e-14
2.76849e-15
1.40967e-15
1.21837e-14
2.15833e-15
1.87679e-14
3.04272e-15
1.3775e-15
1.23815e-14
2.16356e-15
1.84332e-14
2.96547e-15
1.36036e-15
1.16442e-14
2.14319e-15
1.74485e-14
2.93141e-15
1.22847e-15
1.06269e-14
1.88554e-15
1.63025e-14
2.64812e-15
1.0261e-15
9.00518e-15
1.62266e-15
1.40977e-14
2.23227e-15
8.42007e-16
6.80648e-15
1.30268e-15
1.0754e-14
1.94871e-15
5.43524e-16
4.96538e-15
8.25746e-16
7.70822e-15
1.19606e-15
2.40361e-16
2.04963e-15
4.19662e-16
3.31338e-15
6.25657e-16
-5.65601e-17
-8.75883e-16
-7.8616e-17
-9.39644e-16
1.72185e-17
-3.49063e-16
-2.75617e-15
-5.0208e-16
-3.60533e-15
-6.93638e-16
-5.73225e-16
-5.37177e-15
-8.47827e-16
-7.54657e-15
-1.10361e-15
-8.30418e-16
-7.53333e-15
-1.28119e-15
-1.04388e-14
-1.685e-15
-1.03372e-15
-9.15492e-15
-1.62149e-15
-1.26403e-14
-2.28522e-15
-1.14627e-15
-1.06523e-14
-1.89675e-15
-1.54443e-14
-2.51091e-15
-1.34862e-15
-1.13326e-14
-2.13967e-15
-1.72468e-14
-2.94668e-15
-1.52788e-15
-1.23718e-14
-2.26204e-15
-1.87012e-14
-3.16827e-15
-1.52567e-15
-1.31322e-14
-2.34405e-15
-2.0481e-14
-3.04808e-15
-1.40957e-15
-1.20293e-14
-2.14457e-15
-2.01418e-14
-3.00307e-15
-1.18633e-15
-1.12054e-14
-1.67216e-15
-1.69702e-14
-2.72621e-15
-9.63022e-16
-1.00361e-14
-1.42465e-15
-1.25248e-14
-2.48456e-15
-8.31292e-16
-6.70819e-15
-1.34477e-15
-7.83219e-15
-2.23907e-15
-6.37858e-16
-3.51552e-15
-1.00678e-15
-2.84407e-15
-1.64737e-15
-3.57027e-16
-1.54703e-15
-7.03264e-16
6.34691e-16
-1.07909e-15
-1.47274e-16
1.00072e-15
-4.70678e-16
2.34985e-15
-6.8924e-16
6.57321e-17
3.02358e-15
1.01517e-16
4.63679e-15
3.04674e-17
3.41522e-16
3.97075e-15
5.69521e-16
6.81594e-15
8.89998e-16
5.18271e-16
5.79774e-15
7.19693e-16
8.07051e-15
1.29851e-15
6.52988e-16
7.2512e-15
1.08958e-15
1.03762e-14
1.58449e-15
8.8634e-16
7.65068e-15
1.47417e-15
1.2573e-14
2.17467e-15
9.92423e-16
9.68216e-15
1.53203e-15
1.34741e-14
2.42264e-15
1.06848e-15
1.03768e-14
1.73771e-15
1.51438e-14
2.43401e-15
1.22435e-15
9.86946e-15
1.88865e-15
1.56294e-14
2.63358e-15
1.12539e-15
1.09724e-14
1.75994e-15
1.4872e-14
2.54474e-15
1.10061e-15
9.77105e-15
1.75683e-15
1.49999e-14
2.39653e-15
1.0853e-15
8.67329e-15
1.60124e-15
1.32802e-14
2.23481e-15
8.04761e-16
8.40513e-15
1.32979e-15
1.1407e-14
1.84426e-15
7.3832e-16
5.5581e-15
1.14031e-15
9.85945e-15
1.57075e-15
5.14359e-16
4.66441e-15
7.71264e-16
6.61031e-15
1.11571e-15
1.92158e-16
2.62455e-15
4.2539e-16
4.12118e-15
5.90087e-16
7.40213e-17
-5.8026e-16
4.25788e-17
7.55766e-16
1.88178e-16
-2.73825e-16
-1.185e-15
-3.23935e-16
-2.21575e-15
2.75907e-16
-4.75658e-16
-4.01165e-15
-5.99855e-16
-4.18471e-15
4.72677e-16
-6.22355e-16
-5.82223e-15
-9.92961e-16
-7.32587e-15
5.46111e-16
-9.7945e-16
-6.74246e-15
-1.33506e-15
-9.98035e-15
)
;
    }
    wedge2
    {
        type            wedge;
        value           nonuniform List<scalar> 
344
(
5.48263e-16
4.15809e-15
7.05552e-16
5.05433e-15
8.13991e-16
4.00023e-16
2.73933e-15
4.00352e-16
3.15432e-15
2.52068e-16
2.73415e-16
1.75898e-15
1.98784e-16
2.59443e-15
-1.13326e-16
1.35559e-16
1.12047e-15
-6.00426e-17
1.31925e-15
-2.9869e-16
6.00329e-17
1.21469e-15
-1.6824e-16
1.2078e-15
-4.76283e-16
-9.75533e-18
1.43971e-15
-2.02303e-16
1.67525e-15
-4.82517e-16
-1.24856e-16
1.2553e-15
-2.44068e-16
1.51966e-15
-4.766e-16
-1.97132e-16
1.37452e-15
-2.70356e-16
2.15684e-15
-6.30151e-16
-2.56076e-16
1.14952e-15
-2.84759e-16
2.74814e-15
-4.39844e-16
-2.77453e-16
6.52643e-16
-3.48261e-16
1.9178e-15
-5.36154e-16
-2.46272e-16
5.99889e-16
-4.46492e-16
1.32353e-15
-7.16179e-16
-2.15022e-16
4.18648e-16
-4.83471e-16
9.64917e-16
-6.81846e-16
-2.00496e-16
2.15536e-16
-5.33887e-16
-1.93725e-16
-8.87069e-16
-1.92443e-16
4.16054e-16
-5.59239e-16
-5.34594e-16
-1.02233e-15
-1.66049e-16
6.80414e-16
-4.62453e-16
1.11282e-16
-1.04328e-15
-1.09285e-16
1.16437e-15
-3.33661e-16
9.29539e-16
-8.83458e-16
-1.53942e-17
1.98939e-15
-2.07363e-16
1.51853e-15
-5.04454e-16
1.17083e-16
2.86216e-15
8.98649e-17
3.04402e-15
-1.94618e-16
3.37781e-16
4.30415e-15
5.03338e-16
6.59026e-15
2.70592e-16
5.71379e-16
6.05947e-15
7.45914e-16
8.9438e-15
8.98145e-16
7.40596e-16
7.17384e-15
9.7321e-16
9.39364e-15
1.32033e-15
9.34566e-16
8.38534e-15
1.40511e-15
1.24133e-14
1.84276e-15
1.10911e-15
1.00205e-14
1.67027e-15
1.55152e-14
2.4369e-15
1.24079e-15
1.13722e-14
1.86292e-15
1.59755e-14
2.60558e-15
1.36519e-15
1.173e-14
2.10355e-15
1.71763e-14
2.75586e-15
1.41205e-15
1.21694e-14
2.15976e-15
1.87403e-14
3.03157e-15
1.37847e-15
1.23612e-14
2.16384e-15
1.83984e-14
2.95521e-15
1.3606e-15
1.16292e-14
2.13978e-15
1.74175e-14
2.92272e-15
1.22886e-15
1.06067e-14
1.88074e-15
1.62673e-14
2.64039e-15
1.02495e-15
8.9879e-15
1.61494e-15
1.40647e-14
2.22464e-15
8.41686e-16
6.78574e-15
1.29513e-15
1.07188e-14
1.94148e-15
5.42022e-16
4.94581e-15
8.16186e-16
7.67368e-15
1.1894e-15
2.39641e-16
2.02603e-15
4.09635e-16
3.27607e-15
6.16421e-16
-5.72857e-17
-8.90586e-16
-8.55161e-17
-9.64369e-16
1.19051e-17
-3.49567e-16
-2.77531e-15
-5.08967e-16
-3.63422e-15
-7.00978e-16
-5.73457e-16
-5.38961e-15
-8.54321e-16
-7.5753e-15
-1.11224e-15
-8.28802e-16
-7.55189e-15
-1.2853e-15
-1.04678e-14
-1.69474e-15
-1.03285e-15
-9.17406e-15
-1.62402e-15
-1.26677e-14
-2.29606e-15
-1.14248e-15
-1.06731e-14
-1.89828e-15
-1.54702e-14
-2.5239e-15
-1.34141e-15
-1.13528e-14
-2.13952e-15
-1.72703e-14
-2.95708e-15
-1.51662e-15
-1.23878e-14
-2.26001e-15
-1.87209e-14
-3.17866e-15
-1.51169e-15
-1.31478e-14
-2.33964e-15
-2.04971e-14
-3.05482e-15
-1.39597e-15
-1.20459e-14
-2.14012e-15
-2.0153e-14
-3.00983e-15
-1.1718e-15
-1.12213e-14
-1.66956e-15
-1.69785e-14
-2.73131e-15
-9.44137e-16
-1.00471e-14
-1.42439e-15
-1.25298e-14
-2.48857e-15
-8.1157e-16
-6.72044e-15
-1.3438e-15
-7.83694e-15
-2.2403e-15
-6.17154e-16
-3.52623e-15
-1.00768e-15
-2.84722e-15
-1.65008e-15
-3.37086e-16
-1.55959e-15
-7.03429e-16
6.31515e-16
-1.08156e-15
-1.2773e-16
9.93248e-16
-4.68816e-16
2.34857e-15
-6.92071e-16
8.18636e-17
3.01423e-15
1.03616e-16
4.63221e-15
3.00355e-17
3.58984e-16
3.96459e-15
5.69627e-16
6.81322e-15
8.87013e-16
5.33847e-16
5.78867e-15
7.22352e-16
8.06622e-15
1.29613e-15
6.69291e-16
7.24483e-15
1.09159e-15
1.03723e-14
1.58098e-15
9.02645e-16
7.64194e-15
1.47602e-15
1.25663e-14
2.16689e-15
1.00842e-15
9.67407e-15
1.53461e-15
1.34671e-14
2.41238e-15
1.08396e-15
1.03643e-14
1.73929e-15
1.5131e-14
2.42592e-15
1.23912e-15
9.8594e-15
1.88883e-15
1.56184e-14
2.62424e-15
1.13903e-15
1.09573e-14
1.76092e-15
1.48578e-14
2.53502e-15
1.11316e-15
9.75744e-15
1.75552e-15
1.49844e-14
2.38657e-15
1.09658e-15
8.65632e-15
1.59959e-15
1.3263e-14
2.22553e-15
8.14973e-16
8.38809e-15
1.32866e-15
1.13906e-14
1.83399e-15
7.48002e-16
5.53968e-15
1.13707e-15
9.83981e-15
1.56011e-15
5.21926e-16
4.64666e-15
7.68762e-16
6.59284e-15
1.10503e-15
2.00627e-16
2.60358e-15
4.22895e-16
4.10068e-15
5.77642e-16
8.06858e-17
-5.9383e-16
3.92493e-17
7.32134e-16
1.75592e-16
-2.67494e-16
-1.20011e-15
-3.25985e-16
-2.23028e-15
2.65974e-16
-4.69833e-16
-4.02651e-15
-6.01239e-16
-4.20058e-15
4.65726e-16
-6.16618e-16
-5.83787e-15
-9.94908e-16
-7.3411e-15
5.35761e-16
-9.7295e-16
-6.75743e-15
-1.3342e-15
-9.99409e-15
)
;
    }
    axis
    {
        type            empty;
        value           nonuniform 0();
    }
    procBoundary9to3
    {
        type            processor;
        value           nonuniform List<scalar> 
70
(
1.32418e-05
9.65554e-06
7.20428e-06
4.48238e-06
-9.44863e-06
-1.41004e-05
-1.77087e-05
3.17964e-06
1.43997e-06
-1.47522e-06
-2.96392e-06
-4.14047e-06
-4.64529e-06
-3.38154e-06
-2.09862e-06
-1.43282e-06
-4.83122e-07
5.94444e-07
1.73736e-06
4.41369e-06
8.19459e-06
1.33974e-05
1.95556e-05
2.44152e-05
2.9034e-05
3.36537e-05
3.63599e-05
3.77601e-05
3.80129e-05
3.69584e-05
3.50823e-05
3.09311e-05
2.52681e-05
1.93728e-05
1.21544e-05
4.28243e-06
-3.71015e-06
-1.18628e-05
-1.92989e-05
-2.62389e-05
-3.16356e-05
-3.61709e-05
-4.02015e-05
-4.14089e-05
-4.05862e-05
-3.73867e-05
-3.20342e-05
-2.65426e-05
-2.107e-05
-1.42192e-05
-7.25972e-06
-1.05866e-06
6.26408e-06
1.27834e-05
1.77163e-05
2.26406e-05
2.70633e-05
2.91406e-05
3.11132e-05
3.24756e-05
3.08592e-05
2.94583e-05
2.68591e-05
2.17162e-05
1.74978e-05
1.15739e-05
4.89284e-06
-1.19021e-06
-0.000387338
-8.91443e-06
)
;
    }
    procBoundary9to4
    {
        type            processor;
        value           nonuniform List<scalar> 2(0.000362511 0.000449818);
    }
    procBoundary9to8
    {
        type            processor;
        value           nonuniform List<scalar> 4(-0.000322615 -0.000387601 -0.000453671 -0.000524563);
    }
    procBoundary9to10
    {
        type            processor;
        value           nonuniform List<scalar> 3(0.000539724 0.000628895 0.000723749);
    }
    procBoundary9to14
    {
        type            processor;
        value           uniform -0.000616136;
    }
    procBoundary9to15
    {
        type            processor;
        value           nonuniform List<scalar> 
70
(
-3.80507e-05
-1.3035e-05
-1.12613e-06
9.78362e-06
2.68094e-05
4.90162e-05
7.50414e-05
0.000103518
1.84759e-05
9.77085e-06
6.55709e-06
1.12911e-05
-4.69178e-06
1.18292e-05
2.04697e-05
1.79827e-05
4.48621e-05
4.70488e-05
3.62087e-05
3.88299e-05
1.9735e-05
-1.15049e-05
-4.46665e-05
-8.62914e-05
-0.000115525
-0.000144794
-0.000176754
-0.000178285
-0.000177248
-0.000198136
-0.000190955
-0.000174759
-0.000168984
-0.000136645
-0.000103705
-7.17698e-05
-2.58229e-05
1.37917e-05
5.41108e-05
9.95374e-05
0.000132744
0.000153707
0.000188509
0.000218884
0.000226297
0.00023821
0.000230464
0.000186649
0.000149659
0.000116347
6.73723e-05
2.56307e-05
-2.6312e-06
-4.17335e-05
-8.68284e-05
-0.000106925
-0.000123248
-0.000151909
-0.000160325
-0.000158943
-0.000169491
-0.000163012
-0.000150295
-0.000138844
-0.000113264
-9.2502e-05
-6.42883e-05
-3.10015e-05
0.000852352
-6.04589e-06
)
;
    }
}


// ************************************************************************* //
