/*--------------------------------*- C++ -*----------------------------------*\
  =========                 |
  \\      /  F ield         | OpenFOAM: The Open Source CFD Toolbox
   \\    /   O peration     | Website:  https://openfoam.org
    \\  /    A nd           | Version:  7
     \\/     M anipulation  |
\*---------------------------------------------------------------------------*/
FoamFile
{
    version     2.0;
    format      ascii;
    class       volScalarField;
    location    "2.5";
    object      p;
}
// * * * * * * * * * * * * * * * * * * * * * * * * * * * * * * * * * * * * * //

dimensions      [0 2 -2 0 0 0 0];

internalField   nonuniform List<scalar> 
344
(
-4.40506
-4.46997
-4.54366
-4.6327
-4.72752
-4.82048
-4.90866
-4.98577
-5.04085
-5.07082
-5.07177
-5.02647
-4.9371
-4.80718
-4.62646
-4.40192
-4.13647
-3.82443
-3.48309
-3.12794
-2.76188
-2.40139
-2.05215
-1.71151
-1.40121
-1.13356
-0.895536
-0.697784
-0.550093
-0.427585
-0.320109
-0.228416
-0.151514
-0.099507
-0.0673848
-0.0430134
-0.0201547
-0.00682726
-0.00460028
0.00311599
0.0203575
0.0365676
0.0462303
0.0498625
0.0491539
0.0455461
0.0402147
0.0342642
0.028749
0.0245618
0.0223567
0.0225599
0.0255263
0.0312228
0.0396618
0.0508097
0.0646053
0.0809422
-3.99381
-4.1194
-4.19485
-4.23911
-4.26758
-4.27194
-4.28609
-4.31322
-4.33454
-4.38246
-4.45012
-4.53154
-4.63732
-4.7412
-4.84686
-4.95901
-5.0519
-5.1275
-5.17956
-5.1931
-5.16512
-5.08834
-4.96117
-4.78094
-4.55376
-4.28468
-3.97092
-3.61905
-3.23445
-2.84075
-2.45849
-2.08956
-1.74895
-1.43806
-1.15964
-0.914392
-0.69964
-0.523318
-0.40531
-0.305286
-0.199606
-0.117377
-0.071792
-0.0472559
-0.0296304
-0.0126228
-0.0046206
-0.00335506
0.00891815
0.0323306
0.0510102
0.0584879
0.0577424
0.0523505
0.0445552
0.0359445
0.0277604
0.0208593
0.0158125
0.0130527
0.0128813
0.0154706
0.0207987
0.0288254
0.039476
0.0526418
0.0681903
-4.14455
-4.25574
-4.29779
-4.3193
-4.32608
-4.2962
-4.28824
-4.29035
-4.30432
-4.35649
-4.41622
-4.50781
-4.63359
-4.75061
-4.88032
-5.01625
-5.12828
-5.23063
-5.30766
-5.33745
-5.32903
-5.26853
-5.14915
-4.97522
-4.74382
-4.46779
-4.13891
-3.76741
-3.38463
-2.97389
-2.54734
-2.14844
-1.76454
-1.42177
-1.14882
-0.916068
-0.709666
-0.557374
-0.424811
-0.281087
-0.159803
-0.0937078
-0.0597283
-0.0417675
-0.0341634
-0.0256572
-0.0130743
0.000523556
0.0150833
0.0284538
0.0384123
0.0435771
0.0437083
0.03968
0.032893
0.0248536
0.0168605
0.00986235
0.00455208
0.001482
0.00103098
0.00330931
0.00830343
0.0159229
0.026033
0.0384842
0.0531299
-4.31846
-4.40626
-4.41881
-4.40686
-4.3746
-4.31773
-4.29209
-4.26024
-4.25166
-4.30712
-4.37148
-4.4795
-4.62045
-4.75287
-4.91529
-5.07659
-5.21519
-5.35314
-5.45585
-5.51287
-5.52505
-5.47951
-5.37219
-5.20128
-4.98101
-4.69622
-4.34951
-3.96783
-3.54091
-3.10241
-2.67511
-2.23875
-1.84082
-1.49489
-1.14952
-0.857315
-0.662725
-0.50589
-0.365043
-0.245569
-0.150029
-0.0786184
-0.0327715
-0.0133799
-0.0115544
-0.0125541
-0.00791996
0.00207779
0.0149499
0.0272936
0.0354822
0.0380449
0.0357578
0.0300252
0.0221719
0.0134225
0.00479114
-0.00288538
-0.00883439
-0.0124104
-0.0131965
-0.0112369
-0.00653236
0.00072555
0.0103186
0.0220384
0.0357209
-4.51314
-4.56677
-4.55109
-4.50664
-4.41731
-4.31694
-4.2696
-4.21139
-4.18985
-4.23272
-4.29591
-4.4319
-4.59041
-4.74468
-4.94468
-5.13421
-5.30575
-5.48616
-5.61715
-5.70344
-5.75268
-5.72235
-5.62324
-5.47014
-5.24659
-4.95867
-4.60913
-4.2044
-3.76489
-3.28676
-2.78599
-2.31722
-1.90831
-1.53871
-1.21347
-0.928743
-0.667774
-0.468807
-0.340964
-0.239834
-0.147172
-0.0717747
-0.0255936
-0.00834312
-0.00698329
-0.00667961
-0.00191263
0.00550018
0.0134589
0.0205749
0.0252231
0.0262271
0.0234212
0.0173604
0.00901587
-0.000472526
-0.0100446
-0.0186724
-0.0253665
-0.0294086
-0.0304999
-0.0285024
-0.0237949
-0.0166686
-0.00744684
0.00360862
0.0163308
-4.71122
-4.73168
-4.68956
-4.59862
-4.45355
-4.31012
-4.22107
-4.13381
-4.10264
-4.14434
-4.21888
-4.36845
-4.54457
-4.73908
-4.97577
-5.19076
-5.41622
-5.63205
)
;

boundaryField
{
    inlet
    {
        type            zeroGradient;
    }
    outlet
    {
        type            fixedValue;
        value           nonuniform 0();
    }
    wall
    {
        type            zeroGradient;
    }
    wedge1
    {
        type            wedge;
    }
    wedge2
    {
        type            wedge;
    }
    axis
    {
        type            empty;
    }
    procBoundary10to4
    {
        type            processor;
        value           nonuniform List<scalar> 
68
(
-4.41695
-4.47933
-4.54733
-4.62995
-4.71427
-4.79227
-4.86738
-4.92758
-4.96918
-4.98726
-4.97085
-4.918
-4.82135
-4.68349
-4.5048
-4.27769
-4.0126
-3.71598
-3.3912
-3.05073
-2.69813
-2.34283
-2.00124
-1.68234
-1.39677
-1.15065
-0.932396
-0.733617
-0.571784
-0.436319
-0.313373
-0.22301
-0.161059
-0.10788
-0.0626407
-0.0263408
-0.00191729
0.00662596
0.00380403
0.00278456
0.0190451
0.0396266
0.0528344
0.0570649
0.0556294
0.051372
0.0458817
0.0401766
0.0351292
0.0314711
0.0297668
0.0305483
0.0337018
0.0397146
0.0485431
0.0601519
0.0745006
0.0915084
-3.86594
-4.00934
-4.10747
-4.1687
-4.21876
-4.25329
-4.28185
-4.31393
-4.35078
-4.35078
)
;
    }
    procBoundary10to5
    {
        type            processor;
        value           uniform 0.0996836;
    }
    procBoundary10to9
    {
        type            processor;
        value           nonuniform List<scalar> 3(-3.82966 -3.99038 -4.18585);
    }
    procBoundary10to11
    {
        type            processor;
        value           nonuniform List<scalar> 4(0.0859877 0.0698484 0.0512662 0.0306324);
    }
    procBoundary10to15
    {
        type            processor;
        value           nonuniform List<scalar> 2(-4.40546 -4.63512);
    }
    procBoundary10to16
    {
        type            processor;
        value           nonuniform List<scalar> 
68
(
-5.7902
-5.92431
-6.00071
-5.98809
-5.91339
-5.76951
-5.54972
-5.2508
-4.88922
-4.48201
-4.02046
-3.51859
-2.99227
-2.44589
-1.95357
-1.56834
-1.24459
-0.939058
-0.664263
-0.455406
-0.310538
-0.207157
-0.127799
-0.0650756
-0.0237912
-0.005905
-0.00109106
0.00257248
0.007792
0.0126527
0.0165991
0.0194441
0.0202207
0.0180883
0.0128386
0.00479016
-0.0052967
-0.0164507
-0.0276129
-0.0375892
-0.0452184
-0.0496993
-0.050749
-0.0484693
-0.0433954
-0.0360735
-0.0269912
-0.0164768
-0.00468466
-4.8916
-4.87887
-4.80151
-4.6657
-4.47057
-4.28195
-4.14529
-4.03169
-3.98616
-4.01878
-4.11012
-4.28182
-4.48752
-4.71698
-4.98145
-5.24687
-5.52131
-5.7902
-5.77391
)
;
    }
}


// ************************************************************************* //
