/*--------------------------------*- C++ -*----------------------------------*\
  =========                 |
  \\      /  F ield         | OpenFOAM: The Open Source CFD Toolbox
   \\    /   O peration     | Website:  https://openfoam.org
    \\  /    A nd           | Version:  7
     \\/     M anipulation  |
\*---------------------------------------------------------------------------*/
FoamFile
{
    version     2.0;
    format      ascii;
    class       surfaceScalarField;
    location    "3";
    object      phi;
}
// * * * * * * * * * * * * * * * * * * * * * * * * * * * * * * * * * * * * * //

dimensions      [0 3 -1 0 0 0 0];

internalField   nonuniform List<scalar> 
613
(
3.27783e-05
-6.30071e-07
3.33496e-05
-5.71268e-07
3.3858e-05
-5.08387e-07
3.43023e-05
-4.44349e-07
-3.81477e-07
3.46838e-05
9.82589e-05
9.99768e-05
-2.28911e-06
0.000101502
-2.03401e-06
0.000102833
-1.77501e-06
-1.52136e-06
0.000103973
0.000166361
-5.16927e-06
0.000168907
-4.58045e-06
0.000171118
-3.98562e-06
-3.40565e-06
0.000173002
0.00023234
-9.23643e-06
0.000235911
-8.1512e-06
0.000238988
-7.06267e-06
-6.00792e-06
0.00024159
0.000297762
0.000302356
0.000306274
0.00030955
3.50008e-05
-3.17041e-07
3.52637e-05
-2.62899e-07
3.54772e-05
-2.13462e-07
3.56463e-05
-1.69091e-07
3.57761e-05
-1.29836e-07
3.58716e-05
-9.55064e-08
3.59374e-05
-6.57525e-08
3.59775e-05
-4.01377e-08
3.59957e-05
-1.8209e-08
3.59953e-05
4.7312e-10
3.59789e-05
1.63992e-08
3.5949e-05
2.98669e-08
3.59078e-05
4.12351e-08
3.5857e-05
5.08074e-08
3.57981e-05
5.88448e-08
3.57325e-05
6.55689e-08
3.56614e-05
7.11682e-08
3.55856e-05
7.58039e-08
3.5506e-05
7.96138e-08
3.54232e-05
8.27156e-08
3.5338e-05
8.52097e-08
3.52508e-05
8.71823e-08
3.51621e-05
8.87077e-08
3.50723e-05
8.98497e-08
3.49816e-05
9.06636e-08
3.48904e-05
9.1197e-08
3.47989e-05
9.14916e-08
3.47074e-05
9.15834e-08
3.46159e-05
9.15038e-08
3.45246e-05
9.12801e-08
3.44336e-05
9.09361e-08
3.43431e-05
9.04926e-08
3.42532e-05
8.99676e-08
3.41638e-05
8.93769e-08
3.40751e-05
8.87342e-08
3.3987e-05
8.80512e-08
3.38997e-05
8.73383e-08
3.38131e-05
8.66044e-08
3.37272e-05
8.5857e-08
3.36421e-05
8.51027e-08
3.35578e-05
8.4347e-08
3.34742e-05
8.35947e-08
3.33913e-05
8.28497e-08
3.33092e-05
8.21154e-08
3.32278e-05
8.13945e-08
3.31471e-05
8.06892e-08
3.30671e-05
8.00013e-08
3.29878e-05
7.93322e-08
3.29091e-05
7.8683e-08
3.2831e-05
7.80543e-08
3.27536e-05
7.74466e-08
3.26767e-05
7.68603e-08
3.26004e-05
7.62955e-08
3.25247e-05
7.57519e-08
3.24495e-05
7.52295e-08
3.23747e-05
7.47278e-08
3.23005e-05
7.42464e-08
3.22267e-05
7.37848e-08
3.21534e-05
7.33423e-08
3.20804e-05
7.29185e-08
3.20079e-05
7.25125e-08
3.19358e-05
7.21236e-08
3.18641e-05
7.17511e-08
3.17927e-05
7.13943e-08
7.10523e-08
0.000104918
-1.26223e-06
0.0001057
-1.04477e-06
0.000106333
-8.46615e-07
0.000106833
-6.69129e-07
0.000107216
-5.1241e-07
0.000107496
-3.75573e-07
0.000107687
-2.57122e-07
0.000107802
-1.55243e-07
0.000107852
-6.80971e-08
0.000107847
6.08053e-09
0.000107794
6.93843e-08
0.000107701
1.22845e-07
0.000107574
1.6798e-07
0.000107419
2.06005e-07
0.00010724
2.37949e-07
0.00010704
2.6469e-07
0.000106825
2.86976e-07
0.000106595
3.05449e-07
0.000106354
3.20653e-07
0.000106104
3.33056e-07
0.000105846
3.43053e-07
0.000105582
3.50987e-07
0.000105314
3.57151e-07
0.000105042
3.61797e-07
0.000104767
3.65143e-07
0.000104491
3.67379e-07
0.000104214
3.68668e-07
0.000103936
3.69152e-07
0.000103659
3.68956e-07
0.000103382
3.68187e-07
0.000103106
3.66938e-07
0.000102831
3.65291e-07
0.000102558
3.63318e-07
0.000102286
3.61081e-07
0.000102016
3.58632e-07
0.000101748
3.56018e-07
0.000101482
3.5328e-07
0.000101218
3.50453e-07
0.000100957
3.47566e-07
0.000100697
3.44645e-07
0.00010044
3.41712e-07
0.000100184
3.38785e-07
9.99315e-05
3.35881e-07
9.96806e-05
3.33011e-07
9.94318e-05
3.30187e-07
9.9185e-05
3.27419e-07
9.89403e-05
3.24712e-07
9.86976e-05
3.22072e-07
9.84568e-05
3.19504e-07
9.82178e-05
3.17011e-07
9.79807e-05
3.14595e-07
9.77453e-05
3.12257e-07
9.75116e-05
3.09998e-07
9.72795e-05
3.07817e-07
9.7049e-05
3.05714e-07
9.68201e-05
3.03687e-07
9.65926e-05
3.01736e-07
9.63665e-05
2.99858e-07
9.61418e-05
2.98051e-07
9.59184e-05
2.96313e-07
9.56963e-05
2.94641e-07
9.54754e-05
2.93034e-07
9.52556e-05
2.91487e-07
9.5037e-05
2.89999e-07
2.88566e-07
0.000174556
-2.81645e-06
0.000175835
-2.32313e-06
0.000176863
-1.87533e-06
0.00017767
-1.47574e-06
0.000178282
-1.12415e-06
0.000178724
-8.18081e-07
0.000179021
-5.53784e-07
0.000179192
-3.26887e-07
0.000179257
-1.33113e-07
0.000179232
3.17935e-08
0.000179129
1.72368e-07
0.000178961
2.91062e-07
0.000178737
3.91299e-07
0.000178467
4.75806e-07
0.000178158
5.46873e-07
0.000177817
6.06444e-07
0.000177448
6.5618e-07
0.000177055
6.97499e-07
0.000176645
7.31607e-07
0.000176218
7.59529e-07
0.000175779
7.82143e-07
0.00017533
8.00199e-07
0.000174873
8.14343e-07
0.000174409
8.25131e-07
0.000173941
8.33042e-07
0.00017347
8.38492e-07
0.000172997
8.4184e-07
0.000172523
8.43398e-07
0.000172048
8.43437e-07
0.000171574
8.42194e-07
0.000171101
8.39873e-07
0.00017063
8.36653e-07
0.000170161
8.3269e-07
0.000169694
8.28118e-07
0.000169229
8.23055e-07
0.000168768
8.17602e-07
0.000168309
8.11848e-07
0.000167854
8.05868e-07
0.000167401
7.99728e-07
0.000166953
7.93484e-07
0.000166507
7.87184e-07
0.000166065
7.80868e-07
0.000165626
7.74572e-07
0.000165191
7.68324e-07
0.000164759
7.62149e-07
0.00016433
7.56066e-07
0.000163905
7.50092e-07
0.000163483
7.44239e-07
0.000163064
7.38518e-07
0.000162648
7.32936e-07
0.000162235
7.27499e-07
0.000161825
7.2221e-07
0.000161418
7.17071e-07
0.000161014
7.12084e-07
0.000160612
7.07247e-07
0.000160213
7.02559e-07
0.000159817
6.98018e-07
0.000159423
6.9362e-07
0.000159032
6.89362e-07
0.000158643
6.8524e-07
0.000158256
6.8125e-07
0.000157872
6.77386e-07
0.00015749
6.73644e-07
0.00015711
6.70018e-07
6.66503e-07
0.000243718
-4.94481e-06
0.000245453
-4.05768e-06
0.000246835
-3.25682e-06
0.000247905
-2.54607e-06
0.000248705
-1.9238e-06
0.000249271
-1.38441e-06
0.000249637
-9.20182e-07
0.000249833
-5.22691e-07
0.000249884
-1.83861e-07
0.000249811
1.04631e-07
0.000249633
3.49934e-07
0.000249367
5.57202e-07
0.000249026
7.32385e-07
0.000248622
8.8028e-07
0.000248164
1.00488e-06
0.000247661
1.10956e-06
0.00024712
1.19721e-06
0.000246547
1.2703e-06
0.000245947
1.33089e-06
0.000245326
1.38076e-06
0.000244687
1.42141e-06
0.000244033
1.45415e-06
0.000243367
1.48007e-06
0.000242692
1.50015e-06
0.00024201
1.51519e-06
0.000241323
1.52593e-06
0.000240632
1.53296e-06
0.000239938
1.53683e-06
0.000239244
1.53801e-06
0.000238549
1.5369e-06
0.000237855
1.53385e-06
0.000237162
1.52917e-06
0.000236472
1.52313e-06
0.000235784
1.51596e-06
0.000235099
1.50785e-06
0.000234418
1.499e-06
0.00023374
1.48954e-06
0.000233066
1.47961e-06
0.000232397
1.46932e-06
0.000231732
1.45878e-06
0.000231071
1.44806e-06
0.000230414
1.43724e-06
0.000229762
1.42638e-06
0.000229115
1.41552e-06
0.000228473
1.40473e-06
0.000227835
1.39402e-06
0.000227201
1.38344e-06
0.000226573
1.373e-06
0.000225948
1.36273e-06
0.000225329
1.35264e-06
0.000224713
1.34275e-06
0.000224103
1.33306e-06
0.000223496
1.32358e-06
0.000222894
1.31431e-06
0.000222296
1.30526e-06
0.000221702
1.29643e-06
0.000221112
1.2878e-06
0.000220526
1.27939e-06
0.000219945
1.27119e-06
0.000219367
1.26319e-06
0.000218793
1.25539e-06
0.000218222
1.24777e-06
0.000217655
0.000217092
0.000312197
0.000314324
0.000315993
0.000317261
0.000318186
0.000318817
0.000319198
0.000319368
0.000319358
0.000319194
0.0003189
0.000318497
0.000318001
0.000317425
0.000316782
0.000316082
0.000315333
0.000314544
0.00031372
0.000312867
0.000311991
0.000311095
0.000310182
0.000309257
0.000308321
0.000307378
0.000306428
0.000305475
0.00030452
0.000303563
0.000302606
0.000301651
0.000300698
0.000299748
0.000298801
0.000297858
0.00029692
0.000295986
0.000295058
0.000294136
0.000293219
0.000292308
0.000291404
0.000290505
0.000289614
0.000288728
0.00028785
0.000286977
0.000286112
0.000285253
0.0002844
0.000283554
0.000282715
0.000281882
0.000281055
0.000280235
0.000279421
0.000278614
0.000277812
0.000277017
0.000276228
)
;

boundaryField
{
    inlet
    {
        type            calculated;
        value           nonuniform 0();
    }
    outlet
    {
        type            calculated;
        value           nonuniform 0();
    }
    wall
    {
        type            calculated;
        value           nonuniform 0();
    }
    wedge1
    {
        type            wedge;
        value           nonuniform List<scalar> 
344
(
1.70633e-16
1.4314e-16
1.56462e-16
1.31346e-16
1.32946e-15
-1.98908e-16
-3.81095e-16
1.40817e-16
1.18247e-16
1.1898e-15
-1.78333e-16
-3.39319e-16
1.24446e-16
1.04528e-16
1.04551e-15
-1.57119e-16
-2.9673e-16
1.08118e-16
9.08482e-17
9.02439e-16
-1.36154e-16
-2.55033e-16
9.09414e-17
7.64409e-17
7.54122e-16
-1.14366e-16
-2.12307e-16
7.65081e-17
6.42681e-17
6.29066e-16
-9.60705e-17
-1.76565e-16
6.30404e-17
5.30528e-17
5.14608e-16
-7.93246e-17
-1.44146e-16
5.0894e-17
4.29419e-17
4.11482e-16
-6.42806e-17
-1.15258e-16
4.00597e-17
3.38307e-17
3.20144e-16
-5.09015e-17
-8.97938e-17
3.06279e-17
2.57869e-17
2.40033e-16
-3.91877e-17
-6.76425e-17
2.22106e-17
1.87835e-17
1.70611e-16
-2.89842e-17
-4.85135e-17
1.49124e-17
1.27695e-17
1.107e-16
-2.01953e-17
-3.21016e-17
8.67475e-18
7.48339e-18
5.94607e-17
-1.25895e-17
-1.79867e-17
3.46304e-18
2.94286e-18
1.56188e-17
-6.07912e-18
-5.93542e-18
-1.14971e-18
-9.13473e-19
-2.01775e-17
-4.75816e-19
4.25193e-18
-5.15848e-18
-4.11431e-18
-5.00868e-17
4.24214e-18
1.28289e-17
-8.40379e-18
-6.89292e-18
-7.56802e-17
8.30899e-18
2.02217e-17
-1.10521e-17
-9.31563e-18
-9.7627e-17
1.17523e-17
2.65525e-17
-1.3411e-17
-1.13116e-17
-1.16261e-16
1.47171e-17
3.19528e-17
-1.55625e-17
-1.29385e-17
-1.32141e-16
1.7227e-17
3.65332e-17
-1.72027e-17
-1.43313e-17
-1.45569e-16
1.9384e-17
4.0463e-17
-1.84775e-17
-1.56288e-17
-1.56923e-16
2.11881e-17
4.38344e-17
-1.95806e-17
-1.65945e-17
-1.66453e-16
2.2712e-17
4.66401e-17
-2.07424e-17
-1.74175e-17
-1.74359e-16
2.39986e-17
4.90141e-17
-2.1434e-17
-1.80354e-17
-1.8099e-16
2.50469e-17
5.09797e-17
-2.20368e-17
-1.85388e-17
-1.86397e-16
2.59374e-17
5.26309e-17
-2.24471e-17
-1.90566e-17
-1.90759e-16
2.66505e-17
5.4027e-17
-2.27597e-17
-1.9381e-17
-1.94251e-16
2.72486e-17
5.51368e-17
-2.32144e-17
-1.9584e-17
-1.96943e-16
2.77004e-17
5.60075e-17
-2.33901e-17
-1.972e-17
-1.99027e-16
2.80751e-17
5.66963e-17
-2.3441e-17
-1.99178e-17
-2.00474e-16
2.8343e-17
5.72638e-17
-2.34587e-17
-1.99888e-17
-2.01446e-16
2.85429e-17
5.76494e-17
-2.36242e-17
-1.99697e-17
-2.01869e-16
2.86614e-17
5.78794e-17
-2.35728e-17
-1.99085e-17
-2.01935e-16
2.87422e-17
5.80057e-17
-2.34358e-17
-1.9927e-17
-2.01633e-16
2.87495e-17
5.80766e-17
-2.32833e-17
-1.98481e-17
-2.01079e-16
2.87273e-17
5.80351e-17
-2.32798e-17
-1.97207e-17
-2.00259e-16
2.86616e-17
5.79129e-17
-2.31247e-17
-1.95738e-17
-1.99282e-16
2.85807e-17
5.77421e-17
-2.29162e-17
-1.94936e-17
-1.98127e-16
2.84623e-17
5.75474e-17
-2.27083e-17
-1.93438e-17
-1.96871e-16
2.8334e-17
5.72933e-17
-2.2625e-17
-1.9173e-17
-1.95501e-16
2.81805e-17
5.69978e-17
-2.24146e-17
-1.89899e-17
-1.94073e-16
2.80245e-17
5.66797e-17
-2.2182e-17
-1.88532e-17
-1.92575e-16
2.78481e-17
5.63623e-17
-2.19579e-17
-1.86833e-17
-1.91057e-16
2.76686e-17
5.60066e-17
-2.18159e-17
-1.85017e-17
-1.89504e-16
2.74769e-17
5.56311e-17
-2.1606e-17
-1.83187e-17
-1.87949e-16
2.72875e-17
5.52532e-17
-2.13913e-17
-1.81776e-17
-1.86383e-16
2.70931e-17
5.48785e-17
-2.1179e-17
-1.80034e-17
-1.84834e-16
2.68995e-17
5.44877e-17
-2.10213e-17
-1.78357e-17
-1.83288e-16
2.67034e-17
5.40951e-17
-2.08206e-17
-1.76683e-17
-1.81774e-16
2.65071e-17
5.36997e-17
-2.06316e-17
-1.75032e-17
-1.80284e-16
2.63141e-17
5.33073e-17
-2.04488e-17
-1.73569e-17
-1.78817e-16
2.61218e-17
5.29211e-17
-2.02668e-17
-1.72019e-17
-1.77386e-16
2.59328e-17
5.25329e-17
-2.01066e-17
-1.70556e-17
-1.75986e-16
2.57474e-17
5.21496e-17
-1.99354e-17
-1.69111e-17
-1.74625e-16
2.5564e-17
5.17711e-17
-1.97824e-17
-1.6772e-17
-1.73301e-16
2.5385e-17
5.13973e-17
-1.96255e-17
-1.66348e-17
-1.72017e-16
2.52093e-17
5.10288e-17
-1.94712e-17
-1.65107e-17
-1.70771e-16
2.50387e-17
5.06681e-17
-1.93281e-17
-1.63889e-17
-1.69563e-16
2.48695e-17
5.03132e-17
-1.92052e-17
-1.62616e-17
-1.68396e-16
2.47071e-17
4.99594e-17
-1.90756e-17
-1.61431e-17
-1.67264e-16
2.45457e-17
4.96163e-17
-1.89299e-17
-1.60415e-17
-1.66176e-16
2.43933e-17
4.92847e-17
-1.88075e-17
-1.59418e-17
-1.65119e-16
2.42378e-17
4.8956e-17
-1.87111e-17
-1.58224e-17
-1.64103e-16
2.40922e-17
4.8625e-17
-1.86065e-17
-1.57193e-17
-1.63116e-16
2.39451e-17
4.83073e-17
-1.84658e-17
-1.56395e-17
-1.62169e-16
2.38096e-17
4.80038e-17
-1.83716e-17
-1.55589e-17
-1.61244e-16
2.36693e-17
-1.82842e-17
-1.54543e-17
-1.60362e-16
2.35394e-17
-1.81817e-17
-1.53804e-17
-1.59496e-16
2.34033e-17
)
;
    }
    wedge2
    {
        type            wedge;
        value           nonuniform List<scalar> 
344
(
1.71544e-16
1.45569e-16
1.57389e-16
1.33735e-16
1.33425e-15
-1.93153e-16
-3.75515e-16
1.41715e-16
1.20642e-16
1.19449e-15
-1.72758e-16
-3.33896e-16
1.25408e-16
1.07004e-16
1.05003e-15
-1.5173e-16
-2.91475e-16
1.09083e-16
9.33425e-17
9.0686e-16
-1.30936e-16
-2.49917e-16
9.19782e-17
7.89829e-17
7.58286e-16
-1.09429e-16
-2.07473e-16
7.7407e-17
6.68145e-17
6.33159e-16
-9.12871e-17
-1.71884e-16
6.41364e-17
5.55951e-17
5.18473e-16
-7.47362e-17
-1.39632e-16
5.20316e-17
4.5342e-17
4.15295e-16
-5.98236e-17
-1.10831e-16
4.12007e-17
3.62459e-17
3.23706e-16
-4.6644e-17
-8.55703e-17
3.15175e-17
2.82107e-17
2.43575e-16
-3.50769e-17
-6.35881e-17
2.32314e-17
2.11484e-17
1.73932e-16
-2.5043e-17
-4.45998e-17
1.60513e-17
1.49463e-17
1.13995e-16
-1.63456e-17
-2.82551e-17
9.80574e-18
9.6828e-18
6.25325e-17
-8.91494e-18
-1.43314e-17
4.30534e-18
5.15287e-18
1.86796e-17
-2.528e-18
-2.43098e-18
-2.43589e-19
1.24079e-18
-1.75118e-17
2.87007e-18
7.54873e-18
-4.00611e-18
-2.17198e-18
-4.74559e-17
7.48901e-18
1.60812e-17
-7.38225e-18
-5.03389e-18
-7.31962e-17
1.13972e-17
2.33349e-17
-1.03509e-17
-7.41036e-18
-9.51496e-17
1.47588e-17
2.95288e-17
-1.2753e-17
-9.48985e-18
-1.13954e-16
1.75896e-17
3.48244e-17
-1.4594e-17
-1.13119e-17
-1.29904e-16
2.00037e-17
3.93608e-17
-1.63142e-17
-1.28299e-17
-1.43445e-16
2.20174e-17
4.3184e-17
-1.78464e-17
-1.397e-17
-1.54849e-16
2.37335e-17
4.63858e-17
-1.90847e-17
-1.50414e-17
-1.64433e-16
2.51671e-17
4.91324e-17
-1.98319e-17
-1.59071e-17
-1.72486e-16
2.63514e-17
5.14263e-17
-2.07072e-17
-1.6677e-17
-1.79081e-16
2.73524e-17
5.33607e-17
-2.13669e-17
-1.73045e-17
-1.84534e-16
2.81468e-17
5.49425e-17
-2.19571e-17
-1.76876e-17
-1.88979e-16
2.88023e-17
5.61984e-17
-2.24287e-17
-1.80734e-17
-1.92519e-16
2.92989e-17
5.72369e-17
-2.25468e-17
-1.84137e-17
-1.9532e-16
2.9705e-17
5.80751e-17
-2.27869e-17
-1.86794e-17
-1.97399e-16
2.99831e-17
5.87142e-17
-2.30095e-17
-1.87561e-17
-1.98965e-16
3.01914e-17
5.91423e-17
-2.31418e-17
-1.88552e-17
-1.99942e-16
3.03126e-17
5.94544e-17
-2.30261e-17
-1.89523e-17
-2.00482e-16
3.03797e-17
5.96591e-17
-2.30375e-17
-1.90122e-17
-2.00562e-16
3.03697e-17
5.9744e-17
-2.30606e-17
-1.89306e-17
-2.00332e-16
3.03367e-17
5.96956e-17
-2.30343e-17
-1.889e-17
-1.99793e-16
3.02512e-17
5.96e-17
-2.28156e-17
-1.88528e-17
-1.99059e-16
3.01416e-17
5.94499e-17
-2.27032e-17
-1.87967e-17
-1.98102e-16
2.99899e-17
5.92349e-17
-2.26108e-17
-1.86458e-17
-1.97016e-16
2.98291e-17
5.89498e-17
-2.24886e-17
-1.85393e-17
-1.95785e-16
2.96398e-17
5.86449e-17
-2.22267e-17
-1.8435e-17
-1.94475e-16
2.94444e-17
5.83169e-17
-2.20741e-17
-1.83283e-17
-1.93075e-16
2.92274e-17
5.79588e-17
-2.1933e-17
-1.81653e-17
-1.91635e-16
2.90116e-17
5.7558e-17
-2.17757e-17
-1.80281e-17
-1.9014e-16
2.87847e-17
5.71627e-17
-2.15347e-17
-1.78985e-17
-1.8863e-16
2.85597e-17
5.67611e-17
-2.136e-17
-1.77681e-17
-1.87099e-16
2.83258e-17
5.6344e-17
-2.11919e-17
-1.75966e-17
-1.85574e-16
2.80931e-17
5.59102e-17
-2.10248e-17
-1.74601e-17
-1.84047e-16
2.78583e-17
5.54845e-17
-2.08093e-17
-1.73206e-17
-1.82544e-16
2.76272e-17
5.50565e-17
-2.06431e-17
-1.71855e-17
-1.81048e-16
2.7399e-17
5.46313e-17
-2.04733e-17
-1.70539e-17
-1.79579e-16
2.71714e-17
5.42057e-17
-2.0306e-17
-1.69101e-17
-1.78143e-16
2.69491e-17
5.37794e-17
-2.01476e-17
-1.6782e-17
-1.76735e-16
2.67295e-17
5.33619e-17
-1.99774e-17
-1.66531e-17
-1.75363e-16
2.6514e-17
5.2949e-17
-1.98285e-17
-1.65301e-17
-1.74025e-16
2.6304e-17
5.25414e-17
-1.96723e-17
-1.64103e-17
-1.72725e-16
2.60982e-17
5.21407e-17
-1.95307e-17
-1.62969e-17
-1.7146e-16
2.58979e-17
5.17473e-17
-1.93974e-17
-1.61789e-17
-1.70234e-16
2.57013e-17
5.13591e-17
-1.92637e-17
-1.60669e-17
-1.69047e-16
2.55126e-17
5.09784e-17
-1.91204e-17
-1.59692e-17
-1.67896e-16
2.53257e-17
5.06109e-17
-1.89942e-17
-1.58706e-17
-1.66786e-16
2.51477e-17
5.02466e-17
-1.88948e-17
-1.57635e-17
-1.65707e-16
2.49694e-17
4.98848e-17
-1.87819e-17
-1.56622e-17
-1.64669e-16
2.4803e-17
4.95341e-17
-1.86526e-17
-1.55886e-17
-1.63661e-16
2.46356e-17
4.91998e-17
-1.85405e-17
-1.55062e-17
-1.62693e-16
2.44781e-17
4.88656e-17
-1.84745e-17
-1.54077e-17
-1.61751e-16
2.43176e-17
4.8531e-17
-1.83702e-17
-1.53166e-17
-1.60851e-16
2.41696e-17
-1.82674e-17
-1.52567e-17
-1.59969e-16
2.40191e-17
-1.81875e-17
-1.51719e-17
-1.59131e-16
2.38821e-17
)
;
    }
    axis
    {
        type            empty;
        value           nonuniform 0();
    }
    procBoundary3to2
    {
        type            processor;
        value           nonuniform List<scalar> 5(-3.21482e-05 -9.63605e-05 -2.52845e-06 -0.00016348 -0.000228273);
    }
    procBoundary3to4
    {
        type            processor;
        value           nonuniform List<scalar> 4(3.17216e-05 9.48195e-05 0.000156732 0.000216533);
    }
    procBoundary3to8
    {
        type            processor;
        value           uniform -0.000292477;
    }
    procBoundary3to9
    {
        type            processor;
        value           nonuniform List<scalar> 
70
(
-1.45209e-05
-1.27452e-05
-1.09805e-05
-9.28416e-06
1.24035e-06
1.2331e-06
1.22602e-06
-7.59167e-06
-6.18545e-06
-4.9251e-06
-3.81455e-06
-2.84853e-06
-2.01559e-06
-1.3015e-06
-6.92032e-07
-1.73682e-07
2.68533e-07
6.43277e-07
9.60376e-07
1.22888e-06
1.45606e-06
1.64797e-06
1.80974e-06
1.94576e-06
2.05969e-06
2.15465e-06
2.23331e-06
2.29793e-06
2.35043e-06
2.39249e-06
2.42555e-06
2.45082e-06
2.4694e-06
2.4822e-06
2.49004e-06
2.49361e-06
2.49352e-06
2.49032e-06
2.48446e-06
2.47635e-06
2.46635e-06
2.45476e-06
2.44185e-06
2.42786e-06
2.41299e-06
2.39741e-06
2.38129e-06
2.36475e-06
2.34791e-06
2.33087e-06
2.31372e-06
2.29652e-06
2.27934e-06
2.26223e-06
2.24523e-06
2.22839e-06
2.21172e-06
2.19526e-06
2.17902e-06
2.16303e-06
2.14728e-06
2.13179e-06
2.11656e-06
2.1016e-06
2.08691e-06
2.07249e-06
2.05833e-06
2.04442e-06
0.000275445
2.03078e-06
)
;
    }
}


// ************************************************************************* //
