/*--------------------------------*- C++ -*----------------------------------*\
  =========                 |
  \\      /  F ield         | OpenFOAM: The Open Source CFD Toolbox
   \\    /   O peration     | Website:  https://openfoam.org
    \\  /    A nd           | Version:  7
     \\/     M anipulation  |
\*---------------------------------------------------------------------------*/
FoamFile
{
    version     2.0;
    format      ascii;
    class       surfaceScalarField;
    location    "2.6";
    object      phi;
}
// * * * * * * * * * * * * * * * * * * * * * * * * * * * * * * * * * * * * * //

dimensions      [0 3 -1 0 0 0 0];

internalField   nonuniform List<scalar> 
615
(
0.000135355
-1.72871e-06
0.000135252
-1.69748e-06
0.00013515
-1.66702e-06
0.00013505
-1.6373e-06
0.000134952
-1.60831e-06
0.000134855
-1.58002e-06
0.00013476
-1.5524e-06
0.000134667
-1.52544e-06
0.000134576
-1.49912e-06
0.000134485
-1.47341e-06
0.000134397
-1.4483e-06
0.00013431
-1.42377e-06
0.000134224
-1.3998e-06
0.00013414
-1.37637e-06
0.000134057
-1.35347e-06
0.000133975
-1.33107e-06
0.000133895
-1.30916e-06
0.000133816
-1.28773e-06
0.000133739
-1.26675e-06
0.000133662
-1.24621e-06
0.000133587
-1.22609e-06
0.000133513
-1.20638e-06
0.000133441
-1.18706e-06
0.000133369
-1.16811e-06
0.000133299
-1.14952e-06
0.00013323
-1.13127e-06
0.000133162
-1.11335e-06
0.000133095
-1.09574e-06
0.000133029
-1.07844e-06
0.000132964
-1.06143e-06
-1.0447e-06
0.000138435
-3.51763e-06
0.000138209
-3.42714e-06
0.000137989
-3.34022e-06
0.000137774
-3.25666e-06
0.000137564
-3.17629e-06
0.000137359
-3.09891e-06
0.000137159
-3.02439e-06
0.000136964
-2.95255e-06
0.000136772
-2.88328e-06
0.000136585
-2.81642e-06
0.000136402
-2.75187e-06
0.000136223
-2.68952e-06
0.000136048
-2.62924e-06
0.000135877
-2.57095e-06
0.000135709
-2.51456e-06
0.000135545
-2.45997e-06
0.000135384
-2.4071e-06
0.000135226
-2.35588e-06
0.000135072
-2.30623e-06
0.000134921
-2.25809e-06
0.000134773
-2.21139e-06
0.000134627
-2.16607e-06
0.000134485
-2.12207e-06
0.000134345
-2.07934e-06
0.000134208
-2.03783e-06
0.000134074
-1.99749e-06
0.000133943
-1.95827e-06
0.000133813
-1.92013e-06
0.000133687
-1.88302e-06
0.000133562
-1.84692e-06
0.00013344
-1.81178e-06
0.00013332
-1.77757e-06
0.000133203
-1.74425e-06
0.000133087
-1.7118e-06
0.000132974
-1.68017e-06
0.000132862
-1.64936e-06
0.000132753
-1.61931e-06
0.000132645
-1.59002e-06
0.00013254
-1.56145e-06
0.000132436
-1.53359e-06
0.000132334
-1.50641e-06
0.000132234
-1.47988e-06
0.000132136
-1.45399e-06
0.000132039
-1.42872e-06
0.000131944
-1.40405e-06
0.00013185
-1.37996e-06
0.000131759
-1.35643e-06
0.000131668
-1.33344e-06
0.000131579
-1.31098e-06
0.000131492
-1.28903e-06
0.000131406
-1.26758e-06
0.000131322
-1.2466e-06
0.000131239
-1.22608e-06
0.000131157
-1.20601e-06
0.000131077
-1.18637e-06
0.000130997
-1.16714e-06
0.00013092
-1.14831e-06
0.000130843
-1.12986e-06
0.000130768
-1.11177e-06
0.000130694
-1.09404e-06
0.000130621
-1.07665e-06
0.000130549
-1.05958e-06
0.000130479
-1.04281e-06
0.000130409
-1.02635e-06
0.000130341
-1.01017e-06
0.000130274
-9.94265e-07
-9.78629e-07
0.000135652
-3.27793e-06
0.000135418
-3.19337e-06
0.00013519
-3.11216e-06
0.000134968
-3.03411e-06
0.00013475
-2.95903e-06
0.000134538
-2.88677e-06
0.000134331
-2.81718e-06
0.000134129
-2.75011e-06
0.000133931
-2.68543e-06
0.000133737
-2.62303e-06
0.000133548
-2.56278e-06
0.000133363
-2.50458e-06
0.000133183
-2.44834e-06
0.000133006
-2.39395e-06
0.000132832
-2.34133e-06
0.000132663
-2.29041e-06
0.000132497
-2.24109e-06
0.000132334
-2.19331e-06
0.000132175
-2.14701e-06
0.000132019
-2.10211e-06
0.000131866
-2.05856e-06
0.000131716
-2.0163e-06
0.00013157
-1.97528e-06
0.000131426
-1.93544e-06
0.000131285
-1.89675e-06
0.000131146
-1.85914e-06
0.000131011
-1.82258e-06
0.000130877
-1.78703e-06
0.000130747
-1.75246e-06
0.000130619
-1.71881e-06
0.000130493
-1.68607e-06
0.00013037
-1.65419e-06
0.000130249
-1.62315e-06
0.00013013
-1.59291e-06
0.000130013
-1.56345e-06
0.000129898
-1.53474e-06
0.000129786
-1.50676e-06
0.000129675
-1.47947e-06
0.000129567
-1.45287e-06
0.00012946
-1.42692e-06
0.000129355
-1.4016e-06
0.000129252
-1.3769e-06
0.000129151
-1.3528e-06
0.000129052
-1.32927e-06
0.000128954
-1.3063e-06
0.000128858
-1.28388e-06
0.000128763
-1.26198e-06
0.00012867
-1.24058e-06
0.000128579
-1.21968e-06
0.000128489
-1.19926e-06
0.000128401
-1.1793e-06
0.000128314
-1.15978e-06
0.000128229
-1.1407e-06
0.000128145
-1.12203e-06
0.000128062
-1.10376e-06
0.000127981
-1.08588e-06
0.000127901
-1.06838e-06
0.000127822
-1.05122e-06
0.000127745
-1.03442e-06
0.000127669
-1.01794e-06
0.000127594
-1.00177e-06
0.00012752
-9.85914e-07
0.000127448
-9.70342e-07
0.000127377
-9.55049e-07
0.000127307
-9.40024e-07
0.000127238
-9.25257e-07
-9.10742e-07
0.00013245
-3.03169e-06
0.00013221
-2.95331e-06
0.000131976
-2.87803e-06
0.000131748
-2.80569e-06
0.000131525
-2.73613e-06
0.000131307
-2.66917e-06
0.000131095
-2.6047e-06
0.000130887
-2.54257e-06
0.000130685
-2.48266e-06
0.000130486
-2.42486e-06
0.000130293
-2.36906e-06
0.000130103
-2.31517e-06
0.000129918
-2.26309e-06
0.000129737
-2.21274e-06
0.000129559
-2.16402e-06
0.000129386
-2.11688e-06
0.000129216
-2.07123e-06
0.00012905
-2.02701e-06
0.000128887
-1.98415e-06
0.000128727
-1.9426e-06
0.000128571
-1.9023e-06
0.000128418
-1.86319e-06
0.000128268
-1.82523e-06
0.000128121
-1.78837e-06
0.000127977
-1.75257e-06
0.000127835
-1.71778e-06
0.000127697
-1.68396e-06
0.000127561
-1.65108e-06
0.000127427
-1.6191e-06
0.000127297
-1.58798e-06
0.000127168
-1.55769e-06
0.000127042
-1.52821e-06
0.000126919
-1.4995e-06
0.000126797
-1.47154e-06
0.000126678
-1.4443e-06
0.000126561
-1.41776e-06
0.000126446
-1.39188e-06
0.000126333
-1.36666e-06
0.000126223
-1.34207e-06
0.000126114
-1.31808e-06
0.000126007
-1.29468e-06
0.000125902
-1.27185e-06
0.000125799
-1.24957e-06
0.000125697
-1.22783e-06
0.000125597
-1.20661e-06
0.000125499
-1.18589e-06
0.000125403
-1.16565e-06
0.000125308
-1.14589e-06
0.000125215
-1.12658e-06
0.000125124
-1.10772e-06
0.000125034
-1.08928e-06
0.000124945
-1.07126e-06
0.000124858
-1.05364e-06
0.000124773
-1.03641e-06
0.000124688
-1.01954e-06
0.000124606
-1.00304e-06
0.000124524
-9.86883e-07
0.000124444
-9.71057e-07
0.000124365
-9.5555e-07
0.000124287
-9.40349e-07
0.000124211
-9.25442e-07
0.000124136
-9.10815e-07
0.000124062
-8.96458e-07
0.000123989
-8.82359e-07
0.000123918
-8.6851e-07
0.000123848
-8.54902e-07
-8.41527e-07
0.00012882
-2.78102e-06
0.000128576
-2.70899e-06
0.000128337
-2.63982e-06
0.000128105
-2.57336e-06
0.000127878
-2.50944e-06
0.000127657
-2.44794e-06
0.000127441
-2.38872e-06
0.00012723
-2.33165e-06
0.000127024
-2.27663e-06
0.000126823
-2.22355e-06
0.000126626
-2.17231e-06
0.000126434
-2.12283e-06
0.000126246
-2.07501e-06
0.000126062
-2.02878e-06
0.000125882
-1.98406e-06
0.000125706
-1.94078e-06
0.000125533
-1.89887e-06
0.000125365
-1.85828e-06
0.000125199
-1.81895e-06
0.000125038
-1.78081e-06
0.000124879
-1.74383e-06
0.000124724
-1.70794e-06
0.000124572
-1.67311e-06
0.000124423
-1.63929e-06
0.000124277
-1.60643e-06
0.000124133
-1.57451e-06
0.000123993
-1.54348e-06
0.000123855
-1.51332e-06
0.00012372
-1.48398e-06
0.000123587
-1.45543e-06
0.000123457
-1.42765e-06
0.00012333
-1.40061e-06
0.000123205
-1.37428e-06
0.000123082
-1.34863e-06
0.000122961
-1.32365e-06
0.000122842
-1.2993e-06
0.000122726
-1.27558e-06
0.000122612
-1.25245e-06
0.0001225
-1.22989e-06
0.00012239
-1.2079e-06
0.000122281
-1.18645e-06
0.000122175
-1.16552e-06
0.000122071
-1.1451e-06
0.000121968
-1.12517e-06
0.000121867
-1.10571e-06
0.000121768
0.00012167
0.000121575
0.00012148
0.000121388
0.000121297
0.000121207
0.000121119
0.000121032
0.000120947
0.000120863
0.000120781
0.0001207
0.00012062
0.000120541
0.000120464
0.000120388
0.000120313
0.00012024
0.000120168
0.000120096
0.000124751
0.000124505
0.000124265
0.00012403
0.000123802
0.000123579
0.000123361
0.000123149
0.000122941
0.000122738
0.00012254
0.000122347
0.000122157
0.000121972
0.000121791
0.000121614
0.00012144
0.00012127
0.000121104
0.000120941
0.000120782
0.000120626
0.000120473
0.000120323
0.000120176
0.000120032
0.000119891
0.000119752
0.000119616
0.000119483
0.000119353
0.000119224
0.000119098
0.000118975
0.000118854
0.000118735
0.000118618
0.000118503
0.000118391
0.00011828
0.000118171
0.000118064
0.000117959
0.000117856
)
;

boundaryField
{
    inlet
    {
        type            calculated;
        value           nonuniform 0();
    }
    outlet
    {
        type            calculated;
        value           nonuniform 0();
    }
    wall
    {
        type            calculated;
        value           nonuniform 0();
    }
    wedge1
    {
        type            wedge;
        value           nonuniform List<scalar> 
344
(
-1.36109e-16
3.34578e-16
-1.14015e-16
-5.37198e-16
1.66852e-16
-1.3257e-16
3.26002e-16
-1.11006e-16
-5.23214e-16
1.62581e-16
-1.29145e-16
3.17782e-16
-1.08111e-16
-5.09778e-16
1.58488e-16
-1.25952e-16
3.09761e-16
-1.05435e-16
-4.96989e-16
1.54449e-16
-1.22783e-16
3.0217e-16
-1.02755e-16
-4.84576e-16
1.50659e-16
-1.19875e-16
2.94696e-16
-1.00331e-16
-4.72788e-16
1.46881e-16
-1.16957e-16
2.87645e-16
-9.78593e-17
-4.6129e-16
1.43372e-16
-1.14221e-16
2.80744e-16
-9.55656e-17
-4.5031e-16
1.39908e-16
-1.11478e-16
2.74217e-16
-9.32465e-17
-4.39613e-16
1.36656e-16
-1.08978e-16
2.67747e-16
-9.11662e-17
-4.29454e-16
1.33385e-16
-1.06445e-16
2.61652e-16
-8.90202e-17
-4.19498e-16
1.30358e-16
-1.0407e-16
2.55659e-16
-8.70345e-17
-4.09983e-16
1.27349e-16
-1.01676e-16
2.49993e-16
-8.50102e-17
-4.0068e-16
1.24529e-16
-9.95057e-17
2.44341e-16
-8.32123e-17
-3.91847e-16
1.21663e-16
-9.73083e-17
2.38998e-16
-8.13617e-17
-3.83188e-16
1.18988e-16
-9.5242e-17
2.33743e-16
-7.96383e-17
-3.7488e-16
1.16346e-16
-9.32488e-17
2.28654e-16
-7.79793e-17
-3.6684e-16
1.1378e-16
-9.13146e-17
2.23728e-16
-7.63672e-17
-3.59049e-16
1.11294e-16
-8.9436e-17
2.18956e-16
-7.48015e-17
-3.51496e-16
1.08889e-16
-8.76139e-17
2.14332e-16
-7.32802e-17
-3.4417e-16
1.06558e-16
-8.58464e-17
2.09846e-16
-7.18061e-17
-3.37067e-16
1.04297e-16
-8.41284e-17
2.05496e-16
-7.03739e-17
-3.30172e-16
1.02104e-16
-8.24604e-17
2.01275e-16
-6.89814e-17
-3.23478e-16
9.99792e-17
-8.08431e-17
1.97172e-16
-6.76302e-17
-3.1698e-16
9.79162e-17
-7.92698e-17
1.93189e-16
-6.63174e-17
-3.10667e-16
9.59125e-17
-7.7738e-17
1.89322e-16
-6.50345e-17
-3.04523e-16
9.3976e-17
-7.61671e-17
1.8566e-16
-6.36885e-17
-2.98452e-16
9.21835e-17
-7.46174e-17
1.82111e-16
-6.23775e-17
-2.92545e-16
9.0446e-17
-7.32086e-17
1.78542e-16
-6.12052e-17
-2.86915e-16
8.86566e-17
-7.17432e-17
1.75187e-16
-5.99647e-17
-2.8133e-16
8.7002e-17
-7.04535e-17
1.71761e-16
-5.89033e-17
-2.76043e-16
8.52676e-17
-6.9088e-17
1.68567e-16
-5.77415e-17
-2.70757e-16
8.37019e-17
-6.78253e-17
1.65357e-16
-5.66925e-17
-2.65706e-16
8.20964e-17
-6.65386e-17
1.62313e-16
-5.56031e-17
-2.60712e-16
8.0589e-17
-6.5257e-17
1.59372e-16
-5.451e-17
-2.55812e-16
7.9164e-17
-6.40401e-17
1.56463e-16
-5.34892e-17
-2.51084e-16
7.77309e-17
-6.81144e-17
-6.28225e-17
1.53669e-16
-5.24503e-17
-2.46434e-16
7.63737e-17
-6.68668e-17
-6.16532e-17
1.50915e-16
-5.14683e-17
-2.41938e-16
7.5011e-17
-6.5616e-17
-6.05033e-17
1.48252e-16
-5.0493e-17
-2.37527e-16
7.37146e-17
-6.44399e-17
-5.94099e-17
1.45614e-16
-4.9577e-17
-2.33262e-16
7.24141e-17
-6.32504e-17
-5.83132e-17
1.43079e-16
-4.86464e-17
-2.29068e-16
7.11774e-17
-6.21256e-17
-5.726e-17
1.40579e-16
-4.7764e-17
-2.25005e-16
6.99388e-17
-6.09907e-17
-5.62194e-17
1.38165e-16
-4.6883e-17
-2.21013e-16
6.87608e-17
-5.99271e-17
-5.52306e-17
1.3577e-16
-4.60582e-17
-2.17155e-16
6.75753e-17
-5.88461e-17
-5.42354e-17
1.33468e-16
-4.52158e-17
-2.13354e-16
6.64508e-17
-5.78323e-17
-5.32982e-17
1.31174e-16
-4.44362e-17
-2.0969e-16
-5.68405e-17
-5.23729e-17
1.28956e-16
-4.3662e-17
-2.06094e-16
-5.5833e-17
-5.14502e-17
1.2681e-16
-4.28811e-17
-2.02554e-16
-5.48894e-17
-5.0574e-17
1.24678e-16
-4.21524e-17
-1.99132e-16
-5.39273e-17
-4.96887e-17
1.22632e-16
-4.14034e-17
-1.95754e-16
-5.30211e-17
-4.88399e-17
1.20607e-16
-4.06945e-17
-1.9248e-16
-5.20993e-17
-4.79972e-17
1.1865e-16
-3.99826e-17
-1.89254e-16
-5.12429e-17
-4.72024e-17
1.16697e-16
-3.93247e-17
-1.86137e-16
-5.03641e-17
-4.63957e-17
1.14823e-16
-3.8642e-17
-1.83053e-16
-4.95343e-17
-4.56187e-17
1.12968e-16
-3.79959e-17
-1.80064e-16
-4.86922e-17
-4.48488e-17
1.11173e-16
-3.73454e-17
-1.77111e-16
-4.79079e-17
-4.41223e-17
1.09377e-16
-3.67434e-17
-1.74255e-16
-4.70979e-17
-4.33796e-17
1.07656e-16
-3.61156e-17
-1.71422e-16
-4.63354e-17
-4.26652e-17
1.05947e-16
-3.55224e-17
-1.68674e-16
-4.55561e-17
-4.19541e-17
1.04293e-16
-3.49233e-17
-1.65955e-16
-4.4833e-17
-4.12838e-17
1.02632e-16
-3.43699e-17
-1.63324e-16
-4.40827e-17
-4.05973e-17
1.0104e-16
-3.37892e-17
-1.60705e-16
-4.33727e-17
-3.99313e-17
9.94574e-17
-3.32397e-17
-1.58162e-16
-4.26484e-17
-3.92722e-17
9.79202e-17
-3.26842e-17
-1.55641e-16
-4.19752e-17
-3.86486e-17
9.63745e-17
-3.21723e-17
-1.53199e-16
-4.12748e-17
-3.8009e-17
9.48912e-17
-3.16326e-17
-1.50764e-16
-4.06166e-17
-3.73919e-17
9.3409e-17
-3.11248e-17
-1.484e-16
)
;
    }
    wedge2
    {
        type            wedge;
        value           nonuniform List<scalar> 
344
(
-1.33652e-16
3.37066e-16
-1.11538e-16
-5.34756e-16
1.69213e-16
-1.30253e-16
3.28317e-16
-1.08714e-16
-5.20966e-16
1.64763e-16
-1.27014e-16
3.19897e-16
-1.06008e-16
-5.07732e-16
1.60484e-16
-1.238e-16
3.11925e-16
-1.03301e-16
-4.94894e-16
1.56478e-16
-1.20806e-16
3.04133e-16
-1.00804e-16
-4.82663e-16
1.52531e-16
-1.17782e-16
2.96802e-16
-9.82472e-17
-4.70738e-16
1.48866e-16
-1.14986e-16
2.89594e-16
-9.59209e-17
-4.59401e-16
1.45208e-16
-1.12214e-16
2.82753e-16
-9.35917e-17
-4.48379e-16
1.41767e-16
-1.09645e-16
2.76029e-16
-9.14532e-17
-4.37863e-16
1.38362e-16
-1.07019e-16
2.69712e-16
-8.92329e-17
-4.27558e-16
1.35211e-16
-1.04602e-16
2.63463e-16
-8.72273e-17
-4.17761e-16
1.32039e-16
-1.02196e-16
2.57531e-16
-8.52032e-17
-4.08198e-16
1.29062e-16
-9.99686e-17
2.51673e-16
-8.33525e-17
-3.99066e-16
1.26098e-16
-9.76693e-17
2.46181e-16
-8.14037e-17
-3.90075e-16
1.23372e-16
-9.55423e-17
2.40744e-16
-7.96299e-17
-3.81495e-16
1.20639e-16
-9.34226e-17
2.35563e-16
-7.78455e-17
-3.73118e-16
1.18046e-16
-9.1362e-17
2.30548e-16
-7.61081e-17
-3.65004e-16
1.15545e-16
-8.93685e-17
2.25685e-16
-7.44299e-17
-3.57147e-16
1.13123e-16
-8.744e-17
2.2097e-16
-7.2807e-17
-3.49536e-16
1.10772e-16
-8.55704e-17
2.16394e-16
-7.12368e-17
-3.42162e-16
1.08492e-16
-8.37566e-17
2.11957e-16
-6.97124e-17
-3.35007e-16
1.06281e-16
-8.19993e-17
2.07648e-16
-6.82352e-17
-3.28068e-16
1.04135e-16
-8.02932e-17
2.03464e-16
-6.68036e-17
-3.21335e-16
1.0205e-16
-7.86338e-17
1.99404e-16
-6.54124e-17
-3.14796e-16
1.00024e-16
-7.70237e-17
1.95458e-16
-6.40614e-17
-3.08445e-16
9.80566e-17
-7.54617e-17
1.91619e-16
-6.27559e-17
-3.02284e-16
9.61348e-17
-7.40249e-17
1.8779e-16
-6.15857e-17
-2.96395e-16
9.41772e-17
-7.26497e-17
1.84056e-16
-6.04502e-17
-2.90674e-16
9.22686e-17
-7.12132e-17
1.8054e-16
-5.92429e-17
-2.84993e-16
9.05119e-17
-6.99099e-17
1.77001e-16
-5.81682e-17
-2.79574e-16
8.87168e-17
-6.85047e-17
1.73717e-16
-5.69764e-17
-2.74153e-16
8.70941e-17
-6.72464e-17
1.70379e-16
-5.59448e-17
-2.69015e-16
8.5392e-17
-6.59539e-17
1.67229e-16
-5.48579e-17
-2.63916e-16
8.38157e-17
-6.47515e-17
1.64076e-16
-5.38669e-17
-2.59025e-16
8.22245e-17
-6.36078e-17
1.6098e-16
-5.29333e-17
-2.54295e-16
8.06309e-17
-6.2461e-17
1.58006e-16
-5.19791e-17
-2.49639e-16
7.91227e-17
-6.66467e-17
-6.13744e-17
1.55066e-16
-5.1093e-17
-2.45143e-16
7.76134e-17
-6.54597e-17
-6.02971e-17
1.5223e-16
-5.01982e-17
-2.40723e-16
7.61817e-17
-6.43361e-17
-5.92561e-17
1.49441e-16
-4.93436e-17
-2.36441e-16
7.47538e-17
-6.31959e-17
-5.82123e-17
1.46761e-16
-4.84748e-17
-2.32228e-16
7.33973e-17
-6.21253e-17
-5.72239e-17
1.44108e-16
-4.76644e-17
-2.28153e-16
7.20427e-17
-6.10445e-17
-5.62425e-17
1.41546e-16
-4.68482e-17
-2.24148e-16
7.07533e-17
-6.00267e-17
-5.52973e-17
1.39021e-16
-4.60716e-17
-2.20267e-16
6.94647e-17
-5.89886e-17
-5.43477e-17
1.36594e-16
-4.52785e-17
-2.16442e-16
6.82431e-17
-5.80174e-17
-5.34503e-17
1.34189e-16
-4.45417e-17
-2.12744e-16
6.7018e-17
-5.7027e-17
-5.25393e-17
1.31886e-16
-4.37792e-17
-2.09086e-16
-5.60611e-17
-5.16595e-17
1.29615e-16
-4.30477e-17
-2.05532e-16
-5.51559e-17
-5.08187e-17
1.27376e-16
-4.23578e-17
-2.0209e-16
-5.42304e-17
-4.99718e-17
1.25224e-16
-4.16497e-17
-1.98691e-16
-5.33656e-17
-4.91729e-17
1.23084e-16
-4.09948e-17
-1.95406e-16
-5.24856e-17
-4.83755e-17
1.21016e-16
-4.03315e-17
-1.92168e-16
-5.16606e-17
-4.76084e-17
1.18973e-16
-3.9702e-17
-1.89028e-16
-5.08085e-17
-4.68288e-17
1.17013e-16
-3.90481e-17
-1.8592e-16
-5.00155e-17
-4.60951e-17
1.1506e-16
-3.84478e-17
-1.82917e-16
-4.92089e-17
-4.53646e-17
1.13169e-16
-3.78386e-17
-1.79952e-16
-4.84486e-17
-4.46585e-17
1.11298e-16
-3.72603e-17
-1.77076e-16
-4.76635e-17
-4.39395e-17
1.09503e-16
-3.66591e-17
-1.74226e-16
-4.69355e-17
-4.32659e-17
1.07706e-16
-3.61083e-17
-1.7147e-16
-4.61903e-17
-4.25919e-17
1.05967e-16
-3.55467e-17
-1.68742e-16
-4.54909e-17
-4.19415e-17
1.0424e-16
-3.50134e-17
-1.66093e-16
-4.47629e-17
-4.1276e-17
1.02585e-16
-3.44561e-17
-1.63461e-16
-4.40888e-17
-4.06513e-17
1.00922e-16
-3.3947e-17
-1.60915e-16
-4.33999e-17
-4.00298e-17
9.93091e-17
-3.34266e-17
-1.58388e-16
-4.27496e-17
-3.94239e-17
9.7707e-17
-3.29313e-17
-1.5593e-16
-4.20717e-17
-3.88043e-17
9.61678e-17
-3.24106e-17
-1.53482e-16
-4.14435e-17
-3.82216e-17
9.46187e-17
-3.19356e-17
-1.51111e-16
-4.07951e-17
-3.76367e-17
9.31194e-17
-3.14459e-17
-1.48752e-16
)
;
    }
    axis
    {
        type            empty;
        value           nonuniform 0();
    }
    procBoundary25to19
    {
        type            processor;
        value           nonuniform List<scalar> 
68
(
1.83413e-06
1.80104e-06
1.76877e-06
1.73728e-06
1.70655e-06
1.67657e-06
1.6473e-06
1.61872e-06
1.59082e-06
1.56356e-06
1.53694e-06
1.51092e-06
1.4855e-06
1.46065e-06
1.43635e-06
1.41259e-06
1.38934e-06
1.3666e-06
1.34433e-06
1.32253e-06
1.30117e-06
1.28025e-06
1.25973e-06
1.23961e-06
1.21986e-06
1.20048e-06
1.18144e-06
1.16273e-06
1.14435e-06
1.12627e-06
1.10849e-06
3.74876e-06
3.65264e-06
3.5603e-06
3.47151e-06
3.38609e-06
3.30385e-06
3.22462e-06
3.14824e-06
3.07458e-06
3.00348e-06
2.93482e-06
2.86848e-06
2.80436e-06
2.74233e-06
2.68232e-06
2.62422e-06
2.56795e-06
2.51342e-06
2.46057e-06
2.40931e-06
2.35958e-06
2.31132e-06
2.26446e-06
2.21895e-06
2.17473e-06
2.13175e-06
2.08997e-06
2.04933e-06
2.0098e-06
1.97133e-06
1.93388e-06
1.89742e-06
1.8619e-06
1.82731e-06
1.7936e-06
-0.000135461
1.76074e-06
)
;
    }
    procBoundary25to24
    {
        type            processor;
        value           nonuniform List<scalar> 4(-0.000138666 -0.000135892 -0.000132697 -0.000129071);
    }
    procBoundary25to26
    {
        type            processor;
        value           nonuniform List<scalar> 5(0.0001329 0.000130208 0.00012717 0.000123778 0.000120026);
    }
    procBoundary25to30
    {
        type            processor;
        value           uniform -0.000125004;
    }
    procBoundary25to31
    {
        type            processor;
        value           nonuniform List<scalar> 
68
(
-1.08672e-06
-1.06818e-06
-1.05007e-06
-1.03238e-06
-1.01509e-06
-9.98204e-07
-9.81696e-07
-9.65557e-07
-9.49774e-07
-9.34334e-07
-9.19224e-07
-9.04433e-07
-8.89949e-07
-8.75758e-07
-8.61849e-07
-8.4821e-07
-8.34831e-07
-8.21701e-07
-8.0881e-07
-7.96149e-07
-7.83711e-07
-7.7149e-07
-2.5281e-06
-2.46253e-06
-2.39958e-06
-2.33909e-06
-2.28092e-06
-2.22495e-06
-2.17105e-06
-2.11913e-06
-2.06907e-06
-2.02077e-06
-1.97416e-06
-1.92914e-06
-1.88564e-06
-1.84359e-06
-1.80291e-06
-1.76354e-06
-1.72543e-06
-1.68851e-06
-1.65274e-06
-1.61806e-06
-1.58443e-06
-1.55179e-06
-1.52012e-06
-1.48937e-06
-1.4595e-06
-1.43047e-06
-1.40226e-06
-1.37484e-06
-1.34816e-06
-1.32221e-06
-1.29696e-06
-1.27238e-06
-1.24844e-06
-1.22513e-06
-1.20242e-06
-1.1803e-06
-1.15873e-06
-1.13771e-06
-1.11722e-06
-1.09723e-06
-1.07774e-06
-1.05872e-06
-1.04017e-06
-1.02206e-06
0.000117755
-1.00439e-06
)
;
    }
}


// ************************************************************************* //
