/*--------------------------------*- C++ -*----------------------------------*\
  =========                 |
  \\      /  F ield         | OpenFOAM: The Open Source CFD Toolbox
   \\    /   O peration     | Website:  https://openfoam.org
    \\  /    A nd           | Version:  7
     \\/     M anipulation  |
\*---------------------------------------------------------------------------*/
FoamFile
{
    version     2.0;
    format      ascii;
    class       volVectorField;
    location    "3.6";
    object      U;
}
// * * * * * * * * * * * * * * * * * * * * * * * * * * * * * * * * * * * * * //

dimensions      [0 1 -1 0 0 0 0];

internalField   nonuniform List<vector> 
344
(
(2.6664 0.019529 5.08736e-16)
(2.65887 0.0194076 4.95749e-16)
(2.65142 0.0192879 4.91117e-16)
(2.64403 0.0191698 4.80249e-16)
(2.63671 0.0190531 4.70144e-16)
(2.62946 0.0189378 4.63779e-16)
(2.62227 0.0188238 4.62818e-16)
(2.61515 0.0187111 4.50816e-16)
(2.60809 0.0185996 4.47746e-16)
(2.6011 0.0184893 4.35172e-16)
(2.59416 0.01838 4.38148e-16)
(2.58729 0.0182717 4.22037e-16)
(2.58048 0.0181643 4.12856e-16)
(2.57373 0.0180579 4.1926e-16)
(2.56704 0.0179523 4.12717e-16)
(2.56042 0.0178475 4.0762e-16)
(2.55384 0.0177434 4.07411e-16)
(2.54733 0.01764 4.06544e-16)
(2.54088 0.0175373 4.11031e-16)
(2.53448 0.0174351 4.07999e-16)
(2.52814 0.0173335 4.04362e-16)
(2.52185 0.0172325 3.95538e-16)
(2.51562 0.0171319 4.06365e-16)
(2.50945 0.0170317 4.03908e-16)
(2.50332 0.016932 4.14799e-16)
(2.49726 0.0168327 4.11136e-16)
(2.49124 0.0167336 4.1902e-16)
(2.48528 0.016635 4.16441e-16)
(2.47937 0.0165365 4.13475e-16)
(2.47351 0.0164384 4.1174e-16)
(2.46771 0.0163405 4.1779e-16)
(2.46195 0.0162428 4.31106e-16)
(2.45625 0.0161453 4.20398e-16)
(2.45059 0.016048 4.16223e-16)
(2.44499 0.0159508 4.0639e-16)
(2.43943 0.0158538 4.16232e-16)
(2.43392 0.0157569 4.10739e-16)
(2.42846 0.0156601 3.96776e-16)
(2.42305 0.0155634 4.08553e-16)
(2.41769 0.0154668 4.08853e-16)
(2.41237 0.0153702 4.21082e-16)
(2.4071 0.0152737 4.18217e-16)
(2.40187 0.0151773 4.24927e-16)
(2.3967 0.0150809 4.30276e-16)
(2.39156 0.0149845 4.21365e-16)
(2.38648 0.0148882 4.24846e-16)
(2.38143 0.0147919 4.18528e-16)
(2.37644 0.0146957 4.30062e-16)
(2.37148 0.0145995 4.35359e-16)
(2.36657 0.0145033 4.40898e-16)
(2.36171 0.0144071 4.43138e-16)
(2.35688 0.0143109 4.50578e-16)
(2.3521 0.0142148 4.64255e-16)
(2.34736 0.0141187 4.57498e-16)
(2.34267 0.0140226 4.5521e-16)
(2.33801 0.0139266 4.5774e-16)
(2.3334 0.0138306 4.67254e-16)
(2.32883 0.0137346 4.60986e-16)
(2.64403 0.0254239 5.14336e-16)
(2.63549 0.0252256 4.85951e-16)
(2.62705 0.02503 4.90151e-16)
(2.6187 0.0248373 4.62504e-16)
(2.61044 0.0246472 4.72235e-16)
(2.60228 0.0244598 4.72615e-16)
(2.59421 0.0242749 4.71686e-16)
(2.58623 0.0240925 4.83283e-16)
(2.57834 0.0239126 4.44573e-16)
(2.57054 0.023735 4.58659e-16)
(2.56282 0.0235598 4.23773e-16)
(2.55519 0.0233867 4.44046e-16)
(2.54764 0.0232158 4.20387e-16)
(2.54018 0.023047 4.29964e-16)
(2.5328 0.0228802 4.29121e-16)
(2.5255 0.0227153 4.61409e-16)
(2.51828 0.0225523 3.82494e-16)
(2.51114 0.022391 4.26423e-16)
(2.50408 0.0222316 3.90008e-16)
(2.4971 0.0220738 4.28563e-16)
(2.49019 0.0219176 3.60639e-16)
(2.48336 0.021763 3.86163e-16)
(2.4766 0.0216098 4.00208e-16)
(2.46992 0.0214582 4.22514e-16)
(2.4633 0.0213078 3.86018e-16)
(2.45676 0.0211589 4.14645e-16)
(2.45029 0.0210112 3.79972e-16)
(2.44389 0.0208647 4.11302e-16)
(2.43756 0.0207194 3.88178e-16)
(2.4313 0.0205752 4.06677e-16)
(2.4251 0.0204322 4.24144e-16)
(2.41897 0.0202902 4.3441e-16)
(2.41291 0.0201491 4.58563e-16)
(2.40691 0.0200091 4.197e-16)
(2.40097 0.01987 4.54181e-16)
(2.3951 0.0197317 4.15689e-16)
(2.38929 0.0195943 4.49251e-16)
(2.38354 0.0194578 4.17921e-16)
(2.37785 0.019322 4.44438e-16)
(2.37222 0.019187 4.48817e-16)
(2.36665 0.0190527 4.89064e-16)
(2.36114 0.0189191 4.10318e-16)
(2.35569 0.0187862 4.55219e-16)
(2.35029 0.0186539 4.20301e-16)
(2.34495 0.0185223 4.65512e-16)
(2.33967 0.0183913 3.94642e-16)
(2.33444 0.0182609 4.25002e-16)
(2.32927 0.018131 4.43008e-16)
(2.32415 0.0180017 4.75529e-16)
(2.31908 0.0178729 4.38624e-16)
(2.31406 0.0177446 4.7163e-16)
(2.3091 0.0176168 4.39132e-16)
(2.30419 0.0174895 4.69783e-16)
(2.29933 0.0173627 4.42155e-16)
(2.29452 0.0172364 4.58868e-16)
(2.28976 0.0171105 4.82268e-16)
(2.28505 0.016985 4.9151e-16)
(2.28039 0.01686 5.14937e-16)
(2.27578 0.0167354 4.74517e-16)
(2.27121 0.0166113 5.01915e-16)
(2.26669 0.0164875 4.73366e-16)
(2.26222 0.0163642 5.07229e-16)
(2.2578 0.0162413 4.81517e-16)
(2.25341 0.0161188 5.06971e-16)
(2.24908 0.0159967 5.10023e-16)
(2.24479 0.015875 5.44638e-16)
(2.24054 0.0157537 4.66876e-16)
(2.52907 0.0303123 3.1557e-16)
(2.52036 0.030039 3.11264e-16)
(2.51176 0.0297695 2.97439e-16)
(2.50328 0.0295036 3.17318e-16)
(2.49491 0.0292413 3.07996e-16)
(2.48665 0.0289826 3.05355e-16)
(2.47851 0.0287274 3.04274e-16)
(2.47047 0.0284757 3.1227e-16)
(2.46253 0.0282273 3.00956e-16)
(2.45471 0.0279821 3.01062e-16)
(2.44698 0.0277402 2.90848e-16)
(2.43936 0.0275015 2.85827e-16)
(2.43184 0.0272658 3.13314e-16)
(2.42441 0.0270332 3.03136e-16)
(2.41709 0.0268034 2.97115e-16)
(2.40986 0.0265765 3.06317e-16)
(2.40272 0.0263524 3.18576e-16)
(2.39568 0.026131 3.18234e-16)
(2.38873 0.0259123 3.0057e-16)
(2.38187 0.0256961 3.01408e-16)
(2.3751 0.0254824 3.19144e-16)
(2.36842 0.0252712 3.03897e-16)
(2.36182 0.0250623 2.98397e-16)
(2.35531 0.0248557 3.07298e-16)
(2.34888 0.0246514 2.98159e-16)
(2.34253 0.0244492 3.06333e-16)
(2.33627 0.0242492 2.99605e-16)
(2.33008 0.0240512 2.9862e-16)
(2.32397 0.0238553 3.32838e-16)
(2.31795 0.0236613 3.27444e-16)
(2.31199 0.0234692 3.35267e-16)
(2.30612 0.0232789 3.34602e-16)
(2.30031 0.0230904 3.51966e-16)
(2.29458 0.0229037 3.46368e-16)
(2.28893 0.0227187 3.59052e-16)
(2.28334 0.0225353 3.53241e-16)
(2.27782 0.0223535 3.51747e-16)
(2.27237 0.0221733 3.83564e-16)
(2.26699 0.0219946 3.77431e-16)
(2.26168 0.0218174 3.76041e-16)
(2.25643 0.0216416 3.84596e-16)
(2.25124 0.0214672 4.04879e-16)
(2.24612 0.0212942 4.0213e-16)
(2.24107 0.0211226 3.88576e-16)
(2.23607 0.0209522 3.86749e-16)
(2.23114 0.0207831 4.05128e-16)
(2.22626 0.0206152 3.97847e-16)
(2.22145 0.0204486 3.9636e-16)
(2.21669 0.0202831 4.08187e-16)
(2.21199 0.0201188 3.97902e-16)
(2.20735 0.0199556 4.04294e-16)
(2.20277 0.0197935 3.96828e-16)
(2.19824 0.0196325 3.94859e-16)
(2.19376 0.0194725 4.30991e-16)
(2.18934 0.0193136 4.25495e-16)
(2.18497 0.0191557 4.23932e-16)
(2.18065 0.0189988 4.26956e-16)
(2.17638 0.0188429 4.4369e-16)
(2.17217 0.018688 4.37638e-16)
(2.168 0.018534 4.51499e-16)
(2.16388 0.018381 4.45202e-16)
(2.15982 0.0182289 4.39663e-16)
(2.1558 0.0180777 4.70583e-16)
(2.15182 0.0179274 4.67379e-16)
(2.1479 0.017778 4.65731e-16)
(2.14402 0.0176295 4.72213e-16)
(2.14018 0.0174819 4.91004e-16)
(2.39186 0.0351538 1.32962e-16)
(2.38326 0.0347914 1.16982e-16)
(2.37479 0.0344341 1.30719e-16)
(2.36645 0.0340819 1.25324e-16)
(2.35824 0.0337347 1.38032e-16)
(2.35016 0.0333924 1.45123e-16)
(2.34221 0.033055 1.55326e-16)
(2.33437 0.0327223 1.72229e-16)
(2.32666 0.0323944 1.48759e-16)
(2.31906 0.032071 1.69381e-16)
(2.31159 0.0317522 1.51358e-16)
(2.30422 0.0314378 1.71096e-16)
(2.29697 0.0311278 1.56518e-16)
(2.28983 0.0308221 1.7628e-16)
(2.2828 0.0305206 1.84352e-16)
(2.27588 0.0302231 2.14631e-16)
(2.26906 0.0299297 1.65614e-16)
(2.26234 0.0296402 1.99745e-16)
(2.25573 0.0293546 1.80542e-16)
(2.24921 0.0290727 2.15945e-16)
(2.2428 0.0287946 1.69943e-16)
(2.23648 0.02852 2.01441e-16)
(2.23025 0.0282489 2.14297e-16)
(2.22412 0.0279813 2.38645e-16)
(2.21808 0.027717 2.14606e-16)
(2.21213 0.027456 2.42483e-16)
(2.20627 0.0271983 2.15846e-16)
(2.20049 0.0269437 2.42349e-16)
(2.1948 0.0266921 2.31892e-16)
(2.18919 0.0264436 2.55595e-16)
(2.18367 0.0261979 2.80659e-16)
(2.17822 0.0259552 2.86993e-16)
(2.17286 0.0257152 3.16666e-16)
(2.16757 0.0254779 2.85936e-16)
(2.16236 0.0252434 3.16505e-16)
(2.15723 0.0250114 2.91561e-16)
(2.15217 0.024782 3.1358e-16)
(2.14718 0.0245551 3.00182e-16)
(2.14227 0.0243306 3.25495e-16)
(2.13742 0.0241085 3.3695e-16)
(2.13264 0.0238887 3.64195e-16)
(2.12794 0.0236712 3.06916e-16)
(2.12329 0.0234559 3.47149e-16)
(2.11872 0.0232427 3.23545e-16)
(2.11421 0.0230317 3.6244e-16)
(2.10976 0.0228228 3.10385e-16)
(2.10537 0.0226159 3.46103e-16)
(2.10105 0.0224111 3.62315e-16)
(2.09678 0.0222081 3.90136e-16)
(2.09258 0.0220071 3.56943e-16)
(2.08843 0.0218079 3.85919e-16)
(2.08434 0.0216106 3.58148e-16)
(2.08031 0.0214151 3.81727e-16)
(2.07633 0.0212213 3.68164e-16)
(2.07241 0.0210293 3.89221e-16)
(2.06854 0.0208389 4.10409e-16)
(2.06472 0.0206503 4.18493e-16)
(2.06095 0.0204632 4.4263e-16)
(2.05724 0.0202778 4.07719e-16)
(2.05357 0.020094 4.34374e-16)
(2.04996 0.0199117 4.08796e-16)
(2.04639 0.019731 4.31474e-16)
(2.04287 0.0195517 4.1561e-16)
(2.0394 0.019374 4.37906e-16)
(2.03597 0.0191977 4.49201e-16)
(2.03259 0.0190229 4.73166e-16)
(2.02926 0.0188494 4.19333e-16)
(2.23313 0.0396579 -9.1198e-17)
(2.22499 0.0391972 -8.96503e-17)
(2.217 0.0387435 -8.58188e-17)
(2.20916 0.0382967 -5.94695e-17)
(2.20145 0.0378567 -5.67674e-17)
(2.19387 0.0374233 -5.03536e-17)
(2.18643 0.0369966 -4.29583e-17)
(2.17912 0.0365763 -2.61556e-17)
(2.17194 0.0361625 -2.61311e-17)
(2.16489 0.035755 -1.48109e-17)
(2.15796 0.0353536 -1.12813e-17)
(2.15115 0.0349583 -8.82149e-18)
(2.14446 0.034569 1.71209e-17)
(2.13788 0.0341855 2.07165e-17)
(2.13143 0.0338078 2.37994e-17)
(2.12508 0.0334357 3.81948e-17)
(2.11884 0.0330692 5.4943e-17)
(2.11271 0.0327081 6.18994e-17)
(2.10669 0.0323522 5.4068e-17)
(2.10077 0.0320016 6.19032e-17)
(2.09495 0.0316561 8.04546e-17)
(2.08923 0.0313156 7.93079e-17)
(2.08361 0.03098 8.20612e-17)
(2.07809 0.0306492 9.73265e-17)
(2.07266 0.0303231 9.41378e-17)
(2.06732 0.0300016 1.05612e-16)
(2.06208 0.0296845 1.04503e-16)
(2.05692 0.0293719 1.09249e-16)
(2.05185 0.0290636 1.44214e-16)
(2.04686 0.0287595 1.45147e-16)
(2.04196 0.0284596 1.56558e-16)
(2.03714 0.0281637 1.61794e-16)
(2.0324 0.0278717 1.83223e-16)
(2.02773 0.0275836 1.82716e-16)
(2.02315 0.0272993 1.94111e-16)
(2.01864 0.0270187 1.90286e-16)
(2.01421 0.0267418 1.92824e-16)
(2.00985 0.0264683 2.24864e-16)
(2.00556 0.0261984 2.24986e-16)
(2.00134 0.0259318 2.26236e-16)
(1.99719 0.0256686 2.39053e-16)
(1.9931 0.0254086 2.56778e-16)
(1.98908 0.0251519 2.59451e-16)
(1.98513 0.0248982 2.50246e-16)
(1.98124 0.0246476 2.55362e-16)
(1.97741 0.0243999 2.75895e-16)
(1.97365 0.0241552 2.73108e-16)
(1.96994 0.0239134 2.70555e-16)
(1.96629 0.0236743 2.85346e-16)
(1.9627 0.023438 2.79458e-16)
(1.95917 0.0232044 2.89551e-16)
(1.95569 0.0229734 2.81755e-16)
(1.95227 0.0227451 2.81462e-16)
(1.9489 0.0225192 3.1424e-16)
(1.94558 0.0222959 3.08575e-16)
(1.94231 0.0220749 3.16999e-16)
(1.9391 0.0218564 3.26717e-16)
(1.93593 0.0216402 3.35475e-16)
(1.93281 0.0214263 3.33704e-16)
(1.92974 0.0212147 3.46369e-16)
(1.92672 0.0210053 3.39691e-16)
(1.92374 0.0207981 3.37954e-16)
(1.92081 0.0205931 3.67224e-16)
(1.91792 0.0203901 3.66043e-16)
(1.91507 0.0201893 3.661e-16)
(1.91227 0.0199904 3.76959e-16)
(1.9095 0.0197936 3.89719e-16)
(2.05514 0.0434913 -2.66638e-16)
(2.04787 0.0429311 -2.72932e-16)
(2.04075 0.0423799 -2.47306e-16)
(2.03376 0.0418378 -2.46208e-16)
(2.02692 0.0413044 -2.24058e-16)
(2.02021 0.0407798 -1.96841e-16)
(2.01363 0.0402638 -1.87391e-16)
(2.00718 0.0397563 -1.59249e-16)
(2.00087 0.0392571 -1.73965e-16)
(1.99467 0.038766 -1.44582e-16)
(1.9886 0.038283 -1.58229e-16)
(1.98266 0.0378079 -1.32247e-16)
(1.97682 0.0373406 -1.37477e-16)
(1.97111 0.0368809 -1.04129e-16)
(1.9655 0.0364286 -9.57034e-17)
(1.96001 0.0359837 -6.59692e-17)
(1.95462 0.0355461 -1.02958e-16)
(1.94934 0.0351154 -5.66144e-17)
)
;

boundaryField
{
    inlet
    {
        type            uniformFixedValue;
        uniformValue    constant (1 0 0);
        value           nonuniform 0();
    }
    outlet
    {
        type            pressureInletOutletVelocity;
        value           nonuniform 0();
    }
    wall
    {
        type            fixedValue;
        value           nonuniform 0();
    }
    wedge1
    {
        type            wedge;
    }
    wedge2
    {
        type            wedge;
    }
    axis
    {
        type            empty;
    }
    procBoundary10to4
    {
        type            processor;
        value           nonuniform List<vector> 
68
(
(2.74301 0.0155007 5.35068e-16)
(2.73579 0.0154204 5.62269e-16)
(2.72862 0.0153414 5.33971e-16)
(2.7215 0.0152636 5.20346e-16)
(2.71444 0.0151868 4.81085e-16)
(2.70743 0.0151111 5.17207e-16)
(2.70046 0.0150364 4.8858e-16)
(2.69355 0.0149625 4.86347e-16)
(2.68669 0.0148895 4.43595e-16)
(2.67987 0.0148172 4.91327e-16)
(2.67311 0.0147456 4.54216e-16)
(2.66639 0.0146746 4.49816e-16)
(2.65971 0.0146042 4.12231e-16)
(2.65309 0.0145343 4.67257e-16)
(2.64651 0.0144649 4.20209e-16)
(2.63998 0.0143959 4.7243e-16)
(2.6335 0.0143273 4.18936e-16)
(2.62706 0.014259 4.67539e-16)
(2.62066 0.014191 4.40327e-16)
(2.61431 0.0141232 4.20599e-16)
(2.608 0.0140557 4.10838e-16)
(2.60174 0.0139883 3.73018e-16)
(2.59553 0.013921 4.3692e-16)
(2.58935 0.0138538 3.9809e-16)
(2.58322 0.0137867 4.60177e-16)
(2.57713 0.0137196 4.09578e-16)
(2.57109 0.0136525 4.55457e-16)
(2.56509 0.0135854 4.256e-16)
(2.55913 0.0135183 4.21688e-16)
(2.55321 0.0134511 3.854e-16)
(2.54733 0.0133838 4.4396e-16)
(2.5415 0.0133164 4.22516e-16)
(2.53571 0.0132489 4.11959e-16)
(2.52995 0.0131812 3.76375e-16)
(2.52424 0.0131134 4.33536e-16)
(2.51857 0.0130454 4.13231e-16)
(2.51294 0.0129772 4.02758e-16)
(2.50736 0.0129089 3.68471e-16)
(2.50181 0.0128403 4.35586e-16)
(2.4963 0.0127716 3.90127e-16)
(2.49083 0.0127026 4.52711e-16)
(2.4854 0.0126334 4.02037e-16)
(2.48001 0.0125639 4.4721e-16)
(2.47466 0.0124942 4.25632e-16)
(2.46935 0.0124243 4.03006e-16)
(2.46408 0.0123542 4.0031e-16)
(2.45885 0.0122838 3.69848e-16)
(2.45365 0.0122132 4.32431e-16)
(2.4485 0.0121423 3.99877e-16)
(2.44338 0.0120713 4.5381e-16)
(2.43831 0.0119999 4.09509e-16)
(2.43327 0.0119284 4.59154e-16)
(2.42827 0.0118566 4.40499e-16)
(2.4233 0.0117846 4.33486e-16)
(2.41838 0.0117124 4.00432e-16)
(2.41349 0.01164 4.5724e-16)
(2.40864 0.0115674 4.3664e-16)
(2.40383 0.0114946 4.26321e-16)
(2.73731 0.0207066 6.11112e-16)
(2.72914 0.0205672 5.90425e-16)
(2.72104 0.0204301 5.80918e-16)
(2.71302 0.0202953 5.64025e-16)
(2.70506 0.0201626 5.57304e-16)
(2.69719 0.020032 5.38565e-16)
(2.68938 0.0199034 5.33778e-16)
(2.68165 0.0197768 5.2359e-16)
(2.67399 0.019652 5.14715e-16)
(2.67399 0.019652 5.14715e-16)
)
;
    }
    procBoundary10to5
    {
        type            processor;
        value           uniform (2.3243 0.0136387 4.49487e-16);
    }
    procBoundary10to9
    {
        type            processor;
        value           nonuniform List<vector> 3((2.65266 0.0256251 5.07475e-16) (2.5379 0.0305893 3.18833e-16) (2.40059 0.0355213 1.15523e-16));
    }
    procBoundary10to11
    {
        type            processor;
        value           nonuniform List<vector> 4((2.23634 0.0156328 5.08542e-16) (2.13639 0.0173351 4.8585e-16) (2.02596 0.0186774 4.55445e-16) (1.90678 0.0195988 3.88389e-16));
    }
    procBoundary10to15
    {
        type            processor;
        value           nonuniform List<vector> 2((2.24141 0.0401256 -1.01029e-16) (2.06256 0.0440608 -2.92805e-16));
    }
    procBoundary10to16
    {
        type            processor;
        value           nonuniform List<vector> 
68
(
(1.94417 0.0346917 -7.21557e-17)
(1.93909 0.0342748 -3.31075e-17)
(1.93412 0.0338646 -7.18762e-17)
(1.92924 0.0334608 -3.08985e-17)
(1.92445 0.0330635 -1.44195e-17)
(1.91976 0.0326724 1.94504e-17)
(1.91516 0.0322874 -4.50719e-18)
(1.91065 0.0319085 2.89952e-17)
(1.90622 0.0315354 5.76739e-18)
(1.90188 0.0311681 3.50574e-17)
(1.89763 0.0308065 2.81182e-17)
(1.89345 0.0304504 5.43426e-17)
(1.88935 0.0300996 8.47788e-17)
(1.88534 0.0297542 9.35867e-17)
(1.88139 0.029414 1.23956e-16)
(1.87753 0.0290788 9.68783e-17)
(1.87373 0.0287486 1.27566e-16)
(1.87001 0.0284232 1.0532e-16)
(1.86636 0.0281026 1.31964e-16)
(1.86277 0.0277867 1.20071e-16)
(1.85926 0.0274753 1.52427e-16)
(1.8558 0.0271684 1.58561e-16)
(1.85242 0.0268658 1.89537e-16)
(1.84909 0.0265675 1.36773e-16)
(1.84583 0.0262734 1.85502e-16)
(1.84262 0.0259833 1.6503e-16)
(1.83948 0.0256973 2.02763e-16)
(1.83639 0.0254151 1.59598e-16)
(1.83336 0.0251368 1.99436e-16)
(1.83038 0.0248623 2.08962e-16)
(1.82745 0.0245914 2.40486e-16)
(1.82458 0.0243241 2.09805e-16)
(1.82176 0.0240603 2.40439e-16)
(1.819 0.0238 2.13641e-16)
(1.81628 0.0235431 2.42702e-16)
(1.8136 0.0232894 2.28406e-16)
(1.81098 0.0230391 2.51758e-16)
(1.8084 0.0227919 2.76999e-16)
(1.80587 0.0225478 2.82025e-16)
(1.80338 0.0223067 3.0636e-16)
(1.80094 0.0220687 2.73126e-16)
(1.79853 0.0218336 3.04929e-16)
(1.79617 0.0216013 2.78015e-16)
(1.79385 0.0213719 2.98609e-16)
(1.79157 0.0211453 2.81653e-16)
(1.78933 0.0209214 3.10716e-16)
(1.78713 0.0207002 3.16572e-16)
(1.78496 0.0204816 3.42393e-16)
(1.78283 0.0202656 2.93456e-16)
(1.86171 0.0463205 -4.32859e-16)
(1.85567 0.045669 -4.44764e-16)
(1.84978 0.0450288 -4.12737e-16)
(1.84401 0.0443997 -4.01141e-16)
(1.83838 0.0437814 -3.74073e-16)
(1.83287 0.043174 -3.37577e-16)
(1.82748 0.0425772 -3.57165e-16)
(1.82222 0.0419908 -3.095e-16)
(1.81707 0.0414146 -3.34983e-16)
(1.81204 0.0408486 -2.88892e-16)
(1.80712 0.0402924 -3.10705e-16)
(1.80231 0.039746 -2.71462e-16)
(1.79761 0.0392092 -2.72033e-16)
(1.79302 0.0386817 -2.25022e-16)
(1.78853 0.0381634 -2.5283e-16)
(1.78414 0.0376542 -2.05123e-16)
(1.77985 0.0371539 -2.09709e-16)
(1.94417 0.0346917 -7.21557e-17)
(1.77565 0.0366622 -1.65025e-16)
)
;
    }
}


// ************************************************************************* //
