/*--------------------------------*- C++ -*----------------------------------*\
  =========                 |
  \\      /  F ield         | OpenFOAM: The Open Source CFD Toolbox
   \\    /   O peration     | Website:  https://openfoam.org
    \\  /    A nd           | Version:  7
     \\/     M anipulation  |
\*---------------------------------------------------------------------------*/
FoamFile
{
    version     2.0;
    format      ascii;
    class       volScalarField;
    location    "94.000718";
    object      p;
}
// * * * * * * * * * * * * * * * * * * * * * * * * * * * * * * * * * * * * * //

dimensions      [0 2 -2 0 0 0 0];

internalField   nonuniform List<scalar> 
5800
(
-0.240271
-0.240709
-0.241061
-0.24129
-0.241355
-0.241211
-0.240813
-0.240145
-0.239177
-0.231996
-0.233774
-0.234843
-0.235669
-0.236378
-0.23699
-0.237541
-0.238053
-0.238535
-0.238978
-0.239366
-0.239674
-0.239866
-0.239905
-0.239748
-0.23935
-0.23867
-0.237703
-0.236441
-0.23177
-0.233517
-0.234563
-0.235367
-0.236048
-0.236626
-0.237132
-0.237588
-0.237998
-0.238353
-0.238632
-0.238808
-0.238842
-0.238694
-0.238319
-0.237674
-0.236713
-0.235441
-0.233909
-0.231815
-0.233504
-0.234512
-0.235279
-0.235922
-0.236456
-0.23691
-0.237302
-0.237636
-0.237899
-0.238067
-0.238111
-0.237989
-0.237658
-0.237072
-0.236188
-0.234955
-0.233364
-0.231634
-0.23212
-0.233726
-0.234681
-0.235401
-0.235995
-0.236475
-0.236868
-0.23719
-0.237441
-0.237607
-0.237663
-0.237574
-0.2373
-0.236792
-0.236002
-0.234891
-0.233401
-0.231458
-0.229678
-0.232668
-0.234171
-0.23506
-0.235722
-0.236255
-0.236671
-0.236994
-0.237238
-0.2374
-0.237465
-0.237405
-0.237185
-0.236759
-0.23608
-0.235095
-0.233769
-0.232058
-0.229683
-0.228115
-0.222588
-0.23344
-0.234824
-0.235636
-0.236228
-0.23669
-0.237032
-0.237274
-0.237431
-0.237496
-0.237454
-0.237275
-0.236921
-0.236347
-0.235503
-0.234331
-0.2328
-0.230932
-0.227974
-0.227
-0.219418
-0.234413
-0.235668
-0.236393
-0.236905
-0.237285
-0.237541
-0.237692
-0.23775
-0.23771
-0.237553
-0.23725
-0.23676
-0.236039
-0.235035
-0.233686
-0.231945
-0.230028
-0.226293
-0.22623
-0.216577
-0.235566
-0.236685
-0.237315
-0.237738
-0.238024
-0.238181
-0.238229
-0.238176
-0.238019
-0.237739
-0.237305
-0.236678
-0.235808
-0.234651
-0.233135
-0.231164
-0.229289
-0.22488
-0.225368
-0.214088
-0.23688
-0.237861
-0.238389
-0.238713
-0.238893
-0.238938
-0.238867
-0.238691
-0.238405
-0.237991
-0.237419
-0.236648
-0.235631
-0.23432
-0.232653
-0.230492
-0.228545
-0.223621
-0.224828
-0.211619
-0.238337
-0.239181
-0.239603
-0.239817
-0.239878
-0.239796
-0.239592
-0.239277
-0.238848
-0.238288
-0.237569
-0.23665
-0.235482
-0.23402
-0.232204
-0.229861
-0.227925
-0.222311
-0.224605
-0.209242
-0.239928
-0.240639
-0.240948
-0.241042
-0.24097
-0.240746
-0.240391
-0.23992
-0.239333
-0.238615
-0.237738
-0.236664
-0.235342
-0.23373
-0.231776
-0.229228
-0.227401
-0.220958
-0.22452
-0.207117
-0.241648
-0.242229
-0.24242
-0.242383
-0.242163
-0.241778
-0.241255
-0.240611
-0.239849
-0.238959
-0.237915
-0.236678
-0.235199
-0.233434
-0.23135
-0.228584
-0.226888
-0.21964
-0.224288
-0.20549
-0.243501
-0.243955
-0.244022
-0.24384
-0.243455
-0.242892
-0.24218
-0.241344
-0.240392
-0.239316
-0.238093
-0.236685
-0.235045
-0.233122
-0.230909
-0.22793
-0.226279
-0.218475
-0.223537
-0.20456
-0.245499
-0.245826
-0.245759
-0.245419
-0.244851
-0.244089
-0.24317
-0.242123
-0.240964
-0.239687
-0.238273
-0.236687
-0.234878
-0.23279
-0.230431
-0.227268
-0.225458
-0.217556
-0.221958
-0.204247
-0.247661
-0.247859
-0.247647
-0.247131
-0.24636
-0.245379
-0.244231
-0.242956
-0.241572
-0.240081
-0.238465
-0.236689
-0.234702
-0.232435
-0.229896
-0.226577
-0.224342
-0.216843
-0.219496
-0.204104
-0.250016
-0.250077
-0.249704
-0.248991
-0.247998
-0.246775
-0.245379
-0.243856
-0.242232
-0.240513
-0.238683
-0.236704
-0.23452
-0.232053
-0.229279
-0.225802
-0.222907
-0.216106
-0.216378
-0.203554
-0.2526
-0.252508
-0.251954
-0.251025
-0.249785
-0.248299
-0.246634
-0.244845
-0.242965
-0.241004
-0.238945
-0.236745
-0.234337
-0.231631
-0.228556
-0.224852
-0.221165
-0.215013
-0.212858
-0.202241
-0.255455
-0.255186
-0.254429
-0.253259
-0.251748
-0.249976
-0.248022
-0.24595
-0.243799
-0.24158
-0.239273
-0.236825
-0.234151
-0.231145
-0.227687
-0.223629
-0.219121
-0.213294
-0.208958
-0.200158
-0.258629
-0.258148
-0.257164
-0.255724
-0.253915
-0.251835
-0.249573
-0.247201
-0.244764
-0.24227
-0.23969
-0.236953
-0.233953
-0.230559
-0.226621
-0.222058
-0.216758
-0.210828
-0.204609
-0.197495
-0.262173
-0.261439
-0.260194
-0.258456
-0.256323
-0.253911
-0.251323
-0.248635
-0.245894
-0.243101
-0.24021
-0.237128
-0.233718
-0.22983
-0.225299
-0.220091
-0.214045
-0.207643
-0.20017
-0.194095
-0.266136
-0.265102
-0.263561
-0.261492
-0.259009
-0.256244
-0.25331
-0.250289
-0.247222
-0.244096
-0.240843
-0.237336
-0.233412
-0.228908
-0.223669
-0.217715
-0.210937
-0.203847
-0.195971
-0.189131
-0.27057
-0.269183
-0.267304
-0.264874
-0.262012
-0.258872
-0.255574
-0.2522
-0.248778
-0.245273
-0.241584
-0.237552
-0.23299
-0.227744
-0.221697
-0.214937
-0.207418
-0.199709
-0.191357
-0.183916
-0.275525
-0.273723
-0.271467
-0.268642
-0.265376
-0.261839
-0.258157
-0.254403
-0.250586
-0.246636
-0.242414
-0.237733
-0.232401
-0.226296
-0.219369
-0.211774
-0.203556
-0.195253
-0.18651
-0.178677
-0.281046
-0.278765
-0.27609
-0.272839
-0.269143
-0.265188
-0.261098
-0.25693
-0.252658
-0.248174
-0.243299
-0.237829
-0.231595
-0.224534
-0.216684
-0.208266
-0.199391
-0.190566
-0.181476
-0.173319
-0.287175
-0.284348
-0.281213
-0.277506
-0.273355
-0.268959
-0.264432
-0.259798
-0.254992
-0.249857
-0.244185
-0.23778
-0.230525
-0.222438
-0.213657
-0.20445
-0.194976
-0.185685
-0.176279
-0.167881
-0.293944
-0.290503
-0.286871
-0.282681
-0.278052
-0.273189
-0.268182
-0.263014
-0.257564
-0.251635
-0.245008
-0.237524
-0.229149
-0.220003
-0.210308
-0.200361
-0.190341
-0.180629
-0.170946
-0.162321
-0.301377
-0.297258
-0.293094
-0.288396
-0.283266
-0.277903
-0.272358
-0.266558
-0.260328
-0.253439
-0.245691
-0.236998
-0.227437
-0.217228
-0.206656
-0.196021
-0.185503
-0.175406
-0.165471
-0.156635
-0.309486
-0.304628
-0.299902
-0.294677
-0.289021
-0.283112
-0.276948
-0.270389
-0.263211
-0.255179
-0.24615
-0.236147
-0.225366
-0.214114
-0.202713
-0.191441
-0.180466
-0.170011
-0.159847
-0.150808
-0.318266
-0.312616
-0.307306
-0.301535
-0.29532
-0.288803
-0.281911
-0.274435
-0.266116
-0.256754
-0.246303
-0.23492
-0.222917
-0.210662
-0.198481
-0.186621
-0.17522
-0.164432
-0.15406
-0.144827
-0.327693
-0.321207
-0.315296
-0.308963
-0.302148
-0.294937
-0.287175
-0.278591
-0.268926
-0.258054
-0.246069
-0.233273
-0.220072
-0.206863
-0.193954
-0.181546
-0.169749
-0.158651
-0.148092
-0.138677
-0.337718
-0.330366
-0.323845
-0.316928
-0.309457
-0.301439
-0.292634
-0.282728
-0.271505
-0.258968
-0.245376
-0.231166
-0.21681
-0.202702
-0.189114
-0.176198
-0.164032
-0.152647
-0.141926
-0.132341
-0.348267
-0.340032
-0.332897
-0.325372
-0.317168
-0.308199
-0.298145
-0.28669
-0.273712
-0.259389
-0.244156
-0.228562
-0.213106
-0.198157
-0.183936
-0.170551
-0.158044
-0.1464
-0.13554
-0.125804
-0.359233
-0.350114
-0.342365
-0.334198
-0.325161
-0.315066
-0.303538
-0.290304
-0.275402
-0.259215
-0.242346
-0.225418
-0.208927
-0.193196
-0.178391
-0.164574
-0.151756
-0.139886
-0.128916
-0.119049
-0.370476
-0.360491
-0.352131
-0.343273
-0.333276
-0.321854
-0.308613
-0.293389
-0.276434
-0.258352
-0.239884
-0.221691
-0.204237
-0.187784
-0.172444
-0.158237
-0.145143
-0.133082
-0.122032
-0.11206
-0.381821
-0.371005
-0.362037
-0.352423
-0.341316
-0.328346
-0.313156
-0.295763
-0.276676
-0.25671
-0.23671
-0.217335
-0.198992
-0.181881
-0.166059
-0.151507
-0.138176
-0.125966
-0.114869
-0.104822
-0.393059
-0.381464
-0.371887
-0.361435
-0.349045
-0.334297
-0.316943
-0.297249
-0.276001
-0.254206
-0.232763
-0.212298
-0.193148
-0.175446
-0.159198
-0.144353
-0.13083
-0.118516
-0.107407
-0.0973194
-0.403945
-0.391641
-0.38145
-0.37006
-0.3562
-0.33945
-0.319752
-0.297678
-0.274295
-0.250758
-0.227982
-0.206528
-0.186658
-0.168438
-0.151827
-0.136743
-0.12308
-0.110712
-0.0996297
-0.0895403
-0.414205
-0.401275
-0.390458
-0.378017
-0.362493
-0.343539
-0.321366
-0.296893
-0.271449
-0.24629
-0.222304
-0.199972
-0.179474
-0.160814
-0.14391
-0.128649
-0.114903
-0.102536
-0.0915209
-0.0814769
-0.423541
-0.410079
-0.398618
-0.385001
-0.367628
-0.346303
-0.321583
-0.294753
-0.267366
-0.24073
-0.21567
-0.192578
-0.171552
-0.152537
-0.135415
-0.120046
-0.106279
-0.0939709
-0.0830712
-0.0731307
-0.431633
-0.417744
-0.405613
-0.390693
-0.371305
-0.347492
-0.320219
-0.291129
-0.261956
-0.234006
-0.208022
-0.184295
-0.162847
-0.143571
-0.126314
-0.11091
-0.09719
-0.085003
-0.074274
-0.0645084
-0.438154
-0.423946
-0.411116
-0.394773
-0.373236
-0.346876
-0.317107
-0.285909
-0.255137
-0.226058
-0.199307
-0.17508
-0.153324
-0.133886
-0.116581
-0.101222
-0.0876202
-0.0756171
-0.0651191
-0.055605
-0.44277
-0.428357
-0.414796
-0.396924
-0.373148
-0.344248
-0.312106
-0.278997
-0.24684
-0.216826
-0.189478
-0.16489
-0.142948
-0.123455
-0.106198
-0.0909685
-0.0775573
-0.0658025
-0.0555913
-0.0463846
-0.445157
-0.43065
-0.416332
-0.39685
-0.370796
-0.339431
-0.305097
-0.270311
-0.237005
-0.206264
-0.178493
-0.153695
-0.131694
-0.112259
-0.09515
-0.0801368
-0.0669929
-0.0555567
-0.0456894
-0.0367694
-0.445005
-0.430515
-0.41542
-0.394279
-0.365969
-0.332277
-0.295984
-0.259787
-0.225584
-0.194334
-0.166322
-0.141468
-0.119544
-0.100283
-0.0834256
-0.0687194
-0.0559226
-0.0448832
-0.0354427
-0.0267091
-0.44203
-0.427664
-0.411784
-0.388976
-0.35849
-0.322672
-0.284697
-0.24738
-0.212542
-0.181007
-0.152943
-0.128194
-0.106483
-0.0875193
-0.0710204
-0.0567153
-0.0443558
-0.0337904
-0.0248542
-0.0163357
-0.43598
-0.421841
-0.405187
-0.380745
-0.348226
-0.310535
-0.27119
-0.233063
-0.197862
-0.166269
-0.138343
-0.113861
-0.0925071
-0.0739681
-0.0579445
-0.0441364
-0.03232
-0.0223235
-0.0138104
-0.00579023
-0.426643
-0.41283
-0.395432
-0.369436
-0.335082
-0.29582
-0.255443
-0.216825
-0.181536
-0.150113
-0.122517
-0.0984694
-0.0776301
-0.0596479
-0.044226
-0.0310158
-0.0198106
-0.0104455
-0.00240584
0.00498289
-0.413853
-0.40046
-0.382373
-0.354947
-0.319008
-0.278512
-0.237461
-0.198676
-0.163571
-0.132545
-0.105484
-0.0820434
-0.0618929
-0.044591
-0.0298566
-0.0173513
-0.00684982
0.00183068
0.0093124
0.0160052
-0.397497
-0.384611
-0.365915
-0.337228
-0.299995
-0.258631
-0.217273
-0.178643
-0.143989
-0.113595
-0.0873014
-0.0646434
-0.045281
-0.0288008
-0.0148716
-0.00316835
0.0065418
0.014476
0.0213198
0.0272676
-0.377512
-0.365217
-0.346017
-0.316274
-0.278076
-0.236229
-0.194932
-0.156772
-0.122845
-0.0933601
-0.0679692
-0.0462663
-0.0278478
-0.0123127
0.000695875
0.0115007
0.0203364
0.0274584
0.033595
0.0387451
-0.353893
-0.342267
-0.322693
-0.292133
-0.253328
-0.21139
-0.170514
-0.133144
-0.100239
-0.0718302
-0.0475519
-0.026965
-0.00963919
0.00482822
0.0168062
0.0266182
0.0344996
0.0407436
0.0461085
0.0504042
-0.32669
-0.315804
-0.29601
-0.264907
-0.225871
-0.184215
-0.144116
-0.107857
-0.0762088
-0.0490967
-0.026116
-0.0068024
0.00928986
0.0225701
0.0334129
0.042141
0.0489917
0.0542939
0.0588239
0.0622045
-0.296007
-0.285926
-0.266095
-0.234752
-0.195837
-0.154808
-0.115867
-0.0810091
-0.0508574
-0.0252482
-0.00374066
0.0141486
0.0288753
0.0408544
0.050463
0.0580207
0.0637685
0.0680699
0.0717032
0.0741045
-0.262003
-0.252784
-0.233128
-0.20184
-0.163314
-0.123372
-0.0859161
-0.0527294
-0.0242997
-0.000386113
0.0194837
0.0358064
0.049044
0.0596153
0.0678967
0.0742026
0.0787817
0.0820321
0.0847124
0.0860695
-0.224864
-0.216592
-0.197322
-0.16625
-0.128561
-0.0901183
-0.0544297
-0.0231641
0.00333482
0.0253755
0.0434552
0.0580798
0.0697149
0.0787803
0.0856479
0.0906263
0.09398
0.0961417
0.0978152
0.0980562
-0.184777
-0.177639
-0.158817
-0.128211
-0.0919277
-0.0552372
-0.0215924
0.00752461
0.0319037
0.0519105
0.068062
0.0808694
0.0907995
0.0982703
0.103645
0.107229
0.109313
0.110356
0.110937
0.109923
-0.141982
-0.136241
-0.117739
-0.0882867
-0.0536004
-0.018954
0.012396
0.0391614
0.0612523
0.0790822
0.0931825
0.104067
0.112202
0.118001
0.121814
0.12395
0.12474
0.124622
0.123914
0.121329
-0.0968257
-0.0925813
-0.0747711
-0.0466435
-0.0138427
0.0184888
0.0473225
0.071559
0.0912149
0.106744
0.118687
0.127559
0.133822
0.137881
0.140078
0.140732
0.140218
0.138863
0.136537
0.132004
-0.049991
-0.0468926
-0.0301573
-0.00358378
0.0270588
0.0568356
0.0829624
0.104519
0.121616
0.13474
0.144438
0.151223
0.155551
0.157817
0.158356
0.157512
0.155681
0.152967
0.148764
0.142584
-0.00161155
0.000298215
0.0157731
0.0405563
0.0688007
0.0958192
0.119081
0.137834
0.152273
0.162909
0.170293
0.174932
0.177277
0.17771
0.176566
0.17421
0.171012
0.166796
0.160711
0.155076
0.0479244
0.0485699
0.0626462
0.0854268
0.111068
0.135163
0.155433
0.17129
0.182996
0.191083
0.196103
0.198556
0.198885
0.197462
0.194621
0.190735
0.186098
0.180353
0.172924
0.167513
0.0981833
0.0975156
0.110069
0.130667
0.15354
0.174582
0.191772
0.204667
0.213591
0.219091
0.221716
0.221961
0.220257
0.216968
0.212429
0.207
0.2009
0.193717
0.185226
0.179438
0.148729
0.146719
0.157642
0.175913
0.19589
0.213791
0.227844
0.237741
0.24386
0.246758
0.246979
0.245011
0.241274
0.236125
0.229893
0.222921
0.215364
0.20684
0.197401
0.190927
0.199123
0.195756
0.204962
0.220795
0.237791
0.252502
0.263395
0.270288
0.273605
0.273908
0.271737
0.26757
0.261816
0.254826
0.24692
0.238417
0.229435
0.219643
0.209272
0.201947
0.248926
0.244201
0.251627
0.26495
0.278921
0.290428
0.298173
0.302086
0.302629
0.300367
0.295835
0.289501
0.281764
0.272964
0.263415
0.25341
0.243045
0.232044
0.220751
0.212492
0.297704
0.291635
0.297242
0.30802
0.318958
0.327289
0.331929
0.332914
0.330736
0.325963
0.319122
0.31067
0.300998
0.290436
0.279286
0.267821
0.256122
0.243963
0.23176
0.222526
0.345029
0.337643
0.34142
0.349653
0.357594
0.362808
0.364419
0.362557
0.357736
0.350527
0.341448
0.330947
0.319403
0.307139
0.294443
0.281571
0.268595
0.255331
0.242239
0.232012
0.390489
0.381824
0.383788
0.389513
0.394527
0.396721
0.39541
0.390805
0.383445
0.373896
0.362669
0.350203
0.336867
0.322973
0.3088
0.294585
0.280393
0.266084
0.252132
0.240912
0.433685
0.423794
0.423987
0.427275
0.429471
0.428772
0.424674
0.41746
0.407684
0.395911
0.382646
0.368316
0.353282
0.337845
0.322273
0.306787
0.291451
0.27616
0.261388
0.249188
0.474239
0.463188
0.461677
0.462635
0.462153
0.458722
0.451999
0.44233
0.430285
0.416426
0.401248
0.38517
0.368545
0.351664
0.334783
0.318109
0.301706
0.285505
0.269957
0.256807
0.511797
0.499663
0.496542
0.495306
0.49232
0.486344
0.477184
0.465239
0.451092
0.4353
0.418351
0.400657
0.38256
0.364345
0.346256
0.328486
0.311101
0.294066
0.277795
0.263738
0.546032
0.532903
0.528287
0.525024
0.519736
0.51143
0.500043
0.486022
0.469957
0.452404
0.433842
0.414676
0.39524
0.375811
0.356622
0.337856
0.319583
0.301794
0.284861
0.26995
0.576643
0.562619
0.556646
0.55155
0.544188
0.533791
0.520409
0.504529
0.486749
0.46762
0.447616
0.427135
0.406503
0.38599
0.36582
0.346165
0.327101
0.308645
0.291117
0.275421
0.603365
0.588555
0.581381
0.574668
0.565486
0.553257
0.53813
0.520626
0.501348
0.480843
0.459581
0.437951
0.416276
0.394818
0.373793
0.353364
0.333614
0.31458
0.296528
0.280128
0.625964
0.610484
0.602285
0.594194
0.583463
0.569681
0.553076
0.534197
0.513651
0.491982
0.469655
0.447055
0.424498
0.402241
0.380492
0.35941
0.339081
0.319564
0.301067
0.284055
0.644242
0.628219
0.619182
0.609968
0.59798
0.582938
0.565136
0.545143
0.52357
0.500959
0.47777
0.454384
0.431114
0.408211
0.385878
0.364267
0.343472
0.323565
0.304707
0.28719
0.658041
0.641604
0.63193
0.621863
0.608922
0.592926
0.574218
0.553383
0.531034
0.507711
0.48387
0.459891
0.436081
0.41269
0.389916
0.367905
0.34676
0.32656
0.307428
0.289522
0.667237
0.650523
0.640421
0.629783
0.616203
0.59957
0.580256
0.558858
0.535989
0.512189
0.487913
0.463537
0.439367
0.41565
0.39258
0.370304
0.348924
0.32853
0.309215
0.291046
0.465297
0.440949
0.417071
0.393855
0.371447
0.349952
0.329462
0.310056
0.291757
-0.218842
-0.217806
-0.216734
-0.215498
-0.216735
-0.21408
-0.215825
-0.214544
-0.212498
-0.214434
-0.21347
-0.21065
-0.212447
-0.211855
-0.211397
-0.208334
-0.209805
-0.209623
-0.209489
-0.205456
-0.20657
-0.206762
-0.206924
-0.20733
-0.202319
-0.203046
-0.203408
-0.203722
-0.204253
-0.204976
-0.199127
-0.199591
-0.199746
-0.199931
-0.200468
-0.201242
-0.19401
-0.195873
-0.196355
-0.196765
-0.19746
-0.198336
-0.199324
-0.189917
-0.19221
-0.192797
-0.193267
-0.194089
-0.195114
-0.196237
-0.185812
-0.188424
-0.189005
-0.189496
-0.190437
-0.191617
-0.192875
-0.181592
-0.184439
-0.185044
-0.18558
-0.186633
-0.187947
-0.189321
-0.177165
-0.180253
-0.180951
-0.181551
-0.182701
-0.184126
-0.185599
-0.172573
-0.175913
-0.176746
-0.177423
-0.178655
-0.180175
-0.181734
-0.167902
-0.171459
-0.172445
-0.173208
-0.174515
-0.176117
-0.177753
-0.163191
-0.166919
-0.168064
-0.168921
-0.170298
-0.171972
-0.173675
-0.15846
-0.162323
-0.163621
-0.164576
-0.166019
-0.167756
-0.169517
-0.15373
-0.157697
-0.159136
-0.160186
-0.16169
-0.163482
-0.165295
-0.149015
-0.153057
-0.154624
-0.155764
-0.157324
-0.159163
-0.16102
-0.144322
-0.148417
-0.150097
-0.151321
-0.152931
-0.154811
-0.156705
-0.13966
-0.143789
-0.145569
-0.146868
-0.148523
-0.150437
-0.152362
-0.135037
-0.139183
-0.14105
-0.142418
-0.144111
-0.146051
-0.148
-0.130463
-0.134608
-0.136551
-0.13798
-0.139705
-0.141666
-0.143633
-0.125946
-0.130075
-0.132082
-0.133565
-0.135315
-0.13729
-0.139269
-0.121495
-0.125593
-0.127653
-0.129183
-0.130951
-0.132934
-0.134919
-0.117118
-0.121171
-0.123273
-0.124841
-0.126623
-0.128606
-0.130592
-0.11282
-0.116817
-0.118949
-0.120548
-0.122337
-0.124316
-0.126297
-0.108606
-0.112536
-0.114688
-0.11631
-0.1181
-0.12007
-0.122041
-0.10448
-0.108335
-0.110497
-0.112135
-0.113921
-0.115876
-0.117832
-0.100444
-0.104217
-0.10638
-0.108027
-0.109804
-0.111741
-0.113678
-0.0965021
-0.100187
-0.102343
-0.103992
-0.105755
-0.107669
-0.109583
-0.0926553
-0.0962462
-0.0983878
-0.100035
-0.10178
-0.103666
-0.105554
-0.0889059
-0.092399
-0.0945196
-0.0961587
-0.0978821
-0.0997383
-0.101596
-0.0852556
-0.0886472
-0.0907412
-0.0923677
-0.0940661
-0.0958891
-0.0977142
-0.0817057
-0.0849929
-0.0870551
-0.0886649
-0.0903354
-0.0921226
-0.0939125
-0.0782571
-0.0814377
-0.0834637
-0.0850531
-0.0866932
-0.0884424
-0.0901949
-0.0749104
-0.0779828
-0.0799688
-0.0815346
-0.083142
-0.0848514
-0.0865647
-0.0716658
-0.0746292
-0.0765717
-0.0781111
-0.079684
-0.0813521
-0.0830246
-0.0685232
-0.0713772
-0.0732736
-0.0747841
-0.076321
-0.0779467
-0.0795772
-0.0654823
-0.0682272
-0.0700751
-0.0715547
-0.0730544
-0.0746367
-0.0762242
-0.0625425
-0.0651789
-0.0669766
-0.0684235
-0.0698851
-0.0714234
-0.0729673
-0.0597029
-0.0622321
-0.0639781
-0.065391
-0.0668137
-0.0683077
-0.0698076
-0.0569625
-0.059386
-0.0610794
-0.0624572
-0.0638407
-0.0652902
-0.0667458
-0.0543203
-0.0566398
-0.0582801
-0.059622
-0.0609659
-0.0623711
-0.0637825
-0.0517748
-0.0539926
-0.0555794
-0.0568848
-0.0581893
-0.0595503
-0.0609178
-0.0493247
-0.0514432
-0.0529765
-0.0542452
-0.0555104
-0.0568277
-0.0581515
-0.0469686
-0.0489903
-0.0504704
-0.0517022
-0.0529285
-0.0542027
-0.0554834
-0.0447047
-0.0466325
-0.0480599
-0.0492549
-0.0504427
-0.0516746
-0.0529129
-0.0425316
-0.0443683
-0.0457438
-0.0469022
-0.0480521
-0.0492424
-0.0504391
-0.0404474
-0.0421961
-0.0435205
-0.0446428
-0.0457556
-0.0469053
-0.0480612
-0.0384505
-0.0401143
-0.0413887
-0.0424754
-0.0435518
-0.044662
-0.0457782
-0.0365392
-0.0381213
-0.0393468
-0.0403986
-0.0414395
-0.0425112
-0.0435887
-0.0347117
-0.0362152
-0.0373932
-0.0384108
-0.0394173
-0.0404516
-0.0414916
-0.0329662
-0.0343945
-0.0355264
-0.0365106
-0.0374836
-0.0384818
-0.0394854
-0.0313011
-0.0326574
-0.0337446
-0.0346964
-0.035637
-0.0366004
-0.0375688
-0.0297147
-0.0310023
-0.0320464
-0.0329667
-0.033876
-0.0348057
-0.0357402
-0.0282052
-0.0294273
-0.0304299
-0.0313198
-0.032199
-0.0330964
-0.0339983
-0.0267712
-0.027931
-0.0288937
-0.0297542
-0.0306044
-0.031471
-0.0323415
-0.025411
-0.0265117
-0.0274362
-0.0282685
-0.0290909
-0.0299278
-0.0307684
-0.0241231
-0.0251678
-0.0260559
-0.026861
-0.0276569
-0.0284656
-0.0292775
-0.0229062
-0.023898
-0.0247513
-0.0255306
-0.0263011
-0.0270829
-0.0278676
-0.0217588
-0.0227009
-0.0235211
-0.0242757
-0.0250221
-0.0257783
-0.0265371
-0.0206799
-0.0215751
-0.0223641
-0.0230951
-0.0238187
-0.0245508
-0.025285
-0.0196681
-0.0205195
-0.021279
-0.0219878
-0.0226898
-0.023399
-0.0241101
-0.0187226
-0.0195331
-0.0202648
-0.0209526
-0.0216343
-0.0223221
-0.0230114
-0.0178425
-0.018615
-0.0193206
-0.0199888
-0.0206514
-0.0213191
-0.021988
-0.017027
-0.0177643
-0.0184458
-0.0190955
-0.0197404
-0.0203894
-0.0210393
-0.0162757
-0.0169806
-0.0176396
-0.0182723
-0.0189007
-0.0195324
-0.0201648
-0.0155881
-0.0162634
-0.0169019
-0.0175188
-0.018132
-0.0187479
-0.019364
-0.0149642
-0.0156127
-0.0162324
-0.0168349
-0.0174343
-0.0180357
-0.0186371
-0.0144041
-0.0150285
-0.0156313
-0.0162208
-0.0168078
-0.0173961
-0.0179843
-0.0139082
-0.0145114
-0.0150991
-0.015677
-0.0162529
-0.0168297
-0.017406
-0.0134772
-0.0140619
-0.0146365
-0.0152043
-0.0157706
-0.0163372
-0.0169033
-0.0131122
-0.0136813
-0.0142448
-0.014804
-0.0153621
-0.0159202
-0.0164776
-0.0128146
-0.0133709
-0.0139254
-0.0144777
-0.0150291
-0.0155803
-0.0161306
-0.0125864
-0.013133
-0.0136805
-0.0142274
-0.0147738
-0.0153196
-0.0158645
-0.0124315
-0.0129715
-0.0135143
-0.0140575
-0.0146004
-0.0151426
-0.0156837
-0.0123469
-0.0128844
-0.0134256
-0.0139676
-0.0145092
-0.0150499
-0.0155894
-0.0672972
-0.0754122
-0.0832972
-0.090952
-0.0983825
-0.105598
-0.112608
-0.119425
-0.12606
-0.132525
-0.138831
-0.144987
-0.151002
-0.156876
-0.16261
-0.168198
-0.173596
-0.178951
-0.183794
-0.189954
-0.0642409
-0.0721007
-0.0797515
-0.0871979
-0.0944468
-0.101506
-0.108385
-0.115093
-0.121639
-0.128033
-0.134283
-0.140396
-0.146378
-0.152232
-0.157947
-0.163565
-0.168946
-0.174572
-0.17938
-0.186199
-0.0613195
-0.0688789
-0.0762472
-0.0834313
-0.0904385
-0.097276
-0.103951
-0.110473
-0.116849
-0.123087
-0.129194
-0.135179
-0.141044
-0.14681
-0.152446
-0.15808
-0.163454
-0.169308
-0.174208
-0.181063
-0.0585145
-0.0658011
-0.0729171
-0.0798692
-0.0866641
-0.0933084
-0.0998094
-0.106175
-0.112412
-0.118529
-0.124533
-0.130436
-0.136236
-0.141976
-0.147593
-0.153293
-0.158689
-0.164639
-0.169651
-0.176223
-0.0558433
-0.0628754
-0.0697575
-0.0764954
-0.0830952
-0.0895641
-0.0959089
-0.102138
-0.108257
-0.114278
-0.120203
-0.126053
-0.131813
-0.137549
-0.143156
-0.148887
-0.154271
-0.160178
-0.165267
-0.17148
-0.0533046
-0.0600902
-0.0667439
-0.0732705
-0.0796763
-0.0859685
-0.092154
-0.0982411
-0.104236
-0.110149
-0.115982
-0.12176
-0.127455
-0.133148
-0.138699
-0.144387
-0.14973
-0.155523
-0.160702
-0.166645
-0.0508879
-0.0574331
-0.063862
-0.070179
-0.07639
-0.0825023
-0.0885221
-0.094458
-0.100314
-0.106104
-0.111824
-0.117502
-0.123101
-0.128711
-0.134179
-0.139788
-0.145105
-0.150782
-0.156063
-0.161825
-0.0485837
-0.0548955
-0.0611046
-0.0672155
-0.0732334
-0.0791654
-0.0850171
-0.0907971
-0.0965084
-0.102165
-0.107759
-0.113323
-0.118815
-0.124329
-0.129719
-0.135241
-0.140547
-0.146108
-0.151451
-0.157062
-0.0463857
-0.0524713
-0.0584663
-0.0643752
-0.0702027
-0.0759557
-0.0816393
-0.087262
-0.0928255
-0.0983446
-0.10381
-0.109256
-0.114639
-0.120052
-0.125367
-0.13079
-0.136067
-0.141502
-0.146848
-0.15233
-0.0442884
-0.0501547
-0.0559412
-0.0616523
-0.0672924
-0.0728682
-0.0783841
-0.0838488
-0.0892632
-0.0946424
-0.0999763
-0.1053
-0.110572
-0.115874
-0.121103
-0.12641
-0.131631
-0.136938
-0.14225
-0.147628
-0.0422863
-0.0479399
-0.0535233
-0.0590409
-0.0644967
-0.0698971
-0.0752462
-0.0805526
-0.0858167
-0.0910534
-0.0962531
-0.101447
-0.106602
-0.111781
-0.116912
-0.122094
-0.12724
-0.132428
-0.137682
-0.142963
-0.0403738
-0.0458214
-0.0512073
-0.0565357
-0.0618104
-0.0670376
-0.072221
-0.0773689
-0.0824819
-0.0875734
-0.0926357
-0.0976949
-0.102726
-0.107776
-0.112801
-0.117857
-0.122915
-0.127988
-0.133161
-0.138339
-0.0385461
-0.043794
-0.0489879
-0.0541316
-0.0592287
-0.064285
-0.0693043
-0.0742943
-0.0792556
-0.0842002
-0.0891229
-0.094044
-0.0989484
-0.103866
-0.108778
-0.113708
-0.118664
-0.123618
-0.128693
-0.13376
-0.0367982
-0.041853
-0.0468604
-0.0518238
-0.0567469
-0.0616352
-0.0664923
-0.071325
-0.076135
-0.080932
-0.0857138
-0.0904952
-0.0952694
-0.100054
-0.104846
-0.109647
-0.11449
-0.11932
-0.124287
-0.129236
-0.0351256
-0.0399936
-0.04482
-0.0496078
-0.0543607
-0.0590839
-0.0637809
-0.068458
-0.0731172
-0.0777667
-0.0824067
-0.0870475
-0.0916884
-0.0963376
-0.101003
-0.105674
-0.110395
-0.1151
-0.119951
-0.124776
-0.033525
-0.0382122
-0.0428627
-0.0474794
-0.0520659
-0.0566271
-0.0611666
-0.0656898
-0.0701994
-0.0747019
-0.0791996
-0.083699
-0.0882041
-0.0927167
-0.0972515
-0.10179
-0.106386
-0.110962
-0.115691
-0.120387
-0.0319916
-0.0365042
-0.040984
-0.0454342
-0.0498585
-0.0542612
-0.0586458
-0.0630172
-0.0673785
-0.071735
-0.0760903
-0.0804485
-0.0848163
-0.0891916
-0.0935934
-0.0979987
-0.102464
-0.10691
-0.11151
-0.116076
-0.0305219
-0.0348661
-0.0391801
-0.0434685
-0.0477347
-0.0519823
-0.056215
-0.0604369
-0.0646518
-0.0688636
-0.0730771
-0.0772945
-0.0815244
-0.0857623
-0.0900291
-0.0942996
-0.0986319
-0.102945
-0.107413
-0.111847
-0.0291139
-0.0332947
-0.037448
-0.041579
-0.045691
-0.0497871
-0.0538709
-0.057946
-0.0620164
-0.0660854
-0.070158
-0.0742357
-0.0783276
-0.082428
-0.0865587
-0.0906935
-0.0948907
-0.0990697
-0.103402
-0.107703
-0.0277652
-0.0317873
-0.0357846
-0.0397626
-0.0437242
-0.0476724
-0.0516103
-0.0555414
-0.0594696
-0.0633977
-0.067331
-0.0712701
-0.0752245
-0.0791879
-0.0831822
-0.0871812
-0.0912419
-0.0952862
-0.0994797
-0.103647
-0.0264709
-0.0303396
-0.0341862
-0.0380156
-0.0418309
-0.0456348
-0.0494302
-0.0532203
-0.0570088
-0.0607983
-0.064594
-0.068396
-0.0722139
-0.0760413
-0.0798993
-0.0837627
-0.0876863
-0.0915954
-0.0956487
-0.0996803
-0.0252289
-0.0289493
-0.0326498
-0.0363351
-0.0400081
-0.0436713
-0.0473276
-0.0509797
-0.0546313
-0.0582847
-0.0619448
-0.0656117
-0.0692945
-0.0729871
-0.0767096
-0.0804379
-0.0842244
-0.0879981
-0.0919107
-0.0958052
-0.0240369
-0.0276136
-0.0311726
-0.0347181
-0.0382528
-0.0417791
-0.0452997
-0.048817
-0.0523346
-0.0558544
-0.0593813
-0.0629152
-0.0664648
-0.0700241
-0.0736123
-0.0772066
-0.0808565
-0.0844953
-0.0882672
-0.0920238
-0.022892
-0.0263298
-0.0297518
-0.0331618
-0.0365622
-0.0399554
-0.0433437
-0.0467296
-0.0501162
-0.0535053
-0.0569015
-0.0603048
-0.0637232
-0.0671511
-0.0706066
-0.0740683
-0.0775828
-0.0810873
-0.0847193
-0.0883378
-0.0217918
-0.0250954
-0.0283848
-0.0316635
-0.0349337
-0.0381975
-0.0414571
-0.0447148
-0.0479736
-0.051235
-0.0545033
-0.0577785
-0.061068
-0.0643668
-0.0676915
-0.0710225
-0.0744032
-0.0777746
-0.081268
-0.0847489
-0.0207341
-0.0239081
-0.0270693
-0.0302208
-0.0333647
-0.0365029
-0.0396375
-0.0427704
-0.0459045
-0.0490413
-0.0521846
-0.0553344
-0.0584977
-0.0616697
-0.0648661
-0.0680682
-0.0713173
-0.0745573
-0.0779137
-0.0812582
-0.0197169
-0.0227657
-0.0258029
-0.0288314
-0.0318529
-0.0348692
-0.0378824
-0.040894
-0.0439068
-0.046922
-0.0499433
-0.0529707
-0.0560106
-0.0590585
-0.062129
-0.0652048
-0.0683244
-0.0714352
-0.0746567
-0.0778666
-0.0187382
-0.0216662
-0.0245836
-0.027493
-0.030396
-0.0332943
-0.0361895
-0.0390834
-0.0419782
-0.0448751
-0.0477776
-0.0506856
-0.0536049
-0.0565316
-0.059479
-0.062431
-0.065424
-0.068408
-0.0714969
-0.0745745
-0.0177963
-0.0206076
-0.0234094
-0.0262036
-0.028992
-0.0317759
-0.0345569
-0.0373364
-0.0401166
-0.0428986
-0.0456855
-0.0484771
-0.0512791
-0.0540875
-0.0569148
-0.059746
-0.062615
-0.065475
-0.0684341
-0.071382
-0.0168895
-0.0195884
-0.0222783
-0.0249614
-0.0276389
-0.030312
-0.0329823
-0.035651
-0.03832
-0.0409904
-0.043665
-0.0463436
-0.0490313
-0.0517246
-0.054435
-0.0571483
-0.0598966
-0.0626355
-0.0654677
-0.0682889
-0.0160163
-0.0186067
-0.0211887
-0.0237644
-0.0263347
-0.0289008
-0.0314639
-0.0340253
-0.0365866
-0.0391488
-0.0417144
-0.0442832
-0.04686
-0.0494414
-0.052038
-0.0546367
-0.0572674
-0.0598885
-0.0625971
-0.0652947
-0.0151753
-0.0176609
-0.020139
-0.022611
-0.0250778
-0.0275404
-0.03
-0.0324574
-0.0349145
-0.0373718
-0.0398318
-0.0422943
-0.0447634
-0.0472362
-0.0497225
-0.0522099
-0.0547264
-0.057233
-0.0598214
-0.0623988
-0.0143651
-0.0167497
-0.0191274
-0.0214995
-0.0238665
-0.0262292
-0.0285886
-0.0309457
-0.0333018
-0.0356578
-0.0380155
-0.040375
-0.0427399
-0.0451075
-0.0474868
-0.0498664
-0.0522721
-0.0546677
-0.0571394
-0.0596003
-0.0135847
-0.015872
-0.0181531
-0.0204288
-0.0226993
-0.0249655
-0.0272283
-0.0294884
-0.0317471
-0.034005
-0.0362639
-0.0385237
-0.0407878
-0.0430537
-0.0453295
-0.0476047
-0.0499033
-0.0521915
-0.0545502
-0.0568982
-0.0128306
-0.0150257
-0.0172143
-0.0193971
-0.0215747
-0.0237479
-0.0259175
-0.028084
-0.0302487
-0.0324119
-0.0345754
-0.0367389
-0.0389056
-0.0410731
-0.043249
-0.0454233
-0.0476184
-0.0498028
-0.0520523
-0.0542912
-0.0121015
-0.0142094
-0.0163095
-0.018403
-0.0204912
-0.0225748
-0.0246546
-0.026731
-0.0288049
-0.0308769
-0.0329483
-0.035019
-0.0370918
-0.0391644
-0.0412437
-0.0433208
-0.045416
-0.0475003
-0.0496444
-0.051778
-0.0114019
-0.0134243
-0.0154386
-0.017446
-0.019448
-0.0214453
-0.0234385
-0.025428
-0.0274145
-0.0293985
-0.0313811
-0.0333624
-0.0353446
-0.0373258
-0.0393123
-0.0412956
-0.0432946
-0.0452826
-0.0473251
-0.0493574
-0.0107309
-0.0126697
-0.0146008
-0.0165252
-0.0184441
-0.0203583
-0.0222681
-0.0241738
-0.0260761
-0.0279754
-0.0298726
-0.0317677
-0.0336628
-0.035556
-0.037453
-0.0393462
-0.0412527
-0.043148
-0.0450929
-0.0470277
-0.0100849
-0.0119431
-0.0137942
-0.0156389
-0.0174781
-0.0193123
-0.0211419
-0.0229671
-0.0247884
-0.0266061
-0.0284212
-0.0302334
-0.0320448
-0.0338534
-0.0356645
-0.037471
-0.0392887
-0.041095
-0.0429463
-0.0447874
-0.00946309
-0.0112441
-0.0130185
-0.0147866
-0.016549
-0.0183064
-0.0200588
-0.0218066
-0.0235501
-0.0252895
-0.0270256
-0.0287583
-0.0304891
-0.0322166
-0.0339452
-0.0356686
-0.0374011
-0.039122
-0.0408835
-0.0426349