/*--------------------------------*- C++ -*----------------------------------*\
  =========                 |
  \\      /  F ield         | OpenFOAM: The Open Source CFD Toolbox
   \\    /   O peration     | Website:  https://openfoam.org
    \\  /    A nd           | Version:  7
     \\/     M anipulation  |
\*---------------------------------------------------------------------------*/
FoamFile
{
    version     2.0;
    format      ascii;
    class       surfaceScalarField;
    location    "159";
    object      phi;
}
// * * * * * * * * * * * * * * * * * * * * * * * * * * * * * * * * * * * * * //

dimensions      [0 3 -1 0 0 0 0];

internalField   nonuniform List<scalar> 
24510
(
-6.5787e-06
7.02448e-05
-6.36661e-05
-2.44419e-05
0.000167832
-0.000149969
-5.28981e-05
0.00023214
-0.000203684
-9.13639e-05
0.000264402
-0.000225937
-0.000139378
0.000267766
-0.000219752
-0.000196639
0.000246425
-0.000189164
-0.000262991
0.000204094
-0.000137743
-0.000338356
0.000142351
-6.69861e-05
-0.000422641
5.93581e-05
2.49276e-05
-0.00051565
-5.05852e-05
0.000143593
-0.000616932
-0.000196689
0.000297971
-0.000725574
-0.000390813
0.000499455
-0.000839889
-0.000646495
0.000760809
-0.000957014
-0.000977855
0.00109498
-0.00107245
-0.0013979
0.00151334
-0.00117955
-0.00191548
0.00202258
-0.00126895
-0.00253037
0.00261977
-0.00132829
-0.00322588
0.00328521
-0.00134199
-0.00396029
0.00397399
-0.0046686
0.00461483
-0.00128823
-6.03067e-06
7.62755e-05
-2.27544e-05
0.000184556
-4.98059e-05
0.000259191
-8.68085e-05
0.000301405
-0.000133385
0.000314343
-0.000189219
0.000302259
-0.000254083
0.000268958
-0.000327829
0.000216097
-0.000410364
0.000141893
-0.000501554
4.06044e-05
-0.000601175
-9.70674e-05
-0.00070865
-0.000283338
-0.000822816
-0.000532328
-0.000941607
-0.000859064
-0.00106175
-0.00127776
-0.0011785
-0.00179874
-0.0012853
-0.00242356
-0.00137349
-0.00313769
-0.00143358
-0.0039002
-0.00465629
-0.00144589
-5.23707e-06
8.15126e-05
-2.02009e-05
0.000199519
-4.49005e-05
0.000283891
-7.91878e-05
0.000335692
-0.000122766
0.000357921
-0.000175269
0.000354763
-0.000236333
0.000330022
-0.000305641
0.000285404
-0.000382946
0.000219198
-0.000468049
0.000125707
-0.000560638
-4.47808e-06
-0.000660239
-0.000183738
-0.000765855
-0.000426712
-0.000875796
-0.000749123
-0.000987532
-0.00116602
-0.00109768
-0.0016886
-0.00120206
-0.00231918
-0.00129531
-0.00304444
-0.00137506
-0.00382045
-0.0046073
-0.00142404
-4.22476e-06
8.57373e-05
-1.68567e-05
0.000212151
-3.831e-05
0.000305344
-6.86822e-05
0.000366064
-0.000107756
0.000396994
-0.00015509
0.000402097
-0.000210129
0.000385061
-0.000272297
0.000347572
-0.000341064
0.000287965
-0.000415959
0.000200603
-0.000496419
7.59823e-05
-0.000581728
-9.84291e-05
-0.000670735
-0.000337705
-0.000761684
-0.000658173
-0.000852231
-0.00107547
-0.000939638
-0.00160119
-0.00102141
-0.00223741
-0.00109445
-0.0029714
-0.0011629
-0.003752
-0.00455605
-0.00121416
-3.03725e-06
8.87746e-05
-1.28522e-05
0.000221966
-3.02723e-05
0.000322764
-5.56465e-05
0.000391439
-8.88367e-05
0.000430184
-0.000129313
0.000442573
-0.000176285
0.000432033
-0.000228842
0.000400129
-0.000286061
0.000345184
-0.00034703
0.000261572
-0.000410782
0.000139735
-0.000476026
-3.31855e-05
-0.00054123
-0.000272501
-0.000604156
-0.000595248
-0.000662131
-0.0010175
-0.000712333
-0.00155099
-0.000753112
-0.00219663
-0.000782387
-0.00294213
-0.000808794
-0.00372559
-0.00453776
-0.000827086
-1.73146e-06
9.05061e-05
-8.36481e-06
0.0002286
-2.11198e-05
0.000335519
-4.05888e-05
0.000410908
-6.67113e-05
0.000456307
-9.88595e-05
0.000474722
-0.000135986
0.00046916
-0.000176794
0.000440937
-0.000219876
0.000388266
-0.000263765
0.000305461
-0.000306918
0.000182887
-0.000347259
7.15529e-06
-0.000382709
-0.00023705
-0.000410191
-0.000567766
-0.000426357
-0.00100133
-0.0004277
-0.00154964
-0.000412979
-0.00221135
-0.000379039
-0.00297607
-0.000336156
-0.00376847
-0.00457795
-0.000295959
-3.73853e-07
9.08799e-05
-3.60552e-06
0.000231831
-1.12575e-05
0.000343171
-2.41388e-05
0.000423789
-4.22588e-05
0.000474427
-6.4891e-05
0.000497354
-9.07232e-05
0.000494992
-0.000118041
0.000468255
-0.0001449
0.000415125
-0.000169187
0.000329748
-0.000188578
0.000202278
-0.000200489
1.90666e-05
-0.000201511
-0.000236028
-0.00018791
-0.000581367
-0.000155464
-0.00103378
-9.94443e-05
-0.00160566
-1.69926e-05
-0.0022938
8.28789e-05
-0.00307594
0.000223523
-0.00390912
-0.00468856
0.00033413
9.68515e-07
8.99114e-05
1.20018e-06
0.0002316
-1.13393e-06
0.000345505
-7.00797e-06
0.000429663
-1.64829e-05
0.000483902
-2.87349e-05
0.000509606
-4.21958e-05
0.000508453
-5.47235e-05
0.000480782
-6.38168e-05
0.000424218
-6.66637e-05
0.000332595
-6.01575e-05
0.000195772
-4.08243e-05
-2.66588e-07
-4.40684e-06
-0.000272446
5.39526e-05
-0.000639727
0.000140043
-0.00111987
0.000258317
-0.00172394
0.000412413
-0.0024479
0.000598636
-0.00326216
0.000812503
-0.00412299
-0.00491233
0.00103627
2.22311e-06
8.76883e-05
5.80839e-06
0.000228014
8.78083e-06
0.000342533
1.00578e-05
0.000428386
9.55253e-06
0.000484407
8.18151e-06
0.000510977
7.78016e-06
0.000508854
1.08682e-05
0.000477694
2.05657e-05
0.000414521
4.03586e-05
0.000312802
7.42379e-05
0.000161892
0.000126705
-5.27339e-05
0.000203091
-0.000348832
0.000309326
-0.000745962
0.000451505
-0.00126205
0.000635152
-0.00190758
0.000863734
-0.00267648
0.00113046
-0.00352888
0.00142715
-0.00441968
-0.00523162
0.00174645
3.33132e-06
8.4357e-05
1.00166e-05
0.000221329
1.80489e-05
0.000334501
2.63316e-05
0.000420103
3.48022e-05
0.000475937
4.44927e-05
0.000501286
5.74564e-05
0.00049589
7.66377e-05
0.000458513
0.000105672
0.000385486
0.000148825
0.000269649
0.000210946
9.9772e-05
0.000297616
-0.000139404
0.000415221
-0.000466437
0.000570789
-0.000901529
0.00077127
-0.00146253
0.00102137
-0.00215769
0.00132407
-0.00297917
0.00166665
-0.00387147
0.00203853
-0.00479156
-0.00562354
0.00243045
4.2416e-06
8.01154e-05
1.36336e-05
0.000211937
2.62764e-05
0.000321858
4.11578e-05
0.000405222
5.82996e-05
0.000458795
7.88661e-05
0.00048072
0.000105151
0.000469606
0.000140473
0.000423191
0.000189039
0.00033692
0.000255866
0.000202822
0.000346748
8.89012e-06
0.0004684
-0.000261056
0.000628347
-0.000626384
0.000834581
-0.00110776
0.00109439
-0.00172234
0.00141061
-0.0024739
0.00178295
-0.00335152
0.00219276
-0.00428128
0.0026249
-0.0052237
-0.00606065
0.003062
4.91762e-06
7.51977e-05
1.65204e-05
0.000200334
3.31562e-05
0.000305222
5.4007e-05
0.000384371
7.92559e-05
0.000433546
0.000110246
0.00044973
0.000149525
0.000430326
0.000200808
0.000371908
0.000268885
0.000268843
0.000359563
0.000112144
0.000479707
-0.000111254
0.000637151
-0.0004185
0.000840587
-0.00082982
0.00109858
-0.00136576
0.00141773
-0.00204149
0.00179753
-0.00285369
0.00223105
-0.00378504
0.00269372
-0.00474395
0.0031655
-0.00569547
-0.00651431
0.00361916
5.3405e-06
6.98572e-05
1.85953e-05
0.00018708
3.84951e-05
0.000285322
6.45296e-05
0.000358337
9.71352e-05
0.00040094
0.000137901
0.000408965
0.000189683
0.000378544
0.000256635
0.000304956
0.000344194
0.000181285
0.000459046
-2.70782e-06
0.000609167
-0.000261376
0.000803593
-0.000612926
0.00105189
-0.00107812
0.00136241
-0.00167628
0.00173925
-0.00241833
0.00217665
-0.00329109
0.00265816
-0.00426655
0.00315392
-0.00523971
0.00364041
-0.00618197
-0.00695856
0.00408466
5.51054e-06
6.43467e-05
1.98436e-05
0.000172746
4.22363e-05
0.000262929
7.26e-05
0.000327973
0.000111728
0.000361812
0.000161551
0.000359142
0.00022532
0.000314774
0.000307725
0.00022255
0.000414946
7.40643e-05
0.00055469
-0.000142452
0.000736046
-0.000442732
0.000969116
-0.000845997
0.0012637
-0.0013727
0.00162648
-0.00203907
0.00205658
-0.00284843
0.00254083
-0.00377535
0.00305213
-0.00477784
0.00355762
-0.0057452
0.00403301
-0.00665736
-0.00737352
0.00444797
5.44818e-06
5.88985e-05
2.03226e-05
0.000157872
4.44757e-05
0.000238776
7.83495e-05
0.000294099
0.000123211
0.000316951
0.000181452
0.000300901
0.000256854
0.000239372
0.000354778
0.000124627
0.000482304
-5.34619e-05
0.00064821
-0.000308358
0.000862679
-0.000657201
0.00113634
-0.00111966
0.00147798
-0.00171434
0.00189047
-0.00245156
0.00236524
-0.0033232
0.00288024
-0.00429034
0.00339923
-0.00529683
0.00389069
-0.00623667
0.00433286
-0.00709952
-0.00774755
0.00470688
5.19401e-06
5.37045e-05
2.01631e-05
0.000142903
4.54663e-05
0.000213473
8.21806e-05
0.000257385
0.000132171
0.000266961
0.000198441
0.000234631
0.000285469
0.000152344
0.000399456
1.06398e-05
0.00054853
-0.000202535
0.000742525
-0.000502354
0.000992357
-0.000907032
0.00130817
-0.00143547
0.00169577
-0.00210195
0.00215159
-0.00290738
0.00265743
-0.00382903
0.0031826
-0.00481552
0.00368623
-0.00580045
0.00414336
-0.00669381
0.00453758
-0.00749373
-0.00807748
0.00486751
4.80722e-06
4.88973e-05
1.9564e-05
0.000128146
4.56097e-05
0.000187427
8.4754e-05
0.00021824
0.000139594
0.000212121
0.000213909
0.000160315
0.000313055
5.31981e-05
0.000444284
-0.000120589
0.000616753
-0.000375004
0.000841179
-0.00072678
0.00112838
-0.00119424
0.00148636
-0.00179345
0.00191551
-0.0025311
0.00240344
-0.0033953
0.00292217
-0.00434777
0.00343525
-0.0053286
0.00390339
-0.00626858
0.00431257
-0.00710299
0.00465275
-0.00783391
-0.00836707
0.00494234
4.36221e-06
4.45351e-05
1.87796e-05
0.000113729
4.5428e-05
0.000160779
8.69421e-05
0.000176726
0.000146785
0.000152278
0.000229684
7.74154e-05
0.000342054
-5.91711e-05
0.000492249
-0.000270785
0.000690401
-0.000573156
0.000947461
-0.000983839
0.00127281
-0.00151959
0.00167013
-0.00219076
0.00213198
-0.00299295
0.00263616
-0.00389948
0.00314736
-0.00485897
0.00362816
-0.00580939
0.00404707
-0.00668749
0.00440239
-0.00745831
0.00468992
-0.00812145
-0.00862313
0.00494598
3.94259e-06
4.05925e-05
1.80977e-05
9.95736e-05
4.55174e-05
0.000133359
8.97443e-05
0.000132499
0.000155234
8.67887e-05
0.000247809
-1.51594e-05
0.000375045
-0.000186408
0.000546358
-0.000442097
0.000772414
-0.000799212
0.00106335
-0.00127477
0.00142526
-0.0018815
0.00185518
-0.00262069
0.00233645
-0.00347422
0.00283828
-0.00440132
0.00332264
-0.00534333
0.00375659
-0.00624334
0.00412058
-0.00705148
0.00442257
-0.0077603
0.00466312
-0.008362
-0.0088531
0.00489309
3.63305e-06
3.69594e-05
1.78112e-05
8.53955e-05
4.64848e-05
0.000104686
9.41728e-05
8.48115e-05
0.000166423
1.45382e-05
0.000270244
-0.00011898
0.000414355
-0.000330518
0.000608943
-0.000636685
0.00086441
-0.00105468
0.00118857
-0.00159894
0.00158218
-0.0022751
0.00203393
-0.00307244
0.00251826
-0.00395855
0.0029994
-0.00488245
0.00344194
-0.00578587
0.00382183
-0.00662323
0.00413266
-0.00736231
0.00438685
-0.00801449
0.00458519
-0.00856034
-0.00907544
0.00480753
3.50993e-06
3.34495e-05
1.81847e-05
7.07207e-05
4.88767e-05
7.39938e-05
0.000101126
3.25622e-05
0.000181626
-6.59621e-05
0.000298559
-0.000235913
0.000461593
-0.000493552
0.000681104
-0.000856196
0.000966054
-0.00133963
0.00132018
-0.00195306
0.00173711
-0.00269203
0.00219684
-0.00353217
0.00266733
-0.00442905
0.00311267
-0.00532779
0.00350462
-0.00617782
0.00383003
-0.00694864
0.00409389
-0.00762617
0.00431137
-0.00823197
0.00449462
-0.00874359
-0.00926059
0.00467977
3.63235e-06
2.98172e-05
1.94244e-05
5.49287e-05
5.31142e-05
4.03039e-05
0.000111273
-2.55962e-05
0.000201719
-0.000156409
0.000333669
-0.000367863
0.00051732
-0.000677203
0.000762352
-0.00110123
0.00107485
-0.00165213
0.0014528
-0.00233101
0.0018818
-0.00312104
0.00233451
-0.00398488
0.00277638
-0.00487091
0.00317601
-0.00572742
0.00351486
-0.00651668
0.00379027
-0.00722405
0.00401446
-0.00785036
0.00420302
-0.00842053
0.00438604
-0.00892661
-0.00945673
0.00458218
4.03619e-06
2.5781e-05
2.16572e-05
3.73077e-05
5.94484e-05
2.51265e-06
0.000124974
-9.11216e-05
0.000227069
-0.000258504
0.000375683
-0.000516477
0.000580897
-0.000882416
0.000850569
-0.0013709
0.00118642
-0.00198798
0.00157948
-0.00272408
0.00200782
-0.00354937
0.00243962
-0.00441669
0.00284215
-0.00527344
0.00319178
-0.00607704
0.00347998
-0.00680488
0.00371236
-0.00745643
0.00390478
-0.00804277
0.00407507
-0.00859082
0.00424491
-0.00909645
-0.00963497
0.00442316
4.73244e-06
2.10485e-05
2.49237e-05
1.71164e-05
6.79446e-05
-4.05082e-05
0.000142259
-0.000165436
0.000257503
-0.000373748
0.000423901
-0.000682874
0.000650565
-0.00110908
0.00094229
-0.00166263
0.00129516
-0.00234085
0.00169304
-0.00312195
0.0021082
-0.00396454
0.00250812
-0.0048166
0.0028654
-0.00563072
0.00316547
-0.00637711
0.00340848
-0.00704789
0.00360548
-0.00765343
0.00377371
-0.00821101
0.003929
-0.00874611
0.00409019
-0.00925764
-0.00981025
0.00426547
5.71004e-06
1.53385e-05
2.91862e-05
-6.35974e-06
7.84972e-05
-8.98192e-05
0.000162852
-0.00024979
0.000292366
-0.000503263
0.000476922
-0.00086743
0.000723686
-0.00135584
0.0010332
-0.00197213
0.0013952
-0.00270285
0.00178717
-0.00351393
0.00217848
-0.00435584
0.00253934
-0.00517747
0.00284984
-0.00594121
0.00310407
-0.00663134
0.00330865
-0.00725247
0.00347747
-0.00782224
0.00362699
-0.00836053
0.003771
-0.00889011
0.00392429
-0.00941094
-0.00997567
0.00408971
6.94225e-06
8.39624e-06
3.43468e-05
-3.37642e-05
9.08672e-05
-0.00014634
0.000186238
-0.000345161
0.000330627
-0.000647653
0.000532842
-0.00106964
0.00079708
-0.00162008
0.0011187
-0.00229376
0.00148116
-0.00306531
0.00185739
-0.00389016
0.00221695
-0.0047154
0.00253544
-0.00549595
0.00280096
-0.00620674
0.00301482
-0.00684521
0.00318775
-0.0074254
0.00333433
-0.00796882
0.00346926
-0.00849547
0.00360365
-0.0090245
0.00374892
-0.0095562
-0.0101337
0.00390699
8.39368e-06
2.56303e-09
4.02703e-05
-6.56409e-05
0.000104726
-0.000210796
0.000211737
-0.000452171
0.000371004
-0.00080692
0.000589454
-0.00128809
0.000867382
-0.00189801
0.00119451
-0.00262088
0.00154887
-0.00341967
0.00190132
-0.00424261
0.00222436
-0.00503844
0.00250036
-0.00577195
0.00272482
-0.00643119
0.00290432
-0.00702471
0.0030516
-0.00757268
0.00318054
-0.00809775
0.0033035
-0.00861844
0.00342917
-0.00915017
0.0035664
-0.00969343
-0.0102828
0.0037155
1.00222e-05
-1.00197e-05
4.68042e-05
-0.000102423
0.000119697
-0.000283689
0.000238574
-0.000571048
0.00041208
-0.000980426
0.000644447
-0.00152046
0.000931365
-0.00218493
0.00125704
-0.00294655
0.0015957
-0.00375833
0.00191863
-0.00456554
0.00220325
-0.00532307
0.00243893
-0.00600763
0.00262726
-0.00661952
0.00277813
-0.00717559
0.00290468
-0.00769923
0.00301924
-0.00821231
0.00313179
-0.00873099
0.00324896
-0.00926733
0.00337749
-0.00982196
-0.0104225
0.00351715
1.18e-05
-2.18196e-05
5.37928e-05
-0.000144416
0.000135379
-0.000365275
0.000265925
-0.000701593
0.000452386
-0.00116689
0.000695568
-0.00176364
0.0009862
-0.00247556
0.00130373
-0.00326408
0.00162055
-0.00407515
0.0019106
-0.0048556
0.00215721
-0.00556968
0.00235614
-0.00620656
0.00251344
-0.00677682
0.00264068
-0.00730282
0.00275025
-0.0078088
0.00285259
-0.00831465
0.0029555
-0.0088339
0.00306395
-0.00937579
0.00318318
-0.00994118
-0.0105518
0.00331248
1.36886e-05
-3.55082e-05
6.10783e-05
-0.000191805
0.000151361
-0.000455557
0.000292949
-0.000843182
0.00049048
-0.00136442
0.000740763
-0.00201393
0.00102966
-0.00276445
0.00133311
-0.00356753
0.00162373
-0.00436578
0.00187965
-0.00511151
0.00209026
-0.00578029
0.00225661
-0.00637291
0.00238766
-0.00690787
0.00249531
-0.00741047
0.00259061
-0.00790411
0.00268204
-0.00840608
0.00277555
-0.00892742
0.00287488
-0.00947512
0.00298408
-0.0100504
-0.01067
0.00310231
1.56554e-05
-5.11636e-05
6.85017e-05
-0.000244652
0.000167226
-0.000554281
0.000318811
-0.000994767
0.000525
-0.00157061
0.000778294
-0.00226722
0.00106022
-0.00304638
0.00134478
-0.00385209
0.00160659
-0.00462759
0.00182879
-0.00533371
0.00200637
-0.00595787
0.00214438
-0.00651092
0.0022533
-0.00701679
0.00234449
-0.00750166
0.00242735
-0.00798697
0.00250856
-0.00848729
0.00259261
-0.00901146
0.0026823
-0.00956481
0.0027808
-0.0101489
-0.0107765
0.00288725
1.76667e-05
-6.88303e-05
7.58999e-05
-0.000302885
0.000182552
-0.000660934
0.000342702
-0.00115492
0.00055473
-0.00178263
0.000806826
-0.00251932
0.0010771
-0.00331665
0.00133924
-0.00411424
0.00157117
-0.00485952
0.00176123
-0.00552378
0.00190919
-0.00610583
0.00202279
-0.00662453
0.00211298
-0.00710698
0.00219001
-0.00757868
0.00226158
-0.00805854
0.00233285
-0.00855856
0.00240717
-0.00908578
0.00248668
-0.00964432
0.00257386
-0.0102361
-0.0108706
0.00266794
1.9686e-05
-8.85163e-05
8.31037e-05
-0.000366303
0.000196921
-0.000774751
0.000363863
-0.00132186
0.000578653
-0.00199742
0.000825482
-0.00276615
0.00108021
-0.00357137
0.00131768
-0.00435171
0.00151989
-0.00506173
0.00168014
-0.00568403
0.0018019
-0.00622759
0.00189453
-0.00671716
0.00196864
-0.00718109
0.00203309
-0.00764313
0.00209405
-0.0081195
0.00215541
-0.00861991
0.00221965
-0.00915002
0.00228845
-0.00971312
0.00236378
-0.0103114
-0.0109517
0.00244493
2.16734e-05
-0.00011019
8.99386e-05
-0.000434568
0.000209924
-0.000894736
0.000381622
-0.00149356
0.000595999
-0.0022118
0.000833851
-0.003004
0.00107005
-0.00380757
0.00128173
-0.00456339
0.00145529
-0.00523529
0.00158837
-0.00581711
0.00168716
-0.00632638
0.00176168
-0.00679167
0.0018217
-0.00724111
0.00187465
-0.00769608
0.00192532
-0.00817017
0.00197662
-0.00867122
0.00203041
-0.00920381
0.00208803
-0.00977074
0.00215102
-0.0103744
-0.0110195
0.00221878
2.35856e-05
-0.000133775
9.62296e-05
-0.000507212
0.000221181
-0.00101969
0.000395418
-0.00166779
0.000606275
-0.00242266
0.00083196
-0.00322968
0.00104755
-0.00402316
0.00123326
-0.0047491
0.00137983
-0.00538185
0.00148846
-0.00592574
0.00156713
-0.00640504
0.00162581
-0.00685036
0.00167319
-0.00728849
0.00171529
-0.00773818
0.00175578
-0.00821066
0.00179682
-0.00871226
0.0018398
-0.00924679
0.00188581
-0.00981675
0.00193604
-0.0104246
-0.0110735
0.00199001
2.53779e-05
-0.000159153
0.000101807
-0.000583641
0.000230356
-0.00114824
0.000404833
-0.00184227
0.000609268
-0.00262709
0.000820207
-0.00344062
0.00101394
-0.00421689
0.00117423
-0.00490939
0.00129576
-0.00550338
0.00138255
-0.00601253
0.00144351
-0.00646601
0.00148814
-0.00689499
0.00152387
-0.00732422
0.0015555
-0.00776981
0.00158579
-0.00824094
0.00161631
-0.00874278
0.00164814
-0.00927862
0.00168215
-0.00985076
0.00171929
-0.0104617
-0.0111133
0.00175912
2.70054e-05
-0.000186159
0.000106515
-0.000663151
0.000237174
-0.00127889
0.000409604
-0.0020147
0.000605031
-0.00282252
0.000799275
-0.00363487
0.000970642
-0.00438826
0.00110653
-0.00504529
0.0012051
-0.00560195
0.00127238
-0.0060798
0.00131764
-0.00651126
0.00134954
-0.00692689
0.00137429
-0.00734898
0.00139564
-0.00779116
0.00141561
-0.0082609
0.00143537
-0.00876255
0.00145574
-0.00929899
0.00147745
-0.00987247
0.00150118
-0.0104855
-0.0111387
0.0015266
2.84255e-05
-0.000214584
0.000110219
-0.000744944
0.000241431
-0.00141011
0.000409626
-0.0021829
0.000593844
-0.00300674
0.000770047
-0.00381107
0.000919093
-0.00453731
0.00103192
-0.00515812
0.00110957
-0.00567959
0.0011594
-0.00612963
0.00119054
-0.00654241
0.00121067
-0.00694702
0.00122488
-0.00736318
0.001236
-0.00780228
0.00124551
-0.00827042
0.00125428
-0.00877132
0.00126293
-0.00930764
0.00127206
-0.00988159
0.00128214
-0.0104956
-0.0111495
0.00129292
2.95995e-05
-0.000244183
0.000112808
-0.000828153
0.000243002
-0.0015403
0.000404943
-0.00234484
0.000576166
-0.00317796
0.000733523
-0.00396843
0.000860725
-0.00466451
0.000951982
-0.00524937
0.00101061
-0.00573822
0.00104473
-0.00616376
0.001063
-0.00656068
0.00107205
-0.00695607
0.00107595
-0.00736708
0.00107683
-0.00780315
0.00107573
-0.00826933
0.00107331
-0.0087689
0.00107001
-0.00930434
0.00106633
-0.00987791
0.00106258
-0.0104918
-0.0111454
0.00105853
3.04942e-05
-0.000274678
0.000114203
-0.000911862
0.000241843
-0.00166794
0.000395732
-0.00249873
0.000552589
-0.00333482
0.000690748
-0.00410659
0.000796881
-0.00477064
0.000868093
-0.00532059
0.000909415
-0.00577954
0.000929269
-0.00618361
0.000935614
-0.00656702
0.000934059
-0.00695452
0.000927788
-0.00736081
0.000918362
-0.00779373
0.000906519
-0.00825748
0.000892711
-0.00875509
0.00087728
-0.00928891
0.000860613
-0.00986124
0.000842896
-0.0104741
-0.0111264
0.000823885
3.10832e-05
-0.000305761
0.000114359
-0.000995137
0.000237982
-0.00179156
0.000382274
-0.00264302
0.000523783
-0.00347633
0.000642759
-0.00422556
0.000728784
-0.00485666
0.000781441
-0.00537324
0.000806968
-0.00580507
0.000813724
-0.00619037
0.000808852
-0.00656215
0.000797002
-0.00694267
0.000780619
-0.00734443
0.000760818
-0.00777393
0.000738096
-0.00823476
0.000712759
-0.00872975
0.000685043
-0.00926119
0.000655236
-0.00983143
0.000623456
-0.0104423
-0.0110924
0.000589439
3.13474e-05
-0.000337108
0.000113259
-0.00107705
0.000231516
-0.00190982
0.00036493
-0.00277643
0.000490458
-0.00360185
0.000590544
-0.00432565
0.000657522
-0.00492364
0.00069302
-0.00540874
0.000704049
-0.0058161
0.000698639
-0.00618496
0.000683072
-0.00654658
0.000661132
-0.00692073
0.000634651
-0.00731795
0.000604401
-0.00774368
0.000570695
-0.00820106
0.000533711
-0.00869277
0.000493605
-0.00922109
0.000450557
-0.00978838
0.000404556
-0.0103963
-0.0110434
0.000355545
3.12758e-05
-0.000368384
0.000110919
-0.00115669
0.000222596
-0.0020215
0.000344115
-0.00289795
0.000453327
-0.00371107
0.000535019
-0.00440734
0.000584042
-0.00497267
0.000603658
-0.00542836
0.000601284
-0.00581372
0.000584443
-0.00616812
0.00055856
-0.0065207
0.00052666
-0.00688883
0.000490076
-0.00728137
0.000449309
-0.00770291
0.000404539
-0.00815629
0.000355824
-0.00864405
0.000303247
-0.00916851
0.000246964
-0.0097321
0.000186552
-0.0103359
-0.0109791
0.000122241
3.08646e-05
-0.000399249
0.000107381
-0.00123321
0.000211416
-0.00212553
0.00032027
-0.00300681
0.000413079
-0.00380387
0.000477011
-0.00447128
0.000509158
-0.00500481
0.000514033
-0.00543323
0.00049917
-0.00579886
0.000471473
-0.00614042
0.000435551
-0.00648478
0.00039377
-0.00684705
0.000347077
-0.00723467
0.000295747
-0.00765158
0.000239835
-0.00810037
0.000179365
-0.00858358
0.000114163
-0.00910331
4.44406e-05
-0.00966238
-2.91187e-05
-0.0102623
-0.0108985
-0.00010973
3.01175e-05
-0.000429366
0.000102711
-0.0013058
0.000198201
-0.00222102
0.000293848
-0.00310245
0.000370364
-0.00388039
0.000417254
-0.00451817
0.000433557
-0.00502112
0.000424698
-0.00542437
0.000398102
-0.00577226
0.000359997
-0.00610231
0.00031424
-0.00643902
0.000262637
-0.00679544
0.000205811
-0.00717785
0.00014393
-0.0075897
7.67266e-05
-0.00803317
4.16161e-06
-0.00851102
-7.32701e-05
-0.00902588
-0.000156003
-0.00957965
-0.00024483
-0.0101735
-0.0108041
-0.000339242
2.90446e-05
-0.000458411
9.69908e-05
-0.00137375
0.000183193
-0.00230723
0.000265291
-0.00318455
0.000325777
-0.00394088
0.000356387
-0.00454878
0.000357814
-0.00502254
0.000336099
-0.00540266
0.000298394
-0.00573456
0.000250233
-0.00605415
0.000194787
-0.00638358
0.000133445
-0.0067341
6.63789e-05
-0.00711078
-6.38188e-06
-0.00751694
-8.43847e-05
-0.00795517
-0.000168335
-0.00842707
-0.000258497
-0.00893571
-0.000354709
-0.00948344
-0.000457615
-0.0100706
-0.0106947
-0.000566938
2.76614e-05
-0.000486072
9.03178e-05
-0.0014364
0.000166643
-0.00238355
0.000235022
-0.00325293
0.000279853
-0.00398571
0.00029496
-0.00456388
0.000282404
-0.00500999
0.000248598
-0.00536885
0.000200304
-0.00568626
0.000142367
-0.00599622
7.73019e-05
-0.00631851
5.96908e-06
-0.00666277
-7.08856e-05
-0.00703393
-0.00015382
-0.007434
-0.00024325
-0.00786574
-0.00033908
-0.00833124
-0.000441676
-0.00883312
-0.000551204
-0.00937391
-0.00066804
-0.00995378
-0.0105705
-0.000792267
2.5988e-05
-0.00051206
8.27975e-05
-0.00149321
0.000148801
-0.00244956
0.000203437
-0.00330756
0.000233071
-0.00401534
0.000233444
-0.00456426
0.000207719
-0.00498426
0.00016248
-0.00532361
0.000104038
-0.00562782
3.64853e-05
-0.00592866
-3.79929e-05
-0.00624403
-0.000118655
-0.00658211
-0.000205798
-0.00694678
-0.000299386
-0.00734042
-0.000399858
-0.00776527
-0.000507444
-0.00822365
-0.000622437
-0.00871812
-0.000745137
-0.00925121
-0.000875862
-0.00982305
-0.0104316
-0.0010148
2.40486e-05
-0.000536109
7.45402e-05
-0.0015437
0.000129909
-0.00250492
0.000170898
-0.00334855
0.000185852
-0.0040303
0.000172234
-0.00455064
0.000134076
-0.0049461
7.79776e-05
-0.00526751
9.5979e-06
-0.00555944
-6.71352e-05
-0.00585193
-0.000150892
-0.00616028
-0.000241265
-0.00649173
-0.000338389
-0.00684966
-0.000442501
-0.0072363
-0.000553974
-0.00765379
-0.000673189
-0.00810444
-0.000800497
-0.00859082
-0.000936256
-0.00911545
-0.00108077
-0.00967854
-0.0102781
-0.00123422
2.18707e-05
-0.000557979
6.56598e-05
-0.00158749
0.000110199
-0.00254946
0.000137737
-0.00337609
0.000138565
-0.00403112
0.000111658
-0.00452373
6.17261e-05
-0.00489617
-4.81458e-06
-0.00520097
-8.24395e-05
-0.00548182
-0.000168432
-0.00576594
-0.000261478
-0.00606723
-0.000361415
-0.0063918
-0.000468466
-0.00674261
-0.000582983
-0.00712179
-0.00070538
-0.0075314
-0.000836108
-0.00797371
-0.000975601
-0.00845132
-0.00112429
-0.00896676
-0.00128246
-0.00952036
-0.0101104
-0.0014502
1.9486e-05
-0.000577465
5.62728e-05
-0.00162428
8.98986e-05
-0.00258309
0.000104257
-0.00339045
9.15033e-05
-0.00401837
5.19875e-05
-0.00448421
-9.05302e-06
-0.00483513
-8.53912e-05
-0.00512464
-0.000172358
-0.00539485
-0.000267374
-0.00567092
-0.000369581
-0.00596502
-0.000478973
-0.0062824
-0.000595867
-0.00662572
-0.00072068
-0.00699697
-0.000853881
-0.00739819
-0.000995983
-0.00783161
-0.00114751
-0.0082998
-0.00130898
-0.00880529
-0.00148064
-0.00934869
-0.00992859
-0.00166245
1.6931e-05
-0.000594396
4.64937e-05
-0.00165384
6.92256e-05
-0.00260582
7.07516e-05
-0.00339198
4.48694e-05
-0.00399249
-6.37807e-06
-0.00443297
-7.8112e-05
-0.0047634
-0.000164034
-0.00503871
-0.00025997
-0.00529891
-0.000363847
-0.00556704
-0.000475086
-0.00585378
-0.000593823
-0.00616367
-0.000720446
-0.00649909
-0.000855429
-0.00686199
-0.000999295
-0.00725433
-0.00115261
-0.00767829
-0.00131599
-0.00813642
-0.00149005
-0.00863123
-0.00167504
-0.0091637
-0.00973299
-0.00187064
1.42491e-05
-0.000608646
3.6429e-05
-0.00167602
4.8358e-05
-0.00261775
3.74829e-05
-0.0033811
1.28181e-07
-0.00395513
-6.34595e-05
-0.00436938
-0.000145416
-0.00468144
-0.000240521
-0.00494361
-0.000345184
-0.00519425
-0.000457758
-0.00545447
-0.000577896
-0.00573364
-0.000705849
-0.00603571
-0.000842067
-0.00636287
-0.000987076
-0.00671698
-0.00114145
-0.00709996
-0.0013058
-0.00751394
-0.00148082
-0.0079614
-0.00166726
-0.00844478
-0.00186537
-0.0089656
-0.00952385
-0.0020745
1.14529e-05
-0.000620098
2.61693e-05
-0.00169074
2.7453e-05
-0.00261903
4.98658e-06
-0.00335864
-4.57734e-05
-0.00390437
-0.000119339
-0.00429581
-0.000210814
-0.00458997
-0.000314755
-0.00483967
-0.000427922
-0.00508108
-0.000549023
-0.00533337
-0.000677913
-0.00560476
-0.000814935
-0.00589869
-0.000960598
-0.00621721
-0.00111547
-0.00656211
-0.00128017
-0.00693526
-0.00145535
-0.00733876
-0.0016418
-0.00777495
-0.0018404
-0.00824618
-0.0020514
-0.0087546
-0.00930151
-0.00227374
8.56362e-06
-0.000628662
1.58156e-05
-0.00169799
6.88155e-06
-0.0026101
-2.81998e-05
-0.00332355
-8.96413e-05
-0.00384293
-0.000173553
-0.0042119
-0.000274193
-0.00448933
-0.000386654
-0.00472721
-0.000508109
-0.00495963
-0.000637565
-0.00520391
-0.000775045
-0.00546728
-0.000920973
-0.00575276
-0.00107591
-0.00606228
-0.00124046
-0.00639756
-0.00141529
-0.00676043
-0.0016011
-0.00715295
-0.00179874
-0.00757732
-0.00200926
-0.00803566
-0.00223291
-0.00853095
-0.00906643
-0.002468
5.59585e-06
-0.000634258
5.36484e-06
-0.00169776
-1.41656e-05
-0.00259057
-6.02243e-05
-0.0032775
-0.000132359
-0.0037708
-0.000226037
-0.00411822
-0.000335475
-0.00437989
-0.000456162
-0.00460652
-0.000585683
-0.00483011
-0.000723309
-0.00506629
-0.0008692
-0.00532138
-0.00102385
-0.00559811
-0.00118787
-0.00589826
-0.00136192
-0.00622351
-0.00154667
-0.00657568
-0.00174286
-0.00695675
-0.00195144
-0.00736874
-0.00217362
-0.00781348
-0.00240965
-0.00829492
-0.00881914
-0.00265694
2.44777e-06
-0.000636706
-5.11195e-06
-0.0016902
-3.48319e-05
-0.00256085
-9.14472e-05
-0.00322088
-0.000173785
-0.00368846
-0.000276733
-0.00401527
-0.00039459
-0.00426203
-0.000523222
-0.00447789
-0.000660584
-0.00469275
-0.000806182
-0.00492069
-0.000960292
-0.00516727
-0.00112347
-0.00543493
-0.00129637
-0.00572535
-0.00147969
-0.0060402
-0.00167413
-0.00638124
-0.00188048
-0.00675041
-0.00209973
-0.00714949
-0.00233321
-0.00757999
-0.00258129
-0.00804685
-0.00855963
-0.00284079
-9.48455e-07
-0.000635757
-1.57304e-05
-0.00167542
-5.49283e-05
-0.00252165
-0.000121772
-0.00315404
-0.000213819
-0.00359641
-0.000325574
-0.00390352
-0.000451486
-0.00413612
-0.000587783
-0.00434159
-0.000732758
-0.00454777
-0.000886116
-0.00476733
-0.00104823
-0.00500516
-0.00121973
-0.00526344
-0.00140129
-0.0055438
-0.00159364
-0.00584784
-0.00179755
-0.00617733
-0.00201383
-0.00653413
-0.00224351
-0.00691981
-0.00248793
-0.00733557
-0.00274767
-0.00778711
-0.0082874
-0.00301991
-3.76613e-06
-0.000631991
-2.59846e-05
-0.0016532
-7.44981e-05
-0.00247314
-0.000151112
-0.00307742
-0.000252383
-0.00349514
-0.000372506
-0.0037834
-0.000506118
-0.00400251
-0.000649802
-0.00419791
-0.00080215
-0.00439542
-0.000963043
-0.00460644
-0.00113294
-0.00483525
-0.00131251
-0.00508387
-0.00150249
-0.00535382
-0.00170364
-0.00564669
-0.00191676
-0.0059642
-0.00214278
-0.00630812
-0.00238281
-0.00667978
-0.00263811
-0.00708028
-0.00290854
-0.00751668
-0.00800461
-0.00319133
-6.7922e-06
-0.000625199
-3.60057e-05
-0.00162399
-9.34864e-05
-0.00241566
-0.000179407
-0.0029915
-0.000289416
-0.00338513
-0.000417481
-0.00365533
-0.000558448
-0.00386154
-0.000709239
-0.00404711
-0.000868711
-0.00423595
-0.0010369
-0.00443825
-0.00121434
-0.00465782
-0.00140173
-0.00489647
-0.00159986
-0.0051557
-0.00180952
-0.00543703
-0.00203159
-0.00574213
-0.00226711
-0.0060726
-0.00251731
-0.00642957
-0.00278346
-0.00681413
-0.00306737
-0.00723276
-0.00772409
-0.00334789
-9.80602e-06
-0.000615393
-4.57786e-05
-0.00158801
-0.000111838
-0.0023496
-0.000206594
-0.00289675
-0.000324868
-0.00326686
-0.000460461
-0.00351974
-0.000608443
-0.00371356
-0.000766054
-0.0038895
-0.000932392
-0.00406961
-0.00110762
-0.00426302
-0.00129234
-0.0044731
-0.00148729
-0.00470152
-0.00169328
-0.0049497
-0.00191117
-0.00521915
-0.00214188
-0.00551142
-0.00238655
-0.00582793
-0.00264632
-0.0061698
-0.00292074
-0.00653971
-0.00320694
-0.00694656
-0.00738946