/*--------------------------------*- C++ -*----------------------------------*\
  =========                 |
  \\      /  F ield         | OpenFOAM: The Open Source CFD Toolbox
   \\    /   O peration     | Website:  https://openfoam.org
    \\  /    A nd           | Version:  7
     \\/     M anipulation  |
\*---------------------------------------------------------------------------*/
FoamFile
{
    version     2.0;
    format      ascii;
    class       surfaceScalarField;
    location    "17";
    object      phi;
}
// * * * * * * * * * * * * * * * * * * * * * * * * * * * * * * * * * * * * * //

dimensions      [0 3 -1 0 0 0 0];

internalField   nonuniform List<scalar> 
809
(
0.00200565
0.000158957
-0.000378291
-0.00804031
-0.000860756
-0.00652756
-0.00189104
-0.00495493
-0.00231825
-0.00360178
-0.00224658
-0.00257177
-0.00188116
-0.00184405
-0.00141581
-0.00135155
-0.000971767
-0.00103246
-0.0006011
-0.000828979
-0.00033036
-0.000701789
-0.000146592
-0.000625511
-2.6966e-05
-0.000584511
5.00996e-05
-0.000570282
0.000101965
-0.000577018
0.000138594
-0.000598808
0.00016449
-0.000632205
0.000184444
-0.00067513
0.000200755
-0.000725732
0.000213987
-0.00078435
0.000226569
-0.000849892
0.00023701
-0.000922246
0.000246396
-0.00100136
0.000254874
-0.00108717
0.000262506
-0.00117959
0.000269316
-0.0012785
0.00027532
-0.00138376
0.000280541
-0.00149523
0.00028502
-0.00161278
0.000288885
-0.00173634
0.000292837
-0.00186566
0.000298413
0.00030058
-0.00200065
-0.00799417
-0.00260609
-0.00596576
-0.00391946
-0.00400579
-0.00427822
-0.00237596
-0.00387641
-0.00120297
-0.00305415
-0.000485101
-0.00213368
-0.000123506
-0.00133336
-1.19515e-05
-0.000712654
-4.14327e-05
-0.000300879
-0.000133463
-5.45616e-05
-0.000241274
8.0844e-05
-0.000342638
0.000151465
-0.000429308
0.000188634
-0.000501549
0.000210835
-0.000564375
0.000227316
-0.00062211
0.000242179
-0.000679659
0.000258304
-0.000738819
0.000273147
-0.000800641
0.000288391
-0.000867364
0.000303734
-0.000939877
0.000318909
-0.00101867
0.000333669
-0.00110396
0.000347795
-0.00119578
0.000361132
-0.00129404
0.000373584
-0.00139862
0.000385125
-0.00150939
0.000395781
-0.0016262
0.0004057
-0.00174899
0.000415623
-0.00187747
0.000426895
0.000434725
-0.00201161
0.00268488
0.00258991
-0.00382448
0.00228002
-0.00396833
0.00189939
-0.00349578
0.00150989
-0.00266465
0.00112795
-0.00175173
0.000755247
-0.000960661
0.000419872
-0.000377279
0.000139654
-2.066e-05
-8.40082e-05
0.0001691
-0.000255809
0.000252645
-0.000384505
0.000280161
-0.000479386
0.000283516
-0.000551284
0.000282733
-0.000609321
0.000285353
-0.000661084
0.000293942
-0.000710693
0.000307913
-0.000763158
0.000325611
-0.000820464
0.000345697
-0.000883909
0.000367178
-0.000954079
0.000389079
-0.0010312
0.000410792
-0.00111527
0.000431862
-0.00120614
0.000451999
-0.0013036
0.00047105
-0.00140745
0.000488972
-0.00151748
0.000505815
-0.00163354
0.000521763
-0.00175553
0.000537613
-0.00188313
0.00055449
0.000567898
-0.0020163
0.00756408
-0.00156569
0.00528403
-0.00168827
0.00332795
-0.0015397
0.00184558
-0.00118228
0.000824105
-0.000730263
0.000184509
-0.000321064
-0.00017791
-1.48605e-05
-0.000374989
0.000176419
-0.000479249
0.000273361
-0.00053602
0.000309415
-0.000570923
0.000315063
-0.000598678
0.000311271
-0.000624674
0.000308729
-0.000651727
0.000312406
-0.000684271
0.000326486
-0.000723813
0.000347454
-0.000770917
0.000372715
-0.000825656
0.000400436
-0.000887941
0.000429464
-0.000957674
0.000458811
-0.00103464
0.000487762
-0.00111861
0.000515825
-0.0012093
0.000542696
-0.00130648
0.000568227
-0.00140991
0.000592402
-0.0015194
0.000615304
-0.0016348
0.000637164
-0.00175602
0.000658835
-0.00188271
0.000681176
0.000700048
-0.00201486
0.000809421
-0.000331904
-0.000546948
-0.00112255
-0.000749051
-0.00155872
-0.000746109
-0.00168597
-0.000603019
-0.00160696
-0.00040007
-0.00141768
-0.000204138
-0.00119845
-4.28192e-05
-0.000999607
7.45203e-05
-0.000844598
0.000154406
-0.000738376
0.000208841
-0.000674588
0.000247483
-0.000647806
0.000281947
-0.000650421
0.000315021
-0.000672774
0.00034884
-0.000709343
0.000384023
-0.000756943
0.000420315
-0.000813719
0.000457212
-0.000878443
0.000494188
-0.000950374
0.000530742
-0.00102905
0.000566441
-0.00111417
0.000600948
-0.00120552
0.000634044
-0.00130293
0.000665629
-0.00140624
0.000695715
-0.00151534
0.000724409
-0.00163015
0.000751973
-0.00175061
0.000779295
-0.00187635
0.000806917
0.000831122
-0.00200743
-0.00507891
-0.00372706
-0.0021009
-0.00266539
-0.00180777
-0.00189013
-0.00137828
-0.00135252
-0.000937682
-0.00100048
-0.000556176
-0.000776149
-0.000267156
-0.000638068
-6.35608e-05
-0.000558805
7.51436e-05
-0.000520766
0.000170802
-0.000515977
0.000242694
-0.000534591
0.000300562
-0.000568507
0.000348936
-0.000612721
0.000393053
-0.000665123
0.000436426
-0.000724263
0.000479455
-0.000789328
0.000522276
-0.000859919
0.000564779
-0.000935889
0.000606711
-0.00101723
0.000647777
-0.00110398
0.000687698
-0.00119619
0.000726257
-0.00129389
0.000763335
-0.0013971
0.000798918
-0.00150579
0.000833098
-0.00161995
0.000866132
-0.00173957
0.00089892
-0.00186428
0.000931628
0.000961032
-0.00199419
-0.00253714
-0.00376429
-0.00129044
-0.00305448
-0.000488193
-0.00218052
-5.0483e-05
-0.00137539
0.000113997
-0.000720655
0.000113312
-0.000266471
3.10756e-05
1.86758e-05
-8.13871e-05
0.000187606
-0.000198219
0.000287634
-0.00030419
0.000348665
-0.000396122
0.000392494
-0.000477403
0.000430217
-0.000552605
0.000468256
-0.000624453
0.000508274
-0.0006955
0.000550503
-0.000767716
0.000594492
-0.000842508
0.000639572
-0.000920873
0.000685077
-0.00100349
0.000730398
-0.00109082
0.000775024
-0.00118313
0.000818571
-0.0012806
0.000860803
-0.00138331
0.000901628
-0.00149131
0.000941092
-0.0016046
0.000979429
-0.00172322
0.00101754
-0.00184676
0.00105516
0.00108965
-0.00197537
0.001795
0.00147603
-0.00273552
0.00116729
-0.00187178
0.000855193
-0.00106329
0.0005603
-0.000425762
0.00030063
-6.80095e-06
8.57324e-05
0.000233574
-8.76995e-05
0.000361038
-0.000222697
0.000422632
-0.000329064
0.000455031
-0.000415678
0.000479109
-0.000490448
0.000504987
-0.000558731
0.000536539
-0.000624636
0.000574178
-0.000690983
0.000616849
-0.000759647
0.000663156
-0.00083185
0.000711775
-0.000908344
0.000761571
-0.000989573
0.000811627
-0.00107579
0.000861237
-0.00116712
0.000909903
-0.00126363
0.000957317
-0.00136536
0.00100335
-0.0014723
0.00104803
-0.00158446
0.00109159
-0.00170186
0.00113493
-0.00182403
0.00117734
0.00121682
-0.00195121
0.00207285
0.00101362
-0.000812546
0.000349522
-0.000399196
-2.36273e-05
-5.26128e-05
-0.000223238
0.00019281
-0.000332262
0.000342598
-0.000392013
0.000420789
-0.00042827
0.000458889
-0.000458851
0.000485612
-0.000491854
0.000512112
-0.000530455
0.000543587
-0.000575421
0.000581506
-0.000626837
0.000625594
-0.000684466
0.000674478
-0.000748006
0.000726697
-0.000817197
0.000780965
-0.000891831
0.000836205
-0.000971762
0.000891558
-0.0010569
0.000946374
-0.00114719
0.0010002
-0.00124262
0.00105274
-0.00134317
0.00110391
-0.00144886
0.00115372
-0.00155969
0.00120242
-0.00167566
0.00125091
-0.00179631
0.00129798
-0.00192191
-0.00145831
-0.0014247
-0.00126419
-0.000213123
-0.00105414
-1.72351e-05
-0.000855587
0.000144045
-0.000700947
0.000266149
-0.000599833
0.000357775
-0.000544787
0.000430566
-0.000526274
0.000493599
-0.000535347
0.00055266
-0.000564657
0.000610816
-0.000608551
0.000669489
-0.000663114
0.00072904
-0.000725756
0.00078934
-0.000794869
0.000850079
-0.000869531
0.000910867
-0.000949269
0.000971296
-0.00103389
0.00103099
-0.00112334
0.00108965
-0.00121766
0.00114707
-0.00131691
0.00120316
-0.00142115
-0.00153044
-0.0016448
-0.000771734
-0.000580673
-0.000208296
-0.000472164
3.55352e-05
-0.000417819
0.000211804
-0.000399401
0.000339358
-0.00040527
0.000436434
-0.00042901
0.000517339
-0.000466281
0.000589931
-0.000513969
0.000658505
-0.000569569
0.000725089
-0.000631342
0.000790813
-0.000698189
0.000856187
-0.000769472
0.000921363
-0.000844919
0.000986313
-0.000924494
0.00105087
-0.00100831
-0.00109653
-0.00118934
0.000215621
0.000112083
0.000139073
-1.03805e-05
0.000334268
-0.00012715
0.000456127
-0.000230684
0.000539969
-0.000320616
0.000607271
-0.000399905
0.00066922
-0.000472255
0.000730855
-0.000541089
0.000793923
-0.000609058
0.000858781
-0.000677889
0.000925018
-0.000748844
-0.000822784
-5.4836e-05
-0.000171398
0.00045083
-0.000262318
0.000547048
-0.00033538
0.000613031
-0.000396884
0.000668774
-0.000452055
0.000724391
-0.000504913
-0.000558317
-0.000613992
-0.00048443
-0.000475474
-0.000473262
-0.000481599
0.00353612
5.55223e-05
0.00349626
-0.000335081
-0.000699359
0.00354602
4.50399e-05
0.00351486
-0.00030392
0.00344708
-0.000631581
0.00334328
-0.000976517
0.00320364
-0.00133154
0.00302385
-0.00174145
0.00280605
-0.00216907
0.0025435
-0.0026464
0.00224396
-0.00316724
-0.00354967
0.00355485
2.57276e-05
0.00353144
-0.000280513
0.00347045
-0.000570597
0.0033724
-0.000878461
0.0032377
-0.00119684
0.00306178
-0.00156553
0.00284624
-0.00195352
0.00258478
-0.00238493
0.0022814
-0.00286386
-0.00321948
0.00356259
-1.32707e-06
0.00354598
-0.000263903
0.00349092
-0.000515538
0.00339786
-0.000785405
0.0032674
-0.00106637
0.00309476
-0.00139289
0.00288092
-0.00173968
0.00262013
-0.00212415
0.00231306
-0.0025568
-0.00288179
0.00356923
-3.50222e-05
0.00355844
-0.000253113
0.00350845
-0.000465545
0.00341962
-0.000696581
0.00329267
-0.000939424
0.0031227
-0.00122292
0.00291001
-0.00152699
0.00264942
-0.00186356
0.00233875
-0.00224613
-0.00253723
0.00357476
-7.42442e-05
0.0035688
-0.000247153
0.003523
-0.000419746
0.00343762
-0.000611204
0.00331347
-0.000815277
0.00314554
-0.00105499
0.00293345
-0.00131489
0.00267254
-0.00160266
0.00235831
-0.0019319
-0.00218634
0.00357916
-0.00011787
0.00357704
-0.000245031
0.00353455
-0.000377255
0.00345183
-0.000528484
0.00332975
-0.000693202
0.00316321
-0.000888443
0.00295118
-0.00110287
0.00268943
-0.00134091
0.00237161
-0.00161408
-0.00182959
0.00358243
-0.000164769
0.00358315
-0.000245746
0.00354306
-0.000337167
0.00346222
-0.000447647
0.00334149
-0.000572468
0.00317566
-0.00072261
0.00296318
-0.000890388
0.00270005
-0.00107778
0.00237856
-0.00129259
-0.00146733
0.00358457
-0.000213807
0.00358712
-0.00024829
0.00354853
-0.000298581
0.00346878
-0.000367898
0.00334868
-0.000452368
0.00318288
-0.000556811
0.00296943
-0.000676935
0.0027044
-0.000812755
0.00237912
-0.000967308
-0.00109983
0.00358557
0.00358893
0.00355095
0.00347149
0.00335129
0.00318487
0.00296994
0.00270249
0.00237337
)
;

boundaryField
{
    inlet
    {
        type            calculated;
        value           nonuniform List<scalar> 10(-0.00353553 -0.00353553 -0.00353553 -0.00353553 -0.00353553 -0.00353553 -0.00353553 -0.00353553 -0.00353553 -0.00353553);
    }
    outlet
    {
        type            calculated;
        value           nonuniform 0();
    }
    cylinder
    {
        type            calculated;
        value           nonuniform 0();
    }
    top
    {
        type            symmetryPlane;
        value           nonuniform 0();
    }
    bottom
    {
        type            symmetryPlane;
        value           nonuniform 0();
    }
    defaultFaces
    {
        type            empty;
        value           nonuniform 0();
    }
    procBoundary12to6
    {
        type            processor;
        value           nonuniform List<scalar> 
35
(
0.00134242
0.00125796
0.0013117
0.00136528
-0.00176376
0.00141694
0.0011148
0.00117787
0.00123988
-0.00128692
0.00130074
0.000992318
0.00106025
-0.000900302
0.00112839
0.000783714
0.000847327
0.000914456
-0.000673231
0.000984257
0.000610818
0.000677112
-0.000500648
0.000743438
-5.61039e-05
0.000374936
0.000774763
0.00342085
0.00108032
0.00147117
0.00192124
0.00238687
0.00290895
0.00346679
0.00387172
)
;
    }
    procBoundary12to13
    {
        type            processor;
        value           nonuniform List<scalar> 
26
(
0.00906002
0.00973951
-0.00235113
-0.00293984
-0.00982288
-0.00225196
-0.000123153
0.0065955
-0.00206354
0.00420053
-0.00212445
-0.00343484
-0.00360104
-0.00120733
0.00127228
-0.000626519
-0.000432809
0.00108548
-0.000526868
-0.000249718
-0.000174198
-9.84937e-05
0.000292403
0.000487836
0.000447424
0.000538092
)
;
    }
    procBoundary12to18
    {
        type            processor;
        value           nonuniform List<scalar> 
42
(
0.00138774
0.00172587
0.000658071
0.000745625
0.000893427
0.00085115
0.000688093
0.000479267
0.000282004
0.00012688
1.94017e-05
-4.93122e-05
-9.10989e-05
-0.000116195
-0.000131858
-0.000142699
-0.000151047
-0.00015783
-0.000163385
-0.00016795
-0.000171469
-0.000174043
-0.000175763
-0.000176694
-0.000176894
-0.000176409
-0.000175281
-0.000173551
-0.000171331
-0.00016928
-0.000169097
-0.000165583
-0.000263841
-0.000251659
-0.000260593
-0.000288441
-0.000332167
-0.000390389
-0.000462007
-0.000545305
-0.000638185
-0.000727115
)
;
    }
    procBoundary12to19
    {
        type            processor;
        value           uniform -0.00355235;
    }
}


// ************************************************************************* //
