0.196868 	0.467027 	-1.99081e-18 	1.08768 	-0.0402244 	2.27902e-17
0.199422 	0.473085 	-1.24496e-18 	1.01616 	-0.0359912 	5.88728e-17
0.201397 	0.477771 	-8.97388e-19 	1.00722 	-0.0333032 	1.16251e-16
0.204769 	0.485771 	-1.30994e-18 	0.760885 	-0.0194788 	1.05782e-16
0.208372 	0.494318 	-1.27296e-18 	0.26434 	-0.000330799 	1.72572e-16
0.210348 	0.499004 	-1.04187e-18 	0.255191 	0.000254547 	1.27862e-16
