/*--------------------------------*- C++ -*----------------------------------*\
  =========                 |
  \\      /  F ield         | OpenFOAM: The Open Source CFD Toolbox
   \\    /   O peration     | Website:  https://openfoam.org
    \\  /    A nd           | Version:  7
     \\/     M anipulation  |
\*---------------------------------------------------------------------------*/
FoamFile
{
    version     2.0;
    format      ascii;
    class       surfaceScalarField;
    location    "1.6";
    object      phi;
}
// * * * * * * * * * * * * * * * * * * * * * * * * * * * * * * * * * * * * * //

dimensions      [0 3 -1 0 0 0 0];

internalField   nonuniform List<scalar> 
32582
(
1.08047e-05
-7.80432e-09
1.08277e-05
-2.3036e-08
1.0866e-05
-3.82765e-08
1.0919e-05
-5.30191e-08
1.09859e-05
-6.694e-08
1.10658e-05
-7.98914e-08
1.11576e-05
-9.17369e-08
1.12599e-05
-1.02361e-07
1.13716e-05
-1.11698e-07
1.14913e-05
-1.19724e-07
1.16178e-05
-1.26458e-07
1.17497e-05
-1.31945e-07
1.1886e-05
-1.36256e-07
1.20255e-05
-1.3948e-07
1.21672e-05
-1.41717e-07
1.23103e-05
-1.43072e-07
1.24539e-05
-1.43652e-07
1.25975e-05
-1.43561e-07
1.27404e-05
-1.429e-07
1.28821e-05
-1.41762e-07
1.30224e-05
-1.40231e-07
1.31608e-05
-1.38385e-07
1.3297e-05
-1.36291e-07
1.34311e-05
-1.34009e-07
1.35626e-05
-1.3159e-07
1.36917e-05
-1.29078e-07
1.38182e-05
-1.2651e-07
1.39421e-05
-1.23917e-07
1.40635e-05
-1.21323e-07
1.41822e-05
-1.18749e-07
1.42984e-05
-1.16212e-07
1.44122e-05
-1.13722e-07
1.45234e-05
-1.1129e-07
1.46324e-05
-1.08922e-07
1.4739e-05
-1.06623e-07
1.48434e-05
-1.04395e-07
1.49456e-05
-1.0224e-07
1.50458e-05
-1.00157e-07
1.51439e-05
-9.81458e-08
1.52401e-05
-9.6205e-08
1.53345e-05
-9.43322e-08
1.5427e-05
-9.2525e-08
1.55178e-05
-9.07806e-08
1.56069e-05
-8.90961e-08
1.56943e-05
-8.74684e-08
1.57802e-05
-8.58945e-08
1.58646e-05
-8.43714e-08
1.59475e-05
-8.2896e-08
1.6029e-05
-8.14656e-08
1.6109e-05
-8.00772e-08
1.61878e-05
-7.87283e-08
1.62652e-05
-7.74163e-08
1.63413e-05
-7.61388e-08
1.64162e-05
-7.48936e-08
1.64899e-05
-7.36784e-08
1.65624e-05
-7.24913e-08
1.66337e-05
-7.13303e-08
1.67039e-05
-7.01936e-08
1.6773e-05
-6.90795e-08
1.6841e-05
-6.79863e-08
1.69079e-05
-6.69125e-08
1.69737e-05
-6.58565e-08
1.70386e-05
-6.4817e-08
1.71024e-05
-6.37924e-08
1.71651e-05
-6.27815e-08
1.72269e-05
-6.17827e-08
1.72877e-05
-6.07949e-08
1.73475e-05
-5.98166e-08
1.74064e-05
-5.88465e-08
1.74643e-05
-5.78833e-08
1.75212e-05
-5.69256e-08
1.75772e-05
-5.59721e-08
1.76322e-05
-5.50215e-08
1.76862e-05
-5.40725e-08
1.77394e-05
-5.31237e-08
1.77915e-05
-5.21738e-08
1.78428e-05
-5.12217e-08
1.7893e-05
-5.0266e-08
1.79423e-05
-4.93057e-08
1.79907e-05
-4.83397e-08
1.8038e-05
-4.7367e-08
1.80844e-05
-4.63867e-08
1.81298e-05
-4.53982e-08
1.81742e-05
-4.44008e-08
1.82176e-05
-4.33941e-08
1.826e-05
-4.23779e-08
1.83014e-05
-4.13519e-08
1.83417e-05
-4.03163e-08
1.83809e-05
-3.92712e-08
1.84192e-05
-3.82169e-08
1.84563e-05
-3.71538e-08
1.84924e-05
-3.60825e-08
1.85274e-05
-3.50035e-08
1.85613e-05
-3.39173e-08
1.85941e-05
-3.28246e-08
1.86259e-05
-3.17259e-08
1.86565e-05
-3.06215e-08
1.8686e-05
-2.9512e-08
1.87144e-05
-2.83974e-08
1.87417e-05
-2.72782e-08
1.87678e-05
-2.61544e-08
1.87929e-05
-2.50263e-08
1.88168e-05
-2.3894e-08
1.88395e-05
-2.27579e-08
1.88611e-05
-2.16186e-08
1.88816e-05
-2.04769e-08
1.89009e-05
-1.9334e-08
1.89191e-05
-1.81917e-08
1.89362e-05
-1.7052e-08
1.89521e-05
-1.59176e-08
1.89669e-05
-1.4792e-08
1.89806e-05
-1.36788e-08
1.89932e-05
-1.25826e-08
1.90047e-05
-1.1508e-08
1.90151e-05
-1.04601e-08
1.90246e-05
-9.44433e-09
1.9033e-05
-8.46591e-09
1.90406e-05
-7.53004e-09
1.90472e-05
-6.6416e-09
1.9053e-05
-5.80496e-09
1.9058e-05
-5.02387e-09
1.90623e-05
-4.3013e-09
1.9066e-05
-3.63935e-09
1.9069e-05
-3.0392e-09
1.90715e-05
-2.50107e-09
1.90735e-05
-2.02424e-09
1.90751e-05
-1.6071e-09
1.90764e-05
-1.24725e-09
1.90773e-05
-9.41606e-10
1.9078e-05
-6.86523e-10
1.90785e-05
-4.7796e-10
1.90788e-05
-3.11618e-10
1.9079e-05
-1.83094e-10
1.90791e-05
-8.80185e-11
1.90791e-05
-2.21824e-11
1.90791e-05
1.84116e-11
1.9079e-05
3.73156e-11
1.9079e-05
3.77363e-11
1.9079e-05
2.23984e-11
1.9079e-05
-6.47126e-12
1.9079e-05
-4.71861e-11
1.90791e-05
-9.85214e-11
1.90793e-05
-1.598e-10
1.90795e-05
-2.30854e-10
1.90798e-05
-3.12017e-10
1.90802e-05
-4.0412e-10
1.90808e-05
-5.08492e-10
1.90814e-05
-6.26971e-10
1.90821e-05
-7.61925e-10
1.90831e-05
-9.16284e-10
1.90842e-05
-1.09359e-09
1.90855e-05
-1.29805e-09
1.9087e-05
-1.53464e-09
1.90888e-05
-1.80921e-09
1.90909e-05
-2.12857e-09
1.90934e-05
-2.5007e-09
1.90964e-05
-2.93491e-09
1.90998e-05
-3.44206e-09
1.91038e-05
-4.03484e-09
1.91086e-05
-4.72801e-09
1.91141e-05
-5.53883e-09
1.91206e-05
-6.48742e-09
1.91282e-05
-7.59725e-09
1.91371e-05
-8.89568e-09
1.91475e-05
-1.04146e-08
1.91597e-05
-1.21911e-08
1.9174e-05
-1.42684e-08
1.91907e-05
-1.66967e-08
1.92102e-05
-1.95342e-08
1.9233e-05
-2.28485e-08
1.92598e-05
-2.67176e-08
1.9291e-05
-3.12314e-08
1.93275e-05
-3.64937e-08
1.93701e-05
-4.26229e-08
1.94199e-05
-4.97548e-08
1.94779e-05
-5.8043e-08
1.95456e-05
-6.76612e-08
1.96244e-05
-7.88039e-08
1.97161e-05
-9.16867e-08
1.98226e-05
-1.06546e-07
1.99462e-05
-1.23637e-07
2.00895e-05
-1.4323e-07
2.02551e-05
-1.65603e-07
2.04461e-05
-1.91031e-07
2.06659e-05
-2.19772e-07
2.09179e-05
-2.52046e-07
2.12059e-05
-2.88006e-07
2.15336e-05
-3.27702e-07
2.19047e-05
-3.71039e-07
2.23224e-05
-4.17726e-07
2.27896e-05
-4.67218e-07
2.33083e-05
-5.18671e-07
2.38792e-05
-5.70881e-07
2.45014e-05
-6.22277e-07
2.51723e-05
-6.7091e-07
2.58869e-05
-7.14534e-07
2.66376e-05
-7.507e-07
2.74146e-05
-7.76969e-07
2.82057e-05
-7.9116e-07
-7.91618e-07
2.89973e-05
3.24138e-05
-3.10288e-08
3.24837e-05
-9.30145e-08
3.25996e-05
-1.54178e-07
3.27599e-05
-2.13288e-07
3.29622e-05
-2.69253e-07
3.32036e-05
-3.21302e-07
3.34807e-05
-3.68842e-07
3.37898e-05
-4.11433e-07
3.41269e-05
-4.48816e-07
3.44881e-05
-4.80912e-07
3.48695e-05
-5.07794e-07
3.52672e-05
-5.29656e-07
3.56777e-05
-5.46794e-07
3.60978e-05
-5.59568e-07
3.65245e-05
-5.68385e-07
3.69551e-05
-5.73672e-07
3.73873e-05
-5.75862e-07
3.78191e-05
-5.75376e-07
3.82488e-05
-5.72616e-07
3.8675e-05
-5.67955e-07
3.90965e-05
-5.61734e-07
3.95124e-05
-5.54259e-07
3.99219e-05
-5.45801e-07
4.03245e-05
-5.36598e-07
4.07197e-05
-5.26855e-07
4.11074e-05
-5.16745e-07
4.14873e-05
-5.06415e-07
4.18594e-05
-4.95986e-07
4.22236e-05
-4.85558e-07
4.25801e-05
-4.75211e-07
4.29289e-05
-4.65009e-07
4.32701e-05
-4.54999e-07
4.36041e-05
-4.4522e-07
4.39308e-05
-4.35696e-07
4.42507e-05
-4.26446e-07
4.45638e-05
-4.1748e-07
4.48703e-05
-4.08803e-07
4.51706e-05
-4.00416e-07
4.54647e-05
-3.92315e-07
4.5753e-05
-3.84494e-07
4.60357e-05
-3.76944e-07
4.63128e-05
-3.69657e-07
4.65846e-05
-3.6262e-07
4.68513e-05
-3.55823e-07
4.71131e-05
-3.49253e-07
4.73701e-05
-3.42899e-07
4.76225e-05
-3.36749e-07
4.78704e-05
-3.30791e-07
4.8114e-05
-3.25013e-07
4.83533e-05
-3.19404e-07
4.85885e-05
-3.13955e-07
4.88197e-05
-3.08655e-07
4.90471e-05
-3.03494e-07
4.92707e-05
-2.98464e-07
4.94906e-05
-2.93557e-07
4.97068e-05
-2.88763e-07
4.99196e-05
-2.84075e-07
5.01289e-05
-2.79487e-07
5.03348e-05
-2.74991e-07
5.05374e-05
-2.70581e-07
5.07367e-05
-2.66251e-07
5.09328e-05
-2.61994e-07
5.11258e-05
-2.57805e-07
5.13157e-05
-2.53678e-07
5.15025e-05
-2.49607e-07
5.16864e-05
-2.45587e-07
5.18672e-05
-2.41613e-07
5.2045e-05
-2.37679e-07
5.222e-05
-2.3378e-07
5.2392e-05
-2.2991e-07
5.25611e-05
-2.26065e-07
5.27274e-05
-2.22238e-07
5.28908e-05
-2.18424e-07
5.30513e-05
-2.14618e-07
5.3209e-05
-2.10815e-07
5.33639e-05
-2.0701e-07
5.35158e-05
-2.03197e-07
5.3665e-05
-1.99372e-07
5.38112e-05
-1.95529e-07
5.39545e-05
-1.91665e-07
5.40949e-05
-1.87776e-07
5.42324e-05
-1.83858e-07
5.43669e-05
-1.79909e-07
5.44984e-05
-1.75925e-07
5.46269e-05
-1.71905e-07
5.47524e-05
-1.67848e-07
5.48748e-05
-1.63754e-07
5.49941e-05
-1.59622e-07
5.51103e-05
-1.55452e-07
5.52233e-05
-1.51248e-07
5.53332e-05
-1.47009e-07
5.54398e-05
-1.42738e-07
5.55433e-05
-1.38437e-07
5.56435e-05
-1.34109e-07
5.57404e-05
-1.29755e-07
5.5834e-05
-1.25377e-07
5.59244e-05
-1.20979e-07
5.60114e-05
-1.1656e-07
5.60952e-05
-1.12123e-07
5.61756e-05
-1.07668e-07
5.62526e-05
-1.03196e-07
5.63263e-05
-9.8708e-08
5.63966e-05
-9.42053e-08
5.64635e-05
-8.96893e-08
5.65271e-05
-8.51625e-08
5.65872e-05
-8.06286e-08
5.6644e-05
-7.60924e-08
5.66973e-05
-7.15609e-08
5.67473e-05
-6.70429e-08
5.6794e-05
-6.25493e-08
5.68373e-05
-5.80933e-08
5.68773e-05
-5.36902e-08
5.69141e-05
-4.93572e-08
5.69477e-05
-4.51132e-08
5.69782e-05
-4.09784e-08
5.70057e-05
-3.69735e-08
5.70304e-05
-3.31193e-08
5.70523e-05
-2.94359e-08
5.70716e-05
-2.59423e-08
5.70884e-05
-2.26554e-08
5.7103e-05
-1.95894e-08
5.71154e-05
-1.67558e-08
5.7126e-05
-1.41623e-08
5.71347e-05
-1.18132e-08
5.71419e-05
-9.70892e-09
5.71478e-05
-7.84624e-09
5.71524e-05
-6.21848e-09
5.71559e-05
-4.8159e-09
5.71586e-05
-3.62606e-09
5.71606e-05
-2.63446e-09
5.71619e-05
-1.82502e-09
5.71628e-05
-1.18073e-09
5.71633e-05
-6.84215e-10
5.71635e-05
-3.18262e-10
5.71636e-05
-6.63022e-11
5.71635e-05
8.71768e-11
5.71634e-05
1.56267e-10
5.71633e-05
1.53407e-10
5.71632e-05
8.92114e-11
5.71632e-05
-2.7658e-11
5.71634e-05
-1.90751e-10
5.71637e-05
-3.95281e-10
5.71641e-05
-6.38739e-10
5.71648e-05
-9.20576e-10
5.71658e-05
-1.24221e-09
5.7167e-05
-1.60702e-09
5.71685e-05
-2.02033e-09
5.71703e-05
-2.4895e-09
5.71726e-05
-3.02393e-09
5.71753e-05
-3.63529e-09
5.71786e-05
-4.33762e-09
5.71824e-05
-5.14764e-09
5.7187e-05
-6.08507e-09
5.71923e-05
-7.17306e-09
5.71986e-05
-8.43867e-09
5.7206e-05
-9.91352e-09
5.72147e-05
-1.16345e-08
5.7225e-05
-1.36447e-08
5.72369e-05
-1.59944e-08
5.72509e-05
-1.87422e-08
5.72673e-05
-2.19564e-08
5.72866e-05
-2.57169e-08
5.73091e-05
-3.01167e-08
5.73355e-05
-3.52645e-08
5.73663e-05
-4.12865e-08
5.74025e-05
-4.83303e-08
5.74448e-05
-5.65671e-08
5.74943e-05
-6.61963e-08
5.75522e-05
-7.74491e-08
5.76199e-05
-9.05936e-08
5.76992e-05
-1.0594e-07
5.77918e-05
-1.23846e-07
5.79e-05
-1.44724e-07
5.80264e-05
-1.69045e-07
5.8174e-05
-1.97351e-07
5.83462e-05
-2.30253e-07
5.8547e-05
-2.68445e-07
5.87809e-05
-3.12705e-07
5.90531e-05
-3.63895e-07
5.93695e-05
-4.22965e-07
5.97368e-05
-4.90941e-07
6.01625e-05
-5.68913e-07
6.06549e-05
-6.58008e-07
6.12232e-05
-7.5935e-07
6.18775e-05
-8.74003e-07
6.26283e-05
-1.00288e-06
6.3487e-05
-1.14666e-06
6.44649e-05
-1.30559e-06
6.55732e-05
-1.47938e-06
6.68224e-05
-1.66692e-06
6.82213e-05
-1.86614e-06
6.97763e-05
-2.0737e-06
7.14903e-05
-2.28481e-06
7.33612e-05
-2.49319e-06
7.53812e-05
-2.69091e-06
7.75355e-05
-2.86882e-06
7.98016e-05
-3.01681e-06
8.21494e-05
-3.12474e-06
8.45417e-05
-3.18351e-06
-3.18607e-06
8.69361e-05
5.40236e-05
-7.04394e-08
5.41423e-05
-2.11681e-07
5.43389e-05
-3.50774e-07
5.46106e-05
-4.85e-07
5.49534e-05
-6.12035e-07
5.53622e-05
-7.30058e-07
5.5831e-05
-8.37673e-07
5.63535e-05
-9.33896e-07
5.69228e-05
-1.01817e-06
5.75322e-05
-1.09034e-06
5.81751e-05
-1.15061e-06
5.88449e-05
-1.19946e-06
5.95356e-05
-1.23758e-06
6.02419e-05
-1.26582e-06
6.09586e-05
-1.28513e-06
6.16815e-05
-1.29648e-06
6.24065e-05
-1.30088e-06
6.31304e-05
-1.29927e-06
6.38503e-05
-1.29258e-06
6.4564e-05
-1.28165e-06
6.52695e-05
-1.26724e-06
6.59653e-05
-1.25005e-06
6.66502e-05
-1.23068e-06
6.73233e-05
-1.20966e-06
6.79839e-05
-1.18744e-06
6.86315e-05
-1.16443e-06
6.92661e-05
-1.14093e-06
6.98873e-05
-1.11722e-06
7.04953e-05
-1.09353e-06
7.10901e-05
-1.07002e-06
7.16719e-05
-1.04683e-06
7.2241e-05
-1.02409e-06
7.27976e-05
-1.00186e-06
7.33421e-05
-9.80199e-07
7.38748e-05
-9.59155e-07
7.43961e-05
-9.38747e-07
7.49063e-05
-9.18988e-07
7.54057e-05
-8.99876e-07
7.58948e-05
-8.81407e-07
7.63739e-05
-8.63565e-07
7.68433e-05
-8.46333e-07
7.73033e-05
-8.2969e-07
7.77543e-05
-8.13612e-07
7.81966e-05
-7.98075e-07
7.86304e-05
-7.83051e-07
7.9056e-05
-7.68515e-07
7.94737e-05
-7.5444e-07
7.98837e-05
-7.40802e-07
8.02862e-05
-7.27575e-07
8.06816e-05
-7.14735e-07
8.10699e-05
-7.02259e-07
8.14513e-05
-6.90125e-07
8.18262e-05
-6.78312e-07
8.21945e-05
-6.668e-07
8.25565e-05
-6.55571e-07
8.29124e-05
-6.44606e-07
8.32622e-05
-6.33889e-07
8.36061e-05
-6.23404e-07
8.39442e-05
-6.13135e-07
8.42767e-05
-6.03067e-07
8.46037e-05
-5.93187e-07
8.49251e-05
-5.83481e-07
8.52413e-05
-5.73937e-07
8.55521e-05
-5.6454e-07
8.58578e-05
-5.55279e-07
8.61584e-05
-5.46141e-07
8.64539e-05
-5.37113e-07
8.67444e-05
-5.28185e-07
8.70299e-05
-5.19342e-07
8.73106e-05
-5.10574e-07
8.75864e-05
-5.01868e-07
8.78574e-05
-4.93211e-07
8.81235e-05
-4.84591e-07
8.83849e-05
-4.75997e-07
8.86415e-05
-4.67415e-07
8.88933e-05
-4.58835e-07
8.91404e-05
-4.50244e-07
8.93826e-05
-4.41631e-07
8.96201e-05
-4.32987e-07
8.98527e-05
-4.243e-07
9.00805e-05
-4.15562e-07
9.03034e-05
-4.06764e-07
9.05214e-05
-3.97901e-07
9.07345e-05
-3.88966e-07
9.09425e-05
-3.79955e-07
9.11455e-05
-3.70865e-07
9.13435e-05
-3.61695e-07
9.15363e-05
-3.52445e-07
9.1724e-05
-3.43116e-07
9.19064e-05
-3.3371e-07
9.20836e-05
-3.24231e-07
9.22556e-05
-3.14684e-07
9.24222e-05
-3.05073e-07
9.25835e-05
-2.95403e-07
9.27394e-05
-2.8568e-07
9.289e-05
-2.75907e-07
9.30351e-05
-2.6609e-07
9.31748e-05
-2.56232e-07
9.3309e-05
-2.46336e-07
9.34377e-05
-2.36406e-07
9.3561e-05
-2.26443e-07
9.36787e-05
-2.16449e-07
9.37909e-05
-2.0643e-07
9.38976e-05
-1.96388e-07
9.39988e-05
-1.8633e-07
9.40944e-05
-1.76265e-07
9.41845e-05
-1.66205e-07
9.42691e-05
-1.56167e-07
9.43483e-05
-1.4617e-07
9.4422e-05
-1.36239e-07
9.44903e-05
-1.26404e-07
9.45533e-05
-1.16699e-07
9.46111e-05
-1.07162e-07
9.46638e-05
-9.78352e-08
9.47116e-05
-8.87616e-08
9.47546e-05
-7.99865e-08
9.4793e-05
-7.15548e-08
9.48271e-05
-6.35096e-08
9.48571e-05
-5.58911e-08
9.48831e-05
-4.87349e-08
9.49056e-05
-4.20708e-08
9.49248e-05
-3.59218e-08
9.49409e-05
-3.03036e-08
9.49543e-05
-2.52236e-08
9.49653e-05
-2.06811e-08
9.49741e-05
-1.66676e-08
9.49811e-05
-1.31672e-08
9.49864e-05
-1.01572e-08
9.49904e-05
-7.60972e-09
9.49933e-05
-5.49211e-09
9.49952e-05
-3.76874e-09
9.49964e-05
-2.40208e-09
9.49971e-05
-1.35399e-09
9.49974e-05
-5.86865e-10
9.49974e-05
-6.4626e-11
9.49972e-05
2.46303e-10
9.4997e-05
3.76423e-10
9.49968e-05
3.52483e-10
9.49967e-05
1.97235e-10
9.49967e-05
-7.08881e-11
9.4997e-05
-4.38324e-10
9.49975e-05
-8.95e-10
9.49983e-05
-1.43594e-09
9.49994e-05
-2.0604e-09
9.50009e-05
-2.7719e-09
9.50029e-05
-3.57823e-09
9.50054e-05
-4.49148e-09
9.50084e-05
-5.52811e-09
9.50121e-05
-6.70913e-09
9.50165e-05
-8.06044e-09
9.50218e-05
-9.61323e-09
9.50281e-05
-1.14046e-08
9.50355e-05
-1.34781e-08
9.50442e-05
-1.58852e-08
9.50544e-05
-1.86857e-08
9.50664e-05
-2.19497e-08
9.50806e-05
-2.57588e-08
9.50971e-05
-3.02085e-08
9.51165e-05
-3.541e-08
9.51393e-05
-4.14931e-08
9.5166e-05
-4.86093e-08
9.51972e-05
-5.69355e-08
9.52337e-05
-6.66778e-08
9.52765e-05
-7.80769e-08
9.53267e-05
-9.14132e-08
9.53854e-05
-1.07013e-07
9.5454e-05
-1.25258e-07
9.55344e-05
-1.46588e-07
9.56285e-05
-1.71519e-07
9.57386e-05
-2.00645e-07
9.58673e-05
-2.34656e-07
9.60178e-05
-2.74348e-07
9.61937e-05
-3.20639e-07
9.63992e-05
-3.74582e-07
9.66393e-05
-4.37382e-07
9.69194e-05
-5.1041e-07
9.72462e-05
-5.95219e-07
9.7627e-05
-6.93555e-07
9.80705e-05
-8.07365e-07
9.85863e-05
-9.38791e-07
9.91856e-05
-1.09017e-06
9.98806e-05
-1.26398e-06
0.000100685
-1.46283e-06
0.000101615
-1.68932e-06
0.000102687
-1.94598e-06
0.00010392
-2.23502e-06
0.000105331
-2.55815e-06
0.000106942
-2.91621e-06
0.000108771
-3.3088e-06
0.000110838
-3.7338e-06
0.000113159
-4.18679e-06
0.000115745
-4.66058e-06
0.000118605
-5.14452e-06
0.000121736
-5.62444e-06
0.000125128
-6.08207e-06
0.000128755
-6.49623e-06
0.000132581
-6.84285e-06
0.000136554
-7.09778e-06
0.000140609
-7.23873e-06
-7.24815e-06
0.000144671
7.56346e-05
-1.27139e-07
7.58053e-05
-3.8232e-07
7.60879e-05
-6.33435e-07
7.64784e-05
-8.75449e-07
7.69705e-05
-1.10419e-06
7.75568e-05
-1.31632e-06
7.82284e-05
-1.50928e-06
7.89758e-05
-1.68134e-06
7.97892e-05
-1.83155e-06
8.06586e-05
-1.95972e-06
8.15743e-05
-2.0663e-06
8.25271e-05
-2.15224e-06
8.35084e-05
-2.21887e-06
8.45103e-05
-2.26779e-06
8.55259e-05
-2.30074e-06
8.6549e-05
-2.31953e-06
8.75741e-05
-2.32598e-06
8.85966e-05
-2.32182e-06
8.96127e-05
-2.30869e-06
9.06192e-05
-2.28809e-06
9.16133e-05
-2.26141e-06
9.25931e-05
-2.22986e-06
9.3557e-05
-2.19451e-06
9.45036e-05
-2.15629e-06
9.54322e-05
-2.11602e-06
9.63421e-05
-2.07435e-06
9.72331e-05
-2.03188e-06
9.81049e-05
-1.98905e-06
9.89576e-05
-1.94627e-06
9.97914e-05
-1.90383e-06
0.000100607
-1.86198e-06
0.000101403
-1.8209e-06
0.000102182
-1.78075e-06
0.000102944
-1.74161e-06
0.000103688
-1.70356e-06
0.000104416
-1.66664e-06
0.000105128
-1.63087e-06
0.000105824
-1.59625e-06
0.000106506
-1.56276e-06
0.000107172
-1.5304e-06
0.000107825
-1.49912e-06
0.000108464
-1.46889e-06
0.00010909
-1.43967e-06
0.000109704
-1.41142e-06
0.000110305
-1.38409e-06
0.000110894
-1.35765e-06
0.000111472
-1.33203e-06
0.000112038
-1.30721e-06
0.000112594
-1.28313e-06
0.000113139
-1.25976e-06
0.000113673
-1.23705e-06
0.000114198
-1.21497e-06
0.000114713
-1.19348e-06
0.000115219
-1.17254e-06
0.000115716
-1.15213e-06
0.000116203
-1.13222e-06
0.000116682
-1.11276e-06
0.000117153
-1.09374e-06
0.000117614
-1.07512e-06
0.000118068
-1.05689e-06
0.000118514
-1.03901e-06
0.000118952
-1.02147e-06
0.000119382
-1.00423e-06
0.000119805
-9.87273e-07
0.00012022
-9.70582e-07
0.000120628
-9.5413e-07
0.000121029
-9.37896e-07
0.000121423
-9.21858e-07
0.00012181
-9.05993e-07
0.000122189
-8.90279e-07
0.000122562
-8.74694e-07
0.000122928
-8.59215e-07
0.000123287
-8.43821e-07
0.00012364
-8.28488e-07
0.000123986
-8.13195e-07
0.000124325
-7.97921e-07
0.000124657
-7.82644e-07
0.000124983
-7.67344e-07
0.000125302
-7.52001e-07
0.000125614
-7.36598e-07
0.00012592
-7.21118e-07
0.000126218
-7.05546e-07
0.00012651
-6.89869e-07
0.000126796
-6.74077e-07
0.000127074
-6.58161e-07
0.000127345
-6.42117e-07
0.000127609
-6.25942e-07
0.000127866
-6.09633e-07
0.000128116
-5.93195e-07
0.000128359
-5.7663e-07
0.000128595
-5.59944e-07
0.000128824
-5.43146e-07
0.000129045
-5.26242e-07
0.000129259
-5.09243e-07
0.000129465
-4.92156e-07
0.000129664
-4.74992e-07
0.000129856
-4.57757e-07
0.00013004
-4.40459e-07
0.000130217
-4.23105e-07
0.000130386
-4.057e-07
0.000130548
-3.88251e-07
0.000130702
-3.70764e-07
0.000130849
-3.53246e-07
0.000130988
-3.35707e-07
0.00013112
-3.1816e-07
0.000131245
-3.00624e-07
0.000131361
-2.83121e-07
0.000131471
-2.65682e-07
0.000131573
-2.48342e-07
0.000131668
-2.31148e-07
0.000131756
-2.14151e-07
0.000131837
-1.9741e-07
0.00013191
-1.80993e-07
0.000131977
-1.6497e-07
0.000132038
-1.49415e-07
0.000132093
-1.34404e-07
0.000132141
-1.20012e-07
0.000132184
-1.06311e-07
0.000132221
-9.33657e-08
0.000132254
-8.12337e-08
0.000132282
-6.99622e-08
0.000132305
-5.95865e-08
0.000132325
-5.0129e-08
0.000132342
-4.15985e-08
0.000132355
-3.39899e-08
0.000132365
-2.7285e-08
0.000132374
-2.14536e-08
0.00013238
-1.64542e-08
0.000132385
-1.22368e-08
0.000132388
-8.74415e-09
0.00013239
-5.91415e-09
0.000132391
-3.68208e-09
0.000132392
-1.98258e-09
0.000132392
-7.51625e-10
0.000132392
7.19248e-11
0.000132392
5.44554e-10
0.000132391
7.17407e-10
0.000132391
6.35113e-10
0.000132391
3.35334e-10
0.000132391
-1.51791e-10
0.000132391
-8.04128e-10
0.000132392
-1.60574e-09
0.000132393
-2.54926e-09
0.000132395
-3.63449e-09
0.000132397
-4.86848e-09
0.0001324
-6.26553e-09
0.000132403
-7.84725e-09
0.000132407
-9.64269e-09
0.000132412
-1.16887e-08
0.000132418
-1.40306e-08
0.000132425
-1.67227e-08
0.000132434
-1.98295e-08
0.000132443
-2.3427e-08
0.000132455
-2.76042e-08
0.000132469
-3.24653e-08
0.000132485
-3.8132e-08
0.000132504
-4.47462e-08
0.000132526
-5.24735e-08
0.000132553
-6.15074e-08
0.000132583
-7.20735e-08
0.000132619
-8.44352e-08
0.000132661
-9.88998e-08
0.00013271
-1.15826e-07
0.000132768
-1.35633e-07
0.000132835
-1.58808e-07
0.000132914
-1.8592e-07
0.000133006
-2.17632e-07
0.000133114
-2.54714e-07
0.000133241
-2.98062e-07
0.000133389
-3.48716e-07
0.000133562
-4.0788e-07
0.000133765
-4.76948e-07
0.000134002
-5.57525e-07
0.000134279
-6.51459e-07
0.000134602
-7.60867e-07
0.00013498
-8.88166e-07
0.000135421
-1.0361e-06
0.000135935
-1.20776e-06
0.000136534
-1.4066e-06
0.000137232
-1.63647e-06
0.000138043
-1.90156e-06
0.000138986
-2.20638e-06
0.000140078
-2.55567e-06
0.000141343
-2.95432e-06
0.000142805
-3.40706e-06
0.000144488
-3.91825e-06
0.000146421
-4.49142e-06
0.000148634
-5.12873e-06
0.000151155
-5.8302e-06
0.000154014
-6.59291e-06
0.000157237
-7.40985e-06
0.000160846
-8.26902e-06
0.000164853
-9.15187e-06
0.000169262
-1.00334e-05
0.00017406
-1.08799e-05
0.000179216
-1.16526e-05
0.000184678
-1.2305e-05
0.000190371
-1.27908e-05
0.000196198
-1.30653e-05
-1.30925e-05
0.000202042
9.72472e-05
-2.02741e-07
9.74747e-05
-6.09846e-07
9.78515e-05
-1.01021e-06
9.83716e-05
-1.3955e-06
9.90263e-05
-1.75895e-06
9.98052e-05
-2.09515e-06
0.000100696
-2.4e-06
0.000101685
-2.67082e-06
0.00010276
-2.90626e-06
0.000103907
-3.10618e-06
0.000105112
-3.27148e-06
0.000106363
-3.40385e-06
0.00010765
-3.50557e-06
0.000108962
-3.57932e-06
0.000110289
-3.62796e-06
0.000111624
-3.65445e-06
0.000112959
-3.6617e-06
0.00011429
-3.65247e-06
0.000115611
-3.62937e-06
0.000116917
-3.59476e-06
0.000118207
-3.5508e-06
0.000119476
-3.49938e-06
0.000120724
-3.44216e-06
0.000121948
-3.38059e-06
0.000123148
-3.3159e-06
0.000124323
-3.24913e-06
0.000125472
-3.18116e-06
0.000126596
-3.1127e-06
0.000127694
-3.04433e-06
0.000128767
-2.97654e-06
0.000129814
-2.90968e-06
0.000130837
-2.84406e-06
0.000131837
-2.77988e-06
0.000132812
-2.71729e-06
0.000133765
-2.65642e-06
0.000134696
-2.59731e-06
0.000135605
-2.54001e-06
0.000136493
-2.48451e-06
0.000137361
-2.43081e-06
0.00013821
-2.37887e-06
0.000139039
-2.32864e-06
0.00013985
-2.28008e-06
0.000140644
-2.23312e-06
0.00014142
-2.18771e-06
0.00014218
-2.14376e-06
0.000142923
-2.10123e-06
0.000143651
-2.06003e-06
0.000144364
-2.0201e-06
0.000145063
-1.98138e-06
0.000145747
-1.94381e-06
0.000146417
-1.90732e-06
0.000147074
-1.87185e-06
0.000147718
-1.83736e-06
0.000148349
-1.80377e-06
0.000148968
-1.77106e-06
0.000149575
-1.73916e-06
0.00015017
-1.70802e-06
0.000150754
-1.67762e-06
0.000151327
-1.64789e-06
0.000151889
-1.61881e-06
0.00015244
-1.59033e-06
0.000152981
-1.56241e-06
0.000153512
-1.53501e-06
0.000154032
-1.50811e-06
0.000154544
-1.48166e-06
0.000155045
-1.45562e-06
0.000155537
-1.42996e-06
0.00015602
-1.40465e-06
0.000156494
-1.37965e-06
0.000156958
-1.35492e-06
0.000157414
-1.33043e-06
0.000157861
-1.30615e-06
0.000158299
-1.28202e-06
0.000158729
-1.25803e-06
0.00015915
-1.23413e-06
0.000159562
-1.21029e-06
0.000159966
-1.18648e-06
0.000160361
-1.16266e-06
0.000160748
-1.1388e-06
0.000161126
-1.11487e-06
0.000161496
-1.09085e-06
0.000161857
-1.06671e-06
0.00016221
-1.04244e-06
0.000162554
-1.018e-06
0.000162889
-9.93394e-07
0.000163215
-9.68609e-07
0.000163533
-9.43638e-07
0.000163842
-9.18479e-07
0.000164142
-8.93136e-07
0.000164433
-8.67614e-07
0.000164715
-8.4192e-07
0.000164988
-8.16067e-07
0.000165251
-7.90066e-07
0.000165506
-7.63931e-07
0.000165752
-7.37677e-07
0.000165988
-7.11318e-07
0.000166215
-6.84867e-07
0.000166433
-6.58336e-07
0.000166642
-6.31739e-07
0.000166841
-6.05086e-07
0.000167031
-5.78389e-07
0.000167212
-5.51662e-07
0.000167384
-5.24919e-07
0.000167546
-4.98179e-07
0.000167699
-4.71468e-07
0.000167844
-4.44815e-07
0.000167979
-4.1826e-07
0.000168105
-3.91852e-07
0.000168222
-3.65651e-07
0.000168331
-3.39726e-07
0.000168431
-3.14159e-07
0.000168523
-2.89039e-07
0.000168606
-2.64466e-07
0.000168682
-2.40546e-07
0.00016875
-2.17387e-07
0.00016881
-1.95101e-07
0.000168864
-1.73793e-07
0.000168911
-1.53565e-07
0.000168952
-1.34508e-07
0.000168988
-1.167e-07
0.000169018
-1.00205e-07
0.000169044
-8.50657e-08
0.000169065
-7.13088e-08
0.000169082
-5.89391e-08
0.000169096
-4.79421e-08
0.000169107
-3.82842e-08
0.000169116
-2.99143e-08
0.000169122
-2.27666e-08
0.000169126
-1.67626e-08
0.000169129
-1.18146e-08
0.000169131
-7.82846e-09
0.000169132
-4.7073e-09
0.000169133
-2.35398e-09
0.000169133
-6.74105e-10
0.000169132
4.21961e-10
0.000169132
1.01632e-09
0.000169131
1.18286e-09
0.000169131
9.85611e-10
0.000169131
4.78261e-10
0.000169131
-2.97115e-10
0.000169132
-1.30958e-09
0.000169132
-2.53798e-09
0.000169134
-3.97345e-09
0.000169136
-5.61774e-09
0.000169138
-7.48327e-09
0.000169142
-9.5931e-09
0.000169146
-1.19811e-08
0.000169151
-1.46921e-08
0.000169157
-1.77827e-08
0.000169164
-2.1322e-08
0.000169173
-2.53926e-08
0.000169183
-3.00925e-08
0.000169195
-3.5537e-08
0.00016921
-4.18612e-08
0.000169226
-4.92229e-08
0.000169246
-5.78066e-08
0.000169269
-6.78275e-08
0.000169296
-7.95367e-08
0.000169328
-9.32275e-08
0.000169365
-1.09242e-07
0.000169409
-1.2798e-07
0.00016946
-1.49909e-07
0.000169519
-1.75572e-07
0.000169589
-2.05605e-07
0.000169671
-2.4075e-07
0.000169767
-2.81872e-07
0.00016988
-3.29979e-07
0.000170011
-3.86243e-07
0.000170165
-4.52029e-07
0.000170345
-5.28923e-07
0.000170556
-6.18764e-07
0.000170803
-7.23681e-07
0.000171092
-8.46133e-07
0.000171429
-9.88956e-07
0.000171824
-1.15541e-06
0.000172285
-1.34921e-06
0.000172823
-1.57461e-06
0.000173452
-1.83641e-06
0.000174185
-2.14001e-06
0.00017504
-2.49144e-06
0.000176036
-2.89734e-06
0.000177195
-3.36492e-06
0.000178541
-3.90185e-06
0.000180103
-4.51614e-06
0.000181911
-5.21578e-06
0.000184001
-6.00835e-06
0.00018641
-6.9004e-06
0.000189178
-7.89659e-06
0.000192347
-8.99854e-06
0.000195957
-1.02035e-05
0.00020005
-1.15023e-05
0.000204659
-1.28782e-05
0.00020981
-1.43031e-05
0.000215515
-1.57388e-05
0.000221766
-1.71305e-05
0.000228529
-1.84155e-05
0.000235737
-1.95128e-05
0.00024329
-2.03442e-05
0.000251051
-2.08267e-05
-2.08936e-05
0.000258853
0.000118862
-2.99507e-07
0.000119153
-9.01136e-07
0.000119636
-1.49237e-06
0.0001203
-2.06035e-06
0.000121136
-2.59475e-06
0.000122128
-3.08743e-06
0.000123261
-3.53239e-06
0.000124516
-3.92581e-06
0.000125876
-4.26598e-06
0.000127322
-4.55306e-06
0.00012884
-4.78871e-06
0.000130412
-4.97575e-06
0.000132024
-5.11782e-06
0.000133664
-5.21909e-06
0.00013532
-5.28394e-06
0.000136982
-5.31683e-06
0.000138642
-5.32207e-06
0.000140294
-5.30375e-06
0.00014193
-5.26567e-06
0.000143546
-5.21128e-06
0.000145139
-5.14365e-06
0.000146705
-5.06553e-06
0.000148243
-4.97927e-06
0.000149749
-4.88694e-06
0.000151223
-4.79028e-06
0.000152665
-4.69076e-06
0.000154073
-4.58962e-06
0.000155449
-4.48788e-06
0.000156791
-4.38635e-06
0.0001581
-4.28571e-06
0.000159377
-4.18649e-06
0.000160622
-4.08908e-06
0.000161835
-3.9938e-06
0.000163019
-3.90086e-06
0.000164173
-3.81043e-06
0.000165298
-3.72259e-06
0.000166396
-3.63739e-06
0.000167466
-3.55485e-06
0.00016851
-3.47496e-06
0.000169529
-3.39765e-06
0.000170523
-3.32289e-06
0.000171494
-3.25058e-06
0.000172441
-3.18066e-06
0.000173367
-3.11304e-06
0.00017427
-3.04761e-06
0.000175154
-2.9843e-06
0.000176016
-2.92299e-06
0.00017686
-2.8636e-06
0.000177685
-2.80604e-06
0.000178491
-2.75022e-06
0.00017928
-2.69604e-06
0.000180051
-2.64343e-06
0.000180806
-2.59231e-06
0.000181545
-2.54259e-06
0.000182268
-2.49421e-06
0.000182976
-2.44709e-06
0.000183669
-2.40116e-06
0.000184348
-2.35636e-06
0.000185013
-2.31263e-06
0.000185664
-2.2699e-06
0.000186302
-2.22812e-06
0.000186927
-2.18723e-06
0.000187539
-2.14717e-06
0.000188138
-2.10789e-06
0.000188726
-2.06933e-06
0.000189302
-2.03144e-06
0.000189866
-1.99417e-06
0.000190419
-1.95746e-06
0.000190961
-1.92126e-06
0.000191491
-1.88551e-06
0.000192011
-1.85017e-06
0.00019252
-1.81517e-06
0.000193018
-1.78047e-06
0.000193506
-1.74601e-06
0.000193984
-1.71174e-06
0.000194451
-1.6776e-06
0.000194908
-1.64355e-06
0.000195355
-1.60953e-06
0.000195792
-1.57551e-06
0.000196218
-1.54143e-06
0.000196635
-1.50725e-06
0.000197041
-1.47295e-06
0.000197437
-1.43848e-06
0.000197823
-1.40383e-06
0.000198199
-1.36896e-06
0.000198564
-1.33387e-06
0.000198919
-1.29855e-06
0.000199263
-1.26299e-06
0.000199597
-1.22719e-06
0.000199921
-1.19116e-06
0.000200234
-1.15492e-06
0.000200536
-1.11847e-06
0.000200828
-1.08184e-06
0.000201109
-1.04504e-06
0.00020138
-1.0081e-06
0.000201639
-9.71029e-07
0.000201888
-9.33861e-07
0.000202127
-8.96611e-07
0.000202354
-8.593e-07
0.000202571
-8.21948e-07
0.000202777
-7.84577e-07
0.000202973
-7.4721e-07
0.000203158
-7.09874e-07
0.000203332
-6.72603e-07
0.000203496
-6.35437e-07
0.00020365
-5.98426e-07
0.000203793
-5.6163e-07
0.000203926
-5.25123e-07
0.00020405
-4.88992e-07
0.000204163
-4.53337e-07
0.000204267
-4.18272e-07
0.000204362
-3.83922e-07
0.000204448
-3.50422e-07
0.000204526
-3.17914e-07
0.000204595
-2.86543e-07
0.000204656
-2.56453e-07
0.00020471
-2.2778e-07
0.000204757
-2.00654e-07
0.000204798
-1.75186e-07
0.000204833
-1.51471e-07
0.000204862
-1.29582e-07
0.000204886
-1.09566e-07
0.000204907
-9.14437e-08
0.000204923
-7.5211e-08
0.000204936
-6.08363e-08
0.000204946
-4.82638e-08
0.000204953
-3.74157e-08
0.000204959
-2.81954e-08
0.000204962
-2.04912e-08
0.000204965
-1.41803e-08
0.000204966
-9.13325e-09
0.000204967
-5.21777e-09
0.000204967
-2.3029e-09
0.000204966
-2.62598e-10
0.000204966
1.02236e-09
0.000204965
1.65975e-09
0.000204964
1.74608e-09
0.000204964
1.36417e-09
0.000204964
5.82885e-10
0.000204964
-5.45402e-10
0.000204965
-1.98174e-09
0.000204966
-3.70169e-09
0.000204968
-5.69668e-09
0.00020497
-7.97229e-09
0.000204973
-1.05484e-08
0.000204977
-1.34592e-08
0.000204982
-1.67532e-08
0.000204987
-2.04941e-08
0.000204994
-2.47612e-08
0.000205003
-2.96509e-08
0.000205013
-3.52783e-08
0.000205024
-4.17796e-08
0.000205038
-4.93148e-08
0.000205054
-5.80711e-08
0.000205073
-6.82676e-08
0.000205096
-8.01598e-08
0.000205122
-9.40463e-08
0.000205153
-1.10275e-07
0.000205189
-1.29254e-07
0.000205231
-1.51457e-07
0.00020528
-1.77439e-07
0.000205338
-2.07848e-07
0.000205406
-2.43441e-07
0.000205486
-2.851e-07
0.000205579
-3.33858e-07
0.000205688
-3.90917e-07
0.000205816
-4.5768e-07
0.000205965
-5.35781e-07
0.00020614
-6.27125e-07
0.000206345
-7.33925e-07
0.000206585
-8.58752e-07
0.000206866
-1.00459e-06
0.000207195
-1.17488e-06
0.00020758
-1.37362e-06
0.00020803
-1.6054e-06
0.000208556
-1.87549e-06
0.000209171
-2.18991e-06
0.00020989
-2.55551e-06
0.00021073
-2.98006e-06
0.000211711
-3.47225e-06
0.000212855
-4.04175e-06
0.00021419
-4.69919e-06
0.000215744
-5.45603e-06
0.000217552
-6.32443e-06