/*--------------------------------*- C++ -*----------------------------------*\
  =========                 |
  \\      /  F ield         | OpenFOAM: The Open Source CFD Toolbox
   \\    /   O peration     | Website:  https://openfoam.org
    \\  /    A nd           | Version:  7
     \\/     M anipulation  |
\*---------------------------------------------------------------------------*/
FoamFile
{
    version     2.0;
    format      ascii;
    class       volVectorField;
    location    "3";
    object      U;
}
// * * * * * * * * * * * * * * * * * * * * * * * * * * * * * * * * * * * * * //

dimensions      [0 1 -1 0 0 0 0];

internalField   nonuniform List<vector> 
433
(
(0.0939393 -0.00931386 1.28817e-18)
(0.141169 -0.0256663 1.53163e-18)
(0.185806 -0.0369117 -9.12561e-19)
(0.229508 -0.0445313 1.14441e-18)
(0.273261 -0.0495393 -8.84362e-19)
(0.0677954 -0.0556471 -6.22513e-19)
(0.120193 -0.0593671 -3.00048e-19)
(0.16888 -0.0605892 -1.74394e-18)
(0.215693 -0.0605254 1.34686e-18)
(0.261845 -0.0598291 -2.31415e-18)
(0.308075 -0.0587866 2.58379e-18)
(0.354828 -0.057468 -1.08983e-18)
(0.402366 -0.055848 -1.17961e-18)
(0.450825 -0.0538781 1.59343e-18)
(0.500246 -0.051521 -9.71156e-19)
(0.13238 -0.0923889 1.16196e-19)
(0.161507 -0.0836363 -5.11695e-21)
(0.19376 -0.0763328 -1.90982e-19)
(0.229085 -0.0704166 1.59035e-18)
(0.267433 -0.065694 -1.86336e-18)
(0.308607 -0.0618249 3.45341e-18)
(0.352258 -0.0584554 -4.24102e-18)
(0.398003 -0.0552731 6.36176e-19)
(0.445495 -0.0520372 -1.51987e-18)
(0.494437 -0.0485819 2.39736e-18)
(0.544564 -0.0448085 -2.9528e-18)
(0.595623 -0.040672 3.50444e-18)
(0.647344 -0.0361693 -8.61497e-19)
(0.699426 -0.0313278 -1.0214e-18)
(0.751522 -0.0261985 1.50371e-19)
(0.133834 -0.0592585 -3.11334e-20)
(0.162272 -0.0535485 -2.42e-18)
(0.193884 -0.052032 3.75915e-19)
(0.227913 -0.0517302 7.95555e-19)
(0.264684 -0.0515582 3.35849e-19)
(0.304369 -0.0510941 -1.88883e-18)
(0.346827 -0.0501153 1.42398e-18)
(0.39174 -0.0484297 9.35644e-19)
(0.438715 -0.0459637 2.03289e-18)
(0.487367 -0.0427285 -3.75752e-18)
(0.537351 -0.038775 1.47684e-18)
(0.588357 -0.0341766 3.31675e-19)
(0.640085 -0.0290159 -4.46807e-19)
(0.692223 -0.0233794 6.7858e-20)
(0.74443 -0.0173547 -1.50021e-18)
(0.796326 -0.0110326 1.30117e-18)
(0.847481 -0.00448603 -3.37158e-19)
(0.897357 0.00221744 1.21222e-18)
(0.945423 0.00872286 -1.73823e-18)
(0.991099 0.0147453 2.67969e-19)
(-0.057167 0.0196616 6.19188e-19)
(0.0247402 0.00481804 -6.88314e-19)
(0.0982078 -0.00975674 -1.42716e-18)
(0.162104 -0.0216549 1.39272e-18)
(0.219147 -0.0301253 -3.65704e-19)
(0.272193 -0.0356051 3.52617e-19)
(0.323369 -0.0384712 1.44893e-22)
(0.373913 -0.0391086 8.55687e-19)
(0.424476 -0.0379068 -5.82753e-19)
(0.475379 -0.0352026 -4.75344e-19)
(0.526747 -0.0312827 6.90545e-19)
(0.578585 -0.026386 5.03852e-20)
(0.630813 -0.0207075 9.97772e-19)
(0.683271 -0.0144066 -1.52942e-18)
(0.735725 -0.00761709 2.28752e-18)
(0.787869 -0.000456096 -1.85241e-18)
(0.839333 0.00696508 5.74278e-19)
(0.889686 0.0145606 5.14665e-19)
(0.93838 0.0222309 1.39726e-18)
(0.984897 0.0296557 -2.7803e-18)
(1.02868 0.0366199 -1.43998e-19)
(-0.250061 0.0551471 -6.46369e-19)
(-0.12613 0.010386 -3.96428e-19)
(-0.0137745 -0.0192811 -8.60304e-20)
(0.0816792 -0.0363891 2.70855e-19)
(0.161942 -0.044307 -2.39961e-20)
(0.231296 -0.0466678 5.88733e-19)
(0.293484 -0.0455582 -1.24022e-19)
(0.351267 -0.0422779 -8.84406e-19)
(0.40652 -0.0376419 8.4604e-19)
(0.460405 -0.0321357 -7.16895e-19)
(0.513628 -0.0260159 1.41456e-19)
(0.566595 -0.0194113 2.39416e-20)
(0.619501 -0.0123866 1.69039e-19)
(0.672379 -0.00498173 -1.08145e-18)
(0.725131 0.00276554 -3.63499e-20)
(0.777548 0.0108071 -5.64192e-19)
(0.829328 0.0190794 -6.46209e-19)
(0.880091 0.0275005 2.56384e-19)
(0.929398 0.0359984 1.20059e-18)
(0.97669 0.0444568 -1.78632e-18)
(1.02146 0.0525999 1.40849e-18)
(1.06316 0.0602672 1.42142e-18)
(0.0230006 -0.0615311 -1.47629e-19)
(0.0842001 -0.0769598 -9.20456e-20)
(0.146596 -0.0819716 1.37795e-19)
(0.204543 -0.0775121 -1.96193e-19)
(0.257752 -0.0689933 4.52649e-19)
(0.307871 -0.0592332 -6.80123e-19)
(0.356821 -0.0488805 4.84731e-19)
(0.405746 -0.0387512 1.36054e-18)
(0.455245 -0.0291989 -3.11134e-19)
(0.505539 -0.0201689 -1.47392e-20)
(0.55662 -0.0114932 5.26274e-19)
(0.608364 -0.0029792 5.82478e-19)
(0.660576 0.00553844 1.6254e-19)
(0.713007 0.0141743 -7.33696e-19)
(0.765355 0.0229861 -2.95889e-19)
(0.817269 0.0319786 -6.22896e-20)
(0.868349 0.0411124 1.02193e-18)
(0.91815 0.0503102 2.98531e-19)
(0.966193 0.0594973 -3.78029e-19)
(1.0119 0.0685296 2.16503e-19)
(1.05477 0.0771707 4.07323e-19)
(1.09424 0.085293 5.93614e-20)
(0.32399 -0.0499498 3.14551e-20)
(0.256919 -0.0290271 3.01612e-20)
(0.252915 -0.0225111 -2.91597e-19)
(0.273464 -0.0202234 4.85823e-19)
(0.302906 -0.0192947 2.31356e-19)
(0.336197 -0.0176611 1.68067e-19)
(0.372229 -0.0147516 -1.69438e-18)
(0.4113 -0.0107741 2.01763e-18)
(0.453519 -0.00596192 -6.60687e-19)
(0.498681 -0.000447295 2.64543e-19)
(0.546329 0.0057561 -1.38181e-18)
(0.595892 0.0126404 -2.26812e-19)
(0.646809 0.0201811 -3.87128e-20)
(0.698558 0.0283308 -3.74218e-19)
(0.75065 0.0370173 -4.91552e-19)
(0.802615 0.0461463 1.05192e-18)
(0.853984 0.0556045 -8.33731e-19)
(0.90428 0.0652633 1.42729e-18)
(0.953009 0.0749789 -1.42947e-18)
(0.999671 0.0846302 2.21873e-19)
(1.04369 0.094023 -4.63074e-19)
(1.08455 0.102947 9.45558e-19)
(1.12171 0.111285 -2.48426e-18)
(0.125329 -0.0344486 -3.32455e-19)
(0.102458 0.0135641 8.17038e-19)
(0.141468 0.0356828 -7.1703e-19)
(0.199755 0.0403862 2.25313e-18)
(0.259181 0.0376081 -1.40616e-18)
(0.314956 0.0331889 1.30071e-18)
(0.367493 0.0293353 -3.94232e-19)
(0.418512 0.0271554 1.30599e-19)
(0.469345 0.0269798 -7.36609e-19)
(0.520649 0.0287088 3.82408e-20)
(0.572629 0.0323292 3.92305e-19)
(0.625201 0.0376631 -3.00993e-19)
(0.67814 0.0444351 6.99492e-19)
(0.731152 0.05237 -1.74947e-18)
(0.783902 0.0612042 1.68206e-18)
(0.836018 0.0706918 -8.1138e-19)
(0.887092 0.0806055 1.1056e-18)
(0.936685 0.0907334 -5.70696e-19)
(0.984334 0.100871 3.72879e-19)
(1.02956 0.110858 -7.3266e-19)
(1.07182 0.120456 5.43073e-19)
(1.11063 0.129484 5.9301e-19)
(1.14545 0.137829 5.39917e-19)
(-0.294764 0.082609 -3.08876e-19)
(-0.188314 0.0669809 6.227e-19)
(-0.057811 0.0570494 -4.72655e-19)
(0.0666148 0.0496878 2.74343e-19)
(0.173788 0.0431649 3.08224e-19)
(0.264037 0.0384665 -5.0475e-19)
(0.341582 0.0362893 -2.32725e-19)
(0.410647 0.0365555 7.06332e-20)
(0.474393 0.0390429 -1.13404e-19)
(0.534791 0.0434516 1.76441e-19)
(0.593041 0.0495075 -1.51454e-19)
(0.64983 0.0569327 3.18838e-19)
(0.705498 0.0654653 -5.28899e-19)
(0.760152 0.0748645 -1.52732e-19)
(0.813729 0.0849076 5.33871e-19)
(0.866035 0.0953851 -6.29235e-20)
(0.916776 0.106095 5.39894e-19)
(0.965591 0.11684 -6.82649e-19)
(1.01207 0.127423 4.05714e-19)
(1.05578 0.137686 7.54435e-19)
(1.09623 0.14738 -8.7694e-19)
(1.13295 0.156365 -3.0883e-19)
(1.1654 0.164536 -3.96124e-19)
(-0.233439 -0.0165075 1.91393e-19)
(-0.110136 -0.0359964 -9.25289e-20)
(0.0143678 -0.0413806 8.23946e-20)
(0.126263 -0.0354532 6.24532e-21)
(0.222278 -0.0229751 -7.54423e-20)
(0.30457 -0.00837351 1.84721e-20)
(0.376989 0.00628593 2.66917e-20)
(0.442944 0.020579 -1.79445e-19)
(0.504881 0.0343617 1.13009e-19)
(0.564299 0.0475367 2.82636e-19)
(0.62206 0.0601839 -3.63548e-20)
(0.678609 0.0724665 -1.67682e-19)
(0.734119 0.0845353 -9.86608e-20)
(0.788568 0.0964971 2.48651e-19)
(0.841798 0.108398 2.37768e-19)
(0.893545 0.12022 -2.78803e-19)
(0.943471 0.131893 -2.6041e-19)
(0.99119 0.143301 -3.05312e-19)
(1.03629 0.154296 2.72579e-19)
(1.07835 0.164752 -2.70585e-19)
(1.11691 0.174426 1.51552e-19)
(1.1515 0.183229 2.50015e-19)
(1.1816 0.191061 8.26275e-20)
(0.292779 -0.0668534 7.23627e-20)
(0.232949 -0.0473916 1.33955e-19)
(0.244061 -0.0407485 8.84392e-20)
(0.281379 -0.0337513 -6.28135e-21)
(0.325403 -0.0223014 8.14517e-21)
(0.369982 -0.00773858 -1.23552e-20)
(0.414365 0.00805848 2.74006e-20)
(0.459402 0.0240022 3.27568e-20)
(0.506003 0.0394821 -1.98391e-20)
(0.554604 0.0542695 2.9913e-20)
(0.605084 0.068406 -1.62295e-19)
(0.657008 0.0820064 7.99168e-20)
(0.709814 0.0952197 -5.2543e-20)
(0.76291 0.108187 2.28682e-20)
(0.81572 0.120995 1.47239e-19)
(0.867691 0.133662 -2.15642e-19)
(0.918294 0.146145 3.53342e-20)
(0.967023 0.158343 2.27773e-19)
(1.01339 0.170122 -2.59822e-19)
(1.05695 0.181316 8.07873e-20)
(1.09725 0.191791 -4.57732e-20)
(1.13388 0.201294 -9.8318e-20)
(1.16636 0.209765 -7.3913e-20)
(1.19414 0.217108 1.27437e-20)
(0.664012 0.0828535 3.39052e-20)
(0.416658 0.0985805 1.52259e-19)
(0.333729 0.0981693 1.63957e-19)
(0.330138 0.0923473 -5.23774e-20)
(0.358916 0.085671 -1.52767e-19)
(0.398311 0.0815139 9.55293e-20)
(0.440664 0.0807779 -4.26237e-20)
(0.48456 0.0830418 1.62671e-20)
(0.530338 0.0877547 9.96966e-21)
(0.578311 0.0944957 1.51352e-20)
(0.628348 0.102926 2.00181e-19)
(0.679977 0.112713 -1.35795e-19)
(0.73256 0.123581 1.71374e-19)
(0.785411 0.13527 -1.55893e-19)
(0.837862 0.147519 -1.78008e-19)
(0.88929 0.160063 1.37886e-19)
(0.939119 0.172644 -1.51235e-19)
(0.986817 0.185008 2.31644e-20)
(1.0319 0.196911 2.12383e-19)
(1.07392 0.20812 5.89459e-20)
(1.11248 0.218464 -1.34804e-19)
(1.14719 0.227666 -1.30364e-19)
(1.1776 0.235677 1.00618e-19)
(1.20315 0.242406 -2.00723e-19)
(0.0229332 0.0183176 2.43067e-19)
(0.0424467 0.049064 -2.48746e-19)
(0.121831 0.0733032 4.12477e-19)
(0.215191 0.087796 -2.7627e-19)
(0.30283 0.0963667 2.21416e-19)
(0.38035 0.101955 -2.04928e-19)
(0.449454 0.106635 -9.37838e-20)
(0.513085 0.11185 3.66935e-19)
(0.573551 0.118382 -9.42603e-20)
(0.632205 0.126542 -1.16374e-19)
(0.689642 0.136253 1.43635e-19)
(0.745985 0.147285 -1.03599e-19)
(0.801096 0.159346 3.96848e-19)
(0.854702 0.172088 -2.27639e-20)
(0.906454 0.185153 -1.5805e-19)
(0.955973 0.1982 -6.77742e-20)
(1.00287 0.210914 -3.58171e-19)
(1.04676 0.223011 5.12576e-19)
(1.08729 0.234231 -8.00339e-19)
(1.12413 0.244395 8.05565e-19)
(1.15698 0.25323 7.88712e-20)
(1.18539 0.260695 -5.91447e-19)
(1.20881 0.26672 2.7397e-19)
(-0.281115 -0.018354 2.30012e-19)
(-0.148681 -0.00568065 -4.25935e-19)
(-0.00155514 0.0171398 2.48481e-19)
(0.134183 0.0403955 -1.55068e-19)
(0.250226 0.0602791 -3.11304e-19)
(0.34797 0.0770721 4.30878e-19)
(0.431915 0.0920134 9.01645e-20)
(0.506458 0.106135 -3.8682e-19)
(0.574811 0.120125 -3.00372e-20)
(0.639009 0.134333 -2.57251e-19)
(0.700188 0.148855 -1.51281e-19)
(0.758901 0.163646 -4.23869e-20)
(0.815332 0.178581 7.10862e-19)
(0.869446 0.193472 1.64469e-19)
(0.921074 0.208099 -3.91613e-19)
(0.969968 0.222231 -1.97995e-19)
(1.01584 0.235633 3.29948e-19)
(1.05839 0.248081 2.47968e-19)
(1.09735 0.259361 9.51252e-21)
(1.13245 0.269332 -1.07554e-18)
(1.16347 0.277756 1.39025e-18)
(1.18994 0.28461 -5.92915e-19)
(1.21134 0.289868 1.36573e-19)
(-0.0142845 -0.0510023 2.22064e-20)
(0.0827282 -0.0437027 7.09278e-19)
(0.180901 -0.0242605 -2.00723e-20)
(0.270047 0.00159285 3.0132e-19)
(0.348674 0.028554 1.28949e-19)
(0.418961 0.0540977 -4.68732e-19)
(0.483749 0.0779541 3.06222e-19)
(0.545301 0.10037 1.12284e-19)
(0.605006 0.121569 6.14899e-19)
(0.663497 0.141744 -3.00838e-19)
(0.720901 0.161023 -2.30739e-19)
(0.777041 0.179505 1.05817e-19)
(0.831594 0.197255 -1.16845e-18)
(0.884178 0.214236 1.6083e-18)
(0.934394 0.230361 -1.62209e-19)
(0.981856 0.245504 -1.5168e-19)
(1.02621 0.259512 -1.50965e-18)
(1.06713 0.272225 8.0887e-19)
(1.10436 0.283478 -4.36633e-19)
(1.13767 0.293171 7.87146e-19)
(1.16686 0.301114 -1.10974e-18)
(1.19148 0.307285 9.93614e-19)
(1.21096 0.311719 -2.8891e-19)
(0.380752 0.0930503 -8.48891e-20)
(0.364107 0.0837858 -1.21463e-19)
(0.383107 0.0801769 -9.28462e-20)
(0.415659 0.0833777 -2.31851e-19)
(0.453578 0.091415 -2.09789e-20)
(0.494596 0.102833 -1.92857e-19)
(0.538598 0.116648 1.18112e-18)
(0.585692 0.132158 -2.20782e-18)
(0.635553 0.148843 4.06665e-19)
(0.687445 0.166285 7.5865e-20)
(0.740427 0.184125 1.23252e-18)
(0.793518 0.202045 -2.66962e-19)
(0.84583 0.219751 -4.55927e-19)
(0.896592 0.236955 1.62317e-20)
(0.945159 0.253384 -6.99357e-19)
(0.991003 0.268779 -2.95002e-19)
(1.0337 0.282908 1.19978e-18)
(0.294068 0.161153 -3.29955e-19)
(0.308667 0.15023 -7.43982e-19)
(0.355204 0.144606 1.98728e-19)
(0.410785 0.143766 6.60173e-19)
(0.467387 0.147058 -1.23695e-18)
(0.523479 0.15388 1.35056e-18)
(0.579358 0.163821 -4.28215e-21)
(1.22917 0.225525 6.14693e-20)
(1.22016 0.200476 -6.22977e-20)
(1.20764 0.174753 5.95506e-19)
(1.19148 0.148601 -6.38214e-19)
(1.1716 0.122305 -7.58146e-20)
(1.14798 0.0961898 -1.05831e-18)
(1.12067 0.0706117 -2.7245e-19)
(1.08979 0.0459434 -5.22479e-19)
(1.05554 0.0225631 -4.17311e-19)
(1.26096 0.23146 -2.65015e-20)
(1.25646 0.210098 9.93253e-20)
(1.24896 0.187949 -2.8078e-19)
(1.23832 0.165186 -3.56902e-19)
(1.22441 0.142012 5.18179e-19)
(1.20712 0.118659 9.41919e-23)
(1.18643 0.0953885 5.18688e-19)
(1.16235 0.0724831 7.01261e-19)
(1.13496 0.0502441 -6.35578e-19)
(1.27871 0.231886 4.57812e-20)
(1.27801 0.213843 -1.21679e-19)
(1.27488 0.194985 -1.91029e-19)
(1.26915 0.175416 3.13712e-19)
(1.26063 0.155263 5.1926e-19)
(1.2492 0.134676 -8.3224e-20)
(1.23475 0.113831 -2.15189e-20)
(1.2172 0.0929284 -5.95018e-20)
(1.19653 0.0721916 1.50162e-18)
(1.28516 0.227568 -6.97946e-20)
(1.28735 0.212513 1.63247e-19)
(1.28767 0.196686 5.05854e-20)
(1.28593 0.18014 4.03239e-19)
(1.28198 0.162939 -2.60236e-20)
(1.27563 0.145172 6.51311e-19)
(1.26674 0.126943 -8.54459e-19)
(1.25518 0.10838 8.01628e-19)
(1.24086 0.0896357 -1.43977e-18)
(1.28361 0.219731 6.96489e-20)
(1.28775 0.207253 -1.17972e-19)
(1.29053 0.194109 -3.24858e-19)
(1.2918 0.180311 -5.07397e-19)
(1.29138 0.16588 1.93566e-19)
(1.28912 0.150852 1.45425e-19)
(1.28484 0.135277 -1.28275e-19)
(1.27841 0.119222 -1.58182e-18)
(1.26967 0.102773 8.75129e-19)
(1.27694 0.209587 -9.6822e-20)
(1.28219 0.199207 -7.59808e-20)
(1.28651 0.188288 5.36439e-19)
(1.28978 0.176817 3.20917e-19)
(1.29185 0.164792 2.30686e-20)
(1.29259 0.152213 -5.26068e-19)
(1.29182 0.139091 3.1843e-19)
(1.28941 0.125447 4.82638e-19)
(1.28519 0.111315 5.04995e-19)
(1.28255 0.1707 -1.495e-19)
(1.28619 0.160657 9.42555e-20)
(1.28891 0.150144 -2.90206e-19)
(1.29058 0.13915 7.70314e-20)
(1.29107 0.127665 1.63438e-19)
(1.29024 0.11569 -7.19254e-19)
(1.23391 0.315276 7.67342e-19)
(1.23698 0.294683 -6.77593e-19)
(1.23737 0.272786 5.60969e-20)
(1.23485 0.249687 -5.59046e-20)
(1.25313 0.306582 -2.64654e-19)
(1.25854 0.289531 3.76012e-19)
(1.26179 0.27128 -1.30077e-19)
(1.26267 0.251893 4.02896e-20)
(1.26105 0.294585 3.18401e-19)
(1.26814 0.280419 1.32801e-19)
(1.27357 0.265226 1.47783e-19)
(1.27716 0.249035 -5.31431e-20)
(1.26126 0.279567 -4.19877e-19)
(1.26916 0.267824 -1.10591e-19)
(1.27589 0.25524 -1.66896e-19)
(1.28128 0.241818 6.87736e-20)
(1.25646 0.263026 5.83033e-19)
(1.26457 0.253173 3.56578e-19)
(1.27188 0.242683 1.29984e-19)
(1.27828 0.231539 -6.93716e-20)
(1.24893 0.246005 -3.93775e-19)
(1.25679 0.237632 -5.81636e-19)
(1.26414 0.228782 1.00416e-19)
(1.27089 0.21944 9.11577e-20)
(1.24005 0.229388 1.68883e-19)
)
;

boundaryField
{
    inlet
    {
        type            uniformFixedValue;
        uniformValue    constant (1 0 0);
        value           nonuniform 0();
    }
    outlet
    {
        type            pressureInletOutletVelocity;
        value           nonuniform 0();
    }
    cylinder
    {
        type            fixedValue;
        value           nonuniform 0();
    }
    top
    {
        type            symmetryPlane;
    }
    bottom
    {
        type            symmetryPlane;
    }
    defaultFaces
    {
        type            empty;
    }
    procBoundary26to20
    {
        type            processor;
        value           nonuniform List<vector> 
28
(
(0.113831 -0.0165473 -1.57116e-19)
(0.0415373 0.0142366 -1.49427e-19)
(0.0415373 0.0142366 -1.49427e-19)
(0.00960486 -0.0469341 -5.36285e-19)
(0.00960486 -0.0469341 -5.36285e-19)
(0.106989 -0.103107 -1.7249e-19)
(0.106989 -0.103107 -1.7249e-19)
(0.113707 -0.0752434 -1.41461e-18)
(0.113707 -0.0752434 -1.41461e-18)
(-0.13636 0.0321337 -1.30205e-18)
(-0.13636 0.0321337 -1.30205e-18)
(-0.36816 0.116648 -1.4498e-18)
(-0.018724 -0.0429402 1.81006e-19)
(-0.018724 -0.0429402 1.81006e-19)
(0.529992 -0.111438 -3.31788e-19)
(0.283729 -0.116467 3.10966e-18)
(-0.324758 0.112936 5.75396e-19)
(-0.324422 0.0189443 -1.28731e-19)
(-0.324422 0.0189443 -1.28731e-19)
(0.502343 -0.124178 7.02996e-19)
(1.1949 0.0332976 5.66894e-19)
(0.140093 -0.00438761 -1.12905e-19)
(0.140093 -0.00438761 -1.12905e-19)
(-0.352652 -0.000561519 -2.72875e-19)
(-0.0858372 -0.0427972 2.45724e-18)
(0.480663 0.102942 -1.16048e-18)
(0.360031 0.180932 3.95694e-19)
(0.360031 0.180932 3.95694e-19)
)
;
    }
    procBoundary26to25
    {
        type            processor;
        value           nonuniform List<vector> 
23
(
(1.0729 0.295567 -8.34199e-19)
(1.10837 0.306577 2.03254e-18)
(1.13989 0.315842 -9.02083e-20)
(1.16733 0.323201 5.42685e-19)
(1.1902 0.328608 -2.85069e-18)
(0.635327 0.176423 -6.78635e-19)
(0.691266 0.191141 9.76503e-20)
(0.746729 0.207371 -3.55234e-19)
(0.801119 0.224499 -2.39571e-19)
(0.853828 0.241941 -5.18069e-19)
(0.904304 0.259168 -4.82115e-19)
(0.952073 0.275719 1.49964e-18)
(0.996745 0.291202 5.50686e-19)
(1.0729 0.295567 -8.34199e-19)
(1.03801 0.305302 1.20496e-18)
(0.00403333 -0.0423811 4.56081e-18)
(0.105152 0.00852366 1.38702e-18)
(0.214598 0.0514331 -1.69416e-18)
(0.315666 0.0854862 -1.14763e-18)
(0.404985 0.113021 5.36147e-19)
(0.484437 0.136526 -6.8304e-19)
(0.635327 0.176423 -6.78635e-19)
(0.556773 0.157989 -3.91646e-19)
)
;
    }
    procBoundary26to27
    {
        type            processor;
        value           nonuniform List<vector> 
17
(
(0.144222 -0.0268212 1.43968e-18)
(0.176154 -0.0352323 -4.14752e-20)
(0.210315 -0.0418822 -3.07893e-18)
(0.246897 -0.0469645 2.77455e-18)
(0.317646 -0.0526254 2.19399e-18)
(0.317646 -0.0526254 2.19399e-18)
(0.362997 -0.0542638 -1.67343e-18)
(0.409495 -0.0547863 1.5122e-18)
(0.457207 -0.0544303 -3.29257e-18)
(0.550582 -0.0487619 -2.05716e-18)
(0.550582 -0.0487619 -2.05716e-18)
(0.601707 -0.0456117 6.52482e-19)
(0.65342 -0.0421036 -1.68354e-18)
(0.705444 -0.0382898 8.49551e-19)
(0.803232 -0.0208298 9.5534e-19)
(0.803232 -0.0208298 9.5534e-19)
(0.854048 -0.0152515 -1.58898e-18)
)
;
    }
    procBoundary26to31
    {
        type            processor;
        value           nonuniform List<vector> 8((1.20791 0.332174 3.16319e-19) (1.2284 0.334486 1.03664e-19) (1.24579 0.322391 -5.94333e-19) (1.25251 0.307706 -6.96481e-19) (1.25236 0.290471 2.15516e-20) (1.24768 0.272263 -2.99116e-19) (1.24063 0.253919 -1.9968e-20) (1.23243 0.236324 -5.98892e-20));
    }
    procBoundary26to32
    {
        type            processor;
        value           nonuniform List<vector> 
15
(
(1.26729 0.198189 -7.28723e-20)
(1.273 0.189447 -2.12277e-19)
(1.27812 0.180291 4.62976e-19)
(1.27812 0.180291 4.62976e-19)
(1.27224 0.162925 4.94787e-20)
(1.2767 0.154456 3.43221e-19)
(1.28057 0.145615 -4.24528e-19)
(1.28376 0.136378 -7.91878e-19)
(1.28616 0.126723 -7.28453e-19)
(1.28764 0.11663 -9.52735e-19)
(1.24738 0.22212 -5.05665e-19)
(1.25441 0.214507 1.95701e-19)
(1.26107 0.206536 1.00579e-19)
(1.24738 0.22212 -5.05665e-19)
(1.2305 0.213506 -7.79158e-20)
)
;
    }
    procBoundary26to33
    {
        type            processor;
        value           nonuniform List<vector> 9((0.903432 -0.00984563 -2.38659e-18) (0.950771 -0.00498564 -2.13771e-19) (1.01818 0.000847064 -1.04904e-18) (1.10438 0.0289858 3.06468e-19) (1.17277 0.0518645 1.16521e-18) (1.22371 0.0708811 -1.64125e-18) (1.25851 0.0860322 1.05095e-18) (1.27903 0.096742 1.22109e-18) (1.28793 0.103232 -5.06406e-19));
    }
}


// ************************************************************************* //
